/*--------------------------------*- C++ -*----------------------------------*\
| =========                 |                                                 |
| \\      /  F ield         | OpenFOAM: The Open Source CFD Toolbox           |
|  \\    /   O peration     | Version:  v1912                                 |
|   \\  /    A nd           | Website:  www.openfoam.com                      |
|    \\/     M anipulation  |                                                 |
\*---------------------------------------------------------------------------*/
FoamFile
{
    version     2.0;
    format      ascii;
    class       volScalarField;
    location    "5.6";
    object      rho;
}
// * * * * * * * * * * * * * * * * * * * * * * * * * * * * * * * * * * * * * //

dimensions      [1 -3 0 0 0 0 0];


internalField   nonuniform List<scalar> 
1900
(
41243
16000.5
13880.8
13453
13148.5
13002.1
12933.3
12892.7
12865.7
12823.5
41243.1
16000.5
13880.7
13453
13148.9
13003.1
12935.2
12896.6
12865.3
12799.7
41243.1
16000.5
13880.7
13453.1
13149.5
13003.7
12935.2
12892.8
12848
12787.8
41243.1
16000.5
13880.7
13453
13148.9
13003.1
12935.2
12896.6
12865.3
12799.7
41243
16000.5
13880.8
13453
13148.5
13002.1
12933.3
12892.7
12865.7
12823.5
12939.4
12750.7
12620.5
12316.7
12308.1
12767.6
12643.7
12534.2
12251.5
11863.5
12738.9
12624.4
12529.3
12284.3
11949.1
12767.6
12643.7
12534.2
12251.5
11863.5
12939.4
12750.7
12620.5
12316.7
12308.1
6850.59
5069.2
5097.9
5001.39
4743.93
7522.48
5367.19
5266.62
5110.42
4905.98
7701.25
5304.29
5168.42
5033.89
4831.3
7522.48
5367.19
5266.62
5110.42
4905.98
6850.59
5069.2
5097.9
5001.39
4743.93
3218.72
2504.2
2808.42
3834.69
4217.26
4151.02
3762.71
3325.66
2971.78
2734.38
2586.19
2469.64
2359.78
2257.04
2171.49
2113.78
2079.84
2058.6
2042.53
2028.69
2016.69
2006.58
1998.31
1991.83
1986.92
1983.52
1981.43
1981.12
1983.03
1988.34
1995.72
2007.69
2020.44
2039.45
2057.58
2093.74
2130.06
2199.79
2377.82
3559.56
3579.72
2402.86
2769.16
3954.42
4345.25
4227.61
3798.41
3340.66
2977.66
2736.85
2587.23
2470.07
2360.56
2257.57
2171.68
2113.75
2079.75
2058.51
2042.45
2028.62
2016.62
2006.51
1998.24
1991.75
1986.84
1983.43
1981.33
1981.02
1982.93
1988.24
1995.62
2007.61
2020.34
2039.41
2057.42
2093.79
2130.1
2199.73
2376.04
3551.54
3612.94
2409.9
2702.23
3925.3
4305.01
4197.19
3800.01
3347.09
2980.41
2737.82
2587.63
2470.27
2360.9
2257.75
2171.73
2113.74
2079.73
2058.49
2042.43
2028.61
2016.6
2006.49
1998.21
1991.72
1986.81
1983.4
1981.3
1980.98
1982.89
1988.2
1995.58
2007.58
2020.31
2039.4
2057.38
2093.84
2130.23
2200.05
2375.44
3547.12
3579.72
2402.86
2769.16
3954.42
4345.25
4227.61
3798.41
3340.66
2977.66
2736.85
2587.23
2470.07
2360.56
2257.57
2171.68
2113.75
2079.75
2058.51
2042.45
2028.62
2016.62
2006.51
1998.24
1991.75
1986.84
1983.43
1981.33
1981.02
1982.93
1988.24
1995.62
2007.61
2020.34
2039.41
2057.42
2093.79
2130.1
2199.73
2376.04
3551.54
3218.72
2504.2
2808.42
3834.69
4217.26
4151.02
3762.71
3325.66
2971.78
2734.38
2586.19
2469.64
2359.78
2257.04
2171.49
2113.78
2079.84
2058.6
2042.53
2028.69
2016.69
2006.58
1998.31
1991.83
1986.92
1983.52
1981.43
1981.12
1983.03
1988.34
1995.72
2007.69
2020.44
2039.45
2057.58
2093.74
2130.06
2199.79
2377.82
3559.56
2743.43
2479.87
2938.67
3724.22
4030.11
3956.18
3639.06
3271.54
2946.29
2722.06
2580.76
2466.27
2355.96
2253.93
2170.2
2113.68
2080.12
2058.89
2042.78
2028.92
2016.93
2006.84
1998.6
1992.14
1987.24
1983.86
1981.79
1981.49
1983.41
1988.7
1996.07
2007.97
2020.74
2039.57
2058.07
2093.44
2129.88
2198.56
2383.54
3680.25
2803.36
2580.1
2943.47
3365.56
3613.93
3605.51
3417.68
3140.18
2875.89
2690.9
2566.32
2456.12
2346.52
2246.75
2167.02
2113.34
2080.75
2059.58
2043.37
2029.47
2017.5
2007.48
1999.29
1992.88
1988.04
1984.71
1982.68
1982.42
1984.37
1989.64
1996.96
2008.71
2021.49
2040.07
2059.02
2093.22
2129.38
2194.83
2382.87
3541.39
2784.67
2571.35
2790.77
3152.2
3295.26
3321.73
3201.48
2992.03
2792.14
2650.49
2543.94
2439.74
2332.69
2237.06
2162.54
2112.61
2081.43
2060.46
2044.16
2030.22
2018.31
2008.38
2000.29
1993.96
1989.2
1985.96
1984.02
1983.83
1985.84
1991.07
1998.34
2009.88
2022.7
2041
2060.36
2093.19
2128.72
2190.53
2386.02
3498.78
2924.35
2578.37
2712.12
2956.63
3090.95
3092.6
3000.49
2849.9
2710.69
2607.21
2516.34
2418.4
2315.43
2225.73
2157.36
2111.58
2082.03
2061.37
2045.03
2031.09
2019.26
2009.46
2001.5
1995.29
1990.64
1987.54
1985.72
1985.65
1987.75
1992.93
2000.14
2011.45
2024.29
2042.36
2061.96
2093.59
2127.89
2187.85
2393.51
3472.69
2968.55
2510.14
2641.25
2848.73
2921.47
2904.58
2830.17
2729.72
2636.73
2562.74
2484.53
2392.53
2295.79
2213.43
2151.89
2110.36
2082.53
2062.28
2045.97
2032.07
2020.37
2010.73
2002.93
1996.88
1992.38
1989.43
1987.78
1987.87
1990.04
1995.17
2002.3
2013.32
2026.12
2043.94
2063.65
2094.24
2126.82
2186.58
2399.27
3440.7
2941.44
2451.04
2599.59
2746.35
2768.2
2747.72
2694.97
2635.57
2576.52
2521.61
2451.97
2365.01
2275.71
2201.49
2146.81
2109.29
2083.13
2063.34
2047.14
2033.35
2021.81
2012.36
2004.76
1998.9
1994.58
1991.8
1990.35
1990.68
1992.92
1998.01
2005.04
2015.79
2028.5
2046.11
2065.85
2095.75
2126.82
2187.5
2405.96
3411.67
2893.11
2401.17
2562.79
2629.64
2637.26
2623.17
2595.66
2563.9
2526.19
2481.47
2416.72
2335.54
2255.24
2189.92
2142.05
2108.36
2083.82
2064.59
2048.61
2035
2023.68
2014.45
2007.05
2001.39
1997.26
1994.65
1993.38
1993.93
1996.18
2001.14
2007.97
2018.34
2030.81
2048.08
2067.69
2096.87
2126.47
2188.49
2409.46
3373.11
2856.82
2352.04
2503.62
2513.88
2541.63
2535.74
2525.27
2509.01
2484.16
2444.53
2382.61
2307.86
2237.12
2180.7
2139
2108.72
2085.65
2066.99
2051.3
2037.93
2026.85
2017.86
2010.67
2005.2
2001.25
1998.81
1997.71
1998.47
2000.69
2005.48
2012.05
2021.98
2034.13
2050.98
2070.4
2098.89
2127.6
2190.56
2412.02
3329.62
2826.87
2311.12
2438.35
2448.59
2482.77
2479.36
2475.77
2466.63
2446.66
2407.94
2348.74
2281.79
2220.92
2173.06
2136.97
2109.75
2088.18
2070.24
2054.98
2041.93
2031.15
2022.4
2015.4
2010.09
2006.27
2003.94
2002.95
2003.81
2005.89
2010.37
2016.52
2025.86
2037.52
2053.82
2072.9
2100.74
2128.66
2192.32
2412.18
3276.93
2810.9
2281.13
2387.86
2401.76
2438.88
2436.48
2437.21
2431.29
2411.9
2372.87
2317.72
2259.95
2209.08
2168.94
2138
2113.56
2093.43
2076.33
2061.63
2048.99
2038.5
2029.95
2023.06
2017.8
2013.99
2011.65
2010.61
2011.4
2013.15
2017.13
2022.67
2031.24
2042.23
2057.82
2076.47
2103.63
2131.19
2195.14
2411.97
3219.77
2793.62
2257.8
2348.39
2369.13
2409.14
2406.46
2408.28
2401.47
2379.66
2340.81
2291.38
2243.05
2201.03
2167.35
2140.76
2118.64
2099.91
2083.68
2069.58
2057.38
2047.21
2038.87
2032.1
2026.93
2023.17
2020.85
2019.77
2020.5
2021.92
2025.37
2030.24
2037.98
2048.21
2063.05
2081.19
2107.68
2134.81
2198.74
2410.68
3157.21
2796.55
2247.52
2322.45
2348.29
2387.95
2383.57
2384.39
2374.62
2350.06
2313.68
2271.44
2231.85
2198.05
2170.59
2147.19
2127.36
2110.05
2094.84
2081.47
2069.76
2059.88
2051.63
2044.84
2039.57
2035.69
2033.29
2032.02
2032.49
2033.45
2036.25
2040.32
2047.1
2056.49
2070.46
2088.07
2113.87
2140.63
2204.51
2411.87
3096.1
2799.68
2244.67
2312.68
2339.31
2374.34
2367.01
2364.83
2351.76
2326.37
2293.61
2258.22
2226.34
2199.24
2175.81
2155.41
2137.31
2121.11
2106.64
2093.82
2082.51
2072.97
2064.99
2058.43
2053.37
2049.66
2047.4
2046.1
2046.49
2047.1
2049.38
2052.8
2058.79
2067.52
2080.96
2098.4
2124.05
2151.05
2215.13
2415.08
3032.86
2811.36
2253.1
2315.14
2340.72
2369.58
2357.93
2350.88
2334.32
2309.28
2282.06
2253.9
2229.41
2206.95
2187.23
2169.31
2152.94
2137.98
2124.47
2112.4
2101.59
2092.25
2084.2
2077.46
2072.25
2068.42
2066.11
2064.62
2064.76
2064.97
2066.69
2069.43
2074.62
2082.82
2095.84
2113.42
2139.17
2166.43
2231.78
2426.76
2994.96
2822.1
2269.97
2327.28
2347.59
2367.74
2353.92
2342.57
2324.89
2301.94
2280.31
2257.97
2237.85
2219.1
2202.01
2185.88
2170.67
2156.38
2143.09
2130.9
2119.98
2110.98
2103.69
2097.73
2093.07
2089.56
2087.44
2085.95
2086.09
2086.12
2087.54
2089.79
2094.43
2102.34
2115.33
2133.44
2159.8
2188.14
2255.79
2447.36
2981.35
2873.58
2303.34
2356.1
2367.91
2377.73
2363.06
2348.58
2331.72
2311.5
2293.87
2275.75
2259.69
2243.98
2229.36
2215.24
2201.93
2189.44
2177.84
2167.02
2156.91
2148.01
2140.14
2133.19
2127.53
2123.13
2120.49
2118.41
2118.03
2117.48
2118.36
2119.83
2123.7
2131.25
2144.12
2162.85
2190.06
2219.06
2289.38
2482.12
3025.18
2973.1
2349.44
2393.66
2394.79
2395.75
2378.75
2361.78
2346.3
2328.7
2314.17
2298.99
2285.7
2272.28
2260.08
2248.39
2237.41
2226.65
2215.82
2205.11
2194.99
2186.31
2178.88
2172.2
2166.06
2160.37
2156.49
2152.92
2151.65
2150.3
2150.86
2152.06
2155.84
2163.6
2176.86
2196.91
2225.22
2255.14
2327.67
2529.49
3115.55
3238.98
2425.57
2466.4
2453.15
2443.93
2422.66
2403.66
2390.51
2376.84
2365.96
2354.15
2343
2330.62
2318.74
2306.91
2296.38
2287.26
2279.41
2272.03
2264.06
2255.72
2246.8
2237.31
2229.41
2223.4
2220.48
2218.49
2218.43
2218.02
2219.1
2220.7
2224.63
2232.74
2247.4
2269.97
2301.94
2334.04
2407.58
2605.84
3358.61
13098.5
3254.46
2852.72
2788.35
2765.72
2733.85
2712.77
2695.89
2682.11
2665.98
2649.14
2630.61
2608.57
2585.39
2559.35
2532.32
2504.31
2478.32
2456.82
2440.56
2431.21
2429.03
2427.47
2433.31
2437.11
2442.46
2444.44
2446.91
2447.13
2447.5
2445.88
2445.68
2447.01
2455.59
2473.42
2507.12
2548.94
2615.94
3328.04
12214.7
166623
12920.6
4267.05
4031.44
3964.06
3937.52
3962.39
3982.09
4014.74
4025.35
4024.61
4012
3984.42
3947.86
3901.87
3852.1
3798.09
3745.24
3697.5
3653.63
3617.67
3588.32
3549.4
3523.55
3484.58
3449.08
3403.44
3356.98
3302.22
3244.78
3180.26
3113.02
3044.93
2988.38
2958.56
2996.21
3068.2
3245.34
11675.9
148552
166623
12920.6
4267.05
4031.44
3964.06
3937.52
3962.39
3982.09
4014.74
4025.35
4024.61
4012
3984.42
3947.86
3901.87
3852.1
3798.09
3745.24
3697.5
3653.63
3617.67
3588.32
3549.4
3523.55
3484.58
3449.08
3403.44
3356.98
3302.22
3244.78
3180.26
3113.02
3044.93
2988.38
2958.56
2996.21
3068.2
3245.34
11675.9
148552
13098.5
3254.46
2852.72
2788.35
2765.72
2733.85
2712.77
2695.89
2682.11
2665.98
2649.14
2630.61
2608.57
2585.39
2559.35
2532.32
2504.31
2478.32
2456.82
2440.56
2431.21
2429.03
2427.47
2433.31
2437.11
2442.46
2444.44
2446.91
2447.13
2447.5
2445.88
2445.68
2447.01
2455.59
2473.42
2507.12
2548.94
2615.94
3328.04
12214.7
3238.98
2425.57
2466.4
2453.15
2443.93
2422.66
2403.66
2390.51
2376.84
2365.96
2354.15
2343
2330.62
2318.74
2306.91
2296.38
2287.26
2279.41
2272.03
2264.06
2255.72
2246.8
2237.31
2229.41
2223.4
2220.48
2218.49
2218.43
2218.02
2219.1
2220.7
2224.63
2232.74
2247.4
2269.97
2301.94
2334.04
2407.58
2605.84
3358.61
2973.1
2349.44
2393.66
2394.79
2395.75
2378.75
2361.78
2346.3
2328.7
2314.17
2298.99
2285.7
2272.28
2260.08
2248.39
2237.41
2226.65
2215.82
2205.11
2194.99
2186.31
2178.88
2172.2
2166.06
2160.37
2156.49
2152.92
2151.65
2150.3
2150.86
2152.06
2155.84
2163.6
2176.86
2196.91
2225.22
2255.14
2327.67
2529.49
3115.55
2873.58
2303.34
2356.1
2367.91
2377.73
2363.06
2348.58
2331.72
2311.5
2293.87
2275.75
2259.69
2243.98
2229.36
2215.24
2201.93
2189.44
2177.84
2167.02
2156.91
2148.01
2140.14
2133.19
2127.53
2123.13
2120.49
2118.41
2118.03
2117.48
2118.36
2119.83
2123.7
2131.25
2144.12
2162.85
2190.06
2219.06
2289.38
2482.12
3025.18
2822.1
2269.97
2327.28
2347.59
2367.74
2353.92
2342.57
2324.89
2301.94
2280.31
2257.97
2237.85
2219.1
2202.01
2185.88
2170.67
2156.38
2143.09
2130.9
2119.98
2110.98
2103.69
2097.73
2093.07
2089.56
2087.44
2085.95
2086.09
2086.12
2087.54
2089.79
2094.43
2102.34
2115.33
2133.44
2159.8
2188.14
2255.79
2447.36
2981.35
2811.36
2253.1
2315.14
2340.72
2369.58
2357.93
2350.88
2334.32
2309.28
2282.06
2253.9
2229.41
2206.95
2187.23
2169.31
2152.94
2137.98
2124.47
2112.4
2101.59
2092.25
2084.2
2077.46
2072.25
2068.42
2066.11
2064.62
2064.76
2064.97
2066.69
2069.43
2074.62
2082.82
2095.84
2113.42
2139.17
2166.43
2231.78
2426.76
2994.96
2799.68
2244.67
2312.68
2339.31
2374.34
2367.01
2364.83
2351.76
2326.37
2293.61
2258.22
2226.34
2199.24
2175.81
2155.41
2137.31
2121.11
2106.64
2093.82
2082.51
2072.97
2064.99
2058.43
2053.37
2049.66
2047.4
2046.1
2046.49
2047.1
2049.38
2052.8
2058.79
2067.52
2080.96
2098.4
2124.05
2151.05
2215.13
2415.08
3032.86
2796.55
2247.52
2322.45
2348.29
2387.95
2383.57
2384.39
2374.62
2350.06
2313.68
2271.44
2231.85
2198.05
2170.59
2147.19
2127.36
2110.05
2094.84
2081.47
2069.76
2059.88
2051.63
2044.84
2039.57
2035.69
2033.29
2032.02
2032.49
2033.45
2036.25
2040.32
2047.1
2056.49
2070.46
2088.07
2113.87
2140.63
2204.51
2411.87
3096.1
2793.62
2257.8
2348.39
2369.13
2409.14
2406.46
2408.28
2401.47
2379.66
2340.81
2291.38
2243.05
2201.03
2167.35
2140.76
2118.64
2099.91
2083.68
2069.58
2057.38
2047.21
2038.87
2032.1
2026.93
2023.17
2020.85
2019.77
2020.5
2021.92
2025.37
2030.24
2037.98
2048.21
2063.05
2081.19
2107.68
2134.81
2198.74
2410.68
3157.21
2810.9
2281.13
2387.86
2401.76
2438.88
2436.48
2437.21
2431.29
2411.9
2372.87
2317.72
2259.95
2209.08
2168.94
2138
2113.56
2093.43
2076.33
2061.63
2048.99
2038.5
2029.95
2023.06
2017.8
2013.99
2011.65
2010.61
2011.4
2013.15
2017.13
2022.67
2031.24
2042.23
2057.82
2076.47
2103.63
2131.19
2195.14
2411.97
3219.77
2826.87
2311.12
2438.35
2448.59
2482.77
2479.36
2475.77
2466.63
2446.66
2407.94
2348.74
2281.79
2220.92
2173.06
2136.97
2109.75
2088.18
2070.24
2054.98
2041.93
2031.15
2022.4
2015.4
2010.09
2006.27
2003.94
2002.95
2003.81
2005.89
2010.37
2016.52
2025.86
2037.52
2053.82
2072.9
2100.74
2128.66
2192.32
2412.18
3276.93
2856.82
2352.04
2503.62
2513.88
2541.63
2535.74
2525.27
2509.01
2484.16
2444.53
2382.61
2307.86
2237.12
2180.7
2139
2108.72
2085.65
2066.99
2051.3
2037.93
2026.85
2017.86
2010.67
2005.2
2001.25
1998.81
1997.71
1998.47
2000.69
2005.48
2012.05
2021.98
2034.13
2050.98
2070.4
2098.89
2127.6
2190.56
2412.02
3329.62
2893.11
2401.17
2562.79
2629.64
2637.26
2623.17
2595.66
2563.9
2526.19
2481.47
2416.72
2335.54
2255.24
2189.92
2142.05
2108.36
2083.82
2064.59
2048.61
2035
2023.68
2014.45
2007.05
2001.39
1997.26
1994.65
1993.38
1993.93
1996.18
2001.14
2007.97
2018.34
2030.81
2048.08
2067.69
2096.87
2126.47
2188.49
2409.46
3373.11
2941.44
2451.04
2599.59
2746.35
2768.2
2747.72
2694.97
2635.57
2576.52
2521.61
2451.97
2365.01
2275.71
2201.49
2146.81
2109.29
2083.13
2063.34
2047.14
2033.35
2021.81
2012.36
2004.76
1998.9
1994.58
1991.8
1990.35
1990.68
1992.92
1998.01
2005.04
2015.79
2028.5
2046.11
2065.85
2095.75
2126.82
2187.5
2405.96
3411.67
2968.55
2510.14
2641.25
2848.73
2921.47
2904.58
2830.17
2729.72
2636.73
2562.74
2484.53
2392.53
2295.79
2213.43
2151.89
2110.36
2082.53
2062.28
2045.97
2032.07
2020.37
2010.73
2002.93
1996.88
1992.38
1989.43
1987.78
1987.87
1990.04
1995.17
2002.3
2013.32
2026.12
2043.94
2063.65
2094.24
2126.82
2186.58
2399.27
3440.7
2924.35
2578.37
2712.12
2956.63
3090.95
3092.6
3000.49
2849.9
2710.69
2607.21
2516.34
2418.4
2315.43
2225.73
2157.36
2111.58
2082.03
2061.37
2045.03
2031.09
2019.26
2009.46
2001.5
1995.29
1990.64
1987.54
1985.72
1985.65
1987.75
1992.93
2000.14
2011.45
2024.29
2042.36
2061.96
2093.59
2127.89
2187.85
2393.51
3472.69
2784.67
2571.35
2790.77
3152.2
3295.26
3321.73
3201.48
2992.03
2792.14
2650.49
2543.94
2439.74
2332.69
2237.06
2162.54
2112.61
2081.43
2060.46
2044.16
2030.22
2018.31
2008.38
2000.29
1993.96
1989.2
1985.96
1984.02
1983.83
1985.84
1991.07
1998.34
2009.88
2022.7
2041
2060.36
2093.19
2128.72
2190.53
2386.02
3498.78
2803.36
2580.1
2943.47
3365.56
3613.93
3605.51
3417.68
3140.18
2875.89
2690.9
2566.32
2456.12
2346.52
2246.75
2167.02
2113.34
2080.75
2059.58
2043.37
2029.47
2017.5
2007.48
1999.29
1992.88
1988.04
1984.71
1982.68
1982.42
1984.37
1989.64
1996.96
2008.71
2021.49
2040.07
2059.02
2093.22
2129.38
2194.83
2382.87
3541.39
2743.43
2479.87
2938.67
3724.22
4030.11
3956.18
3639.06
3271.54
2946.29
2722.06
2580.76
2466.27
2355.96
2253.93
2170.2
2113.68
2080.12
2058.89
2042.78
2028.92
2016.93
2006.84
1998.6
1992.14
1987.24
1983.86
1981.79
1981.49
1983.41
1988.7
1996.07
2007.97
2020.74
2039.57
2058.07
2093.44
2129.88
2198.56
2383.54
3680.25
)
;

boundaryField
{
    inlet
    {
        type            calculated;
        value           uniform 14000.1;
    }
    outlet
    {
        type            calculated;
        value           nonuniform List<scalar> 
165
(
2584.25
2714.95
2939.05
3019.8
3052.75
3085.19
3131.39
3183.07
3224.68
3253.01
3272.19
3277.9
3278.03
3268.55
3248.81
3215.25
3170.8
3123.71
3958.31
4117.11
4117.11
3891.6
3216.95
3270.7
3316.93
3356.03
3386.51
3413.37
3432.26
3450.15
3466.79
3482.8
3498.14
3513.34
3527.81
3540.91
3551.99
3560.69
3566.44
3569.76
3574.34
3579.69
3581.04
3577.29
3570.56
3560.37
3547.93
3535.43
3520.65
3504.91
3486.84
3467
3443.77
3412.56
3372.06
3322.66
3267.48
3214.65
3938.86
4133.58
3613.44
3630.68
3607.9
3589.67
3577.7
3567.23
3555.48
3543.48
3529.12
3514.14
3496.71
3476.73
3454.56
3422.49
3383.08
3336.95
3282.38
3217.6
3941.2
4133.58
3640.09
3628.83
3624.55
3628.83
3640.09
4133.58
3941.2
3217.6
3282.38
3336.95
3383.08
3422.49
3454.56
3476.73
3496.71
3514.14
3529.12
3543.48
3555.48
3567.23
3577.7
3589.67
3607.9
3630.68
3613.44
4117.11
3891.6
3216.95
3270.7
3316.93
3356.03
3386.51
3413.37
3432.26
3450.15
3466.79
3482.8
3498.14
3513.34
3527.81
3540.91
3551.99
3560.69
3566.44
3569.76
3574.34
3579.69
3581.04
3577.29
3570.56
3560.37
3547.93
3535.43
3520.65
3504.91
3486.84
3467
3443.77
3412.56
3372.06
3322.66
3267.48
3214.65
3938.86
4133.58
4117.11
3958.31
3123.71
3170.8
3215.25
3248.81
3268.55
3278.03
3277.9
3272.19
3253.01
3224.68
3183.07
3131.39
3085.19
3052.75
3019.8
2939.05
2714.95
2584.25
)
;
    }
    obstacle
    {
        type            calculated;
        value           nonuniform List<scalar> 
40
(
41243
16000.5
13880.8
13453
13148.5
13002.1
12933.3
12892.7
12865.7
12823.5
41243
16000.5
13880.8
13453
13148.5
13002.1
12933.3
12892.7
12865.7
12823.5
12939.4
12750.7
12620.5
12316.7
12308.1
12939.4
12750.7
12620.5
12316.7
12308.1
6850.59
5069.2
5097.9
5001.39
4743.93
6850.59
5069.2
5097.9
5001.39
4743.93
)
;
    }
    empty
    {
        type            empty;
    }
}


// ************************************************************************* //
