/*--------------------------------*- C++ -*----------------------------------*\
| =========                 |                                                 |
| \\      /  F ield         | OpenFOAM: The Open Source CFD Toolbox           |
|  \\    /   O peration     | Version:  v1912                                 |
|   \\  /    A nd           | Website:  www.openfoam.com                      |
|    \\/     M anipulation  |                                                 |
\*---------------------------------------------------------------------------*/
FoamFile
{
    version     2.0;
    format      ascii;
    class       volVectorField;
    location    "1.18";
    object      grad(p);
}
// * * * * * * * * * * * * * * * * * * * * * * * * * * * * * * * * * * * * * //

dimensions      [1 -2 -2 0 0 0 0];


internalField   nonuniform List<vector> 
1900
(
(-0.0326774 3.03582e-05 0)
(0.0134878 1.28618e-05 0)
(2.18793 7.52873e-06 0)
(64.2071 -0.00668861 0)
(490.369 -0.455465 0)
(1434.74 -4.65091 0)
(2112.18 -11.9815 0)
(1660.05 -15.4373 0)
(1152.12 97.217 0)
(214.718 -61.5515 0)
(-0.0326341 5.18438e-05 0)
(0.0134649 1.23742e-05 0)
(2.18123 5.55252e-05 0)
(63.7516 -0.000386615 0)
(485.725 -0.395865 0)
(1423.21 -4.73619 0)
(2101.39 -12.3518 0)
(1769.25 -20.3423 0)
(1106 104.636 0)
(436.825 -151.429 0)
(-0.0326131 3.96128e-09 0)
(0.0134914 -1.65201e-09 0)
(2.18754 1.24345e-10 0)
(63.8112 -7.63833e-10 0)
(485.633 1.66978e-09 0)
(1422.78 -2.38032e-09 0)
(2096.57 2.66454e-10 0)
(1777.04 3.55271e-10 0)
(1021.03 2.32703e-09 0)
(322.237 1.38556e-09 0)
(-0.0326341 -5.18362e-05 0)
(0.0134649 -1.23774e-05 0)
(2.18123 -5.55238e-05 0)
(63.7516 0.000386611 0)
(485.725 0.395865 0)
(1423.21 4.73619 0)
(2101.39 12.3518 0)
(1769.25 20.3423 0)
(1106 -104.636 0)
(436.825 151.429 0)
(-0.0326774 -3.03546e-05 0)
(0.0134877 -1.28633e-05 0)
(2.18793 -7.52744e-06 0)
(64.2071 0.00668861 0)
(490.369 0.455465 0)
(1434.74 4.65091 0)
(2112.18 11.9815 0)
(1660.05 15.4373 0)
(1152.12 -97.217 0)
(214.718 61.5515 0)
(-293.224 260.692 1.04755e-11)
(4.33186 244.401 -1.2764e-11)
(-910.013 125.9 -1.61235e-11)
(-5352.24 738.347 0)
(-646.451 6484.17 -6.47745e-11)
(38.8207 148.127 1.05226e-11)
(-241.758 84.9668 1.2764e-11)
(-701.809 -90.3616 1.61235e-11)
(-2624.72 224.896 0)
(-104.155 5693.1 0)
(112.197 2.07563e-09 0)
(-167.453 1.88933e-09 0)
(-784.44 -6.66134e-10 0)
(-2433.8 1.81673e-09 0)
(2801.8 -5.81545e-10 0)
(38.8207 -148.127 1.05226e-11)
(-241.758 -84.9668 1.2764e-11)
(-701.809 90.3616 1.61235e-11)
(-2624.72 -224.896 0)
(-104.155 -5693.1 0)
(-293.224 -260.692 -3.15206e-11)
(4.33186 -244.401 -1.2764e-11)
(-910.013 -125.9 -1.61235e-11)
(-5352.24 -738.347 -4.35679e-11)
(-646.451 -6484.17 6.47745e-11)
(8432.44 -3274.24 3.15883e-11)
(751.987 -463.507 -2.66279e-11)
(1502.73 -67.4869 0)
(2309.92 944.961 2.0892e-11)
(-6391.28 -3939.92 -9.58615e-12)
(6138.77 -3369.24 -1.57448e-11)
(1503.81 -361.437 1.3307e-11)
(2002.24 -214.157 0)
(563.672 436.04 -1.30786e-11)
(-6611.11 -7492.01 2.31046e-12)
(6648 -3.5886e-10 0)
(1504.61 -3.79563e-10 0)
(1778.85 1.90794e-09 0)
(-1007.08 -5.22458e-10 5.23669e-12)
(-8553.33 -1.81791e-09 -4.62093e-12)
(6138.77 3369.24 -1.57448e-11)
(1503.81 361.437 1.3307e-11)
(2002.24 214.157 0)
(563.672 -436.04 -1.30786e-11)
(-6611.11 7492.01 2.31046e-12)
(8432.44 3274.24 1.57448e-11)
(751.987 463.507 1.39593e-14)
(1502.73 67.4869 0)
(2309.92 -944.961 2.84591e-14)
(-6391.28 3939.92 9.58615e-12)
(-23559.7 -7667.26 0)
(-14562.8 7800.79 0)
(1641.2 3850.89 0)
(957.2 1247.04 0)
(2168.22 227.426 0)
(3449.37 185.323 0)
(4372.84 60.8685 0)
(4799.23 57.8459 0)
(4573.95 57.6301 0)
(3462.21 40.577 0)
(1774.88 16.7275 0)
(498.526 2.75887 0)
(56.6167 0.11609 0)
(1.74334 0.000821823 0)
(0.00969956 6.91261e-07 0)
(6.85313e-06 5.49056e-10 0)
(3.22974e-11 0 0)
(1.61487e-11 0 0)
(0 -9.68922e-11 0)
(-1.61487e-11 3.22974e-11 0)
(0 -3.22974e-11 0)
(0 6.45948e-11 0)
(1.61487e-11 0 0)
(0 -9.68922e-11 0)
(-8.95428e-06 6.45948e-11 0)
(-0.0122128 5.16758e-10 0)
(-2.11825 6.84705e-09 0)
(-66.6314 -9.14016e-09 0)
(-571.745 4.81231e-09 0)
(-1998.06 1.77636e-09 0)
(-3856 -2.64839e-09 0)
(-5101.98 -7.4284e-10 0)
(-5498.91 9.68922e-10 0)
(-5382 1.42109e-09 0)
(-4988.57 -2.4869e-09 0)
(-4409.31 -8.07435e-10 0)
(-3729.16 -1.8248e-09 0)
(-3771.34 -6.45948e-11 0)
(35376 -2.18007e-09 0)
(-61454.7 -4.58623e-09 0)
(-20937.5 -4537.85 0)
(-14283.7 10717.8 0)
(571.989 2907.26 0)
(325.53 691.517 0)
(2034.4 -6.19469 0)
(3457.91 79.7078 0)
(4360.11 22.2252 0)
(4800.78 24.4659 0)
(4572.19 25.9679 0)
(3458.04 17.4197 0)
(1771.49 7.19958 0)
(497.067 1.24846 0)
(56.3627 0.0553264 0)
(1.73211 0.000405673 0)
(0.0096177 3.4358e-07 0)
(6.7846e-06 3.22974e-11 0)
(0 0 0)
(0 0 0)
(2.4223e-11 -3.22974e-11 0)
(0 -3.22974e-11 0)
(0 0 0)
(-1.61487e-11 -3.22974e-11 0)
(-8.07435e-12 0 0)
(8.07435e-12 -3.22974e-11 0)
(-8.9543e-06 -6.45948e-11 0)
(-0.0122128 -1.32419e-09 0)
(-2.11825 7.78367e-09 0)
(-66.6314 -1.07227e-08 0)
(-571.745 7.04083e-09 0)
(-1998.06 4.58623e-09 0)
(-3856 -6.13651e-10 0)
(-5101.98 -1.61487e-10 0)
(-5498.91 1.38879e-09 0)
(-5382 0 0)
(-4988.57 -1.87325e-09 0)
(-4409.31 -3.55271e-10 0)
(-3729.16 1.45338e-10 0)
(-3771.34 4.36015e-10 0)
(35376 4.36015e-10 0)
(-61454.7 2.58379e-09 0)
(-18208.2 3.84339e-09 0)
(-12397 4.00488e-09 0)
(-1275.55 2.19622e-09 0)
(109.65 1.06581e-09 0)
(1990.23 6.13651e-10 0)
(3457.64 -1.93784e-10 0)
(4356.77 1.2273e-09 0)
(4800.31 -3.87569e-10 0)
(4571.9 4.19866e-10 0)
(3456.75 -1.16271e-09 0)
(1770.18 -3.7788e-09 0)
(496.448 4.48934e-09 0)
(56.2537 -1.67946e-09 0)
(1.72724 5.16758e-10 0)
(0.00958154 -9.68922e-10 0)
(6.7532e-06 0 0)
(0 0 0)
(0 0 0)
(0 0 0)
(0 -3.22974e-11 0)
(0 0 0)
(0 -3.22974e-11 0)
(0 -6.45948e-11 0)
(0 0 0)
(-8.95466e-06 0 0)
(-0.0122128 -2.06703e-09 0)
(-2.11825 6.81475e-09 0)
(-66.6314 -1.32742e-08 0)
(-571.745 8.20354e-09 0)
(-1998.06 6.81475e-09 0)
(-3856 -1.61487e-09 0)
(-5101.98 -1.90555e-09 0)
(-5498.91 -4.52164e-10 0)
(-5382 5.49056e-10 0)
(-4988.57 -3.22974e-11 0)
(-4409.31 -2.58379e-10 0)
(-3729.16 5.0061e-10 0)
(-3771.34 3.87569e-10 0)
(35376 6.45948e-11 0)
(-61454.7 6.78245e-09 0)
(-20937.5 4537.85 0)
(-14283.7 -10717.8 0)
(571.989 -2907.26 0)
(325.53 -691.517 0)
(2034.4 6.19469 0)
(3457.91 -79.7078 0)
(4360.11 -22.2252 0)
(4800.78 -24.4659 0)
(4572.19 -25.9679 0)
(3458.04 -17.4197 0)
(1771.49 -7.19958 0)
(497.067 -1.24846 0)
(56.3627 -0.0553264 0)
(1.73211 -0.000405672 0)
(0.0096177 -3.52365e-07 0)
(6.78487e-06 -1.48568e-09 0)
(0 0 0)
(0 0 0)
(0 0 0)
(0 0 0)
(0 0 0)
(-2.4223e-11 0 0)
(0 0 0)
(2.4223e-11 0 0)
(-8.95491e-06 0 0)
(-0.0122128 -3.7465e-09 0)
(-2.11825 7.68678e-09 0)
(-66.6314 -1.14656e-08 0)
(-571.745 8.62341e-09 0)
(-1998.06 4.10177e-09 0)
(-3856 -3.26204e-09 0)
(-5101.98 6.45948e-11 0)
(-5498.91 -3.22974e-11 0)
(-5382 2.22852e-09 0)
(-4988.57 0 0)
(-4409.31 -6.45948e-10 0)
(-3729.16 -1.93784e-09 0)
(-3771.34 9.04327e-10 0)
(35376 6.13651e-10 0)
(-61454.7 -7.10543e-10 0)
(-23559.7 7667.26 0)
(-14562.8 -7800.79 0)
(1641.2 -3850.89 0)
(957.2 -1247.04 0)
(2168.22 -227.426 0)
(3449.37 -185.323 0)
(4372.84 -60.8685 0)
(4799.23 -57.8459 0)
(4573.95 -57.6301 0)
(3462.21 -40.577 0)
(1774.88 -16.7275 0)
(498.526 -2.75887 0)
(56.6167 -0.11609 0)
(1.74334 -0.000821823 0)
(0.00969956 -6.94782e-07 0)
(6.8557e-06 -7.75138e-10 0)
(4.36015e-10 0 0)
(0 0 0)
(0 0 0)
(1.61487e-11 3.22974e-11 0)
(-1.61487e-11 0 0)
(0 0 0)
(0 6.45948e-11 0)
(0 0 0)
(-8.95575e-06 0 0)
(-0.0122128 -3.00366e-09 0)
(-2.11825 5.23218e-09 0)
(-66.6314 -5.13529e-09 0)
(-571.745 4.58623e-09 0)
(-1998.06 3.6819e-09 0)
(-3856 -3.32663e-09 0)
(-5101.98 1.35649e-09 0)
(-5498.91 2.13163e-09 0)
(-5382 8.7203e-10 0)
(-4988.57 6.45948e-11 0)
(-4409.31 3.87569e-10 0)
(-3729.16 1.16271e-09 0)
(-3771.34 8.88178e-10 0)
(35376 2.64839e-09 0)
(-61454.7 7.10543e-10 0)
(55561.3 13526.7 0)
(-21186 -5846.38 0)
(3446.71 -3151.01 0)
(1868.06 -1609.96 0)
(2545.66 -732.235 0)
(3572.27 -378.662 0)
(4425.35 -188.682 0)
(4804.6 -133.172 0)
(4581 -106.602 0)
(3478.88 -69.4025 0)
(1791.3 -26.988 0)
(505.799 -4.21787 0)
(57.7991 -0.17094 0)
(1.79195 -0.00118853 0)
(0.0100386 -9.97383e-07 0)
(7.13877e-06 3.12005e-10 0)
(0 0 0)
(0 0 0)
(0 0 0)
(0 -9.75016e-12 0)
(0 0 0)
(0 0 0)
(0 0 0)
(-2.92505e-11 0 0)
(-8.95577e-06 -2.92505e-11 0)
(-0.0122128 9.75016e-11 0)
(-2.11825 6.82511e-10 0)
(-66.6314 5.75259e-10 0)
(-571.745 6.72761e-10 0)
(-1998.06 -2.14503e-09 0)
(-3856 1.65753e-10 0)
(-5101.98 -1.73553e-09 0)
(-5498.91 1.31627e-09 0)
(-5382 8.97015e-10 0)
(-4988.57 -1.48202e-09 0)
(-4409.31 8.09263e-10 0)
(-3729.16 1.21389e-09 0)
(-3771.34 -7.80013e-11 0)
(35376 -8.23888e-10 0)
(-61454.7 4.48507e-10 0)
(57892.9 10394.4 0)
(-27082.5 -2750.36 0)
(4755.39 -2237.6 0)
(2799.58 -1542.24 0)
(3152.34 -964.298 0)
(3907.26 -548.654 0)
(4581.24 -350.12 0)
(4875.44 -236.859 0)
(4631.62 -163.295 0)
(3529.99 -92.665 0)
(1828.9 -32.6866 0)
(520.468 -4.84025 0)
(60.046 -0.191959 0)
(1.882 -0.00133472 0)
(0.0106631 -1.14076e-06 0)
(7.66503e-06 -4.68008e-10 0)
(3.70506e-10 0 0)
(0 0 0)
(0 0 0)
(0 0 0)
(0 0 0)
(0 0 0)
(0 0 0)
(0 0 0)
(-8.95565e-06 0 0)
(-0.0122128 1.08227e-09 0)
(-2.11825 -3.74406e-09 0)
(-66.6314 7.40037e-09 0)
(-571.745 -3.51006e-10 0)
(-1998.06 -6.3961e-09 0)
(-3856 7.70262e-09 0)
(-5101.98 -3.40281e-09 0)
(-5498.91 3.15905e-09 0)
(-5382 1.43327e-09 0)
(-4988.57 1.17002e-10 0)
(-4409.31 1.26752e-10 0)
(-3729.16 -1.70628e-10 0)
(-3771.34 2.29129e-10 0)
(35376 8.77514e-11 0)
(-61454.7 -2.32054e-09 0)
(62927.4 8277.1 0)
(-33358.7 -779.147 0)
(4610.89 -1370.15 0)
(3095.06 -1233.19 0)
(3503.12 -934.8 0)
(4164.11 -614.528 0)
(4725.81 -439.3 0)
(4984.63 -300.912 0)
(4719.95 -194.377 0)
(3604.74 -101.346 0)
(1875.93 -33.1683 0)
(537.112 -4.66962 0)
(62.462 -0.180571 0)
(1.97692 -0.0012485 0)
(0.0113248 -1.07363e-06 0)
(8.23806e-06 -1.36502e-10 0)
(4.48507e-10 0 0)
(0 0 0)
(0 0 0)
(0 0 0)
(0 0 0)
(0 0 0)
(0 0 0)
(-2.92505e-11 0 0)
(-8.95473e-06 -4.87508e-11 0)
(-0.0122128 -2.03778e-09 0)
(-2.11825 -5.64534e-09 0)
(-66.6314 4.64108e-09 0)
(-571.745 3.10055e-09 0)
(-1998.06 -1.12517e-08 0)
(-3856 1.10079e-08 0)
(-5101.98 -3.44181e-09 0)
(-5498.91 1.81353e-09 0)
(-5382 4.09507e-10 0)
(-4988.57 8.77514e-11 0)
(-4409.31 -7.80013e-11 0)
(-3729.16 -4.87508e-10 0)
(-3771.34 -1.95003e-10 0)
(35376 1.04814e-09 0)
(-61454.7 -4.38757e-09 0)
(65118.2 2571.37 0)
(-36378.9 -454.303 0)
(4317.86 -1109.25 0)
(3219.1 -1090.52 0)
(3748.51 -869.102 0)
(4384.74 -627.864 0)
(4883.45 -451.876 0)
(5111.45 -305.6 0)
(4823.93 -186.603 0)
(3685.34 -90.1532 0)
(1922.06 -27.2343 0)
(552.256 -3.57227 0)
(64.5447 -0.130422 0)
(2.056 -0.000874539 0)
(0.0118662 -7.55384e-07 0)
(8.69961e-06 -2.16746e-08 0)
(5.07008e-10 -2.12261e-08 0)
(0 -2.21524e-08 0)
(0 -2.19379e-08 0)
(0 -2.13236e-08 0)
(0 -2.26594e-08 0)
(0 -2.18696e-08 0)
(0 -2.18209e-08 0)
(-3.90006e-11 -2.20549e-08 0)
(-8.95762e-06 -2.24156e-08 0)
(-0.0122128 -2.8451e-08 0)
(-2.11825 -2.16649e-08 0)
(-66.6314 -2.94845e-08 0)
(-571.745 -1.68483e-08 0)
(-1998.06 -4.15162e-08 0)
(-3856 -1.37185e-08 0)
(-5101.98 -2.34491e-08 0)
(-5498.91 -1.25192e-08 0)
(-5382 -7.41012e-09 0)
(-4988.57 -3.1688e-09 0)
(-4409.31 -1.76478e-09 0)
(-3729.16 -1.48202e-09 0)
(-3771.34 -6.82511e-11 0)
(35376 -1.90128e-10 0)
(-61454.7 1.07252e-09 0)
(64967.5 -363.105 0)
(-36905.4 -369.052 0)
(3997.81 -1016.66 0)
(3326.48 -954.072 0)
(3948.95 -759.641 0)
(4566.16 -568.401 0)
(5036.35 -402.471 0)
(5240.26 -262.091 0)
(4927.56 -149.122 0)
(3758.31 -65.5126 0)
(1959.36 -17.6586 0)
(563.231 -2.04623 0)
(65.9036 -0.0662712 0)
(2.1026 -0.000534316 0)
(0.0121675 -0.000139995 0)
(8.94552e-06 -0.000139675 0)
(-2.92505e-11 -0.000139675 0)
(-6.82511e-10 -0.000139676 0)
(7.89763e-10 -0.000139677 0)
(-6.92261e-10 -0.000139674 0)
(-5.26509e-10 -0.000139676 0)
(7.99513e-10 -0.000139673 0)
(-1.65753e-10 -0.000139672 0)
(-5.75259e-10 -0.000139675 0)
(-8.96093e-06 -0.000139674 0)
(-0.0122128 -0.00013968 0)
(-2.11825 -0.000139681 0)
(-66.6314 -0.000139659 0)
(-571.745 -0.000139284 0)
(-1998.06 -0.000135937 0)
(-3856 -0.000124774 0)
(-5101.98 -0.000104522 0)
(-5498.91 -7.90338e-05 0)
(-5382 -5.39577e-05 0)
(-4988.57 -3.35709e-05 0)
(-4409.31 -1.94956e-05 0)
(-3729.16 -1.03418e-05 0)
(-3771.34 -4.96826e-06 0)
(35376 -1.00916e-06 0)
(-61454.7 -1.90128e-07 0)
(64412.6 -1279.97 0)
(-37008.7 -449.668 0)
(3754.11 -892.383 0)
(3466.77 -776.18 0)
(4120.16 -614.21 0)
(4728.92 -450.788 0)
(5178.62 -305.256 0)
(5355.59 -186.817 0)
(5013.36 -97.5477 0)
(3812.02 -37.9029 0)
(1983.22 -8.63846 0)
(569.209 -0.855625 0)
(66.516 -0.107969 0)
(2.11973 -0.0897564 0)
(0.0122465 -0.0896895 0)
(9.00779e-06 -0.0896894 0)
(-7.80013e-11 -0.0896894 0)
(-1.20902e-09 -0.0896894 0)
(1.60878e-09 -0.0896894 0)
(5.36259e-10 -0.0896894 0)
(9.94516e-10 -0.0896894 0)
(3.71481e-09 -0.0896894 0)
(-1.72578e-09 -0.0896894 0)
(-1.66728e-09 -0.0896894 0)
(-8.96201e-06 -0.0896894 0)
(-0.0122128 -0.0896894 0)
(-2.11825 -0.0896894 0)
(-66.6314 -0.089682 0)
(-571.745 -0.0894507 0)
(-1998.06 -0.0875228 0)
(-3856 -0.0812823 0)
(-5101.98 -0.070133 0)
(-5498.91 -0.0559612 0)
(-5382 -0.0413913 0)
(-4988.57 -0.0285922 0)
(-4409.31 -0.0187667 0)
(-3729.16 -0.0114871 0)
(-3771.34 -0.0066258 0)
(35376 -0.00179009 0)
(-61454.7 -0.000852438 0)
(63300.8 -1820.27 0)
(-36532 -508.879 0)
(3683.17 -652.28 0)
(3594.54 -553.284 0)
(4262.51 -428.855 0)
(4863.88 -298.634 0)
(5290.72 -189.101 0)
(5440.41 -106.964 0)
(5071.06 -51.9198 0)
(3843.99 -22.306 0)
(1995.06 -10.6204 0)
(571.451 -8.35199 0)
(66.6416 -8.24592 0)
(2.12022 -8.24718 0)
(0.012232 -8.24721 0)
(8.9888e-06 -8.24722 0)
(1.05984e-08 -8.24722 0)
(1.81353e-09 -8.24722 0)
(9.16515e-10 -8.24722 0)
(-2.92505e-10 -8.24722 0)
(-1.07252e-09 -8.24722 0)
(-2.44729e-09 -8.24722 0)
(2.59354e-09 -8.24722 0)
(3.90006e-11 -8.24722 0)
(-8.95486e-06 -8.24722 0)
(-0.0122128 -8.24722 0)
(-2.11824 -8.24721 0)
(-66.6311 -8.24655 0)
(-571.743 -8.22648 0)
(-1998.05 -8.06539 0)
(-3855.99 -7.56297 0)
(-5101.96 -6.68964 0)
(-5498.88 -5.5847 0)
(-5381.97 -4.41885 0)
(-4988.55 -3.3335 0)
(-4409.3 -2.42588 0)
(-3729.15 -1.67892 0)
(-3771.33 -1.13173 0)
(35376 -0.404797 0)
(-61454.7 -0.390405 0)
(62168.2 -1473.91 0)
(-35883.2 -370.916 0)
(3711.32 -359.492 0)
(3682.07 -308.407 0)
(4365.54 -246.164 0)
(4959.96 -195.913 0)
(5363.32 -162.916 0)
(5487.78 -146.723 0)
(5094.94 -144.032 0)
(3851.82 -149.403 0)
(1996.66 -155.215 0)
(571.497 -157.668 0)
(66.617 -158.031 0)
(2.11848 -158.046 0)
(0.0122174 -158.046 0)
(8.95088e-06 -158.046 0)
(-4.86533e-09 -158.046 0)
(-1.13297e-08 -158.046 0)
(-9.57465e-09 -158.046 0)
(-3.91956e-09 -158.046 0)
(3.74406e-09 -158.046 0)
(1.17489e-08 -158.046 0)
(8.33638e-09 -158.046 0)
(-5.67459e-09 -158.046 0)
(-8.9718e-06 -158.046 0)
(-0.012209 -158.046 0)
(-2.11761 -158.046 0)
(-66.6114 -158.033 0)
(-571.57 -157.661 0)
(-1997.42 -154.793 0)
(-3854.68 -146.215 0)
(-5100.08 -131.837 0)
(-5496.72 -113.999 0)
(-5379.83 -95.0628 0)
(-4986.65 -76.8074 0)
(-4407.72 -60.5999 0)
(-3727.92 -46.2844 0)
(-3770.11 -35.2604 0)
(35376.7 -16.4744 0)
(-61453.9 -27.2601 0)
(61523 -1016.02 0)
(-35458.1 -301.318 0)
(3743.41 -386.294 0)
(3703.74 -429.245 0)
(4370.92 -483.064 0)
(4944.1 -554.172 0)
(5338.13 -638.294 0)
(5458.61 -728.577 0)
(5068.47 -816.948 0)
(3833.21 -890.58 0)
(1987.1 -937.206 0)
(568.737 -953.67 0)
(66.2772 -955.916 0)
(2.10637 -955.996 0)
(0.0121383 -955.997 0)
(8.9061e-06 -955.997 0)
(9.1749e-09 -955.997 0)
(1.06374e-08 -955.997 0)
(1.2802e-08 -955.997 0)
(8.22913e-09 -955.997 0)
(-4.04632e-09 -955.997 0)
(-1.26752e-08 -955.997 0)
(-9.78916e-09 -955.997 0)
(-1.66728e-09 -955.997 0)
(-8.87592e-06 -955.997 0)
(-0.0121365 -955.997 0)
(-2.10589 -955.996 0)
(-66.2604 -955.917 0)
(-568.621 -953.674 0)
(-1987.02 -937.072 0)
(-3833.87 -889.466 0)
(-5070.91 -812.797 0)
(-5463.45 -720.423 0)
(-5346.13 -623.374 0)
(-4955.34 -528.612 0)
(-4379.88 -441.708 0)
(-3704.73 -362.563 0)
(-3742.6 -300.873 0)
(35383.7 -177.695 0)
(-61412.5 -429.134 0)
(60898.8 -2380.1 0)
(-35276.4 -769.959 0)
(3588.05 -1071.14 0)
(3588.82 -1220.72 0)
(4245.16 -1407.59 0)
(4810.37 -1610.19 0)
(5195.26 -1831.14 0)
(5315.63 -2060.3 0)
(4938.82 -2283.78 0)
(3735.93 -2476.42 0)
(1935.87 -2601.36 0)
(553.468 -2646.92 0)
(64.3755 -2653.33 0)
(2.04018 -2653.57 0)
(0.011714 -2653.57 0)
(8.54914e-06 -2653.57 0)
(-3.2663e-09 -2653.57 0)
(-1.00622e-08 -2653.57 0)
(-9.60391e-09 -2653.57 0)
(-4.31932e-09 -2653.57 0)
(4.94333e-09 -2653.57 0)
(1.05009e-08 -2653.57 0)
(9.4869e-09 -2653.57 0)
(-1.03352e-09 -2653.57 0)
(-8.56471e-06 -2653.57 0)
(-0.0117154 -2653.57 0)
(-2.04026 -2653.57 0)
(-64.3732 -2653.33 0)
(-553.411 -2646.94 0)
(-1935.55 -2601.47 0)
(-3734.92 -2476.39 0)
(-4937.18 -2282.77 0)
(-5314.19 -2056.88 0)
(-5194.99 -1823.93 0)
(-4811.59 -1596.95 0)
(-4247.71 -1386.51 0)
(-3592.2 -1195.57 0)
(-3591.96 -1047.5 0)
(35253.1 -746.275 0)
(-60869.1 -2282.61 0)
(58487.5 -5856.45 0)
(-34196.7 -1661.46 0)
(3309.04 -2018.54 0)
(3379.53 -2226.27 0)
(3995.6 -2495.1 0)
(4535.96 -2800.85 0)
(4904.39 -3132.41 0)
(5022.43 -3477.54 0)
(4667.48 -3819.53 0)
(3527.17 -4121.91 0)
(1822.79 -4324.72 0)
(518.657 -4401.51 0)
(59.8731 -4412.72 0)
(1.87736 -4413.15 0)
(0.0106345 -4413.15 0)
(7.64027e-06 -4413.15 0)
(6.36685e-09 -4413.15 0)
(4.28032e-09 -4413.15 0)
(3.43206e-09 -4413.15 0)
(2.04753e-09 -4413.15 0)
(-9.26265e-10 -4413.15 0)
(-3.79281e-09 -4413.15 0)
(-4.51432e-09 -4413.15 0)
(-4.82633e-09 -4413.15 0)
(-7.64052e-06 -4413.15 0)
(-0.0106352 -4413.15 0)
(-1.87744 -4413.15 0)
(-59.8738 -4412.72 0)
(-518.646 -4401.51 0)
(-1822.67 -4324.78 0)
(-3526.76 -4122.23 0)
(-4666.66 -3820.55 0)
(-5021.29 -3479.33 0)
(-4902.93 -3134.49 0)
(-4533.82 -2802.22 0)
(-3993.1 -2494.97 0)
(-3378.05 -2224.08 0)
(-3309.64 -2014.42 0)
(34193.5 -1655.58 0)
(-58493.8 -5828.53 0)
(53654.2 -9099.97 0)
(-31578 -2396.87 0)
(3043.77 -2650.18 0)
(3129.59 -2874.87 0)
(3691.48 -3165.69 0)
(4196.24 -3503.8 0)
(4543.17 -3874.85 0)
(4653.49 -4264.38 0)
(4317.88 -4656.26 0)
(3249.12 -5011.34 0)
(1666.44 -5257.89 0)
(468.665 -5354.78 0)
(53.162 -5369.37 0)
(1.62708 -5369.93 0)
(0.00894192 -5369.93 0)
(6.20318e-06 -5369.93 0)
(1.04327e-09 -5369.93 0)
(-4.30957e-09 -5369.93 0)
(-4.10482e-09 -5369.93 0)
(-3.04205e-09 -5369.93 0)
(-5.16758e-10 -5369.93 0)
(2.33029e-09 -5369.93 0)
(3.93906e-09 -5369.93 0)
(2.43754e-10 -5369.93 0)
(-6.20265e-06 -5369.93 0)
(-0.00894206 -5369.93 0)
(-1.6271 -5369.93 0)
(-53.1626 -5369.37 0)
(-468.666 -5354.78 0)
(-1666.42 -5257.9 0)
(-3249.03 -5011.46 0)
(-4317.66 -4656.72 0)
(-4653.08 -4265.35 0)
(-4542.5 -3876.42 0)
(-4195.32 -3506.15 0)
(-3690.59 -3169.28 0)
(-3129.13 -2879.63 0)
(-3044.14 -2655.2 0)
(31577.7 -2401.11 0)
(-53657.2 -9101.54 0)
(47408.7 -10686.2 0)
(-27981.5 -2690.25 0)
(2848.42 -2843.13 0)
(2882.77 -3066.6 0)
(3389.54 -3343.25 0)
(3852.59 -3676.77 0)
(4171.48 -4040.36 0)
(4269.43 -4430.43 0)
(3947.69 -4826.35 0)
(2947.43 -5191.48 0)
(1491.83 -5451.62 0)
(411.233 -5556.47 0)
(45.2765 -5572.46 0)
(1.33015 -5573.08 0)
(0.00694648 -5573.08 0)
(4.54274e-06 -5573.08 0)
(5.85009e-11 -5573.08 0)
(-1.17977e-09 -5573.08 0)
(-2.73004e-10 -5573.08 0)
(9.36015e-10 -5573.08 0)
(1.40402e-09 -5573.08 0)
(2.13528e-09 -5573.08 0)
(1.48202e-09 -5573.08 0)
(-1.29677e-09 -5573.08 0)
(-4.53849e-06 -5573.08 0)
(-0.00694647 -5573.08 0)
(-1.33015 -5573.08 0)
(-45.2767 -5572.46 0)
(-411.234 -5556.47 0)
(-1491.84 -5451.62 0)
(-2947.43 -5191.5 0)
(-3947.68 -4826.45 0)
(-4269.37 -4430.69 0)
(-4171.33 -4040.89 0)
(-3852.4 -3677.74 0)
(-3389.36 -3344.75 0)
(-2882.66 -3068.5 0)
(-2848.53 -2845.12 0)
(27981.6 -2691.78 0)
(-47409.4 -10687.7 0)
(40764.2 -10441.8 0)
(-24020.2 -2632.6 0)
(2681.11 -2771.68 0)
(2647.66 -2981.41 0)
(3103.5 -3246.52 0)
(3524.48 -3546.78 0)
(3816.92 -3891.09 0)
(3896.08 -4258.16 0)
(3584.51 -4637.49 0)
(2646.59 -4991.91 0)
(1314.71 -5248.74 0)
(352.213 -5353.13 0)
(37.1615 -5368.89 0)
(1.02976 -5369.47 0)
(0.00500021 -5369.48 0)
(3.00123e-06 -5369.48 0)
(-7.80013e-10 -5369.48 0)
(4.87508e-11 -5369.48 0)
(3.12005e-10 -5369.48 0)
(-7.31262e-10 -5369.48 0)
(2.82755e-10 -5369.48 0)
(0 -5369.48 0)
(2.34004e-10 -5369.48 0)
(-5.26509e-10 -5369.48 0)
(-3.00192e-06 -5369.48 0)
(-0.00500019 -5369.48 0)
(-1.02976 -5369.47 0)
(-37.1615 -5368.89 0)
(-352.214 -5353.13 0)
(-1314.72 -5248.74 0)
(-2646.6 -4991.9 0)
(-3584.52 -4637.49 0)
(-3896.09 -4258.17 0)
(-3816.92 -3891.15 0)
(-3524.49 -3546.96 0)
(-3103.51 -3246.8 0)
(-2647.66 -2981.78 0)
(-2681.11 -2772.08 0)
(24020.3 -2632.85 0)
(-40764.2 -10442.3 0)
(34809.8 -9854.21 0)
(-20590.3 -2367.17 0)
(2512.3 -2531.14 0)
(2425.2 -2731.36 0)
(2844.73 -2971.6 0)
(3231.46 -3259.16 0)
(3485.96 -3564.37 0)
(3550.16 -3902.02 0)
(3240.62 -4251.01 0)
(2358.41 -4582.15 0)
(1143.75 -4824.41 0)
(295.454 -4922.12 0)
(29.5251 -4936.4 0)
(0.759512 -4936.9 0)
(0.00336189 -4936.91 0)
(1.81317e-06 -4936.91 0)
(0 -4936.91 0)
(4.87508e-11 -4936.91 0)
(8.77514e-11 -4936.91 0)
(1.17002e-10 -4936.91 0)
(6.1426e-10 -4936.91 0)
(3.12005e-10 -4936.91 0)
(5.75259e-10 -4936.91 0)
(8.77514e-11 -4936.91 0)
(-1.81178e-06 -4936.91 0)
(-0.00336188 -4936.91 0)
(-0.759512 -4936.9 0)
(-29.5251 -4936.4 0)
(-295.454 -4922.12 0)
(-1143.75 -4824.41 0)
(-2358.41 -4582.14 0)
(-3240.63 -4251 0)
(-3550.17 -3902 0)
(-3485.98 -3564.35 0)
(-3231.48 -3259.14 0)
(-2844.74 -2971.57 0)
(-2425.2 -2731.33 0)
(-2512.28 -2531.12 0)
(20590.3 -2367.15 0)
(-34809.8 -9854.25 0)
(28987.3 -8454.17 0)
(-16963.4 -2016.47 0)
(2330.17 -2215.07 0)
(2223.22 -2397.54 0)
(2594.89 -2595.41 0)
(2953.26 -2856.23 0)
(3197.43 -3125.56 0)
(3234.41 -3419.65 0)
(2929.12 -3725.09 0)
(2094.03 -4020.99 0)
(987.103 -4242.14 0)
(244.302 -4330.7 0)
(22.9152 -4343.1 0)
(0.54086 -4343.5 0)
(0.0021518 -4343.5 0)
(1.02612e-06 -4343.5 0)
(-4.68008e-10 -4343.5 0)
(-8.28763e-10 -4343.5 0)
(-1.12127e-10 -4343.5 0)
(5.55759e-10 -4343.5 0)
(2.53504e-10 -4343.5 0)
(2.09628e-10 -4343.5 0)
(1.60878e-10 -4343.5 0)
(-5.55759e-10 -4343.5 0)
(-1.02432e-06 -4343.5 0)
(-0.0021518 -4343.5 0)
(-0.54086 -4343.5 0)
(-22.9152 -4343.1 0)
(-244.302 -4330.7 0)
(-987.103 -4242.14 0)
(-2094.03 -4020.99 0)
(-2929.12 -3725.09 0)
(-3234.41 -3419.64 0)
(-3197.44 -3125.54 0)
(-2953.27 -2856.21 0)
(-2594.89 -2595.38 0)
(-2223.22 -2397.5 0)
(-2330.17 -2215.03 0)
(16963.4 -2016.46 0)
(-28987.2 -8454.16 0)
(24719.9 -6681.83 0)
(-14578 -1624.6 0)
(2145.09 -1904.56 0)
(2058.69 -2052.02 0)
(2402.71 -2219.81 0)
(2720.59 -2428.24 0)
(2943.03 -2656.96 0)
(2972.43 -2898.28 0)
(2661.15 -3149.42 0)
(1860.16 -3394.14 0)
(845.298 -3579.61 0)
(198.169 -3653.77 0)
(17.1898 -3663.8 0)
(0.365849 -3664.11 0)
(0.00128412 -3664.11 0)
(5.33153e-07 -3664.11 0)
(-7.11762e-10 -3664.11 0)
(-2.9738e-10 -3664.11 0)
(2.43754e-11 -3664.11 0)
(-1.07252e-10 -3664.11 0)
(3.70506e-10 -3664.11 0)
(2.38879e-10 -3664.11 0)
(7.65387e-10 -3664.11 0)
(-7.84888e-10 -3664.11 0)
(-5.29926e-07 -3664.11 0)
(-0.00128412 -3664.11 0)
(-0.365849 -3664.11 0)
(-17.1898 -3663.8 0)
(-198.169 -3653.77 0)
(-845.298 -3579.61 0)
(-1860.16 -3394.14 0)
(-2661.15 -3149.42 0)
(-2972.43 -2898.28 0)
(-2943.03 -2656.96 0)
(-2720.59 -2428.23 0)
(-2402.71 -2219.8 0)
(-2058.69 -2052.01 0)
(-2145.09 -1904.55 0)
(14578 -1624.59 0)
(-24719.9 -6681.83 0)
(20982.9 -5868.76 0)
(-12359.9 -1704.5 0)
(1918.29 -1940.63 0)
(1919.44 -2181.26 0)
(2232.35 -2370.76 0)
(2532.01 -2545.38 0)
(2744.48 -2706.98 0)
(2759.86 -2874.36 0)
(2451.29 -3089.54 0)
(1679.48 -3379.09 0)
(736.915 -3637.04 0)
(163.178 -3736.69 0)
(12.9537 -3748.34 0)
(0.243836 -3748.63 0)
(0.000734749 -3748.63 0)
(2.59013e-07 -3748.63 0)
(-7.06886e-10 -3748.63 0)
(-7.80013e-11 -3748.63 0)
(-5.26509e-10 -3748.63 0)
(2.19379e-10 -3748.63 0)
(6.09385e-10 -3748.63 0)
(6.82511e-11 -3748.63 0)
(9.75016e-10 -3748.63 0)
(-3.21755e-10 -3748.63 0)
(-2.52846e-07 -3748.63 0)
(-0.000734752 -3748.63 0)
(-0.243836 -3748.63 0)
(-12.9537 -3748.34 0)
(-163.178 -3736.69 0)
(-736.915 -3637.04 0)
(-1679.48 -3379.09 0)
(-2451.29 -3089.54 0)
(-2759.86 -2874.36 0)
(-2744.48 -2706.98 0)
(-2532.01 -2545.38 0)
(-2232.35 -2370.76 0)
(-1919.44 -2181.26 0)
(-1918.29 -1940.63 0)
(12359.9 -1704.5 0)
(-20982.9 -5868.76 0)
(17422 56428.7 0)
(-10792.8 11608.9 0)
(1685.67 13300.2 0)
(1644.2 15859.3 0)
(2051.84 18517.7 0)
(2396.59 22561.6 0)
(2626.02 26412.1 0)
(2603.78 30706.9 0)
(2174.77 34429.4 0)
(1332.57 36788.4 0)
(500.702 37515.6 0)
(90.9216 37563.1 0)
(5.68801 37558.5 0)
(0.0825872 37558.3 0)
(0.000190948 37558.3 0)
(4.89897e-08 37558.3 0)
(4.82633e-10 37558.3 0)
(2.24254e-10 37558.3 0)
(2.77879e-10 37558.3 0)
(7.65387e-10 37558.3 0)
(3.31505e-10 37558.3 0)
(1.99878e-10 37558.3 0)
(7.31262e-11 37558.3 0)
(7.06886e-10 37558.3 0)
(-5.02718e-08 37558.3 0)
(-0.000190951 37558.3 0)
(-0.0825872 37558.3 0)
(-5.68801 37558.5 0)
(-90.9216 37563.1 0)
(-500.702 37515.6 0)
(-1332.57 36788.4 0)
(-2174.77 34429.4 0)
(-2603.78 30706.9 0)
(-2626.02 26412.1 0)
(-2396.59 22561.6 0)
(-2051.84 18517.7 0)
(-1644.2 15859.3 0)
(-1685.67 13300.2 0)
(10792.8 11608.9 0)
(-17422 56428.7 0)
(86546.4 -89416.3 0)
(-53920 -18475.4 0)
(6014.07 -22261.5 0)
(6947.18 -26465.7 0)
(8691 -31177.1 0)
(10139.4 -37614 0)
(10593.5 -44186.1 0)
(10485.6 -51332.4 0)
(8311.64 -57769.5 0)
(4653.47 -62214.5 0)
(1483.47 -63981.4 0)
(204.483 -64273.5 0)
(8.35671 -64288 0)
(0.0678657 -64288.1 0)
(7.52928e-05 -64288.1 0)
(1.50347e-08 -64288.1 0)
(3.33455e-09 -64288.1 0)
(6.2401e-10 -64288.1 0)
(1.61853e-09 -64288.1 0)
(6.82511e-10 -64288.1 0)
(2.47654e-09 -64288.1 0)
(-4.48507e-10 -64288.1 0)
(2.04753e-09 -64288.1 0)
(3.47106e-09 -64288.1 0)
(-1.61463e-08 -64288.1 0)
(-7.52868e-05 -64288.1 0)
(-0.0678657 -64288.1 0)
(-8.35671 -64288 0)
(-204.483 -64273.5 0)
(-1483.47 -63981.4 0)
(-4653.47 -62214.5 0)
(-8311.64 -57769.5 0)
(-10485.6 -51332.4 0)
(-10593.5 -44186.1 0)
(-10139.4 -37614 0)
(-8691 -31177.1 0)
(-6947.18 -26465.7 0)
(-6014.07 -22261.5 0)
(53920 -18475.4 0)
(-86546.4 -89416.3 0)
(86546.4 89416.3 0)
(-53920 18475.4 0)
(6014.07 22261.5 0)
(6947.18 26465.7 0)
(8691 31177.1 0)
(10139.4 37614 0)
(10593.5 44186.1 0)
(10485.6 51332.4 0)
(8311.64 57769.5 0)
(4653.47 62214.5 0)
(1483.47 63981.4 0)
(204.483 64273.5 0)
(8.35671 64288 0)
(0.0678657 64288.1 0)
(7.52873e-05 64288.1 0)
(1.67313e-08 64288.1 0)
(-9.16515e-09 64288.1 0)
(-5.55759e-09 64288.1 0)
(-5.75259e-09 64288.1 0)
(-3.70506e-09 64288.1 0)
(-1.48202e-09 64288.1 0)
(-5.46009e-10 64288.1 0)
(1.77453e-09 64288.1 0)
(-7.21512e-10 64288.1 0)
(-6.51311e-09 64288.1 0)
(-7.52953e-05 64288.1 0)
(-0.0678657 64288.1 0)
(-8.35671 64288 0)
(-204.483 64273.5 0)
(-1483.47 63981.4 0)
(-4653.47 62214.5 0)
(-8311.64 57769.5 0)
(-10485.6 51332.4 0)
(-10593.5 44186.1 0)
(-10139.4 37614 0)
(-8691 31177.1 0)
(-6947.18 26465.7 0)
(-6014.07 22261.5 0)
(53920 18475.4 0)
(-86546.4 89416.3 0)
(17422 -56428.7 0)
(-10792.8 -11608.9 0)
(1685.67 -13300.2 0)
(1644.2 -15859.3 0)
(2051.84 -18517.7 0)
(2396.59 -22561.6 0)
(2626.02 -26412.1 0)
(2603.78 -30706.9 0)
(2174.77 -34429.4 0)
(1332.57 -36788.4 0)
(500.702 -37515.6 0)
(90.9216 -37563.1 0)
(5.68801 -37558.5 0)
(0.0825872 -37558.3 0)
(0.000190947 -37558.3 0)
(4.92188e-08 -37558.3 0)
(6.97136e-10 -37558.3 0)
(1.13589e-09 -37558.3 0)
(4.04632e-10 -37558.3 0)
(6.87386e-10 -37558.3 0)
(-3.46131e-10 -37558.3 0)
(-1.03839e-09 -37558.3 0)
(-2.58379e-10 -37558.3 0)
(2.92505e-10 -37558.3 0)
(-4.92919e-08 -37558.3 0)
(-0.000190953 -37558.3 0)
(-0.0825872 -37558.3 0)
(-5.68801 -37558.5 0)
(-90.9216 -37563.1 0)
(-500.702 -37515.6 0)
(-1332.57 -36788.4 0)
(-2174.77 -34429.4 0)
(-2603.78 -30706.9 0)
(-2626.02 -26412.1 0)
(-2396.59 -22561.6 0)
(-2051.84 -18517.7 0)
(-1644.2 -15859.3 0)
(-1685.67 -13300.2 0)
(10792.8 -11608.9 0)
(-17422 -56428.7 0)
(20982.9 5868.76 0)
(-12359.9 1704.5 0)
(1918.29 1940.63 0)
(1919.44 2181.26 0)
(2232.35 2370.76 0)
(2532.01 2545.38 0)
(2744.48 2706.98 0)
(2759.86 2874.36 0)
(2451.29 3089.54 0)
(1679.48 3379.09 0)
(736.915 3637.04 0)
(163.178 3736.69 0)
(12.9537 3748.34 0)
(0.243836 3748.63 0)
(0.000734746 3748.63 0)
(2.57195e-07 3748.63 0)
(-9.75016e-10 3748.63 0)
(3.60756e-10 3748.63 0)
(-6.77636e-10 3748.63 0)
(1.80378e-10 3748.63 0)
(1.90128e-10 3748.63 0)
(-1.90128e-10 3748.63 0)
(1.28702e-09 3748.63 0)
(-7.31262e-10 3748.63 0)
(-2.54728e-07 3748.63 0)
(-0.000734751 3748.63 0)
(-0.243836 3748.63 0)
(-12.9537 3748.34 0)
(-163.178 3736.69 0)
(-736.915 3637.04 0)
(-1679.48 3379.09 0)
(-2451.29 3089.54 0)
(-2759.86 2874.36 0)
(-2744.48 2706.98 0)
(-2532.01 2545.38 0)
(-2232.35 2370.76 0)
(-1919.44 2181.26 0)
(-1918.29 1940.63 0)
(12359.9 1704.5 0)
(-20982.9 5868.76 0)
(24719.9 6681.83 0)
(-14578 1624.6 0)
(2145.09 1904.56 0)
(2058.69 2052.02 0)
(2402.71 2219.81 0)
(2720.59 2428.24 0)
(2943.03 2656.96 0)
(2972.43 2898.28 0)
(2661.15 3149.42 0)
(1860.16 3394.14 0)
(845.298 3579.61 0)
(198.169 3653.77 0)
(17.1898 3663.8 0)
(0.365849 3664.11 0)
(0.00128411 3664.11 0)
(5.33153e-07 3664.11 0)
(-5.07008e-10 3664.11 0)
(-2.63254e-10 3664.11 0)
(-9.06765e-10 3664.11 0)
(2.43754e-11 3664.11 0)
(6.82511e-11 3664.11 0)
(-2.77879e-10 3664.11 0)
(1.39915e-09 3664.11 0)
(-2.58379e-10 3664.11 0)
(-5.2956e-07 3664.11 0)
(-0.00128412 3664.11 0)
(-0.365849 3664.11 0)
(-17.1898 3663.8 0)
(-198.169 3653.77 0)
(-845.298 3579.61 0)
(-1860.16 3394.14 0)
(-2661.15 3149.42 0)
(-2972.43 2898.28 0)
(-2943.03 2656.96 0)
(-2720.59 2428.23 0)
(-2402.71 2219.8 0)
(-2058.69 2052.01 0)
(-2145.09 1904.55 0)
(14578 1624.59 0)
(-24719.9 6681.83 0)
(28987.3 8454.17 0)
(-16963.4 2016.47 0)
(2330.17 2215.07 0)
(2223.22 2397.54 0)
(2594.89 2595.41 0)
(2953.26 2856.23 0)
(3197.43 3125.56 0)
(3234.41 3419.65 0)
(2929.12 3725.09 0)
(2094.03 4020.99 0)
(987.103 4242.14 0)
(244.302 4330.7 0)
(22.9152 4343.1 0)
(0.54086 4343.5 0)
(0.00215179 4343.5 0)
(1.02648e-06 4343.5 0)
(-1.11639e-09 4343.5 0)
(-1.39915e-09 4343.5 0)
(-1.15052e-09 4343.5 0)
(-3.02255e-10 4343.5 0)
(2.58379e-10 4343.5 0)
(9.84766e-10 4343.5 0)
(4.33882e-10 4343.5 0)
(2.73004e-10 4343.5 0)
(-1.02516e-06 4343.5 0)
(-0.00215179 4343.5 0)
(-0.54086 4343.5 0)
(-22.9152 4343.1 0)
(-244.302 4330.7 0)
(-987.103 4242.14 0)
(-2094.03 4020.99 0)
(-2929.12 3725.09 0)
(-3234.41 3419.64 0)
(-3197.44 3125.54 0)
(-2953.27 2856.21 0)
(-2594.89 2595.38 0)
(-2223.22 2397.5 0)
(-2330.17 2215.03 0)
(16963.4 2016.46 0)
(-28987.2 8454.16 0)
(34809.8 9854.21 0)