/*--------------------------------*- C++ -*----------------------------------*\
| =========                 |                                                 |
| \\      /  F ield         | OpenFOAM: The Open Source CFD Toolbox           |
|  \\    /   O peration     | Version:  v1912                                 |
|   \\  /    A nd           | Website:  www.openfoam.com                      |
|    \\/     M anipulation  |                                                 |
\*---------------------------------------------------------------------------*/
FoamFile
{
    version     2.0;
    format      ascii;
    class       volScalarField;
    location    "1.18";
    object      rho;
}
// * * * * * * * * * * * * * * * * * * * * * * * * * * * * * * * * * * * * * //

dimensions      [1 -3 0 0 0 0 0];


internalField   nonuniform List<scalar> 
1900
(
14000
14000
14000
14000.5
14012.9
14098.3
14298.2
14516.8
14626.3
14743.7
14000
14000
14000
14000.5
14012.8
14097.4
14295.8
14513.8
14645.8
14731.7
14000
14000
14000
14000.5
14012.8
14097.4
14295.7
14512.8
14647
14714.3
14000
14000
14000
14000.5
14012.8
14097.4
14295.8
14513.8
14645.8
14731.7
14000
14000
14000
14000.5
14012.9
14098.3
14298.2
14516.8
14626.3
14743.7
14683.5
14704.6
14674.2
14556.4
13970.5
14728.7
14741.4
14688.5
14620.6
14335.5
14709.3
14717.5
14663.3
14576.6
14294.5
14728.7
14741.4
14688.5
14620.6
14335.5
14683.5
14704.6
14674.2
14556.4
13970.5
15504.9
15469.4
15711.3
15898.1
16465.9
15363.2
15449.4
15715.6
15922
15957.5
15357.9
15456.3
15710.7
15873.2
15587.5
15363.2
15449.4
15715.6
15922
15957.5
15504.9
15469.4
15711.3
15898.1
16465.9
15617.5
9923.65
10159.7
10194.8
10437.9
10886.8
11495.1
12188.6
12891.1
13491.8
13861.9
13984.5
13999.6
14000
14000.1
14000.1
14000.1
14000.1
14000.1
14000.1
14000.1
14000.1
14000.1
14000.1
14000.1
14000.1
14000
13999.5
13981.7
13841.5
13426.4
12757.9
11967.6
11148.4
10341.4
9566.43
8862.3
8429.22
8585.54
30578.1
14612.2
9958.95
10258.2
10238.7
10441.4
10894
11495.9
12189.8
12892.7
13492.8
13862.3
13984.5
13999.6
14000
14000.1
14000.1
14000.1
14000.1
14000.1
14000.1
14000.1
14000.1
14000.1
14000.1
14000.1
14000.1
14000
13999.5
13981.7
13841.5
13426.4
12757.9
11967.6
11148.4
10341.4
9566.43
8862.3
8429.22
8585.54
30578.1
13995.5
10408.7
10299.6
10256.7
10444.8
10896.1
11496.4
12190.2
12893.2
13493.2
13862.5
13984.6
13999.6
14000
14000.1
14000.1
14000.1
14000.1
14000.1
14000.1
14000.1
14000.1
14000.1
14000.1
14000.1
14000.1
14000
13999.5
13981.7
13841.5
13426.4
12757.9
11967.6
11148.4
10341.4
9566.43
8862.3
8429.22
8585.54
30578.1
14612.2
9958.95
10258.2
10238.7
10441.4
10894
11495.9
12189.8
12892.7
13492.8
13862.3
13984.5
13999.6
14000
14000.1
14000.1
14000.1
14000.1
14000.1
14000.1
14000.1
14000.1
14000.1
14000.1
14000.1
14000.1
14000
13999.5
13981.7
13841.5
13426.4
12757.9
11967.6
11148.4
10341.4
9566.43
8862.3
8429.22
8585.54
30578.1
15617.5
9923.65
10159.7
10194.8
10437.9
10886.8
11495.1
12188.6
12891.1
13491.8
13861.9
13984.5
13999.6
14000
14000.1
14000.1
14000.1
14000.1
14000.1
14000.1
14000.1
14000.1
14000.1
14000.1
14000.1
14000.1
14000
13999.5
13981.7
13841.5
13426.4
12757.9
11967.6
11148.4
10341.4
9566.43
8862.3
8429.22
8585.54
30578.1
22269.1
9659.67
9923.73
10049.4
10377.1
10859.2
11487.7
12182.4
12884.5
13486.8
13859.9
13984.1
13999.6
14000
14000.1
14000.1
14000.1
14000.1
14000.1
14000.1
14000.1
14000.1
14000.1
14000.1
14000.1
14000.1
14000
13999.5
13981.7
13841.5
13426.4
12757.9
11967.6
11148.4
10341.4
9566.43
8862.3
8429.22
8585.54
30578.1
27852.5
9060.34
9473.83
9766.88
10220.7
10781.7
11447.9
12156.9
12865.9
13475.7
13855.8
13983.5
13999.5
14000
14000.1
14000.1
14000.1
14000.1
14000.1
14000.1
14000.1
14000.1
14000.1
14000.1
14000.1
14000.1
14000
13999.5
13981.7
13841.5
13426.4
12757.9
11967.6
11148.4
10341.4
9566.43
8862.3
8429.22
8585.54
30578.1
30855.7
8968.18
9218.44
9550.81
10076.7
10696.8
11388.3
12116.7
12839.8
13461.8
13851.2
13982.8
13999.5
14000
14000.1
14000.1
14000.1
14000.1
14000.1
14000.1
14000.1
14000.1
14000.1
14000.1
14000.1
14000.1
14000
13999.5
13981.7
13841.5
13426.4
12757.9
11967.6
11148.4
10341.4
9566.43
8862.3
8429.22
8585.54
30578.1
31878.1
8933.63
9024.42
9361.6
9937.95
10603.6
11322
12072.1
12812.3
13448.3
13846.9
13982.3
13999.5
14000
14000.1
14000.1
14000.1
14000.1
14000.1
14000.1
14000.1
14000.1
14000.1
14000.1
14000.1
14000.1
14000
13999.5
13981.7
13841.5
13426.4
12757.9
11967.6
11148.4
10341.4
9566.43
8862.3
8429.22
8585.54
30578.1
31807.7
8896.72
8847.52
9196.09
9814.54
10513.8
11258.2
12030.3
12788.3
13437.4
13843.9
13981.9
13999.5
14000
14000.1
14000.1
14000.1
14000.1
14000.1
14000.1
14000.1
14000.1
14000.1
14000.1
14000.1
14000.1
14000
13999.5
13981.7
13841.5
13426.4
12757.9
11967.6
11148.4
10341.4
9566.43
8862.3
8429.22
8585.54
30578.1
31582.3
8838.52
8679.19
9057.49
9708.53
10436.2
11205.6
11998
12771.2
13430.5
13842.2
13981.7
13999.5
14000
14000.1
14000.1
14000.1
14000.1
14000.1
14000.1
14000.1
14000.1
14000.1
14000.1
14000.1
14000.1
14000
13999.5
13981.7
13841.5
13426.4
12757.9
11967.6
11148.4
10341.4
9566.43
8862.3
8429.22
8585.54
30578.1
31189.7
8737.86
8544.96
8951.5
9628.39
10380.1
11169.7
11977.5
12761.4
13427.2
13841.6
13981.7
13999.4
14000
14000
14000
14000
14000
14000
14000
14000
14000
14000
14000
14000
14000
14000
13999.4
13981.7
13841.5
13426.3
12757.8
11967.6
11148.3
10341.3
9566.42
8862.3
8429.22
8585.54
30578.1
30819
8638.48
8458.6
8883.02
9577.93
10347.3
11150.7
11967.8
12756.9
13424.5
13839.4
13979.5
13997.3
13997.9
13997.9
13997.9
13997.9
13997.9
13997.9
13997.9
13997.9
13997.9
13997.9
13997.9
13997.9
13997.9
13997.9
13997.3
13979.5
13839.4
13424.3
12756
11966
11147.1
10340.4
9565.68
8861.78
8428.86
8585.39
30578
30604.6
8587.38
8423.79
8854.09
9553.07
10321.6
11122.3
11936
12721.7
13386.8
13800.2
13939.8
13957.5
13958
13958
13958
13958
13958
13958
13958
13958
13958
13958
13958
13958
13958
13958
13957.5
13939.8
13800.2
13386.8
12721.5
11935.4
11120.7
10318.3
9547.78
8847.77
8417.7
8579.4
30567
30413
8520.55
8330.77
8747.61
9428.96
10180.8
10964.4
11761
12530.9
13183.1
13588.4
13725.1
13742.4
13743
13743
13743
13743
13743
13743
13743
13743
13743
13743
13743
13743
13743
13743
13742.4
13725.1
13588.4
13183.2
12531.2
11761.6
10965.1
10181.5
9429.37
8747.52
8330.16
8519.14
30402.6
29625.8
8295.58
8069.72
8466.7
9115.84
9834.35
10584
11347.2
12085.4
12710.7
13098.4
13228.5
13244.9
13245.4
13245.4
13245.4
13245.4
13245.4
13245.4
13245.4
13245.4
13245.4
13245.4
13245.4
13245.4
13245.4
13245.4
13244.9
13228.5
13098.4
12710.7
12085.5
11347.5
10584.5
9835.11
9117.03
8468.34
8071.56
8297.43
29626.6
27963.3
7877.53
7655.01
8032.35
8644.56
9322.93
10032.1
10754.7
11453.3
12043.4
12406.8
12527.2
12542
12542.5
12542.5
12542.5
12542.5
12542.5
12542.5
12542.5
12542.5
12542.5
12542.5
12542.5
12542.5
12542.5
12542.5
12542
12527.2
12406.8
12043.4
11453.3
10754.8
10032.3
9323.22
8645.03
8032.97
7655.68
7878.12
27964
25718.7
7335.59
7164.1
7525.71
8102.57
8741.51
9409.56
10090.4
10747.3
11299.2
11634.8
11743.6
11756.6
11757
11757
11757
11757
11757
11757
11757
11757
11757
11757
11757
11757
11757
11757
11756.6
11743.6
11634.8
11299.2
10747.3
10090.4
9409.58
8741.55
8102.65
7525.82
7164.23
7335.67
25718.9
23199.4
6756.93
6656.98
7003.79
7548.9
8148.66
8778.16
9417.79
10033.3
10546.3
10852.7
10949
10960
10960.3
10960.3
10960.3
10960.3
10960.3
10960.3
10960.3
10960.3
10960.3
10960.3
10960.3
10960.3
10960.3
10960.3
10960
10949
10852.7
10546.3
10033.3
9417.79
8778.15
8148.65
7548.89
7003.78
6656.97
6756.91
23199.4
20834.6
6195.03
6157.72
6493.46
7004.72
7572.76
8163.49
8764.7
9339.75
9813.94
10090.8
10174.4
10183.4
10183.6
10183.6
10183.6
10183.6
10183.6
10183.6
10183.6
10183.6
10183.6
10183.6
10183.6
10183.6
10183.6
10183.6
10183.4
10174.4
10090.8
9813.94
9339.74
8764.7
8163.49
7572.75
7004.71
6493.44
6157.71
6195.02
20834.6
18305.2
5676.78
5693.33
6012.87
6495.57
7022.4
7580.9
8143.34
8679.61
9115.78
9363.54
9434.93
9442.1
9442.28
9442.28
9442.28
9442.28
9442.28
9442.28
9442.28
9442.28
9442.28
9442.28
9442.28
9442.28
9442.28
9442.28
9442.1
9434.93
9363.54
9115.78
8679.61
8143.33
7580.9
7022.39
6495.57
6012.86
5693.32
5676.78
18305.2
16303.5
5230.29
5266.42
5572.28
6028.71
6526.29
7050.77
7581.18
8082.61
8483.35
8702.68
8762.17
8767.67
8767.79
8767.79
8767.79
8767.79
8767.79
8767.79
8767.79
8767.79
8767.79
8767.79
8767.79
8767.79
8767.79
8767.79
8767.67
8762.17
8702.68
8483.35
8082.61
7581.18
7050.77
6526.29
6028.71
5572.28
5266.42
5230.29
16303.5
14660.9
4939.37
4962.14
5273.26
5716.78
6198.26
6711.4
7226.41
7710.65
8091.27
8292.47
8343.73
8348.05
8348.13
8348.13
8348.13
8348.13
8348.13
8348.13
8348.13
8348.13
8348.13
8348.13
8348.13
8348.13
8348.13
8348.13
8348.05
8343.73
8292.47
8091.27
7710.65
7226.41
6711.4
6198.26
5716.78
5273.26
4962.14
4939.37
14660.9
14553.3
4873.66
4934.23
5234.3
5699.65
6242.41
6825.89
7414.31
7940.48
8308.84
8470.79
8503.61
8505.77
8505.8
8505.8
8505.8
8505.8
8505.8
8505.8
8505.8
8505.8
8505.8
8505.8
8505.8
8505.8
8505.8
8505.8
8505.77
8503.61
8470.79
8308.84
7940.48
7414.31
6825.89
6242.41
5699.65
5234.3
4934.23
4873.66
14553.3
60394.2
14943.7
15077.3
16879.2
19015.1
21718.9
24244.7
26861
29097.7
30573.7
31128.8
31212.8
31216.3
31216.3
31216.3
31216.3
31216.3
31216.3
31216.3
31216.3
31216.3
31216.3
31216.3
31216.3
31216.3
31216.3
31216.3
31216.3
31212.8
31128.8
30573.7
29097.7
26861
24244.7
21718.9
19015.1
16879.2
15077.3
14943.7
60394.2
60394.2
14943.7
15077.3
16879.2
19015.1
21718.9
24244.7
26861
29097.7
30573.7
31128.8
31212.8
31216.3
31216.3
31216.3
31216.3
31216.3
31216.3
31216.3
31216.3
31216.3
31216.3
31216.3
31216.3
31216.3
31216.3
31216.3
31216.3
31212.8
31128.8
30573.7
29097.7
26861
24244.7
21718.9
19015.1
16879.2
15077.3
14943.7
60394.2
14553.3
4873.66
4934.23
5234.3
5699.65
6242.41
6825.89
7414.31
7940.48
8308.84
8470.79
8503.61
8505.77
8505.8
8505.8
8505.8
8505.8
8505.8
8505.8
8505.8
8505.8
8505.8
8505.8
8505.8
8505.8
8505.8
8505.8
8505.77
8503.61
8470.79
8308.84
7940.48
7414.31
6825.89
6242.41
5699.65
5234.3
4934.23
4873.66
14553.3
14660.9
4939.37
4962.14
5273.26
5716.78
6198.26
6711.4
7226.41
7710.65
8091.27
8292.47
8343.73
8348.05
8348.13
8348.13
8348.13
8348.13
8348.13
8348.13
8348.13
8348.13
8348.13
8348.13
8348.13
8348.13
8348.13
8348.13
8348.05
8343.73
8292.47
8091.27
7710.65
7226.41
6711.4
6198.26
5716.78
5273.26
4962.14
4939.37
14660.9
16303.5
5230.29
5266.42
5572.28
6028.71
6526.29
7050.77
7581.18
8082.61
8483.35
8702.68
8762.17
8767.67
8767.79
8767.79
8767.79
8767.79
8767.79
8767.79
8767.79
8767.79
8767.79
8767.79
8767.79
8767.79
8767.79
8767.79
8767.67
8762.17
8702.68
8483.35
8082.61
7581.18
7050.77
6526.29
6028.71
5572.28
5266.42
5230.29
16303.5
18305.2
5676.78
5693.33
6012.87
6495.57
7022.4
7580.9
8143.34
8679.61
9115.78
9363.54
9434.93
9442.1
9442.28
9442.28
9442.28
9442.28
9442.28
9442.28
9442.28
9442.28
9442.28
9442.28
9442.28
9442.28
9442.28
9442.28
9442.1
9434.93
9363.54
9115.78
8679.61
8143.33
7580.9
7022.39
6495.57
6012.86
5693.32
5676.78
18305.2
20834.6
6195.03
6157.72
6493.46
7004.72
7572.76
8163.49
8764.7
9339.75
9813.94
10090.8
10174.4
10183.4
10183.6
10183.6
10183.6
10183.6
10183.6
10183.6
10183.6
10183.6
10183.6
10183.6
10183.6
10183.6
10183.6
10183.6
10183.4
10174.4
10090.8
9813.94
9339.74
8764.7
8163.49
7572.75
7004.71
6493.44
6157.71
6195.02
20834.6
23199.4
6756.93
6656.98
7003.79
7548.9
8148.66
8778.16
9417.79
10033.3
10546.3
10852.7
10949
10960
10960.3
10960.3
10960.3
10960.3
10960.3
10960.3
10960.3
10960.3
10960.3
10960.3
10960.3
10960.3
10960.3
10960.3
10960
10949
10852.7
10546.3
10033.3
9417.79
8778.15
8148.65
7548.89
7003.78
6656.97
6756.91
23199.4
25718.7
7335.59
7164.1
7525.71
8102.57
8741.51
9409.56
10090.4
10747.3
11299.2
11634.8
11743.6
11756.6
11757
11757
11757
11757
11757
11757
11757
11757
11757
11757
11757
11757
11757
11757
11756.6
11743.6
11634.8
11299.2
10747.3
10090.4
9409.58
8741.55
8102.65
7525.82
7164.23
7335.67
25718.9
27963.3
7877.53
7655.01
8032.35
8644.56
9322.93
10032.1
10754.7
11453.3
12043.4
12406.8
12527.2
12542
12542.5
12542.5
12542.5
12542.5
12542.5
12542.5
12542.5
12542.5
12542.5
12542.5
12542.5
12542.5
12542.5
12542.5
12542
12527.2
12406.8
12043.4
11453.3
10754.8
10032.3
9323.22
8645.03
8032.97
7655.68
7878.12
27964
29625.8
8295.58
8069.72
8466.7
9115.84
9834.35
10584
11347.2
12085.4
12710.7
13098.4
13228.5
13244.9
13245.4
13245.4
13245.4
13245.4
13245.4
13245.4
13245.4
13245.4
13245.4
13245.4
13245.4
13245.4
13245.4
13245.4
13244.9
13228.5
13098.4
12710.7
12085.5
11347.5
10584.5
9835.11
9117.03
8468.34
8071.56
8297.43
29626.6
30413
8520.55
8330.77
8747.61
9428.96
10180.8
10964.4
11761
12530.9
13183.1
13588.4
13725.1
13742.4
13743
13743
13743
13743
13743
13743
13743
13743
13743
13743
13743
13743
13743
13743
13742.4
13725.1
13588.4
13183.2
12531.2
11761.6
10965.1
10181.5
9429.37
8747.52
8330.16
8519.14
30402.6
30604.6
8587.38
8423.79
8854.09
9553.07
10321.6
11122.3
11936
12721.7
13386.8
13800.2
13939.8
13957.5
13958
13958
13958
13958
13958
13958
13958
13958
13958
13958
13958
13958
13958
13958
13957.5
13939.8
13800.2
13386.8
12721.5
11935.4
11120.7
10318.3
9547.78
8847.77
8417.7
8579.4
30567
30819
8638.48
8458.6
8883.02
9577.93
10347.3
11150.7
11967.8
12756.9
13424.5
13839.4
13979.5
13997.3
13997.9
13997.9
13997.9
13997.9
13997.9
13997.9
13997.9
13997.9
13997.9
13997.9
13997.9
13997.9
13997.9
13997.9
13997.3
13979.5
13839.4
13424.3
12756
11966
11147.1
10340.4
9565.68
8861.78
8428.86
8585.39
30578
31189.7
8737.86
8544.96
8951.5
9628.39
10380.1
11169.7
11977.5
12761.4
13427.2
13841.6
13981.7
13999.4
14000
14000
14000
14000
14000
14000
14000
14000
14000
14000
14000
14000
14000
14000
13999.4
13981.7
13841.5
13426.3
12757.8
11967.6
11148.3
10341.3
9566.42
8862.3
8429.22
8585.54
30578.1
31582.3
8838.52
8679.19
9057.49
9708.53
10436.2
11205.6
11998
12771.2
13430.5
13842.2
13981.7
13999.5
14000
14000.1
14000.1
14000.1
14000.1
14000.1
14000.1
14000.1
14000.1
14000.1
14000.1
14000.1
14000.1
14000
13999.5
13981.7
13841.5
13426.4
12757.9
11967.6
11148.4
10341.4
9566.43
8862.3
8429.22
8585.54
30578.1
31807.7
8896.72
8847.52
9196.09
9814.54
10513.8
11258.2
12030.3
12788.3
13437.4
13843.9
13981.9
13999.5
14000
14000.1
14000.1
14000.1
14000.1
14000.1
14000.1
14000.1
14000.1
14000.1
14000.1
14000.1
14000.1
14000
13999.5
13981.7
13841.5
13426.4
12757.9
11967.6
11148.4
10341.4
9566.43
8862.3
8429.22
8585.54
30578.1
31878.1
8933.63
9024.42
9361.6
9937.95
10603.6
11322
12072.1
12812.3
13448.3
13846.9
13982.3
13999.5
14000
14000.1
14000.1
14000.1
14000.1
14000.1
14000.1
14000.1
14000.1
14000.1
14000.1
14000.1
14000.1
14000
13999.5
13981.7
13841.5
13426.4
12757.9
11967.6
11148.4
10341.4
9566.43
8862.3
8429.22
8585.54
30578.1
30855.7
8968.18
9218.44
9550.81
10076.7
10696.8
11388.3
12116.7
12839.8
13461.8
13851.2
13982.8
13999.5
14000
14000.1
14000.1
14000.1
14000.1
14000.1
14000.1
14000.1
14000.1
14000.1
14000.1
14000.1
14000.1
14000
13999.5
13981.7
13841.5
13426.4
12757.9
11967.6
11148.4
10341.4
9566.43
8862.3
8429.22
8585.54
30578.1
27852.5
9060.34
9473.83
9766.88
10220.7
10781.7
11447.9
12156.9
12865.9
13475.7
13855.8
13983.5
13999.5
14000
14000.1
14000.1
14000.1
14000.1
14000.1
14000.1
14000.1
14000.1
14000.1
14000.1
14000.1
14000.1
14000
13999.5
13981.7
13841.5
13426.4
12757.9
11967.6
11148.4
10341.4
9566.43
8862.3
8429.22
8585.54
30578.1
22269.1
9659.67
9923.73
10049.4
10377.1
10859.2
11487.7
12182.4
12884.5
13486.8
13859.9
13984.1
13999.6
14000
14000.1
14000.1
14000.1
14000.1
14000.1
14000.1
14000.1
14000.1
14000.1
14000.1
14000.1
14000.1
14000
13999.5
13981.7
13841.5
13426.4
12757.9
11967.6
11148.4
10341.4
9566.43
8862.3
8429.22
8585.54
30578.1
)
;

boundaryField
{
    inlet
    {
        type            calculated;
        value           uniform 14000.1;
    }
    outlet
    {
        type            calculated;
        value           nonuniform List<scalar> 
165
(
1869.39
2118.36
2103.75
2077.89
2072.37
2071.6
2078.03
2087.59
2093.53
2098.36
2117.95
2160.7
2221.64
2294.7
2365.05
2441.15
2481.88
2559.55
2902.64
2920.2
2920.2
2919.41
2575.78
2492.28
2449.15
2370.38
2297.57
2224.36
2165.67
2128.86
2115.36
2113.32
2113.24
2113.23
2113.23
2113.23
2113.23
2113.23
2113.23
2113.23
2113.23
2113.23
2113.23
2113.23
2113.23
2113.23
2113.23
2113.24
2113.32
2115.36
2128.86
2165.67
2224.36
2297.57
2370.38
2449.15
2492.28
2575.78
2919.41
2920.2
2094.31
2094.31
2094.31
2094.31
2094.31
2094.31
2094.31
2094.31
2094.58
2098.64
2117.93
2160.68
2221.63
2294.7
2365.05
2441.15
2481.88
2559.55
2902.64
2920.2
2094.31
2094.31
2094.31
2094.31
2094.31
2920.2
2902.64
2559.55
2481.88
2441.15
2365.05
2294.7
2221.63
2160.68
2117.93
2098.64
2094.58
2094.31
2094.31
2094.31
2094.31
2094.31
2094.31
2094.31
2094.31
2920.2
2919.41
2575.78
2492.28
2449.15
2370.38
2297.57
2224.36
2165.67
2128.86
2115.36
2113.32
2113.24
2113.23
2113.23
2113.23
2113.23
2113.23
2113.23
2113.23
2113.23
2113.23
2113.23
2113.23
2113.23
2113.23
2113.23
2113.24
2113.32
2115.36
2128.86
2165.67
2224.36
2297.57
2370.38
2449.15
2492.28
2575.78
2919.41
2920.2
2920.2
2902.64
2559.55
2481.88
2441.15
2365.05
2294.7
2221.64
2160.7
2117.95
2098.36
2093.53
2087.59
2078.03
2071.6
2072.37
2077.89
2103.75
2118.36
1869.39
)
;
    }
    obstacle
    {
        type            calculated;
        value           nonuniform List<scalar> 
40
(
14000
14000
14000
14000.5
14012.9
14098.3
14298.2
14516.8
14626.3
14743.7
14000
14000
14000
14000.5
14012.9
14098.3
14298.2
14516.8
14626.3
14743.7
14683.5
14704.6
14674.2
14556.4
13970.5
14683.5
14704.6
14674.2
14556.4
13970.5
15504.9
15469.4
15711.3
15898.1
16465.9
15504.9
15469.4
15711.3
15898.1
16465.9
)
;
    }
    empty
    {
        type            empty;
    }
}


// ************************************************************************* //
