/*--------------------------------*- C++ -*----------------------------------*\
| =========                 |                                                 |
| \\      /  F ield         | OpenFOAM: The Open Source CFD Toolbox           |
|  \\    /   O peration     | Version:  v1912                                 |
|   \\  /    A nd           | Website:  www.openfoam.com                      |
|    \\/     M anipulation  |                                                 |
\*---------------------------------------------------------------------------*/
FoamFile
{
    version     2.0;
    format      ascii;
    class       Cloud<dsmcParcel>;
    location    "0.00018/lagrangian/dsmc";
    object      positions;
}
// * * * * * * * * * * * * * * * * * * * * * * * * * * * * * * * * * * * * * //

13114
(
(0.03955425967 0.005377409981 2.5e-05) 1173
(0.03819007029 0.01336003038 2.5e-05) 313
(0.0379622807 0.01086830107 2.5e-05) 223
(0.04577920335 0.008794953917 2.5e-05) 1269
(0.03415298415 0.008585825495 2.5e-05) 1259
(0.04048418392 0.009641102903 2.5e-05) 1295
(0.03099679975 0.01057573132 2.5e-05) 217
(0.04179271912 0.01128096344 2.5e-05) 256
(0.04110790745 0.01008588523 2.5e-05) 225
(0.03353597718 0.01001712986 2.5e-05) 219
(0.04300763861 0.01006626017 2.5e-05) 227
(0.03756895972 0.005707999942 2.5e-05) 1172
(0.03249437863 0.006982459438 2.5e-05) 1197
(0.03899464252 0.007037337649 2.5e-05) 1233
(0.04753776057 0.01395289616 2.5e-05) 831
(0.04310995645 0.01008659617 2.5e-05) 227
(0.05079444726 0.01565186654 2.5e-05) 854
(0.03994066625 0.006832014811 2.5e-05) 1204
(0.03362564443 0.01020269135 2.5e-05) 219
(0.04480299641 0.01293587381 2.5e-05) 288
(0.04426770403 0.007318481001 2.5e-05) 1238
(0.02518048966 0.003645535808 2.5e-05) 1100
(0.04399408868 0.01136947141 2.5e-05) 258
(0.03557637287 0.005180689165 2.5e-05) 1170
(0.04904474176 0.0153794418 2.5e-05) 852
(0.02784959589 0.002684134541 2.5e-05) 1072
(0.03836833475 0.005345968146 2.5e-05) 1172
(0.02651574125 0.002973935005 2.5e-05) 1071
(0.04510982557 0.003141193105 2.5e-05) 1118
(0.03215175255 0.009864810761 2.5e-05) 1288
(0.04866920616 0.01046860066 2.5e-05) 802
(0.03826811587 0.006404885662 2.5e-05) 1202
(0.04723238129 0.01109395328 2.5e-05) 810
(0.03392906053 0.004742078371 2.5e-05) 1138
(0.04007822705 0.007346728978 2.5e-05) 1234
(0.04221486107 0.008212982621 2.5e-05) 1266
(0.03089349465 0.002051273089 2.5e-05) 1075
(0.04490263587 0.003630862247 2.5e-05) 1118
(0.03815143949 0.009146855256 2.5e-05) 1293
(0.04130849855 0.0113602718 2.5e-05) 255
(0.04259072091 0.01172336771 2.5e-05) 256
(0.03647314605 0.003763458259 2.5e-05) 1110
(0.03958435794 0.005041109386 2.5e-05) 1173
(0.0385670458 0.007514926665 2.5e-05) 1233
(0.0366784646 0.01123097035 2.5e-05) 251
(0.0412237153 0.004668491635 2.5e-05) 1145
(0.03803676769 0.01169974037 2.5e-05) 253
(0.0531386114 0.01198032128 2.5e-05) 816
(0.03591464652 0.006832868749 2.5e-05) 1200
(0.03946884581 0.002184836534 2.5e-05) 1083
(0.04176402676 0.01628615806 2.5e-05) 406
(0.03632602942 0.008726152187 2.5e-05) 1261
(0.03856498174 0.01083902795 2.5e-05) 223
(0.03804834335 0.007126381501 2.5e-05) 1232
(0.04137832759 0.003201810013 2.5e-05) 1115
(0.04791386933 0.01413973307 2.5e-05) 841
(0.03936046174 0.0003684813398 2.5e-05) 1022
(0.03661902098 0.003244221323 2.5e-05) 1110
(0.03837262901 0.009345773214 2.5e-05) 1293
(0.03351214935 0.00749246986 2.5e-05) 1228
(0.02858827394 0.007186469826 2.5e-05) 1224
(0.03872744805 0.01040698915 2.5e-05) 223
(0.05184492372 0.0241348953 2.5e-05) 945
(0.03705169638 0.009676190896 2.5e-05) 1292
(0.04549266561 0.01784985136 2.5e-05) 439
(0.03685967676 0.003700727658 2.5e-05) 1111
(0.04381778883 0.01049720048 2.5e-05) 227
(0.05007843787 0.01294424587 2.5e-05) 823
(0.0432127033 0.01539340834 2.5e-05) 377
(0.02251512768 0.007215424928 2.5e-05) 1219
(0.0291563991 0.007717344075 2.5e-05) 1225
(0.03641300397 0.003679320813 2.5e-05) 1110
(0.04239447262 0.009544721596 2.5e-05) 1296
(0.03694157863 0.01307306789 2.5e-05) 312
(0.03635412861 0.003076449455 2.5e-05) 1110
(0.0372155314 0.007240404324 2.5e-05) 1232
(0.03001624932 0.004843693642 2.5e-05) 1135
(0.03725693426 0.007823065862 2.5e-05) 1232
(0.05547859418 0.01990455014 2.5e-05) 899
(0.03589289219 0.01139198337 2.5e-05) 251
(0.05484751594 0.0169758844 2.5e-05) 868
(0.04051442596 0.0119615796 2.5e-05) 255
(0.04298928844 0.01094004563 2.5e-05) 227
(0.04269327703 0.01395307503 2.5e-05) 316
(0.04272972154 0.0100602254 2.5e-05) 226
(0.03575821822 0.005572022436 2.5e-05) 1170
(0.03503686877 0.01196464189 2.5e-05) 250
(0.03291317584 0.01064611102 2.5e-05) 218
(0.04239941324 0.004261402653 2.5e-05) 1146
(0.04888010425 0.01909149776 2.5e-05) 892
(0.03576209266 0.005073826972 2.5e-05) 1170
(0.05172054109 0.01297521601 2.5e-05) 825
(0.03502961848 0.001657470669 2.5e-05) 1048
(0.03936926576 0.007335657109 2.5e-05) 1233
(0.02592490544 0.006944130975 2.5e-05) 1192
(0.03618383257 0.01122421145 2.5e-05) 251
(0.03204804735 0.008016140181 2.5e-05) 1257
(0.05478002647 0.01287762552 2.5e-05) 828
(0.04346188152 0.006764084192 2.5e-05) 1207
(0.05101275758 0.01472445892 2.5e-05) 844
(0.03151260519 0.004793398175 2.5e-05) 1136
(0.05634554967 0.02467542439 2.5e-05) 949
(0.03838896868 0.007805847221 2.5e-05) 1233
(0.04807222178 0.01022045252 2.5e-05) 801
(0.04931983764 0.01336588003 2.5e-05) 832
(0.03644443 0.009585387427 2.5e-05) 1291
(0.04818311972 0.01332639567 2.5e-05) 831
(0.04875283001 0.0150908033 2.5e-05) 852
(0.05307083073 0.01968812512 2.5e-05) 896
(0.04749955801 0.01510970534 2.5e-05) 851
(0.04157527849 0.007501122082 2.5e-05) 1235
(0.04224705961 0.004291765957 2.5e-05) 1146
(0.01696065693 0.00708060216 2.5e-05) 1214
(0.04552844719 0.01238170141 2.5e-05) 289
(0.0371010348 0.009850726101 2.5e-05) 1292
(0.04255924345 0.00815725747 2.5e-05) 1266
(0.04520806173 0.01041662254 2.5e-05) 229
(0.02020959163 0.007971407245 2.5e-05) 1217
(0.03668988355 0.005792409146 2.5e-05) 1171
(0.0402521815 0.004019640101 2.5e-05) 1144
(0.03436515397 0.009441349021 2.5e-05) 1289
(0.03898088688 0.004914184069 2.5e-05) 1143
(0.03740100036 0.01025142965 2.5e-05) 222
(0.04533176742 0.01390500996 2.5e-05) 319
(0.05033285594 0.01215914174 2.5e-05) 823
(0.03388384996 0.006401350558 2.5e-05) 1198
(0.03948828247 0.007222279364 2.5e-05) 1233
(0.03830268217 0.004487112483 2.5e-05) 1142
(0.03222006851 0.007974783014 2.5e-05) 1227
(0.05065306937 0.01126840732 2.5e-05) 814
(0.03547751251 0.002728351154 2.5e-05) 1079
(0.04480029376 0.00473571871 2.5e-05) 1148
(0.03727355066 0.009000272803 2.5e-05) 1292
(0.04679411776 0.01703597297 2.5e-05) 870
(0.02470537592 0.004572206812 2.5e-05) 1130
(0.04471752142 0.01680257433 2.5e-05) 408
(0.04486073924 0.01926205636 2.5e-05) 498
(0.05625103096 0.01333066549 2.5e-05) 839
(0.04209260876 0.006489762645 2.5e-05) 1206
(0.03061412181 0.004430651691 2.5e-05) 1135
(0.03848531285 0.01257044844 2.5e-05) 283
(0.0303040687 0.00414042487 2.5e-05) 1135
(0.03665095247 0.0139097976 2.5e-05) 311
(0.03804086933 0.007280225533 2.5e-05) 1232
(0.05280596442 0.0111182377 2.5e-05) 816
(0.0314849122 0.007791892958 2.5e-05) 1227
(0.03823830712 0.01453106098 2.5e-05) 343
(0.05244643456 0.01509120185 2.5e-05) 856
(0.05027858751 0.01532553665 2.5e-05) 853
(0.04108516892 0.009237820287 2.5e-05) 1295
(0.04577111705 0.01769766758 2.5e-05) 439
(0.03634745139 0.01040420649 2.5e-05) 221
(0.02504236378 0.003087230197 2.5e-05) 1099
(0.04416442957 0.01259681255 2.5e-05) 288
(0.03649387165 0.01285126585 2.5e-05) 281
(0.04116378263 0.006738368781 2.5e-05) 1205
(0.03721257319 0.01456092816 2.5e-05) 342
(0.04024623252 0.005261846989 2.5e-05) 1174
(0.03391098126 0.01139337584 2.5e-05) 249
(0.04564623177 0.01129662685 2.5e-05) 259
(0.03725487583 0.0051865058 2.5e-05) 1171
(0.03778301893 0.01134666404 2.5e-05) 252
(0.05246779426 0.01523945254 2.5e-05) 856
(0.03794081222 0.006484845247 2.5e-05) 1202
(0.0561454175 0.01585364827 2.5e-05) 859
(0.03919882814 0.005268094084 2.5e-05) 1173
(0.03671194086 0.004807245498 2.5e-05) 1141
(0.04669228646 0.01185539865 2.5e-05) 810
(0.04312429866 0.005042609121 2.5e-05) 1177
(0.02293341185 0.0075223066 2.5e-05) 1219
(0.04026110893 0.01135371826 2.5e-05) 254
(0.03864564629 0.00586534477 2.5e-05) 1173
(0.04633438354 0.01453572626 2.5e-05) 349
(0.04519673936 0.008752233456 2.5e-05) 1268
(0.04419700947 0.007582451946 2.5e-05) 1238
(0.04470191782 0.005796056838 2.5e-05) 1178
(0.03810684741 0.00144086539 2.5e-05) 1051
(0.04933465962 0.01765387035 2.5e-05) 872
(0.04346815547 0.005418079066 2.5e-05) 1177
(0.04345898684 0.004825775577 2.5e-05) 1147
(0.04389981868 0.005621879076 2.5e-05) 1177
(0.04076754464 0.00856582826 2.5e-05) 1265
(0.05615086777 0.02726969373 2.5e-05) 979
(0.04732771077 0.01615377676 2.5e-05) 860
(0.03458298468 0.006731185223 2.5e-05) 1199
(0.05385182182 0.01257706861 2.5e-05) 827
(0.03965354452 0.01227608225 2.5e-05) 284
(0.05007194579 0.01484774092 2.5e-05) 843
(0.05423028012 0.01325483906 2.5e-05) 837
(0.03268797349 0.003576407933 2.5e-05) 1107
(0.02090111081 0.0006463331286 2.5e-05) 1004
(0.04109059275 0.01263328138 2.5e-05) 285
(0.0401342494 0.006978527931 2.5e-05) 1204
(0.03996328801 0.007799846555 2.5e-05) 1234
(0.04352692384 0.006088724954 2.5e-05) 1207
(0.04453736014 0.01009210385 2.5e-05) 228
(0.04885693728 0.0174815083 2.5e-05) 872
(0.02188515958 0.0005630858954 2.5e-05) 1005
(0.03459453013 0.003256936368 2.5e-05) 1108
(0.02091109104 0.008383738486 2.5e-05) 1248
(0.03160025014 0.0106154072 2.5e-05) 217
(0.04751921174 0.01436323979 2.5e-05) 841
(0.02923590359 0.005834739034 2.5e-05) 1164
(0.04867740006 0.01637702953 2.5e-05) 862
(0.04002491181 0.006606111876 2.5e-05) 1204
(0.03602773229 0.007064024152 2.5e-05) 1230
(0.04315328161 0.009989093002 2.5e-05) 1297
(0.02972459229 0.005456906621 2.5e-05) 1165
(0.02812690905 0.003829097505 2.5e-05) 1103
(0.04615914475 0.0109275234 2.5e-05) 229
(0.03298961513 0.008494313532 2.5e-05) 1258
(0.0364911203 0.007499200119 2.5e-05) 1231
(0.02871733212 0.00431709116 2.5e-05) 1133
(0.0365468025 0.005738312675 2.5e-05) 1171
(0.02233922837 0.01130150448 2.5e-05) 240
(0.03921015495 0.004152542654 2.5e-05) 1143
(0.02327509638 0.008403005908 2.5e-05) 1250
(0.04253565405 0.009810705551 2.5e-05) 1296
(0.03580168712 0.009145815242 2.5e-05) 1291
(0.05345770408 0.01406359104 2.5e-05) 847
(0.04204512308 0.006584400861 2.5e-05) 1206
(0.05442798543 0.0135918501 2.5e-05) 838
(0.04030110635 0.003601887315 2.5e-05) 1114
(0.0371043972 0.002650471166 2.5e-05) 1081
(0.02508131307 0.003971558368 2.5e-05) 1100
(0.03523508273 0.01316080654 2.5e-05) 310
(0.04086177488 0.01368755791 2.5e-05) 315
(0.05208108762 0.0185805433 2.5e-05) 885
(0.03602771553 0.01108382628 2.5e-05) 251
(0.03017957225 0.006337408555 2.5e-05) 1195
(0.05548503295 0.02020532214 2.5e-05) 909
(0.05218169032 0.01523806829 2.5e-05) 855
(0.04130014108 0.01443423739 2.5e-05) 345
(0.04513541214 0.01466130413 2.5e-05) 348
(0.04534081015 0.01324022723 2.5e-05) 319
(0.04153245974 0.007206720655 2.5e-05) 1235
(0.03924140142 0.01266102916 2.5e-05) 284
(0.03147642495 0.0009796470343 2.5e-05) 1015
(0.0405464059 0.01341483038 2.5e-05) 315
(0.03188842 0.01167223108 2.5e-05) 248
(0.03692807364 0.007245786366 2.5e-05) 1231
(0.04255162704 0.008140317505 2.5e-05) 1266
(0.04175211734 0.01456993058 2.5e-05) 346
(0.05319593863 0.01720343111 2.5e-05) 876
(0.03633217132 0.01120251955 2.5e-05) 251
(0.03379026662 0.004343393962 2.5e-05) 1138
(0.03641427251 0.00463058879 2.5e-05) 1140
(0.03289802075 0.01016861761 2.5e-05) 218
(0.03090125901 0.004454976885 2.5e-05) 1135
(0.04432958944 0.005832462745 2.5e-05) 1178
(0.04434700947 0.01779607738 2.5e-05) 438
(0.04244715658 0.009295052245 2.5e-05) 1296
(0.0300404452 0.008319503725 2.5e-05) 1256
(0.04513636611 0.01463971457 2.5e-05) 348
(0.03455238771 0.005945487422 2.5e-05) 1169
(0.03076656552 0.003727646697 2.5e-05) 1105
(0.0468603847 0.02068941596 2.5e-05) 900
(0.05259510195 0.01900235503 2.5e-05) 896
(0.03356499744 0.01044388368 2.5e-05) 219
(0.04511756391 0.01656098579 2.5e-05) 408
(0.05636476886 0.01791447859 2.5e-05) 879
(0.02657898216 0.005432441515 2.5e-05) 1162
(0.05388837802 0.01404755938 2.5e-05) 847
(0.0353769965 0.01545601616 2.5e-05) 370
(0.04204738008 0.008365967374 2.5e-05) 1266
(0.02117854107 0.001651112344 2.5e-05) 1035
(0.03593895569 0.004279006863 2.5e-05) 1140
(0.04454414188 0.002490922829 2.5e-05) 1088
(0.0408009607 0.001864223714 2.5e-05) 1054
(0.02906053987 0.01520772266 2.5e-05) 365
(0.03125308116 0.004415120392 2.5e-05) 1136
(0.0488001929 0.01155391404 2.5e-05) 812
(0.04159697236 0.00947938046 2.5e-05) 1295
(0.03482324571 0.009093602977 2.5e-05) 1290
(0.03376731407 0.005339836512 2.5e-05) 1168
(0.03781213672 0.01015733209 2.5e-05) 222
(0.05573146062 0.01618649839 2.5e-05) 869
(0.01943891037 0.003789024093 2.5e-05) 1095
(0.03588186925 0.009944399113 2.5e-05) 1291
(0.0234345255 0.003954675129 2.5e-05) 1098
(0.02875924488 0.01081726281 2.5e-05) 215
(0.05098159927 0.01632399637 2.5e-05) 864
(0.04072360944 0.007515184306 2.5e-05) 1235
(0.03698673076 0.003515845828 2.5e-05) 1111
(0.0460744702 0.01416631993 2.5e-05) 349
(0.02811993763 0.00620740529 2.5e-05) 1193
(0.03960016874 0.007834550139 2.5e-05) 1234
(0.05102831172 0.02364377279 2.5e-05) 934
(0.04460423707 0.005835952274 2.5e-05) 1178
(0.05616287809 0.01451751495 2.5e-05) 849
(0.04850575741 0.01283666454 2.5e-05) 822
(0.02062558298 0.008760187507 2.5e-05) 1248
(0.03834607187 0.01319800184 2.5e-05) 313
(0.0407848459 0.01339445043 2.5e-05) 315
(0.0343995492 0.004253440412 2.5e-05) 1138
(0.03976777046 0.004460124065 2.5e-05) 1143
(0.04154496641 0.008757486112 2.5e-05) 1265
(0.04335241707 0.008930834466 2.5e-05) 1267
(0.03857283959 0.005457770773 2.5e-05) 1172
(0.05084966989 0.01355797266 2.5e-05) 834
(0.04387000257 0.01149402027 2.5e-05) 257
(0.04553354287 0.01112461644 2.5e-05) 259
(0.04483887283 0.006405225724 2.5e-05) 1208
(0.04018606243 0.005177240627 2.5e-05) 1174
(0.03317244471 0.009850511759 2.5e-05) 1289
(0.03543434467 0.001134056485 2.5e-05) 1049
(0.04095546602 0.003927335327 2.5e-05) 1114
(0.04922872964 0.01134724743 2.5e-05) 812
(0.04959039159 0.01594954295 2.5e-05) 853
(0.03508546639 0.01542623351 2.5e-05) 370
(0.0426381844 0.01409123816 2.5e-05) 346
(0.03768330939 0.009186701687 2.5e-05) 1292
(0.02923445933 0.0009231337249 2.5e-05) 1013
(0.0265433906 0.005596484545 2.5e-05) 1162
(0.03143316156 0.01018466255 2.5e-05) 217
(0.05422979201 0.01312301362 2.5e-05) 837
(0.04068832001 0.004663024225 2.5e-05) 1144
(0.02579222422 0.01063099527 2.5e-05) 213
(0.03696793965 0.006820615871 2.5e-05) 1201
(0.02546602391 0.004829423974 2.5e-05) 1131
(0.03839877326 0.007321954007 2.5e-05) 1233
(0.0370402053 0.006226135593 2.5e-05) 1201
(0.05327772738 0.02045541038 2.5e-05) 906
(0.04188529991 0.00694145647 2.5e-05) 1206
(0.04095565351 0.01259502989 2.5e-05) 285
(0.03510109268 0.003493988736 2.5e-05) 1109
(0.04989331064 0.01643336439 2.5e-05) 863
(0.03772345989 0.0002351450325 2.5e-05) 1021
(0.04048093021 0.006309555407 2.5e-05) 1204
(0.03648699719 0.006363835499 2.5e-05) 1201
(0.03746568695 0.005603337364 2.5e-05) 1172
(0.03594752569 0.003571038668 2.5e-05) 1110
(0.04907041233 0.01721982314 2.5e-05) 872
(0.03318943754 0.01137915395 2.5e-05) 249
(0.03920843571 0.007790935308 2.5e-05) 1233
(0.04722030784 0.01555258449 2.5e-05) 850
(0.05405265524 0.01069532749 2.5e-05) 807
(0.03248186301 0.008014903272 2.5e-05) 1258
(0.03910135183 0.01094221471 2.5e-05) 223
(0.03606276209 0.00548130025 2.5e-05) 1170
(0.03456527671 0.007754156625 2.5e-05) 1229
(0.03011815303 0.004235350932 2.5e-05) 1135
(0.0462562144 0.007717943865 2.5e-05) 1239
(0.0455604375 0.01767264507 2.5e-05) 439
(0.0532417764 0.01360302073 2.5e-05) 836
(0.04424035479 0.005754515815 2.5e-05) 1178
(0.04076209683 0.008972553969 2.5e-05) 1265
(0.04089678307 0.003691118045 2.5e-05) 1114
(0.0340737838 0.002444054959 2.5e-05) 1078
(0.05077033723 0.01907652833 2.5e-05) 894
(0.05298023445 0.01785357379 2.5e-05) 876
(0.03202043442 0.01833667521 2.5e-05) 458
(0.046783146 0.0235555043 2.5e-05) 930
(0.04502162883 0.01318295017 2.5e-05) 318
(0.02615708084 0.005070797737 2.5e-05) 1161
(0.04933732085 0.01620777888 2.5e-05) 862
(0.03489902388 0.0009985565369 2.5e-05) 1018
(0.05337394251 0.02147219304 2.5e-05) 916
(0.05096198866 0.01634672484 2.5e-05) 864
(0.0369955674 0.01009438412 2.5e-05) 222
(0.03759292797 0.005798194682 2.5e-05) 1172
(0.03645017261 0.0006242036489 2.5e-05) 1020
(0.04005473035 0.002403012602 2.5e-05) 1083
(0.04086822272 0.004432632239 2.5e-05) 1144
(0.04086413326 0.004641474917 2.5e-05) 1144
(0.04689806621 0.01534650775 2.5e-05) 850
(0.04085950174 0.008422359931 2.5e-05) 1265
(0.03628003899 0.01267182963 2.5e-05) 281
(0.05384896995 0.017626883 2.5e-05) 877
(0.0436220204 0.01064754334 2.5e-05) 227
(0.03477758785 0.003748955931 2.5e-05) 1109
(0.02242929478 0.003624750936 2.5e-05) 1097
(0.0323720441 0.008499089178 2.5e-05) 1258
(0.03342415219 0.008385077217 2.5e-05) 1258
(0.04284998763 0.005847827436 2.5e-05) 1176
(0.039294314 0.005337242817 2.5e-05) 1173
(0.03712440128 0.008949865809 2.5e-05) 1262
(0.03496702022 0.001850111269 2.5e-05) 1048
(0.0468306897 0.01702691738 2.5e-05) 870
(0.03138891547 0.01016060929 2.5e-05) 217
(0.03037421024 0.009548508095 2.5e-05) 1286
(0.03429866614 0.006832367333 2.5e-05) 1199
(0.03386576668 0.008931672382 2.5e-05) 1259
(0.04026805073 0.00716001961 2.5e-05) 1234
(0.04138015689 0.01257711899 2.5e-05) 285
(0.03301150025 0.01328637193 2.5e-05) 308
(0.04815036593 0.02169693151 2.5e-05) 911
(0.03263417251 0.002686380306 2.5e-05) 1076
(0.05411992207 0.02272746817 2.5e-05) 927
(0.04905597737 0.0158526324 2.5e-05) 852
(0.03937737706 0.01147256695 2.5e-05) 254
(0.02139772927 0.005317024085 2.5e-05) 1157
(0.03796399964 0.005333606204 2.5e-05) 1172
(0.02827913471 0.000612845564 2.5e-05) 1012
(0.04049141342 0.003088036323 2.5e-05) 1114
(0.03791797484 0.007317613137 2.5e-05) 1232
(0.04142558282 0.005136960928 2.5e-05) 1175
(0.04342565819 0.01064630384 2.5e-05) 227
(0.04939554809 0.01542852628 2.5e-05) 852
(0.03858387136 0.008883436356 2.5e-05) 1263
(0.0452512987 0.01818709988 2.5e-05) 469
(0.05000935259 0.01551065658 2.5e-05) 853
(0.03662791564 0.007037344198 2.5e-05) 1231
(0.02923352445 0.008864006989 2.5e-05) 1255
(0.03559218434 0.01305529517 2.5e-05) 311
(0.04213074889 0.008888562074 2.5e-05) 1266
(0.04272893959 0.004811571978 2.5e-05) 1146
(0.0428341906 0.01598257654 2.5e-05) 377
(0.0373143779 0.01146710801 2.5e-05) 252
(0.02261825602 0.003623266058 2.5e-05) 1097
(0.05193615789 0.02029326756 2.5e-05) 905
(0.04237957535 0.01623013515 2.5e-05) 406
(0.0436103673 0.005916814629 2.5e-05) 1177
(0.02961986432 0.003909845127 2.5e-05) 1104
(0.03639621301 0.005620884363 2.5e-05) 1171
(0.03486725472 0.001540934662 2.5e-05) 1048
(0.04051766258 0.008805346554 2.5e-05) 1265
(0.04270863082 0.002268436354 2.5e-05) 1086
(0.03615245498 0.007787916729 2.5e-05) 1231
(0.04519196342 0.008360022525 2.5e-05) 1268
(0.05080979824 0.0139947494 2.5e-05) 834
(0.03324544366 0.01160768561 2.5e-05) 249
(0.05509280327 0.01937806811 2.5e-05) 898
(0.04264224863 0.005112504246 2.5e-05) 1176
(0.04915465873 0.01451046233 2.5e-05) 842
(0.05431470795 0.02303038933 2.5e-05) 937
(0.02171961433 0.004278607354 2.5e-05) 1127
(0.04951814991 0.02506139248 2.5e-05) 953
(0.03406335983 0.005871031519 2.5e-05) 1169
(0.03659892464 0.01190713065 2.5e-05) 251
(0.03994928578 0.007735798789 2.5e-05) 1234
(0.04136538416 0.01208826866 2.5e-05) 285
(0.03373966022 0.007187445011 2.5e-05) 1229
(0.0245870129 0.006609066839 2.5e-05) 1190
(0.03726957443 0.005106191383 2.5e-05) 1171
(0.04385565182 0.01457341639 2.5e-05) 347
(0.03507251166 0.005274308013 2.5e-05) 1169
(0.04586617841 0.0135528766 2.5e-05) 319
(0.03891661757 0.01262300944 2.5e-05) 283
(0.03638830267 0.005956773079 2.5e-05) 1171
(0.05177605736 0.0135410888 2.5e-05) 835
(0.04967360461 0.01267292078 2.5e-05) 823
(0.04106997101 0.006634896326 2.5e-05) 1205
(0.04129912994 0.007767552229 2.5e-05) 1235
(0.03925942346 0.004154574118 2.5e-05) 1143
(0.05115999962 0.01616510201 2.5e-05) 864
(0.03960444086 0.01444769763 2.5e-05) 344
(0.04871076331 0.01600537461 2.5e-05) 862
(0.01903171157 0.001284042962 2.5e-05) 1033
(0.02842829333 0.00618397257 2.5e-05) 1194
(0.04660285779 0.01587394877 2.5e-05) 850
(0.04157933492 0.01366275482 2.5e-05) 316
(0.0214697928 0.007241821219 2.5e-05) 1218
(0.05500262852 0.01954448336 2.5e-05) 898
(0.03390892957 0.009962700982 2.5e-05) 1289
(0.02421426743 0.007953250913 2.5e-05) 1221
(0.01946581423 0.003144356266 2.5e-05) 1094
(0.04788724391 0.01374752213 2.5e-05) 831
(0.05472064963 0.01809870758 2.5e-05) 888
(0.04952850629 0.01264483887 2.5e-05) 823
(0.03807018501 0.004050743134 2.5e-05) 1142
(0.04301098727 0.007567226834 2.5e-05) 1237
(0.03904126236 0.006552144325 2.5e-05) 1203
(0.04215691676 0.01035944257 2.5e-05) 226
(0.04687203807 0.0115681221 2.5e-05) 810
(0.03722360261 0.01018920543 2.5e-05) 222
(0.04457718528 0.0003538231807 2.5e-05) 1028
(0.02084380438 0.003229250319 2.5e-05) 1096
(0.04320335479 0.01193262714 2.5e-05) 257
(0.04988074321 0.01746282117 2.5e-05) 873
(0.04126655251 0.003114155534 2.5e-05) 1115
(0.03261643037 0.01259829618 2.5e-05) 278
(0.04918769091 0.01380097976 2.5e-05) 832
(0.02941253897 0.0007269948203 2.5e-05) 1013
(0.03757201478 0.006259637792 2.5e-05) 1202
(0.0329909328 0.01232773303 2.5e-05) 278
(0.04444841018 0.0234983529 2.5e-05) 618
(0.03965894607 0.0122535269 2.5e-05) 284
(0.04108352939 0.01074823707 2.5e-05) 225
(0.03422054652 0.002327119525 2.5e-05) 1078
(0.035452475 0.006000002905 2.5e-05) 1200
(0.03393933799 0.004251794518 2.5e-05) 1138
(0.03615854192 0.003808918962 2.5e-05) 1110
(0.0282701735 0.004730263238 2.5e-05) 1133
(0.04296093983 0.00793692228 2.5e-05) 1237
(0.02693275034 0.002186183404 2.5e-05) 1071
(0.04560716315 0.008873677204 2.5e-05) 1269
(0.02850319725 0.005087045603 2.5e-05) 1163
(0.03045629024 0.01234407409 2.5e-05) 276
(0.05589982181 0.01458685693 2.5e-05) 849
(0.04285427781 0.008429506612 2.5e-05) 1266
(0.0438577191 0.00434688966 2.5e-05) 1147
(0.04412548123 0.008640450691 2.5e-05) 1268
(0.04466636887 0.0101860913 2.5e-05) 228
(0.04787670796 0.0192209067 2.5e-05) 891
(0.02854254852 0.00196094052 2.5e-05) 1042
(0.0495410133 0.02085260471 2.5e-05) 903
(0.04705159451 0.01014013717 2.5e-05) 800
(0.04334298793 0.001844544396 2.5e-05) 1057
(0.05512033521 0.01589233955 2.5e-05) 858
(0.02230216632 0.0097231921 2.5e-05) 1280
(0.04145536543 0.007061970219 2.5e-05) 1235
(0.04171352581 0.01307910817 2.5e-05) 316
(0.0311810022 0.01056406635 2.5e-05) 217
(0.04321198966 0.01441350063 2.5e-05) 347
(0.05058872616 0.01622519866 2.5e-05) 864
(0.03078063488 0.006816131567 2.5e-05) 1196
(0.03253852926 0.001233565761 2.5e-05) 1046
(0.03833247852 0.006165229298 2.5e-05) 1202
(0.0289888882 0.001504158869 2.5e-05) 1043
(0.03826650278 0.01138018601 2.5e-05) 253
(0.04731068204 0.01472149346 2.5e-05) 840
(0.03875870397 0.005449904017 2.5e-05) 1173
(0.03606729708 0.003451242088 2.5e-05) 1110
(0.04103624353 0.01179753452 2.5e-05) 255
(0.03671932415 0.006176404051 2.5e-05) 1201
(0.03865847823 0.004348020448 2.5e-05) 1142
(0.04230376562 0.009707123531 2.5e-05) 1296
(0.03885885257 0.001887570918 2.5e-05) 1052
(0.0435600058 0.009135472922 2.5e-05) 1297
(0.04350312392 0.01161778092 2.5e-05) 257
(0.03753706686 0.008669729805 2.5e-05) 1262
(0.05273206257 0.01785877907 2.5e-05) 876
(0.03983151183 0.01104025807 2.5e-05) 254
(0.03647723035 0.005289668466 2.5e-05) 1171
(0.02647704386 0.006019210341 2.5e-05) 1192
(0.04955457432 0.01504345056 2.5e-05) 853
(0.02689434956 0.01351496927 2.5e-05) 303
(0.04192846899 0.007576215403 2.5e-05) 1236
(0.04553899439 0.01395257735 2.5e-05) 319
(0.04485558244 0.01200681936 2.5e-05) 288
(0.03945349558 0.008122974172 2.5e-05) 1264
(0.02785343383 0.005049977101 2.5e-05) 1163
(0.0317702499 0.001632976553 2.5e-05) 1045
(0.04767025004 0.01401596419 2.5e-05) 841
(0.03702355134 0.001037065245 2.5e-05) 1050
(0.04263043439 0.00210446529 2.5e-05) 1086
(0.03189723271 0.01004063672 2.5e-05) 218
(0.04147196121 0.002493989499 2.5e-05) 1085
(0.04426545849 0.01739340611 2.5e-05) 438
(0.04004807165 0.007537148716 2.5e-05) 1234
(0.0437488602 0.00445189367 2.5e-05) 1147
(0.03669477575 0.007409937207 2.5e-05) 1231
(0.043053831 0.01146000844 2.5e-05) 257
(0.04220280292 0.007772131444 2.5e-05) 1236
(0.04572660264 0.01420247425 2.5e-05) 349
(0.05171282196 0.01352449553 2.5e-05) 835
(0.03385993916 0.003884185422 2.5e-05) 1108
(0.04619598206 0.01605846441 2.5e-05) 409
(0.04311389631 0.01515968805 2.5e-05) 377
(0.0466690544 0.01438883423 2.5e-05) 840
(0.03875107116 0.006869613082 2.5e-05) 1203
(0.03246519326 0.009742579456 2.5e-05) 1288
(0.0208908441 0.006001399824 2.5e-05) 1187
(0.04708476519 0.01797403634 2.5e-05) 870
(0.05438339339 0.01987408659 2.5e-05) 897
(0.04768971687 0.01331984113 2.5e-05) 831
(0.03252351847 0.01107999011 2.5e-05) 248
(0.04731846202 0.01359145321 2.5e-05) 830
(0.04571763655 0.009178135294 2.5e-05) 1299
(0.04735440755 0.01656647561 2.5e-05) 860
(0.04147173692 0.008963125527 2.5e-05) 1265
(0.04452878127 0.0040485338 2.5e-05) 1148
(0.03899790679 0.002244008846 2.5e-05) 1082
(0.04035932043 0.003023210529 2.5e-05) 1114
(0.04263357362 0.006868613092 2.5e-05) 1206
(0.04196716408 0.01020651207 2.5e-05) 226
(0.04013643656 0.007892952668 2.5e-05) 1234
(0.04813764013 0.01482020061 2.5e-05) 841
(0.02891651027 0.006053393125 2.5e-05) 1194
(0.05272200633 0.01663895055 2.5e-05) 866
(0.04245117964 0.006543179548 2.5e-05) 1206
(0.03533137425 0.005001743406 2.5e-05) 1169
(0.0487664969 0.01414773163 2.5e-05) 842
(0.03098852526 0.01177960995 2.5e-05) 247
(0.05018990541 0.0153382687 2.5e-05) 853
(0.02823301259 0.009550115433 2.5e-05) 1284
(0.05268526339 0.01832121338 2.5e-05) 886
(0.02289898417 0.006478912785 2.5e-05) 1189
(0.0278391927 0.0104484591 2.5e-05) 214
(0.05234785579 0.02276242252 2.5e-05) 925
(0.03347156082 0.003163919492 2.5e-05) 1107
(0.02551491696 0.008516658211 2.5e-05) 1252
(0.02067777426 0.006046217953 2.5e-05) 1187
(0.03170346308 0.008567479306 2.5e-05) 1257
(0.01643958997 0.004863410637 2.5e-05) 1122
(0.03782892043 0.005133326139 2.5e-05) 1172
(0.03600369404 0.007667685052 2.5e-05) 1231
(0.04720673316 0.01526567203 2.5e-05) 850
(0.04713278325 0.01635670468 2.5e-05) 860
(0.0366764072 0.006951369567 2.5e-05) 1201
(0.04641159632 0.0126545984 2.5e-05) 289
(0.04601400643 0.008054270908 2.5e-05) 1269
(0.03668395887 0.003106095773 2.5e-05) 1110
(0.04146833824 0.003259161482 2.5e-05) 1115
(0.03860928738 0.005665235787 2.5e-05) 1173
(0.05336190174 0.01701179619 2.5e-05) 876
(0.04186755202 0.009801739765 2.5e-05) 1296
(0.03767989044 0.008853100922 2.5e-05) 1262
(0.02365246872 0.006494264373 2.5e-05) 1190
(0.01711775154 0.008300660656 2.5e-05) 1245
(0.03027465916 0.007837553394 2.5e-05) 1226
(0.03884713501 0.01302384815 2.5e-05) 313
(0.04268186791 0.004315523224 2.5e-05) 1146
(0.04538242842 0.01816579851 2.5e-05) 469
(0.0442699091 0.01167945214 2.5e-05) 258
(0.04347895059 0.0100989697 2.5e-05) 227
(0.04570778556 0.01622273343 2.5e-05) 409
(0.03429175035 0.0126611068 2.5e-05) 280
(0.02132921901 0.003922062439 2.5e-05) 1096
(0.0478888902 0.01859985493 2.5e-05) 881
(0.04679237858 0.01238270335 2.5e-05) 820
(0.03403103452 0.007223315173 2.5e-05) 1229
(0.0460593424 0.01643720608 2.5e-05) 409
(0.02616225674 0.00959213826 2.5e-05) 1283
(0.04174152299 0.008886046287 2.5e-05) 1266
(0.04341584081 0.00919614296 2.5e-05) 1297
(0.04963109463 0.01337172755 2.5e-05) 833
(0.04958723491 0.01088934029 2.5e-05) 803
(0.03135023184 0.003322859442 2.5e-05) 1105
(0.02585187892 0.00562148998 2.5e-05) 1161
(0.04196101709 0.002744530596 2.5e-05) 1085
(0.03815644194 0.01069722909 2.5e-05) 223
(0.04148252942 0.009621362923 2.5e-05) 1295
(0.02918212676 0.01096774024 2.5e-05) 215
(0.04252723321 0.01209668026 2.5e-05) 286
(0.0483307376 0.01120117529 2.5e-05) 811
(0.04268783511 0.004024998001 2.5e-05) 1146
(0.02857893095 0.008083740478 2.5e-05) 1254
(0.03506350201 0.00470761014 2.5e-05) 1139
(0.02478090546 0.004358709214 2.5e-05) 1130
(0.04386469236 0.006819077288 2.5e-05) 1207
(0.04478330533 0.01346295108 2.5e-05) 318
(0.0316517234 0.01074239273 2.5e-05) 217
(0.02719242915 0.004439450687 2.5e-05) 1132
(0.02297071188 0.009545045614 2.5e-05) 1280
(0.03445755836 0.01259893696 2.5e-05) 280
(0.0284294942 0.007292059379 2.5e-05) 1224
(0.03022820669 0.004220574074 2.5e-05) 1135
(0.0184106964 0.003884641507 2.5e-05) 1094
(0.04812348184 0.01855449406 2.5e-05) 881
(0.02086036852 0.005530467708 2.5e-05) 1157
(0.034870992 0.007247094034 2.5e-05) 1230
(0.04081409698 0.006584350156 2.5e-05) 1205
(0.0308124761 0.006689186539 2.5e-05) 1196
(0.05080206984 0.01025092306 2.5e-05) 804
(0.03017370459 0.002101863633 2.5e-05) 1074
(0.03449762771 0.006462496058 2.5e-05) 1199
(0.03331212518 0.006037380632 2.5e-05) 1198
(0.04641566914 0.008409566487 2.5e-05) 1269
(0.04084202727 0.01099046319 2.5e-05) 225
(0.04018247541 0.004174719336 2.5e-05) 1144
(0.04117107923 0.01096843745 2.5e-05) 225
(0.039272568 0.004583041897 2.5e-05) 1143
(0.04989864198 0.01158405215 2.5e-05) 813
(0.03314767515 0.01131335798 2.5e-05) 249
(0.04263757622 0.006145633801 2.5e-05) 1206
(0.05211887434 0.02329686373 2.5e-05) 935
(0.03762490286 0.008717858552 2.5e-05) 1262
(0.0514940326 0.01755729385 2.5e-05) 875
(0.03490746337 0.001402141838 2.5e-05) 1048
(0.04058151439 0.009859461212 2.5e-05) 1295
(0.01650835518 0.007087631402 2.5e-05) 1214
(0.01655279924 0.004319921846 2.5e-05) 1122
(0.02405068366 0.01027382542 2.5e-05) 211
(0.05503116081 0.01663521169 2.5e-05) 868
(0.05014478325 0.02146286418 2.5e-05) 913
(0.03360032057 0.008790329136 2.5e-05) 1259
(0.02968940019 0.011240827 2.5e-05) 246
(0.03744724337 0.0156115919 2.5e-05) 372
(0.03203487694 0.004378568829 2.5e-05) 1136
(0.0330096025 0.007170263953 2.5e-05) 1228
(0.03258396264 0.002764366403 2.5e-05) 1076
(0.03687816891 0.01031862678 2.5e-05) 222
(0.03682340279 0.006949835604 2.5e-05) 1201
(0.04830712607 0.02269181966 2.5e-05) 921
(0.04074429479 0.01249463278 2.5e-05) 285
(0.0343403267 0.009102053798 2.5e-05) 1289
(0.04449649105 0.01134000742 2.5e-05) 258
(0.03330224865 0.006013938351 2.5e-05) 1198