/*--------------------------------*- C++ -*----------------------------------*\
| =========                 |                                                 |
| \\      /  F ield         | OpenFOAM: The Open Source CFD Toolbox           |
|  \\    /   O peration     | Version:  v1912                                 |
|   \\  /    A nd           | Website:  www.openfoam.com                      |
|    \\/     M anipulation  |                                                 |
\*---------------------------------------------------------------------------*/
FoamFile
{
    version     2.0;
    format      ascii;
    class       volScalarField;
    location    "7.06";
    object      p;
}
// * * * * * * * * * * * * * * * * * * * * * * * * * * * * * * * * * * * * * //

dimensions      [1 -1 -2 0 0 0 0];


internalField   nonuniform List<scalar> 
1900
(
25430.4
9444.68
8533.68
8524.6
8496.21
8484.81
8477.71
8480.83
8483.67
8486.8
25430.4
9444.69
8533.66
8524.57
8496.31
8484.94
8478.52
8480.02
8490.39
8482.11
25430.4
9444.69
8533.63
8524.55
8496.45
8485.29
8478.73
8479.26
8480.78
8471.3
25430.4
9444.69
8533.66
8524.57
8496.31
8484.94
8478.52
8480.02
8490.39
8482.11
25430.4
9444.68
8533.68
8524.6
8496.21
8484.81
8477.71
8480.83
8483.67
8486.8
8613.98
8452.19
8384.51
8212.11
8453.49
8470.59
8361.7
8301.33
8127.68
8013.46
8439.2
8342.86
8287.12
8150.07
8047.04
8470.59
8361.7
8301.33
8127.68
8013.46
8613.98
8452.19
8384.51
8212.11
8453.49
3550.59
2062.21
1453.18
1132.49
875.681
4013.19
2275.99
1566.11
1219.87
946.311
4123.6
2236.24
1517.74
1185.22
906.725
4013.19
2275.99
1566.11
1219.87
946.311
3550.59
2062.21
1453.18
1132.49
875.681
859.023
805.948
747.87
630.368
576.673
611.322
1021.13
1407.79
1418.34
1397.03
1345.07
1248.37
1116.19
979.739
840.025
679.229
522.279
431.9
397.01
378.382
363.046
349.243
338.454
331.823
328.746
327.746
327.586
328.046
328.78
330.218
332.342
336.047
339.85
348.129
372.73
486.665
681.371
796.205
900.464
935.33
802.35
783.673
752.049
644.631
583.28
621.058
1029.44
1418.63
1415.34
1388.93
1341.61
1246.28
1121.44
986.99
844.932
681.924
523.291
432.14
397.039
378.393
363.112
349.259
338.435
331.791
328.714
327.717
327.56
328.023
328.758
330.199
332.325
336.039
339.84
348.097
372.692
486.51
681.263
797.377
900.171
935.029
784.181
766.352
742.65
651.641
586.492
623.292
1032.13
1424.07
1416.92
1387.41
1347.79
1255.53
1123.4
984.183
843.228
682.051
523.868
432.302
397.062
378.402
363.134
349.269
338.43
331.78
328.703
327.707
327.552
328.016
328.751
330.192
332.319
336.036
339.836
348.082
372.678
486.452
681.229
797.834
900.09
935.025
802.35
783.673
752.049
644.631
583.28
621.058
1029.44
1418.63
1415.34
1388.93
1341.61
1246.28
1121.44
986.99
844.932
681.924
523.291
432.14
397.039
378.393
363.112
349.259
338.435
331.791
328.714
327.717
327.56
328.023
328.758
330.199
332.325
336.039
339.84
348.097
372.692
486.51
681.263
797.377
900.171
935.029
859.023
805.948
747.87
630.368
576.673
611.322
1021.13
1407.79
1418.34
1397.03
1345.07
1248.37
1116.19
979.739
840.025
679.229
522.279
431.9
397.01
378.382
363.046
349.243
338.454
331.823
328.746
327.746
327.586
328.046
328.78
330.218
332.342
336.047
339.85
348.129
372.73
486.665
681.371
796.205
900.464
935.33
946.784
850.72
767.02
652.808
590.31
643.257
1022.4
1332.61
1336.88
1329.95
1297.41
1214.85
1097.98
970.297
832.806
671.945
517.246
430.401
396.813
378.271
362.792
349.137
338.517
331.965
328.896
327.879
327.704
328.15
328.875
330.3
332.413
336.078
339.881
348.201
372.858
487.047
681.479
792.914
900.318
936.195
949.894
841.311
735.494
670.012
642.526
733.208
1019.66
1213.1
1242.26
1257.33
1227.53
1153.39
1048.09
931.323
802.566
648.885
504.484
426.939
396.272
377.888
362.282
348.881
338.627
332.289
329.259
328.209
327.994
328.405
329.11
330.507
332.589
336.174
339.942
348.343
373.13
487.709
681.597
789.103
898.965
936.794
957.886
872.492
792.938
791.783
832.718
910.238
1056.46
1120.26
1173.44
1180.78
1144.23
1075.08
984.738
883.341
763.563
616.517
486.892
422.472
395.463
377.283
361.689
348.635
338.843
332.807
329.856
328.77
328.5
328.856
329.528
330.885
332.921
336.388
340.088
348.574
373.583
488.559
681.401
786.102
896.859
936.746
962.655
886.904
843.692
853.045
901.52
984.613
1056.04
1090.63
1107.93
1088.01
1054.07
995.422
919.777
831.269
716.978
577.423
468.01
418.15
394.497
376.553
361.109
348.508
339.244
333.56
330.712
329.592
329.253
329.534
330.164
331.473
333.452
336.779
340.368
348.956
374.279
489.72
681.304
783.921
894.728
936.382
957.226
907.537
904.602
915.875
944.746
971.146
991.103
1019.69
1021.6
1006.7
969.203
919.089
856.875
775.868
662.957
535.45
451.123
414.368
393.251
375.628
360.549
348.528
339.872
334.572
331.841
330.686
330.265
330.456
331.037
332.287
334.197
337.371
340.821
349.491
375.172
490.907
680.957
781.912
892.128
935.522
967.864
956.136
929.791
894.6
885.66
910.139
942.339
957.852
943.358
921.534
890.996
850.919
796.826
716.247
604.181
497.097
438.664
411.485
392.019
374.748
360.19
348.85
340.838
335.93
333.315
332.124
331.615
331.709
332.241
333.431
335.275
338.302
341.61
350.413
376.531
492.862
681.533
781.083
890.548
935.093
935.155
936.34
874.94
854.345
868.445
888.612
887.841
875.065
865.365
845.424
821.757
789.17
735.85
651.691
546.998
468.105
430.203
408.648
390.295
373.659
359.901
349.359
342.018
337.507
335.009
333.779
333.191
333.198
333.669
334.795
336.575
339.477
342.667
351.526
377.969
494.325
681.656
780.099
888.543
934
930.978
945.788
894.012
864.67
848.363
825.585
814.218
804.862
793.542
778.563
761.642
729.716
671.416
585.437
499.691
449.587
424.641
406.251
388.703
372.817
359.992
350.322
343.653
339.509
337.11
335.84
335.178
335.108
335.508
336.576
338.3
341.098
344.208
353.19
380.051
496.788
682.87
780.181
887.266
933.353
974.172
949.148
892.452
841.458
795.938
765.974
748.073
739.873
731.33
721.977
706.259
669.404
605.202
526.751
468.321
438.592
420.17
403.464
386.859
372.069
360.236
351.48
345.483
341.704
339.417
338.129
337.411
337.277
337.616
338.647
340.336
343.081
346.193
355.28
382.4
499.047
684.109
780.591
886.229
932.413
978.341
945.118
893.471
819.61
750.548
706.696
687.613
683.807
678.97
671.93
651.348
607.315
543.517
484.887
450.912
432.143
417.234
401.502
385.775
372.155
361.436
353.597
348.203
344.712
342.489
341.154
340.362
340.148
340.415
341.402
343.06
345.776
348.944
358.179
385.643
502.421
686.354
781.871
885.811
931.944
994.903
953.052
892.334
797.155
701.796
650.986
637.136
637.104
634.571
624.798
596.423
548.778
496.531
461.205
441.659
428.199
414.785
399.898
385.352
373.002
363.42
356.458
351.631
348.403
346.228
344.837
343.958
343.655
343.844
344.793
346.428
349.154
352.456
361.774
389.378
505.685
688.679
783.893
885.63
930.825
1004.25
955.977
879.685
771.585
655.935
606.202
598.224
598.349
594.742
578.252
544.477
502.839
469.302
449.83
437.665
426.864
414.291
400.38
387.103
375.98
367.449
361.198
356.729
353.579
351.309
349.757
348.723
348.277
348.378
349.299
350.96
353.74
357.228
366.772
394.809
511.189
693.044
787.659
887.116
931.055
996.609
947.908
858.568
746.266
623.009
575.734
567.953
565.521
557.415
535.594
503.244
474.937
457.196
445.763
436.79
426.999
414.833
401.544
389.268
379.203
371.562
365.963
361.875
358.87
356.589
354.961
353.858
353.335
353.443
354.497
356.35
359.363
363.218
373.081
401.51
517.201
698.374
793.151
889.436
930.477
979.12
935.51
844.944
733.766
607.763
556.391
543.65
536.587
522.74
501.302
479.281
464.111
454.133
447.081
439.856
430.378
418.53
406.227
395.329
386.617
380.184
375.658
372.446
370.059
368.216
366.981
366.171
365.909
366.219
367.577
369.58
372.864
377.009
387.559
417.162
533.365
713.222
805.591
895.894
932.132
963.868
930.629
846.859
738.808
606.237
546.144
527.995
517.543
503.396
490.222
479.388
472.07
466.414
461.41
455.1
446.223
435.609
425.283
416.655
410.055
405.412
402.266
400.173
398.914
398.212
398.177
398.276
399.026
400.193
402.393
404.93
409.068
413.72
425.622
457.092
574.023
750.11
835.515
908.914
931.767
962.278
936.013
866.744
770.121
628.753
560.16
541.619
536.857
530.479
527.384
524.743
524.839
526.115
528.107
528.432
525.767
521.04
516.279
512.535
510.193
509.764
511.129
513.358
515.653
517.72
520.108
521.718
524.226
526.536
529.98
533.033
537.872
542.018
554.64
586.622
698.742
855.46
910.564
944.473
941.519
958.169
957.447
937.49
878.421
740.636
665.382
647.087
651.113
655.424
663.852
671.159
680.536
689.259
696.311
699.227
698.489
695.726
692.877
690.888
689.868
690.114
691.897
693.778
695.318
696.335
697.676
698.285
699.732
700.992
703.328
705.368
708.881
712.279
723.213
752.589
845.843
974.061
1011.53
995.263
945.131
933.23
985.638
1016.59
973.637
861.869
795.126
778.229
782.377
787.985
796.389
803.3
811.029
816.229
817.363
814.216
808.875
803.562
799.878
798.48
799.461
801.083
798.684
793.927
790.624
788.423
787.465
786.498
786.545
786.82
788.089
789.582
792.416
796.086
804.973
828.988
894.705
998.066
1061.97
1032.61
928.339
1098.64
883.769
1039.11
1008.58
939.786
896.199
885.209
886.794
890.981
897.875
904.459
911.47
915.368
915.011
911.831
907.67
904.004
901.523
900.052
898.706
897.485
896.202
894.664
892.29
889.542
887.841
885.966
884.897
884.05
883.942
883.801
884.886
886.192
890.956
901.095
933.678
984.393
1028.53
893.518
1001.22
15320.3
933.614
924.217
932.341
908.609
889.382
886.576
889.564
896.321
903.497
910.119
915.759
918.791
920.531
921.384
921.813
922.153
922.843
923.316
923.246
923.185
924.426
925.98
927.168
927.797
928.511
928.478
928.982
929.051
929.48
929.103
929.884
929.429
931.096
930.658
939.191
944.082
932.372
991.164
11674.3
15320.3
933.614
924.217
932.341
908.609
889.382
886.576
889.564
896.321
903.497
910.119
915.759
918.791
920.531
921.384
921.813
922.153
922.843
923.316
923.246
923.185
924.426
925.98
927.168
927.797
928.511
928.478
928.982
929.051
929.48
929.103
929.884
929.429
931.096
930.658
939.191
944.082
932.372
991.164
11674.3
1098.64
883.769
1039.11
1008.58
939.786
896.199
885.209
886.794
890.981
897.875
904.459
911.47
915.368
915.011
911.831
907.67
904.004
901.523
900.052
898.706
897.485
896.202
894.664
892.29
889.542
887.841
885.966
884.897
884.05
883.942
883.801
884.886
886.192
890.956
901.095
933.678
984.393
1028.53
893.518
1001.22
933.23
985.638
1016.59
973.637
861.869
795.126
778.229
782.377
787.985
796.389
803.3
811.029
816.229
817.363
814.216
808.875
803.562
799.878
798.48
799.461
801.083
798.684
793.927
790.624
788.423
787.465
786.498
786.545
786.82
788.089
789.582
792.416
796.086
804.973
828.988
894.705
998.066
1061.97
1032.61
928.339
958.169
957.447
937.49
878.421
740.636
665.382
647.087
651.113
655.424
663.852
671.159
680.536
689.259
696.311
699.227
698.489
695.726
692.877
690.888
689.868
690.114
691.897
693.778
695.318
696.335
697.676
698.285
699.732
700.992
703.328
705.368
708.881
712.279
723.213
752.589
845.843
974.061
1011.53
995.263
945.131
962.278
936.013
866.744
770.121
628.753
560.16
541.619
536.857
530.479
527.384
524.743
524.839
526.115
528.107
528.432
525.767
521.04
516.279
512.535
510.193
509.764
511.129
513.358
515.653
517.72
520.108
521.718
524.226
526.536
529.98
533.033
537.872
542.018
554.64
586.622
698.742
855.46
910.564
944.473
941.519
963.868
930.629
846.859
738.808
606.237
546.144
527.995
517.543
503.396
490.222
479.388
472.07
466.414
461.41
455.1
446.223
435.609
425.283
416.655
410.055
405.412
402.266
400.173
398.914
398.212
398.177
398.276
399.026
400.193
402.393
404.93
409.068
413.72
425.622
457.092
574.023
750.11
835.515
908.914
931.767
979.12
935.51
844.944
733.766
607.763
556.391
543.65
536.587
522.74
501.302
479.281
464.111
454.133
447.081
439.856
430.378
418.53
406.227
395.329
386.617
380.184
375.658
372.446
370.059
368.216
366.981
366.171
365.909
366.219
367.577
369.58
372.864
377.009
387.559
417.162
533.365
713.222
805.591
895.894
932.132
996.609
947.908
858.568
746.266
623.009
575.734
567.953
565.521
557.415
535.594
503.244
474.937
457.196
445.763
436.79
426.999
414.833
401.544
389.268
379.203
371.562
365.963
361.875
358.87
356.589
354.961
353.858
353.335
353.443
354.497
356.35
359.363
363.218
373.081
401.51
517.201
698.374
793.151
889.436
930.477
1004.25
955.977
879.685
771.585
655.935
606.202
598.224
598.349
594.742
578.252
544.477
502.839
469.302
449.83
437.665
426.864
414.291
400.38
387.103
375.98
367.449
361.198
356.729
353.579
351.309
349.757
348.723
348.277
348.378
349.299
350.96
353.74
357.228
366.772
394.809
511.189
693.044
787.659
887.116
931.055
994.903
953.052
892.334
797.155
701.796
650.986
637.136
637.104
634.571
624.798
596.423
548.778
496.531
461.205
441.659
428.199
414.785
399.898
385.352
373.002
363.42
356.458
351.631
348.403
346.228
344.837
343.958
343.655
343.844
344.793
346.428
349.154
352.456
361.774
389.378
505.685
688.679
783.893
885.63
930.825
978.341
945.118
893.471
819.61
750.548
706.696
687.613
683.807
678.97
671.93
651.348
607.315
543.517
484.887
450.912
432.143
417.234
401.502
385.775
372.155
361.436
353.597
348.203
344.712
342.489
341.154
340.362
340.148
340.415
341.402
343.06
345.776
348.944
358.179
385.643
502.421
686.354
781.871
885.811
931.944
974.172
949.148
892.452
841.458
795.938
765.974
748.073
739.873
731.33
721.977
706.259
669.404
605.202
526.751
468.321
438.592
420.17
403.464
386.859
372.069
360.236
351.48
345.483
341.704
339.417
338.129
337.411
337.277
337.616
338.647
340.336
343.081
346.193
355.28
382.4
499.047
684.109
780.591
886.229
932.413
930.978
945.788
894.012
864.67
848.363
825.585
814.218
804.862
793.542
778.563
761.642
729.716
671.416
585.437
499.691
449.587
424.641
406.251
388.703
372.817
359.992
350.322
343.653
339.509
337.11
335.84
335.178
335.108
335.508
336.576
338.3
341.098
344.208
353.19
380.051
496.788
682.87
780.181
887.266
933.353
935.155
936.34
874.94
854.345
868.445
888.612
887.841
875.065
865.365
845.424
821.757
789.17
735.85
651.691
546.998
468.105
430.203
408.648
390.295
373.659
359.901
349.359
342.018
337.507
335.009
333.779
333.191
333.198
333.669
334.795
336.575
339.477
342.667
351.526
377.969
494.325
681.656
780.099
888.543
934
967.864
956.136
929.791
894.6
885.66
910.139
942.339
957.852
943.358
921.534
890.996
850.919
796.826
716.247
604.181
497.097
438.664
411.485
392.019
374.748
360.19
348.85
340.838
335.93
333.315
332.124
331.615
331.709
332.241
333.431
335.275
338.302
341.61
350.413
376.531
492.862
681.533
781.083
890.548
935.093
957.226
907.537
904.602
915.875
944.746
971.146
991.103
1019.69
1021.6
1006.7
969.203
919.089
856.875
775.868
662.957
535.45
451.123
414.368
393.251
375.628
360.549
348.528
339.872
334.572
331.841
330.686
330.265
330.456
331.037
332.287
334.197
337.371
340.821
349.491
375.172
490.907
680.957
781.912
892.128
935.522
962.655
886.904
843.692
853.045
901.52
984.613
1056.04
1090.63
1107.93
1088.01
1054.07
995.422
919.777
831.269
716.978
577.423
468.01
418.15
394.497
376.553
361.109
348.508
339.244
333.56
330.712
329.592
329.253
329.534
330.164
331.473
333.452
336.779
340.368
348.956
374.279
489.72
681.304
783.921
894.728
936.382
957.886
872.492
792.938
791.783
832.718
910.238
1056.46
1120.26
1173.44
1180.78
1144.23
1075.08
984.738
883.341
763.563
616.517
486.892
422.472
395.463
377.283
361.689
348.635
338.843
332.807
329.856
328.77
328.5
328.856
329.528
330.885
332.921
336.388
340.088
348.574
373.583
488.559
681.401
786.102
896.859
936.746
949.894
841.311
735.494
670.012
642.526
733.208
1019.66
1213.1
1242.26
1257.33
1227.53
1153.39
1048.09
931.323
802.566
648.885
504.484
426.939
396.272
377.888
362.282
348.881
338.627
332.289
329.259
328.209
327.994
328.405
329.11
330.507
332.589
336.174
339.942
348.343
373.13
487.709
681.597
789.103
898.965
936.794
946.784
850.72
767.02
652.808
590.31
643.257
1022.4
1332.61
1336.88
1329.95
1297.41
1214.85
1097.98
970.297
832.806
671.945
517.246
430.401
396.813
378.271
362.792
349.137
338.517
331.965
328.896
327.879
327.704
328.15
328.875
330.3
332.413
336.078
339.881
348.201
372.858
487.047
681.479
792.914
900.318
936.195
)
;

boundaryField
{
    inlet
    {
        type            fixedValue;
        value           uniform 10000;
    }
    outlet
    {
        type            fixedValue;
        value           uniform 1000;
    }
    obstacle
    {
        type            zeroGradient;
    }
    empty
    {
        type            empty;
    }
}


// ************************************************************************* //
