/*--------------------------------*- C++ -*----------------------------------*\
| =========                 |                                                 |
| \\      /  F ield         | OpenFOAM: The Open Source CFD Toolbox           |
|  \\    /   O peration     | Version:  v1912                                 |
|   \\  /    A nd           | Website:  www.openfoam.com                      |
|    \\/     M anipulation  |                                                 |
\*---------------------------------------------------------------------------*/
FoamFile
{
    version     2.0;
    format      ascii;
    class       volScalarField;
    location    "0.34";
    object      T;
}
// * * * * * * * * * * * * * * * * * * * * * * * * * * * * * * * * * * * * * //

dimensions      [0 0 0 1 0 0 0];


internalField   nonuniform List<scalar> 
4800
(
16.9751
12.7454
12.6298
12.7694
12.9532
13.1872
13.4536
13.746
14.0564
14.3821
14.727
15.0996
15.5096
15.9632
16.4512
16.9462
17.4057
17.7844
18.0551
18.2159
18.2908
18.3147
18.3114
18.2862
18.2393
18.192
18.1592
18.1411
18.139
18.1473
18.1666
18.1906
18.21
18.2205
18.2231
18.2135
18.1934
18.1678
18.1405
18.1093
16.9746
12.7425
12.6318
12.7724
12.9601
13.1942
13.4599
13.7508
14.0597
14.3843
14.7286
15.0999
15.5085
15.9592
16.4439
16.9363
17.3941
17.7724
18.0434
18.2063
18.2852
18.312
18.3127
18.2915
18.2493
18.2042
18.1699
18.1483
18.1439
18.1488
18.1644
18.1848
18.2025
18.2136
18.2186
18.2115
18.1941
18.17
18.147
18.1229
16.975
12.7381
12.6343
12.7763
12.968
13.2039
13.4685
13.7575
14.0648
14.3889
14.7321
15.1024
15.5083
15.9542
16.4342
16.9233
17.3796
17.7585
18.0315
18.1984
18.2819
18.3114
18.3147
18.2968
18.2597
18.2179
18.1823
18.1561
18.1464
18.1484
18.1601
18.1772
18.1929
18.2059
18.2128
18.209
18.1954
18.1746
18.1541
18.1313
16.9757
12.7336
12.637
12.7804
12.977
13.215
13.4792
13.7669
14.0734
14.3965
14.7382
15.1059
15.508
15.9487
16.4231
16.9082
17.3624
17.7411
18.0154
18.1858
18.2742
18.3089
18.3167
18.3042
18.2741
18.2354
18.1968
18.1657
18.1504
18.1481
18.155
18.1686
18.1826
18.1967
18.2047
18.2042
18.1962
18.1793
18.1602
18.1375
16.9768
12.7306
12.6394
12.7833
12.9832
13.2232
13.4886
13.7769
14.084
14.4073
14.7481
15.112
15.5085
15.9444
16.4146
16.896
17.3479
17.7258
18
18.1717
18.2632
18.3069
18.3201
18.3114
18.2876
18.252
18.2118
18.1766
18.155
18.1485
18.1523
18.1614
18.1743
18.1871
18.1956
18.1971
18.1937
18.1817
18.1645
18.1414
16.9783
12.7294
12.6417
12.7849
12.9857
13.2274
13.4952
13.7862
14.0961
14.4212
14.7607
15.1205
15.5111
15.9424
16.4097
16.8895
17.3399
17.7162
17.9884
18.1577
18.2529
18.3051
18.3191
18.314
18.2961
18.2644
18.2253
18.188
18.1623
18.1521
18.1529
18.1588
18.1683
18.1789
18.1867
18.1888
18.1884
18.1808
18.166
18.1438
16.9796
12.7296
12.6443
12.7864
12.9858
13.2277
13.4979
13.7939
14.1085
14.4363
14.7751
15.1309
15.5161
15.9426
16.4081
16.8876
17.3382
17.7133
17.9832
18.1476
18.2446
18.3
18.315
18.3131
18.2992
18.2717
18.2358
18.1987
18.1714
18.1586
18.1567
18.1595
18.1652
18.1723
18.178
18.1802
18.1815
18.1771
18.1654
18.1455
16.98
12.7293
12.6477
12.7886
12.9846
13.2253
13.4981
13.8003
14.1202
14.4509
14.7897
15.1425
15.5233
15.9452
16.409
16.8892
17.3409
17.715
17.9829
18.143
18.2402
18.2928
18.3089
18.3084
18.2967
18.2731
18.2408
18.2072
18.1816
18.1678
18.1637
18.1631
18.1645
18.1676
18.1705
18.172
18.1726
18.1706
18.1621
18.1459
16.9796
12.7289
12.6519
12.7909
12.9829
13.2233
13.4999
13.8065
14.1307
14.4641
14.8029
15.1539
15.5316
15.9503
16.4115
16.8918
17.3448
17.7186
17.9852
18.1437
18.24
18.2873
18.3011
18.2992
18.2889
18.2692
18.2418
18.2138
18.1918
18.1781
18.1711
18.1671
18.1646
18.1638
18.1644
18.1639
18.1637
18.1632
18.1578
18.1455
16.9785
12.7274
12.6566
12.7936
12.9825
13.2237
13.5036
13.8132
14.14
14.4745
14.8134
15.1634
15.5393
15.9556
16.4141
16.8929
17.3465
17.7215
17.9886
18.1489
18.2429
18.2851
18.2919
18.2891
18.28
18.264
18.2423
18.22
18.2011
18.187
18.1767
18.1685
18.1635
18.1592
18.158
18.1559
18.1552
18.1556
18.1534
18.1447
16.9768
12.7245
12.6619
12.7976
12.984
13.2263
13.5092
13.8208
14.1481
14.482
14.8205
15.1708
15.5463
15.9607
16.4161
16.8926
17.3458
17.7226
17.9913
18.1552
18.2472
18.2818
18.2841
18.2818
18.2747
18.2615
18.2439
18.2259
18.2091
18.1944
18.1804
18.1681
18.1587
18.1524
18.1494
18.1474
18.1477
18.1489
18.1485
18.1426
16.9745
12.7187
12.6671
12.8029
12.9882
13.2328
13.5181
13.8302
14.1555
14.4869
14.8241
15.174
15.5495
15.9631
16.4168
16.8908
17.3428
17.7217
17.9921
18.1595
18.2473
18.2795
18.2809
18.2797
18.2743
18.2632
18.2483
18.2321
18.217
18.2007
18.182
18.1645
18.1499
18.141
18.1371
18.1373
18.1392
18.1421
18.1435
18.1395
16.9723
12.7096
12.671
12.8093
12.9968
13.2456
13.5321
13.8418
14.1621
14.4889
14.8231
15.1721
15.5486
15.9629
16.4154
16.8863
17.3362
17.7165
17.9913
18.1582
18.2452
18.2799
18.283
18.2831
18.2785
18.2677
18.2541
18.2395
18.2243
18.2058
18.1832
18.1596
18.1378
18.1252
18.1216
18.1235
18.1292
18.1354
18.1382
18.1347
16.9699
12.6977
12.6742
12.8168
13.0104
13.2643
13.5496
13.8541
14.1672
14.4874
14.8181
15.167
15.5447
15.9601
16.4117
16.88
17.328
17.7087
17.9872
18.1547
18.2426
18.2822
18.2892
18.2899
18.2842
18.2752
18.2619
18.2466
18.23
18.2102
18.1839
18.1543
18.1258
18.1086
18.1043
18.1078
18.1168
18.1266
18.131
18.127
16.9675
12.684
12.6767
12.8247
13.0277
13.2872
13.5699
13.8665
14.17
14.4826
14.8091
15.1573
15.5369
15.9543
16.4066
16.8737
17.3188
17.6986
17.9802
18.1508
18.2412
18.2856
18.298
18.3003
18.2945
18.2834
18.2678
18.2505
18.2336
18.2121
18.1835
18.1501
18.1178
18.0955
18.0888
18.0931
18.104
18.1166
18.122
18.1174
16.9655
12.6704
12.6769
12.8336
13.0475
13.312
13.5906
13.8777
14.1707
14.4751
14.7967
15.1444
15.5261
15.9463
16.4004
16.8679
17.3111
17.6898
17.9725
18.1476
18.2418
18.2904
18.3076
18.3125
18.3047
18.2889
18.269
18.2497
18.2326
18.2116
18.1831
18.1488
18.1152
18.0889
18.079
18.0828
18.0922
18.1039
18.1094
18.1045
16.9642
12.6607
12.6741
12.8419
13.0671
13.335
13.6085
13.886
14.1692
14.4652
14.7824
15.1295
15.5133
15.9367
16.3934
16.8617
17.3039
17.6834
17.9659
18.1457
18.2444
18.2977
18.3203
18.3242
18.3128
18.2899
18.2651
18.2454
18.2283
18.2098
18.185
18.1525
18.1195
18.0888
18.0756
18.0769
18.0818
18.0898
18.0939
18.0895
16.9635
12.6574
12.6724
12.8477
13.0832
13.3534
13.6216
13.8905
14.1658
14.4547
14.7678
15.1141
15.4998
15.9267
16.386
16.8552
17.2983
17.6781
17.9626
18.1467
18.2496
18.3067
18.3328
18.3338
18.3177
18.2877
18.2582
18.2371
18.2217
18.2085
18.1899
18.162
18.1318
18.0993
18.08
18.0749
18.0751
18.0771
18.0776
18.0733
16.9637
12.6629
12.6732
12.8503
13.0931
13.3647
13.6288
13.8917
14.1603
14.4438
14.7534
15.0994
15.4876
15.9175
16.3787
16.8486
17.293
17.6738
17.9625
18.151
18.2579
18.3166
18.3437
18.3414
18.3206
18.2844
18.2489
18.2268
18.2145
18.2064
18.1951
18.1756
18.1491
18.1195
18.0927
18.078
18.0693
18.0642
18.0602
18.056
16.9658
12.6774
12.6749
12.8495
13.0962
13.3682
13.6299
13.8888
14.1529
14.4329
14.7406
15.0871
15.4779
15.9098
16.3717
16.8421
17.2877
17.6716
17.9647
18.1579
18.2681
18.3264
18.3523
18.3477
18.3233
18.2832
18.2433
18.218
18.2073
18.2034
18.1988
18.1884
18.1695
18.143
18.1112
18.0849
18.0649
18.0518
18.0429
18.0382
16.9706
12.6989
12.6742
12.8476
13.0926
13.3643
13.6245
13.8818
14.1445
14.4231
14.7309
15.0787
15.4707
15.9029
16.3649
16.8355
17.2827
17.6709
17.9689
18.1665
18.278
18.3346
18.3591
18.354
18.3284
18.286
18.243
18.2136
18.2017
18.2003
18.2006
18.1984
18.1891
18.1665
18.1312
18.0941
18.0635
18.0417
18.0272
18.02
16.9772
12.7262
12.6741
12.8438
13.0833
13.3545
13.6151
13.8728
14.136
14.4156
14.7244
15.0729
15.4648
15.8966
16.3578
16.8288
17.2785
17.6718
17.9744
18.1759
18.2873
18.3413
18.3649
18.3618
18.3369
18.2938
18.2478
18.2136
18.1986
18.1973
18.2021
18.2059
18.2042
18.1877
18.15
18.104
18.0661
18.0349
18.0155
18.0077
16.9845
12.7564
12.6743
12.8386
13.0708
13.3406
13.6026
13.8629
14.1284
14.4107
14.7211
15.0693
15.4596
15.8898
16.3503
16.8221
17.2751
17.6727
17.9803
18.1841
18.2954
18.347
18.3707
18.3707
18.3481
18.3062
18.2588
18.2192
18.1994
18.1979
18.204
18.212
18.2142
18.202
18.1656
18.1151
18.0703
18.0331
18.0126
18.0046
16.9919
12.7863
12.6744
12.8326
13.0574
13.3244
13.5888
13.8531
14.1227
14.4085
14.7202
15.0674
15.4549
15.8822
16.3412
16.8142
17.2709
17.6728
17.9846
18.1907
18.3025
18.3515
18.375
18.3793
18.3611
18.323
18.2754
18.2321
18.2064
18.2013
18.2064
18.2159
18.2194
18.2094
18.1771
18.1269
18.0764
18.0379
18.0183
18.0081
16.9991
12.8147
12.6742
12.827
13.0447
13.3084
13.5751
13.844
14.1188
14.4084
14.7217
15.0672
15.4513
15.8752
16.3327
16.8067
17.2667
17.6726
17.9879
18.1959
18.3082
18.3554
18.3776
18.3847
18.3718
18.3394
18.295
18.2508
18.2196
18.209
18.2107
18.2174
18.2201
18.2121
18.1847
18.1386
18.0865
18.0496
18.0276
18.0112
17.0058
12.8405
12.6737
12.8222
13.0341
13.2942
13.5628
13.8359
14.1158
14.4095
14.7242
15.0685
15.4496
15.8712
16.3278
16.8029
17.265
17.6731
17.9902
18.1989
18.3115
18.3576
18.3772
18.3859
18.38
18.3558
18.3162
18.273
18.2379
18.2197
18.2155
18.2172
18.2174
18.2107
18.1884
18.1486
18.1025
18.0662
18.0375
18.0132
17.0117
12.8625
12.673
12.8189
13.0261
13.2833
13.5526
13.8289
14.1129
14.4101
14.7268
15.071
15.4504
15.8704
16.3269
16.8027
17.2654
17.6742
17.9912
18.1997
18.3117
18.358
18.3747
18.3832
18.3837
18.3683
18.3364
18.2975
18.2599
18.2336
18.2215
18.2162
18.2134
18.2062
18.1888
18.159
18.1215
18.0817
18.046
18.0156
17.0161
12.8804
12.6718
12.817
13.0203
13.276
13.5453
13.8229
14.1099
14.4105
14.7298
15.075
15.4542
15.8735
16.3293
16.8045
17.2667
17.675
17.991
18.1987
18.31
18.3563
18.371
18.3783
18.3839
18.3764
18.3539
18.3209
18.2828
18.2492
18.2279
18.2169
18.2088
18.2013
18.1892
18.1693
18.1373
18.0929
18.0522
18.0181
17.0188
12.8936
12.6684
12.8151
13.0168
13.2717
13.5405
13.818
14.1061
14.4088
14.7307
15.0789
15.4606
15.8809
16.3357
16.8093
17.27
17.6762
17.9902
18.1964
18.3072
18.3534
18.3676
18.3727
18.3809
18.3807
18.3675
18.3409
18.304
18.266
18.2368
18.2194
18.2052
18.1977
18.1906
18.1768
18.147
18.0997
18.0558
18.0199
17.0199
12.9023
12.6637
12.8122
13.0149
13.2695
13.5369
13.8131
14.1011
14.4054
14.7303
15.0828
15.4686
15.8909
16.3454
16.8176
17.2753
17.6775
17.9889
18.1939
18.3044
18.351
18.3646
18.3682
18.3773
18.3826
18.3756
18.355
18.3213
18.2824
18.2479
18.2241
18.2048
18.197
18.1923
18.1798
18.1501
18.1023
18.0586
18.022
17.0199
12.9073
12.6589
12.8089
13.0136
13.2676
13.5329
13.8072
14.0947
14.4009
14.73
15.0874
15.4771
15.9019
16.3572
16.8267
17.2802
17.6785
17.9877
18.192
18.3029
18.3502
18.3633
18.3663
18.3751
18.3816
18.3787
18.3627
18.3326
18.2956
18.26
18.2329
18.2095
18.1996
18.1926
18.1781
18.1473
18.1006
18.0589
18.0245
17.0188
12.909
12.6537
12.8067
13.0128
13.2654
13.5282
13.8005
14.0874
14.395
14.7275
15.0894
15.4844
15.9132
16.3691
16.8359
17.2853
17.6798
17.9869
18.1913
18.3031
18.351
18.364
18.3669
18.3743
18.3797
18.3784
18.3654
18.3384
18.3047
18.2717
18.2457
18.2204
18.2055
18.192
18.1723
18.1391
18.0947
18.0563
18.0259
17.0169
12.9074
12.6472
12.8045
13.0126
13.2632
13.5233
13.7937
14.0796
14.388
14.7235
15.0903
15.4914
15.9234
16.3794
16.8439
17.2899
17.6813
17.9869
18.1918
18.3052
18.3546
18.3684
18.3714
18.3761
18.3793
18.3768
18.3646
18.341
18.3116
18.2831
18.2596
18.2342
18.213
18.1913
18.1644
18.1279
18.086
18.0503
18.0252
17.0142
12.903
12.6398
12.8025
13.0129
13.2608
13.5182
13.7868
14.0722
14.3812
14.72
15.0922
15.4967
15.9308
16.3869
16.8499
17.2937
17.6826
17.9873
18.1933
18.3091
18.3607
18.3762
18.3788
18.3804
18.38
18.3751
18.3626
18.342
18.3177
18.2944
18.273
18.2477
18.2204
18.1909
18.1569
18.117
18.0767
18.0448
18.0228
17.011
12.897
12.6327
12.8006
13.0121
13.2566
13.5119
13.7799
14.0656
14.376
14.7176
15.0925
15.4997
15.9353
16.3916
16.8536
17.2954
17.683
17.9876
18.1948
18.3132
18.3672
18.3844
18.387
18.3859
18.3821
18.3737
18.3603
18.3429
18.3239
18.3048
18.2844
18.2589
18.2258
18.1897
18.1506
18.109
18.07
18.041
18.0214
17.0079
12.8911
12.6264
12.7985
13.0097
13.2512
13.5048
13.7732
14.0604
14.3729
14.7165
15.0931
15.5018
15.9381
16.3944
16.8551
17.2953
17.6822
17.9871
18.1956
18.3163
18.3725
18.3916
18.3947
18.392
18.3852
18.3738
18.3596
18.3447
18.3306
18.314
18.2935
18.2655
18.2298
18.1875
18.1457
18.1049
18.0687
18.0408
18.0204
17.0053
12.8864
12.6213
12.7958
13.0053
13.2447
13.4978
13.7676
14.0571
14.3718
14.7169
15.0948
15.5041
15.9407
16.3959
16.8551
17.2941
17.6802
17.9846
18.1942
18.3169
18.3751
18.396
18.4004
18.3972
18.3882
18.3748
18.3603
18.3482
18.3376
18.3222
18.3005
18.2693
18.2294
18.1865
18.1415
18.103
18.0709
18.0438
18.0206
17.0036
12.8837
12.6172
12.7927
12.9998
13.238
13.4919
13.7637
14.0556
14.3721
14.719
15.0982
15.5079
15.9435
16.3976
16.8552
17.2926
17.6772
17.9807
18.1904
18.3145
18.3743
18.3973
18.4035
18.4002
18.3899
18.3751
18.3619
18.3525
18.3432
18.3301
18.306
18.271
18.2279
18.1848
18.14
18.1024
18.074
18.0485
18.0215
17.0031
12.8826
12.6143
12.7897
12.9946
13.2328
13.4882
13.7617
14.0551
14.3728
14.7213
15.1019
15.5118
15.9468
16.3995
16.8553
17.2909
17.674
17.9769
18.1868
18.3114
18.3718
18.3965
18.4042
18.4015
18.3908
18.3751
18.3632
18.3559
18.3471
18.3357
18.3091
18.2705
18.2251
18.181
18.1383
18.101
18.0772
18.0544
18.0239
17.0028
12.8829
12.6119
12.7868
12.989
13.228
13.4853
13.7607
14.0554
14.3747
14.7243
15.1056
15.5164
15.9512
16.4022
16.8561
17.2899
17.6717
17.9739
18.1836
18.3086
18.3694
18.3951
18.4038
18.4015
18.3905
18.375
18.3634
18.3571
18.3494
18.3385
18.3121
18.2728
18.2273
18.1823
18.1396
18.1004
18.0791
18.0573
18.0241
18.1269
18.1027
18.0704
18.0291
17.9864
17.9458
17.909
17.8736
17.8341
17.7876
17.7426
17.7044
17.6807
17.6718
17.6704
17.6728
17.6741
17.6681
17.652
17.6383
17.6304
17.6193
17.5984
17.5806
17.5544
17.5312
17.5137
17.5026
17.5079
17.518
17.5222
17.5163
17.4952
17.4596
17.4208
17.3982
17.3987
17.4284
17.469
17.5056
17.5234
17.5178
17.4821
17.4501
17.4359
17.4424
17.469
17.4872
17.4821
17.4561
17.4085
17.3731
17.3618
17.3858
17.4333
17.4658
17.4667
17.4406
17.3936
17.3464
17.3187
17.3202
17.3207
17.3158
17.2948
17.2595
17.2347
17.2251
17.2426
17.2927
17.3428
17.3708
17.3761
17.3582
17.3269
17.3035
17.295
17.3024
17.3189
17.3363
18.1152
18.0906
18.0642
18.0255
17.9857
17.9468
17.9095
17.8719
17.8303
17.7835
17.738
17.7017
17.68
17.6717
17.672
17.6739
17.6719
17.6663
17.6555
17.6471
17.6395
17.6283
17.6077
17.5837
17.557
17.5326
17.5125
17.5043
17.5077
17.5126
17.5134
17.5054
17.4825
17.4517
17.4217
17.4085
17.4149
17.4425
17.4765
17.5066
17.513
17.4984
17.4693
17.4466
17.4396
17.4524
17.4685
17.4792
17.4711
17.4413
17.4044
17.3775
17.3758
17.4019
17.438
17.4605
17.4549
17.4253
17.3846
17.3499
17.3278
17.3217
17.3204
17.3117
17.2899
17.2628
17.2433
17.2445
17.2675
17.3022
17.3402
17.3608
17.3588
17.3435
17.3247
17.3119
17.3103
17.3209
17.3429
17.3641
18.1156
18.0902
18.0641
18.0268
17.9908
17.9539
17.9168
17.8769
17.8333
17.7852
17.7388
17.7019
17.6779
17.6679
17.6682
17.6705
17.6711
17.6688
17.6636
17.656
17.6472
17.6335
17.6115
17.5859
17.562
17.5371
17.5184
17.5089
17.5038
17.4999
17.4965
17.4897
17.4729
17.452
17.4402
17.4341
17.4328
17.4455
17.4679
17.4853
17.4861
17.4814
17.4694
17.4554
17.4558
17.4594
17.4571
17.4603
17.4519
17.4325
17.4094
17.3969
17.3976
17.4116
17.4294
17.444
17.4404
17.4193
17.392
17.3647
17.336
17.3191
17.3141
17.3029
17.29
17.2766
17.2685
17.2762
17.2903
17.3033
17.3213
17.3358
17.3384
17.3344
17.3313
17.3285
17.3347
17.3507
17.37
17.3873
18.116
18.0897
18.0646
18.0301
17.9977
17.9615
17.9233
17.8816
17.8363
17.7879
17.7417
17.7029
17.6761
17.6635
17.6625
17.6675
17.6738
17.6765
17.674
17.6669
17.656
17.6411
17.6181
17.5914
17.5675
17.5459
17.5267
17.508
17.4918
17.481
17.4762
17.4736
17.4686
17.4628
17.466
17.4588
17.4475
17.4458
17.4492
17.4519
17.4591
17.4705
17.4745
17.4721
17.4671
17.4567
17.4419
17.4327
17.4311
17.4271
17.4232
17.4241
17.4182
17.4156
17.4153
17.4203
17.4231
17.4184
17.4019
17.3732
17.3408
17.32
17.3036
17.2971
17.2934
17.2955
17.3067
17.3099
17.3062
17.303
17.2984
17.3038
17.3157
17.3251
17.3359
17.3515
17.3705
17.3861
17.3954
17.4091
18.1184
18.0944
18.0706
18.0383
18.0055
17.9676
17.9279
17.8858
17.8405
17.7927
17.7478
17.7083
17.6779
17.6612
17.6587
17.6666
17.6795
17.6875
17.6846
17.6762
17.6648
17.6462
17.6211
17.595
17.5744
17.5551
17.5307
17.5024
17.4776
17.4627
17.4592
17.4643
17.4716
17.4853
17.4917
17.4786
17.4571
17.4379
17.4205
17.419
17.4377
17.4636
17.4843
17.4896
17.4763
17.4507
17.4202
17.4079
17.4155
17.4314
17.4478
17.4506
17.4363
17.4142
17.3987
17.3967
17.4114
17.4205
17.4087
17.38
17.3458
17.3142
17.2944
17.2938
17.3023
17.3276
17.3424
17.3349
17.3201
17.2957
17.2772
17.278
17.2963
17.3247
17.3531
17.3815
17.3995
17.4085
17.4112
17.4222
18.121
18.0983
18.0754
18.0458
18.0114
17.9714
17.9308
17.8896
17.8454
17.7994
17.7554
17.7145
17.6822
17.6637
17.6582
17.6688
17.6882
17.6977
17.6945
17.6867
17.6708
17.6472
17.622
17.5997
17.5817
17.5596
17.5289
17.4935
17.4645
17.4476
17.4502
17.4615
17.4864
17.5073
17.5094
17.4898
17.4582
17.4202
17.3953
17.3992
17.4232
17.4664
17.4945
17.4992
17.4803
17.4358
17.4026
17.3928
17.4096
17.4435
17.4678
17.4664
17.4466
17.4084
17.3849
17.3817
17.404
17.4205
17.4106
17.3817
17.3459
17.3078
17.2906
17.2931
17.3213
17.3528
17.3616
17.3501
17.3214
17.2866
17.2664
17.2662
17.2862
17.328
17.3708
17.3987
17.412
17.4141
17.4131
17.4229
18.1238
18.102
18.0795
18.0493
18.0136
17.9729
17.9327
17.8931
17.8505
17.8068
17.763
17.722
17.6894
17.6707
17.6662
17.6776
17.697
17.7068
17.7036
17.6921
17.6709
17.6463
17.6208
17.6013
17.5839
17.5576
17.5244
17.4861
17.454
17.4413
17.4495
17.467
17.5015
17.5201
17.5186
17.4942
17.4501
17.4017
17.3801
17.3878
17.4222
17.472
17.4994
17.501
17.4765
17.4249
17.3957
17.3914
17.4121
17.4559
17.4776
17.4739
17.4502
17.4057
17.379
17.3785
17.3999
17.412
17.404
17.3767
17.3392
17.3063
17.2947
17.306
17.3398
17.3641
17.3662
17.3542
17.3189
17.2828
17.2682
17.2694
17.2939
17.3358
17.3744
17.397
17.4047
17.4051
17.4046
17.4136
18.127
18.1061
18.0822
18.0497
18.0137
17.9731
17.9343
17.8966
17.8565
17.8148
17.7727
17.7335
17.7026
17.6843
17.6811
17.6877
17.7027
17.7103
17.7075
17.6927
17.6677
17.6433
17.6181
17.5978
17.5789
17.5491
17.5186
17.4798
17.4508
17.4441
17.4564
17.4809
17.5111
17.5262
17.5189
17.4884
17.4357
17.3915
17.375
17.3834
17.4244
17.4736
17.4954
17.495
17.466
17.4231
17.4011
17.4036
17.4258
17.4605
17.4793
17.473
17.4464
17.4098
17.3841
17.3845
17.3933
17.3942
17.3862
17.3609
17.3292
17.3089
17.3054
17.3252
17.3483
17.3602
17.3591
17.343
17.3133
17.2873
17.2784
17.2917
17.3154
17.3398
17.3617
17.3774
17.3834
17.3866
17.39
17.399
18.1294
18.1087
18.0823
18.0481
18.0118
17.9729
17.9368
17.9012
17.8637
17.8244
17.7855
17.7501
17.7226
17.7037
17.6962
17.6992
17.7059
17.709
17.7044
17.6891
17.664
17.6385
17.6123
17.5878
17.5659
17.5378
17.5093
17.4771
17.4572
17.4552
17.4697
17.4925
17.5149
17.5239
17.5112
17.4723
17.4248
17.3908
17.3764
17.3878
17.4258
17.4659
17.4824
17.4774
17.4586
17.4323
17.4191
17.4267
17.4405
17.4566
17.4707
17.4648
17.4416
17.4187
17.4008
17.3912
17.3799
17.37
17.3582
17.3419
17.3244
17.3198
17.328
17.341
17.3467
17.3456
17.3393
17.3234
17.3102
17.2984
17.3014
17.3174
17.331
17.3399
17.3442
17.349
17.3568
17.3661
17.3745
17.3834
18.1297
18.1086
18.0802
18.0452
18.0093
17.9729
17.9395
17.9065
17.8723
17.8371
17.8033
17.7726
17.7462
17.7252
17.7114
17.7091
17.7084
17.7042
17.6962
17.6808
17.6597
17.6324
17.6012
17.5739
17.5508
17.5282
17.5034
17.4812
17.4707
17.4724
17.4845
17.5005
17.5119
17.5119
17.492
17.4572
17.4227
17.3966
17.39
17.4022
17.4235
17.4475
17.4597
17.457
17.4549
17.4502
17.4479
17.4501
17.4528
17.4488
17.4536
17.4546
17.4448
17.435
17.4206
17.3953
17.366
17.3372
17.3262
17.3256
17.3248
17.3386
17.3492
17.3474
17.3386
17.3244
17.3114
17.3036
17.3047
17.3151
17.3281
17.3373
17.343
17.3409
17.3329
17.3303
17.3338
17.344
17.3542
17.3616
18.1283
18.1067
18.0771
18.0418
18.0067
17.9726
17.941
17.9107
17.8808
17.8512
17.8232
17.7957
17.7687
17.744
17.7252
17.7158
17.7082
17.6962
17.6849
17.6725
17.6536
17.624
17.5896
17.559
17.538
17.5187
17.5031
17.4937
17.4898
17.4929
17.4979
17.5062
17.5031
17.491
17.4713
17.4475
17.4245
17.4143
17.4123
17.4139
17.4155
17.4197
17.4303
17.4412
17.4592
17.4773
17.4789
17.4702
17.4556
17.4375
17.4358
17.4448
17.4525
17.4543
17.4354
17.3963
17.3483
17.3079
17.2996
17.3123
17.3371
17.36
17.3627
17.3477
17.327
17.2991
17.2875
17.29
17.3064
17.3342
17.3489
17.3501
17.3437
17.3354
17.3256
17.3221
17.3245
17.3288
17.3328
17.3362
18.1256
18.1033
18.073
18.0377
18.0033
17.9706
17.9405
17.9131
17.8883
17.8643
17.8406
17.8144
17.787
17.7589
17.7352
17.7187
17.7045
17.6868
17.6759
17.6653
17.6461
17.6148
17.5793
17.5486
17.526
17.5134
17.5083
17.5079
17.5125
17.5117
17.508
17.5034
17.4861
17.4692
17.4561
17.4454
17.4402
17.438
17.4291
17.4161
17.4002
17.3914
17.4024
17.4327
17.473
17.4999
17.5023
17.483
17.4504
17.4273
17.4201
17.442
17.4643
17.4665
17.4396
17.3932
17.3314
17.2933
17.2853
17.3106
17.354
17.3747
17.3687
17.346
17.3081
17.2812
17.2724
17.2835
17.3128
17.3427
17.3588
17.3563
17.3455
17.3326
17.3255
17.3225
17.3224
17.324
17.3238
17.3244
18.121
18.0979
18.0675
18.0321
17.9974
17.9662
17.9386
17.915
17.8941
17.8737
17.852
17.8263
17.7972
17.7662
17.7395
17.7188
17.7012
17.6786
17.6694
17.6586
17.6382
17.6053
17.5725
17.5399
17.5184
17.5124
17.5175
17.5293
17.5318
17.5257
17.5134
17.4943
17.467
17.4528
17.4508
17.4542
17.4586
17.4551
17.4378
17.4096
17.3828
17.372
17.3831
17.4302
17.483
17.51
17.5122
17.4886
17.4452
17.4212
17.4132
17.4409
17.4676
17.4643
17.4327
17.3821
17.3233
17.2926
17.2885
17.3225
17.3635
17.3767
17.3638
17.3377
17.2968
17.2747
17.2697
17.2862
17.3179
17.3426
17.3581
17.3553
17.3483
17.3384
17.3311
17.327
17.3218
17.3174
17.3108
17.3076
18.1129
18.0891
18.0586
18.0235
17.9891
17.9604
17.9363
17.9159
17.8972
17.8778
17.856
17.8306
17.801
17.7704
17.7445
17.7221
17.6983
17.6759
17.6642
17.6507
17.6293
17.5988
17.5647
17.5353
17.5197
17.5158
17.5323
17.5471
17.5429
17.5337
17.5134
17.4799
17.4549
17.4437
17.452
17.4651
17.4718
17.4621
17.4407
17.4012
17.3713
17.3635
17.3792
17.431
17.4833
17.5076
17.5084
17.4845
17.443
17.4187
17.4143
17.436
17.4545
17.4478
17.4146
17.3684
17.3258
17.3051
17.3177
17.3438
17.3626
17.3664
17.3516
17.3254
17.296
17.2794
17.2801
17.296
17.3178
17.3384
17.3481
17.3495
17.3509
17.3483
17.34
17.3306
17.3193
17.3075
17.2944
17.2877
18.1017
18.0773
18.047
18.0127
17.9795
17.9529
17.9338
17.9164
17.8976
17.8772
17.8547
17.829
17.8016
17.7742
17.7486
17.7256
17.6986
17.6749
17.6577
17.6408
17.6183
17.59
17.5597
17.5378
17.5286
17.5288
17.5474
17.558
17.5481
17.5333
17.5049
17.469
17.4504
17.4428
17.4577
17.4735
17.4769
17.4592
17.4355
17.3942
17.369
17.3685
17.3903
17.4313
17.4739
17.493
17.4902
17.4758
17.4467
17.4274
17.425
17.4262
17.4242
17.416
17.3894
17.3594
17.3401
17.3416
17.3548
17.3569
17.3501
17.3438
17.331
17.3147
17.3032
17.2955
17.2977
17.3056
17.317
17.3274
17.3362
17.3458
17.3525
17.3532
17.3447
17.3289
17.3097
17.2922
17.2778
17.2715
18.0885
18.0645
18.035
18.0021
17.9734
17.9504
17.9328
17.9156
17.8963
17.8737
17.8496
17.824
17.8005
17.7786
17.7568
17.7303
17.7009
17.6734
17.65
17.6293
17.6045
17.5828
17.5612
17.5502
17.5461
17.548
17.5575
17.5584
17.5432
17.5222
17.4926
17.4645
17.4507
17.4488
17.4632
17.4746
17.4692
17.449
17.4228
17.3924
17.3771
17.3841
17.4043
17.4256
17.4534
17.4672
17.4694
17.4678
17.4569
17.4469
17.4333
17.4075
17.3832
17.3705
17.3619
17.3545
17.3707
17.3887
17.3882
17.3662
17.3361
17.3172
17.3095
17.3084
17.3121
17.3192
17.3184
17.3165
17.3138
17.3163
17.3259
17.3389
17.3483
17.3481
17.3362
17.3157
17.2938
17.2786
17.2692
17.2665
18.0744
18.0515
18.0243
17.997
17.9732
17.9525
17.9339
17.9145
17.8936
17.8683
17.8427
17.8188
17.8
17.7829
17.7627
17.7341
17.7019
17.6694
17.6393
17.6148
17.5933
17.58
17.5717
17.5726
17.5721
17.5681
17.5599
17.5488
17.5275
17.5036
17.4816
17.4661
17.4561
17.459
17.4644
17.4649
17.454
17.4308
17.4112
17.3984
17.3966
17.4044
17.4184
17.4241
17.4266
17.4375
17.4514
17.4658
17.4752
17.465
17.4341
17.3885
17.3399
17.3234
17.3352
17.3676
17.4082
17.4259
17.4087
17.3707
17.3227
17.2949
17.2922
17.3065
17.3296
17.343
17.3392
17.3254
17.3126
17.3103
17.3179
17.329
17.3344
17.3293
17.3151
17.2977
17.282
17.2728
17.2695
17.2703
18.0603
18.0403
18.0183
17.9977
17.9771
17.9565
17.9347
17.9126
17.889
17.8627
17.838
17.8174
17.8019
17.7868
17.7657
17.7356
17.7003
17.6631
17.6295
17.6031
17.5884
17.5855
17.5911
17.5977
17.5967
17.5856
17.5587
17.5297
17.5021
17.4824
17.4729
17.469
17.4679
17.4664
17.4592
17.447
17.4301
17.4113
17.4039
17.4117
17.4217
17.4271
17.4253
17.411
17.4025
17.4138
17.4417
17.475
17.4915
17.4764
17.4316
17.3662
17.3084
17.2887
17.3151
17.3819
17.4326
17.4459
17.4195
17.3675
17.3122
17.2835
17.2838
17.3101
17.3461
17.3598
17.3561
17.336
17.3165
17.3089
17.3098
17.3115
17.3078
17.2994
17.2896
17.2811
17.2751
17.2741
17.2763
17.2799
18.0464
18.0312
18.0164
18.0006
17.9822
17.9607
17.9359
17.9096
17.8828
17.8581
17.8371
17.8209
17.8062
17.7899
17.7667
17.7354
17.6974
17.6573
17.6221
17.5985
17.5908
17.598
17.6143
17.6233
17.6167
17.5946
17.5547
17.5072
17.4749
17.4645
17.4671
17.4756
17.4796
17.4709
17.4475
17.4216
17.4011
17.3956
17.4079
17.4293
17.4454
17.4433
17.4244
17.3991
17.3897
17.4014
17.4436
17.4857
17.4994
17.4809
17.4241
17.347
17.2933
17.2752
17.3081
17.3858
17.4362
17.4438
17.4164
17.36
17.308
17.2843
17.2885
17.3203
17.3562
17.3703
17.3665
17.3487
17.3233
17.3082
17.2979
17.2859
17.2751
17.2689
17.2669
17.2665
17.2679
17.2721
17.2798
17.289
18.0322
18.0248
18.0164
18.0036
17.9862
17.9629
17.9345
17.9046
17.8747
17.8543
17.8406
17.8282
17.8144
17.7953
17.7688
17.7349
17.6949
17.6544
17.6203
17.6028
17.6016
17.6168
17.6388
17.6422
17.6286
17.5961
17.5435
17.4883
17.4544
17.449
17.4656
17.479
17.4838
17.4669
17.4308
17.396
17.377
17.3851
17.4169
17.4443
17.4598
17.453
17.4246
17.397
17.3868
17.4015
17.4484
17.4894
17.4994
17.4777
17.4161
17.3408
17.2939
17.2872
17.3179
17.3731
17.415
17.4223
17.3942
17.3497
17.3114
17.2971
17.3062
17.3289
17.359
17.374
17.3707
17.3552
17.3285
17.3036
17.2787
17.2579
17.2464
17.2458
17.2497
17.2588
17.2702
17.2861
17.308
17.3278
18.0193
18.0198
18.0163
18.0049
17.9872
17.9621
17.9304
17.8985
17.8687
17.8527
17.8465
17.8383
17.8249
17.803
17.7728
17.7361
17.6958
17.6563
17.627
17.6152
17.6216
17.6426
17.6573
17.6536
17.6334
17.5921
17.5296
17.4756
17.442
17.4381
17.4614
17.4785
17.4791
17.4568
17.415
17.3793
17.3649
17.3816
17.4245
17.4557
17.4667
17.455
17.4282
17.4071
17.3985
17.4165
17.4532
17.4813
17.4874
17.4631
17.4124
17.3526
17.3168
17.3181
17.3325
17.3479
17.3724
17.3816
17.3673
17.3414
17.3243
17.3206
17.3253
17.3353
17.3557
17.3701
17.3693
17.3551
17.3278
17.2912
17.2581
17.2373
17.2294
17.2329
17.2438
17.2627
17.291
17.3234
17.3497
17.369
18.0102
18.0157
18.014
18.0035
17.9851
17.9583
17.9249
17.8931
17.8668
17.856
17.8551
17.8497
17.8352
17.8104
17.7778
17.7397
17.7001
17.6661
17.6442
17.6392
17.6488
17.6636
17.6667
17.6559
17.6288
17.581
17.5191
17.4697
17.4404
17.4361
17.4556
17.4715
17.4671
17.4437
17.4044
17.3742
17.3666
17.3863
17.4256
17.458
17.464
17.4531
17.4383
17.4269
17.4277
17.4395
17.4497
17.4623
17.4631
17.4455
17.4176
17.3846
17.3611
17.3517
17.3437
17.3298
17.3212
17.3273
17.3343
17.3343
17.3428
17.3432
17.3397
17.3423
17.349
17.3591
17.3605
17.3461
17.317
17.2773
17.2457
17.2287
17.2278
17.2346
17.2566
17.2939
17.3318
17.3585
17.3749
17.3902
18.0073
18.0113
18.0082
17.9979
17.9801
17.9525
17.9216
17.8917
17.8719
17.8663
17.8659
17.8596
17.8425
17.8161
17.7826
17.7456
17.7114
17.686
17.6726
17.6716
17.674
17.6742
17.6667
17.6469
17.6143
17.5682
17.5144
17.4717
17.4461
17.4413
17.4489
17.4574
17.4524
17.4299
17.4012
17.3811
17.3788
17.3919
17.4209
17.4441
17.4522
17.4537
17.4567
17.4584
17.4643
17.458
17.4433
17.4335
17.4309
17.43
17.4283
17.4296
17.4159
17.3846
17.3482
17.3081
17.2782
17.279
17.3042
17.3375
17.3578
17.3581
17.351
17.3434
17.3396
17.3397
17.339
17.3261
17.3003
17.2688
17.2446
17.2372
17.2412
17.2659
17.3033
17.3377
17.3615
17.3764
17.3852
17.3983
18.0057
18.0042
17.9984
17.9892
17.9728
17.9481
17.9224
17.8977
17.8844
17.879
17.8754
17.8658
17.8468
17.8201
17.7884
17.7569
17.7315
17.7161
17.7105
17.7032
17.6926
17.676
17.6554
17.6277
17.5942
17.557
17.5168
17.4823
17.458
17.4436
17.4383
17.4393
17.4349
17.4215
17.4066
17.396
17.3919
17.3963
17.4053
17.4191
17.4399
17.4589
17.4773
17.4958
17.4938
17.4693
17.4333
17.402
17.3996
17.4149
17.4474
17.4705
17.4603
17.4145
17.3485
17.2897
17.2547
17.2507
17.28
17.3309
17.3583
17.3609
17.3529
17.3383
17.3191
17.3081
17.3058
17.3008
17.2867
17.2705
17.258
17.2593
17.2826
17.3197
17.3512
17.3702
17.3804
17.3857
17.3907
17.4014
18.0015
17.9948
17.9875
17.9789
17.9659
17.947
17.9276
17.9108
17.8989
17.8905
17.882
17.8681
17.8475
17.8233
17.7978
17.7756
17.7621
17.7537
17.7462
17.7299
17.7038
17.6708
17.636
17.6021
17.5727
17.5446
17.5201
17.4964
17.47
17.4448
17.4276
17.4208
17.4201
17.4199
17.4194
17.4125
17.4055
17.3948
17.3864
17.3949
17.4262
17.4641
17.5069
17.525
17.51
17.4725
17.4183
17.3814
17.3783
17.4141
17.4707
17.4989
17.4886
17.4393
17.353
17.2837
17.2509
17.2501
17.2786
17.3185
17.3445
17.3483
17.3387
17.3152
17.2872
17.2689
17.2672
17.2719
17.2725
17.2719
17.2813
17.3077
17.343
17.3703
17.3847
17.3924
17.3956
17.397
17.3984
17.4068
17.9965
17.9883
17.9779
17.97
17.9601
17.9488
17.9368
17.9247
17.9112
17.9011
17.8866
17.8676
17.8467
17.8274
17.812
17.8015
17.7958
17.7899
17.7751
17.7495
17.7106
17.6626
17.6148
17.5778
17.5543
17.5381
17.5253
17.5062
17.4794
17.4458
17.4179
17.4076
17.4118
17.4243
17.4297
17.4263
17.4113
17.3863
17.3698
17.3806
17.4142
17.4771
17.5258
17.538
17.515
17.4677
17.4081
17.375
17.3715
17.4179
17.4831
17.5087
17.497
17.4533
17.3657
17.2946
17.2663
17.2729
17.2919
17.3076
17.3191
17.3203
17.3073
17.2827
17.2545
17.2359
17.2317
17.2427
17.2615
17.288
17.3307
17.3667
17.3897
17.4031
17.4114
17.4122
17.4082
17.4056
17.4039
17.4094
17.995
17.9835
17.9713
17.9618
17.9562
17.9515
17.9454
17.9331
17.9203
17.9074
17.8881
17.8663
17.8461
17.8325