/*--------------------------------*- C++ -*----------------------------------*\
| =========                 |                                                 |
| \\      /  F ield         | OpenFOAM: The Open Source CFD Toolbox           |
|  \\    /   O peration     | Version:  v1912                                 |
|   \\  /    A nd           | Website:  www.openfoam.com                      |
|    \\/     M anipulation  |                                                 |
\*---------------------------------------------------------------------------*/
FoamFile
{
    version     2.0;
    format      ascii;
    class       volTensorField;
    location    "2.2";
    object      grad(U);
}
// * * * * * * * * * * * * * * * * * * * * * * * * * * * * * * * * * * * * * //

dimensions      [0 0 -1 0 0 0 0];


internalField   nonuniform List<tensor> 
1900
(
(-1.25737 -3.99469e-05 0 -3.02007e-05 -5.36054e-05 0 0 0 0)
(0.749203 2.29936e-05 0 1.52e-05 -2.31893e-05 0 0 0 0)
(-0.00632038 9.37974e-05 0 4.37805e-06 3.53146e-05 0 0 0 0)
(-0.012122 0.000250613 0 4.27907e-05 0.000229329 0 0 0 0)
(-0.0223715 0.000875561 0 0.000202539 0.000580598 0 0 0 0)
(-0.0306437 0.00160786 0 0.00095609 0.00193465 0 0 0 0)
(-0.0368164 -0.00289294 0 0.00316156 0.00371914 0 0 0 0)
(-0.0374866 -0.0161824 0 0.00516698 -0.00169412 0 0 0 0)
(0.00758475 -0.0552717 0 -0.00166152 -0.0229123 0 0 0 0)
(-0.000436351 -0.172366 0 -0.0538127 -0.105543 0 0 0 0)
(-1.25738 -3.68478e-05 0 -4.07524e-05 2.28219e-05 0 0 0 0)
(0.749237 6.59264e-05 0 2.91954e-05 1.7125e-05 0 0 0 0)
(-0.00629279 0.000158721 0 1.2422e-05 -1.71707e-07 0 0 0 0)
(-0.0119238 0.00029467 0 7.63317e-05 -7.66724e-05 0 0 0 0)
(-0.0214582 0.000829757 0 0.000358068 -0.000250785 0 0 0 0)
(-0.0276847 0.00153068 0 0.00154469 -0.000952233 0 0 0 0)
(-0.0326056 -0.000735826 0 0.00436566 -0.00185864 0 0 0 0)
(-0.0423097 -0.010449 0 0.00585919 0.00194071 0 0 0 0)
(-0.0513949 -0.0485775 0 -0.0037184 0.0143238 0 0 0 0)
(-0.116547 -0.120775 0 -0.0772182 0.0572124 0 0 0 0)
(-1.25738 -3.09103e-13 0 -3.71339e-14 6.15671e-05 0 0 0 0)
(0.749256 2.01333e-14 0 1.21769e-13 1.21285e-05 0 0 0 0)
(-0.00627324 3.22732e-13 0 -1.11266e-13 -7.02858e-05 0 0 0 0)
(-0.0117764 7.16532e-14 0 -8.61263e-14 -0.000305313 0 0 0 0)
(-0.0209031 -3.47305e-13 0 -9.52065e-14 -0.000659625 0 0 0 0)
(-0.0266361 -1.33488e-13 0 -5.71239e-14 -0.00196483 0 0 0 0)
(-0.0325019 5.72716e-14 0 2.05321e-14 -0.00372099 0 0 0 0)
(-0.0455707 4.75214e-14 0 9.54098e-14 -0.000493174 0 0 0 0)
(-0.0754926 2.73856e-14 0 7.95533e-14 0.017177 0 0 0 0)
(-0.150833 8.31585e-15 0 1.16145e-13 0.0966618 0 0 0 0)
(-1.25738 3.68478e-05 0 4.07524e-05 2.28219e-05 0 0 0 0)
(0.749237 -6.59264e-05 0 -2.91954e-05 1.7125e-05 0 0 0 0)
(-0.00629279 -0.000158721 0 -1.2422e-05 -1.71707e-07 0 0 0 0)
(-0.0119238 -0.00029467 0 -7.63317e-05 -7.66724e-05 0 0 0 0)
(-0.0214582 -0.000829757 0 -0.000358068 -0.000250785 0 0 0 0)
(-0.0276847 -0.00153068 0 -0.00154469 -0.000952233 0 0 0 0)
(-0.0326056 0.000735826 0 -0.00436566 -0.00185864 0 0 0 0)
(-0.0423097 0.010449 0 -0.00585919 0.00194071 0 0 0 0)
(-0.0513949 0.0485775 0 0.0037184 0.0143238 0 0 0 0)
(-0.116547 0.120775 0 0.0772182 0.0572124 0 0 0 0)
(-1.25737 3.99469e-05 0 3.02007e-05 -5.36054e-05 0 0 0 0)
(0.749203 -2.29936e-05 0 -1.52e-05 -2.31893e-05 0 0 0 0)
(-0.00632038 -9.37974e-05 0 -4.37805e-06 3.53146e-05 0 0 0 0)
(-0.012122 -0.000250613 0 -4.27907e-05 0.000229329 0 0 0 0)
(-0.0223715 -0.000875561 0 -0.000202539 0.000580598 0 0 0 0)
(-0.0306437 -0.00160786 0 -0.00095609 0.00193465 0 0 0 0)
(-0.0368164 0.00289294 0 -0.00316156 0.00371914 0 0 0 0)
(-0.0374866 0.0161824 0 -0.00516698 -0.00169412 0 0 0 0)
(0.00758475 0.0552717 0 0.00166152 -0.0229123 0 0 0 0)
(-0.000436351 0.172366 0 0.0538127 -0.105543 0 0 0 0)
(-0.117704 -0.302721 1.10565e-17 -0.174692 0.143102 -1.65848e-17 -4.36966e-17 -5.25826e-17 2.99688e-33)
(-0.236567 -0.376096 0 -0.237971 0.240847 0 1.17884e-16 4.24947e-17 0)
(-0.302442 -0.466496 0 -0.346139 0.279216 0 1.87533e-16 7.89454e-17 0)
(-0.891805 -0.359302 0 -0.79187 0.498557 0 0 0 0)
(0.0752611 -1.37692 -3.31226e-16 -2.67672 2.95868 4.96839e-16 1.40841e-15 9.38943e-16 8.97789e-32)
(-0.222065 -0.17203 0 -0.150073 0.173552 0 -7.52635e-17 -2.67241e-17 0)
(-0.376284 -0.232732 0 -0.17703 0.280752 0 -1.17884e-16 -4.24947e-17 0)
(-0.620869 -0.362334 0 -0.34965 0.51048 0 -1.87533e-16 -7.89454e-17 0)
(-1.14444 -0.31687 0 -0.822017 0.921906 0 0 0 0)
(-0.876021 0.157757 0 -1.06287 1.22331 0 0 0 0)
(-0.269771 -7.93173e-14 0 6.13792e-15 0.244462 0 0 0 0)
(-0.458416 3.47093e-13 0 -4.16086e-14 0.379162 0 0 0 0)
(-0.807442 1.86859e-13 0 1.12938e-13 0.726583 0 0 0 0)
(-1.38955 -9.23073e-14 0 -2.48463e-13 1.35248 0 0 0 0)
(-1.11117 1.49429e-13 0 -2.95251e-13 2.02829 0 0 0 0)
(-0.222065 0.17203 0 0.150073 0.173552 0 -7.52635e-17 2.67241e-17 0)
(-0.376284 0.232732 0 0.17703 0.280752 0 -1.17884e-16 4.24947e-17 0)
(-0.620869 0.362334 0 0.34965 0.51048 0 -1.87533e-16 7.89454e-17 0)
(-1.14444 0.31687 0 0.822017 0.921906 0 0 0 0)
(-0.876021 -0.157757 0 1.06287 1.22331 0 0 0 0)
(-0.117704 0.302721 -1.10565e-17 0.174692 0.143102 -1.65848e-17 1.94224e-16 -1.06031e-16 2.99688e-33)
(-0.236567 0.376096 0 0.237971 0.240847 0 1.17884e-16 -4.24947e-17 0)
(-0.302442 0.466496 0 0.346139 0.279216 0 1.87533e-16 -7.89454e-17 0)
(-0.891805 0.359302 -3.04648e-17 0.79187 0.498557 -4.56972e-17 5.68312e-16 -3.78875e-16 8.25749e-33)
(0.0752611 1.37692 3.31226e-16 2.67672 2.95868 4.96839e-16 -1.40841e-15 9.38943e-16 8.97789e-32)
(-0.0432285 0.441143 3.04787e-18 -0.408509 -0.945617 2.74308e-17 -8.9027e-16 6.9073e-17 -8.26125e-34)
(0.383755 0.00738904 -8.24929e-19 -0.202008 -0.415511 -7.42436e-18 6.33004e-16 -5.71439e-17 -2.23597e-34)
(0.161187 0.100405 0 0.114298 -0.251429 0 0 0 0)
(-0.387409 0.505211 -1.72963e-18 0.664123 0.39719 -1.55667e-17 -4.13807e-16 6.0163e-17 4.68817e-34)
(-1.33478 0.574042 5.97713e-18 2.33201 1.85264 5.37941e-17 2.63053e-16 -2.92281e-17 1.6201e-33)
(0.189571 0.414204 0 -0.486543 -0.354374 0 4.51286e-16 -2.0297e-17 0)
(0.50633 -0.0064858 0 -0.238113 -0.454972 0 -3.19544e-16 2.23151e-17 0)
(0.448725 0.110668 0 0.231045 -0.404361 0 0 0 0)
(0.493086 0.51235 0 1.03013 -0.658557 0 2.38373e-16 -4.01198e-17 0)
(1.13741 0.429537 0 3.42346 -1.37834 0 -2.24293e-17 1.08781e-17 0)
(0.259015 2.11971e-13 0 -4.43537e-13 -0.639145 0 0 0 0)
(0.596457 2.62012e-13 0 4.79551e-13 -0.571961 0 0 0 0)
(0.624082 4.34523e-13 0 2.38324e-12 -0.534893 0 0 0 0)
(0.982156 1.46091e-13 0 3.80888e-12 -1.07774 0 -8.29395e-17 4.11669e-29 0)
(1.77532 -3.61167e-13 0 4.9756e-12 -2.88958 0 4.48585e-17 -2.74901e-29 0)
(0.189571 -0.414204 0 0.486543 -0.354374 0 4.51286e-16 2.0297e-17 0)
(0.50633 0.0064858 0 0.238113 -0.454972 0 -3.19544e-16 -2.23151e-17 0)
(0.448725 -0.110668 0 -0.231045 -0.404361 0 0 0 0)
(0.493086 -0.51235 0 -1.03013 -0.658557 0 2.38373e-16 4.01198e-17 0)
(1.13741 -0.429537 0 -3.42346 -1.37834 0 -2.24293e-17 -1.08781e-17 0)
(-0.0432285 -0.441143 0 0.408509 -0.945617 0 -4.51286e-16 -2.0297e-17 0)
(0.383755 -0.00738904 8.24929e-19 0.202008 -0.415511 -7.42436e-18 6.08381e-18 -1.25138e-17 -2.23597e-34)
(0.161187 -0.100405 0 -0.114298 -0.251429 0 0 0 0)
(-0.387409 -0.505211 1.72963e-18 -0.664123 0.39719 -1.55667e-17 2.00012e-17 -1.19621e-17 4.68817e-34)
(-1.33478 -0.574042 -5.97713e-18 -2.33201 1.85264 5.37941e-17 -2.63053e-16 -2.92281e-17 1.6201e-33)
(0.557338 -0.849026 0 10.3228 -0.228168 0 0 0 0)
(1.36775 -1.03332 0 5.55528 0.530123 0 0 0 0)
(-0.633931 0.160518 0 2.77734 0.816319 0 0 0 0)
(-0.602888 0.508268 0 0.725718 0.653113 0 0 0 0)
(-0.249455 0.269531 0 0.145091 0.306095 0 0 0 0)
(-0.056722 0.078057 0 0.0552797 0.15574 0 0 0 0)
(0.0582858 0.0320314 0 0.0193153 0.0959929 0 0 0 0)
(0.12959 0.0188149 0 0.00609426 0.0618992 0 0 0 0)
(0.182894 0.00902103 0 0.00681242 0.0410922 0 0 0 0)
(0.226613 0.00430801 0 0.00543058 0.0320828 0 0 0 0)
(0.256584 0.00342086 0 0.00333842 0.026097 0 0 0 0)
(0.276034 0.00240033 0 0.00222365 0.0226103 0 0 0 0)
(0.284767 0.00173997 0 0.0015552 0.020286 0 0 0 0)
(0.284692 0.00119799 0 0.000907938 0.0187024 0 0 0 0)
(0.275309 0.000826207 0 0.000540185 0.0174675 0 0 0 0)
(0.252312 0.000649538 0 0.000647645 0.0165965 0 0 0 0)
(0.206321 0.000576093 0 0.000914067 0.0156467 0 0 0 0)
(0.133267 0.000458689 0 0.000896924 0.0147171 0 0 0 0)
(0.0572844 0.000269536 0 0.000465146 0.0139913 0 0 0 0)
(0.01382 8.30344e-05 0 5.57749e-05 0.013684 0 0 0 0)
(0.0151276 8.19905e-06 0 3.11336e-05 0.0136461 0 0 0 0)
(0.0618264 -1.94828e-06 0 1.88806e-05 0.0136185 0 0 0 0)
(0.140985 -5.17792e-06 0 7.14844e-05 0.013515 0 0 0 0)
(0.215944 -5.78705e-06 0 0.00016118 0.0132659 0 0 0 0)
(0.263461 -6.79422e-06 0 0.00026099 0.012828 0 0 0 0)
(0.288887 -1.43663e-05 0 0.00035333 0.0121994 0 0 0 0)
(0.302622 -3.26803e-05 0 0.000428952 0.0114048 0 0 0 0)
(0.310439 -5.95026e-05 0 0.000482388 0.0104842 0 0 0 0)
(0.314698 -8.91339e-05 0 0.000511235 0.00946591 0 0 0 0)
(0.31618 -0.000120978 0 0.000516205 0.00837923 0 0 0 0)
(0.314735 -0.000154514 0 0.000499619 0.00726698 0 0 0 0)
(0.309248 -0.000185675 0 0.000465149 0.00616863 0 0 0 0)
(0.297768 -0.000211602 0 0.000418032 0.00512056 0 0 0 0)
(0.279623 -0.000226107 0 0.000361652 0.00414636 0 0 0 0)
(0.258278 -0.000232256 0 0.000301926 0.00328648 0 0 0 0)
(0.242015 -0.000198941 0 0.000231411 0.00252588 0 0 0 0)
(0.221448 -0.000220203 0 0.000181616 0.00202752 0 0 0 0)
(0.381462 -0.000251729 0 0.00022561 0.0013585 0 0 0 0)
(2.41037 -0.000297972 0 0.000140553 0.000853421 0 0 0 0)
(2.13212 -0.000185198 0 1.3637e-05 7.53318e-05 0 0 0 0)
(1.3549 -0.734011 0 9.2537 -1.44496 0 0 0 0)
(-0.148227 -0.886194 0 4.9625 1.63855 0 0 0 0)
(-1.58621 0.160608 0 2.58923 2.10707 0 0 0 0)
(-1.10494 0.381565 0 0.624344 1.08677 0 0 0 0)
(-0.3653 0.161926 0 0.0661663 0.359892 0 0 0 0)
(-0.0716864 0.0406346 0 0.0240514 0.160255 0 0 0 0)
(0.0526546 0.0165991 0 0.00049612 0.0915713 0 0 0 0)
(0.129656 0.00958482 0 5.5584e-05 0.0501471 0 0 0 0)
(0.183581 0.00437484 0 0.00278259 0.0268951 0 0 0 0)
(0.22654 0.00209667 0 0.00241312 0.0191373 0 0 0 0)
(0.256511 0.00170879 0 0.00180499 0.0120864 0 0 0 0)
(0.276008 0.00110226 0 0.00163428 0.00737807 0 0 0 0)
(0.284549 0.000711437 0 0.00131926 0.00383522 0 0 0 0)
(0.284348 0.000457545 0 0.000686078 0.00139693 0 0 0 0)
(0.275087 0.000366669 0 0.000124797 -0.000282889 0 0 0 0)
(0.252259 0.000357589 0 -8.97379e-05 -0.00144316 0 0 0 0)
(0.206339 0.00029694 0 -0.000113418 -0.00251568 0 0 0 0)
(0.133288 0.000217329 0 -6.21453e-05 -0.00342348 0 0 0 0)
(0.057293 0.000117341 0 -1.39561e-05 -0.00409242 0 0 0 0)
(0.0138223 3.24414e-05 0 -5.71403e-06 -0.00435001 0 0 0 0)
(0.0151281 2.4545e-06 0 2.30972e-06 -0.00437785 0 0 0 0)
(0.0618249 -3.18745e-06 0 -3.08789e-06 -0.0043782 0 0 0 0)
(0.140984 -8.13355e-06 0 -1.16909e-05 -0.00437116 0 0 0 0)
(0.215941 -1.3512e-05 0 -2.85128e-05 -0.00436039 0 0 0 0)
(0.263457 -1.87917e-05 0 -5.28177e-05 -0.00435126 0 0 0 0)
(0.288881 -2.45773e-05 0 -8.29452e-05 -0.00433704 0 0 0 0)
(0.302615 -3.09715e-05 0 -0.000116481 -0.00430187 0 0 0 0)
(0.310431 -4.11262e-05 0 -0.000150517 -0.0042247 0 0 0 0)
(0.314689 -5.80179e-05 0 -0.000183698 -0.00409734 0 0 0 0)
(0.316171 -7.81829e-05 0 -0.000214619 -0.00391831 0 0 0 0)
(0.314727 -9.77832e-05 0 -0.0002403 -0.00368148 0 0 0 0)
(0.309242 -0.000115047 0 -0.000257972 -0.00338717 0 0 0 0)
(0.297766 -0.000128589 0 -0.000265496 -0.00304322 0 0 0 0)
(0.279624 -0.000135164 0 -0.000260897 -0.00265979 0 0 0 0)
(0.258283 -0.000136473 0 -0.000244791 -0.00226598 0 0 0 0)
(0.242022 -0.000116771 0 -0.000213074 -0.00186141 0 0 0 0)
(0.221446 -0.000123043 0 -0.000187305 -0.00158211 0 0 0 0)
(0.381464 -0.000134462 0 -0.000195375 -0.00110445 0 0 0 0)
(2.4104 -0.000159045 0 -0.000137382 -0.000716793 0 0 0 0)
(2.13214 -9.93438e-05 0 -1.07256e-05 -8.0174e-05 0 0 0 0)
(1.43413 -3.88567e-13 0 4.73451e-12 -3.10007 0 0 0 0)
(-0.571004 -1.90592e-13 0 1.63517e-12 2.37834 0 0 0 0)
(-1.89594 8.51881e-14 0 4.97963e-13 2.99252 0 0 0 0)
(-1.33687 1.86978e-13 0 1.44889e-13 1.27416 0 0 0 0)
(-0.424085 1.36903e-13 0 4.6325e-14 0.369262 0 0 0 0)
(-0.075826 -3.45236e-14 0 -2.1684e-13 0.160914 0 0 0 0)
(0.0513052 -1.32516e-13 0 -3.29203e-13 0.0898987 0 0 0 0)
(0.130255 1.10184e-13 0 2.1684e-14 0.0467948 0 0 0 0)
(0.18358 3.44205e-13 0 8.17094e-13 0.0240031 0 0 0 0)
(0.226329 -2.16474e-13 0 7.44157e-13 0.0167178 0 0 0 0)
(0.256357 -4.4711e-13 0 1.82343e-13 0.00958848 0 0 0 0)
(0.275893 -8.88276e-13 0 -1.36708e-12 0.00496988 0 0 0 0)
(0.284491 -6.81728e-13 0 -6.40271e-12 0.00201044 0 0 0 0)
(0.284345 9.27907e-12 0 -1.28572e-11 7.87476e-05 0 0 0 0)
(0.275083 3.516e-11 0 2.64693e-12 -0.00113518 0 0 0 0)
(0.252243 1.05982e-10 0 1.96856e-10 -0.0024421 0 0 0 0)
(0.206329 -1.86342e-10 0 6.73661e-10 -0.00359361 0 0 0 0)
(0.133296 6.45847e-10 0 1.37855e-10 -0.00448357 0 0 0 0)
(0.0573008 1.89337e-10 0 -1.12409e-09 -0.00508774 0 0 0 0)
(0.0138247 -3.94134e-10 0 -4.04846e-10 -0.00529029 0 0 0 0)
(0.0151283 -7.2555e-10 0 -1.57751e-10 -0.00531077 0 0 0 0)
(0.0618223 -7.50539e-10 0 -1.05735e-09 -0.00530717 0 0 0 0)
(0.140978 2.63814e-09 0 1.67971e-09 -0.00528886 0 0 0 0)
(0.215932 1.07375e-09 0 3.96054e-09 -0.00525123 0 0 0 0)
(0.263446 -6.64046e-10 0 1.65231e-09 -0.00519596 0 0 0 0)
(0.288868 2.06983e-10 0 -6.15223e-10 -0.00512205 0 0 0 0)
(0.302602 -6.7174e-10 0 -1.68956e-09 -0.00502699 0 0 0 0)
(0.310419 -8.20745e-10 0 -1.85644e-09 -0.00490912 0 0 0 0)
(0.314679 -1.21165e-09 0 -1.9417e-09 -0.00474426 0 0 0 0)
(0.316163 -9.44833e-10 0 -1.79761e-09 -0.00451025 0 0 0 0)
(0.314722 -1.07358e-09 0 -1.68735e-09 -0.00420675 0 0 0 0)
(0.30924 -8.89684e-10 0 -1.44452e-09 -0.003838 0 0 0 0)
(0.297768 -3.21176e-10 0 -4.8768e-10 -0.00341581 0 0 0 0)
(0.279629 6.7463e-11 0 2.34645e-10 -0.00295396 0 0 0 0)
(0.258292 4.78514e-10 0 1.13904e-09 -0.00248656 0 0 0 0)
(0.242031 1.66865e-09 0 2.44184e-09 -0.0020157 0 0 0 0)
(0.221453 1.77953e-09 0 3.12625e-09 -0.00168375 0 0 0 0)
(0.381476 3.24552e-10 0 1.21563e-09 -0.00116977 0 0 0 0)
(2.41042 -1.68392e-10 0 9.6015e-11 -0.000759325 0 0 0 0)
(2.13216 -2.04226e-10 0 -5.20732e-11 -7.63373e-05 0 0 0 0)
(1.3549 0.734011 0 -9.2537 -1.44496 0 0 0 0)
(-0.148227 0.886194 0 -4.9625 1.63855 0 0 0 0)
(-1.58621 -0.160608 0 -2.58923 2.10707 0 0 0 0)
(-1.10494 -0.381565 0 -0.624344 1.08677 0 0 0 0)
(-0.3653 -0.161926 0 -0.0661663 0.359892 0 0 0 0)
(-0.0716864 -0.0406346 0 -0.0240514 0.160255 0 0 0 0)
(0.0526546 -0.0165991 0 -0.00049612 0.0915713 0 0 0 0)
(0.129656 -0.00958482 0 -5.5584e-05 0.0501471 0 0 0 0)
(0.183581 -0.00437484 0 -0.00278259 0.0268951 0 0 0 0)
(0.22654 -0.00209667 0 -0.00241312 0.0191373 0 0 0 0)
(0.256511 -0.00170879 0 -0.00180499 0.0120864 0 0 0 0)
(0.276008 -0.00110226 0 -0.00163428 0.00737807 0 0 0 0)
(0.284549 -0.000711437 0 -0.00131926 0.00383522 0 0 0 0)
(0.284348 -0.000457545 0 -0.000686078 0.00139693 0 0 0 0)
(0.275087 -0.000366669 0 -0.000124797 -0.000282889 0 0 0 0)
(0.252259 -0.000357589 0 8.97382e-05 -0.00144316 0 0 0 0)
(0.206339 -0.000296941 0 0.000113419 -0.00251568 0 0 0 0)
(0.133288 -0.000217328 0 6.21456e-05 -0.00342348 0 0 0 0)
(0.057293 -0.000117341 0 1.39546e-05 -0.00409242 0 0 0 0)
(0.0138223 -3.24419e-05 0 5.71342e-06 -0.00435001 0 0 0 0)
(0.0151281 -2.45547e-06 0 -2.31008e-06 -0.00437785 0 0 0 0)
(0.0618249 3.18622e-06 0 3.08628e-06 -0.00437819 0 0 0 0)
(0.140984 8.13753e-06 0 1.16937e-05 -0.00437115 0 0 0 0)
(0.215941 1.35135e-05 0 2.85185e-05 -0.0043604 0 0 0 0)
(0.263457 1.87905e-05 0 5.282e-05 -0.00435126 0 0 0 0)
(0.288881 2.45776e-05 0 8.29445e-05 -0.00433704 0 0 0 0)
(0.302615 3.09705e-05 0 0.000116478 -0.00430188 0 0 0 0)
(0.310431 4.11251e-05 0 0.000150514 -0.0042247 0 0 0 0)
(0.314689 5.8016e-05 0 0.000183695 -0.00409734 0 0 0 0)
(0.316171 7.81814e-05 0 0.000214617 -0.0039183 0 0 0 0)
(0.314727 9.77812e-05 0 0.000240298 -0.00368147 0 0 0 0)
(0.309242 0.000115045 0 0.000257969 -0.00338716 0 0 0 0)
(0.297766 0.000128588 0 0.000265494 -0.00304322 0 0 0 0)
(0.279624 0.000135163 0 0.000260896 -0.00265978 0 0 0 0)
(0.258283 0.000136474 0 0.000244792 -0.00226597 0 0 0 0)
(0.242022 0.000116775 0 0.000213077 -0.0018614 0 0 0 0)
(0.221446 0.000123047 0 0.000187311 -0.00158211 0 0 0 0)
(0.381464 0.000134462 0 0.000195377 -0.00110445 0 0 0 0)
(2.4104 0.000159044 0 0.000137382 -0.000716792 0 0 0 0)
(2.13214 9.93434e-05 0 1.07255e-05 -8.01735e-05 0 0 0 0)
(0.557338 0.849026 0 -10.3228 -0.228168 0 0 0 0)
(1.36775 1.03332 0 -5.55528 0.530123 0 0 0 0)
(-0.633931 -0.160518 0 -2.77734 0.816319 0 0 0 0)
(-0.602888 -0.508268 0 -0.725718 0.653113 0 0 0 0)
(-0.249455 -0.269531 0 -0.145091 0.306095 0 0 0 0)
(-0.056722 -0.078057 0 -0.0552797 0.15574 0 0 0 0)
(0.0582858 -0.0320314 0 -0.0193153 0.0959929 0 0 0 0)
(0.12959 -0.0188149 0 -0.00609426 0.0618992 0 0 0 0)
(0.182894 -0.00902103 0 -0.00681242 0.0410922 0 0 0 0)
(0.226613 -0.00430801 0 -0.00543058 0.0320828 0 0 0 0)
(0.256584 -0.00342086 0 -0.00333842 0.026097 0 0 0 0)
(0.276034 -0.00240033 0 -0.00222365 0.0226103 0 0 0 0)
(0.284767 -0.00173997 0 -0.0015552 0.020286 0 0 0 0)
(0.284692 -0.00119799 0 -0.000907938 0.0187024 0 0 0 0)
(0.275309 -0.000826207 0 -0.000540185 0.0174675 0 0 0 0)
(0.252312 -0.000649538 0 -0.000647646 0.0165965 0 0 0 0)
(0.206321 -0.000576093 0 -0.000914068 0.0156467 0 0 0 0)
(0.133267 -0.000458689 0 -0.000896927 0.0147171 0 0 0 0)
(0.0572844 -0.000269537 0 -0.000465143 0.0139913 0 0 0 0)
(0.01382 -8.30342e-05 0 -5.57739e-05 0.013684 0 0 0 0)
(0.0151276 -8.19875e-06 0 -3.11336e-05 0.0136461 0 0 0 0)
(0.0618264 1.94736e-06 0 -1.88763e-05 0.0136185 0 0 0 0)
(0.140985 5.17881e-06 0 -7.14892e-05 0.013515 0 0 0 0)
(0.215944 5.78781e-06 0 -0.000161189 0.0132659 0 0 0 0)
(0.263461 6.79354e-06 0 -0.000260991 0.012828 0 0 0 0)
(0.288887 1.43663e-05 0 -0.000353329 0.0121993 0 0 0 0)
(0.302622 3.26802e-05 0 -0.000428949 0.0114048 0 0 0 0)
(0.310439 5.95025e-05 0 -0.000482385 0.0104842 0 0 0 0)
(0.314698 8.91331e-05 0 -0.000511232 0.00946591 0 0 0 0)
(0.31618 0.000120978 0 -0.000516202 0.00837924 0 0 0 0)
(0.314735 0.000154512 0 -0.000499616 0.00726698 0 0 0 0)
(0.309248 0.000185674 0 -0.000465147 0.00616864 0 0 0 0)
(0.297768 0.000211601 0 -0.000418031 0.00512057 0 0 0 0)
(0.279623 0.000226107 0 -0.000361652 0.00414637 0 0 0 0)
(0.258278 0.000232256 0 -0.000301927 0.00328649 0 0 0 0)
(0.242015 0.000198944 0 -0.000231413 0.0025259 0 0 0 0)
(0.221448 0.000220206 0 -0.000181619 0.00202752 0 0 0 0)
(0.381462 0.000251729 0 -0.000225611 0.0013585 0 0 0 0)
(2.41037 0.000297971 0 -0.000140554 0.000853418 0 0 0 0)
(2.13212 0.000185198 0 -1.3637e-05 7.5331e-05 0 0 0 0)
(2.50553 1.1567 0 -3.78734 -0.170666 0 0 0 0)
(2.832 1.37126 0 -2.49924 0.127437 0 0 0 0)
(0.342175 -0.0835641 0 -1.49232 0.190925 0 0 0 0)
(-0.0343034 -0.555113 0 -0.557841 0.233432 0 0 0 0)
(-0.0786993 -0.349496 0 -0.214596 0.207307 0 0 0 0)
(-0.0100934 -0.129157 0 -0.0899987 0.142354 0 0 0 0)
(0.0769961 -0.0576195 0 -0.048835 0.0995051 0 0 0 0)
(0.137575 -0.0333503 0 -0.0265469 0.0759591 0 0 0 0)
(0.184793 -0.0177057 0 -0.0173219 0.0616362 0 0 0 0)
(0.228635 -0.00894588 0 -0.0115662 0.0524566 0 0 0 0)
(0.258438 -0.00567108 0 -0.00656688 0.0483211 0 0 0 0)
(0.277097 -0.00324643 0 -0.00372141 0.0465202 0 0 0 0)
(0.285123 -0.00197349 0 -0.00224037 0.0461437 0 0 0 0)
(0.284586 -0.00136942 0 -0.00174488 0.0461903 0 0 0 0)
(0.274994 -0.00115633 0 -0.0016794 0.0462825 0 0 0 0)
(0.251963 -0.00116215 0 -0.0017431 0.0461897 0 0 0 0)
(0.206203 -0.00115306 0 -0.00170472 0.0459432 0 0 0 0)
(0.133594 -0.000976629 0 -0.00128844 0.0455853 0 0 0 0)
(0.0578306 -0.000589415 0 -0.00056305 0.0453699 0 0 0 0)
(0.0140971 -0.00019046 0 -6.56281e-05 0.045321 0 0 0 0)
(0.0151518 -3.68923e-05 0 -3.77866e-05 0.0453114 0 0 0 0)
(0.0617979 -7.76628e-05 0 -7.70658e-05 0.0452507 0 0 0 0)
(0.140892 -0.000209602 0 -0.000267482 0.0450049 0 0 0 0)
(0.215818 -0.000408455 0 -0.00056501 0.0444236 0 0 0 0)
(0.263332 -0.000636357 0 -0.000897273 0.0434263 0 0 0 0)
(0.288769 -0.000856336 0 -0.00121852 0.0419993 0 0 0 0)
(0.302526 -0.00104686 0 -0.00150372 0.0401662 0 0 0 0)
(0.310369 -0.00119635 0 -0.00173793 0.0379664 0 0 0 0)
(0.314657 -0.00129836 0 -0.00191274 0.035456 0 0 0 0)
(0.316167 -0.00135063 0 -0.00202432 0.0327006 0 0 0 0)
(0.31475 -0.00135446 0 -0.00207232 0.0297677 0 0 0 0)
(0.309287 -0.001313 0 -0.00205925 0.0267285 0 0 0 0)
(0.297828 -0.00123591 0 -0.0019921 0.0236611 0 0 0 0)
(0.279698 -0.00112046 0 -0.00186975 0.0206148 0 0 0 0)
(0.258371 -0.000990756 0 -0.00170186 0.0177465 0 0 0 0)
(0.242106 -0.000767954 0 -0.00143715 0.0149517 0 0 0 0)
(0.221448 -0.000721571 0 -0.00125874 0.0132029 0 0 0 0)
(0.381493 -0.000737607 0 -0.00172638 0.00975331 0 0 0 0)
(2.41056 -0.000806485 0 -0.0013341 0.00674592 0 0 0 0)
(2.13224 -0.000487999 0 -0.000180668 0.00118249 0 0 0 0)
(2.33212 1.04503 0 -0.491089 0.413317 0 0 0 0)
(2.79414 1.20054 0 -0.779417 -0.0610544 0 0 0 0)
(0.713448 -0.0996426 0 -0.663198 -0.116498 0 0 0 0)
(0.323477 -0.467364 0 -0.403372 -0.0134779 0 0 0 0)
(0.109811 -0.314416 0 -0.228942 0.113487 0 0 0 0)
(0.0780073 -0.154537 0 -0.116818 0.133164 0 0 0 0)
(0.109397 -0.0822911 0 -0.0688738 0.120666 0 0 0 0)
(0.155676 -0.0475124 0 -0.0443316 0.109787 0 0 0 0)
(0.196312 -0.0270119 0 -0.024325 0.105246 0 0 0 0)
(0.235892 -0.014652 0 -0.0143696 0.100033 0 0 0 0)
(0.263149 -0.00793467 0 -0.00734559 0.0992213 0 0 0 0)
(0.279634 -0.00404485 0 -0.0037523 0.0997947 0 0 0 0)
(0.286481 -0.00193266 0 -0.00188009 0.101142 0 0 0 0)
(0.28529 -0.00097226 0 -0.00108365 0.102713 0 0 0 0)
(0.275479 -0.000649762 0 -0.000853459 0.104169 0 0 0 0)
(0.252475 -0.000701603 0 -0.000815594 0.105358 0 0 0 0)
(0.206823 -0.00084914 0 -0.000747323 0.106228 0 0 0 0)
(0.134193 -0.000733423 0 -0.000525611 0.106804 0 0 0 0)
(0.0581698 -0.000352701 0 -0.00020546 0.107162 0 0 0 0)
(0.0141775 -8.18437e-05 0 -2.21921e-05 0.107311 0 0 0 0)
(0.0151035 -6.05682e-05 0 -3.52642e-05 0.107316 0 0 0 0)
(0.0616203 -0.000250684 0 -0.000218418 0.107201 0 0 0 0)
(0.140565 -0.00067668 0 -0.000708888 0.106772 0 0 0 0)
(0.215404 -0.0012933 0 -0.00139808 0.105823 0 0 0 0)
(0.262901 -0.00198444 0 -0.00213347 0.104284 0 0 0 0)
(0.288365 -0.00266033 0 -0.00284687 0.102158 0 0 0 0)
(0.302173 -0.00327468 0 -0.00350748 0.0994779 0 0 0 0)
(0.310082 -0.0038059 0 -0.00409535 0.09628 0 0 0 0)
(0.314444 -0.0042412 0 -0.00459667 0.0925991 0 0 0 0)
(0.316032 -0.00457135 0 -0.00500228 0.0884728 0 0 0 0)
(0.314693 -0.0047913 0 -0.00530673 0.0839447 0 0 0 0)
(0.309304 -0.00489524 0 -0.00550629 0.0790629 0 0 0 0)
(0.297919 -0.00490353 0 -0.00559885 0.073899 0 0 0 0)
(0.279863 -0.00475135 0 -0.00555646 0.0684703 0 0 0 0)
(0.258645 -0.00456914 0 -0.00535104 0.0630895 0 0 0 0)
(0.242393 -0.003661 0 -0.00489135 0.0573485 0 0 0 0)
(0.221169 -0.00428411 0 -0.00459622 0.0540553 0 0 0 0)
(0.381372 -0.00543992 0 -0.00711928 0.0442645 0 0 0 0)
(2.41176 -0.00736894 0 -0.00636427 0.0337781 0 0 0 0)
(2.13317 -0.00481493 0 -0.00138565 0.011333 0 0 0 0)
(2.22768 0.69958 0 -0.0466881 0.395694 0 0 0 0)
(2.66615 0.860713 0 -0.172092 -0.149901 0 0 0 0)
(0.704546 -0.0377177 0 -0.234278 -0.153887 0 0 0 0)
(0.384162 -0.333491 0 -0.251758 -0.0329916 0 0 0 0)
(0.197434 -0.208187 0 -0.184951 0.108772 0 0 0 0)
(0.144154 -0.122238 0 -0.12051 0.156039 0 0 0 0)
(0.146847 -0.0801463 0 -0.069995 0.170763 0 0 0 0)
(0.180504 -0.0482102 0 -0.0469894 0.170922 0 0 0 0)
(0.213665 -0.0271049 0 -0.0248168 0.173192 0 0 0 0)
(0.244997 -0.0147512 0 -0.0122097 0.174142 0 0 0 0)
(0.268669 -0.00590067 0 -0.0045157 0.176189 0 0 0 0)
(0.282364 -0.00139599 0 -0.000517357 0.178814 0 0 0 0)
(0.287694 0.000838391 0 0.00131792 0.181483 0 0 0 0)
(0.285575 0.00154773 0 0.00189373 0.183987 0 0 0 0)
(0.275252 0.00139288 0 0.00176108 0.186151 0 0 0 0)
(0.252065 0.000822171 0 0.00124258 0.187944 0 0 0 0)
(0.206482 0.000240059 0 0.000592484 0.18942 0 0 0 0)
(0.134116 -7.66428e-05 0 9.16337e-05 0.190537 0 0 0 0)
(0.0583157 -0.000101051 0 -5.12653e-05 0.191124 0 0 0 0)
(0.0142611 -4.18977e-05 0 -1.28925e-05 0.191292 0 0 0 0)
(0.0149628 -0.000142657 0 -6.57648e-05 0.191289 0 0 0 0)
(0.0611488 -0.000602244 0 -0.000480383 0.19111 0 0 0 0)
(0.139755 -0.0015368 0 -0.00148992 0.190497 0 0 0 0)
(0.214445 -0.00280611 0 -0.00279398 0.189245 0 0 0 0)
(0.261936 -0.0041689 0 -0.00409947 0.187351 0 0 0 0)
(0.287445 -0.00548732 0 -0.00533686 0.184872 0 0 0 0)
(0.301323 -0.0067108 0 -0.00649642 0.18186 0 0 0 0)
(0.30932 -0.00782504 0 -0.00756634 0.178345 0 0 0 0)
(0.313783 -0.00882166 0 -0.00853305 0.174344 0 0 0 0)
(0.315483 -0.00969027 0 -0.00938559 0.169862 0 0 0 0)
(0.314264 -0.0104221 0 -0.0101159 0.164907 0 0 0 0)
(0.309005 -0.0109935 0 -0.0107121 0.159482 0 0 0 0)
(0.29778 -0.0114433 0 -0.0111457 0.15363 0 0 0 0)
(0.279937 -0.0115368 0 -0.011344 0.147308 0 0 0 0)
(0.259012 -0.0117081 0 -0.0111664 0.140958 0 0 0 0)
(0.242833 -0.0094737 0 -0.010889 0.133618 0 0 0 0)
(0.219301 -0.0133298 0 -0.0104777 0.130172 0 0 0 0)
(0.37979 -0.0202774 0 -0.0169662 0.114467 0 0 0 0)
(2.41609 -0.0325405 0 -0.0163969 0.0934628 0 0 0 0)
(2.13704 -0.0221169 0 -0.00578131 0.0509778 0 0 0 0)
(2.21128 0.519279 0 0.0372365 0.30038 0 0 0 0)
(2.61337 0.670946 0 -0.0176808 -0.0310736 0 0 0 0)
(0.636679 0.013016 0 -0.0805789 -0.0476097 0 0 0 0)
(0.371011 -0.214256 0 -0.144583 0.0646224 0 0 0 0)
(0.236286 -0.13226 0 -0.123711 0.174809 0 0 0 0)
(0.188783 -0.0948007 0 -0.0997827 0.201195 0 0 0 0)
(0.180244 -0.0679491 0 -0.0627126 0.219689 0 0 0 0)
(0.199211 -0.0451711 0 -0.0410721 0.225782 0 0 0 0)
(0.229827 -0.0239087 0 -0.0229536 0.229615 0 0 0 0)
(0.255455 -0.0117646 0 -0.00998456 0.233347 0 0 0 0)
(0.274416 -0.00343302 0 -0.00237183 0.235748 0 0 0 0)
(0.285255 0.00105654 0 0.00172677 0.23802 0 0 0 0)
(0.288805 0.00305288 0 0.00350724 0.240027 0 0 0 0)
(0.285717 0.00352621 0 0.00393542 0.241863 0 0 0 0)
(0.274851 0.0031629 0 0.00359985 0.243586 0 0 0 0)
(0.251349 0.0024482 0 0.0028357 0.245281 0 0 0 0)
(0.205714 0.00164987 0 0.00188573 0.246915 0 0 0 0)
(0.133572 0.000909409 0 0.000978656 0.248251 0 0 0 0)
(0.0580691 0.000374383 0 0.000314707 0.24902 0 0 0 0)
(0.0141636 7.69958e-05 0 2.37968e-05 0.249269 0 0 0 0)
(0.014653 -0.000235964 0 -9.02782e-05 0.249275 0 0 0 0)
(0.0602479 -0.00101373 0 -0.000806892 0.249074 0 0 0 0)
(0.138336 -0.00247344 0 -0.0024221 0.248417 0 0 0 0)
(0.212889 -0.00432554 0 -0.00435801 0.24715 0 0 0 0)
(0.260451 -0.00619849 0 -0.00615951 0.245371 0 0 0 0)
(0.286056 -0.0079513 0 -0.00779477 0.243203 0 0 0 0)
(0.300025 -0.00956409 0 -0.00931071 0.240719 0 0 0 0)
(0.30812 -0.0110492 0 -0.0107245 0.237955 0 0 0 0)
(0.312691 -0.0124159 0 -0.0120335 0.234924 0 0 0 0)
(0.314507 -0.013665 0 -0.0132329 0.231622 0 0 0 0)
(0.313415 -0.0147939 0 -0.0143146 0.22804 0 0 0 0)
(0.308312 -0.0157616 0 -0.0152611 0.224158 0 0 0 0)
(0.29731 -0.0166351 0 -0.015985 0.220022 0 0 0 0)
(0.279843 -0.0169627 0 -0.0163999 0.215516 0 0 0 0)
(0.259083 -0.0177611 0 -0.0162122 0.21122 0 0 0 0)
(0.243056 -0.0140547 0 -0.0169579 0.205219 0 0 0 0)
(0.215313 -0.0227383 0 -0.0165757 0.204018 0 0 0 0)
(0.375668 -0.0408145 0 -0.0252538 0.189955 0 0 0 0)
(2.42253 -0.0685498 0 -0.0251838 0.163894 0 0 0 0)
(2.1434 -0.045755 0 -0.0151423 0.128295 0 0 0 0)
(2.17476 0.380179 0 0.0405045 0.325162 0 0 0 0)
(2.55262 0.525378 0 0.0283838 0.0876747 0 0 0 0)
(0.582258 0.0544984 0 -0.0171331 0.0669478 0 0 0 0)
(0.342598 -0.119161 0 -0.0801543 0.144336 0 0 0 0)
(0.240605 -0.0765808 0 -0.0853025 0.217315 0 0 0 0)
(0.202935 -0.0789895 0 -0.0763964 0.232038 0 0 0 0)
(0.203423 -0.0564533 0 -0.0560156 0.248837 0 0 0 0)
(0.218817 -0.0386451 0 -0.0344365 0.258547 0 0 0 0)
(0.243622 -0.0198155 0 -0.0187136 0.263486 0 0 0 0)
(0.264831 -0.00884139 0 -0.00727224 0.267236 0 0 0 0)
(0.279955 -0.00139758 0 -0.000135389 0.269619 0 0 0 0)
(0.288029 0.00272745 0 0.00369217 0.271399 0 0 0 0)
(0.289823 0.00454148 0 0.00532162 0.272903 0 0 0 0)
(0.285665 0.00497758 0 0.0056062 0.274368 0 0 0 0)
(0.274193 0.00468704 0 0.00514513 0.275952 0 0 0 0)
(0.250413 0.00403009 0 0.00431861 0.277677 0 0 0 0)
(0.204692 0.0031023 0 0.00328025 0.279394 0 0 0 0)
(0.132602 0.00195107 0 0.00199552 0.280812 0 0 0 0)
(0.0573956 0.000879884 0 0.000721634 0.281622 0 0 0 0)
(0.0138709 0.000204303 0 6.32358e-05 0.28188 0 0 0 0)
(0.0141623 -0.000330981 0 -0.000114287 0.281888 0 0 0 0)
(0.0589018 -0.00142952 0 -0.00113818 0.281692 0 0 0 0)
(0.136333 -0.00339073 0 -0.0033571 0.281052 0 0 0 0)
(0.210844 -0.00574048 0 -0.00586684 0.279841 0 0 0 0)
(0.258624 -0.00797208 0 -0.00804223 0.278215 0 0 0 0)
(0.284409 -0.00997043 0 -0.00991266 0.27634 0 0 0 0)
(0.298499 -0.011768 0 -0.0116012 0.274309 0 0 0 0)
(0.306696 -0.0134099 0 -0.0131673 0.272165 0 0 0 0)
(0.311366 -0.0149245 0 -0.0146303 0.269926 0 0 0 0)
(0.313285 -0.0163233 0 -0.015992 0.2676 0 0 0 0)
(0.31231 -0.0176144 0 -0.017256 0.265175 0 0 0 0)
(0.307396 -0.0187206 0 -0.01836 0.262665 0 0 0 0)
(0.296682 -0.0197716 0 -0.019175 0.260123 0 0 0 0)
(0.279718 -0.0200188 0 -0.019634 0.257369 0 0 0 0)
(0.258474 -0.0216301 0 -0.0193335 0.255294 0 0 0 0)
(0.242483 -0.0164137 0 -0.0217335 0.250466 0 0 0 0)
(0.211307 -0.0280396 0 -0.0216692 0.251606 0 0 0 0)
(0.371494 -0.0589422 0 -0.027419 0.244396 0 0 0 0)
(2.42583 -0.0919575 0 -0.0268589 0.220071 0 0 0 0)
(2.14672 -0.0564209 0 -0.0294668 0.215942 0 0 0 0)
(2.1996 0.290428 0 0.0259244 0.405787 0 0 0 0)
(2.55783 0.422122 0 0.0322923 0.186372 0 0 0 0)
(0.532088 0.0676167 0 -0.00094991 0.153269 0 0 0 0)
(0.305321 -0.0693566 0 -0.0538885 0.199277 0 0 0 0)
(0.239907 -0.0477465 0 -0.0689715 0.235389 0 0 0 0)
(0.217005 -0.064425 0 -0.0583922 0.246734 0 0 0 0)
(0.220678 -0.0424037 0 -0.0456252 0.26388 0 0 0 0)
(0.235156 -0.0310544 0 -0.028486 0.274184 0 0 0 0)
(0.256003 -0.0155366 0 -0.0146312 0.279611 0 0 0 0)
(0.273358 -0.005855 0 -0.00446451 0.283559 0 0 0 0)
(0.284982 0.000579251 0 0.00186623 0.286117 0 0 0 0)
(0.290514 0.00422181 0 0.00522513 0.28797 0 0 0 0)
(0.290649 0.005914 0 0.00664239 0.289541 0 0 0 0)
(0.285547 0.00646379 0 0.00692276 0.291151 0 0 0 0)
(0.273611 0.00635092 0 0.00662131 0.292933 0 0 0 0)
(0.249552 0.00576552 0 0.00598239 0.294843 0 0 0 0)
(0.203475 0.00467115 0 0.00489878 0.296692 0 0 0 0)
(0.131107 0.0030566 0 0.0031258 0.298172 0 0 0 0)