/*--------------------------------*- C++ -*----------------------------------*\
| =========                 |                                                 |
| \\      /  F ield         | OpenFOAM: The Open Source CFD Toolbox           |
|  \\    /   O peration     | Version:  v1912                                 |
|   \\  /    A nd           | Website:  www.openfoam.com                      |
|    \\/     M anipulation  |                                                 |
\*---------------------------------------------------------------------------*/
FoamFile
{
    version     2.0;
    format      ascii;
    class       volScalarField;
    location    "2.2";
    object      Ma;
}
// * * * * * * * * * * * * * * * * * * * * * * * * * * * * * * * * * * * * * //

dimensions      [0 0 0 0 0 0 0];


internalField   nonuniform List<scalar> 
1900
(
0.193977
0.0500197
0.0506466
0.0512244
0.0529976
0.0555985
0.0589954
0.0627931
0.0663575
0.0621918
0.193983
0.0500167
0.0506458
0.0512161
0.0529576
0.0554096
0.0583722
0.0617807
0.0666635
0.0724127
0.193986
0.050014
0.0506442
0.0512094
0.0529267
0.055293
0.0581331
0.0616422
0.06704
0.076405
0.193983
0.0500167
0.0506458
0.0512161
0.0529576
0.0554096
0.0583722
0.0617807
0.0666635
0.0724127
0.193977
0.0500197
0.0506466
0.0512244
0.0529976
0.0555985
0.0589954
0.0627931
0.0663575
0.0621918
0.0724487
0.096788
0.122788
0.163702
0.276397
0.0885286
0.111383
0.143814
0.204905
0.31685
0.092358
0.113575
0.148186
0.213872
0.324641
0.0885286
0.111383
0.143814
0.204905
0.31685
0.0724487
0.096788
0.122788
0.163702
0.276397
0.313608
0.266094
0.246266
0.24564
0.346748
0.327519
0.274546
0.238245
0.20295
0.196422
0.335087
0.277433
0.231673
0.171106
0.0642017
0.327519
0.274546
0.238245
0.20295
0.196422
0.313608
0.266094
0.246266
0.24564
0.346748
0.619198
0.20176
0.26939
0.332648
0.376686
0.39471
0.391304
0.374354
0.349224
0.316338
0.278591
0.237562
0.195217
0.152961
0.11202
0.0737738
0.0405041
0.0160184
0.00354975
0.000408062
0.000441041
0.00396524
0.017332
0.0430835
0.0778422
0.117876
0.161117
0.206573
0.253705
0.302132
0.351484
0.401273
0.450707
0.498589
0.543801
0.586029
0.626145
0.661839
0.784513
1.60828
0.126883
0.218858
0.135811
0.287939
0.370931
0.392804
0.391088
0.374357
0.34905
0.316171
0.278456
0.237431
0.195103
0.152902
0.11201
0.0737803
0.0405095
0.0160195
0.00354095
0.000300491
0.00034211
0.0039553
0.0173294
0.0430817
0.0778401
0.117873
0.161113
0.206569
0.2537
0.302126
0.351478
0.401267
0.450701
0.498584
0.543797
0.586026
0.626142
0.661835
0.78451
1.60828
0.1876
0.29896
0.0288165
0.264386
0.369378
0.392239
0.391134
0.374277
0.348943
0.316101
0.278416
0.237411
0.1951
0.152901
0.112007
0.0737796
0.0405121
0.0160208
0.00353569
0.00021356
0.000268248
0.00394945
0.0173274
0.0430795
0.0778368
0.117868
0.161107
0.206561
0.253691
0.302116
0.351468
0.401256
0.45069
0.498574
0.543788
0.586019
0.626136
0.661829
0.784507
1.60829
0.126883
0.218858
0.135811
0.287939
0.370931
0.392804
0.391088
0.374357
0.34905
0.316171
0.278456
0.237431
0.195103
0.152902
0.11201
0.0737803
0.0405095
0.0160195
0.00354095
0.000300491
0.00034211
0.0039553
0.0173294
0.0430817
0.0778401
0.117873
0.161113
0.206569
0.2537
0.302126
0.351478
0.401267
0.450701
0.498584
0.543797
0.586026
0.626142
0.661835
0.78451
1.60828
0.619198
0.20176
0.26939
0.332648
0.376686
0.39471
0.391304
0.374354
0.349224
0.316338
0.278591
0.237562
0.195217
0.152961
0.11202
0.0737738
0.0405041
0.0160184
0.00354975
0.000408062
0.000441041
0.00396524
0.017332
0.0430835
0.0778422
0.117876
0.161117
0.206573
0.253705
0.302132
0.351484
0.401273
0.450707
0.498589
0.543801
0.586029
0.626145
0.661839
0.784513
1.60828
1.41952
0.544035
0.447668
0.401391
0.397577
0.402718
0.395184
0.375977
0.350458
0.317248
0.279134
0.237869
0.195407
0.153128
0.112204
0.0740014
0.0407857
0.0163747
0.0043175
0.00231858
0.00231707
0.00456906
0.0174753
0.0431348
0.0778649
0.117887
0.161123
0.206578
0.253711
0.302139
0.351493
0.401283
0.450718
0.498601
0.543813
0.586043
0.62616
0.661827
0.784507
1.60829
1.65438
0.73756
0.578764
0.476342
0.437959
0.42086
0.40574
0.382806
0.354845
0.32021
0.281093
0.239294
0.196542
0.154139
0.113203
0.0751072
0.0422969
0.0193365
0.0109143
0.0102628
0.0102608
0.0109818
0.0200954
0.0442161
0.0784245
0.118219
0.161336
0.206722
0.253815
0.302219
0.351562
0.401347
0.450781
0.498666
0.543882
0.586131
0.626256
0.66174
0.784449
1.60834
1.66173
0.77336
0.618689
0.519346
0.472779
0.443491
0.420401
0.393019
0.361228
0.324752
0.284501
0.242244
0.19946
0.157411
0.117314
0.0809108
0.0516376
0.0351355
0.0311833
0.0309371
0.0309331
0.0311648
0.0353532
0.0528056
0.0834466
0.121506
0.16368
0.208498
0.255225
0.303384
0.352557
0.402224
0.451574
0.499402
0.544595
0.586857
0.626982
0.661645
0.78438
1.60897
1.65738
0.782403
0.636774
0.551527
0.502888
0.467518
0.437
0.406193
0.3713
0.332806
0.29169
0.249396
0.207314
0.166751
0.129228
0.0971367
0.0743717
0.0639316
0.061813
0.0616875
0.061684
0.0617836
0.0639274
0.0748356
0.0986653
0.132231
0.171634
0.214676
0.260207
0.307529
0.356101
0.405329
0.454362
0.501971
0.547063
0.589199
0.629309
0.662316
0.784933
1.6117
1.64054
0.786021
0.646743
0.574163
0.528305
0.491639
0.457291
0.422698
0.385405
0.345544
0.304111
0.262498
0.222059
0.184218
0.150745
0.124121
0.107133
0.100132
0.0987901
0.0987189
0.0987163
0.0987624
0.100057
0.107199
0.124791
0.152509
0.187523
0.227439
0.270733
0.316424
0.363786
0.412107
0.460475
0.507615
0.552466
0.594109
0.634118
0.665356
0.787576
1.61772
1.6422
0.793679
0.659199
0.597244
0.555183
0.516478
0.480012
0.442799
0.403766
0.363162
0.322066
0.281821
0.243763
0.209332
0.180235
0.158447
0.145457
0.140392
0.139459
0.139421
0.13942
0.139439
0.140312
0.145361
0.158592
0.181021
0.211202
0.247204
0.287459
0.330813
0.376371
0.42331
0.470646
0.517035
0.561467
0.602105
0.641887
0.672217
0.793697
1.62641
1.65429
0.806568
0.675142
0.620312
0.581899
0.542054
0.504959
0.466113
0.426052
0.385368
0.345193
0.306832
0.271515
0.240566
0.215405
0.197384
0.1871
0.183235
0.182551
0.182536
0.182535
0.18254
0.183174
0.186967
0.197276
0.215566
0.241341
0.273319
0.310166
0.350725
0.394045
0.439177
0.485194
0.530516
0.574359
0.613477
0.653016
0.683682
0.804005
1.63669
1.66057
0.821431
0.694492
0.644484
0.608853
0.569007
0.532108
0.492196
0.451912
0.411659
0.372904
0.336676
0.304141
0.276398
0.254537
0.239387
0.231008
0.227951
0.227432
0.22743
0.227431
0.227428
0.227915
0.230899
0.239207
0.254387
0.276484
0.304759
0.3382
0.375815
0.416589
0.459744
0.504077
0.548124
0.591249
0.628481
0.667717
0.699835
0.818415
1.64644
1.67001
0.840983
0.717299
0.670119
0.636653
0.597562
0.561071
0.520999
0.48069
0.441625
0.404404
0.370461
0.340554
0.315658
0.296522
0.283591
0.276608
0.27412
0.273711
0.273716
0.273716
0.27371
0.274105
0.27654
0.283433
0.296283
0.31542
0.340477
0.370784
0.405429
0.443802
0.484449
0.527503
0.569544
0.612016
0.647445
0.686303
0.72018
0.836837
1.65793
1.67622
0.862567
0.743248
0.698146
0.665987
0.627588
0.592254
0.551242
0.512721
0.474174
0.439188
0.40731
0.379918
0.357499
0.340617
0.329422
0.323485
0.321406
0.321069
0.321075
0.321075
0.32107
0.321405
0.323455
0.329321
0.340409
0.357187
0.379558
0.407009
0.439129
0.474572
0.513876
0.553905
0.595477
0.635957
0.67038
0.709152
0.744339
0.857924
1.66512
1.68759
0.888394
0.772827
0.729537
0.696556
0.659781
0.623417
0.585299
0.545516
0.510169
0.476166
0.446779
0.421496
0.401249
0.386206
0.376378
0.37123
0.369445
0.369152
0.369156
0.369157
0.369154
0.36945
0.371226
0.37633
0.386072
0.400994
0.421107
0.446288
0.475602
0.509773
0.545038
0.586059
0.623137
0.664224
0.696775
0.736554
0.772474
0.883545
1.6779
1.69205
0.913816
0.803941
0.762078
0.727841
0.69152
0.658369
0.61702
0.583127
0.54632
0.515798
0.48776
0.464652
0.446145
0.432599
0.423829
0.419276
0.4177
0.417433
0.417434
0.417434
0.417435
0.417706
0.419283
0.423819
0.432538
0.44599
0.464364
0.487313
0.515197
0.545581
0.582207
0.616518
0.6567
0.693303
0.725539
0.766209
0.802087
0.908757
1.68165
1.70226
0.945601
0.839122
0.799841
0.760676
0.728301
0.689797
0.656718
0.617861
0.586842
0.555849
0.530203
0.508353
0.491294
0.478851
0.470866
0.466743
0.465315
0.465064
0.465061
0.465061
0.465064
0.465319
0.466754
0.470876
0.47884
0.49123
0.508195
0.529917
0.555376
0.586257
0.616846
0.656112
0.687789
0.728568
0.758242
0.801394
0.837737
0.941991
1.69476
1.70059
0.969781
0.8689
0.831596
0.789452
0.758713
0.724154
0.688024
0.656129
0.623352
0.595822
0.571253
0.551184
0.53528
0.523729
0.516315
0.512491
0.51116
0.510918
0.510911
0.510911
0.510918
0.511162
0.512499
0.516329
0.523742
0.535274
0.551133
0.57112
0.595569
0.622945
0.655501
0.687336
0.722751
0.758121
0.787243
0.831032
0.866478
0.966195
1.69392
1.70875
1.00763
0.909197
0.873115
0.826632
0.797511
0.758457
0.726964
0.692503
0.662875
0.635575
0.612347
0.592869
0.577649
0.566583
0.559466
0.555781
0.554488
0.554249
0.554239
0.554239
0.554249
0.554489
0.555786
0.559478
0.566603
0.577671
0.59288
0.612326
0.635499
0.662711
0.692214
0.72659
0.757747
0.797051
0.825546
0.872656
0.908267
1.00607
1.70525
1.70072
1.02883
0.936336
0.90158
0.853185
0.825133
0.785942
0.755879
0.72297
0.694179
0.668516
0.646806
0.629467
0.616119
0.606461
0.600156
0.596767
0.5955
0.595237
0.595221
0.595221
0.595237
0.5955
0.596769
0.600163
0.606476
0.616145
0.629502
0.64684
0.668542
0.694162
0.722921
0.755725
0.785673
0.824806
0.85257
0.901006
0.935502
1.02782
1.69858
1.69822
1.06882
0.980374
0.948473
0.900206
0.87097
0.828976
0.798276
0.763221
0.733808
0.70735
0.685728
0.668423
0.655146
0.64563
0.639404
0.63599
0.634688
0.634411
0.63439
0.63439
0.634411
0.634688
0.63599
0.639406
0.645638
0.655163
0.668453
0.685771
0.707406
0.733856
0.763279
0.798278
0.82896
0.870889
0.900013
0.948295
0.980142
1.06852
1.69756
1.65508
1.08123
1.00431
0.978609
0.933002
0.905086
0.863392
0.833366
0.798384
0.768604
0.741223
0.717773
0.698486
0.683887
0.674293
0.669304
0.667693
0.667629
0.667758
0.667787
0.667787
0.667758
0.667629
0.667693
0.669304
0.674297
0.6839
0.698511
0.717812
0.741277
0.768668
0.798463
0.833433
0.863466
0.905138
0.933033
0.978644
1.00439
1.0813
1.65533
1.68826
1.15145
1.07926
1.06516
1.02358
1.00137
0.961602
0.936229
0.903726
0.878168
0.853312
0.832767
0.815454
0.802471
0.793888
0.789476
0.78808
0.788003
0.788086
0.788103
0.788103
0.788086
0.788003
0.78808
0.789476
0.793889
0.802476
0.815466
0.832792
0.853352
0.878224
0.903805
0.936317
0.961714
1.00148
1.02369
1.06526
1.07935
1.15148
1.68821
2.30344
1.69111
1.65614
1.69813
1.69983
1.70692
1.69539
1.69596
1.68287
1.67866
1.66604
1.65816
1.64688
1.63687
1.62711
1.6196
1.61538
1.61402
1.61384
1.61383
1.61383
1.61384
1.61402
1.61538
1.6196
1.62711
1.63687
1.64688
1.65817
1.66605
1.67866
1.68287
1.69596
1.69539
1.70692
1.69984
1.69813
1.65616
1.69116
2.30345
2.30344
1.69111
1.65614
1.69813
1.69983
1.70692
1.69539
1.69596
1.68287
1.67866
1.66604
1.65816
1.64688
1.63687
1.62711
1.6196
1.61538
1.61402
1.61384
1.61383
1.61383
1.61384
1.61402
1.61538
1.6196
1.62711
1.63687
1.64688
1.65817
1.66605
1.67866
1.68287
1.69596
1.69539
1.70692
1.69984
1.69813
1.65616
1.69116
2.30345
1.68826
1.15145
1.07926
1.06516
1.02358
1.00137
0.961602
0.936229
0.903726
0.878168
0.853312
0.832767
0.815454
0.802471
0.793888
0.789476
0.78808
0.788003
0.788086
0.788103
0.788103
0.788086
0.788003
0.78808
0.789476
0.793889
0.802476
0.815466
0.832792
0.853352
0.878224
0.903805
0.936317
0.961714
1.00148
1.02369
1.06526
1.07935
1.15148
1.68821
1.65508
1.08123
1.00431
0.978609
0.933002
0.905086
0.863392
0.833366
0.798384
0.768604
0.741223
0.717773
0.698486
0.683887
0.674293
0.669304
0.667693
0.667629
0.667758
0.667787
0.667787
0.667758
0.667629
0.667693
0.669304
0.674297
0.6839
0.698511
0.717812
0.741277
0.768668
0.798463
0.833433
0.863466
0.905138
0.933033
0.978644
1.00439
1.0813
1.65533
1.69822
1.06882
0.980374
0.948473
0.900206
0.87097
0.828976
0.798276
0.763221
0.733808
0.70735
0.685728
0.668423
0.655146
0.64563
0.639404
0.63599
0.634688
0.634411
0.63439
0.63439
0.634411
0.634688
0.63599
0.639406
0.645638
0.655163
0.668453
0.685771
0.707406
0.733856
0.763279
0.798278
0.82896
0.870889
0.900013
0.948295
0.980142
1.06852
1.69756
1.70072
1.02883
0.936336
0.90158
0.853185
0.825133
0.785942
0.755879
0.72297
0.694179
0.668516
0.646806
0.629467
0.616119
0.606461
0.600156
0.596767
0.5955
0.595237
0.595221
0.595221
0.595237
0.5955
0.596769
0.600163
0.606476
0.616145
0.629502
0.64684
0.668542
0.694162
0.722921
0.755725
0.785673
0.824806
0.85257
0.901006
0.935502
1.02782
1.69858
1.70875
1.00763
0.909197
0.873115
0.826632
0.797511
0.758457
0.726964
0.692503
0.662875
0.635575
0.612347
0.592869
0.577649
0.566583
0.559466
0.555781
0.554488
0.554249
0.554239
0.554239
0.554249
0.554489
0.555786
0.559478
0.566603
0.577671
0.59288
0.612326
0.635499
0.662711
0.692214
0.72659
0.757747
0.797051
0.825546
0.872656
0.908267
1.00607
1.70525
1.70059
0.969781
0.8689
0.831596
0.789452
0.758713
0.724154
0.688024
0.656129
0.623352
0.595822
0.571253
0.551184
0.53528
0.523729
0.516315
0.512491
0.51116
0.510918
0.510911
0.510911
0.510918
0.511162
0.512499
0.516329
0.523742
0.535274
0.551133
0.57112
0.595569
0.622945
0.655501
0.687336
0.722751
0.758121
0.787243
0.831032
0.866478
0.966195
1.69392
1.70226
0.945601
0.839122
0.799841
0.760676
0.728301
0.689797
0.656718
0.617861
0.586842
0.555849
0.530203
0.508353
0.491294
0.478851
0.470866
0.466743
0.465315
0.465064
0.465061
0.465061
0.465064
0.465319
0.466754
0.470876
0.47884
0.49123
0.508195
0.529917
0.555376
0.586257
0.616846
0.656112
0.687789
0.728568
0.758242
0.801394
0.837737
0.941991
1.69476
1.69205
0.913816
0.803941
0.762078
0.727841
0.69152
0.658369
0.61702
0.583127
0.54632
0.515798
0.48776
0.464652
0.446145
0.432599
0.423829
0.419276
0.4177
0.417433
0.417434
0.417434
0.417435
0.417706
0.419283
0.423819
0.432538
0.44599
0.464364
0.487313
0.515197
0.545581
0.582207
0.616518
0.6567
0.693303
0.725539
0.766209
0.802087
0.908757
1.68165
1.68759
0.888394
0.772827
0.729537
0.696556
0.659781
0.623417
0.585299
0.545516
0.510169
0.476166
0.446779
0.421496
0.401249
0.386206
0.376378
0.37123
0.369445
0.369152
0.369156
0.369157
0.369154
0.36945
0.371226
0.37633
0.386072
0.400994
0.421107
0.446288
0.475602
0.509773
0.545038
0.586059
0.623137
0.664224
0.696775
0.736554
0.772474
0.883545
1.6779
1.67622
0.862567
0.743248
0.698146
0.665987
0.627588
0.592254
0.551242
0.512721
0.474174
0.439188
0.40731
0.379918
0.357499
0.340617
0.329422
0.323485
0.321406
0.321069
0.321075
0.321075
0.32107
0.321405
0.323455
0.329321
0.340409
0.357187
0.379558
0.407009
0.439129
0.474572
0.513876
0.553905
0.595477
0.635957
0.67038
0.709152
0.744339
0.857924
1.66512
1.67001
0.840983
0.717299
0.670119
0.636653
0.597562
0.561071
0.520999
0.48069
0.441625
0.404404
0.370461
0.340554
0.315658
0.296522
0.283591
0.276608
0.27412
0.273711
0.273716
0.273716
0.27371
0.274105
0.27654
0.283433
0.296283
0.31542
0.340477
0.370784
0.405429
0.443802
0.484449
0.527503
0.569544
0.612016
0.647445
0.686303
0.72018
0.836837
1.65793
1.66057
0.821431
0.694492
0.644484
0.608853
0.569007
0.532108
0.492196
0.451912
0.411659
0.372904
0.336676
0.304141
0.276398
0.254537
0.239387
0.231008
0.227951
0.227432
0.22743
0.227431
0.227428
0.227915
0.230899
0.239207
0.254387
0.276484
0.304759
0.3382
0.375815
0.416589
0.459744
0.504077
0.548124
0.591249
0.628481
0.667717
0.699835
0.818415
1.64644
1.65429
0.806568
0.675142
0.620312
0.581899
0.542054
0.504959
0.466113
0.426052
0.385368
0.345193
0.306832
0.271515
0.240566
0.215405
0.197384
0.1871
0.183235
0.182551
0.182536
0.182535
0.18254
0.183174
0.186967
0.197276
0.215566
0.241341
0.273319
0.310166
0.350725
0.394045
0.439177
0.485194
0.530516
0.574359
0.613477
0.653016
0.683682
0.804005
1.63669
1.6422
0.793679
0.659199
0.597244
0.555183
0.516478
0.480012
0.442799
0.403766
0.363162
0.322066
0.281821
0.243763
0.209332
0.180235
0.158447
0.145457
0.140392
0.139459
0.139421
0.13942
0.139439
0.140312
0.145361
0.158592
0.181021
0.211202
0.247204
0.287459
0.330813
0.376371
0.42331
0.470646
0.517035
0.561467
0.602105
0.641887
0.672217
0.793697
1.62641
1.64054
0.786021
0.646743
0.574163
0.528305
0.491639
0.457291
0.422698
0.385405
0.345544
0.304111
0.262498
0.222059
0.184218
0.150745
0.124121
0.107133
0.100132
0.0987901
0.0987189
0.0987163
0.0987624
0.100057
0.107199
0.124791
0.152509
0.187523
0.227439
0.270733
0.316424
0.363786
0.412107
0.460475
0.507615
0.552466
0.594109
0.634118
0.665356
0.787576
1.61772
1.65738
0.782403
0.636774
0.551527
0.502888
0.467518
0.437
0.406193
0.3713
0.332806
0.29169
0.249396
0.207314
0.166751
0.129228
0.0971367
0.0743717
0.0639316
0.061813
0.0616875
0.061684
0.0617836
0.0639274
0.0748356
0.0986653
0.132231
0.171634
0.214676
0.260207
0.307529
0.356101
0.405329
0.454362
0.501971
0.547063
0.589199
0.629309
0.662316
0.784933
1.6117
1.66173
0.77336
0.618689
0.519346
0.472779
0.443491
0.420401
0.393019
0.361228
0.324752
0.284501
0.242244
0.19946
0.157411
0.117314
0.0809108
0.0516376
0.0351355
0.0311833
0.0309371
0.0309331
0.0311648
0.0353532
0.0528056
0.0834466
0.121506
0.16368
0.208498
0.255225
0.303384
0.352557
0.402224
0.451574
0.499402
0.544595
0.586857
0.626982
0.661645
0.78438
1.60897
1.65438
0.73756
0.578764
0.476342
0.437959
0.42086
0.40574
0.382806
0.354845
0.32021
0.281093
0.239294
0.196542
0.154139
0.113203
0.0751072
0.0422969
0.0193365
0.0109143
0.0102628
0.0102608
0.0109818
0.0200954
0.0442161
0.0784245
0.118219
0.161336
0.206722
0.253815
0.302219
0.351562
0.401347
0.450781
0.498666
0.543882
0.586131
0.626256
0.66174
0.784449
1.60834
1.41952
0.544035
0.447668
0.401391
0.397577
0.402718
0.395184
0.375977
0.350458
0.317248
0.279134
0.237869
0.195407
0.153128
0.112204
0.0740014
0.0407857
0.0163747
0.0043175
0.00231858
0.00231707
0.00456906
0.0174753
0.0431348
0.0778649
0.117887
0.161123
0.206578
0.253711
0.302139
0.351493
0.401283
0.450718
0.498601
0.543813
0.586043
0.62616
0.661827
0.784507
1.60829
)
;

boundaryField
{
    inlet
    {
        type            calculated;
        value           uniform 0;
    }
    outlet
    {
        type            calculated;
        value           nonuniform List<scalar> 
165
(
1.41952
1.65438
1.66173
1.65738
1.64054
1.6422
1.65429
1.66057
1.67001
1.67622
1.68759
1.69205
1.70226
1.70059
1.70875
1.70072
1.69822
1.65508
1.68826
2.30344
2.30344
1.69111
1.65614
1.69813
1.69983
1.70692
1.69539
1.69596
1.68287
1.67866
1.66604
1.65816
1.64688
1.63687
1.62711
1.6196
1.61538
1.61402
1.61384
1.61383
1.61383
1.61384
1.61402
1.61538
1.6196
1.62711
1.63687
1.64688
1.65817
1.66605
1.67866
1.68287
1.69596
1.69539
1.70692
1.69984
1.69813
1.65616
1.69116
2.30345
1.60829
1.60834
1.60897
1.6117
1.61772
1.62641
1.63669
1.64644
1.65793
1.66512
1.6779
1.68165
1.69476
1.69392
1.70525
1.69858
1.69756
1.65533
1.68821
2.30345
1.60828
1.60828
1.60829
1.60828
1.60828
2.30345
1.68821
1.65533
1.69756
1.69858
1.70525
1.69392
1.69476
1.68165
1.6779
1.66512
1.65793
1.64644
1.63669
1.62641
1.61772
1.6117
1.60897
1.60834
1.60829
2.30344
1.69111
1.65614
1.69813
1.69983
1.70692
1.69539
1.69596
1.68287
1.67866
1.66604
1.65816
1.64688
1.63687
1.62711
1.6196
1.61538
1.61402
1.61384
1.61383
1.61383
1.61384
1.61402
1.61538
1.6196
1.62711
1.63687
1.64688
1.65817
1.66605
1.67866
1.68287
1.69596
1.69539
1.70692
1.69984
1.69813
1.65616
1.69116
2.30345
2.30344
1.68826
1.65508
1.69822
1.70072
1.70875
1.70059
1.70226
1.69205
1.68759
1.67622
1.67001
1.66057
1.65429
1.6422
1.64054
1.65738
1.66173
1.65438
1.41952
)
;
    }
    obstacle
    {
        type            calculated;
        value           nonuniform List<scalar> 
40
(
0.193977
0.0500197
0.0506466
0.0512244
0.0529975
0.0555981
0.0589942
0.062792
0.0662973
0.0611613
0.193977
0.0500197
0.0506466
0.0512244
0.0529975
0.0555981
0.0589942
0.062792
0.0662973
0.0611613
0.0717547
0.0958491
0.122432
0.163175
0.260654
0.0717547
0.0958491
0.122432
0.163175
0.260654
0.312997
0.26602
0.246243
0.24501
0.339717
0.312997
0.26602
0.246243
0.24501
0.339717
)
;
    }
    empty
    {
        type            empty;
    }
}


// ************************************************************************* //
