/*--------------------------------*- C++ -*----------------------------------*\
| =========                 |                                                 |
| \\      /  F ield         | OpenFOAM: The Open Source CFD Toolbox           |
|  \\    /   O peration     | Version:  v1912                                 |
|   \\  /    A nd           | Website:  www.openfoam.com                      |
|    \\/     M anipulation  |                                                 |
\*---------------------------------------------------------------------------*/
FoamFile
{
    version     2.0;
    format      ascii;
    class       volVectorField;
    location    "2.1";
    object      grad(p);
}
// * * * * * * * * * * * * * * * * * * * * * * * * * * * * * * * * * * * * * //

dimensions      [1 -2 -2 0 0 0 0];


internalField   nonuniform List<vector> 
1900
(
(16603.8 0.308951 0)
(-9211.41 0.0198257 0)
(-76.6385 -0.956142 0)
(103.962 -1.58088 0)
(204.91 -3.04826 0)
(325.212 -5.07728 0)
(431.721 -11.4175 0)
(483.127 -42.1264 0)
(621.866 -68.1745 0)
(48.5829 -61.8137 0)
(16604.1 0.762396 0)
(-9212.68 0.139923 0)
(-78.2392 -1.66534 0)
(101.87 -2.93467 0)
(201.414 -5.76525 0)
(316.843 -7.39386 0)
(394.672 -9.66378 0)
(426.37 -30.8273 0)
(602.178 -20.3402 0)
(745.179 -82.1513 0)
(16604.7 1.84741e-09 0)
(-9213.84 -4.9738e-10 0)
(-79.7131 -1.74083e-09 0)
(99.8619 -2.14939e-09 0)
(200.451 -3.73035e-10 0)
(321.314 1.58096e-09 0)
(408.288 2.18492e-09 0)
(472.45 1.1724e-09 0)
(570.542 3.73035e-10 0)
(613.858 -1.58096e-09 0)
(16604.1 -0.762396 0)
(-9212.68 -0.139923 0)
(-78.2392 1.66534 0)
(101.87 2.93467 0)
(201.414 5.76525 0)
(316.843 7.39386 0)
(394.672 9.66378 0)
(426.37 30.8273 0)
(602.178 20.3402 0)
(745.179 82.1513 0)
(16603.8 -0.308951 0)
(-9211.41 -0.0198257 0)
(-76.6385 0.956142 0)
(103.962 1.58088 0)
(204.91 3.04826 0)
(325.212 5.07728 0)
(431.721 11.4175 0)
(483.127 42.1264 0)
(621.866 68.1745 0)
(48.5829 61.8137 0)
(68.6455 526.492 1.06907e-11)
(605.459 625.426 -1.31503e-11)
(-922.528 616.069 -1.66692e-11)
(-8544.1 1772.02 0)
(-3043.53 11840.1 -6.4521e-11)
(793.132 450.071 1.07858e-11)
(455.535 399.666 1.31503e-11)
(-435.319 202.066 1.66692e-11)
(-3899.92 665.387 0)
(-1863.34 9646.14 0)
(788.209 -3.37894e-10 0)
(436.111 -1.94776e-10 0)
(-635.775 -2.1711e-09 0)
(-3675.98 9.42007e-10 0)
(3478.95 -2.48478e-09 0)
(793.132 -450.071 1.07858e-11)
(455.535 -399.666 1.31503e-11)
(-435.319 -202.066 1.66692e-11)
(-3899.92 -665.387 0)
(-1863.34 -9646.14 0)
(68.6455 -526.492 -3.22623e-11)
(605.459 -625.426 -1.31503e-11)
(-922.528 -616.069 -1.66692e-11)
(-8544.1 -1772.02 -4.48533e-11)
(-3043.53 -11840.1 6.4521e-11)
(13021 -3871 3.32484e-11)
(1863.92 -622.874 -2.8347e-11)
(1804.62 -102.1 0)
(1215.62 2069.35 2.23481e-11)
(-9969.71 -1293.76 -1.0073e-11)
(8902.78 -4062.43 -1.65659e-11)
(2747.84 -471.326 1.41641e-11)
(2791.42 -308.858 0)
(586.999 606.122 -1.40111e-11)
(-9564.08 -7514.17 2.45192e-12)
(9929.15 -1.7943e-09 0)
(2760.23 -2.20147e-09 0)
(2180.62 2.8948e-09 0)
(-2203.18 -2.78644e-09 5.61174e-12)
(-12073.1 -1.16346e-08 -4.90384e-12)
(8902.78 4062.43 -1.65659e-11)
(2747.84 471.326 1.41641e-11)
(2791.42 308.858 0)
(586.999 -606.122 -1.40111e-11)
(-9564.08 7514.17 2.45192e-12)
(13021 3871 1.65659e-11)
(1863.92 622.874 1.87589e-14)
(1804.62 102.1 0)
(1215.62 -2069.35 6.2322e-14)
(-9969.71 1293.76 1.0073e-11)
(-29646.4 -6522.33 0)
(-17902.8 7569.1 0)
(2372.13 3790.28 0)
(777.127 1333.72 0)
(86.6886 563.35 0)
(690.044 271.443 0)
(1156.94 148.985 0)
(1594.03 109.611 0)
(2120.65 84.9254 0)
(2548.26 64.9766 0)
(2934.92 56.6883 0)
(3218.9 52.0237 0)
(3414.76 50.6094 0)
(3503.8 49.8835 0)
(3422.97 48.5896 0)
(3026.68 48.1365 0)
(2172 44.5575 0)
(1068.91 36.8652 0)
(290.883 29.4482 0)
(30.9922 27.3483 0)
(-36.4922 27.2528 0)
(-322.065 27.1938 0)
(-1147.41 26.9026 0)
(-2287.66 25.9744 0)
(-3154.15 24.2547 0)
(-3555.07 21.8969 0)
(-3652.17 19.1369 0)
(-3602.39 16.2019 0)
(-3482.15 13.2902 0)
(-3323.18 10.5609 0)
(-3137.88 8.12731 0)
(-2927.14 6.05543 0)
(-2682.86 4.36836 0)
(-2396.79 3.05086 0)
(-2094.53 2.07352 0)
(-1834.62 1.37066 0)
(-1643.24 0.930524 0)
(-2332.15 0.55631 0)
(51252.1 0.297788 0)
(-73103.7 0.0575785 0)
(-27766.1 -3399.11 0)
(-18293.6 9663.92 0)
(1274.67 3847.85 0)
(137.004 753.464 0)
(5.41977 307.737 0)
(635.699 136.622 0)
(1136.44 33.5838 0)
(1591.86 37.1501 0)
(2115.3 21.9239 0)
(2545.06 12.5959 0)
(2932.47 6.13522 0)
(3216.97 0.879405 0)
(3413.22 -2.15047 0)
(3502.18 -5.27707 0)
(3422.12 -8.73162 0)
(3026.94 -8.57564 0)
(2172.04 -7.67881 0)
(1068.51 -8.76594 0)
(290.688 -9.7334 0)
(31.0057 -9.64636 0)
(-36.4862 -9.63572 0)
(-322.041 -9.61432 0)
(-1147.34 -9.51259 0)
(-2287.51 -9.21418 0)
(-3153.93 -8.69806 0)
(-3554.8 -8.02193 0)
(-3651.87 -7.2405 0)
(-3602.06 -6.39389 0)
(-3481.82 -5.51595 0)
(-3322.85 -4.63897 0)
(-3137.57 -3.79441 0)
(-2926.85 -3.01127 0)
(-2682.61 -2.31397 0)
(-2396.59 -1.71846 0)
(-2094.36 -1.23669 0)
(-1834.5 -0.860511 0)
(-1643.15 -0.604303 0)
(-2332.07 -0.382851 0)
(51252.2 -0.219637 0)
(-73103.7 -0.0475755 0)
(-24522.1 3.35893e-09 0)
(-15794.6 1.13041e-10 0)
(-220.002 -1.13041e-09 0)
(-252.724 1.93784e-10 0)
(-92.7561 -2.58379e-10 0)
(610.29 -7.91286e-10 0)
(1128 -7.75138e-10 0)
(1590.64 -2.26082e-10 0)
(2113.51 -1.16271e-09 0)
(2543.67 -2.03474e-09 0)
(2931.52 -2.19622e-09 0)
(3216.49 -2.74528e-09 0)
(3412.97 1.93461e-08 0)
(3501.89 6.42718e-08 0)
(3422.01 -4.37953e-08 0)
(3026.98 -7.43228e-07 0)
(2171.95 -4.73325e-06 0)
(1068.31 4.53204e-06 0)
(290.627 -2.97118e-05 0)
(31.0206 -5.77326e-06 0)
(-36.4829 -9.73731e-06 0)
(-322.029 2.74453e-05 0)
(-1147.3 1.51245e-05 0)
(-2287.42 -6.52831e-05 0)
(-3153.8 -2.92128e-05 0)
(-3554.65 -4.40684e-05 0)
(-3651.7 -2.78351e-05 0)
(-3601.88 -1.5013e-05 0)
(-3481.64 3.96612e-07 0)
(-3322.68 1.42938e-05 0)
(-3137.4 1.98911e-05 0)
(-2926.71 3.11969e-05 0)
(-2682.48 2.89902e-05 0)
(-2396.48 2.8243e-05 0)
(-2094.28 2.05328e-05 0)
(-1834.44 1.35383e-05 0)
(-1643.1 -3.33017e-06 0)
(-2332.04 -3.33905e-06 0)
(51252.2 -3.28282e-06 0)
(-73103.6 -3.08343e-06 0)
(-27766.1 3399.11 0)
(-18293.6 -9663.92 0)
(1274.67 -3847.85 0)
(137.004 -753.464 0)
(5.41977 -307.737 0)
(635.699 -136.622 0)
(1136.44 -33.5838 0)
(1591.86 -37.1501 0)
(2115.3 -21.9239 0)
(2545.06 -12.5959 0)
(2932.47 -6.13522 0)
(3216.97 -0.879405 0)
(3413.22 2.15047 0)
(3502.18 5.27707 0)
(3422.12 8.73162 0)
(3026.94 8.57564 0)
(2172.04 7.6788 0)
(1068.51 8.76595 0)
(290.688 9.73335 0)
(31.0057 9.64635 0)
(-36.4862 9.6357 0)
(-322.041 9.61436 0)
(-1147.34 9.51261 0)
(-2287.51 9.21408 0)
(-3153.93 8.69802 0)
(-3554.8 8.02186 0)
(-3651.87 7.24045 0)
(-3602.06 6.39387 0)
(-3481.82 5.51595 0)
(-3322.85 4.63899 0)
(-3137.57 3.79445 0)
(-2926.85 3.01132 0)
(-2682.61 2.31402 0)
(-2396.59 1.71851 0)
(-2094.36 1.23673 0)
(-1834.5 0.860534 0)
(-1643.15 0.604297 0)
(-2332.07 0.382845 0)
(51252.2 0.219631 0)
(-73103.7 0.0475694 0)
(-29646.4 6522.33 0)
(-17902.8 -7569.1 0)
(2372.13 -3790.28 0)
(777.127 -1333.72 0)
(86.6886 -563.35 0)
(690.044 -271.443 0)
(1156.94 -148.985 0)
(1594.03 -109.611 0)
(2120.65 -84.9254 0)
(2548.26 -64.9766 0)
(2934.92 -56.6883 0)
(3218.9 -52.0237 0)
(3414.76 -50.6094 0)
(3503.8 -49.8835 0)
(3422.97 -48.5896 0)
(3026.68 -48.1365 0)
(2172 -44.5575 0)
(1068.91 -36.8652 0)
(290.883 -29.4481 0)
(30.9922 -27.3483 0)
(-36.4922 -27.2528 0)
(-322.065 -27.1939 0)
(-1147.41 -26.9027 0)
(-2287.66 -25.9743 0)
(-3154.15 -24.2546 0)
(-3555.07 -21.8969 0)
(-3652.17 -19.1369 0)
(-3602.39 -16.2019 0)
(-3482.15 -13.2902 0)
(-3323.18 -10.5609 0)
(-3137.88 -8.12734 0)
(-2927.14 -6.05546 0)
(-2682.86 -4.36839 0)
(-2396.79 -3.0509 0)
(-2094.53 -2.07355 0)
(-1834.62 -1.37068 0)
(-1643.24 -0.930521 0)
(-2332.15 -0.556306 0)
(51252.1 -0.297785 0)
(-73103.7 -0.0575762 0)
(53239 16137.6 0)
(-25214.3 -4822.63 0)
(3917.01 -2421.62 0)
(1421.03 -1970.14 0)
(577.788 -905.826 0)
(832.783 -483.052 0)
(1214.25 -367.806 0)
(1629.53 -248.315 0)
(2137.1 -210.521 0)
(2559.07 -172.188 0)
(2937.75 -161.732 0)
(3218.55 -160.721 0)
(3412.78 -166.542 0)
(3501.56 -175.027 0)
(3422.24 -184.101 0)
(3029.78 -190.033 0)
(2179.16 -189.03 0)
(1077.52 -180.984 0)
(296.432 -173.077 0)
(32.3984 -170.746 0)
(-36.3825 -170.637 0)
(-321.795 -170.379 0)
(-1146.49 -168.654 0)
(-2285.67 -163.376 0)
(-3151.11 -154.088 0)
(-3551.28 -141.81 0)
(-3647.94 -127.678 0)
(-3598.02 -112.605 0)
(-3477.9 -97.3323 0)
(-3319.23 -82.4645 0)
(-3134.38 -68.4826 0)
(-2924.17 -55.7411 0)
(-2680.44 -44.479 0)
(-2394.91 -34.807 0)
(-2093.12 -26.837 0)
(-1833.64 -20.3624 0)
(-1642.53 -15.7664 0)
(-2331.59 -10.8865 0)
(51252.6 -6.88887 0)
(-73103.4 -3.28509 0)
(57531.6 12530.5 0)
(-31866.5 -1677.57 0)
(4292.48 -1760.62 0)
(1892.52 -1715.86 0)
(1256.36 -1174.35 0)
(1131.96 -803.153 0)
(1352.4 -684.357 0)
(1726.57 -545.933 0)
(2185.19 -524.784 0)
(2589.48 -493.464 0)
(2944.46 -505.294 0)
(3214.45 -533.303 0)
(3402.04 -574.05 0)
(3488.09 -620.364 0)
(3408.9 -666.818 0)
(3020.26 -707.301 0)
(2176.89 -734.364 0)
(1079.66 -743.541 0)
(297.773 -743.248 0)
(32.5893 -742.711 0)
(-36.1972 -742.66 0)
(-320.298 -741.663 0)
(-1141.16 -734.439 0)
(-2274.69 -713.255 0)
(-3135 -677.656 0)
(-3531.66 -632.436 0)
(-3626.3 -581.789 0)
(-3575.48 -528.416 0)
(-3455.39 -474.175 0)
(-3297.49 -420.492 0)
(-3114 -368.519 0)
(-2905.6 -319.194 0)
(-2663.98 -273.324 0)
(-2380.81 -231.548 0)
(-2081.36 -194.836 0)
(-1824.48 -162.687 0)
(-1634.49 -137.135 0)
(-2323.89 -105.643 0)
(51259.2 -75.6009 0)
(-73094.1 -79.434 0)
(63697.3 10887.1 0)
(-38985.8 -596.965 0)
(3880.11 -1440.44 0)
(1985.98 -1512.26 0)
(1457.3 -1369.92 0)
(1304.96 -1211.08 0)
(1462.12 -1200.06 0)
(1783.3 -1132.75 0)
(2187.66 -1136.99 0)
(2577.85 -1158.75 0)
(2899.36 -1220.05 0)
(3152.3 -1305.23 0)
(3328.89 -1406.1 0)
(3412.17 -1514.2 0)
(3338.47 -1621.18 0)
(2964.69 -1716.8 0)
(2144.24 -1787.91 0)
(1068.96 -1823.93 0)
(297.232 -1832.36 0)
(32.9648 -1832.81 0)
(-35.3723 -1832.74 0)
(-313.873 -1830.2 0)
(-1119.11 -1812.34 0)
(-2230.95 -1762.04 0)
(-3073.23 -1680.78 0)
(-3458.9 -1581.12 0)
(-3547.7 -1472.58 0)
(-3494.32 -1360.37 0)
(-3373.9 -1247.52 0)
(-3217.42 -1136.1 0)
(-3036.77 -1027.62 0)
(-2832.43 -923.39 0)
(-2595.98 -824.7 0)
(-2319.27 -732.973 0)
(-2026.76 -650.456 0)
(-1778.04 -576.114 0)
(-1587.56 -509.171 0)
(-2272.29 -424.727 0)
(51277.8 -333.389 0)
(-72954 -652.806 0)
(67447.5 5569.94 0)
(-43745.8 -731.374 0)
(3410.47 -1479.76 0)
(1960.48 -1710.92 0)
(1546.59 -1862.05 0)
(1295.64 -1852.27 0)
(1427.88 -1846.43 0)
(1787.35 -1825.97 0)
(2160.13 -1836.74 0)
(2509.44 -1895.73 0)
(2803.3 -1988.75 0)
(3035.16 -2110.5 0)
(3200.66 -2249.96 0)
(3280.82 -2397.92 0)
(3213.67 -2544.95 0)
(2859.6 -2679.72 0)
(2073.65 -2786.5 0)
(1036.82 -2848.69 0)
(289.216 -2868.93 0)
(32.2279 -2871.49 0)
(-33.679 -2871.43 0)
(-300.643 -2867.18 0)
(-1075.48 -2838.28 0)
(-2147.92 -2760.23 0)
(-2960.66 -2638.96 0)
(-3331.03 -2495.09 0)
(-3413.57 -2342.57 0)
(-3358.62 -2188.25 0)
(-3239.27 -2035.54 0)
(-3085.59 -1886.41 0)
(-2909.03 -1742.16 0)
(-2710.05 -1603.89 0)
(-2480.49 -1473.01 0)
(-2212.9 -1351.74 0)
(-1930.21 -1242.55 0)
(-1688.33 -1143.72 0)
(-1488.61 -1039.75 0)
(-2154.5 -921.893 0)
(51039.4 -779.182 0)
(-72143.7 -2454.62 0)
(68359.9 3148.56 0)
(-45779.1 -1115.86 0)
(2936.18 -1723.46 0)
(1617.6 -2075.59 0)
(1321.1 -2321.74 0)
(1320 -2364.7 0)
(1487.45 -2307.61 0)
(1792.64 -2287.93 0)
(2120.45 -2308.82 0)
(2431.37 -2372.25 0)
(2692.4 -2473.82 0)
(2900.59 -2604.44 0)
(3051.91 -2754.14 0)
(3127.9 -2913.01 0)
(3066.91 -3072.1 0)
(2731.93 -3221.49 0)
(1981.41 -3346.11 0)
(989.519 -3425.76 0)
(275.263 -3455.26 0)
(30.5605 -3459.59 0)
(-31.2221 -3459.55 0)
(-281.925 -3453.96 0)
(-1016.05 -3417.11 0)
(-2038.89 -3321.42 0)
(-2817.74 -3177.93 0)
(-3173.29 -3012.25 0)
(-3252.02 -2840.2 0)
(-3198.45 -2669 0)
(-3083.04 -2502.01 0)
(-2934.71 -2340.95 0)
(-2764.51 -2186.89 0)
(-2573.07 -2040.75 0)
(-2353 -1904.27 0)
(-2097.2 -1780.32 0)
(-1826.3 -1670.04 0)
(-1582.61 -1570.28 0)
(-1373.8 -1450.53 0)
(-2021.2 -1346.67 0)
(49800.8 -1203.22 0)
(-69837.8 -5331.13 0)
(69406.3 -2951.35 0)
(-48440.6 -1648.97 0)
(2485.64 -2065.52 0)
(1383.96 -2341.54 0)
(1267.99 -2406.43 0)
(1309.25 -2465.91 0)
(1501.87 -2456.33 0)
(1786.19 -2457.16 0)
(2078.87 -2483.77 0)
(2350.44 -2551.78 0)
(2579.56 -2655.12 0)
(2765.04 -2785.06 0)
(2903.31 -2931.92 0)
(2974.42 -3087.66 0)
(2916.41 -3245.55 0)
(2595.57 -3397.94 0)
(1876.81 -3531.17 0)
(931.634 -3622.27 0)
(256.619 -3658.68 0)
(28.0972 -3664.38 0)
(-28.2524 -3664.36 0)
(-259.746 -3657.91 0)
(-947.766 -3616.3 0)
(-1917.44 -3511.55 0)
(-2662.73 -3359.15 0)
(-3005.58 -3186.9 0)
(-3082.8 -3010.46 0)
(-3032.72 -2836.66 0)
(-2923.15 -2668.52 0)
(-2781.93 -2507.63 0)
(-2619.74 -2354.79 0)
(-2437.71 -2211.22 0)
(-2229.53 -2078.75 0)
(-1987.18 -1961.1 0)
(-1727.81 -1856.34 0)
(-1476.81 -1760.41 0)
(-1273.13 -1642.25 0)
(-1916.19 -1575.6 0)
(47199.8 -1454.42 0)
(-65847 -7958.87 0)
(63926.8 -8792.29 0)
(-44925.5 -1827.43 0)
(2268.8 -2137.16 0)
(1289.09 -2259.19 0)
(1201.25 -2350.14 0)
(1271.91 -2425.85 0)
(1495.88 -2433.9 0)
(1766.21 -2449.67 0)
(2029.28 -2487.02 0)
(2266.24 -2561.05 0)
(2467.6 -2665.07 0)
(2633.86 -2791.32 0)
(2760.32 -2931.69 0)
(2825.68 -3080.68 0)
(2767.91 -3233.7 0)
(2456.69 -3385.01 0)
(1765.24 -3522.46 0)
(866.65 -3621.07 0)
(234.691 -3662.09 0)
(25.0856 -3668.64 0)
(-24.9919 -3668.64 0)
(-235.611 -3661.76 0)
(-875.008 -3617.64 0)
(-1791.09 -3508.84 0)
(-2504.89 -3354.34 0)
(-2837.28 -3182.76 0)
(-2914.52 -3008.74 0)
(-2868.94 -2838.29 0)
(-2765.97 -2674.11 0)
(-2632.39 -2517.42 0)
(-2478.89 -2369.3 0)
(-2307.06 -2230.33 0)
(-2111.97 -2103.74 0)
(-1882.88 -1992.39 0)
(-1632.92 -1891.2 0)
(-1376.31 -1798.65 0)
(-1195.72 -1692.62 0)
(-1840.2 -1660.13 0)
(43649.7 -1549.3 0)
(-60766.8 -9469.77 0)
(59172.8 -8827.81 0)
(-42027.5 -1747.7 0)
(2069.59 -2021.21 0)
(1178.73 -2131.44 0)
(1107.39 -2248.95 0)
(1228.54 -2321.23 0)
(1478.91 -2337.91 0)
(1735 -2362.52 0)
(1971.55 -2410.95 0)
(2178.86 -2488.8 0)
(2357.66 -2592.59 0)
(2508.12 -2713.54 0)
(2624.47 -2846.77 0)
(2683.4 -2988.46 0)
(2623.15 -3136.09 0)
(2317.31 -3285.45 0)
(1649.33 -3425.25 0)
(797.084 -3528.52 0)
(210.781 -3572.05 0)
(21.7874 -3578.95 0)
(-21.6234 -3578.95 0)
(-210.601 -3572 0)
(-800.4 -3527.01 0)
(-1663.71 -3417.11 0)
(-2348.51 -3263.92 0)
(-2672.54 -3096.37 0)
(-2750.86 -2927.81 0)
(-2710.27 -2763.37 0)
(-2613.95 -2605.21 0)
(-2488.19 -2454.79 0)
(-2343.09 -2311.96 0)
(-2181.81 -2179.98 0)
(-2000.24 -2057.47 0)
(-1782.37 -1953.16 0)
(-1541.12 -1854.15 0)
(-1285.45 -1766.67 0)
(-1139.66 -1679.3 0)
(-1778.08 -1665.92 0)
(39674.2 -1548.84 0)
(-55228.6 -9893.93 0)
(53735.9 -9914.63 0)
(-38366.4 -1683.45 0)
(1899.01 -1926.29 0)
(1069.63 -2037.7 0)
(1018.36 -2135.28 0)
(1186.18 -2190.36 0)
(1456.09 -2206.69 0)
(1695.83 -2241.12 0)
(1907.59 -2292.97 0)
(2091.21 -2375.91 0)
(2251.04 -2475.76 0)
(2388.92 -2591.63 0)
(2495.39 -2718.06 0)
(2546.87 -2853.79 0)
(2481.72 -2996.96 0)
(2178.05 -3144.33 0)
(1531 -3285.04 0)
(725.18 -3390.4 0)
(186.099 -3434.55 0)
(18.441 -3441.35 0)
(-18.2999 -3441.35 0)
(-185.563 -3434.63 0)
(-725.748 -3390.07 0)
(-1537.56 -3281.08 0)
(-2195.81 -3131.12 0)
(-2513.39 -2969.31 0)
(-2593.63 -2807.74 0)
(-2558.08 -2650.52 0)
(-2468.62 -2499.77 0)
(-2349.81 -2355.7 0)
(-2214.08 -2221.24 0)
(-2061.82 -2093.1 0)
(-1893.39 -1980.23 0)
(-1686.95 -1876.4 0)
(-1453.21 -1785.08 0)
(-1207.82 -1702.09 0)
(-1098.63 -1638.65 0)
(-1714.48 -1627.55 0)
(35720.9 -1496.07 0)
(-49740.1 -9871.83 0)
(47996.4 -10179.2 0)
(-34329.6 -1612.64 0)
(1728.22 -1860.5 0)
(977.332 -1959.66 0)
(960.275 -2011.49 0)
(1159.72 -2037.68 0)
(1429.99 -2056.37 0)
(1651.86 -2092.25 0)
(1841.66 -2155.38 0)
(2002.71 -2234.24 0)
(2149.78 -2333.8 0)
(2274.63 -2443.56 0)
(2371.85 -2565.16 0)
(2414.64 -2696.05 0)
(2343.17 -2835.43 0)
(2039.7 -2980.37 0)
(1412.2 -3120.33 0)
(653.008 -3225.36 0)
(161.688 -3268.53 0)
(15.2354 -3274.9 0)
(-15.1459 -3274.9 0)
(-161.187 -3268.63 0)
(-652.435 -3225.58 0)
(-1414.18 -3119.03 0)
(-2048.08 -2973.56 0)
(-2360.92 -2818.52 0)
(-2443.67 -2664.81 0)
(-2413.49 -2515.83 0)
(-2329.85 -2372.58 0)
(-2219.79 -2237.55 0)
(-2090.03 -2107.72 0)
(-1949.56 -1992.06 0)
(-1791.42 -1878.24 0)
(-1594.32 -1784.13 0)
(-1373.14 -1694.13 0)
(-1144.35 -1621.01 0)
(-1067.83 -1579.06 0)
(-1640.68 -1562.38 0)
(31729.7 -1415.08 0)
(-44274.1 -9429.84 0)
(42372.9 -10247.5 0)
(-30350.3 -1546.13 0)
(1564.6 -1796.64 0)
(924.139 -1853.55 0)
(943.189 -1861.48 0)
(1142.93 -1860.63 0)
(1403.5 -1885.67 0)
(1600.42 -1934.88 0)
(1770.76 -1996.35 0)
(1919.28 -2081.26 0)
(2049.33 -2173.69 0)
(2165.97 -2280.71 0)
(2252.08 -2396.85 0)
(2286.43 -2523.2 0)
(2207.74 -2658.18 0)
(1903.51 -2799.45 0)
(1294.92 -2936.73 0)
(582.371 -3039.25 0)
(138.36 -3080.21 0)
(12.3003 -3085.94 0)
(-12.2566 -3085.94 0)
(-138.031 -3080.28 0)
(-581.587 -3039.6 0)
(-1294.72 -2936.79 0)
(-1906.23 -2796.85 0)
(-2215.86 -2649.47 0)
(-2301.94 -2504.68 0)
(-2276.47 -2364.76 0)
(-2200.46 -2231.37 0)
(-2094.58 -2103.5 0)
(-1977.52 -1986.34 0)
(-1840.68 -1871.05 0)
(-1693.02 -1771.75 0)
(-1509.54 -1674.28 0)
(-1296.02 -1591.28 0)
(-1096.93 -1531.59 0)
(-1042.13 -1501.77 0)
(-1556.47 -1483.89 0)
(28139.5 -1323.82 0)
(-39289.5 -8935.28 0)
(36631.7 -9822.86 0)
(-26186.1 -1441.73 0)
(1431.98 -1669.9 0)
(914.848 -1680.84 0)
(953.461 -1672.33 0)
(1136.41 -1662.4 0)
(1358.44 -1704.21 0)
(1545.2 -1758.12 0)
(1700.6 -1831.43 0)
(1831.82 -1910.72 0)
(1957.58 -2002.98 0)
(2059.59 -2103.62 0)
(2138.17 -2214.51 0)
(2162.82 -2334.22 0)
(2076.97 -2462.66 0)
(1771.27 -2597.95 0)
(1181.13 -2730.28 0)
(514.75 -2828.34 0)
(116.696 -2866.19 0)
(9.71126 -2871.16 0)
(-9.69617 -2871.17 0)
(-116.534 -2866.23 0)
(-514.159 -2828.63 0)
(-1180.25 -2730.8 0)
(-1771.21 -2597.62 0)
(-2079.37 -2459.33 0)
(-2169.3 -2325.13 0)
(-2150.12 -2196.52 0)
(-2078.1 -2073.51 0)
(-1983.67 -1957.39 0)
(-1866.03 -1846.25 0)
(-1742.78 -1743.79 0)
(-1601.81 -1643.37 0)
(-1420.41 -1552.45 0)
(-1235.63 -1471.93 0)
(-1058.1 -1419.05 0)
(-1021.86 -1396.24 0)
(-1469.2 -1374.82 0)
(24549.3 -1214.2 0)
(-34388.1 -8321.79 0)
(31517.9 -9049.18 0)
(-22493.8 -1318.26 0)
(1334.19 -1508.09 0)
(921.797 -1483.01 0)
(960.954 -1483.74 0)
(1112.21 -1463.17 0)
(1311.26 -1525.33 0)
(1477.83 -1574.14 0)
(1623.71 -1653.43 0)
(1753.97 -1729.47 0)
(1863.45 -1817.49 0)
(1962.13 -1910.83 0)
(2029.87 -2012.61 0)
(2047.3 -2122.5 0)
(1953.6 -2240.78 0)
(1645.63 -2366.68 0)
(1072.91 -2491.41 0)
(451.401 -2583.37 0)
(97.0944 -2617.53 0)
(7.50267 -2621.72 0)
(-7.50091 -2621.72 0)
(-97.0419 -2617.55 0)
(-451.081 -2583.54 0)
(-1072.11 -2491.92 0)
(-1644.63 -2367.24 0)
(-1953.28 -2240.34 0)
(-2048.69 -2119.35 0)
(-2034.01 -2004.57 0)
(-1970.03 -1895.44 0)
(-1875.58 -1792.08 0)
(-1771.68 -1691.17 0)
(-1645.18 -1599.3 0)
(-1508.64 -1502.09 0)
(-1344.34 -1426.96 0)
(-1167.48 -1342.92 0)
(-1023.99 -1311.03 0)
(-999.508 -1288.12 0)
(-1381.05 -1270.82 0)
(21445.2 -1119.28 0)
(-30100.3 -7700.45 0)
(26641.3 -7848.1 0)
(-18919.3 -1137.55 0)
(1273.22 -1293.34 0)
(938.317 -1269.8 0)
(972.585 -1269.53 0)
(1096.33 -1261.95 0)
(1251.5 -1310.79 0)
(1421.77 -1372.73 0)
(1550.93 -1436.86 0)
(1673.72 -1515.6 0)
(1782.82 -1594.75 0)
(1871.56 -1685.3 0)
(1934.2 -1781.47 0)
(1942.95 -1883.32 0)
(1841.67 -1990.66 0)
(1529.75 -2104.9 0)
(972.312 -2219.4 0)
(393.219 -2303.44 0)
(79.7406 -2333.41 0)
(5.67145 -2336.82 0)
(-5.67372 -2336.82 0)
(-79.7398 -2333.41 0)
(-393.102 -2303.51 0)
(-971.82 -2219.72 0)
(-1528.78 -2105.58 0)
(-1840.49 -1991.36 0)
(-1942.11 -1883.22 0)
(-1934.36 -1779.32 0)
(-1873.33 -1679.51 0)
(-1786.83 -1583.36 0)
(-1680.27 -1496.97 0)
(-1560.58 -1407.98 0)
(-1435.74 -1334.01 0)
(-1267.02 -1254.1 0)
(-1123.91 -1194.28 0)
(-1005.29 -1165.87 0)
(-983.113 -1150.22 0)
(-1306.5 -1130.73 0)
(18353.4 -989.825 0)
(-25889 -6883.41 0)
(22859 -6703.74 0)
(-16177.4 -974.183 0)
(1206.75 -1110.81 0)
(944.745 -1113.21 0)
(968.518 -1107.49 0)
(1072.45 -1101.71 0)
(1204.51 -1136.38 0)
(1356.35 -1172.42 0)
(1486.03 -1232.17 0)
(1601.83 -1291.71 0)
(1699.92 -1367.8 0)
(1782.2 -1451.67 0)
(1839.06 -1544.39 0)
(1845.72 -1641.27 0)
(1740.08 -1740.81 0)
(1425.2 -1844.54 0)
(881.596 -1948.85 0)
(341.536 -2024.89 0)
(64.9228 -2050.78 0)
(4.21426 -2053.49 0)
(-4.21654 -2053.49 0)
(-64.9369 -2050.78 0)
(-341.526 -2024.9 0)
(-881.382 -1949 0)
(-1424.57 -1845.02 0)
(-1739 -1741.66 0)
(-1844.36 -1642.27 0)
(-1837.71 -1545 0)
(-1781.2 -1451.05 0)
(-1699.68 -1364.95 0)
(-1602.67 -1285.41 0)
(-1488.14 -1221.18 0)
(-1360.35 -1155.36 0)
(-1209.68 -1110.75 0)
(-1082.46 -1069.33 0)
(-981.534 -1056.15 0)
(-965.645 -1051.33 0)
(-1226.49 -1022.25 0)
(15901.7 -888.396 0)
(-22513.4 -6129.88 0)
(19242.5 -5541.02 0)
(-13529.7 -824.52 0)
(1139.25 -960.595 0)
(941.517 -993.44 0)
(983.666 -1003.98 0)
(1068.5 -989.115 0)
(1183.35 -1012.09 0)
(1329.46 -1025.85 0)
(1435.98 -1061.21 0)
(1543.02 -1102.78 0)
(1628.68 -1157.93 0)
(1701.39 -1228.67 0)
(1751.49 -1313.2 0)
(1753.67 -1411.36 0)
(1645.79 -1518.99 0)
(1329.28 -1629.99 0)
(798.524 -1732.41 0)
(294.995 -1799.85 0)
(52.1796 -1820.83 0)
(3.06136 -1822.83 0)
(-3.06264 -1822.83 0)
(-52.192 -1820.83 0)
(-295.021 -1799.84 0)
(-798.479 -1732.44 0)
(-1328.98 -1630.23 0)
(-1645.12 -1519.6 0)
(-1752.6 -1412.41 0)
(-1750.1 -1314.61 0)
(-1699.83 -1230.17 0)
(-1627.2 -1159.12 0)
(-1541.72 -1103.05 0)
(-1435.26 -1059.83 0)
(-1329.33 -1022.26 0)
(-1184.12 -1004.86 0)
(-1071.29 -978.769 0)
(-987.95 -985.657 0)
(-950.448 -969.762 0)
(-1149.49 -923.557 0)
(13431.5 -785.456 0)
(-19126 -5257.85 0)
(16725 -4481.25 0)
(-11763.5 -680.617 0)
(1043.97 -831.896 0)
(902.94 -907.725 0)
(972.686 -954.37 0)
(1064.63 -968.462 0)
(1169.11 -991.806 0)
(1309.01 -1013.12 0)
(1411.9 -1040.26 0)
(1508.62 -1065.36 0)
(1578.6 -1092.53 0)
(1632.58 -1122.7 0)
(1663.01 -1163.1 0)
(1647.41 -1223.25 0)
(1529.39 -1310.55 0)
(1219.55 -1421.77 0)
(717.916 -1534.36 0)
(256.326 -1606.12 0)
(42.7806 -1625.94 0)
(2.29176 -1627.55 0)
(-2.29225 -1627.55 0)
(-42.7872 -1625.94 0)
(-256.35 -1606.11 0)
(-717.935 -1534.35 0)
(-1219.47 -1421.83 0)
(-1529.1 -1310.83 0)
(-1646.82 -1223.89 0)
(-1662.1 -1164.18 0)
(-1631.36 -1124.21 0)
(-1577.18 -1094.38 0)
(-1506.99 -1067.33 0)
(-1410.3 -1042.19 0)
(-1307.38 -1014.49 0)
(-1167.77 -992.438 0)
(-1063.95 -967.7 0)
(-972.855 -951.02 0)
(-905.804 -901.975 0)
(-1048.89 -820.32 0)
(11725 -666.815 0)
(-16689.8 -4374.71 0)
(14268.4 -3160.66 0)
(-10013.1 -783.602 0)
(920.399 -914.901 0)
(823.497 -1043.92 0)
(925.139 -1151.66 0)
(1032.42 -1233.54 0)
(1140.32 -1321.21 0)
(1282.77 -1408.32 0)
(1385.63 -1501.49 0)
(1492.65 -1592.56 0)
(1573.42 -1672.91 0)
(1633.38 -1740.55 0)
(1654.6 -1801.33 0)
(1611.59 -1866.45 0)
(1454.49 -1953.18 0)
(1113.6 -2073.59 0)
(620.879 -2205.61 0)
(206.745 -2288.03 0)
(31.5282 -2308.52 0)
(1.51271 -2309.94 0)
(-1.51287 -2309.94 0)
(-31.5312 -2308.52 0)
(-206.76 -2288.03 0)
(-620.906 -2205.59 0)
(-1113.6 -2073.59 0)
(-1454.37 -1953.28 0)
(-1611.28 -1866.73 0)
(-1654.04 -1801.9 0)
(-1632.57 -1741.49 0)
(-1572.39 -1674.27 0)
(-1491.43 -1594.32 0)
(-1384.34 -1503.72 0)
(-1281.38 -1410.81 0)
(-1139.03 -1324.06 0)
(-1031.38 -1236.33 0)
(-924.615 -1154.14 0)
(-824.501 -1045.66 0)
(-922.882 -914.358 0)
(10006.4 -781.151 0)
(-14267.8 -3121.07 0)
(12924.1 96908.4 0)
(-9599.42 10239.6 0)
(793.118 10722.7 0)
(674.787 12683.2 0)
(789.961 14593.4 0)
(901.254 17411 0)
(1000.69 20192.3 0)
(1135.28 23676.6 0)
(1234.36 27190.9 0)
(1343.44 31250 0)
(1435.99 35292.6 0)
(1508.83 39725.1 0)
(1541.69 44084.3 0)
(1501.08 48278.4 0)
(1329.78 51720.2 0)
(976.308 53809.2 0)
(511.275 54494.2 0)
(157.154 54540.3 0)
(21.6642 54526 0)
(0.918444 54524.7 0)
(-0.918478 54524.7 0)
(-21.6653 54526 0)
(-157.163 54540.3 0)
(-511.299 54494.2 0)
(-976.334 53809.2 0)
(-1329.76 51720.1 0)
(-1500.95 48278.2 0)
(-1541.41 44083.8 0)
(-1508.37 39724.1 0)
(-1435.36 35291 0)
(-1342.64 31247.8 0)
(-1233.46 27188 0)
(-1134.26 23673.2 0)
(-999.64 20188.3 0)
(-900.211 17406.8 0)
(-789.112 14589 0)
(-674.739 12679.4 0)
(-793.999 10720.5 0)
(9598.51 10238.8 0)
(-12929.5 96917.6 0)
(117520 -121696 0)
(-93064.8 -13670.5 0)
(3275.13 -15157.8 0)
(4553.47 -17892.3 0)
(5481.03 -20583.4 0)
(6427.74 -24399.9 0)
(7178.12 -28188.9 0)
(8026.88 -32887.3 0)
(8683.64 -37696.8 0)
(9299.73 -43179.6 0)
(9740.33 -48741.6 0)
(10105.4 -54777.7 0)
(9896.88 -60794.2 0)
(8969.74 -66647.9 0)
(6784.15 -71660.1 0)
(3786.77 -75068 0)
(1325.43 -76602.9 0)
(237.367 -76974 0)
(16.4945 -77012.3 0)
(0.311137 -77013.6 0)
(-0.311084 -77013.6 0)
(-16.4936 -77012.3 0)
(-237.364 -76974 0)
(-1325.43 -76602.9 0)
(-3786.81 -75068 0)
(-6784.25 -71660 0)
(-8969.91 -66647.8 0)
(-9897.09 -60794 0)
(-10105.6 -54777.6 0)
(-9740.45 -48741.8 0)
(-9299.76 -43180.1 0)
(-8683.5 -37697.8 0)
(-8026.59 -32888.9 0)
(-7177.6 -28191.3 0)
(-6427.04 -24403.1 0)
(-5480.14 -20587.5 0)
(-4552.36 -17897.3 0)
(-3274.65 -15163.2 0)
(93069.1 -13675.1 0)
(-117528 -121705 0)
(117520 121696 0)
(-93064.8 13670.5 0)
(3275.13 15157.8 0)
(4553.47 17892.3 0)
(5481.03 20583.4 0)
(6427.74 24399.9 0)
(7178.12 28188.9 0)
(8026.88 32887.3 0)
(8683.64 37696.8 0)
(9299.73 43179.6 0)
(9740.33 48741.6 0)
(10105.4 54777.7 0)
(9896.88 60794.2 0)
(8969.74 66647.9 0)
(6784.15 71660.1 0)
(3786.77 75068 0)
(1325.43 76602.9 0)
(237.367 76974 0)
(16.4945 77012.3 0)
(0.311137 77013.6 0)
(-0.311084 77013.6 0)
(-16.4936 77012.3 0)
(-237.364 76974 0)
(-1325.43 76602.9 0)
(-3786.81 75068 0)
(-6784.25 71660 0)
(-8969.91 66647.8 0)
(-9897.09 60794 0)
(-10105.6 54777.6 0)
(-9740.45 48741.8 0)
(-9299.76 43180.1 0)
(-8683.5 37697.8 0)
(-8026.59 32888.9 0)
(-7177.6 28191.3 0)
(-6427.04 24403.1 0)
(-5480.14 20587.5 0)
(-4552.36 17897.3 0)
(-3274.65 15163.2 0)
(93069.1 13675.1 0)
(-117528 121705 0)
(12924.1 -96908.4 0)
(-9599.42 -10239.6 0)
(793.118 -10722.7 0)
(674.787 -12683.2 0)
(789.961 -14593.4 0)
(901.254 -17411 0)
(1000.69 -20192.3 0)
(1135.28 -23676.6 0)
(1234.36 -27190.9 0)
(1343.44 -31250 0)
(1435.99 -35292.6 0)
(1508.83 -39725.1 0)
(1541.69 -44084.3 0)
(1501.08 -48278.4 0)
(1329.78 -51720.2 0)
(976.308 -53809.2 0)
(511.275 -54494.2 0)
(157.154 -54540.3 0)
(21.6642 -54526 0)
(0.918444 -54524.7 0)
(-0.918478 -54524.7 0)
(-21.6653 -54526 0)
(-157.163 -54540.3 0)
(-511.299 -54494.2 0)
(-976.334 -53809.2 0)
(-1329.76 -51720.1 0)
(-1500.95 -48278.2 0)
(-1541.41 -44083.8 0)
(-1508.37 -39724.1 0)
(-1435.36 -35291 0)
(-1342.64 -31247.8 0)
(-1233.46 -27188 0)
(-1134.26 -23673.2 0)
(-999.64 -20188.3 0)
(-900.211 -17406.8 0)
(-789.112 -14589 0)
(-674.739 -12679.4 0)
(-793.999 -10720.5 0)
(9598.51 -10238.8 0)
(-12929.5 -96917.6 0)
(14268.4 3160.66 0)
(-10013.1 783.602 0)
(920.399 914.901 0)
(823.497 1043.92 0)
(925.139 1151.66 0)
(1032.42 1233.54 0)
(1140.32 1321.21 0)
(1282.77 1408.32 0)
(1385.63 1501.49 0)
(1492.65 1592.56 0)
(1573.42 1672.91 0)
(1633.38 1740.55 0)
(1654.6 1801.33 0)
(1611.59 1866.45 0)
(1454.49 1953.18 0)
(1113.6 2073.59 0)
(620.879 2205.61 0)
(206.745 2288.03 0)
(31.5282 2308.52 0)
(1.51271 2309.94 0)
(-1.51287 2309.94 0)
(-31.5312 2308.52 0)
(-206.76 2288.03 0)
(-620.906 2205.59 0)
(-1113.6 2073.59 0)
(-1454.37 1953.28 0)
(-1611.28 1866.73 0)
(-1654.04 1801.9 0)
(-1632.57 1741.49 0)
(-1572.39 1674.27 0)
(-1491.43 1594.32 0)
(-1384.34 1503.72 0)
(-1281.38 1410.81 0)
(-1139.03 1324.06 0)
(-1031.38 1236.33 0)
(-924.615 1154.14 0)
(-824.501 1045.66 0)
(-922.882 914.358 0)
(10006.4 781.151 0)
(-14267.8 3121.07 0)
(16725 4481.25 0)
(-11763.5 680.617 0)
(1043.97 831.896 0)
(902.94 907.725 0)
(972.686 954.37 0)
(1064.63 968.462 0)
(1169.11 991.806 0)
(1309.01 1013.12 0)
(1411.9 1040.26 0)
(1508.62 1065.36 0)
(1578.6 1092.53 0)
(1632.58 1122.7 0)
(1663.01 1163.1 0)
(1647.41 1223.25 0)
(1529.39 1310.55 0)
(1219.55 1421.77 0)
(717.916 1534.36 0)
(256.326 1606.12 0)
(42.7806 1625.94 0)
(2.29176 1627.55 0)
(-2.29225 1627.55 0)
(-42.7872 1625.94 0)
(-256.35 1606.11 0)
(-717.935 1534.35 0)
(-1219.47 1421.83 0)
(-1529.1 1310.83 0)
(-1646.82 1223.89 0)
(-1662.1 1164.18 0)
(-1631.36 1124.21 0)
(-1577.18 1094.38 0)
(-1506.99 1067.33 0)
(-1410.3 1042.19 0)
(-1307.38 1014.49 0)
(-1167.77 992.438 0)
(-1063.95 967.7 0)
(-972.855 951.02 0)
(-905.804 901.975 0)
(-1048.89 820.32 0)
(11725 666.815 0)
(-16689.8 4374.71 0)
(19242.5 5541.02 0)
(-13529.7 824.52 0)
(1139.25 960.595 0)
(941.517 993.44 0)
(983.666 1003.98 0)
(1068.5 989.115 0)
(1183.35 1012.09 0)
(1329.46 1025.85 0)
(1435.98 1061.21 0)
(1543.02 1102.78 0)
(1628.68 1157.93 0)
(1701.39 1228.67 0)
(1751.49 1313.2 0)
(1753.67 1411.36 0)
(1645.79 1518.99 0)
(1329.28 1629.99 0)
(798.524 1732.41 0)
(294.995 1799.85 0)
(52.1796 1820.83 0)
(3.06136 1822.83 0)
(-3.06264 1822.83 0)
(-52.192 1820.83 0)
(-295.021 1799.84 0)
(-798.479 1732.44 0)
(-1328.98 1630.23 0)
(-1645.12 1519.6 0)
(-1752.6 1412.41 0)
(-1750.1 1314.61 0)
(-1699.83 1230.17 0)
(-1627.2 1159.12 0)
(-1541.72 1103.05 0)
(-1435.26 1059.83 0)
(-1329.33 1022.26 0)
(-1184.12 1004.86 0)
(-1071.29 978.769 0)
(-987.95 985.657 0)
(-950.448 969.762 0)
(-1149.49 923.557 0)
(13431.5 785.456 0)
(-19126 5257.85 0)
(22859 6703.74 0)
(-16177.4 974.183 0)
(1206.75 1110.81 0)
(944.745 1113.21 0)
(968.518 1107.49 0)
(1072.45 1101.71 0)
(1204.51 1136.38 0)
(1356.35 1172.42 0)
(1486.03 1232.17 0)
(1601.83 1291.71 0)
(1699.92 1367.8 0)
(1782.2 1451.67 0)
(1839.06 1544.39 0)
(1845.72 1641.27 0)
(1740.08 1740.81 0)
(1425.2 1844.54 0)
(881.596 1948.85 0)
(341.536 2024.89 0)
(64.9228 2050.78 0)
(4.21426 2053.49 0)
(-4.21654 2053.49 0)
(-64.9369 2050.78 0)
(-341.526 2024.9 0)
(-881.382 1949 0)
(-1424.57 1845.02 0)
(-1739 1741.66 0)
(-1844.36 1642.27 0)
(-1837.71 1545 0)
(-1781.2 1451.05 0)
(-1699.68 1364.95 0)
(-1602.67 1285.41 0)
(-1488.14 1221.18 0)
(-1360.35 1155.36 0)
(-1209.68 1110.75 0)
(-1082.46 1069.33 0)
(-981.534 1056.15 0)
(-965.645 1051.33 0)
(-1226.49 1022.25 0)
(15901.7 888.396 0)
(-22513.4 6129.88 0)
(26641.3 7848.1 0)
(-18919.3 1137.55 0)
(1273.22 1293.34 0)
(938.317 1269.8 0)
(972.585 1269.53 0)
(1096.33 1261.95 0)
(1251.5 1310.79 0)
(1421.77 1372.73 0)
(1550.93 1436.86 0)
(1673.72 1515.6 0)
(1782.82 1594.75 0)
(1871.56 1685.3 0)
(1934.2 1781.47 0)
(1942.95 1883.32 0)
(1841.67 1990.66 0)
(1529.75 2104.9 0)
(972.312 2219.4 0)
(393.219 2303.44 0)
(79.7406 2333.41 0)
(5.67145 2336.82 0)
(-5.67372 2336.82 0)
(-79.7398 2333.41 0)
(-393.102 2303.51 0)
(-971.82 2219.72 0)