/*--------------------------------*- C++ -*----------------------------------*\
| =========                 |                                                 |
| \\      /  F ield         | OpenFOAM: The Open Source CFD Toolbox           |
|  \\    /   O peration     | Version:  v1912                                 |
|   \\  /    A nd           | Website:  www.openfoam.com                      |
|    \\/     M anipulation  |                                                 |
\*---------------------------------------------------------------------------*/
FoamFile
{
    version     2.0;
    format      ascii;
    class       volScalarField;
    location    "2.1";
    object      rho;
}
// * * * * * * * * * * * * * * * * * * * * * * * * * * * * * * * * * * * * * //

dimensions      [1 -3 0 0 0 0 0];


internalField   nonuniform List<scalar> 
1900
(
16581.3
14770.5
14727.2
14727.4
14740.6
14767
14805
14851.1
14895.9
14964.3
16581.4
14770.5
14727
14727
14740
14766
14802.8
14843.3
14884.5
14953.6
16581.5
14770.5
14726.9
14726.8
14739.4
14765.5
14803.1
14845.7
14894.4
14949.9
16581.4
14770.5
14727
14727
14740
14766
14802.8
14843.3
14884.5
14953.6
16581.3
14770.5
14727.2
14727.4
14740.6
14767
14805
14851.1
14895.9
14964.3
14905.6
14951.3
14916.1
14746.7
13821.9
14995.3
15039.5
14982.5
14897.5
14479.8
14980.8
15005.2
14934.9
14805.3
14367.1
14995.3
15039.5
14982.5
14897.5
14479.8
14905.6
14951.3
14916.1
14746.7
13821.9
16068.4
16351.4
16852.5
17335
18284.8
15925.2
16330.5
16856.8
17387.5
17661.3
15930.1
16345.3
16851.4
17239.7
16921.8
15925.2
16330.5
16856.8
17387.5
17661.3
16068.4
16351.4
16852.5
17335
18284.8
17142.4
9028.34
9098.1
9330.66
9336.03
9413.06
9582.66
9780.36
10082
10444.5
10870
11337.4
11832.8
12341.7
12846.4
13316.7
13697.1
13921.1
13992.7
14001.3
14001.3
13991.3
13912.5
13673.8
13275.4
12786.2
12260.8
11726.8
11197.4
10679.8
10179.1
9699.64
9247.39
8831.2
8460.9
8130.32
7811.79
7525.75
7449.07
42366.1
15599.6
9090.64
9244.55
9354.92
9352.96
9421.68
9585.07
9783.06
10083.5
10445.5
10870.6
11337.6
11832.8
12341.5
12846
13316.2
13696.7
13920.7
13992.2
14000.8
14000.8
13990.8
13912
13673.3
13274.9
12785.8
12260.4
11726.5
11197.1
10679.5
10178.8
9699.46
9247.25
8831.09
8460.82
8130.26
7811.75
7525.72
7449.05
42366.1
14700.9
9493.34
9323.02
9381.27
9362.84
9424.93
9585.83
9783.78
10083.9
10445.6
10870.5
11337.5
11832.7
12341.3
12845.7
13316
13696.5
13920.4
13992
14000.5
14000.5
13990.5
13911.7
13673.1
13274.7
12785.5
12260.2
11726.3
11196.9
10679.4
10178.7
9699.37
9247.18
8831.03
8460.78
8130.23
7811.73
7525.71
7449.04
42366.1
15599.6
9090.64
9244.55
9354.92
9352.96
9421.68
9585.07
9783.06
10083.5
10445.5
10870.6
11337.6
11832.8
12341.5
12846
13316.2
13696.7
13920.7
13992.2
14000.8
14000.8
13990.8
13912
13673.3
13274.9
12785.8
12260.4
11726.5
11197.1
10679.5
10178.8
9699.46
9247.25
8831.09
8460.82
8130.26
7811.75
7525.72
7449.05
42366.1
17142.4
9028.34
9098.1
9330.66
9336.03
9413.06
9582.66
9780.36
10082
10444.5
10870
11337.4
11832.8
12341.7
12846.4
13316.7
13697.1
13921.1
13992.7
14001.3
14001.3
13991.3
13912.5
13673.8
13275.4
12786.2
12260.8
11726.8
11197.4
10679.8
10179.1
9699.64
9247.39
8831.2
8460.9
8130.32
7811.79
7525.75
7449.07
42366.1
25958
8506.39
8827.63
9155.28
9277.46
9380.18
9556.61
9764.66
10069
10434
10860.3
11328.1
11823.4
12332.1
12836.7
13307.2
13688.5
13913.8
13986.6
13995.5
13995.5
13985.5
13906.7
13668.3
13270.1
12781.3
12256.5
11723.1
11194.2
10677.2
10177
9698.04
9246.19
8830.33
8460.29
8129.9
7811.5
7525.57
7448.96
42366.1
32917.5
7829.34
8462.67
8846.15
9109.99
9283.55
9480.89
9713.81
10026.1
10398.8
10827.5
11295.9
11790.6
12298
12801.1
13270.4
13651.1
13876.9
13950.1
13959.1
13959.1
13949.1
13870.7
13633.1
13236.5
12749.8
12227.4
11696.8
11170.9
10656.8
10159.5
9683.38
9234.11
8820.56
8452.51
8123.82
7806.69
7522.19
7446.5
42364.7
37177.6
7665.88
8214.8
8624.63
8914.88
9129.32
9344.09
9597.89
9910.3
10286.4
10711.5
11173.6
11660.1
12158.5
12653.1
13115.2
13491.3
13715.5
13788.7
13797.9
13797.8
13788.1
13710.8
13476.7
13085.9
12606.9
12093.3
11572.2
11056.3
10552.6
10065.7
9599.77
9160.43
8756.32
8396.91
8076.14
7765.67
7490.08
7420.57
42330.7
39565.3
7549.81
7976.41
8363.62
8676.14
8901.74
9105.88
9363.81
9679.27
10050.4
10466.5
10916.2
11388.4
11872.1
12352.3
12801.8
13168.7
13388
13459.9
13468.9
13468.9
13459.5
13384.7
13157.4
12777.3
12311.4
11812.3
11306.5
10806.3
10318.6
9847.77
9397.87
8974.28
8585.36
8240.13
7932.75
7635.87
7378.88
7322.06
42071.4
40276.1
7436.87
7729.59
8069.83
8317.06
8538.94
8760.5
9027.5
9344.56
9711.49
10118.1
10554.4
11011
11478.2
11942.4
12377.5
12732.9
12945.2
13014.6
13023.3
13023.3
13014.4
12943.3
12725.1
12359
11909.2
11427.3
10939.1
10456.6
9986.42
9532.93
9100.01
8692.85
8319.41
7988.36
7694.24
7414.47
7176.73
7128.55
41217.9
41101.1
7214.98
7410.05
7678.32
7919.21
8137.43
8366.34
8639.54
8959
9321.9
9719.25
10142.6
10584.1
11035.4
11483.8
11904.1
12246.7
12450.2
12516.1
12524.2
12524.2
12516.1
12449.3
12242
11891.2
11458.9
10995.1
10525
10060.4
9607.69
9171.17
8754.61
8362.88
8003.44
7684.98
7402.81
7140.78
6915.94
6863.87
39618.6
38884.6
6874.39
7035.05
7282.35
7517.04
7726.91
7959.75
8236.94
8557.34
8915.58
9303.62
9714.5
10141.7
10577.9
11011.1
11416.4
11745.4
11938.7
12000.2
12007.5
12007.5
12000.2
11938.5
11742.9
11408.4
10994
10548.3
10096.2
9649.26
9213.65
8793.63
8392.76
8015.64
7669.02
7362.32
7091.67
6846.21
6626.58
6559.69
37471.5
36847.5
6535.57
6670.78
6902.57
7121.25
7321.97
7557.54
7836.83
8156.61
8509.07
8887.65
9286.48
9700.26
10122.2
10540.5
10930.8
11245.3
11427.4
11483.8
11490.3
11490.3
11483.9
11427.5
11244.3
10926.5
10529.9
10102.2
9667.82
9238.03
8819.09
8415
8029.4
7666.11
7331.61
7036.48
6776.9
6545.72
6325.33
6238.22
35021.4
34377.5
6186.96
6317.87
6535.25
6736.71
6929.54
7166.79
7447.53
7764.63
8110.97
8479.85
8867.28
9268.27
9676.47
10080.3
10455.3
10754.6
10924.7
10975.6
10981.2
10981.2
10975.6
10924.8
10754.5
10453.4
10074.5
9664.45
9247.2
8834.14
8431.22
8042.8
7671.39
7322.09
6998.59
6714.98
6465.72
6245.56
6021.86
5914.59
32489.6
31644
5838.6
5970.69
6173.23
6363.51
6552.56
6793.15
7072.68
7387.81
7726.15
8086.16
8462.3
8851.01
9245.73
9634.99
9994.52
10278.1
10435.4
10480.7
10485.4
10485.4
10480.7
10435.6
10278.3
9994.05
9632.53
9239.49
8838.88
8441.83
8054.66
7680.49
7324.12
6986.25
6675.52
6401.41
6162.31
5948.77
5722.18
5598.88
29852.7
28864
5493.57
5624.23
5818.1
6006.28
6197.48
6439.06
6719.4
7027.4
7360.33
7709.81
8075.52
8451.87
8833.23
9207.91
9551.68
9819.08
9963.43
10003.2
10007
10007
10003.2
9963.53
9819.34
9551.86
9207.29
8830.73
8446.02
8064.58
7691.71
7332.88
6987.52
6665.11
6362.79
6100.61
5868.95
5659.13
5430.38
5297.22
27354.4
25909.2
5153.81
5282.47
5478.93
5671.85
5869.05
6111.59
6385.26
6691.3
7013.12
7355.16
7709.32
8073.95
8441.99
8802.19
9130.2
9381.3
9512.69
9547.04
9550.15
9550.15
9547.04
9512.74
9381.5
9130.54
8802.41
8441.53
8071.96
7704.68
7346.52
6998.86
6669.7
6354.58
6067.43
5813.06
5587.36
5379.75
5147.97
5011.4
24791.2
23181.6
4838.99
4967.85
5173.73
5370.98
5573.75
5810.25
6082.38
6375.85
6693.29
7023.61
7368.26
7720.93
8076.38
8422.62
8735.28
8970.32
9089.03
9118.33
9120.78
9120.78
9118.33
9089.05
8970.43
8735.56
8423.07
8076.78
7720.91
7367.22
7020.73
6687.74
6366.21
6068.38
5788.2
5546.08
5326.01
5119.51
4887.02
4748.26
22463.6
20482.6
4545.51
4675.75
4897.52
5096.38
5309.51
5538.32
5804.54
6092.88
6399.06
6722.22
7056.46
7399.07
7742.96
8076.48
8374.79
8594.43
8700.99
8725.65
8727.53
8727.53
8725.65
8700.99
8594.47
8374.96
8076.85
7743.54
7399.76
7057.01
6722.28
6398.12
6090.45
5799.81
5530.24
5298.33
5076.7
4872.3
4635.52
4498.36
20095.8
18301.1
4307
4438.33
4666.89
4870.36
5083.86
5310.58
5569.01
5848.93
6148.41
6461.5
6785.68
7116.61
7448.95
7770.46
8055.55
8260.9
8356.24
8376.79
8378.21
8378.21
8376.79
8356.23
8260.9
8055.62
7770.69
7449.4
7117.33
6786.64
6462.62
6149.51
5849.77
5569.31
5309.84
5082.04
4865.39
4659.43
4423.84
4287.82
18118.2
16157.4
4085.71
4212.49
4444.32
4651.33
4874.45
5097.65
5358.91
5633.65
5927.25
6232.46
6546.68
6866.81
7187.38
7496.99
7769.51
7961.25
8046.01
8062.9
8063.95
8063.95
8062.9
8046.01
7961.24
7769.52
7497.08
7187.64
6867.3
6547.46
6233.56
5928.63
5635.31
5360.64
5099.43
4875.93
4651.98
4443.97
4209.16
4080.03
16094.4
14539.4
3907.18
4021.57
4245.13
4449.4
4675.69
4899.9
5160.18
5433.57
5724.56
6024.5
6330.43
6638.9
6944.72
7237.02
7491.61
7667.81
7743.06
7757.13
7757.93
7757.93
7757.13
7743.06
7667.8
7491.6
7237.04
6944.82
6639.13
6330.87
6025.21
5725.58
5434.97
5161.9
4902.05
4678.07
4451.94
4247.52
4022.92
3907.43
14519
12830
3734.02
3825.28
4031.36
4224.31
4449.39
4670.91
4932.58
5205.34
5498.03
5801.56
6113
6426.37
6732.51
7017.51
7256.54
7413.27
7475.19
7485.67
7486.19
7486.19
7485.67
7475.19
7413.26
7256.53
7017.5
6732.54
6426.47
6113.24
5801.98
5498.68
5206.26
4933.78
4672.46
4451.2
4226.39
4033.48
3827.01
3735.18
12829.7
12734.9
3665.74
3741.67
3924.8
4103.89
4322.09
4542.49
4802.66
5079.25
5378.25
5694.51
6024.05
6358.11
6683.47
6979.91
7217.51
7363.12
7416.06
7424.2
7424.57
7424.57
7424.2
7416.06
7363.12
7217.5
6979.9
6683.48
6358.17
6024.2
5694.79
5378.68
5079.88
4803.49
4543.58
4323.38
4105.44
3926.46
3743.22
3667.04
12736
104007
12967.7
13089.6
14921.9
16619.9
18825.9
20968.5
23516.9
26028.3
28783
31454.5
34237.6
36886.6
39351.8
41360.3
42641.8
43161.6
43264.8
43272.3
43272.5
43272.5
43272.3
43264.8
43161.6
42641.8
41360.3
39351.7
36886.5
34237.5
31454.2
28782.8
26028
23516.7
20968.4
18826
16620.2
14922.6
13090.6
12968.7
104011
104007
12967.7
13089.6
14921.9
16619.9
18825.9
20968.5
23516.9
26028.3
28783
31454.5
34237.6
36886.6
39351.8
41360.3
42641.8
43161.6
43264.8
43272.3
43272.5
43272.5
43272.3
43264.8
43161.6
42641.8
41360.3
39351.7
36886.5
34237.5
31454.2
28782.8
26028
23516.7
20968.4
18826
16620.2
14922.6
13090.6
12968.7
104011
12734.9
3665.74
3741.67
3924.8
4103.89
4322.09
4542.49
4802.66
5079.25
5378.25
5694.51
6024.05
6358.11
6683.47
6979.91
7217.51
7363.12
7416.06
7424.2
7424.57
7424.57
7424.2
7416.06
7363.12
7217.5
6979.9
6683.48
6358.17
6024.2
5694.79
5378.68
5079.88
4803.49
4543.58
4323.38
4105.44
3926.46
3743.22
3667.04
12736
12830
3734.02
3825.28
4031.36
4224.31
4449.39
4670.91
4932.58
5205.34
5498.03
5801.56
6113
6426.37
6732.51
7017.51
7256.54
7413.27
7475.19
7485.67
7486.19
7486.19
7485.67
7475.19
7413.26
7256.53
7017.5
6732.54
6426.47
6113.24
5801.98
5498.68
5206.26
4933.78
4672.46
4451.2
4226.39
4033.48
3827.01
3735.18
12829.7
14539.4
3907.18
4021.57
4245.13
4449.4
4675.69
4899.9
5160.18
5433.57
5724.56
6024.5
6330.43
6638.9
6944.72
7237.02
7491.61
7667.81
7743.06
7757.13
7757.93
7757.93
7757.13
7743.06
7667.8
7491.6
7237.04
6944.82
6639.13
6330.87
6025.21
5725.58
5434.97
5161.9
4902.05
4678.07
4451.94
4247.52
4022.92
3907.43
14519
16157.4
4085.71
4212.49
4444.32
4651.33
4874.45
5097.65
5358.91
5633.65
5927.25
6232.46
6546.68
6866.81
7187.38
7496.99
7769.51
7961.25
8046.01
8062.9
8063.95
8063.95
8062.9
8046.01
7961.24
7769.52
7497.08
7187.64
6867.3
6547.46
6233.56
5928.63
5635.31
5360.64
5099.43
4875.93
4651.98
4443.97
4209.16
4080.03
16094.4
18301.1
4307
4438.33
4666.89
4870.36
5083.86
5310.58
5569.01
5848.93
6148.41
6461.5
6785.68
7116.61
7448.95
7770.46
8055.55
8260.9
8356.24
8376.79
8378.21
8378.21
8376.79
8356.23
8260.9
8055.62
7770.69
7449.4
7117.33
6786.64
6462.62
6149.51
5849.77
5569.31
5309.84
5082.04
4865.39
4659.43
4423.84
4287.82
18118.2
20482.6
4545.51
4675.75
4897.52
5096.38
5309.51
5538.32
5804.54
6092.88
6399.06
6722.22
7056.46
7399.07
7742.96
8076.48
8374.79
8594.43
8700.99
8725.65
8727.53
8727.53
8725.65
8700.99
8594.47
8374.96
8076.85
7743.54
7399.76
7057.01
6722.28
6398.12
6090.45
5799.81
5530.24
5298.33
5076.7
4872.3
4635.52
4498.36
20095.8
23181.6
4838.99
4967.85
5173.73
5370.98
5573.75
5810.25
6082.38
6375.85
6693.29
7023.61
7368.26
7720.93
8076.38
8422.62
8735.28
8970.32
9089.03
9118.33
9120.78
9120.78
9118.33
9089.05
8970.43
8735.56
8423.07
8076.78
7720.91
7367.22
7020.73
6687.74
6366.21
6068.38
5788.2
5546.08
5326.01
5119.51
4887.02
4748.26
22463.6
25909.2
5153.81
5282.47
5478.93
5671.85
5869.05
6111.59
6385.26
6691.3
7013.12
7355.16
7709.32
8073.95
8441.99
8802.19
9130.2
9381.3
9512.69
9547.04
9550.15
9550.15
9547.04
9512.74
9381.5
9130.54
8802.41
8441.53
8071.96
7704.68
7346.52
6998.86
6669.7
6354.58
6067.43
5813.06
5587.36
5379.75
5147.97
5011.4
24791.2
28864
5493.57
5624.23
5818.1
6006.28
6197.48
6439.06
6719.4
7027.4
7360.33
7709.81
8075.52
8451.87
8833.23
9207.91
9551.68
9819.08
9963.43
10003.2
10007
10007
10003.2
9963.53
9819.34
9551.86
9207.29
8830.73
8446.02
8064.58
7691.71
7332.88
6987.52
6665.11
6362.79
6100.61
5868.95
5659.13
5430.38
5297.22
27354.4
31644
5838.6
5970.69
6173.23
6363.51
6552.56
6793.15
7072.68
7387.81
7726.15
8086.16
8462.3
8851.01
9245.73
9634.99
9994.52
10278.1
10435.4
10480.7
10485.4
10485.4
10480.7
10435.6
10278.3
9994.05
9632.53
9239.49
8838.88
8441.83
8054.66
7680.49
7324.12
6986.25
6675.52
6401.41
6162.31
5948.77
5722.18
5598.88
29852.7
34377.5
6186.96
6317.87
6535.25
6736.71
6929.54
7166.79
7447.53
7764.63
8110.97
8479.85
8867.28
9268.27
9676.47
10080.3
10455.3
10754.6
10924.7
10975.6
10981.2
10981.2
10975.6
10924.8
10754.5
10453.4
10074.5
9664.45
9247.2
8834.14
8431.22
8042.8
7671.39
7322.09
6998.59
6714.98
6465.72
6245.56
6021.86
5914.59
32489.6
36847.5
6535.57
6670.78
6902.57
7121.25
7321.97
7557.54
7836.83
8156.61
8509.07
8887.65
9286.48
9700.26
10122.2
10540.5
10930.8
11245.3
11427.4
11483.8
11490.3
11490.3
11483.9
11427.5
11244.3
10926.5
10529.9
10102.2
9667.82
9238.03
8819.09
8415
8029.4
7666.11
7331.61
7036.48
6776.9
6545.72
6325.33
6238.22
35021.4
38884.6
6874.39
7035.05
7282.35
7517.04
7726.91
7959.75
8236.94
8557.34
8915.58
9303.62
9714.5
10141.7
10577.9
11011.1
11416.4
11745.4
11938.7
12000.2
12007.5
12007.5
12000.2
11938.5
11742.9
11408.4
10994
10548.3
10096.2
9649.26
9213.65
8793.63
8392.76
8015.64
7669.02
7362.32
7091.67
6846.21
6626.58
6559.69
37471.5
41101.1
7214.98
7410.05
7678.32
7919.21
8137.43
8366.34
8639.54
8959
9321.9
9719.25
10142.6
10584.1
11035.4
11483.8
11904.1
12246.7
12450.2
12516.1
12524.2
12524.2
12516.1
12449.3
12242
11891.2
11458.9
10995.1
10525
10060.4
9607.69
9171.17
8754.61
8362.88
8003.44
7684.98
7402.81
7140.78
6915.94
6863.87
39618.6
40276.1
7436.87
7729.59
8069.83
8317.06
8538.94
8760.5
9027.5
9344.56
9711.49
10118.1
10554.4
11011
11478.2
11942.4
12377.5
12732.9
12945.2
13014.6
13023.3
13023.3
13014.4
12943.3
12725.1
12359
11909.2
11427.3
10939.1
10456.6
9986.42
9532.93
9100.01
8692.85
8319.41
7988.36
7694.24
7414.47
7176.73
7128.55
41217.9
39565.3
7549.81
7976.41
8363.62
8676.14
8901.74
9105.88
9363.81
9679.27
10050.4
10466.5
10916.2
11388.4
11872.1
12352.3
12801.8
13168.7
13388
13459.9
13468.9
13468.9
13459.5
13384.7
13157.4
12777.3
12311.4
11812.3
11306.5
10806.3
10318.6
9847.77
9397.87
8974.28
8585.36
8240.13
7932.75
7635.87
7378.88
7322.06
42071.4
37177.6
7665.88
8214.8
8624.63
8914.88
9129.32
9344.09
9597.89
9910.3
10286.4
10711.5
11173.6
11660.1
12158.5
12653.1
13115.2
13491.3
13715.5
13788.7
13797.9
13797.8
13788.1
13710.8
13476.7
13085.9
12606.9
12093.3
11572.2
11056.3
10552.6
10065.7
9599.77
9160.43
8756.32
8396.91
8076.14
7765.67
7490.08
7420.57
42330.7
32917.5
7829.34
8462.67
8846.15
9109.99
9283.55
9480.89
9713.81
10026.1
10398.8
10827.5
11295.9
11790.6
12298
12801.1
13270.4
13651.1
13876.9
13950.1
13959.1
13959.1
13949.1
13870.7
13633.1
13236.5
12749.8
12227.4
11696.8
11170.9
10656.8
10159.5
9683.38
9234.11
8820.56
8452.51
8123.82
7806.69
7522.19
7446.5
42364.7
25958
8506.39
8827.63
9155.28
9277.46
9380.18
9556.61
9764.66
10069
10434
10860.3
11328.1
11823.4
12332.1
12836.7
13307.2
13688.5
13913.8
13986.6
13995.5
13995.5
13985.5
13906.7
13668.3
13270.1
12781.3
12256.5
11723.1
11194.2
10677.2
10177
9698.04
9246.19
8830.33
8460.29
8129.9
7811.5
7525.57
7448.96
42366.1
)
;

boundaryField
{
    inlet
    {
        type            calculated;
        value           uniform 14000.1;
    }
    outlet
    {
        type            calculated;
        value           nonuniform List<scalar> 
165
(
2132.73
2398.52
2399.82
2382.13
2373.67
2356.23
2402.4
2438.04
2482.78
2534.32
2588.96
2651.74
2712.61
2778.2
2830.31
2887.26
2909.19
2910.23
3061.16
3456.6
3456.6
3066.58
2911.06
2909.11
2891.06
2836.65
2789.72
2731.14
2676.78
2616.96
2561.2
2503.26
2449.29
2399.66
2359.83
2334.68
2324.49
2322.44
2322.29
2322.29
2322.29
2322.29
2322.44
2324.49
2334.68
2359.83
2399.66
2449.29
2503.26
2561.2
2616.97
2676.79
2731.15
2789.73
2836.65
2891.05
2909.07
2911
3066.5
3456.56
2313.56
2313.59
2314.29
2319.48
2336.54
2368.76
2412.62
2463.52
2516.71
2573.52
2627.54
2685.32
2737.66
2794.38
2839.27
2891
2910.82
2910.69
3060.89
3456.56
2313.56
2313.56
2313.56
2313.56
2313.56
3456.56
3060.89
2910.69
2910.82
2891
2839.27
2794.38
2737.66
2685.32
2627.54
2573.52
2516.71
2463.52
2412.62
2368.76
2336.54
2319.48
2314.29
2313.59
2313.56
3456.6
3066.58
2911.06
2909.11
2891.06
2836.65
2789.72
2731.14
2676.78
2616.96
2561.2
2503.26
2449.29
2399.66
2359.83
2334.68
2324.49
2322.44
2322.29
2322.29
2322.29
2322.29
2322.44
2324.49
2334.68
2359.83
2399.66
2449.29
2503.26
2561.2
2616.97
2676.79
2731.15
2789.73
2836.65
2891.05
2909.07
2911
3066.5
3456.56
3456.6
3061.16
2910.23
2909.19
2887.26
2830.31
2778.2
2712.61
2651.74
2588.96
2534.32
2482.78
2438.04
2402.4
2356.23
2373.67
2382.13
2399.82
2398.52
2132.73
)
;
    }
    obstacle
    {
        type            calculated;
        value           nonuniform List<scalar> 
40
(
16581.3
14770.5
14727.2
14727.4
14740.6
14767
14805
14851.1
14895.9
14964.3
16581.3
14770.5
14727.2
14727.4
14740.6
14767
14805
14851.1
14895.9
14964.3
14905.6
14951.3
14916.1
14746.7
13821.9
14905.6
14951.3
14916.1
14746.7
13821.9
16068.4
16351.4
16852.5
17335
18284.8
16068.4
16351.4
16852.5
17335
18284.8
)
;
    }
    empty
    {
        type            empty;
    }
}


// ************************************************************************* //
