/*--------------------------------*- C++ -*----------------------------------*\
| =========                 |                                                 |
| \\      /  F ield         | OpenFOAM: The Open Source CFD Toolbox           |
|  \\    /   O peration     | Version:  v1912                                 |
|   \\  /    A nd           | Website:  www.openfoam.com                      |
|    \\/     M anipulation  |                                                 |
\*---------------------------------------------------------------------------*/
FoamFile
{
    version     2.0;
    format      ascii;
    class       volScalarField;
    location    "2.1";
    object      T;
}
// * * * * * * * * * * * * * * * * * * * * * * * * * * * * * * * * * * * * * //

dimensions      [0 0 0 1 0 0 0];


internalField   nonuniform List<scalar> 
1900
(
1.06138
1.01893
1.01987
1.02046
1.02092
1.0216
1.02263
1.02396
1.02547
1.02785
1.06138
1.01893
1.01987
1.02045
1.0209
1.02158
1.02257
1.0237
1.02497
1.02743
1.06138
1.01893
1.01986
1.02044
1.02089
1.02157
1.02257
1.02375
1.02519
1.0273
1.06138
1.01893
1.01987
1.02045
1.0209
1.02158
1.02257
1.0237
1.02497
1.02743
1.06138
1.01893
1.01987
1.02046
1.02092
1.0216
1.02263
1.02396
1.02547
1.02785
1.027
1.03134
1.03552
1.03687
1.01266
1.0299
1.03414
1.03783
1.04103
1.03075
1.02959
1.0333
1.03649
1.0383
1.02687
1.0299
1.03414
1.03783
1.04103
1.03075
1.027
1.03134
1.03552
1.03687
1.01266
1.06178
1.04834
1.03995
1.01596
0.973135
1.05635
1.04691
1.03917
1.02422
0.999692
1.05528
1.04664
1.03847
1.02492
1.00427
1.05635
1.04691
1.03917
1.02422
0.999692
1.06178
1.04834
1.03995
1.01596
0.973135
0.849224
0.784484
0.842495
0.856945
0.853071
0.852989
0.858839
0.866498
0.877178
0.889572
0.903842
0.919175
0.935028
0.950902
0.966261
0.980242
0.991323
0.997751
0.999792
1.00004
1.00003
0.99975
0.997504
0.990652
0.979029
0.964451
0.948409
0.931673
0.914621
0.897483
0.880428
0.863624
0.847264
0.831591
0.81696
0.804095
0.794425
0.784626
0.712573
0.60513
0.960173
0.830258
0.858371
0.859262
0.854062
0.853395
0.858914
0.866595
0.877238
0.889605
0.90386
0.919182
0.935028
0.950895
0.966246
0.980228
0.991311
0.997738
0.999777
1.00002
1.00002
0.999735
0.99749
0.990638
0.979015
0.964438
0.948397
0.931661
0.914611
0.897473
0.880421
0.863617
0.847259
0.831587
0.816957
0.804092
0.794424
0.784625
0.712573
0.60513
0.96436
0.860072
0.868395
0.861318
0.85431
0.853539
0.858948
0.86662
0.877253
0.88961
0.903859
0.919178
0.935023
0.950888
0.966239
0.980221
0.991305
0.997731
0.999769
1.00001
1.00001
0.999728
0.997482
0.99063
0.979008
0.964431
0.948391
0.931655
0.914606
0.897469
0.880416
0.863614
0.847256
0.831585
0.816956
0.804091
0.794423
0.784624
0.712572
0.60513
0.960173
0.830258
0.858371
0.859262
0.854062
0.853395
0.858914
0.866595
0.877238
0.889605
0.90386
0.919182
0.935028
0.950895
0.966246
0.980228
0.991311
0.997738
0.999777
1.00002
1.00002
0.999735
0.99749
0.990638
0.979015
0.964438
0.948397
0.931661
0.914611
0.897473
0.880421
0.863617
0.847259
0.831587
0.816957
0.804092
0.794424
0.784625
0.712573
0.60513
0.849224
0.784484
0.842495
0.856945
0.853071
0.852989
0.858839
0.866498
0.877178
0.889572
0.903842
0.919175
0.935028
0.950902
0.966261
0.980242
0.991323
0.997751
0.999792
1.00004
1.00003
0.99975
0.997504
0.990652
0.979029
0.964451
0.948409
0.931673
0.914621
0.897483
0.880428
0.863624
0.847264
0.831591
0.81696
0.804095
0.794425
0.784626
0.712573
0.60513
0.656437
0.735597
0.830604
0.84818
0.849301
0.851559
0.858043
0.865905
0.876689
0.889214
0.903528
0.918876
0.934732
0.950607
0.965968
0.979962
0.991074
0.99754
0.999615
0.99987
0.999869
0.999585
0.99734
0.990491
0.978874
0.964305
0.948275
0.931553
0.914517
0.897395
0.880356
0.863567
0.84722
0.831558
0.816937
0.804078
0.794414
0.784618
0.712569
0.60513
0.583696
0.732623
0.820681
0.835229
0.842348
0.847979
0.855362
0.864021
0.875148
0.888014
0.902448
0.917839
0.933696
0.949556
0.964899
0.978879
0.989995
0.996487
0.998576
0.998834
0.998833
0.998549
0.996309
0.989473
0.977883
0.963355
0.947379
0.93072
0.913757
0.896712
0.879755
0.863046
0.846779
0.831191
0.816637
0.803838
0.794217
0.784473
0.712483
0.605122
0.58338
0.735062
0.813054
0.826556
0.834973
0.84232
0.850386
0.859848
0.871079
0.884174
0.898583
0.913868
0.929564
0.945251
0.960438
0.974304
0.985363
0.991853
0.993959
0.994222
0.994222
0.993941
0.991719
0.984937
0.973439
0.959039
0.943225
0.926758
0.910013
0.893208
0.876509
0.860071
0.844082
0.828775
0.814494
0.801958
0.79255
0.783104
0.711516
0.604941
0.587711
0.730413
0.803714
0.816335
0.82589
0.833876
0.841694
0.851437
0.862926
0.876021
0.890327
0.90541
0.920865
0.936305
0.951266
0.964952
0.975895
0.982338
0.984437
0.9847
0.9847
0.984425
0.982244
0.975562
0.964217
0.950011
0.934423
0.918212
0.901752
0.885258
0.868893
0.852814
0.837202
0.822288
0.808399
0.796257
0.787245
0.778355
0.707699
0.603584
0.589806
0.721212
0.793066
0.804724
0.811928
0.82008
0.828841
0.839134
0.850894
0.864096
0.878361
0.893301
0.908552
0.923772
0.93853
0.952048
0.962865
0.969229
0.971296
0.971554
0.971554
0.971291
0.969173
0.962632
0.95148
0.937491
0.922137
0.906177
0.88998
0.873764
0.857691
0.841915
0.826618
0.81202
0.798442
0.786614
0.778064
0.769637
0.700111
0.599178
0.594171
0.706931
0.778854
0.788905
0.796061
0.804387
0.813766
0.824566
0.836692
0.850066
0.864351
0.879201
0.894304
0.90936
0.923956
0.937322
0.947997
0.954243
0.95625
0.956497
0.956497
0.956249
0.954215
0.947852
0.936919
0.923158
0.908034
0.892306
0.876344
0.860364
0.844529
0.828993
0.81393
0.799548
0.786173
0.774561
0.766465
0.758215
0.689905
0.591029
0.582754
0.69123
0.762435
0.772453
0.779571
0.787865
0.797733
0.808999
0.821487
0.835049
0.849375
0.86417
0.879168
0.894096
0.908556
0.921775
0.932285
0.938371
0.940291
0.940521
0.940521
0.940292
0.938363
0.932208
0.921518
0.907993
0.893096
0.877589
0.861843
0.846076
0.83045
0.815116
0.800242
0.786015
0.772792
0.761356
0.753652
0.745322
0.678566
0.580284
0.574234
0.676683
0.746308
0.756139
0.762824
0.771056
0.781373
0.793054
0.805878
0.819605
0.833977
0.848737
0.86366
0.878488
0.892827
0.905893
0.916206
0.922089
0.923898
0.924106
0.924106
0.9239
0.922091
0.916175
0.90575
0.892469
0.877797
0.862503
0.846962
0.831395
0.81596
0.800814
0.786097
0.771994
0.758916
0.747632
0.740207
0.731639
0.666957
0.568295
0.563887
0.663231
0.730292
0.739759
0.746017
0.754246
0.764971
0.77706
0.790157
0.804047
0.818458
0.833204
0.84807
0.862813
0.877031
0.889926
0.900007
0.905648
0.907327
0.907511
0.907511
0.907328
0.905653
0.900003
0.889863
0.876832
0.862384
0.847298
0.831956
0.816574
0.80133
0.786337
0.771792
0.757772
0.74485
0.733692
0.726378
0.717531
0.655423
0.556285
0.552419
0.65049
0.714121
0.723011
0.729169
0.737578
0.748779
0.761179
0.774591
0.78857
0.803049
0.817778
0.832597
0.847251
0.861336
0.874036
0.883848
0.889211
0.890747
0.890907
0.890907
0.890748
0.889217
0.883855
0.87402
0.861248
0.847022
0.832139
0.816985
0.801794
0.786698
0.771904
0.757437
0.743584
0.730749
0.719723
0.712289
0.703234
0.643983
0.544005
0.540761
0.638036
0.697633
0.705981
0.712494
0.721358
0.732944
0.745744
0.759261
0.77343
0.7879
0.802634
0.817388
0.831943
0.845875
0.858354
0.867861
0.87292
0.874305
0.87444
0.87444
0.874305
0.872924
0.867871
0.85836
0.845852
0.831848
0.817161
0.802197
0.787157
0.77227
0.757527
0.743318
0.729463
0.716834
0.705825
0.69813
0.688944
0.632702
0.53282
0.527958
0.625621
0.680977
0.68912
0.696327
0.70586
0.717814
0.730703
0.744532
0.758644
0.773218
0.787895
0.802592
0.817027
0.830791
0.843023
0.852197
0.85693
0.858161
0.858273
0.858273
0.858161
0.856932
0.852204
0.843036
0.830799
0.817009
0.802512
0.787704
0.772852
0.758023
0.743564
0.729288
0.715731
0.703151
0.692085
0.684064
0.674734
0.621472
0.521355
0.516109
0.613808
0.665099
0.673378
0.681255
0.691427
0.703448
0.716608
0.730283
0.744598
0.759076
0.773757
0.788361
0.80268
0.816265
0.828238
0.837056
0.841449
0.842529
0.842619
0.842619
0.842529
0.84145
0.83706
0.828248
0.816282
0.802696
0.788359
0.773712
0.75895
0.744348
0.729836
0.715942
0.702371
0.690043
0.678928
0.670533
0.661173
0.610979
0.511387
0.503924
0.601749
0.64968
0.658588
0.666942
0.678008
0.689935
0.703195
0.716979
0.731175
0.745714
0.760327
0.774882
0.78909
0.802508
0.814221
0.822672
0.826719
0.827651
0.827722
0.827722
0.827651
0.826719
0.822673
0.814228
0.802523
0.789113
0.77491
0.76035
0.745716
0.731131
0.716861
0.702961
0.689526
0.677428
0.665893
0.657225
0.647615
0.600038
0.501008
0.494647
0.591637
0.636338
0.645565
0.654573
0.665963
0.678061
0.691218
0.704932
0.719132
0.733545
0.748045
0.762435
0.77649
0.789728
0.801182
0.809265
0.812971
0.813767
0.813822
0.813822
0.813767
0.812971
0.809266
0.801185
0.789737
0.776509
0.762466
0.748087
0.733596
0.719183
0.704972
0.691233
0.678021
0.665866
0.654304
0.645157
0.635571
0.590944
0.493087
0.48489
0.581008
0.623295
0.632818
0.642421
0.654671
0.666874
0.680503
0.69428
0.708525
0.722892
0.737266
0.751503
0.765365
0.778392
0.789574
0.797283
0.800649
0.801318
0.80136
0.80136
0.801318
0.800649
0.797283
0.789575
0.778396
0.765376
0.751525
0.737301
0.722943
0.708591
0.694362
0.68059
0.666967
0.65475
0.642458
0.632801
0.623113
0.580779
0.484263
0.481236
0.573887
0.613665
0.622881
0.632788
0.645615
0.658262
0.672226
0.686361
0.700909
0.715446
0.729832
0.743912
0.75747
0.770069
0.780771
0.788039
0.791113
0.791687
0.79172
0.79172
0.791687
0.791113
0.788039
0.780771
0.77007
0.757474
0.743922
0.729853
0.71548
0.700959
0.686431
0.672315
0.658375
0.645743
0.632929
0.623018
0.613741
0.573897
0.480966
0.481063
0.568107
0.605705
0.614105
0.623543
0.63646
0.649022
0.663118
0.677265
0.691948
0.706718
0.721433
0.735862
0.749668
0.762292
0.7727
0.77943
0.782076
0.782525
0.782548
0.782548
0.782525
0.782076
0.77943
0.772699
0.762292
0.74967
0.735868
0.721446
0.706741
0.691984
0.677318
0.663188
0.649114
0.636569
0.623671
0.614238
0.605809
0.568167
0.480987
0.457345
0.532378
0.568854
0.57504
0.58195
0.592549
0.602146
0.613476
0.624567
0.636182
0.647914
0.659756
0.671655
0.683472
0.694619
0.703834
0.709516
0.711533
0.711829
0.711841
0.711841
0.711829
0.711533
0.709516
0.703834
0.694618
0.683471
0.671654
0.659758
0.64792
0.636196
0.624592
0.613515
0.602203
0.592627
0.582051
0.575159
0.568974
0.532487
0.457385
0.405024
0.456537
0.480926
0.481249
0.484253
0.493541
0.501844
0.512608
0.523018
0.534973
0.546621
0.559273
0.571597
0.583417
0.593265
0.599656
0.602284
0.602815
0.602855
0.602856
0.602856
0.602855
0.602815
0.602284
0.599656
0.593265
0.583417
0.571596
0.559273
0.54662
0.534972
0.523016
0.512607
0.501843
0.493542
0.484255
0.481255
0.480937
0.456548
0.405028
0.405024
0.456537
0.480926
0.481249
0.484253
0.493541
0.501844
0.512608
0.523018
0.534973
0.546621
0.559273
0.571597
0.583417
0.593265
0.599656
0.602284
0.602815
0.602855
0.602856
0.602856
0.602855
0.602815
0.602284
0.599656
0.593265
0.583417
0.571596
0.559273
0.54662
0.534972
0.523016
0.512607
0.501843
0.493542
0.484255
0.481255
0.480937
0.456548
0.405028
0.457345
0.532378
0.568854
0.57504
0.58195
0.592549
0.602146
0.613476
0.624567
0.636182
0.647914
0.659756
0.671655
0.683472
0.694619
0.703834
0.709516
0.711533
0.711829
0.711841
0.711841
0.711829
0.711533
0.709516
0.703834
0.694618
0.683471
0.671654
0.659758
0.64792
0.636196
0.624592
0.613515
0.602203
0.592627
0.582051
0.575159
0.568974
0.532487
0.457385
0.481063
0.568107
0.605705
0.614105
0.623543
0.63646
0.649022
0.663118
0.677265
0.691948
0.706718
0.721433
0.735862
0.749668
0.762292
0.7727
0.77943
0.782076
0.782525
0.782548
0.782548
0.782525
0.782076
0.77943
0.772699
0.762292
0.74967
0.735868
0.721446
0.706741
0.691984
0.677318
0.663188
0.649114
0.636569
0.623671
0.614238
0.605809
0.568167
0.480987
0.481236
0.573887
0.613665
0.622881
0.632788
0.645615
0.658262
0.672226
0.686361
0.700909
0.715446
0.729832
0.743912
0.75747
0.770069
0.780771
0.788039
0.791113
0.791687
0.79172
0.79172
0.791687
0.791113
0.788039
0.780771
0.77007
0.757474
0.743922
0.729853
0.71548
0.700959
0.686431
0.672315
0.658375
0.645743
0.632929
0.623018
0.613741
0.573897
0.480966
0.48489
0.581008
0.623295
0.632818
0.642421
0.654671
0.666874
0.680503
0.69428
0.708525
0.722892
0.737266
0.751503
0.765365
0.778392
0.789574
0.797283
0.800649
0.801318
0.80136
0.80136
0.801318
0.800649
0.797283
0.789575
0.778396
0.765376
0.751525
0.737301
0.722943
0.708591
0.694362
0.68059
0.666967
0.65475
0.642458
0.632801
0.623113
0.580779
0.484263
0.494647
0.591637
0.636338
0.645565
0.654573
0.665963
0.678061
0.691218
0.704932
0.719132
0.733545
0.748045
0.762435
0.77649
0.789728
0.801182
0.809265
0.812971
0.813767
0.813822
0.813822
0.813767
0.812971
0.809266
0.801185
0.789737
0.776509
0.762466
0.748087
0.733596
0.719183
0.704972
0.691233
0.678021
0.665866
0.654304
0.645157
0.635571
0.590944
0.493087
0.503924
0.601749
0.64968
0.658588
0.666942
0.678008
0.689935
0.703195
0.716979
0.731175
0.745714
0.760327
0.774882
0.78909
0.802508
0.814221
0.822672
0.826719
0.827651
0.827722
0.827722
0.827651
0.826719
0.822673
0.814228
0.802523
0.789113
0.77491
0.76035
0.745716
0.731131
0.716861
0.702961
0.689526
0.677428
0.665893
0.657225
0.647615
0.600038
0.501008
0.516109
0.613808
0.665099
0.673378
0.681255
0.691427
0.703448
0.716608
0.730283
0.744598
0.759076
0.773757
0.788361
0.80268
0.816265
0.828238
0.837056
0.841449
0.842529
0.842619
0.842619
0.842529
0.84145
0.83706
0.828248
0.816282
0.802696
0.788359
0.773712
0.75895
0.744348
0.729836
0.715942
0.702371
0.690043
0.678928
0.670533
0.661173
0.610979
0.511387
0.527958
0.625621
0.680977
0.68912
0.696327
0.70586
0.717814
0.730703
0.744532
0.758644
0.773218
0.787895
0.802592
0.817027
0.830791
0.843023
0.852197
0.85693
0.858161
0.858273
0.858273
0.858161
0.856932
0.852204
0.843036
0.830799
0.817009
0.802512
0.787704
0.772852
0.758023
0.743564
0.729288
0.715731
0.703151
0.692085
0.684064
0.674734
0.621472
0.521355
0.540761
0.638036
0.697633
0.705981
0.712494
0.721358
0.732944
0.745744
0.759261
0.77343
0.7879
0.802634
0.817388
0.831943
0.845875
0.858354
0.867861
0.87292
0.874305
0.87444
0.87444
0.874305
0.872924
0.867871
0.85836
0.845852
0.831848
0.817161
0.802197
0.787157
0.77227
0.757527
0.743318
0.729463
0.716834
0.705825
0.69813
0.688944
0.632702
0.53282
0.552419
0.65049
0.714121
0.723011
0.729169
0.737578
0.748779
0.761179
0.774591
0.78857
0.803049
0.817778
0.832597
0.847251
0.861336
0.874036
0.883848
0.889211
0.890747
0.890907
0.890907
0.890748
0.889217
0.883855
0.87402
0.861248
0.847022
0.832139
0.816985
0.801794
0.786698
0.771904
0.757437
0.743584
0.730749
0.719723
0.712289
0.703234
0.643983
0.544005
0.563887
0.663231
0.730292
0.739759
0.746017
0.754246
0.764971
0.77706
0.790157
0.804047
0.818458
0.833204
0.84807
0.862813
0.877031
0.889926
0.900007
0.905648
0.907327
0.907511
0.907511
0.907328
0.905653
0.900003
0.889863
0.876832
0.862384
0.847298
0.831956
0.816574
0.80133
0.786337
0.771792
0.757772
0.74485
0.733692
0.726378
0.717531
0.655423
0.556285
0.574234
0.676683
0.746308
0.756139
0.762824
0.771056
0.781373
0.793054
0.805878
0.819605
0.833977
0.848737
0.86366
0.878488
0.892827
0.905893
0.916206
0.922089
0.923898
0.924106
0.924106
0.9239
0.922091
0.916175
0.90575
0.892469
0.877797
0.862503
0.846962
0.831395
0.81596
0.800814
0.786097
0.771994
0.758916
0.747632
0.740207
0.731639
0.666957
0.568295
0.582754
0.69123
0.762435
0.772453
0.779571
0.787865
0.797733
0.808999
0.821487
0.835049
0.849375
0.86417
0.879168
0.894096
0.908556
0.921775
0.932285
0.938371
0.940291
0.940521
0.940521
0.940292
0.938363
0.932208
0.921518
0.907993
0.893096
0.877589
0.861843
0.846076
0.83045
0.815116
0.800242
0.786015
0.772792
0.761356
0.753652
0.745322
0.678566
0.580284
0.594171
0.706931
0.778854
0.788905
0.796061
0.804387
0.813766
0.824566
0.836692
0.850066
0.864351
0.879201
0.894304
0.90936
0.923956
0.937322
0.947997
0.954243
0.95625
0.956497
0.956497
0.956249
0.954215
0.947852
0.936919
0.923158
0.908034
0.892306
0.876344
0.860364
0.844529
0.828993
0.81393
0.799548
0.786173
0.774561
0.766465
0.758215
0.689905
0.591029
0.589806
0.721212
0.793066
0.804724
0.811928
0.82008
0.828841
0.839134
0.850894
0.864096
0.878361
0.893301
0.908552
0.923772
0.93853
0.952048
0.962865
0.969229
0.971296
0.971554
0.971554
0.971291
0.969173
0.962632
0.95148
0.937491
0.922137
0.906177
0.88998
0.873764
0.857691
0.841915
0.826618
0.81202
0.798442
0.786614
0.778064
0.769637
0.700111
0.599178
0.587711
0.730413
0.803714
0.816335
0.82589
0.833876
0.841694
0.851437
0.862926
0.876021
0.890327
0.90541
0.920865
0.936305
0.951266
0.964952
0.975895
0.982338
0.984437
0.9847
0.9847
0.984425
0.982244
0.975562
0.964217
0.950011
0.934423
0.918212
0.901752
0.885258
0.868893
0.852814
0.837202
0.822288
0.808399
0.796257
0.787245
0.778355
0.707699
0.603584
0.58338
0.735062
0.813054
0.826556
0.834973
0.84232
0.850386
0.859848
0.871079
0.884174
0.898583
0.913868
0.929564
0.945251
0.960438
0.974304
0.985363
0.991853
0.993959
0.994222
0.994222
0.993941
0.991719
0.984937
0.973439
0.959039
0.943225
0.926758
0.910013
0.893208
0.876509
0.860071
0.844082
0.828775
0.814494
0.801958
0.79255
0.783104
0.711516
0.604941
0.583696
0.732623
0.820681
0.835229
0.842348
0.847979
0.855362
0.864021
0.875148
0.888014
0.902448
0.917839
0.933696
0.949556
0.964899
0.978879
0.989995
0.996487
0.998576
0.998834
0.998833
0.998549
0.996309
0.989473
0.977883
0.963355
0.947379
0.93072
0.913757
0.896712
0.879755
0.863046
0.846779
0.831191
0.816637
0.803838
0.794217
0.784473
0.712483
0.605122
0.656437
0.735597
0.830604
0.84818
0.849301
0.851559
0.858043
0.865905
0.876689
0.889214
0.903528
0.918876
0.934732
0.950607
0.965968
0.979962
0.991074
0.99754
0.999615
0.99987
0.999869
0.999585
0.99734
0.990491
0.978874
0.964305
0.948275
0.931553
0.914517
0.897395
0.880356
0.863567
0.84722
0.831558
0.816937
0.804078
0.794414
0.784618
0.712569
0.60513
)
;

boundaryField
{
    inlet
    {
        type            fixedValue;
        value           uniform 1;
    }
    outlet
    {
        type            zeroGradient;
    }
    obstacle
    {
        type            zeroGradient;
    }
    empty
    {
        type            empty;
    }
}


// ************************************************************************* //
