/*--------------------------------*- C++ -*----------------------------------*\
| =========                 |                                                 |
| \\      /  F ield         | OpenFOAM: The Open Source CFD Toolbox           |
|  \\    /   O peration     | Version:  v1912                                 |
|   \\  /    A nd           | Website:  www.openfoam.com                      |
|    \\/     M anipulation  |                                                 |
\*---------------------------------------------------------------------------*/
FoamFile
{
    version     2.0;
    format      ascii;
    class       volVectorField;
    location    "1.3";
    object      grad(p);
}
// * * * * * * * * * * * * * * * * * * * * * * * * * * * * * * * * * * * * * //

dimensions      [1 -2 -2 0 0 0 0];


internalField   nonuniform List<vector> 
1900
(
(0.0334321 2.11219e-05 0)
(6.97353 -7.85265e-05 0)
(128.786 -0.0212862 0)
(709.489 -0.570389 0)
(1661.62 -3.12231 0)
(2063.56 -6.7753 0)
(1638.7 -7.51535 0)
(827.129 -44.1961 0)
(395.719 -79.2222 0)
(-246.841 -167.343 0)
(0.0333747 3.11209e-05 0)
(6.95222 -0.000130215 0)
(128.216 -0.0350424 0)
(706.388 -0.924598 0)
(1655.41 -4.99977 0)
(2059.16 -10.9355 0)
(1601.28 -13.3183 0)
(755.422 -65.1784 0)
(272.572 -58.3321 0)
(95.9685 -203.13 0)
(0.033333 7.19425e-09 0)
(6.93845 -1.1191e-08 0)
(127.861 6.32383e-09 0)
(704.524 -5.45342e-09 0)
(1651.6 1.79412e-09 0)
(2055.24 1.59872e-10 0)
(1584.46 -1.06581e-09 0)
(782.115 -1.20792e-09 0)
(257.768 3.55271e-11 0)
(35.6845 -1.77636e-11 0)
(0.0333747 -3.11101e-05 0)
(6.95222 0.000130193 0)
(128.216 0.0350424 0)
(706.388 0.924598 0)
(1655.41 4.99977 0)
(2059.16 10.9355 0)
(1601.28 13.3183 0)
(755.422 65.1784 0)
(272.572 58.3321 0)
(95.9685 203.13 0)
(0.0334321 -2.11183e-05 0)
(6.97353 7.85157e-05 0)
(128.786 0.0212863 0)
(709.489 0.570389 0)
(1661.62 3.12231 0)
(2063.56 6.7753 0)
(1638.7 7.51535 0)
(827.129 44.1961 0)
(395.719 79.2222 0)
(-246.841 167.343 0)
(-393.318 188.755 1.04827e-11)
(-65.4724 143.171 -1.27492e-11)
(-944.313 27.1179 -1.60955e-11)
(-5671.7 722.097 0)
(-1257.72 6937.63 -6.44071e-11)
(-34.7387 146.754 1.05168e-11)
(-309.579 30.5556 1.27492e-11)
(-628.668 -160.156 1.60955e-11)
(-2645.31 176.739 0)
(-550.886 5931 0)
(-31.1811 1.67338e-09 0)
(-362.522 2.0841e-09 0)
(-835.468 4.19418e-10 0)
(-2583.44 3.06152e-09 0)
(2532.24 3.17207e-10 0)
(-34.7387 -146.754 1.05168e-11)
(-309.579 -30.5556 1.27492e-11)
(-628.668 160.156 1.60955e-11)
(-2645.31 -176.739 0)
(-550.886 -5931 0)
(-393.318 -188.755 -3.15162e-11)
(-65.4724 -143.171 -1.27492e-11)
(-944.313 -27.1179 -1.60955e-11)
(-5671.7 -722.097 -4.35149e-11)
(-1257.72 -6937.63 6.44071e-11)
(8527.44 -3290.05 3.14343e-11)
(812.786 -477.492 -2.65334e-11)
(1425.12 -64.6149 0)
(2166.98 1070.61 2.07996e-11)
(-6463.72 -3639.67 -9.5299e-12)
(6079.23 -3390.46 -1.56676e-11)
(1570.09 -357.636 1.32595e-11)
(1977.57 -229.937 0)
(546.121 484.974 -1.30235e-11)
(-6497.75 -7359.41 2.29966e-12)
(6666.2 6.28005e-10 0)
(1566.41 -3.79563e-10 0)
(1718.94 1.77636e-09 0)
(-1100.02 -1.04492e-09 5.21525e-12)
(-8525.13 -4.41492e-09 -4.59932e-12)
(6079.23 3390.46 -1.56676e-11)
(1570.09 357.636 1.32595e-11)
(1977.57 229.937 0)
(546.121 -484.974 -1.30235e-11)
(-6497.75 7359.41 2.29966e-12)
(8527.44 3290.05 1.56676e-11)
(812.786 477.492 1.43805e-14)
(1425.12 64.6149 0)
(2166.98 -1070.61 3.22433e-14)
(-6463.72 3639.67 9.5299e-12)
(-23867.3 -8141.48 0)
(-14717.7 7615.6 0)
(1779.75 3852.43 0)
(512.822 1259.56 0)
(1551.38 215.637 0)
(2848.14 461.568 0)
(3680.53 25.0265 0)
(4395.27 32.611 0)
(4624.2 42.9912 0)
(4261.52 43.1653 0)
(3113.7 30.4394 0)
(1524.17 12.2764 0)
(402.238 1.93901 0)
(41.9001 0.0767077 0)
(1.15306 0.000504089 0)
(0.00561133 3.96354e-07 0)
(3.41363e-06 0 0)
(1.61487e-11 0 0)
(0 -9.68922e-11 0)
(-1.61487e-11 3.22974e-11 0)
(0 -3.22974e-11 0)
(0 6.45948e-11 0)
(0 0 0)
(-4.54579e-06 -6.45948e-11 0)
(-0.00713533 2.13163e-09 0)
(-1.40408 -8.7203e-10 0)
(-49.1354 5.39367e-09 0)
(-457.825 -1.08196e-08 0)
(-1698.01 8.23584e-09 0)
(-3421.65 -6.91164e-09 0)
(-4666.49 -1.61487e-10 0)
(-5132.09 -6.45948e-11 0)
(-5103.05 8.7203e-10 0)
(-4826.48 1.61487e-10 0)
(-4393.29 -2.39001e-09 0)
(-3842.05 -4.36015e-10 0)
(-3220.17 -1.95399e-09 0)
(-3381.36 -7.75138e-10 0)
(37548 -2.26082e-09 0)
(-62809.6 -5.03839e-09 0)
(-21317.7 -4160.87 0)
(-14588.9 10420.2 0)
(702.187 3180.17 0)
(-131.075 676.271 0)
(1482.98 20.079 0)
(2835.82 284.418 0)
(3615.25 -21.605 0)
(4405.82 3.74382 0)
(4627.54 17.5745 0)
(4260.34 19.6206 0)
(3110.54 13.3134 0)
(1521.56 5.31491 0)
(401.157 0.864417 0)
(41.7238 0.0355114 0)
(1.14583 0.000240756 0)
(0.00556248 1.94043e-07 0)
(3.37417e-06 0 0)
(0 0 0)
(2.4223e-11 -3.22974e-11 0)
(0 -3.22974e-11 0)
(0 0 0)
(-1.61487e-11 -3.22974e-11 0)
(-8.07435e-12 0 0)
(-4.54583e-06 0 0)
(-0.00713533 0 0)
(-1.40408 -9.36625e-10 0)
(-49.1354 6.97624e-09 0)
(-457.825 -1.21438e-08 0)
(-1698.01 9.14016e-09 0)
(-3421.65 -8.52651e-09 0)
(-4666.49 1.195e-09 0)
(-5132.09 1.13041e-09 0)
(-5103.05 1.45338e-09 0)
(-4826.48 -1.2273e-09 0)
(-4393.29 -1.38879e-09 0)
(-3842.05 1.13041e-10 0)
(-3220.17 -1.2919e-10 0)
(-3381.36 9.68922e-11 0)
(37548 -3.7142e-10 0)
(-62809.6 1.2919e-10 0)
(-18623.3 5.65204e-09 0)
(-12582.2 3.13285e-09 0)
(-1054.84 1.38879e-09 0)
(-406.477 1.64717e-09 0)
(1437.39 8.39732e-10 0)
(2836.01 -1.51798e-09 0)
(3598.88 9.04327e-10 0)
(4406.67 2.4223e-09 0)
(4628.82 2.06703e-09 0)
(4260.28 2.97136e-09 0)
(3109.54 -1.93784e-09 0)
(1520.54 3.64961e-09 0)
(400.702 2.5192e-09 0)
(41.6487 8.7203e-10 0)
(1.14273 -6.45948e-10 0)
(0.0055413 1.13041e-09 0)
(3.35718e-06 0 0)
(0 0 0)
(0 0 0)
(0 -3.22974e-11 0)
(0 0 0)
(0 -3.22974e-11 0)
(0 -6.45948e-11 0)
(-4.54578e-06 0 0)
(-0.00713533 -2.4869e-09 0)
(-1.40408 -1.93784e-10 0)
(-49.1354 7.84827e-09 0)
(-457.825 -1.48245e-08 0)
(-1698.01 1.12072e-08 0)
(-3421.65 -5.87813e-09 0)
(-4666.49 -6.45948e-11 0)
(-5132.09 0 0)
(-5103.05 1.00122e-09 0)
(-4826.48 -6.45948e-11 0)
(-4393.29 2.26082e-10 0)
(-3842.05 -3.39123e-10 0)
(-3220.17 0 0)
(-3381.36 5.65204e-10 0)
(37548 -1.13041e-10 0)
(-62809.6 5.29677e-09 0)
(-21317.7 4160.87 0)
(-14588.9 -10420.2 0)
(702.187 -3180.17 0)
(-131.075 -676.271 0)
(1482.98 -20.079 0)
(2835.82 -284.418 0)
(3615.25 21.605 0)
(4405.82 -3.74382 0)
(4627.54 -17.5745 0)
(4260.34 -19.6206 0)
(3110.54 -13.3134 0)
(1521.56 -5.31491 0)
(401.157 -0.864417 0)
(41.7238 -0.0355114 0)
(1.14583 -0.00024076 0)
(0.00556248 -1.93268e-07 0)
(3.37383e-06 0 0)
(0 0 0)
(0 0 0)
(0 0 0)
(0 0 0)
(-2.4223e-11 0 0)
(0 0 0)
(-4.54654e-06 0 0)
(-0.00713533 -9.68922e-11 0)
(-1.40408 -2.55149e-09 0)
(-49.1354 8.688e-09 0)
(-457.825 -1.35326e-08 0)
(-1698.01 1.41463e-08 0)
(-3421.65 -5.49056e-09 0)
(-4666.49 2.90677e-10 0)
(-5132.09 2.77758e-09 0)
(-5103.05 2.26082e-09 0)
(-4826.48 1.13041e-09 0)
(-4393.29 -4.52164e-10 0)
(-3842.05 -7.4284e-10 0)
(-3220.17 -1.72791e-09 0)
(-3381.36 1.06581e-09 0)
(37548 7.91286e-10 0)
(-62809.6 1.42109e-09 0)
(-23867.3 8141.48 0)
(-14717.7 -7615.6 0)
(1779.75 -3852.43 0)
(512.822 -1259.56 0)
(1551.38 -215.637 0)
(2848.14 -461.568 0)
(3680.53 -25.0265 0)
(4395.27 -32.611 0)
(4624.2 -42.9912 0)
(4261.52 -43.1653 0)
(3113.7 -30.4394 0)
(1524.17 -12.2764 0)
(402.238 -1.93901 0)
(41.9001 -0.0767077 0)
(1.15306 -0.000504089 0)
(0.00561133 -3.93285e-07 0)
(3.41341e-06 0 0)
(0 0 0)
(0 0 0)
(1.61487e-11 3.22974e-11 0)
(-1.61487e-11 0 0)
(0 0 0)
(0 6.45948e-11 0)
(-4.54583e-06 0 0)
(-0.00713533 1.13041e-09 0)
(-1.40408 -3.16514e-09 0)
(-49.1354 7.29921e-09 0)
(-457.825 -9.26935e-09 0)
(-1698.01 1.09488e-08 0)
(-3421.65 -1.61487e-09 0)
(-4666.49 1.58257e-09 0)
(-5132.09 3.64961e-09 0)
(-5103.05 3.26204e-09 0)
(-4826.48 -2.26082e-10 0)
(-4393.29 -6.45948e-11 0)
(-3842.05 2.74528e-10 0)
(-3220.17 1.45338e-09 0)
(-3381.36 1.13041e-09 0)
(37548 2.39001e-09 0)
(-62809.6 2.13163e-09 0)
(55502.1 14495.9 0)
(-21963.4 -5635.67 0)
(3443.23 -3075.58 0)
(1405.68 -1735.97 0)
(1904.45 -653.277 0)
(2941.14 -511.554 0)
(3808.84 -177.445 0)
(4406.74 -109.947 0)
(4624.77 -91.2804 0)
(4266.84 -77.4193 0)
(3126.25 -51.5164 0)
(1536.43 -19.9053 0)
(407.559 -3.01599 0)
(42.7358 -0.115516 0)
(1.18558 -0.000743255 0)
(0.00582219 -5.70872e-07 0)
(3.5748e-06 0 0)
(0 0 0)
(0 0 0)
(0 -9.75016e-12 0)
(0 0 0)
(0 0 0)
(0 0 0)
(-4.5467e-06 0 0)
(-0.00713533 -5.65509e-10 0)
(-1.40408 -5.65509e-10 0)
(-49.1354 2.54479e-09 0)
(-457.825 -1.47227e-09 0)
(-1698.01 2.75929e-09 0)
(-3421.65 5.65509e-10 0)
(-4666.49 1.54052e-09 0)
(-5132.09 1.18952e-09 0)
(-5103.05 1.25777e-09 0)
(-4826.48 7.70262e-10 0)
(-4393.29 -9.75016e-10 0)
(-3842.05 6.63011e-10 0)
(-3220.17 1.40402e-09 0)
(-3381.36 9.75016e-11 0)
(37548 -7.80013e-10 0)
(-62809.6 7.60512e-10 0)
(57792.9 9965.7 0)
(-27764.8 -2699.43 0)
(4645.62 -2225.03 0)
(2368.26 -1594.11 0)
(2541.95 -924.528 0)
(3256.8 -559.64 0)
(3998.72 -323.664 0)
(4472.15 -214.364 0)
(4655.24 -159.823 0)
(4296.99 -116.935 0)
(3162.39 -68.6254 0)
(1564.33 -24.2832 0)
(418.455 -3.48804 0)
(44.3576 -0.129688 0)
(1.24694 -0.000821783 0)
(0.0062145 -6.24615e-07 0)
(3.87698e-06 0 0)
(0 0 0)
(0 0 0)
(0 0 0)
(0 0 0)
(0 0 0)
(0 0 0)
(-4.54588e-06 0 0)
(-0.00713533 -1.65753e-10 0)
(-1.40408 1.55028e-09 0)
(-49.1354 -3.93906e-09 0)
(-457.825 9.45765e-09 0)
(-1698.01 -5.34309e-09 0)
(-3421.65 2.25229e-09 0)
(-4666.49 1.65753e-09 0)
(-5132.09 4.09507e-10 0)
(-5103.05 2.32054e-09 0)
(-4826.48 1.39427e-09 0)
(-4393.29 3.90006e-10 0)
(-3842.05 4.14382e-10 0)
(-3220.17 9.26265e-11 0)
(-3381.36 4.63132e-10 0)
(37548 2.43754e-10 0)
(-62809.6 -1.18952e-09 0)
(62504.2 9206.59 0)
(-33710.9 -739.282 0)
(4508.36 -1343.74 0)
(2658.89 -1211.94 0)
(2901.3 -916.63 0)
(3520.15 -589.604 0)
(4141.56 -418.058 0)
(4564.63 -293.134 0)
(4718.66 -211.057 0)
(4354.72 -141.499 0)
(3215.53 -75.5838 0)
(1599.19 -24.6637 0)
(430.834 -3.33995 0)
(46.0962 -0.119257 0)
(1.31055 -0.000742263 0)
(0.00661409 -5.74323e-07 0)
(4.17669e-06 -1.4089e-08 0)
(0 -1.47812e-08 0)
(0 -1.3426e-08 0)
(0 -1.32895e-08 0)
(0 -1.40207e-08 0)
(0 -1.34747e-08 0)
(0 -1.47715e-08 0)
(-4.54687e-06 -1.36502e-08 0)
(-0.00713533 -1.4908e-08 0)
(-1.40408 -2.35174e-08 0)
(-49.1354 -2.04656e-08 0)
(-457.825 -1.03352e-08 0)
(-1698.01 -2.30981e-08 0)
(-3421.65 -1.81158e-08 0)
(-4666.49 -1.11444e-08 0)
(-5132.09 -1.25387e-08 0)
(-5103.05 -5.36259e-09 0)
(-4826.48 -4.72883e-09 0)
(-4393.29 -2.73004e-09 0)
(-3842.05 -1.49177e-09 0)
(-3220.17 -1.6819e-09 0)
(-3381.36 -9.5064e-10 0)
(37548 6.53261e-10 0)
(-62809.6 -4.46557e-09 0)
(65952.3 4679.12 0)
(-37931.5 -378.08 0)
(4190.15 -1009.2 0)
(2779.84 -1049.96 0)
(3141.65 -856.292 0)
(3737.24 -611.18 0)
(4284.41 -449.956 0)
(4671.62 -321.26 0)
(4801.36 -223.912 0)
(4427.54 -140.178 0)
(3274.98 -68.6089 0)
(1633.94 -20.4102 0)
(442.107 -2.55754 0)
(47.5754 -0.0867306 0)
(1.36186 -0.000613126 0)
(0.00692975 -9.62964e-05 0)
(4.41616e-06 -9.5895e-05 0)
(6.3376e-10 -9.58976e-05 0)
(1.46252e-09 -9.5897e-05 0)
(-5.75259e-10 -9.58957e-05 0)
(-1.85253e-10 -9.58986e-05 0)
(-7.21512e-10 -9.58972e-05 0)
(-1.75503e-10 -9.5897e-05 0)
(-4.546e-06 -9.58987e-05 0)
(-0.00713534 -9.58987e-05 0)
(-1.40408 -9.59127e-05 0)
(-49.1354 -9.58769e-05 0)
(-457.825 -9.57134e-05 0)
(-1698.01 -9.38579e-05 0)
(-3421.65 -8.73017e-05 0)
(-4666.49 -7.47303e-05 0)
(-5132.09 -5.82169e-05 0)
(-5103.05 -4.11352e-05 0)
(-4826.48 -2.64452e-05 0)
(-4393.29 -1.56188e-05 0)
(-3842.05 -8.70305e-06 0)
(-3220.17 -4.45257e-06 0)
(-3381.36 -2.18647e-06 0)
(37548 -4.37948e-07 0)
(-62809.6 -4.78733e-08 0)
(66648.8 760.854 0)
(-39192.4 -233.879 0)
(3860.91 -889.294 0)
(2806.24 -939.474 0)
(3324.13 -768.202 0)
(3911.71 -583.09 0)
(4420.94 -432.067 0)
(4782.45 -306.655 0)
(4893.15 -204.558 0)
(4504.37 -119.385 0)
(3330.95 -53.3424 0)
(1662.84 -14.1265 0)
(450.419 -1.58992 0)
(48.5602 -0.111841 0)
(1.39403 -0.0660572 0)
(0.00711251 -0.0658044 0)
(4.56102e-06 -0.0658042 0)
(-1.94028e-09 -0.0658042 0)
(1.82328e-09 -0.0658042 0)
(-1.55028e-09 -0.0658042 0)
(-1.47227e-09 -0.0658042 0)
(1.60878e-09 -0.0658042 0)
(-1.40402e-09 -0.0658042 0)
(-4.54855e-06 -0.0658042 0)
(-0.00713534 -0.0658042 0)
(-1.40408 -0.0658042 0)
(-49.1354 -0.0658006 0)
(-457.825 -0.0656754 0)
(-1698.01 -0.0645375 0)
(-3421.65 -0.0606012 0)
(-4666.49 -0.0532195 0)
(-5132.09 -0.0434574 0)
(-5103.05 -0.0329952 0)
(-4826.48 -0.0233661 0)
(-4393.29 -0.0155451 0)
(-3842.05 -0.00990612 0)
(-3220.17 -0.00590266 0)
(-3381.36 -0.00346555 0)
(37548 -0.000906433 0)
(-62809.6 -0.000304203 0)
(66460.1 -826.907 0)
(-39521.7 -244.797 0)
(3510.21 -894.605 0)
(2896.53 -834.089 0)
(3485.08 -680.935 0)
(4061.15 -530.648 0)
(4550.79 -396.202 0)
(4890.86 -276.257 0)
(4981.82 -171.713 0)
(4573.26 -91.2903 0)
(3376.41 -38.3671 0)
(1683.82 -13.5522 0)
(455.612 -7.04379 0)
(49.0439 -6.44766 0)
(1.40622 -6.43471 0)
(0.00717356 -6.43466 0)
(4.59434e-06 -6.43466 0)
(8.77514e-11 -6.43466 0)
(2.10603e-09 -6.43466 0)
(2.63254e-09 -6.43466 0)
(3.47106e-09 -6.43466 0)
(5.46009e-09 -6.43466 0)
(-4.47532e-09 -6.43466 0)
(-4.547e-06 -6.43466 0)
(-0.00713533 -6.43466 0)
(-1.40408 -6.43466 0)
(-49.1352 -6.43431 0)
(-457.824 -6.42274 0)
(-1698.01 -6.32134 0)
(-3421.64 -5.98339 0)
(-4666.48 -5.3679 0)
(-5132.07 -4.56115 0)
(-5103.03 -3.67943 0)
(-4826.47 -2.82734 0)
(-4393.27 -2.07996 0)
(-3842.04 -1.48479 0)
(-3220.17 -1.00964 0)
(-3381.35 -0.69014 0)
(37548 -0.234206 0)
(-62809.6 -0.172858 0)
(65616.1 -1774.72 0)
(-39257.6 -457.826 0)
(3293.04 -854.59 0)
(3012.14 -743.582 0)
(3616.53 -605.123 0)
(4186.09 -464.054 0)
(4666.08 -341.64 0)
(4998.78 -250.86 0)
(5071.4 -191.405 0)
(4632.87 -153.768 0)
(3405.86 -135.032 0)
(1693.03 -130.116 0)
(457.265 -129.916 0)
(49.1471 -130.01 0)
(1.40656 -130.017 0)
(0.00715967 -130.017 0)
(4.59897e-06 -130.017 0)
(4.87508e-10 -130.017 0)
(-1.21877e-09 -130.017 0)
(-3.23705e-09 -130.017 0)
(-3.3248e-09 -130.017 0)
(-2.60329e-09 -130.017 0)
(4.75808e-09 -130.017 0)
(-4.55364e-06 -130.017 0)
(-0.00713357 -130.017 0)
(-1.40375 -130.017 0)
(-49.1239 -130.01 0)
(-457.716 -129.783 0)
(-1697.59 -127.874 0)
(-3420.73 -121.771 0)
(-4665.12 -111.064 0)
(-5130.46 -97.345 0)
(-5101.38 -82.3394 0)
(-4824.94 -67.4507 0)
(-4391.99 -53.6969 0)
(-3841.02 -41.9222 0)
(-3219.41 -31.7247 0)
(-3380.61 -24.4367 0)
(37548.5 -10.6845 0)
(-62809.2 -14.8806 0)
(64308.7 -2215.98 0)
(-38635 -588.665 0)
(3234.85 -702.915 0)
(3136.92 -662.489 0)
(3754.44 -632.8 0)
(4315.05 -606.345 0)
(4756.24 -601.736 0)
(5035.63 -625.532 0)
(5075.38 -673.609 0)
(4627.58 -728.488 0)
(3399.2 -777.158 0)
(1688.75 -807.733 0)
(455.714 -818.556 0)
(48.9467 -819.972 0)
(1.39936 -820.02 0)
(0.00711321 -820.02 0)
(4.52213e-06 -820.02 0)
(-4.06582e-09 -820.02 0)
(-4.42657e-09 -820.02 0)
(7.80013e-10 -820.02 0)
(3.86106e-09 -820.02 0)
(8.02438e-09 -820.02 0)
(-2.73004e-10 -820.02 0)
(-4.53705e-06 -820.02 0)
(-0.00709865 -820.02 0)
(-1.39734 -820.02 0)
(-48.9102 -819.974 0)
(-455.766 -818.546 0)
(-1690.29 -806.989 0)
(-3405.44 -771.555 0)
(-4642.94 -711.861 0)
(-5104.39 -637.739 0)
(-5074.22 -557.859 0)
(-4798.87 -478.19 0)
(-4368.67 -402.672 0)
(-3820.87 -335.205 0)
(-3203.32 -274.488 0)
(-3361.08 -229.842 0)
(37557.2 -126.804 0)
(-62784.9 -282.242 0)
(62913.4 -2894.82 0)
(-37799.5 -830.246 0)
(3221.91 -1024.97 0)
(3079.7 -1114 0)
(3670.64 -1238.67 0)
(4216.02 -1379.89 0)
(4647.59 -1544.05 0)
(4929.52 -1717.24 0)
(4972.18 -1893.3 0)
(4533.09 -2068.15 0)
(3329.49 -2218.23 0)
(1653.14 -2312.65 0)
(445.471 -2345.24 0)
(47.7362 -2349.49 0)
(1.36054 -2349.63 0)
(0.00688939 -2349.63 0)
(4.39186e-06 -2349.63 0)
(9.70141e-09 -2349.63 0)
(6.3766e-09 -2349.63 0)
(3.39305e-09 -2349.63 0)
(-8.19013e-10 -2349.63 0)
(-4.30957e-09 -2349.63 0)
(-8.10238e-09 -2349.63 0)
(-4.3738e-06 -2349.63 0)
(-0.00688587 -2349.63 0)
(-1.35968 -2349.63 0)
(-47.7041 -2349.49 0)
(-445.203 -2345.28 0)
(-1652.31 -2312.49 0)
(-3329.06 -2216.02 0)
(-4536.17 -2059.88 0)
(-4982.06 -1872.46 0)
(-4947.63 -1675.02 0)
(-4675.4 -1479.72 0)
(-4254.21 -1293.47 0)
(-3717.49 -1124.03 0)
(-3117.87 -971.519 0)
(-3238.3 -857.3 0)
(37498 -576.241 0)
(-62415 -1738.34 0)
(60719.1 -5341.66 0)
(-36833.1 -1478.73 0)
(2961.41 -1841.74 0)
(2931 -1997.4 0)
(3498.22 -2189.97 0)
(4020.78 -2417.47 0)
(4431.16 -2674.81 0)
(4699.07 -2952.93 0)
(4737.23 -3242.77 0)
(4314.47 -3529.16 0)
(3163.59 -3778.65 0)
(1566.35 -3939.85 0)
(420.217 -3997.03 0)
(44.7212 -4004.67 0)
(1.26255 -4004.93 0)
(0.00631759 -4004.93 0)
(3.95739e-06 -4004.93 0)
(-3.92931e-09 -4004.93 0)
(-5.72334e-09 -4004.93 0)
(-2.62279e-09 -4004.93 0)
(2.9543e-09 -4004.93 0)
(4.87508e-09 -4004.93 0)
(1.69653e-09 -4004.93 0)
(-3.96402e-06 -4004.93 0)
(-0.0063188 -4004.93 0)
(-1.26258 -4004.93 0)
(-44.7158 -4004.67 0)
(-420.109 -3997.07 0)
(-1565.74 -3940.1 0)
(-3162.02 -3779.32 0)
(-4311.87 -3529.06 0)
(-4733.52 -3238.41 0)
(-4695.76 -2939.6 0)
(-4431.19 -2648.21 0)
(-4025.91 -2372.15 0)
(-3510.62 -2121.01 0)
(-2946.29 -1900.89 0)
(-2980.18 -1731.19 0)
(36708.2 -1366.57 0)
(-60554.5 -4938.07 0)
(56341.1 -8527.02 0)
(-34426.9 -2130.74 0)
(2722.1 -2379.93 0)
(2744.14 -2560.8 0)
(3265.85 -2784.44 0)
(3748.81 -3056.79 0)
(4131.6 -3361.9 0)
(4382.21 -3691.89 0)
(4416.9 -4035.73 0)
(4016.7 -4376.43 0)
(2933.74 -4677.93 0)
(1442.69 -4878.62 0)
(383.006 -4952.39 0)
(40.1247 -4962.55 0)
(1.10858 -4962.9 0)
(0.00539997 -4962.9 0)
(3.28328e-06 -4962.9 0)
(3.74406e-09 -4962.9 0)
(1.95003e-10 -4962.9 0)
(-4.97258e-10 -4962.9 0)
(-9.16515e-10 -4962.9 0)
(-8.58014e-10 -4962.9 0)
(-3.45156e-09 -4962.9 0)
(-3.28288e-06 -4962.9 0)
(-0.00540098 -4962.9 0)
(-1.1087 -4962.9 0)
(-40.1259 -4962.55 0)
(-382.983 -4952.4 0)
(-1442.47 -4878.73 0)
(-2932.97 -4678.54 0)
(-4014.94 -4377.93 0)
(-4414.03 -4038.32 0)
(-4378.88 -3695.96 0)
(-4128.59 -3366.22 0)
(-3746.19 -3058.76 0)
(-3263.38 -2780.93 0)
(-2742.23 -2547.1 0)
(-2723.4 -2358.72 0)
(34407.8 -2098.52 0)
(-56339.6 -8379.42 0)
(50448.9 -10199.8 0)
(-30909.6 -2457.15 0)
(2546.99 -2580.62 0)
(2541.2 -2765.17 0)
(3020.27 -2992.89 0)
(3464.31 -3263.41 0)
(3819.15 -3570.38 0)
(4049.75 -3901.96 0)
(4077.59 -4250.24 0)
(3695.62 -4599.16 0)
(2679.66 -4913.9 0)
(1301.87 -5129.49 0)
(339.341 -5211.02 0)
(34.597 -5222.42 0)
(0.921087 -5222.81 0)
(0.00428526 -5222.81 0)
(2.4698e-06 -5222.81 0)
(-2.34004e-09 -5222.81 0)
(-2.63254e-09 -5222.81 0)
(-1.68678e-09 -5222.81 0)
(8.19013e-10 -5222.81 0)
(2.31079e-09 -5222.81 0)
(2.9543e-09 -5222.81 0)
(-2.46692e-06 -5222.81 0)
(-0.00428559 -5222.81 0)
(-0.921144 -5222.81 0)
(-34.5984 -5222.42 0)
(-339.345 -5211.02 0)
(-1301.83 -5129.52 0)
(-2679.43 -4914.14 0)
(-3694.94 -4599.97 0)
(-4076.35 -4252.19 0)
(-4048.1 -3905.5 0)
(-3817.16 -3575.32 0)
(-3461.91 -3269.35 0)
(-3017.56 -2999.52 0)
(-2539.43 -2772.54 0)
(-2547.91 -2588.55 0)
(30906.5 -2463.6 0)
(-50457.6 -10187.7 0)
(44144.4 -10653.6 0)
(-27084.8 -2491.12 0)
(2425.28 -2555.19 0)
(2346.87 -2729.65 0)
(2785.72 -2943.23 0)
(3192.31 -3205.53 0)
(3516.27 -3490.89 0)
(3727.07 -3809.15 0)
(3745.06 -4142.57 0)
(3377.17 -4480.24 0)
(2422.69 -4789.26 0)
(1156.38 -5005.3 0)
(293.461 -5088.09 0)
(28.7577 -5099.61 0)
(0.725507 -5100 0)
(0.00315799 -5100.01 0)
(1.68362e-06 -5100.01 0)
(-2.04753e-10 -5100.01 0)
(-3.31505e-10 -5100.01 0)
(2.04753e-10 -5100.01 0)
(6.53261e-10 -5100.01 0)
(1.14077e-09 -5100.01 0)
(7.80013e-11 -5100.01 0)
(-1.68423e-06 -5100.01 0)
(-0.00315802 -5100.01 0)
(-0.725518 -5100 0)
(-28.7581 -5099.61 0)
(-293.465 -5088.09 0)
(-1156.39 -5005.3 0)
(-2422.67 -4789.3 0)
(-3377.06 -4480.5 0)
(-3744.81 -4143.35 0)
(-3726.63 -3810.7 0)
(-3515.57 -3493.35 0)
(-3191.32 -3209.03 0)
(-2784.63 -2947.99 0)
(-2346.2 -2735.78 0)
(-2425.69 -2561.69 0)
(27085 -2496.39 0)
(-44148.4 -10656.6 0)
(37782.2 -9925.95 0)
(-23105.6 -2343.12 0)
(2317.14 -2416 0)
(2167.27 -2567.03 0)
(2561.69 -2774.17 0)
(2936.56 -3006.16 0)
(3237.49 -3274.81 0)
(3421.76 -3563.45 0)
(3430.9 -3873.79 0)
(3072.45 -4190.14 0)
(2173.69 -4484.25 0)
(1013.91 -4692.45 0)
(248.456 -4772 0)
(23.1163 -4782.78 0)
(0.543526 -4783.13 0)
(0.00216872 -4783.13 0)
(1.04446e-06 -4783.13 0)
(5.36259e-10 -4783.13 0)
(1.36502e-10 -4783.13 0)
(-7.99513e-10 -4783.13 0)
(3.99756e-10 -4783.13 0)
(2.34004e-10 -4783.13 0)
(3.90006e-10 -4783.13 0)
(-1.04603e-06 -4783.13 0)
(-0.00216871 -4783.13 0)
(-0.543525 -4783.13 0)
(-23.1163 -4782.78 0)
(-248.457 -4772 0)
(-1013.91 -4692.45 0)
(-2173.71 -4484.24 0)
(-3072.47 -4190.17 0)
(-3430.91 -3873.93 0)
(-3421.73 -3563.78 0)
(-3237.37 -3275.43 0)
(-2936.39 -3007.23 0)
(-2561.52 -2775.84 0)
(-2167.17 -2569.26 0)
(-2317.22 -2418.35 0)
(23105.9 -2344.88 0)
(-37782.8 -9928.35 0)
(32321.5 -9112.38 0)
(-19847.9 -2037.78 0)
(2209.51 -2183.8 0)
(2001.72 -2294.33 0)
(2362.56 -2492.51 0)
(2709.88 -2722.4 0)
(2979.24 -2958.22 0)
(3149.87 -3220.49 0)
(3141.16 -3498.57 0)
(2788.92 -3786.6 0)
(1938.64 -4058.03 0)
(879.097 -4251.31 0)
(206.42 -4323.82 0)
(18.0315 -4333.21 0)
(0.389319 -4333.49 0)
(0.00139839 -4333.49 0)
(5.95774e-07 -4333.49 0)
(2.63254e-10 -4333.49 0)
(-2.04753e-10 -4333.49 0)
(0 -4333.49 0)
(6.4351e-10 -4333.49 0)
(3.51006e-10 -4333.49 0)
(3.12005e-10 -4333.49 0)
(-5.97275e-07 -4333.49 0)
(-0.00139838 -4333.49 0)
(-0.389317 -4333.49 0)
(-18.0315 -4333.21 0)
(-206.42 -4323.82 0)
(-879.099 -4251.3 0)
(-1938.65 -4058.02 0)
(-2788.94 -3786.58 0)
(-3141.2 -3498.55 0)
(-3149.9 -3220.47 0)
(-2979.26 -2958.25 0)
(-2709.9 -2722.53 0)
(-2362.59 -2492.74 0)
(-2001.72 -2294.66 0)
(-2209.47 -2184.14 0)
(19848.1 -2037.99 0)
(-32321.4 -9112.91 0)
(27037.5 -7825.91 0)
(-16429 -1696.4 0)
(2069.92 -1892.64 0)
(1869.79 -1991.37 0)
(2149.18 -2144.2 0)
(2487.79 -2364.67 0)
(2757.51 -2571.6 0)
(2901.06 -2801.36 0)
(2885.38 -3040.31 0)
(2533.33 -3289.81 0)
(1725.88 -3530.51 0)
(757.784 -3705.01 0)
(169.532 -3769.42 0)
(13.7938 -3777.32 0)
(0.270712 -3777.54 0)
(0.000864718 -3777.54 0)
(3.2136e-07 -3777.54 0)
(-6.2401e-10 -3777.54 0)
(-3.1688e-10 -3777.54 0)
(3.85131e-10 -3777.54 0)
(3.1688e-10 -3777.54 0)
(2.48629e-10 -3777.54 0)
(-1.70628e-10 -3777.54 0)
(-3.22911e-07 -3777.54 0)
(-0.000864711 -3777.54 0)
(-0.270712 -3777.54 0)
(-13.7938 -3777.32 0)
(-169.532 -3769.42 0)
(-757.785 -3705.01 0)
(-1725.88 -3530.51 0)
(-2533.34 -3289.8 0)
(-2885.39 -3040.29 0)
(-2901.08 -2801.32 0)
(-2757.53 -2571.55 0)
(-2487.81 -2364.62 0)
(-2149.21 -2144.13 0)
(-1869.79 -1991.29 0)
(-2069.89 -1892.58 0)
(16429 -1696.35 0)
(-27037.4 -7825.96 0)
(23145.4 -6145.97 0)
(-14130.4 -1387.52 0)
(1925.26 -1638.24 0)
(1759.31 -1755.45 0)
(2002.84 -1864.32 0)
(2298.02 -1990.94 0)
(2558.43 -2157.38 0)
(2698.2 -2342.5 0)
(2670.48 -2541.44 0)
(2316.55 -2747.34 0)
(1538.54 -2945.09 0)
(648.874 -3088.41 0)
(136.74 -3140.59 0)
(10.2121 -3146.71 0)
(0.179193 -3146.86 0)
(0.000500506 -3146.86 0)
(1.59132e-07 -3146.86 0)
(-3.0713e-10 -3146.86 0)
(-1.75503e-10 -3146.86 0)
(-2.73004e-10 -3146.86 0)
(3.3638e-10 -3146.86 0)
(2.92505e-10 -3146.86 0)
(6.58136e-10 -3146.86 0)
(-1.62364e-07 -3146.86 0)
(-0.000500497 -3146.86 0)
(-0.179193 -3146.86 0)
(-10.2121 -3146.71 0)
(-136.74 -3140.59 0)
(-648.874 -3088.41 0)
(-1538.54 -2945.09 0)
(-2316.55 -2747.34 0)
(-2670.48 -2541.43 0)
(-2698.21 -2342.48 0)
(-2558.44 -2157.35 0)
(-2298.03 -1990.9 0)
(-2002.84 -1864.27 0)
(-1759.31 -1755.39 0)
(-1925.26 -1638.18 0)
(14130.4 -1387.5 0)
(-23145.4 -6145.96 0)
(19777.9 -5366.78 0)
(-12085.2 -1523.24 0)
(1715.37 -1735.04 0)
(1651.92 -1959.84 0)
(1922.26 -2108.56 0)
(2205.39 -2246.21 0)
(2418.73 -2350.61 0)
(2530.96 -2455.71 0)
(2495.26 -2587.84 0)
(2144.36 -2793.97 0)
(1397.21 -3074.48 0)
(569.397 -3298.63 0)
(113.358 -3372.41 0)
(7.75003 -3379.55 0)
(0.120444 -3379.7 0)
(0.000289576 -3379.7 0)
(7.74894e-08 -3379.7 0)
(-2.14503e-10 -3379.7 0)
(-7.06886e-10 -3379.7 0)
(1.41377e-10 -3379.7 0)
(5.65509e-10 -3379.7 0)
(8.77514e-11 -3379.7 0)
(8.48264e-10 -3379.7 0)
(-7.95613e-08 -3379.7 0)
(-0.000289562 -3379.7 0)
(-0.120444 -3379.7 0)
(-7.75003 -3379.55 0)
(-113.358 -3372.41 0)
(-569.397 -3298.63 0)
(-1397.21 -3074.48 0)
(-2144.36 -2793.97 0)
(-2495.26 -2587.83 0)
(-2530.96 -2455.71 0)
(-2418.73 -2350.6 0)
(-2205.39 -2246.2 0)
(-1922.26 -2108.55 0)
(-1651.92 -1959.83 0)
(-1715.37 -1735.03 0)
(12085.2 -1523.23 0)
(-19777.9 -5366.77 0)
(16505.9 61590.1 0)
(-10630.8 11416.9 0)
(1504.53 12997.3 0)
(1399.38 15347.3 0)
(1726.89 17916.5 0)
(2064.77 21762.1 0)
(2356.55 25419 0)
(2469.6 29793.4 0)
(2344.52 33938.1 0)
(1847.59 37441 0)
(1052.23 39385.2 0)
(361.78 39858.4 0)
(58.7644 39867 0)
(3.19074 39863 0)
(0.0389414 39862.9 0)
(7.33515e-05 39862.9 0)
(1.71115e-08 39862.9 0)
(8.58014e-10 39862.9 0)
(2.68129e-10 39862.9 0)
(7.31262e-10 39862.9 0)
(2.38879e-10 39862.9 0)
(2.09628e-10 39862.9 0)
(-1.95003e-10 39862.9 0)
(-1.51079e-08 39862.9 0)
(-7.33527e-05 39862.9 0)
(-0.0389414 39862.9 0)
(-3.19074 39863 0)
(-58.7644 39867 0)
(-361.78 39858.4 0)
(-1052.23 39385.2 0)
(-1847.59 37441 0)
(-2344.52 33938.1 0)
(-2469.6 29793.4 0)
(-2356.55 25419 0)
(-2064.77 21762.1 0)
(-1726.89 17916.5 0)
(-1399.38 15347.3 0)
(-1504.53 12997.3 0)
(10630.8 11416.9 0)
(-16505.9 61590.2 0)
(90130.1 -93163 0)
(-58911 -17497 0)
(5502.86 -20997 0)
(6392.22 -24768.9 0)
(8103.79 -29082.7 0)
(9435.08 -34970.5 0)
(10158.1 -41016.5 0)
(10740.3 -47957.4 0)
(9864.68 -54724.9 0)
(7393.34 -60627.3 0)
(3726.7 -64314.5 0)
(1033.7 -65586.6 0)
(117.868 -65762.7 0)
(3.81011 -65769.9 0)
(0.0239368 -65769.9 0)
(2.04245e-05 -65769.9 0)
(1.39427e-08 -65769.9 0)
(-2.92505e-10 -65769.9 0)
(5.65509e-10 -65769.9 0)
(-2.53504e-10 -65769.9 0)
(1.67703e-09 -65769.9 0)
(-8.77514e-10 -65769.9 0)
(3.37355e-09 -65769.9 0)
(1.85253e-09 -65769.9 0)
(-2.04298e-05 -65769.9 0)
(-0.0239368 -65769.9 0)
(-3.81011 -65769.9 0)
(-117.868 -65762.7 0)
(-1033.7 -65586.6 0)
(-3726.7 -64314.5 0)
(-7393.34 -60627.3 0)
(-9864.68 -54724.9 0)
(-10740.3 -47957.4 0)
(-10158.1 -41016.5 0)
(-9435.08 -34970.5 0)
(-8103.78 -29082.7 0)
(-6392.22 -24768.9 0)
(-5502.86 -20997 0)
(58911 -17497 0)
(-90130.1 -93163 0)
(90130.1 93163 0)
(-58911 17497 0)
(5502.86 20997 0)
(6392.22 24768.9 0)
(8103.79 29082.7 0)
(9435.08 34970.5 0)
(10158.1 41016.5 0)
(10740.3 47957.4 0)
(9864.68 54724.9 0)
(7393.34 60627.3 0)
(3726.7 64314.5 0)
(1033.7 65586.6 0)
(117.868 65762.7 0)
(3.81011 65769.9 0)
(0.0239367 65769.9 0)
(2.04409e-05 65769.9 0)
(-9.94516e-09 65769.9 0)
(-8.15113e-09 65769.9 0)
(-7.50762e-09 65769.9 0)
(-3.06155e-09 65769.9 0)
(-1.28702e-09 65769.9 0)
(-5.26509e-10 65769.9 0)
(1.65753e-09 65769.9 0)
(-4.58257e-09 65769.9 0)
(-2.04095e-05 65769.9 0)
(-0.0239368 65769.9 0)
(-3.81011 65769.9 0)
(-117.868 65762.7 0)
(-1033.7 65586.6 0)
(-3726.7 64314.5 0)
(-7393.34 60627.3 0)
(-9864.68 54724.9 0)
(-10740.3 47957.4 0)
(-10158.1 41016.5 0)
(-9435.08 34970.5 0)
(-8103.78 29082.7 0)
(-6392.22 24768.9 0)
(-5502.86 20997 0)
(58911 17497 0)
(-90130.1 93163 0)
(16505.9 -61590.1 0)
(-10630.8 -11416.9 0)
(1504.53 -12997.3 0)
(1399.38 -15347.3 0)
(1726.89 -17916.5 0)
(2064.77 -21762.1 0)
(2356.55 -25419 0)
(2469.6 -29793.4 0)
(2344.52 -33938.1 0)
(1847.59 -37441 0)
(1052.23 -39385.2 0)
(361.78 -39858.4 0)
(58.7644 -39867 0)
(3.19074 -39863 0)
(0.0389414 -39862.9 0)
(7.3353e-05 -39862.9 0)
(1.67361e-08 -39862.9 0)
(1.36502e-09 -39862.9 0)
(3.75381e-10 -39862.9 0)
(8.14138e-10 -39862.9 0)
(-3.99756e-10 -39862.9 0)
(-1.08227e-09 -39862.9 0)
(-7.60512e-10 -39862.9 0)
(-1.53126e-08 -39862.9 0)
(-7.33505e-05 -39862.9 0)
(-0.0389414 -39862.9 0)
(-3.19074 -39863 0)
(-58.7644 -39867 0)
(-361.78 -39858.4 0)
(-1052.23 -39385.2 0)
(-1847.59 -37441 0)
(-2344.52 -33938.1 0)
(-2469.6 -29793.4 0)
(-2356.55 -25419 0)
(-2064.77 -21762.1 0)
(-1726.89 -17916.5 0)
(-1399.38 -15347.3 0)
(-1504.53 -12997.3 0)
(10630.8 -11416.9 0)
(-16505.9 -61590.2 0)
(19777.9 5366.78 0)
(-12085.2 1523.24 0)
(1715.37 1735.04 0)
(1651.92 1959.84 0)
(1922.26 2108.56 0)
(2205.39 2246.21 0)
(2418.73 2350.61 0)
(2530.96 2455.71 0)
(2495.26 2587.84 0)
(2144.36 2793.97 0)
(1397.21 3074.48 0)
(569.397 3298.63 0)
(113.358 3372.41 0)
(7.75003 3379.55 0)
(0.120444 3379.7 0)
(0.000289573 3379.7 0)
(7.69872e-08 3379.7 0)
(4.29007e-10 3379.7 0)
(-8.38514e-10 3379.7 0)
(4.87508e-11 3379.7 0)
(3.51006e-10 3379.7 0)
(1.41377e-10 3379.7 0)
(1.12614e-09 3379.7 0)
(-7.96929e-08 3379.7 0)
(-0.000289566 3379.7 0)
(-0.120444 3379.7 0)
(-7.75003 3379.55 0)
(-113.358 3372.41 0)
(-569.397 3298.63 0)
(-1397.21 3074.48 0)
(-2144.36 2793.97 0)
(-2495.26 2587.83 0)
(-2530.96 2455.71 0)
(-2418.73 2350.6 0)
(-2205.39 2246.2 0)
(-1922.26 2108.55 0)
(-1651.92 1959.83 0)
(-1715.37 1735.03 0)
(12085.2 1523.23 0)
(-19777.9 5366.77 0)
(23145.4 6145.97 0)
(-14130.4 1387.52 0)
(1925.26 1638.24 0)
(1759.31 1755.45 0)
(2002.84 1864.32 0)
(2298.02 1990.94 0)
(2558.43 2157.38 0)
(2698.2 2342.5 0)
(2670.48 2541.44 0)
(2316.55 2747.34 0)
(1538.54 2945.09 0)
(648.874 3088.41 0)
(136.74 3140.59 0)
(10.2121 3146.71 0)
(0.179193 3146.86 0)
(0.000500506 3146.86 0)
(1.59581e-07 3146.86 0)
(-1.56003e-10 3146.86 0)
(-1.06277e-09 3146.86 0)
(-3.55881e-10 3146.86 0)
(1.99878e-10 3146.86 0)
(-1.21877e-10 3146.86 0)
(1.18464e-09 3146.86 0)
(-1.60453e-07 3146.86 0)
(-0.000500498 3146.86 0)
(-0.179193 3146.86 0)
(-10.2121 3146.71 0)
(-136.74 3140.59 0)
(-648.874 3088.41 0)
(-1538.54 2945.09 0)
(-2316.55 2747.34 0)
(-2670.48 2541.43 0)
(-2698.21 2342.48 0)
(-2558.44 2157.35 0)
(-2298.03 1990.9 0)
(-2002.84 1864.27 0)
(-1759.31 1755.39 0)
(-1925.26 1638.18 0)
(14130.4 1387.5 0)
(-23145.4 6145.96 0)
(27037.5 7825.91 0)
(-16429 1696.4 0)
(2069.92 1892.64 0)
(1869.79 1991.37 0)
(2149.18 2144.2 0)
(2487.79 2364.67 0)
(2757.51 2571.6 0)
(2901.06 2801.36 0)
(2885.38 3040.31 0)
(2533.33 3289.81 0)
(1725.88 3530.51 0)
(757.784 3705.01 0)
(169.532 3769.42 0)
(13.7938 3777.32 0)
(0.270712 3777.54 0)
(0.000864719 3777.54 0)
(3.20707e-07 3777.54 0)
(-1.16514e-09 3777.54 0)
(-1.12614e-09 3777.54 0)
(-5.55759e-10 3777.54 0)
(1.21877e-10 3777.54 0)
(1.36015e-09 3777.54 0)
(1.46252e-11 3777.54 0)
(-3.2118e-07 3777.54 0)
(-0.000864715 3777.54 0)
(-0.270712 3777.54 0)
(-13.7938 3777.32 0)
(-169.532 3769.42 0)
(-757.785 3705.01 0)
(-1725.88 3530.51 0)
(-2533.34 3289.8 0)
(-2885.39 3040.29 0)
(-2901.08 2801.32 0)
(-2757.53 2571.55 0)
(-2487.81 2364.62 0)
(-2149.21 2144.13 0)
(-1869.79 1991.29 0)
(-2069.89 1892.58 0)
(16429 1696.35 0)
(-27037.4 7825.96 0)
(32321.5 9112.38 0)
(-19847.9 2037.78 0)
(2209.51 2183.8 0)
(2001.72 2294.33 0)
(2362.56 2492.51 0)