/*--------------------------------*- C++ -*----------------------------------*\
| =========                 |                                                 |
| \\      /  F ield         | OpenFOAM: The Open Source CFD Toolbox           |
|  \\    /   O peration     | Version:  v1912                                 |
|   \\  /    A nd           | Website:  www.openfoam.com                      |
|    \\/     M anipulation  |                                                 |
\*---------------------------------------------------------------------------*/
FoamFile
{
    version     2.0;
    format      ascii;
    class       volScalarField;
    location    "1.3";
    object      T;
}
// * * * * * * * * * * * * * * * * * * * * * * * * * * * * * * * * * * * * * //

dimensions      [0 0 0 1 0 0 0];


internalField   nonuniform List<scalar> 
1900
(
1
1
1.00004
1.00074
1.00408
1.01013
1.01561
1.01915
1.02011
1.02135
1
1
1.00004
1.00073
1.00407
1.01009
1.01557
1.0189
1.01966
1.02044
1
1
1.00004
1.00073
1.00406
1.01007
1.01554
1.01878
1.01977
1.02024
1
1
1.00004
1.00073
1.00407
1.01009
1.01557
1.0189
1.01966
1.02044
1
1
1.00004
1.00074
1.00408
1.01013
1.01561
1.01915
1.02011
1.02135
1.01948
1.02038
1.02064
1.02101
1.0055
1.02052
1.02102
1.0209
1.02261
1.01603
1.02028
1.02057
1.02029
1.02128
1.01429
1.02052
1.02102
1.0209
1.02261
1.01603
1.01948
1.02038
1.02064
1.02101
1.0055
1.04411
1.03931
1.04039
1.03345
1.02147
1.04058
1.03835
1.03967
1.03784
1.03015
1.04045
1.03833
1.03911
1.03791
1.03098
1.04058
1.03835
1.03967
1.03784
1.03015
1.04411
1.03931
1.04039
1.03345
1.02147
0.919762
0.837305
0.875758
0.880626
0.881669
0.893955
0.910169
0.930298
0.951442
0.971447
0.987555
0.996832
0.999672
0.999991
1
1
1
1
1
1
1
1
1
1
1
1
0.999989
0.999615
0.996394
0.986099
0.968385
0.946187
0.921878
0.896809
0.872396
0.851144
0.834056
0.806602
0.703894
0.653284
1.00017
0.882582
0.89126
0.882784
0.881475
0.89445
0.910125
0.930338
0.951483
0.971482
0.987577
0.996841
0.999673
0.999991
1
1
1
1
1
1
1
1
1
1
1
1
0.999989
0.999615
0.996394
0.986099
0.968385
0.946187
0.921878
0.896809
0.872396
0.851144
0.834056
0.806602
0.703894
0.653284
0.9992
0.914351
0.896842
0.883354
0.881346
0.894581
0.91014
0.930348
0.951495
0.971493
0.987586
0.996844
0.999674
0.999991
1
1
1
1
1
1
1
1
1
1
1
1
0.999989
0.999615
0.996394
0.986099
0.968385
0.946187
0.921878
0.896809
0.872396
0.851144
0.834056
0.806602
0.703894
0.653284
1.00017
0.882582
0.89126
0.882784
0.881475
0.89445
0.910125
0.930338
0.951483
0.971482
0.987577
0.996841
0.999673
0.999991
1
1
1
1
1
1
1
1
1
1
1
1
0.999989
0.999615
0.996394
0.986099
0.968385
0.946187
0.921878
0.896809
0.872396
0.851144
0.834056
0.806602
0.703894
0.653284
0.919762
0.837305
0.875758
0.880626
0.881669
0.893955
0.910169
0.930298
0.951442
0.971447
0.987555
0.996832
0.999672
0.999991
1
1
1
1
1
1
1
1
1
1
1
1
0.999989
0.999615
0.996394
0.986099
0.968385
0.946187
0.921878
0.896809
0.872396
0.851144
0.834056
0.806602
0.703894
0.653284
0.734619
0.772479
0.856525
0.874906
0.881417
0.892823
0.909768
0.930024
0.951257
0.971298
0.987451
0.99679
0.999665
0.999991
1
1
1
1
1
1
1
1
1
1
1
1
0.999989
0.999615
0.996394
0.986099
0.968385
0.946187
0.921878
0.896809
0.872396
0.851144
0.834056
0.806602
0.703894
0.653284
0.644342
0.737978
0.840971
0.865707
0.877418
0.89019
0.908412
0.929208
0.950706
0.970903
0.987215
0.996704
0.999652
0.99999
1
1
1
1
1
1
1
1
1
1
1
1
0.999989
0.999615
0.996394
0.986099
0.968385
0.946187
0.921878
0.896809
0.872396
0.851144
0.834056
0.806602
0.703894
0.653284
0.644884
0.727884
0.833482
0.859584
0.872484
0.887185
0.906503
0.927989
0.949868
0.970352
0.98692
0.996607
0.999639
0.99999
1
1
1
1
1
1
1
1
1
1
1
1
0.999989
0.999615
0.996394
0.986099
0.968385
0.946187
0.921878
0.896809
0.872396
0.851144
0.834056
0.806602
0.703894
0.653284
0.655419
0.719491
0.827142
0.854253
0.867555
0.883851
0.904308
0.926558
0.948907
0.969757
0.986628
0.996518
0.999627
0.999989
1
1
1
1
1
1
1
1
1
1
1
1
0.999989
0.999615
0.996394
0.986099
0.968385
0.946187
0.921878
0.896809
0.872396
0.851144
0.834056
0.806602
0.703894
0.653284
0.660413
0.714369
0.82261
0.849287
0.86303
0.880591
0.902097
0.92509
0.94796
0.969215
0.986387
0.996452
0.999619
0.999989
1
1
1
1
1
1
1
1
1
1
1
1
0.999989
0.999615
0.996394
0.986099
0.968385
0.946187
0.921878
0.896809
0.872396
0.851144
0.834056
0.806602
0.703894
0.653284
0.661499
0.711739
0.817967
0.8443
0.858922
0.877621
0.900076
0.923767
0.947153
0.968787
0.986214
0.996411
0.999615
0.999988
0.999999
1
1
1
1
1
1
1
1
1
1
0.999999
0.999988
0.999614
0.996393
0.986099
0.968385
0.946187
0.921877
0.896809
0.872396
0.851144
0.834056
0.806602
0.703894
0.653284
0.660406
0.7094
0.813222
0.839731
0.855253
0.874954
0.898209
0.922556
0.946479
0.968471
0.986089
0.996349
0.999566
0.99994
0.999951
0.999951
0.999951
0.999951
0.999951
0.999951
0.999951
0.999951
0.999951
0.999951
0.999951
0.999951
0.99994
0.999566
0.996346
0.986052
0.968341
0.946148
0.921843
0.896781
0.872374
0.851127
0.834043
0.806593
0.703891
0.653284
0.657454
0.706256
0.808397
0.835463
0.851973
0.872689
0.896711
0.921455
0.945495
0.967529
0.985158
0.995419
0.998633
0.999007
0.999018
0.999018
0.999018
0.999018
0.999018
0.999018
0.999018
0.999018
0.999018
0.999018
0.999018
0.999018
0.999007
0.998633
0.995419
0.985146
0.967475
0.945342
0.921115
0.89614
0.871825
0.850664
0.833664
0.806285
0.703751
0.653239
0.653791
0.703262
0.804875
0.831717
0.847987
0.868491
0.892235
0.916746
0.940607
0.962476
0.979977
0.99016
0.993345
0.993714
0.993725
0.993725
0.993725
0.993725
0.993725
0.993725
0.993725
0.993725
0.993725
0.993725
0.993725
0.993725
0.993714
0.993345
0.990162
0.979984
0.962482
0.940587
0.916655
0.892021
0.868075
0.847282
0.830649
0.803617
0.702177
0.652429
0.648439
0.696425
0.795266
0.82158
0.837552
0.857729
0.881092
0.905213
0.928696
0.950203
0.967396
0.977376
0.980482
0.98084
0.98085
0.98085
0.98085
0.98085
0.98085
0.98085
0.98085
0.98085
0.98085
0.98085
0.98085
0.98085
0.98084
0.980482
0.977377
0.967401
0.950218
0.928726
0.905267
0.881162
0.857793
0.837573
0.821488
0.795049
0.696017
0.647961
0.637263
0.683988
0.780191
0.806021
0.821722
0.841459
0.864307
0.887913
0.9109
0.931946
0.948727
0.958407
0.961387
0.961724
0.961734
0.961734
0.961734
0.961734
0.961734
0.961734
0.961734
0.961734
0.961734
0.961734
0.961734
0.961734
0.961724
0.961387
0.958407
0.948729
0.931953
0.91092
0.887951
0.864367
0.84154
0.821825
0.806147
0.780316
0.684044
0.637231
0.621491
0.668301
0.761865
0.78709
0.802564
0.821915
0.844313
0.867441
0.889956
0.910529
0.926846
0.936152
0.938961
0.939269
0.939278
0.939278
0.939278
0.939278
0.939278
0.939278
0.939278
0.939278
0.939278
0.939278
0.939278
0.939278
0.939269
0.938961
0.936152
0.926847
0.910531
0.889964
0.867457
0.844341
0.82196
0.802629
0.787179
0.761961
0.66837
0.621501
0.603929
0.651266
0.741952
0.766545
0.781809
0.800898
0.822883
0.845582
0.867642
0.88774
0.903554
0.912422
0.915022
0.915296
0.915304
0.915304
0.915304
0.915304
0.915304
0.915304
0.915304
0.915304
0.915304
0.915304
0.915304
0.915304
0.915296
0.915022
0.912422
0.903554
0.88774
0.867644
0.845585
0.82289
0.800911
0.781832
0.766577
0.741989
0.651295
0.603937
0.585049
0.634112
0.721625
0.745472
0.760611
0.779358
0.801082
0.823348
0.844979
0.864591
0.879866
0.888246
0.890611
0.890847
0.890853
0.890853
0.890853
0.890853
0.890853
0.890853
0.890853
0.890853
0.890853
0.890853
0.890853
0.890853
0.890847
0.890611
0.888246
0.879866
0.864591
0.844978
0.823347
0.801082
0.779359
0.760614
0.745476
0.72163
0.634117
0.585052
0.568892
0.617319
0.701614
0.724962
0.739815
0.758589
0.779945
0.801947
0.82317
0.842312
0.85702
0.864871
0.866987
0.867185
0.867189
0.867189
0.867189
0.867189
0.867189
0.867189
0.867189
0.867189
0.867189
0.867189
0.867189
0.867189
0.867185
0.866987
0.864871
0.85702
0.842312
0.823169
0.801946
0.779944
0.758588
0.739814
0.72496
0.701612
0.617318
0.568892
0.552593
0.604583
0.684358
0.707449
0.722202
0.740448
0.76182
0.783501
0.804451
0.823185
0.837357
0.844688
0.846562
0.846725
0.846728
0.846728
0.846728
0.846728
0.846728
0.846728
0.846728
0.846728
0.846728
0.846728
0.846728
0.846728
0.846725
0.846562
0.844688
0.837357
0.823185
0.804451
0.783501
0.76182
0.740447
0.722201
0.707448
0.684357
0.604582
0.552593
0.54483
0.593445
0.67021
0.693127
0.708301
0.726475
0.747573
0.769134
0.789899
0.808376
0.822097
0.828924
0.830562
0.830692
0.830695
0.830695
0.830695
0.830695
0.830695
0.830695
0.830695
0.830695
0.830695
0.830695
0.830695
0.830695
0.830692
0.830562
0.828924
0.822097
0.808376
0.789899
0.769134
0.747572
0.726475
0.708301
0.693126
0.67021
0.593445
0.54483
0.531925
0.579263
0.650793
0.671852
0.68698
0.705104
0.725804
0.746668
0.766823
0.784711
0.797847
0.804177
0.805606
0.80571
0.805711
0.805711
0.805711
0.805711
0.805711
0.805711
0.805711
0.805711
0.805711
0.805711
0.805711
0.805711
0.80571
0.805606
0.804177
0.797847
0.784711
0.766823
0.746668
0.725804
0.705104
0.68698
0.671852
0.650793
0.579263
0.531925
0.472309
0.51602
0.581544
0.59682
0.608831
0.62233
0.639644
0.657323
0.674579
0.689724
0.700122
0.704475
0.705273
0.705317
0.705318
0.705318
0.705318
0.705318
0.705318
0.705318
0.705318
0.705318
0.705318
0.705318
0.705318
0.705318
0.705317
0.705273
0.704475
0.700122
0.689724
0.674579
0.657323
0.639644
0.62233
0.608831
0.59682
0.581544
0.51602
0.472309
0.461941
0.468608
0.528854
0.542865
0.551066
0.567977
0.584641
0.603756
0.621322
0.636012
0.644735
0.647555
0.647904
0.647916
0.647916
0.647916
0.647916
0.647916
0.647916
0.647916
0.647916
0.647916
0.647916
0.647916
0.647916
0.647916
0.647916
0.647904
0.647555
0.644735
0.636012
0.621322
0.603756
0.584641
0.567977
0.551066
0.542865
0.528854
0.468608
0.461941
0.461941
0.468608
0.528854
0.542865
0.551066
0.567977
0.584641
0.603756
0.621322
0.636012
0.644735
0.647555
0.647904
0.647916
0.647916
0.647916
0.647916
0.647916
0.647916
0.647916
0.647916
0.647916
0.647916
0.647916
0.647916
0.647916
0.647916
0.647904
0.647555
0.644735
0.636012
0.621322
0.603756
0.584641
0.567977
0.551066
0.542865
0.528854
0.468608
0.461941
0.472309
0.51602
0.581544
0.59682
0.608831
0.62233
0.639644
0.657323
0.674579
0.689724
0.700122
0.704475
0.705273
0.705317
0.705318
0.705318
0.705318
0.705318
0.705318
0.705318
0.705318
0.705318
0.705318
0.705318
0.705318
0.705318
0.705317
0.705273
0.704475
0.700122
0.689724
0.674579
0.657323
0.639644
0.62233
0.608831
0.59682
0.581544
0.51602
0.472309
0.531925
0.579263
0.650793
0.671852
0.68698
0.705104
0.725804
0.746668
0.766823
0.784711
0.797847
0.804177
0.805606
0.80571
0.805711
0.805711
0.805711
0.805711
0.805711
0.805711
0.805711
0.805711
0.805711
0.805711
0.805711
0.805711
0.80571
0.805606
0.804177
0.797847
0.784711
0.766823
0.746668
0.725804
0.705104
0.68698
0.671852
0.650793
0.579263
0.531925
0.54483
0.593445
0.67021
0.693127
0.708301
0.726475
0.747573
0.769134
0.789899
0.808376
0.822097
0.828924
0.830562
0.830692
0.830695
0.830695
0.830695
0.830695
0.830695
0.830695
0.830695
0.830695
0.830695
0.830695
0.830695
0.830695
0.830692
0.830562
0.828924
0.822097
0.808376
0.789899
0.769134
0.747572
0.726475
0.708301
0.693126
0.67021
0.593445
0.54483
0.552593
0.604583
0.684358
0.707449
0.722202
0.740448
0.76182
0.783501
0.804451
0.823185
0.837357
0.844688
0.846562
0.846725
0.846728
0.846728
0.846728
0.846728
0.846728
0.846728
0.846728
0.846728
0.846728
0.846728
0.846728
0.846728
0.846725
0.846562
0.844688
0.837357
0.823185
0.804451
0.783501
0.76182
0.740447
0.722201
0.707448
0.684357
0.604582
0.552593
0.568892
0.617319
0.701614
0.724962
0.739815
0.758589
0.779945
0.801947
0.82317
0.842312
0.85702
0.864871
0.866987
0.867185
0.867189
0.867189
0.867189
0.867189
0.867189
0.867189
0.867189
0.867189
0.867189
0.867189
0.867189
0.867189
0.867185
0.866987
0.864871
0.85702
0.842312
0.823169
0.801946
0.779944
0.758588
0.739814
0.72496
0.701612
0.617318
0.568892
0.585049
0.634112
0.721625
0.745472
0.760611
0.779358
0.801082
0.823348
0.844979
0.864591
0.879866
0.888246
0.890611
0.890847
0.890853
0.890853
0.890853
0.890853
0.890853
0.890853
0.890853
0.890853
0.890853
0.890853
0.890853
0.890853
0.890847
0.890611
0.888246
0.879866
0.864591
0.844978
0.823347
0.801082
0.779359
0.760614
0.745476
0.72163
0.634117
0.585052
0.603929
0.651266
0.741952
0.766545
0.781809
0.800898
0.822883
0.845582
0.867642
0.88774
0.903554
0.912422
0.915022
0.915296
0.915304
0.915304
0.915304
0.915304
0.915304
0.915304
0.915304
0.915304
0.915304
0.915304
0.915304
0.915304
0.915296
0.915022
0.912422
0.903554
0.88774
0.867644
0.845585
0.82289
0.800911
0.781832
0.766577
0.741989
0.651295
0.603937
0.621491
0.668301
0.761865
0.78709
0.802564
0.821915
0.844313
0.867441
0.889956
0.910529
0.926846
0.936152
0.938961
0.939269
0.939278
0.939278
0.939278
0.939278
0.939278
0.939278
0.939278
0.939278
0.939278
0.939278
0.939278
0.939278
0.939269
0.938961
0.936152
0.926847
0.910531
0.889964
0.867457
0.844341
0.82196
0.802629
0.787179
0.761961
0.66837
0.621501
0.637263
0.683988
0.780191
0.806021
0.821722
0.841459
0.864307
0.887913
0.9109
0.931946
0.948727
0.958407
0.961387
0.961724
0.961734
0.961734
0.961734
0.961734
0.961734
0.961734
0.961734
0.961734
0.961734
0.961734
0.961734
0.961734
0.961724
0.961387
0.958407
0.948729
0.931953
0.91092
0.887951
0.864367
0.84154
0.821825
0.806147
0.780316
0.684044
0.637231
0.648439
0.696425
0.795266
0.82158
0.837552
0.857729
0.881092
0.905213
0.928696
0.950203
0.967396
0.977376
0.980482
0.98084
0.98085
0.98085
0.98085
0.98085
0.98085
0.98085
0.98085
0.98085
0.98085
0.98085
0.98085
0.98085
0.98084
0.980482
0.977377
0.967401
0.950218
0.928726
0.905267
0.881162
0.857793
0.837573
0.821488
0.795049
0.696017
0.647961
0.653791
0.703262
0.804875
0.831717
0.847987
0.868491
0.892235
0.916746
0.940607
0.962476
0.979977
0.99016
0.993345
0.993714
0.993725
0.993725
0.993725
0.993725
0.993725
0.993725
0.993725
0.993725
0.993725
0.993725
0.993725
0.993725
0.993714
0.993345
0.990162
0.979984
0.962482
0.940587
0.916655
0.892021
0.868075
0.847282
0.830649
0.803617
0.702177
0.652429
0.657454
0.706256
0.808397
0.835463
0.851973
0.872689
0.896711
0.921455
0.945495
0.967529
0.985158
0.995419
0.998633
0.999007
0.999018
0.999018
0.999018
0.999018
0.999018
0.999018
0.999018
0.999018
0.999018
0.999018
0.999018
0.999018
0.999007
0.998633
0.995419
0.985146
0.967475
0.945342
0.921115
0.89614
0.871825
0.850664
0.833664
0.806285
0.703751
0.653239
0.660406
0.7094
0.813222
0.839731
0.855253
0.874954
0.898209
0.922556
0.946479
0.968471
0.986089
0.996349
0.999566
0.99994
0.999951
0.999951
0.999951
0.999951
0.999951
0.999951
0.999951
0.999951
0.999951
0.999951
0.999951
0.999951
0.99994
0.999566
0.996346
0.986052
0.968341
0.946148
0.921843
0.896781
0.872374
0.851127
0.834043
0.806593
0.703891
0.653284
0.661499
0.711739
0.817967
0.8443
0.858922
0.877621
0.900076
0.923767
0.947153
0.968787
0.986214
0.996411
0.999615
0.999988
0.999999
1
1
1
1
1
1
1
1
1
1
0.999999
0.999988
0.999614
0.996393
0.986099
0.968385
0.946187
0.921877
0.896809
0.872396
0.851144
0.834056
0.806602
0.703894
0.653284
0.660413
0.714369
0.82261
0.849287
0.86303
0.880591
0.902097
0.92509
0.94796
0.969215
0.986387
0.996452
0.999619
0.999989
1
1
1
1
1
1
1
1
1
1
1
1
0.999989
0.999615
0.996394
0.986099
0.968385
0.946187
0.921878
0.896809
0.872396
0.851144
0.834056
0.806602
0.703894
0.653284
0.655419
0.719491
0.827142
0.854253
0.867555
0.883851
0.904308
0.926558
0.948907
0.969757
0.986628
0.996518
0.999627
0.999989
1
1
1
1
1
1
1
1
1
1
1
1
0.999989
0.999615
0.996394
0.986099
0.968385
0.946187
0.921878
0.896809
0.872396
0.851144
0.834056
0.806602
0.703894
0.653284
0.644884
0.727884
0.833482
0.859584
0.872484
0.887185
0.906503
0.927989
0.949868
0.970352
0.98692
0.996607
0.999639
0.99999
1
1
1
1
1
1
1
1
1
1
1
1
0.999989
0.999615
0.996394
0.986099
0.968385
0.946187
0.921878
0.896809
0.872396
0.851144
0.834056
0.806602
0.703894
0.653284
0.644342
0.737978
0.840971
0.865707
0.877418
0.89019
0.908412
0.929208
0.950706
0.970903
0.987215
0.996704
0.999652
0.99999
1
1
1
1
1
1
1
1
1
1
1
1
0.999989
0.999615
0.996394
0.986099
0.968385
0.946187
0.921878
0.896809
0.872396
0.851144
0.834056
0.806602
0.703894
0.653284
0.734619
0.772479
0.856525
0.874906
0.881417
0.892823
0.909768
0.930024
0.951257
0.971298
0.987451
0.99679
0.999665
0.999991
1
1
1
1
1
1
1
1
1
1
1
1
0.999989
0.999615
0.996394
0.986099
0.968385
0.946187
0.921878
0.896809
0.872396
0.851144
0.834056
0.806602
0.703894
0.653284
)
;

boundaryField
{
    inlet
    {
        type            fixedValue;
        value           uniform 1;
    }
    outlet
    {
        type            zeroGradient;
    }
    obstacle
    {
        type            zeroGradient;
    }
    empty
    {
        type            empty;
    }
}


// ************************************************************************* //
