/*--------------------------------*- C++ -*----------------------------------*\
| =========                 |                                                 |
| \\      /  F ield         | OpenFOAM: The Open Source CFD Toolbox           |
|  \\    /   O peration     | Version:  v1912                                 |
|   \\  /    A nd           | Website:  www.openfoam.com                      |
|    \\/     M anipulation  |                                                 |
\*---------------------------------------------------------------------------*/
FoamFile
{
    version     2.0;
    format      ascii;
    class       volVectorField;
    location    "4.7";
    object      grad(p);
}
// * * * * * * * * * * * * * * * * * * * * * * * * * * * * * * * * * * * * * //

dimensions      [1 -2 -2 0 0 0 0];


internalField   nonuniform List<vector> 
1900
(
(136431 -0.738785 0)
(-121704 -0.397123 0)
(-9842.49 0.746322 0)
(-1539.62 0.791215 0)
(-1481.42 2.4293 0)
(-1336.4 6.352 0)
(-1428.13 15.9232 0)
(-1391.55 31.3324 0)
(-1551.54 -128.59 0)
(-1056.86 -172.476 0)
(136429 -1.13325 0)
(-121702 -0.421916 0)
(-9841.3 1.33067 0)
(-1537.93 1.93282 0)
(-1475.86 4.22975 0)
(-1322.9 7.65622 0)
(-1403.15 13.4923 0)
(-1536.06 17.087 0)
(-1755.35 -175.152 0)
(-1857.75 -225.177 0)
(136429 1.05871e-08 0)
(-121701 1.42109e-09 0)
(-9840.14 -5.48894e-09 0)
(-1536.72 -2.32703e-09 0)
(-1475.7 -1.33227e-09 0)
(-1327.14 -1.95399e-10 0)
(-1418.7 -1.24345e-09 0)
(-1580.19 5.15143e-10 0)
(-1793.8 -9.76996e-10 0)
(-1862.78 -1.01252e-09 0)
(136429 1.13325 0)
(-121702 0.421916 0)
(-9841.3 -1.33067 0)
(-1537.93 -1.93282 0)
(-1475.86 -4.22975 0)
(-1322.9 -7.65622 0)
(-1403.15 -13.4923 0)
(-1536.06 -17.087 0)
(-1755.35 175.152 0)
(-1857.75 225.177 0)
(136431 0.738785 0)
(-121704 0.397123 0)
(-9842.49 -0.746322 0)
(-1539.62 -0.791215 0)
(-1481.42 -2.4293 0)
(-1336.4 -6.352 0)
(-1428.13 -15.9232 0)
(-1391.55 -31.3324 0)
(-1551.54 128.59 0)
(-1056.86 172.476 0)
(-1339.73 -838.579 9.4069e-12)
(-2552.19 -889.652 -1.09846e-11)
(-2761.68 -1240.08 -1.36747e-11)
(-1374.11 -1442.07 0)
(-9521.14 -8358.03 -5.78016e-11)
(-1981.42 -894.913 9.25537e-12)
(-2477.43 -965.082 1.09846e-11)
(-2707.36 -1321.62 1.36747e-11)
(-3679.1 -1450.5 0)
(-9147.72 -7226.67 0)
(-2316.82 -1.15849e-09 0)
(-2820.01 -8.37537e-10 0)
(-3108.51 -1.70234e-09 0)
(-3698.77 -5.3829e-10 0)
(-12171.4 -5.28678e-11 0)
(-1981.42 894.913 9.25537e-12)
(-2477.43 965.082 1.09846e-11)
(-2707.36 1321.62 1.36747e-11)
(-3679.1 1450.5 0)
(-9147.72 7226.67 0)
(-1339.73 838.579 -2.79176e-11)
(-2552.19 889.652 -1.09846e-11)
(-2761.68 1240.08 -1.36747e-11)
(-1374.11 1442.07 -3.65852e-11)
(-9521.14 8358.03 5.78016e-11)
(-18818.9 7266.05 1.73442e-11)
(-5945.41 2188.2 -1.32458e-11)
(-6140.53 1065.86 0)
(-6564.33 727.12 8.12394e-12)
(-7701.37 769.003 -3.14438e-12)
(-15359.6 7960.53 -8.78151e-12)
(-7337.9 1473.99 6.65586e-12)
(-6501.3 526.037 0)
(-6599.74 280.566 -5.09326e-12)
(-7643.4 279.679 7.93989e-13)
(-16421.3 -8.9715e-11 0)
(-7828.81 1.89782e-10 0)
(-6547.39 9.86865e-11 0)
(-6686.72 1.10297e-09 2.04068e-12)
(-7374.09 3.53194e-09 -1.58798e-12)
(-15359.6 -7960.53 -8.78151e-12)
(-7337.9 -1473.99 6.65586e-12)
(-6501.3 -526.037 0)
(-6599.74 -280.566 -5.09326e-12)
(-7643.4 -279.679 7.93989e-13)
(-18818.9 -7266.05 8.78151e-12)
(-5945.41 -2188.2 -6.59014e-14)
(-6140.53 -1065.86 0)
(-6564.33 -727.12 2.18985e-14)
(-7701.37 -769.003 3.14438e-12)
(-8430.5 3228.17 0)
(-3198.62 1860.2 0)
(1630.27 1363.53 0)
(268.961 1500.55 0)
(-1185.25 894.456 0)
(-1239.85 359.051 0)
(-994.33 135.742 0)
(-918.688 88.3451 0)
(-893.026 59.6792 0)
(-789.467 67.4303 0)
(-580.743 18.1123 0)
(-348.88 4.31592 0)
(-214.827 1.55003 0)
(-156.09 1.69071 0)
(-129.037 1.58251 0)
(-109.438 1.13234 0)
(-91.7234 0.577888 0)
(-75.776 0.150983 0)
(-62.5379 -0.114086 0)
(-51.2483 -0.292325 0)
(-40.8673 -0.429731 0)
(-32.1388 -0.537104 0)
(-24.2172 -0.604616 0)
(-16.6445 -0.636235 0)
(-10.0093 -0.623103 0)
(-4.64794 -0.581653 0)
(-0.752765 -0.529637 0)
(2.07181 -0.54743 0)
(6.25155 -0.508085 0)
(11.4151 -0.671889 0)
(25.2823 -0.626282 0)
(41.5336 -0.243357 0)
(65.6175 0.0710233 0)
(84.4047 1.81757 0)
(106.17 1.88964 0)
(122.91 4.73968 0)
(142.611 0.657056 0)
(826.453 10.7717 0)
(13639 -10.3824 0)
(-16154.2 -1255.2 0)
(-8457.22 1326.9 0)
(-3364.62 2482.76 0)
(1590.34 2193.6 0)
(317.558 1421.96 0)
(-1283.99 686.322 0)
(-1338.23 209.234 0)
(-1030.87 63.2126 0)
(-928.086 37.1246 0)
(-892.8 17.0745 0)
(-792.199 32.3704 0)
(-587.906 4.86291 0)
(-349.878 0.716697 0)
(-214.914 -0.103858 0)
(-156.025 0.120567 0)
(-129.04 0.204785 0)
(-109.494 0.13187 0)
(-91.7917 -0.0353237 0)
(-75.8233 -0.170563 0)
(-62.5677 -0.246948 0)
(-51.2722 -0.295825 0)
(-40.8902 -0.34706 0)
(-32.1604 -0.404467 0)
(-24.2341 -0.454965 0)
(-16.6545 -0.493091 0)
(-10.0123 -0.509142 0)
(-4.64722 -0.507933 0)
(-0.762028 -0.502857 0)
(2.05903 -0.541858 0)
(6.21832 -0.542639 0)
(11.3786 -0.652056 0)
(25.3157 -0.622768 0)
(41.5927 -0.315448 0)
(65.8177 0.0395082 0)
(84.634 1.3734 0)
(106.582 2.63593 0)
(123.001 6.07825 0)
(143.28 7.93128 0)
(826.4 17.3326 0)
(13648.4 13.8578 0)
(-16164.9 791.571 0)
(-7718.47 -6.03961e-09 0)
(-2946.49 1.71661e-08 0)
(1321.68 3.25316e-08 0)
(-169.521 1.53574e-08 0)
(-1538.05 -8.17932e-09 0)
(-1421.12 7.37188e-09 0)
(-1044.4 -2.16393e-09 0)
(-932.109 -1.25879e-08 0)
(-894.409 -1.52444e-08 0)
(-793.019 -1.41463e-08 0)
(-589.952 -1.37304e-08 0)
(-350.325 -3.58905e-09 0)
(-215 -1.99436e-09 0)
(-156 5.40578e-09 0)
(-129.033 2.27697e-09 0)
(-109.508 -2.28504e-09 0)
(-91.8114 -1.195e-09 0)
(-75.8375 -2.37386e-09 0)
(-62.5744 -6.8309e-09 0)
(-51.2775 -5.58341e-09 0)
(-40.8989 6.14054e-09 0)
(-32.1702 1.6617e-08 0)
(-24.243 1.96166e-08 0)
(-16.6603 1.8026e-08 0)
(-10.0136 2.01011e-08 0)
(-4.64611 2.49578e-08 0)
(-0.762634 2.87205e-08 0)
(2.06023 2.91524e-08 0)
(6.21949 2.50143e-08 0)
(11.3918 9.15631e-09 0)
(25.3802 4.36015e-10 0)
(41.7262 8.63552e-09 0)
(66.1088 3.56523e-08 0)
(85.1601 5.88297e-08 0)
(107.538 6.51721e-08 0)
(124.451 9.73645e-08 0)
(145.885 1.18903e-07 0)
(828.178 7.69203e-08 0)
(13864.2 -1.39605e-08 0)
(-16388.5 1.83578e-07 0)
(-8457.22 -1326.9 0)
(-3364.62 -2482.76 0)
(1590.34 -2193.6 0)
(317.558 -1421.96 0)
(-1283.99 -686.322 0)
(-1338.23 -209.234 0)
(-1030.87 -63.2126 0)
(-928.086 -37.1246 0)
(-892.8 -17.0745 0)
(-792.199 -32.3704 0)
(-587.906 -4.86291 0)
(-349.878 -0.716696 0)
(-214.914 0.103858 0)
(-156.025 -0.120567 0)
(-129.04 -0.204785 0)
(-109.494 -0.13187 0)
(-91.7917 0.0353237 0)
(-75.8233 0.170563 0)
(-62.5677 0.246948 0)
(-51.2722 0.295825 0)
(-40.8902 0.34706 0)
(-32.1604 0.404467 0)
(-24.2341 0.454965 0)
(-16.6545 0.493091 0)
(-10.0123 0.509142 0)
(-4.64722 0.507933 0)
(-0.762028 0.502857 0)
(2.05903 0.541858 0)
(6.21832 0.542639 0)
(11.3786 0.652056 0)
(25.3157 0.622768 0)
(41.5927 0.315448 0)
(65.8177 -0.0395083 0)
(84.634 -1.3734 0)
(106.582 -2.63593 0)
(123.001 -6.07825 0)
(143.28 -7.93128 0)
(826.4 -17.3326 0)
(13648.4 -13.8578 0)
(-16164.9 -791.571 0)
(-8430.5 -3228.17 0)
(-3198.62 -1860.2 0)
(1630.27 -1363.53 0)
(268.961 -1500.55 0)
(-1185.25 -894.456 0)
(-1239.85 -359.051 0)
(-994.33 -135.742 0)
(-918.688 -88.3451 0)
(-893.026 -59.6792 0)
(-789.467 -67.4303 0)
(-580.743 -18.1123 0)
(-348.88 -4.31592 0)
(-214.827 -1.55003 0)
(-156.09 -1.69071 0)
(-129.037 -1.58251 0)
(-109.438 -1.13234 0)
(-91.7234 -0.577888 0)
(-75.776 -0.150983 0)
(-62.5379 0.114086 0)
(-51.2483 0.292325 0)
(-40.8673 0.429731 0)
(-32.1388 0.537104 0)
(-24.2172 0.604616 0)
(-16.6445 0.636235 0)
(-10.0093 0.623102 0)
(-4.64794 0.581653 0)
(-0.752765 0.529637 0)
(2.07181 0.54743 0)
(6.25155 0.508085 0)
(11.4151 0.671888 0)
(25.2823 0.626282 0)
(41.5336 0.243357 0)
(65.6175 -0.0710234 0)
(84.4047 -1.81757 0)
(106.17 -1.88964 0)
(122.91 -4.73968 0)
(142.611 -0.657057 0)
(826.453 -10.7717 0)
(13639 10.3824 0)
(-16154.2 1255.2 0)
(8044.74 -2262.19 0)
(-2386.93 -2105.52 0)
(1769.77 -1983.63 0)
(667.985 -1882.19 0)
(-682.125 -1145.78 0)
(-976.058 -552.766 0)
(-903.323 -274.356 0)
(-891.24 -180.46 0)
(-879.419 -125.81 0)
(-769.285 -97.0617 0)
(-556.597 -38.5912 0)
(-340.643 -11.2642 0)
(-213.368 -4.66788 0)
(-155.971 -4.17418 0)
(-128.694 -3.68253 0)
(-108.929 -2.67854 0)
(-91.2551 -1.62224 0)
(-75.444 -0.829374 0)
(-62.3241 -0.315302 0)
(-51.1018 0.0107378 0)
(-40.7631 0.249092 0)
(-32.0757 0.417022 0)
(-24.1915 0.511375 0)
(-16.6545 0.5464 0)
(-10.0499 0.509045 0)
(-4.70502 0.429707 0)
(-0.794205 0.337469 0)
(2.03074 0.32778 0)
(6.25797 0.265315 0)
(11.4106 0.451248 0)
(25.0856 0.34722 0)
(41.2236 -0.173744 0)
(64.7564 -0.783163 0)
(83.7584 -3.29004 0)
(105.226 -3.44268 0)
(123.879 -6.77819 0)
(140.269 -1.66862 0)
(833.263 -15.4979 0)
(14453.5 -16.7021 0)
(-16971.2 272.896 0)
(7377.33 897.069 0)
(-3365.44 -1154.02 0)
(1770.69 -1211.75 0)
(862.371 -1483.51 0)
(-173.971 -1111.38 0)
(-541.568 -677.955 0)
(-684.363 -415.888 0)
(-790.261 -269.449 0)
(-819.956 -192.002 0)
(-716.242 -125.775 0)
(-511.014 -56.6918 0)
(-320.608 -20.0366 0)
(-208.777 -8.74176 0)
(-155.204 -6.61123 0)
(-127.779 -5.33591 0)
(-107.726 -3.68985 0)
(-90.1926 -2.10375 0)
(-74.6946 -0.93105 0)
(-61.843 -0.150518 0)
(-50.783 0.334157 0)
(-40.5316 0.687841 0)
(-31.9198 0.94389 0)
(-24.1063 1.09472 0)
(-16.6414 1.15824 0)
(-10.0999 1.11316 0)
(-4.78267 1.0127 0)
(-0.828764 0.900726 0)
(2.0243 0.927658 0)
(6.36708 0.890166 0)
(11.4965 1.23175 0)
(24.7855 1.16105 0)
(40.6105 0.457195 0)
(63.0762 -0.384037 0)
(82.1885 -3.75999 0)
(103.314 -4.48616 0)
(124.1 -8.65198 0)
(135.465 -5.58978 0)
(808.315 -20.0165 0)
(13480.1 -56.6341 0)
(-15962.9 -1266.22 0)
(7797.13 1587.12 0)
(-4419.07 -354.007 0)
(1452.26 -647.088 0)
(764.71 -1050.93 0)
(94.1354 -835.7 0)
(-305.858 -623.303 0)
(-509.671 -455.728 0)
(-675.495 -325.835 0)
(-740.97 -244.378 0)
(-638.895 -148.992 0)
(-454.704 -72.0656 0)
(-294.436 -29.422 0)
(-200.43 -14.1974 0)
(-152.689 -9.65784 0)
(-125.879 -7.03718 0)
(-105.814 -4.52907 0)
(-88.5966 -2.34104 0)
(-73.5618 -0.745456 0)
(-61.1049 0.316464 0)
(-50.2939 0.997152 0)
(-40.1756 1.50783 0)
(-31.6836 1.87523 0)
(-23.985 2.08231 0)
(-16.6367 2.15691 0)
(-10.1902 2.07638 0)
(-4.90973 1.93056 0)
(-0.876153 1.77661 0)
(2.02056 1.84936 0)
(6.55101 1.81729 0)
(11.6716 2.34078 0)
(24.3392 2.30513 0)
(39.7347 1.35256 0)
(60.6926 0.307646 0)
(79.8054 -3.77769 0)
(100.512 -4.91686 0)
(122.816 -9.72108 0)
(129.318 -9.13627 0)
(784.074 -19.1012 0)
(13252.6 -36.3411 0)
(-15696.4 -527.107 0)
(8565.6 1680.35 0)
(-5518.4 -100.164 0)
(1099.11 -404.971 0)
(680.617 -714.483 0)
(238.106 -617.386 0)
(-175.413 -540.378 0)
(-397.713 -439.324 0)
(-586.596 -356.185 0)
(-649.543 -265.367 0)
(-550.196 -159.305 0)
(-395.792 -79.1579 0)
(-264.844 -36.1999 0)
(-189.732 -19.0272 0)
(-148.304 -12.3872 0)
(-122.837 -8.32048 0)
(-103.2 -4.94575 0)
(-86.5466 -2.24866 0)
(-72.1337 -0.320092 0)
(-60.1638 0.96136 0)
(-49.635 1.83511 0)
(-39.6855 2.51123 0)
(-31.3662 2.99832 0)
(-23.8348 3.26471 0)
(-16.6471 3.35173 0)
(-10.318 3.24377 0)
(-5.07154 3.07524 0)
(-0.907019 2.90158 0)
(2.0635 3.06625 0)
(6.84063 3.08277 0)
(11.9666 3.77397 0)
(23.8333 3.77699 0)
(38.6856 2.59883 0)
(58.1325 1.2651 0)
(77.154 -2.97115 0)
(97.5868 -4.57326 0)
(120.035 -9.55965 0)
(126.426 -12.2509 0)
(782.1 -13.9237 0)
(12990.6 -24.8463 0)
(-15420 -565.112 0)
(9319.86 1430.11 0)
(-6428.56 -60.0305 0)
(860.281 -255.941 0)
(560.018 -453.904 0)
(261.91 -454.852 0)
(-134.27 -465.106 0)
(-332.177 -415.779 0)
(-507.864 -357.035 0)
(-551.249 -256.471 0)
(-459.457 -155.686 0)
(-336.076 -78.0189 0)
(-236.492 -39.3466 0)
(-177.484 -22.0295 0)
(-142.372 -14.1056 0)
(-118.708 -8.96259 0)
(-99.9632 -4.98347 0)
(-84.1391 -1.98298 0)
(-70.4685 0.143942 0)
(-59.028 1.62538 0)
(-48.8004 2.68763 0)
(-39.0546 3.53295 0)
(-30.9576 4.15327 0)
(-23.6444 4.50434 0)
(-16.6569 4.64601 0)
(-10.4566 4.58559 0)
(-5.23947 4.51159 0)
(-0.88481 4.42557 0)
(2.19516 4.83016 0)
(7.23299 5.08219 0)
(12.3406 6.10069 0)
(23.2068 6.35609 0)
(37.3141 5.21665 0)
(55.3251 3.8679 0)
(74.1794 0.0210017 0)
(94.1634 -1.37645 0)
(115.417 -5.73878 0)
(125.112 -9.70486 0)
(771.937 -4.95175 0)
(12721.5 -20.5158 0)
(-15127.9 -655.453 0)
(9885.86 1715.36 0)
(-7143.15 -59.9978 0)
(719.556 -215.059 0)
(488.94 -307.604 0)
(227.311 -371.039 0)
(-137.761 -408.999 0)
(-293.572 -390.804 0)
(-433.081 -334.983 0)
(-455.516 -234.456 0)
(-378.232 -141.771 0)
(-283.684 -75.058 0)
(-210.89 -40.7667 0)
(-165.409 -24.2016 0)
(-135.712 -15.4355 0)
(-114.047 -9.57453 0)
(-96.4745 -5.25007 0)
(-81.6056 -2.08629 0)
(-68.6565 0.194879 0)
(-57.7126 1.89527 0)
(-47.7968 3.12597 0)
(-38.2731 4.13383 0)
(-30.4302 4.8985 0)
(-23.36 5.35812 0)
(-16.5688 5.58994 0)
(-10.4476 5.63027 0)
(-5.22573 5.7261 0)
(-0.600027 5.77208 0)
(2.69624 6.43104 0)
(8.06496 6.91149 0)
(13.1941 8.11545 0)
(22.9814 8.41811 0)
(36.2879 7.06825 0)
(53.1258 5.32942 0)
(72.1003 1.16641 0)
(92.0364 -0.468605 0)
(112.009 -4.014 0)
(127.184 -8.51322 0)
(771.682 0.96138 0)
(12363.7 -16.2159 0)
(-14768.6 -719.114 0)
(10915 847.893 0)
(-8288.78 -72.4563 0)
(621.679 -179.89 0)
(409.711 -253.2 0)
(164.202 -338.93 0)
(-153.316 -370.992 0)
(-260.853 -358.897 0)
(-357.202 -296.42 0)
(-365.063 -203.331 0)
(-305.855 -121.418 0)
(-238.744 -67.1003 0)
(-187.485 -38.2626 0)
(-153.074 -23.301 0)
(-128.277 -14.6955 0)
(-108.893 -8.95687 0)
(-92.7473 -4.84412 0)
(-78.8922 -1.86009 0)
(-66.6317 0.349432 0)
(-56.2035 2.02914 0)
(-46.6433 3.31282 0)
(-37.3466 4.47036 0)
(-29.7778 5.43664 0)
(-22.9781 6.11352 0)
(-16.3946 6.60582 0)
(-10.3254 6.99985 0)
(-5.10282 7.57436 0)
(-0.20551 8.05074 0)
(3.29314 9.32629 0)
(8.85616 10.3864 0)
(13.7924 12.1376 0)
(22.1977 12.9066 0)
(34.3378 11.7704 0)
(49.6379 10.1574 0)
(68.5922 5.6622 0)
(89.1713 3.17758 0)
(107.665 -0.424473 0)
(129.907 -5.0597 0)
(764.514 4.17622 0)
(12027.6 -25.2274 0)
(-14419.3 -778.503 0)
(10633.1 -207.734 0)
(-8133.55 -80.5543 0)
(545.385 -161.136 0)
(335.683 -230.986 0)
(113.803 -319.41 0)
(-157.002 -331.255 0)
(-221.712 -312.904 0)
(-283.172 -249.69 0)
(-286.877 -170.56 0)
(-246.956 -103.303 0)
(-203.552 -60.3607 0)
(-168.684 -36.2804 0)
(-142.699 -22.7096 0)
(-121.89 -14.2313 0)
(-104.553 -8.55068 0)
(-89.6357 -4.64934 0)
(-76.6009 -1.94496 0)
(-64.9087 0.073439 0)
(-54.857 1.6821 0)
(-45.4443 3.10539 0)
(-36.2266 4.46153 0)
(-28.8468 5.63057 0)
(-22.2333 6.49416 0)
(-15.7147 7.19929 0)
(-9.51422 7.87095 0)
(-4.21306 8.77274 0)
(1.0882 9.45378 0)
(4.94701 11.038 0)
(10.7741 12.2363 0)
(15.6226 14.0147 0)
(22.6275 14.8303 0)
(33.6387 13.6155 0)
(47.2397 11.6272 0)
(65.3744 7.29795 0)
(86.1711 4.26522 0)
(104.071 1.34563 0)
(131.617 -2.80755 0)
(752.248 6.12602 0)
(11609.5 -28.369 0)
(-13994.1 -806.276 0)
(10637.2 -128.117 0)
(-8243.88 -72.8939 0)
(476.718 -150.721 0)
(257.193 -218.31 0)
(67.5788 -305.821 0)
(-147.047 -295.887 0)
(-182.253 -267.934 0)
(-220.035 -208.697 0)
(-223.999 -143.3 0)
(-199.663 -88.8983 0)
(-174.159 -54.0017 0)
(-151.203 -32.6295 0)
(-131.826 -19.4034 0)
(-114.633 -10.5698 0)
(-99.6591 -4.88683 0)
(-86.3818 -1.35827 0)
(-74.3411 0.913591 0)
(-63.1365 2.63598 0)
(-53.2818 4.18274 0)
(-43.9649 5.65528 0)
(-34.9132 7.12967 0)
(-27.8191 8.47134 0)
(-21.4665 9.54734 0)
(-15.0679 10.5255 0)
(-8.80918 11.4903 0)
(-3.57754 12.6314 0)
(1.97735 13.3634 0)
(5.9745 14.9643 0)
(11.7246 15.6995 0)
(16.292 16.6469 0)
(21.813 16.5808 0)
(31.2512 14.4227 0)
(43.5501 10.7585 0)
(61.4979 5.48956 0)
(83.4355 1.63535 0)
(100.849 -0.232863 0)
(134.513 -3.11613 0)
(739.883 7.01206 0)
(11244.7 -44.0708 0)
(-13615.1 -866.603 0)
(10439.4 -389.002 0)
(-8155.34 -72.0633 0)
(405.257 -146.595 0)
(186.223 -208.839 0)
(39.0465 -282.715 0)
(-120.493 -256.181 0)
(-137.692 -221.961 0)
(-163.071 -170.096 0)
(-171.435 -117.299 0)
(-160.905 -73.989 0)
(-149.33 -45.4881 0)
(-135.343 -26.1201 0)
(-121.441 -13.3146 0)
(-107.901 -5.20917 0)
(-95.6768 -0.298961 0)
(-84.0462 2.86825 0)
(-72.7519 5.06355 0)
(-61.7585 6.85558 0)
(-51.9475 8.51642 0)
(-42.6046 10.0283 0)
(-33.5129 11.61 0)
(-26.517 13.0982 0)
(-20.2539 14.2945 0)
(-13.8424 15.3883 0)
(-7.48489 16.3887 0)
(-2.40802 17.4765 0)
(3.33621 18.0781 0)
(7.19808 19.6902 0)
(12.3955 19.9682 0)
(16.4719 20.2044 0)
(20.4842 19.2698 0)
(28.0282 16.2766 0)
(38.6314 11.0815 0)
(56.5829 4.09921 0)
(80.6568 -2.41383 0)
(99.4925 -5.59339 0)
(138.599 -8.44327 0)
(712.782 1.33325 0)
(10767.7 -67.9618 0)
(-13116.5 -942.392 0)
(10192.9 -564.891 0)
(-8010.28 -77.8841 0)
(344.916 -140.912 0)
(126.022 -191.336 0)
(21.9581 -248.99 0)
(-88.5023 -213.447 0)
(-99.2988 -177.824 0)
(-119.179 -136.382 0)
(-131.386 -94.8725 0)
(-130.463 -60.4061 0)
(-128.03 -36.4346 0)
(-120.2 -17.9772 0)
(-111.676 -5.93685 0)
(-102.09 2.51742 0)
(-91.8754 8.31861 0)
(-81.2143 12.8087 0)
(-70.4988 16.4107 0)
(-59.8092 19.4557 0)
(-50.2245 22.041 0)
(-40.9838 24.0764 0)
(-31.9549 25.8575 0)
(-25.2322 27.2254 0)
(-19.2596 27.9602 0)
(-13.0498 28.3174 0)
(-6.79694 28.2559 0)
(-1.94951 28.1521 0)
(4.11059 27.5191 0)
(7.79588 27.9705 0)
(12.2201 26.8926 0)
(15.619 25.6626 0)
(18.028 23.1157 0)
(23.3607 18.9925 0)
(31.8155 12.0824 0)
(48.4933 3.68818 0)
(74.0953 -5.1643 0)
(95.0393 -8.76781 0)
(141.188 -12.1054 0)
(682.528 -7.28078 0)
(10335.3 -112.934 0)
(-12641.4 -1050.68 0)
(9820 -773.574 0)
(-7746.77 -81.7368 0)
(295.93 -132.834 0)
(82.0756 -169.54 0)
(17.7394 -207.43 0)
(-51.915 -172.609 0)
(-63.4288 -139.232 0)
(-83.1352 -106.536 0)
(-98.2219 -72.2969 0)
(-104.592 -42.62 0)
(-108.444 -21.4011 0)
(-105.955 -4.36285 0)
(-101.692 6.99532 0)
(-94.1641 15.8176 0)
(-85.7598 21.9503 0)
(-76.2484 26.9399 0)
(-66.3467 31.1894 0)
(-56.333 34.9222 0)
(-47.4947 38.1127 0)
(-38.9268 40.5254 0)
(-30.4784 42.4699 0)
(-24.4908 43.8164 0)
(-19.2015 44.3124 0)
(-13.5574 44.2392 0)
(-7.64422 43.5094 0)
(-3.11804 42.7607 0)
(3.16117 41.2985 0)
(6.59434 40.8055 0)
(10.1716 38.5864 0)
(12.8323 35.8831 0)
(14.0567 31.6195 0)
(17.3961 25.6291 0)
(23.8836 16.0224 0)
(39.9633 5.17146 0)
(68.6537 -6.77428 0)
(92.8038 -11.6093 0)
(140.032 -15.4922 0)
(615.621 -17.0209 0)
(9762.22 -170.238 0)
(-11995.2 -1212.24 0)
(9368.71 -890.279 0)
(-7392.84 -81.2813 0)
(260.306 -127.034 0)
(54.1384 -149.636 0)
(19.0007 -164.377 0)
(-22.7841 -134.721 0)
(-35.6289 -101.724 0)
(-54.6775 -76.3461 0)
(-69.7945 -47.3799 0)
(-81.4181 -23.4288 0)
(-91.1645 -4.87218 0)
(-92.8357 12.4057 0)
(-92.2291 24.204 0)
(-87.6791 33.5405 0)
(-81.1576 40.1557 0)
(-72.3111 45.9645 0)
(-62.8067 51.2443 0)
(-53.1376 56.1306 0)
(-44.8251 60.3813 0)
(-36.7851 63.4381 0)
(-28.7835 65.4262 0)
(-23.4568 66.231 0)
(-18.8523 65.7516 0)
(-13.8236 64.4953 0)
(-8.2216 62.4039 0)
(-4.08003 60.5457 0)
(2.2265 57.94 0)
(5.18239 56.205 0)
(7.47658 52.8665 0)
(8.90548 48.2723 0)
(8.14695 42.0139 0)
(8.33076 34.3017 0)
(12.1018 22.5414 0)
(26.5256 10.383 0)
(57.9247 -4.50358 0)
(86.6384 -10.3666 0)
(135.973 -14.8735 0)
(533.41 -25.9057 0)
(9183.53 -224.405 0)
(-11309.2 -1347.37 0)
(8883.77 -988.076 0)
(-7011.28 -64.0755 0)
(230.061 -102.372 0)
(46.0902 -114.425 0)
(32.1122 -108.144 0)
(8.46021 -89.4482 0)
(-7.1771 -56.6069 0)
(-30.7675 -39.8077 0)
(-47.2288 -15.7809 0)
(-63.6297 3.79841 0)
(-73.9122 20.1993 0)
(-77.9359 36.0698 0)
(-81.3256 45.5449 0)
(-78.7924 53.5748 0)
(-73.7875 59.2945 0)
(-65.563 64.762 0)
(-56.5503 69.902 0)
(-47.5283 74.7756 0)
(-40.4529 79.0764 0)
(-34.0652 82.2189 0)
(-27.7871 84.437 0)
(-24.1773 85.5396 0)
(-20.8741 85.2507 0)
(-16.7834 84.0977 0)
(-11.4502 82.0001 0)
(-7.41956 80.3438 0)
(-1.02162 77.7962 0)
(1.70533 76.1728 0)
(2.52727 73.3436 0)
(2.37433 68.8947 0)
(0.594122 61.9738 0)
(-1.3683 55.3997 0)
(0.83462 43.003 0)
(13.9018 30.6886 0)
(48.6586 13.163 0)
(82.811 4.75842 0)
(125.058 4.15473 0)
(413.708 -13.5502 0)
(8488.81 -235.899 0)
(-10480.6 -1448.32 0)
(8354.82 -1144.58 0)
(-6539.35 -10.837 0)
(211.787 -38.3948 0)
(48.5756 -47.1551 0)
(43.0697 -33.4747 0)
(26.8793 -29.2751 0)
(12.2065 -1.74666 0)
(-15.336 12.8604 0)
(-27.7741 26.4875 0)
(-46.7462 40.9294 0)
(-60.0666 52.3158 0)
(-68.4118 64.6351 0)
(-75.3606 70.4131 0)
(-74.4295 76.7412 0)
(-70.3772 81.7328 0)
(-62.0894 87.3851 0)
(-53.1572 92.8834 0)
(-44.2968 98.1829 0)
(-37.6525 102.844 0)
(-31.6194 106.029 0)
(-25.5836 107.876 0)
(-22.6727 108.294 0)
(-20.2417 107.241 0)
(-16.956 105.557 0)
(-11.839 103.065 0)
(-8.13112 101.179 0)
(-1.7928 98.5056 0)
(0.891766 97.1889 0)
(0.46309 95.5707 0)
(-2.05091 93.084 0)
(-4.85737 87.5684 0)
(-9.95017 84.7668 0)
(-11.7107 75.3293 0)
(-2.22937 66.2488 0)
(32.9375 53.737 0)
(77.9576 44.9083 0)
(118.331 51.3433 0)
(302.085 36.5305 0)
(7800.93 -165.948 0)
(-9686.25 -1493.79 0)
(7770.37 -853.913 0)
(-5945.33 87.8014 0)
(195.064 51.3131 0)
(50.8314 37.0275 0)
(49.342 34.9694 0)
(39.0345 32.9546 0)
(33.4262 54.3735 0)
(-3.55999 64.2405 0)
(-20.1805 72.5603 0)
(-38.7406 82.6662 0)
(-51.0686 89.3098 0)
(-60.4967 96.1155 0)
(-69.6597 98.6896 0)
(-67.8843 104.346 0)
(-63.5307 109.233 0)
(-54.8178 115.063 0)
(-46.1451 120.175 0)
(-37.9302 124.033 0)
(-32.8926 126.803 0)
(-29.2156 128.82 0)
(-25.6044 131.347 0)
(-24.7898 133.771 0)
(-23.5112 134.238 0)
(-20.807 132.698 0)
(-15.6686 128.745 0)
(-11.8133 125.092 0)
(-4.8671 119.897 0)
(-1.1229 116.966 0)
(-1.42834 113.81 0)
(-5.33697 111.826 0)
(-7.42062 106.729 0)
(-13.1623 105.928 0)
(-17.0101 99.5039 0)
(-6.90537 93.4095 0)
(28.0942 88.3604 0)
(80.5044 86.7779 0)
(116.985 102.936 0)
(204.319 107.523 0)
(7014.14 -25.3701 0)
(-8881.21 -1184.09 0)
(7616.57 -561.657 0)
(-5667.04 218.135 0)
(162.859 179.703 0)
(32.8262 158.505 0)
(39.1449 122.319 0)
(45.5778 125.568 0)
(42.3547 134.638 0)
(2.18943 132.345 0)
(-10.0184 150.16 0)
(-30.6058 147.077 0)
(-47.1064 147.313 0)
(-59.3731 139.311 0)
(-67.4294 133.583 0)
(-64.2699 130.774 0)
(-60.0495 128.274 0)
(-51.5444 130.035 0)
(-44.5135 134.737 0)
(-37.9107 141.464 0)
(-33.0399 148.764 0)
(-27.2401 152.765 0)
(-20.8131 153.807 0)
(-19.8869 152.945 0)
(-21.2748 150.218 0)
(-22.2498 149.054 0)
(-19.169 147.847 0)
(-16.6566 150.098 0)
(-9.62276 152.076 0)
(-4.97373 154.095 0)
(-4.49017 156.984 0)
(-8.87512 160.398 0)
(-10.5412 161.896 0)
(-16.9123 162.869 0)
(-23.7739 161.299 0)
(-12.9677 151.473 0)
(26.547 144.993 0)
(92.0036 141.326 0)
(138.322 155.739 0)
(178.444 177.185 0)
(6556.28 115.604 0)
(-8520.77 -1077.25 0)
(7439.34 9747.11 0)
(-5230.93 1057.25 0)
(137.602 501.351 0)
(-4.4656 466.537 0)
(17.6033 489.685 0)
(50.9049 606.73 0)
(39.9564 705.558 0)
(11.3978 797.455 0)
(-5.98459 883.124 0)
(-41.4842 914.413 0)
(-58.5517 940.398 0)
(-73.7273 939.294 0)
(-77.8861 941.583 0)
(-73.0004 933.48 0)
(-64.2435 926.404 0)
(-48.59 915.904 0)
(-35.1316 909.041 0)
(-24.4129 892.263 0)
(-22.0022 891.586 0)
(-24.3558 878.676 0)
(-25.4313 879.051 0)
(-28.2488 894.846 0)
(-27.2608 895.358 0)
(-23.0912 917.826 0)
(-14.6622 917.491 0)
(-7.73857 930.105 0)
(-1.01501 928.601 0)
(3.60634 921.234 0)
(4.64543 913.648 0)
(-0.602952 890.745 0)
(-5.04022 868.372 0)
(-13.7384 811.543 0)
(-27.991 752.051 0)
(-22.6181 638.576 0)
(18.3158 519.28 0)
(90.8599 391.61 0)
(151.539 327.562 0)
(165.643 289.481 0)
(5805.32 809.763 0)
(-7954.53 8449.45 0)
(18028 169720 0)
(-14576.6 16970 0)
(-406.373 7826.1 0)
(21.5838 8558.68 0)
(174.24 9012.59 0)
(253.601 9821.25 0)
(226.144 10399.4 0)
(173.298 11086.7 0)
(102.686 11626.5 0)
(24.5862 12052 0)
(-23.13 12451.3 0)
(-58.231 12766.1 0)
(-73.0318 13066.7 0)
(-78.8978 13336.4 0)
(-76.9866 13601.1 0)
(-68.2754 13819 0)
(-67.2944 14021.8 0)
(-54.7308 14192.6 0)
(-46.1329 14247.4 0)
(-39.3196 14267.5 0)
(-5.2314 14256.2 0)
(-4.17246 14176.8 0)
(0.869449 14140.5 0)
(-0.922416 13818.2 0)
(-7.33604 13581.4 0)
(-5.95056 13189.7 0)
(-18.1713 12838 0)
(-19.3831 12375.1 0)
(-33.8705 11964.5 0)
(-52.5039 11411.4 0)
(-86.8631 10917.4 0)
(-129.004 10245.1 0)
(-190.451 9603.21 0)
(-237.274 8814.74 0)
(-211.439 8059.14 0)
(-92.7435 7194.04 0)
(39.907 6711.57 0)
(643.111 5932.54 0)
(14419.5 14483 0)
(-17443.3 152532 0)
(187341 -193094 0)
(-161238 -20025 0)
(-7967.83 -10644.5 0)
(1138.88 -11334.8 0)
(1234.26 -11848.8 0)
(1387.32 -12796.4 0)
(1259.39 -13551.6 0)
(1193.83 -14338 0)
(924.172 -14970.3 0)
(753.327 -15403.6 0)
(629.663 -15777.6 0)
(519.343 -16033.1 0)
(471.622 -16256.1 0)
(441.922 -16446.7 0)
(400.843 -16632.8 0)
(356.86 -16782.8 0)
(324.845 -16932.3 0)
(192.916 -17050 0)
(50.2321 -17075.7 0)
(-15.8341 -17054.3 0)
(-112.91 -17018.5 0)
(-139.745 -16931.7 0)
(-372.76 -16869.1 0)
(-561.833 -16545.8 0)
(-620.378 -16285.1 0)
(-724.124 -15894.4 0)
(-785.981 -15527.5 0)
(-838.105 -15059.9 0)
(-923.934 -14637.7 0)
(-1009.68 -14065.9 0)
(-1128.94 -13535.4 0)
(-1280.13 -12804.2 0)
(-1406.37 -12073.1 0)
(-1510.55 -11147.2 0)
(-1543.45 -10259.3 0)
(-1207.7 -9326.05 0)
(-1064.09 -8909.8 0)
(7654.45 -8263.22 0)
(147074 -17520.5 0)
(-168896 -175851 0)
(187341 193094 0)
(-161238 20025 0)
(-7967.83 10644.5 0)
(1138.88 11334.8 0)
(1234.26 11848.8 0)
(1387.32 12796.4 0)
(1259.39 13551.6 0)
(1193.83 14338 0)
(924.172 14970.3 0)
(753.327 15403.6 0)
(629.663 15777.6 0)
(519.343 16033.1 0)
(471.622 16256.1 0)
(441.922 16446.7 0)
(400.843 16632.8 0)
(356.86 16782.8 0)
(324.845 16932.3 0)
(192.916 17050 0)
(50.2321 17075.7 0)
(-15.8341 17054.3 0)
(-112.91 17018.5 0)
(-139.745 16931.7 0)
(-372.76 16869.1 0)
(-561.833 16545.8 0)
(-620.378 16285.1 0)
(-724.124 15894.4 0)
(-785.981 15527.5 0)
(-838.105 15059.9 0)
(-923.934 14637.7 0)
(-1009.68 14065.9 0)
(-1128.94 13535.4 0)
(-1280.13 12804.2 0)
(-1406.37 12073.1 0)
(-1510.55 11147.2 0)
(-1543.45 10259.3 0)
(-1207.7 9326.05 0)
(-1064.09 8909.8 0)
(7654.45 8263.22 0)
(147074 17520.5 0)
(-168896 175851 0)
(18028 -169720 0)
(-14576.6 -16970 0)
(-406.373 -7826.1 0)
(21.5838 -8558.68 0)
(174.24 -9012.59 0)
(253.601 -9821.25 0)
(226.144 -10399.4 0)
(173.298 -11086.7 0)
(102.686 -11626.5 0)
(24.5862 -12052 0)
(-23.13 -12451.3 0)
(-58.231 -12766.1 0)
(-73.0318 -13066.7 0)
(-78.8978 -13336.4 0)
(-76.9866 -13601.1 0)
(-68.2754 -13819 0)
(-67.2944 -14021.8 0)
(-54.7308 -14192.6 0)
(-46.1329 -14247.4 0)
(-39.3196 -14267.5 0)
(-5.23139 -14256.2 0)
(-4.17245 -14176.8 0)
(0.869448 -14140.5 0)
(-0.922417 -13818.2 0)
(-7.33604 -13581.4 0)
(-5.95056 -13189.7 0)
(-18.1713 -12838 0)
(-19.3831 -12375.1 0)
(-33.8705 -11964.5 0)
(-52.5039 -11411.4 0)
(-86.8631 -10917.4 0)
(-129.004 -10245.1 0)
(-190.451 -9603.21 0)
(-237.274 -8814.74 0)
(-211.439 -8059.14 0)
(-92.7435 -7194.04 0)
(39.907 -6711.57 0)
(643.111 -5932.54 0)
(14419.5 -14483 0)
(-17443.3 -152532 0)
(7439.34 -9747.11 0)
(-5230.93 -1057.25 0)
(137.602 -501.351 0)
(-4.4656 -466.537 0)
(17.6033 -489.685 0)
(50.9049 -606.73 0)
(39.9564 -705.558 0)
(11.3978 -797.455 0)
(-5.98459 -883.124 0)
(-41.4842 -914.413 0)
(-58.5517 -940.398 0)
(-73.7273 -939.294 0)
(-77.8861 -941.583 0)
(-73.0004 -933.48 0)
(-64.2435 -926.404 0)
(-48.59 -915.904 0)
(-35.1316 -909.041 0)
(-24.4129 -892.263 0)
(-22.0022 -891.586 0)
(-24.3558 -878.676 0)
(-25.4313 -879.051 0)
(-28.2488 -894.846 0)
(-27.2608 -895.358 0)
(-23.0912 -917.826 0)
(-14.6622 -917.491 0)
(-7.73857 -930.105 0)
(-1.01501 -928.601 0)
(3.60634 -921.234 0)
(4.64543 -913.648 0)
(-0.602952 -890.745 0)
(-5.04022 -868.372 0)
(-13.7384 -811.543 0)
(-27.991 -752.051 0)
(-22.6181 -638.576 0)
(18.3158 -519.28 0)
(90.8599 -391.61 0)
(151.539 -327.562 0)
(165.643 -289.481 0)
(5805.32 -809.763 0)
(-7954.53 -8449.45 0)
(7616.57 561.657 0)
(-5667.04 -218.135 0)
(162.859 -179.703 0)
(32.8262 -158.505 0)
(39.1449 -122.319 0)
(45.5778 -125.568 0)
(42.3547 -134.638 0)
(2.18943 -132.345 0)
(-10.0184 -150.16 0)
(-30.6058 -147.077 0)
(-47.1064 -147.313 0)
(-59.3731 -139.311 0)
(-67.4294 -133.583 0)
(-64.2699 -130.774 0)
(-60.0495 -128.274 0)
(-51.5444 -130.035 0)
(-44.5135 -134.737 0)
(-37.9107 -141.464 0)
(-33.0399 -148.764 0)
(-27.2401 -152.765 0)
(-20.8131 -153.807 0)
(-19.8869 -152.945 0)
(-21.2748 -150.218 0)
(-22.2498 -149.054 0)
(-19.169 -147.847 0)
(-16.6566 -150.098 0)
(-9.62276 -152.076 0)
(-4.97373 -154.095 0)
(-4.49017 -156.984 0)
(-8.87512 -160.398 0)
(-10.5412 -161.896 0)
(-16.9123 -162.869 0)
(-23.7739 -161.299 0)
(-12.9677 -151.473 0)
(26.547 -144.993 0)
(92.0036 -141.326 0)
(138.322 -155.739 0)
(178.444 -177.185 0)
(6556.28 -115.604 0)
(-8520.77 1077.25 0)
(7770.37 853.913 0)
(-5945.33 -87.8014 0)
(195.064 -51.3131 0)
(50.8314 -37.0275 0)
(49.342 -34.9694 0)
(39.0345 -32.9546 0)
(33.4262 -54.3735 0)
(-3.55999 -64.2405 0)
(-20.1805 -72.5603 0)
(-38.7406 -82.6662 0)
(-51.0686 -89.3098 0)
(-60.4967 -96.1155 0)
(-69.6597 -98.6896 0)
(-67.8843 -104.346 0)
(-63.5307 -109.233 0)
(-54.8178 -115.063 0)
(-46.1451 -120.175 0)
(-37.9302 -124.033 0)
(-32.8926 -126.803 0)
(-29.2156 -128.82 0)
(-25.6044 -131.347 0)
(-24.7898 -133.771 0)
(-23.5112 -134.238 0)
(-20.807 -132.698 0)
(-15.6686 -128.745 0)
(-11.8133 -125.092 0)
(-4.8671 -119.897 0)
(-1.1229 -116.966 0)
(-1.42834 -113.81 0)
(-5.33697 -111.826 0)
(-7.42062 -106.729 0)
(-13.1623 -105.928 0)
(-17.0101 -99.5039 0)
(-6.90537 -93.4095 0)
(28.0942 -88.3604 0)
(80.5044 -86.7779 0)
(116.985 -102.936 0)
(204.319 -107.523 0)
(7014.14 25.3701 0)
(-8881.21 1184.09 0)
(8354.82 1144.58 0)
(-6539.35 10.837 0)
(211.787 38.3948 0)
(48.5756 47.1551 0)
(43.0697 33.4747 0)
(26.8793 29.2751 0)
(12.2065 1.74666 0)
(-15.336 -12.8604 0)
(-27.7741 -26.4875 0)
(-46.7462 -40.9294 0)
(-60.0666 -52.3158 0)
(-68.4118 -64.6351 0)
(-75.3606 -70.4131 0)
(-74.4295 -76.7412 0)
(-70.3772 -81.7328 0)
(-62.0894 -87.3851 0)
(-53.1572 -92.8834 0)
(-44.2968 -98.1829 0)
(-37.6525 -102.844 0)
(-31.6194 -106.029 0)
(-25.5836 -107.876 0)
(-22.6727 -108.294 0)
(-20.2417 -107.241 0)
(-16.956 -105.557 0)
(-11.839 -103.065 0)
(-8.13112 -101.179 0)
(-1.7928 -98.5056 0)
(0.891766 -97.1889 0)
(0.46309 -95.5707 0)
(-2.05091 -93.084 0)
(-4.85737 -87.5684 0)
(-9.95017 -84.7668 0)
(-11.7107 -75.3293 0)
(-2.22937 -66.2488 0)
(32.9375 -53.737 0)
(77.9576 -44.9083 0)
(118.331 -51.3433 0)
(302.085 -36.5305 0)
(7800.93 165.948 0)
(-9686.25 1493.79 0)
(8883.77 988.076 0)
(-7011.28 64.0755 0)
(230.061 102.372 0)
(46.0902 114.425 0)
(32.1122 108.144 0)
(8.46021 89.4482 0)
(-7.1771 56.6069 0)
(-30.7675 39.8077 0)
(-47.2288 15.7809 0)
(-63.6297 -3.79841 0)
(-73.9122 -20.1993 0)
(-77.9359 -36.0698 0)
(-81.3256 -45.5449 0)
(-78.7924 -53.5748 0)
(-73.7875 -59.2945 0)
(-65.563 -64.762 0)
(-56.5503 -69.902 0)
(-47.5283 -74.7756 0)