/*--------------------------------*- C++ -*----------------------------------*\
| =========                 |                                                 |
| \\      /  F ield         | OpenFOAM: The Open Source CFD Toolbox           |
|  \\    /   O peration     | Version:  v1912                                 |
|   \\  /    A nd           | Website:  www.openfoam.com                      |
|    \\/     M anipulation  |                                                 |
\*---------------------------------------------------------------------------*/
FoamFile
{
    version     2.0;
    format      ascii;
    class       volScalarField;
    location    "0.00037";
    object      iDofMean;
}
// * * * * * * * * * * * * * * * * * * * * * * * * * * * * * * * * * * * * * //

dimensions      [0 -3 0 0 0 0 0];


internalField   nonuniform List<scalar> 
1300
(
3.762162162e+23
4.518918919e+23
9.567567568e+23
2.526486486e+24
1.461621622e+24
1.044324324e+24
1.450810811e+24
1.513513514e+24
1.276756757e+24
1.224864865e+24
4.356756757e+23
4.562162162e+23
1.407567568e+24
4.44e+24
2.138378378e+24
1.318918919e+24
2.257297297e+24
2.211891892e+24
1.685405405e+24
1.566486486e+24
2.237837838e+23
2.627027027e+23
1.264864865e+24
4.553513514e+24
2.076756757e+24
1.251891892e+24
2.422702703e+24
2.761081081e+24
1.941621622e+24
1.831351351e+24
1.491891892e+23
1.491891892e+23
1.115675676e+24
4.334054054e+24
1.954594595e+24
1.221621622e+24
2.487567568e+24
3.236756757e+24
2.114594595e+24
2.052972973e+24
9.621621622e+22
1.297297297e+23
1.194594595e+24
4.274594595e+24
1.903783784e+24
1.006486486e+24
2.344864865e+24
2.941621622e+24
2.287567568e+24
2.111351351e+24
6.810810811e+22
8.324324324e+22
1.090810811e+24
4.290810811e+24
1.846486486e+24
9.794594595e+23
2.2e+24
2.821621622e+24
2.170810811e+24
2.033513514e+24
4.540540541e+22
8.648648649e+22
1.175135135e+24
4.27027027e+24
1.784864865e+24
9.372972973e+23
2.136216216e+24
2.628108108e+24
2.010810811e+24
1.936216216e+24
4.972972973e+22
5.72972973e+22
1.151351351e+24
4.324324324e+24
1.837837838e+24
1e+24
2.16e+24
2.792432432e+24
1.912432432e+24
1.859459459e+24
3.243243243e+22
5.189189189e+22
1.130810811e+24
4.363243243e+24
1.758918919e+24
9.502702703e+23
2.220540541e+24
2.72e+24
1.892972973e+24
1.818378378e+24
2.378378378e+22
4.540540541e+22
1.132972973e+24
4.237837838e+24
1.859459459e+24
9.891891892e+23
2.03027027e+24
2.727567568e+24
1.926486486e+24
1.683243243e+24
2.486486486e+22
3.891891892e+22
1.158918919e+24
4.259459459e+24
1.855135135e+24
9.924324324e+23
2.092972973e+24
2.775135135e+24
1.928648649e+24
1.805405405e+24
1.72972973e+22
4.324324324e+22
1.112432432e+24
4.179459459e+24
1.774054054e+24
9.210810811e+23
2.151351351e+24
2.68e+24
1.868108108e+24
1.818378378e+24
1.297297297e+22
4.216216216e+22
1.052972973e+24
4.265945946e+24
1.789189189e+24
9.47027027e+23
2.04972973e+24
2.714594595e+24
1.907027027e+24
1.781621622e+24
1.189189189e+22
2.918918919e+22
1.155675676e+24
4.257297297e+24
1.829189189e+24
9.567567568e+23
2.062702703e+24
2.678918919e+24
1.913513514e+24
1.739459459e+24
5.405405405e+21
3.135135135e+22
1.130810811e+24
4.194594595e+24
1.852972973e+24
9.513513514e+23
2.059459459e+24
2.772972973e+24
1.952432432e+24
1.732972973e+24
8.648648649e+21
3.459459459e+22
1.196756757e+24
4.246486486e+24
1.767567568e+24
1.042162162e+24
2.096216216e+24
2.663783784e+24
1.947027027e+24
1.755675676e+24
8.648648649e+21
3.135135135e+22
1.125405405e+24
4.187027027e+24
1.774054054e+24
1.041081081e+24
2.112432432e+24
2.563243243e+24
1.971891892e+24
1.743783784e+24
6.486486486e+21
1.837837838e+22
1.16972973e+24
4.297297297e+24
1.770810811e+24
1.001081081e+24
2.07027027e+24
2.712432432e+24
2e+24
1.707027027e+24
5.405405405e+21
3.891891892e+22
1.095135135e+24
4.219459459e+24
1.783783784e+24
9.72972973e+23
2.081081081e+24
2.655135135e+24
1.912432432e+24
1.738378378e+24
3.243243243e+21
2.594594595e+22
1e+24
3.996756757e+24
1.804324324e+24
9.945945946e+23
2.028108108e+24
2.509189189e+24
1.908108108e+24
1.772972973e+24
1.263603869e+24
1.163869093e+24
1.164759592e+24
1.117563676e+24
1.07927264e+24
1.064134337e+24
1.123797099e+24
1.162088115e+24
1.073929715e+24
1.110439764e+24
1.077491662e+24
1.158526169e+24
1.154964213e+24
1.150511759e+24
1.184350349e+24
1.202160129e+24
1.203941097e+24
1.168321548e+24
1.233327244e+24
1.212845987e+24
1.21907942e+24
1.299223429e+24
1.242232123e+24
1.241341645e+24
1.300113917e+24
1.321485642e+24
1.398958195e+24
1.372243525e+24
1.538764953e+24
1.57883697e+24
1.497802472e+24
1.309909286e+24
1.189693283e+24
1.202160129e+24
1.20126963e+24
1.181678883e+24
1.138044922e+24
1.158526159e+24
1.117563676e+24
1.138935411e+24
1.139825891e+24
1.077491671e+24
1.200379151e+24
1.155854692e+24
1.172773993e+24
1.137154433e+24
1.1229066e+24
1.117563676e+24
1.212845997e+24
1.298332929e+24
1.18435035e+24
1.230655777e+24
1.308128308e+24
1.285866094e+24
1.219969909e+24
1.341966889e+24
1.259151424e+24
1.318814186e+24
1.369572047e+24
1.46485438e+24
1.86824589e+24
1.674119277e+24
1.471978292e+24
1.398958195e+24
1.325938087e+24
1.318814186e+24
1.245794089e+24
1.216407943e+24
1.224422354e+24
1.170993015e+24
1.151402248e+24
1.14873079e+24
1.155854702e+24
1.181678873e+24
1.172773993e+24
1.197707684e+24
1.154073714e+24
1.203941107e+24
1.241341645e+24
1.230655767e+24
1.235998711e+24
1.285866094e+24
1.194145718e+24
1.211065019e+24
1.21907942e+24
1.291209017e+24
1.25380849e+24
1.325047609e+24
1.382929382e+24
1.356214724e+24
2.206631704e+24
2.11580181e+24
1.802349705e+24
1.68391467e+24
1.63671874e+24
1.463963891e+24
1.440811177e+24
1.427453831e+24
1.3419669e+24
1.314361741e+24
1.282304127e+24
1.233327244e+24
1.256479957e+24
1.200379141e+24
1.240451156e+24
1.2368892e+24
1.15763567e+24
1.214626975e+24
1.237779689e+24
1.255589458e+24
1.278742182e+24
1.290318539e+24
1.270727771e+24
1.28052316e+24
1.355324235e+24
1.265384837e+24
1.313471252e+24
1.395396239e+24
1.335733466e+24
1.250246534e+24
2.565498765e+24
2.455968599e+24
2.086415691e+24
2.016067061e+24
1.975995041e+24
1.759606234e+24
1.694600538e+24
1.610004071e+24
1.598427727e+24
1.431015798e+24
1.400739161e+24
1.407863085e+24
1.335733477e+24
1.365119602e+24
1.301004407e+24
1.313471252e+24
1.309018797e+24
1.267165825e+24
1.285866094e+24
1.231546256e+24
1.245794089e+24
1.266275336e+24
1.250246524e+24
1.305456851e+24
1.224422354e+24
1.362448135e+24
1.331281032e+24
1.318814186e+24
1.282304127e+24
1.238670178e+24
2.341986029e+24
2.553031898e+24
2.343767008e+24
2.317052338e+24
2.181697994e+24
2.093539603e+24
1.942156475e+24
1.872698319e+24
1.714191295e+24
1.715081784e+24
1.614456516e+24
1.579727459e+24
1.545888877e+24
1.484445125e+24
1.47375927e+24
1.399848684e+24
1.448825566e+24
1.334842988e+24
1.325047609e+24
1.408753562e+24
1.358886191e+24
1.312580763e+24
1.339295422e+24
1.25380849e+24
1.357995701e+24
1.34998129e+24
1.317033208e+24
1.305456851e+24
1.286756572e+24
1.359776679e+24
2.222660505e+24
2.520083806e+24
2.444392263e+24
2.461311553e+24
2.44706371e+24
2.396305858e+24
2.252046642e+24
2.095320563e+24
2.121144761e+24
1.995585815e+24
1.843312183e+24
1.787211392e+24
1.636718754e+24
1.653638031e+24
1.636718754e+24
1.566370124e+24
1.568151089e+24
1.566370124e+24
1.471978292e+24
1.450606544e+24
1.414986996e+24
1.454168512e+24
1.439920676e+24
1.40341064e+24
1.357105213e+24
1.376695959e+24
1.37669597e+24
1.405191618e+24
1.421220408e+24
1.33306201e+24
2.133611607e+24
2.321504764e+24
2.346438474e+24
2.285885224e+24
2.528098207e+24
2.635847394e+24
2.484464267e+24
2.312599874e+24
2.301914025e+24
2.234236862e+24
2.076620295e+24
2.003600215e+24
1.967980656e+24
1.902084455e+24
1.784539925e+24
1.770292101e+24
1.701724436e+24
1.716862762e+24
1.60466115e+24
1.61089456e+24
1.576165503e+24
1.593084793e+24
1.526298107e+24
1.525407631e+24
1.486226115e+24
1.463963879e+24
1.431015798e+24
1.495131005e+24
1.452387522e+24
1.425672864e+24
2.132721118e+24
2.207522175e+24
2.084634713e+24
2.167450188e+24
2.295680583e+24
2.492478668e+24
2.418568082e+24
2.536112607e+24
2.617147126e+24
2.358014831e+24
2.322395253e+24
2.357124342e+24
2.122925739e+24
2.099773008e+24
2.053467598e+24
1.951061365e+24
1.888727121e+24
1.811254595e+24
1.835297797e+24
1.73289155e+24
1.766730145e+24
1.652747555e+24
1.678571722e+24
1.691038582e+24
1.652747555e+24
1.635828251e+24
1.600208705e+24
1.560136701e+24
1.536983975e+24
1.489788071e+24
2.088196669e+24
2.207522175e+24
2.04367222e+24
2.062372488e+24
2.247594179e+24
2.337533585e+24
2.311709404e+24
2.379386547e+24
2.479121333e+24
2.55214143e+24
2.435487353e+24
2.512069426e+24
2.395415369e+24
2.333971609e+24
2.223550995e+24
2.234236862e+24
2.073058339e+24
2.058810532e+24
2.041891242e+24
1.986680908e+24
1.957294788e+24
1.912770339e+24
1.863793429e+24
1.812145084e+24
1.817488018e+24
1.778306488e+24
1.698162494e+24
1.721315207e+24
1.681243189e+24
1.603770661e+24
2.024971951e+24
2.169231149e+24
2.068605911e+24
2.048124665e+24
2.081963229e+24
2.245813219e+24
2.184369479e+24
2.276089826e+24
2.433706395e+24
2.494259646e+24
2.406101217e+24
2.521864804e+24
2.519193337e+24
2.442611265e+24
2.415006126e+24
2.340205052e+24
2.398977305e+24
2.268075444e+24
2.149640409e+24
2.1247067e+24
1.9644187e+24
2.057920043e+24
2.032986335e+24
1.912770339e+24
1.972433101e+24
1.925237169e+24
1.906536916e+24
1.859341e+24
1.785430399e+24
1.817488018e+24
1.992023859e+24
2.146968924e+24
1.992914348e+24
2.023190973e+24
2.042781714e+24
2.172793122e+24
2.085525202e+24
2.177245549e+24
2.326847717e+24
2.336643096e+24
2.395415349e+24
2.511178937e+24
2.520974315e+24
2.463092511e+24
2.485354756e+24
2.577075121e+24
2.392743882e+24
2.303695003e+24
2.406991725e+24
2.319723786e+24
2.264513488e+24
2.191493391e+24
2.161216748e+24
2.146968942e+24
2.127378184e+24
2.068605894e+24
2.023190973e+24
2.003600215e+24
2.05524856e+24
1.971542612e+24
2.030314885e+24
2.138064034e+24
2.051686621e+24
1.92968963e+24
2.052577093e+24
2.142516497e+24
2.077510801e+24
2.027643401e+24
2.261842021e+24
2.249375175e+24
2.209303153e+24
2.465763998e+24
2.43815884e+24
2.500493048e+24
2.635847394e+24
2.610913703e+24
2.456859088e+24
2.510288448e+24
2.496931113e+24
2.455968599e+24
2.348219452e+24
2.380277056e+24
2.347328944e+24
2.226222462e+24
2.203069748e+24
2.183478972e+24
2.199507792e+24
2.128268673e+24
2.143406968e+24
2.14874992e+24
1.969761634e+24
2.154983325e+24
1.988461903e+24
1.983118969e+24
2.015176556e+24
2.081072757e+24
2.016067061e+24
1.953732816e+24
2.112239872e+24
2.156764321e+24
2.091758608e+24
2.195055347e+24
2.373153144e+24
2.274308848e+24
2.542346051e+24
2.443501774e+24
2.545017497e+24
2.609132725e+24
2.51741236e+24
2.501383537e+24
2.545908007e+24
2.42925395e+24
2.460421044e+24
2.451516175e+24
2.283213757e+24
2.386510459e+24
2.301914025e+24
2.246703708e+24
2.33308112e+24
2.224441484e+24
2.052577109e+24
2.129159145e+24
1.990242881e+24
1.972433101e+24
1.986680908e+24
2.051686621e+24
2.026752929e+24
1.992023842e+24
2.063262977e+24
2.019629017e+24
2.003600199e+24
2.138064052e+24
2.238689307e+24
2.10689692e+24
2.301023536e+24
2.371372166e+24
2.391853393e+24
2.54323654e+24
2.519193337e+24
2.527207717e+24
2.545017518e+24
2.501383558e+24
2.496931092e+24
2.456859109e+24
2.524536271e+24
2.398977305e+24
2.351781408e+24
2.422130038e+24
2.311709385e+24
2.361576787e+24
2.023190973e+24
2.157654792e+24
2.003600215e+24
1.985790436e+24
2.049905626e+24
2.180807523e+24
1.943937453e+24
1.980447485e+24
2.10511596e+24
2.091758625e+24
1.94126597e+24
2.047234176e+24
2.058810532e+24
2.069496383e+24
2.168340677e+24
2.243141752e+24
2.311709385e+24
2.363357765e+24
2.400758303e+24
2.496040603e+24
2.56104632e+24
2.569951209e+24
2.612694659e+24
2.478230844e+24
2.547688985e+24
2.565498743e+24
2.421239549e+24
2.458640087e+24
2.470216423e+24
2.441720796e+24
2.037438797e+24
2.057920026e+24
2.097101559e+24
1.92078474e+24
2.0116146e+24
2.047234176e+24
1.992914348e+24
2.017848023e+24
2.020519506e+24
2.101554004e+24
2.024971934e+24
2.080182268e+24
2.158545299e+24
2.016957533e+24
2.121144761e+24
2.134502096e+24
2.138954523e+24
2.196836325e+24
2.29746158e+24
2.449735176e+24
2.475559377e+24
2.457749597e+24
2.612694659e+24
2.581527566e+24
2.584199033e+24
2.559265321e+24
2.629613972e+24
2.526317249e+24
2.541455541e+24
2.575294143e+24
2.019629017e+24
2.10689692e+24
2.007162171e+24
2.00805266e+24
1.972433085e+24
2.167450189e+24
1.997366792e+24
1.960856728e+24
2.115801827e+24
2.004490704e+24
2.075729806e+24
2.031205374e+24
2.134502096e+24
2.101553986e+24
2.144297475e+24
2.13984503e+24
2.207522175e+24
2.207522193e+24
2.208412682e+24
2.242251245e+24
2.352671897e+24
2.326847717e+24
2.426582463e+24
2.45596862e+24
2.592213434e+24
2.48179278e+24
2.661671575e+24
2.609132725e+24
2.580637056e+24
2.56104632e+24
2.021409995e+24
2.148749902e+24
1.99113337e+24
1.927908652e+24
2.000928732e+24
2.111349382e+24
2.000038259e+24
2.000928732e+24
2.03476733e+24
2.049015154e+24
2.049015137e+24
2.001819237e+24
2.103334982e+24
2.025862423e+24
1.984899947e+24
2.136283074e+24
2.058810515e+24
2.208412682e+24
2.134502096e+24
2.256499068e+24
2.260061043e+24
2.276089845e+24
2.409663172e+24
2.352671897e+24
2.512069426e+24
2.514740872e+24
2.548579474e+24
2.56104632e+24
2.571732166e+24
2.724005804e+24
2.012505105e+24
2.03743878e+24
1.958185277e+24
2.018738528e+24
1.931470592e+24
2.022300484e+24
1.974214079e+24
1.935923037e+24
2.058810532e+24
1.939485008e+24
1.946608904e+24
2.012505105e+24
2.015176572e+24
1.99380482e+24
1.977776035e+24
2.029424396e+24
2.036548291e+24
2.046343687e+24
2.065043955e+24
2.098882519e+24
2.163888233e+24
2.171902633e+24
2.209303153e+24
2.291228157e+24
2.329519184e+24
2.389181926e+24
2.35000043e+24
2.483573778e+24
2.543236519e+24
2.524536271e+24
1.302702703e+24
1.256216216e+24
1.276756757e+24
1.321081081e+24
1.265945946e+24
1.187027027e+24
1.142702703e+24
1.096216216e+24
1.027027027e+24
8.637837838e+23
1.589189189e+24
1.615135135e+24
1.486486486e+24
1.476756757e+24
1.471351351e+24
1.496216216e+24
1.44972973e+24
1.363243243e+24
1.217297297e+24
1.03027027e+24
1.377297297e+24
1.389189189e+24
1.455135135e+24
1.435675676e+24
1.354594595e+24
1.395675676e+24
1.337297297e+24
1.326486486e+24
1.166486486e+24
1.014054054e+24
1.318918919e+24
1.352432432e+24
1.404324324e+24
1.380540541e+24
1.32e+24
1.315675676e+24
1.233513514e+24
1.263783784e+24
1.12972973e+24
1.056216216e+24
1.260540541e+24
1.325405405e+24
1.338378378e+24
1.304864865e+24
1.305945946e+24
1.235675676e+24
1.318918919e+24
1.194594595e+24
1.121081081e+24
1.064864865e+24
1.366486486e+24
1.327567568e+24
1.257297297e+24
1.259459459e+24
1.242162162e+24
1.217297297e+24
1.23027027e+24
1.140540541e+24
1.145945946e+24
1.144864865e+24
1.321081081e+24
1.313513514e+24
1.375135135e+24
1.307027027e+24
1.246486486e+24
1.290810811e+24
1.208648649e+24
1.197837838e+24
1.158918919e+24
1.12972973e+24
1.425945946e+24
1.368648649e+24
1.404324324e+24
1.276756757e+24
1.389189189e+24
1.257297297e+24
1.232432432e+24
1.234594595e+24
1.174054054e+24
1.139459459e+24
1.523243243e+24
1.458378378e+24
1.389189189e+24
1.378378378e+24
1.419459459e+24
1.348108108e+24
1.342702703e+24
1.251891892e+24
1.211891892e+24
1.191351351e+24
1.660540541e+24
1.548108108e+24
1.60972973e+24
1.517837838e+24
1.457297297e+24
1.477837838e+24
1.393513514e+24
1.314594595e+24
1.367567568e+24
1.282162162e+24
1.735135135e+24
1.683243243e+24
1.732972973e+24
1.59027027e+24
1.591351351e+24
1.478918919e+24
1.523243243e+24
1.497297297e+24
1.454054054e+24
1.406486486e+24
1.859459459e+24
1.913513514e+24
1.884324324e+24
1.835675676e+24
1.732972973e+24
1.816216216e+24
1.643243243e+24
1.641081081e+24
1.474594595e+24
1.545945946e+24
2.064864865e+24
2.105945946e+24
1.996756757e+24
1.997837838e+24
2.027027027e+24
1.900540541e+24
1.780540541e+24
1.888648649e+24
1.725405405e+24
1.709189189e+24
2.221621622e+24
2.265945946e+24
2.232432432e+24
2.157837838e+24
2.125405405e+24
2.149189189e+24
2.041081081e+24
2.00972973e+24
1.972972973e+24
1.876756757e+24
2.307027027e+24
2.221621622e+24
2.232432432e+24
2.272432432e+24
2.216216216e+24
2.221621622e+24
2.162162162e+24
2.201081081e+24
2.144864865e+24
2.052972973e+24
2.428108108e+24
2.408648649e+24
2.422702703e+24
2.414054054e+24
2.410810811e+24
2.342702703e+24
2.383783784e+24
2.196756757e+24
2.272432432e+24
2.264864865e+24
2.457297297e+24
2.604324324e+24
2.566486486e+24
2.532972973e+24
2.392432432e+24
2.524324324e+24
2.445405405e+24
2.513513514e+24
2.414054054e+24
2.395675676e+24
2.584864865e+24
2.412972973e+24
2.463783784e+24
2.603243243e+24
2.603243243e+24
2.578378378e+24
2.55027027e+24
2.556756757e+24
2.555675676e+24
2.508108108e+24
2.562162162e+24
2.564324324e+24
2.634594595e+24
2.584864865e+24
2.604324324e+24
2.549189189e+24
2.617297297e+24
2.646486486e+24
2.641081081e+24
2.677837838e+24
2.52e+24
2.518918919e+24
2.645405405e+24
2.548108108e+24
2.562162162e+24
2.633513514e+24
2.545945946e+24
2.565405405e+24
2.634594595e+24
2.684324324e+24
1.079261125e+24
1.312441414e+24
1.291048739e+24
1.283561298e+24
1.266447135e+24
1.277143492e+24
1.313511062e+24
1.241845544e+24
1.230079577e+24
1.27928276e+24
1.271795307e+24
1.317789599e+24
1.302814718e+24
1.291048726e+24
1.322068137e+24
1.324207406e+24
1.450424253e+24
1.359505342e+24
1.395872912e+24
1.375549844e+24
1.415126331e+24
1.406569256e+24
1.425822661e+24
1.487861471e+24
1.482513299e+24
1.531716467e+24
1.576641128e+24
1.561666246e+24
1.531716467e+24
1.32527704e+24
1.181527048e+24
1.623552222e+24
1.602603176e+24
1.570132131e+24
1.583749006e+24
1.477956263e+24
1.579559209e+24
1.623552222e+24
1.581654115e+24
1.635074221e+24
1.609935332e+24
1.584796474e+24
1.673829984e+24
1.572227022e+24
1.570132132e+24
1.657070735e+24
1.642406376e+24
1.707348482e+24
1.693731592e+24
1.697921388e+24
1.784860008e+24
1.691636686e+24
1.722012808e+24
1.730392449e+24
1.718870465e+24
1.871798594e+24
1.983876089e+24
1.937788154e+24
1.98387607e+24
1.65183347e+24
1.144182863e+24
1.557730556e+24
1.545416495e+24
1.575175512e+24
1.604934513e+24
1.549521187e+24
1.543364149e+24
1.556704383e+24
1.559782917e+24
1.579280204e+24
1.530023886e+24
1.50539575e+24
1.587489587e+24
1.580306361e+24
1.58851576e+24
1.656243176e+24
1.584411053e+24
1.638798236e+24
1.659321695e+24
1.557730556e+24
1.625457987e+24
1.671635771e+24
1.692159214e+24
1.602882182e+24
1.648033793e+24
1.745520208e+24
1.830692582e+24
1.900472344e+24
1.942545417e+24
1.487950809e+24
1.203871168e+24
1.499558809e+24
1.530736773e+24
1.523696591e+24
1.561914709e+24
1.496541602e+24
1.532748254e+24
1.46838086e+24
1.54984584e+24
1.466369393e+24
1.506598991e+24
1.477432536e+24
1.514644928e+24
1.427145507e+24
1.575995088e+24
1.579012309e+24
1.560908969e+24
1.579012309e+24
1.544817138e+24
1.53274824e+24
1.529731033e+24
1.603150077e+24
1.674557624e+24
1.660477275e+24
1.685620783e+24
1.679586326e+24
1.779154633e+24
1.872688483e+24
1.862631063e+24
1.503581785e+24
1.184312682e+24
1.48507484e+24
1.49690812e+24
1.437741791e+24
1.412103035e+24
1.481130432e+24
1.397311466e+24
1.451547254e+24
1.479158221e+24
1.510713596e+24
1.480144313e+24
1.336172926e+24
1.470283271e+24
1.388436504e+24
1.473241588e+24
1.516630229e+24
1.529449586e+24
1.440700107e+24
1.506769174e+24
1.488033157e+24
1.576782663e+24
1.558046659e+24
1.518602426e+24
1.580727085e+24
1.629046254e+24
1.636935083e+24
1.711879114e+24
1.769073232e+24
1.845003337e+24
1.582699296e+24
1.085223768e+24
1.454702792e+24
1.404407229e+24
1.43439113e+24
1.416981111e+24
1.45276836e+24
1.34153776e+24
1.375390539e+24
1.43052224e+24
1.433423908e+24
1.425686114e+24
1.424718904e+24
1.368619993e+24
1.302848844e+24
1.447932247e+24
1.427620572e+24
1.48758836e+24
1.459538918e+24
1.476948925e+24
1.40924333e+24
1.472112812e+24
1.458571695e+24
1.464375018e+24
1.540785617e+24
1.574638409e+24
1.675229545e+24
1.631704542e+24
1.713918464e+24
1.861903507e+24
1.607523977e+24
1.003145136e+24
1.344802881e+24
1.364732929e+24
1.371376274e+24
1.381815805e+24
1.351446239e+24
1.271726095e+24
1.29070707e+24
1.317280463e+24
1.227120777e+24
1.258439394e+24
1.328669055e+24
1.333414301e+24
1.347650029e+24
1.404593001e+24
1.443504023e+24
1.373274361e+24
1.450147368e+24
1.378968669e+24
1.398898692e+24
1.423573987e+24
1.452045467e+24
1.47102644e+24
1.51752987e+24
1.544103251e+24
1.582065211e+24
1.58775952e+24
1.670326812e+24
1.765231729e+24
1.628568641e+24
9.492457469e+23
1.25851913e+24
1.234298935e+24
1.320932747e+24
1.275286964e+24
1.320001201e+24
1.246409038e+24
1.190516245e+24
1.324658932e+24
1.299507181e+24
1.222188822e+24
1.251998316e+24
1.31254883e+24
1.280876242e+24
1.349810684e+24
1.282739346e+24
1.320001189e+24
1.276218521e+24
1.314411922e+24
1.361920775e+24
1.321864293e+24
1.331179757e+24
1.360057683e+24
1.399182642e+24
1.473706351e+24
1.500721183e+24
1.546366968e+24
1.582697276e+24
1.732676226e+24
1.595738925e+24
8.817489337e+23
1.278718879e+24
1.166213579e+24
1.127797132e+24
1.206459371e+24
1.2137768e+24
1.192739222e+24
1.203715339e+24
1.203715349e+24
1.244875829e+24
1.201885985e+24
1.199141963e+24
1.269572116e+24
1.232985013e+24
1.291524372e+24
1.329026142e+24
1.275060169e+24
1.228411637e+24
1.318964691e+24
1.232985013e+24
1.31256195e+24
1.270486793e+24
1.307073875e+24
1.378418717e+24
1.321708723e+24
1.429640635e+24
1.479947899e+24
1.510132251e+24
1.678432863e+24
1.590623854e+24
8.301293182e+23
1.198476733e+24
1.037661648e+24
1.07449639e+24
1.069105931e+24
1.128400891e+24
1.119416808e+24
1.132892924e+24
1.131994525e+24
1.149064284e+24
1.144572232e+24
1.141877017e+24
1.180508576e+24
1.229921025e+24
1.237108302e+24
1.225428994e+24
1.220038533e+24
1.220936952e+24
1.243397161e+24
1.320660268e+24
1.266755778e+24
1.310777787e+24
1.272146217e+24
1.296403253e+24
1.336831629e+24
1.316168226e+24
1.395228172e+24
1.512021258e+24
1.537176679e+24
1.542567142e+24
)
;

boundaryField
{
    inlet
    {
        type            calculated;
        value           nonuniform List<scalar> 
20
(
3.762162162e+23
4.356756757e+23
2.237837838e+23
1.491891892e+23
9.621621622e+22
6.810810811e+22
4.540540541e+22
4.972972973e+22
3.243243243e+22
2.378378378e+22
2.486486486e+22
1.72972973e+22
1.297297297e+22
1.189189189e+22
5.405405405e+21
8.648648649e+21
8.648648649e+21
6.486486486e+21
5.405405405e+21
3.243243243e+21
)
;
    }
    outlet
    {
        type            calculated;
        value           nonuniform List<scalar> 
70
(
8.637837838e+23
1.03027027e+24
1.014054054e+24
1.056216216e+24
1.064864865e+24
1.144864865e+24
1.12972973e+24
1.139459459e+24
1.191351351e+24
1.282162162e+24
1.406486486e+24
1.545945946e+24
1.709189189e+24
1.876756757e+24
2.052972973e+24
2.264864865e+24
2.395675676e+24
2.508108108e+24
2.677837838e+24
2.684324324e+24
3.243243243e+21
2.594594595e+22
1e+24
3.996756757e+24
1.804324324e+24
9.945945946e+23
2.028108108e+24
2.509189189e+24
1.908108108e+24
1.772972973e+24
2.012505105e+24
2.03743878e+24
1.958185277e+24
2.018738528e+24
1.931470592e+24
2.022300484e+24
1.974214079e+24
1.935923037e+24
2.058810532e+24
1.939485008e+24
1.946608904e+24
2.012505105e+24
2.015176572e+24
1.99380482e+24
1.977776035e+24
2.029424396e+24
2.036548291e+24
2.046343687e+24
2.065043955e+24
2.098882519e+24
2.163888233e+24
2.171902633e+24
2.209303153e+24
2.291228157e+24
2.329519184e+24
2.389181926e+24
2.35000043e+24
2.483573778e+24
2.543236519e+24
2.524536271e+24
2.52e+24
2.518918919e+24
2.645405405e+24
2.548108108e+24
2.562162162e+24
2.633513514e+24
2.545945946e+24
2.565405405e+24
2.634594595e+24
2.684324324e+24
)
;
    }
    wall
    {
        type            calculated;
        value           uniform 8.648648649e-301;
    }
    frontAndBack
    {
        type            empty;
    }
}


// ************************************************************************* //
