/*--------------------------------*- C++ -*----------------------------------*\
| =========                 |                                                 |
| \\      /  F ield         | OpenFOAM: The Open Source CFD Toolbox           |
|  \\    /   O peration     | Version:  v1912                                 |
|   \\  /    A nd           | Website:  www.openfoam.com                      |
|    \\/     M anipulation  |                                                 |
\*---------------------------------------------------------------------------*/
FoamFile
{
    version     2.0;
    format      ascii;
    class       volScalarField;
    location    "0.00037";
    object      internalE;
}
// * * * * * * * * * * * * * * * * * * * * * * * * * * * * * * * * * * * * * //

dimensions      [1 -1 -2 0 0 0 0];


internalField   nonuniform List<scalar> 
1300
(
0
1287.87407
7589.622853
6838.169823
4950.750788
4523.166269
12615.43474
6447.236822
7451.741219
19898.33229
371.0587493
480.2007449
8460.504945
17756.92458
11971.30948
13153.37998
2453.823551
14461.22221
896.3142137
9812.755963
244.8519106
0
5580.12915
17052.88196
10178.91458
9068.125351
4292.512096
7814.633779
8469.135323
9586.214116
0
651.8470974
890.7813542
8198.016635
3510.988315
12213.35872
5350.622166
2755.795619
6693.988738
7297.209769
0
833.932408
353.9201249
7064.286994
8260.866827
2427.094494
3300.507335
4898.311779
6831.942077
7302.144517
0
0
1390.491892
9560.430405
4737.700691
1119.415255
4563.110435
4994.014029
10096.57356
2993.669559
0
0
2119.76899
4870.748659
722.8965056
1002.473754
1982.830506
6966.337872
11759.11914
3719.378542
383.6321783
0
991.3873032
8046.729439
2339.512639
1722.841068
3545.622
3839.246478
2782.664099
5702.392656
0
742.1424892
507.0147237
7382.390287
3180.05322
6120.206993
2757.599125
5641.619378
1447.207172
5149.106493
0
0
4242.415321
5257.018185
1565.509969
2271.457047
3058.856561
5196.050452
5927.051662
1997.769122
0
0
1788.82642
11070.29023
4663.599256
3267.776951
2731.352445
1572.286964
6789.949874
2786.604442
200.4893362
0
1895.1912
7066.168796
1992.194165
1828.35124
2897.941885
7217.129539
7940.746524
8687.956703
0
0
222.0501677
7304.714701
1410.271834
1787.385682
1552.710197
5480.658955
7208.451524
3044.648677
1676.212216
50.98049245
3751.68001
6560.088329
4844.579036
3494.574942
2425.285298
3263.386233
4748.664802
4985.789643
0
0
1060.510053
7229.253213
3425.630281
1116.829861
5100.372624
6314.360711
4132.989203
5737.989963
456.7461039
0
4214.642526
7203.945024
1605.484994
628.8135835
2629.565583
5808.753267
7883.674043
1748.286007
0
0
1040.702697
7329.464189
5601.926716
1164.953376
2828.525434
7351.851311
4768.825885
3476.543062
0
0
1291.174769
8288.618223
7710.737524
2392.054836
4027.862968
7473.014298
5593.438526
5200.224295
0
0
1364.645181
8986.30723
3510.544624
1183.840959
4959.477586
2415.176148
4736.019726
6746.176895
0
0
955.0105377
4887.430478
2362.087058
891.0618379
1682.787773
6309.466887
2902.097977
6080.03514
2434.758389
7928.151585
8727.984654
2450.802028
4638.715361
2712.553075
6409.242728
16533.70927
8066.715663
4210.504625
841.4991358
11829.05394
8810.803264
5155.198343
8588.899305
8629.011026
3739.94687
6477.117952
7022.278428
7358.537314
18870.80907
10067.4792
6960.675403
4836.118658
6475.011959
14852.86898
7825.100837
3014.840586
111.6676151
8184.446439
5407.832259
7322.281931
9120.508802
4570.676403
8793.884772
7038.712803
12080.09554
10530.28595
8665.355221
4117.889143
7515.690513
9016.059959
6364.178255
4521.852718
3053.47951
7449.40913
1771.882798
9402.382947
9289.713676
10442.04547
4833.057343
5077.895763
6458.39278
5742.651221
8693.770324
4853.981735
8548.592161
10325.27633
5984.622966
10238.59129
3806.270057
21423.76572
10835.04158
3618.445125
4027.940175
4945.392062
6218.673143
2318.153207
5160.229172
4139.626875
8847.385814
3565.1793
8002.885527
7688.063782
6687.333189
6069.471041
4788.654385
3957.985529
6795.042315
4190.34845
5897.395012
5894.027246
6760.612699
9986.919806
6090.275776
7283.379291
349.0868247
3103.345053
5262.797728
10403.66055
13000.37595
7474.768844
12656.69546
5504.51556
8974.173678
9437.069165
10610.21218
7815.245467
6689.606697
7779.432221
6754.207324
4093.808382
8593.242582
14752.98689
15643.40737
2639.153949
966.0322485
6753.756052
8899.386831
3837.144464
7334.579758
881.2113104
6911.78314
5919.862582
5675.240823
2508.191334
6959.379244
11290.1998
6363.462092
10389.93487
6159.118031
13223.48841
5896.744396
5355.830729
4138.779075
3593.938482
7686.024335
3758.312965
7817.267806
10732.05416
2658.346062
6571.682725
2441.600973
11249.35986
8917.032003
10624.94296
4164.423774
8443.860743
6013.817017
9521.803891
14959.14346
7711.716006
6462.832327
2614.735832
9144.106355
6318.904356
6939.897589
7741.512765
5610.597723
6520.755308
3502.678213
3664.218496
6427.521784
11144.56169
7543.949643
3221.920223
6924.049443
6159.608214
3865.10338
7003.180668
940.2750579
6860.973232
5682.923256
8561.782084
6657.091986
9152.911015
5378.296706
3056.068566
7756.031984
2990.529727
13559.56209
2522.334821
6662.360746
1083.618426
11359.67635
10492.46027
2240.739537
6866.957806
5001.831051
14799.08231
6425.435603
5163.417511
9561.278289
9502.377055
6156.521763
10088.45216
11087.50391
3156.028042
9074.771786
10252.2804
6535.80807
8940.009224
4779.814771
7203.249834
5963.203652
5019.951754
7779.783693
7258.247791
3378.568622
7807.478414
6101.800881
1359.981473
6485.537883
7676.319922
10521.0696
8128.47082
5307.930482
9266.007353
7613.899996
8507.147033
2365.013017
5630.641557
6602.656364
3376.250359
2430.032673
5899.862468
4040.247843
7091.836776
6046.052241
4488.638314
8348.051187
6250.583231
5355.051579
15809.80216
2753.854063
3738.023779
11768.05014
8247.760924
9523.891674
5654.185445
4338.665518
5684.556175
5652.025781
14053.55539
2554.934941
8190.571453
7052.20088
15485.19067
7606.416071
3189.010194
7317.852641
5439.366333
1052.627605
7042.364267
4658.552678
4361.496696
11053.895
8730.070761
11172.99073
13003.43093
9451.022165
3187.85363
6630.455369
8381.380233
9226.681695
14109.18937
1957.927787
3105.415212
4174.121864
12087.01364
6630.22806
1002.21996
10575.99541
2980.692965
7474.74998
11119.83866
10169.1574
4543.281565
7447.621731
13020.35907
3954.349799
4194.809877
4647.973077
4496.264031
3411.495038
8807.159001
4409.523836
2290.527089
8039.382091
4488.753273
9835.314483
10137.0592
4123.463745
9555.895644
10726.76067
7738.49395
7687.067121
11323.17213
2406.476048
6812.161815
5612.230787
4262.190688
8293.43362
6523.716392
14114.00816
5706.590153
6626.643515
1712.269256
11559.97923
6149.81965
5032.136627
1793.893276
5483.032592
2373.339296
4987.681087
4253.459232
3170.39585
4307.797225
2924.249357
7481.295737
7049.075809
8913.820678
5343.237118
8036.417897
7594.742113
2846.179686
6541.293347
14318.46029
4155.05029
8035.23343
8496.876674
6011.709016
6367.974343
6713.713892
4031.546818
5973.725262
6063.121926
6277.748906
3982.562104
10658.58921
3273.309989
4786.068656
5604.081548
4162.592381
3028.421847
4298.275732
5457.69501
6294.172091
9379.749804
4650.714659
6660.4261
2845.017302
4024.223533
3885.55295
8158.461503
4758.656475
6530.308679
8453.839029
5277.134134
7019.268049
10380.06209
7174.078928
5105.653316
9134.848936
13158.04725
5222.924494
8957.409909
7912.274079
11325.22638
6558.900881
5158.377184
3630.739851
3229.905183
3305.94515
3985.53251
3860.910461
5235.688436
3158.748812
4412.475694
3266.416715
2991.234024
3100.858172
3589.637575
4610.987743
6776.65628
5829.216927
5657.781144
4330.011744
9412.185758
5560.435396
8037.316351
5386.949274
3475.512971
6209.996007
7274.747403
7609.080399
9514.406596
7424.039733
7583.847194
7280.512659
4411.276372
3686.538825
6001.781039
4391.973686
5821.74999
7031.729876
6198.16706
3140.574974
4581.955519
490.9650236
3011.32913
2074.291317
5052.715294
5778.789191
3796.620962
4557.112466
3807.613404
2564.82957
5294.63393
7724.964195
6741.252199
5526.303122
6880.232691
7157.767246
3185.588677
6595.955308
7058.368581
5544.979846
5742.666711
5853.72215
2281.454705
5802.048149
2481.959108
8969.715221
998.9931531
4729.454299
3851.2493
6095.040929
4524.049759
5331.08182
4253.975547
4986.247776
3228.792831
4730.899049
3283.142375
5098.356281
5995.468193
5460.237102
3512.380283
6907.304254
4869.417451
3738.84574
4414.278451
16860.87824
4855.999176
5742.468003
4177.784909
7376.76418
4640.760367
6485.689914
3715.157645
4240.388053
7554.102165
5484.755355
3487.653963
4680.520746
6435.801118
2432.058309
3854.844131
6327.467858
2491.290754
2781.448289
8390.406914
2248.234184
2455.53822
6814.88833
9825.378173
1126.651813
4859.45029
11313.99948
7678.747522
5500.221401
6248.333055
6657.652987
5802.744833
7418.627938
6263.376134
13063.7494
5807.811784
9870.675808
3995.772748
4831.007073
3500.656351
3487.927632
6002.998681
2787.473172
2491.249922
3399.5716
5688.665275
4089.807685
2522.317062
3918.064879
3674.973157
5159.191772
3214.558968
6812.600905
1971.363638
5163.168656
4937.439445
3289.653099
4509.083087
5652.482205
8246.064571
4140.373932
10314.00899
7107.991506
5646.756788
9871.086604
10145.92499
5610.58715
4727.839499
2915.933459
5283.446578
5657.131752
685.3273472
2516.67746
4274.092908
3162.331484
4669.493097
4836.013823
2304.336433
3212.552393
1950.995659
5117.267183
4459.49104
3523.774326
1024.552141
3896.436612
4827.403176
5994.688048
8981.440505
3170.172083
1751.756495
4625.840643
4532.836426
6190.904811
13275.43643
7966.403903
4525.496286
4888.197742
3329.54717
5222.612363
1176.78948
1962.721873
12448.45842
2238.717816
5006.973226
1755.770318
4613.106306
6838.723619
3250.742244
6448.310978
4974.5982
1721.835821
3614.897564
5154.03594
3566.12925
4724.861088
743.105109
5637.922436
6027.129926
8327.364133
6210.737085
1559.056622
8397.041546
3419.557127
6074.965919
8086.44454
8300.855486
1719.515145
4590.99308
5800.780689
7341.979511
3591.957731
6667.564166
2987.853638
1098.547678
4662.196273
4859.251347
4678.068729
3977.584929
3456.648373
3688.699257
5649.453806
3347.816131
4819.097568
3575.083289
6682.276738
1170.869149
7285.045234
3966.386492
2854.638826
4434.746205
3422.075201
5045.449317
6841.803276
7630.852471
3867.153371
3275.019613
5542.704707
1783.036715
1985.835496
3931.341414
4842.167428
4505.006633
13479.07088
8088.819679
4370.192198
3015.306452
7273.803009
2933.646261
5074.444813
4725.030532
4159.25925
13705.80397
9804.452856
3994.972942
7717.545405
6713.157516
1112.03629
8250.367964
4950.383115
2496.885765
7433.65187
7137.07326
2189.364033
2805.378923
6205.433565
4887.919099
5224.153372
16372.67577
4942.072414
2243.61093
3853.559132
16161.97803
7220.161171
7646.477994
3999.764928
6316.262748
1662.768041
16128.87965
1487.312335
14323.47998
5304.273084
3818.333452
9085.480438
4273.745592
7064.104077
4040.178291
3627.810705
5796.553546
4995.849184
9053.714589
13608.04441
6907.49836
2512.992632
4261.839796
1266.925266
3747.288016
4763.774498
1794.952382
11563.95763
7438.911859
3598.901773
5796.866653
1751.055152
4677.729709
1609.625357
6494.790659
7746.149119
12974.28293
5424.474639
0
11328.99831
772.2343949
5309.950542
2780.095831
6431.0046
7713.594866
8160.375113
14880.32325
2797.072526
11601.0158
7701.036978
11337.0886
12325.15204
2386.396983
8775.845294
8820.974005
9729.667308
8536.992983
16405.57842
8099.471737
8199.536618
7422.122078
6115.899432
9097.49926
13127.72498
9971.334983
7272.948765
14019.60236
9980.914551
6952.106834
5228.203193
6335.277728
21339.84862
6014.559896
8418.266274
1882.666641
7284.927363
8477.98149
3054.108397
4030.462033
7262.303349
4496.879603
7279.860653
18838.63367
10545.54408
9412.979028
8832.07399
6862.109952
3990.913302
12691.91969
6092.342695
7396.228352
3333.163294
4699.251662
9309.082354
10431.04303
6456.078266
4877.164382
6664.414495
9912.720462
6854.520063
9686.299572
3230.663995
4355.057756
15332.99721
12879.29277
8877.442564
9688.212342
5009.942561
8100.629557
8433.893628
9713.129633
8199.118721
8716.054087
7342.346613
5119.276807
2355.199955
10296.77185
4918.331972
8849.592529
4460.876425
2723.343992
6756.968817
8184.149024
5971.58863
12437.47357
18309.65105
9906.643406
3512.64358
5838.322107
14234.14943
7231.537052
10182.90245
7355.475168
7378.191338
5241.475024
7134.880065
5729.966838
3773.660129
3164.564214
6038.599424
4285.627675
2171.126477
8740.338113
10256.04158
5344.908525
10060.37001
3604.424393
11148.3169
4659.314452
6566.729895
5444.219148
4987.376619
8441.936458
7411.281228
8172.091669
8347.458192
5548.369098
5570.868528
5399.927097
4161.720794
2276.750355
8570.016447
3848.848216
6761.700966
7631.430323
3290.21232
1997.152331
5342.880876
4576.993663
1907.052528
4732.383539
5551.195292
2158.754229
3732.998848
5281.032376
798.92442
3312.333379
4601.407458
10734.73129
11576.53049
7924.06222
2293.287019
4216.084901
1201.19484
6266.832653
12123.16134
5468.071084
3110.371301
3544.452224
9867.936527
6502.46241
1982.293517
5845.43723
5381.722765
7478.062105
7487.846522
10823.21056
3286.317899
3142.017184
6850.161479
4657.764815
5558.498717
8827.390875
4463.087325
6996.303369
11961.55931
7378.611579
3573.577664
8504.131234
7928.340411
10450.49391
5385.033425
9017.443172
7236.195844
4016.115161
10117.75903
7609.170065
5056.954046
6607.569145
6282.439734
3138.906289
7383.94941
13774.53285
12728.3709
5938.924454
7713.494052
3459.052415
4898.504653
13698.68707
6830.910889
4770.808263
2620.224997
9299.713134
13040.05766
11566.17803
6092.238212
2481.907339
19679.13386
12008.13865
7120.727739
11116.04929
9842.640198
11476.05871
11236.08368
4418.635541
9972.32485
4489.595821
6135.793604
7994.633386
12413.51606
6079.535404
8890.285182
9789.798793
9838.372262
4626.15782
2148.133227
5552.270402
8874.751168
4259.865176
6755.97282
5499.028113
4974.028623
10366.70131
3466.813146
3904.536227
3169.748397
8093.399806
11000.79304
10687.67577
10198.79756
6411.636369
15950.30732
3547.089132
5529.447847
7289.520663
4732.164257
9495.128729
4798.118361
9053.054713
5164.387705
8100.227116
5419.618022
14493.99824
3560.741804
5337.404344
1485.148405
2392.793557
3844.950477
10609.32151
484.9524776
3012.516901
3984.677138
834.8389067
4806.4273
5735.599769
9216.50606
9903.183414
5486.668203
5103.584048
3851.401073
5147.188714
7896.515161
13622.07897
6028.691905
3592.183795
5403.031341
5445.232365
2146.007226
12302.64003
5186.568124
7543.113593
10989.67685
5853.131486
7363.658866
7975.018407
11255.01147
3402.831149
1431.12507
5264.646483
1831.283015
5304.91522
12577.75043
3543.331483
4744.026746
6707.80971
10701.50468
9653.17948
5875.39195
4131.183283
1970.818643
11153.07785
4684.438307
10218.34699
7028.867908
3058.325563
6321.707469
4167.666619
17511.99082
1641.874355
11634.98985
7666.873966
6723.597026
1987.889329
13494.73947
9709.092384
4026.311029
4090.045478
3341.75811
4588.294306
4408.269703
7118.879402
6454.560655
4309.050921
8379.044362
7658.8141
8136.194099
4182.609539
7432.393648
10019.59354
12126.17634
1683.486878
6134.801251
5603.246971
4251.815957
2363.743485
10822.08385
2738.699477
5633.453286
4648.214527
3644.39989
3833.597189
8402.884252
8416.927495
2581.746342
7971.4671
4151.210042
4492.794584
1330.728569
10233.848
2764.600692
3140.69479
14407.63655
6667.134907
4805.303318
12404.70397
11730.16034
4495.941652
7204.70312
13423.4751
9375.371243
5971.929248
2633.243062
4573.762087
4957.911135
13507.50749
11768.933
3237.469311
9438.304582
4330.3583
7462.339915
11232.75393
8682.074582
9881.477877
4079.657498
6731.314966
4565.883202
2391.698675
9353.730388
4546.742272
1088.896457
2941.404671
3511.808641
7139.29805
7688.695078
8211.028997
15177.8534
5297.465273
11395.34899
6239.177303
2751.266552
8570.926192
11867.31986
15102.96212
11243.9631
6175.485156
7537.29134
10412.04368
9604.596511
8047.18819
4883.663438
6189.442303
7067.949575
4961.680953
4666.165907
8787.023733
4495.325358
2987.578035
5147.123821
5418.72209
4588.640248
6746.547329
1595.116508
4427.680755
2842.767804
4589.389217
14328.66384
4071.9684
10685.12243
5204.056847
5350.868876
8370.543493
15891.67588
10189.75982
7880.806819
14893.37368
5987.803411
10192.6865
9285.785567
12762.48613
3744.158472
8371.082636
4466.334891
6027.005837
21212.74397
1636.168773
6225.532725
)
;

boundaryField
{
    inlet
    {
        type            zeroGradient;
    }
    outlet
    {
        type            zeroGradient;
    }
    wall
    {
        type            calculated;
        value           uniform 0;
    }
    frontAndBack
    {
        type            empty;
    }
}


// ************************************************************************* //
