/*--------------------------------*- C++ -*----------------------------------*\
| =========                 |                                                 |
| \\      /  F ield         | OpenFOAM: The Open Source CFD Toolbox           |
|  \\    /   O peration     | Version:  v1912                                 |
|   \\  /    A nd           | Website:  www.openfoam.com                      |
|    \\/     M anipulation  |                                                 |
\*---------------------------------------------------------------------------*/
FoamFile
{
    version     2.0;
    format      ascii;
    class       volVectorField;
    location    "7.54";
    object      U;
}
// * * * * * * * * * * * * * * * * * * * * * * * * * * * * * * * * * * * * * //

dimensions      [0 1 -1 0 0 0 0];


internalField   nonuniform List<vector> 
1900
(
(-0.590814 -6.93831e-07 0)
(0.0192107 -1.59251e-06 0)
(0.103328 3.75838e-06 0)
(0.099472 1.04473e-05 0)
(0.100237 -4.20975e-05 0)
(0.0982895 -6.2803e-05 0)
(0.0970841 -0.000142543 0)
(0.0964802 0.000294707 0)
(0.0968142 0.00297833 0)
(0.088292 0.0119855 0)
(-0.590811 1.29389e-06 0)
(0.0192168 -2.00024e-06 0)
(0.103319 5.19779e-06 0)
(0.0994649 1.9434e-07 0)
(0.100214 -4.86101e-05 0)
(0.0982049 -8.85812e-05 0)
(0.0968316 -4.30826e-05 0)
(0.0963592 0.000236147 0)
(0.0980448 0.00200071 0)
(0.0997666 0.0109207 0)
(-0.59081 -2.86825e-14 0)
(0.0192219 -1.37832e-14 0)
(0.103312 -8.65288e-15 0)
(0.0994558 -2.37499e-14 0)
(0.100186 -1.33734e-14 0)
(0.0981442 3.38568e-15 0)
(0.0967551 2.75925e-14 0)
(0.0965753 -2.71147e-15 0)
(0.0988973 -1.08108e-14 0)
(0.106399 -1.99242e-14 0)
(-0.590811 -1.29389e-06 0)
(0.0192168 2.00024e-06 0)
(0.103319 -5.19779e-06 0)
(0.0994649 -1.9434e-07 0)
(0.100214 4.86101e-05 0)
(0.0982049 8.85812e-05 0)
(0.0968316 4.30826e-05 0)
(0.0963592 -0.000236147 0)
(0.0980448 -0.00200071 0)
(0.0997666 -0.0109207 0)
(-0.590814 6.93831e-07 0)
(0.0192107 1.59251e-06 0)
(0.103328 -3.75838e-06 0)
(0.099472 -1.04473e-05 0)
(0.100237 4.20975e-05 0)
(0.0982895 6.2803e-05 0)
(0.0970841 0.000142543 0)
(0.0964802 -0.000294707 0)
(0.0968142 -0.00297833 0)
(0.088292 -0.0119855 0)
(0.0910444 0.0380379 0)
(0.126969 0.0512493 0)
(0.17412 0.0749955 0)
(0.250129 0.116623 0)
(0.395007 0.173039 0)
(0.113775 0.027095 0)
(0.140221 0.0283524 0)
(0.170955 0.0376603 0)
(0.233821 0.0593852 0)
(0.375188 0.10191 0)
(0.12446 -1.95647e-14 0)
(0.149259 -3.49918e-14 0)
(0.181355 1.13043e-14 0)
(0.244694 -1.15945e-14 0)
(0.385277 -1.15123e-15 0)
(0.113775 -0.027095 0)
(0.140221 -0.0283524 0)
(0.170955 -0.0376603 0)
(0.233821 -0.0593852 0)
(0.375188 -0.10191 0)
(0.0910444 -0.0380379 0)
(0.126969 -0.0512493 0)
(0.17412 -0.0749955 0)
(0.250129 -0.116623 0)
(0.395007 -0.173039 0)
(0.845246 0.0295344 0)
(1.10644 -0.0517674 0)
(1.25996 -0.0836313 0)
(1.34746 -0.0941814 0)
(1.43627 -0.10784 0)
(0.818967 -0.0177401 0)
(1.11896 -0.0481953 0)
(1.29148 -0.0593771 0)
(1.38073 -0.0594413 0)
(1.46172 -0.0791661 0)
(0.815193 -1.41547e-16 0)
(1.12295 3.43671e-15 0)
(1.28681 -1.88864e-15 0)
(1.37208 -4.68535e-17 0)
(1.44968 -2.19684e-15 0)
(0.818967 0.0177401 0)
(1.11896 0.0481953 0)
(1.29148 0.0593771 0)
(1.38073 0.0594413 0)
(1.46172 0.0791661 0)
(0.845246 -0.0295344 0)
(1.10644 0.0517674 0)
(1.25996 0.0836313 0)
(1.34746 0.0941814 0)
(1.43627 0.10784 0)
(1.48622 -0.0285388 0)
(1.52247 0.0209096 0)
(1.53598 0.00842285 0)
(1.54859 -0.00852677 0)
(1.57032 -0.0252145 0)
(1.61433 -0.0446468 0)
(1.63981 -0.0105501 0)
(1.60576 0.0177526 0)
(1.32008 0.00133789 0)
(1.16469 -0.0183246 0)
(1.13426 -0.0361001 0)
(1.07626 -0.0578408 0)
(0.974581 -0.0748071 0)
(0.85554 -0.0760099 0)
(0.73577 -0.0628704 0)
(0.629747 -0.0488527 0)
(0.540877 -0.0362033 0)
(0.455279 -0.0271994 0)
(0.349494 -0.0209126 0)
(0.22291 -0.0156946 0)
(0.142569 -0.0128496 0)
(0.124671 -0.0121582 0)
(0.125312 -0.0118447 0)
(0.12832 -0.0115676 0)
(0.132254 -0.0112878 0)
(0.138705 -0.0111558 0)
(0.148627 -0.0112091 0)
(0.162162 -0.0111311 0)
(0.176078 -0.0112968 0)
(0.189975 -0.011182 0)
(0.20427 -0.0114866 0)
(0.215637 -0.0112488 0)
(0.204092 -0.0116194 0)
(0.0872925 -0.0114784 0)
(-0.0659562 -0.0115461 0)
(-0.130105 -0.0115778 0)
(-0.148824 -0.0115568 0)
(-0.167145 -0.012624 0)
(-0.186178 -0.0166021 0)
(-0.215341 -0.0130017 0)
(1.48828 -0.0256271 0)
(1.49063 0.0056412 0)
(1.50564 0.0148909 0)
(1.51667 0.00647786 0)
(1.54239 -0.0161126 0)
(1.59263 -0.0355577 0)
(1.62411 -0.0161901 0)
(1.58572 0.00518958 0)
(1.33139 0.00185313 0)
(1.16085 -0.00873918 0)
(1.12972 -0.0183185 0)
(1.06717 -0.0288574 0)
(0.965863 -0.0365864 0)
(0.851088 -0.0371143 0)
(0.742213 -0.0296721 0)
(0.640384 -0.0253051 0)
(0.549773 -0.0201033 0)
(0.46214 -0.0139461 0)
(0.353727 -0.0102243 0)
(0.224241 -0.00772739 0)
(0.142778 -0.00642749 0)
(0.124761 -0.00608544 0)
(0.125417 -0.00593011 0)
(0.128428 -0.00578726 0)
(0.132343 -0.00564478 0)
(0.138814 -0.00557903 0)
(0.148758 -0.00560868 0)
(0.162319 -0.00557033 0)
(0.176261 -0.00565299 0)
(0.190184 -0.00559463 0)
(0.204502 -0.00574733 0)
(0.215898 -0.0056224 0)
(0.204429 -0.0058129 0)
(0.0877374 -0.00571977 0)
(-0.0653566 -0.00574257 0)
(-0.12925 -0.00576076 0)
(-0.147641 -0.00575077 0)
(-0.166076 -0.00636882 0)
(-0.186657 -0.00841647 0)
(-0.216662 -0.00650042 0)
(1.48194 -7.70097e-15 0)
(1.48369 2.16412e-14 0)
(1.49357 -5.42816e-14 0)
(1.50207 -1.07664e-13 0)
(1.5283 -1.13067e-13 0)
(1.58411 -1.78673e-13 0)
(1.61224 1.35311e-13 0)
(1.57287 3.25877e-13 0)
(1.32648 2.02178e-13 0)
(1.15521 3.41598e-13 0)
(1.13072 1.27682e-13 0)
(1.07139 1.59557e-13 0)
(0.974716 1.03161e-12 0)
(0.863761 1.13018e-12 0)
(0.755491 3.42468e-13 0)
(0.653028 1.32442e-13 0)
(0.552411 3.64588e-13 0)
(0.459244 4.07148e-13 0)
(0.351831 -5.24966e-13 0)
(0.224475 -9.4927e-13 0)
(0.143052 -3.4614e-13 0)
(0.124831 2.4364e-14 0)
(0.125464 3.63971e-13 0)
(0.128472 9.73913e-13 0)
(0.132349 4.73005e-13 0)
(0.138808 -3.28465e-14 0)
(0.148754 -3.4186e-13 0)
(0.162319 -1.0108e-12 0)
(0.176265 -3.76786e-13 0)
(0.190191 2.34213e-13 0)
(0.204514 -4.73126e-13 0)
(0.21592 -1.61427e-13 0)
(0.204478 3.77379e-13 0)
(0.0878235 5.26049e-13 0)
(-0.0651937 -2.34532e-13 0)
(-0.128894 -1.66864e-13 0)
(-0.146979 5.83546e-13 0)
(-0.165106 1.67659e-13 0)
(-0.185716 -5.71579e-13 0)
(-0.215803 -1.49823e-13 0)
(1.48828 0.0256271 0)
(1.49063 -0.0056412 0)
(1.50564 -0.0148909 0)
(1.51667 -0.00647786 0)
(1.54239 0.0161126 0)
(1.59263 0.0355577 0)
(1.62411 0.0161901 0)
(1.58572 -0.00518958 0)
(1.33139 -0.00185313 0)
(1.16085 0.00873918 0)
(1.12972 0.0183185 0)
(1.06717 0.0288574 0)
(0.965863 0.0365864 0)
(0.851088 0.0371143 0)
(0.742213 0.0296721 0)
(0.640384 0.0253051 0)
(0.549773 0.0201033 0)
(0.46214 0.0139461 0)
(0.353727 0.0102243 0)
(0.224241 0.00772739 0)
(0.142778 0.00642749 0)
(0.124761 0.00608544 0)
(0.125417 0.00593011 0)
(0.128428 0.00578726 0)
(0.132343 0.00564478 0)
(0.138814 0.00557903 0)
(0.148758 0.00560868 0)
(0.162319 0.00557033 0)
(0.176261 0.00565299 0)
(0.190184 0.00559463 0)
(0.204502 0.00574733 0)
(0.215898 0.0056224 0)
(0.204429 0.0058129 0)
(0.0877374 0.00571977 0)
(-0.0653566 0.00574257 0)
(-0.12925 0.00576076 0)
(-0.147641 0.00575077 0)
(-0.166076 0.00636882 0)
(-0.186657 0.00841647 0)
(-0.216662 0.00650042 0)
(1.48622 0.0285388 0)
(1.52247 -0.0209096 0)
(1.53598 -0.00842285 0)
(1.54859 0.00852677 0)
(1.57032 0.0252145 0)
(1.61433 0.0446468 0)
(1.63981 0.0105501 0)
(1.60576 -0.0177526 0)
(1.32008 -0.00133789 0)
(1.16469 0.0183246 0)
(1.13426 0.0361001 0)
(1.07626 0.0578408 0)
(0.974581 0.0748071 0)
(0.85554 0.0760099 0)
(0.73577 0.0628704 0)
(0.629747 0.0488527 0)
(0.540877 0.0362033 0)
(0.455279 0.0271994 0)
(0.349494 0.0209126 0)
(0.22291 0.0156946 0)
(0.142569 0.0128496 0)
(0.124671 0.0121582 0)
(0.125312 0.0118447 0)
(0.12832 0.0115676 0)
(0.132254 0.0112878 0)
(0.138705 0.0111558 0)
(0.148627 0.0112091 0)
(0.162162 0.0111311 0)
(0.176078 0.0112968 0)
(0.189975 0.011182 0)
(0.20427 0.0114866 0)
(0.215637 0.0112488 0)
(0.204092 0.0116194 0)
(0.0872925 0.0114784 0)
(-0.0659562 0.0115461 0)
(-0.130105 0.0115778 0)
(-0.148824 0.0115568 0)
(-0.167145 0.012624 0)
(-0.186178 0.0166021 0)
(-0.215341 0.0130017 0)
(1.54803 -0.0226764 0)
(1.55958 -0.0184403 0)
(1.57273 0.00144538 0)
(1.57143 0.0103709 0)
(1.58328 0.0412386 0)
(1.6113 0.0675091 0)
(1.59782 0.0185439 0)
(1.53639 -0.0290246 0)
(1.24324 0.0171503 0)
(1.14069 0.0453313 0)
(1.10519 0.080339 0)
(1.0404 0.124667 0)
(0.937401 0.160168 0)
(0.827927 0.159766 0)
(0.72404 0.13325 0)
(0.628269 0.101967 0)
(0.540648 0.0758428 0)
(0.453943 0.0580121 0)
(0.346374 0.044489 0)
(0.219007 0.0329028 0)
(0.140993 0.0267331 0)
(0.124301 0.025186 0)
(0.125012 0.0245237 0)
(0.128069 0.0239486 0)
(0.132134 0.0234801 0)
(0.138697 0.0231963 0)
(0.148672 0.0232795 0)
(0.162215 0.0231068 0)
(0.17614 0.0234464 0)
(0.190051 0.0232153 0)
(0.204365 0.0238305 0)
(0.21577 0.0234024 0)
(0.204147 0.0241345 0)
(0.0874459 0.0240397 0)
(-0.0655638 0.0242419 0)
(-0.129801 0.0241576 0)
(-0.148446 0.024667 0)
(-0.167283 0.0252745 0)
(-0.183773 0.0318976 0)
(-0.210904 0.0261416 0)
(1.55086 0.122193 0)
(1.55634 0.109111 0)
(1.55898 0.118813 0)
(1.5503 0.0942118 0)
(1.55485 0.115252 0)
(1.54039 0.132294 0)
(1.4908 0.0681986 0)
(1.37536 0.023426 0)
(1.12869 0.0249974 0)
(1.06848 0.0546808 0)
(1.01914 0.123539 0)
(0.937379 0.213341 0)
(0.833924 0.26857 0)
(0.744105 0.25973 0)
(0.665774 0.217202 0)
(0.58992 0.168847 0)
(0.514505 0.130297 0)
(0.433863 0.102241 0)
(0.328306 0.0781744 0)
(0.206218 0.0576016 0)
(0.13705 0.0475427 0)
(0.123289 0.0449716 0)
(0.12426 0.0438158 0)
(0.127352 0.042897 0)
(0.131738 0.0421601 0)
(0.138662 0.0416664 0)
(0.14883 0.0417993 0)
(0.162401 0.0414643 0)
(0.176342 0.0420525 0)
(0.190293 0.0416454 0)
(0.20466 0.0427014 0)
(0.216173 0.0420296 0)
(0.204435 0.0432562 0)
(0.0880337 0.0432568 0)
(-0.0643389 0.0436424 0)
(-0.128735 0.0429821 0)
(-0.146918 0.0451497 0)
(-0.167369 0.0437416 0)
(-0.182588 0.0535084 0)
(-0.208857 0.0467127 0)
(1.52045 0.212026 0)
(1.51455 0.216907 0)
(1.50868 0.226902 0)
(1.51238 0.209049 0)
(1.53334 0.196128 0)
(1.48488 0.172086 0)
(1.43359 0.116019 0)
(1.2764 0.0726835 0)
(1.12067 0.0821381 0)
(1.01622 0.12498 0)
(0.917429 0.216824 0)
(0.806142 0.327575 0)
(0.712762 0.361768 0)
(0.651675 0.331499 0)
(0.598396 0.276456 0)
(0.540905 0.220771 0)
(0.478601 0.175824 0)
(0.404622 0.139913 0)
(0.301543 0.106907 0)
(0.18846 0.0797589 0)
(0.131792 0.0676328 0)
(0.121773 0.0643723 0)
(0.12312 0.0628167 0)
(0.126313 0.0615489 0)
(0.13111 0.0605831 0)
(0.138518 0.0599131 0)
(0.148991 0.0601048 0)
(0.162629 0.0595943 0)
(0.176595 0.060407 0)
(0.190593 0.0598507 0)
(0.205022 0.0612866 0)
(0.216664 0.0604674 0)
(0.204789 0.0620825 0)
(0.088827 0.0622062 0)
(-0.0627573 0.0627692 0)
(-0.12737 0.0614331 0)
(-0.145194 0.0657691 0)
(-0.167149 0.062002 0)
(-0.182287 0.0735543 0)
(-0.208149 0.0666247 0)
(1.44459 0.265362 0)
(1.44719 0.270031 0)
(1.45107 0.285135 0)
(1.46654 0.273255 0)
(1.46992 0.253869 0)
(1.40512 0.231286 0)
(1.33855 0.169383 0)
(1.20063 0.136917 0)
(1.04872 0.158218 0)
(0.911225 0.223033 0)
(0.783958 0.354677 0)
(0.669098 0.436371 0)
(0.603222 0.428207 0)
(0.566456 0.381614 0)
(0.531711 0.319677 0)
(0.489016 0.260837 0)
(0.437614 0.212253 0)
(0.368562 0.170484 0)
(0.268167 0.130479 0)
(0.168541 0.0995698 0)
(0.126337 0.0870984 0)
(0.120017 0.0834558 0)
(0.121657 0.0815259 0)
(0.125014 0.0799028 0)
(0.130282 0.0787473 0)
(0.138228 0.0779374 0)
(0.149055 0.0782105 0)
(0.162774 0.0775235 0)
(0.176759 0.0785375 0)
(0.190801 0.0778579 0)
(0.205284 0.0796028 0)
(0.217049 0.0787183 0)
(0.205003 0.0806253 0)
(0.0894232 0.0809281 0)
(-0.0615414 0.081783 0)
(-0.126674 0.0799861 0)
(-0.144275 0.0863274 0)
(-0.167305 0.0808682 0)
(-0.182535 0.0932194 0)
(-0.208224 0.0863121 0)
(1.34866 0.337582 0)
(1.34958 0.342852 0)
(1.34804 0.348405 0)
(1.35691 0.32509 0)
(1.33253 0.298788 0)
(1.2764 0.257535 0)
(1.18696 0.211431 0)
(1.0554 0.221126 0)
(0.899944 0.268444 0)
(0.748607 0.383791 0)
(0.617538 0.489962 0)
(0.536652 0.506894 0)
(0.506518 0.473604 0)
(0.491183 0.412978 0)
(0.46911 0.346119 0)
(0.436629 0.287652 0)
(0.392989 0.238609 0)
(0.326529 0.193032 0)
(0.229921 0.148072 0)
(0.148363 0.116916 0)
(0.120636 0.105851 0)
(0.117693 0.102154 0)
(0.119707 0.0998739 0)
(0.123462 0.0979274 0)
(0.129372 0.0966138 0)
(0.137992 0.0956872 0)
(0.149281 0.096054 0)
(0.163155 0.0951849 0)
(0.17722 0.0963765 0)
(0.191363 0.0955967 0)
(0.20596 0.0975762 0)
(0.21792 0.0966582 0)
(0.205843 0.0987775 0)
(0.0911485 0.099179 0)
(-0.0586434 0.10024 0)
(-0.123928 0.0979715 0)
(-0.140916 0.106166 0)
(-0.164514 0.0995849 0)
(-0.179487 0.11241 0)
(-0.205189 0.105475 0)
(1.21543 0.398146 0)
(1.21372 0.397127 0)
(1.2038 0.380929 0)
(1.18651 0.348879 0)
(1.15059 0.322846 0)
(1.09017 0.307435 0)
(0.985918 0.313566 0)
(0.840356 0.347635 0)
(0.672834 0.429654 0)
(0.536653 0.537667 0)
(0.454382 0.571164 0)
(0.427847 0.553077 0)
(0.427681 0.497758 0)
(0.42474 0.42654 0)
(0.409982 0.36186 0)
(0.385353 0.307049 0)
(0.346575 0.258542 0)
(0.280019 0.209398 0)
(0.190616 0.161817 0)
(0.131612 0.133809 0)
(0.116206 0.124433 0)
(0.115403 0.12061 0)
(0.117541 0.117869 0)
(0.121694 0.115629 0)
(0.128194 0.114197 0)
(0.137392 0.113193 0)
(0.149038 0.113672 0)
(0.16297 0.112623 0)
(0.177008 0.113976 0)
(0.191154 0.113121 0)
(0.205769 0.115268 0)
(0.21777 0.11435 0)
(0.205422 0.116619 0)
(0.0908814 0.117171 0)
(-0.0582824 0.118526 0)
(-0.124232 0.116137 0)
(-0.141132 0.125873 0)
(-0.165592 0.118348 0)
(-0.180488 0.131593 0)
(-0.206365 0.124519 0)
(1.03547 0.443979 0)
(1.02821 0.434498 0)
(1.00253 0.424201 0)
(0.969977 0.407919 0)
(0.919965 0.397171 0)
(0.835458 0.402586 0)
(0.702596 0.430938 0)
(0.541658 0.495397 0)
(0.414756 0.592013 0)
(0.352534 0.628294 0)
(0.337644 0.612 0)
(0.35022 0.562116 0)
(0.36351 0.493546 0)
(0.364497 0.427488 0)
(0.35518 0.369576 0)
(0.336194 0.319082 0)
(0.298277 0.270203 0)
(0.22982 0.217238 0)
(0.153868 0.171262 0)
(0.117662 0.149739 0)
(0.111218 0.142432 0)
(0.112113 0.138575 0)
(0.114895 0.13541 0)
(0.119905 0.132942 0)
(0.127356 0.131414 0)
(0.137437 0.130335 0)
(0.149692 0.130908 0)
(0.16389 0.129663 0)
(0.178087 0.131168 0)
(0.1924 0.130246 0)
(0.207168 0.132503 0)
(0.219384 0.131567 0)
(0.207166 0.133965 0)
(0.093939 0.1347 0)
(-0.0539792 0.136346 0)
(-0.120345 0.133812 0)
(-0.136801 0.144885 0)
(-0.161906 0.136818 0)
(-0.176608 0.150392 0)
(-0.202911 0.143152 0)
(0.800893 0.478107 0)
(0.777589 0.479189 0)
(0.744078 0.473667 0)
(0.698057 0.459194 0)
(0.617369 0.469254 0)
(0.496604 0.510915 0)
(0.359982 0.577657 0)
(0.26433 0.649648 0)
(0.234668 0.673281 0)
(0.239369 0.653667 0)
(0.264192 0.606832 0)
(0.290116 0.546486 0)
(0.303819 0.48479 0)
(0.308124 0.426726 0)
(0.304547 0.375291 0)
(0.287858 0.327471 0)
(0.246357 0.276083 0)
(0.178925 0.22099 0)
(0.125576 0.182075 0)
(0.108985 0.166555 0)
(0.107367 0.160169 0)
(0.108803 0.155842 0)
(0.111997 0.152155 0)
(0.117669 0.149531 0)
(0.125799 0.147999 0)
(0.136439 0.146929 0)
(0.149035 0.147639 0)
(0.163238 0.146255 0)
(0.177414 0.147903 0)
(0.191745 0.14696 0)
(0.206552 0.149305 0)
(0.21881 0.148349 0)
(0.206435 0.150805 0)
(0.0937082 0.151586 0)
(-0.0530475 0.153623 0)
(-0.119678 0.151265 0)
(-0.135492 0.163693 0)
(-0.161212 0.155249 0)
(-0.175606 0.169218 0)
(-0.202277 0.161825 0)
(0.490894 0.491343 0)
(0.450514 0.510283 0)
(0.418963 0.504821 0)
(0.354374 0.535702 0)
(0.260698 0.58668 0)
(0.171995 0.6472 0)
(0.121439 0.691136 0)
(0.119286 0.696774 0)
(0.144245 0.674519 0)
(0.179628 0.632987 0)
(0.212465 0.58197 0)
(0.235564 0.526729 0)
(0.250419 0.471547 0)
(0.259238 0.421126 0)
(0.258549 0.374817 0)
(0.238992 0.326841 0)
(0.191717 0.271408 0)
(0.133979 0.2197 0)
(0.105203 0.192608 0)
(0.100875 0.182213 0)
(0.102293 0.176698 0)
(0.104769 0.172049 0)
(0.109142 0.168103 0)
(0.116066 0.165452 0)
(0.125359 0.163959 0)
(0.136931 0.162873 0)
(0.150151 0.163697 0)
(0.164572 0.162228 0)
(0.17892 0.16394 0)
(0.193357 0.162991 0)
(0.208233 0.165378 0)
(0.220563 0.164373 0)
(0.208342 0.166892 0)
(0.0971366 0.167816 0)
(-0.048315 0.170284 0)
(-0.115609 0.168086 0)
(-0.131095 0.181667 0)
(-0.157647 0.173164 0)
(-0.171884 0.187582 0)
(-0.199127 0.180158 0)
(0.128492 0.526076 0)
(0.116011 0.561424 0)
(0.101296 0.587121 0)
(0.0660622 0.63048 0)
(0.0321539 0.671818 0)
(0.0191533 0.697782 0)
(0.0325399 0.697999 0)
(0.0642137 0.679194 0)
(0.0998951 0.646012 0)
(0.134883 0.604134 0)
(0.162969 0.556338 0)
(0.184428 0.506658 0)
(0.2028 0.459853 0)
(0.214411 0.416121 0)
(0.212035 0.371293 0)
(0.185617 0.319874 0)
(0.137875 0.264033 0)
(0.102503 0.224209 0)
(0.0941262 0.206673 0)
(0.0952658 0.198277 0)
(0.0974942 0.192311 0)
(0.100495 0.187203 0)
(0.105641 0.183264 0)
(0.113327 0.180797 0)
(0.123293 0.179557 0)
(0.135352 0.178626 0)
(0.148865 0.17968 0)
(0.163287 0.178258 0)
(0.177703 0.180009 0)
(0.192165 0.179122 0)
(0.207065 0.181525 0)
(0.219379 0.180478 0)
(0.207101 0.183007 0)
(0.0967517 0.184176 0)
(-0.0472733 0.18731 0)
(-0.114772 0.185215 0)
(-0.129361 0.199658 0)
(-0.156271 0.191164 0)
(-0.169876 0.20598 0)
(-0.197131 0.198652 0)
(-0.0670016 0.542028 0)
(-0.0512292 0.568502 0)
(-0.0456586 0.60152 0)
(-0.0404789 0.634335 0)
(-0.0321779 0.662586 0)
(-0.0182147 0.679362 0)
(0.000740812 0.672925 0)
(0.0293648 0.650314 0)
(0.0610622 0.615702 0)
(0.0911126 0.574012 0)
(0.117658 0.529375 0)
(0.14226 0.485843 0)
(0.163808 0.445206 0)
(0.173523 0.404367 0)
(0.16333 0.358657 0)
(0.129992 0.305033 0)
(0.0943879 0.256657 0)
(0.0814904 0.230846 0)
(0.0835969 0.219622 0)
(0.0876578 0.212998 0)
(0.0914876 0.207393 0)
(0.0962878 0.202484 0)
(0.103294 0.198802 0)
(0.11262 0.196504 0)
(0.123958 0.19539 0)
(0.136976 0.194437 0)
(0.15108 0.19558 0)
(0.165687 0.194177 0)
(0.180278 0.195817 0)
(0.194753 0.194938 0)
(0.209614 0.19725 0)
(0.221924 0.196064 0)
(0.210032 0.198555 0)
(0.102009 0.199844 0)
(-0.0405704 0.20322 0)
(-0.108625 0.201021 0)
(-0.12252 0.215874 0)
(-0.149818 0.207517 0)
(-0.162968 0.222851 0)
(-0.190705 0.216026 0)
(-0.101064 0.525509 0)
(-0.0799076 0.542817 0)
(-0.0677028 0.575446 0)
(-0.0478659 0.606312 0)
(-0.0310629 0.637435 0)
(-0.0263952 0.65191 0)
(-0.0191087 0.642986 0)
(0.0011075 0.616272 0)
(0.0281959 0.580384 0)
(0.0544556 0.54056 0)
(0.0808626 0.50301 0)
(0.105488 0.468529 0)
(0.123729 0.433211 0)
(0.126837 0.392136 0)
(0.111207 0.33972 0)
(0.0827605 0.285069 0)
(0.0668662 0.254517 0)
(0.0697611 0.242076 0)
(0.075991 0.233411 0)
(0.0814872 0.225807 0)
(0.0861966 0.219188 0)
(0.0918634 0.213667 0)
(0.0996837 0.209645 0)
(0.109843 0.207211 0)
(0.121903 0.206079 0)
(0.135466 0.204936 0)
(0.149874 0.20603 0)
(0.164721 0.204436 0)
(0.179381 0.2058 0)
(0.193919 0.204711 0)
(0.208828 0.206904 0)
(0.221019 0.20541 0)
(0.209139 0.207502 0)
(0.102356 0.207596 0)
(-0.0383503 0.210508 0)
(-0.105705 0.209603 0)
(-0.118277 0.227938 0)
(-0.146166 0.222068 0)
(-0.158606 0.239249 0)
(-0.186189 0.233905 0)
(-0.0991743 0.511171 0)
(-0.0749474 0.521552 0)
(-0.0607195 0.552538 0)
(-0.0374267 0.580091 0)
(-0.017457 0.606526 0)
(-0.02478 0.620477 0)
(-0.0373147 0.608551 0)
(-0.0309777 0.579173 0)
(-0.0099229 0.54553 0)
(0.0150324 0.51073 0)
(0.0442717 0.47843 0)
(0.0711038 0.443949 0)
(0.0873459 0.401339 0)
(0.0833586 0.349528 0)
(0.0628453 0.304401 0)
(0.0477052 0.275559 0)
(0.0498612 0.253778 0)
(0.0583629 0.238559 0)
(0.0666396 0.227443 0)
(0.073227 0.217905 0)
(0.0794353 0.209245 0)
(0.0870348 0.201541 0)
(0.0968398 0.195267 0)
(0.108593 0.190663 0)
(0.121824 0.187722 0)
(0.136114 0.184807 0)
(0.151103 0.184858 0)
(0.166075 0.182027 0)
(0.180827 0.182437 0)
(0.195461 0.180507 0)
(0.210507 0.182684 0)
(0.22238 0.180749 0)
(0.210154 0.18218 0)
(0.104865 0.180417 0)
(-0.0306871 0.185311 0)
(-0.0957756 0.192754 0)
(-0.103738 0.221567 0)
(-0.133701 0.226511 0)
(-0.1463 0.250797 0)
(-0.176009 0.250043 0)
(-0.0858631 0.495433 0)
(-0.0591418 0.499538 0)
(-0.0446304 0.524225 0)
(-0.0220702 0.546873 0)
(-0.00724496 0.565753 0)
(-0.0270753 0.574961 0)
(-0.0582545 0.55797 0)
(-0.0598212 0.526491 0)
(-0.03786 0.495665 0)
(-0.00988237 0.461625 0)
(0.0180403 0.426161 0)
(0.037209 0.386533 0)
(0.0382523 0.343338 0)
(0.0243638 0.295427 0)
(0.0144243 0.24463 0)
(0.0201948 0.206314 0)
(0.032541 0.181282 0)
(0.0433792 0.16046 0)
(0.0530132 0.141986 0)
(0.0610541 0.125641 0)
(0.0687016 0.111061 0)
(0.0778924 0.0980263 0)
(0.0893193 0.0873235 0)
(0.102775 0.079104 0)
(0.117502 0.073407 0)
(0.132675 0.0676316 0)
(0.148692 0.0661945 0)
(0.163823 0.0613233 0)
(0.179191 0.0606439 0)
(0.19459 0.0577113 0)
(0.210241 0.0605608 0)
(0.221327 0.0585731 0)
(0.20799 0.0604254 0)
(0.108202 0.0643979 0)
(-0.0106556 0.086884 0)
(-0.0692866 0.120055 0)
(-0.0710096 0.172252 0)
(-0.105832 0.204539 0)
(-0.12174 0.250938 0)
(-0.159112 0.265781 0)
(-0.0600125 0.479456 0)
(-0.0344744 0.475044 0)
(-0.0227214 0.483049 0)
(-0.0070976 0.489282 0)
(0.00243665 0.488817 0)
(-0.026278 0.48158 0)
(-0.0782644 0.456882 0)
(-0.0940879 0.416935 0)
(-0.072528 0.380043 0)
(-0.0526078 0.337984 0)
(-0.0336729 0.292229 0)
(-0.0254949 0.237796 0)
(-0.0233677 0.178637 0)
(-0.0221067 0.125082 0)
(-0.0140547 0.0863379 0)
(-0.00236982 0.059524 0)
(0.0123685 0.0391083 0)
(0.0253709 0.0200654 0)
(0.0373115 0.00291353 0)
(0.0474963 -0.0117098 0)
(0.056971 -0.0243111 0)
(0.0682208 -0.0352333 0)
(0.0818046 -0.0433228 0)
(0.0968603 -0.0491308 0)
(0.112956 -0.0525404 0)
(0.129166 -0.0568152 0)
(0.146123 -0.0565847 0)
(0.162062 -0.0598926 0)
(0.178268 -0.059206 0)
(0.194658 -0.0608002 0)
(0.211109 -0.056709 0)
(0.222636 -0.0570337 0)
(0.21094 -0.0519986 0)
(0.128335 -0.0341834 0)
(0.0299442 0.00557436 0)
(-0.0217411 0.0531316 0)
(-0.0195049 0.113866 0)
(-0.0537635 0.163132 0)
(-0.0748709 0.232291 0)
(-0.121312 0.269241 0)
(-0.050028 0.45652 0)
(-0.0374159 0.43128 0)
(-0.0321603 0.402641 0)
(-0.0212872 0.369637 0)
(-0.01066 0.332894 0)
(-0.0444797 0.297415 0)
(-0.104384 0.265995 0)
(-0.126685 0.232494 0)
(-0.107456 0.203956 0)
(-0.0917778 0.166362 0)
(-0.0720797 0.12469 0)
(-0.0641261 0.0788584 0)
(-0.0580248 0.0388572 0)
(-0.0479871 0.00994383 0)
(-0.0326302 -0.00957177 0)
(-0.0156586 -0.0254535 0)
(-0.00084044 -0.040035 0)
(0.0137625 -0.0538106 0)
(0.0258395 -0.0663362 0)
(0.0368576 -0.0765986 0)
(0.0481438 -0.0854197 0)
(0.0608574 -0.0936397 0)
(0.0753765 -0.0996579 0)
(0.0908986 -0.103979 0)
(0.106995 -0.106072 0)
(0.123574 -0.109821 0)
(0.140689 -0.109171 0)
(0.157071 -0.112022 0)
(0.17362 -0.111422 0)
(0.190295 -0.112987 0)
(0.206989 -0.109274 0)
(0.219895 -0.109372 0)
(0.213703 -0.102792 0)
(0.155984 -0.0815555 0)
(0.0767023 -0.036221 0)
(0.027061 0.0131766 0)
(0.0357057 0.0771493 0)
(0.00652752 0.144965 0)
(-0.00862803 0.229492 0)
(-0.0541055 0.270504 0)
(-0.063747 0.436688 0)
(-0.072419 0.389593 0)
(-0.0748377 0.335704 0)
(-0.0739734 0.293378 0)
(-0.0616593 0.243508 0)
(-0.0933771 0.199492 0)
(-0.142385 0.163363 0)
(-0.162997 0.134946 0)
(-0.1491 0.112603 0)
(-0.135432 0.0811967 0)
(-0.118912 0.0512896 0)
(-0.107741 0.0218775 0)
(-0.0932077 -0.000713662 0)
(-0.0759373 -0.0185331 0)
(-0.0562633 -0.0328759 0)
(-0.0373496 -0.0473998 0)
(-0.0189064 -0.0618463 0)
(-0.0025941 -0.0757426 0)
(0.0125378 -0.0879302 0)
(0.0273097 -0.0972708 0)
(0.0415627 -0.105044 0)
(0.0561955 -0.112469 0)
(0.0729585 -0.118115 0)
(0.0912964 -0.12186 0)
(0.109931 -0.122996 0)
(0.128522 -0.126327 0)
(0.147194 -0.125021 0)
(0.165244 -0.126944 0)
(0.183085 -0.125757 0)
(0.200831 -0.126486 0)
(0.218112 -0.122173 0)
(0.2334 -0.121132 0)
(0.234092 -0.111086 0)
(0.198511 -0.0860282 0)
(0.135352 -0.0360628 0)
(0.0890755 0.0187698 0)
(0.0999059 0.0865588 0)
(0.0806645 0.153065 0)
(0.0713134 0.229302 0)
(0.0229553 0.264512 0)
(-0.085278 0.443367 0)
(-0.132983 0.399494 0)
(-0.141138 0.30649 0)
(-0.120222 0.234528 0)
(-0.100571 0.172366 0)
(-0.114995 0.124664 0)
(-0.150304 0.0863252 0)
(-0.165068 0.0589115 0)
(-0.156069 0.0407426 0)
(-0.14534 0.0173088 0)
(-0.13019 -0.0014433 0)
(-0.116202 -0.0203563 0)
(-0.0986965 -0.0351848 0)
(-0.0804805 -0.0495967 0)
(-0.0607902 -0.0627673 0)
(-0.042485 -0.0766598 0)
(-0.0253126 -0.0902111 0)
(-0.00996442 -0.102534 0)
(0.00430422 -0.112369 0)
(0.0185484 -0.118634 0)
(0.0338255 -0.123624 0)
(0.0496879 -0.13051 0)
(0.0658744 -0.137704 0)
(0.0829434 -0.142659 0)
(0.100628 -0.144339 0)
(0.118365 -0.148384 0)
(0.136716 -0.147597 0)
(0.154703 -0.149956 0)
(0.172747 -0.149361 0)
(0.190726 -0.150463 0)
(0.208204 -0.146684 0)
(0.22465 -0.14617 0)
(0.233579 -0.137334 0)
(0.220948 -0.116192 0)
(0.181718 -0.0702352 0)
(0.155457 -0.00980623 0)
(0.161007 0.0663043 0)
(0.173512 0.160266 0)
(0.161669 0.285749 0)
(0.070338 0.335106 0)
(-0.478167 0.377721 0)
(-0.283497 0.416495 0)
(-0.251681 0.295573 0)
(-0.191244 0.22391 0)
(-0.177707 0.153335 0)
(-0.18004 0.0962395 0)
(-0.202311 0.0501815 0)
(-0.204841 0.0207798 0)
(-0.191431 0.00711529 0)
(-0.176807 -0.0111372 0)
(-0.157499 -0.0227589 0)
(-0.139892 -0.0370756 0)
(-0.120498 -0.0493104 0)
(-0.101691 -0.0630135 0)
(-0.0824755 -0.0767858 0)
(-0.0644036 -0.0913595 0)
(-0.0470212 -0.105481 0)
(-0.0302069 -0.118131 0)
(-0.0133668 -0.128122 0)
(0.00477107 -0.135287 0)
(0.0260795 -0.142206 0)
(0.0494901 -0.14875 0)
(0.0713039 -0.154198 0)
(0.0911958 -0.158098 0)
(0.110279 -0.159093 0)
(0.128767 -0.162929 0)
(0.147615 -0.161791 0)
(0.166128 -0.163603 0)
(0.184675 -0.162579 0)
(0.203147 -0.162999 0)
(0.221032 -0.158785 0)
(0.238504 -0.15725 0)
(0.252352 -0.148184 0)
(0.257386 -0.129808 0)
(0.243493 -0.0897558 0)
(0.235736 -0.0256586 0)
(0.234339 0.0543165 0)
(0.293115 0.14437 0)
(0.317047 0.308653 0)
(0.444535 0.320904 0)
(-0.878708 0.926413 0)
(-0.331547 0.556488 0)
(-0.302715 0.222341 0)
(-0.222972 0.190082 0)
(-0.214553 0.115605 0)
(-0.207126 0.0413788 0)
(-0.217708 -0.00961717 0)
(-0.213939 -0.0370904 0)
(-0.198669 -0.0481582 0)
(-0.182946 -0.0629424 0)
(-0.163022 -0.069429 0)
(-0.144222 -0.0791639 0)
(-0.123868 -0.0877629 0)
(-0.104573 -0.0990413 0)
(-0.0858941 -0.111702 0)
(-0.0678418 -0.125435 0)
(-0.0500077 -0.138887 0)
(-0.0320922 -0.150732 0)
(-0.0137184 -0.159923 0)
(0.00537732 -0.166755 0)
(0.0245804 -0.174303 0)
(0.0443724 -0.17991 0)
(0.0639439 -0.183447 0)
(0.0831042 -0.18618 0)
(0.102175 -0.186539 0)
(0.120755 -0.19007 0)
(0.139482 -0.188927 0)
(0.157842 -0.190669 0)
(0.176278 -0.1899 0)
(0.194744 -0.190268 0)
(0.212732 -0.186389 0)
(0.231004 -0.184382 0)
(0.247889 -0.176701 0)
(0.264651 -0.164445 0)
(0.273894 -0.133478 0)
(0.273663 -0.0711653 0)
(0.268078 0.00612568 0)
(0.336224 0.0570705 0)
(0.325871 0.428879 0)
(0.84377 0.848664 0)
(-0.878708 -0.926413 0)
(-0.331547 -0.556488 0)
(-0.302715 -0.222341 0)
(-0.222972 -0.190082 0)
(-0.214553 -0.115605 0)
(-0.207126 -0.0413788 0)
(-0.217708 0.00961717 0)
(-0.213939 0.0370904 0)
(-0.198669 0.0481582 0)
(-0.182946 0.0629424 0)
(-0.163022 0.069429 0)
(-0.144222 0.0791639 0)
(-0.123868 0.0877629 0)
(-0.104573 0.0990413 0)
(-0.0858941 0.111702 0)
(-0.0678418 0.125435 0)
(-0.0500077 0.138887 0)
(-0.0320922 0.150732 0)
(-0.0137184 0.159923 0)
(0.00537732 0.166755 0)
(0.0245804 0.174303 0)
(0.0443724 0.17991 0)
(0.0639439 0.183447 0)
(0.0831042 0.18618 0)
(0.102175 0.186539 0)
(0.120755 0.19007 0)
(0.139482 0.188927 0)
(0.157842 0.190669 0)
(0.176278 0.1899 0)
(0.194744 0.190268 0)
(0.212732 0.186389 0)
(0.231004 0.184382 0)
(0.247889 0.176701 0)
(0.264651 0.164445 0)
(0.273894 0.133478 0)
(0.273663 0.0711653 0)
(0.268078 -0.00612568 0)
(0.336224 -0.0570705 0)
(0.325871 -0.428879 0)
(0.84377 -0.848664 0)
(-0.478167 -0.377721 0)
(-0.283497 -0.416495 0)
(-0.251681 -0.295573 0)
(-0.191244 -0.22391 0)
(-0.177707 -0.153335 0)
(-0.18004 -0.0962395 0)
(-0.202311 -0.0501815 0)
(-0.204841 -0.0207798 0)
(-0.191431 -0.00711529 0)
(-0.176807 0.0111372 0)
(-0.157499 0.0227589 0)
(-0.139892 0.0370756 0)
(-0.120498 0.0493104 0)
(-0.101691 0.0630135 0)
(-0.0824755 0.0767858 0)
(-0.0644036 0.0913595 0)
(-0.0470212 0.105481 0)
(-0.0302069 0.118131 0)
(-0.0133668 0.128122 0)
(0.00477107 0.135287 0)
(0.0260795 0.142206 0)
(0.0494901 0.14875 0)
(0.0713039 0.154198 0)
(0.0911958 0.158098 0)
(0.110279 0.159093 0)
(0.128767 0.162929 0)
(0.147615 0.161791 0)
(0.166128 0.163603 0)
(0.184675 0.162579 0)
(0.203147 0.162999 0)
(0.221032 0.158785 0)
(0.238504 0.15725 0)
(0.252352 0.148184 0)
(0.257386 0.129808 0)
(0.243493 0.0897558 0)
(0.235736 0.0256586 0)
(0.234339 -0.0543165 0)
(0.293115 -0.14437 0)
(0.317047 -0.308653 0)
(0.444535 -0.320904 0)
(-0.085278 -0.443367 0)
(-0.132983 -0.399494 0)
(-0.141138 -0.30649 0)
(-0.120222 -0.234528 0)
(-0.100571 -0.172366 0)
(-0.114995 -0.124664 0)
(-0.150304 -0.0863252 0)
(-0.165068 -0.0589115 0)
(-0.156069 -0.0407426 0)
(-0.14534 -0.0173088 0)
(-0.13019 0.0014433 0)
(-0.116202 0.0203563 0)
(-0.0986965 0.0351848 0)
(-0.0804805 0.0495967 0)
(-0.0607902 0.0627673 0)
(-0.042485 0.0766598 0)
(-0.0253126 0.0902111 0)
(-0.00996442 0.102534 0)
(0.00430422 0.112369 0)
(0.0185484 0.118634 0)
(0.0338255 0.123624 0)
(0.0496879 0.13051 0)
(0.0658744 0.137704 0)
(0.0829434 0.142659 0)
(0.100628 0.144339 0)
(0.118365 0.148384 0)
(0.136716 0.147597 0)
(0.154703 0.149956 0)
(0.172747 0.149361 0)
(0.190726 0.150463 0)
(0.208204 0.146684 0)
(0.22465 0.14617 0)
(0.233579 0.137334 0)
(0.220948 0.116192 0)
(0.181718 0.0702352 0)
(0.155457 0.00980623 0)
(0.161007 -0.0663043 0)
(0.173512 -0.160266 0)
(0.161669 -0.285749 0)
(0.070338 -0.335106 0)
(-0.063747 -0.436688 0)
(-0.072419 -0.389593 0)
(-0.0748377 -0.335704 0)
(-0.0739734 -0.293378 0)
(-0.0616593 -0.243508 0)
(-0.0933771 -0.199492 0)
(-0.142385 -0.163363 0)
(-0.162997 -0.134946 0)
(-0.1491 -0.112603 0)
(-0.135432 -0.0811967 0)
(-0.118912 -0.0512896 0)
(-0.107741 -0.0218775 0)
(-0.0932077 0.000713662 0)
(-0.0759373 0.0185331 0)
(-0.0562633 0.0328759 0)
(-0.0373496 0.0473998 0)
(-0.0189064 0.0618463 0)
(-0.0025941 0.0757426 0)
(0.0125378 0.0879302 0)
(0.0273097 0.0972708 0)
(0.0415627 0.105044 0)
(0.0561955 0.112469 0)
(0.0729585 0.118115 0)
(0.0912964 0.12186 0)
(0.109931 0.122996 0)
(0.128522 0.126327 0)
(0.147194 0.125021 0)
(0.165244 0.126944 0)
(0.183085 0.125757 0)
(0.200831 0.126486 0)
(0.218112 0.122173 0)
(0.2334 0.121132 0)
(0.234092 0.111086 0)
(0.198511 0.0860282 0)
(0.135352 0.0360628 0)
(0.0890755 -0.0187698 0)
(0.0999059 -0.0865588 0)