/*--------------------------------*- C++ -*----------------------------------*\
| =========                 |                                                 |
| \\      /  F ield         | OpenFOAM: The Open Source CFD Toolbox           |
|  \\    /   O peration     | Version:  v1912                                 |
|   \\  /    A nd           | Website:  www.openfoam.com                      |
|    \\/     M anipulation  |                                                 |
\*---------------------------------------------------------------------------*/
FoamFile
{
    version     2.0;
    format      ascii;
    class       volVectorField;
    location    "2.72";
    object      grad(p);
}
// * * * * * * * * * * * * * * * * * * * * * * * * * * * * * * * * * * * * * //

dimensions      [1 -2 -2 0 0 0 0];


internalField   nonuniform List<vector> 
1900
(
(39689.3 -0.0783621 0)
(-28769.5 0.0779161 0)
(-1029.15 0.679738 0)
(675.027 0.660653 0)
(586.854 0.622797 0)
(585.622 -2.84711 0)
(641.419 -15.0543 0)
(699.043 -75.6476 0)
(835.367 -148.225 0)
(-116.054 -181.533 0)
(39689.3 -0.188592 0)
(-28768.7 0.15449 0)
(-1028.57 0.920577 0)
(674.97 -0.417092 0)
(583.346 -3.42833 0)
(569.945 -9.49869 0)
(568.618 -16.2208 0)
(565.871 -55.8661 0)
(729.482 -82.2253 0)
(807.641 -227.263 0)
(39689.2 9.23706e-10 0)
(-28768.4 -1.13687e-09 0)
(-1029.72 1.56319e-09 0)
(670.678 -1.65201e-09 0)
(577.772 -1.66978e-09 0)
(572.83 -9.41469e-10 0)
(595.051 -1.24345e-10 0)
(633.038 2.66454e-10 0)
(663.97 1.40332e-09 0)
(599.333 5.32907e-11 0)
(39689.3 0.188592 0)
(-28768.7 -0.15449 0)
(-1028.57 -0.920577 0)
(674.97 0.417092 0)
(583.346 3.42833 0)
(569.945 9.49869 0)
(568.618 16.2208 0)
(565.871 55.8661 0)
(729.482 82.2253 0)
(807.641 227.263 0)
(39689.3 0.0783621 0)
(-28769.5 -0.0779161 0)
(-1029.15 -0.679738 0)
(675.027 -0.660653 0)
(586.854 -0.622797 0)
(585.622 2.84711 0)
(641.419 15.0543 0)
(699.043 75.6476 0)
(835.367 148.225 0)
(-116.054 181.533 0)
(-290.747 625.812 1.10848e-11)
(271.116 750.991 -1.36447e-11)
(-2514.28 633.759 -1.72345e-11)
(-14870.7 2874.24 0)
(-7262.47 18211.7 -6.20696e-11)
(729.182 493.038 1.11979e-11)
(10.8827 420.277 1.36447e-11)
(-1430.56 3.39522 1.72345e-11)
(-7330.03 1019.6 0)
(-5154.76 14478.5 0)
(692.365 -3.86165e-10 0)
(-71.7201 -2.33731e-10 0)
(-1988.98 -3.45403e-09 0)
(-7087.19 2.15316e-09 0)
(3134.32 -4.38802e-09 0)
(729.182 -493.038 1.11979e-11)
(10.8827 -420.277 1.36447e-11)
(-1430.56 -3.39522 1.72345e-11)
(-7330.03 -1019.6 0)
(-5154.76 -14478.5 0)
(-290.747 -625.812 -3.34805e-11)
(271.116 -750.991 -1.36447e-11)
(-2514.28 -633.759 -1.72345e-11)
(-14870.7 -2874.24 -4.56913e-11)
(-7262.47 -18211.7 6.20696e-11)
(18377.1 -4234.41 3.44652e-11)
(2910.82 -493.108 -2.95801e-11)
(2537.74 501.152 0)
(513.853 2166.81 2.35181e-11)
(-12769.6 -937.138 -1.04798e-11)
(12185.7 -4571.74 -1.71689e-11)
(4086.14 -360.906 1.47826e-11)
(3500.01 -125.604 0)
(-165.191 217.875 -1.47413e-11)
(-12045.7 -7768.76 2.55441e-12)
(13736.5 -2.69145e-09 0)
(3976.71 -3.87155e-09 0)
(2665.79 1.24345e-08 0)
(-3091.94 -9.17204e-09 5.89913e-12)
(-14258 -2.62818e-08 -5.10882e-12)
(12185.7 4571.74 -1.71689e-11)
(4086.14 360.906 1.47826e-11)
(3500.01 125.604 0)
(-165.191 -217.875 -1.47413e-11)
(-12045.7 7768.76 2.55441e-12)
(18377.1 4234.41 1.71689e-11)
(2910.82 493.108 1.48508e-14)
(2537.74 -501.152 0)
(513.853 -2166.81 6.52573e-14)
(-12769.6 937.138 1.04798e-11)
(-33267.6 -3473.34 0)
(-19835.7 8123.13 0)
(1863.85 4385.4 0)
(48.8623 1984.16 0)
(-817.182 1110.86 0)
(-176.651 736.837 0)
(332.831 600.31 0)
(634.839 608.487 0)
(864.666 551.586 0)
(1141.25 543.21 0)
(1376.85 545.014 0)
(1614.41 544.175 0)
(1845.74 544.41 0)
(2058.86 548.026 0)
(2230.05 554.911 0)
(2307.78 564.46 0)
(2215.16 574.803 0)
(1851.19 583.963 0)
(1325.86 590.033 0)
(503.776 593.544 0)
(-619.303 593.83 0)
(-1431.01 589.499 0)
(-1943.32 582.366 0)
(-2306.49 571.194 0)
(-2413.71 558.079 0)
(-2373.88 544.853 0)
(-2266.17 533.121 0)
(-2142.09 523.552 0)
(-2017.26 516.169 0)
(-1888.11 510.793 0)
(-1747.36 507.284 0)
(-1595.94 505.71 0)
(-1448 506.084 0)
(-1326.99 508.434 0)
(-1221.34 509.063 0)
(-1066.79 508.206 0)
(-757.889 478.668 0)
(-1167.23 503.334 0)
(60152.1 501.936 0)
(-79582.7 3400.51 0)
(-31377.1 -1925.89 0)
(-20409.3 9852.25 0)
(755.67 4420.64 0)
(-638.235 1072.76 0)
(-923.866 543.455 0)
(-231.142 311.551 0)
(322.189 259.041 0)
(631.378 261.617 0)
(859.506 240.229 0)
(1139.95 234.956 0)
(1376.58 234.199 0)
(1613.81 231.73 0)
(1845.49 229.763 0)
(2059.21 229.428 0)
(2230.92 230.572 0)
(2308.93 232.892 0)
(2216.25 235.54 0)
(1851.94 237.782 0)
(1326.3 239.061 0)
(504.018 240.088 0)
(-619.433 240.376 0)
(-1431.52 239.233 0)
(-1944.26 237.678 0)
(-2307.87 234.776 0)
(-2415.21 231.388 0)
(-2375.17 228.286 0)
(-2267.02 226.207 0)
(-2142.44 225.472 0)
(-2017.15 226.089 0)
(-1887.61 227.92 0)
(-1746.55 230.773 0)
(-1594.94 234.472 0)
(-1446.91 238.666 0)
(-1326.32 243.157 0)
(-1221.7 245.471 0)
(-1070.69 245.767 0)
(-759.294 229.056 0)
(-1167.78 241.13 0)
(60419.3 229.942 0)
(-79939.7 2368.33 0)
(-27909.7 1.06904e-08 0)
(-17989.4 2.50305e-09 0)
(-690.18 3.40738e-09 0)
(-1079.05 2.95521e-09 0)
(-1038.63 1.43723e-09 0)
(-259.39 -7.25077e-09 0)
(318.305 -1.09004e-08 0)
(629.366 1.50667e-08 0)
(856.91 9.78127e-08 0)
(1139.5 1.18144e-07 0)
(1375.91 -5.13206e-08 0)
(1613.12 -3.79624e-07 0)
(1845.07 -5.66658e-07 0)
(2059.09 -3.14447e-07 0)
(2231.05 2.6148e-07 0)
(2309.23 1.25269e-06 0)
(2216.59 1.81318e-06 0)
(1852.22 4.08171e-06 0)
(1326.53 5.6118e-06 0)
(504.159 1.51475e-06 0)
(-619.552 -4.4179e-06 0)
(-1431.8 -1.93394e-06 0)
(-1944.61 2.80348e-06 0)
(-2308.32 6.00845e-06 0)
(-2415.6 7.14664e-06 0)
(-2375.39 1.18394e-05 0)
(-2266.99 1.69806e-05 0)
(-2142.12 1.67915e-05 0)
(-2016.55 1.19816e-05 0)
(-1886.74 4.60601e-06 0)
(-1745.45 -2.2701e-06 0)
(-1593.64 -8.31737e-06 0)
(-1445.47 -1.32568e-05 0)
(-1325.01 -1.47399e-05 0)
(-1220.58 -1.46379e-05 0)
(-1071.56 -1.70604e-05 0)
(-759.238 -1.82781e-05 0)
(-1166.98 -7.68266e-06 0)
(60770.9 -3.79388e-06 0)
(-80338.5 -9.59821e-05 0)
(-31377.1 1925.89 0)
(-20409.3 -9852.25 0)
(755.67 -4420.64 0)
(-638.235 -1072.76 0)
(-923.866 -543.455 0)
(-231.142 -311.551 0)
(322.189 -259.041 0)
(631.378 -261.617 0)
(859.506 -240.229 0)
(1139.95 -234.956 0)
(1376.58 -234.199 0)
(1613.81 -231.73 0)
(1845.49 -229.763 0)
(2059.21 -229.428 0)
(2230.92 -230.572 0)
(2308.93 -232.892 0)
(2216.25 -235.54 0)
(1851.94 -237.782 0)
(1326.3 -239.061 0)
(504.018 -240.088 0)
(-619.433 -240.376 0)
(-1431.52 -239.233 0)
(-1944.26 -237.678 0)
(-2307.87 -234.776 0)
(-2415.21 -231.388 0)
(-2375.17 -228.286 0)
(-2267.02 -226.207 0)
(-2142.44 -225.472 0)
(-2017.15 -226.089 0)
(-1887.61 -227.92 0)
(-1746.55 -230.773 0)
(-1594.94 -234.472 0)
(-1446.91 -238.666 0)
(-1326.32 -243.157 0)
(-1221.7 -245.471 0)
(-1070.69 -245.767 0)
(-759.294 -229.056 0)
(-1167.78 -241.13 0)
(60419.3 -229.943 0)
(-79939.7 -2368.33 0)
(-33267.6 3473.34 0)
(-19835.7 -8123.13 0)
(1863.85 -4385.4 0)
(48.8623 -1984.16 0)
(-817.182 -1110.86 0)
(-176.651 -736.837 0)
(332.831 -600.31 0)
(634.839 -608.487 0)
(864.666 -551.586 0)
(1141.25 -543.21 0)
(1376.85 -545.014 0)
(1614.41 -544.175 0)
(1845.74 -544.41 0)
(2058.86 -548.026 0)
(2230.05 -554.911 0)
(2307.78 -564.46 0)
(2215.16 -574.803 0)
(1851.19 -583.963 0)
(1325.86 -590.033 0)
(503.776 -593.544 0)
(-619.303 -593.83 0)
(-1431.01 -589.499 0)
(-1943.32 -582.366 0)
(-2306.49 -571.194 0)
(-2413.71 -558.079 0)
(-2373.88 -544.853 0)
(-2266.17 -533.121 0)
(-2142.09 -523.552 0)
(-2017.26 -516.169 0)
(-1888.11 -510.793 0)
(-1747.36 -507.284 0)
(-1595.94 -505.71 0)
(-1448 -506.084 0)
(-1326.99 -508.434 0)
(-1221.34 -509.063 0)
(-1066.79 -508.206 0)
(-757.889 -478.668 0)
(-1167.23 -503.334 0)
(60152.1 -501.936 0)
(-79582.7 -3400.51 0)
(50565 12112.3 0)
(-26002.1 -5410.39 0)
(3325.15 -3122.26 0)
(621.341 -3006.6 0)
(-264.81 -1831.57 0)
(26.1064 -1358.29 0)
(390.395 -1118.28 0)
(657.94 -1095.64 0)
(894.485 -1025.14 0)
(1142.57 -1022.29 0)
(1375.67 -1029.49 0)
(1613.49 -1036.67 0)
(1842.8 -1047.2 0)
(2053.04 -1063.87 0)
(2221.63 -1086.55 0)
(2297.78 -1113.72 0)
(2205.26 -1141.7 0)
(1843.25 -1166.21 0)
(1320.79 -1182.8 0)
(501.916 -1193.21 0)
(-617.046 -1193.1 0)
(-1424.93 -1180.47 0)
(-1933.86 -1161.46 0)
(-2294.23 -1133.28 0)
(-2400.41 -1100.65 0)
(-2361 -1067.26 0)
(-2254.64 -1036.02 0)
(-2132.22 -1008.04 0)
(-2009.02 -983.251 0)
(-1881.46 -961.3 0)
(-1742.44 -942.091 0)
(-1593.04 -925.971 0)
(-1447.36 -913.194 0)
(-1327.4 -904.418 0)
(-1221.97 -893.143 0)
(-1056.14 -883.344 0)
(-757.862 -840.398 0)
(-1183 -860.799 0)
(58911 -859.774 0)
(-77904.6 -5347.61 0)
(52740.2 6751.23 0)
(-31209.6 -2431.84 0)
(3396.63 -2868.89 0)
(985.639 -2924.76 0)
(474.988 -2274.3 0)
(401.976 -1843.02 0)
(555.061 -1619.95 0)
(712.21 -1541.82 0)
(919.367 -1501.25 0)
(1136.35 -1503.66 0)
(1363.63 -1517.7 0)
(1597.84 -1538 0)
(1821.1 -1565.66 0)
(2024.05 -1603.34 0)
(2186.52 -1650.63 0)
(2260 -1704.38 0)
(2169.89 -1758.2 0)
(1815.84 -1804.58 0)
(1302.55 -1836.04 0)
(494.853 -1856.21 0)
(-608.23 -1855.62 0)
(-1403.78 -1831.97 0)
(-1902.91 -1797.27 0)
(-2254.46 -1746.76 0)
(-2357.23 -1688.47 0)
(-2318.52 -1628.42 0)
(-2215.29 -1571.09 0)
(-2096.53 -1518.08 0)
(-1976.64 -1469.2 0)
(-1852.01 -1423.97 0)
(-1715.95 -1382.16 0)
(-1569.65 -1344.35 0)
(-1427.57 -1310.46 0)
(-1307.45 -1281 0)
(-1200.69 -1246.2 0)
(-1021.67 -1212.94 0)
(-736.178 -1161.78 0)
(-1177.45 -1160.16 0)
(56493.9 -1171.51 0)
(-74500.8 -7256.96 0)
(54727.3 7195.01 0)
(-35272.4 -1411.91 0)
(2850.15 -2479.4 0)
(1194.31 -2489.07 0)
(777.592 -2299.19 0)
(656.662 -2019.21 0)
(680.644 -1895.17 0)
(772.323 -1811.37 0)
(931.258 -1791.46 0)
(1126.73 -1796.85 0)
(1342.58 -1814.9 0)
(1567.27 -1845.25 0)
(1779.83 -1888.03 0)
(1971.16 -1945.09 0)
(2124.26 -2015.05 0)
(2194.13 -2093.1 0)
(2108.7 -2170.51 0)
(1768.24 -2236.95 0)
(1271.05 -2282.29 0)
(483.049 -2309.9 0)
(-593.691 -2308.17 0)
(-1368.7 -2275.06 0)
(-1851.74 -2225.46 0)
(-2189.39 -2154.55 0)
(-2286.38 -2072.65 0)
(-2247.88 -1987.61 0)
(-2148.31 -1905.16 0)
(-2034.03 -1827.4 0)
(-1918.33 -1754.46 0)
(-1797.6 -1685.8 0)
(-1665.72 -1621.85 0)
(-1523.95 -1563.24 0)
(-1386.31 -1509.68 0)
(-1265.48 -1461.09 0)
(-1156.38 -1405.28 0)
(-974.788 -1352.97 0)
(-707.009 -1306.37 0)
(-1192.37 -1299.49 0)
(53035.9 -1344.57 0)
(-69782.7 -8806.54 0)
(58313 686.693 0)
(-40532.2 -1420.08 0)
(2358.63 -2062.58 0)
(1159.29 -2186.32 0)
(927.763 -2118.79 0)
(791.311 -1988.68 0)
(755.349 -1925.04 0)
(812.147 -1878.88 0)
(933.352 -1869.41 0)
(1113.76 -1877.57 0)
(1316.99 -1896.33 0)
(1527.36 -1930.53 0)
(1724.89 -1981.6 0)
(1901.66 -2049.41 0)
(2043.89 -2131.77 0)
(2110.19 -2222.68 0)
(2031.28 -2312.39 0)
(1708.13 -2389.1 0)
(1232.25 -2441.33 0)
(469.918 -2471.28 0)
(-574.659 -2467.69 0)
(-1324.08 -2429.35 0)
(-1786.78 -2371.12 0)
(-2107.22 -2288.94 0)
(-2196.36 -2193.78 0)
(-2157.12 -2094.46 0)
(-2060.9 -1997.37 0)
(-1951.31 -1905.32 0)
(-1840.19 -1818.26 0)
(-1724.22 -1736.83 0)
(-1597.85 -1660.58 0)
(-1461.56 -1591.62 0)
(-1329.14 -1527.79 0)
(-1206.84 -1469.2 0)
(-1096.5 -1401.57 0)
(-926.36 -1341.99 0)
(-684.638 -1310.21 0)
(-1214.27 -1322.49 0)
(49259.9 -1333.41 0)
(-64718.8 -9284.23 0)
(54020.6 -5748.04 0)
(-37921.7 -1456.8 0)
(2111.77 -1873.67 0)
(1140.15 -1917.91 0)
(968.045 -1903.49 0)
(843.367 -1882.25 0)
(786.451 -1859.82 0)
(825.928 -1850 0)
(932.521 -1846.04 0)
(1100.78 -1852.76 0)
(1291.54 -1868.35 0)
(1485.1 -1901.76 0)
(1665.27 -1953.19 0)
(1826.46 -2022.93 0)
(1957.29 -2107.12 0)
(2020.08 -2199.92 0)
(1948.34 -2291.15 0)
(1643.98 -2368.65 0)
(1191.85 -2420.71 0)
(457.654 -2448.84 0)
(-553.283 -2443.53 0)
(-1275.65 -2404.56 0)
(-1716.44 -2344.96 0)
(-2018.5 -2261.11 0)
(-2098.97 -2163.59 0)
(-2058.62 -2061.43 0)
(-1966.05 -1961.68 0)
(-1861.43 -1866.77 0)
(-1755.97 -1778.36 0)
(-1645.66 -1694.7 0)
(-1525.79 -1618.92 0)
(-1395.98 -1549.63 0)
(-1268.34 -1485.12 0)
(-1143.85 -1426.06 0)
(-1033.8 -1357.48 0)
(-886.752 -1301.41 0)
(-688.217 -1285.93 0)
(-1214.72 -1323.49 0)
(45363.7 -1263.8 0)
(-59551.1 -9465.17 0)
(51370.2 -4458.44 0)
(-36798.7 -1330.31 0)
(1914.3 -1677.91 0)
(1130.55 -1721.19 0)
(962.118 -1718.79 0)
(833.399 -1756.35 0)
(786.432 -1766.96 0)
(825.421 -1775.82 0)
(930.691 -1775.77 0)
(1092.27 -1778.55 0)
(1269.77 -1792.47 0)
(1445.61 -1821.6 0)
(1608.13 -1871.76 0)
(1753.32 -1938.25 0)
(1873.34 -2019.48 0)
(1932.86 -2108.4 0)
(1868.68 -2195.4 0)
(1583.28 -2268.25 0)
(1154.97 -2315.83 0)
(447.923 -2339.91 0)
(-531.983 -2333.37 0)
(-1229.09 -2296.87 0)
(-1648.55 -2240.81 0)
(-1932.44 -2161.36 0)
(-2003.93 -2068.05 0)
(-1962.55 -1970.09 0)
(-1873.33 -1874.04 0)
(-1774.66 -1784.1 0)
(-1674.38 -1698.38 0)
(-1570.57 -1621.49 0)
(-1458.05 -1547.64 0)
(-1332.63 -1484.29 0)
(-1210.06 -1422.03 0)
(-1083.85 -1364.92 0)
(-976.381 -1301.29 0)
(-857.413 -1253.9 0)
(-705.914 -1247.82 0)
(-1192.94 -1290.03 0)
(41414.3 -1191.19 0)
(-54380 -9272.27 0)
(48442.3 -5198.35 0)
(-35242.3 -1223.02 0)
(1735.11 -1506.38 0)
(1100.75 -1574.19 0)
(934.165 -1590.51 0)
(796.949 -1644.35 0)
(767.688 -1671 0)
(817.441 -1688.71 0)
(929.896 -1689.96 0)
(1084.69 -1693.21 0)
(1250.05 -1703.56 0)
(1408.69 -1735 0)
(1552.87 -1781.31 0)
(1684.11 -1846.37 0)
(1793.33 -1923.33 0)
(1850.56 -2007.97 0)
(1794.3 -2089.79 0)
(1527.93 -2157.14 0)
(1122.8 -2199.45 0)
(440.748 -2219.52 0)
(-511.807 -2212.28 0)
(-1186.45 -2179.07 0)
(-1585.86 -2127.92 0)
(-1852.02 -2054.2 0)
(-1914.65 -1966.7 0)
(-1871.66 -1874.12 0)
(-1786.83 -1784.37 0)
(-1692.15 -1698.34 0)
(-1599.27 -1620.87 0)
(-1500.4 -1544.81 0)
(-1393.58 -1479.84 0)
(-1274.93 -1418.59 0)
(-1153.32 -1358.62 0)
(-1027.5 -1305.82 0)
(-926.81 -1248.42 0)
(-835.224 -1209.15 0)
(-723.032 -1205.78 0)
(-1160.15 -1240.06 0)
(37671.7 -1132.01 0)
(-49468.1 -9020.46 0)
(45182.3 -5677.28 0)
(-33241 -1140.97 0)
(1575.9 -1368.45 0)
(1049.47 -1453.23 0)
(894.512 -1491.15 0)
(755.84 -1541.66 0)
(743.682 -1571.96 0)
(807.145 -1594.12 0)
(926.358 -1596.43 0)
(1079.16 -1599.59 0)
(1229.5 -1616.22 0)
(1370.69 -1644.32 0)
(1500.81 -1693.6 0)
(1616.46 -1754.66 0)
(1717.61 -1829.15 0)
(1772.45 -1909.27 0)
(1724.94 -1986.44 0)
(1477.6 -2048.7 0)
(1094.87 -2086.22 0)
(435.565 -2103.1 0)
(-493.007 -2095.61 0)
(-1147.8 -2065.57 0)
(-1528.22 -2019.04 0)
(-1777.09 -1950.5 0)
(-1830.41 -1868 0)
(-1786.85 -1780.99 0)
(-1703.93 -1695.44 0)
(-1617.1 -1616.75 0)
(-1526.43 -1539.9 0)
(-1434.67 -1473.6 0)
(-1336.43 -1406.95 0)
(-1215.82 -1351.35 0)
(-1101.38 -1294.46 0)
(-977.66 -1242.58 0)
(-883.227 -1192.05 0)
(-816.327 -1159.01 0)
(-735.702 -1153.84 0)
(-1121.85 -1175.49 0)
(33916.8 -1067.54 0)
(-44596.7 -8630.96 0)
(41872 -6229.13 0)
(-31090.2 -1081.95 0)
(1434.2 -1274.57 0)
(982.519 -1355.18 0)
(848.945 -1409.38 0)
(719.076 -1448.75 0)
(717.144 -1475.49 0)
(793.86 -1494.84 0)
(924.621 -1500.1 0)
(1065.62 -1506.26 0)
(1206.95 -1522.55 0)
(1334.13 -1555.84 0)
(1446.53 -1601.34 0)
(1553.48 -1661.79 0)
(1644.34 -1731.58 0)
(1699 -1807.35 0)
(1659.95 -1879.46 0)
(1431.78 -1936.95 0)
(1070.38 -1970.17 0)
(431.7 -1984.74 0)
(-475.641 -1977.47 0)
(-1112.67 -1950.39 0)
(-1474.97 -1908.13 0)
(-1706.48 -1844.07 0)
(-1751.31 -1766.4 0)
(-1705.37 -1684.05 0)
(-1628.56 -1604.69 0)
(-1542.27 -1529.16 0)
(-1461.32 -1460.43 0)
(-1372.29 -1394.51 0)
(-1275.78 -1333.94 0)
(-1166.53 -1283.73 0)
(-1048.51 -1226.26 0)
(-928.807 -1181.6 0)
(-846.277 -1136.84 0)
(-798.407 -1108.19 0)
(-738.909 -1100.6 0)
(-1076.99 -1112.21 0)
(30487.3 -1008.02 0)
(-40122.3 -8223.18 0)
(38137.1 -6640.32 0)
(-28466.6 -1012.45 0)
(1312.6 -1177.44 0)
(919.562 -1240.05 0)
(804.343 -1310.22 0)
(692.134 -1341.03 0)
(699.275 -1363.17 0)
(783.43 -1385.41 0)
(915.348 -1388.17 0)
(1057.53 -1404.66 0)
(1181.72 -1421.63 0)
(1294.77 -1457.88 0)
(1398.72 -1502.26 0)
(1490.96 -1559.4 0)
(1577.34 -1624.42 0)
(1629.94 -1694.37 0)
(1600.05 -1760.78 0)
(1390.19 -1813.26 0)
(1048.82 -1842.45 0)
(428.529 -1855.38 0)
(-459.906 -1848.82 0)
(-1080.98 -1824.71 0)
(-1425.77 -1786.73 0)
(-1640.51 -1727.24 0)
(-1676.21 -1654.59 0)
(-1631.02 -1577.87 0)
(-1554.67 -1504.11 0)
(-1478.09 -1434.19 0)
(-1396.67 -1370.71 0)
(-1312.78 -1307.68 0)
(-1229.68 -1252.54 0)
(-1112.04 -1199.18 0)
(-1002.97 -1148.78 0)
(-891.495 -1105.88 0)
(-812.49 -1065.94 0)
(-781.405 -1039.19 0)
(-739.578 -1028.01 0)
(-1032.63 -1030.01 0)
(27064.4 -931.068 0)
(-35701.2 -7742.14 0)
(34497.5 -6736.33 0)
(-25825.9 -939.22 0)
(1214.89 -1086.5 0)
(854.565 -1138.1 0)
(751.638 -1217.28 0)
(668.054 -1243.69 0)
(674.37 -1262.27 0)
(769.766 -1276.62 0)
(906.071 -1286.28 0)
(1033.38 -1295.9 0)
(1155.66 -1323.52 0)
(1256.43 -1350.16 0)
(1348.71 -1396.44 0)
(1435.75 -1446.13 0)
(1514.28 -1505.72 0)
(1567.6 -1568.25 0)
(1545.37 -1628.21 0)
(1353.08 -1675.28 0)
(1029.8 -1700.49 0)
(425.561 -1712.17 0)
(-446.091 -1706.73 0)
(-1052.83 -1685.75 0)
(-1381.05 -1652.4 0)
(-1579.14 -1598.09 0)
(-1607.36 -1531.18 0)
(-1560.36 -1461.46 0)
(-1490.11 -1393.24 0)
(-1413.72 -1332.77 0)
(-1339.42 -1269.77 0)
(-1258.42 -1222.51 0)
(-1171.23 -1161.72 0)
(-1066.54 -1120.57 0)
(-958.59 -1069.34 0)
(-848.981 -1030.89 0)
(-782.015 -996.928 0)
(-761.849 -975.545 0)
(-730.069 -962.154 0)
(-983.576 -955.917 0)
(24019.3 -864.032 0)
(-31764.5 -7244.09 0)
(30740.6 -6615.35 0)
(-23022.2 -858.786 0)
(1120.95 -993.328 0)
(793.541 -1042.21 0)
(702.588 -1104.92 0)
(648.777 -1127.03 0)
(667.55 -1140.09 0)
(760.295 -1146.16 0)
(896.764 -1152.45 0)
(1021.64 -1172.34 0)
(1129.43 -1191.58 0)
(1224.5 -1230.53 0)
(1306.24 -1270.5 0)
(1385.65 -1322.2 0)
(1459.65 -1376.38 0)
(1511.91 -1434.2 0)
(1496.91 -1488.45 0)
(1320.54 -1530.84 0)
(1013.27 -1552.42 0)
(422.519 -1563.06 0)
(-434.446 -1558.96 0)
(-1028.63 -1541.16 0)
(-1341.29 -1512.52 0)
(-1523.7 -1463.06 0)
(-1544.55 -1401.55 0)
(-1498.1 -1336.15 0)
(-1430.67 -1273.74 0)
(-1359.1 -1212.12 0)
(-1290.42 -1158.73 0)
(-1208.66 -1102.54 0)
(-1131.44 -1055.93 0)
(-1023.02 -1009.89 0)
(-916.546 -964.986 0)
(-821.719 -933.729 0)
(-759.158 -908.436 0)
(-747.896 -891.946 0)
(-720.664 -881.023 0)
(-938.078 -873.145 0)
(21004.9 -790.284 0)
(-27887.9 -6735.65 0)
(27295.2 -6337.99 0)
(-20408.3 -779.354 0)
(1038.13 -904.594 0)
(747.032 -961.842 0)
(669.905 -1009.82 0)
(634.162 -1024.86 0)
(655.942 -1024.64 0)
(757.854 -1030.63 0)
(880.84 -1024.79 0)
(995.671 -1053.26 0)
(1099.59 -1071.89 0)
(1180.38 -1111.84 0)
(1260.36 -1153.26 0)
(1333.73 -1202.19 0)
(1406.36 -1254.37 0)
(1459.6 -1308.33 0)
(1452.25 -1358.67 0)
(1291.45 -1397.42 0)
(998.741 -1415.88 0)
(419.253 -1425.43 0)
(-424.982 -1422.67 0)
(-1008.08 -1408.07 0)
(-1305.79 -1383.9 0)
(-1472.21 -1338.73 0)
(-1485.06 -1281.3 0)
(-1437.2 -1219.8 0)
(-1370.58 -1159.24 0)
(-1302.89 -1101.58 0)
(-1233.82 -1047.17 0)
(-1159.36 -995.394 0)
(-1081.94 -950.385 0)
(-978.903 -903.832 0)
(-885.203 -871.867 0)
(-794.488 -843.211 0)
(-741.75 -827.494 0)
(-735.432 -817.456 0)
(-711.952 -808.546 0)
(-896.137 -795.77 0)
(18370 -718.144 0)
(-24512.2 -6167.34 0)
(23882.1 -6046.18 0)
(-17786.4 -729.092 0)
(945.1 -854.974 0)
(692.139 -922.114 0)
(641.867 -950.669 0)
(634.494 -953.41 0)
(661.983 -935.183 0)
(760.159 -929.99 0)
(874.964 -925.883 0)
(976.248 -938.494 0)
(1072.98 -962.859 0)
(1146.09 -992.688 0)
(1219.18 -1032.9 0)
(1288.22 -1078.77 0)
(1357.37 -1132.07 0)
(1411.4 -1188.89 0)
(1411.06 -1243.01 0)
(1265.4 -1285.28 0)
(986.278 -1306.12 0)
(415.974 -1316.66 0)
(-417.72 -1315.1 0)
(-991.266 -1301.33 0)
(-1274.47 -1276.22 0)
(-1424.83 -1228.57 0)
(-1429.95 -1168.09 0)
(-1380.48 -1104.22 0)
(-1316.75 -1042.89 0)
(-1251.11 -988.765 0)
(-1188.09 -936.897 0)
(-1115.39 -896.853 0)
(-1043.21 -851.185 0)
(-947.361 -821.958 0)
(-858.13 -791.78 0)
(-778.96 -774.407 0)
(-734.339 -769.549 0)
(-729.636 -767.858 0)
(-699.767 -760.554 0)
(-850.964 -742.589 0)
(15828.6 -666.171 0)
(-21252.8 -5603.46 0)
(20766.3 -5759.13 0)
(-15405.9 -699.182 0)
(852.125 -824.367 0)
(654.817 -891.483 0)
(639.747 -906.18 0)
(649.085 -894.437 0)
(678.51 -876.528 0)
(766.816 -854.667 0)
(872.645 -857.269 0)
(960.04 -859.815 0)
(1047.37 -879.796 0)
(1112.89 -901.91 0)
(1177.41 -932.26 0)
(1238.17 -969.982 0)
(1300.24 -1017.34 0)
(1352.69 -1071.6 0)
(1359.36 -1126.1 0)
(1230.63 -1171.35 0)
(968.498 -1194.86 0)
(410.606 -1205.97 0)
(-410.206 -1205.3 0)
(-970.618 -1192.39 0)
(-1235.68 -1165.97 0)
(-1368.01 -1116.55 0)
(-1365.24 -1056.76 0)
(-1316.55 -996.264 0)
(-1259.32 -941.744 0)
(-1200.75 -896.177 0)
(-1145.25 -856.899 0)
(-1076.77 -824.521 0)
(-1009.77 -791.95 0)
(-921.658 -769.405 0)
(-839.381 -747.529 0)
(-773.065 -738.457 0)
(-735.44 -738.803 0)
(-726.764 -736.478 0)
(-687.601 -725.271 0)
(-805.185 -698.349 0)
(13685.8 -618.078 0)
(-18470.6 -5101.65 0)
(17658.6 -5207.26 0)
(-13031.1 -652.558 0)
(759.791 -787.457 0)
(613.301 -859.283 0)
(639.02 -879.54 0)
(663.068 -863.29 0)
(700.306 -852.307 0)
(778.718 -819.474 0)
(870.003 -827.88 0)
(954.54 -818.433 0)
(1032.42 -829.38 0)
(1095.54 -832.618 0)
(1153.58 -839.771 0)
(1206.23 -848.641 0)
(1259.45 -865.138 0)
(1306.6 -891.844 0)
(1314.94 -930.006 0)
(1199.14 -971.162 0)
(952.919 -1001.83 0)
(405.916 -1025.69 0)
(-404.636 -1025.65 0)
(-953.361 -1000.95 0)
(-1201.39 -968.483 0)
(-1319.59 -924.297 0)
(-1314.04 -881.946 0)
(-1269.64 -850.026 0)
(-1220.3 -827.493 0)
(-1169.35 -811.294 0)
(-1119.04 -797.098 0)
(-1052.8 -782.602 0)
(-990.097 -765.494 0)
(-904.555 -752.417 0)
(-828.307 -738.304 0)
(-770.552 -732.688 0)
(-732.433 -729.498 0)
(-716.596 -719.273 0)
(-663.025 -696.614 0)
(-747.668 -649.036 0)
(11585.5 -551.661 0)
(-15741.1 -4434.43 0)
(15119.5 -4406.27 0)
(-11146.8 -494.484 0)
(652.917 -649.026 0)
(566.082 -740.986 0)
(635.886 -771.161 0)
(675.328 -767.35 0)
(720.733 -763.82 0)
(790.354 -743.882 0)
(873.647 -750.795 0)
(958.594 -737.77 0)
(1033.7 -740.886 0)
(1102.88 -725.928 0)
(1161.97 -709.914 0)
(1213.73 -684.45 0)
(1258.61 -657.882 0)
(1290.18 -648.572 0)
(1282.93 -662.065 0)
(1161.42 -684.201 0)
(915.958 -700.369 0)
(387.649 -711.684 0)
(-386.367 -711.894 0)
(-915.531 -700.319 0)
(-1161.82 -683.281 0)
(-1284.62 -659.459 0)
(-1293.67 -643.531 0)
(-1264.08 -649.541 0)
(-1222 -672.21 0)
(-1171.47 -692.419 0)
(-1117.6 -703.949 0)
(-1046.31 -709.513 0)
(-980.682 -704.32 0)
(-895.457 -698.416 0)
(-820.37 -690.921 0)
(-764.579 -680.667 0)
(-722.513 -670.866 0)
(-695.076 -648.138 0)
(-619.918 -604.769 0)
(-665.504 -515.411 0)
(10038.1 -386.715 0)
(-13665.8 -3423.76 0)
(12936.1 -1878.17 0)
(-9410.48 -444.498 0)
(522.253 -605.984 0)
(495.607 -736.351 0)
(613.615 -806.949 0)
(670.142 -844.738 0)
(722.921 -882.313 0)
(791.269 -910.23 0)
(875.892 -955.29 0)
(964.089 -990.437 0)
(1043.83 -1041.48 0)
(1125.38 -1082.04 0)
(1193.55 -1124.99 0)
(1256.37 -1158.83 0)
(1294.02 -1178.23 0)
(1302.57 -1153.72 0)
(1280.6 -1099.65 0)
(1162.23 -1054.15 0)
(926.436 -1035.79 0)
(394.809 -1046.07 0)
(-393.685 -1046.36 0)
(-925.788 -1036.24 0)
(-1162.02 -1054.41 0)
(-1281.29 -1099.19 0)
(-1304.48 -1151.95 0)
(-1297.28 -1174.54 0)
(-1261.62 -1152.78 0)
(-1199.94 -1115.54 0)
(-1135.51 -1069.93 0)
(-1053.16 -1023.29 0)
(-979.403 -971.542 0)
(-891.643 -924.618 0)
(-811.204 -879.73 0)
(-751.225 -833.88 0)
(-701.086 -787.998 0)
(-652.903 -731.975 0)
(-535.124 -648.656 0)
(-537.544 -512.713 0)
(8782.87 -372.091 0)
(-12069.2 -1114.44 0)
(12881.3 121975 0)
(-9920.9 9807.94 0)
(371.678 9297.42 0)
(372.425 10743.5 0)
(531.44 12487.5 0)
(602.704 14892 0)
(657.624 17311.2 0)
(720.031 20207.4 0)
(796.357 23169.3 0)
(875.534 26601.8 0)
(945.428 30039.2 0)
(1022.41 33903.9 0)
(1087.98 37767.3 0)
(1162.42 41978.6 0)
(1263.53 46165.7 0)
(1365.9 50494.9 0)
(1378.88 54702 0)
(1222.95 58621.8 0)
(923.748 61778.2 0)
(377.463 63797 0)
(-376.893 63796.3 0)
(-923.288 61777.6 0)
(-1222.48 58621.4 0)
(-1378.61 54702.4 0)
(-1366.28 50497 0)
(-1264.87 46170.5 0)
(-1165.15 41987 0)
(-1091.63 37780.8 0)
(-1028.7 33921.8 0)
(-951.502 30065.4 0)
(-885.601 26630.5 0)
(-806.983 23211 0)
(-732.931 20250.4 0)
(-676.183 17370.6 0)
(-624.313 14958 0)
(-560.801 12568.1 0)
(-408.629 10827.8 0)
(-398.996 9386.09 0)
(9458.25 9863.51 0)
(-12233.3 122012 0)
(139927 -145685 0)
(-117991 -12890 0)
(1423.78 -12946.1 0)
(3569.66 -14753.2 0)
(4611.3 -17037 0)
(5318.49 -20090 0)
(5845.03 -23181.6 0)
(6436.29 -26838.1 0)
(7037.76 -30608 0)
(7584.2 -34967.8 0)
(8080.35 -39386.9 0)
(8572.52 -44334.2 0)
(8974.63 -49344 0)
(9349.29 -54776.5 0)
(9500.68 -60252.3 0)
(9528.51 -65946.9 0)
(9111.98 -71557.9 0)
(7981.1 -76833.7 0)
(5913.45 -81109.2 0)
(2339.49 -83928.9 0)
(-2339.69 -83928.7 0)
(-5912.5 -81109.8 0)
(-7979.86 -76835 0)
(-9110.21 -71560.2 0)
(-9526.13 -65950.3 0)
(-9497.82 -60256.7 0)
(-9346.25 -54781.5 0)
(-8971.85 -49348.7 0)
(-8570.42 -44338.3 0)
(-8079.3 -39387.3 0)
(-7584.46 -34966.7 0)
(-7039.75 -30597.6 0)
(-6439.26 -26823.8 0)
(-5851.24 -23154.8 0)
(-5328.97 -20050.1 0)
(-4632.83 -16976.8 0)
(-3601.4 -14660.5 0)
(-1466.81 -12815.5 0)
(117313 -12724.3 0)
(-139149 -144371 0)
(139927 145685 0)
(-117991 12890 0)
(1423.78 12946.1 0)
(3569.66 14753.2 0)
(4611.3 17037 0)
(5318.49 20090 0)
(5845.03 23181.6 0)
(6436.29 26838.1 0)
(7037.76 30608 0)
(7584.2 34967.8 0)
(8080.35 39386.9 0)
(8572.52 44334.2 0)
(8974.63 49344 0)
(9349.29 54776.5 0)
(9500.68 60252.3 0)
(9528.51 65946.9 0)
(9111.98 71557.9 0)
(7981.1 76833.7 0)
(5913.45 81109.2 0)
(2339.49 83928.9 0)
(-2339.69 83928.7 0)
(-5912.5 81109.8 0)
(-7979.86 76835 0)
(-9110.21 71560.2 0)
(-9526.13 65950.3 0)
(-9497.82 60256.7 0)
(-9346.25 54781.5 0)
(-8971.85 49348.7 0)
(-8570.42 44338.3 0)
(-8079.3 39387.3 0)
(-7584.46 34966.7 0)
(-7039.75 30597.6 0)
(-6439.26 26823.8 0)
(-5851.24 23154.8 0)
(-5328.97 20050.1 0)
(-4632.83 16976.8 0)
(-3601.4 14660.5 0)
(-1466.81 12815.5 0)
(117313 12724.3 0)
(-139149 144371 0)
(12881.3 -121975 0)
(-9920.9 -9807.94 0)
(371.678 -9297.42 0)
(372.425 -10743.5 0)
(531.44 -12487.5 0)
(602.704 -14892 0)
(657.624 -17311.2 0)
(720.031 -20207.4 0)
(796.357 -23169.3 0)
(875.534 -26601.8 0)
(945.428 -30039.2 0)
(1022.41 -33903.9 0)
(1087.98 -37767.3 0)
(1162.42 -41978.6 0)
(1263.53 -46165.7 0)
(1365.9 -50494.9 0)
(1378.88 -54702 0)
(1222.95 -58621.8 0)
(923.748 -61778.2 0)
(377.463 -63797 0)
(-376.893 -63796.3 0)
(-923.288 -61777.6 0)
(-1222.48 -58621.4 0)
(-1378.61 -54702.4 0)
(-1366.28 -50497 0)
(-1264.87 -46170.5 0)
(-1165.15 -41987 0)
(-1091.63 -37780.8 0)
(-1028.7 -33921.8 0)
(-951.502 -30065.4 0)
(-885.601 -26630.5 0)
(-806.983 -23211 0)
(-732.931 -20250.4 0)
(-676.183 -17370.6 0)
(-624.313 -14958 0)
(-560.801 -12568.1 0)
(-408.629 -10827.8 0)
(-398.996 -9386.09 0)
(9458.25 -9863.51 0)
(-12233.3 -122012 0)
(12936.1 1878.17 0)
(-9410.48 444.498 0)
(522.253 605.984 0)
(495.607 736.351 0)
(613.615 806.949 0)
(670.142 844.738 0)
(722.921 882.313 0)
(791.269 910.23 0)
(875.892 955.29 0)
(964.089 990.437 0)
(1043.83 1041.48 0)
(1125.38 1082.04 0)
(1193.55 1124.99 0)
(1256.37 1158.83 0)
(1294.02 1178.23 0)
(1302.57 1153.72 0)
(1280.6 1099.65 0)
(1162.23 1054.15 0)
(926.436 1035.79 0)
(394.809 1046.07 0)
(-393.685 1046.36 0)
(-925.788 1036.24 0)
(-1162.02 1054.41 0)
(-1281.29 1099.19 0)
(-1304.48 1151.95 0)
(-1297.28 1174.54 0)
(-1261.62 1152.78 0)
(-1199.94 1115.54 0)
(-1135.51 1069.93 0)
(-1053.16 1023.29 0)
(-979.403 971.542 0)
(-891.643 924.618 0)
(-811.204 879.73 0)
(-751.225 833.88 0)
(-701.086 787.998 0)
(-652.903 731.975 0)
(-535.124 648.656 0)
(-537.544 512.713 0)
(8782.87 372.091 0)
(-12069.2 1114.44 0)
(15119.5 4406.27 0)
(-11146.8 494.484 0)
(652.917 649.026 0)
(566.082 740.986 0)
(635.886 771.161 0)
(675.328 767.35 0)
(720.733 763.82 0)
(790.354 743.882 0)
(873.647 750.795 0)
(958.594 737.77 0)
(1033.7 740.886 0)
(1102.88 725.928 0)
(1161.97 709.914 0)
(1213.73 684.45 0)
(1258.61 657.882 0)
(1290.18 648.572 0)
(1282.93 662.065 0)
(1161.42 684.201 0)
(915.958 700.369 0)
(387.649 711.684 0)
(-386.367 711.894 0)
(-915.531 700.319 0)
(-1161.82 683.281 0)
(-1284.62 659.459 0)
(-1293.67 643.531 0)
(-1264.08 649.541 0)
(-1222 672.21 0)
(-1171.47 692.419 0)
(-1117.6 703.949 0)
(-1046.31 709.513 0)
(-980.682 704.32 0)
(-895.457 698.416 0)
(-820.37 690.921 0)
(-764.579 680.667 0)
(-722.513 670.866 0)
(-695.076 648.138 0)
(-619.918 604.769 0)
(-665.504 515.411 0)
(10038.1 386.715 0)
(-13665.8 3423.76 0)
(17658.6 5207.26 0)
(-13031.1 652.558 0)
(759.791 787.457 0)
(613.301 859.283 0)
(639.02 879.54 0)
(663.068 863.29 0)
(700.306 852.307 0)
(778.718 819.474 0)
(870.003 827.88 0)
(954.54 818.433 0)
(1032.42 829.38 0)
(1095.54 832.618 0)
(1153.58 839.771 0)
(1206.23 848.641 0)
(1259.45 865.138 0)
(1306.6 891.844 0)
(1314.94 930.006 0)
(1199.14 971.162 0)
(952.919 1001.83 0)
(405.916 1025.69 0)
(-404.636 1025.65 0)
(-953.361 1000.95 0)
(-1201.39 968.483 0)
(-1319.59 924.297 0)
(-1314.04 881.946 0)
(-1269.64 850.026 0)
(-1220.3 827.493 0)
(-1169.35 811.294 0)
(-1119.04 797.098 0)
(-1052.8 782.602 0)
(-990.097 765.494 0)
(-904.555 752.417 0)
(-828.307 738.304 0)
(-770.552 732.688 0)
(-732.433 729.498 0)
(-716.596 719.273 0)
(-663.025 696.614 0)
(-747.668 649.036 0)
(11585.5 551.661 0)
(-15741.1 4434.43 0)
(20766.3 5759.13 0)
(-15405.9 699.182 0)
(852.125 824.367 0)
(654.817 891.483 0)
(639.747 906.18 0)
(649.085 894.437 0)
(678.51 876.528 0)
(766.816 854.667 0)
(872.645 857.269 0)
(960.04 859.815 0)
(1047.37 879.796 0)
(1112.89 901.91 0)
(1177.41 932.26 0)
(1238.17 969.982 0)
(1300.24 1017.34 0)
(1352.69 1071.6 0)
(1359.36 1126.1 0)
(1230.63 1171.35 0)
(968.498 1194.86 0)
(410.606 1205.97 0)
(-410.206 1205.3 0)
(-970.618 1192.39 0)
(-1235.68 1165.97 0)
(-1368.01 1116.55 0)
(-1365.24 1056.76 0)
(-1316.55 996.264 0)
(-1259.32 941.744 0)
(-1200.75 896.177 0)
(-1145.25 856.899 0)
(-1076.77 824.521 0)
(-1009.77 791.95 0)
(-921.658 769.405 0)
(-839.381 747.529 0)
(-773.065 738.457 0)
(-735.44 738.803 0)
(-726.764 736.478 0)
(-687.601 725.271 0)
(-805.185 698.349 0)
(13685.8 618.078 0)
(-18470.6 5101.65 0)
(23882.1 6046.18 0)
(-17786.4 729.092 0)
(945.1 854.974 0)
(692.139 922.114 0)
(641.867 950.669 0)
(634.494 953.41 0)
(661.983 935.183 0)
(760.159 929.99 0)
(874.964 925.883 0)
(976.248 938.494 0)
(1072.98 962.859 0)
(1146.09 992.688 0)
(1219.18 1032.9 0)
(1288.22 1078.77 0)
(1357.37 1132.07 0)
(1411.4 1188.89 0)
(1411.06 1243.01 0)
(1265.4 1285.28 0)
(986.278 1306.12 0)
(415.974 1316.66 0)
(-417.72 1315.1 0)
(-991.266 1301.33 0)
(-1274.47 1276.22 0)
(-1424.83 1228.57 0)