/*--------------------------------*- C++ -*----------------------------------*\
| =========                 |                                                 |
| \\      /  F ield         | OpenFOAM: The Open Source CFD Toolbox           |
|  \\    /   O peration     | Version:  v1912                                 |
|   \\  /    A nd           | Website:  www.openfoam.com                      |
|    \\/     M anipulation  |                                                 |
\*---------------------------------------------------------------------------*/
FoamFile
{
    version     2.0;
    format      ascii;
    class       volVectorField;
    location    "8.24";
    object      grad(p);
}
// * * * * * * * * * * * * * * * * * * * * * * * * * * * * * * * * * * * * * //

dimensions      [1 -2 -2 0 0 0 0];


internalField   nonuniform List<vector> 
1900
(
(18551.5 -0.0203626 0)
(-31679.6 -0.238464 0)
(-2519.76 -0.538658 0)
(-437.363 -0.0628569 0)
(-274.947 0.364209 0)
(-93.6466 4.62999 0)
(121.318 6.68891 0)
(192.523 -14.8544 0)
(181.329 37.7342 0)
(1032.99 -59.7256 0)
(18551.2 -0.0808061 0)
(-31680.2 -0.347208 0)
(-2519.58 -0.720665 0)
(-436.46 0.296822 0)
(-270.254 1.24591 0)
(-87.3219 7.31923 0)
(101.834 3.90179 0)
(223.568 -33.9827 0)
(136.458 -13.1655 0)
(-43.8509 -139.726 0)
(18551 -2.00728e-09 0)
(-31680.3 3.01981e-10 0)
(-2519.11 -5.86198e-10 0)
(-435.396 -6.39488e-10 0)
(-267.924 3.55271e-10 0)
(-90.9907 2.30926e-10 0)
(80.0165 -1.24345e-10 0)
(175.456 3.73035e-10 0)
(75.5862 1.77636e-10 0)
(-161.967 -1.24345e-10 0)
(18551.2 0.0808061 0)
(-31680.2 0.347208 0)
(-2519.58 0.720665 0)
(-436.46 -0.296822 0)
(-270.254 -1.24591 0)
(-87.3219 -7.31923 0)
(101.834 -3.90179 0)
(223.568 33.9827 0)
(136.458 13.1655 0)
(-43.8509 139.726 0)
(18551.5 0.0203626 0)
(-31679.6 0.238464 0)
(-2519.76 0.538658 0)
(-437.363 0.0628569 0)
(-274.947 -0.364209 0)
(-93.6466 -4.62999 0)
(121.318 -6.68891 0)
(192.523 14.8544 0)
(181.329 -37.7342 0)
(1032.99 59.7256 0)
(26.1282 -907.295 8.48984e-12)
(-1756.94 -699.617 -9.91574e-12)
(-1638.41 -808.068 -1.24612e-11)
(472.622 -1134.91 0)
(-18740.3 -7858.22 -5.40352e-11)
(-509.847 -1070.82 8.32589e-12)
(-1126.86 -828.396 9.91574e-12)
(-1567.61 -867.289 1.24612e-11)
(-2103.63 -791.569 0)
(-17727.2 -7208.18 0)
(-862.35 -6.91878e-10 0)
(-1199.14 -2.14254e-10 0)
(-1486.08 -9.1285e-10 0)
(-2209.75 8.07435e-10 0)
(-20525.6 -7.40149e-10 0)
(-509.847 1070.82 8.32589e-12)
(-1126.86 828.396 9.91574e-12)
(-1567.61 867.289 1.24612e-11)
(-2103.63 791.569 0)
(-17727.2 7208.18 0)
(26.1282 907.295 -2.51416e-11)
(-1756.94 699.617 -9.91574e-12)
(-1638.41 808.068 -1.24612e-11)
(472.622 1134.91 -3.34688e-11)
(-18740.3 7858.22 5.40352e-11)
(-36786.1 10507.5 9.88434e-12)
(-11023.8 4077.16 -4.8175e-12)
(-4934.86 1877.08 0)
(-3143.24 1260.81 1.99145e-12)
(-1189.78 642.14 -6.6166e-13)
(-32869.9 13040.3 -5.10039e-12)
(-12940.2 3337.24 2.47014e-12)
(-5636.06 1089.63 0)
(-3511.09 761.613 -1.27412e-12)
(-1862.14 64.6494 1.70737e-13)
(-33953.6 -1.57001e-10 0)
(-14070.1 0 0)
(-5748.09 8.14164e-10 0)
(-3592.63 1.16102e-10 5.18824e-13)
(-1852.81 7.72611e-10 -3.41473e-13)
(-32869.9 -13040.3 -5.10039e-12)
(-12940.2 -3337.24 2.47014e-12)
(-5636.06 -1089.63 0)
(-3511.09 -761.613 -1.27412e-12)
(-1862.14 -64.6494 1.70737e-13)
(-36786.1 -10507.5 5.10039e-12)
(-11023.8 -4077.16 -1.22791e-13)
(-4934.86 -1877.08 0)
(-3143.24 -1260.81 3.79716e-14)
(-1189.78 -642.14 6.6166e-13)
(288.554 -1192.63 0)
(14.4438 -358.451 0)
(-166.305 533.387 0)
(-203.206 585.479 0)
(-275.529 442.522 0)
(-334.299 157.467 0)
(-417.836 -20.8072 0)
(-566.784 -143.762 0)
(-382.015 -180.457 0)
(145.109 -120.3 0)
(1449 -117.731 0)
(2221.77 -117.959 0)
(1119.05 117.88 0)
(58.7653 -17.6419 0)
(-175.137 -136.166 0)
(-138.559 -281.67 0)
(-106.991 -290.628 0)
(-199.516 -183.339 0)
(-412.73 11.6629 0)
(-675.307 77.9739 0)
(-890.557 79.8652 0)
(-1107.51 53.9099 0)
(-1377.91 56.1343 0)
(-1343.44 54.6535 0)
(-761.278 21.8524 0)
(-209.803 1.62883 0)
(-51.574 -0.561744 0)
(-30.0935 -0.548241 0)
(39.8517 -0.466202 0)
(469.691 -0.594179 0)
(994.421 0.162475 0)
(894.631 -1.52505 0)
(520.047 -2.91413 0)
(397.682 -2.84167 0)
(400.408 -2.30996 0)
(393.701 -0.00852496 0)
(380.409 1.51439 0)
(384.72 1.34593 0)
(352.985 3.11501 0)
(375.827 2.69623 0)
(-77.5949 -875.882 0)
(287.744 -815.155 0)
(31.5193 75.7998 0)
(-243.217 336.014 0)
(-379.998 336.205 0)
(-414.57 139.794 0)
(-443.27 1.09762 0)
(-554.821 -69.5151 0)
(-361.372 -46.0067 0)
(154.656 -23.7531 0)
(1464.44 -14.1354 0)
(2247.59 -79.0601 0)
(1126.01 82.4805 0)
(38.4544 47.6589 0)
(-191.225 -27.3018 0)
(-144.151 -40.2686 0)
(-97.2112 -44.2046 0)
(-168.796 -50.4933 0)
(-399.287 108.514 0)
(-685.04 308.496 0)
(-895.072 267.838 0)
(-1103.69 112.097 0)
(-1373.94 51.1204 0)
(-1351.11 24.2978 0)
(-769.668 6.35197 0)
(-212.268 0.42957 0)
(-51.759 -0.247621 0)
(-30.078 -0.217917 0)
(39.8302 -0.167033 0)
(469.694 -0.291761 0)
(994.299 -0.0147604 0)
(894.332 -0.893142 0)
(519.882 -1.73755 0)
(397.666 -1.85578 0)
(400.684 -1.75142 0)
(394.099 -0.375015 0)
(380.628 0.282534 0)
(385.17 0.198924 0)
(353.533 0.540759 0)
(374.643 0.312106 0)
(-25.6829 -4.15829e-10 0)
(291.297 5.08684e-10 0)
(168.58 2.30119e-10 0)
(-127.452 -2.86639e-10 0)
(-332.611 -4.80424e-10 0)
(-431.785 -7.38803e-10 0)
(-478.726 -4.07755e-10 0)
(-580.487 9.68922e-11 0)
(-368.702 -2.84621e-10 0)
(154.381 -4.1381e-10 0)
(1432.91 -6.56041e-10 0)
(2249.87 -8.88178e-11 0)
(1155.91 2.85428e-09 0)
(26.8286 1.38475e-09 0)
(-200.716 1.87729e-09 0)
(-143.476 1.34075e-08 0)
(-109.965 1.9443e-08 0)
(-155.088 1.39767e-08 0)
(-308.297 7.493e-09 0)
(-628.959 -3.9968e-10 0)
(-947.692 -7.69889e-09 0)
(-1170.55 -7.33151e-09 0)
(-1403.45 -2.93906e-09 0)
(-1356.46 -1.63909e-09 0)
(-768.221 -9.61857e-10 0)
(-211.723 6.52004e-10 0)
(-51.7624 1.67543e-10 0)
(-30.0701 -4.03717e-11 0)
(39.8302 9.55801e-10 0)
(469.735 2.7806e-09 0)
(994.246 1.73901e-09 0)
(894.13 -5.73481e-09 0)
(519.767 -3.53253e-09 0)
(397.678 -1.05774e-09 0)
(400.839 -9.46717e-10 0)
(394.293 -1.37668e-09 0)
(380.576 -1.20308e-09 0)
(384.795 -2.11548e-09 0)
(353.018 -1.37668e-09 0)
(375.579 -3.18937e-10 0)
(-77.5949 875.882 0)
(287.744 815.155 0)
(31.5193 -75.7998 0)
(-243.217 -336.014 0)
(-379.998 -336.205 0)
(-414.57 -139.794 0)
(-443.27 -1.09762 0)
(-554.821 69.5151 0)
(-361.372 46.0067 0)
(154.656 23.7531 0)
(1464.44 14.1354 0)
(2247.59 79.0601 0)
(1126.01 -82.4805 0)
(38.4544 -47.6589 0)
(-191.225 27.3018 0)
(-144.151 40.2686 0)
(-97.2112 44.2046 0)
(-168.796 50.4933 0)
(-399.287 -108.514 0)
(-685.04 -308.496 0)
(-895.072 -267.838 0)
(-1103.69 -112.097 0)
(-1373.94 -51.1204 0)
(-1351.11 -24.2978 0)
(-769.668 -6.35197 0)
(-212.268 -0.42957 0)
(-51.759 0.247621 0)
(-30.078 0.217917 0)
(39.8302 0.167033 0)
(469.694 0.291761 0)
(994.299 0.0147604 0)
(894.332 0.893142 0)
(519.882 1.73755 0)
(397.666 1.85578 0)
(400.684 1.75142 0)
(394.099 0.375015 0)
(380.628 -0.282534 0)
(385.17 -0.198924 0)
(353.533 -0.540759 0)
(374.643 -0.312106 0)
(288.554 1192.63 0)
(14.4438 358.451 0)
(-166.305 -533.387 0)
(-203.206 -585.479 0)
(-275.529 -442.522 0)
(-334.299 -157.467 0)
(-417.836 20.8072 0)
(-566.784 143.762 0)
(-382.015 180.457 0)
(145.109 120.3 0)
(1449 117.731 0)
(2221.77 117.959 0)
(1119.05 -117.88 0)
(58.7653 17.6419 0)
(-175.137 136.166 0)
(-138.559 281.67 0)
(-106.991 290.628 0)
(-199.516 183.339 0)
(-412.73 -11.6629 0)
(-675.307 -77.9739 0)
(-890.557 -79.8652 0)
(-1107.51 -53.9099 0)
(-1377.91 -56.1343 0)
(-1343.44 -54.6535 0)
(-761.278 -21.8524 0)
(-209.803 -1.62883 0)
(-51.574 0.561744 0)
(-30.0935 0.548241 0)
(39.8517 0.466202 0)
(469.691 0.594179 0)
(994.421 -0.162475 0)
(894.631 1.52505 0)
(520.047 2.91413 0)
(397.682 2.84167 0)
(400.408 2.30996 0)
(393.701 0.00852496 0)
(380.409 -1.51439 0)
(384.72 -1.34593 0)
(352.985 -3.11501 0)
(375.827 -2.69623 0)
(-456.187 525.397 0)
(-478.939 -90.1746 0)
(-331.848 -398.175 0)
(-232.482 -517.703 0)
(-232.311 -560.861 0)
(-216.75 -467.682 0)
(-283.725 -329.002 0)
(-440.845 -161.959 0)
(-352.22 53.2628 0)
(126.347 77.8663 0)
(1480.83 188.419 0)
(2129.66 195.755 0)
(1071.14 -159.548 0)
(174.326 -99.4926 0)
(-44.2097 -125.335 0)
(-53.7263 -15.8673 0)
(-147.584 2.00089 0)
(-322.895 -48.0985 0)
(-547.657 -125.104 0)
(-739.075 -176.982 0)
(-885.197 -169.955 0)
(-1084.39 -142.679 0)
(-1369.81 -116.29 0)
(-1338.48 -95.2928 0)
(-746.107 -36.1937 0)
(-201.059 -2.5785 0)
(-50.6073 0.961139 0)
(-30.1199 1.00526 0)
(39.8342 0.927694 0)
(469.304 0.944689 0)
(994.743 -0.830951 0)
(895.916 2.26009 0)
(520.517 4.81254 0)
(397.268 4.96284 0)
(399.225 4.04096 0)
(392.159 1.30307 0)
(380.033 -2.01535 0)
(384.687 -3.2109 0)
(353.321 -4.70866 0)
(376.92 -2.54085 0)
(-543.665 -11.9595 0)
(-610.976 135.011 0)
(-489.518 212.557 0)
(-344.278 136.601 0)
(-250.501 70.0445 0)
(-173.905 0.549661 0)
(-195.146 -82.8694 0)
(-265.951 -45.5503 0)
(-166.887 80.5189 0)
(285.411 164.806 0)
(1545.54 427.264 0)
(1935.84 225.865 0)
(860.223 -127.408 0)
(29.7669 -223.045 0)
(-164.76 -354.657 0)
(-61.3441 -345.699 0)
(-116.283 -354.224 0)
(-255.839 -363.897 0)
(-464.574 -331.635 0)
(-684.333 -279.954 0)
(-860.376 -241.952 0)
(-1068.19 -226.475 0)
(-1336.59 -219.174 0)
(-1268.91 -165.705 0)
(-680.07 -51.7978 0)
(-178.688 -2.78669 0)
(-48.639 1.61802 0)
(-30.1116 1.71985 0)
(39.8027 1.71511 0)
(468.204 1.66432 0)
(995.516 -1.35005 0)
(899.38 2.93179 0)
(522.4 7.12231 0)
(397.161 8.20435 0)
(397.516 7.6273 0)
(388.692 5.00404 0)
(376.261 0.439388 0)
(382.143 -4.04247 0)
(353.45 -5.50653 0)
(382.227 -2.34234 0)
(-337.61 6.38494 0)
(-262.586 123.603 0)
(-330.316 255.634 0)
(-369.812 268.911 0)
(-363.414 243.366 0)
(-364.104 144.136 0)
(-328.148 -27.1157 0)
(-283.398 3.2414 0)
(-149.513 186.37 0)
(460.483 308.463 0)
(1539.67 531.541 0)
(1595.15 -1.47893 0)
(638.555 -270.436 0)
(-44.6591 -324.154 0)
(-162.403 -255.29 0)
(-53.3089 -178.996 0)
(-165.119 -249.419 0)
(-301.127 -316.031 0)
(-466.767 -342.495 0)
(-652.653 -326.971 0)
(-833.662 -301.633 0)
(-1062.44 -287.734 0)
(-1311.25 -283.038 0)
(-1177.19 -206.266 0)
(-589.114 -58.4914 0)
(-149.585 -1.86944 0)
(-46.2646 2.68242 0)
(-30.0263 2.85654 0)
(39.7807 3.07598 0)
(466.35 3.06322 0)
(995.964 -0.359243 0)
(904.08 5.0022 0)
(525.598 10.5539 0)
(397.755 12.1542 0)
(396.141 11.9008 0)
(385.232 8.97104 0)
(371.315 4.34059 0)
(378.957 -1.8112 0)
(354.959 -2.94611 0)
(384.483 1.05927 0)
(-418.404 24.1542 0)
(-370.791 -38.8687 0)
(-349.494 -74.5659 0)
(-356.099 -74.9359 0)
(-370.738 -56.6714 0)
(-434.551 -82.5591 0)
(-330.917 -123.859 0)
(-60.2287 -20.895 0)
(127.236 218.173 0)
(618.03 512.11 0)
(1246.86 568.73 0)
(1163.03 -33.0689 0)
(549.282 -253.653 0)
(44.3622 -416.57 0)
(-24.8804 -230.112 0)
(-55.6866 -226.975 0)
(-248.334 -311.624 0)
(-345.53 -352.562 0)
(-475.117 -376.182 0)
(-644.957 -382.613 0)
(-822.566 -373.632 0)
(-1050.27 -359.957 0)
(-1258.08 -340.023 0)
(-1052.53 -224.753 0)
(-483.106 -54.4922 0)
(-119.739 0.301324 0)
(-44.0849 4.08064 0)
(-29.7324 4.13895 0)
(40.0018 4.73358 0)
(464.894 4.556 0)
(997.384 0.052756 0)
(909.897 5.28366 0)
(529.292 11.3064 0)
(398.459 12.8239 0)
(394.449 12.9416 0)
(381.407 9.79026 0)
(365.871 5.72353 0)
(375.121 -1.09542 0)
(356.216 -2.12132 0)
(384.046 1.86828 0)
(-351.789 28.7294 0)
(-357.717 67.3417 0)
(-365.071 65.1931 0)
(-352.568 62.2921 0)
(-370.76 65.2419 0)
(-428.849 66.5128 0)
(-268.726 204.013 0)
(46.1968 317.192 0)
(364.109 375.055 0)
(798.293 500.21 0)
(1014.31 413.091 0)
(802.677 53.367 0)
(268.999 -297.649 0)
(-21.974 -410.065 0)
(20.2979 -201.503 0)
(-131.856 -340.113 0)
(-286.14 -382.644 0)
(-363.338 -393.058 0)
(-495.726 -418.145 0)
(-650.196 -431.711 0)
(-811.83 -421.44 0)
(-1030.06 -405.553 0)
(-1180.96 -375.058 0)
(-902.043 -220.762 0)
(-372.243 -43.5409 0)
(-93.1424 2.49547 0)
(-42.5666 4.91832 0)
(-29.3971 4.84658 0)
(40.1826 5.75799 0)
(461.839 5.82857 0)
(996.665 1.35514 0)
(914.925 5.32565 0)
(532.864 9.85393 0)
(399.331 10.0152 0)
(393.218 10.3758 0)
(378.277 7.74037 0)
(360.825 4.99981 0)
(371.398 -1.41538 0)
(357.815 -2.45914 0)
(384.727 1.41662 0)
(-325.827 5.62723 0)
(-335.653 21.2605 0)
(-354.36 30.7149 0)
(-356.052 42.1277 0)
(-366.671 67.3199 0)
(-300.826 152.805 0)
(-89.354 330.919 0)
(104.594 420.539 0)
(303.599 432.99 0)
(654.683 331.31 0)
(816.271 84.9587 0)
(478.134 -260.527 0)
(102.702 -551.952 0)
(137.012 -307.958 0)
(42.5279 -342.034 0)
(-230.241 -452.964 0)
(-299.354 -426.838 0)
(-379.74 -434.962 0)
(-512.364 -460.107 0)
(-648.132 -465.184 0)
(-797.36 -447.862 0)
(-1005.58 -436.139 0)
(-1080.01 -390.768 0)
(-733.068 -196.198 0)
(-267.967 -31.8384 0)
(-73.0419 1.8156 0)
(-41.8192 2.85748 0)
(-28.9233 2.80837 0)
(40.9481 3.96484 0)
(460.651 3.61846 0)
(996.899 -3.61428 0)
(918.086 -1.55987 0)
(533.811 2.21528 0)
(398.962 1.52443 0)
(392.257 2.2407 0)
(376.227 1.31649 0)
(357.048 1.43149 0)
(367.933 -2.29754 0)
(358.945 -2.78269 0)
(385.05 0.807565 0)
(-325.879 -1.59203 0)
(-333.541 1.7781 0)
(-344.963 14.6605 0)
(-317.294 54.6772 0)
(-264.108 115.833 0)
(-174.835 210.2 0)
(-10.7284 270.846 0)
(144.555 267.425 0)
(278.126 255.298 0)
(462.917 202.719 0)
(443.998 -82.3913 0)
(188.926 -443.456 0)
(223.293 -406.034 0)
(180.311 -335.837 0)
(-119.435 -509.233 0)
(-213.577 -475.381 0)
(-268.793 -449.861 0)
(-395.398 -470.998 0)
(-524.849 -492.21 0)
(-638.396 -486.942 0)
(-783.84 -469.229 0)
(-975.038 -460.433 0)
(-949.746 -378.221 0)
(-556.165 -152.626 0)
(-181.43 -21.6431 0)
(-59.7082 -0.694594 0)
(-41.6099 -0.230543 0)
(-28.33 0.130049 0)
(40.9633 1.66322 0)
(454.536 1.20499 0)
(991.675 -7.4869 0)
(920.542 -1.2199 0)
(535.836 10.463 0)
(399.355 11.9182 0)
(393.017 8.04131 0)
(377.497 1.76483 0)
(357.343 -1.43336 0)
(367.337 -3.24597 0)
(360.807 -2.52077 0)
(386.63 0.986051 0)
(-325.647 2.69653 0)
(-319.991 15.1711 0)
(-303.384 21.6122 0)
(-258.559 39.7364 0)
(-216.803 65.5523 0)
(-151.45 118.697 0)
(-34.21 157.031 0)
(89.612 125.765 0)
(241.246 84.6435 0)
(329.273 -1.43823 0)
(193.592 -292.765 0)
(166.26 -414.926 0)
(206.408 -306.626 0)
(37.566 -453.363 0)
(-91.942 -475.542 0)
(-173.028 -441.163 0)
(-295.13 -472.389 0)
(-420.55 -507.708 0)
(-527.728 -508.775 0)
(-625.987 -480.006 0)
(-771.815 -458.615 0)
(-917.877 -448.518 0)
(-783.397 -307.163 0)
(-389.457 -83.4505 0)
(-121.56 8.38141 0)
(-52.408 19.9853 0)
(-41.0246 20.6496 0)
(-27.0984 21.8184 0)
(41.984 24.0822 0)
(451.834 26.4798 0)
(994.563 35.1125 0)
(935.384 68.5987 0)
(546.471 95.2189 0)
(396.628 98.2992 0)
(382.473 90.4061 0)
(367.097 68.7392 0)
(352.219 37.0643 0)
(366.885 9.41054 0)
(363.024 1.32012 0)
(386.529 1.77492 0)
(-308.661 9.02882 0)
(-315.313 3.25262 0)
(-321.291 -12.2614 0)
(-274.952 3.55779 0)
(-188.018 40.6246 0)
(-86.6827 94.962 0)
(-3.91731 96.7212 0)
(74.8004 32.9077 0)
(155.547 -36.8971 0)
(99.2326 -213.35 0)
(45.5461 -382.928 0)
(175.569 -269.617 0)
(186.253 -309.996 0)
(17.5381 -415.81 0)
(-107.678 -423.173 0)
(-210.539 -454.913 0)
(-332.918 -472.893 0)
(-430.461 -455.339 0)
(-498.155 -409.873 0)
(-590.06 -357.277 0)
(-753.497 -327.074 0)
(-829.094 -309.214 0)
(-597.954 -135.021 0)
(-252.095 67.2265 0)
(-81.7557 129.706 0)
(-47.8861 142.314 0)
(-39.8435 148.156 0)
(-25.0223 154.769 0)
(45.4551 161.296 0)
(465.165 185.705 0)
(1032.26 310.616 0)
(978.463 465.649 0)
(564.456 502.143 0)
(394.717 445.795 0)
(364.532 354.154 0)
(326.095 248.742 0)
(300.171 158.887 0)
(332.892 88.2656 0)
(353.449 30.0518 0)
(383.648 6.35597 0)
(-313.812 23.8374 0)
(-340.507 -50.2496 0)
(-303.09 -45.0362 0)
(-207.596 -7.83002 0)
(-128.723 0.148918 0)
(-97.3936 -46.1109 0)
(-94.0077 -130.153 0)
(-39.1475 -143.514 0)
(3.94322 -161.949 0)
(-4.17477 -243.658 0)
(139.372 -188.81 0)
(236.54 -198.409 0)
(65.5304 -356.935 0)
(-71.4958 -405.234 0)
(-129.623 -369.631 0)
(-220.941 -316.063 0)
(-295.541 -236.225 0)
(-359.821 -122.732 0)
(-433.232 19.3722 0)
(-546.199 108.14 0)
(-725.499 95.2541 0)
(-732.807 174.488 0)
(-420.646 411.441 0)
(-134.357 567.261 0)
(-49.2033 608.3 0)
(-34.6285 623.066 0)
(-29.0219 630.236 0)
(-14.436 638.652 0)
(71.7944 654.353 0)
(595.724 749.964 0)
(1264.33 1076.63 0)
(1119.95 1268.56 0)
(527.339 1238.93 0)
(254.02 1088.05 0)
(192.585 909.327 0)
(178.931 696.283 0)
(197.579 465.927 0)
(242.734 264.675 0)
(284.092 111.13 0)
(351.445 15.241 0)
(-334.113 -18.0643 0)
(-381.683 -108.236 0)
(-280.414 -145.616 0)
(-231.41 -194.587 0)
(-224.907 -258.795 0)
(-212.246 -250.852 0)
(-97.7785 -164.762 0)
(44.1601 -107.946 0)
(59.0454 -138.771 0)
(73.3485 -142.185 0)
(89.1496 -136.971 0)
(13.5583 -212.958 0)
(-13.0512 -192.453 0)
(5.30303 -21.9933 0)
(-21.7498 157.99 0)
(-81.9836 364.131 0)
(-146.618 577.415 0)
(-184.158 748.878 0)
(-275.678 826.526 0)
(-516.937 756.674 0)
(-689.562 629.608 0)
(-524.404 740.503 0)
(-219.463 963.419 0)
(-62.3949 1034.29 0)
(-27.9799 1039.04 0)
(-26.7481 1034.75 0)
(-24.8249 1025.89 0)
(-1.78194 1020.95 0)
(152.72 1042.56 0)
(872.087 1171.91 0)
(1532 1428.83 0)
(1134.86 1419.76 0)
(390.507 1339.94 0)
(77.1007 1223.55 0)
(-12.9895 1148.74 0)
(-101.181 1043.26 0)
(-115.741 833.731 0)
(-9.00363 560.731 0)
(113.085 295.767 0)
(261.873 48.5228 0)
(-435.52 -87.5251 0)
(-463.421 -15.3345 0)
(-386.301 -8.07296 0)
(-316.659 50.7647 0)
(-182.942 138.38 0)
(-6.7799 226.064 0)
(43.7019 239.605 0)
(-14.1016 169.477 0)
(-29.0511 118.025 0)
(-2.4402 175.634 0)
(71.1723 318.613 0)
(183.076 577.342 0)
(249.551 916.63 0)
(266.204 1167.83 0)
(242.461 1288.6 0)
(183.232 1314.13 0)
(75.2151 1282.27 0)
(-119.768 1169.12 0)
(-425.72 897.066 0)
(-735.956 578.785 0)
(-741.083 524.168 0)
(-411.135 720.975 0)
(-137.546 844.168 0)
(-61.4873 855.457 0)
(-48.7538 837.069 0)
(-47.2975 821.517 0)
(-42.3266 807.145 0)
(1.62561 798.091 0)
(217.273 819.247 0)
(967.952 878.842 0)
(1503.16 866.435 0)
(1034.29 749.901 0)
(338.265 744.728 0)
(69.7706 739.771 0)
(18.8541 786.113 0)
(-124.622 841.171 0)
(-267.408 824.384 0)
(-275.667 702.088 0)
(-209.49 460.815 0)
(19.675 118.08 0)
(-433.232 156.641 0)
(-305.12 406.747 0)
(-216.718 668.887 0)
(-90.2828 943.673 0)
(-55.9822 1213.29 0)
(-114.701 1403.3 0)
(-152.308 1520.94 0)
(-72.9996 1658.09 0)
(64.9786 1732.3 0)
(266.643 1773.35 0)
(476.25 1868.57 0)
(589.829 1896.94 0)
(555.962 1829.54 0)
(363.743 1654.71 0)
(119.23 1383.45 0)
(-88.0794 1053.47 0)
(-286.357 708.767 0)
(-555.355 351.866 0)
(-844.542 11.2843 0)
(-876.276 -86.2641 0)
(-552.543 167.686 0)
(-216.041 424.063 0)
(-89.8713 493.701 0)
(-69.2356 495.665 0)
(-60.6855 488.796 0)
(-55.5837 485.573 0)
(-47.3986 483.383 0)
(9.87934 482.842 0)
(230.534 497.036 0)
(917.559 468.189 0)
(1407.75 300.391 0)
(1017.58 206.25 0)
(380.746 246.867 0)
(116.981 274.031 0)
(84.7225 312.422 0)
(-64.3015 372.971 0)
(-249.766 425.465 0)
(-359.352 442.963 0)
(-449.687 374.303 0)
(-295.971 147.068 0)
(107.381 392.998 0)
(30.1981 756.328 0)
(131.1 1208.64 0)
(207.945 1553.81 0)
(259.969 1867.86 0)
(289.688 2186.18 0)
(289.233 2591.95 0)
(189.572 2871.22 0)
(82.0147 2857.56 0)
(128.876 2587.83 0)
(190.271 2125.93 0)
(145.461 1598.44 0)
(16.1219 1044.7 0)
(-163.661 570.964 0)
(-336.914 251.523 0)
(-466.92 19.7343 0)
(-600.874 -223.866 0)
(-791.888 -448.964 0)
(-847.918 -449.207 0)
(-585.242 -134.323 0)
(-249.313 209.383 0)
(-96.9754 348.952 0)
(-68.5475 375.534 0)
(-66.2135 380.027 0)
(-58.4789 383.237 0)
(-52.5134 388.397 0)
(-44.9581 394.055 0)
(14.7817 396.747 0)
(203.153 399.761 0)
(778.458 324.943 0)
(1250.75 91.6537 0)
(982.709 16.0684 0)
(403.581 66.5483 0)
(132.941 86.9827 0)
(114.196 80.3289 0)
(-15.6895 80.6838 0)
(-199.962 100.416 0)
(-324.968 112.724 0)
(-494.625 112.382 0)
(-482.737 57.6907 0)
(674.3 306.238 0)
(480.862 565.688 0)
(551.762 882.615 0)
(544.97 1083.54 0)
(553.4 1255.24 0)
(583.057 1401.74 0)
(507.818 1581.68 0)
(182.95 1645.49 0)
(-208.105 1566.92 0)
(-438.379 1275.55 0)
(-477.164 767.996 0)
(-452.086 277.497 0)
(-434.152 -80.8671 0)
(-400.593 -293.767 0)
(-411.955 -401.611 0)
(-546.181 -474.595 0)
(-738.011 -557.188 0)
(-772.502 -517.817 0)
(-541.342 -217.903 0)
(-241.634 134.923 0)
(-86.8415 313.419 0)
(-55.9316 356.763 0)
(-59.9263 364.422 0)
(-61.8126 367.806 0)
(-52.6199 373.174 0)
(-45.1594 380.022 0)
(-39.3527 388.385 0)
(15.3784 392.377 0)
(161.342 378.615 0)
(620.655 302.752 0)
(1110.11 40.03 0)
(993.386 -32.7865 0)
(449.082 40.2585 0)
(130.26 89.2832 0)
(78.6526 49.0742 0)
(-44.9448 22.2606 0)
(-218.891 20.1562 0)
(-347.821 -6.44811 0)
(-502.719 -41.2325 0)
(-459.86 -19.2125 0)
(947.601 29.7833 0)
(585.616 67.6963 0)
(630.125 110.215 0)
(567.016 117.384 0)
(566.591 146.916 0)
(604.259 205.61 0)
(524.123 279.212 0)
(175.351 299.928 0)
(-274.472 265.886 0)
(-640.995 101.868 0)
(-771.491 -177.501 0)
(-672.534 -375.22 0)
(-534.368 -429.315 0)
(-472.742 -454.127 0)
(-511.166 -534.599 0)
(-616.84 -609.775 0)
(-642.524 -524.155 0)
(-464.941 -229.234 0)
(-218.914 95.4509 0)
(-73.241 276.439 0)
(-35.5397 331.265 0)
(-47.8264 340.845 0)
(-57.9062 343.079 0)
(-57.7799 347.788 0)
(-46.7066 354.726 0)
(-37.8555 362.04 0)
(-33.0529 371.121 0)
(5.3668 376.728 0)
(116.787 347.283 0)
(452.185 289.667 0)
(927.409 3.91242 0)
(982.929 -160.602 0)
(521.212 -110.544 0)
(141.436 -27.3382 0)
(49.6111 -64.5543 0)
(-43.5559 -71.2084 0)
(-227.626 -48.9113 0)
(-384.125 -65.0589 0)
(-506.925 -117.751 0)
(-424.49 -57.3051 0)
(768.234 -219.47 0)
(558.369 -338.258 0)
(599.643 -381.214 0)
(580.337 -418.758 0)
(638.417 -384.897 0)
(710.542 -338.25 0)
(598.707 -319.497 0)
(170.108 -345.619 0)
(-398.963 -400.836 0)
(-865.642 -546.907 0)
(-936.903 -659.412 0)
(-694.743 -631.071 0)
(-510.189 -568.613 0)
(-502.048 -549.792 0)
(-561.942 -555.543 0)
(-536.118 -463.103 0)
(-371.309 -217.341 0)
(-175.426 62.1812 0)
(-54.0571 232.121 0)
(-14.3955 296.382 0)
(-24.7776 308.38 0)
(-44.5474 312.545 0)
(-53.2359 317.427 0)
(-50.5888 324.75 0)
(-38.8857 332.799 0)
(-29.3605 339.528 0)
(-25.1997 348.003 0)
(-7.59267 354.498 0)
(77.4477 330.554 0)
(289.771 271.631 0)
(676.213 30.6171 0)
(883.091 -248.752 0)
(577.5 -287.294 0)
(174.578 -208.924 0)
(36.3776 -227.213 0)
(-29.8706 -248.709 0)
(-212.965 -236.983 0)
(-414.158 -160.919 0)
(-495.247 -141.758 0)
(-291.169 -134.976 0)
(410.154 -207.149 0)
(429.753 -663.394 0)
(552.552 -572.762 0)
(563.467 -655.475 0)
(644.171 -667.572 0)
(667.281 -723.813 0)
(517.022 -855.399 0)
(96.9696 -980.346 0)
(-468.44 -1046.92 0)
(-890.168 -1053.29 0)
(-852.595 -874.474 0)
(-585.037 -672.003 0)
(-456.045 -560.411 0)
(-460.148 -479.835 0)
(-427.63 -343.448 0)
(-290.935 -129.863 0)
(-136.341 87.9102 0)
(-31.8229 225.26 0)
(6.77009 284.703 0)
(0.244385 298.36 0)
(-19.9645 302.893 0)
(-39.108 310.475 0)
(-46.1443 322.04 0)
(-42.9666 334.539 0)
(-32.4667 346.477 0)
(-23.2052 353.799 0)
(-18.6266 361.622 0)
(-11.4476 368.042 0)
(36.9332 361.855 0)
(163.155 297.603 0)
(425.95 129.111 0)
(676.578 -188.693 0)
(559.591 -373.841 0)
(199.332 -352.575 0)
(11.2733 -357.91 0)
(-52.9703 -395.002 0)
(-143.029 -430.829 0)
(-292.363 -304.084 0)
(-481.926 -231.05 0)
(-157.819 -496.421 0)
(-70.6526 5866.28 0)
(206.052 -616.471 0)
(607.274 -560.875 0)
(488.974 -704.656 0)
(572.565 -836.742 0)
(529.546 -1042.15 0)
(351.502 -1322.68 0)
(-14.4455 -1538.03 0)
(-469.259 -1602.05 0)
(-699.471 -1378.47 0)
(-569.477 -973.651 0)
(-392.101 -681.216 0)
(-325.009 -497.794 0)
(-292.975 -310.475 0)
(-224.697 -81.0045 0)
(-120.446 113.495 0)
(-29.0993 225.387 0)
(14.21 267.336 0)
(16.3845 267.795 0)
(3.13361 264.56 0)
(-13.1027 268.928 0)
(-26.0969 283.098 0)
(-30.0468 303.812 0)
(-27.0407 325.111 0)
(-20.3261 344.525 0)
(-14.7661 357.471 0)
(-11.4754 368.059 0)
(-7.36814 376.432 0)
(9.57109 380.673 0)
(65.4906 341.777 0)
(207.6 221.221 0)
(398.428 -66.6473 0)
(419.577 -393.049 0)
(189.93 -502.449 0)
(-4.50699 -510.714 0)
(-100.138 -513.107 0)
(-125.353 -504.711 0)
(-221.643 -488.86 0)
(-680.59 -684.156 0)
(409.849 312.014 0)
(5469.06 -6084.45 0)
(-5763.69 482.331 0)
(467.574 -317.095 0)
(297.632 -633.077 0)
(318.947 -1133.38 0)
(199.01 -1558.23 0)
(39.174 -1889.43 0)
(-172.235 -1963.65 0)
(-314.68 -1695.71 0)
(-284.623 -1150.13 0)
(-180.696 -674.479 0)
(-126.485 -371.647 0)
(-98.7856 -136.324 0)
(-58.514 68.1398 0)
(-19.0772 228.428 0)
(4.31412 321.113 0)
(11.906 348.942 0)
(9.04318 338.955 0)
(4.09498 324.811 0)
(1.33679 317.703 0)
(-2.10084 320.172 0)
(-5.49263 333.48 0)
(-5.65885 352.953 0)
(-3.73467 370.533 0)
(-1.28282 384.89 0)
(-0.526986 392.958 0)
(-0.355088 400.76 0)
(0.708263 405.235 0)
(3.53766 407.672 0)
(9.50179 391.631 0)
(32.3777 329.849 0)
(84.6451 142.598 0)
(139.637 -171.453 0)
(85.9457 -437.718 0)
(1.00346 -457.739 0)
(-47.1856 -434.083 0)
(-119.664 -304.855 0)
(-465.282 -179.82 0)
(289.826 407.992 0)
(200.791 225.691 0)
(5469.06 6084.45 0)
(-5763.69 -482.331 0)
(467.574 317.095 0)
(297.632 633.077 0)
(318.947 1133.38 0)
(199.01 1558.23 0)
(39.174 1889.43 0)
(-172.235 1963.65 0)
(-314.68 1695.71 0)
(-284.623 1150.13 0)
(-180.696 674.479 0)
(-126.485 371.647 0)
(-98.7856 136.324 0)
(-58.514 -68.1398 0)
(-19.0772 -228.428 0)
(4.31412 -321.113 0)
(11.906 -348.942 0)
(9.04318 -338.955 0)
(4.09498 -324.811 0)
(1.33679 -317.703 0)
(-2.10084 -320.172 0)
(-5.49263 -333.48 0)
(-5.65885 -352.953 0)
(-3.73467 -370.533 0)
(-1.28282 -384.89 0)
(-0.526986 -392.958 0)
(-0.355088 -400.76 0)
(0.708263 -405.235 0)
(3.53766 -407.672 0)
(9.50179 -391.631 0)
(32.3777 -329.849 0)
(84.6451 -142.598 0)
(139.637 171.453 0)
(85.9457 437.718 0)
(1.00346 457.739 0)
(-47.1856 434.083 0)
(-119.664 304.855 0)
(-465.282 179.82 0)
(289.826 -407.992 0)
(200.791 -225.691 0)
(-70.6526 -5866.28 0)
(206.052 616.471 0)
(607.274 560.875 0)
(488.974 704.656 0)
(572.565 836.742 0)
(529.546 1042.15 0)
(351.502 1322.68 0)
(-14.4455 1538.03 0)
(-469.259 1602.05 0)
(-699.471 1378.47 0)
(-569.477 973.651 0)
(-392.101 681.216 0)
(-325.009 497.794 0)
(-292.975 310.475 0)
(-224.697 81.0045 0)
(-120.446 -113.495 0)
(-29.0993 -225.387 0)
(14.21 -267.336 0)
(16.3845 -267.795 0)
(3.13361 -264.56 0)
(-13.1027 -268.928 0)
(-26.0969 -283.098 0)
(-30.0468 -303.812 0)
(-27.0407 -325.111 0)
(-20.3261 -344.525 0)
(-14.7661 -357.471 0)
(-11.4754 -368.059 0)
(-7.36814 -376.432 0)
(9.57109 -380.673 0)
(65.4906 -341.777 0)
(207.6 -221.221 0)
(398.428 66.6473 0)
(419.577 393.049 0)
(189.93 502.449 0)
(-4.50699 510.714 0)
(-100.138 513.107 0)
(-125.353 504.711 0)
(-221.643 488.86 0)
(-680.59 684.156 0)
(409.849 -312.014 0)
(410.154 207.149 0)
(429.753 663.394 0)
(552.552 572.762 0)
(563.467 655.475 0)
(644.171 667.572 0)
(667.281 723.813 0)
(517.022 855.399 0)
(96.9696 980.346 0)
(-468.44 1046.92 0)
(-890.168 1053.29 0)
(-852.595 874.474 0)
(-585.037 672.003 0)
(-456.045 560.411 0)
(-460.148 479.835 0)
(-427.63 343.448 0)
(-290.935 129.863 0)
(-136.341 -87.9102 0)
(-31.8229 -225.26 0)
(6.77009 -284.703 0)
(0.244385 -298.36 0)
(-19.9645 -302.893 0)
(-39.108 -310.475 0)
(-46.1443 -322.04 0)
(-42.9666 -334.539 0)
(-32.4667 -346.477 0)
(-23.2052 -353.799 0)
(-18.6266 -361.622 0)
(-11.4476 -368.042 0)
(36.9332 -361.855 0)
(163.155 -297.603 0)
(425.95 -129.111 0)
(676.578 188.693 0)
(559.591 373.841 0)
(199.332 352.575 0)
(11.2733 357.91 0)
(-52.9703 395.002 0)
(-143.029 430.829 0)
(-292.363 304.084 0)
(-481.926 231.05 0)
(-157.819 496.421 0)
(768.234 219.47 0)
(558.369 338.258 0)
(599.643 381.214 0)
(580.337 418.758 0)
(638.417 384.897 0)
(710.542 338.25 0)
(598.707 319.497 0)
(170.108 345.619 0)
(-398.963 400.836 0)
(-865.642 546.907 0)
(-936.903 659.412 0)
(-694.743 631.071 0)
(-510.189 568.613 0)
(-502.048 549.792 0)
(-561.942 555.543 0)
(-536.118 463.103 0)
(-371.309 217.341 0)
(-175.426 -62.1812 0)
(-54.0571 -232.121 0)
(-14.3955 -296.382 0)
(-24.7776 -308.38 0)
(-44.5474 -312.545 0)
(-53.2359 -317.427 0)
(-50.5888 -324.75 0)
(-38.8857 -332.799 0)
(-29.3605 -339.528 0)
(-25.1997 -348.003 0)
(-7.59267 -354.498 0)
(77.4477 -330.554 0)
(289.771 -271.631 0)
(676.213 -30.6171 0)
(883.091 248.752 0)
(577.5 287.294 0)
(174.578 208.924 0)
(36.3776 227.213 0)
(-29.8706 248.709 0)
(-212.965 236.983 0)
(-414.158 160.919 0)
(-495.247 141.758 0)
(-291.169 134.976 0)
(947.601 -29.7833 0)
(585.616 -67.6963 0)
(630.125 -110.215 0)
(567.016 -117.384 0)
(566.591 -146.916 0)
(604.259 -205.61 0)
(524.123 -279.212 0)
(175.351 -299.928 0)
(-274.472 -265.886 0)
(-640.995 -101.868 0)
(-771.491 177.501 0)
(-672.534 375.22 0)
(-534.368 429.315 0)
(-472.742 454.127 0)
(-511.166 534.599 0)
(-616.84 609.775 0)
(-642.524 524.155 0)
(-464.941 229.234 0)
(-218.914 -95.4509 0)
(-73.241 -276.439 0)
(-35.5397 -331.265 0)
(-47.8264 -340.845 0)
(-57.9062 -343.079 0)
(-57.7799 -347.788 0)
(-46.7066 -354.726 0)
(-37.8555 -362.04 0)
(-33.0529 -371.121 0)
(5.3668 -376.728 0)
(116.787 -347.283 0)
(452.185 -289.667 0)
(927.409 -3.91242 0)
(982.929 160.602 0)
(521.212 110.544 0)
(141.436 27.3382 0)
(49.6111 64.5543 0)
(-43.5559 71.2084 0)
(-227.626 48.9113 0)
(-384.125 65.0589 0)
(-506.925 117.751 0)
(-424.49 57.3051 0)
(674.3 -306.238 0)
(480.862 -565.688 0)
(551.762 -882.615 0)
(544.97 -1083.54 0)
(553.4 -1255.24 0)
(583.057 -1401.74 0)
(507.818 -1581.68 0)
(182.95 -1645.49 0)
(-208.105 -1566.92 0)
(-438.379 -1275.55 0)
(-477.164 -767.996 0)
(-452.086 -277.497 0)
(-434.152 80.8671 0)
(-400.593 293.767 0)
(-411.955 401.611 0)
(-546.181 474.595 0)
(-738.011 557.188 0)
(-772.502 517.817 0)
(-541.342 217.903 0)
(-241.634 -134.923 0)
(-86.8415 -313.419 0)
(-55.9316 -356.763 0)
(-59.9263 -364.422 0)
(-61.8126 -367.806 0)
(-52.6199 -373.174 0)
(-45.1594 -380.022 0)
(-39.3527 -388.385 0)
(15.3784 -392.377 0)
(161.342 -378.615 0)
(620.655 -302.752 0)
(1110.11 -40.03 0)
(993.386 32.7865 0)
(449.082 -40.2585 0)
(130.26 -89.2832 0)
(78.6526 -49.0742 0)
(-44.9448 -22.2606 0)
(-218.891 -20.1562 0)
(-347.821 6.44811 0)
(-502.719 41.2325 0)
(-459.86 19.2125 0)
(107.381 -392.998 0)
(30.1981 -756.328 0)
(131.1 -1208.64 0)
(207.945 -1553.81 0)
(259.969 -1867.86 0)
(289.688 -2186.18 0)
(289.233 -2591.95 0)
(189.572 -2871.22 0)
(82.0147 -2857.56 0)
(128.876 -2587.83 0)
(190.271 -2125.93 0)
(145.461 -1598.44 0)
(16.1219 -1044.7 0)
(-163.661 -570.964 0)
(-336.914 -251.523 0)
(-466.92 -19.7343 0)
(-600.874 223.866 0)
(-791.888 448.964 0)
(-847.918 449.207 0)
(-585.242 134.323 0)
(-249.313 -209.383 0)
(-96.9754 -348.952 0)
(-68.5475 -375.534 0)
(-66.2135 -380.027 0)
(-58.4789 -383.237 0)
(-52.5134 -388.397 0)