/*--------------------------------*- C++ -*----------------------------------*\
| =========                 |                                                 |
| \\      /  F ield         | OpenFOAM: The Open Source CFD Toolbox           |
|  \\    /   O peration     | Version:  v1912                                 |
|   \\  /    A nd           | Website:  www.openfoam.com                      |
|    \\/     M anipulation  |                                                 |
\*---------------------------------------------------------------------------*/
FoamFile
{
    version     2.0;
    format      ascii;
    class       volScalarField;
    location    "6.88";
    object      rho;
}
// * * * * * * * * * * * * * * * * * * * * * * * * * * * * * * * * * * * * * //

dimensions      [1 -3 0 0 0 0 0];


internalField   nonuniform List<scalar> 
1900
(
30496.3
13845.4
13026.1
12996.4
12864.4
12704.5
12573.7
12503.1
12461.5
12442.3
30496.3
13845.4
13026.1
12996.5
12864.6
12704.8
12574.9
12501.6
12467.7
12435.8
30496.4
13845.4
13026.1
12996.5
12864.7
12704.9
12574.8
12499.8
12459.2
12423.5
30496.3
13845.4
13026.1
12996.5
12864.6
12704.8
12574.9
12501.6
12467.7
12435.8
30496.3
13845.4
13026.1
12996.4
12864.4
12704.5
12573.7
12503.1
12461.5
12442.3
12572.9
12397
12266.2
11916.3
11794
12424.6
12307.4
12195.5
11863.1
11386.1
12391.2
12288.5
12188.8
11901.7
11455.5
12424.6
12307.4
12195.5
11863.1
11386.1
12572.9
12397
12266.2
11916.3
11794
6254.6
4246.38
3322.39
2791.62
2258.38
6896.75
4576.7
3505.26
2937.82
2405.54
7086.44
4533.11
3431.14
2878.25
2338.15
6896.75
4576.7
3505.26
2937.82
2405.54
6254.6
4246.38
3322.39
2791.62
2258.38
2254.5
2161.86
1995.79
1726.08
1706.73
2072.83
2985.31
3172.61
3204.39
3268.07
3218.42
3015.97
2754.39
2467.75
2120.86
1775.9
1575.34
1489.98
1437.71
1393.06
1352.39
1320.18
1299.83
1289.47
1284.79
1282.84
1282.03
1282.81
1284.79
1288.49
1293.73
1303.74
1315.68
1332.6
1367.12
1472.07
1828.6
2194.75
2434.71
2427.19
2107.65
2026.56
1894.74
1682.8
1665.95
2058.16
2974.49
3148.47
3194.29
3257.36
3218.27
3034.81
2771.81
2477.97
2126.34
1778.1
1575.95
1490.1
1437.77
1393.27
1352.46
1320.14
1299.75
1289.4
1284.72
1282.78
1281.98
1282.75
1284.74
1288.45
1293.69
1303.72
1315.65
1332.6
1367.08
1471.89
1828.38
2195.14
2434.74
2427.07
2064.16
1997.34
1867.91
1654.37
1635.82
2023.3
2971.18
3146.5
3193.81
3265.98
3227.53
3030.79
2765.22
2475.88
2127.73
1779.49
1576.31
1490.17
1437.81
1393.35
1352.5
1320.14
1299.73
1289.37
1284.7
1282.76
1281.96
1282.74
1284.73
1288.43
1293.67
1303.7
1315.64
1332.59
1367.07
1471.79
1828.31
2195.31
2434.83
2427.27
2107.65
2026.56
1894.74
1682.8
1665.95
2058.16
2974.49
3148.47
3194.29
3257.36
3218.27
3034.81
2771.81
2477.97
2126.34
1778.1
1575.95
1490.1
1437.77
1393.27
1352.46
1320.14
1299.75
1289.4
1284.72
1282.78
1281.98
1282.75
1284.74
1288.45
1293.69
1303.72
1315.65
1332.6
1367.08
1471.89
1828.38
2195.14
2434.74
2427.07
2254.5
2161.86
1995.79
1726.08
1706.73
2072.83
2985.31
3172.61
3204.39
3268.07
3218.42
3015.97
2754.39
2467.75
2120.86
1775.9
1575.34
1489.98
1437.71
1393.06
1352.39
1320.18
1299.83
1289.47
1284.79
1282.84
1282.03
1282.81
1284.79
1288.49
1293.73
1303.74
1315.68
1332.6
1367.12
1472.07
1828.6
2194.75
2434.71
2427.19
2793.01
2506.97
2263.85
1895.99
1875.64
2233.03
2922.56
3058.88
3130.87
3214.36
3170.1
2980.61
2729.94
2448.31
2102.93
1764.2
1571.76
1489.29
1437.2
1392.14
1351.93
1320.26
1300.15
1289.83
1285.1
1283.12
1282.29
1283.04
1285.01
1288.69
1293.92
1303.82
1315.76
1332.56
1367.31
1472.51
1829.04
2192.57
2433.61
2426.88
2978.38
2643.41
2305.19
2139.56
2203.75
2455.74
2806.3
2963.32
3095.15
3134.39
3049.65
2863.27
2641.87
2382.48
2050.77
1734.41
1563.23
1487.43
1435.65
1390.23
1350.82
1320.3
1300.86
1290.67
1285.87
1283.79
1282.9
1283.61
1285.54
1289.19
1294.38
1304.09
1315.91
1332.48
1367.65
1473.54
1830.25
2189.72
2430.93
2425.14
2997.87
2686.65
2500.61
2490.15
2504.68
2618.5
2745.46
2915.72
3000.42
2982.73
2886.53
2733.28
2544.1
2296.02
1974.03
1693.25
1552.35
1484.53
1433.15
1387.82
1349.53
1320.48
1301.98
1292.06
1287.19
1284.98
1284
1284.62
1286.49
1290.08
1295.22
1304.65
1316.28
1332.46
1368.2
1475.26
1832.14
2186.74
2426.74
2422.39
2932.1
2727.93
2647.51
2616.45
2613.37
2630.95
2700.03
2806.89
2849.8
2821.28
2732.58
2604.79
2433.99
2187.53
1881.78
1650.56
1541.71
1480.83
1430
1385.27
1348.4
1321.05
1303.65
1294.09
1289.18
1286.81
1285.7
1286.2
1287.98
1291.48
1296.56
1305.68
1316.99
1332.72
1369.11
1477.82
1834.73
2184.26
2422.2
2419.41
2827.93
2724.02
2621.64
2521.82
2477.26
2516.81
2623.06
2704.73
2703.24
2657.65
2586.27
2476.48
2308.83
2059.21
1786.48
1613.68
1531.7
1476.01
1426.11
1382.63
1347.67
1322.2
1306.01
1296.88
1291.92
1289.38
1288.11
1288.42
1290.08
1293.48
1298.46
1307.23
1318.12
1333.41
1370.44
1480.87
1837.24
2181.94
2416.79
2415.63
2681.28
2595.77
2422.43
2370.08
2422.96
2500.68
2556.54
2553.84
2544.46
2507.82
2449.42
2344.34
2167.89
1922.99
1704.49
1586.77
1523.16
1471.01
1422.3
1380.54
1347.81
1324.33
1309.36
1300.65
1295.66
1292.94
1291.46
1291.57
1293.11
1296.37
1301.25
1309.68
1320.17
1335.03
1372.72
1485.41
1841.53
2181.77
2413.27
2413.59
2482.04
2513.79
2418.58
2401.79
2415.92
2409.97
2410.67
2408.5
2396.08
2370.88
2316.75
2202.91
2016.24
1798.27
1645.45
1567.04
1514.11
1464.64
1418
1378.82
1348.55
1327.16
1313.44
1305.17
1300.15
1297.22
1295.51
1295.41
1296.8
1299.91
1304.65
1312.76
1322.88
1337.37
1375.48
1489.59
1844.55
2181.28
2408.88
2409.81
2533.86
2533.35
2446.33
2364.25
2312.01
2281.64
2268.29
2270.51
2265.17
2244.8
2180.48
2051.78
1868.75
1702.81
1607.42
1552.55
1506.03
1458.77
1414.58
1378.35
1350.67
1331.36
1318.79
1310.91
1305.83
1302.68
1300.76
1300.48
1301.67
1304.6
1309.19
1317.02
1326.86
1341.13
1379.7
1495.63
1849.98
2182.97
2406.05
2407.64
2524.54
2524.73
2431.84
2296.24
2189.36
2142.78
2140.2
2150.5
2149.13
2121.35
2039.56
1902.5
1748.51
1642.14
1582.53
1539.83
1496.99
1452.28
1411.4
1378.21
1353.3
1336.01
1324.58
1317.1
1312.01
1308.71
1306.65
1306.23
1307.23
1310.03
1314.51
1322.14
1331.84
1346.18
1385.01
1501.85
1855.1
2185.46
2403.84
2404.75
2537.61
2535.93
2403.68
2203.85
2065.06
2022.1
2034.79
2046.54
2040.38
1995.89
1899.81
1774.42
1668.76
1606.06
1566.14
1530.3
1489.83
1447.48
1410.13
1380.16
1358.07
1342.65
1332.17
1324.99
1319.87
1316.41
1314.2
1313.6
1314.41
1317.06
1321.44
1328.92
1338.58
1353.2
1392.24
1510.12
1862.73
2189.72
2402.45
2402.46
2531.45
2525.17
2359.82
2106.91
1959.92
1931.82
1948.67
1952.02
1933.9
1873.1
1777.45
1685.08
1623.45
1584.59
1554.31
1521.69
1483.1
1444
1410.33
1383.68
1364.26
1350.63
1341.07
1334.21
1329.1
1325.54
1323.19
1322.42
1323.03
1325.57
1329.87
1337.29
1347
1362.07
1401.2
1519.39
1870.32
2195.1
2401.67
2398.88
2498.03
2497.03
2319.8
2039.27
1885.95
1864.16
1873.94
1864.84
1830.24
1764.96
1690.43
1635.31
1599.28
1574.27
1549.4
1517.69
1481.2
1446.17
1416.37
1393.21
1376.19
1363.9
1354.8
1347.89
1342.47
1338.54
1335.82
1334.69
1335.02
1337.36
1341.58
1348.94
1358.77
1374.32
1413.96
1533.24
1882.3
2203.44
2403.29
2398.21
2456.3
2466.64
2292.54
2005.71
1841.29
1809.42
1804.93
1785.25
1742.01
1688.25
1642.48
1612.67
1590.15
1570.65
1547.32
1517.03
1483.41
1451.81
1425.53
1405.19
1390.13
1378.97
1370.37
1363.52
1357.91
1353.67
1350.68
1349.25
1349.37
1351.76
1356.06
1363.59
1373.74
1390
1430.25
1549.69
1894.64
2213.64
2406.71
2396.3
2441.09
2456.87
2289.32
1996.49
1812.41
1758.83
1740.77
1715.66
1678.48
1648.14
1623.18
1605.47
1591.22
1575.45
1552.74
1523.04
1491.42
1463.05
1440.18
1422.57
1409.32
1399.08
1390.77
1383.87
1378.08
1373.7
1370.63
1369.24
1369.51
1372.44
1377.36
1385.58
1396.53
1413.99
1455.89
1576.73
1917.43
2231.9
2416.39
2400.85
2437.49
2454.27
2295.13
2002.02
1792.91
1720.84
1696.98
1679.5
1660.24
1646.24
1631.63
1620.2
1608.9
1593.67
1570.64
1542.17
1513.78
1489.44
1470.28
1455.71
1445.08
1437.13
1430.79
1425.6
1421.34
1418.44
1416.56
1416.09
1417.03
1420.64
1425.98
1435.01
1446.77
1465.91
1510.27
1632.58
1963.64
2264.31
2429.45
2404.75
2452.84
2474.05
2321.5
2025.82
1794
1723.83
1709.29
1703.88
1695.17
1688.29
1680.23
1673.85
1665.31
1651.96
1632.44
1609.81
1588.55
1571.52
1558.83
1549.76
1544.2
1541.3
1539.9
1539.5
1539.8
1541.65
1543.25
1546.74
1550.75
1557.31
1564.58
1576.21
1588.94
1610.22
1656.23
1774.06
2078.71
2344.32
2466.79
2416.33
2448.7
2500.51
2408.01
2150.85
1918
1854.03
1851.15
1859.32
1863.57
1871.6
1878.52
1887.28
1892.52
1892.05
1885.56
1877.35
1870.86
1866.94
1865.35
1865.51
1868.28
1873.12
1878.39
1883.49
1887.92
1893.01
1896.31
1901.81
1906.82
1914.7
1921.93
1932.84
1942.31
1960.18
1996.92
2091.89
2328.12
2505.64
2525.1
2411.95
2414.78
2522.59
2527.32
2358.56
2180.92
2135.18
2144.13
2161.59
2177.47
2195.65
2210.66
2223.48
2228.79
2227.3
2221.1
2214.14
2209.13
2207.11
2207.65
2209.8
2212.32
2213.09
2212.01
2210.33
2208.52
2208.12
2207.28
2208.19
2209.57
2213.31
2217.55
2224.21
2231.51
2245.13
2270.03
2339.09
2490.91
2622.44
2584.32
2393.26
3659.55
2374.35
2556.05
2476.04
2383.95
2359.17
2368.75
2383.67
2401.1
2419.5
2434.4
2445.35
2448.33
2446.17
2440.95
2435.37
2431.36
2429.38
2428.6
2428.13
2427.9
2427.28
2425.68
2423.23
2419.75
2417.13
2413.38
2410.76
2408.46
2407.37
2406.47
2407.28
2408.67
2414.93
2424.02
2457.5
2512.44
2579.52
2389.74
3333.59
77633
3154.34
2314.94
2298.29
2278.13
2277.43
2291.51
2309.44
2330.23
2348.91
2363.03
2373.08
2377.5
2379.13
2379.38
2381.16
2384.42
2388.11
2391.08
2393.36
2396.42
2400.07
2403.15
2405.1
2405.75
2406.87
2405.72
2406.11
2405.44
2405.68
2404.17
2404.79
2403.19
2406.78
2408.67
2419.33
2416.26
2406.35
3218.37
61100.2
77633
3154.34
2314.94
2298.29
2278.13
2277.43
2291.51
2309.44
2330.23
2348.91
2363.03
2373.08
2377.5
2379.13
2379.38
2381.16
2384.42
2388.11
2391.08
2393.36
2396.42
2400.07
2403.15
2405.1
2405.75
2406.87
2405.72
2406.11
2405.44
2405.68
2404.17
2404.79
2403.19
2406.78
2408.67
2419.33
2416.26
2406.35
3218.37
61100.2
3659.55
2374.35
2556.05
2476.04
2383.95
2359.17
2368.75
2383.67
2401.1
2419.5
2434.4
2445.35
2448.33
2446.17
2440.95
2435.37
2431.36
2429.38
2428.6
2428.13
2427.9
2427.28
2425.68
2423.23
2419.75
2417.13
2413.38
2410.76
2408.46
2407.37
2406.47
2407.28
2408.67
2414.93
2424.02
2457.5
2512.44
2579.52
2389.74
3333.59
2414.78
2522.59
2527.32
2358.56
2180.92
2135.18
2144.13
2161.59
2177.47
2195.65
2210.66
2223.48
2228.79
2227.3
2221.1
2214.14
2209.13
2207.11
2207.65
2209.8
2212.32
2213.09
2212.01
2210.33
2208.52
2208.12
2207.28
2208.19
2209.57
2213.31
2217.55
2224.21
2231.51
2245.13
2270.03
2339.09
2490.91
2622.44
2584.32
2393.26
2448.7
2500.51
2408.01
2150.85
1918
1854.03
1851.15
1859.32
1863.57
1871.6
1878.52
1887.28
1892.52
1892.05
1885.56
1877.35
1870.86
1866.94
1865.35
1865.51
1868.28
1873.12
1878.39
1883.49
1887.92
1893.01
1896.31
1901.81
1906.82
1914.7
1921.93
1932.84
1942.31
1960.18
1996.92
2091.89
2328.12
2505.64
2525.1
2411.95
2452.84
2474.05
2321.5
2025.82
1794
1723.83
1709.29
1703.88
1695.17
1688.29
1680.23
1673.85
1665.31
1651.96
1632.44
1609.81
1588.55
1571.52
1558.83
1549.76
1544.2
1541.3
1539.9
1539.5
1539.8
1541.65
1543.25
1546.74
1550.75
1557.31
1564.58
1576.21
1588.94
1610.22
1656.23
1774.06
2078.71
2344.32
2466.79
2416.33
2437.49
2454.27
2295.13
2002.02
1792.91
1720.84
1696.98
1679.5
1660.24
1646.24
1631.63
1620.2
1608.9
1593.67
1570.64
1542.17
1513.78
1489.44
1470.28
1455.71
1445.08
1437.13
1430.79
1425.6
1421.34
1418.44
1416.56
1416.09
1417.03
1420.64
1425.98
1435.01
1446.77
1465.91
1510.27
1632.58
1963.64
2264.31
2429.45
2404.75
2441.09
2456.87
2289.32
1996.49
1812.41
1758.83
1740.77
1715.66
1678.48
1648.14
1623.18
1605.47
1591.22
1575.45
1552.74
1523.04
1491.42
1463.05
1440.18
1422.57
1409.32
1399.08
1390.77
1383.87
1378.08
1373.7
1370.63
1369.24
1369.51
1372.44
1377.36
1385.58
1396.53
1413.99
1455.89
1576.73
1917.43
2231.9
2416.39
2400.85
2456.3
2466.64
2292.54
2005.71
1841.29
1809.42
1804.93
1785.25
1742.01
1688.25
1642.48
1612.67
1590.15
1570.65
1547.32
1517.03
1483.41
1451.81
1425.53
1405.19
1390.13
1378.97
1370.37
1363.52
1357.91
1353.67
1350.68
1349.25
1349.37
1351.76
1356.06
1363.59
1373.74
1390
1430.25
1549.69
1894.64
2213.64
2406.71
2396.3
2498.03
2497.03
2319.8
2039.27
1885.95
1864.16
1873.94
1864.84
1830.24
1764.96
1690.43
1635.31
1599.28
1574.27
1549.4
1517.69
1481.2
1446.17
1416.37
1393.21
1376.19
1363.9
1354.8
1347.89
1342.47
1338.54
1335.82
1334.69
1335.02
1337.36
1341.58
1348.94
1358.77
1374.32
1413.96
1533.24
1882.3
2203.44
2403.29
2398.21
2531.45
2525.17
2359.82
2106.91
1959.92
1931.82
1948.67
1952.02
1933.9
1873.1
1777.45
1685.08
1623.45
1584.59
1554.31
1521.69
1483.1
1444
1410.33
1383.68
1364.26
1350.63
1341.07
1334.21
1329.1
1325.54
1323.19
1322.42
1323.03
1325.57
1329.87
1337.29
1347
1362.07
1401.2
1519.39
1870.32
2195.1
2401.67
2398.88
2537.61
2535.93
2403.68
2203.85
2065.06
2022.1
2034.79
2046.54
2040.38
1995.89
1899.81
1774.42
1668.76
1606.06
1566.14
1530.3
1489.83
1447.48
1410.13
1380.16
1358.07
1342.65
1332.17
1324.99
1319.87
1316.41
1314.2
1313.6
1314.41
1317.06
1321.44
1328.92
1338.58
1353.2
1392.24
1510.12
1862.73
2189.72
2402.45
2402.46
2524.54
2524.73
2431.84
2296.24
2189.36
2142.78
2140.2
2150.5
2149.13
2121.35
2039.56
1902.5
1748.51
1642.14
1582.53
1539.83
1496.99
1452.28
1411.4
1378.21
1353.3
1336.01
1324.58
1317.1
1312.01
1308.71
1306.65
1306.23
1307.23
1310.03
1314.51
1322.14
1331.84
1346.18
1385.01
1501.85
1855.1
2185.46
2403.84
2404.75
2533.86
2533.35
2446.33
2364.25
2312.01
2281.64
2268.29
2270.51
2265.17
2244.8
2180.48
2051.78
1868.75
1702.81
1607.42
1552.55
1506.03
1458.77
1414.58
1378.35
1350.67
1331.36
1318.79
1310.91
1305.83
1302.68
1300.76
1300.48
1301.67
1304.6
1309.19
1317.02
1326.86
1341.13
1379.7
1495.63
1849.98
2182.97
2406.05
2407.64
2482.04
2513.79
2418.58
2401.79
2415.92
2409.97
2410.67
2408.5
2396.08
2370.88
2316.75
2202.91
2016.24
1798.27
1645.45
1567.04
1514.11
1464.64
1418
1378.82
1348.55
1327.16
1313.44
1305.17
1300.15
1297.22
1295.51
1295.41
1296.8
1299.91
1304.65
1312.76
1322.88
1337.37
1375.48
1489.59
1844.55
2181.28
2408.88
2409.81
2681.28
2595.77
2422.43
2370.08
2422.96
2500.68
2556.54
2553.84
2544.46
2507.82
2449.42
2344.34
2167.89
1922.99
1704.49
1586.77
1523.16
1471.01
1422.3
1380.54
1347.81
1324.33
1309.36
1300.65
1295.66
1292.94
1291.46
1291.57
1293.11
1296.37
1301.25
1309.68
1320.17
1335.03
1372.72
1485.41
1841.53
2181.77
2413.27
2413.59
2827.93
2724.02
2621.64
2521.82
2477.26
2516.81
2623.06
2704.73
2703.24
2657.65
2586.27
2476.48
2308.83
2059.21
1786.48
1613.68
1531.7
1476.01
1426.11
1382.63
1347.67
1322.2
1306.01
1296.88
1291.92
1289.38
1288.11
1288.42
1290.08
1293.48
1298.46
1307.23
1318.12
1333.41
1370.44
1480.87
1837.24
2181.94
2416.79
2415.63
2932.1
2727.93
2647.51
2616.45
2613.37
2630.95
2700.03
2806.89
2849.8
2821.28
2732.58
2604.79
2433.99
2187.53
1881.78
1650.56
1541.71
1480.83
1430
1385.27
1348.4
1321.05
1303.65
1294.09
1289.18
1286.81
1285.7
1286.2
1287.98
1291.48
1296.56
1305.68
1316.99
1332.72
1369.11
1477.82
1834.73
2184.26
2422.2
2419.41
2997.87
2686.65
2500.61
2490.15
2504.68
2618.5
2745.46
2915.72
3000.42
2982.73
2886.53
2733.28
2544.1
2296.02
1974.03
1693.25
1552.35
1484.53
1433.15
1387.82
1349.53
1320.48
1301.98
1292.06
1287.19
1284.98
1284
1284.62
1286.49
1290.08
1295.22
1304.65
1316.28
1332.46
1368.2
1475.26
1832.14
2186.74
2426.74
2422.39
2978.38
2643.41
2305.19
2139.56
2203.75
2455.74
2806.3
2963.32
3095.15
3134.39
3049.65
2863.27
2641.87
2382.48
2050.77
1734.41
1563.23
1487.43
1435.65
1390.23
1350.82
1320.3
1300.86
1290.67
1285.87
1283.79
1282.9
1283.61
1285.54
1289.19
1294.38
1304.09
1315.91
1332.48
1367.65
1473.54
1830.25
2189.72
2430.93
2425.14
2793.01
2506.97
2263.85
1895.99
1875.64
2233.03
2922.56
3058.88
3130.87
3214.36
3170.1
2980.61
2729.94
2448.31
2102.93
1764.2
1571.76
1489.29
1437.2
1392.14
1351.93
1320.26
1300.15
1289.83
1285.1
1283.12
1282.29
1283.04
1285.01
1288.69
1293.92
1303.82
1315.76
1332.56
1367.31
1472.51
1829.04
2192.57
2433.61
2426.88
)
;

boundaryField
{
    inlet
    {
        type            calculated;
        value           uniform 14000.1;
    }
    outlet
    {
        type            calculated;
        value           nonuniform List<scalar> 
165
(
2947.68
3168.56
3146.66
3063.79
2952.45
2833.6
2717.37
2629.28
2626.52
2608.25
2594.54
2595.95
2607.14
2611.88
2611.13
2602.82
2607.09
2660.33
3358.64
4365.09
4365.09
3476.09
2708.64
2661.81
2668.48
2672.16
2669.52
2666.85
2662.13
2659.34
2657.89
2657.43
2658.78
2660.76
2662.6
2663.29
2663.17
2662.33
2661.03
2660.15
2659.98
2660.57
2661.55
2662.36
2663.1
2663.4
2663.91
2663.67
2663.6
2662.86
2662.27
2660.4
2658.68
2654.73
2652.58
2648.32
2652.56
2695.39
3342.95
4361.11
2658.87
2659
2659.31
2659.39
2659.91
2660.37
2661.28
2661.49
2661.73
2661.27
2660.78
2658.91
2656.57
2651.3
2647.84
2643.33
2648.03
2698.22
3390.55
4361.11
2659.12
2659.18
2659.03
2659.18
2659.12
4361.11
3390.55
2698.22
2648.03
2643.33
2647.84
2651.3
2656.57
2658.91
2660.78
2661.27
2661.73
2661.49
2661.28
2660.37
2659.91
2659.39
2659.31
2659
2658.87
4365.09
3476.09
2708.64
2661.81
2668.48
2672.16
2669.52
2666.85
2662.13
2659.34
2657.89
2657.43
2658.78
2660.76
2662.6
2663.29
2663.17
2662.33
2661.03
2660.15
2659.98
2660.57
2661.55
2662.36
2663.1
2663.4
2663.91
2663.67
2663.6
2662.86
2662.27
2660.4
2658.68
2654.73
2652.58
2648.32
2652.56
2695.39
3342.95
4361.11
4365.09
3358.64
2660.33
2607.09
2602.82
2611.13
2611.88
2607.14
2595.95
2594.54
2608.25
2626.52
2629.28
2717.37
2833.6
2952.45
3063.79
3146.66
3168.56
2947.68
)
;
    }
    obstacle
    {
        type            calculated;
        value           nonuniform List<scalar> 
40
(
30496.3
13845.4
13026.1
12996.4
12864.4
12704.5
12573.7
12503.1
12461.5
12442.3
30496.3
13845.4
13026.1
12996.4
12864.4
12704.5
12573.7
12503.1
12461.5
12442.3
12572.9
12397
12266.2
11916.3
11794
12572.9
12397
12266.2
11916.3
11794
6254.6
4246.38
3322.39
2791.62
2258.38
6254.6
4246.38
3322.39
2791.62
2258.38
)
;
    }
    empty
    {
        type            empty;
    }
}


// ************************************************************************* //
