/*--------------------------------*- C++ -*----------------------------------*\
| =========                 |                                                 |
| \\      /  F ield         | OpenFOAM: The Open Source CFD Toolbox           |
|  \\    /   O peration     | Version:  v1912                                 |
|   \\  /    A nd           | Website:  www.openfoam.com                      |
|    \\/     M anipulation  |                                                 |
\*---------------------------------------------------------------------------*/
FoamFile
{
    version     2.0;
    format      ascii;
    class       volVectorField;
    location    "1.36";
    object      grad(p);
}
// * * * * * * * * * * * * * * * * * * * * * * * * * * * * * * * * * * * * * //

dimensions      [1 -2 -2 0 0 0 0];


internalField   nonuniform List<vector> 
1900
(
(1.69751 1.09669e-06 0)
(53.2718 -0.00491078 0)
(427.808 -0.156338 0)
(1311.45 -0.968014 0)
(2018.27 -2.025 0)
(1814.6 -5.04514 0)
(1162.98 -11.2721 0)
(520.189 -54.8128 0)
(168.866 -115.747 0)
(-409.13 -171.282 0)
(1.6926 -5.75151e-06 0)
(53.1154 -0.00858834 0)
(426.845 -0.265156 0)
(1309.58 -1.63036 0)
(2014.2 -3.76548 0)
(1805.35 -11.0373 0)
(1113.21 -20.5194 0)
(415.714 -70.8194 0)
(52.3965 -91.2048 0)
(-19.4486 -161.309 0)
(1.68892 9.92983e-09 0)
(53.0066 -2.07123e-08 0)
(426.186 1.45484e-08 0)
(1307.95 -7.38964e-09 0)
(2008.87 1.97176e-09 0)
(1797.84 1.95399e-10 0)
(1103.2 -1.04805e-09 0)
(449.504 -1.79412e-09 0)
(78.3769 -1.24345e-10 0)
(-58.5892 -7.10543e-10 0)
(1.6926 5.76634e-06 0)
(53.1154 0.0085883 0)
(426.845 0.265156 0)
(1309.58 1.63036 0)
(2014.2 3.76548 0)
(1805.35 11.0373 0)
(1113.21 20.5194 0)
(415.714 70.8194 0)
(52.3965 91.2048 0)
(-19.4486 161.309 0)
(1.69751 -1.0918e-06 0)
(53.2718 0.00491076 0)
(427.808 0.156338 0)
(1311.45 0.968014 0)
(2018.27 2.025 0)
(1814.6 5.04514 0)
(1162.98 11.2721 0)
(520.189 54.8128 0)
(168.866 115.747 0)
(-409.13 171.282 0)
(-373.914 196.761 1.04692e-11)
(60.4246 167.892 -1.27435e-11)
(-794.924 99.3489 -1.61075e-11)
(-5681.31 806.408 0)
(-1459.12 7171.59 -6.44325e-11)
(13.4567 186.467 1.05048e-11)
(-128.362 78.6637 1.27435e-11)
(-444.99 -82.3941 1.61075e-11)
(-2622.95 247.554 0)
(-751.411 6092.47 0)
(-24.0379 5.30976e-10 0)
(-217.272 9.34925e-10 0)
(-663.928 -5.42776e-10 0)
(-2563.95 2.32138e-09 0)
(2425.73 -4.7581e-10 0)
(13.4567 -186.467 1.05048e-11)
(-128.362 -78.6637 1.27435e-11)
(-444.99 82.3941 1.61075e-11)
(-2622.95 -247.554 0)
(-751.411 -6092.47 0)
(-373.914 -196.761 -3.14787e-11)
(60.4246 -167.892 -1.27435e-11)
(-794.924 -99.3489 -1.61075e-11)
(-5681.31 -806.408 -4.35752e-11)
(-1459.12 -7171.59 6.44325e-11)
(8480.66 -3290.74 3.14441e-11)
(744.313 -484.358 -2.65239e-11)
(1415.37 -65.725 0)
(2181.92 1146.73 2.07911e-11)
(-6575.49 -3443.26 -9.52445e-12)
(5952.8 -3395.54 -1.56725e-11)
(1501.68 -360.179 1.32547e-11)
(2000.11 -216.098 0)
(644.096 504.684 -1.30198e-11)
(-6560.7 -7336.11 2.29995e-12)
(6565.04 -4.48575e-10 0)
(1504.69 -9.86865e-10 0)
(1718.01 1.18424e-09 0)
(-1087.45 -1.91568e-09 5.21401e-12)
(-8632.62 -5.40179e-09 -4.59991e-12)
(5952.8 3395.54 -1.56725e-11)
(1501.68 360.179 1.32547e-11)
(2000.11 216.098 0)
(644.096 -504.684 -1.30198e-11)
(-6560.7 7336.11 2.29995e-12)
(8480.66 3290.74 1.56725e-11)
(744.313 484.358 1.45873e-14)
(1415.37 65.725 0)
(2181.92 -1146.73 3.45357e-14)
(-6575.49 3443.26 9.52445e-12)
(-24163.4 -8421.7 0)
(-14839 7547.74 0)
(1888.13 3791.21 0)
(422.665 1189.21 0)
(1320.3 341.847 0)
(2549.41 460.087 0)
(3332.08 49.4372 0)
(4149.41 31.4644 0)
(4501.58 33.0584 0)
(4400.61 38.3908 0)
(3619.96 32.9142 0)
(2172.67 18.2659 0)
(784.143 4.80164 0)
(131.028 0.388168 0)
(7.01418 0.00625309 0)
(0.0797161 1.38532e-05 0)
(0.000132327 2.06703e-09 0)
(2.36498e-08 0 0)
(0 -9.68922e-11 0)
(-1.61487e-11 3.22974e-11 0)
(0 -3.22974e-11 0)
(0 6.45948e-11 0)
(-3.09571e-08 0 0)
(-0.000173267 -3.55271e-09 0)
(-0.099408 2.87447e-09 0)
(-8.37364 -2.55149e-09 0)
(-150.885 4.06947e-09 0)
(-878.914 -9.26935e-09 0)
(-2390.21 5.81353e-09 0)
(-3940.22 -9.72152e-09 0)
(-4794.73 0 0)
(-5005.67 5.81353e-10 0)
(-4871.92 8.7203e-10 0)
(-4561.96 4.52164e-10 0)
(-4129.48 -2.09933e-09 0)
(-3597.23 -5.0061e-10 0)
(-2991.96 -2.08318e-09 0)
(-3231.75 -7.4284e-10 0)
(38605 -2.69683e-09 0)
(-63506.1 -6.39488e-09 0)
(-21667.1 -4076.58 0)
(-14768.5 10315.3 0)
(786.737 3202.1 0)
(-182.947 588.563 0)
(1261.18 229.165 0)
(2508.92 200.858 0)
(3280.6 8.97127 0)
(4152.11 5.94021 0)
(4504.38 11.1795 0)
(4401.16 17.0979 0)
(3617.8 14.6352 0)
(2169.99 7.88229 0)
(782.55 2.10142 0)
(130.599 0.175684 0)
(6.9783 0.00292172 0)
(0.0791211 6.63004e-06 0)
(0.000130982 4.19866e-09 0)
(2.28746e-08 0 0)
(2.4223e-11 -3.22974e-11 0)
(0 -3.22974e-11 0)
(0 0 0)
(-1.61487e-11 -3.22974e-11 0)
(-3.19421e-08 0 0)
(-0.000173267 -5.23218e-09 0)
(-0.099408 2.00244e-09 0)
(-8.37364 -2.03474e-09 0)
(-150.885 5.07069e-09 0)
(-878.914 -7.20232e-09 0)
(-2390.21 5.19988e-09 0)
(-3940.22 -9.46314e-09 0)
(-4794.73 2.00244e-09 0)
(-5005.67 1.13041e-09 0)
(-4871.92 1.80865e-09 0)
(-4561.96 -1.06581e-09 0)
(-4129.48 -1.45338e-09 0)
(-3597.23 4.19866e-10 0)
(-2991.96 -3.22974e-10 0)
(-3231.75 1.2919e-10 0)
(38605 -5.0061e-10 0)
(-63506.1 7.10543e-10 0)
(-18952.4 2.90677e-09 0)
(-12721.6 1.195e-09 0)
(-941.453 5.16758e-10 0)
(-442.188 1.2273e-09 0)
(1207.51 4.84461e-10 0)
(2485.35 -1.71176e-09 0)
(3275.38 -1.2919e-10 0)
(4150.06 1.2919e-09 0)
(4504.82 1.13041e-09 0)
(4401.62 2.09933e-09 0)
(3617.28 -5.81353e-10 0)
(2169.02 5.16758e-10 0)
(781.901 2.55149e-09 0)
(130.418 1.00122e-09 0)
(6.96308 2.90677e-09 0)
(0.0788661 4.71542e-09 0)
(0.000130398 3.42352e-09 0)
(2.24063e-08 0 0)
(0 0 0)
(0 -3.22974e-11 0)
(0 0 0)
(0 -3.22974e-11 0)
(-3.24589e-08 -6.45948e-11 0)
(-0.000173267 -4.42474e-09 0)
(-0.099408 -2.58379e-10 0)
(-8.37364 1.61487e-10 0)
(-150.885 5.16758e-09 0)
(-878.914 -9.52773e-09 0)
(-2390.21 7.13772e-09 0)
(-3940.22 -6.36259e-09 0)
(-4794.73 2.22852e-09 0)
(-5005.67 -5.81353e-10 0)
(-4871.92 1.42109e-09 0)
(-4561.96 -5.16758e-10 0)
(-4129.48 1.61487e-10 0)
(-3597.23 -2.09933e-10 0)
(-2991.96 1.13041e-10 0)
(-3231.75 2.74528e-10 0)
(38605 -1.2919e-10 0)
(-63506.1 4.9738e-09 0)
(-21667.1 4076.58 0)
(-14768.5 -10315.3 0)
(786.737 -3202.1 0)
(-182.947 -588.563 0)
(1261.18 -229.165 0)
(2508.92 -200.858 0)
(3280.6 -8.97127 0)
(4152.11 -5.94021 0)
(4504.38 -11.1795 0)
(4401.16 -17.0979 0)
(3617.8 -14.6352 0)
(2169.99 -7.88229 0)
(782.55 -2.10142 0)
(130.599 -0.175684 0)
(6.9783 -0.00292172 0)
(0.0791211 -6.62374e-06 0)
(0.00013098 -3.29433e-09 0)
(2.18815e-08 0 0)
(0 0 0)
(0 0 0)
(0 0 0)
(-2.4223e-11 0 0)
(-3.3234e-08 0 0)
(-0.000173267 -2.68068e-09 0)
(-0.099408 3.22974e-11 0)
(-8.37364 -1.16271e-09 0)
(-150.885 5.74894e-09 0)
(-878.914 -9.20476e-09 0)
(-2390.21 9.30165e-09 0)
(-3940.22 -6.91164e-09 0)
(-4794.73 3.13285e-09 0)
(-5005.67 2.58379e-09 0)
(-4871.92 1.67946e-09 0)
(-4561.96 1.03352e-09 0)
(-4129.48 6.45948e-11 0)
(-3597.23 -1.06581e-09 0)
(-2991.96 -1.87325e-09 0)
(-3231.75 8.88178e-10 0)
(38605 9.36625e-10 0)
(-63506.1 -1.93784e-09 0)
(-24163.4 8421.7 0)
(-14839 -7547.74 0)
(1888.13 -3791.21 0)
(422.665 -1189.21 0)
(1320.3 -341.847 0)
(2549.41 -460.087 0)
(3332.08 -49.4372 0)
(4149.41 -31.4644 0)
(4501.58 -33.0584 0)
(4400.61 -38.3908 0)
(3619.96 -32.9142 0)
(2172.67 -18.2659 0)
(784.143 -4.80164 0)
(131.028 -0.388168 0)
(7.01418 -0.00625309 0)
(0.0797161 -1.38493e-05 0)
(0.000132325 -4.84461e-09 0)
(2.33752e-08 0 0)
(0 0 0)
(1.61487e-11 3.22974e-11 0)
(-1.61487e-11 0 0)
(0 0 0)
(-3.32582e-08 6.45948e-11 0)
(-0.000173267 2.61609e-09 0)
(-0.099408 3.55271e-10 0)
(-8.37364 -1.61487e-09 0)
(-150.885 6.13651e-09 0)
(-878.914 -6.2334e-09 0)
(-2390.21 9.20476e-09 0)
(-3940.22 -2.03474e-09 0)
(-4794.73 3.6819e-09 0)
(-5005.67 3.84339e-09 0)
(-4871.92 2.5192e-09 0)
(-4561.96 -1.61487e-10 0)
(-4129.48 2.26082e-10 0)
(-3597.23 -4.84461e-11 0)
(-2991.96 1.13041e-09 0)
(-3231.75 1.2919e-09 0)
(38605 2.68068e-09 0)
(-63506.1 1.55028e-09 0)
(55419 15029 0)
(-22347.8 -5493.9 0)
(3501.78 -2991.17 0)
(1280.51 -1771.83 0)
(1650.19 -656.308 0)
(2645.52 -582.938 0)
(3489.94 -177.472 0)
(4165.51 -103.732 0)
(4503.28 -80.2581 0)
(4401.89 -72.6375 0)
(3627.92 -57.2253 0)
(2184.52 -30.3318 0)
(791.923 -7.63824 0)
(133.11 -0.595681 0)
(7.18028 -0.00935683 0)
(0.0823556 -2.03648e-05 0)
(0.000138113 -2.54479e-09 0)
(2.31859e-08 0 0)
(0 0 0)
(0 -9.75016e-12 0)
(0 0 0)
(0 0 0)
(-3.15515e-08 0 0)
(-0.000173268 2.9738e-09 0)
(-0.099408 -4.09507e-10 0)
(-8.37364 -1.75503e-10 0)
(-150.885 3.94881e-09 0)
(-878.914 -3.1103e-09 0)
(-2390.21 3.88056e-09 0)
(-3940.22 1.08227e-09 0)
(-4794.73 1.64778e-09 0)
(-5005.67 1.83303e-09 0)
(-4871.92 1.10177e-09 0)
(-4561.96 7.11762e-10 0)
(-4129.48 -9.75016e-10 0)
(-3597.23 6.38635e-10 0)
(-2991.96 1.57953e-09 0)
(-3231.75 3.70506e-10 0)
(38605 -7.70262e-10 0)
(-63506.1 1.71603e-09 0)
(57841.1 9838.88 0)
(-28177.5 -2614.91 0)
(4609.57 -2176.84 0)
(2212.62 -1622.99 0)
(2289.06 -920.992 0)
(2959.29 -586.25 0)
(3709.22 -314.02 0)
(4234.46 -202.701 0)
(4530.63 -150.182 0)
(4422.12 -117.481 0)
(3656.46 -80.836 0)
(2214.1 -38.5899 0)
(808.626 -9.07396 0)
(137.263 -0.678862 0)
(7.49911 -0.0103978 0)
(0.0873173 -2.21908e-05 0)
(0.000148845 -7.23462e-09 0)
(2.59354e-08 0 0)
(0 0 0)
(0 0 0)
(0 0 0)
(0 0 0)
(-3.1298e-08 0 0)
(-0.000173267 2.43754e-10 0)
(-0.099408 -9.84766e-10 0)
(-8.37364 1.41377e-09 0)
(-150.885 -3.96831e-09 0)
(-878.914 6.57161e-09 0)
(-2390.21 -5.26509e-09 0)
(-3940.22 2.68129e-09 0)
(-4794.73 -3.60756e-10 0)
(-5005.67 1.25777e-09 0)
(-4871.92 1.81353e-09 0)
(-4561.96 1.14077e-09 0)
(-4129.48 3.80256e-10 0)
(-3597.23 3.41256e-10 0)
(-2991.96 -7.80013e-11 0)
(-3231.75 1.85253e-10 0)
(38605 2.34004e-10 0)
(-63506.1 -9.75016e-11 0)
(62380.3 9277.79 0)
(-33926.6 -721.805 0)
(4457.63 -1325.74 0)
(2490.69 -1203.87 0)
(2649.22 -912.065 0)
(3230.42 -582.705 0)
(3859.54 -403.827 0)
(4323.39 -281.792 0)
(4585.4 -207.712 0)
(4468.72 -149.829 0)
(3703.94 -93.465 0)
(2253.67 -40.781 0)
(828.455 -8.93396 0)
(141.844 -0.633849 0)
(7.83444 -0.00950258 0)
(0.0923753 -2.12946e-05 0)
(0.000159497 -1.285e-06 0)
(3.01572e-08 -1.28097e-06 0)
(0 -1.27823e-06 0)
(0 -1.2782e-06 0)
(0 -1.27951e-06 0)
(0 -1.27839e-06 0)
(-3.13175e-08 -1.28091e-06 0)
(-0.000173269 -1.27909e-06 0)
(-0.099408 -1.28072e-06 0)
(-8.37364 -1.2973e-06 0)
(-150.885 -1.28232e-06 0)
(-878.914 -1.27203e-06 0)
(-2390.21 -1.23267e-06 0)
(-3940.22 -1.09738e-06 0)
(-4794.73 -8.90258e-07 0)
(-5005.67 -6.53046e-07 0)
(-4871.92 -4.26472e-07 0)
(-4561.96 -2.54518e-07 0)
(-4129.48 -1.37175e-07 0)
(-3597.23 -6.99428e-08 0)
(-2991.96 -3.37404e-08 0)
(-3231.75 -1.55808e-08 0)
(38605 -2.17429e-09 0)
(-63506.1 -6.70811e-09 0)
(66085.9 5641.59 0)
(-38395.5 -351.982 0)
(4145.03 -976.986 0)
(2611.25 -1016.86 0)
(2887.65 -842.99 0)
(3449.05 -598.263 0)
(3999.19 -440.236 0)
(4423.45 -317.7 0)
(4657.79 -230.306 0)
(4532.21 -156.626 0)
(3761.54 -89.5807 0)
(2295.56 -35.6496 0)
(847.313 -7.19722 0)
(145.863 -0.478495 0)
(8.10989 -0.00949572 0)
(0.0964731 -0.00274353 0)
(0.000168131 -0.00272893 0)
(3.24485e-08 -0.00272893 0)
(2.67154e-09 -0.00272893 0)
(-1.22852e-09 -0.00272893 0)
(-2.04753e-10 -0.00272894 0)
(-1.34552e-09 -0.00272893 0)
(-3.19805e-08 -0.00272893 0)
(-0.000173266 -0.00272894 0)
(-0.099408 -0.00272894 0)
(-8.37364 -0.00272894 0)
(-150.885 -0.00272798 0)
(-878.914 -0.00271151 0)
(-2390.21 -0.0026178 0)
(-3940.22 -0.00237845 0)
(-4794.73 -0.00200046 0)
(-5005.67 -0.00155072 0)
(-4871.92 -0.00110754 0)
(-4561.96 -0.000731176 0)
(-4129.48 -0.000449807 0)
(-3597.23 -0.000264043 0)
(-2991.96 -0.000144038 0)
(-3231.75 -7.80321e-05 0)
(38605 -1.7849e-05 0)
(-63506.1 -3.22629e-06 0)
(67477.5 1568.14 0)
(-40304.5 -216.595 0)
(3816.93 -807.03 0)
(2619.81 -919.184 0)
(3052.6 -766.98 0)
(3618.53 -585.002 0)
(4129.9 -439.675 0)
(4525.69 -321.621 0)
(4740.62 -227.605 0)
(4604.32 -147.551 0)
(3820.52 -77.411 0)
(2333.06 -27.3279 0)
(862.347 -5.32274 0)
(148.77 -0.97882 0)
(8.29289 -0.706062 0)
(0.098896 -0.702583 0)
(0.000173558 -0.702576 0)
(2.88702e-08 -0.702576 0)
(1.95978e-09 -0.702576 0)
(-1.60878e-09 -0.702576 0)
(-1.58928e-09 -0.702576 0)
(2.11578e-09 -0.702576 0)
(-3.47496e-08 -0.702576 0)
(-0.000173271 -0.702576 0)
(-0.099408 -0.702576 0)
(-8.37364 -0.702573 0)
(-150.885 -0.70235 0)
(-878.914 -0.698426 0)
(-2390.21 -0.676955 0)
(-3940.22 -0.623774 0)
(-4794.73 -0.541125 0)
(-5005.67 -0.44176 0)
(-4871.92 -0.339817 0)
(-4561.96 -0.247064 0)
(-4129.48 -0.170738 0)
(-3597.23 -0.114087 0)
(-2991.96 -0.0720851 0)
(-3231.75 -0.0460379 0)
(38605 -0.0135771 0)
(-63506.1 -0.00603004 0)
(67388.3 -602.9 0)
(-40684.3 -198.265 0)
(3467.99 -851.926 0)
(2649.84 -870.699 0)
(3209.68 -726.731 0)
(3764.45 -584.899 0)
(4252.99 -450.846 0)
(4627.8 -323.792 0)
(4825.53 -217.606 0)
(4676.94 -134.251 0)
(3877.39 -78.1028 0)
(2365.02 -45.0417 0)
(872.704 -32.6355 0)
(150.312 -30.7604 0)
(8.37609 -30.6717 0)
(0.0998326 -30.6708 0)
(0.000174861 -30.6708 0)
(3.42036e-08 -30.6708 0)
(2.8373e-09 -30.6708 0)
(4.37782e-09 -30.6708 0)
(5.48934e-09 -30.6708 0)
(5.51859e-09 -30.6708 0)
(-3.99366e-08 -30.6708 0)
(-0.000173259 -30.6708 0)
(-0.0994054 -30.6708 0)
(-8.37342 -30.6707 0)
(-150.881 -30.6612 0)
(-878.89 -30.5002 0)
(-2390.14 -29.6535 0)
(-3940.09 -27.6352 0)
(-4794.56 -24.5839 0)
(-5005.47 -20.9359 0)
(-4871.74 -17.1126 0)
(-4561.8 -13.465 0)
(-4129.35 -10.2372 0)
(-3597.14 -7.60931 0)
(-2991.89 -5.44219 0)
(-3231.69 -3.98109 0)
(38605 -1.50449 0)
(-63506.1 -1.39505 0)
(66705.5 -1679.67 0)
(-40544.4 -406.059 0)
(3168.95 -955.721 0)
(2740.46 -849.671 0)
(3328.01 -714.021 0)
(3884.38 -579.765 0)
(4381.51 -474.308 0)
(4750.45 -406.222 0)
(4923.27 -361.999 0)
(4738.75 -336.616 0)
(3906.48 -329.862 0)
(2376.87 -333.164 0)
(876.109 -336.326 0)
(150.663 -337.326 0)
(8.37923 -337.418 0)
(0.0996939 -337.419 0)
(0.000174185 -337.419 0)
(3.122e-08 -337.419 0)
(-2.14503e-09 -337.419 0)
(-5.45034e-09 -337.419 0)
(-5.01158e-09 -337.419 0)
(-3.63681e-09 -337.419 0)
(-2.61792e-08 -337.419 0)
(-0.000173072 -337.419 0)
(-0.0992934 -337.419 0)
(-8.36438 -337.418 0)
(-150.72 -337.313 0)
(-877.943 -335.603 0)
(-2387.45 -326.969 0)
(-3935.34 -307.232 0)
(-4788.28 -278.444 0)
(-4998.47 -244.71 0)
(-4864.72 -209.307 0)
(-4555.33 -174.736 0)
(-4123.84 -142.731 0)
(-3592.61 -114.987 0)
(-2988.46 -90.5639 0)
(-3227.95 -73.3191 0)
(38607.5 -35.1393 0)
(-63503.3 -58.9806 0)
(65378.4 -2645.78 0)
(-39986.6 -699.969 0)
(3040.5 -959.275 0)
(2882.75 -933.948 0)
(3469.77 -932.321 0)
(3995.45 -929.828 0)
(4420.22 -961.229 0)
(4736.03 -1030.24 0)
(4892.61 -1118.96 0)
(4707.91 -1213.71 0)
(3880.72 -1299.25 0)
(2358.8 -1364.87 0)
(868.694 -1396.9 0)
(149.26 -1403.79 0)
(8.28625 -1404.25 0)
(0.0983608 -1404.25 0)
(0.000171329 -1404.25 0)
(3.32285e-08 -1404.25 0)
(-4.29007e-10 -1404.25 0)
(3.80256e-09 -1404.25 0)
(3.61731e-09 -1404.25 0)
(5.10908e-09 -1404.25 0)
(-3.79671e-08 -1404.25 0)
(-0.000170783 -1404.25 0)
(-0.0980961 -1404.25 0)
(-8.27118 -1404.25 0)
(-149.132 -1403.8 0)
(-868.922 -1396.7 0)
(-2362.8 -1362.33 0)
(-3893.33 -1286.94 0)
(-4734.31 -1181.08 0)
(-4938.85 -1060.48 0)
(-4804.31 -935.584 0)
(-4497.64 -813.223 0)
(-4071.77 -697.701 0)
(-3546.87 -594.133 0)
(-2951.74 -500.998 0)
(-3178.28 -433.673 0)
(38618.8 -257.329 0)
(-63415.4 -659.317 0)
(63481.4 -4234 0)
(-38919.3 -1160 0)
(2943.48 -1414.58 0)
(2766.43 -1524.98 0)
(3331.98 -1672.97 0)
(3856.53 -1836.59 0)
(4284.75 -2016.76 0)
(4598.45 -2204.12 0)
(4746.47 -2408.9 0)
(4565.02 -2621.95 0)
(3760.82 -2821.55 0)
(2282.78 -2972.37 0)
(838.609 -3045.63 0)
(143.583 -3061.59 0)
(7.93132 -3062.66 0)
(0.0935427 -3062.67 0)
(0.000161745 -3062.67 0)
(3.78501e-08 -3062.67 0)
(1.85253e-09 -3062.67 0)
(4.09507e-10 -3062.67 0)
(4.38757e-10 -3062.67 0)
(-1.36502e-09 -3062.67 0)
(-3.48861e-08 -3062.67 0)
(-0.000161609 -3062.67 0)
(-0.0934616 -3062.67 0)
(-7.92389 -3062.66 0)
(-143.452 -3061.61 0)
(-837.983 -3045.73 0)
(-2281.67 -2971.81 0)
(-3760.68 -2816.21 0)
(-4570.05 -2605.79 0)
(-4761.9 -2373.22 0)
(-4626.46 -2137.18 0)
(-4326.1 -1907.82 0)
(-3912.71 -1690.92 0)
(-3403.06 -1494.12 0)
(-2833.84 -1319.49 0)
(-2993.14 -1189.65 0)
(38390 -846.69 0)
(-62620 -2829.76 0)
(60180.6 -7006.05 0)
(-37269.7 -1813.66 0)
(2688.8 -2136.37 0)
(2633.76 -2272.53 0)
(3169.48 -2443.99 0)
(3664.16 -2656.52 0)
(4066.06 -2902.97 0)
(4358.15 -3174.33 0)
(4489.98 -3464.55 0)
(4310.26 -3763.66 0)
(3543.04 -4046.34 0)
(2142.87 -4264.17 0)
(782.712 -4372.26 0)
(132.854 -4396.44 0)
(7.24811 -4398.09 0)
(0.0841184 -4398.11 0)
(0.00014266 -4398.11 0)
(2.46971e-08 -4398.11 0)
(-2.84705e-09 -4398.11 0)
(-1.25777e-09 -4398.11 0)
(1.17977e-09 -4398.11 0)
(1.42352e-09 -4398.11 0)
(-2.65984e-08 -4398.11 0)
(-0.00014271 -4398.11 0)
(-0.0841265 -4398.11 0)
(-7.24738 -4398.09 0)
(-132.817 -4396.45 0)
(-782.385 -4372.4 0)
(-2141.63 -4264.72 0)
(-3540.63 -4047.03 0)
(-4307.43 -3762.84 0)
(-4487.28 -3457.35 0)
(-4355.83 -3153.53 0)
(-4067.61 -2862.15 0)
(-3673.12 -2589.32 0)
(-3188.94 -2343.21 0)
(-2658.34 -2132.14 0)
(-2722.68 -1967.53 0)
(37038.4 -1625.78 0)
(-59872.6 -6333.33 0)
(54982.4 -9520.24 0)
(-34226.7 -2255.92 0)
(2501.3 -2429.14 0)
(2469.99 -2589.05 0)
(2961.95 -2782.98 0)
(3414.25 -3027.73 0)
(3785.77 -3305.37 0)
(4057.29 -3611.73 0)
(4178.56 -3934.42 0)
(4004.39 -4264.04 0)
(3278.51 -4577.6 0)
(1968.71 -4825.06 0)
(711.149 -4951.7 0)
(118.696 -4980.84 0)
(6.32201 -4982.86 0)
(0.0711247 -4982.89 0)
(0.000116231 -4982.89 0)
(2.51457e-08 -4982.89 0)
(-4.48507e-10 -4982.89 0)
(-1.17002e-09 -4982.89 0)
(-1.95003e-10 -4982.89 0)
(2.53504e-10 -4982.89 0)
(-2.39074e-08 -4982.89 0)
(-0.000116268 -4982.89 0)
(-0.07114 -4982.89 0)
(-6.32264 -4982.86 0)
(-118.693 -4980.85 0)
(-711.043 -4951.74 0)
(-1968.13 -4825.39 0)
(-3277.05 -4578.78 0)
(-4001.82 -4266.31 0)
(-4174.74 -3937.21 0)
(-4052.9 -3614.56 0)
(-3782.41 -3307.79 0)
(-3412.65 -3026.02 0)
(-2962.51 -2773.08 0)
(-2471.81 -2564.13 0)
(-2505.2 -2391.68 0)
(34183 -2197.17 0)
(-54950.3 -9250.94 0)
(48832.6 -10397.3 0)
(-30436.5 -2415.13 0)
(2367.79 -2489.12 0)
(2292.78 -2651.98 0)
(2746.75 -2851.12 0)
(3160.77 -3089.26 0)
(3503.3 -3363.86 0)
(3751.97 -3663.85 0)
(3861.39 -3983.31 0)
(3690.47 -4310.53 0)
(3002.42 -4625.21 0)
(1782.37 -4879.1 0)
(632.589 -5012.45 0)
(102.824 -5043.62 0)
(5.27395 -5045.77 0)
(0.0565156 -5045.8 0)
(8.71564e-05 -5045.8 0)
(1.32017e-08 -5045.8 0)
(-1.57953e-09 -5045.8 0)
(-9.65266e-10 -5045.8 0)
(9.84766e-10 -5045.8 0)
(1.29677e-09 -5045.8 0)
(-1.27142e-08 -5045.8 0)
(-8.7165e-05 -5045.8 0)
(-0.0565224 -5045.8 0)
(-5.2744 -5045.77 0)
(-102.828 -5043.62 0)
(-632.582 -5012.46 0)
(-1782.23 -4879.22 0)
(-3001.88 -4625.81 0)
(-3689.19 -4312.06 0)
(-3859.23 -3986.22 0)
(-3749.29 -3668.69 0)
(-3500.46 -3370.37 0)
(-3157.86 -3096.34 0)
(-2743.85 -2857.68 0)
(-2290.8 -2656.58 0)
(-2369.06 -2492.45 0)
(30428.5 -2416.31 0)
(-48840.8 -10355.5 0)
(42635.9 -10481 0)
(-26606.1 -2370.28 0)
(2273.06 -2406.93 0)
(2121.16 -2557.9 0)
(2540.57 -2748.03 0)
(2920.15 -2980.88 0)
(3232.07 -3232.43 0)
(3460.36 -3518.32 0)
(3555.4 -3819.77 0)
(3385.83 -4131.87 0)
(2730.61 -4434.72 0)
(1595.55 -4683.31 0)
(552.616 -4815.76 0)
(86.5871 -4846.64 0)
(4.2155 -4848.72 0)
(0.0422425 -4848.75 0)
(6.01478e-05 -4848.75 0)
(9.4869e-09 -4848.75 0)
(-7.80013e-11 -4848.75 0)
(-1.36502e-10 -4848.75 0)
(3.21755e-10 -4848.75 0)
(7.41012e-10 -4848.75 0)
(-9.3504e-09 -4848.75 0)
(-6.01498e-05 -4848.75 0)
(-0.0422438 -4848.75 0)
(-4.21564 -4848.72 0)
(-86.5893 -4846.64 0)
(-552.625 -4815.76 0)
(-1595.54 -4683.32 0)
(-2730.51 -4434.88 0)
(-3385.49 -4132.46 0)
(-3554.77 -3821.24 0)
(-3459.46 -3521.09 0)
(-3230.87 -3236.53 0)
(-2918.59 -2986.28 0)
(-2538.74 -2754.7 0)
(-2119.87 -2565.78 0)
(-2273.66 -2415.31 0)
(26605.9 -2377.09 0)
(-42643 -10480.8 0)
(36448.7 -9669.17 0)
(-22656 -2190.4 0)
(2186.99 -2266.06 0)
(1964.08 -2375.67 0)
(2339.15 -2564.7 0)
(2693.99 -2772.82 0)
(2985.41 -3010.73 0)
(3185.99 -3266.19 0)
(3270.15 -3544.14 0)
(3097.87 -3832.71 0)
(2471.03 -4117.12 0)
(1415.19 -4353.93 0)
(475.201 -4480.41 0)
(71.0592 -4509.28 0)
(3.23767 -4511.14 0)
(0.0297967 -4511.16 0)
(3.83448e-05 -4511.16 0)
(5.8891e-09 -4511.16 0)
(3.51006e-10 -4511.16 0)
(-9.75016e-10 -4511.16 0)
(3.70506e-10 -4511.16 0)
(-2.92505e-11 -4511.16 0)
(-4.68008e-09 -4511.16 0)
(-3.83461e-05 -4511.16 0)
(-0.0297967 -4511.16 0)
(-3.23768 -4511.14 0)
(-71.0597 -4509.28 0)
(-475.206 -4480.41 0)
(-1415.21 -4353.92 0)
(-2471.05 -4117.13 0)
(-3097.86 -3832.82 0)
(-3270.09 -3544.53 0)
(-3185.84 -3267.01 0)
(-2985.1 -3012.09 0)
(-2693.55 -2774.88 0)
(-2338.65 -2567.64 0)
(-1963.76 -2379.6 0)
(-2187.22 -2270.3 0)
(22656.4 -2193.68 0)
(-36450.5 -9673.04 0)
(31207.6 -8775.09 0)
(-19472.2 -1879.83 0)
(2094.53 -2045.92 0)
(1833.37 -2111.64 0)
(2157.87 -2290.82 0)
(2490.35 -2497.94 0)
(2756.64 -2709.66 0)
(2946.34 -2941.01 0)
(3009.48 -3187.52 0)
(2833.67 -3447.6 0)
(2228.34 -3707.41 0)
(1245.47 -3926.26 0)
(402.916 -4042.11 0)
(56.9714 -4067.57 0)
(2.39858 -4069.11 0)
(0.0199517 -4069.13 0)
(2.27712e-05 -4069.13 0)
(2.9543e-09 -4069.13 0)
(-4.38757e-11 -4069.13 0)
(-1.80378e-10 -4069.13 0)
(5.36259e-10 -4069.13 0)
(6.82511e-11 -4069.13 0)
(-2.43754e-09 -4069.13 0)
(-2.27732e-05 -4069.13 0)
(-0.0199516 -4069.13 0)
(-2.39857 -4069.11 0)
(-56.9713 -4067.57 0)
(-402.917 -4042.11 0)
(-1245.48 -3926.25 0)
(-2228.36 -3707.4 0)
(-2833.71 -3447.59 0)
(-3009.53 -3187.53 0)
(-2946.37 -2941.08 0)
(-2756.63 -2709.86 0)
(-2490.31 -2498.37 0)
(-2157.83 -2291.52 0)
(-1833.33 -2112.62 0)
(-2094.51 -2046.95 0)
(19472.4 -1880.52 0)
(-31207.8 -8776.39 0)
(26181.2 -7507.86 0)
(-16171.6 -1559.42 0)
(1963.61 -1762.63 0)
(1728.08 -1833.44 0)
(1966.9 -1959.72 0)
(2290.39 -2155.68 0)
(2558.45 -2343.77 0)
(2725.5 -2549.81 0)
(2781.97 -2760.97 0)
(2596.88 -2984.3 0)
(2009.78 -3210.99 0)
(1092.67 -3406.75 0)
(339.026 -3510.29 0)
(45.0363 -3532.12 0)
(1.73705 -3533.34 0)
(0.0129221 -3533.36 0)
(1.2918e-05 -3533.36 0)
(9.94516e-10 -3533.36 0)
(-1.41377e-10 -3533.36 0)
(2.77879e-10 -3533.36 0)
(2.73004e-10 -3533.36 0)
(-2.92505e-11 -3533.36 0)
(-1.61365e-09 -3533.36 0)
(-1.292e-05 -3533.36 0)
(-0.012922 -3533.36 0)
(-1.73704 -3533.34 0)
(-45.0362 -3532.12 0)
(-339.026 -3510.29 0)
(-1092.67 -3406.75 0)
(-2009.79 -3210.98 0)
(-2596.9 -2984.27 0)
(-2782 -2760.93 0)
(-2725.53 -2549.75 0)
(-2558.48 -2343.71 0)
(-2290.43 -2155.64 0)
(-1966.93 -1959.71 0)
(-1728.09 -1833.45 0)
(-1963.56 -1762.66 0)
(16171.6 -1559.44 0)
(-26181.1 -7508.07 0)
(22470 -5920.1 0)
(-13935.8 -1295.47 0)
(1830.48 -1540.04 0)
(1643.45 -1640.04 0)
(1847.34 -1722.25 0)
(2120.26 -1820.43 0)
(2376.84 -1946.4 0)
(2544.31 -2107.83 0)
(2590.8 -2284.29 0)
(2400.02 -2468.92 0)
(1821.25 -2654.03 0)
(957.056 -2812.9 0)
(282.1 -2896.42 0)
(34.7551 -2913.48 0)
(1.20956 -2914.38 0)
(0.00792111 -2914.38 0)
(6.83117e-06 -2914.38 0)
(2.77879e-10 -2914.38 0)
(-7.31262e-11 -2914.38 0)
(-3.46131e-10 -2914.38 0)
(2.38879e-10 -2914.38 0)
(1.26752e-10 -2914.38 0)
(9.75016e-11 -2914.38 0)
(-6.83569e-06 -2914.38 0)
(-0.00792109 -2914.38 0)
(-1.20956 -2914.38 0)
(-34.7551 -2913.48 0)
(-282.1 -2896.42 0)
(-957.056 -2812.9 0)
(-1821.25 -2654.03 0)
(-2400.03 -2468.91 0)
(-2590.81 -2284.27 0)
(-2544.33 -2107.8 0)
(-2376.85 -1946.35 0)
(-2120.28 -1820.37 0)
(-1847.36 -1722.17 0)
(-1643.45 -1639.94 0)
(-1830.46 -1539.95 0)
(13935.9 -1295.43 0)
(-22470 -5920.09 0)
(19228 -5154.64 0)
(-11950.8 -1451.27 0)
(1631.57 -1650.02 0)
(1552.49 -1863.65 0)
(1793.06 -2000.65 0)
(2074.39 -2132.6 0)
(2281.51 -2228.23 0)
(2399.9 -2310.05 0)
(2434.02 -2411.01 0)
(2240.59 -2573.97 0)
(1678.31 -2827.82 0)
(859.095 -3091.23 0)
(242.1 -3221.82 0)
(27.7321 -3244.01 0)
(0.868281 -3244.94 0)
(0.00496242 -3244.95 0)
(3.64405e-06 -3244.95 0)
(1.36502e-10 -3244.95 0)
(-7.06886e-10 -3244.95 0)
(1.07252e-10 -3244.95 0)
(5.02133e-10 -3244.95 0)
(-1.21877e-10 -3244.95 0)
(5.65509e-10 -3244.95 0)
(-3.64709e-06 -3244.95 0)
(-0.0049624 -3244.95 0)
(-0.868281 -3244.94 0)
(-27.7321 -3244.01 0)
(-242.1 -3221.82 0)
(-859.095 -3091.23 0)
(-1678.31 -2827.82 0)
(-2240.59 -2573.97 0)
(-2434.02 -2411 0)
(-2399.91 -2310.04 0)
(-2281.51 -2228.21 0)
(-2074.39 -2132.57 0)
(-1793.06 -2000.62 0)
(-1552.49 -1863.61 0)
(-1631.57 -1649.99 0)
(11950.8 -1451.25 0)
(-19228 -5154.63 0)
(16104.3 64157.7 0)
(-10558.7 11333.7 0)
(1433.1 12851.8 0)
(1305.57 15120.4 0)
(1588.18 17630.8 0)
(1900.96 21357.2 0)
(2205.83 24924.1 0)
(2368.18 29286.3 0)
(2336.48 33490.6 0)
(1998.36 37373.1 0)
(1322.8 39974.8 0)
(577.39 40913.5 0)
(134.876 40998.8 0)
(12.474 40989.5 0)
(0.310649 40988.8 0)
(0.00140616 40988.8 0)
(8.15918e-07 40988.8 0)
(1.51615e-09 40988.8 0)
(1.85253e-10 40988.8 0)
(7.06886e-10 40988.8 0)
(1.85253e-10 40988.8 0)
(1.17002e-10 40988.8 0)
(-4.48507e-10 40988.8 0)
(-8.13558e-07 40988.8 0)
(-0.00140617 40988.8 0)
(-0.310649 40988.8 0)
(-12.474 40989.5 0)
(-134.876 40998.8 0)
(-577.39 40913.5 0)
(-1322.8 39974.8 0)
(-1998.36 37373.1 0)
(-2336.47 33490.6 0)
(-2368.18 29286.3 0)
(-2205.83 24924.1 0)
(-1900.96 21357.3 0)
(-1588.18 17630.9 0)
(-1305.57 15120.5 0)
(-1433.1 12851.9 0)
(10558.7 11333.7 0)
(-16104.3 64157.7 0)
(91974.3 -95086.2 0)
(-61391 -17070.9 0)
(5280.6 -20421.5 0)
(6157.71 -24037.9 0)
(7803.06 -28166.4 0)
(9102.41 -33783.5 0)
(9922.22 -39585 0)
(10655 -46369.3 0)
(10226.7 -53099.6 0)
(8488.92 -59406.6 0)
(5089.98 -63982.6 0)
(1845.92 -66061.3 0)
(315.338 -66497.4 0)
(18.1064 -66528.5 0)
(0.240567 -66529.1 0)
(0.000519737 -66529.1 0)
(1.43795e-07 -66529.1 0)
(-5.26509e-10 -66529.1 0)
(-9.75016e-11 -66529.1 0)
(-1.03352e-09 -66529.1 0)
(1.20902e-09 -66529.1 0)
(-7.02011e-10 -66529.1 0)
(4.05607e-09 -66529.1 0)
(-1.21896e-07 -66529.1 0)
(-0.000519746 -66529.1 0)
(-0.240568 -66529.1 0)
(-18.1064 -66528.5 0)
(-315.338 -66497.4 0)
(-1845.92 -66061.3 0)
(-5089.98 -63982.6 0)
(-8488.92 -59406.6 0)
(-10226.7 -53099.6 0)
(-10655 -46369.3 0)
(-9922.22 -39585 0)
(-9102.41 -33783.5 0)
(-7803.06 -28166.4 0)
(-6157.72 -24037.9 0)
(-5280.6 -20421.5 0)
(61391 -17070.9 0)
(-91974.3 -95086.2 0)
(91974.3 95086.2 0)
(-61391 17070.9 0)
(5280.6 20421.5 0)
(6157.71 24037.9 0)
(7803.06 28166.4 0)
(9102.41 33783.5 0)
(9922.22 39585 0)
(10655 46369.3 0)
(10226.7 53099.6 0)
(8488.92 59406.6 0)
(5089.98 63982.6 0)
(1845.92 66061.3 0)
(315.338 66497.4 0)
(18.1064 66528.5 0)
(0.240567 66529.1 0)
(0.000519767 66529.1 0)
(1.13024e-07 66529.1 0)
(-8.65814e-09 66529.1 0)
(-8.61914e-09 66529.1 0)
(-3.95856e-09 66529.1 0)
(-1.24802e-09 66529.1 0)
(-7.80013e-11 66529.1 0)
(1.09202e-09 66529.1 0)
(-1.29326e-07 66529.1 0)
(-0.000519718 66529.1 0)
(-0.240568 66529.1 0)
(-18.1064 66528.5 0)
(-315.338 66497.4 0)
(-1845.92 66061.3 0)
(-5089.98 63982.6 0)
(-8488.92 59406.6 0)
(-10226.7 53099.6 0)
(-10655 46369.3 0)
(-9922.22 39585 0)
(-9102.41 33783.5 0)
(-7803.06 28166.4 0)
(-6157.72 24037.9 0)
(-5280.6 20421.5 0)
(61391 17070.9 0)
(-91974.3 95086.2 0)
(16104.3 -64157.7 0)
(-10558.7 -11333.7 0)
(1433.1 -12851.8 0)
(1305.57 -15120.4 0)
(1588.18 -17630.8 0)
(1900.96 -21357.2 0)
(2205.83 -24924.1 0)
(2368.18 -29286.3 0)
(2336.48 -33490.6 0)
(1998.36 -37373.1 0)
(1322.8 -39974.8 0)
(577.39 -40913.5 0)
(134.876 -40998.8 0)
(12.474 -40989.5 0)
(0.310649 -40988.8 0)
(0.00140617 -40988.8 0)
(8.15006e-07 -40988.8 0)
(1.53565e-09 -40988.8 0)
(3.02255e-10 -40988.8 0)
(7.45887e-10 -40988.8 0)
(-3.90006e-10 -40988.8 0)
(-1.15052e-09 -40988.8 0)
(-1.20902e-09 -40988.8 0)
(-8.13573e-07 -40988.8 0)
(-0.00140616 -40988.8 0)
(-0.310649 -40988.8 0)
(-12.474 -40989.5 0)
(-134.876 -40998.8 0)
(-577.39 -40913.5 0)
(-1322.8 -39974.8 0)
(-1998.36 -37373.1 0)
(-2336.47 -33490.6 0)
(-2368.18 -29286.3 0)
(-2205.83 -24924.1 0)
(-1900.96 -21357.3 0)
(-1588.18 -17630.9 0)
(-1305.57 -15120.5 0)
(-1433.1 -12851.9 0)
(10558.7 -11333.7 0)
(-16104.3 -64157.7 0)
(19228 5154.64 0)
(-11950.8 1451.27 0)
(1631.57 1650.02 0)
(1552.49 1863.65 0)
(1793.06 2000.65 0)
(2074.39 2132.6 0)
(2281.51 2228.23 0)
(2399.9 2310.05 0)
(2434.02 2411.01 0)
(2240.59 2573.97 0)
(1678.31 2827.82 0)
(859.095 3091.23 0)
(242.1 3221.82 0)
(27.7321 3244.01 0)
(0.868281 3244.94 0)
(0.00496242 3244.95 0)
(3.64329e-06 3244.95 0)
(8.72639e-10 3244.95 0)
(-7.84888e-10 3244.95 0)
(0 3244.95 0)
(3.80256e-10 3244.95 0)
(1.65753e-10 3244.95 0)
(7.02011e-10 3244.95 0)
(-3.64695e-06 3244.95 0)
(-0.00496241 3244.95 0)
(-0.868281 3244.94 0)
(-27.7321 3244.01 0)
(-242.1 3221.82 0)
(-859.095 3091.23 0)
(-1678.31 2827.82 0)
(-2240.59 2573.97 0)
(-2434.02 2411 0)
(-2399.91 2310.04 0)
(-2281.51 2228.21 0)
(-2074.39 2132.57 0)
(-1793.06 2000.62 0)
(-1552.49 1863.61 0)
(-1631.57 1649.99 0)
(11950.8 1451.25 0)
(-19228 5154.63 0)
(22470 5920.1 0)
(-13935.8 1295.47 0)
(1830.48 1540.04 0)
(1643.45 1640.04 0)
(1847.34 1722.25 0)
(2120.26 1820.43 0)
(2376.84 1946.4 0)
(2544.31 2107.83 0)
(2590.8 2284.29 0)
(2400.02 2468.92 0)
(1821.25 2654.03 0)
(957.056 2812.9 0)
(282.1 2896.42 0)
(34.7551 2913.48 0)
(1.20956 2914.38 0)
(0.00792111 2914.38 0)
(6.83158e-06 2914.38 0)
(4.48507e-10 2914.38 0)
(-8.92139e-10 2914.38 0)
(-4.09507e-10 2914.38 0)
(2.09628e-10 2914.38 0)
(-1.80378e-10 2914.38 0)
(4.09507e-10 2914.38 0)
(-6.83277e-06 2914.38 0)
(-0.0079211 2914.38 0)
(-1.20956 2914.38 0)
(-34.7551 2913.48 0)
(-282.1 2896.42 0)
(-957.056 2812.9 0)
(-1821.25 2654.03 0)
(-2400.03 2468.91 0)
(-2590.81 2284.27 0)
(-2544.33 2107.8 0)
(-2376.85 1946.35 0)
(-2120.28 1820.37 0)
(-1847.36 1722.17 0)
(-1643.45 1639.94 0)
(-1830.46 1539.95 0)
(13935.9 1295.43 0)
(-22470 5920.09 0)
(26181.2 7507.86 0)
(-16171.6 1559.42 0)
(1963.61 1762.63 0)
(1728.08 1833.44 0)
(1966.9 1959.72 0)
(2290.39 2155.68 0)
(2558.45 2343.77 0)
(2725.5 2549.81 0)
(2781.97 2760.97 0)
(2596.88 2984.3 0)
(2009.78 3210.99 0)
(1092.67 3406.75 0)
(339.026 3510.29 0)
(45.0363 3532.12 0)
(1.73705 3533.34 0)
(0.0129221 3533.36 0)
(1.29173e-05 3533.36 0)
(4.09507e-10 3533.36 0)
(-7.84888e-10 3533.36 0)
(-6.09385e-10 3533.36 0)
(1.56003e-10 3533.36 0)
(1.18464e-09 3533.36 0)
(-2.02803e-09 3533.36 0)
(-1.29172e-05 3533.36 0)
(-0.012922 3533.36 0)
(-1.73704 3533.34 0)
(-45.0362 3532.12 0)
(-339.026 3510.29 0)
(-1092.67 3406.75 0)
(-2009.79 3210.98 0)
(-2596.9 2984.27 0)
(-2782 2760.93 0)
(-2725.53 2549.75 0)
(-2558.48 2343.71 0)
(-2290.43 2155.64 0)
(-1966.93 1959.71 0)
(-1728.09 1833.45 0)