/*--------------------------------*- C++ -*----------------------------------*\
| =========                 |                                                 |
| \\      /  F ield         | OpenFOAM: The Open Source CFD Toolbox           |
|  \\    /   O peration     | Version:  v1912                                 |
|   \\  /    A nd           | Website:  www.openfoam.com                      |
|    \\/     M anipulation  |                                                 |
\*---------------------------------------------------------------------------*/
FoamFile
{
    version     2.0;
    format      ascii;
    class       volTensorField;
    location    "4.28";
    object      grad(U);
}
// * * * * * * * * * * * * * * * * * * * * * * * * * * * * * * * * * * * * * //

dimensions      [0 0 -1 0 0 0 0];


internalField   nonuniform List<tensor> 
1900
(
(-4.57578 -2.02464e-05 0 2.83366e-06 8.20764e-06 0 0 0 0)
(3.7386 -3.11804e-05 0 -2.09162e-05 -4.78089e-05 0 0 0 0)
(0.282596 1.33431e-05 0 -0.000145031 -2.64505e-05 0 0 0 0)
(0.0827361 0.00012323 0 -0.000168068 -3.63229e-05 0 0 0 0)
(0.0843437 0.000540113 0 -0.000174937 0.000141072 0 0 0 0)
(0.0860553 0.00208282 0 0.000117913 0.000926675 0 0 0 0)
(0.0796859 0.00407123 0 0.0016193 0.00402443 0 0 0 0)
(0.0821298 -0.0020539 0 0.00618641 0.00856131 0 0 0 0)
(0.0907436 -0.00145519 0 0.0102758 0.00282069 0 0 0 0)
(0.105464 -0.00885358 0 0.0161523 0.0133533 0 0 0 0)
(-4.5758 -1.93549e-05 0 3.95125e-06 1.00179e-06 0 0 0 0)
(3.73845 -3.47771e-06 0 -3.69598e-05 1.92446e-05 0 0 0 0)
(0.282449 -1.85698e-06 0 -0.000222377 3.21822e-05 0 0 0 0)
(0.0827062 4.42921e-05 0 -0.000218133 5.90154e-06 0 0 0 0)
(0.0846297 0.000422886 0 -0.0001048 -9.1048e-05 0 0 0 0)
(0.0878496 0.00180054 0 0.000552217 -0.000534211 0 0 0 0)
(0.0857544 0.0035634 0 0.00314049 -0.00217387 0 0 0 0)
(0.0907863 0.000850158 0 0.00981543 -0.00460544 0 0 0 0)
(0.10071 0.0062472 0 0.0164448 -0.000119972 0 0 0 0)
(0.113647 0.00584675 0 0.0248568 -0.00315025 0 0 0 0)
(-4.57581 1.01457e-13 0 -1.30104e-14 -1.84189e-05 0 0 0 0)
(3.73837 -2.21293e-13 0 -2.08438e-13 5.71287e-05 0 0 0 0)
(0.282415 -1.62013e-14 0 8.51776e-14 -1.14634e-05 0 0 0 0)
(0.0828537 2.9146e-13 0 6.91179e-14 6.08427e-05 0 0 0 0)
(0.0851141 -5.46628e-14 0 1.47384e-13 -0.000100048 0 0 0 0)
(0.0893006 -1.27448e-13 0 -2.05321e-13 -0.000784928 0 0 0 0)
(0.0889491 -6.56027e-14 0 -1.41827e-13 -0.00370113 0 0 0 0)
(0.0954342 -1.54116e-13 0 -1.49925e-13 -0.00791173 0 0 0 0)
(0.105785 -1.80482e-13 0 -8.09763e-15 -0.00540144 0 0 0 0)
(0.118672 1.64293e-13 0 1.4209e-13 -0.0204061 0 0 0 0)
(-4.5758 1.93549e-05 0 -3.95125e-06 1.00179e-06 0 0 0 0)
(3.73845 3.47771e-06 0 3.69598e-05 1.92446e-05 0 0 0 0)
(0.282449 1.85698e-06 0 0.000222377 3.21822e-05 0 0 0 0)
(0.0827062 -4.42921e-05 0 0.000218133 5.90154e-06 0 0 0 0)
(0.0846297 -0.000422886 0 0.0001048 -9.1048e-05 0 0 0 0)
(0.0878496 -0.00180054 0 -0.000552217 -0.000534211 0 0 0 0)
(0.0857544 -0.0035634 0 -0.00314049 -0.00217387 0 0 0 0)
(0.0907863 -0.000850158 0 -0.00981543 -0.00460544 0 0 0 0)
(0.10071 -0.0062472 0 -0.0164448 -0.000119972 0 0 0 0)
(0.113647 -0.00584675 0 -0.0248568 -0.00315025 0 0 0 0)
(-4.57578 2.02464e-05 0 -2.83366e-06 8.20764e-06 0 0 0 0)
(3.7386 3.11804e-05 0 2.09162e-05 -4.78089e-05 0 0 0 0)
(0.282596 -1.33431e-05 0 0.000145031 -2.64505e-05 0 0 0 0)
(0.0827361 -0.00012323 0 0.000168068 -3.63229e-05 0 0 0 0)
(0.0843437 -0.000540113 0 0.000174937 0.000141072 0 0 0 0)
(0.0860553 -0.00208282 0 -0.000117913 0.000926675 0 0 0 0)
(0.0796859 -0.00407123 0 -0.0016193 0.00402443 0 0 0 0)
(0.0821298 0.0020539 0 -0.00618641 0.00856131 0 0 0 0)
(0.0907436 0.00145519 0 -0.0102758 0.00282069 0 0 0 0)
(0.105464 0.00885358 0 -0.0161523 0.0133533 0 0 0 0)
(0.125806 0.0414359 -6.57007e-18 0.0558994 -0.0380748 9.8551e-18 4.98395e-19 7.13934e-18 -1.78082e-33)
(0.181493 0.157845 0 0.0883112 -0.104158 0 -2.65939e-17 -2.99924e-18 0)
(0.251879 0.300145 0 0.134175 -0.19795 0 -5.79393e-17 -1.26596e-17 0)
(0.464856 0.447656 0 0.197365 -0.395634 0 0 0 0)
(0.418858 0.666047 1.20109e-16 0.540639 -1.18469 -1.80163e-16 -6.02894e-16 -4.01929e-16 -3.25556e-32)
(0.137985 0.00423036 0 0.031143 0.00679728 0 1.05994e-17 2.59216e-19 0)
(0.212813 0.0447262 0 0.0225622 -0.0120494 0 2.65939e-17 2.99924e-18 0)
(0.315804 0.104313 0 0.0286273 -0.0781374 0 5.79393e-17 1.26596e-17 0)
(0.52363 0.195935 0 0.0512889 -0.262072 0 0 0 0)
(0.803517 0.0873349 0 -0.018773 -0.613629 0 0 0 0)
(0.14176 1.18944e-13 0 8.71892e-14 -0.0193326 0 0 0 0)
(0.213884 1.99734e-13 0 1.25606e-13 -0.0422926 0 0 0 0)
(0.341946 2.87727e-14 0 1.14067e-13 -0.123958 0 0 0 0)
(0.551862 -7.60324e-14 0 4.74852e-14 -0.322329 0 0 0 0)
(0.729035 1.9338e-13 0 1.46819e-13 -0.851938 0 0 0 0)
(0.137985 -0.00423036 0 -0.031143 0.00679728 0 1.05994e-17 -2.59216e-19 0)
(0.212813 -0.0447262 0 -0.0225622 -0.0120494 0 2.65939e-17 -2.99924e-18 0)
(0.315804 -0.104313 0 -0.0286273 -0.0781374 0 5.79393e-17 -1.26596e-17 0)
(0.52363 -0.195935 0 -0.0512889 -0.262072 0 0 0 0)
(0.803517 -0.0873349 0 0.018773 -0.613629 0 0 0 0)
(0.125806 -0.0414359 6.57007e-18 -0.0558994 -0.0380748 9.8551e-18 -2.16973e-17 7.65777e-18 -1.78082e-33)
(0.181493 -0.157845 0 -0.0883112 -0.104158 0 -2.65939e-17 2.99924e-18 0)
(0.251879 -0.300145 0 -0.134175 -0.19795 0 -5.79393e-17 1.26596e-17 0)
(0.464856 -0.447656 3.55048e-17 -0.197365 -0.395634 5.32572e-17 -2.21955e-16 1.4797e-16 -9.62359e-33)
(0.418858 -0.666047 -1.20109e-16 -0.540639 -1.18469 -1.80163e-16 6.02894e-16 -4.01929e-16 -3.25556e-32)
(0.423389 -0.210063 -2.49925e-18 0.0395435 0.716307 -2.24932e-17 4.83486e-16 -3.20155e-17 6.77423e-34)
(0.127096 -0.0328966 6.84372e-19 0.062593 0.330782 6.15934e-18 -4.23536e-16 3.6888e-17 1.85499e-34)
(0.168554 0.0791439 0 -0.0229588 0.341142 0 0 0 0)
(0.0728286 0.211959 -1.62645e-18 0.18755 0.519719 -1.46381e-17 3.79986e-16 -2.59408e-17 4.4085e-34)
(-0.423231 0.0593887 3.10729e-18 0.848103 1.05435 2.79656e-17 -1.63631e-16 1.81812e-17 8.42233e-34)
(0.467804 -0.190008 0 -0.0255557 0.0714044 0 -2.42339e-16 5.22137e-18 0)
(0.116325 -0.00869888 0 0.0279359 0.286646 0 2.12711e-16 -1.3463e-17 0)
(0.208559 0.0320866 0 -0.0614807 0.254191 0 0 0 0)
(0.406211 0.177106 0 0.181456 0.102243 0 -2.42388e-16 5.66057e-18 0)
(0.898466 0.143742 0 1.06999 -0.162441 0 5.53494e-17 2.17007e-18 0)
(0.432608 6.69568e-14 0 -1.01302e-13 0.203933 0 0 0 0)
(0.104945 -1.91657e-14 0 3.76459e-13 0.32076 0 0 0 0)
(0.234065 -7.49511e-14 0 1.02899e-12 0.280084 0 0 0 0)
(0.543836 -2.46512e-13 0 1.40751e-12 0.137138 0 9.9141e-17 1.28719e-30 0)
(1.16302 7.17033e-14 0 1.17138e-12 -0.576443 0 -1.10699e-16 6.60855e-30 0)
(0.467804 0.190008 0 0.0255557 0.0714044 0 -2.42339e-16 -5.22137e-18 0)
(0.116325 0.00869888 0 -0.0279359 0.286646 0 2.12711e-16 1.3463e-17 0)
(0.208559 -0.0320866 0 0.0614807 0.254191 0 0 0 0)
(0.406211 -0.177106 0 -0.181456 0.102243 0 -2.42388e-16 -5.66057e-18 0)
(0.898466 -0.143742 0 -1.06999 -0.162441 0 5.53494e-17 -2.17007e-18 0)
(0.423389 0.210063 0 -0.0395435 0.716307 0 2.42339e-16 5.22137e-18 0)
(0.127096 0.0328966 -6.84372e-19 -0.062593 0.330782 6.15934e-18 -1.8851e-18 9.96208e-18 1.85499e-34)
(0.168554 -0.0791439 0 0.0229588 0.341142 0 0 0 0)
(0.0728286 -0.211959 1.62645e-18 -0.18755 0.519719 -1.46381e-17 5.6484e-18 -1.56522e-17 4.4085e-34)
(-0.423231 -0.0593887 -3.10729e-18 -0.848103 1.05435 2.79656e-17 1.63631e-16 1.81812e-17 8.42233e-34)
(0.169869 -0.579291 0 8.19019 0.447704 0 0 0 0)
(0.0993799 -0.616389 0 5.88515 0.866248 0 0 0 0)
(-1.25407 -0.0861362 0 3.8809 1.39253 0 0 0 0)
(-1.1742 0.362411 0 1.66553 1.28437 0 0 0 0)
(-0.64109 0.419478 0 0.486498 0.878894 0 0 0 0)
(-0.313458 0.204036 0 0.0664237 0.569303 0 0 0 0)
(-0.228622 0.0633561 0 0.0475162 0.447804 0 0 0 0)
(-0.173144 0.0272941 0 0.033354 0.387514 0 0 0 0)
(-0.0520797 0.0186086 0 0.013623 0.344994 0 0 0 0)
(0.0718495 0.0100177 0 0.000168123 0.317812 0 0 0 0)
(0.150685 0.0022059 0 -0.00261475 0.314313 0 0 0 0)
(0.188511 0.00227755 0 -0.00216764 0.309721 0 0 0 0)
(0.208673 0.00169072 0 -0.00218467 0.306439 0 0 0 0)
(0.224118 0.00130141 0 -0.00217333 0.303837 0 0 0 0)
(0.2373 0.000955848 0 -0.00206329 0.30192 0 0 0 0)
(0.248388 0.000723104 0 -0.00179315 0.300497 0 0 0 0)
(0.257506 0.000582874 0 -0.00140625 0.299384 0 0 0 0)
(0.265186 0.000496921 0 -0.000964704 0.298445 0 0 0 0)
(0.271205 3.59372e-06 0 -0.000501676 0.29764 0 0 0 0)
(0.275466 -7.60975e-05 0 -2.76555e-05 0.298415 0 0 0 0)
(0.279327 0.000574047 0 0.000458252 0.297896 0 0 0 0)
(0.282581 0.000411684 0 0.000940861 0.296438 0 0 0 0)
(0.283991 -3.6417e-05 0 0.00140283 0.296482 0 0 0 0)
(0.283854 -5.99307e-05 0 0.00184922 0.296576 0 0 0 0)
(0.282643 -9.14195e-05 0 0.00226719 0.29671 0 0 0 0)
(0.280503 -0.000137385 0 0.00264252 0.296915 0 0 0 0)
(0.277765 -0.000174121 0 0.00296489 0.29721 0 0 0 0)
(0.27454 -0.000274582 0 0.00320925 0.297533 0 0 0 0)
(0.27085 -0.000179504 0 0.00339146 0.29819 0 0 0 0)
(0.266036 -0.000496641 0 0.00346545 0.298128 0 0 0 0)
(0.258179 0.000145036 0 0.0033993 0.299922 0 0 0 0)
(0.244694 -0.000616936 0 0.00320646 0.297698 0 0 0 0)
(0.223381 0.000281 0 0.00227478 0.30202 0 0 0 0)
(0.198718 -0.000609417 0 0.00102404 0.297097 0 0 0 0)
(0.168452 -0.000307607 0 -0.00104322 0.304025 0 0 0 0)
(0.140073 -0.00193379 0 -0.00482545 0.298083 0 0 0 0)
(0.102146 -0.000610758 0 -0.0069888 0.310531 0 0 0 0)
(-0.0384585 -0.0108238 0 -0.0129643 0.299473 0 0 0 0)
(2.00411 -0.0195115 0 -0.00742904 0.352077 0 0 0 0)
(2.07966 -0.00552085 0 -0.0274109 0.36683 0 0 0 0)
(1.10645 -0.379719 0 4.46574 0.27066 0 0 0 0)
(-0.317807 -0.508472 0 4.14699 1.74467 0 0 0 0)
(-1.92886 -0.0555869 0 3.15085 2.3895 0 0 0 0)
(-1.74348 0.24727 0 1.49323 2.04076 0 0 0 0)
(-0.922903 0.267485 0 0.362181 1.14371 0 0 0 0)
(-0.38606 0.118582 0 -0.0252937 0.59881 0 0 0 0)
(-0.231713 0.033604 0 -0.0404002 0.442337 0 0 0 0)
(-0.17358 0.0131587 0 -0.0277134 0.381024 0 0 0 0)
(-0.0531292 0.00830525 0 -0.0212121 0.348514 0 0 0 0)
(0.0712759 0.00466453 0 -0.0199491 0.317057 0 0 0 0)
(0.150854 0.00117911 0 -0.0202806 0.314078 0 0 0 0)
(0.1892 0.0011749 0 -0.017391 0.309474 0 0 0 0)
(0.209338 0.000836624 0 -0.0147383 0.306249 0 0 0 0)
(0.224788 0.000641852 0 -0.0123855 0.303662 0 0 0 0)
(0.237986 0.000473374 0 -0.0102569 0.301775 0 0 0 0)
(0.249097 0.000360052 0 -0.00823473 0.300376 0 0 0 0)
(0.258229 0.00029091 0 -0.00628161 0.29929 0 0 0 0)
(0.265913 0.000247989 0 -0.00439218 0.298373 0 0 0 0)
(0.271929 1.04719e-06 0 -0.00255923 0.297582 0 0 0 0)
(0.276186 -3.94385e-05 0 -0.000768527 0.29836 0 0 0 0)
(0.28004 0.000284686 0 0.000998817 0.297843 0 0 0 0)
(0.283282 0.000202783 0 0.0027529 0.296387 0 0 0 0)
(0.284677 -2.16529e-05 0 0.00450354 0.296428 0 0 0 0)
(0.284523 -3.32983e-05 0 0.00626867 0.296512 0 0 0 0)
(0.283288 -4.84987e-05 0 0.0080605 0.296634 0 0 0 0)
(0.28112 -7.0721e-05 0 0.00989369 0.296827 0 0 0 0)
(0.278347 -8.78754e-05 0 0.011793 0.297106 0 0 0 0)
(0.275085 -0.00013502 0 0.0137921 0.297425 0 0 0 0)
(0.271348 -8.36918e-05 0 0.015957 0.29805 0 0 0 0)
(0.266474 -0.000232133 0 0.0183519 0.298042 0 0 0 0)
(0.258546 0.000108252 0 0.0210654 0.299757 0 0 0 0)
(0.244933 -0.000245955 0 0.0242991 0.297544 0 0 0 0)
(0.22346 0.000232661 0 0.0281966 0.301878 0 0 0 0)
(0.198606 -0.000182122 0 0.0325916 0.296578 0 0 0 0)
(0.167974 -1.07817e-05 0 0.0382303 0.303973 0 0 0 0)
(0.139658 -0.000796936 0 0.043158 0.297635 0 0 0 0)
(0.101672 -8.40483e-05 0 0.0508816 0.31062 0 0 0 0)
(-0.0383037 -0.00620368 0 0.0543474 0.299734 0 0 0 0)
(2.00297 -0.00407775 0 0.0528483 0.347827 0 0 0 0)
(2.07794 0.00383408 0 0.0688477 0.366805 0 0 0 0)
(1.29854 7.96424e-13 0 1.18671e-12 -0.543976 0 0 0 0)
(-0.283136 8.36994e-13 0 2.38327e-12 2.06216 0 0 0 0)
(-2.02607 -3.95238e-12 0 -7.82991e-12 2.95177 0 0 0 0)
(-1.98545 -1.10789e-11 0 -2.86148e-11 2.44432 0 0 0 0)
(-1.08284 -1.06878e-11 0 -3.20012e-11 1.25178 0 0 0 0)
(-0.430572 3.14119e-12 0 -2.08955e-11 0.605358 0 0 0 0)
(-0.229325 1.22319e-11 0 -3.03123e-11 0.436536 0 0 0 0)
(-0.167562 9.50298e-12 0 -5.94054e-11 0.374331 0 0 0 0)
(-0.049821 2.62924e-12 0 -8.52626e-11 0.346069 0 0 0 0)
(0.0721205 -1.13207e-12 0 -7.18609e-11 0.317232 0 0 0 0)
(0.15143 -2.0801e-12 0 -4.7632e-11 0.314001 0 0 0 0)
(0.190124 -3.41151e-12 0 -4.11258e-11 0.309126 0 0 0 0)
(0.210129 3.99759e-12 0 -5.73257e-11 0.305923 0 0 0 0)
(0.225421 1.85619e-11 0 -9.38357e-11 0.303374 0 0 0 0)
(0.238507 3.54032e-11 0 -1.32688e-10 0.301511 0 0 0 0)
(0.249544 3.30249e-11 0 -1.47627e-10 0.300119 0 0 0 0)
(0.258624 -1.86075e-11 0 -1.22837e-10 0.299035 0 0 0 0)
(0.266269 -1.0072e-10 0 -7.01119e-11 0.298119 0 0 0 0)
(0.272259 -7.5639e-11 0 -1.75739e-11 0.29733 0 0 0 0)
(0.276501 5.07994e-11 0 2.36536e-11 0.298112 0 0 0 0)
(0.280351 1.08799e-10 0 5.76582e-11 0.297601 0 0 0 0)
(0.2836 -6.03162e-12 0 8.61707e-11 0.296155 0 0 0 0)
(0.285014 -1.51702e-10 0 8.67401e-11 0.296207 0 0 0 0)
(0.284889 -1.01545e-10 0 3.9087e-11 0.296304 0 0 0 0)
(0.283698 5.10734e-11 0 -2.73623e-11 0.296436 0 0 0 0)
(0.281589 1.20481e-10 0 -6.95585e-11 0.296637 0 0 0 0)
(0.278899 1.01965e-10 0 -9.04412e-11 0.296922 0 0 0 0)
(0.275751 2.16061e-11 0 -1.31373e-10 0.297241 0 0 0 0)
(0.272176 -1.93369e-11 0 -2.35758e-10 0.297851 0 0 0 0)
(0.267522 -2.95408e-11 0 -3.95617e-10 0.297817 0 0 0 0)
(0.259909 -2.80701e-11 0 -5.69399e-10 0.299447 0 0 0 0)
(0.246769 4.94978e-11 0 -6.99606e-10 0.297073 0 0 0 0)
(0.225794 -2.92111e-11 0 -7.32727e-10 0.301138 0 0 0 0)
(0.201637 -4.22996e-11 0 -6.77112e-10 0.295473 0 0 0 0)
(0.171526 8.15593e-11 0 -5.09177e-10 0.30239 0 0 0 0)
(0.143753 -3.48781e-11 0 -3.33826e-10 0.295547 0 0 0 0)
(0.105401 -8.27875e-11 0 -3.02183e-10 0.307869 0 0 0 0)
(-0.0378864 -2.30684e-11 0 -4.0274e-10 0.296125 0 0 0 0)
(2.00833 -2.05404e-11 0 -2.19066e-10 0.350519 0 0 0 0)
(2.08432 1.81502e-12 0 3.76277e-11 0.32416 0 0 0 0)
(1.10645 0.379719 0 -4.46574 0.27066 0 0 0 0)
(-0.317807 0.508472 0 -4.14699 1.74467 0 0 0 0)
(-1.92886 0.0555869 0 -3.15085 2.3895 0 0 0 0)
(-1.74348 -0.24727 0 -1.49323 2.04076 0 0 0 0)
(-0.922903 -0.267485 0 -0.362181 1.14371 0 0 0 0)
(-0.38606 -0.118582 0 0.0252937 0.59881 0 0 0 0)
(-0.231713 -0.033604 0 0.0404002 0.442337 0 0 0 0)
(-0.17358 -0.0131587 0 0.0277134 0.381024 0 0 0 0)
(-0.0531292 -0.00830525 0 0.0212121 0.348514 0 0 0 0)
(0.0712759 -0.00466453 0 0.0199491 0.317057 0 0 0 0)
(0.150854 -0.00117911 0 0.0202806 0.314078 0 0 0 0)
(0.1892 -0.0011749 0 0.017391 0.309474 0 0 0 0)
(0.209338 -0.000836624 0 0.0147383 0.306249 0 0 0 0)
(0.224788 -0.000641852 0 0.0123855 0.303662 0 0 0 0)
(0.237986 -0.000473374 0 0.0102569 0.301775 0 0 0 0)
(0.249097 -0.000360052 0 0.00823473 0.300376 0 0 0 0)
(0.258229 -0.00029091 0 0.00628161 0.29929 0 0 0 0)
(0.265913 -0.000247989 0 0.00439218 0.298373 0 0 0 0)
(0.271929 -1.04734e-06 0 0.00255923 0.297582 0 0 0 0)
(0.276186 3.94386e-05 0 0.000768526 0.29836 0 0 0 0)
(0.28004 -0.000284686 0 -0.000998817 0.297843 0 0 0 0)
(0.283282 -0.000202783 0 -0.0027529 0.296387 0 0 0 0)
(0.284677 2.16526e-05 0 -0.00450354 0.296428 0 0 0 0)
(0.284523 3.32981e-05 0 -0.00626867 0.296512 0 0 0 0)
(0.283288 4.84988e-05 0 -0.0080605 0.296634 0 0 0 0)
(0.28112 7.07213e-05 0 -0.00989369 0.296827 0 0 0 0)
(0.278347 8.78756e-05 0 -0.011793 0.297106 0 0 0 0)
(0.275085 0.00013502 0 -0.0137921 0.297425 0 0 0 0)
(0.271348 8.36918e-05 0 -0.015957 0.29805 0 0 0 0)
(0.266474 0.000232133 0 -0.0183519 0.298042 0 0 0 0)
(0.258546 -0.000108252 0 -0.0210654 0.299757 0 0 0 0)
(0.244933 0.000245955 0 -0.0242991 0.297544 0 0 0 0)
(0.22346 -0.000232661 0 -0.0281966 0.301878 0 0 0 0)
(0.198606 0.000182122 0 -0.0325916 0.296578 0 0 0 0)
(0.167974 1.07819e-05 0 -0.0382303 0.303973 0 0 0 0)
(0.139658 0.000796936 0 -0.043158 0.297635 0 0 0 0)
(0.101672 8.40481e-05 0 -0.0508816 0.31062 0 0 0 0)
(-0.0383037 0.00620368 0 -0.0543474 0.299734 0 0 0 0)
(2.00297 0.00407775 0 -0.0528483 0.347827 0 0 0 0)
(2.07794 -0.00383408 0 -0.0688477 0.366805 0 0 0 0)
(0.169869 0.579291 0 -8.19019 0.447704 0 0 0 0)
(0.0993799 0.616389 0 -5.88515 0.866248 0 0 0 0)
(-1.25407 0.0861362 0 -3.8809 1.39253 0 0 0 0)
(-1.1742 -0.362411 0 -1.66553 1.28437 0 0 0 0)
(-0.64109 -0.419478 0 -0.486498 0.878894 0 0 0 0)
(-0.313458 -0.204036 0 -0.0664237 0.569303 0 0 0 0)
(-0.228622 -0.0633561 0 -0.0475162 0.447804 0 0 0 0)
(-0.173144 -0.0272941 0 -0.033354 0.387514 0 0 0 0)
(-0.0520797 -0.0186086 0 -0.013623 0.344994 0 0 0 0)
(0.0718495 -0.0100177 0 -0.000168123 0.317812 0 0 0 0)
(0.150685 -0.0022059 0 0.00261475 0.314313 0 0 0 0)
(0.188511 -0.00227755 0 0.00216764 0.309721 0 0 0 0)
(0.208673 -0.00169072 0 0.00218467 0.306439 0 0 0 0)
(0.224118 -0.00130141 0 0.00217333 0.303837 0 0 0 0)
(0.2373 -0.000955848 0 0.00206329 0.30192 0 0 0 0)
(0.248388 -0.000723104 0 0.00179315 0.300497 0 0 0 0)
(0.257506 -0.000582874 0 0.00140625 0.299384 0 0 0 0)
(0.265186 -0.000496921 0 0.000964704 0.298445 0 0 0 0)
(0.271205 -3.59387e-06 0 0.000501676 0.29764 0 0 0 0)
(0.275466 7.60976e-05 0 2.76552e-05 0.298415 0 0 0 0)
(0.279327 -0.000574047 0 -0.000458252 0.297896 0 0 0 0)
(0.282581 -0.000411684 0 -0.000940861 0.296438 0 0 0 0)
(0.283991 3.64167e-05 0 -0.00140283 0.296482 0 0 0 0)
(0.283854 5.99305e-05 0 -0.00184922 0.296576 0 0 0 0)
(0.282643 9.14195e-05 0 -0.00226719 0.29671 0 0 0 0)
(0.280503 0.000137385 0 -0.00264252 0.296915 0 0 0 0)
(0.277765 0.000174121 0 -0.00296489 0.29721 0 0 0 0)
(0.27454 0.000274583 0 -0.00320925 0.297533 0 0 0 0)
(0.27085 0.000179504 0 -0.00339146 0.29819 0 0 0 0)
(0.266036 0.000496641 0 -0.00346545 0.298128 0 0 0 0)
(0.258179 -0.000145036 0 -0.0033993 0.299922 0 0 0 0)
(0.244694 0.000616936 0 -0.00320646 0.297698 0 0 0 0)
(0.223381 -0.000281 0 -0.00227478 0.30202 0 0 0 0)
(0.198718 0.000609417 0 -0.00102404 0.297097 0 0 0 0)
(0.168452 0.000307607 0 0.00104322 0.304025 0 0 0 0)
(0.140073 0.00193379 0 0.00482545 0.298083 0 0 0 0)
(0.102146 0.000610758 0 0.0069888 0.310531 0 0 0 0)
(-0.0384585 0.0108238 0 0.0129643 0.299473 0 0 0 0)
(2.00411 0.0195115 0 0.00742904 0.352077 0 0 0 0)
(2.07966 0.00552085 0 0.0274109 0.36683 0 0 0 0)
(1.85606 0.584115 0 -5.79882 0.0782693 0 0 0 0)
(1.90292 0.976357 0 -3.75357 0.589657 0 0 0 0)
(-0.0622306 0.28254 0 -2.55921 0.745264 0 0 0 0)
(-0.272482 -0.43633 0 -1.14996 0.684461 0 0 0 0)
(-0.245675 -0.540284 0 -0.464022 0.601953 0 0 0 0)
(-0.194645 -0.290186 0 -0.190957 0.515297 0 0 0 0)
(-0.214544 -0.113235 0 -0.140479 0.434747 0 0 0 0)
(-0.152823 -0.061305 0 -0.087525 0.376589 0 0 0 0)
(-0.0335262 -0.0401138 0 -0.0421936 0.335565 0 0 0 0)
(0.0807982 -0.0177197 0 -0.0195219 0.318359 0 0 0 0)
(0.152513 -0.00506745 0 -0.0134815 0.31367 0 0 0 0)
(0.189727 -0.00483971 0 -0.0119817 0.30864 0 0 0 0)
(0.210111 -0.00353961 0 -0.0100547 0.30541 0 0 0 0)
(0.225487 -0.00271333 0 -0.00818187 0.302959 0 0 0 0)
(0.238542 -0.00201053 0 -0.00652112 0.301111 0 0 0 0)
(0.249505 -0.00153111 0 -0.00515722 0.299719 0 0 0 0)
(0.258545 -0.00124096 0 -0.00400137 0.298607 0 0 0 0)
(0.266186 -0.00105403 0 -0.0029492 0.297665 0 0 0 0)
(0.272179 -1.63851e-05 0 -0.0019489 0.296869 0 0 0 0)
(0.276417 0.000157405 0 -0.000984742 0.297662 0 0 0 0)
(0.280257 -0.00119051 0 -6.3818e-05 0.297158 0 0 0 0)
(0.2835 -0.000848008 0 0.000826459 0.295711 0 0 0 0)
(0.284901 9.10178e-05 0 0.00170994 0.29577 0 0 0 0)
(0.284753 0.000145302 0 0.00256686 0.295884 0 0 0 0)
(0.283537 0.000211842 0 0.00340733 0.296036 0 0 0 0)
(0.281396 0.000307324 0 0.0042381 0.296255 0 0 0 0)
(0.278665 0.00037551 0 0.00505854 0.296564 0 0 0 0)
(0.275448 0.000588489 0 0.00588183 0.296877 0 0 0 0)
(0.271763 0.000346326 0 0.00665723 0.297565 0 0 0 0)
(0.266976 0.00101265 0 0.00737323 0.297391 0 0 0 0)
(0.259134 -0.00033572 0 0.00807185 0.299258 0 0 0 0)
(0.245915 0.00113294 0 0.00857934 0.296872 0 0 0 0)
(0.22492 -0.000553467 0 0.00984891 0.300899 0 0 0 0)
(0.200559 0.000946014 0 0.0111338 0.296281 0 0 0 0)
(0.17109 0.000285853 0 0.0127701 0.302021 0 0 0 0)
(0.142908 0.00356298 0 0.0160297 0.296643 0 0 0 0)
(0.106229 0.000347148 0 0.0173686 0.307256 0 0 0 0)
(-0.0378484 0.0269224 0 0.0251607 0.29647 0 0 0 0)
(2.01071 0.0284834 0 0.0148579 0.366953 0 0 0 0)
(2.08848 -0.00539664 0 -0.00733326 0.336574 0 0 0 0)
(1.93411 0.838312 0 -1.46364 0.283571 0 0 0 0)
(2.25406 1.0661 0 -1.57309 0.490476 0 0 0 0)
(0.615766 0.0721748 0 -1.23791 0.333588 0 0 0 0)
(0.361265 -0.460872 0 -0.730241 0.273421 0 0 0 0)
(0.0710035 -0.517709 0 -0.407723 0.372716 0 0 0 0)
(-0.0653912 -0.318967 0 -0.277473 0.428712 0 0 0 0)
(-0.1365 -0.170274 0 -0.180564 0.395586 0 0 0 0)
(-0.0893297 -0.104631 0 -0.0975873 0.353853 0 0 0 0)
(0.00350155 -0.0631893 0 -0.0461798 0.327337 0 0 0 0)
(0.0947189 -0.0269864 0 -0.0202939 0.319308 0 0 0 0)
(0.156971 -0.0100367 0 -0.010937 0.31232 0 0 0 0)
(0.191162 -0.00886314 0 -0.00835063 0.307147 0 0 0 0)
(0.211564 -0.00617391 0 -0.00647861 0.303971 0 0 0 0)
(0.226788 -0.00468701 0 -0.00484853 0.301717 0 0 0 0)
(0.239548 -0.00351289 0 -0.00357537 0.299956 0 0 0 0)
(0.250217 -0.0027024 0 -0.00271616 0.298605 0 0 0 0)
(0.259076 -0.00220892 0 -0.00213671 0.297502 0 0 0 0)
(0.266628 -0.00187337 0 -0.00169157 0.296565 0 0 0 0)
(0.272575 1.07032e-07 0 -0.00130974 0.295788 0 0 0 0)
(0.276773 0.000310836 0 -0.000969373 0.29661 0 0 0 0)
(0.280573 -0.00212366 0 -0.000682771 0.296121 0 0 0 0)
(0.283797 -0.00151514 0 -0.000433148 0.294674 0 0 0 0)
(0.28518 0.000173646 0 -0.0001842 0.294736 0 0 0 0)
(0.285008 0.000270107 0 2.98149e-05 0.294858 0 0 0 0)
(0.283774 0.000384853 0 0.000223416 0.295018 0 0 0 0)
(0.281616 0.000555008 0 0.000404563 0.295246 0 0 0 0)
(0.278865 0.000665586 0 0.000562136 0.295574 0 0 0 0)
(0.275593 0.001071 0 0.00070734 0.295876 0 0 0 0)
(0.271797 0.000584864 0 0.000736765 0.296657 0 0 0 0)
(0.266895 0.00185188 0 0.000611545 0.296351 0 0 0 0)
(0.258829 -0.000542458 0 0.000403515 0.298466 0 0 0 0)
(0.245752 0.00192182 0 -0.000197931 0.296068 0 0 0 0)
(0.225018 -0.000704494 0 0.000103348 0.299926 0 0 0 0)
(0.200546 0.00150998 0 0.000436366 0.296294 0 0 0 0)
(0.171756 0.000667791 0 0.000679393 0.301024 0 0 0 0)
(0.142984 0.00610459 0 0.00263704 0.297438 0 0 0 0)
(0.108755 0.000585357 0 0.00208943 0.305479 0 0 0 0)
(-0.041205 0.0597175 0 0.00981307 0.298321 0 0 0 0)
(1.96927 0.0533462 0 0.00715084 0.363703 0 0 0 0)
(2.05355 -0.0178995 0 -0.00425582 0.37181 0 0 0 0)
(1.75059 0.783497 0 -0.257721 0.384744 0 0 0 0)
(2.12044 1.02456 0 -0.528666 0.138965 0 0 0 0)
(0.749973 0.0733783 0 -0.491388 0.0989359 0 0 0 0)
(0.527514 -0.398625 0 -0.436001 0.116662 0 0 0 0)
(0.190628 -0.390641 0 -0.326793 0.255501 0 0 0 0)
(0.0242541 -0.268147 0 -0.293189 0.333205 0 0 0 0)
(-0.0411993 -0.185371 0 -0.178665 0.346676 0 0 0 0)
(-0.0233256 -0.127072 0 -0.110245 0.328381 0 0 0 0)
(0.0409566 -0.0734028 0 -0.0576156 0.31997 0 0 0 0)
(0.114759 -0.0321916 0 -0.0283492 0.317771 0 0 0 0)
(0.164022 -0.016786 0 -0.0158852 0.310274 0 0 0 0)
(0.194023 -0.0128851 0 -0.011117 0.305494 0 0 0 0)
(0.213485 -0.00877243 0 -0.00822798 0.302408 0 0 0 0)
(0.228285 -0.00658163 0 -0.00603048 0.300322 0 0 0 0)
(0.240597 -0.00500917 0 -0.00445973 0.298594 0 0 0 0)
(0.250891 -0.00389613 0 -0.00342059 0.297234 0 0 0 0)
(0.259533 -0.00320728 0 -0.00271369 0.296101 0 0 0 0)
(0.266983 -0.00270619 0 -0.00216286 0.295141 0 0 0 0)
(0.272875 2.67549e-05 0 -0.00168878 0.29437 0 0 0 0)
(0.277021 0.000478657 0 -0.00127236 0.295222 0 0 0 0)
(0.280773 -0.00305596 0 -0.00092907 0.294745 0 0 0 0)
(0.28398 -0.00218268 0 -0.000630205 0.293288 0 0 0 0)
(0.285347 0.00026909 0 -0.00032277 0.293355 0 0 0 0)
(0.285146 0.000417163 0 -5.72406e-05 0.2935 0 0 0 0)
(0.283898 0.00058498 0 0.00018806 0.293687 0 0 0 0)
(0.281723 0.000842668 0 0.000431025 0.293947 0 0 0 0)
(0.278957 0.000982956 0 0.000651172 0.294335 0 0 0 0)
(0.275616 0.00163252 0 0.000868102 0.294625 0 0 0 0)
(0.271671 0.000803984 0 0.000926907 0.295587 0 0 0 0)
(0.266654 0.00275591 0 0.000784649 0.295041 0 0 0 0)
(0.258354 -0.00060794 0 0.000607014 0.297528 0 0 0 0)
(0.245626 0.00253951 0 -0.000106944 0.295125 0 0 0 0)
(0.225531 -0.000336338 0 0.000403487 0.298585 0 0 0 0)
(0.201114 0.00200463 0 0.00124742 0.296364 0 0 0 0)
(0.173211 0.00138826 0 0.00176718 0.299703 0 0 0 0)
(0.144267 0.00785562 0 0.00396644 0.298276 0 0 0 0)
(0.113144 0.00119862 0 0.00351348 0.302764 0 0 0 0)
(-0.0329711 0.083029 0 0.0107597 0.299645 0 0 0 0)
(1.99715 0.0992997 0 0.00560575 0.343289 0 0 0 0)
(2.07749 0.00241591 0 -0.0154058 0.352494 0 0 0 0)
(1.67302 0.60147 0 -0.0279507 0.518788 0 0 0 0)
(2.02889 0.790688 0 -0.149607 0.166271 0 0 0 0)
(0.705062 0.0506826 0 -0.184073 0.0711133 0 0 0 0)
(0.519875 -0.31 0 -0.280537 0.10844 0 0 0 0)
(0.208622 -0.30904 0 -0.255813 0.240582 0 0 0 0)
(0.0773504 -0.231107 0 -0.259818 0.276608 0 0 0 0)
(0.0397912 -0.174923 0 -0.168944 0.303153 0 0 0 0)
(0.027318 -0.130366 0 -0.114737 0.307279 0 0 0 0)
(0.0824198 -0.0734137 0 -0.0631846 0.312673 0 0 0 0)
(0.134932 -0.03633 0 -0.0354668 0.311818 0 0 0 0)
(0.173577 -0.021867 0 -0.0216422 0.306409 0 0 0 0)
(0.198541 -0.0164431 0 -0.0150688 0.302748 0 0 0 0)
(0.216466 -0.0111574 0 -0.0110149 0.300032 0 0 0 0)
(0.230419 -0.00836286 0 -0.00812154 0.298151 0 0 0 0)
(0.242063 -0.00648874 0 -0.00615075 0.296469 0 0 0 0)
(0.2519 -0.00510438 0 -0.00481071 0.295104 0 0 0 0)
(0.260288 -0.00422633 0 -0.00383324 0.293947 0 0 0 0)
(0.267616 -0.00354121 0 -0.00303067 0.292969 0 0 0 0)
(0.273433 7.87535e-05 0 -0.002323 0.292215 0 0 0 0)
(0.277505 0.000671841 0 -0.00169984 0.293113 0 0 0 0)
(0.281192 -0.00398775 0 -0.0011765 0.292649 0 0 0 0)
(0.284381 -0.00285469 0 -0.000710077 0.291174 0 0 0 0)
(0.285732 0.000378313 0 -0.000228761 0.291243 0 0 0 0)
(0.2855 0.00059008 0 0.000201284 0.291418 0 0 0 0)
(0.284245 0.000815233 0 0.000613102 0.291637 0 0 0 0)
(0.282062 0.00117941 0 0.0010335 0.291932 0 0 0 0)
(0.279287 0.00131853 0 0.00142993 0.292394 0 0 0 0)
(0.275859 0.00227759 0 0.00183531 0.292632 0 0 0 0)
(0.271717 0.000986652 0 0.00202586 0.293819 0 0 0 0)
(0.266586 0.00372231 0 0.00197416 0.292913 0 0 0 0)
(0.25797 -0.000462414 0 0.00203528 0.295773 0 0 0 0)
(0.245556 0.002941 0 0.00147352 0.293472 0 0 0 0)
(0.226323 0.000489805 0 0.00227867 0.296336 0 0 0 0)
(0.20186 0.0025873 0 0.00380698 0.295377 0 0 0 0)
(0.174376 0.00250997 0 0.00498862 0.29751 0 0 0 0)
(0.144667 0.00905363 0 0.00759005 0.297937 0 0 0 0)
(0.115302 0.0019054 0 0.00763704 0.29962 0 0 0 0)
(-0.0391888 0.098769 0 0.0148771 0.299146 0 0 0 0)
(1.94405 0.104273 0 -0.000925596 0.340183 0 0 0 0)
(2.0333 -0.00902894 0 -0.0502068 0.351341 0 0 0 0)
(1.63335 0.443799 0 0.0506301 0.453535 0 0 0 0)
(1.97 0.59316 0 -0.0288592 0.162075 0 0 0 0)
(0.623804 0.0176502 0 -0.0778023 0.0923711 0 0 0 0)
(0.458383 -0.235319 0 -0.2042 0.116758 0 0 0 0)
(0.210594 -0.228589 0 -0.215508 0.230419 0 0 0 0)
(0.107964 -0.207852 0 -0.193121 0.257152 0 0 0 0)
(0.0986059 -0.155814 0 -0.157347 0.274186 0 0 0 0)
(0.0785884 -0.117898 0 -0.101102 0.295131 0 0 0 0)
(0.117344 -0.0690296 0 -0.0616256 0.30493 0 0 0 0)
(0.154791 -0.0382283 0 -0.0373378 0.305463 0 0 0 0)
(0.183678 -0.025526 0 -0.0246293 0.301727 0 0 0 0)
(0.204264 -0.0190301 0 -0.0174448 0.299291 0 0 0 0)
(0.22018 -0.0132016 0 -0.0128624 0.29706 0 0 0 0)
(0.232972 -0.0100154 0 -0.00967074 0.295342 0 0 0 0)
(0.243787 -0.00794614 0 -0.00751225 0.293698 0 0 0 0)
(0.253124 -0.00632568 0 -0.00598175 0.292321 0 0 0 0)
(0.261248 -0.0052638 0 -0.00479502 0.291145 0 0 0 0)
(0.268438 -0.00437553 0 -0.00378368 0.29015 0 0 0 0)
(0.274158 0.000164769 0 -0.00287768 0.289419 0 0 0 0)
(0.278126 0.000896502 0 -0.002087 0.290378 0 0 0 0)
(0.281727 -0.00492411 0 -0.00142623 0.28993 0 0 0 0)
(0.284894 -0.00353685 0 -0.000838684 0.288428 0 0 0 0)
(0.286225 0.000503956 0 -0.000233078 0.288503 0 0 0 0)
(0.285957 0.000796791 0 0.000304037 0.288717 0 0 0 0)
(0.2847 0.00108055 0 0.000815788 0.288982 0 0 0 0)
(0.28251 0.00157199 0 0.00133435 0.289323 0 0 0 0)
(0.27973 0.00165757 0 0.00178319 0.289889 0 0 0 0)
(0.276191 0.00300523 0 0.00222313 0.290037 0 0 0 0)
(0.271805 0.0010746 0 0.00233425 0.291575 0 0 0 0)
(0.266664 0.00463877 0 0.00201528 0.290246 0 0 0 0)
(0.257871 -6.89106e-05 0 0.00185025 0.293441 0 0 0 0)
(0.24586 0.00308214 0 0.000904874 0.291345 0 0 0 0)
(0.22778 0.00149902 0 0.00114742 0.293595 0 0 0 0)
(0.203725 0.00313601 0 0.00184855 0.293607 0 0 0 0)
(0.176856 0.0038553 0 0.00209255 0.294568 0 0 0 0)
(0.146819 0.00988881 0 0.00256685 0.296605 0 0 0 0)
(0.120166 0.00236395 0 0.000247751 0.295759 0 0 0 0)
(-0.0412224 0.122117 0 0.00290404 0.297603 0 0 0 0)
(1.93443 0.149597 0 -0.00919602 0.33682 0 0 0 0)
(2.03 0.0131687 0 -0.0541525 0.354217 0 0 0 0)
(1.59642 0.320608 0 0.0149483 0.393293 0 0 0 0)
(1.90513 0.442657 0 -0.0108232 0.168763 0 0 0 0)
(0.536097 0.0070138 0 -0.066676 0.116404 0 0 0 0)
(0.387177 -0.176972 0 -0.171525 0.145943 0 0 0 0)
(0.219299 -0.173751 0 -0.199603 0.210632 0 0 0 0)
(0.133397 -0.188931 0 -0.155161 0.245019 0 0 0 0)
(0.128464 -0.138325 0 -0.142373 0.262115 0 0 0 0)
(0.119558 -0.100741 0 -0.0962044 0.284669 0 0 0 0)
(0.143866 -0.0634572 0 -0.0624623 0.296806 0 0 0 0)
(0.170583 -0.039416 0 -0.0412782 0.297925 0 0 0 0)
(0.192747 -0.0278144 0 -0.0285777 0.296152 0 0 0 0)
(0.20988 -0.0209403 0 -0.0205355 0.294832 0 0 0 0)
(0.223957 -0.0149632 0 -0.015241 0.293212 0 0 0 0)
(0.235575 -0.0116026 0 -0.0116276 0.291733 0 0 0 0)
(0.245618 -0.00940003 0 -0.0091505 0.290211 0 0 0 0)
(0.254518 -0.00756469 0 -0.00732764 0.28888 0 0 0 0)
(0.262406 -0.00631813 0 -0.00586151 0.287728 0 0 0 0)
(0.269463 -0.00520468 0 -0.00459303 0.28674 0 0 0 0)
(0.275068 0.000298169 0 -0.00345248 0.286054 0 0 0 0)
(0.278903 0.00116411 0 -0.00247093 0.287101 0 0 0 0)
(0.282395 -0.00586635 0 -0.00165363 0.286675 0 0 0 0)
(0.285531 -0.00422991 0 -0.000926549 0.285135 0 0 0 0)
(0.286833 0.000656533 0 -0.00017161 0.285206 0 0 0 0)
(0.286511 0.00105174 0 0.000511275 0.285455 0 0 0 0)
(0.285238 0.00139874 0 0.00118125 0.285738 0 0 0 0)
(0.282995 0.00205389 0 0.00190557 0.286076 0 0 0 0)
(0.280143 0.00200655 0 0.00259505 0.286722 0 0 0 0)
(0.27639 0.00390204 0 0.00336038 0.286599 0 0 0 0)
(0.271516 0.00118875 0 0.0038922 0.28847 0 0 0 0)
(0.26612 0.00552039 0 0.00410233 0.286535 0 0 0 0)
(0.2569 0.000596285 0 0.0048583 0.289798 0 0 0 0)
(0.244878 0.00308917 0 0.00511596 0.287828 0 0 0 0)