/*--------------------------------*- C++ -*----------------------------------*\
| =========                 |                                                 |
| \\      /  F ield         | OpenFOAM: The Open Source CFD Toolbox           |
|  \\    /   O peration     | Version:  v1912                                 |
|   \\  /    A nd           | Website:  www.openfoam.com                      |
|    \\/     M anipulation  |                                                 |
\*---------------------------------------------------------------------------*/
FoamFile
{
    version     2.0;
    format      ascii;
    class       volScalarField;
    location    "4.28";
    object      T;
}
// * * * * * * * * * * * * * * * * * * * * * * * * * * * * * * * * * * * * * //

dimensions      [0 0 0 1 0 0 0];


internalField   nonuniform List<scalar> 
1900
(
1.17169
0.987735
1.01273
1.02851
1.02856
1.02469
1.0192
1.01444
1.01078
1.00665
1.17169
0.987741
1.01273
1.02852
1.02857
1.02472
1.01928
1.01451
1.01039
1.00584
1.17169
0.987744
1.01274
1.02852
1.02857
1.0247
1.01923
1.01441
1.01017
1.00543
1.17169
0.987741
1.01273
1.02852
1.02857
1.02472
1.01928
1.01451
1.01039
1.00584
1.17169
0.987735
1.01273
1.02851
1.02856
1.02469
1.0192
1.01444
1.01078
1.00665
1.00121
0.990191
0.972343
0.949198
0.926106
0.998817
0.986824
0.968348
0.944611
0.917278
0.998075
0.986481
0.968202
0.944168
0.918169
0.998817
0.986824
0.968348
0.944611
0.917278
1.00121
0.990191
0.972343
0.949198
0.926106
0.860844
0.81549
0.776322
0.745023
0.727187
0.864079
0.816715
0.777786
0.746598
0.725426
0.86381
0.816692
0.777909
0.746584
0.721531
0.864079
0.816715
0.777786
0.746598
0.725426
0.860844
0.81549
0.776322
0.745023
0.727187
0.698132
0.61388
0.657512
0.692994
0.683458
0.669883
0.656786
0.640695
0.628004
0.617016
0.611218
0.60723
0.604047
0.601384
0.599195
0.597414
0.595971
0.594792
0.593839
0.593036
0.592388
0.591859
0.591396
0.591014
0.590698
0.590456
0.590289
0.590187
0.590111
0.590032
0.589865
0.589796
0.589702
0.590087
0.590232
0.59081
0.590902
0.590065
0.549249
0.447657
0.694397
0.62737
0.66336
0.697106
0.685729
0.670643
0.657164
0.640825
0.628137
0.61702
0.611236
0.607243
0.60406
0.601395
0.599203
0.597421
0.595977
0.594798
0.593845
0.593041
0.592393
0.591864
0.591401
0.591018
0.590701
0.590459
0.590293
0.590191
0.590115
0.590035
0.589869
0.589798
0.589706
0.590098
0.590243
0.590835
0.590937
0.590126
0.549664
0.448194
0.689661
0.642014
0.67541
0.702113
0.687352
0.670998
0.657359
0.640854
0.628216
0.617021
0.611249
0.607251
0.604067
0.601399
0.599207
0.597424
0.59598
0.594801
0.593848
0.593044
0.592395
0.591866
0.591403
0.59102
0.590703
0.590461
0.590295
0.590194
0.590119
0.59004
0.589875
0.589808
0.589723
0.590129
0.590295
0.59092
0.591081
0.59033
0.550172
0.450083
0.694397
0.62737
0.66336
0.697106
0.685729
0.670643
0.657164
0.640825
0.628137
0.61702
0.611236
0.607243
0.60406
0.601395
0.599203
0.597421
0.595977
0.594798
0.593845
0.593041
0.592393
0.591864
0.591401
0.591018
0.590701
0.590459
0.590293
0.590191
0.590115
0.590035
0.589869
0.589798
0.589706
0.590098
0.590243
0.590835
0.590937
0.590126
0.549664
0.448194
0.698132
0.61388
0.657512
0.692994
0.683458
0.669883
0.656786
0.640695
0.628004
0.617016
0.611218
0.60723
0.604047
0.601384
0.599195
0.597414
0.595971
0.594792
0.593839
0.593036
0.592388
0.591859
0.591396
0.591014
0.590698
0.590456
0.590289
0.590187
0.590111
0.590032
0.589865
0.589796
0.589702
0.590087
0.590232
0.59081
0.590902
0.590065
0.549249
0.447657
0.588648
0.569482
0.63812
0.680181
0.677053
0.666927
0.655054
0.639859
0.62709
0.61682
0.611076
0.607108
0.603937
0.601294
0.599122
0.597353
0.595917
0.594743
0.593794
0.592993
0.592347
0.591821
0.591359
0.590976
0.590659
0.590416
0.590247
0.590143
0.590064
0.589986
0.589818
0.589752
0.589655
0.59002
0.590166
0.590696
0.590785
0.589925
0.549087
0.452805
0.478035
0.559096
0.633938
0.661384
0.664925
0.659609
0.650286
0.637081
0.625019
0.616229
0.610718
0.606828
0.603697
0.601103
0.598971
0.597228
0.595807
0.594644
0.593703
0.592909
0.592269
0.591747
0.591288
0.590907
0.59059
0.590345
0.590173
0.590067
0.589984
0.589909
0.589743
0.589684
0.589582
0.589902
0.590031
0.590451
0.590503
0.589637
0.549137
0.446988
0.451916
0.573022
0.629943
0.648325
0.654174
0.651486
0.643887
0.632853
0.622628
0.615118
0.610121
0.606385
0.603344
0.600827
0.598753
0.597048
0.595651
0.594504
0.593576
0.592793
0.592162
0.591648
0.591193
0.590814
0.590497
0.590248
0.59007
0.589958
0.589868
0.589799
0.589631
0.58958
0.589468
0.589717
0.589817
0.590088
0.590088
0.589202
0.549936
0.447689
0.448093
0.580004
0.624164
0.638478
0.644903
0.643224
0.63687
0.628297
0.61994
0.613782
0.609306
0.605799
0.602898
0.600486
0.598486
0.596827
0.595462
0.594338
0.593429
0.59266
0.592042
0.591537
0.591088
0.590712
0.590393
0.59014
0.589952
0.589832
0.58973
0.589669
0.5895
0.589454
0.589326
0.589485
0.589542
0.589666
0.589602
0.588714
0.549913
0.447488
0.449864
0.578914
0.61936
0.629905
0.636475
0.635266
0.630176
0.623737
0.617289
0.612274
0.60834
0.605103
0.602383
0.600097
0.598182
0.596579
0.595252
0.594158
0.593274
0.592525
0.591922
0.59143
0.590987
0.590613
0.590291
0.59003
0.589829
0.589698
0.58958
0.589526
0.589351
0.589304
0.589143
0.589193
0.589179
0.589149
0.588992
0.588119
0.55005
0.447623
0.452409
0.575161
0.613988
0.622578
0.628553
0.628017
0.624512
0.619685
0.614838
0.610771
0.607318
0.604365
0.601839
0.599685
0.597858
0.596317
0.595035
0.593978
0.593125
0.5924
0.591817
0.591339
0.590903
0.590531
0.590204
0.589934
0.589718
0.589577
0.589446
0.589407
0.589232
0.589188
0.589006
0.588958
0.588882
0.588748
0.588524
0.58767
0.549832
0.447289
0.458009
0.572117
0.609427
0.61653
0.621493
0.621701
0.619463
0.616073
0.612494
0.609214
0.606227
0.603578
0.601258
0.599243
0.597512
0.59604
0.594813
0.593801
0.592986
0.592289
0.591729
0.591267
0.590838
0.590467
0.590132
0.589848
0.58961
0.589455
0.5893
0.589273
0.589088
0.589027
0.588805
0.588638
0.58847
0.588228
0.587923
0.587188
0.550834
0.448102
0.452184
0.568976
0.604901
0.610783
0.615301
0.616408
0.61529
0.613204
0.610586
0.607906
0.605295
0.602895
0.600735
0.598827
0.597172
0.595762
0.594586
0.593621
0.592847
0.592182
0.591648
0.591206
0.590786
0.590418
0.59008
0.589791
0.589542
0.589394
0.589242
0.589264
0.589098
0.589038
0.588796
0.588526
0.588257
0.587933
0.587543
0.586828
0.550999
0.448445
0.451621
0.567247
0.601168
0.606085
0.610311
0.611967
0.611733
0.610623
0.60871
0.606538
0.604278
0.602124
0.600122
0.598327
0.596758
0.59542
0.594307
0.593396
0.592671
0.592042
0.591537
0.591115
0.590703
0.590336
0.589992
0.589692
0.589423
0.589278
0.58912
0.58917
0.589
0.588905
0.58861
0.5882
0.587758
0.587343
0.586845
0.5863
0.553125
0.449557
0.450519
0.564766
0.597626
0.601777
0.606077
0.608227
0.608839
0.608483
0.607193
0.605469
0.603505
0.601548
0.599647
0.59792
0.596395
0.595098
0.594025
0.593155
0.592468
0.591871
0.591396
0.591002
0.590612
0.590263
0.589934
0.589654
0.589401
0.589302
0.589175
0.589274
0.589119
0.588991
0.588637
0.588062
0.587402
0.586847
0.586166
0.585606
0.553392
0.450028
0.449826
0.563173
0.594853
0.598416
0.602826
0.605146
0.606329
0.606483
0.605573
0.604231
0.602515
0.600746
0.598953
0.597319
0.595866
0.594635
0.593622
0.592806
0.592168
0.591607
0.591165
0.590798
0.590424
0.590087
0.589759
0.589483
0.58922
0.589135
0.589002
0.589115
0.588945
0.58877
0.588368
0.587657
0.586795
0.586103
0.58534
0.584876
0.555022
0.450799
0.449237
0.561236
0.59177
0.594998
0.599641
0.602203
0.603848
0.604455
0.603935
0.603046
0.60159
0.600039
0.598365
0.596843
0.595475
0.594323
0.593374
0.592614
0.592023
0.591498
0.591092
0.590759
0.590407
0.590084
0.589756
0.589476
0.589188
0.589089
0.588913
0.588998
0.588759
0.588441
0.587868
0.586898
0.585697
0.584705
0.583748
0.583206
0.55452
0.451147
0.448561
0.559409
0.589018
0.592269
0.596683
0.599543
0.601639
0.602544
0.602405
0.601855
0.600592
0.599232
0.597656
0.596257
0.594996
0.593952
0.593096
0.592412
0.591882
0.591395
0.591023
0.590718
0.590375
0.590051
0.589706
0.589408
0.589078
0.588961
0.588731
0.588767
0.588446
0.587964
0.587244
0.586036
0.584607
0.583302
0.58213
0.581544
0.554062
0.451178
0.448069
0.55737
0.586119
0.589782
0.593953
0.596846
0.59917
0.600294
0.600732
0.600498
0.599475
0.598362
0.596951
0.595767
0.594684
0.593828
0.593148
0.592614
0.592198
0.591784
0.591449
0.591142
0.590752
0.590356
0.589915
0.589525
0.589077
0.588871
0.588508
0.588406
0.587964
0.587262
0.586299
0.584676
0.582785
0.580858
0.579318
0.578804
0.552227
0.450844
0.447517
0.554277
0.58208
0.585727
0.590105
0.594115
0.596772
0.598204
0.599025
0.599164
0.598409
0.597542
0.596258
0.595241
0.594301
0.593597
0.593044
0.592605
0.59226
0.591893
0.591602
0.59133
0.590944
0.59053
0.590043
0.58961
0.589087
0.588807
0.588309
0.588015
0.587367
0.586294
0.585081
0.583013
0.580806
0.578036
0.575858
0.575246
0.549419
0.450235
0.447333
0.552234
0.578669
0.582199
0.58684
0.591836
0.594491
0.596236
0.59803
0.597952
0.597264
0.596581
0.595468
0.594656
0.593895
0.593404
0.593063
0.592838
0.592665
0.592387
0.592115
0.591791
0.591294
0.590755
0.59013
0.589599
0.588973
0.588627
0.588046
0.587631
0.586922
0.585602
0.584175
0.58153
0.578574
0.575249
0.572538
0.572099
0.548047
0.450896
0.449435
0.550745
0.575494
0.578243
0.583528
0.589146
0.592531
0.595139
0.596764
0.596788
0.596525
0.595828
0.594663
0.593965
0.593325
0.593029
0.592856
0.592774
0.592684
0.592472
0.592251
0.591918
0.591361
0.590744
0.590015
0.589401
0.588703
0.58828
0.587603
0.58698
0.586137
0.584522
0.582916
0.580024
0.57664
0.572904
0.569377
0.569291
0.547422
0.453993
0.456274
0.552158
0.576104
0.578488
0.583249
0.588522
0.591769
0.594625
0.595826
0.595927
0.595663
0.594794
0.5936
0.592884
0.592242
0.591991
0.591862
0.591835
0.591831
0.59172
0.591484
0.591068
0.590463
0.589834
0.589099
0.588498
0.587888
0.587441
0.586893
0.586231
0.585521
0.583886
0.582294
0.579408
0.575916
0.572333
0.569081
0.56888
0.548729
0.462122
0.425038
0.531743
0.559885
0.560363
0.562386
0.565344
0.567198
0.568752
0.567376
0.56548
0.563065
0.55955
0.55727
0.555032
0.553647
0.552472
0.551719
0.551227
0.550983
0.551964
0.551627
0.550128
0.549812
0.549572
0.549716
0.549636
0.550501
0.550474
0.552245
0.552386
0.554428
0.553888
0.554216
0.552691
0.550179
0.548276
0.547193
0.548641
0.52474
0.426715
0.368469
0.431948
0.471696
0.464076
0.460755
0.459658
0.45863
0.457754
0.456041
0.454407
0.452869
0.451201
0.4499
0.448849
0.447983
0.447484
0.44716
0.447522
0.447299
0.447797
0.447707
0.446929
0.447225
0.446338
0.446848
0.4464
0.447131
0.447245
0.448154
0.448359
0.4491
0.449514
0.449899
0.449957
0.449828
0.450392
0.453394
0.461635
0.427023
0.365292
0.368469
0.431948
0.471696
0.464076
0.460755
0.459658
0.45863
0.457754
0.456041
0.454407
0.452869
0.451201
0.4499
0.448849
0.447983
0.447484
0.44716
0.447522
0.447299
0.447797
0.447707
0.446929
0.447225
0.446338
0.446848
0.4464
0.447131
0.447245
0.448154
0.448359
0.4491
0.449514
0.449899
0.449957
0.449828
0.450392
0.453394
0.461635
0.427023
0.365292
0.425038
0.531743
0.559885
0.560363
0.562386
0.565344
0.567198
0.568752
0.567376
0.56548
0.563065
0.55955
0.55727
0.555032
0.553647
0.552472
0.551719
0.551227
0.550983
0.551964
0.551627
0.550128
0.549812
0.549572
0.549716
0.549636
0.550501
0.550474
0.552245
0.552386
0.554428
0.553888
0.554216
0.552691
0.550179
0.548276
0.547193
0.548641
0.52474
0.426715
0.456274
0.552158
0.576104
0.578488
0.583249
0.588522
0.591769
0.594625
0.595826
0.595927
0.595663
0.594794
0.5936
0.592884
0.592242
0.591991
0.591862
0.591835
0.591831
0.59172
0.591484
0.591068
0.590463
0.589834
0.589099
0.588498
0.587888
0.587441
0.586893
0.586231
0.585521
0.583886
0.582294
0.579408
0.575916
0.572333
0.569081
0.56888
0.548729
0.462122
0.449435
0.550745
0.575494
0.578243
0.583528
0.589146
0.592531
0.595139
0.596764
0.596788
0.596525
0.595828
0.594663
0.593965
0.593325
0.593029
0.592856
0.592774
0.592684
0.592472
0.592251
0.591918
0.591361
0.590744
0.590015
0.589401
0.588703
0.58828
0.587603
0.58698
0.586137
0.584522
0.582916
0.580024
0.57664
0.572904
0.569377
0.569291
0.547422
0.453993
0.447333
0.552234
0.578669
0.582199
0.58684
0.591836
0.594491
0.596236
0.59803
0.597952
0.597264
0.596581
0.595468
0.594656
0.593895
0.593404
0.593063
0.592838
0.592665
0.592387
0.592115
0.591791
0.591294
0.590755
0.59013
0.589599
0.588973
0.588627
0.588046
0.587631
0.586922
0.585602
0.584175
0.58153
0.578574
0.575249
0.572538
0.572099
0.548047
0.450896
0.447517
0.554277
0.58208
0.585727
0.590105
0.594115
0.596772
0.598204
0.599025
0.599164
0.598409
0.597542
0.596258
0.595241
0.594301
0.593597
0.593044
0.592605
0.59226
0.591893
0.591602
0.59133
0.590944
0.59053
0.590043
0.58961
0.589087
0.588807
0.588309
0.588015
0.587367
0.586294
0.585081
0.583013
0.580806
0.578036
0.575858
0.575246
0.549419
0.450235
0.448069
0.55737
0.586119
0.589782
0.593953
0.596846
0.59917
0.600294
0.600732
0.600498
0.599475
0.598362
0.596951
0.595767
0.594684
0.593828
0.593148
0.592614
0.592198
0.591784
0.591449
0.591142
0.590752
0.590356
0.589915
0.589525
0.589077
0.588871
0.588508
0.588406
0.587964
0.587262
0.586299
0.584676
0.582785
0.580858
0.579318
0.578804
0.552227
0.450844
0.448561
0.559409
0.589018
0.592269
0.596683
0.599543
0.601639
0.602544
0.602405
0.601855
0.600592
0.599232
0.597656
0.596257
0.594996
0.593952
0.593096
0.592412
0.591882
0.591395
0.591023
0.590718
0.590375
0.590051
0.589706
0.589408
0.589078
0.588961
0.588731
0.588767
0.588446
0.587964
0.587244
0.586036
0.584607
0.583302
0.58213
0.581544
0.554062
0.451178
0.449237
0.561236
0.59177
0.594998
0.599641
0.602203
0.603848
0.604455
0.603935
0.603046
0.60159
0.600039
0.598365
0.596843
0.595475
0.594323
0.593374
0.592614
0.592023
0.591498
0.591092
0.590759
0.590407
0.590084
0.589756
0.589476
0.589188
0.589089
0.588913
0.588998
0.588759
0.588441
0.587868
0.586898
0.585697
0.584705
0.583748
0.583206
0.55452
0.451147
0.449826
0.563173
0.594853
0.598416
0.602826
0.605146
0.606329
0.606483
0.605573
0.604231
0.602515
0.600746
0.598953
0.597319
0.595866
0.594635
0.593622
0.592806
0.592168
0.591607
0.591165
0.590798
0.590424
0.590087
0.589759
0.589483
0.58922
0.589135
0.589002
0.589115
0.588945
0.58877
0.588368
0.587657
0.586795
0.586103
0.58534
0.584876
0.555022
0.450799
0.450519
0.564766
0.597626
0.601777
0.606077
0.608227
0.608839
0.608483
0.607193
0.605469
0.603505
0.601548
0.599647
0.59792
0.596395
0.595098
0.594025
0.593155
0.592468
0.591871
0.591396
0.591002
0.590612
0.590263
0.589934
0.589654
0.589401
0.589302
0.589175
0.589274
0.589119
0.588991
0.588637
0.588062
0.587402
0.586847
0.586166
0.585606
0.553392
0.450028
0.451621
0.567247
0.601168
0.606085
0.610311
0.611967
0.611733
0.610623
0.60871
0.606538
0.604278
0.602124
0.600122
0.598327
0.596758
0.59542
0.594307
0.593396
0.592671
0.592042
0.591537
0.591115
0.590703
0.590336
0.589992
0.589692
0.589423
0.589278
0.58912
0.58917
0.589
0.588905
0.58861
0.5882
0.587758
0.587343
0.586845
0.5863
0.553125
0.449557
0.452184
0.568976
0.604901
0.610783
0.615301
0.616408
0.61529
0.613204
0.610586
0.607906
0.605295
0.602895
0.600735
0.598827
0.597172
0.595762
0.594586
0.593621
0.592847
0.592182
0.591648
0.591206
0.590786
0.590418
0.59008
0.589791
0.589542
0.589394
0.589242
0.589264
0.589098
0.589038
0.588796
0.588526
0.588257
0.587933
0.587543
0.586828
0.550999
0.448445
0.458009
0.572117
0.609427
0.61653
0.621493
0.621701
0.619463
0.616073
0.612494
0.609214
0.606227
0.603578
0.601258
0.599243
0.597512
0.59604
0.594813
0.593801
0.592986
0.592289
0.591729
0.591267
0.590838
0.590467
0.590132
0.589848
0.58961
0.589455
0.5893
0.589273
0.589088
0.589027
0.588805
0.588638
0.58847
0.588228
0.587923
0.587188
0.550834
0.448102
0.452409
0.575161
0.613988
0.622578
0.628553
0.628017
0.624512
0.619685
0.614838
0.610771
0.607318
0.604365
0.601839
0.599685
0.597858
0.596317
0.595035
0.593978
0.593125
0.5924
0.591817
0.591339
0.590903
0.590531
0.590204
0.589934
0.589718
0.589577
0.589446
0.589407
0.589232
0.589188
0.589006
0.588958
0.588882
0.588748
0.588524
0.58767
0.549832
0.447289
0.449864
0.578914
0.61936
0.629905
0.636475
0.635266
0.630176
0.623737
0.617289
0.612274
0.60834
0.605103
0.602383
0.600097
0.598182
0.596579
0.595252
0.594158
0.593274
0.592525
0.591922
0.59143
0.590987
0.590613
0.590291
0.59003
0.589829
0.589698
0.58958
0.589526
0.589351
0.589304
0.589143
0.589193
0.589179
0.589149
0.588992
0.588119
0.55005
0.447623
0.448093
0.580004
0.624164
0.638478
0.644903
0.643224
0.63687
0.628297
0.61994
0.613782
0.609306
0.605799
0.602898
0.600486
0.598486
0.596827
0.595462
0.594338
0.593429
0.59266
0.592042
0.591537
0.591088
0.590712
0.590393
0.59014
0.589952
0.589832
0.58973
0.589669
0.5895
0.589454
0.589326
0.589485
0.589542
0.589666
0.589602
0.588714
0.549913
0.447488
0.451916
0.573022
0.629943
0.648325
0.654174
0.651486
0.643887
0.632853
0.622628
0.615118
0.610121
0.606385
0.603344
0.600827
0.598753
0.597048
0.595651
0.594504
0.593576
0.592793
0.592162
0.591648
0.591193
0.590814
0.590497
0.590248
0.59007
0.589958
0.589868
0.589799
0.589631
0.58958
0.589468
0.589717
0.589817
0.590088
0.590088
0.589202
0.549936
0.447689
0.478035
0.559096
0.633938
0.661384
0.664925
0.659609
0.650286
0.637081
0.625019
0.616229
0.610718
0.606828
0.603697
0.601103
0.598971
0.597228
0.595807
0.594644
0.593703
0.592909
0.592269
0.591747
0.591288
0.590907
0.59059
0.590345
0.590173
0.590067
0.589984
0.589909
0.589743
0.589684
0.589582
0.589902
0.590031
0.590451
0.590503
0.589637
0.549137
0.446988
0.588648
0.569482
0.63812
0.680181
0.677053
0.666927
0.655054
0.639859
0.62709
0.61682
0.611076
0.607108
0.603937
0.601294
0.599122
0.597353
0.595917
0.594743
0.593794
0.592993
0.592347
0.591821
0.591359
0.590976
0.590659
0.590416
0.590247
0.590143
0.590064
0.589986
0.589818
0.589752
0.589655
0.59002
0.590166
0.590696
0.590785
0.589925
0.549087
0.452805
)
;

boundaryField
{
    inlet
    {
        type            fixedValue;
        value           uniform 1;
    }
    outlet
    {
        type            zeroGradient;
    }
    obstacle
    {
        type            zeroGradient;
    }
    empty
    {
        type            empty;
    }
}


// ************************************************************************* //
