/*--------------------------------*- C++ -*----------------------------------*\
| =========                 |                                                 |
| \\      /  F ield         | OpenFOAM: The Open Source CFD Toolbox           |
|  \\    /   O peration     | Version:  v1912                                 |
|   \\  /    A nd           | Website:  www.openfoam.com                      |
|    \\/     M anipulation  |                                                 |
\*---------------------------------------------------------------------------*/
FoamFile
{
    version     2.0;
    format      ascii;
    class       volScalarField;
    location    "3.94";
    object      T;
}
// * * * * * * * * * * * * * * * * * * * * * * * * * * * * * * * * * * * * * //

dimensions      [0 0 0 1 0 0 0];


internalField   nonuniform List<scalar> 
1900
(
1.1716
1.01129
1.03169
1.04112
1.03941
1.03571
1.0318
1.02847
1.02618
1.02561
1.1716
1.0113
1.0317
1.04113
1.03943
1.03576
1.03191
1.0286
1.02542
1.02316
1.1716
1.0113
1.0317
1.04112
1.0394
1.03568
1.03184
1.02867
1.02553
1.0232
1.1716
1.0113
1.0317
1.04113
1.03943
1.03576
1.03191
1.0286
1.02542
1.02316
1.1716
1.01129
1.03169
1.04112
1.03941
1.03571
1.0318
1.02847
1.02618
1.02561
1.01953
1.00796
0.986935
0.957197
0.92046
1.0167
1.00413
0.982375
0.953654
0.920818
1.01672
1.00371
0.982058
0.95353
0.920229
1.0167
1.00413
0.982375
0.953654
0.920818
1.01953
1.00796
0.986935
0.957197
0.92046
0.89696
0.84358
0.80715
0.782875
0.770951
0.894806
0.844024
0.808443
0.783503
0.766798
0.894127
0.843674
0.808151
0.782055
0.763961
0.894806
0.844024
0.808443
0.783503
0.766798
0.89696
0.84358
0.80715
0.782875
0.770951
0.73709
0.635802
0.685651
0.723007
0.71369
0.699839
0.685413
0.671893
0.66589
0.660996
0.657724
0.654769
0.652286
0.650205
0.648513
0.64715
0.646072
0.645219
0.64456
0.643992
0.643514
0.643071
0.642597
0.642125
0.641636
0.641148
0.64065
0.640106
0.639433
0.638505
0.637122
0.635228
0.632697
0.630119
0.627211
0.624886
0.622624
0.620297
0.571856
0.47137
0.757646
0.664331
0.695978
0.726668
0.715663
0.700599
0.685745
0.671974
0.665963
0.661033
0.657755
0.65479
0.652302
0.650219
0.648525
0.647162
0.646084
0.64523
0.644571
0.644002
0.643524
0.643081
0.642606
0.642133
0.641644
0.641156
0.640657
0.640113
0.63944
0.638511
0.637128
0.635233
0.632701
0.630128
0.627215
0.624916
0.622665
0.620368
0.572314
0.471449
0.752242
0.68501
0.707561
0.730399
0.716858
0.700973
0.685908
0.672049
0.665993
0.661061
0.657775
0.654802
0.652311
0.650226
0.648531
0.647167
0.646089
0.645235
0.644575
0.644007
0.643529
0.643085
0.64261
0.642137
0.641648
0.64116
0.640662
0.640118
0.639446
0.63852
0.63714
0.635251
0.632731
0.630173
0.627284
0.625027
0.622836
0.620596
0.572853
0.473112
0.757646
0.664331
0.695978
0.726668
0.715663
0.700599
0.685745
0.671974
0.665963
0.661033
0.657755
0.65479
0.652302
0.650219
0.648525
0.647162
0.646084
0.64523
0.644571
0.644002
0.643524
0.643081
0.642606
0.642133
0.641644
0.641156
0.640657
0.640113
0.63944
0.638511
0.637128
0.635233
0.632701
0.630128
0.627215
0.624916
0.622665
0.620368
0.572314
0.471449
0.73709
0.635802
0.685651
0.723007
0.71369
0.699839
0.685413
0.671893
0.66589
0.660996
0.657724
0.654769
0.652286
0.650205
0.648513
0.64715
0.646072
0.645219
0.64456
0.643992
0.643514
0.643071
0.642597
0.642125
0.641636
0.641148
0.64065
0.640106
0.639433
0.638505
0.637122
0.635228
0.632697
0.630119
0.627211
0.624886
0.622624
0.620297
0.571856
0.47137
0.592422
0.585475
0.669465
0.71048
0.707092
0.696563
0.683527
0.671304
0.665363
0.660709
0.657492
0.654592
0.652143
0.650087
0.648409
0.647055
0.645983
0.645135
0.644481
0.643916
0.643441
0.643
0.642525
0.642053
0.641563
0.641074
0.640572
0.640024
0.639346
0.638414
0.637026
0.635135
0.632611
0.63001
0.627122
0.624722
0.622468
0.620094
0.571717
0.477635
0.48591
0.586883
0.66769
0.691709
0.694085
0.688157
0.678883
0.669661
0.664055
0.660076
0.656962
0.654194
0.65183
0.649829
0.648181
0.646845
0.645788
0.644952
0.644308
0.643752
0.643283
0.642846
0.642374
0.641902
0.641411
0.640919
0.640414
0.639858
0.63917
0.638229
0.636835
0.634942
0.632432
0.629777
0.626885
0.624343
0.622033
0.619635
0.57155
0.471302
0.465357
0.600932
0.662231
0.678447
0.681766
0.678867
0.673093
0.666948
0.662344
0.659037
0.656158
0.653594
0.651357
0.649431
0.647826
0.64652
0.645486
0.64467
0.644043
0.643498
0.64304
0.64261
0.64214
0.641669
0.641177
0.64068
0.640166
0.639599
0.638893
0.637939
0.636532
0.634637
0.632148
0.629414
0.626489
0.623777
0.621382
0.618984
0.572211
0.471644
0.470393
0.603069
0.653808
0.665918
0.671036
0.670367
0.667281
0.663638
0.660295
0.657661
0.655136
0.652827
0.650742
0.648907
0.647359
0.646093
0.645092
0.644304
0.6437
0.643173
0.642728
0.642307
0.64184
0.64137
0.640874
0.640371
0.639846
0.639262
0.638533
0.637564
0.636143
0.634236
0.631768
0.628936
0.625937
0.623045
0.620532
0.618163
0.572164
0.471242
0.468375
0.600282
0.646502
0.655822
0.661568
0.662841
0.661841
0.660109
0.658038
0.656012
0.653938
0.6519
0.649985
0.648256
0.646778
0.645565
0.644609
0.643858
0.643284
0.642778
0.64235
0.64194
0.641476
0.641004
0.640504
0.639992
0.63945
0.638845
0.638078
0.637088
0.635647
0.633722
0.631247
0.628284
0.625156
0.622071
0.619442
0.617174
0.572516
0.471659
0.467742
0.595768
0.639098
0.647364
0.653422
0.656327
0.656978
0.656711
0.655671
0.654261
0.652615
0.650849
0.649104
0.64749
0.646095
0.644948
0.644048
0.643343
0.642807
0.642326
0.641918
0.64152
0.641057
0.640584
0.640076
0.639552
0.638985
0.638353
0.637546
0.636532
0.635069
0.633101
0.630614
0.627501
0.624212
0.620929
0.618179
0.616045
0.572499
0.471131
0.46978
0.592365
0.63313
0.64053
0.646731
0.650658
0.652579
0.653417
0.65317
0.652383
0.65114
0.649645
0.648083
0.646604
0.645306
0.64424
0.64341
0.642763
0.642272
0.641822
0.641436
0.64105
0.640587
0.640109
0.639588
0.639043
0.638442
0.63777
0.6369
0.635855
0.63437
0.632334
0.629804
0.626517
0.623027
0.619563
0.616702
0.614844
0.574323
0.470866
0.465123
0.588244
0.627414
0.634123
0.640881
0.645646
0.648673
0.650445
0.650862
0.650553
0.649643
0.648375
0.646967
0.645604
0.644403
0.643427
0.642677
0.642096
0.641658
0.64124
0.640879
0.640505
0.64004
0.639555
0.63902
0.638452
0.63782
0.637119
0.636207
0.635127
0.633645
0.631528
0.628955
0.625445
0.621707
0.617961
0.614945
0.613211
0.574046
0.469672
0.46385
0.585521
0.622989
0.629033
0.636134
0.641355
0.645058
0.647482
0.648433
0.648524
0.647872
0.646822
0.645577
0.644359
0.643283
0.642419
0.641765
0.641265
0.640885
0.640505
0.64017
0.639808
0.639335
0.638836
0.638277
0.637677
0.63699
0.636239
0.635255
0.634168
0.632712
0.63052
0.627926
0.62429
0.620309
0.616368
0.613289
0.611781
0.575407
0.468256
0.461517
0.582026
0.618122
0.623557
0.630771
0.636615
0.641127
0.644247
0.645845
0.646362
0.645965
0.645135
0.644017
0.642904
0.641923
0.641151
0.640584
0.640159
0.639836
0.639492
0.639183
0.638833
0.638356
0.637853
0.637281
0.636665
0.635949
0.635171
0.63416
0.632965
0.631487
0.629074
0.626267
0.622265
0.617857
0.613505
0.610188
0.608767
0.573975
0.466222
0.459114
0.57871
0.614122
0.619373
0.626515
0.632497
0.637548
0.641135
0.643193
0.643984
0.643714
0.643014
0.641954
0.640944
0.640063
0.639389
0.638914
0.638566
0.638303
0.637996
0.637712
0.637372
0.636891
0.63639
0.63581
0.635192
0.634462
0.633684
0.632709
0.631502
0.630103
0.627565
0.624612
0.620316
0.615506
0.610754
0.607119
0.605841
0.572049
0.463704
0.456812
0.574736
0.609186
0.614526
0.621002
0.627232
0.63284
0.63684
0.639462
0.640492
0.640503
0.640031
0.639193
0.638394
0.637668
0.637126
0.636748
0.636475
0.636274
0.636001
0.635733
0.635405
0.634921
0.634413
0.633811
0.633139
0.632346
0.631475
0.630385
0.628947
0.627442
0.624615
0.621374
0.616622
0.611348
0.606094
0.602065
0.600843
0.568094
0.460901
0.45444
0.569962
0.603168
0.608373
0.614769
0.621421
0.627446
0.63204
0.635379
0.636592
0.636852
0.636596
0.635908
0.635282
0.634717
0.634298
0.634006
0.633783
0.633614
0.633357
0.633105
0.63281
0.632354
0.631877
0.63128
0.63059
0.629727
0.628779
0.627619
0.625948
0.624265
0.621054
0.617328
0.612048
0.606282
0.600557
0.596098
0.594855
0.563538
0.458116
0.452101
0.564987
0.596642
0.601362
0.607734
0.614762
0.620876
0.626012
0.629799
0.631368
0.63207
0.632067
0.631732
0.631471
0.631213
0.631061
0.630977
0.630907
0.630872
0.630688
0.630433
0.63011
0.629581
0.629005
0.628273
0.627418
0.626378
0.625212
0.623883
0.621796
0.619819
0.616189
0.611988
0.606277
0.600109
0.59408
0.589293
0.588111
0.558555
0.455369
0.450096
0.559292
0.589534
0.594082
0.600454
0.607683
0.613996
0.619566
0.623638
0.625673
0.627011
0.627324
0.627361
0.627511
0.627548
0.627654
0.627753
0.627793
0.62782
0.627662
0.627432
0.627139
0.626599
0.625974
0.625133
0.624127
0.62289
0.621459
0.619901
0.617474
0.615162
0.611129
0.606455
0.600326
0.593794
0.58742
0.582337
0.581151
0.553495
0.453364
0.447954
0.554817
0.583277
0.587276
0.593724
0.601125
0.607769
0.613884
0.617865
0.620266
0.622021
0.622733
0.623179
0.623692
0.624043
0.624425
0.624757
0.624996
0.625211
0.625162
0.624929
0.62456
0.623878
0.623105
0.622102
0.620938
0.619557
0.617957
0.616305
0.613553
0.610953
0.606503
0.601376
0.594919
0.588042
0.581492
0.576063
0.575185
0.549773
0.451843
0.449215
0.551309
0.577795
0.581188
0.58771
0.595183
0.602163
0.608745
0.613152
0.616332
0.618361
0.619231
0.619882
0.620609
0.621171
0.621742
0.622244
0.622606
0.622917
0.622892
0.622665
0.622313
0.621575
0.620708
0.619606
0.618349
0.616907
0.615217
0.613488
0.610563
0.607854
0.60322
0.59774
0.590963
0.583764
0.576866
0.571111
0.570577
0.547526
0.453896
0.455374
0.551926
0.578361
0.581124
0.587101
0.594242
0.601029
0.607452
0.611747
0.614703
0.616537
0.617252
0.617867
0.618396
0.618841
0.619335
0.619808
0.620183
0.620593
0.620733
0.620485
0.619966
0.619153
0.618303
0.617276
0.61613
0.614924
0.613378
0.611977
0.609176
0.606597
0.602047
0.596597
0.589914
0.582764
0.576124
0.570714
0.570229
0.548372
0.461372
0.431584
0.531428
0.560699
0.561609
0.564517
0.568919
0.573138
0.577281
0.579762
0.58105
0.580873
0.578841
0.577693
0.575258
0.574236
0.573081
0.572435
0.571994
0.571927
0.573432
0.573136
0.571214
0.570872
0.570821
0.571146
0.571091
0.5724
0.572021
0.573793
0.572743
0.572153
0.569092
0.564966
0.559949
0.554747
0.550466
0.547601
0.54835
0.523935
0.429525
0.374792
0.434657
0.470811
0.463133
0.460712
0.461133
0.461942
0.463612
0.465059
0.466642
0.467869
0.468941
0.469833
0.470402
0.47068
0.470882
0.470526
0.471112
0.471015
0.471765
0.471717
0.470803
0.470892
0.469991
0.470462
0.469724
0.46946
0.468264
0.467069
0.465372
0.463364
0.460995
0.458465
0.455792
0.453793
0.451933
0.453842
0.461278
0.430249
0.370997
0.374792
0.434657
0.470811
0.463133
0.460712
0.461133
0.461942
0.463612
0.465059
0.466642
0.467869
0.468941
0.469833
0.470402
0.47068
0.470882
0.470526
0.471112
0.471015
0.471765
0.471717
0.470803
0.470892
0.469991
0.470462
0.469724
0.46946
0.468264
0.467069
0.465372
0.463364
0.460995
0.458465
0.455792
0.453793
0.451933
0.453842
0.461278
0.430249
0.370997
0.431584
0.531428
0.560699
0.561609
0.564517
0.568919
0.573138
0.577281
0.579762
0.58105
0.580873
0.578841
0.577693
0.575258
0.574236
0.573081
0.572435
0.571994
0.571927
0.573432
0.573136
0.571214
0.570872
0.570821
0.571146
0.571091
0.5724
0.572021
0.573793
0.572743
0.572153
0.569092
0.564966
0.559949
0.554747
0.550466
0.547601
0.54835
0.523935
0.429525
0.455374
0.551926
0.578361
0.581124
0.587101
0.594242
0.601029
0.607452
0.611747
0.614703
0.616537
0.617252
0.617867
0.618396
0.618841
0.619335
0.619808
0.620183
0.620593
0.620733
0.620485
0.619966
0.619153
0.618303
0.617276
0.61613
0.614924
0.613378
0.611977
0.609176
0.606597
0.602047
0.596597
0.589914
0.582764
0.576124
0.570714
0.570229
0.548372
0.461372
0.449215
0.551309
0.577795
0.581188
0.58771
0.595183
0.602163
0.608745
0.613152
0.616332
0.618361
0.619231
0.619882
0.620609
0.621171
0.621742
0.622244
0.622606
0.622917
0.622892
0.622665
0.622313
0.621575
0.620708
0.619606
0.618349
0.616907
0.615217
0.613488
0.610563
0.607854
0.60322
0.59774
0.590963
0.583764
0.576866
0.571111
0.570577
0.547526
0.453896
0.447954
0.554817
0.583277
0.587276
0.593724
0.601125
0.607769
0.613884
0.617865
0.620266
0.622021
0.622733
0.623179
0.623692
0.624043
0.624425
0.624757
0.624996
0.625211
0.625162
0.624929
0.62456
0.623878
0.623105
0.622102
0.620938
0.619557
0.617957
0.616305
0.613553
0.610953
0.606503
0.601376
0.594919
0.588042
0.581492
0.576063
0.575185
0.549773
0.451843
0.450096
0.559292
0.589534
0.594082
0.600454
0.607683
0.613996
0.619566
0.623638
0.625673
0.627011
0.627324
0.627361
0.627511
0.627548
0.627654
0.627753
0.627793
0.62782
0.627662
0.627432
0.627139
0.626599
0.625974
0.625133
0.624127
0.62289
0.621459
0.619901
0.617474
0.615162
0.611129
0.606455
0.600326
0.593794
0.58742
0.582337
0.581151
0.553495
0.453364
0.452101
0.564987
0.596642
0.601362
0.607734
0.614762
0.620876
0.626012
0.629799
0.631368
0.63207
0.632067
0.631732
0.631471
0.631213
0.631061
0.630977
0.630907
0.630872
0.630688
0.630433
0.63011
0.629581
0.629005
0.628273
0.627418
0.626378
0.625212
0.623883
0.621796
0.619819
0.616189
0.611988
0.606277
0.600109
0.59408
0.589293
0.588111
0.558555
0.455369
0.45444
0.569962
0.603168
0.608373
0.614769
0.621421
0.627446
0.63204
0.635379
0.636592
0.636852
0.636596
0.635908
0.635282
0.634717
0.634298
0.634006
0.633783
0.633614
0.633357
0.633105
0.63281
0.632354
0.631877
0.63128
0.63059
0.629727
0.628779
0.627619
0.625948
0.624265
0.621054
0.617328
0.612048
0.606282
0.600557
0.596098
0.594855
0.563538
0.458116
0.456812
0.574736
0.609186
0.614526
0.621002
0.627232
0.63284
0.63684
0.639462
0.640492
0.640503
0.640031
0.639193
0.638394
0.637668
0.637126
0.636748
0.636475
0.636274
0.636001
0.635733
0.635405
0.634921
0.634413
0.633811
0.633139
0.632346
0.631475
0.630385
0.628947
0.627442
0.624615
0.621374
0.616622
0.611348
0.606094
0.602065
0.600843
0.568094
0.460901
0.459114
0.57871
0.614122
0.619373
0.626515
0.632497
0.637548
0.641135
0.643193
0.643984
0.643714
0.643014
0.641954
0.640944
0.640063
0.639389
0.638914
0.638566
0.638303
0.637996
0.637712
0.637372
0.636891
0.63639
0.63581
0.635192
0.634462
0.633684
0.632709
0.631502
0.630103
0.627565
0.624612
0.620316
0.615506
0.610754
0.607119
0.605841
0.572049
0.463704
0.461517
0.582026
0.618122
0.623557
0.630771
0.636615
0.641127
0.644247
0.645845
0.646362
0.645965
0.645135
0.644017
0.642904
0.641923
0.641151
0.640584
0.640159
0.639836
0.639492
0.639183
0.638833
0.638356
0.637853
0.637281
0.636665
0.635949
0.635171
0.63416
0.632965
0.631487
0.629074
0.626267
0.622265
0.617857
0.613505
0.610188
0.608767
0.573975
0.466222
0.46385
0.585521
0.622989
0.629033
0.636134
0.641355
0.645058
0.647482
0.648433
0.648524
0.647872
0.646822
0.645577
0.644359
0.643283
0.642419
0.641765
0.641265
0.640885
0.640505
0.64017
0.639808
0.639335
0.638836
0.638277
0.637677
0.63699
0.636239
0.635255
0.634168
0.632712
0.63052
0.627926
0.62429
0.620309
0.616368
0.613289
0.611781
0.575407
0.468256
0.465123
0.588244
0.627414
0.634123
0.640881
0.645646
0.648673
0.650445
0.650862
0.650553
0.649643
0.648375
0.646967
0.645604
0.644403
0.643427
0.642677
0.642096
0.641658
0.64124
0.640879
0.640505
0.64004
0.639555
0.63902
0.638452
0.63782
0.637119
0.636207
0.635127
0.633645
0.631528
0.628955
0.625445
0.621707
0.617961
0.614945
0.613211
0.574046
0.469672
0.46978
0.592365
0.63313
0.64053
0.646731
0.650658
0.652579
0.653417
0.65317
0.652383
0.65114
0.649645
0.648083
0.646604
0.645306
0.64424
0.64341
0.642763
0.642272
0.641822
0.641436
0.64105
0.640587
0.640109
0.639588
0.639043
0.638442
0.63777
0.6369
0.635855
0.63437
0.632334
0.629804
0.626517
0.623027
0.619563
0.616702
0.614844
0.574323
0.470866
0.467742
0.595768
0.639098
0.647364
0.653422
0.656327
0.656978
0.656711
0.655671
0.654261
0.652615
0.650849
0.649104
0.64749
0.646095
0.644948
0.644048
0.643343
0.642807
0.642326
0.641918
0.64152
0.641057
0.640584
0.640076
0.639552
0.638985
0.638353
0.637546
0.636532
0.635069
0.633101
0.630614
0.627501
0.624212
0.620929
0.618179
0.616045
0.572499
0.471131
0.468375
0.600282
0.646502
0.655822
0.661568
0.662841
0.661841
0.660109
0.658038
0.656012
0.653938
0.6519
0.649985
0.648256
0.646778
0.645565
0.644609
0.643858
0.643284
0.642778
0.64235
0.64194
0.641476
0.641004
0.640504
0.639992
0.63945
0.638845
0.638078
0.637088
0.635647
0.633722
0.631247
0.628284
0.625156
0.622071
0.619442
0.617174
0.572516
0.471659
0.470393
0.603069
0.653808
0.665918
0.671036
0.670367
0.667281
0.663638
0.660295
0.657661
0.655136
0.652827
0.650742
0.648907
0.647359
0.646093
0.645092
0.644304
0.6437
0.643173
0.642728
0.642307
0.64184
0.64137
0.640874
0.640371
0.639846
0.639262
0.638533
0.637564
0.636143
0.634236
0.631768
0.628936
0.625937
0.623045
0.620532
0.618163
0.572164
0.471242
0.465357
0.600932
0.662231
0.678447
0.681766
0.678867
0.673093
0.666948
0.662344
0.659037
0.656158
0.653594
0.651357
0.649431
0.647826
0.64652
0.645486
0.64467
0.644043
0.643498
0.64304
0.64261
0.64214
0.641669
0.641177
0.64068
0.640166
0.639599
0.638893
0.637939
0.636532
0.634637
0.632148
0.629414
0.626489
0.623777
0.621382
0.618984
0.572211
0.471644
0.48591
0.586883
0.66769
0.691709
0.694085
0.688157
0.678883
0.669661
0.664055
0.660076
0.656962
0.654194
0.65183
0.649829
0.648181
0.646845
0.645788
0.644952
0.644308
0.643752
0.643283
0.642846
0.642374
0.641902
0.641411
0.640919
0.640414
0.639858
0.63917
0.638229
0.636835
0.634942
0.632432
0.629777
0.626885
0.624343
0.622033
0.619635
0.57155
0.471302
0.592422
0.585475
0.669465
0.71048
0.707092
0.696563
0.683527
0.671304
0.665363
0.660709
0.657492
0.654592
0.652143
0.650087
0.648409
0.647055
0.645983
0.645135
0.644481
0.643916
0.643441
0.643
0.642525
0.642053
0.641563
0.641074
0.640572
0.640024
0.639346
0.638414
0.637026
0.635135
0.632611
0.63001
0.627122
0.624722
0.622468
0.620094
0.571717
0.477635
)
;

boundaryField
{
    inlet
    {
        type            fixedValue;
        value           uniform 1;
    }
    outlet
    {
        type            zeroGradient;
    }
    obstacle
    {
        type            zeroGradient;
    }
    empty
    {
        type            empty;
    }
}


// ************************************************************************* //
