/*--------------------------------*- C++ -*----------------------------------*\
| =========                 |                                                 |
| \\      /  F ield         | OpenFOAM: The Open Source CFD Toolbox           |
|  \\    /   O peration     | Version:  v1912                                 |
|   \\  /    A nd           | Website:  www.openfoam.com                      |
|    \\/     M anipulation  |                                                 |
\*---------------------------------------------------------------------------*/
FoamFile
{
    version     2.0;
    format      ascii;
    class       volVectorField;
    location    "6.9";
    object      U;
}
// * * * * * * * * * * * * * * * * * * * * * * * * * * * * * * * * * * * * * //

dimensions      [0 1 -1 0 0 0 0];


internalField   nonuniform List<vector> 
1900
(
(-0.725986 -4.53645e-07 0)
(-0.0249226 3.26439e-07 0)
(0.0838628 2.28106e-07 0)
(0.0825258 -1.36211e-06 0)
(0.0855423 -5.37842e-06 0)
(0.088926 -4.02337e-05 0)
(0.0929628 -9.90945e-05 0)
(0.0970826 0.000206214 0)
(0.0992019 0.00309823 0)
(0.0914255 0.011963 0)
(-0.725985 5.10651e-07 0)
(-0.0249245 8.41368e-07 0)
(0.0838613 -2.85296e-06 0)
(0.0825224 -6.25212e-06 0)
(0.0855328 -1.61386e-05 0)
(0.0888804 -4.54498e-05 0)
(0.0928845 -9.08249e-05 0)
(0.0966296 0.000225768 0)
(0.100739 0.00213742 0)
(0.102931 0.0113037 0)
(-0.725985 -1.08684e-13 0)
(-0.0249259 -6.99918e-14 0)
(0.0838591 -5.57994e-14 0)
(0.0825182 -5.08551e-14 0)
(0.0855229 -4.48773e-14 0)
(0.0888549 4.98169e-14 0)
(0.0928601 6.11772e-14 0)
(0.0967071 5.61422e-14 0)
(0.101255 4.55286e-14 0)
(0.109782 6.10162e-14 0)
(-0.725985 -5.10651e-07 0)
(-0.0249245 -8.41368e-07 0)
(0.0838613 2.85296e-06 0)
(0.0825224 6.25212e-06 0)
(0.0855328 1.61386e-05 0)
(0.0888804 4.54498e-05 0)
(0.0928845 9.08249e-05 0)
(0.0966296 -0.000225768 0)
(0.100739 -0.00213742 0)
(0.102931 -0.0113037 0)
(-0.725986 4.53645e-07 0)
(-0.0249226 -3.26439e-07 0)
(0.0838628 -2.28106e-07 0)
(0.0825258 1.36211e-06 0)
(0.0855423 5.37842e-06 0)
(0.088926 4.02337e-05 0)
(0.0929628 9.90945e-05 0)
(0.0970826 -0.000206214 0)
(0.0992019 -0.00309823 0)
(0.0914255 -0.011963 0)
(0.0930832 0.0384102 0)
(0.129121 0.051423 0)
(0.176255 0.0753923 0)
(0.252361 0.117037 0)
(0.39725 0.173605 0)
(0.116665 0.0275635 0)
(0.142785 0.0284917 0)
(0.173039 0.0378892 0)
(0.235377 0.0597401 0)
(0.376863 0.102324 0)
(0.127702 1.05794e-13 0)
(0.152052 6.94146e-14 0)
(0.183704 1.02676e-13 0)
(0.246433 5.50693e-14 0)
(0.387094 4.00644e-14 0)
(0.116665 -0.0275635 0)
(0.142785 -0.0284917 0)
(0.173039 -0.0378892 0)
(0.235377 -0.0597401 0)
(0.376863 -0.102324 0)
(0.0930832 -0.0384102 0)
(0.129121 -0.051423 0)
(0.176255 -0.0753923 0)
(0.252361 -0.117037 0)
(0.39725 -0.173605 0)
(0.847616 0.029801 0)
(1.11071 -0.0516931 0)
(1.25879 -0.0841556 0)
(1.34401 -0.0937078 0)
(1.43335 -0.108543 0)
(0.820936 -0.0176205 0)
(1.12297 -0.0483126 0)
(1.29067 -0.0594341 0)
(1.37711 -0.0591993 0)
(1.45745 -0.0773501 0)
(0.817112 1.38864e-15 0)
(1.12691 -4.63625e-15 0)
(1.28604 -6.35835e-14 0)
(1.36842 2.66852e-13 0)
(1.44472 -6.1705e-13 0)
(0.820936 0.0176205 0)
(1.12297 0.0483126 0)
(1.29067 0.0594341 0)
(1.37711 0.0591993 0)
(1.45745 0.0773501 0)
(0.847616 -0.029801 0)
(1.11071 0.0516931 0)
(1.25879 0.0841556 0)
(1.34401 0.0937078 0)
(1.43335 0.108543 0)
(1.48683 -0.034293 0)
(1.50461 -0.00188605 0)
(1.52546 -0.00636552 0)
(1.57489 -0.0305445 0)
(1.55716 0.0198237 0)
(1.44498 0.047354 0)
(1.08794 -0.0126665 0)
(0.980547 -0.031365 0)
(0.904834 -0.0631881 0)
(0.774428 -0.0855795 0)
(0.631848 -0.0846079 0)
(0.514618 -0.0654495 0)
(0.426401 -0.0467189 0)
(0.350036 -0.0344788 0)
(0.259853 -0.0255906 0)
(0.155354 -0.0189641 0)
(0.0892692 -0.0155778 0)
(0.0710716 -0.0145438 0)
(0.0692001 -0.0141259 0)
(0.07075 -0.0137328 0)
(0.0737564 -0.0132618 0)
(0.0799979 -0.012966 0)
(0.0912159 -0.0128811 0)
(0.106655 -0.0128738 0)
(0.124131 -0.0128724 0)
(0.142119 -0.0128439 0)
(0.159776 -0.0128861 0)
(0.177199 -0.0127282 0)
(0.194146 -0.0128668 0)
(0.210865 -0.0127153 0)
(0.227093 -0.0129528 0)
(0.241971 -0.0125979 0)
(0.255946 -0.013201 0)
(0.268397 -0.0127868 0)
(0.274853 -0.0132373 0)
(0.237969 -0.013241 0)
(0.111573 -0.0129306 0)
(0.00193666 -0.0106293 0)
(-0.0152058 -0.0163776 0)
(-0.089431 -0.0144609 0)
(1.50869 -0.0373151 0)
(1.52773 -0.000249947 0)
(1.5557 -0.011014 0)
(1.60138 -0.023728 0)
(1.57173 0.0064634 0)
(1.4624 0.0284878 0)
(1.08854 -0.00713292 0)
(0.976316 -0.0162989 0)
(0.893569 -0.0301793 0)
(0.769458 -0.0396963 0)
(0.640304 -0.0421238 0)
(0.529298 -0.0331608 0)
(0.438745 -0.0238015 0)
(0.357373 -0.0172621 0)
(0.262449 -0.0128048 0)
(0.155953 -0.00952715 0)
(0.0893309 -0.00778002 0)
(0.0710139 -0.00727277 0)
(0.0691968 -0.00706341 0)
(0.0707935 -0.00685431 0)
(0.0737853 -0.00662687 0)
(0.0800277 -0.00647991 0)
(0.0912737 -0.00644085 0)
(0.106747 -0.00643875 0)
(0.12426 -0.00643832 0)
(0.142285 -0.00642396 0)
(0.159976 -0.00644497 0)
(0.17743 -0.00636575 0)
(0.194405 -0.00643503 0)
(0.211151 -0.00635877 0)
(0.227403 -0.00647777 0)
(0.242298 -0.00629743 0)
(0.256295 -0.00660141 0)
(0.26875 -0.00638928 0)
(0.275284 -0.00661821 0)
(0.238492 -0.00659539 0)
(0.112199 -0.00642414 0)
(0.00253297 -0.00526386 0)
(-0.0151818 -0.00818308 0)
(-0.0896675 -0.00717369 0)
(1.50748 4.33789e-13 0)
(1.53234 6.87184e-13 0)
(1.56444 2.17298e-12 0)
(1.61445 3.47698e-12 0)
(1.57214 -7.89461e-13 0)
(1.45923 3.17856e-12 0)
(1.08534 -8.33451e-12 0)
(0.972753 -1.09076e-11 0)
(0.895377 -6.20159e-12 0)
(0.778835 3.43988e-12 0)
(0.642265 4.99106e-12 0)
(0.522929 2.56419e-12 0)
(0.432678 2.96098e-12 0)
(0.355284 6.93329e-12 0)
(0.263586 1.10677e-11 0)
(0.157086 1.03476e-11 0)
(0.0895946 4.07328e-12 0)
(0.0710687 -2.39415e-12 0)
(0.0692524 -8.08889e-12 0)
(0.0708471 -1.00741e-11 0)
(0.0738303 -7.93999e-12 0)
(0.0800409 1.96079e-13 0)
(0.0912805 6.26582e-12 0)
(0.106759 4.75042e-12 0)
(0.124279 -5.6228e-12 0)
(0.142309 -1.06205e-11 0)
(0.160004 -1.66692e-11 0)
(0.177462 -2.18062e-11 0)
(0.194443 -9.8796e-12 0)
(0.211197 -9.9061e-12 0)
(0.22746 -9.73192e-12 0)
(0.242369 4.60068e-12 0)
(0.256388 9.32625e-12 0)
(0.268873 2.37097e-12 0)
(0.275482 4.06523e-13 0)
(0.238813 7.28425e-12 0)
(0.112709 6.45531e-12 0)
(0.00330902 5.81407e-12 0)
(-0.0142112 7.22059e-13 0)
(-0.0883172 -1.43173e-12 0)
(1.50869 0.0373151 0)
(1.52773 0.000249947 0)
(1.5557 0.011014 0)
(1.60138 0.023728 0)
(1.57173 -0.0064634 0)
(1.4624 -0.0284878 0)
(1.08854 0.00713292 0)
(0.976316 0.0162989 0)
(0.893569 0.0301793 0)
(0.769458 0.0396963 0)
(0.640304 0.0421238 0)
(0.529298 0.0331608 0)
(0.438745 0.0238015 0)
(0.357373 0.0172621 0)
(0.262449 0.0128048 0)
(0.155953 0.00952715 0)
(0.0893309 0.00778002 0)
(0.0710139 0.00727277 0)
(0.0691968 0.00706341 0)
(0.0707935 0.00685431 0)
(0.0737853 0.00662687 0)
(0.0800277 0.00647991 0)
(0.0912737 0.00644085 0)
(0.106747 0.00643875 0)
(0.12426 0.00643832 0)
(0.142285 0.00642396 0)
(0.159976 0.00644497 0)
(0.17743 0.00636575 0)
(0.194405 0.00643503 0)
(0.211151 0.00635877 0)
(0.227403 0.00647777 0)
(0.242298 0.00629743 0)
(0.256295 0.00660141 0)
(0.26875 0.00638928 0)
(0.275284 0.00661821 0)
(0.238492 0.00659539 0)
(0.112199 0.00642414 0)
(0.00253297 0.00526386 0)
(-0.0151818 0.00818308 0)
(-0.0896675 0.00717369 0)
(1.48683 0.034293 0)
(1.50461 0.00188605 0)
(1.52546 0.00636552 0)
(1.57489 0.0305445 0)
(1.55716 -0.0198237 0)
(1.44498 -0.047354 0)
(1.08794 0.0126665 0)
(0.980547 0.031365 0)
(0.904834 0.0631881 0)
(0.774428 0.0855795 0)
(0.631848 0.0846079 0)
(0.514618 0.0654495 0)
(0.426401 0.0467189 0)
(0.350036 0.0344788 0)
(0.259853 0.0255906 0)
(0.155354 0.0189641 0)
(0.0892692 0.0155778 0)
(0.0710716 0.0145438 0)
(0.0692001 0.0141259 0)
(0.07075 0.0137328 0)
(0.0737564 0.0132618 0)
(0.0799979 0.012966 0)
(0.0912159 0.0128811 0)
(0.106655 0.0128738 0)
(0.124131 0.0128724 0)
(0.142119 0.0128439 0)
(0.159776 0.0128861 0)
(0.177199 0.0127282 0)
(0.194146 0.0128668 0)
(0.210865 0.0127153 0)
(0.227093 0.0129528 0)
(0.241971 0.0125979 0)
(0.255946 0.013201 0)
(0.268397 0.0127868 0)
(0.274853 0.0132373 0)
(0.237969 0.013241 0)
(0.111573 0.0129306 0)
(0.00193666 0.0106293 0)
(-0.0152058 0.0163776 0)
(-0.089431 0.0144609 0)
(1.46511 0.0522025 0)
(1.4706 0.0499093 0)
(1.48294 0.0884555 0)
(1.52074 0.100052 0)
(1.47289 -0.00517924 0)
(1.3511 -0.0347515 0)
(1.04422 0.0192964 0)
(0.937996 0.0761451 0)
(0.834488 0.142422 0)
(0.702333 0.183884 0)
(0.587314 0.171558 0)
(0.497225 0.131568 0)
(0.42088 0.0955247 0)
(0.346718 0.0710951 0)
(0.25482 0.0534107 0)
(0.150435 0.0397045 0)
(0.0871943 0.0324082 0)
(0.0703955 0.0301589 0)
(0.0687073 0.0292695 0)
(0.0702396 0.0284543 0)
(0.0734732 0.0275713 0)
(0.0799336 0.0270039 0)
(0.0912381 0.0267774 0)
(0.106692 0.026736 0)
(0.124165 0.0267282 0)
(0.14215 0.0266701 0)
(0.159809 0.02676 0)
(0.177247 0.0264374 0)
(0.194212 0.026724 0)
(0.21095 0.0264184 0)
(0.227203 0.0269005 0)
(0.242143 0.0261983 0)
(0.256164 0.0273838 0)
(0.268727 0.0265827 0)
(0.275062 0.0274991 0)
(0.238136 0.0275936 0)
(0.111962 0.0270406 0)
(0.00248339 0.0221544 0)
(-0.013165 0.0328492 0)
(-0.0862515 0.0294811 0)
(1.401 0.19553 0)
(1.40846 0.18032 0)
(1.41547 0.202903 0)
(1.38185 0.190723 0)
(1.32588 0.0898142 0)
(1.14426 0.0347644 0)
(0.948852 0.0826173 0)
(0.813773 0.176765 0)
(0.691314 0.281323 0)
(0.576522 0.309684 0)
(0.500519 0.268858 0)
(0.44014 0.208316 0)
(0.383663 0.15791 0)
(0.320377 0.122111 0)
(0.233651 0.0929081 0)
(0.136382 0.0693616 0)
(0.0820757 0.0575689 0)
(0.0687178 0.0539074 0)
(0.0675212 0.0522717 0)
(0.0689661 0.0508394 0)
(0.0725633 0.0494615 0)
(0.0795887 0.0485286 0)
(0.0912222 0.0480995 0)
(0.10675 0.0479875 0)
(0.124205 0.0479576 0)
(0.142171 0.0478501 0)
(0.159833 0.0480136 0)
(0.177306 0.0474433 0)
(0.194316 0.0479518 0)
(0.211103 0.0474201 0)
(0.227421 0.0482547 0)
(0.242518 0.0470566 0)
(0.256644 0.049032 0)
(0.269448 0.047708 0)
(0.275555 0.0492766 0)
(0.238485 0.0495239 0)
(0.112574 0.0486275 0)
(0.00272431 0.0405014 0)
(-0.0115647 0.056924 0)
(-0.0847565 0.0524282 0)
(1.31076 0.30827 0)
(1.31677 0.287508 0)
(1.30831 0.294084 0)
(1.23393 0.261033 0)
(1.14382 0.189553 0)
(0.974744 0.163725 0)
(0.790065 0.221707 0)
(0.643647 0.339283 0)
(0.521945 0.406268 0)
(0.445681 0.39065 0)
(0.40929 0.33062 0)
(0.378283 0.260769 0)
(0.34014 0.205983 0)
(0.285362 0.164274 0)
(0.20274 0.126195 0)
(0.116695 0.0958098 0)
(0.0753973 0.081881 0)
(0.0663763 0.0773173 0)
(0.0656789 0.0749897 0)
(0.0671383 0.0729181 0)
(0.0712357 0.0711072 0)
(0.0789635 0.0698752 0)
(0.0910713 0.0692496 0)
(0.106751 0.0690486 0)
(0.124198 0.0689821 0)
(0.142132 0.0688228 0)
(0.15978 0.0690651 0)
(0.177294 0.0682691 0)
(0.194347 0.0689942 0)
(0.211184 0.0682714 0)
(0.227563 0.0694179 0)
(0.242838 0.0678353 0)
(0.257092 0.0703987 0)
(0.270164 0.0687666 0)
(0.275964 0.0708015 0)
(0.238573 0.0712597 0)
(0.112901 0.0702263 0)
(0.00285671 0.0599968 0)
(-0.0100794 0.0800267 0)
(-0.0833994 0.0750946 0)
(1.14015 0.357214 0)
(1.12853 0.346967 0)
(1.08534 0.340312 0)
(1.02583 0.309686 0)
(0.912539 0.277717 0)
(0.739394 0.294574 0)
(0.557971 0.392765 0)
(0.428315 0.477739 0)
(0.352424 0.483598 0)
(0.334409 0.443401 0)
(0.33072 0.367745 0)
(0.320078 0.296227 0)
(0.293364 0.242951 0)
(0.243243 0.196682 0)
(0.165111 0.151741 0)
(0.0955896 0.119075 0)
(0.0686425 0.105428 0)
(0.0635855 0.100365 0)
(0.0632274 0.0973137 0)
(0.0648966 0.0945959 0)
(0.0696369 0.0924237 0)
(0.0781474 0.0909329 0)
(0.0908015 0.0901519 0)
(0.106677 0.0898688 0)
(0.124128 0.0897633 0)
(0.142021 0.0895519 0)
(0.159642 0.0898792 0)
(0.177205 0.0888868 0)
(0.194292 0.0898221 0)
(0.211176 0.0889516 0)
(0.227602 0.090376 0)
(0.243061 0.0885221 0)
(0.257447 0.0914988 0)
(0.270791 0.0897431 0)
(0.276263 0.0920766 0)
(0.238364 0.0928274 0)
(0.112957 0.0919461 0)
(0.00295451 0.0803503 0)
(-0.00872163 0.10254 0)
(-0.0819377 0.0977769 0)
(0.896745 0.435201 0)
(0.857798 0.412938 0)
(0.807969 0.386263 0)
(0.723635 0.369936 0)
(0.580965 0.391885 0)
(0.41251 0.473528 0)
(0.292304 0.547096 0)
(0.238402 0.555221 0)
(0.229717 0.523258 0)
(0.250157 0.454429 0)
(0.26573 0.38029 0)
(0.265834 0.319532 0)
(0.244486 0.268451 0)
(0.195183 0.217734 0)
(0.124593 0.169606 0)
(0.0757497 0.139844 0)
(0.0615991 0.128102 0)
(0.0596 0.122802 0)
(0.0597289 0.118976 0)
(0.06203 0.115705 0)
(0.0676989 0.113299 0)
(0.0771318 0.111611 0)
(0.0904311 0.110704 0)
(0.106581 0.11035 0)
(0.124094 0.11021 0)
(0.141998 0.109951 0)
(0.15963 0.110373 0)
(0.17731 0.109216 0)
(0.194467 0.110353 0)
(0.211443 0.109379 0)
(0.227959 0.111048 0)
(0.243649 0.109027 0)
(0.258234 0.112282 0)
(0.271903 0.110475 0)
(0.277159 0.112978 0)
(0.238878 0.11404 0)
(0.114162 0.113415 0)
(0.00470959 0.100804 0)
(-0.00562793 0.12409 0)
(-0.0781457 0.119869 0)
(0.582717 0.464475 0)
(0.506541 0.44596 0)
(0.424775 0.436853 0)
(0.315809 0.489164 0)
(0.202398 0.568071 0)
(0.126218 0.612398 0)
(0.103697 0.608591 0)
(0.118306 0.573254 0)
(0.152385 0.513847 0)
(0.187364 0.448974 0)
(0.210121 0.389295 0)
(0.214068 0.335811 0)
(0.193104 0.284303 0)
(0.143715 0.230604 0)
(0.0878931 0.184923 0)
(0.061049 0.16081 0)
(0.056018 0.1506 0)
(0.0556704 0.144768 0)
(0.0561922 0.140093 0)
(0.0592233 0.136363 0)
(0.0658024 0.133746 0)
(0.076113 0.131881 0)
(0.089971 0.130881 0)
(0.106315 0.13047 0)
(0.123817 0.130303 0)
(0.141659 0.130006 0)
(0.159213 0.130536 0)
(0.176955 0.129249 0)
(0.194076 0.130586 0)
(0.211061 0.129552 0)
(0.227568 0.131442 0)
(0.243385 0.129347 0)
(0.258057 0.132782 0)
(0.271887 0.130983 0)
(0.276772 0.133565 0)
(0.237773 0.134964 0)
(0.113219 0.134802 0)
(0.00395154 0.121452 0)
(-0.00562631 0.145636 0)
(-0.0782815 0.142175 0)
(0.187767 0.51223 0)
(0.117731 0.530766 0)
(0.0516323 0.568262 0)
(-0.00540656 0.624652 0)
(-0.0319774 0.647503 0)
(-0.0219782 0.631408 0)
(0.011818 0.595932 0)
(0.0564457 0.548947 0)
(0.098303 0.495139 0)
(0.136268 0.442443 0)
(0.161053 0.391695 0)
(0.163527 0.341751 0)
(0.139433 0.288841 0)
(0.0936488 0.235776 0)
(0.0579272 0.198435 0)
(0.0479772 0.18078 0)
(0.0483685 0.171913 0)
(0.049429 0.165529 0)
(0.0510627 0.160245 0)
(0.055527 0.156303 0)
(0.0634227 0.153651 0)
(0.0748741 0.151709 0)
(0.0895305 0.150637 0)
(0.106301 0.150179 0)
(0.124022 0.149995 0)
(0.142025 0.149669 0)
(0.159753 0.150309 0)
(0.177678 0.148909 0)
(0.19498 0.150429 0)
(0.212153 0.149369 0)
(0.22881 0.151447 0)
(0.24488 0.149333 0)
(0.259754 0.152895 0)
(0.273833 0.151116 0)
(0.278641 0.153704 0)
(0.239571 0.155497 0)
(0.115995 0.155917 0)
(0.00712629 0.142136 0)
(-0.00159492 0.1665 0)
(-0.0733742 0.163768 0)
(-0.106205 0.559718 0)
(-0.129038 0.583422 0)
(-0.134602 0.618662 0)
(-0.135728 0.638214 0)
(-0.115724 0.628317 0)
(-0.0822723 0.601319 0)
(-0.0379798 0.565696 0)
(0.0106762 0.524255 0)
(0.0537363 0.479576 0)
(0.0917442 0.435802 0)
(0.114281 0.390252 0)
(0.111458 0.341656 0)
(0.0853233 0.288783 0)
(0.0523434 0.242643 0)
(0.0385288 0.215466 0)
(0.0392754 0.201736 0)
(0.0424371 0.192946 0)
(0.0443659 0.185797 0)
(0.046949 0.179993 0)
(0.0525653 0.175887 0)
(0.0615395 0.173118 0)
(0.0737808 0.171122 0)
(0.0888449 0.170001 0)
(0.1057 0.169506 0)
(0.12335 0.169319 0)
(0.14125 0.168966 0)
(0.158941 0.169705 0)
(0.176775 0.168228 0)
(0.194108 0.169909 0)
(0.211315 0.168878 0)
(0.227983 0.171115 0)
(0.24418 0.169036 0)
(0.259133 0.17268 0)
(0.273318 0.170938 0)
(0.277922 0.173443 0)
(0.238531 0.1755 0)
(0.115543 0.176421 0)
(0.00709887 0.16247 0)
(-0.000872219 0.187298 0)
(-0.0723769 0.185443 0)
(-0.17382 0.543724 0)
(-0.182575 0.561713 0)
(-0.172674 0.59393 0)
(-0.171421 0.606363 0)
(-0.155304 0.592258 0)
(-0.120996 0.566728 0)
(-0.0732112 0.536787 0)
(-0.0250207 0.50086 0)
(0.0176738 0.464255 0)
(0.0527799 0.425151 0)
(0.0689578 0.381522 0)
(0.0602049 0.333165 0)
(0.0376249 0.28477 0)
(0.0219957 0.250403 0)
(0.022721 0.23187 0)
(0.0286909 0.220751 0)
(0.0336723 0.212058 0)
(0.0369527 0.204631 0)
(0.0413229 0.19875 0)
(0.0486767 0.194946 0)
(0.0591338 0.19224 0)
(0.0726167 0.190213 0)
(0.0885311 0.189039 0)
(0.105899 0.188499 0)
(0.123872 0.188299 0)
(0.142012 0.18789 0)
(0.159951 0.188689 0)
(0.177938 0.187152 0)
(0.195499 0.188917 0)
(0.212866 0.187913 0)
(0.229627 0.190259 0)
(0.245959 0.188215 0)
(0.260948 0.191887 0)
(0.275109 0.190168 0)
(0.279605 0.19258 0)
(0.240344 0.194983 0)
(0.11826 0.196518 0)
(0.0098912 0.182625 0)
(0.0023631 0.207716 0)
(-0.0684568 0.206669 0)
(-0.171381 0.526762 0)
(-0.17707 0.537434 0)
(-0.167799 0.561886 0)
(-0.186416 0.569899 0)
(-0.184693 0.554487 0)
(-0.149315 0.533894 0)
(-0.1004 0.511908 0)
(-0.0553525 0.480476 0)
(-0.0146762 0.449894 0)
(0.013594 0.413113 0)
(0.0220348 0.370618 0)
(0.0122543 0.32552 0)
(0.00231525 0.28797 0)
(0.0038921 0.264803 0)
(0.0125151 0.250623 0)
(0.0212032 0.240131 0)
(0.0271731 0.231095 0)
(0.0312807 0.223225 0)
(0.0370308 0.217179 0)
(0.0456749 0.21332 0)
(0.05712 0.210712 0)
(0.0712058 0.208672 0)
(0.0873647 0.207475 0)
(0.104744 0.206915 0)
(0.122645 0.206732 0)
(0.140717 0.206286 0)
(0.15867 0.207175 0)
(0.176641 0.205648 0)
(0.19434 0.207484 0)
(0.211821 0.206574 0)
(0.228668 0.209019 0)
(0.245151 0.207047 0)
(0.260209 0.210722 0)
(0.274354 0.209048 0)
(0.278862 0.211318 0)
(0.239813 0.213987 0)
(0.118923 0.216075 0)
(0.0112249 0.202624 0)
(0.00439602 0.227951 0)
(-0.0653387 0.227713 0)
(-0.150674 0.506869 0)
(-0.159661 0.510795 0)
(-0.156743 0.524329 0)
(-0.194811 0.53455 0)
(-0.2071 0.521624 0)
(-0.170149 0.506521 0)
(-0.121662 0.490512 0)
(-0.0813203 0.461916 0)
(-0.0446339 0.433535 0)
(-0.0252343 0.397113 0)
(-0.0215126 0.356497 0)
(-0.025577 0.319027 0)
(-0.0224825 0.293176 0)
(-0.012438 0.276929 0)
(-0.000131218 0.265669 0)
(0.0103466 0.256034 0)
(0.0172656 0.247051 0)
(0.0234411 0.239772 0)
(0.0312017 0.234462 0)
(0.0417722 0.23077 0)
(0.0550018 0.228281 0)
(0.0705094 0.226233 0)
(0.087669 0.225004 0)
(0.105712 0.22442 0)
(0.124069 0.22425 0)
(0.142475 0.223739 0)
(0.16073 0.224682 0)
(0.178884 0.22316 0)
(0.196843 0.224955 0)
(0.21446 0.224124 0)
(0.231386 0.226608 0)
(0.247938 0.224682 0)
(0.262953 0.228312 0)
(0.276889 0.226699 0)
(0.281494 0.228774 0)
(0.242929 0.231693 0)
(0.123745 0.234374 0)
(0.0162695 0.221645 0)
(0.0092954 0.24736 0)
(-0.059183 0.247608 0)
(-0.118679 0.484666 0)
(-0.139137 0.483854 0)
(-0.143843 0.490813 0)
(-0.196011 0.506007 0)
(-0.218658 0.496761 0)
(-0.183151 0.483873 0)
(-0.140019 0.470434 0)
(-0.104501 0.443736 0)
(-0.0756242 0.416215 0)
(-0.0633098 0.381871 0)
(-0.0571803 0.348362 0)
(-0.0498127 0.32243 0)
(-0.0363974 0.305232 0)
(-0.0210917 0.292662 0)
(-0.0069433 0.282125 0)
(0.00362724 0.272061 0)
(0.0116952 0.263373 0)
(0.0189707 0.255671 0)
(0.0280566 0.249806 0)
(0.0395698 0.246268 0)
(0.053192 0.243884 0)
(0.068669 0.241916 0)
(0.0855767 0.240802 0)
(0.103328 0.240367 0)
(0.121468 0.240395 0)
(0.139772 0.239998 0)
(0.158054 0.241167 0)
(0.176211 0.2398 0)
(0.194393 0.241635 0)
(0.212153 0.241006 0)
(0.229197 0.24356 0)
(0.245906 0.241733 0)
(0.261008 0.245314 0)
(0.274907 0.24378 0)
(0.279595 0.245625 0)
(0.241366 0.248604 0)
(0.124427 0.252127 0)
(0.0182414 0.240733 0)
(0.0116199 0.2667 0)
(-0.0548785 0.267571 0)
(-0.092267 0.461882 0)
(-0.12401 0.46126 0)
(-0.133929 0.464563 0)
(-0.19529 0.486374 0)
(-0.22486 0.479531 0)
(-0.198079 0.465034 0)
(-0.160395 0.453308 0)
(-0.131096 0.426695 0)
(-0.10747 0.399482 0)
(-0.0954895 0.369065 0)
(-0.0827502 0.343975 0)
(-0.0680179 0.325836 0)
(-0.0507611 0.313016 0)
(-0.0337454 0.302822 0)
(-0.0185757 0.293513 0)
(-0.00738631 0.284275 0)
(0.00112041 0.275397 0)
(0.0102899 0.268222 0)
(0.0216167 0.263135 0)
(0.0353855 0.260244 0)
(0.0511442 0.258214 0)
(0.0684297 0.256358 0)
(0.0867007 0.25528 0)
(0.105388 0.254876 0)
(0.124138 0.254992 0)
(0.142822 0.254583 0)
(0.161372 0.255866 0)
(0.179591 0.254586 0)
(0.198001 0.256204 0)
(0.215746 0.255691 0)
(0.232768 0.258145 0)
(0.249416 0.256318 0)
(0.264368 0.259741 0)
(0.27798 0.258224 0)
(0.282626 0.259797 0)
(0.24531 0.262847 0)
(0.131629 0.267079 0)
(0.0265563 0.257205 0)
(0.0193041 0.283691 0)
(-0.0446569 0.284969 0)
(-0.0751308 0.450761 0)
(-0.11114 0.451602 0)
(-0.123105 0.450432 0)
(-0.19383 0.471771 0)
(-0.228903 0.464288 0)
(-0.212074 0.446757 0)
(-0.178907 0.433904 0)
(-0.155074 0.40658 0)
(-0.133222 0.382718 0)
(-0.116931 0.361175 0)
(-0.0974449 0.347738 0)
(-0.0781017 0.335556 0)
(-0.0585161 0.325222 0)
(-0.0406357 0.314931 0)
(-0.0258422 0.304933 0)
(-0.0143778 0.29551 0)
(-0.00434422 0.287142 0)
(0.00648856 0.280294 0)
(0.0191852 0.275446 0)
(0.0337615 0.272699 0)
(0.0497442 0.27076 0)
(0.066846 0.268953 0)
(0.0848081 0.267989 0)
(0.103257 0.267758 0)
(0.121903 0.268091 0)
(0.14061 0.267748 0)
(0.159248 0.269183 0)
(0.1776 0.267977 0)
(0.196197 0.269323 0)
(0.214041 0.268781 0)
(0.231204 0.270926 0)
(0.247991 0.268926 0)
(0.263037 0.272018 0)
(0.276578 0.270322 0)
(0.281173 0.271338 0)
(0.244854 0.273879 0)
(0.135758 0.278682 0)
(0.0332478 0.271981 0)
(0.0256053 0.299778 0)
(-0.0346916 0.30185 0)
(-0.0685118 0.443144 0)
(-0.103402 0.444695 0)
(-0.115156 0.439677 0)
(-0.19236 0.454908 0)
(-0.235907 0.442804 0)
(-0.22577 0.422678 0)
(-0.197246 0.411379 0)
(-0.175181 0.389681 0)
(-0.150851 0.376401 0)
(-0.13032 0.360868 0)
(-0.109124 0.348426 0)
(-0.0891867 0.337082 0)
(-0.0691525 0.327785 0)
(-0.0509481 0.318846 0)
(-0.0360311 0.310008 0)
(-0.0240628 0.301282 0)
(-0.0127934 0.293214 0)
(-0.000226986 0.28677 0)
(0.0143192 0.282399 0)
(0.0305259 0.279941 0)
(0.047858 0.277845 0)
(0.0661012 0.275401 0)
(0.085024 0.27359 0)
(0.104209 0.272501 0)
(0.123338 0.272077 0)
(0.142353 0.270842 0)
(0.161157 0.271733 0)
(0.179768 0.269946 0)
(0.198257 0.270759 0)
(0.216061 0.269977 0)
(0.233168 0.272113 0)
(0.249792 0.269992 0)
(0.264648 0.272977 0)
(0.277763 0.271048 0)
(0.28195 0.271551 0)
(0.247007 0.273996 0)
(0.144703 0.281376 0)
(0.0464649 0.280929 0)
(0.0376556 0.311741 0)
(-0.0187708 0.31482 0)
(-0.0723465 0.437207 0)
(-0.104484 0.433607 0)
(-0.112901 0.42059 0)
(-0.192161 0.429107 0)
(-0.245839 0.416821 0)
(-0.239934 0.398132 0)
(-0.212993 0.389669 0)
(-0.189963 0.370611 0)
(-0.164321 0.361268 0)
(-0.14315 0.347065 0)
(-0.121088 0.336888 0)
(-0.100514 0.325677 0)
(-0.0805284 0.315251 0)
(-0.0630337 0.304024 0)
(-0.0483439 0.292056 0)
(-0.0351923 0.280297 0)
(-0.0215633 0.270025 0)
(-0.00666798 0.261657 0)
(0.0096424 0.255365 0)
(0.0270939 0.25113 0)
(0.0452244 0.247023 0)
(0.0639685 0.242252 0)
(0.0833294 0.238175 0)
(0.102963 0.235041 0)
(0.122518 0.23286 0)
(0.141892 0.229738 0)
(0.161297 0.229568 0)
(0.180172 0.226463 0)
(0.198976 0.226366 0)
(0.217137 0.22477 0)
(0.234628 0.226458 0)
(0.25137 0.223832 0)
(0.266431 0.227242 0)
(0.279134 0.2257 0)
(0.28337 0.22739 0)
(0.252528 0.23389 0)
(0.163243 0.251924 0)
(0.0725019 0.2719 0)
(0.0585939 0.320123 0)
(0.000622225 0.33063 0)
(-0.0832243 0.435071 0)
(-0.118669 0.423475 0)
(-0.130855 0.387017 0)
(-0.20704 0.372077 0)
(-0.263638 0.351418 0)
(-0.257701 0.333285 0)
(-0.22964 0.327546 0)
(-0.205815 0.307438 0)
(-0.179734 0.297511 0)
(-0.158129 0.27992 0)
(-0.134803 0.266791 0)
(-0.113592 0.25142 0)
(-0.0935501 0.235989 0)
(-0.0764058 0.219076 0)
(-0.0608525 0.202016 0)
(-0.0462025 0.186026 0)
(-0.0308196 0.17221 0)
(-0.0142354 0.160844 0)
(0.00332775 0.151984 0)
(0.0215815 0.145543 0)
(0.039735 0.139 0)
(0.0584262 0.131608 0)
(0.0781178 0.125276 0)
(0.0983399 0.120469 0)
(0.118599 0.117238 0)
(0.138838 0.112997 0)
(0.159242 0.112678 0)
(0.178842 0.109174 0)
(0.198522 0.109218 0)
(0.217539 0.107947 0)
(0.236028 0.110735 0)
(0.254011 0.109875 0)
(0.270048 0.116069 0)
(0.283638 0.118241 0)
(0.290459 0.125843 0)
(0.269406 0.143272 0)
(0.202727 0.181961 0)
(0.128045 0.2352 0)
(0.10076 0.313977 0)
(0.0321476 0.336956 0)
(-0.0926096 0.463314 0)
(-0.164939 0.433887 0)
(-0.187745 0.340019 0)
(-0.231241 0.277699 0)
(-0.269775 0.23908 0)
(-0.258149 0.22008 0)
(-0.232332 0.215911 0)
(-0.209277 0.195361 0)
(-0.183057 0.185031 0)
(-0.16163 0.166377 0)
(-0.138058 0.152793 0)
(-0.116878 0.136861 0)
(-0.0970854 0.121107 0)
(-0.0796998 0.104709 0)
(-0.0633826 0.0892903 0)
(-0.0476787 0.0755855 0)
(-0.0314818 0.0641682 0)
(-0.0147639 0.0550336 0)
(0.00205876 0.0483809 0)
(0.0182472 0.0440751 0)
(0.0334106 0.0391786 0)
(0.0486445 0.032718 0)
(0.0656552 0.0268506 0)
(0.0843513 0.0224688 0)
(0.103879 0.0198526 0)
(0.123598 0.0158706 0)
(0.143921 0.0159518 0)
(0.163617 0.0129382 0)
(0.183498 0.0131764 0)
(0.20303 0.0123576 0)
(0.222289 0.0153518 0)
(0.2416 0.0157167 0)
(0.259005 0.0227243 0)
(0.27542 0.0268678 0)
(0.287144 0.0376882 0)
(0.28362 0.0599285 0)
(0.250534 0.110652 0)
(0.218081 0.200661 0)
(0.180004 0.34281 0)
(0.0582114 0.391703 0)
(-0.588344 0.377931 0)
(-0.334993 0.434376 0)
(-0.317023 0.280802 0)
(-0.293162 0.214116 0)
(-0.304002 0.180208 0)
(-0.287496 0.168157 0)
(-0.264155 0.168052 0)
(-0.242517 0.151974 0)
(-0.217157 0.146028 0)
(-0.196307 0.130406 0)
(-0.173349 0.11894 0)
(-0.152582 0.104557 0)
(-0.132795 0.0903698 0)
(-0.114062 0.0763658 0)
(-0.0956035 0.0639387 0)
(-0.0771669 0.0531987 0)
(-0.0580886 0.0440205 0)
(-0.0381234 0.0362131 0)
(-0.0169491 0.0300757 0)
(0.00555717 0.0259279 0)
(0.0291774 0.0214764 0)
(0.0532317 0.016469 0)
(0.0769003 0.0129619 0)
(0.0994332 0.0110193 0)
(0.120855 0.0105368 0)
(0.141838 0.00782941 0)
(0.16266 0.00901799 0)
(0.183074 0.00698575 0)
(0.203485 0.00775352 0)
(0.223767 0.00745693 0)
(0.243707 0.0104168 0)
(0.263584 0.0112578 0)
(0.281773 0.0177872 0)
(0.29941 0.0219201 0)
(0.313636 0.0319281 0)
(0.324699 0.0493966 0)
(0.321388 0.0875291 0)
(0.351892 0.162417 0)
(0.359319 0.347576 0)
(0.546727 0.347958 0)
(-0.964361 0.98238 0)
(-0.355783 0.593299 0)
(-0.367703 0.13003 0)
(-0.31389 0.103142 0)
(-0.30638 0.0815107 0)
(-0.288419 0.0734371 0)
(-0.266131 0.0780393 0)
(-0.244132 0.0663295 0)
(-0.219138 0.0651634 0)
(-0.19761 0.0522478 0)
(-0.174619 0.0420055 0)
(-0.153918 0.0282929 0)
(-0.133815 0.014808 0)
(-0.11467 0.00199309 0)
(-0.0956198 -0.0089334 0)
(-0.0765687 -0.0186755 0)
(-0.0569144 -0.0271686 0)
(-0.036609 -0.0344161 0)
(-0.015551 -0.039841 0)
(0.00597304 -0.0429398 0)
(0.0275218 -0.0465619 0)
(0.0493689 -0.0512248 0)
(0.0717505 -0.0542522 0)
(0.0941782 -0.0553296 0)
(0.116188 -0.0546367 0)
(0.138051 -0.0570912 0)
(0.15974 -0.0548866 0)
(0.181083 -0.0565828 0)
(0.202391 -0.0552711 0)
(0.223461 -0.0548278 0)
(0.244057 -0.0509886 0)
(0.264604 -0.0486411 0)
(0.283297 -0.0404294 0)
(0.30179 -0.0338158 0)
(0.316881 -0.0209436 0)
(0.333793 -0.00510752 0)
(0.341866 0.0230134 0)
(0.394392 0.0470724 0)
(0.360591 0.515323 0)
(0.942808 0.949269 0)
(-0.964361 -0.98238 0)
(-0.355783 -0.593299 0)
(-0.367703 -0.13003 0)
(-0.31389 -0.103142 0)
(-0.30638 -0.0815107 0)
(-0.288419 -0.0734371 0)
(-0.266131 -0.0780393 0)
(-0.244132 -0.0663295 0)
(-0.219138 -0.0651634 0)
(-0.19761 -0.0522478 0)
(-0.174619 -0.0420055 0)
(-0.153918 -0.0282929 0)
(-0.133815 -0.014808 0)
(-0.11467 -0.00199309 0)
(-0.0956198 0.0089334 0)
(-0.0765687 0.0186755 0)
(-0.0569144 0.0271686 0)
(-0.036609 0.0344161 0)
(-0.015551 0.039841 0)
(0.00597304 0.0429398 0)
(0.0275218 0.0465619 0)
(0.0493689 0.0512248 0)
(0.0717505 0.0542522 0)
(0.0941782 0.0553296 0)
(0.116188 0.0546367 0)
(0.138051 0.0570912 0)
(0.15974 0.0548866 0)
(0.181083 0.0565828 0)
(0.202391 0.0552711 0)
(0.223461 0.0548278 0)
(0.244057 0.0509886 0)
(0.264604 0.0486411 0)
(0.283297 0.0404294 0)
(0.30179 0.0338158 0)
(0.316881 0.0209436 0)
(0.333793 0.00510752 0)
(0.341866 -0.0230134 0)
(0.394392 -0.0470724 0)
(0.360591 -0.515323 0)
(0.942808 -0.949269 0)
(-0.588344 -0.377931 0)
(-0.334993 -0.434376 0)
(-0.317023 -0.280802 0)
(-0.293162 -0.214116 0)
(-0.304002 -0.180208 0)
(-0.287496 -0.168157 0)
(-0.264155 -0.168052 0)
(-0.242517 -0.151974 0)
(-0.217157 -0.146028 0)
(-0.196307 -0.130406 0)
(-0.173349 -0.11894 0)
(-0.152582 -0.104557 0)
(-0.132795 -0.0903698 0)
(-0.114062 -0.0763658 0)
(-0.0956035 -0.0639387 0)
(-0.0771669 -0.0531987 0)
(-0.0580886 -0.0440205 0)
(-0.0381234 -0.0362131 0)
(-0.0169491 -0.0300757 0)
(0.00555717 -0.0259279 0)
(0.0291774 -0.0214764 0)
(0.0532317 -0.016469 0)
(0.0769003 -0.0129619 0)
(0.0994332 -0.0110193 0)
(0.120855 -0.0105368 0)
(0.141838 -0.00782941 0)
(0.16266 -0.00901799 0)
(0.183074 -0.00698575 0)
(0.203485 -0.00775352 0)
(0.223767 -0.00745693 0)
(0.243707 -0.0104168 0)
(0.263584 -0.0112578 0)
(0.281773 -0.0177872 0)
(0.29941 -0.0219201 0)
(0.313636 -0.0319281 0)
(0.324699 -0.0493966 0)
(0.321388 -0.0875291 0)
(0.351892 -0.162417 0)
(0.359319 -0.347576 0)
(0.546727 -0.347958 0)
(-0.0926096 -0.463314 0)
(-0.164939 -0.433887 0)
(-0.187745 -0.340019 0)
(-0.231241 -0.277699 0)
(-0.269775 -0.23908 0)
(-0.258149 -0.22008 0)
(-0.232332 -0.215911 0)
(-0.209277 -0.195361 0)
(-0.183057 -0.185031 0)
(-0.16163 -0.166377 0)
(-0.138058 -0.152793 0)
(-0.116878 -0.136861 0)
(-0.0970854 -0.121107 0)
(-0.0796998 -0.104709 0)
(-0.0633826 -0.0892903 0)
(-0.0476787 -0.0755855 0)
(-0.0314818 -0.0641682 0)
(-0.0147639 -0.0550336 0)
(0.00205876 -0.0483809 0)
(0.0182472 -0.0440751 0)
(0.0334106 -0.0391786 0)
(0.0486445 -0.032718 0)
(0.0656552 -0.0268506 0)
(0.0843513 -0.0224688 0)
(0.103879 -0.0198526 0)
(0.123598 -0.0158706 0)
(0.143921 -0.0159518 0)
(0.163617 -0.0129382 0)
(0.183498 -0.0131764 0)
(0.20303 -0.0123576 0)
(0.222289 -0.0153518 0)
(0.2416 -0.0157167 0)
(0.259005 -0.0227243 0)
(0.27542 -0.0268678 0)
(0.287144 -0.0376882 0)
(0.28362 -0.0599285 0)
(0.250534 -0.110652 0)
(0.218081 -0.200661 0)
(0.180004 -0.34281 0)
(0.0582114 -0.391703 0)
(-0.0832243 -0.435071 0)
(-0.118669 -0.423475 0)
(-0.130855 -0.387017 0)
(-0.20704 -0.372077 0)
(-0.263638 -0.351418 0)
(-0.257701 -0.333285 0)
(-0.22964 -0.327546 0)
(-0.205815 -0.307438 0)
(-0.179734 -0.297511 0)
(-0.158129 -0.27992 0)
(-0.134803 -0.266791 0)
(-0.113592 -0.25142 0)
(-0.0935501 -0.235989 0)
(-0.0764058 -0.219076 0)
(-0.0608525 -0.202016 0)
(-0.0462025 -0.186026 0)
(-0.0308196 -0.17221 0)
(-0.0142354 -0.160844 0)
(0.00332775 -0.151984 0)
(0.0215815 -0.145543 0)
(0.039735 -0.139 0)
(0.0584262 -0.131608 0)
(0.0781178 -0.125276 0)
(0.0983399 -0.120469 0)
(0.118599 -0.117238 0)
(0.138838 -0.112997 0)
(0.159242 -0.112678 0)
(0.178842 -0.109174 0)
(0.198522 -0.109218 0)
(0.217539 -0.107947 0)
(0.236028 -0.110735 0)
(0.254011 -0.109875 0)
(0.270048 -0.116069 0)