/*--------------------------------*- C++ -*----------------------------------*\
| =========                 |                                                 |
| \\      /  F ield         | OpenFOAM: The Open Source CFD Toolbox           |
|  \\    /   O peration     | Version:  v1912                                 |
|   \\  /    A nd           | Website:  www.openfoam.com                      |
|    \\/     M anipulation  |                                                 |
\*---------------------------------------------------------------------------*/
FoamFile
{
    version     2.0;
    format      ascii;
    class       volVectorField;
    location    "3.54";
    object      grad(rho);
}
// * * * * * * * * * * * * * * * * * * * * * * * * * * * * * * * * * * * * * //

dimensions      [1 -4 0 0 0 0 0];


internalField   nonuniform List<vector> 
1900
(
(91487 0.138593 0)
(-66620.3 1.1631 0)
(-8253.15 0.650371 0)
(-293.347 -3.92825 0)
(-120.003 -5.96038 0)
(-193.98 4.16355 0)
(-580.414 -21.7717 0)
(-1032.49 -70.378 0)
(-1013.12 -210.628 0)
(-1971.93 -591.658 0)
(91488.3 0.427235 0)
(-66619.8 2.10729 0)
(-8258.24 1.36087 0)
(-299.958 -8.65196 0)
(-111.912 -15.3225 0)
(-209.791 -3.62548 0)
(-654.956 -58.3468 0)
(-1221.34 -81.5243 0)
(-1534.4 -143.928 0)
(-1931.4 -562.75 0)
(91489.5 -6.57252e-09 0)
(-66619.4 -8.56204e-09 0)
(-8263.91 4.61853e-10 0)
(-310.031 1.79412e-09 0)
(-114.977 8.70415e-10 0)
(-237.004 4.26326e-10 0)
(-658.313 -1.72307e-09 0)
(-1118.07 -3.8014e-09 0)
(-1494.35 -1.54543e-09 0)
(-1903.29 -9.05942e-10 0)
(91488.3 -0.427235 0)
(-66619.8 -2.10729 0)
(-8258.24 -1.36087 0)
(-299.958 8.65196 0)
(-111.912 15.3225 0)
(-209.791 3.62548 0)
(-654.956 58.3468 0)
(-1221.34 81.5243 0)
(-1534.4 143.928 0)
(-1931.4 562.75 0)
(91487 -0.138593 0)
(-66620.3 -1.1631 0)
(-8253.15 -0.650371 0)
(-293.347 3.92825 0)
(-120.003 5.96038 0)
(-193.98 -4.16355 0)
(-580.414 21.7717 0)
(-1032.49 70.378 0)
(-1013.12 210.628 0)
(-1971.93 591.658 0)
(-1941.63 -280.517 1.48059e-11)
(-716.057 -524.18 -1.7782e-11)
(-964.619 -965.909 -2.24083e-11)
(-10020.2 102.426 0)
(-6490.75 11018.1 -8.7844e-11)
(-1728.8 -192.413 1.47552e-11)
(-1252.02 -487.699 1.7782e-11)
(-367.276 -785.036 2.24083e-11)
(-4368.78 11.3932 0)
(-3961.93 8977.06 0)
(-1866.96 7.40149e-10 0)
(-1436.34 2.29836e-09 0)
(-857.213 -2.81256e-09 0)
(-5374.97 -2.96059e-09 0)
(246.244 -1.0785e-08 0)
(-1728.8 192.413 1.47552e-11)
(-1252.02 487.699 1.7782e-11)
(-367.276 785.036 2.24083e-11)
(-4368.78 -11.3932 0)
(-3961.93 -8977.06 0)
(-1941.63 280.517 -4.43162e-11)
(-716.057 524.18 -1.7782e-11)
(-964.619 965.909 -2.24083e-11)
(-10020.2 -102.426 -6.09091e-11)
(-6490.75 -11018.1 8.7844e-11)
(8515.78 -3196.8 4.26863e-11)
(-2451.13 142.332 -3.49544e-11)
(-483.025 789.381 0)
(-3048.95 1045.56 2.66044e-11)
(-11019.9 -4554.36 -1.15716e-11)
(4910.24 -3137.27 -2.1295e-11)
(-1433.36 315.181 1.74793e-11)
(-133.958 752.608 0)
(-5354.68 -24.8651 -1.66472e-11)
(-14400.7 -8006.74 2.79834e-12)
(5853.36 -1.34572e-08 0)
(-1470.8 -9.565e-09 0)
(-656.346 -4.73695e-09 0)
(-6919.47 -1.71831e-08 6.65859e-12)
(-15376.8 -1.26734e-08 -5.59667e-12)
(4910.24 3137.27 -2.1295e-11)
(-1433.36 -315.181 1.74793e-11)
(-133.958 -752.608 0)
(-5354.68 24.8651 -1.66472e-11)
(-14400.7 8006.74 2.79834e-12)
(8515.78 3196.8 2.1295e-11)
(-2451.13 -142.332 -4.28659e-15)
(-483.025 -789.381 0)
(-3048.95 -1045.56 3.14889e-14)
(-11019.9 4554.36 1.15716e-11)
(-30178.1 -37583.2 0)
(-21832.9 4189.64 0)
(571.964 3795.33 0)
(-380.375 2071.77 0)
(-1930.86 1176.76 0)
(-1923.93 521.033 0)
(-1149.92 214.322 0)
(-201.046 105.324 0)
(113.79 79.4511 0)
(175.996 63.6252 0)
(212.778 48.8505 0)
(164.424 36.7307 0)
(99.7982 32.2333 0)
(34.8738 29.2801 0)
(-7.44484 27.1124 0)
(-27.8056 25.4301 0)
(-33.4491 24.0166 0)
(-30.9042 22.9675 0)
(-36.7694 22.0283 0)
(-48.9346 21.5112 0)
(-58.5399 21.2681 0)
(-78.9753 20.989 0)
(-105.77 20.9015 0)
(-141.297 20.9412 0)
(-197.911 21.154 0)
(-276.494 21.5579 0)
(-379.807 22.1919 0)
(-505.851 23.0355 0)
(-643.749 24.1811 0)
(-775.492 25.3513 0)
(-877.864 26.4756 0)
(-935.011 26.4553 0)
(-919.701 25.0825 0)
(-829.835 23.2968 0)
(-651.269 19.3914 0)
(-500.956 27.7335 0)
(-359.448 17.8823 0)
(3367.91 47.4648 0)
(118521 218.67 0)
(-138024 -4207.27 0)
(-28728.2 -11030.5 0)
(-19170.7 6518.49 0)
(383.916 3559.49 0)
(-815.116 1197.85 0)
(-2070.8 621.758 0)
(-2028.25 249.63 0)
(-1188.9 89.1181 0)
(-213.186 47.9981 0)
(109.813 29.8536 0)
(174.696 25.1005 0)
(210.578 18.5439 0)
(163.159 12.9225 0)
(99.3638 10.8092 0)
(34.6474 9.62848 0)
(-7.59673 8.85302 0)
(-27.92 8.32545 0)
(-33.5394 7.92096 0)
(-30.988 7.65455 0)
(-36.8401 7.39359 0)
(-48.9791 7.2548 0)
(-58.5989 7.16199 0)
(-79.0519 6.99137 0)
(-105.847 6.85629 0)
(-141.376 6.74595 0)
(-197.985 6.70309 0)
(-276.554 6.76301 0)
(-379.841 7.00559 0)
(-505.84 7.49588 0)
(-643.691 8.36689 0)
(-775.393 9.6359 0)
(-877.818 11.3817 0)
(-935.121 13.2974 0)
(-919.882 15.3601 0)
(-830.198 18.2823 0)
(-650.576 21.7032 0)
(-501.017 31.518 0)
(-357.127 34.5403 0)
(3381.15 56.8044 0)
(118708 100.505 0)
(-138210 6958.29 0)
(-26285.4 4.78001e-09 0)
(-17588.6 1.05612e-08 0)
(-975.859 1.42109e-08 0)
(-1234.99 -6.45948e-11 0)
(-2206.71 -1.67946e-08 0)
(-2078.88 4.19866e-10 0)
(-1208.57 6.85997e-08 0)
(-218.286 1.13396e-07 0)
(107.129 -2.60963e-08 0)
(172.706 1.04708e-07 0)
(209.235 7.89348e-08 0)
(162.173 -4.51195e-08 0)
(98.84 -1.73114e-07 0)
(34.3047 -1.93946e-07 0)
(-7.8239 -8.57819e-08 0)
(-28.0767 7.00531e-08 0)
(-33.6442 2.04765e-07 0)
(-31.0576 2.1326e-07 0)
(-36.8856 2.61286e-08 0)
(-49.0019 -2.23853e-07 0)
(-58.6165 -2.16845e-07 0)
(-79.0642 2.05088e-08 0)
(-105.842 2.0089e-08 0)
(-141.341 -9.26289e-08 0)
(-197.906 -9.42438e-08 0)
(-276.406 -8.35534e-08 0)
(-379.594 -5.20957e-08 0)
(-505.455 3.18775e-08 0)
(-643.127 1.13105e-07 0)
(-774.615 1.77975e-07 0)
(-876.799 1.29319e-07 0)
(-933.854 3.21682e-08 0)
(-918.251 -1.99113e-07 0)
(-827.989 -4.11856e-07 0)
(-647.418 -2.85267e-07 0)
(-497.222 -4.31671e-07 0)
(-352.092 -4.23548e-07 0)
(3387.1 -8.95655e-07 0)
(120529 -2.50702e-06 0)
(-140151 -6.60378e-06 0)
(-28728.2 11030.5 0)
(-19170.7 -6518.49 0)
(383.916 -3559.49 0)
(-815.116 -1197.85 0)
(-2070.8 -621.758 0)
(-2028.25 -249.63 0)
(-1188.9 -89.1181 0)
(-213.186 -47.9981 0)
(109.813 -29.8536 0)
(174.696 -25.1005 0)
(210.578 -18.5439 0)
(163.159 -12.9225 0)
(99.3638 -10.8092 0)
(34.6474 -9.62848 0)
(-7.59673 -8.85302 0)
(-27.92 -8.32545 0)
(-33.5394 -7.92096 0)
(-30.988 -7.65455 0)
(-36.8401 -7.39359 0)
(-48.9791 -7.2548 0)
(-58.5989 -7.16199 0)
(-79.0519 -6.99137 0)
(-105.847 -6.85629 0)
(-141.376 -6.74595 0)
(-197.985 -6.70309 0)
(-276.554 -6.76301 0)
(-379.841 -7.00559 0)
(-505.84 -7.49589 0)
(-643.691 -8.36689 0)
(-775.393 -9.6359 0)
(-877.818 -11.3817 0)
(-935.121 -13.2974 0)
(-919.882 -15.3601 0)
(-830.198 -18.2823 0)
(-650.576 -21.7032 0)
(-501.017 -31.518 0)
(-357.127 -34.5403 0)
(3381.15 -56.8044 0)
(118708 -100.505 0)
(-138210 -6958.29 0)
(-30178.1 37583.2 0)
(-21832.9 -4189.64 0)
(571.964 -3795.33 0)
(-380.375 -2071.77 0)
(-1930.86 -1176.76 0)
(-1923.93 -521.033 0)
(-1149.92 -214.322 0)
(-201.046 -105.324 0)
(113.79 -79.4511 0)
(175.996 -63.6252 0)
(212.778 -48.8505 0)
(164.424 -36.7307 0)
(99.7982 -32.2333 0)
(34.8738 -29.2801 0)
(-7.44484 -27.1124 0)
(-27.8056 -25.4301 0)
(-33.4491 -24.0166 0)
(-30.9042 -22.9675 0)
(-36.7694 -22.0283 0)
(-48.9346 -21.5112 0)
(-58.5399 -21.2681 0)
(-78.9753 -20.989 0)
(-105.77 -20.9015 0)
(-141.297 -20.9412 0)
(-197.911 -21.154 0)
(-276.494 -21.5579 0)
(-379.807 -22.1919 0)
(-505.851 -23.0355 0)
(-643.749 -24.1811 0)
(-775.492 -25.3513 0)
(-877.864 -26.4756 0)
(-935.011 -26.4553 0)
(-919.701 -25.0825 0)
(-829.835 -23.2968 0)
(-651.269 -19.3914 0)
(-500.956 -27.7335 0)
(-359.448 -17.8823 0)
(3367.91 -47.4648 0)
(118521 -218.67 0)
(-138024 4207.27 0)
(70923 49115 0)
(-42048.1 -5717.67 0)
(1494.97 -3463.99 0)
(324.776 -2997.05 0)
(-1259.87 -1773.9 0)
(-1545.16 -948.011 0)
(-973.219 -405.099 0)
(-142.623 -207.996 0)
(131.371 -175.912 0)
(192.386 -130.452 0)
(224.904 -99.5298 0)
(172.121 -77.6687 0)
(103.535 -68.1428 0)
(37.5979 -61.5449 0)
(-5.35731 -56.6264 0)
(-26.1103 -52.7339 0)
(-32.0991 -49.4908 0)
(-29.8376 -47.0886 0)
(-36.0084 -45.0066 0)
(-48.5537 -43.8349 0)
(-58.3396 -43.3621 0)
(-78.9105 -42.9661 0)
(-105.907 -43.031 0)
(-141.625 -43.4415 0)
(-198.458 -44.3092 0)
(-277.275 -45.6445 0)
(-380.808 -47.5903 0)
(-507.075 -50.099 0)
(-645.077 -53.2274 0)
(-776.719 -56.7436 0)
(-878.457 -60.1687 0)
(-934.373 -62.0977 0)
(-918.109 -60.4612 0)
(-827.048 -58.6868 0)
(-652.557 -54.3701 0)
(-500.141 -65.5422 0)
(-366.821 -60.4389 0)
(3270.52 -93.7933 0)
(121592 -487.738 0)
(-141160 144.078 0)
(83053.8 27859.8 0)
(-61659.9 -3826.51 0)
(2698.71 -2771.21 0)
(870.134 -2687.56 0)
(-316.142 -1894.34 0)
(-808.008 -1226.2 0)
(-531.562 -570.07 0)
(-11.5213 -342.264 0)
(179.086 -283.011 0)
(240.812 -199.438 0)
(257.139 -158.763 0)
(190.542 -128.783 0)
(113.332 -113.694 0)
(44.5106 -102.968 0)
(-0.0736253 -94.9589 0)
(-21.8385 -88.4719 0)
(-28.7329 -83.314 0)
(-27.1551 -79.5138 0)
(-34.042 -76.2271 0)
(-47.5541 -74.3941 0)
(-57.81 -73.687 0)
(-78.6909 -73.0697 0)
(-106.155 -73.1976 0)
(-142.353 -73.9003 0)
(-199.74 -75.2567 0)
(-279.236 -77.5639 0)
(-383.563 -80.6195 0)
(-510.627 -84.8186 0)
(-649.44 -90.2017 0)
(-781.523 -96.1803 0)
(-882.706 -101.974 0)
(-935.635 -106.588 0)
(-917.268 -104.695 0)
(-825.459 -103.519 0)
(-657.184 -101.141 0)
(-507.242 -115.279 0)
(-382.718 -120.4 0)
(3008.36 -146.138 0)
(117103 -788.21 0)
(-136104 -6943.08 0)
(90249.8 18026.7 0)
(-71565.3 -1338.96 0)
(2592.51 -1943.23 0)
(1169.76 -2042.03 0)
(148.347 -1678.69 0)
(-269.043 -1200.46 0)
(-121.43 -690.574 0)
(133.998 -471.677 0)
(269.004 -381.133 0)
(312.117 -276.923 0)
(292.989 -230.069 0)
(215.551 -193.649 0)
(128.412 -172.443 0)
(55.6516 -156.766 0)
(8.61158 -144.324 0)
(-14.889 -134.574 0)
(-23.4668 -127.015 0)
(-23.0083 -121.549 0)
(-31.0749 -116.867 0)
(-46.106 -114.321 0)
(-57.0634 -113.398 0)
(-78.4389 -112.535 0)
(-106.707 -112.851 0)
(-143.609 -113.963 0)
(-201.989 -116.249 0)
(-282.443 -119.384 0)
(-387.799 -124.47 0)
(-516.309 -130.46 0)
(-656.025 -137.767 0)
(-788.063 -147.154 0)
(-888.486 -154.818 0)
(-936.995 -161.061 0)
(-915.152 -158.31 0)
(-823.624 -157.708 0)
(-663.89 -158.635 0)
(-518.699 -176.467 0)
(-396.557 -186.645 0)
(2627 -205.552 0)
(115043 -1120.12 0)
(-133512 -6612.25 0)
(98866.6 5148.17 0)
(-80903.6 -730.757 0)
(2021.21 -1476.03 0)
(1125.05 -1665.07 0)
(494.829 -1480.45 0)
(144.179 -1088.14 0)
(170.714 -761.713 0)
(286.668 -563.532 0)
(366.759 -457.208 0)
(386.382 -362.639 0)
(337.385 -306.989 0)
(246.071 -266.133 0)
(148.874 -239.277 0)
(71.6071 -218.005 0)
(21.3118 -201.5 0)
(-5.15816 -187.461 0)
(-16.1814 -177.487 0)
(-17.3767 -170.339 0)
(-27.0775 -164.274 0)
(-44.211 -161.08 0)
(-56.0883 -159.996 0)
(-78.1634 -158.891 0)
(-107.532 -159.453 0)
(-145.628 -161.294 0)
(-204.964 -164.189 0)
(-287.158 -169.676 0)
(-394.236 -175.116 0)
(-523.441 -184.725 0)
(-665.527 -194.63 0)
(-797.954 -206.769 0)
(-896.108 -216.459 0)
(-939.001 -226.369 0)
(-914.037 -224.016 0)
(-825.772 -224.572 0)
(-675.261 -230.83 0)
(-534.234 -252.259 0)
(-410.745 -265.082 0)
(2108.83 -282.234 0)
(110929 -1466.98 0)
(-128570 -9832.16 0)
(94522.6 -5134.72 0)
(-77948.6 -815.725 0)
(1692.17 -1418.63 0)
(1165.5 -1413.54 0)
(704.304 -1300.88 0)
(423.556 -1037.66 0)
(384.097 -812.441 0)
(427.429 -649.729 0)
(462.591 -541.501 0)
(456.873 -457.776 0)
(385.986 -398.728 0)
(280.802 -354.959 0)
(174.79 -321.65 0)
(92.0544 -296.795 0)
(38.0447 -273.728 0)
(8.25131 -256.187 0)
(-6.96771 -242.788 0)
(-10.276 -234.073 0)
(-22.1518 -226.665 0)
(-41.9834 -223.003 0)
(-54.9548 -221.762 0)
(-77.9161 -220.475 0)
(-109.022 -221.564 0)
(-148.172 -224.169 0)
(-210.065 -229.041 0)
(-292.973 -234.526 0)
(-402.301 -245.743 0)
(-535.114 -254.292 0)
(-677.267 -269.301 0)
(-809.098 -287.628 0)
(-907.373 -297.468 0)
(-944.276 -311.61 0)
(-913.421 -311.009 0)
(-830.191 -318.777 0)
(-690.57 -329.065 0)
(-551.706 -361.62 0)
(-425.443 -377.736 0)
(1468.8 -402.912 0)
(105840 -1750.79 0)
(-122421 -12261.4 0)
(92726.5 -2836.05 0)
(-77322.7 -827.012 0)
(1445.13 -1269.62 0)
(1238.53 -1239.96 0)
(857.042 -1160.92 0)
(614.853 -1011.72 0)
(544.542 -861.821 0)
(547.756 -738.273 0)
(551.732 -643.797 0)
(523.963 -570.955 0)
(436.463 -513.267 0)
(320.347 -467.556 0)
(204.922 -431.575 0)
(117.786 -397.465 0)
(60.4433 -370.967 0)
(24.6566 -348.048 0)
(5.12849 -331.237 0)
(-1.83931 -320.266 0)
(-16.4096 -311.839 0)
(-39.4868 -307.91 0)
(-53.6527 -306.367 0)
(-77.9721 -305.098 0)
(-111.091 -306.982 0)
(-152.833 -310.903 0)
(-214.944 -317.192 0)
(-303.253 -326.826 0)
(-413.283 -336.689 0)
(-546.142 -354.009 0)
(-697.651 -368.606 0)
(-825.097 -391.235 0)
(-919.217 -403.502 0)
(-952.049 -421.84 0)
(-920.943 -418.361 0)
(-843.172 -429.89 0)
(-716.546 -443.345 0)
(-581.135 -482.811 0)
(-450.535 -504.829 0)
(785.71 -528.449 0)
(99502.1 -1810.94 0)
(-114785 -14146.6 0)
(90798.3 -4978.68 0)
(-76439.2 -874.244 0)
(1294.23 -1173.27 0)
(1270.25 -1222.77 0)
(924.244 -1166.57 0)
(711.779 -1078.35 0)
(647.602 -969.452 0)
(637.525 -867.492 0)
(623.824 -786.957 0)
(582.657 -722.357 0)
(485.625 -665.829 0)
(359.523 -616.241 0)
(242.332 -571.208 0)
(150.458 -530.652 0)
(85.6654 -497.413 0)
(46.5372 -469.299 0)
(19.8039 -449.448 0)
(8.41652 -435.772 0)
(-10.2447 -426.434 0)
(-36.7101 -422.1 0)
(-52.2458 -420.301 0)
(-78.5091 -419.435 0)
(-114.616 -422.332 0)
(-158.011 -428.254 0)
(-225.409 -436.033 0)
(-311.761 -449.139 0)
(-428.495 -462.899 0)
(-565.87 -485.663 0)
(-713.14 -503.69 0)
(-842.726 -539.875 0)
(-936.865 -553.354 0)
(-958.595 -580.575 0)
(-921.178 -587.398 0)
(-854.266 -602.877 0)
(-741.566 -629.663 0)
(-610.954 -675.591 0)
(-469.422 -725.169 0)
(210.187 -735.453 0)
(92716.9 -1656.27 0)
(-106688 -15402.4 0)
(86785.1 -7630.22 0)
(-73655.6 -959.625 0)
(1109.28 -1150.32 0)
(1244.98 -1262.86 0)
(996.212 -1223.06 0)
(804.805 -1147.97 0)
(747.73 -1054.35 0)
(723.615 -975.579 0)
(691.589 -918.881 0)
(640.687 -873.44 0)
(538.721 -825.069 0)
(411.527 -780.039 0)
(287.399 -729.83 0)
(188.897 -689.626 0)
(119.566 -648.63 0)
(70.8776 -618.391 0)
(37.4359 -594.722 0)
(20.338 -579.23 0)
(-3.23447 -568.883 0)
(-33.5768 -563.857 0)
(-51.0845 -561.967 0)
(-79.9294 -561.903 0)
(-119.59 -566.2 0)
(-166.035 -573.401 0)
(-235.07 -584.917 0)
(-329.142 -597.318 0)
(-448.479 -619.765 0)
(-585.45 -637.977 0)
(-749.893 -661.035 0)
(-872.955 -699.655 0)
(-958.437 -718.807 0)
(-984.855 -741.888 0)
(-942.435 -755.377 0)
(-883.901 -771.019 0)
(-786.615 -806.265 0)
(-673.167 -854.647 0)
(-508.221 -916.386 0)
(-111.532 -935.599 0)
(85368.5 -1380.12 0)
(-97930.4 -16192.7 0)
(82119.6 -9044.48 0)
(-70194.9 -1010.17 0)
(1002.02 -1123.57 0)
(1200.16 -1245.21 0)
(1034.96 -1270.82 0)
(874.35 -1232.52 0)
(813.723 -1162.24 0)
(768.068 -1117.65 0)
(722.249 -1083.57 0)
(673.057 -1056.09 0)
(575.63 -1014.43 0)
(451.299 -964.081 0)
(329.457 -910.76 0)
(228.705 -857.383 0)
(154.31 -812.847 0)
(98.4845 -777.802 0)
(57.5416 -751.678 0)
(33.3162 -734.659 0)
(4.5686 -723.785 0)
(-30.0457 -718.057 0)
(-50.3622 -716.03 0)
(-82.5882 -717.081 0)
(-125.696 -722.73 0)
(-176.047 -731.626 0)
(-248.456 -744.958 0)
(-345.342 -763.816 0)
(-467.676 -784.279 0)
(-605.639 -818.944 0)
(-772.575 -842.451 0)
(-898.397 -880.853 0)
(-977.563 -902.132 0)
(-993.835 -913.049 0)
(-949.249 -916.762 0)
(-903.304 -920.709 0)
(-822.153 -942.904 0)
(-717.071 -978.319 0)
(-547.43 -1015.16 0)
(-236.687 -1042.6 0)
(78014.7 -1155.13 0)
(-89291.4 -16291.5 0)
(76706 -10193.3 0)
(-66022.8 -1044.28 0)
(882.783 -1119.19 0)
(1103.08 -1229.6 0)
(1008.45 -1292.52 0)
(909.444 -1282.47 0)
(858.424 -1235.63 0)
(799.418 -1214.95 0)
(750.905 -1193.81 0)
(707.312 -1179.14 0)
(627.385 -1140.22 0)
(511.429 -1093.96 0)
(390.217 -1039.64 0)
(283.249 -989.311 0)
(196.253 -949.175 0)
(129.822 -915.163 0)
(79.0096 -891.038 0)
(47.2163 -873.945 0)
(12.7644 -863.768 0)
(-26.1036 -857.648 0)
(-50.1448 -855.374 0)
(-86.3862 -857.393 0)
(-133.605 -863.167 0)
(-187.455 -872.264 0)
(-266.09 -883.636 0)
(-367.032 -901.306 0)
(-501.602 -917.098 0)
(-641.507 -947.147 0)
(-809.55 -966.803 0)
(-930.465 -997.945 0)
(-989.462 -1010.98 0)
(-998.953 -1009.82 0)
(-949.816 -1005.79 0)
(-909.092 -999.449 0)
(-842.13 -1006.67 0)
(-742.8 -1031.93 0)
(-570.168 -1052.25 0)
(-246.405 -1073.15 0)
(70674.1 -1077.85 0)
(-80641.1 -15923.5 0)
(70902.8 -10818.9 0)
(-61450.8 -1021.74 0)
(823.436 -1069.73 0)
(1033.13 -1135.14 0)
(984.014 -1203.49 0)
(929.168 -1203.92 0)
(878.794 -1194.89 0)
(808.375 -1200.44 0)
(756.757 -1201.69 0)
(724.693 -1207.23 0)
(657.712 -1182.99 0)
(548.227 -1153.44 0)
(430.299 -1104.69 0)
(315.877 -1064.69 0)
(225.762 -1028.46 0)
(154.508 -999.938 0)
(97.2606 -979.896 0)
(59.594 -965.364 0)
(20.2726 -957.312 0)
(-21.9567 -951.747 0)
(-50.1157 -949.406 0)
(-90.0975 -951.299 0)
(-140.027 -955.376 0)
(-195.771 -961.578 0)
(-276.442 -969.53 0)
(-377.588 -979.712 0)
(-511.85 -991.447 0)
(-653.537 -1005.18 0)
(-821.526 -1013.6 0)
(-940.969 -1024.31 0)
(-989.004 -1023.43 0)
(-988.833 -1003.43 0)
(-939.257 -987.91 0)
(-904.145 -973.884 0)
(-853.451 -972.374 0)
(-760.997 -990.734 0)
(-587.156 -1003.59 0)
(-261.354 -1015.95 0)
(63704.3 -1021.38 0)
(-72441.4 -15278.4 0)
(64923.3 -10952.7 0)
(-56628.1 -968.753 0)
(773.506 -1023.27 0)
(974.181 -1068.15 0)
(942.169 -1124.71 0)
(917.726 -1132.45 0)
(861.774 -1155.23 0)
(792.871 -1174.01 0)
(744.366 -1185.67 0)
(725.336 -1190.89 0)
(679.221 -1174.98 0)
(586.877 -1142.56 0)
(475.738 -1098.52 0)
(356.71 -1064.19 0)
(258.648 -1033.62 0)
(176.619 -1013.98 0)
(112.326 -1000.68 0)
(68.9785 -992.854 0)
(25.8855 -988.77 0)
(-18.4852 -985.72 0)
(-49.713 -983.485 0)
(-92.1387 -982.515 0)
(-143.51 -982.073 0)
(-201.094 -981.285 0)
(-283.564 -982.68 0)
(-388.153 -984.419 0)
(-526.142 -987.675 0)
(-662.855 -997.649 0)
(-827.989 -997.372 0)
(-939.933 -1006.86 0)
(-969.336 -997.53 0)
(-964.729 -973.374 0)
(-921.349 -955.243 0)
(-894.121 -942.386 0)
(-858.368 -939.551 0)
(-772.881 -953.111 0)
(-594.463 -962.31 0)
(-263.545 -970.157 0)
(56930.3 -977.333 0)
(-64494.6 -14532.9 0)
(59079 -11024.3 0)
(-51882.5 -916.54 0)
(727.657 -971.747 0)
(935.381 -1027.34 0)
(922.052 -1064.33 0)
(899.762 -1068.41 0)
(838.741 -1106.29 0)
(779.042 -1120.67 0)
(740.494 -1128.97 0)
(734.988 -1123.45 0)
(704.286 -1100.44 0)
(621.911 -1071.62 0)
(505.818 -1030.06 0)
(378.42 -997.419 0)
(274.143 -970.67 0)
(186.251 -954.236 0)
(117.618 -944.605 0)
(71.0663 -940.52 0)
(27.1472 -939.001 0)
(-16.8643 -938.019 0)
(-47.0269 -935.657 0)
(-88.736 -932.042 0)
(-138.842 -928.39 0)
(-196.357 -923.769 0)
(-279.462 -920.971 0)
(-382.401 -921.321 0)
(-524.599 -919.593 0)
(-662.881 -934.04 0)
(-830.402 -934.764 0)
(-941.122 -940.936 0)
(-956.735 -935.935 0)
(-948.084 -922.425 0)
(-909.396 -911.702 0)
(-889.024 -906.653 0)
(-863.786 -909.058 0)
(-782.929 -922.042 0)
(-603.583 -931.47 0)
(-275.831 -938.819 0)
(50634.8 -948.208 0)
(-57094.9 -13846.3 0)
(53108 -10923.3 0)
(-46941.1 -888.21 0)
(666.735 -947.574 0)
(884.967 -1009.64 0)
(902.595 -1046.27 0)
(877.287 -1050.62 0)
(811.415 -1079.92 0)
(771.015 -1084.21 0)
(741.684 -1086.99 0)
(752.833 -1066.72 0)
(729.166 -1033.97 0)
(654.701 -995.299 0)
(547.239 -934.455 0)
(413.936 -897.45 0)
(300.262 -863.837 0)
(201.736 -840.477 0)
(125.544 -826.662 0)
(74.378 -820.118 0)
(28.2955 -818.807 0)
(-15.2624 -820.268 0)
(-43.9538 -817.596 0)
(-85.1356 -810.844 0)
(-135.538 -806.318 0)
(-193.945 -804.381 0)
(-281.204 -805.998 0)
(-386.825 -816.071 0)
(-538.398 -821.109 0)
(-677.474 -846.392 0)
(-834.634 -865.624 0)
(-941.061 -883.088 0)
(-951.498 -889.667 0)
(-941.377 -886.812 0)
(-906.151 -884.893 0)
(-891.573 -887.764 0)
(-873.197 -896.483 0)
(-794.478 -909.999 0)
(-610.63 -920.536 0)
(-279.675 -926.572 0)
(44492.2 -929.862 0)
(-49869.3 -13035.7 0)
(47433.1 -10950.3 0)
(-42269.5 -856.377 0)
(610.643 -915.166 0)
(840.272 -986.97 0)
(882.56 -1018.84 0)
(867.334 -1026.39 0)
(806.376 -1033.65 0)
(772.232 -1025.4 0)
(757.349 -1021.4 0)
(786.08 -987.158 0)
(773.108 -938.92 0)
(717.808 -878.264 0)
(600.108 -808.118 0)
(446.469 -757.899 0)
(329.045 -714.395 0)
(222.075 -682.121 0)
(137.237 -659.957 0)
(78.6356 -645.087 0)
(27.0031 -635.937 0)
(-15.6972 -632.529 0)
(-37.9464 -629.503 0)
(-77.868 -626.927 0)
(-132.614 -629.667 0)
(-196.049 -636.194 0)
(-290.727 -647.867 0)
(-396.962 -668.734 0)
(-553.817 -686.806 0)
(-705.778 -729.252 0)
(-865.765 -764.284 0)
(-964.291 -799.236 0)
(-960.324 -823.087 0)
(-943.483 -834.594 0)
(-910.313 -844.72 0)
(-900.193 -856.281 0)
(-885.213 -869.199 0)
(-806.107 -880.032 0)
(-619.553 -893.037 0)
(-284.817 -890.148 0)
(38966 -885.508 0)
(-43323.2 -12293.3 0)
(41467.9 -10089.5 0)
(-37270.8 -711.374 0)
(540.892 -804.882 0)
(785.061 -891.67 0)
(864.605 -918.73 0)
(863.017 -927.306 0)
(812.369 -923.796 0)
(782.818 -907.296 0)
(778.538 -892.122 0)
(832.316 -856.607 0)
(834.1 -805.444 0)
(780.746 -735.694 0)
(663.227 -663.84 0)
(504.251 -616.186 0)
(373.284 -572.936 0)
(254.194 -544.372 0)
(161.231 -521.989 0)
(97.5253 -505.043 0)
(40.3966 -494.038 0)
(-9.06219 -488.129 0)
(-38.5559 -484.57 0)
(-85.2943 -484.585 0)
(-144.467 -490.031 0)
(-211.482 -499.924 0)
(-312.562 -513.668 0)
(-424.348 -535.603 0)
(-596.716 -554.947 0)
(-752.135 -598.15 0)
(-902.073 -637.42 0)
(-997.726 -676.444 0)
(-985.57 -707.494 0)
(-962.224 -725.498 0)
(-927.049 -740.725 0)
(-915.162 -754.22 0)
(-896.084 -766.22 0)
(-817.45 -776.174 0)
(-620.378 -778.781 0)
(-272.419 -744.58 0)
(33503.7 -706.27 0)
(-36883.3 -10669 0)
(36902.8 -9739.07 0)
(-33322.6 -336.693 0)
(436.903 -495.154 0)
(730.564 -658.829 0)
(848.22 -718.497 0)
(862.452 -748.095 0)
(825.658 -733.941 0)
(802.754 -711.372 0)
(806.194 -680.203 0)
(869.607 -630.689 0)
(889.624 -590.654 0)
(854.262 -539.349 0)
(715.27 -486.279 0)
(534.068 -462.603 0)
(398.247 -431.796 0)
(271.169 -417.32 0)
(175.136 -402.017 0)
(105.57 -384.61 0)
(43.3019 -369.35 0)
(-6.57363 -358.494 0)
(-34.5317 -355.397 0)
(-83.1301 -360.9 0)
(-147.395 -371.018 0)
(-218.827 -382.677 0)
(-325.109 -391.416 0)
(-436.74 -405.949 0)
(-614.089 -415.125 0)
(-785.252 -442.035 0)
(-941.212 -467.718 0)
(-1031.82 -486.91 0)
(-1007.59 -508.636 0)
(-975.507 -520.256 0)
(-937.991 -532.539 0)
(-924.76 -539.64 0)
(-906.368 -546.814 0)
(-818.211 -548.806 0)
(-589.108 -518.32 0)
(-214.943 -421.44 0)
(29402.4 -294.505 0)
(-32268.7 -9527.24 0)
(32084.6 10543.9 0)
(-28363.1 966.201 0)
(230.47 107.904 0)
(569.839 -168.187 0)
(778.585 -284.369 0)
(848.136 -328.5 0)
(847.756 -329.85 0)
(834.602 -325.368 0)
(856.287 -297.059 0)
(918.608 -269.677 0)
(922.119 -218.316 0)
(881.326 -30.6239 0)
(737.182 438.059 0)
(556.752 1138.34 0)
(416.921 1972.43 0)
(282.89 2724.69 0)
(192.752 3355.45 0)
(129.005 3784.49 0)
(65.5627 4006.53 0)
(4.38258 3980.33 0)
(-40.874 3984.76 0)
(-100.347 4018.89 0)
(-165.453 3804.29 0)
(-231.139 3384.9 0)
(-334.988 2772.99 0)
(-447.195 2025.55 0)
(-631.489 1246.06 0)
(-802.814 528.749 0)
(-945.316 68.9114 0)
(-1037.16 -116.134 0)
(-1017.7 -183.209 0)
(-985.257 -186.444 0)
(-945.728 -198.53 0)
(-928.917 -201.29 0)
(-904.917 -203.955 0)
(-789.992 -198.852 0)
(-497.644 -138.485 0)
(-56.7432 43.3048 0)
(24729 908.433 0)
(-27812 13021.6 0)
(47460.3 560630 0)
(-43379.1 45508.6 0)
(-656.235 28171.2 0)
(352.555 33056.1 0)
(693.736 37443.7 0)
(818.625 43321.4 0)
(828.676 49286.6 0)
(834.352 55994 0)
(859.861 62901 0)
(945.487 70436.5 0)
(1119.98 78108.9 0)
(1486.77 86074.3 0)
(1841.73 93837.6 0)
(2012.64 101448 0)
(1926.91 108446 0)
(1603.9 114779 0)
(1196.4 119699 0)
(732.979 123610 0)
(232.019 125481 0)
(-27.5606 127171 0)
(2.63232 127176 0)
(-257.031 125460 0)
(-758.331 123583 0)
(-1212.62 119627 0)
(-1635.03 114724 0)
(-1908.15 108283 0)
(-2056.46 101294 0)
(-1919.6 93608.6 0)
(-1562.64 85806 0)
(-1274.77 77795.9 0)
(-1075.35 70038.1 0)
(-990.271 62426.4 0)
(-952.297 55351.5 0)
(-929.988 48454.8 0)
(-904.019 42274.9 0)
(-755.121 36130.7 0)
(-355.757 31489.2 0)
(793.904 26224.9 0)
(41908.8 42050.3 0)
(-44649.1 534970 0)
(611733 -634573 0)
(-541460 -49328 0)
(-11769.2 -32791.7 0)
(9505.19 -37596 0)
(10670.6 -42549.5 0)
(12260.4 -49393.6 0)
(13059.6 -56312.5 0)
(13953.9 -64055.9 0)
(14773.6 -71985.8 0)
(15573.5 -80660.2 0)
(15991.3 -89563.1 0)
(16038.1 -98874.2 0)
(15551.5 -108207 0)
(14633.8 -117351 0)
(13263.9 -125859 0)
(11127.3 -133434 0)
(8702.44 -139312 0)
(5700.08 -143884 0)
(3496.68 -146085 0)
(1637.94 -147834 0)
(-1689.07 -147822 0)
(-3562.84 -146016 0)
(-5786.98 -143775 0)
(-8767.69 -139122 0)
(-11265.9 -133236 0)
(-13389 -125484 0)
(-14772.6 -117034 0)
(-15727.6 -107631 0)
(-16183 -98277.2 0)
(-16231.6 -88739.9 0)
(-15828.3 -79622.9 0)
(-15137.8 -70726 0)
(-14409.3 -62451.1 0)
(-13530 -54385.6 0)
(-12780.9 -47109 0)
(-11183.5 -39870.2 0)
(-10043.3 -34603.9 0)
(10120.4 -29481.8 0)
(514974 -44907.7 0)
(-578992 -602332 0)
(611733 634573 0)
(-541460 49328 0)
(-11769.2 32791.7 0)
(9505.19 37596 0)
(10670.6 42549.5 0)
(12260.4 49393.6 0)
(13059.6 56312.5 0)
(13953.9 64055.9 0)
(14773.6 71985.8 0)
(15573.5 80660.2 0)
(15991.3 89563.1 0)
(16038.1 98874.2 0)
(15551.5 108207 0)
(14633.8 117351 0)
(13263.9 125859 0)
(11127.3 133434 0)
(8702.44 139312 0)
(5700.08 143884 0)
(3496.68 146085 0)
(1637.94 147834 0)
(-1689.07 147822 0)
(-3562.84 146016 0)
(-5786.98 143775 0)
(-8767.69 139122 0)
(-11265.9 133236 0)
(-13389 125484 0)
(-14772.6 117034 0)
(-15727.6 107631 0)
(-16183 98277.2 0)
(-16231.6 88739.9 0)
(-15828.3 79622.9 0)
(-15137.8 70726 0)
(-14409.3 62451.1 0)
(-13530 54385.6 0)
(-12780.9 47109 0)
(-11183.5 39870.2 0)
(-10043.3 34603.9 0)
(10120.4 29481.8 0)
(514974 44907.7 0)
(-578992 602332 0)
(47460.3 -560630 0)
(-43379.1 -45508.6 0)
(-656.235 -28171.2 0)
(352.555 -33056.1 0)
(693.736 -37443.7 0)
(818.625 -43321.4 0)
(828.676 -49286.6 0)
(834.352 -55994 0)
(859.861 -62901 0)
(945.487 -70436.5 0)
(1119.98 -78108.9 0)
(1486.77 -86074.3 0)
(1841.73 -93837.6 0)
(2012.64 -101448 0)
(1926.91 -108446 0)
(1603.9 -114779 0)
(1196.4 -119699 0)
(732.979 -123610 0)
(232.019 -125481 0)
(-27.5606 -127171 0)
(2.63232 -127176 0)
(-257.031 -125460 0)
(-758.331 -123583 0)
(-1212.62 -119627 0)
(-1635.03 -114724 0)
(-1908.15 -108283 0)
(-2056.46 -101294 0)
(-1919.6 -93608.6 0)
(-1562.64 -85806 0)
(-1274.77 -77795.9 0)
(-1075.35 -70038.1 0)
(-990.271 -62426.4 0)
(-952.297 -55351.5 0)
(-929.988 -48454.8 0)
(-904.019 -42274.9 0)
(-755.121 -36130.7 0)
(-355.757 -31489.2 0)
(793.904 -26224.9 0)
(41908.8 -42050.3 0)
(-44649.1 -534970 0)
(32084.6 -10543.9 0)
(-28363.1 -966.201 0)
(230.47 -107.904 0)
(569.839 168.187 0)
(778.585 284.369 0)
(848.136 328.5 0)
(847.756 329.85 0)
(834.602 325.368 0)
(856.287 297.059 0)
(918.608 269.677 0)
(922.119 218.316 0)
(881.326 30.6239 0)
(737.182 -438.059 0)
(556.752 -1138.34 0)
(416.921 -1972.43 0)
(282.89 -2724.69 0)
(192.752 -3355.45 0)
(129.005 -3784.49 0)
(65.5627 -4006.53 0)
(4.38258 -3980.33 0)
(-40.874 -3984.76 0)
(-100.347 -4018.89 0)
(-165.453 -3804.29 0)
(-231.139 -3384.9 0)
(-334.988 -2772.99 0)
(-447.195 -2025.55 0)
(-631.489 -1246.06 0)
(-802.814 -528.749 0)
(-945.316 -68.9114 0)
(-1037.16 116.134 0)
(-1017.7 183.209 0)
(-985.257 186.444 0)
(-945.728 198.53 0)
(-928.917 201.29 0)
(-904.917 203.955 0)
(-789.992 198.852 0)
(-497.644 138.485 0)
(-56.7432 -43.3048 0)
(24729 -908.433 0)
(-27812 -13021.6 0)
(36902.8 9739.07 0)
(-33322.6 336.693 0)
(436.903 495.154 0)
(730.564 658.829 0)
(848.22 718.497 0)
(862.452 748.095 0)
(825.658 733.941 0)
(802.754 711.372 0)
(806.194 680.203 0)
(869.607 630.689 0)
(889.624 590.654 0)
(854.262 539.349 0)
(715.27 486.279 0)
(534.068 462.603 0)
(398.247 431.796 0)
(271.169 417.32 0)
(175.136 402.017 0)
(105.57 384.61 0)
(43.3019 369.35 0)
(-6.57363 358.494 0)
(-34.5317 355.397 0)
(-83.1301 360.9 0)
(-147.395 371.018 0)
(-218.827 382.677 0)
(-325.109 391.416 0)
(-436.74 405.949 0)
(-614.089 415.125 0)
(-785.252 442.035 0)
(-941.212 467.718 0)
(-1031.82 486.91 0)
(-1007.59 508.636 0)
(-975.507 520.256 0)
(-937.991 532.539 0)
(-924.76 539.64 0)
(-906.368 546.814 0)
(-818.211 548.806 0)
(-589.108 518.32 0)
(-214.943 421.44 0)
(29402.4 294.505 0)
(-32268.7 9527.24 0)
(41467.9 10089.5 0)
(-37270.8 711.374 0)
(540.892 804.882 0)
(785.061 891.67 0)
(864.605 918.73 0)
(863.017 927.306 0)
(812.369 923.796 0)
(782.818 907.296 0)
(778.538 892.122 0)
(832.316 856.607 0)
(834.1 805.444 0)
(780.746 735.694 0)
(663.227 663.84 0)
(504.251 616.186 0)
(373.284 572.936 0)
(254.194 544.372 0)
(161.231 521.989 0)
(97.5253 505.043 0)
(40.3966 494.038 0)
(-9.06219 488.129 0)
(-38.5559 484.57 0)
(-85.2943 484.585 0)
(-144.467 490.031 0)
(-211.482 499.924 0)
(-312.562 513.668 0)
(-424.348 535.603 0)
(-596.716 554.947 0)
(-752.135 598.15 0)
(-902.073 637.42 0)
(-997.726 676.444 0)
(-985.57 707.494 0)
(-962.224 725.498 0)
(-927.049 740.725 0)
(-915.162 754.22 0)
(-896.084 766.22 0)
(-817.45 776.174 0)
(-620.378 778.781 0)
(-272.419 744.58 0)
(33503.7 706.27 0)
(-36883.3 10669 0)
(47433.1 10950.3 0)
(-42269.5 856.377 0)
(610.643 915.166 0)
(840.272 986.97 0)
(882.56 1018.84 0)
(867.334 1026.39 0)
(806.376 1033.65 0)
(772.232 1025.4 0)
(757.349 1021.4 0)
(786.08 987.158 0)
(773.108 938.92 0)
(717.808 878.264 0)
(600.108 808.118 0)
(446.469 757.899 0)
(329.045 714.395 0)
(222.075 682.121 0)
(137.237 659.957 0)
(78.6356 645.087 0)
(27.0031 635.937 0)
(-15.6972 632.529 0)
(-37.9464 629.503 0)
(-77.868 626.927 0)
(-132.614 629.667 0)
(-196.049 636.194 0)
(-290.727 647.867 0)
(-396.962 668.734 0)
(-553.817 686.806 0)
(-705.778 729.252 0)
(-865.765 764.284 0)
(-964.291 799.236 0)
(-960.324 823.087 0)
(-943.483 834.594 0)
(-910.313 844.72 0)
(-900.193 856.281 0)
(-885.213 869.199 0)
(-806.107 880.032 0)
(-619.553 893.037 0)
(-284.817 890.148 0)
(38966 885.508 0)
(-43323.2 12293.3 0)
(53108 10923.3 0)
(-46941.1 888.21 0)
(666.735 947.574 0)
(884.967 1009.64 0)
(902.595 1046.27 0)
(877.287 1050.62 0)
(811.415 1079.92 0)
(771.015 1084.21 0)
(741.684 1086.99 0)
(752.833 1066.72 0)
(729.166 1033.97 0)
(654.701 995.299 0)
(547.239 934.455 0)
(413.936 897.45 0)
(300.262 863.837 0)
(201.736 840.477 0)
(125.544 826.662 0)
(74.378 820.118 0)
(28.2955 818.807 0)
(-15.2624 820.268 0)