/*--------------------------------*- C++ -*----------------------------------*\
| =========                 |                                                 |
| \\      /  F ield         | OpenFOAM: The Open Source CFD Toolbox           |
|  \\    /   O peration     | Version:  v1912                                 |
|   \\  /    A nd           | Website:  www.openfoam.com                      |
|    \\/     M anipulation  |                                                 |
\*---------------------------------------------------------------------------*/
FoamFile
{
    version     2.0;
    format      ascii;
    class       volVectorField;
    location    "4.4";
    object      grad(T);
}
// * * * * * * * * * * * * * * * * * * * * * * * * * * * * * * * * * * * * * //

dimensions      [0 -1 0 1 0 0 0];


internalField   nonuniform List<vector> 
1900
(
(0.756198 5.18565e-07 0)
(-0.834096 2.24858e-05 0)
(0.204293 8.69296e-06 0)
(0.0956714 7.52182e-06 0)
(-0.00613359 5.18583e-05 0)
(-0.0385843 0.000118701 0)
(-0.0482081 0.000337394 0)
(-0.0439539 0.000477083 0)
(-0.0474773 -0.00162924 0)
(-0.060736 -0.00318042 0)
(0.756221 1.21302e-06 0)
(-0.834087 3.8951e-05 0)
(0.204278 1.95815e-05 0)
(0.0957146 3.44183e-07 0)
(-0.00602241 3.35289e-05 0)
(-0.0382988 1.89027e-05 0)
(-0.0478497 6.45961e-05 0)
(-0.0459205 -0.000137587 0)
(-0.0511348 -0.00291059 0)
(-0.0771517 -0.00442889 0)
(0.756239 -2.68882e-13 0)
(-0.834077 -1.47451e-13 0)
(0.204254 1.95156e-14 0)
(0.0956854 -2.9924e-13 0)
(-0.00611503 -4.29344e-13 0)
(-0.0385533 -2.05998e-13 0)
(-0.0483645 -1.71304e-13 0)
(-0.0469291 9.75782e-14 0)
(-0.0517686 9.97466e-14 0)
(-0.0778548 -4.11997e-14 0)
(0.756221 -1.21302e-06 0)
(-0.834087 -3.8951e-05 0)
(0.204278 -1.95815e-05 0)
(0.0957146 -3.44184e-07 0)
(-0.00602241 -3.35289e-05 0)
(-0.0382988 -1.89027e-05 0)
(-0.0478497 -6.45961e-05 0)
(-0.0459205 0.000137587 0)
(-0.0511348 0.00291059 0)
(-0.0771517 0.00442889 0)
(0.756198 -5.18565e-07 0)
(-0.834096 -2.24858e-05 0)
(0.204293 -8.69296e-06 0)
(0.0956714 -7.52182e-06 0)
(-0.00613359 -5.18583e-05 0)
(-0.0385843 -0.000118701 0)
(-0.0482081 -0.000337394 0)
(-0.0439539 -0.000477083 0)
(-0.0474773 0.00162924 0)
(-0.060736 0.00318042 0)
(-0.112252 -0.0162422 9.79363e-16)
(-0.215404 -0.0271625 -1.16867e-15)
(-0.30256 -0.0341902 -1.45481e-15)
(-0.310007 -0.0418081 0)
(-0.462952 -0.188338 -5.99846e-15)
(-0.136629 -0.0182322 9.76428e-16)
(-0.225174 -0.0286102 1.16867e-15)
(-0.298779 -0.0366233 1.45481e-15)
(-0.356459 -0.042822 0)
(-0.459797 -0.166922 0)
(-0.14249 -1.17848e-13 0)
(-0.235101 -8.08396e-14 0)
(-0.311241 2.10817e-13 0)
(-0.361674 2.4641e-13 0)
(-0.533609 2.45236e-13 0)
(-0.136629 0.0182322 9.76428e-16)
(-0.225174 0.0286102 1.16867e-15)
(-0.298779 0.0366233 1.45481e-15)
(-0.356459 0.042822 0)
(-0.459797 0.166922 0)
(-0.112252 0.0162422 -2.93222e-15)
(-0.215404 0.0271625 -1.16867e-15)
(-0.30256 0.0341902 -1.45481e-15)
(-0.310007 0.0418081 -3.88832e-15)
(-0.462952 0.188338 5.99846e-15)
(-0.70641 0.0998053 2.34405e-15)
(-0.477762 0.0505468 -1.875e-15)
(-0.409148 0.0268076 0)
(-0.309606 0.0281393 1.30193e-15)
(-0.248504 -0.00690854 -5.64025e-16)
(-0.628732 0.0887099 -1.17353e-15)
(-0.493283 0.0384057 9.38259e-16)
(-0.41278 0.0274146 0)
(-0.322218 0.0207974 -8.14394e-16)
(-0.299613 -0.0474502 1.40597e-16)
(-0.646452 3.2307e-13 0)
(-0.493778 3.24334e-14 0)
(-0.414116 -5.62179e-14 0)
(-0.342022 -5.31472e-14 3.26008e-16)
(-0.32572 -4.85038e-13 -2.81194e-16)
(-0.628732 -0.0887099 -1.17353e-15)
(-0.493283 -0.0384057 9.38259e-16)
(-0.41278 -0.0274146 0)
(-0.322218 -0.0207974 -8.14394e-16)
(-0.299613 0.0474502 1.40597e-16)
(-0.70641 -0.0998053 1.17353e-15)
(-0.477762 -0.0505468 -1.52231e-18)
(-0.409148 -0.0268076 0)
(-0.309606 -0.0281393 8.47464e-19)
(-0.248504 0.00690854 5.64025e-16)
(-0.39873 0.444309 0)
(-0.126427 0.320965 0)
(0.273576 0.14219 0)
(0.0844418 0.12439 0)
(-0.0921362 0.0685305 0)
(-0.0990059 0.0266356 0)
(-0.0999498 0.0146773 0)
(-0.105172 0.00949412 0)
(-0.0960283 0.00593723 0)
(-0.0719523 0.00241644 0)
(-0.0429741 0.000885447 0)
(-0.0283016 0.000659373 0)
(-0.022018 0.000673887 0)
(-0.0183515 0.000584198 0)
(-0.0152598 0.000467273 0)
(-0.0125356 0.000375836 0)
(-0.0102729 0.000316383 0)
(-0.00841394 0.000279885 0)
(-0.00696007 0.000255775 0)
(-0.00574538 0.00023877 0)
(-0.00462845 0.000223452 0)
(-0.00379244 0.000210517 0)
(-0.00307782 0.000202448 0)
(-0.00236672 0.000198014 0)
(-0.00171375 0.000197967 0)
(-0.00109483 0.000201984 0)
(-0.000554171 0.000211099 0)
(-0.000190824 0.000217251 0)
(5.99708e-05 0.00022946 0)
(0.000115482 0.000196399 0)
(0.00089361 0.000197664 0)
(0.00201798 0.000183528 0)
(0.00446036 0.000212635 0)
(0.00612619 0.000489508 0)
(0.00757223 0.000512085 0)
(0.0087701 0.000886967 0)
(0.00317105 0.000952002 0)
(-0.138449 0.00153705 0)
(-0.504384 0.00589262 0)
(-0.366771 -0.0211134 0)
(-0.378481 -0.178774 0)
(-0.0869205 0.22976 0)
(0.262623 0.164358 0)
(0.0851258 0.112658 0)
(-0.103042 0.0523069 0)
(-0.106348 0.0143093 0)
(-0.101946 0.00727681 0)
(-0.106373 0.00425921 0)
(-0.0967689 0.00139252 0)
(-0.0721447 0.000652981 0)
(-0.0430967 0.000264322 0)
(-0.0283099 0.00016607 0)
(-0.0220132 0.000192398 0)
(-0.0183621 0.000171475 0)
(-0.0152728 0.000134843 0)
(-0.0125446 0.000107254 0)
(-0.0102781 9.14695e-05 0)
(-0.00841673 8.36686e-05 0)
(-0.00696177 7.94298e-05 0)
(-0.00574688 7.64938e-05 0)
(-0.00463017 7.2968e-05 0)
(-0.00379422 6.89299e-05 0)
(-0.00307962 6.48587e-05 0)
(-0.0023686 6.031e-05 0)
(-0.00171561 5.58099e-05 0)
(-0.00109638 5.19804e-05 0)
(-0.000555937 5.03733e-05 0)
(-0.000192035 4.92156e-05 0)
(5.41465e-05 5.5183e-05 0)
(0.000108478 4.16111e-05 0)
(0.000888846 5.44957e-05 0)
(0.00201818 7.1544e-05 0)
(0.00450415 0.00015814 0)
(0.00617275 0.000470776 0)
(0.00762123 0.000720037 0)
(0.00884505 0.00126134 0)
(0.00329775 0.00202802 0)
(-0.137131 0.00314733 0)
(-0.502338 0.0107298 0)
(-0.36595 0.0313105 0)
(-0.327226 -8.31879e-13 0)
(-0.0266073 -3.01605e-13 0)
(0.23951 8.83132e-13 0)
(0.0518452 3.20727e-12 0)
(-0.120747 1.12363e-13 0)
(-0.112106 -4.53394e-14 0)
(-0.102873 -3.35117e-14 0)
(-0.106884 -2.56266e-12 0)
(-0.0970774 -2.11518e-12 0)
(-0.0722805 -2.85638e-12 0)
(-0.0431158 -3.5483e-13 0)
(-0.0283226 -1.37989e-14 0)
(-0.0220165 -5.4013e-13 0)
(-0.0183682 -5.12532e-13 0)
(-0.0152785 -4.21853e-13 0)
(-0.0125482 3.27232e-13 0)
(-0.0102798 7.92453e-13 0)
(-0.00841744 6.18981e-13 0)
(-0.00696216 -2.91749e-13 0)
(-0.00574726 -9.46213e-13 0)
(-0.00463065 -1.04478e-13 0)
(-0.0037948 2.3813e-12 0)
(-0.00308032 4.27373e-12 0)
(-0.00236935 6.22529e-12 0)
(-0.00171618 8.81752e-12 0)
(-0.00109641 1.16798e-11 0)
(-0.000554976 1.34914e-11 0)
(-0.000189424 1.36669e-11 0)
(5.77586e-05 1.17429e-11 0)
(0.000115282 8.18671e-12 0)
(0.000902317 4.25796e-12 0)
(0.00204813 -6.58209e-12 0)
(0.0045765 2.37145e-12 0)
(0.00628965 -2.18812e-13 0)
(0.00780221 6.77922e-12 0)
(0.00915061 1.63202e-11 0)
(0.0037197 1.40808e-11 0)
(-0.135917 2.50549e-11 0)
(-0.496191 4.75472e-12 0)
(-0.360784 3.88243e-11 0)
(-0.378481 0.178774 0)
(-0.0869205 -0.22976 0)
(0.262623 -0.164358 0)
(0.0851258 -0.112658 0)
(-0.103042 -0.0523069 0)
(-0.106348 -0.0143093 0)
(-0.101946 -0.00727681 0)
(-0.106373 -0.00425921 0)
(-0.0967689 -0.00139252 0)
(-0.0721447 -0.000652981 0)
(-0.0430967 -0.000264322 0)
(-0.0283099 -0.00016607 0)
(-0.0220132 -0.000192398 0)
(-0.0183621 -0.000171475 0)
(-0.0152728 -0.000134843 0)
(-0.0125446 -0.000107254 0)
(-0.0102781 -9.14695e-05 0)
(-0.00841673 -8.36686e-05 0)
(-0.00696177 -7.94298e-05 0)
(-0.00574688 -7.64938e-05 0)
(-0.00463017 -7.2968e-05 0)
(-0.00379422 -6.89299e-05 0)
(-0.00307962 -6.48587e-05 0)
(-0.0023686 -6.031e-05 0)
(-0.00171561 -5.58099e-05 0)
(-0.00109638 -5.19804e-05 0)
(-0.000555937 -5.03733e-05 0)
(-0.000192035 -4.92156e-05 0)
(5.41465e-05 -5.5183e-05 0)
(0.000108478 -4.16111e-05 0)
(0.000888846 -5.44957e-05 0)
(0.00201818 -7.1544e-05 0)
(0.00450415 -0.00015814 0)
(0.00617275 -0.000470776 0)
(0.00762123 -0.000720037 0)
(0.00884505 -0.00126134 0)
(0.00329775 -0.00202802 0)
(-0.137131 -0.00314733 0)
(-0.502338 -0.0107298 0)
(-0.36595 -0.0313105 0)
(-0.39873 -0.444309 0)
(-0.126427 -0.320965 0)
(0.273576 -0.14219 0)
(0.0844418 -0.12439 0)
(-0.0921362 -0.0685305 0)
(-0.0990059 -0.0266356 0)
(-0.0999498 -0.0146773 0)
(-0.105172 -0.00949412 0)
(-0.0960283 -0.00593723 0)
(-0.0719523 -0.00241644 0)
(-0.0429741 -0.000885447 0)
(-0.0283016 -0.000659373 0)
(-0.022018 -0.000673887 0)
(-0.0183515 -0.000584198 0)
(-0.0152598 -0.000467273 0)
(-0.0125356 -0.000375836 0)
(-0.0102729 -0.000316383 0)
(-0.00841394 -0.000279885 0)
(-0.00696007 -0.000255775 0)
(-0.00574538 -0.00023877 0)
(-0.00462845 -0.000223452 0)
(-0.00379244 -0.000210517 0)
(-0.00307782 -0.000202448 0)
(-0.00236672 -0.000198014 0)
(-0.00171375 -0.000197967 0)
(-0.00109483 -0.000201984 0)
(-0.000554171 -0.000211099 0)
(-0.000190824 -0.000217251 0)
(5.99708e-05 -0.000229461 0)
(0.000115482 -0.000196399 0)
(0.000893609 -0.000197664 0)
(0.00201798 -0.000183529 0)
(0.00446036 -0.000212635 0)
(0.00612619 -0.000489508 0)
(0.00757223 -0.000512085 0)
(0.0087701 -0.000886967 0)
(0.00317105 -0.000952002 0)
(-0.138449 -0.00153705 0)
(-0.504384 -0.00589262 0)
(-0.366771 0.0211134 0)
(-0.0784143 -0.972947 0)
(0.14827 -0.295211 0)
(0.373264 -0.137316 0)
(0.132121 -0.149983 0)
(-0.0543341 -0.0864271 0)
(-0.0810567 -0.0437817 0)
(-0.0935013 -0.0272737 0)
(-0.102279 -0.0182164 0)
(-0.0931857 -0.0137072 0)
(-0.0691983 -0.0049981 0)
(-0.0421362 -0.00206777 0)
(-0.0281866 -0.00142659 0)
(-0.0219605 -0.00131737 0)
(-0.0182449 -0.00110703 0)
(-0.015157 -0.000874351 0)
(-0.0124605 -0.000694593 0)
(-0.0102239 -0.00057718 0)
(-0.00838195 -0.000503101 0)
(-0.00693795 -0.000451801 0)
(-0.00572834 -0.000413974 0)
(-0.00461443 -0.000380598 0)
(-0.0037831 -0.000353631 0)
(-0.00307387 -0.000337543 0)
(-0.00236797 -0.000330138 0)
(-0.00172025 -0.000333329 0)
(-0.00110641 -0.00034612 0)
(-0.000567556 -0.000368713 0)
(-0.000204953 -0.000387633 0)
(6.04922e-05 -0.000409621 0)
(0.000120324 -0.000375463 0)
(0.000891411 -0.000377464 0)
(0.00200901 -0.000366998 0)
(0.00436285 -0.000411629 0)
(0.00603875 -0.00072031 0)
(0.00742857 -0.00078529 0)
(0.00865577 -0.00135043 0)
(0.00303647 -0.0014129 0)
(-0.138705 -0.00177989 0)
(-0.485765 -0.000183034 0)
(-0.348059 0.00827602 0)
(0.269796 -0.529958 0)
(0.531516 -0.0109112 0)
(0.360067 -0.0396649 0)
(0.107913 -0.126126 0)
(-0.0100675 -0.0879915 0)
(-0.0516284 -0.0565813 0)
(-0.0787721 -0.0414845 0)
(-0.0936501 -0.0284706 0)
(-0.0848149 -0.0191395 0)
(-0.0622128 -0.00825562 0)
(-0.0399818 -0.00359917 0)
(-0.0276402 -0.00233051 0)
(-0.021741 -0.00192327 0)
(-0.0179817 -0.00155184 0)
(-0.0149174 -0.00119662 0)
(-0.0122895 -0.000932018 0)
(-0.0101147 -0.000760236 0)
(-0.00831027 -0.000649735 0)
(-0.00688605 -0.000570242 0)
(-0.00568591 -0.000509792 0)
(-0.00457782 -0.000456224 0)
(-0.00375596 -0.000412823 0)
(-0.00305729 -0.000385614 0)
(-0.00236199 -0.00037097 0)
(-0.00172567 -0.000372664 0)
(-0.00112271 -0.000389396 0)
(-0.000586997 -0.000421776 0)
(-0.000222668 -0.000446419 0)
(7.14182e-05 -0.00047448 0)
(0.000143874 -0.000423509 0)
(0.000902946 -0.000419392 0)
(0.00198987 -0.000411765 0)
(0.00417219 -0.000492039 0)
(0.00581301 -0.000928663 0)
(0.00704206 -0.0010987 0)
(0.00822663 -0.00191147 0)
(0.00282936 -0.00221663 0)
(-0.137126 -0.00245316 0)
(-0.504678 0.00408309 0)
(-0.368654 -0.0173774 0)
(0.421758 -0.127046 0)
(0.620734 0.0763938 0)
(0.262239 -0.0383931 0)
(0.0855522 -0.0902535 0)
(0.0126814 -0.0735413 0)
(-0.0362409 -0.0593126 0)
(-0.0664128 -0.0499192 0)
(-0.0807463 -0.0349478 0)
(-0.0737058 -0.0224067 0)
(-0.0542231 -0.0109225 0)
(-0.0364265 -0.0053352 0)
(-0.0265717 -0.00344792 0)
(-0.0212101 -0.00262996 0)
(-0.0175446 -0.0020293 0)
(-0.0145598 -0.00153141 0)
(-0.01204 -0.00117704 0)
(-0.00995186 -0.000944574 0)
(-0.00819886 -0.000788312 0)
(-0.0068031 -0.000671332 0)
(-0.00561846 -0.0005817 0)
(-0.00452099 -0.000503772 0)
(-0.00371506 -0.000442278 0)
(-0.00303354 -0.000405537 0)
(-0.00235549 -0.000387837 0)
(-0.001738 -0.000394954 0)
(-0.00115374 -0.000424672 0)
(-0.000622505 -0.000478203 0)
(-0.00025574 -0.000516094 0)
(8.25687e-05 -0.000561269 0)
(0.000173409 -0.000493739 0)
(0.000902728 -0.000491425 0)
(0.001939 -0.000500354 0)
(0.00386474 -0.000632458 0)
(0.00545415 -0.00121551 0)
(0.0064815 -0.00146673 0)
(0.00757849 -0.00242749 0)
(0.00251447 -0.00286622 0)
(-0.132635 -0.00293832 0)
(-0.500146 0.0035535 0)
(-0.368739 0.00272223 0)
(0.465838 -0.0129812 0)
(0.616945 0.0254342 0)
(0.19948 -0.0381797 0)
(0.0740427 -0.0664403 0)
(0.0197482 -0.0631543 0)
(-0.0288653 -0.0588385 0)
(-0.0552933 -0.0514792 0)
(-0.0671381 -0.036961 0)
(-0.0616633 -0.0233619 0)
(-0.0457621 -0.0120415 0)
(-0.032779 -0.0066555 0)
(-0.0250333 -0.00439233 0)
(-0.0203739 -0.00321384 0)
(-0.0169231 -0.00238466 0)
(-0.0140962 -0.00176157 0)
(-0.011724 -0.00133358 0)
(-0.00974011 -0.0010474 0)
(-0.00804697 -0.000844869 0)
(-0.00668695 -0.000687362 0)
(-0.00552444 -0.00056605 0)
(-0.00444347 -0.000462409 0)
(-0.0036613 -0.000382841 0)
(-0.00300483 -0.000338159 0)
(-0.00235179 -0.000320374 0)
(-0.00176117 -0.000337328 0)
(-0.00120293 -0.000384082 0)
(-0.000675095 -0.00046266 0)
(-0.000302713 -0.000513322 0)
(9.29603e-05 -0.000578377 0)
(0.000211178 -0.000502073 0)
(0.000896571 -0.000507016 0)
(0.00185397 -0.000548271 0)
(0.00348303 -0.000751847 0)
(0.00500908 -0.00144418 0)
(0.00587415 -0.00179816 0)
(0.00687803 -0.00278305 0)
(0.0023371 -0.00338574 0)
(-0.13094 -0.00316824 0)
(-0.499224 0.00103057 0)
(-0.369455 -0.000130603 0)
(0.458776 0.0120216 0)
(0.596452 -0.0154349 0)
(0.173706 -0.0345234 0)
(0.0614858 -0.0542419 0)
(0.0200067 -0.0565155 0)
(-0.0249904 -0.0558276 0)
(-0.0453309 -0.0479171 0)
(-0.0536515 -0.0355459 0)
(-0.0496923 -0.0218498 0)
(-0.0381241 -0.0122678 0)
(-0.0290555 -0.00731229 0)
(-0.0232552 -0.0049632 0)
(-0.0192755 -0.00356042 0)
(-0.0161452 -0.00258086 0)
(-0.0135469 -0.00188363 0)
(-0.0113518 -0.00140817 0)
(-0.00948092 -0.00107806 0)
(-0.00785192 -0.000830868 0)
(-0.00653442 -0.000631732 0)
(-0.00540169 -0.000477552 0)
(-0.00434444 -0.000347483 0)
(-0.00359533 -0.000249348 0)
(-0.00297335 -0.000196123 0)
(-0.00235469 -0.000178657 0)
(-0.0017994 -0.000205055 0)
(-0.00127451 -0.00026539 0)
(-0.000747045 -0.000362385 0)
(-0.000367249 -0.000403894 0)
(9.34085e-05 -0.000463834 0)
(0.000242174 -0.000345249 0)
(0.00085821 -0.000320749 0)
(0.00170308 -0.000357026 0)
(0.00300141 -0.000563394 0)
(0.00444588 -0.00127336 0)
(0.00519132 -0.00162987 0)
(0.00604863 -0.00245593 0)
(0.00214329 -0.00300956 0)
(-0.128379 -0.00261381 0)
(-0.497219 0.000415707 0)
(-0.369858 -0.000940696 0)
(0.43938 0.0310581 0)
(0.572093 -0.0243125 0)
(0.162084 -0.0331784 0)
(0.0528503 -0.0457953 0)
(0.0182202 -0.0522839 0)
(-0.0205796 -0.0510347 0)
(-0.0357492 -0.0424825 0)
(-0.0420187 -0.0318456 0)
(-0.0392316 -0.0199709 0)
(-0.0317532 -0.0119813 0)
(-0.02574 -0.00768774 0)
(-0.0214179 -0.00530147 0)
(-0.0180782 -0.00376813 0)
(-0.0153073 -0.00270472 0)
(-0.0129661 -0.00196906 0)
(-0.0109477 -0.00145838 0)
(-0.0091838 -0.0010866 0)
(-0.00761687 -0.000794047 0)
(-0.00634648 -0.000552111 0)
(-0.00525053 -0.000364552 0)
(-0.00422357 -0.000208566 0)
(-0.00351544 -9.28229e-05 0)
(-0.00293671 -3.36079e-05 0)
(-0.0023604 -1.83548e-05 0)
(-0.00184475 -5.47602e-05 0)
(-0.00135454 -0.000127465 0)
(-0.000808563 -0.000242652 0)
(-0.000400473 -0.000272953 0)
(0.000149473 -0.000334743 0)
(0.00034906 -0.000203171 0)
(0.000885222 -0.000184961 0)
(0.00162014 -0.000253455 0)
(0.00260003 -0.000487293 0)
(0.00398139 -0.00123243 0)
(0.00473459 -0.00165592 0)
(0.00554851 -0.00231512 0)
(0.00218497 -0.00276754 0)
(-0.127639 -0.00196961 0)
(-0.497611 0.00300414 0)
(-0.370762 0.00110333 0)
(0.405419 0.00384319 0)
(0.534551 -0.0226486 0)
(0.153004 -0.0305117 0)
(0.043075 -0.0410034 0)
(0.0149579 -0.0488922 0)
(-0.0155454 -0.0450107 0)
(-0.0268397 -0.0366616 0)
(-0.0319585 -0.0269555 0)
(-0.0305503 -0.0172836 0)
(-0.0262876 -0.0108748 0)
(-0.0226186 -0.00725618 0)
(-0.0194781 -0.00504494 0)
(-0.0167731 -0.00359418 0)
(-0.0144115 -0.00261279 0)
(-0.0123459 -0.00194328 0)
(-0.0105014 -0.00146029 0)
(-0.00884075 -0.00108646 0)
(-0.00733687 -0.000773528 0)
(-0.00612054 -0.00050326 0)
(-0.00507064 -0.000289481 0)
(-0.0040826 -0.000109142 0)
(-0.00342673 2.67623e-05 0)
(-0.00290159 9.96643e-05 0)
(-0.00237508 0.000131212 0)
(-0.00190454 0.000114565 0)
(-0.00145557 7.55374e-05 0)
(-0.000887243 8.57477e-06 0)
(-0.000455992 7.98426e-05 0)
(0.000160653 0.000103192 0)
(0.000386509 0.000304368 0)
(0.000809754 0.000371054 0)
(0.00141174 0.000318682 0)
(0.00205803 8.156e-05 0)
(0.00331975 -0.000681203 0)
(0.004148 -0.00125881 0)
(0.00497743 -0.00184228 0)
(0.00247624 -0.00231084 0)
(-0.122817 -0.00153936 0)
(-0.494258 0.00423328 0)
(-0.37169 0.00401463 0)
(0.413851 -0.0197843 0)
(0.538987 -0.0163815 0)
(0.144397 -0.0284687 0)
(0.0351381 -0.0369732 0)
(0.0143586 -0.0434865 0)
(-0.00879379 -0.0378923 0)
(-0.0183505 -0.0308314 0)
(-0.0233452 -0.0223463 0)
(-0.0237357 -0.0148405 0)
(-0.0220905 -0.00987506 0)
(-0.0201221 -0.00685719 0)
(-0.0178891 -0.00486346 0)
(-0.0157345 -0.0035646 0)
(-0.0137164 -0.00269242 0)
(-0.0118555 -0.00209185 0)
(-0.0101221 -0.00163219 0)
(-0.00852201 -0.00125389 0)
(-0.00705488 -0.00091953 0)
(-0.00588003 -0.000620364 0)
(-0.00487074 -0.000380481 0)
(-0.00391882 -0.000176151 0)
(-0.00331423 -1.96667e-05 0)
(-0.00283606 6.93047e-05 0)
(-0.00234604 0.000118331 0)
(-0.0018984 0.000119786 0)
(-0.00145668 0.000109782 0)
(-0.000804414 8.06803e-05 0)
(-0.000309296 0.000241697 0)
(0.000365834 0.000338548 0)
(0.00060718 0.000589845 0)
(0.000899015 0.00067098 0)
(0.00134118 0.000600455 0)
(0.0016365 0.000315847 0)
(0.00268976 -0.00048901 0)
(0.00361573 -0.00134588 0)
(0.00453473 -0.00191459 0)
(0.00247687 -0.00249585 0)
(-0.121333 -0.00154329 0)
(-0.492259 0.00719465 0)
(-0.370973 0.00686962 0)
(0.408698 -0.00349124 0)
(0.526182 -0.0130365 0)
(0.133161 -0.0254865 0)
(0.0286033 -0.0322742 0)
(0.0140722 -0.0368401 0)
(-0.00335045 -0.0316351 0)
(-0.011859 -0.0259778 0)
(-0.0165491 -0.0187145 0)
(-0.0185326 -0.0129786 0)
(-0.0185946 -0.00891634 0)
(-0.0177893 -0.00625275 0)
(-0.0163052 -0.00439091 0)
(-0.014681 -0.00324154 0)
(-0.0129923 -0.00249149 0)
(-0.0113242 -0.00199886 0)
(-0.00969389 -0.00162001 0)
(-0.008154 -0.0012983 0)
(-0.00672638 -0.000991457 0)
(-0.0056011 -0.000698855 0)
(-0.00464258 -0.000452451 0)
(-0.0037349 -0.00022266 0)
(-0.0031902 -2.10474e-05 0)
(-0.00276861 0.000122175 0)
(-0.00232643 0.000232187 0)
(-0.00191278 0.000296303 0)
(-0.00149325 0.000360395 0)
(-0.000760124 0.000398077 0)
(-0.000207501 0.000631441 0)
(0.000496141 0.000755023 0)
(0.000706853 0.00099666 0)
(0.000819978 0.00103459 0)
(0.00106952 0.000897273 0)
(0.00100818 0.000513108 0)
(0.00171845 -0.000365309 0)
(0.00277426 -0.00156283 0)
(0.00386928 -0.00213039 0)
(0.00283404 -0.00281727 0)
(-0.113479 -0.00196758 0)
(-0.486151 0.00908829 0)
(-0.372003 0.0085858 0)
(0.404653 -0.00573795 0)
(0.517792 -0.013165 0)
(0.125859 -0.0223676 0)
(0.0241973 -0.027974 0)
(0.0149744 -0.0302271 0)
(0.00167355 -0.0265422 0)
(-0.00589977 -0.0214217 0)
(-0.0108188 -0.01592 0)
(-0.0142938 -0.0115871 0)
(-0.0156092 -0.00819973 0)
(-0.0157613 -0.00587654 0)
(-0.0149874 -0.00416232 0)
(-0.0139042 -0.00316738 0)
(-0.0125189 -0.00249041 0)
(-0.0110157 -0.00204459 0)
(-0.00944698 -0.00168138 0)
(-0.00791631 -0.0013573 0)
(-0.00647723 -0.00104804 0)
(-0.00536063 -0.000752351 0)
(-0.00441186 -0.000505373 0)
(-0.00350311 -0.000266514 0)
(-0.00298193 -4.66351e-05 0)
(-0.00259203 0.000115477 0)
(-0.00217824 0.000249326 0)
(-0.00177485 0.000334565 0)
(-0.0013586 0.000435296 0)
(-0.000543224 0.000483015 0)
(3.46708e-05 0.000709606 0)
(0.000717773 0.000790918 0)
(0.00087658 0.000952254 0)
(0.000803242 0.000864509 0)
(0.000838661 0.000624254 0)
(0.00041983 0.00011603 0)
(0.000689305 -0.000843404 0)
(0.00191483 -0.00217178 0)
(0.00332591 -0.00264184 0)
(0.00263377 -0.00313482 0)
(-0.109861 -0.00241019 0)
(-0.48209 0.0106854 0)
(-0.371457 0.00868091 0)
(0.401541 -0.00351657 0)
(0.510157 -0.0120225 0)
(0.118891 -0.0204965 0)
(0.0210296 -0.0246063 0)
(0.015452 -0.0247818 0)
(0.0051347 -0.0228732 0)
(-0.00162313 -0.0182565 0)
(-0.00707215 -0.0143982 0)
(-0.0110931 -0.0109209 0)
(-0.0130916 -0.00787769 0)
(-0.0138987 -0.00572642 0)
(-0.0136946 -0.00399724 0)
(-0.0130699 -0.00299602 0)
(-0.0119104 -0.00219378 0)
(-0.0105446 -0.00159206 0)
(-0.00903159 -0.0010508 0)
(-0.00754369 -0.000588055 0)
(-0.00614343 -0.000188844 0)
(-0.00507816 0.00016218 0)
(-0.00417441 0.000433171 0)
(-0.00329284 0.000679914 0)
(-0.0028221 0.00089162 0)
(-0.00248341 0.00102311 0)
(-0.00211531 0.0011082 0)
(-0.00173357 0.00111352 0)
(-0.0013502 0.00111498 0)
(-0.000495789 0.00100142 0)
(8.92061e-05 0.00104825 0)
(0.000729966 0.000937958 0)
(0.000777767 0.000887369 0)
(0.000503906 0.000531543 0)
(0.000348259 4.18525e-05 0)
(-0.000406106 -0.000842907 0)
(-0.000486171 -0.00223655 0)
(0.00104123 -0.00403792 0)
(0.00294126 -0.00493957 0)
(0.00305726 -0.00550773 0)
(-0.100161 -0.00556349 0)
(-0.475463 0.0074164 0)
(-0.373935 0.00924869 0)
(0.396456 -0.00247769 0)
(0.501429 -0.0120134 0)
(0.113733 -0.0202025 0)
(0.0200678 -0.0226332 0)
(0.0166445 -0.0209829 0)
(0.00796162 -0.0196937 0)
(0.00226708 -0.0157761 0)
(-0.0037499 -0.0127066 0)
(-0.0080104 -0.0099654 0)
(-0.0106036 -0.00696542 0)
(-0.0120219 -0.00493265 0)
(-0.0123562 -0.00320131 0)
(-0.0121663 -0.0022528 0)
(-0.011166 -0.00134578 0)
(-0.00991431 -0.000632973 0)
(-0.00847948 2.54715e-05 0)
(-0.0070857 0.00058877 0)
(-0.00575427 0.00108273 0)
(-0.00476123 0.0015064 0)
(-0.00391296 0.00181096 0)
(-0.00306133 0.00207279 0)
(-0.00265122 0.00228903 0)
(-0.00238332 0.00239621 0)
(-0.00209111 0.00242967 0)
(-0.00176832 0.00235372 0)
(-0.00146663 0.00226212 0)
(-0.000607526 0.00200857 0)
(-2.64867e-05 0.00193223 0)
(0.000562739 0.00168462 0)
(0.000484944 0.00147448 0)
(-1.15276e-05 0.000857302 0)
(-0.00048581 -3.67159e-05 0)
(-0.00177572 -0.00135847 0)
(-0.00238953 -0.00322745 0)
(-0.0006899 -0.00544239 0)
(0.00190955 -0.00676364 0)
(0.00203254 -0.00718567 0)
(-0.0974064 -0.00839685 0)
(-0.467816 0.001367 0)
(-0.369691 0.00758594 0)
(0.392352 -0.000604567 0)
(0.493077 -0.00963889 0)
(0.108657 -0.017841 0)
(0.0202776 -0.0186623 0)
(0.0182846 -0.0192734 0)
(0.0101521 -0.0182688 0)
(0.0051099 -0.0147781 0)
(-0.00147272 -0.0120585 0)
(-0.00556068 -0.00920783 0)
(-0.00824189 -0.00630617 0)
(-0.0102714 -0.00441776 0)
(-0.0111122 -0.00258658 0)
(-0.0112819 -0.00153878 0)
(-0.0103494 -0.000352558 0)
(-0.0092232 0.000614036 0)
(-0.00785428 0.0015639 0)
(-0.00652488 0.00244704 0)
(-0.00525917 0.00325711 0)
(-0.00437641 0.00393975 0)
(-0.00362861 0.00439467 0)
(-0.00283216 0.00468556 0)
(-0.00251045 0.00480685 0)
(-0.00234788 0.00470504 0)
(-0.00215625 0.00447021 0)
(-0.00189502 0.00409443 0)
(-0.0016828 0.00373503 0)
(-0.00081369 0.00317011 0)
(-0.000222965 0.00277465 0)
(0.00028886 0.00218664 0)
(-1.94647e-05 0.0016745 0)
(-0.000952333 0.000764071 0)
(-0.00178694 -0.000469135 0)
(-0.00348081 -0.00209432 0)
(-0.00442159 -0.00427207 0)
(-0.00236637 -0.00686997 0)
(0.00126138 -0.00908918 0)
(0.00148343 -0.0101132 0)
(-0.0919197 -0.0112688 0)
(-0.460062 -0.000866478 0)
(-0.367942 0.00653764 0)
(0.387751 0.000588988 0)
(0.48482 -0.0128992 0)
(0.105037 -0.0186658 0)
(0.0186875 -0.0165564 0)
(0.0170237 -0.0181816 0)
(0.0122935 -0.016358 0)
(0.00825154 -0.0130862 0)
(0.00161778 -0.0109478 0)
(-0.00246721 -0.00778932 0)
(-0.00598773 -0.00503155 0)
(-0.00843758 -0.00299807 0)
(-0.00958196 -0.00120509 0)
(-0.0100135 -0.000241252 0)
(-0.00909149 0.000977936 0)
(-0.00806754 0.00196864 0)
(-0.00671314 0.00302716 0)
(-0.00545407 0.00400104 0)
(-0.00431584 0.00486751 0)
(-0.00366504 0.00559059 0)
(-0.00319427 0.0060691 0)
(-0.00266413 0.00638219 0)
(-0.00263244 0.00652757 0)
(-0.00270773 0.0064215 0)
(-0.00267952 0.00615817 0)
(-0.00247677 0.00572543 0)
(-0.00235735 0.00534145 0)
(-0.00153298 0.00472571 0)
(-0.000974189 0.00422758 0)
(-0.000497411 0.0033863 0)
(-0.000885897 0.00256841 0)
(-0.00207721 0.0013885 0)
(-0.00324026 -0.000275213 0)
(-0.00544037 -0.00220349 0)
(-0.00699152 -0.00480644 0)
(-0.00533184 -0.00759859 0)
(-0.00121578 -0.0103253 0)
(-6.78481e-05 -0.0129511 0)
(-0.0884959 -0.0137634 0)
(-0.450657 -0.00757857 0)
(-0.362556 0.00503743 0)
(0.379355 0.00294856 0)
(0.474523 -0.011072 0)
(0.105133 -0.0173851 0)
(0.0207442 -0.0147921 0)
(0.0184758 -0.0154035 0)
(0.0150623 -0.0111652 0)
(0.0103234 -0.00941155 0)
(0.0036315 -0.0081564 0)
(0.000140461 -0.00452841 0)
(-0.00362486 -0.00291775 0)
(-0.00658413 -0.00168392 0)
(-0.00845561 -0.000325218 0)
(-0.00917823 0.000545702 0)
(-0.00821991 0.00176573 0)
(-0.0072485 0.00279109 0)
(-0.00589578 0.00397423 0)
(-0.00475145 0.00510365 0)
(-0.00372742 0.00613284 0)
(-0.00321852 0.00699503 0)
(-0.00286579 0.00749685 0)
(-0.00239036 0.00773811 0)
(-0.00247258 0.00774564 0)
(-0.00270385 0.00744644 0)
(-0.00282701 0.00700882 0)
(-0.00268204 0.00644122 0)
(-0.00264616 0.00604052 0)
(-0.00188706 0.00550241 0)
(-0.00151367 0.00514684 0)
(-0.00130997 0.00446158 0)
(-0.00194462 0.00383353 0)
(-0.00369255 0.00306418 0)
(-0.00524831 0.001635 0)
(-0.00784727 0.000303617 0)
(-0.00962051 -0.0023153 0)
(-0.00768456 -0.00461771 0)
(-0.00389653 -0.00838909 0)
(-0.00182965 -0.0116245 0)
(-0.0867425 -0.0112852 0)
(-0.441944 -0.0044627 0)
(-0.355785 0.00769577 0)
(0.37424 0.0138046 0)
(0.465225 -0.00209924 0)
(0.101452 -0.0105509 0)
(0.020597 -0.0112803 0)
(0.0205188 -0.00983299 0)
(0.0180676 -0.00354441 0)
(0.0111509 -0.00398797 0)
(0.00632335 -0.00308646 0)
(0.00258094 0.00178179 0)
(-0.00324668 0.000312198 0)
(-0.00593932 0.00121122 0)
(-0.00743341 0.00174011 0)
(-0.0079986 0.001995 0)
(-0.00692775 0.002856 0)
(-0.00593934 0.00374746 0)
(-0.00448468 0.00510023 0)
(-0.00337395 0.00645568 0)
(-0.00249323 0.00768546 0)
(-0.00235063 0.00858358 0)
(-0.00247821 0.00915815 0)
(-0.00242438 0.00951915 0)
(-0.0029135 0.00945332 0)
(-0.00341776 0.00894529 0)
(-0.00364818 0.00826817 0)
(-0.00340985 0.0074231 0)
(-0.00326201 0.0068813 0)
(-0.00239416 0.00628771 0)
(-0.00197717 0.00592537 0)
(-0.00176296 0.00532174 0)
(-0.00223248 0.00478308 0)
(-0.0041958 0.00443372 0)
(-0.00590044 0.00329186 0)
(-0.00924703 0.00272956 0)
(-0.0117339 0.00045248 0)
(-0.0111848 -0.00138554 0)
(-0.00796775 -0.00524555 0)
(-0.00285866 -0.00903744 0)
(-0.0815945 -0.00750026 0)
(-0.432366 0.00265188 0)
(-0.35084 0.0206835 0)
(0.364029 0.0396567 0)
(0.451053 0.00877119 0)
(0.0962858 0.000109825 0)
(0.021436 -0.0038769 0)
(0.0259304 -0.00253917 0)
(0.0206948 0.000117832 0)
(0.0107646 -0.000795935 0)
(0.00919145 0.00184938 0)
(0.00341554 0.00346294 0)
(-0.00417468 0.00164975 0)
(-0.00520814 0.00227729 0)
(-0.00770032 0.00139051 0)
(-0.00810292 0.000787453 0)
(-0.00653118 0.000631622 0)
(-0.00508588 0.000634885 0)
(-0.00328604 0.00126737 0)
(-0.00226022 0.00195903 0)
(-0.0016769 0.00271967 0)
(-0.00179938 0.00337204 0)
(-0.00196425 0.00396654 0)
(-0.00210593 0.00414861 0)
(-0.00302557 0.00386335 0)
(-0.0038459 0.00350213 0)
(-0.00429385 0.00327155 0)
(-0.00401848 0.00301179 0)
(-0.00374026 0.00304384 0)
(-0.00280823 0.00327675 0)
(-0.00244452 0.00319632 0)
(-0.00241073 0.00347497 0)
(-0.00280035 0.00307828 0)
(-0.00512954 0.00360031 0)
(-0.00689049 0.00237141 0)
(-0.0105834 0.0020548 0)
(-0.013586 0.000269972 0)
(-0.0131754 -0.00126756 0)
(-0.0112702 -0.00244277 0)
(-0.00400237 -0.00427031 0)
(-0.0754782 -0.00364136 0)
(-0.414785 0.00917116 0)
(-0.338409 0.0484735 0)
(0.344477 -0.099265 0)
(0.427116 -0.0674643 0)
(0.0892643 -0.0546954 0)
(0.0180444 -0.0648359 0)
(0.0243682 -0.0729434 0)
(0.0197474 -0.0799647 0)
(0.0128195 -0.085515 0)
(0.0104274 -0.0871986 0)
(0.00238857 -0.099116 0)
(-0.00438921 -0.106189 0)
(-0.00618913 -0.113996 0)
(-0.00886908 -0.123216 0)
(-0.00872989 -0.127315 0)
(-0.00707477 -0.132497 0)
(-0.00532672 -0.135391 0)
(-0.00320868 -0.138446 0)
(-0.00197446 -0.140659 0)
(-0.00113161 -0.142032 0)
(-0.0011491 -0.142629 0)
(-0.00172988 -0.138708 0)
(-0.00252382 -0.139008 0)
(-0.00353647 -0.142888 0)
(-0.00398804 -0.142005 0)
(-0.00412069 -0.14072 0)
(-0.00362928 -0.137518 0)
(-0.00300669 -0.135489 0)
(-0.00224724 -0.130199 0)
(-0.00178616 -0.128879 0)
(-0.0018767 -0.121456 0)
(-0.00211169 -0.118768 0)
(-0.00487697 -0.107991 0)
(-0.00738976 -0.105358 0)
(-0.011272 -0.0973567 0)
(-0.0149354 -0.0931197 0)
(-0.0137989 -0.0897253 0)
(-0.0108613 -0.0851546 0)
(-0.00401367 -0.0786373 0)
(-0.0686418 -0.0728144 0)
(-0.382147 -0.0818809 0)
(-0.312967 -0.10474 0)
(0.394673 -0.342678 0)
(0.494002 -0.456065 0)
(0.0988187 -0.388523 0)
(0.00385159 -0.425882 0)
(0.0113517 -0.452879 0)
(0.00858024 -0.473258 0)
(0.00379379 -0.487832 0)
(-0.0039149 -0.500326 0)
(-0.0148841 -0.514197 0)
(-0.0185136 -0.520546 0)
(-0.0216163 -0.525973 0)
(-0.0205353 -0.530105 0)
(-0.0170464 -0.531292 0)
(-0.0143134 -0.532311 0)
(-0.0108182 -0.532415 0)
(-0.00836192 -0.532768 0)
(-0.00571652 -0.532754 0)
(-0.00357531 -0.530983 0)
(0.0014039 -0.53151 0)
(0.00152514 -0.529338 0)
(-0.00613336 -0.528663 0)
(-0.00591409 -0.529724 0)
(-0.0017572 -0.526252 0)
(2.98355e-05 -0.527641 0)
(0.00102269 -0.523445 0)
(0.00331308 -0.523464 0)
(0.00356118 -0.519257 0)
(0.00598065 -0.517519 0)
(0.00733267 -0.512045 0)
(0.010175 -0.509088 0)
(0.00779297 -0.502729 0)
(0.00335674 -0.495876 0)
(0.00120962 -0.487629 0)
(-0.00623211 -0.476389 0)
(-0.00549989 -0.465078 0)
(-0.000585313 -0.45273 0)
(0.00788906 -0.432676 0)
(-0.0786039 -0.399408 0)
(-0.44555 -0.462555 0)
(-0.360436 -0.373883 0)
(0.235214 -0.214783 0)
(0.382939 -0.38026 0)
(0.11835 -0.330037 0)
(-0.0439719 -0.359992 0)
(-0.0212854 -0.379665 0)
(-0.0139338 -0.393861 0)
(-0.0132639 -0.403029 0)
(-0.0149788 -0.411562 0)
(-0.0170958 -0.41451 0)
(-0.0157374 -0.413857 0)
(-0.0154006 -0.411629 0)
(-0.0139943 -0.407407 0)
(-0.0108559 -0.404841 0)
(-0.0081575 -0.400983 0)
(-0.00576712 -0.398453 0)
(-0.00353516 -0.395741 0)
(-0.000254155 -0.393444 0)
(6.70107e-05 -0.390073 0)
(0.000436255 -0.389664 0)
(0.00101406 -0.391077 0)
(-0.00289621 -0.390195 0)
(-0.00121395 -0.387717 0)
(-0.00198116 -0.385317 0)