/*--------------------------------*- C++ -*----------------------------------*\
| =========                 |                                                 |
| \\      /  F ield         | OpenFOAM: The Open Source CFD Toolbox           |
|  \\    /   O peration     | Version:  v1912                                 |
|   \\  /    A nd           | Website:  www.openfoam.com                      |
|    \\/     M anipulation  |                                                 |
\*---------------------------------------------------------------------------*/
FoamFile
{
    version     2.0;
    format      ascii;
    class       volScalarField;
    location    "2.06";
    object      p;
}
// * * * * * * * * * * * * * * * * * * * * * * * * * * * * * * * * * * * * * //

dimensions      [1 -1 -2 0 0 0 0];


internalField   nonuniform List<scalar> 
1900
(
12303.6
10732.1
10727.1
10732.5
10743
10762.3
10795.7
10841.3
10888.3
10958.3
12303.7
10732.1
10727
10732.3
10742.4
10761
10793.1
10833.4
10874.5
10945.7
12303.7
10732.2
10726.9
10732.1
10741.8
10759.9
10793.3
10835.4
10883.5
10942.5
12303.7
10732.1
10727
10732.3
10742.4
10761
10793.1
10833.4
10874.5
10945.7
12303.6
10732.1
10727.1
10732.5
10743
10762.3
10795.7
10841.3
10888.3
10958.3
10907.2
10988
11009.2
10907.5
10015
11002
11081.7
11084.5
11060.8
10660.8
10989.9
11049.5
11036.9
10966.6
10542.5
11002
11081.7
11084.5
11060.8
10660.8
10907.2
10988
11009.2
10907.5
10015
12156.8
12201.6
12463
12515.4
12644.3
11987.7
12170.2
12457.5
12652.8
12537.6
11979.5
12178
12444.9
12558.2
12075
11987.7
12170.2
12457.5
12652.8
12537.6
12156.8
12201.6
12463
12515.4
12644.3
10363
5076.08
5496.59
5734.48
5716.57
5766.02
5917.96
6098.38
6374.22
6708.39
7104.06
7543.72
8015.09
8504.12
8990.94
9438.09
9779.02
9953.44
9996.88
10000.5
10000.5
9996.18
9947.73
9760.41
9402.03
8936.75
8430.86
7919.76
7419.74
6938.86
6481.87
6052.25
5653.76
5291.77
4973.13
4697.95
4456.65
4236.15
3800.75
18149.5
10655.4
5406.55
5687.38
5764.46
5732.98
5773.74
5919.5
6100.49
6375.44
6708.99
7104.31
7543.77
8015.04
8503.98
8990.7
9437.73
9778.74
9953.18
9996.63
10000.3
10000.3
9995.95
9947.5
9760.18
9401.81
8936.55
8430.68
7919.61
7419.61
6938.76
6481.8
6052.19
5653.71
5291.74
4973.11
4697.94
4456.64
4236.15
3800.75
18149.5
10087.4
5849.23
5799.89
5793.76
5740.38
5776.41
5920.08
6101.07
6375.81
6709.09
7104.27
7543.64
8014.9
8503.82
8990.52
9437.55
9778.59
9953.04
9996.51
10000.2
10000.1
9995.83
9947.38
9760.07
9401.71
8936.46
8430.6
7919.54
7419.55
6938.71
6481.76
6052.16
5653.69
5291.72
4973.1
4697.93
4456.64
4236.14
3800.74
18149.5
10655.4
5406.55
5687.38
5764.46
5732.98
5773.74
5919.5
6100.49
6375.44
6708.99
7104.31
7543.77
8015.04
8503.98
8990.7
9437.73
9778.74
9953.18
9996.63
10000.3
10000.3
9995.95
9947.5
9760.18
9401.81
8936.55
8430.68
7919.61
7419.61
6938.76
6481.8
6052.19
5653.71
5291.74
4973.11
4697.94
4456.64
4236.15
3800.75
18149.5
10363
5076.08
5496.59
5734.48
5716.57
5766.02
5917.96
6098.38
6374.22
6708.39
7104.06
7543.72
8015.09
8504.12
8990.94
9438.09
9779.02
9953.44
9996.88
10000.5
10000.5
9996.18
9947.73
9760.41
9402.03
8936.75
8430.86
7919.76
7419.74
6938.86
6481.87
6052.25
5653.76
5291.77
4973.13
4697.95
4456.65
4236.15
3800.75
18149.5
12146.8
4490.95
5261.59
5574
5658.37
5737.98
5896.97
6086.67
6365.23
6702.12
7098.72
7538.79
8010.23
8499.24
8986
9433.17
9774.84
9950.37
9994.67
9998.48
9998.47
9994.16
9945.73
9758.46
9400.19
8935.09
8429.4
7918.53
7418.73
6938.07
6481.27
6051.81
5653.44
5291.55
4972.99
4697.86
4456.59
4236.12
3800.73
18149.5
13720.2
4118.87
4989.72
5312.61
5516.93
5660.09
5836.13
6048.73
6335.32
6679.52
7078.69
7519.66
7990.91
8479.26
8965.24
9411.92
9753.92
9930.47
9975.2
9979.05
9979.04
9974.75
9926.43
9739.64
9382.33
8918.59
8414.51
7905.4
7407.41
6928.51
6473.38
6045.44
5648.42
5287.68
4970.05
4695.68
4454.93
4235
3800.05
18149.2
15500.6
4054.11
4810.48
5137.26
5361.96
5540.4
5732.89
5967.35
6256.18
6604.33
7000.95
7436.9
7901.13
8381.62
8860.07
9300.88
9639.65
9815.53
9860.55
9864.49
9864.48
9860.26
9812.64
9628.45
9276.17
8819.24
8323.05
7822.38
7333.05
6862.78
6416.04
5996.08
5606.49
5252.51
4940.81
4671.58
4434.89
4219.85
3789.49
18139.8
16619
3976.33
4631.19
4930.52
5173.61
5371.44
5559.12
5794.79
6083.49
6424.76
6810.79
7232.56
7680.8
8144.69
8607.16
9034.14
9363.3
9534.93
9579.08
9582.97
9582.97
9578.92
9533.03
9355.01
9014.08
8571.9
8092.12
7608.57
7136.54
6683.42
6253.45
5849.68
5475.51
5135.95
4837.32
4579.85
4353.8
4152.41
3737
18043.2
17035.5
3875.27
4439.35
4710.46
4906.66
5091.1
5285.95
5525.29
5810.75
6143.03
6514.87
6918.77
7346.81
7789.66
8231.7
8640.53
8956.08
9120.56
9162.78
9166.48
9166.48
9162.71
9119.52
8950.7
8625.95
8203.98
7746.03
7284.66
6834.59
6402.9
5993.63
5609.7
5254.32
4932.17
4649.18
4405.77
4194.93
4010.64
3616.56
17654.3
17577.4
3705.57
4197.74
4406.1
4586.55
4766.27
4964.73
5204.19
5485.7
5808.03
6165.02
6550.39
6957.76
7379.08
7799.82
8188.9
8488.55
8643.81
8683.23
8686.63
8686.63
8683.22
8643.39
8485.54
8179.37
7779.97
7345.84
6908.3
6481.48
6072.19
5684.3
5320.61
4984.09
4679.01
4411.07
4181.17
3986.91
3816.24
3441.39
16837.4
16408.5
3458.41
3904.51
4092.54
4263.02
4433.84
4632.22
4869.81
5145.97
5457.68
5799.68
6167.04
6554.52
6954.93
7354.52
7723.34
8005.83
8150.49
8186.5
8189.53
8189.53
8186.52
8150.43
8004.48
7717.84
7341.61
6931.61
6517.96
6114.28
5727.14
5360.29
5016.33
4698.03
4409.07
4155.41
3938.46
3760.21
3597.83
3238.76
15691.4
15326
3217.43
3622.92
3794.93
3949.55
4110.15
4306.92
4541.06
4810.54
5110.9
5438.08
5788.07
6156.57
6536.92
6915.87
7264.34
7528.93
7662.09
7694.32
7696.92
7696.92
7694.35
7662.19
7528.55
7261.67
6908.43
6522.09
6131.75
5750.56
5384.9
5038.34
4713.49
4412.57
4138.94
3899.1
3694.55
3530.45
3372.16
3027.97
14387.8
14022.1
2982.97
3356.47
3511.59
3650.21
3802.42
3996.54
4226.52
4487.83
4776.7
5089.25
5422.74
5773.15
6134.23
6493.02
6821.15
7067.4
7188.59
7216.89
7219.07
7219.07
7216.91
7188.71
7067.48
6820.21
6489.39
6125.91
5757.97
5398.39
5053.26
4726.29
4419.4
4135.5
3876.13
3649.76
3456.99
3303.92
3147.94
2820.1
13071.9
12622.1
2757.13
3098.38
3237.42
3366.17
3513.38
3705.77
3929.62
4183.23
4459.69
4758.49
5075.99
5409.08
5751.45
6090.47
6398.39
6626.18
6735.28
6759.69
6761.45
6761.45
6759.7
6735.38
6626.4
6398.32
6089.15
5747.55
5400.99
5061.91
4736.5
4427.66
4138.65
3869.63
3625.27
3410.82
3229.52
3083.59
2930.15
2621.04
11749.4
11246.7
2539.6
2845.7
2975.25
3101.71
3248.02
3436.19
3655.23
3897.9
4163.94
4448.32
4750.75
5066.9
5391.1
5710.77
5998.81
6208.32
6305.53
6326.22
6327.62
6327.62
6326.22
6305.58
6208.5
5999.05
5710.63
5389.81
5063.44
4743.88
4436.62
4145.92
3871.65
3619.56
3386.76
3185.84
3013.6
2872.64
2721.66
2433.88
10543.7
9837.46
2331.72
2604.4
2733.18
2861.34
3008.41
3192.21
3401.16
3636.71
3888.94
4161.27
4448.35
4748.41
5055
5355.99
5624.72
5816.44
5902.22
5919.48
5920.56
5920.56
5919.48
5902.25
5816.55
5624.99
5356.28
5054.99
4747.54
4445.88
4156.3
3880.44
3623.65
3382.41
3165.58
2974.62
2810.73
2673.4
2524.07
2259.16
9347.16
8597.5
2143.89
2388.65
2520.81
2649.72
2797.22
2971.61
3174.81
3396.14
3639.5
3897.42
4171.02
4455.5
4745.64
5029
5279.41
5454.13
5529.17
5543.33
5544.14
5544.14
5543.33
5529.17
5454.18
5279.59
5029.34
4746.05
4455.78
4170.8
3896.21
3636.78
3391.09
3167.21
2959.55
2781.96
2624.99
2490.77
2344.25
2100.9
8303.27
7422.33
1972.99
2195.08
2333.51
2460.97
2610.84
2776.39
2969.86
3183.19
3413.1
3660.27
3920.46
4191.43
4466.7
4734.15
4967.71
5126.59
5191.71
5203.15
5203.75
5203.75
5203.15
5191.71
5126.6
4967.8
4734.39
4467.12
4192.01
3921.07
3660.73
3413.11
3182.5
2967.95
2772.9
2605.56
2451.49
2321.12
2175.1
1952.19
7275.85
6516.69
1837.22
2040.23
2178.75
2307.3
2453.44
2613.21
2797.59
3000.04
3220.67
3455.73
3703.75
3961.14
4222.63
4475.74
4694.18
4838.74
4895.02
4904.17
4904.6
4904.6
4904.17
4895.02
4838.73
4694.21
4475.85
4222.91
3961.62
3704.45
3456.62
3221.66
3001.03
2798.41
2613.66
2453.38
2305.89
2176.22
2034.34
1830.05
6452.5
5643.43
1710.56
1895.76
2033.2
2161.44
2311.18
2465.27
2647.64
2843.4
3055.82
3281.3
3517.89
3763.15
4011.68
4251.51
4456.23
4587.7
4636.06
4643.27
4643.57
4643.57
4643.27
4636.06
4587.7
4456.23
4251.55
4011.81
3763.44
3518.37
3282.02
3056.76
2844.58
2648.96
2466.74
2312.56
2162.6
2033.96
1895.16
1709.03
5624.15
5045.7
1615.56
1781.7
1911.48
2036.47
2185.65
2338.57
2517.61
2710.19
2918.69
3138.03
3365.69
3598.81
3832.61
4055.94
4244.37
4362.89
4404.69
4410.48
4410.7
4410.7
4410.48
4404.69
4362.89
4244.36
4055.94
3832.65
3598.93
3365.92
3138.43
2919.29
2711.02
2518.65
2339.88
2187.11
2038.09
1913.08
1782.84
1616.13
5040.16
4450.1
1526.05
1670.51
1787.7
1903.39
2049.09
2197.13
2373.65
2562.31
2767.84
2985.29
3212.25
3444.33
3673.87
3887.57
4060.93
4163.72
4197.06
4201.23
4201.37
4201.37
4201.23
4197.06
4163.72
4060.93
3887.56
3673.88
3444.38
3212.36
2985.51
2768.19
2562.82
2374.33
2198
2050.12
1904.57
1788.93
1671.56
1526.78
4450.15
4184.73
1400.2
1531.46
1626.66
1722.57
1849.67
1978.75
2133.94
2301.25
2484.65
2681.77
2890.63
3106.47
3320.78
3517.59
3670.87
3755.5
3780.42
3783.19
3783.27
3783.27
3783.19
3780.42
3755.5
3670.86
3517.58
3320.77
3106.48
2890.67
2681.86
2484.82
2301.51
2134.31
1979.25
1850.3
1723.34
1627.51
1532.3
1400.9
4185.72
29662.2
4256.25
4542.05
5183.68
5807.99
6710.33
7605.76
8714.41
9844.49
11138.2
12438
13844.4
15229.7
16539.7
17590.9
18213.4
18429.8
18463.5
18465.3
18465.3
18465.3
18465.3
18463.5
18429.8
18213.4
17590.9
16539.7
15229.7
13844.4
12437.9
11138.1
9844.35
8714.28
7605.64
6710.27
5807.99
5183.79
4542.3
4256.5
29663.3
29662.2
4256.25
4542.05
5183.68
5807.99
6710.33
7605.76
8714.41
9844.49
11138.2
12438
13844.4
15229.7
16539.7
17590.9
18213.4
18429.8
18463.5
18465.3
18465.3
18465.3
18465.3
18463.5
18429.8
18213.4
17590.9
16539.7
15229.7
13844.4
12437.9
11138.1
9844.35
8714.28
7605.64
6710.27
5807.99
5183.79
4542.3
4256.5
29663.3
4184.73
1400.2
1531.46
1626.66
1722.57
1849.67
1978.75
2133.94
2301.25
2484.65
2681.77
2890.63
3106.47
3320.78
3517.59
3670.87
3755.5
3780.42
3783.19
3783.27
3783.27
3783.19
3780.42
3755.5
3670.86
3517.58
3320.77
3106.48
2890.67
2681.86
2484.82
2301.51
2134.31
1979.25
1850.3
1723.34
1627.51
1532.3
1400.9
4185.72
4450.1
1526.05
1670.51
1787.7
1903.39
2049.09
2197.13
2373.65
2562.31
2767.84
2985.29
3212.25
3444.33
3673.87
3887.57
4060.93
4163.72
4197.06
4201.23
4201.37
4201.37
4201.23
4197.06
4163.72
4060.93
3887.56
3673.88
3444.38
3212.36
2985.51
2768.19
2562.82
2374.33
2198
2050.12
1904.57
1788.93
1671.56
1526.78
4450.15
5045.7
1615.56
1781.7
1911.48
2036.47
2185.65
2338.57
2517.61
2710.19
2918.69
3138.03
3365.69
3598.81
3832.61
4055.94
4244.37
4362.89
4404.69
4410.48
4410.7
4410.7
4410.48
4404.69
4362.89
4244.36
4055.94
3832.65
3598.93
3365.92
3138.43
2919.29
2711.02
2518.65
2339.88
2187.11
2038.09
1913.08
1782.84
1616.13
5040.16
5643.43
1710.56
1895.76
2033.2
2161.44
2311.18
2465.27
2647.64
2843.4
3055.82
3281.3
3517.89
3763.15
4011.68
4251.51
4456.23
4587.7
4636.06
4643.27
4643.57
4643.57
4643.27
4636.06
4587.7
4456.23
4251.55
4011.81
3763.44
3518.37
3282.02
3056.76
2844.58
2648.96
2466.74
2312.56
2162.6
2033.96
1895.16
1709.03
5624.15
6516.69
1837.22
2040.23
2178.75
2307.3
2453.44
2613.21
2797.59
3000.04
3220.67
3455.73
3703.75
3961.14
4222.63
4475.74
4694.18
4838.74
4895.02
4904.17
4904.6
4904.6
4904.17
4895.02
4838.73
4694.21
4475.85
4222.91
3961.62
3704.45
3456.62
3221.66
3001.03
2798.41
2613.66
2453.38
2305.89
2176.22
2034.34
1830.05
6452.5
7422.33
1972.99
2195.08
2333.51
2460.97
2610.84
2776.39
2969.86
3183.19
3413.1
3660.27
3920.46
4191.43
4466.7
4734.15
4967.71
5126.59
5191.71
5203.15
5203.75
5203.75
5203.15
5191.71
5126.6
4967.8
4734.39
4467.12
4192.01
3921.07
3660.73
3413.11
3182.5
2967.95
2772.9
2605.56
2451.49
2321.12
2175.1
1952.19
7275.85
8597.5
2143.89
2388.65
2520.81
2649.72
2797.22
2971.61
3174.81
3396.14
3639.5
3897.42
4171.02
4455.5
4745.64
5029
5279.41
5454.13
5529.17
5543.33
5544.14
5544.14
5543.33
5529.17
5454.18
5279.59
5029.34
4746.05
4455.78
4170.8
3896.21
3636.78
3391.09
3167.21
2959.55
2781.96
2624.99
2490.77
2344.25
2100.9
8303.27
9837.46
2331.72
2604.4
2733.18
2861.34
3008.41
3192.21
3401.16
3636.71
3888.94
4161.27
4448.35
4748.41
5055
5355.99
5624.72
5816.44
5902.22
5919.48
5920.56
5920.56
5919.48
5902.25
5816.55
5624.99
5356.28
5054.99
4747.54
4445.88
4156.3
3880.44
3623.65
3382.41
3165.58
2974.62
2810.73
2673.4
2524.07
2259.16
9347.16
11246.7
2539.6
2845.7
2975.25
3101.71
3248.02
3436.19
3655.23
3897.9
4163.94
4448.32
4750.75
5066.9
5391.1
5710.77
5998.81
6208.32
6305.53
6326.22
6327.62
6327.62
6326.22
6305.58
6208.5
5999.05
5710.63
5389.81
5063.44
4743.88
4436.62
4145.92
3871.65
3619.56
3386.76
3185.84
3013.6
2872.64
2721.66
2433.88
10543.7
12622.1
2757.13
3098.38
3237.42
3366.17
3513.38
3705.77
3929.62
4183.23
4459.69
4758.49
5075.99
5409.08
5751.45
6090.47
6398.39
6626.18
6735.28
6759.69
6761.45
6761.45
6759.7
6735.38
6626.4
6398.32
6089.15
5747.55
5400.99
5061.91
4736.5
4427.66
4138.65
3869.63
3625.27
3410.82
3229.52
3083.59
2930.15
2621.04
11749.4
14022.1
2982.97
3356.47
3511.59
3650.21
3802.42
3996.54
4226.52
4487.83
4776.7
5089.25
5422.74
5773.15
6134.23
6493.02
6821.15
7067.4
7188.59
7216.89
7219.07
7219.07
7216.91
7188.71
7067.48
6820.21
6489.39
6125.91
5757.97
5398.39
5053.26
4726.29
4419.4
4135.5
3876.13
3649.76
3456.99
3303.92
3147.94
2820.1
13071.9
15326
3217.43
3622.92
3794.93
3949.55
4110.15
4306.92
4541.06
4810.54
5110.9
5438.08
5788.07
6156.57
6536.92
6915.87
7264.34
7528.93
7662.09
7694.32
7696.92
7696.92
7694.35
7662.19
7528.55
7261.67
6908.43
6522.09
6131.75
5750.56
5384.9
5038.34
4713.49
4412.57
4138.94
3899.1
3694.55
3530.45
3372.16
3027.97
14387.8
16408.5
3458.41
3904.51
4092.54
4263.02
4433.84
4632.22
4869.81
5145.97
5457.68
5799.68
6167.04
6554.52
6954.93
7354.52
7723.34
8005.83
8150.49
8186.5
8189.53
8189.53
8186.52
8150.43
8004.48
7717.84
7341.61
6931.61
6517.96
6114.28
5727.14
5360.29
5016.33
4698.03
4409.07
4155.41
3938.46
3760.21
3597.83
3238.76
15691.4
17577.4
3705.57
4197.74
4406.1
4586.55
4766.27
4964.73
5204.19
5485.7
5808.03
6165.02
6550.39
6957.76
7379.08
7799.82
8188.9
8488.55
8643.81
8683.23
8686.63
8686.63
8683.22
8643.39
8485.54
8179.37
7779.97
7345.84
6908.3
6481.48
6072.19
5684.3
5320.61
4984.09
4679.01
4411.07
4181.17
3986.91
3816.24
3441.39
16837.4
17035.5
3875.27
4439.35
4710.46
4906.66
5091.1
5285.95
5525.29
5810.75
6143.03
6514.87
6918.77
7346.81
7789.66
8231.7
8640.53
8956.08
9120.56
9162.78
9166.48
9166.48
9162.71
9119.52
8950.7
8625.95
8203.98
7746.03
7284.66
6834.59
6402.9
5993.63
5609.7
5254.32
4932.17
4649.18
4405.77
4194.93
4010.64
3616.56
17654.3
16619
3976.33
4631.19
4930.52
5173.61
5371.44
5559.12
5794.79
6083.49
6424.76
6810.79
7232.56
7680.8
8144.69
8607.16
9034.14
9363.3
9534.93
9579.08
9582.97
9582.97
9578.92
9533.03
9355.01
9014.08
8571.9
8092.12
7608.57
7136.54
6683.42
6253.45
5849.68
5475.51
5135.95
4837.32
4579.85
4353.8
4152.41
3737
18043.2
15500.6
4054.11
4810.48
5137.26
5361.96
5540.4
5732.89
5967.35
6256.18
6604.33
7000.95
7436.9
7901.13
8381.62
8860.07
9300.88
9639.65
9815.53
9860.55
9864.49
9864.48
9860.26
9812.64
9628.45
9276.17
8819.24
8323.05
7822.38
7333.05
6862.78
6416.04
5996.08
5606.49
5252.51
4940.81
4671.58
4434.89
4219.85
3789.49
18139.8
13720.2
4118.87
4989.72
5312.61
5516.93
5660.09
5836.13
6048.73
6335.32
6679.52
7078.69
7519.66
7990.91
8479.26
8965.24
9411.92
9753.92
9930.47
9975.2
9979.05
9979.04
9974.75
9926.43
9739.64
9382.33
8918.59
8414.51
7905.4
7407.41
6928.51
6473.38
6045.44
5648.42
5287.68
4970.05
4695.68
4454.93
4235
3800.05
18149.2
12146.8
4490.95
5261.59
5574
5658.37
5737.98
5896.97
6086.67
6365.23
6702.12
7098.72
7538.79
8010.23
8499.24
8986
9433.17
9774.84
9950.37
9994.67
9998.48
9998.47
9994.16
9945.73
9758.46
9400.19
8935.09
8429.4
7918.53
7418.73
6938.07
6481.27
6051.81
5653.44
5291.55
4972.99
4697.86
4456.59
4236.12
3800.73
18149.5
)
;

boundaryField
{
    inlet
    {
        type            fixedValue;
        value           uniform 10000;
    }
    outlet
    {
        type            fixedValue;
        value           uniform 1000;
    }
    obstacle
    {
        type            zeroGradient;
    }
    empty
    {
        type            empty;
    }
}


// ************************************************************************* //
