/*--------------------------------*- C++ -*----------------------------------*\
| =========                 |                                                 |
| \\      /  F ield         | OpenFOAM: The Open Source CFD Toolbox           |
|  \\    /   O peration     | Version:  v1912                                 |
|   \\  /    A nd           | Website:  www.openfoam.com                      |
|    \\/     M anipulation  |                                                 |
\*---------------------------------------------------------------------------*/
FoamFile
{
    version     2.0;
    format      ascii;
    class       volScalarField;
    location    "1.6";
    object      s;
}
// * * * * * * * * * * * * * * * * * * * * * * * * * * * * * * * * * * * * * //

dimensions      [0 2 -2 0 0 0 0];


internalField   nonuniform List<scalar> 
10000
(
-2.1754e-32
6.18273e-29
-1.70537e-26
-3.47732e-24
1.61749e-21
-4.41579e-19
2.60375e-16
3.9993e-14
1.43378e-12
2.00052e-11
1.24737e-10
3.35089e-10
2.17766e-10
-3.93085e-10
-8.55735e-11
5.50086e-10
-4.69785e-10
-5.02952e-11
5.42869e-10
-6.57004e-10
3.82606e-10
4.08456e-11
-3.47565e-10
4.09611e-10
-2.66129e-10
5.07112e-11
1.06917e-10
-1.44602e-10
7.70844e-11
3.46781e-11
-1.2595e-10
1.58811e-10
-1.31029e-10
6.64716e-11
2.69921e-12
-5.17077e-11
7.07415e-11
-6.39375e-11
4.30753e-11
-2.03764e-11
3.72135e-12
4.57539e-12
-6.25461e-12
4.57813e-12
-2.28107e-12
7.17256e-13
-5.5806e-14
-7.23948e-14
3.68383e-14
-6.12956e-15
-8.38993e-16
3.99342e-16
2.98291e-14
1.49032e-13
4.17482e-13
7.70371e-13
8.53336e-13
-4.2028e-14
-2.78111e-12
-7.87092e-12
-1.4712e-11
-2.0958e-11
-2.25874e-11
-1.50543e-11
4.66208e-12
3.55988e-11
7.09663e-11
9.84257e-11
1.03298e-10
7.42424e-11
9.80609e-12
-7.69696e-11
-1.59126e-10
-2.03339e-10
-1.83334e-10
-9.45445e-11
3.73797e-11
1.61312e-10
2.21e-10
1.84687e-10
6.86598e-11
-6.35084e-11
-1.34635e-10
-1.06622e-10
-1.46812e-11
5.55557e-11
4.59783e-11
-9.68977e-12
-2.46784e-11
1.23409e-11
-2.15686e-12
1.53033e-13
-3.78872e-15
1.52891e-17
3.09037e-20
-4.21269e-23
-1.98127e-24
-1.65069e-26
-4.03636e-29
-1.26436e-32
-6.69932e-29
1.19159e-25
-4.22132e-23
-2.16503e-21
3.56089e-18
-1.34431e-15
-8.62426e-13
-5.39572e-11
-1.17178e-09
-1.11982e-08
-4.96912e-08
-8.95199e-08
-3.18894e-09
1.09818e-07
-5.85327e-08
-7.82573e-08
1.49126e-07
-9.39996e-08
-3.17793e-08
1.32697e-07
-1.50308e-07
8.96638e-08
1.70143e-09
-7.19756e-08
9.31671e-08
-6.8105e-08
2.02584e-08
2.29169e-08
-4.33307e-08
3.74795e-08
-1.38917e-08
-1.36964e-08
3.33234e-08
-3.90885e-08
3.18322e-08
-1.69953e-08
1.31661e-09
1.00208e-08
-1.4844e-08
1.38785e-08
-9.56093e-09
4.58022e-09
-8.05134e-10
-1.10557e-09
1.47068e-09
-1.03675e-09
4.70021e-10
-1.07705e-10
-1.96268e-11
2.26998e-11
-3.82151e-12
2.34656e-11
8.5204e-11
1.77878e-10
2.21662e-10
5.17042e-11
-5.23915e-10
-1.58742e-09
-2.96783e-09
-4.16876e-09
-4.40409e-09
-2.82882e-09
1.01903e-09
6.81435e-09
1.32841e-08
1.83019e-08
1.93869e-08
1.46451e-08
3.75306e-09
-1.14281e-08
-2.68596e-08
-3.72214e-08
-3.76713e-08
-2.59442e-08
-3.99073e-09
2.17191e-08
4.18558e-08
4.77556e-08
3.5692e-08
9.87116e-09
-1.80601e-08
-3.40689e-08
-2.98478e-08
-9.39559e-09
1.1804e-08
1.75725e-08
5.78465e-09
-7.46541e-09
-5.24298e-09
4.84051e-09
-1.26258e-09
1.37231e-10
-6.01057e-12
7.80156e-14
3.82045e-17
3.83517e-19
4.43917e-21
2.89846e-23
7.47737e-26
4.19149e-29
-2.60278e-26
5.37901e-23
-3.54539e-20
7.98872e-18
-1.30791e-15
3.98438e-12
4.25032e-10
1.40129e-08
1.97887e-07
1.33158e-06
4.20612e-06
4.66298e-06
-3.03869e-06
-4.80429e-06
6.58981e-06
-5.54881e-07
-6.5544e-06
8.49167e-06
-4.37582e-06
-2.29814e-06
7.21312e-06
-8.02742e-06
5.09608e-06
-5.31194e-07
-3.30322e-06
4.94e-06
-4.20526e-06
1.94449e-06
5.89645e-07
-2.33676e-06
2.78696e-06
-2.03442e-06
5.9461e-07
8.84159e-07
-1.88392e-06
2.16714e-06
-1.79158e-06
1.02124e-06
-1.86253e-07
-4.47576e-07
7.52121e-07
-7.42272e-07
5.31351e-07
-2.62606e-07
4.71761e-08
6.66765e-08
-8.88875e-08
6.07596e-08
-2.43972e-08
2.82714e-09
7.57959e-09
9.32498e-09
1.41017e-08
5.49055e-09
-2.55396e-08
-8.25059e-08
-1.53125e-07
-2.0685e-07
-2.05836e-07
-1.18889e-07
6.83476e-08
3.35642e-07
6.16205e-07
8.16556e-07
8.46535e-07
6.39956e-07
1.87217e-07
-4.35262e-07
-1.07482e-06
-1.53906e-06
-1.64469e-06
-1.28282e-06
-4.7865e-07
5.85661e-07
1.59958e-06
2.20881e-06
2.14341e-06
1.34934e-06
6.46426e-08
-1.21854e-06
-1.93391e-06
-1.72312e-06
-6.9227e-07
5.44849e-07
1.17831e-06
7.9484e-07
-1.58916e-07
-6.37446e-07
-1.35685e-07
3.91295e-07
-1.55073e-07
2.51374e-08
-1.78979e-09
4.95601e-11
-3.33593e-13
-6.41381e-16
-3.1744e-18
-1.45151e-20
-3.24858e-23
-1.92867e-26
7.89396e-25
3.16371e-21
-9.49812e-18
4.77426e-15
-7.50892e-12
-1.2673e-09
-6.13637e-08
-1.24363e-06
-1.20967e-05
-5.86038e-05
-0.000130388
-6.99483e-05
0.000133597
3.31125e-05
-0.000169512
0.00012201
4.29982e-05
-0.000175889
0.000186164
-8.48329e-05
-5.38716e-05
0.000152909
-0.000172769
0.00011957
-2.95884e-05
-5.4249e-05
0.000101334
-0.000101905
6.53683e-05
-1.22035e-05
-3.57948e-05
6.31793e-05
-6.45391e-05
4.40733e-05
-1.21222e-05
-1.94062e-05
4.09825e-05
-4.79847e-05
4.12545e-05
-2.55964e-05
7.38933e-06
7.58644e-06
-1.58497e-05
1.69683e-05
-1.29446e-05
6.83009e-06
-1.40403e-06
-1.74984e-06
2.5257e-06
-1.35544e-06
9.80794e-07
2.81105e-07
-7.99766e-07
-1.98229e-06
-3.42282e-06
-4.42311e-06
-4.09652e-06
-1.77266e-06
2.30138e-06
7.26308e-06
1.21177e-05
1.5297e-05
1.50053e-05
1.06263e-05
2.73427e-06
-7.53e-06
-1.79439e-05
-2.53947e-05
-2.72869e-05
-2.22442e-05
-1.03837e-05
6.15457e-06
2.33243e-05
3.61448e-05
4.00563e-05
3.25029e-05
1.43593e-05
-9.49837e-06
-3.10504e-05
-4.16646e-05
-3.58881e-05
-1.5118e-05
1.10914e-05
2.83339e-05
2.56718e-05
5.26395e-06
-1.51354e-05
-1.51924e-05
3.61578e-06
1.09954e-05
-6.95738e-06
1.65415e-06
-1.79696e-07
8.67992e-09
-1.57035e-10
5.86161e-13
1.11613e-15
3.54239e-18
6.07898e-21
2.9394e-24
1.33884e-21
-2.22647e-18
-1.87718e-15
7.38777e-12
1.786e-09
1.23243e-07
3.5117e-06
4.79993e-05
0.000335301
0.00118583
0.00180245
3.22851e-05
-0.00190631
0.000762734
0.00141157
-0.00210295
0.000906599
0.0009537
-0.0021106
0.0019852
-0.00085968
-0.000546671
0.00155844
-0.00183119
0.0013986
-0.000553895
-0.000327838
0.000942038
-0.00113888
0.000934005
-0.000464808
-7.77964e-05
0.000516984
-0.000739959
0.000716485
-0.000489097
0.000151772
0.000183228
-0.000426032
0.000528982
-0.000485741
0.000331588
-0.000132058
-4.81798e-05
0.00016679
-0.00020613
0.000172987
-9.50996e-05
3.38329e-05
2.54346e-05
-4.7712e-05
-7.53657e-07
-5.2568e-05
-5.44023e-05
-3.30573e-05
-8.25596e-06
3.39038e-05
8.85275e-05
0.000128668
0.000140877
0.000129984
8.72786e-05
9.14337e-06
-7.7757e-05
-0.000150821
-0.000202821
-0.000214936
-0.00017109
-7.97549e-05
4.06566e-05
0.000168082
0.000270739
0.000316298
0.000284062
0.000170777
-4.13747e-06
-0.000197447
-0.000349876
-0.000402712
-0.000321199
-0.000118215
0.000134073
0.000319609
0.000330257
0.000142904
-0.000124483
-0.000253584
-0.000109102
0.000143237
0.000122349
-0.000140922
4.90899e-05
-7.81322e-06
5.91298e-07
-1.98177e-08
2.42411e-10
-5.88203e-13
-7.71083e-16
-8.05743e-19
-1.88612e-22
4.26207e-19
-9.39336e-16
-3.83679e-12
-1.26824e-09
-1.23895e-07
-4.93861e-06
-9.37377e-05
-0.000916502
-0.00472815
-0.0122427
-0.011821
0.00644036
0.0108918
-0.0113687
-0.0019779
0.0126894
-0.0120091
0.0026224
0.007748
-0.0129961
0.0114097
-0.00500412
-0.00262415
0.00829434
-0.010337
0.00874895
-0.00472553
-4.13862e-05
0.00400272
-0.00616604
0.00623369
-0.00453214
0.00181485
0.0010439
-0.0033053
0.00444473
-0.00427692
0.00306046
-0.00124553
-0.000735392
0.00235714
-0.0031744
0.0031544
-0.00248181
0.0013043
2.93851e-05
-0.000850366
0.00141625
-0.00147673
0.000669969
-0.000682221
-0.00044987
0.000174521
-0.000240869
0.000462069
0.000649236
0.000647596
0.000792318
0.000633896
0.00024251
-3.99368e-05
-0.000369123
-0.000766535
-0.00088584
-0.000768215
-0.000608076
-0.00027549
0.000228209
0.000673182
0.000977698
0.00111903
0.00100399
0.000605768
-8.40557e-06
-0.000725855
-0.00138183
-0.00177797
-0.0017395
-0.00118172
-0.000179691
0.00098716
0.00186491
0.00197587
0.0010969
-0.000435766
-0.00165582
-0.00147585
0.000174779
0.00151304
0.000408286
-0.00141076
0.000737227
-0.000168637
1.88372e-05
-1.00832e-06
2.35707e-08
-1.97991e-10
3.629e-13
1.44581e-16
-1.74053e-20
2.22926e-16
8.303e-13
4.25308e-10
6.19047e-08
3.53265e-06
9.38363e-05
0.0012753
0.00926871
0.0358679
0.0671574
0.0339832
-0.0494229
-0.0205626
0.0534412
-0.0216111
-0.0272541
0.0485895
-0.0336599
-9.37473e-05
0.0301536
-0.0427669
0.036131
-0.0168457
-0.00556053
0.0230004
-0.0310384
0.0291434
-0.0197191
0.00665883
0.0060711
-0.0153577
0.0194108
-0.0181755
0.0128415
-0.00479036
-0.00380966
0.0102245
-0.0137132
0.0144931
-0.0114397
0.00537989
0.000556857
-0.00610753
0.0111349
-0.0115608
0.0103365
-0.00790564
0.000762158
0.000809691
-0.00648953
0.00629056
-0.00446504
0.00463623
0.0023205
0.000730306
0.00429197
0.00016157
0.000379708
0.000191613
-0.00192141
-0.00155912
-0.00136158
-0.00204252
-0.000816725
0.00042038
0.000282884
0.000826578
0.00159224
0.00119754
0.000473205
-0.000169224
-0.0011452
-0.00220663
-0.00297439
-0.00332755
-0.00309634
-0.0021333
-0.000453436
0.00172751
0.00392802
0.00539509
0.00526698
0.00298205
-0.00109068
-0.00512459
-0.00616614
-0.00219056
0.00448284
0.00622527
-0.00173906
-0.00699684
0.00589928
-0.0019488
0.000312398
-2.48233e-05
9.31264e-07
-1.48051e-08
8.19365e-11
-1.06668e-13
1.13779e-17
-3.8575e-14
-5.32224e-11
-1.3757e-08
-1.2088e-06
-4.65103e-05
-0.000893141
-0.00912926
-0.0506004
-0.147207
-0.191407
-0.0181713
0.140295
-0.0196618
-0.0960838
0.0825342
0.00516426
-0.0742051
0.0823003
-0.0411323
-0.0150455
0.0567234
-0.0705007
0.0580021
-0.0294431
-0.00293759
0.0292974
-0.0441008
0.0460843
-0.0373192
0.0216225
-0.0033784
-0.0125137
0.0234669
-0.0298219
0.028457
-0.0185955
0.00903152
0.000249133
-0.0150126
0.0229536
-0.0214181
0.0236962
-0.014462
0.001618
0.00315301
-0.0222341
0.0205289
-0.0261167
0.0220789
-0.00756788
0.00512973
0.0159203
-0.012747
0.021354
-0.0117537
0.00478029
0.00264405
-0.0100698
0.00533864
-0.00297051
-0.00245419
0.00184712
-0.00273302
0.000204981
0.000687023
-0.00492251
-0.00389952
-0.0025743
-0.0055764
-0.00560023
-0.00344675
-0.00226887
-0.000415481
0.00222979
0.00449339
0.00618819
0.00715478
0.00718221
0.00631422
0.00467608
0.00234111
-0.000698037
-0.00432115
-0.00771676
-0.00881273
-0.00480918
0.00474265
0.0130847
0.00709607
-0.013959
-0.0144979
0.0248331
-0.0124013
0.00285981
-0.000326807
1.81795e-05
-4.57943e-07
4.55988e-09
-1.39737e-11
7.42005e-15
1.30217e-12
1.01059e-09
1.6082e-07
9.55864e-06
0.000270615
0.0040438
0.0327836
0.141833
0.304211
0.242553
-0.080845
-0.129426
0.0706664
0.0444489
-0.0632897
0.00912899
0.0440467
-0.0579784
0.0370138
-0.00319934
-0.0244718
0.0375429
-0.0365321
0.0263671
-0.0126896
-8.48509e-05
0.00975433
-0.0156257
0.0176159
-0.0161422
0.0114327
-0.00714196
0.00418007
0.00657256
-0.0148108
0.00698819
-0.0121462
0.0225273
-0.00501867
0.00497788
-0.00206009
-0.0156931
0.00293796
-0.0225356
0.0115545
-0.0073774
0.00608956
0.0169067
-0.0118199
0.032589
-0.0227667
0.0247537
-0.00797799
-0.0058085
0.0231752
-0.0325597
0.0312674
-0.0223932
0.000451143
0.013748
-0.02675
-0.000713082
-0.0067794
-0.010761
-0.00797562
-0.0155677
-0.00394844
0.00165026
-0.0027831
0.00598412
0.0141468
0.0153022
0.018135
0.0196319
0.0169998
0.0118758
0.00465684
-0.0037465
-0.0113747
-0.0161684
-0.0164939
-0.0120202
-0.00435799
0.00322104
0.0073986
0.00712295
0.00416346
-0.000440714
-0.00968363
-0.0192378
0.00170035
0.0467099
-0.0418962
0.0146661
-0.00242357
0.000193734
-7.16166e-06
1.09684e-07
-5.58446e-10
5.458e-13
-9.5155e-12
-3.24678e-09
-1.98801e-07
-6.68447e-06
-0.000242237
-0.00482086
-0.0418349
-0.15728
-0.2251
-0.0313287
0.0611326
-0.0592214
0.0620005
-0.0130903
-0.0529816
0.0784331
-0.0526118
0.00450577
0.0327792
-0.0433154
0.0294713
-0.00324061
-0.0225299
0.0394767
-0.0448479
0.038709
-0.0245104
0.00900261
0.00610277
-0.0210153
0.0313464
-0.0310852
0.0233973
-0.028489
0.0265559
0.00165475
0.000929843
0.000718412
-0.00935009
-0.00376053
-0.0204388
-0.00385181
0.00245815
-0.00315853
0.0132631
0.00161343
0.0127249
0.0052632
0.00546076
0.00880523
0.000710994
0.00383642
0.003066
-0.00654638
-0.00145379
-0.00833588
-0.0256556
0.0121321
-0.0440744
0.0204701
-0.0320932
-0.027069
0.0356921
-0.010349
-0.00495298
0.0143411
0.0258237
0.0179726
0.0103507
0.0238222
0.0205067
0.00961729
0.00808259
0.00251286
-0.00630234
-0.0136389
-0.02044
-0.0253575
-0.0266004
-0.0227416
-0.0130919
0.000881454
0.014783
0.0215579
0.014585
-0.00598206
-0.0273152
-0.0277336
0.00200272
0.0357742
0.0339102
-0.00129154
-0.0592109
0.0398793
-0.0102092
0.00118443
-6.24921e-05
1.37737e-06
-1.03402e-08
1.53761e-11
-1.69234e-10
-1.01853e-07
-1.0927e-05
-0.000371763
-0.00494194
-0.0273889
-0.0601849
-0.0513283
-0.0949168
-0.147723
0.118332
0.0924813
-0.155108
0.0654079
0.0309784
-0.0568671
0.0258915
0.01852
-0.0466834
0.0509728
-0.0369131
0.0134387
0.0117941
-0.0340013
0.0530701
-0.0658285
0.0659782
-0.0640599
0.0602417
-0.0348998
0.00924382
0.000549547
-0.0268935
0.0549797
-0.0554656
0.0777389
-0.0622319
0.0346552
-0.0669708
0.0179168
-0.00356708
-0.0150847
0.0371815
-0.0178695
0.0471965
-0.0197388
0.0338095
-0.00543206
0.000208902
0.00438357
-0.0180086
-0.00334392
-0.0123107
-0.0239991
0.00526312
-0.039027
0.0183772
-0.0227551
0.0254096
-0.00675425
0.0114813
0.000964385
0.0287996
0.0357031
-0.0380345
0.0223262
0.0238997
-0.0255763
-0.0174733
-0.000360566
-0.0190625
-0.0232448
-0.0134277
-0.0128718
-0.0109048
-0.00702834
-0.00435683
-0.00271669
-0.00271766
-0.0029253
-0.00239471
-0.00043534
0.00308131
0.00615479
0.00553215
0.000582533
-0.000770229
0.0171798
0.0551383
0.0624548
-0.0278504
-0.115062
0.0316584
0.0415116
-0.0228384
0.00417325
-0.000318924
9.90409e-06
-1.0422e-07
2.18087e-10
3.55053e-09
1.37549e-06
0.00010351
0.00260083
0.0264635
0.115624
0.204198
0.107046
0.0227717
0.0587594
-0.00204734
-0.0118872
-0.0505754
0.0801216
-0.0416883
-0.0219375
0.0669977
-0.0818602
0.0768966
-0.0655855
0.0539444
-0.0414141
0.0263329
-0.00988923
-0.0112318
0.0400097
-0.0543171
0.0608127
-0.0821803
0.0720676
-0.0544037
0.0530144
-0.00666212
0.0142976
0.0143138
-0.0818015
0.0314045
-0.0676953
0.0815597
-0.0611398
0.0785816
-0.0159174
0.0233664
0.00883235
-0.0239939
0.0403737
-0.0705016
0.0641035
-0.0712453
0.0533174
-0.0378737
0.0259785
0.00196571
-0.00369361
0.0215383
-0.0180463
0.00866958
0.00886429
-0.0152604
0.0160193
-0.0436758
0.00394107
-0.0156366
-0.0190422
-0.00208108
-0.0695613
0.024131
-0.0298728
-0.034844
0.00739713
-0.00764918
-0.00132606
0.0152283
0.0192316
0.0208581
0.0204864
0.0190157
0.0116936
0.00230726
-0.00399136
-0.00719586
-0.00402677
0.00793719
0.027449
0.0488101
0.0603669
0.0487831
0.0105893
-0.0387385
-0.0782068
-0.100124
-0.0449568
0.170385
-0.0430964
-0.0175484
0.00777576
-0.00094814
4.2436e-05
-6.19128e-07
1.76541e-09
-2.83663e-08
-8.15495e-06
-0.000456857
-0.00846552
-0.0614111
-0.172231
-0.109973
0.190077
0.201249
-0.021778
-0.139664
0.055284
0.0691
-0.117825
0.111993
-0.088544
0.0561262
-0.0129364
-0.0354477
0.078911
-0.105927
0.107253
-0.0856133
0.0541081
-0.0242819
-0.0178298
0.0561667
-0.0509392
0.0535586
-0.0750753
0.0612081
-0.00912538
0.0147503
-0.0296131
-0.0311234
0.0378528
-0.0182141
0.0451204
-0.0296227
0.0397062
-0.0416048
0.00774428
-0.0100349
-0.00297345
0.0202231
-0.00560551
0.0541069
-0.0269533
0.0650371
-0.039204
0.0361432
-0.0405766
0.00833849
-0.0355539
-0.0344931
-0.0242682
-0.0457706
0.00549496
-0.0386228
0.00160378
-0.0248494
0.00683397
-0.0161698
0.0257643
-0.00937795
0.000852153
-0.0269269
0.0384168
-0.0294491
-0.00651671
0.0108805
-0.000306925
0.0144788
0.0225171
0.0179411
0.0226639
0.0233948
0.0104165
0.00395781
0.00149924
-0.000872281
0.00176554
0.00570725
0.00606972
-0.00109328
-0.0203257
-0.0547691
-0.0993135
-0.124223
-0.0724742
0.0713963
0.171398
0.0660325
-0.140588
0.0311059
0.00365451
-0.00143356
0.000105656
-2.2221e-06
8.66326e-09
1.28216e-07
2.78887e-05
0.00115573
0.0151863
0.0714317
0.0999635
-0.0235137
-0.00832158
0.0432747
-0.0958354
0.0343554
-0.0168618
0.0352916
-0.0122712
-0.0495662
0.0981936
-0.100423
0.0609387
-0.0105694
-0.0289406
0.0574795
-0.0643715
0.0493018
-0.0308855
0.0276878
-0.0254923
-0.0142345
0.0130721
0.0178847
0.0330168
-0.0188569
0.000977474
-0.0265654
0.0133893
-0.00849463
0.00248174
-0.00974679
-0.0130493
0.000119599
-0.0157201
0.0330326
0.000859528
0.0348588
0.00974502
0.0218564
0.00327322
-0.0261834
0.00766782
-0.0780633
1.63444e-05
-0.0852675
-0.00909122
-0.0546397
-0.0375558
-0.0138265
-0.0625974
0.0330656
-0.0672304
0.0455828
-0.0526631
0.0279082
-0.0187121
-0.0183012
-0.00791954
0.0172886
-0.0600341
0.0276573
-0.0688099
0.017484
-0.0266602
-0.0271335
0.0106389
0.0110207
0.0145782
0.0210435
0.0357863
0.0199509
-0.00505503
-0.016552
-0.0374924
-0.0536132
-0.0548599
-0.0494919
-0.04054
-0.0321082
-0.0228211
-0.00358871
0.0314531
0.0741904
0.108682
0.122366
0.0599775
-0.139436
-0.0924703
0.0864714
-0.0151358
-8.67576e-06
0.000118973
-4.51804e-06
2.58023e-08
-3.57971e-07
-5.72835e-05
-0.00163877
-0.0129868
-0.0239021
0.0132839
-0.087195
-0.261749
0.0502625
0.038802
-0.118274
0.154576
-0.0749439
-0.049768
0.119835
-0.110465
0.0590634
-0.00162138
-0.0328176
0.0226332
-0.0112719
0.0147307
0.00309659
-0.0188033
0.0149327
0.014562
-0.0226735
0.000472382
-0.0196539
0.0569394
-0.0270302
0.0174795
-0.0433811
0.0232642
-0.0294434
0.00050491
-0.00207376
0.00155444
0.024222
-0.0167954
0.0289347
-0.0241164
0.0209134
-0.0295984
-0.00970491
-0.0190417
-0.0359261
-0.0317457
-0.0470279
-0.046314
-0.0420052
-0.064572
-0.0370599
-0.0822149
-0.0490751
-0.0718747
-0.0789717
-0.0382189
-0.0911627
-0.0182397
-0.0916374
0.0295083
-0.0830995
0.000472048
0.00266258
0.0080009
-0.0033423
0.0274933
-0.0202947
0.0442138
-0.00726022
-0.000225402
0.0257903
0.00366593
0.0279775
0.03769
0.0129519
0.0137199
0.011735
-0.0107204
-0.0104282
0.00770023
0.0386291
0.077749
0.103451
0.102539
0.0767575
0.0428155
0.012034
-0.0331473
-0.099521
-0.108309
-0.0201829
0.00525068
0.076589
-0.0340221
0.00407192
-9.17705e-05
-3.11378e-06
4.11542e-08
5.97443e-07
6.18845e-05
0.000838721
-0.0016903
-0.0325539
-0.0165924
0.119007
-0.0996217
-0.259042
0.163787
0.102261
-0.16238
0.0677527
0.0212127
-0.0475738
0.034564
-0.029075
0.0354638
-0.0213379
0.0419736
-0.0861565
0.0559835
-0.0334862
0.0433221
-0.039749
0.0200712
0.0183086
0.0165309
-0.000264284
-0.0242118
-0.0206953
-0.0177828
0.00918688
-0.0191623
0.0155051
-0.0229181
0.0248309
-0.0255416
0.0244433
0.00461556
0.0183275
0.0307231
-0.00898932
0.0243139
-0.0509556
0.00303488
-0.0826596
-0.0311781
-0.1085
-0.0626263
-0.104306
-0.0788126
-0.0960009
-0.0676476
-0.0857465
-0.0552955
-0.0411885
-0.0738665
-0.0119352
-0.0724787
-0.0162274
0.00115009
-0.0279112
-0.0247032
0.00903914
0.0403582
-0.00561697
0.0284463
0.0366307
0.00281414
0.0357388
0.0207401
-0.00717613
0.0450378
0.0330796
0.0411004
0.0428374
0.0681116
0.054059
0.0237359
0.0076279
-0.0120679
-0.0149276
-0.0097789
-0.0150862
-0.0413852
-0.0938059
-0.141638
-0.131207
-0.0487908
0.0328627
0.0474482
0.0632184
0.0179754
0.00414159
-0.0235536
0.00652702
-0.000476985
7.38777e-06
8.38045e-09
-4.80787e-07
-1.30438e-05
0.000605297
0.00625966
-0.0200364
-0.196713
-0.292877
-0.0662967
0.148494
0.0851209
-0.1351
0.0522688
-0.00405864
0.0152791
-0.0426119
0.0718508
-0.0834679
0.0439352
-0.047159
0.0739751
0.0199218
-0.0586294
0.012981
-0.0225015
0.014772
-0.0119146
-0.0118746
0.0277832
-0.0049971
-0.00619906
0.0103868
-0.0341838
0.0280371
-0.048431
0.0405918
-0.0181071
0.0481504
0.0278249
0.0619848
0.0287412
0.0333585
-0.00613592
-0.0149704
-0.046892
-0.0500743
-0.0573102
-0.0632272
-0.0621334
-0.0662897
-0.0480206
-0.0537382
-0.011577
-0.0343462
0.000922487
-0.00673147
-0.00758362
0.0171386
-0.0240848
-0.0252372
0.00281332
-0.0822864
0.0242645
-0.0419999
-0.0464047
-0.00839076
-0.0202732
0.0203655
-0.0328445
0.0666132
-0.00225828
0.0336944
-0.00890694
0.0532887
-0.0409799
0.0148397
-0.00610332
0.00649515
0.0295824
0.0185291
0.00877574
-0.0130806
-0.0380214
-0.0389763
-0.0326638
-0.00597106
0.0274839
0.0397543
0.0363873
0.0503169
0.10507
0.136335
0.0283746
-0.102935
0.035436
-0.0414202
0.00922709
0.00223285
-0.000507124
1.89715e-05
-9.18593e-08
3.0853e-08
-1.88781e-05
0.000113505
0.0147595
0.119024
0.311529
0.402614
0.197838
-0.2112
0.0635295
0.00100017
-0.0249757
0.036322
-0.0376043
0.0229294
-0.0169767
0.0571048
-0.0330659
-0.0174232
-0.0851578
0.0833333
0.0250241
0.00702806
-0.0272168
0.0320899
-0.0502119
0.0698136
-0.0831206
0.0362452
-0.0500975
0.0122077
0.0261631
-0.0195268
0.0772086
0.00438972
0.0787398
0.0453327
0.0428718
0.0473546
-0.00948424
0.0108256
-0.0507486
-0.018129
-0.0464379
-0.0246908
-0.0459433
-0.0147024
-0.0358628
0.0041683
-0.0168048
0.0336424
0.00397032
0.0524802
-0.00878127
0.066531
-0.0245873
0.0838757
-0.0198089
0.0508109
0.00380963
0.0323989
-0.0400348
0.0578612
-0.052664
-0.0125687
-0.0129365
-0.0457766
0.0240713
-0.0234226
0.0549573
-0.00202695
0.0533026
-0.00178247
0.0693474
-0.0360367
0.0596068
0.0293153
0.0577444
0.0755854
0.107501
0.105833
0.0949597
0.069122
0.0357637
0.0357494
0.0392718
0.030592
0.0034149
-0.0394073
-0.0540562
-0.0289402
-0.0462337
-0.0903957
0.0510553
-0.00652464
0.0112866
-0.00264512
-1.2448e-05
1.29062e-05
-1.49225e-07
-1.67729e-08
-3.42035e-05
-0.0018907
-0.0205338
-0.0692474
-0.137299
-0.192084
0.0621124
0.00825238
-0.0547846
0.137696
-0.168892
0.12419
-0.0600182
0.0426043
-0.0916226
0.0674053
-0.00457734
0.0875051
-0.0296273
-0.0986173
-0.00127434
0.0462303
-0.088995
0.0956742
-0.0592853
0.0529284
0.017937
-0.0239883
0.0594206
-0.0221652
0.0390653
0.0187415
0.0276993
0.0598881
0.049678
0.0520686
0.0497967
-0.0210204
0.0315534
-0.0628044
0.0101266
-0.0440923
-0.00915369
-0.0118507
-0.00351816
0.00850919
0.0200912
0.0171538
0.0451547
0.0220722
0.043998
0.0285941
0.014259
0.0398084
0.0170702
0.046646
0.0584298
0.0273399
0.0903193
0.03389
0.0438128
0.000789396
0.0607891
-0.0413748
0.00981054
-0.0466962
-0.00636385
-0.0120626
-0.0308968
0.00967783
0.0162106
0.0350343
-0.0425023
0.0712675
-0.0789048
0.0237289
-0.0518744
-0.0543341
-0.00119039
0.0209101
0.0188238
-0.0269752
-0.0582673
-0.0660388
-0.0834164
-0.0669287
-0.0289877
-0.0135624
-0.0129944
0.0155791
0.0363666
-0.0173668
0.0598615
-0.00320556
-0.00836486
0.000155534
0.000147294
-1.97102e-06
-6.91905e-08
4.16848e-07
6.54333e-05
0.00143731
0.0100202
0.0565655
0.18973
0.137695
0.0242395
0.172553
-0.159456
0.0289978
-0.0290227
0.0921293
-0.0928115
0.0320575
0.0989206
-0.169363
0.0181326
0.0212298
-0.00237435
0.146298
-0.116111
0.00964397
0.0494308
-0.110297
0.126286
-0.0721239
0.00781628
0.034974
-0.0542774
0.0930728
-0.0182937
0.0822643
0.0876411
0.0590239
0.100747
-0.015937
0.0252518
-0.037858
-0.018837
0.00068567
-0.00552467
0.0184745
0.0432832
0.0139606
0.0695644
-0.00758966
0.0588496
-0.0276445
0.0288304
-0.0404406
0.000377078
-0.0465144
-0.0212543
-0.0411822
-0.0101434
-0.0376558
0.0168671
-0.0347226
0.0360364
0.0107608
0.0217233
0.0138981
0.021495
0.0290802
0.0123516
-0.0202221
-0.00239249
-0.0462837
-0.0299047
-0.0524969
-0.0249413
0.0115564
-0.0337009
0.00455759
0.0376639
-0.0306366
0.0260036
-0.0534393
-0.00154398
0.0608494
0.0997326
0.0822576
0.0992877
0.0958663
0.0582889
0.0496138
0.0534008
0.0521825
0.02053
-0.0226413
0.00418284
0.0267084
0.0019047
-0.0340733
0.00505175
0.00144584
-0.00014164
3.10768e-07
-8.76802e-10
-5.38815e-07
-6.46912e-05
-0.00173268
-0.0173646
-0.04773
0.0946076
0.344473
0.0354837
-0.0891911
-0.0366981
0.0361215
0.0372186
-0.0930981
0.111478
-0.133508
0.0968042
0.0640402
-0.0491354
-0.0257875
-0.0267111
-0.111139
0.126046
-0.0555863
0.042958
0.0733814
-0.0470307
0.0473633
0.0128674
-0.0453062
0.100507
-0.0345925
0.107946
0.0697703
0.0728607
0.0730061
-0.0384132
0.0307446
-0.0412781
0.0327666
0.0223559
0.0511714
0.0551015
0.0377769
0.0325931
0.00965944
-0.00489715
-0.0154219
-0.0306487
-0.0539257
-0.0426545
-0.0669247
-0.0592068
-0.0527716
-0.0756341
-0.045256
-0.0643642
-0.0487621
-0.048145
-0.0364453
-0.0556359
0.0219671
-0.0391916
0.051035
-0.00580083
0.0498189
0.0576268
0.0642592
0.0318093
0.0526419
-0.0015869
0.0400439
-0.0161403
0.00390251
0.0189635
0.0159805
0.0522935
0.00809294
0.0158637
0.0274169
-0.0927035
-0.0259134
0.0284629
-0.00610727
-0.0112952
-0.0261779
-0.0176983
-0.0127926
-0.0616654
-0.0810212
-0.0382455
-0.0133443
-0.00770322
0.052203
-0.0823489
0.0308015
0.00409371
-0.00137518
-2.26297e-05
4.60656e-06
-3.16523e-08
8.58425e-07
9.77526e-05
0.00138639
-0.00767605
-0.126886
-0.31662
-0.099483
0.0288289
-0.215905
-0.00668252
0.0487703
0.136338
-0.187528
0.0434896
0.120226
-0.16784
-0.0426451
0.214583
-0.173305
0.170697
-0.00697399
-0.126815
0.107327
-0.0438384
-0.0457136
0.0783464
-0.101632
0.0541792
0.0258762
0.0337856
0.113346
0.124544
0.087169
0.0884634
-0.0361689
0.0165432
0.000416249
0.00075267
0.0692554
-0.00884032
0.057224
-0.0349432
0.00943765
-0.0384953
-0.0151273
-0.00153656
-0.0146789
0.0217105
0.00877141
0.00715706
0.0503945
-0.0115104
0.0679492
-0.00305492
0.0432248
0.0164393
0.0199548
0.0123282
0.00543001
-0.0340257
-0.0201194
-0.0498554
-0.0506397
-0.0211936
-0.0792145
-0.00720386
-0.0436638
0.0130969
-0.0359617
0.0112009
-0.0341523
0.00560136
-0.0646771
-0.0153563
-0.038052
-0.00254654
-0.0190596
-0.0951625
0.0658694
-0.0602955
-0.08418
0.0073043
0.0104286
-0.0189618
-0.0435257
0.0479174
0.121278
0.0703246
-0.0132446
-0.0107531
0.0480698
0.00645063
-0.0263164
0.0167783
0.0193856
-0.011797
0.000961993
3.34977e-05
-5.60295e-07
-2.10917e-08
-9.96465e-07
-3.5862e-05
0.00148216
0.0214824
0.0170996
-0.242374
-0.378939
0.0198487
0.0673802
0.11962
-0.0645626
-0.166133
0.227793
-0.0507968
-0.146952
0.241204
-0.103441
-0.109828
0.0755429
-0.0794307
0.0089418
0.12718
-0.0719888
0.0281978
0.0829617
-0.111453
0.100893
0.00407262
0.0496058
0.147118
0.0715494
0.116178
0.0090273
-0.0807411
0.0345727
-0.0385515
0.0509625
0.0322421
0.0116197
0.0382162
-0.0248878
0.0238137
-0.00939777
0.0198114
0.0454321
0.0212422
0.0915741
0.0237359
0.104049
0.0392647
0.0779815
0.066456
0.0383594
0.08362
0.0232638
0.0705485
0.0370657
0.0468476
0.0342655
0.0196092
0.00104685
-0.0101561
-0.0299106
-0.0152441
-0.0328476
-0.0494999
-0.00825429
-0.0551044
0.0524806
-0.0291851
0.0366023
0.0295147
0.0219917
0.0731541
0.0485525
0.0262677
0.0721846
-0.00776051
0.013184
0.163782
-0.012186
-0.0215334
0.0640134
0.0235179
-0.0532493
0.00454607
0.054275
0.032264
-0.0197709
-0.0476642
-0.032533
-0.00353525
-0.0161376
0.03284
-0.0311464
0.0072188
0.000224451
-8.93937e-05
2.27028e-06
-1.02685e-08
5.22683e-07
-2.45087e-05
-0.000918802
0.00651746
0.0829798
0.090331
-0.163376
-0.0567529
0.0726237
-0.00114589
0.303028
-0.211651
-0.14135
0.249976
-0.0742602
-0.159686
0.189339
-0.00148646
-0.00963746
0.00848174
0.0382009
-0.160206
0.104297
-0.0387525
-0.032237
0.04731
0.0112549
0.0475948
0.16885
0.043488
0.14268
0.00869321
-0.0620134
0.0957883
-0.0115021
0.100105
-0.0143718
0.0181212
-0.0134983
-0.0424497
0.00238617
-0.0312024
-0.000964407
0.016692
-0.0170625
0.0430383
-0.0296382
0.0345257
-0.0317641
0.00618674
-0.0222903
-0.0320719
-0.00733579
-0.0411798
0.00108121
-0.00896259
-0.00300556
0.0290177
0.0059701
0.0322608
0.0428359
0.00868584
0.046743
-0.00924344
0.0444628
-0.0156949
0.021548
-0.0318348
-0.0579981
0.0281506
-0.131802
0.014379
-0.100345
-0.0421575
0.0253097
-0.0743538
-0.0663018
-0.0608179
-0.113026
-0.0472208
0.0975663
-0.13724
-0.0504065
-0.0187931
-0.0600798
-0.0262087
-0.0267071
-0.0386726
0.00717341
0.0681486
-0.00738778
-0.0581569
0.0306907
-0.0160787
0.020409
-0.00279128
-0.00100151
0.000118499
-8.76799e-07
-2.00851e-08
-2.54722e-07
2.1752e-05
0.000136746
-0.00435871
0.011374
0.152863
0.18566
0.0831233
0.15715
-0.426204
-0.234407
0.333035
0.0456368
-0.245277
0.111106
0.0992394
-0.138478
-0.0697597
0.150016
-0.105405
0.0192188
0.140486
-0.0959499
0.0482466
0.0274297
-0.0349697
0.105148
0.102622
0.060671
0.152946
-0.00830039
-0.028397
0.072528
-0.0123514
0.0473758
-0.0749368
-0.0588842
-0.0158952
-0.103209
0.0445451
-0.0675109
0.0245154
-0.016136
-0.0279852
-0.00466896
-0.0637116
-0.0236239
-0.0749394
-0.0509158
-0.071809
-0.0815778
-0.049365
-0.103693
-0.0173428
-0.103659
-0.0171551
-0.0739039
-0.0583794
-0.0269884
-0.0969921
0.00472564
-0.0655832
0.00211276
-0.01683
-0.00884311
0.0406239
0.0079473
0.0871924
-0.0102951
0.0532763
0.0238567
-0.0449124
0.0735195
-0.0506668
0.0685796
0.0923997
-0.0150193
0.0445364
-0.0363479
-0.0058933
0.104679
0.119781
-0.0329219
0.031407
0.0504889
0.0516834
0.0089676
-0.0297331
0.00610522
0.0732031
0.0220035
-0.0611418
-0.00775332
0.0230163
0.00182494
-0.0132355
0.00318389
-9.98341e-05
-3.97933e-06
3.4398e-08
-7.78621e-08
-2.8425e-05
0.000164006
0.00194694
-0.0366636
-0.0904758
0.0674136
0.0111119
0.200963
0.377444
-0.119975
-0.115319
0.0789763
0.0855038
-0.104906
0.00742866
0.0465857
0.0924266
-0.131046
0.030049
0.0249385
-0.108401
0.0483003
0.00430417
-0.0432473
0.126127
0.0693394
0.0675269
0.205683
0.00503072
0.0327917
0.0403081
-0.00219902
0.0108582
-0.123074
-0.0455959
-0.014366
-0.0640069
0.0409231
-0.0502229
-0.00547246
-0.0181992
-0.0490073
0.000796797
-0.0456514
0.0149013
-0.0118853
0.0239353
0.023962
0.0289315
0.0479651
0.0391673
0.0621844
0.0374795
0.0711978
0.0172359
0.0691944
-0.00460861
0.0474515
-0.014603
-0.00115504
0.00246817
-0.0259711
0.0320725
-0.0409008
0.0408201
-0.00863709
0.0335829
0.0677099
-0.00884519
0.0570205
-0.0311621
-0.021058
0.0201529
-0.053295
0.0506203
-0.00407773
0.00410641
-0.0301098
-0.12836
-0.0102881
-0.0363712
-0.0104019
-0.0935991
0.000225848
-0.00314612
-0.0482554
-0.037756
0.00919298
-0.0401701
-0.0118223
0.0366961
-0.0465767
-0.0201456
0.0126142
-0.00084851
0.00167412
-0.000316364
7.2513e-06
1.74487e-08
1.997e-07
8.98255e-06
0.000104355
0.0107186
0.0326046
-0.158557
-0.267452
-0.182262
-0.514609
-0.0174037
0.242623
0.0610171
-0.24239
0.0269056
0.0780957
0.0549591
-0.154429
0.0296692
0.0687271
-0.0115335
-0.0124961
0.0678912
-0.0250197
-0.0156713
0.102414
0.0229846
0.0589445
0.276032
-0.00616699
0.059599
-0.0646922
-0.0401797
-0.02585
-0.152291
-0.00368504
0.0366033
-0.0109523
0.0596788
-0.00107255
0.0072867