/*--------------------------------*- C++ -*----------------------------------*\
| =========                 |                                                 |
| \\      /  F ield         | OpenFOAM: The Open Source CFD Toolbox           |
|  \\    /   O peration     | Version:  v1912                                 |
|   \\  /    A nd           | Website:  www.openfoam.com                      |
|    \\/     M anipulation  |                                                 |
\*---------------------------------------------------------------------------*/
FoamFile
{
    version     2.0;
    format      ascii;
    class       volVectorField;
    location    "1.08";
    object      grad(T);
}
// * * * * * * * * * * * * * * * * * * * * * * * * * * * * * * * * * * * * * //

dimensions      [0 -1 0 1 0 0 0];


internalField   nonuniform List<vector> 
1900
(
(-4.7976e-07 7.54063e-11 0)
(-3.40773e-07 1.50775e-09 0)
(1.56265e-08 2.08068e-09 0)
(4.40423e-05 8.97899e-10 0)
(0.00148862 -7.97909e-08 0)
(0.0125486 -5.04555e-06 0)
(0.0389234 -2.06301e-05 0)
(0.0567039 0.000312871 0)
(0.0523702 0.003287 0)
(0.0177512 0.00316674 0)
(-4.78177e-07 1.40647e-10 0)
(-3.38767e-07 2.58148e-09 0)
(1.50166e-08 3.50376e-09 0)
(4.39605e-05 4.88653e-09 0)
(0.00148358 7.29729e-07 0)
(0.0125281 2.01562e-05 0)
(0.0392413 0.000160375 0)
(0.0600115 0.000702268 0)
(0.0552241 0.00350926 0)
(0.0315428 0.00177522 0)
(-4.77038e-07 1.51788e-13 0)
(-3.3741e-07 -2.62377e-13 0)
(1.79315e-08 -5.65954e-13 0)
(4.47686e-05 -4.98733e-14 0)
(0.00150877 9.54098e-13 0)
(0.0127083 1.2078e-12 0)
(0.0396055 2.19009e-13 0)
(0.0600528 -3.42608e-13 0)
(0.0534431 -3.33934e-13 0)
(0.0269066 -1.79978e-13 0)
(-4.78177e-07 -1.40428e-10 0)
(-3.38768e-07 -2.58185e-09 0)
(1.50168e-08 -3.50411e-09 0)
(4.39605e-05 -4.88655e-09 0)
(0.00148358 -7.29728e-07 0)
(0.0125281 -2.01562e-05 0)
(0.0392413 -0.000160375 0)
(0.0600115 -0.000702268 0)
(0.0552241 -0.00350926 0)
(0.0315428 -0.00177522 0)
(-4.7976e-07 -7.53412e-11 0)
(-3.40773e-07 -1.50786e-09 0)
(1.56268e-08 -2.08046e-09 0)
(4.40423e-05 -8.9786e-10 0)
(0.00148862 7.9791e-08 0)
(0.0125486 5.04555e-06 0)
(0.0389234 2.06301e-05 0)
(0.0567039 -0.000312871 0)
(0.0523702 -0.003287 0)
(0.0177512 -0.00316674 0)
(0.00114262 0.0154079 9.98007e-16)
(0.0216463 0.0172771 -1.21338e-15)
(0.0131022 0.0138309 -1.53882e-15)
(-0.10227 0.0233382 0)
(-0.00413934 0.168118 -6.50743e-15)
(0.0147334 0.0112957 1.00079e-15)
(0.0130359 0.0116844 1.21338e-15)
(0.00810245 0.00808398 1.53882e-15)
(-0.0425975 0.00961085 0)
(0.00708175 0.147984 0)
(0.0175209 -9.82067e-15 0)
(0.0211036 8.79725e-14 0)
(0.0119139 1.74677e-13 0)
(-0.0356745 2.21769e-13 0)
(0.0831616 3.16226e-13 0)
(0.0147334 -0.0112957 1.00079e-15)
(0.0130359 -0.0116844 1.21338e-15)
(0.00810245 -0.00808398 1.53882e-15)
(-0.0425975 -0.00961085 0)
(0.00708175 -0.147984 0)
(0.00114262 -0.0154079 -2.99959e-15)
(0.0216463 -0.0172771 -1.21338e-15)
(0.0131022 -0.0138309 -1.53882e-15)
(-0.10227 -0.0233382 -4.19499e-15)
(-0.00413934 -0.168118 6.50743e-15)
(0.197807 -0.08097 2.86507e-15)
(-0.0119347 -0.0131654 -2.4152e-15)
(-0.0144043 -0.00832903 0)
(-0.0584814 0.0585151 1.8451e-15)
(-0.467497 0.0676361 -8.19379e-16)
(0.138023 -0.0819506 -1.43132e-15)
(0.00432586 -0.0128104 1.2074e-15)
(0.0124807 -0.011995 0)
(-0.0277852 0.0622549 -1.15476e-15)
(-0.178123 0.064861 2.05842e-16)
(0.150172 4.54489e-13 0)
(0.00414398 1.48267e-13 0)
(0.0144402 1.04405e-13 0)
(-0.031757 1.2401e-13 4.62653e-16)
(-0.193507 -1.04616e-13 -4.11685e-16)
(0.138023 0.0819506 -1.43132e-15)
(0.00432586 0.0128104 1.2074e-15)
(0.0124807 0.011995 0)
(-0.0277852 -0.0622549 -1.15476e-15)
(-0.178123 -0.064861 2.05842e-16)
(0.197807 0.08097 1.43132e-15)
(-0.0119347 0.0131654 3.96498e-19)
(-0.0144043 0.00832903 0)
(-0.0584814 -0.0585151 1.76228e-18)
(-0.467497 -0.0676361 8.19379e-16)
(-0.741915 1.86502 0)
(-0.207196 0.929877 0)
(0.137638 0.304765 0)
(0.0676433 0.0374854 0)
(0.100749 -0.00379941 0)
(0.137698 0.00223693 0)
(0.161796 0.00415681 0)
(0.154788 0.00290371 0)
(0.121252 0.00174417 0)
(0.0674227 0.000763027 0)
(0.021927 0.000153576 0)
(0.003153 8.52203e-06 0)
(0.000135364 8.32752e-08 0)
(1.13941e-06 9.84258e-11 0)
(1.30004e-09 -1.10391e-13 0)
(1.6953e-13 0 0)
(0 0 0)
(1.97128e-15 0 0)
(9.85638e-16 -1.18277e-14 0)
(-2.95692e-15 7.88511e-15 0)
(0 -3.94255e-15 0)
(0 3.94255e-15 0)
(1.97128e-15 0 0)
(9.85638e-16 -1.18277e-14 0)
(-2.09941e-13 7.88511e-15 0)
(-1.65864e-09 -6.70234e-14 0)
(-1.41421e-06 -6.30809e-14 0)
(-0.00016338 -2.68094e-13 0)
(-0.00370894 1.34047e-13 0)
(-0.0252861 5.28302e-13 0)
(-0.0768963 -1.18277e-14 0)
(-0.138446 -7.88511e-14 0)
(-0.180983 -3.94255e-15 0)
(-0.198728 5.12532e-14 0)
(-0.194479 1.10391e-13 0)
(-0.177299 -6.70234e-14 0)
(-0.225701 1.26162e-13 0)
(-0.546812 2.52323e-13 0)
(-0.469534 2.97663e-13 0)
(-0.0645702 3.01605e-13 0)
(-0.555774 0.812267 0)
(-0.397639 0.923862 0)
(-0.0134109 0.230434 0)
(0.0120319 0.0194265 0)
(0.0960671 -0.0107254 0)
(0.140562 0.00118869 0)
(0.16187 0.00241378 0)
(0.154462 0.00139354 0)
(0.121017 0.000720096 0)
(0.0672826 0.000326525 0)
(0.0218603 7.17592e-05 0)
(0.00313837 4.22012e-06 0)
(0.000134511 4.16487e-08 0)
(1.13105e-06 4.62619e-11 0)
(1.29071e-09 -1.57702e-14 0)
(1.90228e-13 0 0)
(0 0 0)
(0 0 0)
(1.97128e-15 -3.94255e-15 0)
(0 -7.88511e-15 0)
(0 0 0)
(0 0 0)
(-1.97128e-15 0 0)
(1.97128e-15 -3.94255e-15 0)
(-2.18812e-13 -7.88511e-15 0)
(-1.65867e-09 -4.33681e-14 0)
(-1.41421e-06 -1.49817e-13 0)
(-0.00016338 -2.72036e-13 0)
(-0.00370894 4.84934e-13 0)
(-0.0252861 5.75613e-13 0)
(-0.0768963 -1.57702e-14 0)
(-0.138446 -1.30104e-13 0)
(-0.180983 -2.05013e-13 0)
(-0.198728 -5.91383e-14 0)
(-0.194479 1.97128e-14 0)
(-0.177299 -1.34047e-13 0)
(-0.225701 8.67362e-14 0)
(-0.546812 2.24726e-13 0)
(-0.469534 1.79386e-13 0)
(-0.0645702 5.12532e-14 0)
(-0.443642 2.60209e-13 0)
(-0.376456 4.80992e-13 0)
(-0.12547 1.10391e-13 0)
(-0.00251226 -3.31174e-13 0)
(0.0954439 -1.57702e-14 0)
(0.141521 1.34047e-13 0)
(0.161855 -2.36553e-14 0)
(0.154295 -1.81357e-13 0)
(0.120941 2.44438e-13 0)
(0.0672341 1.81357e-13 0)
(0.0218332 3.94255e-14 0)
(0.00313214 -1.34047e-13 0)
(0.000134136 -2.95692e-13 0)
(1.1273e-06 1.02506e-13 0)
(1.28658e-09 3.94255e-14 0)
(1.75444e-13 0 0)
(0 0 0)
(0 0 0)
(0 0 0)
(0 -3.94255e-15 0)
(0 0 0)
(0 -3.94255e-15 0)
(0 -3.94255e-15 0)
(0 0 0)
(-2.19797e-13 -3.94255e-15 0)
(-1.65869e-09 3.5483e-14 0)
(-1.41421e-06 0 0)
(-0.00016338 1.18277e-14 0)
(-0.00370894 4.53394e-13 0)
(-0.0252861 1.6953e-13 0)
(-0.0768963 -2.83864e-13 0)
(-0.138446 -1.853e-13 0)
(-0.180983 -1.6953e-13 0)
(-0.198728 -2.28668e-13 0)
(-0.194479 -4.96762e-13 0)
(-0.177299 -1.57702e-13 0)
(-0.225701 9.85638e-14 0)
(-0.546812 7.88511e-14 0)
(-0.469534 -6.11096e-14 0)
(-0.0645702 -3.88342e-13 0)
(-0.555774 -0.812267 0)
(-0.397639 -0.923862 0)
(-0.0134109 -0.230434 0)
(0.0120319 -0.0194265 0)
(0.0960671 0.0107254 0)
(0.140562 -0.00118869 0)
(0.16187 -0.00241378 0)
(0.154462 -0.00139354 0)
(0.121017 -0.000720096 0)
(0.0672826 -0.000326525 0)
(0.0218603 -7.17592e-05 0)
(0.00313837 -4.22012e-06 0)
(0.000134511 -4.16491e-08 0)
(1.13105e-06 -4.61949e-11 0)
(1.29068e-09 -5.51957e-14 0)
(1.78401e-13 0 0)
(0 0 0)
(0 0 0)
(0 0 0)
(0 0 0)
(0 0 0)
(-1.97128e-15 0 0)
(0 -3.94255e-15 0)
(1.97128e-15 0 0)
(-2.08955e-13 0 0)
(-1.65867e-09 9.46213e-14 0)
(-1.41421e-06 1.22219e-13 0)
(-0.00016338 2.36553e-14 0)
(-0.00370894 7.49085e-14 0)
(-0.0252861 9.85638e-14 0)
(-0.0768963 -3.07519e-13 0)
(-0.138446 -3.50887e-13 0)
(-0.180983 -1.45874e-13 0)
(-0.198728 -5.36187e-13 0)
(-0.194479 -7.60913e-13 0)
(-0.177299 -8.27936e-14 0)
(-0.225701 1.37989e-13 0)
(-0.546812 -1.14334e-13 0)
(-0.469534 -2.60209e-13 0)
(-0.0645702 -5.04647e-13 0)
(-0.741915 -1.86502 0)
(-0.207196 -0.929877 0)
(0.137638 -0.304765 0)
(0.0676433 -0.0374854 0)
(0.100749 0.00379941 0)
(0.137698 -0.00223693 0)
(0.161796 -0.00415681 0)
(0.154788 -0.00290371 0)
(0.121252 -0.00174417 0)
(0.0674227 -0.000763027 0)
(0.021927 -0.000153576 0)
(0.003153 -8.52203e-06 0)
(0.000135364 -8.32751e-08 0)
(1.13941e-06 -9.85008e-11 0)
(1.30002e-09 2.36553e-14 0)
(1.90228e-13 0 0)
(0 0 0)
(0 0 0)
(0 0 0)
(1.97128e-15 3.94255e-15 0)
(-1.97128e-15 0 0)
(0 0 0)
(0 7.88511e-15 0)
(0 0 0)
(-1.90228e-13 3.94255e-15 0)
(-1.65865e-09 6.70234e-14 0)
(-1.41421e-06 1.10391e-13 0)
(-0.00016338 -5.12532e-14 0)
(-0.00370894 -1.34047e-13 0)
(-0.0252861 3.03577e-13 0)
(-0.0768963 -3.5483e-14 0)
(-0.138446 -1.89243e-13 0)
(-0.180983 -1.89243e-13 0)
(-0.198728 -3.5483e-13 0)
(-0.194479 -3.35117e-13 0)
(-0.177299 7.0966e-14 0)
(-0.225701 3.5483e-14 0)
(-0.546812 -1.45874e-13 0)
(-0.469534 -2.42467e-13 0)
(-0.0645702 -2.36553e-13 0)
(0.0774756 -1.33845 0)
(0.360869 -0.561015 0)
(0.371711 -0.184313 0)
(0.141285 -0.0486207 0)
(0.112764 -0.0205615 0)
(0.138883 -0.00969348 0)
(0.161538 -0.00795764 0)
(0.155598 -0.00522686 0)
(0.122089 -0.00305892 0)
(0.0681183 -0.00123274 0)
(0.0222565 -0.000229076 0)
(0.00321775 -1.22391e-05 0)
(0.00013887 -1.20596e-07 0)
(1.17361e-06 -1.51245e-10 0)
(1.34166e-09 4.76082e-14 0)
(1.49966e-13 1.1902e-15 0)
(0 0 0)
(0 0 0)
(0 0 0)
(0 -1.1902e-15 0)
(0 0 0)
(0 0 0)
(0 0 0)
(0 0 0)
(-1.86862e-13 -1.1902e-15 0)
(-1.65863e-09 9.52164e-15 0)
(-1.41421e-06 2.85649e-14 0)
(-0.00016338 -2.61845e-14 0)
(-0.00370894 -5.95102e-14 0)
(-0.0252861 4.0467e-14 0)
(-0.0768963 3.64203e-13 0)
(-0.138446 -3.09453e-14 0)
(-0.180983 -1.98764e-13 0)
(-0.198728 -7.73633e-14 0)
(-0.194479 5.2369e-14 0)
(-0.177299 1.49966e-13 0)
(-0.225701 0 0)
(-0.546812 -5.2369e-14 0)
(-0.469534 -9.10507e-14 0)
(-0.0645702 -5.59396e-14 0)
(0.216046 -0.288347 0)
(0.600359 -0.223566 0)
(0.505883 -0.0944175 0)
(0.185951 -0.0495287 0)
(0.131819 -0.0340559 0)
(0.149208 -0.0196151 0)
(0.166238 -0.0127646 0)
(0.159074 -0.00775861 0)
(0.124652 -0.00413781 0)
(0.0697767 -0.00151789 0)
(0.0229264 -0.00026609 0)
(0.00333891 -1.40456e-05 0)
(0.000145278 -1.42073e-07 0)
(1.23729e-06 -1.88757e-10 0)
(1.42344e-09 -8.21241e-14 0)
(1.66629e-13 -1.1902e-15 0)
(0 0 0)
(0 0 0)
(0 0 0)
(0 0 0)
(0 0 0)
(0 0 0)
(0 0 0)
(0 0 0)
(-1.83292e-13 1.1902e-15 0)
(-1.65863e-09 2.38041e-15 0)
(-1.41421e-06 -1.66629e-14 0)
(-0.00016338 3.57061e-14 0)
(-0.00370894 -3.92768e-14 0)
(-0.0252861 -4.84413e-13 0)
(-0.0768963 4.24903e-13 0)
(-0.138446 -2.15427e-13 0)
(-0.180983 -1.46395e-13 0)
(-0.198728 -5.59396e-14 0)
(-0.194479 4.0467e-14 0)
(-0.177299 1.11879e-13 0)
(-0.225701 1.32113e-13 0)
(-0.546812 1.05928e-13 0)
(-0.469534 3.86817e-14 0)
(-0.0645702 3.57061e-15 0)
(0.139901 0.0397272 0)
(0.547747 -0.0883677 0)
(0.53942 -0.05564 0)
(0.199452 -0.0421568 0)
(0.141589 -0.0359413 0)
(0.1594 -0.0236747 0)
(0.172964 -0.0150083 0)
(0.163911 -0.00885288 0)
(0.128103 -0.00448929 0)
(0.0718492 -0.00156081 0)
(0.0237057 -0.000263654 0)
(0.00347402 -1.37787e-05 0)
(0.000152405 -1.41447e-07 0)
(1.31052e-06 -1.94394e-10 0)
(1.52356e-09 -2.38041e-14 0)
(2.2971e-13 0 0)
(0 0 0)
(0 0 0)
(0 0 0)
(0 0 0)
(0 0 0)
(0 0 0)
(0 0 0)
(0 0 0)
(-1.84482e-13 -1.1902e-15 0)
(-1.65864e-09 -1.78531e-14 0)
(-1.41421e-06 -4.28474e-14 0)
(-0.00016338 6.78417e-14 0)
(-0.00370894 1.13069e-13 0)
(-0.0252861 -7.29596e-13 0)
(-0.0768963 3.4754e-13 0)
(-0.138446 -2.3328e-13 0)
(-0.180983 0 0)
(-0.198728 4.0467e-14 0)
(-0.194479 1.1902e-15 0)
(-0.177299 3.57061e-14 0)
(-0.225701 1.57107e-13 0)
(-0.546812 2.08286e-13 0)
(-0.469534 1.58297e-13 0)
(-0.0645702 1.05333e-13 0)
(0.0926088 0.0198417 0)
(0.508459 -0.0502356 0)
(0.550413 -0.0456091 0)
(0.204933 -0.0406455 0)
(0.149629 -0.0341808 0)
(0.16938 -0.0233906 0)
(0.180521 -0.0145405 0)
(0.16921 -0.00824142 0)
(0.131679 -0.00392313 0)
(0.0738487 -0.00127638 0)
(0.0244172 -0.000203065 0)
(0.00359284 -1.01322e-05 0)
(0.000158555 -1.00653e-07 0)
(1.37359e-06 -1.36117e-10 0)
(1.61076e-09 4.76082e-14 0)
(1.89243e-13 0 0)
(0 -1.1902e-15 0)
(0 0 0)
(0 0 0)
(0 -1.1902e-15 0)
(0 0 0)
(0 0 0)
(0 0 0)
(0 0 0)
(-2.01145e-13 0 0)
(-1.65867e-09 -8.45045e-14 0)
(-1.41421e-06 -3.92768e-14 0)
(-0.00016338 -1.54727e-14 0)
(-0.00370894 3.05883e-13 0)
(-0.0252861 -5.32022e-13 0)
(-0.0768963 3.96338e-13 0)
(-0.138446 -1.11879e-13 0)
(-0.180983 6.78417e-14 0)
(-0.198728 4.87984e-14 0)
(-0.194479 -4.76082e-15 0)
(-0.177299 -1.78531e-14 0)
(-0.225701 5.59396e-14 0)
(-0.546812 9.75968e-14 0)
(-0.469534 1.19616e-13 0)
(-0.0645702 4.93935e-14 0)
(0.072372 0.00012466 0)
(0.484677 -0.0328836 0)
(0.548662 -0.041551 0)
(0.210465 -0.0374574 0)
(0.158217 -0.0292551 0)
(0.178326 -0.0196566 0)
(0.187562 -0.0118314 0)
(0.174142 -0.00633268 0)
(0.134814 -0.00276021 0)
(0.075434 -0.000805783 0)
(0.0249258 -0.000113347 0)
(0.00366961 -4.98335e-06 0)
(0.000162168 -4.42052e-08 0)
(1.40751e-06 -5.86735e-11 0)
(1.65472e-09 -4.52397e-12 0)
(1.83292e-13 -4.53587e-12 0)
(0 -4.53468e-12 0)
(1.1902e-15 -4.55491e-12 0)
(-1.1902e-15 -4.57277e-12 0)
(0 -4.55491e-12 0)
(1.1902e-15 -4.57753e-12 0)
(0 -4.53825e-12 0)
(0 -4.56801e-12 0)
(0 -4.57634e-12 0)
(-2.67796e-13 -4.53706e-12 0)
(-1.65868e-09 -4.62157e-12 0)
(-1.41421e-06 -4.593e-12 0)
(-0.00016338 -4.49421e-12 0)
(-0.00370894 -4.47874e-12 0)
(-0.0252861 -4.57396e-12 0)
(-0.0768963 -4.04908e-12 0)
(-0.138446 -4.05027e-12 0)
(-0.180983 -3.29449e-12 0)
(-0.198728 -2.46134e-12 0)
(-0.194479 -1.69247e-12 0)
(-0.177299 -1.02477e-12 0)
(-0.225701 -4.73702e-13 0)
(-0.546812 -1.90433e-13 0)
(-0.469534 -1.78531e-15 0)
(-0.0645702 -8.62898e-14 0)
(0.0608008 -0.013208 0)
(0.468299 -0.0261633 0)
(0.546006 -0.033572 0)
(0.216782 -0.0292646 0)
(0.166782 -0.0214481 0)
(0.18617 -0.0135847 0)
(0.19336 -0.00766376 0)
(0.177952 -0.00376607 0)
(0.137005 -0.00145807 0)
(0.0763993 -0.000362842 0)
(0.0251888 -4.09796e-05 0)
(0.00370202 -1.33903e-06 0)
(0.000163357 -2.59295e-08 0)
(1.41618e-06 -1.79715e-08 0)
(1.66293e-09 -1.7966e-08 0)
(1.77341e-13 -1.7966e-08 0)
(-1.78531e-14 -1.79659e-08 0)
(-3.45159e-14 -1.79659e-08 0)
(0 -1.79659e-08 0)
(-4.76082e-15 -1.79659e-08 0)
(1.66629e-14 -1.79659e-08 0)
(8.33143e-15 -1.79659e-08 0)
(-3.57061e-14 -1.79659e-08 0)
(2.97551e-14 -1.79659e-08 0)
(-2.46372e-13 -1.79659e-08 0)
(-1.65873e-09 -1.79658e-08 0)
(-1.41421e-06 -1.79661e-08 0)
(-0.00016338 -1.79661e-08 0)
(-0.00370894 -1.79634e-08 0)
(-0.0252861 -1.7911e-08 0)
(-0.0768963 -1.75264e-08 0)
(-0.138446 -1.63087e-08 0)
(-0.180983 -1.40323e-08 0)
(-0.198728 -1.10127e-08 0)
(-0.194479 -7.89895e-09 0)
(-0.177299 -5.27815e-09 0)
(-0.225701 -3.25232e-09 0)
(-0.546812 -1.66605e-09 0)
(-0.469534 -3.10363e-10 0)
(-0.0645702 -4.57295e-11 0)
(0.0598878 -0.0196025 0)
(0.465053 -0.0174085 0)
(0.545673 -0.0202256 0)
(0.222148 -0.0170314 0)
(0.173327 -0.0117233 0)
(0.19161 -0.0069252 0)
(0.197024 -0.0035786 0)
(0.180122 -0.00157233 0)
(0.138094 -0.000523137 0)
(0.0767996 -0.000107127 0)
(0.0252742 -1.49861e-05 0)
(0.00370907 -7.82381e-06 0)
(0.000163441 -7.7904e-06 0)
(1.41519e-06 -7.79222e-06 0)
(1.6601e-09 -7.79222e-06 0)
(2.63035e-13 -7.79222e-06 0)
(5.2369e-14 -7.79222e-06 0)
(2.38041e-14 -7.79222e-06 0)
(1.07118e-14 -7.79222e-06 0)
(-2.38041e-14 -7.79222e-06 0)
(0 -7.79222e-06 0)
(1.78531e-14 -7.79222e-06 0)
(-1.1902e-15 -7.79222e-06 0)
(1.66629e-14 -7.79222e-06 0)
(-1.7258e-13 -7.79222e-06 0)
(-1.65886e-09 -7.79222e-06 0)
(-1.41421e-06 -7.79222e-06 0)
(-0.00016338 -7.79221e-06 0)
(-0.00370894 -7.79137e-06 0)
(-0.0252861 -7.77175e-06 0)
(-0.0768963 -7.63592e-06 0)
(-0.138446 -7.21993e-06 0)
(-0.180983 -6.44585e-06 0)
(-0.198728 -5.38781e-06 0)
(-0.194479 -4.22415e-06 0)
(-0.177299 -3.14762e-06 0)
(-0.225701 -2.20771e-06 0)
(-0.546812 -1.3589e-06 0)
(-0.469534 -3.82093e-07 0)
(-0.0645702 -8.93097e-08 0)
(0.062915 -0.0120834 0)
(0.467699 -0.00743037 0)
(0.546369 -0.00772191 0)
(0.224975 -0.00638205 0)
(0.176521 -0.00415299 0)
(0.194019 -0.00240144 0)
(0.198518 -0.0013538 0)
(0.180896 -0.000813198 0)
(0.138417 -0.000582079 0)
(0.076889 -0.000517493 0)
(0.0252845 -0.000512134 0)
(0.00370896 -0.000513155 0)
(0.000163388 -0.000513263 0)
(1.41443e-06 -0.000513265 0)
(1.6595e-09 -0.000513265 0)
(1.11879e-13 -0.000513265 0)
(-1.09499e-13 -0.000513265 0)
(-1.54727e-13 -0.000513265 0)
(-1.08309e-13 -0.000513265 0)
(-8.45045e-14 -0.000513265 0)
(4.87984e-14 -0.000513265 0)
(2.05905e-13 -0.000513265 0)
(8.21241e-14 -0.000513265 0)
(-3.68963e-14 -0.000513265 0)
(-3.30877e-13 -0.000513265 0)
(-1.65859e-09 -0.000513265 0)
(-1.41421e-06 -0.000513265 0)
(-0.00016338 -0.000513264 0)
(-0.00370892 -0.000513211 0)
(-0.025286 -0.000512074 0)
(-0.0768957 -0.000504755 0)
(-0.138445 -0.000483569 0)
(-0.180982 -0.000445147 0)
(-0.198726 -0.000392066 0)
(-0.194477 -0.000330926 0)
(-0.177297 -0.000269921 0)
(-0.2257 -0.000211102 0)
(-0.54681 -0.000151905 0)
(-0.469533 -6.06441e-05 0)
(-0.0645699 -2.23295e-05 0)
(0.0643717 -0.00414141 0)
(0.469256 -0.00326962 0)
(0.546683 -0.00467293 0)
(0.225587 -0.00520193 0)
(0.177162 -0.0054629 0)
(0.194307 -0.00584363 0)
(0.198554 -0.00636412 0)
(0.180866 -0.00686535 0)
(0.138379 -0.00725448 0)
(0.076867 -0.00748826 0)
(0.0252784 -0.00757711 0)
(0.00370798 -0.00759264 0)
(0.000163336 -0.00759344 0)
(1.41376e-06 -0.00759345 0)
(1.65775e-09 -0.00759345 0)
(2.78508e-13 -0.00759345 0)
(-4.76082e-14 -0.00759345 0)
(2.78508e-13 -0.00759345 0)
(4.6656e-13 -0.00759345 0)
(2.309e-13 -0.00759345 0)
(-1.40444e-13 -0.00759345 0)
(-4.26093e-13 -0.00759345 0)
(-3.70154e-13 -0.00759345 0)
(1.1664e-13 -0.00759345 0)
(3.28497e-13 -0.00759345 0)
(-1.65779e-09 -0.00759345 0)
(-1.41373e-06 -0.00759345 0)
(-0.000163329 -0.00759344 0)
(-0.0037078 -0.00759265 0)
(-0.025278 -0.00757709 0)
(-0.0768688 -0.00748569 0)
(-0.138389 -0.00724195 0)
(-0.180895 -0.00682284 0)
(-0.198618 -0.00625281 0)
(-0.194362 -0.00558178 0)
(-0.177184 -0.00487782 0)
(-0.225588 -0.00415128 0)
(-0.546667 -0.00336988 0)
(-0.469409 -0.00178803 0)
(-0.0645332 -0.000964254 0)
(0.0637551 -0.0107912 0)
(0.467187 -0.0148869 0)
(0.544507 -0.0227651 0)
(0.224214 -0.0258405 0)
(0.175903 -0.0285744 0)
(0.19315 -0.0311405 0)
(0.197534 -0.0335096 0)
(0.180038 -0.0355529 0)
(0.137816 -0.0371346 0)
(0.076578 -0.0381359 0)
(0.025184 -0.0385532 0)
(0.00369322 -0.0386318 0)
(0.000162607 -0.0386361 0)
(1.40645e-06 -0.0386362 0)
(1.64805e-09 -0.0386362 0)
(5.95102e-15 -0.0386362 0)
(-3.16594e-13 -0.0386362 0)
(-2.54704e-13 -0.0386362 0)
(-1.71389e-13 -0.0386362 0)
(-1.53536e-13 -0.0386362 0)
(6.54613e-14 -0.0386362 0)
(3.45159e-13 -0.0386362 0)
(3.85626e-13 -0.0386362 0)
(1.52346e-13 -0.0386362 0)
(-4.0824e-13 -0.0386362 0)
(-1.64837e-09 -0.0386362 0)
(-1.40651e-06 -0.0386362 0)
(-0.00016261 -0.0386361 0)
(-0.00369317 -0.0386318 0)
(-0.0251829 -0.0385534 0)
(-0.0765728 -0.0381361 0)
(-0.137806 -0.0371312 0)
(-0.180029 -0.0355385 0)
(-0.19753 -0.0334664 0)
(-0.193152 -0.0310408 0)
(-0.175919 -0.0284443 0)
(-0.224246 -0.0256828 0)
(-0.544533 -0.0226117 0)
(-0.467215 -0.0147625 0)
(-0.0637761 -0.0105336 0)
(0.060425 -0.0438563 0)
(0.457718 -0.0508738 0)
(0.536128 -0.0679334 0)
(0.219989 -0.0734523 0)
(0.172055 -0.0781821 0)
(0.189551 -0.0826741 0)
(0.194302 -0.0869171 0)
(0.177373 -0.0906665 0)
(0.13589 -0.093768 0)
(0.0754999 -0.0959461 0)
(0.0248005 -0.0969604 0)
(0.00362808 -0.09717 0)
(0.000159116 -0.0971824 0)
(1.36906e-06 -0.0971825 0)
(1.59421e-09 -0.0971825 0)
(1.46395e-13 -0.0971825 0)
(6.66515e-14 -0.0971825 0)
(1.65438e-13 -0.0971825 0)
(2.71367e-13 -0.0971825 0)
(2.67796e-13 -0.0971825 0)
(7.73633e-14 -0.0971825 0)
(-1.58297e-13 -0.0971825 0)
(-2.23758e-13 -0.0971825 0)
(-1.78531e-13 -0.0971825 0)
(-3.41589e-13 -0.0971825 0)
(-1.59434e-09 -0.0971825 0)
(-1.36908e-06 -0.0971825 0)
(-0.000159118 -0.0971824 0)
(-0.00362808 -0.09717 0)
(-0.0248002 -0.0969605 0)
(-0.0754983 -0.0959472 0)
(-0.135885 -0.0937734 0)
(-0.177364 -0.0906775 0)
(-0.194284 -0.0869294 0)
(-0.189522 -0.0826833 0)
(-0.172021 -0.0781838 0)
(-0.219967 -0.0734344 0)
(-0.536144 -0.0678948 0)
(-0.45777 -0.050834 0)
(-0.0604581 -0.0438025 0)
(0.0569928 -0.095803 0)
(0.443985 -0.0981178 0)
(0.52275 -0.120692 0)
(0.214338 -0.127185 0)
(0.167016 -0.13203 0)
(0.184733 -0.136786 0)
(0.189832 -0.141538 0)
(0.173436 -0.145994 0)
(0.132729 -0.15004 0)
(0.0735017 -0.153255 0)
(0.0240045 -0.154936 0)
(0.00347934 -0.155313 0)
(0.000150559 -0.155337 0)
(1.2732e-06 -0.155337 0)
(1.45208e-09 -0.155337 0)
(-1.30923e-14 -0.155337 0)
(-1.53536e-13 -0.155337 0)
(9.52164e-15 -0.155337 0)
(7.02221e-14 -0.155337 0)
(-7.14123e-15 -0.155337 0)
(-1.02358e-13 -0.155337 0)
(-2.45182e-13 -0.155337 0)
(-2.49943e-13 -0.155337 0)
(-1.07118e-14 -0.155337 0)
(-6.07004e-14 -0.155337 0)
(-1.45205e-09 -0.155337 0)
(-1.2732e-06 -0.155337 0)
(-0.00015056 -0.155337 0)
(-0.00347934 -0.155313 0)
(-0.0240046 -0.154936 0)
(-0.0735016 -0.153255 0)
(-0.132728 -0.150042 0)
(-0.173433 -0.145999 0)
(-0.189826 -0.141549 0)
(-0.184725 -0.13681 0)
(-0.167006 -0.13207 0)
(-0.214332 -0.127243 0)
(-0.522754 -0.120754 0)
(-0.443999 -0.0981603 0)
(-0.0570002 -0.095811 0)
(0.0581944 -0.139072 0)
(0.433734 -0.130905 0)
(0.508118 -0.155823 0)
(0.209063 -0.163063 0)
(0.162803 -0.166694 0)
(0.180389 -0.170695 0)
(0.185429 -0.175003 0)
(0.169179 -0.17947 0)
(0.128893 -0.183919 0)
(0.070782 -0.187868 0)
(0.0228165 -0.19013 0)
(0.00324221 -0.190663 0)
(0.0001364 -0.190696 0)
(1.1127e-06 -0.190697 0)
(1.21641e-09 -0.190697 0)
(5.2369e-14 -0.190697 0)
(4.87984e-14 -0.190697 0)
(1.71389e-13 -0.190697 0)
(1.7377e-13 -0.190697 0)
(1.46395e-13 -0.190697 0)
(-1.54727e-14 -0.190697 0)
(-1.84482e-13 -0.190697 0)
(-1.1902e-13 -0.190697 0)
(6.18906e-14 -0.190697 0)
(-3.80866e-14 -0.190697 0)
(-1.21636e-09 -0.190697 0)
(-1.1127e-06 -0.190697 0)
(-0.0001364 -0.190696 0)
(-0.00324221 -0.190663 0)
(-0.0228165 -0.19013 0)
(-0.0707822 -0.187868 0)
(-0.128893 -0.183919 0)
(-0.169179 -0.179471 0)
(-0.185428 -0.175006 0)
(-0.180388 -0.170703 0)
(-0.162802 -0.166707 0)
(-0.209062 -0.163081 0)
(-0.508118 -0.155842 0)
(-0.433734 -0.130918 0)
(-0.0581942 -0.139076 0)
(0.0648624 -0.153002 0)
(0.427843 -0.141683 0)
(0.491761 -0.169645 0)
(0.203862 -0.177593 0)
(0.159661 -0.180406 0)
(0.176727 -0.183011 0)
(0.181377 -0.186812 0)
(0.164844 -0.191067 0)
(0.124636 -0.195744 0)
(0.0675171 -0.200245 0)
(0.0213111 -0.202957 0)
(0.00293325 -0.203603 0)
(0.000117942 -0.203643 0)
(9.08166e-07 -0.203644 0)
(9.27348e-10 -0.203644 0)
(7.26025e-14 -0.203644 0)
(1.54727e-14 -0.203644 0)
(-2.97551e-14 -0.203644 0)
(-2.38041e-15 -0.203644 0)
(8.33143e-14 -0.203644 0)
(-5.95102e-15 -0.203644 0)
(-1.49966e-13 -0.203644 0)
(-1.42825e-13 -0.203644 0)
(-4.52278e-14 -0.203644 0)
(-1.10689e-13 -0.203644 0)
(-9.27437e-10 -0.203644 0)
(-9.08166e-07 -0.203644 0)
(-0.000117942 -0.203643 0)
(-0.00293325 -0.203603 0)
(-0.0213111 -0.202957 0)
(-0.0675171 -0.200245 0)
(-0.124636 -0.195744 0)
(-0.164844 -0.191067 0)
(-0.181377 -0.186812 0)
(-0.176727 -0.183011 0)
(-0.159662 -0.180407 0)
(-0.203862 -0.177595 0)
(-0.491761 -0.169647 0)
(-0.427842 -0.141684 0)
(-0.0648618 -0.153003 0)
(0.0691013 -0.152102 0)
(0.417696 -0.131597 0)
(0.473514 -0.163388 0)
(0.198693 -0.172978 0)
(0.157582 -0.174031 0)
(0.174216 -0.176328 0)
(0.177665 -0.179037 0)
(0.160571 -0.182939 0)
(0.120049 -0.187606 0)
(0.063832 -0.192438 0)
(0.0195805 -0.195415 0)
(0.00258076 -0.196112 0)
(9.75812e-05 -0.196153 0)
(6.9471e-07 -0.196153 0)
(6.4673e-10 -0.196153 0)
(1.99954e-13 -0.196153 0)
(3.33257e-14 -0.196153 0)
(-6.78417e-14 -0.196153 0)
(-7.37927e-14 -0.196153 0)
(3.09453e-14 -0.196153 0)
(7.37927e-14 -0.196153 0)
(4.76082e-14 -0.196153 0)
(-2.26139e-14 -0.196153 0)
(-1.05928e-13 -0.196153 0)
(-1.59487e-13 -0.196153 0)
(-6.46642e-10 -0.196153 0)
(-6.9471e-07 -0.196153 0)
(-9.75812e-05 -0.196153 0)
(-0.00258076 -0.196112 0)
(-0.0195805 -0.195415 0)
(-0.063832 -0.192438 0)
(-0.120049 -0.187606 0)
(-0.160572 -0.182939 0)
(-0.177665 -0.179037 0)
(-0.174216 -0.176328 0)
(-0.157583 -0.174031 0)
(-0.198693 -0.172977 0)
(-0.473514 -0.163387 0)
(-0.417696 -0.131596 0)
(-0.0691011 -0.152102 0)
(0.0846221 -0.118495 0)
(0.416967 -0.118284 0)
(0.451885 -0.147744 0)
(0.193606 -0.155868 0)
(0.156433 -0.15522 0)
(0.171903 -0.156729 0)
(0.175006 -0.15908 0)
(0.156587 -0.162439 0)
(0.115483 -0.166886 0)
(0.0599918 -0.171851 0)
(0.0177708 -0.17497 0)
(0.00222214 -0.175676 0)
(7.8025e-05 -0.175715 0)
(5.05668e-07 -0.175715 0)
(4.21231e-10 -0.175715 0)
(8.21241e-14 -0.175715 0)
(0 -0.175715 0)
(-2.73747e-14 -0.175715 0)
(-2.49943e-14 -0.175715 0)
(1.78531e-14 -0.175715 0)
(9.8787e-14 -0.175715 0)
(1.09499e-13 -0.175715 0)
(3.09453e-14 -0.175715 0)
(-1.01167e-13 -0.175715 0)
(-1.66629e-13 -0.175715 0)
(-4.21309e-10 -0.175715 0)
(-5.05668e-07 -0.175715 0)
(-7.8025e-05 -0.175715 0)
(-0.00222214 -0.175676 0)
(-0.0177708 -0.17497 0)
(-0.0599918 -0.171851 0)
(-0.115483 -0.166886 0)
(-0.156587 -0.162439 0)
(-0.175006 -0.159079 0)
(-0.171903 -0.156729 0)
(-0.156433 -0.15522 0)
(-0.193606 -0.155867 0)
(-0.451885 -0.147743 0)
(-0.416967 -0.118284 0)
(-0.0846221 -0.118495 0)
(0.0693045 -0.121292 0)
(0.389511 -0.138355 0)
(0.437297 -0.174541 0)
(0.191488 -0.18809 0)
(0.156752 -0.190684 0)
(0.170497 -0.196057 0)
(0.172163 -0.201424 0)
(0.153049 -0.206673 0)
(0.11098 -0.212055 0)
(0.0560418 -0.217507 0)
(0.0158942 -0.220823 0)
(0.00186245 -0.221541 0)
(5.9777e-05 -0.221577 0)
(3.46316e-07 -0.221578 0)
(2.53098e-10 -0.221578 0)
(-2.85649e-14 -0.221578 0)
(-1.42825e-14 -0.221578 0)
(-1.90433e-14 -0.221578 0)
(-4.0467e-14 -0.221578 0)
(7.14123e-15 -0.221578 0)
(1.01167e-13 -0.221578 0)
(1.61868e-13 -0.221578 0)
(9.99772e-14 -0.221578 0)
(1.07118e-14 -0.221578 0)
(-5.95102e-14 -0.221578 0)
(-2.5327e-10 -0.221578 0)
(-3.46316e-07 -0.221578 0)
(-5.9777e-05 -0.221577 0)
(-0.00186245 -0.221541 0)
(-0.0158942 -0.220823 0)
(-0.0560418 -0.217507 0)
(-0.11098 -0.212055 0)
(-0.153049 -0.206673 0)
(-0.172163 -0.201424 0)
(-0.170497 -0.196057 0)
(-0.156752 -0.190684 0)
(-0.191488 -0.18809 0)
(-0.437297 -0.174541 0)
(-0.389511 -0.138355 0)
(-0.0693045 -0.121292 0)
(0.0681794 -0.33229 0)
(0.365654 -0.349867 0)
(0.403959 -0.410211 0)
(0.17805 -0.447351 0)
(0.148755 -0.462642 0)
(0.161553 -0.484359 0)
(0.164776 -0.503072 0)
(0.146343 -0.519853 0)
(0.105043 -0.535068 0)
(0.0515424 -0.547991 0)
(0.0138834 -0.554388 0)
(0.00149568 -0.555502 0)
(4.25523e-05 -0.555547 0)
(2.11717e-07 -0.555548 0)
(1.29486e-10 -0.555548 0)
(-6.30809e-14 -0.555548 0)
(-4.99886e-14 -0.555548 0)
(-1.78531e-14 -0.555548 0)
(1.42825e-14 -0.555548 0)
(4.52278e-14 -0.555548 0)
(1.21401e-13 -0.555548 0)
(1.61868e-13 -0.555548 0)
(1.04738e-13 -0.555548 0)
(6.54613e-14 -0.555548 0)
(-2.49943e-14 -0.555548 0)
(-1.29881e-10 -0.555548 0)
(-2.11717e-07 -0.555548 0)
(-4.25523e-05 -0.555547 0)
(-0.00149568 -0.555502 0)
(-0.0138834 -0.554388 0)
(-0.0515424 -0.547991 0)
(-0.105043 -0.535068 0)
(-0.146343 -0.519853 0)
(-0.164776 -0.503072 0)
(-0.161553 -0.484359 0)
(-0.148755 -0.462642 0)
(-0.17805 -0.447351 0)
(-0.403959 -0.410211 0)
(-0.365654 -0.349867 0)
(-0.0681794 -0.33229 0)
(0.0523668 -0.248475 0)
(0.314423 -0.332085 0)
(0.343358 -0.393192 0)
(0.140964 -0.420277 0)
(0.12109 -0.450399 0)
(0.131538 -0.452187 0)
(0.137959 -0.462356 0)
(0.122216 -0.46988 0)
(0.0838649 -0.482489 0)
(0.0374248 -0.496868 0)
(0.00865662 -0.504191 0)
(0.000745228 -0.505329 0)
(1.58049e-05 -0.505368 0)
(5.5488e-08 -0.505368 0)
(2.2646e-11 -0.505368 0)
(-1.23186e-13 -0.505368 0)
(-1.30327e-13 -0.505368 0)
(-5.71298e-14 -0.505368 0)
(0 -0.505368 0)
(3.92768e-14 -0.505368 0)
(1.04143e-13 -0.505368 0)
(1.39254e-13 -0.505368 0)
(1.01763e-13 -0.505368 0)
(4.76082e-14 -0.505368 0)
(-2.61845e-14 -0.505368 0)
(-2.28912e-11 -0.505368 0)
(-5.54882e-08 -0.505368 0)
(-1.58049e-05 -0.505368 0)
(-0.000745228 -0.505329 0)
(-0.00865662 -0.504191 0)
(-0.0374248 -0.496868 0)
(-0.0838649 -0.482489 0)
(-0.122216 -0.46988 0)
(-0.137959 -0.462356 0)
(-0.131538 -0.452187 0)
(-0.12109 -0.450399 0)
(-0.140964 -0.420277 0)
(-0.343358 -0.393192 0)
(-0.314423 -0.332085 0)
(-0.0523668 -0.248475 0)
(-0.0123902 0.00444253 0)
(0.2262 -0.0627581 0)
(0.318973 -0.0871093 0)
(0.122923 -0.0880627 0)
(0.118005 -0.105832 0)
(0.150031 -0.0912641 0)
(0.147727 -0.0866402 0)
(0.126942 -0.0811278 0)
(0.0790365 -0.0817366 0)
(0.0306302 -0.0861383 0)
(0.0057304 -0.0887876 0)
(0.000361274 -0.0891749 0)
(5.08268e-06 -0.089186 0)
(1.11284e-08 -0.0891861 0)
(2.9035e-12 -0.0891861 0)
(-1.458e-13 -0.0891861 0)
(-2.35065e-13 -0.0891861 0)
(-1.38659e-13 -0.0891861 0)
(-2.49943e-14 -0.0891861 0)
(4.28474e-14 -0.0891861 0)
(1.24972e-13 -0.0891861 0)
(1.29137e-13 -0.0891861 0)
(5.41543e-14 -0.0891861 0)
(9.52164e-15 -0.0891861 0)
(-1.54727e-14 -0.0891861 0)
(-2.9035e-12 -0.0891861 0)
(-1.11286e-08 -0.0891861 0)
(-5.08268e-06 -0.089186 0)
(-0.000361274 -0.0891749 0)
(-0.0057304 -0.0887876 0)
(-0.0306302 -0.0861383 0)
(-0.0790365 -0.0817366 0)
(-0.126942 -0.0811278 0)
(-0.147727 -0.0866402 0)
(-0.150031 -0.0912641 0)
(-0.118005 -0.105832 0)
(-0.122923 -0.0880627 0)
(-0.318973 -0.0871093 0)
(-0.2262 -0.0627581 0)
(0.0123902 0.00444253 0)
(-0.0123902 -0.00444253 0)
(0.2262 0.0627581 0)
(0.318973 0.0871093 0)
(0.122923 0.0880627 0)
(0.118005 0.105832 0)
(0.150031 0.0912641 0)
(0.147727 0.0866402 0)
(0.126942 0.0811278 0)
(0.0790365 0.0817366 0)
(0.0306302 0.0861383 0)
(0.0057304 0.0887876 0)
(0.000361274 0.0891749 0)
(5.08268e-06 0.089186 0)
(1.11286e-08 0.0891861 0)
(2.86423e-12 0.0891861 0)
(-2.26139e-14 0.0891861 0)
(-3.80866e-14 0.0891861 0)
(5.05837e-14 0.0891861 0)
(5.17739e-14 0.0891861 0)
(-4.16572e-15 0.0891861 0)
(2.02335e-14 0.0891861 0)
(3.74915e-14 0.0891861 0)
(5.35592e-15 0.0891861 0)
(-7.73633e-15 0.0891861 0)
(-4.70131e-14 0.0891861 0)
(-2.97135e-12 0.0891861 0)
(-1.11283e-08 0.0891861 0)
(-5.08268e-06 0.089186 0)
(-0.000361274 0.0891749 0)
(-0.0057304 0.0887876 0)
(-0.0306302 0.0861383 0)
(-0.0790365 0.0817366 0)
(-0.126942 0.0811278 0)
(-0.147727 0.0866402 0)
(-0.150031 0.0912641 0)
(-0.118005 0.105832 0)
(-0.122923 0.0880627 0)
(-0.318973 0.0871093 0)
(-0.2262 0.0627581 0)
(0.0123902 -0.00444253 0)
(0.0523668 0.248475 0)
(0.314423 0.332085 0)
(0.343358 0.393192 0)
(0.140964 0.420277 0)
(0.12109 0.450399 0)
(0.131538 0.452187 0)
(0.137959 0.462356 0)
(0.122216 0.46988 0)
(0.0838649 0.482489 0)
(0.0374248 0.496868 0)
(0.00865662 0.504191 0)
(0.000745228 0.505329 0)
(1.58049e-05 0.505368 0)
(5.54884e-08 0.505368 0)
(2.27418e-11 0.505368 0)
(6.07004e-14 0.505368 0)