/*--------------------------------*- C++ -*----------------------------------*\
| =========                 |                                                 |
| \\      /  F ield         | OpenFOAM: The Open Source CFD Toolbox           |
|  \\    /   O peration     | Version:  v1912                                 |
|   \\  /    A nd           | Website:  www.openfoam.com                      |
|    \\/     M anipulation  |                                                 |
\*---------------------------------------------------------------------------*/
FoamFile
{
    version     2.0;
    format      ascii;
    class       volScalarField;
    location    "2e-05";
    object      dsmcSigmaTcRMax;
}
// * * * * * * * * * * * * * * * * * * * * * * * * * * * * * * * * * * * * * //

dimensions      [0 3 -1 0 0 0 0];


internalField   nonuniform List<scalar> 
1300
(
5.116246705e-16
6.549715212e-16
7.461367649e-16
8.236817536e-16
8.578348679e-16
7.920553034e-16
7.835241112e-16
7.871800803e-16
8.876232541e-16
8.259727613e-16
5.575078758e-16
6.066264639e-16
7.669321649e-16
8.234814334e-16
8.742895581e-16
8.05824787e-16
8.646569166e-16
8.548474897e-16
8.526609598e-16
8.145926648e-16
4.905183096e-16
6.398484464e-16
7.787517641e-16
7.011480021e-16
7.658634509e-16
6.265990038e-16
7.065190625e-16
7.887091627e-16
8.380775269e-16
7.6432148e-16
4.033505339e-16
4.255204278e-16
6.697048851e-16
6.712498941e-16
7.540674513e-16
6.890534574e-16
7.175212399e-16
7.241839801e-16
7.791411057e-16
8.088220665e-16
2.305753784e-16
5.163271808e-16
6.269060529e-16
7.113188629e-16
7.143632943e-16
7.766892136e-16
6.476468103e-16
7.21136722e-16
8.010990718e-16
7.298297356e-16
2.305753784e-16
2.305753784e-16
6.465832436e-16
6.523754676e-16
7.138688692e-16
6.532325943e-16
6.389215589e-16
7.33794293e-16
7.530565986e-16
6.69633051e-16
2.305753784e-16
5.186002654e-16
6.175476134e-16
6.046951712e-16
6.702824641e-16
5.612888612e-16
6.404821072e-16
6.337914543e-16
6.753101059e-16
7.535695581e-16
4.105966577e-16
2.305753784e-16
5.924616383e-16
6.942687079e-16
6.64783091e-16
6.264388818e-16
5.90169347e-16
6.656711732e-16
6.888295335e-16
6.597590146e-16
2.305753784e-16
2.305753784e-16
5.627876354e-16
6.307794561e-16
7.011504105e-16
6.607519441e-16
6.257674388e-16
7.076843848e-16
6.594634366e-16
6.160998127e-16
2.305753784e-16
2.305753784e-16
6.008686715e-16
6.566303262e-16
6.812135138e-16
5.958129873e-16
6.124796216e-16
6.058883706e-16
6.668739069e-16
7.398514817e-16
2.305753784e-16
4.748347043e-16
6.848689082e-16
6.459416916e-16
6.465981256e-16
6.342498729e-16
6.747103223e-16
6.471841008e-16
6.493034764e-16
6.737950609e-16
2.305753784e-16
3.859302281e-16
6.415599105e-16
6.636989401e-16
6.591831913e-16
6.367801231e-16
6.320664982e-16
6.46454218e-16
6.774093244e-16
6.590476652e-16
2.305753784e-16
2.305753784e-16
6.216827155e-16
6.917553442e-16
6.770401755e-16
6.568287054e-16
6.076528741e-16
6.770440563e-16
6.364750509e-16
6.178312437e-16
2.305753784e-16
2.305753784e-16
6.002041644e-16
6.310989391e-16
7.174333588e-16
6.388819806e-16
6.093340527e-16
6.57003096e-16
6.271352416e-16
6.908158479e-16
2.305753784e-16
3.825752704e-16
5.64494635e-16
6.692489245e-16
6.45393544e-16
6.049367353e-16
6.441477798e-16
7.006916919e-16
7.116121407e-16
6.479433696e-16
2.305753784e-16
2.305753784e-16
5.87712681e-16
6.418902477e-16
6.742069575e-16
6.712043647e-16
6.374361846e-16
6.471815906e-16
6.951061432e-16
6.440755148e-16
2.305753784e-16
2.305753784e-16
5.674386708e-16
6.616800054e-16
6.757266654e-16
6.818152353e-16
6.006595209e-16
6.740208879e-16
6.801615638e-16
6.545789288e-16
2.305753784e-16
2.305753784e-16
6.138337964e-16
6.393671365e-16
6.912874826e-16
6.179560235e-16
6.754404084e-16
6.707223396e-16
7.008533401e-16
6.546123286e-16
2.305753784e-16
2.305753784e-16
6.548551707e-16
6.508020442e-16
7.035812908e-16
6.307481003e-16
5.961639703e-16
6.390863435e-16
6.794937832e-16
6.569064328e-16
2.305753784e-16
2.305753784e-16
5.77130177e-16
6.3695688e-16
6.70024761e-16
6.359361644e-16
6.009740812e-16
6.440281064e-16
6.498375635e-16
5.925562463e-16
8.378717665e-16
7.426304813e-16
8.135742203e-16
7.404631332e-16
7.834122292e-16
7.642972423e-16
6.398826836e-16
7.275591235e-16
7.585596053e-16
7.451174705e-16
6.640921188e-16
6.992249163e-16
6.708662672e-16
7.641906433e-16
7.072599986e-16
7.051180191e-16
6.419114078e-16
6.859377681e-16
6.733900794e-16
6.522202941e-16
6.439936596e-16
6.5592263e-16
6.558919009e-16
6.665202037e-16
6.642138677e-16
6.770420043e-16
6.574373252e-16
6.741627352e-16
7.877488252e-16
8.067396509e-16
8.410238277e-16
7.513559082e-16
7.987706963e-16
7.312110138e-16
7.570852256e-16
6.779325589e-16
7.874175536e-16
6.832776751e-16
6.93769477e-16
6.203046048e-16
6.54404068e-16
6.507574073e-16
7.01078898e-16
6.42535109e-16
6.31002664e-16
6.268327843e-16
6.345393787e-16
7.874194781e-16
6.096902592e-16
6.70306931e-16
6.371771518e-16
6.405572344e-16
6.508850968e-16
6.79821533e-16
6.615094925e-16
6.271360713e-16
7.333526285e-16
6.058517235e-16
6.512383728e-16
8.217436876e-16
7.685526689e-16
7.934401988e-16
7.168764569e-16
6.948719305e-16
7.336960493e-16
7.177050939e-16
7.294785396e-16
7.164267795e-16
7.016471359e-16
7.542070731e-16
7.406299352e-16
6.749467938e-16
6.232243162e-16
7.237803139e-16
6.172048428e-16
6.465488574e-16
6.209215214e-16
6.412389946e-16
6.459264095e-16
6.645964753e-16
6.44170196e-16
5.926922476e-16
6.490630547e-16
6.606991184e-16
6.859826007e-16
6.45840906e-16
6.716519608e-16
6.539698987e-16
7.271829824e-16
6.68197317e-16
7.935536594e-16
7.437472991e-16
7.50701034e-16
6.844998242e-16
6.967641459e-16
7.377907947e-16
6.965093997e-16
6.976375819e-16
6.571042536e-16
7.069875291e-16
6.744660315e-16
6.78030575e-16
6.745034265e-16
6.630295425e-16
6.70812521e-16
6.142984376e-16
6.281499577e-16
6.446023804e-16
6.750878588e-16
6.560233717e-16
6.094412331e-16
6.299474637e-16
6.285749219e-16
6.103275125e-16
6.324099723e-16
6.802722843e-16
6.398918699e-16
6.455162678e-16
6.534344463e-16
6.820085975e-16
7.326045234e-16
7.125757474e-16
7.140577457e-16
7.347790481e-16
6.863434797e-16
7.175910027e-16
6.927434268e-16
6.885546591e-16
6.286816826e-16
6.695395488e-16
7.186071408e-16
6.580035106e-16
6.659884801e-16
6.868193678e-16
6.211029431e-16
6.391779995e-16
6.555928378e-16
6.566621531e-16
6.883778589e-16
6.531224555e-16
5.989425204e-16
6.173023264e-16
6.530039917e-16
6.496711837e-16
6.470668386e-16
6.345968841e-16
6.391549712e-16
6.231452458e-16
6.383035402e-16
6.548938595e-16
7.053268718e-16
7.63609204e-16
7.101921887e-16
7.087202633e-16
7.236213433e-16
7.203075215e-16
6.875929476e-16
6.613987245e-16
7.407757183e-16
6.707759403e-16
6.61400202e-16
7.033962472e-16
6.850587138e-16
6.429133853e-16
6.67417131e-16
6.336355383e-16
6.621255727e-16
6.729468137e-16
6.716856116e-16
6.719002642e-16
6.224852749e-16
6.300357547e-16
6.294860625e-16
6.406160664e-16
6.669494327e-16
6.690400874e-16
7.014301455e-16
6.268167363e-16
6.440474428e-16
6.674788502e-16
6.630731066e-16
7.320733365e-16
6.827186675e-16
7.082569764e-16
6.614814498e-16
7.037250866e-16
7.207653361e-16
7.290102283e-16
6.537018382e-16
6.911152772e-16
6.729685287e-16
6.401920902e-16
6.979829776e-16
6.620042054e-16
6.799227224e-16
6.341452242e-16
6.789741321e-16
7.134895904e-16
6.557747673e-16
6.381445383e-16
6.55414134e-16
7.050281193e-16
6.285731295e-16
6.340585462e-16
7.041778044e-16
6.574136794e-16
6.639337847e-16
6.644182911e-16
6.570376757e-16
6.291778577e-16
6.475598755e-16
7.353968819e-16
6.559900469e-16
7.559750627e-16
7.184403329e-16
7.127855205e-16
6.90026755e-16
6.612362763e-16
6.767118587e-16
6.663512936e-16
6.388730449e-16
6.544075435e-16
6.710801818e-16
6.389687337e-16
7.062848833e-16
6.260395368e-16
6.519100135e-16
6.16589086e-16
6.178403945e-16
6.167708103e-16
6.584022595e-16
6.341883574e-16
6.250087913e-16
6.538862031e-16
6.191331311e-16
6.815119186e-16
6.138621461e-16
7.012810556e-16
6.43392391e-16
6.70073496e-16
6.209999012e-16
6.349228443e-16
7.049428839e-16
6.617492897e-16
6.546104219e-16
6.664350496e-16
6.729793534e-16
6.445978405e-16
6.935693724e-16
6.574319662e-16
6.77165421e-16
6.416769842e-16
6.425452925e-16
6.626032567e-16
6.824058157e-16
6.314409514e-16
6.090178715e-16
6.493436728e-16
6.322358219e-16
6.344604417e-16
6.20096104e-16
6.48531075e-16
6.080665506e-16
6.357620188e-16
6.183579422e-16
6.445674771e-16
6.395170325e-16
6.743484931e-16
6.491034844e-16
6.68135399e-16
6.16847025e-16
7.059540048e-16
6.412538521e-16
7.098200481e-16
6.277108979e-16
6.483990378e-16
7.06106598e-16
6.574600999e-16
7.144865954e-16
6.620974914e-16
6.484033549e-16
6.851664531e-16
6.699249566e-16
6.668194241e-16
6.561627944e-16
6.602684496e-16
5.901631162e-16
6.416643386e-16
6.588175575e-16
6.675323076e-16
6.709593516e-16
6.411597012e-16
6.320527698e-16
7.154489807e-16
6.619563484e-16
6.116551748e-16
6.49341205e-16
6.614357657e-16
6.49193968e-16
6.325030742e-16
6.21685442e-16
6.5485541e-16
6.581269985e-16
6.527764262e-16
6.651660138e-16
7.336946766e-16
6.75453554e-16
6.56253729e-16
6.511254713e-16
6.810976001e-16
6.276315508e-16
6.656657695e-16
6.667939804e-16
6.763867965e-16
6.377779041e-16
6.721711468e-16
6.571994648e-16
6.289498841e-16
6.84791019e-16
6.266228317e-16
6.351068027e-16
6.551622042e-16
6.896531023e-16
6.771536501e-16
6.614766598e-16
6.491514501e-16
6.915638594e-16
6.872075379e-16
6.713163013e-16
6.717755638e-16
6.746971492e-16
6.479567929e-16
6.512896238e-16
6.433086263e-16
6.55243588e-16
6.811265508e-16
6.536836503e-16
6.772434128e-16
6.900851105e-16
6.618098119e-16
6.486165431e-16
7.148113742e-16
6.409315371e-16
6.771656243e-16
6.873155525e-16
6.566782159e-16
6.976189659e-16
6.386003996e-16
6.35923522e-16
6.45299833e-16
6.449558228e-16
6.548661784e-16
6.416562437e-16
6.471536442e-16
6.791191319e-16
6.494026654e-16
6.790705001e-16
6.408632118e-16
6.219339493e-16
6.333070927e-16
6.473099638e-16
6.662335098e-16
6.422611992e-16
6.609614906e-16
6.680968048e-16
6.704381172e-16
6.353926061e-16
6.426468228e-16
6.570365024e-16
6.972141269e-16
6.846125217e-16
6.746699609e-16
6.730021954e-16
6.910941105e-16
6.714090597e-16
6.634680714e-16
6.591460567e-16
6.46043958e-16
6.642234831e-16
6.914266024e-16
6.412306882e-16
6.381354467e-16
6.654375737e-16
6.492895993e-16
6.598038023e-16
6.539231792e-16
6.329237399e-16
6.526557117e-16
6.380122761e-16
6.82040907e-16
6.597028563e-16
6.385762977e-16
6.679443047e-16
6.524442393e-16
6.716133317e-16
6.325496916e-16
6.651747702e-16
6.485938831e-16
6.62603046e-16
6.591293469e-16
6.851604731e-16
6.638196631e-16
6.737518987e-16
6.547302172e-16
6.462614525e-16
6.793467992e-16
6.538828556e-16
6.60416961e-16
6.460016918e-16
6.758233621e-16
6.748646474e-16
6.585661673e-16
6.424157635e-16
6.252121162e-16
6.314436473e-16
6.362635627e-16
6.374549896e-16
6.481848544e-16
6.61916031e-16
6.274469179e-16
6.422029359e-16
6.309220509e-16
6.606912276e-16
6.985347916e-16
6.463602284e-16
6.513883375e-16
6.363517528e-16
6.569750786e-16
6.752009236e-16
6.539054562e-16
6.599099338e-16
6.460736205e-16
6.412375735e-16
6.567029823e-16
6.337469928e-16
6.663615613e-16
6.544502879e-16
6.393029835e-16
6.517271809e-16
6.713195273e-16
6.429117494e-16
6.190388961e-16
6.464103988e-16
6.551072819e-16
6.785663207e-16
6.08612714e-16
6.612006138e-16
6.735501493e-16
6.667658423e-16
6.229391982e-16
6.145838893e-16
6.59372179e-16
6.818299203e-16
6.469100344e-16
6.571314551e-16
6.453809858e-16
6.566212e-16
6.457517418e-16
6.387075408e-16
6.418485838e-16
6.407616165e-16
7.417134338e-16
6.352041359e-16
6.356731648e-16
6.525426719e-16
6.589943062e-16
6.838746296e-16
6.789188225e-16
6.676054393e-16
6.81249648e-16
6.425116878e-16
6.707967892e-16
6.653088994e-16
6.369507992e-16
6.6440207e-16
6.870550045e-16
6.386206205e-16
6.67129986e-16
6.724408514e-16
6.599588746e-16
6.368377225e-16
6.728436601e-16
6.402027256e-16
6.531876695e-16
6.48062884e-16
6.342707757e-16
6.658580755e-16
6.793501528e-16
6.558684045e-16
6.411753415e-16
6.591025252e-16
6.378931424e-16
6.774444231e-16
6.741112527e-16
6.611695114e-16
6.493537134e-16
6.206333344e-16
6.279665124e-16
6.4526595e-16
7.105321209e-16
6.608483391e-16
6.0967684e-16
6.481831661e-16
7.071834372e-16
6.165389254e-16
6.690063623e-16
6.555544389e-16
6.808124351e-16
6.695004107e-16
6.589470404e-16
6.063665541e-16
6.543229273e-16
6.379257484e-16
6.239484534e-16
6.353074604e-16
6.863948371e-16
6.366476492e-16
6.412169078e-16
6.297256507e-16
6.93229652e-16
6.447676357e-16
6.523554525e-16
6.506358498e-16
6.962655478e-16
6.505475368e-16
6.51896481e-16
6.8756569e-16
6.430966434e-16
6.770450378e-16
6.395938682e-16
7.062894248e-16
6.499032286e-16
6.821773968e-16
6.310382554e-16
6.707108144e-16
6.645091683e-16
6.18969633e-16
7.067388074e-16
6.724102509e-16
6.586697228e-16
5.883515534e-16
6.43756392e-16
6.614873505e-16
6.315956528e-16
6.333771457e-16
6.613072001e-16
6.469340766e-16
6.482592357e-16
6.466404345e-16
6.63307291e-16
6.410439431e-16
6.502658269e-16
6.313329176e-16
6.424792189e-16
6.7873586e-16
6.326767466e-16
7.078288969e-16
6.415730294e-16
6.823152041e-16
6.828984817e-16
6.316036727e-16
6.920230535e-16
6.392726191e-16
6.915839647e-16
6.296363783e-16
6.646194158e-16
6.545092039e-16
6.725313845e-16
6.737253217e-16
6.094344734e-16
6.751391214e-16
6.760960413e-16
6.869368843e-16
6.419422784e-16
6.649927446e-16
6.634896127e-16
6.421167745e-16
6.186180978e-16
6.643067076e-16
6.191220854e-16
6.163872727e-16
6.501173281e-16
6.52352887e-16
6.435102027e-16
6.727572261e-16
6.290938176e-16
6.351507818e-16
6.168875286e-16
6.648478794e-16
6.345657123e-16
6.321745633e-16
6.490078799e-16
6.629368128e-16
6.382996179e-16
6.668914597e-16
6.625144583e-16
6.143110121e-16
6.412925327e-16
5.981872521e-16
6.306940522e-16
7.504473321e-16
8.743228813e-16
8.214561283e-16
8.107377164e-16
8.729187289e-16
8.726269855e-16
8.327063838e-16
8.129301603e-16
8.292430468e-16
8.569948089e-16
8.0962823e-16
8.040289966e-16
8.612850911e-16
7.845059671e-16
8.341675009e-16
8.632377164e-16
8.797132841e-16
8.626508451e-16
8.054549233e-16
8.423030404e-16
7.346713704e-16
7.306004302e-16
8.235981261e-16
8.10029692e-16
7.74615098e-16
7.414190468e-16
7.808722194e-16
8.175110034e-16
7.872960154e-16
8.09851953e-16
6.735002873e-16
7.819986647e-16
7.072731073e-16
7.440856713e-16
8.114742541e-16
8.107952679e-16
7.72128405e-16
7.520580475e-16
7.179852373e-16
7.797592734e-16
6.134081956e-16
6.525008056e-16
6.371960408e-16
7.044201064e-16
7.404770257e-16
6.915851005e-16
7.320191321e-16
7.659467556e-16
7.568866277e-16
7.57604853e-16
6.279392943e-16
6.32389592e-16
6.391851452e-16
6.746030221e-16
6.704086706e-16
7.249071862e-16
6.991565327e-16
7.207841449e-16
6.971163796e-16
7.007398947e-16
6.130315314e-16
6.42965278e-16
6.487144605e-16
6.53272047e-16
6.29152228e-16
6.749275577e-16
6.497346684e-16
7.096272665e-16
6.958367904e-16
7.216659099e-16
6.633189251e-16
6.343611364e-16
6.347052507e-16
6.472837906e-16
6.606383041e-16
6.527531012e-16
6.447951737e-16
6.720655399e-16
7.012225654e-16
6.236742556e-16
6.070608396e-16
6.535317478e-16
6.995736702e-16
6.569225205e-16
6.621745976e-16
6.816655521e-16
6.681281193e-16
6.578624024e-16
6.063965839e-16
6.655701052e-16
6.24121393e-16
6.246078579e-16
6.144708164e-16
6.415383036e-16
6.939916079e-16
6.514119101e-16
6.22743182e-16
7.101629377e-16
6.927347388e-16
6.354998597e-16
6.638511337e-16
6.232376173e-16
6.549548096e-16
6.462587339e-16
6.516259918e-16
6.473468686e-16
6.313465342e-16
7.064519553e-16
6.588311001e-16
6.670247202e-16
6.708580752e-16
6.558286545e-16
6.774187495e-16
6.035542118e-16
6.40011969e-16
6.561856142e-16
6.58089959e-16
6.38628817e-16
6.780474655e-16
6.840653894e-16
6.515198181e-16
6.715600757e-16
6.603499315e-16
5.994947741e-16
6.437982317e-16
6.460129771e-16
6.510413083e-16
6.61156976e-16
6.418521398e-16
6.345624436e-16
6.487677905e-16
6.590841884e-16
6.53424955e-16
6.788420499e-16
6.197776879e-16
6.650631525e-16
6.400717444e-16
6.143846088e-16
6.415458776e-16
6.424118606e-16
6.06555077e-16
6.644737133e-16
6.290296816e-16
6.471428557e-16
6.488573231e-16
6.324075693e-16
6.359320129e-16
6.464364755e-16
6.59939396e-16
6.301658513e-16
6.757250936e-16
6.789291416e-16
6.653598355e-16
6.638283586e-16
6.591516986e-16
6.161222985e-16
6.31150477e-16
6.700558954e-16
6.434957944e-16
6.454229581e-16
6.279739104e-16
6.505722374e-16
6.427734961e-16
6.219771888e-16
6.522856877e-16
6.499594997e-16
6.491396983e-16
6.31264249e-16
6.519426089e-16
6.525513635e-16
6.706285079e-16
6.456072184e-16
6.367419333e-16
6.291231584e-16
6.394163187e-16
6.242045074e-16
6.400727289e-16
6.835985586e-16
6.855747009e-16
6.520238059e-16
6.521142621e-16
6.193659431e-16
6.294134074e-16
6.310835505e-16
6.198074998e-16
6.191348774e-16
6.575673965e-16
6.141657648e-16
6.307603362e-16
6.839738179e-16
6.711892812e-16
6.309521213e-16
6.165101299e-16
6.709152058e-16
6.35418273e-16
6.323040931e-16
6.630554532e-16
6.757845198e-16
6.547283221e-16
6.621787623e-16
6.128102742e-16
6.85346992e-16
7.336718706e-16
7.943908145e-16
6.768073035e-16
6.870964479e-16
7.228144449e-16
7.610670286e-16
7.222704181e-16
7.716089456e-16
7.593943913e-16
7.310848069e-16
7.388882626e-16
7.928644581e-16
7.581049684e-16
7.395672393e-16
7.730152073e-16
7.906991694e-16
7.72121119e-16
7.86050747e-16
8.484199712e-16
7.650946896e-16
7.863914309e-16
8.22925497e-16
7.423031692e-16
7.741478878e-16
7.931700686e-16
8.345037099e-16
8.370196056e-16
8.094522592e-16
6.658138819e-16
6.985006145e-16
7.473508304e-16
7.076244743e-16
7.351295475e-16
6.869129239e-16
8.377436806e-16
7.032797648e-16
7.725670073e-16
8.183175159e-16
8.234940362e-16
7.815234453e-16
7.914322172e-16
7.811092708e-16
7.964065476e-16
8.550447751e-16
7.977527433e-16
8.234614462e-16
8.690273241e-16
7.932279981e-16
8.017640535e-16
8.317879967e-16
8.328933265e-16
7.831340454e-16
8.07380622e-16
8.473546324e-16
7.973458622e-16
8.075756217e-16
8.342254574e-16
8.182184486e-16
6.634168761e-16
6.977871774e-16
6.129392361e-16
6.106773296e-16
7.073115099e-16
7.053629302e-16
6.335124031e-16
6.620547315e-16
7.463132124e-16
7.330710808e-16
6.796465934e-16
6.859240233e-16
8.0099597e-16
8.067073051e-16
7.490724585e-16
8.113328753e-16
8.313901718e-16
7.301514401e-16
7.69506984e-16
8.673664339e-16
7.455434596e-16
7.869739285e-16
8.901756094e-16
7.926824658e-16
7.48624835e-16
8.171218509e-16
7.823113915e-16
8.089615787e-16
8.663036641e-16
8.493693321e-16
6.429199998e-16
7.775122155e-16
7.00258046e-16
7.221934427e-16
7.189996179e-16
6.87524239e-16
5.734323947e-16
7.443378366e-16
7.136068351e-16
6.673147843e-16
7.048148305e-16
6.69290852e-16
6.528452894e-16
8.012646693e-16
7.703330368e-16
6.73607992e-16
7.337075383e-16
8.899647681e-16
7.631867123e-16
7.278165563e-16
7.682492415e-16
7.130110688e-16
7.124715611e-16
7.605607821e-16
8.217964342e-16
7.853116205e-16
8.126791199e-16
8.065864424e-16
9.209907041e-16
9.025977251e-16
6.33819644e-16
7.343260008e-16
6.709770359e-16
7.04843732e-16
7.98243488e-16
7.433096134e-16
6.308097887e-16
6.728595473e-16
5.734055343e-16
7.19014099e-16
6.877749598e-16
6.439924727e-16
6.59051123e-16
6.284145708e-16
6.621288661e-16
6.941174164e-16
7.787636016e-16
6.886688881e-16
6.790354361e-16
7.40493884e-16
6.936914975e-16
6.899096098e-16
7.139140694e-16
7.402914648e-16
7.346473498e-16
8.111118764e-16
7.208589101e-16
7.701777296e-16
8.75124957e-16
9.104401761e-16
6.814132531e-16
6.67379917e-16
6.849665602e-16
7.259394339e-16
6.259344994e-16
7.13614746e-16
6.641793751e-16
7.247333316e-16
6.744045548e-16
6.55412155e-16
7.390904814e-16
6.801677376e-16
6.326204242e-16
6.02498552e-16
6.214165042e-16
7.322869733e-16
7.630409415e-16
7.170062387e-16
7.163001343e-16
8.436001886e-16
6.646733404e-16
7.187762148e-16
6.898115419e-16
7.247774348e-16
7.279900813e-16
6.929597485e-16
7.390477722e-16
8.010279474e-16
9.252112958e-16
8.481585985e-16
6.798037395e-16
7.956136072e-16
7.545300297e-16
6.360124097e-16
6.404569312e-16
6.843656601e-16
6.894778284e-16
7.404256787e-16
7.404150687e-16
6.747854094e-16
7.451299989e-16
6.817586401e-16
6.672290454e-16
7.407947019e-16
6.509891603e-16
7.377887272e-16
6.941624734e-16
6.803503753e-16
7.600966187e-16
7.137688918e-16
6.739390968e-16
7.169301551e-16
6.836694461e-16
7.388276317e-16
6.910042969e-16
7.247521674e-16
6.923337823e-16
6.524406152e-16
8.312545547e-16
9.081929396e-16
6.940154365e-16
7.450860297e-16
5.532741748e-16
8.227157066e-16
7.709969159e-16
6.74672e-16
7.400106015e-16
6.687107166e-16
7.493168915e-16
7.034889334e-16
6.912876696e-16
6.06104249e-16
6.772830034e-16
6.388387179e-16
7.152253194e-16
6.328501292e-16
6.236054141e-16
6.805350139e-16
7.121040001e-16
6.962893621e-16
6.854948526e-16
6.941917835e-16
7.37163309e-16
6.568601637e-16
6.735444467e-16
6.273563238e-16
6.628699925e-16
7.724074633e-16
8.034417359e-16
9.072369194e-16
7.064060329e-16
7.030740318e-16
7.44087384e-16
6.760214159e-16
7.088908875e-16
6.691139879e-16
7.711224577e-16
7.062685389e-16
7.465278555e-16
6.788723566e-16
6.21400587e-16
7.248670782e-16
6.861588702e-16
7.593528365e-16
6.324358331e-16
6.431273715e-16
7.88931253e-16
6.281790937e-16
6.072844852e-16
8.724112694e-16
6.769264307e-16
6.886053724e-16
6.959580091e-16
6.625011351e-16
6.20465744e-16
6.712025768e-16
7.00414695e-16
8.202206879e-16
8.249906224e-16
8.416341069e-16
7.579205547e-16
7.777004779e-16
7.867320832e-16
7.715809027e-16
7.062362372e-16
7.516795854e-16
7.971186529e-16
7.433157413e-16
7.029636618e-16
6.86037325e-16
7.192163478e-16
7.787518855e-16
8.03846457e-16
8.021978276e-16
6.508114504e-16
7.784671478e-16
7.73621407e-16
7.264948405e-16
7.46496374e-16
6.921941909e-16
7.422320504e-16
6.240551634e-16
6.966083232e-16
7.066349981e-16
6.967358776e-16
6.429004157e-16
6.475185985e-16
8.238644808e-16
8.41541122e-16
8.139196982e-16
)
;

boundaryField
{
    inlet
    {
        type            zeroGradient;
    }
    outlet
    {
        type            zeroGradient;
    }
    wall
    {
        type            zeroGradient;
    }
    frontAndBack
    {
        type            empty;
    }
}


// ************************************************************************* //
