/*--------------------------------*- C++ -*----------------------------------*\
| =========                 |                                                 |
| \\      /  F ield         | OpenFOAM: The Open Source CFD Toolbox           |
|  \\    /   O peration     | Version:  v1912                                 |
|   \\  /    A nd           | Website:  www.openfoam.com                      |
|    \\/     M anipulation  |                                                 |
\*---------------------------------------------------------------------------*/
FoamFile
{
    version     2.0;
    format      ascii;
    class       volScalarField;
    location    "2e-05";
    object      internalE;
}
// * * * * * * * * * * * * * * * * * * * * * * * * * * * * * * * * * * * * * //

dimensions      [1 -1 -2 0 0 0 0];


internalField   nonuniform List<scalar> 
1300
(
1915.872826
3342.864055
717.9875239
15086.25279
12863.72753
4246.671568
4822.710994
4190.719919
12292.34647
15547.40501
829.3061749
1389.330887
6841.965897
16172.64122
11620.46218
2830.191717
5148.909469
15489.05678
10872.59787
6775.201876
476.2676456
1069.198438
706.5740481
15719.86794
8991.832714
980.0546538
2151.078132
3953.970345
6052.938916
8649.688209
5.405408971
197.215007
2665.386011
10380.5742
14345.82543
4422.593681
4127.364158
8703.064397
2510.721168
9772.925662
0
167.587859
1302.962252
11370.01722
6183.217229
9806.775691
2212.914612
6725.239386
6292.081741
4243.310197
551.3275964
0
1080.304306
8007.401017
10111.88606
2184.250258
5443.019492
4939.74239
8324.911074
6382.0637
489.8273991
0
3082.06789
3102.863341
3501.722266
3847.760251
1615.924758
2700.125921
1951.66746
3802.341878
0
0
5757.713597
6631.338872
7752.371354
2154.278811
2626.878951
8417.080813
4703.129061
4649.455306
0
1323.199382
2121.410172
8530.29623
2463.169493
374.3024181
1898.754203
4187.033627
4081.211814
937.4849875
0
0
749.4078853
11499.15411
4715.11376
509.3244542
4206.648154
5285.964459
2837.365348
2762.649558
0
0
450.5327236
6481.942225
4254.063623
1094.513683
4694.463116
9377.37455
5907.027333
3996.947168
0
0
4447.956032
7298.221012
7905.576501
1248.518015
1711.568047
3621.541262
3621.48367
6573.923298
200.9912146
0
1340.202875
7945.451882
3802.640747
2252.427255
1558.361238
7780.996469
1560.061601
7409.161468
0
0
526.3319137
8160.79697
11237.92101
1596.462276
3110.229494
9295.443122
2760.943985
3696.652356
0
0
694.8958802
4452.825623
1250.041174
2616.709925
2267.976503
6168.729775
8301.123424
3397.223097
0
146.6734131
5556.899787
10310.61549
3682.424686
721.3256814
2299.480273
5902.916043
5720.710754
3026.835682
0
0
2088.781726
9314.545046
3419.600032
622.2544633
3346.201959
4356.724921
7565.056048
4047.861351
0
0
1479.194888
9015.585138
4039.326628
1201.320288
10593.6901
4160.51107
3889.329855
5450.288903
0
289.2071096
654.9084061
7019.461613
4340.53915
0
2343.705503
6399.111714
4400.421208
4281.918372
0
0
472.1208868
12247.13508
3951.08387
2314.669335
2121.154805
5984.365224
4820.184706
5442.578584
10540.12862
5284.124582
8788.72039
3536.98725
2584.074992
887.2969578
5324.298253
3922.084788
4610.533126
4556.915426
2475.917955
1182.47519
37.49979536
5691.259963
3280.490497
3024.436743
1274.098374
1447.824535
2331.724704
94.22679803
849.1191956
634.8630884
80.78896588
437.5088459
5566.101989
3023.721221
2800.407068
3273.815333
868.8383543
5329.474868
3934.599054
6189.043144
4781.063757
3372.302917
1205.704705
2425.241363
3892.772838
1507.521401
3072.197404
224.3248038
89.42256973
2810.602527
5758.048691
2320.211456
420.0942373
3003.36099
357.6210457
4835.461261
2432.059307
2409.603344
2556.517491
0
1974.804994
2995.270496
4486.312516
2759.224044
1142.111119
2611.981286
3655.680816
13686.09497
7592.36217
11821.15378
644.6609683
5585.61457
2407.94391
6966.311645
3698.309384
2617.540715
1534.1136
6866.432767
5071.876791
2118.734713
2299.286992
5653.281992
792.9059922
1940.032537
0
1568.553466
963.0139628
486.0669892
156.6544069
423.5436342
1437.232132
0
2661.323246
1748.984639
3442.757391
3797.412765
2308.061565
2211.056193
6827.127307
4904.622947
8660.722065
4718.784302
1831.993776
6722.182976
2848.688452
3525.601817
2157.145731
2297.263465
2100.396222
1191.036581
4127.347055
1041.589756
2462.412413
3828.851974
220.7959952
61.07301799
2851.95072
1742.298828
1545.21521
970.4146076
169.1098353
210.595281
2343.550915
115.2277726
2133.558704
3624.823852
1960.031247
7945.624835
9931.350822
2422.826429
9684.344053
7446.776658
9126.271197
7001.996801
3608.362144
2134.98531
3642.399069
193.8166869
4026.907955
7120.208191
1585.609255
3161.536302
1010.260183
5854.21197
3791.187984
1419.948275
4313.994774
1804.705163
3336.033511
2226.717525
270.5560788
989.2849264
2535.316173
2794.133295
3022.761777
2926.797197
1709.701869
2361.514558
6591.014756
4685.890374
9343.176132
5273.760442
7992.826565
5484.499555
5104.10017
1717.772138
6899.314137
3929.858611
3868.472395
1216.484909
3994.70109
1150.686277
3321.53874
1433.891046
1479.97984
5888.892657
4209.025216
4549.457619
2985.185543
534.7343867
2198.589447
2463.865231
2401.75825
1385.770147
1610.453805
2621.878159
4219.315694
3993.346881
4007.136809
2757.032291
9123.267698
7499.111326
4232.224853
7983.23022
7624.724999
7811.697628
5065.170489
3274.205202
4905.40909
3612.975754
6627.459012
5547.771566
2260.03443
3975.133501
3889.963872
3149.35084
2072.529558
1286.415635
1175.716205
993.0394102
2249.577682
2727.934922
1938.89857
2499.985268
2874.580542
1504.144902
2593.520809
2838.043408
3635.798418
4535.749577
7006.791943
7682.565289
7734.88854
4663.632154
2233.165106
7118.806365
8530.67012
6523.360565
1646.317236
5667.528052
3081.667733
1178.178672
3018.564
5017.365618
2074.320474
992.7111846
2914.286549
2024.839813
4086.600599
3505.613707
1742.605587
2146.286556
2650.597693
1378.652906
1520.314829
5926.29521
1330.515601
3511.511131
3969.344229
5376.750247
6082.904367
7795.784397
4717.238451
4091.149813
7575.14441
5834.612661
8988.663493
7268.548485
5967.275611
3506.314016
5068.153205
2954.592855
2061.053373
6209.515996
6019.945205
5972.221362
4385.535109
4478.19194
4898.618945
2214.369766
2105.834384
4245.805111
1421.203337
2342.159955
3707.723192
3792.194596
3407.799557
4061.77793
6238.673203
5523.223081
4672.078867
4067.081842
6630.930208
8127.649944
9479.291089
7316.946442
4714.689699
7579.112168
4047.404416
3884.066167
3963.653209
5678.121461
4749.016517
5638.806334
3787.634327
3274.190148
3301.482653
4065.701416
5084.491974
5789.909583
7718.754799
4059.736901
2522.081864
3452.276021
4460.500983
3593.676028
2090.123689
6802.925155
5176.090746
4819.253037
2726.616733
1958.205184
3388.033867
7952.004735
5747.254521
6947.981324
6822.746114
8316.444196
3566.715541
1571.227653
6956.987562
6703.122729
6555.192789
2806.792916
4377.947872
3142.082827
1885.781218
3931.187176
2468.809589
6455.196942
5133.351427
5267.345181
4055.526
6100.807056
7748.65432
1222.255474
4580.167883
5015.928326
1445.626671
4809.067756
2841.000212
4878.261889
2218.092092
5644.300356
10721.07805
4280.265653
3656.878665
8133.664194
6179.278809
10993.28246
6683.698972
5206.736985
6551.444827
7970.965528
3544.551666
3050.904381
6548.684905
2811.163489
4142.77928
4734.439163
4917.534662
5472.102049
230.9315401
3920.859946
2490.177697
4776.705536
4537.767978
3014.01151
2702.105576
3183.00714
3883.894175
3479.088745
7449.992075
4060.524845
3401.750323
3772.513837
3402.321637
3905.673827
4908.675565
3591.126688
6143.703691
1300.513331
3560.156439
5882.509268
7333.069859
4961.054962
5034.875923
4986.475519
2864.584162
4348.295732
4086.162902
3787.573881
2805.417504
6675.339293
4512.270357
5615.18386
5692.479771
5742.349904
5366.406597
4620.485058
6466.137424
1471.200423
5107.249638
3933.125509
3869.77864
4783.291699
3419.243705
5487.415102
7674.225124
4513.093246
6065.679404
2221.967466
6512.260532
5566.901258
6640.721145
7148.750283
4657.894874
7802.813833
3743.174594
3533.880404
7832.457305
3490.359262
4867.046293
4710.202335
4937.448443
3300.780606
6016.625154
3976.153297
4249.681113
4929.337431
4140.700506
5163.508326
2291.530666
2422.736186
4817.207322
3047.174459
3369.054712
2080.041796
4337.193632
3122.444358
3871.366135
5923.835891
1656.968851
4933.089973
4855.447079
5059.380396
3221.453464
3381.770546
3970.984872
5085.28173
3847.872997
6515.446231
4035.412571
3472.697462
5460.808527
6359.90972
3184.270032
1125.560778
2289.625148
2158.997466
4074.007157
2730.305251
5522.771992
6518.929779
2341.770918
6288.144275
3323.867719
2399.279731
3197.130979
1794.371621
2563.924429
5081.233377
5870.988448
2681.650566
4340.504127
6746.807947
5097.691318
6538.144627
4004.330709
6004.403941
4241.967336
4025.94454
1671.104728
4958.712997
7154.424101
1052.976569
3799.976418
2757.808738
3193.648042
5120.316491
5418.202161
4708.385773
5231.641494
4970.713101
7273.688538
7114.13878
2276.031836
5503.382381
2766.690295
4875.536003
8077.156725
3335.94361
5406.460934
2519.836853
5821.95553
2908.257236
6829.119723
6304.182891
5177.086635
3500.567606
3740.771635
2757.807733
4806.954826
5747.860628
4045.738127
3485.683761
5404.213711
2853.335829
3762.355414
4487.437754
4410.707601
3944.746417
5765.290607
3002.340072
4347.316083
3410.457207
4502.139026
1901.126059
8593.952268
5342.946436
6066.345561
2644.691962
2299.847301
5450.981495
7771.384516
5406.723317
3345.303897
3948.421607
2784.234156
6785.052268
2682.54746
4315.855954
6552.526833
2224.962521
7869.777699
2955.972582
7573.077044
8915.408502
2781.480983
7235.364382
3565.68578
2865.746244
4339.966868
2633.19463
7647.052769
1528.709174
2980.009327
4475.960382
4239.578062
2619.942332
4160.014432
5085.814889
4305.714153
7083.734475
5427.564066
2772.121341
3158.883929
4951.443383
4591.764297
6082.240774
5158.927634
834.8821655
2926.166273
3772.751188
4436.567562
7297.517249
5108.896986
3056.864217
4442.454539
9402.428571
4601.730007
4009.333119
2285.062608
785.4102902
5974.785624
4227.47902
3104.237675
2699.03382
2856.143887
6389.668167
2887.408428
2728.880862
6519.189821
6624.374987
3414.544186
3061.464624
4422.950336
4808.176625
5014.451541
5601.987191
3228.089778
4490.505407
5066.848362
7745.918931
8007.749728
4887.567101
3165.178756
3563.612501
1659.384712
4828.731851
3003.327814
10120.2959
8340.21391
12613.38337
12979.00026
7532.259948
15425.01403
4980.793178
16396.67905
7719.784964
5853.28068
8705.514826
10879.98032
6798.278146
9193.776789
22470.31379
10886.66579
5642.014634
8459.13178
4619.691853
8909.867907
4888.544832
13310.86279
8494.305851
7269.952014
5996.38101
9346.631844
4629.897758
6178.56887
1344.700824
2042.386963
4726.552402
18587.18793
13232.57723
12423.85683
11038.21134
8818.679213
15868.04551
4659.937833
1999.280736
2060.728349
7182.905027
9265.696876
7806.633612
5765.235193
6717.12201
15303.2144
4673.883051
4451.827651
4273.121029
1186.655437
1815.831142
5109.433506
8679.388836
11270.2072
11262.66254
6865.32854
7906.332016
4181.868038
2723.140264
2235.117696
4940.444411
2864.418713
4025.264921
3763.962415
5415.102984
3850.151275
8688.366506
3446.119839
4180.496838
3311.042486
2274.962371
4062.332237
5508.926256
7900.499852
3940.610656
10464.11946
2719.337774
3446.221602
2355.730026
2173.814372
1003.890682
3919.802084
1315.10194
3915.803954
1281.306388
2858.17551
2772.551468
4700.511745
5084.87444
3613.431937
2455.18088
1578.487844
3922.672171
3591.565286
2068.803555
3067.98256
4064.53848
2972.248491
4135.922652
2562.692404
2927.738888
3928.497011
5412.729987
341.2747505
4522.948563
6348.580469
7325.692899
7099.183135
4374.985832
4930.520218
4580.663096
4287.050904
3707.932024
3429.063446
5317.679604
5440.195796
6977.808261
3392.175805
7051.124416
5285.809794
4672.291758
2198.327888
2624.364137
4416.605827
3862.975104
600.9726091
2337.432924
2273.75648
7132.301926
2062.131943
1993.747959
2542.591311
4108.996148
5349.432772
4493.8086
4215.894008
3478.688125
7896.382903
400.2423906
4435.295311
5563.867349
6296.00087
7335.482819
4223.037697
4022.592659
3932.272707
6440.576444
1592.411525
5290.073906
3045.887593
4839.345237
4070.397718
4993.066893
1938.715506
4437.325986
3504.776432
4256.099987
2234.723814
3282.835745
5463.48
7670.03002
3503.686674
3250.46116
4015.150807
3141.724646
3015.727458
6490.389715
5120.936629
2336.383787
2835.421462
4185.487944
5017.387406
3244.913658
1810.88754
2430.323072
6929.297646
2798.103282
5552.965763
6938.745144
4557.714779
3912.075596
2304.63931
2956.013324
3275.386458
3848.062268
3025.242127
5844.230066
2923.669644
4742.920641
2956.366389
5348.216779
5722.984155
5951.738641
1895.015322
2348.544011
5458.088709
1804.884382
2067.579748
3143.363795
3191.394618
1596.781528
759.0287715
2165.20966
2655.157421
5940.981484
534.3228046
2278.771564
840.5769471
2567.343106
5870.751186
5101.775852
1371.472147
192.7544226
6621.099367
2818.211319
1372.296092
1432.301853
2854.963324
4869.397728
1251.29564
9934.0914
4118.259608
1348.17692
7888.175064
9926.079695
9570.453946
1221.290983
3828.942967
4049.320284
6062.787234
4101.611023
1417.833701
5507.2403
5768.071983
1167.70956
819.6025096
1193.987639
383.5634032
1715.630212
1523.701318
1602.423094
2622.903757
1484.924419
3539.823957
4971.009568
5140.66878
1581.384718
2704.945275
7683.376685
1475.635787
2957.969773
4887.669841
7392.861751
8371.674191
2800.420002
9420.074956
3430.955716
1086.028792
2474.085461
5161.453339
730.2742443
1163.557666
2437.026112
389.5209985
4380.359295
7557.58073
3733.167795
1649.641182
2406.358593
4116.12607
338.9533552
52.46021568
1318.042338
2684.712079
3610.363848
1481.342556
5514.903294
3699.903639
1668.640591
2599.799936
2163.811557
771.0489643
4594.84798
8360.729247
10300.56687
9297.651413
11352.70113
2315.304475
8221.370994
1839.512406
4445.350537
3219.273148
4846.13251
966.5905183
408.3364893
5680.827614
2381.262969
2721.894078
1060.832114
815.421962
3665.952076
2138.667555
1420.27976
1969.910967
3987.939128
1447.241805
423.5140937
3472.003322
4638.47877
2510.465138
459.7583275
0
3224.671672
1982.097683
3643.328971
11815.37491
8407.671499
905.4297308
3261.574749
4469.5047
5881.12517
1997.579382
1121.092211
666.2737715
3265.82761
950.0009573
1289.955778
3479.453516
4798.832853
976.8733171
2174.882566
4315.159654
429.767673
4917.824525
383.9172355
4030.708209
1511.653297
119.0971812
0
789.5124715
2384.923404
5067.865315
4.702584992
1594.214635
3032.646535
3370.483971
13482.03726
1820.368144
1804.738331
1710.456087
1041.64868
812.8598493
1090.704563
1536.511495
534.620493
1695.243044
2736.722858
258.0688317
0
389.7885945
349.4652454
396.8874627
459.5866657
4108.235456
4276.296474
75.43926539
235.4758766
3944.421827
5669.169392
1098.967341
6302.218837
2025.862764
3987.245096
47.80263522
1238.436174
15355.04512
13633.73105
1492.904434
5529.744392
7355.175604
1083.680378
353.3349612
3106.935205
539.3348817
2672.055402
6547.866871
4512.545292
8763.00671
4372.122467
4030.381812
817.3106619
743.0003202
3256.483484
3570.13581
994.5059287
2865.909336
2287.851106
3486.733039
1195.220772
4314.233338
6850.577518
5373.737596
5254.683617
2601.001403
4973.901135
4798.080361
11024.12679
1176.826999
1575.296198
747.9627263
4475.708933
4917.665569
1981.595812
4399.899807
642.8560175
4339.197865
2449.242303
2574.205782
624.3224997
5715.716742
2187.865609
70.42644975
700.6933668
2789.288972
0
465.0866375
2447.109865
2562.47031
630.268462
3264.240104
0
2121.12478
1513.235911
2649.079181
3514.052787
8899.512091
7847.565636
1686.957081
1329.899576
5355.986408
3262.577161
4256.074448
944.1805569
1703.574529
6445.57833
5736.200616
3221.665744
347.6257278
0
2170.054169
9064.680186
2410.61845
3749.402281
4904.233383
2153.110658
0
9013.82533
377.5208041
1409.218056
7764.462628
1153.66
318.9651369
655.658456
5402.009389
3105.826009
8910.050601
13471.21209
377.7777251
6673.44953
1483.867896
5585.633797
3649.607383
7266.37554
13624.21122
1817.689795
1530.518571
7723.337153
4578.461251
3799.394727
7998.387362
8405.452443
3200.319636
2853.277587
777.7900683
2669.340776
128.7330277
1501.371021
2962.378771
0
933.5172104
4968.64148
1978.757095
3403.45897
211.3083647
2247.063179
10204.43274
6499.285046
)
;

boundaryField
{
    inlet
    {
        type            zeroGradient;
    }
    outlet
    {
        type            zeroGradient;
    }
    wall
    {
        type            calculated;
        value           uniform 0;
    }
    frontAndBack
    {
        type            empty;
    }
}


// ************************************************************************* //
