/*--------------------------------*- C++ -*----------------------------------*\
| =========                 |                                                 |
| \\      /  F ield         | OpenFOAM: The Open Source CFD Toolbox           |
|  \\    /   O peration     | Version:  v1912                                 |
|   \\  /    A nd           | Website:  www.openfoam.com                      |
|    \\/     M anipulation  |                                                 |
\*---------------------------------------------------------------------------*/
FoamFile
{
    version     2.0;
    format      ascii;
    class       volVectorField;
    location    "2e-05";
    object      momentumMean;
}
// * * * * * * * * * * * * * * * * * * * * * * * * * * * * * * * * * * * * * //

dimensions      [1 -2 -1 0 0 0 0];


internalField   nonuniform List<vector> 
1300
(
(-0.237047196 1.746549666 -1.13750804)
(0.2573854475 1.584058808 1.200722242)
(14.50929536 2.609422349 0.736361174)
(87.08241899 3.890884207 0.5300806502)
(44.4952217 4.031435368 -1.828043099)
(16.26073653 1.697689697 0.6297530009)
(33.42620051 -2.487829156 -2.563647454)
(37.98154417 0.1290190118 0.0992714381)
(24.64634906 -0.7210944464 2.451306505)
(33.08561265 -1.051568846 4.612876483)
(-1.485005961 4.311008102 2.021415373)
(1.16584237 5.858664212 0.8813182496)
(36.28405546 13.41079841 -1.695087994)
(167.9649778 27.31892845 -2.520623261)
(92.51746714 15.73147877 0.2803324102)
(34.34758217 7.886862083 -2.330469121)
(54.53187405 9.861281794 -2.507610088)
(74.37500586 9.534899047 0.922307708)
(57.32429723 8.215430751 -1.180182265)
(42.10884683 8.38334513 -0.5020700474)
(-0.7925024708 2.21418215 -0.06437250096)
(0.2360485313 2.491190062 -0.2004111552)
(33.28564066 9.408798582 -1.354497352)
(193.5719879 27.43085197 -1.408269077)
(100.2410258 17.11377412 -0.1696178607)
(28.88188293 6.051117006 1.576200068)
(86.63296697 16.31989851 -3.347381934)
(112.086334 12.6153385 -0.9512102971)
(77.82896579 17.75477651 -2.351481953)
(56.43788094 10.04577773 -0.2218386132)
(-0.04749177924 1.687357346 -0.2417575859)
(0.1564139716 2.503511097 0.5573173731)
(37.4465328 10.54566693 -0.1834456491)
(176.5941949 29.16196408 -3.424461385)
(95.65264903 16.1032696 1.418134181)
(25.63784624 6.341145925 0.7601956554)
(86.44819629 21.67736787 -1.316732553)
(137.9642112 22.9267732 -0.02679992604)
(77.78305483 13.84035622 0.2549496216)
(76.09882071 13.64375452 -2.720889285)
(-0.02142263126 0.5608035474 0.06876807365)
(0.3460086319 1.722861001 0.4209177024)
(34.64322826 6.557404234 -0.2302468705)
(180.5380639 28.59751889 0.698269617)
(117.0596589 13.65046348 -0.1752506266)
(40.58757745 8.39879514 0.3720153898)
(83.80028721 17.19421787 -1.102911777)
(111.232949 17.09269609 -0.6948924395)
(95.58427776 16.43162378 -0.4883106689)
(75.57258536 18.18557292 -0.9371730169)
(-0.09053008754 1.084037764 -0.1478728539)
(0.2367985415 0.593166349 -0.0771388723)
(34.88110836 5.921353669 -0.9525376355)
(189.9320235 26.86366281 -1.988910885)
(105.082847 16.64481883 -1.593255562)
(42.7972384 7.318660371 -0.1976007233)
(93.10195846 16.71147953 -0.06064296581)
(133.1853629 19.49497473 -0.9685833302)
(110.8986465 16.17104271 1.772510214)
(80.24246883 12.76651352 0.366581998)
(-0.01397798821 0.6347859036 0.002874587046)
(0.6317087687 1.577884486 0.4147296332)
(28.85043689 5.808376689 -1.684972743)
(174.3411967 24.572488 0.8374578719)
(93.2127054 9.889612123 -0.4826418569)
(29.1040889 6.917636378 -0.0910038043)
(83.39427954 11.98041525 -0.2561110861)
(99.14962218 14.35774562 -0.6391596779)
(86.88378368 13.83994524 1.049761584)
(90.50940383 19.71064945 -1.500345761)
(-0.1748496856 0.8254915006 0.08434815974)
(0 0 0)
(43.85028506 9.492064623 1.400340259)
(171.7934404 21.6711495 -3.259723845)
(88.91734328 13.30913764 0.488515739)
(43.11872108 7.154987374 -0.1836352075)
(75.15722572 11.86172697 -0.5529244899)
(121.9242511 16.58405612 -2.820685571)
(82.68216652 11.54379985 -1.357628258)
(70.40231945 12.25822512 0.1244846558)
(0 0 0)
(0.5585544068 1.135523056 0.268142658)
(38.08094214 7.469739257 -1.179031571)
(204.6904346 28.53903763 1.220669201)
(79.2585707 10.81629893 0.4925651422)
(38.34629952 5.900323675 -0.8317575911)
(94.82541893 15.58685585 -1.486051082)
(116.0507141 15.43363203 -0.84793359)
(98.49376642 15.99149872 0.07595837758)
(68.4188459 9.792890982 -0.7863774997)
(0 0 0)
(0.3765875943 0.1482663686 -0.1433232503)
(31.79918179 6.930492626 0.342620697)
(184.5733484 31.41400545 -1.064307899)
(84.40777783 11.36992602 -0.9447377901)
(33.67146605 5.485451464 0.8218631345)
(78.95924402 13.94041208 2.431670166)
(115.5084812 18.08673777 -0.5803067427)
(78.32269427 10.155754 -0.2681493615)
(81.78671242 12.78099574 -0.2313737901)
(-0.05309930409 0.6794926166 0.03349905214)
(1.278949397 0.6092001654 -0.2659943175)
(31.24006332 5.455294985 -1.008106128)
(192.3241179 28.91300658 -2.740917973)
(94.64629988 11.59181065 -0.1366977483)
(37.91817192 6.413719262 -1.573114571)
(81.41760899 13.00811201 -0.8173679727)
(111.7564763 16.89233683 -2.61668799)
(81.37368504 11.96619058 -1.556544257)
(71.9844694 12.15012609 0.5153357045)
(0 0 0)
(1.775740316 -0.34533722 -0.2278360214)
(44.07689971 8.592980919 -0.5649354921)
(159.7507151 23.6945856 -2.107027346)
(105.8472537 14.30775593 -0.9849947984)
(42.02267328 8.646708486 -0.5003363925)
(93.65179363 14.42379501 -2.144260383)
(104.7511692 18.0822819 -0.6000075098)
(97.62264786 15.61705698 -1.687679337)
(101.8103856 15.66113209 -2.629937189)
(-0.05309930409 0.6794926166 0.03349905214)
(1.152489846 0.03511453482 0.5727898568)
(31.7488152 7.670722907 0.2536556973)
(185.0161431 24.6759905 0.704054146)
(101.5221927 13.56959886 0.1777893407)
(41.18317086 7.928734018 -1.796380375)
(77.88181313 11.43823656 0.554969375)
(123.0595293 20.46218776 -1.24803622)
(83.31712716 11.46437272 2.420725069)
(77.86225905 9.580021155 0.6862834716)
(0 0 0)
(0 0 0)
(29.17201611 5.504366877 -1.832900624)
(175.4116805 28.38614824 -3.54539142)
(101.6217407 11.69420053 -3.768449723)
(28.4606992 6.785426233 -0.2844915177)
(86.96971863 12.52058241 -0.4383923995)
(106.501236 16.85369316 -0.3097918567)
(71.65318481 9.897540961 -0.469789073)
(87.66947433 11.94927212 -1.563148136)
(0 0 0)
(0.9481288125 0.2382104442 0.1123010865)
(31.13491162 5.821068969 -0.4702937255)
(177.3799463 28.03463976 -2.714769424)
(96.08524573 12.54385223 0.6265534693)
(40.43685621 5.906116801 -0.03980863749)
(86.41906404 13.08629494 -4.634766278)
(113.3229008 19.50561219 -1.083645393)
(101.1410388 11.59496187 -0.6900415446)
(76.57089495 10.97107215 -1.566741013)
(0 0 0)
(1.395227429 0.3008369759 0.3414966173)
(37.35302176 6.853929977 1.045165424)
(195.7357047 27.8142946 -3.51664075)
(88.11487082 11.6577284 0.02651830705)
(38.34208402 7.51126156 0.6251445485)
(92.87148225 10.76346321 -1.461981773)
(120.3593974 16.12658148 -0.5924620929)
(89.09760484 12.87302037 -1.160265413)
(76.51058718 11.04326094 -1.725531109)
(0 0 0)
(0.4520805285 0.2816566293 -0.1469070568)
(38.00489116 6.959967073 -0.4748816552)
(182.9550171 30.13005328 -2.828004398)
(89.651596 11.00952303 -1.682187056)
(34.95927584 4.829713206 0.07444606061)
(85.43628124 13.97081472 1.3758394)
(109.9218723 16.89548909 -4.870815391)
(86.63335191 11.94394926 -0.05682901546)
(77.5142929 12.56566831 -0.2978571514)
(0 0 0)
(0 0 0)
(30.30107132 5.500353671 -0.3680003734)
(185.9469646 28.68909626 0.7166909145)
(99.19746242 11.5136561 0.2339596207)
(45.70886389 10.28871698 0.5183645511)
(86.89248108 16.66043458 -1.709142566)
(120.2714642 16.52136423 2.274075943)
(80.24543723 11.07671762 -1.496999972)
(72.27790064 11.99521214 0.2644391182)
(0 0 0)
(1.256628233 0.3327272402 0.4103779079)
(41.27353514 7.826578231 2.004632269)
(174.2864273 22.40261507 1.798618664)
(103.9177039 12.99243485 -2.788290069)
(47.01631251 6.646124486 0.9240434051)
(66.82365008 12.37195814 1.072028238)
(106.3944068 15.57476672 2.254124451)
(115.8235831 14.84730753 -2.966371246)
(78.64539912 14.31868579 -2.344241198)
(0 0 0)
(0 0 0)
(40.15994416 9.02973124 1.261607478)
(182.5888102 32.19537889 2.879917088)
(76.31502176 10.13490487 1.755421025)
(51.36936184 6.831078365 0.6510961065)
(80.68742386 13.33685919 1.812305649)
(115.8144807 17.64923075 -0.2129568007)
(89.03813548 13.11638631 -0.2570194486)
(79.33821126 11.71098422 0.3806143707)
(25.82986774 1.172143913 -1.498731914)
(20.88526943 1.142593715 -0.8903570515)
(26.65557567 0.9041264558 -0.07462588336)
(26.9855561 0.1489146755 -0.9501119498)
(30.61040411 0.8554694931 0.9599602909)
(26.01806158 3.057000677 -0.4549606548)
(30.66427678 3.249074693 0.6186099482)
(35.64840454 0.960871782 -0.222794052)
(26.63027538 3.371947286 -0.02800771893)
(39.89750145 2.171327269 0.5330491991)
(36.17216906 1.771911602 -0.2668640578)
(43.0706014 4.573707657 0.947657868)
(37.60826173 2.921155797 -1.051020098)
(41.3955562 3.894448478 0.2925611303)
(47.10210376 4.493325044 1.210175148)
(48.02264169 6.086967731 -1.482351487)
(51.99759562 6.254261488 1.385056212)
(46.78869243 5.944667533 -0.2743667128)
(54.0268086 5.238610583 0.8204287994)
(48.93239899 4.722632958 -1.925233515)
(52.822277 5.174411161 -1.201764527)
(59.17714347 8.437910709 0.2726015595)
(65.10414435 7.191319146 -1.581180584)
(62.16165302 11.22071931 -0.05131117672)
(69.74963637 8.885697509 -2.877283812)
(58.42444505 8.355439918 -1.204548451)
(68.84655468 9.91442705 -0.7614260166)
(85.39736784 14.32460925 -1.860429433)
(62.78854559 11.1426169 -0.7751436322)
(79.31460269 15.85541435 -3.277722431)
(38.17063628 4.393909693 -1.253064679)
(39.83810634 3.209646961 0.7204689837)
(33.01905295 1.838505795 -1.199435018)
(35.43004756 1.069316139 -1.991680217)
(37.38641719 1.133135217 -0.8315983217)
(36.43537947 2.450863783 -2.007306227)
(27.25637179 0.9122420717 -1.757950431)
(36.10941056 1.050134292 -1.511017618)
(45.26132964 5.300382954 -1.128444118)
(31.86591903 2.873329888 -0.9050695018)
(37.749527 3.273229751 -1.44229357)
(38.18889498 2.552722518 -0.2751325948)
(50.95277236 6.171742846 0.5270124301)
(39.76551939 4.775794401 0.2571370142)
(50.71992717 5.510664209 -1.240259945)
(57.31703482 5.560170223 -1.938961702)
(44.04614129 6.028781225 -0.02977182413)
(55.01704981 5.848703547 -0.4059622127)
(52.26657667 4.864358368 0.2620864912)
(62.59887837 7.882097483 3.171432119)
(46.3343091 6.506034651 1.01935946)
(61.83692021 7.943110283 0.07337256683)
(59.92622687 7.27618979 -0.6463738901)
(60.6399748 8.44482885 -0.6991290391)
(59.41279856 9.227513007 -0.1651400576)
(70.39980036 9.718830645 0.3421270552)
(77.53906652 11.17850696 0.6285571049)
(61.64478848 9.397321441 -0.9630979338)
(64.50416242 9.53107342 -0.2148983684)
(69.71869572 11.20402024 0.9780874691)
(62.42934597 6.475092338 -0.478853455)
(64.5620467 8.616464257 -1.463452187)
(54.62727246 7.196948451 -4.518682037)
(49.14662699 4.566500169 1.188482595)
(47.79000843 4.329309948 -0.9780441331)
(45.77616498 3.053567777 -0.2877099196)
(45.28909986 4.049139582 -1.754579858)
(38.20982649 4.31436562 -1.068671163)
(45.85384616 3.09836355 -0.6333765633)
(37.8725887 3.715718788 -1.613782841)
(47.50407761 4.053969898 -1.371633115)
(48.33718587 5.365651985 -2.888056159)
(49.6950422 5.094289163 -2.025973825)
(46.2118715 4.200239717 -1.001572268)
(53.94132496 6.626442773 0.8111474854)
(47.76311224 5.731165197 1.263437113)
(48.59751073 4.333573736 -0.4572483156)
(67.51598919 7.771436962 0.5717207324)
(61.59963101 9.423205611 -2.316679991)
(60.17578559 7.269562512 0.2684310263)
(66.86934652 10.42089935 0.1230817074)
(61.00059777 7.980795456 0.1477375046)
(63.85980565 6.350861818 0.1413958762)
(66.92070643 9.493667905 1.434219898)
(72.35246565 10.94956943 1.913385392)
(60.10843234 8.610380664 -1.383924757)
(70.79003248 9.073312699 0.4478316977)
(68.421056 8.580149657 0.1986442961)
(77.49817016 11.20060422 0.5275033344)
(68.93801311 9.761167396 0.2708547027)
(88.28994145 19.45927281 -2.217562435)
(81.79138551 10.48321448 1.587706447)
(73.08296414 11.58130528 -1.263298957)
(65.22371291 7.706293775 -0.04852384442)
(62.24684932 7.022666448 0.5054271387)
(58.40640564 6.317500893 -0.4547354728)
(61.05315734 6.23869999 -1.113435855)
(58.34355116 4.769228274 -0.3094814242)
(56.79004111 4.555354237 -0.1344418594)
(48.59784067 5.036493849 -2.462084865)
(56.92336909 4.645827889 1.496312811)
(53.44302648 6.059244143 0.3515611633)
(47.0798906 3.989729193 -0.5841204817)
(58.35803946 5.934692547 -0.07670763195)
(55.09056031 6.358257383 -2.024439642)
(51.79711626 5.219869999 -0.5098427152)
(59.0650794 6.73237136 -0.413064708)
(41.6936294 3.205238084 -0.4218866886)
(66.75063744 8.256973235 -0.5295601575)
(63.67320945 5.501255876 -0.6568299689)
(69.51340918 11.31058655 -1.791449031)
(64.26981422 8.920136495 0.05085664661)
(70.35443154 8.270633299 -0.271869455)
(73.34138651 9.147190517 -1.907145513)
(83.35668449 9.943040909 -2.334142942)
(69.7908895 8.39002607 -0.3310297625)
(75.74738257 8.37498089 -0.06827352616)
(96.65591956 15.86778179 -0.4047372784)
(77.41471365 8.829397417 -0.929594921)
(84.16978906 11.10551545 -0.3890674716)
(108.9856272 22.51875282 -1.085201678)
(84.38074375 13.47252634 -0.410594154)
(85.70398837 12.8413748 -0.9507104667)
(88.92441926 14.68128225 -0.8357892032)
(79.04162162 11.18485463 0.8989190674)
(73.13843087 10.01353966 0.8398273581)
(72.16187047 10.69512235 -1.074870319)
(75.31984107 8.588978351 -0.2191062281)
(61.37506313 7.134747629 0.322112015)
(56.18908954 9.441798272 -1.441341858)
(59.24863035 4.924575905 -1.795077147)
(63.14215418 7.316501658 0.3306644854)
(58.56377453 7.015661304 -2.29861948)
(61.37183894 6.883228287 0.6605846359)
(51.11203107 6.662339557 0.5742941751)
(65.56799809 7.14561456 -0.0251214993)
(80.47864461 7.363108658 0.3593004639)
(54.10226468 7.716241035 -1.138604394)
(88.74895716 8.470981385 -1.322721081)
(63.27356786 7.676130587 -0.1872621383)
(70.02915603 6.223434569 -0.9652559045)
(82.28075139 8.506300046 -1.690776557)
(74.18048389 8.204178993 0.6703290905)
(73.04349387 10.60200233 -0.07536735274)
(82.47783263 9.445710221 -0.302078555)
(88.60980655 9.844391375 1.103002455)
(85.48377096 11.50907106 -1.384938974)
(82.40209536 12.21710095 -1.181048766)
(65.1885741 8.003455709 -1.323734208)
(79.62649365 11.75971384 0.1444727373)
(88.37920269 16.19655966 0.5278446888)
(101.2313554 18.35470803 0.6446898484)
(92.34328462 17.7168023 -3.164874298)
(96.13219972 17.40854774 -0.4830070641)
(81.49655849 13.04510635 0.1326842965)
(102.1528965 16.90775972 -1.290209108)
(78.34281425 12.94693029 0.1340624873)
(72.19070642 8.359684874 -0.1832090155)
(80.63590225 10.47690373 2.386393089)
(70.94462034 10.05052509 -0.305053953)
(75.09925784 7.575484932 -1.0622374)
(76.71380214 11.58175081 -0.4789358037)
(71.85389044 7.376378989 0.3072712859)
(72.34406968 7.265124192 0.9250715913)
(70.41237023 6.154997629 -1.574171018)
(64.93062674 8.726273658 0.8961232779)
(72.43717995 6.447982697 1.66071534)
(69.23781977 7.163558935 -1.312114343)
(73.60098334 10.09327974 2.77962435)
(71.03911007 7.290975207 0.8151735206)
(71.98272888 9.108744522 0.921003381)
(71.32391001 9.128330753 -0.7303985294)
(69.20232572 7.329972273 -0.3424103654)
(78.95227415 10.55609646 0.6157992868)
(76.20458992 10.30497718 -0.369146298)
(78.29601179 11.48350615 1.754280166)
(88.30853439 11.43384224 1.012489122)
(84.82932004 10.31660224 -1.479147928)
(85.24320967 11.73186243 1.184314696)
(101.1601573 15.09605643 -1.303638574)
(90.67935965 17.00641279 -2.050490206)
(94.97271285 18.50112476 -0.7642768532)
(89.3248184 16.82211536 -0.1899271412)
(94.33207043 20.30771332 -0.3446051883)
(75.92674685 12.59376256 1.397145787)
(96.31971791 14.83506867 -2.087788547)
(80.71097933 13.4493814 0.8054471592)
(75.66398452 13.55116547 0.8567093941)
(92.54399685 12.90971534 0.5409003789)
(80.35720605 11.58680794 -1.885006473)
(82.70555339 8.882403476 -0.9876290253)
(73.50612891 8.11730715 -0.2391943803)
(73.88582706 10.21558369 0.2336934087)
(75.58446414 8.895420551 -1.026132049)
(79.49457128 10.92514195 -0.6773141872)
(76.87265212 9.28934042 -1.029919442)
(74.1346337 9.484760834 -1.319590355)
(82.80218007 8.692329864 0.734316306)
(66.35606074 8.947736864 0.1668212351)
(69.94517119 7.38786003 0.1840676588)
(80.97075587 8.62690686 0.3058535239)
(79.23865628 8.907047743 0.5238914416)
(73.98618134 11.38995595 1.303574892)
(79.84031452 12.00719322 0.4138871278)
(77.61905696 5.263514893 -0.3452489961)
(85.37837255 10.30449547 -0.004416082379)
(75.01288021 11.68424673 -0.159476014)
(75.38753004 9.329711 0.5696819975)
(100.1950771 14.48241948 1.131204981)
(78.32337764 10.80366021 1.624856219)
(87.9283804 12.84682033 0.8645064384)
(95.41819306 15.86968103 -4.50704804)
(100.3281896 17.20731031 0.5053226898)
(98.08596232 15.29955425 -0.1527857087)
(98.3021769 20.98768041 -2.180212255)
(105.1349082 18.18596774 -1.088351526)
(93.87589527 15.60866642 -1.042577631)
(89.59139328 10.82148276 -0.1642825057)
(100.2167048 16.52518612 -2.052629297)
(96.02809104 12.71427304 -0.8457697257)
(87.34286019 13.06077237 1.02866514)
(92.40102101 13.36174626 -2.553161419)
(83.07805523 12.85139581 0.6085215809)
(84.21123327 11.33117997 -0.4040006919)
(85.36269756 10.4937714 -2.011286138)
(75.91910608 9.923422758 -2.101826519)
(71.15593821 9.635941368 -1.632834871)
(97.010372 10.7955314 -1.496249967)
(82.94886969 11.04729248 -1.221453408)
(71.64923657 9.332444794 -1.805187619)
(77.92737778 8.478753368 -0.7248551245)
(94.66543385 11.81962144 -0.8379641841)
(77.96796699 10.99537061 -0.9811918106)
(72.87774424 8.353049605 -2.173456024)
(88.2484415 11.75617857 0.6188477453)
(88.59146879 11.0810029 0.03497127001)
(68.79153321 9.953091326 -0.2661893487)
(95.33505576 12.48429188 -2.077009331)
(86.6349745 12.64192745 0.1866704854)
(91.27777335 12.06663009 -0.05286367488)
(91.77211304 15.18859884 -1.843181239)
(92.96250721 16.23294992 -0.3481217975)
(94.09111187 16.23840218 0.5904326348)
(92.61059096 14.55529074 -2.499489048)
(87.36644826 12.41268932 0.1947765075)
(87.64728173 15.51210813 -2.167998921)
(99.76994233 19.4566608 -0.458516021)
(85.33909724 16.40233413 -2.257168226)
(102.7657458 17.71862084 0.5940441882)
(90.28867196 16.03014519 -3.332408648)
(71.75582089 11.4431262 1.496790312)
(92.81114546 11.48729343 -0.9034400963)
(72.58978084 10.85061476 -1.057677843)
(89.1472259 11.15690863 -0.6298820932)
(90.25330975 10.21748514 0.01836485009)
(92.68453397 14.78272649 1.526429059)
(79.02249027 10.86860762 -0.5563516806)
(85.08378006 10.69176348 -0.293684392)
(87.67020938 10.66501132 -0.6112363869)
(80.07239704 10.11463658 -1.034886959)
(89.70037312 12.17535378 1.079120023)
(91.7950938 12.05328084 0.06899718642)
(81.79914436 9.614125131 0.7408463967)
(79.20480231 9.603671058 1.216440394)
(85.78972321 12.59710051 0.03115603853)
(89.14985597 12.85201163 -0.1467191782)
(83.29367438 10.41346325 -1.436945559)
(65.25582252 7.764902394 0.9354425697)
(102.9792782 13.06214199 -0.4508837375)
(77.3366485 11.93281194 -1.294989721)
(71.73690251 10.55197273 -2.929692087)
(97.92596902 14.63411467 0.1082595207)
(81.97213415 14.92829449 -0.5905359608)
(78.19477648 13.87959859 -1.363277947)
(84.69654492 15.46591304 -0.1784872197)
(94.71403885 16.94321998 2.645368033)
(110.3720428 15.99272623 -1.820125518)
(79.12405767 15.45279208 -0.3452889776)
(88.96746308 15.07492356 0.6012675409)
(106.3070958 18.89142109 1.518344015)
(81.97609715 12.33763801 -1.01714011)
(92.49111942 17.17843631 0.4497934587)
(85.11197689 13.1321836 -0.5637559593)
(76.46192867 13.93483996 0.7727838463)
(79.30675788 12.63247143 -1.8105076)
(86.97928059 10.55734566 -0.2517433756)
(80.7103091 11.64887026 0.1390138028)
(77.17718273 9.346669602 2.189630821)
(89.6380503 10.14600498 0.1298883782)
(83.23884094 10.42939893 -0.06436241165)
(82.91938259 10.74570011 0.5459065334)
(95.05336347 12.62710194 -2.208134918)
(85.7757258 9.983565677 -0.2760754595)
(81.35531207 11.96698792 -1.906351358)
(102.7620406 13.7468109 0.08401666058)
(78.61195022 9.431761834 -0.8881244361)
(83.03400848 13.39378327 -0.7127080492)
(92.23020126 13.4118329 -1.566723806)
(98.66364097 13.50556627 -1.840151167)
(75.75866521 12.4899906 -1.241064652)
(70.73140743 12.61662676 0.2831973098)
(100.2713787 14.73549538 -1.816409096)
(80.80232132 12.31623438 1.780364708)
(81.65276772 13.97249038 -0.6695678038)
(89.89687954 12.55772677 -2.479789217)
(83.35597328 11.70568802 -0.4501538225)
(85.15767992 14.41670684 -3.497038495)
(82.58758417 11.36080669 -2.775143273)
(92.76599508 15.04305181 0.1156195509)
(101.4450987 16.0686197 -2.188475578)
(81.83784901 13.6692917 -0.7448857305)
(92.82570315 15.24850771 1.195868836)
(104.4042054 16.30710468 -0.3673238966)
(88.36706375 13.2504235 1.640403358)
(83.51747384 12.72263951 0.7107586472)
(85.03056736 8.771658826 -0.613378444)
(90.36776226 12.98534583 -0.8213802304)
(89.04286785 12.07246597 0.0682066424)
(89.22796356 13.08382969 0.3117971533)
(81.23473432 12.29270364 -0.711528522)
(63.38544778 9.215086328 1.401576645)
(99.73339591 10.60633935 0.8982735811)
(83.83104285 12.27627354 -1.483691048)
(80.07718458 12.04476765 -2.259472305)
(97.56305183 13.48596653 0.754570558)
(84.75307859 8.845868047 -2.707728872)
(96.38794083 12.25596801 -0.6658426918)
(84.52098614 12.41585299 -0.5141676309)
(88.71813865 10.24729172 1.090926928)
(82.69091116 11.93743153 1.115251351)
(76.80806269 10.0060601 0.02621838475)
(96.73284603 12.50066369 -0.8829786839)
(88.79167951 12.90663152 0.4010689886)
(80.07305604 12.42491593 -2.808555699)
(85.17753038 13.74642436 2.701258424)
(94.95095869 12.2727278 0.1155460106)
(92.12486779 12.71131899 -0.3635070451)
(85.20038737 12.00398252 -0.9936460648)
(91.57300125 13.37322026 0.1363584975)
(96.15916894 14.78364138 0.8362017116)
(88.08754534 12.2272879 -2.786396846)
(92.43658505 16.60353893 -3.072320478)
(109.25051 17.07425501 1.553222402)
(76.23524573 11.56756826 -1.746156364)
(92.84022382 15.06018835 0.02755524224)
(99.49234423 13.77928667 -1.100033518)
(85.48409446 12.03241935 1.141209662)
(83.52472532 10.72961397 -0.1265115277)
(95.69331005 11.033463 -0.2697142138)
(84.61354132 9.369454609 0.4967921818)
(97.55982412 16.35327819 1.627517584)
(72.17867231 9.943794841 2.366781415)
(85.31670359 10.53054953 0.7520326847)
(79.29859457 9.836915429 2.120184866)
(68.97960983 9.738457196 0.6030623149)
(82.12230447 10.81906796 -0.02134318142)
(72.71484445 8.40723099 0.9879078067)
(84.21435517 12.14556632 0.1167083563)
(83.28724379 12.5260349 -0.1156263705)
(76.59846139 11.72011588 -2.326174568)
(80.18196427 12.91510687 -2.546818207)
(93.01468692 13.43926876 -0.6900302753)
(90.20344767 13.92885998 -2.625311235)
(85.21259881 13.17179147 -1.321270333)
(90.41439092 12.74931386 -3.675094931)
(97.55301594 15.33022039 -3.269643215)
(83.87248571 12.55866802 0.3391001837)
(81.94873856 14.309737 -1.848023669)
(79.48795038 12.00298047 -1.433848887)
(83.82320957 12.21525312 -1.699890542)
(71.69396848 10.67062291 -1.306220653)
(88.21517171 12.67339566 -1.813870792)
(91.96447766 16.49797075 0.3285680448)
(80.65773508 13.93918346 -2.350747881)
(89.1334914 13.25608585 0.536307358)
(100.1581301 15.5671489 1.677001054)
(83.18871116 14.27811972 -0.1543970728)
(82.39109485 11.14454187 -1.327126507)
(88.27832743 14.40921013 -1.990425802)
(87.81323456 12.44029671 1.049083556)
(85.1000047 13.37565817 -2.130544706)
(91.93197914 13.65272263 0.8763567804)
(85.54155316 12.45120718 -1.54604291)
(80.20505071 11.18044425 0.2151768936)
(76.6492624 12.10404108 -0.2861426635)
(84.43830768 13.68142038 0.5460326224)
(82.68944354 12.63275854 -0.3453025189)
(83.79781976 12.40903728 -0.900803706)
(83.4653449 10.84146282 -0.1773261286)
(80.10155113 10.13439741 -1.274255365)
(87.82228239 16.31277648 -1.679787588)
(92.72838257 14.71478204 1.44153188)
(80.37414692 13.37379045 2.340521696)
(67.55993642 9.17775182 -1.470059908)
(85.61071623 14.82724949 -0.633151315)
(84.27003482 13.55657207 -0.1166334326)
(98.92226902 15.46055165 0.8075966632)
(75.21247002 10.09628069 -0.5050210192)
(98.52151757 16.64059619 -3.893070268)
(97.03349546 13.4076486 -0.7600394255)
(86.5000202 11.76979342 -1.383798594)
(78.29936898 11.94951218 2.170378914)
(94.30103304 12.39372088 -3.330880436)
(78.26483909 11.0640285 -0.7137215899)
(87.86786103 13.92752001 -0.3351415054)
(76.50915676 12.52987983 -2.276244131)
(88.06460403 11.53017401 -1.501074529)
(82.76218336 14.66087386 -2.204592008)
(89.70049876 12.70679177 -0.4136985242)
(90.87716668 12.39758612 -0.3763040573)
(81.59630956 13.63026997 -1.52550125)
(85.54041715 11.85071603 -1.344009441)
(90.39977562 12.13392265 2.409096846)
(88.61283572 13.13637558 1.44398512)
(88.84336652 13.18091112 -1.050293632)
(89.31957791 9.871826933 2.418650239)
(76.93868966 10.49697892 -0.1176490506)
(78.39669102 10.78943111 0.889523109)
(90.99589334 10.82815079 1.174495181)
(76.40835651 12.39069271 0.9270926543)
(83.66922276 10.87308212 -1.382707678)
(89.38182879 14.50730222 -0.8254325587)
(99.4282955 14.42230275 -1.152769676)
(97.01716889 14.98862085 0.4361322808)
(91.05888065 13.53572336 -0.6138040985)
(89.09498066 12.73811641 -1.930561964)
(92.9505761 13.0308837 -3.559768965)
(84.75172693 12.77512283 -1.666857698)
(94.53331538 11.7889645 -1.487961696)
(79.419908 11.58154915 -1.936880095)
(83.91229806 14.51807587 -2.468782591)
(82.71550236 11.08175221 -2.199887455)
(95.00316994 13.92174696 -2.298263613)
(80.24866287 11.00873994 -2.324274336)
(96.33417064 13.87228705 -1.412500253)
(90.00585962 14.29169109 -2.969033376)
(84.78427896 10.64829619 0.3524850619)
(95.64597114 14.94811368 -0.05389246876)
(82.26093198 9.636238613 -2.180366794)
(82.83503067 10.79904117 -0.9632493454)
(84.66740784 10.80182345 -3.225448561)
(79.88656863 9.589918717 -1.082483427)
(80.13407507 11.52224678 -2.398825876)
(89.05785035 11.22515564 -3.872793693)
(94.75689152 12.51260488 -2.803843664)
(72.07958505 11.93782167 -0.8607568767)
(82.43741107 12.27426592 -1.489359601)
(96.5964697 12.30714299 1.258261136)
(75.79508382 10.43215764 -1.089872697)
(89.51010426 13.72117343 0.7813261518)
(90.25087946 14.80093847 -2.134962394)
(90.88790921 11.11045359 -1.332463253)
(99.14097104 14.28942191 -0.7171672244)
(87.90934879 13.96314777 -1.744398287)
(86.96671207 12.35470886 -0.4611781184)
(93.03963563 13.88227477 -3.604955936)
(82.92110591 11.35092451 -2.091612072)
(88.70567575 14.80867072 1.189584337)
(90.98557479 15.07356865 -3.145269256)
(88.22004188 14.64164838 -0.907710112)
(87.16126981 13.79510757 -0.4772826012)
(87.95057992 14.8952771 -1.481450749)
(84.42159778 10.94744024 0.4454447206)
(75.80200878 9.926630186 -1.747459635)
(89.26915734 14.5325212 1.176129826)
(80.73679441 12.08599847 -1.841492723)
(76.68857949 7.485379816 -2.521023145)
(89.68703118 16.09866476 1.25399599)
(82.58029579 13.21744476 -2.609415236)
(97.03994546 12.38159504 0.5703319466)
(73.83341689 13.03510343 -1.092316626)
(86.12438018 12.92820346 -1.962320261)
(82.24839576 13.10372158 1.057783643)
(65.64628335 10.68408562 -0.4505047863)
(84.46194089 13.11509763 0.7131216696)
(79.91602851 11.79698207 -0.95215485)
(73.21651954 13.0026983 -3.004025285)
(74.49585003 13.30151026 -1.095375982)
(80.66095129 9.578285521 -0.3095649271)
(69.79190716 9.901420048 0.09377483325)
(80.71979945 11.54333431 -0.9777208449)
(93.1428531 14.43849289 -1.799239945)
(96.04141723 16.12687496 -0.1771280612)
(80.06126902 9.842976249 -1.880494972)
(96.71354876 15.19304647 0.930590824)
(83.1884368 13.66334255 0.1121491066)
(105.8613548 15.74734337 -0.4759535162)
(96.98151792 15.72324529 -1.262708514)
(79.05307518 10.41167107 -0.3640120943)
(101.2363156 14.20770105 0.1434488883)
(92.99137454 13.73022891 1.578984459)
(103.1762882 16.33100337 -3.127070203)
(115.3766697 16.15457938 -1.000248562)
(87.22606715 11.44066107 1.548826095)
(101.0663505 14.42708555 -1.498933041)
(95.51773573 13.85287401 -0.7819674175)
(92.30011308 12.94125483 -0.1521214592)
(88.06071038 11.68821794 -0.7469029831)
(92.99639867 14.91810393 -0.06901470969)
(76.59852175 11.2990319 -0.9060706845)
(92.75554831 14.35142301 0.1023750657)
(95.9591774 12.48848177 -1.725580405)
(91.88163634 13.94337268 -1.225926555)
(97.98848403 13.28925404 -0.3180301991)
(88.97775059 10.79287784 -1.13208539)
(96.24951099 12.3572472 3.508670202)
(85.75168971 10.72963636 0.359796195)
(87.33766558 11.79565834 -1.733444997)
(87.4218687 12.84165495 0.8425265849)
(84.98306227 10.42679593 -1.728122882)
(87.52518432 12.61170748 -1.275375039)
(86.00358504 11.8822861 -1.372515768)
(70.58462856 9.537797339 -1.00790717)
(94.42280216 13.62298762 -0.6436305384)
(87.98515376 13.01782618 -1.273312697)
(87.09498561 12.73200067 0.6375009803)
(85.9719231 11.75064218 -2.839021848)
(76.30656061 10.22817498 1.769020845)
(98.56572364 14.19485824 -0.4793872095)
(87.99601436 12.84579013 1.056378089)
(99.46949926 14.30862842 0.9215341459)
(80.90958746 12.01938479 0.1210493142)
(90.06679114 13.69819539 -0.8223806731)
(83.86968004 13.23947292 2.761247501)
(99.57846836 13.80813587 -0.981274547)
(87.48594033 16.20502295 0.504985725)
(103.9690473 14.8804148 1.810535871)
(98.40362921 14.59872014 -0.007377428171)
(89.73277261 12.7376905 -1.563000341)
(76.80531206 10.08551697 2.334909915)
(89.26011843 12.97151727 -1.15210203)
(90.94946052 9.440935512 -2.949828096)
(81.39328582 12.778802 0.9576744567)
(78.49898052 11.9218971 -0.1761208269)
(88.96931348 11.65355582 -0.04139089195)
(78.8363201 12.81322926 -0.9672302836)
(95.2829236 12.56737836 -3.035008887)
(90.27504548 13.71354314 1.159698305)
(80.56553376 12.22025685 1.604138722)
(83.03305627 11.23845145 0.09345461777)
(73.94626436 9.830485412 2.532934185)
(98.33137436 14.7115126 -1.93526026)
(83.16946653 13.2738247 -1.655882317)
(72.03599854 11.29052255 1.135097093)
(86.76905499 13.41308869 -0.2320516457)
(77.88509572 11.19572033 0.6228193044)
(94.96165179 15.48146801 -2.560535487)
(90.32259504 12.16076796 0.5352641558)
(78.36667674 11.87643376 -2.872945466)
(76.06612863 12.13992315 -0.04449386382)
(95.88444408 12.1731896 -2.259529054)
(90.067301 12.29221901 -1.597660889)
(82.50551992 13.71779661 -0.4155315165)
(96.38992625 14.63186167 0.8400989049)
(88.61222443 11.56273157 0.06131451154)
(92.02312094 13.3857022 1.257276717)
(85.2333983 10.09878583 0.6901977487)
(106.0957545 17.19612854 0.5663383264)