/*--------------------------------*- C++ -*----------------------------------*\
| =========                 |                                                 |
| \\      /  F ield         | OpenFOAM: The Open Source CFD Toolbox           |
|  \\    /   O peration     | Version:  v1912                                 |
|   \\  /    A nd           | Website:  www.openfoam.com                      |
|    \\/     M anipulation  |                                                 |
\*---------------------------------------------------------------------------*/
FoamFile
{
    version     2.0;
    format      ascii;
    class       volScalarField;
    location    "0.16";
    object      lambda;
}
// * * * * * * * * * * * * * * * * * * * * * * * * * * * * * * * * * * * * * //

dimensions      [0 1 0 0 0 0 0];


internalField   nonuniform List<scalar> 
4800
(
1.79159e-05
1.79159e-05
1.79159e-05
1.79159e-05
1.79159e-05
1.79159e-05
1.79159e-05
1.79159e-05
1.79159e-05
1.79159e-05
1.79159e-05
1.79159e-05
1.79159e-05
1.79159e-05
1.79159e-05
1.79159e-05
1.79159e-05
1.79159e-05
1.79159e-05
1.79159e-05
1.79159e-05
1.79159e-05
1.79159e-05
1.79159e-05
1.79159e-05
1.79159e-05
1.79159e-05
1.79159e-05
1.79159e-05
1.79159e-05
1.79159e-05
1.79159e-05
1.79159e-05
1.79159e-05
1.79159e-05
1.79159e-05
1.79159e-05
1.79159e-05
1.79159e-05
1.79159e-05
1.79159e-05
1.79159e-05
1.79159e-05
1.79159e-05
1.79159e-05
1.79159e-05
1.79159e-05
1.79159e-05
1.79159e-05
1.79159e-05
1.79159e-05
1.79159e-05
1.79159e-05
1.79159e-05
1.79159e-05
1.79159e-05
1.79159e-05
1.79159e-05
1.79159e-05
1.79159e-05
1.79159e-05
1.79159e-05
1.79159e-05
1.79159e-05
1.79159e-05
1.79159e-05
1.79159e-05
1.79159e-05
1.79159e-05
1.79159e-05
1.79159e-05
1.79159e-05
1.79159e-05
1.79159e-05
1.79159e-05
1.79159e-05
1.79159e-05
1.79159e-05
1.79159e-05
1.79159e-05
1.79159e-05
1.79159e-05
1.79159e-05
1.79159e-05
1.79159e-05
1.79159e-05
1.79159e-05
1.79159e-05
1.79159e-05
1.79159e-05
1.79159e-05
1.79159e-05
1.79159e-05
1.79159e-05
1.79159e-05
1.79159e-05
1.79159e-05
1.79159e-05
1.79159e-05
1.79159e-05
1.79159e-05
1.79159e-05
1.79159e-05
1.79159e-05
1.79159e-05
1.79159e-05
1.79159e-05
1.79159e-05
1.79159e-05
1.79159e-05
1.79159e-05
1.79159e-05
1.79159e-05
1.79159e-05
1.79159e-05
1.79159e-05
1.79159e-05
1.79159e-05
1.79159e-05
1.79159e-05
1.79159e-05
1.79159e-05
1.79159e-05
1.79159e-05
1.79159e-05
1.79159e-05
1.79159e-05
1.79159e-05
1.79159e-05
1.79159e-05
1.79159e-05
1.79159e-05
1.79159e-05
1.79159e-05
1.79159e-05
1.79159e-05
1.79159e-05
1.79159e-05
1.79159e-05
1.79159e-05
1.79159e-05
1.79159e-05
1.79159e-05
1.79159e-05
1.79159e-05
1.79159e-05
1.79159e-05
1.79159e-05
1.79159e-05
1.79159e-05
1.79159e-05
1.79159e-05
1.79159e-05
1.79159e-05
1.79159e-05
1.79159e-05
1.79159e-05
1.79159e-05
1.79159e-05
1.79159e-05
1.79159e-05
1.79159e-05
1.79159e-05
1.79159e-05
1.79159e-05
1.79159e-05
1.79159e-05
1.79159e-05
1.79159e-05
1.79159e-05
1.79159e-05
1.79159e-05
1.79159e-05
1.79159e-05
1.79159e-05
1.79159e-05
1.79159e-05
1.79159e-05
1.79159e-05
1.79159e-05
1.79159e-05
1.79159e-05
1.79159e-05
1.79159e-05
1.79159e-05
1.79159e-05
1.79159e-05
1.79159e-05
1.79159e-05
1.79159e-05
1.79159e-05
1.79159e-05
1.79159e-05
1.79159e-05
1.79159e-05
1.79159e-05
1.79159e-05
1.79159e-05
1.79159e-05
1.79159e-05
1.79159e-05
1.79159e-05
1.79159e-05
1.79159e-05
1.79159e-05
1.79159e-05
1.79159e-05
1.79159e-05
1.79159e-05
1.79159e-05
1.79159e-05
1.79159e-05
1.79159e-05
1.79159e-05
1.79159e-05
1.79159e-05
1.79159e-05
1.79159e-05
1.79159e-05
1.79159e-05
1.79159e-05
1.79159e-05
1.79159e-05
1.79159e-05
1.79159e-05
1.79159e-05
1.79159e-05
1.79159e-05
1.79159e-05
1.79159e-05
1.79159e-05
1.79159e-05
1.79159e-05
1.79159e-05
1.79159e-05
1.79159e-05
1.79159e-05
1.79159e-05
1.79159e-05
1.79159e-05
1.79159e-05
1.79159e-05
1.79159e-05
1.79159e-05
1.79159e-05
1.79159e-05
1.79159e-05
1.79159e-05
1.79159e-05
1.79159e-05
1.79159e-05
1.79159e-05
1.79159e-05
1.79159e-05
1.79159e-05
1.79159e-05
1.79159e-05
1.79159e-05
1.79159e-05
1.79159e-05
1.79159e-05
1.79159e-05
1.79159e-05
1.79159e-05
1.79159e-05
1.79159e-05
1.79159e-05
1.79159e-05
1.79159e-05
1.79159e-05
1.79159e-05
1.79159e-05
1.79159e-05
1.79159e-05
1.79159e-05
1.79159e-05
1.79159e-05
1.79159e-05
1.79159e-05
1.79159e-05
1.79159e-05
1.79159e-05
1.79159e-05
1.79159e-05
1.79159e-05
1.79159e-05
1.79159e-05
1.79159e-05
1.79159e-05
1.79159e-05
1.79159e-05
1.79159e-05
1.79159e-05
1.79159e-05
1.79159e-05
1.79159e-05
1.79159e-05
1.79159e-05
1.79159e-05
1.79159e-05
1.79159e-05
1.79159e-05
1.79159e-05
1.79159e-05
1.79159e-05
1.79159e-05
1.79159e-05
1.79159e-05
1.79159e-05
1.79159e-05
1.79159e-05
1.79159e-05
1.79159e-05
1.79159e-05
1.79159e-05
1.79159e-05
1.79159e-05
1.79159e-05
1.79159e-05
1.79159e-05
1.79159e-05
1.79159e-05
1.79159e-05
1.79159e-05
1.79159e-05
1.79159e-05
1.79159e-05
1.79159e-05
1.79159e-05
1.79159e-05
1.79159e-05
1.79159e-05
1.79159e-05
1.79159e-05
1.79159e-05
1.79159e-05
1.79159e-05
1.79159e-05
1.79159e-05
1.79159e-05
1.79159e-05
1.79159e-05
1.79159e-05
1.79159e-05
1.79159e-05
1.79159e-05
1.79159e-05
1.79159e-05
1.79159e-05
1.79159e-05
1.79159e-05
1.79159e-05
1.79159e-05
1.79159e-05
1.79159e-05
1.79159e-05
1.79159e-05
1.79159e-05
1.79159e-05
1.79159e-05
1.79159e-05
1.79159e-05
1.79159e-05
1.79159e-05
1.79159e-05
1.79159e-05
1.79159e-05
1.79159e-05
1.79159e-05
1.79159e-05
1.79159e-05
1.79159e-05
1.79159e-05
1.79159e-05
1.79159e-05
1.79159e-05
1.79159e-05
1.79159e-05
1.79159e-05
1.79159e-05
1.79159e-05
1.79159e-05
1.79159e-05
1.79159e-05
1.79159e-05
1.79159e-05
1.79159e-05
1.79159e-05
1.79159e-05
1.79159e-05
1.79159e-05
1.79159e-05
1.79159e-05
1.79159e-05
1.79159e-05
1.79159e-05
1.79159e-05
1.79159e-05
1.79159e-05
1.79159e-05
1.79159e-05
1.79159e-05
1.79159e-05
1.79159e-05
1.79159e-05
1.79159e-05
1.79159e-05
1.79159e-05
1.79159e-05
1.79159e-05
1.79159e-05
1.79159e-05
1.79159e-05
1.79159e-05
1.79159e-05
1.79159e-05
1.79159e-05
1.79159e-05
1.79159e-05
1.79159e-05
1.79159e-05
1.79159e-05
1.79159e-05
1.79159e-05
1.79159e-05
1.79159e-05
1.79159e-05
1.79159e-05
1.79159e-05
1.79159e-05
1.79159e-05
1.79159e-05
1.79159e-05
1.79159e-05
1.79159e-05
1.79159e-05
1.79159e-05
1.79159e-05
1.79159e-05
1.79159e-05
1.79159e-05
1.79159e-05
1.79159e-05
1.79159e-05
1.79159e-05
1.79159e-05
1.79159e-05
1.79159e-05
1.79159e-05
1.79159e-05
1.79159e-05
1.79159e-05
1.79159e-05
1.79159e-05
1.79159e-05
1.79159e-05
1.79159e-05
1.79159e-05
1.79159e-05
1.79159e-05
1.79159e-05
1.79159e-05
1.79159e-05
1.79159e-05
1.79159e-05
1.79159e-05
1.79159e-05
1.79159e-05
1.79159e-05
1.79159e-05
1.79159e-05
1.79159e-05
1.79159e-05
1.79159e-05
1.79159e-05
1.79159e-05
1.79159e-05
1.79159e-05
1.79159e-05
1.79159e-05
1.79159e-05
1.79159e-05
1.79159e-05
1.79159e-05
1.79159e-05
1.79159e-05
1.79159e-05
1.79159e-05
1.79159e-05
1.79159e-05
1.79159e-05
1.79159e-05
1.79159e-05
1.79159e-05
1.79159e-05
1.79159e-05
1.79159e-05
1.79159e-05
1.79159e-05
1.79159e-05
1.79159e-05
1.79159e-05
1.79159e-05
1.79159e-05
1.79159e-05
1.79159e-05
1.79159e-05
1.79159e-05
1.79159e-05
1.79159e-05
1.79159e-05
1.79159e-05
1.79159e-05
1.79159e-05
1.79159e-05
1.79159e-05
1.79159e-05
1.79159e-05
1.79159e-05
1.79159e-05
1.79159e-05
1.79159e-05
1.79159e-05
1.79159e-05
1.79159e-05
1.79159e-05
1.79159e-05
1.79159e-05
1.79159e-05
1.79159e-05
1.79159e-05
1.79159e-05
1.79159e-05
1.79159e-05
1.79159e-05
1.79159e-05
1.79159e-05
1.79159e-05
1.79159e-05
1.79159e-05
1.79159e-05
1.79159e-05
1.79159e-05
1.79159e-05
1.79159e-05
1.79159e-05
1.79159e-05
1.79159e-05
1.79159e-05
1.79159e-05
1.79159e-05
1.79159e-05
1.79159e-05
1.79159e-05
1.79159e-05
1.79159e-05
1.79159e-05
1.79159e-05
1.79159e-05
1.79159e-05
1.79159e-05
1.79159e-05
1.79159e-05
1.79159e-05
1.79159e-05
1.79159e-05
1.79159e-05
1.79159e-05
1.79159e-05
1.79159e-05
1.79159e-05
1.79159e-05
1.79159e-05
1.79159e-05
1.79159e-05
1.79159e-05
1.79159e-05
1.79159e-05
1.79159e-05
1.79159e-05
1.79159e-05
1.79159e-05
1.79159e-05
1.79159e-05
1.79159e-05
1.79159e-05
1.79159e-05
1.79159e-05
1.79159e-05
1.79159e-05
1.79159e-05
1.79159e-05
1.79159e-05
1.79159e-05
1.79159e-05
1.79159e-05
1.79159e-05
1.79159e-05
1.79159e-05
1.79159e-05
1.79159e-05
1.79159e-05
1.79159e-05
1.79159e-05
1.79159e-05
1.79159e-05
1.79159e-05
1.79159e-05
1.79159e-05
1.79159e-05
1.79159e-05
1.79159e-05
1.79159e-05
1.79159e-05
1.79159e-05
1.79159e-05
1.79159e-05
1.79159e-05
1.79159e-05
1.79159e-05
1.79159e-05
1.79159e-05
1.79159e-05
1.79159e-05
1.79159e-05
1.79159e-05
1.79159e-05
1.79159e-05
1.79159e-05
1.79159e-05
1.79159e-05
1.79159e-05
1.79159e-05
1.79159e-05
1.79159e-05
1.79159e-05
1.79159e-05
1.79159e-05
1.79159e-05
1.79159e-05
1.79159e-05
1.79159e-05
1.79159e-05
1.79159e-05
1.79159e-05
1.79159e-05
1.79159e-05
1.79159e-05
1.79159e-05
1.79159e-05
1.79159e-05
1.79159e-05
1.79159e-05
1.79159e-05
1.79159e-05
1.79159e-05
1.79159e-05
1.79159e-05
1.79159e-05
1.79159e-05
1.79159e-05
1.79159e-05
1.79159e-05
1.79159e-05
1.79159e-05
1.79159e-05
1.79159e-05
1.79159e-05
1.79159e-05
1.79159e-05
1.79159e-05
1.79159e-05
1.79159e-05
1.79159e-05
1.79159e-05
1.79159e-05
1.79159e-05
1.79159e-05
1.79159e-05
1.79159e-05
1.79159e-05
1.79159e-05
1.79159e-05
1.79159e-05
1.79159e-05
1.79159e-05
1.79159e-05
1.79159e-05
1.79159e-05
1.79159e-05
1.79159e-05
1.79159e-05
1.79159e-05
1.79159e-05
1.79159e-05
1.79159e-05
1.79159e-05
1.79159e-05
1.79159e-05
1.79159e-05
1.79159e-05
1.79159e-05
1.79159e-05
1.79159e-05
1.79159e-05
1.79159e-05
1.79159e-05
1.79159e-05
1.79159e-05
1.79159e-05
1.79159e-05
1.79159e-05
1.79159e-05
1.79159e-05
1.79159e-05
1.79159e-05
1.79159e-05
1.79159e-05
1.79159e-05
1.79159e-05
1.79159e-05
1.79159e-05
1.79159e-05
1.79159e-05
1.79159e-05
1.79159e-05
1.79159e-05
1.79159e-05
1.79159e-05
1.79159e-05
1.79159e-05
1.79159e-05
1.79159e-05
1.79159e-05
1.79159e-05
1.79159e-05
1.79159e-05
1.79159e-05
1.79159e-05
1.79159e-05
1.79159e-05
1.79159e-05
1.79159e-05
1.79159e-05
1.79159e-05
1.79159e-05
1.79159e-05
1.79159e-05
1.79159e-05
1.79159e-05
1.79159e-05
1.79159e-05
1.79159e-05
1.79159e-05
1.79159e-05
1.79159e-05
1.79159e-05
1.79159e-05
1.79159e-05
1.79159e-05
1.79159e-05
1.79159e-05
1.79159e-05
1.79159e-05
1.79159e-05
1.79159e-05
1.79159e-05
1.79159e-05
1.79159e-05
1.79159e-05
1.79159e-05
1.79159e-05
1.79159e-05
1.79159e-05
1.79159e-05
1.79159e-05
1.79159e-05
1.79159e-05
1.79159e-05
1.79159e-05
1.79159e-05
1.79159e-05
1.79159e-05
1.79159e-05
1.79159e-05
1.79159e-05
1.79159e-05
1.79159e-05
1.79159e-05
1.79159e-05
1.79159e-05
1.79159e-05
1.79159e-05
1.79159e-05
1.79159e-05
1.79159e-05
1.79159e-05
1.79159e-05
1.79159e-05
1.79159e-05
1.79159e-05
1.79159e-05
1.79159e-05
1.79159e-05
1.79159e-05
1.79159e-05
1.79159e-05
1.79159e-05
1.79159e-05
1.79159e-05
1.79159e-05
1.79159e-05
1.79159e-05
1.79159e-05
1.79159e-05
1.79159e-05
1.79159e-05
1.79159e-05
1.79159e-05
1.79159e-05
1.79159e-05
1.79159e-05
1.79159e-05
1.79159e-05
1.79159e-05
1.79159e-05
1.79159e-05
1.79159e-05
1.79159e-05
1.79159e-05
1.79159e-05
1.79159e-05
1.79159e-05
1.79159e-05
1.79159e-05
1.79159e-05
1.79159e-05
1.79159e-05
1.79159e-05
1.79159e-05
1.79159e-05
1.79159e-05
1.79159e-05
1.79159e-05
1.79159e-05
1.79159e-05
1.79159e-05
1.79159e-05
1.79159e-05
1.79159e-05
1.79159e-05
1.79159e-05
1.79159e-05
1.79159e-05
1.79159e-05
1.79159e-05
1.79159e-05
1.79159e-05
1.79159e-05
1.79159e-05
1.79159e-05
1.79159e-05
1.79159e-05
1.79159e-05
1.79159e-05
1.79159e-05
1.79159e-05
1.79159e-05
1.79159e-05
1.79159e-05
1.79159e-05
1.79159e-05
1.79159e-05
1.79159e-05
1.79159e-05
1.79159e-05
1.79159e-05
1.79159e-05
1.79159e-05
1.79159e-05
1.79159e-05
1.79159e-05
1.79159e-05
1.79159e-05
1.79159e-05
1.79159e-05
1.79159e-05
1.79159e-05
1.79159e-05
1.79159e-05
1.79159e-05
1.79159e-05
1.79159e-05
1.79159e-05
1.79159e-05
1.79159e-05
1.79159e-05
1.79159e-05
1.79159e-05
1.79159e-05
1.79159e-05
1.79159e-05
1.79159e-05
1.79159e-05
1.79159e-05
1.79159e-05
1.79159e-05
1.79159e-05
1.79159e-05
1.79159e-05
1.79159e-05
1.79159e-05
1.79159e-05
1.79159e-05
1.79159e-05
1.79159e-05
1.79159e-05
1.79159e-05
1.79159e-05
1.79159e-05
1.79159e-05
1.79159e-05
1.79159e-05
1.79159e-05
1.79159e-05
1.79159e-05
1.79159e-05
1.79159e-05
1.79159e-05
1.79159e-05
1.79159e-05
1.79159e-05
1.79159e-05
1.79159e-05
1.79159e-05
1.79159e-05
1.79159e-05
1.79159e-05
1.79159e-05
1.79159e-05
1.79159e-05
1.79159e-05
1.79159e-05
1.79159e-05
1.79159e-05
1.79159e-05
1.79159e-05
1.79159e-05
1.79159e-05
1.79159e-05
1.79159e-05
1.79159e-05
1.79159e-05
1.79159e-05
1.79159e-05
1.79159e-05
1.79159e-05
1.79159e-05
1.79159e-05
1.79159e-05
1.79159e-05
1.79159e-05
1.79159e-05
1.79159e-05
1.79159e-05
1.79159e-05
1.79159e-05
1.79159e-05
1.79159e-05
1.79159e-05
1.79159e-05
1.79159e-05
1.79159e-05
1.79159e-05
1.79159e-05
1.79159e-05
1.79159e-05
1.79159e-05
1.79159e-05
1.79159e-05
1.79159e-05
1.79159e-05
1.79159e-05
1.79159e-05
1.79159e-05
1.79159e-05
1.79159e-05
1.79159e-05
1.79159e-05
1.79159e-05
1.79159e-05
1.79159e-05
1.79159e-05
1.79159e-05
1.79159e-05
1.79159e-05
1.79159e-05
1.79159e-05
1.79159e-05
1.79159e-05
1.79159e-05
1.79159e-05
1.79159e-05
1.79159e-05
1.79159e-05
1.79159e-05
1.79159e-05
1.79159e-05
1.79159e-05
1.79159e-05
1.79159e-05
1.79159e-05
1.79159e-05
1.79159e-05
1.79159e-05
1.79159e-05
1.79159e-05
1.79159e-05
1.79159e-05
1.79159e-05
1.79159e-05
1.79159e-05
1.79159e-05
1.79159e-05
1.79159e-05
1.79159e-05
1.79159e-05
1.79159e-05
1.79159e-05
1.79159e-05
1.79159e-05
1.79159e-05
1.79159e-05
1.79159e-05
1.79159e-05
1.79159e-05
1.79159e-05
1.79159e-05
1.79159e-05
1.79159e-05
1.79159e-05
1.79159e-05
1.79159e-05
1.79159e-05
1.79159e-05
1.79159e-05
1.79159e-05
1.79159e-05
1.79159e-05
1.79159e-05
1.79159e-05
1.79159e-05
1.79159e-05
1.79159e-05
1.79159e-05
1.79159e-05
1.79159e-05
1.79159e-05
1.79159e-05
1.79159e-05
1.79159e-05
1.79159e-05
1.79159e-05
1.79159e-05
1.79159e-05
1.79159e-05
1.79159e-05
1.79159e-05
1.79159e-05
1.79159e-05
1.79159e-05
1.79159e-05
1.79159e-05
1.79159e-05
1.79159e-05
1.79159e-05
1.79159e-05
1.79159e-05
1.79159e-05
1.79159e-05
1.79159e-05
1.79159e-05
1.79159e-05
1.79159e-05
1.79159e-05
1.79159e-05
1.79159e-05
1.79159e-05
1.79159e-05
1.79159e-05
1.79159e-05
1.79159e-05
1.79159e-05
1.79159e-05
1.79159e-05
1.79159e-05
1.79159e-05
1.79159e-05
1.79159e-05
1.79159e-05
1.79159e-05
1.79159e-05
1.79159e-05
1.79159e-05
1.79159e-05
1.79159e-05
1.79159e-05
1.79159e-05
1.79159e-05
1.79159e-05
1.79159e-05
1.79159e-05
1.79159e-05
1.79159e-05
1.79159e-05
1.79159e-05
1.79159e-05
1.79159e-05
1.79159e-05
1.79159e-05
1.79159e-05
1.79159e-05
1.79159e-05
1.79159e-05
1.79159e-05
1.79159e-05
1.79159e-05
1.79159e-05
1.79159e-05
1.79159e-05
1.79159e-05
1.79159e-05
1.79159e-05
1.79159e-05
1.79159e-05
1.79159e-05
1.79159e-05
1.79159e-05
1.79159e-05
1.79159e-05
1.79159e-05
1.79159e-05
1.79159e-05
1.79159e-05
1.79159e-05
1.79159e-05
1.79159e-05
1.79159e-05
1.79159e-05
1.79159e-05
1.79159e-05
1.79159e-05
1.79159e-05
1.79159e-05
1.79159e-05
1.79159e-05
1.79159e-05
1.79159e-05
1.79159e-05
1.79159e-05
1.79159e-05
1.79159e-05
1.79159e-05
1.79159e-05
1.79159e-05
1.79159e-05
1.79159e-05
1.79159e-05
1.79159e-05
1.79159e-05
1.79159e-05
1.79159e-05
1.79159e-05
1.79159e-05
1.79159e-05
1.79159e-05
1.79159e-05
1.79159e-05
1.79159e-05
1.79159e-05
1.79159e-05
1.79159e-05
1.79159e-05
1.79159e-05
1.79159e-05
1.79159e-05
1.79159e-05
1.79159e-05
1.79159e-05
1.79159e-05
1.79159e-05
1.79159e-05
1.79159e-05
1.79159e-05
1.79159e-05
1.79159e-05
1.79159e-05
1.79159e-05
1.79159e-05
1.79159e-05
1.79159e-05
1.79159e-05
1.79159e-05
1.79159e-05
1.79159e-05
1.79159e-05
1.79159e-05
1.79159e-05
1.79159e-05
1.79159e-05
1.79159e-05
1.79159e-05
1.79159e-05
1.79159e-05
1.79159e-05
1.79159e-05
1.79159e-05
1.79159e-05
1.79159e-05
1.79159e-05
1.79159e-05
1.79159e-05
1.79159e-05
1.79159e-05
1.79159e-05
1.79159e-05
1.79159e-05
1.79159e-05
1.79159e-05
1.79159e-05
1.79159e-05
1.79159e-05
1.79159e-05
1.79159e-05
1.79159e-05
1.79159e-05
1.79159e-05
1.79159e-05
1.79159e-05
1.79159e-05
1.79159e-05
1.79159e-05
1.79159e-05
1.79159e-05
1.79159e-05
1.79159e-05
1.79159e-05
1.79159e-05
1.79159e-05
1.79159e-05
1.79159e-05
1.79159e-05
1.79159e-05
1.79159e-05
1.79159e-05
1.79159e-05
1.79159e-05
1.79159e-05
1.79159e-05
1.79159e-05
1.79159e-05
1.79159e-05
1.79159e-05
1.79159e-05
1.79159e-05
1.79159e-05
1.79159e-05
1.79159e-05
1.79159e-05
1.79159e-05
1.79159e-05
1.79159e-05
1.79159e-05
1.79159e-05
1.79159e-05
1.79159e-05
1.79159e-05
1.79159e-05
1.79159e-05
1.79159e-05
1.79159e-05
1.79159e-05
1.79159e-05
1.79159e-05
1.79159e-05
1.79159e-05
1.79159e-05
1.79159e-05
1.79159e-05
1.79159e-05
1.79159e-05
1.79159e-05
1.79159e-05
1.79159e-05
1.79159e-05
1.79159e-05
1.79159e-05
1.79159e-05
1.79159e-05
1.79159e-05
1.79159e-05
1.79159e-05
1.79159e-05
1.79159e-05
1.79159e-05
1.79159e-05
1.79159e-05
1.79159e-05
1.79159e-05
1.79159e-05
1.79159e-05
1.79159e-05
1.79159e-05
1.79159e-05
1.79159e-05
1.79159e-05
1.79159e-05
1.79159e-05
1.79159e-05
1.79159e-05
1.79159e-05
1.79159e-05
1.79159e-05
1.79159e-05
1.79159e-05
1.79159e-05
1.79159e-05
1.79159e-05
1.79159e-05
1.79159e-05
1.79159e-05
1.79159e-05
1.79159e-05
1.79159e-05
1.79159e-05
1.79159e-05
1.79159e-05
1.79159e-05
1.79159e-05
1.79159e-05
1.79159e-05
1.79159e-05
1.79159e-05
1.79159e-05
1.79159e-05
1.79159e-05
1.79159e-05
1.79159e-05
1.79159e-05
1.79159e-05
1.79159e-05
1.79159e-05
1.79159e-05
1.79159e-05
1.79159e-05
1.79159e-05
1.79159e-05
1.79159e-05
1.79159e-05
1.79159e-05
1.79159e-05
1.79159e-05
1.79159e-05
1.79159e-05
1.79159e-05
1.79159e-05
1.79159e-05
1.79159e-05
1.79159e-05
1.79159e-05
1.79159e-05
1.79159e-05
1.79159e-05
1.79159e-05
1.79159e-05
1.79159e-05
1.79159e-05
1.79159e-05
1.79159e-05
1.79159e-05
1.79159e-05
1.79159e-05
1.79159e-05
1.79159e-05
1.79159e-05
1.79159e-05
1.79159e-05
1.79159e-05
1.79159e-05
1.79159e-05
1.79159e-05
1.79159e-05
1.79159e-05
1.79159e-05
1.79159e-05
1.79159e-05
1.79159e-05
1.79159e-05
1.79159e-05
1.79159e-05
1.79159e-05
1.79159e-05
1.79159e-05
1.79159e-05
1.79159e-05
1.79159e-05
1.79159e-05
1.79159e-05
1.79159e-05
1.79159e-05
1.79159e-05
1.79159e-05
1.79159e-05
1.79159e-05
1.79159e-05
1.79159e-05
1.79159e-05
1.79159e-05
1.79159e-05
1.79159e-05
1.79159e-05
1.79159e-05
1.79159e-05
1.79159e-05
1.79159e-05
1.79159e-05
1.79159e-05
1.79159e-05
1.79159e-05
1.79159e-05
1.79159e-05
1.79159e-05
1.79159e-05
1.79159e-05
1.79159e-05
1.79159e-05
1.79159e-05
1.79159e-05
1.79159e-05
1.79159e-05
1.79159e-05
1.79159e-05
1.79159e-05
1.79159e-05
1.79159e-05
1.79159e-05
1.79159e-05
1.79159e-05
1.79159e-05
1.79159e-05
1.79159e-05
1.79159e-05
1.79159e-05
1.79159e-05
1.79159e-05
1.79159e-05
1.79159e-05
1.79159e-05
1.79159e-05
1.79159e-05
1.79159e-05
1.79159e-05
1.79159e-05
1.79159e-05
1.79159e-05
1.79159e-05
1.79159e-05
1.79159e-05
1.79159e-05
1.79159e-05
1.79159e-05
1.79159e-05
1.79159e-05
1.79159e-05
1.79159e-05
1.79159e-05
1.79159e-05
1.79159e-05
1.79159e-05
1.79159e-05
1.79159e-05
1.79159e-05
1.79159e-05
1.79159e-05
1.79159e-05
1.79159e-05
1.79159e-05
1.79159e-05
1.79159e-05
1.79159e-05
1.79159e-05
1.79159e-05
1.79159e-05
1.79159e-05
1.79159e-05
1.79159e-05
1.79159e-05
1.79159e-05
1.79159e-05
1.79159e-05
1.79159e-05
1.79159e-05
1.79159e-05
1.79159e-05
1.79159e-05
1.79159e-05
1.79159e-05
1.79159e-05
1.79159e-05
1.79159e-05
1.79159e-05
1.79159e-05
1.79159e-05
1.79159e-05
1.79159e-05
1.79159e-05
1.79159e-05
1.79159e-05
1.79159e-05
1.79159e-05
1.79159e-05
1.79159e-05
1.79159e-05
1.79159e-05
1.79159e-05
1.79159e-05
1.79159e-05
1.79159e-05
1.79159e-05
1.79159e-05
1.79159e-05
1.79159e-05
1.79159e-05
1.79159e-05
1.79159e-05
1.79159e-05
1.79159e-05
1.79159e-05
1.79159e-05
1.79159e-05
1.79159e-05
1.79159e-05
1.79159e-05
1.79159e-05
1.79159e-05
1.79159e-05
1.79159e-05
1.79159e-05
1.79159e-05
1.79159e-05
1.79159e-05
1.79159e-05
1.79159e-05
1.79159e-05
1.79159e-05
1.79159e-05
1.79159e-05
1.79159e-05
1.79159e-05
1.79159e-05
1.79159e-05
1.79159e-05
1.79159e-05
1.79159e-05
1.79159e-05
1.79159e-05
1.79159e-05
1.79159e-05
1.79159e-05
1.79159e-05
1.79159e-05
1.79159e-05
1.79159e-05
1.79159e-05
1.79159e-05
1.79159e-05
1.79159e-05
1.79159e-05
1.79159e-05
1.79159e-05
1.79159e-05
1.79159e-05
1.79159e-05
1.79159e-05
1.79159e-05
1.79159e-05
1.79159e-05
1.79159e-05
1.79159e-05
1.79159e-05
1.79159e-05
1.79159e-05
1.79159e-05
1.79159e-05
1.79159e-05
1.79159e-05
1.79159e-05
1.79159e-05
1.79159e-05
1.79159e-05
1.5212e-05
1.24214e-05
1.03688e-05
8.89209e-06
7.65873e-06
6.84749e-06
6.40816e-06
6.01363e-06
5.40817e-06
5.17916e-06
5.15367e-06
5.01521e-06
4.90923e-06
4.93534e-06
5.03658e-06
5.22313e-06
5.47132e-06
5.73154e-06
6.13234e-06
6.48046e-06
6.58578e-06
6.62966e-06
6.74491e-06
6.82684e-06
6.81778e-06
6.75743e-06
6.65683e-06
6.5716e-06
6.57238e-06
6.5734e-06
6.55186e-06
6.51709e-06
6.48704e-06
6.46614e-06
6.45885e-06
6.45348e-06
6.44747e-06
6.44486e-06
6.45054e-06
6.4781e-06
6.50033e-06
6.50475e-06
6.50054e-06
6.47927e-06
6.44992e-06
6.43264e-06
6.4283e-06
6.43018e-06
6.43363e-06
6.43745e-06
6.4438e-06
6.46021e-06
6.49044e-06
6.52003e-06
6.52817e-06
6.5236e-06
6.50761e-06
6.4776e-06
6.43826e-06
6.40859e-06
6.39571e-06
6.39491e-06
6.40472e-06
6.42688e-06
6.44719e-06
6.46691e-06
6.48207e-06
6.49142e-06
6.49817e-06
6.50257e-06
6.5024e-06
6.49686e-06
6.48401e-06
6.45849e-06
6.4252e-06
6.40016e-06
6.39059e-06
6.39064e-06
6.39682e-06
6.42243e-06
1.79159e-05
1.79261e-05
1.78337e-05
1.7686e-05
1.74034e-05
1.62387e-05
1.44412e-05
1.31828e-05
1.19346e-05
1.02014e-05
9.02013e-06
8.14057e-06
7.25276e-06
6.80943e-06
6.50774e-06
6.29995e-06
6.14061e-06
6.02207e-06
6.06502e-06
6.15664e-06
6.20969e-06
6.1973e-06
6.23083e-06
6.35216e-06
6.45894e-06
6.50184e-06
6.51624e-06
6.58177e-06
6.6365e-06
6.64597e-06
6.63274e-06
6.5984e-06
6.55362e-06
6.53399e-06
6.52767e-06
6.51616e-06
6.48739e-06
6.47391e-06
6.47595e-06
6.49072e-06
6.49158e-06
6.48826e-06
6.48492e-06
6.48595e-06
6.49262e-06
6.49725e-06
6.49453e-06
6.47847e-06
6.46016e-06
6.45366e-06
6.4559e-06
6.46488e-06
6.47118e-06
6.47875e-06
6.48809e-06
6.49066e-06
6.48835e-06
6.48497e-06
6.48353e-06
6.48096e-06
6.47234e-06
6.46569e-06
6.46331e-06
6.46082e-06
6.46056e-06
6.45621e-06
6.45001e-06
6.4482e-06
6.4493e-06
6.45657e-06
6.46849e-06
6.47365e-06
6.47115e-06
6.46831e-06
6.46498e-06
6.45967e-06
6.45273e-06
6.44842e-06
6.44931e-06
6.45179e-06
1.79159e-05
1.79159e-05
1.79159e-05
1.79159e-05
1.79159e-05
1.79159e-05
1.79159e-05
1.79168e-05
1.79322e-05
1.77453e-05
1.71034e-05
1.60547e-05
1.40644e-05
1.18142e-05
9.90371e-06
8.20786e-06
6.8929e-06
6.303e-06
6.1106e-06
5.9395e-06
5.91326e-06
5.94128e-06
5.97778e-06
6.06967e-06
6.18981e-06
6.39662e-06
6.54935e-06
6.63829e-06
6.72257e-06
6.72226e-06
6.7025e-06
6.6673e-06
6.62435e-06
6.60444e-06
6.61089e-06
6.61361e-06
6.603e-06
6.58151e-06
6.55248e-06
6.52832e-06
6.51848e-06
6.50799e-06
6.50113e-06
6.50264e-06
6.52111e-06
6.55319e-06
6.56575e-06
6.56284e-06
6.55136e-06
6.5266e-06
6.49957e-06
6.48692e-06
6.48417e-06
6.48046e-06
6.47886e-06
6.48023e-06
6.48415e-06
6.49373e-06
6.51213e-06
6.52801e-06
6.54312e-06
6.54799e-06
6.54551e-06
6.53356e-06
6.50682e-06
6.46979e-06
6.44534e-06
6.43871e-06
6.43826e-06
6.44132e-06
6.45139e-06
6.46524e-06
6.47137e-06
6.47579e-06
6.48504e-06
6.49323e-06
6.49935e-06
6.50065e-06
6.50262e-06
6.49924e-06
1.79159e-05
1.79159e-05
1.79159e-05
1.79159e-05
1.79159e-05
1.79159e-05
1.79159e-05
1.79159e-05
1.79159e-05
1.79159e-05
1.79159e-05
1.79159e-05
1.79165e-05
1.79113e-05
1.77022e-05
1.64125e-05
1.42316e-05
1.12654e-05
9.0552e-06
7.75776e-06
6.77763e-06
6.60924e-06
6.38642e-06
6.3955e-06
6.45335e-06
6.42396e-06
6.38997e-06
6.3955e-06
6.46857e-06
6.56333e-06
6.57802e-06
6.59801e-06
6.62143e-06
6.69478e-06
6.77869e-06
6.80102e-06
6.79151e-06
6.75669e-06
6.69519e-06
6.61562e-06
6.56188e-06
6.54155e-06
6.53665e-06
6.54144e-06
6.57074e-06
6.61418e-06
6.63612e-06
6.63767e-06
6.63073e-06
6.61306e-06
6.59099e-06
6.56233e-06
6.53193e-06
6.51078e-06
6.50225e-06
6.50264e-06
6.51e-06
6.52287e-06
6.53611e-06
6.55711e-06
6.57848e-06
6.58869e-06
6.5916e-06
6.58919e-06
6.57515e-06
6.54024e-06
6.49409e-06
6.46242e-06
6.45374e-06
6.45506e-06
6.46463e-06
6.47772e-06
6.48987e-06
6.50248e-06
6.51447e-06
6.52575e-06
6.53272e-06
6.53149e-06
6.52941e-06
6.52326e-06
1.79159e-05
1.79159e-05
1.79159e-05
1.79159e-05
1.79159e-05
1.79159e-05
1.79159e-05
1.79159e-05
1.79159e-05
1.79159e-05
1.79159e-05
1.79159e-05
1.79159e-05
1.79159e-05
1.79159e-05
1.79159e-05
1.7924e-05
1.78248e-05
1.67813e-05
1.51681e-05
1.24141e-05
9.80436e-06
8.18194e-06
7.14992e-06
6.81273e-06
6.4169e-06
6.30381e-06
6.34068e-06
6.34826e-06
6.37437e-06
6.42035e-06
6.50182e-06
6.61655e-06
6.71872e-06
6.80276e-06
6.81696e-06
6.81478e-06
6.80013e-06
6.77132e-06
6.71948e-06
6.65208e-06
6.62962e-06
6.62554e-06
6.62479e-06
6.63311e-06
6.6497e-06
6.66452e-06
6.66194e-06
6.65013e-06
6.63989e-06
6.638e-06
6.63448e-06
6.62328e-06
6.60972e-06
6.59346e-06
6.57403e-06
6.56271e-06
6.56262e-06
6.56662e-06
6.57139e-06
6.57667e-06
6.59227e-06
6.60766e-06
6.61134e-06
6.60618e-06
6.59113e-06
6.5697e-06
6.54739e-06
6.53405e-06
6.53012e-06
6.52961e-06
6.53331e-06
6.53821e-06
6.54104e-06
6.54284e-06
6.54401e-06
6.54474e-06
6.54276e-06
6.54079e-06
6.53603e-06
1.79159e-05
1.79159e-05
1.79159e-05
1.79159e-05
1.79159e-05
1.79159e-05
1.79159e-05
1.79159e-05
1.79159e-05
1.79159e-05
1.79159e-05
1.79159e-05
1.79159e-05
1.79159e-05
1.79159e-05
1.79159e-05
1.79159e-05
1.79159e-05
1.79159e-05
1.79213e-05
1.78945e-05
1.71982e-05
1.59277e-05
1.32871e-05
1.06321e-05
8.70668e-06
7.53241e-06
7.1558e-06
6.78909e-06
6.65291e-06
6.62116e-06
6.58476e-06
6.54418e-06
6.5572e-06
6.62343e-06
6.65807e-06
6.68238e-06
6.71366e-06
6.74822e-06
6.78174e-06
6.7846e-06
6.78122e-06
6.76869e-06
6.73805e-06
6.70477e-06
6.6812e-06
6.64854e-06
6.61842e-06
6.6122e-06
6.61833e-06
6.63749e-06
6.66565e-06
6.68859e-06
6.69075e-06
6.68593e-06
6.67075e-06
6.64202e-06
6.61281e-06
6.59455e-06
6.58384e-06
6.58078e-06
6.57997e-06
6.58498e-06
6.59996e-06
6.61029e-06
6.6098e-06
6.6084e-06
6.60937e-06
6.61427e-06
6.6191e-06
6.61928e-06
6.61509e-06
6.60192e-06
6.58327e-06
6.56889e-06
6.55876e-06
6.55114e-06
6.54779e-06
6.5448e-06
6.54244e-06
1.79159e-05
1.79159e-05
1.79159e-05
1.79159e-05
1.79159e-05
1.79159e-05
1.79159e-05
1.79159e-05
1.79159e-05
1.79159e-05
1.79159e-05
1.79159e-05
1.79159e-05
1.79159e-05
1.79159e-05
1.79159e-05
1.79159e-05
1.79159e-05
1.79159e-05
1.79159e-05
1.79159e-05
1.79159e-05
1.79192e-05
1.79138e-05
1.75535e-05
1.65802e-05
1.3924e-05
1.11302e-05
9.13988e-06
7.87137e-06
7.24352e-06
6.67968e-06
6.54754e-06
6.50109e-06
6.49296e-06
6.50476e-06
6.53641e-06
6.60811e-06
6.69774e-06
6.78103e-06
6.81747e-06
6.81852e-06
6.80659e-06
6.77774e-06
6.73816e-06
6.69043e-06
6.64519e-06
6.60938e-06
6.59698e-06
6.59923e-06
6.62288e-06
6.67732e-06
6.71962e-06
6.72798e-06
6.72582e-06
6.71922e-06
6.70551e-06
6.67431e-06
6.63343e-06
6.60107e-06
6.58518e-06
6.583e-06
6.58708e-06
6.59479e-06
6.60626e-06
6.62681e-06
6.63945e-06
6.64649e-06
6.65182e-06
6.6558e-06
6.65657e-06
6.65397e-06
6.6449e-06
6.62758e-06
6.60801e-06
6.59011e-06
6.57262e-06
6.55962e-06
6.55275e-06
6.55179e-06
1.79159e-05
1.79159e-05
1.79159e-05
1.79159e-05
1.79159e-05
1.79159e-05
1.79159e-05
1.79159e-05
1.79159e-05
1.79159e-05
1.79159e-05
1.79159e-05
1.79159e-05
1.79159e-05
1.79159e-05
1.79159e-05
1.79159e-05
1.79159e-05
1.79159e-05
1.79159e-05
1.79159e-05
1.79159e-05
1.79159e-05
1.79159e-05
1.79159e-05
1.79179e-05
1.79166e-05
1.76795e-05
1.69443e-05
1.43079e-05
1.1606e-05
9.42972e-06
8.15305e-06
7.45166e-06
6.85361e-06
6.7132e-06
6.67823e-06
6.65442e-06
6.62368e-06
6.63756e-06
6.67653e-06
6.70354e-06
6.73554e-06
6.75638e-06
6.75877e-06
6.74493e-06
6.70501e-06
6.65537e-06
6.61458e-06
6.60628e-06
6.6072e-06
6.61355e-06
6.64957e-06
6.68567e-06
6.69985e-06
6.70452e-06
6.70382e-06
6.69617e-06
6.67904e-06
6.65279e-06
6.62509e-06
6.60313e-06
6.59681e-06
6.60054e-06
6.60923e-06
6.61078e-06
6.61115e-06
6.61733e-06
6.62735e-06
6.64205e-06
6.65353e-06
6.65302e-06
6.64642e-06
6.6383e-06
6.62839e-06
6.61706e-06
6.60505e-06
6.59361e-06
6.58448e-06
6.58278e-06
1.79159e-05
1.79159e-05
1.79159e-05
1.79159e-05
1.79159e-05
1.79159e-05
1.79159e-05
1.79159e-05
1.79159e-05
1.79159e-05
1.79159e-05
1.79159e-05
1.79159e-05
1.79159e-05
1.79159e-05
1.79159e-05
1.79159e-05
1.79159e-05
1.79159e-05
1.79159e-05
1.79159e-05
1.79159e-05
1.79159e-05
1.79159e-05
1.79159e-05
1.79159e-05
1.79159e-05
1.79159e-05
1.79172e-05
1.79151e-05
1.77632e-05
1.70544e-05
1.4536e-05
1.20095e-05
9.58919e-06
8.22067e-06
7.38891e-06
6.79388e-06
6.63112e-06
6.52698e-06
6.52153e-06
6.54912e-06
6.61844e-06
6.69227e-06
6.7515e-06
6.77883e-06
6.77962e-06
6.76213e-06
6.70588e-06
6.6428e-06
6.61257e-06
6.59907e-06
6.58491e-06
6.57981e-06
6.58187e-06
6.59815e-06
6.63451e-06
6.67045e-06
6.67909e-06
6.67654e-06
6.67079e-06
6.66521e-06
6.65873e-06
6.65194e-06
6.64134e-06
6.62294e-06
6.60262e-06
6.59633e-06
6.59628e-06
6.5999e-06
6.60973e-06
6.62193e-06
6.63057e-06
6.63386e-06
6.63308e-06
6.63305e-06
6.63315e-06
6.63101e-06
6.6304e-06
6.62978e-06
1.79159e-05
1.79159e-05
1.79159e-05
1.79159e-05
1.79159e-05
1.79159e-05
1.79159e-05
1.79159e-05
1.79159e-05
1.79159e-05
1.79159e-05
1.79159e-05
1.79159e-05
1.79159e-05
1.79159e-05
1.79159e-05
1.79159e-05
1.79159e-05
1.79159e-05
1.79159e-05
1.79159e-05
1.79159e-05
1.79159e-05
1.79159e-05
1.79159e-05
1.79159e-05
1.79159e-05
1.79159e-05
1.79159e-05
1.79159e-05
1.79159e-05
1.79173e-05
1.79127e-05
1.78031e-05
1.70298e-05
1.43018e-05
1.1847e-05
9.59442e-06
8.29988e-06
7.34641e-06
6.73767e-06
6.66915e-06
6.68279e-06
6.61729e-06
6.61306e-06
6.67856e-06
6.73408e-06
6.73588e-06
6.72734e-06
6.71468e-06
6.68642e-06
6.6399e-06
6.59561e-06
6.56215e-06
6.53347e-06
6.5234e-06
6.52938e-06
6.55924e-06
6.6018e-06
6.63308e-06
6.65255e-06
6.66875e-06
6.67627e-06
6.67811e-06
6.67539e-06
6.65756e-06
6.62484e-06
6.59196e-06
6.58277e-06
6.58289e-06
6.58513e-06
6.58777e-06
6.59015e-06
6.60212e-06
6.62322e-06
6.63955e-06
6.64676e-06
6.6493e-06
6.65256e-06
6.65362e-06
1.79159e-05
1.79159e-05
1.79159e-05
1.79159e-05
1.79159e-05
1.79159e-05
1.79159e-05
1.79159e-05
1.79159e-05
1.79159e-05
1.79159e-05
1.79159e-05
1.79159e-05
1.79159e-05
1.79159e-05
1.79159e-05
1.79159e-05
1.79159e-05
1.79159e-05
1.79159e-05
1.79159e-05
1.79159e-05
1.79159e-05
1.79159e-05
1.79159e-05
1.79159e-05
1.79159e-05
1.79159e-05
1.79159e-05
1.79159e-05
1.79159e-05
1.79159e-05
1.79159e-05