/*--------------------------------*- C++ -*----------------------------------*\
| =========                 |                                                 |
| \\      /  F ield         | OpenFOAM: The Open Source CFD Toolbox           |
|  \\    /   O peration     | Version:  v1912                                 |
|   \\  /    A nd           | Website:  www.openfoam.com                      |
|    \\/     M anipulation  |                                                 |
\*---------------------------------------------------------------------------*/
FoamFile
{
    version     2.0;
    format      ascii;
    class       volScalarField;
    location    "1.32";
    object      Ma;
}
// * * * * * * * * * * * * * * * * * * * * * * * * * * * * * * * * * * * * * //

dimensions      [0 0 0 0 0 0 0];


internalField   nonuniform List<scalar> 
1900
(
9.68421e-07
3.73925e-06
0.000209698
0.00288897
0.0129791
0.0282606
0.040922
0.0469145
0.0504088
0.045798
9.67834e-07
3.73354e-06
0.000208955
0.00287658
0.0129248
0.0281437
0.0406262
0.046746
0.0511411
0.0514453
9.67486e-07
3.72932e-06
0.000208471
0.00286942
0.0128952
0.0280692
0.040429
0.046724
0.0509228
0.054697
9.67834e-07
3.73353e-06
0.000208955
0.00287658
0.0129248
0.0281437
0.0406262
0.046746
0.0511411
0.0514453
9.68421e-07
3.73925e-06
0.000209698
0.00288897
0.0129791
0.0282606
0.040922
0.0469145
0.0504088
0.045798
0.0503943
0.0652944
0.0815206
0.107263
0.177391
0.0595184
0.0728442
0.0926114
0.132026
0.20426
0.0626438
0.0745139
0.0952939
0.137644
0.208568
0.0595184
0.0728442
0.0926114
0.132026
0.20426
0.0503943
0.0652944
0.0815206
0.107263
0.177391
0.204104
0.170895
0.154138
0.152877
0.234897
0.21178
0.178567
0.151221
0.121324
0.121208
0.216624
0.181445
0.147995
0.0984637
0.000807585
0.21178
0.178567
0.151221
0.121324
0.121208
0.204104
0.170895
0.154138
0.152877
0.234897
0.441848
0.186007
0.245649
0.28651
0.30542
0.285862
0.241349
0.187984
0.131829
0.0790439
0.0361627
0.0101483
0.00123757
4.29317e-05
2.79817e-07
2.39797e-10
1.96081e-14
1.47588e-16
2.02722e-16
6.65519e-17
9.07044e-17
1.21147e-16
1.98345e-16
2.49193e-14
3.18188e-10
3.54169e-07
5.20429e-05
0.00144636
0.0115448
0.0405078
0.0881601
0.147926
0.214874
0.286307
0.359962
0.43296
0.50086
0.56217
0.696824
1.49955
0.112866
0.191306
0.124444
0.252884
0.298093
0.287089
0.242273
0.188102
0.131621
0.0788755
0.0360773
0.0101185
0.00123238
4.2669e-05
2.77433e-07
2.37102e-10
1.80794e-14
9.00468e-17
4.10849e-16
1.90175e-16
1.47161e-16
3.53037e-16
4.29428e-16
2.51044e-14
3.18183e-10
3.54169e-07
5.20429e-05
0.00144636
0.0115448
0.0405078
0.0881601
0.147926
0.214874
0.286307
0.359962
0.43296
0.50086
0.56217
0.696824
1.49955
0.208587
0.24639
0.0130109
0.239015
0.295854
0.287511
0.242628
0.188161
0.13156
0.0788211
0.0360465
0.0101067
0.00123031
4.25673e-05
2.7654e-07
2.36119e-10
1.76614e-14
5.89301e-17
3.84906e-16
2.95527e-16
2.69558e-16
6.00002e-16
6.20115e-16
2.57537e-14
3.18185e-10
3.54169e-07
5.20429e-05
0.00144636
0.0115448
0.0405078
0.0881601
0.147926
0.214874
0.286307
0.359962
0.43296
0.50086
0.56217
0.696824
1.49955
0.112866
0.191306
0.124444
0.252884
0.298093
0.287089
0.242273
0.188102
0.131621
0.0788755
0.0360773
0.0101185
0.00123238
4.2669e-05
2.77433e-07
2.37099e-10
1.79845e-14
2.1458e-17
1.34277e-16
1.14122e-16
1.24069e-16
2.2418e-16
1.429e-16
2.77443e-14
3.18187e-10
3.54169e-07
5.20429e-05
0.00144636
0.0115448
0.0405078
0.0881601
0.147926
0.214874
0.286307
0.359962
0.43296
0.50086
0.56217
0.696824
1.49955
0.441848
0.186007
0.245649
0.28651
0.30542
0.285862
0.241349
0.187984
0.131829
0.0790439
0.0361627
0.0101483
0.00123757
4.29317e-05
2.79817e-07
2.39792e-10
1.96581e-14
6.62897e-19
7.6818e-17
7.79829e-17
1.20448e-17
1.04543e-16
4.51477e-16
2.79809e-14
3.18185e-10
3.54169e-07
5.20429e-05
0.00144636
0.0115448
0.0405078
0.0881601
0.147926
0.214874
0.286307
0.359962
0.43296
0.50086
0.56217
0.696824
1.49955
1.23731
0.489071
0.38865
0.338241
0.32196
0.287842
0.242366
0.188684
0.132484
0.0795687
0.0364989
0.0102861
0.00126206
4.41245e-05
2.90208e-07
2.51146e-10
1.89829e-14
5.2518e-17
6.57755e-17
5.8878e-17
2.67269e-17
1.06207e-16
2.59549e-16
2.5206e-14
3.18194e-10
3.54169e-07
5.20429e-05
0.00144636
0.0115448
0.0405078
0.0881601
0.147926
0.214874
0.286307
0.359962
0.43296
0.50086
0.56217
0.696824
1.49955
1.51409
0.659589
0.490649
0.395154
0.34836
0.30046
0.248933
0.192035
0.134523
0.0808904
0.0372402
0.0105633
0.00130886
4.63488e-05
3.09372e-07
2.71969e-10
2.08555e-14
9.23882e-17
1.41547e-16
2.50138e-16
1.07999e-16
2.12748e-18
1.08701e-16
2.50014e-14
3.18186e-10
3.54169e-07
5.20429e-05
0.00144636
0.0115448
0.0405078
0.0881601
0.147926
0.214874
0.286307
0.359962
0.43296
0.50086
0.56217
0.696824
1.49955
1.52524
0.688912
0.520833
0.428439
0.372077
0.316364
0.257939
0.197118
0.137483
0.0826274
0.0381318
0.0108744
0.00135884
4.86556e-05
3.28877e-07
2.9248e-10
2.48878e-14
2.25876e-16
1.49286e-16
1.84645e-16
9.84326e-17
6.89457e-17
1.34201e-16
2.50548e-14
3.18198e-10
3.54169e-07
5.20429e-05
0.00144636
0.0115448
0.0405078
0.0881601
0.147926
0.214874
0.286307
0.359962
0.43296
0.50086
0.56217
0.696824
1.49955
1.51134
0.694556
0.533527
0.45302
0.392737
0.330871
0.266805
0.202537
0.140731
0.0844704
0.0390152
0.0111601
0.00140177
5.05467e-05
3.43881e-07
3.09686e-10
1.30127e-12
1.30995e-12
1.2981e-12
1.29661e-12
1.30213e-12
1.29888e-12
1.30968e-12
1.30046e-12
3.18202e-10
3.54169e-07
5.20429e-05
0.00144636
0.0115448
0.0405078
0.0881601
0.147926
0.214874
0.286307
0.359962
0.43296
0.50086
0.56217
0.696824
1.49955
1.50231
0.693722
0.539749
0.470638
0.408257
0.342002
0.27423
0.207335
0.143652
0.0860784
0.0397336
0.0113719
0.00142997
5.16459e-05
3.5355e-07
5.88121e-09
5.87081e-09
5.87085e-09
5.87085e-09
5.87084e-09
5.87087e-09
5.87086e-09
5.87084e-09
5.87088e-09
5.8795e-09
3.54218e-07
5.20429e-05
0.00144636
0.0115448
0.0405078
0.0881601
0.147926
0.214874
0.286307
0.359962
0.43296
0.50086
0.56217
0.696824
1.49955
1.49865
0.691799
0.546985
0.483239
0.419097
0.35005
0.27984
0.210993
0.145821
0.0871968
0.0401738
0.0114846
0.00144363
5.22016e-05
2.90201e-06
2.87968e-06
2.87968e-06
2.87968e-06
2.87968e-06
2.87968e-06
2.87968e-06
2.87968e-06
2.87968e-06
2.87968e-06
2.87968e-06
2.90138e-06
5.21224e-05
0.00144636
0.0115448
0.0405078
0.0881601
0.147926
0.214874
0.286307
0.359962
0.43296
0.500859
0.56217
0.696824
1.49955
1.49549
0.690449
0.554134
0.49185
0.426087
0.355101
0.283203
0.213116
0.147084
0.0878335
0.0404328
0.0115377
0.00146262
0.000219261
0.000213017
0.000213017
0.000213017
0.000213017
0.000213017
0.000213017
0.000213017
0.000213017
0.000213017
0.000213017
0.000213017
0.000213017
0.000219278
0.00146188
0.0115464
0.0405074
0.0881589
0.147924
0.214873
0.286306
0.359961
0.43296
0.500859
0.562171
0.696819
1.49955
1.49612
0.69201
0.559515
0.497645
0.430721
0.358583
0.285488
0.214414
0.147696
0.0881046
0.0406116
0.0120467
0.00377222
0.00348664
0.00348632
0.00348633
0.00348633
0.00348633
0.00348633
0.00348633
0.00348633
0.00348633
0.00348633
0.00348633
0.00348633
0.00348633
0.00348668
0.0037729
0.0120501
0.0406382
0.0882022
0.147937
0.214875
0.286309
0.359971
0.432975
0.500867
0.56221
0.696693
1.49961
1.49911
0.69443
0.561507
0.500238
0.432663
0.359974
0.286576
0.215415
0.148908
0.0900442
0.0447588
0.0225105
0.0194367
0.0193879
0.019388
0.019388
0.019388
0.019388
0.019388
0.019388
0.019388
0.019388
0.019388
0.019388
0.019388
0.019388
0.0193879
0.0194371
0.0225102
0.0447557
0.0900561
0.148959
0.215528
0.286786
0.360377
0.433344
0.501169
0.562682
0.695977
1.50055
1.5044
0.695791
0.565692
0.503839
0.436296
0.363742
0.290909
0.22101
0.156972
0.103132
0.0677757
0.0559452
0.0548507
0.0548402
0.0548404
0.0548404
0.0548404
0.0548404
0.0548404
0.0548404
0.0548404
0.0548404
0.0548404
0.0548404
0.0548404
0.0548404
0.0548402
0.0548509
0.0559474
0.0677803
0.103125
0.156935
0.220938
0.290795
0.363578
0.436076
0.503523
0.565251
0.695592
1.50484
1.51443
0.700482
0.573231
0.51172
0.445246
0.37417
0.303869
0.237985
0.180456
0.136756
0.113009
0.106593
0.106083
0.106084
0.106084
0.106084
0.106084
0.106084
0.106084
0.106084
0.106084
0.106084
0.106084
0.106084
0.106084
0.106084
0.106084
0.106083
0.106594
0.113012
0.136761
0.180459
0.237981
0.303842
0.374088
0.445071
0.511425
0.572856
0.700082
1.51417
1.52645
0.71381
0.588033
0.527894
0.46356
0.395183
0.329398
0.269837
0.220987
0.187364
0.171156
0.167174
0.166892
0.166897
0.166898
0.166898
0.166898
0.166898
0.166898
0.166898
0.166898
0.166898
0.166898
0.166898
0.166898
0.166898
0.166897
0.166892
0.167174
0.171157
0.187367
0.220995
0.269847
0.329402
0.395167
0.463511
0.527824
0.587958
0.713731
1.52635
1.54175
0.737399
0.611669
0.554015
0.492176
0.427756
0.367384
0.314994
0.274325
0.248219
0.236433
0.233676
0.233495
0.233501
0.233501
0.233501
0.233501
0.233501
0.233501
0.233501
0.233501
0.233501
0.233501
0.233501
0.233501
0.233501
0.233501
0.233495
0.233676
0.236433
0.248219
0.274328
0.315
0.36739
0.427762
0.492179
0.554021
0.611677
0.737406
1.54173
1.55071
0.769462
0.646018
0.589648
0.532023
0.470338
0.416246
0.370095
0.336061
0.315109
0.305991
0.303902
0.303761
0.303765
0.303766
0.303766
0.303766
0.303766
0.303766
0.303766
0.303766
0.303766
0.303766
0.303766
0.303766
0.303766
0.303765
0.303761
0.303901
0.305991
0.315109
0.336061
0.370094
0.416247
0.470342
0.53203
0.589659
0.646031
0.769475
1.55072
1.57133
0.807939
0.686783
0.632978
0.576981
0.522075
0.471632
0.431491
0.4023
0.384924
0.377483
0.375764
0.375628
0.375627
0.375628
0.375628
0.375628
0.375628
0.375628
0.375628
0.375628
0.375628
0.375628
0.375628
0.375628
0.375628
0.375627
0.375628
0.375764
0.377483
0.384924
0.402299
0.43149
0.471631
0.522075
0.576982
0.632981
0.686786
0.807942
1.57134
1.57089
0.851624
0.742673
0.680256
0.632888
0.577222
0.533155
0.495647
0.469782
0.454465
0.448004
0.446492
0.446354
0.446351
0.446351
0.446351
0.446351
0.446351
0.446351
0.446351
0.446351
0.446351
0.446351
0.446351
0.446351
0.446351
0.446351
0.446354
0.446492
0.448004
0.454465
0.469781
0.495646
0.533154
0.577221
0.632887
0.680256
0.742672
0.851624
1.57089
1.58845
0.892841
0.78621
0.726153
0.680043
0.632504
0.590243
0.556358
0.532676
0.518944
0.513199
0.511866
0.51175
0.511749
0.511749
0.511749
0.511749
0.511749
0.511749
0.511749
0.511749
0.511749
0.511749
0.511749
0.511749
0.511749
0.511749
0.51175
0.511866
0.513199
0.518944
0.532676
0.556358
0.590243
0.632504
0.680042
0.726152
0.786209
0.89284
1.58845
1.57643
0.938656
0.851352
0.783398
0.738754
0.683273
0.643322
0.611207
0.589777
0.576997
0.571282
0.569693
0.569465
0.569452
0.569451
0.569451
0.569451
0.569451
0.569451
0.569451
0.569451
0.569451
0.569451
0.569451
0.569451
0.569451
0.569452
0.569465
0.569693
0.571282
0.576997
0.589777
0.611207
0.643322
0.683273
0.738753
0.783397
0.851352
0.938656
1.57643
1.64469
1.03427
0.939965
0.892248
0.850115
0.806412
0.768438
0.737611
0.716169
0.705369
0.703062
0.70392
0.704387
0.704434
0.704435
0.704435
0.704435
0.704435
0.704435
0.704435
0.704435
0.704435
0.704435
0.704435
0.704435
0.704435
0.704434
0.704387
0.70392
0.703062
0.705369
0.716169
0.737611
0.768438
0.806412
0.850115
0.892248
0.939965
1.03427
1.64469
2.18143
1.65119
1.5833
1.59521
1.57678
1.57733
1.55745
1.54761
1.53271
1.52103
1.51325
1.51039
1.50996
1.50994
1.50994
1.50994
1.50994
1.50994
1.50994
1.50994
1.50994
1.50994
1.50994
1.50994
1.50994
1.50994
1.50994
1.50996
1.51039
1.51325
1.52103
1.53271
1.54761
1.55745
1.57733
1.57678
1.59521
1.5833
1.65119
2.18143
2.18143
1.65119
1.5833
1.59521
1.57678
1.57733
1.55745
1.54761
1.53271
1.52103
1.51325
1.51039
1.50996
1.50994
1.50994
1.50994
1.50994
1.50994
1.50994
1.50994
1.50994
1.50994
1.50994
1.50994
1.50994
1.50994
1.50994
1.50996
1.51039
1.51325
1.52103
1.53271
1.54761
1.55745
1.57733
1.57678
1.59521
1.5833
1.65119
2.18143
1.64469
1.03427
0.939965
0.892248
0.850115
0.806412
0.768438
0.737611
0.716169
0.705369
0.703062
0.70392
0.704387
0.704434
0.704435
0.704435
0.704435
0.704435
0.704435
0.704435
0.704435
0.704435
0.704435
0.704435
0.704435
0.704435
0.704434
0.704387
0.70392
0.703062
0.705369
0.716169
0.737611
0.768438
0.806412
0.850115
0.892248
0.939965
1.03427
1.64469
1.57643
0.938656
0.851352
0.783398
0.738754
0.683273
0.643322
0.611207
0.589777
0.576997
0.571282
0.569693
0.569465
0.569452
0.569451
0.569451
0.569451
0.569451
0.569451
0.569451
0.569451
0.569451
0.569451
0.569451
0.569451
0.569451
0.569452
0.569465
0.569693
0.571282
0.576997
0.589777
0.611207
0.643322
0.683273
0.738753
0.783397
0.851352
0.938656
1.57643
1.58845
0.892841
0.78621
0.726153
0.680043
0.632504
0.590243
0.556358
0.532676
0.518944
0.513199
0.511866
0.51175
0.511749
0.511749
0.511749
0.511749
0.511749
0.511749
0.511749
0.511749
0.511749
0.511749
0.511749
0.511749
0.511749
0.511749
0.51175
0.511866
0.513199
0.518944
0.532676
0.556358
0.590243
0.632504
0.680042
0.726152
0.786209
0.89284
1.58845
1.57089
0.851624
0.742673
0.680256
0.632888
0.577222
0.533155
0.495647
0.469782
0.454465
0.448004
0.446492
0.446354
0.446351
0.446351
0.446351
0.446351
0.446351
0.446351
0.446351
0.446351
0.446351
0.446351
0.446351
0.446351
0.446351
0.446351
0.446354
0.446492
0.448004
0.454465
0.469781
0.495646
0.533154
0.577221
0.632887
0.680256
0.742672
0.851624
1.57089
1.57133
0.807939
0.686783
0.632978
0.576981
0.522075
0.471632
0.431491
0.4023
0.384924
0.377483
0.375764
0.375628
0.375627
0.375628
0.375628
0.375628
0.375628
0.375628
0.375628
0.375628
0.375628
0.375628
0.375628
0.375628
0.375628
0.375627
0.375628
0.375764
0.377483
0.384924
0.402299
0.43149
0.471631
0.522075
0.576982
0.632981
0.686786
0.807942
1.57134
1.55071
0.769462
0.646018
0.589648
0.532023
0.470338
0.416246
0.370095
0.336061
0.315109
0.305991
0.303902
0.303761
0.303765
0.303766
0.303766
0.303766
0.303766
0.303766
0.303766
0.303766
0.303766
0.303766
0.303766
0.303766
0.303766
0.303765
0.303761
0.303901
0.305991
0.315109
0.336061
0.370094
0.416247
0.470342
0.53203
0.589659
0.646031
0.769475
1.55072
1.54175
0.737399
0.611669
0.554015
0.492176
0.427756
0.367384
0.314994
0.274325
0.248219
0.236433
0.233676
0.233495
0.233501
0.233501
0.233501
0.233501
0.233501
0.233501
0.233501
0.233501
0.233501
0.233501
0.233501
0.233501
0.233501
0.233501
0.233495
0.233676
0.236433
0.248219
0.274328
0.315
0.36739
0.427762
0.492179
0.554021
0.611677
0.737406
1.54173
1.52645
0.71381
0.588033
0.527894
0.46356
0.395183
0.329398
0.269837
0.220987
0.187364
0.171156
0.167174
0.166892
0.166897
0.166898
0.166898
0.166898
0.166898
0.166898
0.166898
0.166898
0.166898
0.166898
0.166898
0.166898
0.166898
0.166897
0.166892
0.167174
0.171157
0.187367
0.220995
0.269847
0.329402
0.395167
0.463511
0.527824
0.587958
0.713731
1.52635
1.51443
0.700482
0.573231
0.51172
0.445246
0.37417
0.303869
0.237985
0.180456
0.136756
0.113009
0.106593
0.106083
0.106084
0.106084
0.106084
0.106084
0.106084
0.106084
0.106084
0.106084
0.106084
0.106084
0.106084
0.106084
0.106084
0.106084
0.106083
0.106594
0.113012
0.136761
0.180459
0.237981
0.303842
0.374088
0.445071
0.511425
0.572856
0.700082
1.51417
1.5044
0.695791
0.565692
0.503839
0.436296
0.363742
0.290909
0.22101
0.156972
0.103132
0.0677757
0.0559452
0.0548507
0.0548402
0.0548404
0.0548404
0.0548404
0.0548404
0.0548404
0.0548404
0.0548404
0.0548404
0.0548404
0.0548404
0.0548404
0.0548404
0.0548402
0.0548509
0.0559474
0.0677803
0.103125
0.156935
0.220938
0.290795
0.363578
0.436076
0.503523
0.565251
0.695592
1.50484
1.49911
0.69443
0.561507
0.500238
0.432663
0.359974
0.286576
0.215415
0.148908
0.0900442
0.0447588
0.0225105
0.0194367
0.0193879
0.019388
0.019388
0.019388
0.019388
0.019388
0.019388
0.019388
0.019388
0.019388
0.019388
0.019388
0.019388
0.0193879
0.0194371
0.0225102
0.0447557
0.0900561
0.148959
0.215528
0.286786
0.360377
0.433344
0.501169
0.562682
0.695977
1.50055
1.49612
0.69201
0.559515
0.497645
0.430721
0.358583
0.285488
0.214414
0.147696
0.0881046
0.0406116
0.0120467
0.00377222
0.00348664
0.00348632
0.00348633
0.00348633
0.00348633
0.00348633
0.00348633
0.00348633
0.00348633
0.00348633
0.00348633
0.00348633
0.00348633
0.00348668
0.0037729
0.0120501
0.0406382
0.0882022
0.147937
0.214875
0.286309
0.359971
0.432975
0.500867
0.56221
0.696693
1.49961
1.49549
0.690449
0.554134
0.49185
0.426087
0.355101
0.283203
0.213116
0.147084
0.0878335
0.0404328
0.0115377
0.00146262
0.000219261
0.000213017
0.000213017
0.000213017
0.000213017
0.000213017
0.000213017
0.000213017
0.000213017
0.000213017
0.000213017
0.000213017
0.000213017
0.000219278
0.00146188
0.0115464
0.0405074
0.0881589
0.147924
0.214873
0.286306
0.359961
0.43296
0.500859
0.562171
0.696819
1.49955
1.49865
0.691799
0.546985
0.483239
0.419097
0.35005
0.27984
0.210993
0.145821
0.0871968
0.0401738
0.0114846
0.00144363
5.22016e-05
2.90201e-06
2.87968e-06
2.87968e-06
2.87968e-06
2.87968e-06
2.87968e-06
2.87968e-06
2.87968e-06
2.87968e-06
2.87968e-06
2.87968e-06
2.90138e-06
5.21224e-05
0.00144636
0.0115448
0.0405078
0.0881601
0.147926
0.214874
0.286307
0.359962
0.43296
0.500859
0.56217
0.696824
1.49955
1.50231
0.693722
0.539749
0.470638
0.408257
0.342002
0.27423
0.207335
0.143652
0.0860784
0.0397336
0.0113719
0.00142997
5.16459e-05
3.5355e-07
5.88119e-09
5.87084e-09
5.87085e-09
5.87083e-09
5.87082e-09
5.87084e-09
5.87082e-09
5.87081e-09
5.87082e-09
5.87955e-09
3.54217e-07
5.20429e-05
0.00144636
0.0115448
0.0405078
0.0881601
0.147926
0.214874
0.286307
0.359962
0.43296
0.50086
0.56217
0.696824
1.49955
1.51134
0.694556
0.533527
0.45302
0.392737
0.330871
0.266805
0.202537
0.140731
0.0844704
0.0390152
0.0111601
0.00140177
5.05467e-05
3.43881e-07
3.09686e-10
1.30122e-12
1.30983e-12
1.298e-12
1.29567e-12
1.29576e-12
1.29763e-12
1.30956e-12
1.30026e-12
3.18207e-10
3.54169e-07
5.20429e-05
0.00144636
0.0115448
0.0405078
0.0881601
0.147926
0.214874
0.286307
0.359962
0.43296
0.50086
0.56217
0.696824
1.49955
1.52524
0.688912
0.520833
0.428439
0.372077
0.316364
0.257939
0.197118
0.137483
0.0826274
0.0381318
0.0108744
0.00135884
4.86556e-05
3.28877e-07
2.92482e-10
2.48731e-14
1.38387e-16
7.66255e-17
1.33093e-16
5.83155e-17
7.91155e-17
1.70999e-16
2.5079e-14
3.18215e-10
3.54169e-07
5.20429e-05
0.00144636
0.0115448
0.0405078
0.0881601
0.147926
0.214874
0.286307
0.359962
0.43296
0.50086
0.56217
0.696824
1.49955
1.51409
0.659589
0.490649
0.395154
0.34836
0.30046
0.248933
0.192035
0.134523
0.0808904
0.0372402
0.0105633
0.00130886
4.63488e-05
3.09372e-07
2.71983e-10
2.08447e-14
1.70616e-16
9.82339e-17
2.29494e-16
9.0786e-17
0
4.79858e-18
2.50303e-14
3.18235e-10
3.54169e-07
5.20429e-05
0.00144636
0.0115448
0.0405078
0.0881601
0.147926
0.214874
0.286307
0.359962
0.43296
0.50086
0.56217
0.696824
1.49955
1.23731
0.489071
0.38865
0.338241
0.32196
0.287842
0.242366
0.188684
0.132484
0.0795687
0.0364989
0.0102861
0.00126206
4.41245e-05
2.90208e-07
2.5118e-10
1.89377e-14
2.41908e-16
4.09835e-16
2.95522e-16
2.14069e-16
7.57118e-17
7.10637e-17
2.50419e-14
3.18207e-10
3.54169e-07
5.20429e-05
0.00144636
0.0115448
0.0405078
0.0881601
0.147926
0.214874
0.286307
0.359962
0.43296
0.50086
0.56217
0.696824
1.49955
)
;

boundaryField
{
    inlet
    {
        type            calculated;
        value           uniform 0;
    }
    outlet
    {
        type            calculated;
        value           nonuniform List<scalar> 
165
(
1.23731
1.51409
1.52524
1.51134
1.50231
1.49865
1.49549
1.49612
1.49911
1.5044
1.51443
1.52645
1.54175
1.55071
1.57133
1.57089
1.58845
1.57643
1.64469
2.18143
2.18143
1.65119
1.5833
1.59521
1.57678
1.57733
1.55745
1.54761
1.53271
1.52103
1.51325
1.51039
1.50996
1.50994
1.50994
1.50994
1.50994
1.50994
1.50994
1.50994
1.50994
1.50994
1.50994
1.50994
1.50994
1.50994
1.50994
1.50996
1.51039
1.51325
1.52103
1.53271
1.54761
1.55745
1.57733
1.57678
1.59521
1.5833
1.65119
2.18143
1.49955
1.49955
1.49955
1.49955
1.49955
1.49955
1.49955
1.49961
1.50055
1.50484
1.51417
1.52635
1.54173
1.55072
1.57134
1.57089
1.58845
1.57643
1.64469
2.18143
1.49955
1.49955
1.49955
1.49955
1.49955
2.18143
1.64469
1.57643
1.58845
1.57089
1.57134
1.55072
1.54173
1.52635
1.51417
1.50484
1.50055
1.49961
1.49955
1.49955
1.49955
1.49955
1.49955
1.49955
1.49955
2.18143
1.65119
1.5833
1.59521
1.57678
1.57733
1.55745
1.54761
1.53271
1.52103
1.51325
1.51039
1.50996
1.50994
1.50994
1.50994
1.50994
1.50994
1.50994
1.50994
1.50994
1.50994
1.50994
1.50994
1.50994
1.50994
1.50994
1.50996
1.51039
1.51325
1.52103
1.53271
1.54761
1.55745
1.57733
1.57678
1.59521
1.5833
1.65119
2.18143
2.18143
1.64469
1.57643
1.58845
1.57089
1.57133
1.55071
1.54175
1.52645
1.51443
1.5044
1.49911
1.49612
1.49549
1.49865
1.50231
1.51134
1.52524
1.51409
1.23731
)
;
    }
    obstacle
    {
        type            calculated;
        value           nonuniform List<scalar> 
40
(
9.68421e-07
3.73925e-06
0.000209698
0.00288897
0.0129791
0.0282605
0.040922
0.0469078
0.0503448
0.0451134
9.68421e-07
3.73925e-06
0.000209698
0.00288897
0.0129791
0.0282605
0.040922
0.0469078
0.0503448
0.0451134
0.0499508
0.06479
0.0813352
0.107006
0.169321
0.0499508
0.06479
0.0813352
0.107006
0.169321
0.203623
0.170812
0.154131
0.152015
0.228289
0.203623
0.170812
0.154131
0.152015
0.228289
)
;
    }
    empty
    {
        type            empty;
    }
}


// ************************************************************************* //
