/*--------------------------------*- C++ -*----------------------------------*\
| =========                 |                                                 |
| \\      /  F ield         | OpenFOAM: The Open Source CFD Toolbox           |
|  \\    /   O peration     | Version:  v1912                                 |
|   \\  /    A nd           | Website:  www.openfoam.com                      |
|    \\/     M anipulation  |                                                 |
\*---------------------------------------------------------------------------*/
FoamFile
{
    version     2.0;
    format      ascii;
    class       volScalarField;
    location    "8.8";
    object      s;
}
// * * * * * * * * * * * * * * * * * * * * * * * * * * * * * * * * * * * * * //

dimensions      [0 2 -2 0 0 0 0];


internalField   nonuniform List<scalar> 
10000
(
-3.44597e-15
8.19747e-13
-1.71008e-11
-5.87981e-10
1.53539e-08
-2.08926e-07
6.69956e-06
4.07264e-06
-2.8519e-05
6.12388e-05
-8.38625e-05
8.25602e-05
-5.26773e-05
-5.20403e-06
9.23305e-05
-0.000165116
0.000271498
-0.000439448
0.000371012
-0.00054863
0.00064696
-0.000509838
0.000763692
-0.000521345
0.000656894
-0.000577618
0.000472065
-0.000534233
0.000317429
-0.000388598
0.000176797
-0.000201083
4.31401e-05
-1.03139e-05
-7.72062e-05
0.000154967
-0.000183397
0.000273708
-0.000270523
0.000339501
-0.000327004
0.000357116
-0.000341936
0.000334566
-0.000312046
0.000279119
-0.000243262
0.000198013
-0.000148364
0.000100682
-4.41018e-05
-1.39611e-07
5.04875e-05
-8.89862e-05
0.000115155
-0.000149189
0.00013061
-0.000164732
8.29677e-05
-0.000122825
-2.98342e-05
-1.85488e-05
-0.000191691
0.000137194
-0.000365143
0.000307094
-0.000492968
0.000417747
-0.000500376
0.000359582
-0.000294943
2.72703e-05
0.000190867
-0.000528559
0.000792211
-0.000858966
0.000865349
-0.00034033
6.00852e-05
0.000396533
-0.000525499
0.000588348
-5.06104e-05
-0.000124281
0.00011421
-2.79182e-05
-9.29818e-06
-4.83643e-06
-1.71819e-05
-1.12583e-05
-6.3396e-06
-2.30365e-06
7.13355e-08
3.27915e-07
1.29712e-08
-3.08e-11
-1.78091e-10
-2.26634e-11
-7.53264e-13
-3.04692e-15
-7.71976e-13
1.15523e-10
-3.62998e-09
-4.1184e-08
2.49728e-06
-5.20675e-05
-0.000738711
0.000554344
0.000133188
-0.00119069
0.00225275
-0.00300024
0.00329745
-0.00334863
0.00259962
-0.00158353
0.00296638
0.00243035
-0.00311714
-0.00196304
-0.00823369
0.00244776
-0.00678697
0.00950266
-0.00390833
0.0122288
-0.0058579
0.0107412
-0.00867942
0.0101194
-0.00969289
0.00943015
-0.01023
0.0078675
-0.010228
0.0065343
-0.0090215
0.00583177
-0.00685919
0.00528388
-0.00447573
0.00432091
-0.00236785
0.00276084
-0.000617279
0.000793011
0.000906066
-0.00129204
0.00230272
-0.00331612
0.0035411
-0.00522626
0.00450205
-0.0069631
0.00508654
-0.00832156
0.00528546
-0.00891492
0.00514961
-0.00828836
0.00466407
-0.00614991
0.00359645
-0.00260973
0.0014352
0.00180094
-0.00251725
0.00665509
-0.00877928
0.0122797
-0.0160937
0.017943
-0.0177857
0.0159601
-0.00247179
-0.00521387
0.0241613
-0.0254817
0.0196575
-0.0121112
0.00714713
0.0116796
-0.017288
0.00554989
0.00127878
-0.00278451
0.000768131
-0.000663568
-0.000728411
-0.000132374
-9.44949e-05
9.26873e-06
6.87682e-05
4.93196e-05
-2.67973e-07
9.50509e-08
2.63595e-08
2.7747e-09
1.02211e-10
7.78557e-13
-9.87597e-12
2.6849e-09
-2.4025e-07
4.19852e-06
-3.58105e-05
0.00499826
0.00801007
-0.0111145
0.00847609
-0.00258314
-0.0044618
0.0107367
-0.0139087
0.0156158
-0.0203274
0.011173
-0.0205185
0.0308629
0.0167795
0.0211209
-0.0103351
-0.00768945
-0.0294375
-0.026372
-0.00864345
-0.00391933
0.0186301
0.000702616
0.00314099
-0.0174966
0.0045851
-0.0120892
0.0237446
-0.00178938
0.0310411
-0.00441917
0.0264664
-0.0141943
0.0183498
-0.0219428
0.0128429
-0.0243554
0.0114889
-0.0228729
0.0118407
-0.0205794
0.0108504
-0.0198395
0.00775002
-0.0210302
0.00414711
-0.022559
0.00238078
-0.0219584
0.00388239
-0.0173256
0.00815826
-0.00840567
0.0127405
0.00283824
0.0142585
0.0124752
0.00996709
0.0163633
-4.88966e-05
0.0120014
-0.00939201
0.000337543
-0.00820404
-0.00449202
-0.00386264
0.0315732
-0.0343161
0.11127
-0.0943127
0.0988117
-0.0106773
-0.109462
0.118149
-0.000350112
0.0170438
-0.0891651
0.0129592
0.044968
-0.0425319
0.0112866
0.00669411
-0.0157388
0.000371859
0.00307772
-9.52293e-05
0.00126783
0.00136323
0.000694153
-0.000301152
-1.30846e-05
-1.20332e-06
-9.03911e-08
-2.99424e-09
-2.56207e-11
7.4408e-10
-7.79799e-08
-2.858e-06
0.000131888
-0.00983287
-0.0502685
0.0026641
0.0242524
-0.0273215
0.0190919
-0.00668574
-0.00913146
0.018684
-0.0109751
0.0124149
-0.0296727
0.00790552
-0.0245049
0.00986337
-0.0329885
0.0128314
0.058896
0.0721453
-0.00317411
-0.00838333
-0.0911374
-0.0251603
0.0485233
0.085845
0.017728
0.0148452
-0.0398567
-0.0276025
-0.0391189
-0.0200886
-0.036898
-0.0122007
-0.0221437
-0.00892506
-0.000671198
-0.00767075
0.010575
-0.0115299
0.0119038
-0.0193087
0.0113991
-0.0231523
0.0101319
-0.0168374
0.00506778
-0.00135199
-0.00270165
0.0174063
-0.00924456
0.0335539
-0.0116376
0.0420683
-0.00608803
0.0364685
0.010629
0.0139755
0.0322518
-0.0138521
0.0437452
-0.0289453
0.0349631
-0.020678
-0.000604378
0.0278774
-0.0622275
0.104417
-0.0867239
0.0895325
0.0442037
-0.148117
0.333479
-0.383776
0.120218
0.516705
-0.664191
-0.109327
0.436542
-0.135247
-0.178062
0.133748
0.063694
-0.103722
-0.0309754
0.0555472
0.000797898
-0.00599225
0.00846775
0.00438739
0.000214581
-0.00456239
0.000509397
2.13563e-05
1.2297e-06
3.13579e-08
2.35865e-10
1.41139e-08
-3.03151e-06
9.69346e-07
0.00854305
0.0790827
0.0863946
-0.065843
0.0298227
-0.0164835
0.0152328
-0.00898573
0.0191497
-0.0275291
0.0135052
-0.00453863
-0.00258777
0.0215933
0.0155532
0.0258318
-0.0373919
0.00819285
-0.0667633
-0.0907233
-0.0886059
0.187241
0.200218
-0.111156
-0.113069
-0.00308267
0.0677302
-0.0496418
0.0192706
-0.078981
0.0262924
-0.0366273
0.0859433
-0.0219809
0.103558
-0.01459
0.0799059
-0.00452031
0.0476768
-0.00952343
0.0145426
-0.0280656
-0.0319924
-0.0345824
-0.0887534
-0.00932311
-0.127819
0.0336529
-0.123527
0.0639539
-0.0776301
0.0735956
-0.0177656
0.0720048
0.0306219
0.0518414
0.0736306
-0.00214559
0.12775
-0.069604
0.161154
-0.103684
0.11362
-0.079051
-0.0240474
0.0287834
-0.19211
0.188818
-0.2267
0.214521
0.0102209
-0.111373
0.353359
-0.607449
0.55644
-0.132405
-0.735239
0.911487
-0.321702
-0.573766
0.73227
0.10893
-0.44899
-0.129793
0.203846
0.0869868
-0.104712
0.00531356
0.0218667
-0.00468711
-0.00780927
-0.0131042
0.0070331
-0.000465397
-1.25678e-05
-1.41606e-07
-3.8866e-10
1.04944e-07
-6.20554e-05
-0.00282685
-0.0311828
-0.0962699
0.043727
-0.0266387
0.0143395
-0.00833034
-8.96511e-05
-0.0212931
0.0265049
0.0109601
0.0479071
-0.0848303
-0.0356981
0.00874438
0.0994426
-0.126157
-0.0628144
0.0103712
0.24953
0.0858037
0.0790945
-0.316066
-0.0267995
-0.0504274
0.0945892
-0.088576
0.00131009
-0.0608875
0.114543
0.0248752
0.117168
0.161081
0.0406236
0.192964
-0.0769484
0.106258
-0.170714
0.0140812
-0.201597
-0.00727377
-0.19764
0.0279162
-0.178918
0.0747347
-0.145512
0.0904357
-0.0968113
0.0555994
-0.0311403
-0.0103143
0.0471927
-0.0683031
0.121052
-0.0952037
0.177815
-0.0886358
0.220628
-0.0547692
0.241688
-0.00570272
0.194401
0.0391331
0.055981
0.0610409
-0.101228
0.158124
-0.316261
0.307858
-0.358027
0.0980146
0.0293984
-0.310972
0.254459
-0.317618
0.623298
-0.171871
-0.396684
0.307422
-0.533334
0.785652
0.310296
-1.3324
-0.248982
0.659382
0.337557
-0.203516
-0.139943
0.104132
-0.00152476
-0.00953822
0.0010946
-0.00626387
0.0112119
-0.00299674
0.000243706
-2.07396e-07
-1.44951e-08
3.49414e-06
-0.000427637
-0.0189685
-0.0492101
-0.00625041
-0.0503472
0.0801439
-0.0548559
0.0270211
-0.00618322
0.0170098
-0.0550221
-0.0113946
0.0861821
0.00157407
-0.0998579
0.0561808
0.227645
0.0425951
-0.190012
-0.222893
-0.00685518
-0.112136
0.116553
0.25211
-0.207858
-0.083034
-0.191327
0.2873
-0.121299
0.459419
-0.0815312
0.27393
-0.147313
0.0342791
-0.170666
0.0250684
-0.132509
0.138325
-0.0899145
0.138318
-0.0943418
0.0171236
-0.0912852
-0.109765
-0.0388055
-0.173964
0.0356345
-0.164056
0.0982009
-0.0972038
0.146969
-0.00921589
0.184757
0.048947
0.209522
0.0434794
0.219621
-0.00324842
0.186098
-0.0359165
0.0739831
-0.0279289
-0.0769367
0.0385918
-0.179299
0.177554
-0.191271
0.20079
-0.21358
0.142063
-0.203537
-0.0460235
0.0921803
-0.521429
0.213674
-0.221652
0.108352
-0.148117
0.131367
0.096669
-0.80869
0.0862859
-0.559997
-0.583948
1.47138
1.01535
-0.347854
-0.434408
0.012993
0.0818841
-0.0164068
0.0495901
0.00216914
-0.00991783
-0.00563777
0.00976136
-0.0012681
-1.98539e-05
4.02033e-07
0.000170333
0.0133035
0.10463
0.0267002
-0.025071
0.0199662
-0.0285519
-0.0173257
0.0989314
-0.141323
0.126859
-0.0631482
0.0472812
-0.0492578
0.145417
-0.439333
0.000344788
0.0608451
0.449236
0.0515821
0.348178
-0.15121
0.209766
-0.386296
0.0415251
-0.494887
0.215262
0.150246
0.154717
0.098999
-0.0277293
-0.0574455
-0.110395
-0.0382303
-0.1042
0.122751
-0.0904541
0.186281
-0.0807758
0.116317
-0.0440653
0.0118086
-0.0353604
-0.0485812
-0.0796806
-0.0576141
-0.136899
-0.0496208
-0.159387
-0.033496
-0.144615
-0.000792868
-0.101981
0.0556272
-0.0235543
0.133605
0.0767389
0.197755
0.148187
0.172167
0.150759
0.0304345
0.0842779
-0.130886
-0.0167451
-0.227061
-0.066132
-0.288981
-0.0464118
-0.275668
0.0301917
-0.0412794
0.0539015
0.105338
-0.314091
0.0108389
-0.314068
0.0144454
-0.265343
0.141232
0.269676
-0.236236
1.05136
0.502002
0.33012
1.34977
-0.197754
-1.28826
-0.40781
0.199603
0.109931
0.0621958
0.0120375
-0.0687223
2.81078e-05
0.00786901
0.017538
-0.0121945
0.000975739
-7.58968e-06
-0.00124618
-0.0376835
-0.0548139
0.16785
-0.140079
0.0586987
0.0223963
-0.0649578
0.0311851
0.0399418
0.00441007
-0.101573
0.0349417
-0.00294159
0.502294
-0.243436
-0.484998
-0.0125322
-0.152979
-0.160279
-0.0751312
0.0854788
-0.0244877
0.215133
0.00888107
0.310062
0.00763414
0.177507
-0.248022
0.10078
-0.132382
0.0923707
0.0697893
0.0155678
0.0390009
-0.0425984
-0.13227
-0.049951
-0.256263
-0.0455798
-0.27259
-0.0510578
-0.226237
-0.0507754
-0.176777
-0.0110885
-0.126711
0.0577321
-0.0912021
0.119941
-0.0902367
0.15643
-0.106994
0.162703
-0.103179
0.144704
-0.0539973
0.114563
0.0443573
0.0697878
0.175521
0.00673319
0.263321
-0.0735823
0.235031
-0.157701
0.151524
-0.195629
0.00231491
-0.155421
-0.149037
-0.0910102
-0.125654
0.165334
-0.0778331
0.499198
0.0248623
0.52302
0.24266
0.323168
0.625188
-0.270784
0.283547
-0.196716
-0.380939
0.367682
-1.12623
-1.27468
0.204931
0.555096
0.131616
-0.0545969
-0.140484
-0.0498156
0.0512878
-0.00816181
-0.0215292
-0.0051801
0.00296347
-8.37294e-05
0.00252139
0.0189273
-0.163512
-0.1083
0.0447525
0.0129632
-0.024646
0.0672634
-0.169257
0.084002
-0.0248223
0.0941234
-0.31908
0.166305
0.136854
0.563259
-0.423571
0.347363
-0.0675561
-0.183429
-0.267283
0.120465
-0.438209
-0.0989798
-0.169315
-0.0567019
-0.179249
0.0634199
-0.112457
0.248785
-0.128223
0.268565
-0.156854
0.0940646
-0.10763
-0.0506907
-0.0689956
-0.104853
-0.0900139
-0.113415
-0.136465
-0.124241
-0.147055
-0.129096
-0.0983876
-0.0966389
-0.0366212
-0.0310824
-0.00672629
0.0407472
-0.0104217
0.0841782
-0.018934
0.0703354
-0.00780658
0.000683312
0.0236155
-0.0839733
0.0559587
-0.137052
0.0710119
-0.134494
0.0641228
-0.0839601
0.0573455
-0.0377138
0.059167
-0.0669849
0.0470056
-0.113425
-0.0228871
-0.0100444
-0.140659
0.135698
-0.369689
0.0687011
-0.351093
-0.155855
-0.0446089
-0.309138
0.132978
-0.187437
0.0851691
-0.332177
-0.441121
0.431267
-0.756621
-0.742661
0.711324
0.708819
0.0937486
-0.0966565
-0.108802
0.074116
0.0652403
-0.0328787
-1.15844e-05
0.0165592
-0.00010814
-0.000127821
-0.00100231
0.0494557
0.238893
0.0618028
0.0379215
-0.00401357
-0.0137657
0.0600595
0.0419424
-0.108007
-0.0576227
0.0916182
-0.258401
-0.153537
0.402324
0.20336
-0.169531
0.189756
0.308332
-0.00668179
0.213604
0.429319
-0.0197363
0.497724
0.120632
0.161663
0.0326157
0.0188879
-0.0458642
-0.0360498
0.0291274
-0.0156782
0.131385
0.0274073
0.1813
0.0243683
0.130415
-0.00560151
0.0124344
-0.00453386
-0.120107
0.039482
-0.206364
0.0884617
-0.240063
0.101785
-0.243558
0.0731969
-0.2251
0.0148325
-0.181324
-0.0583785
-0.108116
-0.12793
-0.0129333
-0.169864
0.0754587
-0.171249
0.129398
-0.141257
0.143417
-0.108598
0.125442
-0.120392
0.106596
-0.177551
0.130421
-0.17284
0.122824
-0.0307497
-0.0289672
0.130528
-0.164669
0.283992
-0.0949629
0.254288
-0.00446856
0.213411
0.252279
0.0959064
0.382796
-0.235575
0.269588
0.0484559
-0.341063
0.506587
-0.564785
-0.259277
1.20182
0.658491
-0.197109
-0.178243
-0.0894267
0.0581921
0.00618103
-0.0242951
0.0150833
0.00322953
-0.00328694
2.77671e-05
-0.00225762
-0.0653016
-0.08385
0.0121924
0.0488102
-0.140442
0.135574
-0.0989022
0.187987
-0.0193874
0.223581
-0.151144
0.123909
-0.624635
0.227631
0.346352
-0.140005
-0.0726643
0.0352584
-0.283851
0.195418
0.0533079
0.166255
0.0885474
0.11079
-0.0831592
0.164777
0.0468109
0.111179
0.29423
0.0435872
0.374859
0.0100799
0.276359
-0.020982
0.136436
-0.0536349
0.0644042
-0.0611164
0.076492
-0.0435427
0.124544
-0.0183578
0.150107
0.00942791
0.13868
0.0357773
0.100887
0.0476433
0.0451943
0.0370028
-0.022314
0.0107179
-0.0905993
-0.012637
-0.139782
-0.0125727
-0.147669
0.0226613
-0.104053
0.0908381
-0.0260533
0.17533
0.0378384
0.224583
0.0540097
0.160722
0.0653255
0.0176928
0.131181
-0.0936299
0.165642
-0.153951
0.138185
-0.181551
0.0375853
-0.227153
-0.21846
0.0165214
-0.28259
0.393374
-0.225528
0.0470057
0.188606
-0.320355
0.424262
-0.435027
-0.196545
0.856942
0.153707
-0.611281
-0.329853
-0.0671257
0.0356151
-0.0296957
-0.010384
0.00592044
-0.00494845
-0.00141442
0.000128649
0.00300722
0.0455337
0.0701835
-0.0138173
0.0629999
-0.0208491
-0.169835
-0.0144579
0.116147
-0.173532
0.238022
0.174256
-0.307722
-0.505407
0.168349
0.0237754
-0.0755167
-0.223585
0.239949
-0.29541
0.337856
0.0551414
-0.0202681
-0.0112328
-0.10788
-0.140233
-0.0111712
-0.258521
0.0641241
-0.195064
0.0331206
-0.0604302
-0.0511104
-0.00138237
-0.0781808
-0.026172
-0.0418333
-0.0645697
0.0122396
-0.0777662
0.0423775
-0.067743
0.046912
-0.0473439
0.0504798
-0.0348857
0.0696611
-0.0405078
0.104928
-0.0601858
0.144911
-0.0877483
0.170342
-0.12388
0.161318
-0.169218
0.109551
-0.210989
0.0296801
-0.224129
-0.0418747
-0.190692
-0.0724469
-0.113778
-0.0671942
-0.0187055
-0.0581026
0.0407004
-0.0640138
0.0633591
-0.0732115
0.0619181
-0.12058
0.0611984
-0.12255
0.0298202
-0.0430032
-0.208216
0.168457
-0.22611
0.336315
-0.00788499
0.106522
0.217527
-0.331799
0.200436
-0.461298
-0.417316
0.652487
0.103952
-0.64628
-0.204809
0.0727096
0.1459
0.0574535
0.0121877
0.00648219
0.000478956
-8.08776e-05
0.000105039
-0.00401352
-0.0479818
-0.0443809
-0.00532782
-0.122797
0.167037
0.199852
-0.214068
-0.231991
0.323039
-0.0197068
0.321952
0.196901
-0.520036
-0.115124
0.342868
-0.315942
-0.147401
0.0448758
-0.105705
0.521061
0.182493
0.228908
0.343396
0.0615668
0.201098
0.109163
0.144582
0.23757
0.122545
0.253607
0.0549285
0.151676
0.00123802
0.0329818
-0.0303714
-0.0233311
-0.0561685
-0.0164747
-0.0865933
0.0173581
-0.115044
0.0489224
-0.132445
0.0643248
-0.13519
0.0664729
-0.123005
0.0655229
-0.0975297
0.0675912
-0.0612018
0.0718302
-0.0171729
0.0732455
0.0282287
0.0664429
0.0646809
0.0504824
0.0843363
0.033873
0.090828
0.031518
0.0933219
0.0482633
0.0878849
0.0655557
0.0767097
0.0429522
0.0998334
-0.00578069
0.185211
-0.0707376
0.241583
-0.09105
0.174534
0.0540337
-0.133675
0.130372
-0.181718
0.139104
-0.00911583
0.0536137
0.330884
-0.36893
0.133807
-0.360196
-0.347855
0.644565
0.031198
-0.575935
-0.0166539
0.19563
0.143645
0.0253704
-0.0447472
-0.0172846
0.0174064
-0.00230229
0.000125866
0.0034649
0.0262183
0.0421339
0.0507651
0.00256582
-0.381076
8.7267e-05
0.233866
-0.177241
-0.196684
0.0469665
0.526222
-0.100863
-0.0350683
-0.124695
0.111004
-0.282796
-0.178336
0.113325
-0.0287597
0.303921
-0.174962
0.0668909
-0.136743
-0.209207
-0.0254912
-0.0129148
0.0222996
0.151196
-0.0052166
0.137088
-0.0178443
0.0892914
0.012333
0.0750359
0.0685685
0.0846837
0.115808
0.101211
0.130532
0.120192
0.1108
0.139832
0.0682916
0.158679
0.0198242
0.174923
-0.020831
0.183726
-0.0470741
0.177345
-0.0597848
0.149251
-0.0647602
0.0995007
-0.0676342
0.037028
-0.0692129
-0.0229419
-0.0653623
-0.0629455
-0.0498778
-0.0670252
-0.0133147
-0.0358831
0.0551188
-0.0146105
0.149697
-0.0659416
0.227292
-0.16408
0.24884
-0.194939
0.146689
-0.0900006
-0.0937307
0.16084
-0.291661
0.0519347
-0.204889
0.109493
-0.0417241
-0.229062
0.325348
-0.264047
0.134672
-0.218334
-0.305221
0.571785
0.205228
-0.304552
0.0867077
0.312355
0.142279
-0.169006
-0.0519277
-0.00183506
0.0188269
-0.0062112
0.00022298
-0.00378805
-0.0423481
-0.0156651
-0.0285105
0.196687
0.352217
-0.20933
-0.160205
0.188049
0.0510114
-0.365243
0.494383
0.186528
-0.103167
-0.284567
0.373464
-0.702687
0.0447169
-0.0221876
-0.0572635
0.132048
-0.0669156
0.0554981
-0.201073
0.025866
0.019225
0.0890182
-0.0363056
0.137659
-0.203251
0.162189
-0.255331
0.130787
-0.191658
0.0724589
-0.11139
0.0202034
-0.0649606
-0.0146534
-0.050043
-0.0333542
-0.0518171
-0.0383913
-0.0566779
-0.0297617
-0.0537256
-0.00584634
-0.0358987
0.0345691
-0.001469
0.0897204
0.0444076
0.15249
0.0894946
0.209607
0.117739
0.244481
0.116137
0.244252
0.0823363
0.206255
0.0301837
0.137035
-0.00828475
0.0487768
0.0035197
-0.037187
0.0593565
-0.0871288
0.0822655
-0.0581357
0.0248089
0.070567
-0.0594358
0.209741
-0.187416
0.285845
-0.101706
0.121361
-0.351305
0.161984
0.0548888
0.0726981
0.197858
-0.0772319
0.134546
-0.0534117
-0.366633
0.317272
0.24805
-0.266535
0.0642806
0.214238
0.0556268
-0.23876
0.109518
0.0284682
-0.0070252
-0.00761188
0.000386155
0.00355038
0.00845193
-0.0667591
0.0264653
-0.303101
0.281397
0.316216
0.295699
-0.215869
-0.380017
0.10909
0.30793
0.185307
0.0880894
0.00705061
0.00485096
-0.309377
0.119361
-0.094264
0.103005
0.0355777
0.0440054
-0.315712
0.0936372
-0.0710592
0.185228
-0.00450146
0.142771
0.10663
0.0615795
0.268761
-0.0304933
0.370621
-0.0739826
0.342446
-0.071232
0.233181
-0.0573765
0.121338
-0.0564878
0.0443543
-0.0701998
0.00519363
-0.0901878
-0.0056153
-0.109695
0.00148269
-0.126123
0.0187214
-0.137975
0.0413646
-0.141369
0.0664118
-0.129651
0.0901343
-0.096871
0.105841
-0.0428156
0.104534
0.0250904
0.0799719
0.0957155
0.0361393
0.158376
-0.0066964
0.198977
-0.0153919
0.190535
0.022226
0.0989102
0.0504023
-0.0369109
0.0280762
-0.107468
0.110045
-0.170047
0.146513
-0.110762
0.348756
-0.242196
-0.0361052
-0.0701993
-0.122754
0.219435
-0.0272323
-0.0239805
0.136817
-0.559929
0.307332
0.150357
-0.318174
0.167775
0.102509
-0.18094
0.0274387
0.10716
-0.0534262
-0.0244239
-0.00479709
0.00053372
-0.00295077
-0.0110263
-0.0267535
0.132718
-0.119206
-0.419852
-0.150932
-0.24365
0.231181
-0.207128
-0.140784
0.00379699
0.631418
-0.228103
-0.0744076
0.0837828
-0.380078
-0.164945
0.181113
-0.172179
0.202323
-0.352593
0.0172435
0.14185
-0.0525589
0.192016
-0.0947457
0.180045
-0.049382
0.0912732
-0.0220569
-0.050981
-0.00538722
-0.203268
-0.00395933
-0.295881
-0.0188728
-0.302304
-0.04095
-0.253486
-0.056613
-0.189729
-0.0599991
-0.134809
-0.0534921
-0.0961951
-0.0415953
-0.0717116
-0.0271839
-0.0546469
-0.0118204
-0.0370383
0.00269148
-0.0124811
0.0139677
0.020685
0.0199493
0.0560911
0.0194177
0.078351
0.011629
0.0688956
-0.00179525
0.0209494
-0.00983107
-0.0435484
0.0115968
-0.0740469
0.0716187
-0.035209
0.101329
0.00184174
0.0622871
-0.118206
0.110566
-0.176615
0.102665
-0.250328
0.181202
-0.0376878
-0.0108052
0.0923168
-0.201041
0.119473
-0.0461521
0.0952942
0.0754208
-0.367272
0.30001
0.15414
-0.218882
0.162374
0.109571
-0.329737
0.161869
-0.243874
-0.0435635
0.0072168
0.00127125
0.000633143
0.00277075
-0.00638792
-0.0399961
0.0364311
0.0613546
-0.163749
0.15146
-0.286648
0.0449494
-0.378902
-0.106947
0.220784
0.274928
-0.190857
0.188303
0.00510027
-0.518575
0.40646
-0.0872565
0.039712
-0.0462666
-0.14921
0.21211
0.0313317
0.0179751
0.158679
-0.00621597
0.196173
-0.0205908
0.073095
-0.0201198
-0.0528784
-0.0261792
-0.109029
-0.0306906
-0.110181
-0.0280135
-0.0928392
-0.0349533
-0.0757356
-0.0605817
-0.0652583
-0.101696
-0.0624989
-0.151274
-0.0659521
-0.203098
-0.0732841
-0.252072
-0.0818454
-0.293036
-0.0879934
-0.319539
-0.0867259
-0.323361
-0.0726774
-0.29589
-0.0421795
-0.233006
0.00418886
-0.144029
0.0582647
-0.0597589
0.101716
-0.0251819
0.114114
-0.0634973
0.102837
-0.128644
0.112479
-0.108816
0.0998652
0.0414176
-0.04602
0.109364
-0.0634079
0.185147
-0.0764017
0.0717287
0.0602331
-0.182306
0.227583
-0.170661
0.248048
-0.167892
0.122649
0.131534
-0.303417
0.0355693
0.544008
-0.209373
-0.207179
0.315927
-0.145952
-0.0753815
-0.102861
0.128787
0.0194839
0.00628554
0.000388906
-0.00162846
0.0110125
-0.0409348
0.12462
0.127685
0.167019
0.223468
0.386027
0.321608
-0.108755
-0.332366
-0.00751217
0.274215
-0.0951986
0.117942
-0.448914
-0.0280036
0.00789849
-0.08358
-0.0818117
-0.00781008
0.0409222
0.112339
-0.00434407
0.0371597
0.128306
-0.081202
0.0955768
-0.222097
0.00478129
-0.195737
-0.103124
-0.0605505
-0.165242
0.0372559
-0.152531
0.0475412
-0.0925745
0.00496271
-0.016128
-0.0472269
0.0574663
-0.0862874
0.116722
-0.107609
0.154724
-0.116036
0.167464
-0.119213
0.153195
-0.124077
0.112587
-0.135426
0.0495387
-0.155115
-0.0273255
-0.181127
-0.102359
-0.20661
-0.151362
-0.219561
-0.146663
-0.205906
-0.0772373
-0.160986
0.0209194
-0.103808
0.0624568
-0.0557128
-0.0170272
0.0240464
-0.152958
0.124358
-0.171748
0.026452
-0.130955
0.0343746
0.0686753
-0.000286488
0.22648
-0.236893
0.0713953
-0.2702
0.146872
-0.0256793
0.036791
0.12029
-0.242231
-0.0049334
0.339552
-0.305244
0.0553897
0.0537718
-0.0209032
-0.186305
0.180471
0.0286191
0.00578039
0.000708186
5.37168e-05
0.00126645
-0.0198849
-0.0644913
-0.207824
0.328924
-0.110849
-0.146377
-0.0691776
-0.304435
-0.423327
-0.150027
0.0721133
0.190728
-0.0964536
-0.214725
-0.0426671
-0.109729
0.043176
0.0761741
0.0218933
0.165378
0.0169397
0.0211514
0.0288245
-0.00168129
0.0189785
-0.1395
-0.00666115
-0.175338
0.109672
-0.133948
0.182759
-0.0327395
0.090355
0.0818886
-0.0711115
0.149696
-0.184854
0.157395
-0.219041
0.12152
-0.196458
0.0643761
-0.148979
0.0038836
-0.0978064
-0.0487957
-0.0519053
-0.0886653
-0.0127958
-0.115606
0.0205195
-0.133454
0.0484056
-0.149632
0.0691226
-0.174599
0.0785911
-0.218812
0.0716516
-0.283475
0.046142
-0.345194
0.00972632
-0.350687
-0.0193164
-0.253153
-0.0318492
-0.087068
-0.0406779
0.014118
-0.00955169
-0.0405034
0.08629
-0.11997
-0.0626484
-0.12749
-0.0237214
-0.00187883
0.293466
-0.0143555
0.178214
-0.278561
0.0269163
-0.252139
0.0808408
0.197262
-0.21712
-0.0637718
0.0350725
0.0230446
0.18804
-0.30045
-0.224858
-0.0834586
0.0243272
-0.0184389
0.012606
0.00155679
0.000213079
0.000245416
0.00984875
0.0285079
-0.465878
-0.0151388
-0.0581218
0.0909877
-0.121723
0.233651
0.199885
-0.327583
-0.24707
0.297806
-0.356588
-0.0061347
-0.118268
-0.176567
0.147516
0.0807838
-0.0788926
0.0544093
-0.210663
0.0260697
-0.0550468
-0.104662
-0.0144716
-0.120592
0.103708
0.0198326
0.174105
0.00502182
0.18615
-0.166124
0.145101
-0.2769
0.0649537
-0.262914
-0.00994951
-0.190613
-0.0511652
-0.127312
-0.0555415
-0.0976335
-0.0340151
-0.0972559
-0.00109676
-0.113317
0.0312391
-0.135018
0.0561559
-0.155829
0.0722122
-0.171958
0.0821104
-0.180277
0.089959
-0.177302
0.0963119
-0.160135
0.0914288
-0.129777
0.0530074
-0.095106
-0.0374598
-0.0716055
-0.154623
-0.0706245
-0.209003
-0.0913512
-0.125144
-0.120464
0.0183148
-0.0721768
0.0212246
0.133445
-0.127478
-0.0343914
-0.0947412
-0.241252
0.213102
-0.0371049
0.292779
-0.110915
0.117982
-0.0280379
-0.299766
0.293813
-0.144693
0.209504
0.135838
-0.238622
0.225233
-0.111391
-0.0862426
-0.0647394
0.15459
0.0788056
0.0132075
0.00689782
-0.000178063
0.00052598
0.00225424
0.0970935
0.259726
0.029041
-0.183509
-0.24788
0.216948
0.0620897
-0.0853515
-0.399241
0.246159
-0.0189149
-0.295127
0.0998682
-0.197236
-0.0168885
0.222493
-0.0564045
-0.118325
0.0284729
-0.117934
0.100764
-0.0660936
-0.0314673
0.150668
0.0343894
0.273455
0.0369419
0.0778891
-0.00809996
-0.168879
-0.0651575
-0.211002
-0.109705
-0.12742
-0.116399
-0.0517398
-0.0953695
-0.021775
-0.0694214
-0.0165762
-0.0542839
-0.0115584
-0.0550533
0.00287241
-0.0693772
0.024404
-0.0917379
0.0458884
-0.116606
0.0598394
-0.139535
0.0603378
-0.156208
0.04418
-0.160545
0.0128123
-0.144843
-0.0248098
-0.106789
-0.0509424
-0.0646801
-0.0447736
-0.0644121
0.000665602
-0.141132
0.0562326
-0.237767
0.0502025
-0.207372
-0.077766
-0.0118596
-0.186811
0.118239
0.0590135
-0.114287
0.0851235
-0.19974
0.0479694
-0.0770978
0.177627
-0.0883757
-0.122702
0.0789117
-0.130143
0.0827906
-0.247232
0.125912
-0.0141757
-0.186291
0.344602
-0.267171
-0.0376867
-0.000708083
0.156439
0.0393777
-0.0191436
-0.00973062
-0.000198969
0.000386296
-0.000901263
-0.086
-0.0798028
-0.106349
0.48171
0.0315797
0.222005
0.24045
0.162244
-0.237307
-0.376717
0.0869154
-0.0494003
-0.0785297
-0.220305
0.0978113
0.110987
-0.175633
-0.0824801
0.0600651
-0.232193
0.157685
-0.177387
0.184136
0.2103
-0.0212612
0.265159
-0.333484
0.163502
-0.41149
0.0408571
-0.224943
-0.0406672
-0.0418087
-0.059079
0.0298875
-0.0439533
0.0359162
-0.0240101
0.0323197
-0.0107542
0.0382005
-0.00450859
0.050507
-0.00228045
0.0627605
-0.00232809
0.072208
-0.00538365
0.0794385
-0.013786
0.0856362
-0.0297968
0.0897477
-0.0534386
0.0863128
-0.0793988
0.065121
-0.0937934
0.0153814
-0.0767354
-0.0624634
-0.0219313
-0.139309
0.0291116
-0.151905
-0.00891757
-0.046293
-0.15403
0.113483
-0.245719
0.100666
-0.110179
-0.123202
0.141235
-0.0230009
-0.0415911
-0.126071
0.11583
-0.0436224
0.170314
0.205517
-0.0611378
-0.0274171
-0.231905
0.313081
-0.288535
0.123837
0.340321
-0.219112
0.189123
-0.112589
-0.099424
0.13679
0.0425912
0.0282519
-0.0912432
-0.00609367
0.000556394
0.000321411
-0.0231173
-0.0471652
0.0340887
-0.437223
0.130022
-0.167494
0.166368
-0.0724975
-0.189131
-0.52685
0.268027
0.265924
-0.492655
-0.0617783
0.0128133
0.186045
-0.109801
-0.152043
0.0167573
-0.137763
0.0298925
0.183415
-0.032969
0.470315
-0.155097
0.139115
-0.176472
-0.151991
-0.0185276
-0.274929
0.17911
-0.252704
0.203844
-0.147783
0.120779
-0.0443511
0.0481033
0.0210556
0.0200754
0.0514781
0.0204318
0.0631794
0.0298558
0.0695612
0.0395911
0.0762718
0.048007
0.0826401
0.0559425
0.0846621
0.0649402
0.0770005
0.0772719
0.0538472
0.0958133
0.0101106
0.122023
-0.0545583
0.150847
-0.126905
0.163733
-0.170967
0.127391
-0.139334
0.0152572
-0.0301046
-0.137042
0.0522645
-0.192394
-0.0130535
-0.0418863
-0.13009
0.089424
-0.066255
-0.104231
0.176888
0.0604307
-0.232664
-0.0839231
0.0234541
-0.0382037
0.0834111
0.093487
0.143858
-0.260124
0.193523
-0.204468
-0.115021
0.131826
-0.0993312
0.0815793
0.16814
-0.0129989
0.149972
0.0393287
-0.0293688
0.00268923
0.01947
0.000787462
0.00192479
0.031027
0.0943923
0.234597
0.270116
0.0190067
-0.327123
0.0629222
0.0010547
0.219301
0.0626951
-0.112094
-0.309095
-0.13338
0.23652
-0.0218416
-0.182973
-0.12274
0.0436305
-0.199209
0.178913
0.0897883
0.0532892
0.175523
-0.0430831
-0.143831
-0.053006
-0.146029
-0.0317071
-0.0449777
0.00176386
0.0813656
-0.053284
0.176621
-0.0964073
0.191014
-0.0838675
0.1465
-0.0491875
0.0897126
-0.0219337
0.0526325
-0.00737316
0.0441063
-0.000744435
0.0582342
0.00187663
0.0852207
0.00156091
0.117537
-0.00198864
0.150839
-0.00881344
0.181596
-0.0174754
0.203189
-0.0238143
0.202143
-0.0197616
0.15826
0.00593171
0.0561413
0.0603424
-0.086695
0.127764
-0.19555
0.151149
-0.184053
0.0657267
-0.0948295
-0.065832
-0.114505
-0.000677731
-0.226111
0.199921
-0.115343
-0.0780718
0.306469
0.0238495
-0.11755
-0.0720115
0.122647
0.07724
-0.0823332
0.21598
-0.191765
0.270634
-0.0958809
-0.212165
0.134732
0.0884831
-0.051589
-0.153399
0.0437516
-0.0210741
0.0393356
-0.00635397
0.0739116
-0.010122
0.000585744
-0.000672846
-0.00747226
0.0227427
-0.20092
-0.440246
-0.120772
0.0419288
0.113061
0.17002
0.22698
-0.525131
-0.0822669
0.307534
-0.122645
-0.0621102
-0.30964
0.049603
0.165198
-0.209912
0.0780376
0.22627
-0.186083
0.260625
-0.184774
0.0861883
-0.100838
0.0896231
-0.0445459
0.00219625
0.0741841
-0.0153504
0.0887058
-0.0112235
0.0648577
-0.0498171
0.037389
-0.0974383
0.0112521
-0.11288
-0.00128597
-0.0887255
0.00637829
-0.0424173
0.0288176
0.00474722
0.0556586
0.0399025
0.0782835
0.0603347
0.091711
0.0705872
0.0938052
0.0795459
0.0840881
0.0982656
0.0628974
0.136493
0.0308822
0.195011
-0.0106197
0.253982
-0.0564644
0.267925
-0.0912049
0.192332
-0.0893012
0.0537124
-0.048065
-0.0169451
-0.0447508
0.0508625
-0.161232
0.0440427
-0.167548
-0.176335
0.164665
-0.155823
-0.0239931
0.192542
0.0143404
-0.0959581
-0.119757
0.1806
-0.00127027
0.127644
-0.142714
0.164741
0.166306
-0.0653065
-0.170037
-0.0777752
0.090034
0.0951642
-0.0633181
0.147063
0.150874
-0.0431269
0.00618179
-0.0127893
0.00113443
0.00190994
0.0166764
-0.113612
0.218237
0.178179
0.0433604
0.0216403
0.131032
0.188699
-0.0611221
-0.277734
0.187204
-0.196899
-0.246479
-0.00207067
0.0807293
0.134658
-0.223702
-0.0183975
0.150517
-0.0356633
0.0125591
0.0515212
-0.0121888
0.111052
-0.0979693
0.0753208
-0.179378
0.117656
-0.0256381
0.0116322
0.0740144
-0.0978604
0.0458344
-0.130273
-0.00335207
-0.0825892
-0.00767974
0.013018
0.0293323
0.114248
0.0778042
0.192811
0.115012
0.24108
0.132908
0.264273
0.132017
0.270862
0.114649
0.267314
0.0822527
0.25712
0.0368478
0.242283
-0.0148927
0.22551
-0.0574397
0.210873
-0.0675721
0.200183
-0.0293723
0.185346
0.0352923
0.148121
0.0503617
0.0872901
-0.0489866
0.0533933
-0.170874
0.0768817
-0.10568
0.0107491
0.0227748
-0.10877
-0.203773
0.138838
-0.0492705
-0.0112497
0.0990052
0.0301212
-0.0153157
-0.0374925
0.00461907
0.190835
-0.169348
0.0542349
-0.00227449
-0.00237846
0.0236284
0.00218416
-0.181157
0.0434935
-0.122364
0.0170916
0.0225554
-0.142034
0.00119742
0.0353289
-0.000990007
-0.00102821
0.00749137
0.194804
0.0744054
-0.07812
0.0445614
-0.0101192
-0.00529763
0.0162641
0.146057
-0.141433
0.0434007
0.149994
-0.0434272
0.0383761
-0.126322
-0.18476
0.10209
0.0482183
0.013629
0.068429
-0.163505
0.275237
-0.0740715
0.0121263
-0.0935743
-0.014184
-0.0240559
0.160809
-0.0941776
0.0936757
-0.0937424
-0.0577782
0.00504851
-0.0951169
0.137258
-0.0138037
0.232321
0.109897
0.261109
0.216166
0.238109
0.285818
0.193706
0.325133
0.151572