/*--------------------------------*- C++ -*----------------------------------*\
| =========                 |                                                 |
| \\      /  F ield         | OpenFOAM: The Open Source CFD Toolbox           |
|  \\    /   O peration     | Version:  v1912                                 |
|   \\  /    A nd           | Website:  www.openfoam.com                      |
|    \\/     M anipulation  |                                                 |
\*---------------------------------------------------------------------------*/
FoamFile
{
    version     2.0;
    format      ascii;
    class       scalarField;
    location    "6e-05/lagrangian/dsmc";
    object      Ei;
}
// * * * * * * * * * * * * * * * * * * * * * * * * * * * * * * * * * * * * * //


12495
(
2.095304257e-20
1.408574611e-21
1.656350175e-20
4.504827794e-21
1.226904093e-21
1.094263813e-20
1.853865491e-22
1.149696984e-20
4.963760742e-21
2.826261714e-22
1.963027163e-21
1.27315812e-20
3.749102033e-21
1.245808764e-20
7.219052139e-22
8.77449808e-21
2.672119992e-20
3.559191161e-23
3.957579435e-21
1.280507995e-21
1.158929884e-20
9.54003211e-22
1.528624816e-21
8.05813879e-21
3.855996848e-20
7.246802915e-21
9.653638306e-21
1.014242906e-20
9.508733943e-21
8.06002249e-22
5.761557767e-21
6.116391517e-22
2.159883189e-20
6.059143593e-22
2.806996626e-21
2.299956448e-22
4.086747484e-21
2.538770211e-20
3.182550321e-21
1.619600504e-20
4.454186837e-21
2.102405474e-20
5.561539421e-21
2.251368166e-20
2.367377315e-20
4.307273121e-21
2.073582951e-20
7.191130789e-21
2.564266251e-20
1.453639824e-20
5.3218636e-21
5.854420182e-21
7.076281777e-21
1.438894046e-20
2.551171314e-20
2.56236507e-20
5.399075358e-21
7.66270127e-21
3.964482766e-21
4.448264921e-20
2.169479149e-21
1.413279093e-21
3.826211574e-21
2.099413845e-21
5.440270318e-21
3.370811676e-20
2.751196044e-20
1.384811166e-20
1.31460373e-20
1.01613449e-20
8.215886782e-22
1.006047319e-21
2.014146433e-20
1.538035264e-20
1.325717974e-20
9.036968259e-21
1.622636069e-20
8.654102646e-21
7.52621531e-21
1.549062909e-20
8.396138505e-21
1.002564287e-21
7.069584645e-21
8.102498696e-21
2.220868316e-20
2.437293514e-20
4.147210012e-21
2.466715668e-21
7.065832945e-21
2.116357951e-21
1.721337972e-20
1.68044075e-20
2.755891046e-20
3.106428584e-20
2.191838369e-21
2.857609371e-21
3.717801626e-20
1.761766137e-21
9.184348487e-21
1.691736491e-20
1.028479776e-20
2.109381603e-20
9.796766685e-21
2.316592369e-21
7.133280039e-21
2.153338991e-20
2.874462971e-20
9.012835952e-20
3.219786563e-20
2.16949359e-21
1.108211563e-22
1.103089504e-21
2.155302633e-20
1.942369431e-20
1.136059483e-20
1.921755897e-20
1.351655974e-21
1.357404494e-20
2.350314815e-20
2.146882784e-20
4.329072782e-21
1.04092944e-20
4.536223857e-20
1.967614671e-20
1.007062789e-20
3.50290596e-21
1.582921016e-20
3.040337235e-20
8.419631003e-21
2.136421922e-20
4.77033317e-21
1.367142081e-20
5.959622994e-21
1.022243878e-20
7.528336055e-21
8.812483548e-21
1.280094869e-20
1.320984981e-20
2.287478581e-21
4.099302238e-21
3.113305454e-20
1.806309561e-21
1.332045647e-20
2.066618686e-21
2.393880158e-20
9.039284256e-21
1.05270617e-21
2.337325045e-21
3.112902021e-21
1.853908208e-20
1.064093169e-20
4.528306715e-22
1.427207995e-20
2.173603752e-22
3.841779928e-21
4.33464062e-22
1.079967911e-20
2.7919272e-21
1.398863228e-22
1.029113887e-20
1.09796231e-20
2.673499561e-21
1.475345172e-20
2.423560494e-21
5.655838369e-20
6.464657377e-21
4.565337151e-21
9.757905669e-21
9.637028759e-21
8.06432007e-21
2.484540055e-20
2.606578872e-21
5.947867485e-21
2.651375598e-20
9.091275236e-21
8.679019737e-21
5.471755809e-21
3.210669122e-20
1.014312163e-21
3.94231415e-21
8.261432344e-20
3.19140669e-21
1.985986147e-20
4.047209859e-21
1.427796934e-20
1.821752761e-20
2.201156977e-20
3.112173539e-20
1.788472623e-21
8.46073185e-22
3.560260822e-20
8.381142021e-22
6.99656525e-21
9.490645432e-21
1.093536157e-20
1.360711184e-20
3.593686739e-21
7.068193023e-21
9.193968299e-22
9.674179066e-21
1.567328356e-21
1.077877748e-21
1.635799265e-20
1.420513925e-21
6.292335183e-21
1.217405572e-20
2.396121777e-21
7.36823518e-21
7.716344224e-21
2.286197106e-20
6.107442604e-21
1.366162693e-21
2.561411761e-21
7.10159035e-21
6.184811706e-22
1.183130894e-20
5.827053068e-21
1.0906579e-20
2.041705522e-20
2.849017615e-20
6.66252198e-21
1.402693329e-20
9.459697298e-21
2.933606448e-21
1.225918926e-20
4.311549223e-21
1.073870941e-20
8.448947547e-21
2.139087001e-20
4.84596019e-22
2.325499829e-21
1.707484028e-20
1.416061236e-20
4.454236684e-21
1.118108263e-20
2.7553709e-21
3.509638021e-21
1.234250101e-20
4.610216575e-21
2.847846932e-21
6.392944423e-21
6.26780988e-21
6.230696661e-21
4.918441026e-21
8.969151112e-21
1.141132787e-20
9.242219019e-21
3.049622517e-20
1.988563481e-21
2.142312649e-21
6.788257426e-21
4.20381856e-22
2.208718952e-21
3.510170525e-20
1.084783614e-20
4.192546142e-21
5.436023235e-21
8.171636249e-21
3.905108508e-22
6.569615671e-21
1.391785299e-20
1.030644794e-20
1.756605203e-20
1.915925089e-20
6.513660181e-21
1.117824261e-21
2.062534718e-20
2.404471657e-20
4.234308408e-20
8.363313376e-22
1.88274027e-20
2.064424721e-20
8.549555115e-22
2.084392244e-21
4.888406946e-21
1.214539769e-20
3.266728469e-21
1.552638868e-20
1.874856865e-20
9.134528475e-21
1.414544243e-21
7.301455257e-21
8.012099292e-21
2.922913801e-21
1.385195277e-21
1.631762588e-20
8.212505535e-21
9.205106058e-21
4.268685134e-20
1.99620982e-21
1.607927751e-20
3.842725429e-21
4.618530141e-20
1.886129666e-20
4.423183718e-20
1.294345906e-20
5.305832329e-21
3.031097804e-20
9.553057758e-21
7.199360745e-21
1.601694617e-20
3.047726923e-21
2.977390168e-22
6.859995789e-21
6.027473408e-21
1.089062244e-21
2.096903003e-20
5.124572276e-21
7.084080124e-21
5.823261877e-21
8.977821266e-21
5.717194165e-21
3.062324081e-20
2.228002754e-21
1.423139565e-20
1.601669804e-20
4.895174929e-21
4.470374481e-22
5.32557888e-21
9.325959848e-21
9.369989057e-21
1.386806798e-20
4.886148415e-22
2.592469721e-20
3.329037137e-21
5.751006513e-21
4.993438614e-21
4.081640655e-21
2.302843772e-21
3.707112145e-22
7.971572017e-21
2.248806027e-21
7.45543174e-21
3.912510438e-21
3.535543629e-22
6.813886778e-21
1.220154585e-20
3.684138847e-22
7.835550175e-21
9.734400138e-21
6.097937146e-21
1.590803012e-21
2.437299572e-21
1.215321538e-21
3.091768586e-20
3.901537296e-21
7.614201645e-22
3.09713976e-22
5.815836008e-21
1.379429405e-20
2.021191973e-21
4.177271197e-22
1.796002469e-20
1.578892438e-22
1.319642254e-20
1.057400832e-20
1.486464329e-20
4.781966659e-21
8.78870989e-21
7.942517028e-21
3.068697211e-21
6.595345097e-21
1.013871619e-20
3.107828221e-20
6.293893197e-21
3.687661232e-21
2.954642662e-21
5.059855546e-21
2.057609963e-21
4.041521175e-21
3.802864579e-21
1.041339865e-20
6.145401629e-21
3.898352767e-22
1.016811047e-20
8.695641637e-21
5.275617647e-21
2.663172788e-22
5.784162883e-21
3.258372904e-21
2.590531934e-20
6.962941387e-22
6.96903511e-21
1.629732251e-21
1.3571012e-20
2.62355999e-22
2.22369069e-20
3.942271252e-21
8.86242962e-21
9.147507925e-21
3.962232201e-21
1.706585628e-20
1.089610558e-20
1.417252735e-20
2.548026443e-20
3.710180293e-22
1.679910013e-20
9.132843495e-21
3.181331896e-21
1.567327875e-20
6.243423919e-21
3.098933615e-21
5.232063e-21
1.064940117e-20
5.237469231e-21
3.606612605e-20
3.072561536e-20
2.101123298e-20
1.051378974e-20
1.414771976e-21
2.383124039e-22
6.832180233e-22
5.617095102e-21
5.790098387e-21
2.370561043e-21
4.417799607e-21
3.728112989e-21
4.75692519e-21
3.108454682e-22
2.031038676e-21
3.08582016e-20
2.73040498e-20
6.083738208e-21
2.50971734e-20
1.174186482e-21
3.45486732e-21
2.660798302e-20
5.810870339e-21
8.719925522e-21
1.454546763e-20
2.743498141e-20
1.47535584e-21
3.834970352e-21
2.200356306e-22
2.801642012e-22
1.200829071e-21
5.678204528e-21
4.194415597e-21
8.348482346e-21
9.366953178e-21
8.214898659e-21
1.198668287e-21
9.322627768e-22
1.135202305e-20
1.125664957e-20
6.45216396e-21
8.200750167e-21
3.558115285e-21
1.678139877e-21
6.808258834e-22
1.381328926e-20
3.799124972e-21
1.181647486e-20
5.158904046e-21
8.804537634e-21
4.456282701e-20
3.685035723e-21
3.803888205e-21
8.887257991e-21
1.373467533e-21
1.259908465e-20
6.211796844e-22
9.666804447e-21
6.875298891e-21
2.946703559e-21
1.671015133e-20
7.836966403e-21
7.832714088e-21
5.471536271e-21
1.004858e-20
1.320571306e-20
3.024505407e-21
2.683614422e-21
2.729996701e-21
2.116060561e-21
9.343168427e-21
1.376527845e-20
8.267862011e-21
1.96100454e-20
5.112059319e-22
2.399845619e-23
3.913706783e-21
1.491688734e-20
2.021297912e-20
1.198079739e-21
2.118841821e-20
2.387092963e-20
1.496836852e-21
6.101236281e-21
1.724695919e-20
3.257947684e-20
1.365220022e-20
3.173039973e-21
1.394864308e-20
3.400464944e-21
1.51538302e-20
8.242041529e-21
2.03293646e-21
1.510104722e-20
7.14326105e-21
9.485632744e-21
3.67766193e-21
1.618583923e-22
6.417259443e-21
1.009117036e-20
1.594732712e-20
1.987227823e-21
2.251032443e-21
7.08408242e-21
1.720027707e-21
5.141642217e-22
3.870407638e-22
8.741762488e-21
4.689563425e-22
9.371834119e-21
3.235245038e-20
3.669735482e-20
5.099395687e-21
1.574595138e-20
5.955861418e-21
1.903780275e-20
2.177961628e-20
1.111339581e-20
4.59873252e-21
1.327137303e-20
1.395045718e-21
5.095410005e-20
1.410731404e-20
2.53335062e-20
1.223117099e-20
6.682013725e-21
1.473426346e-20
1.540438435e-21
6.315805506e-21
1.093798641e-20
5.054560725e-21
1.947883491e-20
9.890488713e-21
3.181988175e-21
3.074839118e-20
1.007557658e-20
2.508226337e-21
8.704739724e-22
8.142965592e-21
1.410384427e-21
1.614783518e-20
4.970042031e-21
9.476510341e-22
8.002739213e-21
1.499659398e-20
4.049526323e-22
7.265131336e-21
7.242509015e-22
5.068574703e-21
1.200212915e-20
4.670376703e-20
1.300697544e-20
6.217794329e-21
6.89510248e-21
8.513369334e-22
9.452427712e-21
1.012578197e-21
1.085665046e-21
1.697173909e-20
2.282940919e-21
9.905006751e-22
2.130860855e-20
5.005026629e-22
3.980401504e-20
2.453412176e-20
1.619783505e-21
9.297637241e-21
1.349108996e-21
5.0136601e-21
3.803224299e-21
6.189346408e-21
3.394171183e-21
6.919376674e-21
2.736067051e-21
5.424416748e-21
7.783993003e-21
6.175416888e-21
1.030354771e-20
2.309261254e-21
4.57756383e-21
4.18050747e-22
3.362740673e-21
6.023982427e-22
5.167936313e-21
1.164977945e-20
1.605247749e-20
6.991631009e-21
5.042574262e-21
3.015274533e-21
9.895946385e-21
2.793529888e-20
3.058615504e-20
6.558024245e-21
3.161859273e-20
1.874387331e-20
9.679081574e-21
6.197902394e-21
1.092685568e-20
4.204352724e-21
1.742937067e-21
2.371527489e-21
5.110670793e-21
1.41371009e-21
1.29286899e-20
3.25042889e-21
4.095632646e-22
1.292181807e-20
1.805618401e-21
1.307468934e-20
4.436311201e-21
2.213284828e-20
4.570749694e-21
2.023927079e-20
3.501793142e-21
1.358310548e-20
3.351247663e-22
1.281110332e-22
3.938333581e-21
2.184960907e-21
8.23713795e-21
5.793039367e-22
1.250963e-20
9.045812292e-22
3.299422122e-20
1.594270223e-20
5.369471604e-21
1.654403781e-20
8.475458509e-21
2.157388185e-20
2.280278577e-21
3.527104816e-21
4.311349806e-21
1.190303773e-20
2.42812353e-22
5.861893368e-21
1.547888989e-21
1.585153886e-21
1.568858277e-20
1.02923032e-20
6.232365486e-21
1.989557893e-22
1.663253095e-20
4.438792512e-21
5.9059675e-21
7.377375993e-20
7.782684495e-21
6.176449106e-21
1.8753429e-20
3.680789486e-21
1.276666083e-21
1.756733224e-20
5.011019579e-21
1.426455673e-20
1.009261297e-20
2.789509716e-21
1.423627112e-20
5.185838303e-21
1.496483298e-20
1.839543504e-20
7.972035181e-21
1.646166337e-20
2.375832004e-20
9.524503693e-21
1.466826615e-20
1.240777889e-21
1.993293072e-20
3.056252774e-20
2.143075183e-21
3.07001567e-20
1.050036942e-20
4.830578902e-21
4.786087506e-21
4.313387741e-21
1.455818122e-20
1.573930061e-20
2.168377645e-20
7.559398267e-21
3.13866173e-20
1.806262383e-20
2.438880322e-20
5.897645165e-21
5.964448486e-21
5.305952395e-21
4.173371805e-21
3.136121436e-20
1.635856936e-20
2.023556686e-20
1.493698703e-20
2.686155641e-21
2.158551742e-20
1.286214305e-20
5.108470605e-21
4.422753431e-21
2.339980486e-21
1.483090652e-21
9.786845118e-21
2.318962111e-20
9.704281429e-21
8.287193337e-21
3.000512706e-21
8.320674332e-21
4.25184067e-21
6.013488457e-21
1.363202861e-22
6.548366039e-21
1.185328105e-21
4.564576278e-21
2.754668886e-21
1.252729535e-20
1.326944632e-20
1.046801706e-20
7.668548263e-21
8.452225433e-21
3.384903877e-20
5.558822846e-20
8.383933596e-22
1.209453536e-20
5.578536231e-21
4.563021002e-21
2.516914037e-20
2.469034449e-21
1.784164073e-22
5.754363011e-21
2.925730944e-21
3.085651408e-20
1.832811006e-20
4.284804143e-21
9.481393179e-22
9.938842384e-21
4.479226331e-21
6.406117504e-20
7.075362196e-21
2.966455921e-23
1.538592699e-20
1.045578989e-20
6.779004993e-21
9.412403598e-21
4.84552045e-21
2.996762198e-21
6.635523655e-23
1.892579178e-21
1.191595802e-21
2.336685527e-21
2.872272004e-20
2.341815844e-20
2.192184338e-20
5.063097167e-22
3.001745375e-21
1.969044049e-20
2.494207829e-20
1.219969788e-20
3.96437612e-20
2.382126405e-20
8.811118677e-21
2.237232679e-20
1.325164854e-20
9.988600887e-21
1.764000465e-20
1.032064752e-20
1.462859189e-21
3.044802664e-21
1.080271063e-20
8.082822762e-21
1.265965034e-20
2.538606715e-21
7.039271403e-21
1.354467972e-20
2.166084245e-20
1.43240131e-20
3.14767169e-20
1.042724147e-20
3.476445803e-21
7.462852759e-21
3.043995288e-21
2.278330102e-21
5.600384627e-23
1.189033931e-20
1.051159279e-21
3.223545147e-20
3.034842097e-20
3.791480696e-20
1.301427237e-20
1.521819542e-20
1.527007378e-20
1.326392829e-20
1.239907062e-20
7.693762487e-20
3.54959354e-20
1.87077732e-20
2.752157599e-20
7.953617528e-21
6.891781152e-21
3.740570126e-21
1.047505259e-20
1.042373803e-20
7.548660769e-23
3.990997421e-21
4.507800497e-21
2.300453527e-21
6.372596888e-22
3.138293639e-21
5.180987295e-21
3.425396087e-21
3.049722253e-21
8.170546089e-21
2.828630688e-21
5.507808857e-22
2.144074443e-20
1.058054286e-22
1.795525096e-20
2.057005547e-20
5.413912706e-21
8.804909381e-21
4.570852342e-21
7.456764673e-21
4.337914384e-20
1.102052003e-20
4.451172035e-22
7.512338781e-21
3.327741712e-20
5.65604179e-21
1.007550787e-20
5.467744034e-21
7.685313555e-22
4.581392675e-21
4.071157059e-21
1.385744169e-20
3.832247518e-20
5.072404274e-20
3.381616806e-21
1.658309119e-20
1.621730582e-21
3.155394032e-21
9.814183609e-21
1.191512285e-20
3.88354401e-20
5.233754255e-21
1.693842227e-21
1.370502996e-21
1.08644005e-21
1.014569397e-20
2.66774422e-20
4.979519983e-21
6.811232877e-21
5.644570691e-21
2.822112494e-21
1.570620511e-20
2.771986709e-21
2.663889046e-22
1.545208998e-21
2.697224099e-20
1.298184887e-21
1.891143083e-20
1.753077889e-20
4.28710018e-21
1.013632114e-20
6.979889823e-21
1.523233256e-20
1.957296717e-20
1.525821904e-21
3.381584379e-21
6.608930756e-21
2.179916159e-21
5.694512219e-21
2.662834963e-20
3.003308888e-21
3.950930721e-20
2.614200641e-22
8.405491696e-21
2.707167485e-20
3.57291264e-22
2.105218677e-21
1.083941007e-20
3.557866007e-21
4.566892822e-21
5.003481175e-21
2.9225359e-21
6.881885536e-21
1.300451768e-20
1.95090642e-20
4.073886334e-21
3.962981086e-21
7.284073e-20
1.415272969e-20
1.625556391e-20
1.904707371e-20
3.574956567e-22
2.582910314e-21
6.261189376e-21
9.142041423e-21
1.525354664e-21
3.631799018e-20
1.799346242e-20
2.006167933e-20
2.114908725e-20
3.734435203e-21
4.87209348e-22
2.527236756e-20
1.661305081e-21
3.259405759e-21
1.488208262e-20
1.280157373e-20
3.321577437e-20
6.355706407e-21
7.157014423e-21
5.472096417e-21
1.919329429e-20
1.44959756e-20
2.853118312e-21
9.604429306e-21
1.486854335e-21
2.888741093e-20
4.646711483e-22
5.969910759e-22
4.82198438e-21
1.137380987e-21
1.66108222e-20
1.186055688e-20
1.596775857e-20
9.936076585e-21
2.253981869e-20
9.293473476e-21
5.160428407e-21
4.475280934e-21
5.43562204e-22
3.753923782e-20
2.154352881e-20
6.402933527e-22
4.544378792e-21
1.802582835e-21
1.858501769e-21
3.072272136e-21
4.397341083e-20
2.354973704e-21
9.184989018e-21
3.050001392e-21
1.752421946e-21
2.502691372e-20
1.678955078e-21
4.587765915e-21
9.871467716e-21
7.568569577e-21
2.502763723e-20
1.567734877e-20
1.738838444e-21
8.884556975e-21
8.040412272e-22
3.99107762e-20
2.02095236e-22
2.286850491e-21
4.329381171e-21
6.940268496e-21
1.098840565e-20
1.033130543e-20
7.488595003e-21
4.336594036e-21
1.295307714e-20
3.840607838e-20
2.380705156e-21
1.325344065e-20
1.89743411e-20
1.181855066e-20
2.492979057e-21
1.44432095e-20
1.003999041e-20
5.048341357e-21
1.614610979e-20
1.524134041e-20
4.620518569e-20
1.994471708e-21
1.39236814e-20
1.093319988e-20
5.244371255e-21
8.47217014e-21
1.037028772e-21
1.190321304e-20
1.8140505e-20
2.451610711e-20
8.427080284e-21
1.828266641e-20
2.005967904e-20
2.158003823e-20
2.003443147e-20
1.421892315e-20
1.001150268e-21
2.466854893e-21
8.623207023e-21
5.049214796e-21
1.04839259e-19
7.329366727e-21
6.109486288e-23
1.376838378e-21
3.59827156e-21
2.391538435e-21
1.726426726e-20
1.695611883e-21
4.575491712e-21
1.253343447e-21
5.482598002e-21
2.122473107e-21
1.106235151e-20
3.817572314e-20
1.847161756e-20
3.068131013e-20
1.164302049e-20
9.234432001e-22
2.394981874e-20
4.169475598e-21
1.619147257e-22
1.892188032e-20
2.321435931e-20
3.531559909e-21
2.789134981e-21
1.092152631e-21
2.274889647e-20
1.750403261e-20
1.005299443e-20
4.038211051e-22
9.953673368e-22
8.991961212e-21
3.991253087e-21
1.062600293e-21
9.047162636e-21
6.403299101e-21
5.165502898e-22
3.833943116e-21
1.129575458e-20
3.33641605e-21
4.868807129e-21
5.347395053e-22
3.544766789e-21
3.431254079e-21
2.990008941e-21
1.913180468e-21
5.037658915e-21
5.827889775e-21
1.062617828e-20
3.367512867e-20
2.342735342e-21
1.078662363e-20
1.313118425e-21
1.172599649e-20
1.884626007e-20
3.816675811e-20
2.104276184e-20
6.186061787e-21
2.604175835e-20
3.668179686e-22
9.595766032e-21
8.72956974e-21
1.191387133e-20
4.812121365e-22
8.294716454e-21
8.768568347e-21
4.724871582e-21
4.929985102e-21
1.022987785e-21
1.775647422e-21
2.092655598e-21
3.277400346e-20
3.148053017e-21
1.635435989e-20
8.364599931e-21
4.593782457e-21
6.800932838e-21
3.61506072e-21
2.159024172e-20
5.782891039e-21
3.035659707e-21
3.047390026e-21
9.68488375e-21
1.186947239e-20
5.312110368e-22
9.284954655e-21
7.620453253e-22
1.372625587e-22
4.45604802e-21
4.16597129e-21
2.760361664e-20
1.049437563e-20
1.732905456e-20
2.013640188e-21
7.822055425e-21
1.572833089e-20
3.928913639e-20
4.598102701e-21
1.258476455e-20
3.327984115e-21
1.682114842e-20
8.47201591e-22
6.120671301e-21
8.498093227e-21
6.88993835e-21
1.079278166e-20
2.452478161e-20
4.050062074e-20
3.968540047e-21
6.718847263e-21
1.017272628e-20
3.104622658e-20
3.991101651e-21
4.609403044e-21
5.836841745e-21
2.661557855e-21
9.755119879e-21
1.020712396e-21
1.037905413e-22
1.339822881e-20
2.479810241e-21
1.381668105e-20
3.704343207e-21
1.348650564e-20
6.857467963e-21
4.807242395e-21
3.480152861e-20
2.74151215e-20
1.389689186e-20
1.008258805e-21
9.790417693e-21
7.649128009e-21
2.121901488e-22
9.209456648e-21
5.240664367e-21
7.919650062e-21
9.81110634e-21
4.048645477e-21
8.443938327e-21
5.510497531e-21
5.311159225e-21
2.447453936e-20
4.247692884e-20
1.967230482e-20
6.187854102e-21
2.560768828e-20
3.823580565e-21
1.911728837e-20
5.202108615e-21
2.140343671e-21
3.744595631e-22
5.459989464e-21
8.66901298e-21
1.366432695e-21
6.536561108e-21
1.578175877e-20
9.250543414e-21
1.107750223e-20
5.368304911e-21
1.132286204e-20
5.514367965e-21
3.959873847e-21
7.857880889e-21
1.39134538e-21
1.366435718e-21
3.58425095e-21
8.104803476e-22
1.013817887e-20
1.540693077e-20
5.01123889e-21
3.381952907e-21
3.955341564e-21
1.56086477e-21
2.296319815e-20
1.01067798e-20
1.380386786e-22
1.355802686e-21
1.933413025e-20
1.805208568e-20
6.169443535e-22
1.215903026e-20
2.015487115e-21
4.658034956e-21
1.19523201e-20
1.084751022e-20
1.41298506e-21
2.000920441e-20
6.493340597e-21
1.422858557e-21
7.052124724e-21
2.955078686e-22
2.038863842e-20
3.073907942e-20
1.099673536e-21
2.266332767e-20
1.107434942e-21
9.150413955e-21
1.829968179e-20
7.068676809e-21
1.207028903e-20
7.306130328e-21
1.296976843e-20
5.987992283e-21
7.219097607e-21
1.661779646e-20
9.644604527e-21
8.337483972e-22
4.822270587e-21
5.797230655e-21
2.262904187e-21
6.478306982e-21
1.442021459e-21
7.826073118e-21
2.02375095e-20
5.599929288e-21
2.148061693e-20
1.479718843e-20
2.811389608e-21
6.242251151e-21
1.942584669e-21
5.639155974e-21
6.009060801e-21
5.8648312e-21
1.734371578e-20
3.686645177e-22
4.056347303e-21
1.452451081e-20
9.218939802e-21
1.969326013e-21
1.136223405e-20
3.38285347e-22
4.873569088e-21
6.309718033e-21
2.738780803e-20
4.926944483e-21
1.375888093e-20
4.199940857e-21
8.021635681e-21
4.21675285e-21
1.174983765e-21
5.469205042e-21
1.568466544e-20
1.67871488e-20
8.284660942e-21
9.072745251e-21
3.116612333e-20
2.453903268e-20
7.913027374e-21
7.517948358e-21
1.858509433e-20
3.85128463e-21
2.366574695e-21
8.242537301e-21
4.948368314e-20
4.977771282e-21
1.418274138e-20
5.510133994e-20
2.291001299e-20
1.157324055e-20
2.868358131e-21
1.940918237e-20
1.686071277e-20
1.171570784e-20
5.364512409e-21
2.923998882e-20
4.910616434e-21
1.263003543e-20
1.121599046e-20
1.123051587e-20
3.818810809e-21
1.758707967e-20
3.135434448e-20
1.198854286e-20
5.382453832e-21
1.127281661e-20
8.423860443e-21
1.380214391e-20
3.214734575e-20
4.806759166e-21
9.731210145e-21
5.723412509e-20
2.292592431e-23
1.686895314e-21
2.039748394e-21
4.356261248e-21
5.620142926e-21
1.845183318e-20
6.469709567e-21
2.661901111e-21
1.19132949e-20
1.348670725e-21
6.031509302e-21
3.740993109e-21
1.237816766e-20
9.91297059e-22
1.036289545e-21
3.255457093e-21
5.7933513e-22
3.675445151e-21
5.436995018e-21
2.857047524e-22
8.74010078e-22
2.089566146e-21
1.593329835e-21
4.695932694e-22
1.076367902e-20
5.201985148e-21
1.184494459e-21
4.357152277e-21
4.203253508e-22
4.583757088e-21
1.017574678e-21
1.993908645e-20
2.928701026e-21
1.142226333e-20
7.318621215e-21
1.154568731e-21
7.573476696e-22
9.049211091e-22
5.504286672e-21
1.592468492e-21
2.030759961e-20
1.441075389e-20
6.757186541e-21
3.616080898e-21
5.591630679e-22
3.972733468e-21
1.569943394e-20
4.207030058e-21
6.82720978e-22
4.947473942e-21
3.105815195e-20
4.526888353e-21
7.025568865e-21
3.619758356e-21
1.128757442e-20
8.604705641e-21
1.024501872e-20
1.134872639e-20
2.218184399e-21
4.603933063e-21
1.801395068e-21
1.672093086e-20
2.100318354e-21
4.700454417e-21
1.866505585e-20
4.231907505e-21
1.422656687e-20
7.578389572e-21
3.286102804e-21
1.621474076e-20
2.390392514e-21
1.060880352e-21
1.285817525e-20
1.148043184e-20
1.226845003e-20
9.711186733e-21
4.463324442e-21
1.955053024e-21
2.756121183e-21
3.624690705e-20
6.650776499e-21
6.142892785e-23
1.298399205e-20
3.19488767e-21
8.35683435e-21
5.86266015e-21
2.118375735e-21
5.340750925e-21
1.011009271e-20
2.436917524e-20
2.013049609e-21
1.021398647e-20
1.918989962e-21
9.725052133e-21
2.143436054e-21
6.225508399e-23
6.755286132e-21
4.02239906e-21
2.700512077e-20
1.318808628e-20
7.726985412e-21
6.261756617e-21
4.381173897e-21
2.964297335e-21
3.992238684e-21
4.713887623e-21
1.76719611e-21
9.594869318e-21
1.146291248e-20
1.10697469e-20
4.638382295e-22
2.42575566e-21
3.50787698e-21
1.462556084e-20
2.540050542e-21
3.373612238e-21
2.523308351e-20
9.026555826e-22
3.543708701e-21
3.500016153e-20
1.614440993e-21
3.822883237e-21
5.712953497e-21
1.289219226e-20
1.293439536e-21
9.199275948e-21
2.053489737e-22
1.556167254e-20
1.235427851e-21
6.607675302e-21
1.742925192e-20
7.57370754e-21
1.08167547e-20
3.769827688e-21
3.335166325e-22
3.49547703e-21
4.44682742e-20
1.073481202e-21
6.774932015e-21
1.07676808e-20
9.042315717e-21
8.8851703e-21
2.267749575e-20
2.520356968e-20
6.580764983e-21
3.024552997e-21
5.05914091e-22
1.739724255e-20
6.230158045e-21
4.764692393e-21
5.288438389e-22
1.394109555e-20
2.587554979e-20
1.910557046e-20
8.979672702e-21
4.667937725e-21
2.02302339e-21
2.247747497e-20
7.998459251e-21
2.818610622e-21
2.315222314e-20
1.68242456e-20
3.552476147e-21
4.250747999e-22
8.341396314e-21
1.190818318e-20
1.346444033e-20
9.618660522e-21
9.693558203e-21
3.423337954e-21
3.385809138e-20
4.932055099e-21
1.061637159e-21
3.952348703e-22
7.006074304e-21
7.097689269e-21
4.566696178e-21
8.877077691e-21
9.605922478e-22
4.747955743e-22
2.134876973e-20
3.041135947e-20
5.03310633e-21
2.169589831e-20
5.472563445e-21
1.473190837e-20
3.394805874e-21
2.267833957e-20
8.725905224e-21
1.303697414e-20
5.026208093e-21
1.3920523e-20
3.282016208e-21
4.724351589e-21
4.015915692e-21
1.286692468e-20
1.401198227e-20
3.48780633e-21
8.24176424e-21
2.800717499e-21
2.346196112e-22
2.508488976e-21
1.429622356e-20
1.29717971e-20
2.937377078e-21
1.298197654e-20
3.713900822e-22
5.203209927e-20
1.112341954e-21
1.047448994e-20
2.688238161e-21
4.964182594e-20
1.567980994e-20
4.337643078e-21
3.840454795e-21
2.405799146e-21
4.623149449e-21
7.112525147e-21
1.019401282e-20
1.495478949e-21
1.276728177e-20
1.801917285e-20
2.434534265e-20
1.16380177e-20
2.145876113e-20
3.370234731e-21
8.481994963e-22
3.152388542e-21
1.576319944e-20
8.922230439e-21
4.244812058e-21
2.08635688e-20
1.316855633e-20
7.469222594e-21
2.468601581e-21
2.151329118e-20
5.583089056e-22
1.688503962e-20
4.838663668e-21
5.62581106e-21
1.52679758e-21
5.247693931e-22
4.508838751e-21
1.038298728e-21
8.261315369e-21
5.263187416e-21
2.867154109e-20
1.29030666e-21
1.863930446e-20
2.22326517e-21
3.703281608e-21
4.252807511e-22
8.834060561e-22
8.322928166e-21
5.13430538e-21
1.091387136e-20
1.996119867e-20
1.114749537e-21
1.180087605e-21
3.839867548e-21
2.947801477e-21
1.244313719e-21
6.128576985e-22
2.03102385e-21
2.703098519e-21
1.175190278e-20
9.874282586e-21
3.311863004e-20
1.257356944e-20
1.03904295e-20
1.220551429e-20
2.530970454e-21
5.056993933e-22
1.442551438e-20
1.370435352e-22
4.54325803e-22
4.247253655e-21
1.745287713e-20
1.122471391e-20
6.2973319e-21
1.689234925e-22
1.781723631e-21
8.309529126e-22
8.345343447e-21
2.344864714e-20
2.73484813e-21
6.211819222e-21
1.445492785e-21
1.150848897e-20
3.505676945e-21
2.441407245e-21
8.240874274e-21
6.678765971e-22
4.607921067e-21
2.097489843e-22
3.124224588e-21
2.101337561e-21
1.343492018e-22
7.166237887e-22
2.05914658e-20
6.652685572e-21
1.216988382e-21
6.905832773e-22
1.341436415e-20
8.898177638e-21
2.564010364e-21
6.100423504e-21
8.496337011e-22
9.914433098e-21
3.229841568e-20
6.513673519e-22
5.976153907e-21
1.021099797e-21
3.193823142e-21
5.455951317e-21
3.08919555e-20
3.269417877e-21
1.867250991e-21
2.569762099e-21
7.236511675e-22
5.483283097e-21
8.039496624e-23
5.748126344e-21
3.977961032e-21
7.201036066e-21
9.081418201e-21
1.532004994e-21
1.956850717e-20
2.940298809e-21
2.693092352e-22
3.077625961e-21
6.602376728e-21
8.429941412e-21
6.323947731e-21
3.304745151e-21
4.188524965e-22
3.880114551e-21
2.954627787e-21
3.064630391e-21
1.392868791e-20
8.50913594e-21
1.205310235e-20
6.50546237e-21
2.882269364e-21
1.520718976e-21
8.47663506e-22
8.333473237e-21
1.212953358e-21
5.05210192e-22
1.350687385e-20
9.807805838e-22
7.616415744e-21
6.975876527e-22
1.316939658e-21
6.383341414e-21
1.931101264e-20
4.249515934e-21
1.559200285e-21
1.937713161e-21
3.122482752e-22
7.178680174e-21
5.57424316e-21
1.190802113e-20
2.633418115e-21
1.106858025e-21
2.562989928e-21
4.87935924e-21
7.238130397e-21
1.117108678e-20
4.830103507e-23
2.256107589e-20
6.650587488e-22
1.619020128e-20
5.349039579e-21
5.905676644e-21
7.848875072e-21
6.357500003e-21
5.209639973e-21
9.97208537e-21
5.029507878e-21
9.2163696e-21
1.770975151e-20
3.008319864e-20
2.907630093e-21
7.866082313e-21
1.650129702e-20
8.817993687e-21
1.252654271e-20
1.700934349e-20
3.080515325e-21
9.884640223e-22
8.355747321e-22
7.049384561e-21
2.416811491e-20
7.757644189e-21
2.752226478e-20
1.678306158e-20
7.13360318e-21
7.530106781e-21
1.398869279e-21
2.547915301e-21
2.212349038e-21
5.370279881e-21
9.166798193e-21
1.582557551e-20
2.798488897e-20
3.218220312e-20
9.333266486e-21
5.944464603e-21
6.183587288e-21
3.820585886e-21
5.275193679e-21
1.071653989e-20
1.194276489e-20
1.338957969e-20
8.2321748e-21
2.293407042e-20
5.942818067e-21
1.230009406e-20
2.320482796e-20
7.029507628e-21
1.451613728e-21
2.279535228e-20
7.423963694e-21
3.627638309e-22
1.874045178e-20
1.343971016e-20
4.90759282e-22
4.977262752e-21
1.720120387e-21
6.034111215e-21
7.817698575e-21
3.389177748e-21
2.957695897e-20
3.316649969e-21
2.363770368e-20
3.87541417e-21
9.90943782e-21
1.945117083e-21
5.805948839e-21
6.239375474e-21
4.775645562e-21
2.226643113e-20
2.15097433e-21
1.14066139e-20
3.756669662e-22
2.661459202e-21
1.260600483e-20
3.487197139e-20
1.260654379e-22
9.93700955e-22
1.948972264e-21
1.369501677e-20
1.294601563e-20
1.450149813e-21
2.453268095e-20
1.277099473e-20
6.702316161e-21
7.760117136e-21
1.650254876e-20
4.453083913e-21
1.420446448e-20
3.78328231e-20
8.704993307e-21
4.088314827e-21
1.405832843e-20
2.111495316e-20
1.603193104e-21
1.314909088e-20
4.781089329e-22
3.304199488e-21
7.985603646e-21
1.011084311e-20
2.697056922e-22
5.326560469e-22
9.883851199e-21
5.068965429e-21
2.769063421e-20
1.411635967e-22
9.71120301e-21
4.241047925e-21
7.534609717e-21
1.627771118e-20
7.920004958e-21
2.325977981e-20
1.398441285e-20
1.025183266e-21
3.347059772e-20
6.426032859e-22
1.47026747e-20
3.96996523e-21
2.175863183e-21
3.934446078e-21
2.293523079e-20
1.937119622e-20
2.610077583e-20
3.210781728e-21
1.688379617e-22
6.9947323e-21
3.029141091e-21
3.529299901e-22
1.97489653e-20
1.055658403e-20
1.248270945e-20
2.747268331e-20
1.618241213e-21
1.663983412e-20
9.911195252e-21
1.300081937e-20
5.021912877e-21
3.965642935e-22
1.467714446e-20
5.996486673e-22
2.54586831e-21
1.989382083e-20
5.883780607e-21
1.372247026e-20
6.308293036e-21
6.929462513e-21
2.023280509e-20
4.478798362e-21
6.020139708e-20
2.833965352e-21
1.436639378e-20
7.358121847e-21
2.557740612e-22
1.071826552e-21
1.702660445e-20
8.232132357e-22
8.103199563e-21
2.873615951e-21
2.404563396e-21
4.083837938e-21
5.865613297e-23
2.112631665e-20
1.065715996e-21
5.087386417e-20
7.643046068e-21
6.285416572e-21
2.097818635e-20
4.992163739e-21
1.264169293e-20
1.335701693e-23
1.293383949e-22
9.05808263e-21
5.358790473e-21
2.146654021e-22
1.197407738e-21
2.025934105e-21
2.410344704e-21
1.947251954e-22
1.300353191e-20
1.30339425e-20
5.198524378e-22
3.498613236e-20
6.892796891e-21
7.685709248e-21
4.51471728e-21
1.000626252e-20
5.872673938e-21
7.890834877e-21
1.529199357e-20
1.127019422e-20
4.943772545e-22
1.182632563e-20