/*--------------------------------*- C++ -*----------------------------------*\
| =========                 |                                                 |
| \\      /  F ield         | OpenFOAM: The Open Source CFD Toolbox           |
|  \\    /   O peration     | Version:  v1912                                 |
|   \\  /    A nd           | Website:  www.openfoam.com                      |
|    \\/     M anipulation  |                                                 |
\*---------------------------------------------------------------------------*/
FoamFile
{
    version     2.0;
    format      ascii;
    class       volVectorField;
    location    "1.78";
    object      grad(T);
}
// * * * * * * * * * * * * * * * * * * * * * * * * * * * * * * * * * * * * * //

dimensions      [0 -1 0 1 0 0 0];


internalField   nonuniform List<vector> 
1900
(
(0.15074 6.7365e-06 0)
(0.013805 4.06988e-06 0)
(0.0265051 4.14348e-07 0)
(0.00858846 2.72228e-05 0)
(0.00267034 2.8278e-05 0)
(0.00171083 0.000245037 0)
(0.00126458 0.000104338 0)
(0.0047826 -0.000726284 0)
(0.0111988 -0.00234898 0)
(-0.000538065 -0.00202827 0)
(0.150751 1.27227e-05 0)
(0.0137986 1.25941e-05 0)
(0.0265282 8.12976e-07 0)
(0.00861632 1.85532e-05 0)
(0.00288816 1.10692e-05 0)
(0.00178689 0.000228758 0)
(0.000293255 5.96802e-05 0)
(0.00232928 -0.000585075 0)
(0.00989678 -0.0016582 0)
(0.0153393 -0.0022184 0)
(0.150766 -2.92735e-13 0)
(0.0137931 -1.23599e-13 0)
(0.026511 -1.06252e-13 0)
(0.00859871 2.79724e-13 0)
(0.00288055 4.81386e-13 0)
(0.00175944 5.18249e-13 0)
(0.000450744 3.98986e-13 0)
(0.00306472 1.32273e-13 0)
(0.00956544 0 0)
(0.0133394 -6.28837e-14 0)
(0.150751 -1.27227e-05 0)
(0.0137986 -1.25941e-05 0)
(0.0265282 -8.12976e-07 0)
(0.00861632 -1.85532e-05 0)
(0.00288816 -1.10692e-05 0)
(0.00178689 -0.000228758 0)
(0.000293255 -5.96802e-05 0)
(0.00232928 0.000585075 0)
(0.00989678 0.0016582 0)
(0.0153393 0.0022184 0)
(0.15074 -6.7365e-06 0)
(0.013805 -4.06988e-06 0)
(0.0265051 -4.14347e-07 0)
(0.00858846 -2.72228e-05 0)
(0.00267034 -2.8278e-05 0)
(0.00171083 -0.000245037 0)
(0.00126458 -0.000104338 0)
(0.0047826 0.000726284 0)
(0.0111988 0.00234898 0)
(-0.000538065 0.00202827 0)
(0.0104402 0.0111758 1.00229e-15)
(0.0449607 0.0124021 -1.21915e-15)
(0.034899 0.0136174 -1.54865e-15)
(-0.132891 0.0344883 0)
(-0.0687407 0.254029 -6.52444e-15)
(0.0256706 0.0100068 1.0043e-15)
(0.0420076 0.00850295 1.21915e-15)
(0.0443023 0.00592145 1.54865e-15)
(-0.034542 0.0124897 0)
(-0.0448564 0.205621 0)
(0.0261508 -1.17848e-14 0)
(0.0415571 1.18882e-14 0)
(0.0400769 1.14444e-13 0)
(-0.0329586 2.75157e-13 0)
(0.0651342 3.48494e-13 0)
(0.0256706 -0.0100068 1.0043e-15)
(0.0420076 -0.00850295 1.21915e-15)
(0.0443023 -0.00592145 1.54865e-15)
(-0.034542 -0.0124897 0)
(-0.0448564 -0.205621 0)
(0.0104402 -0.0111758 -3.0109e-15)
(0.0449607 -0.0124021 -1.21915e-15)
(0.034899 -0.0136174 -1.54865e-15)
(-0.132891 -0.0344883 -4.22711e-15)
(-0.0687407 -0.254029 6.52444e-15)
(0.202318 -0.104592 2.88318e-15)
(-0.064255 -0.0228594 -2.42337e-15)
(-0.114641 -0.0111807 0)
(-0.271884 0.0962109 1.82127e-15)
(-0.70386 0.266824 -7.87217e-16)
(0.110733 -0.122154 -1.44001e-15)
(-0.0432883 -0.0252136 1.21134e-15)
(-0.0702846 -0.0220983 0)
(-0.153928 0.103024 -1.14088e-15)
(-0.258022 0.303727 2.011e-16)
(0.132604 4.87343e-13 0)
(-0.0414985 2.82634e-13 0)
(-0.0661214 1.52591e-13 0)
(-0.140704 4.71238e-13 4.57592e-16)
(-0.265905 5.54782e-13 -4.022e-16)
(0.110733 0.122154 -1.44001e-15)
(-0.0432883 0.0252136 1.21134e-15)
(-0.0702846 0.0220983 0)
(-0.153928 -0.103024 -1.14088e-15)
(-0.258022 -0.303727 2.011e-16)
(0.202318 0.104592 1.44001e-15)
(-0.064255 0.0228594 6.8845e-19)
(-0.114641 0.0111807 0)
(-0.271884 -0.0962109 2.89756e-18)
(-0.70386 -0.266824 7.87217e-16)
(-0.78825 2.37905 0)
(-0.0723969 0.90241 0)
(0.231656 0.285592 0)
(0.0290933 0.071918 0)
(-0.00520133 0.0234036 0)
(0.0390605 0.00718981 0)
(0.0720374 0.00876786 0)
(0.0936294 0.0027971 0)
(0.113109 0.00151199 0)
(0.123817 0.000757099 0)
(0.128357 0.000499839 0)
(0.12649 0.00040336 0)
(0.116431 0.00038473 0)
(0.0937692 0.000379848 0)
(0.057931 0.000270643 0)
(0.0228178 9.61087e-05 0)
(0.00449399 1.09666e-05 0)
(0.000312434 2.68757e-07 0)
(5.07195e-06 1.61008e-09 0)
(1.29987e-08 6.91993e-10 0)
(-1.73429e-08 6.91528e-10 0)
(-6.27741e-06 6.95443e-10 0)
(-0.000365664 6.93243e-10 0)
(-0.00504611 7.02874e-10 0)
(-0.0248949 7.11402e-10 0)
(-0.0620236 6.80469e-10 0)
(-0.0993438 6.40279e-10 0)
(-0.123169 5.64124e-10 0)
(-0.135014 4.65336e-10 0)
(-0.140313 3.57349e-10 0)
(-0.142206 2.48539e-10 0)
(-0.142001 1.61093e-10 0)
(-0.140125 9.74205e-11 0)
(-0.135298 5.43639e-11 0)
(-0.12177 3.09845e-11 0)
(-0.0930168 1.4753e-11 0)
(-0.0824939 8.35821e-12 0)
(-0.340433 3.82822e-12 0)
(-0.646269 1.38384e-12 0)
(-0.351176 -2.4641e-13 0)
(-0.627998 1.2932 0)
(-0.381736 0.969784 0)
(0.0702504 0.317501 0)
(-0.0277054 0.0528325 0)
(-0.0132952 0.0124321 0)
(0.0373865 0.00182225 0)
(0.0718537 0.00415931 0)
(0.0928102 0.00102572 0)
(0.112953 0.000594082 0)
(0.123734 0.000289359 0)
(0.128333 0.000205048 0)
(0.126485 0.000176987 0)
(0.116429 0.000176728 0)
(0.0937544 0.000171377 0)
(0.0579025 0.000116077 0)
(0.0227945 4.18497e-05 0)
(0.00448545 4.8194e-06 0)
(0.000311458 8.23619e-08 0)
(5.05592e-06 -5.18757e-10 0)
(1.30374e-08 -3.76415e-10 0)
(-1.73434e-08 -3.76786e-10 0)
(-6.2774e-06 -3.79699e-10 0)
(-0.000365664 -3.69914e-10 0)
(-0.00504611 -3.9433e-10 0)
(-0.0248949 -3.9709e-10 0)
(-0.0620236 -3.74515e-10 0)
(-0.0993438 -3.52078e-10 0)
(-0.123169 -3.09368e-10 0)
(-0.135014 -2.52773e-10 0)
(-0.140313 -1.9231e-10 0)
(-0.142206 -1.32702e-10 0)
(-0.142001 -8.32312e-11 0)
(-0.140125 -5.00468e-11 0)
(-0.135298 -2.68172e-11 0)
(-0.12177 -1.60817e-11 0)
(-0.0930168 -8.25571e-12 0)
(-0.0824939 -5.7443e-12 0)
(-0.340433 -2.37736e-12 0)
(-0.646269 -6.54464e-13 0)
(-0.351176 -1.20839e-12 0)
(-0.526579 8.9496e-13 0)
(-0.356237 4.33681e-13 0)
(-0.0350937 -3.94255e-14 0)
(-0.0596539 -3.23289e-13 0)
(-0.0200407 1.97128e-14 0)
(0.0366539 9.46213e-14 0)
(0.0718057 -6.70234e-14 0)
(0.0925923 -9.46213e-14 0)
(0.112895 1.93185e-13 0)
(0.123704 2.56266e-13 0)
(0.128324 3.94255e-15 0)
(0.126482 -1.14334e-13 0)
(0.11643 -2.36553e-13 0)
(0.0937516 1.45874e-13 0)
(0.0578933 7.88511e-15 0)
(0.0227854 -2.36553e-14 0)
(0.00448184 -4.06083e-13 0)
(0.000311031 5.00704e-13 0)
(5.04788e-06 -4.11208e-12 0)
(1.304e-08 7.88511e-14 0)
(-1.73438e-08 -5.2436e-13 0)
(-6.2774e-06 2.08955e-13 0)
(-0.000365664 1.1595e-11 0)
(-0.00504611 -1.24624e-11 0)
(-0.0248949 -6.07942e-12 0)
(-0.0620236 -3.82428e-12 0)
(-0.0993438 -3.706e-13 0)
(-0.123169 -1.37201e-12 0)
(-0.135014 9.50155e-13 0)
(-0.140313 2.78344e-12 0)
(-0.142206 1.4824e-12 0)
(-0.142001 4.08449e-12 0)
(-0.140125 1.99099e-12 0)
(-0.135298 2.17629e-12 0)
(-0.12177 5.48015e-13 0)
(-0.0930168 -2.08955e-13 0)
(-0.0824939 -1.3523e-12 0)
(-0.340433 -2.1684e-13 0)
(-0.646269 1.97128e-13 0)
(-0.351176 -2.85835e-13 0)
(-0.627998 -1.2932 0)
(-0.381736 -0.969784 0)
(0.0702504 -0.317501 0)
(-0.0277054 -0.0528325 0)
(-0.0132952 -0.0124321 0)
(0.0373865 -0.00182225 0)
(0.0718537 -0.00415931 0)
(0.0928102 -0.00102572 0)
(0.112953 -0.000594082 0)
(0.123734 -0.000289359 0)
(0.128333 -0.000205048 0)
(0.126485 -0.000176987 0)
(0.116429 -0.000176728 0)
(0.0937544 -0.000171377 0)
(0.0579025 -0.000116077 0)
(0.0227945 -4.18497e-05 0)
(0.00448545 -4.8194e-06 0)
(0.000311458 -8.23613e-08 0)
(5.05592e-06 5.11657e-10 0)
(1.30384e-08 3.76486e-10 0)
(-1.73434e-08 3.75832e-10 0)
(-6.2774e-06 3.80042e-10 0)
(-0.000365664 3.91779e-10 0)
(-0.00504611 3.7088e-10 0)
(-0.0248949 3.85609e-10 0)
(-0.0620236 3.67304e-10 0)
(-0.0993438 3.51013e-10 0)
(-0.123169 3.06884e-10 0)
(-0.135014 2.54582e-10 0)
(-0.140313 1.97565e-10 0)
(-0.142206 1.3564e-10 0)
(-0.142001 9.07221e-11 0)
(-0.140125 5.37883e-11 0)
(-0.135298 3.07637e-11 0)
(-0.12177 1.72092e-11 0)
(-0.0930168 7.8378e-12 0)
(-0.0824939 3.22895e-12 0)
(-0.340433 1.99099e-12 0)
(-0.646269 1.10391e-12 0)
(-0.351176 7.82597e-13 0)
(-0.78825 -2.37905 0)
(-0.0723969 -0.90241 0)
(0.231656 -0.285592 0)
(0.0290933 -0.071918 0)
(-0.00520133 -0.0234036 0)
(0.0390605 -0.00718981 0)
(0.0720374 -0.00876786 0)
(0.0936294 -0.0027971 0)
(0.113109 -0.00151199 0)
(0.123817 -0.000757099 0)
(0.128357 -0.000499839 0)
(0.12649 -0.00040336 0)
(0.116431 -0.00038473 0)
(0.0937692 -0.000379848 0)
(0.057931 -0.000270643 0)
(0.0228178 -9.61087e-05 0)
(0.00449399 -1.09666e-05 0)
(0.000312433 -2.68757e-07 0)
(5.07195e-06 -1.60662e-09 0)
(1.30005e-08 -6.92013e-10 0)
(-1.73428e-08 -6.91161e-10 0)
(-6.2774e-06 -6.95514e-10 0)
(-0.000365664 -7.02114e-10 0)
(-0.00504611 -6.93807e-10 0)
(-0.0248949 -7.04176e-10 0)
(-0.0620236 -6.7724e-10 0)
(-0.0993438 -6.40129e-10 0)
(-0.123169 -5.6289e-10 0)
(-0.135014 -4.65509e-10 0)
(-0.140313 -3.59415e-10 0)
(-0.142206 -2.49607e-10 0)
(-0.142001 -1.64531e-10 0)
(-0.140125 -9.90527e-11 0)
(-0.135298 -5.63982e-11 0)
(-0.12177 -3.20175e-11 0)
(-0.0930168 -1.51867e-11 0)
(-0.0824939 -7.39229e-12 0)
(-0.340433 -3.66657e-12 0)
(-0.646269 -1.46269e-12 0)
(-0.351176 2.99634e-13 0)
(0.235245 -1.41414 0)
(0.573759 -0.360329 0)
(0.40457 -0.118838 0)
(0.0710847 -0.0839379 0)
(0.0179486 -0.0353111 0)
(0.0446314 -0.0170314 0)
(0.0743966 -0.0130607 0)
(0.0964143 -0.0059824 0)
(0.114052 -0.00310463 0)
(0.124272 -0.00158003 0)
(0.128526 -0.00100378 0)
(0.12655 -0.00081977 0)
(0.116442 -0.000780381 0)
(0.0938087 -0.000711329 0)
(0.0580475 -0.000472803 0)
(0.0229306 -0.000160125 0)
(0.00453569 -1.85429e-05 0)
(0.000317207 -9.1841e-07 0)
(5.20553e-06 -4.50122e-07 0)
(1.36566e-08 -4.48133e-07 0)
(-1.73463e-08 -4.48132e-07 0)
(-6.27741e-06 -4.48136e-07 0)
(-0.000365664 -4.4814e-07 0)
(-0.00504611 -4.48019e-07 0)
(-0.0248949 -4.46416e-07 0)
(-0.0620236 -4.38106e-07 0)
(-0.0993438 -4.16326e-07 0)
(-0.123169 -3.78136e-07 0)
(-0.135014 -3.26002e-07 0)
(-0.140313 -2.65982e-07 0)
(-0.142206 -2.05107e-07 0)
(-0.142001 -1.49384e-07 0)
(-0.140125 -1.02676e-07 0)
(-0.135298 -6.66022e-08 0)
(-0.12177 -4.09336e-08 0)
(-0.0930168 -2.43315e-08 0)
(-0.0824939 -1.44808e-08 0)
(-0.340433 -7.70263e-09 0)
(-0.646269 -2.59725e-09 0)
(-0.351176 -3.88548e-11 0)
(0.486502 -0.311415 0)
(0.82931 -0.0286805 0)
(0.405275 -0.05556 0)
(0.0870658 -0.0663084 0)
(0.0468585 -0.0423038 0)
(0.0575146 -0.0254252 0)
(0.0814195 -0.0170126 0)
(0.10173 -0.00918133 0)
(0.116845 -0.00515956 0)
(0.125598 -0.00292499 0)
(0.128999 -0.00202765 0)
(0.126673 -0.00172879 0)
(0.11653 -0.00157395 0)
(0.0940444 -0.0012724 0)
(0.0583996 -0.000758493 0)
(0.0231951 -0.000278775 0)
(0.00462505 -8.52189e-05 0)
(0.000327308 -6.15499e-05 0)
(5.4535e-06 -6.09615e-05 0)
(1.45666e-08 -6.09594e-05 0)
(-1.73436e-08 -6.09594e-05 0)
(-6.2774e-06 -6.09594e-05 0)
(-0.000365664 -6.09591e-05 0)
(-0.00504611 -6.09453e-05 0)
(-0.0248949 -6.07586e-05 0)
(-0.0620236 -5.98525e-05 0)
(-0.0993438 -5.75669e-05 0)
(-0.123169 -5.36149e-05 0)
(-0.135013 -4.81454e-05 0)
(-0.140313 -4.16041e-05 0)
(-0.142206 -3.45627e-05 0)
(-0.142001 -2.75843e-05 0)
(-0.140125 -2.11321e-05 0)
(-0.135298 -1.55369e-05 0)
(-0.12177 -1.09931e-05 0)
(-0.0930168 -7.60485e-06 0)
(-0.0824939 -5.2688e-06 0)
(-0.340433 -3.27293e-06 0)
(-0.646269 -1.43892e-06 0)
(-0.351176 -5.53462e-08 0)
(0.507697 0.010514 0)
(0.82031 0.00211782 0)
(0.368311 -0.0398969 0)
(0.0838589 -0.0501265 0)
(0.0573451 -0.0443535 0)
(0.069003 -0.0302056 0)
(0.0900498 -0.0204387 0)
(0.107836 -0.0125586 0)
(0.120081 -0.00823727 0)
(0.12729 -0.00582729 0)
(0.129679 -0.00470469 0)
(0.126987 -0.00415445 0)
(0.116881 -0.0037255 0)
(0.0945945 -0.00318624 0)
(0.059005 -0.00248048 0)
(0.0235794 -0.00187148 0)
(0.00474501 -0.00164555 0)
(0.000340583 -0.00161977 0)
(5.77455e-06 -0.00161914 0)
(1.57341e-08 -0.00161914 0)
(-1.73431e-08 -0.00161914 0)
(-6.27717e-06 -0.00161914 0)
(-0.00036565 -0.00161913 0)
(-0.00504592 -0.00161878 0)
(-0.0248939 -0.00161442 0)
(-0.0620205 -0.00159485 0)
(-0.0993378 -0.00154845 0)
(-0.12316 -0.00147095 0)
(-0.135002 -0.00136419 0)
(-0.1403 -0.00123386 0)
(-0.142193 -0.00108767 0)
(-0.141988 -0.000933938 0)
(-0.140113 -0.000780585 0)
(-0.135288 -0.00063491 0)
(-0.121762 -0.000503558 0)
(-0.0930113 -0.000393998 0)
(-0.0824897 -0.000308251 0)
(-0.34043 -0.000219439 0)
(-0.646266 -0.000120621 0)
(-0.351175 -1.04678e-05 0)
(0.478411 0.0473368 0)
(0.780732 -0.0367869 0)
(0.35493 -0.0471486 0)
(0.0827712 -0.0514211 0)
(0.0660551 -0.0475646 0)
(0.0805598 -0.0356164 0)
(0.0984247 -0.0258687 0)
(0.113488 -0.0196169 0)
(0.123332 -0.0163924 0)
(0.129002 -0.0150677 0)
(0.130611 -0.0146568 0)
(0.127617 -0.01454 0)
(0.117463 -0.0143091 0)
(0.0952442 -0.0138477 0)
(0.0596666 -0.0132582 0)
(0.0239996 -0.0127903 0)
(0.00486761 -0.0126225 0)
(0.000352756 -0.0126042 0)
(6.05903e-06 -0.0126038 0)
(1.67569e-08 -0.0126038 0)
(-1.73224e-08 -0.0126038 0)
(-6.27091e-06 -0.0126038 0)
(-0.000365321 -0.0126037 0)
(-0.00504157 -0.0126009 0)
(-0.0248718 -0.0125692 0)
(-0.06196 -0.0124395 0)
(-0.0992244 -0.0121571 0)
(-0.122991 -0.0117123 0)
(-0.134785 -0.0111161 0)
(-0.140046 -0.0103896 0)
(-0.141917 -0.0095594 0)
(-0.141705 -0.00865565 0)
(-0.139837 -0.00770864 0)
(-0.135031 -0.00675203 0)
(-0.121538 -0.00582641 0)
(-0.0928286 -0.00499446 0)
(-0.0823257 -0.00426667 0)
(-0.340252 -0.00339137 0)
(-0.646068 -0.00223317 0)
(-0.35107 -0.000406868 0)
(0.426633 0.0582897 0)
(0.72926 -0.057074 0)
(0.354209 -0.0541866 0)
(0.0834579 -0.055146 0)
(0.0725751 -0.0534214 0)
(0.0899099 -0.0490343 0)
(0.105468 -0.0440573 0)
(0.116968 -0.0412891 0)
(0.124465 -0.040281 0)
(0.128963 -0.0404857 0)
(0.130188 -0.0411805 0)
(0.127322 -0.0419189 0)
(0.117548 -0.0424088 0)
(0.0956072 -0.0425644 0)
(0.0600239 -0.0425214 0)
(0.0241919 -0.042455 0)
(0.00492436 -0.0424268 0)
(0.000358653 -0.0424238 0)
(6.19577e-06 -0.0424237 0)
(1.72445e-08 -0.0424237 0)
(-1.71593e-08 -0.0424237 0)
(-6.22206e-06 -0.0424237 0)
(-0.00036293 -0.0424235 0)
(-0.00501267 -0.0424133 0)
(-0.0247383 -0.0423056 0)
(-0.0616234 -0.0419071 0)
(-0.0986371 -0.0411243 0)
(-0.122156 -0.0399882 0)
(-0.133727 -0.0385414 0)
(-0.1388 -0.0368206 0)
(-0.140522 -0.0348635 0)
(-0.140205 -0.0327101 0)
(-0.138279 -0.0303996 0)
(-0.133474 -0.027987 0)
(-0.120069 -0.0255683 0)
(-0.0915083 -0.0233164 0)
(-0.0809449 -0.0210913 0)
(-0.33847 -0.01816 0)
(-0.64339 -0.0137173 0)
(-0.349415 -0.00459076 0)
(0.367242 0.021132 0)
(0.672346 -0.0656709 0)
(0.356788 -0.0639957 0)
(0.0835087 -0.0726324 0)
(0.0719444 -0.079154 0)
(0.0895833 -0.0801941 0)
(0.105888 -0.0782787 0)
(0.117127 -0.0772315 0)
(0.124106 -0.0770867 0)
(0.128135 -0.0776742 0)
(0.12923 -0.0785607 0)
(0.126433 -0.0795076 0)
(0.116841 -0.0804197 0)
(0.0951357 -0.0812138 0)
(0.059772 -0.0818362 0)
(0.0240908 -0.0822323 0)
(0.00489769 -0.0823723 0)
(0.000355699 -0.0823887 0)
(6.11691e-06 -0.0823891 0)
(1.69214e-08 -0.0823891 0)
(-1.65819e-08 -0.0823891 0)
(-6.05598e-06 -0.0823891 0)
(-0.000355299 -0.0823886 0)
(-0.00492796 -0.0823655 0)
(-0.024384 -0.0821382 0)
(-0.0608216 -0.0813749 0)
(-0.0973753 -0.0800373 0)
(-0.120502 -0.0782859 0)
(-0.131733 -0.0762159 0)
(-0.136502 -0.0738697 0)
(-0.137956 -0.0712758 0)
(-0.137404 -0.068458 0)
(-0.135285 -0.0654325 0)
(-0.130375 -0.0622458 0)
(-0.117037 -0.0590482 0)
(-0.0885144 -0.0561185 0)
(-0.0773568 -0.052656 0)
(-0.333147 -0.0478414 0)
(-0.632992 -0.0399795 0)
(-0.342276 -0.0208993 0)
(0.342986 -0.0345333 0)
(0.647228 -0.0841884 0)
(0.3475 -0.0923343 0)
(0.0688509 -0.107623 0)
(0.0652883 -0.115927 0)
(0.0907533 -0.114641 0)
(0.108322 -0.11066 0)
(0.118117 -0.108454 0)
(0.124038 -0.107685 0)
(0.127543 -0.107782 0)
(0.128421 -0.108353 0)
(0.125531 -0.109161 0)
(0.115904 -0.110136 0)
(0.0942422 -0.111256 0)
(0.0590425 -0.112412 0)
(0.0236753 -0.113283 0)
(0.00477369 -0.113601 0)
(0.000342449 -0.113637 0)
(5.79171e-06 -0.113638 0)
(1.56964e-08 -0.113638 0)
(-1.53704e-08 -0.113638 0)
(-5.71491e-06 -0.113638 0)
(-0.000340254 -0.113637 0)
(-0.00477141 -0.113599 0)
(-0.0237836 -0.113238 0)
(-0.0595989 -0.112117 0)
(-0.0956604 -0.110353 0)
(-0.118474 -0.108282 0)
(-0.129472 -0.106038 0)
(-0.134039 -0.103656 0)
(-0.135307 -0.10115 0)
(-0.134574 -0.098526 0)
(-0.132293 -0.0957801 0)
(-0.127322 -0.0929375 0)
(-0.114164 -0.0902058 0)
(-0.0853485 -0.0879619 0)
(-0.0729688 -0.0847584 0)
(-0.326254 -0.0796461 0)
(-0.617428 -0.070863 0)
(-0.331029 -0.0506686 0)
(0.319393 -0.0732517 0)
(0.616647 -0.107288 0)
(0.334206 -0.124338 0)
(0.0607737 -0.135613 0)
(0.0651808 -0.135994 0)
(0.0946589 -0.131611 0)
(0.111851 -0.127413 0)
(0.119994 -0.125079 0)
(0.124753 -0.123954 0)
(0.127491 -0.123655 0)
(0.127901 -0.123976 0)
(0.124715 -0.124738 0)
(0.114822 -0.125852 0)
(0.0929432 -0.127317 0)
(0.0578187 -0.128997 0)
(0.0229448 -0.130311 0)
(0.00455576 -0.13079 0)
(0.000319615 -0.130843 0)
(5.24877e-06 -0.130845 0)
(1.37273e-08 -0.130845 0)
(-1.35222e-08 -0.130845 0)
(-5.1927e-06 -0.130845 0)
(-0.000317505 -0.130843 0)
(-0.00454263 -0.130791 0)
(-0.0229553 -0.130302 0)
(-0.0580418 -0.12886 0)
(-0.0936798 -0.126772 0)
(-0.116344 -0.124537 0)
(-0.127275 -0.122297 0)
(-0.131792 -0.120057 0)
(-0.133013 -0.117811 0)
(-0.132229 -0.115563 0)
(-0.1299 -0.11329 0)
(-0.125004 -0.111033 0)
(-0.112243 -0.108968 0)
(-0.0832651 -0.107564 0)
(-0.0693434 -0.105813 0)
(-0.319756 -0.101729 0)
(-0.605068 -0.0913567 0)
(-0.322816 -0.0801181 0)
(0.310188 -0.10722 0)
(0.597999 -0.113269 0)
(0.320205 -0.137596 0)
(0.0576189 -0.144293 0)
(0.0691448 -0.140568 0)
(0.0990222 -0.135672 0)
(0.114618 -0.132484 0)
(0.12145 -0.130854 0)
(0.12541 -0.13003 0)
(0.127521 -0.129875 0)
(0.127377 -0.130274 0)
(0.123724 -0.131205 0)
(0.113419 -0.132608 0)
(0.0912116 -0.134466 0)
(0.0561568 -0.136611 0)
(0.0219475 -0.138294 0)
(0.00426113 -0.138898 0)
(0.000289453 -0.138964 0)
(4.55633e-06 -0.138965 0)
(1.13238e-08 -0.138965 0)
(-1.12353e-08 -0.138965 0)
(-4.52812e-06 -0.138965 0)
(-0.000288158 -0.138964 0)
(-0.00424931 -0.138899 0)
(-0.0219231 -0.138301 0)
(-0.0561974 -0.136575 0)
(-0.0914949 -0.134209 0)
(-0.114162 -0.131852 0)
(-0.125154 -0.129629 0)
(-0.129717 -0.127498 0)
(-0.130977 -0.125435 0)
(-0.130217 -0.123412 0)
(-0.127928 -0.121471 0)
(-0.123157 -0.119549 0)
(-0.110822 -0.117914 0)
(-0.0823083 -0.116813 0)
(-0.0673464 -0.116192 0)
(-0.312323 -0.114354 0)
(-0.596602 -0.0987948 0)
(-0.320199 -0.0980703 0)
(0.313564 -0.119887 0)
(0.587376 -0.111278 0)
(0.30431 -0.142601 0)
(0.0579096 -0.142111 0)
(0.0734887 -0.138412 0)
(0.102449 -0.134464 0)
(0.116494 -0.132528 0)
(0.122359 -0.131356 0)
(0.125696 -0.131076 0)
(0.127256 -0.131295 0)
(0.12662 -0.132049 0)
(0.122465 -0.133265 0)
(0.11168 -0.134968 0)
(0.0890861 -0.137172 0)
(0.0541293 -0.139703 0)
(0.020741 -0.141677 0)
(0.0039108 -0.142369 0)
(0.000254694 -0.142442 0)
(3.79374e-06 -0.142443 0)
(8.82256e-09 -0.142443 0)
(-8.79966e-09 -0.142443 0)
(-3.78444e-06 -0.142443 0)
(-0.000254142 -0.142442 0)
(-0.0039039 -0.14237 0)
(-0.0207149 -0.141686 0)
(-0.0540982 -0.139713 0)
(-0.0891292 -0.137096 0)
(-0.111932 -0.134632 0)
(-0.123079 -0.132418 0)
(-0.12775 -0.130366 0)
(-0.129076 -0.128402 0)
(-0.128409 -0.126563 0)
(-0.126178 -0.124729 0)
(-0.121575 -0.123191 0)
(-0.109605 -0.121615 0)
(-0.081606 -0.120646 0)
(-0.0669738 -0.120265 0)
(-0.302992 -0.121338 0)
(-0.589377 -0.099177 0)
(-0.322117 -0.103294 0)
(0.318483 -0.121619 0)
(0.576111 -0.109113 0)
(0.290494 -0.142664 0)
(0.0616558 -0.136366 0)
(0.0765128 -0.133353 0)
(0.104692 -0.131 0)
(0.117613 -0.129878 0)
(0.12285 -0.129604 0)
(0.125469 -0.12962 0)
(0.126584 -0.130382 0)
(0.125479 -0.131502 0)
(0.12091 -0.133041 0)
(0.109654 -0.134997 0)
(0.0866486 -0.137468 0)
(0.051816 -0.140304 0)
(0.0193788 -0.142498 0)
(0.00352398 -0.143246 0)
(0.000217824 -0.143321 0)
(3.03019e-06 -0.143322 0)
(6.49123e-09 -0.143322 0)
(-6.49214e-09 -0.143322 0)
(-3.02942e-06 -0.143322 0)
(-0.0002177 -0.143321 0)
(-0.0035213 -0.143247 0)
(-0.0193624 -0.142505 0)
(-0.0517742 -0.140325 0)
(-0.0865986 -0.137478 0)
(-0.109654 -0.13491 0)
(-0.121043 -0.132704 0)
(-0.125846 -0.130703 0)
(-0.127312 -0.128865 0)
(-0.126678 -0.127051 0)
(-0.124678 -0.12559 0)
(-0.120156 -0.123929 0)
(-0.108369 -0.122706 0)
(-0.0810083 -0.121465 0)
(-0.0680135 -0.121689 0)
(-0.292002 -0.124647 0)
(-0.579215 -0.0976369 0)
(-0.324167 -0.104656 0)
(0.325615 -0.113356 0)
(0.567096 -0.105635 0)
(0.278048 -0.137039 0)
(0.0668815 -0.130163 0)
(0.0786592 -0.12734 0)
(0.105798 -0.126004 0)
(0.117839 -0.126402 0)
(0.122608 -0.126356 0)
(0.124946 -0.127185 0)
(0.125442 -0.128134 0)
(0.124058 -0.129594 0)
(0.119097 -0.131341 0)
(0.107414 -0.133476 0)
(0.0839722 -0.136139 0)
(0.0492824 -0.139216 0)
(0.0179059 -0.141574 0)
(0.00311765 -0.142349 0)
(0.000181004 -0.142422 0)
(2.32021e-06 -0.142424 0)
(4.50563e-09 -0.142424 0)
(-4.51023e-09 -0.142424 0)
(-2.32159e-06 -0.142424 0)
(-0.00018104 -0.142422 0)
(-0.00311727 -0.142349 0)
(-0.0178992 -0.141577 0)
(-0.0492541 -0.139232 0)
(-0.0839118 -0.136172 0)
(-0.107332 -0.133502 0)
(-0.119025 -0.131294 0)
(-0.12405 -0.129367 0)
(-0.125556 -0.12757 0)
(-0.125254 -0.126065 0)
(-0.12317 -0.124433 0)
(-0.118797 -0.12337 0)
(-0.107231 -0.121553 0)
(-0.0806256 -0.120775 0)
(-0.0700396 -0.121643 0)
(-0.279814 -0.125161 0)
(-0.570114 -0.0968581 0)
(-0.328881 -0.100465 0)
(0.325923 -0.103632 0)
(0.553289 -0.0996584 0)
(0.266857 -0.129001 0)
(0.0710022 -0.124042 0)
(0.0805211 -0.12114 0)
(0.105595 -0.120914 0)
(0.117274 -0.121808 0)
(0.122096 -0.122951 0)
(0.123755 -0.12381 0)
(0.124262 -0.125157 0)
(0.122389 -0.126655 0)
(0.11717 -0.128483 0)
(0.105031 -0.13066 0)
(0.0811173 -0.133421 0)
(0.0465785 -0.136678 0)
(0.0163599 -0.139145 0)
(0.00270662 -0.13992 0)
(0.000146011 -0.139988 0)
(1.70113e-06 -0.139989 0)
(2.94639e-09 -0.139989 0)
(-2.94915e-09 -0.139989 0)
(-1.70224e-06 -0.139989 0)
(-0.000146067 -0.139988 0)
(-0.002707 -0.13992 0)
(-0.0163588 -0.139145 0)
(-0.0465657 -0.136686 0)
(-0.081077 -0.133448 0)
(-0.104953 -0.130711 0)
(-0.117058 -0.128548 0)
(-0.122258 -0.126697 0)
(-0.12413 -0.125101 0)
(-0.123655 -0.123563 0)
(-0.122081 -0.122383 0)
(-0.117381 -0.120764 0)
(-0.105868 -0.119158 0)
(-0.0810948 -0.118423 0)
(-0.0722407 -0.120247 0)
(-0.268118 -0.123373 0)
(-0.555416 -0.0946677 0)
(-0.327642 -0.0961917 0)
(0.329444 -0.0933314 0)
(0.54265 -0.0922585 0)
(0.254551 -0.119361 0)
(0.0744562 -0.116316 0)
(0.0816732 -0.113485 0)
(0.105155 -0.113783 0)
(0.115877 -0.115532 0)
(0.120679 -0.117264 0)
(0.122821 -0.118665 0)
(0.1227 -0.120168 0)
(0.120853 -0.121682 0)
(0.115238 -0.123349 0)
(0.102655 -0.12534 0)
(0.0781728 -0.128025 0)
(0.0437672 -0.131346 0)
(0.014782 -0.133845 0)
(0.00230526 -0.13459 0)
(0.000114276 -0.134651 0)
(1.19343e-06 -0.134652 0)
(1.81401e-09 -0.134652 0)
(-1.81484e-09 -0.134652 0)
(-1.19391e-06 -0.134652 0)
(-0.00011431 -0.134651 0)
(-0.00230566 -0.13459 0)
(-0.0147829 -0.133845 0)
(-0.0437641 -0.131349 0)
(-0.0781547 -0.128039 0)
(-0.102609 -0.125379 0)
(-0.115156 -0.123425 0)
(-0.120729 -0.121794 0)
(-0.122537 -0.120303 0)
(-0.122634 -0.118801 0)
(-0.120472 -0.117355 0)
(-0.115689 -0.115495 0)
(-0.104974 -0.113548 0)
(-0.0816746 -0.112939 0)
(-0.0748099 -0.115335 0)
(-0.255165 -0.117539 0)
(-0.543921 -0.0901837 0)
(-0.33035 -0.0900441 0)
(0.326957 -0.0836295 0)
(0.528206 -0.0857343 0)
(0.243675 -0.11044 0)
(0.0766649 -0.107496 0)
(0.0829616 -0.104532 0)
(0.103622 -0.102928 0)
(0.11392 -0.104489 0)
(0.119076 -0.105356 0)
(0.120956 -0.106782 0)
(0.121356 -0.108031 0)
(0.119323 -0.109336 0)
(0.113645 -0.110612 0)
(0.100525 -0.112176 0)
(0.075329 -0.114586 0)
(0.0409703 -0.117816 0)
(0.013234 -0.12023 0)
(0.0019301 -0.120911 0)
(8.69865e-05 -0.120961 0)
(8.03688e-07 -0.120962 0)
(1.05597e-09 -0.120962 0)
(-1.05603e-09 -0.120962 0)
(-8.03818e-07 -0.120962 0)
(-8.69987e-05 -0.120961 0)
(-0.00193031 -0.120911 0)
(-0.0132349 -0.12023 0)
(-0.0409711 -0.117816 0)
(-0.0753246 -0.11459 0)
(-0.100507 -0.112196 0)
(-0.113603 -0.110661 0)
(-0.11925 -0.109427 0)
(-0.121247 -0.108178 0)
(-0.120814 -0.106992 0)
(-0.118895 -0.10562 0)
(-0.113712 -0.104811 0)
(-0.103405 -0.103262 0)
(-0.0828161 -0.1049 0)
(-0.0766738 -0.107704 0)
(-0.243882 -0.110367 0)
(-0.528921 -0.0853399 0)
(-0.327508 -0.0825394 0)
(0.327416 -0.054599 0)
(0.516814 -0.0673509 0)
(0.233581 -0.0901075 0)
(0.0801489 -0.0896199 0)
(0.0860751 -0.0858488 0)
(0.105196 -0.0828604 0)
(0.113536 -0.0814259 0)
(0.118469 -0.0807243 0)
(0.120243 -0.080089 0)
(0.12024 -0.0802395 0)
(0.118366 -0.0806593 0)
(0.112501 -0.081663 0)
(0.0988259 -0.0836916 0)
(0.072738 -0.0867329 0)
(0.0383283 -0.090136 0)
(0.0117997 -0.0923983 0)
(0.00160063 -0.0929799 0)
(6.50934e-05 -0.0930188 0)
(5.27195e-07 -0.0930192 0)
(5.92333e-10 -0.0930192 0)
(-5.92305e-10 -0.0930192 0)
(-5.27203e-07 -0.0930192 0)
(-6.50955e-05 -0.0930188 0)
(-0.00160069 -0.0929799 0)
(-0.0118002 -0.092398 0)
(-0.0383296 -0.0901351 0)
(-0.0727389 -0.0867326 0)
(-0.0988228 -0.0836969 0)
(-0.112488 -0.081683 0)
(-0.118337 -0.0807066 0)
(-0.120191 -0.0803296 0)
(-0.120169 -0.0802351 0)
(-0.118371 -0.0809373 0)
(-0.113416 -0.0817246 0)
(-0.105059 -0.0832456 0)
(-0.0859558 -0.0863168 0)
(-0.0800789 -0.0900936 0)
(-0.233614 -0.0905184 0)
(-0.517105 -0.0676012 0)
(-0.327651 -0.0543662 0)
(0.314669 -0.0244678 0)
(0.493989 -0.0568251 0)
(0.222216 -0.0762974 0)
(0.0807687 -0.0793822 0)
(0.0894752 -0.0786687 0)
(0.107884 -0.0757451 0)
(0.115978 -0.0735455 0)
(0.120365 -0.0710975 0)
(0.121424 -0.068737 0)
(0.120806 -0.0669291 0)
(0.117951 -0.0664944 0)
(0.110723 -0.0677103 0)
(0.0956396 -0.0705937 0)
(0.069119 -0.0746911 0)
(0.035511 -0.078958 0)
(0.0104935 -0.0815092 0)
(0.00133217 -0.0820805 0)
(4.91005e-05 -0.082113 0)
(3.49276e-07 -0.0821133 0)
(3.35387e-10 -0.0821133 0)
(-3.35497e-10 -0.0821133 0)
(-3.49266e-07 -0.0821133 0)
(-4.91e-05 -0.082113 0)
(-0.00133217 -0.0820805 0)
(-0.0104936 -0.0815091 0)
(-0.0355117 -0.0789575 0)
(-0.0691204 -0.07469 0)
(-0.095641 -0.0705935 0)
(-0.110722 -0.0677146 0)
(-0.117946 -0.0665098 0)
(-0.120793 -0.0669643 0)
(-0.1214 -0.0688004 0)
(-0.120331 -0.0712017 0)
(-0.115937 -0.073699 0)
(-0.10783 -0.0759549 0)
(-0.0894151 -0.0789374 0)
(-0.0807225 -0.0796797 0)
(-0.222207 -0.0766045 0)
(-0.494083 -0.0570779 0)
(-0.314754 -0.0245183 0)
(0.296235 -0.136545 0)
(0.466869 -0.196589 0)
(0.211845 -0.210626 0)
(0.0778638 -0.222041 0)
(0.0895799 -0.233846 0)
(0.110133 -0.245284 0)
(0.118015 -0.257069 0)
(0.123103 -0.270969 0)
(0.12426 -0.283472 0)
(0.122401 -0.296175 0)
(0.117613 -0.307416 0)
(0.108551 -0.316497 0)
(0.092099 -0.323533 0)
(0.0646779 -0.330374 0)
(0.0317581 -0.337037 0)
(0.00879077 -0.340625 0)
(0.00101877 -0.341315 0)
(3.34077e-05 -0.341347 0)
(2.07298e-07 -0.341348 0)
(1.7117e-10 -0.341348 0)
(-1.71304e-10 -0.341348 0)
(-2.07292e-07 -0.341348 0)
(-3.34071e-05 -0.341347 0)
(-0.00101876 -0.341315 0)
(-0.00879079 -0.340625 0)
(-0.0317584 -0.337037 0)
(-0.064679 -0.330373 0)
(-0.092101 -0.323531 0)
(-0.108553 -0.316496 0)
(-0.117614 -0.307418 0)
(-0.122399 -0.296186 0)
(-0.124253 -0.283495 0)
(-0.123091 -0.271011 0)
(-0.117997 -0.257134 0)
(-0.110107 -0.245372 0)
(-0.0895451 -0.233965 0)
(-0.0778308 -0.222181 0)
(-0.211834 -0.210774 0)
(-0.466913 -0.196719 0)
(-0.296276 -0.13659 0)
(0.256809 -0.289561 0)
(0.422602 -0.440662 0)
(0.197689 -0.486162 0)
(0.058393 -0.515877 0)
(0.0670778 -0.540935 0)
(0.0855055 -0.553333 0)
(0.0912272 -0.570027 0)
(0.0949219 -0.582123 0)
(0.0971337 -0.597978 0)
(0.097733 -0.607494 0)
(0.0983685 -0.61733 0)
(0.0951914 -0.625148 0)
(0.0822672 -0.635673 0)
(0.0561057 -0.651029 0)
(0.0256327 -0.665857 0)
(0.00637158 -0.672299 0)
(0.000636289 -0.673232 0)
(1.72269e-05 -0.673266 0)
(8.49898e-08 -0.673266 0)
(5.3711e-11 -0.673266 0)
(-5.3805e-11 -0.673266 0)
(-8.49875e-08 -0.673266 0)
(-1.72266e-05 -0.673266 0)
(-0.00063628 -0.673232 0)
(-0.00637153 -0.672299 0)
(-0.0256327 -0.665857 0)
(-0.056106 -0.651029 0)
(-0.0822686 -0.635672 0)
(-0.0951946 -0.625145 0)
(-0.0983736 -0.617327 0)
(-0.0977395 -0.607491 0)
(-0.0971406 -0.597978 0)
(-0.0949281 -0.582128 0)
(-0.0912297 -0.57004 0)
(-0.0855033 -0.553358 0)
(-0.0670682 -0.540977 0)
(-0.0583751 -0.515941 0)
(-0.197671 -0.486239 0)
(-0.422597 -0.440736 0)
(-0.256812 -0.289589 0)
(0.150629 -0.164641 0)
(0.277418 -0.274828 0)
(0.139365 -0.315304 0)
(0.0250829 -0.335353 0)
(0.0534862 -0.349871 0)
(0.0820986 -0.349457 0)
(0.0902715 -0.353407 0)
(0.0961683 -0.350449 0)
(0.0998106 -0.352113 0)
(0.103753 -0.347671 0)
(0.100601 -0.345866 0)
(0.090875 -0.345354 0)
(0.0671591 -0.350346 0)
(0.0355915 -0.361032 0)
(0.0112614 -0.371634 0)
(0.00168326 -0.375946 0)
(8.72071e-05 -0.376499 0)
(1.11857e-06 -0.376516 0)
(2.48399e-09 -0.376516 0)
(5.4928e-13 -0.376516 0)
(-5.29046e-13 -0.376516 0)
(-2.48393e-09 -0.376516 0)
(-1.11857e-06 -0.376516 0)
(-8.72067e-05 -0.376499 0)
(-0.00168326 -0.375946 0)
(-0.0112614 -0.371634 0)
(-0.0355915 -0.361032 0)
(-0.0671591 -0.350345 0)
(-0.0908751 -0.345353 0)
(-0.100601 -0.345863 0)
(-0.103753 -0.347665 0)
(-0.0998115 -0.352103 0)
(-0.0961696 -0.350436 0)
(-0.0902731 -0.353392 0)
(-0.0821004 -0.349444 0)
(-0.0534881 -0.34986 0)
(-0.0250837 -0.335351 0)
(-0.139365 -0.315313 0)
(-0.277414 -0.274845 0)
(-0.150625 -0.164651 0)
(0.150629 0.164641 0)
(0.277418 0.274828 0)
(0.139365 0.315304 0)
(0.0250829 0.335353 0)
(0.0534862 0.349871 0)
(0.0820986 0.349457 0)
(0.0902715 0.353407 0)
(0.0961683 0.350449 0)
(0.0998106 0.352113 0)
(0.103753 0.347671 0)
(0.100601 0.345866 0)
(0.090875 0.345354 0)
(0.0671591 0.350346 0)
(0.0355915 0.361032 0)
(0.0112614 0.371634 0)
(0.00168326 0.375946 0)
(8.7207e-05 0.376499 0)
(1.11857e-06 0.376516 0)
(2.48418e-09 0.376516 0)
(5.41543e-13 0.376516 0)
(-6.36164e-13 0.376516 0)
(-2.48398e-09 0.376516 0)
(-1.11857e-06 0.376516 0)
(-8.72067e-05 0.376499 0)
(-0.00168326 0.375946 0)
(-0.0112614 0.371634 0)
(-0.0355915 0.361032 0)
(-0.0671591 0.350345 0)
(-0.0908751 0.345353 0)
(-0.100601 0.345863 0)
(-0.103753 0.347665 0)
(-0.0998115 0.352103 0)
(-0.0961696 0.350436 0)
(-0.0902731 0.353392 0)
(-0.0821004 0.349444 0)
(-0.0534881 0.34986 0)
(-0.0250837 0.335351 0)
(-0.139365 0.315313 0)
(-0.277414 0.274845 0)
(-0.150625 0.164651 0)
(0.256809 0.289561 0)
(0.422602 0.440662 0)
(0.197689 0.486162 0)
(0.058393 0.515877 0)
(0.0670778 0.540935 0)
(0.0855055 0.553333 0)
(0.0912272 0.570027 0)
(0.0949219 0.582123 0)