/*--------------------------------*- C++ -*----------------------------------*\
| =========                 |                                                 |
| \\      /  F ield         | OpenFOAM: The Open Source CFD Toolbox           |
|  \\    /   O peration     | Version:  v1912                                 |
|   \\  /    A nd           | Website:  www.openfoam.com                      |
|    \\/     M anipulation  |                                                 |
\*---------------------------------------------------------------------------*/
FoamFile
{
    version     2.0;
    format      ascii;
    class       volVectorField;
    location    "1.78";
    object      U;
}
// * * * * * * * * * * * * * * * * * * * * * * * * * * * * * * * * * * * * * //

dimensions      [0 1 -1 0 0 0 0];


internalField   nonuniform List<vector> 
1900
(
(-0.0394299 -1.27413e-06 0)
(-0.0361321 -3.4164e-06 0)
(-0.0457335 -3.02257e-06 0)
(-0.0489376 7.2404e-06 0)
(-0.0505135 3.27134e-05 0)
(-0.0504473 0.000157862 0)
(-0.05079 0.000212768 0)
(-0.0515572 -0.000130498 0)
(-0.0530326 -0.00209269 0)
(-0.0483639 -0.00872324 0)
(-0.0394342 -3.43657e-06 0)
(-0.0361384 -6.95395e-06 0)
(-0.0457444 -6.81448e-06 0)
(-0.0489382 5.63835e-06 0)
(-0.0505403 4.51928e-05 0)
(-0.0503651 0.000105451 0)
(-0.0504767 0.000154654 0)
(-0.0508835 -6.53589e-06 0)
(-0.0525505 -0.00128942 0)
(-0.0561979 -0.00715274 0)
(-0.0394371 -2.19226e-13 0)
(-0.0361442 2.13262e-13 0)
(-0.0457494 -9.92808e-14 0)
(-0.0489289 2.81228e-14 0)
(-0.0505181 -3.07498e-14 0)
(-0.0502815 -1.15406e-14 0)
(-0.0503365 -2.78189e-14 0)
(-0.0507351 -2.91798e-14 0)
(-0.053192 -4.04084e-14 0)
(-0.0597381 -1.7928e-14 0)
(-0.0394342 3.43657e-06 0)
(-0.0361384 6.95395e-06 0)
(-0.0457444 6.81448e-06 0)
(-0.0489382 -5.63835e-06 0)
(-0.0505403 -4.51928e-05 0)
(-0.0503651 -0.000105451 0)
(-0.0504767 -0.000154654 0)
(-0.0508835 6.53589e-06 0)
(-0.0525505 0.00128942 0)
(-0.0561979 0.00715274 0)
(-0.0394299 1.27413e-06 0)
(-0.0361321 3.4164e-06 0)
(-0.0457335 3.02257e-06 0)
(-0.0489376 -7.2404e-06 0)
(-0.0505135 -3.27134e-05 0)
(-0.0504473 -0.000157862 0)
(-0.05079 -0.000212768 0)
(-0.0515572 0.000130498 0)
(-0.0530326 0.00209269 0)
(-0.0483639 0.00872324 0)
(-0.050815 -0.0245254 0)
(-0.0678019 -0.0327628 0)
(-0.0846563 -0.0469613 0)
(-0.113673 -0.0634144 0)
(-0.208165 -0.0571212 0)
(-0.0664232 -0.0169055 0)
(-0.0835683 -0.0217429 0)
(-0.107601 -0.0328942 0)
(-0.154689 -0.0459132 0)
(-0.245429 -0.0451251 0)
(-0.0713674 -2.51283e-14 0)
(-0.0879283 -2.41614e-14 0)
(-0.115701 1.8732e-14 0)
(-0.16789 -4.85278e-15 0)
(-0.254673 4.92734e-15 0)
(-0.0664232 0.0169055 0)
(-0.0835683 0.0217429 0)
(-0.107601 0.0328942 0)
(-0.154689 0.0459132 0)
(-0.245429 0.0451251 0)
(-0.050815 0.0245254 0)
(-0.0678019 0.0327628 0)
(-0.0846563 0.0469613 0)
(-0.113673 0.0634144 0)
(-0.208165 0.0571212 0)
(-0.2568 0.0114304 0)
(-0.221048 0.0187776 0)
(-0.20631 0.0203564 0)
(-0.205042 0.0405451 0)
(-0.285263 0.0961185 0)
(-0.267197 0.0109881 0)
(-0.22937 0.012005 0)
(-0.201269 0.0131051 0)
(-0.168361 0.0335822 0)
(-0.129818 0.103941 0)
(-0.273714 3.68913e-15 0)
(-0.232402 2.12142e-14 0)
(-0.196614 3.11761e-14 0)
(-0.143543 8.48349e-14 0)
(-0.0377911 6.09156e-14 0)
(-0.267197 -0.0109881 0)
(-0.22937 -0.012005 0)
(-0.201269 -0.0131051 0)
(-0.168361 -0.0335822 0)
(-0.129818 -0.103941 0)
(-0.2568 -0.0114304 0)
(-0.221048 -0.0187776 0)
(-0.20631 -0.0203564 0)
(-0.205042 -0.0405451 0)
(-0.285263 -0.0961185 0)
(-0.500886 0.0977291 0)
(-0.106466 -0.132472 0)
(-0.174336 -0.162198 0)
(-0.274388 -0.0814669 0)
(-0.320227 -0.0270773 0)
(-0.330812 -0.0115963 0)
(-0.318666 -0.00503785 0)
(-0.291166 -0.00281025 0)
(-0.25525 -0.00182462 0)
(-0.213349 -0.00130744 0)
(-0.168709 -0.000892603 0)
(-0.123691 -0.000591134 0)
(-0.080655 -0.000370186 0)
(-0.0430032 -0.000200432 0)
(-0.0159243 -8.0089e-05 0)
(-0.0030963 -1.75769e-05 0)
(-0.000214807 -1.29825e-06 0)
(-3.48777e-06 -1.22119e-08 0)
(-8.96414e-09 1.44946e-10 0)
(-2.37343e-12 8.61634e-11 0)
(3.60992e-12 8.61105e-11 0)
(1.19195e-08 8.74947e-11 0)
(4.31579e-06 8.58797e-11 0)
(0.000251804 9.07832e-11 0)
(0.0034849 9.45464e-11 0)
(0.0174419 8.69118e-11 0)
(0.0463866 8.2623e-11 0)
(0.0864427 7.34268e-11 0)
(0.13255 6.08692e-11 0)
(0.181778 4.73738e-11 0)
(0.232656 3.18474e-11 0)
(0.284288 1.99405e-11 0)
(0.335918 1.22943e-11 0)
(0.386704 6.5342e-12 0)
(0.435454 4.6335e-12 0)
(0.480084 1.94612e-12 0)
(0.519169 1.61165e-12 0)
(0.552473 5.89515e-13 0)
(0.638476 3.26566e-13 0)
(1.23432 2.34278e-13 0)
(0.0310308 0.11284 0)
(0.169644 -0.0958369 0)
(-0.0416417 -0.113167 0)
(-0.242919 -0.0475515 0)
(-0.315494 -0.0140572 0)
(-0.329152 -0.00592983 0)
(-0.318946 -0.00244612 0)
(-0.291188 -0.00134723 0)
(-0.255074 -0.000894056 0)
(-0.213169 -0.000655986 0)
(-0.168586 -0.000449911 0)
(-0.123608 -0.00029764 0)
(-0.0805947 -0.00018641 0)
(-0.0429615 -0.000100337 0)
(-0.0159021 -3.96587e-05 0)
(-0.00308933 -8.66244e-06 0)
(-0.000214052 -6.55498e-07 0)
(-3.47257e-06 -9.05778e-09 0)
(-8.9766e-09 3.25026e-11 0)
(-2.40271e-12 2.74476e-11 0)
(3.60494e-12 2.7454e-11 0)
(1.19198e-08 2.81503e-11 0)
(4.31579e-06 2.66999e-11 0)
(0.000251804 3.04132e-11 0)
(0.0034849 3.1959e-11 0)
(0.0174419 2.84445e-11 0)
(0.0463866 2.68585e-11 0)
(0.0864427 2.4088e-11 0)
(0.13255 1.98449e-11 0)
(0.181778 1.53944e-11 0)
(0.232656 1.00848e-11 0)
(0.284288 5.92755e-12 0)
(0.335918 3.78014e-12 0)
(0.386704 1.84133e-12 0)
(0.435454 1.58334e-12 0)
(0.480084 6.28687e-13 0)
(0.519169 7.24022e-13 0)
(0.552473 2.26911e-13 0)
(0.638476 1.19995e-13 0)
(1.23432 9.27605e-14 0)
(0.195185 3.10532e-14 0)
(0.260092 -9.41055e-15 0)
(0.0178223 -1.12353e-14 0)
(-0.228319 -3.96835e-15 0)
(-0.314109 1.21013e-14 0)
(-0.32915 3.12143e-14 0)
(-0.319026 1.93697e-14 0)
(-0.291161 -1.44166e-14 0)
(-0.255009 -8.14171e-15 0)
(-0.213111 6.62019e-14 0)
(-0.168549 1.05141e-14 0)
(-0.123584 -6.31705e-15 0)
(-0.0805779 -2.52179e-14 0)
(-0.0429485 -1.78935e-14 0)
(-0.015894 6.85393e-14 0)
(-0.00308659 -8.31988e-14 0)
(-0.000213751 -2.49965e-15 0)
(-3.46656e-06 -5.51932e-14 0)
(-8.96169e-09 2.72161e-13 0)
(-2.40091e-12 -6.46107e-15 0)
(3.6084e-12 4.35566e-14 0)
(1.192e-08 1.14466e-14 0)
(4.31579e-06 -8.6931e-13 0)
(0.000251804 9.42099e-13 0)
(0.0034849 4.58783e-13 0)
(0.0174419 4.73778e-13 0)
(0.0463866 -1.59311e-13 0)
(0.0864427 2.93457e-13 0)
(0.13255 -2.55788e-14 0)
(0.181778 -2.68458e-13 0)
(0.232656 -1.19528e-13 0)
(0.284288 -4.59834e-13 0)
(0.335918 -6.46869e-14 0)
(0.386704 -2.33622e-13 0)
(0.435454 -9.20629e-14 0)
(0.480084 -2.40951e-14 0)
(0.519169 1.84076e-13 0)
(0.552473 1.45387e-15 0)
(0.638476 -2.04858e-14 0)
(1.23432 -3.361e-14 0)
(0.0310308 -0.11284 0)
(0.169644 0.0958369 0)
(-0.0416417 0.113167 0)
(-0.242919 0.0475515 0)
(-0.315494 0.0140572 0)
(-0.329152 0.00592983 0)
(-0.318946 0.00244612 0)
(-0.291188 0.00134723 0)
(-0.255074 0.000894056 0)
(-0.213169 0.000655986 0)
(-0.168586 0.000449911 0)
(-0.123608 0.00029764 0)
(-0.0805947 0.00018641 0)
(-0.0429615 0.000100337 0)
(-0.0159021 3.96587e-05 0)
(-0.00308933 8.66244e-06 0)
(-0.000214052 6.55498e-07 0)
(-3.47257e-06 9.05769e-09 0)
(-8.97703e-09 -3.11603e-11 0)
(-2.39965e-12 -2.74606e-11 0)
(3.66495e-12 -2.72742e-11 0)
(1.19197e-08 -2.81427e-11 0)
(4.31579e-06 -3.02057e-11 0)
(0.000251804 -2.66905e-11 0)
(0.0034849 -2.98033e-11 0)
(0.0174419 -2.68879e-11 0)
(0.0463866 -2.71836e-11 0)
(0.0864427 -2.32266e-11 0)
(0.13255 -1.99851e-11 0)
(0.181778 -1.63904e-11 0)
(0.232656 -1.05426e-11 0)
(0.284288 -7.55893e-12 0)
(0.335918 -4.19116e-12 0)
(0.386704 -2.66039e-12 0)
(0.435454 -1.87502e-12 0)
(0.480084 -6.66648e-13 0)
(0.519169 -1.28848e-13 0)
(0.552473 -2.2611e-13 0)
(0.638476 -1.78294e-13 0)
(1.23432 -1.20095e-13 0)
(-0.500886 -0.0977291 0)
(-0.106466 0.132472 0)
(-0.174336 0.162198 0)
(-0.274388 0.0814669 0)
(-0.320227 0.0270773 0)
(-0.330812 0.0115963 0)
(-0.318666 0.00503785 0)
(-0.291166 0.00281025 0)
(-0.25525 0.00182462 0)
(-0.213349 0.00130744 0)
(-0.168709 0.000892603 0)
(-0.123691 0.000591134 0)
(-0.080655 0.000370186 0)
(-0.0430032 0.000200432 0)
(-0.0159243 8.0089e-05 0)
(-0.0030963 1.75769e-05 0)
(-0.000214807 1.29825e-06 0)
(-3.48777e-06 1.22119e-08 0)
(-8.96494e-09 -1.43271e-10 0)
(-2.37097e-12 -8.61837e-11 0)
(3.71456e-12 -8.58773e-11 0)
(1.19194e-08 -8.75048e-11 0)
(4.31579e-06 -9.06024e-11 0)
(0.000251804 -8.59747e-11 0)
(0.0034849 -9.12113e-11 0)
(0.0174419 -8.49882e-11 0)
(0.0463866 -8.2982e-11 0)
(0.0864427 -7.23585e-11 0)
(0.13255 -6.10733e-11 0)
(0.181778 -4.87443e-11 0)
(0.232656 -3.24232e-11 0)
(0.284288 -2.21598e-11 0)
(0.335918 -1.29138e-11 0)
(0.386704 -7.63218e-12 0)
(0.435454 -5.01848e-12 0)
(0.480084 -2.00818e-12 0)
(0.519169 -7.80083e-13 0)
(0.552473 -6.05209e-13 0)
(0.638476 -4.18356e-13 0)
(1.23432 -2.31602e-13 0)
(-1.10485 -0.143459 0)
(-0.422565 0.153634 0)
(-0.334312 0.196836 0)
(-0.323461 0.115358 0)
(-0.336124 0.047321 0)
(-0.336906 0.0218726 0)
(-0.320149 0.0106715 0)
(-0.292149 0.00652847 0)
(-0.25597 0.0039965 0)
(-0.213891 0.00268927 0)
(-0.169077 0.00180435 0)
(-0.12394 0.00119838 0)
(-0.0808393 0.000750992 0)
(-0.0431502 0.000405212 0)
(-0.0160197 0.000156473 0)
(-0.0031282 3.19593e-05 0)
(-0.000218344 2.1649e-06 0)
(-3.57471e-06 3.58546e-08 0)
(-9.38013e-09 4.84557e-10 0)
(-2.56155e-12 3.36515e-10 0)
(3.52593e-12 3.36283e-10 0)
(1.19209e-08 3.37659e-10 0)
(4.31579e-06 3.40214e-10 0)
(0.000251804 3.36536e-10 0)
(0.0034849 3.39851e-10 0)
(0.0174419 3.29889e-10 0)
(0.0463866 3.1295e-10 0)
(0.0864427 2.77676e-10 0)
(0.13255 2.31099e-10 0)
(0.181778 1.79459e-10 0)
(0.232656 1.26245e-10 0)
(0.284288 8.39706e-11 0)
(0.335918 5.11629e-11 0)
(0.386704 2.92038e-11 0)
(0.435454 1.62707e-11 0)
(0.480084 7.79356e-12 0)
(0.519169 3.76999e-12 0)
(0.552473 1.78925e-12 0)
(0.638476 7.40255e-13 0)
(1.23432 -7.00666e-13 0)
(-1.23734 -0.0986798 0)
(-0.588753 0.153754 0)
(-0.456254 0.191092 0)
(-0.386946 0.117761 0)
(-0.368295 0.0610717 0)
(-0.349293 0.0339149 0)
(-0.327847 0.0180492 0)
(-0.296322 0.0116794 0)
(-0.258275 0.00700212 0)
(-0.21528 0.00456061 0)
(-0.170002 0.00300948 0)
(-0.12462 0.00195406 0)
(-0.0813679 0.00116375 0)
(-0.0435352 0.000576275 0)
(-0.0162329 0.000199705 0)
(-0.00319166 3.6392e-05 0)
(-0.000225455 3.13644e-06 0)
(-3.756e-06 3.5749e-07 0)
(-1.00215e-08 2.96624e-07 0)
(-2.78749e-12 2.96453e-07 0)
(3.55097e-12 2.96453e-07 0)
(1.19202e-08 2.96453e-07 0)
(4.31579e-06 2.96451e-07 0)
(0.000251804 2.96403e-07 0)
(0.0034849 2.95609e-07 0)
(0.0174419 2.91153e-07 0)
(0.0463866 2.78517e-07 0)
(0.0864427 2.55087e-07 0)
(0.13255 2.2191e-07 0)
(0.181778 1.82758e-07 0)
(0.232656 1.42295e-07 0)
(0.284288 1.04654e-07 0)
(0.335918 7.26441e-08 0)
(0.386704 4.75886e-08 0)
(0.435454 2.95511e-08 0)
(0.480084 1.77279e-08 0)
(0.519169 1.06061e-08 0)
(0.552473 5.31194e-09 0)
(0.638476 2.24125e-09 0)
(1.23432 6.79429e-11 0)
(-1.2474 -0.042853 0)
(-0.628398 0.111556 0)
(-0.500233 0.152564 0)
(-0.427049 0.0960607 0)
(-0.394955 0.0583542 0)
(-0.366896 0.0374592 0)
(-0.337932 0.0234626 0)
(-0.30246 0.0149044 0)
(-0.26163 0.00949209 0)
(-0.217295 0.00617047 0)
(-0.171347 0.00402675 0)
(-0.125613 0.00253124 0)
(-0.082113 0.00144151 0)
(-0.0440506 0.00069131 0)
(-0.0165124 0.000267982 0)
(-0.00327981 9.18931e-05 0)
(-0.000234605 4.46207e-05 0)
(-3.97117e-06 4.04882e-05 0)
(-1.08161e-08 4.04143e-05 0)
(-3.08043e-12 4.04141e-05 0)
(3.51273e-12 4.04141e-05 0)
(1.19201e-08 4.04141e-05 0)
(4.3157e-06 4.04141e-05 0)
(0.0002518 4.04087e-05 0)
(0.00348485 4.03259e-05 0)
(0.0174417 3.98739e-05 0)
(0.0463861 3.8613e-05 0)
(0.0864418 3.6267e-05 0)
(0.132549 3.28646e-05 0)
(0.181777 2.86682e-05 0)
(0.232655 2.40465e-05 0)
(0.284287 1.93791e-05 0)
(0.335916 1.49913e-05 0)
(0.386703 1.11282e-05 0)
(0.435453 7.94928e-06 0)
(0.480083 5.54711e-06 0)
(0.519168 3.88325e-06 0)
(0.552473 2.28414e-06 0)
(0.638476 1.13971e-06 0)
(1.23432 6.64173e-08 0)
(-1.2489 -0.0216118 0)
(-0.639163 0.0845243 0)
(-0.520207 0.120204 0)
(-0.455487 0.0780432 0)
(-0.416613 0.055591 0)
(-0.384099 0.0379464 0)
(-0.348639 0.0257157 0)
(-0.309148 0.0170174 0)
(-0.265786 0.011427 0)
(-0.219997 0.00782064 0)
(-0.173243 0.00540058 0)
(-0.127016 0.00372382 0)
(-0.0831416 0.00256324 0)
(-0.0447185 0.00179788 0)
(-0.0168355 0.00133938 0)
(-0.00336525 0.00112682 0)
(-0.000243153 0.00107904 0)
(-4.16773e-06 0.00107561 0)
(-1.15201e-08 0.00107556 0)
(-3.30359e-12 0.00107556 0)
(3.63105e-12 0.00107556 0)
(1.191e-08 0.00107556 0)
(4.31289e-06 0.00107556 0)
(0.000251671 0.00107544 0)
(0.00348343 0.00107376 0)
(0.0174358 0.001065 0)
(0.0463725 0.00104134 0)
(0.0864195 0.000997773 0)
(0.132519 0.000933921 0)
(0.18174 0.000852785 0)
(0.232614 0.000759087 0)
(0.284245 0.000658234 0)
(0.335876 0.000555562 0)
(0.386665 0.000456211 0)
(0.43542 0.000365106 0)
(0.480057 0.000288081 0)
(0.519146 0.000228831 0)
(0.552446 0.000155687 0)
(0.638457 8.98549e-05 0)
(1.23432 1.06376e-05 0)
(-1.24555 0.00533381 0)
(-0.63935 0.0685987 0)
(-0.529137 0.0965416 0)
(-0.473771 0.0669173 0)
(-0.433026 0.0541275 0)
(-0.397423 0.0389521 0)
(-0.358176 0.0288002 0)
(-0.315695 0.0215533 0)
(-0.270129 0.0168711 0)
(-0.222852 0.013778 0)
(-0.17514 0.0117143 0)
(-0.128276 0.0103371 0)
(-0.0839599 0.00943537 0)
(-0.0451975 0.00886381 0)
(-0.0170409 0.00854942 0)
(-0.00341444 0.00843987 0)
(-0.000247717 0.00842264 0)
(-4.26957e-06 0.00842168 0)
(-1.18754e-08 0.00842166 0)
(-3.52108e-12 0.00842166 0)
(3.48181e-12 0.00842166 0)
(1.18215e-08 0.00842166 0)
(4.28828e-06 0.00842165 0)
(0.000250592 0.00842091 0)
(0.00347218 0.00841062 0)
(0.0173918 0.0083602 0)
(0.0462756 0.00823066 0)
(0.0862626 0.00799894 0)
(0.132304 0.00766174 0)
(0.181476 0.00722847 0)
(0.232311 0.0067145 0)
(0.283916 0.00613835 0)
(0.335533 0.00551921 0)
(0.386323 0.00487906 0)
(0.435098 0.00424512 0)
(0.479774 0.00366765 0)
(0.518879 0.00319401 0)
(0.552073 0.00245719 0)
(0.638126 0.00159876 0)
(1.23428 0.000382667 0)
(-1.24426 0.0305671 0)
(-0.633937 0.0618383 0)
(-0.532154 0.0845532 0)
(-0.485593 0.066054 0)
(-0.445707 0.0599788 0)
(-0.407336 0.0483287 0)
(-0.365045 0.041099 0)
(-0.319998 0.0361389 0)
(-0.27276 0.0330808 0)
(-0.224449 0.0312243 0)
(-0.176125 0.0301393 0)
(-0.128871 0.0295379 0)
(-0.084268 0.0292572 0)
(-0.0453082 0.0291969 0)
(-0.017061 0.0292464 0)
(-0.00341301 0.0292986 0)
(-0.000246918 0.0293162 0)
(-4.23683e-06 0.0293178 0)
(-1.17124e-08 0.0293179 0)
(-3.48362e-12 0.0293179 0)
(3.29654e-12 0.0293179 0)
(1.1481e-08 0.0293179 0)
(4.19558e-06 0.0293178 0)
(0.000246662 0.0293156 0)
(0.00343326 0.0292862 0)
(0.017249 0.0291504 0)
(0.0459788 0.0288223 0)
(0.0857996 0.0282607 0)
(0.131681 0.0274634 0)
(0.180706 0.0264474 0)
(0.231414 0.0252362 0)
(0.282913 0.0238566 0)
(0.33445 0.0223338 0)
(0.38519 0.0207007 0)
(0.433974 0.0190118 0)
(0.478734 0.0174214 0)
(0.517869 0.0160992 0)
(0.550398 0.0136004 0)
(0.636389 0.00968591 0)
(1.2339 0.00419773 0)
(-1.24235 0.0502844 0)
(-0.628684 0.0681482 0)
(-0.531468 0.0895106 0)
(-0.492842 0.0793173 0)
(-0.454193 0.0779692 0)
(-0.413655 0.0705116 0)
(-0.369441 0.0664747 0)
(-0.32262 0.0637578 0)
(-0.274152 0.0622697 0)
(-0.225074 0.061632 0)
(-0.176287 0.0615608 0)
(-0.128766 0.0618385 0)
(-0.084033 0.0622905 0)
(-0.0450607 0.0627748 0)
(-0.0168919 0.0631614 0)
(-0.00335268 0.0633625 0)
(-0.000239574 0.0634132 0)
(-4.04236e-06 0.0634174 0)
(-1.09463e-08 0.0634175 0)
(-3.01254e-12 0.0634175 0)
(3.11583e-12 0.0634175 0)
(1.07211e-08 0.0634175 0)
(3.98918e-06 0.0634174 0)
(0.000238046 0.0634132 0)
(0.00335072 0.0633582 0)
(0.0169609 0.0631154 0)
(0.0454126 0.0625592 0)
(0.0849566 0.0616519 0)
(0.13058 0.0604065 0)
(0.179368 0.0588526 0)
(0.22986 0.0570206 0)
(0.281167 0.0549398 0)
(0.332538 0.0526308 0)
(0.383147 0.0501209 0)
(0.431905 0.0474843 0)
(0.476778 0.0449717 0)
(0.516039 0.0430376 0)
(0.546908 0.0388284 0)
(0.632401 0.0294559 0)
(1.23242 0.0193125 0)
(-1.23622 0.0793565 0)
(-0.622607 0.0908285 0)
(-0.530515 0.116002 0)
(-0.497766 0.10814 0)
(-0.45998 0.107572 0)
(-0.417721 0.102778 0)
(-0.371955 0.10098 0)
(-0.323844 0.100112 0)
(-0.274527 0.100042 0)
(-0.224893 0.100521 0)
(-0.175761 0.101367 0)
(-0.128071 0.102421 0)
(-0.0833122 0.103513 0)
(-0.044442 0.104476 0)
(-0.0165094 0.105165 0)
(-0.00322775 0.105502 0)
(-0.000225539 0.105583 0)
(-3.69472e-06 0.10559 0)
(-9.65396e-09 0.10559 0)
(-2.68839e-12 0.10559 0)
(2.4946e-12 0.10559 0)
(9.51121e-09 0.10559 0)
(3.65569e-06 0.10559 0)
(0.000224061 0.105583 0)
(0.00321822 0.105502 0)
(0.0165116 0.10515 0)
(0.0445648 0.104372 0)
(0.0837445 0.103153 0)
(0.129049 0.101534 0)
(0.177548 0.0995624 0)
(0.227777 0.0972781 0)
(0.278846 0.0947138 0)
(0.329998 0.0918824 0)
(0.380424 0.0888078 0)
(0.429109 0.0855676 0)
(0.474113 0.0824609 0)
(0.513489 0.0802622 0)
(0.542579 0.0758047 0)
(0.627302 0.0606347 0)
(1.22886 0.0503045 0)
(-1.22792 0.121365 0)
(-0.618071 0.126425 0)
(-0.52996 0.14995 0)
(-0.500667 0.14276 0)
(-0.463117 0.142419 0)
(-0.419557 0.140311 0)
(-0.372696 0.140468 0)
(-0.323759 0.141198 0)
(-0.273878 0.142423 0)
(-0.223886 0.143966 0)
(-0.17454 0.145671 0)
(-0.126765 0.147412 0)
(-0.0820699 0.149052 0)
(-0.0434427 0.15043 0)
(-0.0159256 0.151383 0)
(-0.00304624 0.151838 0)
(-0.000206092 0.151944 0)
(-3.23591e-06 0.151952 0)
(-8.03418e-09 0.151953 0)
(-2.15873e-12 0.151953 0)
(2.05718e-12 0.151953 0)
(7.97294e-09 0.151953 0)
(3.21647e-06 0.151952 0)
(0.000205201 0.151945 0)
(0.00303803 0.15184 0)
(0.0159066 0.151386 0)
(0.0434509 0.1504 0)
(0.082199 0.148898 0)
(0.127149 0.146958 0)
(0.175342 0.144649 0)
(0.225296 0.14202 0)
(0.27611 0.139101 0)
(0.32704 0.135917 0)
(0.377251 0.132458 0)
(0.425839 0.128855 0)
(0.470913 0.12541 0)
(0.510232 0.123056 0)
(0.538656 0.118997 0)
(0.623076 0.100744 0)
(1.22248 0.0939719 0)
(-1.21588 0.164716 0)
(-0.615757 0.16566 0)
(-0.529702 0.183711 0)
(-0.50163 0.18119 0)
(-0.463691 0.181144 0)
(-0.419276 0.181378 0)
(-0.371787 0.183288 0)
(-0.322336 0.185317 0)
(-0.272175 0.187671 0)
(-0.221979 0.190084 0)
(-0.172572 0.192521 0)
(-0.124855 0.194847 0)
(-0.0803604 0.196946 0)
(-0.0421224 0.198669 0)
(-0.0151791 0.199844 0)
(-0.00282186 0.200393 0)
(-0.000183036 0.200518 0)
(-2.71932e-06 0.200527 0)
(-6.31694e-09 0.200527 0)
(-1.489e-12 0.200527 0)
(1.51897e-12 0.200527 0)
(6.30149e-09 0.200527 0)
(2.71306e-06 0.200527 0)
(0.000182668 0.200518 0)
(0.00281728 0.200395 0)
(0.0151614 0.199851 0)
(0.042095 0.198676 0)
(0.0803555 0.196914 0)
(0.124931 0.194687 0)
(0.172815 0.192086 0)
(0.222493 0.189164 0)
(0.273076 0.185976 0)
(0.323747 0.182471 0)
(0.373843 0.178816 0)
(0.42225 0.174867 0)
(0.4673 0.171296 0)
(0.506612 0.169061 0)
(0.535353 0.164743 0)
(0.620159 0.145946 0)
(1.21194 0.14282 0)
(-1.20122 0.213376 0)
(-0.615222 0.204963 0)
(-0.529576 0.221333 0)
(-0.500662 0.223018 0)
(-0.461849 0.223225 0)
(-0.417552 0.225635 0)
(-0.36939 0.228393 0)
(-0.319942 0.231721 0)
(-0.269544 0.234786 0)
(-0.219375 0.237929 0)
(-0.17002 0.240901 0)
(-0.122479 0.243684 0)
(-0.0782895 0.246148 0)
(-0.0405499 0.24815 0)
(-0.0143057 0.249504 0)
(-0.00256704 0.250126 0)
(-0.000158034 0.250262 0)
(-2.19261e-06 0.250272 0)
(-4.69153e-09 0.250272 0)
(-1.11224e-12 0.250272 0)
(9.77077e-13 0.250272 0)
(4.69228e-09 0.250272 0)
(2.19221e-06 0.250272 0)
(0.000157959 0.250262 0)
(0.00256536 0.250127 0)
(0.0142954 0.24951 0)
(0.0405218 0.248166 0)
(0.0782441 0.246168 0)
(0.122432 0.243678 0)
(0.170003 0.240811 0)
(0.219433 0.23765 0)
(0.26973 0.234166 0)
(0.320329 0.230562 0)
(0.370052 0.226453 0)
(0.418621 0.222613 0)
(0.463166 0.218553 0)
(0.502786 0.216805 0)
(0.532725 0.212189 0)
(0.618327 0.19327 0)
(1.19925 0.199805 0)
(-1.18148 0.254901 0)
(-0.615593 0.24582 0)
(-0.530046 0.265204 0)
(-0.498334 0.26758 0)
(-0.458863 0.26853 0)
(-0.414293 0.271471 0)
(-0.366687 0.275931 0)
(-0.316465 0.279175 0)
(-0.266439 0.283198 0)
(-0.216192 0.286649 0)
(-0.167047 0.290059 0)
(-0.119743 0.293163 0)
(-0.0759316 0.295916 0)
(-0.0387734 0.298145 0)
(-0.0133342 0.299644 0)
(-0.00229293 0.300319 0)
(-0.000132582 0.300462 0)
(-1.69491e-06 0.300471 0)
(-3.28727e-09 0.300471 0)
(-5.78792e-13 0.300471 0)
(7.04314e-13 0.300471 0)
(3.29072e-09 0.300471 0)
(1.69592e-06 0.300471 0)
(0.000132613 0.300462 0)
(0.00229278 0.30032 0)
(0.0133303 0.299647 0)
(0.0387564 0.298158 0)
(0.0758912 0.295945 0)
(0.119674 0.293212 0)
(0.166953 0.290115 0)
(0.216079 0.286678 0)
(0.266329 0.283151 0)
(0.316371 0.278965 0)
(0.36668 0.275463 0)
(0.414339 0.270538 0)
(0.459076 0.267009 0)
(0.4989 0.265302 0)
(0.53112 0.261472 0)
(0.616988 0.240587 0)
(1.18021 0.24815 0)
(-1.16248 0.316666 0)
(-0.615415 0.290096 0)
(-0.529106 0.310935 0)
(-0.495557 0.314443 0)
(-0.453912 0.314187 0)
(-0.411351 0.319861 0)
(-0.361961 0.322843 0)
(-0.313278 0.328062 0)
(-0.262487 0.331572 0)
(-0.21275 0.335642 0)
(-0.163712 0.339212 0)
(-0.11673 0.342588 0)
(-0.0733339 0.345564 0)
(-0.0368268 0.347982 0)
(-0.0122885 0.349597 0)
(-0.00200966 0.350307 0)
(-0.00010797 0.350449 0)
(-1.2545e-06 0.350458 0)
(-2.17025e-09 0.350458 0)
(-3.76772e-13 0.350458 0)
(3.69491e-13 0.350458 0)
(2.17226e-09 0.350458 0)
(1.25528e-06 0.350458 0)
(0.000108011 0.350449 0)
(0.00200997 0.350307 0)
(0.012288 0.349598 0)
(0.0368198 0.347989 0)
(0.0733105 0.345585 0)
(0.11668 0.342636 0)
(0.163626 0.339294 0)
(0.212623 0.335765 0)
(0.262318 0.331738 0)
(0.313067 0.328248 0)
(0.361717 0.323031 0)
(0.411086 0.31997 0)
(0.453682 0.314215 0)
(0.495489 0.314204 0)
(0.529168 0.310175 0)
(0.615706 0.288589 0)
(1.16209 0.313889 0)
(-1.1369 0.35605 0)
(-0.614319 0.334502 0)
(-0.528426 0.358952 0)
(-0.491547 0.360627 0)
(-0.450275 0.362146 0)
(-0.405236 0.365386 0)
(-0.359353 0.372114 0)
(-0.308168 0.375013 0)
(-0.258995 0.380079 0)
(-0.208795 0.383739 0)
(-0.160176 0.387632 0)
(-0.113458 0.391137 0)
(-0.0705295 0.394288 0)
(-0.0347401 0.396842 0)
(-0.0111932 0.398533 0)
(-0.00172728 0.399255 0)
(-8.52815e-05 0.399392 0)
(-8.88291e-07 0.3994 0)
(-1.34896e-09 0.3994 0)
(-2.00088e-13 0.3994 0)
(2.18218e-13 0.3994 0)
(1.34954e-09 0.3994 0)
(8.88633e-07 0.3994 0)
(8.53046e-05 0.399392 0)
(0.00172756 0.399255 0)
(0.0111939 0.398533 0)
(0.0347387 0.396844 0)
(0.0705202 0.394298 0)
(0.113432 0.391164 0)
(0.160124 0.387692 0)
(0.20871 0.383848 0)
(0.258868 0.380251 0)
(0.307993 0.375257 0)
(0.359132 0.37245 0)
(0.404959 0.365782 0)
(0.450008 0.362641 0)
(0.491278 0.361064 0)
(0.528234 0.359329 0)
(0.614272 0.334562 0)
(1.13679 0.355393 0)
(-1.11109 0.426144 0)
(-0.612915 0.381877 0)
(-0.526399 0.405118 0)
(-0.489621 0.408082 0)
(-0.443922 0.406433 0)
(-0.402865 0.413692 0)
(-0.352979 0.416476 0)
(-0.305079 0.422419 0)
(-0.254399 0.426139 0)
(-0.205061 0.430441 0)
(-0.156473 0.434232 0)
(-0.110123 0.437817 0)
(-0.0676403 0.440962 0)
(-0.0325917 0.443512 0)
(-0.0100914 0.445194 0)
(-0.00145843 0.445892 0)
(-6.54994e-05 0.446017 0)
(-6.03927e-07 0.446023 0)
(-7.93453e-10 0.446023 0)
(-1.55569e-13 0.446023 0)
(9.16269e-14 0.446023 0)
(7.93429e-10 0.446023 0)
(6.04018e-07 0.446023 0)
(6.55077e-05 0.446017 0)
(0.00145857 0.445892 0)
(0.010092 0.445194 0)
(0.0325923 0.443511 0)
(0.0676385 0.440965 0)
(0.110115 0.437828 0)
(0.156451 0.434262 0)
(0.205021 0.430503 0)
(0.254334 0.426247 0)
(0.30498 0.422591 0)
(0.352855 0.416728 0)
(0.40269 0.414032 0)
(0.443745 0.406861 0)
(0.489402 0.408555 0)
(0.526233 0.405641 0)
(0.612846 0.382255 0)
(1.11111 0.426054 0)
(-1.08338 0.450598 0)
(-0.60899 0.41946 0)
(-0.523678 0.447514 0)
(-0.484372 0.448256 0)
(-0.43939 0.448435 0)
(-0.395461 0.45278 0)
(-0.349349 0.459074 0)
(-0.299435 0.463141 0)
(-0.250569 0.468505 0)
(-0.201043 0.472799 0)
(-0.152929 0.476907 0)
(-0.106849 0.480431 0)
(-0.0648522 0.483513 0)
(-0.0305412 0.485991 0)
(-0.00905498 0.487587 0)
(-0.00121848 0.488222 0)
(-4.93932e-05 0.488327 0)
(-3.99375e-07 0.488332 0)
(-4.4883e-10 0.488332 0)
(-3.14314e-15 0.488332 0)
(8.22664e-14 0.488332 0)
(4.48921e-10 0.488332 0)
(3.99381e-07 0.488332 0)
(4.93946e-05 0.488327 0)
(0.00121852 0.488222 0)
(0.00905527 0.487586 0)
(0.030542 0.485991 0)
(0.064853 0.483513 0)
(0.106848 0.480432 0)
(0.152925 0.476915 0)
(0.201032 0.472822 0)
(0.250546 0.468551 0)
(0.299402 0.46322 0)
(0.349299 0.459197 0)
(0.395404 0.452952 0)
(0.439314 0.448662 0)
(0.484281 0.448536 0)
(0.523622 0.447848 0)
(0.608997 0.419718 0)
(1.08343 0.450692 0)
(-1.04862 0.521769 0)
(-0.608695 0.468488 0)
(-0.524479 0.493435 0)
(-0.486702 0.494386 0)
(-0.439991 0.492534 0)
(-0.397112 0.496753 0)
(-0.348527 0.499102 0)
(-0.299381 0.502822 0)
(-0.24911 0.506323 0)
(-0.199333 0.510095 0)
(-0.150894 0.513936 0)
(-0.104937 0.517726 0)
(-0.0630129 0.520952 0)
(-0.0289741 0.523397 0)
(-0.00823813 0.525007 0)
(-0.00103381 0.525635 0)
(-3.78056e-05 0.525731 0)
(-2.67126e-07 0.525735 0)
(-2.55227e-10 0.525735 0)
(-3.28134e-14 0.525735 0)
(1.46805e-14 0.525735 0)
(2.55314e-10 0.525735 0)
(2.67118e-07 0.525735 0)
(3.78051e-05 0.525731 0)
(0.00103381 0.525635 0)
(0.0082382 0.525007 0)
(0.0289745 0.523397 0)
(0.0630139 0.520952 0)
(0.104939 0.517725 0)
(0.150896 0.513935 0)
(0.199333 0.510098 0)
(0.249108 0.506333 0)
(0.299375 0.502844 0)
(0.348517 0.49914 0)
(0.397094 0.496812 0)
(0.439966 0.492618 0)
(0.486665 0.494501 0)
(0.524457 0.493574 0)
(0.608697 0.468606 0)
(1.04864 0.521827 0)
(-1.02492 0.51285 0)
(-0.602155 0.494718 0)
(-0.520642 0.527365 0)
(-0.48498 0.530629 0)
(-0.438834 0.530384 0)
(-0.393953 0.532377 0)
(-0.34671 0.534889 0)
(-0.295679 0.535695 0)
(-0.245698 0.537789 0)
(-0.195287 0.539615 0)
(-0.146644 0.542597 0)
(-0.0998973 0.546345 0)
(-0.0578274 0.550779 0)
(-0.0252539 0.554987 0)
(-0.00666671 0.557683 0)
(-0.000755437 0.558616 0)
(-2.43492e-05 0.558741 0)
(-1.49094e-07 0.558746 0)
(-1.22042e-10 0.558746 0)
(-4.99971e-14 0.558746 0)
(6.52393e-15 0.558746 0)
(1.22208e-10 0.558746 0)
(1.4909e-07 0.558746 0)
(2.43488e-05 0.558741 0)
(0.000755432 0.558616 0)
(0.00666671 0.557683 0)
(0.0252541 0.554986 0)
(0.0578279 0.550778 0)
(0.0998985 0.546343 0)
(0.146646 0.542595 0)
(0.19529 0.539613 0)
(0.245702 0.537788 0)
(0.295685 0.535697 0)
(0.346715 0.534895 0)
(0.393959 0.532391 0)
(0.438837 0.530406 0)
(0.484983 0.530666 0)
(0.520649 0.527412 0)
(0.602164 0.49476 0)
(1.02493 0.512872 0)
(-0.979809 0.598382 0)
(-0.573847 0.577213 0)
(-0.489364 0.606777 0)
(-0.462054 0.613141 0)
(-0.412275 0.614207 0)
(-0.372 0.617674 0)
(-0.323172 0.619751 0)
(-0.27502 0.621333 0)
(-0.225397 0.62312 0)
(-0.176522 0.624984 0)
(-0.128554 0.627374 0)
(-0.0841935 0.630748 0)
(-0.046638 0.635313 0)
(-0.0193055 0.63989 0)
(-0.00472179 0.642712 0)
(-0.000482398 0.643589 0)
(-1.36786e-05 0.643689 0)
(-7.22146e-08 0.643692 0)
(-5.00847e-11 0.643692 0)
(-2.12435e-14 0.643692 0)
(-9.66018e-15 0.643692 0)
(5.01408e-11 0.643692 0)
(7.22128e-08 0.643692 0)
(1.36784e-05 0.643689 0)
(0.000482393 0.643589 0)
(0.00472177 0.642712 0)
(0.0193055 0.63989 0)
(0.0466382 0.635313 0)
(0.0841941 0.630747 0)
(0.128556 0.627372 0)
(0.176524 0.624981 0)
(0.2254 0.623116 0)
(0.275025 0.621329 0)
(0.323178 0.619747 0)
(0.37201 0.617672 0)
(0.412288 0.614207 0)
(0.462071 0.613146 0)
(0.489384 0.606788 0)
(0.573862 0.577225 0)
(0.979812 0.598391 0)
(-1.03759 1.04196 0)
(-0.594004 0.982183 0)
(-0.50607 1.03049 0)
(-0.515719 1.05416 0)
(-0.441608 1.0896 0)
(-0.41446 1.1182 0)
(-0.34175 1.14403 0)
(-0.298138 1.16978 0)
(-0.231273 1.18785 0)
(-0.180601 1.20618 0)
(-0.123843 1.21828 0)
(-0.0752721 1.22763 0)
(-0.0352438 1.23309 0)
(-0.0107269 1.23584 0)
(-0.00161366 1.23677 0)
(-8.73099e-05 1.23694 0)
(-1.23806e-06 1.23695 0)
(-3.37356e-09 1.23696 0)
(-1.25553e-12 1.23696 0)
(1.36165e-14 1.23696 0)
(-4.0484e-14 1.23696 0)
(1.24921e-12 1.23696 0)
(3.37351e-09 1.23696 0)
(1.23805e-06 1.23695 0)
(8.73096e-05 1.23694 0)
(0.00161366 1.23677 0)
(0.0107269 1.23584 0)
(0.0352438 1.23309 0)
(0.0752721 1.22763 0)
(0.123843 1.21828 0)
(0.180601 1.20618 0)
(0.231274 1.18785 0)
(0.298139 1.16978 0)
(0.34175 1.14403 0)
(0.414461 1.1182 0)
(0.441609 1.0896 0)
(0.51572 1.05416 0)
(0.50607 1.03049 0)
(0.594003 0.982181 0)
(1.03759 1.04196 0)
(-1.03759 -1.04196 0)
(-0.594004 -0.982183 0)
(-0.50607 -1.03049 0)
(-0.515719 -1.05416 0)
(-0.441608 -1.0896 0)
(-0.41446 -1.1182 0)
(-0.34175 -1.14403 0)
(-0.298138 -1.16978 0)
(-0.231273 -1.18785 0)
(-0.180601 -1.20618 0)
(-0.123843 -1.21828 0)
(-0.0752721 -1.22763 0)
(-0.0352438 -1.23309 0)
(-0.0107269 -1.23584 0)
(-0.00161366 -1.23677 0)
(-8.73099e-05 -1.23694 0)
(-1.23806e-06 -1.23695 0)
(-3.37344e-09 -1.23696 0)
(-1.09828e-12 -1.23696 0)
(1.34062e-13 -1.23696 0)
(3.19972e-14 -1.23696 0)
(1.28782e-12 -1.23696 0)
(3.37346e-09 -1.23696 0)
(1.23805e-06 -1.23695 0)
(8.73096e-05 -1.23694 0)
(0.00161366 -1.23677 0)
(0.0107269 -1.23584 0)
(0.0352438 -1.23309 0)
(0.0752721 -1.22763 0)
(0.123843 -1.21828 0)
(0.180601 -1.20618 0)
(0.231274 -1.18785 0)
(0.298139 -1.16978 0)
(0.34175 -1.14403 0)
(0.414461 -1.1182 0)
(0.441609 -1.0896 0)
(0.51572 -1.05416 0)
(0.50607 -1.03049 0)
(0.594003 -0.982181 0)
(1.03759 -1.04196 0)
(-0.979809 -0.598382 0)
(-0.573847 -0.577213 0)
(-0.489364 -0.606777 0)
(-0.462054 -0.613141 0)
(-0.412275 -0.614207 0)
(-0.372 -0.617674 0)
(-0.323172 -0.619751 0)
(-0.27502 -0.621333 0)
(-0.225397 -0.62312 0)
(-0.176522 -0.624984 0)
(-0.128554 -0.627374 0)
(-0.0841935 -0.630748 0)
(-0.046638 -0.635313 0)
(-0.0193055 -0.63989 0)
(-0.00472179 -0.642712 0)
(-0.000482398 -0.643589 0)
(-1.36786e-05 -0.643689 0)
(-7.22146e-08 -0.643692 0)
(-5.00027e-11 -0.643692 0)
(-5.53606e-15 -0.643692 0)
(1.25823e-14 -0.643692 0)
(5.02019e-11 -0.643692 0)
(7.22127e-08 -0.643692 0)
(1.36784e-05 -0.643689 0)
(0.000482393 -0.643589 0)
(0.00472177 -0.642712 0)
(0.0193055 -0.63989 0)
(0.0466382 -0.635313 0)
(0.0841941 -0.630747 0)
(0.128556 -0.627372 0)
(0.176524 -0.624981 0)
(0.2254 -0.623116 0)
(0.275025 -0.621329 0)
(0.323178 -0.619747 0)
(0.37201 -0.617672 0)
(0.412288 -0.614207 0)
(0.462071 -0.613146 0)
(0.489384 -0.606788 0)
(0.573862 -0.577225 0)
(0.979812 -0.598391 0)
(-1.02492 -0.51285 0)
(-0.602155 -0.494718 0)
(-0.520642 -0.527365 0)
(-0.48498 -0.530629 0)
(-0.438834 -0.530384 0)
(-0.393953 -0.532377 0)
(-0.34671 -0.534889 0)
(-0.295679 -0.535695 0)
(-0.245698 -0.537789 0)
(-0.195287 -0.539615 0)
(-0.146644 -0.542597 0)
(-0.0998973 -0.546345 0)
(-0.0578274 -0.550779 0)
(-0.0252539 -0.554987 0)
(-0.00666671 -0.557683 0)
(-0.000755437 -0.558616 0)