/*--------------------------------*- C++ -*----------------------------------*\
| =========                 |                                                 |
| \\      /  F ield         | OpenFOAM: The Open Source CFD Toolbox           |
|  \\    /   O peration     | Version:  v1912                                 |
|   \\  /    A nd           | Website:  www.openfoam.com                      |
|    \\/     M anipulation  |                                                 |
\*---------------------------------------------------------------------------*/
FoamFile
{
    version     2.0;
    format      ascii;
    class       volVectorField;
    location    "6.52";
    object      grad(T);
}
// * * * * * * * * * * * * * * * * * * * * * * * * * * * * * * * * * * * * * //

dimensions      [0 -1 0 1 0 0 0];


internalField   nonuniform List<vector> 
1900
(
(0.672918 1.08112e-07 0)
(-1.46516 7.64033e-06 0)
(0.0140679 7.32676e-06 0)
(0.10479 -3.1043e-05 0)
(0.127136 -0.00010618 0)
(0.100118 -0.000120201 0)
(0.053042 -6.08839e-05 0)
(0.0184041 0.000395599 0)
(0.00130237 0.00114586 0)
(0.0171866 -0.000470971 0)
(0.672925 6.84836e-07 0)
(-1.46515 1.06186e-05 0)
(0.0140293 -1.75161e-07 0)
(0.104676 -5.85167e-05 0)
(0.127047 -0.000145085 0)
(0.100163 -3.96171e-05 0)
(0.0535578 2.61374e-05 0)
(0.0196108 -1.02194e-05 0)
(0.000435804 -0.000464313 0)
(-0.0120677 -0.0021519 0)
(0.672929 -1.23599e-13 0)
(-1.46516 1.61546e-13 0)
(0.0139988 -5.45354e-13 0)
(0.104645 -2.9165e-13 0)
(0.127155 -7.58942e-15 0)
(0.100289 1.11673e-13 0)
(0.0530714 -1.19262e-14 0)
(0.0179136 -4.6187e-13 0)
(-0.00083931 -5.94143e-13 0)
(-0.0155493 -4.13081e-13 0)
(0.672925 -6.84836e-07 0)
(-1.46515 -1.06186e-05 0)
(0.0140293 1.75159e-07 0)
(0.104676 5.85167e-05 0)
(0.127047 0.000145085 0)
(0.100163 3.96171e-05 0)
(0.0535578 -2.61374e-05 0)
(0.0196108 1.02194e-05 0)
(0.000435804 0.000464313 0)
(-0.0120677 0.0021519 0)
(0.672918 -1.08112e-07 0)
(-1.46516 -7.64033e-06 0)
(0.0140679 -7.32676e-06 0)
(0.10479 3.1043e-05 0)
(0.127136 0.00010618 0)
(0.100118 0.000120201 0)
(0.053042 6.08839e-05 0)
(0.0184041 -0.000395599 0)
(0.00130237 -0.00114586 0)
(0.0171866 0.000470971 0)
(-0.00524959 -0.0242833 9.50378e-16)
(-0.0106668 -0.0209173 -1.14058e-15)
(0.0984502 -0.0324877 -1.44826e-15)
(0.387694 -0.0615669 0)
(-0.516439 -0.324954 -6.52397e-15)
(-0.0236644 -0.0290441 9.4599e-16)
(-0.00417799 -0.0252423 1.14058e-15)
(0.0815895 -0.0415897 1.44826e-15)
(0.280187 -0.0668728 0)
(-0.449858 -0.356918 0)
(-0.0346263 -3.79078e-13 0)
(-0.0133914 -3.99443e-13 0)
(0.0706206 -4.18623e-13 0)
(0.252364 -4.92819e-13 0)
(-0.580318 -6.19544e-13 0)
(-0.0236644 0.0290441 9.4599e-16)
(-0.00417799 0.0252423 1.14058e-15)
(0.0815895 0.0415897 1.44826e-15)
(0.280187 0.0668728 0)
(-0.449858 0.356918 0)
(-0.00524959 0.0242833 -2.84236e-15)
(-0.0106668 0.0209173 -1.14058e-15)
(0.0984502 0.0324877 -1.44826e-15)
(0.387694 0.0615669 -3.99074e-15)
(-0.516439 0.324954 6.52397e-15)
(-1.87872 0.453552 2.20868e-15)
(-0.981657 0.31206 -1.60231e-15)
(-0.696121 0.225449 0)
(-0.495291 0.178238 9.96009e-16)
(-0.211471 0.173347 -4.1736e-16)
(-1.6752 0.451127 -1.11117e-15)
(-1.0195 0.203414 8.05852e-16)
(-0.720905 0.122594 0)
(-0.49845 0.100131 -6.26615e-16)
(-0.240141 0.0963595 1.06371e-16)
(-1.72819 -3.28546e-14 0)
(-1.07499 6.95001e-14 0)
(-0.736 -1.28498e-13 0)
(-0.510594 8.14923e-14 2.51852e-16)
(-0.23677 1.69605e-13 -2.12741e-16)
(-1.6752 -0.451127 -1.11117e-15)
(-1.0195 -0.203414 8.05852e-16)
(-0.720905 -0.122594 0)
(-0.49845 -0.100131 -6.26615e-16)
(-0.240141 -0.0963595 1.06371e-16)
(-1.87872 -0.453552 1.11117e-15)
(-0.981657 -0.31206 -9.39823e-18)
(-0.696121 -0.225449 0)
(-0.495291 -0.178238 5.36796e-18)
(-0.211471 -0.173347 4.1736e-16)
(-0.131981 0.155883 0)
(-0.221938 0.0246806 0)
(-0.145822 -0.114253 0)
(0.18158 -0.179314 0)
(0.602073 -0.0818776 0)
(0.3782 0.195765 0)
(-0.124281 0.154452 0)
(-0.144182 0.0845299 0)
(-0.098056 0.0715712 0)
(-0.0942495 0.0526421 0)
(-0.129194 0.0345748 0)
(-0.194531 0.0243035 0)
(-0.228415 0.0177072 0)
(-0.180203 0.00984577 0)
(-0.099254 0.00327172 0)
(-0.0569942 0.000997559 0)
(-0.0459721 0.000847812 0)
(-0.0419571 0.00135436 0)
(-0.0364464 0.00086081 0)
(-0.0269353 0.000204574 0)
(-0.0165966 -0.000102155 0)
(-0.00947513 -0.000153299 0)
(-0.0059527 -0.000134599 0)
(-0.00436357 -0.000114224 0)
(-0.00325598 -0.000103717 0)
(-0.00216006 -9.91075e-05 0)
(-0.000751221 -0.000103459 0)
(0.00106509 -0.000114893 0)
(0.00284427 -0.000108249 0)
(0.00411577 -9.53442e-05 0)
(0.00600394 -0.000113638 0)
(0.00838086 -6.56406e-05 0)
(0.0131275 -8.66987e-05 0)
(0.0174442 0.000202694 0)
(0.0222411 5.06419e-05 0)
(0.0444207 -9.97936e-05 0)
(0.132689 -0.000440743 0)
(0.273875 0.000378159 0)
(0.223401 0.00191912 0)
(0.0510723 0.000679141 0)
(-0.169666 0.0558275 0)
(-0.245841 0.0736511 0)
(-0.169749 0.000315507 0)
(0.189926 -0.0218691 0)
(0.632909 0.0215396 0)
(0.386113 0.0979068 0)
(-0.139699 0.068552 0)
(-0.147339 0.0352001 0)
(-0.0960864 0.0320176 0)
(-0.100105 0.0227767 0)
(-0.135542 0.0137521 0)
(-0.198122 0.00994322 0)
(-0.230541 0.00879172 0)
(-0.181682 0.0046246 0)
(-0.100017 0.0013887 0)
(-0.0572041 0.000347512 0)
(-0.0459208 0.00029915 0)
(-0.0419502 0.000608126 0)
(-0.0365573 0.0003459 0)
(-0.0270192 7.83516e-05 0)
(-0.0166268 -5.89619e-05 0)
(-0.00947669 -7.48792e-05 0)
(-0.005949 -6.51716e-05 0)
(-0.0043606 -5.66503e-05 0)
(-0.00325428 -5.25744e-05 0)
(-0.00215979 -5.09631e-05 0)
(-0.000752796 -5.38986e-05 0)
(0.00106434 -6.12495e-05 0)
(0.00284579 -6.03752e-05 0)
(0.0041147 -5.7525e-05 0)
(0.00600609 -6.84322e-05 0)
(0.00838132 -5.14009e-05 0)
(0.0131518 -6.80601e-05 0)
(0.0174525 5.56781e-05 0)
(0.0222098 -1.91239e-05 0)
(0.0443739 -9.33408e-05 0)
(0.132747 -0.000212999 0)
(0.274197 0.00014862 0)
(0.223519 0.00138453 0)
(0.0509613 0.00103621 0)
(-0.139442 -3.52859e-13 0)
(-0.238087 -3.92284e-12 0)
(-0.17361 -6.11293e-12 0)
(0.187754 8.46663e-12 0)
(0.636916 2.61174e-11 0)
(0.391877 -3.24295e-11 0)
(-0.142523 -4.36993e-11 0)
(-0.15481 -2.01819e-11 0)
(-0.10167 -1.56125e-12 0)
(-0.0995631 4.92425e-12 0)
(-0.132927 2.91552e-12 0)
(-0.195974 1.99887e-12 0)
(-0.229962 -4.49845e-12 0)
(-0.182357 -6.31203e-12 0)
(-0.100498 -4.22445e-12 0)
(-0.0573111 -4.45509e-13 0)
(-0.0458962 -2.14475e-12 0)
(-0.0419435 -6.54464e-13 0)
(-0.0366006 1.16897e-12 0)
(-0.0270531 4.92819e-13 0)
(-0.0166411 2.75979e-13 0)
(-0.00947693 -6.1701e-13 0)
(-0.0059474 -1.05463e-12 0)
(-0.00435991 -7.11631e-13 0)
(-0.00325432 -5.91383e-13 0)
(-0.00216045 -8.04281e-13 0)
(-0.000754213 -1.04083e-12 0)
(0.00106321 -4.49451e-13 0)
(0.00284535 -3.94255e-14 0)
(0.00411342 -7.03746e-13 0)
(0.00600573 -1.85891e-12 0)
(0.00838097 -3.31766e-12 0)
(0.0131586 -2.13686e-12 0)
(0.0174585 -4.804e-12 0)
(0.0221977 -5.42495e-12 0)
(0.0443643 -3.90707e-12 0)
(0.13276 -1.87863e-12 0)
(0.274339 7.27204e-12 0)
(0.223659 7.21684e-12 0)
(0.050971 6.70234e-13 0)
(-0.169666 -0.0558275 0)
(-0.245841 -0.0736511 0)
(-0.169749 -0.000315507 0)
(0.189926 0.0218691 0)
(0.632909 -0.0215396 0)
(0.386113 -0.0979068 0)
(-0.139699 -0.068552 0)
(-0.147339 -0.0352001 0)
(-0.0960864 -0.0320176 0)
(-0.100105 -0.0227767 0)
(-0.135542 -0.0137521 0)
(-0.198122 -0.00994322 0)
(-0.230541 -0.00879172 0)
(-0.181682 -0.0046246 0)
(-0.100017 -0.0013887 0)
(-0.0572041 -0.000347512 0)
(-0.0459208 -0.00029915 0)
(-0.0419502 -0.000608126 0)
(-0.0365573 -0.0003459 0)
(-0.0270192 -7.83516e-05 0)
(-0.0166268 5.89619e-05 0)
(-0.00947669 7.48792e-05 0)
(-0.005949 6.51716e-05 0)
(-0.0043606 5.66503e-05 0)
(-0.00325428 5.25744e-05 0)
(-0.00215979 5.09631e-05 0)
(-0.000752796 5.38986e-05 0)
(0.00106434 6.12495e-05 0)
(0.00284579 6.03752e-05 0)
(0.0041147 5.7525e-05 0)
(0.00600609 6.84322e-05 0)
(0.00838132 5.14009e-05 0)
(0.0131518 6.80601e-05 0)
(0.0174525 -5.56781e-05 0)
(0.0222098 1.91239e-05 0)
(0.0443739 9.33408e-05 0)
(0.132747 0.000212999 0)
(0.274197 -0.00014862 0)
(0.223519 -0.00138453 0)
(0.0509613 -0.00103621 0)
(-0.131981 -0.155883 0)
(-0.221938 -0.0246806 0)
(-0.145822 0.114253 0)
(0.18158 0.179314 0)
(0.602073 0.0818776 0)
(0.3782 -0.195765 0)
(-0.124281 -0.154452 0)
(-0.144182 -0.0845299 0)
(-0.098056 -0.0715712 0)
(-0.0942495 -0.0526421 0)
(-0.129194 -0.0345748 0)
(-0.194531 -0.0243035 0)
(-0.228415 -0.0177072 0)
(-0.180203 -0.00984577 0)
(-0.099254 -0.00327172 0)
(-0.0569942 -0.000997559 0)
(-0.0459721 -0.000847812 0)
(-0.0419571 -0.00135436 0)
(-0.0364464 -0.00086081 0)
(-0.0269353 -0.000204574 0)
(-0.0165966 0.000102155 0)
(-0.00947513 0.000153299 0)
(-0.0059527 0.000134599 0)
(-0.00436357 0.000114224 0)
(-0.00325598 0.000103717 0)
(-0.00216006 9.91075e-05 0)
(-0.000751221 0.000103459 0)
(0.00106509 0.000114893 0)
(0.00284427 0.000108249 0)
(0.00411577 9.53442e-05 0)
(0.00600394 0.000113638 0)
(0.00838086 6.56406e-05 0)
(0.0131275 8.66987e-05 0)
(0.0174442 -0.000202694 0)
(0.0222411 -5.06419e-05 0)
(0.0444207 9.97936e-05 0)
(0.132689 0.000440743 0)
(0.273875 -0.000378159 0)
(0.223401 -0.00191912 0)
(0.0510723 -0.000679141 0)
(-0.0161819 -0.129644 0)
(-0.10403 0.00181787 0)
(-0.0694544 0.199906 0)
(0.179267 0.274112 0)
(0.433287 0.197673 0)
(0.247018 -0.203501 0)
(-0.0877514 -0.191117 0)
(-0.0990011 -0.122854 0)
(-0.0738067 -0.0853387 0)
(-0.0836687 -0.0564782 0)
(-0.125107 -0.0450018 0)
(-0.191694 -0.0402147 0)
(-0.223931 -0.0336522 0)
(-0.174336 -0.0189869 0)
(-0.09535 -0.00600551 0)
(-0.0559265 -0.00200465 0)
(-0.0460854 -0.00177729 0)
(-0.0419503 -0.00227318 0)
(-0.0359642 -0.00154852 0)
(-0.0265122 -0.000446811 0)
(-0.0164374 0.000149145 0)
(-0.00945815 0.000284763 0)
(-0.00596923 0.000258527 0)
(-0.00437654 0.000221145 0)
(-0.0032618 0.000203724 0)
(-0.00215965 0.000199594 0)
(-0.000744715 0.000210714 0)
(0.00106648 0.000230447 0)
(0.00283529 0.000217387 0)
(0.00411685 0.000197098 0)
(0.00598993 0.00021897 0)
(0.00836497 0.000153296 0)
(0.0130117 0.000135916 0)
(0.0173758 -0.000294718 0)
(0.0223633 -0.000202764 0)
(0.0446282 0.000143911 0)
(0.132514 0.000730255 0)
(0.27309 0.00012349 0)
(0.223467 -0.0013486 0)
(0.0516106 -1.97722e-05 0)
(0.00444479 -0.0519352 0)
(0.032403 -0.0137611 0)
(0.0756198 0.136308 0)
(0.180668 0.218423 0)
(0.232335 0.128089 0)
(0.0738914 -0.166843 0)
(-0.0661557 -0.176094 0)
(-0.0664774 -0.124216 0)
(-0.0470969 -0.0907578 0)
(-0.0610531 -0.0694199 0)
(-0.115713 -0.0659826 0)
(-0.185115 -0.0646226 0)
(-0.210364 -0.0536445 0)
(-0.156708 -0.0275442 0)
(-0.0849828 -0.00832988 0)
(-0.0534922 -0.00332178 0)
(-0.04617 -0.00304183 0)
(-0.0417403 -0.00314697 0)
(-0.0349451 -0.00212258 0)
(-0.0255263 -0.000663435 0)
(-0.0159769 0.000258456 0)
(-0.00937883 0.000536652 0)
(-0.00600514 0.000529091 0)
(-0.00440942 0.000477611 0)
(-0.00327362 0.000450334 0)
(-0.00215355 0.000445465 0)
(-0.000724978 0.000465318 0)
(0.00107078 0.00049153 0)
(0.00281695 0.000466794 0)
(0.00411671 0.00043559 0)
(0.00596925 0.000459268 0)
(0.00830935 0.000385829 0)
(0.0127579 0.000320067 0)
(0.0171546 -0.000238465 0)
(0.0225982 -0.000283201 0)
(0.0452085 0.00033667 0)
(0.132763 0.00118604 0)
(0.272292 0.00093084 0)
(0.223228 -0.00066672 0)
(0.0520642 0.000433343 0)
(0.020604 0.0330019 0)
(0.0773675 0.0729306 0)
(0.154287 0.105099 0)
(0.171348 0.101946 0)
(0.0620309 -0.0317963 0)
(-0.046104 -0.164452 0)
(-0.0466748 -0.145715 0)
(-0.0167678 -0.102393 0)
(-0.021003 -0.0787906 0)
(-0.0597944 -0.0756664 0)
(-0.120484 -0.0827404 0)
(-0.179805 -0.0841902 0)
(-0.188201 -0.0665037 0)
(-0.13067 -0.0307448 0)
(-0.0720084 -0.00959205 0)
(-0.0508307 -0.00483072 0)
(-0.045917 -0.00437797 0)
(-0.0410645 -0.00387417 0)
(-0.0335709 -0.00243753 0)
(-0.0242177 -0.000668241 0)
(-0.0152809 0.00049765 0)
(-0.00919735 0.000919097 0)
(-0.00602613 0.000951889 0)
(-0.00445243 0.000896422 0)
(-0.00329278 0.00085931 0)
(-0.00214521 0.000850761 0)
(-0.000700325 0.000874127 0)
(0.0010679 0.000893514 0)
(0.00278139 0.000848212 0)
(0.00410959 0.000797013 0)
(0.00594198 0.00081479 0)
(0.00823083 0.000728192 0)
(0.0124101 0.000623656 0)
(0.0167945 -3.8374e-05 0)
(0.0229176 -0.000245652 0)
(0.046044 0.000577129 0)
(0.133087 0.00168094 0)
(0.271305 0.00136295 0)
(0.222988 -0.000618928 0)
(0.0526707 0.000750565 0)
(0.0429215 0.065214 0)
(0.101878 0.0858286 0)
(0.10358 0.0555059 0)
(0.0487511 -0.0313552 0)
(-0.0243764 -0.138759 0)
(-0.0358852 -0.150229 0)
(-0.00635292 -0.109391 0)
(-0.00198626 -0.0837908 0)
(-0.0213422 -0.0835682 0)
(-0.0648593 -0.0907355 0)
(-0.123927 -0.0971433 0)
(-0.169469 -0.0947155 0)
(-0.158862 -0.0674208 0)
(-0.101866 -0.028261 0)
(-0.060011 -0.0102935 0)
(-0.0484678 -0.0063677 0)
(-0.0452483 -0.00553816 0)
(-0.0398704 -0.00432722 0)
(-0.0318558 -0.00241846 0)
(-0.0226978 -0.000402309 0)
(-0.0144473 0.000921944 0)
(-0.0089411 0.00143605 0)
(-0.00602699 0.00150493 0)
(-0.00449864 0.0014531 0)
(-0.00331762 0.0014092 0)
(-0.00213927 0.00139452 0)
(-0.00068378 0.00140919 0)
(0.0010458 0.0014002 0)
(0.00272395 0.00132568 0)
(0.00408451 0.00124392 0)
(0.00590293 0.00123342 0)
(0.00812516 0.00112698 0)
(0.0120192 0.00097286 0)
(0.0163169 0.000283625 0)
(0.0231913 -7.98997e-05 0)
(0.047065 0.000727242 0)
(0.133521 0.00203473 0)
(0.270076 0.00157168 0)
(0.222638 -0.00101826 0)
(0.0533839 0.000681734 0)
(0.0404691 0.0926927 0)
(0.0680125 0.0526554 0)
(0.0413643 -0.0383631 0)
(-0.0158532 -0.121504 0)
(-0.0525205 -0.155016 0)
(-0.0178036 -0.120272 0)
(0.0173478 -0.09303 0)
(0.00811588 -0.0851002 0)
(-0.0276951 -0.0900528 0)
(-0.0728759 -0.0999974 0)
(-0.124319 -0.105611 0)
(-0.151163 -0.095623 0)
(-0.124163 -0.0584816 0)
(-0.0756196 -0.0233159 0)
(-0.0509112 -0.010538 0)
(-0.0462483 -0.00746263 0)
(-0.0439507 -0.00616226 0)
(-0.0380582 -0.00428484 0)
(-0.0297888 -0.00197531 0)
(-0.0209988 0.000204197 0)
(-0.0135094 0.0016132 0)
(-0.00863557 0.00216981 0)
(-0.0060097 0.00226256 0)
(-0.00454468 0.00221821 0)
(-0.00334922 0.00217081 0)
(-0.00214522 0.00214857 0)
(-0.000694853 0.00214282 0)
(0.000987427 0.00209255 0)
(0.00263079 0.00198762 0)
(0.00402069 0.00187007 0)
(0.00582929 0.00181953 0)
(0.00797974 0.00168975 0)
(0.0115974 0.00150164 0)
(0.01578 0.000839792 0)
(0.0233451 0.000428258 0)
(0.0480817 0.00120899 0)
(0.133901 0.00253578 0)
(0.268363 0.00228876 0)
(0.22213 -0.000767599 0)
(0.0543089 0.000381258 0)
(0.00434015 0.0718057 0)
(-0.024412 -0.0175417 0)
(-0.0642462 -0.108538 0)
(-0.06366 -0.153209 0)
(-0.0231896 -0.129077 0)
(0.0238469 -0.0908385 0)
(0.0275402 -0.0773302 0)
(0.000882718 -0.0871063 0)
(-0.0356976 -0.0949321 0)
(-0.0798518 -0.103795 0)
(-0.119712 -0.106056 0)
(-0.124054 -0.0845799 0)
(-0.0891844 -0.0446004 0)
(-0.0556657 -0.0191031 0)
(-0.0447342 -0.0108108 0)
(-0.0442511 -0.00835505 0)
(-0.042186 -0.00645576 0)
(-0.0358357 -0.00392751 0)
(-0.02753 -0.00125345 0)
(-0.0192398 0.00102452 0)
(-0.0125532 0.00243148 0)
(-0.00831536 0.00299499 0)
(-0.00598035 0.00310388 0)
(-0.00458705 0.0030714 0)
(-0.00338473 0.00302488 0)
(-0.00216624 0.00299443 0)
(-0.000737765 0.00295089 0)
(0.00089625 0.00284359 0)
(0.00250957 0.00271182 0)
(0.00392253 0.00254761 0)
(0.00572917 0.0024431 0)
(0.00781883 0.00227815 0)
(0.0112001 0.00205641 0)
(0.0152825 0.00146673 0)
(0.0235471 0.00108364 0)
(0.0490959 0.00171773 0)
(0.134561 0.00293687 0)
(0.266893 0.00248696 0)
(0.220799 -0.000751191 0)
(0.0544909 0.000562611 0)
(-0.0456293 0.0158867 0)
(-0.105773 -0.0747122 0)
(-0.0893696 -0.118536 0)
(-0.0356453 -0.110599 0)
(0.00758187 -0.0850491 0)
(0.0320613 -0.0693045 0)
(0.0209443 -0.0758774 0)
(-0.00884603 -0.0876609 0)
(-0.0437769 -0.0970049 0)
(-0.0835948 -0.10378 0)
(-0.105803 -0.0967266 0)
(-0.0919427 -0.0653279 0)
(-0.0610668 -0.0321807 0)
(-0.0430587 -0.0161041 0)
(-0.040554 -0.0107801 0)
(-0.0420516 -0.00861904 0)
(-0.0396841 -0.00615914 0)
(-0.0330451 -0.00314647 0)
(-0.0250168 -0.000147721 0)
(-0.0174479 0.00215024 0)
(-0.0116106 0.00349481 0)
(-0.00798762 0.00403229 0)
(-0.00593606 0.0041459 0)
(-0.00462082 0.00412605 0)
(-0.0034234 0.00408288 0)
(-0.00221652 0.00403467 0)
(-0.00084021 0.0039319 0)
(0.000757049 0.00377195 0)
(0.00234558 0.00361304 0)
(0.00376174 0.00339754 0)
(0.00556963 0.0032316 0)
(0.00760711 0.00302014 0)
(0.0108155 0.00276517 0)
(0.0148426 0.00224824 0)
(0.0235869 0.00196347 0)
(0.0498675 0.00245006 0)
(0.134642 0.00357106 0)
(0.264809 0.00271573 0)
(0.220276 -0.000449479 0)
(0.0555749 0.00114341 0)
(-0.0829643 0.00915311 0)
(-0.153947 -0.0490966 0)
(-0.0988275 -0.0740697 0)
(-0.0313903 -0.0745433 0)
(0.0166028 -0.0677493 0)
(0.0326851 -0.0628222 0)
(0.00985127 -0.0755158 0)
(-0.0194765 -0.0859299 0)
(-0.0512308 -0.0957091 0)
(-0.0795836 -0.0963404 0)
(-0.0826577 -0.0774419 0)
(-0.0618548 -0.0455562 0)
(-0.0417505 -0.023445 0)
(-0.0350434 -0.0138578 0)
(-0.0375213 -0.0104891 0)
(-0.0397981 -0.00839462 0)
(-0.0369125 -0.0054224 0)
(-0.0300429 -0.00207448 0)
(-0.0224258 0.000948498 0)
(-0.0157297 0.00318232 0)
(-0.0107396 0.0044382 0)
(-0.00768794 0.00494631 0)
(-0.00589001 0.00507573 0)
(-0.00464778 0.00508444 0)
(-0.00347278 0.00505606 0)
(-0.00231173 0.00499277 0)
(-0.000990936 0.00487123 0)
(0.000588985 0.00471081 0)
(0.00214877 0.00451627 0)
(0.00355496 0.00427731 0)
(0.0053655 0.00408228 0)
(0.00736936 0.00386137 0)
(0.0104563 0.00361262 0)
(0.01451 0.00319078 0)
(0.0237416 0.0030683 0)
(0.050645 0.00343898 0)
(0.134817 0.0044271 0)
(0.263018 0.00355488 0)
(0.219284 0.000256679 0)
(0.0560259 0.00188277 0)
(-0.101761 -0.00390273 0)
(-0.18597 -0.0308138 0)
(-0.113891 -0.0553802 0)
(-0.0295547 -0.0597528 0)
(0.0188768 -0.0492557 0)
(0.0245772 -0.0615649 0)
(-0.00132311 -0.0740096 0)
(-0.0283051 -0.0825455 0)
(-0.0538088 -0.0885389 0)
(-0.0659919 -0.0793329 0)
(-0.0568656 -0.0544696 0)
(-0.0399093 -0.0306589 0)
(-0.0305211 -0.0172891 0)
(-0.0305739 -0.0119765 0)
(-0.0352895 -0.00995438 0)
(-0.0371692 -0.00779386 0)
(-0.0335938 -0.0044016 0)
(-0.0269059 -0.000708653 0)
(-0.0199512 0.00222438 0)
(-0.014085 0.00432949 0)
(-0.00991076 0.00547123 0)
(-0.00737327 0.00594414 0)
(-0.00580295 0.00608774 0)
(-0.00463977 0.00611773 0)
(-0.00351174 0.00609314 0)
(-0.00239462 0.0060157 0)
(-0.00111192 0.00590653 0)
(0.000414996 0.0057507 0)
(0.00192784 0.00550559 0)
(0.00334353 0.00524941 0)
(0.00516881 0.00504214 0)
(0.00715454 0.00482901 0)
(0.0101693 0.00461566 0)
(0.0143181 0.00429177 0)
(0.0238261 0.00429221 0)
(0.0511769 0.00446863 0)
(0.134754 0.00541017 0)
(0.26079 0.00440062 0)
(0.218665 0.000687454 0)
(0.0571419 0.00321677 0)
(-0.108897 -0.0130185 0)
(-0.203553 -0.018833 0)
(-0.126714 -0.0398061 0)
(-0.0254885 -0.0463146 0)
(0.0148566 -0.0387726 0)
(0.00883129 -0.0605155 0)
(-0.0103664 -0.0704671 0)
(-0.0334775 -0.0765026 0)
(-0.048135 -0.0741992 0)
(-0.0467531 -0.0566505 0)
(-0.0357537 -0.035158 0)
(-0.0260263 -0.0206435 0)
(-0.0237475 -0.0131619 0)
(-0.0279754 -0.0105576 0)
(-0.0334908 -0.00913322 0)
(-0.0344473 -0.00662014 0)
(-0.0300849 -0.00297236 0)
(-0.0236579 0.000605471 0)
(-0.0175709 0.00343824 0)
(-0.0126009 0.00533092 0)
(-0.00918364 0.00635338 0)
(-0.00709385 0.00681336 0)
(-0.00572273 0.00700646 0)
(-0.00464258 0.00709705 0)
(-0.0035711 0.00712495 0)
(-0.00249155 0.00709311 0)
(-0.0012463 0.0070272 0)
(0.00020262 0.00688885 0)
(0.00166571 0.00663453 0)
(0.00310836 0.00639488 0)
(0.00496038 0.00619892 0)
(0.00695839 0.00601897 0)
(0.00993858 0.0058685 0)
(0.0141983 0.00565241 0)
(0.023912 0.00574029 0)
(0.0517224 0.0058999 0)
(0.134752 0.00685051 0)
(0.258467 0.00561041 0)
(0.218143 0.00150648 0)
(0.0584633 0.004623 0)
(-0.107364 -0.006171 0)
(-0.211783 -0.00228305 0)
(-0.140373 -0.0226673 0)
(-0.0285588 -0.0345895 0)
(0.0051922 -0.0409644 0)
(-0.00596473 -0.0561085 0)
(-0.0167288 -0.0640812 0)
(-0.0319015 -0.0638558 0)
(-0.0346787 -0.052835 0)
(-0.0283704 -0.0355059 0)
(-0.0221679 -0.0215844 0)
(-0.018713 -0.0132327 0)
(-0.0208019 -0.00946536 0)
(-0.0266917 -0.00863958 0)
(-0.0314952 -0.00766804 0)
(-0.0312323 -0.00457854 0)
(-0.026631 -0.000599484 0)
(-0.0207284 0.00274093 0)
(-0.0153975 0.00539631 0)
(-0.0112759 0.00706945 0)
(-0.00848224 0.00797086 0)
(-0.00674393 0.00838981 0)
(-0.00552957 0.00857637 0)
(-0.00452559 0.00866524 0)
(-0.00351554 0.00869384 0)
(-0.00248882 0.00867227 0)
(-0.00130875 0.00860755 0)
(3.66045e-05 0.00846166 0)
(0.00145184 0.00820882 0)
(0.00292376 0.00799037 0)
(0.00480658 0.00782096 0)
(0.00683613 0.00768006 0)
(0.00981605 0.00759909 0)
(0.0141945 0.00748798 0)
(0.0240646 0.00766683 0)
(0.0522468 0.00790984 0)
(0.134475 0.00885855 0)
(0.25564 0.00692767 0)
(0.217713 0.00200071 0)
(0.0601451 0.00593075 0)
(-0.10515 0.00449105 0)
(-0.219449 0.00945666 0)
(-0.157846 -0.0100471 0)
(-0.0431203 -0.0287171 0)
(-0.00587978 -0.0461938 0)
(-0.0134448 -0.0490867 0)
(-0.017832 -0.0512572 0)
(-0.0226403 -0.043512 0)
(-0.020816 -0.0305322 0)
(-0.0166389 -0.0196222 0)
(-0.0142904 -0.0119654 0)
(-0.0143479 -0.0075299 0)
(-0.0193214 -0.00621983 0)
(-0.0262434 -0.00621434 0)
(-0.0295774 -0.00494361 0)
(-0.0276357 -0.00143657 0)
(-0.0230316 0.00246635 0)
(-0.0178801 0.0057802 0)
(-0.0133998 0.00818671 0)
(-0.01012 0.00963385 0)
(-0.0079113 0.0104033 0)
(-0.00651036 0.0107827 0)
(-0.00545732 0.0109565 0)
(-0.00452938 0.0110136 0)
(-0.00356433 0.0109905 0)
(-0.0025747 0.0109113 0)
(-0.00144925 0.0107787 0)
(-0.000181611 0.0105643 0)
(0.00121156 0.0102703 0)
(0.0027346 0.0100637 0)
(0.00466136 0.0099047 0)
(0.00674459 0.00980096 0)
(0.00975349 0.00978782 0)
(0.0142636 0.00978127 0)
(0.0243185 0.0100732 0)
(0.0528707 0.0103759 0)
(0.133805 0.0111855 0)
(0.251859 0.00794833 0)
(0.217183 0.0017418 0)
(0.0622504 0.00697479 0)
(-0.102579 0.00513652 0)
(-0.225793 0.00956802 0)
(-0.177159 -0.00655636 0)
(-0.063391 -0.0272037 0)
(-0.0144367 -0.0437244 0)
(-0.010844 -0.0374845 0)
(-0.0113568 -0.0318302 0)
(-0.0119301 -0.0232463 0)
(-0.0116576 -0.0149772 0)
(-0.0104788 -0.00902338 0)
(-0.0105154 -0.00468876 0)
(-0.0131764 -0.00299063 0)
(-0.0195342 -0.00329242 0)
(-0.0254619 -0.00283971 0)
(-0.0268912 1.07354e-05 0)
(-0.0240918 0.003938 0)
(-0.0196766 0.00783996 0)
(-0.015216 0.0111982 0)
(-0.011684 0.0135049 0)
(-0.00913996 0.0148761 0)
(-0.00737516 0.0155482 0)
(-0.0062108 0.0157679 0)
(-0.00530708 0.0157118 0)
(-0.00449284 0.0155014 0)
(-0.00361413 0.0152116 0)
(-0.00269295 0.0149014 0)
(-0.00164315 0.0145709 0)
(-0.000453306 0.0142153 0)
(0.000969441 0.0138458 0)
(0.00257149 0.0136267 0)
(0.00455342 0.0134459 0)
(0.00672349 0.0133549 0)
(0.00979708 0.0133934 0)
(0.0144696 0.0135002 0)
(0.0246376 0.0139158 0)
(0.0533186 0.0143871 0)
(0.132136 0.0150222 0)
(0.24654 0.0102212 0)
(0.216775 0.00211394 0)
(0.0651878 0.00816847 0)
(-0.10088 0.00317565 0)
(-0.230717 0.00428899 0)
(-0.19328 -0.00623694 0)
(-0.0789368 -0.0187396 0)
(-0.0157868 -0.0260407 0)
(-0.00198312 -0.0182084 0)
(-0.00411151 -0.0115361 0)
(-0.00640015 -0.00700931 0)
(-0.00711034 -0.00303093 0)
(-0.00672457 0.000145867 0)
(-0.00847703 0.00229298 0)
(-0.0130024 0.00240279 0)
(-0.019176 0.00205767 0)
(-0.0230604 0.00330304 0)
(-0.0230462 0.00660278 0)
(-0.0200912 0.0104092 0)
(-0.0160354 0.0139942 0)
(-0.0124212 0.0167498 0)
(-0.00985565 0.0185333 0)
(-0.00815103 0.019559 0)
(-0.00705193 0.0200734 0)
(-0.00635274 0.0202725 0)
(-0.00571413 0.0202675 0)
(-0.00501135 0.0201019 0)
(-0.0041425 0.019819 0)
(-0.0031921 0.0194938 0)
(-0.00211043 0.019175 0)
(-0.000880421 0.0189446 0)
(0.000644385 0.0187787 0)
(0.0023493 0.0187293 0)
(0.00439945 0.018755 0)
(0.00669396 0.0188914 0)
(0.00989351 0.0191872 0)
(0.014767 0.0195892 0)
(0.0251732 0.0203599 0)
(0.0539369 0.0212517 0)
(0.129791 0.0217774 0)
(0.23942 0.0147257 0)
(0.215205 0.00337545 0)
(0.0680847 0.00923759 0)
(-0.101506 0.00602339 0)
(-0.234863 0.00690182 0)
(-0.19935 0.00346962 0)
(-0.0824747 0.000674369 0)
(-0.0139248 -0.000707942 0)
(0.00313314 0.00295243 0)
(-0.000564972 0.006069 0)
(-0.00373422 0.00786335 0)
(-0.00476262 0.0102571 0)
(-0.00534846 0.0118182 0)
(-0.0083405 0.0120518 0)
(-0.0134031 0.0108934 0)
(-0.0186667 0.0102407 0)
(-0.0210821 0.0114471 0)
(-0.0200434 0.0139702 0)
(-0.0169692 0.0169504 0)
(-0.0135666 0.0195189 0)
(-0.010842 0.0213003 0)
(-0.00897693 0.0224272 0)
(-0.00765585 0.0231686 0)
(-0.00668763 0.0238108 0)
(-0.00602377 0.0245154 0)
(-0.00547147 0.0253065 0)
(-0.004925 0.026119 0)
(-0.00420008 0.0268624 0)
(-0.00331352 0.0275904 0)
(-0.00217245 0.0281203 0)
(-0.000835227 0.0286925 0)
(0.000761989 0.02903 0)
(0.00254868 0.0293802 0)
(0.00470967 0.0297502 0)
(0.00713991 0.0302569 0)
(0.0104695 0.0308444 0)
(0.0155996 0.0316392 0)
(0.0262396 0.0327461 0)
(0.0546845 0.0338105 0)
(0.125847 0.0331979 0)
(0.228807 0.0214988 0)
(0.211486 0.00504208 0)
(0.0708367 0.00972845 0)
(-0.100033 0.00352467 0)
(-0.233178 0.0113894 0)
(-0.199281 0.0231204 0)
(-0.0829624 0.0276714 0)
(-0.0135915 0.026474 0)
(0.00454739 0.0271575 0)
(0.000620839 0.0281553 0)
(-0.00236436 0.0286688 0)
(-0.00329934 0.0298444 0)
(-0.00499512 0.0296693 0)
(-0.00936812 0.0285551 0)
(-0.0147476 0.0272925 0)
(-0.0186425 0.0273482 0)
(-0.0194664 0.0293027 0)
(-0.0177429 0.0321806 0)
(-0.0147443 0.0352161 0)
(-0.0118437 0.0377054 0)
(-0.00961865 0.0396054 0)
(-0.00805529 0.0411264 0)
(-0.00681774 0.0424965 0)
(-0.00575407 0.0439373 0)
(-0.00491139 0.0455265 0)
(-0.00416884 0.0472328 0)
(-0.00351202 0.0490288 0)
(-0.00272457 0.0508609 0)
(-0.00197999 0.0527209 0)
(-0.0010485 0.0542815 0)
(-3.7279e-06 0.0558324 0)
(0.00130715 0.0570359 0)
(0.00304328 0.0582481 0)
(0.00524428 0.05935 0)
(0.00774835 0.0605122 0)
(0.0112255 0.0614721 0)
(0.0165996 0.0625441 0)
(0.0272655 0.0633852 0)
(0.0543723 0.0631704 0)
(0.117927 0.0580646 0)
(0.212288 0.0357332 0)
(0.203862 0.00397074 0)
(0.0726007 0.00191475 0)
(-0.0939273 -0.0555209 0)
(-0.21598 -0.0037089 0)
(-0.18366 0.0437314 0)
(-0.079243 0.0639464 0)
(-0.01442 0.0659837 0)
(0.00475328 0.0665075 0)
(0.00089131 0.0676497 0)
(-0.00210655 0.0689127 0)
(-0.00379852 0.0703975 0)
(-0.00659082 0.0708498 0)
(-0.0106309 0.0713705 0)
(-0.0145662 0.0735215 0)
(-0.0167296 0.0779048 0)
(-0.0164253 0.0841485 0)
(-0.014345 0.0909701 0)
(-0.0116453 0.097354 0)
(-0.00933697 0.103093 0)
(-0.00754544 0.108168 0)
(-0.00619088 0.112621 0)
(-0.00494713 0.116565 0)
(-0.00376782 0.120486 0)
(-0.00284808 0.124433 0)
(-0.00209653 0.127885 0)
(-0.00142883 0.130716 0)
(-0.000642291 0.13313 0)
(-1.73605e-05 0.135513 0)
(0.00082594 0.137078 0)
(0.001819 0.138725 0)
(0.00308983 0.140012 0)
(0.00477863 0.141268 0)
(0.00689138 0.142013 0)
(0.00918488 0.142213 0)
(0.0124276 0.141334 0)
(0.0174432 0.139616 0)
(0.026843 0.135904 0)
(0.0495574 0.128528 0)
(0.0994074 0.110154 0)
(0.17668 0.0689246 0)
(0.178898 -0.0027892 0)
(0.0688555 -0.0674961 0)
(-0.0501055 -0.58684 0)
(-0.137535 -0.174808 0)
(-0.134086 0.0714491 0)
(-0.0615193 0.126005 0)
(-0.0111235 0.14135 0)
(0.00615279 0.145165 0)
(0.00293855 0.150697 0)
(0.000283543 0.157436 0)
(-0.00143259 0.1636 0)
(-0.00405756 0.169675 0)
(-0.0067936 0.175843 0)
(-0.0084509 0.183507 0)
(-0.00840198 0.192445 0)
(-0.0068762 0.202281 0)
(-0.00501764 0.212283 0)
(-0.00306243 0.221598 0)
(-0.00142337 0.230139 0)
(-0.00043703 0.237896 0)
(3.65217e-05 0.244725 0)
(0.000760984 0.250354 0)
(0.00182815 0.254924 0)
(0.00221856 0.258418 0)
(0.0018853 0.26068 0)
(0.00154258 0.261995 0)
(0.00189872 0.26262 0)
(0.00182473 0.263177 0)
(0.00204627 0.262891 0)
(0.00282314 0.262709 0)
(0.00375789 0.261886 0)
(0.00497179 0.260772 0)
(0.00615491 0.258838 0)
(0.00709357 0.255832 0)
(0.00872275 0.251231 0)
(0.0113674 0.244801 0)
(0.016581 0.234954 0)
(0.0295582 0.2198 0)
(0.0604904 0.185952 0)
(0.103452 0.114721 0)
(0.0724024 -0.151891 0)
(0.0102468 -0.559417 0)
(0.303122 -0.720624 0)
(0.418372 -0.540789 0)
(0.106214 0.0643375 0)
(-0.0118839 0.169353 0)
(0.0040429 0.196035 0)
(0.0137602 0.192077 0)
(0.0127169 0.194825 0)
(0.0103273 0.196434 0)
(0.00799512 0.197953 0)
(0.00520688 0.199128 0)
(0.00269855 0.201253 0)
(0.00143174 0.204781 0)
(0.00136119 0.209212 0)
(0.00269134 0.21369 0)
(0.00426986 0.217922 0)
(0.005562 0.221585 0)
(0.00636818 0.224378 0)
(0.00651006 0.226732 0)
(0.00581437 0.229072 0)
(0.00488041 0.231013 0)
(0.00400233 0.2311 0)
(0.00269927 0.229295 0)
(0.00135088 0.227258 0)
(0.000439985 0.225786 0)
(0.000496248 0.224501 0)
(0.000244439 0.222776 0)
(0.0003753 0.222128 0)
(0.000850019 0.220853 0)
(0.00122293 0.219946 0)
(0.00184192 0.218971 0)
(0.00213137 0.218277 0)
(0.00185428 0.217525 0)
(0.00179724 0.216895 0)
(0.00175769 0.215338 0)
(0.00275161 0.212282 0)
(0.00233758 0.205351 0)
(-0.00185005 0.182149 0)
(-0.148877 0.0832198 0)
(-0.470726 -0.458536 0)
(-0.323851 -0.683912 0)
(0.12319 -0.188438 0)
(0.618883 -0.37516 0)
(0.550232 0.019639 0)
(0.0653894 0.0856134 0)
(0.0107743 0.0998283 0)
(0.00498632 0.0925988 0)
(0.00713688 0.0907232 0)
(0.00329849 0.0868082 0)
(0.00116339 0.0834292 0)
(-0.000878077 0.0797187 0)
(-0.00134637 0.0771146 0)
(-0.000781477 0.0755212 0)
(0.000183501 0.0748179 0)
(0.00151734 0.074299 0)
(0.00259014 0.0735996 0)
(0.00315881 0.0725559 0)
(0.00353636 0.0711057 0)
(0.00408599 0.0696172 0)
(0.00416135 0.0685902 0)
(0.00271552 0.0679018 0)
(0.000173377 0.0663436 0)
(-0.00148349 0.0639284 0)
(-0.00149615 0.062003 0)
(-0.00111443 0.0609739 0)
(-0.00100182 0.0603899 0)
(-0.00046229 0.0594193 0)
(0.000192917 0.0596565 0)
(0.000721263 0.0592301 0)
(0.00194381 0.0595229 0)
(0.00336273 0.0599781 0)
(0.00476153 0.0611011 0)
(0.00576241 0.0627076 0)
(0.00661612 0.0651567 0)
(0.00692223 0.0677083 0)
(0.00695704 0.0705161 0)
(0.000520256 0.0720724 0)
(-0.0571999 0.0686302 0)
(-0.513935 0.0146339 0)
(-0.666834 -0.310203 0)
(-0.206934 -0.188874 0)
(0.12319 0.188438 0)
(0.618883 0.37516 0)
(0.550232 -0.019639 0)
(0.0653894 -0.0856134 0)
(0.0107743 -0.0998283 0)
(0.00498632 -0.0925988 0)
(0.00713688 -0.0907232 0)
(0.00329849 -0.0868082 0)
(0.00116339 -0.0834292 0)
(-0.000878077 -0.0797187 0)
(-0.00134637 -0.0771146 0)
(-0.000781477 -0.0755212 0)
(0.000183501 -0.0748179 0)
(0.00151734 -0.074299 0)
(0.00259014 -0.0735996 0)
(0.00315881 -0.0725559 0)
(0.00353636 -0.0711057 0)
(0.00408599 -0.0696172 0)
(0.00416135 -0.0685902 0)
(0.00271552 -0.0679018 0)
(0.000173377 -0.0663436 0)
(-0.00148349 -0.0639284 0)
(-0.00149615 -0.062003 0)
(-0.00111443 -0.0609739 0)
(-0.00100182 -0.0603899 0)
(-0.00046229 -0.0594193 0)
(0.000192917 -0.0596565 0)
(0.000721263 -0.0592301 0)
(0.00194381 -0.0595229 0)