/*--------------------------------*- C++ -*----------------------------------*\
| =========                 |                                                 |
| \\      /  F ield         | OpenFOAM: The Open Source CFD Toolbox           |
|  \\    /   O peration     | Version:  v1912                                 |
|   \\  /    A nd           | Website:  www.openfoam.com                      |
|    \\/     M anipulation  |                                                 |
\*---------------------------------------------------------------------------*/
FoamFile
{
    version     2.0;
    format      ascii;
    class       volVectorField;
    location    "0.82";
    object      grad(T);
}
// * * * * * * * * * * * * * * * * * * * * * * * * * * * * * * * * * * * * * //

dimensions      [0 -1 0 1 0 0 0];


internalField   nonuniform List<vector> 
1900
(
(-3.42348e-11 2.60209e-14 0)
(-5.26512e-09 -6.31006e-12 0)
(-1.06674e-07 -5.01309e-10 0)
(-4.54474e-07 -3.5931e-09 0)
(-6.04812e-07 3.2982e-09 0)
(3.06103e-07 1.96844e-08 0)
(9.58198e-05 1.23912e-07 0)
(0.00224723 1.61873e-05 0)
(0.0151427 0.000509266 0)
(0.0375541 0.00446451 0)
(-4.05145e-11 1.51788e-14 0)
(-5.76646e-09 -1.15901e-11 0)
(-1.1026e-07 -9.25586e-10 0)
(-4.50675e-07 -6.40437e-09 0)
(-5.81534e-07 7.26795e-09 0)
(4.26717e-07 3.42259e-08 0)
(0.000111987 2.97035e-07 0)
(0.00275637 3.64249e-05 0)
(0.019591 0.000947976 0)
(0.0567648 0.00671379 0)
(-4.58119e-11 6.50521e-15 0)
(-6.19072e-09 -4.33681e-15 0)
(-1.13066e-07 -4.11997e-13 0)
(-4.46281e-07 -8.23994e-14 0)
(-5.64181e-07 8.32667e-13 0)
(5.95871e-07 8.04478e-13 0)
(0.00013221 -1.43115e-13 0)
(0.00319491 -1.79978e-13 0)
(0.02182 -2.32019e-13 0)
(0.0593564 -1.60462e-13 0)
(-4.05123e-11 2.38524e-14 0)
(-5.76688e-09 1.15381e-11 0)
(-1.1026e-07 9.25603e-10 0)
(-4.50674e-07 6.40438e-09 0)
(-5.81533e-07 -7.26707e-09 0)
(4.26716e-07 -3.42252e-08 0)
(0.000111987 -2.97035e-07 0)
(0.00275637 -3.64249e-05 0)
(0.019591 -0.000947976 0)
(0.0567648 -0.00671379 0)
(-3.42499e-11 2.1684e-15 0)
(-5.26514e-09 6.26235e-12 0)
(-1.06673e-07 5.01743e-10 0)
(-4.54473e-07 3.59319e-09 0)
(-6.04811e-07 -3.29815e-09 0)
(3.06102e-07 -1.96846e-08 0)
(9.58198e-05 -1.23911e-07 0)
(0.00224723 -1.61873e-05 0)
(0.0151427 -0.000509266 0)
(0.0375541 -0.00446451 0)
(0.0581059 0.0179742 9.87254e-16)
(0.0662162 0.030726 -1.2058e-15)
(0.0635185 0.0442668 -1.53439e-15)
(0.012185 0.0412223 0)
(0.065512 0.151457 -6.57452e-15)
(0.0844965 0.0210908 9.90502e-16)
(0.0834688 0.0297834 1.2058e-15)
(0.0572964 0.0384956 1.53439e-15)
(0.0332781 0.0330924 0)
(0.0556895 0.144088 0)
(0.0864662 -8.44578e-14 0)
(0.0852364 9.51055e-15 0)
(0.0706182 2.59004e-13 0)
(0.0528657 2.25875e-13 0)
(0.121816 3.74308e-13 0)
(0.0844965 -0.0210908 9.90502e-16)
(0.0834688 -0.0297834 1.2058e-15)
(0.0572964 -0.0384956 1.53439e-15)
(0.0332781 -0.0330924 0)
(0.0556895 -0.144088 0)
(0.0581059 -0.0179742 -2.96826e-15)
(0.0662162 -0.030726 -1.2058e-15)
(0.0635185 -0.0442668 -1.53439e-15)
(0.012185 -0.0412223 -4.19632e-15)
(0.065512 -0.151457 6.57452e-15)
(0.186495 -0.0773768 2.87347e-15)
(0.0238689 -0.00654551 -2.435e-15)
(-0.0156859 -0.00119728 0)
(-0.079706 0.0443308 1.8593e-15)
(-0.443807 0.0322824 -8.24131e-16)
(0.134232 -0.0795105 -1.43557e-15)
(0.041663 -0.00332688 1.2174e-15)
(0.00360994 -0.002827 0)
(-0.0662107 0.0559622 -1.16332e-15)
(-0.220401 0.0104722 2.06355e-16)
(0.142766 3.06643e-13 0)
(0.0419998 6.48668e-14 0)
(0.00740192 -8.03113e-15 0)
(-0.0782986 5.31472e-14 4.66001e-16)
(-0.239352 -6.9744e-14 -4.12709e-16)
(0.134232 0.0795105 -1.43557e-15)
(0.041663 0.00332688 1.2174e-15)
(0.00360994 0.002827 0)
(-0.0662107 -0.0559622 -1.16332e-15)
(-0.220401 -0.0104722 2.06355e-16)
(0.186495 0.0773768 1.43557e-15)
(0.0238689 0.00654551 1.97129e-19)
(-0.0156859 0.00119728 0)
(-0.079706 -0.0443308 1.3351e-18)
(-0.443807 -0.0322824 8.24131e-16)
(-0.695051 1.53075 0)
(-0.214097 0.83262 0)
(0.153184 0.265864 0)
(0.137183 0.0131778 0)
(0.162409 0.0112345 0)
(0.164729 0.002909 0)
(0.139536 0.00371062 0)
(0.0798794 0.00128711 0)
(0.0261361 0.000138105 0)
(0.00369419 2.12667e-06 0)
(0.000151073 -2.061e-08 0)
(1.16368e-06 -7.16086e-11 0)
(1.15711e-09 -1.5376e-13 0)
(1.18277e-13 0 0)
(1.97128e-15 -3.94255e-15 0)
(-1.97128e-15 0 0)
(0 0 0)
(1.97128e-15 0 0)
(9.85638e-16 -1.18277e-14 0)
(-2.95692e-15 7.88511e-15 0)
(0 -3.94255e-15 0)
(0 3.94255e-15 0)
(1.97128e-15 0 0)
(9.85638e-16 -1.18277e-14 0)
(-2.95692e-15 7.88511e-15 0)
(0 -3.94255e-15 0)
(-1.27147e-13 0 0)
(-1.40283e-09 -6.70234e-14 0)
(-1.40682e-06 -7.0966e-14 0)
(-0.000182398 1.73472e-13 0)
(-0.00444475 -1.45874e-13 0)
(-0.0313662 2.1684e-13 0)
(-0.0963107 -1.57702e-13 0)
(-0.171213 3.94255e-15 0)
(-0.215091 7.49085e-14 0)
(-0.230996 -7.88511e-15 0)
(-0.299868 2.05013e-13 0)
(-0.563422 2.87806e-13 0)
(-0.362423 3.31174e-13 0)
(0.0190407 2.24726e-13 0)
(-0.531768 0.620839 0)
(-0.361591 0.756127 0)
(0.0187531 0.177588 0)
(0.096223 -0.0089776 0)
(0.163453 0.0035969 0)
(0.16437 -0.000955583 0)
(0.139998 0.00146328 0)
(0.0795329 0.000508575 0)
(0.0260128 3.60372e-05 0)
(0.0036856 -2.91175e-07 0)
(0.000151141 -1.85352e-08 0)
(1.16711e-06 -5.62602e-11 0)
(1.16778e-09 -3.94255e-14 0)
(1.56716e-13 0 0)
(0 3.94255e-15 0)
(0 0 0)
(0 0 0)
(0 0 0)
(1.97128e-15 -3.94255e-15 0)
(0 -7.88511e-15 0)
(0 0 0)
(0 0 0)
(-1.97128e-15 0 0)
(1.97128e-15 -3.94255e-15 0)
(0 -7.88511e-15 0)
(-1.97128e-15 3.94255e-15 0)
(-1.44889e-13 0 0)
(-1.40284e-09 -1.30104e-13 0)
(-1.40682e-06 7.88511e-14 0)
(-0.000182398 2.24726e-13 0)
(-0.00444475 -1.14334e-13 0)
(-0.0313662 1.41932e-13 0)
(-0.0963107 -3.706e-13 0)
(-0.171213 -2.0107e-13 0)
(-0.215091 1.18277e-13 0)
(-0.230996 -1.41932e-13 0)
(-0.299868 2.1684e-13 0)
(-0.563422 2.44438e-13 0)
(-0.362423 1.02506e-13 0)
(0.0190407 -7.88511e-15 0)
(-0.439374 1.18277e-14 0)
(-0.343043 2.44438e-13 0)
(-0.0693921 -3.94255e-14 0)
(0.0865677 -4.0214e-13 0)
(0.164743 -5.91383e-14 0)
(0.164108 2.0107e-13 0)
(0.139962 -2.60209e-13 0)
(0.0794642 -4.73106e-14 0)
(0.0259881 2.08955e-13 0)
(0.00368371 1.57702e-13 0)
(0.000151158 -7.88511e-14 0)
(1.16907e-06 -1.97128e-14 0)
(1.17348e-09 8.67362e-14 0)
(1.3109e-13 0 0)
(1.97128e-15 0 0)
(-1.97128e-15 0 0)
(0 0 0)
(0 0 0)
(0 0 0)
(0 -3.94255e-15 0)
(0 0 0)
(0 -3.94255e-15 0)
(0 -3.94255e-15 0)
(0 0 0)
(1.97128e-15 -3.94255e-15 0)
(0 0 0)
(-1.67559e-13 0 0)
(-1.40281e-09 -3.94255e-14 0)
(-1.40682e-06 4.73106e-14 0)
(-0.000182398 -8.27936e-14 0)
(-0.00444475 -1.41932e-13 0)
(-0.0313662 6.30809e-14 0)
(-0.0963107 -3.58772e-13 0)
(-0.171213 -3.11462e-13 0)
(-0.215091 -2.60209e-13 0)
(-0.230996 -2.36553e-13 0)
(-0.299868 1.37989e-13 0)
(-0.563422 -1.57702e-14 0)
(-0.362423 -2.44438e-13 0)
(0.0190407 -3.5483e-13 0)
(-0.531768 -0.620839 0)
(-0.361591 -0.756127 0)
(0.0187531 -0.177588 0)
(0.096223 0.0089776 0)
(0.163453 -0.0035969 0)
(0.16437 0.000955583 0)
(0.139998 -0.00146328 0)
(0.0795329 -0.000508575 0)
(0.0260128 -3.60372e-05 0)
(0.0036856 2.91176e-07 0)
(0.000151141 1.85353e-08 0)
(1.16711e-06 5.62248e-11 0)
(1.16779e-09 6.70234e-14 0)
(1.30104e-13 0 0)
(0 -3.94255e-15 0)
(0 0 0)
(0 0 0)
(0 0 0)
(0 0 0)
(0 0 0)
(0 0 0)
(-1.97128e-15 0 0)
(0 -3.94255e-15 0)
(1.97128e-15 0 0)
(0 0 0)
(0 -3.94255e-15 0)
(-1.56716e-13 0 0)
(-1.40282e-09 1.06449e-13 0)
(-1.40682e-06 -1.89243e-13 0)
(-0.000182398 -3.8637e-13 0)
(-0.00444475 -7.49085e-14 0)
(-0.0313662 -1.02506e-13 0)
(-0.0963107 -3.11462e-13 0)
(-0.171213 -4.10026e-13 0)
(-0.215091 -4.80992e-13 0)
(-0.230996 -1.26162e-13 0)
(-0.299868 3.94255e-15 0)
(-0.563422 -2.12898e-13 0)
(-0.362423 -3.90313e-13 0)
(0.0190407 -4.13968e-13 0)
(-0.695051 -1.53075 0)
(-0.214097 -0.83262 0)
(0.153184 -0.265864 0)
(0.137183 -0.0131778 0)
(0.162409 -0.0112345 0)
(0.164729 -0.002909 0)
(0.139536 -0.00371062 0)
(0.0798794 -0.00128711 0)
(0.0261361 -0.000138105 0)
(0.00369419 -2.12667e-06 0)
(0.000151073 2.06102e-08 0)
(1.16368e-06 7.1648e-11 0)
(1.15712e-09 7.0966e-14 0)
(1.11377e-13 0 0)
(0 0 0)
(0 0 0)
(0 0 0)
(0 0 0)
(0 0 0)
(1.97128e-15 3.94255e-15 0)
(-1.97128e-15 0 0)
(0 0 0)
(0 7.88511e-15 0)
(0 0 0)
(1.97128e-15 3.94255e-15 0)
(-1.97128e-15 0 0)
(-1.33061e-13 0 0)
(-1.40287e-09 8.27936e-14 0)
(-1.40682e-06 -1.14334e-13 0)
(-0.000182398 -1.22219e-13 0)
(-0.00444475 1.73472e-13 0)
(-0.0313662 -6.70234e-14 0)
(-0.0963107 -3.8637e-13 0)
(-0.171213 -2.40496e-13 0)
(-0.215091 -1.73472e-13 0)
(-0.230996 7.88511e-15 0)
(-0.299868 -1.37989e-13 0)
(-0.563422 -1.73472e-13 0)
(-0.362423 -3.07519e-13 0)
(0.0190407 -2.12898e-13 0)
(0.00688084 -1.10838 0)
(0.261295 -0.555705 0)
(0.377331 -0.189232 0)
(0.208585 -0.0438837 0)
(0.171101 -0.0242474 0)
(0.168674 -0.0125475 0)
(0.14155 -0.00660209 0)
(0.0813732 -0.00210897 0)
(0.0266763 -0.000277873 0)
(0.00376231 -8.86493e-06 0)
(0.000152553 -3.63443e-08 0)
(1.15815e-06 -3.64084e-12 0)
(1.13518e-09 -5.832e-14 0)
(1.08309e-13 0 0)
(0 0 0)
(0 1.1902e-15 0)
(0 0 0)
(0 0 0)
(0 0 0)
(0 -1.1902e-15 0)
(0 0 0)
(0 0 0)
(0 0 0)
(0 0 0)
(0 -1.1902e-15 0)
(0 0 0)
(-1.33303e-13 1.1902e-15 0)
(-1.40284e-09 -5.2369e-14 0)
(-1.40682e-06 7.49829e-14 0)
(-0.000182398 1.02358e-13 0)
(-0.00444475 3.4873e-13 0)
(-0.0313662 1.57107e-13 0)
(-0.0963107 -4.18952e-13 0)
(-0.171213 -7.73633e-14 0)
(-0.215091 8.68849e-14 0)
(-0.230996 1.30923e-13 0)
(-0.299868 -2.14237e-14 0)
(-0.563422 -5.71298e-14 0)
(-0.362423 -9.16458e-14 0)
(0.0190407 -5.71298e-14 0)
(0.0526106 -0.243397 0)
(0.416702 -0.233395 0)
(0.526199 -0.100395 0)
(0.25788 -0.0490774 0)
(0.187945 -0.0321807 0)
(0.179617 -0.0182939 0)
(0.148515 -0.00878552 0)
(0.0851726 -0.00273366 0)
(0.0278701 -0.000398009 0)
(0.0039254 -1.72042e-05 0)
(0.000158823 -1.40129e-07 0)
(1.20166e-06 -1.46067e-10 0)
(1.17239e-09 -1.42825e-14 0)
(1.69009e-13 0 0)
(0 0 0)
(0 -1.1902e-15 0)
(0 0 0)
(0 0 0)
(0 0 0)
(0 0 0)
(0 0 0)
(0 0 0)
(0 0 0)
(0 0 0)
(0 1.1902e-15 0)
(1.1902e-15 0 0)
(-1.83292e-13 0 0)
(-1.40281e-09 -7.14123e-15 0)
(-1.40682e-06 7.26025e-14 0)
(-0.000182398 -3.57061e-14 0)
(-0.00444475 1.38064e-13 0)
(-0.0313662 9.75968e-14 0)
(-0.0963107 -3.61822e-13 0)
(-0.171213 -5.2369e-14 0)
(-0.215091 9.8787e-14 0)
(-0.230996 1.55917e-13 0)
(-0.299868 1.34493e-13 0)
(-0.563422 4.99886e-14 0)
(-0.362423 3.80866e-14 0)
(0.0190407 2.26139e-14 0)
(0.0165189 -0.0160619 0)
(0.399097 -0.0797138 0)
(0.554947 -0.0584746 0)
(0.274319 -0.0446289 0)
(0.200765 -0.0320156 0)
(0.191219 -0.018571 0)
(0.156545 -0.00864896 0)
(0.0894557 -0.00272881 0)
(0.029294 -0.000419715 0)
(0.00414571 -1.97324e-05 0)
(0.000169131 -1.76474e-07 0)
(1.29318e-06 -2.01955e-10 0)
(1.27594e-09 5.47494e-14 0)
(1.21401e-13 0 0)
(0 0 0)
(0 0 0)
(0 0 0)
(0 0 0)
(0 0 0)
(0 0 0)
(0 0 0)
(0 0 0)
(0 0 0)
(0 0 0)
(0 -1.1902e-15 0)
(1.1902e-15 1.1902e-15 0)
(-1.42825e-13 -1.1902e-15 0)
(-1.40277e-09 -1.07118e-14 0)
(-1.40682e-06 2.73747e-14 0)
(-0.000182398 -1.38064e-13 0)
(-0.00444475 -9.52164e-15 0)
(-0.0313662 -7.85535e-14 0)
(-0.0963107 -1.35683e-13 0)
(-0.171213 1.66629e-14 0)
(-0.215091 6.42711e-14 0)
(-0.230996 6.54613e-14 0)
(-0.299868 1.58297e-13 0)
(-0.563422 1.65438e-13 0)
(-0.362423 8.45045e-14 0)
(0.0190407 5.59396e-14 0)
(-0.00872667 -0.00698823 0)
(0.375832 -0.0442576 0)
(0.560008 -0.0443226 0)
(0.283377 -0.0380563 0)
(0.213056 -0.0260754 0)
(0.202134 -0.0144854 0)
(0.163781 -0.00637812 0)
(0.0931026 -0.00192193 0)
(0.0304807 -0.000284907 0)
(0.00432968 -1.29965e-05 0)
(0.000177837 -1.13704e-07 0)
(1.37172e-06 -1.28779e-10 0)
(1.367e-09 -1.1902e-15 0)
(1.1664e-13 0 0)
(0 0 0)
(0 0 0)
(0 -1.1902e-15 0)
(0 0 0)
(0 0 0)
(0 -1.1902e-15 0)
(0 0 0)
(0 0 0)
(0 0 0)
(0 0 0)
(0 0 0)
(0 -1.1902e-15 0)
(-1.92813e-13 0 0)
(-1.40278e-09 -6.54613e-14 0)
(-1.40682e-06 -2.38041e-14 0)
(-0.000182398 -9.16458e-14 0)
(-0.00444475 1.38064e-13 0)
(-0.0313662 -1.27352e-13 0)
(-0.0963107 1.33303e-13 0)
(-0.171213 -6.30809e-14 0)
(-0.215091 3.57061e-15 0)
(-0.230996 -3.45159e-14 0)
(-0.299868 8.21241e-14 0)
(-0.563422 1.01167e-13 0)
(-0.362423 2.85649e-14 0)
(0.0190407 4.76082e-15 0)
(-0.0193952 -0.0149383 0)
(0.363121 -0.0275484 0)
(0.560922 -0.0307616 0)
(0.291902 -0.0249906 0)
(0.223478 -0.0157132 0)
(0.2102 -0.00812631 0)
(0.168651 -0.00328894 0)
(0.0953274 -0.000893902 0)
(0.0311335 -0.000117284 0)
(0.00442015 -4.70598e-06 0)
(0.000181655 -3.65642e-08 0)
(1.40275e-06 -3.74819e-11 0)
(1.40004e-09 -1.54727e-14 0)
(1.21401e-13 0 0)
(0 0 0)
(-1.1902e-15 0 0)
(0 0 0)
(1.1902e-15 0 0)
(-1.1902e-15 0 0)
(0 0 0)
(1.1902e-15 0 0)
(0 0 0)
(0 0 0)
(0 0 0)
(0 0 0)
(0 0 0)
(-2.03525e-13 0 0)
(-1.40279e-09 5.95102e-14 0)
(-1.40682e-06 2.02335e-14 0)
(-0.000182398 1.66629e-14 0)
(-0.00444475 2.15427e-13 0)
(-0.0313662 2.85649e-14 0)
(-0.0963107 2.11856e-13 0)
(-0.171213 -2.18998e-13 0)
(-0.215091 -1.78531e-14 0)
(-0.230996 -2.02335e-14 0)
(-0.299868 4.52278e-14 0)
(-0.563422 -1.07118e-14 0)
(-0.362423 -1.30923e-14 0)
(0.0190407 -2.02335e-14 0)
(-0.0208782 -0.0129372 0)
(0.360584 -0.012989 0)
(0.562472 -0.0141188 0)
(0.297878 -0.0105228 0)
(0.229307 -0.00603667 0)
(0.214106 -0.0028682 0)
(0.170751 -0.00103729 0)
(0.0961589 -0.00024104 0)
(0.0313375 -2.54981e-05 0)
(0.00444267 -7.7263e-07 0)
(0.000182372 -4.24644e-09 0)
(1.40695e-06 -2.87792e-12 0)
(1.40312e-09 -5.95102e-15 0)
(1.33303e-13 0 0)
(0 0 0)
(0 0 0)
(0 1.1902e-15 0)
(0 0 0)
(0 0 0)
(0 1.1902e-15 0)
(0 0 0)
(0 0 0)
(0 0 0)
(0 0 0)
(0 0 0)
(0 0 0)
(-1.36874e-13 0 0)
(-1.40276e-09 -1.1902e-15 0)
(-1.40682e-06 1.54727e-14 0)
(-0.000182398 -1.66629e-14 0)
(-0.00444475 -1.78531e-14 0)
(-0.0313662 1.97574e-13 0)
(-0.0963107 2.84459e-13 0)
(-0.171213 -1.1545e-13 0)
(-0.215091 5.71298e-14 0)
(-0.230996 -2.02335e-14 0)
(-0.299868 2.85649e-14 0)
(-0.563422 -1.1902e-14 0)
(-0.362423 2.85649e-14 0)
(0.0190407 1.54727e-14 0)
(-0.0194451 -0.00512906 0)
(0.361982 -0.00324059 0)
(0.563299 -0.00324101 0)
(0.299691 -0.00225905 0)
(0.230855 -0.00118006 0)
(0.215018 -0.000509073 0)
(0.171183 -0.000159501 0)
(0.0963024 -2.97611e-05 0)
(0.0313651 -2.16471e-06 0)
(0.00444472 -2.70685e-08 0)
(0.000182399 1.35931e-10 0)
(1.40684e-06 -1.31875e-12 0)
(1.40281e-09 -1.66034e-12 0)
(1.27352e-13 -1.652e-12 0)
(0 -1.67343e-12 0)
(0 -1.70675e-12 0)
(0 -1.66867e-12 0)
(0 -1.68295e-12 0)
(0 -1.7127e-12 0)
(0 -1.72461e-12 0)
(0 -1.72461e-12 0)
(0 -1.72461e-12 0)
(0 -1.6651e-12 0)
(0 -1.68652e-12 0)
(0 -1.66629e-12 0)
(0 -1.72223e-12 0)
(-2.04715e-13 -1.71866e-12 0)
(-1.40278e-09 -1.68057e-12 0)
(-1.40682e-06 -1.79959e-12 0)
(-0.000182398 -1.63534e-12 0)
(-0.00444475 -2.08524e-12 0)
(-0.0313662 -1.39849e-12 0)
(-0.0963107 -1.40444e-12 0)
(-0.171213 -1.34493e-12 0)
(-0.215091 -1.01524e-12 0)
(-0.230996 -8.24812e-13 0)
(-0.299868 -4.60609e-13 0)
(-0.563422 -2.07096e-13 0)
(-0.362423 3.57061e-14 0)
(0.0190407 7.49829e-14 0)
(-0.0190584 -0.000726951 0)
(0.362403 -0.000307409 0)
(0.563418 -0.000269389 0)
(0.299864 -0.000179376 0)
(0.230993 -8.50156e-05 0)
(0.21509 -3.28716e-05 0)
(0.171213 -8.63036e-06 0)
(0.0963106 -1.19409e-06 0)
(0.0313662 -4.68228e-08 0)
(0.00444475 -8.07431e-09 0)
(0.000182398 -9.47712e-09 0)
(1.40682e-06 -9.50013e-09 0)
(1.4028e-09 -9.5001e-09 0)
(1.21401e-13 -9.50011e-09 0)
(-5.35592e-14 -9.50012e-09 0)
(3.57061e-15 -9.50015e-09 0)
(2.26139e-14 -9.50012e-09 0)
(-4.16572e-14 -9.50012e-09 0)
(-3.92768e-14 -9.50011e-09 0)
(-1.07118e-14 -9.50012e-09 0)
(-1.1902e-15 -9.50012e-09 0)
(5.832e-14 -9.50011e-09 0)
(3.57061e-14 -9.50008e-09 0)
(-1.1902e-15 -9.5001e-09 0)
(-3.33257e-14 -9.50008e-09 0)
(-5.11788e-14 -9.5001e-09 0)
(-9.52164e-14 -9.5001e-09 0)
(-1.40284e-09 -9.50001e-09 0)
(-1.40682e-06 -9.50013e-09 0)
(-0.000182398 -9.49997e-09 0)
(-0.00444475 -9.49877e-09 0)
(-0.0313662 -9.4634e-09 0)
(-0.0963107 -9.19992e-09 0)
(-0.171213 -8.37368e-09 0)
(-0.215091 -6.9143e-09 0)
(-0.230996 -5.14967e-09 0)
(-0.299868 -3.40609e-09 0)
(-0.563422 -1.74648e-09 0)
(-0.362423 -5.801e-10 0)
(0.0190407 -1.65829e-10 0)
(-0.0190408 -2.62577e-05 0)
(0.362423 -8.34341e-06 0)
(0.563422 -7.14386e-06 0)
(0.299868 -6.20855e-06 0)
(0.230996 -5.08782e-06 0)
(0.215091 -4.9021e-06 0)
(0.171213 -5.14212e-06 0)
(0.0963107 -5.41335e-06 0)
(0.0313662 -5.52874e-06 0)
(0.00444475 -5.54631e-06 0)
(0.000182398 -5.54713e-06 0)
(1.40682e-06 -5.54714e-06 0)
(1.40283e-09 -5.54714e-06 0)
(1.04738e-13 -5.54714e-06 0)
(-4.40376e-14 -5.54714e-06 0)
(1.1902e-15 -5.54714e-06 0)
(3.33257e-14 -5.54714e-06 0)
(8.33143e-15 -5.54714e-06 0)
(-1.1902e-15 -5.54714e-06 0)
(-3.57061e-15 -5.54714e-06 0)
(1.42825e-14 -5.54714e-06 0)
(3.68963e-14 -5.54714e-06 0)
(7.14123e-15 -5.54714e-06 0)
(-1.1902e-15 -5.54714e-06 0)
(0 -5.54714e-06 0)
(-2.26139e-14 -5.54714e-06 0)
(-1.21401e-13 -5.54714e-06 0)
(-1.40281e-09 -5.54714e-06 0)
(-1.40682e-06 -5.54714e-06 0)
(-0.000182398 -5.54714e-06 0)
(-0.00444475 -5.54643e-06 0)
(-0.0313662 -5.52889e-06 0)
(-0.0963107 -5.40347e-06 0)
(-0.171213 -5.02358e-06 0)
(-0.215091 -4.35043e-06 0)
(-0.230996 -3.50222e-06 0)
(-0.299868 -2.57732e-06 0)
(-0.563422 -1.57882e-06 0)
(-0.362423 -6.88403e-07 0)
(0.0190407 -2.8946e-07 0)
(-0.0190411 -6.0226e-05 0)
(0.362422 -0.00010393 0)
(0.56342 -0.000188285 0)
(0.299866 -0.000264177 0)
(0.230994 -0.000328295 0)
(0.21509 -0.000382237 0)
(0.171212 -0.000424158 0)
(0.0963102 -0.000448282 0)
(0.0313661 -0.000456695 0)
(0.00444474 -0.000457964 0)
(0.000182397 -0.000458019 0)
(1.40682e-06 -0.000458019 0)
(1.4032e-09 -0.000458019 0)
(2.02335e-13 -0.000458019 0)
(2.38041e-14 -0.000458019 0)
(-8.33143e-14 -0.000458019 0)
(-1.44015e-13 -0.000458019 0)
(8.33143e-15 -0.000458019 0)
(2.02335e-14 -0.000458019 0)
(-7.26025e-14 -0.000458019 0)
(-5.35592e-14 -0.000458019 0)
(-3.92768e-14 -0.000458019 0)
(3.33257e-14 -0.000458019 0)
(1.22591e-13 -0.000458019 0)
(7.97437e-14 -0.000458019 0)
(6.18906e-14 -0.000458019 0)
(-1.55917e-13 -0.000458019 0)
(-1.40278e-09 -0.000458019 0)
(-1.40682e-06 -0.000458019 0)
(-0.000182397 -0.000458019 0)
(-0.00444474 -0.000457964 0)
(-0.0313661 -0.000456696 0)
(-0.0963102 -0.00044828 0)
(-0.171212 -0.000424153 0)
(-0.21509 -0.000382219 0)
(-0.230994 -0.000328257 0)
(-0.299866 -0.000264126 0)
(-0.56342 -0.000188239 0)
(-0.362422 -0.000103888 0)
(0.0190411 -6.00753e-05 0)
(-0.0190829 -0.00211835 0)
(0.3623 -0.00286697 0)
(0.563268 -0.00431281 0)
(0.299733 -0.00537872 0)
(0.230882 -0.00623613 0)
(0.214999 -0.00691196 0)
(0.17115 -0.0074406 0)
(0.0962793 -0.00775987 0)
(0.0313569 -0.00788069 0)
(0.00444348 -0.00790068 0)
(0.000182345 -0.00790162 0)
(1.40638e-06 -0.00790163 0)
(1.40197e-09 -0.00790163 0)
(3.52301e-13 -0.00790163 0)
(5.71298e-14 -0.00790163 0)
(3.68963e-14 -0.00790163 0)
(2.13047e-13 -0.00790163 0)
(1.32113e-13 -0.00790163 0)
(7.14123e-15 -0.00790163 0)
(6.18906e-14 -0.00790163 0)
(1.44015e-13 -0.00790163 0)
(2.42802e-13 -0.00790163 0)
(1.48776e-13 -0.00790163 0)
(-2.49943e-14 -0.00790163 0)
(-1.67819e-13 -0.00790163 0)
(-2.35661e-13 -0.00790163 0)
(-2.35661e-13 -0.00790163 0)
(-1.40262e-09 -0.00790163 0)
(-1.40638e-06 -0.00790163 0)
(-0.000182345 -0.00790162 0)
(-0.00444348 -0.00790068 0)
(-0.0313569 -0.00788069 0)
(-0.0962793 -0.00775987 0)
(-0.17115 -0.0074406 0)
(-0.214999 -0.00691197 0)
(-0.230882 -0.00623616 0)
(-0.299733 -0.00537876 0)
(-0.563268 -0.00431284 0)
(-0.3623 -0.00286699 0)
(0.0190829 -0.00211834 0)
(-0.0197625 -0.0193298 0)
(0.360307 -0.0220675 0)
(0.561 -0.0292483 0)
(0.298013 -0.0336316 0)
(0.229517 -0.0371141 0)
(0.213929 -0.0397733 0)
(0.170395 -0.0419342 0)
(0.0958861 -0.0433465 0)
(0.0312304 -0.0439387 0)
(0.00442456 -0.0440471 0)
(0.000181477 -0.0440527 0)
(1.39863e-06 -0.0440528 0)
(1.39343e-09 -0.0440528 0)
(-1.1902e-13 -0.0440528 0)
(-3.08263e-13 -0.0440528 0)
(-3.76105e-13 -0.0440528 0)
(-4.15381e-13 -0.0440528 0)
(-1.63058e-13 -0.0440528 0)
(1.35683e-13 -0.0440528 0)
(2.05905e-13 -0.0440528 0)
(-1.1545e-13 -0.0440528 0)
(-4.86794e-13 -0.0440528 0)
(-3.36828e-13 -0.0440528 0)
(5.2369e-14 -0.0440528 0)
(1.95194e-13 -0.0440528 0)
(2.97551e-14 -0.0440528 0)
(-2.61845e-13 -0.0440528 0)
(-1.39311e-09 -0.0440528 0)
(-1.39863e-06 -0.0440528 0)
(-0.000181477 -0.0440527 0)
(-0.00442456 -0.0440471 0)
(-0.0312304 -0.0439387 0)
(-0.0958861 -0.0433465 0)
(-0.170395 -0.0419342 0)
(-0.213929 -0.0397733 0)
(-0.229517 -0.0371141 0)
(-0.298013 -0.0336316 0)
(-0.561 -0.0292483 0)
(-0.360307 -0.0220675 0)
(0.0197625 -0.0193298 0)
(-0.0217211 -0.0697251 0)
(0.352742 -0.0712223 0)
(0.552124 -0.0876989 0)
(0.292154 -0.0957636 0)
(0.224964 -0.102105 0)
(0.210354 -0.107034 0)
(0.167706 -0.11133 0)
(0.0943477 -0.114456 0)
(0.0306817 -0.115928 0)
(0.00433362 -0.116225 0)
(0.00017691 -0.116242 0)
(1.35497e-06 -0.116242 0)
(1.34006e-09 -0.116242 0)
(6.04624e-13 -0.116242 0)
(3.92768e-14 -0.116242 0)
(-1.07118e-13 -0.116242 0)
(2.02335e-13 -0.116242 0)
(4.13001e-13 -0.116242 0)
(2.76128e-13 -0.116242 0)
(4.52278e-14 -0.116242 0)
(-7.26025e-14 -0.116242 0)
(-1.53536e-13 -0.116242 0)
(-1.7258e-13 -0.116242 0)
(9.99772e-14 -0.116242 0)
(2.53514e-13 -0.116242 0)
(1.58297e-13 -0.116242 0)
(1.42825e-14 -0.116242 0)
(-1.3395e-09 -0.116242 0)
(-1.35497e-06 -0.116242 0)
(-0.00017691 -0.116242 0)
(-0.00433362 -0.116225 0)
(-0.0306817 -0.115928 0)
(-0.0943477 -0.114456 0)
(-0.167706 -0.11133 0)
(-0.210354 -0.107034 0)
(-0.224964 -0.102105 0)
(-0.292154 -0.0957636 0)
(-0.552124 -0.0876989 0)
(-0.352742 -0.0712223 0)
(0.0217211 -0.0697251 0)
(-0.0212053 -0.135028 0)
(0.342987 -0.128953 0)
(0.537351 -0.153638 0)
(0.28413 -0.162583 0)
(0.218657 -0.169245 0)
(0.20504 -0.174837 0)
(0.163243 -0.180313 0)
(0.0914552 -0.184865 0)
(0.0295255 -0.187279 0)
(0.00412249 -0.187808 0)
(0.000165512 -0.187839 0)
(1.2409e-06 -0.187839 0)
(1.19619e-09 -0.187839 0)
(0 -0.187839 0)
(-9.64066e-14 -0.187839 0)
(-1.54727e-14 -0.187839 0)
(2.61845e-14 -0.187839 0)
(-6.07004e-14 -0.187839 0)
(-6.54613e-14 -0.187839 0)
(1.30923e-14 -0.187839 0)
(4.0467e-14 -0.187839 0)
(-4.6418e-14 -0.187839 0)
(-1.07118e-13 -0.187839 0)
(-8.21241e-14 -0.187839 0)
(-7.49829e-14 -0.187839 0)
(-5.832e-14 -0.187839 0)
(-1.35683e-13 -0.187839 0)
(-1.1963e-09 -0.187839 0)
(-1.2409e-06 -0.187839 0)
(-0.000165512 -0.187839 0)
(-0.00412249 -0.187808 0)
(-0.0295255 -0.187279 0)
(-0.0914552 -0.184865 0)
(-0.163243 -0.180313 0)
(-0.20504 -0.174837 0)
(-0.218657 -0.169245 0)
(-0.28413 -0.162583 0)
(-0.537351 -0.153638 0)
(-0.342987 -0.128953 0)
(0.0212053 -0.135028 0)
(-0.0158672 -0.17507 0)
(0.334808 -0.15866 0)
(0.519718 -0.189665 0)
(0.277114 -0.199221 0)
(0.213155 -0.203894 0)
(0.199688 -0.209011 0)
(0.158043 -0.214591 0)
(0.087635 -0.219929 0)
(0.0278457 -0.223044 0)
(0.00379471 -0.22376 0)
(0.000147172 -0.223802 0)
(1.05579e-06 -0.223803 0)
(9.66358e-10 -0.223803 0)
(-2.97551e-14 -0.223803 0)
(-7.97437e-14 -0.223803 0)
(-2.38041e-15 -0.223803 0)
(-2.85649e-14 -0.223803 0)
(-7.14123e-14 -0.223803 0)
(-6.07004e-14 -0.223803 0)
(1.1902e-15 -0.223803 0)
(2.85649e-14 -0.223803 0)
(3.92768e-14 -0.223803 0)
(1.1902e-15 -0.223803 0)
(-7.61731e-14 -0.223803 0)
(-4.52278e-14 -0.223803 0)
(4.76082e-14 -0.223803 0)
(1.1902e-15 -0.223803 0)
(-9.66189e-10 -0.223803 0)
(-1.05579e-06 -0.223803 0)
(-0.000147172 -0.223802 0)
(-0.00379471 -0.22376 0)
(-0.0278457 -0.223044 0)
(-0.087635 -0.219929 0)
(-0.158043 -0.214591 0)
(-0.199688 -0.209011 0)
(-0.213155 -0.203894 0)
(-0.277114 -0.199221 0)
(-0.519718 -0.189665 0)
(-0.334808 -0.15866 0)
(0.0158672 -0.17507 0)
(-0.00539224 -0.16566 0)
(0.328923 -0.162479 0)
(0.498266 -0.198524 0)
(0.270419 -0.20844 0)
(0.209222 -0.212537 0)
(0.194732 -0.216697 0)
(0.152722 -0.22253 0)
(0.0833096 -0.228881 0)
(0.0258333 -0.232769 0)
(0.00339181 -0.233651 0)
(0.000124732 -0.2337 0)
(8.35888e-07 -0.233701 0)
(7.05776e-10 -0.233701 0)
(6.07004e-14 -0.233701 0)
(-3.57061e-15 -0.233701 0)
(2.73747e-14 -0.233701 0)
(2.38041e-14 -0.233701 0)
(-2.38041e-14 -0.233701 0)
(-4.87984e-14 -0.233701 0)
(0 -0.233701 0)
(1.10689e-13 -0.233701 0)
(1.53536e-13 -0.233701 0)
(5.59396e-14 -0.233701 0)
(-1.03548e-13 -0.233701 0)
(-1.1426e-13 -0.233701 0)
(-1.66629e-14 -0.233701 0)
(-7.85535e-14 -0.233701 0)
(-7.05758e-10 -0.233701 0)
(-8.35888e-07 -0.233701 0)
(-0.000124732 -0.2337 0)
(-0.00339181 -0.233651 0)
(-0.0258333 -0.232769 0)
(-0.0833096 -0.228881 0)
(-0.152722 -0.22253 0)
(-0.194732 -0.216697 0)
(-0.209222 -0.212537 0)
(-0.270419 -0.20844 0)
(-0.498266 -0.198524 0)
(-0.328923 -0.162479 0)
(0.00539224 -0.16566 0)
(-0.0128021 -0.196131 0)
(0.303139 -0.196474 0)
(0.475428 -0.244005 0)
(0.263611 -0.267081 0)
(0.205198 -0.274189 0)
(0.190058 -0.281046 0)
(0.146302 -0.288491 0)
(0.0777689 -0.296622 0)
(0.0232492 -0.301626 0)
(0.0028968 -0.302727 0)
(9.91387e-05 -0.302785 0)
(6.06995e-07 -0.302785 0)
(4.60716e-10 -0.302785 0)
(1.41634e-13 -0.302785 0)
(-2.38041e-14 -0.302785 0)
(-1.28542e-13 -0.302785 0)
(-4.28474e-14 -0.302785 0)
(1.30923e-14 -0.302785 0)
(-2.38041e-14 -0.302785 0)
(-9.52164e-15 -0.302785 0)
(1.02358e-13 -0.302785 0)
(1.7615e-13 -0.302785 0)
(7.14123e-14 -0.302785 0)
(1.1902e-15 -0.302785 0)
(-4.76082e-14 -0.302785 0)
(-1.1783e-13 -0.302785 0)
(-1.45205e-13 -0.302785 0)
(-4.60609e-10 -0.302785 0)
(-6.06995e-07 -0.302785 0)
(-9.91387e-05 -0.302785 0)
(-0.0028968 -0.302727 0)
(-0.0232492 -0.301626 0)
(-0.0777689 -0.296622 0)
(-0.146302 -0.288491 0)
(-0.190058 -0.281046 0)
(-0.205198 -0.274189 0)
(-0.263611 -0.267081 0)
(-0.475428 -0.244005 0)
(-0.303139 -0.196474 0)
(0.0128021 -0.196131 0)
(-0.00572274 -0.375937 0)
(0.28279 -0.3849 0)
(0.430226 -0.449126 0)
(0.241332 -0.497944 0)
(0.195765 -0.522783 0)
(0.18095 -0.545331 0)
(0.137712 -0.563626 0)
(0.0706515 -0.578069 0)
(0.01995 -0.585392 0)
(0.00227542 -0.586796 0)
(6.87901e-05 -0.58686 0)
(3.60898e-07 -0.58686 0)
(2.29372e-10 -0.58686 0)
(9.2836e-14 -0.58686 0)
(-1.1545e-13 -0.58686 0)
(-1.92813e-13 -0.58686 0)
(-5.35592e-14 -0.58686 0)
(2.38041e-14 -0.58686 0)
(2.73747e-14 -0.58686 0)
(4.16572e-14 -0.58686 0)
(1.04738e-13 -0.58686 0)
(1.63058e-13 -0.58686 0)
(7.73633e-14 -0.58686 0)
(3.09453e-14 -0.58686 0)
(-5.2369e-14 -0.58686 0)
(-1.60678e-13 -0.58686 0)
(-1.27352e-13 -0.58686 0)
(-2.29206e-10 -0.58686 0)
(-3.60898e-07 -0.58686 0)
(-6.87901e-05 -0.58686 0)
(-0.00227542 -0.586796 0)
(-0.01995 -0.585392 0)
(-0.0706515 -0.578069 0)
(-0.137712 -0.563626 0)
(-0.18095 -0.545331 0)
(-0.195765 -0.522783 0)
(-0.241332 -0.497944 0)
(-0.430226 -0.449126 0)
(-0.28279 -0.3849 0)
(0.00572274 -0.375937 0)
(-0.021439 -0.215738 0)
(0.232611 -0.249841 0)
(0.366494 -0.305384 0)
(0.192633 -0.327556 0)
(0.159534 -0.354513 0)
(0.150701 -0.361565 0)
(0.114755 -0.370704 0)
(0.0567937 -0.381077 0)
(0.0148398 -0.387521 0)
(0.00148287 -0.388757 0)
(3.70905e-05 -0.388807 0)
(1.53753e-07 -0.388807 0)
(7.46461e-11 -0.388807 0)
(3.15404e-14 -0.388807 0)
(-7.73633e-15 -0.388807 0)
(-1.10689e-13 -0.388807 0)
(-1.70794e-13 -0.388807 0)
(-7.91486e-14 -0.388807 0)
(-1.1902e-14 -0.388807 0)
(9.52164e-15 -0.388807 0)
(8.92654e-14 -0.388807 0)
(1.55322e-13 -0.388807 0)
(9.93821e-14 -0.388807 0)
(-2.916e-14 -0.388807 0)
(-5.59396e-14 -0.388807 0)
(-5.29641e-14 -0.388807 0)
(-3.63012e-14 -0.388807 0)
(-7.45003e-11 -0.388807 0)
(-1.53753e-07 -0.388807 0)
(-3.70905e-05 -0.388807 0)
(-0.00148287 -0.388757 0)
(-0.0148398 -0.387521 0)
(-0.0567937 -0.381077 0)
(-0.114755 -0.370704 0)
(-0.150701 -0.361565 0)
(-0.159534 -0.354513 0)
(-0.192633 -0.327556 0)
(-0.366494 -0.305384 0)
(-0.232611 -0.249841 0)
(0.021439 -0.215738 0)
(-0.0385857 0.0372315 0)
(0.196404 0.0194377 0)
(0.355338 -0.000341909 0)
(0.19399 0.00786052 0)
(0.162993 0.00106636 0)
(0.165347 0.0114494 0)
(0.118909 0.0162656 0)
(0.0544462 0.0157605 0)
(0.0125496 0.0138295 0)
(0.00103624 0.0133838 0)
(1.98383e-05 0.013366 0)
(5.85638e-08 0.0133659 0)
(1.90409e-11 0.0133659 0)
(7.73633e-14 0.0133659 0)
(3.98719e-14 0.0133659 0)
(-1.30923e-13 0.0133659 0)
(-1.89243e-13 0.0133659 0)
(-1.10094e-13 0.0133659 0)
(-4.87984e-14 0.0133659 0)
(4.0467e-14 0.0133659 0)
(1.29137e-13 0.0133659 0)
(1.26757e-13 0.0133659 0)
(4.52278e-14 0.0133659 0)
(-2.73747e-14 0.0133659 0)
(-3.45159e-14 0.0133659 0)
(-5.95102e-15 0.0133659 0)
(1.54727e-14 0.0133659 0)
(-1.88999e-11 0.0133659 0)
(-5.85642e-08 0.0133659 0)
(-1.98383e-05 0.013366 0)
(-0.00103624 0.0133838 0)
(-0.0125496 0.0138295 0)
(-0.0544462 0.0157605 0)
(-0.118909 0.0162656 0)
(-0.165347 0.0114494 0)
(-0.162993 0.00106636 0)
(-0.19399 0.00786052 0)
(-0.355338 -0.000341909 0)
(-0.196404 0.0194377 0)
(0.0385857 0.0372315 0)
(-0.0385857 -0.0372315 0)
(0.196404 -0.0194377 0)
(0.355338 0.000341909 0)
(0.19399 -0.00786052 0)
(0.162993 -0.00106636 0)
(0.165347 -0.0114494 0)
(0.118909 -0.0162656 0)
(0.0544462 -0.0157605 0)
(0.0125496 -0.0138295 0)
(0.00103624 -0.0133838 0)
(1.98383e-05 -0.013366 0)
(5.85639e-08 -0.0133659 0)
(1.88868e-11 -0.0133659 0)
(-1.90433e-14 -0.0133659 0)
(-4.16572e-15 -0.0133659 0)
(-1.24972e-14 -0.0133659 0)
(-5.35592e-15 -0.0133659 0)
(6.54613e-15 -0.0133659 0)
(1.84482e-14 -0.0133659 0)
(8.92654e-15 -0.0133659 0)
(2.916e-14 -0.0133659 0)
(3.03502e-14 -0.0133659 0)
(8.33143e-15 -0.0133659 0)
(-1.48776e-14 -0.0133659 0)
(-3.5111e-14 -0.0133659 0)
(-5.11788e-14 -0.0133659 0)
(8.92654e-15 -0.0133659 0)
(-1.89671e-11 -0.0133659 0)
(-5.8564e-08 -0.0133659 0)
(-1.98383e-05 -0.013366 0)
(-0.00103624 -0.0133838 0)
(-0.0125496 -0.0138295 0)
(-0.0544462 -0.0157605 0)
(-0.118909 -0.0162656 0)
(-0.165347 -0.0114494 0)
(-0.162993 -0.00106636 0)
(-0.19399 -0.00786052 0)
(-0.355338 0.000341909 0)
(-0.196404 -0.0194377 0)
(0.0385857 -0.0372315 0)
(-0.021439 0.215738 0)
(0.232611 0.249841 0)
(0.366494 0.305384 0)
(0.192633 0.327556 0)
(0.159534 0.354513 0)
(0.150701 0.361565 0)
(0.114755 0.370704 0)
(0.0567937 0.381077 0)
(0.0148398 0.387521 0)
(0.00148287 0.388757 0)
(3.70905e-05 0.388807 0)
(1.53753e-07 0.388807 0)
(7.45211e-11 0.388807 0)
(-2.97551e-15 0.388807 0)
(4.0467e-14 0.388807 0)
(4.52278e-14 0.388807 0)
(-1.07118e-14 0.388807 0)
(-8.92654e-15 0.388807 0)
(-2.97551e-15 0.388807 0)
(1.01167e-14 0.388807 0)
(4.46327e-14 0.388807 0)
(6.60564e-14 0.388807 0)
(1.54727e-14 0.388807 0)
(-3.86817e-14 0.388807 0)
(-6.60564e-14 0.388807 0)
(-8.80752e-14 0.388807 0)
(-2.85649e-14 0.388807 0)
(-7.45634e-11 0.388807 0)
(-1.53753e-07 0.388807 0)
(-3.70905e-05 0.388807 0)
(-0.00148287 0.388757 0)
(-0.0148398 0.387521 0)
(-0.0567937 0.381077 0)
(-0.114755 0.370704 0)
(-0.150701 0.361565 0)
(-0.159534 0.354513 0)
(-0.192633 0.327556 0)
(-0.366494 0.305384 0)