/*--------------------------------*- C++ -*----------------------------------*\
| =========                 |                                                 |
| \\      /  F ield         | OpenFOAM: The Open Source CFD Toolbox           |
|  \\    /   O peration     | Version:  v1912                                 |
|   \\  /    A nd           | Website:  www.openfoam.com                      |
|    \\/     M anipulation  |                                                 |
\*---------------------------------------------------------------------------*/
FoamFile
{
    version     2.0;
    format      ascii;
    class       volTensorField;
    location    "8.64";
    object      grad(U);
}
// * * * * * * * * * * * * * * * * * * * * * * * * * * * * * * * * * * * * * //

dimensions      [0 0 -1 0 0 0 0];


internalField   nonuniform List<tensor> 
1900
(
(0.723132 -1.8694e-05 0 4.99928e-06 -1.20612e-05 0 0 0 0)
(0.490144 -1.08416e-05 0 1.64849e-05 -1.32509e-05 0 0 0 0)
(-0.0864565 -2.56135e-05 0 1.20475e-05 -1.79555e-05 0 0 0 0)
(0.00203323 -9.11087e-05 0 -9.48296e-05 -6.8214e-05 0 0 0 0)
(-0.00660666 -0.000263138 0 -0.000210193 -0.000286233 0 0 0 0)
(-0.0178735 -0.000327676 0 -0.000395975 -0.000783602 0 0 0 0)
(-0.0268704 -0.00013584 0 -0.000505716 -0.000913563 0 0 0 0)
(-0.0315187 0.0198531 0 -0.00106242 1.4759e-05 0 0 0 0)
(-0.0807765 0.061701 0 0.00239381 0.0318172 0 0 0 0)
(-0.0418695 0.206879 0 0.0657417 0.11709 0 0 0 0)
(0.723153 -6.61805e-06 0 9.31923e-06 6.97168e-06 0 0 0 0)
(0.490151 4.94734e-06 0 2.83759e-05 1.17224e-05 0 0 0 0)
(-0.0865678 -2.93496e-05 0 1.06329e-05 1.78133e-05 0 0 0 0)
(0.00181099 -0.000177169 0 -0.000190398 3.73358e-05 0 0 0 0)
(-0.00690781 -0.00045225 0 -0.000384337 0.000108922 0 0 0 0)
(-0.018169 -0.000299654 0 -0.000785842 0.000300474 0 0 0 0)
(-0.0275369 0.000934201 0 -0.00102646 0.000436598 0 0 0 0)
(-0.0286192 0.0128776 0 -0.000193646 0.000436314 0 0 0 0)
(-0.0139724 0.055374 0 0.0107478 -0.0194165 0 0 0 0)
(0.0845488 0.141733 0 0.102989 -0.0612646 0 0 0 0)
(0.723169 -1.92773e-13 0 -1.78046e-13 1.0179e-05 0 0 0 0)
(0.490145 -1.90494e-14 0 -8.83625e-14 3.05713e-06 0 0 0 0)
(-0.0866753 4.56806e-14 0 -3.40168e-14 2.84292e-07 0 0 0 0)
(0.00163826 5.78591e-14 0 -4.29615e-14 6.17564e-05 0 0 0 0)
(-0.00720211 8.95058e-14 0 -2.04643e-13 0.000354622 0 0 0 0)
(-0.0185156 5.37331e-14 0 1.94072e-13 0.000966257 0 0 0 0)
(-0.0262782 1.44263e-14 0 -1.13841e-14 0.000953931 0 0 0 0)
(-0.0197445 -2.09244e-14 0 -3.03577e-14 -0.000902145 0 0 0 0)
(0.0224057 -8.4281e-14 0 2.15485e-14 -0.0248013 0 0 0 0)
(0.130078 -5.91597e-14 0 4.83825e-14 -0.11165 0 0 0 0)
(0.723153 6.61805e-06 0 -9.31923e-06 6.97168e-06 0 0 0 0)
(0.490151 -4.94734e-06 0 -2.83759e-05 1.17224e-05 0 0 0 0)
(-0.0865678 2.93496e-05 0 -1.06329e-05 1.78133e-05 0 0 0 0)
(0.00181099 0.000177169 0 0.000190398 3.73358e-05 0 0 0 0)
(-0.00690781 0.00045225 0 0.000384337 0.000108922 0 0 0 0)
(-0.018169 0.000299654 0 0.000785842 0.000300474 0 0 0 0)
(-0.0275369 -0.000934201 0 0.00102646 0.000436598 0 0 0 0)
(-0.0286192 -0.0128776 0 0.000193646 0.000436314 0 0 0 0)
(-0.0139724 -0.055374 0 -0.0107478 -0.0194165 0 0 0 0)
(0.0845488 -0.141733 0 -0.102989 -0.0612646 0 0 0 0)
(0.723132 1.8694e-05 0 -4.99928e-06 -1.20612e-05 0 0 0 0)
(0.490144 1.08416e-05 0 -1.64849e-05 -1.32509e-05 0 0 0 0)
(-0.0864565 2.56135e-05 0 -1.20475e-05 -1.79555e-05 0 0 0 0)
(0.00203323 9.11087e-05 0 9.48296e-05 -6.8214e-05 0 0 0 0)
(-0.00660666 0.000263138 0 0.000210193 -0.000286233 0 0 0 0)
(-0.0178735 0.000327676 0 0.000395975 -0.000783602 0 0 0 0)
(-0.0268704 0.00013584 0 0.000505716 -0.000913563 0 0 0 0)
(-0.0315187 -0.0198531 0 0.00106242 1.4759e-05 0 0 0 0)
(-0.0807765 -0.061701 0 -0.00239381 0.0318172 0 0 0 0)
(-0.0418695 -0.206879 0 -0.0657417 0.11709 0 0 0 0)
(0.173469 0.433796 -2.18059e-17 0.246381 -0.244313 3.27089e-17 5.87953e-17 7.6111e-17 -5.91051e-33)
(0.513457 0.579667 0 0.280308 -0.46439 0 -1.60789e-16 -4.83508e-17 0)
(0.800126 0.971196 0 0.27398 -0.790102 0 -2.61374e-16 -8.63607e-17 0)
(1.49368 1.57874 0 0.326916 -1.43396 0 0 0 0)
(2.81109 1.8314 2.672e-16 1.13036 -3.49773 -4.008e-16 -2.2845e-15 -1.523e-15 -7.24246e-32)
(0.223982 0.162429 0 0.180501 -0.208537 0 1.03316e-16 3.19635e-17 0)
(0.411885 0.179788 0 0.133738 -0.347623 0 1.60789e-16 4.83508e-17 0)
(0.75669 0.425241 0 0.0407676 -0.637845 0 2.61374e-16 8.63607e-17 0)
(1.69096 0.868536 0 -0.0729762 -1.34025 0 0 0 0)
(3.71354 0.577354 0 -0.176109 -3.10515 0 0 0 0)
(0.272535 -1.47026e-13 0 8.32302e-14 -0.290472 0 0 0 0)
(0.430119 8.98208e-14 0 1.37606e-13 -0.375053 0 0 0 0)
(0.745909 7.79564e-14 0 3.62907e-13 -0.635999 0 0 0 0)
(1.60024 -9.03983e-14 0 1.98154e-13 -1.36742 0 0 0 0)
(3.47717 1.5556e-13 0 3.85602e-13 -3.65091 0 0 0 0)
(0.223982 -0.162429 0 -0.180501 -0.208537 0 1.03316e-16 -3.19635e-17 0)
(0.411885 -0.179788 0 -0.133738 -0.347623 0 1.60789e-16 -4.83508e-17 0)
(0.75669 -0.425241 0 -0.0407676 -0.637845 0 2.61374e-16 -8.63607e-17 0)
(1.69096 -0.868536 0 0.0729762 -1.34025 0 0 0 0)
(3.71354 -0.577354 0 0.176109 -3.10515 0 0 0 0)
(0.173469 -0.433796 2.18059e-17 -0.246381 -0.244313 3.27089e-17 -2.65428e-16 1.40038e-16 -5.91051e-33)
(0.513457 -0.579667 0 -0.280308 -0.46439 0 -1.60789e-16 4.83508e-17 0)
(0.800126 -0.971196 0 -0.27398 -0.790102 0 -2.61374e-16 8.63607e-17 0)
(1.49368 -1.57874 9.36534e-17 -0.326916 -1.43396 1.4048e-16 -9.37271e-16 6.24848e-16 -2.53848e-32)
(2.81109 -1.8314 -2.672e-16 -1.13036 -3.49773 -4.008e-16 2.2845e-15 -1.523e-15 -7.24246e-32)
(4.25188 -0.787259 -1.86415e-17 0.0187869 4.48632 -1.67773e-16 2.28426e-15 -1.18631e-16 5.05279e-33)
(2.35543 -0.308797 9.07255e-18 0.543637 2.78067 8.1653e-17 -2.57136e-15 2.00143e-16 2.45912e-33)
(1.38955 -0.00242268 0 0.737271 2.28929 0 0 0 0)
(1.06086 0.0820281 -5.29269e-18 0.66453 2.10731 -4.76342e-17 2.40722e-15 -2.0178e-16 1.43459e-33)
(0.666288 0.547831 4.73529e-18 0.550356 1.7507 4.26176e-17 -1.14391e-15 1.27101e-16 1.2835e-33)
(4.37019 -0.953307 0 -0.686824 -0.679046 0 -1.14241e-15 -8.24116e-18 0)
(2.64029 -0.201779 0 0.320177 1.00095 0 1.29387e-15 -5.81992e-17 0)
(1.4748 -0.0143261 0 0.449578 1.38909 0 0 0 0)
(1.02785 -0.0685315 0 0.361842 1.41098 0 -1.51974e-15 7.58231e-17 0)
(0.522386 0.246121 0 0.246807 1.4026 0 2.91979e-16 -8.0335e-18 0)
(4.37501 4.99945e-14 0 3.44973e-13 0.810812 0 0 0 0)
(2.61664 -1.56918e-14 0 1.85334e-13 1.86301 0 0 0 0)
(1.36869 -3.03755e-14 0 -1.60623e-14 1.99012 0 0 0 0)
(0.9567 5.13479e-14 0 -7.08629e-15 1.77066 0 6.12257e-16 2.92721e-31 0)
(0.516138 -3.70029e-14 0 -6.9744e-14 2.13396 0 -5.83958e-16 -2.11864e-30 0)
(4.37019 0.953307 0 0.686824 -0.679046 0 -1.14241e-15 8.24116e-18 0)
(2.64029 0.201779 0 -0.320177 1.00095 0 1.29387e-15 5.81992e-17 0)
(1.4748 0.0143261 0 -0.449578 1.38909 0 0 0 0)
(1.02785 0.0685315 0 -0.361842 1.41098 0 -1.51974e-15 -7.58231e-17 0)
(0.522386 -0.246121 0 -0.246807 1.4026 0 2.91979e-16 8.0335e-18 0)
(4.25188 0.787259 0 -0.0187869 4.48632 0 1.14241e-15 -8.24116e-18 0)
(2.35543 0.308797 -9.07255e-18 -0.543637 2.78067 8.1653e-17 -1.63726e-17 8.37446e-17 2.45912e-33)
(1.38955 0.00242268 0 -0.737271 2.28929 0 0 0 0)
(1.06086 -0.0820281 5.29269e-18 -0.66453 2.10731 -4.76342e-17 2.00135e-17 -6.34652e-17 1.43459e-33)
(0.666288 -0.547831 -4.73529e-18 -0.550356 1.7507 4.26176e-17 1.14391e-15 1.27101e-16 1.2835e-33)
(0.176855 0.640775 0 -0.490793 -0.554145 0 0 0 0)
(0.119436 0.11559 0 -0.941503 -0.288859 0 0 0 0)
(0.0994125 -0.222095 0 -1.16369 0.102538 0 0 0 0)
(0.0961016 -0.135569 0 -0.943336 0.049029 0 0 0 0)
(0.0953129 -0.0257295 0 -0.868992 0.0758163 0 0 0 0)
(0.10905 0.00969247 0 -0.759443 0.0766878 0 0 0 0)
(0.122258 0.00757586 0 -0.601609 0.129507 0 0 0 0)
(0.12509 0.0359378 0 -0.453647 0.211714 0 0 0 0)
(0.161804 0.0350867 0 -0.346848 0.191048 0 0 0 0)
(0.243385 -0.0160449 0 -0.202051 0.213897 0 0 0 0)
(0.101496 0.00902875 0 -0.117731 0.285991 0 0 0 0)
(-0.21672 0.0235669 0 -0.0721741 0.132454 0 0 0 0)
(-0.866469 0.00454955 0 -0.16046 0.0618516 0 0 0 0)
(-1.29204 -0.00930739 0 -0.365985 0.0399539 0 0 0 0)
(-0.659335 -0.000978531 0 -0.092482 0.0879498 0 0 0 0)
(-0.0699648 0.00616536 0 -0.0485883 0.0742507 0 0 0 0)
(-0.0319946 -0.0355469 0 0.0825312 0.0987082 0 0 0 0)
(-0.127531 -0.0646556 0 0.194364 0.240976 0 0 0 0)
(-0.31268 -0.104445 0 0.295734 0.405146 0 0 0 0)
(-0.462969 -0.10559 0 0.297038 0.535767 0 0 0 0)
(-0.516887 -0.023537 0 0.104918 0.612751 0 0 0 0)
(-0.507607 0.0369379 0 -0.0981997 0.5871 0 0 0 0)
(-0.492287 0.0372396 0 -0.127259 0.52767 0 0 0 0)
(-0.501899 0.0346001 0 -0.053336 0.470167 0 0 0 0)
(-0.604086 0.044163 0 0.0270933 0.390028 0 0 0 0)
(-1.03998 0.0495988 0 0.0878474 0.29452 0 0 0 0)
(-1.69567 0.0565117 0 0.130936 0.234647 0 0 0 0)
(-1.87276 0.0345192 0 0.0523018 0.134551 0 0 0 0)
(-1.58745 0.00423722 0 0.00847614 0.118371 0 0 0 0)
(-0.958837 0.000340904 0 0.00057355 0.117383 0 0 0 0)
(-0.354117 0.00098297 0 0.00520134 0.117156 0 0 0 0)
(-0.190644 0.000620146 0 0.00739203 0.115093 0 0 0 0)
(-0.141335 -0.00102804 0 0.00968199 0.115895 0 0 0 0)
(-0.108683 -0.00290102 0 0.0113477 0.118378 0 0 0 0)
(-0.0799971 -0.0057744 0 0.0096309 0.123347 0 0 0 0)
(-0.0685773 -0.00835564 0 0.000133792 0.132446 0 0 0 0)
(-0.0717533 -0.0041889 0 -0.0200057 0.144847 0 0 0 0)
(-0.0614766 0.00410828 0 -0.0398172 0.144258 0 0 0 0)
(-0.0449869 0.0107751 0 -0.0480728 0.134877 0 0 0 0)
(-0.0205556 0.00707535 0 -0.0480486 0.111952 0 0 0 0)
(-0.0716353 0.483963 0 0.0470919 0.171026 0 0 0 0)
(-0.0922071 0.189834 0 -0.415283 -0.617884 0 0 0 0)
(0.0776513 -0.093158 0 -0.889707 -0.226313 0 0 0 0)
(0.153873 -0.165765 0 -0.634322 0.145567 0 0 0 0)
(0.125454 -0.117675 0 -0.620593 0.239707 0 0 0 0)
(0.149401 -0.0686818 0 -0.522036 0.234013 0 0 0 0)
(0.16584 -0.0220927 0 -0.386188 0.206389 0 0 0 0)
(0.156379 0.0181603 0 -0.305532 0.207971 0 0 0 0)
(0.194889 0.0219348 0 -0.24756 0.0828529 0 0 0 0)
(0.268571 -0.00286074 0 -0.160131 0.08736 0 0 0 0)
(0.120963 0.0233241 0 -0.148727 0.138007 0 0 0 0)
(-0.216111 0.0248114 0 -0.0834581 0.0563237 0 0 0 0)
(-0.920298 0.0084264 0 -0.153141 0.0569959 0 0 0 0)
(-1.27432 0.018505 0 -0.331525 0.0406846 0 0 0 0)
(-0.596703 0.0221838 0 -0.0597973 0.0889901 0 0 0 0)
(-0.0453305 0.0157594 0 -0.0294696 0.0440483 0 0 0 0)
(0.0163764 0.00251127 0 0.0583655 0.0677967 0 0 0 0)
(-0.0608088 -0.025531 0 0.182913 0.166241 0 0 0 0)
(-0.271973 -0.0645067 0 0.31265 0.29005 0 0 0 0)
(-0.505475 -0.051453 0 0.267249 0.52527 0 0 0 0)
(-0.606957 0.000815062 0 0.109152 0.653017 0 0 0 0)
(-0.556558 0.024897 0 0.0398335 0.606179 0 0 0 0)
(-0.475109 0.0215526 0 0.0475205 0.526043 0 0 0 0)
(-0.460718 0.0105938 0 0.12352 0.478167 0 0 0 0)
(-0.587213 0.00508544 0 0.203362 0.407105 0 0 0 0)
(-1.04833 0.025423 0 0.136707 0.326357 0 0 0 0)
(-1.71334 0.0385313 0 0.0454757 0.236609 0 0 0 0)
(-1.89067 0.0163154 0 0.00965324 0.132098 0 0 0 0)
(-1.59375 0.000667218 0 0.00218931 0.117949 0 0 0 0)
(-0.958336 5.45317e-05 0 0.0017935 0.117533 0 0 0 0)
(-0.35231 0.000587723 0 0.00586654 0.116777 0 0 0 0)
(-0.188979 0.000267842 0 0.0104268 0.114154 0 0 0 0)
(-0.13992 -0.0006164 0 0.0153001 0.114646 0 0 0 0)
(-0.108446 -0.00156167 0 0.0190684 0.117687 0 0 0 0)
(-0.0823233 -0.00295819 0 0.0197017 0.124618 0 0 0 0)
(-0.0744812 -0.00420726 0 0.0147798 0.137537 0 0 0 0)
(-0.0789715 -0.00214358 0 0.00297665 0.15334 0 0 0 0)
(-0.0658911 0.00206265 0 -0.00862972 0.151936 0 0 0 0)
(-0.045859 0.0054708 0 -0.0142459 0.139218 0 0 0 0)
(-0.0203251 0.00356882 0 -0.016501 0.114897 0 0 0 0)
(-0.0240046 -9.43282e-14 0 -3.15404e-13 0.323197 0 0 0 0)
(-0.153087 -1.45818e-13 0 -8.12166e-13 -0.929791 0 0 0 0)
(0.0356921 -1.51319e-13 0 -1.00141e-12 -0.981914 0 0 0 0)
(0.174389 -1.15218e-15 0 -6.78119e-13 -0.289329 0 0 0 0)
(0.127978 7.09901e-14 0 -5.59843e-13 0.157719 0 0 0 0)
(0.17724 8.59354e-14 0 -5.04647e-13 0.519684 0 0 0 0)
(0.185241 -1.41998e-14 0 -6.22923e-13 0.629906 0 0 0 0)
(0.165419 -3.43935e-14 0 -6.78119e-13 0.671571 0 0 0 0)
(0.204102 -1.31727e-14 0 -3.07519e-13 0.505054 0 0 0 0)
(0.272136 -5.75309e-14 0 -2.99634e-13 0.520769 0 0 0 0)
(0.123801 1.49021e-13 0 -1.65587e-13 0.524721 0 0 0 0)
(-0.218004 3.1395e-13 0 4.73106e-14 0.360416 0 0 0 0)
(-0.938634 3.75173e-13 0 2.20783e-13 0.354143 0 0 0 0)
(-1.26489 -1.92362e-13 0 8.12166e-13 0.302485 0 0 0 0)
(-0.571464 -5.10268e-13 0 3.74543e-13 0.226921 0 0 0 0)
(-0.0355902 -3.61394e-13 0 3.706e-13 0.149971 0 0 0 0)
(0.0297896 -2.59596e-12 0 -5.00704e-13 0.118575 0 0 0 0)
(-0.0535567 -3.98054e-12 0 -3.2802e-12 0.132706 0 0 0 0)
(-0.288146 -2.94782e-13 0 -8.8392e-12 0.294101 0 0 0 0)
(-0.522168 4.62934e-12 0 2.68882e-12 0.576189 0 0 0 0)
(-0.583044 5.0069e-12 0 1.04557e-11 0.64784 0 0 0 0)
(-0.525536 7.23795e-13 0 7.47902e-12 0.570585 0 0 0 0)
(-0.467942 -1.68082e-12 0 6.19769e-12 0.476674 0 0 0 0)
(-0.456563 -1.6887e-13 0 4.17911e-12 0.422411 0 0 0 0)
(-0.60025 1.66201e-12 0 -1.86483e-12 0.403841 0 0 0 0)
(-1.08591 8.87542e-13 0 2.19797e-12 0.387449 0 0 0 0)
(-1.73263 -3.69631e-12 0 1.25629e-11 0.229059 0 0 0 0)
(-1.88536 -6.88844e-12 0 7.43073e-12 0.122546 0 0 0 0)
(-1.58974 -2.42624e-12 0 -4.17508e-11 0.11689 0 0 0 0)
(-0.957767 3.90825e-12 0 -6.65621e-11 0.117959 0 0 0 0)
(-0.351606 5.3002e-12 0 -5.24872e-11 0.116515 0 0 0 0)
(-0.1879 4.11913e-12 0 -2.60741e-11 0.113918 0 0 0 0)
(-0.138821 8.3625e-13 0 -7.32921e-12 0.114674 0 0 0 0)
(-0.107402 -1.41289e-12 0 1.2419e-12 0.118156 0 0 0 0)
(-0.0812447 -5.95736e-13 0 4.99324e-12 0.12541 0 0 0 0)
(-0.0734428 -1.52344e-12 0 8.22811e-12 0.138494 0 0 0 0)
(-0.0785634 -2.66765e-12 0 7.96199e-12 0.154335 0 0 0 0)
(-0.0664868 -1.38464e-13 0 3.55618e-12 0.153231 0 0 0 0)
(-0.0472767 1.45791e-12 0 1.71501e-13 0.140155 0 0 0 0)
(-0.0212116 4.3225e-13 0 -5.83498e-13 0.115619 0 0 0 0)
(-0.0716353 -0.483963 0 -0.0470919 0.171026 0 0 0 0)
(-0.0922071 -0.189834 0 0.415283 -0.617884 0 0 0 0)
(0.0776513 0.093158 0 0.889707 -0.226313 0 0 0 0)
(0.153873 0.165765 0 0.634322 0.145567 0 0 0 0)
(0.125454 0.117675 0 0.620593 0.239707 0 0 0 0)
(0.149401 0.0686818 0 0.522036 0.234013 0 0 0 0)
(0.16584 0.0220927 0 0.386188 0.206389 0 0 0 0)
(0.156379 -0.0181603 0 0.305532 0.207971 0 0 0 0)
(0.194889 -0.0219348 0 0.24756 0.0828529 0 0 0 0)
(0.268571 0.00286074 0 0.160131 0.08736 0 0 0 0)
(0.120963 -0.0233241 0 0.148727 0.138007 0 0 0 0)
(-0.216111 -0.0248114 0 0.0834581 0.0563237 0 0 0 0)
(-0.920298 -0.0084264 0 0.153141 0.0569959 0 0 0 0)
(-1.27432 -0.018505 0 0.331525 0.0406846 0 0 0 0)
(-0.596703 -0.0221838 0 0.0597973 0.0889901 0 0 0 0)
(-0.0453305 -0.0157594 0 0.0294696 0.0440483 0 0 0 0)
(0.0163764 -0.00251127 0 -0.0583655 0.0677967 0 0 0 0)
(-0.0608088 0.025531 0 -0.182913 0.166241 0 0 0 0)
(-0.271973 0.0645067 0 -0.31265 0.29005 0 0 0 0)
(-0.505475 0.051453 0 -0.267249 0.52527 0 0 0 0)
(-0.606957 -0.000815062 0 -0.109152 0.653017 0 0 0 0)
(-0.556558 -0.024897 0 -0.0398335 0.606179 0 0 0 0)
(-0.475109 -0.0215526 0 -0.0475205 0.526043 0 0 0 0)
(-0.460718 -0.0105938 0 -0.12352 0.478167 0 0 0 0)
(-0.587213 -0.00508544 0 -0.203362 0.407105 0 0 0 0)
(-1.04833 -0.025423 0 -0.136707 0.326357 0 0 0 0)
(-1.71334 -0.0385313 0 -0.0454757 0.236609 0 0 0 0)
(-1.89067 -0.0163154 0 -0.00965324 0.132098 0 0 0 0)
(-1.59375 -0.000667218 0 -0.00218931 0.117949 0 0 0 0)
(-0.958336 -5.45317e-05 0 -0.0017935 0.117533 0 0 0 0)
(-0.35231 -0.000587723 0 -0.00586654 0.116777 0 0 0 0)
(-0.188979 -0.000267842 0 -0.0104268 0.114154 0 0 0 0)
(-0.13992 0.0006164 0 -0.0153001 0.114646 0 0 0 0)
(-0.108446 0.00156167 0 -0.0190684 0.117687 0 0 0 0)
(-0.0823233 0.00295819 0 -0.0197017 0.124618 0 0 0 0)
(-0.0744812 0.00420726 0 -0.0147798 0.137537 0 0 0 0)
(-0.0789715 0.00214358 0 -0.00297665 0.15334 0 0 0 0)
(-0.0658911 -0.00206265 0 0.00862972 0.151936 0 0 0 0)
(-0.045859 -0.0054708 0 0.0142459 0.139218 0 0 0 0)
(-0.0203251 -0.00356882 0 0.016501 0.114897 0 0 0 0)
(0.176855 -0.640775 0 0.490793 -0.554145 0 0 0 0)
(0.119436 -0.11559 0 0.941503 -0.288859 0 0 0 0)
(0.0994125 0.222095 0 1.16369 0.102538 0 0 0 0)
(0.0961016 0.135569 0 0.943336 0.049029 0 0 0 0)
(0.0953129 0.0257295 0 0.868992 0.0758163 0 0 0 0)
(0.10905 -0.00969247 0 0.759443 0.0766878 0 0 0 0)
(0.122258 -0.00757586 0 0.601609 0.129507 0 0 0 0)
(0.12509 -0.0359378 0 0.453647 0.211714 0 0 0 0)
(0.161804 -0.0350867 0 0.346848 0.191048 0 0 0 0)
(0.243385 0.0160449 0 0.202051 0.213897 0 0 0 0)
(0.101496 -0.00902875 0 0.117731 0.285991 0 0 0 0)
(-0.21672 -0.0235669 0 0.0721741 0.132454 0 0 0 0)
(-0.866469 -0.00454955 0 0.16046 0.0618516 0 0 0 0)
(-1.29204 0.00930739 0 0.365985 0.0399539 0 0 0 0)
(-0.659335 0.000978531 0 0.092482 0.0879498 0 0 0 0)
(-0.0699648 -0.00616536 0 0.0485883 0.0742507 0 0 0 0)
(-0.0319946 0.0355469 0 -0.0825312 0.0987082 0 0 0 0)
(-0.127531 0.0646556 0 -0.194364 0.240976 0 0 0 0)
(-0.31268 0.104445 0 -0.295734 0.405146 0 0 0 0)
(-0.462969 0.10559 0 -0.297038 0.535767 0 0 0 0)
(-0.516887 0.023537 0 -0.104918 0.612751 0 0 0 0)
(-0.507607 -0.0369379 0 0.0981997 0.5871 0 0 0 0)
(-0.492287 -0.0372396 0 0.127259 0.52767 0 0 0 0)
(-0.501899 -0.0346001 0 0.053336 0.470167 0 0 0 0)
(-0.604086 -0.044163 0 -0.0270933 0.390028 0 0 0 0)
(-1.03998 -0.0495988 0 -0.0878474 0.29452 0 0 0 0)
(-1.69567 -0.0565117 0 -0.130936 0.234647 0 0 0 0)
(-1.87276 -0.0345192 0 -0.0523018 0.134551 0 0 0 0)
(-1.58745 -0.00423722 0 -0.00847614 0.118371 0 0 0 0)
(-0.958837 -0.000340904 0 -0.00057355 0.117383 0 0 0 0)
(-0.354117 -0.00098297 0 -0.00520134 0.117156 0 0 0 0)
(-0.190644 -0.000620146 0 -0.00739203 0.115093 0 0 0 0)
(-0.141335 0.00102804 0 -0.00968199 0.115895 0 0 0 0)
(-0.108683 0.00290102 0 -0.0113477 0.118378 0 0 0 0)
(-0.0799971 0.0057744 0 -0.0096309 0.123347 0 0 0 0)
(-0.0685773 0.00835564 0 -0.000133792 0.132446 0 0 0 0)
(-0.0717533 0.0041889 0 0.0200057 0.144847 0 0 0 0)
(-0.0614766 -0.00410828 0 0.0398172 0.144258 0 0 0 0)
(-0.0449869 -0.0107751 0 0.0480728 0.134877 0 0 0 0)
(-0.0205556 -0.00707535 0 0.0480486 0.111952 0 0 0 0)
(0.0377626 0.0387848 0 0.906646 -0.147353 0 0 0 0)
(0.0851691 0.136239 0 0.825024 0.23451 0 0 0 0)
(0.0536398 0.156023 0 0.795818 0.0458282 0 0 0 0)
(0.0358158 0.183917 0 0.732189 -0.0690789 0 0 0 0)
(0.0449541 0.241336 0 0.679037 -0.034807 0 0 0 0)
(0.0283349 0.192981 0 0.593848 0.017083 0 0 0 0)
(0.0244147 0.141095 0 0.501358 0.146193 0 0 0 0)
(0.0327507 0.040998 0 0.37979 0.2348 0 0 0 0)
(0.0753241 -0.00535882 0 0.27436 0.254803 0 0 0 0)
(0.153973 0.0471716 0 0.160371 0.324972 0 0 0 0)
(0.0620035 -0.0909401 0 0.0437325 0.396509 0 0 0 0)
(-0.188603 -0.166847 0 0.0191562 0.251803 0 0 0 0)
(-0.798238 -0.0709319 0 0.0675262 0.141205 0 0 0 0)
(-1.29648 -0.0342923 0 0.116051 0.137551 0 0 0 0)
(-0.723379 -0.0274519 0 0.101658 0.131518 0 0 0 0)
(-0.126628 -0.0201041 0 0.0214844 0.165417 0 0 0 0)
(-0.0800921 0.0580661 0 -0.0773808 0.178204 0 0 0 0)
(-0.117398 0.172513 0 -0.108582 0.276217 0 0 0 0)
(-0.289311 0.203243 0 -0.106363 0.48168 0 0 0 0)
(-0.434929 0.119082 0 -0.111526 0.581729 0 0 0 0)
(-0.463179 0.00322779 0 -0.0876144 0.590533 0 0 0 0)
(-0.46752 -0.0643439 0 -0.0444554 0.563287 0 0 0 0)
(-0.483389 -0.0767637 0 -0.0230918 0.503472 0 0 0 0)
(-0.509923 -0.0691754 0 -0.013387 0.426007 0 0 0 0)
(-0.656264 -0.0700807 0 -0.0195082 0.370536 0 0 0 0)
(-1.12312 -0.0949357 0 -0.0830953 0.305972 0 0 0 0)
(-1.71148 -0.118086 0 -0.159111 0.210625 0 0 0 0)
(-1.83457 -0.068204 0 -0.0649788 0.123016 0 0 0 0)
(-1.56857 -0.00730859 0 -0.00928589 0.116869 0 0 0 0)
(-0.955703 -0.000485497 0 0.00563297 0.11713 0 0 0 0)
(-0.354498 -0.00156683 0 0.00194638 0.116872 0 0 0 0)
(-0.189865 -0.000651534 0 0.00307024 0.115517 0 0 0 0)
(-0.140765 0.00220106 0 0.00494554 0.116748 0 0 0 0)
(-0.108141 0.00468741 0 0.00632681 0.11883 0 0 0 0)
(-0.0779787 0.00852625 0 0.00780243 0.121654 0 0 0 0)
(-0.0627173 0.012897 0 0.0114992 0.126405 0 0 0 0)
(-0.0622573 0.00718835 0 0.0206153 0.134324 0 0 0 0)
(-0.0533896 -0.00595148 0 0.0319934 0.136099 0 0 0 0)
(-0.041704 -0.0196026 0 0.0373536 0.133053 0 0 0 0)
(-0.0200738 -0.0138945 0 0.0360793 0.113467 0 0 0 0)
(0.0110601 -0.00538702 0 0.431425 0.68908 0 0 0 0)
(0.0310129 -0.0644716 0 0.369212 0.67518 0 0 0 0)
(0.0344977 -0.0350249 0 0.310529 0.558143 0 0 0 0)
(0.0158944 0.031941 0 0.304265 0.525636 0 0 0 0)
(-0.0109932 -0.00685671 0 0.275682 0.39263 0 0 0 0)
(-0.0188863 0.056046 0 0.256046 0.230531 0 0 0 0)
(-0.0315498 0.122502 0 0.227078 0.212454 0 0 0 0)
(-0.0441377 0.0274668 0 0.194512 0.155815 0 0 0 0)
(-0.00326367 0.0358653 0 0.157694 0.127741 0 0 0 0)
(0.0690891 0.135907 0 0.101996 0.205085 0 0 0 0)
(-0.0134066 -0.0356132 0 0.00717991 0.214289 0 0 0 0)
(-0.208868 -0.192756 0 -0.033599 0.138218 0 0 0 0)
(-0.809685 -0.0790512 0 -0.06 0.0686263 0 0 0 0)
(-1.25677 0.0233523 0 -0.14402 0.158205 0 0 0 0)
(-0.716121 0.0430764 0 0.0296796 0.191163 0 0 0 0)
(-0.212108 0.0462975 0 -0.0328743 0.222172 0 0 0 0)
(-0.131539 0.130243 0 -0.068131 0.229394 0 0 0 0)
(-0.160892 0.299259 0 -0.124969 0.313483 0 0 0 0)
(-0.328048 0.345869 0 -0.219909 0.483107 0 0 0 0)
(-0.459938 0.20325 0 -0.298533 0.59178 0 0 0 0)
(-0.481055 0.0166565 0 -0.321121 0.606271 0 0 0 0)
(-0.466927 -0.106137 0 -0.299687 0.567378 0 0 0 0)
(-0.46712 -0.148334 0 -0.253505 0.500956 0 0 0 0)
(-0.494143 -0.144162 0 -0.210551 0.423522 0 0 0 0)
(-0.643281 -0.145935 0 -0.188959 0.349007 0 0 0 0)
(-1.12993 -0.179383 0 -0.197447 0.27103 0 0 0 0)
(-1.66974 -0.199797 0 -0.238128 0.18035 0 0 0 0)
(-1.74887 -0.106804 0 -0.0848718 0.113588 0 0 0 0)
(-1.52953 -0.00826199 0 -0.00855223 0.114385 0 0 0 0)
(-0.949694 -0.00025975 0 0.0113816 0.115393 0 0 0 0)
(-0.356382 -0.00222514 0 0.00576035 0.116261 0 0 0 0)
(-0.188172 -0.000723103 0 0.0071319 0.115773 0 0 0 0)
(-0.138503 0.00359178 0 0.00982412 0.117069 0 0 0 0)
(-0.106221 0.00667071 0 0.0114952 0.118795 0 0 0 0)
(-0.0760951 0.0115984 0 0.0120129 0.120923 0 0 0 0)
(-0.0593727 0.01813 0 0.0123575 0.123927 0 0 0 0)
(-0.0570965 0.011922 0 0.0149503 0.128668 0 0 0 0)
(-0.0496835 -0.00434544 0 0.0189565 0.13045 0 0 0 0)
(-0.0428099 -0.0278506 0 0.0213477 0.132536 0 0 0 0)
(-0.0220419 -0.0222922 0 0.0187921 0.116977 0 0 0 0)
(-0.0221884 0.0253904 0 0.013778 0.5857 0 0 0 0)
(-0.0313313 0.010063 0 0.00984317 0.546169 0 0 0 0)
(-0.00894592 0.011916 0 -0.0195156 0.550324 0 0 0 0)
(0.00223583 0.0244227 0 -0.054445 0.546736 0 0 0 0)
(-0.00151065 -0.0430375 0 -0.0671957 0.529218 0 0 0 0)
(-0.0185015 0.0193563 0 -0.0575518 0.508986 0 0 0 0)
(-0.0348822 0.0690962 0 -0.0658553 0.489669 0 0 0 0)
(-0.0341099 -0.0406344 0 -0.0430182 0.41583 0 0 0 0)
(-0.0138274 0.0421188 0 -0.0071254 0.365513 0 0 0 0)
(0.00893243 0.130572 0 -0.0123484 0.398671 0 0 0 0)
(-0.068661 -0.155375 0 -0.181506 0.323736 0 0 0 0)
(-0.25334 -0.307213 0 -0.229768 0.309305 0 0 0 0)
(-0.904644 -0.0516717 0 -0.351196 0.295634 0 0 0 0)
(-1.21006 0.0837884 0 -0.337353 0.27396 0 0 0 0)
(-0.616275 0.034189 0 -0.0663585 0.26372 0 0 0 0)
(-0.220882 0.0167364 0 -0.0858855 0.263616 0 0 0 0)
(-0.168838 0.146056 0 -0.137898 0.280074 0 0 0 0)
(-0.263657 0.417001 0 -0.278391 0.413581 0 0 0 0)
(-0.456563 0.47142 0 -0.424144 0.576453 0 0 0 0)
(-0.532461 0.237767 0 -0.500547 0.606811 0 0 0 0)
(-0.464291 -0.0202871 0 -0.463084 0.551139 0 0 0 0)
(-0.402362 -0.16583 0 -0.388973 0.490119 0 0 0 0)
(-0.397494 -0.215388 0 -0.313244 0.431655 0 0 0 0)
(-0.447724 -0.215599 0 -0.253306 0.370483 0 0 0 0)
(-0.643637 -0.217028 0 -0.231831 0.305606 0 0 0 0)
(-1.1705 -0.25746 0 -0.274663 0.231006 0 0 0 0)
(-1.603 -0.269803 0 -0.327402 0.143447 0 0 0 0)
(-1.61334 -0.131771 0 -0.097685 0.10624 0 0 0 0)
(-1.47582 -0.00556922 0 -0.00643509 0.113894 0 0 0 0)
(-0.941911 0.00132197 0 0.0128755 0.116886 0 0 0 0)
(-0.358593 -0.00120006 0 0.00372359 0.119633 0 0 0 0)
(-0.185949 0.000127578 0 0.00388225 0.120797 0 0 0 0)
(-0.13656 0.00511254 0 0.00577137 0.122339 0 0 0 0)
(-0.106031 0.00840093 0 0.00635119 0.123734 0 0 0 0)
(-0.0771478 0.0134718 0 0.00560724 0.125354 0 0 0 0)
(-0.0598867 0.0203609 0 0.00467612 0.12581 0 0 0 0)
(-0.0558983 0.0134741 0 0.00544296 0.127034 0 0 0 0)
(-0.0472248 -0.00222403 0 0.00700897 0.125306 0 0 0 0)
(-0.0418625 -0.0325859 0 0.0107313 0.129661 0 0 0 0)
(-0.0225365 -0.0288885 0 0.0111233 0.118334 0 0 0 0)
(0.00726832 -0.0434804 0 -0.27995 0.480087 0 0 0 0)
(-0.00107001 -0.0985609 0 -0.245872 0.433051 0 0 0 0)
(-0.0274527 -0.0344781 0 -0.225411 0.419413 0 0 0 0)
(-0.0300519 0.011603 0 -0.225562 0.418246 0 0 0 0)
(-0.0139869 -0.0432343 0 -0.219532 0.409181 0 0 0 0)
(-0.0175946 0.0179346 0 -0.209177 0.433294 0 0 0 0)
(-0.0175448 0.0327333 0 -0.201105 0.403664 0 0 0 0)
(0.0124566 -0.0921746 0 -0.158426 0.347106 0 0 0 0)
(0.0262908 0.0193304 0 -0.0787704 0.409368 0 0 0 0)
(-0.0989503 0.0956492 0 -0.192817 0.322171 0 0 0 0)
(-0.22292 -0.121729 0 -0.309156 0.150745 0 0 0 0)
(-0.372388 -0.219836 0 -0.351841 0.264329 0 0 0 0)
(-0.913358 -0.113111 0 -0.53217 0.331226 0 0 0 0)
(-0.982294 -0.0074009 0 -0.311786 0.242508 0 0 0 0)
(-0.473798 0.0331082 0 -0.0369097 0.271337 0 0 0 0)
(-0.281046 0.0620561 0 -0.109727 0.29274 0 0 0 0)
(-0.317045 0.274755 0 -0.247524 0.390762 0 0 0 0)
(-0.436729 0.584862 0 -0.449745 0.605053 0 0 0 0)
(-0.542126 0.532072 0 -0.602987 0.66419 0 0 0 0)
(-0.497462 0.178856 0 -0.588834 0.554274 0 0 0 0)
(-0.373538 -0.095792 0 -0.487081 0.451395 0 0 0 0)
(-0.322535 -0.221276 0 -0.40002 0.392737 0 0 0 0)
(-0.336386 -0.263619 0 -0.33135 0.347397 0 0 0 0)
(-0.415691 -0.265627 0 -0.28736 0.306247 0 0 0 0)
(-0.663861 -0.28034 0 -0.285656 0.257007 0 0 0 0)
(-1.22203 -0.335645 0 -0.35733 0.180639 0 0 0 0)
(-1.49919 -0.320026 0 -0.388177 0.10579 0 0 0 0)
(-1.43957 -0.135282 0 -0.0903332 0.108501 0 0 0 0)
(-1.42299 0.00199671 0 0.00475824 0.118993 0 0 0 0)
(-0.939905 0.00527099 0 0.0207231 0.123277 0 0 0 0)
(-0.365049 0.0015432 0 0.0103128 0.126138 0 0 0 0)
(-0.186199 0.00188417 0 0.0104978 0.127824 0 0 0 0)
(-0.136123 0.00642187 0 0.012638 0.129496 0 0 0 0)
(-0.106379 0.00957586 0 0.013676 0.130229 0 0 0 0)
(-0.0777092 0.0135987 0 0.0136327 0.131622 0 0 0 0)
(-0.059531 0.0197491 0 0.013708 0.129638 0 0 0 0)
(-0.0548485 0.0114369 0 0.0153753 0.127566 0 0 0 0)
(-0.0445875 -0.00181381 0 0.0156359 0.121333 0 0 0 0)
(-0.0388453 -0.0345693 0 0.0188169 0.125143 0 0 0 0)
(-0.0216642 -0.0332073 0 0.0200276 0.117888 0 0 0 0)
(0.0106497 -0.019935 0 -0.395619 0.340553 0 0 0 0)
(0.0212237 -0.0484045 0 -0.398456 0.365 0 0 0 0)
(0.010626 -0.0023503 0 -0.38254 0.406531 0 0 0 0)
(0.00790108 0.0145628 0 -0.356761 0.398595 0 0 0 0)
(0.0142787 -0.0285368 0 -0.329308 0.392159 0 0 0 0)
(-0.000744109 0.0140402 0 -0.314748 0.449874 0 0 0 0)
(0.0140228 -0.0139584 0 -0.294569 0.40914 0 0 0 0)
(0.083776 -0.0351381 0 -0.247313 0.379211 0 0 0 0)
(-0.0469674 0.0180914 0 -0.19971 0.451746 0 0 0 0)
(-0.213075 -0.118647 0 -0.311966 0.327017 0 0 0 0)
(-0.221902 -0.211114 0 -0.380312 0.158205 0 0 0 0)
(-0.468245 -0.133294 0 -0.406144 0.210478 0 0 0 0)
(-0.866045 -0.0726989 0 -0.498004 0.271995 0 0 0 0)
(-0.732808 0.026077 0 -0.23282 0.292122 0 0 0 0)
(-0.421564 0.0825946 0 -0.112981 0.373449 0 0 0 0)
(-0.423838 0.131819 0 -0.2272 0.406659 0 0 0 0)
(-0.496491 0.447012 0 -0.412242 0.60942 0 0 0 0)
(-0.606193 0.680486 0 -0.600419 0.813764 0 0 0 0)
(-0.590595 0.422488 0 -0.673981 0.670209 0 0 0 0)
(-0.42077 0.0327098 0 -0.5674 0.471598 0 0 0 0)
(-0.282343 -0.175951 0 -0.460451 0.368217 0 0 0 0)
(-0.252294 -0.266045 0 -0.389124 0.314423 0 0 0 0)
(-0.288931 -0.298732 0 -0.337667 0.280907 0 0 0 0)
(-0.403693 -0.302702 0 -0.314156 0.250759 0 0 0 0)
(-0.711063 -0.338069 0 -0.338907 0.204064 0 0 0 0)
(-1.2693 -0.403178 0 -0.443604 0.127507 0 0 0 0)
(-1.34571 -0.339317 0 -0.406376 0.0729063 0 0 0 0)
(-1.23469 -0.119048 0 -0.0755773 0.106795 0 0 0 0)
(-1.3688 0.00866915 0 0.0121549 0.121361 0 0 0 0)
(-0.936558 0.00820738 0 0.0185622 0.121018 0 0 0 0)
(-0.368447 0.00318137 0 0.00853437 0.117885 0 0 0 0)
(-0.183708 0.00336349 0 0.0104598 0.116469 0 0 0 0)
(-0.133498 0.00743022 0 0.0144575 0.119929 0 0 0 0)
(-0.105073 0.0104495 0 0.0162653 0.126082 0 0 0 0)
(-0.0771171 0.0129024 0 0.0157114 0.132825 0 0 0 0)
(-0.0582075 0.0164522 0 0.014226 0.132151 0 0 0 0)
(-0.0540404 0.00547153 0 0.0147726 0.129879 0 0 0 0)
(-0.0439084 -0.00455865 0 0.0138548 0.120638 0 0 0 0)
(-0.0376305 -0.0359062 0 0.0158848 0.122879 0 0 0 0)
(-0.0213698 -0.0358798 0 0.0167996 0.118242 0 0 0 0)
(0.00453407 -0.0199215 0 -0.42293 0.325373 0 0 0 0)
(0.011533 -0.034982 0 -0.429711 0.331407 0 0 0 0)
(0.0127268 -0.00210546 0 -0.437645 0.363531 0 0 0 0)
(0.0212449 -0.00224637 0 -0.434054 0.344448 0 0 0 0)
(0.0264984 0.00617997 0 -0.431166 0.348249 0 0 0 0)
(0.0158807 0.0342984 0 -0.430518 0.382047 0 0 0 0)
(0.0474381 -0.0353597 0 -0.410175 0.331858 0 0 0 0)
(0.103866 -0.0511182 0 -0.395477 0.342252 0 0 0 0)
(-0.0360117 -0.0309659 0 -0.426415 0.30383 0 0 0 0)
(-0.272985 -0.187217 0 -0.460606 0.238424 0 0 0 0)
(-0.313673 -0.23403 0 -0.480782 0.262082 0 0 0 0)
(-0.4858 -0.110184 0 -0.599967 0.227816 0 0 0 0)
(-0.746337 -0.0344364 0 -0.564487 0.269793 0 0 0 0)
(-0.611272 0.0903636 0 -0.319074 0.385058 0 0 0 0)
(-0.468382 0.14348 0 -0.378253 0.394108 0 0 0 0)
(-0.569424 0.289447 0 -0.521944 0.52126 0 0 0 0)
(-0.676692 0.667056 0 -0.696706 0.887882 0 0 0 0)
(-0.68895 0.64344 0 -0.793518 0.865089 0 0 0 0)
(-0.510309 0.202349 0 -0.684998 0.557325 0 0 0 0)
(-0.291698 -0.112154 0 -0.521934 0.377477 0 0 0 0)
(-0.201744 -0.247252 0 -0.425932 0.299814 0 0 0 0)
(-0.204215 -0.305412 0 -0.370652 0.251362 0 0 0 0)
(-0.264145 -0.324969 0 -0.341069 0.213141 0 0 0 0)
(-0.416886 -0.339676 0 -0.34456 0.18389 0 0 0 0)
(-0.788601 -0.39911 0 -0.403876 0.128577 0 0 0 0)
(-1.28704 -0.462033 0 -0.520939 0.0238021 0 0 0 0)
(-1.14455 -0.339985 0 -0.365112 0.0249132 0 0 0 0)
(-1.03626 -0.0885896 0 -0.0536051 0.0886638 0 0 0 0)
(-1.33228 0.015702 0 0.00746932 0.0781845 0 0 0 0)
(-0.943394 0.00192134 0 -0.00107808 0.0482734 0 0 0 0)
(-0.372856 -0.00284009 0 -0.00524103 0.0262567 0 0 0 0)
(-0.180491 0.00385452 0 0.00347351 0.0230519 0 0 0 0)
(-0.130529 0.0156854 0 0.0125818 0.0381746 0 0 0 0)
(-0.10517 0.0220027 0 0.0176646 0.06283 0 0 0 0)
(-0.0796743 0.0194473 0 0.0206456 0.0883991 0 0 0 0)
(-0.0604356 0.0169102 0 0.0201907 0.107657 0 0 0 0)
(-0.0552062 0.000342586 0 0.0177663 0.124682 0 0 0 0)
(-0.0435158 -0.00855907 0 0.0112853 0.119207 0 0 0 0)