/*--------------------------------*- C++ -*----------------------------------*\
| =========                 |                                                 |
| \\      /  F ield         | OpenFOAM: The Open Source CFD Toolbox           |
|  \\    /   O peration     | Version:  v1912                                 |
|   \\  /    A nd           | Website:  www.openfoam.com                      |
|    \\/     M anipulation  |                                                 |
\*---------------------------------------------------------------------------*/
FoamFile
{
    version     2.0;
    format      ascii;
    class       volVectorField;
    location    "6.62";
    object      grad(p);
}
// * * * * * * * * * * * * * * * * * * * * * * * * * * * * * * * * * * * * * //

dimensions      [1 -2 -2 0 0 0 0];


internalField   nonuniform List<vector> 
1900
(
(90392.9 -0.0533077 0)
(-101132 -0.245606 0)
(-3127.18 -0.486843 0)
(142.945 -0.819113 0)
(87.0897 -1.25755 0)
(53.6945 -0.767038 0)
(-39.2978 3.57387 0)
(-137.697 9.98712 0)
(-186.251 26.1214 0)
(604.749 -40.8365 0)
(90392.6 -0.246619 0)
(-101133 -0.408906 0)
(-3127.75 -0.809931 0)
(142.175 -0.895417 0)
(87.1418 -0.557912 0)
(58.526 1.69049 0)
(-28.5436 3.74115 0)
(-115.15 -3.01757 0)
(-237.074 -20.9741 0)
(-321.433 -94.6357 0)
(90392.2 2.29861e-08 0)
(-101133 1.42641e-08 0)
(-3127.67 2.6823e-09 0)
(143.197 2.62901e-09 0)
(89.6757 2.98428e-09 0)
(57.9936 3.19744e-10 0)
(-44.0058 -3.6593e-09 0)
(-162.413 -4.3876e-09 0)
(-277.869 -5.22249e-09 0)
(-434.589 -5.84421e-09 0)
(90392.6 0.246619 0)
(-101133 0.408906 0)
(-3127.75 0.809931 0)
(142.175 0.895417 0)
(87.1418 0.557912 0)
(58.526 -1.69049 0)
(-28.5436 -3.74115 0)
(-115.15 3.01757 0)
(-237.074 20.9741 0)
(-321.433 94.6357 0)
(90392.9 0.0533077 0)
(-101132 0.245606 0)
(-3127.18 0.486843 0)
(142.945 0.819113 0)
(87.0897 1.25755 0)
(53.6945 0.767038 0)
(-39.2978 -3.57387 0)
(-137.697 -9.98712 0)
(-186.251 -26.1214 0)
(604.749 40.8365 0)
(-211.86 -783.418 8.62155e-12)
(-1713.84 -601.035 -1.01046e-11)
(-1593.95 -699.386 -1.27049e-11)
(720.496 -931.61 0)
(-18786 -7948.65 -5.53141e-11)
(-684.141 -933.456 8.47998e-12)
(-1169.64 -720.793 1.01046e-11)
(-1496.19 -816.34 1.27049e-11)
(-1969.42 -663.515 0)
(-17931.6 -7307.69 0)
(-1016.01 -9.3484e-09 0)
(-1277.93 -1.08101e-08 0)
(-1436.42 -1.53951e-08 0)
(-1936.34 -1.5274e-08 0)
(-20699.6 -2.08299e-08 0)
(-684.141 933.456 8.47998e-12)
(-1169.64 720.793 1.01046e-11)
(-1496.19 816.34 1.27049e-11)
(-1969.42 663.515 0)
(-17931.6 7307.69 0)
(-211.86 783.418 -2.55815e-11)
(-1713.84 601.035 -1.01046e-11)
(-1593.95 699.386 -1.27049e-11)
(720.496 931.61 -3.41349e-11)
(-18786 7948.65 5.53141e-11)
(-37475.9 10698.9 1.01905e-11)
(-11151.8 4147.22 -5.00311e-12)
(-5368.88 1960.34 0)
(-3736.74 1231.4 1.99739e-12)
(-1620.96 965.834 -6.42246e-13)
(-33507.8 13243.4 -5.25633e-12)
(-13086.6 3363.99 2.56401e-12)
(-6104.31 1136.04 0)
(-3988.72 716.304 -1.27694e-12)
(-2135.8 512.211 1.7169e-13)
(-34614.3 -2.84845e-09 0)
(-14236.4 -1.13869e-10 0)
(-6215.94 -2.04774e-09 0)
(-4002.04 2.19868e-09 5.19405e-13)
(-2103.17 2.98007e-09 -3.4338e-13)
(-33507.8 -13243.4 -5.25633e-12)
(-13086.6 -3363.99 2.56401e-12)
(-6104.31 -1136.04 0)
(-3988.72 -716.304 -1.27694e-12)
(-2135.8 -512.211 1.7169e-13)
(-37475.9 -10698.9 5.25633e-12)
(-11151.8 -4147.22 -1.24901e-13)
(-5368.88 -1960.34 0)
(-3736.74 -1231.4 3.70857e-14)
(-1620.96 -965.834 6.42246e-13)
(-360.992 -1248.6 0)
(-850.604 -1149.65 0)
(-782.477 -1040.11 0)
(135.487 -936.203 0)
(2429.28 -909.72 0)
(2927.06 269.621 0)
(889.954 590.192 0)
(-6.42381 396.665 0)
(-348.929 369.161 0)
(-715.932 418.921 0)
(-935.013 308.63 0)
(-1123.6 190.664 0)
(-1296.88 122.542 0)
(-1146.99 72.1117 0)
(-679.906 28.0552 0)
(-319.598 7.10337 0)
(-196.992 3.23403 0)
(-163.943 3.36055 0)
(-143.609 4.21889 0)
(-114.247 1.43187 0)
(-75.4062 -0.294691 0)
(-42.8534 -0.812811 0)
(-23.9115 -0.80859 0)
(-15.0857 -0.705767 0)
(-10.2792 -0.622783 0)
(-6.57476 -0.571923 0)
(-2.07738 -0.573413 0)
(3.74976 -0.59599 0)
(9.46791 -0.561482 0)
(13.8252 -0.517338 0)
(21.1519 -0.572569 0)
(30.963 -0.355944 0)
(47.7643 -0.3828 0)
(60.8896 0.616739 0)
(96.9758 0.111132 0)
(242.796 -0.989605 0)
(754.199 -3.11195 0)
(1278.96 1.81856 0)
(687.306 4.63822 0)
(1172.35 6.20352 0)
(-799.839 -456.118 0)
(-838.38 -352.645 0)
(-778.337 -308.065 0)
(180.414 -338.429 0)
(2570.29 -254.8 0)
(3004.16 179.179 0)
(859.658 249.765 0)
(-13.0909 174.375 0)
(-300.874 194.749 0)
(-700.825 186.629 0)
(-975.16 125.958 0)
(-1161.42 77.5056 0)
(-1318.58 58.8061 0)
(-1159.51 35.8797 0)
(-686.029 12.3753 0)
(-321.555 2.73416 0)
(-197.302 1.73694 0)
(-163.918 1.28047 0)
(-143.764 1.64609 0)
(-114.654 0.513992 0)
(-75.5831 -0.180321 0)
(-42.889 -0.364713 0)
(-23.8995 -0.349008 0)
(-15.0683 -0.302643 0)
(-10.2666 -0.269806 0)
(-6.57015 -0.251409 0)
(-2.08065 -0.2577 0)
(3.74946 -0.277481 0)
(9.47459 -0.269485 0)
(13.8225 -0.257978 0)
(21.1657 -0.293058 0)
(30.9708 -0.208714 0)
(47.853 -0.261422 0)
(60.9273 0.201098 0)
(96.8189 -0.109661 0)
(242.409 -0.418625 0)
(754.511 -2.11674 0)
(1279.57 1.09924 0)
(687.607 1.22663 0)
(1171.64 3.18531 0)
(-664.713 -1.55754e-08 0)
(-807.534 -1.53312e-08 0)
(-778.341 -1.39989e-08 0)
(150.982 1.59327e-08 0)
(2579.86 9.67933e-08 0)
(3073.84 -6.36917e-07 0)
(888.557 -2.58246e-07 0)
(-22.4283 -2.76894e-07 0)
(-345.364 -1.5074e-07 0)
(-735.944 1.78645e-08 0)
(-966.758 4.5943e-09 0)
(-1143.13 -1.24426e-08 0)
(-1308.99 -8.74856e-09 0)
(-1160.5 -2.86498e-08 0)
(-689.548 -2.5412e-08 0)
(-322.692 -9.99201e-09 0)
(-197.415 -6.55839e-09 0)
(-163.969 4.85268e-09 0)
(-143.832 -5.63388e-09 0)
(-114.778 1.18087e-09 0)
(-75.6618 4.97582e-09 0)
(-42.9025 2.1175e-09 0)
(-23.8934 5.75297e-10 0)
(-15.0627 2.281e-10 0)
(-10.2643 -4.84461e-11 0)
(-6.57124 -3.9968e-10 0)
(-2.08496 1.39283e-10 0)
(3.74633 1.86114e-09 0)
(9.47358 2.45864e-09 0)
(13.8184 1.18087e-09 0)
(21.1662 -2.14172e-09 0)
(30.9722 -5.07069e-09 0)
(47.8835 -5.89427e-10 0)
(60.9338 -1.43764e-08 0)
(96.7955 -1.18673e-08 0)
(242.212 -8.48816e-09 0)
(754.641 3.67322e-08 0)
(1279.93 1.50768e-08 0)
(687.913 -4.89306e-09 0)
(1171.07 9.48575e-08 0)
(-799.839 456.118 0)
(-838.38 352.645 0)
(-778.337 308.065 0)
(180.414 338.429 0)
(2570.29 254.8 0)
(3004.16 -179.179 0)
(859.658 -249.765 0)
(-13.0909 -174.375 0)
(-300.874 -194.749 0)
(-700.825 -186.629 0)
(-975.16 -125.958 0)
(-1161.42 -77.5056 0)
(-1318.58 -58.8061 0)
(-1159.51 -35.8797 0)
(-686.029 -12.3753 0)
(-321.555 -2.73416 0)
(-197.302 -1.73694 0)
(-163.918 -1.28047 0)
(-143.764 -1.64609 0)
(-114.654 -0.513992 0)
(-75.5831 0.180321 0)
(-42.889 0.364713 0)
(-23.8995 0.349008 0)
(-15.0683 0.302643 0)
(-10.2666 0.269806 0)
(-6.57015 0.251409 0)
(-2.08065 0.2577 0)
(3.74946 0.277481 0)
(9.47459 0.269485 0)
(13.8225 0.257978 0)
(21.1657 0.293058 0)
(30.9708 0.208714 0)
(47.853 0.261422 0)
(60.9273 -0.201098 0)
(96.8189 0.109661 0)
(242.409 0.418625 0)
(754.511 2.11674 0)
(1279.57 -1.09924 0)
(687.607 -1.22663 0)
(1171.64 -3.18531 0)
(-360.992 1248.6 0)
(-850.604 1149.65 0)
(-782.477 1040.11 0)
(135.487 936.203 0)
(2429.28 909.72 0)
(2927.06 -269.621 0)
(889.954 -590.192 0)
(-6.42381 -396.665 0)
(-348.929 -369.161 0)
(-715.932 -418.921 0)
(-935.013 -308.63 0)
(-1123.6 -190.664 0)
(-1296.88 -122.542 0)
(-1146.99 -72.1117 0)
(-679.906 -28.0552 0)
(-319.598 -7.10337 0)
(-196.992 -3.23403 0)
(-163.943 -3.36055 0)
(-143.609 -4.21889 0)
(-114.247 -1.43187 0)
(-75.4062 0.294691 0)
(-42.8534 0.812811 0)
(-23.9115 0.80859 0)
(-15.0857 0.705767 0)
(-10.2792 0.622783 0)
(-6.57476 0.571923 0)
(-2.07738 0.573413 0)
(3.74976 0.59599 0)
(9.46791 0.561482 0)
(13.8252 0.517338 0)
(21.1519 0.572569 0)
(30.963 0.355944 0)
(47.7643 0.3828 0)
(60.8896 -0.616739 0)
(96.9758 -0.111132 0)
(242.796 0.989605 0)
(754.199 3.11195 0)
(1278.96 -1.81856 0)
(687.306 -4.63822 0)
(1172.35 -6.20352 0)
(-694.182 890.243 0)
(-955.029 734.26 0)
(-907.439 1225.88 0)
(150.573 1516.11 0)
(1976.96 1472.11 0)
(2152.46 -211.174 0)
(744.937 -771.125 0)
(117.847 -624.08 0)
(-259.271 -604.511 0)
(-645.389 -517.942 0)
(-878.399 -366.055 0)
(-1088.43 -263.144 0)
(-1269.31 -204.835 0)
(-1114.71 -136.858 0)
(-652.33 -52.9774 0)
(-308.248 -13.3435 0)
(-195.313 -5.83275 0)
(-164.507 -6.84848 0)
(-142.733 -7.04659 0)
(-112.293 -2.96086 0)
(-74.3796 0.202483 0)
(-42.6077 1.36152 0)
(-23.9529 1.43756 0)
(-15.1647 1.26298 0)
(-10.3359 1.11609 0)
(-6.59577 1.03284 0)
(-2.06934 1.03811 0)
(3.74163 1.0718 0)
(9.43298 1.00702 0)
(13.8263 0.943811 0)
(21.0804 1.0075 0)
(30.8607 0.70431 0)
(47.3454 0.514128 0)
(60.661 -0.944232 0)
(97.645 -0.505308 0)
(243.984 1.50141 0)
(753.11 4.54169 0)
(1275.42 -0.40074 0)
(685.204 -6.67056 0)
(1177.61 -8.19266 0)
(-828.862 -26.1162 0)
(-471.176 51.693 0)
(37.951 716.602 0)
(364.673 1216.37 0)
(1007.36 1125.52 0)
(1180.77 -211.965 0)
(569.826 -627.067 0)
(87.4943 -732.077 0)
(-294.727 -741.174 0)
(-523.974 -623.494 0)
(-719.839 -474.867 0)
(-987.1 -387.54 0)
(-1189.97 -327.431 0)
(-1017.97 -208.584 0)
(-575.669 -73.8357 0)
(-280.253 -19.2756 0)
(-191.633 -10.3168 0)
(-164.81 -10.8177 0)
(-140.333 -9.26746 0)
(-108.309 -4.24674 0)
(-71.7915 0.177093 0)
(-41.795 2.15249 0)
(-23.9843 2.45764 0)
(-15.3532 2.25065 0)
(-10.4706 2.03539 0)
(-6.63864 1.91176 0)
(-2.04414 1.91635 0)
(3.72417 1.94597 0)
(9.3633 1.83631 0)
(13.8251 1.74251 0)
(20.9595 1.81492 0)
(30.5424 1.44888 0)
(46.4003 1.01131 0)
(60.0299 -0.883212 0)
(98.9736 -0.680807 0)
(247.023 2.17569 0)
(752.95 7.03636 0)
(1270.05 1.97242 0)
(680.924 -6.04262 0)
(1183.86 -7.14052 0)
(-669.535 94.6667 0)
(-239.319 431.732 0)
(214.886 514.375 0)
(544.617 463.339 0)
(600.559 326.173 0)
(463.605 -379.536 0)
(243.738 -652.182 0)
(7.88873 -710.518 0)
(-154.637 -696.906 0)
(-388.766 -581.517 0)
(-651.025 -506.545 0)
(-946.353 -477.144 0)
(-1096.86 -418.687 0)
(-870.336 -245.505 0)
(-469.906 -80.2839 0)
(-247.039 -24.107 0)
(-187.163 -15.4966 0)
(-163.496 -14.3812 0)
(-136.401 -10.7881 0)
(-103.192 -4.68381 0)
(-68.2131 0.725698 0)
(-40.4101 3.39595 0)
(-23.8583 3.97796 0)
(-15.5716 3.79181 0)
(-10.6625 3.52285 0)
(-6.71048 3.35379 0)
(-2.03637 3.33597 0)
(3.66449 3.31321 0)
(9.23692 3.13315 0)
(13.8057 2.97818 0)
(20.7974 3.03666 0)
(30.0863 2.59942 0)
(45.0981 1.95807 0)
(59.0304 -0.289554 0)
(100.593 -0.477385 0)
(251.421 2.9092 0)
(752.914 9.62706 0)
(1262.81 3.50598 0)
(676.423 -6.47116 0)
(1190.31 -7.11411 0)
(-321.605 -15.9148 0)
(-66.7297 188.733 0)
(68.4086 56.4819 0)
(183.315 -23.6052 0)
(195.137 -282.903 0)
(237.989 -454.94 0)
(250.88 -639.609 0)
(44.3969 -626.555 0)
(-170.418 -624.602 0)
(-340.535 -587.025 0)
(-619.261 -564.02 0)
(-902.438 -547.378 0)
(-966.752 -450.778 0)
(-691.868 -232.343 0)
(-362.322 -73.9743 0)
(-217.822 -28.5233 0)
(-182.261 -20.553 0)
(-160.272 -17.0397 0)
(-130.988 -11.2278 0)
(-97.2136 -3.9187 0)
(-64.0056 2.10304 0)
(-38.6611 5.17636 0)
(-23.6028 5.95165 0)
(-15.7917 5.80097 0)
(-10.8926 5.49764 0)
(-6.81873 5.28413 0)
(-2.08324 5.20829 0)
(3.52872 5.07067 0)
(9.04044 4.79495 0)
(13.7322 4.54324 0)
(20.5945 4.51518 0)
(29.5031 4.01194 0)
(43.6164 3.16045 0)
(57.683 0.804285 0)
(102.056 0.158392 0)
(256.76 3.56307 0)
(753.525 11.1327 0)
(1254.54 4.62136 0)
(670.69 -7.07116 0)
(1196.95 -8.36506 0)
(-503.001 -173.494 0)
(-169.555 -34.9109 0)
(10.2691 -127.696 0)
(217.574 -235.037 0)
(184.91 -389.519 0)
(119.869 -502.525 0)
(78.3634 -583.308 0)
(22.3509 -640.963 0)
(-116.544 -593.418 0)
(-330.387 -589.815 0)
(-612.82 -599.858 0)
(-837.229 -575.504 0)
(-793.279 -420.411 0)
(-507.234 -187.176 0)
(-273.499 -63.4281 0)
(-195.561 -31.3367 0)
(-176.097 -23.8098 0)
(-154.509 -17.8315 0)
(-123.757 -10.1538 0)
(-90.3461 -1.75121 0)
(-59.4487 4.56154 0)
(-36.7014 7.78672 0)
(-23.2564 8.65541 0)
(-16.0091 8.53412 0)
(-11.1605 8.20903 0)
(-6.9893 7.9529 0)
(-2.24207 7.78331 0)
(3.26618 7.4992 0)
(8.72867 7.13215 0)
(13.5361 6.76986 0)
(20.2854 6.61949 0)
(28.7809 6.06233 0)
(42.0071 5.12141 0)
(56.1375 2.80981 0)
(103.251 2.10704 0)
(261.996 5.39749 0)
(753.934 13.7429 0)
(1245.27 7.9059 0)
(663.909 -4.94858 0)
(1205.19 -5.31287 0)
(-522.431 20.5207 0)
(-22.5974 36.1708 0)
(-124.44 -77.6588 0)
(-68.9882 -360.031 0)
(-62.6239 -529.378 0)
(51.2468 -599.069 0)
(117.476 -558.03 0)
(34.6552 -552.293 0)
(-121.13 -558.777 0)
(-346.742 -587.255 0)
(-605.471 -607.78 0)
(-729.515 -541.766 0)
(-592.545 -335.953 0)
(-347.867 -136.435 0)
(-212.15 -55.7383 0)
(-179.644 -34.134 0)
(-169.247 -26.1318 0)
(-147.113 -17.5014 0)
(-115.492 -7.93522 0)
(-83.0333 1.00493 0)
(-54.8145 7.49327 0)
(-34.7161 10.7092 0)
(-22.8826 11.6076 0)
(-16.2219 11.5204 0)
(-11.4527 11.1939 0)
(-7.22897 10.9022 0)
(-2.52044 10.5748 0)
(2.90123 10.1191 0)
(8.33763 9.6959 0)
(13.2381 9.19189 0)
(19.9127 8.8788 0)
(28.0595 8.24754 0)
(40.4821 7.27576 0)
(54.7782 5.23234 0)
(104.55 4.62781 0)
(267.972 7.34118 0)
(755.943 14.7761 0)
(1236.52 9.38845 0)
(657.952 -3.19685 0)
(1206.84 -3.36839 0)
(-448.371 22.9219 0)
(-264.164 -151.89 0)
(-371.525 -343.562 0)
(-217.719 -533.854 0)
(-45.4364 -550.671 0)
(92.2589 -488.61 0)
(123.439 -471.417 0)
(21.6311 -499.083 0)
(-150.235 -529.904 0)
(-377.608 -576.154 0)
(-568.985 -574.997 0)
(-575.286 -447.588 0)
(-402.687 -235.837 0)
(-237.21 -98.5705 0)
(-174.918 -50.1185 0)
(-167.031 -35.2131 0)
(-160.069 -26.2346 0)
(-136.975 -15.477 0)
(-105.924 -4.20182 0)
(-75.4786 4.90684 0)
(-50.0973 11.2975 0)
(-32.7367 14.338 0)
(-22.4747 15.1957 0)
(-16.4077 15.1336 0)
(-11.7562 14.803 0)
(-7.58589 14.4213 0)
(-2.9967 13.9271 0)
(2.41923 13.3637 0)
(7.83522 12.8308 0)
(12.7487 12.1749 0)
(19.3754 11.694 0)
(27.2361 10.9689 0)
(39.1016 9.98715 0)
(53.5858 8.31509 0)
(105.283 8.06884 0)
(271.775 10.0311 0)
(755.907 16.4789 0)
(1227.95 11.3194 0)
(651.616 -1.84911 0)
(1211.51 -1.00216 0)
(-646.71 -124.986 0)
(-375.754 -212.91 0)
(-492.515 -367.455 0)
(-268.566 -455.626 0)
(-19.0255 -458.748 0)
(127.618 -390.715 0)
(107.384 -405.469 0)
(-21.7051 -457.944 0)
(-195.399 -509.048 0)
(-390.195 -542.377 0)
(-481.579 -487.922 0)
(-402.688 -320.385 0)
(-256.219 -155.502 0)
(-168.902 -74.4832 0)
(-151.096 -45.7181 0)
(-156.629 -34.8038 0)
(-150.228 -24.5974 0)
(-125.881 -12.1941 0)
(-95.8496 -0.537201 0)
(-68.0976 8.66553 0)
(-45.7262 14.6662 0)
(-30.9596 17.4988 0)
(-22.116 18.3499 0)
(-16.6003 18.3646 0)
(-12.1391 18.074 0)
(-8.07301 17.6478 0)
(-3.53958 17.1699 0)
(1.84488 16.6562 0)
(7.19206 15.9902 0)
(12.1427 15.2755 0)
(18.7505 14.7376 0)
(26.4147 14.055 0)
(37.9248 13.2057 0)
(52.9297 12.0163 0)
(106.203 12.5555 0)
(276.077 13.6373 0)
(757.184 19.7068 0)
(1218.86 15.3114 0)
(646.078 0.0957479 0)
(1209.59 3.42143 0)
(-773.98 -113.256 0)
(-497.816 -179.91 0)
(-605.416 -302.239 0)
(-305.692 -352.544 0)
(17.1145 -345.537 0)
(143.6 -313.641 0)
(58.6547 -368.289 0)
(-78.1813 -424.527 0)
(-231.598 -475.455 0)
(-357.251 -467.384 0)
(-355.066 -360.464 0)
(-254.954 -205.98 0)
(-165.727 -102.929 0)
(-131.417 -57.5321 0)
(-136.681 -41.3954 0)
(-146.678 -32.9919 0)
(-138.281 -21.6659 0)
(-113.789 -7.69789 0)
(-85.8227 3.85399 0)
(-60.828 12.9413 0)
(-41.5852 18.4418 0)
(-29.1871 21.0141 0)
(-21.6404 21.834 0)
(-16.6735 21.8958 0)
(-12.447 21.6356 0)
(-8.45712 21.2276 0)
(-3.95227 20.8214 0)
(1.28245 20.3159 0)
(6.50472 19.5403 0)
(11.5417 18.794 0)
(18.1993 18.2451 0)
(25.7599 17.6554 0)
(37.137 17.0299 0)
(52.9593 16.3044 0)
(106.845 17.4993 0)
(278.666 17.8936 0)
(757.52 23.5307 0)
(1209.05 19.1248 0)
(640.158 1.1226 0)
(1208.12 7.64409 0)
(-929.215 -152.887 0)
(-557.865 -150.28 0)
(-658.871 -221.776 0)
(-310.289 -241.58 0)
(18.463 -233.04 0)
(105.693 -279.823 0)
(0.529878 -344.003 0)
(-124.974 -389.105 0)
(-236.697 -414.102 0)
(-279.385 -355.532 0)
(-229.681 -232.735 0)
(-154.519 -127.405 0)
(-113.169 -70.0283 0)
(-109.605 -46.069 0)
(-127.449 -37.1892 0)
(-137.617 -29.1845 0)
(-125.854 -16.4113 0)
(-101.289 -2.72566 0)
(-75.9609 8.61257 0)
(-54.0403 17.0584 0)
(-37.947 22.0402 0)
(-27.6909 24.408 0)
(-21.2663 25.2987 0)
(-16.7914 25.5342 0)
(-12.783 25.4678 0)
(-8.85765 25.2462 0)
(-4.41812 24.9729 0)
(0.610387 24.4989 0)
(5.72552 23.7158 0)
(10.8946 23.0461 0)
(17.6533 22.5584 0)
(25.2436 22.1322 0)
(36.6229 21.7976 0)
(53.382 21.4913 0)
(107.735 23.0799 0)
(281.889 23.6096 0)
(758.371 29.7889 0)
(1197.27 24.2181 0)
(635.015 2.60869 0)
(1201.14 12.5813 0)
(-1066.12 -109.633 0)
(-564.2 -67.4795 0)
(-693.395 -122.389 0)
(-316.546 -167.797 0)
(-19.7387 -178.951 0)
(36.6717 -261.201 0)
(-46.6529 -313.707 0)
(-145.731 -338.231 0)
(-199.246 -317.215 0)
(-182.479 -230.773 0)
(-135.235 -136.75 0)
(-98.1642 -76.387 0)
(-87.3489 -44.8718 0)
(-99.7725 -33.7575 0)
(-120.411 -30.5391 0)
(-126.656 -21.6949 0)
(-112.785 -7.18631 0)
(-89.6754 6.184 0)
(-66.7581 17.3399 0)
(-47.8886 24.9599 0)
(-34.5028 29.3256 0)
(-26.047 31.3274 0)
(-20.5552 32.0149 0)
(-16.5106 32.1143 0)
(-12.7246 31.9537 0)
(-8.934 31.676 0)
(-4.67243 31.3065 0)
(0.0710319 30.7207 0)
(5.10477 29.8941 0)
(10.4263 29.2654 0)
(17.3186 28.8644 0)
(25.0267 28.6067 0)
(36.5195 28.5705 0)
(54.195 28.674 0)
(108.887 30.5707 0)
(285.131 31.8867 0)
(758.106 38.664 0)
(1182.86 30.495 0)
(628.945 5.15396 0)
(1193.49 17.1522 0)
(-1099.89 -19.6998 0)
(-570.158 16.7756 0)
(-755.54 -42.9602 0)
(-364.794 -132.955 0)
(-71.5446 -174.188 0)
(-24.1628 -233.608 0)
(-73.6994 -265.923 0)
(-128.355 -255.809 0)
(-133.147 -199.483 0)
(-105.482 -125.626 0)
(-80.9092 -72.3194 0)
(-65.9814 -40.0905 0)
(-72.0894 -24.6435 0)
(-95.7939 -21.6639 0)
(-115.825 -19.5677 0)
(-115.113 -8.90954 0)
(-98.989 5.95501 0)
(-77.6551 19.537 0)
(-57.8677 30.1345 0)
(-42.4904 36.8192 0)
(-31.8111 40.4193 0)
(-25.0994 41.9829 0)
(-20.508 42.3878 0)
(-16.8503 42.1867 0)
(-13.2054 41.673 0)
(-9.48129 41.0237 0)
(-5.33867 40.2808 0)
(-0.750653 39.3521 0)
(4.32312 38.2979 0)
(9.9023 37.6819 0)
(17.0185 37.2955 0)
(24.9604 37.198 0)
(36.6878 37.4677 0)
(55.3094 38.0305 0)
(110.831 40.3914 0)
(289.688 42.4458 0)
(757.029 48.5035 0)
(1164.98 35.7552 0)
(622.158 6.70249 0)
(1179.64 20.4131 0)
(-1068.94 16.2529 0)
(-586.614 42.5566 0)
(-837.681 -16.0614 0)
(-443.002 -123.209 0)
(-116.731 -177.657 0)
(-51.728 -194.581 0)
(-68.0474 -193.616 0)
(-81.7063 -154.537 0)
(-73.7963 -100.774 0)
(-59.9398 -58.948 0)
(-52.8096 -29.7692 0)
(-52.222 -12.7188 0)
(-69.5924 -7.77206 0)
(-94.8813 -7.76686 0)
(-108.12 -0.680654 0)
(-102.061 12.64 0)
(-85.3725 27.4805 0)
(-66.3752 40.8837 0)
(-50.1044 50.6957 0)
(-37.9778 56.7002 0)
(-29.5269 59.5975 0)
(-24.1502 60.3553 0)
(-20.3588 59.8532 0)
(-17.1994 58.7274 0)
(-13.8452 57.338 0)
(-10.2755 55.9347 0)
(-6.28322 54.5847 0)
(-1.83978 53.2931 0)
(3.49532 52.1458 0)
(9.4604 51.6219 0)
(16.8522 51.333 0)
(25.1926 51.4757 0)
(37.3218 52.143 0)
(57.0124 53.3815 0)
(113.141 56.5083 0)
(292.948 60.0147 0)
(751.659 65.7984 0)
(1142.58 48.1573 0)
(614.16 14.5305 0)
(1167.36 29.7211 0)
(-1043.22 13.9106 0)
(-601.297 25.6647 0)
(-915.278 -15.1202 0)
(-520.513 -101.63 0)
(-140.321 -139.245 0)
(-39.5417 -119.538 0)
(-35.1119 -90.5654 0)
(-38.8896 -56.1172 0)
(-41.034 -26.0263 0)
(-37.0588 -6.30589 0)
(-36.3611 9.40134 0)
(-44.7842 16.5568 0)
(-67.3175 16.3749 0)
(-88.9604 16.9324 0)
(-96.1599 24.6683 0)
(-87.9761 36.7696 0)
(-71.7723 49.3656 0)
(-55.2841 60.0153 0)
(-42.6264 67.2521 0)
(-33.9124 71.556 0)
(-28.2889 73.6474 0)
(-24.853 74.3354 0)
(-22.0767 74.2498 0)
(-19.2741 73.7133 0)
(-15.8965 72.9191 0)
(-12.1345 72.1443 0)
(-7.8842 71.4352 0)
(-3.10082 71.2579 0)
(2.71269 71.3733 0)
(9.11902 72.2186 0)
(16.8776 73.3685 0)
(25.741 74.9816 0)
(38.5243 77.1713 0)
(59.516 80.167 0)
(117.222 85.4268 0)
(298.64 91.9519 0)
(745.603 98.6785 0)
(1115.57 72.9684 0)
(604.392 27.8771 0)
(1137 40.8586 0)
(-1030.8 42.1601 0)
(-614.589 51.3902 0)
(-960.347 26.7042 0)
(-562.612 -18.4402 0)
(-133.987 -33.6728 0)
(-4.8189 -8.04116 0)
(-6.93326 15.6789 0)
(-19.5141 29.1752 0)
(-25.7963 42.8466 0)
(-25.8004 54.7903 0)
(-30.7783 61.9845 0)
(-45.5019 60.1029 0)
(-69.2304 54.6602 0)
(-86.8895 55.0082 0)
(-89.0044 62.6867 0)
(-78.2617 73.9315 0)
(-62.9721 84.9464 0)
(-49.1391 93.2254 0)
(-38.9832 98.6435 0)
(-31.8151 102.421 0)
(-26.8486 106.099 0)
(-23.5697 110.182 0)
(-20.9583 114.273 0)
(-18.4816 118.028 0)
(-15.3572 121.317 0)
(-11.7054 124.419 0)
(-7.13735 126.933 0)
(-1.89943 129.208 0)
(4.42106 130.714 0)
(11.383 132.658 0)
(19.5148 134.725 0)
(28.8571 137.797 0)
(42.3187 141.26 0)
(64.9677 146.337 0)
(124.498 153.715 0)
(305.718 162.287 0)
(733.366 163.072 0)
(1074.35 115.555 0)
(583.218 48 0)
(1101.12 46.8725 0)
(-953.068 44.8587 0)
(-616.191 83.1994 0)
(-982.569 126.201 0)
(-578.694 134.138 0)
(-130.3 124.525 0)
(8.01532 134.415 0)
(0.751184 143.712 0)
(-12.7097 148.819 0)
(-16.3504 157.357 0)
(-18.6169 163.415 0)
(-31.2417 164.921 0)
(-51.8423 161.278 0)
(-72.2269 159.031 0)
(-81.2257 164.784 0)
(-77.9248 177.536 0)
(-66.5258 192.123 0)
(-53.18 205.817 0)
(-42.0851 217.272 0)
(-33.7652 226.743 0)
(-26.7277 234.972 0)
(-20.8102 243.503 0)
(-16.9766 253.145 0)
(-14.5158 263.485 0)
(-12.4861 274.028 0)
(-9.73764 284.204 0)
(-6.72255 294.703 0)
(-3.26947 302.647 0)
(0.542232 310.78 0)
(6.03732 316.748 0)
(12.9844 323.354 0)
(21.8297 329.267 0)
(32.0386 336.407 0)
(46.753 341.824 0)
(71.5177 349.381 0)
(132.593 356.024 0)
(307.657 358.191 0)
(700.57 332.372 0)
(1004.69 215.002 0)
(538.207 56.1689 0)
(1045.58 3.86803 0)
(-907.403 -110.468 0)
(-536.205 30.2885 0)
(-911.26 242.053 0)
(-564.228 376.267 0)
(-133.721 389.357 0)
(13.6703 402.624 0)
(6.94655 418.861 0)
(-6.36456 436.738 0)
(-11.7311 455.923 0)
(-18.5123 471.086 0)
(-32.8375 483.028 0)
(-51.1775 496.282 0)
(-65.8515 515.404 0)
(-69.0569 542.172 0)
(-62.6595 572.679 0)
(-51.0097 604.816 0)
(-38.7377 634.473 0)
(-28.974 660.752 0)
(-21.927 683.671 0)
(-15.6649 703.206 0)
(-9.3371 720.828 0)
(-4.31389 736.759 0)
(-0.83384 749.988 0)
(1.48404 760.857 0)
(4.56516 769.799 0)
(6.06721 778.796 0)
(8.35522 784.2 0)
(11.6885 791.271 0)
(16.5378 796.675 0)
(23.4467 802.685 0)
(32.0935 806.496 0)
(40.9576 808.738 0)
(54.8207 805.879 0)
(78.651 801.527 0)
(132.987 788.908 0)
(282.926 757.616 0)
(595.384 655.76 0)
(808.196 400.623 0)
(379.762 59.5495 0)
(1043.27 -169.783 0)
(-1030.33 1095.53 0)
(-276.489 -464.782 0)
(-649.171 313.409 0)
(-436.747 647.565 0)
(-104.902 732.686 0)
(36.4473 761.137 0)
(33.6247 794.301 0)
(23.0039 832.269 0)
(16.7483 870.512 0)
(7.50245 904.287 0)
(-6.96157 932.433 0)
(-20.6437 961.111 0)
(-28.0057 993.265 0)
(-26.033 1030.31 0)
(-17.5592 1068.49 0)
(-6.97914 1105.57 0)
(0.721795 1138.71 0)
(5.32387 1167.52 0)
(7.14511 1191.68 0)
(9.07853 1210.95 0)
(11.5234 1226.16 0)
(11.1224 1236.47 0)
(8.70514 1241.09 0)
(6.60485 1241.73 0)
(7.54978 1239.22 0)
(7.15503 1235.77 0)
(8.75169 1229.71 0)
(12.5637 1223.63 0)
(17.0358 1215.86 0)
(22.448 1206.93 0)
(27.663 1195.05 0)
(31.4438 1179.01 0)
(39.804 1157.99 0)
(55.1644 1131.71 0)
(90.2796 1092.69 0)
(179.35 1027.48 0)
(356.559 843.979 0)
(430.156 469.666 0)
(-11.4581 -388.01 0)
(1151.8 548.229 0)
(-299.595 78569.3 0)
(-1289.88 271.306 0)
(160.639 -100.364 0)
(-160.197 310.064 0)
(-24.279 475.93 0)
(73.0451 481.431 0)
(75.4924 498.863 0)
(67.0751 513.98 0)
(57.6676 528.61 0)
(41.1566 538.503 0)
(21.9201 546.483 0)
(7.44301 558.863 0)
(0.826874 575.524 0)
(3.43257 594.182 0)
(9.86441 612.173 0)
(16.6606 625.856 0)
(20.9665 635.596 0)
(22.0614 642.337 0)
(19.9212 647.107 0)
(17.5675 650.701 0)
(15.2557 651.997 0)
(10.0722 650.706 0)
(4.23143 649.146 0)
(-0.319214 648.166 0)
(-1.17327 647.222 0)
(-3.0986 644.842 0)
(-3.34192 643.659 0)
(-1.65545 640.252 0)
(0.441595 636.49 0)
(3.39142 631.689 0)
(5.18776 626.145 0)
(5.24633 619.818 0)
(9.24478 612.114 0)
(15.7309 602.807 0)
(32.5444 584.652 0)
(43.2552 543.119 0)
(57.853 394.817 0)
(-378.994 24.2425 0)
(455.468 318.505 0)
(888.874 63609 0)
(74943.3 -78655.3 0)
(-76085.4 1194.81 0)
(-611.822 1639.84 0)
(118.591 1663.02 0)
(60.234 1683.02 0)
(58.5464 1625.71 0)
(64.9897 1546.46 0)
(51.6694 1479.92 0)
(40.3795 1423.24 0)
(24.726 1378.18 0)
(12.6585 1354.87 0)
(7.34134 1342.29 0)
(6.02863 1339.53 0)
(9.28261 1335.18 0)
(12.9634 1326.33 0)
(15.5925 1311.49 0)
(16.6032 1292.86 0)
(16.416 1272.5 0)
(15.2048 1252.93 0)
(13.7904 1236.05 0)
(11.5287 1220.39 0)
(8.37592 1208.25 0)
(6.25719 1201.25 0)
(4.75049 1197.37 0)
(4.34673 1196.65 0)
(3.72105 1194.08 0)
(4.32854 1196 0)
(5.65602 1193.05 0)
(8.78426 1191.85 0)
(12.4787 1183.48 0)
(16.2241 1175.38 0)
(17.9229 1161.26 0)
(23.4111 1151.34 0)
(28.7015 1127.37 0)
(32.7623 1105.23 0)
(-3.58141 1059.6 0)
(-143.449 1064.06 0)
(356.619 1148.43 0)
(61261.1 1087.28 0)
(-60451.1 -62897.1 0)
(74943.3 78655.3 0)
(-76085.4 -1194.81 0)
(-611.822 -1639.84 0)
(118.591 -1663.02 0)
(60.234 -1683.02 0)
(58.5464 -1625.71 0)
(64.9897 -1546.46 0)
(51.6694 -1479.92 0)
(40.3795 -1423.24 0)
(24.726 -1378.18 0)
(12.6585 -1354.87 0)
(7.34134 -1342.29 0)
(6.02863 -1339.53 0)
(9.28261 -1335.18 0)
(12.9634 -1326.33 0)
(15.5925 -1311.49 0)
(16.6032 -1292.86 0)
(16.416 -1272.5 0)
(15.2048 -1252.93 0)
(13.7904 -1236.05 0)
(11.5287 -1220.39 0)
(8.37592 -1208.25 0)
(6.25719 -1201.25 0)
(4.75049 -1197.37 0)
(4.34673 -1196.65 0)
(3.72105 -1194.08 0)
(4.32854 -1196 0)
(5.65602 -1193.05 0)
(8.78426 -1191.85 0)
(12.4787 -1183.48 0)
(16.2241 -1175.38 0)
(17.9229 -1161.26 0)
(23.4111 -1151.34 0)
(28.7015 -1127.37 0)
(32.7623 -1105.23 0)
(-3.58141 -1059.6 0)
(-143.449 -1064.06 0)
(356.619 -1148.43 0)
(61261.1 -1087.28 0)
(-60451.1 62897.1 0)
(-299.595 -78569.3 0)
(-1289.88 -271.306 0)
(160.639 100.364 0)
(-160.197 -310.064 0)
(-24.279 -475.93 0)
(73.0451 -481.431 0)
(75.4924 -498.863 0)
(67.0751 -513.98 0)
(57.6676 -528.61 0)
(41.1566 -538.503 0)
(21.9201 -546.483 0)
(7.44301 -558.863 0)
(0.826874 -575.524 0)
(3.43257 -594.182 0)
(9.86441 -612.173 0)
(16.6606 -625.856 0)
(20.9665 -635.596 0)
(22.0614 -642.337 0)
(19.9212 -647.107 0)
(17.5675 -650.701 0)
(15.2557 -651.997 0)
(10.0722 -650.706 0)
(4.23143 -649.146 0)
(-0.319214 -648.166 0)
(-1.17327 -647.222 0)
(-3.0986 -644.842 0)
(-3.34192 -643.659 0)
(-1.65545 -640.252 0)
(0.441595 -636.49 0)
(3.39142 -631.689 0)
(5.18776 -626.145 0)
(5.24633 -619.818 0)
(9.24478 -612.114 0)
(15.7309 -602.807 0)
(32.5444 -584.652 0)
(43.2552 -543.119 0)
(57.853 -394.817 0)
(-378.994 -24.2425 0)
(455.468 -318.505 0)
(888.874 -63609 0)
(-1030.33 -1095.53 0)
(-276.489 464.782 0)
(-649.171 -313.409 0)
(-436.747 -647.565 0)
(-104.902 -732.686 0)
(36.4473 -761.137 0)
(33.6247 -794.301 0)
(23.0039 -832.269 0)
(16.7483 -870.512 0)
(7.50245 -904.287 0)
(-6.96157 -932.433 0)
(-20.6437 -961.111 0)
(-28.0057 -993.265 0)
(-26.033 -1030.31 0)
(-17.5592 -1068.49 0)
(-6.97914 -1105.57 0)
(0.721795 -1138.71 0)
(5.32387 -1167.52 0)
(7.14511 -1191.68 0)
(9.07853 -1210.95 0)
(11.5234 -1226.16 0)
(11.1224 -1236.47 0)
(8.70514 -1241.09 0)
(6.60485 -1241.73 0)
(7.54978 -1239.22 0)
(7.15503 -1235.77 0)
(8.75169 -1229.71 0)
(12.5637 -1223.63 0)
(17.0358 -1215.86 0)
(22.448 -1206.93 0)
(27.663 -1195.05 0)
(31.4438 -1179.01 0)
(39.804 -1157.99 0)
(55.1644 -1131.71 0)
(90.2796 -1092.69 0)
(179.35 -1027.48 0)
(356.559 -843.979 0)
(430.156 -469.666 0)
(-11.4581 388.01 0)
(1151.8 -548.229 0)
(-907.403 110.468 0)
(-536.205 -30.2885 0)
(-911.26 -242.053 0)
(-564.228 -376.267 0)
(-133.721 -389.357 0)
(13.6703 -402.624 0)
(6.94655 -418.861 0)
(-6.36456 -436.738 0)
(-11.7311 -455.923 0)
(-18.5123 -471.086 0)
(-32.8375 -483.028 0)
(-51.1775 -496.282 0)
(-65.8515 -515.404 0)
(-69.0569 -542.172 0)
(-62.6595 -572.679 0)
(-51.0097 -604.816 0)
(-38.7377 -634.473 0)
(-28.974 -660.752 0)
(-21.927 -683.671 0)
(-15.6649 -703.206 0)
(-9.3371 -720.828 0)
(-4.31389 -736.759 0)
(-0.83384 -749.988 0)
(1.48404 -760.857 0)
(4.56516 -769.799 0)
(6.06721 -778.796 0)
(8.35522 -784.2 0)
(11.6885 -791.271 0)
(16.5378 -796.675 0)
(23.4467 -802.685 0)
(32.0935 -806.496 0)
(40.9576 -808.738 0)
(54.8207 -805.879 0)
(78.651 -801.527 0)
(132.987 -788.908 0)
(282.926 -757.616 0)
(595.384 -655.76 0)
(808.196 -400.623 0)
(379.762 -59.5495 0)
(1043.27 169.783 0)
(-953.068 -44.8587 0)
(-616.191 -83.1994 0)
(-982.569 -126.201 0)
(-578.694 -134.138 0)
(-130.3 -124.525 0)
(8.01532 -134.415 0)
(0.751184 -143.712 0)
(-12.7097 -148.819 0)
(-16.3504 -157.357 0)
(-18.6169 -163.415 0)
(-31.2417 -164.921 0)
(-51.8423 -161.278 0)
(-72.2269 -159.031 0)
(-81.2257 -164.784 0)
(-77.9248 -177.536 0)
(-66.5258 -192.123 0)
(-53.18 -205.817 0)
(-42.0851 -217.272 0)
(-33.7652 -226.743 0)
(-26.7277 -234.972 0)
(-20.8102 -243.503 0)
(-16.9766 -253.145 0)
(-14.5158 -263.485 0)
(-12.4861 -274.028 0)
(-9.73764 -284.204 0)
(-6.72255 -294.703 0)
(-3.26947 -302.647 0)
(0.542232 -310.78 0)
(6.03732 -316.748 0)
(12.9844 -323.354 0)
(21.8297 -329.267 0)
(32.0386 -336.407 0)
(46.753 -341.824 0)
(71.5177 -349.381 0)
(132.593 -356.024 0)
(307.657 -358.191 0)
(700.57 -332.372 0)
(1004.69 -215.002 0)
(538.207 -56.1689 0)
(1045.58 -3.86803 0)
(-1030.8 -42.1601 0)
(-614.589 -51.3902 0)
(-960.347 -26.7042 0)
(-562.612 18.4402 0)
(-133.987 33.6728 0)
(-4.8189 8.04116 0)
(-6.93326 -15.6789 0)
(-19.5141 -29.1752 0)
(-25.7963 -42.8466 0)
(-25.8004 -54.7903 0)
(-30.7783 -61.9845 0)
(-45.5019 -60.1029 0)
(-69.2304 -54.6602 0)
(-86.8895 -55.0082 0)
(-89.0044 -62.6867 0)
(-78.2617 -73.9315 0)
(-62.9721 -84.9464 0)
(-49.1391 -93.2254 0)
(-38.9832 -98.6435 0)
(-31.8151 -102.421 0)
(-26.8486 -106.099 0)
(-23.5697 -110.182 0)
(-20.9583 -114.273 0)
(-18.4816 -118.028 0)
(-15.3572 -121.317 0)
(-11.7054 -124.419 0)
(-7.13735 -126.933 0)
(-1.89943 -129.208 0)
(4.42106 -130.714 0)
(11.383 -132.658 0)
(19.5148 -134.725 0)
(28.8571 -137.797 0)
(42.3187 -141.26 0)
(64.9677 -146.337 0)
(124.498 -153.715 0)
(305.718 -162.287 0)
(733.366 -163.072 0)
(1074.35 -115.555 0)
(583.218 -48 0)
(1101.12 -46.8725 0)
(-1043.22 -13.9106 0)
(-601.297 -25.6647 0)
(-915.278 15.1202 0)
(-520.513 101.63 0)
(-140.321 139.245 0)
(-39.5417 119.538 0)
(-35.1119 90.5654 0)
(-38.8896 56.1172 0)
(-41.034 26.0263 0)
(-37.0588 6.30589 0)
(-36.3611 -9.40134 0)
(-44.7842 -16.5568 0)
(-67.3175 -16.3749 0)
(-88.9604 -16.9324 0)
(-96.1599 -24.6683 0)
(-87.9761 -36.7696 0)
(-71.7723 -49.3656 0)
(-55.2841 -60.0153 0)
(-42.6264 -67.2521 0)
(-33.9124 -71.556 0)
(-28.2889 -73.6474 0)
(-24.853 -74.3354 0)
(-22.0767 -74.2498 0)
(-19.2741 -73.7133 0)
(-15.8965 -72.9191 0)