/*--------------------------------*- C++ -*----------------------------------*\
| =========                 |                                                 |
| \\      /  F ield         | OpenFOAM: The Open Source CFD Toolbox           |
|  \\    /   O peration     | Version:  v1912                                 |
|   \\  /    A nd           | Website:  www.openfoam.com                      |
|    \\/     M anipulation  |                                                 |
\*---------------------------------------------------------------------------*/
FoamFile
{
    version     2.0;
    format      ascii;
    class       volScalarField;
    location    "6.62";
    object      p;
}
// * * * * * * * * * * * * * * * * * * * * * * * * * * * * * * * * * * * * * //

dimensions      [1 -1 -2 0 0 0 0];


internalField   nonuniform List<scalar> 
1900
(
28830
9248.59
8603.56
8623.15
8632.15
8640.57
8642.88
8632.71
8615.34
8595.46
28830
9248.54
8603.46
8622.99
8631.89
8640.42
8643.6
8634.71
8620.57
8587.29
28829.9
9248.51
8603.39
8622.97
8632.03
8640.91
8643.63
8632.11
8611.15
8576.53
28830
9248.54
8603.46
8622.99
8631.89
8640.42
8643.6
8634.71
8620.57
8587.29
28830
9248.59
8603.56
8623.15
8632.15
8640.57
8642.88
8632.71
8615.34
8595.46
8706.9
8545.38
8479.05
8311.75
8571.06
8562.75
8454.03
8395.12
8229.77
8125.93
8535.15
8435.82
8381.08
8253.36
8161.83
8562.75
8454.03
8395.12
8229.77
8125.93
8706.9
8545.38
8479.05
8311.75
8571.06
3604.33
2105.7
1501.61
1106.53
810.359
4075.08
2321.35
1619.23
1190.27
883.762
4187.04
2280.63
1569.77
1155.24
849.287
4075.08
2321.35
1619.23
1190.27
883.762
3604.33
2105.7
1501.61
1106.53
810.359
789.048
715.716
555.132
500.535
592.391
1168.59
1397.33
1413.32
1395.57
1317.37
1198.69
1060.24
889.696
703.6
574.273
516.625
486.384
462.453
441.3
422.96
409.882
402.223
398.097
395.648
393.949
392.821
392.141
392.25
393.172
394.853
396.974
400.67
405.489
413.805
422.233
440.474
489.002
647.879
840.715
836.888
764.283
689.762
533.728
475.72
583.342
1182.55
1409.49
1418.96
1405.89
1336.22
1213.16
1068.05
893.769
705.438
574.905
516.78
486.477
462.522
441.4
422.987
409.87
402.201
398.076
395.629
393.932
392.805
392.125
392.233
393.156
394.839
396.957
400.659
405.474
413.819
422.229
440.444
488.892
647.935
840.773
837.027
752.559
687.504
530.487
473.46
572.007
1182.92
1417.31
1427.27
1411.15
1332.3
1208.76
1066.44
894.4
706.47
575.263
516.844
486.523
462.555
441.432
423.001
409.868
402.194
398.069
395.624
393.927
392.801
392.12
392.228
393.15
394.833
396.95
400.654
405.468
413.821
422.225
440.44
488.833
647.966
840.813
837.142
764.283
689.762
533.728
475.72
583.342
1182.55
1409.49
1418.96
1405.89
1336.22
1213.16
1068.05
893.769
705.438
574.905
516.78
486.477
462.522
441.4
422.987
409.87
402.201
398.076
395.629
393.932
392.805
392.125
392.233
393.156
394.839
396.957
400.659
405.474
413.819
422.229
440.444
488.892
647.935
840.773
837.027
789.048
715.716
555.132
500.535
592.391
1168.59
1397.33
1413.32
1395.57
1317.37
1198.69
1060.24
889.696
703.6
574.273
516.625
486.384
462.453
441.3
422.96
409.882
402.223
398.097
395.648
393.949
392.821
392.141
392.25
393.172
394.853
396.974
400.67
405.489
413.805
422.233
440.474
489.002
647.879
840.715
836.888
951.032
858.068
688.399
608.522
729.806
1152.18
1321.73
1357.04
1354.14
1285.74
1176.66
1044.18
877.341
695.123
570.795
515.733
486.027
462.022
440.788
422.77
409.907
402.316
398.19
395.729
394.02
392.886
392.206
392.317
393.235
394.911
397.037
400.708
405.524
413.728
422.205
440.581
489.301
647.686
840.041
836.117
938.102
833.961
808.529
844.397
908.814
1121.42
1233.52
1278.12
1257.59
1197.07
1113.49
999.118
842.04
671.877
562.099
513.568
485.03
460.869
439.707
422.278
409.922
402.535
398.429
395.939
394.206
393.06
392.381
392.498
393.405
395.073
397.207
400.836
405.606
413.597
422.114
440.814
490.046
647.876
839.309
835.13
944.111
871.767
878.298
930.86
1028.07
1096.01
1155.56
1163.04
1157.73
1120.52
1050.82
941.485
790.571
639.849
551.229
510.625
483.293
459.155
438.332
421.645
409.954
402.886
398.841
396.325
394.559
393.393
392.714
392.833
393.721
395.373
397.518
401.092
405.792
413.494
422.025
441.157
491.166
648.208
838.439
834.225
963.189
948.37
944.838
967.182
995.249
1020.84
1060.7
1089.84
1072.91
1042.97
979.258
872.675
731.088
606.818
540.824
507.18
480.923
457.058
436.848
421.036
410.115
403.435
399.483
396.944
395.14
393.949
393.265
393.376
394.235
395.862
398.012
401.525
406.125
413.52
421.988
441.585
492.597
648.805
837.594
833.244
939.894
921.781
893.266
924.605
953.099
975.455
986.063
997.005
992.209
964.955
901.353
796.43
671.115
578.278
531.626
503.066
477.847
454.639
435.356
420.606
410.511
404.258
400.418
397.862
396.016
394.793
394.094
394.176
394.992
396.577
398.715
402.155
406.629
413.707
422.067
442.101
494.116
649.433
836.566
832.008
917.213
939.119
910.999
904.897
892.027
887.676
906.12
919.982
915.65
886.671
820.296
720.167
619.679
557.217
524.016
498.876
474.614
452.333
434.158
420.572
411.323
405.498
401.776
399.206
397.315
396.056
395.327
395.363
396.125
397.656
399.766
403.132
407.482
414.264
422.546
443.016
496.239
650.9
836.283
831.837
945.332
931.366
872.687
829.197
812.814
816.702
838.185
850.647
844.134
809.333
740.291
652.862
582.088
542.123
516.855
494.02
470.922
450.001
433.254
420.872
412.497
407.096
403.494
400.915
398.982
397.682
396.896
396.858
397.561
399.013
401.067
404.341
408.557
415.094
423.293
444.047
498.032
651.921
835.718
831.115
923.287
898.868
819.955
763.426
746.099
758.194
781.194
787.725
775.225
733.99
667.922
601.556
557.182
531.096
510.734
489.544
467.661
448.231
433.044
421.873
414.317
409.298
405.803
403.216
401.238
399.878
399.018
398.904
399.525
400.882
402.865
406.039
410.129
416.468
424.684
445.674
500.605
653.899
835.793
831.571
912.21
874.945
775.311
708.456
691.246
713.162
730.736
729.292
709.236
665.603
610.992
567.96
540.88
522.385
504.74
484.797
464.403
446.77
433.111
423.169
416.384
411.733
408.357
405.782
403.772
402.359
401.446
401.272
401.799
403.061
404.973
408.066
412.057
418.278
426.621
447.661
503.254
655.979
835.744
832.022
893.274
851.192
739.861
670.002
654.532
675.079
683.597
675.225
649.23
610.133
572.399
546.971
529.906
515.85
499.765
480.801
461.92
446.191
434.065
425.302
419.204
414.867
411.589
409.018
406.972
405.503
404.536
404.288
404.704
405.863
407.7
410.717
414.642
420.789
429.322
450.416
506.841
658.968
836.09
833.597
871.695
835.121
716.54
644.437
629.49
639.009
639.575
626.18
599.499
571.387
549.317
534.197
522.322
510.176
494.885
477.063
460.054
446.048
435.394
427.689
422.224
418.201
415.061
412.548
410.521
409.049
408.064
407.764
408.084
409.168
410.951
413.931
417.833
423.973
432.737
453.917
511.148
662.396
836.435
835.356
864.222
833.31
707.428
625.536
607.11
605.861
600.465
585.594
565.168
548.978
536.16
526.728
518.015
506.904
491.672
475.052
460.016
447.83
438.66
431.916
426.976
423.168
420.073
417.529
415.439
413.897
412.832
412.429
412.626
413.618
415.349
418.298
422.213
428.387
437.423
458.866
517.087
667.049
837.456
838.142
866.475
839.566
705.156
609.204
583.33
577.103
569.105
558.39
546.636
538.096
530.153
523.573
515.792
504.435
489.699
474.702
461.632
451.225
443.379
437.446
432.935
429.326
426.294
423.728
421.564
419.92
418.738
418.192
418.233
419.154
420.834
423.788
427.762
434.051
443.441
465.165
524.001
671.872
838.211
840.766
868.529
844.587
703.172
592.886
560.031
554.297
549.157
544.642
538.462
533.357
528.271
523.358
515.955
504.846
491.491
478.402
467.298
458.664
452.095
446.942
442.769
439.163
435.934
433.091
430.634
428.72
427.297
426.552
426.444
427.298
428.952
431.939
436.031
442.533
452.398
474.769
534.524
679.81
841.306
846.018
870.161
846.368
701.149
582.272
546.431
545.426
545.105
543.519
539.739
536.425
532.644
527.961
520.131
508.923
496.236
484.446
474.714
467.129
461.201
456.409
452.452
449.025
445.97
443.262
440.888
439.039
437.669
437.076
437.146
438.292
440.277
443.658
448.212
455.296
466.079
489.533
550.151
691.208
845.599
851.593
879.701
858.205
710.249
587.999
551.108
552.166
553.312
552.373
549.817
547.877
544.697
539.285
530.44
519.423
508.103
497.993
489.809
483.369
478.235
474.084
470.885
468.361
466.217
464.369
462.783
461.691
460.934
460.792
461.083
462.452
464.654
468.455
473.465
481.312
493.132
517.776
577.738
710.433
854.026
858.439
882.049
868.415
734.592
617.819
579.43
581.046
583.189
582.956
581.439
579.73
576.348
570.7
562.274
552.59
543.283
535.359
529.256
524.706
521.288
518.676
516.98
516.109
515.794
515.879
516.202
517.135
517.87
519.432
521.085
523.98
527.533
532.806
538.796
547.882
560.425
584.453
638.23
748.184
860.483
852.618
850.427
866.232
774.393
687.71
654.287
658.862
664.31
668.109
670.636
672.714
672.699
670.8
667.022
663.098
659.863
658.27
657.944
658.468
659.408
660.433
661.905
663.602
664.963
665.996
666.78
668.072
668.747
670.479
672.202
675.164
678.376
682.771
687.023
693.717
702.193
718.544
751.514
816.598
869.807
813.447
1172.36
745.248
817.646
789.424
773.591
782.747
793.679
803.507
812.124
819.366
823.443
825.394
825.489
825.621
826.433
828.334
831.015
834.1
837.082
839.578
841.913
843.773
844.683
844.937
844.595
844.614
843.743
843.695
843.288
843.817
844.22
845.243
845.663
847.786
849.989
856.736
861.884
872.645
757.661
997.899
21671.3
938.128
747.796
769.877
780.408
786.441
796.509
804.313
810.718
815.418
817.517
818.899
819.536
820.557
822.089
824.122
826.377
828.687
830.891
832.869
834.684
836.039
836.987
837.76
838.294
838.955
839.317
840.146
840.872
842.561
844.304
847.023
849.233
853.461
857.126
862.471
856.141
823.022
954.211
17669.8
21671.3
938.128
747.796
769.877
780.408
786.441
796.509
804.313
810.718
815.418
817.517
818.899
819.536
820.557
822.089
824.122
826.377
828.687
830.891
832.869
834.684
836.039
836.987
837.76
838.294
838.955
839.317
840.146
840.872
842.561
844.304
847.023
849.233
853.461
857.126
862.471
856.141
823.022
954.211
17669.8
1172.36
745.248
817.646
789.424
773.591
782.747
793.679
803.507
812.124
819.366
823.443
825.394
825.489
825.621
826.433
828.334
831.015
834.1
837.082
839.578
841.913
843.773
844.683
844.937
844.595
844.614
843.743
843.695
843.288
843.817
844.22
845.243
845.663
847.786
849.989
856.736
861.884
872.645
757.661
997.899
850.427
866.232
774.393
687.71
654.287
658.862
664.31
668.109
670.636
672.714
672.699
670.8
667.022
663.098
659.863
658.27
657.944
658.468
659.408
660.433
661.905
663.602
664.963
665.996
666.78
668.072
668.747
670.479
672.202
675.164
678.376
682.771
687.023
693.717
702.193
718.544
751.514
816.598
869.807
813.447
882.049
868.415
734.592
617.819
579.43
581.046
583.189
582.956
581.439
579.73
576.348
570.7
562.274
552.59
543.283
535.359
529.256
524.706
521.288
518.676
516.98
516.109
515.794
515.879
516.202
517.135
517.87
519.432
521.085
523.98
527.533
532.806
538.796
547.882
560.425
584.453
638.23
748.184
860.483
852.618
879.701
858.205
710.249
587.999
551.108
552.166
553.312
552.373
549.817
547.877
544.697
539.285
530.44
519.423
508.103
497.993
489.809
483.369
478.235
474.084
470.885
468.361
466.217
464.369
462.783
461.691
460.934
460.792
461.083
462.452
464.654
468.455
473.465
481.312
493.132
517.776
577.738
710.433
854.026
858.439
870.161
846.368
701.149
582.272
546.431
545.426
545.105
543.519
539.739
536.425
532.644
527.961
520.131
508.923
496.236
484.446
474.714
467.129
461.201
456.409
452.452
449.025
445.97
443.262
440.888
439.039
437.669
437.076
437.146
438.292
440.277
443.658
448.212
455.296
466.079
489.533
550.151
691.208
845.599
851.593
868.529
844.587
703.172
592.886
560.031
554.297
549.157
544.642
538.462
533.357
528.271
523.358
515.955
504.846
491.491
478.402
467.298
458.664
452.095
446.942
442.769
439.163
435.934
433.091
430.634
428.72
427.297
426.552
426.444
427.298
428.952
431.939
436.031
442.533
452.398
474.769
534.524
679.81
841.306
846.018
866.475
839.566
705.156
609.204
583.33
577.103
569.105
558.39
546.636
538.096
530.153
523.573
515.792
504.435
489.699
474.702
461.632
451.225
443.379
437.446
432.935
429.326
426.294
423.728
421.564
419.92
418.738
418.192
418.233
419.154
420.834
423.788
427.762
434.051
443.441
465.165
524.001
671.872
838.211
840.766
864.222
833.31
707.428
625.536
607.11
605.861
600.465
585.594
565.168
548.978
536.16
526.728
518.015
506.904
491.672
475.052
460.016
447.83
438.66
431.916
426.976
423.168
420.073
417.529
415.439
413.897
412.832
412.429
412.626
413.618
415.349
418.298
422.213
428.387
437.423
458.866
517.087
667.049
837.456
838.142
871.695
835.121
716.54
644.437
629.49
639.009
639.575
626.18
599.499
571.387
549.317
534.197
522.322
510.176
494.885
477.063
460.054
446.048
435.394
427.689
422.224
418.201
415.061
412.548
410.521
409.049
408.064
407.764
408.084
409.168
410.951
413.931
417.833
423.973
432.737
453.917
511.148
662.396
836.435
835.356
893.274
851.192
739.861
670.002
654.532
675.079
683.597
675.225
649.23
610.133
572.399
546.971
529.906
515.85
499.765
480.801
461.92
446.191
434.065
425.302
419.204
414.867
411.589
409.018
406.972
405.503
404.536
404.288
404.704
405.863
407.7
410.717
414.642
420.789
429.322
450.416
506.841
658.968
836.09
833.597
912.21
874.945
775.311
708.456
691.246
713.162
730.736
729.292
709.236
665.603
610.992
567.96
540.88
522.385
504.74
484.797
464.403
446.77
433.111
423.169
416.384
411.733
408.357
405.782
403.772
402.359
401.446
401.272
401.799
403.061
404.973
408.066
412.057
418.278
426.621
447.661
503.254
655.979
835.744
832.022
923.287
898.868
819.955
763.426
746.099
758.194
781.194
787.725
775.225
733.99
667.922
601.556
557.182
531.096
510.734
489.544
467.661
448.231
433.044
421.873
414.317
409.298
405.803
403.216
401.238
399.878
399.018
398.904
399.525
400.882
402.865
406.039
410.129
416.468
424.684
445.674
500.605
653.899
835.793
831.571
945.332
931.366
872.687
829.197
812.814
816.702
838.185
850.647
844.134
809.333
740.291
652.862
582.088
542.123
516.855
494.02
470.922
450.001
433.254
420.872
412.497
407.096
403.494
400.915
398.982
397.682
396.896
396.858
397.561
399.013
401.067
404.341
408.557
415.094
423.293
444.047
498.032
651.921
835.718
831.115
917.213
939.119
910.999
904.897
892.027
887.676
906.12
919.982
915.65
886.671
820.296
720.167
619.679
557.217
524.016
498.876
474.614
452.333
434.158
420.572
411.323
405.498
401.776
399.206
397.315
396.056
395.327
395.363
396.125
397.656
399.766
403.132
407.482
414.264
422.546
443.016
496.239
650.9
836.283
831.837
939.894
921.781
893.266
924.605
953.099
975.455
986.063
997.005
992.209
964.955
901.353
796.43
671.115
578.278
531.626
503.066
477.847
454.639
435.356
420.606
410.511
404.258
400.418
397.862
396.016
394.793
394.094
394.176
394.992
396.577
398.715
402.155
406.629
413.707
422.067
442.101
494.116
649.433
836.566
832.008
963.189
948.37
944.838
967.182
995.249
1020.84
1060.7
1089.84
1072.91
1042.97
979.258
872.675
731.088
606.818
540.824
507.18
480.923
457.058
436.848
421.036
410.115
403.435
399.483
396.944
395.14
393.949
393.265
393.376
394.235
395.862
398.012
401.525
406.125
413.52
421.988
441.585
492.597
648.805
837.594
833.244
944.111
871.767
878.298
930.86
1028.07
1096.01
1155.56
1163.04
1157.73
1120.52
1050.82
941.485
790.571
639.849
551.229
510.625
483.293
459.155
438.332
421.645
409.954
402.886
398.841
396.325
394.559
393.393
392.714
392.833
393.721
395.373
397.518
401.092
405.792
413.494
422.025
441.157
491.166
648.208
838.439
834.225
938.102
833.961
808.529
844.397
908.814
1121.42
1233.52
1278.12
1257.59
1197.07
1113.49
999.118
842.04
671.877
562.099
513.568
485.03
460.869
439.707
422.278
409.922
402.535
398.429
395.939
394.206
393.06
392.381
392.498
393.405
395.073
397.207
400.836
405.606
413.597
422.114
440.814
490.046
647.876
839.309
835.13
951.032
858.068
688.399
608.522
729.806
1152.18
1321.73
1357.04
1354.14
1285.74
1176.66
1044.18
877.341
695.123
570.795
515.733
486.027
462.022
440.788
422.77
409.907
402.316
398.19
395.729
394.02
392.886
392.206
392.317
393.235
394.911
397.037
400.708
405.524
413.728
422.205
440.581
489.301
647.686
840.041
836.117
)
;

boundaryField
{
    inlet
    {
        type            fixedValue;
        value           uniform 10000;
    }
    outlet
    {
        type            fixedValue;
        value           uniform 1000;
    }
    obstacle
    {
        type            zeroGradient;
    }
    empty
    {
        type            empty;
    }
}


// ************************************************************************* //
