/*--------------------------------*- C++ -*----------------------------------*\
| =========                 |                                                 |
| \\      /  F ield         | OpenFOAM: The Open Source CFD Toolbox           |
|  \\    /   O peration     | Version:  v1912                                 |
|   \\  /    A nd           | Website:  www.openfoam.com                      |
|    \\/     M anipulation  |                                                 |
\*---------------------------------------------------------------------------*/
FoamFile
{
    version     2.0;
    format      ascii;
    class       volVectorField;
    location    "1.16";
    object      U;
}
// * * * * * * * * * * * * * * * * * * * * * * * * * * * * * * * * * * * * * //

dimensions      [0 1 -1 0 0 0 0];


internalField   nonuniform List<vector> 
4800
(
(-6.36247 0.000215379 0)
(-1.82659 -0.00689689 0)
(0.944471 0.0254358 0)
(0.83803 0.029359 0)
(0.692665 0.0164476 0)
(0.530226 0.0167392 0)
(0.44582 0.0314274 0)
(0.387548 0.0228181 0)
(0.103565 0.000894702 0)
(-0.562699 -0.0254658 0)
(-1.00293 -0.0432491 0)
(-1.03898 -0.0461035 0)
(-0.958756 -0.044491 0)
(-0.839181 -0.0381363 0)
(-0.720078 -0.0315065 0)
(-0.606844 -0.0268382 0)
(-0.494386 -0.021322 0)
(-0.37984 -0.0149031 0)
(-0.261917 -0.0044403 0)
(-0.136794 0.00431899 0)
(-0.00891961 0.0103102 0)
(0.113506 0.0156608 0)
(0.223736 0.0199796 0)
(0.318795 0.0212437 0)
(0.398562 0.0192765 0)
(0.460173 0.0114182 0)
(0.506156 0.00416102 0)
(0.539612 -0.00653887 0)
(0.558983 -0.0057128 0)
(0.552512 0.00605327 0)
(0.46648 0.0177991 0)
(0.0528336 0.0276991 0)
(-0.62201 0.0370948 0)
(-0.787958 0.0361125 0)
(-0.740123 0.0372975 0)
(-0.624836 0.0350144 0)
(-0.508634 0.0312409 0)
(-0.41294 0.0276667 0)
(-0.337791 0.0241958 0)
(-0.265712 0.0197245 0)
(-6.36247 0.00303693 0)
(-1.82604 -0.0305062 0)
(0.921185 0.0394528 0)
(0.821187 0.0402629 0)
(0.708672 0.0127026 0)
(0.566172 0.0311217 0)
(0.478847 0.100601 0)
(0.390177 0.0970314 0)
(0.0620684 0.0648006 0)
(-0.624185 -0.0175152 0)
(-1.01265 -0.0881038 0)
(-1.02705 -0.0834016 0)
(-0.936156 -0.069421 0)
(-0.819012 -0.0496559 0)
(-0.704558 -0.036115 0)
(-0.594365 -0.0317738 0)
(-0.484344 -0.0261925 0)
(-0.37435 -0.0137559 0)
(-0.260569 -0.00173985 0)
(-0.140227 0.00600906 0)
(-0.01545 0.00972489 0)
(0.105391 0.0120653 0)
(0.215443 0.0124006 0)
(0.311531 0.0110734 0)
(0.391832 0.00443525 0)
(0.45466 -0.0109676 0)
(0.506335 -0.0179217 0)
(0.550577 -0.0205133 0)
(0.583514 0.00377364 0)
(0.585258 0.057788 0)
(0.490252 0.0944454 0)
(0.0547194 0.116068 0)
(-0.637747 0.125492 0)
(-0.806769 0.112933 0)
(-0.764449 0.0983837 0)
(-0.654687 0.0796708 0)
(-0.541889 0.0601977 0)
(-0.445094 0.0474522 0)
(-0.370314 0.0384958 0)
(-0.303574 0.0333696 0)
(-6.36256 0.00316197 0)
(-1.83152 -0.0652469 0)
(0.875365 0.0534672 0)
(0.784821 0.0572688 0)
(0.721822 0.0232516 0)
(0.598986 0.0573222 0)
(0.497329 0.146043 0)
(0.353431 0.141615 0)
(-0.0392889 0.087635 0)
(-0.738183 -0.0310469 0)
(-1.03728 -0.126759 0)
(-1.02353 -0.133414 0)
(-0.923142 -0.120978 0)
(-0.812355 -0.0974692 0)
(-0.707593 -0.0760745 0)
(-0.601753 -0.0635316 0)
(-0.490418 -0.0494212 0)
(-0.373825 -0.0290159 0)
(-0.254354 -0.011066 0)
(-0.134571 0.0017249 0)
(-0.0162688 0.00890217 0)
(0.0987644 0.012651 0)
(0.208048 0.0155768 0)
(0.30666 0.0164113 0)
(0.389188 0.0111833 0)
(0.450841 -0.00612189 0)
(0.507486 -0.0143065 0)
(0.56808 -0.011188 0)
(0.610106 0.0229566 0)
(0.641795 0.0804133 0)
(0.543022 0.126564 0)
(0.084242 0.156931 0)
(-0.638112 0.172495 0)
(-0.81716 0.170995 0)
(-0.783896 0.15147 0)
(-0.680033 0.132487 0)
(-0.57088 0.108455 0)
(-0.471261 0.093181 0)
(-0.395683 0.0817315 0)
(-0.330451 0.0767446 0)
(-6.36179 6.54156e-05 0)
(-1.84022 -0.0973365 0)
(0.817102 0.0562018 0)
(0.739166 0.0662752 0)
(0.729908 0.0345987 0)
(0.639285 0.0806389 0)
(0.52895 0.175464 0)
(0.319312 0.190907 0)
(-0.179879 0.122988 0)
(-0.886398 -0.041103 0)
(-1.08166 -0.14126 0)
(-1.02625 -0.159524 0)
(-0.907364 -0.154015 0)
(-0.797113 -0.138143 0)
(-0.696616 -0.115124 0)
(-0.594756 -0.0936175 0)
(-0.483374 -0.0703472 0)
(-0.363134 -0.0444796 0)
(-0.241439 -0.0234509 0)
(-0.125239 -0.0136805 0)
(-0.0133972 -0.00640916 0)
(0.0986941 0.000762828 0)
(0.207355 0.00939295 0)
(0.304918 0.0164585 0)
(0.385091 0.0189708 0)
(0.449537 0.0108751 0)
(0.516866 0.00859806 0)
(0.581839 0.0164854 0)
(0.648684 0.0448497 0)
(0.695673 0.0910364 0)
(0.594624 0.133447 0)
(0.11649 0.168033 0)
(-0.626125 0.193669 0)
(-0.818354 0.213698 0)
(-0.80594 0.198593 0)
(-0.707194 0.182427 0)
(-0.602866 0.15791 0)
(-0.502888 0.13955 0)
(-0.425068 0.126393 0)
(-0.357552 0.117266 0)
(-6.35729 -0.00224217 0)
(-1.84789 -0.11357 0)
(0.759142 0.0495215 0)
(0.696731 0.0686651 0)
(0.729535 0.0498635 0)
(0.681265 0.0987982 0)
(0.582047 0.183202 0)
(0.296729 0.21451 0)
(-0.351825 0.126008 0)
(-1.0202 -0.0477879 0)
(-1.12856 -0.129197 0)
(-1.03449 -0.15339 0)
(-0.906332 -0.155586 0)
(-0.791416 -0.152238 0)
(-0.686111 -0.139698 0)
(-0.583429 -0.124956 0)
(-0.474994 -0.101511 0)
(-0.356017 -0.0759643 0)
(-0.233249 -0.0551132 0)
(-0.117603 -0.0436939 0)
(-0.0096407 -0.0343374 0)
(0.0975354 -0.0231307 0)
(0.205274 -0.00811795 0)
(0.308121 0.00628198 0)
(0.393782 0.0216679 0)
(0.461849 0.0303029 0)
(0.533578 0.0398578 0)
(0.606998 0.0513121 0)
(0.685162 0.0713069 0)
(0.740727 0.103843 0)
(0.639736 0.138432 0)
(0.145273 0.161176 0)
(-0.608726 0.184685 0)
(-0.808593 0.217216 0)
(-0.823014 0.233033 0)
(-0.737603 0.227317 0)
(-0.637025 0.209377 0)
(-0.537795 0.190621 0)
(-0.457062 0.173331 0)
(-0.383836 0.159312 0)
(-6.34892 -0.0063756 0)
(-1.85116 -0.115573 0)
(0.717946 0.0451522 0)
(0.666844 0.072085 0)
(0.722145 0.0731147 0)
(0.711461 0.113317 0)
(0.643573 0.176998 0)
(0.288775 0.204948 0)
(-0.528833 0.100843 0)
(-1.12091 -0.0459433 0)
(-1.16278 -0.102642 0)
(-1.04927 -0.128092 0)
(-0.919145 -0.141512 0)
(-0.799115 -0.147134 0)
(-0.687868 -0.14237 0)
(-0.578534 -0.137996 0)
(-0.467834 -0.127665 0)
(-0.350866 -0.11392 0)
(-0.228805 -0.0978876 0)
(-0.109073 -0.082717 0)
(0.00473026 -0.0685066 0)
(0.115288 -0.0510791 0)
(0.223742 -0.0281171 0)
(0.328089 -0.00670416 0)
(0.417404 0.015986 0)
(0.490349 0.0366438 0)
(0.560405 0.0596569 0)
(0.63179 0.0856752 0)
(0.71485 0.0984918 0)
(0.773455 0.116992 0)
(0.67081 0.147228 0)
(0.160158 0.158627 0)
(-0.592764 0.163646 0)
(-0.783647 0.201918 0)
(-0.820068 0.237457 0)
(-0.76265 0.259122 0)
(-0.670147 0.254614 0)
(-0.580118 0.234701 0)
(-0.495418 0.213495 0)
(-0.414932 0.19655 0)
(-6.34085 -0.00815892 0)
(-1.85058 -0.102884 0)
(0.700833 0.0452741 0)
(0.648615 0.0735009 0)
(0.714129 0.100837 0)
(0.730095 0.125802 0)
(0.692407 0.162368 0)
(0.279497 0.169267 0)
(-0.68088 0.053889 0)
(-1.18566 -0.0403765 0)
(-1.1882 -0.0706216 0)
(-1.0712 -0.0894959 0)
(-0.940606 -0.106585 0)
(-0.815163 -0.12323 0)
(-0.69847 -0.130155 0)
(-0.587381 -0.137324 0)
(-0.474365 -0.14048 0)
(-0.356611 -0.142719 0)
(-0.234064 -0.133368 0)
(-0.10767 -0.120884 0)
(0.0149696 -0.104729 0)
(0.132436 -0.0887858 0)
(0.244035 -0.066875 0)
(0.350573 -0.0441672 0)
(0.446277 -0.0137014 0)
(0.527646 0.0213185 0)
(0.597892 0.0633512 0)
(0.667034 0.104191 0)
(0.744405 0.123995 0)
(0.797888 0.134462 0)
(0.691168 0.159561 0)
(0.152921 0.158459 0)
(-0.587565 0.139563 0)
(-0.753758 0.17548 0)
(-0.796333 0.221463 0)
(-0.766445 0.26453 0)
(-0.697813 0.28023 0)
(-0.622342 0.267114 0)
(-0.534166 0.246452 0)
(-0.447556 0.22899 0)
(-6.33795 -0.0106238 0)
(-1.84885 -0.0838552 0)
(0.697668 0.0556265 0)
(0.643186 0.0847337 0)
(0.701685 0.113702 0)
(0.739754 0.124717 0)
(0.713056 0.142715 0)
(0.248469 0.121675 0)
(-0.797088 0.00441538 0)
(-1.20553 -0.0419273 0)
(-1.19425 -0.040406 0)
(-1.08959 -0.0448176 0)
(-0.959226 -0.0588789 0)
(-0.834059 -0.0803844 0)
(-0.716967 -0.0969043 0)
(-0.605969 -0.116968 0)
(-0.492381 -0.136249 0)
(-0.36955 -0.156785 0)
(-0.236808 -0.153665 0)
(-0.102882 -0.14151 0)
(0.0281964 -0.127458 0)
(0.151571 -0.116899 0)
(0.266326 -0.100938 0)
(0.376569 -0.0805018 0)
(0.480149 -0.0469332 0)
(0.569187 -0.000538538 0)
(0.645198 0.0518749 0)
(0.713908 0.10551 0)
(0.781424 0.13739 0)
(0.821508 0.145355 0)
(0.705029 0.168108 0)
(0.12464 0.161497 0)
(-0.594244 0.125456 0)
(-0.735497 0.149377 0)
(-0.75945 0.194417 0)
(-0.745563 0.249578 0)
(-0.714935 0.280406 0)
(-0.650505 0.283808 0)
(-0.570982 0.268668 0)
(-0.477178 0.253652 0)
(-6.33987 -0.0121336 0)
(-1.84809 -0.0617325 0)
(0.700903 0.0674266 0)
(0.645782 0.0956641 0)
(0.691943 0.114488 0)
(0.739236 0.11545 0)
(0.703034 0.123157 0)
(0.17701 0.0757738 0)
(-0.876228 -0.0324626 0)
(-1.19497 -0.0458462 0)
(-1.18136 -0.0272003 0)
(-1.09234 -0.00495824 0)
(-0.973213 -0.00969235 0)
(-0.857326 -0.0321634 0)
(-0.748293 -0.0588948 0)
(-0.639482 -0.0939701 0)
(-0.522269 -0.126904 0)
(-0.39087 -0.152477 0)
(-0.247288 -0.154762 0)
(-0.101321 -0.147006 0)
(0.0369672 -0.137798 0)
(0.160992 -0.137685 0)
(0.27746 -0.133759 0)
(0.39589 -0.120493 0)
(0.513936 -0.0866334 0)
(0.614355 -0.0345294 0)
(0.699243 0.0214371 0)
(0.770255 0.083702 0)
(0.825892 0.126377 0)
(0.851315 0.139365 0)
(0.717877 0.160954 0)
(0.0882196 0.158385 0)
(-0.609342 0.119871 0)
(-0.725506 0.134192 0)
(-0.721779 0.165699 0)
(-0.711568 0.221556 0)
(-0.708764 0.267222 0)
(-0.668566 0.285419 0)
(-0.59992 0.278723 0)
(-0.500234 0.26934 0)
(-6.34763 -0.011917 0)
(-1.84884 -0.0412788 0)
(0.711347 0.0680132 0)
(0.652098 0.099513 0)
(0.680563 0.108177 0)
(0.72012 0.10502 0)
(0.655968 0.0936094 0)
(0.0772898 0.0304735 0)
(-0.920357 -0.0527483 0)
(-1.17891 -0.0494107 0)
(-1.15094 -0.0269989 0)
(-1.07441 0.00957373 0)
(-0.977968 0.0244398 0)
(-0.881789 0.00856205 0)
(-0.785149 -0.0183873 0)
(-0.681009 -0.0607566 0)
(-0.557046 -0.100584 0)
(-0.413532 -0.128876 0)
(-0.258769 -0.13451 0)
(-0.107279 -0.135395 0)
(0.0327155 -0.134018 0)
(0.160808 -0.144119 0)
(0.283795 -0.150915 0)
(0.409968 -0.14826 0)
(0.541544 -0.123306 0)
(0.658094 -0.0771298 0)
(0.754293 -0.0233785 0)
(0.832771 0.0379595 0)
(0.875174 0.0896196 0)
(0.886251 0.109703 0)
(0.737743 0.133172 0)
(0.0610891 0.139388 0)
(-0.62863 0.112301 0)
(-0.725758 0.116869 0)
(-0.694078 0.13952 0)
(-0.672797 0.183031 0)
(-0.682362 0.238922 0)
(-0.67591 0.268416 0)
(-0.618694 0.277073 0)
(-0.521823 0.269314 0)
(-6.36039 -0.0130617 0)
(-1.85142 -0.0252322 0)
(0.728009 0.0636671 0)
(0.665657 0.0885089 0)
(0.687908 0.0844913 0)
(0.694567 0.0834337 0)
(0.580856 0.0547401 0)
(-0.0247924 -0.00854599 0)
(-0.937583 -0.0536637 0)
(-1.16536 -0.0427988 0)
(-1.11869 -0.0273567 0)
(-1.04331 0.00492991 0)
(-0.964822 0.0258041 0)
(-0.895118 0.0316872 0)
(-0.819431 0.0168225 0)
(-0.721336 -0.0190983 0)
(-0.591038 -0.057083 0)
(-0.437104 -0.088124 0)
(-0.274102 -0.100937 0)
(-0.117616 -0.112742 0)
(0.0247155 -0.119158 0)
(0.152284 -0.135628 0)
(0.277545 -0.149359 0)
(0.41676 -0.152292 0)
(0.562411 -0.135294 0)
(0.697254 -0.104118 0)
(0.805831 -0.0629765 0)
(0.889543 -0.0163828 0)
(0.931262 0.0326794 0)
(0.930725 0.0668559 0)
(0.764155 0.0895516 0)
(0.0498338 0.104903 0)
(-0.650721 0.0985125 0)
(-0.735418 0.0960033 0)
(-0.676428 0.109744 0)
(-0.638609 0.135782 0)
(-0.643075 0.185825 0)
(-0.661129 0.230385 0)
(-0.626348 0.254126 0)
(-0.547794 0.2432 0)
(-6.37236 -0.0118563 0)
(-1.8536 -0.0183714 0)
(0.757808 0.0490502 0)
(0.691381 0.0651473 0)
(0.696617 0.0595828 0)
(0.660553 0.0538502 0)
(0.50013 0.00848318 0)
(-0.0966365 -0.0321422 0)
(-0.937545 -0.039474 0)
(-1.15484 -0.027751 0)
(-1.10156 -0.0209257 0)
(-1.0139 -0.00721845 0)
(-0.939519 0.00630076 0)
(-0.889262 0.0238771 0)
(-0.838897 0.0309244 0)
(-0.754548 0.0144357 0)
(-0.624847 -0.0119557 0)
(-0.466508 -0.0403882 0)
(-0.298418 -0.0620928 0)
(-0.137021 -0.0817366 0)
(0.00911351 -0.0967943 0)
(0.140752 -0.115851 0)
(0.274201 -0.128969 0)
(0.42152 -0.131948 0)
(0.572787 -0.121112 0)
(0.720899 -0.100866 0)
(0.837806 -0.0783836 0)
(0.930889 -0.0555797 0)
(0.984424 -0.0246087 0)
(0.983645 0.0104856 0)
(0.797118 0.0350557 0)
(0.0605497 0.0590251 0)
(-0.668609 0.0768416 0)
(-0.752639 0.0670211 0)
(-0.676056 0.0642122 0)
(-0.617989 0.0702834 0)
(-0.601291 0.0991217 0)
(-0.624624 0.154904 0)
(-0.628826 0.190277 0)
(-0.569084 0.196583 0)
(-6.37956 -0.0104562 0)
(-1.85583 -0.018354 0)
(0.794951 0.021076 0)
(0.71378 0.0276794 0)
(0.698848 0.0279358 0)
(0.627658 0.0119106 0)
(0.442457 -0.0265998 0)
(-0.123779 -0.0396978 0)
(-0.92376 -0.0244781 0)
(-1.14946 -0.0117329 0)
(-1.09807 -0.0130872 0)
(-0.999794 -0.0141103 0)
(-0.917278 -0.014335 0)
(-0.86702 0.00153153 0)
(-0.832801 0.0227743 0)
(-0.767934 0.0329585 0)
(-0.6507 0.0267458 0)
(-0.496773 0.00560814 0)
(-0.329036 -0.020736 0)
(-0.165619 -0.0500338 0)
(-0.013855 -0.0701636 0)
(0.127424 -0.0885764 0)
(0.273502 -0.0983888 0)
(0.430312 -0.0959834 0)
(0.583748 -0.08884 0)
(0.730331 -0.0778825 0)
(0.849241 -0.0720577 0)
(0.949341 -0.0718652 0)
(1.01836 -0.0669828 0)
(1.02543 -0.0459177 0)
(0.835434 -0.0272839 0)
(0.0895842 0.00112906 0)
(-0.682192 0.0359423 0)
(-0.775223 0.0175149 0)
(-0.697638 0.00115211 0)
(-0.613093 -0.0167495 0)
(-0.571176 -0.0108635 0)
(-0.578245 0.0349611 0)
(-0.606604 0.0939546 0)
(-0.589101 0.118551 0)
(-6.38208 -0.00910497 0)
(-1.85783 -0.0160189 0)
(0.832562 -0.0137148 0)
(0.730655 -0.0187209 0)
(0.696312 -0.00669741 0)
(0.607389 -0.0186496 0)
(0.419378 -0.0335701 0)
(-0.118134 -0.0330436 0)
(-0.904037 -0.00700361 0)
(-1.14861 0.00362564 0)
(-1.10415 -0.00314082 0)
(-1.0016 -0.0163415 0)
(-0.907777 -0.0312956 0)
(-0.84364 -0.0260906 0)
(-0.800557 0.000534903 0)
(-0.756436 0.0351574 0)
(-0.662525 0.0539707 0)
(-0.523617 0.0433156 0)
(-0.360881 0.0166483 0)
(-0.195597 -0.0152984 0)
(-0.0356862 -0.0396022 0)
(0.118917 -0.0538027 0)
(0.276021 -0.0610269 0)
(0.436315 -0.054164 0)
(0.590319 -0.0516336 0)
(0.731798 -0.0490251 0)
(0.849592 -0.0544764 0)
(0.950244 -0.0688718 0)
(1.02361 -0.085488 0)
(1.04597 -0.0890266 0)
(0.866724 -0.0886327 0)
(0.126649 -0.0727061 0)
(-0.692873 -0.039356 0)
(-0.803459 -0.0571375 0)
(-0.736606 -0.0838506 0)
(-0.626709 -0.111394 0)
(-0.551095 -0.117314 0)
(-0.531797 -0.0879976 0)
(-0.563939 -0.0205479 0)
(-0.592143 0.0245605 0)
(-6.38045 -0.00276572 0)
(-1.85842 -0.00298949 0)
(0.858012 -0.0324484 0)
(0.743035 -0.0460809 0)
(0.69838 -0.026831 0)
(0.603374 -0.0293974 0)
(0.418572 -0.0278149 0)
(-0.0985535 -0.0159345 0)
(-0.885248 0.00739624 0)
(-1.15309 0.0139915 0)
(-1.11895 0.000843243 0)
(-1.01856 -0.0230432 0)
(-0.912382 -0.0477394 0)
(-0.823664 -0.0500561 0)
(-0.757004 -0.0244476 0)
(-0.710057 0.0228107 0)
(-0.657212 0.0657808 0)
(-0.54252 0.0698272 0)
(-0.390682 0.0459211 0)
(-0.222368 0.0176234 0)
(-0.0503579 -0.00514767 0)
(0.11753 -0.0166015 0)
(0.280944 -0.0227527 0)
(0.440399 -0.0172122 0)
(0.592198 -0.0213808 0)
(0.727434 -0.023778 0)
(0.842768 -0.0357459 0)
(0.94004 -0.0556207 0)
(1.00731 -0.0808703 0)
(1.03066 -0.113297 0)
(0.870036 -0.146841 0)
(0.15788 -0.147277 0)
(-0.69479 -0.137541 0)
(-0.835917 -0.146935 0)
(-0.776516 -0.165293 0)
(-0.647442 -0.186952 0)
(-0.543417 -0.199719 0)
(-0.49602 -0.180494 0)
(-0.510961 -0.125264 0)
(-0.563357 -0.0560286 0)
(-6.37964 0.00594418 0)
(-1.85903 0.0155832 0)
(0.872842 -0.0351254 0)
(0.751766 -0.0511437 0)
(0.703177 -0.0275755 0)
(0.608002 -0.0205755 0)
(0.430041 -0.0112926 0)
(-0.0763542 0.00411328 0)
(-0.874967 0.0159425 0)
(-1.16377 0.0167903 0)
(-1.13985 0.000626837 0)
(-1.04704 -0.0290024 0)
(-0.926895 -0.0583345 0)
(-0.809358 -0.0638718 0)
(-0.71271 -0.0425776 0)
(-0.651096 0.00269871 0)
(-0.619946 0.0544358 0)
(-0.548746 0.0822018 0)
(-0.411986 0.0676157 0)
(-0.240361 0.0466852 0)
(-0.0613492 0.0241734 0)
(0.118772 0.0153633 0)
(0.287963 0.00811467 0)
(0.443775 0.00930615 0)
(0.591253 -0.00194366 0)
(0.720563 -0.00893157 0)
(0.829445 -0.0257192 0)
(0.916563 -0.0520522 0)
(0.971442 -0.0883535 0)
(0.984628 -0.143059 0)
(0.82369 -0.200169 0)
(0.152365 -0.235039 0)
(-0.695633 -0.228249 0)
(-0.851962 -0.223709 0)
(-0.795849 -0.223343 0)
(-0.666398 -0.228942 0)
(-0.549624 -0.240296 0)
(-0.475824 -0.234659 0)
(-0.464772 -0.199674 0)
(-0.509978 -0.132133 0)
(-6.37783 0.0139671 0)
(-1.85687 0.0321358 0)
(0.879634 -0.0284199 0)
(0.762522 -0.0432784 0)
(0.715356 -0.0290436 0)
(0.626888 -0.0161822 0)
(0.451897 0.00536626 0)
(-0.0606927 0.0212701 0)
(-0.879945 0.0194685 0)
(-1.17898 0.00900483 0)
(-1.16428 -0.00641162 0)
(-1.07679 -0.0329615 0)
(-0.94173 -0.0544576 0)
(-0.797803 -0.0603856 0)
(-0.671752 -0.045875 0)
(-0.594677 -0.0129394 0)
(-0.564326 0.0353033 0)
(-0.534388 0.0711626 0)
(-0.41872 0.076773 0)
(-0.250357 0.0639183 0)
(-0.0670265 0.0467427 0)
(0.122578 0.0400864 0)
(0.294994 0.0304222 0)
(0.448999 0.0278787 0)
(0.59188 0.0124858 0)
(0.713008 -0.00265485 0)
(0.810582 -0.0291363 0)
(0.883149 -0.0633105 0)
(0.920282 -0.117415 0)
(0.916251 -0.187575 0)
(0.754323 -0.255637 0)
(0.139654 -0.28827 0)
(-0.678132 -0.282436 0)
(-0.843878 -0.258374 0)
(-0.794534 -0.247251 0)
(-0.680057 -0.241966 0)
(-0.563363 -0.252861 0)
(-0.472742 -0.261407 0)
(-0.435712 -0.242768 0)
(-0.45215 -0.194139 0)
(-6.37429 0.0192462 0)
(-1.85455 0.0354518 0)
(0.874773 -0.0276685 0)
(0.768223 -0.0392714 0)
(0.728754 -0.0243555 0)
(0.649326 -0.00450609 0)
(0.476065 0.0210786 0)
(-0.0559765 0.0320138 0)
(-0.899922 0.0183243 0)
(-1.19541 -0.00389752 0)
(-1.1872 -0.0162366 0)
(-1.09749 -0.0325852 0)
(-0.950337 -0.0386543 0)
(-0.789466 -0.0403387 0)
(-0.641541 -0.03596 0)
(-0.549724 -0.0208831 0)
(-0.511959 0.00967861 0)
(-0.497106 0.0461973 0)
(-0.409239 0.0720737 0)
(-0.247649 0.0681989 0)
(-0.0650251 0.057221 0)
(0.125582 0.0536004 0)
(0.299314 0.0463797 0)
(0.449813 0.0392872 0)
(0.583589 0.0198846 0)
(0.696267 -0.00715857 0)
(0.782938 -0.0449224 0)
(0.840663 -0.0938906 0)
(0.859612 -0.157536 0)
(0.843484 -0.226163 0)
(0.690933 -0.279318 0)
(0.136851 -0.303771 0)
(-0.649699 -0.299501 0)
(-0.82804 -0.266858 0)
(-0.783863 -0.252353 0)
(-0.689821 -0.238822 0)
(-0.580083 -0.243158 0)
(-0.488522 -0.261133 0)
(-0.425243 -0.257909 0)
(-0.407016 -0.228931 0)
(-6.36959 0.0209607 0)
(-1.85233 0.0308825 0)
(0.858772 -0.0275228 0)
(0.765259 -0.0383284 0)
(0.741149 -0.0307911 0)
(0.676939 -0.00779763 0)
(0.504263 0.0203529 0)
(-0.0598865 0.0318987 0)
(-0.930956 0.0139846 0)
(-1.2131 -0.0130767 0)
(-1.20132 -0.0196433 0)
(-1.10286 -0.0246867 0)
(-0.949409 -0.01347 0)
(-0.782188 -0.0110097 0)
(-0.625614 -0.0136427 0)
(-0.521419 -0.0132304 0)
(-0.472655 -0.00741248 0)
(-0.450368 0.0163661 0)
(-0.383533 0.0494438 0)
(-0.234643 0.0569811 0)
(-0.0546581 0.0548227 0)
(0.134141 0.0545324 0)
(0.304888 0.0503204 0)
(0.444541 0.041589 0)
(0.566989 0.0150641 0)
(0.668479 -0.0211934 0)
(0.745157 -0.0684079 0)
(0.78908 -0.122751 0)
(0.796456 -0.180963 0)
(0.781857 -0.240271 0)
(0.645258 -0.279038 0)
(0.134744 -0.294008 0)
(-0.619637 -0.287493 0)
(-0.807003 -0.252927 0)
(-0.765461 -0.235717 0)
(-0.69276 -0.217989 0)
(-0.598873 -0.216991 0)
(-0.512592 -0.237212 0)
(-0.435024 -0.251534 0)
(-0.384577 -0.235578 0)
(-6.36347 0.0213991 0)
(-1.84986 0.0266629 0)
(0.836422 -0.0325147 0)
(0.757281 -0.0400233 0)
(0.750095 -0.0467438 0)
(0.704474 -0.0270743 0)
(0.535983 -0.00093994 0)
(-0.0621108 0.0168784 0)
(-0.962373 0.00756312 0)
(-1.22755 -0.0169064 0)
(-1.20159 -0.0149419 0)
(-1.09444 -0.00893867 0)
(-0.941199 0.0118123 0)
(-0.776504 0.0171893 0)
(-0.620579 0.00819884 0)
(-0.510509 -0.00214671 0)
(-0.451709 -0.00516714 0)
(-0.412985 0.00522995 0)
(-0.344557 0.0195498 0)
(-0.209072 0.0368241 0)
(-0.0346239 0.0419778 0)
(0.14572 0.0441976 0)
(0.308773 0.0441276 0)
(0.435307 0.0352983 0)
(0.542806 0.00521057 0)
(0.628068 -0.0392274 0)
(0.69873 -0.0907889 0)
(0.740467 -0.144327 0)
(0.747979 -0.193959 0)
(0.735412 -0.232745 0)
(0.617042 -0.2553 0)
(0.141247 -0.262414 0)
(-0.593659 -0.249409 0)
(-0.789961 -0.22394 0)
(-0.748348 -0.210682 0)
(-0.690252 -0.194342 0)
(-0.61827 -0.191628 0)
(-0.539012 -0.207355 0)
(-0.455048 -0.226278 0)
(-0.375969 -0.229821 0)
(-6.3555 0.0198481 0)
(-1.84793 0.0219542 0)
(0.811615 -0.0366691 0)
(0.744485 -0.0397845 0)
(0.75677 -0.0616582 0)
(0.731477 -0.0489962 0)
(0.574572 -0.0344784 0)
(-0.0486187 -0.0124612 0)
(-0.980928 -0.00450294 0)
(-1.23038 -0.0147286 0)
(-1.19002 -0.00384829 0)
(-1.07701 0.0103807 0)
(-0.929985 0.038508 0)
(-0.773635 0.0440743 0)
(-0.624861 0.0286675 0)
(-0.511623 0.00656758 0)
(-0.443147 -0.0106152 0)
(-0.38978 -0.00873505 0)
(-0.30975 0.00414493 0)
(-0.177564 0.0198688 0)
(-0.0101042 0.0282262 0)
(0.160419 0.030829 0)
(0.309924 0.0321247 0)
(0.420418 0.0221821 0)
(0.51393 -0.00944148 0)
(0.582593 -0.0551106 0)
(0.652461 -0.103609 0)
(0.699669 -0.150728 0)
(0.71105 -0.183911 0)
(0.707479 -0.200476 0)
(0.606714 -0.211706 0)
(0.150467 -0.215375 0)
(-0.578109 -0.205442 0)
(-0.779203 -0.195946 0)
(-0.736477 -0.188694 0)
(-0.682155 -0.177173 0)
(-0.626803 -0.17077 0)
(-0.563799 -0.177382 0)
(-0.48143 -0.200529 0)
(-0.386935 -0.215374 0)
(-6.34711 0.0164552 0)
(-1.8466 0.0195665 0)
(0.785778 -0.036769 0)
(0.726643 -0.0364939 0)
(0.758187 -0.070685 0)
(0.749421 -0.0703036 0)
(0.611433 -0.0689452 0)
(-0.0163454 -0.0469621 0)
(-0.977399 -0.0213384 0)
(-1.21927 -0.0117534 0)
(-1.16922 0.0111128 0)
(-1.05572 0.0351686 0)
(-0.919807 0.0657528 0)
(-0.775917 0.0662703 0)
(-0.638174 0.0425019 0)
(-0.523736 0.0105352 0)
(-0.44137 -0.0150041 0)
(-0.370569 -0.0173966 0)
(-0.279558 -0.00489217 0)
(-0.149116 0.0132419 0)
(0.00996132 0.020656 0)
(0.170008 0.0199285 0)
(0.308831 0.0143162 0)
(0.40433 0.00164052 0)
(0.484411 -0.0284298 0)
(0.540625 -0.0710303 0)
(0.612518 -0.10723 0)
(0.666531 -0.136921 0)
(0.688108 -0.154306 0)
(0.69999 -0.153575 0)
(0.609111 -0.160702 0)
(0.155658 -0.16498 0)
(-0.578261 -0.16186 0)
(-0.780613 -0.168569 0)
(-0.733422 -0.169109 0)
(-0.673919 -0.164534 0)
(-0.624805 -0.155833 0)
(-0.580589 -0.152336 0)
(-0.505994 -0.171477 0)
(-0.412885 -0.202578 0)
(-6.341 0.0139119 0)
(-1.84667 0.022135 0)
(0.760776 -0.0265594 0)
(0.707482 -0.0271836 0)
(0.757344 -0.0690844 0)
(0.754938 -0.0809066 0)
(0.633344 -0.093743 0)
(0.0230089 -0.0762918 0)
(-0.94939 -0.038125 0)
(-1.19382 -0.00602283 0)
(-1.13756 0.0266485 0)
(-1.02915 0.0583652 0)
(-0.909381 0.0869722 0)
(-0.784081 0.0798189 0)
(-0.661462 0.0472948 0)
(-0.546369 0.00768102 0)
(-0.444533 -0.0199092 0)
(-0.349485 -0.0188063 0)
(-0.247873 0.000777487 0)
(-0.124694 0.022184 0)
(0.0217556 0.0258402 0)
(0.168802 0.0197104 0)
(0.297782 0.00388278 0)
(0.386514 -0.0178233 0)
(0.457406 -0.0422097 0)
(0.507292 -0.0734015 0)
(0.582479 -0.091487 0)
(0.645949 -0.104599 0)
(0.684512 -0.110999 0)
(0.704692 -0.103246 0)
(0.612357 -0.108007 0)
(0.15131 -0.114584 0)
(-0.594918 -0.12146 0)
(-0.794797 -0.143714 0)
(-0.742428 -0.151972 0)
(-0.671532 -0.156222 0)
(-0.616817 -0.150239 0)
(-0.584088 -0.143714 0)
(-0.532207 -0.151203 0)
(-0.451729 -0.186696 0)
(-6.33929 0.00904819 0)
(-1.84824 0.0264538 0)
(0.738582 -0.0150519 0)
(0.689932 -0.0180123 0)
(0.749784 -0.0579805 0)
(0.748175 -0.0816184 0)
(0.636423 -0.103883 0)
(0.058175 -0.0954272 0)
(-0.90025 -0.0493212 0)
(-1.15292 0.00148401 0)
(-1.0963 0.0392994 0)
(-0.996458 0.0725666 0)
(-0.898393 0.0952462 0)
(-0.798858 0.0825467 0)
(-0.692337 0.0416143 0)
(-0.570392 0.000508813 0)
(-0.443991 -0.0199887 0)
(-0.326444 -0.0103876 0)
(-0.219036 0.0160991 0)
(-0.105827 0.0351725 0)
(0.0240768 0.0366446 0)
(0.155361 0.0230172 0)
(0.275666 -0.00108765 0)
(0.365066 -0.025081 0)
(0.432146 -0.047378 0)
(0.488066 -0.0642069 0)
(0.565997 -0.0637971 0)
(0.638343 -0.0633549 0)
(0.688 -0.0633894 0)
(0.716348 -0.0544393 0)
(0.617036 -0.0563193 0)
(0.137754 -0.0672653 0)
(-0.624904 -0.0881005 0)
(-0.816935 -0.117424 0)
(-0.760892 -0.134448 0)
(-0.678105 -0.146284 0)
(-0.612864 -0.147897 0)
(-0.579093 -0.144749 0)
(-0.552113 -0.149157 0)
(-0.499491 -0.18223 0)
(-6.34074 0.00624663 0)
(-1.8509 0.0348768 0)
(0.724639 0.00112094 0)
(0.674067 -0.0063932 0)
(0.733949 -0.0446427 0)
(0.730302 -0.0734149 0)
(0.622859 -0.100784 0)
(0.0863203 -0.0995943 0)
(-0.836933 -0.0517558 0)
(-1.10315 0.00780832 0)
(-1.05142 0.0453034 0)
(-0.963126 0.0738041 0)
(-0.890245 0.0879373 0)
(-0.818707 0.0697202 0)
(-0.722304 0.0281653 0)
(-0.587421 -0.00183754 0)
(-0.440184 -0.01115 0)
(-0.304147 -0.000126196 0)
(-0.192985 0.0246916 0)
(-0.0952686 0.0488665 0)
(0.014168 0.0485557 0)
(0.130189 0.0332939 0)
(0.246731 0.00301806 0)
(0.340759 -0.0213592 0)
(0.412964 -0.0365534 0)
(0.481144 -0.0365392 0)
(0.556443 -0.0285541 0)
(0.634914 -0.0196031 0)
(0.695184 -0.0169871 0)
(0.729637 -0.00778763 0)
(0.618531 -0.00715477 0)
(0.110722 -0.023176 0)
(-0.668143 -0.0602089 0)
(-0.847676 -0.0987395 0)
(-0.787988 -0.122405 0)
(-0.692374 -0.145006 0)
(-0.612819 -0.150047 0)
(-0.575506 -0.14999 0)
(-0.562902 -0.159159 0)
(-0.542388 -0.184908 0)
(-6.3462 0.00407462 0)
(-1.85342 0.0399519 0)
(0.71964 0.0139884 0)
(0.666613 0.00571142 0)
(0.718369 -0.0324745 0)
(0.702361 -0.0601558 0)
(0.59731 -0.0870835 0)
(0.104432 -0.0885558 0)
(-0.770919 -0.0450001 0)
(-1.05446 0.011777 0)
(-1.01447 0.0424274 0)
(-0.939551 0.058178 0)
(-0.887544 0.0610407 0)
(-0.837299 0.044279 0)
(-0.741978 0.0227546 0)
(-0.596376 0.0117418 0)
(-0.436909 0.00762719 0)
(-0.287086 0.0151622 0)
(-0.171056 0.0334674 0)
(-0.0878483 0.0561753 0)
(-0.0030582 0.0587502 0)
(0.10005 0.0480959 0)
(0.213668 0.0203943 0)
(0.317878 -0.00283026 0)
(0.403296 -0.011452 0)
(0.478527 -0.00361241 0)
(0.555883 0.0104558 0)
(0.63631 0.0239549 0)
(0.702957 0.0274125 0)
(0.742124 0.0363729 0)
(0.617827 0.040579 0)
(0.0722652 0.017675 0)
(-0.719807 -0.0332234 0)
(-0.880996 -0.0828531 0)
(-0.817218 -0.109918 0)
(-0.711253 -0.139252 0)
(-0.621543 -0.154402 0)
(-0.578824 -0.161492 0)
(-0.570009 -0.175986 0)
(-0.563935 -0.190661 0)
(-6.35293 0.00198781 0)
(-1.85567 0.037883 0)
(0.723904 0.0168397 0)
(0.667023 0.00881619 0)
(0.702503 -0.0170695 0)
(0.671928 -0.0445836 0)
(0.56857 -0.0679207 0)
(0.117942 -0.0661322 0)
(-0.714055 -0.0278473 0)
(-1.02119 0.0134961 0)
(-0.997854 0.0251723 0)
(-0.9339 0.02093 0)
(-0.887678 0.0154064 0)
(-0.841767 0.00991118 0)
(-0.74323 0.0101711 0)
(-0.598621 0.0146678 0)
(-0.435722 0.0204738 0)
(-0.280583 0.0252241 0)
(-0.157622 0.0383313 0)
(-0.0823545 0.0554708 0)
(-0.0198171 0.0647479 0)
(0.068198 0.0618566 0)
(0.177547 0.0447781 0)
(0.300786 0.0292397 0)
(0.401424 0.0220991 0)
(0.483909 0.031763 0)
(0.562124 0.0475751 0)
(0.641643 0.064692 0)
(0.711293 0.0712947 0)
(0.751571 0.0797164 0)
(0.610625 0.0836406 0)
(0.0161227 0.0492791 0)
(-0.777021 -0.0133691 0)
(-0.91518 -0.0613553 0)
(-0.846254 -0.0910729 0)
(-0.733881 -0.127569 0)
(-0.635651 -0.154757 0)
(-0.583604 -0.17064 0)
(-0.571073 -0.185642 0)
(-0.566676 -0.189468 0)
(-6.35732 -0.00139047 0)
(-1.85648 0.0286343 0)
(0.73435 0.00715149 0)
(0.669882 -0.00254044 0)
(0.689425 -0.00160186 0)
(0.648751 -0.0305834 0)
(0.549316 -0.0449421 0)
(0.134256 -0.0387397 0)
(-0.672048 -0.00414716 0)
(-1.01075 0.0154711 0)
(-1.00342 0.00300975 0)
(-0.942852 -0.0240601 0)
(-0.886819 -0.0380844 0)
(-0.825789 -0.0332474 0)
(-0.729459 -0.00481066 0)
(-0.59241 0.0161828 0)
(-0.436696 0.0280051 0)
(-0.282106 0.0314485 0)
(-0.15425 0.0329216 0)
(-0.0791787 0.0441327 0)
(-0.0294563 0.0626831 0)
(0.0444191 0.0772244 0)
(0.146415 0.0751167 0)
(0.287685 0.0674711 0)
(0.406233 0.0642758 0)
(0.496045 0.0689963 0)
(0.573814 0.0859837 0)
(0.6488 0.11157 0)
(0.719421 0.118981 0)
(0.758017 0.12629 0)
(0.597708 0.124351 0)
(-0.0513691 0.0790992 0)
(-0.827472 0.00280815 0)
(-0.946553 -0.0390576 0)
(-0.874991 -0.0728195 0)
(-0.75812 -0.114841 0)
(-0.652401 -0.148925 0)
(-0.590504 -0.170432 0)
(-0.567041 -0.180227 0)
(-0.546635 -0.174911 0)
(-6.35986 -0.00456722 0)
(-1.85672 0.0176662 0)
(0.748194 -0.0101605 0)
(0.672041 -0.0204544 0)
(0.67998 -0.000304587 0)
(0.635627 -0.0186292 0)
(0.545195 -0.0166127 0)
(0.152306 -0.0046284 0)
(-0.647301 0.0209165 0)
(-1.02558 0.0177292 0)
(-1.03536 -0.0139426 0)
(-0.971649 -0.0559745 0)
(-0.886616 -0.0737013 0)
(-0.797247 -0.0559614 0)
(-0.702667 -0.0185839 0)
(-0.584145 0.0107868 0)
(-0.441568 0.0236748 0)
(-0.291288 0.0234584 0)
(-0.158252 0.0164688 0)
(-0.0718647 0.024962 0)
(-0.0243639 0.054387 0)
(0.0341342 0.0894753 0)
(0.127194 0.109705 0)
(0.277268 0.10845 0)
(0.411071 0.107016 0)
(0.509368 0.111315 0)
(0.589061 0.123562 0)
(0.663941 0.145881 0)
(0.734247 0.158298 0)
(0.766659 0.16968 0)
(0.581544 0.167722 0)
(-0.129611 0.10776 0)
(-0.866129 0.0198577 0)
(-0.970835 -0.0141655 0)
(-0.900626 -0.0521746 0)
(-0.778173 -0.0943784 0)
(-0.668527 -0.129682 0)
(-0.593712 -0.150439 0)
(-0.549143 -0.153835 0)
(-0.508044 -0.139374 0)
(-6.36024 -0.00876148 0)
(-1.85689 0.00806423 0)
(0.756741 -0.0240386 0)
(0.675875 -0.0374904 0)
(0.681258 -0.00674624 0)
(0.639268 -0.0102888 0)
(0.559342 0.0114643 0)
(0.172782 0.0241864 0)
(-0.646759 0.0419452 0)
(-1.0689 0.0140489 0)
(-1.08515 -0.0337966 0)
(-0.999572 -0.0741337 0)
(-0.883395 -0.0850939 0)
(-0.774341 -0.068197 0)
(-0.676567 -0.0385841 0)
(-0.574285 -0.0100118 0)
(-0.448632 0.00476407 0)
(-0.304956 0.0029402 0)
(-0.166209 -0.00558052 0)
(-0.0626356 0.0051909 0)
(-0.00233292 0.0417217 0)
(0.0454193 0.0944402 0)
(0.129281 0.139064 0)
(0.265767 0.14947 0)
(0.413825 0.146835 0)
(0.521527 0.145295 0)
(0.603365 0.153389 0)
(0.676897 0.176473 0)
(0.747758 0.19624 0)
(0.770012 0.214689 0)
(0.555593 0.208886 0)
(-0.222732 0.133945 0)
(-0.894427 0.0378143 0)
(-0.98538 0.0101361 0)
(-0.917148 -0.0259286 0)
(-0.788679 -0.0619695 0)
(-0.676102 -0.0916125 0)
(-0.587105 -0.109463 0)
(-0.520218 -0.109749 0)
(-0.459678 -0.0910242 0)
(-6.35921 -0.0115382 0)
(-1.85641 0.00301823 0)
(0.75951 -0.0241246 0)
(0.680103 -0.0406716 0)
(0.689254 -0.0156274 0)
(0.657441 -0.00549124 0)
(0.586719 0.0321335 0)
(0.188165 0.044001 0)
(-0.669343 0.0547815 0)
(-1.12858 0.0135062 0)
(-1.13969 -0.039895 0)
(-1.02368 -0.0683148 0)
(-0.887279 -0.0771384 0)
(-0.76546 -0.068341 0)
(-0.664659 -0.0536748 0)
(-0.568361 -0.0386476 0)
(-0.45542 -0.0273122 0)
(-0.318547 -0.0259004 0)
(-0.174917 -0.0283481 0)
(-0.051124 -0.0131024 0)
(0.0319079 0.0282819 0)
(0.082247 0.0934923 0)
(0.153229 0.151159 0)
(0.26101 0.182072 0)
(0.413148 0.183995 0)
(0.530344 0.176957 0)
(0.616476 0.179042 0)
(0.69181 0.202953 0)
(0.76344 0.232042 0)
(0.770074 0.258073 0)
(0.514188 0.245619 0)
(-0.329585 0.15117 0)