/*--------------------------------*- C++ -*----------------------------------*\
| =========                 |                                                 |
| \\      /  F ield         | OpenFOAM: The Open Source CFD Toolbox           |
|  \\    /   O peration     | Version:  v1912                                 |
|   \\  /    A nd           | Website:  www.openfoam.com                      |
|    \\/     M anipulation  |                                                 |
\*---------------------------------------------------------------------------*/
FoamFile
{
    version     2.0;
    format      ascii;
    class       volScalarField;
    location    "3.54";
    object      T;
}
// * * * * * * * * * * * * * * * * * * * * * * * * * * * * * * * * * * * * * //

dimensions      [0 0 0 1 0 0 0];


internalField   nonuniform List<scalar> 
1900
(
1.16352
1.02416
1.03275
1.04166
1.04473
1.04514
1.04499
1.04405
1.04318
1.04412
1.16351
1.02417
1.03275
1.04165
1.04472
1.04517
1.0448
1.04352
1.04197
1.04087
1.16351
1.02417
1.03276
1.04163
1.04469
1.04512
1.04454
1.04339
1.04233
1.04097
1.16351
1.02417
1.03275
1.04165
1.04472
1.04517
1.0448
1.04352
1.04197
1.04087
1.16352
1.02416
1.03275
1.04166
1.04473
1.04514
1.04499
1.04405
1.04318
1.04412
1.03878
1.03372
1.01837
0.983434
0.923165
1.0373
1.03141
1.01315
0.980691
0.935594
1.03775
1.03096
1.01182
0.977025
0.931644
1.0373
1.03141
1.01315
0.980691
0.935594
1.03878
1.03372
1.01837
0.983434
0.923165
0.945722
0.894659
0.86742
0.848
0.830868
0.940862
0.894313
0.868352
0.849338
0.831814
0.939955
0.894218
0.868181
0.848188
0.830807
0.940862
0.894313
0.868352
0.849338
0.831814
0.945722
0.894659
0.86742
0.848
0.830868
0.774227
0.675097
0.731298
0.759879
0.744392
0.72848
0.716867
0.713604
0.714279
0.714994
0.716493
0.717729
0.71861
0.719002
0.719039
0.718891
0.718682
0.718481
0.718315
0.71803
0.717692
0.717266
0.716643
0.71586
0.714784
0.713279
0.711181
0.708308
0.704515
0.699751
0.694102
0.687824
0.681237
0.675016
0.669495
0.665657
0.66294
0.659891
0.604609
0.507288
0.824255
0.708341
0.743141
0.763546
0.746619
0.729105
0.717061
0.713708
0.714335
0.715049
0.716533
0.717756
0.718633
0.719023
0.71906
0.718911
0.718702
0.7185
0.718334
0.718049
0.71771
0.717284
0.716661
0.715877
0.7148
0.713294
0.711196
0.708323
0.70453
0.699766
0.694117
0.687839
0.68125
0.675027
0.669498
0.665681
0.662962
0.659911
0.604392
0.506825
0.819509
0.730464
0.752454
0.766537
0.747824
0.729434
0.717173
0.713778
0.714389
0.715086
0.716561
0.717775
0.718649
0.719036
0.719071
0.718921
0.718711
0.718508
0.718342
0.718057
0.717718
0.717292
0.716668
0.715885
0.714808
0.713303
0.711206
0.708335
0.704545
0.699786
0.694143
0.687873
0.681293
0.675083
0.669572
0.665786
0.663102
0.660078
0.604664
0.509164
0.824255
0.708341
0.743141
0.763546
0.746619
0.729105
0.717061
0.713708
0.714335
0.715049
0.716533
0.717756
0.718633
0.719023
0.71906
0.718911
0.718702
0.7185
0.718334
0.718049
0.71771
0.717284
0.716661
0.715877
0.7148
0.713294
0.711196
0.708323
0.70453
0.699766
0.694117
0.687839
0.68125
0.675027
0.669498
0.665681
0.662962
0.659911
0.604392
0.506825
0.774227
0.675097
0.731298
0.759879
0.744392
0.72848
0.716867
0.713604
0.714279
0.714994
0.716493
0.717729
0.71861
0.719002
0.719039
0.718891
0.718682
0.718481
0.718315
0.71803
0.717692
0.717266
0.716643
0.71586
0.714784
0.713279
0.711181
0.708308
0.704515
0.699751
0.694102
0.687824
0.681237
0.675016
0.669495
0.665657
0.66294
0.659891
0.604609
0.507288
0.600141
0.624846
0.71847
0.746151
0.737052
0.725509
0.715618
0.712986
0.713756
0.714601
0.716188
0.717496
0.718405
0.718816
0.718869
0.718733
0.718534
0.718339
0.71818
0.717899
0.717562
0.717137
0.716514
0.715729
0.71465
0.71314
0.711036
0.708155
0.704352
0.699578
0.693919
0.687639
0.681059
0.674851
0.669358
0.665456
0.662759
0.659738
0.605549
0.512199
0.503817
0.626731
0.710392
0.724549
0.723287
0.718069
0.712523
0.711331
0.712349
0.713576
0.715426
0.716899
0.717885
0.718348
0.71844
0.718333
0.71816
0.717985
0.717841
0.717569
0.717235
0.716814
0.716189
0.715401
0.714314
0.712792
0.710671
0.707766
0.703933
0.699123
0.693424
0.687112
0.68053
0.674319
0.668841
0.664832
0.662062
0.659064
0.605453
0.507035
0.48955
0.635367
0.699256
0.709177
0.711913
0.710161
0.70845
0.708651
0.710182
0.712105
0.714218
0.715906
0.717006
0.717554
0.717707
0.717653
0.717519
0.717373
0.717255
0.716996
0.716667
0.71625
0.715622
0.714826
0.713727
0.712183
0.710035
0.707093
0.703211
0.698346
0.692594
0.686233
0.679654
0.673443
0.667971
0.663829
0.660955
0.658021
0.605793
0.507165
0.497223
0.633666
0.689153
0.6967
0.701654
0.702986
0.703754
0.705309
0.707504
0.71009
0.712548
0.714486
0.715742
0.716405
0.716654
0.716671
0.716594
0.716488
0.716403
0.716162
0.71584
0.715427
0.714795
0.713989
0.712868
0.7113
0.709106
0.706113
0.70217
0.697218
0.691393
0.684967
0.678389
0.672157
0.666644
0.662337
0.659319
0.656516
0.606123
0.504948
0.489928
0.628933
0.678997
0.686828
0.692741
0.696196
0.698666
0.701402
0.704336
0.707507
0.710348
0.712563
0.714009
0.714829
0.715191
0.715314
0.715307
0.715253
0.715211
0.714991
0.714675
0.714268
0.713629
0.712805
0.711662
0.710041
0.707812
0.704731
0.700699
0.695649
0.689734
0.683199
0.676607
0.670348
0.664754
0.660252
0.657074
0.654461
0.606808
0.502079
0.487554
0.62328
0.669436
0.677834
0.684548
0.689436
0.693175
0.696885
0.700539
0.704248
0.70749
0.710003
0.711692
0.712675
0.713217
0.713455
0.713549
0.713556
0.713563
0.713366
0.713059
0.712658
0.712007
0.711161
0.709971
0.708323
0.705968
0.702846
0.698679
0.693447
0.687444
0.680773
0.674139
0.667741
0.662033
0.657192
0.653804
0.651271
0.606021
0.497972
0.485387
0.617513
0.661488
0.670106
0.677242
0.6828
0.687319
0.691755
0.695996
0.700171
0.703798
0.706627
0.708548
0.709812
0.710514
0.710928
0.711135
0.711222
0.711287
0.711115
0.710817
0.710421
0.709751
0.708868
0.707635
0.705875
0.703501
0.700165
0.695904
0.690502
0.684355
0.677496
0.670866
0.664365
0.658512
0.653366
0.649698
0.647298
0.604413
0.493417
0.480619
0.610571
0.652987
0.660948
0.668687
0.674939
0.680252
0.68543
0.690245
0.694885
0.698928
0.702126
0.704422
0.705939
0.706914
0.707514
0.70786
0.708044
0.708173
0.708031
0.707742
0.707346
0.706648
0.705716
0.704411
0.702573
0.700013
0.696552
0.692092
0.686302
0.680021
0.67287
0.66602
0.659283
0.653092
0.647491
0.643146
0.64082
0.599424
0.488048
0.476277
0.603561
0.644849
0.652226
0.660292
0.667118
0.673071
0.678715
0.68384
0.688732
0.693087
0.69657
0.699184
0.700991
0.702236
0.703046
0.70356
0.70385
0.704051
0.703944
0.703664
0.70326
0.702523
0.701533
0.700131
0.698182
0.695472
0.69184
0.687196
0.68117
0.674634
0.667307
0.660327
0.653442
0.646938
0.64095
0.63608
0.633591
0.593793
0.482603
0.471931
0.596268
0.636285
0.642924
0.650735
0.657801
0.664289
0.670266
0.675709
0.680871
0.685593
0.68955
0.692607
0.694863
0.696442
0.697511
0.698205
0.698614
0.698891
0.698822
0.698552
0.698132
0.697345
0.696277
0.694771
0.692648
0.689762
0.685759
0.68088
0.674424
0.667682
0.66018
0.653074
0.646075
0.63937
0.633058
0.627848
0.625302
0.586945
0.477138
0.467789
0.589173
0.627857
0.634067
0.641677
0.648946
0.655796
0.66195
0.667564
0.672838
0.677875
0.682097
0.685521
0.688052
0.689863
0.691144
0.691988
0.69251
0.692856
0.692827
0.692567
0.692126
0.691293
0.690158
0.688571
0.686336
0.683346
0.679207
0.674164
0.667532
0.660609
0.653065
0.645909
0.63888
0.632045
0.625454
0.619954
0.617379
0.580982
0.472154
0.463918
0.582437
0.61979
0.625831
0.633031
0.64038
0.647251
0.653384
0.659021
0.664305
0.66954
0.674042
0.677868
0.680736
0.682851
0.684334
0.685313
0.685928
0.686327
0.686331
0.68608
0.685623
0.684759
0.683578
0.681923
0.679602
0.676474
0.672164
0.667017
0.660211
0.653256
0.645792
0.63867
0.631639
0.624723
0.617893
0.612159
0.609618
0.574896
0.467509
0.460679
0.576022
0.611874
0.61769
0.62479
0.632224
0.639004
0.645127
0.650793
0.6562
0.66165
0.666478
0.670631
0.673717
0.676005
0.677592
0.678642
0.679286
0.679702
0.679715
0.679474
0.679034
0.678181
0.677022
0.675368
0.673045
0.66992
0.665516
0.660318
0.653341
0.64632
0.638878
0.63175
0.624676
0.617648
0.610603
0.604631
0.60207
0.569333
0.463551
0.457484
0.57004
0.604333
0.609769
0.616732
0.6243
0.630866
0.637024
0.642759
0.648326
0.654081
0.659154
0.663695
0.667112
0.669663
0.671417
0.672557
0.673245
0.673678
0.673697
0.673471
0.673051
0.672211
0.671059
0.669397
0.667005
0.663813
0.65917
0.653855
0.646749
0.639643
0.632138
0.624942
0.617752
0.610561
0.603278
0.59706
0.594507
0.563595
0.459724
0.455244
0.563802
0.596512
0.60161
0.60848
0.616138
0.622729
0.629023
0.634865
0.640774
0.646893
0.652439
0.657585
0.66128
0.664099
0.666049
0.667313
0.668061
0.668504
0.668499
0.668292
0.667931
0.667119
0.665961
0.664249
0.66173
0.65846
0.653579
0.647961
0.64053
0.633195
0.625561
0.61823
0.610874
0.603466
0.595947
0.589468
0.586909
0.557992
0.457017
0.452147
0.558327
0.589052
0.593599
0.600427
0.608175
0.614877
0.621398
0.62741
0.633695
0.640353
0.646463
0.652136
0.656359
0.659596
0.661851
0.663335
0.664259
0.664841
0.664912
0.664725
0.664329
0.663421
0.662143
0.660275
0.657531
0.654005
0.648641
0.64269
0.634888
0.627216
0.619304
0.611718
0.604103
0.596455
0.588726
0.581934
0.579544
0.552878
0.453853
0.452768
0.553191
0.581876
0.586102
0.593116
0.601028
0.607986
0.614826
0.621185
0.627896
0.635053
0.641877
0.648279
0.652825
0.656399
0.65887
0.660542
0.6616
0.662238
0.662311
0.662151
0.661788
0.660853
0.659479
0.657477
0.654529
0.650848
0.64518
0.638782
0.630526
0.622453
0.614267
0.60641
0.598547
0.590639
0.582625
0.575589
0.573644
0.549075
0.455122
0.458791
0.553129
0.581921
0.584604
0.590795
0.598169
0.605066
0.611932
0.618428
0.625415
0.632751
0.639655
0.646052
0.650459
0.653917
0.656155
0.657643
0.658595
0.659238
0.659491
0.659333
0.658805
0.65788
0.656624
0.654832
0.652077
0.648631
0.643012
0.636701
0.628533
0.620477
0.612335
0.604493
0.596673
0.588813
0.580944
0.574325
0.5731
0.549193
0.461953
0.442266
0.532328
0.561798
0.562469
0.56565
0.570308
0.574538
0.579269
0.583342
0.588615
0.594016
0.599192
0.603555
0.605262
0.606133
0.60552
0.604863
0.60421
0.603924
0.605627
0.605457
0.603505
0.603546
0.603822
0.604367
0.603976
0.603428
0.600202
0.596108
0.589555
0.583346
0.576808
0.570994
0.565042
0.559319
0.553741
0.549506
0.549472
0.524619
0.434847
0.382172
0.439183
0.46919
0.461477
0.45956
0.461567
0.463397
0.466663
0.470139
0.474647
0.479419
0.484596
0.489592
0.494283
0.4983
0.501762
0.504037
0.506037
0.506396
0.508001
0.507996
0.506344
0.505965
0.503885
0.501597
0.497955
0.493925
0.488985
0.48388
0.47845
0.473318
0.46843
0.464269
0.460284
0.457505
0.454071
0.455221
0.462075
0.436015
0.378526
0.382172
0.439183
0.46919
0.461477
0.45956
0.461567
0.463397
0.466663
0.470139
0.474647
0.479419
0.484596
0.489592
0.494283
0.4983
0.501762
0.504037
0.506037
0.506396
0.508001
0.507996
0.506344
0.505965
0.503885
0.501597
0.497955
0.493925
0.488985
0.48388
0.47845
0.473318
0.46843
0.464269
0.460284
0.457505
0.454071
0.455221
0.462075
0.436015
0.378526
0.442266
0.532328
0.561798
0.562469
0.56565
0.570308
0.574538
0.579269
0.583342
0.588615
0.594016
0.599192
0.603555
0.605262
0.606133
0.60552
0.604863
0.60421
0.603924
0.605627
0.605457
0.603505
0.603546
0.603822
0.604367
0.603976
0.603428
0.600202
0.596108
0.589555
0.583346
0.576808
0.570994
0.565042
0.559319
0.553741
0.549506
0.549472
0.524619
0.434847
0.458791
0.553129
0.581921
0.584604
0.590795
0.598169
0.605066
0.611932
0.618428
0.625415
0.632751
0.639655
0.646052
0.650459
0.653917
0.656155
0.657643
0.658595
0.659238
0.659491
0.659333
0.658805
0.65788
0.656624
0.654832
0.652077
0.648631
0.643012
0.636701
0.628533
0.620477
0.612335
0.604493
0.596673
0.588813
0.580944
0.574325
0.5731
0.549193
0.461953
0.452768
0.553191
0.581876
0.586102
0.593116
0.601028
0.607986
0.614826
0.621185
0.627896
0.635053
0.641877
0.648279
0.652825
0.656399
0.65887
0.660542
0.6616
0.662238
0.662311
0.662151
0.661788
0.660853
0.659479
0.657477
0.654529
0.650848
0.64518
0.638782
0.630526
0.622453
0.614267
0.60641
0.598547
0.590639
0.582625
0.575589
0.573644
0.549075
0.455122
0.452147
0.558327
0.589052
0.593599
0.600427
0.608175
0.614877
0.621398
0.62741
0.633695
0.640353
0.646463
0.652136
0.656359
0.659596
0.661851
0.663335
0.664259
0.664841
0.664912
0.664725
0.664329
0.663421
0.662143
0.660275
0.657531
0.654005
0.648641
0.64269
0.634888
0.627216
0.619304
0.611718
0.604103
0.596455
0.588726
0.581934
0.579544
0.552878
0.453853
0.455244
0.563802
0.596512
0.60161
0.60848
0.616138
0.622729
0.629023
0.634865
0.640774
0.646893
0.652439
0.657585
0.66128
0.664099
0.666049
0.667313
0.668061
0.668504
0.668499
0.668292
0.667931
0.667119
0.665961
0.664249
0.66173
0.65846
0.653579
0.647961
0.64053
0.633195
0.625561
0.61823
0.610874
0.603466
0.595947
0.589468
0.586909
0.557992
0.457017
0.457484
0.57004
0.604333
0.609769
0.616732
0.6243
0.630866
0.637024
0.642759
0.648326
0.654081
0.659154
0.663695
0.667112
0.669663
0.671417
0.672557
0.673245
0.673678
0.673697
0.673471
0.673051
0.672211
0.671059
0.669397
0.667005
0.663813
0.65917
0.653855
0.646749
0.639643
0.632138
0.624942
0.617752
0.610561
0.603278
0.59706
0.594507
0.563595
0.459724
0.460679
0.576022
0.611874
0.61769
0.62479
0.632224
0.639004
0.645127
0.650793
0.6562
0.66165
0.666478
0.670631
0.673717
0.676005
0.677592
0.678642
0.679286
0.679702
0.679715
0.679474
0.679034
0.678181
0.677022
0.675368
0.673045
0.66992
0.665516
0.660318
0.653341
0.64632
0.638878
0.63175
0.624676
0.617648
0.610603
0.604631
0.60207
0.569333
0.463551
0.463918
0.582437
0.61979
0.625831
0.633031
0.64038
0.647251
0.653384
0.659021
0.664305
0.66954
0.674042
0.677868
0.680736
0.682851
0.684334
0.685313
0.685928
0.686327
0.686331
0.68608
0.685623
0.684759
0.683578
0.681923
0.679602
0.676474
0.672164
0.667017
0.660211
0.653256
0.645792
0.63867
0.631639
0.624723
0.617893
0.612159
0.609618
0.574896
0.467509
0.467789
0.589173
0.627857
0.634067
0.641677
0.648946
0.655796
0.66195
0.667564
0.672838
0.677875
0.682097
0.685521
0.688052
0.689863
0.691144
0.691988
0.69251
0.692856
0.692827
0.692567
0.692126
0.691293
0.690158
0.688571
0.686336
0.683346
0.679207
0.674164
0.667532
0.660609
0.653065
0.645909
0.63888
0.632045
0.625454
0.619954
0.617379
0.580982
0.472154
0.471931
0.596268
0.636285
0.642924
0.650735
0.657801
0.664289
0.670266
0.675709
0.680871
0.685593
0.68955
0.692607
0.694863
0.696442
0.697511
0.698205
0.698614
0.698891
0.698822
0.698552
0.698132
0.697345
0.696277
0.694771
0.692648
0.689762
0.685759
0.68088
0.674424
0.667682
0.66018
0.653074
0.646075
0.63937
0.633058
0.627848
0.625302
0.586945
0.477138
0.476277
0.603561
0.644849
0.652226
0.660292
0.667118
0.673071
0.678715
0.68384
0.688732
0.693087
0.69657
0.699184
0.700991
0.702236
0.703046
0.70356
0.70385
0.704051
0.703944
0.703664
0.70326
0.702523
0.701533
0.700131
0.698182
0.695472
0.69184
0.687196
0.68117
0.674634
0.667307
0.660327
0.653442
0.646938
0.64095
0.63608
0.633591
0.593793
0.482603
0.480619
0.610571
0.652987
0.660948
0.668687
0.674939
0.680252
0.68543
0.690245
0.694885
0.698928
0.702126
0.704422
0.705939
0.706914
0.707514
0.70786
0.708044
0.708173
0.708031
0.707742
0.707346
0.706648
0.705716
0.704411
0.702573
0.700013
0.696552
0.692092
0.686302
0.680021
0.67287
0.66602
0.659283
0.653092
0.647491
0.643146
0.64082
0.599424
0.488048
0.485387
0.617513
0.661488
0.670106
0.677242
0.6828
0.687319
0.691755
0.695996
0.700171
0.703798
0.706627
0.708548
0.709812
0.710514
0.710928
0.711135
0.711222
0.711287
0.711115
0.710817
0.710421
0.709751
0.708868
0.707635
0.705875
0.703501
0.700165
0.695904
0.690502
0.684355
0.677496
0.670866
0.664365
0.658512
0.653366
0.649698
0.647298
0.604413
0.493417
0.487554
0.62328
0.669436
0.677834
0.684548
0.689436
0.693175
0.696885
0.700539
0.704248
0.70749
0.710003
0.711692
0.712675
0.713217
0.713455
0.713549
0.713556
0.713563
0.713366
0.713059
0.712658
0.712007
0.711161
0.709971
0.708323
0.705968
0.702846
0.698679
0.693447
0.687444
0.680773
0.674139
0.667741
0.662033
0.657192
0.653804
0.651271
0.606021
0.497972
0.489928
0.628933
0.678997
0.686828
0.692741
0.696196
0.698666
0.701402
0.704336
0.707507
0.710348
0.712563
0.714009
0.714829
0.715191
0.715314
0.715307
0.715253
0.715211
0.714991
0.714675
0.714268
0.713629
0.712805
0.711662
0.710041
0.707812
0.704731
0.700699
0.695649
0.689734
0.683199
0.676607
0.670348
0.664754
0.660252
0.657074
0.654461
0.606808
0.502079
0.497223
0.633666
0.689153
0.6967
0.701654
0.702986
0.703754
0.705309
0.707504
0.71009
0.712548
0.714486
0.715742
0.716405
0.716654
0.716671
0.716594
0.716488
0.716403
0.716162
0.71584
0.715427
0.714795
0.713989
0.712868
0.7113
0.709106
0.706113
0.70217
0.697218
0.691393
0.684967
0.678389
0.672157
0.666644
0.662337
0.659319
0.656516
0.606123
0.504948
0.48955
0.635367
0.699256
0.709177
0.711913
0.710161
0.70845
0.708651
0.710182
0.712105
0.714218
0.715906
0.717006
0.717554
0.717707
0.717653
0.717519
0.717373
0.717255
0.716996
0.716667
0.71625
0.715622
0.714826
0.713727
0.712183
0.710035
0.707093
0.703211
0.698346
0.692594
0.686233
0.679654
0.673443
0.667971
0.663829
0.660955
0.658021
0.605793
0.507165
0.503817
0.626731
0.710392
0.724549
0.723287
0.718069
0.712523
0.711331
0.712349
0.713576
0.715426
0.716899
0.717885
0.718348
0.71844
0.718333
0.71816
0.717985
0.717841
0.717569
0.717235
0.716814
0.716189
0.715401
0.714314
0.712792
0.710671
0.707766
0.703933
0.699123
0.693424
0.687112
0.68053
0.674319
0.668841
0.664832
0.662062
0.659064
0.605453
0.507035
0.600141
0.624846
0.71847
0.746151
0.737052
0.725509
0.715618
0.712986
0.713756
0.714601
0.716188
0.717496
0.718405
0.718816
0.718869
0.718733
0.718534
0.718339
0.71818
0.717899
0.717562
0.717137
0.716514
0.715729
0.71465
0.71314
0.711036
0.708155
0.704352
0.699578
0.693919
0.687639
0.681059
0.674851
0.669358
0.665456
0.662759
0.659738
0.605549
0.512199
)
;

boundaryField
{
    inlet
    {
        type            fixedValue;
        value           uniform 1;
    }
    outlet
    {
        type            zeroGradient;
    }
    obstacle
    {
        type            zeroGradient;
    }
    empty
    {
        type            empty;
    }
}


// ************************************************************************* //
