/*--------------------------------*- C++ -*----------------------------------*\
| =========                 |                                                 |
| \\      /  F ield         | OpenFOAM: The Open Source CFD Toolbox           |
|  \\    /   O peration     | Version:  v1912                                 |
|   \\  /    A nd           | Website:  www.openfoam.com                      |
|    \\/     M anipulation  |                                                 |
\*---------------------------------------------------------------------------*/
FoamFile
{
    version     2.0;
    format      ascii;
    class       volTensorField;
    location    "0.4";
    object      grad(U);
}
// * * * * * * * * * * * * * * * * * * * * * * * * * * * * * * * * * * * * * //

dimensions      [0 0 -1 0 0 0 0];


internalField   nonuniform List<tensor> 
9600
(
(1.88931e-13 4.64827e-15 0 0 2.24021e-15 0 0 0 0)
(0 -6.64038e-15 0 0 -2.57624e-15 0 0 0 0)
(-9.44655e-14 -4.42692e-16 0 9.44655e-14 -3.58434e-15 0 0 0 0)
(9.44655e-14 -1.99211e-15 0 0 -2.35222e-15 0 0 0 0)
(-9.44655e-14 -3.09884e-15 0 0 -6.04857e-15 0 0 0 0)
(0 1.99211e-15 0 0 -1.15371e-14 0 0 0 0)
(9.44655e-14 2.65615e-15 0 4.72328e-14 1.00809e-15 0 0 0 0)
(-9.44655e-14 2.21346e-15 0 0 5.60053e-16 0 0 0 0)
(0 6.64038e-16 0 0 5.60053e-16 0 0 0 0)
(9.44655e-14 0 0 0 7.84074e-16 0 0 0 0)
(-9.44655e-14 0 0 0 8.96084e-16 0 0 0 0)
(9.44655e-14 0 0 0 6.72063e-16 0 0 0 0)
(0 0 0 0 -7.84074e-16 0 0 0 0)
(-9.44655e-14 0 0 0 3.13629e-15 0 0 0 0)
(0 0 0 0 2.24021e-15 0 0 0 0)
(0 0 0 0 2.24021e-15 0 0 0 0)
(9.44655e-14 -7.08307e-15 0 0 1.90418e-15 0 0 0 0)
(0 -6.64038e-15 0 -9.44655e-14 -3.36032e-15 0 0 0 0)
(0 1.10673e-15 0 0 -5.26449e-15 0 0 0 0)
(-9.44655e-14 1.54942e-15 0 0 -6.49661e-15 0 0 0 0)
(0 1.77077e-15 0 0 -6.3846e-15 0 0 0 0)
(0 1.54942e-15 0 0 -2.91227e-15 0 0 0 0)
(0 1.77077e-15 0 0 -2.91227e-15 0 0 0 0)
(0 1.99211e-15 0 0 -2.35222e-15 0 0 0 0)
(0 7.74711e-15 0 0 -1.79217e-15 0 0 0 0)
(0 1.37235e-14 0 4.72328e-14 1.56815e-15 0 0 0 0)
(0 1.54942e-14 0 4.72328e-14 3.92037e-15 0 0 0 0)
(0 1.26167e-14 0 0 7.16867e-15 0 0 0 0)
(0 2.43481e-15 0 0 8.84883e-15 0 0 0 0)
(0 -8.85384e-16 0 0 7.28068e-15 0 0 0 0)
(0 -2.21346e-16 0 0 8.28878e-15 0 0 0 0)
(0 -1.99211e-15 0 0 8.06476e-15 0 0 0 0)
(-9.44655e-14 5.755e-15 0 0 7.5047e-15 0 0 0 0)
(0 5.755e-15 0 9.44655e-14 1.27692e-14 0 0 0 0)
(1.88931e-13 -2.21346e-16 0 0 1.32172e-14 0 0 0 0)
(-9.44655e-14 3.09884e-15 0 -9.44655e-14 1.22091e-14 0 0 0 0)
(-2.83397e-13 -1.10673e-15 0 -4.72328e-14 1.76977e-14 0 0 0 0)
(1.88931e-13 -4.42692e-15 0 4.72328e-14 1.45614e-14 0 0 0 0)
(9.44655e-14 -6.19769e-15 0 0 1.32172e-14 0 0 0 0)
(-4.13103 0.140037 0 0 2.80555e-15 0 0 0 0)
(1.88931e-13 -5.31231e-15 0 0 -4.48042e-15 0 0 0 0)
(0 -4.86961e-15 0 0 -2.35222e-15 0 0 0 0)
(-9.44655e-14 8.85384e-16 0 0 -2.46423e-15 0 0 0 0)
(0 -2.8775e-15 0 0 -3.47233e-15 0 0 0 0)
(0 -1.50515e-14 0 -4.72328e-14 -1.45614e-15 0 0 0 0)
(9.44655e-14 1.19527e-14 0 0 -1.90418e-15 0 0 0 0)
(0 2.12492e-14 0 0 -4.14439e-15 0 0 0 0)
(-9.44655e-14 -3.09884e-15 0 0 -1.0529e-14 0 0 0 0)
(0 -2.21346e-16 0 0 -9.52089e-15 0 0 0 0)
(9.44655e-14 6.64038e-16 0 0 -9.85692e-15 0 0 0 0)
(-9.44655e-14 -2.21346e-16 0 0 -9.29687e-15 0 0 0 0)
(9.44655e-14 -3.32019e-15 0 -4.72328e-14 -1.0865e-14 0 0 0 0)
(0 4.86961e-15 0 0 -1.0417e-14 0 0 0 0)
(-9.44655e-14 5.97634e-15 0 4.72328e-14 -9.40888e-15 0 0 0 0)
(0 -1.77077e-15 0 0 -9.18486e-15 0 0 0 0)
(0 -6.64038e-16 0 0 -9.18486e-15 0 0 0 0)
(0 -3.98423e-15 0 0 -1.15371e-14 0 0 0 0)
(0 -7.52577e-15 0 0 -7.16867e-15 0 0 0 0)
(9.44655e-14 -7.30442e-15 0 0 -1.00809e-14 0 0 0 0)
(0 -3.76288e-15 0 0 -9.07285e-15 0 0 0 0)
(-9.44655e-14 5.31231e-15 0 0 -9.40888e-15 0 0 0 0)
(0 5.31231e-15 0 0 -9.18486e-15 0 0 0 0)
(0 -6.64038e-16 0 -4.72328e-14 -7.95275e-15 0 0 0 0)
(0 2.21346e-16 0 0 -8.28878e-15 0 0 0 0)
(9.44655e-14 2.62195e-30 0 0 -8.5128e-15 0 0 0 0)
(9.44655e-14 -2.43481e-15 0 0 -1.50094e-14 0 0 0 0)
(-9.44655e-14 -4.42692e-15 0 0 -2.19541e-14 0 0 0 0)
(-9.44655e-14 -2.8775e-15 0 0 -3.09149e-14 0 0 0 0)
(0 -2.21346e-15 0 -4.72328e-14 -3.2259e-14 0 0 0 0)
(0 -2.21346e-16 0 -4.72328e-14 -3.12509e-14 0 0 0 0)
(0 1.77077e-15 0 0 -3.1475e-14 0 0 0 0)
(0 4.42692e-16 0 0 -2.78906e-14 0 0 0 0)
(9.44655e-14 3.54154e-15 0 0 -2.64345e-14 0 0 0 0)
(0 5.53365e-15 0 0 -3.04669e-14 0 0 0 0)
(0 -8.85384e-16 0 0 -2.90107e-14 0 0 0 0)
(0 5.755e-15 0 0 -3.36032e-14 0 0 0 0)
(-1.88931e-13 5.755e-15 0 1.41698e-13 -3.28191e-14 0 0 0 0)
(0 -4.42692e-15 0 0 -2.95708e-14 0 0 0 0)
(9.44655e-14 -1.70332e-14 0 0 -2.91227e-14 0 0 0 0)
(-0.156506 0.177188 0 0 -3.59726e-14 0 0 0 0)
(9.44655e-14 -8.85384e-15 0 0 -3.58434e-15 0 0 0 0)
(0 -2.65615e-15 0 -4.72328e-14 -8.96084e-16 0 0 0 0)
(0 -2.65615e-15 0 -4.72328e-14 -1.12011e-15 0 0 0 0)
(0 -6.03047e-29 0 0 -1.34413e-15 0 0 0 0)
(9.44655e-14 0 0 4.72328e-14 -3.92037e-15 0 0 0 0)
(-9.44655e-14 -3.32019e-15 0 0 1.12011e-15 0 0 0 0)
(9.44655e-14 -1.43875e-14 0 -4.72328e-14 -1.40013e-14 0 0 0 0)
(0 -8.41115e-15 0 -9.44655e-14 -1.60175e-14 0 0 0 0)
(-9.44655e-14 1.99211e-15 0 4.72328e-14 -1.40013e-14 0 0 0 0)
(9.44655e-14 4.42692e-16 0 0 -1.43373e-14 0 0 0 0)
(-9.44655e-14 -1.99211e-15 0 0 -1.78097e-14 0 0 0 0)
(0 -2.21346e-15 0 -4.72328e-14 -1.61295e-14 0 0 0 0)
(2.83397e-13 2.8775e-15 0 0 -9.96894e-15 0 0 0 0)
(-1.88931e-13 2.43481e-15 0 0 -1.80337e-14 0 0 0 0)
(-9.44655e-14 4.42692e-16 0 0 -1.57935e-14 0 0 0 0)
(0 -4.64827e-15 0 0 -1.73616e-14 0 0 0 0)
(0 -3.09884e-15 0 0 -2.117e-14 0 0 0 0)
(9.44655e-14 -3.76288e-15 0 0 -1.37773e-14 0 0 0 0)
(-9.44655e-14 -2.65615e-15 0 0 -1.45614e-14 0 0 0 0)
(0 2.8775e-15 0 0 -1.0641e-14 0 0 0 0)
(0 1.54942e-15 0 4.72328e-14 -6.72063e-16 0 0 0 0)
(0 4.42692e-15 0 0 -9.85692e-15 0 0 0 0)
(0 3.54154e-15 0 4.72328e-14 -4.03238e-15 0 0 0 0)
(0 8.85384e-16 0 0 -3.92037e-15 0 0 0 0)
(0 -5.53365e-15 0 0 -4.03238e-15 0 0 0 0)
(0 -1.28381e-14 0 -4.72328e-14 -3.92037e-15 0 0 0 0)
(0 -1.59369e-14 0 -4.72328e-14 -2.80026e-15 0 0 0 0)
(-9.44655e-14 -7.74711e-15 0 4.72328e-14 -3.13629e-15 0 0 0 0)
(-9.44655e-14 1.77077e-15 0 0 -1.90418e-15 0 0 0 0)
(9.44655e-14 6.64038e-16 0 0 -3.36032e-16 0 0 0 0)
(9.44655e-14 6.41904e-15 0 0 -8.96084e-16 0 0 0 0)
(-9.44655e-14 7.96846e-15 0 4.72328e-14 -3.36032e-16 0 0 0 0)
(9.44655e-14 6.64038e-16 0 -4.72328e-14 -1.12011e-16 0 0 0 0)
(-9.44655e-14 6.64038e-16 0 0 -1.90418e-15 0 0 0 0)
(9.44655e-14 -6.41904e-15 0 0 -2.24021e-15 0 0 0 0)
(2.83397e-13 -4.42692e-15 0 -4.72328e-14 -2.80026e-15 0 0 0 0)
(-2.83397e-13 6.86173e-15 0 0 -9.96894e-15 0 0 0 0)
(-9.44655e-14 2.8775e-15 0 0 -7.72873e-15 0 0 0 0)
(9.44655e-14 -1.88485e-14 0 -4.72328e-14 -4.92846e-15 0 0 0 0)
(-2.57934e-05 9.7122e-06 0 -4.72328e-14 -6.97387e-16 0 0 0 0)
(2.83397e-13 -1.41661e-14 0 -4.72328e-14 2.24021e-15 0 0 0 0)
(-2.83397e-13 4.9817e-29 0 -4.72328e-14 2.24021e-15 0 0 0 0)
(-9.44655e-14 2.09756e-29 0 0 4.36841e-15 0 0 0 0)
(2.83397e-13 -8.41115e-15 0 -4.72328e-14 4.36841e-15 0 0 0 0)
(0 -1.01819e-14 0 -4.72328e-14 4.36841e-15 0 0 0 0)
(0 -7.96846e-15 0 -4.72328e-14 5.82455e-15 0 0 0 0)
(0 -1.26167e-14 0 0 6.3846e-15 0 0 0 0)
(0 -3.09884e-15 0 -4.72328e-14 1.27692e-14 0 0 0 0)
(9.44655e-14 3.09884e-15 0 0 1.0641e-14 0 0 0 0)
(0 -6.86173e-15 0 0 9.07285e-15 0 0 0 0)
(-9.44655e-14 -3.76288e-15 0 -4.72328e-14 7.5047e-15 0 0 0 0)
(0 1.2174e-14 0 4.72328e-14 8.28878e-15 0 0 0 0)
(0 1.10673e-15 0 0 9.85692e-15 0 0 0 0)
(0 -5.53365e-15 0 -4.72328e-14 7.84074e-15 0 0 0 0)
(0 -4.42692e-16 0 0 1.13131e-14 0 0 0 0)
(0 -1.12886e-14 0 0 1.0529e-14 0 0 0 0)
(0 3.09884e-15 0 0 1.0753e-14 0 0 0 0)
(9.44655e-14 5.53365e-15 0 0 1.28812e-14 0 0 0 0)
(0 -1.10673e-15 0 0 1.41133e-14 0 0 0 0)
(0 2.3684e-14 0 0 1.24332e-14 0 0 0 0)
(-2.83397e-13 6.86173e-15 0 0 1.26572e-14 0 0 0 0)
(1.88931e-13 -1.32808e-15 0 0 1.19851e-14 0 0 0 0)
(0 1.10673e-14 0 0 3.02428e-15 0 0 0 0)
(0 2.21346e-16 0 0 1.0305e-14 0 0 0 0)
(0 1.83536e-29 0 0 1.0753e-14 0 0 0 0)
(0 -5.24389e-30 0 0 1.71376e-14 0 0 0 0)
(0 -2.8775e-15 0 0 2.21781e-14 0 0 0 0)
(9.44655e-14 -1.10673e-15 0 0 2.67705e-14 0 0 0 0)
(-9.44655e-14 3.32019e-15 0 4.72328e-14 2.60984e-14 0 0 0 0)
(-1.88931e-13 1.77077e-15 0 4.72328e-14 2.58744e-14 0 0 0 0)
(2.83397e-13 1.77077e-15 0 -4.72328e-14 2.57624e-14 0 0 0 0)
(0 1.99211e-15 0 0 1.83697e-14 0 0 0 0)
(0 4.42692e-16 0 4.72328e-14 2.173e-14 0 0 0 0)
(0 1.32808e-15 0 0 1.80337e-14 0 0 0 0)
(-2.83397e-13 -2.65615e-15 0 4.72328e-14 1.71376e-14 0 0 0 0)
(1.88931e-13 -9.51788e-15 0 -4.72328e-14 2.39702e-14 0 0 0 0)
(-1.88931e-13 -3.98423e-15 0 -4.72328e-14 2.56504e-14 0 0 0 0)
(-9.44655e-14 5.53365e-15 0 0 2.84507e-14 0 0 0 0)
(0 -3.13843e-15 0 0 3.52833e-14 0 0 0 0)
(1.08585e-08 -1.21826e-09 0 0 3.37634e-14 0 0 0 0)
(0 0 0 -4.72328e-14 7.16867e-15 0 0 0 0)
(0 1.54942e-15 0 4.72328e-14 7.16867e-15 0 0 0 0)
(1.88931e-13 1.54942e-15 0 4.72328e-14 7.16867e-15 0 0 0 0)
(-1.88931e-13 1.11433e-29 0 4.72328e-14 7.16867e-15 0 0 0 0)
(0 2.8775e-15 0 0 1.56815e-14 0 0 0 0)
(1.88931e-13 6.64038e-16 0 4.72328e-14 1.57935e-14 0 0 0 0)
(0 -6.64038e-16 0 -4.72328e-14 1.85937e-14 0 0 0 0)
(0 -2.62195e-30 0 0 2.173e-14 0 0 0 0)
(0 -5.31231e-15 0 0 1.99379e-14 0 0 0 0)
(-1.88931e-13 -5.755e-15 0 -9.44655e-14 2.31862e-14 0 0 0 0)
(0 -3.54154e-15 0 -4.72328e-14 3.04669e-14 0 0 0 0)
(1.88931e-13 2.43481e-15 0 4.72328e-14 2.83387e-14 0 0 0 0)
(0 1.99211e-15 0 -4.72328e-14 1.85937e-14 0 0 0 0)
(0 5.31231e-15 0 0 2.27381e-14 0 0 0 0)
(-1.88931e-13 5.755e-15 0 0 2.1394e-14 0 0 0 0)
(0 -5.755e-15 0 0 2.55384e-14 0 0 0 0)
(1.88931e-13 1.54942e-15 0 0 3.41632e-14 0 0 0 0)
(0 2.8775e-15 0 -4.72328e-14 2.55384e-14 0 0 0 0)
(0 -3.54154e-15 0 0 3.13629e-14 0 0 0 0)
(0 2.94969e-30 0 -4.72328e-14 2.56504e-14 0 0 0 0)
(0 6.64038e-16 0 -4.72328e-14 8.06476e-15 0 0 0 0)
(0 -1.46088e-14 0 4.72328e-14 1.83697e-14 0 0 0 0)
(0 2.21346e-16 0 -9.44655e-14 1.00809e-14 0 0 0 0)
(-1.88931e-13 1.61583e-14 0 4.72328e-14 1.25452e-14 0 0 0 0)
(1.88931e-13 7.96846e-15 0 -4.72328e-14 1.70256e-14 0 0 0 0)
(0 9.73923e-15 0 4.72328e-14 1.52334e-14 0 0 0 0)
(9.44655e-14 3.09884e-15 0 -4.72328e-14 1.27692e-14 0 0 0 0)
(0 -7.86584e-29 0 0 1.28812e-14 0 0 0 0)
(-9.44655e-14 -8.91461e-29 0 -4.72328e-14 1.19851e-14 0 0 0 0)
(-1.88931e-13 -6.81706e-29 0 -4.72328e-14 1.12011e-14 0 0 0 0)
(1.88931e-13 -8.41115e-15 0 4.72328e-14 1.1089e-14 0 0 0 0)
(0 9.96339e-29 0 -4.72328e-14 1.0305e-14 0 0 0 0)
(0 -2.35975e-29 0 4.72328e-14 1.0193e-14 0 0 0 0)
(0 -8.41115e-15 0 0 1.00809e-14 0 0 0 0)
(0 5.31231e-15 0 -4.72328e-14 9.40888e-15 0 0 0 0)
(0 1.23954e-14 0 0 1.14251e-14 0 0 0 0)
(-1.88931e-13 1.57156e-14 0 0 1.70256e-14 0 0 0 0)
(1.88931e-13 2.19133e-14 0 1.88931e-13 1.53454e-14 0 0 0 0)
(0 -8.3498e-15 0 0 1.15371e-14 0 0 0 0)
(1.08257e-10 -2.21099e-10 0 0 1.49678e-14 0 0 0 0)
(0 1.41661e-14 0 0 -7.21035e-30 0 0 0 0)
(9.44655e-14 -5.76828e-29 0 0 -1.31097e-29 0 0 0 0)
(0 -1.83536e-29 0 0 -7.84074e-16 0 0 0 0)
(0 8.41115e-15 0 0 -7.84074e-16 0 0 0 0)
(0 6.86173e-15 0 0 -7.84074e-16 0 0 0 0)
(-9.44655e-14 -2.21346e-15 0 -4.72328e-14 -2.24021e-15 0 0 0 0)
(0 -8.85384e-16 0 0 -1.12011e-15 0 0 0 0)
(9.44655e-14 -4.42692e-16 0 0 -1.90418e-15 0 0 0 0)
(-9.44655e-14 5.97634e-15 0 -4.72328e-14 -1.90418e-15 0 0 0 0)
(0 1.39448e-14 0 0 2.1282e-15 0 0 0 0)
(0 6.41904e-15 0 4.72328e-14 4.48042e-15 0 0 0 0)
(9.44655e-14 -1.12886e-14 0 0 7.05666e-15 0 0 0 0)
(0 -9.96057e-15 0 0 4.2564e-15 0 0 0 0)
(0 7.86584e-29 0 0 5.26449e-15 0 0 0 0)
(0 5.09096e-15 0 0 -1.34413e-15 0 0 0 0)
(0 1.39448e-14 0 0 5.60053e-16 0 0 0 0)
(0 3.09884e-15 0 0 4.36841e-15 0 0 0 0)
(0 1.04878e-29 0 0 -2.57624e-15 0 0 0 0)
(0 -8.85384e-16 0 0 5.60053e-16 0 0 0 0)
(0 -2.2356e-14 0 0 1.68016e-15 0 0 0 0)
(0 -7.52577e-15 0 0 1.56815e-15 0 0 0 0)
(-9.44655e-14 2.65615e-15 0 4.72328e-14 2.91227e-15 0 0 0 0)
(1.88931e-13 -4.42692e-16 0 0 1.0305e-14 0 0 0 0)
(0 1.39448e-14 0 9.44655e-14 -1.34413e-15 0 0 0 0)
(0 5.31231e-15 0 9.44655e-14 -2.91227e-15 0 0 0 0)
(0 -8.41115e-15 0 -4.72328e-14 -7.5047e-15 0 0 0 0)
(-9.44655e-14 -7.52577e-15 0 0 -9.85692e-15 0 0 0 0)
(0 -2.65615e-15 0 0 -8.5128e-15 0 0 0 0)
(-9.44655e-14 1.57317e-29 0 0 -8.28878e-15 0 0 0 0)
(0 -9.96339e-29 0 0 -8.28878e-15 0 0 0 0)
(0 -4.7195e-29 0 0 -8.28878e-15 0 0 0 0)
(9.44655e-14 2.21346e-16 0 -4.72328e-14 1.34413e-15 0 0 0 0)
(9.44655e-14 3.67072e-29 0 0 -7.05666e-15 0 0 0 0)
(-9.44655e-14 -2.21346e-16 0 -4.72328e-14 -2.62195e-29 0 0 0 0)
(-9.44655e-14 -1.04878e-29 0 0 -6.72063e-16 0 0 0 0)
(9.44655e-14 5.53365e-15 0 0 -7.61671e-15 0 0 0 0)
(9.44655e-14 3.76288e-15 0 4.72328e-14 -1.55695e-14 0 0 0 0)
(0 -5.31231e-15 0 0 -2.35222e-14 0 0 0 0)
(-1.88931e-13 -3.88468e-15 0 0 -2.86747e-14 0 0 0 0)
(-1.88931e-13 3.81293e-14 0 0 -2.53181e-14 0 0 0 0)
(1.88931e-13 0 0 4.72328e-14 -3.58434e-15 0 0 0 0)
(0 0 0 0 -3.58434e-15 0 0 0 0)
(0 0 0 0 -3.58434e-15 0 0 0 0)
(0 0 0 0 -3.13629e-15 0 0 0 0)
(-1.88931e-13 0 0 0 -4.2564e-15 0 0 0 0)
(0 0 0 0 -2.57624e-15 0 0 0 0)
(1.88931e-13 0 0 4.72328e-14 1.12011e-15 0 0 0 0)
(-1.88931e-13 -1.54942e-15 0 0 1.23212e-15 0 0 0 0)
(1.88931e-13 2.65615e-15 0 0 1.34413e-15 0 0 0 0)
(0 6.86173e-15 0 9.44655e-14 -5.82455e-15 0 0 0 0)
(0 6.19769e-15 0 0 -9.40888e-15 0 0 0 0)
(0 1.99211e-15 0 0 -7.84074e-15 0 0 0 0)
(0 -1.54942e-15 0 0 -2.01619e-15 0 0 0 0)
(0 -5.755e-15 0 0 1.90418e-15 0 0 0 0)
(0 -3.54154e-15 0 0 7.16867e-15 0 0 0 0)
(0 5.53365e-15 0 0 3.69635e-15 0 0 0 0)
(0 -4.64827e-15 0 0 -6.94465e-15 0 0 0 0)
(0 -4.64827e-15 0 4.72328e-14 1.12011e-16 0 0 0 0)
(0 4.86961e-15 0 0 -2.91227e-15 0 0 0 0)
(0 1.99211e-15 0 0 5.60053e-16 0 0 0 0)
(9.44655e-14 3.09884e-15 0 4.72328e-14 8.40079e-15 0 0 0 0)
(0 2.65615e-15 0 0 1.45614e-15 0 0 0 0)
(0 -8.1898e-15 0 4.72328e-14 4.36841e-15 0 0 0 0)
(9.44655e-14 -9.96057e-15 0 -1.41698e-13 1.12011e-16 0 0 0 0)
(-9.44655e-14 -4.20558e-15 0 -4.72328e-14 -9.85692e-15 0 0 0 0)
(-9.44655e-14 -3.98423e-15 0 -4.72328e-14 -8.06476e-15 0 0 0 0)
(9.44655e-14 1.10673e-15 0 0 -5.60053e-15 0 0 0 0)
(0 3.09884e-15 0 0 -4.2564e-15 0 0 0 0)
(-9.44655e-14 4.42692e-16 0 4.72328e-14 -5.04047e-15 0 0 0 0)
(0 -9.7012e-29 0 4.72328e-14 -6.49661e-15 0 0 0 0)
(0 1.06246e-14 0 0 -2.91227e-15 0 0 0 0)
(0 2.43481e-15 0 4.72328e-14 -8.5128e-15 0 0 0 0)
(-1.88931e-13 -2.65615e-15 0 -4.72328e-14 -7.39269e-15 0 0 0 0)
(0 4.20558e-15 0 0 -5.60053e-15 0 0 0 0)
(1.88931e-13 -9.73923e-15 0 0 -4.92846e-15 0 0 0 0)
(9.44655e-14 -1.70436e-14 0 0 -2.68825e-15 0 0 0 0)
(0 -1.57156e-14 0 0 -2.80026e-15 0 0 0 0)
(-9.44655e-14 -3.98423e-15 0 -4.72328e-14 -2.91227e-15 0 0 0 0)
(0 -1.18986e-14 0 4.72328e-14 -2.01619e-15 0 0 0 0)
(0 3.07889e-14 0 4.72328e-14 4.53127e-15 0 0 0 0)
(1.88931e-13 0 0 0 0 0 0 0 0)
(0 0 0 4.72328e-14 0 0 0 0 0)
(0 8.85384e-16 0 0 2.91227e-15 0 0 0 0)
(0 7.08307e-15 0 0 9.40888e-15 0 0 0 0)
(0 7.96846e-15 0 0 8.17677e-15 0 0 0 0)
(0 8.41115e-15 0 4.72328e-14 7.28068e-15 0 0 0 0)
(0 6.64038e-15 0 0 6.49661e-15 0 0 0 0)
(-1.88931e-13 -1.78292e-28 0 -4.72328e-14 8.73682e-15 0 0 0 0)
(1.88931e-13 -7.96846e-15 0 0 1.85937e-14 0 0 0 0)
(9.44655e-14 -7.30442e-15 0 0 1.43373e-14 0 0 0 0)
(-9.44655e-14 2.43481e-15 0 0 1.1089e-14 0 0 0 0)
(0 3.32019e-15 0 0 1.50094e-14 0 0 0 0)
(0 9.29653e-15 0 0 1.13131e-14 0 0 0 0)
(0 1.81504e-14 0 0 1.27692e-14 0 0 0 0)
(0 8.6325e-15 0 4.72328e-14 1.42253e-14 0 0 0 0)
(0 -1.39448e-14 0 0 1.18731e-14 0 0 0 0)
(0 -3.98423e-15 0 0 1.41133e-14 0 0 0 0)
(9.44655e-14 7.96846e-15 0 0 1.69136e-14 0 0 0 0)
(-9.44655e-14 -2.20243e-28 0 0 1.41133e-14 0 0 0 0)
(9.44655e-14 1.57317e-28 0 0 1.23212e-14 0 0 0 0)
(0 -5.755e-15 0 0 9.74491e-15 0 0 0 0)
(-9.44655e-14 -5.31231e-15 0 -4.72328e-14 6.72063e-15 0 0 0 0)
(-1.88931e-13 -3.09884e-15 0 0 4.2564e-15 0 0 0 0)
(-9.44655e-14 -1.41661e-14 0 -4.72328e-14 9.6329e-15 0 0 0 0)
(9.44655e-14 -1.0846e-14 0 -4.72328e-14 1.0753e-14 0 0 0 0)
(0 0 0 4.72328e-14 1.19851e-14 0 0 0 0)
(0 5.76828e-29 0 0 1.42253e-14 0 0 0 0)
(1.88931e-13 -1.54942e-15 0 -4.72328e-14 1.28812e-14 0 0 0 0)
(-1.88931e-13 -4.42692e-15 0 -4.72328e-14 1.26572e-14 0 0 0 0)
(0 4.20558e-15 0 -4.72328e-14 1.25452e-14 0 0 0 0)
(1.88931e-13 -3.98423e-15 0 0 1.66896e-14 0 0 0 0)
(0 -8.6325e-15 0 -4.72328e-14 1.15371e-14 0 0 0 0)
(9.44655e-14 5.755e-15 0 0 1.98259e-14 0 0 0 0)
(-9.44655e-14 4.64827e-15 0 4.72328e-14 1.20971e-14 0 0 0 0)
(-2.83397e-13 5.755e-15 0 -4.72328e-14 1.0641e-14 0 0 0 0)
(2.83397e-13 9.73923e-15 0 0 1.63535e-14 0 0 0 0)
(0 3.32019e-15 0 -4.72328e-14 2.06099e-14 0 0 0 0)
(0 -3.76288e-15 0 0 2.41943e-14 0 0 0 0)
(0 1.08246e-14 0 0 2.26261e-14 0 0 0 0)
(9.44655e-14 -1.43985e-14 0 0 3.00204e-14 0 0 0 0)
(1.88931e-13 0 0 4.72328e-14 0 0 0 0 0)
(0 5.755e-15 0 -4.72328e-14 0 0 0 0 0)
(-9.44655e-14 1.85931e-14 0 0 7.84074e-16 0 0 0 0)
(9.44655e-14 1.04033e-14 0 0 3.36032e-16 0 0 0 0)
(0 -4.20558e-15 0 4.72328e-14 -4.03238e-15 0 0 0 0)
(0 -3.32019e-15 0 4.72328e-14 -5.04047e-15 0 0 0 0)
(-9.44655e-14 2.8775e-15 0 4.72328e-14 -1.13131e-14 0 0 0 0)
(0 2.2356e-14 0 4.72328e-14 -1.0417e-14 0 0 0 0)
(0 1.37235e-14 0 4.72328e-14 -5.71254e-15 0 0 0 0)
(0 -7.96846e-15 0 0 -1.79217e-15 0 0 0 0)
(0 7.52577e-15 0 0 -1.90418e-15 0 0 0 0)
(9.44655e-14 2.43481e-15 0 0 -1.34413e-15 0 0 0 0)
(-9.44655e-14 -5.97634e-15 0 4.72328e-14 -2.1282e-15 0 0 0 0)
(9.44655e-14 -2.41219e-28 0 0 -7.61671e-15 0 0 0 0)
(0 -5.31231e-15 0 0 -1.94898e-14 0 0 0 0)
(0 5.31231e-15 0 4.72328e-14 -1.62415e-14 0 0 0 0)
(0 5.31231e-15 0 0 -8.73682e-15 0 0 0 0)
(0 -4.64827e-15 0 0 -1.54575e-14 0 0 0 0)
(0 -4.20558e-15 0 0 -2.117e-14 0 0 0 0)
(0 -6.64038e-15 0 4.72328e-14 -1.99379e-14 0 0 0 0)
(0 -7.96846e-15 0 0 -1.89298e-14 0 0 0 0)
(-9.44655e-14 -8.1898e-15 0 0 -1.0193e-14 0 0 0 0)
(0 -2.43481e-15 0 4.72328e-14 -9.85692e-15 0 0 0 0)
(0 2.8775e-15 0 4.72328e-14 -9.29687e-15 0 0 0 0)
(0 4.42692e-16 0 0 -4.2564e-15 0 0 0 0)
(0 2.8775e-15 0 0 -1.34413e-15 0 0 0 0)
(0 2.8775e-15 0 4.72328e-14 -1.34413e-15 0 0 0 0)
(-9.44655e-14 7.86584e-29 0 0 -1.34413e-15 0 0 0 0)
(-1.88931e-13 -2.21346e-16 0 0 2.91227e-15 0 0 0 0)
(1.88931e-13 7.96846e-15 0 0 1.16491e-14 0 0 0 0)
(0 8.6325e-15 0 0 5.26449e-15 0 0 0 0)
(0 8.6325e-15 0 0 1.25452e-14 0 0 0 0)
(9.44655e-14 -1.54942e-15 0 0 1.17611e-14 0 0 0 0)
(-9.44655e-14 -1.39448e-14 0 0 9.96894e-15 0 0 0 0)
(0 -1.32808e-15 0 4.72328e-14 1.35533e-14 0 0 0 0)
(9.44655e-14 2.65615e-15 0 0 6.83264e-15 0 0 0 0)
(0 -2.21346e-16 0 0 -1.45614e-15 0 0 0 0)
(0 -6.29267e-29 0 0 3.80836e-15 0 0 0 0)
(0 -3.85592e-16 0 -4.72328e-14 4.03238e-15 0 0 0 0)
(-9.44655e-14 -5.29251e-15 0 0 -4.37027e-15 0 0 0 0)
(9.44655e-14 0 0 -9.44655e-14 -7.84074e-16 0 0 0 0)
(0 1.54942e-15 0 -4.72328e-14 -7.84074e-16 0 0 0 0)
(0 1.54942e-15 0 4.72328e-14 -5.04047e-15 0 0 0 0)
(0 -2.43481e-15 0 0 -1.59055e-14 0 0 0 0)
(0 -2.65615e-15 0 -4.72328e-14 -1.46734e-14 0 0 0 0)
(0 -5.97634e-15 0 -4.72328e-14 -1.37773e-14 0 0 0 0)
(0 -3.98423e-15 0 -4.72328e-14 -1.29932e-14 0 0 0 0)
(0 1.10673e-14 0 0 -1.59055e-14 0 0 0 0)
(9.44655e-14 9.07519e-15 0 4.72328e-14 -3.12509e-14 0 0 0 0)
(0 2.21346e-16 0 -4.72328e-14 -2.77786e-14 0 0 0 0)
(-9.44655e-14 3.32019e-15 0 -4.72328e-14 -2.58744e-14 0 0 0 0)
(0 2.8775e-15 0 0 -3.55073e-14 0 0 0 0)
(0 -3.09884e-15 0 -9.44655e-14 -3.13629e-14 0 0 0 0)
(0 -1.61583e-14 0 0 -3.1923e-14 0 0 0 0)
(9.44655e-14 -8.41115e-15 0 -9.44655e-14 -2.85627e-14 0 0 0 0)
(0 7.30442e-15 0 -4.72328e-14 -2.80026e-14 0 0 0 0)
(-9.44655e-14 -2.43481e-15 0 0 -3.58434e-14 0 0 0 0)
(0 -1.6601e-14 0 -9.44655e-14 -3.38272e-14 0 0 0 0)
(9.44655e-14 -8.85384e-15 0 0 -2.74426e-14 0 0 0 0)
(0 4.42692e-15 0 -4.72328e-14 -2.72186e-14 0 0 0 0)
(-9.44655e-14 1.35021e-14 0 -9.44655e-14 -2.63225e-14 0 0 0 0)
(9.44655e-14 1.26167e-14 0 0 -2.53144e-14 0 0 0 0)
(0 -1.32808e-15 0 -4.72328e-14 -2.28501e-14 0 0 0 0)
(-1.88931e-13 -3.09884e-15 0 0 -2.0834e-14 0 0 0 0)
(0 4.86961e-15 0 0 -1.96018e-14 0 0 0 0)
(9.44655e-14 5.755e-15 0 4.72328e-14 -1.45614e-14 0 0 0 0)
(0 -1.24542e-29 0 0 -1.59055e-14 0 0 0 0)
(0 6.86173e-15 0 -4.72328e-14 -1.57935e-14 0 0 0 0)
(0 2.12492e-14 0 9.44655e-14 -1.57935e-14 0 0 0 0)
(0 8.85384e-15 0 9.44655e-14 -1.42253e-14 0 0 0 0)
(0 -2.21346e-15 0 -4.72328e-14 -2.1618e-14 0 0 0 0)
(0 4.20558e-15 0 4.72328e-14 -2.73306e-14 0 0 0 0)
(0 6.64038e-16 0 0 -2.97948e-14 0 0 0 0)
(0 8.1898e-15 0 -4.72328e-14 -2.57624e-14 0 0 0 0)
(0 -4.42692e-16 0 9.44655e-14 -2.24021e-14 0 0 0 0)
(0 -1.99211e-14 0 0 -1.97138e-14 0 0 0 0)
(0 -2.65615e-15 0 -9.44655e-14 -1.28812e-14 0 0 0 0)
(0 7.08307e-15 0 0 -1.56815e-14 0 0 0 0)
(-9.44655e-14 -5.3373e-15 0 0 -1.55695e-14 0 0 0 0)
(0 -1.31234e-15 0 -4.72328e-14 -1.72124e-14 0 0 0 0)
(0 -3.09884e-15 0 0 7.84074e-16 0 0 0 0)
(9.44655e-14 -2.65615e-15 0 4.72328e-14 7.84074e-16 0 0 0 0)
(9.44655e-14 -1.12886e-14 0 4.72328e-14 -1.12011e-15 0 0 0 0)
(-9.44655e-14 -8.6325e-15 0 0 -1.45614e-15 0 0 0 0)
(0 -5.24389e-30 0 -4.72328e-14 1.23212e-15 0 0 0 0)
(0 4.19511e-29 0 0 1.34413e-15 0 0 0 0)
(0 -1.32808e-15 0 0 4.2564e-15 0 0 0 0)
(9.44655e-14 -1.37235e-14 0 4.72328e-14 3.36032e-15 0 0 0 0)
(-9.44655e-14 -9.73923e-15 0 0 -5.3765e-15 0 0 0 0)
(-9.44655e-14 2.65615e-15 0 -4.72328e-14 -4.81645e-15 0 0 0 0)
(0 -7.74711e-15 0 0 -4.48042e-15 0 0 0 0)
(0 -8.41115e-15 0 0 -1.13131e-14 0 0 0 0)
(0 1.10673e-15 0 0 -1.00809e-14 0 0 0 0)
(0 5.53365e-15 0 4.72328e-14 -8.62481e-15 0 0 0 0)
(0 2.43481e-15 0 0 -2.01619e-15 0 0 0 0)
(0 -9.07519e-15 0 -4.72328e-14 -2.80026e-15 0 0 0 0)
(0 -6.19769e-15 0 0 -5.3765e-15 0 0 0 0)
(0 1.19527e-14 0 0 -3.13629e-15 0 0 0 0)
(0 8.85384e-15 0 0 2.68825e-15 0 0 0 0)
(0 -4.42692e-15 0 -4.72328e-14 2.24021e-15 0 0 0 0)
(0 -4.20558e-15 0 0 3.36032e-15 0 0 0 0)
(0 -1.32808e-15 0 0 -6.72063e-15 0 0 0 0)
(9.44655e-14 6.41904e-15 0 -4.72328e-14 -5.82455e-15 0 0 0 0)
(0 9.29653e-15 0 4.72328e-14 -4.70444e-15 0 0 0 0)
(9.44655e-14 1.28381e-14 0 4.72328e-14 1.12011e-16 0 0 0 0)
(0 1.01819e-14 0 9.44655e-14 -6.83264e-15 0 0 0 0)
(-1.88931e-13 4.42692e-16 0 -4.72328e-14 -7.16867e-15 0 0 0 0)
(1.88931e-13 2.21346e-16 0 4.72328e-14 -7.16867e-15 0 0 0 0)
(9.44655e-14 2.8775e-15 0 0 -1.31052e-14 0 0 0 0)
(-1.88931e-13 -3.54154e-15 0 0 -2.64345e-14 0 0 0 0)
(-9.44655e-14 -1.7265e-14 0 0 -2.21781e-14 0 0 0 0)
(9.44655e-14 -7.52577e-15 0 0 -2.49783e-14 0 0 0 0)
(9.44655e-14 1.54942e-15 0 0 -2.20661e-14 0 0 0 0)
(0 6.64038e-16 0 4.72328e-14 -1.73616e-14 0 0 0 0)
(0 1.06246e-14 0 0 -2.85627e-14 0 0 0 0)
(-9.44655e-14 2.14706e-14 0 0 -2.27381e-14 0 0 0 0)
(-9.44655e-14 7.74711e-15 0 0 -1.70256e-14 0 0 0 0)
(9.44655e-14 -5.31231e-15 0 -4.72328e-14 -2.53144e-14 0 0 0 0)
(-9.44655e-14 -3.4109e-15 0 0 -2.117e-14 0 0 0 0)
(9.44655e-14 5.98007e-15 0 0 -1.44436e-14 0 0 0 0)
(0 3.09884e-15 0 4.72328e-14 7.84074e-16 0 0 0 0)
(1.88931e-13 -2.21346e-15 0 4.72328e-14 2.24021e-15 0 0 0 0)
(0 -2.8775e-15 0 -4.72328e-14 -8.96084e-16 0 0 0 0)
(-1.88931e-13 2.21346e-15 0 0 5.60053e-16 0 0 0 0)
(0 2.8775e-15 0 4.72328e-14 3.13629e-15 0 0 0 0)
(0 0 0 0 3.69635e-15 0 0 0 0)
(9.44655e-14 -9.83229e-30 0 0 7.16867e-15 0 0 0 0)
(9.44655e-14 -7.96846e-15 0 0 3.58434e-15 0 0 0 0)
(-9.44655e-14 -7.08307e-15 0 -4.72328e-14 1.25452e-14 0 0 0 0)
(-9.44655e-14 1.99211e-15 0 4.72328e-14 1.12011e-14 0 0 0 0)
(0 -9.51788e-15 0 4.72328e-14 1.13131e-14 0 0 0 0)
(0 -8.1898e-15 0 -4.72328e-14 1.54575e-14 0 0 0 0)
(1.88931e-13 2.21346e-15 0 0 1.57935e-14 0 0 0 0)
(0 -2.21346e-16 0 0 1.0529e-14 0 0 0 0)
(-1.88931e-13 3.09884e-15 0 4.72328e-14 9.52089e-15 0 0 0 0)
(9.44655e-14 6.64038e-16 0 0 1.17611e-14 0 0 0 0)
(0 -3.09884e-15 0 0 1.59055e-14 0 0 0 0)
(0 -6.64038e-16 0 4.72328e-14 1.65776e-14 0 0 0 0)
(-9.44655e-14 1.77077e-15 0 0 8.5128e-15 0 0 0 0)
(0 5.755e-15 0 0 1.0641e-14 0 0 0 0)
(0 -4.20558e-15 0 4.72328e-14 1.36653e-14 0 0 0 0)
(0 -5.53365e-15 0 -4.72328e-14 1.14251e-14 0 0 0 0)
(1.88931e-13 2.65615e-15 0 0 1.28812e-14 0 0 0 0)
(0 8.6325e-15 0 0 7.05666e-15 0 0 0 0)
(0 6.64038e-16 0 0 5.3765e-15 0 0 0 0)
(-9.44655e-14 -8.6325e-15 0 -9.44655e-14 -2.57624e-15 0 0 0 0)
(0 -6.64038e-16 0 0 -2.68825e-15 0 0 0 0)
(9.44655e-14 -4.86961e-15 0 4.72328e-14 -2.80026e-15 0 0 0 0)
(-9.44655e-14 -1.68223e-14 0 -4.72328e-14 -2.80026e-15 0 0 0 0)
(0 -9.07519e-15 0 -4.72328e-14 -4.2564e-15 0 0 0 0)
(-9.44655e-14 6.64038e-16 0 4.72328e-14 2.68825e-15 0 0 0 0)
(9.44655e-14 4.42692e-15 0 -4.72328e-14 8.73682e-15 0 0 0 0)
(9.44655e-14 1.57156e-14 0 0 3.47233e-15 0 0 0 0)
(0 -4.64827e-15 0 -4.72328e-14 3.80836e-15 0 0 0 0)
(-9.44655e-14 -1.10673e-14 0 -4.72328e-14 2.57624e-15 0 0 0 0)
(0 2.8775e-15 0 4.72328e-14 -1.12011e-15 0 0 0 0)
(0 -7.74711e-15 0 9.44655e-14 -1.12011e-14 0 0 0 0)
(-9.44655e-14 -1.10673e-15 0 0 -5.60053e-15 0 0 0 0)
(0 1.61447e-14 0 0 -3.80836e-15 0 0 0 0)
(1.88931e-13 1.79239e-14 0 0 2.17132e-16 0 0 0 0)
(1.88931e-13 2.8775e-15 0 4.72328e-14 -7.84074e-16 0 0 0 0)
(0 -5.97634e-15 0 0 -7.84074e-16 0 0 0 0)
(-9.44655e-14 -1.46088e-14 0 -4.72328e-14 2.57624e-15 0 0 0 0)
(9.44655e-14 -6.64038e-16 0 0 2.91227e-15 0 0 0 0)
(0 6.19769e-15 0 4.72328e-14 1.45614e-15 0 0 0 0)
(0 7.96846e-15 0 4.72328e-14 1.12011e-15 0 0 0 0)
(-9.44655e-14 -1.54942e-15 0 4.72328e-14 2.80026e-15 0 0 0 0)
(-9.44655e-14 -3.09884e-15 0 -9.44655e-14 7.05666e-15 0 0 0 0)
(9.44655e-14 5.31231e-15 0 4.72328e-14 9.85692e-15 0 0 0 0)
(9.44655e-14 2.21346e-16 0 0 9.29687e-15 0 0 0 0)
(-9.44655e-14 6.64038e-16 0 4.72328e-14 8.73682e-15 0 0 0 0)
(-9.44655e-14 4.42692e-16 0 0 1.40013e-14 0 0 0 0)
(9.44655e-14 -8.6325e-15 0 4.72328e-14 1.27692e-14 0 0 0 0)
(-9.44655e-14 -6.86173e-15 0 -9.44655e-14 1.55695e-14 0 0 0 0)
(9.44655e-14 4.86961e-15 0 0 1.90418e-14 0 0 0 0)
(-9.44655e-14 3.54154e-15 0 4.72328e-14 1.55695e-14 0 0 0 0)
(0 3.32019e-15 0 -4.72328e-14 1.53454e-14 0 0 0 0)
(9.44655e-14 -2.65615e-15 0 0 1.85937e-14 0 0 0 0)
(0 -2.8775e-15 0 0 2.1282e-14 0 0 0 0)
(0 5.755e-15 0 4.72328e-14 1.96018e-14 0 0 0 0)
(9.44655e-14 -2.65615e-15 0 4.72328e-14 1.55695e-14 0 0 0 0)
(-9.44655e-14 -2.8775e-15 0 0 1.89298e-14 0 0 0 0)
(0 -2.21346e-15 0 4.72328e-14 1.63535e-14 0 0 0 0)
(0 -5.53365e-15 0 -4.72328e-14 1.43373e-14 0 0 0 0)
(0 -6.19769e-15 0 0 4.59243e-15 0 0 0 0)
(0 -5.755e-15 0 -4.72328e-14 6.04857e-15 0 0 0 0)
(0 -1.73048e-28 0 9.44655e-14 1.14251e-14 0 0 0 0)
(9.44655e-14 -2.09756e-29 0 0 1.15371e-14 0 0 0 0)
(-9.44655e-14 1.15366e-28 0 0 1.40013e-14 0 0 0 0)
(0 7.30442e-15 0 0 2.00499e-14 0 0 0 0)
(0 8.41115e-15 0 4.72328e-14 1.85937e-14 0 0 0 0)
(0 -5.97634e-15 0 4.72328e-14 1.97138e-14 0 0 0 0)
(-9.44655e-14 -8.1898e-15 0 0 1.34413e-14 0 0 0 0)
(9.44655e-14 -1.10673e-15 0 0 4.81645e-15 0 0 0 0)
(9.44655e-14 8.85384e-16 0 0 1.85937e-14 0 0 0 0)
(0 -5.755e-15 0 4.72328e-14 1.70256e-14 0 0 0 0)
(-1.88931e-13 -1.10673e-15 0 -9.44655e-14 1.99379e-14 0 0 0 0)
(0 9.29653e-15 0 0 2.34102e-14 0 0 0 0)
(9.44655e-14 8.08548e-15 0 4.72328e-14 1.59055e-14 0 0 0 0)
(9.44655e-14 4.863e-15 0 4.72328e-14 5.0483e-15 0 0 0 0)
(1.88931e-13 0 0 0 0 0 0 0 0)
(0 4.42692e-15 0 0 -1.45614e-15 0 0 0 0)
(-9.44655e-14 4.42692e-15 0 4.72328e-14 3.02428e-15 0 0 0 0)
(0 5.63718e-29 0 0 5.93656e-15 0 0 0 0)
(0 -6.64038e-16 0 -4.72328e-14 4.14439e-15 0 0 0 0)
(9.44655e-14 2.65615e-15 0 -4.72328e-14 3.69635e-15 0 0 0 0)
(0 1.17313e-14 0 0 -1.34413e-15 0 0 0 0)
(-9.44655e-14 5.97634e-15 0 9.44655e-14 2.91227e-15 0 0 0 0)
(9.44655e-14 -2.65615e-15 0 0 -1.12011e-15 0 0 0 0)
(-9.44655e-14 -2.21346e-16 0 4.72328e-14 -1.23212e-15 0 0 0 0)
(-9.44655e-14 -2.21346e-16 0 -4.72328e-14 -1.23212e-15 0 0 0 0)
(0 -2.21346e-16 0 0 2.5564e-29 0 0 0 0)
(9.44655e-14 5.31231e-15 0 0 5.30944e-29 0 0 0 0)
(9.44655e-14 1.2174e-14 0 9.44655e-14 4.2564e-15 0 0 0 0)
(0 3.09884e-15 0 4.72328e-14 3.80836e-15 0 0 0 0)
(0 -6.64038e-15 0 4.72328e-14 3.2483e-15 0 0 0 0)
(0 2.8775e-15 0 4.72328e-14 3.58434e-15 0 0 0 0)
(0 1.10673e-14 0 4.72328e-14 1.56815e-15 0 0 0 0)
(0 3.76288e-15 0 0 5.82455e-15 0 0 0 0)
(0 -5.53365e-15 0 4.72328e-14 5.71254e-15 0 0 0 0)
(-9.44655e-14 -5.53365e-15 0 0 3.02428e-15 0 0 0 0)
(-9.44655e-14 -3.98423e-15 0 0 1.00809e-14 0 0 0 0)
(0 -6.41904e-15 0 0 8.62481e-15 0 0 0 0)
(0 -1.46088e-14 0 -4.72328e-14 1.54575e-14 0 0 0 0)
(9.44655e-14 -1.57156e-14 0 0 1.56815e-14 0 0 0 0)
(9.44655e-14 4.86961e-15 0 0 2.117e-14 0 0 0 0)
(0 1.01819e-14 0 0 2.1282e-14 0 0 0 0)
(0 2.21346e-16 0 0 2.1282e-14 0 0 0 0)
(-9.44655e-14 -4.19511e-29 0 0 2.1282e-14 0 0 0 0)
(9.44655e-14 -1.04878e-29 0 0 2.1282e-14 0 0 0 0)
(0 3.67072e-29 0 0 1.33293e-14 0 0 0 0)
(-9.44655e-14 -5.755e-15 0 0 1.27692e-14 0 0 0 0)
(9.44655e-14 -1.37235e-14 0 0 1.63535e-14 0 0 0 0)
(0 5.53365e-15 0 4.72328e-14 1.69136e-14 0 0 0 0)
(0 1.30594e-14 0 4.72328e-14 1.69136e-14 0 0 0 0)
(0 5.53365e-15 0 -4.72328e-14 1.22091e-14 0 0 0 0)
(-9.44655e-14 4.86961e-15 0 0 1.98259e-14 0 0 0 0)
(0 -9.07519e-15 0 4.72328e-14 1.62415e-14 0 0 0 0)
(0 -2.01405e-14 0 0 1.29932e-14 0 0 0 0)
(9.44655e-14 -1.63902e-14 0 0 9.50737e-15 0 0 0 0)
(1.88931e-13 0 0 0 -7.84074e-16 0 0 0 0)
(0 0 0 0 5.15248e-15 0 0 0 0)
(0 0 0 -4.72328e-14 -1.45614e-15 0 0 0 0)
(0 1.54942e-15 0 0 3.80836e-15 0 0 0 0)
(0 1.77077e-15 0 4.72328e-14 1.34413e-15 0 0 0 0)
(0 -2.8775e-15 0 4.72328e-14 7.28068e-15 0 0 0 0)
(0 -3.09884e-15 0 0 2.91227e-15 0 0 0 0)
(0 -2.65615e-15 0 0 -5.60053e-15 0 0 0 0)
(-9.44655e-14 -2.8775e-15 0 -4.72328e-14 -2.91227e-15 0 0 0 0)
(0 -7.86584e-30 0 -4.72328e-14 -2.57624e-15 0 0 0 0)
(0 3.09884e-15 0 0 -2.24021e-15 0 0 0 0)
(9.44655e-14 2.8775e-15 0 4.72328e-14 -2.46423e-15 0 0 0 0)
(9.44655e-14 -2.21346e-16 0 4.72328e-14 -2.57624e-15 0 0 0 0)
(0 6.64038e-16 0 -4.72328e-14 -8.40079e-15 0 0 0 0)
(-9.44655e-14 2.8775e-15 0 0 -1.1089e-14 0 0 0 0)
(0 3.09884e-15 0 0 -9.52089e-15 0 0 0 0)
(0 3.27743e-30 0 -4.72328e-14 -8.17677e-15 0 0 0 0)
(0 1.77077e-15 0 0 -1.43373e-14 0 0 0 0)
(0 5.31231e-15 0 0 -1.60175e-14 0 0 0 0)
(0 2.21346e-16 0 0 -1.33293e-14 0 0 0 0)
(0 5.97634e-15 0 0 -1.12011e-14 0 0 0 0)
(-9.44655e-14 8.1898e-15 0 0 -8.84883e-15 0 0 0 0)
(-9.44655e-14 8.41115e-15 0 0 -6.49661e-15 0 0 0 0)
(0 8.41115e-15 0 4.72328e-14 -2.91227e-15 0 0 0 0)
(0 5.09096e-15 0 0 2.46423e-15 0 0 0 0)
(1.88931e-13 5.31231e-15 0 0 1.14251e-14 0 0 0 0)
(0 2.21346e-16 0 0 3.14633e-29 0 0 0 0)
(-9.44655e-14 6.29267e-29 0 0 -1.12011e-16 0 0 0 0)
(-9.44655e-14 -7.34145e-29 0 -4.72328e-14 4.14439e-15 0 0 0 0)
(9.44655e-14 -8.41115e-15 0 -4.72328e-14 3.02428e-15 0 0 0 0)
(0 -8.41115e-15 0 -4.72328e-14 2.68825e-15 0 0 0 0)