/*--------------------------------*- C++ -*----------------------------------*\
| =========                 |                                                 |
| \\      /  F ield         | OpenFOAM: The Open Source CFD Toolbox           |
|  \\    /   O peration     | Version:  v1912                                 |
|   \\  /    A nd           | Website:  www.openfoam.com                      |
|    \\/     M anipulation  |                                                 |
\*---------------------------------------------------------------------------*/
FoamFile
{
    version     2.0;
    format      ascii;
    class       volVectorField;
    location    "0.00033";
    object      momentum;
}
// * * * * * * * * * * * * * * * * * * * * * * * * * * * * * * * * * * * * * //

dimensions      [1 -2 -1 0 0 0 0];


internalField   nonuniform List<vector> 
1300
(
(0 0 0)
(-2.411805694 4.570749401 -6.500553391)
(41.76958684 6.053897332 -5.434388098)
(42.0700846 2.470989334 -1.001948907)
(31.04958136 3.179866489 1.538954071)
(14.13126159 9.129998695 6.787815348)
(-0.4807931092 2.248775054 -2.171224783)
(34.13072668 0.7929004323 -4.722256787)
(27.4395881 0.9651468494 -10.76789948)
(15.74997392 2.969559217 -1.514547415)
(0.6022706884 1.248636745 -3.068955375)
(6.662062175 4.111982898 -2.313430976)
(41.10987108 11.73049873 6.868199567)
(225.0534089 25.5794204 -0.2501911863)
(50.6281618 11.91881413 -5.849598414)
(43.26101273 2.355671372 11.27172076)
(74.25907181 15.61142481 0.02310385617)
(74.21125661 6.142229103 7.432910123)
(63.30865404 1.184342153 -0.2374325662)
(23.12124612 9.242226525 -4.572122287)
(0 0 0)
(0 0 0)
(28.47866991 5.600313654 -0.1355759431)
(185.9289825 26.58253819 -7.217533311)
(74.75653637 13.99799542 0.8250869925)
(10.50332682 10.87899305 -6.78087366)
(107.092034 17.72182288 -6.36592001)
(119.5868995 12.90104032 -13.7699009)
(70.33295616 3.391890425 -11.1035513)
(13.34002697 -0.355200346 0.8121133243)
(-1.218323 2.405707695 -1.778724177)
(0 0 0)
(52.7864692 7.827753424 -2.084230626)
(109.9288099 26.1255697 -2.751485495)
(72.93930748 20.08567244 -0.2572924777)
(48.77679416 19.52050875 -9.174818845)
(102.3016613 12.72355014 13.43935287)
(133.7178825 10.87407664 3.56960087)
(43.26930208 11.06450571 -0.970835695)
(43.13402526 4.789735032 0.1037585407)
(-1.097289221 1.961979972 -2.000541346)
(0.6470180511 3.944514869 -1.001077195)
(47.70039934 10.02946352 2.850277047)
(226.1681104 36.85337854 -6.612754511)
(67.02882763 15.6982156 0.7293318369)
(20.41211252 3.473198222 2.334534685)
(62.1404694 9.243619885 0.4498059486)
(78.50176132 12.60586721 1.647813028)
(102.3632814 24.40151387 -9.028712318)
(79.5293525 23.39695768 3.916034722)
(-2.456988324 3.158027858 1.239729414)
(1.292484408 3.417313837 1.816564202)
(33.44637899 12.22893023 5.871856672)
(145.9409052 24.7512139 4.226239247)
(209.649254 31.77451667 -5.024996368)
(13.53318963 4.914112431 -0.3162199923)
(71.30880528 10.7878898 -0.6778127983)
(117.3261079 11.35549519 -4.280911982)
(81.91676156 10.46279404 -6.944821729)
(64.48369331 19.13414359 1.153771897)
(0 0 0)
(0.5601109695 1.98150857 -1.30815864)
(62.69965824 5.382210085 -4.359269193)
(148.8392012 34.00816017 -1.171564621)
(52.17920848 0.9398755914 0.03217667402)
(11.29679669 1.675459087 1.269125899)
(87.85445931 17.86946592 1.203525366)
(128.5380538 28.82976914 3.816226928)
(107.7782921 18.48392701 -6.735081529)
(95.96655519 14.5258784 2.226566434)
(0 0 0)
(0 0 0)
(12.99999717 2.492819027 -0.06198569088)
(236.3399248 41.55401052 -13.01080558)
(47.19271506 4.537835337 2.307219588)
(28.68180643 8.309798476 5.748283832)
(104.6640573 23.60658511 3.603669969)
(132.937676 13.97716013 -4.501979496)
(95.20022717 5.761864788 -4.202311264)
(88.34799003 9.987911644 -1.577584836)
(0 0 0)
(0 0 0)
(34.13603783 8.941794071 1.662780128)
(157.8135817 23.07080839 8.245675677)
(95.62421203 9.814338255 -4.474349011)
(12.24519267 4.868739568 3.839985364)
(57.6192521 11.19005821 -1.611001246)
(102.2374209 13.75749642 1.504288801)
(101.0704287 11.22522819 0.3765407082)
(95.22476976 19.97242 -0.8478079901)
(0 0 0)
(0 0 0)
(38.32329696 8.754496845 0.04314973747)
(214.3703024 29.41794594 6.408824275)
(81.86533307 8.20808501 -1.649766339)
(70.99293987 14.76390749 -1.975146601)
(86.26376416 14.3355091 -0.8602413166)
(114.8855984 14.38127701 1.29538922)
(63.09640486 13.11957997 -1.113436871)
(74.1830039 6.889592498 1.422827185)
(0 0 0)
(0 0 0)
(12.07584029 1.506488055 -1.068411843)
(199.5251149 28.11923998 -1.660122897)
(92.75883872 2.586602087 1.579980404)
(43.58776379 6.880844367 -2.731892252)
(59.13496033 11.26584685 -5.429752998)
(114.816537 15.06975294 4.726421607)
(59.53269257 5.29688071 -0.1590637958)
(58.67940399 4.457289921 7.120131932)
(0 0 0)
(0 0 0)
(32.0937357 4.729746271 -5.191141624)
(198.4281795 34.30023409 -7.404829605)
(87.29094755 6.765378107 3.877136313)
(25.24618233 5.250450808 -1.979872108)
(103.1075558 23.69519109 -2.62333016)
(37.13183572 5.845217655 -3.07560549)
(92.45891221 13.73916076 -6.282140592)
(45.15931224 12.68250682 -0.3091300186)
(0 0 0)
(0 0 0)
(33.14884504 3.257162872 5.088951505)
(153.6722139 18.6468503 6.230297935)
(59.68477376 8.564096325 1.677248196)
(24.48568478 4.998715827 6.946519003)
(81.99486805 10.06489507 -0.5493674086)
(111.1054114 24.11023173 6.728669402)
(137.6141643 16.36294801 -6.709984612)
(42.51924143 7.922400885 2.760318018)
(0 0 0)
(0 0 0)
(37.38317956 10.37639998 -0.0544485774)
(243.2850872 30.65992408 0.6555985365)
(31.56709904 5.571899239 2.612693944)
(38.48031309 3.27875528 -4.741326449)
(75.83248155 17.39910488 1.673820852)
(75.49755644 13.14771716 -4.016806564)
(100.6548087 14.75542492 -4.292505123)
(85.67725073 14.32565252 -4.647091317)
(0 0 0)
(0 0 0)
(22.80196469 6.837631831 -1.821865694)
(180.8612885 27.58743644 8.334639623)
(103.2857154 13.98274998 -0.587571358)
(57.5921071 8.795412038 7.04782399)
(90.8144423 13.90105961 0.1840598495)
(109.1980673 22.04994379 -2.833445626)
(129.9322426 25.90211595 2.165947171)
(118.5542087 10.05841231 -0.5867272561)
(0 0 0)
(0.3652593472 3.935487818 1.071596669)
(30.57766526 2.606849334 1.233295467)
(177.1219204 20.92930301 -1.801429018)
(88.53206706 6.503736904 -1.941628757)
(42.95653778 9.41739323 -4.208008322)
(110.2921553 19.55934088 -0.2772528605)
(87.93191609 4.937579936 -0.01807633281)
(46.28174695 6.371853839 -3.730052898)
(47.33847459 7.361854608 4.361327476)
(0 0 0)
(0 0 0)
(61.14563662 8.584532484 0.05159612559)
(113.0051455 24.14809445 -2.824600134)
(124.9702555 11.08706621 -1.831662946)
(53.22011033 11.33758011 3.476735548)
(124.702355 16.33155435 -5.148332206)
(87.31379925 6.316077648 -7.20118576)
(94.22902019 18.24730106 3.602002533)
(64.93904469 9.584369259 2.118018825)
(0 0 0)
(5.302563605 0.5315206157 1.154556527)
(60.98900872 8.638069701 2.401594245)
(191.8774494 25.44548271 18.45776888)
(41.82879823 3.124574572 -5.903109816)
(19.26273302 6.600194803 0.4146891065)
(66.26660014 9.889194914 1.666992602)
(132.5316157 23.23879378 -8.076241567)
(75.28543758 8.301107625 1.270375891)
(54.10215369 7.835464134 -2.345914338)
(0 0 0)
(0 0 0)
(40.7752027 5.383425481 1.241007182)
(108.2718494 16.89653015 -2.147217041)
(109.2264716 17.01279952 -4.042673549)
(51.54794857 3.162710108 -0.003399971903)
(73.4415932 15.72001857 3.88317639)
(137.2446282 16.72664809 -0.7833260394)
(73.97269147 11.68998991 -2.64380824)
(152.7212035 13.49341663 -2.361323082)
(0 0 0)
(0 0 0)
(56.56478015 19.43970693 1.610481959)
(157.092632 28.0883297 5.546317225)
(62.68428778 7.412580291 -1.793217765)
(16.82529249 3.85049207 0.394953007)
(74.05835647 10.69202838 3.861483801)
(145.6054744 17.01727101 -6.248368465)
(167.0462236 14.0756428 4.40000075)
(96.53310856 13.70889096 1.730151723)
(8.902438963 1.973867954 -0.08212830664)
(24.55834297 1.599324211 9.127366077)
(12.79079835 6.447443112 -1.068030574)
(7.767479264 2.378961523 -1.286633195)
(15.1989014 3.672931021 -5.734661508)
(11.08392505 3.876337176 -4.105183189)
(17.9781961 2.669633416 3.793241868)
(6.93166635 -1.795988176 4.305259392)
(19.13937377 2.438243294 -0.4607362672)
(20.17654972 3.680211248 -7.217037862)
(14.93011111 2.346804391 2.005847824)
(13.12857523 -0.9898954137 1.182984567)
(2.657472562 10.69624166 8.202806097)
(15.14803937 1.809803336 3.059835868)
(6.382320426 2.613204586 -1.217117216)
(-1.203825375 6.014162644 2.917101607)
(11.63770624 -1.458260508 2.362169138)
(20.11283123 -0.1834791976 0.5432211566)
(8.120812079 2.636666043 2.163136715)
(12.17857592 -2.866481275 -5.558406366)
(7.944168893 -3.415397794 10.12099308)
(16.29634685 -2.237791864 8.625442904)
(15.48737026 4.09811935 6.442908946)
(-1.405791138 3.532385129 7.505301565)
(14.10764017 3.243506456 7.52782791)
(10.20085453 -3.351610694 -1.956802424)
(3.388927978 9.994787588 -1.397637937)
(13.31659664 -3.311508889 -4.8915596)
(3.217164967 0.5564680207 -8.965524071)
(3.950846238 7.006652409 -2.76199995)
(38.15818765 5.797258177 -1.440465663)
(56.40422187 3.883024397 -6.31151032)
(47.79782815 6.913896677 -4.881017907)
(43.03219084 2.097749131 3.130102767)
(18.06990153 5.230908219 1.830859091)
(9.615650441 0.4825764799 7.83947712)
(32.26528047 4.667778738 0.4982250159)
(15.07109648 -0.6476262016 -3.25221597)
(28.54896775 -3.615496947 -4.169619914)
(48.20637178 2.547189865 -1.558523239)
(21.923447 8.310793353 -0.2034502893)
(16.54426117 -1.523390753 -0.7841557822)
(18.38640865 8.338501676 4.964313195)
(5.223316994 -0.9848912007 1.978983211)
(18.23217076 6.391586543 -4.23114938)
(23.7489063 6.0803841 -3.844326558)
(16.92543833 -0.5294035035 -0.08976859035)
(29.89651461 -0.6652780652 2.803254283)
(18.35565919 18.18467291 -3.597696183)
(54.51110901 1.819689052 -0.8467902593)
(17.29307174 -4.893481523 1.323399456)
(18.94087996 11.66765581 6.729484881)
(8.611187217 3.007485848 7.781555439)
(10.23970958 -2.430933083 6.628987028)
(20.41565997 19.14941564 -3.58598277)
(8.767589686 0.1108148748 -2.829869512)
(5.441453239 8.125437301 0.9993475362)
(18.98601825 -3.136119893 2.001651996)
(4.248766378 4.676791676 1.554110625)
(8.72248885 4.793390747 -3.635053646)
(71.819665 9.029789407 -12.29833122)
(43.194296 8.377795077 -0.59613646)
(96.35959267 9.776083676 5.603551954)
(29.91812503 4.59706563 -0.753974094)
(40.59940405 5.86445129 -0.05556431157)
(43.4174765 5.617957227 0.3678457478)
(42.7566318 3.239777659 -0.8610243873)
(31.3980693 10.51987302 5.791956766)
(15.23835787 5.186927736 -4.831645769)
(53.6837084 3.553423067 4.670771842)
(27.5762287 1.279620401 -1.776166125)
(16.71439362 0.4438673443 3.102282592)
(36.43344829 1.143877397 -13.37477143)
(26.60417354 -2.287959291 3.55066917)
(31.40101496 2.153797047 -8.995374636)
(8.940161757 -2.057061085 -5.418248062)
(20.371326 -8.907785656 -4.031400305)
(18.7694441 -0.3360582209 0.1729611932)
(34.83785513 4.250638682 -6.138591301)
(10.19958928 1.727272512 -2.462750478)
(15.62031898 2.985432115 3.252188399)
(24.39325801 -3.169199236 -1.458294747)
(14.60459035 0.7597741543 4.364600177)
(5.046797368 4.528513567 4.30623521)
(10.37765328 2.609619416 8.062367845)
(10.44713755 5.378577273 4.50033079)
(36.57696806 12.18032263 0.3632216837)
(6.174621837 1.481012046 -5.544293784)
(19.35428755 5.271973033 -4.383329051)
(11.59782129 12.58384 7.964106054)
(59.22645617 7.684583647 -2.000138283)
(86.98579905 24.16123492 -1.66676345)
(86.86691136 7.04075376 -1.554118361)
(52.13473203 9.388978178 -7.846912035)
(47.00254851 10.11326743 -1.110736287)
(47.38434905 7.3639306 -5.506412949)
(31.82497816 6.59743991 -3.691872111)
(70.12706929 15.48931761 9.251192611)
(38.2818069 2.21507159 -3.134454296)
(26.77784863 1.923758985 -0.5068183332)
(44.13412957 18.84213749 -12.96822307)
(34.33021192 -5.306439497 1.924743777)
(22.61526293 5.193700921 6.502186583)
(23.18383807 9.321813139 -0.4089651022)
(28.90519601 13.20791484 -11.32636632)
(50.99396751 -6.042182163 0.2205654293)
(31.07870401 10.72873863 -3.393829606)
(28.74246466 6.764307664 4.27175279)
(30.10276972 1.8030008 -4.146837815)
(26.1539056 8.576421079 -5.258300683)
(22.96659543 4.975013838 -2.36627603)
(32.27563077 14.02806578 0.7523135176)
(38.80550194 -5.904102509 6.260486517)
(15.39923373 7.278202259 15.90099808)
(16.85279684 4.560165116 4.323699263)
(22.26256635 7.64510026 2.238752047)
(18.57896847 12.91734089 5.015341509)
(20.96435886 6.899488564 -7.820903292)
(20.48479134 8.667723842 2.096146715)
(10.72506445 5.346416321 5.737626925)
(74.03548505 16.15867004 2.559585667)
(127.3869588 30.85775615 -3.574505656)
(89.28531626 5.212514148 -1.41424256)
(53.07485553 9.690266604 1.371783269)
(115.1265351 17.23390875 -3.374440983)
(57.23451577 5.346548882 -5.923568767)
(81.56337961 12.42909574 6.55129341)
(54.6871295 12.49890988 4.067858113)
(48.76543845 4.72343052 1.72023657)
(27.13983464 1.570351349 -2.713073564)
(79.87574108 19.41087565 2.318030596)
(71.33811485 9.52471992 10.54233395)
(25.91159443 5.360044834 -5.963324924)
(25.47550306 1.545747266 1.678760269)
(46.4202025 13.79138113 -0.8766725367)
(37.77411515 1.043810388 -3.527902979)
(22.11178083 3.705589886 -1.555773265)
(36.62920785 1.714465149 0.510434062)
(55.61598841 9.036497024 4.009458898)
(12.13288635 1.449600638 3.600491278)
(28.63275067 5.013740502 3.366246809)
(32.59259585 6.668180199 -0.9748837264)
(19.90941514 -1.904496394 -2.977418188)
(31.86763828 12.14762171 -1.912050889)
(28.91833258 7.183234768 -3.684586618)
(44.13958316 10.80400656 1.519285358)
(24.8258902 -1.409481059 -7.765724624)
(5.712912297 7.792579385 -3.05138889)
(9.357333672 10.20950421 9.686902111)
(10.12498031 -0.8354210304 -3.725828451)
(100.2245081 19.65427156 -0.01701540864)
(58.64116947 20.4162142 -0.2049412414)
(116.1673399 21.29061199 5.454968588)
(77.13483723 28.12255066 -3.038871928)
(107.3184797 22.90463671 -3.607819755)
(85.17471839 17.43074416 -1.875595929)
(95.48999147 4.231908337 8.266384153)
(70.90587222 20.54561402 -0.2198364954)
(80.63549704 10.08979725 -11.10554973)
(98.39346111 18.4169017 1.474555124)
(77.90149718 32.01498212 -14.05657429)
(38.47015012 6.934012366 -5.13582067)
(69.08556792 7.649396741 0.9048698874)
(48.2935111 -1.417368559 -6.200855543)
(26.96936731 2.967500137 3.899503842)
(41.75450094 8.145640653 4.914058641)
(33.53615201 4.213490159 4.293313101)
(12.67196084 -3.447461962 -0.2828315392)
(39.87382575 9.465046899 -0.4443432757)
(33.12673779 11.82517593 4.536532953)
(34.53212563 3.628818483 -4.354064187)
(47.39872557 12.41667719 -2.180336097)
(29.8153993 9.17235422 -1.932989849)
(25.61844088 1.025374672 4.469294965)
(31.97024604 3.468989641 2.384628408)
(34.99713328 8.960852136 -6.60786893)
(4.801065094 4.441324995 -4.700078233)
(22.05868747 3.490317902 -0.2039903514)
(11.18811432 0.02314006877 7.24861736)
(26.89351596 2.793349647 -2.210411256)
(122.6785485 14.23392208 -7.929356754)
(106.7107397 15.02944889 -5.861914432)
(93.598244 13.33452054 7.517860972)
(86.13948541 14.82903213 0.4115708007)
(134.467199 9.72909326 -1.722878072)
(29.73487645 7.613535097 -0.5000497252)
(87.34978676 19.71808946 10.22792684)
(104.7913779 16.51656126 -2.001686402)
(105.6911735 18.4351106 -1.413952822)
(63.98172733 9.215667829 0.2597805608)
(74.27222366 7.138847646 -2.176594105)
(57.19759678 9.930759953 -1.747314907)
(95.32003531 17.03971013 -6.02467582)
(55.86960437 12.17053724 -1.285643636)
(46.46997785 8.216248014 -6.718459928)
(83.66908488 2.888606997 3.004889186)
(79.56459321 11.53926761 1.979880309)
(27.3123468 10.31638295 -1.091556933)
(54.59326025 11.58388452 -3.515513592)
(72.18408222 11.27890446 4.314567175)
(20.3268982 8.672133082 -1.483355745)
(57.4707941 23.75351206 10.46193802)
(34.79534465 3.108131653 3.247682157)
(20.52832905 7.264493281 4.102244301)
(40.86536573 16.36229559 -0.3984559688)
(49.39493266 17.32466091 7.858226374)
(39.8231676 5.152638885 -3.784675241)
(15.64936171 13.49130257 2.868991472)
(42.82506365 -7.493561496 1.511907025)
(22.35770492 1.181333238 -0.7842678154)
(52.30382945 9.224605455 -3.078167021)
(149.6273434 22.69116151 9.969284852)
(47.52504503 7.908612839 3.644101524)
(79.46179637 11.3047934 0.5593139127)
(87.17695513 17.28349397 -5.967742586)
(118.0892855 22.43612115 4.957227603)
(83.58581978 13.864885 2.878122333)
(83.21506425 18.65853861 -7.716310353)
(139.0777939 18.70819844 5.291535022)
(109.4215855 13.4174875 -1.231361827)
(98.06632974 20.94732402 -11.24645615)
(93.71436593 12.73415308 -9.91632792)
(36.89465455 2.389599381 4.361819341)
(98.24790727 25.26293942 2.861272458)
(92.06405901 17.94487266 2.960682199)
(62.22684265 15.15813674 -6.417832186)
(78.42871909 7.347279244 11.51112976)
(52.40846097 10.56350091 1.255746772)
(61.45383277 14.26332492 3.582899543)
(39.2607394 3.124290627 7.325865875)
(54.67822355 2.919410353 3.476505421)
(57.51680007 9.484303463 10.82581925)
(33.76566115 7.770175069 4.744959819)
(30.88128576 10.81031161 1.970912969)
(37.20035304 11.77209147 -1.158071768)
(31.70158987 4.843267829 -3.037803775)
(22.25674569 2.36372754 -7.351797065)
(50.13810547 2.17990833 -3.055827295)
(30.30498457 9.890396894 3.257312288)
(40.22588342 8.479008837 12.13146764)
(102.0606108 17.29306622 4.369486559)
(122.6147461 6.159169913 7.89719661)
(50.00896488 10.83111066 -3.043275583)
(81.99088547 15.45509711 -3.058087622)
(113.4386367 31.69342182 2.402696343)
(88.81923003 10.21798763 -0.03893480766)
(118.4206333 20.10903635 2.045880183)
(66.7268957 18.41341348 6.672034011)
(98.24436735 19.34585964 0.8250188468)
(112.8855653 18.78241669 -2.927073109)
(103.5054644 17.73924492 -5.260279277)
(97.11760393 18.24697938 5.862079695)
(71.6342197 14.74488109 -3.662143978)
(55.75673198 3.683797202 -1.91423291)
(19.34234043 3.135677708 1.4018468)
(61.80602353 21.21990804 -3.925547445)
(48.70297735 8.165379236 -1.235611283)
(63.8402064 3.160214171 2.064121181)
(86.84690847 24.97246797 -7.00900072)
(74.55616263 21.33764186 2.917377302)
(110.8603226 22.31546448 -8.290072215)
(57.12077882 8.663998474 6.897077071)
(43.01930967 3.4386194 -6.650437804)
(50.43529956 6.34459496 0.3408434041)
(34.96383793 7.705217673 5.607582449)
(31.07212716 10.64227983 -1.576782706)
(38.57275759 7.236416206 -2.117772176)
(33.13825762 8.468342596 -8.578648518)
(43.14932467 4.780074274 3.484332315)
(31.57824813 7.44541634 6.55944505)
(76.2853537 6.210065479 3.791876978)
(72.54129837 12.99610875 3.88846864)
(106.9871893 18.96995218 -1.786875445)
(66.50069637 12.59824131 -4.365721226)
(61.24927321 14.02931975 -2.426195484)
(75.29610509 12.27726994 -0.386686783)
(115.6415804 30.39636209 -5.629812759)
(69.70366394 17.9597176 -1.173992601)
(33.75870328 5.262442967 1.76673982)
(128.743575 28.22666849 -6.916273248)
(105.3778143 25.32882147 -5.553671722)
(98.32542665 21.5102578 -7.308165903)
(105.4182068 19.34562613 3.600579787)
(49.65989288 17.24632125 0.692787438)
(78.87803294 13.64039517 -1.864236414)
(78.51558083 11.50118433 -5.014575292)
(69.80709848 12.19281271 -5.803884769)
(97.95661613 19.48091447 -5.887052169)
(68.3455157 13.25057593 -2.800815336)
(62.99916653 15.7904476 2.392806862)
(48.2589284 14.37743582 -1.344730538)
(86.21457605 17.74975216 5.982062521)
(80.53421853 7.681135696 1.525097388)
(57.98368011 17.05815652 8.542586051)
(92.55792302 30.06014271 -3.822675052)
(43.86973533 9.925873513 1.246965903)
(69.54285524 20.88372092 0.8988851297)
(63.98608159 15.23536314 1.685920823)
(53.69792657 16.98241643 -3.734180327)
(50.30813384 2.7779865 -8.785311838)
(76.79072516 7.04177564 0.4145909156)
(67.88311768 16.87750724 0.5782007489)
(97.12783682 14.7774685 4.264966826)
(46.87886601 10.41413028 -0.2997672066)
(105.7201163 14.01216815 -1.755564533)
(102.151508 22.80969684 5.875853731)
(84.82167159 17.63858362 -4.799474858)
(92.94097075 18.44383508 -1.911136889)
(74.30957467 17.80581934 3.023755087)
(102.9607675 18.00063344 3.836601483)
(122.1996677 33.69592718 -0.3956455128)
(130.537935 22.2599204 4.63982425)
(110.6195689 22.97425803 -7.725644128)
(120.2084407 24.51761594 -6.331985327)
(69.14630473 15.55743733 0.600315308)
(67.37925875 6.579897507 -9.498432954)
(85.00022594 17.90728138 -4.774457804)
(89.38679692 16.7731527 4.882776051)
(106.717979 18.40736863 7.115055724)
(67.38841223 16.56800931 10.49904546)
(73.31969311 9.045280464 -0.2064286789)
(93.08521375 24.68457488 -0.4241619893)
(50.73798356 8.132088942 -2.183680249)
(87.48740842 18.15482171 -3.105305162)
(90.45093839 21.21152137 -0.9053379881)
(38.05779015 4.750975476 1.647236158)
(55.89829557 10.02935824 -3.34880103)
(46.9980014 4.205515136 -3.921002603)
(50.69555787 18.15141027 -7.892877726)
(55.48813582 12.97665326 -7.731176642)
(84.77011171 12.7126963 2.053016079)
(97.57736051 16.14522689 1.147687506)
(69.68901059 13.52817717 -4.183362121)
(155.933804 18.58826156 -6.480551222)
(89.49702192 11.68588794 -0.6821695075)
(114.4519733 23.6834239 3.627211812)
(75.24217725 19.02427204 0.261522261)
(86.07462828 14.45447806 0.2689027527)
(102.8427958 12.83776273 -3.38158483)
(63.20914948 11.54669976 -3.785137576)
(133.1368532 15.7025091 -2.645513576)
(97.71399048 24.74967275 4.293591857)
(106.1663499 34.03809711 2.733859876)
(87.28585418 25.40186519 -6.5492507)
(85.84308828 20.39745144 1.005264796)
(125.3834612 25.14481954 10.72206059)
(98.6569237 20.27904644 -1.142710765)
(41.87996192 10.910359 3.934379023)
(109.1474364 33.70995635 1.25787044)
(86.29060698 24.59535829 3.736088135)
(71.93525094 16.38540169 4.818383738)
(80.44342596 25.32848184 7.300863247)
(95.79171096 25.40922294 -8.986756585)
(104.473028 20.83581789 1.356767481)
(101.4270912 23.50008764 1.768657538)
(53.87463708 5.550889611 -9.204420991)
(72.12644362 23.63575724 -1.598846828)
(70.10812414 14.36838538 -7.062786004)
(50.99246751 10.98722446 -0.8327800989)
(43.86764028 6.342812831 -3.322308871)
(69.30906401 10.25852405 0.5126158734)
(67.94909204 12.36142388 -0.8311627863)
(65.26552182 4.142550229 4.567364915)
(131.7060869 18.36260108 -1.543580199)
(61.5698706 6.263622179 -0.3426788442)
(138.8944844 20.44322114 2.195892014)
(76.16410194 13.47453609 4.875722043)
(70.06921854 8.764461331 -6.397793261)
(104.5554164 17.76068211 2.252341859)
(74.85116644 13.19347209 2.335007714)
(36.2401523 11.40083565 -2.405557059)
(99.68513296 15.75360426 -1.91263983)
(128.9142943 31.00166157 -5.083452502)
(81.11175472 13.96164318 -0.4399119175)
(78.46892765 21.83276611 -2.105530636)
(81.19292296 19.93647785 -2.467455953)
(72.95620975 16.15932066 -4.233498688)
(156.8820245 28.89938147 0.3232344424)
(128.6020142 22.72805742 -6.752968343)
(100.1221917 30.44956793 2.9109174)
(109.5117151 28.89872598 5.079260833)
(138.2280184 28.99270368 -3.486286907)
(88.51702582 20.22932613 3.423292146)
(102.0884249 31.63477945 5.793294799)
(72.83491378 19.32765081 2.027892255)
(103.4345474 11.04964777 5.908575231)
(55.37127481 16.92546416 0.6659117956)
(129.2555705 36.76746292 7.307534221)
(93.39120983 21.4237149 0.746306343)
(103.3779591 40.55203072 10.19237237)
(45.93962415 9.875728057 -0.06037297804)
(76.60191993 7.812259458 1.624912745)
(69.62011485 13.5999861 4.364607909)
(60.97926804 14.50808969 0.8556978459)
(74.76055 16.902559 -1.203993227)
(83.15406453 4.794599934 4.665430422)
(61.29086739 6.789381777 1.283331207)
(96.49725257 11.85290531 -5.654089152)
(118.7708053 10.41450294 -4.328704341)
(103.2831623 10.99596892 1.416215692)
(66.13354489 9.642470798 -0.04221395709)
(93.00199612 16.86955782 0.3330911432)
(81.09036367 21.29644809 0.2030122225)
(122.4205946 23.35603891 -1.631904391)
(69.99397634 12.28442587 -2.27840058)
(80.52750371 12.50450369 -2.54422675)
(96.88143329 15.39932584 3.011760845)
(100.2153616 25.99508336 5.35060601)
(93.0278283 25.25549434 -1.999536052)
(117.2008018 25.00272284 3.043597863)
(102.4754856 16.03779476 0.344577264)
(93.94592382 17.41822084 -3.861965235)
(96.45982089 16.82050748 9.699743046)
(110.6368709 15.04990191 -7.194480221)
(104.8130832 18.37807087 2.319215893)
(85.98166015 18.87324356 6.766677621)
(91.60012692 18.3187418 -0.5069036895)
(84.22280737 12.76350032 -6.018665074)
(110.1529355 12.29076789 -8.841568367)
(74.4324893 11.29315343 -2.031267689)
(80.93449909 11.30792123 -4.854929894)
(90.96023577 15.87764418 1.437637046)
(52.17132432 -2.53859203 2.420962278)
(142.127296 22.99795709 -9.337686325)
(78.40295466 12.18606008 2.848622398)
(73.17721736 0.8179357718 2.738449185)
(32.83008749 3.410434526 0.1254404452)
(70.73586006 11.70765592 2.074266004)
(43.42020249 2.89133121 -1.830730011)
(119.7985148 18.82048126 -6.590588239)
(67.27848236 12.65112821 2.55667666)
(134.0712128 14.44944084 5.481511114)
(101.7669369 14.09450534 7.450015402)
(92.82874323 16.02460726 1.81256321)
(82.8853275 13.17856258 -2.302331489)
(84.52860952 14.14926692 -1.024527382)
(77.11011377 17.46116124 -1.496987793)
(78.44580187 12.30015596 0.9084927956)
(128.0201205 17.57151598 -9.737027856)
(87.22064593 19.86870018 -12.45125117)
(107.4749388 25.8192919 -2.926735781)
(119.6304955 28.6675199 4.41139781)
(119.4459305 32.64288132 4.408347883)
(92.57550041 18.85924114 -0.3556231642)
(65.91474988 14.4820597 5.525614134)
(89.09518185 18.45666441 -0.5585599828)
(73.22220391 18.63223601 1.827114807)
(128.0076348 32.18252177 1.010982152)
(164.4171135 27.97115379 -1.867458383)
(57.71148563 8.842706064 -6.433749061)
(89.50646642 17.79344302 -3.961744753)
(112.7077616 18.04108569 -7.035519659)
(57.18024006 7.050749024 -2.094056161)
(93.74309908 14.51235634 -5.029149421)
(69.44907927 4.075214095 -1.630223459)
(123.7081369 21.89454537 6.89943482)
(65.72355639 7.326067943 1.263721743)
(100.9532002 12.72007703 -0.7741088451)
(90.14646611 19.16738643 0.4829344601)
(66.3043652 4.117757756 -4.069109113)
(52.01190408 5.341718836 7.427380068)
(105.2396446 16.56089326 1.00979311)
(79.99578575 24.55746087 1.555550051)
(108.8959347 11.53695308 -0.8613236029)
(77.92901035 7.860786844 -2.371094567)
(163.9409563 24.63073582 4.961752285)
(84.52439426 18.75956961 1.513110539)
(112.2621183 23.29218409 -4.489269169)
(54.97806888 9.844105355 0.8448415633)
(75.62177677 8.516455816 0.2718954482)
(124.3651788 20.62139308 4.227638268)
(97.95687227 24.92871285 -6.863637301)
(82.83942771 23.31784175 1.674632403)
(80.41119875 17.96282645 2.122118025)
(155.108743 34.86527696 8.57627874)
(122.1541342 29.89544703 -0.3458109488)
(84.88484856 22.53524377 7.31758359)
(103.9413687 24.34959953 -3.203751162)
(161.798952 28.87351379 -0.5621968442)
(77.63855023 18.61005864 -0.4679990968)
(53.88834376 4.537247959 2.415752111)
(69.38391485 15.0939798 1.791958433)
(111.1116394 18.80471861 -2.294675223)
(39.75504638 10.67992534 -5.207833772)
(93.71695309 14.37780252 0.365936227)
(57.53310377 4.835019049 4.045266067)
(80.1987735 15.39680817 -1.832463583)
(52.93923797 11.58236976 -1.23468803)
(47.95531306 -0.02484365539 -7.549106291)
(154.2393917 25.99024703 -4.11651363)
(62.50635724 8.55212862 -6.575403723)
(78.40212157 12.62649993 6.92687841)
(62.49335646 11.23208009 -4.673846676)
(85.84039942 9.31595451 7.458420984)
(119.6049915 15.5568711 -2.97279594)
(107.9724134 18.73773045 -6.482458584)
(61.57374766 10.44329944 -3.321437492)
(70.44508524 15.05422294 -3.500799423)
(103.1513996 23.70896547 -5.484142725)
(85.40486347 7.461220002 5.888525829)
(86.34533031 15.03277196 -0.6212787463)
(85.54191739 18.59485033 -0.1884221579)
(114.5260735 20.04494719 -4.498418704)
(82.50954693 18.3033152 0.4636489824)
(144.0186632 26.67324148 -2.05295834)
(154.9797983 24.22507511 4.353248577)
(110.4042804 17.47539064 4.258658816)
(146.694998 29.92037459 12.97251986)
(134.4244164 21.77667976 -1.965030676)
(94.33872251 23.27421744 4.390258803)
(116.4414384 19.85936051 -6.482063253)
(157.6277508 22.33362629 -5.394202831)
(117.8707573 20.07064454 0.3622484662)
(104.2051679 14.56975697 -2.110610554)
(64.99299062 13.96393389 0.120567771)
(85.52130709 13.9800513 0.1767198594)
(112.1615019 16.85113972 -4.552320511)
(79.30366226 8.390954556 -1.638913446)
(46.95783036 8.571595834 -1.079140165)
(85.66941446 14.6791511 -0.5730425408)
(93.25124514 17.9396088 -2.100360621)
(76.53212736 10.03620828 1.207056907)
(118.7324541 18.30322456 3.522416483)
(69.26812324 5.984930129 2.225939439)
(74.86736682 19.55154126 0.9153685303)
(86.81055903 7.975492039 2.119880135)
(86.84497607 11.58022918 -3.831131246)
(76.7406655 15.81416121 -10.39974743)
(71.09607984 11.20438123 -5.898018029)
(65.78772119 10.10978192 1.523919761)
(99.64331996 12.29393433 2.064154659)
(108.1347675 25.64557144 -5.106955168)
(146.3023139 32.12343152 -3.746868784)
(106.0961568 16.83899656 -2.853049488)
(81.18071018 12.98626603 -4.431051818)
(167.1549895 36.45595792 -7.424507999)
(169.3241483 43.90854388 -3.431639202)
(104.5107117 24.10551431 5.188744488)
(79.79806184 13.56638298 -1.686068934)
(77.13926302 13.22292089 -0.2969509683)
(114.7775099 14.97057475 6.456031046)
(27.96615756 3.081346451 -3.441260633)
(100.9057596 7.464979446 0.5948865977)
(81.7222978 7.667164877 9.426978848)
(43.81788423 7.466138645 3.380963117)
(89.80058843 12.22819075 1.062092088)
(72.5128668 10.09178772 5.306378452)
(48.02161675 7.81096403 -4.202415018)
(70.38192386 12.74946642 -1.187092896)
(115.1811201 18.19824016 2.619935658)
(54.91593621 6.209481538 1.025081085)
(112.4349041 25.27723379 2.852467379)
(122.6578233 22.87660527 -4.055591725)
(66.39835072 8.806910847 -3.751125728)
(89.19753403 14.80387878 1.93633474)
(105.2154288 9.455825792 -3.268402759)
(119.334466 25.7955701 -9.446141341)
(85.1239798 10.69923286 -0.2392342219)
(90.47408322 26.43268303 1.200455295)
(170.2539927 27.72707567 0.0984173747)
(91.90115068 19.49172519 3.980426865)
(82.56667138 13.51033365 1.520793699)
(144.1638079 19.1362111 1.540123679)
(79.62514991 17.10402349 8.342931446)
(95.38197897 12.46272357 2.8126193)
(157.4497162 34.2280514 -7.891648023)
(89.58966873 18.64172689 5.051855038)
(89.34254093 19.03681622 -2.578411438)
(61.28346386 14.57323957 -9.583761299)
(96.22738588 16.81236531 2.43043219)
(91.94385076 18.02560824 6.912262221)
(37.48056398 3.926918856 2.658864621)
(135.5714565 18.28990608 -5.841697057)
(106.0036292 21.50219927 -0.7554987474)
(100.65565 16.82604276 -0.444790573)
(134.0898376 25.26840565 -3.11272681)
(70.50279793 14.90198204 0.3488612727)
(116.1340984 15.08450797 5.800590455)
(47.71124457 10.04932867 -2.117889989)
(40.80385801 8.140228322 -2.498124068)