/*--------------------------------*- C++ -*----------------------------------*\
| =========                 |                                                 |
| \\      /  F ield         | OpenFOAM: The Open Source CFD Toolbox           |
|  \\    /   O peration     | Version:  v1912                                 |
|   \\  /    A nd           | Website:  www.openfoam.com                      |
|    \\/     M anipulation  |                                                 |
\*---------------------------------------------------------------------------*/
FoamFile
{
    version     2.0;
    format      ascii;
    class       volScalarField;
    location    "4.26";
    object      T;
}
// * * * * * * * * * * * * * * * * * * * * * * * * * * * * * * * * * * * * * //

dimensions      [0 0 0 1 0 0 0];


internalField   nonuniform List<scalar> 
1900
(
1.17183
0.989043
1.01417
1.02962
1.0294
1.02535
1.01984
1.01513
1.01156
1.0077
1.17183
0.989048
1.01417
1.02963
1.02942
1.02539
1.01992
1.0152
1.01115
1.00679
1.17183
0.989051
1.01417
1.02962
1.02942
1.02536
1.01988
1.01511
1.01096
1.00635
1.17183
0.989048
1.01417
1.02963
1.02942
1.02539
1.01992
1.0152
1.01115
1.00679
1.17183
0.989043
1.01417
1.02962
1.0294
1.02535
1.01984
1.01513
1.01156
1.0077
1.0022
0.991086
0.973049
0.949639
0.925687
0.999785
0.987832
0.969253
0.94508
0.917234
0.999016
0.987424
0.969251
0.944818
0.918106
0.999785
0.987832
0.969253
0.94508
0.917234
1.0022
0.991086
0.973049
0.949639
0.925687
0.861885
0.816785
0.777807
0.746893
0.729796
0.864899
0.817893
0.779272
0.748455
0.7277
0.864715
0.817849
0.77929
0.748411
0.723934
0.864899
0.817893
0.779272
0.748455
0.7277
0.861885
0.816785
0.777807
0.746893
0.729796
0.700307
0.614853
0.658896
0.694654
0.685308
0.671865
0.658637
0.642426
0.630014
0.619347
0.613759
0.609828
0.606665
0.604021
0.601853
0.600093
0.598668
0.597506
0.596569
0.595778
0.595139
0.594617
0.594156
0.59377
0.593447
0.593195
0.593017
0.592902
0.592811
0.592709
0.592507
0.592372
0.592192
0.592469
0.59248
0.592916
0.592846
0.591894
0.550555
0.448947
0.69773
0.62949
0.665233
0.698785
0.687556
0.672634
0.659017
0.642518
0.630157
0.619349
0.613778
0.609842
0.606678
0.604031
0.601862
0.6001
0.598675
0.597513
0.596575
0.595784
0.595145
0.594622
0.594161
0.593775
0.593451
0.593199
0.59302
0.592906
0.592815
0.592713
0.59251
0.592375
0.592196
0.59248
0.592491
0.592941
0.592881
0.591956
0.550976
0.449468
0.693392
0.644663
0.677432
0.703753
0.689154
0.672994
0.659222
0.642534
0.63023
0.619352
0.613791
0.60985
0.606685
0.604036
0.601865
0.600104
0.598678
0.597516
0.596577
0.595786
0.595147
0.594625
0.594163
0.593777
0.593453
0.593201
0.593022
0.592909
0.592819
0.592717
0.592517
0.592385
0.592214
0.592512
0.592544
0.59303
0.593023
0.592165
0.55149
0.451356
0.69773
0.62949
0.665233
0.698785
0.687556
0.672634
0.659017
0.642518
0.630157
0.619349
0.613778
0.609842
0.606678
0.604031
0.601862
0.6001
0.598675
0.597513
0.596575
0.595784
0.595145
0.594622
0.594161
0.593775
0.593451
0.593199
0.59302
0.592906
0.592815
0.592713
0.59251
0.592375
0.592196
0.59248
0.592491
0.592941
0.592881
0.591956
0.550976
0.449468
0.700307
0.614853
0.658896
0.694654
0.685308
0.671865
0.658637
0.642426
0.630014
0.619347
0.613759
0.609828
0.606665
0.604021
0.601853
0.600093
0.598668
0.597506
0.596569
0.595778
0.595139
0.594617
0.594156
0.59377
0.593447
0.593195
0.593017
0.592902
0.592811
0.592709
0.592507
0.592372
0.592192
0.592469
0.59248
0.592916
0.592846
0.591894
0.550555
0.448947
0.588736
0.569988
0.639643
0.681905
0.678922
0.668884
0.656892
0.641643
0.629104
0.619159
0.613611
0.609702
0.606553
0.603929
0.601779
0.600031
0.598613
0.597456
0.596522
0.595733
0.595097
0.594577
0.594116
0.593731
0.593407
0.593153
0.592973
0.592856
0.592762
0.592661
0.592457
0.592327
0.592144
0.592401
0.592414
0.592798
0.592727
0.591748
0.550391
0.454128
0.478266
0.56048
0.635731
0.663206
0.666843
0.661508
0.652102
0.63893
0.627085
0.61859
0.613247
0.609414
0.606308
0.603735
0.601624
0.599901
0.598499
0.597352
0.596426
0.595645
0.595014
0.594499
0.594042
0.593658
0.593333
0.593078
0.592895
0.592775
0.592677
0.59258
0.592377
0.592254
0.592066
0.592279
0.592276
0.592545
0.592436
0.591448
0.550417
0.448257
0.45255
0.574518
0.631782
0.650278
0.65602
0.653308
0.645707
0.634758
0.624761
0.61751
0.612644
0.608961
0.605947
0.603453
0.6014
0.599714
0.598335
0.597205
0.596293
0.595522
0.594901
0.594393
0.593939
0.593558
0.593233
0.592975
0.592785
0.59266
0.592553
0.592461
0.592256
0.592142
0.591946
0.592086
0.592057
0.592171
0.592006
0.590999
0.551207
0.448936
0.449016
0.581348
0.625949
0.640343
0.646662
0.64499
0.638703
0.630262
0.622146
0.616195
0.611823
0.608365
0.605493
0.603104
0.601125
0.599484
0.598136
0.597029
0.596135
0.595379
0.594771
0.594273
0.593825
0.593446
0.59312
0.592856
0.592657
0.592523
0.592405
0.592319
0.592113
0.592007
0.591794
0.591843
0.591771
0.591735
0.591501
0.590494
0.551178
0.448726
0.450846
0.580177
0.621047
0.631618
0.638119
0.637008
0.632053
0.625773
0.619552
0.614699
0.610848
0.607657
0.604968
0.602705
0.600809
0.599224
0.597914
0.596837
0.595969
0.595232
0.59464
0.594154
0.593713
0.593336
0.593006
0.592735
0.592522
0.592377
0.592242
0.592162
0.591949
0.591843
0.591598
0.591535
0.59139
0.591197
0.590866
0.589875
0.551309
0.448874
0.453367
0.576358
0.615542
0.624189
0.630094
0.629768
0.626439
0.621787
0.617137
0.613198
0.609817
0.606909
0.604413
0.60228
0.600472
0.598947
0.597683
0.596643
0.595806
0.595094
0.594521
0.59405
0.593616
0.59324
0.592906
0.592625
0.592396
0.592241
0.592091
0.592026
0.591812
0.591709
0.591443
0.591279
0.591067
0.590767
0.590361
0.589388
0.551077
0.448547
0.458757
0.573299
0.610884
0.618061
0.623033
0.623491
0.621423
0.618231
0.614816
0.611638
0.608715
0.606109
0.603817
0.601823
0.60011
0.598655
0.597445
0.596451
0.595652
0.594969
0.594419
0.593964
0.593536
0.593161
0.592818
0.592524
0.592272
0.592102
0.591927
0.591872
0.591646
0.591525
0.591221
0.590936
0.590628
0.590216
0.589721
0.588871
0.552106
0.449377
0.452859
0.570119
0.60629
0.612261
0.616878
0.618221
0.617295
0.615401
0.612914
0.61032
0.60777
0.60541
0.603276
0.601388
0.599751
0.598358
0.597202
0.596255
0.595499
0.594847
0.594324
0.593888
0.593469
0.593096
0.59275
0.592449
0.592187
0.592022
0.591846
0.591837
0.591629
0.591508
0.591187
0.590797
0.590383
0.589885
0.589294
0.588466
0.552266
0.449687
0.452263
0.568332
0.602525
0.607534
0.611931
0.613801
0.613778
0.612825
0.611031
0.608937
0.606733
0.604616
0.602639
0.600865
0.599314
0.597996
0.596903
0.596013
0.595306
0.594691
0.594196
0.59378
0.593369
0.592997
0.592643
0.59233
0.592045
0.59188
0.591694
0.591714
0.591501
0.591341
0.590968
0.590437
0.589848
0.589256
0.58855
0.5879
0.554453
0.450718
0.451153
0.565789
0.598928
0.603184
0.607715
0.610075
0.610891
0.610685
0.609502
0.607854
0.605942
0.604017
0.602136
0.600427
0.598922
0.597646
0.596595
0.595746
0.595079
0.594496
0.594032
0.593643
0.593252
0.592898
0.592559
0.592265
0.591995
0.591873
0.591718
0.591791
0.591594
0.591394
0.590956
0.590253
0.589436
0.588683
0.587776
0.587112
0.554622
0.451105
0.450408
0.56416
0.596115
0.599799
0.604486
0.607007
0.608378
0.608674
0.607855
0.606592
0.604919
0.603175
0.601399
0.599783
0.59835
0.597142
0.596153
0.595361
0.594743
0.594196
0.593764
0.593402
0.593026
0.592683
0.592344
0.592053
0.591773
0.591665
0.591504
0.591592
0.591385
0.591138
0.590658
0.589817
0.588795
0.587884
0.586889
0.586318
0.556161
0.45174
0.449758
0.562194
0.592984
0.596346
0.601227
0.604025
0.605847
0.606576
0.60616
0.605351
0.603933
0.602407
0.600749
0.599246
0.597899
0.59677
0.595848
0.595108
0.594535
0.594022
0.593626
0.593298
0.592944
0.592616
0.592278
0.591985
0.591679
0.591556
0.591348
0.591401
0.591124
0.590723
0.590071
0.588967
0.587602
0.586362
0.585159
0.58453
0.555586
0.451941
0.448996
0.560257
0.590176
0.593637
0.598198
0.601281
0.603564
0.604587
0.604576
0.604086
0.602855
0.601514
0.599952
0.598573
0.597334
0.596315
0.595485
0.594822
0.594309
0.593834
0.593473
0.593174
0.59283
0.5925
0.592145
0.591834
0.591487
0.591347
0.591083
0.591083
0.590727
0.590165
0.589379
0.588037
0.586452
0.584848
0.583401
0.582753
0.554929
0.451803
0.448393
0.558069
0.587089
0.590905
0.595359
0.598553
0.60101
0.602223
0.602774
0.602603
0.601612
0.600517
0.599123
0.597964
0.596906
0.596079
0.595428
0.594919
0.594522
0.59412
0.593795
0.593493
0.5931
0.592696
0.592241
0.591835
0.591367
0.591135
0.590738
0.590594
0.59012
0.589321
0.588283
0.586504
0.584432
0.582176
0.580352
0.57979
0.552855
0.451255
0.447735
0.554791
0.58282
0.586564
0.591159
0.595553
0.598369
0.599961
0.60092
0.601102
0.600372
0.599537
0.598276
0.59729
0.596382
0.595714
0.595194
0.59478
0.594452
0.594095
0.593814
0.593546
0.593156
0.592735
0.592235
0.591781
0.591233
0.590921
0.590383
0.590032
0.589343
0.588159
0.586879
0.58463
0.582184
0.579026
0.576559
0.575881
0.549813
0.450488
0.447371
0.552517
0.579111
0.582692
0.587616
0.592948
0.595837
0.597773
0.599723
0.599678
0.59904
0.59839
0.597306
0.596531
0.595806
0.595353
0.595045
0.594851
0.594698
0.594435
0.594173
0.593848
0.593341
0.59279
0.592147
0.591592
0.590938
0.590554
0.589932
0.589438
0.588675
0.587209
0.585666
0.582804
0.579557
0.575931
0.572905
0.572425
0.548225
0.45103
0.449393
0.55083
0.575692
0.578462
0.583944
0.589786
0.593492
0.596409
0.598019
0.598222
0.59804
0.597386
0.596266
0.595626
0.595037
0.59479
0.594656
0.594609
0.594546
0.594347
0.594127
0.593794
0.593229
0.592596
0.591842
0.591195
0.590464
0.589991
0.589264
0.588544
0.587631
0.585873
0.584147
0.581058
0.577372
0.573315
0.569523
0.569419
0.547446
0.45398
0.456134
0.55212
0.576248
0.578712
0.583644
0.589153
0.592696
0.59578
0.597005
0.597204
0.597034
0.596212
0.595074
0.594419
0.593835
0.593633
0.59354
0.593543
0.593566
0.593474
0.593241
0.592819
0.592199
0.591552
0.590794
0.590158
0.589516
0.589021
0.588431
0.58768
0.586905
0.585151
0.583449
0.580383
0.576605
0.572718
0.569222
0.568987
0.548697
0.462043
0.425345
0.531706
0.559949
0.560495
0.562625
0.565736
0.567828
0.569536
0.568292
0.566466
0.564139
0.560585
0.558333
0.556099
0.554751
0.553597
0.552869
0.552389
0.552161
0.553178
0.552838
0.551314
0.550993
0.550754
0.550893
0.550795
0.55167
0.551622
0.55345
0.553523
0.555484
0.554923
0.555083
0.553368
0.550595
0.548484
0.547218
0.548619
0.52466
0.426842
0.368826
0.432085
0.471664
0.464087
0.460867
0.459887
0.459014
0.45829
0.456739
0.455233
0.453803
0.452239
0.451022
0.450021
0.449178
0.4487
0.448374
0.448747
0.448532
0.449048
0.44896
0.44817
0.448454
0.44757
0.448082
0.44763
0.448358
0.448436
0.449281
0.449416
0.450046
0.45036
0.450589
0.450486
0.45017
0.450585
0.453431
0.461596
0.427182
0.365602
0.368826
0.432085
0.471664
0.464087
0.460867
0.459887
0.459014
0.45829
0.456739
0.455233
0.453803
0.452239
0.451022
0.450021
0.449178
0.4487
0.448374
0.448747
0.448532
0.449048
0.44896
0.44817
0.448454
0.44757
0.448082
0.44763
0.448358
0.448436
0.449281
0.449416
0.450046
0.45036
0.450589
0.450486
0.45017
0.450585
0.453431
0.461596
0.427182
0.365602
0.425345
0.531706
0.559949
0.560495
0.562625
0.565736
0.567828
0.569536
0.568292
0.566466
0.564139
0.560585
0.558333
0.556099
0.554751
0.553597
0.552869
0.552389
0.552161
0.553178
0.552838
0.551314
0.550993
0.550754
0.550893
0.550795
0.55167
0.551622
0.55345
0.553523
0.555484
0.554923
0.555083
0.553368
0.550595
0.548484
0.547218
0.548619
0.52466
0.426842
0.456134
0.55212
0.576248
0.578712
0.583644
0.589153
0.592696
0.59578
0.597005
0.597204
0.597034
0.596212
0.595074
0.594419
0.593835
0.593633
0.59354
0.593543
0.593566
0.593474
0.593241
0.592819
0.592199
0.591552
0.590794
0.590158
0.589516
0.589021
0.588431
0.58768
0.586905
0.585151
0.583449
0.580383
0.576605
0.572718
0.569222
0.568987
0.548697
0.462043
0.449393
0.55083
0.575692
0.578462
0.583944
0.589786
0.593492
0.596409
0.598019
0.598222
0.59804
0.597386
0.596266
0.595626
0.595037
0.59479
0.594656
0.594609
0.594546
0.594347
0.594127
0.593794
0.593229
0.592596
0.591842
0.591195
0.590464
0.589991
0.589264
0.588544
0.587631
0.585873
0.584147
0.581058
0.577372
0.573315
0.569523
0.569419
0.547446
0.45398
0.447371
0.552517
0.579111
0.582692
0.587616
0.592948
0.595837
0.597773
0.599723
0.599678
0.59904
0.59839
0.597306
0.596531
0.595806
0.595353
0.595045
0.594851
0.594698
0.594435
0.594173
0.593848
0.593341
0.59279
0.592147
0.591592
0.590938
0.590554
0.589932
0.589438
0.588675
0.587209
0.585666
0.582804
0.579557
0.575931
0.572905
0.572425
0.548225
0.45103
0.447735
0.554791
0.58282
0.586564
0.591159
0.595553
0.598369
0.599961
0.60092
0.601102
0.600372
0.599537
0.598276
0.59729
0.596382
0.595714
0.595194
0.59478
0.594452
0.594095
0.593814
0.593546
0.593156
0.592735
0.592235
0.591781
0.591233
0.590921
0.590383
0.590032
0.589343
0.588159
0.586879
0.58463
0.582184
0.579026
0.576559
0.575881
0.549813
0.450488
0.448393
0.558069
0.587089
0.590905
0.595359
0.598553
0.60101
0.602223
0.602774
0.602603
0.601612
0.600517
0.599123
0.597964
0.596906
0.596079
0.595428
0.594919
0.594522
0.59412
0.593795
0.593493
0.5931
0.592696
0.592241
0.591835
0.591367
0.591135
0.590738
0.590594
0.59012
0.589321
0.588283
0.586504
0.584432
0.582176
0.580352
0.57979
0.552855
0.451255
0.448996
0.560257
0.590176
0.593637
0.598198
0.601281
0.603564
0.604587
0.604576
0.604086
0.602855
0.601514
0.599952
0.598573
0.597334
0.596315
0.595485
0.594822
0.594309
0.593834
0.593473
0.593174
0.59283
0.5925
0.592145
0.591834
0.591487
0.591347
0.591083
0.591083
0.590727
0.590165
0.589379
0.588037
0.586452
0.584848
0.583401
0.582753
0.554929
0.451803
0.449758
0.562194
0.592984
0.596346
0.601227
0.604025
0.605847
0.606576
0.60616
0.605351
0.603933
0.602407
0.600749
0.599246
0.597899
0.59677
0.595848
0.595108
0.594535
0.594022
0.593626
0.593298
0.592944
0.592616
0.592278
0.591985
0.591679
0.591556
0.591348
0.591401
0.591124
0.590723
0.590071
0.588967
0.587602
0.586362
0.585159
0.58453
0.555586
0.451941
0.450408
0.56416
0.596115
0.599799
0.604486
0.607007
0.608378
0.608674
0.607855
0.606592
0.604919
0.603175
0.601399
0.599783
0.59835
0.597142
0.596153
0.595361
0.594743
0.594196
0.593764
0.593402
0.593026
0.592683
0.592344
0.592053
0.591773
0.591665
0.591504
0.591592
0.591385
0.591138
0.590658
0.589817
0.588795
0.587884
0.586889
0.586318
0.556161
0.45174
0.451153
0.565789
0.598928
0.603184
0.607715
0.610075
0.610891
0.610685
0.609502
0.607854
0.605942
0.604017
0.602136
0.600427
0.598922
0.597646
0.596595
0.595746
0.595079
0.594496
0.594032
0.593643
0.593252
0.592898
0.592559
0.592265
0.591995
0.591873
0.591718
0.591791
0.591594
0.591394
0.590956
0.590253
0.589436
0.588683
0.587776
0.587112
0.554622
0.451105
0.452263
0.568332
0.602525
0.607534
0.611931
0.613801
0.613778
0.612825
0.611031
0.608937
0.606733
0.604616
0.602639
0.600865
0.599314
0.597996
0.596903
0.596013
0.595306
0.594691
0.594196
0.59378
0.593369
0.592997
0.592643
0.59233
0.592045
0.59188
0.591694
0.591714
0.591501
0.591341
0.590968
0.590437
0.589848
0.589256
0.58855
0.5879
0.554453
0.450718
0.452859
0.570119
0.60629
0.612261
0.616878
0.618221
0.617295
0.615401
0.612914
0.61032
0.60777
0.60541
0.603276
0.601388
0.599751
0.598358
0.597202
0.596255
0.595499
0.594847
0.594324
0.593888
0.593469
0.593096
0.59275
0.592449
0.592187
0.592022
0.591846
0.591837
0.591629
0.591508
0.591187
0.590797
0.590383
0.589885
0.589294
0.588466
0.552266
0.449687
0.458757
0.573299
0.610884
0.618061
0.623033
0.623491
0.621423
0.618231
0.614816
0.611638
0.608715
0.606109
0.603817
0.601823
0.60011
0.598655
0.597445
0.596451
0.595652
0.594969
0.594419
0.593964
0.593536
0.593161
0.592818
0.592524
0.592272
0.592102
0.591927
0.591872
0.591646
0.591525
0.591221
0.590936
0.590628
0.590216
0.589721
0.588871
0.552106
0.449377
0.453367
0.576358
0.615542
0.624189
0.630094
0.629768
0.626439
0.621787
0.617137
0.613198
0.609817
0.606909
0.604413
0.60228
0.600472
0.598947
0.597683
0.596643
0.595806
0.595094
0.594521
0.59405
0.593616
0.59324
0.592906
0.592625
0.592396
0.592241
0.592091
0.592026
0.591812
0.591709
0.591443
0.591279
0.591067
0.590767
0.590361
0.589388
0.551077
0.448547
0.450846
0.580177
0.621047
0.631618
0.638119
0.637008
0.632053
0.625773
0.619552
0.614699
0.610848
0.607657
0.604968
0.602705
0.600809
0.599224
0.597914
0.596837
0.595969
0.595232
0.59464
0.594154
0.593713
0.593336
0.593006
0.592735
0.592522
0.592377
0.592242
0.592162
0.591949
0.591843
0.591598
0.591535
0.59139
0.591197
0.590866
0.589875
0.551309
0.448874
0.449016
0.581348
0.625949
0.640343
0.646662
0.64499
0.638703
0.630262
0.622146
0.616195
0.611823
0.608365
0.605493
0.603104
0.601125
0.599484
0.598136
0.597029
0.596135
0.595379
0.594771
0.594273
0.593825
0.593446
0.59312
0.592856
0.592657
0.592523
0.592405
0.592319
0.592113
0.592007
0.591794
0.591843
0.591771
0.591735
0.591501
0.590494
0.551178
0.448726
0.45255
0.574518
0.631782
0.650278
0.65602
0.653308
0.645707
0.634758
0.624761
0.61751
0.612644
0.608961
0.605947
0.603453
0.6014
0.599714
0.598335
0.597205
0.596293
0.595522
0.594901
0.594393
0.593939
0.593558
0.593233
0.592975
0.592785
0.59266
0.592553
0.592461
0.592256
0.592142
0.591946
0.592086
0.592057
0.592171
0.592006
0.590999
0.551207
0.448936
0.478266
0.56048
0.635731
0.663206
0.666843
0.661508
0.652102
0.63893
0.627085
0.61859
0.613247
0.609414
0.606308
0.603735
0.601624
0.599901
0.598499
0.597352
0.596426
0.595645
0.595014
0.594499
0.594042
0.593658
0.593333
0.593078
0.592895
0.592775
0.592677
0.59258
0.592377
0.592254
0.592066
0.592279
0.592276
0.592545
0.592436
0.591448
0.550417
0.448257
0.588736
0.569988
0.639643
0.681905
0.678922
0.668884
0.656892
0.641643
0.629104
0.619159
0.613611
0.609702
0.606553
0.603929
0.601779
0.600031
0.598613
0.597456
0.596522
0.595733
0.595097
0.594577
0.594116
0.593731
0.593407
0.593153
0.592973
0.592856
0.592762
0.592661
0.592457
0.592327
0.592144
0.592401
0.592414
0.592798
0.592727
0.591748
0.550391
0.454128
)
;

boundaryField
{
    inlet
    {
        type            fixedValue;
        value           uniform 1;
    }
    outlet
    {
        type            zeroGradient;
    }
    obstacle
    {
        type            zeroGradient;
    }
    empty
    {
        type            empty;
    }
}


// ************************************************************************* //
