/*--------------------------------*- C++ -*----------------------------------*\
| =========                 |                                                 |
| \\      /  F ield         | OpenFOAM: The Open Source CFD Toolbox           |
|  \\    /   O peration     | Version:  v1912                                 |
|   \\  /    A nd           | Website:  www.openfoam.com                      |
|    \\/     M anipulation  |                                                 |
\*---------------------------------------------------------------------------*/
FoamFile
{
    version     2.0;
    format      ascii;
    class       volVectorField;
    location    "3.16";
    object      U;
}
// * * * * * * * * * * * * * * * * * * * * * * * * * * * * * * * * * * * * * //

dimensions      [0 1 -1 0 0 0 0];


internalField   nonuniform List<vector> 
1900
(
(-0.503869 -1.95362e-06 0)
(-0.0786815 -2.05394e-06 0)
(-0.0843242 -2.79341e-06 0)
(-0.0887945 9.69632e-06 0)
(-0.0935496 0.00013196 0)
(-0.0986631 0.00039698 0)
(-0.103537 0.000567348 0)
(-0.10771 -0.000765542 0)
(-0.109933 -0.00577143 0)
(-0.0970083 -0.0194751 0)
(-0.503872 -8.33045e-07 0)
(-0.0786888 -1.65923e-06 0)
(-0.0843359 -2.35528e-06 0)
(-0.0888126 1.39685e-05 0)
(-0.0935065 0.000117452 0)
(-0.0983153 0.000364522 0)
(-0.102402 0.000629277 0)
(-0.105645 -0.000314785 0)
(-0.110034 -0.00330711 0)
(-0.111373 -0.0152392 0)
(-0.503873 -3.47623e-14 0)
(-0.0786915 -2.91901e-14 0)
(-0.0843384 -3.42979e-14 0)
(-0.088794 -8.20562e-15 0)
(-0.0934129 1.08741e-14 0)
(-0.0980485 -6.38709e-15 0)
(-0.101934 -2.298e-14 0)
(-0.105099 -3.51838e-15 0)
(-0.110266 -4.03918e-14 0)
(-0.119314 -2.69017e-14 0)
(-0.503872 8.33045e-07 0)
(-0.0786888 1.65923e-06 0)
(-0.0843359 2.35528e-06 0)
(-0.0888126 -1.39685e-05 0)
(-0.0935065 -0.000117452 0)
(-0.0983153 -0.000364522 0)
(-0.102402 -0.000629277 0)
(-0.105645 0.000314785 0)
(-0.110034 0.00330711 0)
(-0.111373 0.0152392 0)
(-0.503869 1.95362e-06 0)
(-0.0786815 2.05394e-06 0)
(-0.0843242 2.79341e-06 0)
(-0.0887945 -9.69632e-06 0)
(-0.0935496 -0.00013196 0)
(-0.0986631 -0.00039698 0)
(-0.103537 -0.000567348 0)
(-0.10771 0.000765542 0)
(-0.109933 0.00577143 0)
(-0.0970083 0.0194751 0)
(-0.0969538 -0.05063 0)
(-0.123779 -0.0642651 0)
(-0.144223 -0.0863885 0)
(-0.187207 -0.10899 0)
(-0.378211 -0.0804247 0)
(-0.126857 -0.0344576 0)
(-0.155159 -0.0435149 0)
(-0.192689 -0.0632042 0)
(-0.276336 -0.0837236 0)
(-0.44843 -0.0746885 0)
(-0.138512 -2.86902e-14 0)
(-0.167487 -1.75359e-14 0)
(-0.216003 2.05897e-14 0)
(-0.309953 -1.49156e-16 0)
(-0.470987 4.44261e-15 0)
(-0.126857 0.0344576 0)
(-0.155159 0.0435149 0)
(-0.192689 0.0632042 0)
(-0.276336 0.0837236 0)
(-0.44843 0.0746885 0)
(-0.0969538 0.05063 0)
(-0.123779 0.0642651 0)
(-0.144223 0.0863885 0)
(-0.187207 0.10899 0)
(-0.378211 0.0804247 0)
(-0.426371 0.0262661 0)
(-0.32942 0.0280186 0)
(-0.268167 0.0274188 0)
(-0.230528 0.0414947 0)
(-0.262934 0.079563 0)
(-0.444057 0.0197631 0)
(-0.342042 0.0173497 0)
(-0.269116 0.0148983 0)
(-0.19317 0.0343682 0)
(-0.113801 0.0952279 0)
(-0.453636 1.01695e-14 0)
(-0.344281 6.18358e-14 0)
(-0.261658 1.07547e-13 0)
(-0.168033 1.29096e-13 0)
(-0.0288118 1.44172e-13 0)
(-0.444057 -0.0197631 0)
(-0.342042 -0.0173497 0)
(-0.269116 -0.0148983 0)
(-0.19317 -0.0343682 0)
(-0.113801 -0.0952279 0)
(-0.426371 -0.0262661 0)
(-0.32942 -0.0280186 0)
(-0.268167 -0.0274188 0)
(-0.230528 -0.0414947 0)
(-0.262934 -0.079563 0)
(-0.454567 0.0663077 0)
(-0.0354738 -0.163228 0)
(-0.0983436 -0.207892 0)
(-0.251117 -0.130673 0)
(-0.325014 -0.0605558 0)
(-0.378186 -0.0422431 0)
(-0.396603 -0.0374116 0)
(-0.397212 -0.0354289 0)
(-0.390958 -0.0335782 0)
(-0.380329 -0.0333628 0)
(-0.365487 -0.0329572 0)
(-0.34709 -0.0328351 0)
(-0.324883 -0.0327508 0)
(-0.297783 -0.0326935 0)
(-0.264708 -0.0326635 0)
(-0.225273 -0.0326472 0)
(-0.180151 -0.032623 0)
(-0.130411 -0.0326159 0)
(-0.0781097 -0.0325021 0)
(-0.0238395 -0.032714 0)
(0.0304701 -0.032667 0)
(0.0852934 -0.0324465 0)
(0.138261 -0.0325243 0)
(0.189227 -0.032482 0)
(0.236395 -0.0324384 0)
(0.279087 -0.0323606 0)
(0.317036 -0.0322591 0)
(0.350928 -0.0321402 0)
(0.381951 -0.0320138 0)
(0.411209 -0.0318853 0)
(0.439379 -0.0317602 0)
(0.466808 -0.0316343 0)
(0.493703 -0.0315481 0)
(0.520187 -0.0313436 0)
(0.545315 -0.031427 0)
(0.567131 -0.0305086 0)
(0.584624 -0.0313993 0)
(0.596606 -0.0301091 0)
(0.628509 -0.0333296 0)
(1.25474 -0.0319872 0)
(0.0689855 0.0987806 0)
(0.276799 -0.11217 0)
(0.065323 -0.140839 0)
(-0.208447 -0.0745095 0)
(-0.326125 -0.030461 0)
(-0.379434 -0.0208792 0)
(-0.397861 -0.0186733 0)
(-0.398605 -0.0177173 0)
(-0.3922 -0.0167533 0)
(-0.38153 -0.0166778 0)
(-0.36667 -0.0164713 0)
(-0.348189 -0.0164071 0)
(-0.325884 -0.0163629 0)
(-0.298673 -0.0163308 0)
(-0.265474 -0.0163124 0)
(-0.225903 -0.0163016 0)
(-0.180641 -0.0162878 0)
(-0.130758 -0.0162835 0)
(-0.0783135 -0.0162264 0)
(-0.0239025 -0.0163327 0)
(0.030548 -0.0163092 0)
(0.0855134 -0.0161988 0)
(0.138624 -0.0162384 0)
(0.189731 -0.0162184 0)
(0.237037 -0.0161987 0)
(0.279864 -0.016163 0)
(0.317941 -0.0161164 0)
(0.351952 -0.0160616 0)
(0.383084 -0.016003 0)
(0.412441 -0.0159428 0)
(0.4407 -0.0158836 0)
(0.46821 -0.0158237 0)
(0.495179 -0.0157825 0)
(0.521739 -0.015685 0)
(0.546894 -0.0157224 0)
(0.56884 -0.0152584 0)
(0.586231 -0.0156994 0)
(0.598127 -0.0150408 0)
(0.628785 -0.0168387 0)
(1.2522 -0.0158054 0)
(0.230661 -8.04047e-15 0)
(0.37641 -5.76068e-14 0)
(0.138772 -2.24851e-14 0)
(-0.189913 3.58859e-14 0)
(-0.328483 -1.01369e-13 0)
(-0.381779 -3.64343e-13 0)
(-0.399751 -6.66961e-13 0)
(-0.400432 -8.05089e-13 0)
(-0.393756 -4.26657e-13 0)
(-0.382947 2.64632e-13 0)
(-0.367945 1.12591e-12 0)
(-0.349302 1.4542e-12 0)
(-0.326842 -5.31754e-13 0)
(-0.299483 -6.14237e-12 0)
(-0.26614 -1.46344e-11 0)
(-0.226431 -1.80155e-11 0)
(-0.181037 6.51352e-13 0)
(-0.13103 2.27792e-11 0)
(-0.0784694 -3.96013e-12 0)
(-0.0239492 -1.18457e-11 0)
(0.0306081 1.28494e-11 0)
(0.0856834 6.28761e-12 0)
(0.13891 -5.40819e-11 0)
(0.190143 -5.25818e-11 0)
(0.237584 9.76645e-12 0)
(0.280555 2.88248e-11 0)
(0.318783 7.66812e-12 0)
(0.352953 -1.66843e-11 0)
(0.384248 -3.07775e-11 0)
(0.413774 -3.24672e-11 0)
(0.442212 -3.4791e-11 0)
(0.469911 -2.29818e-11 0)
(0.49708 -1.86701e-11 0)
(0.523855 -3.23524e-12 0)
(0.549223 -1.3777e-11 0)
(0.571415 -5.55287e-13 0)
(0.589055 4.21896e-11 0)
(0.601079 -7.52512e-12 0)
(0.630969 -1.66456e-11 0)
(1.25489 2.27024e-12 0)
(0.0689855 -0.0987806 0)
(0.276799 0.11217 0)
(0.065323 0.140839 0)
(-0.208447 0.0745095 0)
(-0.326125 0.030461 0)
(-0.379434 0.0208792 0)
(-0.397861 0.0186733 0)
(-0.398605 0.0177173 0)
(-0.3922 0.0167533 0)
(-0.38153 0.0166778 0)
(-0.36667 0.0164713 0)
(-0.348189 0.0164071 0)
(-0.325884 0.0163629 0)
(-0.298673 0.0163308 0)
(-0.265474 0.0163124 0)
(-0.225903 0.0163016 0)
(-0.180641 0.0162878 0)
(-0.130758 0.0162835 0)
(-0.0783135 0.0162264 0)
(-0.0239025 0.0163327 0)
(0.030548 0.0163092 0)
(0.0855134 0.0161988 0)
(0.138624 0.0162384 0)
(0.189731 0.0162184 0)
(0.237037 0.0161987 0)
(0.279864 0.016163 0)
(0.317941 0.0161164 0)
(0.351952 0.0160616 0)
(0.383084 0.016003 0)
(0.412441 0.0159428 0)
(0.4407 0.0158836 0)
(0.46821 0.0158237 0)
(0.495179 0.0157825 0)
(0.521739 0.015685 0)
(0.546894 0.0157224 0)
(0.56884 0.0152584 0)
(0.586231 0.0156994 0)
(0.598127 0.0150408 0)
(0.628785 0.0168387 0)
(1.2522 0.0158054 0)
(-0.454567 -0.0663077 0)
(-0.0354738 0.163228 0)
(-0.0983436 0.207892 0)
(-0.251117 0.130673 0)
(-0.325014 0.0605558 0)
(-0.378186 0.0422431 0)
(-0.396603 0.0374116 0)
(-0.397212 0.0354289 0)
(-0.390958 0.0335782 0)
(-0.380329 0.0333628 0)
(-0.365487 0.0329572 0)
(-0.34709 0.0328351 0)
(-0.324883 0.0327508 0)
(-0.297783 0.0326935 0)
(-0.264708 0.0326635 0)
(-0.225273 0.0326472 0)
(-0.180151 0.032623 0)
(-0.130411 0.0326159 0)
(-0.0781097 0.0325021 0)
(-0.0238395 0.032714 0)
(0.0304701 0.032667 0)
(0.0852934 0.0324465 0)
(0.138261 0.0325243 0)
(0.189227 0.032482 0)
(0.236395 0.0324384 0)
(0.279087 0.0323606 0)
(0.317036 0.0322591 0)
(0.350928 0.0321402 0)
(0.381951 0.0320138 0)
(0.411209 0.0318853 0)
(0.439379 0.0317602 0)
(0.466808 0.0316343 0)
(0.493703 0.0315481 0)
(0.520187 0.0313436 0)
(0.545315 0.031427 0)
(0.567131 0.0305086 0)
(0.584624 0.0313993 0)
(0.596606 0.0301091 0)
(0.628509 0.0333296 0)
(1.25474 0.0319872 0)
(-1.08163 -0.121874 0)
(-0.390826 0.180614 0)
(-0.301717 0.263307 0)
(-0.322279 0.191812 0)
(-0.350025 0.115276 0)
(-0.388455 0.0865722 0)
(-0.40228 0.0772872 0)
(-0.402164 0.0730079 0)
(-0.394691 0.0696824 0)
(-0.38342 0.06907 0)
(-0.368105 0.0682895 0)
(-0.349439 0.0680297 0)
(-0.326965 0.0678371 0)
(-0.299607 0.0677165 0)
(-0.266269 0.067652 0)
(-0.226565 0.0676126 0)
(-0.181166 0.0675553 0)
(-0.13114 0.0675353 0)
(-0.0785514 0.0672961 0)
(-0.0239875 0.0677361 0)
(0.0306036 0.0676402 0)
(0.0857094 0.0671833 0)
(0.138952 0.067346 0)
(0.190188 0.0672608 0)
(0.237615 0.0671749 0)
(0.280561 0.0670184 0)
(0.318758 0.0668133 0)
(0.352898 0.0665732 0)
(0.384174 0.0663182 0)
(0.4137 0.0660598 0)
(0.442152 0.0658103 0)
(0.469874 0.0655524 0)
(0.497057 0.0653995 0)
(0.523758 0.0649446 0)
(0.549204 0.0651524 0)
(0.571014 0.0633945 0)
(0.589086 0.0649229 0)
(0.601486 0.0626493 0)
(0.63482 0.067867 0)
(1.2559 0.0668897 0)
(-1.2225 -0.0318308 0)
(-0.582299 0.257217 0)
(-0.455938 0.311648 0)
(-0.395446 0.249404 0)
(-0.397431 0.179661 0)
(-0.406183 0.14891 0)
(-0.409812 0.136074 0)
(-0.405103 0.128981 0)
(-0.396411 0.124133 0)
(-0.383776 0.122888 0)
(-0.368038 0.121653 0)
(-0.349254 0.121177 0)
(-0.326737 0.120829 0)
(-0.299382 0.120636 0)
(-0.266072 0.120539 0)
(-0.226408 0.120478 0)
(-0.181059 0.120379 0)
(-0.131078 0.120348 0)
(-0.0785378 0.119922 0)
(-0.0240058 0.120723 0)
(0.0305186 0.120555 0)
(0.0855633 0.119728 0)
(0.138717 0.120017 0)
(0.189843 0.119859 0)
(0.237126 0.119701 0)
(0.279901 0.119413 0)
(0.317909 0.119035 0)
(0.351862 0.118595 0)
(0.382968 0.118127 0)
(0.412358 0.117655 0)
(0.440706 0.117205 0)
(0.468311 0.116722 0)
(0.4954 0.116484 0)
(0.521751 0.115582 0)
(0.54723 0.116056 0)
(0.568374 0.11311 0)
(0.58677 0.115476 0)
(0.599215 0.112265 0)
(0.637695 0.117072 0)
(1.24661 0.112377 0)
(-1.22969 0.0346244 0)
(-0.633463 0.26954 0)
(-0.516699 0.325099 0)
(-0.449688 0.272012 0)
(-0.430232 0.227888 0)
(-0.423166 0.203118 0)
(-0.418765 0.189207 0)
(-0.409592 0.181101 0)
(-0.398484 0.17668 0)
(-0.384877 0.174478 0)
(-0.368509 0.173034 0)
(-0.349489 0.172371 0)
(-0.326843 0.171943 0)
(-0.299436 0.171761 0)
(-0.266097 0.171702 0)
(-0.226432 0.17168 0)
(-0.181093 0.171588 0)
(-0.131119 0.17158 0)
(-0.0785936 0.170993 0)
(-0.0240461 0.172177 0)
(0.0304558 0.17194 0)
(0.08549 0.170725 0)
(0.138604 0.171115 0)
(0.18967 0.170857 0)
(0.236861 0.170588 0)
(0.279517 0.170117 0)
(0.317404 0.169506 0)
(0.351226 0.168786 0)
(0.382274 0.16803 0)
(0.411649 0.167248 0)
(0.44004 0.166502 0)
(0.467684 0.165645 0)
(0.494912 0.165246 0)
(0.520914 0.163584 0)
(0.546762 0.164106 0)
(0.567392 0.160176 0)
(0.586277 0.162641 0)
(0.598654 0.159196 0)
(0.643336 0.162181 0)
(1.23752 0.155814 0)
(-1.22506 0.106192 0)
(-0.649279 0.287228 0)
(-0.542409 0.338497 0)
(-0.479892 0.297132 0)
(-0.453379 0.268636 0)
(-0.438942 0.249225 0)
(-0.427175 0.236931 0)
(-0.414904 0.229036 0)
(-0.401423 0.225026 0)
(-0.386378 0.222408 0)
(-0.36926 0.2209 0)
(-0.349779 0.220132 0)
(-0.32691 0.219746 0)
(-0.299364 0.219657 0)
(-0.266011 0.219741 0)
(-0.226359 0.219833 0)
(-0.181067 0.219813 0)
(-0.131134 0.219875 0)
(-0.0786571 0.219154 0)
(-0.0241133 0.220745 0)
(0.0303354 0.220436 0)
(0.0853312 0.218798 0)
(0.138366 0.219251 0)
(0.189324 0.218852 0)
(0.236359 0.218413 0)
(0.278843 0.217705 0)
(0.316491 0.216762 0)
(0.350185 0.215716 0)
(0.381039 0.214537 0)
(0.410401 0.21336 0)
(0.438868 0.212234 0)
(0.46637 0.21077 0)
(0.493816 0.21014 0)
(0.519213 0.207419 0)
(0.545452 0.20775 0)
(0.565479 0.202923 0)
(0.584904 0.205021 0)
(0.596931 0.201938 0)
(0.648734 0.199872 0)
(1.22627 0.192882 0)
(-1.21283 0.163083 0)
(-0.656644 0.308146 0)
(-0.558951 0.353551 0)
(-0.500857 0.321113 0)
(-0.471017 0.304463 0)
(-0.451842 0.2885 0)
(-0.43511 0.27845 0)
(-0.419864 0.271448 0)
(-0.40436 0.267943 0)
(-0.387946 0.265207 0)
(-0.370052 0.2638 0)
(-0.35002 0.263091 0)
(-0.326727 0.262805 0)
(-0.299128 0.263012 0)
(-0.265705 0.263301 0)
(-0.226143 0.263633 0)
(-0.180938 0.263751 0)
(-0.131095 0.263936 0)
(-0.0787059 0.263111 0)
(-0.0241955 0.265135 0)
(0.0301679 0.264755 0)
(0.0850883 0.262656 0)
(0.138 0.263134 0)
(0.18879 0.262541 0)
(0.235624 0.261886 0)
(0.277807 0.260817 0)
(0.315297 0.259569 0)
(0.34853 0.257909 0)
(0.379488 0.256448 0)
(0.408599 0.254563 0)
(0.437135 0.252978 0)
(0.464569 0.250811 0)
(0.492236 0.249747 0)
(0.516852 0.245793 0)
(0.543426 0.2457 0)
(0.563233 0.240195 0)
(0.583215 0.241545 0)
(0.595434 0.239702 0)
(0.653388 0.230739 0)
(1.21463 0.232834 0)
(-1.21357 0.218579 0)
(-0.658639 0.3272 0)
(-0.567611 0.367375 0)
(-0.516638 0.341893 0)
(-0.484885 0.33524 0)
(-0.461301 0.321585 0)
(-0.441629 0.314118 0)
(-0.424118 0.308092 0)
(-0.40708 0.305138 0)
(-0.389549 0.302502 0)
(-0.370824 0.301268 0)
(-0.349923 0.30047 0)
(-0.326505 0.300704 0)
(-0.298454 0.300965 0)
(-0.265215 0.301736 0)
(-0.225708 0.302277 0)
(-0.180678 0.302615 0)
(-0.130981 0.302949 0)
(-0.0787325 0.302038 0)
(-0.0242984 0.30451 0)
(0.02994 0.304059 0)
(0.0847381 0.301468 0)
(0.137472 0.301937 0)
(0.188037 0.301127 0)
(0.234556 0.300157 0)
(0.276519 0.298836 0)
(0.313363 0.296858 0)
(0.346821 0.295171 0)
(0.376955 0.292566 0)
(0.406498 0.290612 0)
(0.435058 0.288338 0)
(0.462026 0.285137 0)
(0.490102 0.2839 0)
(0.514116 0.278956 0)
(0.54074 0.278204 0)
(0.560712 0.272442 0)
(0.581062 0.272682 0)
(0.5946 0.272635 0)
(0.655519 0.257997 0)
(1.20056 0.266337 0)
(-1.20169 0.269962 0)
(-0.657737 0.348368 0)
(-0.57244 0.384419 0)
(-0.528053 0.364261 0)
(-0.495934 0.362309 0)
(-0.468942 0.350892 0)
(-0.447506 0.345937 0)
(-0.428162 0.340421 0)
(-0.409929 0.337965 0)
(-0.391239 0.335279 0)
(-0.371459 0.333862 0)
(-0.350264 0.333742 0)
(-0.325635 0.333478 0)
(-0.297929 0.33459 0)
(-0.264381 0.33531 0)
(-0.225165 0.336279 0)
(-0.180304 0.336755 0)
(-0.130813 0.337255 0)
(-0.0787467 0.33625 0)
(-0.0244269 0.339176 0)
(0.0296558 0.338661 0)
(0.0842932 0.33556 0)
(0.136813 0.336024 0)
(0.187089 0.33497 0)
(0.233331 0.333814 0)
(0.274696 0.331895 0)
(0.311707 0.330094 0)
(0.343863 0.326994 0)
(0.375168 0.325297 0)
(0.403561 0.321709 0)
(0.432789 0.319752 0)
(0.459724 0.316164 0)
(0.487823 0.314529 0)
(0.511414 0.309168 0)
(0.53824 0.308448 0)
(0.558882 0.303152 0)
(0.58003 0.302989 0)
(0.595105 0.303358 0)
(0.656116 0.288034 0)
(1.18716 0.30788 0)
(-1.18133 0.309955 0)
(-0.654955 0.367464 0)
(-0.57466 0.401135 0)
(-0.534519 0.386119 0)
(-0.503 0.385954 0)
(-0.473819 0.376882 0)
(-0.451767 0.374542 0)
(-0.431161 0.369367 0)
(-0.412273 0.367506 0)
(-0.392752 0.364867 0)
(-0.372637 0.364209 0)
(-0.349648 0.363063 0)
(-0.3256 0.364161 0)
(-0.296725 0.364506 0)
(-0.263719 0.365963 0)
(-0.224486 0.366865 0)
(-0.179905 0.367535 0)
(-0.130633 0.368126 0)
(-0.078774 0.366998 0)
(-0.0245862 0.370368 0)
(0.0293278 0.369807 0)
(0.0837904 0.366203 0)
(0.136079 0.366698 0)
(0.186071 0.365507 0)
(0.23188 0.364065 0)
(0.273144 0.362289 0)
(0.308952 0.359426 0)
(0.342242 0.357564 0)
(0.371502 0.353752 0)
(0.401598 0.351805 0)
(0.430071 0.348724 0)
(0.456591 0.344583 0)
(0.485167 0.343475 0)
(0.508051 0.337706 0)
(0.534812 0.336602 0)
(0.55565 0.331352 0)
(0.578322 0.331531 0)
(0.593792 0.330737 0)
(0.65352 0.315222 0)
(1.17121 0.338883 0)
(-1.1672 0.362 0)
(-0.653853 0.39365 0)
(-0.576232 0.423562 0)
(-0.54008 0.412954 0)
(-0.50942 0.412865 0)
(-0.479216 0.40517 0)
(-0.456826 0.404018 0)
(-0.434884 0.398183 0)
(-0.415499 0.396767 0)
(-0.395145 0.394253 0)
(-0.373096 0.392295 0)
(-0.350592 0.392746 0)
(-0.324404 0.392317 0)
(-0.296274 0.393718 0)
(-0.262722 0.39463 0)
(-0.223884 0.395798 0)
(-0.179501 0.396411 0)
(-0.130474 0.397049 0)
(-0.07883 0.395741 0)
(-0.0247743 0.399543 0)
(0.0289711 0.398958 0)
(0.0832633 0.394875 0)
(0.135325 0.395487 0)
(0.185009 0.394217 0)
(0.230531 0.392843 0)
(0.271068 0.390686 0)
(0.307329 0.388662 0)
(0.338741 0.385272 0)
(0.370266 0.383783 0)
(0.397999 0.379463 0)
(0.428387 0.378405 0)
(0.454321 0.373931 0)
(0.48302 0.372983 0)
(0.505893 0.367655 0)
(0.533159 0.367132 0)
(0.554537 0.362348 0)
(0.578788 0.363026 0)
(0.594959 0.362063 0)
(0.653215 0.347763 0)
(1.15494 0.382798 0)
(-1.14972 0.399728 0)
(-0.650026 0.413939 0)
(-0.574823 0.441482 0)
(-0.54195 0.435854 0)
(-0.51145 0.435282 0)
(-0.480825 0.428831 0)
(-0.458573 0.428905 0)
(-0.436101 0.423439 0)
(-0.41701 0.423258 0)
(-0.395357 0.420308 0)
(-0.373995 0.420383 0)
(-0.349352 0.419562 0)
(-0.323882 0.420545 0)
(-0.294858 0.421382 0)
(-0.261812 0.422665 0)
(-0.223161 0.423772 0)
(-0.179094 0.424358 0)
(-0.130334 0.424982 0)
(-0.078913 0.423449 0)
(-0.0249816 0.427679 0)
(0.0285958 0.427097 0)
(0.0827303 0.422554 0)
(0.134563 0.423354 0)
(0.183935 0.422099 0)
(0.229024 0.420741 0)
(0.269232 0.418732 0)
(0.30443 0.41622 0)
(0.336589 0.41382 0)
(0.366109 0.410601 0)
(0.395696 0.408141 0)
(0.4244 0.405264 0)
(0.450382 0.400759 0)
(0.479133 0.399919 0)
(0.50113 0.394075 0)
(0.528472 0.393132 0)
(0.550005 0.388195 0)
(0.575646 0.38892 0)
(0.591829 0.386839 0)
(0.648883 0.372815 0)
(1.13686 0.411652 0)
(-1.13322 0.45177 0)
(-0.648993 0.442741 0)
(-0.575703 0.466402 0)
(-0.546985 0.46487 0)
(-0.514438 0.462435 0)
(-0.485343 0.457529 0)
(-0.463309 0.457684 0)
(-0.440136 0.451848 0)
(-0.420604 0.451764 0)
(-0.398331 0.44926 0)
(-0.375104 0.448223 0)
(-0.350107 0.447965 0)
(-0.323476 0.448455 0)
(-0.294143 0.449137 0)
(-0.261097 0.450329 0)
(-0.222581 0.451209 0)
(-0.178774 0.451722 0)
(-0.130243 0.452274 0)
(-0.07903 0.450499 0)
(-0.0252009 0.455169 0)
(0.0282136 0.454613 0)
(0.082217 0.449612 0)
(0.133841 0.450643 0)
(0.18295 0.44948 0)
(0.227682 0.448207 0)
(0.267547 0.446455 0)
(0.302476 0.444144 0)
(0.334218 0.44183 0)
(0.364725 0.439595 0)
(0.393088 0.43611 0)
(0.42389 0.435238 0)
(0.448822 0.430068 0)
(0.478194 0.429992 0)
(0.500384 0.424766 0)
(0.528255 0.424098 0)
(0.550079 0.419403 0)
(0.577249 0.420761 0)
(0.593943 0.41882 0)
(0.64932 0.40622 0)
(1.11698 0.456375 0)
(-1.11476 0.48654 0)
(-0.645208 0.464286 0)
(-0.574712 0.485693 0)
(-0.548199 0.485789 0)
(-0.514332 0.481539 0)
(-0.486451 0.479345 0)
(-0.464058 0.479081 0)
(-0.44021 0.473361 0)
(-0.420657 0.474509 0)
(-0.397005 0.471823 0)
(-0.373565 0.47234 0)
(-0.348026 0.472637 0)
(-0.32094 0.473566 0)
(-0.292032 0.474992 0)
(-0.259299 0.476415 0)
(-0.221512 0.477719 0)
(-0.178217 0.478348 0)
(-0.130077 0.478965 0)
(-0.0791308 0.476982 0)
(-0.0254103 0.48212 0)
(0.0278292 0.481609 0)
(0.0817 0.476134 0)
(0.133059 0.477386 0)
(0.181746 0.476177 0)
(0.225901 0.474831 0)
(0.264821 0.472643 0)
(0.299264 0.47027 0)
(0.329923 0.467154 0)
(0.360633 0.464899 0)
(0.388251 0.460741 0)
(0.418901 0.459206 0)
(0.443562 0.453808 0)
(0.472762 0.453191 0)
(0.494689 0.447649 0)
(0.523106 0.446938 0)
(0.545137 0.442111 0)
(0.573463 0.443348 0)
(0.59049 0.440812 0)
(0.644712 0.429012 0)
(1.09706 0.482847 0)
(-1.09351 0.536523 0)
(-0.643418 0.493274 0)
(-0.575424 0.510919 0)
(-0.550501 0.511565 0)
(-0.51624 0.506056 0)
(-0.490619 0.506019 0)
(-0.467137 0.504865 0)
(-0.443706 0.499806 0)
(-0.424103 0.501119 0)
(-0.39936 0.498482 0)
(-0.375784 0.499622 0)
(-0.348808 0.49967 0)
(-0.321392 0.500803 0)
(-0.291977 0.502084 0)
(-0.259244 0.503286 0)
(-0.221542 0.504332 0)
(-0.178322 0.504666 0)
(-0.130266 0.505179 0)
(-0.0793967 0.502947 0)
(-0.0256545 0.508565 0)
(0.0275033 0.508115 0)
(0.0813758 0.502171 0)
(0.132655 0.503714 0)
(0.18123 0.502645 0)
(0.225234 0.501625 0)
(0.263927 0.499731 0)
(0.298106 0.497635 0)
(0.328889 0.494762 0)
(0.359593 0.492577 0)
(0.387629 0.488668 0)
(0.418555 0.487309 0)
(0.443016 0.481893 0)
(0.47271 0.481731 0)
(0.494484 0.476519 0)
(0.5235 0.476237 0)
(0.545838 0.471952 0)
(0.575143 0.473519 0)
(0.592391 0.471144 0)
(0.644676 0.461358 0)
(1.07322 0.52717 0)
(-1.07307 0.565667 0)
(-0.639713 0.514453 0)
(-0.574922 0.530313 0)
(-0.5513 0.530993 0)
(-0.517232 0.524887 0)
(-0.49283 0.526304 0)
(-0.467958 0.523964 0)
(-0.444223 0.519859 0)
(-0.423929 0.521386 0)
(-0.397782 0.5188 0)
(-0.373548 0.520788 0)
(-0.345359 0.521011 0)
(-0.31768 0.522909 0)
(-0.287937 0.524484 0)
(-0.255772 0.526416 0)
(-0.218935 0.528182 0)
(-0.176706 0.529269 0)
(-0.129467 0.530303 0)
(-0.0791699 0.528178 0)
(-0.0257369 0.534413 0)
(0.0270822 0.534034 0)
(0.080626 0.527491 0)
(0.131309 0.528987 0)
(0.179027 0.527442 0)
(0.221939 0.525714 0)
(0.259569 0.523123 0)
(0.292953 0.520414 0)
(0.323479 0.517157 0)
(0.354233 0.514696 0)
(0.382122 0.510177 0)
(0.413589 0.508969 0)
(0.437764 0.503134 0)
(0.467937 0.502986 0)
(0.489669 0.497751 0)
(0.519437 0.49764 0)
(0.54205 0.493449 0)
(0.572408 0.495011 0)
(0.589934 0.492361 0)
(0.640622 0.483388 0)
(1.05163 0.550506 0)
(-1.04607 0.614282 0)
(-0.636849 0.543823 0)
(-0.575265 0.555476 0)
(-0.552928 0.556458 0)
(-0.519652 0.550504 0)
(-0.496295 0.552198 0)
(-0.46988 0.548689 0)
(-0.446806 0.545685 0)
(-0.425716 0.54652 0)
(-0.398846 0.543862 0)
(-0.374503 0.545898 0)
(-0.345491 0.545904 0)
(-0.317929 0.548043 0)
(-0.288014 0.549519 0)
(-0.256324 0.551569 0)
(-0.219744 0.552947 0)
(-0.177691 0.553715 0)
(-0.130392 0.554391 0)
(-0.0799126 0.551835 0)
(-0.0261234 0.558454 0)
(0.0270218 0.558163 0)
(0.0809159 0.551277 0)
(0.13177 0.553302 0)
(0.179528 0.552162 0)
(0.222237 0.550839 0)
(0.259444 0.54865 0)
(0.292424 0.546055 0)
(0.322455 0.542806 0)
(0.353535 0.540686 0)
(0.380883 0.536228 0)
(0.412893 0.535795 0)
(0.436875 0.530456 0)
(0.467452 0.530966 0)
(0.489402 0.526554 0)
(0.5199 0.527184 0)
(0.542846 0.523802 0)
(0.573712 0.525385 0)
(0.591263 0.5227 0)
(0.639657 0.516041 0)
(1.02326 0.594552 0)
(-1.02413 0.636681 0)
(-0.632986 0.565316 0)
(-0.574953 0.577044 0)
(-0.554174 0.578099 0)
(-0.521708 0.572243 0)
(-0.498923 0.573521 0)
(-0.47087 0.568232 0)
(-0.447851 0.566463 0)
(-0.425467 0.566686 0)
(-0.397349 0.563616 0)
(-0.373001 0.566089 0)
(-0.342742 0.565474 0)
(-0.314769 0.567455 0)
(-0.284112 0.56824 0)
(-0.252052 0.569734 0)
(-0.215815 0.57129 0)
(-0.174195 0.572443 0)
(-0.12757 0.57362 0)
(-0.0780831 0.571429 0)
(-0.0255749 0.578859 0)
(0.0261282 0.578636 0)
(0.078711 0.570959 0)
(0.128487 0.572704 0)
(0.175446 0.571091 0)
(0.217565 0.569469 0)
(0.254159 0.567048 0)
(0.287444 0.565203 0)
(0.317564 0.562422 0)
(0.349307 0.561133 0)
(0.376358 0.55682 0)
(0.40861 0.556713 0)
(0.432362 0.551616 0)
(0.463406 0.55244 0)
(0.485442 0.548359 0)
(0.516764 0.549406 0)
(0.539905 0.546283 0)
(0.571534 0.547929 0)
(0.588949 0.544864 0)
(0.63559 0.537553 0)
(1.00041 0.612592 0)
(-0.99129 0.681255 0)
(-0.6269 0.589755 0)
(-0.573628 0.600211 0)
(-0.555146 0.602749 0)
(-0.524159 0.596896 0)
(-0.501926 0.597181 0)
(-0.473335 0.591136 0)
(-0.452115 0.590777 0)
(-0.427011 0.589159 0)
(-0.400097 0.5866 0)
(-0.374444 0.58777 0)
(-0.343454 0.585326 0)
(-0.315379 0.586519 0)
(-0.284412 0.586312 0)
(-0.25366 0.587958 0)
(-0.217796 0.588851 0)
(-0.1767 0.589611 0)
(-0.130144 0.590498 0)
(-0.0801419 0.587859 0)
(-0.0264394 0.595453 0)
(0.0267142 0.595318 0)
(0.0805085 0.587537 0)
(0.130781 0.58987 0)
(0.177641 0.588625 0)
(0.219226 0.58755 0)
(0.255263 0.585811 0)
(0.287428 0.584141 0)
(0.317179 0.58215 0)
(0.349337 0.582327 0)
(0.376804 0.579696 0)
(0.409764 0.581217 0)
(0.433508 0.577342 0)
(0.465039 0.579264 0)
(0.487068 0.576257 0)
(0.518442 0.57782 0)
(0.541576 0.5755 0)
(0.572947 0.57696 0)
(0.588892 0.57196 0)
(0.632324 0.563095 0)
(0.967467 0.651694 0)
(-0.955174 0.680251 0)
(-0.61434 0.596659 0)
(-0.566703 0.61119 0)
(-0.553342 0.616663 0)
(-0.525303 0.612112 0)
(-0.503977 0.611801 0)
(-0.474766 0.605656 0)
(-0.454384 0.605405 0)
(-0.426336 0.602123 0)
(-0.401331 0.60105 0)
(-0.373632 0.600529 0)
(-0.344614 0.599133 0)
(-0.316143 0.598969 0)
(-0.285138 0.598118 0)
(-0.251933 0.598926 0)
(-0.214945 0.600147 0)
(-0.17339 0.601358 0)
(-0.126992 0.602456 0)
(-0.0778445 0.599626 0)
(-0.0255527 0.607183 0)
(0.025642 0.607099 0)
(0.077974 0.599401 0)
(0.127269 0.602031 0)
(0.17385 0.600654 0)
(0.215773 0.599242 0)
(0.252803 0.597272 0)
(0.287215 0.596445 0)
(0.317297 0.595267 0)
(0.349174 0.596316 0)
(0.375226 0.593611 0)
(0.408206 0.595664 0)
(0.431253 0.592002 0)
(0.463008 0.5942 0)
(0.484716 0.591471 0)
(0.51612 0.593097 0)
(0.53885 0.590698 0)
(0.56865 0.59079 0)
(0.580485 0.582534 0)
(0.619403 0.56991 0)
(0.933712 0.643106 0)
(-0.978585 0.595071 0)
(-0.594806 0.613907 0)
(-0.560543 0.637715 0)
(-0.551728 0.648934 0)
(-0.525449 0.649003 0)
(-0.503753 0.651579 0)
(-0.471404 0.649289 0)
(-0.449156 0.652058 0)
(-0.417501 0.651259 0)
(-0.391703 0.65336 0)
(-0.360908 0.65438 0)
(-0.332079 0.655805 0)
(-0.302182 0.65659 0)
(-0.274058 0.655304 0)
(-0.246901 0.651047 0)
(-0.216848 0.644837 0)
(-0.179322 0.637647 0)
(-0.134107 0.631186 0)
(-0.0826332 0.624621 0)
(-0.0266561 0.629487 0)
(0.0266678 0.629452 0)
(0.0826937 0.624503 0)
(0.134265 0.630953 0)
(0.179582 0.637191 0)
(0.217394 0.64417 0)
(0.247426 0.649848 0)
(0.275529 0.6541 0)
(0.30232 0.654148 0)
(0.334702 0.654172 0)
(0.360823 0.649953 0)
(0.395227 0.650115 0)
(0.418951 0.645122 0)
(0.452683 0.645148 0)
(0.4752 0.6407 0)
(0.508961 0.63976 0)
(0.531261 0.635426 0)
(0.559251 0.632299 0)
(0.568055 0.618688 0)
(0.597754 0.594077 0)
(0.973563 0.545928 0)
(-1.02178 1.02498 0)
(-0.553768 0.973869 0)
(-0.634195 0.942429 0)
(-0.642285 0.975017 0)
(-0.602853 1.00752 0)
(-0.584665 1.03012 0)
(-0.539859 1.05846 0)
(-0.516194 1.08021 0)
(-0.470515 1.10419 0)
(-0.442853 1.1244 0)
(-0.397053 1.14433 0)
(-0.36657 1.16261 0)
(-0.321991 1.17892 0)
(-0.28876 1.19537 0)
(-0.246094 1.20978 0)
(-0.210247 1.22455 0)
(-0.168888 1.2358 0)
(-0.127649 1.24504 0)
(-0.0800647 1.25014 0)
(-0.0270695 1.26549 0)
(0.02704 1.2655 0)
(0.0800471 1.25014 0)
(0.127645 1.24504 0)
(0.168894 1.2358 0)
(0.210297 1.22456 0)
(0.246108 1.20977 0)
(0.28895 1.19534 0)
(0.322032 1.17876 0)
(0.367107 1.1624 0)
(0.397305 1.14397 0)
(0.443705 1.1239 0)
(0.471388 1.10345 0)
(0.517595 1.07909 0)
(0.541789 1.05685 0)
(0.58753 1.02768 0)
(0.606541 1.004 0)
(0.648409 0.969698 0)
(0.640034 0.934678 0)
(0.560513 0.964982 0)
(1.01922 1.02481 0)
(-1.02178 -1.02498 0)
(-0.553768 -0.973869 0)
(-0.634195 -0.942429 0)
(-0.642285 -0.975017 0)
(-0.602853 -1.00752 0)
(-0.584665 -1.03012 0)
(-0.539859 -1.05846 0)
(-0.516194 -1.08021 0)
(-0.470515 -1.10419 0)
(-0.442853 -1.1244 0)
(-0.397053 -1.14433 0)
(-0.36657 -1.16261 0)
(-0.321991 -1.17892 0)
(-0.28876 -1.19537 0)
(-0.246094 -1.20978 0)
(-0.210247 -1.22455 0)
(-0.168888 -1.2358 0)
(-0.127649 -1.24504 0)
(-0.0800647 -1.25014 0)
(-0.0270695 -1.26549 0)
(0.02704 -1.2655 0)
(0.0800471 -1.25014 0)
(0.127645 -1.24504 0)
(0.168894 -1.2358 0)
(0.210297 -1.22456 0)
(0.246108 -1.20977 0)
(0.28895 -1.19534 0)
(0.322032 -1.17876 0)
(0.367107 -1.1624 0)
(0.397305 -1.14397 0)
(0.443705 -1.1239 0)
(0.471388 -1.10345 0)
(0.517595 -1.07909 0)
(0.541789 -1.05685 0)
(0.58753 -1.02768 0)
(0.606541 -1.004 0)
(0.648409 -0.969698 0)
(0.640034 -0.934678 0)
(0.560513 -0.964982 0)
(1.01922 -1.02481 0)
(-0.978585 -0.595071 0)
(-0.594806 -0.613907 0)
(-0.560543 -0.637715 0)
(-0.551728 -0.648934 0)
(-0.525449 -0.649003 0)
(-0.503753 -0.651579 0)
(-0.471404 -0.649289 0)
(-0.449156 -0.652058 0)
(-0.417501 -0.651259 0)
(-0.391703 -0.65336 0)
(-0.360908 -0.65438 0)
(-0.332079 -0.655805 0)
(-0.302182 -0.65659 0)
(-0.274058 -0.655304 0)
(-0.246901 -0.651047 0)
(-0.216848 -0.644837 0)
(-0.179322 -0.637647 0)
(-0.134107 -0.631186 0)
(-0.0826332 -0.624621 0)
(-0.0266561 -0.629487 0)
(0.0266678 -0.629452 0)
(0.0826937 -0.624503 0)
(0.134265 -0.630953 0)
(0.179582 -0.637191 0)
(0.217394 -0.64417 0)
(0.247426 -0.649848 0)
(0.275529 -0.6541 0)
(0.30232 -0.654148 0)
(0.334702 -0.654172 0)
(0.360823 -0.649953 0)
(0.395227 -0.650115 0)
(0.418951 -0.645122 0)
(0.452683 -0.645148 0)
(0.4752 -0.6407 0)
(0.508961 -0.63976 0)
(0.531261 -0.635426 0)
(0.559251 -0.632299 0)
(0.568055 -0.618688 0)
(0.597754 -0.594077 0)
(0.973563 -0.545928 0)
(-0.955174 -0.680251 0)
(-0.61434 -0.596659 0)
(-0.566703 -0.61119 0)
(-0.553342 -0.616663 0)
(-0.525303 -0.612112 0)
(-0.503977 -0.611801 0)
(-0.474766 -0.605656 0)
(-0.454384 -0.605405 0)
(-0.426336 -0.602123 0)
(-0.401331 -0.60105 0)
(-0.373632 -0.600529 0)
(-0.344614 -0.599133 0)
(-0.316143 -0.598969 0)
(-0.285138 -0.598118 0)
(-0.251933 -0.598926 0)
(-0.214945 -0.600147 0)
(-0.17339 -0.601358 0)
(-0.126992 -0.602456 0)
(-0.0778445 -0.599626 0)
(-0.0255527 -0.607183 0)
(0.025642 -0.607099 0)
(0.077974 -0.599401 0)
(0.127269 -0.602031 0)
(0.17385 -0.600654 0)
(0.215773 -0.599242 0)
(0.252803 -0.597272 0)
(0.287215 -0.596445 0)
(0.317297 -0.595267 0)
(0.349174 -0.596316 0)
(0.375226 -0.593611 0)
(0.408206 -0.595664 0)
(0.431253 -0.592002 0)
(0.463008 -0.5942 0)
(0.484716 -0.591471 0)
(0.51612 -0.593097 0)
(0.53885 -0.590698 0)
(0.56865 -0.59079 0)
(0.580485 -0.582534 0)
(0.619403 -0.56991 0)
(0.933712 -0.643106 0)
(-0.99129 -0.681255 0)
(-0.6269 -0.589755 0)
(-0.573628 -0.600211 0)
(-0.555146 -0.602749 0)
(-0.524159 -0.596896 0)
(-0.501926 -0.597181 0)
(-0.473335 -0.591136 0)
(-0.452115 -0.590777 0)
(-0.427011 -0.589159 0)
(-0.400097 -0.5866 0)
(-0.374444 -0.58777 0)
(-0.343454 -0.585326 0)
(-0.315379 -0.586519 0)
(-0.284412 -0.586312 0)
(-0.25366 -0.587958 0)
(-0.217796 -0.588851 0)
(-0.1767 -0.589611 0)
(-0.130144 -0.590498 0)
(-0.0801419 -0.587859 0)
(-0.0264394 -0.595453 0)
(0.0267142 -0.595318 0)
(0.0805085 -0.587537 0)
(0.130781 -0.58987 0)
(0.177641 -0.588625 0)
(0.219226 -0.58755 0)
(0.255263 -0.585811 0)
(0.287428 -0.584141 0)
(0.317179 -0.58215 0)
(0.349337 -0.582327 0)
(0.376804 -0.579696 0)
(0.409764 -0.581217 0)
(0.433508 -0.577342 0)
(0.465039 -0.579264 0)
(0.487068 -0.576257 0)
(0.518442 -0.57782 0)
(0.541576 -0.5755 0)
(0.572947 -0.57696 0)
(0.588892 -0.57196 0)
(0.632324 -0.563095 0)
(0.967467 -0.651694 0)
(-1.02413 -0.636681 0)
(-0.632986 -0.565316 0)
(-0.574953 -0.577044 0)
(-0.554174 -0.578099 0)
(-0.521708 -0.572243 0)
(-0.498923 -0.573521 0)
(-0.47087 -0.568232 0)
(-0.447851 -0.566463 0)
(-0.425467 -0.566686 0)