/*--------------------------------*- C++ -*----------------------------------*\
| =========                 |                                                 |
| \\      /  F ield         | OpenFOAM: The Open Source CFD Toolbox           |
|  \\    /   O peration     | Version:  v1912                                 |
|   \\  /    A nd           | Website:  www.openfoam.com                      |
|    \\/     M anipulation  |                                                 |
\*---------------------------------------------------------------------------*/
FoamFile
{
    version     2.0;
    format      ascii;
    class       volScalarField;
    location    "2.04";
    object      T;
}
// * * * * * * * * * * * * * * * * * * * * * * * * * * * * * * * * * * * * * //

dimensions      [0 0 0 1 0 0 0];


internalField   nonuniform List<scalar> 
1900
(
1.05336
1.01885
1.01993
1.0204
1.02067
1.02107
1.02189
1.02314
1.02454
1.02665
1.05336
1.01885
1.01993
1.02039
1.02065
1.02104
1.02182
1.0229
1.02406
1.02623
1.05336
1.01885
1.01993
1.02039
1.02064
1.021
1.02181
1.02294
1.02427
1.02613
1.05336
1.01885
1.01993
1.02039
1.02065
1.02104
1.02182
1.0229
1.02406
1.02623
1.05336
1.01885
1.01993
1.0204
1.02067
1.02107
1.02189
1.02314
1.02454
1.02665
1.02573
1.02996
1.03412
1.03563
1.01276
1.0285
1.03267
1.03645
1.03967
1.03013
1.02826
1.03191
1.03519
1.03708
1.02649
1.0285
1.03267
1.03645
1.03967
1.03013
1.02573
1.02996
1.03412
1.03563
1.01276
1.06095
1.04847
1.0411
1.01847
0.977086
1.0557
1.04711
1.04035
1.02642
1.00254
1.05471
1.04687
1.03967
1.02707
1.00683
1.0557
1.04711
1.04035
1.02642
1.00254
1.06095
1.04847
1.0411
1.01847
0.977086
0.853515
0.787435
0.844352
0.858321
0.854745
0.855001
0.861379
0.869296
0.880616
0.893734
0.908642
0.924499
0.940735
0.956808
0.972046
0.985289
0.99468
0.999012
0.999944
1.00001
1.00001
0.999931
0.998884
0.994208
0.984293
0.970449
0.954525
0.937613
0.920242
0.902705
0.885201
0.867905
0.851002
0.834722
0.819496
0.80628
0.796597
0.786334
0.713066
0.606995
0.962918
0.833501
0.860339
0.860608
0.855734
0.855385
0.861418
0.869385
0.880668
0.893754
0.908648
0.924499
0.940733
0.956804
0.972042
0.985282
0.994674
0.999006
0.99994
1
1
0.999927
0.99888
0.994204
0.984289
0.970445
0.954522
0.93761
0.92024
0.902703
0.885199
0.867904
0.851001
0.834721
0.819496
0.80628
0.796597
0.786334
0.713066
0.606995
0.96676
0.86357
0.870209
0.862661
0.855989
0.855517
0.861446
0.86941
0.880684
0.893757
0.908646
0.924495
0.940729
0.9568
0.972037
0.985278
0.994671
0.999004
0.999938
1
1
0.999925
0.998878
0.994202
0.984287
0.970443
0.95452
0.937608
0.920239
0.902702
0.885198
0.867903
0.851001
0.834721
0.819495
0.80628
0.796597
0.786334
0.713066
0.606995
0.962918
0.833501
0.860339
0.860608
0.855734
0.855385
0.861418
0.869385
0.880668
0.893754
0.908648
0.924499
0.940733
0.956804
0.972042
0.985282
0.994674
0.999006
0.99994
1
1
0.999927
0.99888
0.994204
0.984289
0.970445
0.954522
0.93761
0.92024
0.902703
0.885199
0.867904
0.851001
0.834721
0.819496
0.80628
0.796597
0.786334
0.713066
0.606995
0.853515
0.787435
0.844352
0.858321
0.854745
0.855001
0.861379
0.869296
0.880616
0.893734
0.908642
0.924499
0.940735
0.956808
0.972046
0.985289
0.99468
0.999012
0.999944
1.00001
1.00001
0.999931
0.998884
0.994208
0.984293
0.970449
0.954525
0.937613
0.920242
0.902705
0.885201
0.867905
0.851002
0.834722
0.819496
0.80628
0.796597
0.786334
0.713066
0.606995
0.660606
0.737625
0.832221
0.849978
0.851275
0.853665
0.860561
0.868814
0.880273
0.893538
0.908494
0.924371
0.940615
0.956694
0.971937
0.985184
0.994596
0.998957
0.999909
0.999976
0.999976
0.999899
0.998852
0.994177
0.984263
0.97042
0.954499
0.93759
0.920223
0.902689
0.885188
0.867896
0.850995
0.834717
0.819493
0.806278
0.796595
0.786333
0.713066
0.606995
0.586838
0.733592
0.822647
0.837748
0.84479
0.850373
0.858072
0.867307
0.879183
0.892805
0.9079
0.923839
0.940108
0.956198
0.971448
0.984711
0.994156
0.998555
0.99952
0.999589
0.999589
0.999512
0.998466
0.993794
0.983889
0.970063
0.954164
0.937281
0.919946
0.902445
0.884979
0.86772
0.850851
0.834602
0.819403
0.80621
0.796542
0.786296
0.713046
0.606993
0.586585
0.736594
0.815947
0.829866
0.838066
0.845402
0.853942
0.864263
0.876414
0.890348
0.9055
0.921409
0.937589
0.953573
0.968737
0.98196
0.991417
0.995849
0.996831
0.996902
0.996902
0.996826
0.995785
0.991136
0.981281
0.967532
0.951739
0.934986
0.9178
0.900466
0.883179
0.866105
0.849424
0.833361
0.818338
0.805307
0.795768
0.785686
0.712645
0.606936
0.591049
0.732724
0.807653
0.820442
0.829687
0.838374
0.847114
0.857724
0.870088
0.884017
0.899063
0.914772
0.930722
0.946487
0.961467
0.974561
0.983958
0.988382
0.989369
0.989441
0.989441
0.989366
0.98834
0.98375
0.974006
0.960417
0.944823
0.928305
0.911388
0.894352
0.877388
0.860662
0.844347
0.828663
0.814017
0.801357
0.792157
0.78256
0.710257
0.606261
0.594205
0.724083
0.797789
0.810109
0.817969
0.826297
0.835579
0.84667
0.859263
0.873236
0.88818
0.903698
0.919418
0.934955
0.949741
0.962691
0.971997
0.976378
0.977353
0.977424
0.977424
0.977352
0.976355
0.971861
0.962282
0.948899
0.933539
0.917282
0.900646
0.883914
0.867274
0.850892
0.834939
0.819627
0.805352
0.793062
0.784317
0.775283
0.704098
0.603226
0.599623
0.711208
0.785049
0.795379
0.80245
0.811051
0.821025
0.832579
0.845476
0.859559
0.874468
0.889858
0.90541
0.920776
0.935405
0.948214
0.957395
0.961691
0.962637
0.962705
0.962705
0.962637
0.961683
0.957319
0.947942
0.934788
0.919669
0.903658
0.887278
0.870807
0.854435
0.838328
0.822651
0.807607
0.793582
0.781546
0.773273
0.76457
0.694565
0.596332
0.589667
0.695681
0.768805
0.778907
0.785819
0.79448
0.805005
0.817011
0.830231
0.844455
0.859372
0.874688
0.890129
0.905367
0.919858
0.932515
0.941532
0.9457
0.9466
0.946662
0.946662
0.9466
0.9457
0.9415
0.932357
0.919448
0.904569
0.888795
0.872649
0.856409
0.840268
0.824387
0.808929
0.794072
0.780217
0.768361
0.760528
0.751883
0.683265
0.586148
0.580984
0.680753
0.752415
0.762277
0.768761
0.777404
0.788422
0.80085
0.814373
0.828735
0.843679
0.858952
0.874312
0.889444
0.903803
0.916287
0.925098
0.929096
0.929935
0.929991
0.929991
0.929936
0.929099
0.92509
0.916212
0.903563
0.888926
0.873382
0.857456
0.841432
0.825499
0.809823
0.794548
0.77984
0.766127
0.754414
0.746928
0.738148
0.671408
0.574185
0.570018
0.667037
0.736144
0.745449
0.751492
0.760236
0.771717
0.78455
0.798322
0.812818
0.827792
0.843044
0.85834
0.873373
0.887588
0.899871
0.908429
0.912223
0.91299
0.913039
0.913039
0.91299
0.912227
0.908434
0.899846
0.887471
0.873077
0.857758
0.842046
0.826224
0.810492
0.794993
0.779902
0.765306
0.751737
0.740154
0.732816
0.723837
0.659562
0.561866
0.557754
0.654039
0.719534
0.728138
0.734158
0.743198
0.755194
0.768339
0.782384
0.796962
0.811982
0.82721
0.842442
0.857365
0.871415
0.883463
0.891727
0.895288
0.895977
0.896018
0.896018
0.895977
0.895291
0.891735
0.883464
0.871376
0.857226
0.842127
0.82662
0.810999
0.795438
0.780141
0.76516
0.750738
0.737264
0.72582
0.718373
0.709243
0.64783
0.549227
0.545232
0.641203
0.702425
0.710583
0.717096
0.726681
0.73903
0.752549
0.766689
0.781418
0.796427
0.811632
0.826779
0.841572
0.855433
0.867211
0.875146
0.878453
0.879061
0.879095
0.879095
0.879061
0.878455
0.875152
0.867222
0.855433
0.84153
0.826647
0.811343
0.795895
0.780542
0.765333
0.750598
0.736198
0.722951
0.711521
0.703828
0.694561
0.63623
0.537627
0.531595
0.62839
0.685224
0.693437
0.7007
0.710923
0.723588
0.73716
0.751571
0.766247
0.781314
0.796442
0.811494
0.826133
0.839782
0.851263
0.858838
0.861878
0.862405
0.862432
0.862432
0.862405
0.861879
0.858842
0.851274
0.839796
0.826139
0.811466
0.796342
0.78109
0.765832
0.750888
0.736112
0.722025
0.708831
0.697406
0.689374
0.679928
0.624738
0.525705
0.519164
0.616094
0.668864
0.677464
0.6854
0.696226
0.708846
0.722686
0.736918
0.751754
0.766711
0.781798
0.796727
0.81121
0.824634
0.8358
0.842994
0.845759
0.846207
0.846228
0.846228
0.846207
0.845759
0.842995
0.835807
0.824649
0.811231
0.796746
0.781799
0.766666
0.75163
0.736661
0.722265
0.708133
0.695269
0.683764
0.675383
0.665831
0.613797
0.51528
0.506667
0.603837
0.65321
0.662518
0.670932
0.682464
0.695023
0.708813
0.72317
0.73784
0.752819
0.767811
0.782655
0.796993
0.810204
0.821049
0.827848
0.830336
0.830711
0.830727
0.830727
0.830711
0.830336
0.827848
0.821052
0.810213
0.797013
0.782685
0.767848
0.752854
0.737858
0.723153
0.708723
0.694836
0.682145
0.670317
0.661668
0.651809
0.602602
0.504497
0.497192
0.593549
0.639695
0.649286
0.658361
0.670092
0.682691
0.696383
0.710567
0.725218
0.740047
0.754924
0.769609
0.783786
0.796786
0.807315
0.81372
0.815941
0.81625
0.816262
0.816262
0.81625
0.815941
0.81372
0.807316
0.79679
0.783798
0.769633
0.754963
0.740101
0.725284
0.710643
0.696457
0.682751
0.670124
0.658309
0.649153
0.639314
0.593146
0.496139
0.487237
0.582788
0.626511
0.636432
0.646042
0.658632
0.671288
0.685359
0.69963
0.714275
0.729042
0.743771
0.758298
0.772282
0.785052
0.795259
0.801269
0.803232
0.803481
0.80349
0.80349
0.803481
0.803232
0.801269
0.795259
0.785053
0.772288
0.758312
0.743798
0.729084
0.714335
0.699711
0.685457
0.671407
0.658754
0.646163
0.636532
0.626509
0.582722
0.486889
0.483799
0.575807
0.616996
0.626602
0.636522
0.649627
0.662753
0.677129
0.691751
0.706716
0.721644
0.736341
0.750626
0.764229
0.776531
0.786256
0.791862
0.793613
0.79382
0.793826
0.793826
0.79382
0.793613
0.791862
0.786255
0.77653
0.764231
0.750632
0.736354
0.721667
0.706752
0.691806
0.677202
0.66285
0.649744
0.636661
0.626747
0.617109
0.575864
0.483672
0.483076
0.569696
0.608693
0.617518
0.626985
0.640241
0.653313
0.667858
0.682534
0.69762
0.71275
0.727729
0.742296
0.756036
0.768209
0.777495
0.782548
0.784002
0.784157
0.784161
0.784161
0.784157
0.784002
0.782548
0.777495
0.768208
0.756036
0.742298
0.727736
0.712764
0.697644
0.682571
0.667909
0.653384
0.640329
0.627094
0.617637
0.608799
0.56977
0.483051
0.458136
0.532781
0.570612
0.577192
0.584081
0.594896
0.604922
0.616486
0.628019
0.639907
0.651948
0.664091
0.67628
0.688228
0.699052
0.707166
0.711277
0.712324
0.712419
0.712421
0.712421
0.712419
0.712324
0.711277
0.707165
0.699051
0.688227
0.676278
0.66409
0.651949
0.639912
0.628029
0.616506
0.604954
0.594944
0.584146
0.577273
0.5707
0.532866
0.458175
0.406926
0.457203
0.483021
0.483914
0.486869
0.496563
0.505349
0.516522
0.527374
0.539796
0.551876
0.564854
0.577384
0.588947
0.597864
0.602824
0.604399
0.604616
0.604626
0.604626
0.604626
0.604626
0.604616
0.604399
0.602824
0.597864
0.588947
0.577384
0.564853
0.551876
0.539795
0.527372
0.51652
0.505347
0.496562
0.486868
0.483914
0.483025
0.457208
0.406928
0.406926
0.457203
0.483021
0.483914
0.486869
0.496563
0.505349
0.516522
0.527374
0.539796
0.551876
0.564854
0.577384
0.588947
0.597864
0.602824
0.604399
0.604616
0.604626
0.604626
0.604626
0.604626
0.604616
0.604399
0.602824
0.597864
0.588947
0.577384
0.564853
0.551876
0.539795
0.527372
0.51652
0.505347
0.496562
0.486868
0.483914
0.483025
0.457208
0.406928
0.458136
0.532781
0.570612
0.577192
0.584081
0.594896
0.604922
0.616486
0.628019
0.639907
0.651948
0.664091
0.67628
0.688228
0.699052
0.707166
0.711277
0.712324
0.712419
0.712421
0.712421
0.712419
0.712324
0.711277
0.707165
0.699051
0.688227
0.676278
0.66409
0.651949
0.639912
0.628029
0.616506
0.604954
0.594944
0.584146
0.577273
0.5707
0.532866
0.458175
0.483076
0.569696
0.608693
0.617518
0.626985
0.640241
0.653313
0.667858
0.682534
0.69762
0.71275
0.727729
0.742296
0.756036
0.768209
0.777495
0.782548
0.784002
0.784157
0.784161
0.784161
0.784157
0.784002
0.782548
0.777495
0.768208
0.756036
0.742298
0.727736
0.712764
0.697644
0.682571
0.667909
0.653384
0.640329
0.627094
0.617637
0.608799
0.56977
0.483051
0.483799
0.575807
0.616996
0.626602
0.636522
0.649627
0.662753
0.677129
0.691751
0.706716
0.721644
0.736341
0.750626
0.764229
0.776531
0.786256
0.791862
0.793613
0.79382
0.793826
0.793826
0.79382
0.793613
0.791862
0.786255
0.77653
0.764231
0.750632
0.736354
0.721667
0.706752
0.691806
0.677202
0.66285
0.649744
0.636661
0.626747
0.617109
0.575864
0.483672
0.487237
0.582788
0.626511
0.636432
0.646042
0.658632
0.671288
0.685359
0.69963
0.714275
0.729042
0.743771
0.758298
0.772282
0.785052
0.795259
0.801269
0.803232
0.803481
0.80349
0.80349
0.803481
0.803232
0.801269
0.795259
0.785053
0.772288
0.758312
0.743798
0.729084
0.714335
0.699711
0.685457
0.671407
0.658754
0.646163
0.636532
0.626509
0.582722
0.486889
0.497192
0.593549
0.639695
0.649286
0.658361
0.670092
0.682691
0.696383
0.710567
0.725218
0.740047
0.754924
0.769609
0.783786
0.796786
0.807315
0.81372
0.815941
0.81625
0.816262
0.816262
0.81625
0.815941
0.81372
0.807316
0.79679
0.783798
0.769633
0.754963
0.740101
0.725284
0.710643
0.696457
0.682751
0.670124
0.658309
0.649153
0.639314
0.593146
0.496139
0.506667
0.603837
0.65321
0.662518
0.670932
0.682464
0.695023
0.708813
0.72317
0.73784
0.752819
0.767811
0.782655
0.796993
0.810204
0.821049
0.827848
0.830336
0.830711
0.830727
0.830727
0.830711
0.830336
0.827848
0.821052
0.810213
0.797013
0.782685
0.767848
0.752854
0.737858
0.723153
0.708723
0.694836
0.682145
0.670317
0.661668
0.651809
0.602602
0.504497
0.519164
0.616094
0.668864
0.677464
0.6854
0.696226
0.708846
0.722686
0.736918
0.751754
0.766711
0.781798
0.796727
0.81121
0.824634
0.8358
0.842994
0.845759
0.846207
0.846228
0.846228
0.846207
0.845759
0.842995
0.835807
0.824649
0.811231
0.796746
0.781799
0.766666
0.75163
0.736661
0.722265
0.708133
0.695269
0.683764
0.675383
0.665831
0.613797
0.51528
0.531595
0.62839
0.685224
0.693437
0.7007
0.710923
0.723588
0.73716
0.751571
0.766247
0.781314
0.796442
0.811494
0.826133
0.839782
0.851263
0.858838
0.861878
0.862405
0.862432
0.862432
0.862405
0.861879
0.858842
0.851274
0.839796
0.826139
0.811466
0.796342
0.78109
0.765832
0.750888
0.736112
0.722025
0.708831
0.697406
0.689374
0.679928
0.624738
0.525705
0.545232
0.641203
0.702425
0.710583
0.717096
0.726681
0.73903
0.752549
0.766689
0.781418
0.796427
0.811632
0.826779
0.841572
0.855433
0.867211
0.875146
0.878453
0.879061
0.879095
0.879095
0.879061
0.878455
0.875152
0.867222
0.855433
0.84153
0.826647
0.811343
0.795895
0.780542
0.765333
0.750598
0.736198
0.722951
0.711521
0.703828
0.694561
0.63623
0.537627
0.557754
0.654039
0.719534
0.728138
0.734158
0.743198
0.755194
0.768339
0.782384
0.796962
0.811982
0.82721
0.842442
0.857365
0.871415
0.883463
0.891727
0.895288
0.895977
0.896018
0.896018
0.895977
0.895291
0.891735
0.883464
0.871376
0.857226
0.842127
0.82662
0.810999
0.795438
0.780141
0.76516
0.750738
0.737264
0.72582
0.718373
0.709243
0.64783
0.549227
0.570018
0.667037
0.736144
0.745449
0.751492
0.760236
0.771717
0.78455
0.798322
0.812818
0.827792
0.843044
0.85834
0.873373
0.887588
0.899871
0.908429
0.912223
0.91299
0.913039
0.913039
0.91299
0.912227
0.908434
0.899846
0.887471
0.873077
0.857758
0.842046
0.826224
0.810492
0.794993
0.779902
0.765306
0.751737
0.740154
0.732816
0.723837
0.659562
0.561866
0.580984
0.680753
0.752415
0.762277
0.768761
0.777404
0.788422
0.80085
0.814373
0.828735
0.843679
0.858952
0.874312
0.889444
0.903803
0.916287
0.925098
0.929096
0.929935
0.929991
0.929991
0.929936
0.929099
0.92509
0.916212
0.903563
0.888926
0.873382
0.857456
0.841432
0.825499
0.809823
0.794548
0.77984
0.766127
0.754414
0.746928
0.738148
0.671408
0.574185
0.589667
0.695681
0.768805
0.778907
0.785819
0.79448
0.805005
0.817011
0.830231
0.844455
0.859372
0.874688
0.890129
0.905367
0.919858
0.932515
0.941532
0.9457
0.9466
0.946662
0.946662
0.9466
0.9457
0.9415
0.932357
0.919448
0.904569
0.888795
0.872649
0.856409
0.840268
0.824387
0.808929
0.794072
0.780217
0.768361
0.760528
0.751883
0.683265
0.586148
0.599623
0.711208
0.785049
0.795379
0.80245
0.811051
0.821025
0.832579
0.845476
0.859559
0.874468
0.889858
0.90541
0.920776
0.935405
0.948214
0.957395
0.961691
0.962637
0.962705
0.962705
0.962637
0.961683
0.957319
0.947942
0.934788
0.919669
0.903658
0.887278
0.870807
0.854435
0.838328
0.822651
0.807607
0.793582
0.781546
0.773273
0.76457
0.694565
0.596332
0.594205
0.724083
0.797789
0.810109
0.817969
0.826297
0.835579
0.84667
0.859263
0.873236
0.88818
0.903698
0.919418
0.934955
0.949741
0.962691
0.971997
0.976378
0.977353
0.977424
0.977424
0.977352
0.976355
0.971861
0.962282
0.948899
0.933539
0.917282
0.900646
0.883914
0.867274
0.850892
0.834939
0.819627
0.805352
0.793062
0.784317
0.775283
0.704098
0.603226
0.591049
0.732724
0.807653
0.820442
0.829687
0.838374
0.847114
0.857724
0.870088
0.884017
0.899063
0.914772
0.930722
0.946487
0.961467
0.974561
0.983958
0.988382
0.989369
0.989441
0.989441
0.989366
0.98834
0.98375
0.974006
0.960417
0.944823
0.928305
0.911388
0.894352
0.877388
0.860662
0.844347
0.828663
0.814017
0.801357
0.792157
0.78256
0.710257
0.606261
0.586585
0.736594
0.815947
0.829866
0.838066
0.845402
0.853942
0.864263
0.876414
0.890348
0.9055
0.921409
0.937589
0.953573
0.968737
0.98196
0.991417
0.995849
0.996831
0.996902
0.996902
0.996826
0.995785
0.991136
0.981281
0.967532
0.951739
0.934986
0.9178
0.900466
0.883179
0.866105
0.849424
0.833361
0.818338
0.805307
0.795768
0.785686
0.712645
0.606936
0.586838
0.733592
0.822647
0.837748
0.84479
0.850373
0.858072
0.867307
0.879183
0.892805
0.9079
0.923839
0.940108
0.956198
0.971448
0.984711
0.994156
0.998555
0.99952
0.999589
0.999589
0.999512
0.998466
0.993794
0.983889
0.970063
0.954164
0.937281
0.919946
0.902445
0.884979
0.86772
0.850851
0.834602
0.819403
0.80621
0.796542
0.786296
0.713046
0.606993
0.660606
0.737625
0.832221
0.849978
0.851275
0.853665
0.860561
0.868814
0.880273
0.893538
0.908494
0.924371
0.940615
0.956694
0.971937
0.985184
0.994596
0.998957
0.999909
0.999976
0.999976
0.999899
0.998852
0.994177
0.984263
0.97042
0.954499
0.93759
0.920223
0.902689
0.885188
0.867896
0.850995
0.834717
0.819493
0.806278
0.796595
0.786333
0.713066
0.606995
)
;

boundaryField
{
    inlet
    {
        type            fixedValue;
        value           uniform 1;
    }
    outlet
    {
        type            zeroGradient;
    }
    obstacle
    {
        type            zeroGradient;
    }
    empty
    {
        type            empty;
    }
}


// ************************************************************************* //
