/*--------------------------------*- C++ -*----------------------------------*\
| =========                 |                                                 |
| \\      /  F ield         | OpenFOAM: The Open Source CFD Toolbox           |
|  \\    /   O peration     | Version:  v1912                                 |
|   \\  /    A nd           | Website:  www.openfoam.com                      |
|    \\/     M anipulation  |                                                 |
\*---------------------------------------------------------------------------*/
FoamFile
{
    version     2.0;
    format      ascii;
    class       volVectorField;
    location    "4.36";
    object      grad(rho);
}
// * * * * * * * * * * * * * * * * * * * * * * * * * * * * * * * * * * * * * //

dimensions      [1 -4 0 0 0 0 0];


internalField   nonuniform List<vector> 
1900
(
(147951 -0.291028 0)
(-119543 0.869005 0)
(-15248.4 0.362355 0)
(-3034.36 0.819237 0)
(-2245.63 2.00219 0)
(-2052.22 2.84786 0)
(-2096.62 7.18432 0)
(-2185.98 18.1968 0)
(-2038.84 -28.4816 0)
(-1334.07 -99.6289 0)
(147951 -0.278456 0)
(-119543 1.51732 0)
(-15248.5 0.702561 0)
(-3032.72 1.12687 0)
(-2243.6 1.27869 0)
(-2047.04 -2.37683 0)
(-2081.27 -5.0458 0)
(-2221.64 -4.78501 0)
(-2156.66 -63.3202 0)
(-1886.92 -130.379 0)
(147952 2.42295e-08 0)
(-119542 0 0)
(-15248.8 3.39284e-09 0)
(-3033.78 8.15348e-09 0)
(-2249.13 1.01608e-08 0)
(-2058.54 5.1692e-09 0)
(-2099.02 -1.26121e-09 0)
(-2244.25 -2.0961e-09 0)
(-2164.43 -1.98952e-09 0)
(-1913.17 4.79616e-10 0)
(147951 0.278456 0)
(-119543 -1.51732 0)
(-15248.5 -0.702561 0)
(-3032.72 -1.12687 0)
(-2243.6 -1.27869 0)
(-2047.04 2.37683 0)
(-2081.27 5.0458 0)
(-2221.64 4.78501 0)
(-2156.66 63.3202 0)
(-1886.92 130.379 0)
(147951 0.291028 0)
(-119543 -0.869005 0)
(-15248.4 -0.362355 0)
(-3034.36 -0.819237 0)
(-2245.63 -2.00219 0)
(-2052.22 -2.84786 0)
(-2096.62 -7.18432 0)
(-2185.98 -18.1968 0)
(-2038.84 28.4816 0)
(-1334.07 99.6289 0)
(-601.841 -522.606 1.35946e-11)
(-119.083 -850.987 -1.62612e-11)
(253.377 -1284.99 -2.0579e-11)
(1506.23 -1641.22 0)
(-3469.61 -6554.11 -8.94981e-11)
(-1362.96 -582.123 1.35002e-11)
(-602.448 -889.909 1.62612e-11)
(122.468 -1435.63 2.0579e-11)
(-17.5606 -1814.98 0)
(-3061.28 -5832.1 0)
(-1556.55 1.99518e-09 0)
(-987.062 1.09075e-09 0)
(-460.518 -3.60206e-09 0)
(-214.835 -5.8539e-09 0)
(-5405.03 -8.77605e-09 0)
(-1362.96 582.123 1.35002e-11)
(-602.448 889.909 1.62612e-11)
(122.468 1435.63 2.0579e-11)
(-17.5606 1814.98 0)
(-3061.28 5832.1 0)
(-601.841 522.606 -4.05951e-11)
(-119.083 850.987 -1.62612e-11)
(253.377 1284.99 -2.0579e-11)
(1506.23 1641.22 -5.62999e-11)
(-3469.61 6554.11 8.94981e-11)
(-12072.3 4088.7 3.38441e-11)
(-6430.89 1433.34 -2.73285e-11)
(-7850.43 769.574 0)
(-9590.22 850.2 1.83831e-11)
(-13656.2 440.209 -7.46287e-12)
(-9457.29 4199.66 -1.69836e-11)
(-7156.54 1228.94 1.36858e-11)
(-7934.55 721.464 0)
(-9674.76 577.476 -1.15098e-11)
(-13747.1 -472.138 1.86548e-12)
(-10028.9 -3.94746e-09 0)
(-7293.21 -3.87155e-09 0)
(-8036.66 2.30268e-09 0)
(-10114.3 -2.96059e-09 4.61088e-12)
(-13756 -9.24537e-09 -3.73096e-12)
(-9457.29 -4199.66 -1.69836e-11)
(-7156.54 -1228.94 1.36858e-11)
(-7934.55 -721.464 0)
(-9674.76 -577.476 -1.15098e-11)
(-13747.1 472.138 1.86548e-12)
(-12072.3 -4088.7 1.69836e-11)
(-6430.89 -1433.34 -4.31675e-14)
(-7850.43 -769.574 0)
(-9590.22 -850.2 2.56052e-14)
(-13656.2 -440.209 7.46287e-12)
(-17974.8 -5654 0)
(-8735.26 3335.57 0)
(1683.2 2687.9 0)
(177.512 1944.25 0)
(-1319.96 978.675 0)
(-1530.76 454.202 0)
(-1838.88 293.339 0)
(-1896.36 166.618 0)
(-1597.77 105.424 0)
(-1138.25 29.5632 0)
(-656.252 12.8455 0)
(-441.632 10.0901 0)
(-347.374 9.88285 0)
(-287.946 8.01341 0)
(-237.201 6.02986 0)
(-193.636 4.59542 0)
(-158.083 3.69526 0)
(-128.947 3.13574 0)
(-106.094 2.73878 0)
(-87.1199 2.43192 0)
(-69.87 2.15146 0)
(-57.1421 1.91935 0)
(-46.5278 1.77936 0)
(-36.3021 1.70593 0)
(-27.1455 1.70606 0)
(-18.401 1.76766 0)
(-10.6491 1.89181 0)
(-5.51326 1.97217 0)
(-2.74315 2.11321 0)
(-3.57453 1.71023 0)
(5.39385 1.70284 0)
(18.8447 1.5048 0)
(52.6792 1.7466 0)
(75.9621 4.90126 0)
(94.3771 6.16276 0)
(90.0871 13.0122 0)
(59.1826 12.0509 0)
(3170.75 19.6515 0)
(68253.6 -63.7209 0)
(-74849.9 -4496.36 0)
(-17575.4 569.941 0)
(-8765.09 5402.22 0)
(1338.85 3121.01 0)
(150.515 1508.2 0)
(-1438.36 687.977 0)
(-1613.82 242.455 0)
(-1870.7 147.715 0)
(-1920.76 76.868 0)
(-1612.65 28.6688 0)
(-1142.66 5.39586 0)
(-657.221 3.76959 0)
(-441.739 2.3471 0)
(-347.382 2.57527 0)
(-288.176 2.01899 0)
(-237.421 1.3721 0)
(-193.779 0.928674 0)
(-158.164 0.680016 0)
(-128.997 0.545749 0)
(-106.134 0.450365 0)
(-87.1625 0.360897 0)
(-69.9178 0.245644 0)
(-57.1835 0.121283 0)
(-46.5591 0.0317439 0)
(-36.329 -0.0412443 0)
(-27.1709 -0.102067 0)
(-18.4264 -0.154744 0)
(-10.6841 -0.193227 0)
(-5.55209 -0.2467 0)
(-2.82676 -0.234872 0)
(-3.66618 -0.34995 0)
(5.33558 -0.16933 0)
(18.8131 0.220496 0)
(52.9979 1.34717 0)
(76.5535 4.68785 0)
(95.5633 9.4829 0)
(91.2161 19.4287 0)
(59.9218 29.4911 0)
(3159.63 41.7168 0)
(68183.6 -27.433 0)
(-74803.2 2143.23 0)
(-16208.4 -2.47398e-08 0)
(-7993.13 -5.92657e-09 0)
(550.397 -7.79982e-09 0)
(-530.279 4.25841e-08 0)
(-1688.18 -4.57008e-09 0)
(-1687.92 -1.08035e-08 0)
(-1887.05 -1.96853e-08 0)
(-1930.99 -5.55838e-08 0)
(-1618.57 -3.64476e-08 0)
(-1145.49 -4.9092e-08 0)
(-657.139 -7.71908e-09 0)
(-441.979 -2.95521e-09 0)
(-347.47 -6.68556e-09 0)
(-288.296 -1.09488e-08 0)
(-237.518 -5.78123e-09 0)
(-193.837 3.0521e-09 0)
(-158.194 1.33711e-08 0)
(-129.013 7.63833e-09 0)
(-106.148 -8.59111e-09 0)
(-87.1794 -1.2709e-08 0)
(-69.9397 -6.18495e-09 0)
(-57.2043 -7.3961e-09 0)
(-46.5751 -1.7263e-08 0)
(-36.3411 -2.61286e-08 0)
(-27.1786 -4.50549e-09 0)
(-18.4275 3.57209e-08 0)
(-10.6759 6.74531e-08 0)
(-5.52537 7.31698e-08 0)
(-2.77318 5.74894e-08 0)
(-3.55546 -5.49056e-10 0)
(5.55979 -4.72511e-08 0)
(19.2859 -7.7756e-08 0)
(53.9788 1.01737e-08 0)
(78.3288 8.90439e-08 0)
(98.6653 1.33146e-07 0)
(95.9077 1.73857e-07 0)
(65.6664 2.00405e-08 0)
(3154.19 1.20841e-07 0)
(68864.9 -3.07019e-07 0)
(-75593.7 -6.59254e-07 0)
(-17575.4 -569.941 0)
(-8765.09 -5402.22 0)
(1338.85 -3121.01 0)
(150.515 -1508.2 0)
(-1438.36 -687.977 0)
(-1613.82 -242.455 0)
(-1870.7 -147.715 0)
(-1920.76 -76.868 0)
(-1612.65 -28.6688 0)
(-1142.66 -5.39586 0)
(-657.221 -3.76959 0)
(-441.739 -2.3471 0)
(-347.382 -2.57527 0)
(-288.176 -2.01899 0)
(-237.421 -1.3721 0)
(-193.779 -0.928674 0)
(-158.164 -0.680016 0)
(-128.997 -0.545749 0)
(-106.134 -0.450365 0)
(-87.1625 -0.360897 0)
(-69.9178 -0.245644 0)
(-57.1835 -0.121283 0)
(-46.5591 -0.031744 0)
(-36.329 0.0412441 0)
(-27.1709 0.102067 0)
(-18.4264 0.154744 0)
(-10.6841 0.193227 0)
(-5.55209 0.2467 0)
(-2.82676 0.234872 0)
(-3.66618 0.349949 0)
(5.33558 0.16933 0)
(18.8131 -0.220497 0)
(52.9979 -1.34717 0)
(76.5535 -4.68785 0)
(95.5633 -9.4829 0)
(91.2161 -19.4287 0)
(59.9218 -29.4911 0)
(3159.63 -41.7168 0)
(68183.6 27.433 0)
(-74803.2 -2143.23 0)
(-17974.8 5654 0)
(-8735.26 -3335.57 0)
(1683.2 -2687.9 0)
(177.512 -1944.25 0)
(-1319.96 -978.675 0)
(-1530.76 -454.202 0)
(-1838.88 -293.339 0)
(-1896.36 -166.618 0)
(-1597.77 -105.424 0)
(-1138.25 -29.5632 0)
(-656.252 -12.8455 0)
(-441.632 -10.0901 0)
(-347.374 -9.88285 0)
(-287.946 -8.01341 0)
(-237.201 -6.02986 0)
(-193.636 -4.59542 0)
(-158.083 -3.69526 0)
(-128.947 -3.13574 0)
(-106.094 -2.73878 0)
(-87.1199 -2.43192 0)
(-69.87 -2.15146 0)
(-57.1421 -1.91935 0)
(-46.5278 -1.77936 0)
(-36.3021 -1.70593 0)
(-27.1455 -1.70606 0)
(-18.401 -1.76766 0)
(-10.6491 -1.89181 0)
(-5.51326 -1.97217 0)
(-2.74315 -2.11321 0)
(-3.57453 -1.71023 0)
(5.39385 -1.70284 0)
(18.8447 -1.5048 0)
(52.6792 -1.7466 0)
(75.9621 -4.90126 0)
(94.3771 -6.16276 0)
(90.0871 -13.0122 0)
(59.1826 -12.0509 0)
(3170.75 -19.6515 0)
(68253.6 63.7209 0)
(-74849.9 4496.36 0)
(30776.4 16429.4 0)
(-14032.2 -3420.95 0)
(1813.42 -3588.32 0)
(1191.45 -2653.09 0)
(-640.603 -1384.42 0)
(-1279.98 -791.203 0)
(-1727.1 -523.284 0)
(-1831.1 -312.132 0)
(-1543.87 -229.654 0)
(-1089.69 -69.8552 0)
(-646.125 -31.7353 0)
(-440.004 -23.3294 0)
(-346.088 -20.9945 0)
(-286.025 -16.9975 0)
(-235.532 -13.1104 0)
(-192.481 -10.3146 0)
(-157.343 -8.55215 0)
(-128.455 -7.43391 0)
(-105.739 -6.62735 0)
(-86.8434 -6.01102 0)
(-69.6516 -5.47947 0)
(-56.9979 -5.06135 0)
(-46.4615 -4.80407 0)
(-36.3141 -4.67528 0)
(-27.239 -4.70993 0)
(-18.5723 -4.89513 0)
(-10.8527 -5.23115 0)
(-5.73587 -5.53948 0)
(-2.75914 -5.91043 0)
(-3.51473 -5.42583 0)
(5.39708 -5.4291 0)
(18.7491 -5.12311 0)
(51.236 -5.79105 0)
(74.4673 -10.5221 0)
(91.8471 -11.9966 0)
(88.8281 -20.9896 0)
(56.612 -19.5075 0)
(3194.3 -33.0661 0)
(70935.5 -100.358 0)
(-77801.7 520.085 0)
(34794.1 17186.7 0)
(-25184.7 -2772.14 0)
(2353.32 -2083.32 0)
(1757.57 -2135.91 0)
(109.925 -1475.04 0)
(-835.415 -1042.48 0)
(-1437.17 -766.696 0)
(-1648.4 -486.848 0)
(-1393.21 -310.197 0)
(-973.566 -123.674 0)
(-616.849 -57.1558 0)
(-432.155 -39.2388 0)
(-341.962 -32.2695 0)
(-281.379 -25.5973 0)
(-231.656 -19.7244 0)
(-189.863 -15.6188 0)
(-155.703 -13.0347 0)
(-127.355 -11.3571 0)
(-104.913 -10.1057 0)
(-86.162 -9.12964 0)
(-69.072 -8.27108 0)
(-56.5686 -7.58078 0)
(-46.1913 -7.13963 0)
(-36.205 -6.889 0)
(-27.3073 -6.89114 0)
(-18.8114 -7.12956 0)
(-11.1609 -7.61616 0)
(-6.04846 -8.04381 0)
(-2.62506 -8.54115 0)
(-3.14277 -7.76885 0)
(5.68383 -7.66574 0)
(18.5472 -7.31082 0)
(48.2504 -8.50729 0)
(70.7837 -15.2919 0)
(85.6469 -18.2124 0)
(83.5245 -30.907 0)
(48.9236 -32.7175 0)
(3080.2 -50.2597 0)
(67348.5 -296.808 0)
(-73781.6 -5151.83 0)
(39311.7 10410.8 0)
(-32601.5 -1171.84 0)
(2426.51 -1122.21 0)
(1777.62 -1431.38 0)
(413.069 -1261.83 0)
(-597.392 -1081.46 0)
(-1191.67 -899.958 0)
(-1391.2 -593.46 0)
(-1193.9 -357.13 0)
(-845.849 -169.02 0)
(-564.761 -86.0377 0)
(-416.023 -58.1017 0)
(-332.943 -44.6253 0)
(-273.936 -34.3434 0)
(-225.917 -26.2583 0)
(-186.034 -20.7817 0)
(-153.237 -17.264 0)
(-125.632 -14.8686 0)
(-103.592 -13.0211 0)
(-85.0755 -11.5787 0)
(-68.159 -10.327 0)
(-55.9076 -9.33793 0)
(-45.7949 -8.7309 0)
(-36.0747 -8.41522 0)
(-27.4708 -8.48597 0)
(-19.271 -8.91339 0)
(-11.7337 -9.72465 0)
(-6.62722 -10.392 0)
(-2.49418 -11.1689 0)
(-2.67116 -10.1249 0)
(5.83844 -10.0551 0)
(17.9382 -9.90009 0)
(43.5451 -11.8576 0)
(65.1151 -20.8935 0)
(76.7998 -25.133 0)
(74.8505 -40.1785 0)
(37.9631 -44.7274 0)
(2939.82 -59.0002 0)
(66019.5 -236.98 0)
(-72305.5 -2757.43 0)
(42141.3 6389.6 0)
(-36298.3 -271.89 0)
(2103.2 -612.592 0)
(1623.02 -1045.36 0)
(447.128 -1095.11 0)
(-486.7 -1059.32 0)
(-966.924 -907.865 0)
(-1125.31 -616.444 0)
(-984.208 -370.572 0)
(-712.332 -189.138 0)
(-509.964 -108.009 0)
(-392.248 -73.4412 0)
(-319.068 -54.1399 0)
(-263.68 -40.4045 0)
(-218.588 -30.4804 0)
(-181.196 -23.8941 0)
(-150.005 -19.5292 0)
(-123.267 -16.3936 0)
(-101.743 -13.8995 0)
(-83.5658 -11.9557 0)
(-66.9127 -10.2982 0)
(-55.0306 -9.01779 0)
(-45.3022 -8.27572 0)
(-35.969 -7.94672 0)
(-27.7874 -8.15546 0)
(-20.0051 -8.84121 0)
(-12.5857 -10.0435 0)
(-7.44015 -10.9422 0)
(-2.36774 -12.0504 0)
(-2.06949 -10.9091 0)
(5.9005 -11.0254 0)
(16.8102 -11.3792 0)
(37.6567 -14.4691 0)
(57.9911 -25.2505 0)
(67.0632 -31.347 0)
(64.6426 -46.9542 0)
(30.7863 -55.0554 0)
(2894.94 -61.3307 0)
(64748.2 -190.329 0)
(-70929.4 -2721.89 0)
(45049.3 5328.36 0)
(-39349.1 -35.6798 0)
(1681.17 -421.546 0)
(1312.65 -882.394 0)
(399.616 -993.257 0)
(-416.959 -985.176 0)
(-764.903 -821.569 0)
(-873.448 -582.176 0)
(-782.132 -346.484 0)
(-592.834 -194.401 0)
(-453.271 -119.115 0)
(-364.113 -82.2866 0)
(-301.107 -59.4108 0)
(-251.136 -43.5267 0)
(-210.007 -32.5598 0)
(-175.481 -25.2226 0)
(-146.009 -20.123 0)
(-120.207 -16.252 0)
(-99.3158 -13.0872 0)
(-81.6051 -10.6244 0)
(-65.3279 -8.55626 0)
(-53.9586 -6.99336 0)
(-44.7627 -6.14248 0)
(-35.9588 -5.83491 0)
(-28.3327 -6.20142 0)
(-21.0904 -7.10457 0)
(-13.7583 -8.61169 0)
(-8.56111 -9.49512 0)
(-2.46223 -10.6173 0)
(-1.68346 -8.89532 0)
(5.38544 -8.69589 0)
(14.6197 -9.0746 0)
(30.1782 -12.2905 0)
(48.851 -23.2797 0)
(55.8853 -29.7562 0)
(52.0042 -43.1074 0)
(24.1094 -51.2602 0)
(2809.46 -51.0518 0)
(63455.6 -202.105 0)
(-69496.2 -3214.88 0)
(47429.9 5780.23 0)
(-41839.1 -35.8716 0)
(1287.28 -439.268 0)
(1072.1 -765.087 0)
(348.084 -917.254 0)
(-321.255 -877.745 0)
(-578.579 -709.476 0)
(-667.497 -514.797 0)
(-610.534 -317.164 0)
(-493.231 -191.526 0)
(-401.927 -125.165 0)
(-334.715 -87.1899 0)
(-281.717 -62.3851 0)
(-237.805 -45.4054 0)
(-200.949 -33.8796 0)
(-169.211 -25.9218 0)
(-141.361 -20.0946 0)
(-116.487 -15.4673 0)
(-96.3199 -11.6093 0)
(-79.1996 -8.61884 0)
(-63.4137 -6.15066 0)
(-52.7045 -4.33168 0)
(-44.1858 -3.40764 0)
(-36.0258 -3.15445 0)
(-29.0108 -3.71728 0)
(-22.3277 -4.86267 0)
(-14.8893 -6.74091 0)
(-9.37286 -7.591 0)
(-1.78975 -8.83983 0)
(-0.217925 -6.79822 0)
(5.72774 -6.74912 0)
(13.3463 -7.7446 0)
(23.9681 -11.4345 0)
(41.1605 -23.0378 0)
(47.9565 -30.6359 0)
(43.9206 -41.5338 0)
(23.1308 -48.2958 0)
(2749.58 -40.6939 0)
(61699.4 -226.993 0)
(-67623.8 -3588.73 0)
(51008.8 1322.61 0)
(-45342.4 -151.512 0)
(978.475 -446.178 0)
(852.041 -687.814 0)
(291.055 -834.998 0)
(-216.736 -752.357 0)
(-415.153 -602.732 0)
(-495.402 -432.112 0)
(-470.616 -274.909 0)
(-407.817 -175.158 0)
(-352.729 -118.407 0)
(-303.616 -83.0108 0)
(-260.842 -59.7799 0)
(-223.668 -44.2346 0)
(-191.231 -33.6799 0)
(-162.198 -26.0168 0)
(-135.935 -20.0398 0)
(-112.031 -15.0136 0)
(-92.7164 -10.665 0)
(-76.3449 -7.24926 0)
(-61.1967 -4.41024 0)
(-51.3153 -2.28744 0)
(-43.6283 -1.1516 0)
(-36.2572 -0.699203 0)
(-29.9789 -1.04133 0)
(-24.0041 -1.80751 0)
(-16.3874 -3.17341 0)
(-10.5837 -2.55748 0)
(-1.69827 -2.50004 0)
(0.331223 0.794252 0)
(4.47347 1.55747 0)
(10.1046 0.716252 0)
(15.4411 -3.04 0)
(30.3479 -15.3513 0)
(38.062 -25.214 0)
(34.9864 -34.8574 0)
(24.9187 -41.4073 0)
(2637.26 -34.0422 0)
(60036.6 -322.491 0)
(-65837.7 -4136.3 0)
(48595.3 -3140.44 0)
(-43543.6 -261.662 0)
(770.479 -438.494 0)
(697.417 -612.366 0)
(285.888 -717.648 0)
(-97.4352 -622.212 0)
(-269.98 -502.46 0)
(-351.594 -356.95 0)
(-362.924 -237.599 0)
(-342.42 -160.147 0)
(-313.13 -112.227 0)
(-278.22 -80.3382 0)
(-244.351 -59.7763 0)
(-212.654 -45.9917 0)
(-183.394 -36.4016 0)
(-156.067 -28.9526 0)
(-130.758 -22.7763 0)
(-107.453 -17.3324 0)
(-88.8379 -12.4964 0)
(-73.1723 -8.67247 0)
(-58.6323 -5.48692 0)
(-49.5644 -3.07945 0)
(-42.6554 -1.74488 0)
(-35.9195 -1.08455 0)
(-30.0789 -1.20622 0)
(-24.3823 -1.57275 0)
(-15.612 -2.47272 0)
(-8.72398 -0.561591 0)
(1.44011 0.57717 0)
(3.69204 4.53709 0)
(5.65258 5.39017 0)
(8.91598 4.20754 0)
(8.48488 -0.35719 0)
(19.7928 -13.8501 0)
(29.1597 -28.2668 0)
(28.3162 -37.5662 0)
(23.9164 -44.7974 0)
(2478.72 -37.364 0)
(57746.3 -423.551 0)
(-63385.3 -4826.53 0)
(47446.1 -2387.5 0)
(-42738.7 -258.177 0)
(640.524 -396.176 0)
(583.038 -525.267 0)
(281.567 -591.003 0)
(-9.37245 -516.001 0)
(-159.537 -417.786 0)
(-240.172 -298.862 0)
(-280.97 -208.587 0)
(-287.005 -144.606 0)
(-275.822 -102.283 0)
(-253.072 -73.0088 0)
(-227.745 -55.334 0)
(-201.143 -43.7222 0)
(-174.812 -35.9113 0)
(-149.068 -29.6976 0)
(-124.737 -24.364 0)
(-102.125 -19.4346 0)
(-84.3714 -14.7779 0)
(-69.5903 -10.9016 0)
(-55.807 -7.36765 0)
(-47.7094 -4.3339 0)
(-41.706 -2.18628 0)
(-35.7381 -0.501749 0)
(-30.4493 0.444385 0)
(-25.2245 1.38747 0)
(-15.413 1.7504 0)
(-7.64472 4.99998 0)
(3.215 6.77366 0)
(4.9692 10.6622 0)
(4.15591 11.0291 0)
(4.56628 8.90759 0)
(-1.95989 2.86691 0)
(3.45322 -12.3435 0)
(15.2083 -32.5552 0)
(19.0569 -42.2951 0)
(25.1135 -51.5921 0)
(2272.28 -50.166 0)
(55421.6 -628.964 0)
(-60869.1 -5541.8 0)
(45981.1 -2846.62 0)
(-41624.7 -222.021 0)
(513.102 -341.867 0)
(509.675 -444.975 0)
(294.817 -476.456 0)
(69.4824 -428.721 0)
(-60.7364 -341.56 0)
(-150.002 -256.235 0)
(-214.278 -187.788 0)
(-239.982 -134.483 0)
(-244.136 -97.8131 0)
(-232.978 -71.2721 0)
(-216.129 -56.2175 0)
(-193.938 -45.7334 0)
(-169.879 -38.6438 0)
(-144.94 -32.7236 0)
(-120.868 -27.4648 0)
(-98.2155 -22.4262 0)
(-80.6152 -17.6335 0)
(-66.0316 -13.6876 0)
(-52.3035 -9.9454 0)
(-44.5714 -6.55561 0)
(-38.9626 -4.02369 0)
(-33.3845 -1.88354 0)
(-28.2583 -0.560935 0)
(-23.1237 0.931187 0)
(-12.1309 1.5709 0)
(-3.88338 4.87425 0)
(6.89642 6.0434 0)
(7.79275 8.79335 0)
(3.96178 7.62061 0)
(1.05057 3.80676 0)
(-11.9935 -3.31672 0)
(-14.3412 -18.9552 0)
(0.29724 -40.8404 0)
(9.97155 -49.6325 0)
(16.3318 -55.8376 0)
(1922.34 -59.4709 0)
(52454.4 -829.141 0)
(-57547.1 -6373.63 0)
(44407.2 -3463.2 0)
(-40325.1 -235.766 0)
(425.679 -313.357 0)
(453.342 -386.907 0)
(297.23 -390.918 0)
(120.618 -368.398 0)
(6.67621 -296.658 0)
(-91.9919 -235.627 0)
(-163.645 -182.274 0)
(-200.301 -132.639 0)
(-214.91 -98.3519 0)
(-212.989 -71.4746 0)
(-203.135 -56.1251 0)
(-184.208 -43.4783 0)
(-162.275 -34.2138 0)
(-138.295 -25.8981 0)
(-114.814 -18.5627 0)
(-92.6509 -12.004 0)
(-75.9505 -6.34726 0)
(-62.1817 -2.06192 0)
(-48.9344 1.86131 0)
(-42.003 5.27781 0)
(-37.2038 7.43311 0)
(-32.4013 8.84322 0)
(-27.7369 8.98123 0)
(-23.1702 8.97248 0)
(-11.6134 7.15574 0)
(-3.33486 7.52963 0)
(6.99158 5.40984 0)
(6.48906 4.82573 0)
(-0.649349 -0.549292 0)
(-5.97333 -9.70786 0)
(-23.8941 -23.1129 0)
(-32.7059 -44.6519 0)
(-14.3536 -73.9281 0)
(4.60504 -90.136 0)
(15.6329 -97.1731 0)
(1527.1 -110.034 0)
(49337.1 -996.239 0)
(-54030.3 -6998.14 0)
(42366.4 -4470.83 0)
(-38589.4 -273.77 0)
(367.457 -319.076 0)
(434.935 -356.61 0)
(312.653 -340.324 0)
(160.315 -320.393 0)
(67.2068 -262.443 0)
(-39.7777 -212.145 0)
(-115.035 -169.874 0)
(-159.111 -120.647 0)
(-185.196 -89.0625 0)
(-192.287 -62.4922 0)
(-189.151 -48.0706 0)
(-172.823 -33.9104 0)
(-152.938 -22.5462 0)
(-129.858 -12.0093 0)
(-107.479 -3.01705 0)
(-86.4443 4.65648 0)
(-71.0347 11.129 0)
(-58.1215 15.75 0)
(-45.2307 19.8193 0)
(-39.2022 23.2621 0)
(-35.5268 24.9878 0)
(-31.8927 25.5525 0)
(-28.1338 24.4063 0)
(-24.8828 23.0342 0)
(-13.5213 19.1166 0)
(-5.56579 17.4867 0)
(4.29084 13.0162 0)
(2.05031 9.79928 0)
(-10.0433 0.472806 0)
(-20.6926 -14.9027 0)
(-45.6668 -34.8863 0)
(-63.3086 -63.048 0)
(-43.5329 -97.5161 0)
(-12.4282 -120.428 0)
(-2.84266 -128.002 0)
(1055.97 -153.334 0)
(45816.7 -1003.87 0)
(-49949.2 -7811.6 0)
(39794.2 -5407.67 0)
(-36324.3 -283.103 0)
(345.851 -299.562 0)
(432.867 -289.947 0)
(332.13 -313.552 0)
(195.668 -300.538 0)
(110.988 -250.493 0)
(-2.78967 -210.012 0)
(-75.4742 -160.563 0)
(-122.428 -115.536 0)
(-158.87 -86.815 0)
(-173.487 -58.6146 0)
(-175.592 -42.2178 0)
(-159.612 -23.1218 0)
(-141.171 -6.98146 0)
(-119.476 8.80684 0)
(-98.7541 22.8404 0)
(-79.0193 35.2329 0)
(-65.2605 45.5317 0)
(-53.8074 52.3508 0)
(-41.6954 56.7464 0)
(-37.0225 58.5399 0)
(-34.9966 56.8266 0)
(-32.9616 53.0228 0)
(-30.1636 46.9403 0)
(-28.2676 41.0956 0)
(-16.9591 32.2654 0)
(-9.21339 25.9252 0)
(-0.416333 15.9465 0)
(-5.59825 7.34045 0)
(-24.4531 -6.3696 0)
(-40.0467 -26.1688 0)
(-70.2887 -50.0762 0)
(-93.0583 -83.8123 0)
(-69.6472 -123.496 0)
(-24.772 -162.139 0)
(-16.0764 -178.196 0)
(683.079 -198.549 0)
(41957.3 -840.022 0)
(-45613.4 -8556.21 0)
(36858.9 -6135.31 0)
(-33667 -323.229 0)
(360.861 -337.935 0)
(421.454 -291.241 0)
(302.447 -312.434 0)
(221.08 -278.049 0)
(154.44 -232.182 0)
(46.8823 -202.052 0)
(-23.994 -148.064 0)
(-88.0447 -103.905 0)
(-130.344 -71.6864 0)
(-149.311 -43.2412 0)
(-154.949 -27.1243 0)
(-138.868 -6.75543 0)
(-122.171 9.784 0)
(-101.12 27.5352 0)
(-82.0139 43.5367 0)
(-64.5782 57.2431 0)
(-54.5392 68.328 0)
(-47.3146 75.5349 0)
(-39.2667 80.2587 0)
(-39.1249 82.3677 0)
(-40.8433 80.4257 0)
(-41.4195 75.9358 0)
(-39.6273 68.632 0)
(-39.024 61.9308 0)
(-28.14 51.8641 0)
(-21.2913 43.6442 0)
(-13.6181 29.2879 0)
(-19.4543 14.5557 0)
(-42.334 -4.06836 0)
(-62.8098 -32.0365 0)
(-101.214 -61.4381 0)
(-134.059 -103.358 0)
(-119.012 -143.807 0)
(-65.139 -197.247 0)
(-37.9282 -238.698 0)
(418.211 -257.634 0)
(37763 -675.45 0)
(-40950.5 -9139.07 0)
(33558.5 -6776.3 0)
(-30737.7 -321.508 0)
(376.677 -330.048 0)
(457.441 -298.47 0)
(344.842 -292.573 0)
(273.001 -205.63 0)
(184.221 -186.249 0)
(78.2697 -164.331 0)
(19.1036 -98.4714 0)
(-48.8282 -75.7922 0)
(-100.412 -56.2627 0)
(-130.546 -33.7087 0)
(-140.433 -18.6623 0)
(-124.046 0.985886 0)
(-108.127 17.6036 0)
(-86.9508 36.8426 0)
(-70.1265 55.1887 0)
(-55.1295 71.617 0)
(-47.6338 85.0071 0)
(-42.3106 92.7412 0)
(-35.1112 96.4338 0)
(-36.8614 96.2521 0)
(-41.1946 91.2443 0)
(-44.3264 84.0404 0)
(-43.6593 74.6536 0)
(-44.4258 67.6529 0)
(-34.5807 58.5766 0)
(-30.9686 52.2641 0)
(-28.4471 40.5379 0)
(-37.7416 28.3682 0)
(-69.351 15.926 0)
(-95.3302 -9.32827 0)
(-139.016 -30.7613 0)
(-172.432 -76.1912 0)
(-160.122 -115.899 0)
(-116.212 -185.602 0)
(-74.2676 -230.66 0)
(262.209 -244.557 0)
(33398.8 -466.505 0)
(-36185.7 -9446.05 0)
(30036.6 -6136.83 0)
(-27455.2 -181.786 0)
(383.062 -197.794 0)
(457.566 -213.552 0)
(391.911 -191.047 0)
(323.538 -100.253 0)
(194.238 -105.265 0)
(131.468 -80.8966 0)
(61.3249 -11.2964 0)
(-47.3708 -38.9739 0)
(-89.7912 -24.6579 0)
(-113.078 -17.757 0)
(-121.516 -14.4045 0)
(-103.921 -0.974542 0)
(-87.6178 13.1599 0)
(-64.9019 34.2099 0)
(-48.504 54.6078 0)
(-35.8442 72.9175 0)
(-34.1831 85.4224 0)
(-36.3034 93.6803 0)
(-35.8835 99.2609 0)
(-44.1257 98.0396 0)
(-52.6109 90.5181 0)
(-57.4069 80.5621 0)
(-55.4189 67.897 0)
(-54.5165 59.128 0)
(-42.9692 49.8656 0)
(-38.6741 43.9368 0)
(-36.645 34.9052 0)
(-43.1712 24.8203 0)
(-78.6597 20.1774 0)
(-107.799 0.485575 0)
(-165.646 -9.25133 0)
(-216.101 -46.8009 0)
(-224.444 -85.8526 0)
(-175.726 -144.402 0)
(-94.7395 -180.69 0)
(190.942 -178.268 0)
(28896.1 -252.611 0)
(-31464.7 -8200.73 0)
(27625.7 -6012.88 0)
(-25014.7 31.2624 0)
(346.066 -23.757 0)
(463.943 -108.116 0)
(454.021 -109.286 0)
(355.663 -78.6933 0)
(202.874 -75.8874 0)
(168.822 -22.8137 0)
(59.5018 -20.1578 0)
(-61.7038 -32.8167 0)
(-79.9666 -12.1715 0)
(-120.665 -19.5039 0)
(-124.261 -22.3743 0)
(-97.4838 -15.8479 0)
(-74.2218 -8.17646 0)
(-47.0101 9.83789 0)
(-32.8264 27.2755 0)
(-25.4355 44.6775 0)
(-27.626 58.3541 0)
(-28.9753 66.4206 0)
(-30.9104 69.0706 0)
(-45.2864 66.2404 0)
(-58.0366 58.2129 0)
(-66.1249 50.6134 0)
(-64.314 41.889 0)
(-61.8014 38.9753 0)
(-49.2195 38.3209 0)
(-45.3851 34.8628 0)
(-46.8685 33.9805 0)
(-51.9338 22.4246 0)
(-92.8008 22.1067 0)
(-123.689 -1.09593 0)
(-184.583 -12.7308 0)
(-246.248 -39.1403 0)
(-254.174 -72.8703 0)
(-207.601 -90.5368 0)
(-106.902 -100.971 0)
(192.903 -81.6659 0)
(25668.1 -34.4225 0)
(-28282.3 -7830.64 0)
(24764.9 28759.8 0)
(-21683.9 2388.92 0)
(248.752 816.334 0)
(375.147 535.296 0)
(420.263 473.382 0)
(355.722 557.849 0)
(248.086 830.565 0)
(185.171 1302.88 0)
(51.6856 1740.19 0)
(-39.6749 2217.63 0)
(-76.9625 2606.37 0)
(-122.91 2877.66 0)
(-117.993 3092.3 0)
(-90.2394 3230.96 0)
(-62.866 3328.39 0)
(-30.739 3383.49 0)
(-14.9313 3432.09 0)
(-5.89576 3412.65 0)
(-13.2307 3433.08 0)
(-25.9765 3356.85 0)
(-36.0571 3354.9 0)
(-54.5886 3436.48 0)
(-67.6697 3420.86 0)
(-73.1372 3462.03 0)
(-66.6337 3403.59 0)
(-57.9549 3366.27 0)
(-46.9322 3265.59 0)
(-42.8566 3132.06 0)
(-48.631 2952.68 0)
(-54.6132 2651.18 0)
(-101.325 2332.92 0)
(-141.37 1805.17 0)
(-202.307 1343.4 0)
(-274.054 909.566 0)
(-273.972 596.76 0)
(-202.805 404.025 0)
(-86.1912 344.836 0)
(255.07 390.409 0)
(21428.9 1961.1 0)
(-24485.6 25572.5 0)
(56267.8 642289 0)
(-51942 57147.7 0)
(-1440.15 26985.7 0)
(133.461 31463.9 0)
(475.754 34937.4 0)
(699.858 39514.9 0)
(920.81 43731.8 0)
(1045.37 47802.4 0)
(940.995 51346.5 0)
(772.982 54745.1 0)
(556.056 57855.2 0)
(347.589 60545.5 0)
(216.194 63035.7 0)
(130.027 65141.3 0)
(72.7612 66939.2 0)
(52.9161 68460.9 0)
(-4.72972 69764.2 0)
(-24.4798 70855.6 0)
(-81.3978 71330.1 0)
(-104.311 71582.5 0)
(45.8325 71543.2 0)
(18.2677 71140.4 0)
(-33.4163 70681.4 0)
(-82.7664 69283.7 0)
(-156.597 68007.7 0)
(-194.776 66024.7 0)
(-274.912 64144.5 0)
(-346.923 61592.8 0)
(-510.26 59011.7 0)
(-649.157 55696.4 0)
(-908.045 52307.7 0)
(-1077.22 48497.2 0)
(-1047.62 44452.4 0)
(-965.741 40100.1 0)
(-741.332 35570.6 0)
(-450.364 30768.3 0)
(-120.023 27223 0)
(1750.39 22464.8 0)
(49934.5 50404.8 0)
(-53359 587484 0)
(693316 -717081 0)
(-614613 -61222.4 0)
(-24501.1 -31760.1 0)
(8037.72 -36016.9 0)
(8178.49 -39672 0)
(8830.3 -44731.4 0)
(8234.22 -49398 0)
(7523.04 -54075.4 0)
(6741.94 -58101.7 0)
(6232.32 -61826 0)
(5512.52 -65164.5 0)
(4869.16 -67917.4 0)
(4310.68 -70388 0)
(3671.37 -72465.9 0)
(3136.02 -74217.8 0)
(2691.55 -75714.3 0)
(2292.67 -77016.6 0)
(1503.08 -78087.4 0)
(687.242 -78554.4 0)
(179.374 -78725.4 0)
(-462.107 -78649.6 0)
(-885.142 -78249.1 0)
(-1856.79 -77729.4 0)
(-2649.59 -76257.3 0)
(-3207.13 -74872.9 0)
(-3780.62 -72771.3 0)
(-4317.72 -70762.9 0)
(-4989.07 -68056 0)
(-5730.58 -65296.8 0)
(-6514.83 -61663.1 0)
(-7038.78 -57948.1 0)
(-7711.03 -53515.9 0)
(-8294.01 -48915.1 0)
(-8832.87 -43906 0)
(-9266.48 -38813.6 0)
(-8246.83 -33614.4 0)
(-8087.71 -30042.5 0)
(22593.9 -25726.9 0)
(565902 -53844.8 0)
(-633230 -658662 0)
(693316 717081 0)
(-614613 61222.4 0)
(-24501.1 31760.1 0)
(8037.72 36016.9 0)
(8178.49 39672 0)
(8830.3 44731.4 0)
(8234.22 49398 0)
(7523.04 54075.4 0)
(6741.94 58101.7 0)
(6232.32 61826 0)
(5512.52 65164.5 0)
(4869.16 67917.4 0)
(4310.68 70388 0)
(3671.37 72465.9 0)
(3136.02 74217.8 0)
(2691.55 75714.3 0)
(2292.67 77016.6 0)
(1503.08 78087.4 0)
(687.242 78554.4 0)
(179.374 78725.4 0)
(-462.107 78649.6 0)
(-885.142 78249.1 0)
(-1856.79 77729.4 0)
(-2649.59 76257.3 0)
(-3207.13 74872.9 0)
(-3780.62 72771.3 0)
(-4317.72 70762.9 0)
(-4989.07 68056 0)
(-5730.58 65296.8 0)
(-6514.83 61663.1 0)
(-7038.78 57948.1 0)
(-7711.03 53515.9 0)
(-8294.01 48915.1 0)
(-8832.87 43906 0)
(-9266.48 38813.6 0)
(-8246.83 33614.4 0)
(-8087.71 30042.5 0)
(22593.9 25726.9 0)
(565902 53844.8 0)
(-633230 658662 0)
(56267.8 -642289 0)
(-51942 -57147.7 0)
(-1440.15 -26985.7 0)
(133.461 -31463.9 0)
(475.754 -34937.4 0)
(699.858 -39514.9 0)
(920.81 -43731.8 0)
(1045.37 -47802.4 0)
(940.995 -51346.5 0)
(772.982 -54745.1 0)
(556.056 -57855.2 0)
(347.589 -60545.5 0)
(216.194 -63035.7 0)
(130.027 -65141.3 0)
(72.7612 -66939.2 0)
(52.9161 -68460.9 0)
(-4.72972 -69764.2 0)
(-24.4798 -70855.6 0)
(-81.3978 -71330.1 0)
(-104.311 -71582.5 0)
(45.8325 -71543.2 0)
(18.2677 -71140.4 0)
(-33.4163 -70681.4 0)
(-82.7664 -69283.7 0)
(-156.597 -68007.7 0)
(-194.776 -66024.7 0)
(-274.912 -64144.5 0)
(-346.923 -61592.8 0)
(-510.26 -59011.7 0)
(-649.157 -55696.4 0)
(-908.045 -52307.7 0)
(-1077.22 -48497.2 0)
(-1047.62 -44452.4 0)
(-965.741 -40100.1 0)
(-741.332 -35570.6 0)
(-450.364 -30768.3 0)
(-120.023 -27223 0)
(1750.39 -22464.8 0)
(49934.5 -50404.8 0)
(-53359 -587484 0)
(24764.9 -28759.8 0)
(-21683.9 -2388.92 0)
(248.752 -816.334 0)
(375.147 -535.296 0)
(420.263 -473.382 0)
(355.722 -557.849 0)
(248.086 -830.565 0)
(185.171 -1302.88 0)
(51.6856 -1740.19 0)
(-39.6749 -2217.63 0)
(-76.9625 -2606.37 0)
(-122.91 -2877.66 0)
(-117.993 -3092.3 0)
(-90.2394 -3230.96 0)
(-62.866 -3328.39 0)
(-30.739 -3383.49 0)
(-14.9313 -3432.09 0)
(-5.89575 -3412.65 0)
(-13.2307 -3433.08 0)
(-25.9765 -3356.85 0)
(-36.0571 -3354.9 0)
(-54.5886 -3436.48 0)
(-67.6697 -3420.86 0)
(-73.1372 -3462.03 0)
(-66.6337 -3403.59 0)
(-57.9549 -3366.27 0)
(-46.9322 -3265.59 0)
(-42.8566 -3132.06 0)
(-48.631 -2952.68 0)
(-54.6132 -2651.18 0)
(-101.325 -2332.92 0)
(-141.37 -1805.17 0)
(-202.307 -1343.4 0)
(-274.054 -909.566 0)
(-273.972 -596.76 0)
(-202.805 -404.025 0)
(-86.1912 -344.836 0)
(255.07 -390.409 0)
(21428.9 -1961.1 0)
(-24485.6 -25572.5 0)
(27625.7 6012.88 0)
(-25014.7 -31.2624 0)
(346.066 23.757 0)
(463.943 108.116 0)
(454.021 109.286 0)
(355.663 78.6933 0)
(202.874 75.8874 0)
(168.822 22.8137 0)
(59.5018 20.1578 0)
(-61.7038 32.8167 0)
(-79.9666 12.1715 0)
(-120.665 19.5039 0)
(-124.261 22.3743 0)
(-97.4838 15.8479 0)
(-74.2218 8.17646 0)
(-47.0101 -9.83789 0)
(-32.8264 -27.2755 0)
(-25.4355 -44.6775 0)
(-27.626 -58.3541 0)
(-28.9753 -66.4206 0)
(-30.9104 -69.0706 0)
(-45.2864 -66.2404 0)
(-58.0366 -58.2129 0)
(-66.1249 -50.6134 0)
(-64.314 -41.889 0)
(-61.8014 -38.9753 0)
(-49.2195 -38.3209 0)
(-45.3851 -34.8628 0)
(-46.8685 -33.9805 0)
(-51.9338 -22.4246 0)
(-92.8008 -22.1067 0)
(-123.689 1.09593 0)
(-184.583 12.7308 0)
(-246.248 39.1403 0)
(-254.174 72.8703 0)
(-207.601 90.5368 0)
(-106.902 100.971 0)
(192.903 81.6659 0)
(25668.1 34.4225 0)
(-28282.3 7830.64 0)
(30036.6 6136.83 0)
(-27455.2 181.786 0)
(383.062 197.794 0)
(457.566 213.552 0)
(391.911 191.047 0)
(323.538 100.253 0)
(194.238 105.265 0)
(131.468 80.8966 0)
(61.3249 11.2964 0)
(-47.3708 38.9739 0)
(-89.7912 24.6579 0)
(-113.078 17.757 0)
(-121.516 14.4045 0)
(-103.921 0.974543 0)
(-87.6178 -13.1599 0)
(-64.9019 -34.2099 0)
(-48.504 -54.6078 0)
(-35.8442 -72.9175 0)
(-34.1831 -85.4224 0)
(-36.3034 -93.6803 0)
(-35.8835 -99.2609 0)
(-44.1257 -98.0396 0)
(-52.6109 -90.5181 0)
(-57.4069 -80.5621 0)
(-55.4189 -67.897 0)
(-54.5165 -59.128 0)
(-42.9692 -49.8656 0)
(-38.6741 -43.9368 0)
(-36.645 -34.9052 0)
(-43.1712 -24.8203 0)
(-78.6597 -20.1774 0)
(-107.799 -0.485577 0)
(-165.646 9.25133 0)
(-216.101 46.8009 0)
(-224.444 85.8526 0)
(-175.726 144.402 0)
(-94.7395 180.69 0)
(190.942 178.268 0)
(28896.1 252.611 0)
(-31464.7 8200.73 0)
(33558.5 6776.3 0)
(-30737.7 321.508 0)
(376.677 330.048 0)
(457.441 298.47 0)
(344.842 292.573 0)
(273.001 205.63 0)
(184.221 186.249 0)
(78.2697 164.331 0)
(19.1035 98.4714 0)
(-48.8282 75.7922 0)
(-100.412 56.2627 0)
(-130.546 33.7087 0)
(-140.433 18.6623 0)
(-124.046 -0.985885 0)
(-108.127 -17.6036 0)
(-86.9508 -36.8426 0)
(-70.1265 -55.1887 0)
(-55.1295 -71.617 0)
(-47.6338 -85.0071 0)
(-42.3106 -92.7412 0)
(-35.1112 -96.4338 0)
(-36.8614 -96.2521 0)
(-41.1946 -91.2443 0)
(-44.3264 -84.0404 0)
(-43.6594 -74.6536 0)
(-44.4258 -67.6529 0)
(-34.5807 -58.5766 0)
(-30.9686 -52.2641 0)
(-28.4471 -40.5379 0)
(-37.7416 -28.3682 0)
(-69.351 -15.926 0)
(-95.3302 9.32827 0)
(-139.016 30.7613 0)
(-172.432 76.1912 0)
(-160.122 115.899 0)
(-116.212 185.602 0)
(-74.2676 230.66 0)
(262.209 244.557 0)
(33398.8 466.505 0)
(-36185.7 9446.05 0)
(36858.9 6135.31 0)
(-33667 323.229 0)
(360.861 337.935 0)
(421.454 291.241 0)
(302.447 312.434 0)
(221.08 278.049 0)
(154.44 232.182 0)
(46.8823 202.052 0)
(-23.994 148.064 0)