/*--------------------------------*- C++ -*----------------------------------*\
| =========                 |                                                 |
| \\      /  F ield         | OpenFOAM: The Open Source CFD Toolbox           |
|  \\    /   O peration     | Version:  v1912                                 |
|   \\  /    A nd           | Website:  www.openfoam.com                      |
|    \\/     M anipulation  |                                                 |
\*---------------------------------------------------------------------------*/
FoamFile
{
    version     2.0;
    format      ascii;
    class       volScalarField;
    location    "4.36";
    object      rho;
}
// * * * * * * * * * * * * * * * * * * * * * * * * * * * * * * * * * * * * * //

dimensions      [1 -3 0 0 0 0 0];


internalField   nonuniform List<scalar> 
1900
(
39408.8
18181.5
15500.1
15131.8
14893.2
14682.7
14482.8
14263.3
14045.6
13855.6
39408.7
18181.6
15500.2
15131.9
14893.6
14683.2
14484.2
14267
14039.9
13835.6
39408.7
18181.8
15500.2
15132
14893.5
14682.2
14481.8
14262.4
14032.9
13829.5
39408.7
18181.6
15500.2
15131.9
14893.6
14683.2
14484.2
14267
14039.9
13835.6
39408.8
18181.5
15500.1
15131.8
14893.2
14682.7
14482.8
14263.3
14045.6
13855.6
13794.8
13743.1
13743.3
13708.8
13868
13698.6
13613.8
13589.1
13564.4
13500.9
13687.7
13607.9
13571
13549.1
13541.4
13698.6
13613.8
13589.1
13564.4
13500.9
13794.8
13743.1
13743.3
13708.8
13868
12316.4
11777.8
11146.4
10362.3
9416.34
12496.3
11852.3
11192.6
10420.1
9449.79
12501.2
11841.7
11189.7
10401.6
9380.45
12496.3
11852.3
11192.6
10420.1
9449.79
12316.4
11777.8
11146.4
10362.3
9416.34
7534.49
4882.06
5132.29
5344.94
5181.1
4981.95
4760.15
4476.26
4238.65
4036.87
3925.63
3856.4
3804.18
3760.88
3725
3695.65
3671.75
3652.17
3636.29
3623
3612.33
3603.78
3596.61
3590.99
3586.63
3583.52
3581.57
3580.59
3580.05
3579.84
3579.07
3581.32
3584.25
3595.81
3605.14
3621.76
3629.92
3638.04
4501.87
22407.8
7581.04
5022.53
5170.64
5390.72
5212.03
4995.17
4768.23
4480.72
4240.02
4037.24
3925.79
3856.51
3804.31
3760.98
3725.06
3695.69
3671.77
3652.19
3636.3
3623.01
3612.33
3603.78
3596.6
3590.98
3586.61
3583.5
3581.55
3580.56
3580.02
3579.79
3579.01
3581.25
3584.19
3595.83
3605.24
3622.11
3630.32
3638.59
4499.22
22389.1
7580.08
5314.24
5381.97
5465.6
5236.14
5001.35
4771.96
4482.41
4240.94
4037.31
3925.93
3856.59
3804.39
3761.04
3725.11
3695.72
3671.8
3652.22
3636.32
3623.03
3612.35
3603.79
3596.62
3590.99
3586.62
3583.51
3581.56
3580.58
3580.04
3579.81
3579.06
3581.34
3584.36
3596.19
3605.9
3623.32
3632.28
3641.38
4499.68
22579.2
7581.04
5022.53
5170.64
5390.72
5212.03
4995.17
4768.23
4480.72
4240.02
4037.24
3925.79
3856.51
3804.31
3760.98
3725.06
3695.69
3671.77
3652.19
3636.3
3623.01
3612.33
3603.78
3596.6
3590.98
3586.61
3583.5
3581.55
3580.56
3580.02
3579.79
3579.01
3581.25
3584.19
3595.83
3605.24
3622.11
3630.32
3638.59
4499.22
22389.1
7534.49
4882.06
5132.29
5344.94
5181.1
4981.95
4760.15
4476.26
4238.65
4036.87
3925.63
3856.4
3804.18
3760.88
3725
3695.65
3671.75
3652.17
3636.29
3623
3612.33
3603.78
3596.61
3590.99
3586.63
3583.52
3581.57
3580.59
3580.05
3579.84
3579.07
3581.32
3584.25
3595.81
3605.14
3621.76
3629.92
3638.04
4501.87
22407.8
8610.18
4609.56
4751.32
5108.26
5078.97
4932.09
4726.98
4457.14
4223.42
4032.57
3923.76
3854.89
3802.76
3759.72
3724.1
3694.94
3671.17
3651.67
3635.84
3622.6
3611.96
3603.44
3596.29
3590.67
3586.3
3583.17
3581.19
3580.19
3579.62
3579.43
3578.65
3580.92
3583.81
3595.01
3604.28
3620.26
3628.71
3635.83
4507.15
23143.1
11311.5
4121.63
4385.67
4768.8
4869
4799.02
4639.26
4403.8
4185.95
4020.67
3918.22
3851.03
3799.38
3756.99
3722
3693.29
3669.79
3650.47
3634.77
3621.62
3611.07
3602.63
3595.52
3589.92
3585.56
3582.41
3580.39
3579.34
3578.72
3578.62
3577.86
3580.19
3582.96
3593.45
3602.43
3617.01
3625.39
3630.46
4472.45
22151.3
13164.7
3874.95
4199.24
4542.24
4688.08
4655.83
4523.8
4328.12
4141.22
3999.8
3908.61
3844.49
3794.21
3752.93
3718.87
3690.8
3667.71
3648.66
3633.17
3620.18
3609.77
3601.43
3594.4
3588.84
3584.47
3581.29
3579.17
3578.06
3577.35
3577.37
3576.62
3578.98
3581.55
3590.95
3599.46
3612.07
3620.04
3622.51
4428.49
21777.9
14070.3
3811.1
4088.29
4389.48
4534.62
4512.44
4400.77
4246.53
4091.32
3975.88
3895.42
3835.64
3787.56
3747.89
3715.04
3687.78
3665.22
3646.53
3631.32
3618.55
3608.34
3600.15
3593.2
3587.69
3583.31
3580.05
3577.81
3576.59
3575.76
3575.94
3575.19
3577.56
3579.82
3587.92
3595.77
3606.36
3613.54
3614.83
4409.65
21420.6
14857.9
3802.9
4036.9
4265.22
4397.88
4375.11
4283.22
4164.77
4043.02
3949.68
3879.99
3825.03
3779.86
3742.22
3710.8
3684.47
3662.54
3644.32
3629.48
3617.01
3607.04
3599.04
3592.2
3586.73
3582.31
3578.94
3576.51
3575.16
3574.16
3574.48
3573.7
3575.96
3577.72
3584.26
3591.15
3599.63
3605.45
3606.26
4378.05
21056.6
15482.3
3801.64
3976.58
4155.64
4271.4
4251.37
4183.06
4092.26
3999.5
3924.36
3863.86
3813.83
3771.81
3736.36
3706.42
3681.1
3659.88
3642.22
3627.85
3615.74
3606.07
3598.3
3591.58
3586.15
3581.67
3578.17
3575.53
3574.07
3572.95
3573.58
3572.89
3575.16
3576.56
3581.75
3587.88
3594.94
3599.96
3601.3
4356.09
20568.6
16389.7
3793.39
3920.5
4062.47
4154.81
4142.51
4095.21
4028.34
3958.97
3898.92
3846.82
3801.92
3763.33
3730.19
3701.82
3677.6
3657.21
3640.22
3626.41
3614.72
3605.41
3597.9
3591.3
3585.9
3581.33
3577.65
3574.73
3573.15
3571.82
3572.68
3571.91
3573.91
3574.69
3578.16
3583.03
3588.62
3592.65
3595.48
4317.9
20105.6
15832.8
3761.49
3858.34
3973.37
4050.13
4051.99
4023.33
3977.75
3926.65
3877.94
3832.48
3791.83
3755.97
3724.64
3697.49
3674.2
3654.57
3638.25
3625.02
3613.82
3604.9
3597.69
3591.27
3585.96
3581.39
3577.69
3574.69
3573.4
3572.29
3573.79
3573.3
3575.35
3575.76
3577.68
3581.2
3585.7
3588.99
3592.28
4270.63
19472.5
15557.4
3724.05
3804.3
3900.19
3964.63
3977.62
3962.05
3933.75
3896.01
3856.49
3817.08
3780.63
3747.49
3718
3692.17
3669.93
3651.18
3635.63
3623.09
3612.43
3603.96
3597.08
3590.84
3585.61
3581.01
3577.24
3574.07
3573
3571.97
3573.88
3573.34
3575.03
3574.59
3574.49
3575.54
3578.67
3580.78
3585.57
4205.66
18826.5
15200.1
3693.08
3753.35
3834.18
3893.51
3915.25
3912.62
3898.55
3871.37
3839.62
3805.38
3772.49
3741.31
3713.05
3687.97
3666.33
3648.12
3633.1
3621.11
3610.93
3602.95
3596.54
3590.69
3585.83
3581.51
3578.06
3575.15
3574.72
3574.08
3576.62
3576.23
3577.71
3576.51
3574.41
3572.57
3574.49
3575.31
3578.98
4103.96
18003.9
14803.1
3665.21
3713.7
3782.28
3838.37
3864.01
3871.54
3865.85
3846.24
3820.85
3791.16
3761.75
3732.59
3705.89
3681.93
3661.26
3643.9
3629.69
3618.42
3608.8
3601.32
3595.34
3589.77
3585.11
3580.86
3577.48
3574.49
3574.29
3573.57
3576.21
3575.36
3576.03
3573.71
3569.46
3564.72
3565.52
3565.99
3569.82
3985.94
17137.5
14282.4
3630.6
3670.31
3731.65
3789.92
3817.63
3834.01
3836.11
3823.07
3804.47
3779.31
3753.55
3726.43
3701.53
3678.91
3659.47
3643.2
3629.91
3619.42
3610.38
3603.44
3597.94
3592.66
3588.17
3583.89
3580.43
3577.05
3576.72
3575.52
3577.9
3576.08
3575.13
3570.39
3562.58
3552.98
3550.6
3549.56
3549.82
3839.95
16149.4
13618.3
3592.67
3629.15
3687.77
3748.19
3779.11
3801.99
3809.63
3801.23
3788.88
3767.56
3745.19
3719.85
3696.9
3675.96
3658.08
3643.1
3630.92
3621.37
3612.97
3606.57
3601.51
3596.39
3591.88
3587.33
3583.59
3579.55
3578.92
3577.02
3578.81
3575.48
3572.08
3564.47
3552.76
3538.88
3533.6
3532.06
3529.18
3719.91
15067.4
12849.4
3555.57
3590.93
3654.81
3706.83
3737.98
3767.63
3780.46
3780.52
3773.86
3756.31
3738.01
3715.25
3695.4
3677.06
3661.8
3649.25
3639.25
3631.49
3624.25
3618.48
3613.45
3607.72
3602.22
3596.33
3591.33
3585.6
3583.59
3579.74
3579.84
3574.39
3568.2
3557.12
3540.37
3520.25
3507.64
3502.34
3497.21
3617.35
13882
11992.5
3507.01
3539.59
3610.6
3665.39
3705.43
3740.47
3756.09
3761.99
3761.34
3748.56
3733.73
3712.66
3695.11
3678.55
3665.37
3654.64
3646.09
3639.48
3632.99
3627.84
3623.33
3617.7
3612.01
3605.52
3600
3593.3
3590.49
3584.78
3582.67
3574.4
3563.6
3548.19
3525.37
3500.77
3481.33
3468.81
3460.91
3540.92
12645.6
11053.6
3470.38
3503.47
3575.72
3629.3
3683.49
3718.27
3736.91
3754.42
3753.77
3741.4
3729.08
3710.3
3695.66
3681.72
3671.57
3663.87
3658.23
3654.02
3648.83
3644.03
3638.96
3631.9
3624.49
3616.11
3609.25
3601.12
3597.44
3590.48
3587.36
3578.61
3565.73
3548.97
3520.18
3489.54
3458.45
3441.22
3432.4
3493.72
11378.8
10366.2
3458.84
3487.18
3554
3614.76
3678.86
3712.57
3734.65
3759
3751.01
3742.03
3729.02
3708.84
3694.85
3682.04
3674.44
3669.11
3665.41
3662.11
3657.82
3654.15
3649.31
3641.69
3633.35
3623.51
3615.67
3606.51
3602.13
3594.03
3589.24
3579.75
3563.72
3545.74
3512.96
3478.02
3443.07
3420.93
3413.67
3473.98
10472.4
9460.24
3478.66
3497.17
3547.07
3600.34
3662.64
3698.16
3730.86
3749.08
3745.08
3738.17
3723.91
3704.37
3691.46
3679.56
3674.18
3671.1
3670.07
3669.48
3666.43
3662.34
3656.51
3647.33
3637.91
3627.21
3619.58
3611.28
3606.68
3599.49
3593.3
3584.47
3565.44
3545.59
3509.8
3470.23
3434.46
3414.46
3410.76
3484.6
9303.71
17987.6
4091.9
3703.51
3695.86
3740.21
3826.69
3932.67
4079.91
4220.15
4338.69
4432.72
4491.6
4528.3
4551.05
4564.06
4571.06
4578.61
4569.76
4571.88
4547.38
4543.2
4559.98
4548.22
4550.79
4525.46
4507.73
4471.89
4432.13
4376.49
4291.81
4197.97
4042.09
3901.74
3754
3636.16
3550.13
3512.31
3517.13
3993.67
17249.1
179667
18622.8
10648.4
11885
12858.7
14134.1
15287.1
16398.5
17355.9
18252.5
19069.8
19768.5
20408.8
20953.9
21418.4
21816.3
22158.6
22446.8
22572
22635.8
22621.3
22508.7
22377.9
21998.1
21649.2
21116.1
20609.6
19928.8
19237.6
18352.9
17446
16417.2
15325.5
14136.3
12896.4
11588.1
10628.6
9363.93
16841.9
164987
179667
18622.8
10648.4
11885
12858.7
14134.1
15287.1
16398.5
17355.9
18252.5
19069.8
19768.5
20408.8
20953.9
21418.4
21816.3
22158.6
22446.8
22572
22635.8
22621.3
22508.7
22377.9
21998.1
21649.2
21116.1
20609.6
19928.8
19237.6
18352.9
17446
16417.2
15325.5
14136.3
12896.4
11588.1
10628.6
9363.93
16841.9
164987
17987.6
4091.9
3703.51
3695.86
3740.21
3826.69
3932.67
4079.91
4220.15
4338.69
4432.72
4491.6
4528.3
4551.05
4564.06
4571.06
4578.61
4569.76
4571.88
4547.38
4543.2
4559.98
4548.22
4550.79
4525.46
4507.73
4471.89
4432.13
4376.49
4291.81
4197.97
4042.09
3901.74
3754
3636.16
3550.13
3512.31
3517.13
3993.67
17249.1
9460.24
3478.66
3497.17
3547.07
3600.34
3662.64
3698.16
3730.86
3749.08
3745.08
3738.17
3723.91
3704.37
3691.46
3679.56
3674.18
3671.1
3670.07
3669.48
3666.43
3662.34
3656.51
3647.33
3637.91
3627.21
3619.58
3611.28
3606.68
3599.49
3593.3
3584.47
3565.44
3545.59
3509.8
3470.23
3434.46
3414.46
3410.76
3484.6
9303.71
10366.2
3458.84
3487.18
3554
3614.76
3678.86
3712.57
3734.65
3759
3751.01
3742.03
3729.02
3708.84
3694.85
3682.04
3674.44
3669.11
3665.41
3662.11
3657.82
3654.15
3649.31
3641.69
3633.35
3623.51
3615.67
3606.51
3602.13
3594.03
3589.24
3579.75
3563.72
3545.74
3512.96
3478.02
3443.07
3420.93
3413.67
3473.98
10472.4
11053.6
3470.38
3503.47
3575.72
3629.3
3683.49
3718.27
3736.91
3754.42
3753.77
3741.4
3729.08
3710.3
3695.66
3681.72
3671.57
3663.87
3658.23
3654.02
3648.83
3644.03
3638.96
3631.9
3624.49
3616.11
3609.25
3601.12
3597.44
3590.48
3587.36
3578.61
3565.73
3548.97
3520.18
3489.54
3458.45
3441.22
3432.4
3493.72
11378.8
11992.5
3507.01
3539.59
3610.6
3665.39
3705.43
3740.47
3756.09
3761.99
3761.34
3748.56
3733.73
3712.66
3695.11
3678.55
3665.37
3654.64
3646.09
3639.48
3632.99
3627.84
3623.33
3617.7
3612.01
3605.52
3600
3593.3
3590.49
3584.78
3582.67
3574.4
3563.6
3548.19
3525.37
3500.77
3481.33
3468.81
3460.91
3540.92
12645.6
12849.4
3555.57
3590.93
3654.81
3706.83
3737.98
3767.63
3780.46
3780.52
3773.86
3756.31
3738.01
3715.25
3695.4
3677.06
3661.8
3649.25
3639.25
3631.49
3624.25
3618.48
3613.45
3607.72
3602.22
3596.33
3591.33
3585.6
3583.59
3579.74
3579.84
3574.39
3568.2
3557.12
3540.37
3520.25
3507.64
3502.34
3497.21
3617.35
13882
13618.3
3592.67
3629.15
3687.77
3748.19
3779.11
3801.99
3809.63
3801.23
3788.88
3767.56
3745.19
3719.85
3696.9
3675.96
3658.08
3643.1
3630.92
3621.37
3612.97
3606.57
3601.51
3596.39
3591.88
3587.33
3583.59
3579.55
3578.92
3577.02
3578.81
3575.48
3572.08
3564.47
3552.76
3538.88
3533.6
3532.06
3529.18
3719.91
15067.4
14282.4
3630.6
3670.31
3731.65
3789.92
3817.63
3834.01
3836.11
3823.07
3804.47
3779.31
3753.55
3726.43
3701.53
3678.91
3659.47
3643.2
3629.91
3619.42
3610.38
3603.44
3597.94
3592.66
3588.17
3583.89
3580.43
3577.05
3576.72
3575.52
3577.9
3576.08
3575.13
3570.39
3562.58
3552.98
3550.6
3549.56
3549.82
3839.95
16149.4
14803.1
3665.21
3713.7
3782.28
3838.37
3864.01
3871.54
3865.85
3846.24
3820.85
3791.16
3761.75
3732.59
3705.89
3681.93
3661.26
3643.9
3629.69
3618.42
3608.8
3601.32
3595.34
3589.77
3585.11
3580.86
3577.48
3574.49
3574.29
3573.57
3576.21
3575.36
3576.03
3573.71
3569.46
3564.72
3565.52
3565.99
3569.82
3985.94
17137.5
15200.1
3693.08
3753.35
3834.18
3893.51
3915.25
3912.62
3898.55
3871.37
3839.62
3805.38
3772.49
3741.31
3713.05
3687.97
3666.33
3648.12
3633.1
3621.11
3610.93
3602.95
3596.54
3590.69
3585.83
3581.51
3578.06
3575.15
3574.72
3574.08
3576.62
3576.23
3577.71
3576.51
3574.41
3572.57
3574.49
3575.31
3578.98
4103.96
18003.9
15557.4
3724.05
3804.3
3900.19
3964.63
3977.62
3962.05
3933.75
3896.01
3856.49
3817.08
3780.63
3747.49
3718
3692.17
3669.93
3651.18
3635.63
3623.09
3612.43
3603.96
3597.08
3590.84
3585.61
3581.01
3577.24
3574.07
3573
3571.97
3573.88
3573.34
3575.03
3574.59
3574.49
3575.54
3578.67
3580.78
3585.57
4205.66
18826.5
15832.8
3761.49
3858.34
3973.37
4050.13
4051.99
4023.33
3977.75
3926.65
3877.94
3832.48
3791.83
3755.97
3724.64
3697.49
3674.2
3654.57
3638.25
3625.02
3613.82
3604.9
3597.69
3591.27
3585.96
3581.39
3577.69
3574.69
3573.4
3572.29
3573.79
3573.3
3575.35
3575.76
3577.68
3581.2
3585.7
3588.99
3592.28
4270.63
19472.5
16389.7
3793.39
3920.5
4062.47
4154.81
4142.51
4095.21
4028.34
3958.97
3898.92
3846.82
3801.92
3763.33
3730.19
3701.82
3677.6
3657.21
3640.22
3626.41
3614.72
3605.41
3597.9
3591.3
3585.9
3581.33
3577.65
3574.73
3573.15
3571.82
3572.68
3571.91
3573.91
3574.69
3578.16
3583.03
3588.62
3592.65
3595.48
4317.9
20105.6
15482.3
3801.64
3976.58
4155.64
4271.4
4251.37
4183.06
4092.26
3999.5
3924.36
3863.86
3813.83
3771.81
3736.36
3706.42
3681.1
3659.88
3642.22
3627.85
3615.74
3606.07
3598.3
3591.58
3586.15
3581.67
3578.17
3575.53
3574.07
3572.95
3573.58
3572.89
3575.16
3576.56
3581.75
3587.88
3594.94
3599.96
3601.3
4356.09
20568.6
14857.9
3802.9
4036.9
4265.22
4397.88
4375.11
4283.22
4164.77
4043.02
3949.68
3879.99
3825.03
3779.86
3742.22
3710.8
3684.47
3662.54
3644.32
3629.48
3617.01
3607.04
3599.04
3592.2
3586.73
3582.31
3578.94
3576.51
3575.16
3574.16
3574.48
3573.7
3575.96
3577.72
3584.26
3591.15
3599.63
3605.45
3606.26
4378.05
21056.6
14070.3
3811.1
4088.29
4389.48
4534.62
4512.44
4400.77
4246.53
4091.32
3975.88
3895.42
3835.64
3787.56
3747.89
3715.04
3687.78
3665.22
3646.53
3631.32
3618.55
3608.34
3600.15
3593.2
3587.69
3583.31
3580.05
3577.81
3576.59
3575.76
3575.94
3575.19
3577.56
3579.82
3587.92
3595.77
3606.36
3613.54
3614.83
4409.65
21420.6
13164.7
3874.95
4199.24
4542.24
4688.08
4655.83
4523.8
4328.12
4141.22
3999.8
3908.61
3844.49
3794.21
3752.93
3718.87
3690.8
3667.71
3648.66
3633.17
3620.18
3609.77
3601.43
3594.4
3588.84
3584.47
3581.29
3579.17
3578.06
3577.35
3577.37
3576.62
3578.98
3581.55
3590.95
3599.46
3612.07
3620.04
3622.51
4428.49
21777.9
11311.5
4121.63
4385.67
4768.8
4869
4799.02
4639.26
4403.8
4185.95
4020.67
3918.22
3851.03
3799.38
3756.99
3722
3693.29
3669.79
3650.47
3634.77
3621.62
3611.07
3602.63
3595.52
3589.92
3585.56
3582.41
3580.39
3579.34
3578.72
3578.62
3577.86
3580.19
3582.96
3593.45
3602.43
3617.01
3625.39
3630.46
4472.45
22151.3
8610.18
4609.56
4751.32
5108.26
5078.97
4932.09
4726.98
4457.14
4223.42
4032.57
3923.76
3854.89
3802.76
3759.72
3724.1
3694.94
3671.17
3651.67
3635.84
3622.6
3611.96
3603.44
3596.29
3590.67
3586.3
3583.17
3581.19
3580.19
3579.62
3579.43
3578.65
3580.92
3583.81
3595.01
3604.28
3620.26
3628.71
3635.83
4507.15
23143.1
)
;

boundaryField
{
    inlet
    {
        type            calculated;
        value           uniform 14000.1;
    }
    outlet
    {
        type            calculated;
        value           nonuniform List<scalar> 
165
(
2378.11
2932.35
3114.44
3146.28
3136.12
3120.38
3077.82
3115.31
3116.91
3124.21
3128.16
3131.12
3133.79
3134.38
3135.44
3131.98
3113.99
3064.27
3302.9
3813.99
3813.99
3245.39
2967.73
3018.18
3042.93
3053.48
3064.64
3074.22
3089.55
3103.67
3116.96
3130.99
3142.16
3150.75
3157.4
3161.54
3163.91
3161.7
3163.47
3160.48
3161.17
3166.35
3163.9
3170.36
3166.69
3169.74
3164.65
3163.02
3155.21
3151.97
3143.86
3138.78
3132.35
3127.62
3123.49
3115.18
3089.81
3031.72
3283.33
3845.26
3127.39
3166.91
3161.17
3162.32
3161.58
3164.09
3159.05
3156.09
3146.58
3141.22
3132.55
3126.68
3121.83
3119
3117.71
3109.88
3084.37
3027.38
3284.52
3845.26
3162.96
3158.71
3145.32
3158.71
3162.96
3845.26
3284.52
3027.38
3084.37
3109.88
3117.71
3119
3121.83
3126.68
3132.55
3141.22
3146.58
3156.09
3159.05
3164.09
3161.58
3162.32
3161.17
3166.91
3127.39
3813.99
3245.39
2967.73
3018.18
3042.93
3053.48
3064.64
3074.22
3089.55
3103.67
3116.96
3130.99
3142.16
3150.75
3157.4
3161.54
3163.91
3161.7
3163.47
3160.48
3161.17
3166.35
3163.9
3170.36
3166.69
3169.74
3164.65
3163.02
3155.21
3151.97
3143.86
3138.78
3132.35
3127.62
3123.49
3115.18
3089.81
3031.72
3283.33
3845.26
3813.99
3302.9
3064.27
3113.99
3131.98
3135.44
3134.38
3133.79
3131.12
3128.16
3124.21
3116.91
3115.31
3077.82
3120.38
3136.12
3146.28
3114.44
2932.35
2378.11
)
;
    }
    obstacle
    {
        type            calculated;
        value           nonuniform List<scalar> 
40
(
39408.8
18181.5
15500.1
15131.8
14893.2
14682.7
14482.8
14263.3
14045.6
13855.6
39408.8
18181.5
15500.1
15131.8
14893.2
14682.7
14482.8
14263.3
14045.6
13855.6
13794.8
13743.1
13743.3
13708.8
13868
13794.8
13743.1
13743.3
13708.8
13868
12316.4
11777.8
11146.4
10362.3
9416.34
12316.4
11777.8
11146.4
10362.3
9416.34
)
;
    }
    empty
    {
        type            empty;
    }
}


// ************************************************************************* //
