/*--------------------------------*- C++ -*----------------------------------*\
| =========                 |                                                 |
| \\      /  F ield         | OpenFOAM: The Open Source CFD Toolbox           |
|  \\    /   O peration     | Version:  v1912                                 |
|   \\  /    A nd           | Website:  www.openfoam.com                      |
|    \\/     M anipulation  |                                                 |
\*---------------------------------------------------------------------------*/
FoamFile
{
    version     2.0;
    format      ascii;
    class       volScalarField;
    location    "8.24";
    object      rho;
}
// * * * * * * * * * * * * * * * * * * * * * * * * * * * * * * * * * * * * * //

dimensions      [1 -3 0 0 0 0 0];


internalField   nonuniform List<scalar> 
1900
(
16471.1
11967.5
12386.3
12662.8
12682.3
12637.7
12557.9
12469.7
12396.3
12367.9
16471.1
11967.4
12386.2
12662.8
12682.4
12638.7
12559.2
12465.5
12402.1
12357.3
16471.1
11967.4
12386.2
12662.9
12682.6
12639.3
12558.5
12460.9
12390.9
12342.2
16471.1
11967.4
12386.2
12662.8
12682.4
12638.7
12559.2
12465.5
12402.1
12357.3
16471.1
11967.5
12386.3
12662.8
12682.3
12637.7
12557.9
12469.7
12396.3
12367.9
12504
12318.9
12179.4
11825
11676.2
12331.4
12207.2
12087.7
11746.4
11264.2
12301.8
12185.3
12085.6
11789.5
11334.6
12331.4
12207.2
12087.7
11746.4
11264.2
12504
12318.9
12179.4
11825
11676.2
6155.12
4177.83
3230.32
2713.9
2176.06
6797.65
4505.16
3414.38
2857.89
2278.03
6989.31
4463.65
3342.23
2799.28
2202.76
6797.65
4505.16
3414.38
2857.89
2278.03
6155.12
4177.83
3230.32
2713.9
2176.06
2436.26
2605.39
2598.14
2558.02
2489.56
2385.1
2273.15
2115.07
1892.99
1839.33
1965.04
2677.86
3153.29
3140.88
3034.11
2928.31
2887.28
2874.57
2874.32
2825.74
2653.33
2375.34
2000.48
1518.53
1120.7
989.644
964.329
948.68
940.031
977.987
1277.75
1662.12
1868.35
1993.21
2099.81
2192.74
2281.51
2397.74
2539.45
2670.07
2206.52
2333.7
2439.39
2416.28
2346.54
2234.46
2130.72
1988.95
1801.46
1762.39
1889.49
2591.62
3081.76
3082.87
2993.65
2903.02
2870.4
2867.42
2879.35
2828.31
2655.79
2377.66
2006.51
1524.13
1122.42
989.743
964.283
948.639
939.997
977.929
1277.73
1661.98
1868.12
1992.98
2099.63
2192.76
2281.66
2398.06
2540.1
2670.88
2156.71
2222.09
2347.56
2357.61
2317.44
2218.24
2112.11
1968.62
1783.57
1750.99
1874.95
2554.43
3061.62
3067.84
2981.67
2897.43
2867.38
2860.83
2886.5
2867.13
2693.56
2393.22
2009.22
1523.29
1122.07
989.735
964.269
948.626
939.989
977.915
1277.75
1661.94
1868.01
1992.87
2099.56
2192.78
2281.73
2398.08
2540.01
2670.71
2206.52
2333.7
2439.39
2416.28
2346.54
2234.46
2130.72
1988.95
1801.46
1762.39
1889.49
2591.62
3081.76
3082.87
2993.65
2903.02
2870.4
2867.42
2879.35
2828.31
2655.79
2377.66
2006.51
1524.13
1122.42
989.743
964.283
948.639
939.997
977.929
1277.73
1661.98
1868.12
1992.98
2099.63
2192.76
2281.66
2398.06
2540.1
2670.88
2436.26
2605.39
2598.14
2558.02
2489.56
2385.1
2273.15
2115.07
1892.99
1839.33
1965.04
2677.86
3153.29
3140.88
3034.11
2928.31
2887.28
2874.57
2874.32
2825.74
2653.33
2375.34
2000.48
1518.53
1120.7
989.644
964.329
948.68
940.031
977.987
1277.75
1662.12
1868.35
1993.21
2099.81
2192.74
2281.51
2397.74
2539.45
2670.07
3359.29
3144.93
2961.16
2847.62
2727.8
2614.11
2510.49
2354.01
2124.43
2030.17
2161.09
2909.98
3298.94
3275.55
3138.07
3022.27
2970.16
2932.26
2895.43
2814.13
2632.29
2360.17
1991.63
1508.09
1114.73
989.119
964.529
948.885
940.212
978.191
1277.68
1662.54
1869.14
1993.92
2100.24
2192.56
2280.74
2396.76
2537.98
2668.86
3952.27
3621.71
3311
3087.17
2901.29
2766.36
2651.76
2504.88
2322.49
2264.92
2443.16
3192.29
3442.77
3358.76
3110.44
2941.8
2884.55
2856.89
2837.56
2758.59
2572.57
2300.57
1936.56
1464.91
1099.43
988.126
964.999
949.386
940.697
978.702
1277.43
1663.55
1871.14
1996.05
2101.99
2193.34
2279.99
2394.62
2534.99
2666.49
4008.19
3850.18
3666.51
3455.94
3246.28
3046.66
2842.87
2676.53
2499.51
2451.33
2739.52
3377.28
3502.5
3370.72
3075.74
2918.21
2860.55
2821.14
2787.88
2693.33
2501.85
2230.8
1864.06
1404.99
1079.45
987.174
965.81
950.255
941.588
979.598
1277.03
1664.65
1873.75
1999.07
2104.75
2195.16
2280.26
2392.99
2532.82
2665.25
4009.02
3780.7
3582.33
3380.88
3184.09
2978.09
2727.25
2603.38
2582.05
2610.76
2925.52
3316.46
3383.78
3238.78
2983.21
2885.12
2821.07
2775.27
2727.59
2609.43
2407.04
2136.06
1770.34
1334.4
1059.06
986.859
967.091
951.631
943.125
981.189
1277.47
1666.91
1877.74
2003.47
2108.94
2198.22
2281.78
2392.29
2531.46
2664.53
3998.05
3799.29
3599.38
3396.42
3210.69
2998.33
2750.02
2671.31
2701.76
2850.66
3141.92
3325.59
3303.97
3062.48
2885.05
2823.4
2760
2720.03
2648.57
2503.2
2293.23
2024.4
1661.23
1259.67
1041.28
987.516
968.968
953.484
945.297
983.236
1277.46
1668.25
1880.77
2006.89
2112.42
2200.8
2283.07
2391.01
2529.57
2663.38
3955.78
3775.22
3586.82
3390.59
3200.36
2989.88
2845.72
2810.29
2819.11
2895.92
3090.84
3166.46
3032.47
2836.06
2798.35
2740.47
2690.83
2643.85
2543.32
2379.35
2168.93
1901.71
1541.72
1188.18
1028.11
988.822
970.88
955.396
947.619
985.784
1278.81
1670.58
1883.93
2009.7
2115.26
2202.96
2284.44
2390.19
2527.98
2662.45
3874.19
3698
3514.87
3326
3161.71
3009.21
2905.95
2873.97
2871.32
2897.03
2951.3
2880.26
2719.19
2703.12
2673.9
2631.93
2608.91
2543.56
2416.77
2245.02
2038.19
1768.44
1416.31
1126.33
1018.26
988.907
971.15
955.651
948.378
986.156
1275.49
1667.71
1882.45
2008.22
2114.23
2202.21
2284.03
2388.59
2525.97
2661.11
3727
3558.56
3388.02
3228.23
3088.79
2956.12
2856.74
2795
2758.1
2755.59
2710.6
2575.85
2543.54
2553.22
2549.3
2548.74
2511.04
2417.04
2275.27
2104.07
1898.7
1624.76
1297.32
1081.87
1012.17
988.26
970.671
955.472
948.887
986.862
1274.31
1670.32
1890.44
2016.93
2120.33
2204.74
2283.96
2387.29
2524.46
2660.11
3505.27
3354.72
3192.03
3034.72
2904.1
2803.22
2729.03
2660.35
2604.06
2542.52
2422.05
2365.17
2416.43
2460.22
2468.25
2453.17
2386.41
2270.54
2129.73
1970.76
1769.31
1490.53
1212.15
1067.39
1024.63
1004.02
986.875
972.366
966.877
1006.25
1299.22
1709.2
1937.79
2064.37
2164.98
2240.23
2303.86
2392.19
2524.1
2658.58
3237.07
3092.89
2940.24
2817.26
2724.46
2645.6
2557.09
2455.84
2370.35
2281.17
2233.66
2302.73
2368.41
2376.46
2376.58
2337.6
2258.96
2159.2
2040.89
1897.43
1702.5
1427.55
1204.57
1128.86
1105.16
1090.99
1078.17
1068.27
1066.63
1119.33
1469.94
1936.02
2169.05
2262.1
2312.94
2338.29
2367.66
2431.83
2536.45
2657.77
2990.6
2825.13
2689.69
2583.71
2485.68
2382.3
2277.39
2222.67
2205.77
2199.85
2231.68
2258.72
2274.82
2296.33
2302.15
2286.15
2246.43
2192.53
2132.81
2022.91
1813.21
1591.09
1478.67
1447.11
1435.82
1427.34
1417.15
1410.09
1415.48
1507.16
1941.79
2400.18
2596.46
2639.45
2642.18
2603.05
2545.59
2525.6
2575.76
2655.7
2763.3
2577.19
2427.94
2313.79
2219.12
2180.34
2182.75
2178.55
2165.38
2170.93
2186.34
2239.79
2313.32
2390.46
2459.6
2512.45
2545.99
2544.8
2474.94
2304.18
2057.25
1876.17
1814.31
1792.64
1776.25
1762.39
1746.85
1736.03
1747.8
1865.35
2296.86
2690.59
2858.68
2888.14
2899.08
2871.46
2789.13
2710.28
2679.76
2659.02
2602.39
2495.19
2406.69
2371.32
2355.09
2339.06
2295.31
2264.83
2269.92
2318.8
2438.92
2598.1
2763.41
2886.37
2942.46
2941.91
2895.3
2792.49
2603.04
2340.88
2121.51
2028.14
1996.24
1975.29
1955.33
1939.26
1922.11
1910.82
1928.15
2045.45
2441.8
2806.01
2978.1
3013.17
3038.12
3031.83
2962.61
2869.77
2790.1
2672.06
2654.86
2643.63
2670.13
2727.35
2795.85
2874.4
2958.68
3041.27
3076.44
3100.18
3151.68
3197.79
3220.41
3203.02
3139.51
3036.96
2906.85
2730.13
2489.77
2271.72
2166.6
2130.92
2110.15
2090.66
2071.16
2056.1
2040.04
2029.45
2048.73
2146.73
2482.07
2819.46
2997.96
3036.49
3067.35
3076.07
3023.17
2931.06
2837.54
2668.85
2744.58
2864.19
3024
3173.98
3317.61
3452.61
3597.92
3694.52
3688.41
3601.48
3484.75
3376.9
3269.57
3165.89
3071.37
2959.51
2791.55
2571.68
2377.18
2275.05
2239.99
2223.01
2205.31
2186.33
2167.94
2154.61
2140.91
2131.3
2149.39
2222.73
2491.53
2817.27
3012.62
3058.65
3088.64
3095.12
3043.65
2941.72
2822.46
2640.01
2813.56
2968.72
3164.71
3319.41
3459.65
3587.6
3731.95
3824.19
3813.02
3700.07
3513.76
3331.3
3185.88
3065.4
2944.61
2797.66
2614.42
2450.11
2358.74
2323.55
2311.92
2298.53
2280.78
2262.36
2245.61
2234.25
2223.18
2215.06
2225.88
2279.81
2472.44
2775.22
2991.18
3060.15
3087.24
3100.78
3059.81
2952.95
2810.39
2626.32
2768.58
2925.87
3113.01
3262.65
3411.73
3564.07
3733.98
3833.07
3808.18
3645.49
3396.58
3187.55
3043.31
2917.58
2773.34
2615.87
2484.56
2410.94
2381.66
2375.44
2370.04
2358.74
2343.04
2327.56
2314.01
2305.6
2297.67
2291.69
2293.42
2334.01
2450.06
2691.06
2912.78
3007.42
3034.55
3054.14
3030.97
2931.4
2770.85
2605.89
2707.76
2804.11
2987.77
3124.63
3278.88
3429.05
3580.85
3656.48
3609.19
3415.92
3167.33
2987.98
2863.35
2744.05
2616.1
2513.83
2458.16
2439.32
2441.8
2445.52
2444.6
2437.34
2425.64
2413.92
2403.48
2397.28
2391.63
2387.49
2385.33
2407.32
2472.36
2630.49
2819.43
2917.4
2935.06
2946.45
2928.3
2873.73
2746.9
2582.13
2949.75
2629.01
2826.69
2940.99
3086.09
3212.75
3319.9
3355.3
3285.01
3102.49
2927.37
2814.08
2730.92
2652.97
2581.8
2535.91
2521.07
2526.89
2536.79
2543.59
2546.24
2544.35
2539.26
2533.76
2528.66
2525.59
2522.5
2520.27
2518.69
2524.79
2551.55
2630.66
2749
2824.08
2819.47
2809.92
2771.77
2749.94
2691.27
2519.62
10120.1
2871.49
2710.9
2740.92
2832.97
2878.06
2887.45
2849.49
2771.69
2697.05
2654.66
2631.63
2611.88
2601.04
2601.59
2608.38
2616.51
2623.98
2629.96
2635.8
2641.52
2646.21
2649.61
2652.27
2654.08
2655.85
2656.44
2657.03
2657.2
2657.75
2657.1
2659.49
2667.57
2674.03
2647.15
2631.51
2611.59
2590.08
2525.41
3762.96
10120.1
2871.49
2710.9
2740.92
2832.97
2878.06
2887.45
2849.49
2771.69
2697.05
2654.66
2631.63
2611.88
2601.04
2601.59
2608.38
2616.51
2623.98
2629.96
2635.8
2641.52
2646.21
2649.61
2652.27
2654.08
2655.85
2656.44
2657.03
2657.2
2657.75
2657.1
2659.49
2667.57
2674.03
2647.15
2631.51
2611.59
2590.08
2525.41
3762.96
2949.75
2629.01
2826.69
2940.99
3086.09
3212.75
3319.9
3355.3
3285.01
3102.49
2927.37
2814.08
2730.92
2652.97
2581.8
2535.91
2521.07
2526.89
2536.79
2543.59
2546.24
2544.35
2539.26
2533.76
2528.66
2525.59
2522.5
2520.27
2518.69
2524.79
2551.55
2630.66
2749
2824.08
2819.47
2809.92
2771.77
2749.94
2691.27
2519.62
2707.76
2804.11
2987.77
3124.63
3278.88
3429.05
3580.85
3656.48
3609.19
3415.92
3167.33
2987.98
2863.35
2744.05
2616.1
2513.83
2458.16
2439.32
2441.8
2445.52
2444.6
2437.34
2425.64
2413.92
2403.48
2397.28
2391.63
2387.49
2385.33
2407.32
2472.36
2630.49
2819.43
2917.4
2935.06
2946.45
2928.3
2873.73
2746.9
2582.13
2768.58
2925.87
3113.01
3262.65
3411.73
3564.07
3733.98
3833.07
3808.18
3645.49
3396.58
3187.55
3043.31
2917.58
2773.34
2615.87
2484.56
2410.94
2381.66
2375.44
2370.04
2358.74
2343.04
2327.56
2314.01
2305.6
2297.67
2291.69
2293.42
2334.01
2450.06
2691.06
2912.78
3007.42
3034.55
3054.14
3030.97
2931.4
2770.85
2605.89
2813.56
2968.72
3164.71
3319.41
3459.65
3587.6
3731.95
3824.19
3813.02
3700.07
3513.76
3331.3
3185.88
3065.4
2944.61
2797.66
2614.42
2450.11
2358.74
2323.55
2311.92
2298.53
2280.78
2262.36
2245.61
2234.25
2223.18
2215.06
2225.88
2279.81
2472.44
2775.22
2991.18
3060.15
3087.24
3100.78
3059.81
2952.95
2810.39
2626.32
2744.58
2864.19
3024
3173.98
3317.61
3452.61
3597.92
3694.52
3688.41
3601.48
3484.75
3376.9
3269.57
3165.89
3071.37
2959.51
2791.55
2571.68
2377.18
2275.05
2239.99
2223.01
2205.31
2186.33
2167.94
2154.61
2140.91
2131.3
2149.39
2222.73
2491.53
2817.27
3012.62
3058.65
3088.64
3095.12
3043.65
2941.72
2822.46
2640.01
2654.86
2643.63
2670.13
2727.35
2795.85
2874.4
2958.68
3041.27
3076.44
3100.18
3151.68
3197.79
3220.41
3203.02
3139.51
3036.96
2906.85
2730.13
2489.77
2271.72
2166.6
2130.92
2110.15
2090.66
2071.16
2056.1
2040.04
2029.45
2048.73
2146.73
2482.07
2819.46
2997.96
3036.49
3067.35
3076.07
3023.17
2931.06
2837.54
2668.85
2602.39
2495.19
2406.69
2371.32
2355.09
2339.06
2295.31
2264.83
2269.92
2318.8
2438.92
2598.1
2763.41
2886.37
2942.46
2941.91
2895.3
2792.49
2603.04
2340.88
2121.51
2028.14
1996.24
1975.29
1955.33
1939.26
1922.11
1910.82
1928.15
2045.45
2441.8
2806.01
2978.1
3013.17
3038.12
3031.83
2962.61
2869.77
2790.1
2672.06
2763.3
2577.19
2427.94
2313.79
2219.12
2180.34
2182.75
2178.55
2165.38
2170.93
2186.34
2239.79
2313.32
2390.46
2459.6
2512.45
2545.99
2544.8
2474.94
2304.18
2057.25
1876.17
1814.31
1792.64
1776.25
1762.39
1746.85
1736.03
1747.8
1865.35
2296.86
2690.59
2858.68
2888.14
2899.08
2871.46
2789.13
2710.28
2679.76
2659.02
2990.6
2825.13
2689.69
2583.71
2485.68
2382.3
2277.39
2222.67
2205.77
2199.85
2231.68
2258.72
2274.82
2296.33
2302.15
2286.15
2246.43
2192.53
2132.81
2022.91
1813.21
1591.09
1478.67
1447.11
1435.82
1427.34
1417.15
1410.09
1415.48
1507.16
1941.79
2400.18
2596.46
2639.45
2642.18
2603.05
2545.59
2525.6
2575.76
2655.7
3237.07
3092.89
2940.24
2817.26
2724.46
2645.6
2557.09
2455.84
2370.35
2281.17
2233.66
2302.73
2368.41
2376.46
2376.58
2337.6
2258.96
2159.2
2040.89
1897.43
1702.5
1427.55
1204.57
1128.86
1105.16
1090.99
1078.17
1068.27
1066.63
1119.33
1469.94
1936.02
2169.05
2262.1
2312.94
2338.29
2367.66
2431.83
2536.45
2657.77
3505.27
3354.72
3192.03
3034.72
2904.1
2803.22
2729.03
2660.35
2604.06
2542.52
2422.05
2365.17
2416.43
2460.22
2468.25
2453.17
2386.41
2270.54
2129.73
1970.76
1769.31
1490.53
1212.15
1067.39
1024.63
1004.02
986.875
972.366
966.877
1006.25
1299.22
1709.2
1937.79
2064.37
2164.98
2240.23
2303.86
2392.19
2524.1
2658.58
3727
3558.56
3388.02
3228.23
3088.79
2956.12
2856.74
2795
2758.1
2755.59
2710.6
2575.85
2543.54
2553.22
2549.3
2548.74
2511.04
2417.04
2275.27
2104.07
1898.7
1624.76
1297.32
1081.87
1012.17
988.26
970.671
955.472
948.887
986.862
1274.31
1670.32
1890.44
2016.93
2120.33
2204.74
2283.96
2387.29
2524.46
2660.11
3874.19
3698
3514.87
3326
3161.71
3009.21
2905.95
2873.97
2871.32
2897.03
2951.3
2880.26
2719.19
2703.12
2673.9
2631.93
2608.91
2543.56
2416.77
2245.02
2038.19
1768.44
1416.31
1126.33
1018.26
988.907
971.15
955.651
948.378
986.156
1275.49
1667.71
1882.45
2008.22
2114.23
2202.21
2284.03
2388.59
2525.97
2661.11
3955.78
3775.22
3586.82
3390.59
3200.36
2989.88
2845.72
2810.29
2819.11
2895.92
3090.84
3166.46
3032.47
2836.06
2798.35
2740.47
2690.83
2643.85
2543.32
2379.35
2168.93
1901.71
1541.72
1188.18
1028.11
988.822
970.88
955.396
947.619
985.784
1278.81
1670.58
1883.93
2009.7
2115.26
2202.96
2284.44
2390.19
2527.98
2662.45
3998.05
3799.29
3599.38
3396.42
3210.69
2998.33
2750.02
2671.31
2701.76
2850.66
3141.92
3325.59
3303.97
3062.48
2885.05
2823.4
2760
2720.03
2648.57
2503.2
2293.23
2024.4
1661.23
1259.67
1041.28
987.516
968.968
953.484
945.297
983.236
1277.46
1668.25
1880.77
2006.89
2112.42
2200.8
2283.07
2391.01
2529.57
2663.38
4009.02
3780.7
3582.33
3380.88
3184.09
2978.09
2727.25
2603.38
2582.05
2610.76
2925.52
3316.46
3383.78
3238.78
2983.21
2885.12
2821.07
2775.27
2727.59
2609.43
2407.04
2136.06
1770.34
1334.4
1059.06
986.859
967.091
951.631
943.125
981.189
1277.47
1666.91
1877.74
2003.47
2108.94
2198.22
2281.78
2392.29
2531.46
2664.53
4008.19
3850.18
3666.51
3455.94
3246.28
3046.66
2842.87
2676.53
2499.51
2451.33
2739.52
3377.28
3502.5
3370.72
3075.74
2918.21
2860.55
2821.14
2787.88
2693.33
2501.85
2230.8
1864.06
1404.99
1079.45
987.174
965.81
950.255
941.588
979.598
1277.03
1664.65
1873.75
1999.07
2104.75
2195.16
2280.26
2392.99
2532.82
2665.25
3952.27
3621.71
3311
3087.17
2901.29
2766.36
2651.76
2504.88
2322.49
2264.92
2443.16
3192.29
3442.77
3358.76
3110.44
2941.8
2884.55
2856.89
2837.56
2758.59
2572.57
2300.57
1936.56
1464.91
1099.43
988.126
964.999
949.386
940.697
978.702
1277.43
1663.55
1871.14
1996.05
2101.99
2193.34
2279.99
2394.62
2534.99
2666.49
3359.29
3144.93
2961.16
2847.62
2727.8
2614.11
2510.49
2354.01
2124.43
2030.17
2161.09
2909.98
3298.94
3275.55
3138.07
3022.27
2970.16
2932.26
2895.43
2814.13
2632.29
2360.17
1991.63
1508.09
1114.73
989.119
964.529
948.885
940.212
978.191
1277.68
1662.54
1869.14
1993.92
2100.24
2192.56
2280.74
2396.76
2537.98
2668.86
)
;

boundaryField
{
    inlet
    {
        type            calculated;
        value           uniform 14000.1;
    }
    outlet
    {
        type            calculated;
        value           nonuniform List<scalar> 
165
(
3453.18
4081.61
4133.69
4132.99
4096.2
4046.35
3963.23
3813.98
3583.22
3304.53
3037.49
2834.73
2706.96
2612.26
2575.83
2563.69
2579.25
2605.36
2896.14
3901.55
3901.55
3155.06
2687.11
2638.78
2597.38
2555.06
2520.85
2505.73
2524.16
2567.03
2603.13
2629.1
2651.62
2671.03
2685.04
2693.08
2697.13
2700.06
2704.07
2709.09
2714.93
2721.39
2727.47
2732
2734.97
2736.68
2737.81
2738.17
2738.04
2736.18
2730.59
2713.09
2677.31
2625.09
2595.25
2582.65
2593.38
2626.82
2872.82
3530.94
2751.28
2750.51
2749.32
2747.68
2745.99
2744.48
2743.05
2741.33
2739.11
2734.17
2724.8
2699.75
2656.31
2606.58
2585.16
2577.86
2590.27
2626.71
2881.27
3530.94
2752.37
2752.67
2752.96
2752.67
2752.37
3530.94
2881.27
2626.71
2590.27
2577.86
2585.16
2606.58
2656.31
2699.75
2724.8
2734.17
2739.11
2741.33
2743.05
2744.48
2745.99
2747.68
2749.32
2750.51
2751.28
3901.55
3155.06
2687.11
2638.78
2597.38
2555.06
2520.85
2505.73
2524.16
2567.03
2603.13
2629.1
2651.62
2671.03
2685.04
2693.08
2697.13
2700.06
2704.07
2709.09
2714.93
2721.39
2727.47
2732
2734.97
2736.68
2737.81
2738.17
2738.04
2736.18
2730.59
2713.09
2677.31
2625.09
2595.25
2582.65
2593.38
2626.82
2872.82
3530.94
3901.55
2896.14
2605.36
2579.25
2563.69
2575.83
2612.26
2706.96
2834.73
3037.49
3304.53
3583.22
3813.98
3963.23
4046.35
4096.2
4132.99
4133.69
4081.61
3453.18
)
;
    }
    obstacle
    {
        type            calculated;
        value           nonuniform List<scalar> 
40
(
16471.1
11967.5
12386.3
12662.8
12682.3
12637.7
12557.9
12469.7
12396.3
12367.9
16471.1
11967.5
12386.3
12662.8
12682.3
12637.7
12557.9
12469.7
12396.3
12367.9
12504
12318.9
12179.4
11825
11676.2
12504
12318.9
12179.4
11825
11676.2
6155.12
4177.83
3230.32
2713.9
2176.06
6155.12
4177.83
3230.32
2713.9
2176.06
)
;
    }
    empty
    {
        type            empty;
    }
}


// ************************************************************************* //
