/*--------------------------------*- C++ -*----------------------------------*\
| =========                 |                                                 |
| \\      /  F ield         | OpenFOAM: The Open Source CFD Toolbox           |
|  \\    /   O peration     | Version:  v1912                                 |
|   \\  /    A nd           | Website:  www.openfoam.com                      |
|    \\/     M anipulation  |                                                 |
\*---------------------------------------------------------------------------*/
FoamFile
{
    version     2.0;
    format      ascii;
    class       volVectorField;
    location    "8.24";
    object      U;
}
// * * * * * * * * * * * * * * * * * * * * * * * * * * * * * * * * * * * * * //

dimensions      [0 1 -1 0 0 0 0];


internalField   nonuniform List<vector> 
1900
(
(-0.313901 -7.75333e-07 0)
(0.092095 4.05554e-07 0)
(0.108343 -4.87078e-06 0)
(0.104598 -5.88893e-06 0)
(0.102818 -1.25742e-05 0)
(0.104531 -4.05983e-05 0)
(0.10667 -0.000100705 0)
(0.110139 0.000333478 0)
(0.111552 0.00360807 0)
(0.100356 0.0120372 0)
(-0.313901 -9.38952e-07 0)
(0.0920988 6.31072e-07 0)
(0.108348 -8.62639e-09 0)
(0.104592 -2.81359e-06 0)
(0.102791 -1.52303e-05 0)
(0.104405 -6.92163e-05 0)
(0.106484 -0.000120389 0)
(0.109827 0.000333582 0)
(0.113787 0.0026868 0)
(0.114202 0.0120633 0)
(-0.313901 -2.16043e-14 0)
(0.0921012 -3.44353e-14 0)
(0.10835 1.03079e-14 0)
(0.104583 8.23122e-15 0)
(0.102768 -3.18225e-15 0)
(0.104344 2.2937e-15 0)
(0.106473 2.2368e-14 0)
(0.109967 1.22759e-14 0)
(0.114886 6.28089e-15 0)
(0.122294 -4.02176e-15 0)
(-0.313901 9.38952e-07 0)
(0.0920988 -6.31072e-07 0)
(0.108348 8.62641e-09 0)
(0.104592 2.81359e-06 0)
(0.102791 1.52303e-05 0)
(0.104405 6.92163e-05 0)
(0.106484 0.000120389 0)
(0.109827 -0.000333582 0)
(0.113787 -0.0026868 0)
(0.114202 -0.0120633 0)
(-0.313901 7.75333e-07 0)
(0.092095 -4.05554e-07 0)
(0.108343 4.87078e-06 0)
(0.104598 5.88893e-06 0)
(0.102818 1.25742e-05 0)
(0.104531 4.05983e-05 0)
(0.10667 0.000100705 0)
(0.110139 -0.000333478 0)
(0.111552 -0.00360807 0)
(0.100356 -0.0120372 0)
(0.102034 0.0399746 0)
(0.13946 0.0541064 0)
(0.186073 0.0790521 0)
(0.260807 0.120224 0)
(0.403856 0.175875 0)
(0.126907 0.0287909 0)
(0.151672 0.0298736 0)
(0.179903 0.0402145 0)
(0.240975 0.0621555 0)
(0.381773 0.10346 0)
(0.138191 -3.33012e-15 0)
(0.161076 -2.11645e-14 0)
(0.190846 1.13696e-14 0)
(0.252914 -1.26905e-14 0)
(0.392168 1.9565e-16 0)
(0.126907 -0.0287909 0)
(0.151672 -0.0298736 0)
(0.179903 -0.0402145 0)
(0.240975 -0.0621555 0)
(0.381773 -0.10346 0)
(0.102034 -0.0399746 0)
(0.13946 -0.0541064 0)
(0.186073 -0.0790521 0)
(0.260807 -0.120224 0)
(0.403856 -0.175875 0)
(0.851628 0.0322014 0)
(1.10957 -0.0520091 0)
(1.26168 -0.0833527 0)
(1.34524 -0.0954518 0)
(1.43422 -0.105861 0)
(0.822607 -0.0167745 0)
(1.12259 -0.0481548 0)
(1.29379 -0.0595563 0)
(1.37884 -0.0600103 0)
(1.46075 -0.0802538 0)
(0.818471 9.14527e-17 0)
(1.12674 6.09628e-15 0)
(1.28939 -4.71023e-15 0)
(1.37052 2.88208e-16 0)
(1.44813 2.15917e-16 0)
(0.822607 0.0167745 0)
(1.12259 0.0481548 0)
(1.29379 0.0595563 0)
(1.37884 0.0600103 0)
(1.46075 0.0802538 0)
(0.851628 -0.0322014 0)
(1.10957 0.0520091 0)
(1.26168 0.0833527 0)
(1.34524 0.0954518 0)
(1.43422 0.105861 0)
(1.46468 -0.00630632 0)
(1.50311 0.0383126 0)
(1.52163 0.0115319 0)
(1.53004 -0.00748549 0)
(1.54367 -0.0201959 0)
(1.56045 -0.0261832 0)
(1.57893 -0.0198409 0)
(1.60746 -0.0187624 0)
(1.6532 -0.0254497 0)
(1.6448 -0.00823671 0)
(1.59918 -0.000889412 0)
(1.40147 0.00387378 0)
(1.22975 -0.00374289 0)
(1.21631 -0.0048142 0)
(1.20459 -0.0175306 0)
(1.17419 -0.0411125 0)
(1.102 -0.0587258 0)
(1.01554 -0.0650878 0)
(0.936922 -0.0574269 0)
(0.858711 -0.0457727 0)
(0.780777 -0.0366683 0)
(0.697936 -0.0302062 0)
(0.590533 -0.0228893 0)
(0.421652 -0.0164878 0)
(0.236589 -0.011928 0)
(0.171019 -0.0100975 0)
(0.167748 -0.0098205 0)
(0.171164 -0.00975117 0)
(0.171402 -0.00962589 0)
(0.147515 -0.00958711 0)
(-0.0196399 -0.00998089 0)
(-0.176605 -0.0101779 0)
(-0.232654 -0.0101466 0)
(-0.255655 -0.0100664 0)
(-0.274352 -0.0101475 0)
(-0.292068 -0.0104328 0)
(-0.307109 -0.0117669 0)
(-0.319116 -0.0128336 0)
(-0.329442 -0.0132497 0)
(-0.341693 -0.0104543 0)
(1.46908 -0.00953035 0)
(1.46523 0.0349852 0)
(1.47278 0.0336396 0)
(1.49162 0.0116035 0)
(1.5103 -0.00782074 0)
(1.53304 -0.0256546 0)
(1.55674 -0.0256792 0)
(1.59242 -0.0250022 0)
(1.64034 -0.0286254 0)
(1.63655 -0.0162122 0)
(1.58946 -0.0086161 0)
(1.39152 0.00577304 0)
(1.23318 -0.00436465 0)
(1.22216 -0.00486706 0)
(1.21696 -0.00901049 0)
(1.18751 -0.0214697 0)
(1.11619 -0.0303817 0)
(1.02918 -0.0332153 0)
(0.946709 -0.0306008 0)
(0.871667 -0.0226501 0)
(0.79492 -0.0185541 0)
(0.707721 -0.0169078 0)
(0.59657 -0.0130603 0)
(0.425504 -0.00796917 0)
(0.238017 -0.00566232 0)
(0.171213 -0.00502823 0)
(0.167865 -0.0049141 0)
(0.171291 -0.00487928 0)
(0.171536 -0.00481367 0)
(0.147667 -0.00479486 0)
(-0.0194439 -0.0049809 0)
(-0.176232 -0.00507399 0)
(-0.232055 -0.00505039 0)
(-0.254793 -0.00501677 0)
(-0.273266 -0.00507151 0)
(-0.290951 -0.0052314 0)
(-0.306477 -0.00592804 0)
(-0.319661 -0.00647101 0)
(-0.330996 -0.00666172 0)
(-0.343474 -0.00523846 0)
(1.46782 -7.49268e-15 0)
(1.46174 -1.19479e-14 0)
(1.45124 -1.00906e-13 0)
(1.48096 -1.06308e-13 0)
(1.49542 -1.00378e-13 0)
(1.52116 -8.98982e-14 0)
(1.54755 -6.14684e-14 0)
(1.58622 -3.78221e-14 0)
(1.63408 2.06974e-15 0)
(1.63177 -9.71509e-15 0)
(1.58423 2.22903e-14 0)
(1.38438 1.7417e-13 0)
(1.23335 -1.53073e-14 0)
(1.22342 -7.84939e-14 0)
(1.21943 -3.07813e-13 0)
(1.18812 -5.00829e-13 0)
(1.11477 -1.75022e-13 0)
(1.02726 5.96128e-13 0)
(0.952555 1.49642e-12 0)
(0.881073 1.58058e-12 0)
(0.805152 5.27896e-13 0)
(0.716556 -7.0577e-13 0)
(0.597334 -6.00099e-13 0)
(0.422839 4.87255e-13 0)
(0.237145 8.42708e-13 0)
(0.171207 2.40363e-13 0)
(0.167867 -1.11172e-13 0)
(0.17128 -6.12472e-13 0)
(0.171511 -9.938e-13 0)
(0.147628 -7.58742e-13 0)
(-0.0195249 -8.85086e-13 0)
(-0.176269 -3.39885e-13 0)
(-0.231961 5.10226e-13 0)
(-0.254523 6.11885e-13 0)
(-0.272811 3.3325e-13 0)
(-0.290314 4.18063e-13 0)
(-0.305679 3.15539e-13 0)
(-0.318787 -3.15481e-13 0)
(-0.330205 -3.37192e-13 0)
(-0.342873 -1.89881e-14 0)
(1.46908 0.00953035 0)
(1.46523 -0.0349852 0)
(1.47278 -0.0336396 0)
(1.49162 -0.0116035 0)
(1.5103 0.00782074 0)
(1.53304 0.0256546 0)
(1.55674 0.0256792 0)
(1.59242 0.0250022 0)
(1.64034 0.0286254 0)
(1.63655 0.0162122 0)
(1.58946 0.0086161 0)
(1.39152 -0.00577304 0)
(1.23318 0.00436465 0)
(1.22216 0.00486706 0)
(1.21696 0.00901049 0)
(1.18751 0.0214697 0)
(1.11619 0.0303817 0)
(1.02918 0.0332153 0)
(0.946709 0.0306008 0)
(0.871667 0.0226501 0)
(0.79492 0.0185541 0)
(0.707721 0.0169078 0)
(0.59657 0.0130603 0)
(0.425504 0.00796917 0)
(0.238017 0.00566232 0)
(0.171213 0.00502823 0)
(0.167865 0.0049141 0)
(0.171291 0.00487928 0)
(0.171536 0.00481367 0)
(0.147667 0.00479486 0)
(-0.0194439 0.0049809 0)
(-0.176232 0.00507399 0)
(-0.232055 0.00505039 0)
(-0.254793 0.00501677 0)
(-0.273266 0.00507151 0)
(-0.290951 0.0052314 0)
(-0.306477 0.00592804 0)
(-0.319661 0.00647101 0)
(-0.330996 0.00666172 0)
(-0.343474 0.00523846 0)
(1.46468 0.00630632 0)
(1.50311 -0.0383126 0)
(1.52163 -0.0115319 0)
(1.53004 0.00748549 0)
(1.54367 0.0201959 0)
(1.56045 0.0261832 0)
(1.57893 0.0198409 0)
(1.60746 0.0187624 0)
(1.6532 0.0254497 0)
(1.6448 0.00823671 0)
(1.59918 0.000889412 0)
(1.40147 -0.00387378 0)
(1.22975 0.00374289 0)
(1.21631 0.0048142 0)
(1.20459 0.0175306 0)
(1.17419 0.0411125 0)
(1.102 0.0587258 0)
(1.01554 0.0650878 0)
(0.936922 0.0574269 0)
(0.858711 0.0457727 0)
(0.780777 0.0366683 0)
(0.697936 0.0302062 0)
(0.590533 0.0228893 0)
(0.421652 0.0164878 0)
(0.236589 0.011928 0)
(0.171019 0.0100975 0)
(0.167748 0.0098205 0)
(0.171164 0.00975117 0)
(0.171402 0.00962589 0)
(0.147515 0.00958711 0)
(-0.0196399 0.00998089 0)
(-0.176605 0.0101779 0)
(-0.232654 0.0101466 0)
(-0.255655 0.0100664 0)
(-0.274352 0.0101475 0)
(-0.292068 0.0104328 0)
(-0.307109 0.0117669 0)
(-0.319116 0.0128336 0)
(-0.329442 0.0132497 0)
(-0.341693 0.0104543 0)
(1.57134 -0.0671222 0)
(1.58294 -0.06013 0)
(1.59236 -0.0432413 0)
(1.59604 -0.0112256 0)
(1.59593 0.00447414 0)
(1.60089 0.0369189 0)
(1.6056 0.0520472 0)
(1.62039 0.0667122 0)
(1.64765 0.0873319 0)
(1.63846 0.0457333 0)
(1.59059 0.011689 0)
(1.37987 0.00372616 0)
(1.21668 0.0112805 0)
(1.19656 0.0212858 0)
(1.18706 0.0419843 0)
(1.16802 0.0756635 0)
(1.11121 0.109681 0)
(1.03169 0.125156 0)
(0.947407 0.11826 0)
(0.863813 0.100958 0)
(0.785187 0.0817743 0)
(0.702939 0.0649724 0)
(0.592403 0.0506979 0)
(0.417804 0.0366238 0)
(0.232725 0.0246973 0)
(0.170335 0.0209473 0)
(0.167573 0.0203861 0)
(0.171044 0.0202481 0)
(0.171362 0.0200278 0)
(0.147592 0.0199624 0)
(-0.01925 0.0208347 0)
(-0.176353 0.0212686 0)
(-0.232508 0.0212766 0)
(-0.255527 0.0211788 0)
(-0.274155 0.0213545 0)
(-0.29174 0.0217177 0)
(-0.306258 0.023597 0)
(-0.316836 0.0250559 0)
(-0.325348 0.0262301 0)
(-0.336804 0.0211324 0)
(1.63806 0.0492344 0)
(1.64216 0.0489102 0)
(1.64248 0.0528148 0)
(1.63994 0.0351055 0)
(1.63466 0.0496842 0)
(1.62948 0.0544024 0)
(1.62524 0.0404386 0)
(1.63244 0.0670141 0)
(1.64209 0.0926324 0)
(1.61728 0.0519657 0)
(1.56244 0.0180833 0)
(1.32855 0.0290581 0)
(1.20616 0.0380903 0)
(1.17258 0.0436167 0)
(1.15864 0.0696212 0)
(1.12947 0.133293 0)
(1.05739 0.195577 0)
(0.974446 0.220297 0)
(0.901589 0.207369 0)
(0.832398 0.177109 0)
(0.7609 0.145047 0)
(0.679925 0.117123 0)
(0.568917 0.0914511 0)
(0.395846 0.0639774 0)
(0.222633 0.0431748 0)
(0.16892 0.03748 0)
(0.167198 0.0365867 0)
(0.170839 0.0363436 0)
(0.171407 0.0360149 0)
(0.14799 0.03591 0)
(-0.0179963 0.0373963 0)
(-0.175455 0.0381835 0)
(-0.231907 0.038278 0)
(-0.25497 0.0381514 0)
(-0.273451 0.0384232 0)
(-0.290866 0.0388326 0)
(-0.305155 0.0413793 0)
(-0.315115 0.0428882 0)
(-0.322185 0.0458193 0)
(-0.333525 0.0385097 0)
(1.63971 0.129973 0)
(1.6315 0.151379 0)
(1.6259 0.158548 0)
(1.62605 0.143268 0)
(1.62519 0.143876 0)
(1.62686 0.136333 0)
(1.62868 0.113195 0)
(1.62848 0.144162 0)
(1.62523 0.1496 0)
(1.59148 0.0882841 0)
(1.52155 0.0632108 0)
(1.29275 0.0688962 0)
(1.20987 0.0715956 0)
(1.16003 0.0740592 0)
(1.11652 0.115605 0)
(1.05739 0.212452 0)
(0.971351 0.286296 0)
(0.898225 0.300792 0)
(0.841668 0.277305 0)
(0.786118 0.238474 0)
(0.724161 0.197365 0)
(0.647897 0.159839 0)
(0.536988 0.123793 0)
(0.365111 0.0863587 0)
(0.209261 0.0602953 0)
(0.167087 0.0537586 0)
(0.166664 0.0526404 0)
(0.170546 0.0522453 0)
(0.171462 0.0518504 0)
(0.148531 0.0517092 0)
(-0.0160807 0.0535882 0)
(-0.17386 0.0546624 0)
(-0.230681 0.0548932 0)
(-0.253839 0.0548543 0)
(-0.272247 0.0554164 0)
(-0.28972 0.0560634 0)
(-0.304119 0.0591619 0)
(-0.314276 0.059911 0)
(-0.320139 0.0643378 0)
(-0.331125 0.0557041 0)
(1.59649 0.204664 0)
(1.596 0.205558 0)
(1.5949 0.206468 0)
(1.59677 0.19438 0)
(1.59702 0.196757 0)
(1.60322 0.187707 0)
(1.61556 0.169545 0)
(1.6145 0.19739 0)
(1.5623 0.184565 0)
(1.52486 0.137298 0)
(1.42552 0.110225 0)
(1.25731 0.101337 0)
(1.19192 0.114466 0)
(1.12785 0.133988 0)
(1.06047 0.206024 0)
(0.970532 0.317767 0)
(0.879749 0.373341 0)
(0.821655 0.368137 0)
(0.779105 0.334504 0)
(0.734926 0.288456 0)
(0.680746 0.24026 0)
(0.608447 0.194996 0)
(0.496575 0.150131 0)
(0.327892 0.104497 0)
(0.195144 0.0760796 0)
(0.165087 0.0697312 0)
(0.165867 0.068488 0)
(0.170003 0.0678391 0)
(0.171338 0.067473 0)
(0.148816 0.0673023 0)
(-0.0144708 0.0695333 0)
(-0.17292 0.0709168 0)
(-0.23047 0.0712985 0)
(-0.25403 0.0714042 0)
(-0.27247 0.0725233 0)
(-0.290028 0.0735216 0)
(-0.304249 0.0773144 0)
(-0.314723 0.0769945 0)
(-0.319685 0.0824156 0)
(-0.330206 0.0730476 0)
(1.54157 0.260208 0)
(1.54285 0.264704 0)
(1.54559 0.265003 0)
(1.55064 0.258548 0)
(1.55428 0.259991 0)
(1.56054 0.248277 0)
(1.58115 0.245666 0)
(1.54075 0.237224 0)
(1.5077 0.202685 0)
(1.45816 0.176107 0)
(1.34 0.15423 0)
(1.23404 0.153734 0)
(1.1596 0.173387 0)
(1.06864 0.211033 0)
(0.968485 0.327327 0)
(0.859675 0.426716 0)
(0.787305 0.444948 0)
(0.748223 0.419883 0)
(0.717301 0.375585 0)
(0.681135 0.322932 0)
(0.632356 0.270296 0)
(0.562294 0.220487 0)
(0.448173 0.169047 0)
(0.286803 0.11799 0)
(0.18199 0.0906774 0)
(0.163166 0.0852227 0)
(0.165141 0.0839821 0)
(0.169532 0.0830695 0)
(0.171481 0.0827154 0)
(0.149581 0.0825176 0)
(-0.0114115 0.0849321 0)
(-0.169822 0.0865771 0)
(-0.22759 0.0872237 0)
(-0.251125 0.0875613 0)
(-0.269098 0.0894053 0)
(-0.286417 0.0905701 0)
(-0.299992 0.0950683 0)
(-0.310724 0.0936791 0)
(-0.315189 0.0995597 0)
(-0.325545 0.0897216 0)
(1.47739 0.309495 0)
(1.47745 0.313978 0)
(1.4803 0.314311 0)
(1.48598 0.306445 0)
(1.48814 0.304338 0)
(1.49363 0.294403 0)
(1.50146 0.294012 0)
(1.46693 0.282809 0)
(1.42782 0.243322 0)
(1.37188 0.203587 0)
(1.26863 0.199143 0)
(1.17571 0.219013 0)
(1.07401 0.242676 0)
(0.960217 0.342136 0)
(0.837954 0.470299 0)
(0.745949 0.511784 0)
(0.702115 0.495988 0)
(0.679108 0.455907 0)
(0.657339 0.403076 0)
(0.626412 0.346469 0)
(0.580983 0.291732 0)
(0.510993 0.238761 0)
(0.3935 0.18151 0)
(0.246035 0.128361 0)
(0.171327 0.105044 0)
(0.161118 0.10068 0)
(0.163863 0.0995047 0)
(0.168359 0.0983544 0)
(0.170838 0.0980244 0)
(0.149225 0.0979188 0)
(-0.0105137 0.100683 0)
(-0.169647 0.102835 0)
(-0.228221 0.103936 0)
(-0.252304 0.10438 0)
(-0.270155 0.107036 0)
(-0.287528 0.107951 0)
(-0.300475 0.113083 0)
(-0.311344 0.11082 0)
(-0.315389 0.116956 0)
(-0.325602 0.106781 0)
(1.39924 0.354599 0)
(1.39828 0.359026 0)
(1.40033 0.357079 0)
(1.40387 0.353463 0)
(1.40326 0.3507 0)
(1.40254 0.340584 0)
(1.39112 0.32997 0)
(1.36769 0.304916 0)
(1.32598 0.263723 0)
(1.25467 0.250511 0)
(1.15721 0.271132 0)
(1.04968 0.294482 0)
(0.927289 0.37488 0)
(0.798301 0.504977 0)
(0.692586 0.567123 0)
(0.642637 0.561956 0)
(0.625845 0.527449 0)
(0.616345 0.474688 0)
(0.600072 0.416403 0)
(0.571664 0.359361 0)
(0.527758 0.305148 0)
(0.45543 0.249186 0)
(0.334924 0.187299 0)
(0.210139 0.137719 0)
(0.163831 0.120331 0)
(0.159803 0.11692 0)
(0.163308 0.11582 0)
(0.168167 0.114463 0)
(0.171481 0.114156 0)
(0.150838 0.114075 0)
(-0.00565772 0.117046 0)
(-0.164723 0.119475 0)
(-0.223937 0.12088 0)
(-0.248569 0.121517 0)
(-0.266319 0.124998 0)
(-0.28392 0.125418 0)
(-0.296468 0.130708 0)
(-0.307507 0.127652 0)
(-0.311353 0.133679 0)
(-0.321627 0.123214 0)
(1.29853 0.399232 0)
(1.29735 0.402671 0)
(1.29902 0.39944 0)
(1.29977 0.391087 0)
(1.29427 0.381737 0)
(1.28345 0.371148 0)
(1.26355 0.357326 0)
(1.23484 0.332414 0)
(1.17743 0.314959 0)
(1.09201 0.330878 0)
(0.988369 0.359619 0)
(0.86024 0.420126 0)
(0.724822 0.535061 0)
(0.61865 0.615254 0)
(0.56923 0.620966 0)
(0.560083 0.593919 0)
(0.56206 0.540092 0)
(0.558518 0.481239 0)
(0.543886 0.424755 0)
(0.517481 0.368603 0)
(0.473631 0.313256 0)
(0.395358 0.254226 0)
(0.276047 0.190397 0)
(0.182364 0.146367 0)
(0.158204 0.136218 0)
(0.157513 0.133867 0)
(0.161323 0.13274 0)
(0.166482 0.131205 0)
(0.170541 0.130978 0)
(0.150438 0.130919 0)
(-0.00390217 0.13353 0)
(-0.163339 0.13557 0)
(-0.222917 0.136483 0)
(-0.247656 0.137015 0)
(-0.264898 0.142205 0)
(-0.282795 0.143003 0)
(-0.29523 0.148769 0)
(-0.306341 0.144813 0)
(-0.309668 0.150666 0)
(-0.319854 0.139958 0)
(1.16262 0.435364 0)
(1.16241 0.435217 0)
(1.16615 0.426905 0)
(1.16452 0.421037 0)
(1.15271 0.419545 0)
(1.13176 0.416254 0)
(1.10385 0.405527 0)
(1.06147 0.39269 0)
(0.988847 0.399248 0)
(0.888562 0.429511 0)
(0.757945 0.478832 0)
(0.615785 0.574142 0)
(0.520696 0.660239 0)
(0.484419 0.668854 0)
(0.484024 0.645994 0)
(0.498448 0.595232 0)
(0.507467 0.538038 0)
(0.505281 0.482178 0)
(0.491335 0.42544 0)
(0.463497 0.37142 0)
(0.4154 0.315663 0)
(0.331608 0.245404 0)
(0.2235 0.177132 0)
(0.164907 0.154375 0)
(0.154812 0.146059 0)
(0.156275 0.142896 0)
(0.160617 0.141159 0)
(0.166314 0.138818 0)
(0.171393 0.138206 0)
(0.151663 0.137732 0)
(-0.0016581 0.13834 0)
(-0.162159 0.136099 0)
(-0.221185 0.134685 0)
(-0.245024 0.136327 0)
(-0.260203 0.145878 0)
(-0.277399 0.150647 0)
(-0.289145 0.161213 0)
(-0.301407 0.160243 0)
(-0.305031 0.166652 0)
(-0.315366 0.155984 0)
(0.979881 0.464015 0)
(0.98584 0.461534 0)
(0.990373 0.4643 0)
(0.984829 0.471786 0)
(0.969693 0.477137 0)
(0.947066 0.473721 0)
(0.911168 0.461803 0)
(0.844502 0.460316 0)
(0.743791 0.492571 0)
(0.615953 0.547816 0)
(0.481458 0.626753 0)
(0.406085 0.698555 0)
(0.389863 0.708048 0)
(0.401009 0.685265 0)
(0.425967 0.640516 0)
(0.447217 0.585248 0)
(0.455689 0.526671 0)
(0.450296 0.466424 0)
(0.432206 0.407928 0)
(0.403922 0.344002 0)
(0.352228 0.268871 0)
(0.259692 0.203929 0)
(0.177075 0.151076 0)
(0.152586 0.120597 0)
(0.150078 0.109609 0)
(0.152607 0.102979 0)
(0.15768 0.0982393 0)
(0.164155 0.0929176 0)
(0.170901 0.0907777 0)
(0.147868 0.0858643 0)
(-0.0108963 0.0715381 0)
(-0.163934 0.0624085 0)
(-0.214069 0.068853 0)
(-0.234208 0.0862459 0)
(-0.246365 0.114037 0)
(-0.266766 0.134895 0)
(-0.27904 0.157879 0)
(-0.294515 0.1683 0)
(-0.300552 0.180375 0)
(-0.312285 0.172349 0)
(0.750974 0.487358 0)
(0.765427 0.488402 0)
(0.765928 0.501437 0)
(0.757528 0.508531 0)
(0.742182 0.506551 0)
(0.708855 0.50223 0)
(0.643156 0.513228 0)
(0.547634 0.563087 0)
(0.43685 0.630185 0)
(0.335258 0.692476 0)
(0.286542 0.731954 0)
(0.291001 0.733542 0)
(0.320583 0.706587 0)
(0.355495 0.662121 0)
(0.382198 0.609069 0)
(0.393155 0.549703 0)
(0.385774 0.485111 0)
(0.369863 0.409126 0)
(0.354645 0.321969 0)
(0.320044 0.235216 0)
(0.252709 0.146053 0)
(0.181471 0.049685 0)
(0.145338 -0.00673999 0)
(0.138431 -0.0297378 0)
(0.140408 -0.0430994 0)
(0.144912 -0.0536919 0)
(0.152073 -0.0604831 0)
(0.160047 -0.0681011 0)
(0.168524 -0.0717423 0)
(0.13525 -0.0810831 0)
(-0.0242187 -0.0935074 0)
(-0.153129 -0.0810688 0)
(-0.190586 -0.0515225 0)
(-0.205375 -0.0120281 0)
(-0.210515 0.0342766 0)
(-0.23143 0.078325 0)
(-0.248503 0.125946 0)
(-0.270849 0.161033 0)
(-0.284607 0.18657 0)
(-0.302928 0.187306 0)
(0.484731 0.492842 0)
(0.48716 0.496837 0)
(0.481993 0.502221 0)
(0.462552 0.51168 0)
(0.427697 0.527779 0)
(0.378876 0.564983 0)
(0.321566 0.626243 0)
(0.259218 0.684119 0)
(0.212648 0.724268 0)
(0.198724 0.739008 0)
(0.212289 0.733646 0)
(0.241106 0.706642 0)
(0.267728 0.660056 0)
(0.288208 0.594535 0)
(0.295926 0.511886 0)
(0.2958 0.416156 0)
(0.297728 0.314573 0)
(0.291593 0.219614 0)
(0.270921 0.13425 0)
(0.231858 0.0452901 0)
(0.178755 -0.0494708 0)
(0.133892 -0.114272 0)
(0.12266 -0.140774 0)
(0.125858 -0.153793 0)
(0.130931 -0.163952 0)
(0.1374 -0.172687 0)
(0.146779 -0.176668 0)
(0.156111 -0.182702 0)
(0.164191 -0.185404 0)
(0.126849 -0.189948 0)
(-0.0146724 -0.183097 0)
(-0.12324 -0.154946 0)
(-0.155817 -0.116505 0)
(-0.170036 -0.0720236 0)
(-0.169285 -0.025575 0)
(-0.1871 0.0212935 0)
(-0.200645 0.0768962 0)
(-0.230591 0.130919 0)
(-0.249431 0.179311 0)
(-0.281343 0.201132 0)
(0.19901 0.498179 0)
(0.190473 0.515605 0)
(0.186856 0.529326 0)
(0.176073 0.555371 0)
(0.161373 0.597983 0)
(0.140987 0.642275 0)
(0.119269 0.672792 0)
(0.109114 0.6929 0)
(0.11291 0.697713 0)
(0.1265 0.677006 0)
(0.145175 0.625101 0)
(0.167467 0.551724 0)
(0.189429 0.46764 0)
(0.209106 0.381839 0)
(0.226589 0.298306 0)
(0.225463 0.219064 0)
(0.225139 0.148255 0)
(0.217862 0.0780449 0)
(0.201291 -0.00331001 0)
(0.158935 -0.0844266 0)
(0.116764 -0.144924 0)
(0.105162 -0.175787 0)
(0.109477 -0.190294 0)
(0.116438 -0.200653 0)
(0.123603 -0.20898 0)
(0.131315 -0.216783 0)
(0.142126 -0.219183 0)
(0.153069 -0.223967 0)
(0.160716 -0.225444 0)
(0.128125 -0.225365 0)
(0.0102379 -0.207385 0)
(-0.0837991 -0.173069 0)
(-0.11306 -0.130714 0)
(-0.128261 -0.083975 0)
(-0.120603 -0.0366595 0)
(-0.140001 0.00732871 0)
(-0.145097 0.0601599 0)
(-0.176542 0.113842 0)
(-0.194389 0.171291 0)
(-0.234859 0.200442 0)
(0.00378147 0.505705 0)
(0.0150301 0.497275 0)
(0.0229729 0.493834 0)
(0.026747 0.494606 0)
(0.0354249 0.492004 0)
(0.0495358 0.483976 0)
(0.0653931 0.476079 0)
(0.0766045 0.468818 0)
(0.0801062 0.454762 0)
(0.0868406 0.426407 0)
(0.100479 0.386138 0)
(0.121351 0.339406 0)
(0.137233 0.288524 0)
(0.146021 0.231161 0)
(0.155078 0.17043 0)
(0.163529 0.106773 0)
(0.170799 0.0387311 0)
(0.157597 -0.025281 0)
(0.125329 -0.0893197 0)
(0.0930441 -0.148557 0)
(0.083985 -0.183904 0)
(0.0901632 -0.20134 0)
(0.0988076 -0.213368 0)
(0.107397 -0.223338 0)
(0.116234 -0.230485 0)
(0.125388 -0.238052 0)
(0.137671 -0.239976 0)
(0.150282 -0.244269 0)
(0.158876 -0.244888 0)
(0.135953 -0.242862 0)
(0.0449276 -0.219657 0)
(-0.0392968 -0.182361 0)
(-0.0671974 -0.141077 0)
(-0.0858599 -0.0990487 0)
(-0.0769525 -0.0509356 0)
(-0.0956202 0.000317083 0)
(-0.093607 0.0621632 0)
(-0.120452 0.126708 0)
(-0.129537 0.182597 0)
(-0.162425 0.206495 0)
(-0.086091 0.466468 0)
(-0.0675254 0.43336 0)
(-0.0559625 0.407692 0)
(-0.0387136 0.384415 0)
(-0.0185764 0.36313 0)
(0.00418217 0.342453 0)
(0.030925 0.33033 0)
(0.0543922 0.316122 0)
(0.0651491 0.302025 0)
(0.0673194 0.291515 0)
(0.0644305 0.274226 0)
(0.0693092 0.235676 0)
(0.0810006 0.184691 0)
(0.0918218 0.130556 0)
(0.104776 0.0773553 0)
(0.109005 0.0254772 0)
(0.102027 -0.0288178 0)
(0.083666 -0.0946535 0)
(0.0627933 -0.153797 0)
(0.0591777 -0.189201 0)
(0.0680416 -0.207841 0)
(0.0787157 -0.220743 0)
(0.0890581 -0.232268 0)
(0.0990415 -0.241958 0)
(0.109746 -0.248047 0)
(0.121092 -0.255214 0)
(0.135402 -0.256538 0)
(0.150445 -0.260112 0)
(0.162065 -0.259255 0)
(0.150014 -0.255919 0)
(0.0846362 -0.228356 0)
(0.0067067 -0.187686 0)
(-0.0212499 -0.138642 0)
(-0.0385293 -0.093506 0)
(-0.0269753 -0.0423235 0)
(-0.0434228 0.010751 0)
(-0.0372947 0.0707784 0)
(-0.0548901 0.134937 0)
(-0.056191 0.188168 0)
(-0.0800956 0.211632 0)
(-0.147247 0.454813 0)
(-0.115734 0.411574 0)
(-0.100734 0.372705 0)
(-0.0771102 0.344857 0)
(-0.0529544 0.322385 0)
(-0.0226999 0.302057 0)
(0.0163829 0.282511 0)
(0.0471209 0.258173 0)
(0.0616047 0.23579 0)
(0.0590042 0.212151 0)
(0.043827 0.181696 0)
(0.0344368 0.143805 0)
(0.0392259 0.0987983 0)
(0.0456743 0.051119 0)
(0.0516043 0.0039026 0)
(0.049468 -0.0493422 0)
(0.0391063 -0.1093 0)
(0.0283498 -0.162313 0)
(0.0297076 -0.196504 0)
(0.0416331 -0.214638 0)
(0.0557028 -0.226089 0)
(0.0686302 -0.237708 0)
(0.0801693 -0.248967 0)
(0.0917169 -0.25832 0)
(0.104234 -0.263305 0)
(0.117116 -0.269949 0)
(0.132285 -0.270791 0)
(0.147952 -0.274059 0)
(0.162075 -0.272886 0)
(0.158778 -0.270534 0)
(0.118593 -0.247 0)
(0.0517514 -0.203477 0)
(0.0214968 -0.154984 0)
(0.0104097 -0.111156 0)
(0.0233095 -0.0586311 0)
(0.0169539 0.00300842 0)
(0.0247947 0.0735267 0)
(0.0155034 0.150943 0)
(0.0193141 0.212883 0)
(0.00160711 0.237702 0)
(-0.181822 0.441571 0)
(-0.149419 0.396544 0)
(-0.134613 0.356698 0)
(-0.110212 0.32948 0)
(-0.0832407 0.302883 0)
(-0.0490187 0.271798 0)
(-0.00742431 0.243784 0)
(0.0193667 0.211538 0)
(0.0309925 0.180496 0)
(0.0171571 0.150262 0)
(-0.0071896 0.109637 0)
(-0.0186418 0.063825 0)
(-0.0130854 0.021762 0)
(-0.00610379 -0.0217001 0)
(-0.00182078 -0.0706177 0)
(-0.00575457 -0.124495 0)
(-0.00978399 -0.171601 0)
(-0.00389772 -0.202033 0)
(0.0104566 -0.220356 0)
(0.0279769 -0.231413 0)
(0.0448186 -0.2417 0)
(0.0601714 -0.252351 0)
(0.0736581 -0.263008 0)
(0.0871908 -0.27185 0)
(0.101774 -0.275622 0)
(0.116668 -0.281283 0)
(0.133075 -0.281187 0)
(0.149868 -0.283615 0)
(0.166387 -0.282343 0)
(0.171166 -0.278556 0)
(0.152461 -0.258585 0)
(0.103284 -0.217293 0)
(0.0720993 -0.161457 0)
(0.0686624 -0.107703 0)
(0.0792325 -0.0507243 0)
(0.085887 0.0107977 0)
(0.0905415 0.0772751 0)
(0.0944743 0.150195 0)
(0.101326 0.213079 0)
(0.0761474 0.237371 0)
(-0.189376 0.456724 0)
(-0.171135 0.429426 0)
(-0.16844 0.385325 0)
(-0.143869 0.348647 0)
(-0.115826 0.310705 0)
(-0.0815548 0.272063 0)
(-0.0427442 0.234484 0)
(-0.02023 0.187088 0)
(-0.00635368 0.135217 0)
(-0.0211994 0.081324 0)
(-0.0430569 0.0264295 0)
(-0.0492651 -0.0209029 0)
(-0.0422643 -0.0614839 0)
(-0.0388756 -0.103641 0)
(-0.039523 -0.145651 0)
(-0.0406429 -0.179978 0)
(-0.033617 -0.204411 0)
(-0.0195209 -0.222548 0)
(-0.00256114 -0.234289 0)
(0.0150407 -0.243798 0)
(0.0325496 -0.253917 0)
(0.0501311 -0.264099 0)
(0.0662329 -0.274004 0)
(0.0812665 -0.282338 0)
(0.0965094 -0.285528 0)
(0.111538 -0.29093 0)
(0.127698 -0.290796 0)
(0.144279 -0.293085 0)
(0.16081 -0.292337 0)
(0.172946 -0.2907 0)
(0.172471 -0.277008 0)
(0.150289 -0.244285 0)
(0.123392 -0.19312 0)
(0.129297 -0.135736 0)
(0.13912 -0.0699406 0)
(0.159266 0.000604896 0)
(0.15914 0.081018 0)
(0.177887 0.167132 0)
(0.179201 0.259772 0)
(0.11649 0.296089 0)
(-0.324839 0.432356 0)
(-0.248952 0.45806 0)
(-0.230281 0.408299 0)
(-0.185252 0.370456 0)
(-0.154621 0.326007 0)
(-0.122046 0.283049 0)
(-0.0940732 0.234282 0)
(-0.0824215 0.172665 0)
(-0.0776918 0.101636 0)
(-0.0942192 0.0311494 0)
(-0.105237 -0.0294063 0)
(-0.102603 -0.0754161 0)
(-0.0918059 -0.113724 0)
(-0.0833364 -0.149617 0)
(-0.0748408 -0.178392 0)
(-0.0647351 -0.201268 0)
(-0.0497989 -0.217754 0)
(-0.0329175 -0.230049 0)
(-0.014872 -0.2417 0)
(0.00389966 -0.253506 0)
(0.0230839 -0.265984 0)
(0.0436796 -0.276672 0)
(0.0637456 -0.284575 0)
(0.0819164 -0.290308 0)
(0.0989846 -0.291382 0)
(0.115187 -0.295566 0)
(0.1317 -0.294941 0)
(0.148252 -0.296564 0)
(0.164639 -0.295452 0)
(0.17967 -0.295508 0)
(0.18929 -0.286145 0)
(0.188169 -0.261104 0)
(0.178225 -0.213086 0)
(0.1844 -0.148532 0)
(0.190407 -0.0746905 0)
(0.216378 0.00166441 0)
(0.216244 0.0847076 0)
(0.264861 0.164001 0)
(0.29281 0.283687 0)
(0.245647 0.334323 0)
(-0.649877 0.755745 0)
(-0.296266 0.513622 0)
(-0.269761 0.381944 0)
(-0.218439 0.379678 0)
(-0.184674 0.358257 0)
(-0.153944 0.315963 0)
(-0.134939 0.247064 0)
(-0.12188 0.156818 0)
(-0.123124 0.0569257 0)
(-0.13101 -0.0312912 0)
(-0.127257 -0.0925059 0)
(-0.119169 -0.136895 0)
(-0.108486 -0.170658 0)
(-0.0965635 -0.195929 0)
(-0.0809453 -0.213611 0)
(-0.0637698 -0.225466 0)
(-0.0461624 -0.235636 0)
(-0.0286732 -0.246607 0)
(-0.0113099 -0.258524 0)
(0.00600658 -0.270272 0)
(0.0224325 -0.28226 0)
(0.0388858 -0.291713 0)
(0.0553852 -0.297429 0)
(0.0716752 -0.30116 0)
(0.0881759 -0.301095 0)
(0.104434 -0.30459 0)
(0.120912 -0.30384 0)
(0.137351 -0.305144 0)
(0.153689 -0.303921 0)
(0.169809 -0.304261 0)
(0.185289 -0.299282 0)
(0.200716 -0.286775 0)
(0.206402 -0.250535 0)
(0.209046 -0.184141 0)
(0.211949 -0.101927 0)
(0.239739 -0.0173441 0)
(0.237866 0.0604195 0)
(0.297289 0.102807 0)
(0.33689 0.234007 0)
(0.478773 0.474507 0)
(-0.649877 -0.755745 0)
(-0.296266 -0.513622 0)
(-0.269761 -0.381944 0)
(-0.218439 -0.379678 0)
(-0.184674 -0.358257 0)
(-0.153944 -0.315963 0)
(-0.134939 -0.247064 0)
(-0.12188 -0.156818 0)
(-0.123124 -0.0569257 0)
(-0.13101 0.0312912 0)
(-0.127257 0.0925059 0)
(-0.119169 0.136895 0)
(-0.108486 0.170658 0)
(-0.0965635 0.195929 0)
(-0.0809453 0.213611 0)
(-0.0637698 0.225466 0)
(-0.0461624 0.235636 0)
(-0.0286732 0.246607 0)
(-0.0113099 0.258524 0)
(0.00600658 0.270272 0)
(0.0224325 0.28226 0)
(0.0388858 0.291713 0)
(0.0553852 0.297429 0)
(0.0716752 0.30116 0)
(0.0881759 0.301095 0)
(0.104434 0.30459 0)
(0.120912 0.30384 0)
(0.137351 0.305144 0)
(0.153689 0.303921 0)
(0.169809 0.304261 0)
(0.185289 0.299282 0)
(0.200716 0.286775 0)
(0.206402 0.250535 0)
(0.209046 0.184141 0)
(0.211949 0.101927 0)
(0.239739 0.0173441 0)
(0.237866 -0.0604195 0)
(0.297289 -0.102807 0)
(0.33689 -0.234007 0)
(0.478773 -0.474507 0)
(-0.324839 -0.432356 0)
(-0.248952 -0.45806 0)
(-0.230281 -0.408299 0)
(-0.185252 -0.370456 0)
(-0.154621 -0.326007 0)
(-0.122046 -0.283049 0)
(-0.0940732 -0.234282 0)
(-0.0824215 -0.172665 0)
(-0.0776918 -0.101636 0)
(-0.0942192 -0.0311494 0)
(-0.105237 0.0294063 0)
(-0.102603 0.0754161 0)
(-0.0918059 0.113724 0)
(-0.0833364 0.149617 0)
(-0.0748408 0.178392 0)
(-0.0647351 0.201268 0)
(-0.0497989 0.217754 0)
(-0.0329175 0.230049 0)
(-0.014872 0.2417 0)
(0.00389966 0.253506 0)
(0.0230839 0.265984 0)
(0.0436796 0.276672 0)
(0.0637456 0.284575 0)
(0.0819164 0.290308 0)
(0.0989846 0.291382 0)
(0.115187 0.295566 0)
(0.1317 0.294941 0)
(0.148252 0.296564 0)
(0.164639 0.295452 0)
(0.17967 0.295508 0)
(0.18929 0.286145 0)
(0.188169 0.261104 0)
(0.178225 0.213086 0)
(0.1844 0.148532 0)
(0.190407 0.0746905 0)
(0.216378 -0.00166441 0)
(0.216244 -0.0847076 0)
(0.264861 -0.164001 0)
(0.29281 -0.283687 0)
(0.245647 -0.334323 0)
(-0.189376 -0.456724 0)
(-0.171135 -0.429426 0)
(-0.16844 -0.385325 0)
(-0.143869 -0.348647 0)
(-0.115826 -0.310705 0)
(-0.0815548 -0.272063 0)
(-0.0427442 -0.234484 0)
(-0.02023 -0.187088 0)
(-0.00635368 -0.135217 0)
(-0.0211994 -0.081324 0)
(-0.0430569 -0.0264295 0)
(-0.0492651 0.0209029 0)
(-0.0422643 0.0614839 0)
(-0.0388756 0.103641 0)
(-0.039523 0.145651 0)
(-0.0406429 0.179978 0)
(-0.033617 0.204411 0)
(-0.0195209 0.222548 0)
(-0.00256114 0.234289 0)
(0.0150407 0.243798 0)
(0.0325496 0.253917 0)
(0.0501311 0.264099 0)
(0.0662329 0.274004 0)
(0.0812665 0.282338 0)
(0.0965094 0.285528 0)
(0.111538 0.29093 0)
(0.127698 0.290796 0)
(0.144279 0.293085 0)
(0.16081 0.292337 0)
(0.172946 0.2907 0)
(0.172471 0.277008 0)
(0.150289 0.244285 0)
(0.123392 0.19312 0)
(0.129297 0.135736 0)
(0.13912 0.0699406 0)
(0.159266 -0.000604896 0)
(0.15914 -0.081018 0)
(0.177887 -0.167132 0)
(0.179201 -0.259772 0)
(0.11649 -0.296089 0)
(-0.181822 -0.441571 0)
(-0.149419 -0.396544 0)
(-0.134613 -0.356698 0)
(-0.110212 -0.32948 0)
(-0.0832407 -0.302883 0)
(-0.0490187 -0.271798 0)
(-0.00742431 -0.243784 0)
(0.0193667 -0.211538 0)
(0.0309925 -0.180496 0)
(0.0171571 -0.150262 0)
(-0.0071896 -0.109637 0)
(-0.0186418 -0.063825 0)
(-0.0130854 -0.021762 0)
(-0.00610379 0.0217001 0)
(-0.00182078 0.0706177 0)
(-0.00575457 0.124495 0)
(-0.00978399 0.171601 0)
(-0.00389772 0.202033 0)
(0.0104566 0.220356 0)
(0.0279769 0.231413 0)
(0.0448186 0.2417 0)
(0.0601714 0.252351 0)
(0.0736581 0.263008 0)
(0.0871908 0.27185 0)
(0.101774 0.275622 0)
(0.116668 0.281283 0)
(0.133075 0.281187 0)
(0.149868 0.283615 0)
(0.166387 0.282343 0)
(0.171166 0.278556 0)
(0.152461 0.258585 0)
(0.103284 0.217293 0)
(0.0720993 0.161457 0)
(0.0686624 0.107703 0)
(0.0792325 0.0507243 0)
(0.085887 -0.0107977 0)
(0.0905415 -0.0772751 0)
(0.0944743 -0.150195 0)
(0.101326 -0.213079 0)
(0.0761474 -0.237371 0)
(-0.147247 -0.454813 0)
(-0.115734 -0.411574 0)