/*--------------------------------*- C++ -*----------------------------------*\
| =========                 |                                                 |
| \\      /  F ield         | OpenFOAM: The Open Source CFD Toolbox           |
|  \\    /   O peration     | Version:  v1912                                 |
|   \\  /    A nd           | Website:  www.openfoam.com                      |
|    \\/     M anipulation  |                                                 |
\*---------------------------------------------------------------------------*/
FoamFile
{
    version     2.0;
    format      ascii;
    class       volVectorField;
    location    "0.00014";
    object      momentumMean;
}
// * * * * * * * * * * * * * * * * * * * * * * * * * * * * * * * * * * * * * //

dimensions      [1 -2 -1 0 0 0 0];


internalField   nonuniform List<vector> 
1300
(
(-1.315120054 2.468376635 -0.4503877574)
(-0.191042173 2.09662501 0.4165479871)
(18.88689511 2.540902589 0.2461456219)
(89.49454758 4.395668243 -0.6275620955)
(46.25607801 3.165350251 0.6940843618)
(17.20891294 1.292551438 0.4711477783)
(30.4881522 -0.9663648416 -1.040368388)
(39.7057392 -0.8360839269 -0.4632488204)
(24.87515706 -0.06601474474 -1.444808304)
(25.37150443 -1.598464806 1.482394967)
(-1.692823867 4.891960602 0.1319078333)
(0.5630719809 5.434819319 -0.4450210623)
(34.58062041 10.24457547 -0.167096264)
(168.9980911 26.20715576 -1.04320745)
(80.99448139 14.17251949 0.6610986611)
(30.96813927 7.630979374 -0.801489889)
(60.51347809 10.59029685 0.18012001)
(70.00434935 9.540363159 0.4392711189)
(43.98292319 6.59183929 0.7310672485)
(36.13746619 5.814975114 -0.5092004059)
(-1.09737636 3.019751427 -0.151211483)
(0.6127520584 3.239360269 0.06270062219)
(36.9267454 9.018053625 -0.2733605749)
(188.4606117 27.45572028 -0.7168818723)
(94.63714836 14.42598433 -0.4162461457)
(36.13841317 9.983293056 0.5722559979)
(81.45535835 16.32216877 -1.200102864)
(109.1612631 17.03846612 -1.120747292)
(68.8684215 13.00519922 -0.3981651067)
(59.75567735 10.5306562 -1.504508022)
(-0.572283109 2.112384675 -0.08969809408)
(0.5876410845 1.982324662 -0.05882602706)
(36.15233918 6.665284741 -0.4564329831)
(177.9966708 26.43392117 -0.7284700591)
(86.40365664 13.45658234 0.008548869676)
(37.18009931 9.141727819 0.4983914433)
(87.00834275 18.49209599 -0.4526833481)
(129.4613599 24.76809288 0.5726819026)
(82.27340134 15.47470473 -0.6004637871)
(72.64764738 15.66549319 0.1827493188)
(-0.2828321721 1.189110017 -0.08565509488)
(0.5117059488 1.930376981 0.05993140672)
(36.72203471 6.686262868 -0.8681809925)
(177.4857346 25.29189506 0.5809860675)
(90.33094609 11.6894577 -0.08910690804)
(35.35126063 7.382427838 0.250294211)
(83.40114706 15.56625259 -1.241152423)
(125.5747726 20.85928204 -0.2358273384)
(93.48984105 17.00010112 0.001318534969)
(78.28382861 17.61431875 0.2900220143)
(-0.1303907088 1.217250988 -0.1118399565)
(0.4025265914 0.9770583337 0.1144194087)
(35.76746572 6.461959442 -0.2164965389)
(181.9089093 26.41046286 -0.1494473798)
(88.6531495 12.00195476 -0.2881698036)
(32.85611196 5.728442919 -0.9231926296)
(83.09505163 13.9904558 0.1622644101)
(113.5057809 17.05576923 0.6721139611)
(92.35244745 16.00375291 0.2722955406)
(77.2533227 14.68876522 -0.1153084446)
(-0.1165243089 0.7789182079 -0.01661638306)
(0.6557163699 0.9269873524 -0.04989335456)
(35.43998808 8.092313037 0.6248643316)
(178.1168674 25.24501828 -0.007700442379)
(86.59254868 10.90785693 0.5818973068)
(28.76953882 5.116879359 -0.004085841893)
(80.7608223 12.72212321 -0.2315192372)
(114.1370735 17.47966684 -1.130568493)
(87.07066169 12.73309434 -0.3784363071)
(75.95979239 13.94479174 -0.3186072243)
(-0.1071174431 0.8426580252 0.01662283606)
(0.6245030385 0.7342723354 -0.09028860774)
(39.47581917 7.708410588 -0.1254560068)
(176.6705886 25.45119783 -0.2719257455)
(86.59313626 11.49601524 0.3318394581)
(34.03176213 5.637628824 -0.1046149589)
(79.19842863 12.37198218 0.2604498004)
(116.3559531 16.65434737 0.1320079334)
(80.64971335 11.26876017 -0.1481410866)
(70.78059478 11.48088813 0.240299785)
(-0.02521959831 0.4042758426 -0.06103471831)
(0.8370798514 0.5680364601 -0.1070104794)
(38.10173387 7.5104874 -0.2256031355)
(181.5003476 26.16827445 0.1093029252)
(89.54458662 12.0620182 0.6205829756)
(33.90173344 6.229544731 -0.04797200978)
(86.45746985 13.74452086 -0.5191740831)
(111.0430338 15.77890813 -0.6157518963)
(85.50259914 12.08757765 0.874038371)
(68.56774072 10.1596431 0.1938777679)
(-0.04115909519 0.3852410977 -0.06642852162)
(0.5396817304 0.575836634 0.06397634171)
(34.09967563 6.62937802 -0.07285290532)
(174.6667733 25.50638421 -0.8567216479)
(91.34773048 11.10018965 0.6868799396)
(33.17281917 5.582363519 -0.008856334351)
(75.5690051 13.15873772 -0.1444726027)
(118.8276128 17.2592911 -0.1057935333)
(89.19968755 12.60234038 0.3023144036)
(64.37652589 9.633367126 -0.02678419015)
(0.004418978562 0.3398679036 -0.05858633929)
(0.9758524618 0.4633402296 -0.05359052776)
(38.55452218 6.471555935 0.2688316888)
(182.0036789 26.42842463 -0.2759892919)
(86.42362224 10.44002965 0.06875609202)
(34.53317037 6.03831997 0.228720712)
(79.1586258 12.58916823 -0.650642554)
(122.4035444 17.20805003 0.1805252166)
(85.71241292 11.94465645 -0.1573208861)
(73.79649014 11.90041924 0.1321418726)
(0.04315945391 0.3036823696 -0.03748680007)
(0.7785816981 0.538218516 -0.02781176311)
(36.63026274 7.276564052 0.5628233937)
(173.3503898 25.03698842 -0.2287291766)
(90.7795836 10.87979002 -0.09834716879)
(29.85230878 5.707180923 0.162149253)
(82.09000143 13.26809859 0.03626765222)
(114.1770039 16.30799215 0.1123380146)
(80.57294506 11.60333137 -0.2689623781)
(74.69176269 11.1885903 -0.3307194135)
(-0.02328251598 0.1974720202 0.005652924603)
(0.7036267291 0.2279138984 0.09102808661)
(35.53939111 6.368796755 -0.5060303949)
(179.8209638 25.141274 1.104865157)
(89.46263482 11.10715607 0.6494998472)
(33.13202821 6.060747185 0.06429167887)
(79.37161145 11.58329333 0.1537168824)
(118.0629074 16.5298646 0.04703467312)
(83.82326448 10.71631698 1.384873792)
(72.4511325 9.998476422 -0.03312233317)
(0.001669395148 0.1055541356 0.01431401293)
(0.3875099194 0.3675030991 0.03517405688)
(36.64715777 6.630538148 -0.6024005275)
(179.8782587 25.41498352 -0.07735397225)
(87.86061212 9.818799771 -0.9474574972)
(32.42605034 6.002001413 -0.5651548825)
(79.12239579 12.06547466 0.3738599648)
(117.0574311 16.95044129 0.3124066205)
(84.28793464 11.66699016 0.4201712423)
(70.02153741 11.08364161 0.00116390726)
(0.00117465291 0.107057092 0.01415481903)
(0.5257385006 0.2134473275 -0.09965239093)
(36.4336517 6.567473969 0.07285275237)
(171.3243048 24.80463736 -0.8662231051)
(89.1498984 11.29894413 0.01961449843)
(30.6258023 4.922582342 0.2967705682)
(77.1153923 12.62284017 -1.05508448)
(116.1541487 16.73247107 -0.1036616373)
(86.84357607 11.63545021 -1.327251729)
(66.43774104 9.600064272 -0.06994934363)
(-0.004436684916 0.2095641245 0.01643716814)
(0.8222855105 0.3518024584 0.04639439392)
(38.014866 6.513576844 0.1324826189)
(185.0160134 26.16174618 -1.803721468)
(84.52512469 10.32758499 0.01268924488)
(33.52000615 6.001231317 -0.03261594347)
(83.41841817 12.44084285 -0.2490126912)
(109.0003034 14.38091897 -0.552110444)
(85.99799688 11.36833957 0.4011862102)
(69.71387348 10.39959222 -0.06222754253)
(-0.02833867617 0.1298334671 0.02519644355)
(0.4388620073 0.1854751371 -0.04903351586)
(37.33341598 6.558451322 -0.3124344864)
(174.259548 26.56708726 -0.2870471398)
(84.77103757 9.864258959 -0.2357227076)
(35.36612272 5.90343612 0.09206907719)
(83.28412732 12.84460628 -0.5377081713)
(111.1168271 15.68991579 -1.155855561)
(84.15397462 11.18410332 -0.05449561408)
(72.58200515 10.58211304 -0.3774833849)
(0.00117465291 0.107057092 0.01415481903)
(0.2128303511 0.1638579028 0.02449424403)
(37.31117887 7.084233035 -0.3460763902)
(177.0822928 24.39829268 -0.5108181597)
(88.183264 9.909833419 -0.7847611969)
(34.55848626 6.618347165 -0.7701090722)
(80.43638955 13.62138083 0.1918560434)
(114.4148437 16.08187049 0.09400753738)
(84.7726138 11.33540936 -0.6949480417)
(68.86194454 10.06241557 0.563507417)
(0.001821836096 0.05549539714 0.005905391585)
(0.5949865776 0.1526872252 -0.0007374444162)
(37.99072357 7.033565928 -0.6310764727)
(182.8789833 26.575876 -0.8657550867)
(86.87946373 10.75097981 -0.1408311115)
(35.49523933 6.166666297 -0.05004422493)
(75.0735346 11.81610093 -0.8414692264)
(113.6415406 16.3226411 -0.07634798509)
(85.13230565 10.96927337 -1.343680777)
(68.06683238 10.70047133 -0.8719658061)
(-0.0001524409488 0.05005873846 0.008408621346)
(0.3760261792 0.1803625624 -0.05222576926)
(33.4457328 6.883374389 0.4300012037)
(167.0086315 27.20281047 -0.07966900216)
(81.96919077 10.38390385 0.4431977808)
(37.34449817 5.626318279 0.1897015914)
(78.42656636 12.95531474 -0.3535696401)
(112.1434999 17.21690036 -0.2802083765)
(85.03294396 11.96583878 0.6020301811)
(73.30922163 10.87779042 -0.5094144107)
(24.47434585 0.1557648912 -0.8971279193)
(21.60753042 0.3480354414 0.09704595607)
(21.77570044 0.7549572639 -0.4673992643)
(19.56040178 1.207704627 0.3150796011)
(20.08653759 1.824658929 0.04417578795)
(18.01279604 1.672034853 -0.3023957027)
(19.43909247 2.887763183 -0.1745774918)
(20.96549913 1.392655953 0.974391795)
(17.82164888 2.179197431 -0.2800387301)
(19.94511363 1.930153503 0.5306866325)
(19.39499112 1.372070544 -0.1680689383)
(22.01414855 3.807068703 0.1815869411)
(19.88729029 2.793813192 0.198572555)
(20.24448105 2.436019442 0.1405356065)
(21.34314053 1.824776915 -0.002648289014)
(20.08957248 3.103368528 -0.09262248395)
(21.79783648 2.419177372 -0.4408413386)
(19.57941648 3.679819071 0.06904067678)
(20.35652092 3.515966375 0.8612471588)
(17.00911538 3.529252343 0.2076187464)
(18.97286269 2.235224455 -0.6095754165)
(19.26741413 4.755571972 0.1574464192)
(18.76546913 2.961127611 -0.3454897073)
(16.82510652 4.337958555 0.6237321478)
(18.87588292 3.567214647 -0.8508239405)
(16.41087797 4.303715841 -0.467516183)
(17.7100853 4.355350796 0.4896055469)
(18.9312638 5.707796512 0.4167779782)
(16.77415347 5.650565339 0.02196478481)
(18.85562194 4.776684354 -0.0037277329)
(37.66570206 4.215839888 0.4860818719)
(33.8019611 2.202294764 -0.1204406987)
(28.76554264 2.53198677 -0.7611359122)
(29.49001627 2.2242698 -0.0494506272)
(27.53508999 1.726849163 -0.6576306629)
(26.7613158 1.949467343 0.456429959)
(25.25862246 2.095700659 0.1066211427)
(25.95979 2.203105805 0.6434863932)
(26.69902003 2.525397888 -0.3923634956)
(24.44625988 2.54504885 -0.06663136722)
(25.22149703 2.043688991 -0.3634045601)
(22.3102705 2.533344624 -0.2066871285)
(27.07691309 4.116593462 -0.2554096749)
(22.17352536 2.619671436 0.3261071406)
(24.97080779 2.465294632 -0.8032600552)
(23.28039741 3.461483679 0.1704813962)
(22.27677541 4.241211634 1.04499193)
(22.15746399 2.664484966 -0.02890310485)
(23.13039421 3.661729649 0.4655691574)
(24.43989904 3.13057899 0.8349116283)
(21.8674883 2.327709215 -0.4973443343)
(21.44649881 3.701812029 0.1263773648)
(22.24630339 5.19052922 0.1979030332)
(20.80704892 3.494404323 -0.1066038684)
(19.88080473 3.398679161 0.1301897389)
(20.8477718 4.683054724 -0.0127182314)
(21.7513377 4.410156344 0.4938911776)
(19.23901764 5.298137037 0.8064501376)
(19.48316412 5.16139996 -0.7877636135)
(20.34933967 5.51255181 -0.4711636263)
(60.02604413 8.201740618 0.2397425238)
(56.51361897 6.425152275 -0.709099471)
(46.82994722 5.531588988 -1.020423532)
(40.72433067 3.449434937 -0.1381348747)
(42.56098837 4.048726539 1.047491071)
(38.10627035 3.344705633 -0.8504236576)
(34.62161183 3.712644251 -0.186276555)
(32.830562 3.169457245 0.7947718811)
(33.3387316 3.251549247 -0.184684633)
(30.17614898 2.923984395 -0.1325078075)
(30.01598464 3.065449882 0.2641317055)
(30.70734006 3.392556542 -0.4020931828)
(28.25476231 3.067007575 -0.1382042673)
(28.31189888 3.461016997 -0.5266502153)
(29.56796901 3.372908496 -0.2931046726)
(27.31752011 3.761210114 0.2492681567)
(27.44600975 3.757799314 -0.2018545126)
(28.18105632 3.838341888 0.1372736682)
(27.54644344 5.132117876 -0.9026501314)
(25.94132404 4.386557695 -0.01184672381)
(26.42165062 5.417946792 0.06752038488)
(25.6330799 4.922568652 -1.068782851)
(22.97204151 4.493151273 -1.085168648)
(24.02223982 4.706070221 -0.6818218376)
(23.82677663 5.025110601 0.4763189381)
(21.57907351 3.965668992 0.1489557246)
(22.62336485 4.986233848 0.8969789182)
(22.69108094 4.551143658 0.2087773128)
(24.30762104 5.757284245 -0.3433790124)
(22.66172416 5.251640524 0.2887507172)
(81.76429153 14.97265506 -1.019548562)
(77.81055839 12.49126167 0.8084547013)
(62.2787528 9.155036153 -0.8093091841)
(60.08002707 7.613139909 0.1511689291)
(58.30415885 5.776461528 -0.7393137757)
(49.58610438 6.181417145 -0.2901284938)
(47.79998583 6.103007627 -0.6463248641)
(47.06658648 4.476193925 -1.126043041)
(41.86661658 4.950636088 -0.4021063757)
(40.4604043 4.112672565 -0.2630945316)
(40.62749066 3.777859652 -0.4852715764)
(37.27015914 5.456690889 0.4482369805)
(36.82467666 3.3584082 0.3110435292)
(36.32933825 4.473865143 -0.6619366216)
(32.70276014 5.353218772 -0.8848337808)
(32.70630363 2.975158516 0.4782643962)
(32.05873025 4.564182198 -0.1532452404)
(31.13317809 4.420514742 -0.6258169387)
(31.46054234 5.143424649 -0.02951750499)
(30.92717946 4.513772452 -0.3837903566)
(32.09114494 6.323098204 -1.168934781)
(28.53566511 5.807154927 -1.093756875)
(29.58832839 4.39244213 -0.6970146171)
(30.78343061 5.813131531 -1.301270732)
(29.59184949 5.757724474 -0.7910706153)
(25.26532399 3.617706877 -0.289777532)
(27.65869209 5.261772112 -0.2228805914)
(29.23588487 5.567113118 -0.2171257874)
(26.27622074 5.707650292 0.1698025717)
(28.78490926 5.226243664 -0.09353912357)
(99.13748654 21.17251037 -0.7834349871)
(95.03604072 17.84577844 -0.7411676041)
(80.35722959 14.34891778 0.2020077562)
(77.61370508 12.99494129 -1.380187315)
(69.51837013 11.54924871 1.062462093)
(65.47834699 8.428625944 -0.9785833727)
(62.52923002 9.297680954 -0.6569068756)
(58.64216959 8.161373239 0.2280268751)
(56.14991566 7.193009911 -0.4355715182)
(48.3829263 6.625456806 0.4259851673)
(46.90882337 5.76130308 -1.654401046)
(46.25093512 6.104082821 -0.09759973487)
(42.64582986 5.236656382 -0.08738687381)
(41.3500288 5.373405429 0.6211914948)
(38.83941365 4.609693292 -0.02548013599)
(40.06366821 5.652584461 0.3109044731)
(39.86035699 5.298869702 -0.5529779531)
(37.14736511 4.70722408 -0.6204476586)
(38.84182838 5.560201739 0.08508119068)
(35.8646895 4.383255664 -1.105088339)
(35.31423222 5.436339672 0.21424553)
(36.80077441 6.250091014 -0.5679150645)
(33.41897952 4.90910837 -0.3315728901)
(34.4551536 6.968724773 -0.4253958057)
(32.49679998 5.857110837 0.06748161558)
(33.75544618 5.259381006 -0.08850511346)
(33.25073607 5.917817187 0.05923048133)
(30.06273465 5.852983565 -1.210499174)
(27.25054832 4.405119192 -0.04338913524)
(29.27769385 5.888507305 0.1549634532)
(91.48913111 18.86206665 0.3440116961)
(106.8867178 21.06644283 -0.6490825239)
(91.90974903 19.29075252 -0.8926935013)
(89.33390795 17.82048346 0.9681343986)
(86.06923671 15.15264749 -0.3890122557)
(81.08931023 14.1959395 -0.2750838828)
(72.9022764 12.06297957 0.6793877164)
(67.18611157 10.89933525 0.2409120708)
(64.62653504 9.458734388 -0.1890743504)
(61.9073989 9.403914602 -0.2243209876)
(59.52265387 8.074845976 -0.2324777413)
(55.34673046 8.067050838 -0.4913152547)
(52.23400118 7.707447462 -0.04822647229)
(53.87297384 7.001344705 -0.2078509607)
(50.95912614 7.076091776 -0.2943220029)
(46.81723717 7.798049291 -0.6317816465)
(49.84136544 6.739383014 -0.1515388136)
(42.88884998 5.652196787 -0.5312841414)
(42.04369535 7.389407346 0.1953852905)
(43.44482869 6.518158388 0.6752728418)
(41.14410327 5.964300496 0.3388529226)
(40.43874249 6.436234824 -0.7777361394)
(39.42642433 6.724531863 -0.5389177585)
(37.66267692 7.17750609 -0.1577968859)
(39.67467917 6.458068722 -0.7410855714)
(37.68732638 6.38225678 -0.9816086154)
(37.58055102 6.065837852 -0.2200710854)
(36.61295981 7.298052935 -0.2316137771)
(33.58510297 6.453781346 -0.01087069106)
(37.83106233 7.122901568 -1.662181598)
(81.78970796 14.87801175 -0.1509045702)
(96.40720125 18.28363936 -0.8944258669)
(96.83000959 19.87296555 0.5064648253)
(94.74907197 21.03293818 0.1280906693)
(94.74236825 19.52932238 0.843034313)
(92.05322881 17.33484216 -1.103703501)
(85.07675196 16.00829356 0.5283734212)
(81.27253401 14.76051298 0.04218843394)
(80.83444338 12.99450765 -0.9505566145)
(75.54384208 13.70686388 -0.2825352444)
(70.9105061 9.898531097 0.2701216329)
(65.13984512 10.13232541 -0.3329520889)
(60.09487669 9.557689482 -0.4640645557)
(61.3892499 9.54165224 -0.6315981566)
(57.55723059 8.05096701 0.1242085978)
(56.8418299 7.735009654 -0.8624676326)
(52.50080697 7.202726473 -0.705986255)
(57.70440261 7.957656947 -0.5805978812)
(49.5740745 7.016071863 -0.9214635237)
(48.65119051 6.880116242 -0.8511558317)
(51.55135626 7.040293288 0.05994553069)
(47.68369394 7.537954899 0.3601518558)
(44.9459196 7.703676215 0.5593784968)
(44.29754849 6.586352781 0.2357131894)
(43.89723311 6.549549043 0.0588713126)
(43.34406857 7.214148669 -0.7879475018)
(41.23123263 7.115090417 0.1170831664)
(40.97342505 7.452214185 -0.6912896374)
(44.62214414 7.336062304 0.3739188185)
(38.51900404 6.492706825 -0.2934631621)
(86.57611639 13.70351674 -0.09124146974)
(94.68869761 15.81493509 -0.8393769504)
(95.74082605 16.66429772 0.5486060547)
(89.14760227 16.66308652 -0.6112288964)
(99.89516169 20.98457493 -0.5052615962)
(106.7216852 21.79102257 -0.2018250874)
(99.66899926 19.69282416 -0.860074681)
(93.21270611 17.4021201 0.4580570143)
(94.39004065 17.98966374 -0.09557752612)
(88.35623355 15.80029783 -0.13807486)
(81.33648109 14.29666758 0.2546416624)
(79.64709918 13.22863355 -0.07673112766)
(78.78682251 12.71003636 -0.7149650724)
(71.67652438 11.11164235 0.2477449339)
(68.54679439 11.12161594 -0.6934170822)
(67.86052721 10.31149054 -0.1173991882)
(61.45684465 9.069278766 -0.9543227682)
(64.28017501 9.694052241 -0.2200774563)
(57.31722978 9.259033816 -0.8943097747)
(55.48246473 8.482939974 -0.113649461)
(54.73749722 8.052903691 -0.4855047079)
(59.85393286 9.460593691 -0.4691011138)
(51.16338794 8.65876884 -0.6384746318)
(54.84650792 8.388012751 -0.3833232215)
(52.01124444 9.307328553 -0.4071328588)
(49.76487002 8.494950014 -0.4274991428)
(45.31945567 7.857044905 -0.09765488876)
(48.67652885 8.184186125 -0.5774915152)
(44.86505447 7.987015128 -0.4672279556)
(44.85298336 7.914448346 -1.067965965)
(85.49532691 13.16897036 0.1114750079)
(92.08032224 15.55296859 0.07629806731)
(85.07167345 14.86805376 0.1238623955)
(90.11227145 15.49771704 -0.09540464609)
(87.23227028 16.35385949 0.3268349683)
(97.4098202 18.28374829 -0.5796579516)
(98.02229856 20.02464885 0.912942501)
(97.96276644 20.16604396 -0.909249066)
(98.91627924 19.00528678 -0.04860721988)
(92.98138801 17.9710285 -0.5864450194)
(90.51735805 16.13438304 0.596365128)
(91.45738583 16.94454473 -0.02272919711)
(82.61117651 14.44123225 0.3598414991)
(80.50052803 14.2693912 0.1174377)
(82.18829133 13.70382212 0.1606805202)
(77.80665413 12.32794469 1.089249274)
(73.70303573 12.33472496 -0.4138485109)
(68.15895779 10.77322166 0.4125265795)
(71.17655163 10.22869097 0.609749376)
(64.58123272 9.883068768 -0.2392165881)
(65.86994181 10.74725312 -0.2357195421)
(62.5873568 9.765595822 0.2267306492)
(60.45783341 9.508298274 0.2978667246)
(58.61228721 10.52337682 -0.01109232743)
(61.81741764 9.525887422 -0.3365102175)
(56.08736691 8.791910985 0.105856792)
(57.65387886 10.27209888 -0.766741256)
(53.05209098 9.776206622 0.1002958598)
(57.80175053 8.484593601 0.6142823901)
(48.6430668 8.753277022 0.1131070299)
(79.04915715 11.49282462 -1.152439631)
(96.22234822 14.34544444 0.6129974526)
(81.72584938 12.11849427 0.4898170536)
(82.78322006 14.14335679 -1.017876198)
(90.99822217 15.71590513 0.8659744862)
(91.29974422 16.38905486 0.2467818864)
(96.22443234 17.06415167 -0.7836115228)
(91.57780637 17.92503108 -0.2094481276)
(97.70799763 19.39805348 -0.1671030806)
(107.1505014 21.97327616 0.9833405921)
(93.8228048 18.98195705 -0.1936105648)
(96.77807146 18.9383217 0.2589234645)
(98.45640844 18.02259898 -0.4191437686)
(88.69314122 15.59551567 0.2726994944)
(86.30310959 16.75137078 0.8578357433)
(83.19681664 13.94530022 -0.5717398983)
(84.89635 13.89098815 1.272901909)
(76.41089412 12.81281482 0.2898377129)
(81.72092175 13.33102427 0.1982250089)
(74.98849059 12.06553537 0.1343212084)
(71.82222298 11.48765975 -0.01051162256)
(70.11759956 11.79137041 0.2959825384)
(70.11846984 11.41026667 -0.5034822267)
(67.91634189 11.2013663 0.4451333771)
(67.16678327 10.82767228 0.6450858073)
(61.27755449 10.16077427 0.3189888232)
(61.88793283 10.62203349 -0.7271880907)
(60.72937052 10.958757 -0.3794395985)
(62.00859008 11.12069459 0.3916363325)
(60.05511531 10.35053121 -0.07746368233)
(83.02016255 13.20264127 0.0732262434)
(93.32046393 12.8361698 -0.1965689206)
(85.46150852 12.41126991 -0.1735755318)
(84.8938707 13.14478344 -0.06276374614)
(86.25894267 13.11954169 0.4058729235)
(91.40308823 13.99798386 1.040161194)
(90.28341409 15.42728124 -0.5027845015)
(93.56450626 16.88369301 1.053353245)
(95.92693596 17.11653713 0.001761177395)
(98.2436142 17.85878506 -0.497414491)
(95.53887855 18.89224316 -0.4593475085)
(98.88499028 19.84734915 0.3450623054)
(103.2320797 20.28939354 -0.05841489919)
(99.41770376 18.03102147 0.4956440938)
(95.18998819 18.86737807 0.5989633129)
(92.59210643 16.60594127 0.08604348941)
(94.09118864 16.99349005 0.03030344706)
(88.96345148 15.08035936 0.6238028036)
(84.80021064 15.12920258 0.2137711065)
(83.71334393 14.4158309 0.1542736703)
(75.43289575 12.55633098 0.9166637373)
(82.88465272 13.53302391 0.7163155503)
(76.42531483 12.80761249 0.3241925886)
(70.65767439 11.68899665 -0.721116337)
(72.78540089 13.16314562 -0.02052070186)
(74.65594201 11.91574339 -0.4864982957)
(71.08734144 11.47117275 0.432898202)
(67.54054439 12.42111368 0.2538316194)
(64.56297224 11.71185751 0.0334937082)
(68.65135287 11.97995612 -0.1577184422)
(79.55036748 11.57541731 -0.5543632778)
(95.88964272 13.66005021 -0.05618583521)
(84.5458523 12.71179607 0.3067279182)
(83.85627504 12.63497323 -0.7750344533)
(83.76598832 12.4707043 -0.12304197)
(89.05150127 13.46974763 -0.2239944345)
(85.17588628 13.20896842 -0.1212762797)
(84.17756745 13.60753162 -0.1257952029)
(92.62669316 16.05793922 0.3889668539)
(93.18556826 17.67933226 -0.4576157513)
(95.82508167 18.22564604 -0.5736781561)
(97.91536108 19.43022285 -0.1320824552)
(100.7081141 20.05752963 0.1486995056)
(95.43494439 17.650822 -0.425888059)
(96.98510011 19.20897841 -0.2645087186)
(101.0273056 18.14017743 -0.3213006913)
(95.79366979 18.01656499 -0.004242847556)
(90.65132427 16.15722298 0.8506533876)
(96.98930459 17.42608951 -1.144081434)
(90.34311772 16.06119427 1.198538799)
(88.75580493 15.66388569 0.5558907896)
(84.00638161 14.55834427 -0.2685495436)
(84.48121482 12.95349102 0.3197002198)
(84.4329232 15.14958104 0.4132178881)
(79.21415424 13.0783591 0.3679342521)
(82.21167445 13.88210812 -0.2991652292)
(76.11874299 13.28375899 0.2736882318)
(74.4141772 12.09119517 -0.8734983719)
(77.58021458 12.70382204 0.7440894325)
(71.93047369 13.06203194 -0.5706264713)
(84.16214649 12.47726993 0.3392794413)
(89.49866791 12.30169096 -0.06931699921)
(82.0367269 12.80465743 -0.3379207815)
(81.16532234 11.69942001 0.1998701825)
(87.89052301 12.69053089 -0.9641787851)
(89.59209631 13.05424026 -0.7067745603)
(86.24857254 13.47337292 -0.1449962349)
(81.8465983 12.59076713 -0.948601137)
(98.15653116 15.14359653 -0.4479193135)
(92.6188325 14.91555913 -0.695946657)
(88.78058904 15.25213188 0.1641775612)
(98.56585388 15.73209156 -0.2396487404)
(95.15810704 17.03545731 -1.51465961)
(101.4002411 20.10822714 -0.0191302561)
(100.4983558 19.83898953 0.7828662733)
(105.0391186 20.80300406 -0.2365246365)
(98.47631686 19.56418665 0.3131293299)
(98.33778835 19.28087393 -0.773341888)
(93.01990933 17.02113245 0.01357692857)
(100.0626641 19.13344958 -0.2503990449)
(90.4733851 16.75366667 -0.2823329409)
(91.79948065 16.29129025 0.5366467753)
(90.03561244 15.44021491 -0.6355263853)
(84.40026767 14.86664121 1.184879757)
(86.64970384 14.89164632 -0.4203855874)
(81.27318337 14.26873933 0.4993353568)
(81.90775559 14.23328426 0.3478619692)
(77.485549 13.48633669 0.6914349575)
(80.88891207 14.54890335 0.7047929798)
(77.91101173 13.60705064 -0.3802826405)
(80.85874292 12.22288146 -0.6267992338)
(95.10909639 14.14901723 0.02528020512)
(82.63762784 12.58031157 1.397881816)
(82.04187503 11.6126562 -0.5340570908)
(81.42209543 11.54470211 0.5244222384)
(85.09261778 13.04615733 0.7442873373)
(86.03694422 12.95182058 0.2698795821)
(79.3246038 11.23854545 0.1946249062)
(85.07869621 12.58150791 0.05980078271)
(92.29454304 15.05627078 0.2792824868)
(81.97355994 12.59760424 -0.129194516)
(88.15319668 15.4785927 0.1186115719)
(94.12782102 16.16727162 -0.6004637266)
(87.82939702 16.02229137 0.4559550442)
(100.2369026 19.48227108 -0.2629337555)
(93.03007749 17.31424525 -0.9253994069)
(98.66099751 19.55433875 0.3024667676)
(102.821446 20.07701883 0.1640447452)
(97.77689999 19.01219115 -0.2412328229)
(96.19637482 17.72549446 -0.3378747444)
(98.85716148 18.86390737 -0.1876185549)
(93.2935472 17.48552427 -0.633507941)
(94.19223503 17.06997812 0.0904412536)
(95.0127448 17.03129342 1.214600427)
(86.49659555 15.49129377 -0.2429171826)
(90.64532528 15.45443291 -0.403860381)
(90.76998606 15.73240953 0.8018721193)
(88.88198505 16.65583031 -0.3744100711)
(87.76353607 14.26647702 0.1385222306)
(82.86881128 15.89932222 0.5369622459)
(80.47768497 11.75228481 0.1355855929)
(90.66592538 12.63243622 -0.4572572572)
(84.87038716 12.31853927 -0.3119588089)
(82.05945048 12.09592894 -0.2899331738)
(83.7550949 11.79591013 0.286698656)
(86.30599323 12.77891204 -0.4756015479)
(86.20934439 12.07491036 -0.5270290274)
(83.91244375 12.85819266 0.6176245024)
(88.29619044 12.84625996 -0.3507484187)
(83.80940073 11.73989586 -0.2699105107)
(82.16460816 13.51668304 -0.5347470948)
(89.61987628 13.00207264 0.2577397228)
(95.13131898 16.06441674 0.0008224777815)
(84.76804377 13.80928208 -0.6036691388)
(94.80166299 14.87318297 0.1519141875)
(95.13814172 16.97815471 -0.3295817348)
(92.79968138 16.89958572 0.4294999246)
(104.6937357 20.05677435 -0.1931642872)
(98.18395412 18.48169642 -0.5186685017)
(98.01619862 18.12257288 -0.01302316479)
(103.8925547 19.4906596 0.2576413749)
(93.96999653 17.45741987 -0.1210658596)
(97.09260592 18.72726564 -0.1161811761)
(96.02994019 17.43123303 -0.6565241436)
(98.95255958 17.77274865 -0.318402151)
(89.00425636 15.94412325 0.6466394008)
(87.03006302 16.0316922 -0.4389515551)
(91.60253442 17.05861586 -0.6033209147)
(85.64687716 15.40810613 0.3277209398)
(90.92562576 16.43021987 -0.1748099695)
(84.52853299 12.80184703 -0.9177631306)
(92.49686255 12.1484774 -0.6722791292)
(82.97123866 11.86868238 0.9269628233)
(80.95980273 11.54803737 -0.5644384287)
(87.49845401 12.85736342 -0.1541987404)
(91.26301287 13.26701206 0.1835271019)
(78.49124233 11.33306989 0.09035821741)
(83.05537076 12.52280801 -0.004927303452)
(90.26432296 13.59494192 -0.1870213902)
(86.8219636 13.60785425 -0.3883732261)
(81.90749785 12.03022069 0.5012862791)
(82.47771296 12.16564702 0.369110062)
(81.36531118 12.31496567 0.2133854573)
(83.97106844 13.5880158 0.1040181846)
(89.22990707 14.65356735 0.5160797221)
(89.93013089 16.13701067 -0.9468794677)
(89.29958838 15.3758845 -0.5162033645)
(95.99923141 17.23461096 0.7936857273)
(95.30663876 16.79621261 -1.258344072)
(96.1463913 18.73964346 0.4163805786)
(100.7605301 20.01385267 0.3304024183)
(102.8651551 19.26125292 -1.697429055)
(101.1550705 19.0762799 0.9585634098)
(93.14462415 19.03544296 -0.5754766789)
(97.70484765 18.86259566 0.1966010898)
(96.37725214 17.97020685 -0.8212549631)
(90.23975712 16.63616721 0.05747497864)
(93.6392878 17.92956739 0.2115320576)
(92.60385998 16.60493763 0.1317906675)
(91.10380696 15.95611398 0.979039915)
(79.97457254 11.60584119 -0.129630235)
(86.4000032 11.76014138 0.03587619855)
(90.80335862 12.74476214 -0.2390549128)
(76.6790463 10.99922558 0.265533193)
(84.47066644 11.44314489 -0.05360834456)
(84.81781733 12.01990671 -0.385694834)
(85.68290101 12.28488657 0.06926037803)
(84.74579875 13.04585862 -0.7920801934)
(84.19116053 11.7512992 0.4989221152)
(86.99687158 12.33119033 -0.0536146249)
(85.56348395 13.2570705 0.08493671426)
(87.97925307 13.04717823 -0.2176345656)
(92.6293808 14.77628705 -0.5143866218)
(81.18411589 11.89776524 -0.5062820584)
(91.15162729 13.7295634 -0.05811362241)
(87.77455894 13.62037452 -0.07213418803)
(89.60762115 14.30141205 -0.3612271283)
(87.74660479 14.24142722 0.02637387493)
(92.1329111 16.06536177 -0.01800222908)
(95.93151588 17.09623053 -1.274051252)
(98.74947638 17.76904018 0.5736482803)
(98.49697529 17.07054662 -1.309538495)
(105.3134958 19.57688639 -0.2376243674)
(102.7288738 19.01399816 -0.01416777388)
(103.6730284 18.14706185 -0.7639032183)
(105.0527745 20.13798128 0.3833911537)
(105.8803312 18.58069102 1.432195336)
(98.8409767 18.05914191 0.3106569624)
(97.12123591 16.92527904 -0.4494031071)
(97.9983505 17.00606397 -0.7625808383)
(81.08564178 12.09302154 -0.2550209246)
(86.09601998 12.09346308 -0.4128082045)
(82.64693612 12.11875408 -0.622037516)
(81.9211486 12.46710301 -0.1969071852)
(82.73444874 12.03620034 -0.9849201999)
(88.60025542 12.78678909 0.1613816862)
(79.46563388 11.25659027 -1.234305229)
(80.86680085 11.66580499 0.2288127111)
(87.98802254 12.40845275 -0.2473639418)
(82.48329295 11.72557248 -0.6392990535)
(88.16094864 12.72072511 0.2243740848)
(81.65828315 10.91284703 -0.898579431)
(88.18718074 12.56184605 0.139245075)
(87.2880117 13.26807638 0.2854870276)
(87.5908436 12.61342635 0.5087512851)
(86.37580466 13.56374133 -0.2133348325)
(92.19400726 13.53204607 0.3648111841)
(91.00225537 13.23373174 0.1440048758)
(87.59050123 14.3683313 -0.7269404329)
(89.45751424 14.29883391 1.128766073)
(90.88551761 15.11477027 0.04382743853)
(94.76076721 15.39661281 -0.9115286012)
(94.48604844 17.9604297 0.5081187746)
(99.79592886 18.34011605 0.167909654)
(103.5158786 18.83996402 -0.3033490032)
(96.54931236 17.18186315 -0.179299717)