/*--------------------------------*- C++ -*----------------------------------*\
| =========                 |                                                 |
| \\      /  F ield         | OpenFOAM: The Open Source CFD Toolbox           |
|  \\    /   O peration     | Version:  v1912                                 |
|   \\  /    A nd           | Website:  www.openfoam.com                      |
|    \\/     M anipulation  |                                                 |
\*---------------------------------------------------------------------------*/
FoamFile
{
    version     2.0;
    format      ascii;
    class       volScalarField;
    location    "0.00014";
    object      rhoM;
}
// * * * * * * * * * * * * * * * * * * * * * * * * * * * * * * * * * * * * * //

dimensions      [1 -3 0 0 0 0 0];


internalField   nonuniform List<scalar> 
1300
(
0.014612
0.00465
0.00465
0.047162
0.033874
0.052474
0.023912
0.048486
0.03255
0.015274
0.019262
0.029224
0.033874
0.130184
0.029224
0.029886
0.047162
0.076386
0.04185
0.029224
0.00465
1e-277
0.037862
0.123548
0.033874
0.028562
0.051812
0.05911
0.05115
0.08236
1e-277
0.010624
0.0186
0.098958
0.053136
0.029224
0.067086
0.06045
0.038524
0.062436
1e-277
1e-277
0.033874
0.109598
0.039186
0.033212
0.071074
0.089674
0.039186
0.061774
1e-277
0.00465
0.052474
0.094986
0.038524
0.014612
0.043836
0.101622
0.056462
0.0558
1e-277
0.00465
0.02325
0.110922
0.028562
0.023912
0.066424
0.072398
0.052474
0.034536
1e-277
0.00465
0.019262
0.071074
0.062436
0.019924
0.053798
0.033212
0.038524
0.0279
1e-277
0.005312
0.0279
0.111584
0.038524
0.029224
0.090998
0.033212
0.019924
0.028562
1e-277
1e-277
0.00465
0.09631
0.051812
0.019262
0.038524
0.051812
0.073722
0.02325
1e-277
1e-277
0.037862
0.085686
0.053136
0.028562
0.053136
0.066424
0.089012
0.033874
0.00465
1e-277
0.029224
0.114248
0.047824
0.014612
0.049148
0.052474
0.029886
0.053798
1e-277
1e-277
0.024574
0.111584
0.014612
0.0093
0.0372
0.043174
0.049148
0.033212
1e-277
1e-277
0.029224
0.130862
0.0279
0.034536
0.062436
0.08236
0.077048
0.047824
1e-277
1e-277
0.033212
0.092984
0.038524
0.037862
0.028562
0.08236
0.0186
0.037862
1e-277
0.00465
0.043836
0.10096
0.033212
0.028562
0.057786
0.065762
0.069072
0.042512
1e-277
1e-277
0.028562
0.094986
0.057786
0.019262
0.033874
0.0186
0.067748
0.048486
1e-277
1e-277
0.02325
0.096972
0.029886
0.042512
0.053798
0.066424
0.043174
0.0279
1e-277
1e-277
0.037862
0.100298
0.034536
0.019924
0.063098
0.07771
0.028562
0.066424
1e-277
1e-277
0.0372
0.067748
0.037862
0.0186
0.057124
0.057124
0.019262
0.033212
0.03501723263
0.02735680092
0.03501723263
0.02407187633
0.03501723235
0.05360984119
0.01258122909
0.02681150999
0.02735680114
0.0235265854
0.01586615378
0.01969636965
0.0470531708
0.01149064714
0.04868904359
0.04759846173
0.01532086285
0.03884744838
0.01969636965
0.02352658521
0.02024166058
0.03939273931
0.02735680092
0.02407187633
0.01586615391
0.02681150999
0.03173230782
0.03884744838
0.02461716706
0.04650787987
0.01586615391
0.0525192589
0.01969636965
0.05088338654
0.0503380952
0.04267766412
0.01969636965
0.03939273899
0.01586615391
0.01532086298
0.03830215713
0.02735680114
0.03993803024
0.02735680092
0.01915107873
0.02790209207
0.02681150999
0.00766043149
0.01258122909
0.0361078142
0.03884744838
0.01532086298
0.02790209184
0.03556252356
0.02790209207
0.03501723235
0.03064172596
0.01915107873
0.0432229547
0.04868904359
0.03556252356
0.02735680092
0.05525889322
0.02024166058
0.02790209184
0.04759846173
0.0235265854
0.02735680092
0.04650787987
0.03610781449
0.01203593807
0.01532086298
0.0235265854
0.03173230756
0.01641144484
0.03884744838
0.03173230756
0.03064172596
0.01532086298
0.03884744806
0.02407187633
0.04376824598
0.04759846134
0.03610781449
0.01969636965
0.02352658521
0.01969636965
0.01203593816
0.03556252327
0.02681151022
0.05525889322
0.04759846134
0.06620424952
0.03993803024
0.02407187613
0.04267766412
0.03556252356
0.03993802991
0.05634947508
0.03118701689
0.02681150999
0.03610781449
0.03610781449
0.03556252327
0.01532086298
0.01586615391
0.0361078142
0.02790209207
0.01203593816
0.01969636949
0.03118701689
0.03556252356
0.007660431427
0.02461716726
0.01532086298
0.007660431427
0.03501723263
0.02298129447
0.03993802991
0.02790209207
0.04979280469
0.04650787949
0.03556252356
0.03556252356
0.03939273899
0.03556252356
0.03501723263
0.04814375226
0.03173230782
0.04322295505
0.06182874234
0.01149064724
0.02681151022
0.03118701663
0.01969636965
0.02735680114
0.02407187613
0.05142867747
0.0235265854
0.03939273899
0.04596258894
0.028447383
0.02133224227
0.03173230782
0.04376824598
0.01203593807
0.02024166058
0.01969636965
0.03884744806
0.03064172596
0.06784012231
0.09902713839
0.07933076955
0.04322295505
0.05525889276
0.05634947508
0.04596258894
0.05142867705
0.06346461564
0.0470531708
0.01203593807
0.03227759875
0.03719839635
0.02352658521
0.05854381803
0.03993803024
0.03993802991
0.02681151022
0.01969636965
0.02681150999
0.03064172596
0.04048332117
0.03173230756
0.04814375266
0.01969636965
0.03118701663
0.02681151022
0.0235265854
0.03118701663
0.03993803024
0.05908910896
0.02681150999
0.0519739684
0.0421323732
0.03556252327
0.05142867747
0.04157390303
0.04650787949
0.06838541324
0.04431353691
0.03556252327
0.01532086298
0.02790209207
0.02790209184
0.03118701689
0.05525889322
0.04213237285
0.01532086298
0.04376824598
0.02024166042
0.03993803024
0.02024166058
0.03064172571
0.05251925933
0.01532086298
0.05142867705
0.01532086298
0.03610781449
0.04213237285
0.03173230782
0.05963439989
0.08370627553
0.04485882784
0.03610781449
0.07824018705
0.07604584473
0.04979280469
0.04650787949
0.05634947508
0.06510048843
0.04705317041
0.05744005694
0.03993803024
0.0361078142
0.02735680114
0.03939273931
0.03939273899
0.06729483138
0.03830215745
0.02352658521
0.02790209207
0.03556252356
0.03556252327
0.03118701689
0.03118701689
0.02407187613
0.03665310542
0.03501723263
0.01532086285
0.04759846173
0.05142867747
0.03227759848
0.0519739684
0.04979280469
0.0432229547
0.06674954045
0.04485882784
0.06784012176
0.03118701689
0.03610781449
0.03173230756
0.05142867747
0.04759846173
0.06346461512
0.03556252356
0.0235265854
0.0361078142
0.03665310542
0.04322295505
0.0432229547
0.05963439989
0.02681151022
0.02735680092
0.03118701689
0.03939273931
0.01969636949
0.02681151022
0.05088338654
0.03118701663
0.03556252356
0.05471360229
0.06838541268
0.02681151022
0.08753649197
0.08207040276
0.04376824598
0.04759846173
0.02078695134
0.06237403378
0.04376824598
0.03884744806
0.07714960583
0.07112504713
0.06182874234
0.03939273931
0.06346461564
0.05689476554
0.03939273931
0.06072498175
0.05854381755
0.03939273931
0.05580418415
0.05580418369
0.05580418415
0.05416831136
0.02407187613
0.05033809561
0.03173230782
0.02352658521
0.06729483138
0.04814375266
0.04650787949
0.04650787987
0.05689476601
0.04267766377
0.06291932471
0.07987606048
0.07386468041
0.06784012231
0.05033809561
0.06017969033
0.04267766412
0.06729483138
0.07003446469
0.07495526287
0.03556252356
0.05689476554
0.04759846173
0.05744005694
0.0432229547
0.03118701689
0.04650787987
0.05580418369
0.05306455026
0.0235265854
0.06291932419
0.06620424952
0.05142867747
0.03227759848
0.03173230782
0.07878547862
0.06729483083
0.03118701689
0.05088338654
0.05854381755
0.06017969082
0.05963439989
0.05197396798
0.05908910896
0.06182874285
0.06838541268
0.05471360229
0.03447194171
0.05908910848
0.04759846173
0.06346461564
0.05854381755
0.06346461564
0.06017969082
0.05525889276
0.05142867747
0.06784012231
0.04213237285
0.05142867747
0.0470531708
0.04814375226
0.05088338654
0.03939273931
0.05908910848
0.05471360229
0.03993803024
0.03884744806
0.0519739684
0.03939273931
0.05854381755
0.06346461564
0.05908910896
0.04814375226
0.08097982158
0.05854381803
0.07386468041
0.05525889322
0.07824018769
0.09410634082
0.0990271392
0.07495526287
0.04705317041
0.0755005538
0.04759846173
0.06838541268
0.04322295505
0.04759846173
0.0793307689
0.05963439989
0.04540411877
0.06729483083
0.04759846173
0.0519739684
0.03939273899
0.03118701689
0.03064172596
0.04431353655
0.06838541324
0.07003446527
0.03501723235
0.04376824598
0.03118701689
0.06017969033
0.03830215745
0.03993803024
0.0596343994
0.05963439989
0.04322295505
0.02735680092
0.06291932471
0.06072498175
0.04923433411
0.0990271392
0.07987606048
0.06400990604
0.06565895859
0.03173230782
0.05854381755
0.04814375266
0.05963439989
0.05580418369
0.07440997194
0.08261569436
0.0596343994
0.05033809561
0.05251925933
0.07057975562
0.06291932471
0.04814375266
0.02078695134
0.04322295505
0.05306455026
0.05142867705
0.06017969082
0.02298129447
0.04267766377
0.05362302043
0.05854381803
0.04376824562
0.05963439989
0.07659113566
0.07987605982
0.05908910896
0.05689476601
0.06620424898
0.06674954045
0.05854381803
0.04759846134
0.07112504713
0.03884744838
0.03939273899
0.08918554399
0.0645551975
0.04431353655
0.06291932471
0.05525889322
0.06620424898
0.03993803024
0.05471360229
0.07331938948
0.06291932471
0.05580418415
0.02790209184
0.06784012231
0.0755005538
0.04759846134
0.04376824598
0.02790209207
0.08535532755
0.06620424952
0.0519739684
0.04431353655
0.07878547862
0.07440997194
0.06182874234
0.05634947508
0.05471360229
0.05854381755
0.07878547862
0.04485882784
0.06510048789
0.07769489676
0.0694759951
0.05854381755
0.0941063416
0.03993803024
0.03993802991
0.07112504713
0.0470531708
0.02790209184
0.03939273931
0.01586615391
0.06017969033
0.05525889322
0.02735680114
0.05142867705
0.05088338654
0.07003446527
0.03665310512
0.05525889322
0.06400990657
0.06237403327
0.0470531708
0.0519739684
0.05580418369
0.05744005694
0.07276091992
0.06838541268
0.06511366767
0.07003446527
0.05471360184
0.07003446527
0.06346461564
0.06838541268
0.06291932471
0.06346461564
0.07440997133
0.03447194171
0.07167033806
0.05854381755
0.05525889322
0.04376824598
0.0454041184
0.07495526287
0.05088338654
0.03064172571
0.05306455026
0.05908910896
0.03556252327
0.0519739684
0.06674954045
0.0503380952
0.06017969082
0.04322295505
0.04868904319
0.05088338654
0.06565895859
0.05525889276
0.05854381803
0.06237403378
0.0667495399
0.0579985271
0.0645551975
0.0667495399
0.0815251125
0.05251925933
0.05854381755
0.03719839635
0.03939273931
0.07495526226
0.09848184827
0.03173230782
0.03118701663
0.03556252356
0.02735680114
0.03173230756
0.06510048843
0.05525889322
0.04705317041
0.03282288968
0.03447194171
0.06017969033
0.06237403378
0.02735680114
0.05580418369
0.05525889322
0.04485882784
0.08261569368
0.05471360229
0.03665310542
0.04048332084
0.03556252356
0.0579985271
0.04376824562
0.04650787987
0.01532086298
0.03939273899
0.06017969082
0.04322295505
0.06237403327
0.06017969082
0.03884744838
0.03556252327
0.06072498175
0.01641144484
0.04759846134
0.02681151022
0.05033809561
0.05580418369
0.07112504713
0.03501723263
0.05416831091
0.04814375266
0.07495526287
0.05525889276
0.05908910896
0.03227759875
0.04759846134
0.07440997194
0.04650787987
0.05744005647
0.05033809561
0.04431353691
0.06620424898
0.05088338654
0.0279
0.0279
0.028562
0.028562
0.038524
0.028562
0.014612
0.028562
0.02325
0.051812
0.05115
0.053136
0.0279
0.033212
0.043836
0.029886
0.047824
0.023912
0.028562
0.0186
0.038524
0.039186
0.034536
0.034536
0.037862
0.023912
0.039186
0.0279
0.029224
0.019262
0.0279
0.023912
0.029224
0.033874
0.037862
0.03255
0.039186
0.0093
0.01395
0.0093
0.034536
0.038524
0.0279
0.028562
0.042512
0.043174
0.028562
0.039186
0.028562
0.0372
0.029224
0.023912
0.052474
0.042512
0.037862
0.033874
0.028562
0.00465
0.023912
0.037862
0.047162
0.047824
0.042512
0.049148
0.06841
0.019262
0.038524
0.0372
0.03255
0.019924
0.0372
0.043174
0.062436
0.034536
0.053136
0.033212
0.01395
0.014612
0.034536
0.033212
0.033212
0.06841
0.033874
0.0372
0.019262
0.047824
0.0186
0.053136
0.037862
0.024574
0.028562
0.028562
0.049148
0.033212
0.042512
0.049148
0.043836
0.019924
0.024574
0.01395
0.047824
0.052474
0.047162
0.033212
0.029224
0.0186
0.0372
0.0465
0.047162
0.037862
0.029886
0.023912
0.039848
0.023912
0.048486
0.051812
0.037862
0.042512
0.044498
0.00465
0.028562
0.042512
0.061112
0.052474
0.038524
0.039186
0.048486
0.084362
0.053798
0.034536
0.035198
0.075724
0.052474
0.071736
0.039848
0.033212
0.056446
0.047162
0.067748
0.043836
0.052474
0.057786
0.044498
0.076386
0.057124
0.07306
0.058448
0.04185
0.102946
0.047162
0.038524
0.072398
0.07306
0.057124
0.052474
0.05911
0.051812
0.047824
0.081698
0.07306
0.057124
0.066424
0.061774
0.063098
0.067086
0.081036
0.051812
0.071074
0.042512
0.048486
0.056462
0.090998
0.058448
0.08236
0.057786
0.058448
0.0465
0.0558
0.048486
0.067086
0.085024
0.052474
0.076386
0.057786
0.056462
0.077048
0.067086
0.05115
0.072398
0.10561
0.052474
0.092984
0.047162
0.094324
0.047162
0.06376
0.05911
0.062436
0.07771
0.090998
0.02891457144
0.04206187547
0.04337185715
0.05126340594
0.02365881554
0.03811610149
0.01905805075
0.01840305993
0.03811610149
0.05191839658
0.03220535488
0.04731763155
0.03877109213
0.02431380617
0.02365881577
0.02760459017
0.02891457115
0.06506570103
0.03746111086
0.02956956178
0.02891457144
0.05126340594
0.06899564415
0.02760459017
0.04797262218
0.03811610112
0.02760459017
0.06506570103
0.04797262171
0.01840306011
0.03346172585
0.02831496024
0.02831496051
0.07142880915
0.01802142966
0.04118962501
0.05276597144
0.04955893156
0.01866283771
0.04569498247
0.05727132834
0.03217891009
0.03153750221
0.04569498202
0.02380960305
0.04247244076
0.06049387001
0.03796708331
0.04633639034
0.02316819495
0.02316819517
0.06177668636
0.03282031765
0.05856964696
0.06241809424
0.04118962461
0.05276597144
0.05020033992
0.05662992047
0.0476192061
0.03089678546
0.0409811921
0.036567366
0.02773971301
0.03341029322
0.03152516248
0.05547942601
0.02773971274
0.03278191652
0.03593898898
0.05989325194
0.02773971301
0.04539501899
0.04539501855
0.05422267197
0.02773971301
0.04476664154
0.03593898898
0.03152516248
0.04602339557
0.03972443845
0.04665177302
0.02711133573
0.03719574302
0.04665177302
0.02648295872
0.04539501899
0.046023396
0.04855209098
0.02206913247
0.03274504433
0.04510700053
0.04325940569
0.05252715192
0.04387527037
0.04078106038
0.03089744907
0.03460752423
0.008651881138
0.01791962736
0.04449113545
0.02162970285
0.02286143302
0.05314301651
0.05931655284
0.02224556793
0.05191128635
0.01853549245
0.04387527078
0.05499061176
0.04510700095
0.03089744907
0.04078106001
0.03089744907
0.009267746226
0.03954932984
0.0401651953
0.04881707644
0.03460752423
0.0265715085
0.01756978648
0.03938105881
0.02605275888
0.02605275888
0.01817362801
0.03877721747
0.03453573128
0.03210576986
0.06603765974
0.03998490086
0.03393188928
0.009086814087
0.03877721747
0.0212074308
0.04846787325
0.02544891719
0.05574316176
0.03029424508
0.03210577015
0.04786403113
0.04726018987
0.05331320114
0.02605275864
0.03877721747
0.03877721747
0.04786403113
0.04362254536
0.03029424508
0.04422638665
0.05270935945
0.03803467501
0.0594282845
0.03387440876
0.05051547376
0.03030642101
0.01723334376
0.02971414251
0.01664106485
0.02139361001
0.04694748628
0.02555387604
0.05229231006
0.03921923254
0.05229230959
0.04694748628
0.04813204381
0.03862695343
0.05586029754
0.05942828503
0.04813204338
0.0249615975
0.04694748628
0.03565124474
0.02912186375
0.03803467501
0.04872432214
0.03921923254
0.05051547376
0.03862695343
0.01307307751
0.02041049204
0.05539188024
0.03089929027
0.05130978231
0.01690954384
0.01632839363
0.0250737408
0.03381908768
0.02041049204
0.04256443514
0.02507374058
0.03089929027
0.02449259045
0.02857468861
0.03732003603
0.05773052807
0.0373200357
0.05422958001
0.02449259045
0.05773052756
0.04082098408
0.03323793762
0.05364842919
0.03498138868
0.03673888567
0.0384823364
0.02973698957
0.06005512949
0.05539188024
0.04256443514
0.02518174767
0.02575217987
0.03663175668
0.05322944432
0.033195375
0.03262494287
0.02861812906
8.616803811e-278
0.02003406903
0.02461131526
0.02518174746
0.04979306293
0.0412090029
0.0165976875
0.01659768764
0.01202044142
0.0217453661
0.02918856148
0.01259087384
0.04120900255
0.0297589939
0.01659768764
0.03262494259
0.02918856148
0.02060450145
0.04692711355
0.01659768764
0.04578624912
0.05265901145
0.05666582571
0.02023138171
0.03764871259
0.007868511621
0.04046276341
0.02023138154
0.01967127905
0.03315435445
0.03203414887
0.050011583
0.03708861026
0.02472573996
0.02360553486
0.04551722453
0.04833127462
0.03315435445
0.02865999598
0.03259425152
0.03203414914
0.01180276743
0.0438369162
0.02360553486
0.0162971259
0.05675988883
0.04607732719
0.03540830229
0.02360553466
0.03764871291
0.04495712188
0.03652850729
0.03764871291
0.01710753678
0.03532865042
0.019871535
0.03146437178
0.03146437152
0.03256465249
0.02373581393
0.03201451187
0.02373581393
0.0469214875
0.03091423117
0.03919292964
0.04029321035
0.02760009262
0.01214297714
0.03201451214
0.02815023298
0.019871535
0.01932139464
0.02980065403
0.02042167535
0.03146437178
0.01987153483
0.03532865071
0.02760009285
0.03587879077
0.03587879107
0.0469214875
0.02373581373
0.019871535
)
;

boundaryField
{
    inlet
    {
        type            zeroGradient;
    }
    outlet
    {
        type            zeroGradient;
    }
    wall
    {
        type            calculated;
        value           uniform 1e-300;
    }
    frontAndBack
    {
        type            empty;
    }
}


// ************************************************************************* //
