/*--------------------------------*- C++ -*----------------------------------*\
| =========                 |                                                 |
| \\      /  F ield         | OpenFOAM: The Open Source CFD Toolbox           |
|  \\    /   O peration     | Version:  v1912                                 |
|   \\  /    A nd           | Website:  www.openfoam.com                      |
|    \\/     M anipulation  |                                                 |
\*---------------------------------------------------------------------------*/
FoamFile
{
    version     2.0;
    format      ascii;
    class       volScalarField;
    location    "0.00014";
    object      rhoMMean;
}
// * * * * * * * * * * * * * * * * * * * * * * * * * * * * * * * * * * * * * //

dimensions      [1 -3 0 0 0 0 0];


internalField   nonuniform List<scalar> 
1300
(
0.009194371429
0.009204057143
0.0222988
0.06066088571
0.0354978
0.02585688571
0.0346912
0.03742331429
0.03085748571
0.02958611429
0.01040922857
0.01079811429
0.03431177143
0.1074974571
0.05274917143
0.03280305714
0.05284237143
0.05574631429
0.0383254
0.0356588
0.005361114286
0.005323285714
0.03007071429
0.1104872
0.05197048571
0.03031682857
0.05833725714
0.069277
0.04806088571
0.04461582857
0.003093314286
0.003320971429
0.02804925714
0.1024687143
0.04595522857
0.02828682857
0.05804317143
0.078434
0.05155322857
0.05030077143
0.001774428571
0.002932085714
0.02790648571
0.1022322857
0.04625785714
0.02561077143
0.05416148571
0.0727126
0.0542572
0.05027148571
0.001651028571
0.001641571429
0.02666394286
0.1039013143
0.04446451429
0.02311462857
0.05290948571
0.06434328571
0.05370685714
0.04794671429
0.0009583714286
0.0018314
0.02713794286
0.1015862286
0.0437338
0.02036314286
0.05109745714
0.06383977143
0.0482318
0.0457744
0.001034257143
0.001442285714
0.02969037143
0.1015020286
0.0442756
0.02406354286
0.04996702857
0.06562457143
0.04510988571
0.0432688
0.0005314285714
0.001356942857
0.02856131429
0.1037308571
0.04571651429
0.02406377143
0.05458911429
0.06262582857
0.04737722857
0.04122865714
0.0004744571429
0.001072314286
0.02532568571
0.09993542857
0.04574602857
0.02352265714
0.04768077143
0.06749334286
0.04916134286
0.03844902857
0.0004080285714
0.001281057143
0.02859014286
0.1038641714
0.04353474286
0.02421554286
0.04983508571
0.06856634286
0.0469512
0.04385765714
0.000465
0.0012716
0.0270526
0.09895837143
0.04548931429
0.02133097143
0.05200831429
0.06394494286
0.0445118
0.04511957143
0.0002087428571
0.0008824857143
0.02622685714
0.1029429429
0.04456945714
0.02325694286
0.04995871429
0.06606051429
0.0471212
0.0427376
0.0001328571429
0.0006737428571
0.02719537143
0.1025925714
0.04406594286
0.02302928571
0.04944597143
0.06544397143
0.04622948571
0.04203571429
0.0001328571429
0.0006832
0.026863
0.09770545714
0.04456
0.0216728
0.04850651429
0.0655104
0.0480888
0.03961614286
0.0002087428571
0.001081771429
0.02806771429
0.1056962571
0.04213997143
0.0234756
0.05240597143
0.06102277143
0.04681811429
0.04126694286
0.0001992857143
0.0005314285714
0.02738451429
0.09984985714
0.0421492
0.02517368571
0.05235937143
0.06252134286
0.04663774286
0.04359148571
0.0001328571429
0.0003416
0.02760317143
0.1011592857
0.04359171429
0.02456637143
0.05044171429
0.06448605714
0.046903
0.04151351429
6.642857143e-05
0.0007307142857
0.02802042857
0.1041204286
0.04371534286
0.02448148571
0.04695997143
0.06420074286
0.04670394286
0.04039345714
6.642857143e-05
0.0005314285714
0.02458551429
0.09571191429
0.04102982857
0.02554365714
0.04909491429
0.0628438
0.04660037143
0.04396145714
0.03003682252
0.02580021537
0.02599590372
0.02447996199
0.02439370839
0.0227601657
0.02528476621
0.02669887459
0.02429206373
0.0252606435
0.02358833934
0.02787168569
0.02715294659
0.025378621
0.02780157686
0.02756712765
0.0271761277
0.02655846886
0.02976248258
0.02570654865
0.02643383094
0.0285752216
0.02726219283
0.02590204873
0.02884899672
0.03057582952
0.03249093765
0.03402245912
0.03793019671
0.03776623319
0.03492149489
0.03015348205
0.02639431676
0.02713717857
0.02658943985
0.02677733834
0.02691774428
0.02655030223
0.02801988151
0.02556614293
0.02621439643
0.02448718703
0.02886438818
0.02527678786
0.02706669319
0.02708987453
0.02682445389
0.02431524506
0.0276839757
0.02968477191
0.02850473622
0.02730095413
0.02946609071
0.0302397357
0.02744211317
0.03127157556
0.0291381633
0.03280272074
0.03252988673
0.03374164724
0.04452706409
0.04095523165
0.03575727032
0.03177163372
0.03285781439
0.03045100357
0.02892708369
0.02766877229
0.02805939568
0.02721470073
0.02689437445
0.02779359871
0.02614428781
0.02769955522
0.02824654085
0.02656625874
0.02746548255
0.02731634559
0.0285282941
0.0281845982
0.02942676505
0.02916951105
0.02858301124
0.02931714204
0.02813767093
0.02766820746
0.02898142451
0.03134985107
0.03356153856
0.03036493845
0.05466441549
0.0504205831
0.0423396873
0.04072078278
0.03939255071
0.03481985003
0.03439027751
0.0342179587
0.03220956094
0.03039628621
0.03024733704
0.03007520705
0.03002124278
0.02897382268
0.02805920741
0.02787187397
0.02786314249
0.02806699728
0.0280744106
0.02851214931
0.03048216306
0.02974765594
0.03015367033
0.03206117685
0.03178777829
0.02670722928
0.03171672808
0.03163066296
0.0335537487
0.03256123476
0.0633249628
0.05897207215
0.05139770627
0.05006111983
0.04537973681
0.04267502828
0.04154191984
0.03895424695
0.0383918704
0.03397628472
0.03292886459
0.03210031448
0.0307874742
0.03059140926
0.02966956896
0.03029482962
0.03083346007
0.02953695289
0.03154497438
0.02953676437
0.03027127173
0.03231861912
0.02863012701
0.03187327859
0.03059901111
0.03177961161
0.03324881438
0.03148246714
0.02892708346
0.02958369211
0.05654723424
0.06449758487
0.05648585665
0.05556345127
0.05285949502
0.05094419931
0.04598106341
0.0428862958
0.04061172459
0.04058835498
0.0386890148
0.03689132013
0.03546069042
0.03669600825
0.03451510371
0.03290530698
0.03573484179
0.03067785119
0.03169373502
0.03232678528
0.03156872054
0.0315138149
0.03149861145
0.03052111241
0.03346008225
0.03205338672
0.03199829306
0.03267902419
0.03104453967
0.03378838646
0.04962338089
0.05732200816
0.05773581314
0.05883813864
0.05802535579
0.05586021944
0.05225722786
0.0504205831
0.04978753299
0.04733322958
0.0441837446
0.04161202868
0.03880586318
0.03981414509
0.03728250813
0.03772728384
0.0350546755
0.03863448603
0.03403822714
0.0341324584
0.0356719583
0.03368655332
0.0337496251
0.03305406762
0.03359307488
0.03390542251
0.033287952
0.03303848788
0.03610153053
0.0316310395
0.05202296692
0.05524293647
0.05619631352
0.0540946253
0.06042513008
0.06409841926
0.05997922522
0.05583703764
0.05731384221
0.05331262586
0.04993572839
0.04827900458
0.04879501877
0.04384042548
0.04305044826
0.04297958632
0.03893923203
0.04083002924
0.03714134909
0.03671121144
0.0364693492
0.0401266816
0.03545290026
0.03829060208
0.03646137106
0.03652350145
0.03413208213
0.03663312476
0.03371011093
0.03481206015
0.05088967022
0.05248388677
0.04974060549
0.05386796596
0.051678706
0.05808805178
0.05862781213
0.0598462321
0.0593619427
0.05582127009
0.05439880635
0.05487587164
0.05021710551
0.04941173606
0.05026384473
0.04703646141
0.04552793262
0.04206572391
0.04443396219
0.04039304306
0.04183070988
0.04015859418
0.03944689153
0.03934524699
0.04104927526
0.03781353693
0.04043902952
0.03839205867
0.03938419602
0.03603921186
0.04713012813
0.05496916136
0.04707541076
0.0492245913
0.05317184293
0.05308596652
0.05652442945
0.05433667567
0.05792408795
0.06386397005
0.05639200119
0.0581271894
0.05910412388
0.05281294407
0.05201498878
0.05047530088
0.05091247458
0.04630955589
0.04994370695
0.04579391786
0.04387083222
0.04383263597
0.04419096965
0.04253481061
0.04294899166
0.04024409415
0.04047113037
0.0398377033
0.04226084687
0.04031457987
0.04984130899
0.0529451836
0.04895935915
0.05020950392
0.05028796703
0.05322599592
0.05305480704
0.05567269727
0.05624361756
0.05835366047
0.05665000828
0.05957283403
0.06102702162
0.05903307319
0.05716602295
0.05492261087
0.05698553753
0.05318000979
0.05088948194
0.05057694533
0.04598904155
0.05006872142
0.04670778027
0.04367533236
0.04491825208
0.04643475825
0.04440261444
0.04399622325
0.04195610056
0.0454886071
0.04727091062
0.05428993644
0.04874827955
0.04881820011
0.04834151142
0.05160859759
0.04938911995
0.04952990203
0.05430495181
0.05467220537
0.05665798643
0.05805670402
0.05898708755
0.05664184186
0.05807988536
0.05933857309
0.05678262436
0.05374998826
0.0576733059
0.05366392269
0.0531640535
0.04977936657
0.05060829309
0.05087446703
0.04822391066
0.0497170472
0.04687212103
0.04573957742
0.04768452646
0.04562159972
0.04986580824
0.05094401062
0.04731004825
0.04764614233
0.05092843087
0.05126471365
0.04995909841
0.04789598261
0.0566503853
0.05333543065
0.05249984306
0.05760338534
0.05585318267
0.05913565943
0.05980690669
0.06234784005
0.05827538474
0.05807247204
0.05511013258
0.05915067434
0.05360958232
0.05454756744
0.05362516161
0.05020152577
0.05188237271
0.04903669263
0.04968588812
0.04673931669
0.04945125023
0.04801339588
0.04811485247
0.05425023399
0.04751333798
0.04801358416
0.04702848288
0.04874846783
0.05010025746
0.04581691093
0.04896677247
0.05342224888
0.04834188797
0.05181986547
0.05476624863
0.05207768386
0.05913565991
0.05494635703
0.0582522034
0.06102664507
0.05816613876
0.05682195026
0.05811160967
0.05525851667
0.05560277671
0.05608650223
0.05140549614
0.05408645844
0.05443775615
0.05328127811
0.05322637203
0.05038961231
0.04791137447
0.05091322768
0.04847393961
0.04780212801
0.04854536597
0.04923238117
0.05025624314
0.04869356178
0.05093659771
0.04827121471
0.04760700431
0.05214019153
0.05508619815
0.04927987308
0.05510196616
0.05553266833
0.05417993688
0.06130821006
0.05802573281
0.0575403128
0.06105057951
0.05531361059
0.05768166012
0.05650922626
0.05811123312
0.05244569052
0.05159282958
0.05440697322
0.05090524954
0.05445352417
0.0501627647
0.05220307489
0.04775538879
0.04729409196
0.05013977122
0.05227261933
0.04538771533
0.04825601112
0.05219453235
0.04999842431
0.04742802556
0.04723233782
0.0473883235
0.04921717757
0.05227318415
0.05225722786
0.05278159632
0.05587636401
0.05593145792
0.05644671856
0.05969822506
0.06017491335
0.05958118824
0.0549927197
0.05751009517
0.05650884924
0.05318723484
0.05485212548
0.05430551618
0.05344543021
0.04719244709
0.04899051823
0.0521873073
0.04491844036
0.04877887381
0.04854498982
0.049599823
0.04933440218
0.0483257438
0.05013939508
0.04993610494
0.05095142436
0.05291383628
0.04674710617
0.05285114076
0.05092880784
0.05186641599
0.05121797442
0.05426581418
0.05577396558
0.05823700069
0.05760300879
0.06226177441
0.06012113736
0.06141764479
0.0612299343
0.06215994178
0.05829115324
0.0571189067
0.05775214598
0.04827862803
0.04898235181
0.04763056259
0.04784867896
0.04837285917
0.05070196023
0.04579391824
0.04719207015
0.05086611233
0.04712271481
0.05124875693
0.04779414986
0.05095236573
0.05076446705
0.05058473562
0.05026346819
0.05346898766
0.05289787998
0.05090524996
0.0521008652
0.05290585813
0.05517226327
0.05532083518
0.05849406641
0.06126090601
0.05688483404
0.06223840531
0.06140150023
0.06103537582
0.05804891415
0.04738053363
0.05214000283
0.04566833894
0.04369091211
0.04555965693
0.05031096051
0.04733341786
0.04569208472
0.04712975158
0.04963858408
0.04760700431
0.04916968565
0.05030354719
0.04851364167
0.04778673654
0.0518514015
0.04697357724
0.05346879982
0.05158485143
0.0533513865
0.05314866204
0.05255437259
0.05478999434
0.0528357493
0.05439101693
0.0583853843
0.05693100891
0.05923673995
0.05755664564
0.06221465915
0.04960761287
0.04995966283
0.04984985195
0.04900572182
0.05035788759
0.04728592554
0.04853663513
0.04627060615
0.04752093958
0.04619195473
0.0457701717
0.04569227338
0.04759921483
0.0489983081
0.04636389671
0.04843593163
0.04936518511
0.04727870049
0.04950634456
0.04866202575
0.05195210499
0.05011602547
0.05160061902
0.05206210455
0.05504762534
0.05456277018
0.05288267679
0.0552824511
0.05546959581
0.05852560245
0.03213831429
0.03283097143
0.0314076
0.02820057143
0.0299088
0.0283528
0.02814337143
0.0266448
0.02424391429
0.02142554286
0.03782211429
0.03813511429
0.03436851429
0.03488034286
0.03686351429
0.03810628571
0.03459594286
0.03348602857
0.02822917143
0.02653062857
0.0341118
0.03377042857
0.03536471429
0.03654128571
0.03509
0.03374228571
0.03382808571
0.03263145714
0.02832351429
0.0243484
0.03054471429
0.0304972
0.03629425714
0.03463422857
0.03485311429
0.03420728571
0.03104731429
0.03274608571
0.02924405714
0.02722374286
0.02845637143
0.03132248571
0.0305634
0.03306831429
0.03322031429
0.03250851429
0.03528882857
0.03109482857
0.02798214286
0.02961448571
0.0320908
0.03165462857
0.02901662857
0.0327078
0.03265105714
0.03075345714
0.03327774286
0.02998468571
0.03171205714
0.03265082857
0.03311605714
0.03112365714
0.03423474286
0.0314648
0.03093382857
0.03294514286
0.02982322857
0.030592
0.03036411429
0.03166408571
0.03464368571
0.0332872
0.03189197143
0.03036388571
0.0341976
0.03328628571
0.03150262857
0.03128442857
0.03009862857
0.03120854286
0.03672165714
0.03682591429
0.03544037143
0.03447231429
0.03525122857
0.03322054286
0.03390351429
0.03135108571
0.0322142
0.02995654286
0.03868591429
0.03831548571
0.03840151429
0.03722517143
0.03589591429
0.03852445714
0.03345742857
0.03309714286
0.03612402857
0.03237588571
0.04095371429
0.04164591429
0.04491082857
0.04007077143
0.04022254286
0.03688311429
0.03853414286
0.03940717143
0.03689257143
0.0357732
0.04435102857
0.04460751429
0.04498671429
0.04163714286
0.04414228571
0.0435728
0.04126694286
0.04238608571
0.03592451429
0.03947382857
0.04900888571
0.04995802857
0.04741551429
0.0452236
0.04743374286
0.04464488571
0.04271868571
0.04606848571
0.04215865714
0.04209245714
0.04857362857
0.05090694286
0.05087857143
0.05051874286
0.05190337143
0.04766254286
0.04833582857
0.04905662857
0.04688385714
0.0477668
0.05095491429
0.04887648571
0.04774742857
0.05112582857
0.05072702857
0.04872471429
0.05092585714
0.04831737143
0.04865805714
0.04916157143
0.05397211429
0.0514672
0.05510162857
0.05389622857
0.05252082857
0.0506606
0.05381111429
0.05149557143
0.04982562857
0.04938877143
0.05852662857
0.05875497143
0.055282
0.05462648571
0.05170408571
0.0562782
0.05343145714
0.05316574286
0.05386831429
0.05552811429
0.05844105714
0.05684745714
0.05931454286
0.05904882857
0.0587446
0.05880202857
0.05744554286
0.0549208
0.05698031429
0.05542408571
0.05915285714
0.05630657143
0.05751151429
0.05733205714
0.05859282857
0.05642974286
0.05865117143
0.05467354286
0.0609462
0.05868854286
0.05791954286
0.05719874286
0.05801388571
0.05804248571
0.05459925714
0.05636354286
0.05425674286
0.05797651429
0.05588931429
0.05914362857
0.02543271812
0.0315821385
0.0269822784
0.02770502961
0.02602424479
0.02720752507
0.02839035278
0.02446623213
0.02721688207
0.03007981589
0.02922561396
0.02834311543
0.02762972123
0.02828652079
0.0281646538
0.02883194141
0.02901908131
0.03055883256
0.02896339184
0.02731045189
0.03070077076
0.03073774649
0.03158236466
0.03243679276
0.03047416718
0.03380721262
0.03359200175
0.03343202799
0.03385512842
0.03180715934
0.02849105009
0.03540507788
0.03458669492
0.0353130056
0.03484392212
0.03064271469
0.03163519442
0.03494449332
0.03683893073
0.0355333598
0.03603909447
0.03548754495
0.03599283705
0.03590970559
0.034723918
0.0360853526
0.03348293046
0.03658192465
0.0367468581
0.0340807381
0.0390272472
0.03750110062
0.03748255286
0.04007514767
0.03666416992
0.04146340639
0.04217072715
0.04368837515
0.04217183405
0.03831926246
0.0247597089
0.03491042469
0.03536121841
0.03645964422
0.03864816955
0.03247909141
0.03282021036
0.0343696462
0.03325283316
0.03362261826
0.03369486638
0.03070393311
0.03479285858
0.03416274554
0.03542362219
0.03693780198
0.03387505355
0.03551425818
0.035523235
0.03373996741
0.03361407537
0.03582077165
0.0371536791
0.03517183745
0.03659473036
0.03840579556
0.04092668072
0.0404222434
0.04220659508
0.03518038035
0.02504348795
0.0333505428
0.03560128148
0.03662547283
0.03356190919
0.03112577368
0.03199053651
0.03314669864
0.03437409653
0.03015500869
0.03360632483
0.03116117861
0.03208795323
0.03139957685
0.03463009121
0.03477128566
0.03433074378
0.03563626113
0.03292653448
0.0324407264
0.03357993093
0.0344275229
0.03669585707
0.03757885431
0.034145134
0.0354253197
0.04006884178
0.03942381813
0.04234533605
0.03684627522
0.02500459708
0.03214548737
0.03407436704
0.03318356372
0.03302808135
0.03367734829
0.02850971957
0.03256942749
0.03100285343
0.03242236354
0.03110678585
0.03012909425
0.03208468651
0.02899508606
0.03340026392
0.03224079405
0.03289847821
0.03160898852
0.03280338061
0.03045751921
0.03164349376
0.03131486002
0.03211056515
0.0348978278
0.03555572075
0.0364738621
0.03869812125
0.03828218196
0.03900929352
0.03618773477
0.02414380802
0.03111349987
0.02861815839
0.03198867702
0.03091909849
0.0305536344
0.03047727977
0.03120739024
0.03132625527
0.03259992302
0.03110544775
0.03166592727
0.02978947465
0.02828674277
0.0322850209
0.03224271528
0.03072367462
0.03377144377
0.0324893149
0.03010335401
0.03141953215
0.03113144489
0.03067290787
0.03064732027
0.0335421754
0.03768470107
0.03400937777
0.03899241815
0.03838963293
0.03869443828
0.02219096416
0.0305120989
0.03043697852
0.03219555404
0.0302709353
0.03036306181
0.02838923242
0.02892197422
0.02831391112
0.02938870067
0.0287051151
0.02940490365
0.02942130729
0.03062123075
0.03131211521
0.03207892265
0.03079597717
0.03093751527
0.03118738233
0.03177964374
0.03243711895
0.03133742296
0.0312876098
0.0327785103
0.03454398337
0.03446056028
0.03371136071
0.03722670584
0.0416996068
0.03999104519
0.02109501917
0.02905857059
0.02751328247
0.02970451108
0.02659007787
0.02712114403
0.02557644653
0.02395683187
0.02871591748
0.02763630581
0.02696572128
0.02864218225
0.03062074814
0.02763630557
0.02965541991
0.02753753262
0.02897668633
0.02759556064
0.0278237336
0.0294761409
0.02908341185
0.03002350516
0.03001515891
0.03102859378
0.03156859657
0.03199372478
0.033449571
0.03649920561
0.03946656172
0.03772530295
0.02052840291
0.02791450564
0.02507251068
0.02353920246
0.02378821467
0.02693465257
0.02614076689
0.02809150484
0.02589117432
0.02752108029
0.02646940696
0.02614857496
0.02721625101
0.02671003112
0.02968882503
0.03004947119
0.0285001598
0.0276814964
0.02933482661
0.02740067129
0.03003404842
0.0285397806
0.0302824804
0.0323616291
0.03045947987
0.03208119072
0.03249842758
0.03399076152
0.03978793245
0.04014857894
0.01850696373
0.02677913221
0.02226102464
0.02391657433
0.02428709377
0.02501260492
0.02428728393
0.0264720556
0.02403522134
0.02561217956
0.02644004916
0.02626657828
0.0267160693
0.02864034938
0.02485428227
0.02681075898
0.02644790831
0.02535973708
0.02679504068
0.02852937157
0.02916843212
0.02661295063
0.02792231769
0.02793803622
0.0319594981
0.02915252364
0.0319755963
0.0335839911
0.03836240021
0.03666698525
)
;

boundaryField
{
    inlet
    {
        type            calculated;
        value           nonuniform List<scalar> 
20
(
0.009194371429
0.01040922857
0.005361114286
0.003093314286
0.001774428571
0.001651028571
0.0009583714286
0.001034257143
0.0005314285714
0.0004744571429
0.0004080285714
0.000465
0.0002087428571
0.0001328571429
0.0001328571429
0.0002087428571
0.0001992857143
0.0001328571429
6.642857143e-05
6.642857143e-05
)
;
    }
    outlet
    {
        type            calculated;
        value           nonuniform List<scalar> 
70
(
0.02142554286
0.02653062857
0.0243484
0.02722374286
0.02961448571
0.03265082857
0.03166408571
0.03120854286
0.02995654286
0.03237588571
0.0357732
0.03947382857
0.04209245714
0.0477668
0.04916157143
0.04938877143
0.05552811429
0.05542408571
0.05868854286
0.05914362857
6.642857143e-05
0.0005314285714
0.02458551429
0.09571191429
0.04102982857
0.02554365714
0.04909491429
0.0628438
0.04660037143
0.04396145714
0.04960761287
0.04995966283
0.04984985195
0.04900572182
0.05035788759
0.04728592554
0.04853663513
0.04627060615
0.04752093958
0.04619195473
0.0457701717
0.04569227338
0.04759921483
0.0489983081
0.04636389671
0.04843593163
0.04936518511
0.04727870049
0.04950634456
0.04866202575
0.05195210499
0.05011602547
0.05160061902
0.05206210455
0.05504762534
0.05456277018
0.05288267679
0.0552824511
0.05546959581
0.05852560245
0.05791954286
0.05719874286
0.05801388571
0.05804248571
0.05459925714
0.05636354286
0.05425674286
0.05797651429
0.05588931429
0.05914362857
)
;
    }
    wall
    {
        type            calculated;
        value           uniform 6.428571429e-301;
    }
    frontAndBack
    {
        type            empty;
    }
}


// ************************************************************************* //
