/*--------------------------------*- C++ -*----------------------------------*\
| =========                 |                                                 |
| \\      /  F ield         | OpenFOAM: The Open Source CFD Toolbox           |
|  \\    /   O peration     | Version:  v1912                                 |
|   \\  /    A nd           | Website:  www.openfoam.com                      |
|    \\/     M anipulation  |                                                 |
\*---------------------------------------------------------------------------*/
FoamFile
{
    version     2.0;
    format      ascii;
    class       volTensorField;
    location    "0.96";
    object      grad(U);
}
// * * * * * * * * * * * * * * * * * * * * * * * * * * * * * * * * * * * * * //

dimensions      [0 0 -1 0 0 0 0];


internalField   nonuniform List<tensor> 
1900
(
(1.44295e-07 5.29322e-10 0 2.44304e-10 1.13788e-10 0 0 0 0)
(6.95106e-07 1.65319e-09 0 1.80452e-09 1.83031e-09 0 0 0 0)
(1.17283e-06 1.11381e-10 0 -1.97198e-09 3.90436e-09 0 0 0 0)
(7.45281e-07 -6.33655e-09 0 -1.24201e-08 -5.74921e-09 0 0 0 0)
(-2.70476e-05 -1.2842e-07 0 -1.72561e-08 -2.54906e-08 0 0 0 0)
(-0.00150359 -1.29448e-05 0 -6.47375e-07 -8.4006e-07 0 0 0 0)
(-0.0181554 -0.000354932 0 -5.49292e-05 -6.69443e-05 0 0 0 0)
(-0.0721771 -0.00321592 0 -0.00121354 -0.00137452 0 0 0 0)
(-0.121176 -0.0175483 0 -0.00903148 -0.0100715 0 0 0 0)
(-0.135279 -0.0682215 0 -0.0379402 -0.0411766 0 0 0 0)
(1.46343e-07 1.41477e-09 0 4.39598e-10 -2.56999e-11 0 0 0 0)
(6.9289e-07 2.13738e-09 0 3.08017e-09 -5.03708e-10 0 0 0 0)
(1.1586e-06 -7.69089e-09 0 -3.47486e-09 -1.67903e-09 0 0 0 0)
(7.29997e-07 -2.30585e-08 0 -2.26031e-08 -6.15127e-10 0 0 0 0)
(-2.76825e-05 -7.0589e-07 0 -3.45157e-08 4.65756e-09 0 0 0 0)
(-0.0015585 -5.3974e-05 0 -2.82579e-06 1.27805e-07 0 0 0 0)
(-0.0193683 -0.00101875 0 -0.000174735 1.29495e-05 0 0 0 0)
(-0.0811536 -0.00678867 0 -0.00255161 0.00035506 0 0 0 0)
(-0.157903 -0.0222538 0 -0.0136327 0.00322887 0 0 0 0)
(-0.190054 -0.0587898 0 -0.0470715 0.0179033 0 0 0 0)
(1.47814e-07 -8.53651e-14 0 -2.11187e-13 -1.76609e-10 0 0 0 0)
(6.91191e-07 -1.43396e-13 0 7.37367e-14 -2.65333e-09 0 0 0 0)
(1.14714e-06 -3.82258e-14 0 -6.50916e-14 -4.45159e-09 0 0 0 0)
(7.1424e-07 4.39019e-14 0 4.66581e-14 1.27284e-08 0 0 0 0)
(-2.98507e-05 3.51377e-14 0 6.63143e-14 4.16655e-08 0 0 0 0)
(-0.00167829 2.3801e-13 0 1.73559e-13 1.42451e-06 0 0 0 0)
(-0.0207042 -9.86684e-14 0 1.6367e-13 0.00010799 0 0 0 0)
(-0.085635 -6.78711e-14 0 -1.28309e-13 0.00203893 0 0 0 0)
(-0.165696 1.14335e-13 0 4.11658e-14 0.0136853 0 0 0 0)
(-0.200628 -1.74156e-14 0 8.80914e-15 0.0465465 0 0 0 0)
(1.46343e-07 -1.41517e-09 0 -4.40161e-10 -2.57553e-11 0 0 0 0)
(6.9289e-07 -2.1376e-09 0 -3.07995e-09 -5.03668e-10 0 0 0 0)
(1.1586e-06 7.69081e-09 0 3.47469e-09 -1.67896e-09 0 0 0 0)
(7.29997e-07 2.30587e-08 0 2.26032e-08 -6.15085e-10 0 0 0 0)
(-2.76825e-05 7.0589e-07 0 3.45157e-08 4.65763e-09 0 0 0 0)
(-0.0015585 5.3974e-05 0 2.82579e-06 1.27805e-07 0 0 0 0)
(-0.0193683 0.00101875 0 0.000174735 1.29495e-05 0 0 0 0)
(-0.0811536 0.00678867 0 0.00255161 0.00035506 0 0 0 0)
(-0.157903 0.0222538 0 0.0136327 0.00322887 0 0 0 0)
(-0.190054 0.0587898 0 0.0470715 0.0179033 0 0 0 0)
(1.44294e-07 -5.29509e-10 0 -2.44656e-10 1.14275e-10 0 0 0 0)
(6.95106e-07 -1.65334e-09 0 -1.80438e-09 1.8304e-09 0 0 0 0)
(1.17283e-06 -1.11455e-10 0 1.97187e-09 3.90522e-09 0 0 0 0)
(7.45281e-07 6.33663e-09 0 1.24202e-08 -5.74895e-09 0 0 0 0)
(-2.70476e-05 1.28421e-07 0 1.72561e-08 -2.54901e-08 0 0 0 0)
(-0.00150359 1.29448e-05 0 6.47375e-07 -8.4006e-07 0 0 0 0)
(-0.0181554 0.000354932 0 5.49292e-05 -6.69443e-05 0 0 0 0)
(-0.0721771 0.00321592 0 0.00121354 -0.00137452 0 0 0 0)
(-0.121176 0.0175483 0 0.00903148 -0.0100715 0 0 0 0)
(-0.135279 0.0682215 0 0.0379402 -0.0411766 0 0 0 0)
(-0.120711 -0.19072 1.25728e-17 -0.133066 0.108154 -1.88593e-17 -1.98803e-17 -3.10402e-17 3.40788e-33)
(-0.16314 -0.284555 0 -0.162686 0.17403 0 7.02019e-17 2.12785e-17 0)
(-0.17702 -0.372524 0 -0.195476 0.235211 0 1.13326e-16 4.25252e-17 0)
(-0.41918 -0.300996 0 -0.366087 0.335503 0 0 0 0)
(0.0160607 -0.646684 -1.49074e-16 -1.22747 1.50069 2.23612e-16 7.86304e-16 5.24202e-16 4.04067e-32)
(-0.179305 -0.0885984 0 -0.0786106 0.0655167 0 -4.39253e-17 -1.14968e-17 0)
(-0.224184 -0.119864 0 -0.0820278 0.13218 0 -7.02019e-17 -2.12785e-17 0)
(-0.340945 -0.202568 0 -0.128902 0.27983 0 -1.13326e-16 -4.25252e-17 0)
(-0.579634 -0.208365 0 -0.335296 0.55664 0 0 0 0)
(-0.427104 0.0173136 0 -0.477933 0.831738 0 0 0 0)
(-0.206462 -5.93537e-14 0 6.13792e-15 0.123462 0 0 0 0)
(-0.255191 1.58953e-13 0 1.94669e-14 0.206663 0 0 0 0)
(-0.406918 1.13897e-13 0 7.28448e-14 0.381683 0 0 0 0)
(-0.684579 -1.61754e-13 0 1.33472e-14 0.748487 0 0 0 0)
(-0.552822 3.04344e-14 0 -1.6134e-14 1.13705 0 0 0 0)
(-0.179305 0.0885984 0 0.0786106 0.0655167 0 -4.39253e-17 1.14968e-17 0)
(-0.224184 0.119864 0 0.0820278 0.13218 0 -7.02019e-17 2.12785e-17 0)
(-0.340945 0.202568 0 0.128902 0.27983 0 -1.13326e-16 4.25252e-17 0)
(-0.579634 0.208365 0 0.335296 0.55664 0 0 0 0)
(-0.427104 -0.0173136 0 0.477933 0.831738 0 0 0 0)
(-0.120711 0.19072 -1.25728e-17 0.133066 0.108154 -1.88593e-17 1.07731e-16 -5.40339e-17 3.40788e-33)
(-0.16314 0.284555 0 0.162686 0.17403 0 7.02019e-17 -2.12785e-17 0)
(-0.17702 0.372524 0 0.195476 0.235211 0 1.13326e-16 -4.25252e-17 0)
(-0.41918 0.300996 -1.84442e-17 0.366087 0.335503 -2.76663e-17 3.43255e-16 -2.28836e-16 4.99931e-33)
(0.0160607 0.646684 1.49074e-16 1.22747 1.50069 2.23612e-16 -7.86304e-16 5.24202e-16 4.04067e-32)
(0.0267411 0.272139 1.96392e-18 -0.163586 -0.584448 1.76753e-17 -4.72101e-16 3.43066e-17 -5.32321e-34)
(0.295791 0.00912317 -6.16879e-19 -0.155326 -0.249226 -5.55191e-18 3.23053e-16 -2.78691e-17 -1.67205e-34)
(0.14168 0.0911749 0 0.0196997 -0.0886108 0 0 0 0)
(-0.333743 0.35089 -1.4667e-18 0.439773 0.384131 -1.32003e-17 -1.87928e-16 3.39213e-17 3.9755e-34)
(-1.06857 0.260123 4.04535e-18 1.8326 1.40494 3.64081e-17 1.46001e-16 -1.62223e-17 1.09649e-33)
(0.124214 0.227233 0 -0.171296 -0.137446 0 2.38514e-16 -8.35246e-18 0)
(0.331316 0.00401387 0 -0.190904 -0.201476 0 -1.63865e-16 1.01816e-17 0)
(0.333436 0.0889599 0 0.0505926 -0.204813 0 0 0 0)
(0.392606 0.403867 0 0.627014 -0.404702 0 1.04456e-16 -2.53842e-17 0)
(0.882153 0.240424 0 2.63485 -0.873775 0 -2.86405e-18 8.05484e-18 0)
(0.136889 1.4021e-14 0 -1.47846e-13 -0.27978 0 0 0 0)
(0.36766 -1.41325e-14 0 -1.67959e-13 -0.273191 0 0 0 0)
(0.440325 1.4431e-13 0 1.30506e-13 -0.273172 0 0 0 0)
(0.766549 2.26381e-13 0 4.79653e-13 -0.701055 0 -3.42291e-17 1.2761e-29 0)
(1.33844 2.34793e-13 0 1.19793e-12 -2.13963 0 5.72811e-18 -1.68295e-29 0)
(0.124214 -0.227233 0 0.171296 -0.137446 0 2.38514e-16 8.35246e-18 0)
(0.331316 -0.00401387 0 0.190904 -0.201476 0 -1.63865e-16 -1.01816e-17 0)
(0.333436 -0.0889599 0 -0.0505926 -0.204813 0 0 0 0)
(0.392606 -0.403867 0 -0.627014 -0.404702 0 1.04456e-16 2.53842e-17 0)
(0.882153 -0.240424 0 -2.63485 -0.873775 0 -2.86405e-18 -8.05484e-18 0)
(0.0267411 -0.272139 0 0.163586 -0.584448 0 -2.38514e-16 -8.35246e-18 0)
(0.295791 -0.00912317 6.16879e-19 0.155326 -0.249226 -5.55191e-18 4.67792e-18 -7.50588e-18 -1.67205e-34)
(0.14168 -0.0911749 0 -0.0196997 -0.0886108 0 0 0 0)
(-0.333743 -0.35089 1.4667e-18 -0.439773 0.384131 -1.32003e-17 1.32445e-17 -1.15688e-17 3.9755e-34)
(-1.06857 -0.260123 -4.04535e-18 -1.8326 1.40494 3.64081e-17 -1.46001e-16 -1.62223e-17 1.09649e-33)
(0.0433461 -0.755238 0 9.14743 0.00332113 0 0 0 0)
(0.610799 -0.603971 0 4.09518 0.591792 0 0 0 0)
(-0.385752 0.330201 0 1.64534 0.646254 0 0 0 0)
(-0.09006 0.380145 0 0.458757 0.357048 0 0 0 0)
(0.240851 0.155341 0 0.0396117 0.151618 0 0 0 0)
(0.393732 0.0537222 0 -0.0082585 0.0591082 0 0 0 0)
(0.403986 0.00944846 0 -0.00104281 0.0256317 0 0 0 0)
(0.334123 0.00397465 0 0.00497689 0.00949432 0 0 0 0)
(0.194261 0.00215473 0 0.00290299 0.00227283 0 0 0 0)
(0.0666563 0.000704466 0 0.000553138 0.000275436 0 0 0 0)
(0.0102898 9.10333e-05 0 2.62283e-05 1.06471e-05 0 0 0 0)
(0.000483841 2.88677e-06 0 1.90152e-07 7.78506e-08 0 0 0 0)
(4.53632e-06 1.12668e-08 0 9.88062e-11 7.48591e-11 0 0 0 0)
(5.83308e-09 -2.06591e-12 0 -2.49737e-14 -1.52299e-14 0 0 0 0)
(7.35191e-13 -7.74212e-15 0 3.65488e-16 1.3501e-15 0 0 0 0)
(-2.10499e-17 -3.39751e-16 0 5.87058e-16 2.38578e-15 0 0 0 0)
(-9.80814e-16 1.48484e-16 0 5.34765e-16 1.64161e-15 0 0 0 0)
(-4.91862e-16 9.55496e-16 0 -3.31254e-16 2.57381e-15 0 0 0 0)
(3.47484e-16 2.18112e-16 0 -1.30718e-15 6.01898e-15 0 0 0 0)
(6.1952e-16 -4.58873e-16 0 1.13756e-16 4.256e-15 0 0 0 0)
(1.24796e-16 -3.10389e-16 0 5.01765e-16 2.00994e-15 0 0 0 0)
(-2.53018e-16 2.80189e-16 0 1.2829e-15 5.01766e-15 0 0 0 0)
(-9.8531e-16 2.64083e-15 0 2.47824e-16 4.00849e-15 0 0 0 0)
(-1.58582e-16 -5.13401e-16 0 -2.33563e-15 7.17831e-15 0 0 0 0)
(1.24915e-15 -2.2046e-15 0 -1.78595e-15 5.50491e-15 0 0 0 0)
(9.50147e-13 -2.66306e-14 0 3.70613e-16 -5.42366e-16 0 0 0 0)
(7.26401e-09 4.68604e-15 0 -7.44081e-14 -1.24833e-13 0 0 0 0)
(5.57121e-06 3.61842e-13 0 1.12487e-13 3.58038e-14 0 0 0 0)
(0.000584655 -2.50568e-13 0 5.06424e-13 3.94308e-13 0 0 0 0)
(0.0122379 -1.13495e-13 0 -9.92776e-13 7.79504e-14 0 0 0 0)
(0.0783659 -1.32574e-13 0 3.13972e-13 -1.77974e-13 0 0 0 0)
(0.227903 2.14074e-13 0 -2.6563e-13 -2.11677e-14 0 0 0 0)
(0.398824 5.00739e-14 0 2.7524e-13 -4.63213e-13 0 0 0 0)
(0.51582 -2.12312e-13 0 -1.98606e-13 5.06759e-13 0 0 0 0)
(0.573606 2.50044e-13 0 7.39229e-14 -1.16022e-13 0 0 0 0)
(0.586219 -6.24607e-14 0 1.21234e-13 1.41777e-13 0 0 0 0)
(0.542061 1.70983e-13 0 -3.94255e-15 -1.13749e-14 0 0 0 0)
(0.557502 -5.44526e-14 0 -6.70234e-14 -2.86149e-13 0 0 0 0)
(2.66044 -9.20781e-14 0 3.74543e-14 -3.58145e-13 0 0 0 0)
(2.35419 -1.06061e-13 0 3.03577e-13 -1.52193e-13 0 0 0 0)
(0.587022 -0.655769 0 7.00488 -0.568636 0 0 0 0)
(-0.656917 -0.532694 0 3.65311 1.70925 0 0 0 0)
(-1.08033 0.256434 0 1.47785 1.50751 0 0 0 0)
(-0.399017 0.251288 0 0.351504 0.574182 0 0 0 0)
(0.157603 0.0884313 0 0.000699346 0.200764 0 0 0 0)
(0.390841 0.0290428 0 -0.0279486 0.0401989 0 0 0 0)
(0.409958 0.00439942 0 -0.00825041 0.0160944 0 0 0 0)
(0.336115 0.00160122 0 0.00158989 0.00771985 0 0 0 0)
(0.193969 0.000968541 0 0.00143293 0.00243153 0 0 0 0)
(0.0663508 0.000360001 0 0.000276998 0.000312966 0 0 0 0)
(0.0102311 4.60394e-05 0 1.17484e-05 9.92326e-06 0 0 0 0)
(0.000481334 1.2896e-06 0 5.38944e-08 3.87299e-08 0 0 0 0)
(4.52425e-06 3.18955e-09 0 -5.22203e-11 -7.37766e-12 0 0 0 0)
(5.84197e-09 -6.36187e-12 0 -2.03447e-14 9.07092e-14 0 0 0 0)
(7.39938e-13 5.64573e-16 0 1.1071e-16 -1.13617e-15 0 0 0 0)
(7.02553e-17 8.3889e-19 0 3.225e-16 1.92053e-15 0 0 0 0)
(-9.06662e-16 1.77845e-16 0 3.92408e-16 9.17012e-16 0 0 0 0)
(-8.11924e-16 1.4538e-15 0 7.92659e-16 1.92053e-15 0 0 0 0)
(3.15789e-16 5.57862e-16 0 4.53461e-16 2.54053e-15 0 0 0 0)
(8.70778e-16 -1.05616e-15 0 -1.13352e-15 4.28804e-15 0 0 0 0)
(4.07035e-16 4.11056e-16 0 2.40081e-16 2.13393e-15 0 0 0 0)
(-2.0955e-16 1.03435e-15 0 9.58384e-16 8.61645e-15 0 0 0 0)
(-1.70176e-15 1.84556e-15 0 -1.40346e-17 5.70681e-15 0 0 0 0)
(-6.7668e-16 -8.72446e-17 0 -8.38993e-16 -2.16276e-16 0 0 0 0)
(1.73241e-15 -3.33207e-15 0 -3.21806e-15 7.39665e-15 0 0 0 0)
(9.28361e-13 -4.65358e-14 0 -2.48411e-15 3.78051e-15 0 0 0 0)
(7.26403e-09 1.82819e-14 0 -1.01374e-13 4.51153e-14 0 0 0 0)
(5.57121e-06 4.2993e-13 0 1.58959e-13 2.30291e-13 0 0 0 0)
(0.000584655 -2.63256e-13 0 5.99113e-13 -1.73904e-13 0 0 0 0)
(0.0122379 -2.59625e-13 0 -1.06497e-12 1.86841e-13 0 0 0 0)
(0.0783659 -1.12569e-13 0 3.02298e-13 -8.12351e-13 0 0 0 0)
(0.227903 2.57407e-13 0 -1.20864e-13 2.63369e-13 0 0 0 0)
(0.398824 1.23021e-13 0 3.70846e-13 -2.86517e-13 0 0 0 0)
(0.51582 -1.97355e-13 0 -1.66573e-13 5.64971e-13 0 0 0 0)
(0.573606 1.78631e-13 0 6.70234e-14 -5.14946e-13 0 0 0 0)
(0.586219 -6.85791e-14 0 1.42918e-13 2.81518e-13 0 0 0 0)
(0.542061 9.58226e-14 0 0 -3.05812e-13 0 0 0 0)
(0.557502 -1.55278e-13 0 -4.73106e-14 -3.89336e-13 0 0 0 0)
(2.66044 -1.13456e-13 0 -1.22219e-13 -5.13582e-13 0 0 0 0)
(2.35419 -3.52374e-14 0 3.5483e-14 -4.62419e-13 0 0 0 0)
(0.662391 3.21158e-14 0 1.73325e-12 -1.72151 0 0 0 0)
(-0.997065 -2.36002e-13 0 1.20396e-12 2.40817 0 0 0 0)
(-1.34622 -1.1972e-13 0 7.64855e-13 1.94077 0 0 0 0)
(-0.519775 6.4073e-14 0 3.77499e-13 0.645186 0 0 0 0)
(0.130465 3.75685e-14 0 2.00085e-13 0.213162 0 0 0 0)
(0.391128 7.76453e-14 0 -6.99803e-14 0.0372213 0 0 0 0)
(0.412579 -1.91133e-13 0 -1.07435e-13 0.0134923 0 0 0 0)
(0.33694 -1.70909e-13 0 -1.89982e-13 0.00697526 0 0 0 0)
(0.193879 2.5949e-13 0 1.08482e-13 0.00248388 0 0 0 0)
(0.0662429 -7.24595e-14 0 -1.3149e-13 0.000316543 0 0 0 0)
(0.0102092 -8.18017e-14 0 9.43311e-14 8.86597e-06 0 0 0 0)
(0.000480423 -3.60446e-14 0 -2.92783e-13 2.19286e-08 0 0 0 0)
(4.52065e-06 -2.95802e-14 0 2.72161e-13 -4.40106e-11 0 0 0 0)
(5.84827e-09 7.99857e-14 0 -8.12404e-14 9.28979e-14 0 0 0 0)
(7.41203e-13 -3.35716e-14 0 6.74681e-16 1.537e-15 0 0 0 0)
(6.08987e-17 2.57539e-16 0 -6.82052e-16 2.16276e-16 0 0 0 0)
(-8.4404e-16 1.48484e-16 0 -5.94551e-16 0 0 0 0 0)
(-4.74101e-16 1.42779e-15 0 5.24139e-16 -3.95065e-16 0 0 0 0)
(-2.1286e-16 9.06841e-16 0 2.23847e-15 -3.31912e-15 0 0 0 0)
(5.57446e-16 -5.77157e-16 0 -9.0673e-16 -1.00641e-15 0 0 0 0)
(7.3335e-16 9.48785e-16 0 -1.1075e-16 -2.88369e-16 0 0 0 0)
(-3.26942e-16 1.31957e-15 0 5.12918e-16 -1.81095e-15 0 0 0 0)
(-1.50818e-15 7.13057e-17 0 -5.93894e-17 -4.17558e-15 0 0 0 0)
(-1.09066e-15 -2.18112e-17 0 3.86803e-16 -7.83209e-15 0 0 0 0)
(7.70569e-16 -1.0419e-15 0 -6.95772e-16 1.03813e-16 0 0 0 0)
(9.21593e-13 -1.56579e-14 0 -2.114e-15 7.84074e-15 0 0 0 0)
(7.26405e-09 7.058e-14 0 -3.83704e-14 1.47607e-13 0 0 0 0)
(5.57121e-06 2.98127e-13 0 2.14919e-13 1.35075e-13 0 0 0 0)
(0.000584655 -2.63208e-13 0 2.60876e-13 -8.36752e-13 0 0 0 0)
(0.0122379 -2.99225e-13 0 -6.16932e-13 7.64144e-13 0 0 0 0)
(0.0783659 -1.10311e-13 0 1.86809e-14 -1.05613e-12 0 0 0 0)
(0.227903 3.67044e-13 0 1.20433e-13 2.50339e-13 0 0 0 0)
(0.398824 1.37813e-13 0 2.59469e-13 -2.8877e-13 0 0 0 0)
(0.51582 -2.78765e-13 0 -3.90806e-13 2.77902e-13 0 0 0 0)
(0.573606 1.67585e-13 0 7.0966e-14 -6.00016e-13 0 0 0 0)
(0.586219 -1.62186e-15 0 1.68544e-13 3.61942e-13 0 0 0 0)
(0.542061 -2.41747e-14 0 -7.88511e-14 -2.22096e-13 0 0 0 0)
(0.557502 -1.14895e-13 0 -3.5483e-14 -3.71352e-13 0 0 0 0)
(2.66044 -1.13339e-13 0 -1.26162e-13 1.28544e-14 0 0 0 0)
(2.35419 -9.11773e-14 0 -5.04647e-13 4.03096e-14 0 0 0 0)
(0.587022 0.655769 0 -7.00488 -0.568636 0 0 0 0)
(-0.656917 0.532694 0 -3.65311 1.70925 0 0 0 0)
(-1.08033 -0.256434 0 -1.47785 1.50751 0 0 0 0)
(-0.399017 -0.251288 0 -0.351504 0.574182 0 0 0 0)
(0.157603 -0.0884313 0 -0.000699346 0.200764 0 0 0 0)
(0.390841 -0.0290428 0 0.0279486 0.0401989 0 0 0 0)
(0.409958 -0.00439942 0 0.00825041 0.0160944 0 0 0 0)
(0.336115 -0.00160122 0 -0.00158989 0.00771985 0 0 0 0)
(0.193969 -0.000968541 0 -0.00143293 0.00243153 0 0 0 0)
(0.0663508 -0.000360001 0 -0.000276998 0.000312966 0 0 0 0)
(0.0102311 -4.60394e-05 0 -1.17484e-05 9.92326e-06 0 0 0 0)
(0.000481334 -1.2896e-06 0 -5.38948e-08 3.87298e-08 0 0 0 0)
(4.52425e-06 -3.18967e-09 0 5.24355e-11 -6.65373e-12 0 0 0 0)
(5.84189e-09 6.44167e-12 0 -4.96508e-14 -2.19085e-13 0 0 0 0)
(7.63373e-13 -2.63974e-14 0 -6.61376e-16 4.32264e-15 0 0 0 0)
(-2.98976e-16 -4.4629e-16 0 -2.62369e-15 0 0 0 0 0)
(-5.55771e-16 0 0 -1.38697e-15 0 0 0 0 0)
(1.22282e-17 4.88234e-16 0 2.33543e-17 -5.10412e-16 0 0 0 0)
(-1.00463e-16 3.80017e-16 0 1.19016e-15 -5.85965e-15 0 0 0 0)
(1.87368e-16 -1.74489e-16 0 7.08683e-16 -4.60525e-15 0 0 0 0)
(8.20023e-16 1.77006e-16 0 -7.59993e-16 -2.92406e-15 0 0 0 0)
(-1.94609e-16 -9.64724e-17 0 -1.10476e-15 -7.82921e-15 0 0 0 0)
(-1.73845e-15 9.39557e-17 0 3.13058e-16 -1.30602e-14 0 0 0 0)
(-8.6181e-16 1.15767e-15 0 1.77748e-15 -8.27618e-15 0 0 0 0)
(1.0049e-15 1.2273e-15 0 2.86976e-15 -5.99518e-15 0 0 0 0)
(9.17401e-13 -3.62568e-15 0 1.1581e-15 1.04389e-15 0 0 0 0)
(7.2641e-09 5.52955e-14 0 -1.65354e-14 4.44174e-14 0 0 0 0)
(5.57121e-06 1.43571e-13 0 1.49086e-13 -2.92218e-13 0 0 0 0)
(0.000584655 -8.02536e-14 0 1.77162e-13 -7.14723e-13 0 0 0 0)
(0.0122379 -3.23443e-13 0 4.7315e-14 1.18228e-12 0 0 0 0)
(0.0783659 -2.6204e-13 0 -3.13387e-13 -1.03985e-12 0 0 0 0)
(0.227903 4.80638e-13 0 1.48831e-13 1.08552e-13 0 0 0 0)
(0.398824 1.31039e-13 0 1.60659e-13 -4.87109e-13 0 0 0 0)
(0.51582 -2.87899e-13 0 -4.91834e-13 3.85133e-13 0 0 0 0)
(0.573606 2.03079e-13 0 1.56716e-13 -2.64067e-13 0 0 0 0)
(0.586219 4.13611e-14 0 2.25711e-13 1.87779e-13 0 0 0 0)
(0.542061 -1.17499e-13 0 -1.04478e-13 -4.34314e-13 0 0 0 0)
(0.557502 -8.69285e-14 0 -1.36018e-13 -2.27036e-13 0 0 0 0)
(2.66044 6.2997e-15 0 -1.55731e-13 -2.44861e-13 0 0 0 0)
(2.35419 -2.72505e-14 0 -3.78485e-13 2.50288e-13 0 0 0 0)
(0.0433461 0.755238 0 -9.14743 0.00332113 0 0 0 0)
(0.610799 0.603971 0 -4.09518 0.591792 0 0 0 0)
(-0.385752 -0.330201 0 -1.64534 0.646254 0 0 0 0)
(-0.09006 -0.380145 0 -0.458757 0.357048 0 0 0 0)
(0.240851 -0.155341 0 -0.0396117 0.151618 0 0 0 0)
(0.393732 -0.0537222 0 0.0082585 0.0591082 0 0 0 0)
(0.403986 -0.00944846 0 0.00104281 0.0256317 0 0 0 0)
(0.334123 -0.00397465 0 -0.00497689 0.00949432 0 0 0 0)
(0.194261 -0.00215473 0 -0.00290299 0.00227283 0 0 0 0)
(0.0666563 -0.000704466 0 -0.000553138 0.000275436 0 0 0 0)
(0.0102898 -9.10333e-05 0 -2.62283e-05 1.06471e-05 0 0 0 0)
(0.000483841 -2.88677e-06 0 -1.90152e-07 7.78502e-08 0 0 0 0)
(4.53632e-06 -1.12669e-08 0 -9.89609e-11 7.53349e-11 0 0 0 0)
(5.83302e-09 2.01687e-12 0 6.4173e-14 -1.62889e-13 0 0 0 0)
(7.54884e-13 3.01623e-14 0 -1.38078e-15 1.32368e-15 0 0 0 0)
(-1.50182e-16 -9.99957e-16 0 -1.67521e-15 5.27677e-16 0 0 0 0)
(-7.39911e-17 0 0 -6.30273e-16 2.30127e-17 0 0 0 0)
(2.75609e-16 -2.76834e-16 0 6.39203e-17 -3.22985e-18 0 0 0 0)
(-1.34911e-17 -2.84384e-16 0 -1.37044e-16 -2.49664e-15 0 0 0 0)
(-9.87202e-18 2.76834e-16 0 5.57948e-16 -1.61855e-15 0 0 0 0)
(2.05804e-16 1.09056e-17 0 -6.05026e-16 -1.0785e-15 0 0 0 0)
(-1.4782e-17 -1.62913e-15 0 -1.87368e-15 -2.93928e-15 0 0 0 0)
(-6.69714e-16 -5.87223e-17 0 -3.16928e-17 -5.15321e-15 0 0 0 0)
(-3.46894e-16 2.03347e-15 0 2.51935e-15 -4.03342e-15 0 0 0 0)
(5.90386e-16 1.66939e-15 0 2.4205e-15 -4.18653e-15 0 0 0 0)
(9.15948e-13 -9.92407e-16 0 3.5051e-16 -3.29085e-15 0 0 0 0)
(7.2641e-09 -1.47326e-14 0 -4.17177e-15 5.55642e-15 0 0 0 0)
(5.57121e-06 7.72863e-14 0 -2.8061e-14 -2.37769e-13 0 0 0 0)
(0.000584655 1.65736e-13 0 2.79285e-13 -4.74922e-13 0 0 0 0)
(0.0122379 -3.93808e-13 0 2.39924e-13 9.53322e-13 0 0 0 0)
(0.0783659 -4.22668e-13 0 -4.82763e-13 -4.56125e-13 0 0 0 0)
(0.227903 5.27842e-13 0 1.7224e-13 1.51032e-13 0 0 0 0)
(0.398824 2.18273e-13 0 1.2764e-13 -4.38064e-13 0 0 0 0)
(0.51582 -2.13879e-13 0 -3.0949e-13 6.91795e-13 0 0 0 0)
(0.573606 1.10173e-13 0 1.52774e-13 1.13367e-14 0 0 0 0)
(0.586219 -5.11483e-14 0 7.88511e-14 1.1079e-13 0 0 0 0)
(0.542061 -1.44848e-13 0 1.97128e-15 -3.73367e-13 0 0 0 0)
(0.557502 -5.9781e-14 0 -2.36553e-14 -8.20907e-14 0 0 0 0)
(2.66044 2.55194e-14 0 -8.27936e-14 -1.04851e-13 0 0 0 0)
(2.35419 5.28661e-14 0 -7.0966e-14 1.06075e-13 0 0 0 0)
(2.28399 0.898151 0 -4.34423 0.0161873 0 0 0 0)
(2.58314 0.853575 0 -1.89363 -0.0728811 0 0 0 0)
(0.397606 -0.31839 0 -0.887058 0.00802629 0 0 0 0)
(0.250982 -0.412569 0 -0.334101 0.0993339 0 0 0 0)
(0.354293 -0.197957 0 -0.104932 0.0742193 0 0 0 0)
(0.413001 -0.0795354 0 -0.0484926 0.0578132 0 0 0 0)
(0.40856 -0.0296829 0 -0.0222293 0.0258408 0 0 0 0)
(0.335943 -0.0135093 0 -0.0115875 0.00828092 0 0 0 0)
(0.196406 -0.00537977 0 -0.0044425 0.00173855 0 0 0 0)
(0.067802 -0.00138072 0 -0.000785535 0.000197827 0 0 0 0)
(0.0105101 -0.00016674 0 -3.9888e-05 8.46845e-06 0 0 0 0)
(0.000494888 -6.12144e-06 0 -3.68212e-07 8.24326e-08 0 0 0 0)
(4.62956e-06 -4.26837e-08 0 -4.09116e-10 1.07657e-10 0 0 0 0)
(5.91422e-09 -3.56969e-11 0 4.86522e-15 5.55966e-14 0 0 0 0)
(7.31883e-13 1.07122e-14 0 1.36455e-16 -6.08203e-16 0 0 0 0)
(-2.47981e-19 -6.21982e-16 0 -4.50697e-16 1.17681e-15 0 0 0 0)
(-2.19218e-17 -3.33024e-16 0 2.06568e-16 4.22479e-16 0 0 0 0)
(1.7083e-17 -2.07665e-16 0 -4.6551e-16 -1.1274e-18 0 0 0 0)
(1.08865e-16 1.34982e-16 0 -2.91946e-16 6.03968e-16 0 0 0 0)
(1.21875e-16 1.9323e-16 0 -4.30151e-18 1.35072e-15 0 0 0 0)
(4.92372e-18 -4.59395e-16 0 8.45863e-17 2.85145e-16 0 0 0 0)
(-4.28974e-17 -8.80297e-16 0 -3.23593e-16 2.54327e-16 0 0 0 0)
(-2.18544e-16 -4.15836e-16 0 1.08884e-17 1.86315e-15 0 0 0 0)
(8.1016e-17 7.51393e-16 0 3.12536e-16 -1.16303e-16 0 0 0 0)
(1.23729e-16 1.18192e-15 0 6.42795e-16 -8.9058e-16 0 0 0 0)
(9.14945e-13 -5.58923e-16 0 -5.35083e-16 -1.88711e-15 0 0 0 0)
(7.26408e-09 -1.08163e-14 0 -4.29362e-16 2.24747e-15 0 0 0 0)
(5.57121e-06 -8.11774e-14 0 -2.12749e-14 -1.7539e-14 0 0 0 0)
(0.000584655 3.8246e-13 0 -1.18569e-13 -4.39451e-13 0 0 0 0)
(0.0122379 -2.30292e-13 0 4.92128e-13 1.98275e-13 0 0 0 0)
(0.0783659 -5.79569e-13 0 -7.21836e-13 1.39065e-13 0 0 0 0)
(0.227903 4.37388e-13 0 2.06445e-13 3.1821e-14 0 0 0 0)
(0.398824 3.69382e-13 0 9.03812e-14 -2.60325e-13 0 0 0 0)
(0.51582 -9.15866e-14 0 -9.32823e-14 4.66113e-13 0 0 0 0)
(0.573606 -5.39462e-14 0 1.27054e-13 -1.39332e-13 0 0 0 0)
(0.586219 -9.2989e-14 0 -3.60037e-14 1.2749e-13 0 0 0 0)
(0.542061 -2.06866e-13 0 -2.38041e-14 1.26085e-13 0 0 0 0)
(0.557502 5.01153e-14 0 5.95102e-15 4.18852e-15 0 0 0 0)
(2.66044 1.02108e-13 0 -5.77249e-14 2.16859e-13 0 0 0 0)
(2.35419 1.24226e-14 0 -1.42825e-14 2.18706e-13 0 0 0 0)
(2.44575 0.450548 0 -0.65803 0.455534 0 0 0 0)
(2.88462 0.46226 0 -0.526986 -0.328988 0 0 0 0)
(0.69701 -0.170582 0 -0.435173 -0.239252 0 0 0 0)
(0.480747 -0.298973 0 -0.248165 -0.0614961 0 0 0 0)
(0.455242 -0.172499 0 -0.139051 0.00247424 0 0 0 0)
(0.463095 -0.0864996 0 -0.0790419 0.0172761 0 0 0 0)
(0.437097 -0.0463292 0 -0.039203 0.00912186 0 0 0 0)
(0.350286 -0.0220876 0 -0.0176536 0.00318112 0 0 0 0)
(0.20352 -0.00821452 0 -0.00580004 0.000761673 0 0 0 0)
(0.0702845 -0.00200901 0 -0.000968678 9.96696e-05 0 0 0 0)
(0.0109283 -0.000240991 0 -5.1131e-05 4.71367e-06 0 0 0 0)
(0.000516354 -9.31264e-06 0 -5.35591e-07 4.92047e-08 0 0 0 0)
(4.84115e-06 -7.38553e-08 0 -7.53174e-10 7.41933e-11 0 0 0 0)
(6.18371e-09 -8.15027e-11 0 -1.06875e-13 2.0695e-14 0 0 0 0)
(7.62095e-13 -1.18488e-14 0 -3.41729e-16 -3.23778e-16 0 0 0 0)
(-1.63018e-16 -2.09438e-16 0 -2.59695e-16 -2.68063e-17 0 0 0 0)
(-1.16187e-16 -9.56525e-16 0 1.4491e-17 4.64905e-16 0 0 0 0)
(-6.61477e-17 -1.39034e-16 0 -3.48707e-16 1.88169e-16 0 0 0 0)
(3.65335e-16 7.93432e-16 0 -2.67314e-16 2.00521e-16 0 0 0 0)
(2.82321e-16 1.44352e-17 0 1.03392e-17 1.498e-16 0 0 0 0)
(5.84109e-18 -7.93432e-16 0 1.01188e-16 2.64279e-31 0 0 0 0)
(-7.07237e-17 -5.10045e-16 0 7.7326e-18 3.8396e-16 0 0 0 0)
(-2.98648e-16 -2.24379e-16 0 2.29668e-17 1.35661e-15 0 0 0 0)
(3.25742e-17 6.73645e-17 0 1.63088e-17 8.52282e-16 0 0 0 0)
(2.38264e-17 2.24379e-16 0 -1.02368e-16 3.08009e-16 0 0 0 0)
(9.15452e-13 1.79909e-15 0 -2.6741e-16 -5.48214e-16 0 0 0 0)
(7.26409e-09 -3.19153e-14 0 9.23249e-15 1.52152e-14 0 0 0 0)
(5.57121e-06 -2.63377e-13 0 -8.22678e-14 1.17464e-14 0 0 0 0)
(0.000584655 2.57487e-13 0 -3.97743e-13 -2.07737e-13 0 0 0 0)
(0.0122379 7.59881e-14 0 7.45508e-13 -2.16435e-13 0 0 0 0)
(0.0783659 -4.98933e-13 0 -6.31236e-13 1.51625e-14 0 0 0 0)
(0.227903 1.91479e-13 0 2.20988e-13 1.06835e-13 0 0 0 0)
(0.398824 5.55742e-13 0 8.94885e-14 -1.75859e-13 0 0 0 0)
(0.51582 -1.62863e-13 0 1.62165e-14 1.95795e-13 0 0 0 0)
(0.573606 -1.28131e-13 0 9.67041e-14 -2.86205e-13 0 0 0 0)
(0.586219 2.27054e-13 0 3.68963e-14 8.07994e-14 0 0 0 0)
(0.542061 -2.3041e-13 0 1.66629e-14 2.7041e-13 0 0 0 0)
(0.557502 -3.12385e-14 0 4.76082e-15 7.95107e-14 0 0 0 0)
(2.66044 1.91167e-13 0 1.55917e-13 8.83809e-14 0 0 0 0)
(2.35419 7.63337e-14 0 3.09453e-14 2.71592e-13 0 0 0 0)
(2.41026 0.142157 0 -0.0294669 0.144548 0 0 0 0)
(2.79789 0.184054 0 -0.0894028 -0.263121 0 0 0 0)
(0.666288 -0.0606244 0 -0.186196 -0.246539 0 0 0 0)
(0.536336 -0.179632 0 -0.177401 -0.117125 0 0 0 0)
(0.517266 -0.122049 0 -0.121857 -0.044243 0 0 0 0)
(0.509218 -0.0731295 0 -0.0747572 -0.0185347 0 0 0 0)
(0.467716 -0.0432654 0 -0.0401395 -0.00758531 0 0 0 0)
(0.368132 -0.0215655 0 -0.018389 -0.00250761 0 0 0 0)
(0.212485 -0.00834916 0 -0.00599803 -0.000577916 0 0 0 0)
(0.0733419 -0.00211016 0 -0.00100193 -6.63868e-05 0 0 0 0)
(0.0114431 -0.000262738 0 -5.42902e-05 -2.39374e-06 0 0 0 0)
(0.000544159 -1.06636e-05 0 -5.99472e-07 -1.67903e-08 0 0 0 0)
(5.14568e-06 -9.00992e-08 0 -9.08584e-10 -1.52371e-11 0 0 0 0)
(6.64001e-09 -1.07193e-10 0 -1.29909e-13 -9.5496e-15 0 0 0 0)
(8.34621e-13 -9.25603e-15 0 -4.94578e-16 -6.31787e-16 0 0 0 0)
(3.43018e-16 1.38021e-16 0 -6.58144e-17 -1.32901e-15 0 0 0 0)
(-1.07697e-16 -1.25865e-16 0 1.9139e-16 -9.7948e-16 0 0 0 0)
(-2.54475e-16 -4.62434e-16 0 2.89265e-16 -1.86067e-16 0 0 0 0)
(4.54855e-16 9.80077e-17 0 9.89874e-17 -2.70165e-16 0 0 0 0)
(4.76977e-16 3.56776e-30 0 9.69056e-17 -8.23373e-16 0 0 0 0)
(2.41191e-18 -2.3375e-16 0 2.1841e-16 -2.85145e-16 0 0 0 0)
(-1.18274e-16 4.26979e-16 0 1.70259e-17 1.40398e-31 0 0 0 0)
(-2.10279e-16 3.5455e-17 0 3.2772e-17 4.5045e-16 0 0 0 0)
(-3.97614e-17 -2.59075e-16 0 3.27776e-17 2.32847e-16 0 0 0 0)
(-1.49673e-16 -1.67651e-16 0 -7.65356e-17 2.1629e-16 0 0 0 0)
(9.23941e-13 1.38062e-14 0 2.10323e-16 4.11292e-16 0 0 0 0)
(7.264e-09 1.03123e-15 0 3.06265e-14 -3.76392e-15 0 0 0 0)
(5.5712e-06 -2.96022e-13 0 -1.59505e-14 1.18576e-13 0 0 0 0)
(0.000584655 1.62576e-13 0 -5.69329e-13 1.09156e-13 0 0 0 0)
(0.0122379 -1.5498e-14 0 8.4969e-13 1.89942e-13 0 0 0 0)
(0.0783659 -2.68054e-13 0 -6.50159e-13 -1.34993e-13 0 0 0 0)
(0.227903 2.53312e-13 0 2.70028e-13 5.17939e-13 0 0 0 0)
(0.398824 4.55107e-13 0 1.51454e-13 -2.0263e-13 0 0 0 0)
(0.51582 -1.9792e-13 0 9.77456e-14 8.98502e-14 0 0 0 0)
(0.573606 -1.6476e-13 0 -1.16045e-14 -9.51499e-14 0 0 0 0)
(0.586219 4.43385e-13 0 7.29e-14 1.72744e-14 0 0 0 0)
(0.542061 -2.08107e-13 0 8.56947e-14 1.38185e-13 0 0 0 0)
(0.557502 -1.25294e-13 0 5.95102e-16 -2.77778e-14 0 0 0 0)
(2.66044 2.87205e-13 0 1.19616e-13 4.95843e-14 0 0 0 0)
(2.35419 1.88972e-13 0 3.80866e-14 3.60747e-14 0 0 0 0)
(2.38799 0.0577037 0 0.0211348 -0.0158095 0 0 0 0)
(2.73359 0.0853953 0 -0.0193161 -0.157732 0 0 0 0)
(0.612211 -0.0298956 0 -0.0885218 -0.192478 0 0 0 0)
(0.542746 -0.104033 0 -0.110865 -0.117266 0 0 0 0)
(0.554154 -0.0774934 0 -0.0832898 -0.0627612 0 0 0 0)
(0.541841 -0.051175 0 -0.0535852 -0.0338429 0 0 0 0)
(0.491415 -0.030885 0 -0.0300133 -0.0158397 0 0 0 0)
(0.383186 -0.015335 0 -0.0138758 -0.00597251 0 0 0 0)
(0.220274 -0.00586208 0 -0.00446922 -0.00154193 0 0 0 0)
(0.0760121 -0.00145442 0 -0.000729372 -0.000201517 0 0 0 0)
(0.0118932 -0.000177034 0 -3.86268e-05 -8.61647e-06 0 0 0 0)
(0.000568669 -7.00595e-06 0 -4.19422e-07 -7.63994e-08 0 0 0 0)
(5.41882e-06 -5.76755e-08 0 -6.29629e-10 -9.48402e-11 0 0 0 0)
(7.05925e-09 -6.68203e-11 0 -8.90321e-14 -7.70812e-16 0 0 0 0)
(8.87217e-13 -3.92715e-15 0 -3.58354e-16 -6.34152e-16 0 0 0 0)
(4.98007e-16 -5.44487e-16 0 2.30909e-16 -1.1348e-15 0 0 0 0)
(2.25981e-16 1.44859e-16 0 1.90732e-16 -7.64241e-16 0 0 0 0)
(-1.55191e-16 5.44487e-16 0 6.09055e-16 -1.86067e-16 0 0 0 0)
(1.7997e-16 1.79301e-16 0 2.06435e-16 0 0 0 0 0)
(3.97402e-16 0 0 1.88499e-16 -3.69506e-16 0 0 0 0)
(-7.1134e-17 0 0 3.1728e-16 0 0 0 0 0)
(-2.49611e-16 1.98801e-16 0 6.8431e-17 -4.52027e-17 0 0 0 0)
(-2.83469e-16 5.08736e-30 0 3.1342e-17 -6.75413e-16 0 0 0 0)
(-7.27587e-17 -1.58281e-16 0 -9.92171e-17 4.73052e-17 0 0 0 0)
(1.94916e-16 3.96336e-16 0 -3.32614e-17 4.80936e-17 0 0 0 0)
(9.45038e-13 -2.03638e-15 0 4.23087e-16 7.25346e-16 0 0 0 0)
(7.26407e-09 8.19529e-14 0 -2.20556e-15 -2.43566e-14 0 0 0 0)
(5.5712e-06 -1.54563e-13 0 1.49825e-13 -1.44113e-14 0 0 0 0)
(0.000584655 3.26257e-13 0 -5.05884e-13 2.8594e-13 0 0 0 0)
(0.0122379 -1.59283e-13 0 9.60178e-13 1.93258e-13 0 0 0 0)
(0.0783659 -1.82864e-13 0 -8.10427e-13 1.06907e-13 0 0 0 0)
(0.227903 1.26301e-13 0 3.36512e-13 3.37144e-13 0 0 0 0)
(0.398824 1.43221e-13 0 2.90112e-14 -4.41024e-13 0 0 0 0)
(0.51582 -5.92913e-14 0 6.24858e-14 -7.32304e-14 0 0 0 0)
(0.573606 -1.98068e-13 0 -1.05333e-13 -3.44143e-14 0 0 0 0)
(0.586219 4.51903e-13 0 8.74801e-14 -6.27945e-14 0 0 0 0)
(0.542061 -2.73824e-13 0 5.29641e-14 -3.93762e-14 0 0 0 0)
(0.557502 -1.16617e-13 0 -5.35592e-15 -2.09919e-13 0 0 0 0)
(2.66044 2.52698e-13 0 -1.55917e-13 -4.83662e-14 0 0 0 0)
(2.35419 6.33153e-14 0 1.07118e-14 -1.55985e-13 0 0 0 0)
(2.37128 0.00539601 0 0.0206412 -0.0462079 0 0 0 0)
(2.69223 0.0138107 0 -0.00670398 -0.113259 0 0 0 0)
(0.578068 -0.0216307 0 -0.0443257 -0.142385 0 0 0 0)
(0.541378 -0.054633 0 -0.0587305 -0.0949314 0 0 0 0)
(0.572463 -0.0416593 0 -0.0458774 -0.056959 0 0 0 0)
(0.560557 -0.0279142 0 -0.0300935 -0.0315127 0 0 0 0)
(0.505981 -0.0164085 0 -0.0169081 -0.0146875 0 0 0 0)
(0.392747 -0.00778769 0 -0.00761166 -0.00543964 0 0 0 0)
(0.225153 -0.00278803 0 -0.00231433 -0.00136222 0 0 0 0)
(0.0776114 -0.000632602 0 -0.00034618 -0.000170969 0 0 0 0)
(0.0121455 -6.86222e-05 0 -1.65078e-05 -6.98592e-06 0 0 0 0)
(0.00058138 -2.36059e-06 0 -1.61195e-07 -5.882e-08 0 0 0 0)
(5.54985e-06 -1.64779e-08 0 -2.206e-10 -6.80068e-11 0 0 0 0)
(7.24674e-09 -1.58017e-11 0 -6.8004e-14 2.5729e-14 0 0 0 0)
(9.20638e-13 -9.60678e-15 0 -2.58133e-16 1.10063e-15 0 0 0 0)
(8.72137e-16 1.26625e-17 0 2.69455e-16 8.57012e-16 0 0 0 0)
(2.56699e-16 7.88367e-16 0 -1.75989e-16 1.36002e-15 0 0 0 0)
(-2.39342e-16 2.74016e-16 0 3.29977e-16 7.73965e-16 0 0 0 0)
(4.95915e-17 -7.87607e-17 0 -1.57682e-17 9.37168e-16 0 0 0 0)
(5.83792e-16 -1.5196e-30 0 1.42999e-16 5.77123e-16 0 0 0 0)
(-1.1329e-16 7.87607e-17 0 -5.12907e-16 9.37168e-16 0 0 0 0)
(-3.93815e-16 -2.23873e-16 0 -1.17201e-16 3.74762e-16 0 0 0 0)
(-3.71831e-16 1.24599e-16 0 3.63629e-16 -8.48865e-17 0 0 0 0)
(-1.02016e-16 4.38122e-16 0 3.21309e-16 4.95916e-16 0 0 0 0)
(3.53639e-16 4.85733e-16 0 1.87895e-16 5.06954e-16 0 0 0 0)
(9.21848e-13 -9.71112e-15 0 -3.86019e-17 1.0959e-16 0 0 0 0)
(7.26414e-09 -1.35549e-14 0 -1.45159e-14 1.37169e-14 0 0 0 0)
(5.5712e-06 2.99087e-15 0 1.82509e-14 -1.19687e-13 0 0 0 0)