/*--------------------------------*- C++ -*----------------------------------*\
| =========                 |                                                 |
| \\      /  F ield         | OpenFOAM: The Open Source CFD Toolbox           |
|  \\    /   O peration     | Version:  v1912                                 |
|   \\  /    A nd           | Website:  www.openfoam.com                      |
|    \\/     M anipulation  |                                                 |
\*---------------------------------------------------------------------------*/
FoamFile
{
    version     2.0;
    format      ascii;
    class       volVectorField;
    location    "6.5";
    object      grad(rho);
}
// * * * * * * * * * * * * * * * * * * * * * * * * * * * * * * * * * * * * * //

dimensions      [1 -4 0 0 0 0 0];


internalField   nonuniform List<vector> 
1900
(
(102265 0.212564 0)
(-105798 0.503171 0)
(-5154.14 0.291637 0)
(-1525.11 -1.03672 0)
(-1768.64 -2.43163 0)
(-1270.36 -2.39638 0)
(-648.112 0.680659 0)
(-245.128 13.8434 0)
(-67.5275 28.1946 0)
(747.687 -44.3495 0)
(102266 0.416476 0)
(-105798 0.798246 0)
(-5155.68 0.0760088 0)
(-1527.83 -2.09468 0)
(-1770 -3.52157 0)
(-1267.25 0.551479 0)
(-631.872 5.35547 0)
(-217.614 6.50995 0)
(-125.72 -25.8824 0)
(-241.865 -120.743 0)
(102266 1.87583e-08 0)
(-105798 2.30216e-08 0)
(-5157.03 6.59028e-09 0)
(-1528.71 4.40536e-09 0)
(-1766 1.20792e-09 0)
(-1261.48 -6.83897e-09 0)
(-642.153 -1.2399e-08 0)
(-276.366 -7.15872e-09 0)
(-194.78 5.86198e-10 0)
(-368.671 9.37916e-09 0)
(102266 -0.416476 0)
(-105798 -0.798246 0)
(-5155.68 -0.0760088 0)
(-1527.83 2.09468 0)
(-1770 3.52157 0)
(-1267.25 -0.551479 0)
(-631.872 -5.35547 0)
(-217.614 -6.50995 0)
(-125.72 25.8824 0)
(-241.865 120.743 0)
(102265 -0.212564 0)
(-105798 -0.503171 0)
(-5154.14 -0.291637 0)
(-1525.11 1.03672 0)
(-1768.64 2.43163 0)
(-1270.36 2.39638 0)
(-648.112 -0.680659 0)
(-245.128 -13.8434 0)
(-67.5275 -28.1946 0)
(747.687 44.3495 0)
(-274.338 -836.937 1.25461e-11)
(-2451.2 -627.176 -1.48247e-11)
(-3726.14 -651.298 -1.85785e-11)
(-3975.75 -684.023 0)
(-25835.2 -7433.12 -7.6762e-11)
(-758.428 -1009.85 1.23949e-11)
(-1778.02 -754.875 1.48247e-11)
(-3424.18 -723.615 1.85785e-11)
(-6487.74 -239.101 0)
(-24261.1 -6109.74 0)
(-1083.01 1.08287e-08 0)
(-1818.06 1.27968e-08 0)
(-3214 1.10529e-08 0)
(-6117.32 8.04071e-09 0)
(-26485.4 -8.51171e-09 0)
(-758.428 1009.85 1.23949e-11)
(-1778.02 754.875 1.48247e-11)
(-3424.18 723.615 1.85785e-11)
(-6487.74 239.101 0)
(-24261.1 6109.74 0)
(-274.338 836.937 -3.73358e-11)
(-2451.2 627.176 -1.48247e-11)
(-3726.14 651.298 -1.85785e-11)
(-3975.75 684.023 -4.9367e-11)
(-25835.2 7433.12 7.6762e-11)
(-43766 14765.2 1.77265e-11)
(-15759.7 6272.92 -1.01911e-11)
(-9221.89 3305.91 0)
(-6171.78 1821.32 4.67463e-12)
(-1857.74 2174.49 -1.74517e-12)
(-39273.4 19121.9 -9.08559e-12)
(-18230.6 5417.17 5.19001e-12)
(-10359.6 2105.72 0)
(-6351.61 868.722 -2.96246e-12)
(-2561.55 1502.29 4.63975e-13)
(-40857.2 1.52515e-09 0)
(-20073.7 5.31389e-10 0)
(-10710.7 6.25014e-10 0)
(-6376.55 7.54661e-10 1.19545e-12)
(-2524.44 2.23343e-09 -9.2795e-13)
(-39273.4 -19121.9 -9.08559e-12)
(-18230.6 -5417.17 5.19001e-12)
(-10359.6 -2105.72 0)
(-6351.61 -868.722 -2.96246e-12)
(-2561.55 -1502.29 4.63975e-13)
(-43766 -14765.2 9.08559e-12)
(-15759.7 -6272.92 -1.8892e-13)
(-9221.89 -3305.91 0)
(-6171.78 -1821.32 5.48522e-14)
(-1857.74 -2174.49 1.74517e-12)
(-556.021 -2794.83 0)
(-2353.48 -3139.62 0)
(-1805.67 -2850.82 0)
(1471.14 -3425.63 0)
(5250.7 -2370.96 0)
(4731.29 350.86 0)
(1628.88 682.808 0)
(453.456 608.436 0)
(-645.346 875.557 0)
(-1507.26 769.696 0)
(-2063.52 477.758 0)
(-2558.84 299.419 0)
(-2607.65 195.595 0)
(-1826.87 93.9845 0)
(-938.32 29.0465 0)
(-549.152 9.57234 0)
(-445.506 8.1511 0)
(-398.141 12.7843 0)
(-335.03 6.79357 0)
(-238.545 0.74241 0)
(-143.243 -1.69312 0)
(-81.6039 -1.97803 0)
(-52.3123 -1.76616 0)
(-39.0669 -1.58789 0)
(-29.2741 -1.51842 0)
(-19.2705 -1.5033 0)
(-6.64084 -1.54775 0)
(9.63152 -1.65045 0)
(25.6802 -1.60457 0)
(37.1127 -1.50539 0)
(53.7835 -1.67897 0)
(74.5179 -1.26519 0)
(117.693 -1.51536 0)
(160.358 1.07066 0)
(205.572 -0.0552815 0)
(398.111 -0.447121 0)
(1176.71 -4.28624 0)
(2179.27 -6.2948 0)
(1033.42 0.523963 0)
(4032.53 2.23058 0)
(-1626.49 -722.601 0)
(-2498.06 -1177.55 0)
(-1768.59 -1131.03 0)
(1508.44 -1025.42 0)
(5496.97 -1035.05 0)
(5010.8 -165.603 0)
(1733.8 334.858 0)
(557.802 326.86 0)
(-589.222 408.572 0)
(-1589.46 329.014 0)
(-2158.57 196.246 0)
(-2611.41 134.363 0)
(-2636.67 97.5235 0)
(-1843.56 43.0579 0)
(-945.537 12.3609 0)
(-551.044 3.76083 0)
(-445.111 2.75229 0)
(-398.151 5.64604 0)
(-336.175 2.80017 0)
(-239.3 0.240553 0)
(-143.461 -0.812066 0)
(-81.5915 -0.853751 0)
(-52.2745 -0.742205 0)
(-39.0449 -0.671467 0)
(-29.2664 -0.654964 0)
(-19.2724 -0.659909 0)
(-6.65602 -0.690266 0)
(9.62227 -0.758558 0)
(25.6905 -0.761195 0)
(37.1002 -0.741382 0)
(53.805 -0.845945 0)
(74.5131 -0.676318 0)
(117.883 -0.879498 0)
(160.451 0.180295 0)
(205.409 -0.40216 0)
(397.744 -0.670578 0)
(1176.11 -1.75534 0)
(2179.32 -3.23734 0)
(1034.08 -0.10527 0)
(4031.32 -1.50381 0)
(-1449.62 -4.53778e-09 0)
(-2472.3 -2.90919e-08 0)
(-1761.41 -2.09206e-08 0)
(1499.06 7.58262e-08 0)
(5500.82 -1.67664e-07 0)
(5129.81 -1.07857e-07 0)
(1772.15 -3.02885e-07 0)
(474.901 -6.19949e-08 0)
(-644.719 -5.79577e-08 0)
(-1569.03 1.87648e-08 0)
(-2120.14 4.62176e-08 0)
(-2587.56 3.44129e-08 0)
(-2634.21 -5.39932e-08 0)
(-1851.64 -6.50066e-08 0)
(-949.752 -4.05332e-08 0)
(-551.947 -5.9185e-09 0)
(-444.957 -1.04563e-08 0)
(-398.127 -8.78489e-09 0)
(-336.602 7.85634e-09 0)
(-239.596 1.31047e-08 0)
(-143.561 1.32096e-08 0)
(-81.5836 8.41347e-09 0)
(-52.2593 8.24391e-09 0)
(-39.0415 6.39085e-09 0)
(-29.2707 3.94836e-09 0)
(-19.2808 2.69683e-09 0)
(-6.66954 3.01173e-09 0)
(9.61089 6.14458e-09 0)
(25.6851 1.04967e-08 0)
(37.0881 1.01414e-08 0)
(53.8025 2.30926e-09 0)
(74.5082 -5.36137e-09 0)
(117.942 3.62538e-09 0)
(160.497 -1.86437e-08 0)
(205.324 -3.05291e-08 0)
(397.718 -2.02505e-08 0)
(1175.97 -1.45984e-08 0)
(2179.75 9.00048e-08 0)
(1033.92 3.7788e-09 0)
(4029.76 8.94234e-08 0)
(-1626.49 722.601 0)
(-2498.06 1177.55 0)
(-1768.59 1131.03 0)
(1508.44 1025.42 0)
(5496.97 1035.05 0)
(5010.8 165.603 0)
(1733.8 -334.858 0)
(557.802 -326.86 0)
(-589.222 -408.572 0)
(-1589.46 -329.014 0)
(-2158.57 -196.246 0)
(-2611.41 -134.363 0)
(-2636.67 -97.5235 0)
(-1843.56 -43.0579 0)
(-945.537 -12.3609 0)
(-551.044 -3.76083 0)
(-445.111 -2.75229 0)
(-398.151 -5.64604 0)
(-336.175 -2.80017 0)
(-239.3 -0.240553 0)
(-143.461 0.812066 0)
(-81.5915 0.853751 0)
(-52.2745 0.742205 0)
(-39.0449 0.671467 0)
(-29.2664 0.654964 0)
(-19.2724 0.659908 0)
(-6.65602 0.690266 0)
(9.62227 0.758558 0)
(25.6905 0.761195 0)
(37.1002 0.741382 0)
(53.805 0.845945 0)
(74.5131 0.676318 0)
(117.883 0.879498 0)
(160.451 -0.180295 0)
(205.409 0.40216 0)
(397.744 0.670578 0)
(1176.11 1.75534 0)
(2179.32 3.23734 0)
(1034.08 0.10527 0)
(4031.32 1.50381 0)
(-556.021 2794.83 0)
(-2353.48 3139.62 0)
(-1805.67 2850.82 0)
(1471.14 3425.63 0)
(5250.7 2370.96 0)
(4731.29 -350.86 0)
(1628.88 -682.808 0)
(453.456 -608.436 0)
(-645.346 -875.557 0)
(-1507.26 -769.696 0)
(-2063.52 -477.758 0)
(-2558.84 -299.419 0)
(-2607.65 -195.595 0)
(-1826.87 -93.9845 0)
(-938.32 -29.0465 0)
(-549.152 -9.57234 0)
(-445.506 -8.1511 0)
(-398.141 -12.7843 0)
(-335.03 -6.79357 0)
(-238.545 -0.74241 0)
(-143.243 1.69312 0)
(-81.6039 1.97803 0)
(-52.3123 1.76616 0)
(-39.0669 1.58789 0)
(-29.2741 1.51842 0)
(-19.2705 1.5033 0)
(-6.64084 1.54775 0)
(9.63152 1.65045 0)
(25.6802 1.60457 0)
(37.1127 1.50539 0)
(53.7835 1.67897 0)
(74.5179 1.26519 0)
(117.693 1.51536 0)
(160.358 -1.07066 0)
(205.572 0.0552814 0)
(398.111 0.447121 0)
(1176.71 4.28624 0)
(2179.27 6.2948 0)
(1033.42 -0.523963 0)
(4032.53 -2.23058 0)
(-1888.47 2552.74 0)
(-2630.11 2235.92 0)
(-1546.32 3623.64 0)
(1250.55 3968.08 0)
(3412.84 2642.72 0)
(3418.43 -630.893 0)
(1693.55 -832.905 0)
(557.545 -902.237 0)
(-625.482 -1022.34 0)
(-1434.96 -855.716 0)
(-1973.48 -617.948 0)
(-2495.2 -484.354 0)
(-2541.36 -367.4 0)
(-1758.39 -178.573 0)
(-900.932 -52.7701 0)
(-540.124 -18.8548 0)
(-446.669 -17.5721 0)
(-397.311 -21.3276 0)
(-329.946 -12.5329 0)
(-234.849 -2.40332 0)
(-142.007 2.47215 0)
(-81.5315 3.41053 0)
(-52.4755 3.10387 0)
(-39.1748 2.77446 0)
(-29.3105 2.64655 0)
(-19.2563 2.63935 0)
(-6.58127 2.74714 0)
(9.64721 2.92391 0)
(25.6115 2.81795 0)
(37.1324 2.65851 0)
(53.6791 2.86444 0)
(74.4048 2.33916 0)
(116.638 2.2416 0)
(159.643 -1.74127 0)
(206.172 -1.22837 0)
(399.974 0.394019 0)
(1179.08 7.3321 0)
(2176.36 11.6715 0)
(1029.5 -1.3574 0)
(4034.82 -2.92056 0)
(-2014.84 198.321 0)
(-1173.19 403.128 0)
(-275.561 2132.91 0)
(644.177 2180.73 0)
(1804.48 1450.83 0)
(2086.05 -369.9 0)
(1332.73 -860.071 0)
(215.098 -1197.96 0)
(-611.168 -1269.61 0)
(-1156.35 -1060.07 0)
(-1753.94 -866.729 0)
(-2351.53 -763.6 0)
(-2348.53 -569.793 0)
(-1560.41 -253.915 0)
(-804.459 -73.7738 0)
(-520.075 -32.101 0)
(-447.265 -30.0728 0)
(-393.73 -29.3319 0)
(-319.52 -17.8942 0)
(-226.068 -4.3294 0)
(-138.303 3.41646 0)
(-81.034 5.48293 0)
(-52.8377 5.28266 0)
(-39.4497 4.8258 0)
(-29.3848 4.62411 0)
(-19.1812 4.62203 0)
(-6.39857 4.81571 0)
(9.69135 5.06056 0)
(25.4612 4.84752 0)
(37.147 4.58446 0)
(53.5318 4.81078 0)
(73.9784 4.21972 0)
(114.326 3.75424 0)
(157.397 -1.41735 0)
(207.308 -2.27655 0)
(405.362 1.55267 0)
(1186.31 11.5474 0)
(2172.45 16.7584 0)
(1021.46 -1.45887 0)
(4032.35 -3.2221 0)
(-1832.79 -10.6231 0)
(-765.865 546.034 0)
(166.646 403.347 0)
(593.276 473.767 0)
(954.956 119.975 0)
(1191.56 -459.846 0)
(895.604 -969.57 0)
(162.9 -1279.5 0)
(-492.611 -1218.43 0)
(-1046.74 -1099.82 0)
(-1687.79 -1041.62 0)
(-2209.06 -979.616 0)
(-2050.21 -685.766 0)
(-1280.4 -279.208 0)
(-687.184 -87.2947 0)
(-498.012 -47.6173 0)
(-444.001 -43.0025 0)
(-385.575 -36.0823 0)
(-305.852 -21.0111 0)
(-214.313 -4.59523 0)
(-132.552 5.3246 0)
(-79.7331 8.55387 0)
(-53.1087 8.64202 0)
(-39.8094 8.13832 0)
(-29.5068 7.86446 0)
(-19.0716 7.84707 0)
(-6.15868 8.08644 0)
(9.67786 8.28605 0)
(25.1527 7.88936 0)
(37.097 7.44217 0)
(53.3276 7.61737 0)
(73.3867 6.91313 0)
(111.206 6.15436 0)
(153.832 0.0966752 0)
(209.034 -2.26765 0)
(413.295 3.35928 0)
(1193.73 16.0382 0)
(2163.83 20.3553 0)
(1010.25 -3.68427 0)
(4032.49 -5.06518 0)
(-1188.78 -558.649 0)
(-774.275 -83.1011 0)
(-345.2 -236.424 0)
(371.109 -232.302 0)
(904.812 -317.866 0)
(1036.13 -674.333 0)
(542.884 -1103.04 0)
(-24.7154 -1274.09 0)
(-438.028 -1241.97 0)
(-985.967 -1203.09 0)
(-1638.1 -1190.88 0)
(-2008.62 -1078.96 0)
(-1673.59 -671.42 0)
(-983.697 -256.071 0)
(-581.29 -97.1971 0)
(-477.394 -63.2194 0)
(-436.149 -53.8466 0)
(-372.538 -40.129 0)
(-289.178 -20.9461 0)
(-200.69 -2.4125 0)
(-125.632 8.85695 0)
(-77.8372 12.845 0)
(-53.2382 13.2051 0)
(-40.199 12.7175 0)
(-29.6654 12.3881 0)
(-18.9673 12.327 0)
(-5.97555 12.5015 0)
(9.50144 12.4608 0)
(24.648 11.8058 0)
(36.8849 11.0837 0)
(53.022 11.0079 0)
(72.5686 10.1333 0)
(107.757 8.94286 0)
(149.281 2.73715 0)
(210.452 -0.990971 0)
(423.002 4.80928 0)
(1202.69 19.15 0)
(2153.45 23.3292 0)
(996.963 -4.52345 0)
(4030.72 -3.96757 0)
(-1772.37 -715.264 0)
(-455.357 -249.384 0)
(22.8709 -149.599 0)
(514.795 -254.866 0)
(528.999 -566.971 0)
(434.935 -994.002 0)
(317.653 -1240.62 0)
(29.0254 -1231.67 0)
(-424.186 -1226.84 0)
(-997.499 -1266.39 0)
(-1568.17 -1272.24 0)
(-1708.5 -1044.14 0)
(-1257.25 -561.36 0)
(-727.062 -214.557 0)
(-501.345 -102.276 0)
(-456.238 -74.102 0)
(-421.75 -59.2768 0)
(-353.871 -39.4047 0)
(-269.507 -16.7841 0)
(-185.594 2.93758 0)
(-117.849 14.8764 0)
(-75.5431 19.2151 0)
(-53.2316 19.7607 0)
(-40.5967 19.3199 0)
(-29.8831 18.9491 0)
(-18.9623 18.8163 0)
(-6.02979 18.8124 0)
(9.00744 18.4069 0)
(23.8257 17.4799 0)
(36.3281 16.4364 0)
(52.4118 16.0063 0)
(71.3968 14.9289 0)
(104.079 13.4254 0)
(144.259 7.52258 0)
(211.031 3.44685 0)
(432.704 9.36157 0)
(1211.58 23.5802 0)
(2141.02 29.9836 0)
(983.941 1.58188 0)
(4031.45 3.57879 0)
(-1196.2 -493.468 0)
(-229.18 -111 0)
(-350.482 -301.058 0)
(-31.0862 -744.01 0)
(192.554 -1055.38 0)
(386.973 -1084.84 0)
(313.858 -1063.79 0)
(-11.4302 -1142.23 0)
(-471.481 -1208.05 0)
(-1029.72 -1283.52 0)
(-1423.93 -1228.4 0)
(-1323.59 -872.254 0)
(-874.177 -419.389 0)
(-541.307 -180.937 0)
(-445.943 -106.61 0)
(-435.958 -82.3175 0)
(-402.713 -61.2365 0)
(-331.59 -35.5316 0)
(-248.375 -10.0102 0)
(-170.181 10.3618 0)
(-109.946 22.2044 0)
(-73.1305 26.6076 0)
(-53.1372 27.2838 0)
(-40.9811 26.9263 0)
(-30.1508 26.542 0)
(-19.099 26.3154 0)
(-6.37003 25.979 0)
(8.21742 25.0622 0)
(22.7492 23.8707 0)
(35.4649 22.4096 0)
(51.5693 21.4966 0)
(70.0814 20.103 0)
(100.62 18.2809 0)
(139.666 13.0301 0)
(212.224 9.30131 0)
(442.403 14.2569 0)
(1222.56 27.0373 0)
(2132.25 31.8704 0)
(971.518 3.66123 0)
(4020.99 6.67815 0)
(-1706.27 -585.196 0)
(-269.943 -518.036 0)
(-587.121 -724.132 0)
(-212.093 -959.768 0)
(200.562 -998.091 0)
(426.822 -874.832 0)
(262.346 -942.72 0)
(-109.985 -1069.5 0)
(-560.331 -1186.4 0)
(-1017.11 -1231.09 0)
(-1171.86 -1051.58 0)
(-928.9 -640.957 0)
(-591.069 -303.73 0)
(-425.657 -156.095 0)
(-406.311 -106.917 0)
(-412.514 -84.0307 0)
(-376.665 -57.5168 0)
(-304.508 -27.6191 0)
(-225.283 0.220217 0)
(-154.551 20.6379 0)
(-102.194 31.884 0)
(-70.6484 36.0684 0)
(-52.9246 36.777 0)
(-41.3115 36.5051 0)
(-30.4718 36.1234 0)
(-19.5048 35.723 0)
(-7.23739 34.8364 0)
(6.97579 33.4266 0)
(21.2695 31.9858 0)
(34.0403 30.0568 0)
(50.1891 28.5906 0)
(68.298 26.7783 0)
(97.2634 24.6488 0)
(135.606 20.0802 0)
(212.213 17.2996 0)
(449.795 21.525 0)
(1228.55 32.6887 0)
(2118.49 33.691 0)
(959.665 5.58316 0)
(4015.89 8.98748 0)
(-2152.72 -522.462 0)
(-363.063 -496.543 0)
(-776.152 -702.493 0)
(-295.083 -810.569 0)
(274.402 -755.004 0)
(440.33 -723.718 0)
(126.27 -880.955 0)
(-246.252 -1016.43 0)
(-627.2 -1125.67 0)
(-899.803 -1072.01 0)
(-855.258 -788.674 0)
(-602.93 -436.543 0)
(-406.946 -224.491 0)
(-351.65 -136.219 0)
(-376.5 -103.942 0)
(-388.354 -80.8749 0)
(-348.353 -49.6895 0)
(-275.953 -17.2358 0)
(-201.873 10.5064 0)
(-139.668 30.1595 0)
(-95.0769 40.6308 0)
(-68.4154 44.5785 0)
(-52.7164 45.4236 0)
(-41.6109 45.3836 0)
(-30.9044 45.1083 0)
(-20.3392 44.549 0)
(-8.58298 43.4374 0)
(5.47049 41.9895 0)
(19.5019 40.2395 0)
(32.1931 38.0884 0)
(48.41 36.3514 0)
(66.2829 34.4444 0)
(94.1657 32.3605 0)
(132.584 28.678 0)
(213.616 27.3941 0)
(457.233 31.3551 0)
(1234.29 41.1189 0)
(2106.13 40.9407 0)
(947.713 10.4854 0)
(3995.46 13.4573 0)
(-2609.32 -414.099 0)
(-443.428 -396.804 0)
(-889.728 -555.778 0)
(-262.695 -613.467 0)
(284.255 -489.499 0)
(305.451 -690.145 0)
(-19.724 -846.829 0)
(-345.798 -948.246 0)
(-613.887 -985.253 0)
(-692.373 -824.572 0)
(-559.506 -531.105 0)
(-385.232 -293.462 0)
(-301.665 -167.918 0)
(-309.492 -119.048 0)
(-352.98 -98.3647 0)
(-360.235 -74.0982 0)
(-315.34 -39.2665 0)
(-246.501 -4.29588 0)
(-179.611 22.4935 0)
(-125.522 40.7993 0)
(-88.2995 50.2736 0)
(-66.0299 53.9435 0)
(-52.1487 54.9161 0)
(-41.6154 55.0439 0)
(-31.2761 54.7657 0)
(-21.115 54.0257 0)
(-9.70384 52.9791 0)
(3.89424 51.5595 0)
(17.5103 49.3368 0)
(30.2935 47.0281 0)
(46.6775 45.1749 0)
(64.4522 43.3331 0)
(91.7067 41.5642 0)
(130.82 38.8016 0)
(214.793 38.6948 0)
(463.021 41.3127 0)
(1237.79 51.2737 0)
(2088.97 50.942 0)
(933.181 14.4835 0)
(3973.37 18.0643 0)
(-2990.61 -247.512 0)
(-499.59 -223.688 0)
(-984.936 -366.661 0)
(-231.214 -450.312 0)
(200.512 -397.474 0)
(95.9936 -669.643 0)
(-122.445 -788.711 0)
(-379.643 -841.119 0)
(-508.024 -774.633 0)
(-462.17 -558.064 0)
(-343.46 -337.539 0)
(-252.95 -198.8 0)
(-238.874 -129.597 0)
(-284.626 -105.605 0)
(-333.185 -89.5709 0)
(-331.405 -61.7719 0)
(-281.089 -25.3919 0)
(-216.439 8.10468 0)
(-158.417 33.7175 0)
(-112.898 50.0568 0)
(-82.4107 58.5097 0)
(-63.9418 62.1175 0)
(-51.656 63.5491 0)
(-41.7558 64.2045 0)
(-31.8856 64.3584 0)
(-22.0608 63.9843 0)
(-10.9595 63.3106 0)
(1.96058 62.0508 0)
(15.1353 59.7323 0)
(28.1827 57.5721 0)
(44.8493 55.8303 0)
(62.8035 54.3064 0)
(89.799 53.13 0)
(129.819 51.4221 0)
(216.036 52.2697 0)
(469.354 54.8066 0)
(1243.57 65.7312 0)
(2070.68 66.2413 0)
(916.031 24.0307 0)
(3930.33 26.1267 0)
(-3184.59 -81.0943 0)
(-558.243 -49.4387 0)
(-1108.11 -210.651 0)
(-292.388 -343.662 0)
(72.8991 -445.603 0)
(-71.5591 -603.133 0)
(-184.965 -688.398 0)
(-332.233 -662.882 0)
(-341.125 -521.632 0)
(-271.174 -341.076 0)
(-213.307 -206.906 0)
(-184.851 -128.57 0)
(-211.859 -94.8685 0)
(-270.921 -87.3315 0)
(-310.741 -74.664 0)
(-298.39 -41.6927 0)
(-248.005 -3.16556 0)
(-189.541 27.7586 0)
(-139.185 51.3729 0)
(-101.631 65.6979 0)
(-76.6773 73.108 0)
(-61.1737 76.3916 0)
(-50.1376 77.7832 0)
(-40.8355 78.4211 0)
(-31.4883 78.5654 0)
(-22.1247 78.2723 0)
(-11.567 77.6151 0)
(0.446059 76.3001 0)
(13.1945 73.9983 0)
(26.5334 72.0455 0)
(43.5305 70.5711 0)
(61.8501 69.4446 0)
(88.9273 68.9592 0)
(129.991 68.317 0)
(218.054 70.206 0)
(475.993 73.6698 0)
(1248.8 85.7104 0)
(2048.79 83.3074 0)
(894.525 32.7267 0)
(3876.31 35.815 0)
(-3160.37 -10.5494 0)
(-624.436 30.7721 0)
(-1268.46 -116.262 0)
(-457.622 -300.55 0)
(-49.5232 -497.682 0)
(-137.973 -511.897 0)
(-180.022 -520.468 0)
(-218.941 -425.357 0)
(-197.919 -291.208 0)
(-158.889 -187.811 0)
(-138.683 -115.153 0)
(-144.986 -74.5617 0)
(-199.135 -64.2695 0)
(-265.156 -63.3937 0)
(-289.205 -47.7376 0)
(-262.506 -11.962 0)
(-214.163 24.9978 0)
(-163.883 55.2471 0)
(-121.858 76.3033 0)
(-91.9536 88.5359 0)
(-72.1057 94.8106 0)
(-59.4366 97.8018 0)
(-49.7004 99.1234 0)
(-41.002 99.5044 0)
(-32.029 99.2061 0)
(-22.9766 98.4213 0)
(-12.8599 97.1781 0)
(-1.52474 95.2717 0)
(11.0355 92.6241 0)
(24.8801 90.8122 0)
(42.3429 89.4922 0)
(61.2502 88.7815 0)
(88.7124 89.0119 0)
(131.02 89.4707 0)
(221.194 92.6418 0)
(484.295 97.0071 0)
(1252.85 109.209 0)
(2019.62 98.6636 0)
(870.266 38.3451 0)
(3801.77 41.2281 0)
(-3118.35 -26.352 0)
(-660.112 13.1053 0)
(-1427.38 -98.2402 0)
(-659.938 -286.458 0)
(-130.762 -447.68 0)
(-93.5165 -373.895 0)
(-101.572 -306.316 0)
(-111.309 -219.319 0)
(-112.217 -141.547 0)
(-101.521 -85.3007 0)
(-104.176 -45.0747 0)
(-135.818 -31.6401 0)
(-201.097 -36.0624 0)
(-254.991 -29.386 0)
(-261.179 0.791194 0)
(-228.299 39.1189 0)
(-183.24 75.5391 0)
(-140.101 105.91 0)
(-107.106 126.094 0)
(-83.7971 137.687 0)
(-67.7483 143.065 0)
(-57.0178 144.489 0)
(-48.497 143.525 0)
(-40.7558 141.252 0)
(-32.532 138.329 0)
(-24.079 135.295 0)
(-14.6021 132.126 0)
(-3.94234 128.833 0)
(8.89724 125.434 0)
(23.5154 123.489 0)
(41.5737 121.987 0)
(61.3873 121.468 0)
(89.5914 122.291 0)
(133.489 123.984 0)
(225.316 128.624 0)
(491.957 135.133 0)
(1250.4 147.667 0)
(1980.5 127.302 0)
(839.178 53.9275 0)
(3726.4 57.4382 0)
(-3127.87 -9.40915 0)
(-693.71 0.0539919 0)
(-1557.13 -85.6162 0)
(-794.355 -187.014 0)
(-133.781 -246.481 0)
(-1.74982 -168.702 0)
(-31.066 -105.572 0)
(-60.1626 -64.3814 0)
(-68.7751 -26.2279 0)
(-65.9247 4.00103 0)
(-86.9733 22.5363 0)
(-136.301 20.7962 0)
(-196.963 17.5412 0)
(-229.643 32.1448 0)
(-223.192 66.1008 0)
(-190.476 102.922 0)
(-149.801 136.474 0)
(-115.167 161.37 0)
(-91.2365 177.003 0)
(-75.5993 185.566 0)
(-65.5506 189.459 0)
(-58.994 190.484 0)
(-52.8198 189.649 0)
(-46.0084 187.383 0)
(-37.7697 184.111 0)
(-28.9539 180.587 0)
(-19.0868 177.17 0)
(-7.97396 174.649 0)
(5.88569 172.801 0)
(21.5588 172.17 0)
(40.395 172.349 0)
(61.5426 173.836 0)
(91.1373 177.052 0)
(137.123 181.659 0)
(231.937 190.035 0)
(502.646 201.414 0)
(1245.31 215.81 0)
(1929.29 180.202 0)
(802.942 87.0764 0)
(3610.21 89.0714 0)
(-3099.72 69.9501 0)
(-733.548 79.36 0)
(-1607.65 35.6074 0)
(-814.953 14.3638 0)
(-113.116 4.96719 0)
(42.2683 38.3881 0)
(-1.04528 65.0946 0)
(-34.8501 81.8143 0)
(-46.3209 105.576 0)
(-54.5299 119.125 0)
(-87.9911 118.359 0)
(-140.632 105.309 0)
(-190.161 99.9443 0)
(-208.197 113.567 0)
(-192.976 138.75 0)
(-160.485 167.099 0)
(-126.916 190.675 0)
(-101.046 206.585 0)
(-83.7906 216.387 0)
(-71.7943 222.462 0)
(-63.0083 227.235 0)
(-56.8342 232.085 0)
(-51.486 237.392 0)
(-46.0931 242.857 0)
(-39.0801 247.943 0)
(-30.7673 253.182 0)
(-20.3246 256.917 0)
(-8.15212 261.751 0)
(6.50852 264.894 0)
(23.0801 268.213 0)
(43.1787 271.965 0)
(65.9188 277.277 0)
(97.1297 283.798 0)
(146 292.855 0)
(244.354 305.723 0)
(516.795 321.166 0)
(1229.96 330.304 0)
(1856.45 257.382 0)
(751.361 131.42 0)
(3461.86 120.285 0)
(-2928.98 118.375 0)
(-726.803 180.7 0)
(-1619.76 257.023 0)
(-823.881 285.288 0)
(-110.63 269.333 0)
(56.1911 277.029 0)
(10.781 286.304 0)
(-21.1531 290.097 0)
(-32.8209 299.53 0)
(-53.6071 294.181 0)
(-100.287 279.242 0)
(-154.046 264.86 0)
(-189.006 265.119 0)
(-192.248 284.057 0)
(-171.606 310.435 0)
(-140.44 337.016 0)
(-111.751 357.995 0)
(-90.3905 373.567 0)
(-75.9371 385.889 0)
(-65.146 397.027 0)
(-56.2779 408.879 0)
(-49.2061 422.074 0)
(-42.4389 436.479 0)
(-35.8412 451.983 0)
(-27.8204 468.031 0)
(-20.3057 484.603 0)
(-10.8292 498.294 0)
(-0.287791 511.941 0)
(12.1127 523.134 0)
(28.3729 534.831 0)
(49.1298 546.311 0)
(72.9459 559.322 0)
(106.148 571.623 0)
(158.25 586.527 0)
(259.219 601.585 0)
(526.334 612.256 0)
(1183.84 587.398 0)
(1737.64 407.193 0)
(670.831 142.056 0)
(3266.18 60.1525 0)
(-2776.51 75.0203 0)
(-599.941 156.949 0)
(-1506.86 481.343 0)
(-803.091 678.809 0)
(-121.075 691.733 0)
(58.6227 694.341 0)
(11.5481 702.283 0)
(-22.105 706.914 0)
(-42.3861 711.451 0)
(-74.0802 705.317 0)
(-116.246 701.479 0)
(-154.242 716.602 0)
(-171.661 755.125 0)
(-164.528 811.679 0)
(-141.944 872.611 0)
(-114.654 927.35 0)
(-91.6938 974.943 0)
(-74.1661 1015.86 0)
(-61.1844 1051.33 0)
(-49.6401 1083.75 0)
(-38.8716 1117.57 0)
(-30.238 1152.93 0)
(-22.6651 1185.73 0)
(-15.6881 1214.06 0)
(-7.64552 1238.71 0)
(-1.60515 1262.74 0)
(6.01925 1280.17 0)
(15.7842 1297.3 0)
(28.5658 1311.07 0)
(45.4148 1326.57 0)
(66.7789 1339.67 0)
(90.3101 1350.6 0)
(123.346 1354.5 0)
(174.873 1354.11 0)
(269.148 1339.19 0)
(503.123 1296.46 0)
(1032.35 1144.64 0)
(1427.3 703.358 0)
(416.94 127.103 0)
(3242.84 -129.017 0)
(-3260.13 9809.21 0)
(-335.256 -388.053 0)
(-1116.88 515.19 0)
(-621.142 1007.99 0)
(-95.6627 1162.32 0)
(66.3569 1175.32 0)
(22.8962 1220.09 0)
(-12.318 1266.91 0)
(-34.36 1311.81 0)
(-63.217 1354.84 0)
(-89.4115 1401.07 0)
(-102.35 1462.41 0)
(-97.3857 1536.44 0)
(-79.0344 1619.03 0)
(-60.1418 1701.6 0)
(-41.8284 1776.96 0)
(-26.4598 1844.54 0)
(-16.7839 1903.71 0)
(-10.5128 1954.39 0)
(-1.31641 1997.16 0)
(10.3845 2035.71 0)
(16.4782 2069.61 0)
(16.4713 2095.24 0)
(15.2157 2112.91 0)
(19.0829 2123.82 0)
(19.641 2132.09 0)
(22.479 2131.77 0)
(29.4897 2131.49 0)
(40.319 2124.56 0)
(55.9356 2115.68 0)
(72.2882 2100.53 0)
(87.24 2076.7 0)
(109.528 2041.76 0)
(143.489 1993.35 0)
(203.668 1922.72 0)
(338.865 1810.75 0)
(612.304 1509.37 0)
(757.099 850.443 0)
(-131.276 -356.096 0)
(3974.45 6947.22 0)
(-1962.98 380227 0)
(-9555.99 6619.92 0)
(-161.586 -500.144 0)
(-179.493 42.8204 0)
(40.1652 308.561 0)
(114.293 290.076 0)
(99.811 322.091 0)
(66.282 369.476 0)
(42.3518 407.495 0)
(11.932 456.28 0)
(-12.5883 508.011 0)
(-23.7958 571.169 0)
(-20.7444 637.007 0)
(-5.37828 698.079 0)
(10.2494 752.093 0)
(23.0874 799.51 0)
(30.4482 837.351 0)
(31.6949 867.014 0)
(28.8653 889.812 0)
(28.7189 907.523 0)
(30.9413 922.063 0)
(27.1323 932.505 0)
(19.06 938.726 0)
(11.8498 942.396 0)
(10.8375 943.307 0)
(6.058 940.318 0)
(5.439 934.848 0)
(8.83444 928.051 0)
(13.332 918.745 0)
(22.2615 906.527 0)
(29.2161 889.739 0)
(33.6772 869.256 0)
(43.0303 841.191 0)
(60.1574 808.968 0)
(93.1874 762.962 0)
(104.807 687.67 0)
(106.966 444.24 0)
(-370.329 -78.6184 0)
(6292.02 5529.45 0)
(4932.68 313860 0)
(357761 -374124 0)
(-367217 6204.95 0)
(-7454.81 5564.43 0)
(158.155 5044.34 0)
(142.602 4807.13 0)
(79.3951 4729.68 0)
(99.409 4555.25 0)
(69.9804 4448.69 0)
(49.2874 4382.88 0)
(33.6442 4345.38 0)
(21.2992 4347.78 0)
(21.955 4351.19 0)
(24.9092 4356.12 0)
(31.8663 4341.22 0)
(37.6015 4307.82 0)
(40.3291 4259.21 0)
(38.5895 4203.81 0)
(33.7696 4145.57 0)
(28.5225 4088.08 0)
(29.7625 4037.67 0)
(34.4586 3995.64 0)
(32.5347 3966.85 0)
(26.0026 3949.33 0)
(19.6306 3935.94 0)
(17.0804 3928.55 0)
(11.4889 3917.94 0)
(10.658 3915.6 0)
(13.9728 3899.19 0)
(19.5772 3883.66 0)
(27.9838 3842.93 0)
(36.373 3793.37 0)
(40.4579 3720.82 0)
(51.4319 3651.03 0)
(68.1051 3548.6 0)
(86.7801 3440.5 0)
(31.7325 3283.41 0)
(-126.119 3288.84 0)
(5657.39 3946.71 0)
(302391 5626.95 0)
(-292359 -304420 0)
(357761 374124 0)
(-367217 -6204.95 0)
(-7454.81 -5564.43 0)
(158.155 -5044.34 0)
(142.602 -4807.13 0)
(79.3951 -4729.68 0)
(99.409 -4555.25 0)
(69.9804 -4448.69 0)
(49.2874 -4382.88 0)
(33.6442 -4345.38 0)
(21.2992 -4347.78 0)
(21.955 -4351.19 0)
(24.9092 -4356.12 0)
(31.8663 -4341.22 0)
(37.6015 -4307.82 0)
(40.3291 -4259.21 0)
(38.5895 -4203.81 0)
(33.7696 -4145.57 0)
(28.5225 -4088.08 0)
(29.7625 -4037.67 0)
(34.4586 -3995.64 0)
(32.5347 -3966.85 0)
(26.0026 -3949.33 0)
(19.6306 -3935.94 0)
(17.0804 -3928.55 0)
(11.4889 -3917.94 0)
(10.658 -3915.6 0)
(13.9728 -3899.19 0)
(19.5772 -3883.66 0)
(27.9838 -3842.93 0)
(36.373 -3793.37 0)
(40.4579 -3720.82 0)
(51.4319 -3651.03 0)
(68.1051 -3548.6 0)
(86.7801 -3440.5 0)
(31.7325 -3283.41 0)
(-126.119 -3288.84 0)
(5657.39 -3946.71 0)
(302391 -5626.95 0)
(-292359 304420 0)
(-1962.98 -380227 0)
(-9555.99 -6619.92 0)
(-161.586 500.144 0)
(-179.493 -42.8204 0)
(40.1652 -308.561 0)
(114.293 -290.076 0)
(99.811 -322.091 0)
(66.282 -369.476 0)
(42.3518 -407.495 0)
(11.932 -456.28 0)
(-12.5883 -508.011 0)
(-23.7958 -571.169 0)
(-20.7444 -637.007 0)
(-5.37828 -698.079 0)
(10.2494 -752.093 0)
(23.0874 -799.51 0)
(30.4482 -837.351 0)
(31.6949 -867.014 0)
(28.8653 -889.812 0)
(28.7189 -907.523 0)
(30.9413 -922.063 0)
(27.1323 -932.505 0)
(19.06 -938.726 0)
(11.8498 -942.396 0)
(10.8375 -943.307 0)
(6.058 -940.318 0)
(5.439 -934.848 0)
(8.83444 -928.051 0)
(13.332 -918.745 0)
(22.2615 -906.527 0)
(29.2161 -889.739 0)
(33.6772 -869.256 0)
(43.0303 -841.191 0)
(60.1574 -808.968 0)
(93.1874 -762.962 0)
(104.807 -687.67 0)
(106.966 -444.24 0)
(-370.329 78.6184 0)
(6292.02 -5529.45 0)
(4932.68 -313860 0)
(-3260.13 -9809.21 0)
(-335.256 388.053 0)
(-1116.88 -515.19 0)
(-621.142 -1007.99 0)
(-95.6627 -1162.32 0)
(66.3569 -1175.32 0)
(22.8962 -1220.09 0)
(-12.318 -1266.91 0)
(-34.36 -1311.81 0)
(-63.217 -1354.84 0)
(-89.4115 -1401.07 0)
(-102.35 -1462.41 0)
(-97.3857 -1536.44 0)
(-79.0344 -1619.03 0)
(-60.1418 -1701.6 0)
(-41.8284 -1776.96 0)
(-26.4598 -1844.54 0)
(-16.7839 -1903.71 0)
(-10.5128 -1954.39 0)
(-1.31641 -1997.16 0)
(10.3845 -2035.71 0)
(16.4782 -2069.61 0)
(16.4713 -2095.24 0)
(15.2157 -2112.91 0)
(19.0829 -2123.82 0)
(19.641 -2132.09 0)
(22.479 -2131.77 0)
(29.4897 -2131.49 0)
(40.319 -2124.56 0)
(55.9356 -2115.68 0)
(72.2882 -2100.53 0)
(87.24 -2076.7 0)
(109.528 -2041.76 0)
(143.489 -1993.35 0)
(203.668 -1922.72 0)
(338.865 -1810.75 0)
(612.304 -1509.37 0)
(757.099 -850.443 0)
(-131.276 356.096 0)
(3974.45 -6947.22 0)
(-2776.51 -75.0203 0)
(-599.941 -156.949 0)
(-1506.86 -481.343 0)
(-803.091 -678.809 0)
(-121.075 -691.733 0)
(58.6227 -694.341 0)
(11.5481 -702.283 0)
(-22.105 -706.914 0)
(-42.3861 -711.451 0)
(-74.0802 -705.317 0)
(-116.246 -701.479 0)
(-154.242 -716.602 0)
(-171.661 -755.125 0)
(-164.528 -811.679 0)
(-141.944 -872.611 0)
(-114.654 -927.35 0)
(-91.6938 -974.943 0)
(-74.1661 -1015.86 0)
(-61.1844 -1051.33 0)
(-49.6401 -1083.75 0)
(-38.8716 -1117.57 0)
(-30.238 -1152.93 0)
(-22.6651 -1185.73 0)
(-15.6881 -1214.06 0)
(-7.64552 -1238.71 0)
(-1.60515 -1262.74 0)
(6.01925 -1280.17 0)
(15.7842 -1297.3 0)
(28.5658 -1311.07 0)
(45.4148 -1326.57 0)
(66.7789 -1339.67 0)
(90.3101 -1350.6 0)
(123.346 -1354.5 0)
(174.873 -1354.11 0)
(269.148 -1339.19 0)
(503.123 -1296.46 0)
(1032.35 -1144.64 0)
(1427.3 -703.358 0)
(416.94 -127.103 0)
(3242.84 129.017 0)
(-2928.98 -118.375 0)
(-726.803 -180.7 0)
(-1619.76 -257.023 0)
(-823.881 -285.288 0)
(-110.63 -269.333 0)
(56.1911 -277.029 0)
(10.781 -286.304 0)
(-21.1531 -290.097 0)
(-32.8209 -299.53 0)
(-53.6071 -294.181 0)
(-100.287 -279.242 0)
(-154.046 -264.86 0)
(-189.006 -265.119 0)
(-192.248 -284.057 0)
(-171.606 -310.435 0)
(-140.44 -337.016 0)
(-111.751 -357.995 0)
(-90.3905 -373.567 0)
(-75.9371 -385.889 0)
(-65.146 -397.027 0)
(-56.2779 -408.879 0)
(-49.2061 -422.074 0)
(-42.4389 -436.479 0)
(-35.8412 -451.983 0)
(-27.8204 -468.031 0)
(-20.3057 -484.603 0)
(-10.8292 -498.294 0)
(-0.287791 -511.941 0)
(12.1127 -523.134 0)
(28.3729 -534.831 0)
(49.1298 -546.311 0)
(72.9459 -559.322 0)
(106.148 -571.623 0)
(158.25 -586.527 0)
(259.219 -601.585 0)
(526.334 -612.256 0)
(1183.84 -587.398 0)
(1737.64 -407.193 0)
(670.831 -142.056 0)
(3266.18 -60.1525 0)
(-3099.72 -69.9501 0)
(-733.548 -79.36 0)
(-1607.65 -35.6074 0)
(-814.953 -14.3638 0)
(-113.116 -4.96719 0)
(42.2683 -38.3881 0)
(-1.04528 -65.0946 0)
(-34.8501 -81.8143 0)
(-46.3209 -105.576 0)
(-54.5299 -119.125 0)
(-87.9911 -118.359 0)
(-140.632 -105.309 0)
(-190.161 -99.9443 0)
(-208.197 -113.567 0)
(-192.976 -138.75 0)
(-160.485 -167.099 0)
(-126.916 -190.675 0)
(-101.046 -206.585 0)
(-83.7906 -216.387 0)
(-71.7943 -222.462 0)
(-63.0083 -227.235 0)
(-56.8342 -232.085 0)
(-51.486 -237.392 0)
(-46.0931 -242.857 0)
(-39.0801 -247.943 0)
(-30.7673 -253.182 0)
(-20.3246 -256.917 0)
(-8.15212 -261.751 0)
(6.50852 -264.894 0)
(23.0801 -268.213 0)
(43.1787 -271.965 0)
(65.9188 -277.277 0)
(97.1297 -283.798 0)
(146 -292.855 0)
(244.354 -305.723 0)
(516.795 -321.166 0)
(1229.96 -330.304 0)
(1856.45 -257.382 0)
(751.361 -131.42 0)
(3461.86 -120.285 0)
(-3127.87 9.40915 0)
(-693.71 -0.0539919 0)
(-1557.13 85.6162 0)
(-794.355 187.014 0)
(-133.781 246.481 0)
(-1.74982 168.702 0)
(-31.066 105.572 0)
(-60.1626 64.3814 0)
(-68.7751 26.2279 0)
(-65.9247 -4.00103 0)
(-86.9733 -22.5363 0)
(-136.301 -20.7962 0)
(-196.963 -17.5412 0)
(-229.643 -32.1448 0)
(-223.192 -66.1008 0)
(-190.476 -102.922 0)
(-149.801 -136.474 0)
(-115.167 -161.37 0)
(-91.2365 -177.003 0)
(-75.5993 -185.566 0)
(-65.5506 -189.459 0)
(-58.994 -190.484 0)
(-52.8198 -189.649 0)
(-46.0084 -187.383 0)
(-37.7697 -184.111 0)
(-28.9539 -180.587 0)
(-19.0868 -177.17 0)
(-7.97396 -174.649 0)
(5.88569 -172.801 0)