/*--------------------------------*- C++ -*----------------------------------*\
| =========                 |                                                 |
| \\      /  F ield         | OpenFOAM: The Open Source CFD Toolbox           |
|  \\    /   O peration     | Version:  v1912                                 |
|   \\  /    A nd           | Website:  www.openfoam.com                      |
|    \\/     M anipulation  |                                                 |
\*---------------------------------------------------------------------------*/
FoamFile
{
    version     2.0;
    format      ascii;
    class       volVectorField;
    location    "0.8";
    object      U;
}
// * * * * * * * * * * * * * * * * * * * * * * * * * * * * * * * * * * * * * //

dimensions      [0 1 -1 0 0 0 0];


internalField   nonuniform List<vector> 
1900
(
(6.62198e-16 0 0)
(2.75209e-12 4.10766e-14 0)
(8.38135e-10 9.84122e-12 0)
(2.89473e-08 3.18046e-10 0)
(1.83412e-07 1.94604e-09 0)
(3.53392e-07 3.79659e-09 0)
(3.34894e-07 3.57444e-09 0)
(-1.93312e-05 -5.5107e-07 0)
(-0.000625505 -2.936e-05 0)
(-0.00516734 -0.000464291 0)
(8.37295e-16 1.40839e-17 0)
(3.40642e-12 1.47067e-13 0)
(9.49643e-10 3.64345e-11 0)
(3.07443e-08 9.3722e-10 0)
(1.85864e-07 3.67068e-09 0)
(3.47194e-07 2.36502e-09 0)
(3.15696e-07 -1.01063e-08 0)
(-2.33743e-05 -2.03763e-06 0)
(-0.000799488 -8.85072e-05 0)
(-0.00719922 -0.00103607 0)
(1.02965e-15 0 0)
(3.98728e-12 1.18e-17 0)
(1.04427e-09 -1.90374e-15 0)
(3.20849e-08 -4.12735e-15 0)
(1.8705e-07 -1.98115e-14 0)
(3.41502e-07 1.93216e-15 0)
(2.88102e-07 1.66327e-14 0)
(-2.80749e-05 -1.64738e-14 0)
(-0.000939114 -1.00755e-14 0)
(-0.00815153 -2.73083e-15 0)
(7.80198e-16 -1.45915e-17 0)
(3.40638e-12 -1.46767e-13 0)
(9.49625e-10 -3.64761e-11 0)
(3.07443e-08 -9.37231e-10 0)
(1.85864e-07 -3.67074e-09 0)
(3.47194e-07 -2.36502e-09 0)
(3.15696e-07 1.01063e-08 0)
(-2.33743e-05 2.03763e-06 0)
(-0.000799488 8.85072e-05 0)
(-0.00719922 0.00103607 0)
(6.19566e-16 0 0)
(2.7523e-12 -4.07707e-14 0)
(8.38066e-10 -9.86545e-12 0)
(2.89474e-08 -3.1805e-10 0)
(1.83412e-07 -1.94607e-09 0)
(3.53392e-07 -3.79659e-09 0)
(3.34894e-07 -3.57446e-09 0)
(-1.93312e-05 5.5107e-07 0)
(-0.000625505 2.936e-05 0)
(-0.00516734 0.000464291 0)
(-0.0159089 -0.00246659 0)
(-0.0321307 -0.00697793 0)
(-0.0512746 -0.0155441 0)
(-0.06744 -0.0335845 0)
(-0.118293 -0.0387629 0)
(-0.0218427 -0.00411992 0)
(-0.0401968 -0.0076346 0)
(-0.0595805 -0.0136548 0)
(-0.0841631 -0.0235378 0)
(-0.131277 -0.0257407 0)
(-0.0239314 -1.0348e-14 0)
(-0.0419637 -1.19888e-14 0)
(-0.0620369 1.61453e-14 0)
(-0.0890208 -7.23155e-15 0)
(-0.133768 9.81887e-15 0)
(-0.0218427 0.00411992 0)
(-0.0401968 0.0076346 0)
(-0.0595805 0.0136548 0)
(-0.0841631 0.0235378 0)
(-0.131277 0.0257407 0)
(-0.0159089 0.00246659 0)
(-0.0321307 0.00697793 0)
(-0.0512746 0.0155441 0)
(-0.06744 0.0335845 0)
(-0.118293 0.0387629 0)
(-0.148894 0.00438405 0)
(-0.12228 0.00917923 0)
(-0.105345 0.0111264 0)
(-0.107751 0.026031 0)
(-0.171875 0.0615389 0)
(-0.152376 0.00494189 0)
(-0.128007 0.00601156 0)
(-0.104231 0.00714141 0)
(-0.0850814 0.0228908 0)
(-0.0488276 0.0757428 0)
(-0.155535 8.85701e-15 0)
(-0.129951 7.96916e-15 0)
(-0.103337 -1.8207e-15 0)
(-0.06989 2.17056e-14 0)
(0.0178516 1.90125e-14 0)
(-0.152376 -0.00494189 0)
(-0.128007 -0.00601156 0)
(-0.104231 -0.00714141 0)
(-0.0850814 -0.0228908 0)
(-0.0488276 -0.0757428 0)
(-0.148894 -0.00438405 0)
(-0.12228 -0.00917923 0)
(-0.105345 -0.0111264 0)
(-0.107751 -0.026031 0)
(-0.171875 -0.0615389 0)
(-0.348842 0.0382146 0)
(-0.143667 -0.13036 0)
(-0.194218 -0.10274 0)
(-0.203199 -0.0370622 0)
(-0.164036 -0.0111367 0)
(-0.105706 -0.00185095 0)
(-0.0507641 -0.000344842 0)
(-0.0144875 -2.57128e-05 0)
(-0.00172785 1.73773e-06 0)
(-5.55983e-05 1.25261e-07 0)
(-3.14657e-07 1.96256e-09 0)
(-2.17576e-10 2.32279e-12 0)
(-1.26885e-14 1.18739e-15 0)
(-7.65299e-17 -1.58487e-16 0)
(3.61839e-18 3.29894e-17 0)
(1.62249e-16 -1.23883e-16 0)
(-1.52062e-17 -5.28291e-17 0)
(-5.86586e-17 -1.00122e-16 0)
(-1.24902e-16 1.94245e-16 0)
(3.35311e-17 -5.00608e-17 0)
(4.62773e-17 6.45946e-17 0)
(6.28507e-17 -1.38186e-16 0)
(1.643e-17 1.27113e-16 0)
(-2.07636e-16 5.246e-16 0)
(-5.72423e-17 6.22876e-18 0)
(1.92573e-16 8.53571e-18 0)
(8.7461e-17 4.3832e-18 0)
(1.54697e-14 -3.09131e-17 0)
(2.63814e-10 2.71242e-14 0)
(3.80346e-07 -9.99947e-15 0)
(6.71092e-05 2.67017e-14 0)
(0.00208314 -7.37032e-14 0)
(0.0174636 6.03721e-14 0)
(0.0617846 -8.28172e-14 0)
(0.132941 8.43299e-14 0)
(0.218909 -3.7387e-14 0)
(0.309531 4.70025e-14 0)
(0.394357 1.8202e-14 0)
(0.485964 2.71763e-14 0)
(1.13378 1.15657e-14 0)
(0.0560037 0.058046 0)
(0.0442852 -0.0939353 0)
(-0.122118 -0.0664033 0)
(-0.186406 -0.0209695 0)
(-0.164695 -0.0060689 0)
(-0.106549 -0.000695505 0)
(-0.0508527 -3.21359e-05 0)
(-0.0144659 3.15391e-07 0)
(-0.00172692 1.23577e-06 0)
(-5.56897e-05 9.99706e-08 0)
(-3.16763e-07 1.2393e-09 0)
(-2.20897e-10 1.45161e-12 0)
(-1.39599e-14 2.40615e-16 0)
(-1.37792e-16 9.91988e-18 0)
(-1.64008e-18 -2.30695e-19 0)
(1.48515e-16 3.22973e-18 0)
(2.22633e-17 0 0)
(-5.34612e-17 3.82953e-17 0)
(-1.77563e-16 4.04869e-16 0)
(2.37222e-17 1.82249e-16 0)
(6.35228e-17 1.09349e-16 0)
(1.33427e-16 2.98058e-16 0)
(3.91203e-17 3.57808e-16 0)
(-3.15496e-16 7.403e-16 0)
(-1.62793e-16 3.61268e-16 0)
(1.5274e-16 -9.87374e-17 0)
(1.69145e-16 -3.60115e-16 0)
(1.55032e-14 2.50535e-16 0)
(2.63827e-10 4.93447e-14 0)
(3.80346e-07 -1.70034e-14 0)
(6.71092e-05 1.8894e-14 0)
(0.00208314 -9.34041e-14 0)
(0.0174636 3.50318e-14 0)
(0.0617846 -5.25806e-14 0)
(0.132941 7.41222e-14 0)
(0.218909 -3.78396e-14 0)
(0.309531 2.98437e-14 0)
(0.394357 4.26947e-15 0)
(0.485964 -9.24348e-15 0)
(1.13378 -1.3542e-14 0)
(0.173948 4.64802e-14 0)
(0.117176 2.23047e-14 0)
(-0.0938466 -8.43095e-15 0)
(-0.182134 -1.43926e-14 0)
(-0.164853 3.38031e-14 0)
(-0.106998 6.51752e-14 0)
(-0.0508962 4.15272e-14 0)
(-0.0144657 -4.25041e-14 0)
(-0.00172691 2.43434e-14 0)
(-5.57408e-05 3.03503e-14 0)
(-3.1761e-07 -6.23176e-15 0)
(-2.22194e-10 1.76482e-16 0)
(-1.31698e-14 -1.09718e-15 0)
(-1.86188e-16 3.07055e-16 0)
(-1.49864e-17 -6.59787e-17 0)
(1.76638e-16 0 0)
(1.37287e-17 0 0)
(-1.7267e-18 4.0833e-17 0)
(-9.04916e-17 3.92643e-16 0)
(-5.74071e-17 2.90214e-16 0)
(6.48407e-17 2.33925e-16 0)
(1.44124e-16 5.5113e-16 0)
(5.67444e-18 5.53898e-16 0)
(-2.38757e-16 5.14911e-16 0)
(-2.38718e-16 5.91271e-16 0)
(-4.67476e-17 2.54456e-16 0)
(2.51401e-16 -2.05549e-16 0)
(1.57379e-14 1.78027e-15 0)
(2.63844e-10 3.42247e-14 0)
(3.80346e-07 -2.31938e-14 0)
(6.71092e-05 9.08699e-15 0)
(0.00208314 -8.24269e-14 0)
(0.0174636 1.23967e-14 0)
(0.0617846 -2.81319e-14 0)
(0.132941 3.8336e-14 0)
(0.218909 -2.07506e-14 0)
(0.309531 1.94667e-14 0)
(0.394357 -7.44132e-15 0)
(0.485964 -8.31758e-15 0)
(1.13378 -3.74228e-14 0)
(0.0560037 -0.058046 0)
(0.0442852 0.0939353 0)
(-0.122118 0.0664033 0)
(-0.186406 0.0209695 0)
(-0.164695 0.0060689 0)
(-0.106549 0.000695505 0)
(-0.0508527 3.21359e-05 0)
(-0.0144659 -3.15391e-07 0)
(-0.00172692 -1.23577e-06 0)
(-5.56897e-05 -9.99705e-08 0)
(-3.16763e-07 -1.23932e-09 0)
(-2.20899e-10 -1.44935e-12 0)
(-1.29719e-14 -5.2137e-17 0)
(-6.56219e-17 4.92072e-16 0)
(-5.08504e-17 9.50463e-17 0)
(9.90194e-17 0 0)
(-2.06601e-18 0 0)
(-1.72158e-17 0 0)
(1.71338e-18 1.34264e-16 0)
(-4.46888e-17 1.04505e-16 0)
(5.4896e-17 8.62799e-17 0)
(1.78614e-16 1.53181e-16 0)
(5.77462e-18 3.59884e-17 0)
(-2.73597e-16 1.39109e-16 0)
(-1.80949e-16 3.7834e-16 0)
(-1.73985e-17 4.78692e-16 0)
(1.42971e-16 -1.40724e-17 0)
(1.71386e-14 5.07529e-18 0)
(2.63852e-10 4.91518e-15 0)
(3.80346e-07 3.41198e-16 0)
(6.71092e-05 -1.53109e-14 0)
(0.00208314 -9.18866e-14 0)
(0.0174636 6.75938e-16 0)
(0.0617846 -9.17339e-15 0)
(0.132941 1.8606e-14 0)
(0.218909 -4.42326e-15 0)
(0.309531 1.15743e-14 0)
(0.394357 -1.48399e-14 0)
(0.485964 -8.21485e-15 0)
(1.13378 -1.49327e-14 0)
(-0.348842 -0.0382146 0)
(-0.143667 0.13036 0)
(-0.194218 0.10274 0)
(-0.203199 0.0370622 0)
(-0.164036 0.0111367 0)
(-0.105706 0.00185095 0)
(-0.0507641 0.000344842 0)
(-0.0144875 2.57128e-05 0)
(-0.00172785 -1.73773e-06 0)
(-5.55983e-05 -1.25261e-07 0)
(-3.14657e-07 -1.96256e-09 0)
(-2.17579e-10 -2.31488e-12 0)
(-1.26223e-14 -9.45849e-18 0)
(-1.98061e-20 1.45799e-16 0)
(-3.78873e-17 1.88708e-16 0)
(2.6534e-17 0 0)
(-6.05519e-17 0 0)
(6.62223e-18 0 0)
(3.5917e-18 -7.61293e-17 0)
(-2.70009e-19 -7.82056e-17 0)
(9.85227e-19 0 0)
(5.03075e-17 -5.55975e-17 0)
(-1.87723e-19 -4.14559e-16 0)
(-1.1815e-16 -1.17193e-16 0)
(-8.4874e-17 1.07042e-16 0)
(-1.92673e-17 3.22973e-16 0)
(5.52739e-18 0 0)
(1.58393e-14 -2.1367e-15 0)
(2.6385e-10 -9.13828e-15 0)
(3.80346e-07 2.04693e-14 0)
(6.71092e-05 -3.36366e-14 0)
(0.00208314 -8.14448e-14 0)
(0.0174636 -2.21808e-14 0)
(0.0617846 2.69391e-14 0)
(0.132941 1.59061e-14 0)
(0.218909 3.34314e-15 0)
(0.309531 -2.01324e-14 0)
(0.394357 -2.04523e-14 0)
(0.485964 -2.97868e-14 0)
(1.13378 -1.84937e-14 0)
(-0.973429 -0.0806783 0)
(-0.360548 0.144152 0)
(-0.278139 0.114331 0)
(-0.227818 0.0529946 0)
(-0.170246 0.0190145 0)
(-0.10752 0.00622154 0)
(-0.0513855 0.00172811 0)
(-0.0146795 0.000294424 0)
(-0.00174733 1.92246e-05 0)
(-5.57354e-05 2.35095e-07 0)
(-3.11392e-07 2.52027e-10 0)
(-2.12409e-10 -1.72615e-13 0)
(-1.23936e-14 3.7524e-16 0)
(-1.17068e-17 -5.0631e-17 0)
(8.73296e-18 9.63869e-17 0)
(-3.84777e-17 8.05778e-17 0)
(-2.00045e-17 0 0)
(-1.77936e-17 -5.5715e-19 0)
(-9.12944e-18 -6.12168e-17 0)
(-1.03892e-18 1.85252e-17 0)
(5.54579e-18 0 0)
(4.38421e-20 -7.37527e-17 0)
(-3.55922e-19 -2.18403e-16 0)
(-4.95318e-17 -1.96465e-16 0)
(2.55088e-17 -4.28309e-17 0)
(-2.30885e-17 9.3044e-17 0)
(-3.50896e-17 -7.88367e-17 0)
(1.55813e-14 1.99181e-16 0)
(2.63846e-10 -1.15865e-14 0)
(3.80346e-07 4.57229e-14 0)
(6.71092e-05 -1.16636e-14 0)
(0.00208314 -7.07952e-14 0)
(0.0174636 -3.54454e-14 0)
(0.0617846 8.53835e-14 0)
(0.132941 -4.72037e-16 0)
(0.218909 2.43844e-14 0)
(0.309531 -2.41423e-14 0)
(0.394357 -2.25314e-14 0)
(0.485964 -2.59925e-15 0)
(1.13378 -4.3992e-15 0)
(-1.132 0.0145419 0)
(-0.460382 0.0990582 0)
(-0.345677 0.0849862 0)
(-0.261752 0.048986 0)
(-0.187082 0.0221335 0)
(-0.115441 0.00920844 0)
(-0.0543265 0.0029115 0)
(-0.0154051 0.000577543 0)
(-0.00182554 5.11195e-05 0)
(-5.7978e-05 1.27819e-06 0)
(-3.22515e-07 5.60838e-09 0)
(-2.19075e-10 3.02608e-12 0)
(-1.32372e-14 9.84762e-17 0)
(2.2882e-17 3.80951e-17 0)
(1.01286e-17 1.09898e-16 0)
(-6.45589e-17 2.47792e-16 0)
(-3.80508e-17 9.75012e-17 0)
(-8.95927e-17 0 0)
(-3.1629e-17 5.20239e-17 0)
(-2.14476e-18 1.90267e-16 0)
(1.34335e-17 5.62025e-17 0)
(1.40394e-19 0 0)
(1.81374e-18 -5.98936e-17 0)
(-7.61582e-17 -5.83614e-17 0)
(1.9668e-17 -4.61738e-17 0)
(-7.61064e-17 0 0)
(4.29794e-17 -3.62147e-17 0)
(1.63861e-14 -2.30451e-16 0)
(2.63823e-10 -1.68171e-14 0)
(3.80346e-07 1.50089e-15 0)
(6.71092e-05 1.62002e-16 0)
(0.00208314 -9.76615e-14 0)
(0.0174636 -3.94534e-14 0)
(0.0617846 1.03408e-13 0)
(0.132941 -6.46767e-14 0)
(0.218909 5.05256e-14 0)
(0.309531 -5.82659e-16 0)
(0.394357 -1.69284e-14 0)
(0.485964 1.17968e-14 0)
(1.13378 2.40846e-14 0)
(-1.14031 0.0231063 0)
(-0.47813 0.0529782 0)
(-0.374432 0.0524809 0)
(-0.286688 0.0338718 0)
(-0.202673 0.0171389 0)
(-0.12374 0.00765856 0)
(-0.0577736 0.00258883 0)
(-0.0163461 0.000555526 0)
(-0.00194341 5.37213e-05 0)
(-6.21913e-05 1.47997e-06 0)
(-3.49321e-07 7.4048e-09 0)
(-2.39731e-10 4.60276e-12 0)
(-1.3911e-14 -7.42402e-17 0)
(1.43611e-16 1.68538e-16 0)
(-8.19033e-17 7.26384e-17 0)
(-8.18019e-17 7.20116e-17 0)
(-5.25838e-17 1.27169e-16 0)
(-1.48212e-16 5.20935e-17 0)
(-7.21465e-17 0 0)
(-1.38806e-18 5.78043e-17 0)
(2.99258e-17 0 0)
(1.5299e-18 1.07948e-17 0)
(4.28705e-18 1.15609e-16 0)
(-4.36175e-17 1.99181e-17 0)
(-3.2134e-18 4.61738e-17 0)
(-1.08098e-17 -1.95002e-17 0)
(2.96287e-17 8.211e-17 0)
(1.53342e-14 -1.2898e-16 0)
(2.63811e-10 -1.31462e-14 0)
(3.80346e-07 -1.06506e-14 0)
(6.71092e-05 -1.31551e-14 0)
(0.00208314 -5.16984e-14 0)
(0.0174636 -1.50273e-14 0)
(0.0617846 8.47356e-14 0)
(0.132941 -7.53411e-14 0)
(0.218909 7.02311e-14 0)
(0.309531 2.96477e-14 0)
(0.394357 -1.07961e-15 0)
(0.485964 2.28117e-14 0)
(1.13378 6.27087e-14 0)
(-1.13796 0.0173811 0)
(-0.483363 0.0266903 0)
(-0.38719 0.0272689 0)
(-0.300909 0.0180846 0)
(-0.212646 0.00944643 0)
(-0.129399 0.00424602 0)
(-0.0602657 0.00142618 0)
(-0.0170591 0.000300988 0)
(-0.00203614 2.83229e-05 0)
(-6.55965e-05 7.54519e-07 0)
(-3.71609e-07 3.65405e-09 0)
(-2.57517e-10 2.24881e-12 0)
(-1.48768e-14 -4.70792e-17 0)
(4.64863e-17 6.21919e-17 0)
(-7.77893e-17 0 0)
(-7.95749e-17 -8.9144e-17 0)
(9.88151e-18 -1.49734e-16 0)
(-4.41135e-17 -5.20935e-17 0)
(-2.18911e-17 0 0)
(2.16012e-17 0 0)
(7.31295e-17 0 0)
(2.37583e-18 0 0)
(1.0497e-17 5.46703e-17 0)
(-6.64023e-17 0 0)
(-7.25478e-18 9.05369e-18 0)
(-1.97492e-17 1.06207e-16 0)
(8.73738e-17 9.81977e-18 0)
(1.62262e-14 4.5352e-16 0)
(2.63791e-10 -5.95767e-15 0)
(3.80346e-07 2.66656e-14 0)
(6.71092e-05 -1.60731e-14 0)
(0.00208314 5.04365e-14 0)
(0.0174636 -2.5502e-14 0)
(0.0617846 8.44182e-14 0)
(0.132941 -5.27933e-14 0)
(0.218909 6.91868e-14 0)
(0.309531 3.60449e-14 0)
(0.394357 -2.1059e-14 0)
(0.485964 2.708e-14 0)
(1.13378 3.33196e-14 0)
(-1.13475 0.0108662 0)
(-0.485171 0.0103202 0)
(-0.392312 0.00993323 0)
(-0.307226 0.00652701 0)
(-0.217257 0.00331769 0)
(-0.132043 0.00142458 0)
(-0.0614239 0.000444684 0)
(-0.0173786 8.46309e-05 0)
(-0.00207497 6.96621e-06 0)
(-6.6908e-05 1.58655e-07 0)
(-3.7952e-07 6.46875e-10 0)
(-2.63433e-10 3.24519e-13 0)
(-1.52314e-14 5.87793e-17 0)
(8.20007e-17 0 0)
(-1.42867e-16 -6.38633e-17 0)
(-5.09963e-17 -1.59484e-16 0)
(1.62653e-17 -3.62147e-17 0)
(3.49627e-17 0 0)
(-3.84732e-17 0 0)
(4.6269e-17 0 0)
(9.86706e-17 0 0)
(2.982e-18 0 0)
(1.3818e-17 -8.21796e-17 0)
(-8.19015e-17 1.35109e-17 0)
(-1.02032e-17 4.63827e-17 0)
(-4.4302e-17 1.49943e-16 0)
(5.06189e-17 4.5547e-17 0)
(1.64027e-14 -2.70078e-16 0)
(2.63792e-10 3.03243e-15 0)
(3.80346e-07 5.3357e-14 0)
(6.71092e-05 5.16373e-16 0)
(0.00208314 8.21522e-14 0)
(0.0174636 -1.25075e-13 0)
(0.0617846 7.70428e-14 0)
(0.132941 -5.02754e-14 0)
(0.218909 5.33788e-14 0)
(0.309531 3.01082e-14 0)
(0.394357 -5.24402e-14 0)
(0.485964 2.33956e-14 0)
(1.13378 3.01613e-14 0)
(-1.13396 0.00331805 0)
(-0.485789 0.00221773 0)
(-0.394004 0.00187804 0)
(-0.309204 0.0012204 0)
(-0.218679 0.000583514 0)
(-0.132823 0.000230761 0)
(-0.0617424 6.32938e-05 0)
(-0.0174556 9.97776e-06 0)
(-0.00208264 6.26333e-07 0)
(-6.7106e-05 9.56484e-09 0)
(-3.80385e-07 2.24293e-11 0)
(-2.63871e-10 -7.47389e-15 0)
(-1.55417e-14 6.10776e-17 0)
(7.11871e-17 -3.09218e-17 0)
(-2.38179e-17 6.48383e-17 0)
(-1.72092e-17 1.99878e-17 0)
(-4.19436e-17 0 0)
(5.36951e-17 0 0)
(-4.19575e-17 0 0)
(5.53534e-17 -7.89063e-17 0)
(-4.03024e-17 0 0)
(-3.50213e-17 -7.89063e-17 0)
(7.44462e-17 -9.36708e-17 0)
(-1.52745e-18 -7.88367e-17 0)
(4.80273e-17 -4.59649e-17 0)
(-5.16427e-17 -1.26821e-16 0)
(4.10859e-17 -4.62434e-17 0)
(1.56533e-14 -1.86158e-16 0)
(2.63797e-10 -9.70973e-16 0)
(3.80346e-07 -1.6039e-15 0)
(6.71092e-05 2.9429e-14 0)
(0.00208314 8.52204e-14 0)
(0.0174636 -1.19455e-13 0)
(0.0617846 9.32089e-14 0)
(0.132941 -1.53651e-14 0)
(0.218909 2.31745e-14 0)
(0.309531 1.71478e-14 0)
(0.394357 -3.51766e-14 0)
(0.485964 3.22657e-14 0)
(1.13378 7.2075e-14 0)
(-1.13379 0.000385597 0)
(-0.485947 0.00017984 0)
(-0.394332 0.000124642 0)
(-0.309514 8.09938e-05 0)
(-0.218898 3.5848e-05 0)
(-0.132935 1.27565e-05 0)
(-0.0617829 2.94288e-06 0)
(-0.0174634 3.5213e-07 0)
(-0.00208314 1.32203e-08 0)
(-6.71096e-05 7.94546e-11 0)
(-3.80352e-07 -1.17363e-12 0)
(-2.63808e-10 -1.49194e-14 0)
(-1.54486e-14 -9.3253e-17 0)
(1.60698e-17 -1.41725e-16 0)
(1.2087e-16 5.36257e-17 0)
(-3.13257e-17 2.00853e-16 0)
(-1.77567e-16 9.4228e-17 0)
(-4.69682e-17 -1.05162e-17 0)
(4.8168e-17 -5.50185e-18 0)
(7.91359e-18 5.22328e-17 0)
(-1.819e-18 -4.87506e-18 0)
(-5.41719e-17 5.39042e-17 0)
(-4.45424e-17 4.4572e-17 0)
(-2.1122e-18 -4.81238e-17 0)
(-2.10782e-18 4.76363e-17 0)
(9.14773e-18 -5.91275e-17 0)
(-1.3002e-17 9.75012e-19 0)
(1.6529e-14 7.44909e-16 0)
(2.63792e-10 -1.71714e-15 0)
(3.80346e-07 -2.41794e-14 0)
(6.71092e-05 2.15072e-14 0)
(0.00208314 5.04632e-14 0)
(0.0174636 -4.46454e-14 0)
(0.0617846 9.59144e-14 0)
(0.132941 -2.53446e-14 0)
(0.218909 -3.56022e-15 0)
(0.309531 4.43899e-15 0)
(0.394357 1.47565e-15 0)
(0.485964 4.3564e-14 0)
(1.13378 7.22646e-14 0)
(-1.13378 1.09924e-05 0)
(-0.485963 3.63849e-06 0)
(-0.394357 1.89663e-06 0)
(-0.30953 1.2353e-06 0)
(-0.218909 4.95799e-07 0)
(-0.132941 1.54382e-07 0)
(-0.0617845 2.89402e-08 0)
(-0.0174636 2.58692e-09 0)
(-0.00208314 2.09239e-10 0)
(-6.71092e-05 -1.89769e-11 0)
(-3.80346e-07 1.80874e-13 0)
(-2.63794e-10 2.04607e-13 0)
(-1.6618e-14 2.07321e-13 0)
(-4.89041e-16 2.06073e-13 0)
(2.10461e-15 2.05438e-13 0)
(-1.08018e-16 2.1091e-13 0)
(-2.51489e-15 2.04945e-13 0)
(2.27979e-15 2.04322e-13 0)
(2.9738e-15 2.11448e-13 0)
(1.86217e-16 2.12268e-13 0)
(-4.53189e-17 2.12296e-13 0)
(-2.03721e-15 2.11821e-13 0)
(-3.84405e-15 2.05858e-13 0)
(-3.28837e-17 2.03154e-13 0)
(3.65829e-15 2.0587e-13 0)
(1.7911e-15 2.11735e-13 0)
(-1.41251e-15 2.12075e-13 0)
(1.40731e-14 2.06445e-13 0)
(2.63856e-10 2.73549e-13 0)
(3.80346e-07 2.06643e-13 0)
(6.71092e-05 3.64653e-13 0)
(0.00208314 1.7511e-13 0)
(0.0174636 2.09985e-13 0)
(0.0617846 2.6958e-13 0)
(0.132941 1.55501e-13 0)
(0.218909 1.48307e-13 0)
(0.309531 5.66649e-14 0)
(0.394357 3.06881e-14 0)
(0.485964 4.21438e-14 0)
(1.13378 4.62683e-14 0)
(-1.13378 5.53984e-08 0)
(-0.485964 3.87028e-08 0)
(-0.394357 6.27428e-08 0)
(-0.309531 7.90011e-08 0)
(-0.218909 6.14108e-08 0)
(-0.132941 2.85078e-08 0)
(-0.0617846 7.38701e-09 0)
(-0.0174636 2.16117e-09 0)
(-0.00208314 1.73393e-09 0)
(-6.71092e-05 1.80835e-09 0)
(-3.80346e-07 1.81395e-09 0)
(-2.63846e-10 1.81411e-09 0)
(-1.14585e-14 1.81406e-09 0)
(1.21894e-14 1.81407e-09 0)
(1.74054e-14 1.81409e-09 0)
(-6.01007e-15 1.8141e-09 0)
(-2.98853e-14 1.81407e-09 0)
(1.29129e-15 1.81405e-09 0)
(8.9373e-15 1.81406e-09 0)
(-3.05771e-15 1.81406e-09 0)
(-1.75549e-15 1.81405e-09 0)
(-2.28075e-15 1.81406e-09 0)
(4.96034e-16 1.81405e-09 0)
(7.39363e-15 1.81407e-09 0)
(-2.41159e-15 1.81407e-09 0)
(-3.01125e-15 1.81405e-09 0)
(-9.39429e-15 1.81406e-09 0)
(6.02682e-15 1.81403e-09 0)
(2.63862e-10 1.81404e-09 0)
(3.80346e-07 1.81405e-09 0)
(6.71092e-05 1.81393e-09 0)
(0.00208314 1.81024e-09 0)
(0.0174636 1.77606e-09 0)
(0.0617846 1.64602e-09 0)
(0.132941 1.38597e-09 0)
(0.218909 1.04669e-09 0)
(0.309531 6.97392e-10 0)
(0.394357 3.61309e-10 0)
(0.485964 1.11109e-10 0)
(1.13378 3.61378e-11 0)
(-1.13378 9.14553e-08 0)
(-0.485963 1.78148e-07 0)
(-0.394357 4.49381e-07 0)
(-0.309531 7.27424e-07 0)
(-0.218909 9.94629e-07 0)
(-0.132941 1.23574e-06 0)
(-0.0617845 1.41127e-06 0)
(-0.0174636 1.49583e-06 0)
(-0.00208314 1.51828e-06 0)
(-6.71092e-05 1.52065e-06 0)
(-3.80346e-07 1.52072e-06 0)
(-2.64045e-10 1.52072e-06 0)
(-1.01924e-14 1.52072e-06 0)
(3.83386e-14 1.52072e-06 0)
(-4.01321e-16 1.52072e-06 0)
(-1.85996e-14 1.52072e-06 0)
(2.81064e-14 1.52072e-06 0)
(2.90269e-14 1.52072e-06 0)
(5.23831e-15 1.52072e-06 0)
(-2.15887e-15 1.52072e-06 0)
(1.29538e-14 1.52072e-06 0)
(4.27562e-14 1.52072e-06 0)
(3.19301e-15 1.52072e-06 0)
(-4.11925e-14 1.52072e-06 0)
(-3.71676e-14 1.52072e-06 0)
(-4.17895e-14 1.52072e-06 0)
(-2.30393e-14 1.52072e-06 0)
(9.58513e-15 1.52072e-06 0)
(2.63809e-10 1.52072e-06 0)
(3.80346e-07 1.52072e-06 0)
(6.71092e-05 1.52065e-06 0)
(0.00208314 1.5183e-06 0)
(0.0174636 1.49602e-06 0)
(0.0617845 1.41327e-06 0)
(0.132941 1.245e-06 0)
(0.218909 1.0154e-06 0)
(0.30953 7.54428e-07 0)
(0.394357 4.70599e-07 0)
(0.485963 1.87104e-07 0)
(1.13378 8.99878e-08 0)
(-1.13378 2.52823e-05 0)
(-0.485957 3.8633e-05 0)
(-0.394346 7.65027e-05 0)
(-0.309523 0.00010449 0)
(-0.218902 0.000128319 0)
(-0.132936 0.000147489 0)
(-0.0617814 0.000161146 0)
(-0.0174626 0.000167856 0)
(-0.00208299 0.000169715 0)
(-6.7103e-05 0.00016992 0)
(-3.80303e-07 0.000169926 0)
(-2.63664e-10 0.000169926 0)
(-9.73265e-14 0.000169926 0)
(-8.94506e-14 0.000169926 0)
(-3.09083e-14 0.000169926 0)
(-1.76477e-14 0.000169926 0)
(-9.58675e-14 0.000169926 0)
(-6.45963e-14 0.000169926 0)
(3.04484e-14 0.000169926 0)
(6.64255e-14 0.000169926 0)
(-2.04426e-14 0.000169926 0)
(-1.48065e-13 0.000169926 0)
(-7.34831e-14 0.000169926 0)
(8.40736e-15 0.000169926 0)
(2.18782e-14 0.000169926 0)
(-3.08529e-15 0.000169926 0)
(-2.77687e-14 0.000169926 0)
(-2.8657e-15 0.000169926 0)
(2.63924e-10 0.000169926 0)
(3.80303e-07 0.000169926 0)
(6.7103e-05 0.00016992 0)
(0.00208299 0.000169715 0)
(0.0174626 0.000167856 0)
(0.0617814 0.000161147 0)
(0.132936 0.000147493 0)
(0.218902 0.000128327 0)
(0.309523 0.0001045 0)
(0.394346 7.65101e-05 0)
(0.485957 3.86363e-05 0)
(1.13378 2.52836e-05 0)
(-1.1337 0.00113895 0)
(-0.485768 0.00138483 0)
(-0.394079 0.00223527 0)
(-0.309351 0.00268842 0)
(-0.218756 0.00307262 0)
(-0.132825 0.00335859 0)
(-0.0617169 0.00356143 0)
(-0.0174394 0.00366303 0)
(-0.00207941 0.00369257 0)
(-6.69532e-05 0.00369602 0)
(-3.79214e-07 0.00369612 0)
(-2.62846e-10 0.00369612 0)
(1.23466e-13 0.00369612 0)
(2.08188e-13 0.00369612 0)
(5.57535e-14 0.00369612 0)
(-3.36025e-14 0.00369612 0)
(7.45898e-14 0.00369612 0)
(1.73693e-13 0.00369612 0)
(7.25195e-14 0.00369612 0)
(-1.97869e-14 0.00369612 0)
(-1.46884e-14 0.00369612 0)
(1.79655e-14 0.00369612 0)
(-5.86393e-14 0.00369612 0)
(-4.43468e-14 0.00369612 0)
(5.83662e-14 0.00369612 0)
(9.92759e-14 0.00369612 0)
(6.92594e-14 0.00369612 0)
(8.76884e-14 0.00369612 0)
(2.62769e-10 0.00369612 0)
(3.79213e-07 0.00369612 0)
(6.69532e-05 0.00369602 0)
(0.00207941 0.00369257 0)
(0.0174394 0.00366303 0)
(0.0617169 0.00356143 0)
(0.132825 0.00335859 0)
(0.218756 0.00307262 0)
(0.309351 0.00268842 0)
(0.394079 0.00223527 0)
(0.485768 0.00138483 0)
(1.1337 0.00113895 0)
(-1.1327 0.0124817 0)
(-0.484463 0.0130061 0)
(-0.392461 0.0180327 0)
(-0.308314 0.0198368 0)
(-0.217891 0.0215582 0)
(-0.132184 0.0227656 0)
(-0.061333 0.0236441 0)
(-0.0172939 0.0241037 0)
(-0.00205545 0.0242462 0)
(-6.58934e-05 0.0242639 0)
(-3.71199e-07 0.0242644 0)
(-2.55856e-10 0.0242644 0)
(-2.10315e-13 0.0242644 0)
(-5.55488e-14 0.0242644 0)
(4.88478e-15 0.0242644 0)
(5.47271e-14 0.0242644 0)
(2.17624e-14 0.0242644 0)
(-7.65087e-14 0.0242644 0)
(-4.81991e-14 0.0242644 0)
(-4.04091e-15 0.0242644 0)
(-3.28675e-15 0.0242644 0)
(-2.09742e-15 0.0242644 0)
(4.49741e-14 0.0242644 0)
(2.12169e-14 0.0242644 0)
(-1.09623e-13 0.0242644 0)
(-1.94299e-13 0.0242644 0)
(-1.29066e-13 0.0242644 0)
(-2.3565e-14 0.0242644 0)
(2.55593e-10 0.0242644 0)
(3.712e-07 0.0242644 0)
(6.58934e-05 0.0242639 0)
(0.00205545 0.0242462 0)
(0.0172939 0.0241037 0)
(0.061333 0.0236441 0)
(0.132184 0.0227656 0)
(0.217891 0.0215582 0)
(0.308314 0.0198368 0)
(0.392461 0.0180327 0)
(0.484463 0.0130061 0)
(1.1327 0.0124817 0)
(-1.12809 0.0519876 0)
(-0.481346 0.0495903 0)
(-0.389046 0.062606 0)
(-0.30578 0.0651748 0)
(-0.215772 0.0686728 0)
(-0.130576 0.0710393 0)
(-0.0603263 0.072849 0)
(-0.0168869 0.0738546 0)
(-0.00198435 0.0741864 0)
(-6.26187e-05 0.0742296 0)
(-3.45895e-07 0.074231 0)
(-2.32781e-10 0.0742311 0)
(1.67633e-14 0.0742311 0)
(9.63968e-15 0.0742311 0)
(-4.01301e-14 0.0742311 0)
(-7.50604e-14 0.0742311 0)
(-8.54303e-14 0.0742311 0)
(-7.47479e-14 0.0742311 0)
(-3.52434e-14 0.0742311 0)
(1.57598e-14 0.0742311 0)
(9.21802e-15 0.0742311 0)
(-1.93947e-14 0.0742311 0)
(-6.77267e-14 0.0742311 0)
(-7.29819e-14 0.0742311 0)
(1.9758e-14 0.0742311 0)
(7.77001e-14 0.0742311 0)
(7.7058e-14 0.0742311 0)
(1.05806e-13 0.0742311 0)
(2.32815e-10 0.0742311 0)
(3.45895e-07 0.074231 0)
(6.26187e-05 0.0742296 0)
(0.00198435 0.0741864 0)
(0.0168869 0.0738546 0)
(0.0603263 0.072849 0)
(0.130576 0.0710393 0)
(0.215772 0.0686728 0)
(0.30578 0.0651748 0)
(0.389046 0.062606 0)
(0.481346 0.0495903 0)
(1.12809 0.0519876 0)
(-1.11754 0.12297 0)
(-0.477257 0.110967 0)
(-0.385072 0.133638 0)
(-0.302078 0.135024 0)
(-0.212562 0.139784 0)
(-0.128017 0.143015 0)
(-0.0586305 0.145606 0)
(-0.0161634 0.147125 0)
(-0.00185368 0.147645 0)
(-5.65435e-05 0.147714 0)
(-2.99357e-07 0.147716 0)
(-1.91715e-10 0.147716 0)
(3.99038e-14 0.147716 0)
(3.96524e-14 0.147716 0)
(2.40092e-14 0.147716 0)
(4.20147e-14 0.147716 0)
(4.55586e-14 0.147716 0)
(5.9593e-14 0.147716 0)
(5.83728e-14 0.147716 0)
(3.25253e-14 0.147716 0)
(1.74749e-14 0.147716 0)
(3.28706e-14 0.147716 0)
(5.13301e-14 0.147716 0)
(4.07823e-14 0.147716 0)
(1.15479e-14 0.147716 0)
(-4.1424e-14 0.147716 0)
(-6.016e-14 0.147716 0)
(7.28514e-15 0.147716 0)
(1.91735e-10 0.147716 0)
(2.99357e-07 0.147716 0)
(5.65435e-05 0.147714 0)
(0.00185368 0.147645 0)
(0.0161634 0.147125 0)
(0.0586305 0.145606 0)
(0.128017 0.143015 0)
(0.212562 0.139784 0)
(0.302078 0.135024 0)
(0.385072 0.133638 0)
(0.477257 0.110967 0)
(1.11754 0.12297 0)
(-1.0977 0.20261 0)
(-0.474053 0.186457 0)
(-0.3825 0.220547 0)
(-0.297621 0.217829 0)
(-0.209045 0.223707 0)
(-0.124952 0.227369 0)
(-0.0564988 0.230566 0)
(-0.0152124 0.232519 0)
(-0.00167906 0.233195 0)
(-4.85235e-05 0.233282 0)
(-2.39994e-07 0.233285 0)
(-1.41972e-10 0.233285 0)
(-8.11486e-16 0.233285 0)
(3.56347e-14 0.233285 0)
(3.34227e-14 0.233285 0)
(1.89365e-14 0.233285 0)
(3.33933e-14 0.233285 0)
(3.63416e-14 0.233285 0)
(2.99526e-14 0.233285 0)
(1.61636e-14 0.233285 0)
(1.49111e-14 0.233285 0)
(4.30938e-15 0.233285 0)
(-2.08156e-14 0.233285 0)
(-5.12614e-14 0.233285 0)
(-5.86209e-14 0.233285 0)
(-5.28495e-14 0.233285 0)
(-6.00926e-14 0.233285 0)
(-4.8223e-14 0.233285 0)
(1.41961e-10 0.233285 0)
(2.39994e-07 0.233285 0)
(4.85235e-05 0.233282 0)
(0.00167906 0.233195 0)
(0.0152124 0.232519 0)
(0.0564988 0.230566 0)
(0.124952 0.227369 0)
(0.209045 0.223707 0)
(0.297621 0.217829 0)
(0.3825 0.220547 0)
(0.474053 0.186457 0)
(1.0977 0.20261 0)
(-1.08286 0.305377 0)
(-0.469107 0.261517 0)
(-0.374447 0.306855 0)
(-0.291472 0.304446 0)
(-0.203354 0.310623 0)
(-0.120473 0.315143 0)
(-0.0534226 0.318808 0)
(-0.0139049 0.321119 0)
(-0.00145471 0.321917 0)
(-3.9035e-05 0.322016 0)
(-1.75949e-07 0.322019 0)
(-9.33192e-11 0.322019 0)
(-9.564e-15 0.322019 0)
(1.03251e-14 0.322019 0)
(-3.46279e-14 0.322019 0)
(-6.26343e-14 0.322019 0)
(-5.07485e-14 0.322019 0)
(-5.47547e-14 0.322019 0)
(-4.5413e-14 0.322019 0)
(-2.06047e-14 0.322019 0)
(7.82838e-15 0.322019 0)
(3.55333e-14 0.322019 0)
(3.87409e-14 0.322019 0)
(4.32167e-14 0.322019 0)
(2.78557e-14 0.322019 0)
(-1.61832e-14 0.322019 0)
(-1.60197e-14 0.322019 0)
(-1.13226e-15 0.322019 0)
(9.32626e-11 0.322019 0)
(1.75949e-07 0.322019 0)
(3.9035e-05 0.322016 0)
(0.00145471 0.321917 0)
(0.0139049 0.321119 0)
(0.0534226 0.318808 0)
(0.120473 0.315143 0)
(0.203354 0.310623 0)
(0.291472 0.304446 0)
(0.374447 0.306855 0)
(0.469107 0.261517 0)
(1.08286 0.305377 0)
(-1.04462 0.339346 0)
(-0.475886 0.334828 0)
(-0.389112 0.399057 0)
(-0.293596 0.384653 0)
(-0.205478 0.392319 0)
(-0.118763 0.39508 0)
(-0.0508842 0.399087 0)
(-0.0124491 0.402272 0)
(-0.0011819 0.403516 0)
(-2.7754e-05 0.403669 0)
(-1.06241e-07 0.403673 0)
(-4.67535e-11 0.403673 0)
(5.95295e-15 0.403673 0)
(9.68655e-15 0.403673 0)
(-2.97166e-14 0.403673 0)
(-2.21394e-14 0.403673 0)
(7.74983e-15 0.403673 0)
(1.75559e-14 0.403673 0)
(4.33179e-14 0.403673 0)
(3.95277e-14 0.403673 0)
(3.02314e-14 0.403673 0)
(1.62376e-14 0.403673 0)
(-1.86025e-14 0.403673 0)
(-3.07508e-14 0.403673 0)
(-5.13206e-14 0.403673 0)
(-7.22463e-14 0.403673 0)
(-4.29258e-14 0.403673 0)
(-8.48911e-15 0.403673 0)
(4.66958e-11 0.403673 0)
(1.06241e-07 0.403673 0)
(2.7754e-05 0.403669 0)
(0.0011819 0.403516 0)
(0.0124491 0.402272 0)
(0.0508842 0.399087 0)
(0.118763 0.39508 0)
(0.205478 0.392319 0)
(0.293596 0.384653 0)
(0.389112 0.399057 0)
(0.475886 0.334828 0)
(1.04462 0.339346 0)
(-0.958968 0.4737 0)
(-0.424682 0.432051 0)
(-0.326142 0.483999 0)
(-0.250236 0.477341 0)
(-0.173719 0.482382 0)
(-0.0982873 0.485722 0)
(-0.0399429 0.489796 0)
(-0.00882731 0.49264 0)
(-0.000715464 0.493618 0)
(-1.36829e-05 0.493723 0)
(-4.14207e-08 0.493726 0)
(-1.41653e-11 0.493726 0)
(8.93461e-15 0.493726 0)
(1.99862e-14 0.493726 0)
(5.98074e-15 0.493726 0)
(-2.95977e-14 0.493726 0)
(-5.31505e-14 0.493726 0)
(-4.45553e-14 0.493726 0)
(-2.81919e-14 0.493726 0)
(-1.10925e-14 0.493726 0)
(1.33477e-14 0.493726 0)
(3.01946e-14 0.493726 0)
(2.44901e-14 0.493726 0)
(4.60384e-15 0.493726 0)
(-2.31617e-15 0.493726 0)
(-1.03137e-14 0.493726 0)
(-3.74396e-15 0.493726 0)
(1.06257e-14 0.493726 0)
(1.4156e-11 0.493726 0)
(4.14209e-08 0.493726 0)
(1.36829e-05 0.493723 0)
(0.000715464 0.493618 0)
(0.00882731 0.49264 0)
(0.0399429 0.489796 0)
(0.0982873 0.485722 0)
(0.173719 0.482382 0)
(0.250236 0.477341 0)
(0.326142 0.483999 0)
(0.424682 0.432051 0)
(0.958968 0.4737 0)
(-1.01162 1.02382 0)
(-0.464461 0.97027 0)
(-0.328624 1.05376 0)
(-0.292278 1.09309 0)
(-0.188878 1.10875 0)
(-0.108203 1.12767 0)
(-0.0413056 1.13735 0)
(-0.00823397 1.14112 0)
(-0.000561056 1.1418 0)
(-8.34956e-06 1.14183 0)
(-1.81475e-08 1.14183 0)
(-4.07865e-12 1.14183 0)
(3.79879e-14 1.14183 0)
(4.66253e-14 1.14183 0)
(-8.62796e-16 1.14183 0)
(-8.16901e-14 1.14183 0)
(-9.67985e-14 1.14183 0)
(-6.59486e-14 1.14183 0)
(-5.2342e-14 1.14183 0)
(-1.25442e-14 1.14183 0)
(1.50944e-14 1.14183 0)
(4.22523e-14 1.14183 0)
(2.90532e-14 1.14183 0)
(1.10113e-14 1.14183 0)
(3.40617e-14 1.14183 0)
(7.35015e-15 1.14183 0)
(-8.24319e-15 1.14183 0)
(-1.24685e-15 1.14183 0)
(4.05414e-12 1.14183 0)
(1.81479e-08 1.14183 0)
(8.34956e-06 1.14183 0)
(0.000561056 1.1418 0)
(0.00823397 1.14112 0)
(0.0413056 1.13735 0)
(0.108203 1.12767 0)
(0.188878 1.10875 0)
(0.292278 1.09309 0)
(0.328624 1.05376 0)
(0.464461 0.97027 0)
(1.01162 1.02382 0)
(-1.01162 -1.02382 0)
(-0.464461 -0.97027 0)
(-0.328624 -1.05376 0)
(-0.292278 -1.09309 0)
(-0.188878 -1.10875 0)
(-0.108203 -1.12767 0)
(-0.0413056 -1.13735 0)
(-0.00823397 -1.14112 0)
(-0.000561056 -1.1418 0)
(-8.34956e-06 -1.14183 0)
(-1.81478e-08 -1.14183 0)
(-4.12614e-12 -1.14183 0)
(-3.61755e-14 -1.14183 0)
(-3.29352e-15 -1.14183 0)
(-9.49171e-15 -1.14183 0)
(-4.63199e-15 -1.14183 0)
(4.595e-14 -1.14183 0)
(5.34058e-14 -1.14183 0)
(6.73451e-14 -1.14183 0)
(3.59793e-14 -1.14183 0)
(2.93878e-14 -1.14183 0)
(2.276e-14 -1.14183 0)
(-2.30721e-15 -1.14183 0)