/*--------------------------------*- C++ -*----------------------------------*\
| =========                 |                                                 |
| \\      /  F ield         | OpenFOAM: The Open Source CFD Toolbox           |
|  \\    /   O peration     | Version:  v1912                                 |
|   \\  /    A nd           | Website:  www.openfoam.com                      |
|    \\/     M anipulation  |                                                 |
\*---------------------------------------------------------------------------*/
FoamFile
{
    version     2.0;
    format      ascii;
    class       volScalarField;
    location    "7.98";
    object      p;
}
// * * * * * * * * * * * * * * * * * * * * * * * * * * * * * * * * * * * * * //

dimensions      [1 -1 -2 0 0 0 0];


internalField   nonuniform List<scalar> 
1900
(
17487.9
8942.6
8413.46
8426.86
8448.77
8462.49
8455.63
8434.09
8400.73
8361.61
17487.8
8942.58
8413.59
8426.87
8448.74
8462.06
8455.02
8433.48
8408.33
8358.62
17487.8
8942.57
8413.69
8426.99
8448.92
8462.13
8455.08
8429.72
8398.27
8342.62
17487.8
8942.58
8413.59
8426.87
8448.74
8462.06
8455.02
8433.48
8408.33
8358.62
17487.9
8942.6
8413.46
8426.86
8448.77
8462.49
8455.63
8434.09
8400.73
8361.61
8473.7
8288.37
8202.47
8018.51
8226.37
8309.44
8183.91
8104.98
7922.13
7792.57
8274.62
8164.57
8093.48
7948.76
7829.91
8309.44
8183.91
8104.98
7922.13
7792.57
8473.7
8288.37
8202.47
8018.51
8226.37
3453.25
2010.57
1411.56
1097.9
837.999
3904.42
2218.28
1522.31
1183.43
890.345
4012.3
2179.76
1475.48
1150.02
846.738
3904.42
2218.28
1522.31
1183.43
890.345
3453.25
2010.57
1411.56
1097.9
837.999
867.821
882.994
862.875
830.163
790.94
751.805
680.542
587.025
578.166
669.419
1086.24
1280.27
1292.83
1274.6
1269.83
1260.33
1216.54
1122.43
993.462
850.809
690.548
506.653
345.501
276.453
260.634
253.903
248.178
243.313
239.786
239.931
252.077
344.988
515.908
622.26
684.28
739.75
798.707
860.856
921.394
965.509
812.397
849.509
876.989
852.667
804.76
749.682
668.819
577.803
569.937
667.878
1082.5
1278.21
1294.56
1281.52
1276.62
1264.97
1221.54
1122.62
993.402
851.853
693.535
509.39
346.448
276.54
260.614
253.892
248.166
243.287
239.752
239.893
252.043
344.972
515.884
622.178
684.158
739.637
798.723
860.826
921.434
965.624
798.992
821.284
858.47
854.603
822.877
763.959
674.927
581.087
574.21
664.921
1075.88
1282.49
1296.42
1283.5
1277.75
1265.28
1231.45
1147.72
1014.6
858.215
694.346
508.916
346.316
276.552
260.61
253.89
248.163
243.278
239.74
239.88
252.032
344.976
515.878
622.136
684.1
739.591
798.733
860.828
921.371
965.475
812.397
849.509
876.989
852.667
804.76
749.682
668.819
577.803
569.937
667.878
1082.5
1278.21
1294.56
1281.52
1276.62
1264.97
1221.54
1122.62
993.402
851.853
693.535
509.39
346.448
276.54
260.614
253.892
248.166
243.287
239.752
239.893
252.043
344.972
515.884
622.178
684.158
739.637
798.723
860.826
921.434
965.624
867.821
882.994
862.875
830.163
790.94
751.805
680.542
587.025
578.166
669.419
1086.24
1280.27
1292.83
1274.6
1269.83
1260.33
1216.54
1122.43
993.462
850.809
690.548
506.653
345.501
276.453
260.634
253.903
248.178
243.313
239.786
239.931
252.077
344.988
515.908
622.26
684.28
739.75
798.707
860.856
921.394
965.509
961.418
881.38
829.04
782.269
748.126
715.972
663.125
594.615
583.979
694.11
1105.4
1282.4
1299.1
1275.26
1263.11
1245.56
1199.41
1112.91
992.903
849.686
687.145
501.4
342.25
275.99
260.695
253.963
248.245
243.434
239.937
240.098
252.213
344.958
515.903
622.469
684.603
740.036
798.578
860.762
921.384
965.746
963.185
872.801
796.345
734.404
690.903
654.807
616.552
584.908
599.331
770.556
1099.31
1235.17
1245.33
1237.64
1233.2
1210.62
1159.8
1072.03
954.098
817.567
662.548
483.609
334.5
274.997
260.843
254.113
248.412
243.711
240.295
240.498
252.539
344.88
515.857
622.904
685.409
740.93
798.945
860.706
921.211
965.711
970.22
939.206
895.204
840.15
778.329
714.281
668.054
633.659
656.747
861.043
1093.83
1202.43
1199.8
1197.68
1189.42
1158.18
1105.6
1022.29
910.212
779.614
629.943
458.708
323.981
273.717
261.105
254.367
248.693
244.133
240.831
241.101
253.054
344.85
515.745
623.319
686.409
741.991
799.795
860.987
921.479
966.132
973.754
918.259
864.998
808.97
741.153
678.027
659.799
664.684
736.243
923.047
1090.89
1173.65
1158.87
1164.45
1143.1
1103.11
1046.16
962.294
855.222
733.065
590.433
428.963
312.432
272.521
261.458
254.722
249.097
244.709
241.544
241.901
253.778
345.115
516.034
624.13
687.866
743.257
801.077
861.498
921.871
966.692
975.173
920.544
862.296
807.685
742.237
698.785
707.817
747.067
829.074
964.902
1080.92
1100.72
1109.23
1116.51
1081.92
1038.52
978.795
896.201
795.917
682.288
545.629
396.426
301.497
271.668
261.905
255.185
249.641
245.457
242.448
242.891
254.679
345.319
516.073
624.723
689.17
744.245
802.119
861.724
921.894
967.022
975.304
921.979
862.665
816.013
776.18
753.725
767.996
805.273
875.105
974.104
1016.17
1027.96
1065.81
1044.14
1009.98
970.113
909.821
829.483
736.391
629.403
497.356
364.524
292.922
271.475
262.57
255.884
250.463
246.511
243.669
244.223
255.984
346.374
517.17
626.229
691.274
745.889
803.604
862.327
922.067
967.449
974.346
920.875
870.867
838.234
813.621
802.771
808.506
830.886
885.527
935.088
947.843
983.614
985.114
969.07
945.225
903.279
840.906
764.028
677.679
574.711
447.782
336.802
287.248
271.706
263.318
256.682
251.401
247.696
245.035
245.67
257.337
346.788
517.222
626.833
692.548
746.946
804.632
862.705
922.055
967.65
974.344
926.089
883.83
853.878
831.812
822.469
824.544
846.485
877.517
876.703
889.341
919.785
926.182
910.044
882.071
835.438
772.921
701.359
620.247
518.361
399.803
315.823
284.126
272.054
263.856
257.296
252.205
248.744
246.258
246.993
258.636
347.511
517.356
626.999
693.254
747.709
805.588
863.298
922.31
968.062
979.421
933.294
897.071
872.16
853.567
836.345
823.995
827.124
819.848
819.416
860.12
876.308
865.52
851.038
818.267
768.118
707.576
640.993
562.187
461.229
358.774
302.43
282.069
271.693
263.622
257.231
252.409
249.269
247.016
247.851
259.364
346.86
516.646
627.618
694.575
748.61
806.394
863.98
922.685
968.399
983.128
924.584
886.434
853.81
819.954
793.936
786.037
784.965
787.172
814.65
822.5
819.878
812.57
788.914
748.869
698.423
643.916
583.967
505.636
408.312
331.638
297.993
284.469
275.22
267.587
261.733
257.448
254.808
252.887
254.005
265.855
354.781
528.241
642.197
710.993
762.907
815.823
868.458
924.677
969.493
957.058
897.222
846.729
812.572
793.578
790.609
786.079
779.834
779.798
774.007
774.063
769.564
754.086
725.488
687.774
646.384
600.968
543.865
466.566
380.145
328.31
309.829
300.3
292.685
286.52
282.162
279.091
277.71
276.46
278.458
292.322
393.256
586.724
705.823
765.921
802.307
845.337
887.853
931.452
970.665
952.603
916.152
875.383
857.016
841.835
816.545
787.02
760.576
745.876
738.466
733.352
725.862
711.873
690.25
665.978
644.627
616.811
562.084
483.3
428.275
410.403
404.73
400.702
396.671
393.342
391.581
390.266
390.92
390.269
394.558
417.516
560.559
785.864
894.293
932.622
931.566
933.716
938.721
957.362
975.065
991.137
954.911
918.817
885.65
855.023
825.398
796.541
761.053
740.171
738.698
745.775
755.865
763.463
771.296
781.197
779.826
746.311
677.904
611.457
580.128
572.203
566.972
560.453
553.933
548.481
545.511
543.603
543.622
542.096
548.358
580.462
746.224
966.829
1060.52
1099.37
1091.83
1071.8
1043.33
1017.88
986.719
1009.38
986.137
971.336
960.023
955.932
957.906
947.318
921.426
908.853
918.571
940.073
956.612
964.016
965.467
952.35
910.091
831.363
746.326
700.656
685.031
676.401
667.197
657.176
648.425
641.524
637.779
635.392
634.322
632.367
639.867
673.161
826.679
1028.84
1114.09
1160.67
1165.93
1157.1
1133.65
1091.1
1013.6
1036.86
1068.46
1121.89
1173.92
1239.83
1312
1338.69
1308.31
1231.98
1158.71
1112.89
1083.21
1058.17
1027.84
975.307
896.169
817.144
770.267
752.362
743.814
735.38
725.456
715.587
707.704
701.978
699.303
697.691
697.082
695.654
703.321
733.781
861.381
1051.66
1146.43
1195.77
1200.59
1190.09
1164.8
1120.11
1027.62
1071.35
1139.43
1230.85
1312.35
1406.85
1488.07
1511.7
1457.06
1323.94
1187.85
1109.55
1068.96
1036.37
991.482
925.601
858.291
817.726
803.484
798.585
793.489
786.076
777.085
768.677
762.282
757.79
755.904
754.629
754.212
753.13
758.13
784.157
875.553
1045.54
1153.33
1204.91
1210.4
1200.03
1170.13
1119.2
1030.99
1070.95
1154.66
1254.52
1338.26
1436.04
1498.98
1512.44
1444.24
1286.73
1153.76
1085.34
1041.94
995.457
943.152
893.274
861.869
850.306
848.952
847.345
843.187
836.735
828.867
821.782
816.663
813.183
811.878
810.982
810.757
809.93
812.267
832.457
891.605
1024.89
1138.71
1191.01
1199.98
1193.1
1159.14
1094.03
1016.11
1052.97
1119.75
1211.42
1279.31
1366.73
1412.89
1417.19
1346.48
1211.05
1109.77
1054.61
1012.89
967.749
927.777
902.489
893.825
894.75
896.35
895.839
892.777
887.912
881.541
875.294
870.586
867.221
865.771
864.62
864.143
863.558
864.3
875.383
912.442
1000.4
1106.82
1157.83
1165.82
1155.4
1137.7
1073.09
991.767
1081.14
968.729
1108.56
1170.73
1249.04
1286.2
1290.64
1232.59
1139.38
1072.24
1031.73
1000.14
970.57
947.947
937.964
938.468
941.063
942.37
941.755
939.594
936.716
933.029
929.439
926.872
924.937
923.928
922.83
922.203
921.716
922.068
925.25
943.816
990.191
1065.01
1109.24
1114.96
1092.13
1073
946.429
913.122
4681.16
946.421
1009.8
1056.28
1087.85
1098.2
1090.31
1057.04
1020.17
993.173
976.669
966.955
960.9
961.924
965.118
968.124
969.813
970.52
970.365
969.765
969.111
968.424
968.029
968.061
968.233
968.601
968.638
968.938
969.088
969.766
970.379
973.978
981.917
1003.98
1022.77
1030.53
1016.94
994.727
910.922
2286.26
4681.16
946.421
1009.8
1056.28
1087.85
1098.2
1090.31
1057.04
1020.17
993.173
976.669
966.955
960.9
961.924
965.118
968.124
969.813
970.52
970.365
969.765
969.111
968.424
968.029
968.061
968.233
968.601
968.638
968.938
969.088
969.766
970.379
973.978
981.917
1003.98
1022.77
1030.53
1016.94
994.727
910.922
2286.26
1081.14
968.729
1108.56
1170.73
1249.04
1286.2
1290.64
1232.59
1139.38
1072.24
1031.73
1000.14
970.57
947.947
937.964
938.468
941.063
942.37
941.755
939.594
936.716
933.029
929.439
926.872
924.937
923.928
922.83
922.203
921.716
922.068
925.25
943.816
990.191
1065.01
1109.24
1114.96
1092.13
1073
946.429
913.122
1052.97
1119.75
1211.42
1279.31
1366.73
1412.89
1417.19
1346.48
1211.05
1109.77
1054.61
1012.89
967.749
927.777
902.489
893.825
894.75
896.35
895.839
892.777
887.912
881.541
875.294
870.586
867.221
865.771
864.62
864.143
863.558
864.3
875.383
912.442
1000.4
1106.82
1157.83
1165.82
1155.4
1137.7
1073.09
991.767
1070.95
1154.66
1254.52
1338.26
1436.04
1498.98
1512.44
1444.24
1286.73
1153.76
1085.34
1041.94
995.457
943.152
893.274
861.869
850.306
848.952
847.345
843.187
836.735
828.867
821.782
816.663
813.183
811.878
810.982
810.757
809.93
812.267
832.457
891.605
1024.89
1138.71
1191.01
1199.98
1193.1
1159.14
1094.03
1016.11
1071.35
1139.43
1230.85
1312.35
1406.85
1488.07
1511.7
1457.06
1323.94
1187.85
1109.55
1068.96
1036.37
991.482
925.601
858.291
817.726
803.484
798.585
793.489
786.076
777.085
768.677
762.282
757.79
755.904
754.629
754.212
753.13
758.13
784.157
875.553
1045.54
1153.33
1204.91
1210.4
1200.03
1170.13
1119.2
1030.99
1036.86
1068.46
1121.89
1173.92
1239.83
1312
1338.69
1308.31
1231.98
1158.71
1112.89
1083.21
1058.17
1027.84
975.307
896.169
817.144
770.267
752.362
743.814
735.38
725.456
715.587
707.704
701.978
699.303
697.691
697.082
695.654
703.321
733.781
861.381
1051.66
1146.43
1195.77
1200.59
1190.09
1164.8
1120.11
1027.62
1009.38
986.137
971.336
960.023
955.932
957.906
947.318
921.426
908.853
918.571
940.073
956.612
964.016
965.467
952.35
910.091
831.363
746.326
700.656
685.031
676.401
667.197
657.176
648.425
641.524
637.779
635.392
634.322
632.367
639.867
673.161
826.679
1028.84
1114.09
1160.67
1165.93
1157.1
1133.65
1091.1
1013.6
991.137
954.911
918.817
885.65
855.023
825.398
796.541
761.053
740.171
738.698
745.775
755.865
763.463
771.296
781.197
779.826
746.311
677.904
611.457
580.128
572.203
566.972
560.453
553.933
548.481
545.511
543.603
543.622
542.096
548.358
580.462
746.224
966.829
1060.52
1099.37
1091.83
1071.8
1043.33
1017.88
986.719
952.603
916.152
875.383
857.016
841.835
816.545
787.02
760.576
745.876
738.466
733.352
725.862
711.873
690.25
665.978
644.627
616.811
562.084
483.3
428.275
410.403
404.73
400.702
396.671
393.342
391.581
390.266
390.92
390.269
394.558
417.516
560.559
785.864
894.293
932.622
931.566
933.716
938.721
957.362
975.065
957.058
897.222
846.729
812.572
793.578
790.609
786.079
779.834
779.798
774.007
774.063
769.564
754.086
725.488
687.774
646.384
600.968
543.865
466.566
380.145
328.31
309.829
300.3
292.685
286.52
282.162
279.091
277.71
276.46
278.458
292.322
393.256
586.724
705.823
765.921
802.307
845.337
887.853
931.452
970.665
983.128
924.584
886.434
853.81
819.954
793.936
786.037
784.965
787.172
814.65
822.5
819.878
812.57
788.914
748.869
698.423
643.916
583.967
505.636
408.312
331.638
297.993
284.469
275.22
267.587
261.733
257.448
254.808
252.887
254.005
265.855
354.781
528.241
642.197
710.993
762.907
815.823
868.458
924.677
969.493
979.421
933.294
897.071
872.16
853.567
836.345
823.995
827.124
819.848
819.416
860.12
876.308
865.52
851.038
818.267
768.118
707.576
640.993
562.187
461.229
358.774
302.43
282.069
271.693
263.622
257.231
252.409
249.269
247.016
247.851
259.364
346.86
516.646
627.618
694.575
748.61
806.394
863.98
922.685
968.399
974.344
926.089
883.83
853.878
831.812
822.469
824.544
846.485
877.517
876.703
889.341
919.785
926.182
910.044
882.071
835.438
772.921
701.359
620.247
518.361
399.803
315.823
284.126
272.054
263.856
257.296
252.205
248.744
246.258
246.993
258.636
347.511
517.356
626.999
693.254
747.709
805.588
863.298
922.31
968.062
974.346
920.875
870.867
838.234
813.621
802.771
808.506
830.886
885.527
935.088
947.843
983.614
985.114
969.07
945.225
903.279
840.906
764.028
677.679
574.711
447.782
336.802
287.248
271.706
263.318
256.682
251.401
247.696
245.035
245.67
257.337
346.788
517.222
626.833
692.548
746.946
804.632
862.705
922.055
967.65
975.304
921.979
862.665
816.013
776.18
753.725
767.996
805.273
875.105
974.104
1016.17
1027.96
1065.81
1044.14
1009.98
970.113
909.821
829.483
736.391
629.403
497.356
364.524
292.922
271.475
262.57
255.884
250.463
246.511
243.669
244.223
255.984
346.374
517.17
626.229
691.274
745.889
803.604
862.327
922.067
967.449
975.173
920.544
862.296
807.685
742.237
698.785
707.817
747.067
829.074
964.902
1080.92
1100.72
1109.23
1116.51
1081.92
1038.52
978.795
896.201
795.917
682.288
545.629
396.426
301.497
271.668
261.905
255.185
249.641
245.457
242.448
242.891
254.679
345.319
516.073
624.723
689.17
744.245
802.119
861.724
921.894
967.022
973.754
918.259
864.998
808.97
741.153
678.027
659.799
664.684
736.243
923.047
1090.89
1173.65
1158.87
1164.45
1143.1
1103.11
1046.16
962.294
855.222
733.065
590.433
428.963
312.432
272.521
261.458
254.722
249.097
244.709
241.544
241.901
253.778
345.115
516.034
624.13
687.866
743.257
801.077
861.498
921.871
966.692
970.22
939.206
895.204
840.15
778.329
714.281
668.054
633.659
656.747
861.043
1093.83
1202.43
1199.8
1197.68
1189.42
1158.18
1105.6
1022.29
910.212
779.614
629.943
458.708
323.981
273.717
261.105
254.367
248.693
244.133
240.831
241.101
253.054
344.85
515.745
623.319
686.409
741.991
799.795
860.987
921.479
966.132
963.185
872.801
796.345
734.404
690.903
654.807
616.552
584.908
599.331
770.556
1099.31
1235.17
1245.33
1237.64
1233.2
1210.62
1159.8
1072.03
954.098
817.567
662.548
483.609
334.5
274.997
260.843
254.113
248.412
243.711
240.295
240.498
252.539
344.88
515.857
622.904
685.409
740.93
798.945
860.706
921.211
965.711
961.418
881.38
829.04
782.269
748.126
715.972
663.125
594.615
583.979
694.11
1105.4
1282.4
1299.1
1275.26
1263.11
1245.56
1199.41
1112.91
992.903
849.686
687.145
501.4
342.25
275.99
260.695
253.963
248.245
243.434
239.937
240.098
252.213
344.958
515.903
622.469
684.603
740.036
798.578
860.762
921.384
965.746
)
;

boundaryField
{
    inlet
    {
        type            fixedValue;
        value           uniform 10000;
    }
    outlet
    {
        type            fixedValue;
        value           uniform 1000;
    }
    obstacle
    {
        type            zeroGradient;
    }
    empty
    {
        type            empty;
    }
}


// ************************************************************************* //
