/*--------------------------------*- C++ -*----------------------------------*\
| =========                 |                                                 |
| \\      /  F ield         | OpenFOAM: The Open Source CFD Toolbox           |
|  \\    /   O peration     | Version:  v1912                                 |
|   \\  /    A nd           | Website:  www.openfoam.com                      |
|    \\/     M anipulation  |                                                 |
\*---------------------------------------------------------------------------*/
FoamFile
{
    version     2.0;
    format      ascii;
    class       volScalarField;
    location    "2.74";
    object      rho;
}
// * * * * * * * * * * * * * * * * * * * * * * * * * * * * * * * * * * * * * //

dimensions      [1 -3 0 0 0 0 0];


internalField   nonuniform List<scalar> 
1900
(
21030.6
15459.5
14994
15032
15080.3
15138.3
15197
15261.3
15314.8
15388.9
21030.6
15459.5
14994.1
15032
15080.3
15137.7
15194.2
15248.3
15292.9
15355.4
21030.5
15459.5
14994.2
15031.8
15079.4
15136.3
15194.2
15253.4
15307.9
15346.2
21030.6
15459.5
14994.1
15032
15080.3
15137.7
15194.2
15248.3
15292.9
15355.4
21030.6
15459.5
14994
15032
15080.3
15138.3
15197
15261.3
15314.8
15388.9
15271.9
15296.2
15225.4
14894.6
13425.6
15370.4
15396.2
15291.1
15134.1
14478.9
15342.4
15344.7
15218.5
14990
14289.6
15370.4
15396.2
15291.1
15134.1
14478.9
15271.9
15296.2
15225.4
14894.6
13425.6
16839.5
17506.5
18375.7
19075
19946.5
16692.1
17499.1
18424
19108.5
19264.1
16698.8
17517.6
18381.9
18915.2
18414.3
16692.1
17499.1
18424
19108.5
19264.1
16839.5
17506.5
18375.7
19075
19946.5
17890.5
8638.75
8553.65
8662.78
8498.75
8428.76
8441.28
8528.23
8639.38
8804.37
9005.31
9242.11
9513.94
9818.46
10150.2
10498
10840
11144.2
11364.8
11510
11501.6
11339.4
11104.1
10785.6
10428.2
10060.5
9700.29
9354.15
9023.3
8708.25
8410.88
8134.06
7879.39
7645.3
7426.65
7226.56
7052.86
6956.22
7115.81
48494.7
16399.3
8839.5
8779.35
8712.28
8530.61
8447.96
8458.12
8544.58
8654.31
8818.67
9019.47
9255.97
9527.51
9831.84
10163.4
10511.2
10853.2
11157.3
11377.8
11523
11514.6
11352.4
11117.2
10798.7
10441.3
10073.6
9713.45
9367.44
9036.78
8722.01
8425
8148.61
7894.43
7660.87
7442.64
7242.77
7068.34
6972.77
7132.95
48647.5
15563.3
9312.92
8903.18
8753.98
8546.55
8456.45
8465.63
8552.01
8660.81
8825.04
9025.66
9261.96
9533.32
9837.51
10169
10516.7
10858.7
11162.7
11383.3
11528.4
11520
11357.8
11122.7
10804.2
10446.8
10079.1
9719.05
9373.15
9042.65
8728.1
8431.36
8155.29
7901.48
7668.34
7450.48
7251.01
7076.32
6981.41
7141.28
48845
16399.3
8839.5
8779.35
8712.28
8530.61
8447.96
8458.12
8544.58
8654.31
8818.67
9019.47
9255.97
9527.51
9831.84
10163.4
10511.2
10853.2
11157.3
11377.8
11523
11514.6
11352.4
11117.2
10798.7
10441.3
10073.6
9713.45
9367.44
9036.78
8722.01
8425
8148.61
7894.43
7660.87
7442.64
7242.77
7068.34
6972.77
7132.95
48647.5
17890.5
8638.75
8553.65
8662.78
8498.75
8428.76
8441.28
8528.23
8639.38
8804.37
9005.31
9242.11
9513.94
9818.46
10150.2
10498
10840
11144.2
11364.8
11510
11501.6
11339.4
11104.1
10785.6
10428.2
10060.5
9700.29
9354.15
9023.3
8708.25
8410.88
8134.06
7879.39
7645.3
7426.65
7226.56
7052.86
6956.22
7115.81
48494.7
26503.8
7934.15
8183.66
8389.56
8350.81
8325.29
8356.7
8443.83
8565.17
8731.8
8933.23
9170.96
9443.63
9748.57
10080.3
10427.9
10769.5
11073.4
11293.9
11439.1
11430.6
11268.5
11033.5
10715.5
10358.8
9991.85
9632.36
9286.7
8956.11
8641.09
8343.53
8066.25
7810.79
7575.56
7355.86
7154.59
6983.72
6882.25
7030.86
47755.7
32599.9
7073.53
7659.22
7886.55
8005.58
8056.96
8135.17
8234.18
8367.4
8535.97
8738.01
8976.34
9249.17
9553.36
9883.46
10228.8
10568.3
10870.5
11090.1
11234.8
11226.3
11064.9
10831.1
10515.3
10161.5
9797.65
9441.04
9097.85
8769.25
8455.85
8159.55
7883.15
7628.23
7392.97
7174.31
6973.76
6808.97
6704.78
6834.33
46256.2
35064.2
6714.1
7173.09
7453.71
7616.18
7726.91
7835.46
7954.1
8094.73
8265.58
8468.11
8705.87
8977.08
9278.16
9603.77
9943.82
10278.2
10576.4
10793.7
10937.1
10928.6
10768.8
10537.7
10226.4
9878.26
9520.62
9170.05
8832.42
8508.93
8200.19
7908.19
7635.61
7384.1
7151.8
6937.6
6741.39
6582.67
6477.66
6559.79
44168.1
37551.6
6466.71
6803.29
7055.16
7239.27
7385.61
7512.07
7645.53
7790.86
7963.25
8165.98
8402.14
8669.94
8965.56
9284.02
9616.08
9942.9
10235.2
10448.9
10590.5
10582.1
10424.9
10197.9
9893.25
9553.3
9204.7
8863.2
8534.33
8219.11
7918.32
7633.74
7368.05
7123.01
6896.73
6690.5
6501.45
6347.43
6240.72
6267.55
41862.9
35780.7
6184.45
6456.49
6699.36
6890.45
7052.31
7189.21
7329.12
7478.14
7651.9
7854.89
8089.28
8352.8
8641.87
8951.88
9274.64
9592.67
9878.01
10087.6
10227.2
10219.4
10065.2
9843.26
9546.28
9215.95
8877.94
8547.16
8228.59
7923.32
7631.7
7355.96
7098.08
6860.59
6641.43
6444.48
6263.05
6110.84
5996.04
5985.94
39420.7
34812.2
5916.61
6135.82
6376.46
6573.75
6735.66
6875.89
7018.05
7169.71
7345.48
7549.63
7782.44
8042.05
8324.46
8626.06
8939.49
9248.79
9527.38
9733.02
9871.21
9864.1
9712.89
9495.97
9206.7
8886.07
8558.84
8238.87
7930.9
7635.23
7353.24
7085.6
6835.54
6605.6
6393.36
6205.35
6030.43
5877.79
5751.34
5723.2
36873.7
33571.3
5668.38
5844.28
6078.78
6279.19
6435.34
6574.25
6716.14
6870.15
7048.69
7253.67
7486.01
7741.31
8017.67
8311.01
8615.56
8916.61
9189.04
9391.37
9528.66
9522.47
9373.92
9161.55
8879.4
8567.95
8250.93
7941.47
7643.06
7357.39
7083.02
6824.34
6580.7
6358.08
6152.82
5972.78
5802.76
5648.64
5511.16
5471.32
34371.5
31990.3
5430.47
5575.77
5799.63
5998.88
6148.08
6284.26
6425.02
6581.31
6761.92
6969.48
7199.32
7451.8
7721.43
8007.16
8303.08
8596.4
8863.26
9062.94
9199.84
9194.7
9048.42
8840.01
8564.36
8261.47
7954.27
7654.28
7365.95
7087.64
6823.31
6570.15
6333.97
6118.66
5919.09
5746.07
5579.91
5424.24
5277.23
5229.02
31800.3
30280.9
5200.32
5327.55
5537.99
5731.42
5874.76
6007.78
6146.43
6304.92
6488.49
6694.82
6925.31
7172.08
7436.6
7714.26
8002.15
8288.09
8549.96
8747.55
8884.47
8880.44
8736.07
8531.09
8261.41
7966.71
7668.55
7378.4
7097.69
6829.86
6570.22
6327.11
6095.91
5887.16
5694.67
5527.61
5364.35
5207.82
5054.41
4998.69
29360.5
28255
4973.89
5086.33
5286.64
5471.75
5611.37
5742.58
5881.11
6040.94
6225.86
6434.79
6660.81
6905.71
7163.17
7434.19
7714.16
7993.37
8250.74
8446.79
8584.01
8581.06
8438.25
8236.21
7972.07
7684.99
7395.82
7113.73
6842.71
6580.01
6330.8
6091.71
5866.32
5665.64
5476.64
5314.79
5153.99
4996.79
4837.9
4778.11
26871.6
26193.5
4761.96
4867.19
5060.4
5232.49
5369.02
5498.46
5633.7
5796.68
5980.55
6188.01
6413.09
6652.28
6905.07
7168.94
7442.04
7715.05
7968.53
8163.54
8301.24
8299.28
8157.66
7958.03
7698.92
7419.09
7137.89
6864.47
6599.93
6346.43
6101.73
5871.22
5652.64
5456.54
5274.39
5117.24
4958.95
4802.37
4641.2
4575.89
24576.3
23993
4559.69
4653.53
4840.38
4999.59
5133.85
5262.55
5400.28
5562.25
5749.71
5955.54
6179.36
6415.23
6662.99
6921.23
7188.14
7455.82
7706.01
7900.5
8038.8
8037.66
7896.83
7699
7444.35
7171.03
6897.28
6630.92
6373.39
6125.8
5886.28
5662.63
5446.07
5258.67
5078.89
4925.17
4767.47
4611.09
4448.27
4381.43
22256
21889.5
4376.21
4464.41
4644.59
4796.32
4928.84
5057.33
5194.96
5360.79
5543.44
5750.11
5967.86
6199.52
6440.97
6693.07
6953.79
7216.35
7463.59
7657.92
7796.88
7796.36
7655.94
7459.37
7208.82
6941.85
6675.59
6416.79
6167.16
5926.14
5695.22
5475.92
5268.36
5084.07
4908.85
4756.81
4600.06
4443.55
4279.6
4207.37
20156.6
19742.5
4201.53
4281.08
4450.48
4594.19
4726.67
4859.02
4999.18
5168.33
5350.56
5555.72
5770.76
5998.07
6234.59
6480.98
6735.99
6993.77
7238.35
7432.91
7572.65
7572.54
7432.09
7236.17
6989.33
6728.33
6469.11
6217.58
5974.46
5740.39
5514.15
5301.55
5097.13
4917.25
4743.72
4591.83
4433.47
4276.55
4113.45
4040.93
18082.1
17722.5
4035.53
4107.44
4265.03
4408.29
4543.3
4682.86
4826.6
4999.66
5182.41
5385.98
5598.32
5821.24
6052.11
6291.36
6538.5
6789.08
7028.8
7221.99
7361.85
7361.97
7221.86
7027.95
6786.83
6534.1
6283.94
6040.95
5804.92
5577.23
5355.56
5148.23
4946.85
4769.49
4596.56
4442.28
4281.71
4124.21
3962.62
3888.61
16252.5
15675
3867.26
3932.28
4078.05
4218.46
4359.08
4503.15
4656.23
4830.15
5016.62
5219.88
5432.26
5654.02
5882.6
6117.86
6359.75
6604.86
6840.39
7032.65
7172.98
7173.18
7032.86
6840.32
6604.05
6357.68
6113.88
5876.18
5643.96
5418.99
5199.34
4994.15
4793.28
4617.27
4442.7
4286.47
4124.61
3968.6
3812.18
3741.61
14437
13957.2
3719.37
3767.58
3898.1
4035.45
4180.69
4329.58
4491.32
4666.25
4858.04
5062.4
5278.7
5503.97
5736.58
5974.63
6217.39
6460.12
6691.52
6879.66
7015.53
7015.71
6879.96
6691.82
6460.18
6216.9
5973.12
5733.66
5498.76
5271.53
5050.4
4845
4643.77
4467.54
4292.27
4135.12
3974.52
3823.29
3678.43
3620.49
12982.6
12195.2
3615.07
3632.27
3740.8
3871.39
4017.99
4168.83
4335.68
4512.1
4709.84
4917.44
5141.85
5375.75
5619.83
5870.21
6120.61
6366.35
6599.34
6790.49
6930.14
6930.3
6790.78
6599.72
6366.67
6120.63
5869.66
5618.4
5372.84
5137.59
4909.9
4701.28
4497.35
4319.43
4144.28
3987.72
3831.29
3690.99
3571.63
3546.38
11640.6
12854.3
3636.26
3603.89
3679.16
3800.09
3946.96
4101.76
4271.76
4454.1
4655.38
4868.88
5098.61
5340.63
5595.5
5867.11
6172.21
6493.67
6793.11
7019.63
7162.85
7162.93
7019.78
6793.31
6493.88
6172.36
5866.91
5594.75
5338.86
5095.92
4863.85
4649.74
4444.06
4260.81
4085.19
3926.53
3772.47
3644.08
3557.76
3581.17
12519.5
130755
12588.5
11881.4
13345.1
14903.9
16871.1
18838.5
21085.7
23343.7
25856.5
28328.8
31001.8
33617.2
36357.8
39013.2
41657.5
44155.2
46438.6
48265.7
49471.6
49471.4
48265.8
46439
44156
41658.9
39015.5
36360.9
33621.2
31006.5
28333.8
25861.6
23348.3
21089.1
18840.9
16870
14898.5
13329.1
11852.6
12530.5
130106
130755
12588.5
11881.4
13345.1
14903.9
16871.1
18838.5
21085.7
23343.7
25856.5
28328.8
31001.8
33617.2
36357.8
39013.2
41657.5
44155.2
46438.6
48265.7
49471.6
49471.4
48265.8
46439
44156
41658.9
39015.5
36360.9
33621.2
31006.5
28333.8
25861.6
23348.3
21089.1
18840.9
16870
14898.5
13329.1
11852.6
12530.5
130106
12854.3
3636.26
3603.89
3679.16
3800.09
3946.96
4101.76
4271.76
4454.1
4655.38
4868.88
5098.61
5340.63
5595.5
5867.11
6172.21
6493.67
6793.11
7019.63
7162.85
7162.93
7019.78
6793.31
6493.88
6172.36
5866.91
5594.75
5338.86
5095.92
4863.85
4649.74
4444.06
4260.81
4085.19
3926.53
3772.47
3644.08
3557.76
3581.17
12519.5
12195.2
3615.07
3632.27
3740.8
3871.39
4017.99
4168.83
4335.68
4512.1
4709.84
4917.44
5141.85
5375.75
5619.83
5870.21
6120.61
6366.35
6599.34
6790.49
6930.14
6930.3
6790.78
6599.72
6366.67
6120.63
5869.66
5618.4
5372.84
5137.59
4909.9
4701.28
4497.35
4319.43
4144.28
3987.72
3831.29
3690.99
3571.63
3546.38
11640.6
13957.2
3719.37
3767.58
3898.1
4035.45
4180.69
4329.58
4491.32
4666.25
4858.04
5062.4
5278.7
5503.97
5736.58
5974.63
6217.39
6460.12
6691.52
6879.66
7015.53
7015.71
6879.96
6691.82
6460.18
6216.9
5973.12
5733.66
5498.76
5271.53
5050.4
4845
4643.77
4467.54
4292.27
4135.12
3974.52
3823.29
3678.43
3620.49
12982.6
15675
3867.26
3932.28
4078.05
4218.46
4359.08
4503.15
4656.23
4830.15
5016.62
5219.88
5432.26
5654.02
5882.6
6117.86
6359.75
6604.86
6840.39
7032.65
7172.98
7173.18
7032.86
6840.32
6604.05
6357.68
6113.88
5876.18
5643.96
5418.99
5199.34
4994.15
4793.28
4617.27
4442.7
4286.47
4124.61
3968.6
3812.18
3741.61
14437
17722.5
4035.53
4107.44
4265.03
4408.29
4543.3
4682.86
4826.6
4999.66
5182.41
5385.98
5598.32
5821.24
6052.11
6291.36
6538.5
6789.08
7028.8
7221.99
7361.85
7361.97
7221.86
7027.95
6786.83
6534.1
6283.94
6040.95
5804.92
5577.23
5355.56
5148.23
4946.85
4769.49
4596.56
4442.28
4281.71
4124.21
3962.62
3888.61
16252.5
19742.5
4201.53
4281.08
4450.48
4594.19
4726.67
4859.02
4999.18
5168.33
5350.56
5555.72
5770.76
5998.07
6234.59
6480.98
6735.99
6993.77
7238.35
7432.91
7572.65
7572.54
7432.09
7236.17
6989.33
6728.33
6469.11
6217.58
5974.46
5740.39
5514.15
5301.55
5097.13
4917.25
4743.72
4591.83
4433.47
4276.55
4113.45
4040.93
18082.1
21889.5
4376.21
4464.41
4644.59
4796.32
4928.84
5057.33
5194.96
5360.79
5543.44
5750.11
5967.86
6199.52
6440.97
6693.07
6953.79
7216.35
7463.59
7657.92
7796.88
7796.36
7655.94
7459.37
7208.82
6941.85
6675.59
6416.79
6167.16
5926.14
5695.22
5475.92
5268.36
5084.07
4908.85
4756.81
4600.06
4443.55
4279.6
4207.37
20156.6
23993
4559.69
4653.53
4840.38
4999.59
5133.85
5262.55
5400.28
5562.25
5749.71
5955.54
6179.36
6415.23
6662.99
6921.23
7188.14
7455.82
7706.01
7900.5
8038.8
8037.66
7896.83
7699
7444.35
7171.03
6897.28
6630.92
6373.39
6125.8
5886.28
5662.63
5446.07
5258.67
5078.89
4925.17
4767.47
4611.09
4448.27
4381.43
22256
26193.5
4761.96
4867.19
5060.4
5232.49
5369.02
5498.46
5633.7
5796.68
5980.55
6188.01
6413.09
6652.28
6905.07
7168.94
7442.04
7715.05
7968.53
8163.54
8301.24
8299.28
8157.66
7958.03
7698.92
7419.09
7137.89
6864.47
6599.93
6346.43
6101.73
5871.22
5652.64
5456.54
5274.39
5117.24
4958.95
4802.37
4641.2
4575.89
24576.3
28255
4973.89
5086.33
5286.64
5471.75
5611.37
5742.58
5881.11
6040.94
6225.86
6434.79
6660.81
6905.71
7163.17
7434.19
7714.16
7993.37
8250.74
8446.79
8584.01
8581.06
8438.25
8236.21
7972.07
7684.99
7395.82
7113.73
6842.71
6580.01
6330.8
6091.71
5866.32
5665.64
5476.64
5314.79
5153.99
4996.79
4837.9
4778.11
26871.6
30280.9
5200.32
5327.55
5537.99
5731.42
5874.76
6007.78
6146.43
6304.92
6488.49
6694.82
6925.31
7172.08
7436.6
7714.26
8002.15
8288.09
8549.96
8747.55
8884.47
8880.44
8736.07
8531.09
8261.41
7966.71
7668.55
7378.4
7097.69
6829.86
6570.22
6327.11
6095.91
5887.16
5694.67
5527.61
5364.35
5207.82
5054.41
4998.69
29360.5
31990.3
5430.47
5575.77
5799.63
5998.88
6148.08
6284.26
6425.02
6581.31
6761.92
6969.48
7199.32
7451.8
7721.43
8007.16
8303.08
8596.4
8863.26
9062.94
9199.84
9194.7
9048.42
8840.01
8564.36
8261.47
7954.27
7654.28
7365.95
7087.64
6823.31
6570.15
6333.97
6118.66
5919.09
5746.07
5579.91
5424.24
5277.23
5229.02
31800.3
33571.3
5668.38
5844.28
6078.78
6279.19
6435.34
6574.25
6716.14
6870.15
7048.69
7253.67
7486.01
7741.31
8017.67
8311.01
8615.56
8916.61
9189.04
9391.37
9528.66
9522.47
9373.92
9161.55
8879.4
8567.95
8250.93
7941.47
7643.06
7357.39
7083.02
6824.34
6580.7
6358.08
6152.82
5972.78
5802.76
5648.64
5511.16
5471.32
34371.5
34812.2
5916.61
6135.82
6376.46
6573.75
6735.66
6875.89
7018.05
7169.71
7345.48
7549.63
7782.44
8042.05
8324.46
8626.06
8939.49
9248.79
9527.38
9733.02
9871.21
9864.1
9712.89
9495.97
9206.7
8886.07
8558.84
8238.87
7930.9
7635.23
7353.24
7085.6
6835.54
6605.6
6393.36
6205.35
6030.43
5877.79
5751.34
5723.2
36873.7
35780.7
6184.45
6456.49
6699.36
6890.45
7052.31
7189.21
7329.12
7478.14
7651.9
7854.89
8089.28
8352.8
8641.87
8951.88
9274.64
9592.67
9878.01
10087.6
10227.2
10219.4
10065.2
9843.26
9546.28
9215.95
8877.94
8547.16
8228.59
7923.32
7631.7
7355.96
7098.08
6860.59
6641.43
6444.48
6263.05
6110.84
5996.04
5985.94
39420.7
37551.6
6466.71
6803.29
7055.16
7239.27
7385.61
7512.07
7645.53
7790.86
7963.25
8165.98
8402.14
8669.94
8965.56
9284.02
9616.08
9942.9
10235.2
10448.9
10590.5
10582.1
10424.9
10197.9
9893.25
9553.3
9204.7
8863.2
8534.33
8219.11
7918.32
7633.74
7368.05
7123.01
6896.73
6690.5
6501.45
6347.43
6240.72
6267.55
41862.9
35064.2
6714.1
7173.09
7453.71
7616.18
7726.91
7835.46
7954.1
8094.73
8265.58
8468.11
8705.87
8977.08
9278.16
9603.77
9943.82
10278.2
10576.4
10793.7
10937.1
10928.6
10768.8
10537.7
10226.4
9878.26
9520.62
9170.05
8832.42
8508.93
8200.19
7908.19
7635.61
7384.1
7151.8
6937.6
6741.39
6582.67
6477.66
6559.79
44168.1
32599.9
7073.53
7659.22
7886.55
8005.58
8056.96
8135.17
8234.18
8367.4
8535.97
8738.01
8976.34
9249.17
9553.36
9883.46
10228.8
10568.3
10870.5
11090.1
11234.8
11226.3
11064.9
10831.1
10515.3
10161.5
9797.65
9441.04
9097.85
8769.25
8455.85
8159.55
7883.15
7628.23
7392.97
7174.31
6973.76
6808.97
6704.78
6834.33
46256.2
26503.8
7934.15
8183.66
8389.56
8350.81
8325.29
8356.7
8443.83
8565.17
8731.8
8933.23
9170.96
9443.63
9748.57
10080.3
10427.9
10769.5
11073.4
11293.9
11439.1
11430.6
11268.5
11033.5
10715.5
10358.8
9991.85
9632.36
9286.7
8956.11
8641.09
8343.53
8066.25
7810.79
7575.56
7355.86
7154.59
6983.72
6882.25
7030.86
47755.7
)
;

boundaryField
{
    inlet
    {
        type            calculated;
        value           uniform 14000.1;
    }
    outlet
    {
        type            calculated;
        value           nonuniform List<scalar> 
165
(
2242.22
2536.96
2584.16
2553.35
2607.91
2639.7
2672.24
2705.09
2734.24
2769.16
2803.77
2842.01
2876.37
2910.96
2940.45
2972.09
2993.5
2965.07
3073.64
3568.38
3568.38
3111.56
2987.17
3021.8
3008.51
2971.92
2939.99
2898.68
2858.34
2811.26
2766.86
2718
2671.75
2623.03
2576.72
2530.27
2486.47
2446.53
2414.98
2394
2394
2414.98
2446.53
2486.46
2530.24
2576.67
2622.96
2671.65
2717.88
2766.71
2811.09
2858.17
2898.55
2939.91
2972.05
3008.93
3023.3
2989.23
3113.16
3572.43
2399.03
2425.09
2462.61
2503.96
2547.71
2593.6
2638.62
2685.97
2730.71
2777.97
2820.8
2865.72
2904.8
2944.29
2975.36
3009.74
3023.31
2989.73
3114.05
3572.43
2386.24
2383.56
2379.89
2383.56
2386.24
3572.43
3114.05
2989.73
3023.31
3009.74
2975.36
2944.29
2904.8
2865.72
2820.8
2777.97
2730.71
2685.97
2638.62
2593.6
2547.71
2503.96
2462.61
2425.09
2399.03
3568.38
3111.56
2987.17
3021.8
3008.51
2971.92
2939.99
2898.68
2858.34
2811.26
2766.86
2718
2671.75
2623.03
2576.72
2530.27
2486.47
2446.53
2414.98
2394
2394
2414.98
2446.53
2486.46
2530.24
2576.67
2622.96
2671.65
2717.88
2766.71
2811.09
2858.17
2898.55
2939.91
2972.05
3008.93
3023.3
2989.23
3113.16
3572.43
3568.38
3073.64
2965.07
2993.5
2972.09
2940.45
2910.96
2876.37
2842.01
2803.77
2769.16
2734.24
2705.09
2672.24
2639.7
2607.91
2553.35
2584.16
2536.96
2242.22
)
;
    }
    obstacle
    {
        type            calculated;
        value           nonuniform List<scalar> 
40
(
21030.6
15459.5
14994
15032
15080.3
15138.3
15197
15261.3
15314.8
15388.9
21030.6
15459.5
14994
15032
15080.3
15138.3
15197
15261.3
15314.8
15388.9
15271.9
15296.2
15225.4
14894.6
13425.6
15271.9
15296.2
15225.4
14894.6
13425.6
16839.5
17506.5
18375.7
19075
19946.5
16839.5
17506.5
18375.7
19075
19946.5
)
;
    }
    empty
    {
        type            empty;
    }
}


// ************************************************************************* //
