/*--------------------------------*- C++ -*----------------------------------*\
| =========                 |                                                 |
| \\      /  F ield         | OpenFOAM: The Open Source CFD Toolbox           |
|  \\    /   O peration     | Version:  v1912                                 |
|   \\  /    A nd           | Website:  www.openfoam.com                      |
|    \\/     M anipulation  |                                                 |
\*---------------------------------------------------------------------------*/
FoamFile
{
    version     2.0;
    format      ascii;
    class       volVectorField;
    location    "2.74";
    object      U;
}
// * * * * * * * * * * * * * * * * * * * * * * * * * * * * * * * * * * * * * //

dimensions      [0 1 -1 0 0 0 0];


internalField   nonuniform List<vector> 
1900
(
(-0.374151 -1.09898e-06 0)
(-0.0619524 -1.30755e-06 0)
(-0.0654148 -1.81286e-06 0)
(-0.0702422 5.98088e-06 0)
(-0.0745117 8.45761e-05 0)
(-0.0789338 0.000303866 0)
(-0.0835154 0.000519298 0)
(-0.0880641 -0.000692551 0)
(-0.0918302 -0.00433274 0)
(-0.0832491 -0.0160911 0)
(-0.374153 -3.74519e-07 0)
(-0.0619603 -1.52883e-06 0)
(-0.0654259 -3.83876e-06 0)
(-0.0702531 8.00565e-06 0)
(-0.0744609 8.16825e-05 0)
(-0.0786267 0.000305768 0)
(-0.0825433 0.000543332 0)
(-0.0865211 -0.000136973 0)
(-0.0921081 -0.00247755 0)
(-0.0975134 -0.0132966 0)
(-0.374153 -3.37108e-14 0)
(-0.0619642 -2.81872e-14 0)
(-0.0654296 -2.23143e-14 0)
(-0.070238 3.38368e-14 0)
(-0.0743876 4.58409e-14 0)
(-0.0784177 3.3488e-14 0)
(-0.0821753 -4.70868e-15 0)
(-0.0862496 1.78856e-14 0)
(-0.092446 -9.78603e-15 0)
(-0.104087 -1.8137e-14 0)
(-0.374153 3.74519e-07 0)
(-0.0619603 1.52883e-06 0)
(-0.0654259 3.83876e-06 0)
(-0.0702531 -8.00565e-06 0)
(-0.0744609 -8.16825e-05 0)
(-0.0786267 -0.000305768 0)
(-0.0825433 -0.000543332 0)
(-0.0865211 0.000136973 0)
(-0.0921081 0.00247755 0)
(-0.0975134 0.0132966 0)
(-0.374151 1.09898e-06 0)
(-0.0619524 1.30755e-06 0)
(-0.0654148 1.81286e-06 0)
(-0.0702422 -5.98088e-06 0)
(-0.0745117 -8.45761e-05 0)
(-0.0789338 -0.000303866 0)
(-0.0835154 -0.000519298 0)
(-0.0880641 0.000692551 0)
(-0.0918302 0.00433274 0)
(-0.0832491 0.0160911 0)
(-0.0881691 -0.0436726 0)
(-0.117168 -0.0573384 0)
(-0.142142 -0.0816138 0)
(-0.191031 -0.106188 0)
(-0.367337 -0.0801475 0)
(-0.116453 -0.0306844 0)
(-0.14667 -0.0397139 0)
(-0.187059 -0.0603183 0)
(-0.271689 -0.0803113 0)
(-0.430497 -0.0727679 0)
(-0.126108 -1.89514e-14 0)
(-0.155878 -1.83899e-14 0)
(-0.205196 2.44257e-14 0)
(-0.298278 -9.60187e-15 0)
(-0.4491 1.59943e-14 0)
(-0.116453 0.0306844 0)
(-0.14667 0.0397139 0)
(-0.187059 0.0603183 0)
(-0.271689 0.0803113 0)
(-0.430497 0.0727679 0)
(-0.0881691 0.0436726 0)
(-0.117168 0.0573384 0)
(-0.142142 0.0816138 0)
(-0.191031 0.106188 0)
(-0.367337 0.0801475 0)
(-0.424239 0.0253201 0)
(-0.34307 0.0307538 0)
(-0.30078 0.0304451 0)
(-0.278362 0.0455838 0)
(-0.341598 0.100597 0)
(-0.440985 0.0191197 0)
(-0.352295 0.0184299 0)
(-0.293231 0.0180183 0)
(-0.233893 0.0374401 0)
(-0.183227 0.108788 0)
(-0.450108 1.69547e-14 0)
(-0.353818 6.74559e-14 0)
(-0.283969 1.04556e-13 0)
(-0.204721 1.47211e-13 0)
(-0.0857175 1.42524e-13 0)
(-0.440985 -0.0191197 0)
(-0.352295 -0.0184299 0)
(-0.293231 -0.0180183 0)
(-0.233893 -0.0374401 0)
(-0.183227 -0.108788 0)
(-0.424239 -0.0253201 0)
(-0.34307 -0.0307538 0)
(-0.30078 -0.0304451 0)
(-0.278362 -0.0455838 0)
(-0.341598 -0.100597 0)
(-0.567404 0.106182 0)
(-0.114758 -0.145818 0)
(-0.168562 -0.188447 0)
(-0.297681 -0.110316 0)
(-0.359368 -0.0499321 0)
(-0.387741 -0.0351281 0)
(-0.39283 -0.0317115 0)
(-0.389433 -0.0302293 0)
(-0.375993 -0.0289157 0)
(-0.358337 -0.0292414 0)
(-0.336475 -0.0292799 0)
(-0.311041 -0.0293865 0)
(-0.282699 -0.029591 0)
(-0.252326 -0.0298294 0)
(-0.220712 -0.030097 0)
(-0.188049 -0.0303708 0)
(-0.153528 -0.030635 0)
(-0.115208 -0.0308593 0)
(-0.0723041 -0.0309646 0)
(-0.0206558 -0.0312167 0)
(0.0244175 -0.0311554 0)
(0.0763964 -0.0308805 0)
(0.119793 -0.0307208 0)
(0.159121 -0.0304513 0)
(0.195219 -0.0301355 0)
(0.23022 -0.0297911 0)
(0.265271 -0.0294178 0)
(0.300707 -0.0290125 0)
(0.336351 -0.0285723 0)
(0.371811 -0.0280946 0)
(0.406602 -0.0275768 0)
(0.440217 -0.0270138 0)
(0.472294 -0.0264137 0)
(0.502916 -0.0257465 0)
(0.532541 -0.0251198 0)
(0.560979 -0.0241477 0)
(0.58545 -0.0240094 0)
(0.600546 -0.0216412 0)
(0.664577 -0.0179409 0)
(1.25857 -0.0109463 0)
(-0.00573618 0.120398 0)
(0.195084 -0.104885 0)
(-0.0146803 -0.132274 0)
(-0.262048 -0.0633578 0)
(-0.358207 -0.0251954 0)
(-0.388606 -0.0174951 0)
(-0.393697 -0.0158347 0)
(-0.390441 -0.0150819 0)
(-0.376776 -0.0144326 0)
(-0.358991 -0.0146172 0)
(-0.337082 -0.0146316 0)
(-0.311604 -0.0146837 0)
(-0.283233 -0.0147873 0)
(-0.25283 -0.0149059 0)
(-0.221171 -0.0150378 0)
(-0.188448 -0.0151722 0)
(-0.153852 -0.0153022 0)
(-0.115446 -0.0154132 0)
(-0.0724476 -0.0154652 0)
(-0.020699 -0.0155932 0)
(0.0244726 -0.0155625 0)
(0.0765506 -0.0154236 0)
(0.120036 -0.0153451 0)
(0.159441 -0.0152119 0)
(0.195607 -0.0150566 0)
(0.230667 -0.0148878 0)
(0.265771 -0.0147053 0)
(0.301255 -0.0145072 0)
(0.33694 -0.0142918 0)
(0.372429 -0.0140572 0)
(0.407237 -0.013801 0)
(0.44085 -0.0135195 0)
(0.472901 -0.0132147 0)
(0.503476 -0.0128721 0)
(0.533015 -0.0125393 0)
(0.561437 -0.0120375 0)
(0.585685 -0.011947 0)
(0.600728 -0.0107053 0)
(0.664769 -0.00883516 0)
(1.2584 -0.00534732 0)
(0.177583 8.66922e-14 0)
(0.298624 -3.80796e-14 0)
(0.0568829 -5.77766e-14 0)
(-0.2445 -2.27001e-14 0)
(-0.359054 1.33531e-14 0)
(-0.389912 1.12426e-13 0)
(-0.394897 2.9415e-13 0)
(-0.391765 5.42507e-13 0)
(-0.377925 -1.26092e-13 0)
(-0.360115 -1.86225e-12 0)
(-0.338133 -3.77354e-12 0)
(-0.312548 -3.54977e-12 0)
(-0.284069 2.39096e-13 0)
(-0.25356 6.96855e-12 0)
(-0.221793 1.2943e-11 0)
(-0.188957 1.11328e-11 0)
(-0.154244 2.31455e-11 0)
(-0.115719 5.14668e-11 0)
(-0.0726033 -1.53008e-11 0)
(-0.0207431 -7.52879e-11 0)
(0.024531 5.79765e-14 0)
(0.0767207 8.70279e-11 0)
(0.120322 4.15043e-12 0)
(0.159849 1.6777e-11 0)
(0.196138 7.82506e-11 0)
(0.231324 7.05297e-11 0)
(0.266554 8.21277e-11 0)
(0.302164 1.14305e-10 0)
(0.337975 1.29688e-10 0)
(0.373591 1.0616e-10 0)
(0.408521 4.59605e-11 0)
(0.442254 -2.13351e-11 0)
(0.474416 -1.14337e-10 0)
(0.505092 -2.03504e-10 0)
(0.534713 -3.24254e-10 0)
(0.563242 -4.16322e-10 0)
(0.587483 -4.80489e-10 0)
(0.602543 -3.83639e-10 0)
(0.666217 -1.9369e-10 0)
(1.25866 -1.37103e-10 0)
(-0.00573618 -0.120398 0)
(0.195084 0.104885 0)
(-0.0146803 0.132274 0)
(-0.262048 0.0633578 0)
(-0.358207 0.0251954 0)
(-0.388606 0.0174951 0)
(-0.393697 0.0158347 0)
(-0.390441 0.0150819 0)
(-0.376776 0.0144326 0)
(-0.358991 0.0146172 0)
(-0.337082 0.0146316 0)
(-0.311604 0.0146837 0)
(-0.283233 0.0147873 0)
(-0.25283 0.0149059 0)
(-0.221171 0.0150378 0)
(-0.188448 0.0151722 0)
(-0.153852 0.0153022 0)
(-0.115446 0.0154132 0)
(-0.0724476 0.0154652 0)
(-0.020699 0.0155932 0)
(0.0244726 0.0155625 0)
(0.0765506 0.0154236 0)
(0.120036 0.0153451 0)
(0.159441 0.0152119 0)
(0.195607 0.0150566 0)
(0.230667 0.0148878 0)
(0.265771 0.0147053 0)
(0.301255 0.0145072 0)
(0.33694 0.0142918 0)
(0.372429 0.0140572 0)
(0.407237 0.013801 0)
(0.44085 0.0135195 0)
(0.472901 0.0132147 0)
(0.503476 0.0128721 0)
(0.533015 0.0125393 0)
(0.561437 0.0120375 0)
(0.585685 0.011947 0)
(0.600728 0.0107053 0)
(0.664769 0.00883516 0)
(1.2584 0.00534732 0)
(-0.567404 -0.106182 0)
(-0.114758 0.145818 0)
(-0.168562 0.188447 0)
(-0.297681 0.110316 0)
(-0.359368 0.0499321 0)
(-0.387741 0.0351281 0)
(-0.39283 0.0317115 0)
(-0.389433 0.0302293 0)
(-0.375993 0.0289157 0)
(-0.358337 0.0292414 0)
(-0.336475 0.0292799 0)
(-0.311041 0.0293865 0)
(-0.282699 0.029591 0)
(-0.252326 0.0298294 0)
(-0.220712 0.030097 0)
(-0.188049 0.0303708 0)
(-0.153528 0.030635 0)
(-0.115208 0.0308593 0)
(-0.0723041 0.0309646 0)
(-0.0206558 0.0312167 0)
(0.0244175 0.0311554 0)
(0.0763964 0.0308805 0)
(0.119793 0.0307208 0)
(0.159121 0.0304513 0)
(0.195219 0.0301355 0)
(0.23022 0.0297911 0)
(0.265271 0.0294178 0)
(0.300707 0.0290125 0)
(0.336351 0.0285723 0)
(0.371811 0.0280946 0)
(0.406602 0.0275768 0)
(0.440217 0.0270138 0)
(0.472294 0.0264137 0)
(0.502916 0.0257465 0)
(0.532541 0.0251198 0)
(0.560979 0.0241477 0)
(0.58545 0.0240094 0)
(0.600546 0.0216412 0)
(0.664577 0.0179409 0)
(1.25857 0.0109463 0)
(-1.13473 -0.160662 0)
(-0.441669 0.166008 0)
(-0.349821 0.235895 0)
(-0.353225 0.161953 0)
(-0.377578 0.0928081 0)
(-0.394698 0.0702874 0)
(-0.397707 0.0638744 0)
(-0.391044 0.0606789 0)
(-0.377683 0.0587498 0)
(-0.359911 0.0589545 0)
(-0.337825 0.0589749 0)
(-0.312194 0.0591771 0)
(-0.283672 0.0595854 0)
(-0.253149 0.0600848 0)
(-0.221408 0.0606477 0)
(-0.188627 0.0612207 0)
(-0.153989 0.0617659 0)
(-0.115545 0.0622222 0)
(-0.0725123 0.0624376 0)
(-0.0207296 0.0629545 0)
(0.024436 0.062831 0)
(0.0765393 0.0622657 0)
(0.120059 0.0619345 0)
(0.159506 0.0613821 0)
(0.195726 0.0607323 0)
(0.230854 0.0600222 0)
(0.26603 0.0592538 0)
(0.301581 0.0584242 0)
(0.337322 0.0575312 0)
(0.372855 0.0565729 0)
(0.407692 0.0555491 0)
(0.441319 0.0544538 0)
(0.473375 0.0533115 0)
(0.503933 0.0520436 0)
(0.533482 0.0509185 0)
(0.561498 0.0490034 0)
(0.5862 0.0488379 0)
(0.600691 0.044678 0)
(0.664048 0.037915 0)
(1.25699 0.0245638 0)
(-1.24941 -0.0923683 0)
(-0.608075 0.208728 0)
(-0.483701 0.263056 0)
(-0.420454 0.200934 0)
(-0.412265 0.142174 0)
(-0.409395 0.11829 0)
(-0.404453 0.107804 0)
(-0.392633 0.102785 0)
(-0.378198 0.100696 0)
(-0.359712 0.100166 0)
(-0.337214 0.100132 0)
(-0.311293 0.100496 0)
(-0.282571 0.101239 0)
(-0.251939 0.102173 0)
(-0.22018 0.103216 0)
(-0.187466 0.104268 0)
(-0.152983 0.105257 0)
(-0.114781 0.106078 0)
(-0.0720492 0.106475 0)
(-0.0206171 0.107408 0)
(0.0241535 0.107194 0)
(0.0759004 0.106175 0)
(0.11911 0.105568 0)
(0.158273 0.10457 0)
(0.19425 0.103388 0)
(0.229169 0.102088 0)
(0.264154 0.100674 0)
(0.299515 0.0991415 0)
(0.335064 0.0974892 0)
(0.370406 0.095717 0)
(0.40506 0.0938291 0)
(0.438522 0.0918198 0)
(0.470462 0.0897563 0)
(0.500886 0.0874403 0)
(0.530503 0.085542 0)
(0.557902 0.0819021 0)
(0.58299 0.0816861 0)
(0.597053 0.0756417 0)
(0.660689 0.0655027 0)
(1.25348 0.047197 0)
(-1.25613 -0.0322105 0)
(-0.643676 0.208001 0)
(-0.5293 0.263323 0)
(-0.462342 0.214818 0)
(-0.436688 0.178835 0)
(-0.421418 0.159097 0)
(-0.409852 0.147889 0)
(-0.395409 0.141704 0)
(-0.37916 0.139241 0)
(-0.359777 0.137771 0)
(-0.336788 0.137527 0)
(-0.310487 0.137892 0)
(-0.281487 0.138787 0)
(-0.250682 0.139976 0)
(-0.218854 0.141322 0)
(-0.186181 0.142692 0)
(-0.151859 0.143989 0)
(-0.113929 0.145074 0)
(-0.0715432 0.145589 0)
(-0.0205121 0.146897 0)
(0.0238202 0.146602 0)
(0.075189 0.145164 0)
(0.118101 0.14435 0)
(0.157011 0.143009 0)
(0.192803 0.14142 0)
(0.227592 0.139672 0)
(0.262474 0.137774 0)
(0.297736 0.135728 0)
(0.333186 0.13354 0)
(0.368426 0.131214 0)
(0.402997 0.128775 0)
(0.43639 0.126213 0)
(0.468316 0.12366 0)
(0.498656 0.120748 0)
(0.528396 0.11858 0)
(0.555174 0.113764 0)
(0.580484 0.113771 0)
(0.59434 0.107474 0)
(0.65915 0.0962454 0)
(1.24841 0.079183 0)
(-1.25122 0.0382175 0)
(-0.654257 0.216848 0)
(-0.548211 0.268168 0)
(-0.487152 0.230157 0)
(-0.45544 0.210119 0)
(-0.434271 0.194631 0)
(-0.416673 0.184522 0)
(-0.399854 0.177628 0)
(-0.381478 0.17466 0)
(-0.360807 0.172483 0)
(-0.336918 0.171874 0)
(-0.309921 0.172089 0)
(-0.280435 0.172976 0)
(-0.249321 0.174247 0)
(-0.217345 0.175723 0)
(-0.184678 0.177248 0)
(-0.150528 0.178712 0)
(-0.112922 0.179951 0)
(-0.0709593 0.180508 0)
(-0.0204128 0.182156 0)
(0.0233721 0.181794 0)
(0.0742749 0.179958 0)
(0.116806 0.179008 0)
(0.155396 0.177425 0)
(0.190962 0.175558 0)
(0.225603 0.17351 0)
(0.260377 0.171296 0)
(0.295548 0.168932 0)
(0.330899 0.166422 0)
(0.366063 0.163801 0)
(0.400558 0.161074 0)
(0.433907 0.15826 0)
(0.465861 0.155558 0)
(0.496035 0.152293 0)
(0.525913 0.150206 0)
(0.551973 0.144449 0)
(0.577543 0.144957 0)
(0.591653 0.139673 0)
(0.658139 0.126558 0)
(1.241 0.113951 0)
(-1.23891 0.0971358 0)
(-0.656512 0.234992 0)
(-0.557955 0.278615 0)
(-0.504625 0.248117 0)
(-0.469896 0.240256 0)
(-0.444771 0.227411 0)
(-0.423572 0.219118 0)
(-0.404495 0.212155 0)
(-0.384348 0.208869 0)
(-0.362261 0.206369 0)
(-0.337282 0.205477 0)
(-0.309482 0.20559 0)
(-0.279426 0.206423 0)
(-0.247975 0.207711 0)
(-0.215833 0.209224 0)
(-0.183166 0.21081 0)
(-0.149186 0.21234 0)
(-0.111912 0.213643 0)
(-0.0703858 0.21418 0)
(-0.0203265 0.216151 0)
(0.0228805 0.215754 0)
(0.0733108 0.213553 0)
(0.115442 0.212554 0)
(0.153695 0.210844 0)
(0.189028 0.208837 0)
(0.223525 0.206642 0)
(0.258204 0.204288 0)
(0.293276 0.201779 0)
(0.328556 0.199169 0)
(0.363596 0.196405 0)
(0.398068 0.193647 0)
(0.431335 0.190718 0)
(0.463335 0.18807 0)
(0.49324 0.184537 0)
(0.523197 0.182657 0)
(0.548533 0.176255 0)
(0.574263 0.177052 0)
(0.590088 0.173488 0)
(0.65752 0.158373 0)
(1.23231 0.152635 0)
(-1.2409 0.159308 0)
(-0.656708 0.255686 0)
(-0.563452 0.294373 0)
(-0.515647 0.270994 0)
(-0.480844 0.269651 0)
(-0.452898 0.258664 0)
(-0.429853 0.252628 0)
(-0.409037 0.2459 0)
(-0.387376 0.242618 0)
(-0.363831 0.240062 0)
(-0.337722 0.239139 0)
(-0.308985 0.239175 0)
(-0.278376 0.24005 0)
(-0.246555 0.241342 0)
(-0.21425 0.242896 0)
(-0.181575 0.244514 0)
(-0.147769 0.24608 0)
(-0.110846 0.247416 0)
(-0.0697815 0.24792 0)
(-0.0202308 0.250218 0)
(0.0223419 0.249816 0)
(0.0722714 0.247264 0)
(0.113964 0.246258 0)
(0.151845 0.244471 0)
(0.186925 0.24238 0)
(0.221276 0.240103 0)
(0.255846 0.237654 0)
(0.290861 0.2351 0)
(0.32598 0.23235 0)
(0.361046 0.229648 0)
(0.39534 0.226708 0)
(0.428628 0.223814 0)
(0.460711 0.221247 0)
(0.490181 0.217315 0)
(0.520208 0.21568 0)
(0.544972 0.208933 0)
(0.57117 0.209896 0)
(0.589194 0.207459 0)
(0.656563 0.191218 0)
(1.22125 0.190056 0)
(-1.22541 0.211155 0)
(-0.655216 0.279586 0)
(-0.566522 0.315347 0)
(-0.522455 0.297803 0)
(-0.488522 0.298822 0)
(-0.459175 0.289215 0)
(-0.435459 0.28549 0)
(-0.413228 0.279055 0)
(-0.390265 0.276064 0)
(-0.36541 0.273839 0)
(-0.337943 0.272822 0)
(-0.308506 0.273155 0)
(-0.277198 0.273988 0)
(-0.245092 0.275409 0)
(-0.212585 0.276995 0)
(-0.179902 0.278668 0)
(-0.146266 0.280271 0)
(-0.109711 0.28165 0)
(-0.0691298 0.282141 0)
(-0.0201104 0.284782 0)
(0.0217725 0.284401 0)
(0.0711696 0.281498 0)
(0.112387 0.280489 0)
(0.149861 0.27863 0)
(0.184678 0.276462 0)
(0.21887 0.274089 0)
(0.253383 0.271587 0)
(0.288223 0.268858 0)
(0.323452 0.266232 0)
(0.358122 0.263112 0)
(0.392781 0.260575 0)
(0.425698 0.257203 0)
(0.458 0.254877 0)
(0.487069 0.25061 0)
(0.517158 0.24916 0)
(0.54151 0.242268 0)
(0.568576 0.243391 0)
(0.588568 0.241523 0)
(0.655563 0.225305 0)
(1.20981 0.233099 0)
(-1.2079 0.260043 0)
(-0.652729 0.305707 0)
(-0.567646 0.339033 0)
(-0.526606 0.326445 0)
(-0.493751 0.327872 0)
(-0.463937 0.319183 0)
(-0.440252 0.317549 0)
(-0.416896 0.311577 0)
(-0.392907 0.309329 0)
(-0.366445 0.30704 0)
(-0.338366 0.306882 0)
(-0.307637 0.30691 0)
(-0.276082 0.308186 0)
(-0.243485 0.309556 0)
(-0.21086 0.311275 0)
(-0.178129 0.312991 0)
(-0.144668 0.314656 0)
(-0.108491 0.316096 0)
(-0.0684114 0.316607 0)
(-0.0199515 0.319604 0)
(0.0211852 0.319266 0)
(0.07001 0.31601 0)
(0.110712 0.314987 0)
(0.147752 0.31305 0)
(0.182287 0.310785 0)
(0.216365 0.30834 0)
(0.250711 0.30566 0)
(0.285692 0.303044 0)
(0.320394 0.299877 0)
(0.355732 0.297445 0)
(0.389482 0.293874 0)
(0.422989 0.291158 0)
(0.455259 0.288639 0)
(0.483614 0.283738 0)
(0.513935 0.282692 0)
(0.538089 0.275854 0)
(0.566185 0.27692 0)
(0.587598 0.27507 0)
(0.653808 0.258485 0)
(1.19495 0.269229 0)
(-1.1951 0.317596 0)
(-0.651116 0.336352 0)
(-0.568247 0.365862 0)
(-0.530019 0.356917 0)
(-0.497769 0.357459 0)
(-0.468048 0.34944 0)
(-0.444666 0.349391 0)
(-0.420117 0.343778 0)
(-0.39495 0.341784 0)
(-0.368018 0.340974 0)
(-0.337774 0.33979 0)
(-0.307243 0.341082 0)
(-0.274542 0.341874 0)
(-0.241934 0.343644 0)
(-0.209002 0.345328 0)
(-0.176278 0.347155 0)
(-0.142963 0.348881 0)
(-0.107174 0.350402 0)
(-0.0676097 0.350967 0)
(-0.0197434 0.354327 0)
(0.0205932 0.354048 0)
(0.0687984 0.350447 0)
(0.108945 0.349399 0)
(0.145521 0.347379 0)
(0.179797 0.345038 0)
(0.213692 0.342449 0)
(0.248132 0.339822 0)
(0.28264 0.336735 0)
(0.318148 0.334339 0)
(0.352004 0.33038 0)
(0.387595 0.328719 0)
(0.419492 0.324189 0)
(0.452693 0.322685 0)
(0.48062 0.317583 0)
(0.511 0.316571 0)
(0.535154 0.30993 0)
(0.564528 0.31123 0)
(0.587283 0.309508 0)
(0.652922 0.293883 0)
(1.18036 0.316265 0)
(-1.17776 0.359816 0)
(-0.647637 0.362879 0)
(-0.567258 0.390044 0)
(-0.532005 0.385785 0)
(-0.499942 0.385385 0)
(-0.470568 0.378501 0)
(-0.447585 0.37961 0)
(-0.422044 0.374438 0)
(-0.397074 0.374613 0)
(-0.36743 0.372198 0)
(-0.338322 0.373711 0)
(-0.305538 0.373618 0)
(-0.273401 0.375547 0)
(-0.240036 0.376985 0)
(-0.207136 0.37893 0)
(-0.174302 0.380784 0)
(-0.14115 0.382611 0)
(-0.105741 0.384222 0)
(-0.0667062 0.384873 0)
(-0.0194774 0.388594 0)
(0.020007 0.388382 0)
(0.0675356 0.384449 0)
(0.107086 0.383367 0)
(0.143185 0.381281 0)
(0.177173 0.378843 0)
(0.21103 0.376238 0)
(0.245166 0.373324 0)
(0.280213 0.370708 0)
(0.314365 0.367062 0)
(0.35021 0.365039 0)
(0.383107 0.36064 0)
(0.41701 0.35821 0)
(0.449357 0.355567 0)
(0.476645 0.349895 0)
(0.507319 0.349305 0)
(0.531448 0.342745 0)
(0.562035 0.343697 0)
(0.585116 0.341128 0)
(0.649781 0.325136 0)
(1.16235 0.349519 0)
(-1.16076 0.415563 0)
(-0.646477 0.396333 0)
(-0.568264 0.419449 0)
(-0.535836 0.418147 0)
(-0.50244 0.415673 0)
(-0.473875 0.409566 0)
(-0.451009 0.411009 0)
(-0.424799 0.406545 0)
(-0.398001 0.405639 0)
(-0.369214 0.405955 0)
(-0.336931 0.405058 0)
(-0.305258 0.406865 0)
(-0.271573 0.407826 0)
(-0.238426 0.409768 0)
(-0.205122 0.41159 0)
(-0.172275 0.413572 0)
(-0.139211 0.41547 0)
(-0.104178 0.417181 0)
(-0.0656868 0.417942 0)
(-0.0191498 0.422008 0)
(0.019433 0.421864 0)
(0.0662203 0.417624 0)
(0.10514 0.416502 0)
(0.140749 0.414362 0)
(0.174518 0.411892 0)
(0.208217 0.409182 0)
(0.242594 0.406463 0)
(0.276994 0.403311 0)
(0.312582 0.400977 0)
(0.346083 0.396804 0)
(0.382364 0.395715 0)
(0.41327 0.39032 0)
(0.447604 0.389834 0)
(0.47437 0.38409 0)
(0.50515 0.383427 0)
(0.529607 0.377265 0)
(0.561827 0.378991 0)
(0.585861 0.376794 0)
(0.649684 0.362364 0)
(1.14384 0.400086 0)
(-1.14065 0.451547 0)
(-0.641946 0.42113 0)
(-0.566593 0.442366 0)
(-0.536313 0.443378 0)
(-0.502186 0.439796 0)
(-0.474502 0.436088 0)
(-0.451765 0.437697 0)
(-0.424227 0.433387 0)
(-0.398441 0.435334 0)
(-0.366995 0.434095 0)
(-0.336158 0.436011 0)
(-0.302937 0.43705 0)
(-0.26982 0.439006 0)
(-0.236247 0.440906 0)
(-0.202987 0.442992 0)
(-0.170059 0.445075 0)
(-0.137113 0.447093 0)
(-0.102451 0.448907 0)
(-0.0645347 0.449799 0)
(-0.0187584 0.454179 0)
(0.0188699 0.454097 0)
(0.0648415 0.449583 0)
(0.10309 0.448411 0)
(0.138204 0.446233 0)
(0.171716 0.443708 0)
(0.205344 0.440965 0)
(0.239462 0.438042 0)
(0.274089 0.435066 0)
(0.308587 0.431812 0)
(0.343329 0.428773 0)
(0.377127 0.42523 0)
(0.409872 0.421689 0)
(0.442541 0.419257 0)
(0.469369 0.413409 0)
(0.500407 0.412759 0)
(0.52454 0.406266 0)
(0.557758 0.407437 0)
(0.581759 0.404351 0)
(0.644795 0.389888 0)
(1.12341 0.429399 0)
(-1.11739 0.506268 0)
(-0.640467 0.455785 0)
(-0.567785 0.472864 0)
(-0.539176 0.474378 0)
(-0.504479 0.469438 0)
(-0.477985 0.466828 0)
(-0.454474 0.467467 0)
(-0.426813 0.464138 0)
(-0.399943 0.465521 0)
(-0.36804 0.465044 0)
(-0.336228 0.466611 0)
(-0.302393 0.467575 0)
(-0.268747 0.469416 0)
(-0.234761 0.471215 0)
(-0.201166 0.473274 0)
(-0.168 0.475357 0)
(-0.135019 0.477412 0)
(-0.100648 0.479273 0)
(-0.0632892 0.480273 0)
(-0.0183207 0.484915 0)
(0.0183275 0.484882 0)
(0.0634366 0.480144 0)
(0.101029 0.478945 0)
(0.135732 0.476797 0)
(0.169144 0.474323 0)
(0.202857 0.47167 0)
(0.237148 0.468882 0)
(0.271917 0.466086 0)
(0.306805 0.463208 0)
(0.341404 0.460208 0)
(0.376353 0.457742 0)
(0.407935 0.453251 0)
(0.442171 0.452323 0)
(0.46824 0.446247 0)
(0.500101 0.446325 0)
(0.52462 0.440579 0)
(0.559191 0.442493 0)
(0.583597 0.439912 0)
(0.645411 0.427559 0)
(1.10016 0.480999 0)
(-1.09508 0.53565 0)
(-0.636265 0.479098 0)
(-0.567093 0.49472 0)
(-0.540049 0.495961 0)
(-0.504988 0.489827 0)
(-0.478824 0.48894 0)
(-0.453925 0.489172 0)
(-0.424897 0.486315 0)
(-0.397518 0.489003 0)
(-0.364612 0.488989 0)
(-0.332412 0.4915 0)
(-0.29862 0.493441 0)
(-0.265013 0.496037 0)
(-0.231307 0.498632 0)
(-0.197935 0.501319 0)
(-0.165015 0.503918 0)
(-0.13233 0.506324 0)
(-0.0984604 0.508391 0)
(-0.0618215 0.509578 0)
(-0.0178047 0.514453 0)
(0.0177602 0.514452 0)
(0.0618677 0.509516 0)
(0.0986544 0.508201 0)
(0.132745 0.505926 0)
(0.165735 0.5032 0)
(0.199044 0.50014 0)
(0.23295 0.496877 0)
(0.267146 0.493398 0)
(0.301833 0.49008 0)
(0.335623 0.486137 0)
(0.370869 0.483499 0)
(0.401858 0.478498 0)
(0.436287 0.477146 0)
(0.462179 0.47093 0)
(0.494693 0.47096 0)
(0.519229 0.465149 0)
(0.554818 0.467034 0)
(0.579239 0.464179 0)
(0.640068 0.452218 0)
(1.07804 0.505704 0)
(-1.06476 0.588034 0)
(-0.633602 0.513641 0)
(-0.568226 0.524212 0)
(-0.542637 0.524569 0)
(-0.507849 0.517502 0)
(-0.483108 0.51769 0)
(-0.455257 0.516193 0)
(-0.427093 0.514802 0)
(-0.398235 0.516994 0)
(-0.365281 0.517364 0)
(-0.332727 0.519966 0)
(-0.29858 0.522029 0)
(-0.26457 0.524631 0)
(-0.230489 0.527311 0)
(-0.196754 0.53007 0)
(-0.163511 0.532691 0)
(-0.130604 0.535021 0)
(-0.0968044 0.536983 0)
(-0.0605597 0.538125 0)
(-0.0173506 0.543111 0)
(0.0172922 0.543128 0)
(0.0605515 0.538108 0)
(0.0968771 0.536897 0)
(0.130812 0.5348 0)
(0.16393 0.532249 0)
(0.197452 0.529283 0)
(0.231613 0.526094 0)
(0.266038 0.522683 0)
(0.301019 0.519595 0)
(0.33497 0.515779 0)
(0.370302 0.513399 0)
(0.401309 0.508685 0)
(0.436181 0.507883 0)
(0.462149 0.502282 0)
(0.49583 0.503381 0)
(0.520642 0.498737 0)
(0.556809 0.501118 0)
(0.580887 0.49871 0)
(0.639772 0.489573 0)
(1.04932 0.557189 0)
(-1.04087 0.607118 0)
(-0.630698 0.534177 0)
(-0.569043 0.545059 0)
(-0.544819 0.545112 0)
(-0.509482 0.538016 0)
(-0.484661 0.539254 0)
(-0.453271 0.536479 0)
(-0.425354 0.537496 0)
(-0.394167 0.538616 0)
(-0.36125 0.540096 0)
(-0.327848 0.542417 0)
(-0.293229 0.544661 0)
(-0.258745 0.547405 0)
(-0.22436 0.550395 0)
(-0.190572 0.553646 0)
(-0.157679 0.556931 0)
(-0.125561 0.560031 0)
(-0.0929046 0.562736 0)
(-0.05813 0.564659 0)
(-0.0165359 0.570138 0)
(0.0164832 0.570162 0)
(0.0580981 0.564668 0)
(0.0929028 0.562716 0)
(0.12562 0.559933 0)
(0.15784 0.55669 0)
(0.190869 0.553165 0)
(0.2249 0.549611 0)
(0.259416 0.546059 0)
(0.294577 0.542972 0)
(0.32875 0.539301 0)
(0.364326 0.537173 0)
(0.395186 0.532297 0)
(0.43068 0.53194 0)
(0.45659 0.526257 0)
(0.491534 0.527686 0)
(0.516595 0.523244 0)
(0.553708 0.525587 0)
(0.577182 0.522831 0)
(0.634476 0.512919 0)
(1.02631 0.575655 0)
(-1.00253 0.651271 0)
(-0.625994 0.564056 0)
(-0.56925 0.572343 0)
(-0.547197 0.573922 0)
(-0.512702 0.568487 0)
(-0.488478 0.569954 0)
(-0.455136 0.566575 0)
(-0.428961 0.568708 0)
(-0.394956 0.567729 0)
(-0.363782 0.56931 0)
(-0.328995 0.569888 0)
(-0.294748 0.57111 0)
(-0.259991 0.572682 0)
(-0.225518 0.574768 0)
(-0.191675 0.577581 0)
(-0.158548 0.580684 0)
(-0.125898 0.583536 0)
(-0.0929177 0.58598 0)
(-0.0579796 0.58747 0)
(-0.0165596 0.59258 0)
(0.0165236 0.592601 0)
(0.0579454 0.587488 0)
(0.0928874 0.585996 0)
(0.125893 0.583524 0)
(0.1586 0.580603 0)
(0.191807 0.577362 0)
(0.225807 0.574362 0)
(0.260376 0.571897 0)
(0.295614 0.570106 0)
(0.329665 0.567885 0)
(0.365867 0.567408 0)
(0.39611 0.563657 0)
(0.432473 0.564908 0)
(0.458149 0.560202 0)
(0.493602 0.562271 0)
(0.518679 0.558711 0)
(0.555343 0.560451 0)
(0.577252 0.556467 0)
(0.631739 0.547094 0)
(0.99153 0.622291 0)
(-0.964927 0.637804 0)
(-0.6167 0.570336 0)
(-0.563933 0.586163 0)
(-0.545819 0.591581 0)
(-0.512118 0.587998 0)
(-0.488301 0.590457 0)
(-0.453431 0.587135 0)
(-0.428328 0.590242 0)
(-0.392492 0.588135 0)
(-0.36298 0.590648 0)
(-0.327279 0.589956 0)
(-0.293987 0.59104 0)
(-0.258977 0.591179 0)
(-0.224244 0.591667 0)
(-0.188996 0.592178 0)
(-0.153879 0.593849 0)
(-0.120055 0.596436 0)
(-0.0871342 0.598974 0)
(-0.0536189 0.600848 0)
(-0.014942 0.606249 0)
(0.0149223 0.606264 0)
(0.0535923 0.600865 0)
(0.0870956 0.598997 0)
(0.120011 0.596449 0)
(0.153846 0.59383 0)
(0.188996 0.592081 0)
(0.224323 0.591452 0)
(0.259105 0.590725 0)
(0.294375 0.590398 0)
(0.327546 0.588677 0)
(0.363986 0.589236 0)
(0.393091 0.585427 0)
(0.429938 0.587289 0)
(0.455103 0.582631 0)
(0.490935 0.584481 0)
(0.515635 0.580384 0)
(0.551167 0.580593 0)
(0.569482 0.57267 0)
(0.62062 0.556395 0)
(0.957375 0.615111 0)
(-0.956419 0.622722 0)
(-0.597557 0.605946 0)
(-0.553191 0.628486 0)
(-0.541817 0.638364 0)
(-0.506151 0.639244 0)
(-0.48208 0.644101 0)
(-0.443628 0.643525 0)
(-0.417645 0.648481 0)
(-0.37912 0.647848 0)
(-0.349597 0.652 0)
(-0.31194 0.652364 0)
(-0.27888 0.65494 0)
(-0.242846 0.655937 0)
(-0.208559 0.657356 0)
(-0.174209 0.657765 0)
(-0.14179 0.657875 0)
(-0.109449 0.657962 0)
(-0.0769581 0.658673 0)
(-0.0455847 0.660351 0)
(-0.012242 0.665515 0)
(0.0122338 0.665525 0)
(0.0455705 0.660366 0)
(0.0769332 0.6587 0)
(0.109412 0.657994 0)
(0.141746 0.657901 0)
(0.17416 0.657762 0)
(0.208518 0.657303 0)
(0.242772 0.655769 0)
(0.278895 0.65468 0)
(0.311733 0.651765 0)
(0.349747 0.651323 0)
(0.378701 0.646484 0)
(0.417686 0.64696 0)
(0.443172 0.641243 0)
(0.481836 0.640974 0)
(0.505708 0.635289 0)
(0.542113 0.632435 0)
(0.552715 0.621281 0)
(0.597985 0.597252 0)
(0.952972 0.602801 0)
(-1.02246 1.02599 0)
(-0.607195 0.951465 0)
(-0.611167 0.960135 0)
(-0.617556 0.994224 0)
(-0.56821 1.03053 0)
(-0.54975 1.05416 0)
(-0.496034 1.08366 0)
(-0.470164 1.10645 0)
(-0.416491 1.13 0)
(-0.385662 1.15095 0)
(-0.333917 1.16954 0)
(-0.298683 1.18775 0)
(-0.250937 1.20225 0)
(-0.212984 1.21687 0)
(-0.169573 1.22822 0)
(-0.13087 1.23903 0)
(-0.0928089 1.24751 0)
(-0.0590346 1.25373 0)
(-0.0308801 1.25739 0)
(-0.00767003 1.26129 0)
(0.00767082 1.26129 0)
(0.0308784 1.25739 0)
(0.0590303 1.25373 0)
(0.0928002 1.24751 0)
(0.130855 1.23904 0)
(0.169551 1.22823 0)
(0.212952 1.21688 0)
(0.250897 1.20227 0)
(0.298639 1.18776 0)
(0.33386 1.16955 0)
(0.385627 1.15096 0)
(0.416427 1.13 0)
(0.470155 1.10644 0)
(0.496014 1.08361 0)
(0.549841 1.05406 0)
(0.568391 1.03034 0)
(0.618168 0.993795 0)
(0.611901 0.959262 0)
(0.608343 0.950138 0)
(1.02232 1.02592 0)
(-1.02246 -1.02599 0)
(-0.607195 -0.951465 0)
(-0.611167 -0.960135 0)
(-0.617556 -0.994224 0)
(-0.56821 -1.03053 0)
(-0.54975 -1.05416 0)
(-0.496034 -1.08366 0)
(-0.470164 -1.10645 0)
(-0.416491 -1.13 0)
(-0.385662 -1.15095 0)
(-0.333917 -1.16954 0)
(-0.298683 -1.18775 0)
(-0.250937 -1.20225 0)
(-0.212984 -1.21687 0)
(-0.169573 -1.22822 0)
(-0.13087 -1.23903 0)
(-0.0928089 -1.24751 0)
(-0.0590346 -1.25373 0)
(-0.0308801 -1.25739 0)
(-0.00767003 -1.26129 0)
(0.00767082 -1.26129 0)
(0.0308784 -1.25739 0)
(0.0590303 -1.25373 0)
(0.0928002 -1.24751 0)
(0.130855 -1.23904 0)
(0.169551 -1.22823 0)
(0.212952 -1.21688 0)
(0.250897 -1.20227 0)
(0.298639 -1.18776 0)
(0.33386 -1.16955 0)
(0.385627 -1.15096 0)
(0.416427 -1.13 0)
(0.470155 -1.10644 0)
(0.496014 -1.08361 0)
(0.549841 -1.05406 0)
(0.568391 -1.03034 0)
(0.618168 -0.993795 0)
(0.611901 -0.959262 0)
(0.608343 -0.950138 0)
(1.02232 -1.02592 0)
(-0.956419 -0.622722 0)
(-0.597557 -0.605946 0)
(-0.553191 -0.628486 0)
(-0.541817 -0.638364 0)
(-0.506151 -0.639244 0)
(-0.48208 -0.644101 0)
(-0.443628 -0.643525 0)
(-0.417645 -0.648481 0)
(-0.37912 -0.647848 0)
(-0.349597 -0.652 0)
(-0.31194 -0.652364 0)
(-0.27888 -0.65494 0)
(-0.242846 -0.655937 0)
(-0.208559 -0.657356 0)
(-0.174209 -0.657765 0)
(-0.14179 -0.657875 0)
(-0.109449 -0.657962 0)
(-0.0769581 -0.658673 0)
(-0.0455847 -0.660351 0)
(-0.012242 -0.665515 0)
(0.0122338 -0.665525 0)
(0.0455705 -0.660366 0)
(0.0769332 -0.6587 0)
(0.109412 -0.657994 0)
(0.141746 -0.657901 0)
(0.17416 -0.657762 0)
(0.208518 -0.657303 0)
(0.242772 -0.655769 0)
(0.278895 -0.65468 0)
(0.311733 -0.651765 0)
(0.349747 -0.651323 0)
(0.378701 -0.646484 0)
(0.417686 -0.64696 0)
(0.443172 -0.641243 0)
(0.481836 -0.640974 0)
(0.505708 -0.635289 0)
(0.542113 -0.632435 0)
(0.552715 -0.621281 0)
(0.597985 -0.597252 0)
(0.952972 -0.602801 0)
(-0.964927 -0.637804 0)
(-0.6167 -0.570336 0)
(-0.563933 -0.586163 0)
(-0.545819 -0.591581 0)
(-0.512118 -0.587998 0)
(-0.488301 -0.590457 0)
(-0.453431 -0.587135 0)
(-0.428328 -0.590242 0)
(-0.392492 -0.588135 0)
(-0.36298 -0.590648 0)
(-0.327279 -0.589956 0)
(-0.293987 -0.59104 0)
(-0.258977 -0.591179 0)
(-0.224244 -0.591667 0)
(-0.188996 -0.592178 0)
(-0.153879 -0.593849 0)
(-0.120055 -0.596436 0)
(-0.0871342 -0.598974 0)
(-0.0536189 -0.600848 0)
(-0.014942 -0.606249 0)
(0.0149223 -0.606264 0)
(0.0535923 -0.600865 0)
(0.0870956 -0.598997 0)
(0.120011 -0.596449 0)
(0.153846 -0.59383 0)
(0.188996 -0.592081 0)
(0.224323 -0.591452 0)
(0.259105 -0.590725 0)
(0.294375 -0.590398 0)
(0.327546 -0.588677 0)
(0.363986 -0.589236 0)
(0.393091 -0.585427 0)
(0.429938 -0.587289 0)
(0.455103 -0.582631 0)
(0.490935 -0.584481 0)
(0.515635 -0.580384 0)
(0.551167 -0.580593 0)
(0.569482 -0.57267 0)
(0.62062 -0.556395 0)
(0.957375 -0.615111 0)
(-1.00253 -0.651271 0)
(-0.625994 -0.564056 0)
(-0.56925 -0.572343 0)
(-0.547197 -0.573922 0)
(-0.512702 -0.568487 0)
(-0.488478 -0.569954 0)
(-0.455136 -0.566575 0)
(-0.428961 -0.568708 0)
(-0.394956 -0.567729 0)
(-0.363782 -0.56931 0)
(-0.328995 -0.569888 0)
(-0.294748 -0.57111 0)
(-0.259991 -0.572682 0)
(-0.225518 -0.574768 0)
(-0.191675 -0.577581 0)
(-0.158548 -0.580684 0)
(-0.125898 -0.583536 0)
(-0.0929177 -0.58598 0)
(-0.0579796 -0.58747 0)
(-0.0165596 -0.59258 0)
(0.0165236 -0.592601 0)
(0.0579454 -0.587488 0)
(0.0928874 -0.585996 0)
(0.125893 -0.583524 0)
(0.1586 -0.580603 0)
(0.191807 -0.577362 0)
(0.225807 -0.574362 0)
(0.260376 -0.571897 0)
(0.295614 -0.570106 0)
(0.329665 -0.567885 0)
(0.365867 -0.567408 0)
(0.39611 -0.563657 0)
(0.432473 -0.564908 0)
(0.458149 -0.560202 0)
(0.493602 -0.562271 0)
(0.518679 -0.558711 0)
(0.555343 -0.560451 0)
(0.577252 -0.556467 0)
(0.631739 -0.547094 0)
(0.99153 -0.622291 0)
(-1.04087 -0.607118 0)
(-0.630698 -0.534177 0)
(-0.569043 -0.545059 0)
(-0.544819 -0.545112 0)