/*--------------------------------*- C++ -*----------------------------------*\
| =========                 |                                                 |
| \\      /  F ield         | OpenFOAM: The Open Source CFD Toolbox           |
|  \\    /   O peration     | Version:  v1912                                 |
|   \\  /    A nd           | Website:  www.openfoam.com                      |
|    \\/     M anipulation  |                                                 |
\*---------------------------------------------------------------------------*/
FoamFile
{
    version     2.0;
    format      ascii;
    class       volScalarField;
    location    "7.64";
    object      p;
}
// * * * * * * * * * * * * * * * * * * * * * * * * * * * * * * * * * * * * * //

dimensions      [1 -1 -2 0 0 0 0];


internalField   nonuniform List<scalar> 
1900
(
20690.9
9004.98
8575.92
8542.79
8498.46
8472.03
8427.73
8381.81
8350.45
8324.31
20690.9
9005.1
8575.98
8542.82
8498.33
8472.46
8428.48
8382.51
8359.39
8328.35
20690.8
9005.18
8576.01
8542.85
8498.31
8472.75
8428.43
8381.7
8351.3
8314.5
20690.9
9005.1
8575.98
8542.82
8498.33
8472.46
8428.48
8382.51
8359.39
8328.35
20690.9
9004.98
8575.92
8542.79
8498.46
8472.03
8427.73
8381.81
8350.45
8324.31
8432.69
8276.7
8212.47
8047.09
8292.89
8298.75
8193.97
8135.85
7971.39
7865.49
8268.16
8175.77
8122.74
7992.19
7898.18
8298.75
8193.97
8135.85
7971.39
7865.49
8432.69
8276.7
8212.47
8047.09
8292.89
3494.12
2035.58
1430.99
1111.54
851.622
3947.61
2244.76
1542.52
1198.18
910.817
4054.98
2205.19
1495.01
1164.43
867.513
3947.61
2244.76
1542.52
1198.18
910.817
3494.12
2035.58
1430.99
1111.54
851.622
864.061
867.597
826.489
788.742
744.42
657.87
585.636
601.462
870.348
1285.77
1356.29
1338.3
1326.46
1304.26
1237.52
1116.57
972.147
822.004
667.987
501.719
368.298
312.746
296.255
286.941
278.665
271.874
267.557
266.01
266.485
267.72
268.855
276.567
315.992
471.202
627.872
708.404
774.237
837.102
898.811
952.074
809.999
829.717
834.134
807.956
758.092
657.209
576.597
591.905
862.78
1286.78
1353.81
1336.27
1326.35
1306.09
1241.63
1118.52
974.326
825.942
671.754
503.791
368.874
312.783
296.236
286.94
278.659
271.845
267.518
265.971
266.449
267.689
268.824
276.545
315.94
471.194
627.886
708.348
774.281
837.017
898.685
952.089
801.086
807.452
820.228
810.281
773.043
663.975
581.024
593.275
850.443
1291.01
1354.94
1335.36
1324.72
1307.25
1256.04
1143.5
984.452
827.616
671.094
503.403
368.964
312.819
296.235
286.941
278.659
271.837
267.504
265.957
266.436
267.678
268.814
276.537
315.923
471.197
627.884
708.323
774.288
837.018
898.641
952.008
809.999
829.717
834.134
807.956
758.092
657.209
576.597
591.905
862.78
1286.78
1353.81
1336.27
1326.35
1306.09
1241.63
1118.52
974.326
825.942
671.754
503.791
368.874
312.783
296.236
286.94
278.659
271.845
267.518
265.971
266.449
267.689
268.824
276.545
315.94
471.194
627.886
708.348
774.281
837.017
898.685
952.089
864.061
867.597
826.489
788.742
744.42
657.87
585.636
601.462
870.348
1285.77
1356.29
1338.3
1326.46
1304.26
1237.52
1116.57
972.147
822.004
667.987
501.719
368.298
312.746
296.255
286.941
278.665
271.874
267.557
266.01
266.485
267.72
268.855
276.567
315.992
471.202
627.872
708.404
774.237
837.102
898.811
952.074
956.971
873.537
795.628
749.809
708.295
641.406
590.958
618.507
926.491
1257.84
1326.44
1313.33
1302.44
1284.31
1225.02
1110.52
964.132
814.129
661.649
496.708
365.898
312.453
296.327
286.942
278.703
271.996
267.728
266.195
266.654
267.862
268.981
276.682
316.134
471.097
627.634
708.321
774.066
837.201
898.964
952.349
962.227
871.049
779.662
708.318
654.527
610.308
601.196
672.648
992.96
1226
1283.25
1277.2
1267.73
1238.07
1168.29
1056.76
922.985
786.502
641.522
481.668
359.573
311.688
296.461
286.973
278.789
272.261
268.127
266.638
267.06
268.205
269.272
276.964
316.433
470.912
627.243
707.969
774.407
837.411
899.004
952.323
972.258
928.603
876.734
804.335
730.476
676.329
677.383
811.621
1050.18
1199.1
1215.93
1207.81
1197.92
1160.45
1093.32
993.01
874.857
751.244
612.547
459.721
351.08
310.733
296.64
287.095
278.989
272.683
268.731
267.317
267.698
268.757
269.745
277.413
316.897
470.774
626.895
707.507
774.798
837.635
899.774
952.942
970.811
907.804
843.917
773.09
711.492
732.457
781.873
870.382
1036.94
1127.33
1135.01
1152.58
1129.5
1083.89
1016.93
926.541
822.407
709.328
575.951
433.409
342.145
309.889
296.863
287.296
279.307
273.263
269.525
268.207
268.548
269.509
270.4
278.045
317.58
470.962
627.041
707.485
775.459
838.213
900.893
953.813
966.69
898.587
840.588
790.209
767.439
794.616
846.713
930.706
1024.18
1043.21
1082.05
1081.69
1047.62
1005.99
943.85
860.834
767.119
661.824
533.556
405.606
334.06
309.2
297.05
287.52
279.707
273.969
270.479
269.276
269.582
270.442
271.219
278.842
318.32
470.921
626.889
707.173
775.764
838.907
901.937
954.644
967.562
906.34
863.797
837.477
833.497
849.574
883.971
942.825
965.407
991.393
1013.84
999.717
977.287
935.093
872.164
795.342
711.13
611.322
488.332
379.774
327.994
308.877
297.287
287.844
280.284
274.896
271.677
270.602
270.88
271.644
272.32
279.94
319.605
471.799
627.625
707.661
776.748
840.346
903.448
955.633
969.251
921.211
895.614
880.135
870.112
870.655
890.962
900.599
900.206
935.138
948.377
937.317
908.317
862.625
800.946
732.473
656
558.515
443.403
359.059
324.033
308.644
297.474
288.235
281.006
276.008
273.082
272.142
272.4
273.077
273.645
281.266
320.779
472.089
627.937
707.826
777.313
841.524
904.666
956.247
977.882
943.547
925.84
898.637
868.46
850.626
840.449
833.297
869.007
897.824
887.15
869.932
838.085
789.679
734.372
674.832
601.829
504.023
403.276
345.432
322.261
308.903
297.997
289.052
282.222
277.622
274.972
274.143
274.373
274.96
275.441
283.097
322.814
473.648
629.162
708.56
778.429
843.239
906.253
957.096
969.776
932.716
888.814
848.424
821.163
806.192
804.422
826.607
839.963
833.285
825.542
803.091
765.923
721.842
675.776
621.673
546.741
450.952
373.566
338.142
321.542
309.264
298.631
290.055
283.64
279.436
277.051
276.311
276.52
277.042
277.47
285.169
324.716
474.509
629.972
709.254
779.729
845.131
907.948
957.814
940.418
916.993
862.328
844.727
822.302
803.672
800.372
789.448
786.571
779.944
763.615
734.897
699.597
663.707
623.497
568.148
488.877
405.626
356.408
335.053
321.519
309.692
299.365
291.21
285.212
281.356
279.183
278.485
278.662
279.137
279.567
287.382
327.101
476.124
631.152
710.2
781.623
847.769
910.346
959.127
979.831
944.821
904.206
870.616
831.613
797.989
770.315
753.36
740.377
723.829
699.592
669.902
641.692
613.319
574.134
513.594
435.7
376.361
348.515
333.376
321.098
309.741
300.082
292.575
287.163
283.8
281.933
281.383
281.618
282.2
282.707
290.743
330.338
479.372
636.031
714.516
785.168
851.32
913.085
960.113
988.323
944.467
908.597
872.137
841.458
794.992
749.172
714.627
688.967
664.764
639.34
616.8
596.65
569.013
523.666
459.989
399.717
366.731
350.751
339.127
327.985
317.645
309.166
302.753
298.285
295.672
294.326
294.096
294.546
295.374
296.067
304.763
346.181
500.069
660.783
737.972
806.644
865.882
920.032
962.16
991.221
952.669
923.664
894.66
866.604
801.23
731.898
676.306
640.53
616.1
597.762
584.614
570.49
544.393
496.752
439.781
402.054
386.918
379.724
372.811
365.54
359.072
354.225
351.127
349.538
349.558
349.893
351.626
353.49
355.66
356.723
368.023
418.873
595.45
761.902
817.925
864.269
903.891
939.197
965.284
1000.53
970.248
951.237
930.387
898.042
823.69
730.654
657.529
623.813
614.287
615.853
620.575
613.75
586.172
547.618
521.704
514.409
514.924
515.596
513.814
510.097
506.297
503.291
501.72
501.267
502.554
503.776
506.577
508.757
511.137
512.408
527.622
594.126
790.401
951.72
981.944
999.477
999.909
991.446
976.167
1019.55
1001.14
1012.58
1025.55
1014.11
962.164
852.803
765.099
741.122
750.175
765.273
772.502
756.724
722.262
689.934
677.051
676.179
675.719
672.31
665.815
657.831
650.38
644.369
640.59
638.499
638.508
638.915
640.609
641.926
643.359
644.939
662.44
729.931
917.546
1076.32
1110.18
1123.9
1111.01
1069.49
1003.12
1038.21
1076.11
1145.84
1197.22
1226.52
1201.31
1070.45
943.937
903.183
895.262
882.653
856.536
815.787
782.153
765.533
762.019
761.397
758.435
752.385
743.54
734.134
726.056
720.017
716.093
713.453
712.681
712.411
713.001
713.493
714.077
714.829
731.148
782.931
937.385
1092
1138.61
1158.76
1158.55
1117.89
1029.17
1043.47
1124.89
1225.65
1291.91
1317.97
1282.07
1141.51
1010.27
954.767
927.24
898.817
868.938
842.316
828.947
825.328
825.668
824.627
820.448
812.653
803.127
794.377
787.723
783.445
780.906
779.414
779.389
779.497
780.38
781.321
782.568
783.451
797.804
836.552
954.668
1097.2
1151.95
1168.22
1160.69
1110.41
1023.63
1036.81
1124.28
1210.08
1246.06
1267.85
1229.2
1113.26
1005.84
951.1
921.017
896.401
879.191
870.157
869.843
873.073
875.976
876.123
872.98
867.141
860.196
854.384
849.817
846.809
845.042
844.233
844.815
845.458
846.872
848.274
850.111
851.929
860.475
889.526
966.472
1084.41
1150.83
1159.51
1155.9
1093.88
994.998
1134.72
964.123
1121.45
1156.22
1186.77
1159.74
1076.49
1002.37
961.888
941.405
926.089
918.481
916.966
919.779
923.906
926.416
926.305
923.753
919.459
915.028
912.458
910.412
909.226
909.064
909.324
910.275
910.884
911.92
912.878
914.325
915.819
920.181
933.625
974.553
1050.64
1111.54
1111.34
1097.52
937.859
966.528
8175.87
962.545
1003.84
1047.31
1056.34
1037.53
994.692
954.495
936.289
931.782
929.999
934.906
940.673
946.416
950.916
953.931
955.48
955.798
955.235
954.53
954.285
954.199
954.592
955.381
956.344
957.513
958.239
959.191
959.87
960.959
961.692
963.432
965.777
974.321
996.325
1025.93
1024.59
1001.69
962.649
5110.41
8175.87
962.545
1003.84
1047.31
1056.34
1037.53
994.692
954.495
936.289
931.782
929.999
934.906
940.673
946.416
950.916
953.931
955.48
955.798
955.235
954.53
954.285
954.199
954.592
955.381
956.344
957.513
958.239
959.191
959.87
960.959
961.692
963.432
965.777
974.321
996.325
1025.93
1024.59
1001.69
962.649
5110.41
1134.72
964.123
1121.45
1156.22
1186.77
1159.74
1076.49
1002.37
961.888
941.405
926.089
918.481
916.966
919.779
923.906
926.416
926.305
923.753
919.459
915.028
912.458
910.412
909.226
909.064
909.324
910.275
910.884
911.92
912.878
914.325
915.819
920.181
933.625
974.553
1050.64
1111.54
1111.34
1097.52
937.859
966.528
1036.81
1124.28
1210.08
1246.06
1267.85
1229.2
1113.26
1005.84
951.1
921.017
896.401
879.191
870.157
869.843
873.073
875.976
876.123
872.98
867.141
860.196
854.384
849.817
846.809
845.042
844.233
844.815
845.458
846.872
848.274
850.111
851.929
860.475
889.526
966.472
1084.41
1150.83
1159.51
1155.9
1093.88
994.998
1043.47
1124.89
1225.65
1291.91
1317.97
1282.07
1141.51
1010.27
954.767
927.24
898.817
868.938
842.316
828.947
825.328
825.668
824.627
820.448
812.653
803.127
794.377
787.723
783.445
780.906
779.414
779.389
779.497
780.38
781.321
782.568
783.451
797.804
836.552
954.668
1097.2
1151.95
1168.22
1160.69
1110.41
1023.63
1038.21
1076.11
1145.84
1197.22
1226.52
1201.31
1070.45
943.937
903.183
895.262
882.653
856.536
815.787
782.153
765.533
762.019
761.397
758.435
752.385
743.54
734.134
726.056
720.017
716.093
713.453
712.681
712.411
713.001
713.493
714.077
714.829
731.148
782.931
937.385
1092
1138.61
1158.76
1158.55
1117.89
1029.17
1019.55
1001.14
1012.58
1025.55
1014.11
962.164
852.803
765.099
741.122
750.175
765.273
772.502
756.724
722.262
689.934
677.051
676.179
675.719
672.31
665.815
657.831
650.38
644.369
640.59
638.499
638.508
638.915
640.609
641.926
643.359
644.939
662.44
729.931
917.546
1076.32
1110.18
1123.9
1111.01
1069.49
1003.12
1000.53
970.248
951.237
930.387
898.042
823.69
730.654
657.529
623.813
614.287
615.853
620.575
613.75
586.172
547.618
521.704
514.409
514.924
515.596
513.814
510.097
506.297
503.291
501.72
501.267
502.554
503.776
506.577
508.757
511.137
512.408
527.622
594.126
790.401
951.72
981.944
999.477
999.909
991.446
976.167
991.221
952.669
923.664
894.66
866.604
801.23
731.898
676.306
640.53
616.1
597.762
584.614
570.49
544.393
496.752
439.781
402.054
386.918
379.724
372.811
365.54
359.072
354.225
351.127
349.538
349.558
349.893
351.626
353.49
355.66
356.723
368.023
418.873
595.45
761.902
817.925
864.269
903.891
939.197
965.284
988.323
944.467
908.597
872.137
841.458
794.992
749.172
714.627
688.967
664.764
639.34
616.8
596.65
569.013
523.666
459.989
399.717
366.731
350.751
339.127
327.985
317.645
309.166
302.753
298.285
295.672
294.326
294.096
294.546
295.374
296.067
304.763
346.181
500.069
660.783
737.972
806.644
865.882
920.032
962.16
979.831
944.821
904.206
870.616
831.613
797.989
770.315
753.36
740.377
723.829
699.592
669.902
641.692
613.319
574.134
513.594
435.7
376.361
348.515
333.376
321.098
309.741
300.082
292.575
287.163
283.8
281.933
281.383
281.618
282.2
282.707
290.743
330.338
479.372
636.031
714.516
785.168
851.32
913.085
960.113
940.418
916.993
862.328
844.727
822.302
803.672
800.372
789.448
786.571
779.944
763.615
734.897
699.597
663.707
623.497
568.148
488.877
405.626
356.408
335.053
321.519
309.692
299.365
291.21
285.212
281.356
279.183
278.485
278.662
279.137
279.567
287.382
327.101
476.124
631.152
710.2
781.623
847.769
910.346
959.127
969.776
932.716
888.814
848.424
821.163
806.192
804.422
826.607
839.963
833.285
825.542
803.091
765.923
721.842
675.776
621.673
546.741
450.952
373.566
338.142
321.542
309.264
298.631
290.055
283.64
279.436
277.051
276.311
276.52
277.042
277.47
285.169
324.716
474.509
629.972
709.254
779.729
845.131
907.948
957.814
977.882
943.547
925.84
898.637
868.46
850.626
840.449
833.297
869.007
897.824
887.15
869.932
838.085
789.679
734.372
674.832
601.829
504.023
403.276
345.432
322.261
308.903
297.997
289.052
282.222
277.622
274.972
274.143
274.373
274.96
275.441
283.097
322.814
473.648
629.162
708.56
778.429
843.239
906.253
957.096
969.251
921.211
895.614
880.135
870.112
870.655
890.962
900.599
900.206
935.138
948.377
937.317
908.317
862.625
800.946
732.473
656
558.515
443.403
359.059
324.033
308.644
297.474
288.235
281.006
276.008
273.082
272.142
272.4
273.077
273.645
281.266
320.779
472.089
627.937
707.826
777.313
841.524
904.666
956.247
967.562
906.34
863.797
837.477
833.497
849.574
883.971
942.825
965.407
991.393
1013.84
999.717
977.287
935.093
872.164
795.342
711.13
611.322
488.332
379.774
327.994
308.877
297.287
287.844
280.284
274.896
271.677
270.602
270.88
271.644
272.32
279.94
319.605
471.799
627.625
707.661
776.748
840.346
903.448
955.633
966.69
898.587
840.588
790.209
767.439
794.616
846.713
930.706
1024.18
1043.21
1082.05
1081.69
1047.62
1005.99
943.85
860.834
767.119
661.824
533.556
405.606
334.06
309.2
297.05
287.52
279.707
273.969
270.479
269.276
269.582
270.442
271.219
278.842
318.32
470.921
626.889
707.173
775.764
838.907
901.937
954.644
970.811
907.804
843.917
773.09
711.492
732.457
781.873
870.382
1036.94
1127.33
1135.01
1152.58
1129.5
1083.89
1016.93
926.541
822.407
709.328
575.951
433.409
342.145
309.889
296.863
287.296
279.307
273.263
269.525
268.207
268.548
269.509
270.4
278.045
317.58
470.962
627.041
707.485
775.459
838.213
900.893
953.813
972.258
928.603
876.734
804.335
730.476
676.329
677.383
811.621
1050.18
1199.1
1215.93
1207.81
1197.92
1160.45
1093.32
993.01
874.857
751.244
612.547
459.721
351.08
310.733
296.64
287.095
278.989
272.683
268.731
267.317
267.698
268.757
269.745
277.413
316.897
470.774
626.895
707.507
774.798
837.635
899.774
952.942
962.227
871.049
779.662
708.318
654.527
610.308
601.196
672.648
992.96
1226
1283.25
1277.2
1267.73
1238.07
1168.29
1056.76
922.985
786.502
641.522
481.668
359.573
311.688
296.461
286.973
278.789
272.261
268.127
266.638
267.06
268.205
269.272
276.964
316.433
470.912
627.243
707.969
774.407
837.411
899.004
952.323
956.971
873.537
795.628
749.809
708.295
641.406
590.958
618.507
926.491
1257.84
1326.44
1313.33
1302.44
1284.31
1225.02
1110.52
964.132
814.129
661.649
496.708
365.898
312.453
296.327
286.942
278.703
271.996
267.728
266.195
266.654
267.862
268.981
276.682
316.134
471.097
627.634
708.321
774.066
837.201
898.964
952.349
)
;

boundaryField
{
    inlet
    {
        type            fixedValue;
        value           uniform 10000;
    }
    outlet
    {
        type            fixedValue;
        value           uniform 1000;
    }
    obstacle
    {
        type            zeroGradient;
    }
    empty
    {
        type            empty;
    }
}


// ************************************************************************* //
