/*--------------------------------*- C++ -*----------------------------------*\
| =========                 |                                                 |
| \\      /  F ield         | OpenFOAM: The Open Source CFD Toolbox           |
|  \\    /   O peration     | Version:  v1912                                 |
|   \\  /    A nd           | Website:  www.openfoam.com                      |
|    \\/     M anipulation  |                                                 |
\*---------------------------------------------------------------------------*/
FoamFile
{
    version     2.0;
    format      ascii;
    class       volScalarField;
    location    "0.00016";
    object      linearKEMean;
}
// * * * * * * * * * * * * * * * * * * * * * * * * * * * * * * * * * * * * * //

dimensions      [1 -1 -2 0 0 0 0];


internalField   nonuniform List<scalar> 
1300
(
1724.360219
1709.940775
14112.89694
80002.31588
44913.49683
13858.34935
25950.03547
34624.36291
21264.70186
21315.87724
2952.108961
3259.39516
26573.25759
156969.3997
84200.14448
25026.32831
50079.50731
64700.94913
39079.83165
31366.0484
1580.69121
1916.585145
29286.93085
177725.275
98481.32444
29719.05118
70982.73461
104947.6446
63148.04835
52244.29669
1182.455477
1257.123653
27417.5111
170887.347
94477.11281
30694.39826
78219.95399
124151.7617
78425.62388
64940.77229
607.8328508
1072.544051
28579.5629
169987.2943
97465.03166
28333.8989
74915.60974
120852.2394
96003.80547
74498.50672
593.4452441
636.0981107
28446.21478
171749.9014
95614.66224
27426.03824
72939.87611
111613.2574
88507.43763
75374.23616
379.5441803
758.7038287
28566.21635
169138.7387
95438.99433
24330.72479
70116.23342
112708.1038
89470.13909
71330.7833
374.1413038
568.6211606
30354.94967
168665.7497
93442.90095
27601.71495
69810.61445
110980.3852
80249.94259
66539.89852
215.5478228
710.8956882
29593.00294
172828.2094
94478.68162
28936.31049
74221.57447
108176.9576
86018.49626
64753.05646
183.0440601
489.2592566
26706.17918
167329.7227
99623.45703
26709.93426
67431.97994
112897.6218
88649.28823
62272.97019
172.7515289
603.7830354
29622.72863
175297.8165
96576.83901
27939.19119
69472.66632
118607.5366
88524.23234
69051.66448
146.6919077
634.0784225
28596.16097
164808.8551
97101.79918
24341.71931
71577.93271
112261.5686
82443.05436
66937.67633
90.88610145
420.8770393
27851.09523
174316.288
97464.90133
27146.12204
70113.85195
114929.803
83146.18586
68070.74014
122.8276363
390.7673788
28726.94791
173378.122
96149.55724
26136.72558
70317.60316
116431.9267
84900.1963
66044.63195
63.2919878
406.2104433
28847.0619
164679.4196
95172.1326
25450.66272
67598.36667
114817.0138
85639.17533
63762.97214
96.94831298
622.1508131
29606.82023
174035.3153
91871.28935
28670.22823
70846.27888
107511.1067
85890.90471
64955.11702
133.4205774
293.7748047
29508.56122
165577.4108
91665.76217
29013.40751
73520.86508
108213.9195
84417.25517
66511.13032
38.59538822
185.1458166
29076.78282
169614.2117
98152.79824
27527.70381
68731.12644
113474.8244
84260.73689
65356.44408
45.23136574
337.3025647
28873.77754
175975.1859
94991.42201
28912.1351
65640.7888
112311.4451
85157.87925
64039.39704
41.66617847
252.3417445
25520.98597
159864.7198
88986.61778
31053.0352
68468.51409
109120.7791
84822.74002
67711.2419
21386.55472
17784.75476
17378.8512
16900.1623
17127.79218
15329.26109
17459.0472
18014.74856
16194.81431
17589.88863
16112.20872
19002.97294
17005.16591
17106.42439
19349.23644
17940.88381
18905.9519
17989.99045
18841.2346
17116.70269
17998.65125
17951.71674
18153.10931
17978.82359
18865.12778
18090.87149
19170.17778
21949.07487
20620.53176
21119.70606
32589.35332
29307.61774
24625.65561
24723.71133
24648.82854
22283.69803
21184.48698
22182.8187
23042.02447
20589.61788
21325.36187
20140.57159
23832.27458
19862.25485
20821.99498
20336.9752
19200.91908
19466.04613
20497.79638
21153.02368
19585.29882
19566.28053
21333.86606
20410.46382
19441.81142
20973.58279
21495.85237
20286.61117
19763.27408
20566.24362
53705.51289
49835.58654
40294.77875
35267.49929
37255.58724
32810.82397
30023.00874
28097.66385
29329.34318
25089.30904
24907.37542
25448.3196
23921.91878
24292.3718
25626.84841
25085.5608
23643.32912
24414.54262
24007.76079
22400.94761
23366.99599
23290.70478
21506.76633
22228.75755
22059.76016
20124.63355
21585.9098
22218.16846
23595.74879
21982.03164
74618.81807
71598.50847
56528.80248
53929.28836
51370.46503
42715.29803
42321.81656
41280.6862
35960.62403
34971.1723
35370.22948
32196.92723
30785.89363
30759.7702
27580.62041
27349.31123
26817.98318
25797.07451
26994.58061
26423.93061
27324.12778
25493.9386
25225.80419
26860.57827
26758.68091
22837.60473
25307.79731
26886.51474
24211.39485
25220.10557
92815.37822
91260.82555
75905.26317
70840.6025
65207.03902
60802.68351
56657.46118
51790.78071
50627.73373
42185.58462
41409.25743
40975.53057
38228.06327
36712.47819
33861.74018
34606.36936
34496.74879
31935.31313
33424.48597
31105.47182
30883.59956
31512.88474
28866.64211
30092.39665
28052.59678
29415.48658
30209.21862
26646.82169
25154.46328
26336.26329
85613.57548
100863.9047
90138.44135
84852.32469
80933.63585
75697.50462
66865.19968
64158.44297
59117.04021
57528.62917
54918.72097
49958.80509
48228.56836
48627.64763
45220.0451
42030.03443
44043.08983
38003.88867
37528.48882
38208.38139
35692.86977
35442.78375
34997.57204
33969.34599
34442.87974
32901.82765
33246.56403
31933.44684
28837.5715
33409.23803
77291.31017
94925.00502
95078.10985
89918.87506
90034.45112
90101.02704
83181.9653
77113.23768
76027.64325
70872.61372
65078.82218
60216.53675
54975.59226
55751.12075
52734.55861
50633.51057
47035.5908
51554.11031
43699.84757
42247.55146
44724.80369
41973.28227
39768.25114
38259.20826
38136.55911
38376.28471
35757.77574
35761.38794
38357.04334
33515.06779
79450.53251
91705.87988
93292.79435
86618.25949
95529.67565
103310.5259
94690.73466
88252.11328
89488.97806
85715.30444
76696.52515
75398.36016
73157.73057
66887.21972
64039.88791
63993.04777
57830.90795
59473.20131
52671.96909
51482.41571
49472.43332
54194.97555
46910.84461
49792.31775
46221.66065
45411.26496
39946.13878
42253.81143
39576.63468
39310.38619
78462.65641
88605.80734
82015.26952
83574.12049
85057.39585
94518.2215
95164.27058
92687.02051
94650.03446
88238.9386
86348.93994
87357.1306
78240.14364
75630.65687
75993.13197
73645.66522
68749.78835
62230.04627
65771.06126
60493.12437
60044.74617
57466.35758
54060.67168
52856.62869
56341.0051
50465.23697
51805.58129
47320.83874
51756.90569
42963.48414
74068.88791
91374.34177
79924.67919
78041.28898
87322.63265
88055.99427
92403.98043
90884.18048
95141.17364
102375.1078
88947.73361
93752.21203
94157.81021
85961.95114
83013.74194
78617.49877
79699.63557
71861.75949
75933.9301
70102.28456
68646.46796
66002.16555
64213.45697
63282.19547
62292.5219
55758.06211
56908.99169
55535.35414
56427.89763
54514.43348
77198.45985
91809.62622
85723.33343
79649.21007
81153.13
89519.60034
86665.80336
87633.16728
93242.59234
93163.62519
94253.22283
94055.90168
97924.97366
95114.33699
90977.24918
88696.14853
89615.53119
85746.97863
80808.04349
78568.75615
71310.05082
75730.35672
72347.6879
65983.82242
67980.23884
69661.75781
64703.40772
62151.05887
58408.90152
61595.59326
75172.80594
92748.73737
79745.05035
79506.2343
80675.14001
86733.22103
82533.79285
81974.68585
89573.2729
92049.39042
93108.36386
93474.67865
99039.62075
92485.90022
93558.60178
97977.89477
92108.36043
86647.12755
91181.72685
87451.54677
84148.66631
80072.46719
78954.00934
81563.22931
73147.8311
78353.36231
71536.04419
71036.49554
73284.32678
67101.17649
76518.82505
86206.26218
80544.31681
76666.3765
84666.84086
87474.93424
82245.73816
77275.72544
94973.98038
90091.83421
86572.62725
95337.30934
93004.22899
101237.032
98000.83938
102265.2486
95883.5571
97370.86677
89404.16799
97518.89566
87805.86742
89976.20785
86705.19728
80028.91823
82842.18048
78510.02851
78894.30835
74118.07834
75717.5211
74140.00525
76253.49831
92615.96268
80280.37332
76734.17821
78493.36796
82128.60795
81219.19574
76776.32781
84987.11742
88396.82788
77652.36196
83899.82918
93129.97403
83664.34561
96520.61848
93698.46099
97283.03957
100928.383
96106.35863
94771.78803
96934.30144
90995.28138
92707.88512
93106.37255
83422.06077
87807.78843
87439.79522
84801.18225
83973.58073
80498.49358
76523.36506
88128.33381
82248.49668
79112.73123
79098.64532
84055.58682
81633.97504
80077.22161
84012.40576
80794.5571
79555.30268
86576.43623
91485.78081
80500.48314
91354.60391
93166.68736
90181.09448
100691.7469
94150.1552
97972.36294
101599.0102
91818.67823
94002.69655
93668.3801
95005.44762
88093.30864
84920.36634
88835.13745
83740.90774
89983.70194
78140.6997
88879.47871
81045.69657
78725.71131
83659.86205
89517.27818
75967.95331
79934.0418
87341.90377
84303.84102
78120.28528
80961.57818
78971.47623
81362.39128
85636.56402
87273.86868
86339.87261
92974.83687
93766.44191
94335.59766
98015.23698
98612.55939
100238.2725
93123.26318
94112.4923
94310.94673
86296.1835
91729.74542
90096.1204
89243.58777
74097.18885
85835.53733
87893.67883
72749.40153
80811.47095
83284.49512
80872.44998
81817.81455
82664.96472
84441.54207
82729.34819
84286.43615
91881.75855
79174.2934
89177.59466
85855.75494
88366.09639
83400.64981
89839.97142
95621.92288
94905.96048
99175.09494
102131.8509
99372.0854
99798.18048
103495.613
102928.3351
95731.82826
93852.77216
93556.75113
75912.01063
84856.82086
78333.06908
77985.05242
78460.50775
86737.49468
78059.15572
75972.037
85074.94804
79002.37122
83345.72935
79377.37275
85599.03414
83794.60815
84937.05879
85929.43719
89302.84045
89460.65536
86168.09454
88762.147
88699.70971
92691.42156
93366.56329
96502.83191
99756.59865
95444.65698
103211.9241
101404.4721
101474.6755
95305.88754
73862.12824
90096.69215
78610.03104
71214.86227
77136.8745
85449.80918
80578.27655
76722.29593
79168.44507
82504.49596
83093.93514
81972.63824
82863.993
80762.82245
80819.5904
85514.75083
79335.39506
86908.76093
87048.83574
89182.70908
89947.91687
86551.17257
94036.23696
88770.32622
92781.77463
99461.4064
94993.54137
98798.23825
95311.93842
104603.0548
78661.01982
85462.28615
79384.44403
80931.06133
83171.71132
80066.74388
80703.08711
77655.45007
81221.25558
76731.8949
77951.99283
77415.08358
80995.29287
82072.22361
78812.27713
82210.40399
85005.66042
79830.88481
83910.63357
81911.66381
87724.86742
86048.70553
85730.29712
87712.84603
91822.98326
92123.65352
87917.51446
93897.15997
92780.35485
99211.59962
18079.29108
15545.0816
12543.44536
10444.56854
11181.8683
9884.362137
10444.49612
9004.519124
8177.80856
8344.04038
22920.14251
21580.28109
20264.54502
18111.94356
18740.63395
18105.29408
16027.13611
14427.98383
13384.58052
13315.66786
22262.89605
23712.86903
23460.39566
22784.72252
20130.20093
21225.14478
20675.31739
19827.66583
16692.57742
15699.9268
23605.6298
23938.34231
26913.48418
25575.396
24114.66878
25062.7168
23132.63251
22109.28553
20176.96481
21411.59877
25205.8579
26985.85167
25315.41333
27286.53408
26939.32315
27899.5287
28797.00407
26034.75907
23930.78995
25399.091
30267.82068
29253.94897
27712.67443
30191.83027
29126.4545
28566.94147
29410.9477
28160.55495
29854.65484
30126.24815
33291.45456
32099.78469
33575.48335
32091.0857
31727.54001
32492.06447
32076.55181
33806.54769
31267.46763
32755.59045
39255.89476
39894.70845
37430.84675
33495.95415
36005.18198
35930.72057
33235.54542
35076.03651
32869.48018
34733.74709
42793.44941
43644.03197
42803.38876
38622.08319
41876.82096
39096.39918
39018.69951
35061.17596
37627.35521
38907.0086
50382.18046
49756.91958
49190.23503
47483.70879
45296.54863
47948.89205
41083.89777
40257.84552
42542.05163
40764.98831
56863.58361
55179.64904
59800.62546
54176.59423
53429.83115
49228.91465
49318.09841
51704.80726
49278.45204
46315.26002
62958.52945
65223.87552
65007.82982
60355.49534
61613.80663
60486.20966
57878.75306
57045.15557
47734.17572
52548.17414
74853.50822
74430.84902
71600.2184
67378.81616
66037.06519
66322.8149
62355.3919
63483.61945
60791.42066
59012.83332
75627.43449
77812.26961
78602.63013
76274.80738
76443.78689
72668.64442
72777.584
72987.67661
70939.92698
68414.16132
81543.94408
79362.93465
78253.80603
82959.40074
81500.53388
76640.05886
77631.4984
75035.24914
74505.64965
74479.42275
86589.61751
85839.01919
90620.23403
87424.67758
84644.06122
81002.62042
85530.40856
81039.04376
79061.40999
78028.39534
95893.7897
97795.33614
91874.7794
89766.20237
84475.08665
94582.45931
86100.41406
88475.69401
88368.51404
88692.92603
96618.64802
92968.26509
95569.4625
95286.18164
95790.59537
96000.9799
91821.97197
91181.17194
91806.31555
89317.81782
95655.2385
94182.52058
97327.69953
95404.24821
97387.57116
93546.44561
98415.59636
88614.38913
100567.9458
95789.0673
99121.22966
95972.95165
97475.40688
98466.445
92512.54984
94156.17076
92933.65252
96120.24217
93333.22764
97521.71715
4829.851626
6524.351381
5959.145287
6490.906205
6348.908749
6493.272119
6510.807174
6094.361275
6481.632128
7844.95052
7058.487741
6937.787567
6694.787283
8102.81103
6907.754576
8079.516626
7814.982366
7065.278054
8159.288597
7364.297003
8119.62539
8145.35266
8724.248126
8456.504617
8109.738972
8569.84356
8913.392222
8255.498952
8320.283284
8295.428157
5516.253795
8838.988725
8746.887617
8643.290404
8988.920697
8772.217999
8038.712354
10002.40328
10741.2397
10352.38186
11067.19666
10856.92509
10643.13041
9935.331892
10578.62124
11018.85475
10714.08359
10620.35542
12040.91404
10846.93686
11613.54801
12141.95803
11842.53007
12581.34228
11846.16216
13614.156
11760.42527
12910.43313
12605.32801
11643.85729
5306.17217
8808.668143
8093.626868
8774.551801
9700.840936
8974.124595
10216.02213
9491.397265
9633.229853
10578.8708
10912.60729
11068.97087
10842.69151
11457.17116
11962.05211
11948.66153
11762.34418
11796.69507
13203.86419
11142.28589
12738.78173
12547.38555
14084.08042
11718.23322
12035.89848
13232.13761
12990.18902
12921.63098
13123.54741
10717.44063
5393.987865
8143.538255
8366.333538
8719.278818
9322.28544
9021.957678
9357.283885
10547.59679
9995.513024
10653.95517
11706.73994
10335.40357
11132.64621
10629.20229
11846.6206
13516.02432
12079.21385
12211.72061
12303.23431
13100.58727
13705.11703
13899.79392
14452.76832
14317.69366
13241.86829
13360.62703
15302.31148
13978.55877
15247.51982
12638.6584
5021.533605
7889.284893
7883.690274
8544.844856
9651.47345
9767.940059
8898.094716
9675.245751
9057.795307
11822.0107
10476.27942
10540.26473
12200.44667
10812.56062
12458.92674
13463.95659
12899.53228
11894.27156
12990.01334
12881.87197
12762.81951
13084.12323
13774.87847
14883.0125
15109.01745
14696.93013
14661.02636
14623.0206
15735.11867
14265.50263
5406.216417
8080.167123
7415.066414
9007.146332
8789.949231
9427.621931
9187.422795
11051.20141
10963.92906
11261.34777
10099.56895
10551.65425
11440.72103
10643.88277
12920.22561
12762.309
12572.41942
14777.38871
14795.58723
13498.67295
15147.99369
14542.41423
15290.82249
14519.31283
15647.70642
16975.15324
14742.0755
16804.71948
16958.94821
14795.2067
5163.817649
7828.719116
7767.384867
9123.940735
9088.514744
9842.674759
9538.407407
10018.34845
10013.7605
10063.92512
11429.69272
11874.38335
11822.12212
12523.08029
12181.56201
13593.31791
13175.85668
14257.19219
12799.47036
14938.79109
16621.26559
14461.66098
15446.29453
16355.98482
16880.28676
15625.2255
17344.89215
16981.11594
18401.59099
15677.54709
5143.652591
8199.572347
8034.317277
8920.715627
9584.694929
10111.19488
10314.6936
9716.872612
11951.52043
11705.08138
12021.82819
11121.34807
12472.27157
11325.83797
13894.95092
12192.77538
13391.06752
14091.80883
13125.28325
16050.12925
14818.26869
16001.34713
15862.96019
17974.37365
17143.18517
16372.91802
16463.61003
19334.1379
18030.53433
15825.80957
5062.889169
8942.023881
8892.319207
9520.948605
9170.158698
11582.57593
12189.68279
12437.63349
12147.64252
13224.037
12439.0125
12058.10668
13783.75521
12699.25202
14358.86265
15418.07817
15268.69727
15674.98389
15919.0682
15708.96323
16677.1649
16305.8856
16564.60794
18090.60916
16103.23477
18414.81855
17860.57854
18554.05806
19574.05366
18336.03686
5360.051935
10423.36099
10279.86551
11617.26648
12351.99191
13901.71108
12644.87608
13369.24695
13647.99735
12741.50903
14555.41654
14247.72184
14857.3912
16712.26385
14075.35731
14452.18466
15140.67824
15649.05896
15100.94596
17086.63974
17583.15981
16057.49371
17558.45598
18186.10046
19012.85488
17495.46516
17951.13972
19328.08457
20057.72604
16856.15643
)
;

boundaryField
{
    inlet
    {
        type            calculated;
        value           nonuniform List<scalar> 
20
(
1724.360219
2952.108961
1580.69121
1182.455477
607.8328508
593.4452441
379.5441803
374.1413038
215.5478228
183.0440601
172.7515289
146.6919077
90.88610145
122.8276363
63.2919878
96.94831298
133.4205774
38.59538822
45.23136574
41.66617847
)
;
    }
    outlet
    {
        type            calculated;
        value           nonuniform List<scalar> 
70
(
8344.04038
13315.66786
15699.9268
21411.59877
25399.091
30126.24815
32755.59045
34733.74709
38907.0086
40764.98831
46315.26002
52548.17414
59012.83332
68414.16132
74479.42275
78028.39534
88692.92603
89317.81782
95789.0673
97521.71715
41.66617847
252.3417445
25520.98597
159864.7198
88986.61778
31053.0352
68468.51409
109120.7791
84822.74002
67711.2419
78661.01982
85462.28615
79384.44403
80931.06133
83171.71132
80066.74388
80703.08711
77655.45007
81221.25558
76731.8949
77951.99283
77415.08358
80995.29287
82072.22361
78812.27713
82210.40399
85005.66042
79830.88481
83910.63357
81911.66381
87724.86742
86048.70553
85730.29712
87712.84603
91822.98326
92123.65352
87917.51446
93897.15997
92780.35485
99211.59962
99121.22966
95972.95165
97475.40688
98466.445
92512.54984
94156.17076
92933.65252
96120.24217
93333.22764
97521.71715
)
;
    }
    wall
    {
        type            calculated;
        value           uniform 0;
    }
    frontAndBack
    {
        type            empty;
    }
}


// ************************************************************************* //
