/*--------------------------------*- C++ -*----------------------------------*\
| =========                 |                                                 |
| \\      /  F ield         | OpenFOAM: The Open Source CFD Toolbox           |
|  \\    /   O peration     | Version:  v1912                                 |
|   \\  /    A nd           | Website:  www.openfoam.com                      |
|    \\/     M anipulation  |                                                 |
\*---------------------------------------------------------------------------*/
FoamFile
{
    version     2.0;
    format      ascii;
    class       volScalarField;
    location    "6.58";
    object      p;
}
// * * * * * * * * * * * * * * * * * * * * * * * * * * * * * * * * * * * * * //

dimensions      [1 -1 -2 0 0 0 0];


internalField   nonuniform List<scalar> 
1900
(
29122
9256.63
8618.72
8633.13
8637.64
8643.8
8647.55
8640.86
8628.77
8613.02
29122
9256.62
8618.63
8632.91
8637.21
8643.5
8648.17
8643.26
8634.07
8604.73
29122
9256.6
8618.55
8632.8
8637.26
8644.09
8648.6
8640.75
8624.19
8593.21
29122
9256.62
8618.63
8632.91
8637.21
8643.5
8648.17
8643.26
8634.07
8604.73
29122
9256.63
8618.72
8633.13
8637.64
8643.8
8647.55
8640.86
8628.77
8613.02
8723.98
8561.17
8492.36
8322.39
8578.33
8578.53
8468.77
8407.05
8238.43
8131.51
8550.43
8450.28
8392.46
8261.89
8168.19
8578.53
8468.77
8407.05
8238.43
8131.51
8723.98
8561.17
8492.36
8322.39
8578.33
3608.27
2111.41
1497.96
1085.9
805.856
4079.53
2326.49
1617.39
1165.29
885.593
4191.59
2285.67
1568.4
1129.8
853.189
4079.53
2326.49
1617.39
1165.29
885.593
3608.27
2111.41
1497.96
1085.9
805.856
797.572
716.838
542.558
496.609
621.845
1220.89
1404.79
1419.91
1394.61
1308.92
1188.33
1042.49
861.128
679.395
568.563
520.1
491.314
467.293
445.919
427.998
415.804
408.872
405.057
402.645
400.88
399.679
398.952
399.044
399.993
401.728
403.894
407.582
412.332
420.789
429.547
445.721
486.922
630.751
824.197
820.33
777.305
690.265
517.641
471.417
615.338
1243.86
1426.3
1427.58
1409.32
1329.19
1201.68
1049.34
864.654
680.916
569.053
520.21
491.406
467.398
445.995
428.019
415.79
408.85
405.037
402.627
400.864
399.664
398.937
399.027
399.977
401.713
403.877
407.571
412.317
420.801
429.545
445.677
486.85
630.776
824.258
820.48
765.6
688.176
513.85
469.955
611.473
1247.8
1436.59
1436.03
1410.28
1323.82
1197.84
1048.43
865.667
681.823
569.31
520.251
491.443
467.45
446.023
428.032
415.786
408.843
405.031
402.622
400.86
399.66
398.932
399.021
399.971
401.707
403.87
407.564
412.309
420.803
429.546
445.65
486.828
630.792
824.311
820.563
777.305
690.265
517.641
471.417
615.338
1243.86
1426.3
1427.58
1409.32
1329.19
1201.68
1049.34
864.654
680.916
569.053
520.21
491.406
467.398
445.995
428.019
415.79
408.85
405.037
402.627
400.864
399.664
398.937
399.027
399.977
401.713
403.877
407.571
412.317
420.801
429.545
445.677
486.85
630.776
824.258
820.48
797.572
716.838
542.558
496.609
621.845
1220.89
1404.79
1419.91
1394.61
1308.92
1188.33
1042.49
861.128
679.395
568.563
520.1
491.314
467.293
445.919
427.998
415.804
408.872
405.057
402.645
400.88
399.679
398.952
399.044
399.993
401.728
403.894
407.582
412.332
420.789
429.547
445.721
486.922
630.751
824.197
820.33
950.915
858.04
674.136
620.387
770.385
1191.72
1328.65
1364.14
1354.59
1278.45
1166.45
1026.49
849.047
671.904
565.88
519.4
490.935
466.784
445.446
427.855
415.848
408.962
405.143
402.719
400.947
399.742
399.016
399.11
400.055
401.785
403.958
407.623
412.373
420.712
429.515
445.836
487.147
630.69
823.659
819.646
940.249
842.045
825.567
857.845
936.944
1141.85
1245.43
1279.96
1253.16
1192.98
1106.81
982.433
814.563
651.73
559.287
517.671
489.869
465.521
444.412
427.46
415.914
409.183
405.367
402.916
401.124
399.91
399.188
399.291
400.226
401.948
404.13
407.759
412.47
420.584
429.402
446.091
487.738
631.095
823.198
818.939
945.158
877.37
888.439
949.369
1041.21
1100.41
1155.73
1165.43
1160.27
1120.16
1043.28
922.796
764.626
624.9
551.131
515.131
488.024
463.724
443.09
426.941
416.016
409.542
405.759
403.279
401.46
400.233
399.515
399.624
400.543
402.247
404.441
408.023
412.676
420.487
429.274
446.457
488.684
631.627
822.599
818.296
962.984
949.695
942.286
964.057
992.347
1024.22
1069.33
1090.44
1075.06
1042.08
969.72
852.393
708.798
598.156
543.173
511.935
485.526
461.579
441.681
426.463
416.254
410.101
406.377
403.869
402.018
400.774
400.058
400.164
401.054
402.733
404.933
408.462
413.031
420.522
429.196
446.882
489.966
632.407
822.019
817.589
934.562
916.793
896.497
931.472
952.936
974.601
984.759
1000.3
994.325
961.504
889.046
776.224
655.151
575.627
535.607
507.931
482.348
459.171
440.298
426.162
416.731
410.935
407.288
404.755
402.868
401.6
400.876
400.961
401.807
403.442
405.631
409.095
413.554
420.717
429.237
447.352
491.382
633.212
821.246
816.709
926.334
942.762
910.315
898.018
879.828
884.999
908.222
922.97
916.33
880.559
805.986
703.072
611.562
558.987
528.903
503.733
479.05
456.926
439.234
426.266
417.625
412.188
408.623
406.069
404.143
402.848
402.102
402.145
402.937
404.515
406.675
410.072
414.42
421.281
429.67
448.234
493.357
634.818
821.214
816.832
934.481
921.498
857.657
817.703
805.573
815.655
841.88
852.949
842.458
800.741
726.442
642.056
580.778
546.312
522.166
498.839
475.383
454.731
438.508
426.732
418.888
413.807
410.327
407.757
405.795
404.467
403.673
403.644
404.373
405.868
407.971
411.278
415.5
422.108
430.391
449.198
495.118
635.93
820.722
816.59
911.839
886.048
805.245
752.573
740.813
761.384
785.188
788.424
771.035
724.524
657.882
598.023
560.125
536.584
516.231
494.332
472.211
453.132
438.504
427.909
420.806
416.042
412.639
410.055
408.054
406.675
405.809
405.701
406.349
407.744
409.769
412.976
417.075
423.474
431.748
450.781
497.612
637.99
820.914
817.391
895.667
858.823
760.091
701.309
691.043
718.045
733.521
728.566
703.698
658.048
606.898
569.797
546.021
528.464
510.262
489.604
469.139
451.919
438.799
429.389
422.981
418.525
415.212
412.634
410.607
409.181
408.261
408.09
408.64
409.933
411.881
415.003
419.003
425.264
433.63
452.718
500.243
640.215
820.766
818.307
874.687
834.636
725.455
665.63
659.745
678.87
684.717
673.429
644.624
606.872
573.683
551.713
536.249
522.168
505.225
485.647
466.872
451.617
440.013
431.707
425.911
421.716
418.478
415.902
413.841
412.361
411.385
411.138
411.569
412.751
414.615
417.657
421.587
427.753
436.248
455.418
503.782
643.423
821.336
820.086
855.998
820.911
703.68
641.235
636.208
641.307
639.829
624.371
597.802
572.958
553.906
540.426
529.116
516.458
500.272
482.032
465.237
451.721
441.565
434.244
429.009
425.085
421.968
419.45
417.412
415.932
414.941
414.64
414.97
416.069
417.872
420.87
424.775
430.917
439.589
458.881
508.082
647.169
822.098
822.064
852.442
821.394
695.202
622.605
612.154
607.651
600.691
585.841
567.458
553.684
542.391
533.752
524.964
512.94
496.904
480.158
465.45
453.706
444.96
438.516
433.744
430.006
426.929
424.387
422.3
420.761
419.697
419.299
419.503
420.507
422.252
425.215
429.128
435.292
444.189
463.749
513.947
652.137
823.507
825.071
854.987
827.97
692.631
605.619
585.528
579.043
571.008
561.797
551.911
544.357
537.13
530.786
522.482
510.204
494.892
479.941
467.203
457.21
449.705
444
439.611
436.055
433.045
430.496
428.352
426.727
425.557
425.022
425.069
425.997
427.688
430.651
434.62
440.886
450.096
469.941
520.895
657.362
824.624
827.911
855.759
831.895
689.588
588.488
561.008
557.831
554.192
550.535
544.938
540.374
535.678
530.522
522.28
510.362
496.727
483.834
473.149
464.924
458.65
453.677
449.591
446.018
442.797
439.957
437.504
435.595
434.168
433.414
433.285
434.121
435.759
438.731
442.799
449.253
458.887
479.342
531.31
665.616
827.91
833.245
857.211
833.196
686.842
579.257
549.553
551.19
551.549
550.134
546.58
543.57
539.868
534.675
526.036
514.311
501.698
490.341
481.123
473.94
468.267
463.606
459.698
456.259
453.147
450.375
447.935
446.011
444.579
443.926
443.948
444.983
446.879
450.182
454.666
461.645
472.123
493.602
546.638
677.318
832.654
839.307
866.262
844.314
695.525
585.778
555.298
558.371
559.835
558.945
556.609
554.698
551.227
545.061
535.434
523.979
512.586
502.616
494.641
488.351
483.29
479.13
475.855
473.306
471.208
469.367
467.752
466.629
465.792
465.602
465.824
467.112
469.251
472.969
477.901
485.615
497.078
519.728
572.689
695.983
841.025
846.783
869.722
855.22
719.328
614.245
582.026
585.508
587.72
587.273
585.659
583.457
579.275
572.573
563.268
553.07
543.526
535.641
529.6
524.97
521.36
518.476
516.334
514.761
513.682
513.191
513.113
513.691
514.209
515.531
517.005
519.711
523.161
528.306
534.35
543.39
555.835
578.457
627.105
730.789
846.781
841.944
840.563
853.394
757.458
678.59
650.185
655.732
660.421
662.902
664.139
664.623
662.915
659.454
654.673
650.253
646.752
644.77
643.907
643.915
644.365
644.965
646.177
647.836
649.239
650.277
651.087
652.384
653.103
654.862
656.689
659.782
663.236
667.923
672.624
679.71
688.573
704.381
734.787
796.279
853.714
802.068
1201.33
734.275
799.086
774.328
763.03
772.408
782.956
791.761
799.172
805.008
807.805
808.882
808.558
808.649
809.651
811.646
814.424
817.598
820.648
823.213
825.688
827.807
829.063
829.635
829.612
829.951
829.347
829.593
829.437
830.273
831.061
832.475
833.312
835.7
838.285
844.858
849.183
857.279
744.961
1014.83
22316.5
961.254
733.386
757.034
770.349
775.298
784.858
792.029
797.382
801.303
802.88
804.081
804.815
806.055
807.866
810.186
812.679
815.175
817.527
819.616
821.524
822.96
823.944
824.765
825.332
826.004
826.346
827.196
827.951
829.742
831.685
834.643
837.142
841.579
845.674
851.471
845.877
811.619
966.865
18273.9
22316.5
961.254
733.386
757.034
770.349
775.298
784.858
792.029
797.382
801.303
802.88
804.081
804.815
806.055
807.866
810.186
812.679
815.175
817.527
819.616
821.524
822.96
823.944
824.765
825.332
826.004
826.346
827.196
827.951
829.742
831.685
834.643
837.142
841.579
845.674
851.471
845.877
811.619
966.865
18273.9
1201.33
734.275
799.086
774.328
763.03
772.408
782.956
791.761
799.172
805.008
807.805
808.882
808.558
808.649
809.651
811.646
814.424
817.598
820.648
823.213
825.688
827.807
829.063
829.635
829.612
829.951
829.347
829.593
829.437
830.273
831.061
832.475
833.312
835.7
838.285
844.858
849.183
857.279
744.961
1014.83
840.563
853.394
757.458
678.59
650.185
655.732
660.421
662.902
664.139
664.623
662.915
659.454
654.673
650.253
646.752
644.77
643.907
643.915
644.365
644.965
646.177
647.836
649.239
650.277
651.087
652.384
653.103
654.862
656.689
659.782
663.236
667.923
672.624
679.71
688.573
704.381
734.787
796.279
853.714
802.068
869.722
855.22
719.328
614.245
582.026
585.508
587.72
587.273
585.659
583.457
579.275
572.573
563.268
553.07
543.526
535.641
529.6
524.97
521.36
518.476
516.334
514.761
513.682
513.191
513.113
513.691
514.209
515.531
517.005
519.711
523.161
528.306
534.35
543.39
555.835
578.457
627.105
730.789
846.781
841.944
866.262
844.314
695.525
585.778
555.298
558.371
559.835
558.945
556.609
554.698
551.227
545.061
535.434
523.979
512.586
502.616
494.641
488.351
483.29
479.13
475.855
473.306
471.208
469.367
467.752
466.629
465.792
465.602
465.824
467.112
469.251
472.969
477.901
485.615
497.078
519.728
572.689
695.983
841.025
846.783
857.211
833.196
686.842
579.257
549.553
551.19
551.549
550.134
546.58
543.57
539.868
534.675
526.036
514.311
501.698
490.341
481.123
473.94
468.267
463.606
459.698
456.259
453.147
450.375
447.935
446.011
444.579
443.926
443.948
444.983
446.879
450.182
454.666
461.645
472.123
493.602
546.638
677.318
832.654
839.307
855.759
831.895
689.588
588.488
561.008
557.831
554.192
550.535
544.938
540.374
535.678
530.522
522.28
510.362
496.727
483.834
473.149
464.924
458.65
453.677
449.591
446.018
442.797
439.957
437.504
435.595
434.168
433.414
433.285
434.121
435.759
438.731
442.799
449.253
458.887
479.342
531.31
665.616
827.91
833.245
854.987
827.97
692.631
605.619
585.528
579.043
571.008
561.797
551.911
544.357
537.13
530.786
522.482
510.204
494.892
479.941
467.203
457.21
449.705
444
439.611
436.055
433.045
430.496
428.352
426.727
425.557
425.022
425.069
425.997
427.688
430.651
434.62
440.886
450.096
469.941
520.895
657.362
824.624
827.911
852.442
821.394
695.202
622.605
612.154
607.651
600.691
585.841
567.458
553.684
542.391
533.752
524.964
512.94
496.904
480.158
465.45
453.706
444.96
438.516
433.744
430.006
426.929
424.387
422.3
420.761
419.697
419.299
419.503
420.507
422.252
425.215
429.128
435.292
444.189
463.749
513.947
652.137
823.507
825.071
855.998
820.911
703.68
641.235
636.208
641.307
639.829
624.371
597.802
572.958
553.906
540.426
529.116
516.458
500.272
482.032
465.237
451.721
441.565
434.244
429.009
425.085
421.968
419.45
417.412
415.932
414.941
414.64
414.97
416.069
417.872
420.87
424.775
430.917
439.589
458.881
508.082
647.169
822.098
822.064
874.687
834.636
725.455
665.63
659.745
678.87
684.717
673.429
644.624
606.872
573.683
551.713
536.249
522.168
505.225
485.647
466.872
451.617
440.013
431.707
425.911
421.716
418.478
415.902
413.841
412.361
411.385
411.138
411.569
412.751
414.615
417.657
421.587
427.753
436.248
455.418
503.782
643.423
821.336
820.086
895.667
858.823
760.091
701.309
691.043
718.045
733.521
728.566
703.698
658.048
606.898
569.797
546.021
528.464
510.262
489.604
469.139
451.919
438.799
429.389
422.981
418.525
415.212
412.634
410.607
409.181
408.261
408.09
408.64
409.933
411.881
415.003
419.003
425.264
433.63
452.718
500.243
640.215
820.766
818.307
911.839
886.048
805.245
752.573
740.813
761.384
785.188
788.424
771.035
724.524
657.882
598.023
560.125
536.584
516.231
494.332
472.211
453.132
438.504
427.909
420.806
416.042
412.639
410.055
408.054
406.675
405.809
405.701
406.349
407.744
409.769
412.976
417.075
423.474
431.748
450.781
497.612
637.99
820.914
817.391
934.481
921.498
857.657
817.703
805.573
815.655
841.88
852.949
842.458
800.741
726.442
642.056
580.778
546.312
522.166
498.839
475.383
454.731
438.508
426.732
418.888
413.807
410.327
407.757
405.795
404.467
403.673
403.644
404.373
405.868
407.971
411.278
415.5
422.108
430.391
449.198
495.118
635.93
820.722
816.59
926.334
942.762
910.315
898.018
879.828
884.999
908.222
922.97
916.33
880.559
805.986
703.072
611.562
558.987
528.903
503.733
479.05
456.926
439.234
426.266
417.625
412.188
408.623
406.069
404.143
402.848
402.102
402.145
402.937
404.515
406.675
410.072
414.42
421.281
429.67
448.234
493.357
634.818
821.214
816.832
934.562
916.793
896.497
931.472
952.936
974.601
984.759
1000.3
994.325
961.504
889.046
776.224
655.151
575.627
535.607
507.931
482.348
459.171
440.298
426.162
416.731
410.935
407.288
404.755
402.868
401.6
400.876
400.961
401.807
403.442
405.631
409.095
413.554
420.717
429.237
447.352
491.382
633.212
821.246
816.709
962.984
949.695
942.286
964.057
992.347
1024.22
1069.33
1090.44
1075.06
1042.08
969.72
852.393
708.798
598.156
543.173
511.935
485.526
461.579
441.681
426.463
416.254
410.101
406.377
403.869
402.018
400.774
400.058
400.164
401.054
402.733
404.933
408.462
413.031
420.522
429.196
446.882
489.966
632.407
822.019
817.589
945.158
877.37
888.439
949.369
1041.21
1100.41
1155.73
1165.43
1160.27
1120.16
1043.28
922.796
764.626
624.9
551.131
515.131
488.024
463.724
443.09
426.941
416.016
409.542
405.759
403.279
401.46
400.233
399.515
399.624
400.543
402.247
404.441
408.023
412.676
420.487
429.274
446.457
488.684
631.627
822.599
818.296
940.249
842.045
825.567
857.845
936.944
1141.85
1245.43
1279.96
1253.16
1192.98
1106.81
982.433
814.563
651.73
559.287
517.671
489.869
465.521
444.412
427.46
415.914
409.183
405.367
402.916
401.124
399.91
399.188
399.291
400.226
401.948
404.13
407.759
412.47
420.584
429.402
446.091
487.738
631.095
823.198
818.939
950.915
858.04
674.136
620.387
770.385
1191.72
1328.65
1364.14
1354.59
1278.45
1166.45
1026.49
849.047
671.904
565.88
519.4
490.935
466.784
445.446
427.855
415.848
408.962
405.143
402.719
400.947
399.742
399.016
399.11
400.055
401.785
403.958
407.623
412.373
420.712
429.515
445.836
487.147
630.69
823.659
819.646
)
;

boundaryField
{
    inlet
    {
        type            fixedValue;
        value           uniform 10000;
    }
    outlet
    {
        type            fixedValue;
        value           uniform 1000;
    }
    obstacle
    {
        type            zeroGradient;
    }
    empty
    {
        type            empty;
    }
}


// ************************************************************************* //
