/*--------------------------------*- C++ -*----------------------------------*\
| =========                 |                                                 |
| \\      /  F ield         | OpenFOAM: The Open Source CFD Toolbox           |
|  \\    /   O peration     | Version:  v1912                                 |
|   \\  /    A nd           | Website:  www.openfoam.com                      |
|    \\/     M anipulation  |                                                 |
\*---------------------------------------------------------------------------*/
FoamFile
{
    version     2.0;
    format      ascii;
    class       volTensorField;
    location    "8.98";
    object      grad(U);
}
// * * * * * * * * * * * * * * * * * * * * * * * * * * * * * * * * * * * * * //

dimensions      [0 0 -1 0 0 0 0];


internalField   nonuniform List<tensor> 
1900
(
(3.39277 -2.63434e-06 0 3.52595e-06 -8.99945e-07 0 0 0 0)
(-2.16118 -4.54819e-06 0 7.69103e-06 -1.16565e-07 0 0 0 0)
(0.0742902 -1.44761e-05 0 2.01476e-05 -6.13662e-06 0 0 0 0)
(0.036917 -6.17644e-05 0 -8.36789e-06 -1.65622e-05 0 0 0 0)
(-0.079714 -0.000158927 0 -0.000123854 -0.000169028 0 0 0 0)
(-0.101761 -0.000288072 0 -0.000331837 -0.00049505 0 0 0 0)
(-0.0605337 -0.00181208 0 -0.00067093 -0.000876667 0 0 0 0)
(-0.0336616 0.0190258 0 -0.00161364 -0.00317228 0 0 0 0)
(-0.0730334 0.0587611 0 0.000907237 0.0295565 0 0 0 0)
(-0.042614 0.200708 0 0.0689757 0.111289 0 0 0 0)
(3.39278 1.61783e-06 0 1.10122e-05 7.76389e-07 0 0 0 0)
(-2.16117 -6.88485e-07 0 1.28923e-05 1.85795e-06 0 0 0 0)
(0.0742741 -1.96955e-06 0 3.50306e-05 5.32458e-06 0 0 0 0)
(0.036773 -0.000101127 0 -3.67081e-05 1.6334e-05 0 0 0 0)
(-0.0800375 -0.000319561 0 -0.000316825 6.70889e-05 0 0 0 0)
(-0.102308 -0.000419567 0 -0.00071224 0.000175261 0 0 0 0)
(-0.0618155 -0.000865148 0 -0.00115471 0.000355161 0 0 0 0)
(-0.0320834 0.0114074 0 -0.000266898 0.00198734 0 0 0 0)
(-0.00244404 0.0557002 0 0.00892255 -0.0186706 0 0 0 0)
(0.0885096 0.143734 0 0.105592 -0.0567738 0 0 0 0)
(3.3928 -4.58584e-13 0 -2.54788e-13 2.47111e-07 0 0 0 0)
(-2.16116 1.80831e-13 0 -1.66696e-14 -3.48277e-06 0 0 0 0)
(0.0742406 9.30277e-14 0 -2.22261e-14 1.62408e-06 0 0 0 0)
(0.0365652 9.94364e-14 0 -9.1344e-14 4.56329e-07 0 0 0 0)
(-0.0803896 1.25788e-13 0 -1.09775e-13 0.000203878 0 0 0 0)
(-0.102599 1.10441e-13 0 -6.50521e-14 0.000639577 0 0 0 0)
(-0.0600884 2.51578e-14 0 9.86624e-14 0.00104301 0 0 0 0)
(-0.0235844 -8.34293e-14 0 -3.33392e-14 0.00236987 0 0 0 0)
(0.0328255 -8.24885e-14 0 -2.03288e-15 -0.0217717 0 0 0 0)
(0.134426 -2.58439e-14 0 5.20417e-14 -0.109031 0 0 0 0)
(3.39278 -1.61783e-06 0 -1.10122e-05 7.7639e-07 0 0 0 0)
(-2.16117 6.88485e-07 0 -1.28923e-05 1.85795e-06 0 0 0 0)
(0.0742741 1.96955e-06 0 -3.50306e-05 5.32458e-06 0 0 0 0)
(0.036773 0.000101127 0 3.67081e-05 1.6334e-05 0 0 0 0)
(-0.0800375 0.000319561 0 0.000316825 6.70889e-05 0 0 0 0)
(-0.102308 0.000419567 0 0.00071224 0.000175261 0 0 0 0)
(-0.0618155 0.000865148 0 0.00115471 0.000355161 0 0 0 0)
(-0.0320834 -0.0114074 0 0.000266898 0.00198734 0 0 0 0)
(-0.00244404 -0.0557002 0 -0.00892255 -0.0186706 0 0 0 0)
(0.0885096 -0.143734 0 -0.105592 -0.0567738 0 0 0 0)
(3.39277 2.63434e-06 0 -3.52595e-06 -8.99945e-07 0 0 0 0)
(-2.16118 4.54819e-06 0 -7.69103e-06 -1.16564e-07 0 0 0 0)
(0.0742902 1.44761e-05 0 -2.01476e-05 -6.13662e-06 0 0 0 0)
(0.036917 6.17644e-05 0 8.36789e-06 -1.65622e-05 0 0 0 0)
(-0.079714 0.000158927 0 0.000123854 -0.000169028 0 0 0 0)
(-0.101761 0.000288072 0 0.000331837 -0.00049505 0 0 0 0)
(-0.0605337 0.00181208 0 0.00067093 -0.000876667 0 0 0 0)
(-0.0336616 -0.0190258 0 0.00161364 -0.00317228 0 0 0 0)
(-0.0730334 -0.0587611 0 -0.000907237 0.0295565 0 0 0 0)
(-0.042614 -0.200708 0 -0.0689757 0.111289 0 0 0 0)
(0.173031 0.444168 -2.46322e-17 0.265524 -0.260685 3.69484e-17 5.83565e-17 7.84507e-17 -6.67658e-33)
(0.515139 0.610338 0 0.297319 -0.495211 0 -1.65206e-16 -4.74866e-17 0)
(0.792727 1.00053 0 0.284821 -0.819704 0 -2.66868e-16 -8.66958e-17 0)
(1.48147 1.61134 0 0.33322 -1.47833 0 0 0 0)
(2.76385 1.88497 2.76738e-16 1.13647 -3.56327 -4.15107e-16 -2.30382e-15 -1.53588e-15 -7.50099e-32)
(0.219045 0.159853 0 0.183901 -0.201569 0 1.06337e-16 3.13448e-17 0)
(0.41028 0.181549 0 0.125882 -0.339295 0 1.65206e-16 4.74866e-17 0)
(0.752771 0.430922 0 0.0308492 -0.635987 0 2.66868e-16 8.66958e-17 0)
(1.69402 0.863452 0 -0.0975776 -1.33498 0 0 0 0)
(3.70888 0.572579 0 -0.205937 -3.10119 0 0 0 0)
(0.270362 -1.32683e-13 0 1.01398e-13 -0.290714 0 0 0 0)
(0.429045 9.82911e-14 0 1.15315e-13 -0.372579 0 0 0 0)
(0.741005 6.34804e-14 0 3.37684e-13 -0.647132 0 0 0 0)
(1.59335 -1.55033e-13 0 2.25875e-13 -1.38304 0 0 0 0)
(3.44858 1.01739e-13 0 3.98509e-13 -3.67024 0 0 0 0)
(0.219045 -0.159853 0 -0.183901 -0.201569 0 1.06337e-16 -3.13448e-17 0)
(0.41028 -0.181549 0 -0.125882 -0.339295 0 1.65206e-16 -4.74866e-17 0)
(0.752771 -0.430922 0 -0.0308492 -0.635987 0 2.66868e-16 -8.66958e-17 0)
(1.69402 -0.863452 0 0.0975776 -1.33498 0 0 0 0)
(3.70888 -0.572579 0 0.205937 -3.10119 0 0 0 0)
(0.173031 -0.444168 2.46322e-17 -0.265524 -0.260685 3.69484e-17 -2.7103e-16 1.4114e-16 -6.67658e-33)
(0.515139 -0.610338 0 -0.297319 -0.495211 0 -1.65206e-16 4.74866e-17 0)
(0.792727 -1.00053 0 -0.284821 -0.819704 0 -2.66868e-16 8.66958e-17 0)
(1.48147 -1.61134 1.00574e-16 -0.33322 -1.47833 1.50861e-16 -9.49985e-16 6.33323e-16 -2.72606e-32)
(2.76385 -1.88497 -2.76738e-16 -1.13647 -3.56327 -4.15107e-16 2.30382e-15 -1.53588e-15 -7.50099e-32)
(4.18099 -0.783087 -1.87064e-17 -0.00323509 4.50915 -1.68357e-16 2.28037e-15 -1.17585e-16 5.07037e-33)
(2.30556 -0.311233 8.97932e-18 0.548434 2.76141 8.08138e-17 -2.55476e-15 1.98862e-16 2.43385e-33)
(1.37205 -0.00224023 0 0.733728 2.26942 0 0 0 0)
(1.06201 0.0810949 -5.2308e-18 0.661643 2.08298 -4.70772e-17 2.38861e-15 -2.00455e-16 1.41781e-33)
(0.656422 0.557708 4.70648e-18 0.506886 1.76023 4.23583e-17 -1.13595e-15 1.26217e-16 1.27569e-33)
(4.31678 -0.953522 0 -0.716745 -0.691716 0 -1.14014e-15 -9.10822e-18 0)
(2.59563 -0.202218 0 0.325036 0.999436 0 1.28564e-15 -5.78488e-17 0)
(1.45506 -0.0167737 0 0.447669 1.38033 0 0 0 0)
(1.01109 -0.0594874 0 0.364651 1.40315 0 -1.50808e-15 7.55116e-17 0)
(0.550292 0.231545 0 0.166061 1.39223 0 2.89055e-16 -7.81885e-18 0)
(4.31657 3.28399e-14 0 2.24507e-13 0.778571 0 0 0 0)
(2.57259 -1.07689e-14 0 1.76067e-13 1.84277 0 0 0 0)
(1.35132 -2.72423e-14 0 -3.21245e-14 1.97157 0 0 0 0)
(0.923392 7.01743e-14 0 1.20467e-13 1.76664 0 6.07626e-16 9.4731e-31 0)
(0.561091 -5.81739e-14 0 -5.07229e-14 2.07695 0 -5.78111e-16 -3.24326e-30 0)
(4.31678 0.953522 0 0.716745 -0.691716 0 -1.14014e-15 9.10822e-18 0)
(2.59563 0.202218 0 -0.325036 0.999436 0 1.28564e-15 5.78488e-17 0)
(1.45506 0.0167737 0 -0.447669 1.38033 0 0 0 0)
(1.01109 0.0594874 0 -0.364651 1.40315 0 -1.50808e-15 -7.55116e-17 0)
(0.550292 -0.231545 0 -0.166061 1.39223 0 2.89055e-16 7.81885e-18 0)
(4.18099 0.783087 0 0.00323509 4.50915 0 1.14014e-15 -9.10822e-18 0)
(2.30556 0.311233 -8.97932e-18 -0.548434 2.76141 8.08138e-17 -1.6517e-17 8.31645e-17 2.43385e-33)
(1.37205 0.00224023 0 -0.733728 2.26942 0 0 0 0)
(1.06201 -0.0810949 5.2308e-18 -0.661643 2.08298 -4.70772e-17 1.99265e-17 -6.27327e-17 1.41781e-33)
(0.656422 -0.557708 -4.70648e-18 -0.506886 1.76023 4.23583e-17 1.13595e-15 1.26217e-16 1.27569e-33)
(0.211584 0.669812 0 -0.47065 -0.609513 0 0 0 0)
(0.0829446 0.10255 0 -0.972711 -0.266337 0 0 0 0)
(0.0636691 -0.245041 0 -1.16727 0.0277241 0 0 0 0)
(0.122194 -0.122098 0 -0.992511 -0.0218814 0 0 0 0)
(0.0693868 -0.0196424 0 -0.936694 0.0323853 0 0 0 0)
(0.107375 0.0152887 0 -0.81985 0.0648583 0 0 0 0)
(0.14178 0.0315986 0 -0.702644 0.133446 0 0 0 0)
(0.159262 0.0215746 0 -0.577292 0.170262 0 0 0 0)
(0.14296 0.00756 0 -0.448303 0.224128 0 0 0 0)
(0.114013 0.0309926 0 -0.374628 0.230342 0 0 0 0)
(0.156253 0.00900206 0 -0.302036 0.169175 0 0 0 0)
(0.20256 -0.0247795 0 -0.194324 0.205633 0 0 0 0)
(0.0326543 -0.0194246 0 -0.156223 0.23421 0 0 0 0)
(-0.315013 -0.0256643 0 -0.0795359 0.140205 0 0 0 0)
(-0.96699 -0.0254826 0 -0.24712 0.134464 0 0 0 0)
(-1.20937 0.0118206 0 -0.434778 0.136447 0 0 0 0)
(-0.536366 0.0410016 0 -0.245434 0.129881 0 0 0 0)
(-0.0524699 0.0272891 0 -0.199696 0.096047 0 0 0 0)
(0.00240979 -0.0230331 0 -0.0739263 0.0685415 0 0 0 0)
(-0.0328225 -0.0798959 0 0.0134935 0.128969 0 0 0 0)
(-0.163588 -0.086375 0 0.0641286 0.275071 0 0 0 0)
(-0.326296 -0.0603483 0 0.142415 0.435895 0 0 0 0)
(-0.44281 -0.0552038 0 0.238831 0.545569 0 0 0 0)
(-0.448183 -0.0149719 0 0.195195 0.543563 0 0 0 0)
(-0.41608 0.0510827 0 -0.0171891 0.490566 0 0 0 0)
(-0.354734 0.0569696 0 -0.126365 0.422114 0 0 0 0)
(-1.29934 0.0497975 0 -0.108367 0.375742 0 0 0 0)
(-2.67467 0.0351729 0 -0.0408298 0.301184 0 0 0 0)
(-2.8565 0.0297209 0 0.025585 0.228584 0 0 0 0)
(-1.96644 0.0362426 0 0.0822912 0.143039 0 0 0 0)
(-0.734282 0.0137423 0 0.0137477 0.109069 0 0 0 0)
(-0.144855 -0.00175661 0 0.00880577 0.11016 0 0 0 0)
(-0.0861496 -0.0036137 0 0.0106779 0.11381 0 0 0 0)
(-0.0737945 -0.00568148 0 0.00869731 0.118278 0 0 0 0)
(-0.0635639 -0.00744447 0 -0.00135235 0.126442 0 0 0 0)
(-0.0644064 -0.0045126 0 -0.0196868 0.136465 0 0 0 0)
(-0.0594229 0.0033269 0 -0.0381288 0.138259 0 0 0 0)
(-0.0402816 0.00818692 0 -0.0471669 0.127059 0 0 0 0)
(-0.0210796 0.0079456 0 -0.0478835 0.113893 0 0 0 0)
(-0.00672982 0.00369411 0 -0.0450352 0.101605 0 0 0 0)
(-0.0161952 0.495491 0 0.209321 0.138633 0 0 0 0)
(-0.139333 0.208302 0 -0.389306 -0.722651 0 0 0 0)
(0.0463063 -0.13 0 -0.705012 -0.213882 0 0 0 0)
(0.160649 -0.177219 0 -0.647079 0.119678 0 0 0 0)
(0.0984481 -0.0890591 0 -0.590701 0.205831 0 0 0 0)
(0.138228 -0.0528024 0 -0.490369 0.187199 0 0 0 0)
(0.171088 -0.0224137 0 -0.397434 0.153276 0 0 0 0)
(0.189145 -0.00628595 0 -0.330362 0.0785787 0 0 0 0)
(0.166327 0.00304066 0 -0.27218 0.0791137 0 0 0 0)
(0.133432 0.0301162 0 -0.245954 0.0525912 0 0 0 0)
(0.181449 0.0170738 0 -0.196508 -0.0274235 0 0 0 0)
(0.219735 0.000935357 0 -0.13612 0.0216466 0 0 0 0)
(0.0520125 0.00960285 0 -0.124711 0.0577561 0 0 0 0)
(-0.324475 -0.00333857 0 -0.0631602 0.0884188 0 0 0 0)
(-1.02441 -0.0105605 0 -0.180485 0.145977 0 0 0 0)
(-1.20715 0.0196048 0 -0.329542 0.176015 0 0 0 0)
(-0.495947 0.0387697 0 -0.165868 0.105344 0 0 0 0)
(-0.0281535 0.024986 0 -0.132065 0.0350721 0 0 0 0)
(0.0330257 0.00135665 0 -0.0457266 0.0115373 0 0 0 0)
(-0.0105194 -0.0270863 0 0.00967966 0.114248 0 0 0 0)
(-0.134733 -0.0380194 0 0.04179 0.28618 0 0 0 0)
(-0.279785 -0.0331792 0 0.0619113 0.411162 0 0 0 0)
(-0.413799 -0.0317101 0 0.138243 0.493627 0 0 0 0)
(-0.497425 -0.00430604 0 0.137437 0.600925 0 0 0 0)
(-0.494679 0.031692 0 0.0352427 0.545093 0 0 0 0)
(-0.378013 0.0354148 0 -0.0167917 0.425329 0 0 0 0)
(-1.27375 0.0255228 0 0.0143622 0.34926 0 0 0 0)
(-2.64817 0.00856268 0 0.0901571 0.25415 0 0 0 0)
(-2.85196 0.0136895 0 0.0689126 0.228353 0 0 0 0)
(-1.9738 0.0212943 0 0.037991 0.151984 0 0 0 0)
(-0.7405 0.00671744 0 0.0146042 0.103769 0 0 0 0)
(-0.144587 -0.00119189 0 0.015512 0.104745 0 0 0 0)
(-0.086435 -0.00193039 0 0.018322 0.109807 0 0 0 0)
(-0.0766181 -0.00284301 0 0.0177515 0.117167 0 0 0 0)
(-0.069311 -0.00375662 0 0.0123288 0.129337 0 0 0 0)
(-0.0710291 -0.002398 0 0.00258777 0.142758 0 0 0 0)
(-0.0637362 0.00153006 0 -0.00721001 0.14485 0 0 0 0)
(-0.041501 0.00402661 0 -0.0127119 0.131322 0 0 0 0)
(-0.0206141 0.00396216 0 -0.0153638 0.116707 0 0 0 0)
(-0.00628232 0.00187123 0 -0.0173512 0.104009 0 0 0 0)
(0.0556962 -1.21993e-13 0 -1.57702e-14 0.41122 0 0 0 0)
(-0.183043 -1.50355e-13 0 -4.25796e-13 -1.0941 0 0 0 0)
(-0.0113191 -2.55312e-13 0 -5.36187e-13 -1.02085 0 0 0 0)
(0.155448 -1.29797e-13 0 -2.12898e-13 -0.200349 0 0 0 0)
(0.114975 4.39917e-14 0 -3.62715e-13 0.197528 0 0 0 0)
(0.163598 1.64835e-13 0 -3.15404e-13 0.411933 0 0 0 0)
(0.188328 9.62965e-14 0 -4.17911e-13 0.560544 0 0 0 0)
(0.195699 -3.79015e-14 0 -7.88511e-13 0.566027 0 0 0 0)
(0.167515 8.38261e-14 0 -5.20417e-13 0.60376 0 0 0 0)
(0.136027 1.19382e-13 0 -5.28302e-13 0.545122 0 0 0 0)
(0.188205 -2.18059e-13 0 -4.96762e-13 0.396712 0 0 0 0)
(0.223446 -2.4246e-13 0 -4.17911e-13 0.42774 0 0 0 0)
(0.053879 1.84908e-13 0 2.12898e-13 0.390281 0 0 0 0)
(-0.331238 4.83733e-13 0 -6.07153e-13 0.361721 0 0 0 0)
(-1.04448 4.65223e-13 0 -3.94255e-14 0.413234 0 0 0 0)
(-1.20512 -4.27289e-13 0 3.27232e-13 0.434324 0 0 0 0)
(-0.478918 -6.05308e-13 0 -1.57702e-14 0.278451 0 0 0 0)
(-0.0175196 1.96191e-13 0 2.20783e-13 0.167783 0 0 0 0)
(0.0436447 1.09898e-13 0 8.12166e-13 0.106672 0 0 0 0)
(-0.00736311 -7.90208e-13 0 -1.65587e-13 0.158456 0 0 0 0)
(-0.148393 -4.46561e-12 0 -8.6539e-12 0.29289 0 0 0 0)
(-0.298237 -1.66626e-12 0 -8.32667e-12 0.419839 0 0 0 0)
(-0.420839 5.99387e-12 0 -1.20445e-11 0.520997 0 0 0 0)
(-0.478147 2.95637e-12 0 6.78908e-12 0.637846 0 0 0 0)
(-0.460947 -2.00226e-12 0 1.45717e-11 0.550601 0 0 0 0)
(-0.360808 -7.33907e-13 0 3.95832e-12 0.419964 0 0 0 0)
(-1.26822 -1.02724e-12 0 1.70713e-12 0.307124 0 0 0 0)
(-2.6588 -4.48456e-12 0 2.62771e-12 0.244494 0 0 0 0)
(-2.87168 -5.87195e-13 0 -2.32808e-11 0.248256 0 0 0 0)
(-1.98224 5.45658e-12 0 -4.54685e-11 0.150379 0 0 0 0)
(-0.740821 4.63219e-12 0 -2.74165e-11 0.101857 0 0 0 0)
(-0.143774 1.8441e-12 0 -9.31231e-12 0.104197 0 0 0 0)
(-0.0854982 -1.00446e-12 0 9.1073e-13 0.110052 0 0 0 0)
(-0.075538 -1.39631e-12 0 6.73782e-12 0.117468 0 0 0 0)
(-0.0679752 -1.07599e-12 0 9.95298e-12 0.129597 0 0 0 0)
(-0.0700905 -1.99815e-12 0 8.79781e-12 0.143295 0 0 0 0)
(-0.0638737 -9.15549e-13 0 3.6646e-12 0.146084 0 0 0 0)
(-0.0426536 1.24922e-12 0 -3.15404e-14 0.132776 0 0 0 0)
(-0.0224293 7.69702e-13 0 -1.30301e-12 0.118401 0 0 0 0)
(-0.00730797 -1.93992e-13 0 -1.1394e-12 0.105536 0 0 0 0)
(-0.0161952 -0.495491 0 -0.209321 0.138633 0 0 0 0)
(-0.139333 -0.208302 0 0.389306 -0.722651 0 0 0 0)
(0.0463063 0.13 0 0.705012 -0.213882 0 0 0 0)
(0.160649 0.177219 0 0.647079 0.119678 0 0 0 0)
(0.0984481 0.0890591 0 0.590701 0.205831 0 0 0 0)
(0.138228 0.0528024 0 0.490369 0.187199 0 0 0 0)
(0.171088 0.0224137 0 0.397434 0.153276 0 0 0 0)
(0.189145 0.00628595 0 0.330362 0.0785787 0 0 0 0)
(0.166327 -0.00304066 0 0.27218 0.0791137 0 0 0 0)
(0.133432 -0.0301162 0 0.245954 0.0525912 0 0 0 0)
(0.181449 -0.0170738 0 0.196508 -0.0274235 0 0 0 0)
(0.219735 -0.000935357 0 0.13612 0.0216466 0 0 0 0)
(0.0520125 -0.00960285 0 0.124711 0.0577561 0 0 0 0)
(-0.324475 0.00333857 0 0.0631602 0.0884188 0 0 0 0)
(-1.02441 0.0105605 0 0.180485 0.145977 0 0 0 0)
(-1.20715 -0.0196048 0 0.329542 0.176015 0 0 0 0)
(-0.495947 -0.0387697 0 0.165868 0.105344 0 0 0 0)
(-0.0281535 -0.024986 0 0.132065 0.0350721 0 0 0 0)
(0.0330257 -0.00135665 0 0.0457266 0.0115373 0 0 0 0)
(-0.0105194 0.0270863 0 -0.00967966 0.114248 0 0 0 0)
(-0.134733 0.0380194 0 -0.04179 0.28618 0 0 0 0)
(-0.279785 0.0331792 0 -0.0619113 0.411162 0 0 0 0)
(-0.413799 0.0317101 0 -0.138243 0.493627 0 0 0 0)
(-0.497425 0.00430604 0 -0.137437 0.600925 0 0 0 0)
(-0.494679 -0.031692 0 -0.0352427 0.545093 0 0 0 0)
(-0.378013 -0.0354148 0 0.0167917 0.425329 0 0 0 0)
(-1.27375 -0.0255228 0 -0.0143622 0.34926 0 0 0 0)
(-2.64817 -0.00856268 0 -0.0901571 0.25415 0 0 0 0)
(-2.85196 -0.0136895 0 -0.0689126 0.228353 0 0 0 0)
(-1.9738 -0.0212943 0 -0.037991 0.151984 0 0 0 0)
(-0.7405 -0.00671744 0 -0.0146042 0.103769 0 0 0 0)
(-0.144587 0.00119189 0 -0.015512 0.104745 0 0 0 0)
(-0.086435 0.00193039 0 -0.018322 0.109807 0 0 0 0)
(-0.0766181 0.00284301 0 -0.0177515 0.117167 0 0 0 0)
(-0.069311 0.00375662 0 -0.0123288 0.129337 0 0 0 0)
(-0.0710291 0.002398 0 -0.00258777 0.142758 0 0 0 0)
(-0.0637362 -0.00153006 0 0.00721001 0.14485 0 0 0 0)
(-0.041501 -0.00402661 0 0.0127119 0.131322 0 0 0 0)
(-0.0206141 -0.00396216 0 0.0153638 0.116707 0 0 0 0)
(-0.00628232 -0.00187123 0 0.0173512 0.104009 0 0 0 0)
(0.211584 -0.669812 0 0.47065 -0.609513 0 0 0 0)
(0.0829446 -0.10255 0 0.972711 -0.266337 0 0 0 0)
(0.0636691 0.245041 0 1.16727 0.0277241 0 0 0 0)
(0.122194 0.122098 0 0.992511 -0.0218814 0 0 0 0)
(0.0693868 0.0196424 0 0.936694 0.0323853 0 0 0 0)
(0.107375 -0.0152887 0 0.81985 0.0648583 0 0 0 0)
(0.14178 -0.0315986 0 0.702644 0.133446 0 0 0 0)
(0.159262 -0.0215746 0 0.577292 0.170262 0 0 0 0)
(0.14296 -0.00756 0 0.448303 0.224128 0 0 0 0)
(0.114013 -0.0309926 0 0.374628 0.230342 0 0 0 0)
(0.156253 -0.00900206 0 0.302036 0.169175 0 0 0 0)
(0.20256 0.0247795 0 0.194324 0.205633 0 0 0 0)
(0.0326543 0.0194246 0 0.156223 0.23421 0 0 0 0)
(-0.315013 0.0256643 0 0.0795359 0.140205 0 0 0 0)
(-0.96699 0.0254826 0 0.24712 0.134464 0 0 0 0)
(-1.20937 -0.0118206 0 0.434778 0.136447 0 0 0 0)
(-0.536366 -0.0410016 0 0.245434 0.129881 0 0 0 0)
(-0.0524699 -0.0272891 0 0.199696 0.096047 0 0 0 0)
(0.00240979 0.0230331 0 0.0739263 0.0685415 0 0 0 0)
(-0.0328225 0.0798959 0 -0.0134935 0.128969 0 0 0 0)
(-0.163588 0.086375 0 -0.0641286 0.275071 0 0 0 0)
(-0.326296 0.0603483 0 -0.142415 0.435895 0 0 0 0)
(-0.44281 0.0552038 0 -0.238831 0.545569 0 0 0 0)
(-0.448183 0.0149719 0 -0.195195 0.543563 0 0 0 0)
(-0.41608 -0.0510827 0 0.0171891 0.490566 0 0 0 0)
(-0.354734 -0.0569696 0 0.126365 0.422114 0 0 0 0)
(-1.29934 -0.0497975 0 0.108367 0.375742 0 0 0 0)
(-2.67467 -0.0351729 0 0.0408298 0.301184 0 0 0 0)
(-2.8565 -0.0297209 0 -0.025585 0.228584 0 0 0 0)
(-1.96644 -0.0362426 0 -0.0822912 0.143039 0 0 0 0)
(-0.734282 -0.0137423 0 -0.0137477 0.109069 0 0 0 0)
(-0.144855 0.00175661 0 -0.00880577 0.11016 0 0 0 0)
(-0.0861496 0.0036137 0 -0.0106779 0.11381 0 0 0 0)
(-0.0737945 0.00568148 0 -0.00869731 0.118278 0 0 0 0)
(-0.0635639 0.00744447 0 0.00135235 0.126442 0 0 0 0)
(-0.0644064 0.0045126 0 0.0196868 0.136465 0 0 0 0)
(-0.0594229 -0.0033269 0 0.0381288 0.138259 0 0 0 0)
(-0.0402816 -0.00818692 0 0.0471669 0.127059 0 0 0 0)
(-0.0210796 -0.0079456 0 0.0478835 0.113893 0 0 0 0)
(-0.00672982 -0.00369411 0 0.0450352 0.101605 0 0 0 0)
(0.0426103 0.0328469 0 1.0666 -0.2141 0 0 0 0)
(0.0406304 0.0691444 0 0.909556 0.206707 0 0 0 0)
(0.0386508 0.150324 0 0.968541 0.0212851 0 0 0 0)
(0.0604781 0.243876 0 0.842679 -0.0982248 0 0 0 0)
(0.0237445 0.223732 0 0.811455 -0.0743269 0 0 0 0)
(0.0270878 0.194925 0 0.746921 0.0338413 0 0 0 0)
(0.0528242 0.150982 0 0.648123 0.111535 0 0 0 0)
(0.0641556 0.095382 0 0.530716 0.18092 0 0 0 0)
(0.0662211 0.0398714 0 0.421152 0.276896 0 0 0 0)
(0.0641352 -0.0635729 0 0.333762 0.327318 0 0 0 0)
(0.0974819 -0.0419061 0 0.268018 0.319219 0 0 0 0)
(0.14813 0.010126 0 0.169471 0.359093 0 0 0 0)
(0.00239198 -0.0842068 0 0.117796 0.368019 0 0 0 0)
(-0.278397 -0.0850435 0 0.0785406 0.22454 0 0 0 0)
(-0.867958 -0.00905063 0 0.198439 0.156774 0 0 0 0)
(-1.20563 -0.0314798 0 0.29725 0.135857 0 0 0 0)
(-0.596672 -0.0615306 0 0.222457 0.148602 0 0 0 0)
(-0.107619 -0.0607996 0 0.146314 0.160922 0 0 0 0)
(-0.0653029 -0.00890622 0 0.049009 0.157772 0 0 0 0)
(-0.0713295 0.0955754 0 -0.0257006 0.179783 0 0 0 0)
(-0.182239 0.174634 0 -0.0731374 0.283243 0 0 0 0)
(-0.335593 0.171441 0 -0.111935 0.462579 0 0 0 0)
(-0.413363 0.0720831 0 -0.13042 0.563928 0 0 0 0)
(-0.393766 -0.042528 0 -0.0760734 0.509355 0 0 0 0)
(-0.383854 -0.0854533 0 -0.0429836 0.469795 0 0 0 0)
(-0.347737 -0.0825181 0 -0.0282323 0.448323 0 0 0 0)
(-1.29782 -0.0733117 0 -0.0360245 0.38585 0 0 0 0)
(-2.70156 -0.0701029 0 -0.0548073 0.345972 0 0 0 0)
(-2.92394 -0.0943531 0 -0.0909566 0.253842 0 0 0 0)
(-1.97489 -0.0789787 0 -0.119401 0.130932 0 0 0 0)
(-0.701595 -0.0192192 0 -0.00369014 0.115624 0 0 0 0)
(-0.142352 0.00351263 0 0.0066735 0.117449 0 0 0 0)
(-0.0866969 0.00507639 0 0.00603107 0.119772 0 0 0 0)
(-0.0723367 0.00748515 0 0.00639374 0.120684 0 0 0 0)
(-0.0581516 0.010901 0 0.0102771 0.12348 0 0 0 0)
(-0.0556177 0.00736498 0 0.0188986 0.129042 0 0 0 0)
(-0.0514859 -0.00535304 0 0.0299365 0.13157 0 0 0 0)
(-0.0367921 -0.0145001 0 0.0359522 0.125539 0 0 0 0)
(-0.021413 -0.0153228 0 0.0354373 0.115995 0 0 0 0)
(-0.00755153 -0.00747165 0 0.0307155 0.10383 0 0 0 0)
(0.00301208 0.00298092 0 0.539828 0.596457 0 0 0 0)
(0.011138 0.0322079 0 0.499745 0.537968 0 0 0 0)
(0.0126394 0.00198786 0 0.483287 0.572911 0 0 0 0)
(0.00391522 -0.0353379 0 0.42346 0.456092 0 0 0 0)
(0.00158603 0.037467 0 0.392973 0.306239 0 0 0 0)
(-0.00696563 0.0510908 0 0.383555 0.241634 0 0 0 0)
(-0.0188624 0.0122265 0 0.356028 0.112911 0 0 0 0)
(-0.0084564 0.0750582 0 0.31638 0.040866 0 0 0 0)
(-0.00568212 0.108079 0 0.268949 0.0721079 0 0 0 0)
(-0.00680708 0.0272611 0 0.21268 0.0924354 0 0 0 0)
(0.029451 0.0392617 0 0.161569 0.134607 0 0 0 0)
(0.086988 0.079663 0 0.0957089 0.223862 0 0 0 0)
(-0.038742 -0.0546652 0 0.016915 0.265496 0 0 0 0)
(-0.256937 -0.118534 0 0.0311187 0.144645 0 0 0 0)
(-0.809338 -0.0414573 0 0.062663 0.0349682 0 0 0 0)
(-1.18823 -0.00915348 0 0.0437418 0.100879 0 0 0 0)
(-0.649476 -0.00583941 0 0.0798191 0.154065 0 0 0 0)
(-0.190038 -0.000483009 0 0.0132898 0.205864 0 0 0 0)
(-0.12704 0.0583347 0 -0.0231478 0.219706 0 0 0 0)
(-0.129878 0.192397 0 -0.0470122 0.2459 0 0 0 0)
(-0.236685 0.31156 0 -0.0766773 0.36904 0 0 0 0)
(-0.376511 0.271255 0 -0.127588 0.501236 0 0 0 0)
(-0.424044 0.0912274 0 -0.169749 0.532598 0 0 0 0)
(-0.393106 -0.044905 0 -0.194062 0.521356 0 0 0 0)
(-0.387259 -0.0914649 0 -0.214465 0.496339 0 0 0 0)
(-0.351779 -0.124162 0 -0.204741 0.458238 0 0 0 0)
(-1.32576 -0.135817 0 -0.215844 0.394075 0 0 0 0)
(-2.71318 -0.14365 0 -0.262615 0.326058 0 0 0 0)
(-2.88259 -0.202284 0 -0.240285 0.233007 0 0 0 0)
(-1.87781 -0.146518 0 -0.169587 0.131368 0 0 0 0)
(-0.630319 -0.0237983 0 0.00223989 0.121103 0 0 0 0)
(-0.136829 0.00481241 0 0.0137839 0.123247 0 0 0 0)
(-0.0861258 0.00594664 0 0.0119845 0.124094 0 0 0 0)
(-0.0704846 0.00828746 0 0.0105904 0.124783 0 0 0 0)
(-0.054416 0.0136455 0 0.0107106 0.12563 0 0 0 0)
(-0.0501747 0.0107784 0 0.0135841 0.12693 0 0 0 0)
(-0.0472455 -0.00561594 0 0.0189328 0.128369 0 0 0 0)
(-0.0368521 -0.0198104 0 0.0217648 0.125201 0 0 0 0)
(-0.0259472 -0.0249091 0 0.0205268 0.11904 0 0 0 0)
(-0.0108393 -0.0133902 0 0.0151266 0.106689 0 0 0 0)
(0.00398509 -0.0235153 0 0.0943117 0.543994 0 0 0 0)
(-0.013854 0.0464544 0 0.0930447 0.550533 0 0 0 0)
(-0.03486 0.0714249 0 0.0710961 0.527132 0 0 0 0)
(-0.0265517 -0.0130987 0 0.0483852 0.513139 0 0 0 0)
(-0.0147096 0.017072 0 0.031725 0.48918 0 0 0 0)
(-0.00851398 0.0086272 0 0.0120337 0.461707 0 0 0 0)
(-0.0119074 -0.0424849 0 0.0183113 0.415344 0 0 0 0)
(-0.0197569 0.056063 0 0.0266276 0.376246 0 0 0 0)
(-0.0337087 0.0895656 0 0.0159165 0.36627 0 0 0 0)
(-0.0393398 -0.00334684 0 0.0195377 0.323088 0 0 0 0)
(-0.0152355 0.0847412 0 0.019628 0.305194 0 0 0 0)
(0.00873547 0.136256 0 -0.0166534 0.363403 0 0 0 0)
(-0.0598496 -0.160543 0 -0.16067 0.320988 0 0 0 0)
(-0.234313 -0.307189 0 -0.149008 0.28113 0 0 0 0)
(-0.855794 -0.0512253 0 -0.218775 0.23183 0 0 0 0)
(-1.1891 0.0832862 0 -0.226913 0.241816 0 0 0 0)
(-0.626017 0.0396363 0 -0.044995 0.260624 0 0 0 0)
(-0.206842 0.00245473 0 -0.0702634 0.285926 0 0 0 0)
(-0.123412 0.0296746 0 -0.0845692 0.277762 0 0 0 0)
(-0.122912 0.239479 0 -0.133762 0.307758 0 0 0 0)
(-0.259885 0.420685 0 -0.214188 0.44128 0 0 0 0)
(-0.42528 0.329051 0 -0.292017 0.530419 0 0 0 0)
(-0.477419 0.0914719 0 -0.320519 0.532441 0 0 0 0)
(-0.436857 -0.0774687 0 -0.319033 0.506264 0 0 0 0)
(-0.394145 -0.146276 0 -0.294439 0.460578 0 0 0 0)
(-0.349066 -0.181063 0 -0.252069 0.411471 0 0 0 0)
(-1.35358 -0.200685 0 -0.259301 0.360382 0 0 0 0)
(-2.72511 -0.225314 0 -0.326126 0.285265 0 0 0 0)
(-2.83429 -0.281963 0 -0.315988 0.188792 0 0 0 0)
(-1.74119 -0.186813 0 -0.210816 0.100164 0 0 0 0)
(-0.524892 -0.0270456 0 0.00176672 0.114594 0 0 0 0)
(-0.132962 0.00639446 0 0.0153798 0.116255 0 0 0 0)
(-0.0897743 0.00655673 0 0.0112574 0.121978 0 0 0 0)
(-0.0735643 0.00896569 0 0.006911 0.126836 0 0 0 0)
(-0.0552668 0.0129703 0 0.00291566 0.129675 0 0 0 0)
(-0.0476944 0.0100045 0 0.00131232 0.128096 0 0 0 0)
(-0.0436027 -0.00701988 0 0.00420728 0.1271 0 0 0 0)
(-0.0352561 -0.0234904 0 0.00835714 0.123198 0 0 0 0)
(-0.0278098 -0.0331615 0 0.0106515 0.119862 0 0 0 0)
(-0.0127554 -0.0193734 0 0.00857767 0.108128 0 0 0 0)
(0.00179111 0.00928195 0 -0.214877 0.446228 0 0 0 0)
(-0.0112334 0.0159584 0 -0.219588 0.490248 0 0 0 0)
(-0.0303961 -0.0340468 0 -0.192806 0.44274 0 0 0 0)
(-0.0340243 -0.0719098 0 -0.153378 0.408013 0 0 0 0)
(-0.0334436 -0.0120942 0 -0.13046 0.403597 0 0 0 0)
(-0.0198915 -0.0200599 0 -0.125478 0.379811 0 0 0 0)
(-0.00479928 -0.0701272 0 -0.112421 0.361103 0 0 0 0)
(-0.0107641 0.0277687 0 -0.105253 0.373091 0 0 0 0)
(-0.0125142 0.0568547 0 -0.115306 0.328062 0 0 0 0)
(-0.00323055 -0.0315943 0 -0.089071 0.262164 0 0 0 0)
(-0.00542406 0.0781111 0 -0.0460928 0.314741 0 0 0 0)
(-0.0867536 0.094883 0 -0.147491 0.269708 0 0 0 0)
(-0.166283 -0.133947 0 -0.272983 0.125908 0 0 0 0)
(-0.312929 -0.204449 0 -0.280337 0.221032 0 0 0 0)
(-0.88441 -0.0793419 0 -0.397817 0.257673 0 0 0 0)
(-1.02077 0.0185929 0 -0.296459 0.222103 0 0 0 0)
(-0.498522 0.0366665 0 -0.00389104 0.233649 0 0 0 0)
(-0.228173 0.0160319 0 -0.0380923 0.249881 0 0 0 0)
(-0.18823 0.0793734 0 -0.10466 0.279513 0 0 0 0)
(-0.254784 0.349968 0 -0.245986 0.392182 0 0 0 0)
(-0.389184 0.526124 0 -0.410582 0.539318 0 0 0 0)
(-0.478975 0.359101 0 -0.507626 0.549579 0 0 0 0)
(-0.450078 0.0679508 0 -0.480495 0.48868 0 0 0 0)
(-0.367975 -0.114155 0 -0.403249 0.43551 0 0 0 0)
(-0.32273 -0.182811 0 -0.330481 0.394339 0 0 0 0)
(-0.317919 -0.220714 0 -0.267031 0.348982 0 0 0 0)
(-1.39712 -0.257433 0 -0.297684 0.293493 0 0 0 0)
(-2.76781 -0.309001 0 -0.414629 0.199142 0 0 0 0)
(-2.77147 -0.380654 0 -0.415535 0.0340661 0 0 0 0)
(-1.57161 -0.218018 0 -0.21299 0.0210152 0 0 0 0)
(-0.412349 -0.00829262 0 0.000105218 0.0291314 0 0 0 0)
(-0.127684 0.0119279 0 0.0207372 0.0452104 0 0 0 0)
(-0.0942866 0.016143 0 0.0189825 0.0678619 0 0 0 0)
(-0.078523 0.0157046 0 0.0191637 0.089416 0 0 0 0)
(-0.0598111 0.0148594 0 0.0187138 0.109416 0 0 0 0)
(-0.0489301 0.00829715 0 0.0146578 0.121988 0 0 0 0)
(-0.0404569 -0.0103358 0 0.0119271 0.123636 0 0 0 0)
(-0.0306422 -0.0267852 0 0.0143937 0.118557 0 0 0 0)
(-0.0257347 -0.0394311 0 0.0178493 0.118047 0 0 0 0)
(-0.0128377 -0.0246982 0 0.0175524 0.108137 0 0 0 0)
(-0.000554143 0.0189039 0 -0.346738 0.346777 0 0 0 0)
(0.00741461 0.0430938 0 -0.354761 0.355258 0 0 0 0)
(0.0289418 -0.00781945 0 -0.337081 0.350972 0 0 0 0)
(0.0335279 -0.0508189 0 -0.299943 0.358576 0 0 0 0)
(0.0121763 -0.0101044 0 -0.271263 0.384387 0 0 0 0)
(0.00886867 -0.0323216 0 -0.244172 0.350623 0 0 0 0)
(0.00758196 -0.0489603 0 -0.228087 0.353222 0 0 0 0)
(-0.0225374 0.0242242 0 -0.221745 0.420033 0 0 0 0)
(-0.018115 -0.0173276 0 -0.211798 0.368075 0 0 0 0)
(0.0273569 -0.0161841 0 -0.187758 0.318617 0 0 0 0)
(-0.0715315 0.0920108 0 -0.121221 0.404755 0 0 0 0)
(-0.209904 -0.0457101 0 -0.250379 0.266217 0 0 0 0)
(-0.187864 -0.207449 0 -0.271766 0.146098 0 0 0 0)
(-0.354607 -0.180215 0 -0.3089 0.183869 0 0 0 0)
(-0.87133 -0.0501926 0 -0.433486 0.252539 0 0 0 0)
(-0.8095 0.0601366 0 -0.212421 0.236142 0 0 0 0)
(-0.377045 0.0664044 0 -0.0319805 0.296511 0 0 0 0)
(-0.303947 0.0466508 0 -0.089116 0.330404 0 0 0 0)
(-0.323746 0.166801 0 -0.193352 0.401739 0 0 0 0)
(-0.41771 0.489836 0 -0.369251 0.588295 0 0 0 0)
(-0.51201 0.572359 0 -0.518247 0.682438 0 0 0 0)
(-0.492651 0.280255 0 -0.559148 0.565304 0 0 0 0)
(-0.376838 -0.0184494 0 -0.476509 0.431171 0 0 0 0)
(-0.292298 -0.168379 0 -0.398185 0.3486 0 0 0 0)
(-0.262881 -0.229658 0 -0.346554 0.292113 0 0 0 0)
(-0.317461 -0.278243 0 -0.29378 0.238336 0 0 0 0)
(-1.49582 -0.345077 0 -0.434822 0.138658 0 0 0 0)
(-2.83868 -0.475307 0 -0.650994 -0.151462 0 0 0 0)
(-2.63999 -0.453612 0 -0.616452 -0.34035 0 0 0 0)
(-1.34066 -0.191568 0 -0.165698 -0.362372 0 0 0 0)
(-0.299664 -0.00373022 0 0.0415318 -0.302012 0 0 0 0)
(-0.114771 0.0437166 0 0.0756998 -0.209928 0 0 0 0)
(-0.0912906 0.0491549 0 0.067598 -0.121548 0 0 0 0)
(-0.0738232 0.0490091 0 0.0585815 -0.0409639 0 0 0 0)
(-0.0596089 0.0443582 0 0.0490333 0.0248323 0 0 0 0)
(-0.0542343 0.0237066 0 0.0374851 0.0725776 0 0 0 0)
(-0.0438572 -0.0103265 0 0.0267569 0.101112 0 0 0 0)
(-0.0295493 -0.0288755 0 0.0186413 0.113287 0 0 0 0)
(-0.0247659 -0.0432029 0 0.0153838 0.115934 0 0 0 0)
(-0.0130414 -0.0289237 0 0.014392 0.109284 0 0 0 0)
(-0.00594032 0.0174547 0 -0.369333 0.332644 0 0 0 0)
(-0.0019277 0.0200016 0 -0.372809 0.327587 0 0 0 0)
(0.0224288 -0.0308495 0 -0.378226 0.295422 0 0 0 0)
(0.0294004 -0.0397101 0 -0.389286 0.30965 0 0 0 0)
(0.0202991 -0.0197572 0 -0.394754 0.323704 0 0 0 0)
(0.0217149 -0.0500912 0 -0.382169 0.29925 0 0 0 0)
(0.0168124 -0.00324145 0 -0.378828 0.320294 0 0 0 0)
(0.00493214 0.042081 0 -0.372299 0.350272 0 0 0 0)
(0.0202364 -0.040874 0 -0.341386 0.328575 0 0 0 0)
(0.0840533 0.00375189 0 -0.287836 0.362658 0 0 0 0)
(-0.0657672 0.0276167 0 -0.289505 0.329702 0 0 0 0)
(-0.231824 -0.154368 0 -0.326444 0.187569 0 0 0 0)
(-0.222676 -0.2133 0 -0.327373 0.145096 0 0 0 0)
(-0.468769 -0.101879 0 -0.416304 0.1864 0 0 0 0)
(-0.79144 -0.0289688 0 -0.508057 0.252701 0 0 0 0)
(-0.633863 0.0609659 0 -0.212292 0.255864 0 0 0 0)
(-0.379701 0.1275 0 -0.187002 0.343742 0 0 0 0)
(-0.383676 0.117433 0 -0.260748 0.341894 0 0 0 0)
(-0.458178 0.327887 0 -0.394623 0.516467 0 0 0 0)
(-0.567864 0.620461 0 -0.551727 0.804173 0 0 0 0)
(-0.572176 0.503968 0 -0.630637 0.701691 0 0 0 0)
(-0.438755 0.116971 0 -0.563868 0.468392 0 0 0 0)
(-0.294968 -0.140873 0 -0.48981 0.321284 0 0 0 0)
(-0.242746 -0.248156 0 -0.442271 0.208086 0 0 0 0)
(-0.222121 -0.289065 0 -0.425297 0.0660185 0 0 0 0)
(-0.402977 -0.368589 0 -0.416269 -0.107583 0 0 0 0)
(-1.74135 -0.633057 0 -0.855891 -0.44517 0 0 0 0)
(-2.94283 -0.77059 0 -1.03333 -0.866471 0 0 0 0)
(-2.30382 -0.583895 0 -0.71326 -0.964813 0 0 0 0)
(-0.937553 -0.181074 0 -0.0508912 -0.857457 0 0 0 0)
(-0.179729 0.138608 0 0.146537 -0.699323 0 0 0 0)
(-0.102566 0.185829 0 0.177851 -0.569698 0 0 0 0)
(-0.110782 0.178963 0 0.176939 -0.442014 0 0 0 0)
(-0.0964126 0.156762 0 0.163144 -0.30693 0 0 0 0)
(-0.0801403 0.124272 0 0.133236 -0.172806 0 0 0 0)
(-0.0703964 0.0818027 0 0.0990254 -0.0553809 0 0 0 0)
(-0.0586154 0.0288931 0 0.0609634 0.0309403 0 0 0 0)
(-0.0416018 -0.0125017 0 0.0323307 0.0862412 0 0 0 0)