/*--------------------------------*- C++ -*----------------------------------*\
| =========                 |                                                 |
| \\      /  F ield         | OpenFOAM: The Open Source CFD Toolbox           |
|  \\    /   O peration     | Version:  v1912                                 |
|   \\  /    A nd           | Website:  www.openfoam.com                      |
|    \\/     M anipulation  |                                                 |
\*---------------------------------------------------------------------------*/
FoamFile
{
    version     2.0;
    format      ascii;
    class       volVectorField;
    location    "1.18";
    object      U;
}
// * * * * * * * * * * * * * * * * * * * * * * * * * * * * * * * * * * * * * //

dimensions      [0 1 -1 0 0 0 0];


internalField   nonuniform List<vector> 
4800
(
(-6.3114 0.00406653 0)
(-1.80892 0.0112805 0)
(0.684809 -0.0248104 0)
(0.425062 -0.0385956 0)
(0.0854558 -0.0247293 0)
(-0.626557 -0.00971627 0)
(-1.11348 0.00379704 0)
(-1.17743 0.00885854 0)
(-1.07395 0.00932593 0)
(-0.93263 0.00719863 0)
(-0.795238 0.00354338 0)
(-0.667058 -0.0030747 0)
(-0.540683 -0.00857851 0)
(-0.417585 -0.013759 0)
(-0.304775 -0.0235156 0)
(-0.208551 -0.0377777 0)
(-0.119612 -0.0506132 0)
(-0.0218557 -0.0547797 0)
(0.0899002 -0.049111 0)
(0.211003 -0.0401257 0)
(0.33821 -0.0355802 0)
(0.460195 -0.0196849 0)
(0.549414 0.00183936 0)
(0.619981 0.0078383 0)
(0.679092 0.0121768 0)
(0.682699 0.0156731 0)
(0.508403 0.0192835 0)
(-0.157025 0.0220105 0)
(-0.747811 0.019316 0)
(-0.825236 0.011101 0)
(-0.837408 -0.000901165 0)
(-0.792374 -0.00957278 0)
(-0.726833 -0.0124301 0)
(-0.660076 -0.00799836 0)
(-0.591653 0.00176966 0)
(-0.515895 0.0111035 0)
(-0.432865 0.0168583 0)
(-0.337314 0.0175993 0)
(-0.23796 0.0183893 0)
(-0.145892 0.0229832 0)
(-6.31957 0.00197758 0)
(-1.81492 0.0343236 0)
(0.681868 -0.059252 0)
(0.424041 -0.101985 0)
(0.102721 -0.0871466 0)
(-0.582615 -0.0442477 0)
(-1.09241 0.0111061 0)
(-1.17701 0.0277379 0)
(-1.08105 0.0293455 0)
(-0.939207 0.020955 0)
(-0.80355 0.0105251 0)
(-0.678299 -0.00416766 0)
(-0.560386 -0.0236868 0)
(-0.446402 -0.0544734 0)
(-0.336068 -0.0933475 0)
(-0.2274 -0.127471 0)
(-0.116122 -0.141448 0)
(0.0010614 -0.13077 0)
(0.12491 -0.102912 0)
(0.251602 -0.0676035 0)
(0.367965 -0.0322797 0)
(0.473286 -0.0066206 0)
(0.556083 0.0192171 0)
(0.625589 0.0311675 0)
(0.6807 0.0420378 0)
(0.679531 0.0475872 0)
(0.495126 0.04633 0)
(-0.182719 0.0392503 0)
(-0.773302 0.00998541 0)
(-0.849008 -0.0189027 0)
(-0.845052 -0.0312761 0)
(-0.786669 -0.032906 0)
(-0.711355 -0.0198463 0)
(-0.640631 0.00792972 0)
(-0.57513 0.0358968 0)
(-0.505943 0.0560539 0)
(-0.429537 0.0665329 0)
(-0.345093 0.0662045 0)
(-0.257205 0.0634426 0)
(-0.176796 0.0589045 0)
(-6.33485 0.00607393 0)
(-1.82563 0.0538017 0)
(0.69015 -0.0851463 0)
(0.434453 -0.146332 0)
(0.142347 -0.12354 0)
(-0.501593 -0.0646358 0)
(-1.05697 0.0108251 0)
(-1.17675 0.0366145 0)
(-1.09727 0.0384311 0)
(-0.957195 0.024856 0)
(-0.824128 0.00626792 0)
(-0.701862 -0.0186751 0)
(-0.591223 -0.0506392 0)
(-0.488293 -0.0945237 0)
(-0.378249 -0.138934 0)
(-0.251396 -0.168641 0)
(-0.11281 -0.18237 0)
(0.0264553 -0.175008 0)
(0.160344 -0.151901 0)
(0.283064 -0.116262 0)
(0.390595 -0.0724148 0)
(0.494749 -0.0300124 0)
(0.577678 0.00987769 0)
(0.650543 0.0302601 0)
(0.702098 0.0475477 0)
(0.692629 0.0568766 0)
(0.487392 0.0541946 0)
(-0.207623 0.0448866 0)
(-0.800642 0.0191705 0)
(-0.880197 -0.00677294 0)
(-0.856525 -0.0191121 0)
(-0.77601 -0.0153872 0)
(-0.68666 0.00788099 0)
(-0.614309 0.0429467 0)
(-0.557777 0.0756455 0)
(-0.504091 0.096903 0)
(-0.438813 0.10422 0)
(-0.361979 0.103828 0)
(-0.279436 0.107016 0)
(-0.195172 0.106471 0)
(-6.34846 0.00950487 0)
(-1.83616 0.0555442 0)
(0.706071 -0.103997 0)
(0.454719 -0.167803 0)
(0.199148 -0.127006 0)
(-0.407481 -0.0619864 0)
(-1.01605 0.0170122 0)
(-1.17579 0.0421316 0)
(-1.11479 0.043617 0)
(-0.98291 0.0255294 0)
(-0.854801 -0.000477886 0)
(-0.738294 -0.0354303 0)
(-0.633221 -0.0783967 0)
(-0.531032 -0.127403 0)
(-0.41052 -0.163833 0)
(-0.264765 -0.186447 0)
(-0.10754 -0.19482 0)
(0.0488872 -0.191165 0)
(0.1947 -0.178186 0)
(0.32104 -0.150662 0)
(0.428951 -0.111211 0)
(0.529888 -0.0678627 0)
(0.614028 -0.0228335 0)
(0.684916 0.00483121 0)
(0.731923 0.0239945 0)
(0.711818 0.0334298 0)
(0.485378 0.0372267 0)
(-0.218169 0.0395106 0)
(-0.816549 0.03753 0)
(-0.898288 0.0264889 0)
(-0.850767 0.0245289 0)
(-0.754241 0.0332964 0)
(-0.660442 0.0525328 0)
(-0.587964 0.0772157 0)
(-0.534082 0.102439 0)
(-0.488316 0.124832 0)
(-0.43503 0.139803 0)
(-0.366974 0.145217 0)
(-0.291962 0.152123 0)
(-0.208742 0.149401 0)
(-6.35658 0.0133361 0)
(-1.84313 0.0491258 0)
(0.727886 -0.10284 0)
(0.481583 -0.154896 0)
(0.257681 -0.102221 0)
(-0.32107 -0.0402088 0)
(-0.976714 0.0225509 0)
(-1.17593 0.0442673 0)
(-1.13181 0.0405547 0)
(-1.01155 0.0184962 0)
(-0.890252 -0.0145954 0)
(-0.77909 -0.0572017 0)
(-0.67495 -0.1021 0)
(-0.563726 -0.144715 0)
(-0.427092 -0.174907 0)
(-0.268603 -0.184439 0)
(-0.0984908 -0.185113 0)
(0.0678286 -0.180264 0)
(0.217789 -0.173364 0)
(0.347527 -0.158976 0)
(0.463047 -0.138998 0)
(0.569135 -0.109578 0)
(0.657922 -0.0734645 0)
(0.720894 -0.0441362 0)
(0.759728 -0.0281163 0)
(0.730436 -0.0186852 0)
(0.492009 0.000709897 0)
(-0.207758 0.021519 0)
(-0.811247 0.0464229 0)
(-0.888888 0.0662778 0)
(-0.835506 0.0859432 0)
(-0.741209 0.0978213 0)
(-0.647932 0.107295 0)
(-0.575994 0.119509 0)
(-0.521617 0.137482 0)
(-0.478537 0.159836 0)
(-0.435016 0.18021 0)
(-0.377356 0.191745 0)
(-0.305572 0.199982 0)
(-0.223575 0.19341 0)
(-6.35959 0.0186937 0)
(-1.84656 0.0419723 0)
(0.746787 -0.0803663 0)
(0.507742 -0.11279 0)
(0.306222 -0.059811 0)
(-0.252454 -0.0165406 0)
(-0.944803 0.0255615 0)
(-1.17529 0.0407483 0)
(-1.14441 0.0296328 0)
(-1.03805 0.00429646 0)
(-0.925235 -0.0319153 0)
(-0.816517 -0.0742513 0)
(-0.705685 -0.116573 0)
(-0.579339 -0.151447 0)
(-0.427945 -0.166977 0)
(-0.257513 -0.166933 0)
(-0.083353 -0.159805 0)
(0.0809183 -0.154883 0)
(0.227492 -0.153152 0)
(0.359751 -0.148975 0)
(0.484798 -0.141965 0)
(0.599814 -0.128245 0)
(0.693904 -0.11064 0)
(0.752648 -0.0980494 0)
(0.784284 -0.0908243 0)
(0.755519 -0.0824043 0)
(0.530871 -0.046268 0)
(-0.161796 0.00697047 0)
(-0.783245 0.0602953 0)
(-0.861492 0.111231 0)
(-0.820951 0.140712 0)
(-0.739914 0.1598 0)
(-0.649246 0.164369 0)
(-0.575516 0.165781 0)
(-0.51519 0.177088 0)
(-0.467087 0.196904 0)
(-0.427464 0.219666 0)
(-0.382538 0.238217 0)
(-0.318047 0.247755 0)
(-0.239572 0.235034 0)
(-6.36046 0.0183427 0)
(-1.84718 0.0300171 0)
(0.760708 -0.0403031 0)
(0.531716 -0.050722 0)
(0.34392 -0.0255409 0)
(-0.209916 0.00452906 0)
(-0.926141 0.0239857 0)
(-1.17414 0.0261663 0)
(-1.15088 0.0107414 0)
(-1.05852 -0.0170465 0)
(-0.951242 -0.0518896 0)
(-0.84094 -0.0884864 0)
(-0.719947 -0.11792 0)
(-0.577684 -0.137496 0)
(-0.415592 -0.143428 0)
(-0.242126 -0.139775 0)
(-0.0691361 -0.133647 0)
(0.0913172 -0.129758 0)
(0.235212 -0.128094 0)
(0.369416 -0.129085 0)
(0.497206 -0.128235 0)
(0.615032 -0.128237 0)
(0.708773 -0.132401 0)
(0.766641 -0.139565 0)
(0.796513 -0.151715 0)
(0.781346 -0.141266 0)
(0.598255 -0.0939771 0)
(-0.0779095 -0.02222 0)
(-0.727849 0.0587617 0)
(-0.813057 0.12425 0)
(-0.790679 0.171517 0)
(-0.731157 0.203815 0)
(-0.656945 0.21611 0)
(-0.581713 0.216585 0)
(-0.515055 0.222307 0)
(-0.460733 0.239631 0)
(-0.421094 0.26176 0)
(-0.386622 0.282273 0)
(-0.331592 0.293137 0)
(-0.257675 0.274471 0)
(-6.36045 0.0148145 0)
(-1.8464 0.017048 0)
(0.766186 0.00434736 0)
(0.545244 0.0133418 0)
(0.359881 0.021569 0)
(-0.200144 0.0261215 0)
(-0.926809 0.0114462 0)
(-1.17554 0.00123243 0)
(-1.15477 -0.0154094 0)
(-1.07543 -0.0403053 0)
(-0.96989 -0.0657546 0)
(-0.853032 -0.087861 0)
(-0.719511 -0.103884 0)
(-0.567038 -0.111245 0)
(-0.400442 -0.1136 0)
(-0.226729 -0.111832 0)
(-0.0570114 -0.107741 0)
(0.0994755 -0.103489 0)
(0.242713 -0.1024 0)
(0.377341 -0.104286 0)
(0.50326 -0.108032 0)
(0.615503 -0.117405 0)
(0.70723 -0.137284 0)
(0.763978 -0.163381 0)
(0.799217 -0.179922 0)
(0.812644 -0.164189 0)
(0.680282 -0.122099 0)
(0.0367546 -0.0484224 0)
(-0.658434 0.0447146 0)
(-0.761082 0.10671 0)
(-0.752803 0.160949 0)
(-0.701092 0.208214 0)
(-0.650964 0.244583 0)
(-0.589118 0.258287 0)
(-0.522271 0.267038 0)
(-0.460184 0.283883 0)
(-0.418689 0.30349 0)
(-0.38868 0.320837 0)
(-0.34349 0.330713 0)
(-0.273906 0.310504 0)
(-6.35982 0.0101183 0)
(-1.8452 0.00167301 0)
(0.760591 0.0467072 0)
(0.543241 0.0773465 0)
(0.351218 0.0598228 0)
(-0.22512 0.0325073 0)
(-0.948376 -0.0118617 0)
(-1.18362 -0.0318778 0)
(-1.16227 -0.0467012 0)
(-1.08856 -0.0630177 0)
(-0.980237 -0.0724829 0)
(-0.855046 -0.0778141 0)
(-0.713238 -0.0781633 0)
(-0.555385 -0.0785842 0)
(-0.387044 -0.0796911 0)
(-0.213931 -0.0828768 0)
(-0.0463135 -0.0819772 0)
(0.107987 -0.0803141 0)
(0.250118 -0.0777973 0)
(0.383528 -0.0793737 0)
(0.505784 -0.087647 0)
(0.609969 -0.103585 0)
(0.697256 -0.129311 0)
(0.755541 -0.164058 0)
(0.811517 -0.172901 0)
(0.857851 -0.146651 0)
(0.759507 -0.113732 0)
(0.149206 -0.051554 0)
(-0.600443 0.0281167 0)
(-0.723531 0.0679564 0)
(-0.709776 0.115089 0)
(-0.660284 0.171474 0)
(-0.623362 0.22896 0)
(-0.583543 0.271326 0)
(-0.522455 0.293823 0)
(-0.460921 0.31005 0)
(-0.416188 0.3254 0)
(-0.387282 0.337526 0)
(-0.353111 0.346619 0)
(-0.291241 0.327468 0)
(-6.35919 0.00645494 0)
(-1.84343 -0.0111123 0)
(0.745279 0.0830671 0)
(0.526313 0.134267 0)
(0.315013 0.0907674 0)
(-0.293585 0.0304169 0)
(-0.988818 -0.0446704 0)
(-1.19507 -0.0740791 0)
(-1.17197 -0.0830501 0)
(-1.09333 -0.083996 0)
(-0.97901 -0.0781427 0)
(-0.8481 -0.0643789 0)
(-0.703282 -0.0483343 0)
(-0.545435 -0.04124 0)
(-0.378662 -0.041573 0)
(-0.20816 -0.0489637 0)
(-0.0421799 -0.0545265 0)
(0.111986 -0.0551629 0)
(0.254297 -0.0525473 0)
(0.38671 -0.0575755 0)
(0.50517 -0.0737259 0)
(0.601607 -0.0936489 0)
(0.683894 -0.119806 0)
(0.751796 -0.148237 0)
(0.834424 -0.14117 0)
(0.906547 -0.108527 0)
(0.822855 -0.0898121 0)
(0.243429 -0.039686 0)
(-0.559915 0.0171843 0)
(-0.705909 0.0353711 0)
(-0.671102 0.0640672 0)
(-0.610788 0.11205 0)
(-0.56826 0.176896 0)
(-0.549046 0.241508 0)
(-0.515435 0.285224 0)
(-0.46503 0.306438 0)
(-0.419995 0.317752 0)
(-0.389645 0.326068 0)
(-0.359731 0.33585 0)
(-0.303344 0.324594 0)
(-6.35808 0.00458285 0)
(-1.84026 -0.0213152 0)
(0.72851 0.111071 0)
(0.501551 0.180788 0)
(0.251314 0.114925 0)
(-0.404071 0.0209245 0)
(-1.04816 -0.0759466 0)
(-1.21323 -0.108886 0)
(-1.17659 -0.113691 0)
(-1.08586 -0.101573 0)
(-0.965757 -0.0784237 0)
(-0.834658 -0.047441 0)
(-0.695522 -0.019498 0)
(-0.544159 -0.00668941 0)
(-0.382336 -0.00756854 0)
(-0.215308 -0.0217851 0)
(-0.0489917 -0.0322182 0)
(0.109773 -0.0356311 0)
(0.255744 -0.0355528 0)
(0.386785 -0.0452483 0)
(0.500561 -0.0679155 0)
(0.593286 -0.0884354 0)
(0.678096 -0.105306 0)
(0.759412 -0.112375 0)
(0.865963 -0.0985086 0)
(0.95742 -0.0723043 0)
(0.873419 -0.0602539 0)
(0.314026 -0.0211033 0)
(-0.536373 0.0181913 0)
(-0.704984 0.0175964 0)
(-0.652553 0.0261713 0)
(-0.570421 0.0530462 0)
(-0.509752 0.100958 0)
(-0.488851 0.164499 0)
(-0.484587 0.224101 0)
(-0.463118 0.260718 0)
(-0.42352 0.27598 0)
(-0.38619 0.285193 0)
(-0.358961 0.302602 0)
(-0.311087 0.307827 0)
(-6.35448 0.00246491 0)
(-1.83458 -0.0308036 0)
(0.713637 0.123843 0)
(0.470374 0.205639 0)
(0.163276 0.124339 0)
(-0.541929 0.00693346 0)
(-1.10963 -0.0996891 0)
(-1.23166 -0.130114 0)
(-1.17413 -0.134284 0)
(-1.07027 -0.114612 0)
(-0.943011 -0.0826255 0)
(-0.81114 -0.0412421 0)
(-0.679993 -0.000615141 0)
(-0.540825 0.0217729 0)
(-0.388142 0.0229821 0)
(-0.225978 0.00500993 0)
(-0.0598557 -0.0105484 0)
(0.102678 -0.0188495 0)
(0.252061 -0.0236702 0)
(0.384356 -0.0394873 0)
(0.496122 -0.0685492 0)
(0.592503 -0.0867144 0)
(0.683655 -0.0849008 0)
(0.781909 -0.0675842 0)
(0.897372 -0.0501235 0)
(0.995598 -0.0337812 0)
(0.909247 -0.0257132 0)
(0.360642 0.00362045 0)
(-0.52824 0.0224403 0)
(-0.714789 0.0108804 0)
(-0.656484 0.00625845 0)
(-0.549202 0.0133066 0)
(-0.471675 0.035559 0)
(-0.438478 0.0672595 0)
(-0.440002 0.111915 0)
(-0.44352 0.153887 0)
(-0.418596 0.183263 0)
(-0.375295 0.20369 0)
(-0.344277 0.236326 0)
(-0.308182 0.262943 0)
(-6.34672 -0.000113286 0)
(-1.82582 -0.0374599 0)
(0.702607 0.118797 0)
(0.434621 0.197718 0)
(0.0618461 0.111532 0)
(-0.688564 -0.0119435 0)
(-1.16429 -0.111344 0)
(-1.2467 -0.137732 0)
(-1.1701 -0.139091 0)
(-1.0499 -0.117972 0)
(-0.914145 -0.0872409 0)
(-0.780014 -0.0418854 0)
(-0.656679 0.00834257 0)
(-0.53582 0.0438407 0)
(-0.398605 0.0507723 0)
(-0.243628 0.0307289 0)
(-0.0774797 0.00974999 0)
(0.0899819 -0.00534016 0)
(0.245539 -0.0159095 0)
(0.381095 -0.0382798 0)
(0.498465 -0.06764 0)
(0.608443 -0.0789682 0)
(0.705025 -0.0568261 0)
(0.813631 -0.0261382 0)
(0.928759 -0.00708834 0)
(1.02437 -0.00274969 0)
(0.935404 0.00376811 0)
(0.385971 0.019798 0)
(-0.533132 0.0245589 0)
(-0.733383 0.00949956 0)
(-0.672615 -0.000225343 0)
(-0.555306 -0.00985861 0)
(-0.463563 -0.0140298 0)
(-0.419847 -0.0178528 0)
(-0.413503 -0.00918436 0)
(-0.416711 0.0137959 0)
(-0.397674 0.0483555 0)
(-0.353091 0.0832191 0)
(-0.316706 0.127284 0)
(-0.288232 0.172279 0)
(-6.33645 -0.00197027 0)
(-1.81557 -0.0336428 0)
(0.700148 0.0934303 0)
(0.402055 0.150148 0)
(-0.0344962 0.0769265 0)
(-0.820958 -0.0290549 0)
(-1.20724 -0.112521 0)
(-1.25422 -0.129752 0)
(-1.16106 -0.127977 0)
(-1.02974 -0.108687 0)
(-0.885426 -0.0854231 0)
(-0.74438 -0.0465619 0)
(-0.622489 0.00583722 0)
(-0.518401 0.0499814 0)
(-0.406711 0.0711973 0)
(-0.265874 0.0569949 0)
(-0.102088 0.0299912 0)
(0.0691616 0.00508567 0)
(0.232188 -0.0121988 0)
(0.37946 -0.0355424 0)
(0.512266 -0.0616973 0)
(0.63193 -0.0612309 0)
(0.739579 -0.0262978 0)
(0.845973 0.0106079 0)
(0.956691 0.0272232 0)
(1.0453 0.0244043 0)
(0.951399 0.0305176 0)
(0.393554 0.0344619 0)
(-0.549087 0.0236784 0)
(-0.756085 0.00813399 0)
(-0.696608 -0.00664379 0)
(-0.580902 -0.0257747 0)
(-0.488744 -0.0481968 0)
(-0.435579 -0.0803096 0)
(-0.413142 -0.102234 0)
(-0.402025 -0.10201 0)
(-0.371151 -0.0752005 0)
(-0.325531 -0.0349807 0)
(-0.286403 0.00944545 0)
(-0.263832 0.0559839 0)
(-6.32845 -0.00584216 0)
(-1.80762 -0.0243185 0)
(0.705711 0.0531786 0)
(0.382571 0.0792555 0)
(-0.108941 0.0315917 0)
(-0.911234 -0.0391748 0)
(-1.23826 -0.0966941 0)
(-1.25299 -0.104136 0)
(-1.14873 -0.0990123 0)
(-1.01217 -0.084768 0)
(-0.861101 -0.0718049 0)
(-0.709944 -0.0448707 0)
(-0.580772 -0.00134406 0)
(-0.485223 0.0446881 0)
(-0.40304 0.077258 0)
(-0.288307 0.0780894 0)
(-0.134843 0.0521631 0)
(0.0379141 0.0178012 0)
(0.211929 -0.00565717 0)
(0.378923 -0.0260014 0)
(0.530271 -0.0430632 0)
(0.662246 -0.0354013 0)
(0.772455 0.00375191 0)
(0.875602 0.0391985 0)
(0.979846 0.0532883 0)
(1.06052 0.0483418 0)
(0.96226 0.0530984 0)
(0.386452 0.0437564 0)
(-0.576818 0.0158728 0)
(-0.784037 -0.00299272 0)
(-0.727675 -0.0238164 0)
(-0.618449 -0.052964 0)
(-0.52784 -0.086727 0)
(-0.470031 -0.1294 0)
(-0.432204 -0.16478 0)
(-0.396595 -0.172628 0)
(-0.350055 -0.150843 0)
(-0.300427 -0.115159 0)
(-0.259298 -0.0777726 0)
(-0.24089 -0.0380974 0)
(-6.32498 -0.00776807 0)
(-1.80424 -0.0112624 0)
(0.715116 0.0059952 0)
(0.376248 -0.00437755 0)
(-0.15014 -0.0126588 0)
(-0.95524 -0.0340529 0)
(-1.25275 -0.0658161 0)
(-1.24934 -0.0623804 0)
(-1.14072 -0.0554878 0)
(-1.00127 -0.0467677 0)
(-0.846165 -0.0405946 0)
(-0.686287 -0.0263216 0)
(-0.543105 -0.000682308 0)
(-0.442415 0.0339996 0)
(-0.378974 0.0688792 0)
(-0.301604 0.0876412 0)
(-0.169486 0.073162 0)
(0.000657541 0.0353978 0)
(0.188589 0.0115455 0)
(0.372475 -0.00956837 0)
(0.548948 -0.0169879 0)
(0.690694 -0.00527592 0)
(0.797829 0.0301249 0)
(0.897993 0.0600359 0)
(0.996181 0.0702754 0)
(1.06872 0.0650015 0)
(0.963986 0.066238 0)
(0.355708 0.0421251 0)
(-0.618679 -0.00462368 0)
(-0.818367 -0.0316198 0)
(-0.763658 -0.0577932 0)
(-0.665997 -0.090747 0)
(-0.58181 -0.131922 0)
(-0.513602 -0.172689 0)
(-0.455486 -0.201854 0)
(-0.396033 -0.207328 0)
(-0.333977 -0.188483 0)
(-0.279201 -0.15765 0)
(-0.236473 -0.128773 0)
(-0.220284 -0.100117 0)
(-6.32692 -0.0100322 0)
(-1.8056 -0.000382486 0)
(0.727094 -0.045334 0)
(0.38482 -0.0811812 0)
(-0.151101 -0.0544209 0)
(-0.957679 -0.0296476 0)
(-1.25189 -0.0208758 0)
(-1.24663 -0.00386379 0)
(-1.13563 0.00239383 0)
(-0.996344 0.00262175 0)
(-0.839316 -0.00192195 0)
(-0.674531 -0.000348075 0)
(-0.518789 0.0122121 0)
(-0.403595 0.0294063 0)
(-0.340782 0.053197 0)
(-0.296015 0.0814798 0)
(-0.192636 0.0894224 0)
(-0.0318375 0.0606222 0)
(0.161784 0.0376591 0)
(0.370329 0.0186202 0)
(0.562059 0.0133471 0)
(0.709554 0.024284 0)
(0.817988 0.0509991 0)
(0.914504 0.0770258 0)
(1.00644 0.0773628 0)
(1.06958 0.0693166 0)
(0.953979 0.0647267 0)
(0.301285 0.0242065 0)
(-0.671063 -0.0430428 0)
(-0.853999 -0.0772002 0)
(-0.809423 -0.104137 0)
(-0.718211 -0.141519 0)
(-0.633028 -0.181839 0)
(-0.544702 -0.208253 0)
(-0.465132 -0.224456 0)
(-0.392721 -0.225374 0)
(-0.323931 -0.209849 0)
(-0.268573 -0.189265 0)
(-0.228225 -0.171126 0)
(-0.21255 -0.151801 0)
(-6.33479 -0.00916862 0)
(-1.81198 0.0140735 0)
(0.736812 -0.0928448 0)
(0.403158 -0.147175 0)
(-0.11079 -0.0914218 0)
(-0.917785 -0.021401 0)
(-1.22536 0.0220367 0)
(-1.23093 0.0444923 0)
(-1.13084 0.060503 0)
(-0.998297 0.0593582 0)
(-0.843274 0.0472298 0)
(-0.674169 0.033285 0)
(-0.508108 0.026692 0)
(-0.375978 0.0305938 0)
(-0.301476 0.042204 0)
(-0.26739 0.0710002 0)
(-0.1984 0.0925678 0)
(-0.052239 0.0861904 0)
(0.141552 0.0715908 0)
(0.365983 0.0534955 0)
(0.568583 0.0469431 0)
(0.720004 0.056962 0)
(0.829821 0.0721955 0)
(0.922565 0.083636 0)
(1.007 0.0772656 0)
(1.0596 0.0598248 0)
(0.930164 0.0384346 0)
(0.22846 -0.0206726 0)
(-0.730639 -0.0963828 0)
(-0.891824 -0.130681 0)
(-0.854783 -0.15807 0)
(-0.758759 -0.184561 0)
(-0.667326 -0.210051 0)
(-0.562577 -0.223247 0)
(-0.470421 -0.232453 0)
(-0.393 -0.234787 0)
(-0.322027 -0.226446 0)
(-0.274583 -0.214068 0)
(-0.239211 -0.216959 0)
(-0.216447 -0.217718 0)
(-6.34438 -0.00658982 0)
(-1.82019 0.0182965 0)
(0.750445 -0.126785 0)
(0.437596 -0.18843 0)
(-0.0406896 -0.119423 0)
(-0.835941 -0.0256537 0)
(-1.18181 0.0474204 0)
(-1.21442 0.0806244 0)
(-1.12429 0.0988398 0)
(-1.00295 0.104325 0)
(-0.854035 0.0923582 0)
(-0.684624 0.0704184 0)
(-0.509711 0.0493263 0)
(-0.361267 0.0372026 0)
(-0.268729 0.0396693 0)
(-0.224833 0.0622919 0)
(-0.18145 0.0978816 0)
(-0.0551897 0.102549 0)
(0.127812 0.0987505 0)
(0.352825 0.0884429 0)
(0.564564 0.0771424 0)
(0.720976 0.0790412 0)
(0.832087 0.079425 0)
(0.918735 0.0806078 0)
(0.991311 0.0606887 0)
(1.0325 0.028005 0)
(0.886095 -0.00375441 0)
(0.136486 -0.0709778 0)
(-0.789442 -0.148399 0)
(-0.927796 -0.176172 0)
(-0.886725 -0.190615 0)
(-0.786037 -0.203517 0)
(-0.68294 -0.217142 0)
(-0.571679 -0.222623 0)
(-0.474639 -0.229552 0)
(-0.395587 -0.235608 0)
(-0.333682 -0.236286 0)
(-0.295897 -0.244457 0)
(-0.261108 -0.262707 0)
(-0.216834 -0.268171 0)
(-6.34961 -0.00309065 0)
(-1.82627 0.0150514 0)
(0.76335 -0.138322 0)
(0.476737 -0.197479 0)
(0.0425901 -0.129915 0)
(-0.726066 -0.0291717 0)
(-1.12922 0.0617029 0)
(-1.19143 0.0993487 0)
(-1.11185 0.11761 0)
(-1.00195 0.123147 0)
(-0.864195 0.119168 0)
(-0.701841 0.103868 0)
(-0.525124 0.0779925 0)
(-0.361705 0.0534434 0)
(-0.246387 0.0445001 0)
(-0.181675 0.0604851 0)
(-0.139876 0.098261 0)
(-0.0388836 0.124935 0)
(0.127835 0.124465 0)
(0.334811 0.113704 0)
(0.550474 0.0991446 0)
(0.710987 0.090885 0)
(0.820703 0.0779431 0)
(0.898642 0.0657838 0)
(0.95261 0.0281795 0)
(0.986626 -0.0150771 0)
(0.83067 -0.0474635 0)
(0.0483958 -0.120063 0)
(-0.833066 -0.182255 0)
(-0.951571 -0.199234 0)
(-0.900688 -0.203842 0)
(-0.797104 -0.206626 0)
(-0.689571 -0.207902 0)
(-0.574323 -0.210074 0)
(-0.478871 -0.218418 0)
(-0.402645 -0.2281 0)
(-0.354873 -0.242484 0)
(-0.325615 -0.261568 0)
(-0.283483 -0.284293 0)
(-0.21119 -0.285413 0)
(-6.3505 -0.000497763 0)
(-1.82929 0.00846509 0)
(0.770921 -0.121105 0)
(0.506097 -0.167144 0)
(0.120456 -0.118814 0)
(-0.610004 -0.0355577 0)
(-1.0727 0.0575818 0)
(-1.16603 0.0958454 0)
(-1.09703 0.115001 0)
(-0.997171 0.122878 0)
(-0.868878 0.124247 0)
(-0.718924 0.119442 0)
(-0.550131 0.102793 0)
(-0.378629 0.0752098 0)
(-0.238551 0.055307 0)
(-0.146566 0.0630734 0)
(-0.0887096 0.0929314 0)
(-0.00699328 0.125925 0)
(0.138209 0.140929 0)
(0.323596 0.12828 0)
(0.533891 0.111858 0)
(0.693324 0.0906395 0)
(0.796506 0.0648692 0)
(0.861658 0.0395167 0)
(0.90042 -0.007681 0)
(0.935184 -0.0435619 0)
(0.776274 -0.0785484 0)
(-0.0297514 -0.14745 0)
(-0.863263 -0.191928 0)
(-0.964985 -0.1991 0)
(-0.906753 -0.197192 0)
(-0.798703 -0.192189 0)
(-0.690039 -0.185802 0)
(-0.581711 -0.189414 0)
(-0.492311 -0.200195 0)
(-0.420487 -0.221382 0)
(-0.383175 -0.242337 0)
(-0.354098 -0.264999 0)
(-0.293789 -0.272413 0)
(-0.202145 -0.264372 0)
(-6.34987 -2.16013e-05 0)
(-1.83055 0.0031654 0)
(0.767161 -0.0816634 0)
(0.518785 -0.114844 0)
(0.177644 -0.0937573 0)
(-0.508221 -0.0396846 0)
(-1.01945 0.0424153 0)
(-1.14198 0.0731363 0)
(-1.07917 0.0922195 0)
(-0.986937 0.105147 0)
(-0.865531 0.114718 0)
(-0.726691 0.123513 0)
(-0.570583 0.116965 0)
(-0.403498 0.0939905 0)
(-0.246897 0.0697385 0)
(-0.127808 0.0681554 0)
(-0.0456957 0.0844479 0)
(0.0327731 0.107111 0)
(0.151831 0.14196 0)
(0.319125 0.132107 0)
(0.512091 0.116229 0)
(0.669278 0.0811832 0)
(0.764885 0.0498611 0)
(0.813412 0.0140016 0)
(0.845992 -0.0261743 0)
(0.888731 -0.054832 0)
(0.725552 -0.0898047 0)
(-0.0941993 -0.148398 0)
(-0.881441 -0.178381 0)
(-0.970654 -0.180465 0)
(-0.904202 -0.173699 0)
(-0.796188 -0.165222 0)
(-0.695009 -0.15878 0)
(-0.596556 -0.163581 0)
(-0.514134 -0.181609 0)
(-0.449435 -0.207513 0)
(-0.4138 -0.233086 0)
(-0.367969 -0.243423 0)
(-0.28853 -0.235368 0)
(-0.189076 -0.22238 0)
(-6.34937 0.00191992 0)
(-1.83143 0.00331257 0)
(0.749447 -0.0383741 0)
(0.514301 -0.0616045 0)
(0.211319 -0.0628827 0)
(-0.432682 -0.0338993 0)
(-0.977403 0.0281616 0)
(-1.11858 0.04411 0)
(-1.05857 0.0552319 0)
(-0.964095 0.0694277 0)
(-0.847634 0.0926477 0)
(-0.722331 0.115627 0)
(-0.580829 0.122136 0)
(-0.425118 0.11092 0)
(-0.26643 0.086151 0)
(-0.126665 0.0685463 0)
(-0.019418 0.0737091 0)
(0.069416 0.0912621 0)
(0.170624 0.127006 0)
(0.319574 0.126784 0)
(0.489589 0.118502 0)
(0.640461 0.0750366 0)
(0.731328 0.0429093 0)
(0.766208 0.00284404 0)
(0.799573 -0.0218723 0)
(0.847772 -0.0474109 0)
(0.678017 -0.0797373 0)
(-0.138722 -0.123439 0)
(-0.886909 -0.148808 0)
(-0.969781 -0.148354 0)
(-0.898393 -0.142847 0)
(-0.792889 -0.135671 0)
(-0.70226 -0.130461 0)
(-0.616765 -0.137695 0)
(-0.5412 -0.15848 0)
(-0.482291 -0.185484 0)
(-0.432605 -0.206215 0)
(-0.363275 -0.201647 0)
(-0.276604 -0.184998 0)
(-0.180443 -0.174739 0)
(-6.34988 0.00114808 0)
(-1.83309 0.0042127 0)
(0.721228 -0.00445058 0)
(0.49684 -0.0215878 0)
(0.229065 -0.0351137 0)
(-0.38309 -0.0192313 0)
(-0.955031 0.017192 0)
(-1.10657 0.0171555 0)
(-1.0451 0.0212545 0)
(-0.934076 0.0287739 0)
(-0.81475 0.0558742 0)
(-0.700551 0.0945029 0)
(-0.579695 0.116573 0)
(-0.444377 0.112482 0)
(-0.296488 0.0878047 0)
(-0.145036 0.0583908 0)
(-0.011298 0.0480725 0)
(0.0971439 0.0608036 0)
(0.197126 0.0983871 0)
(0.320947 0.119167 0)
(0.472834 0.121588 0)
(0.609672 0.077682 0)
(0.695498 0.0446624 0)
(0.72946 0.00749027 0)
(0.761647 -0.0125524 0)
(0.809907 -0.0279053 0)
(0.631867 -0.0577115 0)
(-0.174813 -0.0885513 0)
(-0.890021 -0.110281 0)
(-0.966402 -0.111566 0)
(-0.888895 -0.10923 0)
(-0.790221 -0.103525 0)
(-0.708101 -0.0996823 0)
(-0.638582 -0.109656 0)
(-0.572563 -0.13185 0)
(-0.507309 -0.154032 0)
(-0.432134 -0.161412 0)
(-0.346274 -0.150305 0)
(-0.26051 -0.132431 0)
(-0.181116 -0.128606 0)
(-6.35031 0.000192999 0)
(-1.83477 0.00514507 0)
(0.694504 0.0203467 0)
(0.479141 0.00397301 0)
(0.241224 -0.0125655 0)
(-0.351134 -0.0003288 0)
(-0.94477 0.0146175 0)
(-1.10524 0.00656458 0)
(-1.04282 0.00362081 0)
(-0.913695 0.00352908 0)
(-0.783674 0.0201709 0)
(-0.669855 0.0521956 0)
(-0.570175 0.0857894 0)
(-0.462761 0.0910064 0)
(-0.331297 0.0644398 0)
(-0.173494 0.0309343 0)
(-0.0118707 0.0212 0)
(0.123395 0.0338771 0)
(0.232033 0.0692793 0)
(0.331528 0.112884 0)
(0.459245 0.124746 0)
(0.573833 0.0845526 0)
(0.663468 0.0467393 0)
(0.700866 0.0123379 0)
(0.73396 0.0212118 0)
(0.773623 0.00150707 0)
(0.584493 -0.0289583 0)
(-0.207564 -0.0462342 0)
(-0.896167 -0.065813 0)
(-0.966375 -0.0685905 0)
(-0.880962 -0.0720379 0)
(-0.78462 -0.0709717 0)
(-0.713777 -0.0680753 0)
(-0.658214 -0.0764783 0)
(-0.5955 -0.0946441 0)
(-0.514726 -0.107185 0)
(-0.420138 -0.107589 0)
(-0.323958 -0.097951 0)
(-0.247489 -0.0892815 0)
(-0.193506 -0.0986386 0)
(-6.34966 -0.00188574 0)
(-1.83598 0.00359361 0)
(0.671958 0.0359531 0)
(0.462845 0.0203583 0)
(0.250604 0.00584835 0)
(-0.332869 0.0181973 0)
(-0.947158 0.0169436 0)
(-1.11109 0.00677506 0)
(-1.04432 0.00246178 0)
(-0.90453 0.00409343 0)
(-0.767831 0.0097987 0)
(-0.649308 0.0163822 0)
(-0.556802 0.0275584 0)
(-0.473851 0.0321167 0)
(-0.358731 0.0205879 0)
(-0.198603 0.00326327 0)
(-0.0186229 0.00224279 0)
(0.146011 0.012382 0)
(0.269447 0.0513276 0)
(0.350179 0.106362 0)
(0.450387 0.12487 0)
(0.531378 0.0918837 0)
(0.626373 0.050981 0)
(0.682898 0.0290881 0)
(0.720524 0.0466472 0)
(0.744893 0.0357336 0)
(0.540533 0.00493466 0)
(-0.234331 -0.00553816 0)
(-0.906246 -0.0208688 0)
(-0.974957 -0.0277647 0)
(-0.880807 -0.0319165 0)
(-0.785556 -0.0329563 0)
(-0.722767 -0.0350485 0)
(-0.67644 -0.0426365 0)
(-0.609585 -0.0511653 0)
(-0.515583 -0.0523984 0)
(-0.409463 -0.0499786 0)
(-0.311117 -0.0492364 0)
(-0.250499 -0.0587355 0)
(-0.219841 -0.0843328 0)
(-6.34874 -0.00240747 0)
(-1.83673 0.00376356 0)
(0.660489 0.0392912 0)
(0.452757 0.0251785 0)
(0.255577 0.019721 0)
(-0.32762 0.0315816 0)
(-0.95725 0.0198477 0)
(-1.1152 0.0115876 0)
(-1.0429 0.013925 0)
(-0.901529 0.0164467 0)
(-0.77225 0.013103 0)
(-0.660034 -0.000553417 0)
(-0.567968 -0.022116 0)
(-0.482179 -0.0436553 0)
(-0.36474 -0.0466666 0)
(-0.202472 -0.0428087 0)
(-0.0162907 -0.0253514 0)
(0.16435 -0.00331582 0)
(0.299795 0.0369624 0)
(0.369159 0.0886749 0)
(0.43237 0.118848 0)
(0.490809 0.09435 0)
(0.584658 0.057185 0)
(0.671899 0.0407037 0)
(0.722501 0.0583278 0)
(0.729975 0.0641228 0)
(0.507451 0.0384981 0)
(-0.249257 0.0350292 0)
(-0.912271 0.0229052 0)
(-0.980966 0.0120101 0)
(-0.881755 0.00577427 0)
(-0.787901 0.00273091 0)
(-0.727374 0.00208468 0)
(-0.678511 0.00272431 0)
(-0.606945 0.00436138 0)
(-0.509433 0.00589765 0)
(-0.404655 0.000668813 0)
(-0.317567 -0.0168103 0)
(-0.271256 -0.0436599 0)
(-0.260623 -0.0883435 0)
(-6.34806 -0.00274219 0)
(-1.83695 0.00327517 0)
(0.660093 0.0303694 0)
(0.451108 0.0193024 0)
(0.262267 0.0253319 0)
(-0.327629 0.0399775 0)
(-0.96272 0.0260651 0)
(-1.11248 0.0277574 0)
(-1.03893 0.0327462 0)
(-0.907059 0.0302168 0)
(-0.793796 0.0147089 0)
(-0.698984 -0.0216109 0)
(-0.609066 -0.0729212 0)
(-0.496342 -0.105136 0)
(-0.352256 -0.0945735 0)
(-0.183831 -0.0692942 0)
(0.00195023 -0.0402478 0)
(0.185055 -0.0140476 0)
(0.326183 0.0184304 0)
(0.391606 0.0645331 0)
(0.418289 0.0995645 0)
(0.459204 0.08682 0)
(0.547184 0.0582869 0)
(0.662685 0.0481106 0)
(0.731173 0.0610075 0)
(0.733144 0.0848338 0)
(0.492944 0.074508 0)
(-0.250245 0.074875 0)
(-0.913224 0.0679289 0)
(-0.981639 0.0523523 0)
(-0.881534 0.0433252 0)
(-0.784925 0.0388739 0)
(-0.720101 0.0420516 0)
(-0.66815 0.0508762 0)
(-0.597231 0.0572322 0)
(-0.506374 0.0521636 0)
(-0.41108 0.032714 0)
(-0.341625 -0.000898268 0)
(-0.307754 -0.0471478 0)
(-0.309358 -0.100768 0)
(-6.34763 -0.0032499 0)
(-1.83698 0.00294093 0)
(0.672796 0.016046 0)
(0.457886 0.00322892 0)
(0.271271 0.0257347 0)
(-0.324649 0.0376378 0)
(-0.960005 0.0325702 0)
(-1.10529 0.0458921 0)
(-1.03582 0.0458998 0)
(-0.925788 0.0373633 0)
(-0.837433 0.00453161 0)
(-0.762914 -0.0601161 0)
(-0.654997 -0.116608 0)
(-0.501781 -0.133111 0)
(-0.331388 -0.122241 0)
(-0.159263 -0.0982453 0)
(0.0193584 -0.0682558 0)
(0.197294 -0.0404692 0)
(0.341167 -0.016818 0)
(0.405761 0.0217257 0)
(0.414597 0.0581688 0)
(0.441092 0.0732095 0)
(0.520669 0.0650916 0)
(0.655015 0.0586732 0)
(0.743185 0.0664067 0)
(0.74943 0.0956496 0)
(0.497961 0.107861 0)
(-0.250792 0.111454 0)
(-0.920061 0.106324 0)
(-0.984524 0.0880166 0)
(-0.881156 0.0782659 0)
(-0.775878 0.0733448 0)
(-0.701183 0.0794657 0)
(-0.646312 0.0919285 0)
(-0.584559 0.0975275 0)
(-0.50895 0.0820484 0)
(-0.43343 0.0485449 0)
(-0.378797 -0.0017068 0)
(-0.352606 -0.0601413 0)
(-0.340238 -0.101926 0)
(-6.34872 -0.00280352 0)
(-1.83767 0.00423449 0)
(0.691731 -0.00427547 0)
(0.471741 -0.014421 0)
(0.281177 0.00978472 0)
(-0.31354 0.0300008 0)
(-0.952163 0.0417757 0)
(-1.1036 0.0543886 0)
(-1.04353 0.0508446 0)
(-0.96394 0.0284088 0)
(-0.903167 -0.0304589 0)
(-0.827738 -0.101625 0)
(-0.680195 -0.132703 0)
(-0.501081 -0.138448 0)
(-0.316722 -0.128749 0)
(-0.139434 -0.109194 0)
(0.0329366 -0.0881445 0)
(0.204016 -0.072817 0)
(0.34847 -0.0664558 0)
(0.419868 -0.0384874 0)
(0.425576 0.00161966 0)
(0.448787 0.043339 0)
(0.507021 0.0698793 0)
(0.649195 0.0778175 0)
(0.753766 0.0829857 0)
(0.767528 0.11469 0)
(0.508564 0.133613 0)
(-0.254564 0.139244 0)
(-0.924679 0.133155 0)
(-0.981313 0.115547 0)
(-0.874381 0.107695 0)
(-0.759251 0.103775 0)
(-0.674999 0.109868 0)
(-0.619842 0.119112 0)
(-0.572444 0.118436 0)
(-0.51904 0.0952572 0)
(-0.465973 0.0508819 0)
(-0.424877 -0.00875579 0)
(-0.38876 -0.0595055 0)
(-0.328879 -0.077998 0)
(-6.35165 -0.00140468 0)
(-1.83981 0.00698879 0)
(0.70695 -0.0216718 0)
(0.484449 -0.0301225 0)
(0.294828 0.00178811 0)
(-0.291361 0.0221611 0)
(-0.940859 0.0465312 0)
(-1.1127 0.0571962 0)
(-1.06835 0.0387686 0)
(-1.02251 -0.00920502 0)
(-0.974793 -0.0767208 0)
(-0.861312 -0.122933 0)
(-0.688376 -0.128616 0)
(-0.495575 -0.127473 0)
(-0.304055 -0.121414 0)
(-0.128538 -0.10473 0)
(0.0342766 -0.0957444 0)
(0.19405 -0.0958735 0)
(0.334404 -0.104022 0)
(0.420327 -0.0887718 0)
(0.455034 -0.048696 0)
(0.486531 0.00905853 0)
(0.518546 0.0728977 0)
(0.652944 0.100613 0)
(0.763027 0.104088 0)
(0.786922 0.119356 0)
(0.529008 0.146153 0)
(-0.248728 0.152341 0)
(-0.919527 0.146874 0)
(-0.967041 0.136473 0)
(-0.859464 0.133701 0)
(-0.737184 0.130621 0)
(-0.647495 0.131187 0)