/*--------------------------------*- C++ -*----------------------------------*\
| =========                 |                                                 |
| \\      /  F ield         | OpenFOAM: The Open Source CFD Toolbox           |
|  \\    /   O peration     | Version:  v1912                                 |
|   \\  /    A nd           | Website:  www.openfoam.com                      |
|    \\/     M anipulation  |                                                 |
\*---------------------------------------------------------------------------*/
FoamFile
{
    version     2.0;
    format      ascii;
    class       volVectorField;
    location    "2.08";
    object      U;
}
// * * * * * * * * * * * * * * * * * * * * * * * * * * * * * * * * * * * * * //

dimensions      [0 1 -1 0 0 0 0];


internalField   nonuniform List<vector> 
1900
(
(-0.15618 -3.63737e-06 0)
(-0.0498149 -5.0425e-06 0)
(-0.0504353 -6.06311e-06 0)
(-0.0506176 -2.82757e-06 0)
(-0.0513175 2.4974e-05 0)
(-0.0529338 0.000144914 0)
(-0.0558298 0.000315694 0)
(-0.0591483 -0.000288062 0)
(-0.0620629 -0.0025633 0)
(-0.0571185 -0.0103839 0)
(-0.156189 -5.84041e-06 0)
(-0.0498221 -7.66547e-06 0)
(-0.0504446 -5.82948e-06 0)
(-0.0506117 4.68417e-06 0)
(-0.0512627 5.46765e-05 0)
(-0.0527453 0.000195609 0)
(-0.0553023 0.000356772 0)
(-0.0582463 8.20161e-05 0)
(-0.0622075 -0.00150388 0)
(-0.0669316 -0.00881716 0)
(-0.156194 -2.70458e-14 0)
(-0.0498262 -2.52995e-14 0)
(-0.0504487 -3.1718e-14 0)
(-0.0506007 1.34541e-14 0)
(-0.0512187 -3.11512e-14 0)
(-0.0526438 -2.1467e-14 0)
(-0.0551188 -2.61822e-14 0)
(-0.0581172 -1.42145e-14 0)
(-0.0625771 -4.75268e-14 0)
(-0.0713214 -2.4564e-14 0)
(-0.156189 5.84041e-06 0)
(-0.0498221 7.66547e-06 0)
(-0.0504446 5.82948e-06 0)
(-0.0506117 -4.68417e-06 0)
(-0.0512627 -5.46765e-05 0)
(-0.0527453 -0.000195609 0)
(-0.0553023 -0.000356772 0)
(-0.0582463 -8.20161e-05 0)
(-0.0622075 0.00150388 0)
(-0.0669316 0.00881716 0)
(-0.15618 3.63737e-06 0)
(-0.0498149 5.0425e-06 0)
(-0.0504353 6.06311e-06 0)
(-0.0506176 2.82757e-06 0)
(-0.0513175 -2.4974e-05 0)
(-0.0529338 -0.000144914 0)
(-0.0558298 -0.000315694 0)
(-0.0591483 0.000288062 0)
(-0.0620629 0.0025633 0)
(-0.0571185 0.0103839 0)
(-0.0611367 -0.0293365 0)
(-0.0823648 -0.0394024 0)
(-0.102465 -0.0569497 0)
(-0.137247 -0.0762289 0)
(-0.251512 -0.0654699 0)
(-0.0805741 -0.0206432 0)
(-0.101993 -0.0266782 0)
(-0.131148 -0.0404287 0)
(-0.187756 -0.0556383 0)
(-0.295615 -0.0534379 0)
(-0.0868144 -4.28947e-14 0)
(-0.107436 -3.92385e-14 0)
(-0.141042 4.21003e-15 0)
(-0.203641 -1.54678e-14 0)
(-0.306796 1.67668e-15 0)
(-0.0805741 0.0206432 0)
(-0.101993 0.0266782 0)
(-0.131148 0.0404287 0)
(-0.187756 0.0556383 0)
(-0.295615 0.0534379 0)
(-0.0611367 0.0293365 0)
(-0.0823648 0.0394024 0)
(-0.102465 0.0569497 0)
(-0.137247 0.0762289 0)
(-0.251512 0.0654699 0)
(-0.302538 0.0142036 0)
(-0.255584 0.0220933 0)
(-0.235542 0.0230804 0)
(-0.230389 0.0434966 0)
(-0.312594 0.102405 0)
(-0.31515 0.0130744 0)
(-0.264574 0.013965 0)
(-0.228736 0.0151768 0)
(-0.19037 0.035741 0)
(-0.151899 0.10834 0)
(-0.322636 7.02365e-15 0)
(-0.267853 3.36055e-14 0)
(-0.222999 5.05246e-14 0)
(-0.162699 1.04279e-13 0)
(-0.0553403 7.16125e-14 0)
(-0.31515 -0.0130744 0)
(-0.264574 -0.013965 0)
(-0.228736 -0.0151768 0)
(-0.19037 -0.035741 0)
(-0.151899 -0.10834 0)
(-0.302538 -0.0142036 0)
(-0.255584 -0.0220933 0)
(-0.235542 -0.0230804 0)
(-0.230389 -0.0434966 0)
(-0.312594 -0.102405 0)
(-0.541209 0.11085 0)
(-0.117042 -0.13099 0)
(-0.179549 -0.166485 0)
(-0.289792 -0.0849118 0)
(-0.33901 -0.0277977 0)
(-0.355 -0.01231 0)
(-0.351402 -0.00688138 0)
(-0.333936 -0.00354324 0)
(-0.309389 -0.00196786 0)
(-0.277039 -0.00131239 0)
(-0.240183 -0.000805389 0)
(-0.200451 -0.000480171 0)
(-0.159592 -0.000271263 0)
(-0.118978 -0.000131305 0)
(-0.0801149 -3.15743e-05 0)
(-0.0453706 4.16522e-05 0)
(-0.018809 8.14868e-05 0)
(-0.00445342 8.65853e-05 0)
(-0.000418444 7.5426e-05 0)
(-8.14583e-06 7.16278e-05 0)
(1.10287e-05 7.14773e-05 0)
(0.000491676 7.14556e-05 0)
(0.004961 7.12696e-05 0)
(0.0203277 7.04812e-05 0)
(0.0482844 6.85466e-05 0)
(0.0846784 6.51709e-05 0)
(0.125561 6.03726e-05 0)
(0.168816 5.43898e-05 0)
(0.213401 4.75804e-05 0)
(0.258713 4.03553e-05 0)
(0.304296 3.31296e-05 0)
(0.349697 2.62793e-05 0)
(0.394303 2.01083e-05 0)
(0.437133 1.48034e-05 0)
(0.476986 1.052e-05 0)
(0.513132 7.19948e-06 0)
(0.546958 5.07791e-06 0)
(0.577561 2.98298e-06 0)
(0.657056 1.59411e-06 0)
(1.2448 8.81996e-08 0)
(0.0114026 0.121379 0)
(0.173076 -0.0949211 0)
(-0.039843 -0.117678 0)
(-0.257061 -0.0497659 0)
(-0.334603 -0.0142939 0)
(-0.353355 -0.00619443 0)
(-0.351333 -0.00340956 0)
(-0.333943 -0.00169597 0)
(-0.309204 -0.000951345 0)
(-0.27687 -0.000643173 0)
(-0.240079 -0.000394538 0)
(-0.200384 -0.000241186 0)
(-0.159544 -0.000136534 0)
(-0.118941 -6.55479e-05 0)
(-0.0800889 -1.70153e-05 0)
(-0.0453688 2.29476e-05 0)
(-0.0188178 4.37174e-05 0)
(-0.00446185 4.57013e-05 0)
(-0.000421049 3.83332e-05 0)
(-8.2659e-06 3.57519e-05 0)
(1.09899e-05 3.56469e-05 0)
(0.000491674 3.5629e-05 0)
(0.00496094 3.55271e-05 0)
(0.0203274 3.51089e-05 0)
(0.0482839 3.40903e-05 0)
(0.0846776 3.23259e-05 0)
(0.12556 2.98314e-05 0)
(0.168815 2.67386e-05 0)
(0.213399 2.32423e-05 0)
(0.258711 1.95629e-05 0)
(0.304295 1.59181e-05 0)
(0.349696 1.24996e-05 0)
(0.394302 9.45658e-06 0)
(0.437132 6.8748e-06 0)
(0.476985 4.81767e-06 0)
(0.513132 3.24836e-06 0)
(0.546957 2.24774e-06 0)
(0.57756 1.31647e-06 0)
(0.657056 7.01658e-07 0)
(1.2448 3.47813e-08 0)
(0.188125 3.08716e-14 0)
(0.27225 -1.91816e-14 0)
(0.0232361 -1.78559e-14 0)
(-0.240938 1.00716e-15 0)
(-0.333435 3.25223e-14 0)
(-0.352961 4.3451e-14 0)
(-0.351438 2.64103e-14 0)
(-0.333892 1.62422e-15 0)
(-0.309118 3.51683e-14 0)
(-0.276808 8.53269e-14 0)
(-0.240045 -2.18856e-15 0)
(-0.200365 1.85049e-14 0)
(-0.159536 -3.12513e-14 0)
(-0.118938 -3.226e-13 0)
(-0.0800887 -9.22531e-13 0)
(-0.0453674 1.64895e-13 0)
(-0.0188201 1.63049e-11 0)
(-0.00446545 -1.50764e-12 0)
(-0.000422391 1.99848e-10 0)
(-8.33571e-06 1.8631e-12 0)
(1.09685e-05 5.85508e-11 0)
(0.000491673 -9.95997e-11 0)
(0.00496089 -2.62173e-10 0)
(0.0203273 4.41804e-10 0)
(0.0482835 2.4341e-10 0)
(0.0846769 2.67558e-10 0)
(0.125559 1.44184e-10 0)
(0.168813 8.27468e-11 0)
(0.213398 -2.07968e-13 0)
(0.25871 -8.65635e-11 0)
(0.304294 -9.91421e-11 0)
(0.349694 -1.70456e-10 0)
(0.394301 -1.47788e-10 0)
(0.437131 -1.42184e-10 0)
(0.476984 -9.93852e-11 0)
(0.513131 -6.95014e-11 0)
(0.546957 2.3301e-11 0)
(0.57756 2.10628e-11 0)
(0.657056 1.54089e-11 0)
(1.2448 1.99184e-12 0)
(0.0114026 -0.121379 0)
(0.173076 0.0949211 0)
(-0.039843 0.117678 0)
(-0.257061 0.0497659 0)
(-0.334603 0.0142939 0)
(-0.353355 0.00619443 0)
(-0.351333 0.00340956 0)
(-0.333943 0.00169597 0)
(-0.309204 0.000951345 0)
(-0.27687 0.000643173 0)
(-0.240079 0.000394538 0)
(-0.200384 0.000241186 0)
(-0.159544 0.000136534 0)
(-0.118941 6.55479e-05 0)
(-0.0800889 1.70153e-05 0)
(-0.0453688 -2.29476e-05 0)
(-0.0188178 -4.37174e-05 0)
(-0.00446185 -4.57013e-05 0)
(-0.000421049 -3.83327e-05 0)
(-8.26592e-06 -3.57518e-05 0)
(1.099e-05 -3.56468e-05 0)
(0.000491674 -3.56293e-05 0)
(0.00496094 -3.55278e-05 0)
(0.0203274 -3.51077e-05 0)
(0.0482839 -3.40897e-05 0)
(0.0846776 -3.23252e-05 0)
(0.12556 -2.9831e-05 0)
(0.168815 -2.67383e-05 0)
(0.213399 -2.32423e-05 0)
(0.258711 -1.95631e-05 0)
(0.304295 -1.59184e-05 0)
(0.349696 -1.25001e-05 0)
(0.394302 -9.45701e-06 0)
(0.437132 -6.87521e-06 0)
(0.476985 -4.81795e-06 0)
(0.513132 -3.24856e-06 0)
(0.546957 -2.24765e-06 0)
(0.57756 -1.31641e-06 0)
(0.657056 -7.01612e-07 0)
(1.2448 -3.4775e-08 0)
(-0.541209 -0.11085 0)
(-0.117042 0.13099 0)
(-0.179549 0.166485 0)
(-0.289792 0.0849118 0)
(-0.33901 0.0277977 0)
(-0.355 0.01231 0)
(-0.351402 0.00688138 0)
(-0.333936 0.00354324 0)
(-0.309389 0.00196786 0)
(-0.277039 0.00131239 0)
(-0.240183 0.000805389 0)
(-0.200451 0.000480171 0)
(-0.159592 0.000271263 0)
(-0.118978 0.000131305 0)
(-0.0801149 3.15743e-05 0)
(-0.0453706 -4.16522e-05 0)
(-0.018809 -8.14868e-05 0)
(-0.00445342 -8.65853e-05 0)
(-0.000418445 -7.54256e-05 0)
(-8.14585e-06 -7.16278e-05 0)
(1.10288e-05 -7.14772e-05 0)
(0.000491676 -7.14558e-05 0)
(0.004961 -7.12703e-05 0)
(0.0203277 -7.04801e-05 0)
(0.0482844 -6.8546e-05 0)
(0.0846784 -6.51703e-05 0)
(0.125561 -6.03722e-05 0)
(0.168816 -5.43896e-05 0)
(0.213401 -4.75804e-05 0)
(0.258713 -4.03556e-05 0)
(0.304296 -3.31299e-05 0)
(0.349697 -2.62799e-05 0)
(0.394303 -2.01088e-05 0)
(0.437133 -1.48038e-05 0)
(0.476986 -1.05203e-05 0)
(0.513132 -7.19972e-06 0)
(0.546958 -5.0778e-06 0)
(0.577561 -2.9829e-06 0)
(0.657056 -1.59405e-06 0)
(1.2448 -8.81912e-08 0)
(-1.1249 -0.168282 0)
(-0.437957 0.145681 0)
(-0.348866 0.201331 0)
(-0.341905 0.119237 0)
(-0.35473 0.0493385 0)
(-0.361329 0.0243142 0)
(-0.354014 0.0141057 0)
(-0.335213 0.00821102 0)
(-0.310267 0.00487436 0)
(-0.277665 0.00331373 0)
(-0.240555 0.00227953 0)
(-0.20067 0.00164318 0)
(-0.159725 0.00122012 0)
(-0.119065 0.00092006 0)
(-0.080187 0.000693059 0)
(-0.0454635 0.00050632 0)
(-0.0189124 0.000348136 0)
(-0.00452477 0.000241455 0)
(-0.000436586 0.000188599 0)
(-8.87991e-06 0.000178787 0)
(1.07555e-05 0.000178445 0)
(0.000491673 0.000178365 0)
(0.00496063 0.000177867 0)
(0.0203262 0.000175738 0)
(0.0482813 0.000170515 0)
(0.0846735 0.000161436 0)
(0.125555 0.00014864 0)
(0.168808 0.00013289 0)
(0.213393 0.000115258 0)
(0.258704 9.6899e-05 0)
(0.304289 7.88999e-05 0)
(0.34969 6.21647e-05 0)
(0.394297 4.73521e-05 0)
(0.437129 3.48044e-05 0)
(0.476982 2.47832e-05 0)
(0.51313 1.70554e-05 0)
(0.546956 1.21675e-05 0)
(0.577559 7.23839e-06 0)
(0.657055 3.9291e-06 0)
(1.2448 2.1056e-07 0)
(-1.24882 -0.123628 0)
(-0.605905 0.154406 0)
(-0.477434 0.196001 0)
(-0.406904 0.124874 0)
(-0.386869 0.0673142 0)
(-0.374903 0.0391374 0)
(-0.362216 0.0238909 0)
(-0.340266 0.0154435 0)
(-0.313189 0.00999099 0)
(-0.279507 0.00718652 0)
(-0.241711 0.00548692 0)
(-0.201463 0.00445388 0)
(-0.160317 0.00377716 0)
(-0.119555 0.00328765 0)
(-0.0806097 0.00289934 0)
(-0.0458013 0.00257873 0)
(-0.019123 0.00232285 0)
(-0.00459455 0.00215996 0)
(-0.00044416 0.00211094 0)
(-9.03594e-06 0.00210639 0)
(1.07194e-05 0.00210629 0)
(0.000491204 0.00210588 0)
(0.0049569 0.0021016 0)
(0.0203135 0.00208375 0)
(0.0482551 0.00204133 0)
(0.0846324 0.00196839 0)
(0.1255 0.00186486 0)
(0.168742 0.00173449 0)
(0.213319 0.00158289 0)
(0.258626 0.00141663 0)
(0.30421 0.00124259 0)
(0.349613 0.00106748 0)
(0.394225 0.000897552 0)
(0.437064 0.000737446 0)
(0.476926 0.000594271 0)
(0.513085 0.000467596 0)
(0.546919 0.000383017 0)
(0.577513 0.000260575 0)
(0.657023 0.000162842 0)
(1.2448 1.7685e-05 0)
(-1.25858 -0.0591155 0)
(-0.644755 0.121469 0)
(-0.521824 0.164276 0)
(-0.447717 0.109485 0)
(-0.415011 0.0721369 0)
(-0.392463 0.0500035 0)
(-0.372969 0.0346488 0)
(-0.347762 0.0250484 0)
(-0.317102 0.0198594 0)
(-0.281852 0.0165559 0)
(-0.243034 0.014786 0)
(-0.202274 0.0138027 0)
(-0.160852 0.0132537 0)
(-0.119947 0.0129045 0)
(-0.0809338 0.0126265 0)
(-0.0460723 0.0123638 0)
(-0.0193023 0.0121373 0)
(-0.00466786 0.0120041 0)
(-0.000456487 0.0119625 0)
(-9.43786e-06 0.0119577 0)
(1.04905e-05 0.0119575 0)
(0.000488439 0.0119556 0)
(0.00493596 0.0119365 0)
(0.0202466 0.0118617 0)
(0.0481231 0.0116927 0)
(0.0844301 0.011411 0)
(0.12523 0.0110156 0)
(0.168412 0.0105155 0)
(0.212938 0.00992345 0)
(0.258207 0.00925498 0)
(0.303764 0.00852699 0)
(0.349153 0.00775736 0)
(0.393763 0.00696519 0)
(0.436615 0.00616541 0)
(0.476505 0.00539731 0)
(0.512717 0.00465255 0)
(0.546577 0.00415293 0)
(0.577028 0.00316265 0)
(0.656621 0.0022143 0)
(1.24474 0.000469361 0)
(-1.26075 -0.0281288 0)
(-0.65392 0.104901 0)
(-0.539692 0.144049 0)
(-0.474149 0.103812 0)
(-0.437409 0.080262 0)
(-0.410381 0.0626954 0)
(-0.383436 0.0517461 0)
(-0.354412 0.0435354 0)
(-0.320967 0.0388849 0)
(-0.283846 0.0362412 0)
(-0.244016 0.034952 0)
(-0.202709 0.0344407 0)
(-0.161046 0.0342983 0)
(-0.120058 0.0342904 0)
(-0.0810178 0.0342989 0)
(-0.0461406 0.0342913 0)
(-0.0193574 0.0342767 0)
(-0.0046949 0.0342666 0)
(-0.000461158 0.0342637 0)
(-9.59407e-06 0.0342634 0)
(1.01404e-05 0.0342633 0)
(0.000480207 0.0342584 0)
(0.00487708 0.034213 0)
(0.0200699 0.0340453 0)
(0.0477935 0.0336878 0)
(0.0839433 0.0331166 0)
(0.124593 0.0323353 0)
(0.167635 0.0313585 0)
(0.212035 0.0302035 0)
(0.257194 0.0288886 0)
(0.302659 0.0274332 0)
(0.347976 0.0258581 0)
(0.392535 0.0241876 0)
(0.435365 0.0224377 0)
(0.475281 0.0206973 0)
(0.511568 0.018915 0)
(0.545446 0.0177786 0)
(0.575248 0.0147368 0)
(0.654941 0.01124 0)
(1.24431 0.00426314 0)
(-1.2529 0.0072633 0)
(-0.652055 0.100364 0)
(-0.546812 0.136136 0)
(-0.490316 0.110007 0)
(-0.451548 0.1 0)
(-0.421566 0.08642 0)
(-0.391228 0.0781258 0)
(-0.359404 0.0714683 0)
(-0.323794 0.0678191 0)
(-0.285168 0.065915 0)
(-0.244444 0.0651708 0)
(-0.202693 0.0650836 0)
(-0.160845 0.0653005 0)
(-0.119807 0.0656205 0)
(-0.0807893 0.0659452 0)
(-0.0459764 0.0662336 0)
(-0.0192655 0.0664562 0)
(-0.00466099 0.066584 0)
(-0.000455752 0.0666244 0)
(-9.43346e-06 0.0666293 0)
(9.58899e-06 0.0666293 0)
(0.000464144 0.0666207 0)
(0.00476589 0.0665437 0)
(0.0197516 0.0662701 0)
(0.0472294 0.0657152 0)
(0.0831449 0.0648662 0)
(0.123577 0.0637406 0)
(0.166416 0.0623622 0)
(0.210628 0.0607524 0)
(0.255615 0.0589306 0)
(0.300926 0.0569152 0)
(0.346108 0.0547239 0)
(0.390558 0.0523817 0)
(0.433324 0.049896 0)
(0.473257 0.0474135 0)
(0.509534 0.0447744 0)
(0.543414 0.0432756 0)
(0.571979 0.0380266 0)
(0.651657 0.0308046 0)
(1.24281 0.0178519 0)
(-1.25134 0.0441529 0)
(-0.646118 0.112419 0)
(-0.5461 0.14588 0)
(-0.498999 0.129404 0)
(-0.46172 0.128229 0)
(-0.430346 0.11672 0)
(-0.397736 0.110581 0)
(-0.363344 0.105479 0)
(-0.32586 0.10276 0)
(-0.285941 0.101513 0)
(-0.244459 0.10122 0)
(-0.202322 0.101474 0)
(-0.160321 0.101993 0)
(-0.119266 0.10262 0)
(-0.0802999 0.103265 0)
(-0.0455758 0.10386 0)
(-0.0189981 0.104328 0)
(-0.00455237 0.104597 0)
(-0.000438281 0.104682 0)
(-8.92353e-06 0.104692 0)
(8.85575e-06 0.104692 0)
(0.000439638 0.10468 0)
(0.00459824 0.104571 0)
(0.0192848 0.104192 0)
(0.0464318 0.103449 0)
(0.0820557 0.102351 0)
(0.122231 0.100938 0)
(0.164835 0.0992438 0)
(0.208828 0.0972969 0)
(0.253613 0.0951188 0)
(0.298736 0.0927276 0)
(0.343748 0.0901402 0)
(0.388061 0.0873826 0)
(0.43075 0.0844525 0)
(0.470715 0.0815753 0)
(0.506811 0.0783592 0)
(0.540654 0.0768723 0)
(0.568035 0.0702807 0)
(0.647712 0.0593784 0)
(1.23947 0.0448419 0)
(-1.24737 0.0993133 0)
(-0.641604 0.140376 0)
(-0.545333 0.169664 0)
(-0.504073 0.158544 0)
(-0.469476 0.159991 0)
(-0.43687 0.150256 0)
(-0.402804 0.146174 0)
(-0.366361 0.142458 0)
(-0.327272 0.140621 0)
(-0.286259 0.139988 0)
(-0.24414 0.140133 0)
(-0.201684 0.140742 0)
(-0.159552 0.141598 0)
(-0.118463 0.142568 0)
(-0.0795247 0.143557 0)
(-0.044902 0.144468 0)
(-0.0185391 0.145181 0)
(-0.00436842 0.145587 0)
(-0.000409642 0.145711 0)
(-8.10199e-06 0.145725 0)
(7.95577e-06 0.145725 0)
(0.000407525 0.14571 0)
(0.00437733 0.145573 0)
(0.0186765 0.145096 0)
(0.0454162 0.144176 0)
(0.0807047 0.14285 0)
(0.1206 0.141183 0)
(0.162957 0.139224 0)
(0.206724 0.137007 0)
(0.251297 0.134555 0)
(0.296225 0.131891 0)
(0.341053 0.129022 0)
(0.385238 0.126 0)
(0.427851 0.122765 0)
(0.46789 0.119714 0)
(0.503595 0.115976 0)
(0.537365 0.114794 0)
(0.564322 0.107964 0)
(0.644217 0.0940152 0)
(1.23382 0.0827459 0)
(-1.23716 0.149122 0)
(-0.637521 0.171906 0)
(-0.545033 0.199313 0)
(-0.507612 0.191524 0)
(-0.474934 0.193803 0)
(-0.441702 0.185598 0)
(-0.406618 0.183238 0)
(-0.368432 0.180736 0)
(-0.328054 0.179859 0)
(-0.286146 0.179875 0)
(-0.243517 0.180535 0)
(-0.200769 0.181566 0)
(-0.158484 0.182818 0)
(-0.117331 0.184171 0)
(-0.0784143 0.185522 0)
(-0.043939 0.18675 0)
(-0.0178958 0.187697 0)
(-0.00411885 0.188224 0)
(-0.000372443 0.188381 0)
(-7.05822e-06 0.188398 0)
(6.92249e-06 0.188398 0)
(0.000369444 0.188381 0)
(0.00411003 0.18822 0)
(0.017939 0.187655 0)
(0.0442001 0.18657 0)
(0.0791164 0.185032 0)
(0.118719 0.183132 0)
(0.160826 0.180937 0)
(0.204368 0.178486 0)
(0.248737 0.175808 0)
(0.293462 0.172912 0)
(0.338132 0.169844 0)
(0.38217 0.16659 0)
(0.424734 0.163129 0)
(0.4649 0.160013 0)
(0.500049 0.155707 0)
(0.533631 0.154932 0)
(0.561239 0.148847 0)
(0.641597 0.132512 0)
(1.22522 0.125986 0)
(-1.22484 0.204065 0)
(-0.635061 0.208242 0)
(-0.544496 0.232982 0)
(-0.509457 0.226037 0)
(-0.478516 0.228346 0)
(-0.445053 0.222017 0)
(-0.40907 0.220977 0)
(-0.369581 0.219829 0)
(-0.328087 0.219816 0)
(-0.285551 0.220611 0)
(-0.242466 0.221809 0)
(-0.199462 0.223334 0)
(-0.157021 0.225021 0)
(-0.115813 0.226781 0)
(-0.0769545 0.228498 0)
(-0.0427012 0.23003 0)
(-0.0170918 0.231188 0)
(-0.00381846 0.231815 0)
(-0.000329877 0.231994 0)
(-5.91986e-06 0.232012 0)
(5.82907e-06 0.232012 0)
(0.000327391 0.231994 0)
(0.00380502 0.231816 0)
(0.0170869 0.231175 0)
(0.0428006 0.229941 0)
(0.0773108 0.228205 0)
(0.11661 0.22609 0)
(0.158467 0.223677 0)
(0.201795 0.221018 0)
(0.245954 0.218126 0)
(0.29053 0.215073 0)
(0.334957 0.211739 0)
(0.379018 0.208466 0)
(0.421369 0.204621 0)
(0.46171 0.201528 0)
(0.496434 0.196824 0)
(0.529684 0.196234 0)
(0.558585 0.191336 0)
(0.639684 0.173535 0)
(1.21477 0.175023 0)
(-1.20881 0.250742 0)
(-0.632731 0.245263 0)
(-0.543843 0.268768 0)
(-0.510643 0.261711 0)
(-0.480904 0.263282 0)
(-0.44695 0.258871 0)
(-0.410391 0.259583 0)
(-0.369426 0.25914 0)
(-0.3275 0.260489 0)
(-0.284226 0.261767 0)
(-0.240906 0.263668 0)
(-0.19766 0.265676 0)
(-0.155121 0.267832 0)
(-0.113905 0.269995 0)
(-0.0751682 0.272061 0)
(-0.0412222 0.273866 0)
(-0.0161578 0.275201 0)
(-0.0034833 0.275904 0)
(-0.000285013 0.276096 0)
(-4.79332e-06 0.276114 0)
(4.74636e-06 0.276114 0)
(0.000283461 0.276096 0)
(0.00347202 0.275907 0)
(0.016136 0.275204 0)
(0.0412342 0.273838 0)
(0.0753052 0.27192 0)
(0.114291 0.269602 0)
(0.155903 0.266988 0)
(0.199009 0.264123 0)
(0.24302 0.261084 0)
(0.287318 0.25775 0)
(0.331837 0.254514 0)
(0.375417 0.250687 0)
(0.41813 0.247198 0)
(0.458118 0.243479 0)
(0.492869 0.238866 0)
(0.526108 0.238356 0)
(0.556304 0.234606 0)
(0.637758 0.215303 0)
(1.19988 0.219832 0)
(-1.19152 0.303867 0)
(-0.631181 0.283279 0)
(-0.544211 0.304736 0)
(-0.512047 0.298288 0)
(-0.481864 0.298062 0)
(-0.447819 0.296939 0)
(-0.409729 0.297767 0)
(-0.368948 0.299775 0)
(-0.325636 0.300977 0)
(-0.282532 0.303538 0)
(-0.238711 0.305756 0)
(-0.195418 0.308357 0)
(-0.152805 0.310923 0)
(-0.11165 0.313464 0)
(-0.0730978 0.315835 0)
(-0.0395422 0.317872 0)
(-0.0151252 0.319349 0)
(-0.00312831 0.320103 0)
(-0.000240405 0.320299 0)
(-3.75232e-06 0.320317 0)
(3.73436e-06 0.320317 0)
(0.000239666 0.3203 0)
(0.00312133 0.320106 0)
(0.0151039 0.319357 0)
(0.0395185 0.317876 0)
(0.0731156 0.315792 0)
(0.111781 0.313288 0)
(0.153142 0.310478 0)
(0.196075 0.307458 0)
(0.239812 0.304156 0)
(0.284248 0.300955 0)
(0.32803 0.296967 0)
(0.372535 0.294121 0)
(0.413961 0.289168 0)
(0.45489 0.286417 0)
(0.488951 0.2809 0)
(0.523268 0.281146 0)
(0.554435 0.278095 0)
(0.636169 0.258681 0)
(1.18501 0.275912 0)
(-1.17006 0.340112 0)
(-0.629951 0.318266 0)
(-0.545827 0.339671 0)
(-0.513297 0.334687 0)
(-0.481574 0.333854 0)
(-0.446612 0.334327 0)
(-0.409129 0.338194 0)
(-0.366007 0.338843 0)
(-0.324149 0.342817 0)
(-0.279659 0.344825 0)
(-0.236225 0.348079 0)
(-0.192672 0.350933 0)
(-0.150143 0.353921 0)
(-0.109091 0.356757 0)
(-0.070789 0.359379 0)
(-0.0377002 0.361601 0)
(-0.0140229 0.363186 0)
(-0.00276637 0.363971 0)
(-0.000197996 0.364165 0)
(-2.84042e-06 0.364181 0)
(2.83667e-06 0.364181 0)
(0.000197763 0.364165 0)
(0.00276319 0.363972 0)
(0.0140087 0.363194 0)
(0.0376711 0.361616 0)
(0.0707581 0.359386 0)
(0.10909 0.356713 0)
(0.150222 0.35375 0)
(0.192895 0.350517 0)
(0.236672 0.347258 0)
(0.280401 0.343395 0)
(0.325318 0.34051 0)
(0.367683 0.335483 0)
(0.411269 0.332927 0)
(0.450341 0.327908 0)
(0.485188 0.323033 0)
(0.520573 0.323411 0)
(0.552666 0.320929 0)
(0.633653 0.300114 0)
(1.1644 0.316878 0)
(-1.14689 0.39423 0)
(-0.629841 0.356656 0)
(-0.547852 0.375366 0)
(-0.515219 0.373249 0)
(-0.4796 0.370293 0)
(-0.44638 0.374887 0)
(-0.404936 0.375588 0)
(-0.365349 0.381229 0)
(-0.320222 0.382592 0)
(-0.27741 0.386856 0)
(-0.233044 0.389699 0)
(-0.189771 0.393091 0)
(-0.1472 0.396215 0)
(-0.106318 0.399261 0)
(-0.0683012 0.402047 0)
(-0.035739 0.404401 0)
(-0.0128788 0.40606 0)
(-0.0024087 0.406857 0)
(-0.000159193 0.407043 0)
(-2.07826e-06 0.407057 0)
(2.0793e-06 0.407057 0)
(0.00015919 0.407043 0)
(0.00240788 0.406857 0)
(0.012872 0.406064 0)
(0.0357176 0.404415 0)
(0.0682621 0.402071 0)
(0.106269 0.399281 0)
(0.14716 0.396198 0)
(0.189769 0.392978 0)
(0.233113 0.389398 0)
(0.277617 0.386258 0)
(0.320544 0.38152 0)
(0.366064 0.379572 0)
(0.405593 0.372887 0)
(0.448142 0.371429 0)
(0.481097 0.364512 0)
(0.519114 0.366452 0)
(0.551913 0.364371 0)
(0.632648 0.34493 0)
(1.14403 0.3783 0)
(-1.12167 0.420343 0)
(-0.627264 0.387066 0)
(-0.547276 0.407389 0)
(-0.514025 0.407644 0)
(-0.476053 0.405413 0)
(-0.441518 0.410484 0)
(-0.402764 0.41546 0)
(-0.359593 0.418028 0)
(-0.317831 0.423258 0)
(-0.273069 0.426185 0)
(-0.229684 0.430107 0)
(-0.18624 0.43347 0)
(-0.143987 0.436854 0)
(-0.103321 0.439992 0)
(-0.0656501 0.442865 0)
(-0.0336752 0.445287 0)
(-0.0117073 0.446979 0)
(-0.00206206 0.447768 0)
(-0.000124702 0.447941 0)
(-1.46516e-06 0.447953 0)
(1.46676e-06 0.447953 0)
(0.000124761 0.447941 0)
(0.00206228 0.447768 0)
(0.0117054 0.446981 0)
(0.0336638 0.445296 0)
(0.0656208 0.442886 0)
(0.103269 0.440029 0)
(0.143913 0.436901 0)
(0.186151 0.433506 0)
(0.229593 0.430099 0)
(0.272983 0.426073 0)
(0.317804 0.422975 0)
(0.359574 0.417472 0)
(0.402854 0.414478 0)
(0.441849 0.409088 0)
(0.476297 0.40298 0)
(0.515354 0.404439 0)
(0.548565 0.402142 0)
(0.628213 0.381093 0)
(1.11958 0.41096 0)
(-1.09294 0.481859 0)
(-0.627542 0.430003 0)
(-0.548847 0.447168 0)
(-0.515634 0.447961 0)
(-0.474003 0.444151 0)
(-0.44076 0.450535 0)
(-0.398178 0.452083 0)
(-0.358178 0.457688 0)
(-0.313739 0.460489 0)
(-0.270504 0.464715 0)
(-0.226586 0.46822 0)
(-0.183425 0.471771 0)
(-0.141049 0.474986 0)
(-0.100466 0.478062 0)
(-0.0630511 0.480893 0)
(-0.0316362 0.483287 0)
(-0.0105714 0.484953 0)
(-0.0017428 0.48571 0)
(-9.55967e-05 0.485866 0)
(-9.99319e-07 0.485876 0)
(1.00029e-06 0.485876 0)
(9.56469e-05 0.485866 0)
(0.00174324 0.48571 0)
(0.0105718 0.484954 0)
(0.0316323 0.483291 0)
(0.0630351 0.480906 0)
(0.10043 0.478093 0)
(0.140986 0.475042 0)
(0.183331 0.471853 0)
(0.226462 0.468327 0)
(0.270347 0.464825 0)
(0.313561 0.460591 0)
(0.357981 0.457721 0)
(0.39798 0.452027 0)
(0.440639 0.450306 0)
(0.473884 0.443561 0)
(0.515998 0.446985 0)
(0.549355 0.445374 0)
(0.628242 0.427415 0)
(1.09237 0.476988 0)
(-1.06718 0.497367 0)
(-0.621347 0.45643 0)
(-0.543868 0.476854 0)
(-0.51086 0.478431 0)
(-0.467228 0.474949 0)
(-0.434216 0.481703 0)
(-0.391848 0.484193 0)
(-0.351744 0.489062 0)
(-0.308577 0.493079 0)
(-0.264982 0.496916 0)
(-0.221543 0.500909 0)
(-0.178503 0.504778 0)
(-0.136793 0.508738 0)
(-0.0968519 0.512416 0)
(-0.0600684 0.515613 0)
(-0.0294398 0.518132 0)
(-0.00941128 0.519756 0)
(-0.00144147 0.520441 0)
(-7.10783e-05 0.520572 0)
(-6.53691e-07 0.520579 0)
(6.54082e-07 0.520579 0)
(7.11047e-05 0.520572 0)
(0.0014418 0.520441 0)
(0.00941229 0.519755 0)
(0.0294398 0.518132 0)
(0.0600625 0.515619 0)
(0.0968335 0.512434 0)
(0.136754 0.508778 0)
(0.178437 0.50485 0)
(0.221446 0.501023 0)
(0.264845 0.497075 0)
(0.308409 0.493294 0)
(0.351517 0.489305 0)
(0.391607 0.484491 0)
(0.433924 0.481987 0)
(0.466929 0.475191 0)
(0.510679 0.478568 0)
(0.543747 0.476743 0)
(0.621446 0.455898 0)
(1.06696 0.495573 0)
(-1.02971 0.560215 0)
(-0.621093 0.501214 0)
(-0.546128 0.519375 0)
(-0.514847 0.521133 0)
(-0.470558 0.517257 0)
(-0.437374 0.522375 0)
(-0.393572 0.522156 0)
(-0.353513 0.525723 0)
(-0.309183 0.527489 0)
(-0.265424 0.530448 0)
(-0.22143 0.533755 0)
(-0.178252 0.537724 0)
(-0.136105 0.541763 0)
(-0.0957443 0.54548 0)
(-0.0587605 0.548695 0)
(-0.028254 0.551184 0)
(-0.00871175 0.552772 0)
(-0.0012508 0.553424 0)
(-5.5735e-05 0.553539 0)
(-4.51142e-07 0.553544 0)
(4.51247e-07 0.553544 0)
(5.57445e-05 0.553539 0)
(0.00125096 0.553424 0)
(0.00871249 0.552771 0)
(0.028255 0.551183 0)
(0.0587597 0.548697 0)
(0.0957372 0.545487 0)
(0.136086 0.541784 0)
(0.178215 0.537768 0)
(0.221369 0.533833 0)
(0.26533 0.530571 0)
(0.309058 0.527671 0)
(0.353334 0.525962 0)
(0.393362 0.522476 0)
(0.437098 0.522749 0)
(0.47026 0.517682 0)
(0.514556 0.521583 0)
(0.545878 0.519771 0)
(0.621033 0.501353 0)
(1.02979 0.559613 0)
(-1.00416 0.548589 0)
(-0.613692 0.521688 0)
(-0.541473 0.546636 0)
(-0.512679 0.551198 0)
(-0.468382 0.549087 0)
(-0.435276 0.55465 0)
(-0.391185 0.554577 0)
(-0.350895 0.557649 0)
(-0.306417 0.559066 0)
(-0.261825 0.560997 0)
(-0.217139 0.563161 0)
(-0.172807 0.565489 0)
(-0.1297 0.568185 0)
(-0.0890414 0.571476 0)
(-0.0528099 0.575333 0)
(-0.0241681 0.579059 0)
(-0.00693666 0.581616 0)
(-0.000903104 0.582601 0)
(-3.56658e-05 0.582755 0)
(-2.53509e-07 0.582762 0)
(2.53527e-07 0.582762 0)
(3.56681e-05 0.582755 0)
(0.000903159 0.582601 0)
(0.00693702 0.581616 0)
(0.024169 0.579058 0)
(0.0528109 0.575333 0)
(0.089041 0.571479 0)
(0.129696 0.568195 0)
(0.172794 0.565513 0)
(0.217113 0.563207 0)
(0.261782 0.561075 0)
(0.306351 0.559185 0)
(0.350804 0.557818 0)
(0.391068 0.554803 0)
(0.435127 0.554943 0)
(0.46822 0.549431 0)
(0.512511 0.551598 0)
(0.541346 0.54704 0)
(0.613699 0.521948 0)
(1.00433 0.548532 0)
(-0.966581 0.612017 0)
(-0.589381 0.591231 0)
(-0.517269 0.616352 0)
(-0.495335 0.623904 0)
(-0.448258 0.624524 0)
(-0.418276 0.631465 0)
(-0.370937 0.632222 0)
(-0.332217 0.636466 0)
(-0.286535 0.638067 0)
(-0.243391 0.640511 0)
(-0.19909 0.642277 0)
(-0.156359 0.644223 0)
(-0.115057 0.64637 0)
(-0.0770338 0.649338 0)
(-0.0441214 0.653075 0)
(-0.0192238 0.65681 0)
(-0.0051431 0.659299 0)
(-0.000608117 0.66017 0)
(-2.12786e-05 0.660288 0)
(-1.32773e-07 0.660292 0)
(1.32772e-07 0.660292 0)
(2.12789e-05 0.660288 0)
(0.000608134 0.66017 0)
(0.00514327 0.659299 0)
(0.0192244 0.65681 0)
(0.0441224 0.653074 0)
(0.0770347 0.649338 0)
(0.115057 0.646372 0)
(0.156358 0.64423 0)
(0.199088 0.642295 0)
(0.243389 0.640544 0)
(0.286536 0.638122 0)
(0.332221 0.63655 0)
(0.37095 0.632338 0)
(0.418292 0.631624 0)
(0.448291 0.624715 0)
(0.495373 0.624135 0)
(0.517327 0.616598 0)
(0.589469 0.591414 0)
(0.966623 0.612072 0)
(-1.03337 1.03683 0)
(-0.609954 0.969121 0)
(-0.542689 1.0087 0)
(-0.554224 1.034 0)
(-0.486938 1.07213 0)
(-0.467427 1.09861 0)
(-0.399277 1.12634 0)
(-0.364065 1.15138 0)
(-0.301356 1.17171 0)
(-0.258225 1.19229 0)
(-0.201499 1.207 0)
(-0.154776 1.22119 0)
(-0.106062 1.23116 0)
(-0.0637492 1.2388 0)
(-0.0298329 1.24352 0)
(-0.00927485 1.24597 0)
(-0.00150322 1.24685 0)
(-9.49945e-05 1.24702 0)
(-1.71688e-06 1.24704 0)
(-6.35565e-09 1.24704 0)
(6.35479e-09 1.24704 0)
(1.71677e-06 1.24704 0)
(9.49921e-05 1.24702 0)
(0.00150321 1.24685 0)
(0.00927487 1.24597 0)
(0.0298331 1.24352 0)
(0.0637497 1.2388 0)
(0.106062 1.23116 0)
(0.154777 1.22119 0)
(0.2015 1.207 0)
(0.258227 1.19229 0)
(0.301357 1.17171 0)
(0.364066 1.15138 0)
(0.399276 1.12634 0)
(0.467424 1.09861 0)
(0.486933 1.07214 0)
(0.554213 1.03402 0)
(0.542685 1.00872 0)
(0.609953 0.969145 0)
(1.03337 1.03683 0)
(-1.03337 -1.03683 0)
(-0.609954 -0.969121 0)
(-0.542689 -1.0087 0)
(-0.554224 -1.034 0)
(-0.486938 -1.07213 0)
(-0.467427 -1.09861 0)
(-0.399277 -1.12634 0)
(-0.364065 -1.15138 0)
(-0.301356 -1.17171 0)
(-0.258225 -1.19229 0)
(-0.201499 -1.207 0)
(-0.154776 -1.22119 0)
(-0.106062 -1.23116 0)
(-0.0637492 -1.2388 0)
(-0.0298329 -1.24352 0)
(-0.00927485 -1.24597 0)
(-0.00150322 -1.24685 0)
(-9.49945e-05 -1.24702 0)
(-1.71688e-06 -1.24704 0)
(-6.35559e-09 -1.24704 0)
(6.35492e-09 -1.24704 0)
(1.71677e-06 -1.24704 0)
(9.49921e-05 -1.24702 0)
(0.00150321 -1.24685 0)
(0.00927487 -1.24597 0)
(0.0298331 -1.24352 0)
(0.0637497 -1.2388 0)
(0.106062 -1.23116 0)
(0.154777 -1.22119 0)
(0.2015 -1.207 0)
(0.258227 -1.19229 0)
(0.301357 -1.17171 0)
(0.364066 -1.15138 0)
(0.399276 -1.12634 0)
(0.467424 -1.09861 0)
(0.486933 -1.07214 0)
(0.554213 -1.03402 0)
(0.542685 -1.00872 0)
(0.609953 -0.969145 0)
(1.03337 -1.03683 0)
(-0.966581 -0.612017 0)
(-0.589381 -0.591231 0)
(-0.517269 -0.616352 0)
(-0.495335 -0.623904 0)
(-0.448258 -0.624524 0)
(-0.418276 -0.631465 0)
(-0.370937 -0.632222 0)
(-0.332217 -0.636466 0)
(-0.286535 -0.638067 0)
(-0.243391 -0.640511 0)
(-0.19909 -0.642277 0)
(-0.156359 -0.644223 0)
(-0.115057 -0.64637 0)
(-0.0770338 -0.649338 0)
(-0.0441214 -0.653075 0)
(-0.0192238 -0.65681 0)
(-0.0051431 -0.659299 0)
(-0.000608117 -0.66017 0)
(-2.12786e-05 -0.660288 0)
(-1.32773e-07 -0.660292 0)
(1.32772e-07 -0.660292 0)
(2.12789e-05 -0.660288 0)
(0.000608134 -0.66017 0)
(0.00514327 -0.659299 0)
(0.0192244 -0.65681 0)
(0.0441224 -0.653074 0)
(0.0770347 -0.649338 0)
(0.115057 -0.646372 0)
(0.156358 -0.64423 0)
(0.199088 -0.642295 0)
(0.243389 -0.640544 0)
(0.286536 -0.638122 0)
(0.332221 -0.63655 0)
(0.37095 -0.632338 0)
(0.418292 -0.631624 0)
(0.448291 -0.624715 0)
(0.495373 -0.624135 0)
(0.517327 -0.616598 0)
(0.589469 -0.591414 0)
(0.966623 -0.612072 0)
(-1.00416 -0.548589 0)
(-0.613692 -0.521688 0)
(-0.541473 -0.546636 0)
(-0.512679 -0.551198 0)
(-0.468382 -0.549087 0)
(-0.435276 -0.55465 0)
(-0.391185 -0.554577 0)
(-0.350895 -0.557649 0)
(-0.306417 -0.559066 0)
(-0.261825 -0.560997 0)
(-0.217139 -0.563161 0)
(-0.172807 -0.565489 0)
(-0.1297 -0.568185 0)
(-0.0890414 -0.571476 0)
(-0.0528099 -0.575333 0)
(-0.0241681 -0.579059 0)
(-0.00693666 -0.581616 0)
(-0.000903104 -0.582601 0)
(-3.56658e-05 -0.582755 0)
(-2.53509e-07 -0.582762 0)
(2.53527e-07 -0.582762 0)
(3.56681e-05 -0.582755 0)
(0.000903159 -0.582601 0)
(0.00693702 -0.581616 0)
(0.024169 -0.579058 0)
(0.0528109 -0.575333 0)
(0.089041 -0.571479 0)
(0.129696 -0.568195 0)
(0.172794 -0.565513 0)
(0.217113 -0.563207 0)
(0.261782 -0.561075 0)
(0.306351 -0.559185 0)
(0.350804 -0.557818 0)
(0.391068 -0.554803 0)
(0.435127 -0.554943 0)
(0.46822 -0.549431 0)
(0.512511 -0.551598 0)
(0.541346 -0.54704 0)
(0.613699 -0.521948 0)
(1.00433 -0.548532 0)