/*--------------------------------*- C++ -*----------------------------------*\
| =========                 |                                                 |
| \\      /  F ield         | OpenFOAM: The Open Source CFD Toolbox           |
|  \\    /   O peration     | Version:  v1912                                 |
|   \\  /    A nd           | Website:  www.openfoam.com                      |
|    \\/     M anipulation  |                                                 |
\*---------------------------------------------------------------------------*/
FoamFile
{
    version     2.0;
    format      ascii;
    class       volScalarField;
    location    "1.14";
    object      rho;
}
// * * * * * * * * * * * * * * * * * * * * * * * * * * * * * * * * * * * * * //

dimensions      [1 -3 0 0 0 0 0];


internalField   nonuniform List<scalar> 
1900
(
14000
14000
14000
14000.1
14003.7
14047.1
14203.2
14430.7
14581.4
14721
14000
14000
14000
14000.1
14003.6
14046.7
14201.7
14429.9
14605.6
14720.4
14000
14000
14000
14000.1
14003.7
14046.9
14202.3
14430
14606.1
14706.7
14000
14000
14000
14000.1
14003.6
14046.7
14201.7
14429.9
14605.6
14720.4
14000
14000
14000
14000.1
14003.7
14047.1
14203.2
14430.7
14581.4
14721
14668.5
14696
14680.6
14582.6
14020.7
14730.9
14751.6
14710.3
14651.7
14377
14707.1
14724.2
14684.7
14608.4
14341.5
14730.9
14751.6
14710.3
14651.7
14377
14668.5
14696
14680.6
14582.6
14020.7
15544.3
15491
15727.7
15911.6
16476.4
15403.6
15471
15730.2
15932.9
15968.4
15398.2
15477.5
15725.6
15884.4
15602
15403.6
15471
15730.2
15932.9
15968.4
15544.3
15491
15727.7
15911.6
16476.4
15591.1
9978.34
10205
10250.3
10543.8
11014.5
11658.8
12371.6
13069.7
13624.9
13918.8
13993.6
13999.9
14000.1
14000.1
14000.1
14000.1
14000.1
14000.1
14000.1
14000.1
14000.1
14000.1
14000.1
14000.1
14000.1
14000
13999.9
13992.4
13905.8
13573
12951.2
12164.6
11327.2
10492.8
9686.46
8953.91
8507.55
8655.81
30001
14600.5
10018.1
10300.3
10292.4
10546.9
11021
11660.4
12373.1
13071.2
13625.8
13919.1
13993.7
13999.9
14000.1
14000.1
14000.1
14000.1
14000.1
14000.1
14000.1
14000.1
14000.1
14000.1
14000.1
14000.1
14000.1
14000
13999.9
13992.4
13905.8
13573
12951.2
12164.6
11327.2
10492.8
9686.46
8953.91
8507.55
8655.81
30001
13996.6
10474.1
10334.9
10309.9
10550.7
11022.9
11661.2
12373.6
13071.7
13626.2
13919.2
13993.7
13999.9
14000.1
14000.1
14000.1
14000.1
14000.1
14000.1
14000.1
14000.1
14000.1
14000.1
14000.1
14000.1
14000.1
14000
13999.9
13992.4
13905.8
13573
12951.2
12164.6
11327.2
10492.8
9686.46
8953.91
8507.55
8655.81
30001
14600.5
10018.1
10300.3
10292.4
10546.9
11021
11660.4
12373.1
13071.2
13625.8
13919.1
13993.7
13999.9
14000.1
14000.1
14000.1
14000.1
14000.1
14000.1
14000.1
14000.1
14000.1
14000.1
14000.1
14000.1
14000.1
14000
13999.9
13992.4
13905.8
13573
12951.2
12164.6
11327.2
10492.8
9686.46
8953.91
8507.55
8655.81
30001
15591.1
9978.34
10205
10250.3
10543.8
11014.5
11658.8
12371.6
13069.7
13624.9
13918.8
13993.6
13999.9
14000.1
14000.1
14000.1
14000.1
14000.1
14000.1
14000.1
14000.1
14000.1
14000.1
14000.1
14000.1
14000.1
14000
13999.9
13992.4
13905.8
13573
12951.2
12164.6
11327.2
10492.8
9686.46
8953.91
8507.55
8655.81
30001
22047.1
9716.2
9968.72
10110.1
10477
10990.6
11650.6
12364.7
13062.8
13620.5
13917.4
13993.5
13999.9
14000.1
14000.1
14000.1
14000.1
14000.1
14000.1
14000.1
14000.1
14000.1
14000.1
14000.1
14000.1
14000.1
14000
13999.9
13992.4
13905.8
13573
12951.2
12164.6
11327.2
10492.8
9686.46
8953.91
8507.55
8655.81
30001
27554.1
9141.82
9528.51
9832.25
10317.5
10914.4
11609.3
12338.1
13044.6
13611
13914.7
13993.2
13999.9
14000
14000.1
14000.1
14000.1
14000.1
14000.1
14000.1
14000.1
14000.1
14000.1
14000.1
14000.1
14000.1
14000
13999.9
13992.4
13905.8
13573
12951.2
12164.6
11327.2
10492.8
9686.46
8953.91
8507.55
8655.81
30001
30482
9061.93
9274.02
9615.19
10172.6
10828.1
11549
12298
13020.1
13599.5
13911.7
13992.9
13999.9
14000
14000.1
14000.1
14000.1
14000.1
14000.1
14000.1
14000.1
14000.1
14000.1
14000.1
14000.1
14000.1
14000
13999.9
13992.4
13905.8
13573
12951.2
12164.6
11327.2
10492.8
9686.46
8953.91
8507.55
8655.81
30001
31263.1
9014.48
9077.19
9424.15
10033.3
10734.3
11483.2
12254.9
12995.2
13588.7
13908.9
13992.6
13999.9
14000
14000.1
14000.1
14000.1
14000.1
14000.1
14000.1
14000.1
14000.1
14000.1
14000.1
14000.1
14000.1
14000
13999.9
13992.4
13905.8
13573
12951.2
12164.6
11327.2
10492.8
9686.46
8953.91
8507.55
8655.81
30001
31154.6
8964.27
8893.34
9259.87
9910.76
10645.5
11421.5
12216
12974.3
13580.4
13907.1
13992.5
13999.9
14000
14000.1
14000.1
14000.1
14000.1
14000.1
14000.1
14000.1
14000.1
14000.1
14000.1
14000.1
14000.1
14000
13999.9
13992.4
13905.8
13573
12951.2
12164.6
11327.2
10492.8
9686.46
8953.91
8507.55
8655.81
30001
30892.9
8887.21
8726.17
9123.47
9807.42
10571.4
11372.8
12187.5
12960.4
13575.5
13906.1
13992.4
13999.9
14000
14000.1
14000.1
14000.1
14000.1
14000.1
14000.1
14000.1
14000.1
14000.1
14000.1
14000.1
14000.1
14000
13999.9
13992.4
13905.8
13573
12951.2
12164.6
11327.2
10492.8
9686.46
8953.91
8507.55
8655.81
30001
30499.4
8779.32
8599.62
9024.13
9734.02
10521.6
11342.4
12171.3
12953.4
13573.4
13905.8
13992.4
13999.9
14000
14000
14000
14000
14000
14000
14000
14000
14000
14000
14000
14000
14000
14000
13999.9
13992.4
13905.8
13573
12951.2
12164.6
11327.2
10492.8
9686.46
8953.91
8507.55
8655.81
30001
30169.4
8692.28
8528.36
8968.8
9694.53
10496.9
11328.8
12165
12950.9
13572.5
13905.2
13991.8
13999.3
13999.4
13999.4
13999.4
13999.4
13999.4
13999.4
13999.4
13999.4
13999.4
13999.4
13999.4
13999.4
13999.4
13999.4
13999.3
13991.8
13905.2
13572.4
12950.6
12164.1
11326.8
10492.5
9686.25
8953.76
8507.46
8655.78
30000.9
30017
8657.18
8505.44
8950.32
9680.75
10483.9
11315
12149.7
12934
13554.4
13886.5
13972.9
13980.4
13980.5
13980.5
13980.5
13980.5
13980.5
13980.5
13980.5
13980.5
13980.5
13980.5
13980.5
13980.5
13980.5
13980.5
13980.4
13972.9
13886.5
13554.4
12934
12149.3
11314.2
10482.2
9677.99
8947.46
8502.65
8653.33
29997
29913
8617.85
8448.03
8882.79
9599.64
10390.2
11208.4
12030.4
12803.6
13415.5
13743.1
13828.3
13835.6
13835.8
13835.8
13835.8
13835.8
13835.8
13835.8
13835.8
13835.8
13835.8
13835.8
13835.8
13835.8
13835.8
13835.8
13835.6
13828.3
13743.1
13415.5
12803.7
12030.7
11208.8
10390.5
9599.92
8882.76
8447.73
8617.3
29908
29347.7
8443.53
8236.69
8651.51
9337.67
10096.9
10883.8
11675.4
12420.7
13010.6
13325.9
13407.5
13414.5
13414.6
13414.6
13414.6
13414.6
13414.6
13414.6
13414.6
13414.6
13414.6
13414.6
13414.6
13414.6
13414.6
13414.6
13414.5
13407.5
13325.9
13010.7
12420.8
11675.6
10884.1
10097.4
9338.43
8652.53
8237.84
8444.65
29348.3
27910.9
8061.76
7846.38
8240.09
8887.22
9604.97
10350.4
11101.1
11807.6
12365.2
12661
12736.7
12743.1
12743.2
12743.2
12743.2
12743.2
12743.2
12743.2
12743.2
12743.2
12743.2
12743.2
12743.2
12743.2
12743.2
12743.2
12743.1
12736.7
12661
12365.2
11807.6
11101.2
10350.5
9605.14
8887.48
8240.43
7846.75
8062.07
27911.3
25777.1
7526.51
7352.58
7729.36
8338.18
9013.57
9715.48
10422.4
11086.2
11606.7
11879.2
11947.3
11952.9
11953
11953
11953
11953
11953
11953
11953
11953
11953
11953
11953
11953
11953
11953
11952.9
11947.3
11879.2
11606.7
11086.2
10422.4
9715.48
9013.6
8338.21
7729.41
7352.63
7526.54
25777.2
23300.1
6935.75
6828.84
7189.95
7764.06
8397.52
9057.66
9720.94
10341.5
10823.4
11070.6
11130.5
11135.1
11135.2
11135.2
11135.2
11135.2
11135.2
11135.2
11135.2
11135.2
11135.2
11135.2
11135.2
11135.2
11135.2
11135.2
11135.1
11130.5
11070.6
10823.4
10341.5
9720.93
9057.65
8397.51
7764.05
7189.93
6828.83
6935.74
23300.1
20919.6
6354.21
6307.75
6656.72
7194.66
7792.83
8411.44
9033.09
9610.89
10053.8
10275.2
10326.5
10330.2
10330.3
10330.3
10330.3
10330.3
10330.3
10330.3
10330.3
10330.3
10330.3
10330.3
10330.3
10330.3
10330.3
10330.3
10330.2
10326.5
10275.2
10053.8
9610.89
9033.09
8411.43
7792.83
7194.65
6656.72
6307.74
6354.21
20919.6
18375.4
5811.72
5819.47
6148.67
6657.36
7212.36
7795.17
8375.25
8911.55
9315.91
9511.63
9554.7
9557.65
9557.69
9557.69
9557.69
9557.69
9557.69
9557.69
9557.69
9557.69
9557.69
9557.69
9557.69
9557.69
9557.69
9557.69
9557.65
9554.7
9511.63
9315.91
8911.55
8375.25
7795.17
7212.36
6657.36
6148.67
5819.47
5811.72
18375.4
16364.2
5343.75
5369.78
5684.78
6165.21
6689.93
7236.27
7781.43
8280.09
8647.8
8818.29
8853.41
8855.61
8855.64
8855.64
8855.64
8855.64
8855.64
8855.64
8855.64
8855.64
8855.64
8855.64
8855.64
8855.64
8855.64
8855.64
8855.61
8853.41
8818.29
8647.8
8280.09
7781.43
7236.27
6689.93
6165.21
5684.78
5369.78
5343.75
16364.2
14702.8
5041.17
5055.2
5378.51
5844.34
6348.86
6882.69
7411.68
7892.06
8238.65
8392.41
8421.83
8423.49
8423.51
8423.51
8423.51
8423.51
8423.51
8423.51
8423.51
8423.51
8423.51
8423.51
8423.51
8423.51
8423.51
8423.51
8423.49
8421.83
8392.41
8238.65
7892.06
7411.68
6882.69
6348.86
5844.34
5378.51
5055.2
5041.17
14702.8
14585.2
4980.91
5037.66
5352.06
5839.97
6407.19
7010.03
7607.07
8118.13
8442.72
8561.41
8579.38
8580.17
8580.17
8580.17
8580.17
8580.17
8580.17
8580.17
8580.17
8580.17
8580.17
8580.17
8580.17
8580.17
8580.17
8580.17
8580.17
8579.38
8561.41
8442.72
8118.13
7607.07
7010.03
6407.19
5839.97
5352.06
5037.66
4980.91
14585.2
58485.1
14971
15122.4
16946.2
19091.6
21802.7
24338.3
26893
28978.1
30204.1
30578.9
30620.4
30621.6
30621.6
30621.6
30621.6
30621.6
30621.6
30621.6
30621.6
30621.6
30621.6
30621.6
30621.6
30621.6
30621.6
30621.6
30621.6
30620.4
30578.9
30204.1
28978.1
26893
24338.3
21802.7
19091.6
16946.2
15122.4
14971
58485.1
58485.1
14971
15122.4
16946.2
19091.6
21802.7
24338.3
26893
28978.1
30204.1
30578.9
30620.4
30621.6
30621.6
30621.6
30621.6
30621.6
30621.6
30621.6
30621.6
30621.6
30621.6
30621.6
30621.6
30621.6
30621.6
30621.6
30621.6
30620.4
30578.9
30204.1
28978.1
26893
24338.3
21802.7
19091.6
16946.2
15122.4
14971
58485.1
14585.2
4980.91
5037.66
5352.06
5839.97
6407.19
7010.03
7607.07
8118.13
8442.72
8561.41
8579.38
8580.17
8580.17
8580.17
8580.17
8580.17
8580.17
8580.17
8580.17
8580.17
8580.17
8580.17
8580.17
8580.17
8580.17
8580.17
8580.17
8579.38
8561.41
8442.72
8118.13
7607.07
7010.03
6407.19
5839.97
5352.06
5037.66
4980.91
14585.2
14702.8
5041.17
5055.2
5378.51
5844.34
6348.86
6882.69
7411.68
7892.06
8238.65
8392.41
8421.83
8423.49
8423.51
8423.51
8423.51
8423.51
8423.51
8423.51
8423.51
8423.51
8423.51
8423.51
8423.51
8423.51
8423.51
8423.51
8423.49
8421.83
8392.41
8238.65
7892.06
7411.68
6882.69
6348.86
5844.34
5378.51
5055.2
5041.17
14702.8
16364.2
5343.75
5369.78
5684.78
6165.21
6689.93
7236.27
7781.43
8280.09
8647.8
8818.29
8853.41
8855.61
8855.64
8855.64
8855.64
8855.64
8855.64
8855.64
8855.64
8855.64
8855.64
8855.64
8855.64
8855.64
8855.64
8855.64
8855.61
8853.41
8818.29
8647.8
8280.09
7781.43
7236.27
6689.93
6165.21
5684.78
5369.78
5343.75
16364.2
18375.4
5811.72
5819.47
6148.67
6657.36
7212.36
7795.17
8375.25
8911.55
9315.91
9511.63
9554.7
9557.65
9557.69
9557.69
9557.69
9557.69
9557.69
9557.69
9557.69
9557.69
9557.69
9557.69
9557.69
9557.69
9557.69
9557.69
9557.65
9554.7
9511.63
9315.91
8911.55
8375.25
7795.17
7212.36
6657.36
6148.67
5819.47
5811.72
18375.4
20919.6
6354.21
6307.75
6656.72
7194.66
7792.83
8411.44
9033.09
9610.89
10053.8
10275.2
10326.5
10330.2
10330.3
10330.3
10330.3
10330.3
10330.3
10330.3
10330.3
10330.3
10330.3
10330.3
10330.3
10330.3
10330.3
10330.3
10330.2
10326.5
10275.2
10053.8
9610.89
9033.09
8411.43
7792.83
7194.65
6656.72
6307.74
6354.21
20919.6
23300.1
6935.75
6828.84
7189.95
7764.06
8397.52
9057.66
9720.94
10341.5
10823.4
11070.6
11130.5
11135.1
11135.2
11135.2
11135.2
11135.2
11135.2
11135.2
11135.2
11135.2
11135.2
11135.2
11135.2
11135.2
11135.2
11135.2
11135.1
11130.5
11070.6
10823.4
10341.5
9720.93
9057.65
8397.51
7764.05
7189.93
6828.83
6935.74
23300.1
25777.1
7526.51
7352.58
7729.36
8338.18
9013.57
9715.48
10422.4
11086.2
11606.7
11879.2
11947.3
11952.9
11953
11953
11953
11953
11953
11953
11953
11953
11953
11953
11953
11953
11953
11953
11952.9
11947.3
11879.2
11606.7
11086.2
10422.4
9715.48
9013.6
8338.21
7729.41
7352.63
7526.54
25777.2
27910.9
8061.76
7846.38
8240.09
8887.22
9604.97
10350.4
11101.1
11807.6
12365.2
12661
12736.7
12743.1
12743.2
12743.2
12743.2
12743.2
12743.2
12743.2
12743.2
12743.2
12743.2
12743.2
12743.2
12743.2
12743.2
12743.2
12743.1
12736.7
12661
12365.2
11807.6
11101.2
10350.5
9605.14
8887.48
8240.43
7846.75
8062.07
27911.3
29347.7
8443.53
8236.69
8651.51
9337.67
10096.9
10883.8
11675.4
12420.7
13010.6
13325.9
13407.5
13414.5
13414.6
13414.6
13414.6
13414.6
13414.6
13414.6
13414.6
13414.6
13414.6
13414.6
13414.6
13414.6
13414.6
13414.6
13414.5
13407.5
13325.9
13010.7
12420.8
11675.6
10884.1
10097.4
9338.43
8652.53
8237.84
8444.65
29348.3
29913
8617.85
8448.03
8882.79
9599.64
10390.2
11208.4
12030.4
12803.6
13415.5
13743.1
13828.3
13835.6
13835.8
13835.8
13835.8
13835.8
13835.8
13835.8
13835.8
13835.8
13835.8
13835.8
13835.8
13835.8
13835.8
13835.8
13835.6
13828.3
13743.1
13415.5
12803.7
12030.7
11208.8
10390.5
9599.92
8882.76
8447.73
8617.3
29908
30017
8657.18
8505.44
8950.32
9680.75
10483.9
11315
12149.7
12934
13554.4
13886.5
13972.9
13980.4
13980.5
13980.5
13980.5
13980.5
13980.5
13980.5
13980.5
13980.5
13980.5
13980.5
13980.5
13980.5
13980.5
13980.5
13980.4
13972.9
13886.5
13554.4
12934
12149.3
11314.2
10482.2
9677.99
8947.46
8502.65
8653.33
29997
30169.4
8692.28
8528.36
8968.8
9694.53
10496.9
11328.8
12165
12950.9
13572.5
13905.2
13991.8
13999.3
13999.4
13999.4
13999.4
13999.4
13999.4
13999.4
13999.4
13999.4
13999.4
13999.4
13999.4
13999.4
13999.4
13999.4
13999.3
13991.8
13905.2
13572.4
12950.6
12164.1
11326.8
10492.5
9686.25
8953.76
8507.46
8655.78
30000.9
30499.4
8779.32
8599.62
9024.13
9734.02
10521.6
11342.4
12171.3
12953.4
13573.4
13905.8
13992.4
13999.9
14000
14000
14000
14000
14000
14000
14000
14000
14000
14000
14000
14000
14000
14000
13999.9
13992.4
13905.8
13573
12951.2
12164.6
11327.2
10492.8
9686.46
8953.91
8507.55
8655.81
30001
30892.9
8887.21
8726.17
9123.47
9807.42
10571.4
11372.8
12187.5
12960.4
13575.5
13906.1
13992.4
13999.9
14000
14000.1
14000.1
14000.1
14000.1
14000.1
14000.1
14000.1
14000.1
14000.1
14000.1
14000.1
14000.1
14000
13999.9
13992.4
13905.8
13573
12951.2
12164.6
11327.2
10492.8
9686.46
8953.91
8507.55
8655.81
30001
31154.6
8964.27
8893.34
9259.87
9910.76
10645.5
11421.5
12216
12974.3
13580.4
13907.1
13992.5
13999.9
14000
14000.1
14000.1
14000.1
14000.1
14000.1
14000.1
14000.1
14000.1
14000.1
14000.1
14000.1
14000.1
14000
13999.9
13992.4
13905.8
13573
12951.2
12164.6
11327.2
10492.8
9686.46
8953.91
8507.55
8655.81
30001
31263.1
9014.48
9077.19
9424.15
10033.3
10734.3
11483.2
12254.9
12995.2
13588.7
13908.9
13992.6
13999.9
14000
14000.1
14000.1
14000.1
14000.1
14000.1
14000.1
14000.1
14000.1
14000.1
14000.1
14000.1
14000.1
14000
13999.9
13992.4
13905.8
13573
12951.2
12164.6
11327.2
10492.8
9686.46
8953.91
8507.55
8655.81
30001
30482
9061.93
9274.02
9615.19
10172.6
10828.1
11549
12298
13020.1
13599.5
13911.7
13992.9
13999.9
14000
14000.1
14000.1
14000.1
14000.1
14000.1
14000.1
14000.1
14000.1
14000.1
14000.1
14000.1
14000.1
14000
13999.9
13992.4
13905.8
13573
12951.2
12164.6
11327.2
10492.8
9686.46
8953.91
8507.55
8655.81
30001
27554.1
9141.82
9528.51
9832.25
10317.5
10914.4
11609.3
12338.1
13044.6
13611
13914.7
13993.2
13999.9
14000
14000.1
14000.1
14000.1
14000.1
14000.1
14000.1
14000.1
14000.1
14000.1
14000.1
14000.1
14000.1
14000
13999.9
13992.4
13905.8
13573
12951.2
12164.6
11327.2
10492.8
9686.46
8953.91
8507.55
8655.81
30001
22047.1
9716.2
9968.72
10110.1
10477
10990.6
11650.6
12364.7
13062.8
13620.5
13917.4
13993.5
13999.9
14000.1
14000.1
14000.1
14000.1
14000.1
14000.1
14000.1
14000.1
14000.1
14000.1
14000.1
14000.1
14000.1
14000
13999.9
13992.4
13905.8
13573
12951.2
12164.6
11327.2
10492.8
9686.46
8953.91
8507.55
8655.81
30001
)
;

boundaryField
{
    inlet
    {
        type            calculated;
        value           uniform 14000.1;
    }
    outlet
    {
        type            calculated;
        value           nonuniform List<scalar> 
165
(
1857.28
2097.05
2079.94
2059.1
2055.13
2055.54
2062.89
2071.73
2076.05
2078.71
2092.9
2129.95
2187.95
2259.79
2330.85
2407.78
2450.07
2532.7
2874.96
2881.28
2881.28
2889.42
2548.91
2460.63
2415.83
2336.41
2262.97
2191.42
2136.61
2105.89
2096.67
2095.65
2095.62
2095.62
2095.62
2095.62
2095.62
2095.62
2095.62
2095.62
2095.62
2095.62
2095.62
2095.62
2095.62
2095.62
2095.62
2095.62
2095.65
2096.67
2105.89
2136.61
2191.42
2262.97
2336.41
2415.83
2460.63
2548.91
2889.42
2881.28
2076.52
2076.52
2076.52
2076.52
2076.52
2076.52
2076.52
2076.52
2076.62
2078.85
2092.88
2129.94
2187.94
2259.79
2330.85
2407.78
2450.07
2532.7
2874.96
2881.28
2076.52
2076.52
2076.52
2076.52
2076.52
2881.28
2874.96
2532.7
2450.07
2407.78
2330.85
2259.79
2187.94
2129.94
2092.88
2078.85
2076.62
2076.52
2076.52
2076.52
2076.52
2076.52
2076.52
2076.52
2076.52
2881.28
2889.42
2548.91
2460.63
2415.83
2336.41
2262.97
2191.42
2136.61
2105.89
2096.67
2095.65
2095.62
2095.62
2095.62
2095.62
2095.62
2095.62
2095.62
2095.62
2095.62
2095.62
2095.62
2095.62
2095.62
2095.62
2095.62
2095.62
2095.65
2096.67
2105.89
2136.61
2191.42
2262.97
2336.41
2415.83
2460.63
2548.91
2889.42
2881.28
2881.28
2874.96
2532.7
2450.07
2407.78
2330.85
2259.79
2187.95
2129.95
2092.9
2078.71
2076.05
2071.73
2062.89
2055.54
2055.13
2059.1
2079.94
2097.05
1857.28
)
;
    }
    obstacle
    {
        type            calculated;
        value           nonuniform List<scalar> 
40
(
14000
14000
14000
14000.1
14003.7
14047.1
14203.2
14430.7
14581.4
14721
14000
14000
14000
14000.1
14003.7
14047.1
14203.2
14430.7
14581.4
14721
14668.5
14696
14680.6
14582.6
14020.7
14668.5
14696
14680.6
14582.6
14020.7
15544.3
15491
15727.7
15911.6
16476.4
15544.3
15491
15727.7
15911.6
16476.4
)
;
    }
    empty
    {
        type            empty;
    }
}


// ************************************************************************* //
