/*--------------------------------*- C++ -*----------------------------------*\
| =========                 |                                                 |
| \\      /  F ield         | OpenFOAM: The Open Source CFD Toolbox           |
|  \\    /   O peration     | Version:  v1912                                 |
|   \\  /    A nd           | Website:  www.openfoam.com                      |
|    \\/     M anipulation  |                                                 |
\*---------------------------------------------------------------------------*/
FoamFile
{
    version     2.0;
    format      ascii;
    class       volScalarField;
    location    "7.92";
    object      Ma;
}
// * * * * * * * * * * * * * * * * * * * * * * * * * * * * * * * * * * * * * //

dimensions      [0 0 0 0 0 0 0];


internalField   nonuniform List<scalar> 
1900
(
0.413076
0.0494052
0.102808
0.105411
0.109403
0.111751
0.112921
0.112183
0.110945
0.0985208
0.413072
0.0494075
0.102809
0.105393
0.109356
0.111671
0.112838
0.111893
0.111838
0.111477
0.413071
0.0494093
0.102809
0.105374
0.109315
0.111592
0.112784
0.11215
0.113231
0.118361
0.413072
0.0494075
0.102809
0.105393
0.109356
0.111671
0.112838
0.111893
0.111838
0.111477
0.413076
0.0494052
0.102808
0.105411
0.109403
0.111751
0.112921
0.112183
0.110945
0.0985208
0.106166
0.146409
0.199885
0.286279
0.434937
0.127098
0.152103
0.183744
0.249545
0.39453
0.134831
0.158057
0.190212
0.253295
0.391708
0.127098
0.152103
0.183744
0.249545
0.39453
0.106166
0.146409
0.199885
0.286279
0.434937
0.950487
1.34133
1.60581
1.78288
1.95709
0.908086
1.34068
1.62739
1.80315
1.97687
0.9035
1.34963
1.62791
1.7977
1.97278
0.908086
1.34068
1.62739
1.80315
1.97687
0.950487
1.34133
1.60581
1.78288
1.95709
2.07103
2.16137
2.20207
2.24427
2.2827
2.32486
2.40716
2.48362
2.46264
2.2235
1.71445
1.57987
1.534
1.48422
1.38699
1.26998
1.16145
1.0597
0.956556
0.85017
0.717087
0.520289
0.323837
0.256037
0.252861
0.258391
0.264572
0.273519
0.288684
0.310086
0.310619
0.168788
0.118531
0.252487
0.293749
0.317867
0.338445
0.354908
0.375148
0.406946
2.0458
2.04217
2.06606
2.11001
2.16415
2.22681
2.33239
2.42176
2.40552
2.1651
1.70336
1.56988
1.53265
1.4765
1.37444
1.25927
1.16374
1.07574
0.972474
0.860537
0.7242
0.524475
0.324658
0.255754
0.252557
0.258142
0.264342
0.273333
0.288532
0.310001
0.310574
0.168519
0.117068
0.251192
0.292141
0.316003
0.33654
0.354078
0.376252
0.409038
2.0401
2.02894
2.02321
2.07119
2.11198
2.18098
2.29766
2.39107
2.37718
2.14191
1.69338
1.5618
1.52972
1.47488
1.37655
1.26814
1.17477
1.08692
0.986126
0.865283
0.720384
0.521379
0.324364
0.255706
0.252442
0.258023
0.264185
0.273164
0.288368
0.309855
0.31043
0.168264
0.116781
0.250897
0.291586
0.315144
0.335351
0.352688
0.374922
0.407977
2.0458
2.04217
2.06606
2.11001
2.16415
2.22681
2.33239
2.42176
2.40552
2.1651
1.70336
1.56988
1.53265
1.4765
1.37444
1.25927
1.16374
1.07574
0.972474
0.860537
0.7242
0.524475
0.324658
0.255754
0.252557
0.258142
0.264342
0.273333
0.288532
0.310001
0.310574
0.168519
0.117068
0.251192
0.292141
0.316003
0.33654
0.354078
0.376252
0.409038
2.07103
2.16137
2.20207
2.24427
2.2827
2.32486
2.40716
2.48362
2.46264
2.2235
1.71445
1.57987
1.534
1.48422
1.38699
1.26998
1.16145
1.0597
0.956556
0.85017
0.717087
0.520289
0.323837
0.256037
0.252861
0.258391
0.264572
0.273519
0.288684
0.310086
0.310619
0.168788
0.118531
0.252487
0.293749
0.317867
0.338445
0.354908
0.375148
0.406946
2.4261
2.45028
2.46857
2.48884
2.49418
2.50565
2.54579
2.56908
2.52234
2.20855
1.69549
1.57692
1.53129
1.47592
1.37543
1.26338
1.16525
1.07139
0.971479
0.860043
0.718057
0.515263
0.321452
0.257305
0.254556
0.260069
0.266315
0.275288
0.290494
0.311807
0.312448
0.172241
0.121842
0.253911
0.295046
0.318945
0.339601
0.35478
0.371766
0.401096
2.67494
2.68451
2.69182
2.69343
2.68467
2.67296
2.67299
2.61911
2.51663
2.08879
1.6722
1.54643
1.47569
1.40557
1.31129
1.21757
1.13534
1.04846
0.95009
0.839511
0.698521
0.49781
0.316624
0.261372
0.259509
0.264983
0.271381
0.28049
0.295869
0.316939
0.317866
0.181858
0.1308
0.257573
0.298145
0.321725
0.342602
0.357349
0.372407
0.39992
2.66582
2.6426
2.6354
2.63977
2.65572
2.66338
2.65629
2.57894
2.43489
1.99937
1.69941
1.53939
1.42468
1.32463
1.23196
1.15773
1.09098
1.0118
0.918085
0.811795
0.671281
0.472908
0.310983
0.267746
0.267165
0.272471
0.279041
0.288288
0.30392
0.324656
0.325964
0.195517
0.143547
0.263012
0.302707
0.326249
0.347413
0.361973
0.376352
0.40196
2.58656
2.59385
2.60188
2.61562
2.64533
2.65882
2.56665
2.45761
2.25789
1.91154
1.67396
1.48381
1.34209
1.24059
1.16439
1.10725
1.04643
0.97008
0.881614
0.77948
0.636973
0.443012
0.307244
0.276637
0.277204
0.282186
0.288901
0.298196
0.31405
0.334334
0.33601
0.211645
0.160201
0.271775
0.310609
0.334364
0.355499
0.369194
0.383446
0.407149
2.49656
2.50273
2.51165
2.51671
2.52679
2.53074
2.41267
2.28596
2.06399
1.78764
1.56218
1.37102
1.24798
1.16728
1.10955
1.05984
0.999008
0.924944
0.841907
0.741584
0.594344
0.410593
0.306613
0.287646
0.289226
0.293948
0.300956
0.310363
0.326528
0.346388
0.348574
0.230819
0.177162
0.279549
0.316708
0.340031
0.360633
0.37289
0.386864
0.408743
2.35797
2.36198
2.36795
2.35682
2.34039
2.29496
2.19363
2.05174
1.83834
1.60292
1.38532
1.24212
1.1646
1.10795
1.06559
1.0153
0.951963
0.880337
0.801113
0.69865
0.545599
0.382461
0.31136
0.300653
0.302446
0.306713
0.313857
0.323148
0.339401
0.3586
0.360969
0.249096
0.197792
0.292793
0.328989
0.352315
0.372906
0.383915
0.39762
0.417751
2.16371
2.16483
2.15672
2.12436
2.08554
2.02131
1.92116
1.76452
1.56677
1.35898
1.19889
1.13676
1.09818
1.0686
1.02562
0.96759
0.903429
0.834926
0.757035
0.648231
0.492416
0.361704
0.319767
0.314929
0.317014
0.321323
0.329054
0.338543
0.355153
0.37395
0.376842
0.271228
0.215818
0.301897
0.336795
0.359752
0.380271
0.390157
0.403631
0.422169
1.89725
1.89285
1.87463
1.83916
1.78855
1.71346
1.60033
1.44542
1.27048
1.12712
1.09588
1.08602
1.06625
1.03058
0.97777
0.918779
0.856188
0.79047
0.710708
0.592269
0.444252
0.354288
0.33231
0.330186
0.331885
0.336029
0.34411
0.353507
0.370114
0.388203
0.391191
0.291266
0.238037
0.3172
0.350862
0.37292
0.392885
0.401397
0.414222
0.431107
1.56467
1.56687
1.5539
1.5237
1.46982
1.38308
1.26506
1.14092
1.05702
1.06306
1.07416
1.06039
1.02694
0.980321
0.927294
0.869594
0.809987
0.745146
0.658424
0.531121
0.40904
0.357871
0.34818
0.347783
0.349875
0.35456
0.363462
0.373058
0.389768
0.407292
0.410559
0.316546
0.258669
0.329198
0.36203
0.383329
0.402955
0.410142
0.422371
0.437789
1.20739
1.21528
1.20388
1.17258
1.12118
1.05857
1.02289
1.02474
1.052
1.06136
1.0505
1.01954
0.980036
0.933383
0.879539
0.823031
0.766792
0.700243
0.602427
0.473302
0.38862
0.368313
0.363705
0.362786
0.364418
0.368975
0.378243
0.387651
0.404056
0.420773
0.423771
0.333344
0.275131
0.339573
0.371181
0.393539
0.414753
0.422109
0.433769
0.4475
0.864779
0.881013
0.884925
0.895326
0.924849
0.969763
1.01531
1.0447
1.05105
1.04002
1.01314
0.978522
0.935818
0.883905
0.82857
0.77448
0.715458
0.632039
0.512094
0.420705
0.378849
0.363535
0.35768
0.355032
0.355643
0.359277
0.368494
0.377636
0.394111
0.410642
0.412974
0.317182
0.24863
0.313976
0.34963
0.379653
0.4056
0.420759
0.436795
0.45173
0.730976
0.769136
0.812745
0.86713
0.922552
0.970002
1.01081
1.03073
1.02525
1.00359
0.969622
0.923703
0.867448
0.808204
0.748019
0.680936
0.599885
0.499718
0.385517
0.300893
0.268231
0.251887
0.241831
0.237553
0.238985
0.245469
0.258634
0.272109
0.292824
0.312783
0.312874
0.184047
0.101984
0.208704
0.252836
0.308507
0.356635
0.396311
0.430198
0.456462
0.72641
0.750122
0.798804
0.846788
0.891825
0.933772
0.973282
0.987911
0.974628
0.936991
0.882013
0.808308
0.718844
0.623997
0.531588
0.438898
0.330125
0.209819
0.139937
0.130197
0.142778
0.160214
0.178964
0.197948
0.216329
0.236098
0.254363
0.27451
0.294479
0.315424
0.312268
0.205868
0.117366
0.156026
0.152919
0.202361
0.256253
0.327039
0.389942
0.445605
0.701487
0.706379
0.739198
0.768236
0.795207
0.817232
0.830753
0.82206
0.773304
0.690191
0.590032
0.484695
0.395088
0.319093
0.249822
0.175792
0.11329
0.116048
0.14912
0.176279
0.201031
0.223954
0.244675
0.263332
0.279622
0.297254
0.310997
0.329005
0.344915
0.362204
0.356595
0.272433
0.172905
0.151869
0.105289
0.127279
0.165561
0.242072
0.325024
0.399634
0.659443
0.632168
0.615726
0.591563
0.566397
0.54053
0.509353
0.483214
0.446499
0.385782
0.318824
0.255841
0.199685
0.139058
0.080836
0.0667251
0.116372
0.158576
0.186514
0.209909
0.232099
0.253289
0.272746
0.29031
0.304974
0.321889
0.334329
0.351655
0.366963
0.38387
0.379247
0.311124
0.187108
0.116085
0.0457011
0.058501
0.113376
0.193906
0.276986
0.337259
0.632487
0.56528
0.504829
0.457471
0.424411
0.386495
0.352674
0.316237
0.27691
0.23227
0.181267
0.12225
0.062786
0.00277445
0.0663933
0.125326
0.165653
0.191024
0.212019
0.231467
0.251124
0.271085
0.289995
0.307293
0.32146
0.338551
0.350556
0.367352
0.382054
0.399235
0.397996
0.353927
0.243567
0.151144
0.0794906
0.0222144
0.098608
0.19774
0.289331
0.33666
0.615847
0.543065
0.485175
0.430754
0.376685
0.315682
0.258196
0.2204
0.194693
0.170622
0.13352
0.0972618
0.0811948
0.111096
0.150887
0.181141
0.199544
0.216875
0.235276
0.253024
0.271046
0.289928
0.308537
0.325631
0.338942
0.355844
0.367434
0.383551
0.397612
0.415125
0.41705
0.390332
0.301687
0.198295
0.134783
0.109463
0.149506
0.225296
0.316219
0.346316
0.642754
0.592258
0.51075
0.433855
0.357136
0.280052
0.202312
0.154462
0.14598
0.144483
0.134934
0.140982
0.159304
0.184844
0.203547
0.215676
0.227536
0.241842
0.256992
0.271118
0.286075
0.302787
0.320246
0.336242
0.347797
0.363347
0.373739
0.388658
0.401488
0.41783
0.42458
0.414606
0.36258
0.273874
0.212962
0.209019
0.227792
0.317143
0.442558
0.453092
0.837723
0.723055
0.588353
0.480798
0.387489
0.298085
0.220758
0.192695
0.204777
0.211063
0.20842
0.213776
0.218591
0.225081
0.226732
0.231362
0.24074
0.253757
0.268459
0.283737
0.300983
0.318053
0.333651
0.347796
0.357947
0.372932
0.383071
0.39735
0.409543
0.424703
0.433768
0.436001
0.411287
0.349979
0.292275
0.296348
0.312435
0.437664
0.583626
0.698578
1.99749
0.963243
0.578325
0.494284
0.409985
0.31316
0.241382
0.225303
0.245124
0.260624
0.264809
0.270185
0.267726
0.264336
0.262483
0.267157
0.277105
0.290264
0.304665
0.319083
0.334979
0.348606
0.35919
0.369159
0.376357
0.389251
0.39763
0.410153
0.420756
0.43415
0.442802
0.452435
0.450306
0.417963
0.354473
0.342932
0.342405
0.448767
0.686614
1.69389
1.99749
0.963243
0.578325
0.494284
0.409985
0.31316
0.241382
0.225303
0.245124
0.260624
0.264809
0.270185
0.267726
0.264336
0.262483
0.267157
0.277105
0.290264
0.304665
0.319083
0.334979
0.348606
0.35919
0.369159
0.376357
0.389251
0.39763
0.410153
0.420756
0.43415
0.442802
0.452435
0.450306
0.417963
0.354473
0.342932
0.342405
0.448767
0.686614
1.69389
0.837723
0.723055
0.588353
0.480798
0.387489
0.298085
0.220758
0.192695
0.204777
0.211063
0.20842
0.213776
0.218591
0.225081
0.226732
0.231362
0.24074
0.253757
0.268459
0.283737
0.300983
0.318053
0.333651
0.347796
0.357947
0.372932
0.383071
0.39735
0.409543
0.424703
0.433768
0.436001
0.411287
0.349979
0.292275
0.296348
0.312435
0.437664
0.583626
0.698578
0.642754
0.592258
0.51075
0.433855
0.357136
0.280052
0.202312
0.154462
0.14598
0.144483
0.134934
0.140982
0.159304
0.184844
0.203547
0.215676
0.227536
0.241842
0.256992
0.271118
0.286075
0.302787
0.320246
0.336242
0.347797
0.363347
0.373739
0.388658
0.401488
0.41783
0.42458
0.414606
0.36258
0.273874
0.212962
0.209019
0.227792
0.317143
0.442558
0.453092
0.615847
0.543065
0.485175
0.430754
0.376685
0.315682
0.258196
0.2204
0.194693
0.170622
0.13352
0.0972618
0.0811948
0.111096
0.150887
0.181141
0.199544
0.216875
0.235276
0.253024
0.271046
0.289928
0.308537
0.325631
0.338942
0.355844
0.367434
0.383551
0.397612
0.415125
0.41705
0.390332
0.301687
0.198295
0.134783
0.109463
0.149506
0.225296
0.316219
0.346316
0.632487
0.56528
0.504829
0.457471
0.424411
0.386495
0.352674
0.316237
0.27691
0.23227
0.181267
0.12225
0.062786
0.00277445
0.0663933
0.125326
0.165653
0.191024
0.212019
0.231467
0.251124
0.271085
0.289995
0.307293
0.32146
0.338551
0.350556
0.367352
0.382054
0.399235
0.397996
0.353927
0.243567
0.151144
0.0794906
0.0222144
0.098608
0.19774
0.289331
0.33666
0.659443
0.632168
0.615726
0.591563
0.566397
0.54053
0.509353
0.483214
0.446499
0.385782
0.318824
0.255841
0.199685
0.139058
0.080836
0.0667251
0.116372
0.158576
0.186514
0.209909
0.232099
0.253289
0.272746
0.29031
0.304974
0.321889
0.334329
0.351655
0.366963
0.38387
0.379247
0.311124
0.187108
0.116085
0.0457011
0.058501
0.113376
0.193906
0.276986
0.337259
0.701487
0.706379
0.739198
0.768236
0.795207
0.817232
0.830753
0.82206
0.773304
0.690191
0.590032
0.484695
0.395088
0.319093
0.249822
0.175792
0.11329
0.116048
0.14912
0.176279
0.201031
0.223954
0.244675
0.263332
0.279622
0.297254
0.310997
0.329005
0.344915
0.362204
0.356595
0.272433
0.172905
0.151869
0.105289
0.127279
0.165561
0.242072
0.325024
0.399634
0.72641
0.750122
0.798804
0.846788
0.891825
0.933772
0.973282
0.987911
0.974628
0.936991
0.882013
0.808308
0.718844
0.623997
0.531588
0.438898
0.330125
0.209819
0.139937
0.130197
0.142778
0.160214
0.178964
0.197948
0.216329
0.236098
0.254363
0.27451
0.294479
0.315424
0.312268
0.205868
0.117366
0.156026
0.152919
0.202361
0.256253
0.327039
0.389942
0.445605
0.730976
0.769136
0.812745
0.86713
0.922552
0.970002
1.01081
1.03073
1.02525
1.00359
0.969622
0.923703
0.867448
0.808204
0.748019
0.680936
0.599885
0.499718
0.385517
0.300893
0.268231
0.251887
0.241831
0.237553
0.238985
0.245469
0.258634
0.272109
0.292824
0.312783
0.312874
0.184047
0.101984
0.208704
0.252836
0.308507
0.356635
0.396311
0.430198
0.456462
0.864779
0.881013
0.884925
0.895326
0.924849
0.969763
1.01531
1.0447
1.05105
1.04002
1.01314
0.978522
0.935818
0.883905
0.82857
0.77448
0.715458
0.632039
0.512094
0.420705
0.378849
0.363535
0.35768
0.355032
0.355643
0.359277
0.368494
0.377636
0.394111
0.410642
0.412974
0.317182
0.24863
0.313976
0.34963
0.379653
0.4056
0.420759
0.436795
0.45173
1.20739
1.21528
1.20388
1.17258
1.12118
1.05857
1.02289
1.02474
1.052
1.06136
1.0505
1.01954
0.980036
0.933383
0.879539
0.823031
0.766792
0.700243
0.602427
0.473302
0.38862
0.368313
0.363705
0.362786
0.364418
0.368975
0.378243
0.387651
0.404056
0.420773
0.423771
0.333344
0.275131
0.339573
0.371181
0.393539
0.414753
0.422109
0.433769
0.4475
1.56467
1.56687
1.5539
1.5237
1.46982
1.38308
1.26506
1.14092
1.05702
1.06306
1.07416
1.06039
1.02694
0.980321
0.927294
0.869594
0.809987
0.745146
0.658424
0.531121
0.40904
0.357871
0.34818
0.347783
0.349875
0.35456
0.363462
0.373058
0.389768
0.407292
0.410559
0.316546
0.258669
0.329198
0.36203
0.383329
0.402955
0.410142
0.422371
0.437789
1.89725
1.89285
1.87463
1.83916
1.78855
1.71346
1.60033
1.44542
1.27048
1.12712
1.09588
1.08602
1.06625
1.03058
0.97777
0.918779
0.856188
0.79047
0.710708
0.592269
0.444252
0.354288
0.33231
0.330186
0.331885
0.336029
0.34411
0.353507
0.370114
0.388203
0.391191
0.291266
0.238037
0.3172
0.350862
0.37292
0.392885
0.401397
0.414222
0.431107
2.16371
2.16483
2.15672
2.12436
2.08554
2.02131
1.92116
1.76452
1.56677
1.35898
1.19889
1.13676
1.09818
1.0686
1.02562
0.96759
0.903429
0.834926
0.757035
0.648231
0.492416
0.361704
0.319767
0.314929
0.317014
0.321323
0.329054
0.338543
0.355153
0.37395
0.376842
0.271228
0.215818
0.301897
0.336795
0.359752
0.380271
0.390157
0.403631
0.422169
2.35797
2.36198
2.36795
2.35682
2.34039
2.29496
2.19363
2.05174
1.83834
1.60292
1.38532
1.24212
1.1646
1.10795
1.06559
1.0153
0.951963
0.880337
0.801113
0.69865
0.545599
0.382461
0.31136
0.300653
0.302446
0.306713
0.313857
0.323148
0.339401
0.3586
0.360969
0.249096
0.197792
0.292793
0.328989
0.352315
0.372906
0.383915
0.39762
0.417751
2.49656
2.50273
2.51165
2.51671
2.52679
2.53074
2.41267
2.28596
2.06399
1.78764
1.56218
1.37102
1.24798
1.16728
1.10955
1.05984
0.999008
0.924944
0.841907
0.741584
0.594344
0.410593
0.306613
0.287646
0.289226
0.293948
0.300956
0.310363
0.326528
0.346388
0.348574
0.230819
0.177162
0.279549
0.316708
0.340031
0.360633
0.37289
0.386864
0.408743
2.58656
2.59385
2.60188
2.61562
2.64533
2.65882
2.56665
2.45761
2.25789
1.91154
1.67396
1.48381
1.34209
1.24059
1.16439
1.10725
1.04643
0.97008
0.881614
0.77948
0.636973
0.443012
0.307244
0.276637
0.277204
0.282186
0.288901
0.298196
0.31405
0.334334
0.33601
0.211645
0.160201
0.271775
0.310609
0.334364
0.355499
0.369194
0.383446
0.407149
2.66582
2.6426
2.6354
2.63977
2.65572
2.66338
2.65629
2.57894
2.43489
1.99937
1.69941
1.53939
1.42468
1.32463
1.23196
1.15773
1.09098
1.0118
0.918085
0.811795
0.671281
0.472908
0.310983
0.267746
0.267165
0.272471
0.279041
0.288288
0.30392
0.324656
0.325964
0.195517
0.143547
0.263012
0.302707
0.326249
0.347413
0.361973
0.376352
0.40196
2.67494
2.68451
2.69182
2.69343
2.68467
2.67296
2.67299
2.61911
2.51663
2.08879
1.6722
1.54643
1.47569
1.40557
1.31129
1.21757
1.13534
1.04846
0.95009
0.839511
0.698521
0.49781
0.316624
0.261372
0.259509
0.264983
0.271381
0.28049
0.295869
0.316939
0.317866
0.181858
0.1308
0.257573
0.298145
0.321725
0.342602
0.357349
0.372407
0.39992
2.4261
2.45028
2.46857
2.48884
2.49418
2.50565
2.54579
2.56908
2.52234
2.20855
1.69549
1.57692
1.53129
1.47592
1.37543
1.26338
1.16525
1.07139
0.971479
0.860043
0.718057
0.515263
0.321452
0.257305
0.254556
0.260069
0.266315
0.275288
0.290494
0.311807
0.312448
0.172241
0.121842
0.253911
0.295046
0.318945
0.339601
0.35478
0.371766
0.401096
)
;

boundaryField
{
    inlet
    {
        type            calculated;
        value           uniform 0;
    }
    outlet
    {
        type            calculated;
        value           nonuniform List<scalar> 
165
(
2.4261
2.67494
2.66582
2.58656
2.49656
2.35797
2.16371
1.89725
1.56467
1.20739
0.864779
0.730976
0.72641
0.701487
0.659443
0.632487
0.615847
0.642754
0.837723
1.99749
1.99749
0.963243
0.578325
0.494284
0.409985
0.31316
0.241382
0.225303
0.245124
0.260624
0.264809
0.270185
0.267726
0.264336
0.262483
0.267157
0.277105
0.290264
0.304665
0.319083
0.334979
0.348606
0.35919
0.369159
0.376357
0.389251
0.39763
0.410153
0.420756
0.43415
0.442802
0.452435
0.450306
0.417963
0.354473
0.342932
0.342405
0.448767
0.686614
1.69389
0.401096
0.39992
0.40196
0.407149
0.408743
0.417751
0.422169
0.431107
0.437789
0.4475
0.45173
0.456462
0.445605
0.399634
0.337259
0.33666
0.346316
0.453092
0.698578
1.69389
0.406946
0.409038
0.407977
0.409038
0.406946
1.69389
0.698578
0.453092
0.346316
0.33666
0.337259
0.399634
0.445605
0.456462
0.45173
0.4475
0.437789
0.431107
0.422169
0.417751
0.408743
0.407149
0.40196
0.39992
0.401096
1.99749
0.963243
0.578325
0.494284
0.409985
0.31316
0.241382
0.225303
0.245124
0.260624
0.264809
0.270185
0.267726
0.264336
0.262483
0.267157
0.277105
0.290264
0.304665
0.319083
0.334979
0.348606
0.35919
0.369159
0.376357
0.389251
0.39763
0.410153
0.420756
0.43415
0.442802
0.452435
0.450306
0.417963
0.354473
0.342932
0.342405
0.448767
0.686614
1.69389
1.99749
0.837723
0.642754
0.615847
0.632487
0.659443
0.701487
0.72641
0.730976
0.864779
1.20739
1.56467
1.89725
2.16371
2.35797
2.49656
2.58656
2.66582
2.67494
2.4261
)
;
    }
    obstacle
    {
        type            calculated;
        value           nonuniform List<scalar> 
40
(
0.413076
0.0494052
0.102808
0.105411
0.109403
0.111751
0.112921
0.112183
0.110891
0.0978004
0.413076
0.0494052
0.102808
0.105411
0.109403
0.111751
0.112921
0.112183
0.110891
0.0978004
0.103778
0.142934
0.196379
0.28278
0.428096
0.103778
0.142934
0.196379
0.28278
0.428096
0.940295
1.3386
1.60422
1.78143
1.95581
0.940295
1.3386
1.60422
1.78143
1.95581
)
;
    }
    empty
    {
        type            empty;
    }
}


// ************************************************************************* //
