/*--------------------------------*- C++ -*----------------------------------*\
| =========                 |                                                 |
| \\      /  F ield         | OpenFOAM: The Open Source CFD Toolbox           |
|  \\    /   O peration     | Version:  v1912                                 |
|   \\  /    A nd           | Website:  www.openfoam.com                      |
|    \\/     M anipulation  |                                                 |
\*---------------------------------------------------------------------------*/
FoamFile
{
    version     2.0;
    format      ascii;
    class       volVectorField;
    location    "3.72";
    object      grad(p);
}
// * * * * * * * * * * * * * * * * * * * * * * * * * * * * * * * * * * * * * //

dimensions      [1 -2 -2 0 0 0 0];


internalField   nonuniform List<vector> 
1900
(
(95577.5 -0.955332 0)
(-72348.2 -2.50562 0)
(-6322.34 1.39464 0)
(-366.8 4.09426 0)
(-545.829 7.12327 0)
(-940.748 9.73704 0)
(-1186.54 4.90664 0)
(-1263.67 -42.2903 0)
(-1125.22 -234.312 0)
(-1934.66 -522.161 0)
(95574 -1.43428 0)
(-72345.8 -3.80968 0)
(-6315.74 2.67035 0)
(-361.072 6.133 0)
(-540.186 3.43335 0)
(-942.964 -1.14322 0)
(-1238.56 -8.55519 0)
(-1502.89 -59.0423 0)
(-1605.09 -218.489 0)
(-2047.73 -424.038 0)
(95572.2 8.52651e-10 0)
(-72344 -6.12843e-09 0)
(-6312.4 5.32907e-11 0)
(-366.037 -4.26326e-10 0)
(-553.105 -1.08358e-09 0)
(-952.736 -8.34888e-10 0)
(-1244.43 5.32907e-11 0)
(-1473.6 -1.42109e-10 0)
(-1490.22 -1.77636e-10 0)
(-1986.31 6.21725e-10 0)
(95574 1.43428 0)
(-72345.8 3.80968 0)
(-6315.74 -2.67035 0)
(-361.072 -6.133 0)
(-540.186 -3.43335 0)
(-942.964 1.14322 0)
(-1238.56 8.55519 0)
(-1502.89 59.0423 0)
(-1605.09 218.489 0)
(-2047.73 424.038 0)
(95577.5 0.955332 0)
(-72348.2 2.50562 0)
(-6322.34 -1.39464 0)
(-366.8 -4.09426 0)
(-545.829 -7.12327 0)
(-940.748 -9.73704 0)
(-1186.54 -4.90664 0)
(-1263.67 42.2903 0)
(-1125.22 234.312 0)
(-1934.66 522.161 0)
(-2287.94 -417.238 1.07116e-11)
(-2263.06 -641 -1.27261e-11)
(-3790.32 -1214.8 -1.57936e-11)
(-10804.6 -997.261 0)
(-9137.21 5362.11 -5.89068e-11)
(-2277.54 -328.536 1.06362e-11)
(-2829.36 -586.517 1.27261e-11)
(-3803.06 -1097.78 1.57936e-11)
(-7395.8 -1088.33 0)
(-7246.13 4168.22 0)
(-2541.43 6.11427e-10 0)
(-3120.02 3.31119e-10 0)
(-4420.08 -1.70234e-09 0)
(-8421.3 -8.41078e-10 0)
(-5221.79 -2.48478e-09 0)
(-2277.54 328.536 1.06362e-11)
(-2829.36 586.517 1.27261e-11)
(-3803.06 1097.78 1.57936e-11)
(-7395.8 1088.33 0)
(-7246.13 -4168.22 0)
(-2287.94 417.238 -3.19841e-11)
(-2263.06 641 -1.27261e-11)
(-3790.32 1214.8 -1.57936e-11)
(-10804.6 997.261 -4.20054e-11)
(-9137.21 -5362.11 5.89068e-11)
(-1824.42 -2823.15 2.70478e-11)
(-8381.28 150.11 -2.05006e-11)
(-4899.58 646.293 0)
(-4797.93 655.16 1.41122e-11)
(-8975.65 -2206.63 -5.94403e-12)
(-3559.15 -2958.15 -1.34814e-11)
(-7504.29 154.686 1.02526e-11)
(-4701.49 652.848 0)
(-6009.71 -121.399 -8.83157e-12)
(-8999.18 -3714.07 1.44143e-12)
(-2977.42 1.34572e-09 0)
(-7480.72 3.83359e-09 0)
(-5052.26 1.11516e-08 0)
(-6711.17 4.06356e-09 3.53117e-12)
(-9495.82 1.37642e-09 -2.88286e-12)
(-3559.15 2958.15 -1.34814e-11)
(-7504.29 -154.686 1.02526e-11)
(-4701.49 -652.848 0)
(-6009.71 121.399 -8.83157e-12)
(-8999.18 3714.07 1.44143e-12)
(-1824.42 2823.15 1.34814e-11)
(-8381.28 -150.11 -4.52082e-15)
(-4899.58 -646.293 0)
(-4797.93 -655.16 1.97313e-14)
(-8975.65 2206.63 5.94403e-12)
(-17839.2 -2026.94 0)
(-10623.7 4431.58 0)
(2045.6 2610.45 0)
(416.544 1651.01 0)
(-1339.79 907.95 0)
(-1466.9 411.577 0)
(-1123.36 181.079 0)
(-454.229 54.9729 0)
(-138.772 60.0943 0)
(-140.791 34.9966 0)
(-113.031 27.8485 0)
(-117.979 20.4337 0)
(-114.017 16.4485 0)
(-108.899 14.4067 0)
(-96.5355 13.2479 0)
(-79.5847 12.4316 0)
(-62.9973 11.7196 0)
(-49.1384 11.0859 0)
(-41.4733 10.5648 0)
(-38.611 10.224 0)
(-39.1577 9.95953 0)
(-46.3954 9.78036 0)
(-53.582 9.70824 0)
(-61.3689 9.65207 0)
(-74.4622 9.66691 0)
(-92.807 9.76827 0)
(-119.327 9.99311 0)
(-157.009 10.3585 0)
(-209.031 10.9087 0)
(-277.255 11.4246 0)
(-353.772 11.8875 0)
(-423.867 11.7541 0)
(-451.059 10.6991 0)
(-428.994 11.9427 0)
(-352.878 9.83629 0)
(-280.178 16.3875 0)
(-217.953 12.2308 0)
(760.665 24.8086 0)
(35463.4 -46.7662 0)
(-44397 -3832.84 0)
(-16401.9 -1156.13 0)
(-10520.4 5742.1 0)
(1581.2 2857.97 0)
(109.018 1022.37 0)
(-1465.56 522.554 0)
(-1550.8 206.681 0)
(-1158.84 72.2567 0)
(-463.472 25.4729 0)
(-140.268 24.517 0)
(-143.723 13.5245 0)
(-114.06 10.0044 0)
(-118.774 6.97333 0)
(-114.407 5.25492 0)
(-109.05 4.48585 0)
(-96.596 4.13074 0)
(-79.6265 3.93642 0)
(-63.0456 3.7703 0)
(-49.1901 3.61341 0)
(-41.5179 3.47432 0)
(-38.6514 3.37637 0)
(-39.2015 3.27402 0)
(-46.4385 3.17389 0)
(-53.6302 3.08868 0)
(-61.425 2.9869 0)
(-74.5199 2.90408 0)
(-92.8607 2.85912 0)
(-119.368 2.89415 0)
(-157.025 3.0552 0)
(-209.029 3.42454 0)
(-277.237 3.99577 0)
(-353.768 4.88276 0)
(-423.935 6.01492 0)
(-450.916 7.43579 0)
(-428.927 10.5318 0)
(-352.181 13.5343 0)
(-279.639 21.5044 0)
(-216.818 26.5254 0)
(755.767 38.1486 0)
(35385.9 13.6053 0)
(-44318 1659.59 0)
(-14992.5 9.04327e-09 0)
(-9455.93 4.58623e-09 0)
(672.592 4.76387e-09 0)
(-262.851 1.48568e-09 0)
(-1577.08 1.07712e-08 0)
(-1597.89 1.66332e-09 0)
(-1176.07 -2.45299e-08 0)
(-468.117 6.61047e-08 0)
(-142.248 1.65088e-07 0)
(-145.013 2.11144e-08 0)
(-114.936 -5.27497e-08 0)
(-119.36 -5.96614e-08 0)
(-114.741 -3.21924e-08 0)
(-109.226 1.68996e-08 0)
(-96.6953 5.41385e-08 0)
(-79.6895 6.11147e-08 0)
(-63.0912 4.6702e-08 0)
(-49.2245 -1.37748e-08 0)
(-41.5423 -7.82808e-08 0)
(-38.6693 -8.86967e-08 0)
(-39.2166 -1.88294e-08 0)
(-46.4494 7.69485e-08 0)
(-53.6364 6.9722e-08 0)
(-61.4226 5.43081e-08 0)
(-74.4994 8.53539e-08 0)
(-92.8099 8.50794e-08 0)
(-119.27 3.92333e-08 0)
(-156.855 9.43084e-09 0)
(-208.758 1.91201e-08 0)
(-276.831 6.86723e-08 0)
(-353.185 7.74411e-08 0)
(-423.124 4.69927e-08 0)
(-449.745 -4.11792e-08 0)
(-427.22 -1.25475e-07 0)
(-349.686 7.94435e-08 0)
(-276.399 -3.39203e-08 0)
(-213.111 1.38903e-07 0)
(756.907 1.43788e-07 0)
(35935.1 -5.46553e-07 0)
(-44883.7 -1.93855e-06 0)
(-16401.9 1156.13 0)
(-10520.4 -5742.1 0)
(1581.2 -2857.97 0)
(109.018 -1022.37 0)
(-1465.56 -522.554 0)
(-1550.8 -206.681 0)
(-1158.84 -72.2567 0)
(-463.472 -25.4729 0)
(-140.268 -24.517 0)
(-143.723 -13.5245 0)
(-114.06 -10.0044 0)
(-118.774 -6.97333 0)
(-114.407 -5.25492 0)
(-109.05 -4.48585 0)
(-96.596 -4.13074 0)
(-79.6265 -3.93642 0)
(-63.0456 -3.7703 0)
(-49.1901 -3.61341 0)
(-41.5179 -3.47432 0)
(-38.6514 -3.37637 0)
(-39.2015 -3.27402 0)
(-46.4385 -3.17389 0)
(-53.6302 -3.08868 0)
(-61.425 -2.9869 0)
(-74.5199 -2.90408 0)
(-92.8607 -2.85912 0)
(-119.368 -2.89415 0)
(-157.025 -3.0552 0)
(-209.029 -3.42454 0)
(-277.237 -3.99577 0)
(-353.768 -4.88276 0)
(-423.935 -6.01492 0)
(-450.916 -7.43579 0)
(-428.927 -10.5318 0)
(-352.181 -13.5343 0)
(-279.639 -21.5044 0)
(-216.818 -26.5254 0)
(755.767 -38.1486 0)
(35385.9 -13.6053 0)
(-44318 -1659.59 0)
(-17839.2 2026.94 0)
(-10623.7 -4431.58 0)
(2045.6 -2610.45 0)
(416.544 -1651.01 0)
(-1339.79 -907.95 0)
(-1466.9 -411.577 0)
(-1123.36 -181.079 0)
(-454.229 -54.9729 0)
(-138.772 -60.0943 0)
(-140.791 -34.9966 0)
(-113.031 -27.8485 0)
(-117.979 -20.4337 0)
(-114.017 -16.4485 0)
(-108.899 -14.4067 0)
(-96.5355 -13.2479 0)
(-79.5847 -12.4316 0)
(-62.9973 -11.7196 0)
(-49.1384 -11.0859 0)
(-41.4733 -10.5648 0)
(-38.611 -10.224 0)
(-39.1577 -9.95953 0)
(-46.3954 -9.78036 0)
(-53.582 -9.70824 0)
(-61.3689 -9.65207 0)
(-74.4622 -9.66691 0)
(-92.807 -9.76827 0)
(-119.327 -9.99311 0)
(-157.009 -10.3585 0)
(-209.031 -10.9087 0)
(-277.255 -11.4246 0)
(-353.772 -11.8875 0)
(-423.867 -11.7541 0)
(-451.059 -10.6991 0)
(-428.994 -11.9427 0)
(-352.878 -9.83629 0)
(-280.178 -16.3875 0)
(-217.953 -12.2308 0)
(760.665 -24.8086 0)
(35463.4 46.7662 0)
(-44397 3832.84 0)
(25959.6 4923.8 0)
(-13309.8 -3308.88 0)
(2788.42 -1979.89 0)
(821.374 -2170.67 0)
(-833.517 -1310.12 0)
(-1191.87 -729.948 0)
(-976.182 -342.517 0)
(-398.268 -115.73 0)
(-129.466 -107.193 0)
(-126.887 -72.3475 0)
(-106.116 -55.5649 0)
(-112.543 -40.6578 0)
(-111.077 -33.1834 0)
(-107.217 -29.1274 0)
(-95.4272 -26.6483 0)
(-78.7162 -24.8021 0)
(-62.2573 -23.2193 0)
(-48.5254 -21.8465 0)
(-41.0288 -20.7349 0)
(-38.3184 -20.013 0)
(-38.9737 -19.5031 0)
(-46.3307 -19.2067 0)
(-53.6055 -19.1536 0)
(-61.4639 -19.1747 0)
(-74.6595 -19.3773 0)
(-93.1275 -19.7819 0)
(-119.786 -20.4619 0)
(-157.618 -21.4741 0)
(-209.695 -22.8165 0)
(-277.83 -24.216 0)
(-353.969 -25.3936 0)
(-423.269 -25.9721 0)
(-450.868 -24.1455 0)
(-428.308 -26.1774 0)
(-354.163 -24.4357 0)
(-280.517 -32.5514 0)
(-220.788 -29.9533 0)
(787.11 -43.7555 0)
(37716 -63.8181 0)
(-46660.4 1105.48 0)
(26747.7 3995.43 0)
(-15835.9 -1344.9 0)
(2744.1 -1435.47 0)
(844.877 -1837.61 0)
(-222.941 -1377.85 0)
(-681.965 -923.095 0)
(-610.393 -465.117 0)
(-257.471 -198.071 0)
(-101.957 -159.286 0)
(-98.4959 -111.897 0)
(-86.201 -84.2665 0)
(-99.326 -62.7003 0)
(-104.483 -52.3639 0)
(-103.504 -46.3286 0)
(-92.9617 -42.4526 0)
(-76.7461 -39.5206 0)
(-60.546 -37.0474 0)
(-47.073 -34.9054 0)
(-39.9449 -33.1714 0)
(-37.581 -32.0522 0)
(-38.4794 -31.262 0)
(-46.0934 -30.7884 0)
(-53.5386 -30.68 0)
(-61.5334 -30.6782 0)
(-74.9416 -30.9244 0)
(-93.6803 -31.5336 0)
(-120.712 -32.5253 0)
(-158.952 -34.0278 0)
(-211.318 -36.1468 0)
(-279.431 -38.5209 0)
(-355.359 -40.2599 0)
(-422.985 -41.8803 0)
(-451.359 -39.6213 0)
(-429.641 -43.1662 0)
(-358.331 -43.8149 0)
(-285.313 -53.4585 0)
(-227.229 -55.9072 0)
(713.852 -66.016 0)
(35363 -238.756 0)
(-44187 -3100.45 0)
(28513.8 5823.78 0)
(-18543.2 -426.838 0)
(2313.63 -1140.11 0)
(876.897 -1395.69 0)
(47.7393 -1195.45 0)
(-312.32 -879.643 0)
(-277.522 -506.293 0)
(-103.557 -281.865 0)
(-46.4256 -221.804 0)
(-54.596 -149.819 0)
(-58.7088 -115.457 0)
(-81.8004 -90.45 0)
(-95.3002 -76.8751 0)
(-97.6657 -68.2903 0)
(-88.8668 -62.4354 0)
(-73.5075 -58.0138 0)
(-57.8099 -54.298 0)
(-44.7904 -51.1728 0)
(-38.2793 -48.6652 0)
(-36.4784 -47.0905 0)
(-37.7559 -46.0074 0)
(-45.7698 -45.3694 0)
(-53.4993 -45.275 0)
(-61.6994 -45.3117 0)
(-75.4838 -45.788 0)
(-94.6702 -46.6628 0)
(-122.189 -48.2617 0)
(-161.107 -50.5212 0)
(-214.025 -53.4277 0)
(-281.793 -56.9385 0)
(-357.206 -59.3196 0)
(-422.653 -61.9839 0)
(-452.107 -59.312 0)
(-432.349 -64.4672 0)
(-364.081 -67.9997 0)
(-292.17 -79.2548 0)
(-232.889 -84.5021 0)
(610.91 -89.4475 0)
(34791.9 -309.819 0)
(-43442.6 -1696.57 0)
(31948.3 2370.15 0)
(-22546.6 -298.472 0)
(1810.48 -861.674 0)
(791.541 -1134.7 0)
(274.341 -1017.42 0)
(-17.8633 -760.74 0)
(-34.3523 -498.25 0)
(16.673 -333.498 0)
(25.2867 -260.482 0)
(3.9844 -183.118 0)
(-28.9905 -145.011 0)
(-62.1473 -119.068 0)
(-83.1294 -102.201 0)
(-89.5891 -91.0953 0)
(-83.059 -83.2803 0)
(-68.9046 -77.1268 0)
(-53.9537 -72.0952 0)
(-41.645 -67.9257 0)
(-36.011 -64.6272 0)
(-35.0199 -62.6092 0)
(-36.8209 -61.2733 0)
(-45.3877 -60.5068 0)
(-53.483 -60.4583 0)
(-62.0277 -60.6245 0)
(-76.2435 -61.2937 0)
(-96.064 -62.7774 0)
(-124.43 -64.8021 0)
(-163.93 -67.8535 0)
(-217.502 -72.2264 0)
(-285.109 -76.6806 0)
(-360.221 -79.276 0)
(-422.978 -83.5141 0)
(-453.752 -82.7391 0)
(-438.013 -89.518 0)
(-372.581 -96.8011 0)
(-301.215 -109.111 0)
(-237.051 -115.445 0)
(496.728 -115.133 0)
(33814.3 -394.358 0)
(-42253.6 -2353.54 0)
(30510.1 -1613.56 0)
(-21657.5 -358.608 0)
(1507.81 -769.126 0)
(726.817 -898.285 0)
(408.1 -846.837 0)
(187.968 -663.014 0)
(134.184 -488.022 0)
(125.565 -362.184 0)
(98.4861 -280.643 0)
(56.676 -215.217 0)
(3.01216 -175.343 0)
(-40.5476 -148.237 0)
(-68.3447 -129.757 0)
(-79.4329 -116.405 0)
(-75.4062 -106.301 0)
(-62.7291 -98.3656 0)
(-48.9434 -91.8876 0)
(-37.594 -86.6747 0)
(-33.1562 -82.5555 0)
(-33.2465 -80.1172 0)
(-35.73 -78.599 0)
(-44.9845 -77.7538 0)
(-53.6128 -77.8357 0)
(-62.5044 -78.1758 0)
(-77.5584 -79.3189 0)
(-98.0511 -81.093 0)
(-127.081 -84.4596 0)
(-168.262 -88.1043 0)
(-222.531 -93.7879 0)
(-288.587 -99.9931 0)
(-363.791 -102.738 0)
(-425.99 -109.332 0)
(-457.893 -110.629 0)
(-445.9 -120.171 0)
(-382.962 -130.738 0)
(-310.136 -144.262 0)
(-238.692 -150.641 0)
(342.139 -148.828 0)
(32634.9 -533.333 0)
(-40794.6 -3252.45 0)
(30047.9 -461.912 0)
(-21732.8 -358.557 0)
(1290.43 -686.388 0)
(716.655 -739.502 0)
(501.057 -704.096 0)
(327.905 -590.739 0)
(255.539 -473.648 0)
(216.511 -379.532 0)
(166.909 -305.129 0)
(105.455 -247.872 0)
(35.5538 -208.904 0)
(-18.2183 -181.015 0)
(-52.4547 -162.057 0)
(-66.9868 -145.67 0)
(-65.6754 -133.293 0)
(-55.015 -123.258 0)
(-42.6879 -115.203 0)
(-32.6522 -108.942 0)
(-29.692 -103.943 0)
(-31.2073 -101.094 0)
(-34.5434 -99.4958 0)
(-44.6521 -98.6272 0)
(-53.8897 -98.9438 0)
(-63.457 -99.5763 0)
(-79.0546 -101.35 0)
(-101.018 -104.098 0)
(-131.186 -108.202 0)
(-172.919 -114.058 0)
(-228.958 -120.936 0)
(-293.733 -128.525 0)
(-369.22 -130.132 0)
(-430.582 -141.02 0)
(-464.197 -143.673 0)
(-457.391 -153.714 0)
(-395.796 -162.965 0)
(-320.394 -177.721 0)
(-241.451 -179.021 0)
(127.952 -173.993 0)
(30823.5 -629.473 0)
(-38605.5 -4160.72 0)
(29719.5 -1355.31 0)
(-21873.8 -386.088 0)
(1140.72 -629.267 0)
(709.754 -669.904 0)
(551.453 -633.939 0)
(410.036 -563.405 0)
(337.711 -479.259 0)
(287.957 -402.555 0)
(225.358 -337.198 0)
(149.401 -287.609 0)
(67.4379 -250.051 0)
(4.59648 -221.577 0)
(-34.2852 -201.165 0)
(-51.7155 -182.724 0)
(-53.8096 -167.948 0)
(-45.2967 -155.499 0)
(-35.1472 -146.005 0)
(-26.7431 -138.662 0)
(-25.5939 -132.717 0)
(-28.9613 -129.429 0)
(-33.353 -127.901 0)
(-44.4525 -127.102 0)
(-54.5273 -127.722 0)
(-64.8228 -128.967 0)
(-81.9154 -131.189 0)
(-104.654 -135.41 0)
(-136.679 -140.512 0)
(-180.532 -148.738 0)
(-236.472 -155.432 0)
(-297.449 -169.386 0)
(-375.832 -170.114 0)
(-439.039 -185.87 0)
(-470.125 -194.763 0)
(-464.49 -207.231 0)
(-406.096 -219.753 0)
(-325.608 -240.85 0)
(-235.099 -246.899 0)
(-91.9322 -242.802 0)
(28793.2 -703.361 0)
(-36178.6 -4751.06 0)
(28369.8 -2482.52 0)
(-21033.2 -410.578 0)
(1016.93 -559.933 0)
(712.153 -603.234 0)
(603.683 -575.018 0)
(476.96 -533.617 0)
(410.54 -474.631 0)
(353.405 -413.72 0)
(277.675 -363.484 0)
(189.433 -325.731 0)
(99.1852 -295.865 0)
(28.8895 -272.821 0)
(-15.0147 -251.655 0)
(-34.9778 -233.145 0)
(-39.4411 -215.608 0)
(-33.8696 -201.031 0)
(-26.463 -189.829 0)
(-19.8473 -181.524 0)
(-20.794 -174.564 0)
(-26.566 -170.805 0)
(-32.3015 -169.551 0)
(-44.4801 -168.873 0)
(-55.6867 -169.894 0)
(-66.7976 -171.805 0)
(-85.263 -175.286 0)
(-110.002 -180.042 0)
(-144.03 -187.084 0)
(-187.296 -194.295 0)
(-248.855 -200.956 0)
(-307.881 -211.388 0)
(-385.105 -210.739 0)
(-454.334 -225.836 0)
(-484.782 -235.807 0)
(-481.473 -246.137 0)
(-428.192 -264.547 0)
(-346.552 -287.875 0)
(-243.332 -310.789 0)
(-311.911 -307.248 0)
(26479.2 -679.49 0)
(-33349.4 -5249.26 0)
(26931.6 -2864.42 0)
(-20021.2 -423.364 0)
(955.065 -514.454 0)
(695.217 -571.88 0)
(618.538 -591.13 0)
(506.773 -572.329 0)
(453.249 -526.936 0)
(395.062 -479.108 0)
(310.148 -434.335 0)
(214.561 -400.968 0)
(118.423 -372.97 0)
(47.1986 -347.697 0)
(3.94828 -323.025 0)
(-16.9789 -300.834 0)
(-22.8628 -280.244 0)
(-20.4554 -263.832 0)
(-16.3499 -251.019 0)
(-12.0331 -242.309 0)
(-15.265 -234.576 0)
(-24.1303 -230.481 0)
(-31.4906 -229.638 0)
(-44.7832 -229.011 0)
(-57.3526 -230.47 0)
(-70.0187 -232.929 0)
(-89.8531 -237.689 0)
(-116.023 -243.622 0)
(-150.414 -252.183 0)
(-193.9 -263.053 0)
(-252.943 -270.304 0)
(-306.876 -287.041 0)
(-389.754 -291.557 0)
(-463.196 -311.887 0)
(-489.688 -325.809 0)
(-492.185 -334.952 0)
(-446.316 -354.973 0)
(-370.168 -379.69 0)
(-253.768 -407.205 0)
(-447.226 -404.689 0)
(24030.9 -583.504 0)
(-30465.4 -5515.41 0)
(25201.6 -3313.41 0)
(-18768.7 -468.15 0)
(873.819 -547.833 0)
(638.265 -607.286 0)
(603.25 -651.327 0)
(538.819 -636.214 0)
(500.371 -589.465 0)
(442.64 -550.831 0)
(352.973 -505.15 0)
(248.567 -473.609 0)
(150.519 -442.39 0)
(77.018 -417.455 0)
(30.1452 -396.228 0)
(6.24727 -375.482 0)
(-3.7855 -357.247 0)
(-5.70666 -341.701 0)
(-5.72246 -329.52 0)
(-4.00213 -321.362 0)
(-9.39553 -313.8 0)
(-21.8081 -309.882 0)
(-30.8852 -309.239 0)
(-45.282 -308.443 0)
(-59.4621 -309.779 0)
(-73.7539 -311.915 0)
(-95.5672 -315.345 0)
(-123.969 -320.157 0)
(-162.754 -325.36 0)
(-204.758 -335.709 0)
(-271.971 -338.714 0)
(-328.361 -362.407 0)
(-409.047 -378.959 0)
(-487.341 -403.854 0)
(-507.009 -424.391 0)
(-509.577 -437.28 0)
(-471.303 -456.454 0)
(-396.886 -484.07 0)
(-267.422 -507.33 0)
(-481.799 -514.419 0)
(21554.3 -537.293 0)
(-27472.3 -5562.95 0)
(23287.5 -3582.08 0)
(-17356.2 -488.818 0)
(820.989 -556.805 0)
(595.486 -601.472 0)
(590.662 -649.43 0)
(566.386 -647.431 0)
(535.527 -624.473 0)
(476.31 -608.335 0)
(384.561 -581.233 0)
(275.039 -565.886 0)
(172.535 -535.454 0)
(91.6819 -515.671 0)
(44.3947 -488.203 0)
(20.585 -463.049 0)
(9.68984 -442.366 0)
(6.2634 -425.311 0)
(3.24961 -413.357 0)
(3.11506 -405.306 0)
(-4.20273 -398.426 0)
(-19.735 -394.888 0)
(-30.1035 -394.267 0)
(-45.3038 -393.544 0)
(-60.6987 -394.816 0)
(-75.3822 -397.372 0)
(-97.7948 -400.703 0)
(-125.675 -406.872 0)
(-165.401 -413.29 0)
(-206.768 -425.213 0)
(-278.67 -431.267 0)
(-345.658 -449.589 0)
(-429.693 -467.024 0)
(-506.976 -477.384 0)
(-521.899 -488.05 0)
(-523.082 -493.421 0)
(-491.405 -502.522 0)
(-419.194 -520.288 0)
(-283.013 -534.661 0)
(-476.1 -540.457 0)
(19165.9 -497.69 0)
(-24587 -5385.61 0)
(21278.7 -3655.3 0)
(-15853.4 -494.268 0)
(765.262 -570.575 0)
(549.008 -610.213 0)
(558.962 -650.828 0)
(562.868 -659.522 0)
(538.046 -666.045 0)
(484.308 -666.487 0)
(393.878 -658.2 0)
(292.681 -648.213 0)
(198.907 -619.015 0)
(122.55 -594.487 0)
(80.8539 -558.366 0)
(50.4178 -529.393 0)
(32.58 -504.853 0)
(22.2474 -487.464 0)
(13.5549 -476.866 0)
(10.3859 -470.911 0)
(0.643303 -466.519 0)
(-17.8006 -464.336 0)
(-29.5893 -463.493 0)
(-45.8109 -461.786 0)
(-63.1514 -461.26 0)
(-79.4264 -461.812 0)
(-104.722 -464.542 0)
(-136.099 -470.881 0)
(-180.428 -480.768 0)
(-222.081 -494.907 0)
(-295.46 -502.152 0)
(-362.819 -522.203 0)
(-435.832 -536.147 0)
(-507.601 -536.587 0)
(-522.462 -537.441 0)
(-523.523 -535.424 0)
(-497.193 -535.879 0)
(-427.856 -542.974 0)
(-286.858 -548.507 0)
(-446.172 -548.444 0)
(16885.4 -487.685 0)
(-21802.9 -5073.01 0)
(19288.9 -3644.53 0)
(-14383.6 -483.534 0)
(709.26 -562.665 0)
(518.151 -605.643 0)
(543.146 -631.018 0)
(551.723 -634.917 0)
(528.815 -656.633 0)
(483.869 -662.275 0)
(402.171 -664.645 0)
(312.799 -651.211 0)
(224.308 -623.022 0)
(150.126 -603.903 0)
(107.121 -573.43 0)
(72.1521 -545.865 0)
(50.0942 -522.605 0)
(33.2324 -504.883 0)
(19.2008 -493.027 0)
(13.0857 -486.298 0)
(2.13312 -481.858 0)
(-16.8187 -479.531 0)
(-27.6455 -478.375 0)
(-43.1522 -477.318 0)
(-60.7239 -477.676 0)
(-78.5446 -478.595 0)
(-106.534 -482.149 0)
(-141.31 -487.411 0)
(-188.554 -494.084 0)
(-227.374 -505.429 0)
(-304.974 -508.045 0)
(-378.416 -521.866 0)
(-443.554 -533.355 0)
(-508.223 -535.716 0)
(-520.778 -535.726 0)
(-521.576 -534.068 0)
(-498.68 -533.585 0)
(-431.364 -536.809 0)
(-288.284 -539.53 0)
(-417.489 -537.876 0)
(14805.9 -479.902 0)
(-19228.5 -4759.66 0)
(17300.8 -3541.17 0)
(-12883.6 -471.276 0)
(647.593 -547.793 0)
(483.142 -586.629 0)
(530.752 -610.536 0)
(538.185 -616.086 0)
(511.682 -636.472 0)
(476.587 -643.036 0)
(404.54 -650.363 0)
(332.79 -631.887 0)
(244.495 -600.635 0)
(170.339 -575.371 0)
(136.782 -543.994 0)
(99.3948 -516.667 0)
(72.0718 -491.487 0)
(50.7502 -471.604 0)
(31.4641 -457.084 0)
(21.1482 -448.174 0)
(7.1638 -443.183 0)
(-14.4435 -441.296 0)
(-27.4561 -439.725 0)
(-45.1382 -438.342 0)
(-64.3827 -439.504 0)
(-83.7362 -442.439 0)
(-113.217 -448.289 0)
(-147.6 -456.077 0)
(-197.791 -463.153 0)
(-235.535 -476.235 0)
(-311.3 -480.032 0)
(-387.208 -495.526 0)
(-449.178 -511.465 0)
(-509.885 -517.19 0)
(-520.874 -519.405 0)
(-521.46 -519.84 0)
(-499.834 -520.598 0)
(-433.585 -523.711 0)
(-287.886 -526.084 0)
(-388.713 -525.357 0)
(12817.1 -469.507 0)
(-16753.9 -4404.42 0)
(15422.3 -3478.76 0)
(-11499.1 -436.12 0)
(598.102 -510.744 0)
(457.688 -554.687 0)
(514.76 -576.639 0)
(526.731 -586.867 0)
(502.845 -596.659 0)
(470.483 -596.505 0)
(412.916 -602.541 0)
(360.719 -575.472 0)
(278.768 -538.768 0)
(204.707 -503.057 0)
(163.691 -461.363 0)
(122.75 -436.03 0)
(93.5181 -411.043 0)
(66.3838 -391.838 0)
(41.7785 -377.415 0)
(26.4813 -367.372 0)
(8.76155 -360.4 0)
(-13.4861 -356.625 0)
(-24.7993 -354.478 0)
(-42.9397 -354.555 0)
(-64.6715 -357.804 0)
(-87.0098 -362.083 0)
(-119.676 -368.552 0)
(-155.633 -377.88 0)
(-207.979 -385.626 0)
(-243.64 -401.763 0)
(-323.563 -412.381 0)
(-408.706 -437.813 0)
(-464.43 -462.323 0)
(-515.875 -474.106 0)
(-523.332 -481.109 0)
(-522.726 -484.202 0)
(-502.41 -487.118 0)
(-436.65 -488.808 0)
(-289.871 -493.954 0)
(-362.969 -488.061 0)
(11067.9 -429.844 0)
(-14531.8 -4084.44 0)
(13528.2 -3024.6 0)
(-10023.5 -342.453 0)
(533.338 -431.168 0)
(419.643 -480.803 0)
(499.743 -498.451 0)
(518.893 -508.457 0)
(502.394 -510.385 0)
(470.919 -506.966 0)
(424.808 -502.037 0)
(394.244 -475.723 0)
(314.277 -437.306 0)
(244.929 -400.814 0)
(201.371 -365.759 0)
(147.885 -344.887 0)
(114.657 -325.95 0)
(83.1552 -310.892 0)
(55.041 -299.186 0)
(37.5446 -289.967 0)
(17.5191 -282.845 0)
(-8.73649 -278.954 0)
(-25.4609 -276.831 0)
(-48.3437 -277.231 0)
(-71.6367 -281.458 0)
(-94.0935 -286.45 0)
(-128.44 -291.88 0)
(-164.052 -299.509 0)
(-220.804 -302.536 0)
(-261.318 -317.35 0)
(-346.04 -326.798 0)
(-435.334 -348.787 0)
(-484.151 -373.643 0)
(-527.988 -387.664 0)
(-530.603 -397.675 0)
(-527.251 -402.2 0)
(-504.273 -406.108 0)
(-440.171 -408.955 0)
(-287.167 -409.542 0)
(-326.935 -390.703 0)
(9351.49 -321.657 0)
(-12403.8 -3361.4 0)
(12177.7 -2658.05 0)
(-8999.95 -142.197 0)
(464.782 -221.817 0)
(392.852 -298.955 0)
(488.112 -333.93 0)
(515.232 -354.8 0)
(504.281 -355.35 0)
(478.527 -353.447 0)
(443.023 -342.129 0)
(423.096 -311.476 0)
(350.953 -294.899 0)
(273.652 -268.361 0)
(217.585 -254.666 0)
(161.112 -250.33 0)
(126.276 -244.009 0)
(92.1739 -239.059 0)
(61.9423 -234.545 0)
(42.2286 -227.19 0)
(19.3746 -218.691 0)
(-7.69122 -212.3 0)
(-23.1393 -211.172 0)
(-47.3977 -215.157 0)
(-73.555 -220.857 0)
(-97.0533 -224.645 0)
(-132.26 -224.978 0)
(-165.902 -224.639 0)
(-225.171 -217.338 0)
(-267.02 -221.55 0)
(-353.858 -220.477 0)
(-453.848 -227.742 0)
(-501.893 -239.566 0)
(-539.032 -244.055 0)
(-537.34 -248.635 0)
(-530.853 -248.894 0)
(-508.919 -249.988 0)
(-439.959 -247.595 0)
(-272.283 -232.101 0)
(-278.28 -193.38 0)
(8205.2 -114.562 0)
(-10982.7 -2754.41 0)
(10829.8 4230.94 0)
(-7675.89 289.124 0)
(382.281 -77.271 0)
(311.607 -225.435 0)
(445.929 -315.083 0)
(498.252 -376.523 0)
(503.697 -424.092 0)
(483.659 -466.506 0)
(465.254 -494.535 0)
(439.756 -487.095 0)
(355.824 -423.649 0)
(283.699 -248.447 0)
(218.746 39.6226 0)
(158.154 304.753 0)
(125.518 567.666 0)
(92.2752 758.015 0)
(66.4785 897.745 0)
(52.8223 972.795 0)
(31.8677 1016.85 0)
(-1.49125 1005.24 0)
(-28.2139 1005.84 0)
(-57.6767 1020.44 0)
(-80.7801 979.935 0)
(-98.0641 908.285 0)
(-128.434 779.534 0)
(-156.69 583.493 0)
(-217.827 365.683 0)
(-264.343 70.1364 0)
(-352.007 -174.653 0)
(-453.729 -347.417 0)
(-499.871 -423.254 0)
(-536.727 -423.116 0)
(-535.266 -400.724 0)
(-528.555 -370.823 0)
(-503.021 -340.352 0)
(-422.935 -306.566 0)
(-234.923 -254.464 0)
(-213.671 -172.86 0)
(6883.59 209.064 0)
(-9639.11 4387.45 0)
(16533.4 155145 0)
(-13151.5 14121 0)
(-31.0661 8305.32 0)
(163.687 9625.87 0)
(342.519 10835 0)
(410.187 12640.9 0)
(417.57 14492 0)
(410.645 16635.3 0)
(423.183 18883.9 0)
(491.404 21366.3 0)
(580.923 23887.7 0)
(720.078 26488.2 0)
(750.668 28957.2 0)
(669.954 31295 0)
(563.056 33372.1 0)
(410.25 35126.8 0)
(268.912 36326 0)
(157.004 37377.9 0)
(50.6433 37825 0)
(-18.2975 38295.6 0)
(-8.49436 38296.1 0)
(-72.3652 37804.5 0)
(-181.633 37356.1 0)
(-290.167 36260.8 0)
(-445.242 35087.9 0)
(-564.704 33244.9 0)
(-719.86 31201.9 0)
(-787.708 28806.9 0)
(-756.227 26285.2 0)
(-693.409 23695.2 0)
(-574.839 21106.9 0)
(-517.322 18580.5 0)
(-486.949 16246.8 0)
(-472.676 14003.5 0)
(-446.998 12044.3 0)
(-357.194 10111 0)
(-143.439 8807.12 0)
(168.393 7308.29 0)
(12599.7 12658.9 0)
(-15412.1 144663 0)
(173940 -180259 0)
(-149176 -17402.3 0)
(-3949.39 -11806.6 0)
(2749.34 -13271.6 0)
(3351.34 -14829.5 0)
(4022.25 -17104.8 0)
(4352.88 -19429.2 0)
(4715.79 -22055.3 0)
(5024.18 -24749.1 0)
(5261.59 -27708.2 0)
(5291.48 -30719.2 0)
(5168.9 -33802.2 0)
(4850.74 -36830.4 0)
(4412.49 -39615 0)
(3817.99 -42104.6 0)
(2938.82 -44161.4 0)
(2235.69 -45580.1 0)
(1497.3 -46760.5 0)
(916.237 -47296.8 0)
(452.454 -47763.9 0)
(-501.483 -47747.3 0)
(-963.451 -47234.6 0)
(-1568.38 -46672.4 0)
(-2283.78 -45418.6 0)
(-3034.67 -44001.4 0)
(-3901.44 -41807.4 0)
(-4494.39 -39366.7 0)
(-5002.22 -36396.3 0)
(-5277.89 -33358.3 0)
(-5443.7 -30134.5 0)
(-5428.51 -26989.6 0)
(-5220.1 -23904.6 0)
(-4945.85 -21035.6 0)
(-4578.31 -18266.8 0)
(-4253.97 -15794.1 0)
(-3542.37 -13388.5 0)
(-2935.73 -11747.3 0)
(3498.01 -10193.1 0)
(139243 -15552.1 0)
(-161240 -167766 0)
(173940 180259 0)
(-149176 17402.3 0)
(-3949.39 11806.6 0)
(2749.34 13271.6 0)
(3351.34 14829.5 0)
(4022.25 17104.8 0)
(4352.88 19429.2 0)
(4715.79 22055.3 0)
(5024.18 24749.1 0)
(5261.59 27708.2 0)
(5291.48 30719.2 0)
(5168.9 33802.2 0)
(4850.74 36830.4 0)
(4412.49 39615 0)
(3817.99 42104.6 0)
(2938.82 44161.4 0)
(2235.69 45580.1 0)
(1497.3 46760.5 0)
(916.237 47296.8 0)
(452.454 47763.9 0)
(-501.483 47747.3 0)
(-963.451 47234.6 0)
(-1568.38 46672.4 0)
(-2283.78 45418.6 0)
(-3034.67 44001.4 0)
(-3901.44 41807.4 0)
(-4494.39 39366.7 0)
(-5002.22 36396.3 0)
(-5277.89 33358.3 0)
(-5443.7 30134.5 0)
(-5428.51 26989.6 0)
(-5220.1 23904.6 0)
(-4945.85 21035.6 0)
(-4578.31 18266.8 0)
(-4253.97 15794.1 0)
(-3542.37 13388.5 0)
(-2935.73 11747.3 0)
(3498.01 10193.1 0)
(139243 15552.1 0)
(-161240 167766 0)
(16533.4 -155145 0)
(-13151.5 -14121 0)
(-31.0661 -8305.32 0)
(163.687 -9625.87 0)
(342.519 -10835 0)
(410.187 -12640.9 0)
(417.57 -14492 0)
(410.645 -16635.3 0)
(423.183 -18883.9 0)
(491.404 -21366.3 0)
(580.923 -23887.7 0)
(720.078 -26488.2 0)
(750.668 -28957.2 0)
(669.954 -31295 0)
(563.056 -33372.1 0)
(410.25 -35126.8 0)
(268.912 -36326 0)
(157.004 -37377.9 0)
(50.6433 -37825 0)
(-18.2975 -38295.6 0)
(-8.49436 -38296.1 0)
(-72.3652 -37804.5 0)
(-181.633 -37356.1 0)
(-290.167 -36260.8 0)
(-445.242 -35087.9 0)
(-564.704 -33244.9 0)
(-719.86 -31201.9 0)
(-787.708 -28806.9 0)
(-756.227 -26285.2 0)
(-693.409 -23695.2 0)
(-574.839 -21106.9 0)
(-517.322 -18580.5 0)
(-486.949 -16246.8 0)
(-472.676 -14003.5 0)
(-446.998 -12044.3 0)
(-357.194 -10111 0)
(-143.439 -8807.12 0)
(168.393 -7308.29 0)
(12599.7 -12658.9 0)
(-15412.1 -144663 0)
(10829.8 -4230.94 0)
(-7675.89 -289.124 0)
(382.281 77.271 0)
(311.607 225.435 0)
(445.929 315.083 0)
(498.252 376.523 0)
(503.697 424.092 0)
(483.659 466.506 0)
(465.254 494.535 0)
(439.756 487.095 0)
(355.824 423.649 0)
(283.699 248.447 0)
(218.746 -39.6226 0)
(158.154 -304.753 0)
(125.518 -567.666 0)
(92.2752 -758.015 0)
(66.4785 -897.745 0)
(52.8223 -972.795 0)
(31.8677 -1016.85 0)
(-1.49125 -1005.24 0)
(-28.2139 -1005.84 0)
(-57.6767 -1020.44 0)
(-80.7801 -979.935 0)
(-98.0641 -908.285 0)
(-128.434 -779.534 0)
(-156.69 -583.493 0)
(-217.827 -365.683 0)
(-264.343 -70.1364 0)
(-352.007 174.653 0)
(-453.729 347.417 0)
(-499.871 423.254 0)
(-536.727 423.116 0)
(-535.266 400.724 0)
(-528.555 370.823 0)
(-503.021 340.352 0)
(-422.935 306.566 0)
(-234.923 254.464 0)
(-213.671 172.86 0)
(6883.59 -209.064 0)
(-9639.11 -4387.45 0)
(12177.7 2658.05 0)
(-8999.95 142.197 0)
(464.782 221.817 0)
(392.852 298.955 0)
(488.112 333.93 0)
(515.232 354.8 0)
(504.281 355.35 0)
(478.527 353.447 0)
(443.023 342.129 0)
(423.096 311.476 0)
(350.953 294.899 0)
(273.652 268.361 0)
(217.585 254.666 0)
(161.112 250.33 0)
(126.276 244.009 0)
(92.1739 239.059 0)
(61.9423 234.545 0)
(42.2286 227.19 0)
(19.3746 218.691 0)
(-7.69122 212.3 0)
(-23.1393 211.172 0)
(-47.3977 215.157 0)
(-73.555 220.857 0)
(-97.0533 224.645 0)
(-132.26 224.978 0)
(-165.902 224.639 0)
(-225.171 217.338 0)
(-267.02 221.55 0)
(-353.858 220.477 0)
(-453.848 227.742 0)
(-501.893 239.566 0)
(-539.032 244.055 0)
(-537.34 248.635 0)
(-530.853 248.894 0)
(-508.919 249.988 0)
(-439.959 247.595 0)
(-272.283 232.101 0)
(-278.28 193.38 0)
(8205.2 114.562 0)
(-10982.7 2754.41 0)
(13528.2 3024.6 0)
(-10023.5 342.453 0)
(533.338 431.168 0)
(419.643 480.803 0)
(499.743 498.451 0)
(518.893 508.457 0)
(502.394 510.385 0)
(470.919 506.966 0)
(424.808 502.037 0)
(394.244 475.723 0)
(314.277 437.306 0)
(244.929 400.814 0)
(201.371 365.759 0)
(147.885 344.887 0)
(114.657 325.95 0)
(83.1552 310.892 0)
(55.041 299.186 0)
(37.5446 289.967 0)
(17.5191 282.845 0)
(-8.73649 278.954 0)
(-25.4609 276.831 0)
(-48.3437 277.231 0)
(-71.6367 281.458 0)
(-94.0935 286.45 0)
(-128.44 291.88 0)
(-164.052 299.509 0)
(-220.804 302.536 0)
(-261.318 317.35 0)
(-346.04 326.798 0)
(-435.334 348.787 0)
(-484.151 373.643 0)
(-527.988 387.664 0)
(-530.603 397.675 0)
(-527.251 402.2 0)
(-504.273 406.108 0)
(-440.171 408.955 0)
(-287.167 409.542 0)
(-326.935 390.703 0)
(9351.49 321.657 0)
(-12403.8 3361.4 0)
(15422.3 3478.76 0)
(-11499.1 436.12 0)
(598.102 510.744 0)
(457.688 554.687 0)
(514.76 576.639 0)
(526.731 586.867 0)
(502.845 596.659 0)
(470.483 596.505 0)
(412.916 602.541 0)
(360.719 575.472 0)
(278.768 538.768 0)
(204.707 503.057 0)
(163.691 461.363 0)
(122.75 436.03 0)
(93.5181 411.043 0)
(66.3838 391.838 0)
(41.7785 377.415 0)
(26.4813 367.372 0)
(8.76155 360.4 0)
(-13.4861 356.625 0)
(-24.7993 354.478 0)
(-42.9397 354.555 0)
(-64.6715 357.804 0)
(-87.0098 362.083 0)
(-119.676 368.552 0)
(-155.633 377.88 0)
(-207.979 385.626 0)
(-243.64 401.763 0)
(-323.563 412.381 0)
(-408.706 437.813 0)
(-464.43 462.323 0)
(-515.875 474.106 0)
(-523.332 481.109 0)
(-522.726 484.202 0)
(-502.41 487.118 0)
(-436.65 488.808 0)
(-289.871 493.954 0)
(-362.969 488.061 0)
(11067.9 429.844 0)
(-14531.8 4084.44 0)
(17300.8 3541.17 0)
(-12883.6 471.276 0)
(647.593 547.793 0)
(483.142 586.629 0)
(530.752 610.536 0)
(538.185 616.086 0)
(511.682 636.472 0)
(476.587 643.036 0)
(404.54 650.363 0)
(332.79 631.887 0)
(244.495 600.635 0)
(170.339 575.371 0)
(136.782 543.994 0)