/*--------------------------------*- C++ -*----------------------------------*\
| =========                 |                                                 |
| \\      /  F ield         | OpenFOAM: The Open Source CFD Toolbox           |
|  \\    /   O peration     | Version:  v1912                                 |
|   \\  /    A nd           | Website:  www.openfoam.com                      |
|    \\/     M anipulation  |                                                 |
\*---------------------------------------------------------------------------*/
FoamFile
{
    version     2.0;
    format      ascii;
    class       volVectorField;
    location    "3.72";
    object      grad(rho);
}
// * * * * * * * * * * * * * * * * * * * * * * * * * * * * * * * * * * * * * //

dimensions      [1 -4 0 0 0 0 0];


internalField   nonuniform List<vector> 
1900
(
(105533 -0.498497 0)
(-77606 -2.23237 0)
(-10301.7 1.15783 0)
(-1237.45 3.34212 0)
(-753.247 6.58807 0)
(-994.754 9.69996 0)
(-1250.52 4.81368 0)
(-1417.04 -44.4398 0)
(-1407.97 -231.814 0)
(-2062.58 -488.962 0)
(105531 -0.609295 0)
(-77604.3 -3.32603 0)
(-10296.1 2.20228 0)
(-1232.02 5.04323 0)
(-746.889 2.83374 0)
(-996.528 -0.50676 0)
(-1304.66 -7.16664 0)
(-1653.67 -60.0421 0)
(-1852.49 -215.575 0)
(-2139.25 -388.963 0)
(105529 -6.57252e-09 0)
(-77603.2 -6.71463e-09 0)
(-10293.3 4.12115e-09 0)
(-1236.81 1.77636e-09 0)
(-758.797 -5.32907e-10 0)
(-1004.75 -1.40332e-09 0)
(-1310.06 -9.05942e-10 0)
(-1625.45 -1.7053e-09 0)
(-1736.89 1.74083e-09 0)
(-2081.06 1.22569e-09 0)
(105531 0.609295 0)
(-77604.3 3.32603 0)
(-10296.1 -2.20228 0)
(-1232.02 -5.04323 0)
(-746.889 -2.83374 0)
(-996.528 0.50676 0)
(-1304.66 7.16664 0)
(-1653.67 60.0421 0)
(-1852.49 215.575 0)
(-2139.25 388.963 0)
(105533 0.498497 0)
(-77606 2.23237 0)
(-10301.7 -1.15783 0)
(-1237.45 -3.34212 0)
(-753.247 -6.58807 0)
(-994.754 -9.69996 0)
(-1250.52 -4.81368 0)
(-1417.04 44.4398 0)
(-1407.97 231.814 0)
(-2062.58 488.962 0)
(-1598.26 -376.25 1.45367e-11)
(30.4677 -582.974 -1.74654e-11)
(830.42 -1051.15 -2.21104e-11)
(-5622.95 -869.014 0)
(-5705.84 6250.29 -8.98581e-11)
(-1571.54 -289.549 1.44687e-11)
(-443.933 -503.189 1.74654e-11)
(835.806 -810.809 2.21104e-11)
(-2047.17 -674.644 0)
(-3686.68 5173.36 0)
(-1790.64 1.35158e-09 0)
(-592.264 1.20761e-09 0)
(445.592 -4.58892e-09 0)
(-3099.83 -3.4316e-09 0)
(-1505.01 -8.45884e-09 0)
(-1571.54 289.549 1.44687e-11)
(-443.933 503.189 1.74654e-11)
(835.806 810.809 2.21104e-11)
(-2047.17 674.644 0)
(-3686.68 -5173.36 0)
(-1598.26 376.25 -4.34742e-11)
(30.4677 582.974 -1.74654e-11)
(830.42 1051.15 -2.21104e-11)
(-5622.95 869.014 -6.073e-11)
(-5705.84 -6250.29 8.98581e-11)
(1623.85 -2777.39 4.09855e-11)
(-5338.97 356.786 -3.29701e-11)
(-3208.34 836.282 0)
(-5204.6 938.298 2.42027e-11)
(-11558.6 -3385.72 -1.03564e-11)
(-338.165 -2759.7 -2.04509e-11)
(-4410.85 418.81 1.64904e-11)
(-2960.25 886.679 0)
(-7007.12 -27.1016 -1.51441e-11)
(-13900.5 -5636.55 2.52117e-12)
(222.919 -1.09452e-08 0)
(-4421.53 -3.26425e-09 0)
(-3414.37 1.14476e-08 0)
(-8066.27 -1.04492e-09 6.05733e-12)
(-14591.3 -6.75223e-09 -5.04233e-12)
(-338.165 2759.7 -2.04509e-11)
(-4410.85 -418.81 1.64904e-11)
(-2960.25 -886.679 0)
(-7007.12 27.1016 -1.51441e-11)
(-13900.5 5636.55 2.52117e-12)
(1623.85 2777.39 2.04509e-11)
(-5338.97 -356.786 -1.07452e-14)
(-3208.34 -836.282 0)
(-5204.6 -938.298 2.82585e-14)
(-11558.6 3385.72 1.03564e-11)
(-26458.3 -29763 0)
(-18168.9 3058.53 0)
(1197.7 3174.27 0)
(156.647 2058.07 0)
(-1672.83 1159.61 0)
(-1972.45 571.023 0)
(-1591.32 261.367 0)
(-652.252 79.6599 0)
(-198.88 86.7141 0)
(-202.66 50.5574 0)
(-163.442 40.2687 0)
(-170.944 29.5678 0)
(-165.369 23.7963 0)
(-158.125 20.8477 0)
(-140.505 19.1826 0)
(-116.274 18.0101 0)
(-92.481 16.9841 0)
(-72.431 16.068 0)
(-61.1169 15.3113 0)
(-56.6948 14.8119 0)
(-57.2876 14.4307 0)
(-67.6311 14.1837 0)
(-78.0547 14.0924 0)
(-89.6891 14.0246 0)
(-109.329 14.0659 0)
(-136.773 14.2422 0)
(-176.271 14.6116 0)
(-232.368 15.2046 0)
(-310.114 16.0938 0)
(-412.819 16.9663 0)
(-529.392 17.7972 0)
(-638.397 17.7875 0)
(-684.429 16.402 0)
(-655.29 18.6192 0)
(-541.999 16.1244 0)
(-445.657 25.4025 0)
(-331.189 16.9448 0)
(3387.85 42.128 0)
(106686 -93.5873 0)
(-122921 -7508.63 0)
(-25383.4 -7735.07 0)
(-16357.2 5474.45 0)
(1153.85 3204.38 0)
(-144.186 1200.71 0)
(-1811.92 654.679 0)
(-2074.21 288.343 0)
(-1640.48 105.261 0)
(-665.817 37.1098 0)
(-201.109 35.4898 0)
(-206.908 19.597 0)
(-164.938 14.4973 0)
(-172.1 10.1101 0)
(-165.938 7.61284 0)
(-158.346 6.4922 0)
(-140.594 5.97438 0)
(-116.337 5.68926 0)
(-92.5528 5.44436 0)
(-72.5077 5.21294 0)
(-61.1836 5.007 0)
(-56.7545 4.86071 0)
(-57.3501 4.71194 0)
(-67.6911 4.5717 0)
(-78.1219 4.45475 0)
(-89.7672 4.31409 0)
(-109.409 4.20347 0)
(-136.844 4.15166 0)
(-176.322 4.22231 0)
(-232.377 4.48684 0)
(-310.091 5.07155 0)
(-412.765 5.97784 0)
(-529.348 7.38429 0)
(-638.451 9.21339 0)
(-684.139 11.5381 0)
(-655.005 16.5474 0)
(-540.927 21.9854 0)
(-445.267 33.6464 0)
(-329.218 39.9293 0)
(3375.4 60.3608 0)
(106593 -22.3175 0)
(-122800 3651.79 0)
(-23458.4 6.78245e-09 0)
(-14986.5 5.68434e-09 0)
(-45.5754 7.07313e-09 0)
(-585.084 5.74894e-09 0)
(-1938.25 1.44046e-08 0)
(-2132.28 1.61487e-10 0)
(-1664.41 -3.66575e-08 0)
(-672.549 9.36463e-08 0)
(-203.974 2.33284e-07 0)
(-208.767 2.48367e-08 0)
(-166.202 -8.00491e-08 0)
(-172.946 -8.88663e-08 0)
(-166.421 -4.60884e-08 0)
(-158.601 2.50143e-08 0)
(-140.738 8.2536e-08 0)
(-116.428 9.15631e-08 0)
(-92.6196 7.05537e-08 0)
(-72.5582 -2.04281e-08 0)
(-61.2194 -1.16933e-07 0)
(-56.7807 -1.31337e-07 0)
(-57.3717 -3.15869e-08 0)
(-67.7059 1.04692e-07 0)
(-78.1296 9.65854e-08 0)
(-89.7622 7.69647e-08 0)
(-109.377 1.25588e-07 0)
(-136.767 1.30029e-07 0)
(-176.174 6.84059e-08 0)
(-232.121 2.84702e-08 0)
(-309.68 4.62499e-08 0)
(-412.146 1.21907e-07 0)
(-528.451 1.31773e-07 0)
(-637.188 7.95323e-08 0)
(-682.296 -5.98794e-08 0)
(-652.251 -1.93316e-07 0)
(-537.024 1.81624e-07 0)
(-440.437 -7.99361e-08 0)
(-323.417 1.10183e-07 0)
(3369.74 1.29238e-07 0)
(107731 -2.03827e-06 0)
(-124031 -4.7897e-06 0)
(-25383.4 7735.07 0)
(-16357.2 -5474.45 0)
(1153.85 -3204.38 0)
(-144.186 -1200.71 0)
(-1811.92 -654.679 0)
(-2074.21 -288.343 0)
(-1640.48 -105.261 0)
(-665.817 -37.1098 0)
(-201.109 -35.4898 0)
(-206.908 -19.597 0)
(-164.938 -14.4973 0)
(-172.1 -10.1101 0)
(-165.938 -7.61284 0)
(-158.346 -6.4922 0)
(-140.594 -5.97438 0)
(-116.337 -5.68926 0)
(-92.5528 -5.44436 0)
(-72.5077 -5.21294 0)
(-61.1836 -5.007 0)
(-56.7545 -4.86071 0)
(-57.3501 -4.71194 0)
(-67.6911 -4.5717 0)
(-78.1219 -4.45475 0)
(-89.7672 -4.31409 0)
(-109.409 -4.20347 0)
(-136.844 -4.15166 0)
(-176.322 -4.22231 0)
(-232.377 -4.48684 0)
(-310.091 -5.07155 0)
(-412.765 -5.97784 0)
(-529.348 -7.38428 0)
(-638.451 -9.21339 0)
(-684.139 -11.5381 0)
(-655.005 -16.5474 0)
(-540.927 -21.9854 0)
(-445.267 -33.6464 0)
(-329.218 -39.9293 0)
(3375.4 -60.3608 0)
(106593 22.3175 0)
(-122800 -3651.79 0)
(-26458.3 29763 0)
(-18168.9 -3058.53 0)
(1197.7 -3174.27 0)
(156.647 -2058.07 0)
(-1672.83 -1159.61 0)
(-1972.45 -571.023 0)
(-1591.32 -261.367 0)
(-652.252 -79.6599 0)
(-198.88 -86.7141 0)
(-202.66 -50.5574 0)
(-163.442 -40.2687 0)
(-170.944 -29.5678 0)
(-165.369 -23.7963 0)
(-158.125 -20.8477 0)
(-140.505 -19.1826 0)
(-116.274 -18.0101 0)
(-92.481 -16.9841 0)
(-72.431 -16.068 0)
(-61.1169 -15.3113 0)
(-56.6948 -14.8119 0)
(-57.2876 -14.4307 0)
(-67.6311 -14.1837 0)
(-78.0547 -14.0924 0)
(-89.6891 -14.0246 0)
(-109.329 -14.0659 0)
(-136.773 -14.2422 0)
(-176.271 -14.6116 0)
(-232.368 -15.2046 0)
(-310.114 -16.0938 0)
(-412.819 -16.9663 0)
(-529.392 -17.7972 0)
(-638.397 -17.7875 0)
(-684.429 -16.402 0)
(-655.29 -18.6192 0)
(-541.999 -16.1244 0)
(-445.657 -25.4025 0)
(-331.189 -16.9448 0)
(3387.85 -42.1279 0)
(106686 93.5873 0)
(-122921 7508.63 0)
(60643.6 42282.6 0)
(-34923.1 -4752.86 0)
(1730.72 -3117.75 0)
(771.716 -2842.51 0)
(-1039.96 -1735.67 0)
(-1628.44 -1020.52 0)
(-1389.1 -491.905 0)
(-571.946 -167.131 0)
(-185.432 -154.752 0)
(-182.685 -104.667 0)
(-153.501 -80.5627 0)
(-163.104 -59.0721 0)
(-161.126 -48.279 0)
(-155.708 -42.4512 0)
(-138.918 -38.908 0)
(-115.03 -36.2714 0)
(-91.4177 -34.0049 0)
(-71.5471 -32.0323 0)
(-60.4727 -30.4292 0)
(-56.2711 -29.3842 0)
(-57.0282 -28.6515 0)
(-67.5484 -28.2383 0)
(-78.0999 -28.1783 0)
(-89.841 -28.226 0)
(-109.637 -28.5464 0)
(-137.27 -29.1746 0)
(-176.984 -30.2234 0)
(-233.318 -31.7845 0)
(-311.169 -33.867 0)
(-413.771 -36.0843 0)
(-529.812 -38.0312 0)
(-637.639 -39.1482 0)
(-684.325 -36.6643 0)
(-654.501 -40.1132 0)
(-543.944 -37.9475 0)
(-445.33 -50.0109 0)
(-337.431 -44.1818 0)
(3430.34 -73.8362 0)
(111221 -169.259 0)
(-127778 1901.66 0)
(71391.7 26265.3 0)
(-52934.1 -3542.51 0)
(2752.76 -2486.96 0)
(1158.66 -2490.29 0)
(-256.466 -1893.46 0)
(-958.384 -1310.33 0)
(-877.404 -669.303 0)
(-370.421 -286.298 0)
(-145.899 -230.565 0)
(-141.88 -162.368 0)
(-124.836 -122.535 0)
(-144.038 -91.3983 0)
(-151.628 -76.4831 0)
(-150.39 -67.8232 0)
(-135.401 -62.2876 0)
(-112.217 -58.104 0)
(-88.9663 -54.5666 0)
(-69.4593 -51.4923 0)
(-58.9107 -48.9964 0)
(-55.209 -47.3857 0)
(-56.3225 -46.2505 0)
(-67.2195 -45.5803 0)
(-78.0186 -45.4424 0)
(-89.9622 -45.4595 0)
(-110.079 -45.8491 0)
(-138.122 -46.7853 0)
(-178.404 -48.3046 0)
(-235.37 -50.608 0)
(-313.692 -53.8689 0)
(-416.321 -57.5833 0)
(-532.12 -60.449 0)
(-637.486 -63.2385 0)
(-685.415 -60.2462 0)
(-656.949 -66.1245 0)
(-550.493 -67.7128 0)
(-451.84 -82.5414 0)
(-350.8 -85.0542 0)
(3244.53 -108.864 0)
(106159 -577.674 0)
(-122183 -7209.07 0)
(78310.3 18188.5 0)
(-62629.8 -1291.52 0)
(2744.68 -1772.31 0)
(1343.64 -1961.05 0)
(97.0968 -1698.45 0)
(-448.797 -1266.78 0)
(-402.304 -732.388 0)
(-149.162 -408.438 0)
(-66.0087 -321.724 0)
(-78.5836 -217.8 0)
(-85.1119 -168.037 0)
(-118.726 -131.842 0)
(-138.408 -112.242 0)
(-142.029 -99.9117 0)
(-129.552 -91.5311 0)
(-107.59 -85.2078 0)
(-85.0464 -79.8833 0)
(-66.1794 -75.3923 0)
(-56.5154 -71.7806 0)
(-53.6251 -69.5172 0)
(-55.2885 -67.962 0)
(-66.7696 -67.057 0)
(-77.9834 -66.9463 0)
(-90.233 -67.0278 0)
(-110.915 -67.7681 0)
(-139.636 -69.1156 0)
(-180.667 -71.5567 0)
(-238.68 -75.0196 0)
(-317.89 -79.5147 0)
(-420.111 -85.0169 0)
(-535.262 -88.9816 0)
(-637.444 -93.5315 0)
(-687.106 -90.1487 0)
(-661.697 -98.7315 0)
(-559.764 -104.991 0)
(-462.041 -122.676 0)
(-362.797 -129.933 0)
(2955.63 -145.173 0)
(104379 -757.834 0)
(-120020 -4759.17 0)
(87294.3 6527.82 0)
(-72169.1 -551.557 0)
(2107.57 -1256.89 0)
(1229.83 -1638.8 0)
(412.552 -1476.02 0)
(-27.4539 -1107.02 0)
(-50.2703 -725.547 0)
(25.3096 -485.248 0)
(37.8072 -378.929 0)
(6.21898 -266.636 0)
(-42.0038 -211.2 0)
(-90.2719 -173.545 0)
(-120.859 -149.147 0)
(-130.433 -133.157 0)
(-121.231 -121.934 0)
(-100.993 -113.101 0)
(-79.5077 -105.868 0)
(-61.6512 -99.8615 0)
(-53.2492 -95.1013 0)
(-51.5292 -92.198 0)
(-53.9517 -90.2803 0)
(-66.2407 -89.1957 0)
(-77.9905 -89.163 0)
(-90.7542 -89.4486 0)
(-112.091 -90.496 0)
(-141.773 -92.7681 0)
(-184.093 -95.8861 0)
(-243.039 -100.581 0)
(-323.326 -107.334 0)
(-425.444 -114.374 0)
(-540.325 -118.842 0)
(-638.61 -125.983 0)
(-690.426 -125.734 0)
(-671.252 -137.141 0)
(-573.567 -149.524 0)
(-475.875 -169.165 0)
(-372.479 -178.09 0)
(2639.46 -186.258 0)
(101712 -968.598 0)
(-116852 -6361.21 0)
(84166.1 -3322.82 0)
(-70131.4 -572.933 0)
(1696.97 -1137.8 0)
(1132.47 -1328.74 0)
(609.538 -1246.61 0)
(274.39 -973.571 0)
(196.862 -715.273 0)
(184.852 -529.654 0)
(144.653 -409.918 0)
(83.0457 -314.09 0)
(4.594 -255.767 0)
(-58.929 -216.297 0)
(-99.4881 -189.5 0)
(-115.805 -170.208 0)
(-110.225 -155.644 0)
(-92.1086 -144.206 0)
(-72.2882 -134.861 0)
(-55.8039 -127.328 0)
(-49.1306 -121.368 0)
(-48.9794 -117.854 0)
(-52.3953 -115.677 0)
(-65.6929 -114.489 0)
(-78.2271 -114.664 0)
(-91.5176 -115.227 0)
(-114.113 -117.004 0)
(-144.83 -119.757 0)
(-188.196 -124.904 0)
(-249.711 -130.578 0)
(-331.182 -139.401 0)
(-431.201 -149.195 0)
(-546.449 -154.112 0)
(-644.085 -165.098 0)
(-697.858 -168.313 0)
(-684.622 -184.352 0)
(-590.624 -202.233 0)
(-489.568 -224.138 0)
(-379.268 -233.131 0)
(2193.87 -240.406 0)
(98428.2 -1296.31 0)
(-112895 -8647.43 0)
(83229.8 -1049.37 0)
(-70063.5 -570.742 0)
(1379.25 -1044.11 0)
(1124.98 -1113.67 0)
(754.805 -1049.37 0)
(484.561 -875.462 0)
(377.504 -699.144 0)
(319.561 -558.259 0)
(245.532 -447.682 0)
(154.764 -362.932 0)
(52.2336 -305.541 0)
(-26.4144 -264.709 0)
(-76.4457 -237.122 0)
(-97.8077 -213.357 0)
(-96.1751 -195.436 0)
(-80.9648 -180.911 0)
(-63.2433 -169.246 0)
(-48.6489 -160.169 0)
(-44.1201 -152.912 0)
(-46.0456 -148.8 0)
(-50.7085 -146.515 0)
(-65.2646 -145.307 0)
(-78.7021 -145.85 0)
(-93.0087 -146.875 0)
(-116.456 -149.624 0)
(-149.386 -153.873 0)
(-194.521 -160.213 0)
(-257.009 -169.259 0)
(-341.265 -180.044 0)
(-439.619 -192.131 0)
(-555.649 -195.595 0)
(-652.295 -213.437 0)
(-708.98 -219.169 0)
(-703.938 -236.492 0)
(-611.906 -252.858 0)
(-505.649 -277.226 0)
(-388.156 -278.399 0)
(1614.95 -281.086 0)
(93611.2 -1530.18 0)
(-107151 -10902.3 0)
(82534.8 -3155.74 0)
(-70126.3 -628.879 0)
(1173.79 -976.331 0)
(1127.4 -1021.84 0)
(839.082 -955.338 0)
(611.883 -842.681 0)
(502.53 -712.696 0)
(427.17 -595.678 0)
(332.877 -497.069 0)
(220.018 -422.744 0)
(99.2455 -366.973 0)
(7.00167 -325.007 0)
(-50.0037 -295.178 0)
(-75.6343 -268.321 0)
(-78.9592 -246.824 0)
(-66.8711 -228.725 0)
(-52.3005 -214.923 0)
(-40.0639 -204.243 0)
(-38.1755 -195.578 0)
(-42.8148 -190.822 0)
(-49.0289 -188.654 0)
(-65.052 -187.569 0)
(-79.7379 -188.593 0)
(-95.1548 -190.564 0)
(-120.858 -194.049 0)
(-155.033 -200.554 0)
(-203.022 -208.506 0)
(-268.82 -221.232 0)
(-353.222 -231.954 0)
(-446.187 -253.849 0)
(-566.98 -256.364 0)
(-666.802 -282.118 0)
(-720.074 -297.944 0)
(-717.086 -319.8 0)
(-629.876 -342.09 0)
(-514.18 -377.473 0)
(-382.988 -386.616 0)
(987.606 -389.617 0)
(88193.2 -1649.15 0)
(-100718 -12439.5 0)
(79385.2 -5959.49 0)
(-67963.4 -675.172 0)
(1000.57 -875.109 0)
(1145.21 -927.433 0)
(927.454 -874.524 0)
(718.379 -805.01 0)
(615.524 -711.142 0)
(527.347 -616.161 0)
(412.178 -538.793 0)
(280.129 -481.113 0)
(146.416 -436.106 0)
(42.7698 -401.796 0)
(-21.8208 -370.608 0)
(-51.2119 -343.482 0)
(-58.0187 -317.844 0)
(-50.2234 -296.534 0)
(-39.652 -280.178 0)
(-30.0078 -268.06 0)
(-31.1869 -257.862 0)
(-39.3736 -252.412 0)
(-47.5739 -250.674 0)
(-65.2052 -249.795 0)
(-81.5884 -251.465 0)
(-98.2669 -254.491 0)
(-126.082 -259.937 0)
(-163.318 -267.396 0)
(-214.447 -278.375 0)
(-279.604 -289.876 0)
(-372.697 -300.912 0)
(-463.141 -317.923 0)
(-582.89 -318.736 0)
(-692.364 -344.129 0)
(-745.292 -362.156 0)
(-746.479 -381.353 0)
(-667.482 -413.507 0)
(-548.556 -453.428 0)
(-399.858 -489.527 0)
(398.325 -491.415 0)
(81999.5 -1499.03 0)
(-93319.9 -13749.1 0)
(75807.4 -7287.8 0)
(-65226.8 -711.224 0)
(930.698 -807.695 0)
(1127.96 -887.987 0)
(957.053 -909.021 0)
(769.324 -872.246 0)
(684.512 -796.498 0)
(593.251 -718.987 0)
(463.014 -648.035 0)
(318.971 -595.683 0)
(175.678 -552.635 0)
(70.1175 -514.526 0)
(6.1897 -477.808 0)
(-24.789 -445.04 0)
(-33.7175 -414.736 0)
(-30.5747 -390.585 0)
(-24.8621 -371.771 0)
(-18.5596 -359.024 0)
(-23.0967 -347.603 0)
(-35.8879 -341.643 0)
(-46.5076 -340.567 0)
(-65.8139 -339.803 0)
(-84.263 -342.206 0)
(-103.319 -346.16 0)
(-133.293 -353.653 0)
(-172.8 -363.068 0)
(-224.684 -376.61 0)
(-290.538 -393.906 0)
(-380.25 -406.302 0)
(-463.363 -433.608 0)
(-592.233 -442.935 0)
(-708.643 -477.655 0)
(-755.944 -503.207 0)
(-766.569 -522.178 0)
(-699.331 -558.554 0)
(-587.436 -602.489 0)
(-419.594 -647.539 0)
(14.8097 -651.175 0)
(75417.6 -1191.02 0)
(-85703.9 -14564.2 0)
(71361.2 -8713.58 0)
(-61718.9 -799.747 0)
(830.239 -865.989 0)
(1047.57 -952.707 0)
(942.623 -1011.8 0)
(826.811 -978.621 0)
(763.21 -898.35 0)
(670.41 -832.727 0)
(530.998 -758.716 0)
(372.06 -707.977 0)
(224.622 -659.373 0)
(114.876 -621.256 0)
(45.1385 -589.327 0)
(9.567 -558.399 0)
(-5.54325 -531.313 0)
(-8.82081 -508.238 0)
(-9.23847 -490.199 0)
(-6.71841 -478.213 0)
(-14.4383 -466.974 0)
(-32.5935 -461.27 0)
(-45.8008 -460.53 0)
(-66.7849 -459.561 0)
(-87.7141 -461.904 0)
(-109.298 -465.533 0)
(-142.375 -471.268 0)
(-185.44 -479.261 0)
(-244.164 -488.163 0)
(-308.216 -505.109 0)
(-410.955 -511.537 0)
(-498.443 -550.128 0)
(-625.336 -578.579 0)
(-750.444 -621.831 0)
(-788.196 -659.26 0)
(-799.813 -685.896 0)
(-744.872 -722.962 0)
(-634.304 -773.526 0)
(-446.774 -814.126 0)
(-125.396 -834.731 0)
(68592.4 -1010.4 0)
(-77769.6 -14886.9 0)
(66311.3 -9678.98 0)
(-57664.6 -853.145 0)
(783.301 -891.131 0)
(987.458 -955.382 0)
(932.081 -1021.56 0)
(878.645 -1007.65 0)
(825.101 -962.177 0)
(727.807 -929.146 0)
(583.227 -881.294 0)
(414.702 -853.508 0)
(259.246 -804.71 0)
(137.616 -773.358 0)
(66.7607 -731.346 0)
(31.1156 -693.223 0)
(14.6196 -662.039 0)
(9.04364 -636.396 0)
(4.07139 -618.444 0)
(3.82127 -606.457 0)
(-6.77031 -596.17 0)
(-29.6781 -591.042 0)
(-44.8608 -590.349 0)
(-67.1379 -589.542 0)
(-90.0181 -591.943 0)
(-112.343 -596.389 0)
(-146.521 -602.248 0)
(-189.082 -612.654 0)
(-249.593 -623.875 0)
(-313.062 -643.976 0)
(-423.632 -655.741 0)
(-527.967 -687.591 0)
(-661.328 -718.667 0)
(-786.39 -741.204 0)
(-817.679 -764.883 0)
(-827.954 -781.158 0)
(-783.774 -803.697 0)
(-675.285 -839.989 0)
(-478.573 -867.571 0)
(-174.327 -886.676 0)
(61876.4 -916.341 0)
(-69993.1 -14669.6 0)
(60884.2 -10117 0)
(-53250.6 -878.493 0)
(731.72 -926.464 0)
(921.885 -981.725 0)
(892.259 -1036.36 0)
(884.032 -1038.36 0)
(838.857 -1037.6 0)
(748.352 -1028.68 0)
(603.886 -1007.85 0)
(445.86 -986.784 0)
(301.857 -938.349 0)
(185.572 -898.923 0)
(122.359 -843.048 0)
(76.3534 -798.569 0)
(49.2173 -761.131 0)
(33.189 -734.641 0)
(19.6122 -718.491 0)
(14.7461 -709.478 0)
(0.416356 -702.822 0)
(-26.9842 -699.708 0)
(-44.3555 -698.7 0)
(-68.3217 -696.462 0)
(-94.3127 -696.277 0)
(-119.227 -697.844 0)
(-158.048 -702.986 0)
(-206.28 -713.968 0)
(-274.347 -730.837 0)
(-338.923 -754.913 0)
(-452.984 -769.099 0)
(-559.081 -804.797 0)
(-676.999 -831.796 0)
(-794.979 -840.323 0)
(-826.697 -849.971 0)
(-837.216 -855.726 0)
(-801.563 -865.631 0)
(-695.856 -885.972 0)
(-491.764 -900.13 0)
(-172.393 -908.971 0)
(55310.7 -905.235 0)
(-62363.8 -14096.2 0)
(55406.1 -10294 0)
(-48808.3 -873.939 0)
(683.823 -925.296 0)
(881.561 -986.408 0)
(877.509 -1017.47 0)
(877.445 -1011.9 0)
(834.427 -1035.49 0)
(756.474 -1034.38 0)
(623.599 -1029.52 0)
(481.679 -1002.51 0)
(343.912 -954.419 0)
(229.452 -922.504 0)
(163.465 -874.105 0)
(110.054 -830.872 0)
(76.2231 -794.682 0)
(50.1323 -767.174 0)
(28.3192 -748.801 0)
(18.9212 -738.412 0)
(2.64478 -731.523 0)
(-25.7063 -728.122 0)
(-41.7332 -726.652 0)
(-64.8033 -725.425 0)
(-91.3491 -726.661 0)
(-118.807 -728.911 0)
(-162.059 -735.486 0)
(-215.92 -745.117 0)
(-289.049 -757.456 0)
(-349.933 -777.771 0)
(-471.702 -785.154 0)
(-588.385 -811.852 0)
(-695.563 -835.559 0)
(-803.904 -847.411 0)
(-832.522 -856.078 0)
(-843.046 -862.761 0)
(-812.92 -871.589 0)
(-708.53 -886.245 0)
(-500.736 -896.329 0)
(-179.245 -901.614 0)
(49168.7 -905.966 0)
(-55179.6 -13472.1 0)
(49831.3 -10216.4 0)
(-44222.6 -860.479 0)
(623.34 -912.947 0)
(833.067 -968.3 0)
(867.69 -997.67 0)
(866.664 -994.814 0)
(817.197 -1016.68 0)
(754.104 -1016.88 0)
(634.602 -1019.63 0)
(518.23 -983.926 0)
(378.95 -929.985 0)
(262.965 -887.679 0)
(210.66 -836.879 0)
(152.888 -793.191 0)
(110.599 -753.354 0)
(77.4013 -722.028 0)
(47.3276 -699.23 0)
(31.3956 -685.297 0)
(10.3325 -677.44 0)
(-22.2901 -674.684 0)
(-41.7563 -672.564 0)
(-68.33 -670.76 0)
(-97.6722 -673.184 0)
(-127.732 -678.549 0)
(-173.665 -688.779 0)
(-227.452 -702.45 0)
(-305.814 -715.652 0)
(-365.614 -738.942 0)
(-485.825 -748.22 0)
(-607.653 -778.015 0)
(-711.265 -809.228 0)
(-814.752 -826.635 0)
(-841.489 -839.042 0)
(-852.163 -849.307 0)
(-824.193 -860.466 0)
(-719.696 -875.44 0)
(-506.574 -885.554 0)
(-181.679 -892.251 0)
(43197.3 -896.285 0)
(-48178.5 -12715.9 0)
(44480.1 -10188.3 0)
(-39843.2 -809.15 0)
(579.923 -859.161 0)
(799.919 -925.313 0)
(851.959 -952.762 0)
(859.126 -957.772 0)
(813.168 -963.015 0)
(753.636 -952.687 0)
(655.351 -953.836 0)
(568.06 -904.092 0)
(436.659 -840.715 0)
(319.172 -781.576 0)
(254.518 -714.069 0)
(190.542 -673.062 0)
(144.798 -633.275 0)
(102.288 -602.838 0)
(63.715 -580.115 0)
(39.9191 -564.495 0)
(12.8714 -553.83 0)
(-21.008 -548.109 0)
(-37.9521 -544.945 0)
(-65.4003 -545.35 0)
(-98.8547 -550.758 0)
(-133.835 -557.935 0)
(-185.091 -568.916 0)
(-241.817 -584.764 0)
(-324.214 -598.695 0)
(-381.316 -626.556 0)
(-509.354 -646.256 0)
(-647.174 -691.742 0)
(-742.415 -736.687 0)
(-832.634 -763.646 0)
(-854.369 -783.584 0)
(-863.691 -797.98 0)
(-838.102 -812.596 0)
(-732.705 -825.011 0)
(-516.937 -839.614 0)
(-189.586 -837.837 0)
(37775 -837.443 0)
(-41782.6 -11999.2 0)
(38996.6 -9191.96 0)
(-35232.8 -630.629 0)
(511.401 -716.657 0)
(742.869 -797.346 0)
(836.411 -824.065 0)
(856.784 -832.898 0)
(822.096 -828.426 0)
(762.949 -815.469 0)
(681.43 -801.571 0)
(627.238 -754.286 0)
(497.011 -689.874 0)
(385.006 -631.089 0)
(315.228 -575.316 0)
(230.744 -542.897 0)
(178.27 -513.801 0)
(128.628 -490.99 0)
(84.2759 -473.454 0)
(56.725 -459.864 0)
(26.1228 -449.269 0)
(-13.7275 -443.134 0)
(-39.0975 -439.909 0)
(-73.9324 -440.894 0)
(-109.8 -447.409 0)
(-145.229 -454.796 0)
(-199.518 -462.977 0)
(-256.148 -474.83 0)
(-346.086 -479.65 0)
(-411.446 -503.807 0)
(-548.64 -519.774 0)
(-694.796 -557.905 0)
(-780.554 -601.407 0)
(-859.943 -629.562 0)
(-874.575 -651.883 0)
(-880.119 -666.087 0)
(-850.24 -679.83 0)
(-745.732 -691.387 0)
(-518.934 -693.332 0)
(-179.587 -666.698 0)
(32441.8 -634.202 0)
(-35570.3 -10262.2 0)
(34932 -8917.28 0)
(-31676.1 -256.375 0)
(419.268 -393.017 0)
(696.416 -537.076 0)
(817.7 -596.718 0)
(854.924 -625.041 0)
(829.963 -616.931 0)
(779.514 -604.813 0)
(714.309 -577.462 0)
(675.695 -518.974 0)
(555.376 -486.916 0)
(429.564 -439.836 0)
(339.502 -413.124 0)
(249.821 -401.335 0)
(194.817 -387.01 0)
(141.168 -374.96 0)
(93.7091 -364.182 0)
(63.224 -348.907 0)
(28.9934 -333.02 0)
(-11.9878 -323.71 0)
(-35.7934 -321.784 0)
(-72.6281 -327.153 0)
(-112.251 -338.437 0)
(-148.836 -347.74 0)
(-204.396 -351.939 0)
(-257.884 -354.915 0)
(-352.137 -347.86 0)
(-419.981 -359.167 0)
(-561.485 -362.102 0)
(-725.838 -378.186 0)
(-811.466 -401.783 0)
(-881.275 -414.547 0)
(-889.566 -428.202 0)
(-890.622 -434.752 0)
(-862.482 -443.064 0)
(-745.716 -444.953 0)
(-493.146 -417.287 0)
(-132.606 -341.713 0)
(28528.4 -229.701 0)
(-31242.3 -9246.52 0)
(30502.5 14981.3 0)
(-27018.5 1270.41 0)
(240.908 249.698 0)
(546.576 -33.3399 0)
(751.645 -145.173 0)
(837.305 -190.627 0)
(841.589 -207.911 0)
(800.984 -222.448 0)
(764.147 -203.077 0)
(714.492 -128.099 0)
(573.272 96.2298 0)
(456.114 579 0)
(352.328 1336.07 0)
(255.908 2073.13 0)
(203.686 2774.01 0)
(150.626 3314.07 0)
(109.382 3708.86 0)
(86.7534 3930.9 0)
(50.4031 4056.88 0)
(-2.89931 3969.11 0)
(-42.415 3971.36 0)
(-89.9801 4067.28 0)
(-129.638 3949.77 0)
(-158.239 3736 0)
(-206.433 3358.38 0)
(-252.218 2827.37 0)
(-350.184 2195.54 0)
(-425.17 1417.5 0)
(-566.967 744.055 0)
(-733.034 253.366 0)
(-815.593 2.3737 0)
(-885.402 -69.0086 0)
(-894.046 -93.4126 0)
(-894.441 -97.3996 0)
(-860.07 -102.651 0)
(-720.893 -103.611 0)
(-419.449 -55.798 0)
(1.17732 109.28 0)
(23860.8 1157.04 0)
(-26865.2 16405.5 0)
(49894.6 581667 0)
(-45871.9 48768.9 0)
(-837.074 27876 0)
(315.904 32711.7 0)
(666.132 36892.3 0)
(794.468 42589.8 0)
(799.3 48378 0)
(784.172 54828.7 0)
(805.227 61466.3 0)
(964.118 68583.9 0)
(1236.76 75670.1 0)
(1624.32 82799.1 0)
(1779.3 89509.4 0)
(1635.47 95800.5 0)
(1390.64 101389 0)
(1042.03 106107 0)
(688.102 109443 0)
(398.587 112225 0)
(65.8156 113560 0)
(-94.4031 114636 0)
(58.808 114632 0)
(-93.4295 113503 0)
(-431.482 112152 0)
(-718.724 109266 0)
(-1079.99 105977 0)
(-1378.44 101053 0)
(-1710.74 95533.1 0)
(-1818.68 89082.9 0)
(-1683.28 82254.9 0)
(-1440.55 75097 0)
(-1122.12 67841.1 0)
(-973.578 60591 0)
(-916.924 53726.1 0)
(-899.524 47015.8 0)
(-868.468 40954.4 0)
(-700.566 34966.5 0)
(-287.996 30527.6 0)
(1036.13 25256.4 0)
(44232 44399.6 0)
(-47013.9 548637 0)
(633439 -656531 0)
(-560672 -52578.4 0)
(-15232.4 -32501.6 0)
(9235.02 -37223.3 0)
(10270.5 -41922.6 0)
(11905.4 -48522.7 0)
(12635.4 -55227.8 0)
(13413.3 -62658.7 0)
(14019.2 -70222.4 0)
(14401.8 -78345.5 0)
(14271.6 -86504.6 0)
(13792.2 -94771.3 0)
(12880.9 -102812 0)
(11703.6 -110248 0)
(10135.2 -116867 0)
(7911.22 -122373 0)
(6005.4 -126256 0)
(4054.91 -129389 0)
(2373.15 -130917 0)
(1029.41 -131962 0)
(-1133.77 -131933 0)
(-2479.67 -130796 0)
(-4212.55 -129216 0)
(-6108.58 -125928 0)
(-8121.21 -122053 0)
(-10316.3 -116269 0)
(-11884.7 -109739 0)
(-13220.5 -101930 0)
(-14044.3 -93839.5 0)
(-14622.6 -85271.2 0)
(-14794.2 -76794.1 0)
(-14487.2 -68362.7 0)
(-13975.5 -60373.9 0)
(-13201.7 -52554.1 0)
(-12471.2 -45440.4 0)
(-10768.5 -38446.1 0)
(-9776.46 -33474.7 0)
(13368.7 -28438.2 0)
(528209 -47281.5 0)
(-593255 -617204 0)
(633439 656531 0)
(-560672 52578.4 0)
(-15232.4 32501.6 0)
(9235.02 37223.3 0)
(10270.5 41922.6 0)
(11905.4 48522.7 0)
(12635.4 55227.8 0)
(13413.3 62658.7 0)
(14019.2 70222.4 0)
(14401.8 78345.5 0)
(14271.6 86504.6 0)
(13792.2 94771.3 0)
(12880.9 102812 0)
(11703.6 110248 0)
(10135.2 116867 0)
(7911.22 122373 0)
(6005.4 126256 0)
(4054.91 129389 0)
(2373.15 130917 0)
(1029.41 131962 0)
(-1133.77 131933 0)
(-2479.67 130796 0)
(-4212.55 129216 0)
(-6108.58 125928 0)
(-8121.21 122053 0)
(-10316.3 116269 0)
(-11884.7 109739 0)
(-13220.5 101930 0)
(-14044.3 93839.5 0)
(-14622.6 85271.2 0)
(-14794.2 76794.1 0)
(-14487.2 68362.7 0)
(-13975.5 60373.9 0)
(-13201.7 52554.1 0)
(-12471.2 45440.4 0)
(-10768.5 38446.1 0)
(-9776.46 33474.7 0)
(13368.7 28438.2 0)
(528209 47281.5 0)
(-593255 617204 0)
(49894.6 -581667 0)
(-45871.9 -48768.9 0)
(-837.074 -27876 0)
(315.904 -32711.7 0)
(666.132 -36892.3 0)
(794.468 -42589.8 0)
(799.3 -48378 0)
(784.172 -54828.7 0)
(805.227 -61466.3 0)
(964.118 -68583.9 0)
(1236.76 -75670.1 0)
(1624.32 -82799.1 0)
(1779.3 -89509.4 0)
(1635.47 -95800.5 0)
(1390.64 -101389 0)
(1042.03 -106107 0)
(688.102 -109443 0)
(398.587 -112225 0)
(65.8156 -113560 0)
(-94.4031 -114636 0)
(58.808 -114632 0)
(-93.4295 -113503 0)
(-431.482 -112152 0)
(-718.724 -109266 0)
(-1079.99 -105977 0)
(-1378.44 -101053 0)
(-1710.74 -95533.1 0)
(-1818.68 -89082.9 0)
(-1683.28 -82254.9 0)
(-1440.55 -75097 0)
(-1122.12 -67841.1 0)
(-973.578 -60591 0)
(-916.924 -53726.1 0)
(-899.524 -47015.8 0)
(-868.468 -40954.4 0)
(-700.566 -34966.5 0)
(-287.996 -30527.6 0)
(1036.13 -25256.4 0)
(44232 -44399.6 0)
(-47013.9 -548637 0)
(30502.5 -14981.3 0)
(-27018.5 -1270.41 0)
(240.908 -249.698 0)
(546.576 33.3399 0)
(751.645 145.173 0)
(837.305 190.627 0)
(841.589 207.911 0)
(800.984 222.448 0)
(764.147 203.077 0)
(714.492 128.099 0)
(573.272 -96.2298 0)
(456.114 -579 0)
(352.328 -1336.07 0)
(255.908 -2073.13 0)
(203.686 -2774.01 0)
(150.626 -3314.07 0)
(109.382 -3708.86 0)
(86.7534 -3930.9 0)
(50.4031 -4056.88 0)
(-2.89931 -3969.11 0)
(-42.415 -3971.36 0)
(-89.9801 -4067.28 0)
(-129.638 -3949.77 0)
(-158.239 -3736 0)
(-206.433 -3358.38 0)
(-252.218 -2827.37 0)
(-350.184 -2195.54 0)
(-425.17 -1417.5 0)
(-566.967 -744.055 0)
(-733.034 -253.366 0)
(-815.593 -2.3737 0)
(-885.402 69.0086 0)
(-894.046 93.4126 0)
(-894.441 97.3996 0)
(-860.07 102.651 0)
(-720.893 103.611 0)
(-419.449 55.798 0)
(1.17732 -109.28 0)
(23860.8 -1157.04 0)
(-26865.2 -16405.5 0)
(34932 8917.28 0)
(-31676.1 256.375 0)
(419.268 393.017 0)
(696.416 537.076 0)
(817.7 596.718 0)
(854.924 625.041 0)
(829.963 616.931 0)
(779.514 604.813 0)
(714.309 577.462 0)
(675.695 518.974 0)
(555.376 486.916 0)
(429.564 439.836 0)
(339.502 413.124 0)
(249.821 401.335 0)
(194.817 387.01 0)
(141.168 374.96 0)
(93.7091 364.182 0)
(63.224 348.907 0)
(28.9934 333.02 0)
(-11.9878 323.71 0)
(-35.7934 321.784 0)
(-72.6281 327.153 0)
(-112.251 338.437 0)
(-148.836 347.74 0)
(-204.396 351.939 0)
(-257.884 354.915 0)
(-352.137 347.86 0)
(-419.981 359.167 0)
(-561.485 362.102 0)
(-725.838 378.186 0)
(-811.466 401.783 0)
(-881.275 414.547 0)
(-889.566 428.202 0)
(-890.622 434.752 0)
(-862.482 443.064 0)
(-745.716 444.953 0)
(-493.146 417.287 0)
(-132.606 341.713 0)
(28528.4 229.701 0)
(-31242.3 9246.52 0)
(38996.6 9191.96 0)
(-35232.8 630.629 0)
(511.401 716.657 0)
(742.869 797.346 0)
(836.411 824.065 0)
(856.784 832.898 0)
(822.096 828.426 0)
(762.949 815.469 0)
(681.43 801.571 0)
(627.238 754.286 0)
(497.011 689.874 0)
(385.006 631.089 0)
(315.228 575.316 0)
(230.744 542.897 0)
(178.27 513.801 0)
(128.628 490.99 0)
(84.2759 473.454 0)
(56.725 459.864 0)
(26.1228 449.269 0)
(-13.7275 443.134 0)
(-39.0975 439.909 0)
(-73.9324 440.894 0)
(-109.8 447.409 0)
(-145.229 454.796 0)
(-199.518 462.977 0)
(-256.148 474.83 0)
(-346.086 479.65 0)
(-411.446 503.807 0)
(-548.64 519.774 0)
(-694.796 557.905 0)
(-780.554 601.407 0)
(-859.943 629.562 0)
(-874.575 651.883 0)
(-880.119 666.087 0)
(-850.24 679.83 0)
(-745.732 691.387 0)
(-518.934 693.332 0)
(-179.587 666.698 0)
(32441.8 634.202 0)
(-35570.3 10262.2 0)
(44480.1 10188.3 0)
(-39843.2 809.15 0)
(579.923 859.161 0)
(799.919 925.313 0)
(851.959 952.762 0)
(859.126 957.772 0)
(813.168 963.015 0)
(753.636 952.687 0)
(655.351 953.836 0)
(568.06 904.092 0)
(436.659 840.715 0)
(319.172 781.576 0)
(254.518 714.069 0)
(190.542 673.062 0)
(144.798 633.275 0)
(102.288 602.838 0)
(63.715 580.115 0)
(39.9191 564.495 0)
(12.8714 553.83 0)
(-21.008 548.109 0)
(-37.9521 544.945 0)
(-65.4003 545.35 0)
(-98.8547 550.758 0)
(-133.835 557.935 0)
(-185.091 568.916 0)
(-241.817 584.764 0)
(-324.214 598.695 0)
(-381.316 626.556 0)
(-509.354 646.256 0)
(-647.174 691.742 0)
(-742.415 736.687 0)
(-832.634 763.646 0)
(-854.369 783.584 0)
(-863.691 797.98 0)
(-838.102 812.596 0)
(-732.705 825.011 0)
(-516.937 839.614 0)
(-189.586 837.837 0)
(37775 837.443 0)
(-41782.6 11999.2 0)
(49831.3 10216.4 0)
(-44222.6 860.479 0)
(623.34 912.947 0)
(833.067 968.3 0)
(867.69 997.67 0)
(866.664 994.814 0)
(817.197 1016.68 0)
(754.104 1016.88 0)
(634.602 1019.63 0)
(518.23 983.926 0)
(378.95 929.985 0)
(262.965 887.679 0)
(210.66 836.879 0)
(152.888 793.191 0)
(110.599 753.354 0)