/*--------------------------------*- C++ -*----------------------------------*\
| =========                 |                                                 |
| \\      /  F ield         | OpenFOAM: The Open Source CFD Toolbox           |
|  \\    /   O peration     | Version:  v1912                                 |
|   \\  /    A nd           | Website:  www.openfoam.com                      |
|    \\/     M anipulation  |                                                 |
\*---------------------------------------------------------------------------*/
FoamFile
{
    version     2.0;
    format      ascii;
    class       volTensorField;
    location    "0.42";
    object      grad(U);
}
// * * * * * * * * * * * * * * * * * * * * * * * * * * * * * * * * * * * * * //

dimensions      [0 0 -1 0 0 0 0];


internalField   nonuniform List<tensor> 
1900
(
(-1.40297e-16 2.8485e-16 0 0 0 0 0 0 0)
(1.737e-16 -6.66131e-17 0 -7.98651e-17 1.09753e-16 0 0 0 0)
(1.40297e-16 -2.8485e-16 0 1.21499e-16 -8.74218e-16 0 0 0 0)
(-1.51953e-16 5.5955e-16 0 0 -1.0785e-16 0 0 0 0)
(-3.62003e-17 2.49323e-16 0 2.41743e-17 4.92937e-16 0 0 0 0)
(3.30765e-16 2.65184e-16 0 -5.61114e-17 2.49323e-16 0 0 0 0)
(5.94843e-12 1.28119e-13 0 -5.8158e-16 8.81831e-16 0 0 0 0)
(5.97933e-09 1.93018e-10 0 1.91214e-12 5.78299e-13 0 0 0 0)
(5.66506e-07 2.90571e-08 0 2.41959e-09 8.12563e-10 0 0 0 0)
(7.26272e-06 6.00648e-07 0 2.69613e-07 1.10708e-07 0 0 0 0)
(-2.20162e-16 -1.75097e-16 0 0 0 0 0 0 0)
(2.95199e-16 -8.07605e-16 0 -1.13604e-16 -2.8485e-16 0 0 0 0)
(2.20162e-16 6.72476e-17 0 2.07398e-16 -1.08484e-16 0 0 0 0)
(-2.49277e-16 8.07605e-16 0 0 1.80556e-31 0 0 0 0)
(-9.23116e-17 1.0785e-16 0 1.46887e-16 -4.92937e-16 0 0 0 0)
(-2.74989e-16 1.2371e-16 0 -2.13022e-16 -1.95399e-16 0 0 0 0)
(7.86062e-12 4.4993e-13 0 -2.92433e-16 -6.34411e-19 0 0 0 0)
(8.39892e-09 6.19544e-10 0 3.61485e-12 -1.29322e-13 0 0 0 0)
(8.36117e-07 8.16501e-08 0 4.24745e-09 -1.93047e-10 0 0 0 0)
(1.04796e-05 1.46053e-06 0 4.3732e-07 -2.90572e-08 0 0 0 0)
(-2.53901e-16 0 0 0 0 0 0 0 0)
(3.81098e-16 -1.75097e-16 0 2.20162e-16 1.75097e-16 0 0 0 0)
(2.53901e-16 1.20371e-31 0 -2.95199e-16 3.72399e-16 0 0 0 0)
(-2.12464e-16 1.75097e-16 0 0 1.0785e-16 0 0 0 0)
(-2.49223e-16 5.39249e-17 0 2.87117e-16 -2.93732e-16 0 0 0 0)
(-1.08555e-16 7.57487e-16 0 -2.07808e-16 3.41313e-16 0 0 0 0)
(9.56348e-12 -1.00744e-15 0 8.39079e-16 6.01853e-31 0 0 0 0)
(1.02268e-08 -2.91639e-14 0 -3.23369e-15 -9.00091e-13 0 0 0 0)
(1.00382e-06 -3.55648e-14 0 -1.09827e-13 -1.23925e-09 0 0 0 0)
(1.22047e-05 1.52449e-14 0 5.21562e-14 -1.63301e-07 0 0 0 0)
(0 0 0 0 0 0 0 0 0)
(0 -4.35206e-16 0 2.53901e-16 -3.71765e-16 0 0 0 0)
(0 1.20371e-31 0 -3.81098e-16 -1.09246e-15 0 0 0 0)
(3.33039e-16 1.41474e-16 0 0 -6.33776e-16 0 0 0 0)
(-3.0012e-16 3.41313e-16 0 -1.68634e-16 -1.08104e-15 0 0 0 0)
(2.76972e-16 4.17442e-16 0 2.49223e-16 -3.07689e-16 0 0 0 0)
(7.8576e-12 -4.50503e-13 0 3.90352e-16 -7.57487e-16 0 0 0 0)
(8.39881e-09 -6.19707e-10 0 -3.61715e-12 -1.27029e-13 0 0 0 0)
(8.36117e-07 -8.16503e-08 0 -4.24771e-09 -1.9306e-10 0 0 0 0)
(1.04796e-05 -1.46053e-06 0 -4.3732e-07 -2.90572e-08 0 0 0 0)
(0 -3.71765e-16 0 0 0 0 0 0 0)
(0 -1.26755e-15 0 0 3.71765e-16 0 0 0 0)
(0 -2.62012e-16 0 0 1.70276e-15 0 0 0 0)
(0 1.86517e-16 0 0 6.33776e-16 0 0 0 0)
(0 3.80012e-16 0 -3.33039e-16 1.37477e-15 0 0 0 0)
(4.50432e-16 1.08104e-15 0 3.0012e-16 -8.75487e-17 0 0 0 0)
(5.94608e-12 -1.27729e-13 0 -1.59579e-16 -1.2371e-16 0 0 0 0)
(5.97907e-09 -1.93088e-10 0 -1.91122e-12 5.78144e-13 0 0 0 0)
(5.66506e-07 -2.90571e-08 0 -2.41974e-09 8.12796e-10 0 0 0 0)
(7.26272e-06 -6.00648e-07 0 -2.69613e-07 1.10708e-07 0 0 0 0)
(1.85307e-05 6.8144e-06 -6.22203e-22 6.2734e-06 -4.41304e-06 9.33305e-22 2.75039e-22 9.59946e-22 -1.68648e-37)
(2.01845e-06 1.90509e-05 0 1.57994e-05 -1.16145e-05 0 -4.22084e-21 -8.12866e-22 0)
(-0.000955629 -4.19614e-05 0 2.94364e-06 5.02187e-07 0 -3.6326e-21 -2.2898e-21 0)
(-0.0155429 -0.00191586 0 -0.00111521 0.00114725 0 0 0 0)
(-0.0790185 -0.0191092 -3.85067e-18 -0.0227835 0.0314726 5.776e-18 1.01288e-17 6.75253e-18 1.04373e-33)
(2.72035e-05 6.39725e-06 0 4.35348e-06 -5.23383e-07 0 1.40864e-21 1.62509e-22 0)
(6.25637e-06 1.13379e-05 0 9.52776e-06 -3.20408e-06 0 4.22084e-21 8.12866e-22 0)
(-0.00117481 -7.96928e-05 0 6.07389e-06 -1.1726e-05 0 3.6326e-21 2.2898e-21 0)
(-0.0167312 -0.00134472 0 -0.000384684 5.94328e-05 0 0 0 0)
(-0.0952813 0.000434111 0 -0.00229969 0.00270206 0 0 0 0)
(3.13933e-05 -1.26928e-13 0 4.8895e-14 -2.55055e-06 0 0 0 0)
(1.02021e-05 2.1837e-13 0 -9.54144e-14 -1.15855e-05 0 0 0 0)
(-0.00122479 2.44374e-14 0 4.52943e-13 -2.72352e-05 0 0 0 0)
(-0.0172049 -2.3064e-13 0 -4.76823e-13 0.000224617 0 0 0 0)
(-0.0972938 3.1329e-13 0 8.28504e-13 0.00638789 0 0 0 0)
(2.72035e-05 -6.39725e-06 0 -4.35348e-06 -5.23383e-07 0 1.40864e-21 -1.62509e-22 0)
(6.25637e-06 -1.13379e-05 0 -9.52776e-06 -3.20408e-06 0 4.22084e-21 -8.12866e-22 0)
(-0.00117481 7.96928e-05 0 -6.07389e-06 -1.1726e-05 0 3.6326e-21 -2.2898e-21 0)
(-0.0167312 0.00134472 0 0.000384684 5.94328e-05 0 0 0 0)
(-0.0952813 -0.000434111 0 0.00229969 0.00270206 0 0 0 0)
(1.85307e-05 -6.8144e-06 6.22203e-22 -6.2734e-06 -4.41304e-06 9.33305e-22 -3.09233e-21 1.28496e-21 -1.68648e-37)
(2.01845e-06 -1.90509e-05 0 -1.57994e-05 -1.16145e-05 0 -4.22084e-21 8.12866e-22 0)
(-0.000955629 4.19614e-05 0 -2.94364e-06 5.02186e-07 0 -3.6326e-21 2.2898e-21 0)
(-0.0155429 0.00191586 -1.44576e-19 0.00111521 0.00114725 -2.16863e-19 3.57514e-19 -2.38342e-19 3.91873e-35)
(-0.0790185 0.0191092 3.85067e-18 0.0227835 0.0314726 5.776e-18 -1.01288e-17 6.75253e-18 1.04373e-33)
(-0.23105 0.00183864 2.03098e-19 -0.0161033 -0.0664501 1.82788e-18 -4.68497e-17 3.15038e-18 -5.50498e-35)
(-0.28715 0.0151514 -4.06666e-19 -0.0627142 -0.133574 -3.65999e-18 9.62976e-17 -6.46706e-18 -1.10227e-34)
(-0.341191 0.0972399 0 -0.0364396 -0.0771633 0 0 0 0)
(-0.433043 0.252678 -8.31137e-19 0.329817 0.248951 -7.48024e-18 -1.71903e-16 2.77016e-17 2.2528e-34)
(-0.854081 0.136497 2.53347e-18 1.18575 0.857219 2.28013e-17 1.20909e-16 -1.34343e-17 6.86699e-34)
(-0.245035 0.00490159 0 -0.0156455 -0.0124173 0 2.36673e-17 -5.74559e-19 0)
(-0.293203 0.0244445 0 -0.0848861 -0.0263134 0 -4.90932e-17 1.22212e-18 0)
(-0.206676 0.106321 0 -0.0267947 -0.0945131 0 0 0 0)
(0.0523881 0.267597 0 0.5094 -0.291902 0 9.73959e-17 -1.98017e-17 0)
(0.459665 0.070991 0 1.68565 -0.601585 0 -8.60784e-18 5.28329e-18 0)
(-0.255211 -1.22765e-14 0 -9.66815e-14 -0.0133209 0 0 0 0)
(-0.287208 -7.67246e-14 0 -4.89397e-14 -0.0285322 0 0 0 0)
(-0.113134 2.65477e-14 0 9.1856e-14 -0.157153 0 0 0 0)
(0.286048 7.45349e-14 0 6.6434e-15 -0.584956 0 -3.28218e-17 3.94789e-30 0)
(0.726257 7.51845e-14 0 2.1161e-13 -1.40342 0 1.72157e-17 -2.74557e-30 0)
(-0.245035 -0.00490159 0 0.0156455 -0.0124173 0 2.36673e-17 5.74559e-19 0)
(-0.293203 -0.0244445 0 0.0848861 -0.0263134 0 -4.90932e-17 -1.22212e-18 0)
(-0.206676 -0.106321 0 0.0267947 -0.0945131 0 0 0 0)
(0.0523881 -0.267597 0 -0.5094 -0.291902 0 9.73959e-17 1.98017e-17 0)
(0.459665 -0.070991 0 -1.68565 -0.601585 0 -8.60784e-18 -5.28329e-18 0)
(-0.23105 -0.00183864 0 0.0161033 -0.0664501 0 -2.36673e-17 -5.74559e-19 0)
(-0.28715 -0.0151514 4.06666e-19 0.0627142 -0.133574 -3.65999e-18 1.88875e-18 -4.02282e-18 -1.10227e-34)
(-0.341191 -0.0972399 0 0.0364396 -0.0771633 0 0 0 0)
(-0.433043 -0.252678 8.31137e-19 -0.329817 0.248951 -7.48024e-18 9.93302e-18 -7.49759e-18 2.2528e-34)
(-0.854081 -0.136497 -2.53347e-18 -1.18575 0.857219 2.28013e-17 -1.20909e-16 -1.34343e-17 6.86699e-34)
(-0.0497056 -0.542555 0 6.66862 0.133851 0 0 0 0)
(0.649432 -0.267088 0 2.06377 0.437455 0 0 0 0)
(0.248003 0.315032 0 0.730198 0.182841 0 0 0 0)
(0.367063 0.172497 0 0.119306 0.0754865 0 0 0 0)
(0.219482 0.0453119 0 0.00384447 0.0190021 0 0 0 0)
(0.0677005 0.00221473 0 -0.00129766 0.00194369 0 0 0 0)
(0.00776315 -9.38458e-05 0 -6.48538e-05 4.12314e-05 0 0 0 0)
(0.000211642 -5.33471e-06 0 -3.58516e-07 1.27932e-07 0 0 0 0)
(8.77098e-07 -3.20343e-08 0 -1.8272e-10 4.21033e-11 0 0 0 0)
(3.77401e-10 -1.53948e-11 0 -6.85989e-15 5.15271e-16 0 0 0 0)
(1.64669e-14 -7.58357e-16 0 -1.21419e-16 -4.49386e-16 0 0 0 0)
(-3.22646e-17 -4.28673e-16 0 5.16469e-16 4.0918e-15 0 0 0 0)
(-3.27523e-16 7.13057e-17 0 3.52962e-16 2.07524e-15 0 0 0 0)
(-6.34547e-17 7.38224e-17 0 -8.50721e-16 7.57325e-16 0 0 0 0)
(8.25743e-16 1.82878e-16 0 -1.86677e-17 4.36844e-16 0 0 0 0)
(-7.45713e-17 -2.35728e-16 0 3.64467e-16 2.12396e-15 0 0 0 0)
(-7.94627e-16 2.76834e-17 0 1.88139e-16 6.06754e-16 0 0 0 0)
(-3.31697e-16 8.7664e-16 0 -2.43433e-16 2.22696e-15 0 0 0 0)
(3.87447e-16 2.85223e-17 0 -1.14438e-15 6.02058e-15 0 0 0 0)
(5.36191e-16 -6.28329e-16 0 3.13669e-16 3.63211e-15 0 0 0 0)
(-4.70018e-17 -3.77501e-16 0 1.73114e-16 9.24842e-16 0 0 0 0)
(-8.8899e-17 2.02173e-16 0 8.77276e-16 3.97368e-15 0 0 0 0)
(-6.07137e-16 1.95965e-15 0 8.41007e-16 2.41328e-15 0 0 0 0)
(-2.30952e-16 -3.74984e-16 0 -1.36421e-15 5.99648e-15 0 0 0 0)
(1.08705e-15 -1.36991e-15 0 -1.66286e-15 4.54558e-15 0 0 0 0)
(5.46358e-16 -1.14089e-16 0 -3.19168e-16 -8.77841e-16 0 0 0 0)
(-9.22945e-16 -8.80835e-17 0 9.23937e-16 -5.03116e-15 0 0 0 0)
(-3.9316e-16 1.39843e-15 0 9.06504e-16 3.40179e-16 0 0 0 0)
(2.00351e-16 1.8313e-15 0 7.52323e-16 -3.97145e-16 0 0 0 0)
(2.19859e-14 -7.65907e-16 0 -7.59148e-17 -3.75604e-15 0 0 0 0)
(4.87351e-10 1.7214e-15 0 -1.16434e-15 -1.20906e-15 0 0 0 0)
(1.15128e-06 4.19135e-14 0 8.36528e-15 -5.57459e-14 0 0 0 0)
(0.000286399 -2.20514e-13 0 1.02976e-13 -1.36432e-13 0 0 0 0)
(0.0109029 3.9998e-14 0 -4.52675e-13 -4.18039e-13 0 0 0 0)
(0.099797 2.86274e-13 0 4.18265e-13 7.20242e-13 0 0 0 0)
(0.34993 1.7076e-14 0 -1.47846e-15 -4.51609e-13 0 0 0 0)
(0.669986 -6.15889e-14 0 1.82343e-14 -1.61104e-13 0 0 0 0)
(0.803774 -7.05049e-15 0 2.06984e-14 -2.07368e-13 0 0 0 0)
(2.64086 3.14985e-14 0 2.26697e-14 -3.14087e-13 0 0 0 0)
(2.24632 -5.33252e-14 0 1.6953e-13 -2.44943e-13 0 0 0 0)
(0.201851 -0.456034 0 4.70367 -0.317562 0 0 0 0)
(-0.287817 -0.232529 0 1.85079 1.23836 0 0 0 0)
(-0.124336 0.216786 0 0.691456 0.600552 0 0 0 0)
(0.226595 0.117816 0 0.0874488 0.155437 0 0 0 0)
(0.202986 0.0285441 0 -0.0122075 0.00759479 0 0 0 0)
(0.0692447 -0.000263531 0 -0.00289489 -0.000322705 0 0 0 0)
(0.00823532 -0.000371133 0 -9.63265e-05 -1.83381e-05 0 0 0 0)
(0.000228515 -1.17889e-05 0 -4.30756e-07 -1.10118e-07 0 0 0 0)
(9.56289e-07 -4.80846e-08 0 -2.01345e-10 -5.27309e-11 0 0 0 0)
(4.15254e-10 -1.91458e-11 0 -8.26607e-15 -8.79524e-16 0 0 0 0)
(1.81159e-14 1.02596e-15 0 4.96679e-16 -1.31496e-15 0 0 0 0)
(1.207e-16 2.89417e-16 0 -1.02443e-16 6.22588e-15 0 0 0 0)
(-5.73357e-16 -8.74963e-16 0 -1.05853e-16 1.58603e-16 0 0 0 0)
(-1.42137e-16 -5.25984e-16 0 -1.01436e-15 3.87567e-15 0 0 0 0)
(8.515e-16 2.16434e-16 0 -2.90454e-16 -1.58314e-15 0 0 0 0)
(2.01745e-17 8.3889e-19 0 -4.94262e-17 7.43991e-16 0 0 0 0)
(-6.58149e-16 2.51667e-17 0 2.12042e-16 6.92085e-17 0 0 0 0)
(-5.65743e-16 1.62409e-15 0 7.21746e-16 1.15924e-15 0 0 0 0)
(3.69827e-16 3.99312e-16 0 4.47208e-16 1.96091e-15 0 0 0 0)
(6.71029e-16 -1.44373e-15 0 -1.15621e-15 4.16981e-15 0 0 0 0)
(1.38755e-16 1.68617e-16 0 1.26277e-16 9.89104e-16 0 0 0 0)
(1.46626e-16 7.54162e-16 0 1.14147e-15 7.58698e-15 0 0 0 0)
(-9.93019e-16 1.37494e-15 0 3.526e-16 3.74879e-15 0 0 0 0)
(-8.52241e-16 1.93784e-16 0 -1.46794e-16 -2.1916e-16 0 0 0 0)
(9.93211e-16 -2.54352e-15 0 -2.22641e-15 6.41908e-15 0 0 0 0)
(1.0455e-15 -2.40594e-15 0 -2.85233e-15 2.22621e-15 0 0 0 0)
(-2.35836e-16 5.77995e-16 0 1.66084e-15 -1.17654e-15 0 0 0 0)
(-2.60749e-16 1.99991e-15 0 2.0029e-15 2.71932e-15 0 0 0 0)
(-1.71783e-16 -1.34222e-16 0 -4.46459e-16 -4.6312e-15 0 0 0 0)
(2.13461e-14 -6.56012e-16 0 -3.17302e-16 -1.20221e-14 0 0 0 0)
(4.87341e-10 -9.98783e-15 0 -9.18309e-16 -3.58731e-15 0 0 0 0)
(1.15128e-06 2.52481e-14 0 -7.73651e-15 -3.23377e-14 0 0 0 0)
(0.000286399 -2.20139e-13 0 7.40363e-14 2.45113e-14 0 0 0 0)
(0.0109029 1.70824e-13 0 -5.7917e-13 -3.30231e-13 0 0 0 0)
(0.099797 2.01691e-13 0 6.72698e-13 4.48806e-13 0 0 0 0)
(0.34993 -1.45807e-13 0 -1.64725e-13 -4.71987e-13 0 0 0 0)
(0.669986 5.1777e-15 0 3.20332e-14 -2.71122e-13 0 0 0 0)
(0.803774 -6.94464e-14 0 -1.97128e-15 -2.1861e-13 0 0 0 0)
(2.64086 -1.96655e-14 0 -2.26697e-14 -4.39187e-13 0 0 0 0)
(2.24632 -2.37236e-14 0 1.02506e-13 -5.22738e-13 0 0 0 0)
(0.218907 6.31593e-14 0 4.3097e-13 -0.790541 0 0 0 0)
(-0.517756 -9.51986e-14 0 1.77877e-14 1.68409 0 0 0 0)
(-0.264968 -1.62439e-13 0 -1.45135e-13 0.808095 0 0 0 0)
(0.162361 -4.99471e-14 0 -1.39961e-13 0.193689 0 0 0 0)
(0.1932 4.767e-14 0 1.25546e-13 -0.00189283 0 0 0 0)
(0.0712237 -3.92253e-14 0 9.43133e-14 -0.00255187 0 0 0 0)
(0.00860517 1.45825e-14 0 2.1042e-13 -8.10491e-05 0 0 0 0)
(0.000239664 1.41297e-13 0 2.13936e-13 -3.30582e-07 0 0 0 0)
(1.00241e-06 3.59674e-14 0 -1.31706e-13 -1.31294e-10 0 0 0 0)
(4.35974e-10 -5.52971e-14 0 -5.50278e-16 1.35822e-15 0 0 0 0)
(1.88417e-14 1.30867e-15 0 6.56427e-16 -2.02435e-15 0 0 0 0)
(-2.07547e-16 -1.09428e-29 0 -9.40403e-16 -5.479e-16 0 0 0 0)
(-5.92808e-16 -6.1239e-16 0 -6.33737e-17 -1.24287e-15 0 0 0 0)
(-1.17157e-16 -4.32867e-16 0 7.24038e-16 4.53027e-15 0 0 0 0)
(1.10645e-15 -7.28157e-16 0 -6.88912e-16 8.50687e-16 0 0 0 0)
(7.16092e-17 2.44956e-16 0 -6.80059e-16 -7.43991e-16 0 0 0 0)
(-5.70286e-16 1.48484e-16 0 -2.08646e-16 0 0 0 0 0)
(-2.63285e-16 1.42695e-15 0 3.71897e-16 -8.30502e-16 0 0 0 0)
(-1.58867e-16 9.04324e-16 0 1.94536e-15 -3.90163e-15 0 0 0 0)
(4.4283e-16 -9.11035e-16 0 -1.0528e-15 -8.93943e-16 0 0 0 0)
(6.21413e-16 6.16584e-16 0 3.1282e-16 -2.4223e-16 0 0 0 0)
(-2.30596e-17 1.00499e-15 0 8.36497e-16 -1.47068e-15 0 0 0 0)
(-9.81904e-16 -3.11228e-16 0 -8.13928e-16 -3.18359e-15 0 0 0 0)
(-9.81209e-16 4.01829e-16 0 -8.11772e-17 -7.24382e-15 0 0 0 0)
(2.99981e-16 -6.58529e-16 0 -3.7631e-16 1.44184e-16 0 0 0 0)
(1.67719e-15 -2.32373e-15 0 -1.20705e-15 6.13937e-15 0 0 0 0)
(4.89487e-16 5.53668e-17 0 1.51156e-15 4.8792e-15 0 0 0 0)
(-1.00619e-15 3.9344e-16 0 6.7012e-16 -1.13329e-15 0 0 0 0)
(-4.74618e-16 -2.45711e-15 0 -2.7274e-15 -2.48285e-15 0 0 0 0)
(2.18486e-14 -4.62229e-16 0 -7.5955e-16 -3.97084e-15 0 0 0 0)
(4.87349e-10 -4.18858e-15 0 6.82435e-16 -1.19673e-15 0 0 0 0)
(1.15128e-06 5.00876e-14 0 -6.02666e-16 -1.51901e-13 0 0 0 0)
(0.000286399 -3.07174e-13 0 1.06142e-13 6.3121e-14 0 0 0 0)
(0.0109029 1.63429e-13 0 -6.37025e-13 -4.88411e-13 0 0 0 0)
(0.099797 2.45036e-13 0 8.00631e-13 1.61635e-13 0 0 0 0)
(0.34993 -1.92357e-13 0 -1.78647e-13 -1.48342e-13 0 0 0 0)
(0.669986 1.21208e-14 0 5.96311e-14 -1.96138e-13 0 0 0 0)
(0.803774 -5.59421e-14 0 -3.25261e-14 -1.71665e-13 0 0 0 0)
(2.64086 -5.69751e-14 0 -7.58942e-14 -1.35723e-13 0 0 0 0)
(2.24632 -7.76309e-14 0 -2.40496e-13 -1.21728e-13 0 0 0 0)
(0.201851 0.456034 0 -4.70367 -0.317562 0 0 0 0)
(-0.287817 0.232529 0 -1.85079 1.23836 0 0 0 0)
(-0.124336 -0.216786 0 -0.691456 0.600552 0 0 0 0)
(0.226595 -0.117816 0 -0.0874488 0.155437 0 0 0 0)
(0.202986 -0.0285441 0 0.0122075 0.00759479 0 0 0 0)
(0.0692447 0.000263531 0 0.00289489 -0.000322705 0 0 0 0)
(0.00823532 0.000371133 0 9.63265e-05 -1.83381e-05 0 0 0 0)
(0.000228515 1.17889e-05 0 4.30757e-07 -1.10117e-07 0 0 0 0)
(9.56288e-07 4.80846e-08 0 2.01212e-10 -5.32187e-11 0 0 0 0)
(4.15293e-10 1.90482e-11 0 7.23962e-15 -1.36975e-15 0 0 0 0)
(1.80024e-14 4.71456e-16 0 4.6548e-16 -2.88657e-15 0 0 0 0)
(-8.86962e-17 5.16756e-16 0 3.22229e-16 -4.25632e-15 0 0 0 0)
(-8.91553e-17 6.02323e-16 0 -2.88269e-16 -1.23998e-15 0 0 0 0)
(-3.24112e-16 8.30502e-17 0 2.06576e-15 -7.09387e-16 0 0 0 0)
(4.43036e-16 -1.3179e-15 0 -2.51332e-16 2.55783e-15 0 0 0 0)
(1.59888e-16 -2.46634e-16 0 -1.75026e-15 0 0 0 0 0)
(-3.52126e-16 0 0 -5.50441e-16 0 0 0 0 0)
(6.08751e-17 4.89073e-16 0 4.33821e-17 -5.10412e-16 0 0 0 0)
(-4.46306e-17 3.80856e-16 0 9.35511e-16 -5.85677e-15 0 0 0 0)
(1.96109e-16 -3.79178e-16 0 5.5916e-16 -4.60236e-15 0 0 0 0)
(6.88369e-16 8.3889e-19 0 -5.86828e-16 -1.77347e-15 0 0 0 0)
(-1.81155e-16 -1.01506e-16 0 -1.27099e-15 -5.81928e-15 0 0 0 0)
(-1.25998e-15 -3.04517e-16 0 -5.07365e-16 -9.32584e-15 0 0 0 0)
(-7.24934e-16 1.16186e-15 0 7.47348e-16 -7.05926e-15 0 0 0 0)
(6.65685e-16 1.34977e-15 0 1.95915e-15 -5.64337e-15 0 0 0 0)
(1.5947e-15 -1.02848e-15 0 5.63537e-16 6.48829e-16 0 0 0 0)
(3.10249e-16 -1.53769e-15 0 -1.11711e-15 1.3784e-15 0 0 0 0)
(-1.4939e-15 -1.41772e-16 0 4.25723e-17 -7.67926e-15 0 0 0 0)
(-5.87687e-16 -9.59691e-16 0 -4.67098e-16 -1.09003e-15 0 0 0 0)
(2.23381e-14 -2.81867e-16 0 -1.68635e-16 4.31976e-15 0 0 0 0)
(4.87341e-10 -5.30221e-14 0 6.26967e-16 -5.07529e-16 0 0 0 0)
(1.15128e-06 4.39587e-14 0 -1.21724e-13 -1.09015e-13 0 0 0 0)
(0.000286399 -3.18033e-13 0 2.16493e-13 -2.70441e-13 0 0 0 0)
(0.0109029 1.99483e-13 0 -6.5116e-13 1.1886e-13 0 0 0 0)
(0.099797 3.0062e-13 0 9.38482e-13 -8.35713e-14 0 0 0 0)
(0.34993 -2.49886e-13 0 -1.15689e-13 -1.07629e-13 0 0 0 0)
(0.669986 -1.60701e-15 0 -9.85638e-16 -4.29105e-13 0 0 0 0)
(0.803774 -5.1871e-14 0 -1.20248e-13 2.76232e-15 0 0 0 0)
(2.64086 -5.13867e-15 0 -1.16305e-13 -2.81679e-13 0 0 0 0)
(2.24632 -1.96526e-14 0 -1.73472e-13 1.04496e-13 0 0 0 0)
(-0.0497056 0.542555 0 -6.66862 0.133851 0 0 0 0)
(0.649432 0.267088 0 -2.06377 0.437455 0 0 0 0)
(0.248003 -0.315032 0 -0.730198 0.182841 0 0 0 0)
(0.367063 -0.172497 0 -0.119306 0.0754865 0 0 0 0)
(0.219482 -0.0453119 0 -0.00384447 0.0190021 0 0 0 0)
(0.0677005 -0.00221473 0 0.00129766 0.00194369 0 0 0 0)
(0.00776315 9.38458e-05 0 6.48538e-05 4.12314e-05 0 0 0 0)
(0.000211642 5.33471e-06 0 3.58516e-07 1.27932e-07 0 0 0 0)
(8.77098e-07 3.20342e-08 0 1.82743e-10 4.16741e-11 0 0 0 0)
(3.7744e-10 1.54257e-11 0 6.48017e-15 -2.0842e-16 0 0 0 0)
(1.68294e-14 4.6894e-16 0 -1.90677e-17 -3.27001e-16 0 0 0 0)
(-4.26819e-16 4.79006e-16 0 8.22213e-16 -2.00346e-15 0 0 0 0)
(-8.55991e-17 4.19445e-16 0 -6.44557e-16 -6.21262e-16 0 0 0 0)
(-1.06412e-16 6.71951e-16 0 6.27592e-16 -3.8648e-15 0 0 0 0)
(-3.66512e-18 -5.2179e-16 0 4.48622e-16 3.31859e-16 0 0 0 0)
(-1.54043e-17 -4.9914e-16 0 -9.23972e-16 2.12363e-16 0 0 0 0)
(-4.84981e-17 0 0 -1.69662e-16 0 0 0 0 0)
(1.68992e-16 -2.76834e-16 0 2.51676e-16 -3.22985e-18 0 0 0 0)
(-8.8225e-18 -2.86062e-16 0 -5.88545e-17 -2.65779e-15 0 0 0 0)
(-3.25242e-20 2.76834e-16 0 4.18423e-16 -1.98627e-15 0 0 0 0)
(8.90053e-17 2.62573e-16 0 -7.32089e-16 -3.77763e-16 0 0 0 0)
(5.69878e-20 -1.19206e-15 0 -1.78323e-15 -1.60528e-15 0 0 0 0)
(-3.9475e-16 -6.71951e-16 0 -1.10102e-16 -3.14062e-15 0 0 0 0)
(-2.63677e-16 1.47309e-15 0 1.66338e-15 -2.53554e-15 0 0 0 0)
(2.46508e-16 1.58383e-15 0 2.04139e-15 -3.6965e-15 0 0 0 0)
(7.82283e-16 -2.81028e-16 0 -1.21936e-16 -2.9652e-15 0 0 0 0)
(3.37933e-16 -2.36735e-15 0 -1.97806e-15 -9.44771e-16 0 0 0 0)
(-8.171e-16 -3.24651e-16 0 -4.62005e-16 -3.50948e-15 0 0 0 0)
(-5.3606e-16 1.03351e-15 0 1.52021e-15 -1.67276e-15 0 0 0 0)
(2.21669e-14 -2.92773e-16 0 9.18943e-16 2.51895e-15 0 0 0 0)
(4.87314e-10 -3.71587e-14 0 3.52055e-17 -1.05537e-15 0 0 0 0)
(1.15128e-06 -2.84384e-14 0 -1.00204e-13 1.3279e-13 0 0 0 0)
(0.000286399 -2.40883e-13 0 -3.03597e-14 -4.19421e-13 0 0 0 0)
(0.0109029 2.17791e-13 0 -3.25121e-13 7.13145e-13 0 0 0 0)
(0.099797 1.79148e-13 0 6.92072e-13 -1.90076e-13 0 0 0 0)
(0.34993 -2.92876e-13 0 -2.45054e-13 -1.59728e-14 0 0 0 0)
(0.669986 4.42345e-14 0 -8.08223e-14 -3.7494e-13 0 0 0 0)
(0.803774 -1.30544e-14 0 -8.08223e-14 7.47333e-14 0 0 0 0)
(2.64086 -2.738e-14 0 -6.60378e-14 -8.26431e-14 0 0 0 0)
(2.24632 3.47108e-14 0 1.97128e-14 9.35563e-15 0 0 0 0)
(2.0146 0.443222 0 -3.43864 0.158676 0 0 0 0)
(2.3535 0.2233 0 -0.933081 -0.186547 0 0 0 0)
(0.664859 -0.330242 0 -0.381839 -0.102441 0 0 0 0)
(0.5198 -0.157364 0 -0.127539 -0.00378811 0 0 0 0)
(0.259564 -0.0552877 0 -0.0255546 0.0091638 0 0 0 0)
(0.0734825 -0.00876464 0 -0.0019819 0.00113063 0 0 0 0)
(0.0079675 -0.0005274 0 -3.35541e-05 2.70906e-05 0 0 0 0)
(0.000207343 -6.61168e-06 0 -6.96332e-08 1.07054e-07 0 0 0 0)
(8.22966e-07 -1.36053e-08 0 -1.1614e-11 4.28278e-11 0 0 0 0)
(3.44431e-10 -2.90436e-12 0 -1.33969e-15 1.23625e-15 0 0 0 0)
(1.58096e-14 -6.51612e-16 0 -6.05191e-16 9.20612e-16 0 0 0 0)
(-9.00942e-17 3.75823e-16 0 1.36563e-16 -2.43965e-16 0 0 0 0)
(-2.15348e-16 -3.5379e-16 0 -7.45619e-17 3.66111e-16 0 0 0 0)
(1.09894e-16 -3.09288e-30 0 -1.99712e-16 -8.65109e-16 0 0 0 0)
(-1.37201e-17 3.19095e-16 0 2.92537e-16 -4.85672e-16 0 0 0 0)
(-2.52617e-17 -1.6284e-16 0 -2.76413e-16 7.22208e-16 0 0 0 0)
(3.42569e-17 -1.35235e-16 0 1.94045e-16 1.70824e-16 0 0 0 0)
(5.37151e-18 -2.92504e-16 0 -1.64333e-16 -1.1274e-18 0 0 0 0)
(1.8562e-17 -9.19297e-17 0 -4.95104e-19 3.23501e-16 0 0 0 0)
(5.96945e-19 2.92504e-16 0 -2.62299e-18 8.48951e-16 0 0 0 0)
(3.46975e-19 -6.2806e-17 0 3.31727e-18 4.44143e-17 0 0 0 0)
(-5.26825e-19 -5.73611e-16 0 -1.41897e-16 -4.97866e-17 0 0 0 0)
(-9.84368e-17 -4.63194e-16 0 1.14584e-18 1.40301e-15 0 0 0 0)
(9.13067e-17 4.53317e-16 0 2.30989e-16 6.36227e-16 0 0 0 0)
(3.0479e-17 8.0964e-16 0 6.31125e-16 -6.89196e-16 0 0 0 0)
(1.27641e-17 -1.66638e-16 0 -8.80138e-17 -1.31071e-15 0 0 0 0)
(6.49229e-17 -9.19804e-16 0 -5.52071e-16 -3.39691e-16 0 0 0 0)
(-8.2086e-17 -3.86966e-16 0 -4.66896e-16 1.95148e-15 0 0 0 0)
(2.1885e-16 5.17136e-16 0 5.60619e-16 -1.45742e-16 0 0 0 0)
(2.16044e-14 1.18014e-16 0 9.92464e-16 5.91621e-16 0 0 0 0)
(4.87309e-10 1.03516e-14 0 -2.65135e-16 5.07297e-16 0 0 0 0)
(1.15128e-06 -1.34761e-13 0 1.84059e-14 5.62337e-14 0 0 0 0)
(0.000286399 -4.31957e-14 0 -3.52337e-13 -2.48882e-13 0 0 0 0)
(0.0109029 3.22175e-13 0 2.36492e-13 5.61502e-13 0 0 0 0)
(0.099797 -1.62831e-14 0 2.22605e-13 -2.66111e-13 0 0 0 0)
(0.34993 -3.16139e-13 0 -2.36218e-13 2.78303e-13 0 0 0 0)
(0.669986 2.28616e-15 0 -1.18277e-13 7.17879e-14 0 0 0 0)
(0.803774 8.65974e-14 0 -5.77249e-14 3.78208e-14 0 0 0 0)
(2.64086 -2.04318e-14 0 -5.17739e-14 1.81307e-13 0 0 0 0)
(2.24632 -2.48019e-14 0 2.38041e-15 1.13754e-13 0 0 0 0)
(2.26997 0.125009 0 -0.483113 0.069684 0 0 0 0)
(2.68131 0.0389464 0 -0.236776 -0.363988 0 0 0 0)
(0.800721 -0.130763 0 -0.174623 -0.152905 0 0 0 0)
(0.62849 -0.0730648 0 -0.0912009 -0.0481723 0 0 0 0)
(0.31898 -0.0352226 0 -0.0253408 -0.00686882 0 0 0 0)
(0.0891929 -0.00750692 0 -0.00277637 -0.000337166 0 0 0 0)
(0.00956333 -0.000662439 0 -7.37876e-05 -2.03999e-06 0 0 0 0)
(0.00024628 -1.43647e-05 0 -3.03627e-07 2.78326e-09 0 0 0 0)
(9.73226e-07 -4.66536e-08 0 -1.31282e-10 3.14342e-12 0 0 0 0)
(4.06332e-10 -1.60147e-11 0 -5.55942e-15 -7.43217e-16 0 0 0 0)
(1.87988e-14 -3.56576e-16 0 -3.62838e-20 2.2102e-16 0 0 0 0)
(-9.60482e-17 1.05711e-30 0 -1.80769e-16 -1.74241e-16 0 0 0 0)
(-3.4007e-16 2.35522e-16 0 3.48883e-16 -1.1143e-16 0 0 0 0)
(1.31349e-16 2.11464e-16 0 3.97736e-16 7.00379e-16 0 0 0 0)
(-7.21861e-17 5.56897e-16 0 -3.45096e-16 -2.3127e-17 0 0 0 0)
(-1.05029e-16 -4.68512e-17 0 -2.5335e-16 -1.99733e-17 0 0 0 0)
(1.51311e-17 -6.24514e-16 0 -2.74888e-16 4.79622e-16 0 0 0 0)
(6.92641e-17 -1.21307e-16 0 -2.33229e-16 1.7608e-16 0 0 0 0)
(1.32323e-16 4.29005e-16 0 -1.93067e-18 3.03542e-16 0 0 0 0)
(3.30368e-18 -5.065e-19 0 -8.86642e-18 1.498e-16 0 0 0 0)
(2.33691e-18 -4.29005e-16 0 3.10624e-17 4.12935e-32 0 0 0 0)
(-1.72242e-18 -2.14503e-16 0 5.45309e-20 1.93426e-16 0 0 0 0)
(-1.94316e-16 -1.22826e-16 0 6.0638e-18 1.00997e-15 0 0 0 0)
(1.53041e-16 3.79875e-18 0 4.40324e-17 7.02219e-16 0 0 0 0)
(5.49473e-17 1.22826e-16 0 -8.96244e-17 2.99074e-16 0 0 0 0)
(5.47527e-17 -5.5715e-18 0 6.14035e-17 -3.14579e-16 0 0 0 0)
(1.19226e-16 5.61592e-30 0 2.25651e-17 5.41381e-16 0 0 0 0)
(-1.39009e-16 -1.04339e-16 0 -9.87402e-17 7.57671e-16 0 0 0 0)
(4.65425e-16 1.78388e-30 0 -2.27932e-17 6.99328e-16 0 0 0 0)
(2.16728e-14 1.16242e-16 0 -1.38971e-16 2.2102e-16 0 0 0 0)
(4.87333e-10 -9.01646e-15 0 -1.97194e-16 5.7686e-16 0 0 0 0)
(1.15128e-06 -2.11745e-13 0 -2.58002e-14 -4.11973e-14 0 0 0 0)
(0.000286399 1.40005e-13 0 -3.38757e-13 1.13004e-13 0 0 0 0)
(0.0109029 1.45214e-13 0 6.05557e-13 2.09961e-13 0 0 0 0)
(0.099797 1.10443e-14 0 -2.25874e-13 -4.21654e-13 0 0 0 0)
(0.34993 4.52097e-14 0 1.65996e-13 3.39596e-13 0 0 0 0)
(0.669986 -1.65009e-13 0 -1.42229e-13 1.97795e-13 0 0 0 0)
(0.803774 3.90462e-14 0 -4.87984e-14 9.06902e-14 0 0 0 0)
(2.64086 4.20657e-14 0 4.46327e-14 1.03832e-13 0 0 0 0)
(2.24632 1.52607e-15 0 9.52164e-15 1.74832e-13 0 0 0 0)
(2.25198 0.0253197 0 -0.0122545 -0.0413572 0 0 0 0)
(2.65077 0.00880521 0 -0.0364308 -0.170082 0 0 0 0)
(0.80514 -0.0259102 0 -0.0536052 -0.0820012 0 0 0 0)
(0.663654 -0.0166381 0 -0.0331698 -0.036394 0 0 0 0)
(0.344773 -0.00919206 0 -0.0109158 -0.00760991 0 0 0 0)
(0.0978308 -0.00214756 0 -0.00137345 -0.000669583 0 0 0 0)
(0.0106426 -0.000202491 0 -4.11444e-05 -1.45125e-05 0 0 0 0)
(0.000278448 -4.64586e-06 0 -1.82723e-07 -4.70851e-08 0 0 0 0)
(1.11555e-06 -1.62874e-08 0 -8.31145e-11 -1.61489e-11 0 0 0 0)
(4.70938e-10 -5.93327e-12 0 -3.15767e-15 -1.95791e-16 0 0 0 0)
(2.09926e-14 -1.03326e-16 0 -6.79959e-19 0 0 0 0 0)
(2.46137e-16 5.54617e-17 0 -2.45423e-16 1.74241e-16 0 0 0 0)
(3.4212e-16 4.89026e-16 0 4.19701e-16 -2.97234e-16 0 0 0 0)
(-5.5885e-16 8.5092e-17 0 1.22857e-16 5.28241e-17 0 0 0 0)
(-6.4113e-16 -3.75063e-16 0 -3.45373e-16 -2.19443e-16 0 0 0 0)
(4.23936e-17 3.21627e-16 0 1.05702e-16 -9.84473e-16 0 0 0 0)
(5.36457e-17 5.3689e-17 0 8.32092e-17 -7.36384e-16 0 0 0 0)
(2.68403e-16 -4.62181e-16 0 1.98027e-16 -1.73978e-16 0 0 0 0)
(2.34766e-16 -1.17255e-16 0 -2.67283e-17 -4.49399e-17 0 0 0 0)
(3.23903e-17 6.52438e-31 0 3.4742e-17 -4.45194e-16 0 0 0 0)
(8.94352e-18 -2.07665e-17 0 1.8559e-16 -4.44143e-17 0 0 0 0)
(-2.46164e-17 3.99628e-16 0 1.66293e-18 9.91045e-32 0 0 0 0)
(-5.6058e-17 2.70977e-17 0 1.92521e-17 2.10245e-16 0 0 0 0)
(-9.01901e-19 -2.31724e-16 0 1.11929e-17 1.27461e-16 0 0 0 0)
(4.72184e-17 -1.70184e-16 0 -1.58255e-16 1.74241e-16 0 0 0 0)
(1.20874e-16 6.6858e-17 0 1.14454e-16 3.51898e-16 0 0 0 0)
(-8.93975e-17 1.13456e-16 0 -3.42813e-17 1.80022e-16 0 0 0 0)
(-1.25795e-16 -2.34763e-16 0 -1.57786e-16 0 0 0 0 0)
(1.80082e-16 0 0 -7.25383e-17 2.88299e-16 0 0 0 0)
(2.14364e-14 0 0 -4.39051e-16 0 0 0 0 0)
(4.87284e-10 -2.95606e-14 0 -2.28176e-16 1.67671e-16 0 0 0 0)
(1.15128e-06 -2.64226e-14 0 -6.84016e-14 1.20749e-14 0 0 0 0)
(0.000286399 1.9883e-13 0 1.41256e-15 3.057e-13 0 0 0 0)
(0.0109029 -1.9304e-13 0 3.81662e-13 -7.86224e-14 0 0 0 0)
(0.099797 1.08638e-13 0 -4.79281e-13 -1.35386e-13 0 0 0 0)
(0.34993 2.80784e-13 0 4.24048e-13 6.19875e-14 0 0 0 0)
(0.669986 -2.37569e-13 0 -1.23186e-13 8.30764e-14 0 0 0 0)
(0.803774 -3.94831e-15 0 -1.84482e-14 -8.26689e-15 0 0 0 0)
(2.64086 6.065e-14 0 4.67155e-14 4.38001e-14 0 0 0 0)
(2.24632 4.36158e-14 0 -3.57061e-15 1.96874e-14 0 0 0 0)
(2.24667 0.000964505 0 0.00166132 -0.0102513 0 0 0 0)
(2.64146 -0.000219564 0 -0.00419938 -0.0365759 0 0 0 0)
(0.803863 -0.00193627 0 -0.00861116 -0.019468 0 0 0 0)
(0.669627 -0.00137866 0 -0.00561726 -0.0097326 0 0 0 0)
(0.349621 -0.000797303 0 -0.00204683 -0.00222976 0 0 0 0)
(0.0996721 -0.000187717 0 -0.00026992 -0.000209837 0 0 0 0)
(0.0108867 -1.72496e-05 0 -8.24529e-06 -4.81496e-06 0 0 0 0)
(0.000285928 -3.79927e-07 0 -3.70594e-08 -1.68828e-08 0 0 0 0)
(1.1493e-06 -1.28074e-09 0 -1.69875e-11 -6.06855e-12 0 0 0 0)
(4.86424e-10 -4.53096e-13 0 -8.79207e-16 -1.07225e-16 0 0 0 0)
(2.16052e-14 0 0 -2.42465e-18 1.74241e-16 0 0 0 0)
(3.09046e-16 -2.86426e-16 0 9.47811e-17 0 0 0 0 0)
(1.48189e-17 1.18521e-16 0 2.96397e-16 -1.13007e-16 0 0 0 0)
(-6.05905e-16 2.86426e-16 0 -2.45858e-16 -5.07479e-16 0 0 0 0)
(-8.87182e-17 -4.42681e-16 0 -1.76107e-16 -2.34949e-16 0 0 0 0)
(3.07968e-16 -5.44994e-16 0 1.68831e-16 -5.68976e-16 0 0 0 0)
(1.04099e-16 1.56508e-16 0 3.12714e-16 -6.05769e-16 0 0 0 0)
(-3.66757e-17 5.44994e-16 0 3.67969e-16 -1.73978e-16 0 0 0 0)
(-2.50246e-17 1.67651e-16 0 -1.07246e-16 0 0 0 0 0)
(2.07901e-16 0 0 1.42643e-16 -5.22985e-17 0 0 0 0)
(-2.95393e-17 0 0 3.42293e-16 0 0 0 0 0)
(-1.62012e-16 3.08965e-17 0 1.30028e-17 -3.07484e-17 0 0 0 0)
(-1.85133e-16 7.96965e-31 0 4.62721e-17 -7.22981e-16 0 0 0 0)
(-1.80114e-17 -3.08965e-17 0 -2.50591e-16 -6.30736e-18 0 0 0 0)
(1.54453e-16 3.39102e-16 0 -2.38196e-17 -2.41782e-17 0 0 0 0)
(1.74218e-16 6.54089e-30 0 -1.24679e-16 6.28108e-16 0 0 0 0)
(-1.43114e-16 -3.39102e-16 0 1.07e-17 -9.46104e-17 0 0 0 0)
(-1.75875e-16 0 0 -3.31043e-17 0 0 0 0 0)
(1.94387e-16 0 0 -1.6794e-25 0 0 0 0 0)
(2.15228e-14 0 0 -5.03778e-18 0 0 0 0 0)
(4.87267e-10 2.61936e-15 0 1.0647e-16 0 0 0 0 0)
(1.15128e-06 8.2677e-14 0 7.64078e-15 4.72213e-14 0 0 0 0)
(0.000286399 5.26056e-14 0 1.22896e-13 3.04567e-15 0 0 0 0)
(0.0109029 -2.79833e-13 0 -2.16041e-14 -2.76802e-13 0 0 0 0)
(0.099797 1.46541e-13 0 -3.41407e-13 1.92143e-13 0 0 0 0)
(0.34993 2.55728e-13 0 4.26019e-13 -2.06279e-13 0 0 0 0)
(0.669986 -2.32709e-13 0 -8.18266e-14 -3.71124e-14 0 0 0 0)
(0.803774 1.19804e-15 0 -2.23163e-14 -1.83797e-13 0 0 0 0)
(2.64086 6.90035e-14 0 -9.6109e-14 2.10472e-14 0 0 0 0)
(2.24632 -2.17098e-14 0 0 -8.84992e-14 0 0 0 0)
(2.24633 -4.76637e-05 0 0.000118074 -0.00185157 0 0 0 0)
(2.64087 -7.63434e-05 0 -0.000245914 -0.0028542 0 0 0 0)
(0.803773 -4.30576e-05 0 -0.000502745 -0.00162579 0 0 0 0)
(0.66998 -2.67257e-05 0 -0.000338431 -0.000845243 0 0 0 0)
(0.349926 -1.55799e-05 0 -0.000130093 -0.000195185 0 0 0 0)
(0.0997952 -3.5265e-06 0 -1.68644e-05 -1.79011e-05 0 0 0 0)
(0.0109027 -3.00399e-07 0 -4.88211e-07 -3.94251e-07 0 0 0 0)
(0.000286393 -6.0021e-09 0 -2.05504e-09 -1.32903e-09 0 0 0 0)
(1.15126e-06 -1.8457e-11 0 -1.02364e-12 -4.56149e-13 0 0 0 0)
(4.87308e-10 -8.52277e-14 0 7.98484e-17 0 0 0 0 0)
(2.19312e-14 2.14726e-30 0 -6.87656e-18 -1.74241e-16 0 0 0 0)
(5.34093e-16 -2.2134e-16 0 -2.86803e-17 -9.645e-17 0 0 0 0)
(1.38678e-17 1.73433e-31 0 -1.16366e-16 4.83564e-16 0 0 0 0)
(-1.01417e-15 -3.2416e-17 0 2.19002e-16 -1.72401e-16 0 0 0 0)
(-2.4152e-16 -4.34324e-16 0 2.08931e-16 3.11689e-16 0 0 0 0)
(5.1344e-16 -3.57082e-17 0 9.12639e-18 4.85404e-16 0 0 0 0)
(2.45542e-16 4.34324e-16 0 -1.91442e-16 5.6556e-16 0 0 0 0)
(-1.36286e-16 1.2156e-16 0 1.2198e-16 1.73978e-16 0 0 0 0)
(1.76339e-17 0 0 -1.53213e-16 0 0 0 0 0)
(4.65583e-16 0 0 1.54744e-16 -1.74241e-16 0 0 0 0)
(-1.15983e-16 0 0 -3.62275e-16 0 0 0 0 0)
(-3.09873e-16 -2.97062e-16 0 -8.63548e-17 -1.74241e-16 0 0 0 0)