/*--------------------------------*- C++ -*----------------------------------*\
| =========                 |                                                 |
| \\      /  F ield         | OpenFOAM: The Open Source CFD Toolbox           |
|  \\    /   O peration     | Version:  v1912                                 |
|   \\  /    A nd           | Website:  www.openfoam.com                      |
|    \\/     M anipulation  |                                                 |
\*---------------------------------------------------------------------------*/
FoamFile
{
    version     2.0;
    format      ascii;
    class       volVectorField;
    location    "3.58";
    object      grad(rho);
}
// * * * * * * * * * * * * * * * * * * * * * * * * * * * * * * * * * * * * * //

dimensions      [1 -4 0 0 0 0 0];


internalField   nonuniform List<vector> 
1900
(
(94561.5 0.679297 0)
(-68952.5 0.907719 0)
(-8726.17 0.164141 0)
(-479.683 -7.06133 0)
(-209.911 -4.3275 0)
(-346.345 9.21367 0)
(-780.949 -19.7258 0)
(-1148.66 -55.5217 0)
(-1096.59 -217.07 0)
(-2012.03 -579.28 0)
(94563 1.55217 0)
(-68953 1.7482 0)
(-8734.14 0.482365 0)
(-484.175 -13.861 0)
(-193.636 -10.7335 0)
(-361.743 -0.388403 0)
(-845.684 -51.2052 0)
(-1346 -57.045 0)
(-1620.34 -167.404 0)
(-2006.03 -538.7 0)
(94564.8 -7.49623e-09 0)
(-68953.5 -8.45546e-09 0)
(-8741.78 1.26121e-09 0)
(-490.899 1.79412e-09 0)
(-196.439 5.32907e-10 0)
(-386.816 -3.90799e-10 0)
(-837.606 -1.66978e-09 0)
(-1264.85 -3.19744e-09 0)
(-1578.24 -7.81597e-10 0)
(-1967.36 -1.59872e-10 0)
(94563 -1.55217 0)
(-68953 -1.7482 0)
(-8734.14 -0.482365 0)
(-484.175 13.861 0)
(-193.636 10.7335 0)
(-361.743 0.388403 0)
(-845.684 51.2052 0)
(-1346 57.045 0)
(-1620.34 167.404 0)
(-2006.03 538.7 0)
(94561.5 -0.679297 0)
(-68952.5 -0.907719 0)
(-8726.17 -0.164141 0)
(-479.683 7.06133 0)
(-209.911 4.3275 0)
(-346.345 -9.21367 0)
(-780.949 19.7258 0)
(-1148.66 55.5217 0)
(-1096.59 217.07 0)
(-2012.03 579.28 0)
(-1893.88 -312.954 1.47505e-11)
(-572.287 -552.521 -1.77124e-11)
(-526.801 -992.605 -2.23417e-11)
(-9022.28 -165.596 0)
(-6414.67 9946.52 -8.82811e-11)
(-1723.94 -227.767 1.4694e-11)
(-1085.56 -510.987 1.77124e-11)
(-81.8879 -755.924 2.23417e-11)
(-3853.65 -71.4225 0)
(-3966.69 8135.96 0)
(-1883.59 1.06195e-09 0)
(-1224.28 2.10358e-09 0)
(-463.172 -2.66454e-09 0)
(-4927.16 -3.29703e-09 0)
(-312.267 -1.15252e-08 0)
(-1723.94 227.767 1.4694e-11)
(-1085.56 510.987 1.77124e-11)
(-81.8879 755.924 2.23417e-11)
(-3853.65 71.4225 0)
(-3966.69 -8135.96 0)
(-1893.88 312.954 -4.41385e-11)
(-572.287 552.521 -1.77124e-11)
(-526.801 992.605 -2.23417e-11)
(-9022.28 165.596 -6.08974e-11)
(-6414.67 -9946.52 8.82811e-11)
(6930.16 -3137.49 4.22921e-11)
(-3065.16 194.869 -3.44894e-11)
(-1073.13 822.406 0)
(-3610 1044.93 2.60586e-11)
(-11158.8 -4330.01 -1.12887e-11)
(3695.8 -3065.09 -2.10988e-11)
(-2051.66 343.751 1.72477e-11)
(-738.559 841.258 0)
(-5828.19 -40.379 -1.6306e-11)
(-14324.5 -7550.42 2.73272e-12)
(4551.63 -1.47133e-08 0)
(-2075.93 -1.12351e-08 0)
(-1262.81 -4.408e-09 0)
(-7308.87 -1.55576e-08 6.5219e-12)
(-15216.1 -4.46686e-09 -5.46544e-12)
(3695.8 3065.09 -2.10988e-11)
(-2051.66 -343.751 1.72477e-11)
(-738.559 -841.258 0)
(-5828.19 40.379 -1.6306e-11)
(-14324.5 7550.42 2.73272e-12)
(6930.16 3137.49 2.10988e-11)
(-3065.16 -194.869 -5.86881e-15)
(-1073.13 -822.406 0)
(-3610 -1044.93 3.14699e-14)
(-11158.8 4330.01 1.12887e-11)
(-29288 -35890.7 0)
(-20983.7 3930.02 0)
(713.635 3657.4 0)
(-270.176 2069.31 0)
(-1890.72 1182.27 0)
(-1950.6 540.328 0)
(-1246.75 227.693 0)
(-282.552 98.3054 0)
(56.2738 74.5647 0)
(92.646 62.4708 0)
(121.085 46.5113 0)
(74.9925 34.5899 0)
(24.041 29.7431 0)
(-22.0301 26.9581 0)
(-47.1748 25.0286 0)
(-54.4599 23.4318 0)
(-50.4569 22.1657 0)
(-42.239 21.1468 0)
(-43.1676 20.233 0)
(-50.396 19.7153 0)
(-57.9055 19.4447 0)
(-76.0395 19.1834 0)
(-97.5981 19.0853 0)
(-125.609 19.0753 0)
(-171.42 19.2278 0)
(-235.335 19.5533 0)
(-321.071 20.1022 0)
(-429.512 20.8595 0)
(-555.316 21.9394 0)
(-686.243 23.0314 0)
(-800.081 24.0674 0)
(-875.551 24.0413 0)
(-876.019 22.6562 0)
(-797.187 21.6873 0)
(-629.032 18.0808 0)
(-488.366 26.333 0)
(-352.37 16.2876 0)
(3388 45.0129 0)
(115822 133.344 0)
(-134576 -5825.05 0)
(-27912.6 -10289.3 0)
(-18505.8 6255.71 0)
(560.104 3477.72 0)
(-674.28 1209.41 0)
(-2029.39 647.965 0)
(-2056 265.607 0)
(-1289.45 93.9837 0)
(-296.579 44.1252 0)
(53.1458 26.407 0)
(91.8582 25.7946 0)
(118.612 17.3875 0)
(73.7454 12.1588 0)
(23.573 9.86795 0)
(-22.2319 8.79004 0)
(-47.3043 8.10676 0)
(-54.5561 7.62961 0)
(-50.5367 7.2968 0)
(-42.3243 7.04431 0)
(-43.243 6.77756 0)
(-50.4435 6.62909 0)
(-57.9618 6.53435 0)
(-76.1119 6.3764 0)
(-97.6759 6.24028 0)
(-125.691 6.11198 0)
(-171.499 6.04484 0)
(-235.402 6.06663 0)
(-321.114 6.25717 0)
(-429.51 6.67722 0)
(-555.268 7.47944 0)
(-686.156 8.66775 0)
(-800.034 10.3464 0)
(-875.642 12.2777 0)
(-876.089 14.4362 0)
(-797.394 17.8888 0)
(-628.282 21.8688 0)
(-488.403 31.9151 0)
(-350.163 35.5737 0)
(3393.34 57.5398 0)
(115821 62.9271 0)
(-134558 5688.15 0)
(-25578.5 8.39732e-09 0)
(-16978.7 1.05935e-08 0)
(-754.379 1.30804e-08 0)
(-1093.38 -3.00366e-09 0)
(-2165.28 -1.01737e-08 0)
(-2111.76 1.82803e-08 0)
(-1311.18 7.86119e-08 0)
(-302.211 1.45887e-07 0)
(50.9413 -4.0178e-08 0)
(90.0221 1.15722e-07 0)
(117.118 4.05655e-08 0)
(72.805 -7.75783e-08 0)
(23.061 -1.59775e-07 0)
(-22.5425 -1.38039e-07 0)
(-47.5124 -2.46752e-08 0)
(-54.6955 1.01866e-07 0)
(-50.6272 1.8374e-07 0)
(-42.3901 1.42109e-07 0)
(-43.2884 -2.35448e-08 0)
(-50.4667 -2.08092e-07 0)
(-57.979 -1.72856e-07 0)
(-76.1251 5.65527e-08 0)
(-97.675 6.54345e-08 0)
(-125.666 -2.25759e-08 0)
(-171.433 -2.46752e-08 0)
(-235.273 -3.6819e-08 0)
(-320.893 -5.10299e-08 0)
(-429.156 -7.4607e-09 0)
(-554.737 6.29476e-08 0)
(-685.409 1.44482e-07 0)
(-799.031 1.30772e-07 0)
(-874.361 7.34604e-08 0)
(-874.386 -1.02641e-07 0)
(-795.025 -2.48512e-07 0)
(-624.952 -3.06987e-08 0)
(-484.379 -2.28504e-07 0)
(-344.915 -3.38671e-07 0)
(3395.96 -7.9064e-07 0)
(117460 -2.53441e-06 0)
(-136312 -9.22181e-06 0)
(-27912.6 10289.3 0)
(-18505.8 -6255.71 0)
(560.104 -3477.72 0)
(-674.28 -1209.41 0)
(-2029.39 -647.965 0)
(-2056 -265.607 0)
(-1289.45 -93.9837 0)
(-296.579 -44.1252 0)
(53.1458 -26.407 0)
(91.8582 -25.7946 0)
(118.612 -17.3875 0)
(73.7454 -12.1588 0)
(23.573 -9.86795 0)
(-22.2319 -8.79004 0)
(-47.3043 -8.10676 0)
(-54.5561 -7.62961 0)
(-50.5367 -7.2968 0)
(-42.3243 -7.04431 0)
(-43.243 -6.77756 0)
(-50.4435 -6.62909 0)
(-57.9618 -6.53435 0)
(-76.1119 -6.3764 0)
(-97.6759 -6.24028 0)
(-125.691 -6.11198 0)
(-171.499 -6.04484 0)
(-235.402 -6.06663 0)
(-321.114 -6.25718 0)
(-429.51 -6.67722 0)
(-555.268 -7.47944 0)
(-686.156 -8.66775 0)
(-800.034 -10.3464 0)
(-875.642 -12.2777 0)
(-876.089 -14.4362 0)
(-797.394 -17.8888 0)
(-628.282 -21.8688 0)
(-488.403 -31.9151 0)
(-350.163 -35.5737 0)
(3393.34 -57.5398 0)
(115821 -62.9271 0)
(-134558 -5688.15 0)
(-29288 35890.7 0)
(-20983.7 -3930.02 0)
(713.635 -3657.4 0)
(-270.176 -2069.31 0)
(-1890.72 -1182.27 0)
(-1950.6 -540.328 0)
(-1246.75 -227.693 0)
(-282.552 -98.3054 0)
(56.2738 -74.5647 0)
(92.646 -62.4708 0)
(121.085 -46.5113 0)
(74.9925 -34.5899 0)
(24.041 -29.7431 0)
(-22.0301 -26.9581 0)
(-47.1748 -25.0286 0)
(-54.4599 -23.4318 0)
(-50.4569 -22.1657 0)
(-42.239 -21.1468 0)
(-43.1676 -20.233 0)
(-50.396 -19.7153 0)
(-57.9055 -19.4447 0)
(-76.0395 -19.1834 0)
(-97.5981 -19.0853 0)
(-125.609 -19.0753 0)
(-171.42 -19.2278 0)
(-235.335 -19.5533 0)
(-321.071 -20.1022 0)
(-429.512 -20.8595 0)
(-555.316 -21.9394 0)
(-686.243 -23.0314 0)
(-800.081 -24.0674 0)
(-875.551 -24.0413 0)
(-876.019 -22.6562 0)
(-797.187 -21.6873 0)
(-629.032 -18.0808 0)
(-488.366 -26.333 0)
(-352.37 -16.2876 0)
(3388 -45.0129 0)
(115822 -133.344 0)
(-134576 5825.05 0)
(68624 47629.7 0)
(-40448.1 -5507.41 0)
(1549.75 -3383.72 0)
(411.058 -2969.78 0)
(-1230.64 -1772.47 0)
(-1579.09 -967.719 0)
(-1061.56 -425.315 0)
(-216.744 -196.326 0)
(72.0072 -167.391 0)
(108.545 -124.781 0)
(133.242 -94.1163 0)
(82.8218 -72.0359 0)
(27.8192 -62.2459 0)
(-19.5079 -56.091 0)
(-45.2421 -51.788 0)
(-52.8714 -48.116 0)
(-49.1957 -45.2028 0)
(-41.2106 -42.8962 0)
(-42.4322 -40.9201 0)
(-50.0041 -39.7841 0)
(-57.6933 -39.2422 0)
(-75.9701 -38.8562 0)
(-97.698 -38.8718 0)
(-125.875 -39.145 0)
(-171.89 -39.835 0)
(-236.028 -40.9452 0)
(-321.983 -42.6161 0)
(-430.659 -44.8486 0)
(-556.574 -47.697 0)
(-687.391 -50.8847 0)
(-800.613 -53.9565 0)
(-874.863 -55.7521 0)
(-874.693 -53.9499 0)
(-794.764 -53.2191 0)
(-630.329 -49.3734 0)
(-487.32 -60.4353 0)
(-359.328 -54.613 0)
(3326.09 -87.2755 0)
(119502 -412.123 0)
(-138400 704.954 0)
(80438.7 27532.8 0)
(-59704.5 -3776.49 0)
(2710.64 -2721.31 0)
(917.182 -2656.68 0)
(-315.416 -1899.52 0)
(-851.647 -1245.66 0)
(-602.719 -584.14 0)
(-69.2949 -326.165 0)
(116.78 -271.657 0)
(154.731 -189.113 0)
(165.393 -148.055 0)
(101.506 -117.971 0)
(37.38 -102.863 0)
(-13.305 -92.8798 0)
(-40.5262 -85.9266 0)
(-48.966 -79.925 0)
(-46.1033 -75.261 0)
(-38.6636 -71.6276 0)
(-40.563 -68.51 0)
(-48.9892 -66.732 0)
(-57.1251 -65.9168 0)
(-75.7197 -65.3131 0)
(-97.8228 -65.3456 0)
(-126.395 -65.8053 0)
(-172.902 -66.8579 0)
(-237.643 -68.754 0)
(-324.343 -71.3563 0)
(-433.793 -75.0311 0)
(-560.458 -79.8805 0)
(-691.659 -85.3379 0)
(-804.487 -90.4413 0)
(-875.914 -94.8893 0)
(-874.289 -92.9527 0)
(-794.076 -93.2876 0)
(-635.291 -91.8575 0)
(-493.976 -105.865 0)
(-374.503 -110.155 0)
(3076.69 -135.346 0)
(114612 -732.998 0)
(-132933 -7110.38 0)
(87595.3 18140.3 0)
(-69602.1 -1331.51 0)
(2628.84 -1914.09 0)
(1202.96 -2030.44 0)
(129.081 -1683.2 0)
(-311.54 -1212.43 0)
(-175.503 -689.287 0)
(84.3756 -454.049 0)
(204.076 -367.724 0)
(227.652 -259.366 0)
(201.796 -212.172 0)
(126.37 -176.189 0)
(51.9985 -155.17 0)
(-3.18713 -140.443 0)
(-32.7584 -129.612 0)
(-42.5937 -120.73 0)
(-41.2 -113.737 0)
(-34.705 -108.526 0)
(-37.7146 -104.049 0)
(-47.5052 -101.554 0)
(-56.3261 -100.492 0)
(-75.4197 -99.6636 0)
(-98.1723 -99.8276 0)
(-127.333 -100.584 0)
(-174.732 -102.405 0)
(-240.363 -105.017 0)
(-328.032 -109.338 0)
(-438.873 -114.701 0)
(-566.506 -121.239 0)
(-697.568 -129.776 0)
(-809.817 -136.642 0)
(-877.283 -142.943 0)
(-873.15 -140.415 0)
(-793.708 -141.786 0)
(-642.449 -143.893 0)
(-504.952 -161.384 0)
(-387.737 -170.622 0)
(2725.89 -188.2 0)
(112781 -1023.6 0)
(-130627 -5946.65 0)
(96350.2 5513.13 0)
(-79029.7 -676.507 0)
(2037.12 -1415.27 0)
(1139.68 -1658.01 0)
(472.851 -1476.2 0)
(106.119 -1085.12 0)
(128.081 -745.294 0)
(240.574 -540.579 0)
(304.384 -434.671 0)
(304.626 -335.057 0)
(245.545 -279.713 0)
(156.435 -239.498 0)
(71.8263 -213.246 0)
(11.3231 -193.255 0)
(-21.5307 -178.661 0)
(-33.6674 -166.317 0)
(-34.3427 -156.91 0)
(-29.3279 -150.12 0)
(-33.8448 -144.268 0)
(-45.5618 -141.084 0)
(-55.3032 -139.869 0)
(-75.0796 -138.825 0)
(-98.7101 -139.156 0)
(-128.879 -140.471 0)
(-177.174 -142.808 0)
(-244.324 -147.344 0)
(-333.675 -152.154 0)
(-445.261 -160.321 0)
(-574.984 -169.495 0)
(-706.501 -180.455 0)
(-817.175 -188.875 0)
(-879.55 -198.943 0)
(-873.174 -197.821 0)
(-797.428 -200.417 0)
(-654.176 -207.953 0)
(-519.732 -228.373 0)
(-400.344 -239.883 0)
(2254.74 -254.404 0)
(109063 -1357.84 0)
(-126163 -8972.81 0)
(92294.6 -4718.21 0)
(-76278.6 -750.109 0)
(1683.02 -1350.2 0)
(1144.24 -1388.09 0)
(681.143 -1279.64 0)
(392.79 -1012.97 0)
(349.237 -779.608 0)
(383.704 -613.056 0)
(402.124 -503.491 0)
(376.975 -416.521 0)
(293.88 -357.388 0)
(190.42 -314.315 0)
(96.5603 -283.033 0)
(30.1396 -259.338 0)
(-6.80061 -238.762 0)
(-21.6333 -223.448 0)
(-25.592 -211.175 0)
(-22.5222 -202.816 0)
(-29.0067 -195.571 0)
(-43.2663 -191.771 0)
(-54.1499 -190.535 0)
(-74.7328 -189.304 0)
(-99.758 -190.02 0)
(-130.852 -191.946 0)
(-181.355 -195.887 0)
(-249.369 -200.588 0)
(-340.537 -209.977 0)
(-455.583 -217.859 0)
(-585.909 -231.037 0)
(-716.243 -247.453 0)
(-827.632 -256.321 0)
(-885.904 -270.728 0)
(-874.57 -271.826 0)
(-803.472 -280.756 0)
(-669.389 -292.645 0)
(-535.722 -321.576 0)
(-412.821 -335.709 0)
(1648.59 -356.104 0)
(104379 -1667.44 0)
(-120505 -11454.5 0)
(90698.1 -2457.5 0)
(-75784.2 -763.258 0)
(1422.34 -1217.85 0)
(1207.67 -1199.83 0)
(834.331 -1122.31 0)
(587.972 -966.619 0)
(513.451 -811.636 0)
(506.651 -684.891 0)
(493.772 -586.74 0)
(445.417 -510.619 0)
(344.035 -452.647 0)
(228.086 -408.171 0)
(124.803 -374.292 0)
(53.9844 -343.155 0)
(13.0545 -318.617 0)
(-7.08395 -298.196 0)
(-14.461 -283.173 0)
(-14.2904 -273.13 0)
(-23.2016 -264.47 0)
(-40.7097 -260.194 0)
(-52.9258 -258.983 0)
(-74.5829 -257.636 0)
(-101.256 -258.983 0)
(-134.532 -261.986 0)
(-185.501 -267.284 0)
(-257.902 -275.282 0)
(-350.319 -284.229 0)
(-465.556 -299.221 0)
(-603.501 -312.873 0)
(-730.866 -332.777 0)
(-839.604 -342.98 0)
(-894.491 -362.851 0)
(-882.837 -361.665 0)
(-817.49 -372.871 0)
(-693.512 -385.469 0)
(-561.23 -420.707 0)
(-433.616 -434.601 0)
(971.433 -454.065 0)
(98367.7 -1771.72 0)
(-113273 -13449.6 0)
(89022.2 -4588.13 0)
(-75084 -812.108 0)
(1262.33 -1121.09 0)
(1236.3 -1161.76 0)
(905.874 -1104.16 0)
(692.165 -1010.62 0)
(620.719 -898.236 0)
(600.422 -792.681 0)
(570.059 -706.756 0)
(506.192 -638.293 0)
(392.603 -581.082 0)
(265.925 -533.008 0)
(159.212 -491.805 0)
(83.7904 -454.587 0)
(36.524 -424.287 0)
(12.5215 -398.48 0)
(-1.43732 -380.506 0)
(-4.49933 -368.202 0)
(-16.5414 -358.544 0)
(-37.9789 -354.047 0)
(-51.6847 -352.648 0)
(-74.7322 -351.434 0)
(-103.95 -353.649 0)
(-138.852 -358.467 0)
(-194.167 -365.004 0)
(-265.698 -376.347 0)
(-363.605 -388.476 0)
(-483.186 -409.137 0)
(-618.245 -424.53 0)
(-745.255 -458.342 0)
(-856.612 -469.203 0)
(-903.909 -498.243 0)
(-884.226 -507.365 0)
(-826.411 -522.88 0)
(-715.485 -547.178 0)
(-583.067 -591.258 0)
(-444.966 -630.605 0)
(360.091 -638.85 0)
(91856.4 -1669.49 0)
(-105516 -14798.3 0)
(85213.8 -7266.11 0)
(-72443.2 -894.438 0)
(1085.4 -1083.22 0)
(1223.98 -1174.04 0)
(979.971 -1128.72 0)
(786.411 -1056.08 0)
(723.468 -963.626 0)
(691.167 -879.908 0)
(642.546 -816.966 0)
(566.521 -766.119 0)
(445.492 -716.919 0)
(314.117 -675.137 0)
(200.373 -629.965 0)
(119.047 -592.901 0)
(67.1212 -555.978 0)
(35.1055 -527.746 0)
(14.7156 -505.895 0)
(6.87274 -491.5 0)
(-9.56164 -481.066 0)
(-35.0281 -476.243 0)
(-50.4077 -474.626 0)
(-75.548 -473.935 0)
(-108.033 -477.413 0)
(-145.474 -483.533 0)
(-202.731 -493.384 0)
(-280.519 -504.465 0)
(-381.917 -523.665 0)
(-500.299 -540.115 0)
(-650.917 -558.611 0)
(-773.914 -593.309 0)
(-878.053 -610.993 0)
(-931.266 -637.652 0)
(-906.578 -653.609 0)
(-855.855 -671.29 0)
(-759.403 -707.797 0)
(-641.623 -757.476 0)
(-479.478 -819.35 0)
(-29.6743 -832.869 0)
(84723.2 -1405.5 0)
(-97021.5 -15744.7 0)
(80771.1 -8686.32 0)
(-69125.9 -946.318 0)
(992.896 -1052.83 0)
(1192.46 -1165.34 0)
(1019.54 -1189.58 0)
(851.255 -1150.69 0)
(790.49 -1077.39 0)
(741.749 -1023.91 0)
(679.71 -980.404 0)
(602.601 -944.291 0)
(480.276 -898.398 0)
(349.718 -850.009 0)
(238.458 -799.687 0)
(155.087 -751.074 0)
(99.31 -709.056 0)
(60.7831 -676.501 0)
(33.4911 -651.839 0)
(19.427 -635.942 0)
(-1.83992 -624.821 0)
(-31.7736 -619.393 0)
(-49.4605 -617.712 0)
(-77.4173 -617.904 0)
(-113.198 -622.754 0)
(-154.243 -630.505 0)
(-214.338 -642.576 0)
(-294.878 -658.971 0)
(-397.96 -678.397 0)
(-516.862 -709.03 0)
(-669.504 -730.59 0)
(-795.732 -770.088 0)
(-899.344 -795.467 0)
(-944.976 -814.785 0)
(-916.641 -825.161 0)
(-878.628 -834.369 0)
(-798.536 -862.251 0)
(-690.564 -902.358 0)
(-517.618 -944.939 0)
(-204.748 -969.033 0)
(77486.8 -1148.2 0)
(-88553.5 -16015.5 0)
(75555.1 -9900.57 0)
(-65087.3 -996.412 0)
(874.349 -1069.71 0)
(1092.2 -1182.34 0)
(994.087 -1247.5 0)
(894.528 -1231.51 0)
(845.63 -1174.87 0)
(784.624 -1143.7 0)
(719.275 -1111.01 0)
(645.546 -1086.25 0)
(536.346 -1038.61 0)
(409.238 -989.895 0)
(295.71 -937.618 0)
(206.382 -889.801 0)
(138.982 -851.38 0)
(90.2426 -819.198 0)
(53.8004 -796.024 0)
(32.9079 -780.059 0)
(6.38529 -769.493 0)
(-28.1776 -763.667 0)
(-48.9726 -761.761 0)
(-80.4072 -762.844 0)
(-120.176 -768.052 0)
(-164.576 -776.221 0)
(-230.161 -786.611 0)
(-315.037 -802.926 0)
(-430.156 -818.233 0)
(-550.594 -848.51 0)
(-709.755 -868.08 0)
(-836.432 -907.766 0)
(-921.125 -931.693 0)
(-959.88 -941.011 0)
(-925.45 -946.192 0)
(-891.596 -947.054 0)
(-824.92 -960.654 0)
(-721.305 -990.993 0)
(-543.728 -1015.31 0)
(-225.543 -1038.59 0)
(70223.9 -1053.05 0)
(-80023.1 -15763.7 0)
(69893 -10603.5 0)
(-60616.2 -993.594 0)
(813.729 -1040.5 0)
(1021.14 -1108.54 0)
(972.153 -1176.17 0)
(921.25 -1173.77 0)
(875.104 -1157.46 0)
(803.287 -1156.25 0)
(735.08 -1149.93 0)
(672.363 -1148.8 0)
(573.123 -1116.28 0)
(447.041 -1083.69 0)
(334.912 -1033.29 0)
(238.188 -991.337 0)
(167.346 -954.607 0)
(114.127 -925.188 0)
(71.2065 -904.847 0)
(44.993 -890.426 0)
(13.9563 -881.91 0)
(-24.3225 -876.392 0)
(-48.668 -874.172 0)
(-83.4798 -875.652 0)
(-126.088 -879.88 0)
(-172.126 -886.402 0)
(-240.072 -894.629 0)
(-325.35 -906.452 0)
(-441.885 -919.531 0)
(-564.896 -937.202 0)
(-726.605 -948.246 0)
(-857.032 -966.69 0)
(-931.38 -975.902 0)
(-958.948 -963.697 0)
(-922.464 -954.763 0)
(-892.563 -945.724 0)
(-840.878 -947.793 0)
(-743.229 -968.816 0)
(-563.483 -983.714 0)
(-241.118 -997.116 0)
(63297.2 -1000.94 0)
(-71894.1 -15171 0)
(64013.7 -10783.7 0)
(-55872.1 -954.992 0)
(763.587 -1008.18 0)
(961.459 -1054.9 0)
(931.221 -1110.41 0)
(912.561 -1117.05 0)
(862.521 -1136.42 0)
(791.876 -1152.13 0)
(726.448 -1161.04 0)
(677.974 -1162.92 0)
(599.09 -1140.64 0)
(489.206 -1105.57 0)
(384.706 -1058.14 0)
(282.206 -1020.59 0)
(202.726 -986.871 0)
(138.193 -964.267 0)
(87.2982 -949.44 0)
(55.0104 -940.719 0)
(19.9085 -936.228 0)
(-20.7205 -933.023 0)
(-48.2592 -930.703 0)
(-85.9075 -929.943 0)
(-130.535 -930.154 0)
(-178.789 -930.533 0)
(-249.482 -933.636 0)
(-339.033 -938.309 0)
(-459.788 -945.631 0)
(-578.265 -958.311 0)
(-738.17 -960.672 0)
(-863.082 -976.316 0)
(-918.241 -974.835 0)
(-939.51 -955.37 0)
(-908.131 -940.611 0)
(-884.88 -929.934 0)
(-847.172 -928.27 0)
(-755.919 -942.284 0)
(-570.999 -951.542 0)
(-242.147 -958.793 0)
(56565.4 -963.927 0)
(-64009.5 -14440.6 0)
(58248.8 -10855.7 0)
(-51196.2 -908.757 0)
(717.45 -963.299 0)
(922.623 -1019.52 0)
(912.263 -1055.19 0)
(896.185 -1057.43 0)
(841.308 -1093.56 0)
(779.562 -1107.14 0)
(724.683 -1115.31 0)
(692.02 -1107.07 0)
(628.38 -1078.47 0)
(526.54 -1047.01 0)
(416.806 -1004.25 0)
(306.867 -969.887 0)
(221.619 -941.167 0)
(150.197 -922.557 0)
(93.8985 -910.928 0)
(57.724 -905.456 0)
(21.3727 -903.101 0)
(-18.9979 -901.668 0)
(-45.6998 -899.294 0)
(-82.9508 -896.411 0)
(-126.657 -893.904 0)
(-175.482 -890.621 0)
(-247.566 -889.843 0)
(-336.908 -891.5 0)
(-461.159 -892.12 0)
(-579.39 -906.844 0)
(-743.956 -908.423 0)
(-870.68 -919.892 0)
(-911.195 -921.516 0)
(-925.968 -911.627 0)
(-897.952 -903.106 0)
(-880.671 -899.404 0)
(-852.779 -902.169 0)
(-765.655 -915.002 0)
(-579.391 -924.036 0)
(-253.052 -930.706 0)
(50305.6 -939.019 0)
(-56658.5 -13762.1 0)
(52371.7 -10750.3 0)
(-46339.4 -880.781 0)
(656.856 -938.781 0)
(872.914 -999.016 0)
(894.687 -1034.17 0)
(875.581 -1037.49 0)
(814.619 -1066.34 0)
(770.915 -1071.64 0)
(726.508 -1075.78 0)
(713.477 -1053.29 0)
(656.975 -1015.77 0)
(560.724 -973.252 0)
(459.019 -912.928 0)
(342.997 -877.005 0)
(248.335 -842.525 0)
(167.333 -818.205 0)
(103.777 -802.925 0)
(62.5521 -795.229 0)
(23.5595 -792.595 0)
(-17.0519 -793.355 0)
(-43.1938 -790.992 0)
(-80.7135 -785.139 0)
(-124.956 -781.858 0)
(-174.875 -781.01 0)
(-250.329 -783.873 0)
(-341.227 -793.889 0)
(-474.574 -799.168 0)
(-593.975 -822.732 0)
(-750.744 -840.096 0)
(-875.699 -862.663 0)
(-910.277 -875.401 0)
(-921.77 -875.576 0)
(-896.352 -875.42 0)
(-883.977 -879.168 0)
(-862.203 -887.905 0)
(-776.99 -901.688 0)
(-586.132 -912.193 0)
(-256.585 -918.501 0)
(44200.7 -921.913 0)
(-49483 -12965.1 0)
(46780.2 -10759.4 0)
(-41741.5 -843.532 0)
(603.514 -900.776 0)
(830.702 -971.895 0)
(875.189 -1003.01 0)
(865.19 -1010.15 0)
(808.397 -1017.49 0)
(770.46 -1010.06 0)
(742.364 -1008.15 0)
(749.853 -971.951 0)
(705.513 -920.032 0)
(625.64 -856.311 0)
(509.553 -783.77 0)
(374.709 -736.789 0)
(278.28 -694.978 0)
(188.358 -663.421 0)
(116.039 -641.749 0)
(67.6783 -627.227 0)
(23.1794 -617.865 0)
(-17.4537 -614.184 0)
(-37.7824 -611.281 0)
(-74.1491 -609.148 0)
(-122.679 -612.216 0)
(-177.424 -618.406 0)
(-259.976 -629.314 0)
(-351.647 -648.86 0)
(-488.954 -664.017 0)
(-618.83 -703.31 0)
(-782.435 -737.234 0)
(-904.701 -777.073 0)
(-923.639 -806.189 0)
(-925.986 -819.968 0)
(-901.414 -831.092 0)
(-892.702 -842.731 0)
(-874.48 -855.813 0)
(-789.06 -867.215 0)
(-595.593 -880.999 0)
(-262.419 -878.556 0)
(38697 -874.501 0)
(-42970.2 -12226.2 0)
(40935.4 -9880.31 0)
(-36839.3 -692.738 0)
(533.16 -784.775 0)
(774.402 -870.173 0)
(857.826 -897.284 0)
(861.624 -905.47 0)
(814.705 -901.257 0)
(779.917 -885.566 0)
(763.23 -872.325 0)
(798.39 -836.249 0)
(768.41 -782.054 0)
(692.032 -708.679 0)
(574.195 -638.905 0)
(428.559 -594.687 0)
(319.034 -555.715 0)
(218.626 -528.733 0)
(138.655 -508.175 0)
(85.568 -492.395 0)
(36.1283 -481.969 0)
(-10.7076 -476.346 0)
(-38.3405 -472.686 0)
(-81.6147 -472.778 0)
(-133.877 -478.248 0)
(-191.351 -487.088 0)
(-279.676 -499.125 0)
(-374.669 -518.297 0)
(-527.044 -532.947 0)
(-664.53 -572.544 0)
(-821.825 -607.986 0)
(-942.146 -649.358 0)
(-951.612 -685.052 0)
(-945.768 -704.936 0)
(-918.287 -720.865 0)
(-907.799 -734.141 0)
(-885.797 -746.506 0)
(-801.261 -757.165 0)
(-597.06 -759.794 0)
(-250.323 -727.117 0)
(33265.7 -690.438 0)
(-36582.9 -10575.4 0)
(36478.9 -9564.83 0)
(-32976.7 -318.888 0)
(432.532 -471.974 0)
(722.284 -630.671 0)
(841.175 -690.114 0)
(861.361 -719.539 0)
(827.577 -707.406 0)
(798.34 -688.235 0)
(789.887 -658.085 0)
(836.841 -605.922 0)
(828.444 -565.756 0)
(763.584 -513.05 0)
(619.4 -464.488 0)
(454.874 -444.627 0)
(341.836 -418.239 0)
(234.169 -404.779 0)
(151.055 -391.259 0)
(92.9314 -374.525 0)
(38.6445 -359.398 0)
(-8.50876 -349.112 0)
(-34.3439 -346.192 0)
(-79.5093 -351.588 0)
(-136.468 -361.877 0)
(-197.541 -372.742 0)
(-290.051 -380.105 0)
(-384.24 -391.432 0)
(-541.228 -395.909 0)
(-691.14 -418.718 0)
(-856.456 -441.733 0)
(-978.965 -460.965 0)
(-977.196 -483.421 0)
(-960.497 -495.638 0)
(-929.558 -507.739 0)
(-917.41 -514.493 0)
(-896.667 -521.888 0)
(-801.864 -524.164 0)
(-566.637 -494.695 0)
(-195.586 -402.13 0)
(29206.9 -279.548 0)
(-32032.9 -9468.13 0)
(31741 11525.1 0)
(-28077.1 1032.99 0)
(232.715 139.308 0)
(564.195 -137.842 0)
(772.189 -253.026 0)
(844.96 -298.37 0)
(844.87 -303.83 0)
(827.444 -303.796 0)
(842.551 -277.959 0)
(887.361 -247.764 0)
(857.905 -175.842 0)
(789.617 70.799 0)
(640.13 617.22 0)
(473.126 1351.43 0)
(357.433 2174.04 0)
(244.626 2886.8 0)
(167.809 3465.92 0)
(116.27 3844.17 0)
(60.617 4038.65 0)
(2.01822 3992.96 0)
(-40.7271 3996.71 0)
(-96.7294 4050.74 0)
(-154.261 3864.25 0)
(-208.916 3495.04 0)
(-297.686 2934.76 0)
(-389.899 2227.22 0)
(-553.338 1464.69 0)
(-708.687 708.61 0)
(-862.535 183.33 0)
(-982.318 -60.6537 0)
(-985.024 -155.228 0)
(-969.202 -164.161 0)
(-936.457 -175.7 0)
(-921.433 -178.252 0)
(-895.116 -181.107 0)
(-775.057 -176.974 0)
(-479.464 -119.399 0)
(-42.9997 58.6217 0)
(24529.3 964.391 0)
(-27590.4 13800 0)
(48011.5 565463 0)
(-43948.5 46258.1 0)
(-695.724 28101.7 0)
(344.217 32977.5 0)
(686.485 37316.3 0)
(812.404 43149.8 0)
(822.348 49073.2 0)
(823.27 55723.2 0)
(843.882 62574.2 0)
(935.245 70033.9 0)
(1135.42 77608.1 0)
(1527.81 85427.2 0)
(1853.47 92994.5 0)
(1955.08 100340 0)
(1821.37 107043 0)
(1479.07 113010 0)
(1073.61 117545 0)
(644.837 121158 0)
(182.023 122863 0)
(-48.9286 124394 0)
(21.3332 124397 0)
(-207.149 122835 0)
(-671.965 121120 0)
(-1093.23 117452 0)
(-1511.76 112939 0)
(-1800.85 106843 0)
(-2004.62 100161 0)
(-1925.9 92727.6 0)
(-1597.75 85102 0)
(-1305.21 77243.9 0)
(-1076.94 69569.5 0)
(-980.225 62019.8 0)
(-943.136 54986.7 0)
(-922.62 48129.2 0)
(-895.436 41977.5 0)
(-742.4 35870.9 0)
(-339.608 31273.3 0)
(848.794 26002.1 0)
(42448.6 42588.3 0)
(-45192.2 538141 0)
(616746 -639639 0)
(-545898 -50070.6 0)
(-12565 -32721.6 0)
(9443.74 -37508.4 0)
(10574.6 -42401.4 0)
(12174.4 -49185.4 0)
(12961.1 -56052.9 0)
(13837.5 -63725.9 0)
(14632.8 -71579.5 0)
(15374.6 -80151.9 0)
(15691.5 -88921.7 0)
(15616.5 -98048.4 0)
(15010.3 -107143 0)
(14010.6 -115942 0)
(12566.7 -124052 0)
(10365 -131156 0)
(8019.77 -136549 0)
(5240.61 -140742 0)
(3178.64 -142736 0)
(1480.08 -144298 0)
(-1542.72 -144282 0)
(-3253.92 -142656 0)
(-5341.15 -140618 0)
(-8092.35 -136331 0)
(-10520.8 -130932 0)
(-12704 -123629 0)
(-14155.7 -115588 0)
(-15219.7 -106505 0)
(-15783.2 -97381.9 0)
(-15950 -88018.1 0)
(-15655.5 -79008.1 0)
(-15021.7 -70196 0)
(-14322 -61978.4 0)
(-13457.6 -53964.9 0)
(-12707.7 -46727.1 0)
(-11090 -39545.7 0)
(-9989.4 -34344 0)
(10860.6 -29237.6 0)
(518045 -45445.8 0)
(-582297 -605786 0)
(616746 639639 0)
(-545898 50070.6 0)
(-12565 32721.6 0)
(9443.74 37508.4 0)
(10574.6 42401.4 0)
(12174.4 49185.4 0)
(12961.1 56052.9 0)
(13837.5 63725.9 0)
(14632.8 71579.5 0)
(15374.6 80151.9 0)
(15691.5 88921.7 0)
(15616.5 98048.4 0)
(15010.3 107143 0)
(14010.6 115942 0)
(12566.7 124052 0)
(10365 131156 0)
(8019.77 136549 0)
(5240.61 140742 0)
(3178.64 142736 0)
(1480.08 144298 0)
(-1542.72 144282 0)
(-3253.92 142656 0)
(-5341.15 140618 0)
(-8092.35 136331 0)
(-10520.8 130932 0)
(-12704 123629 0)
(-14155.7 115588 0)
(-15219.7 106505 0)
(-15783.2 97381.9 0)
(-15950 88018.1 0)
(-15655.5 79008.1 0)
(-15021.7 70196 0)
(-14322 61978.4 0)
(-13457.6 53964.9 0)
(-12707.7 46727.1 0)
(-11090 39545.7 0)
(-9989.4 34344 0)
(10860.6 29237.6 0)
(518045 45445.8 0)
(-582297 605786 0)
(48011.5 -565463 0)
(-43948.5 -46258.1 0)
(-695.724 -28101.7 0)
(344.217 -32977.5 0)
(686.485 -37316.3 0)
(812.404 -43149.8 0)
(822.348 -49073.2 0)
(823.27 -55723.2 0)
(843.882 -62574.2 0)
(935.245 -70033.9 0)
(1135.42 -77608.1 0)
(1527.81 -85427.2 0)
(1853.47 -92994.5 0)
(1955.08 -100340 0)
(1821.37 -107043 0)
(1479.07 -113010 0)
(1073.61 -117545 0)
(644.837 -121158 0)
(182.023 -122863 0)
(-48.9286 -124394 0)
(21.3332 -124397 0)
(-207.149 -122835 0)
(-671.965 -121120 0)
(-1093.23 -117452 0)
(-1511.76 -112939 0)
(-1800.85 -106843 0)
(-2004.62 -100161 0)
(-1925.9 -92727.6 0)
(-1597.75 -85102 0)
(-1305.21 -77243.9 0)
(-1076.94 -69569.5 0)
(-980.225 -62019.8 0)
(-943.136 -54986.7 0)
(-922.62 -48129.2 0)
(-895.436 -41977.5 0)
(-742.4 -35870.9 0)
(-339.608 -31273.3 0)
(848.794 -26002.1 0)
(42448.6 -42588.3 0)
(-45192.2 -538141 0)
(31741 -11525.1 0)
(-28077.1 -1032.99 0)
(232.715 -139.308 0)
(564.195 137.842 0)
(772.189 253.026 0)
(844.96 298.37 0)
(844.87 303.83 0)
(827.444 303.796 0)
(842.551 277.959 0)
(887.361 247.764 0)
(857.905 175.842 0)
(789.617 -70.799 0)
(640.13 -617.22 0)
(473.126 -1351.43 0)
(357.433 -2174.04 0)
(244.626 -2886.8 0)
(167.809 -3465.92 0)
(116.27 -3844.17 0)
(60.617 -4038.65 0)
(2.01822 -3992.96 0)
(-40.7271 -3996.71 0)
(-96.7294 -4050.74 0)
(-154.261 -3864.25 0)
(-208.916 -3495.04 0)
(-297.686 -2934.76 0)
(-389.899 -2227.22 0)
(-553.338 -1464.69 0)
(-708.687 -708.61 0)
(-862.535 -183.33 0)
(-982.318 60.6537 0)
(-985.024 155.228 0)
(-969.202 164.161 0)
(-936.457 175.7 0)
(-921.433 178.252 0)
(-895.116 181.107 0)
(-775.057 176.974 0)
(-479.464 119.399 0)
(-42.9997 -58.6217 0)
(24529.3 -964.391 0)
(-27590.4 -13800 0)
(36478.9 9564.83 0)
(-32976.7 318.888 0)
(432.532 471.974 0)
(722.284 630.671 0)
(841.175 690.114 0)
(861.361 719.539 0)
(827.577 707.406 0)
(798.34 688.235 0)
(789.887 658.085 0)
(836.841 605.922 0)
(828.444 565.756 0)
(763.584 513.05 0)
(619.4 464.488 0)
(454.874 444.627 0)
(341.836 418.239 0)
(234.169 404.779 0)
(151.055 391.259 0)
(92.9314 374.525 0)
(38.6445 359.398 0)
(-8.50876 349.112 0)
(-34.3439 346.192 0)
(-79.5093 351.588 0)
(-136.468 361.877 0)
(-197.541 372.742 0)
(-290.051 380.105 0)
(-384.24 391.432 0)
(-541.228 395.909 0)
(-691.14 418.718 0)
(-856.456 441.733 0)
(-978.965 460.965 0)
(-977.196 483.421 0)
(-960.497 495.638 0)
(-929.558 507.739 0)
(-917.41 514.493 0)
(-896.667 521.888 0)
(-801.864 524.164 0)
(-566.637 494.695 0)
(-195.586 402.13 0)
(29206.9 279.548 0)
(-32032.9 9468.13 0)
(40935.4 9880.31 0)
(-36839.3 692.738 0)
(533.16 784.775 0)
(774.402 870.173 0)
(857.826 897.284 0)
(861.624 905.47 0)
(814.705 901.257 0)
(779.917 885.566 0)
(763.23 872.325 0)
(798.39 836.249 0)
(768.41 782.054 0)
(692.032 708.679 0)
(574.195 638.905 0)
(428.559 594.687 0)
(319.034 555.715 0)
(218.626 528.733 0)
(138.655 508.175 0)
(85.568 492.395 0)
(36.1283 481.969 0)
(-10.7076 476.346 0)
(-38.3405 472.686 0)
(-81.6147 472.778 0)
(-133.877 478.248 0)
(-191.351 487.088 0)
(-279.676 499.125 0)
(-374.669 518.297 0)
(-527.044 532.947 0)
(-664.53 572.544 0)
(-821.825 607.986 0)
(-942.146 649.358 0)
(-951.612 685.052 0)
(-945.768 704.936 0)
(-918.287 720.865 0)
(-907.799 734.141 0)
(-885.797 746.506 0)
(-801.261 757.165 0)
(-597.06 759.794 0)
(-250.323 727.117 0)
(33265.7 690.438 0)
(-36582.9 10575.4 0)
(46780.2 10759.4 0)
(-41741.5 843.532 0)
(603.514 900.776 0)
(830.702 971.895 0)
(875.189 1003.01 0)
(865.19 1010.15 0)
(808.397 1017.49 0)
(770.46 1010.06 0)
(742.364 1008.15 0)
(749.853 971.951 0)
(705.513 920.032 0)
(625.64 856.311 0)
(509.553 783.77 0)
(374.709 736.789 0)
(278.28 694.978 0)
(188.358 663.421 0)
(116.039 641.749 0)
(67.6783 627.227 0)
(23.1794 617.865 0)
(-17.4537 614.184 0)
(-37.7824 611.281 0)
(-74.1491 609.148 0)
(-122.679 612.216 0)
(-177.424 618.406 0)
(-259.976 629.314 0)
(-351.647 648.86 0)
(-488.954 664.017 0)
(-618.83 703.31 0)
(-782.435 737.234 0)
(-904.701 777.073 0)
(-923.639 806.189 0)
(-925.986 819.968 0)
(-901.414 831.092 0)
(-892.702 842.731 0)
(-874.48 855.813 0)
(-789.06 867.215 0)
(-595.593 880.999 0)
(-262.419 878.556 0)
(38697 874.501 0)
(-42970.2 12226.2 0)
(52371.7 10750.3 0)
(-46339.4 880.781 0)
(656.856 938.781 0)
(872.914 999.016 0)
(894.687 1034.17 0)
(875.581 1037.49 0)
(814.619 1066.34 0)
(770.915 1071.64 0)
(726.508 1075.78 0)
(713.477 1053.29 0)
(656.975 1015.77 0)
(560.724 973.252 0)
(459.019 912.928 0)
(342.997 877.005 0)
(248.335 842.525 0)
(167.333 818.205 0)
(103.777 802.925 0)
(62.5521 795.229 0)
(23.5595 792.595 0)
(-17.0519 793.355 0)
(-43.1938 790.992 0)