/*--------------------------------*- C++ -*----------------------------------*\
| =========                 |                                                 |
| \\      /  F ield         | OpenFOAM: The Open Source CFD Toolbox           |
|  \\    /   O peration     | Version:  v1912                                 |
|   \\  /    A nd           | Website:  www.openfoam.com                      |
|    \\/     M anipulation  |                                                 |
\*---------------------------------------------------------------------------*/
FoamFile
{
    version     2.0;
    format      ascii;
    class       volScalarField;
    location    "3.58";
    object      Ma;
}
// * * * * * * * * * * * * * * * * * * * * * * * * * * * * * * * * * * * * * //

dimensions      [0 0 0 0 0 0 0];


internalField   nonuniform List<scalar> 
1900
(
0.584387
0.0955759
0.101068
0.1043
0.104851
0.105116
0.103153
0.0978078
0.091109
0.0749931
0.584396
0.0955955
0.101068
0.104282
0.104681
0.104642
0.101908
0.0958875
0.089045
0.0818507
0.5844
0.0956077
0.101059
0.10425
0.104529
0.104271
0.101149
0.0953516
0.0902925
0.0882514
0.584396
0.0955955
0.101068
0.104282
0.104681
0.104642
0.101908
0.0958875
0.089045
0.0818507
0.584387
0.0955759
0.101068
0.1043
0.104851
0.105116
0.103153
0.0978078
0.091109
0.0749931
0.0772602
0.0928671
0.106623
0.136092
0.252355
0.0889997
0.1036
0.127153
0.181727
0.302906
0.0952105
0.109631
0.139369
0.201498
0.317936
0.0889997
0.1036
0.127153
0.181727
0.302906
0.0772602
0.0928671
0.106623
0.136092
0.252355
0.296285
0.22589
0.175348
0.140055
0.156719
0.3103
0.237538
0.179897
0.108968
0.0812068
0.318
0.242502
0.177248
0.0839064
0.0639131
0.3103
0.237538
0.179897
0.108968
0.0812068
0.296285
0.22589
0.175348
0.140055
0.156719
0.330882
0.212909
0.246497
0.264556
0.321351
0.398957
0.454751
0.474185
0.473455
0.463676
0.445211
0.417714
0.382686
0.341496
0.295418
0.245674
0.193461
0.139942
0.0866422
0.0413501
0.0487431
0.0981062
0.153628
0.210087
0.266431
0.321837
0.375427
0.426243
0.473324
0.516033
0.5544
0.58924
0.621479
0.651188
0.677313
0.698401
0.71735
0.732069
0.770045
1.72985
0.201685
0.462493
0.264272
0.167409
0.308533
0.397218
0.454446
0.474319
0.473746
0.463999
0.445471
0.417825
0.382582
0.341116
0.29469
0.244493
0.19164
0.137071
0.0815576
0.0285379
0.0385413
0.0937071
0.151082
0.208482
0.265423
0.321261
0.375187
0.42628
0.47359
0.516494
0.555022
0.589998
0.622328
0.652153
0.678235
0.699377
0.718269
0.732849
0.770395
1.73026
0.328568
0.551019
0.294814
0.103358
0.307194
0.399979
0.456473
0.475979
0.475229
0.465178
0.446429
0.418554
0.38309
0.341409
0.294765
0.244333
0.191196
0.136211
0.0798566
0.0227537
0.0345159
0.092267
0.150342
0.20812
0.26533
0.321398
0.375541
0.426852
0.474396
0.517551
0.556357
0.591646
0.624322
0.654556
0.681092
0.702688
0.722158
0.737055
0.774193
1.73505
0.201685
0.462493
0.264272
0.167409
0.308533
0.397218
0.454446
0.474319
0.473746
0.463999
0.445471
0.417825
0.382582
0.341116
0.29469
0.244493
0.19164
0.137071
0.0815576
0.0285379
0.0385413
0.0937071
0.151082
0.208482
0.265423
0.321261
0.375187
0.42628
0.47359
0.516494
0.555022
0.589998
0.622328
0.652153
0.678235
0.699377
0.718269
0.732849
0.770395
1.73026
0.330882
0.212909
0.246497
0.264556
0.321351
0.398957
0.454751
0.474185
0.473455
0.463676
0.445211
0.417714
0.382686
0.341496
0.295418
0.245674
0.193461
0.139942
0.0866422
0.0413501
0.0487431
0.0981062
0.153628
0.210087
0.266431
0.321837
0.375427
0.426243
0.473324
0.516033
0.5544
0.58924
0.621479
0.651188
0.677313
0.698401
0.71735
0.732069
0.770045
1.72985
1.26766
0.45993
0.435851
0.397788
0.379954
0.425169
0.470051
0.48514
0.482979
0.472036
0.452885
0.42518
0.390165
0.349227
0.303692
0.254911
0.204395
0.154042
0.107257
0.0753958
0.0796381
0.116673
0.166529
0.220134
0.274891
0.329356
0.382387
0.432891
0.479833
0.522531
0.560977
0.595913
0.628345
0.658054
0.684722
0.705944
0.725517
0.740915
0.780244
1.73278
1.64727
0.775362
0.642193
0.528481
0.483433
0.477846
0.500661
0.5042
0.500429
0.487275
0.46726
0.439782
0.405602
0.366069
0.32263
0.276896
0.230923
0.187557
0.151168
0.130869
0.133223
0.157788
0.197665
0.244579
0.294877
0.346235
0.397017
0.445845
0.491516
0.533214
0.570877
0.605021
0.636978
0.665642
0.692424
0.712944
0.732728
0.748253
0.791685
1.73074
1.70445
0.859394
0.726711
0.609132
0.557012
0.538005
0.538582
0.533101
0.524826
0.509575
0.488838
0.461749
0.428669
0.390961
0.350166
0.308101
0.267124
0.230335
0.201435
0.187104
0.188624
0.206257
0.238362
0.278604
0.323787
0.371273
0.419142
0.465753
0.50974
0.550165
0.586904
0.620022
0.651588
0.679093
0.706219
0.726334
0.746661
0.762458
0.813314
1.73807
1.69889
0.894709
0.773819
0.67155
0.617586
0.592725
0.579507
0.568333
0.55486
0.538059
0.516724
0.490001
0.458081
0.422311
0.384238
0.345767
0.3093
0.277755
0.253884
0.243118
0.244146
0.257516
0.284131
0.318786
0.359122
0.402644
0.447306
0.49142
0.533469
0.57226
0.607903
0.639667
0.67075
0.696722
0.723984
0.743688
0.764299
0.779663
0.838571
1.73236
1.70919
0.922094
0.811834
0.722133
0.672401
0.642752
0.622527
0.606061
0.589538
0.571215
0.549355
0.522967
0.492197
0.458326
0.422739
0.387503
0.354786
0.32725
0.306826
0.298468
0.299156
0.309621
0.332347
0.362559
0.398702
0.438456
0.480061
0.521493
0.561492
0.598701
0.633087
0.663088
0.693939
0.718634
0.746028
0.765769
0.786876
0.802003
0.870265
1.73613
1.72553
0.944714
0.843903
0.764829
0.720371
0.688059
0.664312
0.644647
0.626445
0.607072
0.584939
0.559084
0.529468
0.4972
0.46389
0.431343
0.401659
0.377148
0.359149
0.352569
0.352997
0.361321
0.381235
0.407989
0.440588
0.477136
0.515622
0.554822
0.59266
0.627699
0.661465
0.68913
0.719385
0.742265
0.769858
0.788772
0.809677
0.823632
0.899732
1.73501
1.74017
0.970107
0.876454
0.808407
0.76799
0.732724
0.707047
0.684942
0.66519
0.644694
0.622515
0.597058
0.568066
0.537455
0.505868
0.475576
0.448267
0.426055
0.40979
0.40462
0.404832
0.411477
0.429328
0.453366
0.483135
0.516727
0.553044
0.589211
0.626174
0.659062
0.69164
0.717853
0.748099
0.770258
0.797643
0.818129
0.839056
0.852932
0.933223
1.73949
1.73916
0.988757
0.901342
0.843028
0.805553
0.768299
0.743171
0.720152
0.700653
0.680559
0.659162
0.633861
0.606717
0.576921
0.547075
0.518553
0.493102
0.472625
0.457605
0.453618
0.453636
0.458897
0.475224
0.497146
0.524596
0.555895
0.589516
0.624547
0.658129
0.68973
0.721278
0.744326
0.773307
0.794243
0.820293
0.840571
0.861433
0.873917
0.955723
1.73935
1.74782
1.01209
0.926982
0.879357
0.844857
0.80754
0.78297
0.758151
0.73864
0.717712
0.695647
0.671466
0.643749
0.614938
0.586168
0.55889
0.534881
0.515693
0.501552
0.498587
0.498432
0.502506
0.517705
0.53801
0.563579
0.593131
0.62524
0.657752
0.692298
0.720326
0.751969
0.774193
0.802486
0.823038
0.849522
0.870015
0.892689
0.90477
0.983863
1.74522
1.74908
1.02895
0.94648
0.906679
0.873766
0.835748
0.811506
0.785473
0.767058
0.745969
0.726285
0.702257
0.676395
0.649067
0.621454
0.595607
0.572756
0.554591
0.541064
0.539012
0.538702
0.541712
0.556074
0.575038
0.599136
0.626586
0.657169
0.687225
0.719066
0.745635
0.774801
0.794985
0.822295
0.841832
0.868104
0.888252
0.912582
0.924012
1.00032
1.74529
1.75875
1.05125
0.969296
0.93794
0.903056
0.867989
0.844472
0.817727
0.800139
0.778569
0.759061
0.734912
0.709466
0.681773
0.654548
0.629247
0.607054
0.5896
0.576439
0.575205
0.574766
0.576805
0.590589
0.608578
0.631694
0.658233
0.687751
0.717483
0.74863
0.773392
0.802911
0.822095
0.849052
0.86844
0.895503
0.915539
0.941389
0.95275
1.02576
1.74978
1.76079
1.06884
0.989104
0.961947
0.924519
0.893246
0.868933
0.8416
0.824459
0.801889
0.783166
0.759158
0.7345
0.708102
0.682617
0.658755
0.637853
0.621373
0.608642
0.608253
0.607721
0.608749
0.62188
0.638674
0.660193
0.684878
0.712513
0.739565
0.770187
0.792667
0.821654
0.83986
0.86634
0.885257
0.913124
0.933335
0.960361
0.971631
1.04211
1.74753
1.76977
1.09243
1.01376
0.989067
0.95023
0.923635
0.897105
0.870624
0.853596
0.830475
0.812648
0.788716
0.76455
0.738206
0.712575
0.688625
0.667863
0.651548
0.638793
0.639057
0.638472
0.638705
0.651691
0.668192
0.689421
0.713783
0.741649
0.767587
0.79806
0.819176
0.847569
0.865462
0.892139
0.91116
0.940041
0.960958
0.988948
1.00038
1.06828
1.74944
1.77097
1.11173
1.03583
1.01277
0.974098
0.949579
0.920359
0.895429
0.877913
0.853678
0.836739
0.811427
0.787426
0.761164
0.736269
0.71334
0.693564
0.678331
0.666168
0.667463
0.666831
0.665848
0.678047
0.69327
0.713411
0.736191
0.763466
0.787919
0.818458
0.839057
0.867193
0.884572
0.911295
0.930153
0.959876
0.981293
1.01023
1.02174
1.08674
1.74491
1.77723
1.13651
1.06197
1.04154
1.00418
0.980186
0.948653
0.925793
0.906335
0.881594
0.863412
0.83698
0.814805
0.787496
0.762693
0.739284
0.719191
0.70361
0.69083
0.692457
0.691858
0.690481
0.703202
0.718674
0.739116
0.761934
0.789593
0.813678
0.843822
0.863768
0.892964
0.911211
0.939048
0.95895
0.989849
1.0123
1.04189
1.0532
1.11511
1.74348
1.77721
1.15826
1.08749
1.06802
1.03146
1.00703
0.973638
0.951725
0.930233
0.904316
0.886158
0.858993
0.834811
0.806998
0.781895
0.758411
0.738411
0.723066
0.710329
0.712782
0.712133
0.709672
0.722176
0.737251
0.757607
0.779954
0.80821
0.83166
0.863286
0.883188
0.912215
0.930505
0.958909
0.979346
1.01132
1.03484
1.06528
1.0766
1.13504
1.73612
1.77164
1.17321
1.10826
1.0946
1.05906
1.03309
0.998275
0.977217
0.952564
0.927801
0.907946
0.877607
0.855414
0.825926
0.801568
0.777696
0.757497
0.741753
0.728392
0.731304
0.730799
0.727894
0.740991
0.756391
0.777173
0.799385
0.827956
0.85117
0.883145
0.903967
0.93461
0.954253
0.983744
1.00516
1.03773
1.06217
1.09269
1.09966
1.15059
1.7201
1.72504
1.16706
1.10915
1.10259
1.07154
1.04678
1.01276
0.992124
0.964017
0.941041
0.918537
0.889292
0.867576
0.838433
0.815715
0.792093
0.772471
0.756652
0.742618
0.745419
0.744994
0.742151
0.755968
0.771405
0.791992
0.813141
0.841116
0.862337
0.893717
0.913531
0.943957
0.963397
0.993039
1.01438
1.04695
1.07119
1.09817
1.10022
1.1445
1.66094
1.71303
1.1641
1.13972
1.14341
1.12169
1.10246
1.07386
1.05716
1.03214
1.01396
0.992703
0.967072
0.941049
0.907269
0.874394
0.840472
0.810834
0.787787
0.769943
0.771487
0.771278
0.769575
0.787327
0.810043
0.840637
0.872093
0.908943
0.937763
0.970119
0.990069
1.01728
1.03386
1.06043
1.0786
1.10783
1.12832
1.14814
1.14234
1.15263
1.6887
2.35371
1.69373
1.65554
1.71171
1.72766
1.73676
1.73995
1.74572
1.74508
1.74779
1.74411
1.74507
1.74222
1.74438
1.74169
1.74241
1.73803
1.74105
1.72791
1.75235
1.7524
1.72785
1.74123
1.73799
1.74293
1.74185
1.74541
1.74283
1.74657
1.74536
1.74978
1.74753
1.74944
1.74448
1.74293
1.73538
1.71978
1.65963
1.68362
2.35563
2.35371
1.69373
1.65554
1.71171
1.72766
1.73676
1.73995
1.74572
1.74508
1.74779
1.74411
1.74507
1.74222
1.74438
1.74169
1.74241
1.73803
1.74105
1.72791
1.75235
1.7524
1.72785
1.74123
1.73799
1.74293
1.74185
1.74541
1.74283
1.74657
1.74536
1.74978
1.74753
1.74944
1.74448
1.74293
1.73538
1.71978
1.65963
1.68362
2.35563
1.71303
1.1641
1.13972
1.14341
1.12169
1.10246
1.07386
1.05716
1.03214
1.01396
0.992703
0.967072
0.941049
0.907269
0.874394
0.840472
0.810834
0.787787
0.769943
0.771487
0.771278
0.769575
0.787327
0.810043
0.840637
0.872093
0.908943
0.937763
0.970119
0.990069
1.01728
1.03386
1.06043
1.0786
1.10783
1.12832
1.14814
1.14234
1.15263
1.6887
1.72504
1.16706
1.10915
1.10259
1.07154
1.04678
1.01276
0.992124
0.964017
0.941041
0.918537
0.889292
0.867576
0.838433
0.815715
0.792093
0.772471
0.756652
0.742618
0.745419
0.744994
0.742151
0.755968
0.771405
0.791992
0.813141
0.841116
0.862337
0.893717
0.913531
0.943957
0.963397
0.993039
1.01438
1.04695
1.07119
1.09817
1.10022
1.1445
1.66094
1.77164
1.17321
1.10826
1.0946
1.05906
1.03309
0.998275
0.977217
0.952564
0.927801
0.907946
0.877607
0.855414
0.825926
0.801568
0.777696
0.757497
0.741753
0.728392
0.731304
0.730799
0.727894
0.740991
0.756391
0.777173
0.799385
0.827956
0.85117
0.883145
0.903967
0.93461
0.954253
0.983744
1.00516
1.03773
1.06217
1.09269
1.09966
1.15059
1.7201
1.77721
1.15826
1.08749
1.06802
1.03146
1.00703
0.973638
0.951725
0.930233
0.904316
0.886158
0.858993
0.834811
0.806998
0.781895
0.758411
0.738411
0.723066
0.710329
0.712782
0.712133
0.709672
0.722176
0.737251
0.757607
0.779954
0.80821
0.83166
0.863286
0.883188
0.912215
0.930505
0.958909
0.979346
1.01132
1.03484
1.06528
1.0766
1.13504
1.73612
1.77723
1.13651
1.06197
1.04154
1.00418
0.980186
0.948653
0.925793
0.906335
0.881594
0.863412
0.83698
0.814805
0.787496
0.762693
0.739284
0.719191
0.70361
0.69083
0.692457
0.691858
0.690481
0.703202
0.718674
0.739116
0.761934
0.789593
0.813678
0.843822
0.863768
0.892964
0.911211
0.939048
0.95895
0.989849
1.0123
1.04189
1.0532
1.11511
1.74348
1.77097
1.11173
1.03583
1.01277
0.974098
0.949579
0.920359
0.895429
0.877913
0.853678
0.836739
0.811427
0.787426
0.761164
0.736269
0.71334
0.693564
0.678331
0.666168
0.667463
0.666831
0.665848
0.678047
0.69327
0.713411
0.736191
0.763466
0.787919
0.818458
0.839057
0.867193
0.884572
0.911295
0.930153
0.959876
0.981293
1.01023
1.02174
1.08674
1.74491
1.76977
1.09243
1.01376
0.989067
0.95023
0.923635
0.897105
0.870624
0.853596
0.830475
0.812648
0.788716
0.76455
0.738206
0.712575
0.688625
0.667863
0.651548
0.638793
0.639057
0.638472
0.638705
0.651691
0.668192
0.689421
0.713783
0.741649
0.767587
0.79806
0.819176
0.847569
0.865462
0.892139
0.91116
0.940041
0.960958
0.988948
1.00038
1.06828
1.74944
1.76079
1.06884
0.989104
0.961947
0.924519
0.893246
0.868933
0.8416
0.824459
0.801889
0.783166
0.759158
0.7345
0.708102
0.682617
0.658755
0.637853
0.621373
0.608642
0.608253
0.607721
0.608749
0.62188
0.638674
0.660193
0.684878
0.712513
0.739565
0.770187
0.792667
0.821654
0.83986
0.86634
0.885257
0.913124
0.933335
0.960361
0.971631
1.04211
1.74753
1.75875
1.05125
0.969296
0.93794
0.903056
0.867989
0.844472
0.817727
0.800139
0.778569
0.759061
0.734912
0.709466
0.681773
0.654548
0.629247
0.607054
0.5896
0.576439
0.575205
0.574766
0.576805
0.590589
0.608578
0.631694
0.658233
0.687751
0.717483
0.74863
0.773392
0.802911
0.822095
0.849052
0.86844
0.895503
0.915539
0.941389
0.95275
1.02576
1.74978
1.74908
1.02895
0.94648
0.906679
0.873766
0.835748
0.811506
0.785473
0.767058
0.745969
0.726285
0.702257
0.676395
0.649067
0.621454
0.595607
0.572756
0.554591
0.541064
0.539012
0.538702
0.541712
0.556074
0.575038
0.599136
0.626586
0.657169
0.687225
0.719066
0.745635
0.774801
0.794985
0.822295
0.841832
0.868104
0.888252
0.912582
0.924012
1.00032
1.74529
1.74782
1.01209
0.926982
0.879357
0.844857
0.80754
0.78297
0.758151
0.73864
0.717712
0.695647
0.671466
0.643749
0.614938
0.586168
0.55889
0.534881
0.515693
0.501552
0.498587
0.498432
0.502506
0.517705
0.53801
0.563579
0.593131
0.62524
0.657752
0.692298
0.720326
0.751969
0.774193
0.802486
0.823038
0.849522
0.870015
0.892689
0.90477
0.983863
1.74522
1.73916
0.988757
0.901342
0.843028
0.805553
0.768299
0.743171
0.720152
0.700653
0.680559
0.659162
0.633861
0.606717
0.576921
0.547075
0.518553
0.493102
0.472625
0.457605
0.453618
0.453636
0.458897
0.475224
0.497146
0.524596
0.555895
0.589516
0.624547
0.658129
0.68973
0.721278
0.744326
0.773307
0.794243
0.820293
0.840571
0.861433
0.873917
0.955723
1.73935
1.74017
0.970107
0.876454
0.808407
0.76799
0.732724
0.707047
0.684942
0.66519
0.644694
0.622515
0.597058
0.568066
0.537455
0.505868
0.475576
0.448267
0.426055
0.40979
0.40462
0.404832
0.411477
0.429328
0.453366
0.483135
0.516727
0.553044
0.589211
0.626174
0.659062
0.69164
0.717853
0.748099
0.770258
0.797643
0.818129
0.839056
0.852932
0.933223
1.73949
1.72553
0.944714
0.843903
0.764829
0.720371
0.688059
0.664312
0.644647
0.626445
0.607072
0.584939
0.559084
0.529468
0.4972
0.46389
0.431343
0.401659
0.377148
0.359149
0.352569
0.352997
0.361321
0.381235
0.407989
0.440588
0.477136
0.515622
0.554822
0.59266
0.627699
0.661465
0.68913
0.719385
0.742265
0.769858
0.788772
0.809677
0.823632
0.899732
1.73501
1.70919
0.922094
0.811834
0.722133
0.672401
0.642752
0.622527
0.606061
0.589538
0.571215
0.549355
0.522967
0.492197
0.458326
0.422739
0.387503
0.354786
0.32725
0.306826
0.298468
0.299156
0.309621
0.332347
0.362559
0.398702
0.438456
0.480061
0.521493
0.561492
0.598701
0.633087
0.663088
0.693939
0.718634
0.746028
0.765769
0.786876
0.802003
0.870265
1.73613
1.69889
0.894709
0.773819
0.67155
0.617586
0.592725
0.579507
0.568333
0.55486
0.538059
0.516724
0.490001
0.458081
0.422311
0.384238
0.345767
0.3093
0.277755
0.253884
0.243118
0.244146
0.257516
0.284131
0.318786
0.359122
0.402644
0.447306
0.49142
0.533469
0.57226
0.607903
0.639667
0.67075
0.696722
0.723984
0.743688
0.764299
0.779663
0.838571
1.73236
1.70445
0.859394
0.726711
0.609132
0.557012
0.538005
0.538582
0.533101
0.524826
0.509575
0.488838
0.461749
0.428669
0.390961
0.350166
0.308101
0.267124
0.230335
0.201435
0.187104
0.188624
0.206257
0.238362
0.278604
0.323787
0.371273
0.419142
0.465753
0.50974
0.550165
0.586904
0.620022
0.651588
0.679093
0.706219
0.726334
0.746661
0.762458
0.813314
1.73807
1.64727
0.775362
0.642193
0.528481
0.483433
0.477846
0.500661
0.5042
0.500429
0.487275
0.46726
0.439782
0.405602
0.366069
0.32263
0.276896
0.230923
0.187557
0.151168
0.130869
0.133223
0.157788
0.197665
0.244579
0.294877
0.346235
0.397017
0.445845
0.491516
0.533214
0.570877
0.605021
0.636978
0.665642
0.692424
0.712944
0.732728
0.748253
0.791685
1.73074
1.26766
0.45993
0.435851
0.397788
0.379954
0.425169
0.470051
0.48514
0.482979
0.472036
0.452885
0.42518
0.390165
0.349227
0.303692
0.254911
0.204395
0.154042
0.107257
0.0753958
0.0796381
0.116673
0.166529
0.220134
0.274891
0.329356
0.382387
0.432891
0.479833
0.522531
0.560977
0.595913
0.628345
0.658054
0.684722
0.705944
0.725517
0.740915
0.780244
1.73278
)
;

boundaryField
{
    inlet
    {
        type            calculated;
        value           uniform 0;
    }
    outlet
    {
        type            calculated;
        value           nonuniform List<scalar> 
165
(
1.26766
1.64727
1.70445
1.69889
1.70919
1.72553
1.74017
1.73916
1.74782
1.74908
1.75875
1.76079
1.76977
1.77097
1.77723
1.77721
1.77164
1.72504
1.71303
2.35371
2.35371
1.69373
1.65554
1.71171
1.72766
1.73676
1.73995
1.74572
1.74508
1.74779
1.74411
1.74507
1.74222
1.74438
1.74169
1.74241
1.73803
1.74105
1.72791
1.75235
1.7524
1.72785
1.74123
1.73799
1.74293
1.74185
1.74541
1.74283
1.74657
1.74536
1.74978
1.74753
1.74944
1.74448
1.74293
1.73538
1.71978
1.65963
1.68362
2.35563
1.73278
1.73074
1.73807
1.73236
1.73613
1.73501
1.73949
1.73935
1.74522
1.74529
1.74978
1.74753
1.74944
1.74491
1.74348
1.73612
1.7201
1.66094
1.6887
2.35563
1.72985
1.73026
1.73505
1.73026
1.72985
2.35563
1.6887
1.66094
1.7201
1.73612
1.74348
1.74491
1.74944
1.74753
1.74978
1.74529
1.74522
1.73935
1.73949
1.73501
1.73613
1.73236
1.73807
1.73074
1.73278
2.35371
1.69373
1.65554
1.71171
1.72766
1.73676
1.73995
1.74572
1.74508
1.74779
1.74411
1.74507
1.74222
1.74438
1.74169
1.74241
1.73803
1.74105
1.72791
1.75235
1.7524
1.72785
1.74123
1.73799
1.74293
1.74185
1.74541
1.74283
1.74657
1.74536
1.74978
1.74753
1.74944
1.74448
1.74293
1.73538
1.71978
1.65963
1.68362
2.35563
2.35371
1.71303
1.72504
1.77164
1.77721
1.77723
1.77097
1.76977
1.76079
1.75875
1.74908
1.74782
1.73916
1.74017
1.72553
1.70919
1.69889
1.70445
1.64727
1.26766
)
;
    }
    obstacle
    {
        type            calculated;
        value           nonuniform List<scalar> 
40
(
0.584387
0.0955759
0.101068
0.1043
0.10485
0.105115
0.103152
0.0978069
0.0909963
0.0734867
0.584387
0.0955759
0.101068
0.1043
0.10485
0.105115
0.103152
0.0978069
0.0909963
0.0734867
0.0770018
0.092552
0.106593
0.136063
0.238343
0.0770018
0.092552
0.106593
0.136063
0.238343
0.29577
0.225805
0.175345
0.13843
0.150078
0.29577
0.225805
0.175345
0.13843
0.150078
)
;
    }
    empty
    {
        type            empty;
    }
}


// ************************************************************************* //
