/*--------------------------------*- C++ -*----------------------------------*\
| =========                 |                                                 |
| \\      /  F ield         | OpenFOAM: The Open Source CFD Toolbox           |
|  \\    /   O peration     | Version:  v1912                                 |
|   \\  /    A nd           | Website:  www.openfoam.com                      |
|    \\/     M anipulation  |                                                 |
\*---------------------------------------------------------------------------*/
FoamFile
{
    version     2.0;
    format      ascii;
    class       volVectorField;
    location    "3.58";
    object      U;
}
// * * * * * * * * * * * * * * * * * * * * * * * * * * * * * * * * * * * * * //

dimensions      [0 1 -1 0 0 0 0];


internalField   nonuniform List<vector> 
1900
(
(-0.630683 -4.33633e-06 0)
(-0.0967127 -9.13651e-06 0)
(-0.102731 -8.9758e-06 0)
(-0.106466 1.49254e-05 0)
(-0.107172 0.000256068 0)
(-0.107457 0.00041012 0)
(-0.105412 0.000552995 0)
(-0.0998829 0.000435118 0)
(-0.0928823 -0.00462392 0)
(-0.075037 -0.0152713 0)
(-0.630692 -7.26784e-06 0)
(-0.0967325 -1.58506e-05 0)
(-0.102732 -9.51216e-06 0)
(-0.106447 5.27733e-05 0)
(-0.106998 0.000280182 0)
(-0.106974 0.000438211 0)
(-0.104129 0.000874591 0)
(-0.0979007 0.000750154 0)
(-0.0907833 -0.00315654 0)
(-0.0828134 -0.0102649 0)
(-0.630696 -4.72881e-14 0)
(-0.0967449 -2.27632e-14 0)
(-0.102723 -1.14207e-14 0)
(-0.106413 -1.50575e-14 0)
(-0.106842 -1.26495e-14 0)
(-0.106593 -1.65928e-14 0)
(-0.103346 -5.52638e-15 0)
(-0.0973534 -3.75033e-15 0)
(-0.0921225 -2.13627e-14 0)
(-0.0899795 -8.40345e-15 0)
(-0.630692 7.26784e-06 0)
(-0.0967325 1.58506e-05 0)
(-0.102732 9.51216e-06 0)
(-0.106447 -5.27733e-05 0)
(-0.106998 -0.000280182 0)
(-0.106974 -0.000438211 0)
(-0.104129 -0.000874591 0)
(-0.0979007 -0.000750154 0)
(-0.0907833 0.00315654 0)
(-0.0828134 0.0102649 0)
(-0.630683 4.33633e-06 0)
(-0.0967127 9.13651e-06 0)
(-0.102731 8.9758e-06 0)
(-0.106466 -1.49254e-05 0)
(-0.107172 -0.000256068 0)
(-0.107457 -0.00041012 0)
(-0.105412 -0.000552995 0)
(-0.0998829 -0.000435118 0)
(-0.0928823 0.00462392 0)
(-0.075037 0.0152713 0)
(-0.0688132 -0.0381473 0)
(-0.0825038 -0.0456741 0)
(-0.0907629 -0.0574397 0)
(-0.113619 -0.0723704 0)
(-0.234524 -0.0606862 0)
(-0.0875533 -0.0231299 0)
(-0.10101 -0.0289238 0)
(-0.121024 -0.0409144 0)
(-0.171267 -0.0540478 0)
(-0.287925 -0.0515572 0)
(-0.0968965 -5.20801e-15 0)
(-0.111168 3.97322e-16 0)
(-0.139952 2.05811e-14 0)
(-0.1988 3.79352e-15 0)
(-0.30642 -2.82681e-16 0)
(-0.0875533 0.0231299 0)
(-0.10101 0.0289238 0)
(-0.121024 0.0409144 0)
(-0.171267 0.0540478 0)
(-0.287925 0.0515572 0)
(-0.0688132 0.0381473 0)
(-0.0825038 0.0456741 0)
(-0.0907629 0.0574397 0)
(-0.113619 0.0723704 0)
(-0.234524 0.0606862 0)
(-0.286994 0.0148508 0)
(-0.212249 0.0177228 0)
(-0.161746 0.0170443 0)
(-0.123995 0.0334002 0)
(-0.130926 0.0557873 0)
(-0.299907 0.0134541 0)
(-0.223629 0.011689 0)
(-0.166646 0.010181 0)
(-0.096517 0.026103 0)
(-0.00688168 0.0734284 0)
(-0.307515 7.39507e-15 0)
(-0.228596 3.63354e-14 0)
(-0.164488 7.80427e-14 0)
(-0.0769305 1.33562e-13 0)
(0.0580037 1.23298e-13 0)
(-0.299907 -0.0134541 0)
(-0.223629 -0.011689 0)
(-0.166646 -0.010181 0)
(-0.096517 -0.026103 0)
(-0.00688168 -0.0734284 0)
(-0.286994 -0.0148508 0)
(-0.212249 -0.0177228 0)
(-0.161746 -0.0170443 0)
(-0.123995 -0.0334002 0)
(-0.130926 -0.0557873 0)
(-0.288712 0.0321817 0)
(0.0706647 -0.159429 0)
(0.00157964 -0.210121 0)
(-0.173077 -0.151613 0)
(-0.267079 -0.0722661 0)
(-0.337031 -0.0431719 0)
(-0.382396 -0.0356018 0)
(-0.397948 -0.0329114 0)
(-0.397552 -0.0316922 0)
(-0.389426 -0.0307172 0)
(-0.374117 -0.0301008 0)
(-0.351034 -0.0298635 0)
(-0.32147 -0.0296681 0)
(-0.286564 -0.0295137 0)
(-0.247424 -0.0293822 0)
(-0.205075 -0.0292712 0)
(-0.160457 -0.0291742 0)
(-0.114298 -0.0291077 0)
(-0.0669997 -0.0290149 0)
(-0.0190804 -0.0291479 0)
(0.0289583 -0.0291039 0)
(0.0773732 -0.0289451 0)
(0.126014 -0.0290002 0)
(0.174341 -0.0290104 0)
(0.222097 -0.0290324 0)
(0.268749 -0.0290484 0)
(0.313578 -0.0290631 0)
(0.355736 -0.0290727 0)
(0.394346 -0.0290773 0)
(0.428811 -0.0290755 0)
(0.45912 -0.0290812 0)
(0.485995 -0.0290332 0)
(0.51029 -0.0291084 0)
(0.532385 -0.0288094 0)
(0.551552 -0.0292065 0)
(0.567203 -0.0283853 0)
(0.581388 -0.0293947 0)
(0.592049 -0.0283402 0)
(0.595931 -0.0345687 0)
(1.2262 -0.0393405 0)
(0.166557 0.0743732 0)
(0.374238 -0.102494 0)
(0.178231 -0.140735 0)
(-0.116279 -0.0882106 0)
(-0.263454 -0.0370264 0)
(-0.337793 -0.021216 0)
(-0.383441 -0.0176716 0)
(-0.399108 -0.0164122 0)
(-0.398757 -0.0158512 0)
(-0.390623 -0.0153279 0)
(-0.375254 -0.0150373 0)
(-0.352087 -0.0149163 0)
(-0.322413 -0.0148184 0)
(-0.287386 -0.0147398 0)
(-0.248118 -0.0146731 0)
(-0.205642 -0.0146169 0)
(-0.160896 -0.0145681 0)
(-0.11461 -0.0145347 0)
(-0.0671841 -0.0144884 0)
(-0.0191376 -0.014555 0)
(0.0290291 -0.0145331 0)
(0.0775718 -0.014454 0)
(0.126339 -0.014482 0)
(0.174791 -0.0144878 0)
(0.22267 -0.0144998 0)
(0.269443 -0.0145091 0)
(0.314389 -0.0145179 0)
(0.35666 -0.0145245 0)
(0.395377 -0.0145285 0)
(0.429939 -0.0145289 0)
(0.460331 -0.0145319 0)
(0.487277 -0.0145065 0)
(0.511615 -0.0145364 0)
(0.533765 -0.0143749 0)
(0.552886 -0.0145468 0)
(0.568542 -0.0141211 0)
(0.582704 -0.0145885 0)
(0.593203 -0.0140591 0)
(0.596863 -0.0173642 0)
(1.22617 -0.0179225 0)
(0.296276 -6.42409e-15 0)
(0.469449 -1.33958e-13 0)
(0.254949 -1.89362e-13 0)
(-0.0902863 -1.53893e-13 0)
(-0.265104 -8.89326e-16 0)
(-0.340894 -2.72079e-14 0)
(-0.385592 -4.55161e-13 0)
(-0.400862 -4.54591e-13 0)
(-0.400336 -8.70482e-14 0)
(-0.391927 -1.74081e-12 0)
(-0.37637 -3.08277e-12 0)
(-0.353022 -3.08634e-12 0)
(-0.323185 -2.6139e-12 0)
(-0.288013 -1.45411e-12 0)
(-0.248617 8.34778e-13 0)
(-0.206027 7.45251e-12 0)
(-0.161181 1.80966e-11 0)
(-0.114805 1.48534e-11 0)
(-0.0672955 -1.40228e-11 0)
(-0.0191704 -2.1203e-11 0)
(0.0290733 3.09343e-12 0)
(0.0776946 1.94885e-11 0)
(0.126544 -1.61627e-11 0)
(0.175087 -3.88254e-11 0)
(0.223065 -1.28514e-11 0)
(0.26995 1.63755e-11 0)
(0.315022 2.29341e-11 0)
(0.357438 1.62968e-11 0)
(0.39632 8.65243e-12 0)
(0.431071 1.27077e-11 0)
(0.461677 9.27117e-12 0)
(0.488866 1.21468e-11 0)
(0.513478 1.15738e-12 0)
(0.535948 7.2123e-12 0)
(0.555439 1.96882e-11 0)
(0.571456 -1.32227e-11 0)
(0.586108 1.03192e-11 0)
(0.596855 1.55037e-11 0)
(0.600208 9.97812e-13 0)
(1.23243 -1.22879e-11 0)
(0.166557 -0.0743732 0)
(0.374238 0.102494 0)
(0.178231 0.140735 0)
(-0.116279 0.0882106 0)
(-0.263454 0.0370264 0)
(-0.337793 0.021216 0)
(-0.383441 0.0176716 0)
(-0.399108 0.0164122 0)
(-0.398757 0.0158512 0)
(-0.390623 0.0153279 0)
(-0.375254 0.0150373 0)
(-0.352087 0.0149163 0)
(-0.322413 0.0148184 0)
(-0.287386 0.0147398 0)
(-0.248118 0.0146731 0)
(-0.205642 0.0146169 0)
(-0.160896 0.0145681 0)
(-0.11461 0.0145347 0)
(-0.0671841 0.0144884 0)
(-0.0191376 0.014555 0)
(0.0290291 0.0145331 0)
(0.0775718 0.014454 0)
(0.126339 0.014482 0)
(0.174791 0.0144878 0)
(0.22267 0.0144998 0)
(0.269443 0.0145091 0)
(0.314389 0.0145179 0)
(0.35666 0.0145245 0)
(0.395377 0.0145285 0)
(0.429939 0.0145289 0)
(0.460331 0.0145319 0)
(0.487277 0.0145065 0)
(0.511615 0.0145364 0)
(0.533765 0.0143749 0)
(0.552886 0.0145468 0)
(0.568542 0.0141211 0)
(0.582704 0.0145885 0)
(0.593203 0.0140591 0)
(0.596863 0.0173642 0)
(1.22617 0.0179225 0)
(-0.288712 -0.0321817 0)
(0.0706647 0.159429 0)
(0.00157964 0.210121 0)
(-0.173077 0.151613 0)
(-0.267079 0.0722661 0)
(-0.337031 0.0431719 0)
(-0.382396 0.0356018 0)
(-0.397948 0.0329114 0)
(-0.397552 0.0316922 0)
(-0.389426 0.0307172 0)
(-0.374117 0.0301008 0)
(-0.351034 0.0298635 0)
(-0.32147 0.0296681 0)
(-0.286564 0.0295137 0)
(-0.247424 0.0293822 0)
(-0.205075 0.0292712 0)
(-0.160457 0.0291742 0)
(-0.114298 0.0291077 0)
(-0.0669997 0.0290149 0)
(-0.0190804 0.0291479 0)
(0.0289583 0.0291039 0)
(0.0773732 0.0289451 0)
(0.126014 0.0290002 0)
(0.174341 0.0290104 0)
(0.222097 0.0290324 0)
(0.268749 0.0290484 0)
(0.313578 0.0290631 0)
(0.355736 0.0290727 0)
(0.394346 0.0290773 0)
(0.428811 0.0290755 0)
(0.45912 0.0290812 0)
(0.485995 0.0290332 0)
(0.51029 0.0291084 0)
(0.532385 0.0288094 0)
(0.551552 0.0292065 0)
(0.567203 0.0283853 0)
(0.581388 0.0293947 0)
(0.592049 0.0283402 0)
(0.595931 0.0345687 0)
(1.2262 0.0393405 0)
(-0.978234 -0.0770218 0)
(-0.313774 0.181103 0)
(-0.238522 0.280505 0)
(-0.264116 0.218582 0)
(-0.298011 0.13096 0)
(-0.350429 0.0881417 0)
(-0.389676 0.0737847 0)
(-0.402614 0.0682738 0)
(-0.401373 0.0655477 0)
(-0.39242 0.0637874 0)
(-0.376554 0.0625612 0)
(-0.353129 0.0620729 0)
(-0.323275 0.0616526 0)
(-0.288111 0.0613274 0)
(-0.24873 0.0610463 0)
(-0.206138 0.0608094 0)
(-0.161277 0.0606029 0)
(-0.11488 0.0604614 0)
(-0.0673489 0.0602663 0)
(-0.0192025 0.0605435 0)
(0.0290564 0.0604531 0)
(0.077688 0.0601233 0)
(0.126548 0.0602398 0)
(0.175094 0.0602635 0)
(0.223068 0.0603126 0)
(0.269941 0.0603497 0)
(0.314993 0.0603843 0)
(0.357382 0.0604077 0)
(0.396231 0.0604208 0)
(0.430943 0.0604162 0)
(0.461501 0.060432 0)
(0.488605 0.0603126 0)
(0.513152 0.0604793 0)
(0.53539 0.0598382 0)
(0.55502 0.0605534 0)
(0.57092 0.0590356 0)
(0.585539 0.0607615 0)
(0.596933 0.0587853 0)
(0.601103 0.0707964 0)
(1.23414 0.068774 0)
(-1.16672 0.0021913 0)
(-0.5469 0.274339 0)
(-0.423485 0.33462 0)
(-0.352699 0.277592 0)
(-0.361639 0.193665 0)
(-0.37489 0.150474 0)
(-0.400651 0.130789 0)
(-0.406134 0.121543 0)
(-0.404401 0.116992 0)
(-0.393958 0.114 0)
(-0.377326 0.112116 0)
(-0.353626 0.111244 0)
(-0.323671 0.110481 0)
(-0.28845 0.109906 0)
(-0.249036 0.109402 0)
(-0.20639 0.108981 0)
(-0.161471 0.108615 0)
(-0.11502 0.108365 0)
(-0.0674486 0.10802 0)
(-0.0192726 0.108527 0)
(0.0290012 0.108368 0)
(0.0776376 0.107774 0)
(0.126504 0.107984 0)
(0.175044 0.108027 0)
(0.222999 0.108115 0)
(0.269837 0.108182 0)
(0.314835 0.108243 0)
(0.35715 0.108283 0)
(0.395911 0.108309 0)
(0.430511 0.108297 0)
(0.46094 0.108343 0)
(0.487831 0.108099 0)
(0.512263 0.108462 0)
(0.534066 0.107305 0)
(0.553864 0.108508 0)
(0.569584 0.106209 0)
(0.584197 0.108804 0)
(0.596129 0.105953 0)
(0.601319 0.124566 0)
(1.22162 0.119503 0)
(-1.1873 0.0684439 0)
(-0.618476 0.290013 0)
(-0.497671 0.345825 0)
(-0.418837 0.294126 0)
(-0.404318 0.23742 0)
(-0.403896 0.203452 0)
(-0.412961 0.183889 0)
(-0.412312 0.173709 0)
(-0.407797 0.167471 0)
(-0.395993 0.163618 0)
(-0.378462 0.161499 0)
(-0.354449 0.160214 0)
(-0.324328 0.159107 0)
(-0.288994 0.158278 0)
(-0.249504 0.157548 0)
(-0.206765 0.156947 0)
(-0.161749 0.156427 0)
(-0.115212 0.156076 0)
(-0.0675778 0.155589 0)
(-0.0193532 0.156338 0)
(0.02895 0.156112 0)
(0.0776061 0.155248 0)
(0.126502 0.15555 0)
(0.175061 0.155611 0)
(0.223024 0.15574 0)
(0.269855 0.155832 0)
(0.31484 0.155919 0)
(0.357128 0.155971 0)
(0.395851 0.155998 0)
(0.430423 0.155955 0)
(0.460829 0.156042 0)
(0.487538 0.155566 0)
(0.512044 0.156128 0)
(0.533511 0.154444 0)
(0.553757 0.155927 0)
(0.569601 0.153295 0)
(0.58455 0.156234 0)
(0.597202 0.15307 0)
(0.605735 0.176917 0)
(1.22013 0.179256 0)
(-1.18526 0.151428 0)
(-0.63708 0.314197 0)
(-0.528507 0.362121 0)
(-0.46136 0.31595 0)
(-0.435094 0.277502 0)
(-0.427648 0.25062 0)
(-0.424712 0.233743 0)
(-0.420179 0.223395 0)
(-0.411596 0.216827 0)
(-0.398612 0.212693 0)
(-0.380219 0.210245 0)
(-0.35574 0.208614 0)
(-0.325372 0.207167 0)
(-0.289865 0.206088 0)
(-0.250235 0.205145 0)
(-0.207347 0.204371 0)
(-0.162186 0.203711 0)
(-0.11552 0.203267 0)
(-0.0677856 0.202647 0)
(-0.0194821 0.203654 0)
(0.028877 0.203361 0)
(0.0775778 0.202216 0)
(0.126533 0.202603 0)
(0.175136 0.202678 0)
(0.223126 0.202837 0)
(0.269979 0.202959 0)
(0.31494 0.203048 0)
(0.357217 0.203106 0)
(0.395917 0.203143 0)
(0.430369 0.203009 0)
(0.460743 0.203166 0)
(0.487174 0.202364 0)
(0.511753 0.203143 0)
(0.532693 0.200958 0)
(0.553308 0.202569 0)
(0.569252 0.199908 0)
(0.584433 0.202899 0)
(0.597158 0.199974 0)
(0.610732 0.224871 0)
(1.20563 0.228047 0)
(-1.17552 0.207443 0)
(-0.644593 0.341628 0)
(-0.547128 0.3821 0)
(-0.489712 0.341447 0)
(-0.460232 0.315971 0)
(-0.446298 0.294861 0)
(-0.436381 0.2808 0)
(-0.427423 0.271018 0)
(-0.416115 0.264812 0)
(-0.40166 0.260671 0)
(-0.382361 0.257984 0)
(-0.357327 0.256059 0)
(-0.326667 0.254329 0)
(-0.290972 0.253037 0)
(-0.251113 0.251882 0)
(-0.208055 0.250974 0)
(-0.162709 0.250186 0)
(-0.115889 0.249663 0)
(-0.068033 0.24892 0)
(-0.0196406 0.250207 0)
(0.0287825 0.249847 0)
(0.0775337 0.248402 0)
(0.126558 0.24887 0)
(0.175207 0.248946 0)
(0.223238 0.249142 0)
(0.270076 0.249245 0)
(0.315086 0.249383 0)
(0.357267 0.249373 0)
(0.395923 0.24941 0)
(0.430397 0.249201 0)
(0.460665 0.249417 0)
(0.486613 0.248118 0)
(0.511498 0.249176 0)
(0.532154 0.246634 0)
(0.553254 0.248206 0)
(0.569598 0.245751 0)
(0.585298 0.248665 0)
(0.598072 0.246496 0)
(0.619948 0.269199 0)
(1.1948 0.278347 0)
(-1.17426 0.259124 0)
(-0.648589 0.364922 0)
(-0.559916 0.401389 0)
(-0.508252 0.369205 0)
(-0.477861 0.353815 0)
(-0.460001 0.33641 0)
(-0.445719 0.325042 0)
(-0.433495 0.316395 0)
(-0.420304 0.310889 0)
(-0.404607 0.306867 0)
(-0.384515 0.304105 0)
(-0.359105 0.301983 0)
(-0.328188 0.300086 0)
(-0.292215 0.298543 0)
(-0.252151 0.29728 0)
(-0.208859 0.296236 0)
(-0.163313 0.295357 0)
(-0.116313 0.294767 0)
(-0.0683137 0.293914 0)
(-0.0198307 0.295509 0)
(0.0286646 0.295079 0)
(0.0774719 0.293314 0)
(0.126572 0.293853 0)
(0.175275 0.293927 0)
(0.223316 0.294112 0)
(0.270219 0.294262 0)
(0.315064 0.294266 0)
(0.35739 0.29434 0)
(0.395883 0.294294 0)
(0.429951 0.293726 0)
(0.460529 0.294311 0)
(0.485618 0.292265 0)
(0.510566 0.293424 0)
(0.530434 0.290491 0)
(0.552129 0.292023 0)
(0.568104 0.289599 0)
(0.583913 0.292093 0)
(0.59566 0.290881 0)
(0.628785 0.304189 0)
(1.17967 0.316993 0)
(-1.1696 0.311732 0)
(-0.653173 0.390397 0)
(-0.571403 0.423766 0)
(-0.525768 0.399464 0)
(-0.495118 0.390528 0)
(-0.473065 0.375659 0)
(-0.455499 0.366739 0)
(-0.440273 0.35928 0)
(-0.425038 0.3545 0)
(-0.407926 0.350578 0)
(-0.387138 0.347933 0)
(-0.361237 0.345719 0)
(-0.329794 0.3435 0)
(-0.29367 0.34199 0)
(-0.253264 0.340528 0)
(-0.209732 0.339446 0)
(-0.163954 0.338493 0)
(-0.116773 0.337857 0)
(-0.0686025 0.336907 0)
(-0.020053 0.338844 0)
(0.0285211 0.338341 0)
(0.0773835 0.336227 0)
(0.126558 0.336831 0)
(0.175296 0.336875 0)
(0.223379 0.337076 0)
(0.270196 0.337097 0)
(0.315273 0.337302 0)
(0.357099 0.336823 0)
(0.396117 0.337325 0)
(0.429896 0.336149 0)
(0.460331 0.336771 0)
(0.485078 0.334394 0)
(0.510601 0.335717 0)
(0.530549 0.33261 0)
(0.552666 0.333788 0)
(0.570118 0.33193 0)
(0.586437 0.333759 0)
(0.597744 0.33393 0)
(0.641029 0.336578 0)
(1.16457 0.36222 0)
(-1.15122 0.352492 0)
(-0.652347 0.411825 0)
(-0.575434 0.444406 0)
(-0.533878 0.427741 0)
(-0.503483 0.422831 0)
(-0.478459 0.409804 0)
(-0.459549 0.403744 0)
(-0.442742 0.397437 0)
(-0.426883 0.393815 0)
(-0.40957 0.390478 0)
(-0.388799 0.388263 0)
(-0.362563 0.385692 0)
(-0.3315 0.38399 0)
(-0.294939 0.382143 0)
(-0.254399 0.380773 0)
(-0.210618 0.379653 0)
(-0.164618 0.378666 0)
(-0.117251 0.378007 0)
(-0.0688825 0.376972 0)
(-0.0203131 0.379287 0)
(0.0283524 0.378707 0)
(0.0772628 0.376212 0)
(0.126504 0.376876 0)
(0.175265 0.37687 0)
(0.223342 0.377032 0)
(0.270163 0.377029 0)
(0.31484 0.376909 0)
(0.357117 0.376829 0)
(0.394922 0.376383 0)
(0.42861 0.37516 0)
(0.459026 0.375711 0)
(0.482094 0.372236 0)
(0.507244 0.373073 0)
(0.526702 0.369708 0)
(0.548678 0.369593 0)
(0.566407 0.367297 0)
(0.583102 0.368193 0)
(0.593343 0.368392 0)
(0.645411 0.359746 0)
(1.14756 0.394072 0)
(-1.13596 0.401172 0)
(-0.652262 0.4375 0)
(-0.578457 0.466895 0)
(-0.543064 0.456123 0)
(-0.514421 0.453188 0)
(-0.48777 0.442552 0)
(-0.467915 0.438619 0)
(-0.448759 0.432962 0)
(-0.431958 0.430334 0)
(-0.413513 0.427031 0)
(-0.391902 0.4245 0)
(-0.365718 0.422491 0)
(-0.333547 0.420193 0)
(-0.296681 0.418436 0)
(-0.255678 0.417104 0)
(-0.211534 0.415936 0)
(-0.165296 0.414984 0)
(-0.117739 0.414316 0)
(-0.0691728 0.413201 0)
(-0.0206068 0.415925 0)
(0.0281584 0.415267 0)
(0.0771078 0.412357 0)
(0.126402 0.413071 0)
(0.175189 0.413015 0)
(0.223255 0.413065 0)
(0.270145 0.41306 0)
(0.315025 0.412954 0)
(0.356788 0.412199 0)
(0.395955 0.412966 0)
(0.428288 0.410087 0)
(0.459104 0.41117 0)
(0.481981 0.407619 0)
(0.507318 0.407926 0)
(0.526951 0.404386 0)
(0.549859 0.403878 0)
(0.568072 0.401348 0)
(0.58639 0.402183 0)
(0.596493 0.402121 0)
(0.649726 0.389293 0)
(1.12996 0.435371 0)
(-1.11837 0.435743 0)
(-0.649686 0.456227 0)
(-0.578918 0.483369 0)
(-0.54781 0.476748 0)
(-0.519756 0.474921 0)
(-0.49096 0.466187 0)
(-0.469757 0.464444 0)
(-0.448665 0.45955 0)
(-0.431656 0.458454 0)
(-0.412704 0.455402 0)
(-0.392061 0.454472 0)
(-0.365673 0.45245 0)
(-0.334074 0.451047 0)
(-0.297424 0.449834 0)
(-0.256367 0.448677 0)
(-0.212206 0.447795 0)
(-0.165852 0.446906 0)
(-0.118176 0.446283 0)
(-0.0694512 0.445088 0)
(-0.0209244 0.448246 0)
(0.0279366 0.447516 0)
(0.0768966 0.444154 0)
(0.126204 0.444913 0)
(0.174939 0.444738 0)
(0.222915 0.444713 0)
(0.269437 0.444223 0)
(0.314093 0.444059 0)
(0.355194 0.442406 0)
(0.393267 0.442223 0)
(0.425207 0.438815 0)
(0.455158 0.438493 0)
(0.477182 0.433921 0)
(0.502598 0.433332 0)
(0.52205 0.429121 0)
(0.545639 0.427697 0)
(0.564224 0.424256 0)
(0.584065 0.425067 0)
(0.594351 0.423896 0)
(0.646362 0.410709 0)
(1.11212 0.462216 0)
(-1.10136 0.480774 0)
(-0.648272 0.479558 0)
(-0.579646 0.50286 0)
(-0.553395 0.500545 0)
(-0.524044 0.497659 0)
(-0.496307 0.491553 0)
(-0.475107 0.490919 0)
(-0.452839 0.48651 0)
(-0.435973 0.486259 0)
(-0.416416 0.483207 0)
(-0.395721 0.482482 0)
(-0.369028 0.48035 0)
(-0.337101 0.479253 0)
(-0.299592 0.477691 0)
(-0.258007 0.476521 0)
(-0.213349 0.475645 0)
(-0.166648 0.47475 0)
(-0.118745 0.474178 0)
(-0.069816 0.472881 0)
(-0.0212922 0.476489 0)
(0.0276938 0.475702 0)
(0.0766894 0.471862 0)
(0.126068 0.472677 0)
(0.174865 0.472401 0)
(0.222956 0.472347 0)
(0.269687 0.471858 0)
(0.314336 0.471627 0)
(0.355851 0.470239 0)
(0.394001 0.470009 0)
(0.425068 0.466005 0)
(0.455428 0.466102 0)
(0.476849 0.461406 0)
(0.502357 0.46065 0)
(0.52187 0.456538 0)
(0.546383 0.455234 0)
(0.565022 0.451633 0)
(0.586008 0.452805 0)
(0.596426 0.451485 0)
(0.645983 0.43954 0)
(1.09164 0.501374 0)
(-1.08379 0.510946 0)
(-0.645735 0.497643 0)
(-0.580003 0.518662 0)
(-0.556467 0.518162 0)
(-0.525435 0.513848 0)
(-0.498907 0.51099 0)
(-0.476993 0.510201 0)
(-0.453924 0.505907 0)
(-0.436884 0.506273 0)
(-0.416484 0.502826 0)
(-0.395671 0.502994 0)
(-0.368574 0.501193 0)
(-0.336322 0.500893 0)
(-0.298814 0.500174 0)
(-0.257485 0.499949 0)
(-0.213068 0.499634 0)
(-0.166606 0.499165 0)
(-0.118859 0.498856 0)
(-0.0699825 0.497542 0)
(-0.0215811 0.501647 0)
(0.0273902 0.500828 0)
(0.0762553 0.496442 0)
(0.125476 0.497204 0)
(0.173984 0.496632 0)
(0.221636 0.496106 0)
(0.267834 0.49501 0)
(0.311935 0.494116 0)
(0.352637 0.491365 0)
(0.390853 0.491196 0)
(0.4209 0.486121 0)
(0.451261 0.486056 0)
(0.472259 0.48111 0)
(0.497894 0.48004 0)
(0.517393 0.475703 0)
(0.54281 0.474561 0)
(0.56182 0.470759 0)
(0.583803 0.472054 0)
(0.594439 0.470502 0)
(0.64214 0.459619 0)
(1.07202 0.525623 0)
(-1.06401 0.555169 0)
(-0.643952 0.521559 0)
(-0.580713 0.539131 0)
(-0.558759 0.53951 0)
(-0.526925 0.534354 0)
(-0.502763 0.534446 0)
(-0.479068 0.532807 0)
(-0.456517 0.528962 0)
(-0.439557 0.529346 0)
(-0.41875 0.5257 0)
(-0.398653 0.526245 0)
(-0.371461 0.524568 0)
(-0.33931 0.524526 0)
(-0.301549 0.523709 0)
(-0.25971 0.523241 0)
(-0.214837 0.522625 0)
(-0.167978 0.522009 0)
(-0.119866 0.521584 0)
(-0.070684 0.520061 0)
(-0.0220469 0.524592 0)
(0.0271636 0.523774 0)
(0.0762325 0.518937 0)
(0.12571 0.519869 0)
(0.174481 0.519444 0)
(0.222365 0.519128 0)
(0.268716 0.518283 0)
(0.313138 0.51805 0)
(0.353391 0.515098 0)
(0.39149 0.515409 0)
(0.420472 0.510163 0)
(0.450376 0.510207 0)
(0.471045 0.505577 0)
(0.496918 0.504826 0)
(0.51646 0.500836 0)
(0.54269 0.500212 0)
(0.562138 0.496816 0)
(0.584827 0.498367 0)
(0.595671 0.496907 0)
(0.641156 0.487773 0)
(1.04823 0.563945 0)
(-1.04524 0.583023 0)
(-0.640791 0.5415 0)
(-0.580369 0.557367 0)
(-0.559609 0.557946 0)
(-0.528058 0.55262 0)
(-0.505191 0.553868 0)
(-0.479751 0.550782 0)
(-0.457907 0.548003 0)
(-0.440679 0.54812 0)
(-0.41911 0.544032 0)
(-0.399266 0.545386 0)
(-0.371065 0.543006 0)
(-0.338481 0.543285 0)
(-0.30031 0.542515 0)
(-0.258248 0.542427 0)
(-0.213425 0.542204 0)
(-0.16674 0.541877 0)
(-0.118981 0.541826 0)
(-0.0702142 0.540403 0)
(-0.0220837 0.545558 0)
(0.0266318 0.544742 0)
(0.0751225 0.539215 0)
(0.12411 0.539986 0)
(0.172388 0.539168 0)
(0.219935 0.538673 0)
(0.265896 0.537259 0)
(0.310193 0.537212 0)
(0.350105 0.533597 0)
(0.388202 0.534472 0)
(0.416813 0.529376 0)
(0.446682 0.529488 0)
(0.467023 0.524853 0)
(0.493169 0.524141 0)
(0.512675 0.520167 0)
(0.539676 0.519814 0)
(0.559521 0.516543 0)
(0.583007 0.51817 0)
(0.59412 0.516609 0)
(0.637624 0.508285 0)
(1.02697 0.58609 0)
(-1.02093 0.627146 0)
(-0.637534 0.566648 0)
(-0.580118 0.579038 0)
(-0.560818 0.580673 0)
(-0.530186 0.575811 0)
(-0.508103 0.576957 0)
(-0.481382 0.572589 0)
(-0.460843 0.570957 0)
(-0.442583 0.569969 0)
(-0.420864 0.565717 0)
(-0.400814 0.56614 0)
(-0.372496 0.562891 0)
(-0.341082 0.564265 0)
(-0.302575 0.562541 0)
(-0.260648 0.562286 0)
(-0.215682 0.561496 0)
(-0.168866 0.560753 0)
(-0.12082 0.560338 0)
(-0.0715678 0.558407 0)
(-0.0228244 0.56383 0)
(0.0266099 0.563083 0)
(0.0757181 0.557321 0)
(0.125209 0.558607 0)
(0.173734 0.55818 0)
(0.221347 0.558229 0)
(0.267238 0.557221 0)
(0.311368 0.558012 0)
(0.350742 0.554728 0)
(0.388186 0.555926 0)
(0.415536 0.551263 0)
(0.445467 0.552552 0)
(0.465838 0.548952 0)
(0.49246 0.549166 0)
(0.512291 0.546109 0)
(0.539957 0.546463 0)
(0.560215 0.543881 0)
(0.584128 0.545651 0)
(0.595281 0.543965 0)
(0.636097 0.537171 0)
(0.999168 0.624128 0)
(-1.00034 0.652338 0)
(-0.634053 0.588597 0)
(-0.579755 0.599785 0)
(-0.561825 0.600508 0)
(-0.532351 0.595447 0)
(-0.510692 0.595918 0)
(-0.483094 0.590553 0)
(-0.463235 0.589554 0)
(-0.443897 0.587511 0)
(-0.421702 0.582748 0)
(-0.401943 0.583321 0)
(-0.373087 0.579979 0)
(-0.340817 0.580094 0)
(-0.302091 0.578009 0)
(-0.259558 0.577607 0)
(-0.214187 0.576647 0)
(-0.167155 0.575733 0)
(-0.119164 0.575192 0)
(-0.0703244 0.572995 0)
(-0.0225127 0.578874 0)
(0.0256543 0.578129 0)
(0.0737282 0.571796 0)
(0.122749 0.573306 0)
(0.171121 0.572998 0)
(0.218831 0.573382 0)
(0.26486 0.57232 0)
(0.309324 0.573866 0)
(0.348428 0.570355 0)
(0.386224 0.572915 0)
(0.412781 0.568826 0)
(0.442461 0.57015 0)
(0.462445 0.566897 0)
(0.489353 0.567465 0)
(0.509268 0.564847 0)
(0.537572 0.565707 0)
(0.558339 0.563703 0)
(0.582759 0.565621 0)
(0.594112 0.564022 0)
(0.632877 0.55788 0)
(0.97642 0.643215 0)
(-0.972509 0.688244 0)
(-0.629728 0.603703 0)
(-0.57921 0.615269 0)
(-0.563341 0.61984 0)
(-0.534598 0.615431 0)
(-0.512896 0.614581 0)
(-0.485372 0.608034 0)
(-0.466722 0.607245 0)
(-0.445802 0.60359 0)
(-0.42483 0.599427 0)
(-0.404744 0.598963 0)
(-0.374955 0.593667 0)
(-0.344306 0.594984 0)
(-0.304925 0.591787 0)
(-0.262956 0.591841 0)
(-0.217596 0.590568 0)
(-0.170456 0.589572 0)
(-0.122078 0.588866 0)
(-0.072478 0.586359 0)
(-0.0235259 0.59274 0)
(0.0261367 0.592143 0)
(0.0753249 0.585379 0)
(0.125106 0.587236 0)
(0.173833 0.587108 0)
(0.221665 0.587846 0)
(0.267449 0.586823 0)
(0.311639 0.588901 0)
(0.35012 0.585585 0)
(0.387446 0.588743 0)
(0.413559 0.585701 0)
(0.443536 0.588218 0)
(0.463652 0.586075 0)
(0.490862 0.587379 0)
(0.510883 0.585531 0)
(0.539313 0.586765 0)
(0.560221 0.585343 0)
(0.584632 0.587125 0)
(0.594235 0.583147 0)
(0.630692 0.573438 0)
(0.945375 0.6725 0)
(-0.939156 0.69401 0)
(-0.617049 0.610202 0)
(-0.57297 0.62218 0)
(-0.562972 0.627154 0)
(-0.537787 0.623465 0)
(-0.51721 0.622503 0)
(-0.489924 0.61658 0)
(-0.471869 0.615835 0)
(-0.44845 0.610851 0)
(-0.42837 0.608079 0)
(-0.40654 0.606418 0)
(-0.376802 0.60215 0)
(-0.345045 0.6045 0)
(-0.30442 0.602015 0)
(-0.261548 0.603591 0)
(-0.215427 0.602358 0)
(-0.167932 0.601487 0)
(-0.11969 0.600275 0)
(-0.0710268 0.596808 0)
(-0.0231426 0.602948 0)
(0.0248894 0.602456 0)
(0.0729257 0.595985 0)
(0.121794 0.598929 0)
(0.170294 0.599393 0)
(0.218351 0.600483 0)
(0.264653 0.598907 0)
(0.309615 0.600639 0)
(0.348361 0.595732 0)
(0.386643 0.598006 0)
(0.41266 0.594255 0)
(0.442809 0.596581 0)
(0.462623 0.594577 0)
(0.490007 0.59602 0)
(0.509914 0.594318 0)
(0.538453 0.5956 0)
(0.559242 0.594313 0)
(0.58162 0.594792 0)
(0.588659 0.588882 0)
(0.617291 0.581463 0)
(0.912575 0.664255 0)
(-1.01176 0.52031 0)
(-0.593602 0.607354 0)
(-0.568922 0.637174 0)
(-0.558013 0.651084 0)
(-0.535797 0.651527 0)
(-0.515716 0.653469 0)
(-0.48744 0.651736 0)
(-0.468321 0.654079 0)
(-0.44203 0.652487 0)
(-0.421294 0.65364 0)
(-0.397792 0.653024 0)
(-0.374517 0.647231 0)
(-0.353065 0.63874 0)
(-0.324549 0.624916 0)
(-0.289922 0.613895 0)
(-0.24652 0.603717 0)
(-0.19708 0.597035 0)
(-0.14291 0.593548 0)
(-0.0840018 0.59062 0)
(-0.027874 0.597955 0)
(0.0289905 0.597647 0)
(0.08506 0.589952 0)
(0.144348 0.592456 0)
(0.198649 0.595255 0)
(0.249093 0.602067 0)
(0.291403 0.60975 0)
(0.330223 0.622147 0)
(0.355608 0.63193 0)
(0.383159 0.642449 0)
(0.402514 0.644117 0)
(0.430856 0.645937 0)
(0.451111 0.642138 0)
(0.480061 0.641048 0)
(0.50076 0.637138 0)
(0.530944 0.635536 0)
(0.552181 0.6321 0)
(0.572186 0.62976 0)
(0.581605 0.615246 0)
(0.592808 0.587726 0)
(1.00716 0.473111 0)
(-1.02688 1.02903 0)
(-0.481248 1.01331 0)
(-0.645895 0.932382 0)
(-0.654408 0.961417 0)
(-0.625256 0.990448 0)
(-0.60705 1.01162 0)
(-0.570237 1.0378 0)
(-0.548742 1.05824 0)
(-0.510827 1.08125 0)
(-0.486288 1.10056 0)
(-0.446421 1.12078 0)
(-0.416651 1.13943 0)
(-0.373892 1.15816 0)
(-0.338118 1.17617 0)
(-0.291906 1.19109 0)
(-0.249117 1.20507 0)
(-0.196561 1.2139 0)
(-0.144821 1.22542 0)
(-0.0850247 1.22192 0)
(-0.0305967 1.24361 0)
(0.0308199 1.24364 0)
(0.0852305 1.22178 0)
(0.145234 1.2254 0)
(0.196805 1.21361 0)
(0.25007 1.20501 0)
(0.292202 1.19063 0)
(0.339816 1.17591 0)
(0.374531 1.15751 0)
(0.419048 1.13857 0)
(0.448539 1.1194 0)
(0.489975 1.09836 0)
(0.515455 1.07823 0)
(0.555307 1.05387 0)
(0.578107 1.03196 0)
(0.617886 1.00333 0)
(0.637529 0.979867 0)
(0.669577 0.947318 0)
(0.661973 0.913305 0)
(0.49112 0.996387 0)
(1.02023 1.02729 0)
(-1.02688 -1.02903 0)
(-0.481248 -1.01331 0)
(-0.645895 -0.932382 0)
(-0.654408 -0.961417 0)
(-0.625256 -0.990448 0)
(-0.60705 -1.01162 0)
(-0.570237 -1.0378 0)
(-0.548742 -1.05824 0)
(-0.510827 -1.08125 0)
(-0.486288 -1.10056 0)
(-0.446421 -1.12078 0)
(-0.416651 -1.13943 0)
(-0.373892 -1.15816 0)
(-0.338118 -1.17617 0)
(-0.291906 -1.19109 0)
(-0.249117 -1.20507 0)
(-0.196561 -1.2139 0)
(-0.144821 -1.22542 0)
(-0.0850247 -1.22192 0)
(-0.0305967 -1.24361 0)
(0.0308199 -1.24364 0)
(0.0852305 -1.22178 0)
(0.145234 -1.2254 0)
(0.196805 -1.21361 0)
(0.25007 -1.20501 0)
(0.292202 -1.19063 0)
(0.339816 -1.17591 0)
(0.374531 -1.15751 0)
(0.419048 -1.13857 0)
(0.448539 -1.1194 0)
(0.489975 -1.09836 0)
(0.515455 -1.07823 0)
(0.555307 -1.05387 0)
(0.578107 -1.03196 0)
(0.617886 -1.00333 0)
(0.637529 -0.979867 0)
(0.669577 -0.947318 0)
(0.661973 -0.913305 0)
(0.49112 -0.996387 0)
(1.02023 -1.02729 0)
(-1.01176 -0.52031 0)
(-0.593602 -0.607354 0)
(-0.568922 -0.637174 0)
(-0.558013 -0.651084 0)
(-0.535797 -0.651527 0)
(-0.515716 -0.653469 0)
(-0.48744 -0.651736 0)
(-0.468321 -0.654079 0)
(-0.44203 -0.652487 0)
(-0.421294 -0.65364 0)
(-0.397792 -0.653024 0)
(-0.374517 -0.647231 0)
(-0.353065 -0.63874 0)
(-0.324549 -0.624916 0)
(-0.289922 -0.613895 0)
(-0.24652 -0.603717 0)
(-0.19708 -0.597035 0)
(-0.14291 -0.593548 0)
(-0.0840018 -0.59062 0)
(-0.027874 -0.597955 0)
(0.0289905 -0.597647 0)
(0.08506 -0.589952 0)
(0.144348 -0.592456 0)
(0.198649 -0.595255 0)
(0.249093 -0.602067 0)
(0.291403 -0.60975 0)
(0.330223 -0.622147 0)
(0.355608 -0.63193 0)
(0.383159 -0.642449 0)
(0.402514 -0.644117 0)
(0.430856 -0.645937 0)
(0.451111 -0.642138 0)
(0.480061 -0.641048 0)
(0.50076 -0.637138 0)
(0.530944 -0.635536 0)
(0.552181 -0.6321 0)
(0.572186 -0.62976 0)
(0.581605 -0.615246 0)
(0.592808 -0.587726 0)
(1.00716 -0.473111 0)
(-0.939156 -0.69401 0)
(-0.617049 -0.610202 0)
(-0.57297 -0.62218 0)
(-0.562972 -0.627154 0)
(-0.537787 -0.623465 0)
(-0.51721 -0.622503 0)
(-0.489924 -0.61658 0)
(-0.471869 -0.615835 0)
(-0.44845 -0.610851 0)
(-0.42837 -0.608079 0)
(-0.40654 -0.606418 0)
(-0.376802 -0.60215 0)
(-0.345045 -0.6045 0)
(-0.30442 -0.602015 0)
(-0.261548 -0.603591 0)
(-0.215427 -0.602358 0)
(-0.167932 -0.601487 0)
(-0.11969 -0.600275 0)
(-0.0710268 -0.596808 0)
(-0.0231426 -0.602948 0)
(0.0248894 -0.602456 0)
(0.0729257 -0.595985 0)
(0.121794 -0.598929 0)
(0.170294 -0.599393 0)
(0.218351 -0.600483 0)
(0.264653 -0.598907 0)
(0.309615 -0.600639 0)
(0.348361 -0.595732 0)
(0.386643 -0.598006 0)
(0.41266 -0.594255 0)
(0.442809 -0.596581 0)
(0.462623 -0.594577 0)
(0.490007 -0.59602 0)
(0.509914 -0.594318 0)
(0.538453 -0.5956 0)
(0.559242 -0.594313 0)
(0.58162 -0.594792 0)
(0.588659 -0.588882 0)
(0.617291 -0.581463 0)
(0.912575 -0.664255 0)
(-0.972509 -0.688244 0)
(-0.629728 -0.603703 0)
(-0.57921 -0.615269 0)
(-0.563341 -0.61984 0)
(-0.534598 -0.615431 0)
(-0.512896 -0.614581 0)
(-0.485372 -0.608034 0)
(-0.466722 -0.607245 0)
(-0.445802 -0.60359 0)
(-0.42483 -0.599427 0)
(-0.404744 -0.598963 0)
(-0.374955 -0.593667 0)
(-0.344306 -0.594984 0)
(-0.304925 -0.591787 0)
(-0.262956 -0.591841 0)
(-0.217596 -0.590568 0)
(-0.170456 -0.589572 0)
(-0.122078 -0.588866 0)
(-0.072478 -0.586359 0)
(-0.0235259 -0.59274 0)
(0.0261367 -0.592143 0)
(0.0753249 -0.585379 0)
(0.125106 -0.587236 0)
(0.173833 -0.587108 0)
(0.221665 -0.587846 0)
(0.267449 -0.586823 0)
(0.311639 -0.588901 0)
(0.35012 -0.585585 0)
(0.387446 -0.588743 0)
(0.413559 -0.585701 0)
(0.443536 -0.588218 0)
(0.463652 -0.586075 0)
(0.490862 -0.587379 0)
(0.510883 -0.585531 0)
(0.539313 -0.586765 0)
(0.560221 -0.585343 0)
(0.584632 -0.587125 0)
(0.594235 -0.583147 0)
(0.630692 -0.573438 0)
(0.945375 -0.6725 0)
(-1.00034 -0.652338 0)
(-0.634053 -0.588597 0)
(-0.579755 -0.599785 0)
(-0.561825 -0.600508 0)
(-0.532351 -0.595447 0)
(-0.510692 -0.595918 0)