/*--------------------------------*- C++ -*----------------------------------*\
| =========                 |                                                 |
| \\      /  F ield         | OpenFOAM: The Open Source CFD Toolbox           |
|  \\    /   O peration     | Version:  v1912                                 |
|   \\  /    A nd           | Website:  www.openfoam.com                      |
|    \\/     M anipulation  |                                                 |
\*---------------------------------------------------------------------------*/
FoamFile
{
    version     2.0;
    format      ascii;
    class       volScalarField;
    location    "6.06";
    object      Ma;
}
// * * * * * * * * * * * * * * * * * * * * * * * * * * * * * * * * * * * * * //

dimensions      [0 0 0 0 0 0 0];


internalField   nonuniform List<scalar> 
1900
(
0.76562
0.0686776
0.0872433
0.0847468
0.0892702
0.0931732
0.0971721
0.0997234
0.0999712
0.0918264
0.76562
0.068674
0.0872434
0.08476
0.0893183
0.0932471
0.0967951
0.0989687
0.101355
0.103055
0.76562
0.0686724
0.0872433
0.084764
0.0893155
0.0932063
0.0965935
0.0989398
0.101876
0.109293
0.76562
0.068674
0.0872434
0.08476
0.0893183
0.0932471
0.0967951
0.0989687
0.101355
0.103055
0.76562
0.0686776
0.0872433
0.0847468
0.0892702
0.0931732
0.0971721
0.0997234
0.0999712
0.0918264
0.100248
0.13806
0.190445
0.275069
0.420923
0.119027
0.145022
0.176373
0.241795
0.38445
0.126704
0.152026
0.183356
0.245398
0.381285
0.119027
0.145022
0.176373
0.241795
0.38445
0.100248
0.13806
0.190445
0.275069
0.420923
0.944267
1.39291
1.64917
1.5724
1.48907
0.90655
1.3834
1.67025
1.59891
1.51151
0.902821
1.39123
1.67219
1.59294
1.50668
0.90655
1.3834
1.67025
1.59891
1.51151
0.944267
1.39291
1.64917
1.5724
1.48907
1.65967
1.9474
1.97121
1.72854
1.14161
0.926284
0.713147
0.515724
0.362601
0.225144
0.0985438
0.0323654
0.0346557
0.0398469
0.0427263
0.0435769
0.0403721
0.0304431
0.0236076
0.041292
0.0707167
0.103098
0.136596
0.170736
0.20535
0.240304
0.27506
0.310295
0.344108
0.377013
0.409306
0.440363
0.470702
0.498017
0.522116
0.535094
0.548344
0.561443
0.569914
0.275498
1.63247
1.97301
2.03386
1.78511
1.17177
0.95593
0.744783
0.533654
0.369102
0.224986
0.0937844
0.0179693
0.0252713
0.0330163
0.0366724
0.0383272
0.0351487
0.0230155
0.0122513
0.0359303
0.0677688
0.101195
0.135269
0.169784
0.204669
0.239833
0.274755
0.310138
0.344059
0.377073
0.40944
0.440585
0.470954
0.498334
0.522415
0.535288
0.548684
0.561756
0.569359
0.273897
1.59826
1.92763
2.0012
1.77468
1.15832
0.933397
0.716618
0.511436
0.360658
0.22473
0.0932934
0.00939508
0.0212408
0.0303786
0.0344148
0.0363231
0.0331396
0.0198915
0.00384558
0.0339804
0.0667698
0.100552
0.134811
0.169442
0.204409
0.239639
0.274615
0.310051
0.344018
0.377087
0.409509
0.440728
0.471174
0.498672
0.522883
0.535929
0.549662
0.563181
0.57076
0.274479
1.63247
1.97301
2.03386
1.78511
1.17177
0.95593
0.744783
0.533654
0.369102
0.224986
0.0937844
0.0179693
0.0252713
0.0330163
0.0366724
0.0383272
0.0351487
0.0230155
0.0122513
0.0359303
0.0677688
0.101195
0.135269
0.169784
0.204669
0.239833
0.274755
0.310138
0.344059
0.377073
0.40944
0.440585
0.470954
0.498334
0.522415
0.535288
0.548684
0.561756
0.569359
0.273897
1.65967
1.9474
1.97121
1.72854
1.14161
0.926284
0.713147
0.515724
0.362601
0.225144
0.0985438
0.0323654
0.0346557
0.0398469
0.0427263
0.0435769
0.0403721
0.0304431
0.0236076
0.041292
0.0707167
0.103098
0.136596
0.170736
0.20535
0.240304
0.27506
0.310295
0.344108
0.377013
0.409306
0.440363
0.470702
0.498017
0.522116
0.535094
0.548344
0.561443
0.569914
0.275498
1.73226
1.82026
1.6713
1.40189
0.995387
0.808968
0.632093
0.484247
0.356838
0.229961
0.113895
0.0646407
0.0624013
0.0632639
0.0640242
0.063172
0.0595093
0.0524232
0.0485614
0.0592741
0.0825184
0.111487
0.143043
0.175972
0.209769
0.244136
0.278478
0.313353
0.346971
0.37966
0.411877
0.442781
0.473173
0.500402
0.524764
0.538242
0.551167
0.564269
0.574002
0.284374
1.25814
1.35867
1.13398
0.848603
0.725167
0.665537
0.581167
0.480155
0.357047
0.237887
0.146918
0.114494
0.107496
0.104406
0.102561
0.0996671
0.0952135
0.0896682
0.0871229
0.0936135
0.109767
0.132761
0.160113
0.190102
0.221771
0.254539
0.28771
0.321543
0.354566
0.386596
0.418534
0.448945
0.479362
0.506209
0.53109
0.545386
0.557971
0.569849
0.577053
0.291707
0.83637
0.787415
0.66627
0.643905
0.664282
0.640501
0.569886
0.462073
0.352591
0.253839
0.188734
0.163555
0.15309
0.147104
0.142904
0.138336
0.133114
0.127947
0.125764
0.130403
0.142357
0.160512
0.183647
0.210243
0.239221
0.269836
0.301371
0.333665
0.365799
0.396819
0.42827
0.457894
0.488196
0.514375
0.539725
0.554833
0.567413
0.577518
0.582179
0.307341
0.621615
0.619142
0.728807
0.769802
0.725398
0.647463
0.548665
0.450402
0.358842
0.281755
0.234455
0.211307
0.198275
0.189793
0.183503
0.177514
0.171599
0.166479
0.164393
0.167991
0.17731
0.191904
0.211469
0.234846
0.261038
0.28928
0.318954
0.349369
0.380431
0.410206
0.441008
0.469647
0.499692
0.52505
0.550732
0.566443
0.579362
0.587368
0.589562
0.326839
0.763256
0.8379
0.874283
0.808938
0.725352
0.630053
0.53832
0.451496
0.375358
0.316704
0.279762
0.257241
0.242335
0.231811
0.223799
0.216622
0.21012
0.204926
0.202845
0.205757
0.213287
0.225257
0.24197
0.262564
0.286177
0.312094
0.339887
0.368297
0.398228
0.426667
0.456753
0.48435
0.514084
0.538604
0.564551
0.580545
0.593918
0.600184
0.600646
0.350801
0.803858
0.89915
0.886062
0.788451
0.713714
0.621918
0.541983
0.467871
0.404734
0.357412
0.324584
0.301632
0.285057
0.272907
0.26347
0.255293
0.248337
0.243091
0.240943
0.243377
0.249605
0.259562
0.273974
0.292184
0.313455
0.337123
0.363026
0.389351
0.418012
0.444959
0.474123
0.500493
0.529648
0.553116
0.578942
0.594694
0.607713
0.611999
0.611024
0.375389
0.797838
0.900575
0.874587
0.776334
0.707735
0.622837
0.554094
0.489978
0.436896
0.396612
0.366641
0.343766
0.326182
0.312895
0.302346
0.293373
0.285944
0.280669
0.278377
0.280399
0.285643
0.294085
0.306763
0.32314
0.342571
0.364394
0.38875
0.413368
0.441017
0.466769
0.495258
0.52072
0.549551
0.572306
0.59821
0.613867
0.626662
0.629709
0.628348
0.405481
0.783956
0.893802
0.861444
0.777774
0.709325
0.633034
0.574638
0.51868
0.473557
0.436533
0.407589
0.38431
0.36589
0.351542
0.33993
0.330317
0.322679
0.317192
0.314888
0.316644
0.321095
0.328231
0.339352
0.354005
0.371624
0.391523
0.414173
0.436941
0.463318
0.487647
0.515156
0.539482
0.567676
0.589484
0.615055
0.630151
0.642099
0.644143
0.642659
0.433433
0.76587
0.886777
0.855639
0.785267
0.717046
0.649037
0.597543
0.547673
0.508111
0.473668
0.445892
0.422557
0.403753
0.388839
0.376581
0.366469
0.358638
0.35292
0.350361
0.351804
0.355645
0.361866
0.371979
0.385554
0.402052
0.420692
0.442251
0.463807
0.489374
0.512744
0.539578
0.563098
0.590815
0.611904
0.637132
0.651812
0.66276
0.664044
0.662688
0.465129
0.748047
0.881679
0.858318
0.790442
0.730178
0.668626
0.624937
0.579267
0.543163
0.510346
0.483178
0.459675
0.440402
0.424648
0.411688
0.401237
0.392866
0.387131
0.384477
0.385717
0.389002
0.394298
0.403326
0.415689
0.430888
0.448067
0.468378
0.488546
0.513186
0.535579
0.561691
0.584479
0.611752
0.632248
0.657166
0.671527
0.681573
0.682374
0.681388
0.495636
0.733033
0.878994
0.86576
0.798626
0.749814
0.691258
0.652215
0.60902
0.575917
0.544283
0.517543
0.49415
0.474894
0.45879
0.445625
0.435039
0.426444
0.420459
0.417571
0.418616
0.421539
0.426282
0.434728
0.446457
0.460954
0.47724
0.496812
0.515995
0.539973
0.561645
0.587108
0.609244
0.635961
0.655839
0.680177
0.69415
0.70296
0.703046
0.702283
0.526971
0.727872
0.881275
0.87413
0.812385
0.770545
0.714124
0.679681
0.638762
0.607883
0.576996
0.550761
0.527607
0.508081
0.491338
0.477935
0.466785
0.458247
0.452235
0.44927
0.450151
0.452601
0.456545
0.464073
0.474796
0.48823
0.503316
0.521933
0.539936
0.563148
0.584125
0.608966
0.630575
0.656849
0.676311
0.700284
0.714152
0.722258
0.722217
0.722553
0.5575
0.731001
0.889047
0.885377
0.827787
0.789136
0.735829
0.705194
0.666002
0.636778
0.606251
0.58041
0.557629
0.538468
0.522929
0.509199
0.497935
0.489157
0.482857
0.479645
0.480402
0.482697
0.486426
0.493778
0.504299
0.517448
0.532016
0.550279
0.567598
0.590309
0.610836
0.635092
0.656196
0.681784
0.70066
0.723799
0.737185
0.743998
0.743079
0.743725
0.587347
0.737779
0.895285
0.894583
0.842596
0.806848
0.756161
0.728772
0.69074
0.663431
0.63368
0.608327
0.585854
0.567138
0.550465
0.536493
0.525198
0.516348
0.50997
0.506643
0.507228
0.509056
0.512034
0.518588
0.52832
0.54066
0.554275
0.571888
0.58827
0.61033
0.630352
0.654062
0.674789
0.699864
0.718377
0.741007
0.754156
0.760206
0.758927
0.761544
0.615563
0.745315
0.902401
0.903671
0.857476
0.823462
0.775151
0.749266
0.711874
0.685091
0.656172
0.632344
0.610705
0.591895
0.57539
0.561309
0.549648
0.540244
0.533281
0.52954
0.530038
0.531894
0.534946
0.541722
0.551755
0.56432
0.577821
0.595556
0.611599
0.633271
0.653024
0.676252
0.696623
0.720875
0.738863
0.760506
0.773126
0.778026
0.775951
0.780408
0.643341
0.755127
0.907925
0.909461
0.867184
0.834685
0.788027
0.764007
0.727865
0.702534
0.674495
0.651003
0.629127
0.60998
0.593011
0.578353
0.565807
0.555261
0.547014
0.542109
0.541846
0.543233
0.546188
0.553361
0.564004
0.576987
0.590414
0.608212
0.623792
0.644986
0.6646
0.687682
0.707982
0.731769
0.749576
0.770738
0.783013
0.787317
0.78588
0.795055
0.66911
0.766789
0.90884
0.90362
0.863872
0.83373
0.788804
0.766269
0.731631
0.707442
0.680579
0.658024
0.637085
0.619049
0.602854
0.588613
0.576064
0.565497
0.557653
0.553663
0.554304
0.555828
0.558158
0.564649
0.575036
0.588045
0.600953
0.618426
0.632823
0.652874
0.671308
0.693086
0.712455
0.734721
0.751697
0.771577
0.783178
0.786765
0.78673
0.803061
0.6913
0.795708
0.913267
0.882142
0.84719
0.821562
0.781065
0.761873
0.730676
0.709017
0.684149
0.663127
0.643288
0.626433
0.611349
0.598494
0.587452
0.578344
0.571663
0.568416
0.569267
0.570189
0.571085
0.575628
0.583775
0.594519
0.60505
0.621294
0.634249
0.65326
0.670753
0.691641
0.710647
0.731811
0.748328
0.767152
0.779108
0.783843
0.790106
0.815789
0.742348
1.75823
0.956761
0.86521
0.849136
0.830316
0.794651
0.777171
0.747974
0.72717
0.70305
0.682464
0.662861
0.64612
0.630899
0.618082
0.60715
0.597886
0.590322
0.585497
0.584457
0.583132
0.581343
0.58323
0.588765
0.596972
0.605224
0.620575
0.632755
0.651558
0.66915
0.690273
0.71034
0.731983
0.750471
0.770847
0.786994
0.798544
0.816065
0.907973
1.70112
2.49709
1.74046
0.841704
0.78632
0.75905
0.717063
0.684056
0.644868
0.610576
0.574146
0.539658
0.505589
0.473464
0.442613
0.414035
0.388059
0.365128
0.345819
0.331481
0.323765
0.319289
0.318393
0.324688
0.337804
0.355632
0.375739
0.402615
0.427664
0.457822
0.487232
0.518756
0.549407
0.580098
0.609014
0.638005
0.665555
0.689879
0.745864
1.66186
2.46411
2.49709
1.74046
0.841704
0.78632
0.75905
0.717063
0.684056
0.644868
0.610576
0.574146
0.539658
0.505589
0.473464
0.442613
0.414035
0.388059
0.365128
0.345819
0.331481
0.323765
0.319289
0.318393
0.324688
0.337804
0.355632
0.375739
0.402615
0.427664
0.457822
0.487232
0.518756
0.549407
0.580098
0.609014
0.638005
0.665555
0.689879
0.745864
1.66186
2.46411
1.75823
0.956761
0.86521
0.849136
0.830316
0.794651
0.777171
0.747974
0.72717
0.70305
0.682464
0.662861
0.64612
0.630899
0.618082
0.60715
0.597886
0.590322
0.585497
0.584457
0.583132
0.581343
0.58323
0.588765
0.596972
0.605224
0.620575
0.632755
0.651558
0.66915
0.690273
0.71034
0.731983
0.750471
0.770847
0.786994
0.798544
0.816065
0.907973
1.70112
0.795708
0.913267
0.882142
0.84719
0.821562
0.781065
0.761873
0.730676
0.709017
0.684149
0.663127
0.643288
0.626433
0.611349
0.598494
0.587452
0.578344
0.571663
0.568416
0.569267
0.570189
0.571085
0.575628
0.583775
0.594519
0.60505
0.621294
0.634249
0.65326
0.670753
0.691641
0.710647
0.731811
0.748328
0.767152
0.779108
0.783843
0.790106
0.815789
0.742348
0.766789
0.90884
0.90362
0.863872
0.83373
0.788804
0.766269
0.731631
0.707442
0.680579
0.658024
0.637085
0.619049
0.602854
0.588613
0.576064
0.565497
0.557653
0.553663
0.554304
0.555828
0.558158
0.564649
0.575036
0.588045
0.600953
0.618426
0.632823
0.652874
0.671308
0.693086
0.712455
0.734721
0.751697
0.771577
0.783178
0.786765
0.78673
0.803061
0.6913
0.755127
0.907925
0.909461
0.867184
0.834685
0.788027
0.764007
0.727865
0.702534
0.674495
0.651003
0.629127
0.60998
0.593011
0.578353
0.565807
0.555261
0.547014
0.542109
0.541846
0.543233
0.546188
0.553361
0.564004
0.576987
0.590414
0.608212
0.623792
0.644986
0.6646
0.687682
0.707982
0.731769
0.749576
0.770738
0.783013
0.787317
0.78588
0.795055
0.66911
0.745315
0.902401
0.903671
0.857476
0.823462
0.775151
0.749266
0.711874
0.685091
0.656172
0.632344
0.610705
0.591895
0.57539
0.561309
0.549648
0.540244
0.533281
0.52954
0.530038
0.531894
0.534946
0.541722
0.551755
0.56432
0.577821
0.595556
0.611599
0.633271
0.653024
0.676252
0.696623
0.720875
0.738863
0.760506
0.773126
0.778026
0.775951
0.780408
0.643341
0.737779
0.895285
0.894583
0.842596
0.806848
0.756161
0.728772
0.69074
0.663431
0.63368
0.608327
0.585854
0.567138
0.550465
0.536493
0.525198
0.516348
0.50997
0.506643
0.507228
0.509056
0.512034
0.518588
0.52832
0.54066
0.554275
0.571888
0.58827
0.61033
0.630352
0.654062
0.674789
0.699864
0.718377
0.741007
0.754156
0.760206
0.758927
0.761544
0.615563
0.731001
0.889047
0.885377
0.827787
0.789136
0.735829
0.705194
0.666002
0.636778
0.606251
0.58041
0.557629
0.538468
0.522929
0.509199
0.497935
0.489157
0.482857
0.479645
0.480402
0.482697
0.486426
0.493778
0.504299
0.517448
0.532016
0.550279
0.567598
0.590309
0.610836
0.635092
0.656196
0.681784
0.70066
0.723799
0.737185
0.743998
0.743079
0.743725
0.587347
0.727872
0.881275
0.87413
0.812385
0.770545
0.714124
0.679681
0.638762
0.607883
0.576996
0.550761
0.527607
0.508081
0.491338
0.477935
0.466785
0.458247
0.452235
0.44927
0.450151
0.452601
0.456545
0.464073
0.474796
0.48823
0.503316
0.521933
0.539936
0.563148
0.584125
0.608966
0.630575
0.656849
0.676311
0.700284
0.714152
0.722258
0.722217
0.722553
0.5575
0.733033
0.878994
0.86576
0.798626
0.749814
0.691258
0.652215
0.60902
0.575917
0.544283
0.517543
0.49415
0.474894
0.45879
0.445625
0.435039
0.426444
0.420459
0.417571
0.418616
0.421539
0.426282
0.434728
0.446457
0.460954
0.47724
0.496812
0.515995
0.539973
0.561645
0.587108
0.609244
0.635961
0.655839
0.680177
0.69415
0.70296
0.703046
0.702283
0.526971
0.748047
0.881679
0.858318
0.790442
0.730178
0.668626
0.624937
0.579267
0.543163
0.510346
0.483178
0.459675
0.440402
0.424648
0.411688
0.401237
0.392866
0.387131
0.384477
0.385717
0.389002
0.394298
0.403326
0.415689
0.430888
0.448067
0.468378
0.488546
0.513186
0.535579
0.561691
0.584479
0.611752
0.632248
0.657166
0.671527
0.681573
0.682374
0.681388
0.495636
0.76587
0.886777
0.855639
0.785267
0.717046
0.649037
0.597543
0.547673
0.508111
0.473668
0.445892
0.422557
0.403753
0.388839
0.376581
0.366469
0.358638
0.35292
0.350361
0.351804
0.355645
0.361866
0.371979
0.385554
0.402052
0.420692
0.442251
0.463807
0.489374
0.512744
0.539578
0.563098
0.590815
0.611904
0.637132
0.651812
0.66276
0.664044
0.662688
0.465129
0.783956
0.893802
0.861444
0.777774
0.709325
0.633034
0.574638
0.51868
0.473557
0.436533
0.407589
0.38431
0.36589
0.351542
0.33993
0.330317
0.322679
0.317192
0.314888
0.316644
0.321095
0.328231
0.339352
0.354005
0.371624
0.391523
0.414173
0.436941
0.463318
0.487647
0.515156
0.539482
0.567676
0.589484
0.615055
0.630151
0.642099
0.644143
0.642659
0.433433
0.797838
0.900575
0.874587
0.776334
0.707735
0.622837
0.554094
0.489978
0.436896
0.396612
0.366641
0.343766
0.326182
0.312895
0.302346
0.293373
0.285944
0.280669
0.278377
0.280399
0.285643
0.294085
0.306763
0.32314
0.342571
0.364394
0.38875
0.413368
0.441017
0.466769
0.495258
0.52072
0.549551
0.572306
0.59821
0.613867
0.626662
0.629709
0.628348
0.405481
0.803858
0.89915
0.886062
0.788451
0.713714
0.621918
0.541983
0.467871
0.404734
0.357412
0.324584
0.301632
0.285057
0.272907
0.26347
0.255293
0.248337
0.243091
0.240943
0.243377
0.249605
0.259562
0.273974
0.292184
0.313455
0.337123
0.363026
0.389351
0.418012
0.444959
0.474123
0.500493
0.529648
0.553116
0.578942
0.594694
0.607713
0.611999
0.611024
0.375389
0.763256
0.8379
0.874283
0.808938
0.725352
0.630053
0.53832
0.451496
0.375358
0.316704
0.279762
0.257241
0.242335
0.231811
0.223799
0.216622
0.21012
0.204926
0.202845
0.205757
0.213287
0.225257
0.24197
0.262564
0.286177
0.312094
0.339887
0.368297
0.398228
0.426667
0.456753
0.48435
0.514084
0.538604
0.564551
0.580545
0.593918
0.600184
0.600646
0.350801
0.621615
0.619142
0.728807
0.769802
0.725398
0.647463
0.548665
0.450402
0.358842
0.281755
0.234455
0.211307
0.198275
0.189793
0.183503
0.177514
0.171599
0.166479
0.164393
0.167991
0.17731
0.191904
0.211469
0.234846
0.261038
0.28928
0.318954
0.349369
0.380431
0.410206
0.441008
0.469647
0.499692
0.52505
0.550732
0.566443
0.579362
0.587368
0.589562
0.326839
0.83637
0.787415
0.66627
0.643905
0.664282
0.640501
0.569886
0.462073
0.352591
0.253839
0.188734
0.163555
0.15309
0.147104
0.142904
0.138336
0.133114
0.127947
0.125764
0.130403
0.142357
0.160512
0.183647
0.210243
0.239221
0.269836
0.301371
0.333665
0.365799
0.396819
0.42827
0.457894
0.488196
0.514375
0.539725
0.554833
0.567413
0.577518
0.582179
0.307341
1.25814
1.35867
1.13398
0.848603
0.725167
0.665537
0.581167
0.480155
0.357047
0.237887
0.146918
0.114494
0.107496
0.104406
0.102561
0.0996671
0.0952135
0.0896682
0.0871229
0.0936135
0.109767
0.132761
0.160113
0.190102
0.221771
0.254539
0.28771
0.321543
0.354566
0.386596
0.418534
0.448945
0.479362
0.506209
0.53109
0.545386
0.557971
0.569849
0.577053
0.291707
1.73226
1.82026
1.6713
1.40189
0.995387
0.808968
0.632093
0.484247
0.356838
0.229961
0.113895
0.0646407
0.0624013
0.0632639
0.0640242
0.063172
0.0595093
0.0524232
0.0485614
0.0592741
0.0825184
0.111487
0.143043
0.175972
0.209769
0.244136
0.278478
0.313353
0.346971
0.37966
0.411877
0.442781
0.473173
0.500402
0.524764
0.538242
0.551167
0.564269
0.574002
0.284374
)
;

boundaryField
{
    inlet
    {
        type            calculated;
        value           uniform 0;
    }
    outlet
    {
        type            calculated;
        value           nonuniform List<scalar> 
165
(
1.73226
1.25814
0.83637
0.621615
0.763256
0.803858
0.797838
0.783956
0.76587
0.748047
0.733033
0.727872
0.731001
0.737779
0.745315
0.755127
0.766789
0.795708
1.75823
2.49709
2.49709
1.74046
0.841704
0.78632
0.75905
0.717063
0.684056
0.644868
0.610576
0.574146
0.539658
0.505589
0.473464
0.442613
0.414035
0.388059
0.365128
0.345819
0.331481
0.323765
0.319289
0.318393
0.324688
0.337804
0.355632
0.375739
0.402615
0.427664
0.457822
0.487232
0.518756
0.549407
0.580098
0.609014
0.638005
0.665555
0.689879
0.745864
1.66186
2.46411
0.284374
0.291707
0.307341
0.326839
0.350801
0.375389
0.405481
0.433433
0.465129
0.495636
0.526971
0.5575
0.587347
0.615563
0.643341
0.66911
0.6913
0.742348
1.70112
2.46411
0.275498
0.273897
0.274479
0.273897
0.275498
2.46411
1.70112
0.742348
0.6913
0.66911
0.643341
0.615563
0.587347
0.5575
0.526971
0.495636
0.465129
0.433433
0.405481
0.375389
0.350801
0.326839
0.307341
0.291707
0.284374
2.49709
1.74046
0.841704
0.78632
0.75905
0.717063
0.684056
0.644868
0.610576
0.574146
0.539658
0.505589
0.473464
0.442613
0.414035
0.388059
0.365128
0.345819
0.331481
0.323765
0.319289
0.318393
0.324688
0.337804
0.355632
0.375739
0.402615
0.427664
0.457822
0.487232
0.518756
0.549407
0.580098
0.609014
0.638005
0.665555
0.689879
0.745864
1.66186
2.46411
2.49709
1.75823
0.795708
0.766789
0.755127
0.745315
0.737779
0.731001
0.727872
0.733033
0.748047
0.76587
0.783956
0.797838
0.803858
0.763256
0.621615
0.83637
1.25814
1.73226
)
;
    }
    obstacle
    {
        type            calculated;
        value           nonuniform List<scalar> 
40
(
0.76562
0.0686776
0.0872433
0.0847468
0.0892702
0.0931731
0.0971717
0.0997223
0.099911
0.0909467
0.76562
0.0686776
0.0872433
0.0847468
0.0892702
0.0931731
0.0971717
0.0997223
0.099911
0.0909467
0.0985094
0.135299
0.187239
0.272098
0.414657
0.0985094
0.135299
0.187239
0.272098
0.414657
0.934805
1.38971
1.64736
1.57162
1.48801
0.934805
1.38971
1.64736
1.57162
1.48801
)
;
    }
    empty
    {
        type            empty;
    }
}


// ************************************************************************* //
