/*--------------------------------*- C++ -*----------------------------------*\
| =========                 |                                                 |
| \\      /  F ield         | OpenFOAM: The Open Source CFD Toolbox           |
|  \\    /   O peration     | Version:  v1912                                 |
|   \\  /    A nd           | Website:  www.openfoam.com                      |
|    \\/     M anipulation  |                                                 |
\*---------------------------------------------------------------------------*/
FoamFile
{
    version     2.0;
    format      ascii;
    class       volScalarField;
    location    "9.08";
    object      rho;
}
// * * * * * * * * * * * * * * * * * * * * * * * * * * * * * * * * * * * * * //

dimensions      [1 -3 0 0 0 0 0];


internalField   nonuniform List<scalar> 
1900
(
6051.78
11152
11747.7
12245.7
12790
12978.3
12900.3
12743.4
12597.5
12457.1
6051.76
11152
11747.7
12245.9
12790
12978.3
12900.3
12742.6
12603.6
12462.5
6051.74
11152
11747.7
12246.2
12790.3
12978.8
12900.5
12738
12588.2
12446.9
6051.76
11152
11747.7
12245.9
12790
12978.3
12900.3
12742.6
12603.6
12462.5
6051.78
11152
11747.7
12245.7
12790
12978.3
12900.3
12743.4
12597.5
12457.1
12548
12348.4
12190.6
11819.6
11653.4
12377.1
12232.4
12091.9
11737.6
11237.2
12345.4
12209.6
12090
11781.3
11311.6
12377.1
12232.4
12091.9
11737.6
11237.2
12548
12348.4
12190.6
11819.6
11653.4
6167.9
4201.34
3249.5
2734.24
2185.12
6804.94
4526.09
3434.15
2878.02
2292.01
6993.32
4483.7
3361.99
2818.84
2216.73
6804.94
4526.09
3434.15
2878.02
2292.01
6167.9
4201.34
3249.5
2734.24
2185.12
2433.31
2686.04
2788.73
2817.44
2796.14
2749.47
2657.93
2546.07
2424.66
2301.51
2210.61
2108.32
1957.83
1859.45
1896.06
2261.08
2922.95
3058.05
3049.15
2988.88
2893.44
2808.03
2746.54
2708.32
2676.78
2631.05
2533.66
3309.89
3819.86
2904.23
2066.44
2010.01
2067.49
2126.57
2197.82
2295.26
2408.26
2529.35
2655.29
2781.08
2201.86
2408.08
2625.81
2625.48
2589.5
2532.98
2452.89
2362.54
2261.43
2158.88
2089.58
2002.99
1876.67
1793.65
1832.96
2196.46
2841.76
2982.73
2983.44
2938.64
2861.97
2791.71
2752.07
2722.99
2677.95
2636.66
2540.38
3318.84
3817.65
2907.38
2068.99
2010.79
2068.03
2127.08
2198.32
2295.92
2409.03
2530.3
2656.26
2781.96
2165
2281.91
2523.05
2561.46
2539.05
2491.99
2419.95
2334.49
2235.16
2133.92
2067.24
1983.19
1861.66
1781.53
1821.28
2184.16
2826.41
2969.69
2969.66
2928.37
2852.61
2788.64
2749.46
2710.58
2670.04
2635.67
2544.57
3330.56
3824.16
2909.5
2069.66
2010.98
2068.16
2127.19
2198.37
2295.82
2408.71
2529.86
2655.81
2781.63
2201.86
2408.08
2625.81
2625.48
2589.5
2532.98
2452.89
2362.54
2261.43
2158.88
2089.58
2002.99
1876.67
1793.65
1832.96
2196.46
2841.76
2982.73
2983.44
2938.64
2861.97
2791.71
2752.07
2722.99
2677.95
2636.66
2540.38
3318.84
3817.65
2907.38
2068.99
2010.79
2068.03
2127.08
2198.32
2295.92
2409.03
2530.3
2656.26
2781.96
2433.31
2686.04
2788.73
2817.44
2796.14
2749.47
2657.93
2546.07
2424.66
2301.51
2210.61
2108.32
1957.83
1859.45
1896.06
2261.08
2922.95
3058.05
3049.15
2988.88
2893.44
2808.03
2746.54
2708.32
2676.78
2631.05
2533.66
3309.89
3819.86
2904.23
2066.44
2010.01
2067.49
2126.57
2197.82
2295.26
2408.26
2529.35
2655.29
2781.08
3476.38
3384.43
3310.36
3240.61
3194.28
3128.85
3036.54
2936.48
2818.04
2676.27
2541.48
2396.18
2198.77
2050.86
2077.94
2445.3
3151.94
3274.61
3239.61
3130.03
2984.69
2848.02
2748.52
2705.95
2714.69
2706.11
2616.35
3395.68
3849.25
2889.47
2054.58
2006.24
2064.98
2124.36
2195.94
2293.68
2407.13
2528.46
2654.69
2780.46
4380.2
4137.5
3888.36
3658.61
3501.57
3372.51
3267.39
3183.63
3081.76
2964.73
2844.17
2696.13
2491.76
2314.55
2339.34
2712.65
3434.15
3547.31
3487.64
3316.8
3090.93
2889.65
2761.8
2681.44
2621.01
2571.62
2497.77
3304.19
3739.3
2794.12
2029.15
1999.64
2060.37
2119.65
2191.59
2290.27
2404.79
2526.94
2653.68
2779.11
4657.8
4409.16
4237.39
4075.38
3895.36
3710.47
3538.82
3389.49
3246.21
3120.74
3004.62
2865.09
2702.63
2510.32
2509.75
2910.39
3649.93
3763.52
3694.67
3479.07
3176.29
2931.65
2787.86
2691.53
2625.88
2561.09
2490.9
3299.11
3617.52
2663.99
2003.59
1996.61
2057.43
2114.67
2186.18
2285.2
2401.51
2525.48
2652.83
2777.9
4699.76
4490.3
4237.54
4013.82
3826.67
3651.73
3487.58
3324.24
3163.06
3030.3
2893.37
2739.05
2636.92
2584.77
2635.39
3089.54
3629.19
3695.2
3619.57
3384.22
3086.53
2871.92
2740.83
2649.83
2588.48
2516.76
2480.67
3298.46
3517.96
2556.43
2009.75
2022.55
2080.52
2128.16
2188.7
2281.86
2398
2523.27
2651.39
2776.6
4660.64
4464.31
4271.79
4087.55
3894.57
3712.73
3546.22
3350
3162.02
3014.12
2823.29
2692.88
2657.56
2647.22
2757.26
3271.39
3607.03
3631.2
3541.89
3282.63
2986.11
2798.8
2681.81
2601.97
2551.58
2478.95
2527.99
3418.29
3540.11
2556.26
2125.23
2128.26
2153.02
2175.91
2223.01
2301.68
2400.61
2520.36
2649.12
2774.6
4590.02
4408.97
4235.81
4054.3
3863.02
3683.7
3512.43
3334.07
3176.18
3005.72
2778.01
2721.03
2737.11
2770.87
2964.07
3377.89
3540.68
3540.9
3419.46
3121.44
2857.24
2716.08
2620.08
2561.35
2557.98
2505.38
2819.58
4007.86
3802.71
2795.88
2487.83
2455.04
2410.96
2356.86
2331.13
2359.07
2435.42
2530.97
2648.95
2772.5
4504.9
4336.56
4180.26
4012.89
3837.03
3666.8
3488.03
3314.49
3165.66
2989.07
2815.92
2776.53
2763.15
2809.21
3015.66
3309.63
3392.58
3367.9
3174.88
2892.71
2721.15
2632.81
2631.76
2647.9
2698.51
2855.85
3685.15
4637.89
3872.58
2954.9
2814.49
2787.15
2735.78
2655.2
2578.76
2534.83
2528.69
2576.11
2659.25
2769.71
4413.44
4255.78
4106.18
3950.72
3790.9
3630.98
3461.11
3293.92
3145.26
2966.67
2827.4
2791.68
2793.14
2888.71
3062.96
3166.26
3186.58
3099.1
2851.3
2691.07
2708.11
2719.94
2848.73
3150.97
3346.22
3556.57
4359.82
4576.22
3627.15
2996.09
2956.74
2955.25
2928.59
2874.67
2813.97
2761.45
2715.45
2687.98
2705.18
2765.52
4305.68
4160.67
4016.89
3868.32
3719.33
3562.06
3393.41
3239.92
3095.41
2933.62
2850.84
2840.79
2849.58
2889.39
2961.58
2999.54
2951.59
2763.13
2751.59
2809.69
2972.05
3326.82
3630.07
3766.65
3790.58
3926.11
4463.15
4197.96
3313.81
3022.56
3018.64
3029.51
3022.85
2991.45
2952.59
2917.73
2888.38
2847.89
2795.27
2760.48
4162.12
4036.96
3903.64
3759.45
3602.34
3434.62
3272.06
3127.29
2990.11
2869.3
2820.74
2827.65
2839.69
2871.76
2884.39
2877.12
2849.13
2941.02
3135.53
3445.15
3759.96
3976.64
4071.3
4000.58
3860.89
3924.35
4184.16
3688.4
3117.24
3037.81
3047.6
3055.75
3055.43
3034.53
3004.63
2982.05
2967.35
2950.53
2881.8
2762.89
3978.5
3848.93
3701.82
3546.66
3392.85
3248.77
3137.7
3064.91
3002.49
2967.88
2954.98
2956.44
2999.5
3076.23
3142.87
3237.1
3349.24
3539.12
3816.52
4047.47
4188.79
4186.58
4111.79
3987.7
3808.45
3737.05
3650.33
3240.61
3043.49
3055.69
3077.58
3087.49
3089.38
3067.9
3032.85
3001.91
2977.68
2963.59
2907.91
2752.03
3747.06
3604.28
3465.55
3366.62
3333.18
3333.42
3333.43
3352.82
3430.78
3521.42
3564.31
3598.56
3649.69
3658.68
3683.24
3725.48
3839.31
4001.92
4131.01
4215.32
4247.91
4212.55
4081.72
3880.48
3628.21
3339.5
3078.2
2995.98
3035.7
3076.93
3099.54
3111.1
3114.11
3098.26
3064.22
3029.76
2986.63
2948.97
2884.73
2720.25
3465.37
3394.11
3403.42
3475
3542.56
3629.05
3719.77
3796.18
3866.13
3901.71
3917.07
3931.96
3963.5
3948.55
3935.04
3976
4073.83
4157.91
4244.06
4276.03
4251.46
4148.98
3962.05
3682.02
3238.02
2792.33
2703.73
2871.65
3019.35
3073.91
3099.55
3113.48
3120.1
3112.32
3086.23
3050.08
2990.79
2923.41
2834.42
2679.8
3121.82
3248.57
3412.48
3542.9
3575.97
3567.53
3576.66
3607.21
3647.55
3684.57
3744.98
3879.79
4031.42
4098.88
4132.12
4149.72
4214.19
4278.31
4311.09
4271.75
4162.92
3996.93
3719.57
3266.1
2709.69
2430.41
2531.38
2796.14
2979.57
3044.4
3073.23
3091.91
3106.27
3107.42
3091.06
3054.7
2990.31
2906.71
2796.7
2650.06
2828.06
3051.36
3233.03
3325.07
3367.29
3392.33
3423.3
3467.57
3528.67
3641.97
3797.55
3970.58
4104.77
4191.98
4260.02
4305.02
4322.67
4317.83
4267.64
4162.68
3982.17
3696.24
3261.92
2736.94
2393.67
2337.21
2461.95
2723.56
2923.33
3008.92
3037.56
3056.94
3077.24
3085.49
3080.62
3050.06
2986.77
2893.52
2769.05
2631.85
2719.1
2889.07
3032.09
3107.03
3153.48
3185.91
3241.01
3339.38
3466.15
3625.98
3803.34
3980.23
4128.57
4243.57
4319.95
4350.44
4323.05
4250.45
4128.14
3936.96
3642.37
3222.85
2754.64
2452.22
2363.58
2371.83
2450.02
2660.79
2865.92
2971.93
3003.14
3023.52
3042.86
3050.9
3049.45
3026.38
2970.76
2877.8
2749.01
2622.09
2641.96
2736.74
2822.14
2878.26
2935.14
2998.17
3092.34
3210.75
3354.04
3518.77
3701.46
3891.71
4073.33
4210.31
4274.35
4270.24
4202.41
4067.89
3861.24
3560.62
3158.49
2758.76
2527.18
2451.78
2430.32
2445.69
2489.99
2624.49
2813.53
2942.87
2977.08
2983.11
2985
2986.04
2985.44
2970.38
2937.36
2868.75
2757.79
2632.68
2593.98
2637
2698.41
2742.86
2791.96
2858.85
2950.23
3055.74
3172.75
3311.24
3486.17
3685.39
3880.35
4018.43
4082.7
4064.51
3954.14
3750.27
3450.75
3083.3
2762.79
2600.42
2545.84
2534.27
2537.61
2542.66
2566.95
2629.75
2769.66
2910.62
2959.63
2951.84
2925.42
2906.3
2894.82
2878.44
2868.4
2823.9
2746.25
2635.2
2602.53
2625.87
2639.81
2662.38
2702.42
2751.41
2806.98
2878.59
2962.55
3070.77
3217.72
3391.12
3563.81
3686.86
3726.03
3679.75
3519.75
3266.23
2988.7
2780.88
2678.91
2641.07
2638.13
2645.35
2651.37
2653.85
2657.6
2682.03
2748.46
2843.27
2897.61
2893.91
2846.73
2804.08
2774.48
2753.75
2757.63
2742.32
2729.97
2646.12
2573.92
2571.72
2550.24
2570.26
2628.31
2674.77
2717.13
2773.75
2858.81
2965.81
3068.58
3130.77
3143.06
3080.44
2975.09
2880.17
2808.18
2753.75
2720.64
2712.68
2718.74
2728.7
2738.47
2746.6
2753.01
2758.13
2760.07
2760.59
2759.73
2759.13
2758.39
2735.96
2694.13
2661.16
2638.83
2626.61
2635.32
2633.29
2643.59
2679.6
2573.92
2571.72
2550.24
2570.26
2628.31
2674.77
2717.13
2773.75
2858.81
2965.81
3068.58
3130.77
3143.06
3080.44
2975.09
2880.17
2808.18
2753.75
2720.64
2712.68
2718.74
2728.7
2738.47
2746.6
2753.01
2758.13
2760.07
2760.59
2759.73
2759.13
2758.39
2735.96
2694.13
2661.16
2638.83
2626.61
2635.32
2633.29
2643.59
2679.6
2602.53
2625.87
2639.81
2662.38
2702.42
2751.41
2806.98
2878.59
2962.55
3070.77
3217.72
3391.12
3563.81
3686.86
3726.03
3679.75
3519.75
3266.23
2988.7
2780.88
2678.91
2641.07
2638.13
2645.35
2651.37
2653.85
2657.6
2682.03
2748.46
2843.27
2897.61
2893.91
2846.73
2804.08
2774.48
2753.75
2757.63
2742.32
2729.97
2646.12
2593.98
2637
2698.41
2742.86
2791.96
2858.85
2950.23
3055.74
3172.75
3311.24
3486.17
3685.39
3880.35
4018.43
4082.7
4064.51
3954.14
3750.27
3450.75
3083.3
2762.79
2600.42
2545.84
2534.27
2537.61
2542.66
2566.95
2629.75
2769.66
2910.62
2959.63
2951.84
2925.42
2906.3
2894.82
2878.44
2868.4
2823.9
2746.25
2635.2
2641.96
2736.74
2822.14
2878.26
2935.14
2998.17
3092.34
3210.75
3354.04
3518.77
3701.46
3891.71
4073.33
4210.31
4274.35
4270.24
4202.41
4067.89
3861.24
3560.62
3158.49
2758.76
2527.18
2451.78
2430.32
2445.69
2489.99
2624.49
2813.53
2942.87
2977.08
2983.11
2985
2986.04
2985.44
2970.38
2937.36
2868.75
2757.79
2632.68
2719.1
2889.07
3032.09
3107.03
3153.48
3185.91
3241.01
3339.38
3466.15
3625.98
3803.34
3980.23
4128.57
4243.57
4319.95
4350.44
4323.05
4250.45
4128.14
3936.96
3642.37
3222.85
2754.64
2452.22
2363.58
2371.83
2450.02
2660.79
2865.92
2971.93
3003.14
3023.52
3042.86
3050.9
3049.45
3026.38
2970.76
2877.8
2749.01
2622.09
2828.06
3051.36
3233.03
3325.07
3367.29
3392.33
3423.3
3467.57
3528.67
3641.97
3797.55
3970.58
4104.77
4191.98
4260.02
4305.02
4322.67
4317.83
4267.64
4162.68
3982.17
3696.24
3261.92
2736.94
2393.67
2337.21
2461.95
2723.56
2923.33
3008.92
3037.56
3056.94
3077.24
3085.49
3080.62
3050.06
2986.77
2893.52
2769.05
2631.85
3121.82
3248.57
3412.48
3542.9
3575.97
3567.53
3576.66
3607.21
3647.55
3684.57
3744.98
3879.79
4031.42
4098.88
4132.12
4149.72
4214.19
4278.31
4311.09
4271.75
4162.92
3996.93
3719.57
3266.1
2709.69
2430.41
2531.38
2796.14
2979.57
3044.4
3073.23
3091.91
3106.27
3107.42
3091.06
3054.7
2990.31
2906.71
2796.7
2650.06
3465.37
3394.11
3403.42
3475
3542.56
3629.05
3719.77
3796.18
3866.13
3901.71
3917.07
3931.96
3963.5
3948.55
3935.04
3976
4073.83
4157.91
4244.06
4276.03
4251.46
4148.98
3962.05
3682.02
3238.02
2792.33
2703.73
2871.65
3019.35
3073.91
3099.55
3113.48
3120.1
3112.32
3086.23
3050.08
2990.79
2923.41
2834.42
2679.8
3747.06
3604.28
3465.55
3366.62
3333.18
3333.42
3333.43
3352.82
3430.78
3521.42
3564.31
3598.56
3649.69
3658.68
3683.24
3725.48
3839.31
4001.92
4131.01
4215.32
4247.91
4212.55
4081.72
3880.48
3628.21
3339.5
3078.2
2995.98
3035.7
3076.93
3099.54
3111.1
3114.11
3098.26
3064.22
3029.76
2986.63
2948.97
2884.73
2720.25
3978.5
3848.93
3701.82
3546.66
3392.85
3248.77
3137.7
3064.91
3002.49
2967.88
2954.98
2956.44
2999.5
3076.23
3142.87
3237.1
3349.24
3539.12
3816.52
4047.47
4188.79
4186.58
4111.79
3987.7
3808.45
3737.05
3650.33
3240.61
3043.49
3055.69
3077.58
3087.49
3089.38
3067.9
3032.85
3001.91
2977.68
2963.59
2907.91
2752.03
4162.12
4036.96
3903.64
3759.45
3602.34
3434.62
3272.06
3127.29
2990.11
2869.3
2820.74
2827.65
2839.69
2871.76
2884.39
2877.12
2849.13
2941.02
3135.53
3445.15
3759.96
3976.64
4071.3
4000.58
3860.89
3924.35
4184.16
3688.4
3117.24
3037.81
3047.6
3055.75
3055.43
3034.53
3004.63
2982.05
2967.35
2950.53
2881.8
2762.89
4305.68
4160.67
4016.89
3868.32
3719.33
3562.06
3393.41
3239.92
3095.41
2933.62
2850.84
2840.79
2849.58
2889.39
2961.58
2999.54
2951.59
2763.13
2751.59
2809.69
2972.05
3326.82
3630.07
3766.65
3790.58
3926.11
4463.15
4197.96
3313.81
3022.56
3018.64
3029.51
3022.85
2991.45
2952.59
2917.73
2888.38
2847.89
2795.27
2760.48
4413.44
4255.78
4106.18
3950.72
3790.9
3630.98
3461.11
3293.92
3145.26
2966.67
2827.4
2791.68
2793.14
2888.71
3062.96
3166.26
3186.58
3099.1
2851.3
2691.07
2708.11
2719.94
2848.73
3150.97
3346.22
3556.57
4359.82
4576.22
3627.15
2996.09
2956.74
2955.25
2928.59
2874.67
2813.97
2761.45
2715.45
2687.98
2705.18
2765.52
4504.9
4336.56
4180.26
4012.89
3837.03
3666.8
3488.03
3314.49
3165.66
2989.07
2815.92
2776.53
2763.15
2809.21
3015.66
3309.63
3392.58
3367.9
3174.88
2892.71
2721.15
2632.81
2631.76
2647.9
2698.51
2855.85
3685.15
4637.89
3872.58
2954.9
2814.49
2787.15
2735.78
2655.2
2578.76
2534.83
2528.69
2576.11
2659.25
2769.71
4590.02
4408.97
4235.81
4054.3
3863.02
3683.7
3512.43
3334.07
3176.18
3005.72
2778.01
2721.03
2737.11
2770.87
2964.07
3377.89
3540.68
3540.9
3419.46
3121.44
2857.24
2716.08
2620.08
2561.35
2557.98
2505.38
2819.58
4007.86
3802.71
2795.88
2487.83
2455.04
2410.96
2356.86
2331.13
2359.07
2435.42
2530.97
2648.95
2772.5
4660.64
4464.31
4271.79
4087.55
3894.57
3712.73
3546.22
3350
3162.02
3014.12
2823.29
2692.88
2657.56
2647.22
2757.26
3271.39
3607.03
3631.2
3541.89
3282.63
2986.11
2798.8
2681.81
2601.97
2551.58
2478.95
2527.99
3418.29
3540.11
2556.26
2125.23
2128.26
2153.02
2175.91
2223.01
2301.68
2400.61
2520.36
2649.12
2774.6
4699.76
4490.3
4237.54
4013.82
3826.67
3651.73
3487.58
3324.24
3163.06
3030.3
2893.37
2739.05
2636.92
2584.77
2635.39
3089.54
3629.19
3695.2
3619.57
3384.22
3086.53
2871.92
2740.83
2649.83
2588.48
2516.76
2480.67
3298.46
3517.96
2556.43
2009.75
2022.55
2080.52
2128.16
2188.7
2281.86
2398
2523.27
2651.39
2776.6
4657.8
4409.16
4237.39
4075.38
3895.36
3710.47
3538.82
3389.49
3246.21
3120.74
3004.62
2865.09
2702.63
2510.32
2509.75
2910.39
3649.93
3763.52
3694.67
3479.07
3176.29
2931.65
2787.86
2691.53
2625.88
2561.09
2490.9
3299.11
3617.52
2663.99
2003.59
1996.61
2057.43
2114.67
2186.18
2285.2
2401.51
2525.48
2652.83
2777.9
4380.2
4137.5
3888.36
3658.61
3501.57
3372.51
3267.39
3183.63
3081.76
2964.73
2844.17
2696.13
2491.76
2314.55
2339.34
2712.65
3434.15
3547.31
3487.64
3316.8
3090.93
2889.65
2761.8
2681.44
2621.01
2571.62
2497.77
3304.19
3739.3
2794.12
2029.15
1999.64
2060.37
2119.65
2191.59
2290.27
2404.79
2526.94
2653.68
2779.11
3476.38
3384.43
3310.36
3240.61
3194.28
3128.85
3036.54
2936.48
2818.04
2676.27
2541.48
2396.18
2198.77
2050.86
2077.94
2445.3
3151.94
3274.61
3239.61
3130.03
2984.69
2848.02
2748.52
2705.95
2714.69
2706.11
2616.35
3395.68
3849.25
2889.47
2054.58
2006.24
2064.98
2124.36
2195.94
2293.68
2407.13
2528.46
2654.69
2780.46
)
;

boundaryField
{
    inlet
    {
        type            calculated;
        value           uniform 14000.1;
    }
    outlet
    {
        type            calculated;
        value           nonuniform List<scalar> 
165
(
3495.55
4525.35
4770.07
4788.09
4757.11
4682.41
4592.7
4496.79
4381.23
4224.48
4041.83
3818.06
3492.8
3081.82
2719.69
2606.43
2623.46
2654.68
2675.68
2686.53
2686.53
2690.8
2710.34
2728.24
2727.16
2721.5
2715.09
2704.99
2682.45
2640.54
2581.94
2519.79
2466.78
2440.62
2453.24
2508.63
2594.89
2682.6
2738.17
2764.34
2780.44
2790.31
2797.35
2804.52
2811.9
2818.76
2823.38
2822.85
2812.61
2787.33
2747.4
2702.1
2667.31
2631.82
2609
2603.95
2602.52
2611.2
2620.97
2618.67
2842.93
2842.97
2842.71
2841.9
2840.88
2839.99
2837.9
2830.12
2808.54
2773.73
2728.28
2686.05
2651.24
2617.75
2599.12
2598.8
2598.9
2608.36
2619.6
2618.67
2843.53
2843.8
2844.24
2843.8
2843.53
2618.67
2619.6
2608.36
2598.9
2598.8
2599.12
2617.75
2651.24
2686.05
2728.28
2773.73
2808.54
2830.12
2837.9
2839.99
2840.88
2841.9
2842.71
2842.97
2842.93
2686.53
2690.8
2710.34
2728.24
2727.16
2721.5
2715.09
2704.99
2682.45
2640.54
2581.94
2519.79
2466.78
2440.62
2453.24
2508.63
2594.89
2682.6
2738.17
2764.34
2780.44
2790.31
2797.35
2804.52
2811.9
2818.76
2823.38
2822.85
2812.61
2787.33
2747.4
2702.1
2667.31
2631.82
2609
2603.95
2602.52
2611.2
2620.97
2618.67
2686.53
2675.68
2654.68
2623.46
2606.43
2719.69
3081.82
3492.8
3818.06
4041.83
4224.48
4381.23
4496.79
4592.7
4682.41
4757.11
4788.09
4770.07
4525.35
3495.55
)
;
    }
    obstacle
    {
        type            calculated;
        value           nonuniform List<scalar> 
40
(
6051.78
11152
11747.7
12245.7
12790
12978.3
12900.3
12743.4
12597.5
12457.1
6051.78
11152
11747.7
12245.7
12790
12978.3
12900.3
12743.4
12597.5
12457.1
12548
12348.4
12190.6
11819.6
11653.4
12548
12348.4
12190.6
11819.6
11653.4
6167.9
4201.34
3249.5
2734.24
2185.12
6167.9
4201.34
3249.5
2734.24
2185.12
)
;
    }
    empty
    {
        type            empty;
    }
}


// ************************************************************************* //
