/*--------------------------------*- C++ -*----------------------------------*\
| =========                 |                                                 |
| \\      /  F ield         | OpenFOAM: The Open Source CFD Toolbox           |
|  \\    /   O peration     | Version:  v1912                                 |
|   \\  /    A nd           | Website:  www.openfoam.com                      |
|    \\/     M anipulation  |                                                 |
\*---------------------------------------------------------------------------*/
FoamFile
{
    version     2.0;
    format      ascii;
    class       volTensorField;
    location    "2.78";
    object      grad(U);
}
// * * * * * * * * * * * * * * * * * * * * * * * * * * * * * * * * * * * * * //

dimensions      [0 0 -1 0 0 0 0];


internalField   nonuniform List<tensor> 
1900
(
(-2.25004 -1.3667e-05 0 -1.38882e-05 -8.97881e-06 0 0 0 0)
(1.59618 -8.77639e-06 0 -4.31469e-05 -1.91924e-05 0 0 0 0)
(-0.0420968 3.45053e-05 0 -5.79732e-05 -4.20589e-05 0 0 0 0)
(-0.0448041 0.000458218 0 -4.64558e-05 6.80386e-05 0 0 0 0)
(-0.0429646 0.00154756 0 0.000280454 0.000876406 0 0 0 0)
(-0.0454744 0.00223412 0 0.00159949 0.00318223 0 0 0 0)
(-0.047211 -0.00516903 0 0.0049954 0.00547315 0 0 0 0)
(-0.0433352 -0.0249716 0 0.0078921 -0.00430448 0 0 0 0)
(0.024543 -0.0789958 0 -0.00163728 -0.0350529 0 0 0 0)
(0.013017 -0.238334 0 -0.0728311 -0.150719 0 0 0 0)
(-2.25009 -1.45043e-05 0 -1.77165e-05 5.89386e-06 0 0 0 0)
(1.59613 -2.43037e-05 0 -6.39235e-05 7.77309e-06 0 0 0 0)
(-0.0421002 5.27257e-05 0 -7.56379e-05 1.46703e-05 0 0 0 0)
(-0.0444657 0.000460247 0 4.12029e-05 -2.67322e-05 0 0 0 0)
(-0.0413187 0.00156663 0 0.000658995 -0.000443547 0 0 0 0)
(-0.0407595 0.00236262 0 0.00265784 -0.00157429 0 0 0 0)
(-0.0409184 -0.00231767 0 0.00687734 -0.00267767 0 0 0 0)
(-0.0499679 -0.0155545 0 0.00929964 0.00359474 0 0 0 0)
(-0.0561803 -0.067419 0 -0.00315998 0.0222939 0 0 0 0)
(-0.148563 -0.167657 0 -0.10672 0.0825905 0 0 0 0)
(-2.25012 -2.89066e-13 0 3.63208e-14 6.1699e-06 0 0 0 0)
(1.59612 5.16647e-14 0 4.60786e-14 2.28386e-05 0 0 0 0)
(-0.0419917 2.88382e-13 0 9.75782e-15 5.47772e-05 0 0 0 0)
(-0.0440695 3.37509e-13 0 1.82417e-13 -8.26127e-05 0 0 0 0)
(-0.040348 -1.72718e-14 0 1.87025e-14 -0.000865718 0 0 0 0)
(-0.0392561 -1.95448e-13 0 -4.8247e-14 -0.00321587 0 0 0 0)
(-0.0405692 -6.35087e-14 0 -2.04779e-13 -0.00559095 0 0 0 0)
(-0.0533725 -1.29512e-13 0 -1.64663e-13 0.00141947 0 0 0 0)
(-0.0914765 -1.70655e-13 0 -6.12574e-14 0.0255181 0 0 0 0)
(-0.200464 1.43815e-14 0 1.11673e-13 0.136257 0 0 0 0)
(-2.25009 1.45043e-05 0 1.77165e-05 5.89386e-06 0 0 0 0)
(1.59613 2.43037e-05 0 6.39235e-05 7.77309e-06 0 0 0 0)
(-0.0421002 -5.27257e-05 0 7.56379e-05 1.46703e-05 0 0 0 0)
(-0.0444657 -0.000460247 0 -4.12029e-05 -2.67322e-05 0 0 0 0)
(-0.0413187 -0.00156663 0 -0.000658995 -0.000443547 0 0 0 0)
(-0.0407595 -0.00236262 0 -0.00265784 -0.00157429 0 0 0 0)
(-0.0409184 0.00231767 0 -0.00687734 -0.00267767 0 0 0 0)
(-0.0499679 0.0155545 0 -0.00929964 0.00359474 0 0 0 0)
(-0.0561803 0.067419 0 0.00315998 0.0222939 0 0 0 0)
(-0.148563 0.167657 0 0.10672 0.0825905 0 0 0 0)
(-2.25004 1.3667e-05 0 1.38882e-05 -8.97881e-06 0 0 0 0)
(1.59618 8.77639e-06 0 4.31469e-05 -1.91924e-05 0 0 0 0)
(-0.0420968 -3.45053e-05 0 5.79732e-05 -4.20589e-05 0 0 0 0)
(-0.0448041 -0.000458218 0 4.64558e-05 6.80386e-05 0 0 0 0)
(-0.0429646 -0.00154756 0 -0.000280454 0.000876406 0 0 0 0)
(-0.0454744 -0.00223412 0 -0.00159949 0.00318223 0 0 0 0)
(-0.047211 0.00516903 0 -0.0049954 0.00547315 0 0 0 0)
(-0.0433352 0.0249716 0 -0.0078921 -0.00430448 0 0 0 0)
(0.024543 0.0789958 0 0.00163728 -0.0350529 0 0 0 0)
(0.013017 0.238334 0 0.0728311 -0.150719 0 0 0 0)
(-0.148885 -0.40305 1.38932e-17 -0.233792 0.187599 -2.08398e-17 -6.0346e-17 -7.12624e-17 3.76576e-33)
(-0.292512 -0.48867 0 -0.32489 0.309187 0 1.59728e-16 5.89807e-17 0)
(-0.381457 -0.584341 0 -0.482916 0.332456 0 2.52045e-16 1.08905e-16 0)
(-1.25736 -0.371652 0 -1.16128 0.630226 0 0 0 0)
(0.258574 -2.02875 -5.01162e-16 -3.92223 4.2853 7.51743e-16 1.90858e-15 1.27239e-15 1.3584e-31)
(-0.297724 -0.24251 0 -0.210544 0.242904 0 -1.02592e-16 -3.73632e-17 0)
(-0.501189 -0.327287 0 -0.260638 0.385647 0 -1.59728e-16 -5.89807e-17 0)
(-0.851132 -0.48386 0 -0.538983 0.692699 0 -2.52045e-16 -1.08905e-16 0)
(-1.57351 -0.371994 0 -1.24796 1.22629 0 0 0 0)
(-1.12991 0.313767 0 -1.4904 1.44063 0 0 0 0)
(-0.371504 2.22423e-14 0 -5.10675e-14 0.341266 0 0 0 0)
(-0.641742 3.4955e-13 0 -1.43847e-13 0.53431 0 0 0 0)
(-1.1302 1.06867e-13 0 1.94629e-13 1.02534 0 0 0 0)
(-1.92583 -1.1775e-13 0 -1.97128e-13 1.85806 0 0 0 0)
(-1.41547 2.57578e-13 0 5.80823e-14 2.631 0 0 0 0)
(-0.297724 0.24251 0 0.210544 0.242904 0 -1.02592e-16 3.73632e-17 0)
(-0.501189 0.327287 0 0.260638 0.385647 0 -1.59728e-16 5.89807e-17 0)
(-0.851132 0.48386 0 0.538983 0.692699 0 -2.52045e-16 1.08905e-16 0)
(-1.57351 0.371994 0 1.24796 1.22629 0 0 0 0)
(-1.12991 -0.313767 0 1.4904 1.44063 0 0 0 0)
(-0.148885 0.40305 -1.38932e-17 0.233792 0.187599 -2.08398e-17 2.65531e-16 -1.45989e-16 3.76576e-33)
(-0.292512 0.48867 0 0.32489 0.309187 0 1.59728e-16 -5.89807e-17 0)
(-0.381457 0.584341 0 0.482916 0.332456 0 2.52045e-16 -1.08905e-16 0)
(-1.25736 0.371652 -4.0111e-17 1.16128 0.630226 -6.01665e-17 7.55023e-16 -5.03349e-16 1.08721e-32)
(0.258574 2.02875 5.01162e-16 3.92223 4.2853 7.51743e-16 -1.90858e-15 1.27239e-15 1.3584e-31)
(0.126897 0.539558 3.28182e-18 -0.49335 -1.12804 2.95363e-17 -1.18387e-15 9.59174e-17 -8.89538e-34)
(0.686762 -0.0216838 -9.73021e-19 -0.224223 -0.52613 -8.75719e-18 8.04639e-16 -7.28087e-17 -2.63738e-34)
(0.376768 0.0590276 0 0.0981626 -0.304636 0 0 0 0)
(-0.173714 0.425578 -1.38054e-18 0.704698 0.301147 -1.24249e-17 -4.73315e-16 6.40182e-17 3.74196e-34)
(-1.18785 0.492005 5.34654e-18 2.24895 1.71597 4.81189e-17 2.72927e-16 -3.03252e-17 1.44918e-33)
(0.455536 0.525085 0 -0.592801 -0.587858 0 5.99364e-16 -3.09723e-17 0)
(0.822407 -0.0331467 0 -0.213055 -0.590532 0 -4.05696e-16 2.84817e-17 0)
(0.691072 0.0894369 0 0.265673 -0.514045 0 0 0 0)
(0.685533 0.493043 0 1.08409 -0.662409 0 2.74395e-16 -4.06925e-17 0)
(1.26486 0.403859 0 3.34457 -1.30233 0 -2.6117e-17 1.06956e-17 0)
(0.582955 3.08045e-13 0 6.70782e-13 -0.881102 0 0 0 0)
(0.939087 4.66272e-13 0 1.4734e-12 -0.710354 0 0 0 0)
(0.856344 3.92813e-13 0 3.23855e-12 -0.588586 0 0 0 0)
(1.14644 3.21881e-13 0 5.88073e-12 -1.102 0 -9.66982e-17 3.91709e-29 0)
(1.9087 -2.17714e-13 0 9.10159e-12 -2.84112 0 5.22341e-17 -5.13863e-29 0)
(0.455536 -0.525085 0 0.592801 -0.587858 0 5.99364e-16 3.09723e-17 0)
(0.822407 0.0331467 0 0.213055 -0.590532 0 -4.05696e-16 -2.84817e-17 0)
(0.691072 -0.0894369 0 -0.265673 -0.514045 0 0 0 0)
(0.685533 -0.493043 0 -1.08409 -0.662409 0 2.74395e-16 4.06925e-17 0)
(1.26486 -0.403859 0 -3.34457 -1.30233 0 -2.6117e-17 -1.06956e-17 0)
(0.126897 -0.539558 0 0.49335 -1.12804 0 -5.99364e-16 -3.09723e-17 0)
(0.686762 0.0216838 9.73021e-19 0.224223 -0.52613 -8.75719e-18 6.75287e-18 -1.58453e-17 -2.63738e-34)
(0.376768 -0.0590276 0 -0.0981626 -0.304636 0 0 0 0)
(-0.173714 -0.425578 1.38054e-18 -0.704698 0.301147 -1.24249e-17 2.12232e-17 -9.06956e-18 3.74196e-34)
(-1.18785 -0.492005 -5.34654e-18 -2.24895 1.71597 4.81189e-17 -2.72927e-16 -3.03252e-17 1.44918e-33)
(0.649171 -0.894961 0 10.3025 -0.117321 0 0 0 0)
(1.44182 -1.06746 0 5.78166 0.643791 0 0 0 0)
(-0.67178 0.128576 0 2.98914 0.99845 0 0 0 0)
(-0.701195 0.505779 0 0.777798 0.909102 0 0 0 0)
(-0.337866 0.275966 0 0.120712 0.579899 0 0 0 0)
(-0.13088 0.0666377 0 0.029836 0.444638 0 0 0 0)
(-0.0102531 0.0179944 0 0.0191401 0.404746 0 0 0 0)
(0.0564743 0.0110958 0 -0.0021111 0.384274 0 0 0 0)
(0.108805 0.00419299 0 0.000600834 0.371506 0 0 0 0)
(0.139109 -0.00107654 0 0.00132787 0.372404 0 0 0 0)
(0.166983 -0.000106091 0 0.000608554 0.372087 0 0 0 0)
(0.189816 -0.000716806 0 6.92494e-05 0.372846 0 0 0 0)
(0.207478 -0.00118797 0 -0.000618101 0.374728 0 0 0 0)
(0.220037 -0.00145776 0 -0.00115722 0.377198 0 0 0 0)
(0.230724 -0.0016418 0 -0.0013792 0.380123 0 0 0 0)
(0.245757 -0.00167457 0 -0.00133186 0.383189 0 0 0 0)
(0.272085 -0.00152417 0 -0.00109317 0.386126 0 0 0 0)
(0.307014 -0.000935021 0 -0.000773087 0.388553 0 0 0 0)
(0.356277 -0.00116307 0 -0.000403545 0.389421 0 0 0 0)
(0.367377 -0.000709099 0 -6.34954e-05 0.392564 0 0 0 0)
(0.368514 0.00120698 0 0.000492271 0.391842 0 0 0 0)
(0.359105 0.00142489 0 0.000895758 0.388454 0 0 0 0)
(0.312275 0.00130092 0 0.00124832 0.386894 0 0 0 0)
(0.281452 0.00189334 0 0.00151481 0.383868 0 0 0 0)
(0.260357 0.00214035 0 0.0016612 0.380263 0 0 0 0)
(0.252568 0.00230516 0 0.00166829 0.376318 0 0 0 0)
(0.252209 0.00246548 0 0.0015737 0.372082 0 0 0 0)
(0.253881 0.0026428 0 0.0014448 0.36754 0 0 0 0)
(0.254001 0.00283601 0 0.00132223 0.362673 0 0 0 0)
(0.250895 0.00304251 0 0.00121138 0.357475 0 0 0 0)
(0.244104 0.00327065 0 0.00109095 0.351953 0 0 0 0)
(0.234352 0.00348268 0 0.000935138 0.346081 0 0 0 0)
(0.224056 0.00378497 0 0.000654247 0.340052 0 0 0 0)
(0.215895 0.00381295 0 0.000397979 0.333324 0 0 0 0)
(0.207778 0.00508888 0 -0.000244444 0.32777 0 0 0 0)
(0.187431 0.00321559 0 0.00226391 0.316809 0 0 0 0)
(0.138647 0.0082341 0 -0.00246441 0.317226 0 0 0 0)
(0.278015 0.0216691 0 -0.000371232 0.293979 0 0 0 0)
(2.39605 0.0373454 0 0.00174458 0.254691 0 0 0 0)
(2.17073 0.0239693 0 0.00377053 0.180458 0 0 0 0)
(1.52233 -0.769742 0 9.26764 -1.28489 0 0 0 0)
(-0.0304383 -0.917234 0 5.16336 1.84957 0 0 0 0)
(-1.6687 0.150956 0 2.83059 2.38451 0 0 0 0)
(-1.26021 0.39047 0 0.669868 1.40759 0 0 0 0)
(-0.472447 0.168276 0 -0.00202624 0.645901 0 0 0 0)
(-0.137314 0.034182 0 -0.0303214 0.458956 0 0 0 0)
(-0.0106723 0.00870518 0 -0.0279482 0.416834 0 0 0 0)
(0.0565566 0.00553429 0 -0.0311789 0.3971 0 0 0 0)
(0.109955 0.00206988 0 -0.0264616 0.378692 0 0 0 0)
(0.139742 -0.000598433 0 -0.0244592 0.382687 0 0 0 0)
(0.167351 -1.06534e-05 0 -0.0227695 0.382393 0 0 0 0)
(0.19015 -0.000342008 0 -0.0206389 0.383052 0 0 0 0)
(0.207769 -0.000581075 0 -0.0186918 0.384857 0 0 0 0)
(0.220386 -0.000706031 0 -0.0167662 0.387135 0 0 0 0)
(0.231186 -0.0007934 0 -0.0146401 0.389868 0 0 0 0)
(0.246332 -0.000811014 0 -0.012256 0.392779 0 0 0 0)
(0.272753 -0.000742368 0 -0.00963181 0.395624 0 0 0 0)
(0.30775 -0.000454573 0 -0.00685505 0.398018 0 0 0 0)
(0.357057 -0.000581721 0 -0.00400866 0.398838 0 0 0 0)
(0.368169 -0.000359836 0 -0.00118564 0.402016 0 0 0 0)
(0.369305 0.000607509 0 0.00152395 0.401276 0 0 0 0)
(0.359866 0.000709451 0 0.00434786 0.397867 0 0 0 0)
(0.312968 0.000635256 0 0.00713176 0.396378 0 0 0 0)
(0.282072 0.000925876 0 0.00984443 0.393395 0 0 0 0)
(0.26091 0.00104167 0 0.0124647 0.389869 0 0 0 0)
(0.253066 0.0011167 0 0.014994 0.386038 0 0 0 0)
(0.252665 0.00118936 0 0.0174551 0.381945 0 0 0 0)
(0.254299 0.00127053 0 0.019869 0.377563 0 0 0 0)
(0.254371 0.00136047 0 0.0222277 0.372861 0 0 0 0)
(0.251195 0.00145961 0 0.024493 0.367814 0 0 0 0)
(0.244303 0.00157409 0 0.0266054 0.362402 0 0 0 0)
(0.23441 0.00168956 0 0.0284931 0.356571 0 0 0 0)
(0.223962 0.00185436 0 0.0300287 0.35043 0 0 0 0)
(0.215589 0.00190922 0 0.0312369 0.34356 0 0 0 0)
(0.20759 0.00257043 0 0.0317704 0.337323 0 0 0 0)
(0.186649 0.00164842 0 0.0336238 0.326067 0 0 0 0)
(0.137605 0.00434143 0 0.031002 0.32627 0 0 0 0)
(0.27743 0.0111694 0 0.0306771 0.297763 0 0 0 0)
(2.39239 0.0195833 0 0.0242073 0.251782 0 0 0 0)
(2.16744 0.0127511 0 -0.0005247 0.169388 0 0 0 0)
(1.61181 -7.65586e-13 0 8.71354e-12 -2.97007 0 0 0 0)
(-0.430774 -5.57204e-13 0 3.18755e-12 2.65179 0 0 0 0)
(-1.97898 6.74784e-14 0 7.7348e-13 3.33591 0 0 0 0)
(-1.52523 3.71586e-13 0 -6.53478e-13 1.61397 0 0 0 0)
(-0.541557 7.15581e-13 0 4.55365e-13 0.651431 0 0 0 0)
(-0.138421 8.88574e-13 0 1.58294e-12 0.45707 0 0 0 0)
(-0.0105025 5.71376e-13 0 2.94903e-12 0.41643 0 0 0 0)
(0.0569068 -3.26254e-12 0 1.91805e-12 0.397222 0 0 0 0)
(0.11076 -9.27947e-12 0 -5.18446e-12 0.378381 0 0 0 0)
(0.140183 -9.38405e-12 0 -8.51e-12 0.382992 0 0 0 0)
(0.168094 1.36312e-12 0 -9.68094e-12 0.382496 0 0 0 0)
(0.191003 1.93354e-11 0 -1.40759e-11 0.383065 0 0 0 0)
(0.208604 3.44027e-11 0 -1.53622e-11 0.384847 0 0 0 0)
(0.221215 3.45926e-11 0 2.16909e-11 0.38706 0 0 0 0)
(0.232036 2.54122e-13 0 8.50133e-11 0.389701 0 0 0 0)
(0.247214 2.37428e-11 0 1.4551e-11 0.392515 0 0 0 0)
(0.273656 1.20224e-10 0 -4.47725e-10 0.395277 0 0 0 0)
(0.30865 -1.58356e-10 0 -7.41976e-10 0.397618 0 0 0 0)
(0.357926 -4.01931e-10 0 -4.54896e-10 0.398402 0 0 0 0)
(0.368987 1.33252e-10 0 -1.13684e-10 0.401618 0 0 0 0)
(0.370124 5.47375e-10 0 7.60463e-10 0.400876 0 0 0 0)
(0.360736 -6.20391e-11 0 3.18699e-10 0.397441 0 0 0 0)
(0.313874 -2.72128e-10 0 -4.63812e-10 0.395998 0 0 0 0)
(0.283003 2.73561e-10 0 -6.22715e-10 0.393074 0 0 0 0)
(0.261855 1.70175e-10 0 1.29449e-10 0.389633 0 0 0 0)
(0.25402 -9.12902e-11 0 2.72869e-10 0.385912 0 0 0 0)
(0.253627 4.63686e-11 0 -1.63275e-10 0.381956 0 0 0 0)
(0.25527 1.51352e-10 0 -3.594e-10 0.377735 0 0 0 0)
(0.255347 6.31698e-11 0 -2.18998e-10 0.373221 0 0 0 0)
(0.252169 -1.34587e-10 0 7.61603e-11 0.368382 0 0 0 0)
(0.245267 -2.57396e-10 0 3.85318e-10 0.363186 0 0 0 0)
(0.235348 -3.60689e-10 0 8.3978e-10 0.35756 0 0 0 0)
(0.224855 -4.60076e-10 0 1.23682e-09 0.35157 0 0 0 0)
(0.216401 -6.01386e-10 0 1.56647e-09 0.344812 0 0 0 0)
(0.208472 -5.91717e-10 0 2.04948e-09 0.338444 0 0 0 0)
(0.187208 -4.40841e-10 0 2.85541e-09 0.32714 0 0 0 0)
(0.137789 -8.50835e-11 0 2.85161e-09 0.327111 0 0 0 0)
(0.276039 6.45701e-10 0 2.707e-09 0.297293 0 0 0 0)
(2.38697 9.12146e-10 0 2.21147e-09 0.250322 0 0 0 0)
(2.16353 3.98338e-10 0 -6.90467e-10 0.162658 0 0 0 0)
(1.52233 0.769742 0 -9.26764 -1.28489 0 0 0 0)
(-0.0304383 0.917234 0 -5.16336 1.84957 0 0 0 0)
(-1.6687 -0.150956 0 -2.83059 2.38451 0 0 0 0)
(-1.26021 -0.39047 0 -0.669868 1.40759 0 0 0 0)
(-0.472447 -0.168276 0 0.00202624 0.645901 0 0 0 0)
(-0.137314 -0.034182 0 0.0303214 0.458956 0 0 0 0)
(-0.0106723 -0.00870518 0 0.0279482 0.416834 0 0 0 0)
(0.0565566 -0.00553429 0 0.0311789 0.3971 0 0 0 0)
(0.109955 -0.00206988 0 0.0264616 0.378692 0 0 0 0)
(0.139742 0.000598433 0 0.0244592 0.382687 0 0 0 0)
(0.167351 1.06534e-05 0 0.0227695 0.382393 0 0 0 0)
(0.19015 0.000342009 0 0.0206389 0.383052 0 0 0 0)
(0.207769 0.000581075 0 0.0186918 0.384857 0 0 0 0)
(0.220386 0.000706031 0 0.0167662 0.387135 0 0 0 0)
(0.231186 0.0007934 0 0.0146402 0.389868 0 0 0 0)
(0.246332 0.000811014 0 0.012256 0.392779 0 0 0 0)
(0.272753 0.000742368 0 0.00963181 0.395624 0 0 0 0)
(0.30775 0.000454573 0 0.00685505 0.398018 0 0 0 0)
(0.357057 0.000581721 0 0.00400866 0.398838 0 0 0 0)
(0.368169 0.000359836 0 0.00118564 0.402016 0 0 0 0)
(0.369305 -0.000607507 0 -0.00152395 0.401276 0 0 0 0)
(0.359866 -0.000709451 0 -0.00434786 0.397867 0 0 0 0)
(0.312968 -0.000635256 0 -0.00713176 0.396378 0 0 0 0)
(0.282072 -0.000925875 0 -0.00984443 0.393395 0 0 0 0)
(0.26091 -0.00104167 0 -0.0124647 0.389869 0 0 0 0)
(0.253066 -0.0011167 0 -0.014994 0.386038 0 0 0 0)
(0.252665 -0.00118936 0 -0.0174551 0.381945 0 0 0 0)
(0.254299 -0.00127053 0 -0.019869 0.377563 0 0 0 0)
(0.254371 -0.00136047 0 -0.0222277 0.372861 0 0 0 0)
(0.251195 -0.00145961 0 -0.024493 0.367814 0 0 0 0)
(0.244303 -0.00157409 0 -0.0266054 0.362402 0 0 0 0)
(0.23441 -0.00168956 0 -0.0284931 0.356571 0 0 0 0)
(0.223962 -0.00185436 0 -0.0300287 0.35043 0 0 0 0)
(0.215589 -0.00190922 0 -0.0312369 0.34356 0 0 0 0)
(0.20759 -0.00257043 0 -0.0317704 0.337323 0 0 0 0)
(0.186649 -0.00164842 0 -0.0336238 0.326067 0 0 0 0)
(0.137605 -0.00434143 0 -0.031002 0.32627 0 0 0 0)
(0.27743 -0.0111694 0 -0.0306771 0.297763 0 0 0 0)
(2.39239 -0.0195833 0 -0.0242073 0.251782 0 0 0 0)
(2.16744 -0.0127511 0 0.000524701 0.169388 0 0 0 0)
(0.649171 0.894961 0 -10.3025 -0.117321 0 0 0 0)
(1.44182 1.06746 0 -5.78166 0.643791 0 0 0 0)
(-0.67178 -0.128576 0 -2.98914 0.99845 0 0 0 0)
(-0.701195 -0.505779 0 -0.777798 0.909102 0 0 0 0)
(-0.337866 -0.275966 0 -0.120712 0.579899 0 0 0 0)
(-0.13088 -0.0666377 0 -0.029836 0.444638 0 0 0 0)
(-0.0102531 -0.0179944 0 -0.0191401 0.404746 0 0 0 0)
(0.0564743 -0.0110958 0 0.0021111 0.384274 0 0 0 0)
(0.108805 -0.00419299 0 -0.000600834 0.371506 0 0 0 0)
(0.139109 0.00107654 0 -0.00132787 0.372404 0 0 0 0)
(0.166983 0.000106091 0 -0.000608554 0.372087 0 0 0 0)
(0.189816 0.000716806 0 -6.92494e-05 0.372846 0 0 0 0)
(0.207478 0.00118797 0 0.000618101 0.374728 0 0 0 0)
(0.220037 0.00145776 0 0.00115722 0.377198 0 0 0 0)
(0.230724 0.0016418 0 0.0013792 0.380123 0 0 0 0)
(0.245757 0.00167457 0 0.00133186 0.383189 0 0 0 0)
(0.272085 0.00152417 0 0.00109317 0.386126 0 0 0 0)
(0.307014 0.00093502 0 0.000773087 0.388553 0 0 0 0)
(0.356277 0.00116307 0 0.000403545 0.389421 0 0 0 0)
(0.367377 0.000709099 0 6.34954e-05 0.392564 0 0 0 0)
(0.368514 -0.00120698 0 -0.00049227 0.391842 0 0 0 0)
(0.359105 -0.00142489 0 -0.000895759 0.388454 0 0 0 0)
(0.312275 -0.00130092 0 -0.00124832 0.386894 0 0 0 0)
(0.281452 -0.00189334 0 -0.00151481 0.383868 0 0 0 0)
(0.260357 -0.00214034 0 -0.0016612 0.380263 0 0 0 0)
(0.252568 -0.00230516 0 -0.00166829 0.376318 0 0 0 0)
(0.252209 -0.00246548 0 -0.0015737 0.372082 0 0 0 0)
(0.253881 -0.0026428 0 -0.0014448 0.36754 0 0 0 0)
(0.254001 -0.00283601 0 -0.00132223 0.362673 0 0 0 0)
(0.250895 -0.00304251 0 -0.00121138 0.357475 0 0 0 0)
(0.244104 -0.00327065 0 -0.00109095 0.351953 0 0 0 0)
(0.234352 -0.00348268 0 -0.000935139 0.346081 0 0 0 0)
(0.224056 -0.00378497 0 -0.000654248 0.340052 0 0 0 0)
(0.215895 -0.00381295 0 -0.000397982 0.333324 0 0 0 0)
(0.207778 -0.00508888 0 0.000244441 0.32777 0 0 0 0)
(0.187431 -0.00321559 0 -0.00226391 0.316809 0 0 0 0)
(0.138647 -0.0082341 0 0.00246441 0.317226 0 0 0 0)
(0.278015 -0.0216691 0 0.000371228 0.293979 0 0 0 0)
(2.39605 -0.0373454 0 -0.00174458 0.254691 0 0 0 0)
(2.17073 -0.0239693 0 -0.00377053 0.180458 0 0 0 0)
(2.52057 1.18633 0 -3.74594 -0.0493071 0 0 0 0)
(2.85471 1.44343 0 -2.53589 0.292629 0 0 0 0)
(0.31739 -0.0104108 0 -1.5657 0.394683 0 0 0 0)
(-0.107293 -0.51969 0 -0.58156 0.465994 0 0 0 0)
(-0.158881 -0.335104 0 -0.243555 0.455113 0 0 0 0)
(-0.0810397 -0.106524 0 -0.096948 0.404188 0 0 0 0)
(0.00888263 -0.0358298 0 -0.0566736 0.370675 0 0 0 0)
(0.0682809 -0.0199545 0 -0.0171214 0.353675 0 0 0 0)
(0.109126 -0.00706067 0 -0.0134037 0.349383 0 0 0 0)
(0.140469 0.000410007 0 -0.00983931 0.345881 0 0 0 0)
(0.168567 0.00017788 0 -0.0071456 0.345399 0 0 0 0)
(0.191306 0.00156532 0 -0.00499144 0.346349 0 0 0 0)
(0.208875 0.0026089 0 -0.00311645 0.348496 0 0 0 0)
(0.221268 0.0032214 0 -0.00166292 0.351333 0 0 0 0)
(0.231829 0.00357089 0 -0.00068449 0.354569 0 0 0 0)
(0.246817 0.00357771 0 -0.000111064 0.357859 0 0 0 0)
(0.273175 0.00320263 0 0.000115711 0.360929 0 0 0 0)
(0.308168 0.00196621 0 0.000112733 0.363426 0 0 0 0)
(0.357514 0.00242599 0 -1.24218e-05 0.364393 0 0 0 0)
(0.368522 0.00147424 0 -0.000152794 0.367598 0 0 0 0)
(0.369617 -0.00249266 0 -0.000719487 0.366905 0 0 0 0)
(0.360272 -0.00298571 0 -0.000971397 0.363457 0 0 0 0)
(0.313381 -0.00274234 0 -0.00119477 0.361786 0 0 0 0)
(0.282531 -0.00396671 0 -0.00140381 0.358682 0 0 0 0)
(0.261453 -0.00450712 0 -0.00148367 0.354954 0 0 0 0)
(0.253696 -0.00487414 0 -0.00139157 0.350838 0 0 0 0)
(0.253332 -0.00522019 0 -0.00118828 0.346383 0 0 0 0)
(0.25494 -0.0055857 0 -0.000991372 0.341584 0 0 0 0)
(0.254946 -0.00596745 0 -0.000888012 0.336433 0 0 0 0)
(0.251686 -0.00635425 0 -0.000906547 0.330933 0 0 0 0)
(0.244707 -0.00676014 0 -0.00104696 0.325106 0 0 0 0)
(0.234751 -0.00708097 0 -0.00130972 0.318932 0 0 0 0)
(0.224189 -0.00762408 0 -0.00154954 0.312711 0 0 0 0)
(0.215798 -0.0074126 0 -0.00221603 0.305536 0 0 0 0)
(0.206203 -0.0100179 0 -0.0021217 0.300298 0 0 0 0)
(0.187136 -0.00645011 0 -0.00724376 0.288098 0 0 0 0)
(0.138054 -0.0141608 0 -0.00375062 0.288249 0 0 0 0)
(0.274112 -0.0382558 0 -0.00808179 0.271444 0 0 0 0)
(2.38557 -0.0702545 0 -0.00878247 0.241636 0 0 0 0)
(2.16236 -0.0463443 0 -0.0261979 0.185858 0 0 0 0)
(2.33266 1.09415 0 -0.461328 0.495607 0 0 0 0)
(2.78515 1.2937 0 -0.76868 0.174772 0 0 0 0)
(0.681053 -0.0248782 0 -0.683932 0.119269 0 0 0 0)
(0.254399 -0.440086 0 -0.414456 0.214436 0 0 0 0)
(0.0331465 -0.303812 0 -0.227129 0.337927 0 0 0 0)
(0.0224805 -0.126617 0 -0.101845 0.348393 0 0 0 0)
(0.0564096 -0.0571066 0 -0.0467317 0.330328 0 0 0 0)
(0.0918397 -0.0268634 0 -0.0163451 0.319575 0 0 0 0)
(0.115651 -0.0101656 0 -0.0053756 0.31834 0 0 0 0)
(0.14441 -0.00240489 0 0.000738084 0.312169 0 0 0 0)
(0.170805 0.00051782 0 0.00381473 0.311357 0 0 0 0)
(0.1929 0.0032461 0 0.0061109 0.312048 0 0 0 0)
(0.209936 0.00522916 0 0.00783563 0.313947 0 0 0 0)
(0.22172 0.00636422 0 0.00891758 0.316597 0 0 0 0)
(0.231628 0.00689637 0 0.00925446 0.319615 0 0 0 0)
(0.24596 0.00678273 0 0.00879246 0.322691 0 0 0 0)
(0.271716 0.00598798 0 0.00751527 0.325574 0 0 0 0)
(0.306271 0.00372025 0 0.00556727 0.327936 0 0 0 0)
(0.355358 0.00450629 0 0.00325127 0.328867 0 0 0 0)
(0.366082 0.00271886 0 0.000738584 0.332015 0 0 0 0)
(0.367134 -0.00450798 0 -0.00213925 0.331361 0 0 0 0)
(0.358021 -0.00552023 0 -0.00464354 0.327945 0 0 0 0)
(0.311266 -0.00512933 0 -0.00686552 0.326328 0 0 0 0)
(0.280594 -0.00736523 0 -0.00892453 0.323379 0 0 0 0)
(0.259781 -0.00842968 0 -0.0106214 0.319828 0 0 0 0)
(0.252248 -0.00918707 0 -0.0119536 0.315885 0 0 0 0)
(0.251993 -0.00990542 0 -0.013049 0.311603 0 0 0 0)
(0.253602 -0.010653 0 -0.0140899 0.306986 0 0 0 0)
(0.253577 -0.0114214 0 -0.0151553 0.302062 0 0 0 0)
(0.250318 -0.0121815 0 -0.016261 0.296832 0 0 0 0)
(0.243392 -0.0129635 0 -0.0172961 0.291394 0 0 0 0)
(0.233654 -0.0134977 0 -0.0182492 0.285701 0 0 0 0)
(0.223112 -0.0146354 0 -0.0187874 0.280227 0 0 0 0)
(0.215395 -0.0138445 0 -0.0198785 0.273583 0 0 0 0)
(0.203777 -0.0192498 0 -0.0191382 0.269532 0 0 0 0)
(0.18602 -0.0130921 0 -0.0244313 0.257677 0 0 0 0)
(0.138157 -0.0211047 0 -0.021888 0.258179 0 0 0 0)
(0.27526 -0.0576927 0 -0.0239477 0.249962 0 0 0 0)
(2.38421 -0.102171 0 -0.0152585 0.232961 0 0 0 0)
(2.15843 -0.06572 0 -0.0359829 0.217883 0 0 0 0)
(2.22439 0.87716 0 -0.0052705 0.494659 0 0 0 0)
(2.6402 1.08077 0 -0.179459 0.0390555 0 0 0 0)
(0.658733 0.0278108 0 -0.248868 0.0266872 0 0 0 0)
(0.332899 -0.308984 0 -0.255293 0.115821 0 0 0 0)
(0.142362 -0.206019 0 -0.165234 0.261665 0 0 0 0)
(0.0927973 -0.113846 0 -0.0952535 0.293789 0 0 0 0)
(0.0912737 -0.0635999 0 -0.0462733 0.295391 0 0 0 0)
(0.108133 -0.0315065 0 -0.0270007 0.289066 0 0 0 0)
(0.125588 -0.0141975 0 -0.012078 0.286694 0 0 0 0)
(0.149325 -0.00631912 0 -0.00392566 0.280637 0 0 0 0)
(0.173744 6.11253e-05 0 0.0010438 0.278826 0 0 0 0)
(0.195181 0.00406195 0 0.00496156 0.278519 0 0 0 0)
(0.21158 0.00699304 0 0.00783683 0.279394 0 0 0 0)
(0.222636 0.00868329 0 0.00974253 0.281016 0 0 0 0)
(0.231708 0.00944301 0 0.010597 0.283014 0 0 0 0)
(0.245141 0.00931935 0 0.0103315 0.285154 0 0 0 0)
(0.270067 0.00825702 0 0.00891863 0.28725 0 0 0 0)
(0.304059 0.0051401 0 0.00657137 0.289033 0 0 0 0)
(0.352861 0.00635656 0 0.00373577 0.289617 0 0 0 0)
(0.363328 0.00387697 0 0.000686882 0.292521 0 0 0 0)
(0.364431 -0.00641533 0 -0.00276445 0.291925 0 0 0 0)
(0.355718 -0.0078354 0 -0.00571445 0.28865 0 0 0 0)
(0.309256 -0.00714185 0 -0.00826023 0.287363 0 0 0 0)
(0.278912 -0.0102308 0 -0.0105277 0.284968 0 0 0 0)
(0.258534 -0.0117285 0 -0.0122411 0.282121 0 0 0 0)
(0.251356 -0.0128001 0 -0.0134023 0.278987 0 0 0 0)
(0.251273 -0.0137956 0 -0.0142104 0.275615 0 0 0 0)
(0.252911 -0.0147796 0 -0.0148834 0.272072 0 0 0 0)
(0.252854 -0.0157523 0 -0.0155904 0.268364 0 0 0 0)
(0.249623 -0.0166338 0 -0.01623 0.264655 0 0 0 0)
(0.242791 -0.0174859 0 -0.0168171 0.260924 0 0 0 0)
(0.233314 -0.0178424 0 -0.0172521 0.257259 0 0 0 0)
(0.222619 -0.0193017 0 -0.0171383 0.254292 0 0 0 0)
(0.21546 -0.017718 0 -0.0183224 0.249808 0 0 0 0)
(0.201816 -0.0253459 0 -0.0171986 0.248547 0 0 0 0)
(0.184486 -0.017391 0 -0.0224096 0.239781 0 0 0 0)
(0.13852 -0.0215954 0 -0.0203452 0.24198 0 0 0 0)
(0.2805 -0.0625561 0 -0.0198488 0.244887 0 0 0 0)
(2.37397 -0.101167 0 -0.00633355 0.233761 0 0 0 0)
(2.14239 -0.0608746 0 -0.050447 0.256234 0 0 0 0)
(2.1648 0.655118 0 0.0658428 0.49223 0 0 0 0)
(2.55041 0.842749 0 -0.0529792 0.105513 0 0 0 0)
(0.607977 0.049096 0 -0.112749 0.0589462 0 0 0 0)
(0.334993 -0.213654 0 -0.163295 0.125286 0 0 0 0)
(0.187366 -0.132316 0 -0.127116 0.232121 0 0 0 0)
(0.137115 -0.0941161 0 -0.0883892 0.258515 0 0 0 0)
(0.12218 -0.0616583 0 -0.0516622 0.269673 0 0 0 0)
(0.124792 -0.0352449 0 -0.0337752 0.267326 0 0 0 0)
(0.137887 -0.0182879 0 -0.0191681 0.264533 0 0 0 0)
(0.157055 -0.00998685 0 -0.00922307 0.260613 0 0 0 0)
(0.179369 -0.0015231 0 -0.00195639 0.258309 0 0 0 0)
(0.199446 0.00379339 0 0.00362862 0.25751 0 0 0 0)
(0.214543 0.00763499 0 0.00771235 0.2575 0 0 0 0)
(0.22438 0.0098527 0 0.0102864 0.258173 0 0 0 0)
(0.232195 0.0108842 0 0.0115488 0.259108 0 0 0 0)
(0.244342 0.010865 0 0.0114204 0.260224 0 0 0 0)
(0.268093 0.0097257 0 0.00991153 0.26138 0 0 0 0)
(0.301277 0.00600068 0 0.00726623 0.262417 0 0 0 0)
(0.349687 0.00786773 0 0.00402178 0.26251 0 0 0 0)
(0.359818 0.00494328 0 0.000586688 0.265191 0 0 0 0)
(0.360965 -0.00823851 0 -0.00339503 0.264731 0 0 0 0)
(0.352725 -0.0099164 0 -0.00674188 0.261641 0 0 0 0)
(0.306627 -0.00867689 0 -0.00970655 0.260887 0 0 0 0)
(0.276758 -0.0124167 0 -0.01234 0.25926 0 0 0 0)
(0.257011 -0.0141935 0 -0.0142789 0.257388 0 0 0 0)
(0.250351 -0.0154562 0 -0.0155217 0.255368 0 0 0 0)
(0.250566 -0.0165689 0 -0.0162888 0.253282 0 0 0 0)
(0.252273 -0.0176402 0 -0.0169528 0.251108 0 0 0 0)
(0.252279 -0.0185688 0 -0.0174816 0.2491 0 0 0 0)
(0.249136 -0.0193508 0 -0.0181825 0.24696 0 0 0 0)
(0.242407 -0.0200906 0 -0.0184395 0.245362 0 0 0 0)
(0.233344 -0.019889 0 -0.0188822 0.2435 0 0 0 0)
(0.222081 -0.021815 0 -0.0184861 0.24282 0 0 0 0)
(0.215337 -0.0193807 0 -0.0203571 0.239874 0 0 0 0)
(0.199839 -0.0289128 0 -0.0194357 0.240664 0 0 0 0)
(0.182988 -0.0194197 0 -0.0245875 0.234715 0 0 0 0)
(0.140625 -0.0161839 0 -0.0227902 0.237233 0 0 0 0)
(0.288762 -0.0656132 0 -0.0153737 0.248065 0 0 0 0)
(2.35472 -0.0912376 0 -0.00352365 0.232947 0 0 0 0)
(2.11592 -0.0440643 0 -0.0637728 0.278209 0 0 0 0)
(2.10989 0.504506 0 0.0398863 0.457288 0 0 0 0)
(2.46811 0.663245 0 -0.0116432 0.145121 0 0 0 0)
(0.552428 0.0468651 0 -0.0609012 0.096477 0 0 0 0)
(0.319054 -0.142107 0 -0.111264 0.150654 0 0 0 0)
(0.214545 -0.0776339 0 -0.0975229 0.22243 0 0 0 0)
(0.165507 -0.07766 0 -0.0705086 0.239984 0 0 0 0)
(0.143902 -0.0551093 0 -0.0493435 0.255449 0 0 0 0)
(0.139446 -0.036459 0 -0.0342255 0.256121 0 0 0 0)
(0.149247 -0.0206666 0 -0.0220373 0.254893 0 0 0 0)
(0.165911 -0.0123172 0 -0.0115517 0.253186 0 0 0 0)
(0.186129 -0.00292879 0 -0.00339115 0.251877 0 0 0 0)
(0.204498 0.0032825 0 0.00322932 0.251086 0 0 0 0)
(0.217995 0.0076313 0 0.00759901 0.251088 0 0 0 0)
(0.226332 0.0102325 0 0.010482 0.251215 0 0 0 0)
(0.232801 0.0114202 0 0.0118073 0.251596 0 0 0 0)
(0.243563 0.0115091 0 0.0117412 0.252024 0 0 0 0)
(0.266064 0.0103697 0 0.0101963 0.252492 0 0 0 0)
(0.298384 0.00622858 0 0.00742595 0.252937 0 0 0 0)
(0.346424 0.00903009 0 0.00402372 0.25264 0 0 0 0)
(0.35618 0.00601802 0 0.000506577 0.255207 0 0 0 0)
(0.357369 -0.00983652 0 -0.0037555 0.25497 0 0 0 0)
(0.349636 -0.0115403 0 -0.00719854 0.252095 0 0 0 0)
(0.303861 -0.0094357 0 -0.010357 0.251913 0 0 0 0)
(0.274506 -0.0136027 0 -0.0131923 0.251032 0 0 0 0)
(0.255468 -0.0154791 0 -0.0152553 0.250057 0 0 0 0)
(0.24942 -0.0167562 0 -0.0164891 0.249068 0 0 0 0)
(0.249894 -0.0179015 0 -0.0172798 0.248019 0 0 0 0)
(0.251761 -0.0188092 0 -0.017751 0.247183 0 0 0 0)
(0.251669 -0.0197488 0 -0.018573 0.246076 0 0 0 0)
(0.2487 -0.0202368 0 -0.0187734 0.245732 0 0 0 0)
(0.242117 -0.0208206 0 -0.0194886 0.244792 0 0 0 0)
(0.233269 -0.020292 0 -0.0197135 0.244386 0 0 0 0)
(0.221198 -0.0227957 0 -0.0190829 0.245001 0 0 0 0)
(0.214545 -0.0197953 0 -0.0220467 0.242235 0 0 0 0)
(0.197739 -0.0303177 0 -0.0215194 0.243924 0 0 0 0)
(0.181254 -0.0206973 0 -0.0258472 0.240821 0 0 0 0)
(0.147398 -0.00873027 0 -0.0232987 0.242065 0 0 0 0)
(0.299066 -0.0666858 0 -0.00861327 0.253353 0 0 0 0)
(2.32733 -0.0721194 0 -0.00440961 0.240941 0 0 0 0)
(2.08433 -0.017259 0 -0.077038 0.286086 0 0 0 0)
(2.11515 0.354303 0 0.0506532 0.425681 0 0 0 0)
(2.45329 0.495059 0 0.00397896 0.164639 0 0 0 0)
(0.511979 0.0544277 0 -0.0347 0.13506 0 0 0 0)
(0.299703 -0.0922803 0 -0.0700888 0.183548 0 0 0 0)
(0.22664 -0.0462337 0 -0.0719028 0.218103 0 0 0 0)
(0.183542 -0.0622983 0 -0.0543907 0.231131 0 0 0 0)
(0.157144 -0.0461088 0 -0.0444231 0.248383 0 0 0 0)
(0.151105 -0.0357805 0 -0.0326712 0.249982 0 0 0 0)
(0.159736 -0.0211162 0 -0.022426 0.250905 0 0 0 0)
(0.175023 -0.0128935 0 -0.0123129 0.251574 0 0 0 0)
(0.193612 -0.00354638 0 -0.00301491 0.25077 0 0 0 0)
(0.210037 0.00303356 0 0.00318185 0.251522 0 0 0 0)
(0.221532 0.00775947 0 0.00819588 0.251343 0 0 0 0)
(0.228435 0.0103423 0 0.0108437 0.251825 0 0 0 0)
(0.233409 0.0116634 0 0.0123308 0.25201 0 0 0 0)
(0.24279 0.011728 0 0.0122613 0.252282 0 0 0 0)
(0.263935 0.0106061 0 0.0106847 0.252494 0 0 0 0)
(0.295329 0.00614339 0 0.00775593 0.252734 0 0 0 0)
(0.343019 0.0100551 0 0.00418123 0.252347 0 0 0 0)
(0.352322 0.00718896 0 0.000554865 0.25494 0 0 0 0)
(0.353541 -0.0112377 0 -0.00406057 0.254929 0 0 0 0)
(0.346363 -0.0128624 0 -0.00764432 0.252158 0 0 0 0)
(0.300852 -0.00970127 0 -0.011051 0.25227 0 0 0 0)
(0.272038 -0.0142057 0 -0.0141533 0.251742 0 0 0 0)
(0.253834 -0.0160858 0 -0.0163639 0.251189 0 0 0 0)
(0.2484 -0.0174201 0 -0.0176979 0.250566 0 0 0 0)
(0.24935 -0.0183852 0 -0.0183089 0.2501 0 0 0 0)
(0.251027 -0.0195126 0 -0.0191737 0.249265 0 0 0 0)
(0.251294 -0.0199671 0 -0.0191403 0.249407 0 0 0 0)
(0.248254 -0.0205876 0 -0.0206205 0.24798 0 0 0 0)
(0.241501 -0.0213876 0 -0.0196934 0.249091 0 0 0 0)
(0.233735 -0.0196881 0 -0.0210983 0.247422 0 0 0 0)
(0.219832 -0.0238877 0 -0.0199349 0.248771 0 0 0 0)
(0.212989 -0.0204186 0 -0.0232914 0.246047 0 0 0 0)
(0.196176 -0.0302757 0 -0.0228309 0.247757 0 0 0 0)
(0.181273 -0.0212104 0 -0.0259162 0.246591 0 0 0 0)
(0.157232 -0.00410756 0 -0.0205855 0.24742 0 0 0 0)