/*--------------------------------*- C++ -*----------------------------------*\
| =========                 |                                                 |
| \\      /  F ield         | OpenFOAM: The Open Source CFD Toolbox           |
|  \\    /   O peration     | Version:  v1912                                 |
|   \\  /    A nd           | Website:  www.openfoam.com                      |
|    \\/     M anipulation  |                                                 |
\*---------------------------------------------------------------------------*/
FoamFile
{
    version     2.0;
    format      ascii;
    class       volScalarField;
    location    "2.78";
    object      Ma;
}
// * * * * * * * * * * * * * * * * * * * * * * * * * * * * * * * * * * * * * //

dimensions      [0 0 0 0 0 0 0];


internalField   nonuniform List<scalar> 
1900
(
0.364414
0.0629419
0.0664084
0.0709594
0.0750076
0.0792913
0.0838483
0.08843
0.092244
0.0848755
0.364417
0.0629504
0.0664198
0.0709684
0.0749522
0.0789771
0.0828698
0.0868995
0.0925525
0.0985422
0.364417
0.0629545
0.0664232
0.0709514
0.0748783
0.0787692
0.0824984
0.0866215
0.0928082
0.104287
0.364417
0.0629504
0.0664198
0.0709684
0.0749522
0.0789771
0.0828698
0.0868995
0.0925525
0.0985422
0.364414
0.0629419
0.0664084
0.0709594
0.0750076
0.0792913
0.0838483
0.08843
0.092244
0.0848755
0.098446
0.129901
0.162647
0.216845
0.382412
0.12022
0.151007
0.194903
0.280885
0.438467
0.125909
0.155127
0.204074
0.296633
0.452877
0.12022
0.151007
0.194903
0.280885
0.438467
0.098446
0.129901
0.162647
0.216845
0.382412
0.420325
0.343867
0.30303
0.286027
0.366325
0.437827
0.353144
0.29543
0.238854
0.215668
0.446771
0.353833
0.285568
0.206486
0.0854381
0.437827
0.353144
0.29543
0.238854
0.215668
0.420325
0.343867
0.30303
0.286027
0.366325
0.632134
0.213151
0.279747
0.347052
0.399779
0.432834
0.438453
0.43453
0.41914
0.399003
0.374095
0.345415
0.313798
0.280241
0.245554
0.209798
0.172021
0.13045
0.0855698
0.0406723
0.0431786
0.0898461
0.13547
0.178242
0.217885
0.256458
0.295343
0.335114
0.375686
0.416613
0.457281
0.497043
0.535458
0.572656
0.609198
0.644434
0.674219
0.692465
0.797317
1.64708
0.123961
0.254643
0.147272
0.29287
0.395385
0.432259
0.43812
0.434511
0.418988
0.398659
0.373644
0.344828
0.313055
0.279301
0.244346
0.208221
0.169905
0.127429
0.0806576
0.0283977
0.0319459
0.0852207
0.132603
0.176236
0.2164
0.255343
0.294515
0.334521
0.375287
0.416374
0.457169
0.497021
0.535485
0.5727
0.6092
0.644486
0.674024
0.692254
0.797024
1.64534
0.187713
0.335432
0.0674589
0.264606
0.395293
0.43333
0.439135
0.435666
0.419967
0.399577
0.374447
0.345474
0.313534
0.279604
0.244453
0.208101
0.169502
0.126617
0.0790735
0.0229386
0.0272483
0.0837539
0.131857
0.175886
0.216336
0.25552
0.294909
0.335119
0.37608
0.417355
0.458331
0.498357
0.536984
0.574351
0.610983
0.646439
0.676003
0.694287
0.798586
1.6445
0.123961
0.254643
0.147272
0.29287
0.395385
0.432259
0.43812
0.434511
0.418988
0.398659
0.373644
0.344828
0.313055
0.279301
0.244346
0.208221
0.169905
0.127429
0.0806576
0.0283977
0.0319459
0.0852207
0.132603
0.176236
0.2164
0.255343
0.294515
0.334521
0.375287
0.416374
0.457169
0.497021
0.535485
0.5727
0.6092
0.644486
0.674024
0.692254
0.797024
1.64534
0.632134
0.213151
0.279747
0.347052
0.399779
0.432834
0.438453
0.43453
0.41914
0.399003
0.374095
0.345415
0.313798
0.280241
0.245554
0.209798
0.172021
0.13045
0.0855698
0.0406723
0.0431786
0.0898461
0.13547
0.178242
0.217885
0.256458
0.295343
0.335114
0.375686
0.416613
0.457281
0.497043
0.535458
0.572656
0.609198
0.644434
0.674219
0.692465
0.797317
1.64708
1.44834
0.560474
0.47141
0.430405
0.431801
0.447514
0.449773
0.441723
0.426142
0.405958
0.380972
0.352345
0.320924
0.287751
0.253689
0.218884
0.182617
0.143734
0.104234
0.072016
0.0733694
0.107679
0.148187
0.188363
0.226526
0.264149
0.302375
0.34167
0.381889
0.422551
0.463015
0.502611
0.540888
0.577938
0.614365
0.648998
0.679118
0.696629
0.800761
1.64959
1.68726
0.767791
0.623366
0.525025
0.490717
0.479641
0.470922
0.456063
0.439091
0.418212
0.393256
0.365054
0.334463
0.302579
0.270358
0.23811
0.205487
0.172135
0.140973
0.119755
0.120405
0.143303
0.175532
0.210186
0.244612
0.279481
0.315545
0.353074
0.39182
0.431245
0.470675
0.509408
0.547019
0.58343
0.619624
0.652948
0.683458
0.700064
0.80456
1.6548
1.70874
0.811087
0.678637
0.58213
0.537419
0.51228
0.494584
0.475958
0.456899
0.43498
0.409987
0.382194
0.352486
0.321994
0.29173
0.262108
0.232997
0.204375
0.178943
0.163315
0.163623
0.180539
0.206908
0.236768
0.267573
0.299611
0.333379
0.368995
0.406142
0.444229
0.482571
0.520419
0.557394
0.593125
0.629132
0.661055
0.691824
0.707883
0.813508
1.66299
1.69272
0.834023
0.709067
0.622593
0.577581
0.54642
0.522015
0.500072
0.478614
0.455292
0.429757
0.401984
0.372885
0.343553
0.314991
0.287634
0.261427
0.236408
0.214783
0.202488
0.202564
0.215809
0.238155
0.264248
0.291943
0.321404
0.352991
0.386752
0.422301
0.459074
0.496318
0.533296
0.569694
0.604587
0.640417
0.670783
0.701953
0.718286
0.824724
1.67033
1.69909
0.852768
0.732814
0.656904
0.613947
0.578963
0.551128
0.526504
0.503152
0.478484
0.45223
0.424397
0.395781
0.367504
0.340446
0.315034
0.291208
0.268974
0.250045
0.240068
0.239985
0.250637
0.270069
0.293186
0.31827
0.345461
0.375068
0.407053
0.441112
0.4765
0.512742
0.54876
0.584581
0.618431
0.653957
0.682772
0.714215
0.732875
0.838527
1.67858
1.72066
0.870085
0.754843
0.687432
0.647453
0.60996
0.581198
0.554765
0.530026
0.504166
0.477325
0.449313
0.421284
0.393972
0.368327
0.344628
0.322819
0.302839
0.285962
0.277783
0.277598
0.286229
0.303412
0.324076
0.346896
0.372051
0.399768
0.430122
0.462506
0.49677
0.531649
0.566805
0.602047
0.634486
0.669638
0.697139
0.729165
0.750744
0.854146
1.68541
1.72106
0.887525
0.77744
0.716558
0.678725
0.640295
0.612197
0.584454
0.558824
0.532204
0.504525
0.47691
0.449224
0.423049
0.398666
0.376532
0.356465
0.338374
0.323141
0.316453
0.316211
0.323176
0.33855
0.357133
0.377967
0.401227
0.427257
0.45576
0.487005
0.519255
0.553729
0.587243
0.62201
0.653086
0.687815
0.714226
0.747292
0.771187
0.87218
1.69451
1.72021
0.90572
0.800031
0.745092
0.708702
0.670237
0.643674
0.61515
0.589236
0.561407
0.534389
0.506089
0.479637
0.45415
0.431109
0.410312
0.391771
0.375272
0.361391
0.355979
0.355719
0.361274
0.375164
0.391978
0.411047
0.432671
0.456891
0.484236
0.513101
0.545379
0.577043
0.61054
0.644431
0.673485
0.708036
0.733709
0.76787
0.793057
0.890916
1.69943
1.73096
0.928446
0.825053
0.775523
0.739395
0.701381
0.676388
0.646949
0.620446
0.59357
0.564306
0.538088
0.511117
0.487132
0.464949
0.445436
0.428167
0.413018
0.400257
0.395955
0.39571
0.400055
0.412728
0.428038
0.445627
0.465661
0.488711
0.513831
0.542914
0.571258
0.6051
0.634839
0.669311
0.697113
0.731158
0.756337
0.791899
0.818357
0.913833
1.70931
1.73455
0.947934
0.847571
0.804567
0.768196
0.731275
0.707725
0.677886
0.653371
0.623306
0.59778
0.56917
0.54463
0.520684
0.49981
0.481224
0.465078
0.451046
0.439229
0.4359
0.435692
0.438999
0.450669
0.464739
0.481018
0.499908
0.521246
0.546096
0.571658
0.602307
0.63051
0.662508
0.694747
0.720566
0.754529
0.779179
0.815672
0.84164
0.933906
1.71219
1.74734
0.975484
0.87687
0.839311
0.800438
0.765006
0.742077
0.712119
0.685624
0.658583
0.629029
0.603544
0.577725
0.555249
0.534824
0.517174
0.501891
0.488791
0.47777
0.475293
0.475136
0.477554
0.488405
0.501455
0.516738
0.534477
0.555175
0.577988
0.604838
0.630722
0.663483
0.689851
0.724494
0.749199
0.782626
0.807271
0.845719
0.872593
0.962526
1.72229
1.75048
0.995242
0.899889
0.866363
0.826114
0.793517
0.770876
0.740062
0.716807
0.686894
0.661188
0.63469
0.610808
0.588833
0.569422
0.552531
0.538039
0.525718
0.515387
0.513652
0.513549
0.515212
0.525379
0.537597
0.551995
0.568843
0.588304
0.610424
0.634783
0.661442
0.689476
0.717664
0.748781
0.772602
0.805783
0.829469
0.868338
0.894368
0.981764
1.72275
1.76095
1.02572
0.932091
0.90097
0.859372
0.829005
0.805008
0.774952
0.75063
0.721143
0.69504
0.668359
0.644735
0.622936
0.603927
0.587445
0.573449
0.561674
0.551884
0.550761
0.550707
0.55176
0.561412
0.573066
0.586922
0.603273
0.622217
0.643905
0.667946
0.693928
0.722789
0.748671
0.78154
0.80407
0.838044
0.862244
0.902736
0.929225
1.01453
1.73122
1.76057
1.04635
0.956843
0.927339
0.884587
0.85596
0.830238
0.799447
0.775882
0.746198
0.721174
0.69592
0.673687
0.653493
0.635885
0.620647
0.607645
0.596647
0.587492
0.586921
0.586904
0.587416
0.596467
0.607347
0.620201
0.635257
0.652758
0.6726
0.6953
0.718977
0.747188
0.77139
0.803544
0.82525
0.859481
0.88347
0.924816
0.950924
1.03382
1.72839
1.7658
1.07828
0.990592
0.962215
0.918919
0.892206
0.862427
0.833431
0.808496
0.779198
0.754386
0.729425
0.707395
0.687562
0.670311
0.655373
0.642531
0.631675
0.622694
0.622454
0.622462
0.622659
0.631575
0.642338
0.655059
0.669823
0.686988
0.706412
0.728974
0.752222
0.780217
0.80417
0.836656
0.858667
0.89456
0.919632
0.961731
0.987578
1.06861
1.73322
1.75917
1.10011
1.01858
0.99166
0.947772
0.921474
0.887347
0.860334
0.832732
0.804548
0.779196
0.754464
0.732683
0.713429
0.697104
0.683451
0.67214
0.662799
0.655305
0.655983
0.656004
0.655298
0.662754
0.672022
0.68322
0.696692
0.71289
0.731673
0.753818
0.776779
0.804649
0.827905
0.860813
0.882551
0.919629
0.944992
0.987783
1.01246
1.08936
1.72656
1.75205
1.12797
1.05163
1.02887
0.987058
0.961032
0.924452
0.899717
0.867661
0.840919
0.812745
0.787111
0.763815
0.743408
0.726555
0.712544
0.700781
0.691089
0.683082
0.68339
0.683412
0.68309
0.691087
0.700744
0.712447
0.726338
0.743104
0.763156
0.786725
0.811121
0.840935
0.864768
0.899671
0.92213
0.960048
0.986123
1.02777
1.04913
1.12104
1.72111
1.68702
1.1268
1.06379
1.04982
1.01079
0.985841
0.947974
0.924978
0.890351
0.865958
0.835891
0.810988
0.786108
0.763949
0.743811
0.727847
0.715809
0.706527
0.699372
0.700295
0.700312
0.69938
0.706532
0.715793
0.727791
0.743671
0.763736
0.785654
0.810611
0.834713
0.865466
0.888258
0.923815
0.945764
0.983489
1.00847
1.04691
1.05943
1.1199
1.66318
1.69183
1.16973
1.12172
1.12016
1.08615
1.06488
1.02895
1.00861
0.975849
0.954846
0.927005
0.905865
0.88359
0.864706
0.846651
0.831045
0.817228
0.806066
0.798642
0.799029
0.799041
0.798655
0.806084
0.817235
0.831028
0.846581
0.864578
0.883291
0.905574
0.926151
0.954335
0.9742
1.00739
1.02679
1.06237
1.08321
1.11675
1.11697
1.16445
1.68097
2.31304
1.68176
1.66251
1.7202
1.72622
1.73331
1.72856
1.73148
1.72282
1.72227
1.71226
1.70911
1.69941
1.69404
1.68532
1.67866
1.67105
1.66315
1.65571
1.65357
1.65357
1.65571
1.66315
1.67104
1.67866
1.6853
1.69402
1.69938
1.70908
1.71221
1.72223
1.72273
1.73144
1.72848
1.73332
1.72626
1.72071
1.6626
1.68132
2.31434
2.31304
1.68176
1.66251
1.7202
1.72622
1.73331
1.72856
1.73148
1.72282
1.72227
1.71226
1.70911
1.69941
1.69404
1.68532
1.67866
1.67105
1.66315
1.65571
1.65357
1.65357
1.65571
1.66315
1.67104
1.67866
1.6853
1.69402
1.69938
1.70908
1.71221
1.72223
1.72273
1.73144
1.72848
1.73332
1.72626
1.72071
1.6626
1.68132
2.31434
1.69183
1.16973
1.12172
1.12016
1.08615
1.06488
1.02895
1.00861
0.975849
0.954846
0.927005
0.905865
0.88359
0.864706
0.846651
0.831045
0.817228
0.806066
0.798642
0.799029
0.799041
0.798655
0.806084
0.817235
0.831028
0.846581
0.864578
0.883291
0.905574
0.926151
0.954335
0.9742
1.00739
1.02679
1.06237
1.08321
1.11675
1.11697
1.16445
1.68097
1.68702
1.1268
1.06379
1.04982
1.01079
0.985841
0.947974
0.924978
0.890351
0.865958
0.835891
0.810988
0.786108
0.763949
0.743811
0.727847
0.715809
0.706527
0.699372
0.700295
0.700312
0.69938
0.706532
0.715793
0.727791
0.743671
0.763736
0.785654
0.810611
0.834713
0.865466
0.888258
0.923815
0.945764
0.983489
1.00847
1.04691
1.05943
1.1199
1.66318
1.75205
1.12797
1.05163
1.02887
0.987058
0.961032
0.924452
0.899717
0.867661
0.840919
0.812745
0.787111
0.763815
0.743408
0.726555
0.712544
0.700781
0.691089
0.683082
0.68339
0.683412
0.68309
0.691087
0.700744
0.712447
0.726338
0.743104
0.763156
0.786725
0.811121
0.840935
0.864768
0.899671
0.92213
0.960048
0.986123
1.02777
1.04913
1.12104
1.72111
1.75917
1.10011
1.01858
0.99166
0.947772
0.921474
0.887347
0.860334
0.832732
0.804548
0.779196
0.754464
0.732683
0.713429
0.697104
0.683451
0.67214
0.662799
0.655305
0.655983
0.656004
0.655298
0.662754
0.672022
0.68322
0.696692
0.71289
0.731673
0.753818
0.776779
0.804649
0.827905
0.860813
0.882551
0.919629
0.944992
0.987783
1.01246
1.08936
1.72656
1.7658
1.07828
0.990592
0.962215
0.918919
0.892206
0.862427
0.833431
0.808496
0.779198
0.754386
0.729425
0.707395
0.687562
0.670311
0.655373
0.642531
0.631675
0.622694
0.622454
0.622462
0.622659
0.631575
0.642338
0.655059
0.669823
0.686988
0.706412
0.728974
0.752222
0.780217
0.80417
0.836656
0.858667
0.89456
0.919632
0.961731
0.987578
1.06861
1.73322
1.76057
1.04635
0.956843
0.927339
0.884587
0.85596
0.830238
0.799447
0.775882
0.746198
0.721174
0.69592
0.673687
0.653493
0.635885
0.620647
0.607645
0.596647
0.587492
0.586921
0.586904
0.587416
0.596467
0.607347
0.620201
0.635257
0.652758
0.6726
0.6953
0.718977
0.747188
0.77139
0.803544
0.82525
0.859481
0.88347
0.924816
0.950924
1.03382
1.72839
1.76095
1.02572
0.932091
0.90097
0.859372
0.829005
0.805008
0.774952
0.75063
0.721143
0.69504
0.668359
0.644735
0.622936
0.603927
0.587445
0.573449
0.561674
0.551884
0.550761
0.550707
0.55176
0.561412
0.573066
0.586922
0.603273
0.622217
0.643905
0.667946
0.693928
0.722789
0.748671
0.78154
0.80407
0.838044
0.862244
0.902736
0.929225
1.01453
1.73122
1.75048
0.995242
0.899889
0.866363
0.826114
0.793517
0.770876
0.740062
0.716807
0.686894
0.661188
0.63469
0.610808
0.588833
0.569422
0.552531
0.538039
0.525718
0.515387
0.513652
0.513549
0.515212
0.525379
0.537597
0.551995
0.568843
0.588304
0.610424
0.634783
0.661442
0.689476
0.717664
0.748781
0.772602
0.805783
0.829469
0.868338
0.894368
0.981764
1.72275
1.74734
0.975484
0.87687
0.839311
0.800438
0.765006
0.742077
0.712119
0.685624
0.658583
0.629029
0.603544
0.577725
0.555249
0.534824
0.517174
0.501891
0.488791
0.47777
0.475293
0.475136
0.477554
0.488405
0.501455
0.516738
0.534477
0.555175
0.577988
0.604838
0.630722
0.663483
0.689851
0.724494
0.749199
0.782626
0.807271
0.845719
0.872593
0.962526
1.72229
1.73455
0.947934
0.847571
0.804567
0.768196
0.731275
0.707725
0.677886
0.653371
0.623306
0.59778
0.56917
0.54463
0.520684
0.49981
0.481224
0.465078
0.451046
0.439229
0.4359
0.435692
0.438999
0.450669
0.464739
0.481018
0.499908
0.521246
0.546096
0.571658
0.602307
0.63051
0.662508
0.694747
0.720566
0.754529
0.779179
0.815672
0.84164
0.933906
1.71219
1.73096
0.928446
0.825053
0.775523
0.739395
0.701381
0.676388
0.646949
0.620446
0.59357
0.564306
0.538088
0.511117
0.487132
0.464949
0.445436
0.428167
0.413018
0.400257
0.395955
0.39571
0.400055
0.412728
0.428038
0.445627
0.465661
0.488711
0.513831
0.542914
0.571258
0.6051
0.634839
0.669311
0.697113
0.731158
0.756337
0.791899
0.818357
0.913833
1.70931
1.72021
0.90572
0.800031
0.745092
0.708702
0.670237
0.643674
0.61515
0.589236
0.561407
0.534389
0.506089
0.479637
0.45415
0.431109
0.410312
0.391771
0.375272
0.361391
0.355979
0.355719
0.361274
0.375164
0.391978
0.411047
0.432671
0.456891
0.484236
0.513101
0.545379
0.577043
0.61054
0.644431
0.673485
0.708036
0.733709
0.76787
0.793057
0.890916
1.69943
1.72106
0.887525
0.77744
0.716558
0.678725
0.640295
0.612197
0.584454
0.558824
0.532204
0.504525
0.47691
0.449224
0.423049
0.398666
0.376532
0.356465
0.338374
0.323141
0.316453
0.316211
0.323176
0.33855
0.357133
0.377967
0.401227
0.427257
0.45576
0.487005
0.519255
0.553729
0.587243
0.62201
0.653086
0.687815
0.714226
0.747292
0.771187
0.87218
1.69451
1.72066
0.870085
0.754843
0.687432
0.647453
0.60996
0.581198
0.554765
0.530026
0.504166
0.477325
0.449313
0.421284
0.393972
0.368327
0.344628
0.322819
0.302839
0.285962
0.277783
0.277598
0.286229
0.303412
0.324076
0.346896
0.372051
0.399768
0.430122
0.462506
0.49677
0.531649
0.566805
0.602047
0.634486
0.669638
0.697139
0.729165
0.750744
0.854146
1.68541
1.69909
0.852768
0.732814
0.656904
0.613947
0.578963
0.551128
0.526504
0.503152
0.478484
0.45223
0.424397
0.395781
0.367504
0.340446
0.315034
0.291208
0.268974
0.250045
0.240068
0.239985
0.250637
0.270069
0.293186
0.31827
0.345461
0.375068
0.407053
0.441112
0.4765
0.512742
0.54876
0.584581
0.618431
0.653957
0.682772
0.714215
0.732875
0.838527
1.67858
1.69272
0.834023
0.709067
0.622593
0.577581
0.54642
0.522015
0.500072
0.478614
0.455292
0.429757
0.401984
0.372885
0.343553
0.314991
0.287634
0.261427
0.236408
0.214783
0.202488
0.202564
0.215809
0.238155
0.264248
0.291943
0.321404
0.352991
0.386752
0.422301
0.459074
0.496318
0.533296
0.569694
0.604587
0.640417
0.670783
0.701953
0.718286
0.824724
1.67033
1.70874
0.811087
0.678637
0.58213
0.537419
0.51228
0.494584
0.475958
0.456899
0.43498
0.409987
0.382194
0.352486
0.321994
0.29173
0.262108
0.232997
0.204375
0.178943
0.163315
0.163623
0.180539
0.206908
0.236768
0.267573
0.299611
0.333379
0.368995
0.406142
0.444229
0.482571
0.520419
0.557394
0.593125
0.629132
0.661055
0.691824
0.707883
0.813508
1.66299
1.68726
0.767791
0.623366
0.525025
0.490717
0.479641
0.470922
0.456063
0.439091
0.418212
0.393256
0.365054
0.334463
0.302579
0.270358
0.23811
0.205487
0.172135
0.140973
0.119755
0.120405
0.143303
0.175532
0.210186
0.244612
0.279481
0.315545
0.353074
0.39182
0.431245
0.470675
0.509408
0.547019
0.58343
0.619624
0.652948
0.683458
0.700064
0.80456
1.6548
1.44834
0.560474
0.47141
0.430405
0.431801
0.447514
0.449773
0.441723
0.426142
0.405958
0.380972
0.352345
0.320924
0.287751
0.253689
0.218884
0.182617
0.143734
0.104234
0.072016
0.0733694
0.107679
0.148187
0.188363
0.226526
0.264149
0.302375
0.34167
0.381889
0.422551
0.463015
0.502611
0.540888
0.577938
0.614365
0.648998
0.679118
0.696629
0.800761
1.64959
)
;

boundaryField
{
    inlet
    {
        type            calculated;
        value           uniform 0;
    }
    outlet
    {
        type            calculated;
        value           nonuniform List<scalar> 
165
(
1.44834
1.68726
1.70874
1.69272
1.69909
1.72066
1.72106
1.72021
1.73096
1.73455
1.74734
1.75048
1.76095
1.76057
1.7658
1.75917
1.75205
1.68702
1.69183
2.31304
2.31304
1.68176
1.66251
1.7202
1.72622
1.73331
1.72856
1.73148
1.72282
1.72227
1.71226
1.70911
1.69941
1.69404
1.68532
1.67866
1.67105
1.66315
1.65571
1.65357
1.65357
1.65571
1.66315
1.67104
1.67866
1.6853
1.69402
1.69938
1.70908
1.71221
1.72223
1.72273
1.73144
1.72848
1.73332
1.72626
1.72071
1.6626
1.68132
2.31434
1.64959
1.6548
1.66299
1.67033
1.67858
1.68541
1.69451
1.69943
1.70931
1.71219
1.72229
1.72275
1.73122
1.72839
1.73322
1.72656
1.72111
1.66318
1.68097
2.31434
1.64708
1.64534
1.6445
1.64534
1.64708
2.31434
1.68097
1.66318
1.72111
1.72656
1.73322
1.72839
1.73122
1.72275
1.72229
1.71219
1.70931
1.69943
1.69451
1.68541
1.67858
1.67033
1.66299
1.6548
1.64959
2.31304
1.68176
1.66251
1.7202
1.72622
1.73331
1.72856
1.73148
1.72282
1.72227
1.71226
1.70911
1.69941
1.69404
1.68532
1.67866
1.67105
1.66315
1.65571
1.65357
1.65357
1.65571
1.66315
1.67104
1.67866
1.6853
1.69402
1.69938
1.70908
1.71221
1.72223
1.72273
1.73144
1.72848
1.73332
1.72626
1.72071
1.6626
1.68132
2.31434
2.31304
1.69183
1.68702
1.75205
1.75917
1.7658
1.76057
1.76095
1.75048
1.74734
1.73455
1.73096
1.72021
1.72106
1.72066
1.69909
1.69272
1.70874
1.68726
1.44834
)
;
    }
    obstacle
    {
        type            calculated;
        value           nonuniform List<scalar> 
40
(
0.364414
0.0629419
0.0664084
0.0709594
0.0750075
0.0792907
0.0838466
0.0884272
0.0921403
0.0833207
0.364414
0.0629419
0.0664084
0.0709594
0.0750075
0.0792907
0.0838466
0.0884272
0.0921403
0.0833207
0.0976505
0.128781
0.162293
0.21616
0.355808
0.0976505
0.128781
0.162293
0.21616
0.355808
0.419789
0.343784
0.303019
0.285666
0.360761
0.419789
0.343784
0.303019
0.285666
0.360761
)
;
    }
    empty
    {
        type            empty;
    }
}


// ************************************************************************* //
