/*--------------------------------*- C++ -*----------------------------------*\
| =========                 |                                                 |
| \\      /  F ield         | OpenFOAM: The Open Source CFD Toolbox           |
|  \\    /   O peration     | Version:  v1912                                 |
|   \\  /    A nd           | Website:  www.openfoam.com                      |
|    \\/     M anipulation  |                                                 |
\*---------------------------------------------------------------------------*/
FoamFile
{
    version     2.0;
    format      ascii;
    class       volVectorField;
    location    "8.82";
    object      grad(T);
}
// * * * * * * * * * * * * * * * * * * * * * * * * * * * * * * * * * * * * * //

dimensions      [0 -1 0 1 0 0 0];


internalField   nonuniform List<vector> 
1900
(
(0.528384 -2.55644e-06 0)
(0.00042053 3.37746e-06 0)
(-0.575302 -4.99644e-06 0)
(-0.465077 -2.0498e-05 0)
(-0.171099 -8.41206e-06 0)
(-0.0143401 -2.36164e-05 0)
(0.0363212 0.000115093 0)
(0.0627953 0.000557749 0)
(0.0644639 0.00204933 0)
(0.0709207 0.000434752 0)
(0.528385 -2.66634e-06 0)
(0.00041809 6.51175e-06 0)
(-0.575326 -1.10797e-05 0)
(-0.46508 -3.62364e-05 0)
(-0.171102 1.81863e-05 0)
(-0.0142166 6.43977e-05 0)
(0.0369025 0.000281285 0)
(0.0647295 0.000300752 0)
(0.064341 7.57115e-05 0)
(0.0394836 -0.00279937 0)
(0.528388 -2.71051e-13 0)
(0.000412117 -4.59702e-13 0)
(-0.575345 -4.46691e-13 0)
(-0.465047 -5.74627e-13 0)
(-0.170998 -4.97649e-13 0)
(-0.014077 -2.00577e-13 0)
(0.0365575 1.30104e-14 0)
(0.0625897 3.90313e-14 0)
(0.0613638 -1.95156e-14 0)
(0.0352654 -4.55365e-14 0)
(0.528385 2.66633e-06 0)
(0.00041809 -6.51175e-06 0)
(-0.575326 1.10797e-05 0)
(-0.46508 3.62364e-05 0)
(-0.171102 -1.81863e-05 0)
(-0.0142166 -6.43977e-05 0)
(0.0369025 -0.000281285 0)
(0.0647295 -0.000300752 0)
(0.064341 -7.57115e-05 0)
(0.0394836 0.00279937 0)
(0.528384 2.55644e-06 0)
(0.00042053 -3.37746e-06 0)
(-0.575302 4.99644e-06 0)
(-0.465077 2.0498e-05 0)
(-0.171099 8.41206e-06 0)
(-0.0143401 2.36164e-05 0)
(0.0363212 -0.000115093 0)
(0.0627953 -0.000557749 0)
(0.0644639 -0.00204933 0)
(0.0709207 -0.000434752 0)
(0.0248179 -0.0251783 9.41371e-16)
(-0.00493176 -0.0180425 -1.13056e-15)
(0.100679 -0.0308563 -1.43567e-15)
(0.387566 -0.0593278 0)
(-0.508564 -0.320436 -6.46982e-15)
(0.00899473 -0.0312375 9.36821e-16)
(0.00504322 -0.0223146 1.13056e-15)
(0.081421 -0.0383111 1.43567e-15)
(0.280326 -0.0634506 0)
(-0.443917 -0.353112 0)
(0.000265669 -8.05295e-14 0)
(0.00064453 -1.23637e-13 0)
(0.071893 -1.05409e-13 0)
(0.251309 -2.87478e-14 0)
(-0.573761 5.16287e-14 0)
(0.00899473 0.0312375 9.36821e-16)
(0.00504322 0.0223146 1.13056e-15)
(0.081421 0.0383111 1.43567e-15)
(0.280326 0.0634506 0)
(-0.443917 0.353112 0)
(0.0248179 0.0251783 -2.81501e-15)
(-0.00493176 0.0180425 -1.13056e-15)
(0.100679 0.0308563 -1.43567e-15)
(0.387566 0.0593278 -3.95662e-15)
(-0.508564 0.320436 6.46982e-15)
(-1.87309 0.447416 2.19135e-15)
(-0.964988 0.312299 -1.58523e-15)
(-0.590017 0.217134 0)
(-0.41605 0.194975 1.0166e-15)
(-0.298761 0.0819709 -4.26182e-16)
(-1.671 0.444703 -1.10241e-15)
(-1.00432 0.203977 7.97318e-16)
(-0.608032 0.11367 0)
(-0.456964 0.124415 -6.3998e-16)
(-0.286923 -0.0429499 1.06839e-16)
(-1.72326 9.30881e-14 0)
(-1.05997 1.251e-13 0)
(-0.619681 6.82646e-14 0)
(-0.491114 3.89746e-14 2.57491e-16)
(-0.270618 4.91378e-14 -2.13678e-16)
(-1.671 -0.444703 -1.10241e-15)
(-1.00432 -0.203977 7.97318e-16)
(-0.608032 -0.11367 0)
(-0.456964 -0.124415 -6.3998e-16)
(-0.286923 0.0429499 1.06839e-16)
(-1.87309 -0.447416 1.10241e-15)
(-0.964988 -0.312299 -9.40542e-18)
(-0.590017 -0.217134 0)
(-0.41605 -0.194975 5.872e-18)
(-0.298761 -0.0819709 4.26182e-16)
(-0.179058 0.845492 0)
(-0.101853 1.06485 0)
(-0.0721548 1.14245 0)
(-0.0506437 1.06787 0)
(-0.0560826 0.968464 0)
(-0.0622543 0.854868 0)
(-0.0643438 0.74726 0)
(-0.060338 0.647676 0)
(-0.0483721 0.565736 0)
(-0.0542189 0.507955 0)
(-0.0619509 0.446511 0)
(-0.0257104 0.385498 0)
(0.0570632 0.366634 0)
(0.262506 0.37652 0)
(0.342423 0.395953 0)
(0.193522 0.37007 0)
(0.0817756 0.29163 0)
(0.0443955 0.234736 0)
(0.0623887 0.177068 0)
(0.0739734 0.107148 0)
(0.0280408 0.0393184 0)
(-0.0499415 -0.00245 0)
(-0.127266 -0.0424013 0)
(-0.165479 -0.0624718 0)
(-0.139535 -0.0610947 0)
(-0.109298 -0.0490256 0)
(-0.0155252 -0.0258969 0)
(-0.0353523 0.00880623 0)
(-0.162625 0.0278145 0)
(-0.0687428 0.00283775 0)
(0.0501976 -0.00106169 0)
(0.06111 -0.000284557 0)
(0.0741687 1.74382e-06 0)
(0.0821399 -4.22842e-05 0)
(0.0646889 -0.0003752 0)
(0.0306791 -0.001094 0)
(0.00418985 -0.00169732 0)
(-0.0063562 -0.00225269 0)
(-0.00663297 -0.00188949 0)
(-0.00253395 -0.00141439 0)
(-0.0481147 0.237771 0)
(0.0140987 0.518605 0)
(-0.0470109 0.77105 0)
(-0.0808635 0.784971 0)
(-0.0964403 0.728066 0)
(-0.0997915 0.648003 0)
(-0.0959376 0.566167 0)
(-0.0870247 0.486899 0)
(-0.0693766 0.422331 0)
(-0.0727067 0.376489 0)
(-0.0833208 0.32907 0)
(-0.042298 0.267425 0)
(0.052303 0.241621 0)
(0.264178 0.24079 0)
(0.341239 0.25109 0)
(0.179501 0.232124 0)
(0.0628249 0.181002 0)
(0.0294847 0.143561 0)
(0.0458848 0.106591 0)
(0.0567004 0.062001 0)
(0.0165766 0.0132308 0)
(-0.055193 0.00205905 0)
(-0.130903 0.00277129 0)
(-0.168131 0.00130312 0)
(-0.140407 0.0068896 0)
(-0.108978 0.0128584 0)
(-0.0120223 0.0063056 0)
(-0.0307979 0.0116826 0)
(-0.163865 0.0115821 0)
(-0.0719671 0.000811631 0)
(0.0498319 -0.000798452 0)
(0.0612112 -0.000475639 0)
(0.0742035 -0.000334746 0)
(0.0821279 -0.000297756 0)
(0.0646324 -0.000344053 0)
(0.0305961 -0.000539479 0)
(0.00409322 -0.000913126 0)
(-0.00640008 -0.00139224 0)
(-0.0066331 -0.00141239 0)
(-0.00254235 -0.00156031 0)
(0.00128385 7.29372e-14 0)
(0.0532824 2.0107e-13 0)
(0.00533343 -1.97128e-14 0)
(-0.0631481 -9.85638e-15 0)
(-0.0959278 -2.99634e-13 0)
(-0.109352 -2.58237e-13 0)
(-0.11121 -2.81893e-13 0)
(-0.102181 -2.9372e-13 0)
(-0.0804915 -3.64686e-13 0)
(-0.0813494 -3.31174e-13 0)
(-0.0936787 -3.92284e-13 0)
(-0.0511502 -3.29203e-13 0)
(0.0493149 -3.0949e-13 0)
(0.265261 -3.56801e-13 0)
(0.339902 -1.83329e-13 0)
(0.173132 -1.57702e-14 0)
(0.0560117 7.88511e-14 0)
(0.0227487 -7.0966e-14 0)
(0.0386622 1.97128e-15 0)
(0.046814 -3.61138e-12 0)
(0.0106031 -4.33681e-14 0)
(-0.0529843 4.8316e-12 0)
(-0.127486 1.09406e-12 0)
(-0.164281 -4.9479e-13 0)
(-0.136174 1.01521e-12 0)
(-0.109468 1.93974e-12 0)
(-0.0158672 6.50521e-13 0)
(-0.0338173 1.19459e-12 0)
(-0.165788 -2.6218e-13 0)
(-0.0723444 -1.65193e-12 0)
(0.0498231 -8.89046e-13 0)
(0.0612449 -3.706e-13 0)
(0.0742204 -1.02506e-13 0)
(0.0821372 -1.41932e-13 0)
(0.0646186 -1.16305e-13 0)
(0.0305136 -1.95156e-13 0)
(0.00394177 -2.97663e-13 0)
(-0.00650144 -4.08054e-13 0)
(-0.00668186 -2.74007e-13 0)
(-0.00257698 -2.03041e-13 0)
(-0.0481147 -0.237771 0)
(0.0140987 -0.518605 0)
(-0.0470109 -0.77105 0)
(-0.0808635 -0.784971 0)
(-0.0964403 -0.728066 0)
(-0.0997915 -0.648003 0)
(-0.0959376 -0.566167 0)
(-0.0870247 -0.486899 0)
(-0.0693766 -0.422331 0)
(-0.0727067 -0.376489 0)
(-0.0833208 -0.32907 0)
(-0.042298 -0.267425 0)
(0.052303 -0.241621 0)
(0.264178 -0.24079 0)
(0.341239 -0.25109 0)
(0.179501 -0.232124 0)
(0.0628249 -0.181002 0)
(0.0294847 -0.143561 0)
(0.0458848 -0.106591 0)
(0.0567004 -0.062001 0)
(0.0165766 -0.0132308 0)
(-0.055193 -0.00205905 0)
(-0.130903 -0.00277129 0)
(-0.168131 -0.00130312 0)
(-0.140407 -0.0068896 0)
(-0.108978 -0.0128584 0)
(-0.0120223 -0.0063056 0)
(-0.0307979 -0.0116826 0)
(-0.163865 -0.0115821 0)
(-0.0719671 -0.000811631 0)
(0.0498319 0.000798452 0)
(0.0612112 0.000475639 0)
(0.0742035 0.000334746 0)
(0.0821279 0.000297756 0)
(0.0646324 0.000344053 0)
(0.0305961 0.000539479 0)
(0.00409322 0.000913126 0)
(-0.00640008 0.00139224 0)
(-0.0066331 0.00141239 0)
(-0.00254235 0.00156031 0)
(-0.179058 -0.845492 0)
(-0.101853 -1.06485 0)
(-0.0721548 -1.14245 0)
(-0.0506437 -1.06787 0)
(-0.0560826 -0.968464 0)
(-0.0622543 -0.854868 0)
(-0.0643438 -0.74726 0)
(-0.060338 -0.647676 0)
(-0.0483721 -0.565736 0)
(-0.0542189 -0.507955 0)
(-0.0619509 -0.446511 0)
(-0.0257104 -0.385498 0)
(0.0570632 -0.366634 0)
(0.262506 -0.37652 0)
(0.342423 -0.395953 0)
(0.193522 -0.37007 0)
(0.0817756 -0.29163 0)
(0.0443955 -0.234736 0)
(0.0623887 -0.177068 0)
(0.0739734 -0.107148 0)
(0.0280408 -0.0393184 0)
(-0.0499415 0.00245 0)
(-0.127266 0.0424013 0)
(-0.165479 0.0624718 0)
(-0.139535 0.0610947 0)
(-0.109298 0.0490256 0)
(-0.0155252 0.0258969 0)
(-0.0353523 -0.00880623 0)
(-0.162625 -0.0278145 0)
(-0.0687428 -0.00283775 0)
(0.0501976 0.00106169 0)
(0.06111 0.000284557 0)
(0.0741687 -1.74382e-06 0)
(0.0821399 4.22842e-05 0)
(0.0646889 0.0003752 0)
(0.0306791 0.001094 0)
(0.00418985 0.00169732 0)
(-0.0063562 0.00225269 0)
(-0.00663297 0.00188949 0)
(-0.00253395 0.00141439 0)
(-0.019128 -0.9388 0)
(-0.0381066 -0.864583 0)
(-0.0198325 -0.80453 0)
(-0.00666746 -0.763112 0)
(-0.00949543 -0.722404 0)
(-0.0044383 -0.667132 0)
(-0.00250168 -0.603673 0)
(-0.00401629 -0.537452 0)
(-0.00601988 -0.476562 0)
(-0.0192969 -0.428239 0)
(-0.0312158 -0.382906 0)
(-0.0113725 -0.344647 0)
(0.0524304 -0.336204 0)
(0.247721 -0.344247 0)
(0.343915 -0.373539 0)
(0.228728 -0.351565 0)
(0.125805 -0.289332 0)
(0.0841059 -0.236084 0)
(0.106835 -0.175296 0)
(0.123135 -0.0997077 0)
(0.0720686 -0.0453189 0)
(-0.0100044 -0.0317863 0)
(-0.0974574 -0.0132287 0)
(-0.159471 0.00239618 0)
(-0.14985 0.0123303 0)
(-0.130686 0.0117792 0)
(-0.0442483 0.000606808 0)
(-0.0592236 -0.0255609 0)
(-0.161556 -0.0366165 0)
(-0.0575821 -0.00332514 0)
(0.0513676 0.00118566 0)
(0.0606612 -3.43568e-05 0)
(0.0740918 -0.000504231 0)
(0.0823506 -0.000405502 0)
(0.0652269 0.000133666 0)
(0.0313294 0.00126721 0)
(0.00470832 0.00214948 0)
(-0.00633027 0.00285037 0)
(-0.00715909 0.00204626 0)
(-0.00285007 0.000743543 0)
(-0.00247789 -0.361131 0)
(-0.0066479 -0.338835 0)
(-0.00243016 -0.310542 0)
(0.00491428 -0.302981 0)
(0.0114254 -0.292915 0)
(0.0211557 -0.285368 0)
(0.0274588 -0.280756 0)
(0.0319495 -0.273113 0)
(0.0341595 -0.261594 0)
(0.0173057 -0.251011 0)
(0.00212009 -0.229915 0)
(0.0116049 -0.208673 0)
(0.0599328 -0.203387 0)
(0.234456 -0.196625 0)
(0.334571 -0.214088 0)
(0.255788 -0.216894 0)
(0.169448 -0.193636 0)
(0.132991 -0.16095 0)
(0.169972 -0.120062 0)
(0.172862 -0.0619824 0)
(0.0698832 -0.050414 0)
(-0.0404338 -0.0702944 0)
(-0.110311 -0.090918 0)
(-0.14407 -0.0854361 0)
(-0.124963 -0.0598795 0)
(-0.109126 -0.0417856 0)
(-0.0361052 -0.0346585 0)
(-0.0584215 -0.0544601 0)
(-0.141772 -0.0482111 0)
(-0.0383 -0.00415706 0)
(0.0527412 0.000658808 0)
(0.0597222 -0.00111443 0)
(0.0738523 -0.00163676 0)
(0.0826416 -0.00135881 0)
(0.0660123 -0.000558498 0)
(0.032273 0.000750905 0)
(0.00543742 0.00171047 0)
(-0.00646957 0.00244033 0)
(-0.00838107 0.00162626 0)
(-0.00361978 0.000269207 0)
(0.00235764 -0.0541534 0)
(0.0106434 -0.0523559 0)
(0.0147181 -0.0491817 0)
(0.0103188 -0.0498137 0)
(0.00747714 -0.0504667 0)
(0.00727788 -0.0557364 0)
(0.00930709 -0.0676977 0)
(0.0144489 -0.0789818 0)
(0.0152788 -0.0927127 0)
(0.0112307 -0.11113 0)
(0.00958259 -0.105828 0)
(0.0141909 -0.0887076 0)
(0.0640403 -0.0745288 0)
(0.237409 -0.046969 0)
(0.324383 -0.0812158 0)
(0.248437 -0.113179 0)
(0.179714 -0.118417 0)
(0.155004 -0.100714 0)
(0.202204 -0.0662461 0)
(0.19025 -0.0340282 0)
(0.0640589 -0.0524817 0)
(-0.0490356 -0.0612983 0)
(-0.112048 -0.0685499 0)
(-0.129561 -0.0581568 0)
(-0.107786 -0.0365268 0)
(-0.106383 -0.0285262 0)
(-0.056462 -0.0378399 0)
(-0.0722833 -0.0792606 0)
(-0.113082 -0.0625936 0)
(-0.0104893 -0.00575376 0)
(0.0542996 -0.000368137 0)
(0.0584491 -0.00276915 0)
(0.0738564 -0.00326216 0)
(0.0833896 -0.0027919 0)
(0.0672599 -0.00184208 0)
(0.0335158 -0.00014544 0)
(0.00633631 0.00104535 0)
(-0.00641142 0.00209948 0)
(-0.00925126 0.00170487 0)
(-0.00415777 0.000918322 0)
(-0.00074571 0.00525543 0)
(-0.00185694 0.00295294 0)
(1.95291e-05 -0.00623034 0)
(0.00367601 -0.0142459 0)
(0.00571817 -0.0171944 0)
(0.00455121 -0.020151 0)
(0.00505867 -0.0248479 0)
(0.00784412 -0.0291133 0)
(0.0031802 -0.0392025 0)
(0.00466718 -0.0459372 0)
(0.0237273 -0.0389113 0)
(0.0417661 -0.0241421 0)
(0.100154 0.00138184 0)
(0.228012 0.0493202 0)
(0.270769 -0.0211985 0)
(0.219939 -0.0561632 0)
(0.181459 -0.0610564 0)
(0.183265 -0.044478 0)
(0.234233 -0.007563 0)
(0.186126 -0.00402064 0)
(0.0436047 -0.0529571 0)
(-0.0559176 -0.067913 0)
(-0.107284 -0.0755376 0)
(-0.113212 -0.0606775 0)
(-0.0964095 -0.0424435 0)
(-0.110392 -0.0413871 0)
(-0.0849947 -0.0585245 0)
(-0.0822751 -0.107321 0)
(-0.0709379 -0.0633819 0)
(0.0216627 0.000824813 0)
(0.0556173 0.00601274 0)
(0.0569335 0.00328421 0)
(0.0738303 0.00137964 0)
(0.08401 -0.000754864 0)
(0.0685626 -0.00197828 0)
(0.0350554 -0.00122863 0)
(0.00760071 0.000129116 0)
(-0.00583404 0.00161376 0)
(-0.00951928 0.00183181 0)
(-0.00437773 0.00158493 0)
(0.000138882 0.0308732 0)
(-0.000424681 0.031584 0)
(-0.00185533 0.0317961 0)
(-0.000246559 0.0282361 0)
(0.00178677 0.0257246 0)
(-9.73166e-05 0.0212572 0)
(0.000670685 0.0192522 0)
(0.000616248 0.0150111 0)
(-0.000933252 0.0062739 0)
(0.0115113 0.0144629 0)
(0.0305851 0.0288044 0)
(0.0530188 0.0348662 0)
(0.134831 0.0616314 0)
(0.21565 0.0755256 0)
(0.222735 0.0170698 0)
(0.210028 0.00234971 0)
(0.190975 0.00235901 0)
(0.206552 0.0219075 0)
(0.24119 0.0578879 0)
(0.146507 0.00808708 0)
(0.0024899 -0.0523531 0)
(-0.070795 -0.0748181 0)
(-0.105076 -0.0796011 0)
(-0.0976706 -0.0599998 0)
(-0.0891974 -0.0439916 0)
(-0.121879 -0.047875 0)
(-0.119999 -0.0726291 0)
(-0.0769641 -0.113459 0)
(-0.00886818 -0.0358082 0)
(0.056382 0.0273937 0)
(0.0566696 0.0296382 0)
(0.0539844 0.0245382 0)
(0.0699642 0.0190956 0)
(0.0801538 0.0139514 0)
(0.0668033 0.00921722 0)
(0.0355466 0.00447658 0)
(0.00907534 0.00159794 0)
(-0.00477064 0.00130091 0)
(-0.00927904 0.00167025 0)
(-0.00439567 0.00174766 0)
(-6.07512e-05 0.0415284 0)
(-0.000967569 0.0414231 0)
(-0.00320667 0.041078 0)
(-0.00217476 0.0407416 0)
(-0.00100692 0.038164 0)
(-0.00168577 0.0338111 0)
(-0.000960301 0.0342803 0)
(-0.00466229 0.0325308 0)
(0.00265196 0.0313654 0)
(0.0263784 0.0384847 0)
(0.0433886 0.0459058 0)
(0.0733994 0.0607264 0)
(0.139335 0.0914764 0)
(0.185071 0.0738992 0)
(0.200254 0.0496283 0)
(0.205763 0.0463002 0)
(0.200306 0.0359378 0)
(0.236775 0.066701 0)
(0.220915 0.0787777 0)
(0.0798938 -0.0218221 0)
(-0.0362857 -0.0627562 0)
(-0.0821748 -0.081114 0)
(-0.0930044 -0.0678777 0)
(-0.0788972 -0.0367682 0)
(-0.0847255 -0.0191007 0)
(-0.137988 -0.0221399 0)
(-0.148194 -0.0394795 0)
(-0.0467931 -0.0185752 0)
(0.0647929 0.109628 0)
(0.0847292 0.153711 0)
(0.0528656 0.136114 0)
(0.0467742 0.112051 0)
(0.0636285 0.0860389 0)
(0.0744909 0.0608736 0)
(0.0594323 0.0394939 0)
(0.0277132 0.0231383 0)
(0.00454052 0.0146439 0)
(-0.00576436 0.00523611 0)
(-0.00908878 0.00215362 0)
(-0.00430313 0.00193617 0)
(3.74301e-05 0.04944 0)
(-0.00085865 0.0494131 0)
(-0.00251207 0.0497037 0)
(-0.00305461 0.0512387 0)
(-0.00489171 0.049286 0)
(-0.00383976 0.0474849 0)
(-0.000563043 0.0465862 0)
(-0.0021927 0.0471284 0)
(0.00480412 0.0533214 0)
(0.025523 0.0598818 0)
(0.052018 0.0672265 0)
(0.0969322 0.090884 0)
(0.147525 0.106779 0)
(0.175324 0.096985 0)
(0.19614 0.0983402 0)
(0.196835 0.0794287 0)
(0.210633 0.0817535 0)
(0.247835 0.124323 0)
(0.155886 0.03979 0)
(0.0101199 -0.0528209 0)
(-0.0546459 -0.0687114 0)
(-0.0757304 -0.053323 0)
(-0.0623429 -0.010642 0)
(-0.0506673 0.0443455 0)
(-0.0751009 0.087689 0)
(-0.141517 0.0951862 0)
(-0.116563 0.106446 0)
(0.0667212 0.213314 0)
(0.157153 0.310908 0)
(0.0819045 0.295747 0)
(0.0165249 0.257489 0)
(0.00573062 0.219777 0)
(0.0206474 0.184305 0)
(0.0353013 0.146273 0)
(0.0304402 0.107909 0)
(0.0116002 0.0729504 0)
(-0.00817588 0.0448157 0)
(-0.0168067 0.0215217 0)
(-0.012459 0.00747132 0)
(-0.00460521 0.003471 0)
(-8.6714e-05 0.0641884 0)
(-0.0007135 0.063984 0)
(-0.00144744 0.0643322 0)
(-0.00257723 0.0651303 0)
(-0.00462422 0.0647916 0)
(-0.00428743 0.0678795 0)
(-0.00130385 0.0697219 0)
(0.00182804 0.0727372 0)
(0.0149416 0.0832249 0)
(0.0397778 0.0978806 0)
(0.0732634 0.113955 0)
(0.111513 0.126648 0)
(0.145214 0.124352 0)
(0.176939 0.127112 0)
(0.183336 0.130788 0)
(0.18978 0.117637 0)
(0.243568 0.138199 0)
(0.196337 0.100413 0)
(0.0502129 -0.00814141 0)
(-0.0246622 -0.0293841 0)
(-0.0367696 0.0036141 0)
(-0.026217 0.0865667 0)
(0.00111256 0.173551 0)
(0.0158581 0.223257 0)
(-0.0357336 0.223415 0)
(-0.119913 0.183478 0)
(-0.0343619 0.166913 0)
(0.150234 0.25804 0)
(0.144228 0.272749 0)
(0.0332528 0.236978 0)
(-0.0203416 0.215325 0)
(-0.0237488 0.198758 0)
(-0.00720233 0.188141 0)
(0.000873375 0.174608 0)
(-0.0112245 0.157058 0)
(-0.0330859 0.13466 0)
(-0.045018 0.0952152 0)
(-0.0417508 0.0531974 0)
(-0.0264831 0.0223123 0)
(-0.00815798 0.00810923 0)
(-0.000159562 0.0959054 0)
(-0.000720097 0.0956229 0)
(-0.00140748 0.0951006 0)
(-0.00261195 0.0939294 0)
(-0.00224242 0.0922996 0)
(0.000911323 0.0919654 0)
(0.00411795 0.0933412 0)
(0.0108193 0.0969935 0)
(0.0290332 0.107871 0)
(0.0551359 0.120345 0)
(0.0797389 0.134727 0)
(0.106951 0.149403 0)
(0.147973 0.166141 0)
(0.181526 0.163429 0)
(0.18701 0.13724 0)
(0.203977 0.159299 0)
(0.194035 0.165341 0)
(0.106815 0.0712245 0)
(0.0308087 0.0692567 0)
(0.0214479 0.150059 0)
(0.0570885 0.226033 0)
(0.0880271 0.273421 0)
(0.0693765 0.287667 0)
(-0.00261672 0.250613 0)
(-0.113433 0.16082 0)
(-0.195964 0.0527991 0)
(-0.0447127 0.0302932 0)
(0.168709 0.0815215 0)
(0.136857 0.0877527 0)
(0.0265689 0.0845635 0)
(-0.020305 0.0907501 0)
(-0.0204655 0.097213 0)
(-0.00262415 0.104532 0)
(0.00534854 0.109508 0)
(-0.00805518 0.116268 0)
(-0.0479935 0.130217 0)
(-0.0866766 0.124992 0)
(-0.0870586 0.0891755 0)
(-0.0559076 0.048026 0)
(-0.0182918 0.0220458 0)
(-0.000358947 0.136081 0)
(-0.00148907 0.135257 0)
(-0.00307938 0.133433 0)
(-0.0052763 0.130792 0)
(-0.0065168 0.130237 0)
(-0.0032837 0.131626 0)
(0.00354146 0.135666 0)
(0.0158298 0.145745 0)
(0.0374442 0.157707 0)
(0.0656564 0.163215 0)
(0.101265 0.166622 0)
(0.141785 0.180988 0)
(0.158729 0.200367 0)
(0.14909 0.204462 0)
(0.179356 0.234846 0)
(0.216858 0.266417 0)
(0.158696 0.264749 0)
(0.103747 0.253951 0)
(0.126181 0.278139 0)
(0.126414 0.301456 0)
(0.0821063 0.29747 0)
(0.0331754 0.236197 0)
(-0.0208657 0.145063 0)
(-0.106376 0.0535164 0)
(-0.226355 -0.0495058 0)
(-0.245693 -0.124193 0)
(-0.00668399 -0.0548713 0)
(0.205604 -0.00439405 0)
(0.14716 0.00166718 0)
(0.0361412 0.00815261 0)
(-0.00815211 0.0222154 0)
(-0.0104686 0.0331622 0)
(0.00464572 0.0406772 0)
(0.0121833 0.0461478 0)
(0.00873094 0.0513388 0)
(-0.0246791 0.0674663 0)
(-0.0845667 0.0935311 0)
(-0.115918 0.0950398 0)
(-0.0911717 0.0718053 0)
(-0.0331934 0.043045 0)
(-0.000953531 0.191128 0)
(-0.00327234 0.190356 0)
(-0.00571074 0.191297 0)
(-0.00569108 0.195474 0)
(-0.00143877 0.206515 0)
(0.00614284 0.224123 0)
(0.0177244 0.246099 0)
(0.0320584 0.275054 0)
(0.0458676 0.303739 0)
(0.0637273 0.320887 0)
(0.0968659 0.331168 0)
(0.139468 0.357442 0)
(0.170593 0.413336 0)
(0.214752 0.450155 0)
(0.246712 0.479082 0)
(0.232793 0.430695 0)
(0.182022 0.355632 0)
(0.119718 0.328085 0)
(0.0765863 0.279988 0)
(0.0400758 0.189569 0)
(-0.0057977 0.106856 0)
(-0.0588379 0.0438304 0)
(-0.106661 -0.0265729 0)
(-0.19011 -0.112892 0)
(-0.28468 -0.184578 0)
(-0.201135 -0.137953 0)
(0.0707296 -0.0324934 0)
(0.223192 -0.0152548 0)
(0.148947 -0.0229321 0)
(0.0463699 -0.0148035 0)
(0.0037952 -0.00272474 0)
(-0.002675 0.00539815 0)
(0.00988926 0.00928091 0)
(0.0156224 0.0116951 0)
(0.012488 0.0112311 0)
(-0.00733547 0.014245 0)
(-0.0601057 0.0386106 0)
(-0.107994 0.0643973 0)
(-0.106012 0.0711322 0)
(-0.0460062 0.0625152 0)
(-0.00110244 0.268899 0)
(-0.00132645 0.276272 0)
(0.00185181 0.305088 0)
(0.00938866 0.351556 0)
(0.021091 0.403884 0)
(0.0348611 0.459516 0)
(0.0526201 0.51791 0)
(0.0713735 0.577714 0)
(0.0816101 0.631334 0)
(0.0920881 0.672247 0)
(0.136491 0.695263 0)
(0.220965 0.685591 0)
(0.248071 0.631407 0)
(0.212445 0.564172 0)
(0.160604 0.442197 0)
(0.0978965 0.322346 0)
(0.0598172 0.208911 0)
(0.0308539 0.134707 0)
(-0.00729802 0.0772532 0)
(-0.0404227 0.0236461 0)
(-0.0583327 -0.0307217 0)
(-0.0954012 -0.0723329 0)
(-0.171889 -0.121458 0)
(-0.258635 -0.191554 0)
(-0.250505 -0.177629 0)
(-0.0991389 -0.0468569 0)
(0.111553 0.00879116 0)
(0.214817 -0.0125843 0)
(0.147595 -0.0227336 0)
(0.0556137 -0.0128175 0)
(0.011315 -0.00254723 0)
(0.00110048 0.000371649 0)
(0.0107137 0.000292737 0)
(0.0140626 -0.00220938 0)
(0.0111881 -0.00626725 0)
(0.00170473 -0.00751674 0)
(-0.0362382 0.00496944 0)
(-0.0845793 0.0322397 0)
(-0.0929854 0.0526404 0)
(-0.0414971 0.063833 0)
(0.00615186 0.358331 0)
(0.031601 0.38593 0)
(0.066835 0.455877 0)
(0.0895127 0.535452 0)
(0.102596 0.591394 0)
(0.116022 0.625389 0)
(0.131624 0.647507 0)
(0.141358 0.656861 0)
(0.136963 0.654209 0)
(0.125332 0.646608 0)
(0.109725 0.61555 0)
(0.0779333 0.525911 0)
(0.0535894 0.371908 0)
(0.0324226 0.246805 0)
(0.0136795 0.140791 0)
(0.00798921 0.0807342 0)
(0.00120611 0.040948 0)
(-0.00715138 0.0042927 0)
(-0.0304355 -0.0279696 0)
(-0.0639727 -0.0491466 0)
(-0.0982866 -0.0758579 0)
(-0.146275 -0.124259 0)
(-0.221546 -0.178451 0)
(-0.244239 -0.174714 0)
(-0.145245 -0.0632802 0)
(-0.0214929 0.0359679 0)
(0.103756 0.044647 0)
(0.192813 0.00116943 0)
(0.148723 -0.0109055 0)
(0.0658222 -0.00135989 0)
(0.0165048 0.0069204 0)
(6.16974e-05 0.00779299 0)
(0.00740209 0.00447997 0)
(0.009301 -0.00140357 0)
(0.00737364 -0.00713888 0)
(0.00349261 -0.0117759 0)
(-0.021795 -0.00735921 0)
(-0.0620569 0.0138889 0)
(-0.0755672 0.0380619 0)
(-0.0352206 0.0545978 0)
(0.0254934 0.365524 0)
(0.0926729 0.381699 0)
(0.145937 0.408905 0)
(0.139977 0.399827 0)
(0.107757 0.366974 0)
(0.0889342 0.323561 0)
(0.0829482 0.282996 0)
(0.0778316 0.24376 0)
(0.0717303 0.20638 0)
(0.0548345 0.172773 0)
(0.0201829 0.133202 0)
(-0.0138166 0.0905307 0)
(-0.0208865 0.066449 0)
(-0.0102679 0.0388073 0)
(0.000572539 0.0257992 0)
(0.00168434 0.011733 0)
(-0.0138446 -0.00456742 0)
(-0.0355577 -0.0305506 0)
(-0.0587941 -0.0580252 0)
(-0.0865696 -0.0815415 0)
(-0.130714 -0.114064 0)
(-0.194263 -0.161143 0)
(-0.220509 -0.166201 0)
(-0.147653 -0.068568 0)
(-0.0474839 0.0351931 0)
(0.00486366 0.0694407 0)
(0.0780197 0.0644204 0)
(0.161285 0.0134004 0)
(0.145157 -0.0048526 0)
(0.0727914 0.00542612 0)
(0.020135 0.0111624 0)
(-0.0012512 0.0123899 0)
(0.0018516 0.00686875 0)
(0.00286628 -0.00149699 0)
(0.00119293 -0.00804781 0)
(0.00149241 -0.0155931 0)
(-0.0115066 -0.0165695 0)
(-0.0408098 -0.000274815 0)
(-0.0537568 0.0222193 0)
(-0.0255624 0.0395278 0)
(0.021739 0.162961 0)
(0.0734051 0.153662 0)
(0.0843043 0.120233 0)
(0.0491066 0.0603304 0)
(0.0291026 0.0171455 0)
(0.0350972 -0.00735421 0)
(0.0547255 -0.0221777 0)
(0.0675282 -0.0315298 0)
(0.0685571 -0.0366034 0)
(0.0548143 -0.0381881 0)
(0.0304728 -0.0261125 0)
(0.0136081 -0.00316817 0)
(0.00374692 0.0240931 0)
(-0.00674898 0.0286114 0)
(-0.0124103 0.0172056 0)
(-0.0212731 -0.00623533 0)
(-0.0395399 -0.0283275 0)
(-0.0586653 -0.0494323 0)
(-0.0795722 -0.0759483 0)
(-0.117973 -0.11568 0)
(-0.174993 -0.160501 0)
(-0.196516 -0.162035 0)
(-0.132338 -0.0763423 0)
(-0.0501687 0.0210325 0)
(-0.012255 0.0596902 0)
(0.0066715 0.0633512 0)
(0.0497536 0.0568866 0)
(0.126059 0.0104566 0)
(0.141038 -0.0174343 0)
(0.0812549 -0.0019852 0)
(0.0232153 0.0103539 0)
(-0.00407587 0.013261 0)
(-0.00597985 0.00811608 0)
(-0.00507314 -9.78354e-05 0)
(-0.00620984 -0.00816123 0)
(-0.00471922 -0.0193891 0)
(-0.00703375 -0.0289554 0)
(-0.0246786 -0.0187336 0)
(-0.0372119 0.000500585 0)
(-0.0185415 0.0138314 0)
(0.0165324 -0.0196682 0)
(0.0514988 -0.0434587 0)
(0.0559994 -0.0769007 0)
(0.0406386 -0.0904962 0)
(0.0425337 -0.0794937 0)
(0.0510409 -0.0608707 0)
(0.0596517 -0.0496887 0)
(0.0639305 -0.0479437 0)
(0.0653141 -0.0470448 0)
(0.0649438 -0.0383333 0)
(0.0539294 -0.016164 0)
(0.0345634 0.00432566 0)
(0.00973749 0.0106976 0)
(-0.016905 0.0047153 0)
(-0.033007 -0.00882745 0)
(-0.042193 -0.0313008 0)
(-0.0554708 -0.0550332 0)
(-0.0814469 -0.0845841 0)
(-0.122633 -0.128848 0)
(-0.168048 -0.174248 0)
(-0.175383 -0.168648 0)
(-0.113165 -0.0904819 0)
(-0.0440991 -0.00585901 0)
(-0.0165671 0.0291313 0)
(-0.00670402 0.0370428 0)
(0.002162 0.0342967 0)
(0.0270485 0.0273897 0)
(0.0896668 -0.00351531 0)
(0.133168 -0.04553 0)
(0.0995691 -0.0395692 0)
(0.0348268 -0.016613 0)
(-0.00340761 -0.000685107 0)
(-0.0110214 0.00181033 0)
(-0.0128191 0.00169816 0)
(-0.0173969 -0.00359426 0)
(-0.0185456 -0.0168081 0)
(-0.0108749 -0.0330695 0)
(-0.012425 -0.0340379 0)
(-0.0223761 -0.016208 0)
(-0.0127164 -0.0043159 0)
(-0.00118648 -0.046875 0)
(0.0182538 -0.0729266 0)
(0.0389773 -0.100381 0)
(0.0466079 -0.106854 0)
(0.0576508 -0.0980696 0)
(0.0638183 -0.0904526 0)
(0.0671825 -0.0867555 0)
(0.070076 -0.0842804 0)
(0.0778181 -0.0766676 0)
(0.0845722 -0.0604264 0)
(0.0715805 -0.0445859 0)
(0.0394928 -0.0348066 0)
(0.0041224 -0.0347088 0)
(-0.025564 -0.0404019 0)
(-0.0471167 -0.0583734 0)
(-0.0657987 -0.0881716 0)
(-0.0908856 -0.127729 0)
(-0.129796 -0.170988 0)
(-0.165975 -0.198166 0)
(-0.156326 -0.174301 0)
(-0.0942736 -0.101026 0)
(-0.0396469 -0.0290696 0)
(-0.0170743 -0.000193968 0)
(-0.008827 0.0084467 0)
(-0.00727738 0.00925985 0)
(-0.00263058 0.00675056 0)
(0.0133166 -0.000507231 0)
(0.0557913 -0.0173028 0)
(0.106295 -0.0661193 0)
(0.10912 -0.0901934 0)
(0.0606855 -0.0753619 0)
(0.0136775 -0.0468938 0)
(-0.00368325 -0.0283404 0)
(-0.0102812 -0.0158855 0)
(-0.0240432 -0.0104021 0)
(-0.0331226 -0.0115142 0)
(-0.023637 -0.021618 0)
(-0.00843021 -0.0348927 0)
(-0.00857071 -0.0230381 0)
(-0.00708188 -0.0194298 0)
(-0.0085719 -0.069666 0)
(-6.19541e-05 -0.0641052 0)
(0.0233055 -0.079559 0)
(0.0428664 -0.092436 0)
(0.0583389 -0.100582 0)
(0.0619436 -0.10883 0)
(0.0655995 -0.116232 0)
(0.0736516 -0.1194 0)
(0.0883006 -0.115865 0)
(0.0958589 -0.109046 0)
(0.0786176 -0.104412 0)
(0.0440813 -0.104153 0)
(0.00434564 -0.110841 0)
(-0.039709 -0.129433 0)
(-0.0790396 -0.161132 0)
(-0.109027 -0.191757 0)
(-0.135276 -0.216238 0)
(-0.149322 -0.217289 0)
(-0.125825 -0.17281 0)
(-0.0744408 -0.0987202 0)
(-0.035433 -0.0392649 0)
(-0.0159989 -0.0162691 0)
(-0.007947 -0.00796895 0)
(-0.00745702 -0.00754327 0)
(-0.00833849 -0.00810218 0)
(-0.00724991 -0.0089722 0)
(0.00386983 -0.0128264 0)
(0.0264405 -0.0253177 0)
(0.062928 -0.0625355 0)
(0.0906626 -0.105015 0)
(0.0765518 -0.116 0)
(0.041904 -0.0958577 0)
(0.0188593 -0.0695973 0)
(0.00446692 -0.0490986 0)
(-0.0131845 -0.0335792 0)
(-0.0293537 -0.0184076 0)
(-0.0334033 -0.0100768 0)
(-0.0137935 -0.0150975 0)
(-0.00747546 -0.00290169 0)
(-0.00923932 -0.00828999 0)
(0.00417205 -0.16956 0)
(0.00872051 -0.0730296 0)
(0.0116768 -0.0512577 0)
(0.0263498 -0.0577905 0)
(0.0418525 -0.0843744 0)
(0.0487374 -0.108448 0)
(0.0569971 -0.125106 0)
(0.0704292 -0.131352 0)
(0.0877958 -0.129097 0)
(0.0956091 -0.130029 0)
(0.0762953 -0.138267 0)
(0.033297 -0.152816 0)
(-0.0202382 -0.184625 0)
(-0.0740263 -0.223364 0)
(-0.107174 -0.244863 0)
(-0.1189 -0.241522 0)
(-0.115489 -0.210438 0)
(-0.0879467 -0.152898 0)
(-0.0517185 -0.0867255 0)
(-0.0276372 -0.0413022 0)
(-0.0148207 -0.0202928 0)
(-0.00948902 -0.0124819 0)
(-0.00866581 -0.0129376 0)
(-0.00895538 -0.0146668 0)
(-0.00865435 -0.015069 0)
(-0.00718301 -0.014148 0)
(-0.00243454 -0.0135586 0)
(0.00788982 -0.0212492 0)
(0.0294962 -0.0398656 0)
(0.0575997 -0.0747635 0)
(0.0695098 -0.103234 0)
(0.0583932 -0.100314 0)
(0.0413756 -0.0822289 0)
(0.0244272 -0.0602785 0)
(0.00553179 -0.0433803 0)
(-0.0104749 -0.0268794 0)
(-0.0204473 -0.0121688 0)
(-0.00151603 -0.0101697 0)
(-0.00201072 -0.00469667 0)
(-0.0122742 -0.00786583 0)
(0.0844479 -0.126942 0)
(0.113938 -0.0436366 0)
(0.0379904 -0.0177537 0)
(0.0109538 -0.01633 0)
(0.00952328 -0.0337306 0)
(0.0226936 -0.0498792 0)
(0.0435283 -0.0607572 0)
(0.0698054 -0.0638562 0)
(0.0895762 -0.0614045 0)
(0.0870222 -0.0620086 0)
(0.056659 -0.0703154 0)
(-0.000591353 -0.0823859 0)
(-0.0636374 -0.105483 0)
(-0.097756 -0.127423 0)
(-0.0965374 -0.130108 0)
(-0.0758531 -0.116385 0)
(-0.0498741 -0.085436 0)
(-0.030109 -0.0482939 0)
(-0.0182872 -0.0254157 0)
(-0.0104238 -0.013601 0)
(-0.00766069 -0.00755276 0)
(-0.00891118 -0.0061708 0)
(-0.0100525 -0.00695312 0)
(-0.00951089 -0.00760985 0)
(-0.00783853 -0.00752959 0)
(-0.00579447 -0.00676324 0)
(-0.00297312 -0.00608865 0)
(0.00109012 -0.00732215 0)
(0.0113596 -0.0131449 0)
(0.0295983 -0.0261431 0)
(0.0519307 -0.042203 0)
(0.0621455 -0.0443856 0)
(0.0574387 -0.0383091 0)
(0.0419029 -0.0277163 0)
(0.0190001 -0.0201739 0)
(0.000722854 -0.0137397 0)
(-0.0173012 -0.00855364 0)
(-0.0065931 -0.0104749 0)
(-0.00525535 -0.0138223 0)
(-0.0122932 -0.013842 0)
(0.0844479 0.126942 0)
(0.113938 0.0436366 0)
(0.0379904 0.0177537 0)
(0.0109538 0.01633 0)
(0.00952328 0.0337306 0)
(0.0226936 0.0498792 0)
(0.0435283 0.0607572 0)
(0.0698054 0.0638562 0)
(0.0895762 0.0614045 0)
(0.0870222 0.0620086 0)
(0.056659 0.0703154 0)
(-0.000591353 0.0823859 0)
(-0.0636374 0.105483 0)
(-0.097756 0.127423 0)
(-0.0965374 0.130108 0)
(-0.0758531 0.116385 0)
(-0.0498741 0.085436 0)
(-0.030109 0.0482939 0)
(-0.0182872 0.0254157 0)
(-0.0104238 0.013601 0)
(-0.00766069 0.00755276 0)
(-0.00891118 0.0061708 0)
(-0.0100525 0.00695312 0)
(-0.00951089 0.00760985 0)
(-0.00783853 0.00752959 0)
(-0.00579447 0.00676324 0)
(-0.00297312 0.00608865 0)
(0.00109012 0.00732215 0)
(0.0113596 0.0131449 0)
(0.0295983 0.0261431 0)
(0.0519307 0.042203 0)
(0.0621455 0.0443856 0)
(0.0574387 0.0383091 0)
(0.0419029 0.0277163 0)
(0.0190001 0.0201739 0)
(0.000722854 0.0137397 0)
(-0.0173012 0.00855364 0)
(-0.0065931 0.0104749 0)
(-0.00525535 0.0138223 0)
(-0.0122932 0.013842 0)
(0.00417205 0.16956 0)
(0.00872051 0.0730296 0)
(0.0116768 0.0512577 0)
(0.0263498 0.0577905 0)
(0.0418525 0.0843744 0)
(0.0487374 0.108448 0)
(0.0569971 0.125106 0)
(0.0704292 0.131352 0)
(0.0877958 0.129097 0)
(0.0956091 0.130029 0)
(0.0762953 0.138267 0)
(0.033297 0.152816 0)
(-0.0202382 0.184625 0)
(-0.0740263 0.223364 0)
(-0.107174 0.244863 0)
(-0.1189 0.241522 0)
(-0.115489 0.210438 0)
(-0.0879467 0.152898 0)
(-0.0517185 0.0867255 0)
(-0.0276372 0.0413022 0)
(-0.0148207 0.0202928 0)