/*--------------------------------*- C++ -*----------------------------------*\
| =========                 |                                                 |
| \\      /  F ield         | OpenFOAM: The Open Source CFD Toolbox           |
|  \\    /   O peration     | Version:  v1912                                 |
|   \\  /    A nd           | Website:  www.openfoam.com                      |
|    \\/     M anipulation  |                                                 |
\*---------------------------------------------------------------------------*/
FoamFile
{
    version     2.0;
    format      ascii;
    class       volScalarField;
    location    "8.82";
    object      Ma;
}
// * * * * * * * * * * * * * * * * * * * * * * * * * * * * * * * * * * * * * //

dimensions      [0 0 0 0 0 0 0];


internalField   nonuniform List<scalar> 
1900
(
0.231341
0.118343
0.135359
0.130249
0.119753
0.115761
0.11275
0.110244
0.107717
0.0941539
0.231343
0.11834
0.135355
0.130246
0.119741
0.115704
0.11259
0.109886
0.107587
0.107548
0.231344
0.118338
0.135354
0.130242
0.119717
0.115641
0.112445
0.110076
0.109221
0.114537
0.231343
0.11834
0.135355
0.130246
0.119741
0.115704
0.11259
0.109886
0.107587
0.107548
0.231341
0.118343
0.135359
0.130249
0.119753
0.115761
0.11275
0.110244
0.107717
0.0941539
0.103234
0.143107
0.195913
0.282013
0.430911
0.122917
0.147175
0.179177
0.245791
0.391554
0.130155
0.152964
0.184807
0.24863
0.388321
0.122917
0.147175
0.179177
0.245791
0.391554
0.103234
0.143107
0.195913
0.282013
0.430911
0.947378
1.34076
1.6117
1.78914
1.9772
0.906591
1.34007
1.63265
1.80918
2.00162
0.902194
1.34893
1.63299
1.80366
1.99915
0.906591
1.34007
1.63265
1.80918
2.00162
0.947378
1.34076
1.6117
1.78914
1.9772
2.05744
2.1244
2.1543
2.20033
2.22665
2.26905
2.31841
2.37271
2.42014
2.45892
2.52764
2.60543
2.57984
2.45261
2.02924
1.74005
1.69142
1.67817
1.66984
1.63051
1.56065
1.47573
1.40489
1.34782
1.28976
1.22441
1.14245
0.681977
0.0642187
0.427609
0.484177
0.507751
0.530973
0.545097
0.552747
0.560562
0.572962
0.585989
0.593927
0.59939
2.03941
2.00038
1.98593
2.04334
2.08725
2.14307
2.20475
2.27272
2.33101
2.37954
2.45998
2.54607
2.53138
2.40033
1.97157
1.70771
1.6672
1.66403
1.66338
1.63592
1.57962
1.50176
1.41158
1.3411
1.28232
1.22234
1.14707
0.688353
0.0568535
0.426332
0.483242
0.506421
0.529361
0.543499
0.551642
0.560623
0.574478
0.588384
0.596507
0.601848
2.0352
1.99886
1.94116
1.99592
2.03524
2.09516
2.16337
2.2369
2.29855
2.35083
2.43503
2.52414
2.51315
2.38076
1.95067
1.69661
1.65948
1.65975
1.66257
1.63694
1.58026
1.49858
1.41301
1.34797
1.28938
1.22858
1.15636
0.690369
0.0573476
0.426346
0.483084
0.506048
0.528783
0.542743
0.550679
0.559409
0.573121
0.587124
0.595536
0.601266
2.03941
2.00038
1.98593
2.04334
2.08725
2.14307
2.20475
2.27272
2.33101
2.37954
2.45998
2.54607
2.53138
2.40033
1.97157
1.70771
1.6672
1.66403
1.66338
1.63592
1.57962
1.50176
1.41158
1.3411
1.28232
1.22234
1.14707
0.688353
0.0568535
0.426332
0.483242
0.506421
0.529361
0.543499
0.551642
0.560623
0.574478
0.588384
0.596507
0.601848
2.05744
2.1244
2.1543
2.20033
2.22665
2.26905
2.31841
2.37271
2.42014
2.45892
2.52764
2.60543
2.57984
2.45261
2.02924
1.74005
1.69142
1.67817
1.66984
1.63051
1.56065
1.47573
1.40489
1.34782
1.28976
1.22441
1.14245
0.681977
0.0642187
0.427609
0.484177
0.507751
0.530973
0.545097
0.552747
0.560562
0.572962
0.585989
0.593927
0.59939
2.48843
2.51643
2.54437
2.56089
2.56518
2.58067
2.59291
2.60727
2.61947
2.63347
2.67312
2.73078
2.6992
2.58272
2.15757
1.82264
1.75311
1.7149
1.68732
1.63597
1.5589
1.47541
1.4061
1.35286
1.29657
1.23268
1.15356
0.675397
0.0865134
0.430204
0.483899
0.507653
0.530967
0.545062
0.552434
0.559236
0.569737
0.581037
0.588291
0.593807
2.96185
2.96541
2.97652
2.97914
2.98018
2.96841
2.94615
2.92765
2.89937
2.87424
2.88308
2.90944
2.85911
2.73793
2.29154
1.9344
1.82846
1.76157
1.71049
1.63837
1.54968
1.47126
1.40544
1.34888
1.28853
1.22167
1.13357
0.644601
0.122029
0.434653
0.484099
0.508216
0.531266
0.544926
0.551966
0.558247
0.567711
0.578092
0.585329
0.591681
3.08709
3.0796
3.05716
3.04415
3.04043
3.03624
3.02691
3.01451
2.99179
2.97351
2.97069
2.9692
2.92068
2.77814
2.29353
1.96536
1.84938
1.77603
1.71896
1.63114
1.53389
1.44742
1.37787
1.32162
1.26253
1.19837
1.10599
0.600992
0.167606
0.439698
0.483412
0.508424
0.531456
0.545046
0.552305
0.558734
0.567794
0.57747
0.584338
0.590721
3.07365
3.07389
3.07143
3.06173
3.05037
3.04128
3.03611
3.0271
3.01907
3.01907
3.01726
2.95046
2.86672
2.66904
2.23245
1.98496
1.86586
1.77863
1.68338
1.57031
1.47376
1.39699
1.34128
1.29229
1.23663
1.17453
1.07095
0.542964
0.217967
0.447659
0.486012
0.512568
0.535875
0.549741
0.557611
0.564118
0.572501
0.58112
0.587105
0.592709
2.98109
2.98318
2.99105
2.99743
2.99704
2.99857
2.99953
2.99174
2.99385
3.01371
2.9577
2.86895
2.78569
2.53476
2.1753
2.00554
1.86927
1.75176
1.62474
1.50287
1.41443
1.35223
1.3084
1.26449
1.21191
1.14963
1.02548
0.475577
0.262068
0.450805
0.484887
0.511678
0.534352
0.548157
0.556634
0.563515
0.57177
0.579639
0.584978
0.589824
2.88
2.87965
2.88433
2.89073
2.89362
2.90012
2.90667
2.91014
2.92866
2.95044
2.87448
2.77678
2.6521
2.40417
2.13124
1.97426
1.82971
1.68841
1.5433
1.43468
1.36498
1.31998
1.28326
1.23853
1.18233
1.11434
0.953377
0.378357
0.30181
0.445877
0.47803
0.505289
0.528587
0.544116
0.554281
0.564438
0.576396
0.585282
0.590478
0.594519
2.77149
2.77148
2.77432
2.7788
2.78372
2.79291
2.79833
2.80248
2.82429
2.83444
2.73248
2.64124
2.48126
2.24242
2.05069
1.89435
1.73602
1.57816
1.45706
1.3798
1.32822
1.28908
1.24356
1.18652
1.11565
1.02425
0.793329
0.202305
0.318942
0.417612
0.439528
0.46086
0.483687
0.507962
0.52899
0.548789
0.56701
0.582004
0.590872
0.594929
2.65475
2.65531
2.65711
2.65889
2.66297
2.66858
2.67093
2.66959
2.68428
2.65501
2.56603
2.44995
2.27908
2.08749
1.92083
1.75467
1.60204
1.47051
1.38216
1.32658
1.27924
1.22169
1.13952
1.0335
0.925437
0.808867
0.499629
0.236647
0.418119
0.442282
0.435068
0.427436
0.42836
0.440386
0.46187
0.496242
0.53398
0.568655
0.588823
0.598524
2.50722
2.50808
2.50955
2.51131
2.51489
2.51697
2.51672
2.51501
2.5082
2.44932
2.36271
2.23625
2.06421
1.8948
1.74186
1.58108
1.44209
1.36137
1.30037
1.22989
1.12463
0.997125
0.886705
0.79901
0.728602
0.631935
0.43094
0.3801
0.457603
0.455563
0.434317
0.408828
0.393852
0.389043
0.393326
0.420626
0.463487
0.522177
0.568217
0.596857
2.31583
2.31744
2.32053
2.32519
2.33233
2.33799
2.33803
2.32472
2.28249
2.21042
2.11219
1.99164
1.85003
1.69349
1.50196
1.37894
1.30332
1.19271
1.06249
0.931773
0.82433
0.753899
0.697006
0.656674
0.619253
0.529588
0.442677
0.415598
0.444465
0.438648
0.415006
0.386063
0.357688
0.34986
0.340081
0.356107
0.386915
0.45045
0.519943
0.580594
2.07946
2.08155
2.08775
2.09982
2.11161
2.11804
2.11272
2.08505
2.03263
1.96271
1.85752
1.7059
1.54687
1.39621
1.24123
1.07938
0.937402
0.828814
0.743145
0.693259
0.64478
0.617675
0.607222
0.568961
0.508695
0.466872
0.465776
0.42161
0.41507
0.405804
0.378736
0.348305
0.312559
0.298896
0.284575
0.294276
0.322422
0.379674
0.454097
0.530201
1.78956
1.79578
1.80348
1.81354
1.81098
1.79217
1.7535
1.69488
1.62094
1.52946
1.40695
1.24838
1.04022
0.86692
0.755085
0.691951
0.636006
0.615055
0.584469
0.570236
0.560993
0.533909
0.501021
0.463077
0.45557
0.483066
0.490553
0.426028
0.39409
0.3742
0.346028
0.316049
0.275586
0.252433
0.230086
0.236139
0.269624
0.328144
0.389514
0.45168
1.42006
1.42182
1.37568
1.31089
1.25104
1.18365
1.10566
1.01117
0.904811
0.796894
0.699995
0.623936
0.559428
0.530873
0.521119
0.525142
0.513284
0.507123
0.496844
0.480412
0.460999
0.433198
0.410109
0.425773
0.477032
0.509475
0.506664
0.441944
0.390865
0.359707
0.315618
0.279762
0.231818
0.198668
0.167817
0.175184
0.209346
0.272494
0.323118
0.370716
0.991434
0.938113
0.849137
0.756577
0.678941
0.609127
0.54226
0.478364
0.425572
0.402067
0.402466
0.409082
0.415251
0.426257
0.430868
0.433962
0.425522
0.415714
0.402467
0.380589
0.365548
0.363288
0.390005
0.45804
0.499556
0.518679
0.517839
0.464405
0.397007
0.352495
0.307906
0.262413
0.205142
0.156483
0.106822
0.109028
0.156152
0.235554
0.285449
0.317351
0.650903
0.599483
0.528342
0.461598
0.408127
0.372473
0.35431
0.34455
0.339539
0.339404
0.339618
0.340677
0.35182
0.358527
0.355953
0.344301
0.333372
0.317461
0.305955
0.301884
0.31038
0.357048
0.434645
0.484766
0.508429
0.524592
0.526496
0.490198
0.415916
0.353949
0.296808
0.243885
0.181514
0.116799
0.0492242
0.0504383
0.126544
0.206652
0.254909
0.276189
0.621553
0.584676
0.535783
0.488501
0.45159
0.419601
0.39323
0.367018
0.338363
0.316519
0.307901
0.303687
0.300765
0.291191
0.276171
0.256666
0.239724
0.230275
0.23558
0.26489
0.336106
0.418123
0.465985
0.496174
0.513649
0.530775
0.534739
0.51594
0.45176
0.379898
0.314885
0.25632
0.195088
0.129338
0.0722851
0.0577744
0.141615
0.227519
0.285237
0.299005
0.689401
0.641083
0.594289
0.554978
0.51317
0.472796
0.430183
0.384804
0.339258
0.302436
0.280172
0.265453
0.248331
0.224006
0.19207
0.164659
0.159339
0.183619
0.244327
0.334162
0.412563
0.457038
0.487012
0.507729
0.521797
0.539651
0.546997
0.541337
0.492279
0.417981
0.346941
0.292352
0.234501
0.1812
0.143966
0.146688
0.200005
0.273157
0.331501
0.33479
0.715314
0.687119
0.654878
0.620709
0.580154
0.536227
0.490721
0.441324
0.390383
0.341253
0.293248
0.243937
0.192925
0.141744
0.0972113
0.104107
0.170084
0.259023
0.349969
0.416699
0.457885
0.48561
0.50324
0.519565
0.531166
0.547845
0.557193
0.558917
0.536135
0.479506
0.405492
0.347913
0.293745
0.255399
0.219014
0.231045
0.271842
0.33989
0.400905
0.400844
0.757714
0.741958
0.702624
0.667301
0.628993
0.589299
0.548486
0.502137
0.449701
0.389569
0.323987
0.249487
0.154207
0.046821
0.0677337
0.180596
0.284741
0.370245
0.426039
0.460583
0.483781
0.500347
0.514627
0.529208
0.538896
0.553854
0.563283
0.571376
0.565828
0.535327
0.477443
0.413704
0.34592
0.303124
0.264152
0.285709
0.326252
0.39654
0.468123
0.488682
0.763876
0.741458
0.697829
0.673581
0.663982
0.6518
0.640492
0.615625
0.577547
0.513925
0.411307
0.266631
0.108409
0.0855104
0.220054
0.328589
0.403453
0.446613
0.471591
0.485711
0.499253
0.51372
0.526959
0.539397
0.546893
0.559213
0.567205
0.576834
0.581834
0.579776
0.548281
0.478708
0.396291
0.336178
0.285875
0.301735
0.330121
0.396042
0.487397
0.498674
0.763876
0.741458
0.697829
0.673581
0.663982
0.6518
0.640492
0.615625
0.577547
0.513925
0.411307
0.266631
0.108409
0.0855104
0.220054
0.328589
0.403453
0.446613
0.471591
0.485711
0.499253
0.51372
0.526959
0.539397
0.546893
0.559213
0.567205
0.576834
0.581834
0.579776
0.548281
0.478708
0.396291
0.336178
0.285875
0.301735
0.330121
0.396042
0.487397
0.498674
0.757714
0.741958
0.702624
0.667301
0.628993
0.589299
0.548486
0.502137
0.449701
0.389569
0.323987
0.249487
0.154207
0.046821
0.0677337
0.180596
0.284741
0.370245
0.426039
0.460583
0.483781
0.500347
0.514627
0.529208
0.538896
0.553854
0.563283
0.571376
0.565828
0.535327
0.477443
0.413704
0.34592
0.303124
0.264152
0.285709
0.326252
0.39654
0.468123
0.488682
0.715314
0.687119
0.654878
0.620709
0.580154
0.536227
0.490721
0.441324
0.390383
0.341253
0.293248
0.243937
0.192925
0.141744
0.0972113
0.104107
0.170084
0.259023
0.349969
0.416699
0.457885
0.48561
0.50324
0.519565
0.531166
0.547845
0.557193
0.558917
0.536135
0.479506
0.405492
0.347913
0.293745
0.255399
0.219014
0.231045
0.271842
0.33989
0.400905
0.400844
0.689401
0.641083
0.594289
0.554978
0.51317
0.472796
0.430183
0.384804
0.339258
0.302436
0.280172
0.265453
0.248331
0.224006
0.19207
0.164659
0.159339
0.183619
0.244327
0.334162
0.412563
0.457038
0.487012
0.507729
0.521797
0.539651
0.546997
0.541337
0.492279
0.417981
0.346941
0.292352
0.234501
0.1812
0.143966
0.146688
0.200005
0.273157
0.331501
0.33479
0.621553
0.584676
0.535783
0.488501
0.45159
0.419601
0.39323
0.367018
0.338363
0.316519
0.307901
0.303687
0.300765
0.291191
0.276171
0.256666
0.239724
0.230275
0.23558
0.26489
0.336106
0.418123
0.465985
0.496174
0.513649
0.530775
0.534739
0.51594
0.45176
0.379898
0.314885
0.25632
0.195088
0.129338
0.0722851
0.0577744
0.141615
0.227519
0.285237
0.299005
0.650903
0.599483
0.528342
0.461598
0.408127
0.372473
0.35431
0.34455
0.339539
0.339404
0.339618
0.340677
0.35182
0.358527
0.355953
0.344301
0.333372
0.317461
0.305955
0.301884
0.31038
0.357048
0.434645
0.484766
0.508429
0.524592
0.526496
0.490198
0.415916
0.353949
0.296808
0.243885
0.181514
0.116799
0.0492242
0.0504383
0.126544
0.206652
0.254909
0.276189
0.991434
0.938113
0.849137
0.756577
0.678941
0.609127
0.54226
0.478364
0.425572
0.402067
0.402466
0.409082
0.415251
0.426257
0.430868
0.433962
0.425522
0.415714
0.402467
0.380589
0.365548
0.363288
0.390005
0.45804
0.499556
0.518679
0.517839
0.464405
0.397007
0.352495
0.307906
0.262413
0.205142
0.156483
0.106822
0.109028
0.156152
0.235554
0.285449
0.317351
1.42006
1.42182
1.37568
1.31089
1.25104
1.18365
1.10566
1.01117
0.904811
0.796894
0.699995
0.623936
0.559428
0.530873
0.521119
0.525142
0.513284
0.507123
0.496844
0.480412
0.460999
0.433198
0.410109
0.425773
0.477032
0.509475
0.506664
0.441944
0.390865
0.359707
0.315618
0.279762
0.231818
0.198668
0.167817
0.175184
0.209346
0.272494
0.323118
0.370716
1.78956
1.79578
1.80348
1.81354
1.81098
1.79217
1.7535
1.69488
1.62094
1.52946
1.40695
1.24838
1.04022
0.86692
0.755085
0.691951
0.636006
0.615055
0.584469
0.570236
0.560993
0.533909
0.501021
0.463077
0.45557
0.483066
0.490553
0.426028
0.39409
0.3742
0.346028
0.316049
0.275586
0.252433
0.230086
0.236139
0.269624
0.328144
0.389514
0.45168
2.07946
2.08155
2.08775
2.09982
2.11161
2.11804
2.11272
2.08505
2.03263
1.96271
1.85752
1.7059
1.54687
1.39621
1.24123
1.07938
0.937402
0.828814
0.743145
0.693259
0.64478
0.617675
0.607222
0.568961
0.508695
0.466872
0.465776
0.42161
0.41507
0.405804
0.378736
0.348305
0.312559
0.298896
0.284575
0.294276
0.322422
0.379674
0.454097
0.530201
2.31583
2.31744
2.32053
2.32519
2.33233
2.33799
2.33803
2.32472
2.28249
2.21042
2.11219
1.99164
1.85003
1.69349
1.50196
1.37894
1.30332
1.19271
1.06249
0.931773
0.82433
0.753899
0.697006
0.656674
0.619253
0.529588
0.442677
0.415598
0.444465
0.438648
0.415006
0.386063
0.357688
0.34986
0.340081
0.356107
0.386915
0.45045
0.519943
0.580594
2.50722
2.50808
2.50955
2.51131
2.51489
2.51697
2.51672
2.51501
2.5082
2.44932
2.36271
2.23625
2.06421
1.8948
1.74186
1.58108
1.44209
1.36137
1.30037
1.22989
1.12463
0.997125
0.886705
0.79901
0.728602
0.631935
0.43094
0.3801
0.457603
0.455563
0.434317
0.408828
0.393852
0.389043
0.393326
0.420626
0.463487
0.522177
0.568217
0.596857
2.65475
2.65531
2.65711
2.65889
2.66297
2.66858
2.67093
2.66959
2.68428
2.65501
2.56603
2.44995
2.27908
2.08749
1.92083
1.75467
1.60204
1.47051
1.38216
1.32658
1.27924
1.22169
1.13952
1.0335
0.925437
0.808867
0.499629
0.236647
0.418119
0.442282
0.435068
0.427436
0.42836
0.440386
0.46187
0.496242
0.53398
0.568655
0.588823
0.598524
2.77149
2.77148
2.77432
2.7788
2.78372
2.79291
2.79833
2.80248
2.82429
2.83444
2.73248
2.64124
2.48126
2.24242
2.05069
1.89435
1.73602
1.57816
1.45706
1.3798
1.32822
1.28908
1.24356
1.18652
1.11565
1.02425
0.793329
0.202305
0.318942
0.417612
0.439528
0.46086
0.483687
0.507962
0.52899
0.548789
0.56701
0.582004
0.590872
0.594929
2.88
2.87965
2.88433
2.89073
2.89362
2.90012
2.90667
2.91014
2.92866
2.95044
2.87448
2.77678
2.6521
2.40417
2.13124
1.97426
1.82971
1.68841
1.5433
1.43468
1.36498
1.31998
1.28326
1.23853
1.18233
1.11434
0.953377
0.378357
0.30181
0.445877
0.47803
0.505289
0.528587
0.544116
0.554281
0.564438
0.576396
0.585282
0.590478
0.594519
2.98109
2.98318
2.99105
2.99743
2.99704
2.99857
2.99953
2.99174
2.99385
3.01371
2.9577
2.86895
2.78569
2.53476
2.1753
2.00554
1.86927
1.75176
1.62474
1.50287
1.41443
1.35223
1.3084
1.26449
1.21191
1.14963
1.02548
0.475577
0.262068
0.450805
0.484887
0.511678
0.534352
0.548157
0.556634
0.563515
0.57177
0.579639
0.584978
0.589824
3.07365
3.07389
3.07143
3.06173
3.05037
3.04128
3.03611
3.0271
3.01907
3.01907
3.01726
2.95046
2.86672
2.66904
2.23245
1.98496
1.86586
1.77863
1.68338
1.57031
1.47376
1.39699
1.34128
1.29229
1.23663
1.17453
1.07095
0.542964
0.217967
0.447659
0.486012
0.512568
0.535875
0.549741
0.557611
0.564118
0.572501
0.58112
0.587105
0.592709
3.08709
3.0796
3.05716
3.04415
3.04043
3.03624
3.02691
3.01451
2.99179
2.97351
2.97069
2.9692
2.92068
2.77814
2.29353
1.96536
1.84938
1.77603
1.71896
1.63114
1.53389
1.44742
1.37787
1.32162
1.26253
1.19837
1.10599
0.600992
0.167606
0.439698
0.483412
0.508424
0.531456
0.545046
0.552305
0.558734
0.567794
0.57747
0.584338
0.590721
2.96185
2.96541
2.97652
2.97914
2.98018
2.96841
2.94615
2.92765
2.89937
2.87424
2.88308
2.90944
2.85911
2.73793
2.29154
1.9344
1.82846
1.76157
1.71049
1.63837
1.54968
1.47126
1.40544
1.34888
1.28853
1.22167
1.13357
0.644601
0.122029
0.434653
0.484099
0.508216
0.531266
0.544926
0.551966
0.558247
0.567711
0.578092
0.585329
0.591681
2.48843
2.51643
2.54437
2.56089
2.56518
2.58067
2.59291
2.60727
2.61947
2.63347
2.67312
2.73078
2.6992
2.58272
2.15757
1.82264
1.75311
1.7149
1.68732
1.63597
1.5589
1.47541
1.4061
1.35286
1.29657
1.23268
1.15356
0.675397
0.0865134
0.430204
0.483899
0.507653
0.530967
0.545062
0.552434
0.559236
0.569737
0.581037
0.588291
0.593807
)
;

boundaryField
{
    inlet
    {
        type            calculated;
        value           uniform 0;
    }
    outlet
    {
        type            calculated;
        value           nonuniform List<scalar> 
165
(
2.48843
2.96185
3.08709
3.07365
2.98109
2.88
2.77149
2.65475
2.50722
2.31583
2.07946
1.78956
1.42006
0.991434
0.650903
0.621553
0.689401
0.715314
0.757714
0.763876
0.763876
0.741458
0.697829
0.673581
0.663982
0.6518
0.640492
0.615625
0.577547
0.513925
0.411307
0.266631
0.108409
0.0855104
0.220054
0.328589
0.403453
0.446613
0.471591
0.485711
0.499253
0.51372
0.526959
0.539397
0.546893
0.559213
0.567205
0.576834
0.581834
0.579776
0.548281
0.478708
0.396291
0.336178
0.285875
0.301735
0.330121
0.396042
0.487397
0.498674
0.593807
0.591681
0.590721
0.592709
0.589824
0.594519
0.594929
0.598524
0.596857
0.580594
0.530201
0.45168
0.370716
0.317351
0.276189
0.299005
0.33479
0.400844
0.488682
0.498674
0.59939
0.601848
0.601266
0.601848
0.59939
0.498674
0.488682
0.400844
0.33479
0.299005
0.276189
0.317351
0.370716
0.45168
0.530201
0.580594
0.596857
0.598524
0.594929
0.594519
0.589824
0.592709
0.590721
0.591681
0.593807
0.763876
0.741458
0.697829
0.673581
0.663982
0.6518
0.640492
0.615625
0.577547
0.513925
0.411307
0.266631
0.108409
0.0855104
0.220054
0.328589
0.403453
0.446613
0.471591
0.485711
0.499253
0.51372
0.526959
0.539397
0.546893
0.559213
0.567205
0.576834
0.581834
0.579776
0.548281
0.478708
0.396291
0.336178
0.285875
0.301735
0.330121
0.396042
0.487397
0.498674
0.763876
0.757714
0.715314
0.689401
0.621553
0.650903
0.991434
1.42006
1.78956
2.07946
2.31583
2.50722
2.65475
2.77149
2.88
2.98109
3.07365
3.08709
2.96185
2.48843
)
;
    }
    obstacle
    {
        type            calculated;
        value           nonuniform List<scalar> 
40
(
0.231341
0.118343
0.135359
0.130249
0.119753
0.115761
0.11275
0.110243
0.107646
0.0934169
0.231341
0.118343
0.135359
0.130249
0.119753
0.115761
0.11275
0.110243
0.107646
0.0934169
0.100904
0.139926
0.192617
0.27869
0.424238
0.100904
0.139926
0.192617
0.27869
0.424238
0.937396
1.33804
1.61007
1.78772
1.97582
0.937396
1.33804
1.61007
1.78772
1.97582
)
;
    }
    empty
    {
        type            empty;
    }
}


// ************************************************************************* //
