/*--------------------------------*- C++ -*----------------------------------*\
| =========                 |                                                 |
| \\      /  F ield         | OpenFOAM: The Open Source CFD Toolbox           |
|  \\    /   O peration     | Version:  v1912                                 |
|   \\  /    A nd           | Website:  www.openfoam.com                      |
|    \\/     M anipulation  |                                                 |
\*---------------------------------------------------------------------------*/
FoamFile
{
    version     2.0;
    format      ascii;
    class       volTensorField;
    location    "5.38";
    object      grad(U);
}
// * * * * * * * * * * * * * * * * * * * * * * * * * * * * * * * * * * * * * //

dimensions      [0 0 -1 0 0 0 0];


internalField   nonuniform List<tensor> 
1900
(
(-4.76069 5.34588e-05 0 -1.9786e-06 1.74698e-05 0 0 0 0)
(4.64339 -5.332e-05 0 1.69787e-05 8.70419e-05 0 0 0 0)
(0.652693 -0.000187973 0 0.000134107 -0.000127366 0 0 0 0)
(0.066599 -7.95022e-05 0 -3.48436e-06 -0.000209944 0 0 0 0)
(0.0964317 -0.000675332 0 -0.000152401 -0.000247334 0 0 0 0)
(0.0815803 -0.00165927 0 -0.000707799 -0.00154623 0 0 0 0)
(0.0619986 0.00314248 0 -0.00276005 -0.00329539 0 0 0 0)
(0.0417598 0.0184389 0 -0.00463056 0.00311582 0 0 0 0)
(-0.0210302 0.0547577 0 0.00565714 0.0271774 0 0 0 0)
(-0.0119181 0.192476 0 0.0624148 0.113066 0 0 0 0)
(-4.76067 5.10529e-05 0 -1.03349e-06 -1.0945e-05 0 0 0 0)
(4.64353 -9.15163e-05 0 3.05333e-05 -4.25138e-05 0 0 0 0)
(0.652672 -0.000109012 0 0.000146087 4.2375e-05 0 0 0 0)
(0.0663125 -4.04655e-05 0 -8.59179e-05 0.00014546 0 0 0 0)
(0.0957274 -0.000660954 0 -0.000375055 0.000121877 0 0 0 0)
(0.0789726 -0.00138878 0 -0.00129877 0.000820792 0 0 0 0)
(0.0580758 0.00151957 0 -0.00389301 0.00178115 0 0 0 0)
(0.050177 0.0120338 0 -0.00557165 -0.00232169 0 0 0 0)
(0.0460151 0.055192 0 0.00789876 -0.0166578 0 0 0 0)
(0.120344 0.144773 0 0.0965071 -0.0570794 0 0 0 0)
(-4.76066 -2.96357e-12 0 4.33681e-13 -1.30496e-05 0 0 0 0)
(4.64354 -4.88005e-12 0 1.57142e-12 -8.90561e-05 0 0 0 0)
(0.652576 9.8524e-12 0 -5.24862e-12 0.000169983 0 0 0 0)
(0.0660779 6.83812e-12 0 -2.46886e-12 0.000128968 0 0 0 0)
(0.0952188 -7.81832e-12 0 5.13641e-14 0.000250914 0 0 0 0)
(0.0780623 -2.09452e-12 0 3.97089e-13 0.00145088 0 0 0 0)
(0.0577257 1.15296e-13 0 1.90142e-13 0.00302848 0 0 0 0)
(0.0535516 7.89078e-14 0 2.68611e-13 -0.00158826 0 0 0 0)
(0.0810485 1.0093e-13 0 2.27818e-13 -0.0210392 0 0 0 0)
(0.179577 3.43902e-13 0 3.10353e-13 -0.111972 0 0 0 0)
(-4.76067 -5.10529e-05 0 1.03349e-06 -1.0945e-05 0 0 0 0)
(4.64353 9.15163e-05 0 -3.05333e-05 -4.25138e-05 0 0 0 0)
(0.652672 0.000109012 0 -0.000146087 4.2375e-05 0 0 0 0)
(0.0663125 4.04655e-05 0 8.59179e-05 0.00014546 0 0 0 0)
(0.0957274 0.000660954 0 0.000375055 0.000121877 0 0 0 0)
(0.0789726 0.00138878 0 0.00129877 0.000820792 0 0 0 0)
(0.0580758 -0.00151957 0 0.00389301 0.00178115 0 0 0 0)
(0.050177 -0.0120338 0 0.00557165 -0.00232169 0 0 0 0)
(0.0460151 -0.055192 0 -0.00789876 -0.0166578 0 0 0 0)
(0.120344 -0.144773 0 -0.0965071 -0.0570794 0 0 0 0)
(-4.76069 -5.34588e-05 0 1.9786e-06 1.74698e-05 0 0 0 0)
(4.64339 5.332e-05 0 -1.69787e-05 8.70419e-05 0 0 0 0)
(0.652693 0.000187973 0 -0.000134107 -0.000127366 0 0 0 0)
(0.066599 7.95023e-05 0 3.48436e-06 -0.000209944 0 0 0 0)
(0.0964317 0.000675332 0 0.000152401 -0.000247334 0 0 0 0)
(0.0815803 0.00165927 0 0.000707799 -0.00154623 0 0 0 0)
(0.0619986 -0.00314248 0 0.00276005 -0.00329539 0 0 0 0)
(0.0417598 -0.0184389 0 0.00463056 0.00311582 0 0 0 0)
(-0.0210302 -0.0547577 0 -0.00565714 0.0271774 0 0 0 0)
(-0.0119181 -0.192476 0 -0.0624148 0.113066 0 0 0 0)
(0.183685 0.383643 -2.00972e-17 0.244003 -0.213385 3.01458e-17 5.28296e-17 6.91962e-17 -5.44735e-33)
(0.506659 0.559531 0 0.309139 -0.443223 0 -1.55032e-16 -4.46886e-17 0)
(0.811612 0.95954 0 0.312575 -0.766692 0 -2.55142e-16 -8.19963e-17 0)
(1.48427 1.58291 0 0.382486 -1.47426 0 0 0 0)
(2.44005 1.88497 2.82544e-16 1.09002 -3.52667 -4.23817e-16 -2.243e-15 -1.49533e-15 -7.65838e-32)
(0.256192 0.150049 0 0.193393 -0.192827 0 9.69209e-17 3.06374e-17 0)
(0.435888 0.152984 0 0.165663 -0.311596 0 1.55032e-16 4.46886e-17 0)
(0.751679 0.387847 0 0.094648 -0.601474 0 2.55142e-16 8.19963e-17 0)
(1.61694 0.841478 0 -0.0511916 -1.27176 0 0 0 0)
(3.38832 0.573785 0 -0.273561 -2.9649 0 0 0 0)
(0.321672 1.09105e-13 0 1.54921e-13 -0.292539 0 0 0 0)
(0.468648 4.53822e-13 0 3.32869e-14 -0.366038 0 0 0 0)
(0.748792 3.46519e-13 0 2.61263e-13 -0.61213 0 0 0 0)
(1.52538 -7.78051e-14 0 8.00831e-14 -1.27733 0 0 0 0)
(3.11266 1.22714e-13 0 3.54947e-14 -3.56728 0 0 0 0)
(0.256192 -0.150049 0 -0.193393 -0.192827 0 9.69209e-17 -3.06374e-17 0)
(0.435888 -0.152984 0 -0.165663 -0.311596 0 1.55032e-16 -4.46886e-17 0)
(0.751679 -0.387847 0 -0.094648 -0.601474 0 2.55142e-16 -8.19963e-17 0)
(1.61694 -0.841478 0 0.0511916 -1.27176 0 0 0 0)
(3.38832 -0.573785 0 0.273561 -2.9649 0 0 0 0)
(0.183685 -0.383643 2.00972e-17 -0.244003 -0.213385 3.01458e-17 -2.46671e-16 1.30471e-16 -5.44735e-33)
(0.506659 -0.559531 0 -0.309139 -0.443223 0 -1.55032e-16 4.46886e-17 0)
(0.811612 -0.95954 0 -0.312575 -0.766692 0 -2.55142e-16 8.19963e-17 0)
(1.48427 -1.58291 1.01333e-16 -0.382486 -1.47426 1.51999e-16 -9.17421e-16 6.11614e-16 -2.74663e-32)
(2.44005 -1.88497 -2.82544e-16 -1.09002 -3.52667 -4.23817e-16 2.243e-15 -1.49533e-15 -7.65838e-32)
(2.88434 -0.790534 -1.69903e-17 0.142655 4.11506 -1.52912e-16 2.08403e-15 -1.07149e-16 4.60522e-33)
(0.385212 -0.29382 5.66147e-18 0.761558 1.89942 5.09532e-17 -2.03584e-15 1.66451e-16 1.53454e-33)
(-0.143507 0.0441384 0 0.582579 1.30058 0 0 0 0)
(0.179173 0.133279 -2.4493e-18 0.42453 1.14623 -2.20437e-17 1.49335e-15 -1.29987e-16 6.63885e-34)
(0.982107 -0.577149 3.00994e-18 0.360117 1.21763 2.70895e-17 -6.81208e-16 7.56898e-17 8.15846e-34)
(3.1533 -0.893336 0 -0.441785 -0.62045 0 -1.04416e-15 -8.39153e-18 0)
(0.617054 -0.11127 0 0.723436 1.01064 0 1.02939e-15 -5.46234e-17 0)
(-0.192804 0.0529356 0 0.442844 1.08897 0 0 0 0)
(0.117043 0.0683373 0 0.207592 0.999611 0 -9.42899e-16 5.21401e-17 0)
(0.898565 -0.211883 0 0.186701 0.806865 0 1.74419e-16 -3.67967e-18 0)
(3.16061 -4.83729e-14 0 5.47577e-15 0.683633 0 0 0 0)
(0.569038 -7.27104e-14 0 -1.112e-13 1.60616 0 0 0 0)
(-0.319473 -7.52683e-14 0 -6.82646e-14 1.40391 0 0 0 0)
(0.0751658 1.45707e-13 0 -5.31472e-14 1.17065 0 3.79661e-16 -5.96967e-31 0)
(0.796165 -2.75158e-12 0 -1.33148e-13 0.977442 0 -3.48838e-16 -7.46061e-30 0)
(3.1533 0.893336 0 0.441785 -0.62045 0 -1.04416e-15 8.39153e-18 0)
(0.617054 0.11127 0 -0.723436 1.01064 0 1.02939e-15 5.46234e-17 0)
(-0.192804 -0.0529356 0 -0.442844 1.08897 0 0 0 0)
(0.117043 -0.0683373 0 -0.207592 0.999611 0 -9.42899e-16 -5.21401e-17 0)
(0.898565 0.211883 0 -0.186701 0.806865 0 1.74419e-16 3.67967e-18 0)
(2.88434 0.790534 0 -0.142655 4.11506 0 1.04416e-15 -8.39153e-18 0)
(0.385212 0.29382 -5.66147e-18 -0.761558 1.89942 5.09532e-17 -2.29356e-17 5.72044e-17 1.53454e-33)
(-0.143507 -0.0441384 0 -0.582579 1.30058 0 0 0 0)
(0.179173 -0.133279 2.4493e-18 -0.42453 1.14623 -2.20437e-17 1.27855e-17 -3.45206e-17 6.63885e-34)
(0.982107 0.577149 -3.00994e-18 -0.360117 1.21763 2.70895e-17 6.81208e-16 7.56898e-17 8.15846e-34)
(1.12632 -0.634408 0 2.75176 2.21394 0 0 0 0)
(-0.57135 0.419358 0 3.05751 1.65205 0 0 0 0)
(-2.05036 0.237063 0 3.26198 1.50838 0 0 0 0)
(-2.04619 -0.203573 0 2.58607 1.73226 0 0 0 0)
(-1.56472 0.081306 0 2.02054 1.62159 0 0 0 0)
(-1.05699 0.36495 0 0.83828 1.07643 0 0 0 0)
(-0.665826 0.275265 0 0.255382 0.672533 0 0 0 0)
(-0.430532 0.120558 0 0.0877531 0.456815 0 0 0 0)
(-0.220816 0.0480521 0 0.0377687 0.358357 0 0 0 0)
(-0.0907519 0.0235975 0 0.0136072 0.306727 0 0 0 0)
(-0.0482702 0.0125256 0 0.00391349 0.279912 0 0 0 0)
(-0.0362754 0.0108817 0 0.00640015 0.260652 0 0 0 0)
(-0.00800085 0.0092648 0 0.00520004 0.243416 0 0 0 0)
(0.0483754 0.00411722 0 6.64359e-05 0.232451 0 0 0 0)
(0.111328 0.00149182 0 -0.00206145 0.227936 0 0 0 0)
(0.153895 0.000614962 0 -0.00219254 0.226308 0 0 0 0)
(0.173568 0.000500675 0 -0.0016216 0.225405 0 0 0 0)
(0.181533 0.000506937 0 -0.000972836 0.224444 0 0 0 0)
(0.185594 0.000246247 0 -0.00043228 0.223625 0 0 0 0)
(0.188827 0.000177048 0 1.15734e-05 0.22359 0 0 0 0)
(0.192439 0.00046775 0 0.000423749 0.223012 0 0 0 0)
(0.196145 0.000393875 0 0.000834611 0.221974 0 0 0 0)
(0.19913 0.00011087 0 0.00124643 0.221648 0 0 0 0)
(0.201382 1.23137e-05 0 0.00166326 0.221584 0 0 0 0)
(0.203158 -1.26744e-05 0 0.00207852 0.221597 0 0 0 0)
(0.204151 -8.44297e-05 0 0.00248092 0.221617 0 0 0 0)
(0.205203 8.51038e-05 0 0.00288769 0.221881 0 0 0 0)
(0.204384 -0.000228108 0 0.00322564 0.221308 0 0 0 0)
(0.200377 0.000106958 0 0.00353471 0.222645 0 0 0 0)
(0.195588 -0.000297684 0 0.00375197 0.220954 0 0 0 0)
(0.18852 -8.82385e-05 0 0.00384239 0.22362 0 0 0 0)
(0.181332 -0.000724741 0 0.00367372 0.221269 0 0 0 0)
(0.17405 0.000360181 0 0.0034473 0.225997 0 0 0 0)
(0.166711 -0.00231054 0 0.00281248 0.220289 0 0 0 0)
(0.152315 0.00162297 0 0.00221638 0.233218 0 0 0 0)
(0.134426 -0.0028906 0 -0.000942372 0.215682 0 0 0 0)
(0.0801607 -0.00220419 0 0.00129748 0.243808 0 0 0 0)
(0.00362718 -0.00364993 0 -0.01114 0.220522 0 0 0 0)
(1.19489 -0.0129451 0 0.00474889 0.268049 0 0 0 0)
(1.20727 -0.00288385 0 -0.0480073 0.274462 0 0 0 0)
(1.18472 -0.246124 0 -0.244853 2.77076 0 0 0 0)
(-0.317398 0.177443 0 0.0941513 2.5119 0 0 0 0)
(-1.86858 0.104163 0 0.875702 1.32922 0 0 0 0)
(-2.0178 -0.146788 0 1.05738 1.69699 0 0 0 0)
(-1.74349 0.00202978 0 1.33637 2.029 0 0 0 0)
(-1.33582 0.18964 0 0.702963 1.4175 0 0 0 0)
(-0.801409 0.161786 0 0.175592 0.774487 0 0 0 0)
(-0.464381 0.0680563 0 0.0180006 0.471281 0 0 0 0)
(-0.228819 0.0243681 0 -0.00515906 0.360067 0 0 0 0)
(-0.0937404 0.0113706 0 -0.00798981 0.306102 0 0 0 0)
(-0.0486246 0.00595199 0 -0.0104344 0.27895 0 0 0 0)
(-0.0351967 0.00557359 0 -0.00836665 0.263045 0 0 0 0)
(-0.0077915 0.00482099 0 -0.00744771 0.241545 0 0 0 0)
(0.0484327 0.00184984 0 -0.00716163 0.231197 0 0 0 0)
(0.111696 0.000640414 0 -0.00608051 0.227392 0 0 0 0)
(0.15436 0.000284493 0 -0.00501785 0.226069 0 0 0 0)
(0.174082 0.000250062 0 -0.00384516 0.225278 0 0 0 0)
(0.182044 0.000254001 0 -0.00265558 0.224348 0 0 0 0)
(0.186081 0.000121596 0 -0.00154374 0.223535 0 0 0 0)
(0.189293 8.60593e-05 0 -0.000510848 0.223502 0 0 0 0)
(0.192891 0.000231408 0 0.000477742 0.222927 0 0 0 0)
(0.196586 0.000194725 0 0.00144436 0.221894 0 0 0 0)
(0.19956 5.34315e-05 0 0.00239904 0.221573 0 0 0 0)
(0.2018 4.12095e-06 0 0.00335169 0.221513 0 0 0 0)
(0.203561 -8.62529e-06 0 0.00430677 0.22153 0 0 0 0)
(0.204536 -4.45821e-05 0 0.00526452 0.221556 0 0 0 0)
(0.205563 4.00568e-05 0 0.00624216 0.221821 0 0 0 0)
(0.204716 -0.000115753 0 0.00721088 0.221264 0 0 0 0)
(0.20068 5.40147e-05 0 0.00823086 0.222605 0 0 0 0)
(0.195848 -0.000146968 0 0.00927703 0.220896 0 0 0 0)
(0.188722 -3.54683e-05 0 0.0103912 0.223628 0 0 0 0)
(0.181478 -0.000350634 0 0.0115814 0.221199 0 0 0 0)
(0.174116 0.000219383 0 0.0130299 0.226119 0 0 0 0)
(0.1667 -0.00115855 0 0.0148461 0.219961 0 0 0 0)
(0.151958 0.00090903 0 0.0172807 0.234062 0 0 0 0)
(0.13454 -0.00127997 0 0.0192178 0.214382 0 0 0 0)
(0.0796774 -0.00102937 0 0.0263879 0.243998 0 0 0 0)
(0.00469484 -0.00210072 0 0.027616 0.221959 0 0 0 0)
(1.18813 -0.00637298 0 0.0351153 0.256545 0 0 0 0)
(1.1985 -0.00102318 0 0.00153077 0.266458 0 0 0 0)
(1.07543 1.14444e-11 0 -2.94509e-12 2.33877 0 0 0 0)
(-0.24537 -8.74532e-12 0 5.12532e-14 2.31432 0 0 0 0)
(-1.77014 -2.92207e-11 0 -1.35782e-11 1.11885 0 0 0 0)
(-1.91218 1.58783e-12 0 -5.40031e-11 1.5982 0 0 0 0)
(-1.66782 8.33275e-12 0 -1.03129e-10 2.12801 0 0 0 0)
(-1.39467 1.04851e-11 0 -5.28775e-11 1.58425 0 0 0 0)
(-0.865087 2.15354e-11 0 -3.19564e-11 0.824237 0 0 0 0)
(-0.483114 9.86951e-12 0 -4.74796e-11 0.471967 0 0 0 0)
(-0.228377 -6.74662e-12 0 -5.4353e-11 0.35635 0 0 0 0)
(-0.0922865 -7.70843e-12 0 -4.3136e-11 0.304436 0 0 0 0)
(-0.0483798 -2.11952e-12 0 -2.80133e-11 0.278177 0 0 0 0)
(-0.0354066 5.3022e-12 0 -3.56367e-11 0.263516 0 0 0 0)
(-0.0076503 1.27887e-11 0 -5.86499e-11 0.239859 0 0 0 0)
(0.0487731 1.82958e-11 0 -7.75436e-11 0.230372 0 0 0 0)
(0.111951 1.57233e-11 0 -7.96061e-11 0.227141 0 0 0 0)
(0.154546 -3.37703e-12 0 -6.46367e-11 0.225969 0 0 0 0)
(0.174255 -3.9915e-11 0 -3.75967e-11 0.225185 0 0 0 0)
(0.182202 -7.29387e-11 0 -6.47343e-12 0.22425 0 0 0 0)
(0.186218 -3.82717e-11 0 2.0387e-11 0.223439 0 0 0 0)
(0.189415 3.60511e-11 0 4.1924e-11 0.223414 0 0 0 0)
(0.193008 7.85572e-11 0 6.02114e-11 0.222847 0 0 0 0)
(0.196704 3.96942e-11 0 7.68877e-11 0.221823 0 0 0 0)
(0.199685 -6.08484e-11 0 8.77282e-11 0.221509 0 0 0 0)
(0.201937 -1.04077e-10 0 8.55475e-11 0.221456 0 0 0 0)
(0.203715 -5.49546e-11 0 6.88779e-11 0.22148 0 0 0 0)
(0.204714 2.23837e-12 0 4.78311e-11 0.221515 0 0 0 0)
(0.205769 6.03429e-11 0 3.25458e-11 0.221787 0 0 0 0)
(0.204962 7.98395e-11 0 2.3883e-11 0.22124 0 0 0 0)
(0.200978 3.1825e-11 0 1.66198e-11 0.222583 0 0 0 0)
(0.196216 5.46997e-11 0 -3.47635e-12 0.220868 0 0 0 0)
(0.18919 6.07681e-12 0 -5.03425e-11 0.223593 0 0 0 0)
(0.1821 -6.76356e-11 0 -1.18335e-10 0.221112 0 0 0 0)
(0.175 2.83793e-11 0 -2.00041e-10 0.226004 0 0 0 0)
(0.167947 4.33836e-11 0 -2.73812e-10 0.219604 0 0 0 0)
(0.153586 -5.36171e-11 0 -3.41654e-10 0.233969 0 0 0 0)
(0.137076 -3.58767e-11 0 -3.70586e-10 0.213354 0 0 0 0)
(0.0826038 5.15979e-11 0 -3.45137e-10 0.242769 0 0 0 0)
(0.00616608 3.14534e-11 0 -2.54283e-10 0.220431 0 0 0 0)
(1.18731 -3.23509e-11 0 -1.25803e-10 0.257211 0 0 0 0)
(1.1975 -2.11595e-11 0 -8.42445e-11 0.264245 0 0 0 0)
(1.18472 0.246124 0 0.244853 2.77076 0 0 0 0)
(-0.317398 -0.177443 0 -0.0941513 2.5119 0 0 0 0)
(-1.86858 -0.104163 0 -0.875702 1.32922 0 0 0 0)
(-2.0178 0.146788 0 -1.05738 1.69699 0 0 0 0)
(-1.74349 -0.00202978 0 -1.33637 2.029 0 0 0 0)
(-1.33582 -0.18964 0 -0.702963 1.4175 0 0 0 0)
(-0.801409 -0.161786 0 -0.175592 0.774487 0 0 0 0)
(-0.464381 -0.0680563 0 -0.0180006 0.471281 0 0 0 0)
(-0.228819 -0.0243681 0 0.00515906 0.360067 0 0 0 0)
(-0.0937404 -0.0113706 0 0.00798981 0.306102 0 0 0 0)
(-0.0486246 -0.00595199 0 0.0104344 0.27895 0 0 0 0)
(-0.0351967 -0.00557359 0 0.00836665 0.263045 0 0 0 0)
(-0.0077915 -0.00482099 0 0.00744771 0.241545 0 0 0 0)
(0.0484327 -0.00184984 0 0.00716163 0.231197 0 0 0 0)
(0.111696 -0.000640414 0 0.00608051 0.227392 0 0 0 0)
(0.15436 -0.000284493 0 0.00501785 0.226069 0 0 0 0)
(0.174082 -0.000250062 0 0.00384516 0.225278 0 0 0 0)
(0.182044 -0.000254001 0 0.00265558 0.224348 0 0 0 0)
(0.186081 -0.000121596 0 0.00154374 0.223535 0 0 0 0)
(0.189293 -8.60592e-05 0 0.000510848 0.223502 0 0 0 0)
(0.192891 -0.000231408 0 -0.000477742 0.222927 0 0 0 0)
(0.196586 -0.000194725 0 -0.00144436 0.221894 0 0 0 0)
(0.19956 -5.34316e-05 0 -0.00239904 0.221573 0 0 0 0)
(0.2018 -4.12115e-06 0 -0.00335169 0.221513 0 0 0 0)
(0.203561 8.62518e-06 0 -0.00430677 0.22153 0 0 0 0)
(0.204536 4.45821e-05 0 -0.00526452 0.221556 0 0 0 0)
(0.205563 -4.00567e-05 0 -0.00624216 0.221821 0 0 0 0)
(0.204716 0.000115753 0 -0.00721088 0.221264 0 0 0 0)
(0.20068 -5.40147e-05 0 -0.00823086 0.222605 0 0 0 0)
(0.195848 0.000146968 0 -0.00927703 0.220896 0 0 0 0)
(0.188722 3.54683e-05 0 -0.0103912 0.223628 0 0 0 0)
(0.181478 0.000350634 0 -0.0115814 0.221199 0 0 0 0)
(0.174116 -0.000219383 0 -0.0130299 0.226119 0 0 0 0)
(0.1667 0.00115855 0 -0.0148461 0.219961 0 0 0 0)
(0.151958 -0.000909031 0 -0.0172807 0.234062 0 0 0 0)
(0.13454 0.00127997 0 -0.0192178 0.214382 0 0 0 0)
(0.0796774 0.00102937 0 -0.0263879 0.243998 0 0 0 0)
(0.00469484 0.00210072 0 -0.027616 0.221959 0 0 0 0)
(1.18813 0.00637298 0 -0.0351153 0.256545 0 0 0 0)
(1.1985 0.00102318 0 -0.00153077 0.266458 0 0 0 0)
(1.12632 0.634408 0 -2.75176 2.21394 0 0 0 0)
(-0.57135 -0.419358 0 -3.05751 1.65205 0 0 0 0)
(-2.05036 -0.237063 0 -3.26198 1.50838 0 0 0 0)
(-2.04619 0.203573 0 -2.58607 1.73226 0 0 0 0)
(-1.56472 -0.081306 0 -2.02054 1.62159 0 0 0 0)
(-1.05699 -0.36495 0 -0.83828 1.07643 0 0 0 0)
(-0.665826 -0.275265 0 -0.255382 0.672533 0 0 0 0)
(-0.430532 -0.120558 0 -0.0877531 0.456815 0 0 0 0)
(-0.220816 -0.0480521 0 -0.0377687 0.358357 0 0 0 0)
(-0.0907519 -0.0235975 0 -0.0136072 0.306727 0 0 0 0)
(-0.0482702 -0.0125256 0 -0.00391349 0.279912 0 0 0 0)
(-0.0362754 -0.0108817 0 -0.00640015 0.260652 0 0 0 0)
(-0.00800085 -0.0092648 0 -0.00520004 0.243416 0 0 0 0)
(0.0483754 -0.00411722 0 -6.64361e-05 0.232451 0 0 0 0)
(0.111328 -0.00149182 0 0.00206145 0.227936 0 0 0 0)
(0.153895 -0.000614962 0 0.00219254 0.226308 0 0 0 0)
(0.173568 -0.000500675 0 0.0016216 0.225405 0 0 0 0)
(0.181533 -0.000506937 0 0.000972836 0.224444 0 0 0 0)
(0.185594 -0.000246247 0 0.00043228 0.223625 0 0 0 0)
(0.188827 -0.000177048 0 -1.15736e-05 0.22359 0 0 0 0)
(0.192439 -0.00046775 0 -0.000423749 0.223012 0 0 0 0)
(0.196145 -0.000393875 0 -0.000834612 0.221974 0 0 0 0)
(0.19913 -0.000110871 0 -0.00124643 0.221648 0 0 0 0)
(0.201382 -1.23139e-05 0 -0.00166326 0.221584 0 0 0 0)
(0.203158 1.26743e-05 0 -0.00207852 0.221597 0 0 0 0)
(0.204151 8.44297e-05 0 -0.00248092 0.221617 0 0 0 0)
(0.205203 -8.51037e-05 0 -0.00288769 0.221881 0 0 0 0)
(0.204384 0.000228108 0 -0.00322565 0.221308 0 0 0 0)
(0.200377 -0.000106958 0 -0.00353471 0.222645 0 0 0 0)
(0.195588 0.000297684 0 -0.00375197 0.220954 0 0 0 0)
(0.18852 8.82385e-05 0 -0.00384239 0.22362 0 0 0 0)
(0.181332 0.000724741 0 -0.00367372 0.221269 0 0 0 0)
(0.17405 -0.000360181 0 -0.0034473 0.225997 0 0 0 0)
(0.166711 0.00231054 0 -0.00281248 0.220289 0 0 0 0)
(0.152315 -0.00162297 0 -0.00221638 0.233218 0 0 0 0)
(0.134426 0.0028906 0 0.000942373 0.215682 0 0 0 0)
(0.0801607 0.00220419 0 -0.00129748 0.243808 0 0 0 0)
(0.00362718 0.00364993 0 0.01114 0.220522 0 0 0 0)
(1.19489 0.0129451 0 -0.00474888 0.268049 0 0 0 0)
(1.20727 0.00288385 0 0.0480073 0.274462 0 0 0 0)
(0.374732 -0.27305 0 -5.53634 0.393093 0 0 0 0)
(-0.34381 -0.340308 0 -5.12093 0.576135 0 0 0 0)
(-1.36269 0.0998165 0 -4.20456 1.34925 0 0 0 0)
(-1.20625 0.152147 0 -2.73783 1.35139 0 0 0 0)
(-0.853853 -0.321756 0 -1.65309 1.00509 0 0 0 0)
(-0.550987 -0.582258 0 -0.700606 0.734317 0 0 0 0)
(-0.487391 -0.419241 0 -0.353706 0.547809 0 0 0 0)
(-0.367016 -0.204425 0 -0.174429 0.417496 0 0 0 0)
(-0.191564 -0.0911298 0 -0.0924492 0.342412 0 0 0 0)
(-0.0759593 -0.0464393 0 -0.0442863 0.302011 0 0 0 0)
(-0.0445136 -0.0272524 0 -0.032329 0.276732 0 0 0 0)
(-0.0347565 -0.0223293 0 -0.0293823 0.255842 0 0 0 0)
(-0.00357648 -0.0173731 0 -0.0227949 0.241884 0 0 0 0)
(0.0530539 -0.0089385 0 -0.0116448 0.232341 0 0 0 0)
(0.113538 -0.00350882 0 -0.00497472 0.228123 0 0 0 0)
(0.154622 -0.00148993 0 -0.00293343 0.226321 0 0 0 0)
(0.17391 -0.00112983 0 -0.00249822 0.225225 0 0 0 0)
(0.181889 -0.00107767 0 -0.00221226 0.224204 0 0 0 0)
(0.186026 -0.000513129 0 -0.0017467 0.223398 0 0 0 0)
(0.189294 -0.000365632 0 -0.00114193 0.223393 0 0 0 0)
(0.192898 -0.000971517 0 -0.00052305 0.222839 0 0 0 0)
(0.19658 -0.000820059 0 5.2221e-05 0.221814 0 0 0 0)
(0.199537 -0.000231729 0 0.000581097 0.22149 0 0 0 0)
(0.201761 -2.67305e-05 0 0.00105651 0.221426 0 0 0 0)
(0.203513 2.42809e-05 0 0.00148794 0.221434 0 0 0 0)
(0.204474 0.000176941 0 0.00188367 0.221447 0 0 0 0)
(0.205512 -0.000181442 0 0.00221182 0.221715 0 0 0 0)
(0.204696 0.000464755 0 0.0025842 0.221114 0 0 0 0)
(0.2007 -0.000215127 0 0.00293165 0.222433 0 0 0 0)
(0.195956 0.00058434 0 0.00335112 0.220753 0 0 0 0)
(0.189005 0.00017243 0 0.0038846 0.223262 0 0 0 0)
(0.181894 0.00140934 0 0.00471312 0.22097 0 0 0 0)
(0.174731 -0.000671737 0 0.00543049 0.225281 0 0 0 0)
(0.16746 0.00435602 0 0.00663181 0.220063 0 0 0 0)
(0.153902 -0.00297299 0 0.00725203 0.231164 0 0 0 0)
(0.135248 0.00606035 0 0.0112145 0.216828 0 0 0 0)
(0.0855152 0.00270654 0 0.00962662 0.240612 0 0 0 0)
(0.00376435 0.0155153 0 0.0311295 0.21635 0 0 0 0)
(1.20343 0.0326095 0 0.0075288 0.277512 0 0 0 0)
(1.22145 0.00289467 0 -0.00474749 0.283446 0 0 0 0)
(0.710621 0.207115 0 -4.30111 -0.122939 0 0 0 0)
(0.589985 0.459639 0 -3.91378 0.511926 0 0 0 0)
(-0.122663 0.329357 0 -2.98645 0.876398 0 0 0 0)
(-0.037909 -0.100492 0 -1.94802 0.658112 0 0 0 0)
(0.0172415 -0.547005 0 -1.13299 0.374116 0 0 0 0)
(-0.0761909 -0.689078 0 -0.672088 0.347027 0 0 0 0)
(-0.254464 -0.50336 0 -0.4311 0.37279 0 0 0 0)
(-0.212835 -0.273515 0 -0.234643 0.354671 0 0 0 0)
(-0.111091 -0.136238 0 -0.119688 0.318197 0 0 0 0)
(-0.04075 -0.0746405 0 -0.0642244 0.291875 0 0 0 0)
(-0.0359226 -0.0491189 0 -0.046635 0.269251 0 0 0 0)
(-0.0279025 -0.0383238 0 -0.0398916 0.250116 0 0 0 0)
(0.00671913 -0.0275626 0 -0.0283671 0.238807 0 0 0 0)
(0.0630388 -0.0147922 0 -0.0145039 0.231587 0 0 0 0)
(0.118537 -0.00621204 0 -0.00548367 0.22799 0 0 0 0)
(0.155892 -0.00293907 0 -0.00258987 0.226071 0 0 0 0)
(0.17408 -0.0022028 0 -0.00220614 0.224734 0 0 0 0)
(0.182066 -0.00196094 0 -0.00217198 0.223642 0 0 0 0)
(0.186394 -0.000885259 0 -0.00192468 0.222857 0 0 0 0)
(0.189755 -0.000614822 0 -0.00148089 0.222893 0 0 0 0)
(0.193344 -0.00171907 0 -0.00101413 0.22237 0 0 0 0)
(0.196975 -0.00146515 0 -0.000606676 0.221354 0 0 0 0)
(0.199879 -0.000419175 0 -0.000260389 0.221025 0 0 0 0)
(0.202053 -5.84971e-05 0 1.27237e-05 0.220948 0 0 0 0)
(0.203765 2.60885e-05 0 0.000229453 0.220933 0 0 0 0)
(0.204675 0.000305792 0 0.000401475 0.220913 0 0 0 0)
(0.205712 -0.00035386 0 0.000469807 0.221174 0 0 0 0)
(0.20491 0.000792257 0 0.000631505 0.220508 0 0 0 0)
(0.200943 -0.000396906 0 0.000724542 0.221781 0 0 0 0)
(0.196308 0.000942778 0 0.000943763 0.220128 0 0 0 0)
(0.189572 0.000252416 0 0.00131005 0.222391 0 0 0 0)
(0.18252 0.00230412 0 0.00204481 0.220308 0 0 0 0)
(0.175534 -0.00106781 0 0.00249869 0.224036 0 0 0 0)
(0.168064 0.00688198 0 0.00355963 0.219692 0 0 0 0)
(0.15588 -0.00401582 0 0.0034268 0.228293 0 0 0 0)
(0.136274 0.0102953 0 0.00730528 0.218886 0 0 0 0)
(0.0964802 0.00147402 0 0.00621176 0.235809 0 0 0 0)
(0.00153209 0.0328461 0 0.0304502 0.215995 0 0 0 0)
(1.15574 0.0670563 0 0.00234595 0.265915 0 0 0 0)
(1.18784 0.00859602 0 -0.0281799 0.277113 0 0 0 0)
(0.747983 0.338729 0 -1.85842 0.0821739 0 0 0 0)
(0.923043 0.62269 0 -1.8656 0.244308 0 0 0 0)
(0.531588 0.240687 0 -1.44896 0.236387 0 0 0 0)
(0.57982 -0.33187 0 -0.964146 0.079304 0 0 0 0)
(0.375679 -0.621529 0 -0.680105 -0.0341656 0 0 0 0)
(0.125376 -0.583535 0 -0.574354 0.106889 0 0 0 0)
(-0.0658536 -0.411876 0 -0.387859 0.243182 0 0 0 0)
(-0.0669279 -0.257033 0 -0.248666 0.287116 0 0 0 0)
(-0.0273425 -0.151642 0 -0.125842 0.292025 0 0 0 0)
(-0.00556319 -0.0936061 0 -0.0864418 0.275649 0 0 0 0)
(-0.0210656 -0.0674934 0 -0.0608886 0.259218 0 0 0 0)
(-0.0171528 -0.0516659 0 -0.0512942 0.243679 0 0 0 0)
(0.020888 -0.0352283 0 -0.0341873 0.235529 0 0 0 0)
(0.0751052 -0.0193622 0 -0.0179684 0.230693 0 0 0 0)
(0.125019 -0.00882349 0 -0.00741388 0.227708 0 0 0 0)
(0.15778 -0.00462717 0 -0.00358168 0.225711 0 0 0 0)
(0.174313 -0.00347101 0 -0.00282915 0.224178 0 0 0 0)
(0.18216 -0.00288665 0 -0.00269251 0.223029 0 0 0 0)
(0.186692 -0.00123509 0 -0.00240017 0.222271 0 0 0 0)
(0.190172 -0.000835133 0 -0.00190609 0.222353 0 0 0 0)
(0.19374 -0.00245403 0 -0.00139986 0.221861 0 0 0 0)
(0.197306 -0.00211591 0 -0.000973157 0.220847 0 0 0 0)
(0.200134 -0.000622956 0 -0.000624157 0.220499 0 0 0 0)
(0.202233 -0.000115503 0 -0.000374275 0.220396 0 0 0 0)
(0.203887 -9.78301e-06 0 -0.000199328 0.22034 0 0 0 0)
(0.204706 0.000409523 0 -7.40962e-05 0.220258 0 0 0 0)
(0.205734 -0.000571887 0 -6.39153e-05 0.220512 0 0 0 0)
(0.204941 0.00104977 0 -4.14653e-05 0.219761 0 0 0 0)
(0.201 -0.000580862 0 -1.88152e-05 0.220954 0 0 0 0)
(0.196521 0.00117168 0 0.000164147 0.219371 0 0 0 0)
(0.190066 0.000345825 0 0.000531196 0.221282 0 0 0 0)
(0.183039 0.00299474 0 0.00135943 0.219562 0 0 0 0)
(0.176191 -0.00126562 0 0.00176084 0.222512 0 0 0 0)
(0.168354 0.00845794 0 0.0028659 0.219314 0 0 0 0)
(0.157511 -0.00374925 0 0.0023569 0.22516 0 0 0 0)
(0.137931 0.0133032 0 0.0061847 0.22035 0 0 0 0)
(0.107819 -7.97672e-05 0 0.00629933 0.230177 0 0 0 0)
(3.91179e-05 0.0445265 0 0.0280412 0.218047 0 0 0 0)
(1.14694 0.0915054 0 -0.00473108 0.253691 0 0 0 0)
(1.19203 0.0136859 0 -0.0202385 0.253883 0 0 0 0)
(0.703696 0.363353 0 -0.551756 -0.0262902 0 0 0 0)
(0.984556 0.608245 0 -0.630511 -0.0471722 0 0 0 0)
(0.746014 0.170354 0 -0.490439 -0.126449 0 0 0 0)
(0.702983 -0.361207 0 -0.412062 -0.167086 0 0 0 0)
(0.392859 -0.520423 0 -0.423533 -0.0997905 0 0 0 0)
(0.205428 -0.421816 0 -0.452844 0.0632315 0 0 0 0)
(0.0593807 -0.329687 0 -0.316894 0.195584 0 0 0 0)
(0.0396544 -0.226448 0 -0.230213 0.237819 0 0 0 0)
(0.0452338 -0.147289 0 -0.13202 0.263814 0 0 0 0)
(0.0218416 -0.106254 0 -0.100393 0.256289 0 0 0 0)
(-0.00205303 -0.0799258 0 -0.0767961 0.245834 0 0 0 0)
(-0.00217219 -0.0611517 0 -0.0603941 0.236106 0 0 0 0)
(0.0388331 -0.0400767 0 -0.0393328 0.231303 0 0 0 0)
(0.0888387 -0.0223284 0 -0.0211047 0.228896 0 0 0 0)
(0.132401 -0.011013 0 -0.00987408 0.226743 0 0 0 0)
(0.16031 -0.00634126 0 -0.00538595 0.224862 0 0 0 0)
(0.174937 -0.00478748 0 -0.0041057 0.223407 0 0 0 0)
(0.182479 -0.00379815 0 -0.00362511 0.222306 0 0 0 0)
(0.187152 -0.00153602 0 -0.00309927 0.221624 0 0 0 0)
(0.190719 -0.00101041 0 -0.00242886 0.221774 0 0 0 0)
(0.194243 -0.00317042 0 -0.00178604 0.22132 0 0 0 0)
(0.197723 -0.00277715 0 -0.001249 0.220305 0 0 0 0)
(0.200456 -0.00085422 0 -0.000802174 0.219926 0 0 0 0)
(0.202462 -0.00021183 0 -0.00047363 0.219781 0 0 0 0)
(0.204055 -0.000106736 0 -0.000235402 0.219669 0 0 0 0)
(0.204805 0.000471958 0 -4.37534e-05 0.219491 0 0 0 0)
(0.205743 -0.000832372 0 0.000159313 0.219719 0 0 0 0)
(0.204953 0.00121834 0 2.99119e-05 0.218894 0 0 0 0)
(0.201141 -0.00077318 0 0.00022516 0.219953 0 0 0 0)
(0.196838 0.00125852 0 0.00055775 0.218463 0 0 0 0)
(0.190724 0.000436614 0 0.00112329 0.219957 0 0 0 0)
(0.183705 0.00348879 0 0.00223949 0.218612 0 0 0 0)
(0.176985 -0.00130689 0 0.00288264 0.220777 0 0 0 0)
(0.168638 0.00943434 0 0.00429933 0.218619 0 0 0 0)
(0.159078 -0.00301726 0 0.00402292 0.222307 0 0 0 0)
(0.140073 0.0151294 0 0.00781303 0.220143 0 0 0 0)
(0.117542 -0.000744923 0 0.00902464 0.224581 0 0 0 0)
(-0.00909722 0.0555056 0 0.0271479 0.219791 0 0 0 0)
(1.10922 0.101588 0 -0.00740656 0.251907 0 0 0 0)
(1.1729 0.00878035 0 -0.0326715 0.252982 0 0 0 0)
(0.672092 0.318607 0 -0.108163 0.0353634 0 0 0 0)
(0.98213 0.526172 0 -0.151447 -0.0728408 0 0 0 0)
(0.742093 0.125134 0 -0.112199 -0.166626 0 0 0 0)
(0.644293 -0.30618 0 -0.270064 -0.211857 0 0 0 0)
(0.336381 -0.399586 0 -0.298632 -0.0227859 0 0 0 0)
(0.228138 -0.298902 0 -0.341208 0.0666003 0 0 0 0)
(0.148681 -0.243637 0 -0.255456 0.173698 0 0 0 0)
(0.111223 -0.191284 0 -0.184298 0.215878 0 0 0 0)
(0.0977574 -0.133843 0 -0.131107 0.239336 0 0 0 0)
(0.0476524 -0.110932 0 -0.100399 0.240515 0 0 0 0)
(0.0174783 -0.0869422 0 -0.0855558 0.233458 0 0 0 0)
(0.0189482 -0.0656685 0 -0.063014 0.229137 0 0 0 0)
(0.0587487 -0.0421761 0 -0.0404855 0.227411 0 0 0 0)
(0.103493 -0.0237567 0 -0.0219922 0.226705 0 0 0 0)
(0.140166 -0.0127115 0 -0.0111319 0.225211 0 0 0 0)
(0.163339 -0.00784178 0 -0.00650896 0.223558 0 0 0 0)
(0.17601 -0.00593356 0 -0.00494495 0.22235 0 0 0 0)
(0.18313 -0.00460516 0 -0.00424309 0.221354 0 0 0 0)
(0.187845 -0.00174794 0 -0.00356204 0.220778 0 0 0 0)
(0.191437 -0.00112786 0 -0.00280362 0.221004 0 0 0 0)
(0.194877 -0.00386919 0 -0.00211851 0.220585 0 0 0 0)
(0.198254 -0.00345916 0 -0.00156571 0.219562 0 0 0 0)
(0.200881 -0.00112785 0 -0.00111426 0.219144 0 0 0 0)
(0.202779 -0.000362708 0 -0.000801231 0.218955 0 0 0 0)
(0.204302 -0.000289617 0 -0.000602721 0.218793 0 0 0 0)
(0.205086 0.000457584 0 -0.000473796 0.218513 0 0 0 0)
(0.205805 -0.0011475 0 -0.000197358 0.218708 0 0 0 0)
(0.205004 0.00127449 0 -0.00061542 0.217851 0 0 0 0)
(0.201509 -0.000995749 0 -0.000490239 0.218796 0 0 0 0)
(0.197386 0.00117587 0 -0.000283681 0.217467 0 0 0 0)
(0.191686 0.000489522 0 0.000119649 0.218579 0 0 0 0)
(0.184735 0.00378486 0 0.00105319 0.217681 0 0 0 0)
(0.178176 -0.00125947 0 0.00141643 0.219203 0 0 0 0)
(0.169453 0.0099329 0 0.0024776 0.217984 0 0 0 0)
(0.160897 -0.00228088 0 0.00178108 0.220109 0 0 0 0)
(0.142751 0.0154939 0 0.00438057 0.219504 0 0 0 0)
(0.12645 -0.000418632 0 0.00437355 0.220185 0 0 0 0)
(-0.0157946 0.0708592 0 0.016013 0.221764 0 0 0 0)
(1.08929 0.123489 0 -0.0130875 0.250831 0 0 0 0)
(1.16769 0.0147213 0 -0.0381367 0.250727 0 0 0 0)
(0.661985 0.259084 0 -0.0188076 0.0977673 0 0 0 0)
(0.980667 0.4136 0 -0.016701 -0.0196608 0 0 0 0)
(0.631711 0.0363925 0 -0.0210002 -0.104534 0 0 0 0)
(0.52333 -0.222597 0 -0.238317 -0.162524 0 0 0 0)
(0.324302 -0.252091 0 -0.243005 0.0497643 0 0 0 0)
(0.247034 -0.232478 0 -0.242797 0.0993557 0 0 0 0)
(0.210585 -0.185837 0 -0.204516 0.162913 0 0 0 0)
(0.159482 -0.163196 0 -0.150062 0.203109 0 0 0 0)
(0.126082 -0.123548 0 -0.127846 0.219009 0 0 0 0)
(0.0657361 -0.111919 0 -0.105987 0.224153 0 0 0 0)
(0.0339727 -0.0908899 0 -0.0925296 0.221683 0 0 0 0)
(0.0412591 -0.066979 0 -0.0668155 0.221764 0 0 0 0)
(0.0783632 -0.0424204 0 -0.0426841 0.223162 0 0 0 0)
(0.117125 -0.0244486 0 -0.0244567 0.223705 0 0 0 0)
(0.147321 -0.0140454 0 -0.0138956 0.222826 0 0 0 0)
(0.166272 -0.00909816 0 -0.00892083 0.221774 0 0 0 0)
(0.17712 -0.00691172 0 -0.00678572 0.220809 0 0 0 0)
(0.183812 -0.00531307 0 -0.00558171 0.219938 0 0 0 0)
(0.188539 -0.0018738 0 -0.00450722 0.219478 0 0 0 0)
(0.19211 -0.001196 0 -0.00345461 0.219784 0 0 0 0)
(0.195435 -0.00455949 0 -0.00253466 0.219397 0 0 0 0)
(0.198691 -0.00416634 0 -0.00177365 0.218358 0 0 0 0)
(0.201193 -0.00143898 0 -0.00111026 0.217896 0 0 0 0)
(0.202955 -0.000549577 0 -0.000575863 0.217669 0 0 0 0)
(0.20437 -0.000533288 0 -0.000140565 0.217471 0 0 0 0)
(0.205196 0.000389659 0 0.000243928 0.217096 0 0 0 0)
(0.205607 -0.00146999 0 0.000860139 0.21727 0 0 0 0)
(0.204671 0.00130331 0 0.000748016 0.216414 0 0 0 0)
(0.201461 -0.00114348 0 0.00124699 0.217292 0 0 0 0)
(0.197426 0.00104961 0 0.00192849 0.216171 0 0 0 0)
(0.192013 0.000643694 0 0.00288025 0.216972 0 0 0 0)
(0.184955 0.0040897 0 0.00440114 0.21656 0 0 0 0)