/*--------------------------------*- C++ -*----------------------------------*\
| =========                 |                                                 |
| \\      /  F ield         | OpenFOAM: The Open Source CFD Toolbox           |
|  \\    /   O peration     | Version:  v1912                                 |
|   \\  /    A nd           | Website:  www.openfoam.com                      |
|    \\/     M anipulation  |                                                 |
\*---------------------------------------------------------------------------*/
FoamFile
{
    version     2.0;
    format      ascii;
    class       volVectorField;
    location    "5.38";
    object      U;
}
// * * * * * * * * * * * * * * * * * * * * * * * * * * * * * * * * * * * * * //

dimensions      [0 1 -1 0 0 0 0];


internalField   nonuniform List<vector> 
1900
(
(-0.87681 2.18899e-06 0)
(-0.0753282 8.50276e-06 0)
(0.0518684 -8.47501e-06 0)
(0.0552103 -2.90919e-05 0)
(0.0651882 -2.43755e-05 0)
(0.0744966 -0.000164158 0)
(0.0815042 -0.00035623 0)
(0.0868964 0.000464338 0)
(0.0898562 0.00333155 0)
(0.0826903 0.0114159 0)
(-0.87681 1.30496e-06 0)
(-0.0753248 8.90561e-06 0)
(0.0518952 -1.69983e-05 0)
(0.0552096 -1.28968e-05 0)
(0.0651577 -2.50914e-05 0)
(0.0743551 -0.000145088 0)
(0.0809522 -0.000302848 0)
(0.0859703 0.000158826 0)
(0.0909876 0.00210392 0)
(0.0951733 0.0111972 0)
(-0.87681 -8.88964e-14 0)
(-0.0753221 -5.03818e-13 0)
(0.0518976 -1.06491e-12 0)
(0.0551931 1.46666e-12 0)
(0.0651132 3.02717e-13 0)
(0.0742369 -9.70007e-14 0)
(0.0807256 -1.16187e-13 0)
(0.085782 -7.39415e-14 0)
(0.091436 -1.00406e-13 0)
(0.101992 -5.37555e-14 0)
(-0.87681 -1.30496e-06 0)
(-0.0753248 -8.90561e-06 0)
(0.0518952 1.69983e-05 0)
(0.0552096 1.28968e-05 0)
(0.0651577 2.50914e-05 0)
(0.0743551 0.000145088 0)
(0.0809522 0.000302848 0)
(0.0859703 -0.000158826 0)
(0.0909876 -0.00210392 0)
(0.0951733 -0.0111972 0)
(-0.87681 -2.18899e-06 0)
(-0.0753282 -8.50276e-06 0)
(0.0518684 8.47501e-06 0)
(0.0552103 2.90919e-05 0)
(0.0651882 2.43755e-05 0)
(0.0744966 0.000164158 0)
(0.0815042 0.00035623 0)
(0.0868964 -0.000464338 0)
(0.0898562 -0.00333155 0)
(0.0826903 -0.0114159 0)
(0.0864746 0.0354802 0)
(0.122856 0.0473626 0)
(0.169532 0.0721768 0)
(0.248064 0.111915 0)
(0.39134 0.166034 0)
(0.110907 0.0269136 0)
(0.137961 0.0278189 0)
(0.169338 0.0367278 0)
(0.232374 0.0562024 0)
(0.364819 0.0998839 0)
(0.122059 -3.62436e-14 0)
(0.148036 -3.90768e-14 0)
(0.18089 2.0408e-14 0)
(0.243559 -2.58939e-15 0)
(0.37602 1.56225e-14 0)
(0.110907 -0.0269136 0)
(0.137961 -0.0278189 0)
(0.169338 -0.0367278 0)
(0.232374 -0.0562024 0)
(0.364819 -0.0998839 0)
(0.0864746 -0.0354802 0)
(0.122856 -0.0473626 0)
(0.169532 -0.0721768 0)
(0.248064 -0.111915 0)
(0.39134 -0.166034 0)
(0.772023 0.0272998 0)
(0.873764 -0.0525535 0)
(0.837752 -0.0653384 0)
(0.838501 -0.0679735 0)
(0.863317 -0.0613218 0)
(0.753478 -0.0150399 0)
(0.90359 -0.04176 0)
(0.866617 -0.0421172 0)
(0.861839 -0.0398021 0)
(0.88309 -0.0371428 0)
(0.752585 1.02937e-14 0)
(0.911383 7.7911e-15 0)
(0.864323 -1.62299e-15 0)
(0.852618 -5.88615e-15 0)
(0.877506 2.43231e-14 0)
(0.753478 0.0150399 0)
(0.90359 0.04176 0)
(0.866617 0.0421172 0)
(0.861839 0.0398021 0)
(0.88309 0.0371428 0)
(0.772023 -0.0272998 0)
(0.873764 0.0525535 0)
(0.837752 0.0653384 0)
(0.838501 0.0679735 0)
(0.863317 0.0613218 0)
(1.04259 -0.221661 0)
(1.13411 -0.200952 0)
(0.885467 -0.106338 0)
(0.570261 -0.135759 0)
(0.322764 -0.16232 0)
(0.139964 -0.1134 0)
(0.0320913 -0.0619589 0)
(-0.0431377 -0.0377025 0)
(-0.086305 -0.0288053 0)
(-0.103862 -0.0244882 0)
(-0.111262 -0.022316 0)
(-0.117136 -0.0210436 0)
(-0.121238 -0.0193236 0)
(-0.119337 -0.0184958 0)
(-0.107934 -0.0181913 0)
(-0.0887214 -0.0180855 0)
(-0.0656131 -0.0180222 0)
(-0.0409902 -0.0179479 0)
(-0.0156916 -0.0178828 0)
(0.0100482 -0.0178801 0)
(0.0362358 -0.0178341 0)
(0.0629689 -0.0177515 0)
(0.0901756 -0.0177258 0)
(0.11773 -0.017721 0)
(0.145556 -0.0177224 0)
(0.173598 -0.0177245 0)
(0.201697 -0.0177456 0)
(0.230029 -0.0177011 0)
(0.257903 -0.0178084 0)
(0.285133 -0.0176717 0)
(0.311689 -0.0178902 0)
(0.336976 -0.017696 0)
(0.361555 -0.0180895 0)
(0.384839 -0.0175969 0)
(0.407401 -0.0187249 0)
(0.426726 -0.0171506 0)
(0.444368 -0.0195199 0)
(0.44877 -0.0177567 0)
(0.445366 -0.0205236 0)
(0.777366 -0.0213166 0)
(1.05107 -0.0935508 0)
(1.1724 -0.0925728 0)
(0.963784 -0.0447539 0)
(0.658536 -0.063928 0)
(0.408889 -0.0851205 0)
(0.179076 -0.0633698 0)
(0.0415375 -0.0329695 0)
(-0.0413112 -0.0188787 0)
(-0.0861674 -0.014254 0)
(-0.104237 -0.0121774 0)
(-0.111946 -0.0111271 0)
(-0.117608 -0.0105406 0)
(-0.121625 -0.00959436 0)
(-0.119751 -0.00921487 0)
(-0.108306 -0.00908565 0)
(-0.0890347 -0.00903876 0)
(-0.065857 -0.00900742 0)
(-0.0411622 -0.00896999 0)
(-0.0157949 -0.00893757 0)
(0.01001 -0.00893656 0)
(0.0362606 -0.0089139 0)
(0.0630551 -0.00887292 0)
(0.0903216 -0.00886035 0)
(0.117934 -0.00885822 0)
(0.145817 -0.00885922 0)
(0.173913 -0.0088606 0)
(0.202064 -0.00887148 0)
(0.230443 -0.00884958 0)
(0.258361 -0.00890331 0)
(0.28563 -0.00883473 0)
(0.312219 -0.00894373 0)
(0.337528 -0.00884448 0)
(0.362126 -0.00904015 0)
(0.38541 -0.00878415 0)
(0.407968 -0.00935875 0)
(0.427199 -0.00853417 0)
(0.444967 -0.00971074 0)
(0.44911 -0.00881724 0)
(0.446258 -0.0102884 0)
(0.775846 -0.0105698 0)
(1.023 -6.13564e-13 0)
(1.14164 3.31011e-12 0)
(0.955523 -3.01853e-12 0)
(0.654852 -4.72558e-12 0)
(0.429673 -2.58187e-12 0)
(0.196201 -2.43408e-12 0)
(0.0461387 3.01543e-13 0)
(-0.0416977 3.48815e-12 0)
(-0.0867178 3.01566e-12 0)
(-0.104501 1.63283e-12 0)
(-0.112097 8.95839e-13 0)
(-0.117806 1.04996e-12 0)
(-0.121833 2.35394e-12 0)
(-0.11991 4.56684e-12 0)
(-0.108421 7.38529e-12 0)
(-0.0891229 8.89074e-12 0)
(-0.0659207 6.45661e-12 0)
(-0.0412026 -2.08588e-12 0)
(-0.0158151 -1.36015e-11 0)
(0.0100074 -1.26106e-11 0)
(0.036274 -3.6875e-12 0)
(0.0630845 8.99262e-12 0)
(0.0903675 7.2284e-12 0)
(0.117998 -7.74068e-12 0)
(0.1459 -2.13926e-11 0)
(0.174019 -2.28532e-11 0)
(0.202196 -2.07771e-11 0)
(0.230606 -6.2589e-12 0)
(0.258561 1.17877e-12 0)
(0.285875 2.49299e-12 0)
(0.31252 1.62212e-11 0)
(0.337902 4.16411e-12 0)
(0.362598 -2.3786e-12 0)
(0.386027 1.19684e-11 0)
(0.408783 9.55189e-12 0)
(0.428263 -2.77629e-12 0)
(0.446479 -3.14204e-13 0)
(0.450979 1.14131e-11 0)
(0.448175 8.33549e-12 0)
(0.777488 2.51664e-12 0)
(1.05107 0.0935508 0)
(1.1724 0.0925728 0)
(0.963784 0.0447539 0)
(0.658536 0.063928 0)
(0.408889 0.0851205 0)
(0.179076 0.0633698 0)
(0.0415375 0.0329695 0)
(-0.0413112 0.0188787 0)
(-0.0861674 0.014254 0)
(-0.104237 0.0121774 0)
(-0.111946 0.0111271 0)
(-0.117608 0.0105406 0)
(-0.121625 0.00959436 0)
(-0.119751 0.00921487 0)
(-0.108306 0.00908565 0)
(-0.0890347 0.00903876 0)
(-0.065857 0.00900742 0)
(-0.0411622 0.00896999 0)
(-0.0157949 0.00893757 0)
(0.01001 0.00893656 0)
(0.0362606 0.0089139 0)
(0.0630551 0.00887292 0)
(0.0903216 0.00886035 0)
(0.117934 0.00885822 0)
(0.145817 0.00885922 0)
(0.173913 0.0088606 0)
(0.202064 0.00887148 0)
(0.230443 0.00884958 0)
(0.258361 0.00890331 0)
(0.28563 0.00883473 0)
(0.312219 0.00894373 0)
(0.337528 0.00884448 0)
(0.362126 0.00904015 0)
(0.38541 0.00878415 0)
(0.407968 0.00935875 0)
(0.427199 0.00853417 0)
(0.444967 0.00971074 0)
(0.44911 0.00881724 0)
(0.446258 0.0102884 0)
(0.775846 0.0105698 0)
(1.04259 0.221661 0)
(1.13411 0.200952 0)
(0.885467 0.106338 0)
(0.570261 0.135759 0)
(0.322764 0.16232 0)
(0.139964 0.1134 0)
(0.0320913 0.0619589 0)
(-0.0431377 0.0377025 0)
(-0.086305 0.0288053 0)
(-0.103862 0.0244882 0)
(-0.111262 0.022316 0)
(-0.117136 0.0210436 0)
(-0.121238 0.0193236 0)
(-0.119337 0.0184958 0)
(-0.107934 0.0181913 0)
(-0.0887214 0.0180855 0)
(-0.0656131 0.0180222 0)
(-0.0409902 0.0179479 0)
(-0.0156916 0.0178828 0)
(0.0100482 0.0178801 0)
(0.0362358 0.0178341 0)
(0.0629689 0.0177515 0)
(0.0901756 0.0177258 0)
(0.11773 0.017721 0)
(0.145556 0.0177224 0)
(0.173598 0.0177245 0)
(0.201697 0.0177456 0)
(0.230029 0.0177011 0)
(0.257903 0.0178084 0)
(0.285133 0.0176717 0)
(0.311689 0.0178902 0)
(0.336976 0.017696 0)
(0.361555 0.0180895 0)
(0.384839 0.0175969 0)
(0.407401 0.0187249 0)
(0.426726 0.0171506 0)
(0.444368 0.0195199 0)
(0.44877 0.0177567 0)
(0.445366 0.0205236 0)
(0.777366 0.0213166 0)
(0.586194 0.327328 0)
(0.689245 0.252239 0)
(0.491646 0.233743 0)
(0.314505 0.279688 0)
(0.159927 0.275583 0)
(0.0796959 0.191206 0)
(0.00840619 0.115462 0)
(-0.0543367 0.0759142 0)
(-0.0925233 0.0592455 0)
(-0.107017 0.0508535 0)
(-0.113412 0.0464747 0)
(-0.119258 0.0433591 0)
(-0.12297 0.0403342 0)
(-0.120242 0.0385815 0)
(-0.10838 0.0378761 0)
(-0.0890186 0.0376166 0)
(-0.0658592 0.0374664 0)
(-0.0411934 0.0373059 0)
(-0.0158398 0.03717 0)
(0.00996387 0.0371648 0)
(0.0362161 0.0370694 0)
(0.0630108 0.0368976 0)
(0.0902755 0.0368439 0)
(0.117883 0.0368339 0)
(0.14576 0.0368366 0)
(0.173849 0.0368406 0)
(0.20199 0.0368852 0)
(0.230365 0.0367907 0)
(0.258281 0.037013 0)
(0.285558 0.0367315 0)
(0.312169 0.0371737 0)
(0.337534 0.0367789 0)
(0.36219 0.0375613 0)
(0.385585 0.0365942 0)
(0.408242 0.0387592 0)
(0.427908 0.0357766 0)
(0.445435 0.0404258 0)
(0.451425 0.0365209 0)
(0.44647 0.0446925 0)
(0.782369 0.0454885 0)
(-0.179809 0.269169 0)
(0.0156123 0.326126 0)
(-0.0175626 0.39557 0)
(-0.0181199 0.416699 0)
(-0.0279876 0.367935 0)
(-0.0133785 0.266273 0)
(-0.0489401 0.178438 0)
(-0.0833562 0.127849 0)
(-0.10747 0.103221 0)
(-0.113906 0.090383 0)
(-0.118676 0.0826953 0)
(-0.123785 0.0768754 0)
(-0.126349 0.0721563 0)
(-0.121937 0.0692956 0)
(-0.109013 0.0680885 0)
(-0.0893394 0.0675873 0)
(-0.0661431 0.0672802 0)
(-0.0414675 0.0669816 0)
(-0.016075 0.066741 0)
(0.00979085 0.0667381 0)
(0.0361078 0.0665719 0)
(0.0629603 0.0662654 0)
(0.090276 0.066169 0)
(0.117927 0.0661501 0)
(0.14584 0.0661529 0)
(0.173963 0.0661573 0)
(0.202126 0.066237 0)
(0.230533 0.06606 0)
(0.258476 0.0664548 0)
(0.285793 0.0659508 0)
(0.312461 0.0667141 0)
(0.337925 0.0660202 0)
(0.362654 0.0673477 0)
(0.386197 0.0657266 0)
(0.408872 0.0692403 0)
(0.429064 0.0646222 0)
(0.446347 0.0720715 0)
(0.455596 0.0650276 0)
(0.446768 0.0811042 0)
(0.773425 0.0834681 0)
(-0.553601 0.294749 0)
(-0.347906 0.387899 0)
(-0.299764 0.465988 0)
(-0.201719 0.454088 0)
(-0.140314 0.374724 0)
(-0.0984073 0.283168 0)
(-0.105835 0.214252 0)
(-0.116517 0.169902 0)
(-0.124241 0.143568 0)
(-0.124036 0.1282 0)
(-0.12577 0.117826 0)
(-0.129829 0.10964 0)
(-0.130487 0.103618 0)
(-0.124085 0.099952 0)
(-0.109834 0.0982934 0)
(-0.089705 0.0975255 0)
(-0.0664439 0.0970209 0)
(-0.0417689 0.096571 0)
(-0.0163499 0.0962271 0)
(0.00957144 0.0962314 0)
(0.0359474 0.0959974 0)
(0.06285 0.0955565 0)
(0.0902065 0.0954155 0)
(0.117887 0.0953852 0)
(0.145821 0.0953838 0)
(0.173956 0.0953825 0)
(0.202115 0.0954964 0)
(0.230533 0.0952252 0)
(0.258473 0.0957851 0)
(0.285808 0.0950655 0)
(0.312517 0.0961073 0)
(0.338076 0.0951606 0)
(0.362852 0.0969309 0)
(0.386528 0.0948126 0)
(0.40915 0.0992568 0)
(0.429844 0.0937815 0)
(0.447081 0.102915 0)
(0.459494 0.0937596 0)
(0.447092 0.11516 0)
(0.774901 0.118924 0)
(-0.672289 0.290945 0)
(-0.478772 0.390867 0)
(-0.401536 0.458213 0)
(-0.273618 0.437715 0)
(-0.208215 0.358881 0)
(-0.165582 0.294598 0)
(-0.151723 0.242881 0)
(-0.149253 0.203934 0)
(-0.140818 0.180608 0)
(-0.136813 0.16343 0)
(-0.134811 0.151388 0)
(-0.137378 0.14145 0)
(-0.135409 0.134571 0)
(-0.126699 0.130429 0)
(-0.110978 0.128431 0)
(-0.0902886 0.127401 0)
(-0.0668928 0.126687 0)
(-0.042181 0.126084 0)
(-0.016711 0.125643 0)
(0.00928574 0.125662 0)
(0.0357368 0.125365 0)
(0.0627024 0.12479 0)
(0.0901106 0.124601 0)
(0.117828 0.124555 0)
(0.145788 0.124543 0)
(0.173943 0.124526 0)
(0.202109 0.124673 0)
(0.230522 0.124297 0)
(0.258471 0.125008 0)
(0.285836 0.124084 0)
(0.312602 0.125354 0)
(0.338285 0.124204 0)
(0.363121 0.126313 0)
(0.386956 0.123845 0)
(0.409496 0.128908 0)
(0.430703 0.123015 0)
(0.448016 0.133068 0)
(0.463027 0.12281 0)
(0.445515 0.148332 0)
(0.768062 0.150747 0)
(-0.699816 0.287782 0)
(-0.514991 0.375399 0)
(-0.429731 0.432479 0)
(-0.310916 0.40981 0)
(-0.25255 0.34828 0)
(-0.218411 0.299924 0)
(-0.189812 0.266082 0)
(-0.177524 0.232924 0)
(-0.159226 0.213478 0)
(-0.15064 0.196117 0)
(-0.146121 0.182972 0)
(-0.145834 0.172208 0)
(-0.140911 0.164913 0)
(-0.129678 0.16061 0)
(-0.11245 0.15838 0)
(-0.0911322 0.157114 0)
(-0.0675319 0.156224 0)
(-0.0427296 0.155482 0)
(-0.0171712 0.154957 0)
(0.00892779 0.155001 0)
(0.0354741 0.154647 0)
(0.062519 0.153937 0)
(0.0899939 0.153696 0)
(0.117761 0.153627 0)
(0.145758 0.153596 0)
(0.173944 0.153548 0)
(0.202157 0.153722 0)
(0.230541 0.153232 0)
(0.258533 0.154073 0)
(0.285956 0.152958 0)
(0.312814 0.154396 0)
(0.338669 0.153093 0)
(0.363616 0.155437 0)
(0.387668 0.152747 0)
(0.410216 0.158168 0)
(0.431914 0.152119 0)
(0.449473 0.162429 0)
(0.466688 0.152004 0)
(0.445129 0.181915 0)
(0.766243 0.185964 0)
(-0.700952 0.300317 0)
(-0.518906 0.371565 0)
(-0.431269 0.414057 0)
(-0.345186 0.381572 0)
(-0.287353 0.352842 0)
(-0.256002 0.312247 0)
(-0.219419 0.288911 0)
(-0.198092 0.261142 0)
(-0.175561 0.244032 0)
(-0.163419 0.227167 0)
(-0.157484 0.213255 0)
(-0.154077 0.202172 0)
(-0.146137 0.194835 0)
(-0.132527 0.190506 0)
(-0.113928 0.188112 0)
(-0.0920134 0.186644 0)
(-0.0682032 0.18561 0)
(-0.0433054 0.184743 0)
(-0.017655 0.184149 0)
(0.00854278 0.184228 0)
(0.0351754 0.18382 0)
(0.0622875 0.182974 0)
(0.0898153 0.182674 0)
(0.117616 0.182578 0)
(0.145628 0.182523 0)
(0.173817 0.182431 0)
(0.202057 0.18263 0)
(0.230359 0.182027 0)
(0.258341 0.182989 0)
(0.285761 0.181713 0)
(0.312633 0.183277 0)
(0.338564 0.18189 0)
(0.363496 0.184402 0)
(0.387613 0.181611 0)
(0.409968 0.187237 0)
(0.431864 0.181184 0)
(0.449175 0.191417 0)
(0.46727 0.181578 0)
(0.442046 0.214803 0)
(0.757956 0.217189 0)
(-0.7048 0.31369 0)
(-0.519417 0.370189 0)
(-0.435296 0.404778 0)
(-0.37407 0.366742 0)
(-0.316946 0.361467 0)
(-0.282752 0.326253 0)
(-0.244009 0.309254 0)
(-0.21729 0.286748 0)
(-0.193105 0.271516 0)
(-0.178727 0.255518 0)
(-0.170642 0.241718 0)
(-0.16354 0.230975 0)
(-0.152222 0.224051 0)
(-0.136159 0.219891 0)
(-0.116132 0.217429 0)
(-0.0934962 0.215884 0)
(-0.0693301 0.214738 0)
(-0.0442088 0.213766 0)
(-0.0183656 0.213119 0)
(0.00801232 0.213244 0)
(0.0348024 0.212787 0)
(0.062049 0.211802 0)
(0.0896997 0.211438 0)
(0.117609 0.21131 0)
(0.145721 0.211226 0)
(0.174009 0.211078 0)
(0.202385 0.211299 0)
(0.230739 0.210582 0)
(0.258864 0.211655 0)
(0.286467 0.210244 0)
(0.313578 0.211893 0)
(0.339836 0.210481 0)
(0.365055 0.213103 0)
(0.389541 0.210307 0)
(0.412091 0.21603 0)
(0.434483 0.210073 0)
(0.452064 0.220047 0)
(0.471495 0.210998 0)
(0.442957 0.247928 0)
(0.755807 0.252472 0)
(-0.698596 0.33426 0)
(-0.520248 0.374499 0)
(-0.440736 0.406397 0)
(-0.389475 0.371416 0)
(-0.335035 0.375986 0)
(-0.298139 0.345268 0)
(-0.260239 0.332183 0)
(-0.230964 0.313116 0)
(-0.206481 0.298778 0)
(-0.191137 0.283212 0)
(-0.180736 0.269756 0)
(-0.17027 0.25949 0)
(-0.156075 0.253004 0)
(-0.138105 0.248994 0)
(-0.117093 0.246468 0)
(-0.0940797 0.244777 0)
(-0.0697827 0.243512 0)
(-0.0446028 0.242456 0)
(-0.0187329 0.241769 0)
(0.00765867 0.241948 0)
(0.0344384 0.241443 0)
(0.0616508 0.240316 0)
(0.0892539 0.239884 0)
(0.117096 0.239723 0)
(0.145122 0.239617 0)
(0.173306 0.239409 0)
(0.201618 0.239661 0)
(0.229789 0.238847 0)
(0.257805 0.240034 0)
(0.285328 0.23853 0)
(0.312386 0.240247 0)
(0.338664 0.238885 0)
(0.36384 0.241593 0)
(0.38835 0.238904 0)
(0.410747 0.244644 0)
(0.433199 0.238927 0)
(0.450564 0.248325 0)
(0.470327 0.240469 0)
(0.43934 0.280128 0)
(0.747041 0.282835 0)
(-0.702701 0.356373 0)
(-0.524276 0.383754 0)
(-0.448804 0.414514 0)
(-0.401166 0.383117 0)
(-0.350421 0.39127 0)
(-0.313319 0.363547 0)
(-0.276301 0.353751 0)
(-0.246786 0.336888 0)
(-0.222638 0.323224 0)
(-0.206492 0.308411 0)
(-0.193368 0.296116 0)
(-0.179529 0.286921 0)
(-0.162524 0.281096 0)
(-0.142545 0.277272 0)
(-0.120249 0.274909 0)
(-0.0965029 0.273195 0)
(-0.0717284 0.271781 0)
(-0.046142 0.270627 0)
(-0.0198977 0.269896 0)
(0.00684403 0.27013 0)
(0.0339449 0.269577 0)
(0.0614551 0.268307 0)
(0.0893459 0.267811 0)
(0.117456 0.267633 0)
(0.145732 0.267529 0)
(0.17414 0.267271 0)
(0.202706 0.267575 0)
(0.231031 0.266701 0)
(0.259265 0.268028 0)
(0.287023 0.266487 0)
(0.314339 0.268271 0)
(0.340924 0.267023 0)
(0.366351 0.269804 0)
(0.391131 0.267303 0)
(0.413635 0.27302 0)
(0.436327 0.267628 0)
(0.453653 0.276491 0)
(0.47405 0.269853 0)
(0.44 0.312805 0)
(0.743358 0.317866 0)
(-0.699718 0.383575 0)
(-0.525329 0.396959 0)
(-0.453438 0.426794 0)
(-0.408004 0.4 0)
(-0.359638 0.410085 0)
(-0.323238 0.384483 0)
(-0.287486 0.376923 0)
(-0.258914 0.361094 0)
(-0.235114 0.347914 0)
(-0.2176 0.333842 0)
(-0.201434 0.322634 0)
(-0.184448 0.314292 0)
(-0.165118 0.308879 0)
(-0.143763 0.305095 0)
(-0.120801 0.302552 0)
(-0.0967119 0.300669 0)
(-0.0717783 0.299163 0)
(-0.0461849 0.29791 0)
(-0.020019 0.297129 0)
(0.00658208 0.297413 0)
(0.0334929 0.296807 0)
(0.0607906 0.295392 0)
(0.0884811 0.294844 0)
(0.116403 0.294676 0)
(0.144508 0.294611 0)
(0.172777 0.294331 0)
(0.201238 0.294735 0)
(0.229466 0.293845 0)
(0.257708 0.295363 0)
(0.285545 0.293872 0)
(0.313004 0.295756 0)
(0.339822 0.294714 0)
(0.365461 0.297593 0)
(0.390455 0.295422 0)
(0.413005 0.301107 0)
(0.435768 0.296195 0)
(0.452924 0.30439 0)
(0.473429 0.299189 0)
(0.437409 0.344609 0)
(0.734306 0.347833 0)
(-0.706058 0.413666 0)
(-0.528064 0.413883 0)
(-0.458332 0.4424 0)
(-0.415229 0.418996 0)
(-0.369546 0.429006 0)
(-0.334599 0.404464 0)
(-0.300216 0.398251 0)
(-0.273103 0.382715 0)
(-0.249411 0.370391 0)
(-0.230435 0.357465 0)
(-0.211603 0.347708 0)
(-0.192024 0.340303 0)
(-0.170688 0.335383 0)
(-0.147973 0.332108 0)
(-0.124271 0.329354 0)
(-0.0995903 0.327358 0)
(-0.0741734 0.32573 0)
(-0.0481033 0.324372 0)
(-0.0214553 0.323544 0)
(0.00562544 0.323887 0)
(0.032999 0.323233 0)
(0.0607371 0.321681 0)
(0.0888433 0.32109 0)
(0.117125 0.320948 0)
(0.145513 0.320933 0)
(0.17401 0.320632 0)
(0.202622 0.32118 0)
(0.230947 0.320258 0)
(0.2593 0.321982 0)
(0.287251 0.320582 0)
(0.314837 0.322575 0)
(0.341829 0.321786 0)
(0.36761 0.324764 0)
(0.392725 0.323034 0)
(0.415253 0.32869 0)
(0.438075 0.324382 0)
(0.455062 0.332081 0)
(0.475896 0.328245 0)
(0.437409 0.376432 0)
(0.729356 0.383551 0)
(-0.696538 0.442573 0)
(-0.528638 0.433158 0)
(-0.460549 0.460855 0)
(-0.419599 0.439816 0)
(-0.376728 0.449058 0)
(-0.343607 0.425121 0)
(-0.310676 0.419549 0)
(-0.284651 0.40432 0)
(-0.260283 0.393193 0)
(-0.23917 0.381501 0)
(-0.217858 0.372803 0)
(-0.196074 0.365885 0)
(-0.173114 0.361505 0)
(-0.149519 0.357872 0)
(-0.125076 0.355125 0)
(-0.100051 0.35294 0)
(-0.0744688 0.351129 0)
(-0.048381 0.34959 0)
(-0.021827 0.348652 0)
(0.0050801 0.349016 0)
(0.0322306 0.348302 0)
(0.0597439 0.346626 0)
(0.0876697 0.346036 0)
(0.115816 0.345993 0)
(0.14411 0.346103 0)
(0.172585 0.345859 0)
(0.201152 0.346666 0)
(0.229569 0.345745 0)
(0.258081 0.347753 0)
(0.286262 0.346532 0)
(0.314145 0.348682 0)
(0.341514 0.348204 0)
(0.367694 0.351282 0)
(0.393157 0.350068 0)
(0.415921 0.355626 0)
(0.438904 0.352023 0)
(0.455923 0.359237 0)
(0.476998 0.356753 0)
(0.436494 0.407064 0)
(0.718992 0.41242 0)
(-0.697654 0.475832 0)
(-0.530684 0.453451 0)
(-0.463533 0.479284 0)
(-0.425381 0.45957 0)
(-0.385196 0.467645 0)
(-0.354001 0.444146 0)
(-0.322399 0.438904 0)
(-0.297219 0.424052 0)
(-0.272359 0.414205 0)
(-0.249923 0.403485 0)
(-0.22652 0.396079 0)
(-0.202978 0.390421 0)
(-0.179034 0.385941 0)
(-0.154447 0.382443 0)
(-0.129339 0.379647 0)
(-0.103688 0.37741 0)
(-0.0774863 0.375521 0)
(-0.0507342 0.37389 0)
(-0.0234543 0.372916 0)
(0.00421456 0.373354 0)
(0.0321177 0.372606 0)
(0.0603237 0.370805 0)
(0.0888486 0.370183 0)
(0.117466 0.370186 0)
(0.146097 0.370347 0)
(0.174822 0.370045 0)
(0.203525 0.37107 0)
(0.232049 0.37005 0)
(0.260652 0.372274 0)
(0.288917 0.371195 0)
(0.316878 0.373456 0)
(0.344336 0.373264 0)
(0.370581 0.376387 0)
(0.395968 0.375769 0)
(0.418419 0.381244 0)
(0.441022 0.378493 0)
(0.457438 0.385456 0)
(0.478051 0.384392 0)
(0.435718 0.437158 0)
(0.713378 0.448827 0)
(-0.685892 0.500439 0)
(-0.53066 0.473037 0)
(-0.464195 0.497806 0)
(-0.42905 0.478748 0)
(-0.391919 0.485605 0)
(-0.362781 0.462861 0)
(-0.332201 0.457824 0)
(-0.306585 0.443583 0)
(-0.279851 0.435154 0)
(-0.254825 0.426284 0)
(-0.229794 0.419774 0)
(-0.204945 0.414071 0)
(-0.179661 0.409874 0)
(-0.154277 0.406275 0)
(-0.128638 0.403357 0)
(-0.10276 0.400933 0)
(-0.0766 0.398831 0)
(-0.050152 0.396975 0)
(-0.0234113 0.395854 0)
(0.00354459 0.396298 0)
(0.0306638 0.395496 0)
(0.0581656 0.393609 0)
(0.0861779 0.393048 0)
(0.114472 0.393224 0)
(0.142934 0.393555 0)
(0.171655 0.393315 0)
(0.200362 0.394692 0)
(0.229124 0.39361 0)
(0.258048 0.396112 0)
(0.286716 0.395217 0)
(0.315181 0.397586 0)
(0.343222 0.397629 0)
(0.370136 0.400687 0)
(0.396063 0.400595 0)
(0.41898 0.405791 0)
(0.441934 0.403704 0)
(0.458902 0.410251 0)
(0.480154 0.410009 0)
(0.436959 0.463967 0)
(0.702671 0.474798 0)
(-0.683428 0.527799 0)
(-0.534687 0.490601 0)
(-0.469753 0.51327 0)
(-0.437165 0.493856 0)
(-0.401897 0.498833 0)
(-0.373493 0.478013 0)
(-0.343719 0.473546 0)
(-0.317936 0.460465 0)
(-0.290817 0.453797 0)
(-0.265487 0.44547 0)
(-0.239541 0.440041 0)
(-0.213877 0.434785 0)
(-0.187942 0.43095 0)
(-0.16198 0.427568 0)
(-0.135783 0.424835 0)
(-0.109292 0.422557 0)
(-0.0823592 0.420574 0)
(-0.0548555 0.418796 0)
(-0.0266569 0.417765 0)
(0.00213164 0.418352 0)
(0.0312323 0.417534 0)
(0.0604873 0.41549 0)
(0.0898057 0.414799 0)
(0.118954 0.414901 0)
(0.147908 0.415162 0)
(0.1769 0.414732 0)
(0.205703 0.416324 0)
(0.23448 0.414917 0)
(0.263376 0.417533 0)
(0.29197 0.416685 0)
(0.32037 0.419048 0)
(0.348325 0.419205 0)
(0.375222 0.422003 0)
(0.400955 0.422369 0)
(0.423612 0.427086 0)
(0.446157 0.425553 0)
(0.462735 0.431659 0)
(0.483322 0.432262 0)
(0.438898 0.4878 0)
(0.698264 0.505052 0)
(-0.676659 0.547223 0)
(-0.534404 0.505904 0)
(-0.470933 0.526991 0)
(-0.440149 0.507337 0)
(-0.405992 0.512146 0)
(-0.378853 0.493237 0)
(-0.348795 0.489958 0)
(-0.321909 0.478045 0)
(-0.293353 0.472912 0)
(-0.266141 0.465365 0)
(-0.238731 0.460563 0)
(-0.211871 0.455622 0)
(-0.185034 0.45199 0)
(-0.158434 0.448515 0)
(-0.13178 0.445548 0)
(-0.105074 0.442876 0)
(-0.0782441 0.440362 0)
(-0.0513385 0.437983 0)
(-0.0244689 0.436463 0)
(0.00220916 0.436863 0)
(0.0288324 0.435988 0)
(0.0560462 0.43408 0)
(0.0841502 0.433829 0)
(0.112749 0.434541 0)
(0.141521 0.435351 0)
(0.170586 0.43524 0)
(0.199471 0.43742 0)
(0.228573 0.435904 0)
(0.257821 0.438829 0)
(0.286938 0.438098 0)
(0.316008 0.440544 0)
(0.344731 0.440747 0)
(0.372549 0.443233 0)
(0.399007 0.443923 0)
(0.42231 0.448066 0)
(0.445119 0.446996 0)
(0.462317 0.452603 0)
(0.483319 0.453003 0)
(0.440662 0.507494 0)
(0.691699 0.524682 0)
(-0.677756 0.553001 0)
(-0.536509 0.512647 0)
(-0.47601 0.532848 0)
(-0.447344 0.513995 0)
(-0.415649 0.518647 0)
(-0.390462 0.501586 0)
(-0.361021 0.499035 0)
(-0.33401 0.488082 0)
(-0.305098 0.484171 0)
(-0.277398 0.477852 0)
(-0.249955 0.474306 0)
(-0.22323 0.469865 0)
(-0.196551 0.466927 0)
(-0.170067 0.463726 0)
(-0.143316 0.460981 0)
(-0.116214 0.45833 0)
(-0.0884377 0.455792 0)
(-0.0598172 0.45355 0)
(-0.0303056 0.452566 0)
(-0.000192887 0.453609 0)
(0.0302649 0.452691 0)
(0.0609048 0.45014 0)
(0.0915348 0.449399 0)
(0.121677 0.450026 0)
(0.151143 0.450942 0)
(0.180316 0.450636 0)
(0.208864 0.453175 0)
(0.23739 0.45116 0)
(0.266008 0.454163 0)
(0.294492 0.453227 0)
(0.322961 0.455619 0)
(0.351089 0.455753 0)
(0.378549 0.457826 0)
(0.404506 0.459012 0)
(0.427396 0.462653 0)
(0.449557 0.462211 0)
(0.466607 0.467808 0)
(0.486966 0.468274 0)
(0.445621 0.519845 0)
(0.691733 0.535421 0)
(-0.687497 0.555968 0)
(-0.534245 0.520318 0)
(-0.479117 0.54237 0)
(-0.451402 0.525121 0)
(-0.421462 0.53024 0)
(-0.39595 0.515811 0)
(-0.36537 0.514518 0)
(-0.336618 0.50454 0)
(-0.306168 0.501063 0)
(-0.276647 0.495209 0)
(-0.247335 0.492324 0)
(-0.218918 0.48751 0)
(-0.190548 0.484535 0)
(-0.162732 0.480524 0)
(-0.135011 0.476701 0)
(-0.107689 0.47221 0)
(-0.0807128 0.467052 0)
(-0.0539724 0.461849 0)
(-0.0270414 0.458204 0)
(0.000169105 0.457756 0)
(0.0274912 0.456835 0)
(0.0551486 0.455862 0)
(0.0832575 0.457864 0)
(0.111804 0.461409 0)
(0.140715 0.464861 0)
(0.170502 0.465751 0)
(0.200083 0.470007 0)
(0.230002 0.468274 0)
(0.259972 0.47216 0)
(0.289919 0.471437 0)
(0.319831 0.474184 0)
(0.349493 0.47437 0)
(0.37851 0.476146 0)
(0.405632 0.4777 0)
(0.42963 0.480512 0)
(0.451773 0.480368 0)
(0.468789 0.485781 0)
(0.489407 0.485835 0)
(0.452118 0.531289 0)
(0.700181 0.546208 0)
(-1.08726 0.197237 0)
(-0.532431 0.45514 0)
(-0.534252 0.455878 0)
(-0.515737 0.450961 0)
(-0.489097 0.454704 0)
(-0.462521 0.446015 0)
(-0.429548 0.448021 0)
(-0.397544 0.444144 0)
(-0.363893 0.444683 0)
(-0.330741 0.443922 0)
(-0.297717 0.445369 0)
(-0.265048 0.444987 0)
(-0.232547 0.446466 0)
(-0.200168 0.446952 0)
(-0.167685 0.448136 0)
(-0.135045 0.449026 0)
(-0.1022 0.450075 0)
(-0.0697283 0.450764 0)
(-0.0370443 0.4512 0)
(-0.00422941 0.452968 0)
(0.028465 0.451876 0)
(0.0623668 0.447797 0)
(0.0970377 0.446353 0)
(0.13157 0.443639 0)
(0.166659 0.442513 0)
(0.200844 0.438952 0)
(0.235546 0.439303 0)
(0.269149 0.434418 0)
(0.30337 0.434442 0)
(0.336549 0.430893 0)
(0.370087 0.430313 0)
(0.402475 0.428072 0)
(0.434539 0.427143 0)
(0.463514 0.427343 0)
(0.489645 0.428233 0)
(0.51105 0.429346 0)
(0.525075 0.434682 0)
(0.541682 0.438332 0)
(0.485309 0.470274 0)
(1.05849 0.214087 0)
(-1.02457 1.03157 0)
(-0.24857 1.06287 0)
(-0.525278 0.761556 0)
(-0.514621 0.755306 0)
(-0.491706 0.760544 0)
(-0.465985 0.763933 0)
(-0.430966 0.767787 0)
(-0.399873 0.773347 0)
(-0.36411 0.773796 0)
(-0.331987 0.777879 0)
(-0.299168 0.77976 0)
(-0.266821 0.779433 0)
(-0.235107 0.781616 0)
(-0.203223 0.78054 0)
(-0.171298 0.780924 0)
(-0.139135 0.779585 0)
(-0.106539 0.779787 0)
(-0.0739194 0.779873 0)
(-0.0408352 0.778356 0)
(-0.0070511 0.779415 0)
(0.02701 0.778989 0)
(0.0604873 0.770967 0)
(0.0974568 0.773129 0)
(0.130962 0.763444 0)
(0.167987 0.763026 0)
(0.200167 0.754837 0)
(0.237122 0.753821 0)
(0.268498 0.744324 0)
(0.305188 0.740991 0)
(0.336298 0.731445 0)
(0.373469 0.726131 0)
(0.403883 0.715258 0)
(0.441934 0.708474 0)
(0.469923 0.696876 0)
(0.50295 0.690162 0)
(0.522882 0.681814 0)
(0.533483 0.681846 0)
(0.548541 0.688592 0)
(0.225037 1.04513 0)
(1.01276 1.01763 0)
(-1.02457 -1.03157 0)
(-0.24857 -1.06287 0)
(-0.525278 -0.761556 0)
(-0.514621 -0.755306 0)
(-0.491706 -0.760544 0)
(-0.465985 -0.763933 0)
(-0.430966 -0.767787 0)
(-0.399873 -0.773347 0)
(-0.36411 -0.773796 0)
(-0.331987 -0.777879 0)
(-0.299168 -0.77976 0)
(-0.266821 -0.779433 0)
(-0.235107 -0.781616 0)
(-0.203223 -0.78054 0)
(-0.171298 -0.780924 0)
(-0.139135 -0.779585 0)
(-0.106539 -0.779787 0)
(-0.0739194 -0.779873 0)
(-0.0408352 -0.778356 0)
(-0.0070511 -0.779415 0)
(0.02701 -0.778989 0)
(0.0604873 -0.770967 0)
(0.0974568 -0.773129 0)
(0.130962 -0.763444 0)
(0.167987 -0.763026 0)
(0.200167 -0.754837 0)
(0.237122 -0.753821 0)
(0.268498 -0.744324 0)
(0.305188 -0.740991 0)
(0.336298 -0.731445 0)
(0.373469 -0.726131 0)
(0.403883 -0.715258 0)
(0.441934 -0.708474 0)
(0.469923 -0.696876 0)
(0.50295 -0.690162 0)
(0.522882 -0.681814 0)
(0.533483 -0.681846 0)
(0.548541 -0.688592 0)
(0.225037 -1.04513 0)
(1.01276 -1.01763 0)
(-1.08726 -0.197237 0)
(-0.532431 -0.45514 0)
(-0.534252 -0.455878 0)
(-0.515737 -0.450961 0)
(-0.489097 -0.454704 0)
(-0.462521 -0.446015 0)
(-0.429548 -0.448021 0)
(-0.397544 -0.444144 0)
(-0.363893 -0.444683 0)
(-0.330741 -0.443922 0)
(-0.297717 -0.445369 0)
(-0.265048 -0.444987 0)
(-0.232547 -0.446466 0)
(-0.200168 -0.446952 0)
(-0.167685 -0.448136 0)
(-0.135045 -0.449026 0)
(-0.1022 -0.450075 0)
(-0.0697283 -0.450764 0)
(-0.0370443 -0.4512 0)
(-0.00422941 -0.452968 0)
(0.028465 -0.451876 0)
(0.0623668 -0.447797 0)
(0.0970377 -0.446353 0)
(0.13157 -0.443639 0)
(0.166659 -0.442513 0)
(0.200844 -0.438952 0)
(0.235546 -0.439303 0)
(0.269149 -0.434418 0)
(0.30337 -0.434442 0)
(0.336549 -0.430893 0)
(0.370087 -0.430313 0)
(0.402475 -0.428072 0)
(0.434539 -0.427143 0)
(0.463514 -0.427343 0)
(0.489645 -0.428233 0)
(0.51105 -0.429346 0)
(0.525075 -0.434682 0)
(0.541682 -0.438332 0)
(0.485309 -0.470274 0)
(1.05849 -0.214087 0)
(-0.687497 -0.555968 0)
(-0.534245 -0.520318 0)
(-0.479117 -0.54237 0)
(-0.451402 -0.525121 0)
(-0.421462 -0.53024 0)
(-0.39595 -0.515811 0)
(-0.36537 -0.514518 0)
(-0.336618 -0.50454 0)
(-0.306168 -0.501063 0)
(-0.276647 -0.495209 0)
(-0.247335 -0.492324 0)
(-0.218918 -0.48751 0)
(-0.190548 -0.484535 0)
(-0.162732 -0.480524 0)
(-0.135011 -0.476701 0)
(-0.107689 -0.47221 0)
(-0.0807128 -0.467052 0)
(-0.0539724 -0.461849 0)
(-0.0270414 -0.458204 0)
(0.000169105 -0.457756 0)
(0.0274912 -0.456835 0)
(0.0551486 -0.455862 0)
(0.0832575 -0.457864 0)
(0.111804 -0.461409 0)
(0.140715 -0.464861 0)
(0.170502 -0.465751 0)
(0.200083 -0.470007 0)
(0.230002 -0.468274 0)
(0.259972 -0.47216 0)
(0.289919 -0.471437 0)
(0.319831 -0.474184 0)
(0.349493 -0.47437 0)
(0.37851 -0.476146 0)
(0.405632 -0.4777 0)
(0.42963 -0.480512 0)
(0.451773 -0.480368 0)
(0.468789 -0.485781 0)
(0.489407 -0.485835 0)
(0.452118 -0.531289 0)
(0.700181 -0.546208 0)
(-0.677756 -0.553001 0)
(-0.536509 -0.512647 0)
(-0.47601 -0.532848 0)
(-0.447344 -0.513995 0)
(-0.415649 -0.518647 0)
(-0.390462 -0.501586 0)
(-0.361021 -0.499035 0)
(-0.33401 -0.488082 0)
(-0.305098 -0.484171 0)
(-0.277398 -0.477852 0)
(-0.249955 -0.474306 0)
(-0.22323 -0.469865 0)
(-0.196551 -0.466927 0)
(-0.170067 -0.463726 0)
(-0.143316 -0.460981 0)
(-0.116214 -0.45833 0)
(-0.0884377 -0.455792 0)
(-0.0598172 -0.45355 0)
(-0.0303056 -0.452566 0)
(-0.000192887 -0.453609 0)
(0.0302649 -0.452691 0)
(0.0609048 -0.45014 0)
(0.0915348 -0.449399 0)
(0.121677 -0.450026 0)
(0.151143 -0.450942 0)
(0.180316 -0.450636 0)
(0.208864 -0.453175 0)
(0.23739 -0.45116 0)
(0.266008 -0.454163 0)
(0.294492 -0.453227 0)
(0.322961 -0.455619 0)
(0.351089 -0.455753 0)
(0.378549 -0.457826 0)
(0.404506 -0.459012 0)
(0.427396 -0.462653 0)
(0.449557 -0.462211 0)
(0.466607 -0.467808 0)
(0.486966 -0.468274 0)