/*--------------------------------*- C++ -*----------------------------------*\
| =========                 |                                                 |
| \\      /  F ield         | OpenFOAM: The Open Source CFD Toolbox           |
|  \\    /   O peration     | Version:  v1912                                 |
|   \\  /    A nd           | Website:  www.openfoam.com                      |
|    \\/     M anipulation  |                                                 |
\*---------------------------------------------------------------------------*/
FoamFile
{
    version     2.0;
    format      ascii;
    class       Cloud<dsmcParcel>;
    location    "3e-05/lagrangian/dsmc";
    object      positions;
}
// * * * * * * * * * * * * * * * * * * * * * * * * * * * * * * * * * * * * * //

10786
(
(0.04273485631 0.01633622111 2.5e-05) 406
(0.03145908729 0.0100907578 2.5e-05) 217
(0.05099333717 0.01480277925 2.5e-05) 844
(0.05311630198 0.02069162615 2.5e-05) 906
(0.03670280606 0.01252662649 2.5e-05) 281
(0.03906121212 0.008083936197 2.5e-05) 1263
(0.04707333029 0.01426580523 2.5e-05) 840
(0.05334623698 0.02000135602 2.5e-05) 906
(0.0501539804 0.01553590171 2.5e-05) 853
(0.04565382347 0.01091335155 2.5e-05) 229
(0.04401717479 0.01270756712 2.5e-05) 288
(0.05130667462 0.01527105396 2.5e-05) 854
(0.0442997867 0.01148278733 2.5e-05) 258
(0.05178089569 0.01700641856 2.5e-05) 875
(0.04456091641 0.01337699153 2.5e-05) 318
(0.04069845565 0.009782675882 2.5e-05) 1295
(0.05441295971 0.01788438405 2.5e-05) 877
(0.04875272958 0.01853760255 2.5e-05) 882
(0.05295451047 0.01184174179 2.5e-05) 816
(0.05099083975 0.01361616506 2.5e-05) 834
(0.04845362234 0.01389978499 2.5e-05) 832
(0.05507539267 0.01632021001 2.5e-05) 868
(0.05320743111 0.01450576025 2.5e-05) 846
(0.03527365676 0.01581653376 2.5e-05) 370
(0.04709238139 0.01348026062 2.5e-05) 830
(0.03077970892 0.01128701269 2.5e-05) 247
(0.05462946665 0.01937421581 2.5e-05) 898
(0.04280132963 0.009907389714 2.5e-05) 1297
(0.05329057399 0.01244764022 2.5e-05) 826
(0.04735727765 0.01231931479 2.5e-05) 820
(0.05377746081 0.01527663176 2.5e-05) 857
(0.04984298591 0.01665812759 2.5e-05) 863
(0.05530772642 0.0156149316 2.5e-05) 858
(0.04534976253 0.01224842886 2.5e-05) 289
(0.05134698255 0.01589483627 2.5e-05) 854
(0.04816768015 0.01231934106 2.5e-05) 821
(0.0449354584 0.007678391196 2.5e-05) 1238
(0.05096070993 0.01372473515 2.5e-05) 834
(0.03577631058 0.01452890409 2.5e-05) 341
(0.05486134916 0.0134555254 2.5e-05) 838
(0.05235525123 0.01220395165 2.5e-05) 825
(0.05339710037 0.01235588294 2.5e-05) 826
(0.042291558 0.0124095552 2.5e-05) 286
(0.04246651881 0.01069216428 2.5e-05) 226
(0.02969509334 0.009570399876 2.5e-05) 1286
(0.0528518866 0.01453499116 2.5e-05) 846
(0.05179608024 0.01086134355 2.5e-05) 805
(0.04891667265 0.01021213064 2.5e-05) 802
(0.0485177849 0.01524895171 2.5e-05) 852
(0.05415585786 0.01289245499 2.5e-05) 827
(0.04459775363 0.006453146674 2.5e-05) 1208
(0.04816008628 0.01182033273 2.5e-05) 811
(0.05505596195 0.01499741098 2.5e-05) 848
(0.05459454497 0.01357561463 2.5e-05) 838
(0.05360972174 0.01004614566 2.5e-05) 807
(0.0482252813 0.01172076629 2.5e-05) 811
(0.05050599795 0.0129625629 2.5e-05) 824
(0.05066082828 0.01139924263 2.5e-05) 814
(0.04522496641 0.01186652626 2.5e-05) 259
(0.04600519712 0.01711885882 2.5e-05) 439
(0.04059456631 0.0138110674 2.5e-05) 315
(0.05454265514 0.01502213334 2.5e-05) 858
(0.05148836325 0.01429292149 2.5e-05) 845
(0.05237048107 0.02667488898 2.5e-05) 965
(0.04783252856 0.01360236778 2.5e-05) 831
(0.0518662322 0.01764225078 2.5e-05) 875
(0.05605775645 0.01801893203 2.5e-05) 889
(0.04939686374 0.01326764622 2.5e-05) 832
(0.03289421777 0.01292280736 2.5e-05) 278
(0.05098201256 0.01578007499 2.5e-05) 854
(0.04602675964 0.009550099371 2.5e-05) 1299
(0.04849292438 0.01249477157 2.5e-05) 822
(0.05098247388 0.01731511353 2.5e-05) 874
(0.05112788341 0.0103309583 2.5e-05) 804
(0.05220240452 0.02353044888 2.5e-05) 935
(0.04433931102 0.007665810359 2.5e-05) 1238
(0.05440927028 0.01762968719 2.5e-05) 877
(0.0239570407 0.0117974856 2.5e-05) 241
(0.04751274622 0.01348204078 2.5e-05) 831
(0.04160401371 0.01229646353 2.5e-05) 286
(0.05410867142 0.01643725 2.5e-05) 867
(0.05369493828 0.01775517433 2.5e-05) 877
(0.051157883 0.01017173465 2.5e-05) 804
(0.03066064376 0.007941147445 2.5e-05) 1226
(0.0486929471 0.01386505234 2.5e-05) 832
(0.03125519931 0.01156609049 2.5e-05) 247
(0.03598398277 0.01007349578 2.5e-05) 221
(0.05280847828 0.01483544809 2.5e-05) 846
(0.0532541542 0.02383855664 2.5e-05) 936
(0.0534708874 0.01507634641 2.5e-05) 857
(0.05293298712 0.01657660898 2.5e-05) 866
(0.05270395575 0.01315873397 2.5e-05) 836
(0.05417275372 0.01535058915 2.5e-05) 857
(0.04730041828 0.0127218935 2.5e-05) 820
(0.0415989282 0.007396828049 2.5e-05) 1235
(0.04681991671 0.01433518525 2.5e-05) 840
(0.05338455661 0.01673445303 2.5e-05) 866
(0.04789362815 0.01411860704 2.5e-05) 841
(0.03669082411 0.009390790862 2.5e-05) 1291
(0.04346414899 0.01077072291 2.5e-05) 227
(0.05338486754 0.01950792516 2.5e-05) 896
(0.04038623164 0.01125853358 2.5e-05) 255
(0.05540050532 0.01629513584 2.5e-05) 868
(0.05186553645 0.0141303931 2.5e-05) 845
(0.0528554738 0.01732915819 2.5e-05) 876
(0.05468276165 0.01592546997 2.5e-05) 858
(0.05379584757 0.01406137213 2.5e-05) 847
(0.0552348821 0.01393768047 2.5e-05) 838
(0.05248341236 0.01596954485 2.5e-05) 856
(0.05227866819 0.01225928017 2.5e-05) 825
(0.05238182487 0.0150292483 2.5e-05) 855
(0.05546553638 0.01518599174 2.5e-05) 859
(0.05284238545 0.01148328007 2.5e-05) 816
(0.05484190404 0.01295581319 2.5e-05) 828
(0.04409965207 0.01296595967 2.5e-05) 288
(0.05504715479 0.01449163375 2.5e-05) 848
(0.04890204807 0.01214176773 2.5e-05) 822
(0.05465399926 0.0132610899 2.5e-05) 838
(0.05298387715 0.0147757 2.5e-05) 846
(0.04550313882 0.01088620099 2.5e-05) 229
(0.0530172736 0.01299408096 2.5e-05) 826
(0.05498156493 0.0137814683 2.5e-05) 838
(0.04763303861 0.01177932188 2.5e-05) 811
(0.0557651865 0.01790184206 2.5e-05) 879
(0.04931281401 0.01310326476 2.5e-05) 832
(0.05337882613 0.01290999245 2.5e-05) 826
(0.05540389395 0.01312966831 2.5e-05) 838
(0.04324311023 0.01270356846 2.5e-05) 287
(0.05174884465 0.01499147639 2.5e-05) 845
(0.0511633367 0.01747322354 2.5e-05) 874
(0.0466836726 0.01350652249 2.5e-05) 830
(0.05002318049 0.01821977762 2.5e-05) 883
(0.04743360034 0.01275140675 2.5e-05) 821
(0.05178804807 0.01320276646 2.5e-05) 835
(0.05127698927 0.01634074855 2.5e-05) 864
(0.05305034676 0.02667528705 2.5e-05) 966
(0.05533641137 0.02028742008 2.5e-05) 908
(0.05628739568 0.01859671386 2.5e-05) 889
(0.05531330134 0.0201779552 2.5e-05) 908
(0.05203508758 0.02287701748 2.5e-05) 925
(0.05352591528 0.01559147064 2.5e-05) 857
(0.05132230236 0.01360825843 2.5e-05) 834
(0.04679433334 0.01394146081 2.5e-05) 830
(0.05116268095 0.01538187988 2.5e-05) 854
(0.05584890012 0.01604404994 2.5e-05) 869
(0.05084678313 0.01820284488 2.5e-05) 884
(0.04190105757 0.01288126613 2.5e-05) 286
(0.05134974633 0.01706399172 2.5e-05) 874
(0.05576908748 0.02108444402 2.5e-05) 919
(0.03638824913 0.01191780729 2.5e-05) 251
(0.05567435709 0.01818948799 2.5e-05) 889
(0.05460278639 0.01482476018 2.5e-05) 848
(0.05100627788 0.01564637334 2.5e-05) 854
(0.04844439615 0.01389905263 2.5e-05) 832
(0.05604169899 0.01571648901 2.5e-05) 859
(0.0562752642 0.01953479719 2.5e-05) 899
(0.05589470245 0.01201837639 2.5e-05) 829
(0.05287015626 0.01271791821 2.5e-05) 826
(0.05203251903 0.01746395436 2.5e-05) 875
(0.05331309917 0.01465784987 2.5e-05) 846
(0.05119828807 0.01121670685 2.5e-05) 814
(0.05398486986 0.01515075905 2.5e-05) 857
(0.04698048693 0.01069459656 2.5e-05) 800
(0.05408884408 0.01270551017 2.5e-05) 827
(0.05479277047 0.01056706424 2.5e-05) 808
(0.05605893407 0.01612879787 2.5e-05) 869
(0.05392674391 0.0170509264 2.5e-05) 877
(0.05629077463 0.01581094739 2.5e-05) 859
(0.05629903546 0.01506477299 2.5e-05) 859
(0.05470557044 0.01309077669 2.5e-05) 838
(0.0529513866 0.01208166698 2.5e-05) 826
(0.05215628852 0.01527951223 2.5e-05) 855
(0.05368902504 0.01438868602 2.5e-05) 847
(0.04763921327 0.01389876229 2.5e-05) 831
(0.05323024919 0.01744266949 2.5e-05) 876
(0.05425728563 0.01260859765 2.5e-05) 827
(0.05297294954 0.01649481621 2.5e-05) 866
(0.05239553478 0.02265358102 2.5e-05) 925
(0.05436511378 0.02390275387 2.5e-05) 937
(0.05313821046 0.02525290856 2.5e-05) 956
(0.05200764734 0.01838729698 2.5e-05) 885
(0.04724984228 0.02061363852 2.5e-05) 900
(0.04908344243 0.01962078082 2.5e-05) 892
(0.04352457943 0.01277775751 2.5e-05) 287
(0.05177358457 0.02281598346 2.5e-05) 925
(0.04561081911 0.01881106315 2.5e-05) 469
(0.05626396915 0.02033444324 2.5e-05) 909
(0.04975850585 0.01930776496 2.5e-05) 893
(0.05402441733 0.01892940792 2.5e-05) 887
(0.05044711912 0.01572983807 2.5e-05) 854
(0.0523559757 0.01413436503 2.5e-05) 845
(0.04721126596 0.01309413215 2.5e-05) 830
(0.05217218732 0.02432922813 2.5e-05) 945
(0.05261152658 0.01412232035 2.5e-05) 846
(0.05054490383 0.02266406569 2.5e-05) 924
(0.05605710401 0.0215880776 2.5e-05) 919
(0.05630689281 0.01699419497 2.5e-05) 869
(0.05585008232 0.02305715041 2.5e-05) 939
(0.05362589895 0.0163387127 2.5e-05) 867
(0.05414038768 0.0142737672 2.5e-05) 847
(0.05231988537 0.01334332775 2.5e-05) 835
(0.05522673192 0.0136471468 2.5e-05) 838
(0.05052765664 0.01767219417 2.5e-05) 874
(0.0551536448 0.01786689876 2.5e-05) 878
(0.05404748497 0.01766463879 2.5e-05) 877
(0.0555038181 0.01753748899 2.5e-05) 879
(0.05581078196 0.01883825428 2.5e-05) 889
(0.05634855131 0.02221191676 2.5e-05) 929
(0.05426566562 0.01578179694 2.5e-05) 857
(0.05498224243 0.01773713925 2.5e-05) 878
(0.05456361673 0.01952410992 2.5e-05) 898
(0.05214891827 0.01367245366 2.5e-05) 835
(0.05489532183 0.01418969956 2.5e-05) 848
(0.05606973841 0.01669183043 2.5e-05) 869
(0.05341675964 0.01862157631 2.5e-05) 886
(0.05161344737 0.01053431464 2.5e-05) 805
(0.05362306673 0.01315073392 2.5e-05) 837
(0.04950816856 0.01177727629 2.5e-05) 813
(0.05396128352 0.01228192184 2.5e-05) 827
(0.05457302318 0.0123499884 2.5e-05) 828
(0.05339650013 0.02390408887 2.5e-05) 936
(0.05632819814 0.02285600725 2.5e-05) 929
(0.05092028375 0.01641472774 2.5e-05) 864
(0.05050512846 0.02600876962 2.5e-05) 964
(0.05214360451 0.02123989568 2.5e-05) 915
(0.051772031 0.02502083607 2.5e-05) 955
(0.05469735408 0.01923997952 2.5e-05) 898
(0.05557099062 0.01915058125 2.5e-05) 899
(0.05501875005 0.01822358038 2.5e-05) 888
(0.05262509141 0.02296175121 2.5e-05) 926
(0.05522550217 0.0179152374 2.5e-05) 878
(0.05379083645 0.02456433572 2.5e-05) 947
(0.05373495513 0.02274208888 2.5e-05) 927
(0.05583132453 0.02116032634 2.5e-05) 919
(0.05321259067 0.0211212226 2.5e-05) 916
(0.05614503564 0.01719385192 2.5e-05) 879
(0.05446663763 0.0261597538 2.5e-05) 968
(0.05162034392 0.02256047339 2.5e-05) 925
(0.05299660872 0.01806813982 2.5e-05) 886
(0.05472344645 0.02563092297 2.5e-05) 958
(0.05275026448 0.02494720645 2.5e-05) 946
(0.05156430199 0.02389041999 2.5e-05) 935
(0.05569478736 0.01788669058 2.5e-05) 879
(0.05605413575 0.02060487025 2.5e-05) 909
(0.05319756778 0.02543307577 2.5e-05) 956
(0.05276926523 0.01679841419 2.5e-05) 866
(0.05383908875 0.01722939044 2.5e-05) 877
(0.05453674254 0.01735348101 2.5e-05) 878
(0.05392331223 0.01635217998 2.5e-05) 867
(0.0557814519 0.01849307948 2.5e-05) 889
(0.05393353043 0.01510862906 2.5e-05) 857
(0.05558969073 0.01992422699 2.5e-05) 899
(0.05466549164 0.01567398882 2.5e-05) 858
(0.05587961436 0.01538738956 2.5e-05) 859
(0.05456217451 0.02036588758 2.5e-05) 908
(0.05369644046 0.02607475679 2.5e-05) 967
(0.05444891802 0.01750711042 2.5e-05) 878
(0.05599340777 0.01876262832 2.5e-05) 889
(0.05548101874 0.01718895652 2.5e-05) 879
(0.05447247785 0.02660187313 2.5e-05) 968
(0.05470259581 0.01935301079 2.5e-05) 898
(0.05592945685 0.01452588333 2.5e-05) 849
(0.05605938047 0.0209797834 2.5e-05) 909
(0.05304674961 0.02061490342 2.5e-05) 906
(0.05113809043 0.02437467612 2.5e-05) 944
(0.04999622304 0.02430122277 2.5e-05) 943
(0.05406946354 0.01894689256 2.5e-05) 887
(0.05095716363 0.01616378647 2.5e-05) 864
(0.05091788056 0.02058381217 2.5e-05) 904
(0.0521816328 0.02202947853 2.5e-05) 925
(0.05491717346 0.01756976967 2.5e-05) 878
(0.05454014466 0.02040682801 2.5e-05) 908
(0.05053411294 0.02482099995 2.5e-05) 944
(0.0558274847 0.02201788095 2.5e-05) 929
(0.05165956239 0.02067328123 2.5e-05) 905
(0.05578297749 0.01747715312 2.5e-05) 879
(0.0552792963 0.02003672596 2.5e-05) 908
(0.05568166992 0.02386188539 2.5e-05) 939
(0.0542992036 0.02280883889 2.5e-05) 927
(0.05012563266 0.01762129949 2.5e-05) 873
(0.05397193969 0.01466521857 2.5e-05) 847
(0.05588650433 0.02154284949 2.5e-05) 919
(0.04919018222 0.0214094621 2.5e-05) 912
(0.05258730508 0.01392914712 2.5e-05) 836
(0.05523990578 0.0161543976 2.5e-05) 868
(0.05416906278 0.02763694148 2.5e-05) 977
(0.05196286207 0.02315167855 2.5e-05) 935
(0.05246745628 0.02306004815 2.5e-05) 936
(0.0555645049 0.02206552331 2.5e-05) 929
(0.05230766595 0.02189772895 2.5e-05) 915
(0.05532665535 0.0204563972 2.5e-05) 908
(0.05162496197 0.02180758978 2.5e-05) 915
(0.04859895043 0.01805438805 2.5e-05) 882
(0.05498911694 0.02428475733 2.5e-05) 948
(0.05208866652 0.01792824131 2.5e-05) 875
(0.05515160596 0.02505326537 2.5e-05) 958
(0.04957628309 0.01306663762 2.5e-05) 833
(0.05281093711 0.02128565801 2.5e-05) 916
(0.05249804859 0.02397555103 2.5e-05) 936
(0.05423841142 0.02419064678 2.5e-05) 947
(0.05569441777 0.02486049365 2.5e-05) 949
(0.05590454887 0.0227132267 2.5e-05) 929
(0.05620878116 0.02350973998 2.5e-05) 939
(0.05438237491 0.02443839994 2.5e-05) 947
(0.05507297796 0.02576224001 2.5e-05) 958
(0.05287759297 0.02639998247 2.5e-05) 966
(0.05457886641 0.02247530582 2.5e-05) 928
(0.05167794055 0.0272264963 2.5e-05) 975
(0.05498743792 0.028507212 2.5e-05) 988
(0.05090707144 0.02638559836 2.5e-05) 964
(0.04929398042 0.0195921635 2.5e-05) 892
(0.05566901202 0.02314022837 2.5e-05) 939
(0.05575739181 0.02486534702 2.5e-05) 949
(0.05548419027 0.02375262348 2.5e-05) 939
(0.04630838552 0.02485259517 2.5e-05) 649
(0.05538004559 0.02758747491 2.5e-05) 978
(0.05416769599 0.02425406936 2.5e-05) 947
(0.05545789533 0.02142173901 2.5e-05) 919
(0.05542736374 0.02540223977 2.5e-05) 959
(0.05612367412 0.02107878982 2.5e-05) 919
(0.05389436842 0.01882616915 2.5e-05) 887
(0.05465797535 0.02272245709 2.5e-05) 928
(0.05639982946 0.02430665451 2.5e-05) 949
(0.05426750338 0.02526562977 2.5e-05) 957
(0.05239851122 0.01865375996 2.5e-05) 885
(0.04973005594 0.02351010437 2.5e-05) 933
(0.05431927504 0.02168431576 2.5e-05) 917
(0.05347099253 0.02176951857 2.5e-05) 917
(0.05368913371 0.02088821149 2.5e-05) 907
(0.05518605379 0.02641620358 2.5e-05) 968
(0.05519476907 0.02447923786 2.5e-05) 948
(0.05558616456 0.01993101213 2.5e-05) 899
(0.05522339744 0.01549087031 2.5e-05) 858
(0.05634934277 0.02382984907 2.5e-05) 939
(0.05492434575 0.01563254754 2.5e-05) 858
(0.05598944138 0.02667836027 2.5e-05) 969
(0.05339619001 0.02511096542 2.5e-05) 956
(0.05487314472 0.02219065218 2.5e-05) 928
(0.05377959196 0.02490041671 2.5e-05) 947
(0.0561397298 0.02296927452 2.5e-05) 929
(0.05140644155 0.02201204117 2.5e-05) 924
(0.04685649177 0.02823453775 2.5e-05) 980
(0.05130409938 0.02042325529 2.5e-05) 904
(0.05504855111 0.02380199566 2.5e-05) 938
(0.05321885015 0.02729772659 2.5e-05) 976
(0.05608835139 0.02009898341 2.5e-05) 909
(0.05355916776 0.02564523267 2.5e-05) 957
(0.05249549339 0.02334974737 2.5e-05) 936
(0.05167049102 0.02149588593 2.5e-05) 915
(0.05636832008 0.02223746261 2.5e-05) 929
(0.05529930508 0.02404406278 2.5e-05) 948
(0.05507591968 0.02382737046 2.5e-05) 938
(0.05519240451 0.0260428691 2.5e-05) 968
(0.05066347674 0.0222983353 2.5e-05) 924
(0.05469914672 0.02724861977 2.5e-05) 978
(0.05585354832 0.02101717368 2.5e-05) 919
(0.05203639512 0.02839952522 2.5e-05) 985
(0.05553942976 0.02365391084 2.5e-05) 939
(0.05464333254 0.02509841964 2.5e-05) 958
(0.05589581616 0.02838733082 2.5e-05) 989
(0.05327919316 0.02212771391 2.5e-05) 926
(0.05543471552 0.02604373687 2.5e-05) 969
(0.05539633319 0.02670223469 2.5e-05) 968
(0.05416368791 0.02738282981 2.5e-05) 977
(0.05626488327 0.02842203476 2.5e-05) 989
(0.05626672357 0.02907910588 2.5e-05) 999
(0.05563379022 0.0227760732 2.5e-05) 929
(0.05601306993 0.022096348 2.5e-05) 929
(0.05558703597 0.02610859745 2.5e-05) 969
(0.05412646419 0.01979032197 2.5e-05) 897
(0.05594301947 0.02727283007 2.5e-05) 979
(0.05570803819 0.0292940935 2.5e-05) 999
(0.0528322305 0.02396157232 2.5e-05) 936
(0.05455661025 0.0245546009 2.5e-05) 948
(0.04969624402 0.02938218282 2.5e-05) 993
(0.04788382392 0.02774026446 2.5e-05) 971
(0.05202334917 0.02153258522 2.5e-05) 915
(0.05344230966 0.02799040802 2.5e-05) 977
(0.04672821125 0.02515207574 2.5e-05) 950
(0.05492514376 0.02476274564 2.5e-05) 948
(0.05114889393 0.02035128317 2.5e-05) 904
(0.0553972943 0.02273280674 2.5e-05) 928
(0.05390814483 0.02816012064 2.5e-05) 987
(0.05328199042 0.02236252313 2.5e-05) 926
(0.04770504677 0.02181544635 2.5e-05) 911
(0.05509679814 0.02546512966 2.5e-05) 958
(0.05344895091 0.02765657717 2.5e-05) 977
(0.05360273015 0.02899060208 2.5e-05) 987
(0.05230121629 0.0223454549 2.5e-05) 925
(0.05173043798 0.02418790443 2.5e-05) 945
(0.05201551144 0.02244529793 2.5e-05) 925
(0.05523602947 0.02836034184 2.5e-05) 988
(0.05414589325 0.02876826239 2.5e-05) 987
(0.05587156276 0.02637816757 2.5e-05) 969
(0.0558633792 0.02380007295 2.5e-05) 939
(0.05343352376 0.02939703346 2.5e-05) 997
(0.05631739298 0.02373202424 2.5e-05) 939
(0.05602767283 0.02801126704 2.5e-05) 989
(0.05596307844 0.02615585448 2.5e-05) 969
(0.05342921962 0.02892190239 2.5e-05) 987
(0.0554416605 0.02641869353 2.5e-05) 969
(0.05572810176 0.02646665592 2.5e-05) 969
(0.05602476825 0.02633977322 2.5e-05) 969
(0.05584065321 0.02413864077 2.5e-05) 949
(0.05465182429 0.02405688064 2.5e-05) 948
(0.05587421493 0.02724837077 2.5e-05) 979
(0.05581153284 0.02280205097 2.5e-05) 929
(0.0563316854 0.02869210694 2.5e-05) 989
(0.05545388605 0.02658830732 2.5e-05) 969
(0.04986714168 0.02613082317 2.5e-05) 963
(0.05593712855 0.02833810572 2.5e-05) 989
(0.05124896357 0.02799969557 2.5e-05) 974
(0.05567443959 0.02575182689 2.5e-05) 959
(0.05323976193 0.02802104627 2.5e-05) 986
(0.04568970212 0.02560994435 2.5e-05) 679
(0.05283249174 0.02925787136 2.5e-05) 996
(0.05403952781 0.02582142095 2.5e-05) 957
(0.05357115079 0.02642443403 2.5e-05) 967
(0.05224445802 0.02581109685 2.5e-05) 955
(0.05477245279 0.02568197687 2.5e-05) 958
(0.05479823639 0.02927132311 2.5e-05) 998
(0.05314194792 0.02415012522 2.5e-05) 946
(0.05305147486 0.02789064112 2.5e-05) 976
(0.05346351538 0.02565037549 2.5e-05) 957
(0.04899746979 0.02294041945 2.5e-05) 922
(0.05465332635 0.02866135183 2.5e-05) 988
(0.05476526647 0.02823497385 2.5e-05) 988
(0.05448467253 0.02777989032 2.5e-05) 978
(0.05284112766 0.02587721141 2.5e-05) 956
(0.05581763105 0.02464765197 2.5e-05) 949
(0.05496417872 0.0265878659 2.5e-05) 968
(0.05495019734 0.02769146456 2.5e-05) 978
(0.05626096278 0.02853258173 2.5e-05) 989
(0.05627298522 0.02824586143 2.5e-05) 989
(0.05563903698 0.02916650094 2.5e-05) 999
(0.05190473413 0.02632025628 2.5e-05) 965
(0.05350075721 0.0284900774 2.5e-05) 987
(0.0516448338 0.02982470592 2.5e-05) 995
(0.05317538899 0.0267559434 2.5e-05) 966
(0.04836359372 0.02335241868 2.5e-05) 931
(0.05321197443 0.02976790452 2.5e-05) 996
(0.05151541684 0.02643350252 2.5e-05) 965
(0.05089037044 0.02587639344 2.5e-05) 954
(0.05282483577 0.02825731839 2.5e-05) 986
(0.05570028605 0.02938104655 2.5e-05) 999
(0.05394955939 0.02941183069 2.5e-05) 997
(0.05386535035 0.02647255504 2.5e-05) 967
(0.05506424876 0.02593305664 2.5e-05) 958
(0.05509715674 0.02565676335 2.5e-05) 958
(0.05392201852 0.02628916624 2.5e-05) 967
(0.0553833865 0.02762851986 2.5e-05) 978
(0.05487734494 0.02610595764 2.5e-05) 968
(0.05603242708 0.02661828038 2.5e-05) 969
(0.05492155393 0.02660660823 2.5e-05) 968
(0.05528756471 0.02607778294 2.5e-05) 968
(0.05486965907 0.02864815037 2.5e-05) 988
(0.05531830252 0.02876375461 2.5e-05) 988
(0.04707215963 0.02847830439 2.5e-05) 980
(0.05323229438 0.02958899116 2.5e-05) 996
(0.04818693236 0.02834475957 2.5e-05) 981
(0.05508338573 0.02932684838 2.5e-05) 998
(0.05405017194 0.02969427953 2.5e-05) 997
(0.05569612946 0.02800057457 2.5e-05) 989
(0.05541630731 0.02699506341 2.5e-05) 968
(0.0523593716 0.02617089528 2.5e-05) 965
(0.05161637963 0.02891310378 2.5e-05) 985
(0.05079256138 0.02824703488 2.5e-05) 984
(0.05025416163 0.02622222872 2.5e-05) 963
(0.0514887473 0.0286492377 2.5e-05) 985
(0.05230796113 0.02698660181 2.5e-05) 965
(0.05476324414 0.02931011868 2.5e-05) 998
(0.05019375391 0.02459776182 2.5e-05) 943
(0.05356053149 0.02817084255 2.5e-05) 987
(0.05575482304 0.02868336491 2.5e-05) 989
(0.05431516113 0.02569637729 2.5e-05) 957
(0.05570707595 0.02934675841 2.5e-05) 999
(0.05603097161 0.02851894248 2.5e-05) 989
(0.05094422262 0.02459698623 2.5e-05) 944
(0.05065511332 0.02625641153 2.5e-05) 964
(0.05431665279 0.02699818809 2.5e-05) 967
(0.05022977832 0.02915123708 2.5e-05) 993
(0.05035991048 0.02589469435 2.5e-05) 953
(0.05075252112 0.0284843977 2.5e-05) 984
(0.05223634996 0.02887451016 2.5e-05) 985
(0.05105160077 0.02667452187 2.5e-05) 964
(0.05468167956 0.02774807063 2.5e-05) 978
(0.05313640447 0.02579338037 2.5e-05) 956
(0.04807785142 0.02784730801 2.5e-05) 971
(0.05424516675 0.02920269058 2.5e-05) 997
(0.05524613472 0.02891079788 2.5e-05) 988
(0.05603684161 0.02272910729 2.5e-05) 929
(0.05467428318 0.02534843182 2.5e-05) 958
(0.05440300781 0.02939671937 2.5e-05) 997
(0.05417505184 0.02926683946 2.5e-05) 997
(0.05303847181 0.02787877643 2.5e-05) 976
(0.05420256321 0.02646591945 2.5e-05) 967
(0.05408269689 0.02940713472 2.5e-05) 997
(0.05198649968 0.02714518567 2.5e-05) 975
(0.04707480546 0.02750941676 2.5e-05) 970
(0.05517349679 0.02690880874 2.5e-05) 968
(0.05373248532 0.026746521 2.5e-05) 967
(0.05389542813 0.02886994404 2.5e-05) 987
(0.05482336609 0.02675616564 2.5e-05) 968
(0.05572223163 0.02829918161 2.5e-05) 989
(0.04916618925 0.02893785493 2.5e-05) 982
(0.04969752416 0.02909696738 2.5e-05) 993
(0.05244624485 0.02957684287 2.5e-05) 996
(0.05553128682 0.02977337839 2.5e-05) 999
(0.0534632894 0.02792333582 2.5e-05) 977
(0.05407363315 0.02978145596 2.5e-05) 997
(0.05018987018 0.02635874129 2.5e-05) 963
(0.05511907601 0.02916744911 2.5e-05) 998
(0.05547331615 0.02985508689 2.5e-05) 999
(0.04861959742 0.02931456521 2.5e-05) 992
(0.05371721274 0.02684835477 2.5e-05) 967
(0.05395745563 0.02446377445 2.5e-05) 947
(0.0554456624 0.02946336988 2.5e-05) 999
(0.053777533 0.01337215381 2.5e-05) 837
(0.05469290327 0.01463159344 2.5e-05) 848
(0.05372253434 0.01329040223 2.5e-05) 837
(0.05410762105 0.01094752148 2.5e-05) 807
(0.05566709422 0.01222707592 2.5e-05) 829
(0.05608062224 0.01479955407 2.5e-05) 849
(0.05501818148 0.01348501739 2.5e-05) 838
(0.04276040773 0.01082901281 2.5e-05) 226
(0.05406583663 0.01369964686 2.5e-05) 837
(0.04878224555 0.01602776539 2.5e-05) 862
(0.05639315282 0.01261530687 2.5e-05) 829
(0.05438193849 0.0117696463 2.5e-05) 817
(0.05605395264 0.01371708384 2.5e-05) 839
(0.05266608216 0.01129838287 2.5e-05) 816
(0.05548093827 0.01361283678 2.5e-05) 839
(0.05633216258 0.01318941351 2.5e-05) 839
(0.05436981455 0.02506650567 2.5e-05) 957
(0.02887101046 0.007701005885 2.5e-05) 1224
(0.04457876984 0.01313889471 2.5e-05) 318
(0.0274904278 0.008013703688 2.5e-05) 1253
(0.01972378066 0.006404065522 2.5e-05) 1186
(0.03964222052 0.008737704737 2.5e-05) 1264
(0.04390961109 0.006747921122 2.5e-05) 1207
(0.03049014588 0.008526379233 2.5e-05) 1256
(0.04264864654 0.002169961897 2.5e-05) 1086
(0.03207637535 0.008624759871 2.5e-05) 1257
(0.03733687504 0.005805570234 2.5e-05) 1171
(0.0331238007 0.005952267084 2.5e-05) 1168
(0.04419083134 0.001728250747 2.5e-05) 1057
(0.04130358405 0.01181361231 2.5e-05) 255
(0.038924175 0.001935281658 2.5e-05) 1052
(0.03968591765 0.00668801376 2.5e-05) 1204
(0.0438605512 0.005404465686 2.5e-05) 1177
(0.04098820488 0.004740830495 2.5e-05) 1145
(0.03821072341 0.006606630203 2.5e-05) 1202
(0.04192838399 0.004831861157 2.5e-05) 1145
(0.0556218524 0.01291570327 2.5e-05) 829
(0.03765868534 0.01082725495 2.5e-05) 222
(0.03922209945 0.005671120132 2.5e-05) 1173
(0.0470241801 0.01165103628 2.5e-05) 810
(0.04071681915 0.007453697426 2.5e-05) 1235
(0.04189383075 0.004857198679 2.5e-05) 1145
(0.03804066324 0.002139512527 2.5e-05) 1081
(0.04267590682 0.00392114219 2.5e-05) 1116
(0.03763834204 0.005438063909 2.5e-05) 1172
(0.04584499794 0.00810028715 2.5e-05) 1269
(0.04238579447 0.001899055411 2.5e-05) 1056
(0.0455140259 0.002817908794 2.5e-05) 1089
(0.03811870529 0.006165131889 2.5e-05) 1202
(0.03423067889 0.008038933478 2.5e-05) 1259
(0.02009814575 0.007661075526 2.5e-05) 1217
(0.03004620258 0.01091302817 2.5e-05) 216
(0.0387426489 0.005423979673 2.5e-05) 1173
(0.03616057405 0.006995032064 2.5e-05) 1201
(0.0267671725 0.006102253141 2.5e-05) 1192
(0.04394027271 0.004418630718 2.5e-05) 1147
(0.03051771352 0.008858338608 2.5e-05) 1256
(0.04616912483 0.01131893266 2.5e-05) 259
(0.04135457459 0.004094822633 2.5e-05) 1145
(0.04028061494 0.0150302614 2.5e-05) 374
(0.04326916319 0.004713311381 2.5e-05) 1147
(0.03637495155 0.01288199521 2.5e-05) 281
(0.04520341458 0.009463572299 2.5e-05) 1298
(0.05563479569 0.01175253506 2.5e-05) 819
(0.04484112095 0.01036631632 2.5e-05) 228
(0.04971975732 0.01155377734 2.5e-05) 813
(0.05571720384 0.0173290635 2.5e-05) 879
(0.03844928058 0.008347992913 2.5e-05) 1263
(0.0412325373 0.008041340857 2.5e-05) 1265
(0.04530777641 0.007605248241 2.5e-05) 1239
(0.04836873125 0.01119453249 2.5e-05) 811
(0.02773001427 0.005806467621 2.5e-05) 1163
(0.04363720272 0.004407746 2.5e-05) 1147
(0.03938962455 0.005784594411 2.5e-05) 1173
(0.04371218838 0.002840771091 2.5e-05) 1087
(0.04079993186 0.007528973744 2.5e-05) 1235
(0.04941644471 0.01479879248 2.5e-05) 842
(0.04345985717 0.007703115932 2.5e-05) 1237
(0.03908089137 0.01035200653 2.5e-05) 223
(0.04088270922 0.008080091041 2.5e-05) 1265
(0.02716765027 0.003804649154 2.5e-05) 1102
(0.04311797385 0.01046036161 2.5e-05) 227
(0.04427032238 0.00743188033 2.5e-05) 1238
(0.04593387418 0.01046817376 2.5e-05) 229
(0.03798790348 0.01483807705 2.5e-05) 343
(0.05053259998 0.01210947671 2.5e-05) 824
(0.04172490293 0.006880168432 2.5e-05) 1205
(0.04178230033 0.009253820697 2.5e-05) 1296
(0.05614334484 0.0111018685 2.5e-05) 819
(0.04651792951 0.01054691558 2.5e-05) 800
(0.03620836295 0.005397762279 2.5e-05) 1170
(0.04477051339 0.01346606722 2.5e-05) 318
(0.05617849733 0.01321482326 2.5e-05) 839
(0.05437379852 0.01114854076 2.5e-05) 817
(0.04522349178 0.01269079718 2.5e-05) 289
(0.04578268503 0.008655495773 2.5e-05) 1269
(0.04172552536 0.006930306568 2.5e-05) 1205
(0.04109602797 0.01383874892 2.5e-05) 315
(0.04409870102 0.01197791741 2.5e-05) 258
(0.05313733304 0.01406020752 2.5e-05) 846
(0.04655924468 0.01280334592 2.5e-05) 820
(0.0397345572 0.01044859997 2.5e-05) 224
(0.03726876466 0.005042084807 2.5e-05) 1171
(0.02451570817 0.009462628324 2.5e-05) 1281
(0.05013346116 0.01090746202 2.5e-05) 803
(0.04733911013 0.01153603217 2.5e-05) 810
(0.05191722201 0.01137435957 2.5e-05) 815
(0.04102129132 0.01071410771 2.5e-05) 225
(0.05605093871 0.01515468463 2.5e-05) 859
(0.04453471377 0.01244185663 2.5e-05) 288
(0.03884929676 0.006018782995 2.5e-05) 1203
(0.03384866544 0.004025330191 2.5e-05) 1138
(0.04457413002 0.01224614426 2.5e-05) 288
(0.03256359583 0.01091978722 2.5e-05) 218
(0.04273070985 0.0046815574 2.5e-05) 1146
(0.05324857971 0.01449235129 2.5e-05) 846
(0.05609556223 0.01534806542 2.5e-05) 859
(0.04402683051 0.006103184152 2.5e-05) 1207
(0.04454026094 0.004726305078 2.5e-05) 1148
(0.04938647944 0.0131656927 2.5e-05) 832
(0.04769213267 0.0106731758 2.5e-05) 801
(0.04224767822 0.01564227444 2.5e-05) 376
(0.04442935604 0.006748882019 2.5e-05) 1208
(0.04604694983 0.00414533139 2.5e-05) 1149
(0.05455018264 0.01281036509 2.5e-05) 828
(0.04217920048 0.009879601946 2.5e-05) 1296
(0.05584079986 0.01400219342 2.5e-05) 849
(0.0541089478 0.0126833017 2.5e-05) 827
(0.05583917489 0.01442513496 2.5e-05) 849
(0.05541359887 0.01511123198 2.5e-05) 858
(0.05566722774 0.01441831471 2.5e-05) 849
(0.04488607895 0.009740797971 2.5e-05) 1298
(0.04503853614 0.01051440703 2.5e-05) 228
(0.04724920906 0.01096523796 2.5e-05) 800
(0.05611008216 0.01500174081 2.5e-05) 859
(0.04546840994 0.01092853989 2.5e-05) 229
(0.05198261804 0.01318803477 2.5e-05) 835
(0.05042813811 0.0101912791 2.5e-05) 804
(0.03975590945 0.01206781513 2.5e-05) 284
(0.05420827845 0.01464017064 2.5e-05) 847
(0.05346708183 0.0107980657 2.5e-05) 807
(0.05340860143 0.01329960843 2.5e-05) 836
(0.03984874301 0.01045359025 2.5e-05) 224
(0.04479556969 0.01026159389 2.5e-05) 228
(0.04373864792 0.006504311897 2.5e-05) 1207
(0.03626611728 0.006446759824 2.5e-05) 1201
(0.04354496765 0.01058963669 2.5e-05) 227
(0.05585329152 0.01025339127 2.5e-05) 809
(0.04613747002 0.01246538117 2.5e-05) 289
(0.04776707636 0.01103586113 2.5e-05) 811
(0.0549025822 0.01047878127 2.5e-05) 808
(0.04191339149 0.005879418894 2.5e-05) 1175
(0.05234636044 0.01107374222 2.5e-05) 815
(0.05535687733 0.01331645562 2.5e-05) 838
(0.04640933754 0.00581908232 2.5e-05) 1179
(0.04774515122 0.01364822894 2.5e-05) 831
(0.05083528641 0.01157036666 2.5e-05) 814
(0.04940724748 0.01273521057 2.5e-05) 822
(0.05444960476 0.01224557753 2.5e-05) 828
(0.05611107557 0.01462094073 2.5e-05) 849
(0.05477215922 0.01757901208 2.5e-05) 878
(0.05576396216 0.01420804084 2.5e-05) 849
(0.04701893902 0.01176716708 2.5e-05) 810
(0.05356838096 0.01180028506 2.5e-05) 817
(0.05218473435 0.01308510486 2.5e-05) 835
(0.03818074077 0.00971513216 2.5e-05) 1293
(0.05446143772 0.0147667364 2.5e-05) 848
(0.05631453223 0.01155683469 2.5e-05) 819
(0.05193681839 0.01107039634 2.5e-05) 815
(0.05596549742 0.01537548393 2.5e-05) 859
(0.05601167378 0.01574744759 2.5e-05) 859
(0.05399969895 0.01415183926 2.5e-05) 847
(0.05533646157 0.01282485709 2.5e-05) 828
(0.05090231775 0.01294366099 2.5e-05) 824
(0.0529397831 0.01475872249 2.5e-05) 846
(0.05401109044 0.01638601825 2.5e-05) 867
(0.05438235619 0.01423306951 2.5e-05) 847