/*--------------------------------*- C++ -*----------------------------------*\
| =========                 |                                                 |
| \\      /  F ield         | OpenFOAM: The Open Source CFD Toolbox           |
|  \\    /   O peration     | Version:  v1912                                 |
|   \\  /    A nd           | Website:  www.openfoam.com                      |
|    \\/     M anipulation  |                                                 |
\*---------------------------------------------------------------------------*/
FoamFile
{
    version     2.0;
    format      ascii;
    class       volScalarField;
    location    "5.12";
    object      p;
}
// * * * * * * * * * * * * * * * * * * * * * * * * * * * * * * * * * * * * * //

dimensions      [1 -1 -2 0 0 0 0];


internalField   nonuniform List<scalar> 
1900
(
35647.8
11475.1
9911.75
9798.98
9637.73
9487.63
9354.94
9243.36
9189.58
9120.83
35647.9
11475
9911.97
9798.76
9637.58
9487.5
9354.16
9247.11
9175.36
9107.06
35647.9
11475
9911.97
9798.69
9637.77
9487.76
9353.43
9243.67
9168.23
9102.51
35647.9
11475
9911.97
9798.76
9637.58
9487.5
9354.16
9247.11
9175.36
9107.06
35647.8
11475.1
9911.75
9798.98
9637.73
9487.63
9354.94
9243.36
9189.58
9120.83
9215.58
9057
8965.01
8749.95
8923.84
9075.2
8955.29
8867.06
8635.94
8419.29
9056.29
8936.85
8845.59
8654.11
8505.69
9075.2
8955.29
8867.06
8635.94
8419.29
9215.58
9057
8965.01
8749.95
8923.84
4925.09
4271.64
4000.49
3586
3049.86
5397.38
4423.15
4095.85
3662.27
3160.8
5472.99
4376.48
4031.49
3616.85
3115.76
5397.38
4423.15
4095.85
3662.27
3160.8
4925.09
4271.64
4000.49
3586
3049.86
1901.71
1340.05
1663.16
1966.79
1967.16
1778.16
1559.19
1402.59
1301.11
1215.65
1133.12
1056.69
997.128
960.013
938.314
923.552
911.534
901.083
892.111
884.558
878.463
873.679
869.979
867.292
865.449
864.312
863.743
863.765
864.41
866.435
869.496
875.506
882.447
893.221
903.444
920.866
937.399
973.615
1101.7
2778.58
2073.03
1397.92
1648.95
1983.32
1999.06
1800.59
1568.09
1405.2
1302.15
1216.22
1133.95
1057.16
997.274
959.985
938.266
923.511
911.499
901.05
892.073
884.516
878.418
873.633
869.932
867.244
865.402
864.264
863.695
863.714
864.358
866.382
869.442
875.464
882.408
893.21
903.397
920.912
937.342
973.901
1101.6
2779.8
2092.61
1352.35
1615.39
2020.65
2033.95
1813.41
1571.55
1406.08
1302.51
1216.42
1134.31
1057.33
997.327
959.978
938.252
923.502
911.492
901.044
892.065
884.506
878.407
873.62
869.919
867.231
865.388
864.249
863.679
863.697
864.341
866.365
869.427
875.456
882.405
893.232
903.44
921.035
937.551
974.425
1101.79
2788.06
2073.03
1397.92
1648.95
1983.32
1999.06
1800.59
1568.09
1405.2
1302.15
1216.22
1133.95
1057.16
997.274
959.985
938.266
923.511
911.499
901.05
892.073
884.516
878.418
873.633
869.932
867.244
865.402
864.264
863.695
863.714
864.358
866.382
869.442
875.464
882.408
893.21
903.397
920.912
937.342
973.901
1101.6
2779.8
1901.71
1340.05
1663.16
1966.79
1967.16
1778.16
1559.19
1402.59
1301.11
1215.65
1133.12
1056.69
997.128
960.013
938.314
923.552
911.534
901.083
892.111
884.558
878.463
873.679
869.979
867.292
865.449
864.312
863.743
863.765
864.41
866.435
869.496
875.506
882.447
893.221
903.444
920.866
937.399
973.615
1101.7
2778.58
1591.75
1305.88
1609.14
1841.66
1855.33
1708.64
1531.45
1390.73
1295.26
1211.62
1129.07
1053.88
996.051
959.884
938.383
923.617
911.588
901.153
892.209
884.681
878.603
873.828
870.129
867.441
865.596
864.459
863.888
863.913
864.557
866.579
869.63
875.584
882.498
893.171
903.517
920.649
937.721
972.149
1103.5
2898.94
1693
1215.98
1404.85
1644.4
1661.28
1573.56
1460.3
1358.87
1278.88
1200.08
1119.36
1047.55
993.538
959.48
938.499
923.751
911.711
901.324
892.453
884.988
878.952
874.198
870.506
867.819
865.974
864.839
864.272
864.313
864.964
866.989
870.015
875.86
882.701
893.161
903.641
920.414
938.039
969.457
1101.15
2756.12
1692.84
1136.57
1313.35
1484.52
1502.81
1457.68
1387.14
1319.11
1254.41
1182.69
1105.82
1039.25
990.035
958.68
938.524
923.897
911.896
901.598
892.837
885.463
879.49
874.769
871.089
868.406
866.565
865.44
864.883
864.955
865.625
867.664
870.663
876.351
883.105
893.285
903.915
920.277
938.155
966.713
1099.73
2724.11
1758.02
1098.26
1253.9
1358.8
1378.73
1360.94
1322.33
1279.68
1226.58
1161.3
1089.77
1029.83
985.94
957.503
938.352
923.965
912.078
901.915
893.298
886.04
880.146
875.468
871.808
869.138
867.313
866.213
865.68
865.808
866.517
868.587
871.564
877.081
883.733
893.621
904.314
920.318
937.997
965.386
1102.14
2694.89
1844.34
1075.96
1214.82
1262.11
1292.78
1288.32
1269.17
1240.99
1196.61
1137.03
1072.65
1019.84
981.599
956.011
937.944
923.911
912.227
902.249
893.804
886.678
880.875
876.253
872.624
869.983
868.193
867.139
866.651
866.866
867.637
869.757
872.715
878.044
884.569
894.15
904.814
920.419
937.536
964.798
1102.6
2660.09
1918.88
1054.63
1171.13
1190.34
1235.26
1235.56
1228.09
1206.71
1167.13
1112.52
1055.99
1010.41
977.408
954.433
937.422
923.811
912.367
902.605
894.341
887.352
881.648
877.093
873.515
870.928
869.205
868.233
867.826
868.183
869.058
871.267
874.244
879.418
885.852
895.19
905.853
921.212
937.803
965.66
1104.82
2616.52
1971.63
1034.31
1139.92
1156.41
1197.9
1196.97
1192.96
1173.56
1136.64
1087.92
1039.81
1001.44
973.225
952.652
936.714
923.607
912.452
902.937
894.868
888.023
882.428
877.953
874.44
871.927
870.291
869.419
869.106
869.615
870.584
872.856
875.805
880.77
887.037
896.042
906.562
921.601
937.444
966.361
1105.36
2571.07
2007.09
1019.9
1111.92
1128.76
1168.88
1165.98
1162.08
1142.8
1108.12
1065.95
1025.98
994.136
969.96
951.404
936.372
923.693
912.836
903.545
895.655
888.943
883.457
879.076
875.656
873.256
871.751
871.015
870.84
871.569
872.669
875.023
877.96
882.726
888.822
897.531
907.973
922.83
938.296
968.141
1106.61
2518.04
2051.76
1009.87
1092.57
1110.4
1145.7
1139.65
1133.08
1113.22
1081.62
1046.34
1013.79
987.587
966.841
950.098
935.932
923.772
913.315
904.321
896.636
890.069
884.702
880.425
877.105
874.815
873.429
872.804
872.73
873.65
874.809
877.156
879.97
884.417
890.195
898.495
908.7
923.237
938.248
969.281
1106.53
2465.3
2066.51
1003.73
1078.2
1094.41
1123.74
1114.61
1105.18
1085.84
1058.49
1030.22
1004.3
982.868
964.972
949.796
936.631
925.167
915.133
906.423
898.934
892.506
887.259
883.087
879.864
877.669
876.359
875.817
875.808
876.844
877.992
880.244
882.835
886.859
892.194
899.986
909.887
924.034
938.728
970.522
1105.84
2405.08
2077.02
999.869
1068.5
1080.99
1103.02
1091.66
1080.01
1062.52
1039.86
1017.78
997.209
979.488
963.822
950.049
937.933
927.113
917.576
909.219
901.98
895.728
890.624
886.572
883.441
881.319
880.05
879.566
879.592
880.674
881.743
883.823
886.108
889.618
894.362
901.502
910.968
924.741
938.96
971.232
1104.35
2347.42
2048.51
995.64
1059.13
1067.27
1082.09
1070
1057.85
1043.31
1025.42
1008.74
992.573
978.095
964.747
952.672
941.511
931.501
922.57
914.677
907.776
901.747
896.784
892.788
889.632
887.438
886.068
885.478
885.353
886.332
887.128
888.846
890.638
893.462
897.424
903.771
912.717
926.088
940.035
972.734
1102.36
2276.42
2022.47
991.819
1050.91
1054.49
1062.81
1051.76
1040.87
1029.75
1016.03
1003.51
990.723
978.936
967.418
956.47
946.263
936.891
928.421
920.882
914.259
908.441
903.648
899.774
896.685
894.526
893.166
892.585
892.403
893.37
893.93
895.314
896.602
898.734
901.834
907.29
915.623
928.503
941.873
974.603
1099.65
2216.88
1960.54
989.735
1045.45
1045.33
1047.92
1038.37
1029.16
1021.11
1010.99
1002.11
992.486
982.833
972.838
963.262
954.034
945.432
937.57
930.534
924.314
918.763
914.088
910.178
906.952
904.63
903.102
902.42
902.032
902.794
903.014
904.012
904.747
906.159
908.353
912.89
920.637
933.209
946.176
979.304
1097.44
2137.87
1924.35
991.519
1043.2
1040.13
1037.82
1030.05
1023.52
1018.79
1012.2
1005.67
997.351
989.25
980.447
971.769
963.132
954.887
947.196
940.232
934.069
928.631
924.198
920.601
917.654
915.544
914.148
913.594
913.199
913.977
914.066
914.888
915.313
916.296
917.91
921.969
929.628
942.643
955.458
988.866
1099.86
2089.23
1869.8
1001.23
1049.4
1044.08
1039.59
1033.84
1029.27
1025.77
1020.77
1015.69
1008.81
1001.85
993.877
986.08
978.08
970.398
963.21
956.748
951.055
945.932
941.55
937.747
934.495
932.123
930.467
929.758
929.134
929.719
929.535
930.021
930.127
930.684
931.735
935.407
942.963
957.046
970.786
1006.31
1105.45
2034.08
1889.9
1020.27
1061.71
1053.4
1046.65
1041.68
1039.19
1036.85
1033.46
1029.22
1022.81
1016.74
1009.44
1002.54
995.268
988.262
981.46
974.857
968.535
962.85
958.801
956.069
953.655
951.396
949.259
948.063
946.753
946.884
946.14
946.306
946.059
946.365
946.798
949.968
957.046
972.046
986.176
1022.97
1115.72
2055.33
1956.52
1059.12
1095.28
1083.28
1074.61
1069.37
1068.18
1065.93
1063.1
1058.97
1052.86
1046.45
1038.56
1030.94
1023
1016.02
1010.27
1005.92
1002.57
998.919
994.783
990.052
985.102
981.55
979.154
978.813
978.716
979.733
980.094
980.976
981.332
982.171
982.711
986.109
993.403
1010.78
1027.71
1064.46
1138.53
2084.33
4735.12
1366.72
1260.97
1237.46
1239.78
1239.73
1244.29
1243.45
1241.4
1235.78
1228.69
1219.43
1208.56
1196.62
1183.64
1170.59
1157.73
1145.28
1137.04
1129.74
1125.98
1125.97
1124.17
1127.66
1127.63
1130.71
1131.95
1134.04
1134.56
1134.6
1133.55
1131.56
1128.46
1125.38
1126.35
1133.47
1146.72
1164.22
1391.63
4604.29
46459.3
4971.36
2536.68
2484.08
2502.26
2574.81
2631.34
2696.3
2739.94
2774.57
2802.53
2817.97
2831.49
2836.96
2840.45
2839.07
2837.18
2831.38
2827.12
2817.51
2808.13
2793.82
2781.51
2741.56
2705.81
2661.44
2618.3
2563.34
2510.35
2446.39
2384.95
2307.52
2238.68
2146.25
2082.02
2011.36
2023.32
2036.91
4423.21
41964.6
46459.3
4971.36
2536.68
2484.08
2502.26
2574.81
2631.34
2696.3
2739.94
2774.57
2802.53
2817.97
2831.49
2836.96
2840.45
2839.07
2837.18
2831.38
2827.12
2817.51
2808.13
2793.82
2781.51
2741.56
2705.81
2661.44
2618.3
2563.34
2510.35
2446.39
2384.95
2307.52
2238.68
2146.25
2082.02
2011.36
2023.32
2036.91
4423.21
41964.6
4735.12
1366.72
1260.97
1237.46
1239.78
1239.73
1244.29
1243.45
1241.4
1235.78
1228.69
1219.43
1208.56
1196.62
1183.64
1170.59
1157.73
1145.28
1137.04
1129.74
1125.98
1125.97
1124.17
1127.66
1127.63
1130.71
1131.95
1134.04
1134.56
1134.6
1133.55
1131.56
1128.46
1125.38
1126.35
1133.47
1146.72
1164.22
1391.63
4604.29
1956.52
1059.12
1095.28
1083.28
1074.61
1069.37
1068.18
1065.93
1063.1
1058.97
1052.86
1046.45
1038.56
1030.94
1023
1016.02
1010.27
1005.92
1002.57
998.919
994.783
990.052
985.102
981.55
979.154
978.813
978.716
979.733
980.094
980.976
981.332
982.171
982.711
986.109
993.403
1010.78
1027.71
1064.46
1138.53
2084.33
1889.9
1020.27
1061.71
1053.4
1046.65
1041.68
1039.19
1036.85
1033.46
1029.22
1022.81
1016.74
1009.44
1002.54
995.268
988.262
981.46
974.857
968.535
962.85
958.801
956.069
953.655
951.396
949.259
948.063
946.753
946.884
946.14
946.306
946.059
946.365
946.798
949.968
957.046
972.046
986.176
1022.97
1115.72
2055.33
1869.8
1001.23
1049.4
1044.08
1039.59
1033.84
1029.27
1025.77
1020.77
1015.69
1008.81
1001.85
993.877
986.08
978.08
970.398
963.21
956.748
951.055
945.932
941.55
937.747
934.495
932.123
930.467
929.758
929.134
929.719
929.535
930.021
930.127
930.684
931.735
935.407
942.963
957.046
970.786
1006.31
1105.45
2034.08
1924.35
991.519
1043.2
1040.13
1037.82
1030.05
1023.52
1018.79
1012.2
1005.67
997.351
989.25
980.447
971.769
963.132
954.887
947.196
940.232
934.069
928.631
924.198
920.601
917.654
915.544
914.148
913.594
913.199
913.977
914.066
914.888
915.313
916.296
917.91
921.969
929.628
942.643
955.458
988.866
1099.86
2089.23
1960.54
989.735
1045.45
1045.33
1047.92
1038.37
1029.16
1021.11
1010.99
1002.11
992.486
982.833
972.838
963.262
954.034
945.432
937.57
930.534
924.314
918.763
914.088
910.178
906.952
904.63
903.102
902.42
902.032
902.794
903.014
904.012
904.747
906.159
908.353
912.89
920.637
933.209
946.176
979.304
1097.44
2137.87
2022.47
991.819
1050.91
1054.49
1062.81
1051.76
1040.87
1029.75
1016.03
1003.51
990.723
978.936
967.418
956.47
946.263
936.891
928.421
920.882
914.259
908.441
903.648
899.774
896.685
894.526
893.166
892.585
892.403
893.37
893.93
895.314
896.602
898.734
901.834
907.29
915.623
928.503
941.873
974.603
1099.65
2216.88
2048.51
995.64
1059.13
1067.27
1082.09
1070
1057.85
1043.31
1025.42
1008.74
992.573
978.095
964.747
952.672
941.511
931.501
922.57
914.677
907.776
901.747
896.784
892.788
889.632
887.438
886.068
885.478
885.353
886.332
887.128
888.846
890.638
893.462
897.424
903.771
912.717
926.088
940.035
972.734
1102.36
2276.42
2077.02
999.869
1068.5
1080.99
1103.02
1091.66
1080.01
1062.52
1039.86
1017.78
997.209
979.488
963.822
950.049
937.933
927.113
917.576
909.219
901.98
895.728
890.624
886.572
883.441
881.319
880.05
879.566
879.592
880.674
881.743
883.823
886.108
889.618
894.362
901.502
910.968
924.741
938.96
971.232
1104.35
2347.42
2066.51
1003.73
1078.2
1094.41
1123.74
1114.61
1105.18
1085.84
1058.49
1030.22
1004.3
982.868
964.972
949.796
936.631
925.167
915.133
906.423
898.934
892.506
887.259
883.087
879.864
877.669
876.359
875.817
875.808
876.844
877.992
880.244
882.835
886.859
892.194
899.986
909.887
924.034
938.728
970.522
1105.84
2405.08
2051.76
1009.87
1092.57
1110.4
1145.7
1139.65
1133.08
1113.22
1081.62
1046.34
1013.79
987.587
966.841
950.098
935.932
923.772
913.315
904.321
896.636
890.069
884.702
880.425
877.105
874.815
873.429
872.804
872.73
873.65
874.809
877.156
879.97
884.417
890.195
898.495
908.7
923.237
938.248
969.281
1106.53
2465.3
2007.09
1019.9
1111.92
1128.76
1168.88
1165.98
1162.08
1142.8
1108.12
1065.95
1025.98
994.136
969.96
951.404
936.372
923.693
912.836
903.545
895.655
888.943
883.457
879.076
875.656
873.256
871.751
871.015
870.84
871.569
872.669
875.023
877.96
882.726
888.822
897.531
907.973
922.83
938.296
968.141
1106.61
2518.04
1971.63
1034.31
1139.92
1156.41
1197.9
1196.97
1192.96
1173.56
1136.64
1087.92
1039.81
1001.44
973.225
952.652
936.714
923.607
912.452
902.937
894.868
888.023
882.428
877.953
874.44
871.927
870.291
869.419
869.106
869.615
870.584
872.856
875.805
880.77
887.037
896.042
906.562
921.601
937.444
966.361
1105.36
2571.07
1918.88
1054.63
1171.13
1190.34
1235.26
1235.56
1228.09
1206.71
1167.13
1112.52
1055.99
1010.41
977.408
954.433
937.422
923.811
912.367
902.605
894.341
887.352
881.648
877.093
873.515
870.928
869.205
868.233
867.826
868.183
869.058
871.267
874.244
879.418
885.852
895.19
905.853
921.212
937.803
965.66
1104.82
2616.52
1844.34
1075.96
1214.82
1262.11
1292.78
1288.32
1269.17
1240.99
1196.61
1137.03
1072.65
1019.84
981.599
956.011
937.944
923.911
912.227
902.249
893.804
886.678
880.875
876.253
872.624
869.983
868.193
867.139
866.651
866.866
867.637
869.757
872.715
878.044
884.569
894.15
904.814
920.419
937.536
964.798
1102.6
2660.09
1758.02
1098.26
1253.9
1358.8
1378.73
1360.94
1322.33
1279.68
1226.58
1161.3
1089.77
1029.83
985.94
957.503
938.352
923.965
912.078
901.915
893.298
886.04
880.146
875.468
871.808
869.138
867.313
866.213
865.68
865.808
866.517
868.587
871.564
877.081
883.733
893.621
904.314
920.318
937.997
965.386
1102.14
2694.89
1692.84
1136.57
1313.35
1484.52
1502.81
1457.68
1387.14
1319.11
1254.41
1182.69
1105.82
1039.25
990.035
958.68
938.524
923.897
911.896
901.598
892.837
885.463
879.49
874.769
871.089
868.406
866.565
865.44
864.883
864.955
865.625
867.664
870.663
876.351
883.105
893.285
903.915
920.277
938.155
966.713
1099.73
2724.11
1693
1215.98
1404.85
1644.4
1661.28
1573.56
1460.3
1358.87
1278.88
1200.08
1119.36
1047.55
993.538
959.48
938.499
923.751
911.711
901.324
892.453
884.988
878.952
874.198
870.506
867.819
865.974
864.839
864.272
864.313
864.964
866.989
870.015
875.86
882.701
893.161
903.641
920.414
938.039
969.457
1101.15
2756.12
1591.75
1305.88
1609.14
1841.66
1855.33
1708.64
1531.45
1390.73
1295.26
1211.62
1129.07
1053.88
996.051
959.884
938.383
923.617
911.588
901.153
892.209
884.681
878.603
873.828
870.129
867.441
865.596
864.459
863.888
863.913
864.557
866.579
869.63
875.584
882.498
893.171
903.517
920.649
937.721
972.149
1103.5
2898.94
)
;

boundaryField
{
    inlet
    {
        type            fixedValue;
        value           uniform 10000;
    }
    outlet
    {
        type            fixedValue;
        value           uniform 1000;
    }
    obstacle
    {
        type            zeroGradient;
    }
    empty
    {
        type            empty;
    }
}


// ************************************************************************* //
