/*--------------------------------*- C++ -*----------------------------------*\
| =========                 |                                                 |
| \\      /  F ield         | OpenFOAM: The Open Source CFD Toolbox           |
|  \\    /   O peration     | Version:  v1912                                 |
|   \\  /    A nd           | Website:  www.openfoam.com                      |
|    \\/     M anipulation  |                                                 |
\*---------------------------------------------------------------------------*/
FoamFile
{
    version     2.0;
    format      ascii;
    class       volScalarField;
    location    "7.28";
    object      Ma;
}
// * * * * * * * * * * * * * * * * * * * * * * * * * * * * * * * * * * * * * //

dimensions      [0 0 0 0 0 0 0];


internalField   nonuniform List<scalar> 
1900
(
0.583932
0.00904859
0.0946818
0.093622
0.0945446
0.094597
0.095407
0.0968146
0.0988442
0.0927596
0.583931
0.00904984
0.0946776
0.0936121
0.0945241
0.0945453
0.0951824
0.0964274
0.100583
0.104449
0.583931
0.00905021
0.0946734
0.0936037
0.0945031
0.0944952
0.0950631
0.0966439
0.101163
0.110703
0.583931
0.00904984
0.0946776
0.0936121
0.0945241
0.0945453
0.0951824
0.0964274
0.100583
0.104449
0.583932
0.00904859
0.0946818
0.093622
0.0945446
0.094597
0.095407
0.0968146
0.0988442
0.0927596
0.102462
0.142551
0.196688
0.283992
0.433047
0.122141
0.149639
0.182105
0.248706
0.393566
0.130254
0.156587
0.189115
0.25263
0.390487
0.122141
0.149639
0.182105
0.248706
0.393566
0.102462
0.142551
0.196688
0.283992
0.433047
0.950251
1.34433
1.60951
1.78754
1.95634
0.908232
1.34318
1.6313
1.80751
1.97705
0.903802
1.35225
1.632
1.80168
1.97515
0.908232
1.34318
1.6313
1.80751
1.97705
0.950251
1.34433
1.60951
1.78754
1.95634
2.08478
2.13817
2.17942
2.24391
2.37664
2.41159
2.29863
1.6868
1.40451
1.35096
1.25833
1.12419
0.978081
0.838093
0.721419
0.622541
0.511187
0.359997
0.222965
0.173233
0.168821
0.173465
0.179739
0.189205
0.204674
0.226301
0.251787
0.277524
0.302997
0.326883
0.349518
0.371435
0.390516
0.373654
0.210217
0.032356
0.120718
0.161848
0.174617
0.213211
2.05272
2.07465
2.10543
2.16235
2.30262
2.37174
2.27265
1.69496
1.4019
1.34149
1.2406
1.10642
0.972519
0.844758
0.732854
0.632609
0.517212
0.361368
0.222431
0.172316
0.167974
0.172741
0.179021
0.188563
0.20414
0.22588
0.251477
0.277326
0.30288
0.32685
0.349529
0.37152
0.390668
0.373894
0.210543
0.0275245
0.118832
0.159041
0.173506
0.214218
2.03625
2.06312
2.08511
2.13234
2.2767
2.35133
2.25821
1.69209
1.40003
1.34223
1.24494
1.11921
0.989206
0.858637
0.731363
0.626825
0.514596
0.362199
0.222969
0.172156
0.167732
0.172539
0.178806
0.188319
0.20391
0.22568
0.251305
0.27718
0.302751
0.326744
0.349435
0.371455
0.390643
0.373935
0.210669
0.0256409
0.117933
0.157271
0.171676
0.212698
2.05272
2.07465
2.10543
2.16235
2.30262
2.37174
2.27265
1.69496
1.4019
1.34149
1.2406
1.10642
0.972519
0.844758
0.732854
0.632609
0.517212
0.361368
0.222431
0.172316
0.167974
0.172741
0.179021
0.188563
0.20414
0.22588
0.251477
0.277326
0.30288
0.32685
0.349529
0.37152
0.390668
0.373894
0.210543
0.0275245
0.118832
0.159041
0.173506
0.214218
2.08478
2.13817
2.17942
2.24391
2.37664
2.41159
2.29863
1.6868
1.40451
1.35096
1.25833
1.12419
0.978081
0.838093
0.721419
0.622541
0.511187
0.359997
0.222965
0.173233
0.168821
0.173465
0.179739
0.189205
0.204674
0.226301
0.251787
0.277524
0.302997
0.326883
0.349518
0.371435
0.390516
0.373654
0.210217
0.032356
0.120718
0.161848
0.174617
0.213211
2.28919
2.30999
2.31957
2.35144
2.43624
2.38062
2.21384
1.61769
1.3939
1.32512
1.2189
1.08602
0.956123
0.834955
0.726862
0.628382
0.513126
0.357482
0.222742
0.176434
0.17244
0.176832
0.182968
0.192431
0.207768
0.229141
0.254355
0.279831
0.305171
0.328895
0.351543
0.373351
0.392434
0.375579
0.21287
0.0457082
0.123426
0.165537
0.176381
0.2098
2.37993
2.39128
2.40323
2.39978
2.38183
2.20163
1.94293
1.48309
1.31295
1.21224
1.10749
1.00231
0.904622
0.805821
0.709044
0.614316
0.498571
0.345579
0.223843
0.185715
0.182536
0.186182
0.191891
0.20134
0.21641
0.23713
0.261619
0.286365
0.311339
0.334607
0.357265
0.378761
0.397913
0.381126
0.221239
0.0713979
0.132629
0.173203
0.185989
0.214755
2.32488
2.31649
2.32403
2.32563
2.21323
2.02933
1.73658
1.41399
1.21564
1.10229
1.01481
0.93502
0.856182
0.768938
0.682242
0.593409
0.477959
0.330328
0.227523
0.199311
0.197041
0.199768
0.204982
0.214261
0.228954
0.248827
0.272355
0.296069
0.320492
0.343076
0.365677
0.386707
0.405902
0.389205
0.233569
0.0989097
0.147783
0.183865
0.199389
0.225252
2.16754
2.17259
2.17798
2.15081
2.01647
1.82517
1.54137
1.26232
1.09285
1.01352
0.946044
0.885333
0.812726
0.732141
0.654372
0.569789
0.452787
0.314856
0.235697
0.216726
0.214975
0.216695
0.221348
0.230369
0.244582
0.263484
0.285927
0.308408
0.332136
0.353858
0.376306
0.396764
0.415935
0.399284
0.248766
0.127111
0.167685
0.19836
0.21592
0.239433
1.96592
1.96463
1.92792
1.83592
1.69787
1.50646
1.26553
1.06753
0.98731
0.945743
0.90158
0.844098
0.767722
0.695048
0.626186
0.542388
0.422304
0.301615
0.247779
0.236257
0.23472
0.235686
0.240027
0.248872
0.262668
0.280656
0.302075
0.323321
0.346365
0.367217
0.389509
0.409421
0.428606
0.41223
0.267508
0.154752
0.188099
0.21246
0.231358
0.252678
1.67707
1.64219
1.56272
1.46628
1.33676
1.1559
0.993192
0.946441
0.941075
0.913663
0.8666
0.795401
0.725941
0.664465
0.600216
0.511595
0.391647
0.298517
0.266075
0.258632
0.256431
0.256551
0.260504
0.269051
0.28228
0.299219
0.319494
0.339334
0.361514
0.381304
0.403198
0.422376
0.441257
0.424905
0.285687
0.182824
0.212966
0.232481
0.252448
0.272229
1.32446
1.26025
1.17806
1.07981
0.971586
0.908719
0.925906
0.944614
0.925452
0.879839
0.814668
0.749483
0.691574
0.637207
0.570908
0.474024
0.364607
0.303567
0.285884
0.280705
0.278122
0.27816
0.282143
0.290713
0.303698
0.319936
0.339441
0.358207
0.37983
0.398841
0.420509
0.439125
0.457881
0.442098
0.308786
0.210078
0.235541
0.249536
0.270192
0.288155
0.942294
0.894715
0.851256
0.845532
0.88972
0.943471
0.957963
0.938568
0.890171
0.83185
0.770773
0.715289
0.665869
0.612262
0.538197
0.43805
0.35505
0.320677
0.309717
0.304412
0.300938
0.30059
0.30439
0.312646
0.325023
0.340208
0.358749
0.376027
0.396857
0.414879
0.43606
0.453921
0.472204
0.456736
0.328899
0.236949
0.260788
0.270733
0.291799
0.308488
0.748116
0.786042
0.837596
0.903384
0.957836
0.969765
0.946869
0.902977
0.847463
0.789019
0.734552
0.687133
0.640212
0.581075
0.498048
0.408767
0.357378
0.339125
0.331374
0.326061
0.323189
0.323108
0.327125
0.335492
0.347728
0.36234
0.380407
0.396691
0.417033
0.434366
0.455166
0.472314
0.490074
0.475211
0.352557
0.262996
0.284337
0.290368
0.311839
0.32734
0.759688
0.80572
0.860634
0.912978
0.949912
0.947307
0.913584
0.863852
0.807813
0.754006
0.707794
0.664119
0.614122
0.546934
0.465148
0.402718
0.374788
0.362357
0.354026
0.34814
0.344565
0.344349
0.348265
0.356395
0.36816
0.381909
0.399259
0.41442
0.434095
0.450698
0.471025
0.487425
0.504536
0.490239
0.373082
0.288764
0.309249
0.312225
0.333648
0.347965
0.741718
0.776496
0.82759
0.882219
0.916696
0.913563
0.876999
0.825607
0.773533
0.725675
0.683279
0.637233
0.580059
0.508626
0.442867
0.406391
0.389419
0.379482
0.372493
0.367111
0.364433
0.365126
0.369778
0.378423
0.390451
0.404026
0.421227
0.435872
0.455138
0.471282
0.491163
0.506828
0.523253
0.509759
0.39721
0.312382
0.330518
0.330367
0.352026
0.365327
0.721445
0.744958
0.789675
0.837789
0.873801
0.872574
0.838058
0.788885
0.743257
0.700467
0.658542
0.608906
0.548427
0.487012
0.443969
0.421602
0.409611
0.399949
0.391779
0.386298
0.383976
0.38481
0.389475
0.397945
0.409615
0.422482
0.439099
0.452902
0.471414
0.486846
0.505995
0.520764
0.536225
0.523205
0.415643
0.334895
0.352797
0.351087
0.372536
0.385314
0.69428
0.708108
0.748795
0.787814
0.822294
0.828866
0.80378
0.760896
0.721503
0.679276
0.633077
0.576785
0.515564
0.470202
0.449911
0.436296
0.424435
0.414718
0.407049
0.402299
0.400635
0.40165
0.406275
0.414569
0.425957
0.43816
0.454299
0.467535
0.485124
0.499846
0.518372
0.5322
0.546838
0.533927
0.429604
0.348416
0.366479
0.364116
0.386599
0.39974
0.664771
0.670526
0.703132
0.735636
0.761723
0.782975
0.768993
0.729307
0.688671
0.637645
0.581994
0.535999
0.503253
0.476791
0.451961
0.433787
0.419311
0.406428
0.395799
0.388801
0.384964
0.383699
0.386292
0.392928
0.403119
0.414119
0.42996
0.442911
0.460195
0.475045
0.494301
0.508524
0.52382
0.509976
0.40566
0.324268
0.354143
0.363838
0.395995
0.41499
0.636915
0.635936
0.654498
0.683662
0.699021
0.725513
0.712463
0.67172
0.629502
0.581285
0.533674
0.48216
0.43678
0.40024
0.369305
0.341101
0.314511
0.29069
0.271624
0.258604
0.249942
0.244518
0.245297
0.252281
0.264546
0.278461
0.298276
0.315176
0.336282
0.355802
0.378841
0.397794
0.416296
0.401827
0.299299
0.217794
0.279019
0.322771
0.384193
0.420579
0.610556
0.595259
0.577472
0.568095
0.553175
0.582789
0.567571
0.517194
0.461572
0.400362
0.343307
0.291432
0.246115
0.204621
0.166728
0.13194
0.101378
0.0764102
0.061607
0.0608761
0.0719082
0.0897182
0.113563
0.139663
0.166316
0.192932
0.219493
0.244898
0.270126
0.294839
0.318442
0.34188
0.359864
0.347009
0.256625
0.137859
0.188729
0.252986
0.3589
0.41456
0.595297
0.552031
0.48025
0.444156
0.390678
0.414737
0.409956
0.368345
0.321664
0.277474
0.234637
0.19616
0.158357
0.122042
0.0873231
0.0572651
0.0325057
0.0271535
0.0420272
0.0620456
0.0834363
0.106438
0.130526
0.156057
0.1815
0.208692
0.233972
0.260355
0.285314
0.310647
0.333657
0.357926
0.376017
0.373353
0.314687
0.209451
0.232702
0.25432
0.354741
0.400272
0.623695
0.586207
0.461414
0.373407
0.307762
0.321909
0.322784
0.296743
0.264426
0.234529
0.20161
0.171534
0.14021
0.112612
0.0902319
0.0782813
0.0768043
0.0827869
0.0917029
0.100761
0.111929
0.130084
0.151164
0.172071
0.192215
0.215724
0.236792
0.260732
0.283177
0.306824
0.327817
0.351066
0.368124
0.375204
0.347258
0.276897
0.258041
0.332844
0.464037
0.49242
0.967493
0.713286
0.517367
0.403972
0.355235
0.357696
0.349703
0.324725
0.29272
0.262022
0.228552
0.197757
0.166927
0.141118
0.119931
0.10646
0.100404
0.0997673
0.102202
0.107325
0.120577
0.142303
0.165829
0.188533
0.209683
0.233941
0.255345
0.279478
0.302151
0.325967
0.347194
0.370185
0.387514
0.401711
0.397748
0.372793
0.357326
0.462759
0.641811
0.90233
2.32264
1.01558
0.495371
0.384007
0.355928
0.352533
0.340257
0.318347
0.288912
0.262106
0.231953
0.205331
0.18061
0.162182
0.149481
0.142884
0.140656
0.141474
0.14441
0.150275
0.163101
0.17772
0.193975
0.212294
0.230513
0.253019
0.272175
0.294858
0.316155
0.338901
0.358961
0.380997
0.397984
0.416246
0.426996
0.424833
0.407678
0.492137
0.881891
2.21672
2.32264
1.01558
0.495371
0.384007
0.355928
0.352533
0.340257
0.318347
0.288912
0.262106
0.231953
0.205331
0.18061
0.162182
0.149481
0.142884
0.140656
0.141474
0.14441
0.150275
0.163101
0.17772
0.193975
0.212294
0.230513
0.253019
0.272175
0.294858
0.316155
0.338901
0.358961
0.380997
0.397984
0.416246
0.426996
0.424833
0.407678
0.492137
0.881891
2.21672
0.967493
0.713286
0.517367
0.403972
0.355235
0.357696
0.349703
0.324725
0.29272
0.262022
0.228552
0.197757
0.166927
0.141118
0.119931
0.10646
0.100404
0.0997673
0.102202
0.107325
0.120577
0.142303
0.165829
0.188533
0.209683
0.233941
0.255345
0.279478
0.302151
0.325967
0.347194
0.370185
0.387514
0.401711
0.397748
0.372793
0.357326
0.462759
0.641811
0.90233
0.623695
0.586207
0.461414
0.373407
0.307762
0.321909
0.322784
0.296743
0.264426
0.234529
0.20161
0.171534
0.14021
0.112612
0.0902319
0.0782813
0.0768043
0.0827869
0.0917029
0.100761
0.111929
0.130084
0.151164
0.172071
0.192215
0.215724
0.236792
0.260732
0.283177
0.306824
0.327817
0.351066
0.368124
0.375204
0.347258
0.276897
0.258041
0.332844
0.464037
0.49242
0.595297
0.552031
0.48025
0.444156
0.390678
0.414737
0.409956
0.368345
0.321664
0.277474
0.234637
0.19616
0.158357
0.122042
0.0873231
0.0572651
0.0325057
0.0271535
0.0420272
0.0620456
0.0834363
0.106438
0.130526
0.156057
0.1815
0.208692
0.233972
0.260355
0.285314
0.310647
0.333657
0.357926
0.376017
0.373353
0.314687
0.209451
0.232702
0.25432
0.354741
0.400272
0.610556
0.595259
0.577472
0.568095
0.553175
0.582789
0.567571
0.517194
0.461572
0.400362
0.343307
0.291432
0.246115
0.204621
0.166728
0.13194
0.101378
0.0764102
0.061607
0.0608761
0.0719082
0.0897182
0.113563
0.139663
0.166316
0.192932
0.219493
0.244898
0.270126
0.294839
0.318442
0.34188
0.359864
0.347009
0.256625
0.137859
0.188729
0.252986
0.3589
0.41456
0.636915
0.635936
0.654498
0.683662
0.699021
0.725513
0.712463
0.67172
0.629502
0.581285
0.533674
0.48216
0.43678
0.40024
0.369305
0.341101
0.314511
0.29069
0.271624
0.258604
0.249942
0.244518
0.245297
0.252281
0.264546
0.278461
0.298276
0.315176
0.336282
0.355802
0.378841
0.397794
0.416296
0.401827
0.299299
0.217794
0.279019
0.322771
0.384193
0.420579
0.664771
0.670526
0.703132
0.735636
0.761723
0.782975
0.768993
0.729307
0.688671
0.637645
0.581994
0.535999
0.503253
0.476791
0.451961
0.433787
0.419311
0.406428
0.395799
0.388801
0.384964
0.383699
0.386292
0.392928
0.403119
0.414119
0.42996
0.442911
0.460195
0.475045
0.494301
0.508524
0.52382
0.509976
0.40566
0.324268
0.354143
0.363838
0.395995
0.41499
0.69428
0.708108
0.748795
0.787814
0.822294
0.828866
0.80378
0.760896
0.721503
0.679276
0.633077
0.576785
0.515564
0.470202
0.449911
0.436296
0.424435
0.414718
0.407049
0.402299
0.400635
0.40165
0.406275
0.414569
0.425957
0.43816
0.454299
0.467535
0.485124
0.499846
0.518372
0.5322
0.546838
0.533927
0.429604
0.348416
0.366479
0.364116
0.386599
0.39974
0.721445
0.744958
0.789675
0.837789
0.873801
0.872574
0.838058
0.788885
0.743257
0.700467
0.658542
0.608906
0.548427
0.487012
0.443969
0.421602
0.409611
0.399949
0.391779
0.386298
0.383976
0.38481
0.389475
0.397945
0.409615
0.422482
0.439099
0.452902
0.471414
0.486846
0.505995
0.520764
0.536225
0.523205
0.415643
0.334895
0.352797
0.351087
0.372536
0.385314
0.741718
0.776496
0.82759
0.882219
0.916696
0.913563
0.876999
0.825607
0.773533
0.725675
0.683279
0.637233
0.580059
0.508626
0.442867
0.406391
0.389419
0.379482
0.372493
0.367111
0.364433
0.365126
0.369778
0.378423
0.390451
0.404026
0.421227
0.435872
0.455138
0.471282
0.491163
0.506828
0.523253
0.509759
0.39721
0.312382
0.330518
0.330367
0.352026
0.365327
0.759688
0.80572
0.860634
0.912978
0.949912
0.947307
0.913584
0.863852
0.807813
0.754006
0.707794
0.664119
0.614122
0.546934
0.465148
0.402718
0.374788
0.362357
0.354026
0.34814
0.344565
0.344349
0.348265
0.356395
0.36816
0.381909
0.399259
0.41442
0.434095
0.450698
0.471025
0.487425
0.504536
0.490239
0.373082
0.288764
0.309249
0.312225
0.333648
0.347965
0.748116
0.786042
0.837596
0.903384
0.957836
0.969765
0.946869
0.902977
0.847463
0.789019
0.734552
0.687133
0.640212
0.581075
0.498048
0.408767
0.357378
0.339125
0.331374
0.326061
0.323189
0.323108
0.327125
0.335492
0.347728
0.36234
0.380407
0.396691
0.417033
0.434366
0.455166
0.472314
0.490074
0.475211
0.352557
0.262996
0.284337
0.290368
0.311839
0.32734
0.942294
0.894715
0.851256
0.845532
0.88972
0.943471
0.957963
0.938568
0.890171
0.83185
0.770773
0.715289
0.665869
0.612262
0.538197
0.43805
0.35505
0.320677
0.309717
0.304412
0.300938
0.30059
0.30439
0.312646
0.325023
0.340208
0.358749
0.376027
0.396857
0.414879
0.43606
0.453921
0.472204
0.456736
0.328899
0.236949
0.260788
0.270733
0.291799
0.308488
1.32446
1.26025
1.17806
1.07981
0.971586
0.908719
0.925906
0.944614
0.925452
0.879839
0.814668
0.749483
0.691574
0.637207
0.570908
0.474024
0.364607
0.303567
0.285884
0.280705
0.278122
0.27816
0.282143
0.290713
0.303698
0.319936
0.339441
0.358207
0.37983
0.398841
0.420509
0.439125
0.457881
0.442098
0.308786
0.210078
0.235541
0.249536
0.270192
0.288155
1.67707
1.64219
1.56272
1.46628
1.33676
1.1559
0.993192
0.946441
0.941075
0.913663
0.8666
0.795401
0.725941
0.664465
0.600216
0.511595
0.391647
0.298517
0.266075
0.258632
0.256431
0.256551
0.260504
0.269051
0.28228
0.299219
0.319494
0.339334
0.361514
0.381304
0.403198
0.422376
0.441257
0.424905
0.285687
0.182824
0.212966
0.232481
0.252448
0.272229
1.96592
1.96463
1.92792
1.83592
1.69787
1.50646
1.26553
1.06753
0.98731
0.945743
0.90158
0.844098
0.767722
0.695048
0.626186
0.542388
0.422304
0.301615
0.247779
0.236257
0.23472
0.235686
0.240027
0.248872
0.262668
0.280656
0.302075
0.323321
0.346365
0.367217
0.389509
0.409421
0.428606
0.41223
0.267508
0.154752
0.188099
0.21246
0.231358
0.252678
2.16754
2.17259
2.17798
2.15081
2.01647
1.82517
1.54137
1.26232
1.09285
1.01352
0.946044
0.885333
0.812726
0.732141
0.654372
0.569789
0.452787
0.314856
0.235697
0.216726
0.214975
0.216695
0.221348
0.230369
0.244582
0.263484
0.285927
0.308408
0.332136
0.353858
0.376306
0.396764
0.415935
0.399284
0.248766
0.127111
0.167685
0.19836
0.21592
0.239433
2.32488
2.31649
2.32403
2.32563
2.21323
2.02933
1.73658
1.41399
1.21564
1.10229
1.01481
0.93502
0.856182
0.768938
0.682242
0.593409
0.477959
0.330328
0.227523
0.199311
0.197041
0.199768
0.204982
0.214261
0.228954
0.248827
0.272355
0.296069
0.320492
0.343076
0.365677
0.386707
0.405902
0.389205
0.233569
0.0989097
0.147783
0.183865
0.199389
0.225252
2.37993
2.39128
2.40323
2.39978
2.38183
2.20163
1.94293
1.48309
1.31295
1.21224
1.10749
1.00231
0.904622
0.805821
0.709044
0.614316
0.498571
0.345579
0.223843
0.185715
0.182536
0.186182
0.191891
0.20134
0.21641
0.23713
0.261619
0.286365
0.311339
0.334607
0.357265
0.378761
0.397913
0.381126
0.221239
0.0713979
0.132629
0.173203
0.185989
0.214755
2.28919
2.30999
2.31957
2.35144
2.43624
2.38062
2.21384
1.61769
1.3939
1.32512
1.2189
1.08602
0.956123
0.834955
0.726862
0.628382
0.513126
0.357482
0.222742
0.176434
0.17244
0.176832
0.182968
0.192431
0.207768
0.229141
0.254355
0.279831
0.305171
0.328895
0.351543
0.373351
0.392434
0.375579
0.21287
0.0457082
0.123426
0.165537
0.176381
0.2098
)
;

boundaryField
{
    inlet
    {
        type            calculated;
        value           uniform 0;
    }
    outlet
    {
        type            calculated;
        value           nonuniform List<scalar> 
165
(
2.28919
2.37993
2.32488
2.16754
1.96592
1.67707
1.32446
0.942294
0.748116
0.759688
0.741718
0.721445
0.69428
0.664771
0.636915
0.610556
0.595297
0.623695
0.967493
2.32264
2.32264
1.01558
0.495371
0.384007
0.355928
0.352533
0.340257
0.318347
0.288912
0.262106
0.231953
0.205331
0.18061
0.162182
0.149481
0.142884
0.140656
0.141474
0.14441
0.150275
0.163101
0.17772
0.193975
0.212294
0.230513
0.253019
0.272175
0.294858
0.316155
0.338901
0.358961
0.380997
0.397984
0.416246
0.426996
0.424833
0.407678
0.492137
0.881891
2.21672
0.2098
0.214755
0.225252
0.239433
0.252678
0.272229
0.288155
0.308488
0.32734
0.347965
0.365327
0.385314
0.39974
0.41499
0.420579
0.41456
0.400272
0.49242
0.90233
2.21672
0.213211
0.214218
0.212698
0.214218
0.213211
2.21672
0.90233
0.49242
0.400272
0.41456
0.420579
0.41499
0.39974
0.385314
0.365327
0.347965
0.32734
0.308488
0.288155
0.272229
0.252678
0.239433
0.225252
0.214755
0.2098
2.32264
1.01558
0.495371
0.384007
0.355928
0.352533
0.340257
0.318347
0.288912
0.262106
0.231953
0.205331
0.18061
0.162182
0.149481
0.142884
0.140656
0.141474
0.14441
0.150275
0.163101
0.17772
0.193975
0.212294
0.230513
0.253019
0.272175
0.294858
0.316155
0.338901
0.358961
0.380997
0.397984
0.416246
0.426996
0.424833
0.407678
0.492137
0.881891
2.21672
2.32264
0.967493
0.623695
0.595297
0.610556
0.636915
0.664771
0.69428
0.721445
0.741718
0.759688
0.748116
0.942294
1.32446
1.67707
1.96592
2.16754
2.32488
2.37993
2.28919
)
;
    }
    obstacle
    {
        type            calculated;
        value           nonuniform List<scalar> 
40
(
0.583932
0.00904859
0.0946818
0.093622
0.0945446
0.094597
0.0954069
0.0968137
0.0987935
0.091934
0.583932
0.00904859
0.0946818
0.093622
0.0945446
0.094597
0.0954069
0.0968137
0.0987935
0.091934
0.100528
0.139499
0.19342
0.280663
0.426371
0.100528
0.139499
0.19342
0.280663
0.426371
0.940087
1.34157
1.60794
1.78603
1.95513
0.940087
1.34157
1.60794
1.78603
1.95513
)
;
    }
    empty
    {
        type            empty;
    }
}


// ************************************************************************* //
