/*--------------------------------*- C++ -*----------------------------------*\
| =========                 |                                                 |
| \\      /  F ield         | OpenFOAM: The Open Source CFD Toolbox           |
|  \\    /   O peration     | Version:  v1912                                 |
|   \\  /    A nd           | Website:  www.openfoam.com                      |
|    \\/     M anipulation  |                                                 |
\*---------------------------------------------------------------------------*/
FoamFile
{
    version     2.0;
    format      ascii;
    class       volVectorField;
    location    "2.28";
    object      grad(T);
}
// * * * * * * * * * * * * * * * * * * * * * * * * * * * * * * * * * * * * * //

dimensions      [0 -1 0 1 0 0 0];


internalField   nonuniform List<vector> 
1900
(
(0.504821 -1.28055e-05 0)
(-0.312224 -1.10805e-05 0)
(0.0130319 6.89749e-06 0)
(0.0134867 2.92315e-05 0)
(0.0128249 1.08531e-05 0)
(0.0134496 -5.15535e-05 0)
(0.0161811 -0.000315913 0)
(0.0181953 -0.00164552 0)
(0.0237394 -0.00289563 0)
(0.00765763 -0.00324425 0)
(0.504797 -2.07254e-05 0)
(-0.312204 -1.47983e-05 0)
(0.0130722 1.92688e-05 0)
(0.0134906 5.34456e-05 0)
(0.0127441 -1.84206e-05 0)
(0.0131228 -0.000140128 0)
(0.0145872 -0.000328325 0)
(0.0156156 -0.00135436 0)
(0.0221407 -0.00171632 0)
(0.0303172 -0.0046334 0)
(0.504786 -4.55365e-14 0)
(-0.312184 2.60209e-14 0)
(0.0131002 2.27682e-13 0)
(0.013449 2.0383e-13 0)
(0.0126313 2.81893e-13 0)
(0.0131397 4.59702e-13 0)
(0.0149669 5.78964e-13 0)
(0.0168073 2.10335e-13 0)
(0.0204604 -4.29344e-13 0)
(0.0267023 -3.1225e-13 0)
(0.504797 2.07254e-05 0)
(-0.312204 1.47983e-05 0)
(0.0130722 -1.92688e-05 0)
(0.0134906 -5.34456e-05 0)
(0.0127441 1.84206e-05 0)
(0.0131228 0.000140128 0)
(0.0145872 0.000328325 0)
(0.0156156 0.00135436 0)
(0.0221407 0.00171632 0)
(0.0303172 0.0046334 0)
(0.504821 1.28055e-05 0)
(-0.312224 1.10805e-05 0)
(0.0130319 -6.89749e-06 0)
(0.0134867 -2.92315e-05 0)
(0.0128249 -1.08531e-05 0)
(0.0134496 5.15535e-05 0)
(0.0161811 0.000315913 0)
(0.0181953 0.00164552 0)
(0.0237394 0.00289563 0)
(0.00765763 0.00324425 0)
(0.0204786 0.0162633 1.01076e-15)
(0.064215 0.0187291 -1.23221e-15)
(0.0399861 0.0188911 -1.56674e-15)
(-0.215732 0.0524119 0)
(-0.172935 0.363312 -6.53438e-15)
(0.0439403 0.0138533 1.0137e-15)
(0.0592328 0.012635 1.23221e-15)
(0.0542247 0.00643116 1.56674e-15)
(-0.0733182 0.0167036 0)
(-0.135579 0.279079 0)
(0.0458705 -1.53202e-13 0)
(0.0588214 -6.89515e-14 0)
(0.0457584 7.83035e-14 0)
(-0.0745436 1.51953e-13 0)
(0.022774 2.25875e-13 0)
(0.0439403 -0.0138533 1.0137e-15)
(0.0592328 -0.012635 1.23221e-15)
(0.0542247 -0.00643116 1.56674e-15)
(-0.0733182 -0.0167036 0)
(-0.135579 -0.279079 0)
(0.0204786 -0.0162633 -3.03816e-15)
(0.064215 -0.0187291 -1.23221e-15)
(0.0399861 -0.0188911 -1.56674e-15)
(-0.215732 -0.0524119 -4.27321e-15)
(-0.172935 -0.363312 6.53438e-15)
(0.191938 -0.131744 2.90602e-15)
(-0.156831 -0.0306876 -2.42328e-15)
(-0.224659 -0.0140705 0)
(-0.405963 0.134352 1.78778e-15)
(-0.785832 0.385227 -7.61463e-16)
(0.0615332 -0.159175 -1.45102e-15)
(-0.130454 -0.0378418 1.21118e-15)
(-0.163037 -0.0262577 0)
(-0.236151 0.146033 -1.12099e-15)
(-0.287191 0.451796 1.96668e-16)
(0.0953753 3.12119e-13 0)
(-0.126263 2.40934e-13 0)
(-0.155426 3.85494e-13 0)
(-0.212083 1.22593e-12 4.50156e-16)
(-0.289027 1.47413e-12 -3.93336e-16)
(0.0615332 0.159175 -1.45102e-15)
(-0.130454 0.0378418 1.21118e-15)
(-0.163037 0.0262577 0)
(-0.236151 -0.146033 -1.12099e-15)
(-0.287191 -0.451796 1.96668e-16)
(0.191938 0.131744 1.45102e-15)
(-0.156831 0.0306876 9.2421e-19)
(-0.224659 0.0140705 0)
(-0.405963 -0.134352 4.04623e-18)
(-0.785832 -0.385227 7.61463e-16)
(-0.768037 2.54127 0)
(-0.0004529 0.827115 0)
(0.279111 0.257472 0)
(0.0377098 0.0873707 0)
(-0.022176 0.0411514 0)
(0.0147316 0.0200281 0)
(0.0430521 0.0126262 0)
(0.0584123 0.0146552 0)
(0.0707391 0.0151012 0)
(0.083115 0.0149678 0)
(0.0947097 0.0154979 0)
(0.102487 0.016189 0)
(0.107088 0.0171719 0)
(0.108785 0.0180796 0)
(0.107665 0.0186454 0)
(0.1028 0.0190543 0)
(0.0915013 0.0193968 0)
(0.0695933 0.0196389 0)
(0.0385179 0.0197011 0)
(0.0106421 0.0195592 0)
(-0.011893 0.0194975 0)
(-0.0408077 0.0193583 0)
(-0.0724738 0.0190551 0)
(-0.0946794 0.0185557 0)
(-0.106375 0.0178519 0)
(-0.112054 0.016957 0)
(-0.114777 0.0158947 0)
(-0.1159 0.014691 0)
(-0.115952 0.0133924 0)
(-0.115071 0.0120473 0)
(-0.113112 0.0107016 0)
(-0.109697 0.00940088 0)
(-0.104618 0.00818004 0)
(-0.0984275 0.00699195 0)
(-0.0913698 0.00587406 0)
(-0.0785404 0.00481568 0)
(-0.0651919 0.00407609 0)
(-0.28274 0.00307496 0)
(-0.654882 0.0018928 0)
(-0.402571 0.000209558 0)
(-0.645634 1.4906 0)
(-0.360213 0.914953 0)
(0.125769 0.321194 0)
(-0.014229 0.0541153 0)
(-0.0285736 0.0168542 0)
(0.0117479 0.00902437 0)
(0.0423088 0.00432499 0)
(0.0586915 0.00535893 0)
(0.07072 0.00539553 0)
(0.0831422 0.00530055 0)
(0.0948412 0.00548953 0)
(0.102699 0.0057918 0)
(0.107312 0.006228 0)
(0.108856 0.00646404 0)
(0.1076 0.00623094 0)
(0.102718 0.00599525 0)
(0.0914269 0.00580923 0)
(0.0695171 0.00566624 0)
(0.0384345 0.00551803 0)
(0.0105875 0.00535992 0)
(-0.0119181 0.00531469 0)
(-0.0408507 0.00526385 0)
(-0.0725583 0.00514607 0)
(-0.0948166 0.00493315 0)
(-0.106566 0.00461402 0)
(-0.112292 0.00420062 0)
(-0.115052 0.00371598 0)
(-0.116195 0.00319718 0)
(-0.116243 0.00266748 0)
(-0.115336 0.0021465 0)
(-0.113333 0.00165612 0)
(-0.10986 0.00120962 0)
(-0.104742 0.00082657 0)
(-0.0985382 0.00050033 0)
(-0.0914688 0.000235374 0)
(-0.0786123 2.43659e-05 0)
(-0.0652455 -0.000100148 0)
(-0.282788 -0.000230028 0)
(-0.654864 -0.000320726 0)
(-0.402533 -0.000102691 0)
(-0.559652 1.55337e-12 0)
(-0.340643 6.38694e-13 0)
(0.0286857 5.12532e-14 0)
(-0.0508256 -2.52323e-13 0)
(-0.0352934 -1.18277e-14 0)
(0.0110867 9.46213e-14 0)
(0.0419858 -1.02506e-13 0)
(0.0587237 -1.77415e-13 0)
(0.0707221 1.41932e-13 0)
(0.0831423 5.32245e-13 0)
(0.0948526 1.97128e-14 0)
(0.102702 -4.58913e-12 0)
(0.107284 -1.85379e-11 0)
(0.108785 -3.80259e-11 0)
(0.107528 4.26979e-12 0)
(0.102677 1.45212e-10 0)
(0.0914056 6.13363e-10 0)
(0.0695086 3.62628e-10 0)
(0.0384288 1.78072e-09 0)
(0.0105829 6.30276e-10 0)
(-0.0119209 5.02609e-10 0)
(-0.0408568 -1.54581e-09 0)
(-0.07257 -2.47198e-10 0)
(-0.0948342 3.31856e-09 0)
(-0.106588 3.17127e-09 0)
(-0.112315 3.70071e-09 0)
(-0.115069 2.66866e-09 0)
(-0.116205 1.63131e-09 0)
(-0.116258 5.26445e-10 0)
(-0.115365 -6.07023e-10 0)
(-0.113384 -1.36494e-09 0)
(-0.109938 -2.54318e-09 0)
(-0.104825 -3.00328e-09 0)
(-0.0985995 -3.06011e-09 0)
(-0.0915083 -2.58078e-09 0)
(-0.078638 -2.17569e-09 0)
(-0.0652659 -8.81074e-10 0)
(-0.282804 -1.65067e-10 0)
(-0.654845 3.8089e-11 0)
(-0.402507 -2.43843e-10 0)
(-0.645634 -1.4906 0)
(-0.360213 -0.914953 0)
(0.125769 -0.321194 0)
(-0.014229 -0.0541153 0)
(-0.0285736 -0.0168542 0)
(0.0117479 -0.00902437 0)
(0.0423088 -0.00432499 0)
(0.0586915 -0.00535893 0)
(0.07072 -0.00539553 0)
(0.0831422 -0.00530055 0)
(0.0948412 -0.00548953 0)
(0.102699 -0.0057918 0)
(0.107312 -0.006228 0)
(0.108856 -0.00646404 0)
(0.1076 -0.00623094 0)
(0.102718 -0.00599525 0)
(0.0914269 -0.00580923 0)
(0.0695171 -0.00566624 0)
(0.0384345 -0.00551803 0)
(0.0105875 -0.00535992 0)
(-0.0119181 -0.00531469 0)
(-0.0408507 -0.00526385 0)
(-0.0725583 -0.00514607 0)
(-0.0948166 -0.00493314 0)
(-0.106566 -0.00461401 0)
(-0.112292 -0.00420062 0)
(-0.115052 -0.00371598 0)
(-0.116195 -0.00319718 0)
(-0.116243 -0.00266748 0)
(-0.115336 -0.0021465 0)
(-0.113333 -0.00165612 0)
(-0.10986 -0.00120963 0)
(-0.104742 -0.000826575 0)
(-0.0985382 -0.000500335 0)
(-0.0914688 -0.000235378 0)
(-0.0786123 -2.43691e-05 0)
(-0.0652455 0.000100146 0)
(-0.282788 0.000230028 0)
(-0.654864 0.000320726 0)
(-0.402533 0.000102691 0)
(-0.768037 -2.54127 0)
(-0.0004529 -0.827115 0)
(0.279111 -0.257472 0)
(0.0377098 -0.0873707 0)
(-0.022176 -0.0411514 0)
(0.0147316 -0.0200281 0)
(0.0430521 -0.0126262 0)
(0.0584123 -0.0146552 0)
(0.0707391 -0.0151012 0)
(0.083115 -0.0149678 0)
(0.0947097 -0.0154979 0)
(0.102487 -0.016189 0)
(0.107088 -0.0171719 0)
(0.108785 -0.0180796 0)
(0.107665 -0.0186454 0)
(0.1028 -0.0190543 0)
(0.0915013 -0.0193968 0)
(0.0695933 -0.0196389 0)
(0.0385179 -0.0197011 0)
(0.0106421 -0.0195592 0)
(-0.011893 -0.0194975 0)
(-0.0408077 -0.0193583 0)
(-0.0724738 -0.0190551 0)
(-0.0946794 -0.0185557 0)
(-0.106375 -0.0178519 0)
(-0.112054 -0.016957 0)
(-0.114777 -0.0158947 0)
(-0.1159 -0.014691 0)
(-0.115952 -0.0133924 0)
(-0.115071 -0.0120473 0)
(-0.113112 -0.0107016 0)
(-0.109697 -0.00940089 0)
(-0.104618 -0.00818004 0)
(-0.0984275 -0.00699196 0)
(-0.0913698 -0.00587406 0)
(-0.0785404 -0.00481568 0)
(-0.0651919 -0.00407609 0)
(-0.28274 -0.00307496 0)
(-0.654882 -0.0018928 0)
(-0.402571 -0.000209557 0)
(0.305488 -1.37923 0)
(0.656375 -0.275035 0)
(0.412488 -0.109818 0)
(0.0614086 -0.118731 0)
(0.0062714 -0.0616796 0)
(0.0261911 -0.0341981 0)
(0.0448196 -0.0271873 0)
(0.0574617 -0.0276422 0)
(0.0705018 -0.0281616 0)
(0.0829248 -0.0276453 0)
(0.0942273 -0.0281831 0)
(0.101893 -0.0289396 0)
(0.106385 -0.0300066 0)
(0.108014 -0.0311952 0)
(0.106913 -0.0324685 0)
(0.102153 -0.0336315 0)
(0.0909741 -0.0346323 0)
(0.0692381 -0.0353612 0)
(0.0383879 -0.0357345 0)
(0.0106522 -0.0357619 0)
(-0.011821 -0.0357221 0)
(-0.0406229 -0.0354996 0)
(-0.0721525 -0.0350333 0)
(-0.0942204 -0.0343256 0)
(-0.105784 -0.0333969 0)
(-0.11134 -0.0322639 0)
(-0.113948 -0.0309424 0)
(-0.114966 -0.0294486 0)
(-0.114921 -0.027798 0)
(-0.113956 -0.0260093 0)
(-0.111929 -0.0241052 0)
(-0.108468 -0.0221119 0)
(-0.103375 -0.0200632 0)
(-0.0972197 -0.0180043 0)
(-0.090218 -0.0160207 0)
(-0.0775675 -0.0140742 0)
(-0.0642156 -0.0125576 0)
(-0.281475 -0.010367 0)
(-0.653047 -0.00743611 0)
(-0.401433 -0.00140559 0)
(0.55883 -0.273682 0)
(0.870582 -0.00365782 0)
(0.35821 -0.0882733 0)
(0.0713896 -0.107839 0)
(0.0440283 -0.0733975 0)
(0.0418246 -0.0559428 0)
(0.0484219 -0.0522973 0)
(0.0579832 -0.0507777 0)
(0.0708634 -0.0508354 0)
(0.0831962 -0.0501618 0)
(0.0937211 -0.050731 0)
(0.101048 -0.0517576 0)
(0.105292 -0.0531573 0)
(0.106825 -0.0546926 0)
(0.10572 -0.0562323 0)
(0.101061 -0.0576815 0)
(0.0901172 -0.0589286 0)
(0.0687218 -0.0598494 0)
(0.0382016 -0.0603313 0)
(0.0106485 -0.0604242 0)
(-0.0116789 -0.0603702 0)
(-0.040243 -0.0600047 0)
(-0.0715148 -0.0592802 0)
(-0.0933487 -0.0582687 0)
(-0.104705 -0.0570339 0)
(-0.110071 -0.0556032 0)
(-0.112508 -0.0539934 0)
(-0.113371 -0.0522185 0)
(-0.113191 -0.0502914 0)
(-0.11211 -0.0482247 0)
(-0.10999 -0.0460323 0)
(-0.106461 -0.0437306 0)
(-0.101327 -0.0413466 0)
(-0.0951798 -0.0389061 0)
(-0.0882002 -0.0364867 0)
(-0.0757249 -0.0340291 0)
(-0.062143 -0.0316371 0)
(-0.278483 -0.028296 0)
(-0.64723 -0.0228389 0)
(-0.397369 -0.00788542 0)
(0.565694 0.00993697 0)
(0.835042 -0.0265137 0)
(0.312096 -0.09106 0)
(0.0757434 -0.0947731 0)
(0.0562805 -0.0918637 0)
(0.0465241 -0.0844497 0)
(0.0497969 -0.0823577 0)
(0.0588704 -0.0794589 0)
(0.0710953 -0.0784956 0)
(0.0830254 -0.077736 0)
(0.0926895 -0.0779458 0)
(0.0995551 -0.0788811 0)
(0.103557 -0.0802841 0)
(0.105051 -0.0819028 0)
(0.104033 -0.0835706 0)
(0.099555 -0.0851663 0)
(0.088885 -0.0865957 0)
(0.0678864 -0.0877493 0)
(0.037834 -0.0884777 0)
(0.0106147 -0.0887161 0)
(-0.0114168 -0.0886524 0)
(-0.0395725 -0.0880911 0)
(-0.0704796 -0.0870546 0)
(-0.0920558 -0.0857437 0)
(-0.103216 -0.0842759 0)
(-0.10841 -0.0826809 0)
(-0.110687 -0.0809688 0)
(-0.111398 -0.079146 0)
(-0.111073 -0.0772165 0)
(-0.109852 -0.0751826 0)
(-0.107599 -0.0730474 0)
(-0.103953 -0.0708194 0)
(-0.0987257 -0.0685247 0)
(-0.0925365 -0.0662026 0)
(-0.0855184 -0.0638847 0)
(-0.0728943 -0.0614895 0)
(-0.058691 -0.058275 0)
(-0.272996 -0.0549381 0)
(-0.633378 -0.0473467 0)
(-0.387024 -0.0249941 0)
(0.523705 0.00989587 0)
(0.773258 -0.0737572 0)
(0.292433 -0.0999634 0)
(0.0706152 -0.106549 0)
(0.0539764 -0.111949 0)
(0.0509849 -0.106656 0)
(0.0532312 -0.102844 0)
(0.0617048 -0.0989579 0)
(0.0725236 -0.0963489 0)
(0.0837261 -0.0947876 0)
(0.0926177 -0.0941463 0)
(0.0987949 -0.0944094 0)
(0.10238 -0.0952913 0)
(0.103658 -0.0965368 0)
(0.102575 -0.0979496 0)
(0.098146 -0.0993895 0)
(0.0876281 -0.100755 0)
(0.0669082 -0.101958 0)
(0.03727 -0.102865 0)
(0.0104802 -0.103283 0)
(-0.0110766 -0.103227 0)
(-0.0387033 -0.102497 0)
(-0.0692528 -0.101232 0)
(-0.090671 -0.099771 0)
(-0.101753 -0.0982676 0)
(-0.106885 -0.0967365 0)
(-0.109101 -0.0951747 0)
(-0.109755 -0.0935821 0)
(-0.109372 -0.0919592 0)
(-0.108093 -0.0903059 0)
(-0.105785 -0.0886233 0)
(-0.102103 -0.0869292 0)
(-0.0968782 -0.0852613 0)
(-0.0907085 -0.0836812 0)
(-0.0836584 -0.0820841 0)
(-0.0703192 -0.0803586 0)
(-0.0558299 -0.0770912 0)
(-0.267952 -0.0757132 0)
(-0.618375 -0.0671915 0)
(-0.37583 -0.0488393 0)
(0.485082 -0.00915864 0)
(0.729178 -0.107415 0)
(0.280496 -0.112501 0)
(0.0641941 -0.119117 0)
(0.0561774 -0.119101 0)
(0.0552976 -0.117148 0)
(0.0572151 -0.113062 0)
(0.0651293 -0.109198 0)
(0.0751139 -0.105758 0)
(0.0851479 -0.103591 0)
(0.0930539 -0.102565 0)
(0.0984517 -0.102496 0)
(0.101507 -0.103118 0)
(0.10249 -0.104154 0)
(0.101284 -0.105393 0)
(0.0968512 -0.106686 0)
(0.0864097 -0.107955 0)
(0.0658539 -0.109175 0)
(0.0365579 -0.110244 0)
(0.0102659 -0.110837 0)
(-0.01066 -0.110789 0)
(-0.0376503 -0.109906 0)
(-0.0678525 -0.108433 0)
(-0.0891994 -0.10684 0)
(-0.100292 -0.105301 0)
(-0.10543 -0.103803 0)
(-0.107647 -0.102328 0)
(-0.1083 -0.100867 0)
(-0.107916 -0.0994203 0)
(-0.106637 -0.0979847 0)
(-0.104345 -0.0965727 0)
(-0.100713 -0.0952081 0)
(-0.0955957 -0.0939577 0)
(-0.0894749 -0.0928771 0)
(-0.0823166 -0.0916522 0)
(-0.068083 -0.0902053 0)
(-0.0542146 -0.08745 0)
(-0.263457 -0.0882009 0)
(-0.607482 -0.0775322 0)
(-0.369339 -0.0692796 0)
(0.429021 -0.0455109 0)
(0.673673 -0.115144 0)
(0.281156 -0.118903 0)
(0.0642557 -0.11896 0)
(0.0558741 -0.119417 0)
(0.0568046 -0.120323 0)
(0.060892 -0.116963 0)
(0.0687424 -0.113236 0)
(0.0779265 -0.10986 0)
(0.0868035 -0.107588 0)
(0.0936729 -0.106487 0)
(0.0982621 -0.106338 0)
(0.100782 -0.106855 0)
(0.101466 -0.107755 0)
(0.100135 -0.108833 0)
(0.0956774 -0.109967 0)
(0.0852302 -0.111135 0)
(0.0647024 -0.112394 0)
(0.035668 -0.113657 0)
(0.00995452 -0.114442 0)
(-0.0101795 -0.114407 0)
(-0.0364322 -0.113387 0)
(-0.0662981 -0.111722 0)
(-0.0876532 -0.110012 0)
(-0.0988269 -0.10844 0)
(-0.10402 -0.106964 0)
(-0.106272 -0.105544 0)
(-0.106954 -0.104165 0)
(-0.106594 -0.102817 0)
(-0.105348 -0.101509 0)
(-0.103109 -0.100233 0)
(-0.0995827 -0.0990761 0)
(-0.094632 -0.0980438 0)
(-0.0884868 -0.0972368 0)
(-0.0810838 -0.0960573 0)
(-0.0662698 -0.0946628 0)
(-0.0538983 -0.0928524 0)
(-0.258395 -0.0950579 0)
(-0.600142 -0.0810382 0)
(-0.367877 -0.0806348 0)
(0.417981 -0.0730354 0)
(0.658455 -0.104914 0)
(0.276819 -0.117049 0)
(0.0636985 -0.118132 0)
(0.054864 -0.118974 0)
(0.0576618 -0.120199 0)
(0.0640437 -0.117588 0)
(0.0719745 -0.114422 0)
(0.0805572 -0.111296 0)
(0.0883978 -0.109242 0)
(0.0942586 -0.108215 0)
(0.098097 -0.10811 0)
(0.100141 -0.108558 0)
(0.100584 -0.109321 0)
(0.0991523 -0.110221 0)
(0.0946323 -0.111199 0)
(0.0840706 -0.112299 0)
(0.0634243 -0.113642 0)
(0.0345847 -0.115126 0)
(0.00954317 -0.116098 0)
(-0.00964347 -0.116076 0)
(-0.0350637 -0.114936 0)
(-0.0646003 -0.113094 0)
(-0.0860365 -0.111272 0)
(-0.0973547 -0.109669 0)
(-0.102639 -0.108208 0)
(-0.104949 -0.106829 0)
(-0.105672 -0.105503 0)
(-0.105356 -0.104228 0)
(-0.104146 -0.102976 0)
(-0.102 -0.101829 0)
(-0.0986036 -0.100738 0)
(-0.0938232 -0.099899 0)
(-0.0875605 -0.0992029 0)
(-0.0798362 -0.0979378 0)
(-0.0649946 -0.0966691 0)
(-0.0545954 -0.095898 0)
(-0.252072 -0.0987702 0)
(-0.593583 -0.0815206 0)
(-0.36895 -0.085317 0)
(0.398302 -0.0632214 0)
(0.63126 -0.0978936 0)
(0.268418 -0.115156 0)
(0.0624001 -0.116563 0)
(0.0538827 -0.117812 0)
(0.0581403 -0.118813 0)
(0.0664592 -0.116844 0)
(0.0748058 -0.114093 0)
(0.0829179 -0.111388 0)
(0.0897728 -0.109459 0)
(0.0947638 -0.108681 0)
(0.0979312 -0.10856 0)
(0.0996155 -0.108939 0)
(0.0998633 -0.109541 0)
(0.098325 -0.110283 0)
(0.0936748 -0.111151 0)
(0.0828767 -0.112243 0)
(0.0619788 -0.113722 0)
(0.0333013 -0.115447 0)
(0.00903878 -0.116585 0)
(-0.0090605 -0.116575 0)
(-0.033559 -0.115334 0)
(-0.0627669 -0.113325 0)
(-0.0843524 -0.111395 0)
(-0.0958748 -0.109762 0)
(-0.101283 -0.108316 0)
(-0.103665 -0.106969 0)
(-0.104447 -0.105694 0)
(-0.104159 -0.104449 0)
(-0.103037 -0.103308 0)
(-0.100953 -0.102124 0)
(-0.0977227 -0.101293 0)
(-0.0931527 -0.100338 0)
(-0.0865969 -0.0998915 0)
(-0.0786421 -0.098487 0)
(-0.0643042 -0.0975364 0)
(-0.0559231 -0.0976131 0)
(-0.24454 -0.100536 0)
(-0.587178 -0.0809746 0)
(-0.371535 -0.0846691 0)
(0.38457 -0.0696821 0)
(0.608409 -0.0937581 0)
(0.258829 -0.114042 0)
(0.0611382 -0.115352 0)
(0.0526956 -0.116807 0)
(0.0585951 -0.117262 0)
(0.0685927 -0.115285 0)
(0.0772315 -0.113005 0)
(0.0850225 -0.11026 0)
(0.0910072 -0.108861 0)
(0.0951251 -0.108009 0)
(0.0978484 -0.107979 0)
(0.0991948 -0.108213 0)
(0.0992887 -0.108695 0)
(0.0976007 -0.109326 0)
(0.0927433 -0.110152 0)
(0.0815928 -0.111299 0)
(0.0603372 -0.112956 0)
(0.0318263 -0.11492 0)
(0.00845632 -0.116193 0)
(-0.0084382 -0.11619 0)
(-0.0319323 -0.114868 0)
(-0.0608041 -0.112703 0)
(-0.0826028 -0.110667 0)
(-0.0943877 -0.109006 0)
(-0.0999475 -0.107573 0)
(-0.102423 -0.106264 0)
(-0.103244 -0.105018 0)
(-0.103058 -0.10387 0)
(-0.101905 -0.102679 0)
(-0.100059 -0.101777 0)
(-0.0968826 -0.100696 0)
(-0.0924724 -0.100114 0)
(-0.0857768 -0.0995102 0)
(-0.0775667 -0.0982952 0)
(-0.0641525 -0.0977468 0)
(-0.0574855 -0.0984961 0)
(-0.236039 -0.101045 0)
(-0.578293 -0.0805356 0)
(-0.37251 -0.083446 0)
(0.375102 -0.0715783 0)
(0.588513 -0.0892698 0)
(0.247609 -0.1125 0)
(0.0597363 -0.114984 0)
(0.052043 -0.115862 0)
(0.0596067 -0.115407 0)
(0.0705607 -0.112944 0)
(0.0796482 -0.110631 0)
(0.086911 -0.108492 0)
(0.0919421 -0.106972 0)
(0.0956144 -0.106498 0)
(0.097734 -0.106272 0)
(0.0989249 -0.106471 0)
(0.0987909 -0.106834 0)
(0.0969216 -0.10742 0)
(0.0917737 -0.108262 0)
(0.0801746 -0.109512 0)
(0.0584891 -0.111367 0)
(0.0301821 -0.113552 0)
(0.00781468 -0.114922 0)
(-0.00778388 -0.114924 0)
(-0.0301987 -0.11354 0)
(-0.058719 -0.111234 0)
(-0.0807892 -0.109095 0)
(-0.0928931 -0.107407 0)
(-0.0986409 -0.105997 0)
(-0.101202 -0.104727 0)
(-0.10214 -0.103566 0)
(-0.101905 -0.102419 0)
(-0.10102 -0.101479 0)
(-0.0990425 -0.100315 0)
(-0.09612 -0.0997203 0)
(-0.0920102 -0.0986958 0)
(-0.0848443 -0.0982386 0)
(-0.0769428 -0.097385 0)
(-0.0644978 -0.09701 0)
(-0.0591015 -0.0983916 0)
(-0.227233 -0.100163 0)
(-0.570218 -0.079311 0)
(-0.37434 -0.0801014 0)
(0.367522 -0.0745826 0)
(0.568975 -0.0865389 0)
(0.23405 -0.112135 0)
(0.0578984 -0.115778 0)
(0.0522877 -0.114841 0)
(0.0614075 -0.112503 0)
(0.0731947 -0.109547 0)
(0.0815213 -0.107287 0)
(0.0885486 -0.105336 0)
(0.0929289 -0.104421 0)
(0.0958 -0.103686 0)
(0.0978744 -0.103521 0)
(0.0986529 -0.103532 0)
(0.0983741 -0.103843 0)
(0.096225 -0.104401 0)
(0.0907274 -0.105288 0)
(0.0786 -0.106658 0)
(0.0564439 -0.108708 0)
(0.0284012 -0.11108 0)
(0.00713468 -0.112507 0)
(-0.00710665 -0.11251 0)
(-0.0283767 -0.111089 0)
(-0.0565208 -0.108659 0)
(-0.078915 -0.106423 0)
(-0.0914021 -0.104721 0)
(-0.0973647 -0.103356 0)
(-0.10008 -0.102178 0)
(-0.101021 -0.101106 0)
(-0.101047 -0.100174 0)
(-0.0998777 -0.0992176 0)
(-0.0983637 -0.0984865 0)
(-0.0953225 -0.0975322 0)
(-0.0910446 -0.0967465 0)
(-0.0845136 -0.096292 0)
(-0.0763828 -0.0954619 0)
(-0.0651225 -0.0959651 0)
(-0.0605242 -0.0978205 0)
(-0.217652 -0.0989448 0)
(-0.558961 -0.0788201 0)
(-0.373272 -0.0767523 0)
(0.36358 -0.0756089 0)
(0.552326 -0.0822552 0)
(0.219433 -0.109608 0)
(0.0571286 -0.113542 0)
(0.055199 -0.110616 0)
(0.0647087 -0.107019 0)
(0.0755872 -0.103784 0)
(0.0837058 -0.102253 0)
(0.0896729 -0.100626 0)
(0.0935316 -0.0999646 0)
(0.0964815 -0.0993681 0)
(0.0978825 -0.09916 0)
(0.0986143 -0.099158 0)
(0.0979541 -0.0994154 0)
(0.095529 -0.0999604 0)
(0.0895983 -0.100878 0)
(0.0768788 -0.102344 0)
(0.0542282 -0.104558 0)
(0.0265216 -0.107071 0)
(0.00643636 -0.108517 0)
(-0.00641716 -0.10852 0)
(-0.0264871 -0.107086 0)
(-0.0542231 -0.104557 0)
(-0.0769948 -0.102242 0)
(-0.0899377 -0.100555 0)
(-0.0961907 -0.0992812 0)
(-0.0990337 -0.0982328 0)
(-0.100209 -0.0973169 0)
(-0.100086 -0.0964942 0)
(-0.0993936 -0.0956842 0)
(-0.0974184 -0.0949935 0)
(-0.0944433 -0.0940354 0)
(-0.0908151 -0.0933708 0)
(-0.0836064 -0.0922314 0)
(-0.0766278 -0.0919444 0)
(-0.0667706 -0.0925533 0)
(-0.0619728 -0.094662 0)
(-0.208923 -0.0949406 0)
(-0.548833 -0.0747262 0)
(-0.372347 -0.0716089 0)
(0.361117 -0.0761136 0)
(0.536213 -0.0806711 0)
(0.203901 -0.107525 0)
(0.0569267 -0.109046 0)
(0.0585736 -0.105421 0)
(0.0679912 -0.0995939 0)
(0.0777873 -0.0978367 0)
(0.084564 -0.0952481 0)
(0.0907543 -0.0951125 0)
(0.0941413 -0.093848 0)
(0.0965754 -0.093694 0)
(0.0980768 -0.0933282 0)
(0.0984067 -0.0933909 0)
(0.0976008 -0.0936335 0)
(0.0948161 -0.0941624 0)
(0.0884308 -0.0950632 0)
(0.0750535 -0.0965671 0)
(0.0518885 -0.0988944 0)
(0.0245865 -0.101505 0)
(0.00573884 -0.102939 0)
(-0.00572861 -0.102941 0)
(-0.0245581 -0.101519 0)
(-0.0518522 -0.0989142 0)
(-0.0750586 -0.096547 0)
(-0.0885493 -0.0949202 0)
(-0.095127 -0.0937872 0)
(-0.0981872 -0.0928964 0)
(-0.0993453 -0.0921465 0)
(-0.0994736 -0.0914111 0)
(-0.0984315 -0.0909381 0)
(-0.0967749 -0.0900219 0)
(-0.0937588 -0.0899519 0)
(-0.0893062 -0.0883704 0)
(-0.0831391 -0.0883871 0)
(-0.076693 -0.0876545 0)
(-0.0677413 -0.0892228 0)
(-0.0628247 -0.0917289 0)
(-0.198441 -0.0918963 0)
(-0.536478 -0.0730461 0)
(-0.370268 -0.0673191 0)
(0.359189 -0.0721 0)
(0.522057 -0.0777484 0)
(0.19209 -0.10272 0)
(0.059156 -0.10163 0)
(0.0643074 -0.0976548 0)
(0.0720171 -0.0903818 0)
(0.079775 -0.088888 0)
(0.0863309 -0.0866192 0)
(0.0910221 -0.0860078 0)
(0.0948986 -0.0856447 0)
(0.0969824 -0.0854016 0)
(0.0981745 -0.085788 0)
(0.0983201 -0.0863172 0)
(0.0972106 -0.0870505 0)
(0.0941513 -0.0878772 0)
(0.0872811 -0.0889154 0)
(0.0731869 -0.090467 0)
(0.0494695 -0.0928499 0)
(0.0226241 -0.0954867 0)
(0.00505285 -0.0968685 0)
(-0.00504904 -0.0968696 0)
(-0.0226067 -0.0954959 0)
(-0.0494317 -0.0928726 0)
(-0.073146 -0.0904862 0)
(-0.0872782 -0.088884 0)
(-0.0942404 -0.08772 0)
(-0.0974527 -0.0866685 0)
(-0.0987781 -0.0855867 0)
(-0.0989211 -0.084574 0)
(-0.0980549 -0.0835218 0)
(-0.0964681 -0.0829951 0)
(-0.0928518 -0.0821842 0)
(-0.0893072 -0.0818153 0)
(-0.0829165 -0.0817556 0)
(-0.0774331 -0.0817688 0)
(-0.0706969 -0.0845027 0)
(-0.064549 -0.0874206 0)
(-0.19092 -0.0875946 0)
(-0.525149 -0.0691966 0)
(-0.366829 -0.0606091 0)
(0.355674 -0.0671164 0)
(0.506707 -0.0742723 0)
(0.180888 -0.0964582 0)
(0.0618073 -0.0950945 0)
(0.0694125 -0.090738 0)
(0.0764392 -0.0840968 0)
(0.081413 -0.0814837 0)
(0.0873395 -0.0791001 0)
(0.0916933 -0.0782154 0)
(0.0947254 -0.0774972 0)
(0.0964373 -0.0775903 0)
(0.0971946 -0.0780914 0)
(0.0971901 -0.0790604 0)
(0.0960976 -0.0802542 0)
(0.0930191 -0.0815564 0)
(0.0859352 -0.082911 0)
(0.0712621 -0.0845929 0)
(0.0470512 -0.0870356 0)
(0.0207141 -0.0896891 0)
(0.00440627 -0.0910118 0)
(-0.00440593 -0.0910122 0)
(-0.0207064 -0.0896937 0)
(-0.0470247 -0.0870526 0)
(-0.071215 -0.0846226 0)
(-0.0858837 -0.0829341 0)
(-0.0929921 -0.0815313 0)
(-0.0961315 -0.0801174 0)
(-0.0973269 -0.0787263 0)
(-0.0974837 -0.0774585 0)
(-0.09691 -0.0765247 0)
(-0.0954859 -0.0758907 0)
(-0.0926218 -0.0758026 0)
(-0.0888933 -0.0759962 0)
(-0.0830943 -0.0767033 0)
(-0.0793402 -0.0785671 0)
(-0.0731875 -0.0818126 0)
(-0.0658041 -0.0850732 0)
(-0.18088 -0.0846057 0)
(-0.510474 -0.0663126 0)
(-0.361993 -0.0551115 0)
(0.352293 -0.0511709 0)
(0.493783 -0.0667673 0)
(0.172025 -0.0862276 0)
(0.0646682 -0.0865957 0)
(0.0749052 -0.0829142 0)
(0.0809349 -0.0770092 0)
(0.0845901 -0.0742535 0)
(0.0894804 -0.0704002 0)
(0.0925666 -0.0692446 0)
(0.0955009 -0.0673731 0)
(0.0964099 -0.0664971 0)
(0.0967579 -0.0659056 0)
(0.096236 -0.0659153 0)
(0.0948054 -0.0666384 0)
(0.0915911 -0.0681157 0)
(0.0843549 -0.0702586 0)
(0.0692123 -0.0728786 0)
(0.0445586 -0.0757882 0)
(0.0187925 -0.0783155 0)
(0.00377788 -0.079434 0)
(-0.00377882 -0.0794341 0)
(-0.018791 -0.0783169 0)
(-0.0445451 -0.0757973 0)
(-0.0691773 -0.0729029 0)
(-0.0842993 -0.0702968 0)
(-0.0915262 -0.0681526 0)
(-0.0947498 -0.0666424 0)
(-0.0962159 -0.0658379 0)
(-0.0967995 -0.065682 0)
(-0.0965442 -0.0660358 0)
(-0.0957723 -0.066597 0)
(-0.0929535 -0.0679613 0)
(-0.0901751 -0.0686731 0)
(-0.0853938 -0.0714778 0)
(-0.0823567 -0.0737119 0)
(-0.0769664 -0.0775715 0)
(-0.0672405 -0.0801901 0)
(-0.172842 -0.0780952 0)
(-0.496728 -0.0611828 0)
(-0.356035 -0.0414192 0)
(0.340645 -0.0110178 0)
(0.472925 -0.0474227 0)
(0.16178 -0.065271 0)
(0.0650002 -0.0696442 0)
(0.0786504 -0.0700269 0)
(0.084785 -0.0676435 0)
(0.0877817 -0.0665321 0)
(0.0921663 -0.064337 0)
(0.0946104 -0.0633261 0)
(0.097373 -0.0614383 0)
(0.0978515 -0.0596107 0)
(0.0977552 -0.057524 0)
(0.096484 -0.055524 0)
(0.0939772 -0.0539611 0)
(0.0895305 -0.0533299 0)
(0.0813455 -0.0541145 0)
(0.0659336 -0.0564936 0)
(0.041812 -0.0599402 0)
(0.0172008 -0.0629183 0)
(0.0033284 -0.0640759 0)
(-0.00332938 -0.0640758 0)
(-0.0172019 -0.0629181 0)
(-0.0418075 -0.0599431 0)
(-0.0659145 -0.0565067 0)
(-0.0813061 -0.0541432 0)
(-0.0894706 -0.053373 0)
(-0.093901 -0.0540081 0)
(-0.0964015 -0.0555541 0)
(-0.0976744 -0.0575042 0)
(-0.0977918 -0.0594974 0)
(-0.0973414 -0.0611824 0)
(-0.0946224 -0.062839 0)
(-0.0922819 -0.0636164 0)
(-0.0879499 -0.0653099 0)
(-0.0852122 -0.0661187 0)
(-0.0794301 -0.0675041 0)
(-0.0663089 -0.066367 0)
(-0.162564 -0.0608462 0)
(-0.475131 -0.0439411 0)
(-0.342948 -0.00470561 0)
(0.317212 -0.075064 0)
(0.441502 -0.143353 0)
(0.150612 -0.155174 0)
(0.0600853 -0.166485 0)
(0.0768331 -0.177111 0)
(0.0843025 -0.185009 0)
(0.0877764 -0.19578 0)
(0.0925698 -0.203742 0)
(0.0953599 -0.214423 0)
(0.0990813 -0.223655 0)
(0.100182 -0.233474 0)
(0.100696 -0.24275 0)
(0.0996694 -0.251563 0)
(0.0969197 -0.259192 0)
(0.0914432 -0.26542 0)
(0.0813063 -0.270453 0)
(0.0635984 -0.275363 0)
(0.0383675 -0.280927 0)
(0.0148072 -0.285407 0)
(0.0026625 -0.286958 0)
(-0.00266318 -0.286958 0)
(-0.0148086 -0.285407 0)
(-0.0383668 -0.280927 0)
(-0.0635883 -0.27537 0)
(-0.0812796 -0.270474 0)
(-0.091396 -0.26546 0)
(-0.0968516 -0.259251 0)
(-0.0995849 -0.251634 0)
(-0.100599 -0.242816 0)
(-0.100089 -0.233517 0)
(-0.0989924 -0.223643 0)
(-0.095299 -0.214327 0)
(-0.0925562 -0.203535 0)
(-0.0878051 -0.195377 0)
(-0.0844711 -0.184447 0)
(-0.0772057 -0.176144 0)
(-0.0608247 -0.165088 0)
(-0.151231 -0.153099 0)
(-0.442629 -0.141623 0)
(-0.318226 -0.0723411 0)
(0.274839 -0.287994 0)
(0.395728 -0.413045 0)
(0.13949 -0.461019 0)
(0.0438617 -0.494266 0)
(0.0608002 -0.5175 0)
(0.0667943 -0.531589 0)
(0.0697298 -0.547294 0)
(0.0742015 -0.559347 0)
(0.0754211 -0.572654 0)
(0.0790145 -0.58344 0)
(0.0794511 -0.595533 0)
(0.0803243 -0.604107 0)
(0.0806399 -0.613337 0)
(0.0806238 -0.620447 0)
(0.0786788 -0.628082 0)
(0.0717639 -0.63791 0)
(0.0558407 -0.652145 0)
(0.0321332 -0.66799 0)
(0.0113885 -0.677788 0)
(0.00183402 -0.68027 0)
(-0.00183432 -0.68027 0)
(-0.0113899 -0.677788 0)
(-0.0321358 -0.667988 0)
(-0.0558415 -0.652146 0)
(-0.0717568 -0.63792 0)
(-0.0786558 -0.628112 0)
(-0.0805773 -0.620507 0)
(-0.080564 -0.613437 0)
(-0.0802159 -0.604252 0)
(-0.0793159 -0.595728 0)
(-0.0788494 -0.583672 0)
(-0.0752457 -0.572924 0)
(-0.0740215 -0.559616 0)
(-0.0695565 -0.547543 0)
(-0.0666787 -0.531777 0)
(-0.0607749 -0.517511 0)
(-0.0441018 -0.493983 0)
(-0.139952 -0.460195 0)
(-0.39731 -0.412116 0)
(-0.276185 -0.286175 0)
(0.196708 -0.2074 0)
(0.274769 -0.28848 0)
(0.0723448 -0.332923 0)
(0.00565821 -0.358159 0)
(0.0408676 -0.372569 0)
(0.0555916 -0.378843 0)
(0.0610277 -0.384194 0)
(0.0681325 -0.387874 0)
(0.0721428 -0.390492 0)
(0.0770342 -0.391276 0)
(0.0802667 -0.392547 0)
(0.0835394 -0.39043 0)
(0.0839232 -0.38921 0)
(0.0827103 -0.387022 0)
(0.0746149 -0.387045 0)
(0.0581187 -0.39124 0)
(0.0346127 -0.401205 0)
(0.0136568 -0.413269 0)
(0.00297362 -0.420379 0)
(0.000270994 -0.422001 0)
(-0.000270992 -0.422001 0)
(-0.00297367 -0.420379 0)
(-0.0136571 -0.413267 0)
(-0.0346134 -0.401203 0)
(-0.0581198 -0.391238 0)
(-0.0746159 -0.387051 0)
(-0.0827105 -0.387046 0)
(-0.0839214 -0.389265 0)
(-0.0835343 -0.39053 0)
(-0.0802567 -0.392708 0)
(-0.0770178 -0.391506 0)
(-0.0721177 -0.390808 0)
(-0.0680978 -0.38826 0)
(-0.0609787 -0.38466 0)
(-0.0555317 -0.379358 0)
(-0.0407857 -0.373093 0)
(-0.00559223 -0.358615 0)
(-0.0723412 -0.33313 0)
(-0.274937 -0.288453 0)
(-0.196865 -0.20614 0)
(0.196708 0.2074 0)
(0.274769 0.28848 0)
(0.0723448 0.332923 0)
(0.00565821 0.358159 0)
(0.0408676 0.372569 0)
(0.0555916 0.378843 0)
(0.0610277 0.384194 0)
(0.0681325 0.387874 0)
(0.0721428 0.390492 0)
(0.0770342 0.391276 0)
(0.0802667 0.392547 0)
(0.0835394 0.39043 0)
(0.0839232 0.38921 0)
(0.0827103 0.387022 0)
(0.0746149 0.387045 0)
(0.0581187 0.39124 0)
(0.0346127 0.401205 0)
(0.0136568 0.413269 0)
(0.00297362 0.420379 0)
(0.000270994 0.422001 0)
(-0.000270992 0.422001 0)
(-0.00297367 0.420379 0)
(-0.0136571 0.413267 0)
(-0.0346134 0.401203 0)
(-0.0581198 0.391238 0)
(-0.0746159 0.387051 0)
(-0.0827105 0.387046 0)
(-0.0839214 0.389265 0)
(-0.0835343 0.39053 0)
(-0.0802567 0.392708 0)
(-0.0770178 0.391506 0)
(-0.0721177 0.390808 0)
(-0.0680978 0.38826 0)
(-0.0609787 0.38466 0)
(-0.0555317 0.379358 0)
(-0.0407857 0.373093 0)
(-0.00559223 0.358615 0)
(-0.0723412 0.33313 0)
(-0.274937 0.288453 0)
(-0.196865 0.20614 0)
(0.274839 0.287994 0)
(0.395728 0.413045 0)
(0.13949 0.461019 0)
(0.0438617 0.494266 0)
(0.0608002 0.5175 0)
(0.0667943 0.531589 0)
(0.0697298 0.547294 0)
(0.0742015 0.559347 0)
(0.0754211 0.572654 0)
(0.0790145 0.58344 0)
(0.0794511 0.595533 0)
(0.0803243 0.604107 0)
(0.0806399 0.613337 0)
(0.0806238 0.620447 0)
(0.0786788 0.628082 0)
(0.0717639 0.63791 0)
(0.0558407 0.652145 0)
(0.0321332 0.66799 0)
(0.0113885 0.677788 0)
(0.00183402 0.68027 0)
(-0.00183432 0.68027 0)
(-0.0113899 0.677788 0)
(-0.0321358 0.667988 0)
(-0.0558415 0.652146 0)
(-0.0717568 0.63792 0)
(-0.0786558 0.628112 0)
(-0.0805773 0.620507 0)
(-0.080564 0.613437 0)