/*--------------------------------*- C++ -*----------------------------------*\
| =========                 |                                                 |
| \\      /  F ield         | OpenFOAM: The Open Source CFD Toolbox           |
|  \\    /   O peration     | Version:  v1912                                 |
|   \\  /    A nd           | Website:  www.openfoam.com                      |
|    \\/     M anipulation  |                                                 |
\*---------------------------------------------------------------------------*/
FoamFile
{
    version     2.0;
    format      ascii;
    class       volScalarField;
    location    "0.00035";
    object      internalE;
}
// * * * * * * * * * * * * * * * * * * * * * * * * * * * * * * * * * * * * * //

dimensions      [1 -1 -2 0 0 0 0];


internalField   nonuniform List<scalar> 
1300
(
4797.788452
3864.888664
5545.88161
16110.81714
6984.977343
3354.986303
7177.007199
12609.13183
5264.939886
13575.93829
1043.587152
599.7336938
2737.476027
4641.935673
6334.787276
7255.615383
11895.89877
6968.169077
12581.97248
8592.849549
834.2155249
588.0719952
672.501701
11869.90072
8065.03408
6105.613114
2781.999705
7417.156261
8733.131828
10015.49974
0
0
4837.965137
7740.202143
2252.022075
2248.215473
4640.06422
10071.7809
13876.5736
6261.294475
673.9273808
0
1510.923199
6944.979826
8469.161734
1489.702231
4964.85659
5727.234225
2612.293204
6337.527673
0
0
7461.200947
9425.603501
3819.6531
1513.512234
1657.543724
5946.598938
5850.955958
4347.980695
0
2624.490773
1494.443178
7026.727398
8048.746002
2719.684106
3053.119156
3899.614211
5462.685212
3619.915312
0
0
1595.196457
5278.770863
2447.100786
1602.267464
3171.127686
2241.117461
14733.12956
3964.614602
83.95136993
0
3809.016982
12354.05594
821.8520701
2405.634406
3440.271737
7926.440842
8867.06833
4714.455664
0
0
1106.945986
7326.754181
1647.643047
3233.145745
3441.809125
4810.829665
2445.376846
4079.3033
0
0
565.3583582
7680.700675
5081.626226
3551.657349
3420.00457
3927.263085
3187.452939
4440.236867
0
30.25369744
1818.956263
6503.772256
2523.391812
1273.461163
3850.693464
3680.109287
5013.366063
9310.530854
265.3896607
0
1510.315838
7458.528535
3712.054337
3551.971888
6165.02523
2102.232841
3140.806221
3095.543152
0
0
1294.052572
9410.15712
6852.304149
554.0264661
2553.650279
3398.20736
6375.968228
3537.067646
0
0
3160.504849
6138.160867
7353.148842
1466.644019
3592.882658
4622.238026
6453.71982
4864.734047
0
0
2014.920841
7750.528591
2862.566565
976.9146214
3931.518754
5810.268833
4345.26089
3785.81585
0
0
1905.819746
6893.17243
4965.318597
2002.549627
4560.140402
4383.853919
2474.420977
2185.235235
0
0
1886.531464
12488.97519
4562.381822
694.5171749
2733.168229
5798.665097
4214.958904
2869.754634
0
101.6639811
1224.045143
4519.988735
3843.631655
233.3717297
1682.99477
6076.149286
3220.128299
4392.034926
0
0
808.2570279
7169.795883
3962.418774
2322.07208
1545.042893
5432.577133
4912.067765
3263.222682
5606.079426
10708.65847
9123.735624
3350.761411
9547.12237
8510.895108
6302.71937
7497.670366
3435.616637
3180.91261
7983.449531
6183.833618
11585.15149
6884.758548
5638.657393
2159.508074
3179.951517
7021.234805
10850.28054
9745.844171
6441.662156
13278.39837
11351.84973
6269.717583
2598.794908
11629.61097
4875.188256
6936.856463
3488.034669
11259.70633
8252.490065
3648.359161
7870.496038
2941.582227
9670.892853
3672.514306
6685.411575
11142.87126
6738.692227
3558.992049
4205.322156
7865.713176
5883.806479
5630.820105
5903.259459
6182.134946
5793.104837
10468.89708
11570.17341
5203.399506
8572.095263
8878.037294
4383.536372
2571.522116
4235.413265
4209.459414
9490.196435
11152.18338
11629.15781
2770.834797
3438.183277
2468.255716
3036.998411
4109.457419
6326.83323
4394.487879
4628.526163
5599.588065
11606.65477
9059.635207
6288.162411
15847.01232
6827.867819
8221.731304
1448.998553
13650.27982
6487.846444
6940.263604
7957.061939
5364.435253
2278.481163
5759.264968
6074.382915
8049.080962
12980.11538
4357.163931
10677.0546
6922.906623
4551.311144
17085.31225
7816.404143
9743.42821
5989.311959
6664.942182
2569.507062
9955.128741
2196.960207
9845.119276
7317.190076
9907.540453
7337.131724
2086.642203
1964.388062
6066.858779
10091.07343
7518.573472
3542.776522
6962.849929
16637.08072
5301.428817
9923.327564
10103.29775
4721.346639
5467.033238
7081.647004
6813.621742
8461.135318
9708.899233
15280.63384
5852.947392
6606.699694
6343.820971
3503.475449
3773.485322
7628.38045
2929.231569
1991.746504
6810.766816
6284.347257
13714.02059
7457.483207
3113.784134
10609.38782
10956.04527
8540.760353
2053.505209
3919.732041
13331.50389
8647.906417
8344.384625
6304.387414
12829.4607
7905.30881
9259.029154
11756.08285
9815.632845
9670.296353
7737.562976
14351.61839
2255.091042
6189.031695
11118.49222
9421.040782
8694.649269
5598.67861
5040.827428
5325.481946
2488.471159
8773.430506
8990.846768
13575.31338
10511.00444
10351.98287
7057.386222
5044.888925
5534.939753
6820.78118
4125.163213
8923.942477
17765.11735
7138.958079
6267.865147
8039.473103
4019.718505
4728.804427
4682.552475
6088.818236
4696.797209
3576.830039
15076.57502
7486.632267
5706.016597
5773.468523
7583.604574
7755.934573
7167.977379
5823.919867
9323.720055
3081.658183
5698.473764
4667.795194
8679.657824
3121.002698
8700.027732
4372.706209
4398.850772
1501.818311
8682.171372
4252.57688
4797.728995
2410.829576
12083.58997
5750.881015
5856.856777
1922.287642
2747.851339
3360.590402
2027.708457
8819.132417
4600.03209
3861.737078
4373.18238
3632.677468
970.3679137
6493.66918
7729.076232
10545.56039
2387.425816
8750.168127
3864.460068
8347.629579
9918.115916
3771.545446
10447.98449
4981.503489
8980.587808
8372.951136
3512.071908
12604.75024
11029.85495
4948.642175
10639.46938
3541.909708
8160.780973
7267.567739
6567.072162
8794.205057
7855.114386
9128.117379
6834.609313
6401.81575
7859.618922
8507.079897
1775.654306
4999.21665
8553.046882
5194.574999
6406.704952
6158.986797
8719.967555
8318.035738
12588.76531
5333.693244
9378.162075
6351.258704
2773.130134
3616.031604
7500.930023
6611.67596
10575.58075
8458.441809
4337.480238
4474.341307
5967.519796
3104.893056
4825.259744
6800.321396
7701.825632
10467.78679
6758.129488
4150.309075
7525.878804
2611.113745
11577.47395
4807.682675
6506.236084
8688.248771
5975.792318
3936.462571
5088.077232
13790.19481
5070.273411
4467.52577
10076.75815
9048.560635
6077.58814
5114.458137
8416.587254
7280.080033
3644.466822
5045.285311
6097.382613
2192.471704
3757.174313
9622.856386
5670.653546
6701.895207
2904.60165
2541.627536
9953.028837
6671.2601
4266.579156
4184.911413
5127.97541
4047.071862
5946.925834
6015.839748
5464.102814
7091.834493
4312.237603
4646.33241
5127.755092
4103.377902
5643.368688
7503.551127
4080.25219
7505.540086
3854.486976
7148.798494
7533.595053
6948.607588
7126.536947
5850.573064
8443.916375
5392.47552
5422.547018
5634.220201
8672.31818
5439.905578
8553.456521
4272.236848
6022.278191
6046.107261
3122.355067
6852.900695
2137.248697
4092.50912
3006.728446
8278.624097
5564.486832
2850.987948
6616.964329
2853.34363
10115.99109
4553.183729
7543.859814
4281.174347
7968.905003
6648.879299
8731.657988
7902.055234
9487.761059
2657.148042
6121.786777
6372.307044
11319.64302
7948.260187
8362.016297
5906.978966
10755.3338
4036.978264
4858.04586
2674.786783
929.3664533
5475.626917
5256.406844
3088.922024
4819.366725
4501.751182
8728.073185
5650.882562
8005.353493
14362.97584
3900.303112
8144.415825
7217.059324
3961.321174
8126.321287
5829.899554
5212.317002
6985.696399
9453.418168
5490.641949
7985.481509
8654.217238
7245.413743
6578.216454
6876.370475
6052.521441
8367.631315
4066.584156
3941.006955
3720.733449
4127.70144
3431.140073
2842.418778
3231.826873
3612.925695
5126.972858
4125.21117
2993.897599
3952.197205
7449.077658
3591.417335
1322.902178
5016.056881
8272.20542
4922.959687
8841.238042
3351.131486
3528.933833
6335.339361
3891.972887
4694.513708
5227.483776
2108.321415
5036.267225
9433.554426
8868.238055
5901.867849
3360.265471
1864.425528
3296.205752
3201.712581
4034.666606
1879.287764
2821.813655
3806.601269
3820.628696
3753.652452
5706.680857
5890.792775
3127.326331
1841.334533
4761.214502
4696.317978
5481.236137
8719.502382
7616.805203
6937.457718
6577.107677
3239.841232
8128.459099
6712.727958
4298.398719
3475.314904
6224.904665
5919.790479
12996.09418
4124.465337
3381.526973
10341.65459
3917.823029
2337.343011
3035.356979
5124.583649
3253.100714
1451.352428
3425.29446
6453.256466
4265.994006
5221.450235
4344.954548
3115.432222
4516.332074
4064.821078
4480.037136
5895.02017
2463.590615
10297.99994
3727.530339
5085.309965
4256.418478
6827.444782
6187.303883
7165.49041
5389.775176
7075.321426
7138.368691
8388.277503
2302.648426
5216.67333
5195.346603
6268.246191
1903.397758
2344.438466
3794.533175
5165.330216
4004.575814
3655.351545
2557.917182
4669.653092
7550.918008
2896.293503
5137.394358
4788.640317
5238.914499
5517.671291
4682.389653
6986.648431
6697.885206
5291.304908
7586.707422
3565.224712
7735.379928
9320.229593
4962.215408
4761.667652
6125.798024
11333.97715
2714.307471
6309.088987
5719.940099
5693.048733
5163.789445
2603.403021
5369.465192
3618.061366
2799.521821
3785.484303
7111.617302
4043.030359
4992.67107
5550.005301
3135.476818
1272.347118
6488.687431
7130.307846
7361.00039
5674.254297
5209.770618
5055.291164
6919.270161
5845.757435
4568.012541
6104.552508
3923.630397
6861.943596
9544.886662
7128.857408
4483.421539
6611.978727
2833.226728
4693.555905
5124.827105
5583.225982
2694.483484
8258.270747
3119.947277
4723.894529
1826.795936
2366.908022
6633.319887
3591.428325
3907.35112
4771.999489
7382.171624
2906.866895
2250.147837
6264.241356
3530.007563
4668.106301
4032.607615
7693.202833
7653.085922
6112.475872
9304.564596
5911.865141
6969.998645
7351.594659
3673.55454
2255.315978
2936.240113
2136.378009
4904.876777
4514.241932
4826.36523
4276.517086
7514.177298
2996.557417
4954.227036
4940.807787
7031.343024
3995.126132
4422.460906
4727.830424
5531.763591
5783.201142
7235.86041
5967.766707
3697.144743
4715.058559
5607.357717
3293.055471
3841.489579
10053.72308
5117.15001
3362.030703
7007.54962
7339.534228
5479.335252
3235.861645
2852.221109
10278.73393
5596.915675
6083.664997
3114.766084
2558.074049
3315.055244
109.441098
12549.23955
1205.294463
7411.858947
8558.374818
1593.787589
11139.17313
5449.279259
8772.145629
10812.27324
0
10845.60391
16485.5603
2094.920755
14374.48879
3732.082073
11332.53416
11460.44479
9443.496462
2233.690786
2437.698292
2402.448577
12803.17727
3806.30274
8858.983376
7510.312442
5995.103683
3132.568313
7280.87098
4843.058371
4671.356714
13569.97636
14172.42986
10687.99568
14798.34356
15082.43083
7067.448247
13760.91006
2626.932288
4528.135154
4979.181515
2072.951567
5345.689765
6468.6707
15543.68237
9681.375262
1153.599489
8249.247257
6419.348801
9559.03844
889.4433919
7916.380388
10567.20312
11134.10882
6381.118301
8213.152237
8870.422657
9822.011007
4601.645377
5277.257635
2971.515319
7310.752571
9498.336062
13330.60996
3320.6339
7113.900492
7455.134457
10455.18293
1534.369529
0
6940.817277
11241.7938
10033.1735
12373.3157
9613.84185
5741.226141
7394.315772
3978.624209
16203.86154
3752.864663
3659.141484
5373.27991
1623.220558
11901.15173
8309.473238
14034.14017
14301.03806
8982.974532
5139.991666
4908.694472
0
6092.455562
7259.032793
11471.2397
8119.156771
6550.523506
3993.933695
8220.694451
8354.992313
6932.926344
6981.367489
5221.914224
9130.226559
9389.448468
9868.69408
8101.897672
8561.534005
5180.451748
4085.723661
14008.8479
3567.990731
9942.052965
4441.67614
13083.20136
1026.873383
11436.24563
13099.36082
12588.84457
4639.998134
7856.38292
16012.28062
13664.19286
9728.614833
7371.410555
7984.48323
5746.90103
10972.9866
17063.49506
17266.23804
7980.348889
4596.265298
5459.374692
9422.69939
5500.739387
15046.99429
3939.855221
7264.343241
7208.323491
8047.096417
13277.89737
13988.45288
6728.751945
3943.916577
6035.563815
10775.80921
9231.390193
7115.295766
6530.575305
4773.400466
8983.843681
8375.035653
6190.480985
9140.064541
7094.253264
8014.919141
3990.899801
6781.489275
9080.033892
11632.3727
12388.27449
5351.6279
10148.54282
4792.541586
2504.17886
6170.133099
6579.80484
8565.195501
11454.11371
6608.016752
16721.89212
10072.87079
1809.612173
6590.381967
6720.479258
11132.31653
8400.54127
7613.559231
13076.40609
6265.539659
8283.672272
3709.870602
4262.117325
9801.766928
5383.217593
5084.727929
9473.753456
10916.23796
7702.155173
6255.189624
12406.72197
1947.584218
8325.467826
2604.633773
7951.431254
6028.352385
8101.227392
3805.132686
4304.681619
4613.018263
4298.599628
3830.92033
6725.667956
5025.227385
2184.833959
5252.998873
7369.728448
11475.11674
3823.654554
4045.606138
4726.707647
3270.462676
3393.457469
7353.928955
1639.469904
6100.276074
12769.13396
10333.00086
3200.018041
2293.662794
4342.06408
3400.383614
4200.201576
2813.48704
5669.658713
13448.87247
10903.37311
5029.333736
10227.85561
4616.380873
4143.409702
7273.429281
6817.64227
5512.668902
3836.366227
7287.44183
9209.433785
6412.370596
13738.15154
2811.640401
13933.99729
11496.38137
3543.232955
10100.34909
6097.433666
8281.687924
3281.880191
4065.889654
13695.6743
17088.9569
4194.601438
7504.070139
3010.094785
8557.933626
1619.606692
6744.193387
10201.28628
6484.102846
3328.264839
6009.3326
9977.226079
4896.33375
3235.319137
5393.976314
7613.235436
3216.322408
2006.891984
7828.533252
6698.423877
1963.040551
9619.178827
6797.412688
4868.469566
2189.967982
9071.519919
10624.90779
7341.549128
6698.847455
11760.62087
21054.57741
9932.208659
6583.355787
9927.431665
1474.860564
1577.578149
2855.895196
4633.799136
11587.00827
3572.856544
10208.12538
4556.474208
9206.335521
6940.969122
14350.73088
9818.598145
7585.391959
6044.556681
2518.450442
6787.515602
7222.614262
8696.537306
6793.175097
3426.755218
5784.136447
9601.079213
3997.134683
12423.84964
2351.186511
11324.34263
5424.53925
7774.077566
2860.151974
4227.102403
10030.28604
7582.42641
8305.571504
2516.267327
7221.99646
2371.10109
5888.914984
13733.15791
4694.244643
8409.344619
1351.105708
6042.144898
3188.916338
10746.02869
6050.427297
4575.623822
7969.874266
11294.34588
8997.377414
11098.73246
10691.25855
835.5967946
6121.24034
5105.06574
7037.814457
6473.552518
8426.342965
4965.937548
6445.01534
3773.080574
5859.59866
4488.604955
9832.592017
5449.297165
10775.66897
2924.534727
4373.147612
4243.993882
5833.279254
7934.960625
6291.720749
3241.922184
7011.01621
4552.796952
4029.60544
5024.878893
10424.80519
2705.863218
5855.855884
4189.496947
1803.181412
10243.53149
12427.38721
15697.95073
5077.013465
10302.09897
5349.515237
7978.395861
4929.862502
5606.701201
8760.943408
756.6692539
3113.09992
5281.4846
7388.817061
4660.176353
8818.752558
7636.053994
6579.36947
4095.666622
9769.9399
6956.654902
2509.281098
8675.591527
5172.460391
5934.998229
10209.21288
9677.721952
5725.452253
6217.707514
13987.63366
6173.768555
6204.676005
7644.229055
8105.892623
8699.529222
15529.90658
4184.803552
6806.135752
7990.373062
885.6447332
4941.258572
6422.259104
2750.706184
6154.572254
9827.049593
7500.637858
18266.86581
15201.53999
16175.31391
5872.665898
13615.16091
8662.640015
7969.288618
2409.511392
6261.741892
7725.779098
7658.397074
2104.557215
2969.003345
8703.482124
2706.430921
13319.44443
4406.466282
6286.855426
10949.37741
9917.918618
11794.12582
6658.47785
4893.463767
4971.650682
6439.047893
6845.769718
7269.71112
12935.72295
7239.127227
3356.152619
14139.04735
13355.57986
11084.63666
2297.033037
2618.905335
5170.063942
4630.237988
4864.019943
7398.721413
9047.798183
422.9428142
8003.349226
4936.962842
4288.882459
9148.896988
12631.39645
2723.343175
3703.543922
12803.02311
5416.372265
9819.892597
7679.275962
1176.410031
10624.56036
9016.25051
4249.094717
9779.158364
11243.89527
14385.11282
6286.4252
3180.356058
2903.094979
10406.93636
10547.33933
9302.013284
6745.848572
7805.501692
6316.068378
14041.42212
8843.69772
7609.065681
6568.916909
4058.97592
3300.126473
4735.435155
6741.468008
6480.919452
9277.450439
9110.908017
7024.59423
8954.580396
5390.18279
)
;

boundaryField
{
    inlet
    {
        type            zeroGradient;
    }
    outlet
    {
        type            zeroGradient;
    }
    wall
    {
        type            calculated;
        value           uniform 0;
    }
    frontAndBack
    {
        type            empty;
    }
}


// ************************************************************************* //
