/*--------------------------------*- C++ -*----------------------------------*\
| =========                 |                                                 |
| \\      /  F ield         | OpenFOAM: The Open Source CFD Toolbox           |
|  \\    /   O peration     | Version:  v1912                                 |
|   \\  /    A nd           | Website:  www.openfoam.com                      |
|    \\/     M anipulation  |                                                 |
\*---------------------------------------------------------------------------*/
FoamFile
{
    version     2.0;
    format      ascii;
    class       volScalarField;
    location    "7";
    object      Ma;
}
// * * * * * * * * * * * * * * * * * * * * * * * * * * * * * * * * * * * * * //

dimensions      [0 0 0 0 0 0 0];


internalField   nonuniform List<scalar> 
1900
(
0.636827
0.0152751
0.0870592
0.0857035
0.0885559
0.091572
0.0953692
0.0994627
0.101756
0.0945853
0.636827
0.0152757
0.0870582
0.0857009
0.0885431
0.0915169
0.0952862
0.0989542
0.103477
0.106075
0.636827
0.0152758
0.0870569
0.085698
0.0885304
0.0914778
0.0952221
0.0990444
0.103992
0.112472
0.636827
0.0152757
0.0870582
0.0857009
0.0885431
0.0915169
0.0952862
0.0989542
0.103477
0.106075
0.636827
0.0152751
0.0870592
0.0857035
0.0885559
0.091572
0.0953692
0.0994627
0.101756
0.0945853
0.102914
0.142414
0.196118
0.283292
0.432475
0.12279
0.149515
0.181696
0.248035
0.392996
0.130966
0.156179
0.188554
0.251825
0.389981
0.12279
0.149515
0.181696
0.248035
0.392996
0.102914
0.142414
0.196118
0.283292
0.432475
0.949317
1.34475
1.60598
1.77839
1.94879
0.907631
1.34345
1.62776
1.79885
1.96553
0.903217
1.35242
1.62833
1.79327
1.96001
0.907631
1.34345
1.62776
1.79885
1.96553
0.949317
1.34475
1.60598
1.77839
1.94879
2.06135
2.13156
2.19543
2.33664
2.33279
2.22768
1.5907
1.30023
1.23484
1.122
0.963925
0.807003
0.678693
0.577506
0.476971
0.344033
0.205229
0.139048
0.126621
0.128307
0.132801
0.140217
0.153879
0.174984
0.201043
0.229051
0.257064
0.284419
0.311177
0.33718
0.362004
0.384353
0.405997
0.423114
0.416024
0.288528
0.0664273
0.058742
0.0678497
0.143076
2.0611
2.11125
2.17656
2.33445
2.33632
2.2195
1.58821
1.29463
1.22336
1.10392
0.955273
0.814594
0.692874
0.589339
0.483141
0.345144
0.204456
0.137631
0.125119
0.127001
0.131626
0.13913
0.152949
0.174227
0.200456
0.228621
0.25676
0.284236
0.311076
0.337171
0.362048
0.384472
0.406142
0.423316
0.416353
0.288957
0.0654588
0.0563181
0.0647268
0.142544
2.06258
2.11321
2.17413
2.32587
2.33678
2.20796
1.58193
1.29009
1.22093
1.11219
0.969653
0.815368
0.684577
0.582299
0.481389
0.346606
0.205184
0.137376
0.124714
0.126603
0.131305
0.138787
0.152619
0.17394
0.200219
0.228425
0.256594
0.284101
0.310961
0.337085
0.361982
0.384441
0.406142
0.423381
0.416535
0.289299
0.0655446
0.0547047
0.0622733
0.14043
2.0611
2.11125
2.17656
2.33445
2.33632
2.2195
1.58821
1.29463
1.22336
1.10392
0.955273
0.814594
0.692874
0.589339
0.483141
0.345144
0.204456
0.137631
0.125119
0.127001
0.131626
0.13913
0.152949
0.174227
0.200456
0.228621
0.25676
0.284236
0.311076
0.337171
0.362048
0.384472
0.406142
0.423316
0.416353
0.288957
0.0654588
0.0563181
0.0647268
0.142544
2.06135
2.13156
2.19543
2.33664
2.33279
2.22768
1.5907
1.30023
1.23484
1.122
0.963925
0.807003
0.678693
0.577506
0.476971
0.344033
0.205229
0.139048
0.126621
0.128307
0.132801
0.140217
0.153879
0.174984
0.201043
0.229051
0.257064
0.284419
0.311177
0.33718
0.362004
0.384353
0.405997
0.423114
0.416024
0.288528
0.0664273
0.058742
0.0678497
0.143076
2.179
2.19441
2.22863
2.31457
2.27083
2.11399
1.52466
1.28356
1.19007
1.06032
0.918597
0.792651
0.681705
0.583614
0.479569
0.342189
0.205138
0.143381
0.132153
0.133526
0.137671
0.144948
0.158313
0.178947
0.204517
0.232096
0.259804
0.286866
0.313489
0.339303
0.364109
0.386355
0.408094
0.425211
0.417946
0.290866
0.075252
0.064497
0.0763418
0.14272
2.20966
2.21193
2.2202
2.1876
2.06217
1.80877
1.38906
1.18309
1.06719
0.959841
0.855554
0.755157
0.657248
0.567241
0.466501
0.331656
0.206369
0.155854
0.14701
0.147694
0.15085
0.157632
0.170348
0.189869
0.214171
0.240594
0.26747
0.293723
0.319969
0.345257
0.369987
0.391923
0.413896
0.43092
0.423386
0.297675
0.0960867
0.0809358
0.0980133
0.152297
2.1116
2.10965
2.11117
1.97798
1.80691
1.54284
1.2346
1.05368
0.964975
0.88076
0.800026
0.712738
0.628399
0.548302
0.449521
0.3175
0.210653
0.17398
0.167448
0.167216
0.169358
0.175462
0.187334
0.205497
0.228193
0.253071
0.278793
0.303895
0.32957
0.35407
0.378612
0.400052
0.422263
0.439103
0.43114
0.30738
0.121696
0.103184
0.12317
0.167589
1.89175
1.88406
1.82439
1.70196
1.51294
1.25775
1.03133
0.933423
0.882733
0.82571
0.758337
0.676771
0.603397
0.52915
0.428318
0.302889
0.22086
0.196631
0.191509
0.190234
0.191488
0.196917
0.207861
0.224617
0.245605
0.268766
0.293159
0.316903
0.34186
0.365384
0.389619
0.410432
0.432809
0.449384
0.440918
0.319577
0.149703
0.128742
0.149975
0.186837
1.60793
1.55351
1.45571
1.33483
1.15296
0.9637
0.885163
0.875594
0.840937
0.791348
0.713871
0.643986
0.581191
0.50705
0.401867
0.291635
0.236513
0.221476
0.216961
0.214832
0.215557
0.220522
0.230692
0.246191
0.265601
0.287119
0.310222
0.332614
0.356844
0.379374
0.403292
0.42349
0.446031
0.462378
0.453606
0.335352
0.179403
0.154536
0.175939
0.206132
1.23841
1.1406
1.03513
0.925782
0.8575
0.862536
0.88338
0.864438
0.814638
0.744907
0.678387
0.621
0.561247
0.481656
0.376866
0.292934
0.259472
0.24906
0.243979
0.240932
0.241194
0.245604
0.254991
0.269252
0.287106
0.306956
0.328685
0.34961
0.372939
0.394308
0.417692
0.437086
0.459512
0.475362
0.465996
0.350736
0.208299
0.182554
0.204186
0.23099
0.860149
0.802706
0.775657
0.826914
0.891844
0.911467
0.889921
0.836834
0.770779
0.708161
0.652864
0.599896
0.537042
0.450994
0.357911
0.303398
0.283855
0.275603
0.269986
0.266705
0.267132
0.271286
0.280187
0.293592
0.310334
0.328951
0.34974
0.369468
0.392227
0.412751
0.435814
0.454621
0.477007
0.492555
0.483146
0.371724
0.239087
0.209292
0.230541
0.252791
0.755393
0.795103
0.857579
0.919815
0.935493
0.909999
0.859974
0.800477
0.738189
0.683493
0.633957
0.580145
0.511389
0.426662
0.358227
0.325847
0.312187
0.303688
0.297156
0.293545
0.293675
0.297497
0.305702
0.318034
0.333455
0.350588
0.37022
0.388397
0.410358
0.429834
0.452313
0.470336
0.492413
0.507372
0.497746
0.389882
0.267645
0.237173
0.258207
0.278289
0.782403
0.823003
0.876155
0.918882
0.917313
0.881387
0.827868
0.768906
0.712647
0.663037
0.613754
0.555677
0.483319
0.412148
0.369059
0.349191
0.338005
0.329348
0.322734
0.319693
0.320115
0.323865
0.331759
0.343508
0.358167
0.374354
0.393296
0.410448
0.431894
0.450628
0.472659
0.489998
0.511639
0.525856
0.516469
0.412235
0.297047
0.264115
0.28493
0.302451
0.759528
0.793883
0.845207
0.885214
0.884694
0.848912
0.7994
0.743878
0.694169
0.64639
0.594792
0.533801
0.46861
0.419744
0.392617
0.376896
0.365673
0.356022
0.348756
0.34577
0.346026
0.349398
0.356653
0.367485
0.381079
0.396029
0.414039
0.430017
0.450759
0.468703
0.490202
0.506848
0.52799
0.541389
0.53247
0.432103
0.324983
0.29145
0.311962
0.32768
0.729514
0.753197
0.799086
0.843859
0.852216
0.819423
0.776589
0.723757
0.677553
0.628167
0.57364
0.514898
0.464316
0.431888
0.412491
0.399161
0.387667
0.378545
0.372717
0.369859
0.370461
0.373964
0.381214
0.391874
0.405189
0.419628
0.437304
0.452693
0.473005
0.490468
0.511551
0.527605
0.548124
0.560659
0.55242
0.455517
0.352656
0.316752
0.337334
0.350598
0.695293
0.710093
0.745663
0.799819
0.821705
0.79274
0.756051
0.705721
0.661259
0.611709
0.559851
0.512285
0.477856
0.454004
0.436704
0.42271
0.411475
0.401544
0.3944
0.391549
0.392054
0.395217
0.401943
0.411916
0.424518
0.4381
0.455185
0.46977
0.489474
0.50639
0.526944
0.542388
0.562315
0.574028
0.566271
0.473244
0.377877
0.342715
0.363092
0.375032
0.657759
0.671678
0.698241
0.761915
0.796303
0.773387
0.742001
0.69297
0.64765
0.598711
0.552391
0.51463
0.488114
0.469097
0.454141
0.440724
0.428391
0.418867
0.412853
0.411201
0.412541
0.416202
0.423245
0.433396
0.446106
0.459495
0.476478
0.490721
0.50981
0.526235
0.546089
0.560825
0.579868
0.590677
0.583091
0.493665
0.401157
0.364258
0.384982
0.394481
0.631087
0.645283
0.665497
0.732699
0.772253
0.756431
0.726837
0.676957
0.63009
0.58576
0.553312
0.528287
0.506588
0.486795
0.470609
0.457062
0.445351
0.435775
0.429618
0.427776
0.428762
0.431845
0.43826
0.447798
0.459969
0.472633
0.489069
0.502679
0.520716
0.536332
0.555381
0.569311
0.587599
0.597415
0.589345
0.503745
0.417221
0.382861
0.40582
0.414207
0.612905
0.628326
0.642365
0.703625
0.742121
0.728795
0.699157
0.654606
0.618831
0.585082
0.555771
0.528864
0.507274
0.48875
0.472147
0.456657
0.443024
0.432387
0.425682
0.423268
0.423158
0.424534
0.429061
0.436791
0.447399
0.458347
0.473979
0.487179
0.504845
0.520668
0.540215
0.554278
0.572726
0.582072
0.573554
0.492849
0.414904
0.389419
0.420723
0.427731
0.601087
0.608627
0.607854
0.655994
0.698321
0.691991
0.663067
0.618338
0.583724
0.546866
0.516131
0.485878
0.458315
0.431937
0.406304
0.381868
0.359844
0.341701
0.32878
0.321565
0.317022
0.314222
0.315639
0.32178
0.332217
0.343709
0.36138
0.376251
0.396018
0.414434
0.436596
0.454059
0.475788
0.488559
0.484583
0.418655
0.358531
0.362144
0.428766
0.445042
0.601091
0.594216
0.550752
0.56117
0.590069
0.584063
0.551594
0.502913
0.46259
0.418265
0.378795
0.339375
0.302046
0.265857
0.231442
0.199506
0.17145
0.148497
0.132837
0.126516
0.12632
0.131594
0.145231
0.16564
0.18999
0.215071
0.243265
0.269192
0.296892
0.323403
0.350598
0.375941
0.400471
0.419132
0.423432
0.375776
0.32312
0.331913
0.425807
0.449981
0.645364
0.625615
0.513655
0.457455
0.458145
0.446115
0.413952
0.372094
0.332626
0.291898
0.25314
0.214991
0.178193
0.144016
0.111817
0.082384
0.0547328
0.0284593
0.0110413
0.0274605
0.0476839
0.0682881
0.094821
0.123583
0.152229
0.180826
0.208927
0.236915
0.264275
0.291373
0.317551
0.344243
0.367534
0.388932
0.400246
0.380261
0.341485
0.381699
0.510311
0.533287
1.04001
0.755693
0.557669
0.465597
0.457661
0.439471
0.411714
0.376293
0.341362
0.305331
0.269485
0.234272
0.20018
0.168228
0.137708
0.108869
0.080647
0.052356
0.023561
0.00724396
0.0406976
0.0758691
0.107744
0.137294
0.165542
0.194312
0.222235
0.250422
0.278108
0.305854
0.332616
0.359603
0.383592
0.40684
0.424674
0.43567
0.431421
0.510856
0.685543
0.974426
2.40604
1.05655
0.520555
0.431397
0.41951
0.39804
0.371519
0.340258
0.30747
0.275111
0.241629
0.2104
0.181147
0.155453
0.132619
0.112745
0.0957509
0.0833454
0.0775433
0.0799216
0.0930703
0.113599
0.136623
0.160829
0.185074
0.21256
0.237601
0.264938
0.291199
0.318023
0.343195
0.36925
0.391355
0.414185
0.431792
0.450573
0.456426
0.534681
0.944059
2.32828
2.40604
1.05655
0.520555
0.431397
0.41951
0.39804
0.371519
0.340258
0.30747
0.275111
0.241629
0.2104
0.181147
0.155453
0.132619
0.112745
0.0957509
0.0833454
0.0775433
0.0799216
0.0930703
0.113599
0.136623
0.160829
0.185074
0.21256
0.237601
0.264938
0.291199
0.318023
0.343195
0.36925
0.391355
0.414185
0.431792
0.450573
0.456426
0.534681
0.944059
2.32828
1.04001
0.755693
0.557669
0.465597
0.457661
0.439471
0.411714
0.376293
0.341362
0.305331
0.269485
0.234272
0.20018
0.168228
0.137708
0.108869
0.080647
0.052356
0.023561
0.00724396
0.0406976
0.0758691
0.107744
0.137294
0.165542
0.194312
0.222235
0.250422
0.278108
0.305854
0.332616
0.359603
0.383592
0.40684
0.424674
0.43567
0.431421
0.510856
0.685543
0.974426
0.645364
0.625615
0.513655
0.457455
0.458145
0.446115
0.413952
0.372094
0.332626
0.291898
0.25314
0.214991
0.178193
0.144016
0.111817
0.082384
0.0547328
0.0284593
0.0110413
0.0274605
0.0476839
0.0682881
0.094821
0.123583
0.152229
0.180826
0.208927
0.236915
0.264275
0.291373
0.317551
0.344243
0.367534
0.388932
0.400246
0.380261
0.341485
0.381699
0.510311
0.533287
0.601091
0.594216
0.550752
0.56117
0.590069
0.584063
0.551594
0.502913
0.46259
0.418265
0.378795
0.339375
0.302046
0.265857
0.231442
0.199506
0.17145
0.148497
0.132837
0.126516
0.12632
0.131594
0.145231
0.16564
0.18999
0.215071
0.243265
0.269192
0.296892
0.323403
0.350598
0.375941
0.400471
0.419132
0.423432
0.375776
0.32312
0.331913
0.425807
0.449981
0.601087
0.608627
0.607854
0.655994
0.698321
0.691991
0.663067
0.618338
0.583724
0.546866
0.516131
0.485878
0.458315
0.431937
0.406304
0.381868
0.359844
0.341701
0.32878
0.321565
0.317022
0.314222
0.315639
0.32178
0.332217
0.343709
0.36138
0.376251
0.396018
0.414434
0.436596
0.454059
0.475788
0.488559
0.484583
0.418655
0.358531
0.362144
0.428766
0.445042
0.612905
0.628326
0.642365
0.703625
0.742121
0.728795
0.699157
0.654606
0.618831
0.585082
0.555771
0.528864
0.507274
0.48875
0.472147
0.456657
0.443024
0.432387
0.425682
0.423268
0.423158
0.424534
0.429061
0.436791
0.447399
0.458347
0.473979
0.487179
0.504845
0.520668
0.540215
0.554278
0.572726
0.582072
0.573554
0.492849
0.414904
0.389419
0.420723
0.427731
0.631087
0.645283
0.665497
0.732699
0.772253
0.756431
0.726837
0.676957
0.63009
0.58576
0.553312
0.528287
0.506588
0.486795
0.470609
0.457062
0.445351
0.435775
0.429618
0.427776
0.428762
0.431845
0.43826
0.447798
0.459969
0.472633
0.489069
0.502679
0.520716
0.536332
0.555381
0.569311
0.587599
0.597415
0.589345
0.503745
0.417221
0.382861
0.40582
0.414207
0.657759
0.671678
0.698241
0.761915
0.796303
0.773387
0.742001
0.69297
0.64765
0.598711
0.552391
0.51463
0.488114
0.469097
0.454141
0.440724
0.428391
0.418867
0.412853
0.411201
0.412541
0.416202
0.423245
0.433396
0.446106
0.459495
0.476478
0.490721
0.50981
0.526235
0.546089
0.560825
0.579868
0.590677
0.583091
0.493665
0.401157
0.364258
0.384982
0.394481
0.695293
0.710093
0.745663
0.799819
0.821705
0.79274
0.756051
0.705721
0.661259
0.611709
0.559851
0.512285
0.477856
0.454004
0.436704
0.42271
0.411475
0.401544
0.3944
0.391549
0.392054
0.395217
0.401943
0.411916
0.424518
0.4381
0.455185
0.46977
0.489474
0.50639
0.526944
0.542388
0.562315
0.574028
0.566271
0.473244
0.377877
0.342715
0.363092
0.375032
0.729514
0.753197
0.799086
0.843859
0.852216
0.819423
0.776589
0.723757
0.677553
0.628167
0.57364
0.514898
0.464316
0.431888
0.412491
0.399161
0.387667
0.378545
0.372717
0.369859
0.370461
0.373964
0.381214
0.391874
0.405189
0.419628
0.437304
0.452693
0.473005
0.490468
0.511551
0.527605
0.548124
0.560659
0.55242
0.455517
0.352656
0.316752
0.337334
0.350598
0.759528
0.793883
0.845207
0.885214
0.884694
0.848912
0.7994
0.743878
0.694169
0.64639
0.594792
0.533801
0.46861
0.419744
0.392617
0.376896
0.365673
0.356022
0.348756
0.34577
0.346026
0.349398
0.356653
0.367485
0.381079
0.396029
0.414039
0.430017
0.450759
0.468703
0.490202
0.506848
0.52799
0.541389
0.53247
0.432103
0.324983
0.29145
0.311962
0.32768
0.782403
0.823003
0.876155
0.918882
0.917313
0.881387
0.827868
0.768906
0.712647
0.663037
0.613754
0.555677
0.483319
0.412148
0.369059
0.349191
0.338005
0.329348
0.322734
0.319693
0.320115
0.323865
0.331759
0.343508
0.358167
0.374354
0.393296
0.410448
0.431894
0.450628
0.472659
0.489998
0.511639
0.525856
0.516469
0.412235
0.297047
0.264115
0.28493
0.302451
0.755393
0.795103
0.857579
0.919815
0.935493
0.909999
0.859974
0.800477
0.738189
0.683493
0.633957
0.580145
0.511389
0.426662
0.358227
0.325847
0.312187
0.303688
0.297156
0.293545
0.293675
0.297497
0.305702
0.318034
0.333455
0.350588
0.37022
0.388397
0.410358
0.429834
0.452313
0.470336
0.492413
0.507372
0.497746
0.389882
0.267645
0.237173
0.258207
0.278289
0.860149
0.802706
0.775657
0.826914
0.891844
0.911467
0.889921
0.836834
0.770779
0.708161
0.652864
0.599896
0.537042
0.450994
0.357911
0.303398
0.283855
0.275603
0.269986
0.266705
0.267132
0.271286
0.280187
0.293592
0.310334
0.328951
0.34974
0.369468
0.392227
0.412751
0.435814
0.454621
0.477007
0.492555
0.483146
0.371724
0.239087
0.209292
0.230541
0.252791
1.23841
1.1406
1.03513
0.925782
0.8575
0.862536
0.88338
0.864438
0.814638
0.744907
0.678387
0.621
0.561247
0.481656
0.376866
0.292934
0.259472
0.24906
0.243979
0.240932
0.241194
0.245604
0.254991
0.269252
0.287106
0.306956
0.328685
0.34961
0.372939
0.394308
0.417692
0.437086
0.459512
0.475362
0.465996
0.350736
0.208299
0.182554
0.204186
0.23099
1.60793
1.55351
1.45571
1.33483
1.15296
0.9637
0.885163
0.875594
0.840937
0.791348
0.713871
0.643986
0.581191
0.50705
0.401867
0.291635
0.236513
0.221476
0.216961
0.214832
0.215557
0.220522
0.230692
0.246191
0.265601
0.287119
0.310222
0.332614
0.356844
0.379374
0.403292
0.42349
0.446031
0.462378
0.453606
0.335352
0.179403
0.154536
0.175939
0.206132
1.89175
1.88406
1.82439
1.70196
1.51294
1.25775
1.03133
0.933423
0.882733
0.82571
0.758337
0.676771
0.603397
0.52915
0.428318
0.302889
0.22086
0.196631
0.191509
0.190234
0.191488
0.196917
0.207861
0.224617
0.245605
0.268766
0.293159
0.316903
0.34186
0.365384
0.389619
0.410432
0.432809
0.449384
0.440918
0.319577
0.149703
0.128742
0.149975
0.186837
2.1116
2.10965
2.11117
1.97798
1.80691
1.54284
1.2346
1.05368
0.964975
0.88076
0.800026
0.712738
0.628399
0.548302
0.449521
0.3175
0.210653
0.17398
0.167448
0.167216
0.169358
0.175462
0.187334
0.205497
0.228193
0.253071
0.278793
0.303895
0.32957
0.35407
0.378612
0.400052
0.422263
0.439103
0.43114
0.30738
0.121696
0.103184
0.12317
0.167589
2.20966
2.21193
2.2202
2.1876
2.06217
1.80877
1.38906
1.18309
1.06719
0.959841
0.855554
0.755157
0.657248
0.567241
0.466501
0.331656
0.206369
0.155854
0.14701
0.147694
0.15085
0.157632
0.170348
0.189869
0.214171
0.240594
0.26747
0.293723
0.319969
0.345257
0.369987
0.391923
0.413896
0.43092
0.423386
0.297675
0.0960867
0.0809358
0.0980133
0.152297
2.179
2.19441
2.22863
2.31457
2.27083
2.11399
1.52466
1.28356
1.19007
1.06032
0.918597
0.792651
0.681705
0.583614
0.479569
0.342189
0.205138
0.143381
0.132153
0.133526
0.137671
0.144948
0.158313
0.178947
0.204517
0.232096
0.259804
0.286866
0.313489
0.339303
0.364109
0.386355
0.408094
0.425211
0.417946
0.290866
0.075252
0.064497
0.0763418
0.14272
)
;

boundaryField
{
    inlet
    {
        type            calculated;
        value           uniform 0;
    }
    outlet
    {
        type            calculated;
        value           nonuniform List<scalar> 
165
(
2.179
2.20966
2.1116
1.89175
1.60793
1.23841
0.860149
0.755393
0.782403
0.759528
0.729514
0.695293
0.657759
0.631087
0.612905
0.601087
0.601091
0.645364
1.04001
2.40604
2.40604
1.05655
0.520555
0.431397
0.41951
0.39804
0.371519
0.340258
0.30747
0.275111
0.241629
0.2104
0.181147
0.155453
0.132619
0.112745
0.0957509
0.0833454
0.0775433
0.0799216
0.0930703
0.113599
0.136623
0.160829
0.185074
0.21256
0.237601
0.264938
0.291199
0.318023
0.343195
0.36925
0.391355
0.414185
0.431792
0.450573
0.456426
0.534681
0.944059
2.32828
0.14272
0.152297
0.167589
0.186837
0.206132
0.23099
0.252791
0.278289
0.302451
0.32768
0.350598
0.375032
0.394481
0.414207
0.427731
0.445042
0.449981
0.533287
0.974426
2.32828
0.143076
0.142544
0.14043
0.142544
0.143076
2.32828
0.974426
0.533287
0.449981
0.445042
0.427731
0.414207
0.394481
0.375032
0.350598
0.32768
0.302451
0.278289
0.252791
0.23099
0.206132
0.186837
0.167589
0.152297
0.14272
2.40604
1.05655
0.520555
0.431397
0.41951
0.39804
0.371519
0.340258
0.30747
0.275111
0.241629
0.2104
0.181147
0.155453
0.132619
0.112745
0.0957509
0.0833454
0.0775433
0.0799216
0.0930703
0.113599
0.136623
0.160829
0.185074
0.21256
0.237601
0.264938
0.291199
0.318023
0.343195
0.36925
0.391355
0.414185
0.431792
0.450573
0.456426
0.534681
0.944059
2.32828
2.40604
1.04001
0.645364
0.601091
0.601087
0.612905
0.631087
0.657759
0.695293
0.729514
0.759528
0.782403
0.755393
0.860149
1.23841
1.60793
1.89175
2.1116
2.20966
2.179
)
;
    }
    obstacle
    {
        type            calculated;
        value           nonuniform List<scalar> 
40
(
0.636827
0.0152751
0.0870592
0.0857035
0.0885559
0.091572
0.0953691
0.0994622
0.101704
0.0937977
0.636827
0.0152751
0.0870592
0.0857035
0.0885559
0.091572
0.0953691
0.0994622
0.101704
0.0937977
0.100911
0.139288
0.192803
0.279924
0.42577
0.100911
0.139288
0.192803
0.279924
0.42577
0.939216
1.342
1.60442
1.77688
1.94762
0.939216
1.342
1.60442
1.77688
1.94762
)
;
    }
    empty
    {
        type            empty;
    }
}


// ************************************************************************* //
