/*--------------------------------*- C++ -*----------------------------------*\
| =========                 |                                                 |
| \\      /  F ield         | OpenFOAM: The Open Source CFD Toolbox           |
|  \\    /   O peration     | Version:  v1912                                 |
|   \\  /    A nd           | Website:  www.openfoam.com                      |
|    \\/     M anipulation  |                                                 |
\*---------------------------------------------------------------------------*/
FoamFile
{
    version     2.0;
    format      ascii;
    class       volVectorField;
    location    "0.00022";
    object      momentum;
}
// * * * * * * * * * * * * * * * * * * * * * * * * * * * * * * * * * * * * * //

dimensions      [1 -2 -1 0 0 0 0];


internalField   nonuniform List<vector> 
1300
(
(0.1391210058 2.717103986 -1.204868066)
(-3.018462548 2.492594437 0.0706226212)
(0.5447580972 2.132458575 0.9326319796)
(29.76174137 -2.444315077 4.397205333)
(39.07089005 3.800745873 8.709007656)
(19.46108303 1.946525123 9.048743749)
(35.44746147 -4.856693627 9.587092208)
(64.54563845 -4.899453606 -9.210815089)
(36.07080194 -0.4837342712 -6.643123093)
(34.12168045 -0.03916406446 2.965295997)
(-3.142282473 1.606981254 -0.8087179081)
(-1.034108522 10.31779462 6.615411242)
(26.64209017 7.511508928 0.2821734645)
(216.9049967 38.56413923 16.89264271)
(83.43732543 8.399604321 -5.069081015)
(16.34310597 10.47865057 -2.398611068)
(80.84966987 6.653817611 5.248561005)
(78.27755577 16.84865756 -8.789037991)
(29.06899076 8.237348655 -4.507409293)
(35.16016902 8.527897871 6.017407308)
(-0.9939619494 1.777656285 1.257249131)
(2.253038538 22.33453971 -8.397488664)
(6.876136777 0.5705861751 -1.270081017)
(225.467123 35.62590533 -4.998433412)
(76.42526281 14.61559913 4.216042613)
(59.63401887 12.12188681 2.221840782)
(48.93251851 6.540277172 -2.691443301)
(143.3207437 21.93653093 -8.940092474)
(61.87407874 7.668330908 7.186173261)
(24.14049662 5.108651301 -1.572738512)
(0 0 0)
(0 0 0)
(18.74306769 0.1305130517 -1.449844954)
(209.8079137 31.28205694 7.182080898)
(91.64888621 11.79701861 5.189442374)
(18.75993293 5.224073139 1.378720598)
(100.1097739 13.04499054 8.033838458)
(66.60532675 7.138901241 -2.930882077)
(54.80950434 12.37511729 3.33625317)
(99.72242759 9.848316654 -6.751738973)
(0 0 0)
(0 0 0)
(53.65634621 10.63844022 -3.445803162)
(110.5418839 20.95394831 7.415113705)
(112.1900562 19.23758578 5.911115639)
(37.27746855 11.58978433 2.252062022)
(97.73078618 18.7864916 13.14251582)
(98.14272872 24.71505604 -9.430982855)
(123.2328374 36.19407285 1.022941583)
(28.17145904 9.167026721 0.2134495872)
(0.1971879225 3.775450469 -1.107126062)
(0 0 0)
(26.81129305 5.344343472 -3.860915439)
(140.7601819 23.31346251 -1.768284251)
(83.61885261 15.22822122 -5.749599167)
(50.37993251 14.51858803 5.133723163)
(52.37634221 14.15075505 3.661668899)
(110.3225952 25.47087383 2.7899958)
(82.52716517 17.95115282 -6.432134048)
(100.6153697 28.27840141 1.375950793)
(-0.156304855 3.341155206 2.649889149)
(4.616130176 2.273463676 -0.1830646627)
(51.22309249 9.758602349 -2.630388437)
(201.4795242 37.53529161 7.549303917)
(133.4896429 7.991961809 1.360627445)
(81.26185842 20.19746404 -0.2292042125)
(83.19074168 18.04597984 5.218208587)
(141.0899223 19.37479287 -7.141793821)
(130.8396318 19.90889172 2.826712934)
(51.85525766 9.694426957 -2.963634666)
(-0.1703393817 2.993178752 -3.081981007)
(0 0 0)
(41.46255057 4.899908733 6.867825882)
(144.3127465 20.0580494 0.2088756514)
(91.31916396 8.812967702 -7.550104755)
(37.71279815 11.73054046 -0.6241095315)
(103.8628313 18.39514448 -2.260097629)
(89.32032098 17.70981951 -1.419327809)
(51.17414814 6.17022857 -2.902261928)
(49.76195032 4.305690209 -0.9093619616)
(0 0 0)
(0 0 0)
(20.2894754 4.295100521 -3.92929844)
(186.1758778 23.27922019 6.139274743)
(107.3912989 10.3155323 -4.271293862)
(18.96471922 1.274139341 1.502527061)
(99.10285367 10.34578127 3.40800144)
(111.6086277 16.48141025 3.415922601)
(66.62966508 4.042558108 0.3317132332)
(103.2596399 12.79795473 -10.93008118)
(0 0 0)
(0 0 0)
(46.7217149 15.11940152 1.572534663)
(148.2376554 17.17917928 14.09878097)
(105.6192974 9.848224085 0.09473289447)
(56.1151783 11.14597397 -0.09817199708)
(88.66793761 21.22359868 -2.384110724)
(109.3748337 17.34992913 2.125115259)
(69.67351787 8.852194999 -3.184079411)
(53.05257426 11.35884578 -1.139173523)
(0 0 0)
(0 0 0)
(25.2366756 4.484103535 -2.74265261)
(163.8110632 26.57416258 8.366115654)
(82.62115537 11.76944751 -3.883233984)
(49.54933959 6.799521128 1.28526975)
(118.4894988 19.98744374 7.511740712)
(75.14013746 4.037983901 -0.5828554406)
(88.93515623 13.41391683 -3.478263747)
(61.98692142 5.713281381 1.889583651)
(0 0 0)
(0 0 0)
(47.47904008 7.974664537 1.481502707)
(251.2582122 26.97472887 -9.171086142)
(52.71538586 6.489852684 0.05677998616)
(29.58709397 7.235413294 -2.849748493)
(69.53241225 10.71353698 -3.061033992)
(150.0310969 17.60612193 -0.240326785)
(95.84152897 20.71049524 5.591873535)
(66.70035043 16.18677236 4.710279334)
(0 0 0)
(0 0 0)
(31.91426836 8.855850352 4.464528452)
(230.1696911 18.04374841 -9.06883441)
(52.23089801 7.114671418 -2.981399706)
(7.344747541 2.673136232 0.3402703793)
(72.01473303 7.799797465 -2.141192573)
(134.7886055 5.215722272 -6.313225342)
(62.76623129 3.616164881 0.4134153089)
(58.47538569 10.01690327 1.681027643)
(0 0 0)
(0 0 0)
(19.05453909 4.398276918 2.469456011)
(141.9164871 21.49757413 5.074330949)
(72.44723758 6.615558185 8.867418942)
(68.55908954 14.34114135 9.97440264)
(63.87865588 8.747207046 4.509077884)
(87.13730685 4.403436828 -0.4003105079)
(70.01709714 14.98531552 -3.22954763)
(94.80086804 12.93661092 3.151817734)
(0 0 0)
(0 0 0)
(12.09800273 0.9208281112 2.593989648)
(211.0986843 34.82630873 -4.581272839)
(109.2766667 26.89573305 0.8590149985)
(14.29556515 1.143950933 1.0215582)
(103.7171892 19.9852881 2.70800088)
(90.37963605 8.991450655 -2.994215418)
(51.54740437 3.198487525 0.3114285685)
(57.73801732 8.261308565 4.354057894)
(0 0 0)
(0 0 0)
(52.64082654 15.94471678 -3.770132281)
(147.1358543 11.67554895 -1.594975458)
(95.36721241 8.574001066 7.180256492)
(18.96266853 1.559407095 2.414905942)
(76.65529637 20.59939722 4.963676148)
(140.9309224 23.42268443 8.07247368)
(134.7974178 19.52775178 -0.8474250163)
(51.31622675 9.610414101 -1.086511002)
(0 0 0)
(0 0 0)
(38.62892849 8.411143097 -5.524230266)
(159.632367 20.16114722 -8.602317986)
(78.91755709 12.05123846 -3.069604351)
(13.37134014 3.701316045 -3.342838209)
(37.64263965 9.074778659 0.6761797256)
(111.0534387 15.08163037 -1.246025677)
(80.72833175 6.273468706 -4.849555599)
(64.95393793 4.271743583 -1.121838095)
(0 0 0)
(0 0 0)
(31.47412685 7.395736348 5.793464614)
(192.5207311 36.54214897 -4.161113321)
(42.40646268 7.287429918 0.5380109053)
(46.60429804 10.66371826 4.623240953)
(89.32271345 19.06771474 -3.618649139)
(116.2536653 26.56222376 6.091978136)
(85.3226759 11.49734861 -1.889956666)
(89.67433856 5.479526831 -0.8222580898)
(0 0 0)
(0 0 0)
(35.4929458 8.660173478 1.911486107)
(213.4515985 37.95525999 2.647130802)
(105.1888001 7.132889159 1.389722005)
(27.9306481 2.482370957 -1.112743443)
(122.9389551 8.534413018 -0.9938388482)
(131.527199 19.60873953 -5.285325327)
(119.1897157 17.73237825 -1.269649713)
(68.78867951 8.943632708 -0.9973073353)
(0 0 0)
(0 0 0)
(26.4200006 4.890799527 2.330607527)
(152.7175798 36.68348668 -7.837135178)
(107.2625626 12.49455696 -8.127344856)
(62.28032439 10.98453021 2.684255499)
(15.78011028 1.640837346 -1.406394989)
(95.08807292 14.38960175 5.135567148)
(75.8390858 10.2593902 0.5434733909)
(55.77153886 2.468537252 -4.364270734)
(13.14252962 -3.160981583 -0.1019900098)
(14.94113824 4.58513128 4.788246653)
(10.29142338 1.60447202 5.08492589)
(39.21162033 -6.434988081 0.7852571976)
(17.20125954 0.05710609124 0.3845067143)
(20.43725332 0.5927268515 -6.339313136)
(22.70561776 2.887582474 -0.2882445331)
(37.69924491 7.658122294 10.34760124)
(13.50368937 -4.568410493 3.221311411)
(22.72753635 -1.904905422 -1.841925048)
(27.66399507 -2.148401664 0.6379562589)
(20.10448738 5.80884572 2.240200429)
(22.86431014 7.901120322 1.091130416)
(19.05298281 3.522928519 -8.645755536)
(13.24470185 7.480992658 7.139097504)
(36.49350707 13.2081401 0.8282336851)
(21.07161058 -2.547215403 1.655382887)
(13.23076521 3.93920435 5.328212287)
(23.50752207 6.825303696 8.054595399)
(7.194041275 -2.35107111 2.345704665)
(22.32444188 6.142481416 -3.212729264)
(16.3758058 7.233913396 6.99607118)
(11.31564162 1.491977706 -0.4495237959)
(22.26412453 -4.791212328 -1.243659703)
(3.479509414 1.680758448 -5.272053791)
(22.83459001 4.173576237 -8.078502136)
(14.82295421 4.639043465 -3.220713688)
(6.473696126 -0.07234627575 3.216185857)
(13.33658603 -1.444099181 6.057420414)
(5.150149501 -4.235291097 2.476663075)
(44.66805365 5.951413333 -11.08677855)
(15.08633382 3.073171961 1.464597011)
(17.76722675 2.773200506 3.907559934)
(17.03489546 6.250580292 -0.400866709)
(32.78018706 3.916524023 4.101417741)
(56.2515609 1.104796953 6.355340317)
(34.68230168 -3.181110883 9.224072626)
(28.21760094 -1.713473047 -8.013305905)
(13.89834156 4.511538424 -1.613861519)
(43.43705186 9.133292876 -6.57158944)
(19.07271633 -2.593989078 -4.072781511)
(16.76079715 3.746192823 -4.126429694)
(16.34963215 3.295626557 1.222295811)
(7.115549625 -2.393755894 7.700800566)
(13.10870752 3.270799732 3.521268519)
(25.51326274 5.694167193 5.552765632)
(12.10484145 8.497076978 -0.8597238384)
(5.984997979 8.353830771 2.35353803)
(13.26311597 5.682368245 0.8782520225)
(12.15654233 8.222819059 -4.578003602)
(9.009854467 0.9241348398 1.353640371)
(32.18308372 7.894490328 -5.824812095)
(21.57195436 4.514661675 -8.597624508)
(20.0352539 4.131891861 -5.374501374)
(13.76958025 1.206689981 14.81708758)
(5.216048072 0.06661910212 -3.927099599)
(9.476523509 7.029389927 0.04522244403)
(4.26924959 5.384142919 -1.174068994)
(0.2793440071 14.83831453 -2.24860872)
(-0.8617892988 9.902340653 -2.452843223)
(75.66016854 18.91448786 -1.330951102)
(51.33103119 5.710122744 -1.146179558)
(21.28806662 0.8293395215 -1.216442671)
(51.59864146 10.44813609 -8.69356762)
(24.19498375 -0.9811766257 2.403482756)
(48.87133078 -2.314513833 4.38487789)
(50.15893099 3.461016909 11.44458452)
(23.01971081 -0.7851245802 0.6041850582)
(10.66806788 7.23236764 -4.488045887)
(37.17238566 -2.64101778 -3.607168819)
(50.57698815 -1.77260832 0.4809923743)
(39.59331989 -5.190461696 -0.1521656757)
(23.7203542 1.318948749 12.88065979)
(19.40540755 -1.976992674 10.50601517)
(11.62296736 -0.411560246 8.008745885)
(44.57521435 -2.245145243 2.895857475)
(20.62749105 5.861944526 -3.668399877)
(2.859080399 -0.1340233809 -2.677146792)
(32.80778273 -0.6403035836 3.720833531)
(18.91622702 -1.690664221 1.200806864)
(13.12089987 1.922627193 -1.496779093)
(29.49475735 -3.617757415 6.79866834)
(14.12600238 0.2394372053 -5.369887997)
(14.09478735 2.41225196 -3.802365881)
(11.29084024 11.10613943 -6.554839969)
(9.172908047 6.867099362 -5.02312146)
(23.5930095 1.974790953 14.20068292)
(8.184708401 5.356266339 1.092487915)
(16.86879849 5.745941425 5.302550085)
(17.47181844 6.003868085 -7.497107913)
(56.29518258 17.34126154 -1.947509301)
(80.02899423 21.11486086 -3.071923218)
(31.651245 7.404307028 2.691334707)
(56.82405315 -0.7296000497 -1.780343789)
(58.79706801 3.445359103 -3.663182369)
(48.27427236 6.703178255 5.867888231)
(26.84217801 9.039267069 -5.296221522)
(33.28865861 5.206514762 -1.790307018)
(26.90235234 3.479715121 2.899688168)
(21.2924469 -0.3334023869 -5.275292996)
(34.03973736 5.347480512 -2.076737724)
(39.80126248 4.549912636 4.358853848)
(79.04754569 5.828532038 0.2543898297)
(41.53766072 7.291514148 -5.848551204)
(44.24460535 4.243558296 15.09194636)
(46.77604391 -5.37627487 -13.23288089)
(24.4701054 4.797811929 -0.6629032273)
(17.77205492 5.813663041 -5.176310036)
(20.75488676 1.663296139 -2.940124158)
(36.59276715 1.624380132 1.533641901)
(29.47577449 1.020128397 -10.18907091)
(12.83818137 1.192287189 -1.034891797)
(32.64307067 9.770563711 7.826572159)
(16.57236141 10.91219746 0.6946364392)
(7.453241176 -2.572404945 4.809828116)
(25.34490016 5.865623015 2.68423048)
(2.199297528 3.472734838 -1.321282992)
(8.959968246 2.821154188 0.620550379)
(8.673471429 -1.519543898 -6.487194933)
(24.10662693 2.752608287 1.849937527)
(105.4891317 16.01922095 -3.284282684)
(120.234701 19.23894307 8.50594656)
(106.3783633 14.74153158 1.100249263)
(83.3416177 21.74233716 0.3588847233)
(82.90404273 13.32755957 1.67324476)
(47.55194933 8.328384108 4.039936298)
(90.77896419 22.21130841 -1.154905974)
(28.27703711 2.65495873 -2.837913619)
(46.2801373 8.109857198 -1.019988108)
(34.04033649 7.383494797 1.373164958)
(53.05984159 8.127715081 0.1941313073)
(51.05973224 2.340207716 -13.96569711)
(31.59824428 5.225312993 1.742825048)
(59.6405888 10.22935084 -8.797922988)
(36.51300409 1.177035755 -2.903654504)
(39.07352292 9.511487377 -1.047161024)
(18.9050096 5.688512234 -2.297858316)
(34.98100371 9.264260082 -3.62405208)
(18.7175671 7.090441976 4.896912112)
(44.54143756 14.69443432 6.016526172)
(25.01156188 2.555493213 -0.9718207169)
(13.97223343 2.546485437 1.634895973)
(28.64243716 12.59216803 1.145461621)
(21.10059342 1.934101619 0.7594790959)
(24.75067541 -0.1565874905 -7.070127119)
(22.29863638 5.24218285 -4.157853566)
(27.59780304 -0.7381856579 10.63710414)
(22.45943841 -0.9162218625 3.454024212)
(35.87850294 4.896737057 -10.98923784)
(9.365389994 4.266596826 -0.7269874113)
(133.9691002 25.22173541 4.420706229)
(70.57198757 3.729365659 8.060862226)
(123.4714057 15.92034238 3.459556752)
(103.7375099 20.76481126 1.480115773)
(57.61720228 10.48326022 1.408105811)
(42.07180901 8.378735518 -4.249044859)
(67.22360055 19.82654013 -7.912917009)
(62.70184721 12.98571287 -7.843335746)
(50.32793057 10.9708867 -0.9270771511)
(77.89322919 13.77117642 1.066014213)
(57.27990246 21.23506279 -0.699439997)
(47.22693472 11.02342615 1.083016477)
(55.06440073 5.587711511 3.150584515)
(56.31291584 9.12199873 -3.855802125)
(48.57164297 3.491814631 0.7528567032)
(58.23259049 13.57730676 -0.8886521249)
(30.730103 6.090168468 1.438626422)
(26.04464241 5.919903675 10.80722754)
(13.02360295 3.529030877 -5.989362364)
(55.77752498 18.06466706 -10.28095872)
(51.27884081 1.989554491 3.854735757)
(11.65365092 7.790024223 3.212620811)
(57.26660373 13.40407609 2.280727838)
(22.87039977 1.763570059 -1.750029886)
(39.67401993 15.38326044 4.255801943)
(27.18504424 6.366529214 -2.768799475)
(51.44422117 4.428209062 18.30063931)
(26.7335268 15.80142428 10.31364179)
(10.37265697 9.382183886 -3.481404638)
(33.21048732 11.1459373 1.855863438)
(125.3772485 23.98401871 -11.59591011)
(105.1288877 21.7885718 2.235262082)
(105.3154917 19.79176274 2.026539034)
(72.47936567 15.56657689 -1.633448205)
(83.10428635 19.69042816 -2.053526173)
(68.14287359 13.06991262 -3.4620806)
(97.55494528 17.58854216 3.365726843)
(86.61728047 16.04482991 4.242010059)
(65.6340729 9.128073103 -4.619484591)
(82.46729947 10.66996046 2.166239459)
(114.6278373 18.18246325 1.939988233)
(71.29670874 4.968155089 0.9015722154)
(56.11856921 2.803104925 2.106687074)
(57.58493849 15.74943735 0.9114855192)
(13.35010715 4.779708379 2.084099407)
(43.05975962 7.157678095 4.52863327)
(74.9116344 6.803988946 -5.125050324)
(64.70243683 19.76458858 10.70835291)
(51.90855703 8.74833294 -1.017670302)
(18.84582865 10.56952043 -0.7076723394)
(44.7921593 7.253242238 -10.01087777)
(28.67334604 4.749136802 5.222802027)
(38.88038862 0.5841993454 -7.545698607)
(30.88048772 3.766954182 3.34863563)
(53.33842199 13.29311282 -3.648512031)
(33.1740421 20.09554382 3.979264137)
(26.06299178 3.834617424 3.115807579)
(32.54515433 11.85013692 -5.800667703)
(15.83502506 1.608074164 -9.855411763)
(24.36965763 -4.551253517 0.5004964732)
(84.69135293 10.90063002 -1.206946329)
(90.55311237 12.57322575 3.742347135)
(125.0672275 25.45928284 0.3949050878)
(115.8838035 17.16303913 -1.690465719)
(158.9418058 39.25931627 7.583382122)
(85.20080025 25.03970543 -0.08706186679)
(105.0961937 22.20546931 -0.9295024495)
(94.39248465 20.49099518 3.572560641)
(61.7203106 11.914071 -3.121730742)
(74.68030417 16.59273017 0.7034733627)
(106.694659 21.15819051 4.312977769)
(73.74401724 16.89834492 5.360364046)
(78.32730362 7.779798785 -5.040942535)
(45.26852893 9.396720751 -0.793240459)
(34.61779853 5.012807499 2.513280879)
(66.42225577 19.09899918 -8.847178567)
(25.24704768 3.018524304 0.6479260363)
(58.86203028 10.23709485 5.320878983)
(47.93929757 5.536355452 0.1680855887)
(66.2482739 8.54375654 1.467854392)
(61.4506142 14.19748941 -1.24326094)
(48.7256104 6.503320679 0.8914549865)
(61.81997525 20.9871862 7.202803381)
(24.76318022 -0.2427374645 2.866598104)
(37.94093546 7.675611342 0.1256498968)
(58.78493719 9.142831124 -7.966894059)
(54.94507164 10.57217572 -5.277377825)
(13.69952306 3.116219298 4.046871245)
(20.99488114 -3.276273483 -4.209403248)
(26.14161609 9.723537529 -4.232483242)
(106.6305091 29.73427955 -1.613743994)
(74.88683093 11.82953878 -0.7100674175)
(78.60275371 15.77971615 4.135757129)
(134.4988719 35.88087413 4.957036274)
(107.1471633 16.62434503 -7.430937294)
(107.818926 23.22250438 -1.258007263)
(151.3514201 42.87173697 -1.043617652)
(94.77737839 18.89212163 -0.6069324644)
(75.54462719 14.24684829 -2.668898079)
(87.31526045 19.56219064 6.280286559)
(61.25316134 1.347205024 6.182003411)
(130.1799535 16.19364924 -8.186271542)
(68.06402082 17.2629611 -0.5662044522)
(147.7847748 27.87485317 4.315931369)
(82.598207 9.126931296 4.264574087)
(85.62434622 22.67463084 -6.101362732)
(49.02933867 12.01050718 2.569845456)
(68.47647905 13.3520015 7.206814028)
(38.39440274 6.933619032 8.133987619)
(66.16996519 10.20806753 2.580195069)
(102.2369096 18.28781728 -2.931667939)
(55.54421724 13.71085114 -9.871226072)
(14.66854721 3.331209201 -0.003594112643)
(82.86208458 14.13049011 1.674504507)
(50.06455679 8.069975249 1.213585751)
(18.22401575 7.790099798 -0.8134296225)
(56.86937597 14.52567372 -0.5897477487)
(54.80400007 16.05938354 6.91545587)
(34.07357599 4.393337078 -5.183465929)
(37.97983232 6.740030696 -2.995724852)
(89.56793385 10.33834712 7.557091287)
(90.02792925 5.797196837 -5.383024675)
(95.75952066 18.87748834 2.216509915)
(127.4637219 28.19748899 2.084105163)
(65.14822233 4.025369281 -0.07915904478)
(110.7982665 12.06970044 -0.08111498587)
(109.2313259 25.68802236 -0.9310621103)
(128.0474399 17.10000767 -3.561370801)
(97.58250413 23.12055908 -8.191957102)
(114.986748 14.10381103 0.2645171579)
(63.4201394 7.401849078 -0.1486829725)
(108.6326888 21.52991868 0.2715828328)
(132.3973157 29.21493677 6.450590641)
(81.01367251 25.30322833 -0.5377226559)
(72.78844102 15.24425959 -0.3112442038)
(70.21543735 17.04994403 4.988672761)
(90.85710451 10.69121314 1.273417651)
(86.60212529 15.85828487 1.300177363)
(90.2965709 14.60588025 8.480988485)
(108.6183672 21.82681735 2.03107363)
(47.55594532 10.29878451 0.6152939871)
(37.77821507 8.346830919 0.9422101149)
(84.13781144 13.01178989 -4.63794533)
(56.52714178 6.883232146 2.638740962)
(58.30252169 9.317806395 0.6120164828)
(71.67117383 17.77883637 1.771352433)
(57.18292468 8.539097649 -1.380956899)
(58.30783319 17.54993551 -3.015328453)
(49.87103471 2.642819832 -6.332374371)
(33.02902507 18.06499963 -0.0659548248)
(79.48747284 9.337631655 8.640186141)
(69.99499102 14.81500875 3.95878792)
(95.93920536 12.12960719 4.019782142)
(55.72814523 11.97149724 1.198003167)
(45.51884672 5.277981891 -1.700315377)
(103.2438888 13.98255529 -3.936812558)
(59.56388043 14.08966961 3.209290503)
(96.43248397 10.32845784 0.6639963452)
(108.3627286 22.93858195 0.6913626289)
(130.4199022 17.21433975 5.482978648)
(84.06527512 11.25348432 -5.631422852)
(98.98221666 19.89913574 -1.812014659)
(76.52587723 14.92399313 8.033882803)
(65.49592181 4.95807882 -0.4079977452)
(92.20208509 17.5479798 0.1521933254)
(102.3801194 18.50561351 -3.521236175)
(129.6690613 18.26580257 3.780990714)
(66.90744338 10.19273096 0.2012650397)
(107.6266859 26.92019673 -2.489492258)
(69.55610102 2.451409731 0.9528218705)
(47.94041121 9.440433747 -3.367672267)
(106.8798464 19.83061544 -10.51944919)
(76.35251434 2.517593191 3.917720237)
(98.99144486 11.24843699 -2.039588978)
(59.03874486 19.15255356 0.9346363585)
(105.1194754 20.43055281 -3.907350477)
(116.3108106 13.61093875 -0.07548972979)
(64.1958616 3.976436515 2.930417501)
(91.98106047 19.99755077 9.014467652)
(81.29673827 18.04392537 7.093671403)
(71.06705329 11.76585401 0.4260745679)
(57.53966096 13.5599937 -0.9123571197)
(90.71030841 8.547339144 0.300241305)
(89.56494107 11.55980319 -2.34120985)
(85.55048928 18.529459 -5.192432429)
(65.79246304 15.43014397 -0.8458965089)
(65.87150012 11.1592534 -3.489590693)
(76.74571597 9.882336816 5.183960813)
(86.68655563 10.21022861 2.57086706)
(112.7829398 22.41651829 -1.80107924)
(120.6496541 30.9742302 -3.492021628)
(109.5389961 26.68353382 -0.9246409856)
(107.1499137 22.87369487 -0.9519015705)
(81.22514309 11.0045317 -3.975160372)
(104.5614475 19.62834585 0.4026882937)
(109.3441895 22.31408225 5.771389968)
(68.92006053 14.44753452 1.466830445)
(72.93981411 19.28676686 0.9533420785)
(91.67413462 19.82450503 0.140550619)
(83.94555573 22.17047812 -0.9457342067)
(112.3288715 25.63340331 -1.4092931)
(97.53284771 18.76539835 2.873811353)
(102.2959825 14.49241724 0.5618537676)
(90.39276191 24.9807487 -6.141223986)
(91.7857033 25.82409646 -10.60554191)
(121.9971921 29.60949035 -3.605256364)
(87.22388671 19.48145049 -1.769943688)
(39.86888033 7.156512949 5.223672079)
(59.61567623 25.60073053 -4.399426472)
(67.36769151 15.79015246 -5.4995858)
(56.39864348 6.085434231 2.409629785)
(123.5779978 9.109483387 -0.2398353261)
(107.7036764 16.37961576 5.148363366)
(89.682666 14.52747739 -1.42940757)
(101.6476171 14.69760317 5.110153239)
(82.7689844 15.07975025 -0.7594537245)
(90.35406418 10.41029943 -5.584641056)
(93.6938585 19.31381452 -5.407084388)
(126.7515021 23.62355155 9.450228919)
(54.22951103 9.752388964 -5.11885258)
(61.17278096 8.822661925 1.461450193)
(65.15020566 4.402139041 0.9001780236)
(101.8843415 21.70185689 -4.716634876)
(90.28702953 19.01513074 -2.336224426)
(114.3343477 22.86475933 3.158491767)
(119.8698855 26.77750059 2.867248994)
(137.067921 29.74113449 1.523035434)
(79.98644693 19.05744447 -1.339223306)
(161.3785735 35.76063927 -4.478625598)
(116.7638615 18.39681529 -3.819660664)
(100.7992557 14.47831555 1.597681969)
(87.55436949 20.58297287 6.95505505)
(107.0884512 26.45807172 -2.835940392)
(75.59941441 16.65762356 -1.598725603)
(135.4200668 22.66911761 -3.676468715)
(145.4272183 16.38613932 -1.703173752)
(89.74587229 19.84300306 3.527542632)
(49.44561835 24.03187864 -0.1202685119)
(101.9855698 26.38115259 -2.70352587)
(64.99344628 16.65793848 5.182202744)
(80.14155791 14.34193504 3.754640894)
(72.5993518 7.366238198 -6.879804542)
(88.36894251 14.44447705 4.810205601)
(102.7283857 7.212488633 8.304861815)
(55.42471326 9.314375735 -4.389921074)
(57.20039732 10.88303588 1.748486108)
(77.51711434 10.52681347 6.128998675)
(88.01457673 10.81160695 -1.147797855)
(31.70569279 2.847118695 -0.7960147836)
(58.80804061 1.613291676 -1.849964887)
(52.21678844 12.62953001 2.558064418)
(133.2131957 25.3419779 -0.07246558816)
(118.7983312 23.27875645 -7.11099213)
(111.2515459 12.30830354 -6.452005006)
(121.2830733 28.91668819 -8.48597818)
(111.9846558 21.44720894 1.239360013)
(80.99330467 14.43999427 4.555811042)
(160.8381247 37.87959533 -6.494600427)
(89.07831533 22.89414823 -4.205973793)
(89.8317137 13.13575251 0.8347446359)
(71.61228983 8.617467085 -2.593166855)
(127.9866067 23.07452895 3.535588704)
(81.15325099 17.88717191 10.98416043)
(70.44840974 21.27754137 -1.58297245)
(125.4265885 22.26365652 6.545620495)
(92.01512106 25.53803476 -4.199107395)
(104.7294814 18.35044136 0.685657862)
(116.3688514 15.77927786 -6.80248364)
(101.6627744 12.0119649 1.196533399)
(105.2301613 15.63399132 -4.689616241)
(52.49506781 7.361333974 0.6930576576)
(86.98224717 12.63313618 -2.079713458)
(80.44953515 17.47291566 0.4934392787)
(83.97563331 7.988723115 2.581560692)
(49.83904952 3.125817295 1.852947074)
(75.07110606 13.77668504 -2.183992354)
(83.33210748 8.458229379 -0.5607763128)
(93.80572822 22.3917108 2.72101844)
(78.11475162 16.69140708 -4.985914304)
(118.7451524 14.38991256 -3.076866121)
(56.6328954 11.88221597 -2.131257718)
(161.1684465 26.53138113 5.577789532)
(100.9073952 26.77899054 -2.415869649)
(53.84068376 6.096624572 3.611631852)
(27.15069077 4.400546185 0.4764540458)
(99.0850505 17.05489622 0.04823976199)
(91.47762986 20.34824727 -6.94742035)
(71.47055318 15.84296849 -3.739066443)
(149.0110805 24.80782223 5.94394915)
(85.04431934 13.76435679 5.571061741)
(76.67765436 24.56989804 2.47070393)
(131.0104965 25.53248735 -3.66085532)
(119.4775411 27.19586205 0.6803241886)
(117.6660532 16.75877111 0.3630361667)
(80.02490581 11.24260034 1.644851449)
(50.09561513 7.578420318 0.739806249)
(104.0854912 21.24791726 -3.836631317)
(113.7582645 16.95326897 -8.873034169)
(50.61272316 11.9645998 3.011367267)
(92.73503605 14.46611968 3.30872252)
(65.35753537 9.997370586 -1.006147523)
(126.4153014 15.15721839 2.505419102)
(69.74570836 10.01459485 0.5276988141)
(60.95954049 11.06523388 1.171286328)
(130.1545175 21.20717301 -7.26006972)
(128.2248246 12.53880687 2.275191705)
(81.71693141 10.37703314 -2.212135306)
(73.49859138 11.50352455 -5.256168344)
(144.0063878 21.34645897 1.903546363)
(54.22304214 10.76437111 -1.391235518)
(55.5411235 10.73967557 -4.94495314)
(54.99518891 5.149516872 -1.575303464)
(79.33756697 12.60269075 -6.130567843)
(59.10114761 8.883673714 3.734943845)
(71.97537147 11.57680822 5.398589807)
(131.4349282 16.32486151 -1.117269714)
(118.8806353 21.23054681 7.534538318)
(82.97270013 18.24156896 0.07697281241)
(78.31961738 11.22005051 1.383433026)
(91.1494356 13.97891205 0.1446455816)
(78.90450369 15.47134364 2.611855163)
(78.12084335 13.2021162 -5.228309823)
(92.11420695 11.66579825 -4.991769101)
(55.87470606 10.78229459 -2.157847893)
(120.0739452 22.73734608 8.378519884)
(116.6798 25.77441097 11.8960002)
(143.8208583 23.03337186 -4.865342845)
(127.8402994 28.43687826 5.511539948)
(54.69894988 13.66361138 -7.022044184)
(113.4841509 20.05210703 -0.703572731)
(162.2819451 19.93599218 1.580930145)
(122.0180181 14.65571102 -0.005104416092)
(102.4728194 15.64776076 7.552623666)
(66.43905597 10.27983962 -1.051608097)
(84.01761153 9.645690073 0.5212276871)
(96.55418664 8.401351495 -1.593027639)
(82.76068134 9.965416589 -7.814096978)
(74.24026533 15.10977786 -2.807763146)
(71.88622379 17.88456375 -6.635303755)
(86.39955648 5.520247907 -0.4129653053)
(91.52688607 9.829626105 2.858074433)
(69.96674751 9.873298629 -0.5103532861)
(71.62357688 5.434563345 3.585647897)
(113.4525057 18.98678364 2.751174296)
(107.2906304 15.9603123 -4.010076593)
(89.08326988 7.822452752 -3.89904389)
(146.6548434 22.68299914 -1.899641316)
(73.94198024 15.82263429 -5.677225036)
(49.64533444 15.21650478 -2.828281151)
(87.38829654 17.38616543 4.186397179)
(92.90507068 24.46349717 6.188026092)
(86.74180334 14.89609174 -6.639122149)
(79.60901461 18.28846599 2.050758105)
(101.9253015 26.79301471 2.252696286)
(104.1432986 17.97421847 -3.951135949)
(120.000635 22.61559965 1.801697219)
(94.29518136 11.71223844 5.024277265)
(91.62475953 19.70364862 3.333332328)
(100.7381884 30.72975979 -1.174945533)
(105.7768566 19.56972323 1.80443615)
(55.28448287 8.045734758 -0.2917519276)
(95.37769031 10.88457216 1.557078323)
(96.30853625 14.35078999 -0.990517309)
(37.00970318 8.805872275 -5.793031045)
(81.85701414 3.95213516 5.246668225)
(110.6298656 8.729752266 0.3583492536)
(122.1268735 23.80603744 -5.330819968)
(73.25544679 18.06320143 -5.373340209)
(90.58069574 6.942993809 0.86257015)
(124.4597244 25.32317032 5.286726765)
(104.6143676 3.646587814 -3.267009332)
(62.9834077 11.85308303 1.283116668)
(91.33487806 11.51596817 0.7075345008)
(67.03998794 8.255027403 5.676203571)
(117.518309 12.46540644 -4.370532761)
(94.6414066 15.08799122 0.2634512658)
(81.52909161 11.00213093 3.736213409)
(82.54893701 8.429927346 2.800593119)
(119.1519142 25.40009261 -2.115889291)
(99.18468699 15.13452193 -0.08675893563)
(98.64363894 13.03280765 2.83307595)
(108.9144392 16.84108607 -3.185791203)
(56.94751612 8.84619544 3.785247952)
(104.6457318 15.0314042 -2.048633335)
(125.7250663 27.82437286 1.039105933)
(63.47281776 11.67706965 -3.020069153)
(97.28074797 14.46630145 -1.751777057)
(117.2981495 28.67444893 1.740986967)
(115.9680172 25.32815064 1.628053873)
(74.20064769 17.63396019 3.681087235)
(60.31840369 6.462003936 1.29262311)
(102.5213353 9.977804323 4.134775682)
(94.10750278 12.73010307 2.422244689)
(104.4805689 20.12791653 -6.078304413)
(79.11451316 2.68756244 -2.435677671)
(40.43343257 0.9644185493 -0.4795529955)
(55.97612129 11.04738246 2.703311998)
(94.2467091 11.36426153 -5.177106971)
(115.0070918 13.32697232 5.69565309)
(44.84635586 5.207100064 0.7103892365)
(71.40233425 13.15961906 -1.462625067)
(79.41472245 13.6470581 2.532393354)
(98.6176601 10.33311063 4.503172897)
(77.89167916 12.47343514 -0.9512423029)
(74.28106587 13.79868224 -3.953284917)
(84.11487854 8.416482636 2.237155696)
(63.54857306 11.92100126 0.5572587022)
(113.1422477 24.83385725 -4.684366989)
(119.6604021 30.00859579 0.06699985714)
(58.10701646 10.86015884 2.722519289)
(96.89787137 13.62569059 -0.524389837)
(110.1393753 26.46042759 -3.564615243)
(72.01206529 8.447743881 6.662205727)
(89.34529241 17.99062704 -0.7976209953)
(62.00065616 11.63315269 -0.3780820197)
(123.6645689 26.19983892 -4.594161412)
(133.1060284 33.09563591 1.246069999)
(117.4770409 19.70331893 -4.996889359)
(89.27524516 19.90984646 -0.40630521)
(92.3002523 17.06977169 -5.605412164)
(66.40297239 9.895990535 2.0486558)
(62.60292891 9.399596718 -1.629161504)
(45.09415505 5.570277602 4.882076544)
(99.18099344 29.10973375 5.805386248)
(81.84078852 12.86139786 4.515692083)
(87.77123953 12.63482406 3.246534684)
(89.73246372 14.99251337 0.2505652806)
(78.52966878 7.434065624 -3.090814454)
(81.16904182 8.370948456 -2.367328373)