/*--------------------------------*- C++ -*----------------------------------*\
| =========                 |                                                 |
| \\      /  F ield         | OpenFOAM: The Open Source CFD Toolbox           |
|  \\    /   O peration     | Version:  v1912                                 |
|   \\  /    A nd           | Website:  www.openfoam.com                      |
|    \\/     M anipulation  |                                                 |
\*---------------------------------------------------------------------------*/
FoamFile
{
    version     2.0;
    format      ascii;
    class       volVectorField;
    location    "5.98";
    object      grad(T);
}
// * * * * * * * * * * * * * * * * * * * * * * * * * * * * * * * * * * * * * //

dimensions      [0 -1 0 1 0 0 0];


internalField   nonuniform List<vector> 
1900
(
(0.511918 -2.98193e-06 0)
(-1.32799 1.67981e-05 0)
(0.122741 1.28107e-05 0)
(0.158629 1.65066e-05 0)
(0.112218 -0.000133611 0)
(0.0591696 -0.00045352 0)
(0.0205333 -0.0008708 0)
(0.0036196 0.000585141 0)
(0.000600218 0.00201684 0)
(0.0276334 0.00119874 0)
(0.511932 -4.20587e-06 0)
(-1.32798 2.5461e-05 0)
(0.122741 2.38321e-05 0)
(0.158482 3.19321e-05 0)
(0.111748 -0.000178366 0)
(0.0584324 -0.000604828 0)
(0.0215719 -0.00113341 0)
(0.00650724 0.000607106 0)
(0.00121381 0.00165002 0)
(0.000904052 0.0008156 0)
(0.51194 1.25767e-13 0)
(-1.32796 1.73472e-13 0)
(0.122748 5.82217e-13 0)
(0.158426 5.2367e-13 0)
(0.111582 3.59955e-13 0)
(0.0582146 7.64363e-13 0)
(0.0217452 6.92805e-13 0)
(0.00640303 -2.5804e-13 0)
(0.000808712 -1.29237e-12 0)
(-0.00434999 -9.11814e-13 0)
(0.511932 4.20587e-06 0)
(-1.32798 -2.5461e-05 0)
(0.122741 -2.38321e-05 0)
(0.158482 -3.19321e-05 0)
(0.111748 0.000178366 0)
(0.0584324 0.000604828 0)
(0.0215719 0.00113341 0)
(0.00650724 -0.000607106 0)
(0.00121381 -0.00165002 0)
(0.000904052 -0.0008156 0)
(0.511918 2.98193e-06 0)
(-1.32799 -1.67981e-05 0)
(0.122741 -1.28107e-05 0)
(0.158629 -1.65066e-05 0)
(0.112218 0.000133611 0)
(0.0591696 0.00045352 0)
(0.0205333 0.0008708 0)
(0.0036196 -0.000585141 0)
(0.000600218 -0.00201684 0)
(0.0276334 -0.00119874 0)
(0.00608098 -0.0209837 9.54989e-16)
(-0.00449473 -0.016524 -1.14754e-15)
(0.0968647 -0.0296296 -1.45747e-15)
(0.357728 -0.0572059 0)
(-0.585528 -0.30514 -6.53855e-15)
(-0.0100142 -0.0259052 9.51197e-16)
(0.000106783 -0.0215275 1.14754e-15)
(0.0774583 -0.0394014 1.45747e-15)
(0.256339 -0.0654742 0)
(-0.515706 -0.337245 0)
(-0.0221408 -7.14945e-13 0)
(-0.00773816 -7.86998e-13 0)
(0.0665572 -7.80023e-13 0)
(0.230833 -6.44772e-13 0)
(-0.632741 -3.16226e-13 0)
(-0.0100142 0.0259052 9.51197e-16)
(0.000106783 0.0215275 1.14754e-15)
(0.0774583 0.0394014 1.45747e-15)
(0.256339 0.0654742 0)
(-0.515706 0.337245 0)
(0.00608098 0.0209837 -2.85738e-15)
(-0.00449473 0.016524 -1.14754e-15)
(0.0968647 0.0296296 -1.45747e-15)
(0.357728 0.0572059 -4.01284e-15)
(-0.585528 0.30514 6.53855e-15)
(-1.97186 0.460642 2.19824e-15)
(-0.857268 0.332635 -1.5714e-15)
(-0.177725 0.217981 0)
(0.0231905 0.127098 1.13329e-15)
(-0.296221 0.130076 -5.05578e-16)
(-1.76828 0.471788 -1.10606e-15)
(-0.900067 0.220014 7.90707e-16)
(-0.228235 0.111093 0)
(0.00471422 0.0383994 -7.10986e-16)
(-0.227552 0.0644701 1.27859e-16)
(-1.8226 -1.09515e-13 0)
(-0.961458 2.73367e-13 0)
(-0.245884 -1.28498e-13 0)
(0.00234347 1.66528e-13 2.84857e-16)
(-0.214699 -2.66295e-13 -2.55719e-16)
(-1.76828 -0.471788 -1.10606e-15)
(-0.900067 -0.220014 7.90707e-16)
(-0.228235 -0.111093 0)
(0.00471422 -0.0383994 -7.10986e-16)
(-0.227552 -0.0644701 1.27859e-16)
(-1.97186 -0.460642 1.10606e-15)
(-0.857268 -0.332635 -1.00179e-17)
(-0.177725 -0.217981 0)
(0.0231905 -0.127098 3.82777e-18)
(-0.296221 -0.130076 5.05578e-16)
(-0.561267 0.597953 0)
(-0.336425 0.147474 0)
(0.12048 -0.254923 0)
(0.354276 -0.206092 0)
(0.165985 0.062124 0)
(0.0422322 0.0628234 0)
(0.0216056 0.0834747 0)
(-0.089253 0.0690689 0)
(-0.192212 0.0492555 0)
(-0.225687 0.0272837 0)
(-0.168962 0.0117667 0)
(-0.099419 0.00467655 0)
(-0.0664476 0.00197818 0)
(-0.0578945 0.00141835 0)
(-0.0543837 0.00198066 0)
(-0.0481527 0.0014972 0)
(-0.0365611 0.000521608 0)
(-0.0232631 2.14841e-05 0)
(-0.0138541 -0.000103439 0)
(-0.00923743 -9.19978e-05 0)
(-0.00736333 -6.24743e-05 0)
(-0.00647314 -5.00835e-05 0)
(-0.0056923 -5.90499e-05 0)
(-0.00474502 -8.20534e-05 0)
(-0.00359037 -0.000110113 0)
(-0.00233923 -0.000137991 0)
(-0.000908811 -0.000158699 0)
(0.000843686 -0.000174844 0)
(0.00290085 -0.000184958 0)
(0.00459478 -0.00017024 0)
(0.00650782 -0.000171682 0)
(0.00796268 -0.000131955 0)
(0.0105394 -0.00021672 0)
(0.0135364 -4.61164e-05 0)
(0.0216296 -0.000230501 0)
(0.0317385 0.000436783 0)
(0.0347044 0.000178981 0)
(0.00716827 0.000251935 0)
(-0.0646144 0.00220281 0)
(-0.0542225 0.0130015 0)
(-0.5217 0.281999 0)
(-0.443149 0.135142 0)
(0.0234193 -0.111244 0)
(0.383384 -0.149211 0)
(0.213077 0.0163955 0)
(0.0490633 0.0379301 0)
(0.0167808 0.0390994 0)
(-0.0994473 0.0255803 0)
(-0.199262 0.0181305 0)
(-0.230024 0.0128239 0)
(-0.171299 0.00557572 0)
(-0.100318 0.00193071 0)
(-0.0667112 0.00068805 0)
(-0.0578647 0.000593712 0)
(-0.0543826 0.000846585 0)
(-0.0482996 0.000528975 0)
(-0.0366853 0.000144336 0)
(-0.023305 -2.76736e-05 0)
(-0.01386 -6.12698e-05 0)
(-0.00923363 -5.31474e-05 0)
(-0.00735976 -4.13835e-05 0)
(-0.00647256 -3.64197e-05 0)
(-0.00569465 -3.94631e-05 0)
(-0.00474921 -4.87322e-05 0)
(-0.00359527 -6.1066e-05 0)
(-0.00234369 -7.41976e-05 0)
(-0.000912441 -8.4833e-05 0)
(0.000840711 -9.41426e-05 0)
(0.00290053 -0.00010164 0)
(0.00459497 -9.86139e-05 0)
(0.00651037 -0.000102793 0)
(0.00795627 -8.8337e-05 0)
(0.0105449 -0.000131715 0)
(0.0135293 -6.34712e-05 0)
(0.0216739 -0.00015815 0)
(0.0317869 0.000154619 0)
(0.0347394 0.000103833 0)
(0.00760539 0.000530054 0)
(-0.0618538 0.00258574 0)
(-0.0518457 0.0147329 0)
(-0.525819 1.28094e-11 0)
(-0.450823 -3.24807e-11 0)
(0.0377595 -1.1118e-11 0)
(0.391408 8.54134e-11 0)
(0.220426 3.96838e-11 0)
(0.048837 2.45976e-11 0)
(0.0180129 4.90454e-12 0)
(-0.095353 -3.78682e-12 0)
(-0.195923 -5.46241e-12 0)
(-0.229339 -4.25007e-12 0)
(-0.172131 -3.30977e-12 0)
(-0.100841 -2.67502e-12 0)
(-0.0668365 -2.61588e-12 0)
(-0.0578484 -9.73811e-13 0)
(-0.0544025 6.24895e-13 0)
(-0.048357 -1.21825e-12 0)
(-0.0367231 -1.36215e-12 0)
(-0.0233229 -8.14137e-13 0)
(-0.0138615 -1.91214e-13 0)
(-0.00923164 -2.42467e-13 0)
(-0.00735846 -3.78485e-13 0)
(-0.00647258 -3.13433e-13 0)
(-0.00569588 -1.61645e-13 0)
(-0.00475131 5.91383e-14 0)
(-0.00359778 -3.21318e-13 0)
(-0.00234614 -8.98902e-13 0)
(-0.000914613 -1.37792e-12 0)
(0.000838796 -1.29316e-12 0)
(0.00289954 -7.412e-13 0)
(0.00459445 -6.36722e-13 0)
(0.00651081 -8.71304e-13 0)
(0.00795427 -2.46015e-12 0)
(0.0105466 -4.77443e-12 0)
(0.0135287 -6.78316e-12 0)
(0.0216931 -2.40299e-12 0)
(0.0318148 -2.11715e-12 0)
(0.0348136 -7.57364e-12 0)
(0.00789028 -1.07829e-12 0)
(-0.0604827 1.80687e-11 0)
(-0.0506888 5.39282e-11 0)
(-0.5217 -0.281999 0)
(-0.443149 -0.135142 0)
(0.0234193 0.111244 0)
(0.383384 0.149211 0)
(0.213077 -0.0163955 0)
(0.0490633 -0.0379301 0)
(0.0167808 -0.0390994 0)
(-0.0994473 -0.0255803 0)
(-0.199262 -0.0181305 0)
(-0.230024 -0.0128239 0)
(-0.171299 -0.00557572 0)
(-0.100318 -0.00193071 0)
(-0.0667112 -0.00068805 0)
(-0.0578647 -0.000593712 0)
(-0.0543826 -0.000846585 0)
(-0.0482996 -0.000528975 0)
(-0.0366853 -0.000144336 0)
(-0.023305 2.76736e-05 0)
(-0.01386 6.12698e-05 0)
(-0.00923363 5.31474e-05 0)
(-0.00735976 4.13835e-05 0)
(-0.00647256 3.64197e-05 0)
(-0.00569465 3.94631e-05 0)
(-0.00474921 4.87322e-05 0)
(-0.00359527 6.1066e-05 0)
(-0.00234369 7.41976e-05 0)
(-0.000912441 8.4833e-05 0)
(0.000840711 9.41425e-05 0)
(0.00290053 0.00010164 0)
(0.00459497 9.86139e-05 0)
(0.00651037 0.000102793 0)
(0.00795627 8.8337e-05 0)
(0.0105449 0.000131715 0)
(0.0135293 6.34712e-05 0)
(0.0216739 0.00015815 0)
(0.0317869 -0.000154619 0)
(0.0347394 -0.000103833 0)
(0.00760539 -0.000530054 0)
(-0.0618538 -0.00258574 0)
(-0.0518457 -0.0147329 0)
(-0.561267 -0.597953 0)
(-0.336425 -0.147474 0)
(0.12048 0.254923 0)
(0.354276 0.206092 0)
(0.165985 -0.062124 0)
(0.0422322 -0.0628234 0)
(0.0216056 -0.0834747 0)
(-0.089253 -0.0690689 0)
(-0.192212 -0.0492555 0)
(-0.225687 -0.0272837 0)
(-0.168962 -0.0117667 0)
(-0.099419 -0.00467655 0)
(-0.0664476 -0.00197818 0)
(-0.0578945 -0.00141835 0)
(-0.0543837 -0.00198066 0)
(-0.0481527 -0.0014972 0)
(-0.0365611 -0.000521608 0)
(-0.0232631 -2.14841e-05 0)
(-0.0138541 0.000103439 0)
(-0.00923743 9.19978e-05 0)
(-0.00736333 6.24743e-05 0)
(-0.00647314 5.00835e-05 0)
(-0.0056923 5.90499e-05 0)
(-0.00474502 8.20534e-05 0)
(-0.00359037 0.000110113 0)
(-0.00233923 0.000137991 0)
(-0.000908811 0.000158699 0)
(0.000843686 0.000174844 0)
(0.00290085 0.000184958 0)
(0.00459478 0.00017024 0)
(0.00650782 0.000171682 0)
(0.00796268 0.000131955 0)
(0.0105394 0.00021672 0)
(0.0135364 4.61164e-05 0)
(0.0216296 0.000230501 0)
(0.0317385 -0.000436783 0)
(0.0347044 -0.000178981 0)
(0.00716827 -0.000251935 0)
(-0.0646144 -0.00220281 0)
(-0.0542225 -0.0130015 0)
(-0.0289558 -0.270208 0)
(-0.0315635 0.112804 0)
(0.132975 0.308172 0)
(0.218164 0.109264 0)
(0.0988434 -0.0908516 0)
(0.043569 -0.0654012 0)
(0.00728448 -0.0777414 0)
(-0.0897698 -0.0825656 0)
(-0.181203 -0.0749337 0)
(-0.211524 -0.0487 0)
(-0.159821 -0.022915 0)
(-0.095218 -0.00886674 0)
(-0.0649723 -0.003972 0)
(-0.0578317 -0.00303937 0)
(-0.0544309 -0.0034988 0)
(-0.0475543 -0.00270038 0)
(-0.0359032 -0.00109712 0)
(-0.0229614 -9.42781e-05 0)
(-0.0137956 0.000196738 0)
(-0.00925493 0.000185242 0)
(-0.00738192 0.000130079 0)
(-0.00647404 0.000108192 0)
(-0.00567731 0.000126835 0)
(-0.00472203 0.000170704 0)
(-0.00356585 0.000222366 0)
(-0.00231837 0.000272388 0)
(-0.000893521 0.000308964 0)
(0.000853742 0.000335826 0)
(0.00289727 0.000350398 0)
(0.00458686 0.000324299 0)
(0.00648931 0.000316022 0)
(0.00797711 0.000254609 0)
(0.0104975 0.000353883 0)
(0.0135298 0.00013425 0)
(0.0214222 0.000250951 0)
(0.0315859 -0.00068694 0)
(0.0348959 -0.000367676 0)
(0.00684133 7.17619e-05 0)
(-0.0666594 0.0013135 0)
(-0.0558712 0.00262683 0)
(-0.0217567 -0.0311254 0)
(0.057447 -0.00127027 0)
(0.110369 0.0571978 0)
(0.0427502 -0.072936 0)
(0.0336757 -0.105825 0)
(0.0541489 -0.0845688 0)
(0.0127448 -0.0990365 0)
(-0.0862703 -0.105167 0)
(-0.165481 -0.0989745 0)
(-0.183154 -0.067658 0)
(-0.135479 -0.0325095 0)
(-0.0834176 -0.0128173 0)
(-0.0616232 -0.00660058 0)
(-0.0574722 -0.00538862 0)
(-0.0540317 -0.00513964 0)
(-0.0461593 -0.00375882 0)
(-0.0344026 -0.00161959 0)
(-0.0221781 -0.000145553 0)
(-0.0136161 0.000354451 0)
(-0.00929228 0.000373469 0)
(-0.0074276 0.00030403 0)
(-0.00647579 0.000276837 0)
(-0.0056401 0.000307542 0)
(-0.00466529 0.000375433 0)
(-0.00350553 0.000454807 0)
(-0.00226697 0.000531427 0)
(-0.00085588 0.000586301 0)
(0.000878221 0.000628133 0)
(0.00289165 0.000649968 0)
(0.0045659 0.000611677 0)
(0.00645059 0.000595686 0)
(0.00799143 0.000518342 0)
(0.0104459 0.000630205 0)
(0.0134407 0.000414702 0)
(0.0209495 0.000385228 0)
(0.0312243 -0.000760528 0)
(0.0353328 -0.000533657 0)
(0.00896363 0.000425919 0)
(-0.0610557 0.00451796 0)
(-0.0520728 0.0133638 0)
(-0.000186313 -0.129277 0)
(0.0535479 -0.0776845 0)
(0.0639152 -0.140511 0)
(0.0610695 -0.133101 0)
(0.0876335 -0.087757 0)
(0.0501108 -0.0750493 0)
(-0.0125643 -0.108307 0)
(-0.08971 -0.120766 0)
(-0.145059 -0.109161 0)
(-0.147476 -0.0724511 0)
(-0.106974 -0.0352278 0)
(-0.0702512 -0.0157074 0)
(-0.0578138 -0.00954491 0)
(-0.0564239 -0.00784641 0)
(-0.0528604 -0.00673908 0)
(-0.0441622 -0.00462794 0)
(-0.0324213 -0.0020065 0)
(-0.0210591 -0.000181831 0)
(-0.0132954 0.000503961 0)
(-0.00930351 0.00057982 0)
(-0.00747504 0.000518808 0)
(-0.00647065 0.000498223 0)
(-0.0055823 0.000546232 0)
(-0.00458012 0.000640381 0)
(-0.00341553 0.000748568 0)
(-0.00219166 0.00085165 0)
(-0.000800331 0.000918544 0)
(0.000915094 0.000974991 0)
(0.00288142 0.00100303 0)
(0.00453455 0.000945747 0)
(0.00639937 0.000921119 0)
(0.00801037 0.000828129 0)
(0.0103976 0.000944569 0)
(0.0132938 0.000726876 0)
(0.0202897 0.000587996 0)
(0.0307004 -0.000689557 0)
(0.0360392 -0.00051805 0)
(0.0117092 0.000884106 0)
(-0.0541919 0.00507774 0)
(-0.047347 0.0129182 0)
(0.0279594 -0.0892 0)
(0.0466217 -0.0610393 0)
(0.0569674 -0.107452 0)
(0.0935854 -0.0796509 0)
(0.0896166 -0.070306 0)
(0.034346 -0.0925389 0)
(-0.0313092 -0.116435 0)
(-0.0870936 -0.121338 0)
(-0.118923 -0.102568 0)
(-0.111909 -0.0664978 0)
(-0.0807988 -0.0339622 0)
(-0.0586686 -0.0176606 0)
(-0.0540481 -0.0121251 0)
(-0.0547684 -0.0100303 0)
(-0.0509302 -0.00799299 0)
(-0.0415988 -0.00513378 0)
(-0.0301182 -0.00212278 0)
(-0.019759 -0.000120381 0)
(-0.0128822 0.00067366 0)
(-0.00927797 0.000805507 0)
(-0.00750623 0.000773367 0)
(-0.00644936 0.000773975 0)
(-0.00550311 0.000842975 0)
(-0.00447031 0.000959221 0)
(-0.00330194 0.00108729 0)
(-0.00210317 0.00120393 0)
(-0.000737024 0.00128072 0)
(0.00095963 0.00134228 0)
(0.00286347 0.00135536 0)
(0.00448697 0.00127251 0)
(0.00633725 0.00122502 0)
(0.00801402 0.00111176 0)
(0.0103483 0.00118702 0)
(0.0130971 0.000976797 0)
(0.0195846 0.000743845 0)
(0.0301585 -0.000437862 0)
(0.0368492 -0.000434828 0)
(0.0143559 0.00122789 0)
(-0.0494592 0.00478513 0)
(-0.0445175 0.00969774 0)
(0.0269504 -0.0275499 0)
(0.03596 -0.0338193 0)
(0.0459803 -0.0491208 0)
(0.0968643 -0.0599006 0)
(0.0752141 -0.0640162 0)
(0.00565963 -0.10082 0)
(-0.0403165 -0.113969 0)
(-0.0763481 -0.109089 0)
(-0.0922123 -0.088374 0)
(-0.0813645 -0.0560279 0)
(-0.0599131 -0.0308228 0)
(-0.0492082 -0.0183215 0)
(-0.050461 -0.0137668 0)
(-0.052442 -0.0115036 0)
(-0.0481419 -0.00860325 0)
(-0.0385055 -0.00512076 0)
(-0.0275903 -0.00190652 0)
(-0.0183643 0.000149073 0)
(-0.0124032 0.000982831 0)
(-0.00920743 0.00116186 0)
(-0.00750543 0.00117103 0)
(-0.00640358 0.00120285 0)
(-0.00540379 0.00129375 0)
(-0.00434469 0.00142498 0)
(-0.00317973 0.00156162 0)
(-0.00200526 0.00168086 0)
(-0.000667009 0.00177361 0)
(0.000987025 0.0018314 0)
(0.00281418 0.00181039 0)
(0.00440894 0.00170258 0)
(0.00624447 0.00162603 0)
(0.00797376 0.00149109 0)
(0.0102676 0.00151147 0)
(0.0128667 0.00131162 0)
(0.0189265 0.00104573 0)
(0.0295646 9.75892e-05 0)
(0.0376444 -5.75978e-05 0)
(0.0167394 0.00188659 0)
(-0.0460301 0.00458758 0)
(-0.0426131 0.0078048 0)
(0.0219181 -0.00362322 0)
(0.0258352 -0.0201249 0)
(0.0318345 -0.0343854 0)
(0.0792316 -0.0503033 0)
(0.0501857 -0.0739059 0)
(-0.0137905 -0.0969573 0)
(-0.0392782 -0.101114 0)
(-0.0624291 -0.092275 0)
(-0.0677912 -0.0716993 0)
(-0.0564509 -0.0450355 0)
(-0.0444635 -0.0268601 0)
(-0.0422328 -0.0183302 0)
(-0.0474781 -0.0149783 0)
(-0.0497927 -0.012428 0)
(-0.0447795 -0.00872918 0)
(-0.0351456 -0.00473325 0)
(-0.02504 -0.00141483 0)
(-0.0169747 0.000602094 0)
(-0.0119062 0.00143333 0)
(-0.00909662 0.00166017 0)
(-0.00746673 0.0017212 0)
(-0.00633111 0.00179 0)
(-0.00528906 0.00189904 0)
(-0.00421218 0.00203299 0)
(-0.00305536 0.00216237 0)
(-0.0018989 0.00227094 0)
(-0.00059196 0.00236097 0)
(0.000995076 0.00238991 0)
(0.00273933 0.00231604 0)
(0.00430932 0.00216553 0)
(0.00613346 0.00203375 0)
(0.00790363 0.00185175 0)
(0.0101754 0.00179282 0)
(0.0126483 0.00157994 0)
(0.0184147 0.00130888 0)
(0.0290952 0.000511032 0)
(0.0385731 0.00029479 0)
(0.0188322 0.002591 0)
(-0.0437562 0.00491 0)
(-0.0414173 0.00831325 0)
(0.0110487 -0.00024387 0)
(0.00631647 -0.0251641 0)
(0.0168993 -0.0402528 0)
(0.0587809 -0.0453299 0)
(0.0302567 -0.0796307 0)
(-0.0205596 -0.0854808 0)
(-0.0358045 -0.0859125 0)
(-0.0480025 -0.0751475 0)
(-0.0466906 -0.0552345 0)
(-0.0381558 -0.0356002 0)
(-0.0341789 -0.023087 0)
(-0.0377584 -0.0178592 0)
(-0.0447734 -0.0154794 0)
(-0.0464201 -0.0124261 0)
(-0.040727 -0.00806446 0)
(-0.0314571 -0.00379216 0)
(-0.0224489 -0.000416767 0)
(-0.0156198 0.00146382 0)
(-0.0113836 0.00227039 0)
(-0.00893003 0.00253822 0)
(-0.00738032 0.00264998 0)
(-0.0062322 0.00275131 0)
(-0.00516962 0.00286865 0)
(-0.00409094 0.00299139 0)
(-0.00295043 0.00309709 0)
(-0.00181389 0.00317755 0)
(-0.000552361 0.00323934 0)
(0.000943734 0.00322248 0)
(0.00259796 0.00308018 0)
(0.00413691 0.00286834 0)
(0.00594209 0.00265887 0)
(0.00774158 0.00240273 0)
(0.0100057 0.00224382 0)
(0.0124004 0.00198377 0)
(0.0178964 0.00172117 0)
(0.0285874 0.000982379 0)
(0.0396487 0.00079457 0)
(0.0211868 0.00309669 0)
(-0.0405159 0.0054218 0)
(-0.0393336 0.0098221 0)
(-0.00209592 -0.00865152 0)
(-0.0127188 -0.0354028 0)
(0.0124019 -0.0437628 0)
(0.0412856 -0.0429485 0)
(0.0114949 -0.0768617 0)
(-0.0198438 -0.0748221 0)
(-0.0293207 -0.0703469 0)
(-0.0328667 -0.0568313 0)
(-0.0296819 -0.0403192 0)
(-0.0254725 -0.0275932 0)
(-0.0273677 -0.0199387 0)
(-0.0349018 -0.0171571 0)
(-0.0422426 -0.0152368 0)
(-0.0426474 -0.0116007 0)
(-0.0364595 -0.00680261 0)
(-0.027776 -0.00247353 0)
(-0.0199751 0.000714473 0)
(-0.0143852 0.00244853 0)
(-0.0108709 0.0032262 0)
(-0.00873084 0.00353301 0)
(-0.0072614 0.00369376 0)
(-0.00612038 0.00382509 0)
(-0.00505771 0.00394822 0)
(-0.00399205 0.00405784 0)
(-0.00287597 0.00413823 0)
(-0.00176182 0.00418773 0)
(-0.000548661 0.00421276 0)
(0.000841707 0.00414813 0)
(0.00239806 0.00393947 0)
(0.00390333 0.00366832 0)
(0.00568478 0.00338583 0)
(0.00750366 0.00306289 0)
(0.00977162 0.00281372 0)
(0.0121446 0.00251562 0)
(0.0174497 0.00225631 0)
(0.0282023 0.00160173 0)
(0.0406106 0.0014773 0)
(0.0232912 0.0035551 0)
(-0.0372754 0.00606987 0)
(-0.037177 0.0115452 0)
(-0.0147298 -0.0155048 0)
(-0.0275181 -0.0383605 0)
(0.00962805 -0.0415866 0)
(0.0268856 -0.0495696 0)
(-0.000457843 -0.0650762 0)
(-0.0142816 -0.0610318 0)
(-0.018468 -0.0521699 0)
(-0.0190667 -0.0401696 0)
(-0.0185157 -0.0289252 0)
(-0.0185165 -0.0213982 0)
(-0.0241222 -0.0176333 0)
(-0.0332275 -0.0165545 0)
(-0.0394191 -0.0144707 0)
(-0.0382926 -0.0101625 0)
(-0.0319317 -0.00510828 0)
(-0.0242134 -0.000714694 0)
(-0.0177058 0.00211897 0)
(-0.0131994 0.00374211 0)
(-0.0103385 0.00450707 0)
(-0.00847947 0.00486254 0)
(-0.00709887 0.00506954 0)
(-0.005987 0.00521788 0)
(-0.00494533 0.00532746 0)
(-0.00390783 0.0054021 0)
(-0.00282526 0.0054368 0)
(-0.00174207 0.00544434 0)
(-0.00059053 0.00539622 0)
(0.000680385 0.00524995 0)
(0.00213559 0.00497848 0)
(0.0036034 0.00463029 0)
(0.00535868 0.00426835 0)
(0.00719028 0.00387027 0)
(0.00947829 0.00353998 0)
(0.0118632 0.00319622 0)
(0.0170158 0.00293603 0)
(0.0278367 0.00232009 0)
(0.0415311 0.00226835 0)
(0.0256123 0.00403933 0)
(-0.0328164 0.00693738 0)
(-0.0340573 0.0137861 0)
(-0.0241205 -0.0166408 0)
(-0.0378522 -0.0338604 0)
(0.00160039 -0.0381297 0)
(0.0186502 -0.0510495 0)
(0.000449481 -0.045312 0)
(-0.00740679 -0.0421828 0)
(-0.00921715 -0.0348106 0)
(-0.0104674 -0.0277485 0)
(-0.011593 -0.0210524 0)
(-0.0145912 -0.017112 0)
(-0.0227002 -0.0159852 0)
(-0.0318542 -0.0155138 0)
(-0.036083 -0.012741 0)
(-0.0336254 -0.00795011 0)
(-0.0273552 -0.00297305 0)
(-0.0208116 0.00103512 0)
(-0.0156804 0.00352857 0)
(-0.012084 0.00495684 0)
(-0.00979118 0.00568032 0)
(-0.00818882 0.00606348 0)
(-0.00691898 0.0063084 0)
(-0.00587184 0.00648026 0)
(-0.00488019 0.00659832 0)
(-0.00388669 0.00667361 0)
(-0.00283527 0.00671004 0)
(-0.00180092 0.0067215 0)
(-0.00073598 0.00663283 0)
(0.000439156 0.00646079 0)
(0.00180093 0.00618224 0)
(0.00321902 0.005806 0)
(0.0049524 0.00541262 0)
(0.00680178 0.00499196 0)
(0.00912209 0.00464098 0)
(0.0115626 0.00430437 0)
(0.0166055 0.00408594 0)
(0.0275589 0.00355413 0)
(0.0422673 0.00362036 0)
(0.0277904 0.00502088 0)
(-0.027883 0.00822834 0)
(-0.0305773 0.0159805 0)
(-0.0313231 -0.0123168 0)
(-0.0482255 -0.0245749 0)
(-0.00693604 -0.0317845 0)
(0.0199644 -0.0365469 0)
(0.00808644 -0.02759 0)
(-0.00416214 -0.0266469 0)
(-0.00455854 -0.0227438 0)
(-0.0058088 -0.0187256 0)
(-0.00826607 -0.0149648 0)
(-0.0136335 -0.013729 0)
(-0.0225821 -0.0142717 0)
(-0.0301013 -0.0136025 0)
(-0.0321304 -0.0103107 0)
(-0.0288799 -0.0051932 0)
(-0.0232732 -0.000362755 0)
(-0.0179482 0.00297006 0)
(-0.0139267 0.00516453 0)
(-0.0111259 0.0063995 0)
(-0.00927214 0.00708536 0)
(-0.00787423 0.00749091 0)
(-0.00669725 0.007759 0)
(-0.00570761 0.00793207 0)
(-0.00475901 0.00803826 0)
(-0.00380018 0.00810395 0)
(-0.00277911 0.00814007 0)
(-0.00181647 0.00814904 0)
(-0.000841762 0.00804104 0)
(0.000246178 0.00787557 0)
(0.00150462 0.00759599 0)
(0.00286177 0.00722579 0)
(0.00457424 0.00683598 0)
(0.0064467 0.00642429 0)
(0.0088157 0.00610305 0)
(0.0113284 0.00581089 0)
(0.0162928 0.00566999 0)
(0.027388 0.00525029 0)
(0.0429445 0.00540424 0)
(0.0300527 0.00654849 0)
(-0.0222552 0.0100445 0)
(-0.026587 0.018428 0)
(-0.0359329 -0.00785328 0)
(-0.056612 -0.0160194 0)
(-0.00993626 -0.020719 0)
(0.0226921 -0.0198653 0)
(0.00998948 -0.016304 0)
(-0.00273678 -0.0163522 0)
(-0.00158389 -0.013956 0)
(-0.00297122 -0.0122146 0)
(-0.00677804 -0.0108221 0)
(-0.0139233 -0.0113117 0)
(-0.0225783 -0.0121268 0)
(-0.0280372 -0.0107858 0)
(-0.0279795 -0.00698522 0)
(-0.0240392 -0.00208232 0)
(-0.0194888 0.00209364 0)
(-0.0154853 0.00491879 0)
(-0.0123757 0.00670845 0)
(-0.010233 0.00769775 0)
(-0.00873946 0.0082606 0)
(-0.00753967 0.00862663 0)
(-0.00649386 0.00891916 0)
(-0.00560274 0.00916503 0)
(-0.00471456 0.00936856 0)
(-0.00378858 0.00952857 0)
(-0.00279182 0.00963605 0)
(-0.00189635 0.00968519 0)
(-0.000999511 0.00960305 0)
(1.02931e-05 0.00946731 0)
(0.00117478 0.00919365 0)
(0.00248665 0.00884717 0)
(0.00418005 0.00848567 0)
(0.0060955 0.00811581 0)
(0.00853099 0.00786966 0)
(0.0111453 0.007683 0)
(0.0160652 0.00769261 0)
(0.0273028 0.00748066 0)
(0.0435183 0.00785366 0)
(0.0322619 0.00900513 0)
(-0.0164355 0.0126472 0)
(-0.0224986 0.0213533 0)
(-0.0391923 -0.00521866 0)
(-0.0606234 -0.00998526 0)
(-0.0106422 -0.0115303 0)
(0.0242189 -0.010816 0)
(0.0114718 -0.00736196 0)
(-0.00189951 -0.00740138 0)
(-0.000571365 -0.00615807 0)
(-0.0027889 -0.00621578 0)
(-0.00739597 -0.00705328 0)
(-0.0148907 -0.00895331 0)
(-0.0220753 -0.00940131 0)
(-0.0251467 -0.00691764 0)
(-0.0237435 -0.00235798 0)
(-0.0201312 0.00195842 0)
(-0.0165266 0.00532127 0)
(-0.0135012 0.00779217 0)
(-0.0112488 0.00932513 0)
(-0.00963015 0.0102475 0)
(-0.00837704 0.0108329 0)
(-0.00723963 0.0112364 0)
(-0.00617843 0.0115288 0)
(-0.00527456 0.0117237 0)
(-0.00440868 0.0118508 0)
(-0.00354241 0.0119354 0)
(-0.00262819 0.0119759 0)
(-0.00184827 0.0119778 0)
(-0.00105172 0.0118797 0)
(-0.000148329 0.01175 0)
(0.000907033 0.0114712 0)
(0.00217953 0.0111768 0)
(0.00386947 0.010862 0)
(0.00585309 0.0105452 0)
(0.00839863 0.0103927 0)
(0.0111578 0.0103131 0)
(0.0160978 0.0104606 0)
(0.0275432 0.0105084 0)
(0.0444135 0.0110791 0)
(0.034672 0.0122784 0)
(-0.0103561 0.0155801 0)
(-0.0181975 0.0232876 0)
(-0.0405261 -0.000356453 0)
(-0.0626941 -0.00199576 0)
(-0.0107368 -0.00270788 0)
(0.0267089 -0.00168153 0)
(0.01328 0.000376136 0)
(-0.00157667 -0.000248837 0)
(-0.000441395 -0.000264427 0)
(-0.00383387 -0.00160622 0)
(-0.00941603 -0.00376184 0)
(-0.0161859 -0.00562032 0)
(-0.0206167 -0.00500647 0)
(-0.02125 -0.00157024 0)
(-0.0194263 0.00258333 0)
(-0.0166392 0.00627564 0)
(-0.0138672 0.00919492 0)
(-0.011627 0.0113265 0)
(-0.0100097 0.0127536 0)
(-0.00878008 0.0136942 0)
(-0.00778649 0.0142734 0)
(-0.00686905 0.0146152 0)
(-0.00602423 0.0148827 0)
(-0.00529243 0.0151006 0)
(-0.00451055 0.0151964 0)
(-0.00366808 0.015159 0)
(-0.00275097 0.0150409 0)
(-0.001989 0.014907 0)
(-0.00121909 0.0147101 0)
(-0.000383397 0.0145134 0)
(0.000622459 0.0142427 0)
(0.00189959 0.0140164 0)
(0.00357138 0.013756 0)
(0.00564328 0.0135297 0)
(0.00830742 0.0135049 0)
(0.0112108 0.0135651 0)
(0.0162534 0.0138554 0)
(0.0278989 0.0140939 0)
(0.0452239 0.0147846 0)
(0.0365992 0.016217 0)
(-0.00582673 0.0184316 0)
(-0.0150714 0.0233207 0)
(-0.040772 0.00638916 0)
(-0.0628893 0.00818492 0)
(-0.0103394 0.00979162 0)
(0.0271907 0.0102648 0)
(0.0128524 0.00951624 0)
(-0.00251678 0.00810124 0)
(-0.00187939 0.0066691 0)
(-0.00615913 0.0042389 0)
(-0.0112641 0.00197496 0)
(-0.0160901 0.00161521 0)
(-0.0181725 0.00339119 0)
(-0.0178329 0.00678541 0)
(-0.0161829 0.0104014 0)
(-0.01376 0.0137465 0)
(-0.0116594 0.0164681 0)
(-0.0100719 0.0185816 0)
(-0.00896724 0.0202623 0)
(-0.00816567 0.0215889 0)
(-0.00748959 0.022548 0)
(-0.00665252 0.0231379 0)
(-0.00571066 0.02344 0)
(-0.00497218 0.0234562 0)
(-0.00435237 0.0231809 0)
(-0.00369234 0.0227182 0)
(-0.0028711 0.0222061 0)
(-0.00216698 0.0217945 0)
(-0.00143099 0.0213639 0)
(-0.000598715 0.0210186 0)
(0.000428112 0.0206322 0)
(0.00171051 0.02027 0)
(0.00340047 0.0199022 0)
(0.00561109 0.0196567 0)
(0.00843276 0.0196936 0)
(0.0114955 0.0198786 0)
(0.0166074 0.0202778 0)
(0.0284386 0.0207783 0)
(0.0464594 0.0216737 0)
(0.0381864 0.0230795 0)
(-0.00351076 0.0224828 0)
(-0.0134862 0.0228351 0)
(-0.0387957 0.0166385 0)
(-0.0594154 0.0234565 0)
(-0.00873262 0.0267819 0)
(0.0264435 0.0263716 0)
(0.0111951 0.022397 0)
(-0.00432028 0.0202541 0)
(-0.00416328 0.0175008 0)
(-0.00835732 0.0148677 0)
(-0.0119443 0.0131545 0)
(-0.0148212 0.0140031 0)
(-0.0156345 0.0164151 0)
(-0.0144947 0.0196715 0)
(-0.0127183 0.0231227 0)
(-0.0107931 0.0260829 0)
(-0.00920793 0.0283288 0)
(-0.00797082 0.0299914 0)
(-0.0071117 0.0312202 0)
(-0.0065775 0.0321535 0)
(-0.0062938 0.0328809 0)
(-0.00600945 0.033419 0)
(-0.00571751 0.0337206 0)
(-0.00554207 0.0337836 0)
(-0.00522169 0.0337237 0)
(-0.00460748 0.0336512 0)
(-0.00364106 0.0335056 0)
(-0.0028006 0.0333921 0)
(-0.00196678 0.0331297 0)
(-0.00108844 0.0330395 0)
(-9.89787e-05 0.0328089 0)
(0.00119616 0.0325827 0)
(0.00298039 0.0325349 0)
(0.00544225 0.0326316 0)
(0.00852125 0.0330591 0)
(0.0117737 0.0335978 0)
(0.0171204 0.0343793 0)
(0.029244 0.0353013 0)
(0.0474415 0.0366354 0)
(0.037379 0.0377881 0)
(-0.00606226 0.0324605 0)
(-0.014732 0.0255168 0)
(-0.0342018 -0.0146854 0)
(-0.0531147 0.0397966 0)
(-0.00753031 0.0598241 0)
(0.0229653 0.0552636 0)
(0.00695739 0.045055 0)
(-0.00723489 0.0410256 0)
(-0.00706998 0.0359531 0)
(-0.0103474 0.0323931 0)
(-0.0120972 0.0305505 0)
(-0.012948 0.0312183 0)
(-0.0127103 0.0330797 0)
(-0.0113692 0.0350758 0)
(-0.0100046 0.0364217 0)
(-0.00874328 0.037065 0)
(-0.00789301 0.0370671 0)
(-0.00728559 0.036759 0)
(-0.00688377 0.0362623 0)
(-0.00656538 0.035714 0)
(-0.00627014 0.0353274 0)
(-0.00584328 0.0352827 0)
(-0.00535935 0.0355201 0)
(-0.00496924 0.0360602 0)
(-0.00447996 0.036908 0)
(-0.00390254 0.0380839 0)
(-0.00312073 0.0393998 0)
(-0.00252913 0.0408926 0)
(-0.00177079 0.042343 0)
(-0.000907848 0.0437161 0)
(-1.20467e-05 0.0450564 0)
(0.00144643 0.0462019 0)
(0.00344759 0.0473962 0)
(0.00611626 0.0484145 0)
(0.0093638 0.049701 0)
(0.0127677 0.0508734 0)
(0.0182489 0.0525429 0)
(0.0306127 0.0537097 0)
(0.0488558 0.0550706 0)
(0.0341633 0.0575866 0)
(-0.0153358 0.0437148 0)
(-0.0201774 -0.016452 0)
(0.0137052 -0.55512 0)
(0.0123847 -0.0842553 0)
(0.00617203 0.0545926 0)
(0.0122115 0.034775 0)
(-0.00252519 0.0223604 0)
(-0.0130912 0.0168553 0)
(-0.0124819 0.0116137 0)
(-0.0135634 0.00751979 0)
(-0.0130764 0.00547289 0)
(-0.012384 0.00470836 0)
(-0.0119173 0.00490332 0)
(-0.0112742 0.00499974 0)
(-0.0108014 0.00494065 0)
(-0.0101712 0.00452702 0)
(-0.00950284 0.00400359 0)
(-0.00874637 0.00363838 0)
(-0.00811866 0.0036244 0)
(-0.00747846 0.0040784 0)
(-0.00670938 0.00501865 0)
(-0.00582368 0.00630163 0)
(-0.00496834 0.00742184 0)
(-0.00420465 0.008484 0)
(-0.00327157 0.0101468 0)
(-0.00220635 0.0123478 0)
(-0.000934503 0.0147388 0)
(3.55823e-05 0.0173546 0)
(0.000754049 0.0204343 0)
(0.00152633 0.0230943 0)
(0.00229644 0.0259438 0)
(0.00345087 0.028605 0)
(0.00511253 0.0313081 0)
(0.00766321 0.0338608 0)
(0.0108907 0.0366393 0)
(0.0145122 0.0391474 0)
(0.0198537 0.0414786 0)
(0.0316798 0.0413655 0)
(0.0511774 0.0383639 0)
(0.0264361 0.0291676 0)
(-0.0774086 -0.0986342 0)
(-0.0727109 -0.516313 0)
(0.419541 -0.543586 0)
(0.534427 -0.554493 0)
(0.107172 -0.124939 0)
(-0.00809488 -0.10406 0)
(-0.0103106 -0.116044 0)
(-0.0175908 -0.11989 0)
(-0.0160661 -0.123419 0)
(-0.016265 -0.126312 0)
(-0.0148064 -0.126617 0)
(-0.0134969 -0.125876 0)
(-0.0124296 -0.123476 0)
(-0.0113332 -0.119914 0)
(-0.0104601 -0.114834 0)
(-0.00964626 -0.109147 0)
(-0.00874934 -0.10276 0)
(-0.00765099 -0.0959483 0)
(-0.00645974 -0.0888457 0)
(-0.00522183 -0.0816719 0)
(-0.00412775 -0.0746158 0)
(-0.00352747 -0.0681256 0)
(-0.00325634 -0.0635029 0)
(-0.00234342 -0.0604173 0)
(-0.000756702 -0.0570597 0)
(0.000522496 -0.0537682 0)
(0.00170408 -0.0502896 0)
(0.00295925 -0.0470118 0)
(0.00376019 -0.042314 0)
(0.00440131 -0.038038 0)
(0.00529819 -0.0329352 0)
(0.00661571 -0.0277356 0)
(0.00851236 -0.0218944 0)
(0.0112536 -0.0158381 0)
(0.0144582 -0.00933375 0)
(0.017431 -0.00359558 0)
(0.0203863 0.000324964 0)
(0.0276112 -0.00061946 0)
(0.0371015 -0.00892637 0)
(-0.097853 -0.0698219 0)
(-0.540981 -0.551353 0)
(-0.422668 -0.495581 0)
(0.00319492 -0.0151865 0)
(0.415808 -0.447244 0)
(0.440225 -0.138281 0)
(0.0207826 -0.101622 0)
(-0.017779 -0.108314 0)
(-0.0201976 -0.109372 0)
(-0.0186702 -0.111019 0)
(-0.0166454 -0.112075 0)
(-0.0126568 -0.111414 0)
(-0.00935745 -0.109844 0)
(-0.00617232 -0.107119 0)
(-0.00294667 -0.103351 0)
(-0.000425105 -0.0984155 0)
(0.00146429 -0.0929371 0)
(0.00321544 -0.0868857 0)
(0.00466177 -0.0805208 0)
(0.00563863 -0.0741083 0)
(0.00623403 -0.0679659 0)
(0.00634433 -0.0622201 0)
(0.00488508 -0.0570987 0)
(0.00245963 -0.0534901 0)
(0.00200426 -0.051167 0)
(0.00313574 -0.0489784 0)
(0.00431755 -0.0471277 0)
(0.00557619 -0.0450401 0)
(0.00772115 -0.0431095 0)
(0.00940153 -0.0400985 0)
(0.0105641 -0.0372552 0)
(0.0122242 -0.0337032 0)
(0.0140902 -0.0300678 0)
(0.0165774 -0.0259466 0)
(0.0197671 -0.0216985 0)
(0.0226881 -0.0171118 0)
(0.0238197 -0.013158 0)
(0.0227216 -0.010482 0)
(0.0227649 -0.0107346 0)
(-0.0155086 -0.0155111 0)
(-0.496266 -0.06533 0)
(-0.487686 -0.428959 0)
(-0.0189671 -0.0100239 0)
(0.00319492 0.0151865 0)
(0.415808 0.447244 0)
(0.440225 0.138281 0)
(0.0207826 0.101622 0)
(-0.017779 0.108314 0)
(-0.0201976 0.109372 0)
(-0.0186702 0.111019 0)
(-0.0166454 0.112075 0)
(-0.0126568 0.111414 0)
(-0.00935745 0.109844 0)
(-0.00617232 0.107119 0)
(-0.00294667 0.103351 0)
(-0.000425105 0.0984155 0)
(0.00146429 0.0929371 0)