/*--------------------------------*- C++ -*----------------------------------*\
| =========                 |                                                 |
| \\      /  F ield         | OpenFOAM: The Open Source CFD Toolbox           |
|  \\    /   O peration     | Version:  v1912                                 |
|   \\  /    A nd           | Website:  www.openfoam.com                      |
|    \\/     M anipulation  |                                                 |
\*---------------------------------------------------------------------------*/
FoamFile
{
    version     2.0;
    format      ascii;
    class       volVectorField;
    location    "4.08";
    object      U;
}
// * * * * * * * * * * * * * * * * * * * * * * * * * * * * * * * * * * * * * //

dimensions      [0 1 -1 0 0 0 0];


internalField   nonuniform List<vector> 
1900
(
(-0.767234 -1.54928e-06 0)
(-0.11084 -3.51037e-06 0)
(-0.0774349 -9.63818e-06 0)
(-0.0748118 1.55964e-05 0)
(-0.0698524 8.13606e-05 0)
(-0.0631078 0.000219141 0)
(-0.0552616 0.000578999 0)
(-0.0459888 0.00111113 0)
(-0.0358321 -0.0012471 0)
(-0.0220614 -0.00308854 0)
(-0.767244 -7.60796e-06 0)
(-0.110845 -6.37153e-06 0)
(-0.0774507 -3.04601e-06 0)
(-0.0748263 1.44144e-05 0)
(-0.0698465 6.41936e-05 0)
(-0.0629844 0.0001926 0)
(-0.0547309 0.000510653 0)
(-0.0442487 0.000895202 0)
(-0.033298 -0.000814712 0)
(-0.0209308 -0.000820825 0)
(-0.767245 -2.14581e-15 0)
(-0.110844 3.11572e-14 0)
(-0.0774504 -3.09895e-14 0)
(-0.0748082 -4.29891e-15 0)
(-0.0697806 1.24885e-14 0)
(-0.0628127 2.32449e-14 0)
(-0.0543272 -4.69599e-16 0)
(-0.0435496 1.42807e-15 0)
(-0.0326961 -4.26553e-14 0)
(-0.0215508 -2.5335e-14 0)
(-0.767244 7.60796e-06 0)
(-0.110845 6.37153e-06 0)
(-0.0774507 3.046e-06 0)
(-0.0748263 -1.44144e-05 0)
(-0.0698465 -6.41936e-05 0)
(-0.0629844 -0.0001926 0)
(-0.0547309 -0.000510653 0)
(-0.0442487 -0.000895202 0)
(-0.033298 0.000814712 0)
(-0.0209308 0.000820825 0)
(-0.767234 1.54928e-06 0)
(-0.11084 3.51037e-06 0)
(-0.0774349 9.63818e-06 0)
(-0.0748118 -1.55964e-05 0)
(-0.0698524 -8.13606e-05 0)
(-0.0631078 -0.000219141 0)
(-0.0552616 -0.000578999 0)
(-0.0459888 -0.00111113 0)
(-0.0358321 0.0012471 0)
(-0.0220614 0.00308854 0)
(-0.0153446 -0.0105008 0)
(-0.00743453 -0.00950139 0)
(-7.81137e-05 -0.00663714 0)
(0.00715307 -0.00352342 0)
(0.0113527 -0.000413015 0)
(-0.0141206 -0.00536108 0)
(-0.00789404 -0.00480831 0)
(-0.00276036 -0.00290029 0)
(0.00240044 -0.000900948 0)
(0.00556627 0.000240199 0)
(-0.0143405 -1.22798e-14 0)
(-0.00951786 -1.08938e-14 0)
(-0.00535917 1.25571e-14 0)
(-0.000484753 -8.80089e-15 0)
(0.00331195 1.47308e-17 0)
(-0.0141206 0.00536108 0)
(-0.00789404 0.00480831 0)
(-0.00276036 0.00290029 0)
(0.00240044 0.000900948 0)
(0.00556627 -0.000240199 0)
(-0.0153446 0.0105008 0)
(-0.00743453 0.00950139 0)
(-7.81137e-05 0.00663714 0)
(0.00715307 0.00352342 0)
(0.0113527 0.000413015 0)
(0.0287577 0.000691547 0)
(0.0572285 -0.00298434 0)
(0.0769657 -0.00284291 0)
(0.0960034 0.00664706 0)
(0.0868495 0.0257854 0)
(0.0253433 0.000787708 0)
(0.0555724 -0.00292631 0)
(0.0749731 -0.00287396 0)
(0.109542 0.00592812 0)
(0.16618 0.0411985 0)
(0.0232801 7.84416e-15 0)
(0.0544041 3.17314e-14 0)
(0.0744395 2.39468e-14 0)
(0.116377 1.51842e-14 0)
(0.203134 -6.28534e-14 0)
(0.0253433 -0.000787708 0)
(0.0555724 0.00292631 0)
(0.0749731 0.00287396 0)
(0.109542 -0.00592812 0)
(0.16618 -0.0411985 0)
(0.0287577 -0.000691547 0)
(0.0572285 0.00298434 0)
(0.0769657 0.00284291 0)
(0.0960034 -0.00664706 0)
(0.0868495 -0.0257854 0)
(-0.0275048 -0.00632177 0)
(0.205075 -0.145817 0)
(0.089848 -0.196276 0)
(-0.0955058 -0.161376 0)
(-0.212102 -0.0865954 0)
(-0.272243 -0.0460897 0)
(-0.31473 -0.0350293 0)
(-0.349233 -0.0315337 0)
(-0.358891 -0.0281259 0)
(-0.347827 -0.0270339 0)
(-0.326944 -0.026468 0)
(-0.300829 -0.0261021 0)
(-0.271377 -0.0258229 0)
(-0.239174 -0.0256323 0)
(-0.204798 -0.0254935 0)
(-0.168689 -0.0253861 0)
(-0.131169 -0.025298 0)
(-0.0925069 -0.025224 0)
(-0.052841 -0.0251537 0)
(-0.0125173 -0.0252313 0)
(0.0282778 -0.0251901 0)
(0.0696011 -0.0250642 0)
(0.111201 -0.0250792 0)
(0.152788 -0.0250894 0)
(0.194255 -0.0251029 0)
(0.235427 -0.025121 0)
(0.276145 -0.0251453 0)
(0.316218 -0.0251751 0)
(0.355446 -0.0252203 0)
(0.393646 -0.0252413 0)
(0.430513 -0.0253459 0)
(0.465444 -0.0252293 0)
(0.497386 -0.0255044 0)
(0.52479 -0.0250837 0)
(0.547501 -0.025657 0)
(0.56458 -0.0250944 0)
(0.578745 -0.0259728 0)
(0.586911 -0.0254368 0)
(0.570537 -0.0284332 0)
(1.16489 -0.0299247 0)
(0.314336 0.0373439 0)
(0.482573 -0.082819 0)
(0.269242 -0.124818 0)
(-0.0239954 -0.0958784 0)
(-0.19793 -0.0464452 0)
(-0.272419 -0.0230133 0)
(-0.31523 -0.0172545 0)
(-0.350345 -0.0157843 0)
(-0.359737 -0.0138729 0)
(-0.348781 -0.013527 0)
(-0.327894 -0.0132197 0)
(-0.301693 -0.0130356 0)
(-0.272153 -0.0128974 0)
(-0.239856 -0.0128033 0)
(-0.205379 -0.0127344 0)
(-0.169165 -0.0126808 0)
(-0.131538 -0.0126367 0)
(-0.0927687 -0.0125997 0)
(-0.0529956 -0.0125646 0)
(-0.0125651 -0.0126036 0)
(0.0283364 -0.0125832 0)
(0.069765 -0.0125207 0)
(0.111469 -0.0125286 0)
(0.153157 -0.0125343 0)
(0.194722 -0.0125418 0)
(0.23599 -0.0125515 0)
(0.276798 -0.0125643 0)
(0.316956 -0.0125794 0)
(0.356264 -0.0126015 0)
(0.394536 -0.0126103 0)
(0.431468 -0.0126583 0)
(0.466455 -0.012592 0)
(0.49842 -0.0127178 0)
(0.525837 -0.0124961 0)
(0.54851 -0.012757 0)
(0.565507 -0.0124621 0)
(0.579669 -0.0128678 0)
(0.587709 -0.0125835 0)
(0.571551 -0.0142758 0)
(1.16502 -0.0127654 0)
(0.400038 -8.26686e-14 0)
(0.562525 -6.11264e-14 0)
(0.348811 1.00445e-13 0)
(0.0133348 -1.18359e-13 0)
(-0.1918 -1.81176e-12 0)
(-0.275258 -3.0332e-12 0)
(-0.317567 -2.56937e-12 0)
(-0.352355 -1.90597e-12 0)
(-0.360853 -1.71658e-12 0)
(-0.349709 -5.25035e-13 0)
(-0.328708 2.03927e-13 0)
(-0.302353 -1.41404e-13 0)
(-0.272683 -8.89276e-13 0)
(-0.240278 -4.92867e-13 0)
(-0.205711 2.65682e-12 0)
(-0.16942 9.326e-12 0)
(-0.131725 1.48005e-11 0)
(-0.0928955 7.98279e-12 0)
(-0.0530675 -1.33403e-11 0)
(-0.0125852 -1.57312e-11 0)
(0.0283667 1.16563e-12 0)
(0.0698464 1.56201e-11 0)
(0.111603 -5.38241e-12 0)
(0.153349 -3.19273e-11 0)
(0.194978 -2.90495e-11 0)
(0.236317 -8.11684e-12 0)
(0.277208 8.70853e-12 0)
(0.317465 1.59493e-11 0)
(0.356892 8.08187e-12 0)
(0.395313 7.4923e-12 0)
(0.432431 -8.0546e-13 0)
(0.46766 5.2537e-12 0)
(0.49994 8.89026e-12 0)
(0.527723 -7.37526e-12 0)
(0.550902 1.29381e-11 0)
(0.568373 8.85405e-12 0)
(0.583178 -1.40505e-11 0)
(0.591577 -5.86041e-12 0)
(0.575042 1.6331e-12 0)
(1.17042 -1.8165e-12 0)
(0.314336 -0.0373439 0)
(0.482573 0.082819 0)
(0.269242 0.124818 0)
(-0.0239954 0.0958784 0)
(-0.19793 0.0464452 0)
(-0.272419 0.0230133 0)
(-0.31523 0.0172545 0)
(-0.350345 0.0157843 0)
(-0.359737 0.0138729 0)
(-0.348781 0.013527 0)
(-0.327894 0.0132197 0)
(-0.301693 0.0130356 0)
(-0.272153 0.0128974 0)
(-0.239856 0.0128033 0)
(-0.205379 0.0127344 0)
(-0.169165 0.0126808 0)
(-0.131538 0.0126367 0)
(-0.0927687 0.0125997 0)
(-0.0529956 0.0125646 0)
(-0.0125651 0.0126036 0)
(0.0283364 0.0125832 0)
(0.069765 0.0125207 0)
(0.111469 0.0125286 0)
(0.153157 0.0125343 0)
(0.194722 0.0125418 0)
(0.23599 0.0125515 0)
(0.276798 0.0125643 0)
(0.316956 0.0125794 0)
(0.356264 0.0126015 0)
(0.394536 0.0126103 0)
(0.431468 0.0126583 0)
(0.466455 0.012592 0)
(0.49842 0.0127178 0)
(0.525837 0.0124961 0)
(0.54851 0.012757 0)
(0.565507 0.0124621 0)
(0.579669 0.0128678 0)
(0.587709 0.0125835 0)
(0.571551 0.0142758 0)
(1.16502 0.0127654 0)
(-0.0275048 0.00632177 0)
(0.205075 0.145817 0)
(0.089848 0.196276 0)
(-0.0955058 0.161376 0)
(-0.212102 0.0865954 0)
(-0.272243 0.0460897 0)
(-0.31473 0.0350293 0)
(-0.349233 0.0315337 0)
(-0.358891 0.0281259 0)
(-0.347827 0.0270339 0)
(-0.326944 0.026468 0)
(-0.300829 0.0261021 0)
(-0.271377 0.0258229 0)
(-0.239174 0.0256323 0)
(-0.204798 0.0254935 0)
(-0.168689 0.0253861 0)
(-0.131169 0.025298 0)
(-0.0925069 0.025224 0)
(-0.052841 0.0251537 0)
(-0.0125173 0.0252313 0)
(0.0282778 0.0251901 0)
(0.0696011 0.0250642 0)
(0.111201 0.0250792 0)
(0.152788 0.0250894 0)
(0.194255 0.0251029 0)
(0.235427 0.025121 0)
(0.276145 0.0251453 0)
(0.316218 0.0251751 0)
(0.355446 0.0252203 0)
(0.393646 0.0252413 0)
(0.430513 0.0253459 0)
(0.465444 0.0252293 0)
(0.497386 0.0255044 0)
(0.52479 0.0250837 0)
(0.547501 0.025657 0)
(0.56458 0.0250944 0)
(0.578745 0.0259728 0)
(0.586911 0.0254368 0)
(0.570537 0.0284332 0)
(1.16489 0.0299247 0)
(-0.787805 -0.0292279 0)
(-0.216688 0.15856 0)
(-0.184314 0.272922 0)
(-0.20665 0.237052 0)
(-0.250588 0.148541 0)
(-0.284332 0.0927087 0)
(-0.324179 0.0729911 0)
(-0.355062 0.0646536 0)
(-0.36249 0.0586121 0)
(-0.350074 0.0559983 0)
(-0.328803 0.0550174 0)
(-0.302427 0.0542436 0)
(-0.272708 0.0536693 0)
(-0.240281 0.0532744 0)
(-0.20571 0.0529813 0)
(-0.169427 0.0527529 0)
(-0.131743 0.0525644 0)
(-0.0929194 0.0524068 0)
(-0.0530951 0.0522587 0)
(-0.0126165 0.0524202 0)
(0.0283292 0.0523349 0)
(0.0698005 0.0520738 0)
(0.111548 0.0521063 0)
(0.15328 0.0521299 0)
(0.194891 0.052161 0)
(0.236209 0.0522017 0)
(0.277074 0.0522557 0)
(0.317299 0.0523198 0)
(0.356683 0.052418 0)
(0.395043 0.0524563 0)
(0.432077 0.0526835 0)
(0.467167 0.0524194 0)
(0.499346 0.0529799 0)
(0.526954 0.0521096 0)
(0.550036 0.0531762 0)
(0.567518 0.0520744 0)
(0.582073 0.0537328 0)
(0.591005 0.0524768 0)
(0.573846 0.0607331 0)
(1.17107 0.058731 0)
(-1.05999 0.038329 0)
(-0.496423 0.281133 0)
(-0.397943 0.342857 0)
(-0.317099 0.295894 0)
(-0.309197 0.213494 0)
(-0.315908 0.156758 0)
(-0.344838 0.128512 0)
(-0.365848 0.113177 0)
(-0.365852 0.104486 0)
(-0.351919 0.100162 0)
(-0.330112 0.0985975 0)
(-0.303481 0.0971918 0)
(-0.273479 0.0962107 0)
(-0.240849 0.0955332 0)
(-0.206146 0.0950169 0)
(-0.169776 0.0946106 0)
(-0.132022 0.0942738 0)
(-0.0931371 0.093993 0)
(-0.0532554 0.0937313 0)
(-0.0127259 0.0940273 0)
(0.0282629 0.0938776 0)
(0.0697709 0.0934093 0)
(0.111553 0.0934689 0)
(0.153313 0.0935128 0)
(0.19495 0.0935695 0)
(0.23629 0.093643 0)
(0.277174 0.0937393 0)
(0.317414 0.0938507 0)
(0.356802 0.0940293 0)
(0.395147 0.0940811 0)
(0.432144 0.0945203 0)
(0.467115 0.094011 0)
(0.499269 0.0950497 0)
(0.526756 0.0935561 0)
(0.549863 0.0953323 0)
(0.56739 0.0936341 0)
(0.581806 0.0963504 0)
(0.5914 0.0942966 0)
(0.572513 0.112587 0)
(1.16002 0.10697 0)
(-1.10713 0.0712478 0)
(-0.595693 0.295808 0)
(-0.486626 0.361321 0)
(-0.386175 0.315068 0)
(-0.359907 0.249831 0)
(-0.354021 0.206568 0)
(-0.368929 0.178185 0)
(-0.376584 0.159585 0)
(-0.370617 0.149354 0)
(-0.354462 0.144411 0)
(-0.331741 0.142037 0)
(-0.304657 0.140007 0)
(-0.274286 0.138649 0)
(-0.24142 0.137703 0)
(-0.206577 0.136956 0)
(-0.170118 0.136366 0)
(-0.132299 0.135875 0)
(-0.0933556 0.135469 0)
(-0.0534224 0.135096 0)
(-0.0128503 0.135531 0)
(0.0281706 0.135319 0)
(0.0697034 0.134642 0)
(0.11151 0.134729 0)
(0.153288 0.134796 0)
(0.194939 0.134882 0)
(0.236292 0.134992 0)
(0.277188 0.135136 0)
(0.317442 0.135297 0)
(0.356832 0.135574 0)
(0.395154 0.135611 0)
(0.432117 0.136314 0)
(0.466964 0.135511 0)
(0.499163 0.137027 0)
(0.526627 0.135069 0)
(0.549893 0.137317 0)
(0.567648 0.135387 0)
(0.582215 0.138703 0)
(0.592833 0.136309 0)
(0.575327 0.162196 0)
(1.16859 0.162577 0)
(-1.11857 0.154225 0)
(-0.622296 0.319132 0)
(-0.519627 0.370422 0)
(-0.431091 0.331326 0)
(-0.395121 0.283789 0)
(-0.391881 0.246624 0)
(-0.389435 0.222084 0)
(-0.388037 0.20388 0)
(-0.376625 0.193614 0)
(-0.358213 0.188076 0)
(-0.334186 0.185074 0)
(-0.306382 0.182547 0)
(-0.275516 0.18084 0)
(-0.242333 0.179638 0)
(-0.207289 0.178657 0)
(-0.17069 0.177878 0)
(-0.132756 0.177233 0)
(-0.0937105 0.176701 0)
(-0.0536845 0.176219 0)
(-0.013033 0.176802 0)
(0.028053 0.17653 0)
(0.0696419 0.175642 0)
(0.111505 0.175756 0)
(0.153332 0.175848 0)
(0.195029 0.175966 0)
(0.236429 0.176116 0)
(0.277371 0.176315 0)
(0.31767 0.176519 0)
(0.357096 0.17692 0)
(0.395414 0.176901 0)
(0.432362 0.177937 0)
(0.46705 0.176777 0)
(0.499297 0.178755 0)
(0.526772 0.176528 0)
(0.550142 0.179068 0)
(0.567963 0.177184 0)
(0.582416 0.180727 0)
(0.593582 0.178334 0)
(0.574656 0.208737 0)
(1.15446 0.206901 0)
(-1.10662 0.226211 0)
(-0.630558 0.343254 0)
(-0.535482 0.382744 0)
(-0.464827 0.345245 0)
(-0.427833 0.314275 0)
(-0.418861 0.284152 0)
(-0.409343 0.262327 0)
(-0.399239 0.246451 0)
(-0.383385 0.236806 0)
(-0.362545 0.231052 0)
(-0.337175 0.227538 0)
(-0.308455 0.224695 0)
(-0.277025 0.222676 0)
(-0.243475 0.221226 0)
(-0.208192 0.22001 0)
(-0.171416 0.219043 0)
(-0.133335 0.218242 0)
(-0.0941567 0.217584 0)
(-0.0540118 0.216999 0)
(-0.0132607 0.21774 0)
(0.027906 0.21741 0)
(0.0695644 0.216305 0)
(0.111498 0.216446 0)
(0.153385 0.216566 0)
(0.195141 0.216719 0)
(0.236599 0.216912 0)
(0.277602 0.217176 0)
(0.317967 0.21742 0)
(0.357435 0.217976 0)
(0.395753 0.217836 0)
(0.432737 0.219289 0)
(0.467307 0.217751 0)
(0.499635 0.220126 0)
(0.527295 0.217813 0)
(0.550991 0.220522 0)
(0.569156 0.218899 0)
(0.583854 0.222432 0)
(0.595946 0.220194 0)
(0.576476 0.256613 0)
(1.15224 0.261819 0)
(-1.09837 0.277842 0)
(-0.630364 0.366049 0)
(-0.544096 0.398418 0)
(-0.487912 0.366317 0)
(-0.453935 0.344933 0)
(-0.437349 0.320577 0)
(-0.424399 0.301593 0)
(-0.408922 0.28775 0)
(-0.389686 0.279058 0)
(-0.366889 0.273236 0)
(-0.340287 0.269401 0)
(-0.310726 0.26632 0)
(-0.278753 0.26402 0)
(-0.244836 0.262324 0)
(-0.20929 0.260877 0)
(-0.172305 0.259722 0)
(-0.134043 0.258764 0)
(-0.0947001 0.257982 0)
(-0.0544066 0.257299 0)
(-0.0135324 0.25821 0)
(0.0277338 0.257825 0)
(0.0694778 0.256497 0)
(0.111499 0.256664 0)
(0.153459 0.256818 0)
(0.195284 0.25701 0)
(0.236816 0.257254 0)
(0.277881 0.257597 0)
(0.318309 0.257866 0)
(0.357805 0.258651 0)
(0.396018 0.258302 0)
(0.432931 0.260243 0)
(0.467223 0.258317 0)
(0.499432 0.261071 0)
(0.526828 0.258749 0)
(0.550405 0.261504 0)
(0.567995 0.260246 0)
(0.581841 0.263407 0)
(0.593307 0.261586 0)
(0.574836 0.301045 0)
(1.13741 0.306874 0)
(-1.10788 0.322965 0)
(-0.635716 0.390797 0)
(-0.557048 0.417518 0)
(-0.510968 0.389161 0)
(-0.478934 0.375111 0)
(-0.457882 0.354714 0)
(-0.439343 0.339486 0)
(-0.419907 0.32767 0)
(-0.397447 0.319949 0)
(-0.372321 0.314337 0)
(-0.344163 0.310385 0)
(-0.313545 0.30717 0)
(-0.280885 0.304661 0)
(-0.246504 0.302754 0)
(-0.210621 0.301097 0)
(-0.173372 0.299763 0)
(-0.134883 0.298657 0)
(-0.0953385 0.297753 0)
(-0.0548649 0.296979 0)
(-0.0138446 0.298078 0)
(0.0275388 0.29764 0)
(0.0693837 0.29608 0)
(0.111509 0.296273 0)
(0.15356 0.296464 0)
(0.195478 0.296697 0)
(0.237118 0.296987 0)
(0.278308 0.297425 0)
(0.318876 0.297659 0)
(0.358552 0.298716 0)
(0.396907 0.298076 0)
(0.434089 0.300534 0)
(0.468607 0.298191 0)
(0.501307 0.301249 0)
(0.529462 0.299176 0)
(0.553762 0.30193 0)
(0.572364 0.301329 0)
(0.586698 0.304353 0)
(0.59869 0.302966 0)
(0.581805 0.345775 0)
(1.12889 0.36028 0)
(-1.0959 0.36212 0)
(-0.634159 0.413853 0)
(-0.56155 0.438567 0)
(-0.522768 0.415661 0)
(-0.492052 0.40692 0)
(-0.468228 0.388831 0)
(-0.446363 0.376757 0)
(-0.424922 0.366685 0)
(-0.4013 0.359773 0)
(-0.375213 0.35445 0)
(-0.346461 0.350494 0)
(-0.315505 0.347203 0)
(-0.282631 0.344529 0)
(-0.248046 0.342412 0)
(-0.21196 0.340556 0)
(-0.174501 0.339048 0)
(-0.135795 0.337799 0)
(-0.0960391 0.336774 0)
(-0.0553683 0.335916 0)
(-0.0141867 0.337223 0)
(0.027327 0.336736 0)
(0.0692818 0.334932 0)
(0.111516 0.335151 0)
(0.153647 0.335384 0)
(0.19563 0.335665 0)
(0.237307 0.335994 0)
(0.278488 0.336542 0)
(0.318977 0.336702 0)
(0.358419 0.338102 0)
(0.396297 0.336945 0)
(0.433071 0.339965 0)
(0.4668 0.337117 0)
(0.498786 0.340215 0)
(0.526198 0.338217 0)
(0.549939 0.340678 0)
(0.567671 0.340265 0)
(0.58112 0.34304 0)
(0.59172 0.342103 0)
(0.584103 0.381167 0)
(1.11411 0.401767 0)
(-1.08871 0.41308 0)
(-0.639436 0.440396 0)
(-0.57231 0.462423 0)
(-0.53964 0.443736 0)
(-0.510571 0.437796 0)
(-0.484209 0.422363 0)
(-0.460225 0.413197 0)
(-0.435829 0.404624 0)
(-0.410344 0.398516 0)
(-0.382269 0.393392 0)
(-0.35191 0.389494 0)
(-0.319769 0.386135 0)
(-0.285952 0.383326 0)
(-0.250635 0.381038 0)
(-0.213982 0.379037 0)
(-0.176069 0.37739 0)
(-0.136986 0.376031 0)
(-0.0969156 0.374908 0)
(-0.0559763 0.373984 0)
(-0.0145843 0.375528 0)
(0.0271017 0.374994 0)
(0.0692088 0.372928 0)
(0.11161 0.373167 0)
(0.153904 0.373437 0)
(0.196083 0.373751 0)
(0.238021 0.374108 0)
(0.279505 0.374773 0)
(0.320432 0.374765 0)
(0.360427 0.376692 0)
(0.39872 0.374962 0)
(0.43618 0.378583 0)
(0.470655 0.375583 0)
(0.503269 0.378861 0)
(0.531628 0.377184 0)
(0.556302 0.379563 0)
(0.574764 0.379403 0)
(0.5886 0.382165 0)
(0.598707 0.381699 0)
(0.599406 0.415332 0)
(1.09962 0.449457 0)
(-1.07212 0.453317 0)
(-0.637742 0.465131 0)
(-0.573406 0.486402 0)
(-0.544581 0.47334 0)
(-0.517426 0.468582 0)
(-0.489334 0.45515 0)
(-0.464105 0.44876 0)
(-0.437995 0.440512 0)
(-0.411202 0.43544 0)
(-0.38275 0.430382 0)
(-0.352256 0.426766 0)
(-0.320249 0.423398 0)
(-0.286619 0.420651 0)
(-0.251475 0.418335 0)
(-0.214883 0.416306 0)
(-0.176939 0.414603 0)
(-0.13776 0.413198 0)
(-0.0975524 0.412013 0)
(-0.0564576 0.41105 0)
(-0.0149343 0.412866 0)
(0.0268589 0.412287 0)
(0.0690343 0.409934 0)
(0.111478 0.410172 0)
(0.153742 0.41045 0)
(0.195818 0.410739 0)
(0.23758 0.411012 0)
(0.278781 0.411748 0)
(0.319202 0.411274 0)
(0.358686 0.413589 0)
(0.396167 0.411059 0)
(0.43285 0.415074 0)
(0.466618 0.41174 0)
(0.498723 0.415036 0)
(0.526684 0.413494 0)
(0.551464 0.41583 0)
(0.569398 0.415433 0)
(0.583149 0.418589 0)
(0.591777 0.418467 0)
(0.610042 0.438249 0)
(1.08227 0.486272 0)
(-1.0574 0.498524 0)
(-0.640854 0.491754 0)
(-0.579132 0.510584 0)
(-0.554515 0.502689 0)
(-0.528139 0.498143 0)
(-0.50008 0.486542 0)
(-0.474839 0.482543 0)
(-0.447355 0.474758 0)
(-0.41923 0.471114 0)
(-0.389995 0.466258 0)
(-0.358683 0.463023 0)
(-0.325911 0.45954 0)
(-0.291439 0.456811 0)
(-0.255524 0.454321 0)
(-0.218136 0.452202 0)
(-0.179465 0.450429 0)
(-0.139651 0.448989 0)
(-0.0989027 0.447753 0)
(-0.0573563 0.446775 0)
(-0.0154736 0.448903 0)
(0.0266334 0.448281 0)
(0.0691057 0.445622 0)
(0.111888 0.445857 0)
(0.154533 0.446157 0)
(0.197053 0.446462 0)
(0.239334 0.446676 0)
(0.281106 0.447631 0)
(0.322083 0.446809 0)
(0.362144 0.449695 0)
(0.40006 0.446421 0)
(0.437157 0.450839 0)
(0.471274 0.44718 0)
(0.503573 0.450314 0)
(0.531742 0.448868 0)
(0.557366 0.451205 0)
(0.575262 0.450827 0)
(0.589187 0.454243 0)
(0.596682 0.454712 0)
(0.62483 0.46343 0)
(1.06283 0.52913 0)
(-1.04204 0.532557 0)
(-0.640768 0.517509 0)
(-0.581147 0.535215 0)
(-0.559364 0.531442 0)
(-0.530549 0.525616 0)
(-0.504289 0.517751 0)
(-0.479126 0.514883 0)
(-0.449948 0.507163 0)
(-0.420735 0.50496 0)
(-0.390384 0.499793 0)
(-0.358683 0.497016 0)
(-0.32569 0.493001 0)
(-0.291134 0.490354 0)
(-0.255204 0.487684 0)
(-0.217809 0.485578 0)
(-0.179193 0.483852 0)
(-0.139459 0.482492 0)
(-0.0988238 0.48131 0)
(-0.0573916 0.480405 0)
(-0.01565 0.482916 0)
(0.0262968 0.482237 0)
(0.0685276 0.479202 0)
(0.111033 0.479344 0)
(0.153325 0.479536 0)
(0.195483 0.47974 0)
(0.237363 0.479723 0)
(0.278767 0.480833 0)
(0.31938 0.479392 0)
(0.359301 0.483008 0)
(0.396844 0.47892 0)
(0.433815 0.483926 0)
(0.46789 0.480107 0)
(0.500444 0.483312 0)
(0.528354 0.481357 0)
(0.55481 0.483479 0)
(0.572431 0.482663 0)
(0.586653 0.485808 0)
(0.593294 0.486283 0)
(0.629937 0.485561 0)
(1.04385 0.559188 0)
(-1.02446 0.573297 0)
(-0.640326 0.544242 0)
(-0.58306 0.560571 0)
(-0.563505 0.559025 0)
(-0.534924 0.552147 0)
(-0.511633 0.54817 0)
(-0.485466 0.545018 0)
(-0.456245 0.537194 0)
(-0.426693 0.536273 0)
(-0.395645 0.530352 0)
(-0.363967 0.528351 0)
(-0.330829 0.523936 0)
(-0.295899 0.521475 0)
(-0.259596 0.518533 0)
(-0.22171 0.516395 0)
(-0.182522 0.514565 0)
(-0.14217 0.513156 0)
(-0.100901 0.511887 0)
(-0.0588025 0.510951 0)
(-0.016418 0.513822 0)
(0.0261407 0.513089 0)
(0.0689607 0.509738 0)
(0.112064 0.509944 0)
(0.15489 0.510219 0)
(0.197516 0.510501 0)
(0.239814 0.510437 0)
(0.281464 0.51188 0)
(0.322161 0.509859 0)
(0.36236 0.514228 0)
(0.399812 0.509444 0)
(0.436659 0.514812 0)
(0.47075 0.511087 0)
(0.50361 0.514792 0)
(0.531004 0.512908 0)
(0.557821 0.515248 0)
(0.575128 0.514526 0)
(0.589646 0.51731 0)
(0.595417 0.517533 0)
(0.633064 0.512685 0)
(1.0214 0.595604 0)
(-1.00701 0.602215 0)
(-0.638566 0.567273 0)
(-0.583639 0.582062 0)
(-0.565321 0.581082 0)
(-0.53759 0.574763 0)
(-0.516103 0.574126 0)
(-0.48807 0.57034 0)
(-0.459545 0.564549 0)
(-0.429336 0.563852 0)
(-0.397794 0.55695 0)
(-0.366072 0.556146 0)
(-0.332359 0.55039 0)
(-0.296663 0.548215 0)
(-0.259853 0.544865 0)
(-0.221389 0.542583 0)
(-0.181753 0.540561 0)
(-0.141178 0.539051 0)
(-0.0999864 0.537662 0)
(-0.0582208 0.536695 0)
(-0.0163544 0.539966 0)
(0.0255782 0.539129 0)
(0.0676975 0.535351 0)
(0.110293 0.535545 0)
(0.152785 0.535871 0)
(0.195294 0.536274 0)
(0.237636 0.536051 0)
(0.27955 0.538164 0)
(0.320285 0.535259 0)
(0.360978 0.540611 0)
(0.398549 0.535246 0)
(0.435432 0.540976 0)
(0.468964 0.536762 0)
(0.501955 0.540086 0)
(0.528809 0.537479 0)
(0.555962 0.538993 0)
(0.573869 0.538127 0)
(0.589025 0.540106 0)
(0.594845 0.540289 0)
(0.630766 0.53502 0)
(1.00038 0.619689 0)
(-0.985146 0.639243 0)
(-0.636342 0.589186 0)
(-0.58445 0.601838 0)
(-0.56796 0.602259 0)
(-0.540858 0.596254 0)
(-0.519964 0.595776 0)
(-0.49091 0.590604 0)
(-0.463847 0.587954 0)
(-0.434088 0.587629 0)
(-0.402825 0.579646 0)
(-0.370552 0.579277 0)
(-0.336896 0.571907 0)
(-0.301411 0.570442 0)
(-0.264261 0.56651 0)
(-0.225378 0.564155 0)
(-0.18532 0.56197 0)
(-0.14425 0.560387 0)
(-0.102496 0.558888 0)
(-0.0600173 0.557863 0)
(-0.0171881 0.561511 0)
(0.0256952 0.560653 0)
(0.06862 0.556575 0)
(0.111868 0.556867 0)
(0.154782 0.55731 0)
(0.197558 0.557887 0)
(0.240025 0.557515 0)
(0.282053 0.560282 0)
(0.322528 0.556759 0)
(0.363021 0.562785 0)
(0.400377 0.557138 0)
(0.437312 0.563517 0)
(0.47087 0.560009 0)
(0.50423 0.563812 0)
(0.530349 0.561545 0)
(0.55758 0.563267 0)
(0.575338 0.562466 0)
(0.59074 0.564256 0)
(0.596328 0.564005 0)
(0.628579 0.560023 0)
(0.973955 0.651535 0)
(-0.965193 0.664313 0)
(-0.633823 0.609234 0)
(-0.584977 0.619307 0)
(-0.570039 0.619277 0)
(-0.543996 0.614682 0)
(-0.523589 0.613539 0)
(-0.494421 0.607592 0)
(-0.468413 0.607 0)
(-0.436832 0.603568 0)
(-0.406597 0.594726 0)
(-0.374097 0.595821 0)
(-0.339994 0.587824 0)
(-0.303551 0.586748 0)
(-0.265413 0.582442 0)
(-0.225713 0.580437 0)
(-0.185059 0.578191 0)
(-0.143593 0.576576 0)
(-0.101713 0.574844 0)
(-0.0594319 0.573624 0)
(-0.0173665 0.577607 0)
(0.0247112 0.576579 0)
(0.0669779 0.572132 0)
(0.109955 0.572573 0)
(0.152845 0.573132 0)
(0.195814 0.573884 0)
(0.238587 0.573018 0)
(0.281146 0.576522 0)
(0.321941 0.571971 0)
(0.362983 0.578898 0)
(0.400368 0.572595 0)
(0.437401 0.578923 0)
(0.47049 0.575034 0)
(0.504004 0.578624 0)
(0.529851 0.576901 0)
(0.557032 0.578768 0)
(0.575608 0.579007 0)
(0.590665 0.58081 0)
(0.596189 0.581662 0)
(0.626473 0.578249 0)
(0.950709 0.671133 0)
(-0.941359 0.689344 0)
(-0.630183 0.617429 0)
(-0.584162 0.628358 0)
(-0.56961 0.630679 0)
(-0.544759 0.624909 0)
(-0.525592 0.623279 0)
(-0.49734 0.617174 0)
(-0.472938 0.617118 0)
(-0.442125 0.611558 0)
(-0.411553 0.606227 0)
(-0.378508 0.606556 0)
(-0.344292 0.597743 0)
(-0.308111 0.598292 0)
(-0.269894 0.593864 0)
(-0.23 0.592697 0)
(-0.189156 0.590521 0)
(-0.147296 0.58905 0)
(-0.104823 0.587079 0)
(-0.0614492 0.585969 0)
(-0.0182739 0.590577 0)
(0.0253064 0.589487 0)
(0.0686236 0.584649 0)
(0.112374 0.585168 0)
(0.15562 0.585793 0)
(0.198666 0.586712 0)
(0.241143 0.585173 0)
(0.283549 0.589046 0)
(0.32384 0.583348 0)
(0.364733 0.59051 0)
(0.402316 0.583883 0)
(0.439521 0.590287 0)
(0.472841 0.58669 0)
(0.506395 0.590284 0)
(0.531734 0.588982 0)
(0.558674 0.59093 0)
(0.577101 0.590973 0)
(0.591798 0.592386 0)
(0.596587 0.590736 0)
(0.623544 0.587423 0)
(0.923021 0.688927 0)
(-0.912612 0.695446 0)
(-0.62204 0.619643 0)
(-0.581263 0.627723 0)
(-0.572591 0.631543 0)
(-0.550736 0.628571 0)
(-0.531908 0.626887 0)
(-0.503947 0.621128 0)
(-0.479464 0.621178 0)
(-0.447999 0.615047 0)
(-0.416909 0.611884 0)
(-0.383088 0.612118 0)
(-0.347793 0.604686 0)
(-0.310319 0.607096 0)
(-0.271038 0.60262 0)
(-0.230126 0.602507 0)
(-0.18862 0.600021 0)
(-0.14635 0.598093 0)
(-0.103971 0.595193 0)
(-0.0610274 0.593336 0)
(-0.0186647 0.597769 0)
(0.0241759 0.596652 0)
(0.0669112 0.592169 0)
(0.110215 0.593662 0)
(0.153306 0.595177 0)
(0.196443 0.59715 0)
(0.239305 0.595436 0)
(0.282072 0.600124 0)
(0.322807 0.59339 0)
(0.363999 0.60055 0)
(0.401788 0.592877 0)
(0.439304 0.598435 0)
(0.472484 0.593824 0)
(0.506241 0.596318 0)
(0.531596 0.594534 0)
(0.558434 0.596054 0)
(0.577564 0.595974 0)
(0.590246 0.59646 0)
(0.594228 0.593896 0)
(0.614615 0.592379 0)
(0.892054 0.681267 0)
(-1.05071 0.425729 0)
(-0.593867 0.592127 0)
(-0.585218 0.625119 0)
(-0.573592 0.641597 0)
(-0.554116 0.643658 0)
(-0.533903 0.646925 0)
(-0.506357 0.645916 0)
(-0.48598 0.644412 0)
(-0.462996 0.631849 0)
(-0.445665 0.617516 0)
(-0.424428 0.600559 0)
(-0.396502 0.583296 0)
(-0.362185 0.576602 0)
(-0.32081 0.569469 0)
(-0.275626 0.568274 0)
(-0.227589 0.56733 0)
(-0.176756 0.567441 0)
(-0.126505 0.56842 0)
(-0.0739158 0.568079 0)
(-0.023006 0.574945 0)
(0.0273758 0.574192 0)
(0.0779998 0.567002 0)
(0.131113 0.566989 0)
(0.181826 0.564652 0)
(0.233978 0.564873 0)
(0.282252 0.562159 0)
(0.330807 0.566355 0)
(0.371555 0.565139 0)
(0.412391 0.576157 0)
(0.440144 0.584992 0)
(0.467167 0.601511 0)
(0.48708 0.612919 0)
(0.511683 0.622372 0)
(0.531754 0.624506 0)
(0.557599 0.624382 0)
(0.577188 0.622413 0)
(0.588577 0.620117 0)
(0.5948 0.609491 0)
(0.585738 0.578573 0)
(1.03979 0.407779 0)
(-1.03183 1.03482 0)
(-0.417709 1.05193 0)
(-0.65511 0.923433 0)
(-0.662622 0.94993 0)
(-0.641358 0.975661 0)
(-0.623341 0.995572 0)
(-0.591919 1.01884 0)
(-0.567975 1.03776 0)
(-0.531526 1.05859 0)
(-0.501122 1.07707 0)
(-0.45832 1.09528 0)
(-0.421894 1.11123 0)
(-0.374965 1.1244 0)
(-0.330958 1.1366 0)
(-0.280301 1.14553 0)
(-0.231482 1.15525 0)
(-0.177679 1.15613 0)
(-0.129682 1.1675 0)
(-0.0750282 1.16035 0)
(-0.0260207 1.17934 0)
(0.0281159 1.17934 0)
(0.0767346 1.15946 0)
(0.132317 1.16773 0)
(0.178852 1.15347 0)
(0.235563 1.15602 0)
(0.281271 1.1424 0)
(0.336279 1.13576 0)
(0.379146 1.12159 0)
(0.428282 1.10822 0)
(0.46662 1.09103 0)
(0.511673 1.0715 0)
(0.544289 1.05127 0)
(0.584239 1.02766 0)
(0.610596 1.00578 0)
(0.645184 0.97852 0)
(0.666105 0.954552 0)
(0.686966 0.925107 0)
(0.680367 0.892471 0)
(0.423509 1.02968 0)
(1.02198 1.029 0)
(-1.03183 -1.03482 0)
(-0.417709 -1.05193 0)
(-0.65511 -0.923433 0)
(-0.662622 -0.94993 0)
(-0.641358 -0.975661 0)
(-0.623341 -0.995572 0)
(-0.591919 -1.01884 0)
(-0.567975 -1.03776 0)
(-0.531526 -1.05859 0)
(-0.501122 -1.07707 0)
(-0.45832 -1.09528 0)
(-0.421894 -1.11123 0)
(-0.374965 -1.1244 0)
(-0.330958 -1.1366 0)
(-0.280301 -1.14553 0)
(-0.231482 -1.15525 0)
(-0.177679 -1.15613 0)
(-0.129682 -1.1675 0)
(-0.0750282 -1.16035 0)
(-0.0260207 -1.17934 0)
(0.0281159 -1.17934 0)
(0.0767346 -1.15946 0)
(0.132317 -1.16773 0)
(0.178852 -1.15347 0)
(0.235563 -1.15602 0)
(0.281271 -1.1424 0)
(0.336279 -1.13576 0)
(0.379146 -1.12159 0)
(0.428282 -1.10822 0)
(0.46662 -1.09103 0)
(0.511673 -1.0715 0)
(0.544289 -1.05127 0)
(0.584239 -1.02766 0)
(0.610596 -1.00578 0)
(0.645184 -0.97852 0)
(0.666105 -0.954552 0)
(0.686966 -0.925107 0)
(0.680367 -0.892471 0)
(0.423509 -1.02968 0)
(1.02198 -1.029 0)
(-1.05071 -0.425729 0)
(-0.593867 -0.592127 0)
(-0.585218 -0.625119 0)
(-0.573592 -0.641597 0)
(-0.554116 -0.643658 0)
(-0.533903 -0.646925 0)
(-0.506357 -0.645916 0)
(-0.48598 -0.644412 0)
(-0.462996 -0.631849 0)
(-0.445665 -0.617516 0)
(-0.424428 -0.600559 0)
(-0.396502 -0.583296 0)
(-0.362185 -0.576602 0)
(-0.32081 -0.569469 0)
(-0.275626 -0.568274 0)
(-0.227589 -0.56733 0)
(-0.176756 -0.567441 0)
(-0.126505 -0.56842 0)
(-0.0739158 -0.568079 0)
(-0.023006 -0.574945 0)
(0.0273758 -0.574192 0)
(0.0779998 -0.567002 0)
(0.131113 -0.566989 0)
(0.181826 -0.564652 0)
(0.233978 -0.564873 0)
(0.282252 -0.562159 0)
(0.330807 -0.566355 0)
(0.371555 -0.565139 0)
(0.412391 -0.576157 0)
(0.440144 -0.584992 0)
(0.467167 -0.601511 0)
(0.48708 -0.612919 0)
(0.511683 -0.622372 0)
(0.531754 -0.624506 0)
(0.557599 -0.624382 0)
(0.577188 -0.622413 0)
(0.588577 -0.620117 0)
(0.5948 -0.609491 0)
(0.585738 -0.578573 0)
(1.03979 -0.407779 0)
(-0.912612 -0.695446 0)
(-0.62204 -0.619643 0)
(-0.581263 -0.627723 0)
(-0.572591 -0.631543 0)
(-0.550736 -0.628571 0)
(-0.531908 -0.626887 0)
(-0.503947 -0.621128 0)
(-0.479464 -0.621178 0)
(-0.447999 -0.615047 0)
(-0.416909 -0.611884 0)
(-0.383088 -0.612118 0)
(-0.347793 -0.604686 0)
(-0.310319 -0.607096 0)
(-0.271038 -0.60262 0)
(-0.230126 -0.602507 0)
(-0.18862 -0.600021 0)
(-0.14635 -0.598093 0)
(-0.103971 -0.595193 0)
(-0.0610274 -0.593336 0)
(-0.0186647 -0.597769 0)
(0.0241759 -0.596652 0)
(0.0669112 -0.592169 0)
(0.110215 -0.593662 0)
(0.153306 -0.595177 0)
(0.196443 -0.59715 0)
(0.239305 -0.595436 0)
(0.282072 -0.600124 0)
(0.322807 -0.59339 0)
(0.363999 -0.60055 0)
(0.401788 -0.592877 0)
(0.439304 -0.598435 0)
(0.472484 -0.593824 0)
(0.506241 -0.596318 0)
(0.531596 -0.594534 0)
(0.558434 -0.596054 0)
(0.577564 -0.595974 0)
(0.590246 -0.59646 0)
(0.594228 -0.593896 0)
(0.614615 -0.592379 0)
(0.892054 -0.681267 0)
(-0.941359 -0.689344 0)
(-0.630183 -0.617429 0)
(-0.584162 -0.628358 0)
(-0.56961 -0.630679 0)
(-0.544759 -0.624909 0)
(-0.525592 -0.623279 0)
(-0.49734 -0.617174 0)
(-0.472938 -0.617118 0)
(-0.442125 -0.611558 0)
(-0.411553 -0.606227 0)
(-0.378508 -0.606556 0)
(-0.344292 -0.597743 0)
(-0.308111 -0.598292 0)
(-0.269894 -0.593864 0)
(-0.23 -0.592697 0)
(-0.189156 -0.590521 0)
(-0.147296 -0.58905 0)
(-0.104823 -0.587079 0)
(-0.0614492 -0.585969 0)
(-0.0182739 -0.590577 0)
(0.0253064 -0.589487 0)
(0.0686236 -0.584649 0)
(0.112374 -0.585168 0)
(0.15562 -0.585793 0)
(0.198666 -0.586712 0)
(0.241143 -0.585173 0)
(0.283549 -0.589046 0)
(0.32384 -0.583348 0)
(0.364733 -0.59051 0)
(0.402316 -0.583883 0)
(0.439521 -0.590287 0)
(0.472841 -0.58669 0)
(0.506395 -0.590284 0)
(0.531734 -0.588982 0)
(0.558674 -0.59093 0)
(0.577101 -0.590973 0)
(0.591798 -0.592386 0)
(0.596587 -0.590736 0)
(0.623544 -0.587423 0)
(0.923021 -0.688927 0)
(-0.965193 -0.664313 0)