/*--------------------------------*- C++ -*----------------------------------*\
| =========                 |                                                 |
| \\      /  F ield         | OpenFOAM: The Open Source CFD Toolbox           |
|  \\    /   O peration     | Version:  v1912                                 |
|   \\  /    A nd           | Website:  www.openfoam.com                      |
|    \\/     M anipulation  |                                                 |
\*---------------------------------------------------------------------------*/
FoamFile
{
    version     2.0;
    format      ascii;
    class       volVectorField;
    location    "9.04";
    object      grad(p);
}
// * * * * * * * * * * * * * * * * * * * * * * * * * * * * * * * * * * * * * //

dimensions      [1 -2 -2 0 0 0 0];


internalField   nonuniform List<vector> 
1900
(
(-40984.8 -0.0630945 0)
(24879.7 -0.174352 0)
(2507.32 -0.244773 0)
(554.639 0.584306 0)
(40.1773 0.0220048 0)
(-608.538 0.971515 0)
(-919.242 1.6933 0)
(-597.915 -3.90963 0)
(-329.804 43.374 0)
(646.473 -8.79014 0)
(-40985.1 -0.124118 0)
(24879.6 -0.315877 0)
(2508.08 -0.424362 0)
(554.905 1.49487 0)
(40.5645 1.30302 0)
(-606.867 4.43012 0)
(-924.124 3.03732 0)
(-556.234 -28.8705 0)
(-334.684 -23.4603 0)
(-414.728 -101.619 0)
(-40985.3 -6.52811e-10 0)
(24879.4 -1.66978e-09 0)
(2509.14 -1.38556e-09 0)
(556.366 -7.63833e-10 0)
(43.1126 -4.44089e-10 0)
(-606.804 -9.05942e-10 0)
(-952.543 -1.15463e-09 0)
(-624.413 4.44089e-10 0)
(-402.552 1.77636e-11 0)
(-518.29 -1.24345e-10 0)
(-40985.1 0.124118 0)
(24879.6 0.315877 0)
(2508.08 0.424362 0)
(554.905 -1.49487 0)
(40.5645 -1.30302 0)
(-606.867 -4.43012 0)
(-924.124 -3.03732 0)
(-556.234 28.8705 0)
(-334.684 23.4603 0)
(-414.728 101.619 0)
(-40984.8 0.0630945 0)
(24879.7 0.174352 0)
(2507.32 0.244773 0)
(554.639 -0.584306 0)
(40.1773 -0.0220048 0)
(-608.538 -0.971515 0)
(-919.242 -1.6933 0)
(-597.915 3.90963 0)
(-329.804 -43.374 0)
(646.473 8.79014 0)
(-157.926 -877.441 8.49088e-12)
(-1901.9 -697.698 -9.91515e-12)
(-1846.75 -854.609 -1.24358e-11)
(216.669 -1167.1 0)
(-18672.5 -7886.24 -5.37321e-11)
(-765.506 -1045.06 8.33233e-12)
(-1363.08 -831.59 9.91515e-12)
(-1807.75 -917.971 1.24358e-11)
(-2324.15 -827.227 0)
(-17677.9 -7146.46 0)
(-1093.62 -4.98796e-10 0)
(-1431.94 3.11642e-10 0)
(-1740.29 -2.46716e-11 0)
(-2401.66 1.21115e-09 0)
(-20483.6 5.28678e-11 0)
(-765.506 1045.06 8.33233e-12)
(-1363.08 831.59 9.91515e-12)
(-1807.75 917.971 1.24358e-11)
(-2324.15 827.227 0)
(-17677.9 7146.46 0)
(-157.926 877.441 -2.51555e-11)
(-1901.9 697.698 -9.91515e-12)
(-1846.75 854.609 -1.24358e-11)
(216.669 1167.1 -3.33543e-11)
(-18672.5 7886.24 5.37321e-11)
(-36446.2 10384.5 9.88779e-12)
(-10996.9 4038.68 -4.844e-12)
(-4944.77 1883.88 0)
(-3184.99 1257.55 2.00883e-12)
(-1213.89 672.419 -6.6282e-13)
(-32533.8 12862.2 -5.10027e-12)
(-12881.6 3288.81 2.48282e-12)
(-5636.8 1097.83 0)
(-3541.79 751.748 -1.28485e-12)
(-1912.73 95.8646 1.7149e-13)
(-33643.4 6.72862e-11 0)
(-13995.5 2.27738e-10 0)
(-5749.16 6.82582e-10 0)
(-3623.1 -1.37871e-10 5.22997e-13)
(-1872.65 5.32388e-10 -3.42979e-13)
(-32533.8 -12862.2 -5.10027e-12)
(-12881.6 -3288.81 2.48282e-12)
(-5636.8 -1097.83 0)
(-3541.79 -751.748 -1.28485e-12)
(-1912.73 -95.8646 1.7149e-13)
(-36446.2 -10384.5 5.10027e-12)
(-10996.9 -4038.68 -1.21632e-13)
(-4944.77 -1883.88 0)
(-3184.99 -1257.55 3.78732e-14)
(-1213.89 -672.419 6.6282e-13)
(459.015 -1365.77 0)
(278.257 -421.25 0)
(22.2852 696.631 0)
(-78.4986 647.41 0)
(-175.251 395.337 0)
(-287.807 165.913 0)
(-380.377 -13.2173 0)
(-409.326 -143.521 0)
(-391.323 -248.64 0)
(-310.826 -270.052 0)
(-294.639 -213.736 0)
(-377.518 -178.606 0)
(-281.656 -105.958 0)
(52.8777 -60.4585 0)
(963.204 -21.6937 0)
(1875.74 7.38853 0)
(1265.28 3.85968 0)
(258.087 -93.908 0)
(-43.6545 -118.866 0)
(-157.666 -50.6716 0)
(-106.618 2.85485 0)
(-53.5884 43.0442 0)
(-94.4727 153.468 0)
(-204.507 53.5292 0)
(-362.525 -193.96 0)
(-525.959 -259.96 0)
(1147.4 -242.556 0)
(2433.38 -264.295 0)
(-1060.52 -98.233 0)
(-3296.49 82.3291 0)
(-1255.19 34.8058 0)
(135.984 10.2484 0)
(265.917 7.13249 0)
(258.836 6.73824 0)
(267.957 4.78338 0)
(284.648 3.14547 0)
(292 1.86912 0)
(302.169 2.26637 0)
(315.676 2.59335 0)
(321.972 2.87167 0)
(70.073 -873.745 0)
(622.709 -1003.09 0)
(224.437 253.28 0)
(-184.517 354.219 0)
(-285.277 238.366 0)
(-353.963 84.5378 0)
(-393.34 30.5314 0)
(-405.048 20.002 0)
(-384.544 -12.3759 0)
(-296.85 -20.3727 0)
(-282.255 -8.757 0)
(-361.684 -2.86085 0)
(-271.019 28.9069 0)
(55.7956 8.60674 0)
(968.106 25.0386 0)
(1875.26 44.9281 0)
(1253.58 39.186 0)
(244.167 -3.10236 0)
(-38.6422 -40.5834 0)
(-140.242 -15.3421 0)
(-95.1476 -2.98967 0)
(-20.1291 19.5523 0)
(-77.6148 63.2146 0)
(-235.147 -27.2832 0)
(-376.249 -24.4465 0)
(-522.647 17.9258 0)
(1143.04 64.3625 0)
(2422.34 68.051 0)
(-1053.87 19.0259 0)
(-3288.16 40.4285 0)
(-1261.95 13.6095 0)
(133.312 3.00042 0)
(265.714 1.65264 0)
(258.907 2.22877 0)
(267.934 1.97561 0)
(284.756 0.913737 0)
(292.394 -0.2129 0)
(302.48 -0.0947938 0)
(315.542 -0.187904 0)
(320.221 -0.526906 0)
(79.7397 2.4223e-10 0)
(606.119 4.27941e-10 0)
(417.139 5.20796e-10 0)
(-82.8372 6.90357e-10 0)
(-253.703 9.2855e-10 0)
(-348.268 -4.84461e-11 0)
(-399.151 2.4223e-11 0)
(-421.808 5.20796e-10 0)
(-403.068 -2.30119e-10 0)
(-309.773 -6.23743e-10 0)
(-289.544 3.83532e-11 0)
(-366.561 2.78565e-10 0)
(-278.32 4.78405e-10 0)
(51.7524 2.82602e-11 0)
(973.771 -2.60398e-10 0)
(1879.85 2.05896e-10 0)
(1251.31 8.03398e-10 0)
(234.881 8.92216e-10 0)
(-47.2152 -2.10337e-09 0)
(-146.73 -2.16796e-09 0)
(-96.4668 9.65692e-09 0)
(-34.329 -3.10136e-08 0)
(-108.098 -1.06311e-07 0)
(-230.009 -5.20392e-09 0)
(-349.373 8.97868e-09 0)
(-500.123 -6.46352e-09 0)
(1161.98 -5.34926e-09 0)
(2420.19 -6.08806e-09 0)
(-1068.55 1.31693e-08 0)
(-3298.07 1.87729e-09 0)
(-1266.08 -4.8547e-09 0)
(132.505 -5.97502e-10 0)
(265.693 2.68472e-10 0)
(258.93 7.67063e-11 0)
(267.574 -9.24513e-10 0)
(284.012 -1.81269e-09 0)
(291.706 -1.40897e-09 0)
(302.176 -8.84141e-10 0)
(315.55 6.45948e-11 0)
(322.18 7.10543e-10 0)
(70.073 873.745 0)
(622.709 1003.09 0)
(224.437 -253.28 0)
(-184.517 -354.219 0)
(-285.277 -238.366 0)
(-353.963 -84.5378 0)
(-393.34 -30.5314 0)
(-405.048 -20.002 0)
(-384.544 12.3759 0)
(-296.85 20.3727 0)
(-282.255 8.757 0)
(-361.684 2.86085 0)
(-271.019 -28.9069 0)
(55.7956 -8.60674 0)
(968.106 -25.0386 0)
(1875.26 -44.9281 0)
(1253.58 -39.186 0)
(244.167 3.10236 0)
(-38.6422 40.5834 0)
(-140.242 15.3421 0)
(-95.1476 2.98967 0)
(-20.1291 -19.5523 0)
(-77.6148 -63.2146 0)
(-235.147 27.2832 0)
(-376.249 24.4465 0)
(-522.647 -17.9258 0)
(1143.04 -64.3625 0)
(2422.34 -68.051 0)
(-1053.87 -19.0259 0)
(-3288.16 -40.4285 0)
(-1261.95 -13.6095 0)
(133.312 -3.00042 0)
(265.714 -1.65264 0)
(258.907 -2.22877 0)
(267.934 -1.97561 0)
(284.756 -0.913737 0)
(292.394 0.2129 0)
(302.48 0.0947938 0)
(315.542 0.187904 0)
(320.221 0.526906 0)
(459.015 1365.77 0)
(278.257 421.25 0)
(22.2852 -696.631 0)
(-78.4986 -647.41 0)
(-175.251 -395.337 0)
(-287.807 -165.913 0)
(-380.377 13.2173 0)
(-409.326 143.521 0)
(-391.323 248.64 0)
(-310.826 270.052 0)
(-294.639 213.736 0)
(-377.518 178.606 0)
(-281.656 105.958 0)
(52.8777 60.4585 0)
(963.204 21.6937 0)
(1875.74 -7.38853 0)
(1265.28 -3.85968 0)
(258.087 93.908 0)
(-43.6545 118.866 0)
(-157.666 50.6716 0)
(-106.618 -2.85485 0)
(-53.5884 -43.0442 0)
(-94.4727 -153.468 0)
(-204.507 -53.5292 0)
(-362.525 193.96 0)
(-525.959 259.96 0)
(1147.4 242.556 0)
(2433.38 264.295 0)
(-1060.52 98.233 0)
(-3296.49 -82.3291 0)
(-1255.19 -34.8058 0)
(135.984 -10.2484 0)
(265.917 -7.13249 0)
(258.836 -6.73824 0)
(267.957 -4.78338 0)
(284.648 -3.14547 0)
(292 -1.86912 0)
(302.169 -2.26637 0)
(315.676 -2.59335 0)
(321.972 -2.87167 0)
(-182.047 538.083 0)
(-272.707 -133.908 0)
(-212.165 -489.429 0)
(-118.107 -702.842 0)
(-110.464 -731.984 0)
(-174.18 -685.958 0)
(-214.229 -508.998 0)
(-252.427 -290.224 0)
(-297.338 -100.161 0)
(-302.583 29.875 0)
(-325.298 73.9046 0)
(-410.982 96.4681 0)
(-332.831 108.92 0)
(6.31255 58.2212 0)
(931.215 30.2203 0)
(1858.68 -37.3124 0)
(1303.6 -90.4706 0)
(305.055 32.4286 0)
(-59.9676 74.5128 0)
(-196.447 7.30226 0)
(-140.67 -45.3974 0)
(-75.9172 -66.768 0)
(-64.6999 -76.9692 0)
(-52.6426 -119.134 0)
(-195.475 -64.3084 0)
(-488.335 -21.499 0)
(1140.73 43.3531 0)
(2319.05 97.055 0)
(-1263.61 -160.835 0)
(-3361.97 -228.062 0)
(-1224.55 -54.5288 0)
(147.582 -16.7738 0)
(267.68 -13.1151 0)
(260.463 -12.2228 0)
(270.161 -8.45237 0)
(286.709 -4.36739 0)
(293.402 -0.589251 0)
(302.387 1.25477 0)
(315.008 0.55851 0)
(321.625 -2.12076 0)
(-424.275 -67.5045 0)
(-416.446 -116.747 0)
(-400.24 -92.6223 0)
(-290.994 -126.76 0)
(-193.721 -219.17 0)
(-133.86 -280.36 0)
(-88.1278 -299.222 0)
(-99.4902 -291.608 0)
(-133.261 -248.887 0)
(-147.51 -162.804 0)
(-214.027 -91.6761 0)
(-325.831 -13.9739 0)
(-291.07 89.3094 0)
(2.00966 69.3316 0)
(888.298 56.9069 0)
(1768.59 54.6542 0)
(1311.94 -26.0887 0)
(391.885 61.4099 0)
(-59.1195 99.6431 0)
(-252.421 39.6105 0)
(-159.735 -40.1611 0)
(-72.0387 -14.6426 0)
(-160.899 -45.3511 0)
(-273.741 -162.97 0)
(-358.018 -313.179 0)
(-442.387 -376.742 0)
(1265.21 -237.944 0)
(2297.93 -191.655 0)
(-1264.91 -552.861 0)
(-3158.94 -411.281 0)
(-1068.02 -63.3092 0)
(169.672 -17.0823 0)
(269.357 -16.2426 0)
(262.457 -16.905 0)
(274.345 -14.2845 0)
(291.121 -9.35383 0)
(296.666 -3.93969 0)
(303.158 0.467819 0)
(312.781 0.0308449 0)
(323.664 -3.37901 0)
(-359.598 42.7964 0)
(-296.912 65.5905 0)
(-221.815 78.5755 0)
(-240.053 101.944 0)
(-258.479 76.5122 0)
(-251.321 32.4368 0)
(-225.068 -37.2311 0)
(-203.923 -126.796 0)
(-173.218 -179.391 0)
(-151.089 -193.035 0)
(-181.88 -227.551 0)
(-236.578 -194.549 0)
(-252.554 -43.0906 0)
(-24.9117 72.1563 0)
(917.072 142.746 0)
(1778.7 175.226 0)
(1310.11 -122.168 0)
(426.215 -161.772 0)
(-80.9743 -166.769 0)
(-331.167 -184.789 0)
(-192.951 -154.606 0)
(-80.9185 -91.6862 0)
(-207.633 -132.502 0)
(-310.732 -153.107 0)
(-401.474 -165.64 0)
(-415.835 -204.045 0)
(1319.08 -48.1992 0)
(2015.58 -39.6344 0)
(-1475.25 -630.863 0)
(-2890.22 -457.142 0)
(-844.687 -17.3354 0)
(192.938 28.3283 0)
(267.851 19.2819 0)
(262.35 2.39419 0)
(277.437 -9.17072 0)
(296.677 -11.9403 0)
(302.866 -7.88018 0)
(306.213 -1.14146 0)
(311.301 -0.203098 0)
(324.851 -2.13272 0)
(-319.83 9.76818 0)
(-381.968 50.4492 0)
(-365.209 13.5944 0)
(-292.982 -16.4173 0)
(-260.7 -43.3765 0)
(-243.467 -47.5927 0)
(-241.57 -58.4166 0)
(-236.48 -115.013 0)
(-197.092 -151.793 0)
(-193.919 -189.335 0)
(-215.486 -269.901 0)
(-148.078 -221.789 0)
(-34.0632 -71.5508 0)
(181.088 103.022 0)
(987.62 290.848 0)
(1513.31 254.615 0)
(987.198 -249.762 0)
(348.906 -361.399 0)
(-81.2994 -381.869 0)
(-240.7 -365.635 0)
(-70.0178 -245.793 0)
(-50.7386 -201.967 0)
(-220.086 -258.059 0)
(-305.674 -251.895 0)
(-407.104 -241.963 0)
(-329.217 -230.974 0)
(1423.65 -11.6425 0)
(1736.45 150.581 0)
(-1667.23 -442.421 0)
(-2567.72 -278.729 0)
(-600.202 161.757 0)
(204.957 170.07 0)
(244.366 124.319 0)
(235.039 85.7305 0)
(260.532 53.1499 0)
(292.364 19.7718 0)
(307.072 -2.90617 0)
(310.556 -4.07883 0)
(311.825 -1.87274 0)
(325.915 -2.08476 0)
(-301.57 -0.00636786 0)
(-293.225 37.0606 0)
(-286.25 111.927 0)
(-294.952 124.073 0)
(-288.52 102.896 0)
(-265.814 89.7486 0)
(-290.037 68.9192 0)
(-293.904 50.5973 0)
(-244.837 42.066 0)
(-264.901 -31.1673 0)
(-213.153 -78.6404 0)
(-45.4412 48.218 0)
(60.4448 150.186 0)
(324.309 258.626 0)
(1063.15 494.415 0)
(1257.75 233.815 0)
(716.492 -158.37 0)
(298.911 -230.256 0)
(-85.0566 -285.652 0)
(-200.039 -289.089 0)
(-35.2339 -170.049 0)
(-92.7383 -220.047 0)
(-255.745 -267.33 0)
(-295.221 -248.146 0)
(-381.314 -171.22 0)
(-193.89 -84.4599 0)
(1686.76 418.035 0)
(1600.47 1212.54 0)
(-1888.95 329.21 0)
(-2308.02 420.942 0)
(-412.207 771.7 0)
(156.861 671.567 0)
(186.578 503.551 0)
(193.768 346.909 0)
(213.877 214.601 0)
(242.66 121.544 0)
(279.883 61.8032 0)
(307.209 13.0537 0)
(313.223 -0.617399 0)
(328.665 -2.81438 0)
(-284.123 6.51868 0)
(-274.105 25.6357 0)
(-281.361 45.9449 0)
(-301.685 49.2842 0)
(-293.776 57.3287 0)
(-276.209 52.7661 0)
(-279.298 29.3354 0)
(-262.357 53.8336 0)
(-275.884 70.2114 0)
(-310.236 25.9632 0)
(-138.987 75.7364 0)
(72.4275 147.713 0)
(168.694 174.36 0)
(512.8 282.532 0)
(963.711 410.373 0)
(884.258 33.7731 0)
(540.002 -186.33 0)
(226.252 -277.182 0)
(-137.994 -432.003 0)
(-129.301 -325.4 0)
(-3.48565 -184.792 0)
(-144.483 -262.884 0)
(-247.164 -149.34 0)
(-213.059 -18.3784 0)
(-249.37 165.31 0)
(238.611 564.27 0)
(2673.48 2027.55 0)
(1650.86 2549.01 0)
(-2430.05 796.196 0)
(-2141.32 1044.97 0)
(-358.69 1361.09 0)
(-53.441 1238.8 0)
(-68.4859 1059.35 0)
(-43.4034 845.158 0)
(43.3614 613.427 0)
(145.123 395.405 0)
(202.527 212.326 0)
(250.405 93.0014 0)
(296.534 19.0379 0)
(329.222 -2.25793 0)
(-270.585 5.52181 0)
(-255.232 19.4239 0)
(-263.461 32.3891 0)
(-283.983 49.1622 0)
(-285.165 72.321 0)
(-292.789 75.3576 0)
(-289.008 65.3559 0)
(-254.515 69.6062 0)
(-271.694 64.7141 0)
(-259.577 68.5867 0)
(-95.8308 151.487 0)
(49.5963 147.76 0)
(190.361 172.633 0)
(551.74 299.567 0)
(823.439 203.893 0)
(682.744 -132.577 0)
(416.844 -258.486 0)
(62.1712 -454.406 0)
(-131.52 -554.267 0)
(38.1828 -253.871 0)
(25.0084 -75.4183 0)
(-58.5755 15.7995 0)
(-20.1308 370.726 0)
(7.98755 1000.25 0)
(180.147 1445.37 0)
(1600.63 1959.78 0)
(3599.33 3239.55 0)
(413.891 1448.06 0)
(-3338.3 -15.5328 0)
(-1763.67 824.966 0)
(-225.424 1108.58 0)
(-133.899 1109.49 0)
(-192.752 1098.82 0)
(-235.944 1059.79 0)
(-219.521 962.714 0)
(-143.856 769.885 0)
(-11.5247 506.6 0)
(120.949 270.687 0)
(221.427 96.9468 0)
(312.495 2.82797 0)
(-260.084 7.70385 0)
(-248.215 19.1375 0)
(-252.704 21.6793 0)
(-263.205 34.9337 0)
(-268.533 52.5836 0)
(-282.92 53.0432 0)
(-284.84 57.6239 0)
(-262.976 72.1814 0)
(-276.866 66.8828 0)
(-226.619 99.6152 0)
(-62.6934 188.7 0)
(92.8046 225.445 0)
(314.981 275.798 0)
(542.924 276.52 0)
(547.282 72.9397 0)
(438.693 -155.835 0)
(229.876 -359.697 0)
(-58.7736 -573.145 0)
(55.2494 -122.891 0)
(332.135 235.619 0)
(256.379 591.547 0)
(285.439 1371.73 0)
(701.487 1968.23 0)
(822.503 2243.38 0)
(675.266 2251.34 0)
(1967.55 2251.82 0)
(2180.37 1855.4 0)
(-1485.86 -1026 0)
(-3030.48 -900.632 0)
(-1058.09 372.152 0)
(-84.5146 533.772 0)
(-62.8498 595.28 0)
(-116.375 668.553 0)
(-174.556 753.421 0)
(-236.003 826.821 0)
(-294.406 839.069 0)
(-278.519 737.729 0)
(-144.351 508.402 0)
(38.4157 246.629 0)
(233.076 22.9362 0)
(-244.72 14.0141 0)
(-241.765 31.3932 0)
(-248.239 35.1944 0)
(-254.202 34.3371 0)
(-267.714 20.8616 0)
(-287.932 -1.69047 0)
(-270.566 -2.03408 0)
(-245.593 12.9976 0)
(-245.258 25.2863 0)
(-142.19 100.573 0)
(25.4236 186.009 0)
(133.527 244.286 0)
(239.578 279.349 0)
(356.258 190.087 0)
(406.806 22.3238 0)
(265.839 -95.4108 0)
(14.7087 -99.8764 0)
(290.367 369.312 0)
(647.834 1176.41 0)
(726.641 1821.03 0)
(1119.81 2305.24 0)
(1268.05 2632.61 0)
(819.824 2582.95 0)
(280.808 1910.76 0)
(188.275 1188.91 0)
(1219.09 803.17 0)
(440.711 -548.727 0)
(-2241.92 -2103.34 0)
(-1990.99 -832.751 0)
(-381.423 143.128 0)
(-10.4092 223.303 0)
(-4.01883 245.673 0)
(-40.3613 296.128 0)
(-83.4307 360.008 0)
(-136.987 432.325 0)
(-229.708 536.448 0)
(-330.168 603.249 0)
(-352.293 569.107 0)
(-246.385 370.863 0)
(52.7325 66.1534 0)
(-216.328 4.2582 0)
(-227.805 1.88388 0)
(-249.867 -20.6659 0)
(-277.017 -45.8905 0)
(-303.251 -66.0267 0)
(-304.983 -53.1141 0)
(-270.686 1.05853 0)
(-236.649 70.9778 0)
(-192.475 176.507 0)
(-71.7408 303.236 0)
(75.794 356.298 0)
(182.751 401.967 0)
(262.753 511.86 0)
(295.245 618.206 0)
(272.166 752.586 0)
(320.936 1051.37 0)
(677.699 1620.64 0)
(1171.1 2384.39 0)
(1454.18 2715.73 0)
(1419.92 2876.44 0)
(1038.45 2677.3 0)
(553.053 1890.66 0)
(5.88082 1087.11 0)
(-520.842 514.129 0)
(-392.046 -8.88515 0)
(293.097 -582.773 0)
(-620.445 -2052.05 0)
(-1759.56 -1952.52 0)
(-865.702 -400.451 0)
(-40.4379 50.0403 0)
(14.3009 106.299 0)
(7.32714 110.39 0)
(-6.19681 130.81 0)
(-43.311 147.933 0)
(-65.9797 162.68 0)
(-129.697 208.351 0)
(-247.047 275.339 0)
(-368.287 340.672 0)
(-446.249 317.277 0)
(-188.049 99.0005 0)
(-238.801 -14.5697 0)
(-265.783 -46.5901 0)
(-294.276 -57.9196 0)
(-297.913 -5.51931 0)
(-274.675 141.215 0)
(-223.286 352.552 0)
(-150.986 576.559 0)
(-76.5239 825.061 0)
(-21.4457 1163.67 0)
(31.0636 1516.86 0)
(120.565 1736.52 0)
(283.431 1874.94 0)
(447.954 2049.52 0)
(588.231 2247.23 0)
(824.216 2521.52 0)
(1102.32 2744.44 0)
(1299.25 3037.54 0)
(1345.64 2858.93 0)
(1122 2371.4 0)
(689.61 1685.7 0)
(169.876 1024.79 0)
(-264.324 498.242 0)
(-506.653 -26.8915 0)
(-775.331 -372.016 0)
(-868.739 -694.197 0)
(-749.787 -1486.27 0)
(-879.222 -2285.14 0)
(-650.376 -1172.65 0)
(-61.2549 -112.303 0)
(106.9 50.747 0)
(47.7464 77.1947 0)
(19.6011 90.0733 0)
(-4.18404 93.9213 0)
(-52.7192 96.5384 0)
(-78.7661 90.8677 0)
(-121.146 83.8123 0)
(-202.658 88.428 0)
(-311.88 107.92 0)
(-479.269 141.607 0)
(-348.408 72.7594 0)
(-275.264 33.0974 0)
(-269.578 97.6116 0)
(-210.29 316.283 0)
(-85.1234 662.754 0)
(41.8002 1035.75 0)
(114.529 1452.8 0)
(184.641 1886.18 0)
(329.109 2289.14 0)
(474.171 2650.76 0)
(480.287 2947.96 0)
(420.853 3161.02 0)
(484.367 3280.4 0)
(621.501 3329.63 0)
(750.08 3161.23 0)
(751.293 2824.73 0)
(818.191 2423.88 0)
(788.029 1929.89 0)
(529.188 1390.28 0)
(323.612 857.228 0)
(122.268 399.86 0)
(-105.829 44.5762 0)
(-460.382 -185.683 0)
(-832.732 -439.918 0)
(-1163.88 -842.773 0)
(-1465.79 -1411.59 0)
(-1239.99 -1883.34 0)
(-318.227 -1544.65 0)
(334.271 -520.95 0)
(313.209 -22.3873 0)
(142.169 33.0666 0)
(52.1972 42.4867 0)
(23.4455 48.1394 0)
(0.0331711 46.1013 0)
(-46.2536 57.3815 0)
(-78.243 67.2362 0)
(-132.048 65.909 0)
(-223.816 45.6914 0)
(-317.042 12.6907 0)
(-480.131 -3.07067 0)
(-394.621 13.1085 0)
(-112.845 129.511 0)
(7.10495 492.117 0)
(250.315 977.812 0)
(395.389 1439.9 0)
(486.642 1711.34 0)
(596.225 1863.48 0)
(654.945 1996.84 0)
(660.248 2090.72 0)
(613.412 2066.03 0)
(522.771 1958.16 0)
(440.92 1937.72 0)
(445.914 2058.04 0)
(333.117 2028.97 0)
(101.69 1762.59 0)
(113.675 1356.4 0)
(240.016 1039.11 0)
(303.247 662.853 0)
(311.989 451.59 0)
(167.586 267.823 0)
(-93.4912 23.857 0)
(-394.375 -294.994 0)
(-731.2 -587.947 0)
(-1139.85 -920.777 0)
(-1711.67 -1448.8 0)
(-1871.47 -1817.6 0)
(-878.008 -1395.67 0)
(433.631 -710.242 0)
(816.533 -268.005 0)
(472.615 -74.8069 0)
(169.415 -34.3642 0)
(62.2711 -17.2505 0)
(23.0842 -14.5799 0)
(4.72194 -10.9338 0)
(-32.3528 1.475 0)
(-70.5486 15.2749 0)
(-141.907 8.81986 0)
(-253.941 5.38603 0)
(-358.869 -15.7112 0)
(-478.866 -48.0659 0)
(-358.081 -1.29226 0)
(323.76 206.198 0)
(547.875 616.683 0)
(703.029 925.251 0)
(621.727 1019.46 0)
(449.978 975.165 0)
(389.655 803.433 0)
(403.613 575.782 0)
(395.775 368.469 0)
(346.436 221.349 0)
(356.651 231.403 0)
(517.1 335.782 0)
(572.291 474.772 0)
(336.789 447.402 0)
(101.972 505.327 0)
(54.1277 617.01 0)
(149.863 587.942 0)
(221.87 468.048 0)
(148.522 244.95 0)
(-88.567 -55.5009 0)
(-420.083 -347.244 0)
(-695.385 -671.212 0)
(-1063.41 -1073.52 0)
(-1662.28 -1589.46 0)
(-2028.09 -1879.32 0)
(-1414.59 -1327.97 0)
(-172.906 -503.794 0)
(768.437 -269.745 0)
(946.599 -230.662 0)
(538.353 -147.037 0)
(197.632 -77.367 0)
(71.2621 -67.2193 0)
(29.5325 -62.3664 0)
(15.5043 -53.2907 0)
(-20.9979 -46.965 0)
(-71.1653 -36.5658 0)
(-141.577 -45.1431 0)
(-247.455 -37.0908 0)
(-368.55 -32.036 0)
(-466.236 -44.1446 0)
(-347.057 5.05837 0)
(680.113 107.883 0)
(700.011 151.571 0)
(638.448 82.2755 0)
(443.487 -119.779 0)
(278.468 -261.275 0)
(211.365 -374.452 0)
(235.797 -431.599 0)
(318.703 -413.663 0)
(481.33 -316.366 0)
(633.043 -123.022 0)
(675.439 56.1303 0)
(553.475 96.4685 0)
(362.561 134.349 0)
(265.13 282.348 0)
(193.286 408.308 0)
(96.4711 409.863 0)
(-27.273 195.971 0)
(-192.522 -111.646 0)
(-403.073 -463.317 0)
(-686.813 -800.167 0)
(-1094.24 -1208.91 0)
(-1616.06 -1730.39 0)
(-1916.35 -1936.19 0)
(-1459.69 -1348.17 0)
(-545.962 -406.421 0)
(141.738 16.2864 0)
(696.83 -91.349 0)
(934.78 -272.52 0)
(620.336 -234.081 0)
(246.33 -122.022 0)
(76.7262 -92.2078 0)
(36.5064 -78.8716 0)
(19.5633 -72.4096 0)
(-16.2361 -78.9302 0)
(-68.7929 -79.1627 0)
(-142.413 -87.9828 0)
(-241.311 -89.8672 0)
(-365.666 -76.0417 0)
(-443.121 -67.0475 0)
(-320.416 -16.5142 0)
(573.779 -158.999 0)
(523.199 -358.401 0)
(441.546 -565.886 0)
(290.669 -729.22 0)
(204.566 -783.532 0)
(225.525 -757.28 0)
(365.828 -659.815 0)
(506.818 -542.256 0)
(626.508 -427.518 0)
(715.602 -379.682 0)
(728.609 -319.015 0)
(647.665 -232.502 0)
(515.91 -43.5359 0)
(365.969 75.9554 0)
(177.005 51.196 0)
(-54.7518 -75.507 0)
(-280.674 -288.395 0)
(-486.792 -583.186 0)
(-752.051 -958.923 0)
(-1138.56 -1425.23 0)
(-1591.78 -1865.23 0)
(-1764.24 -1914.15 0)
(-1293.96 -1272.48 0)
(-553.952 -382.443 0)
(-99.7534 98.6089 0)
(130.708 169.654 0)
(490.132 36.9365 0)
(809.057 -259.832 0)
(683.378 -328.556 0)
(334.346 -215.775 0)
(112.844 -154.477 0)
(48.6108 -141.031 0)
(15.4478 -148.049 0)
(-27.5054 -148.424 0)
(-79.8887 -146.574 0)
(-151.892 -150.566 0)
(-235.948 -137.647 0)
(-346.56 -98.67 0)
(-408.873 -44.4099 0)
(-266.534 -2.73773 0)
(181.527 -250.355 0)
(307.921 -462.44 0)
(281.115 -643.529 0)
(233.756 -737.654 0)
(251.428 -754.451 0)
(330.583 -688.76 0)
(443.002 -639.005 0)
(542.552 -652.78 0)
(637.993 -699.728 0)
(737.601 -746.928 0)
(817.267 -725.231 0)
(818.937 -631.569 0)
(659.801 -497.577 0)
(356.417 -456.714 0)
(47.3313 -512.127 0)
(-230.771 -665.676 0)
(-516.491 -909.291 0)
(-838.666 -1252.45 0)
(-1214.49 -1663.1 0)
(-1560.16 -1961.69 0)
(-1565.38 -1816.94 0)
(-1044.87 -1117.4 0)
(-440.342 -316.824 0)
(-138.457 117.536 0)
(-13.9412 235.438 0)
(82.3082 217.148 0)
(282.962 129.025 0)
(582.578 -159.989 0)
(662.791 -358.956 0)
(414.079 -317.975 0)
(148.752 -248.142 0)
(42.7003 -239.441 0)
(12.4395 -266.865 0)
(-14.8142 -267.355 0)
(-70.8577 -256.62 0)
(-133.811 -242.937 0)
(-191.301 -193.225 0)
(-275.819 -143.698 0)
(-350.677 -41.0618 0)
(-274.983 -1.28736 0)
(-113.096 -133.629 0)
(144.322 -272.465 0)
(176.34 -438.557 0)
(183.78 -514.776 0)
(251.683 -544.65 0)
(336.773 -576.004 0)
(400.5 -654.904 0)
(448.303 -760.609 0)
(535.784 -885 0)
(691.026 -990.995 0)
(839.773 -1060.06 0)
(867.04 -1102.31 0)
(684.406 -1137.01 0)
(351.949 -1197.08 0)
(-24.3586 -1280.27 0)
(-437.474 -1457.27 0)
(-846.109 -1723.1 0)
(-1213.19 -1956.51 0)
(-1435.5 -1977.63 0)
(-1286.81 -1599.64 0)
(-778.2 -875.217 0)
(-318.672 -200.474 0)
(-103.926 133.159 0)
(-21.7726 247.658 0)
(-3.76354 276.88 0)
(28.1644 254.077 0)
(126.709 183.051 0)
(338.821 -5.44002 0)
(531.137 -271.865 0)
(441.13 -387.753 0)
(188.522 -349.944 0)
(30.5686 -321.356 0)
(-11.4509 -356.552 0)
(-17.6329 -379.117 0)
(-56.3583 -384.934 0)
(-90.8024 -362.747 0)
(-140.318 -289.77 0)
(-199.93 -215.46 0)
(-271.641 -46.3239 0)
(-225.725 7.02749 0)
(-209.8 -111.734 0)
(14.0814 -161.637 0)
(47.6146 -295.355 0)
(131.521 -354.462 0)
(192.426 -370.373 0)
(224.338 -450.468 0)
(265.11 -577.821 0)
(320.824 -690.795 0)
(415.984 -766.728 0)
(568.909 -847.974 0)
(710 -1019.29 0)
(744.786 -1297.3 0)
(568.477 -1668.9 0)
(218.361 -2039.06 0)
(-203.401 -2351.55 0)
(-657.492 -2479.8 0)
(-997.577 -2372.82 0)
(-1083.94 -2010.13 0)
(-870.593 -1385.19 0)
(-497.839 -647.019 0)
(-217.101 -92.1147 0)
(-73.1579 153.405 0)
(-8.50597 245.101 0)
(0.0375477 266.039 0)
(-7.75549 267.065 0)
(-8.10931 265.988 0)
(32.8816 232.094 0)
(144.205 132.532 0)
(294.38 -108.48 0)
(338.839 -378.214 0)
(212.735 -480.939 0)
(36.3331 -480.481 0)
(-43.2213 -481.831 0)
(-42.1646 -472.63 0)
(-55.0827 -460.939 0)
(-42.1079 -427.398 0)
(-49.3698 -366.64 0)
(-41.2254 -289.15 0)
(-136.28 -155.851 0)
(-237.115 59.7964 0)
(-376.527 308.809 0)
(-32.6219 299.643 0)
(-9.4734 328.049 0)
(111.49 260.063 0)
(159.169 75.8684 0)
(136.869 -104.8 0)
(168.911 -298.969 0)
(266.265 -555.199 0)
(384.321 -908.212 0)
(447.647 -1385.7 0)
(406.786 -1963.13 0)
(241.058 -2544.63 0)
(-30.3812 -2986.18 0)
(-305.878 -3103.04 0)
(-449.069 -2895.35 0)
(-457.972 -2425.94 0)
(-393.515 -1737.8 0)
(-261.47 -982.357 0)
(-121.959 -341.613 0)
(-40.7623 47.6496 0)
(-6.88292 217.313 0)
(6.28125 280.086 0)
(4.61229 286.713 0)
(-0.607296 284.127 0)
(-3.8133 287.305 0)
(-5.53536 296.132 0)
(-1.89387 301.464 0)
(10.6323 263.975 0)
(38.9634 140.785 0)
(82.2151 -81.948 0)
(89.9735 -296.158 0)
(29.7083 -396.079 0)
(-3.88507 -364.692 0)
(2.49952 -347.195 0)
(-12.7708 -323.53 0)
(0.0677448 -276.781 0)
(-7.09739 -279.903 0)
(3.19395 -218.183 0)
(64.6162 -240.437 0)
(-133.163 -143.815 0)
(-376.527 -308.809 0)
(-32.6219 -299.643 0)
(-9.4734 -328.049 0)
(111.49 -260.063 0)
(159.169 -75.8684 0)
(136.869 104.8 0)
(168.911 298.969 0)
(266.265 555.199 0)
(384.321 908.212 0)
(447.647 1385.7 0)
(406.786 1963.13 0)
(241.058 2544.63 0)
(-30.3812 2986.18 0)
(-305.878 3103.04 0)
(-449.069 2895.35 0)
(-457.972 2425.94 0)
(-393.515 1737.8 0)
(-261.47 982.357 0)
(-121.959 341.613 0)
(-40.7623 -47.6496 0)
(-6.88292 -217.313 0)
(6.28125 -280.086 0)
(4.61229 -286.713 0)
(-0.607296 -284.127 0)
(-3.8133 -287.305 0)
(-5.53536 -296.132 0)
(-1.89387 -301.464 0)
(10.6323 -263.975 0)
(38.9634 -140.785 0)
(82.2151 81.948 0)
(89.9735 296.158 0)
(29.7083 396.079 0)
(-3.88507 364.692 0)
(2.49952 347.195 0)
(-12.7708 323.53 0)
(0.0677448 276.781 0)
(-7.09739 279.903 0)
(3.19395 218.183 0)
(64.6162 240.437 0)
(-133.163 143.815 0)
(-209.8 111.734 0)
(14.0814 161.637 0)
(47.6146 295.355 0)
(131.521 354.462 0)
(192.426 370.373 0)
(224.338 450.468 0)
(265.11 577.821 0)
(320.824 690.795 0)
(415.984 766.728 0)
(568.909 847.974 0)
(710 1019.29 0)
(744.786 1297.3 0)
(568.477 1668.9 0)
(218.361 2039.06 0)
(-203.401 2351.55 0)
(-657.492 2479.8 0)
(-997.577 2372.82 0)
(-1083.94 2010.13 0)
(-870.593 1385.19 0)
(-497.839 647.019 0)
(-217.101 92.1147 0)
(-73.1579 -153.405 0)
(-8.50597 -245.101 0)
(0.0375477 -266.039 0)
(-7.75549 -267.065 0)
(-8.10931 -265.988 0)
(32.8816 -232.094 0)
(144.205 -132.532 0)
(294.38 108.48 0)
(338.839 378.214 0)
(212.735 480.939 0)
(36.3331 480.481 0)
(-43.2213 481.831 0)
(-42.1646 472.63 0)
(-55.0827 460.939 0)
(-42.1079 427.398 0)
(-49.3698 366.64 0)
(-41.2254 289.15 0)
(-136.28 155.851 0)
(-237.115 -59.7964 0)
(-113.096 133.629 0)
(144.322 272.465 0)
(176.34 438.557 0)
(183.78 514.776 0)
(251.683 544.65 0)
(336.773 576.004 0)
(400.5 654.904 0)
(448.303 760.609 0)
(535.784 885 0)
(691.026 990.995 0)
(839.773 1060.06 0)
(867.04 1102.31 0)
(684.406 1137.01 0)
(351.949 1197.08 0)
(-24.3586 1280.27 0)
(-437.474 1457.27 0)
(-846.109 1723.1 0)
(-1213.19 1956.51 0)
(-1435.5 1977.63 0)
(-1286.81 1599.64 0)
(-778.2 875.217 0)
(-318.672 200.474 0)
(-103.926 -133.159 0)
(-21.7726 -247.658 0)
(-3.76354 -276.88 0)
(28.1644 -254.077 0)
(126.709 -183.051 0)
(338.821 5.44002 0)
(531.137 271.865 0)
(441.13 387.753 0)
(188.522 349.944 0)
(30.5686 321.356 0)
(-11.4509 356.552 0)
(-17.6329 379.117 0)
(-56.3583 384.934 0)
(-90.8024 362.747 0)
(-140.318 289.77 0)
(-199.93 215.46 0)
(-271.641 46.3239 0)
(-225.725 -7.02749 0)
(181.527 250.355 0)
(307.921 462.44 0)
(281.115 643.529 0)
(233.756 737.654 0)
(251.428 754.451 0)
(330.583 688.76 0)
(443.002 639.005 0)
(542.552 652.78 0)
(637.993 699.728 0)
(737.601 746.928 0)
(817.267 725.231 0)
(818.937 631.569 0)
(659.801 497.577 0)
(356.417 456.714 0)
(47.3313 512.127 0)
(-230.771 665.676 0)
(-516.491 909.291 0)
(-838.666 1252.45 0)
(-1214.49 1663.1 0)
(-1560.16 1961.69 0)
(-1565.38 1816.94 0)
(-1044.87 1117.4 0)
(-440.342 316.824 0)
(-138.457 -117.536 0)
(-13.9412 -235.438 0)
(82.3082 -217.148 0)
(282.962 -129.025 0)
(582.578 159.989 0)
(662.791 358.956 0)
(414.079 317.975 0)
(148.752 248.142 0)
(42.7003 239.441 0)
(12.4395 266.865 0)
(-14.8142 267.355 0)
(-70.8577 256.62 0)
(-133.811 242.937 0)
(-191.301 193.225 0)
(-275.819 143.698 0)
(-350.677 41.0618 0)
(-274.983 1.28736 0)
(573.779 158.999 0)
(523.199 358.401 0)
(441.546 565.886 0)
(290.669 729.22 0)
(204.566 783.532 0)
(225.525 757.28 0)
(365.828 659.815 0)
(506.818 542.256 0)
(626.508 427.518 0)
(715.602 379.682 0)
(728.609 319.015 0)
(647.665 232.502 0)
(515.91 43.5359 0)
(365.969 -75.9554 0)
(177.005 -51.196 0)
(-54.7518 75.507 0)
(-280.674 288.395 0)
(-486.792 583.186 0)
(-752.051 958.923 0)
(-1138.56 1425.23 0)
(-1591.78 1865.23 0)
(-1764.24 1914.15 0)
(-1293.96 1272.48 0)
(-553.952 382.443 0)
(-99.7534 -98.6089 0)
(130.708 -169.654 0)
(490.132 -36.9365 0)
(809.057 259.832 0)
(683.378 328.556 0)
(334.346 215.775 0)
(112.844 154.477 0)
(48.6108 141.031 0)
(15.4478 148.049 0)
(-27.5054 148.424 0)
(-79.8887 146.574 0)
(-151.892 150.566 0)
(-235.948 137.647 0)
(-346.56 98.67 0)
(-408.873 44.4099 0)
(-266.534 2.73773 0)
(680.113 -107.883 0)
(700.011 -151.571 0)
(638.448 -82.2755 0)
(443.487 119.779 0)
(278.468 261.275 0)
(211.365 374.452 0)
(235.797 431.599 0)
(318.703 413.663 0)
(481.33 316.366 0)
(633.043 123.022 0)
(675.439 -56.1303 0)
(553.475 -96.4685 0)
(362.561 -134.349 0)
(265.13 -282.348 0)
(193.286 -408.308 0)
(96.4711 -409.863 0)
(-27.273 -195.971 0)
(-192.522 111.646 0)
(-403.073 463.317 0)
(-686.813 800.167 0)
(-1094.24 1208.91 0)
(-1616.06 1730.39 0)
(-1916.35 1936.19 0)
(-1459.69 1348.17 0)
(-545.962 406.421 0)
(141.738 -16.2864 0)
(696.83 91.349 0)
(934.78 272.52 0)
(620.336 234.081 0)
(246.33 122.022 0)
(76.7262 92.2078 0)
(36.5064 78.8716 0)
(19.5633 72.4096 0)
(-16.2361 78.9302 0)
(-68.7929 79.1627 0)
(-142.413 87.9828 0)
(-241.311 89.8672 0)
(-365.666 76.0417 0)
(-443.121 67.0475 0)
(-320.416 16.5142 0)
(323.76 -206.198 0)
(547.875 -616.683 0)
(703.029 -925.251 0)
(621.727 -1019.46 0)
(449.978 -975.165 0)
(389.655 -803.433 0)
(403.613 -575.782 0)
(395.775 -368.469 0)
(346.436 -221.349 0)
(356.651 -231.403 0)
(517.1 -335.782 0)
(572.291 -474.772 0)
(336.789 -447.402 0)
(101.972 -505.327 0)
(54.1277 -617.01 0)
(149.863 -587.942 0)
(221.87 -468.048 0)
(148.522 -244.95 0)
(-88.567 55.5009 0)
(-420.083 347.244 0)
(-695.385 671.212 0)
(-1063.41 1073.52 0)
(-1662.28 1589.46 0)
(-2028.09 1879.32 0)
(-1414.59 1327.97 0)
(-172.906 503.794 0)
(768.437 269.745 0)
(946.599 230.662 0)
(538.353 147.037 0)
(197.632 77.367 0)
(71.2621 67.2193 0)
(29.5325 62.3664 0)
(15.5043 53.2907 0)
(-20.9979 46.965 0)