/*--------------------------------*- C++ -*----------------------------------*\
| =========                 |                                                 |
| \\      /  F ield         | OpenFOAM: The Open Source CFD Toolbox           |
|  \\    /   O peration     | Version:  v1912                                 |
|   \\  /    A nd           | Website:  www.openfoam.com                      |
|    \\/     M anipulation  |                                                 |
\*---------------------------------------------------------------------------*/
FoamFile
{
    version     2.0;
    format      ascii;
    class       volScalarField;
    location    "9.04";
    object      T;
}
// * * * * * * * * * * * * * * * * * * * * * * * * * * * * * * * * * * * * * //

dimensions      [0 0 0 1 0 0 0];


internalField   nonuniform List<scalar> 
1900
(
0.757642
1.03116
1.0264
0.986707
0.951983
0.939297
0.935724
0.937262
0.942807
0.948791
0.757641
1.03115
1.0264
0.986709
0.95198
0.939307
0.935768
0.93728
0.942999
0.948369
0.757639
1.03115
1.0264
0.986714
0.951987
0.939327
0.93579
0.937153
0.94253
0.947549
0.757641
1.03115
1.0264
0.986709
0.95198
0.939307
0.935768
0.93728
0.942999
0.948369
0.757642
1.03116
1.0264
0.986707
0.951983
0.939297
0.935724
0.937262
0.942807
0.948791
0.955982
0.952041
0.954986
0.962911
1.00154
0.950823
0.948854
0.950873
0.957325
0.983511
0.949754
0.948267
0.950171
0.957387
0.982166
0.950823
0.948854
0.950873
0.957325
0.983511
0.955982
0.952041
0.954986
0.962911
1.00154
0.794163
0.679312
0.614491
0.569591
0.535986
0.814052
0.695654
0.627546
0.582747
0.542288
0.814032
0.690078
0.621359
0.577912
0.533012
0.814052
0.695654
0.627546
0.582747
0.542288
0.794163
0.679312
0.614491
0.569591
0.535986
0.509059
0.495643
0.483189
0.477411
0.471581
0.464545
0.455179
0.445115
0.43526
0.427491
0.422538
0.415271
0.406784
0.407032
0.415971
0.46378
0.508388
0.526215
0.533476
0.537365
0.544169
0.55623
0.562405
0.560065
0.547783
0.525904
0.504491
0.571297
0.621797
0.543937
0.466501
0.464746
0.47504
0.485769
0.493171
0.495939
0.495997
0.494508
0.493461
0.493132
0.525194
0.534587
0.532681
0.524593
0.513128
0.500667
0.487007
0.473702
0.460642
0.449899
0.442826
0.433356
0.422463
0.420389
0.429141
0.477696
0.521863
0.536968
0.542393
0.544587
0.549292
0.558389
0.56402
0.561167
0.547513
0.525161
0.504253
0.571064
0.62155
0.544274
0.466706
0.464789
0.475061
0.485791
0.493177
0.495908
0.495955
0.49447
0.493421
0.493083
0.526423
0.534445
0.545155
0.540108
0.52976
0.51648
0.501444
0.486575
0.471806
0.459527
0.451295
0.44093
0.428833
0.425445
0.434045
0.48283
0.526659
0.540963
0.545526
0.547125
0.55087
0.559126
0.563398
0.560193
0.546938
0.524852
0.504623
0.571651
0.621955
0.544525
0.46676
0.464795
0.475061
0.485794
0.493174
0.495881
0.495903
0.494405
0.493353
0.493007
0.525194
0.534587
0.532681
0.524593
0.513128
0.500667
0.487007
0.473702
0.460642
0.449899
0.442826
0.433356
0.422463
0.420389
0.429141
0.477696
0.521863
0.536968
0.542393
0.544587
0.549292
0.558389
0.56402
0.561167
0.547513
0.525161
0.504253
0.571064
0.62155
0.544274
0.466706
0.464789
0.475061
0.485791
0.493177
0.495908
0.495955
0.49447
0.493421
0.493083
0.509059
0.495643
0.483189
0.477411
0.471581
0.464545
0.455179
0.445115
0.43526
0.427491
0.422538
0.415271
0.406784
0.407032
0.415971
0.46378
0.508388
0.526215
0.533476
0.537365
0.544169
0.55623
0.562405
0.560065
0.547783
0.525904
0.504491
0.571297
0.621797
0.543937
0.466501
0.464746
0.47504
0.485769
0.493171
0.495939
0.495997
0.494508
0.493461
0.493132
0.400889
0.395825
0.390564
0.389315
0.390143
0.38986
0.388874
0.387303
0.385242
0.383178
0.381487
0.377502
0.372501
0.373525
0.381973
0.42637
0.471916
0.496255
0.508287
0.516926
0.530043
0.548808
0.560053
0.55959
0.553411
0.534408
0.512034
0.577015
0.623739
0.542731
0.465512
0.464464
0.474836
0.485624
0.493173
0.496094
0.496241
0.49477
0.493647
0.493238
0.310879
0.310971
0.310093
0.310265
0.31188
0.31459
0.318316
0.32237
0.325837
0.329437
0.333402
0.333266
0.332803
0.33478
0.343239
0.382999
0.427369
0.45784
0.475887
0.490323
0.511081
0.539312
0.554503
0.552687
0.540842
0.520066
0.502826
0.572215
0.616151
0.534444
0.463476
0.46394
0.474397
0.485259
0.493051
0.496237
0.496536
0.495109
0.493835
0.493231
0.295401
0.295232
0.296751
0.298643
0.300297
0.301734
0.303226
0.304835
0.306769
0.309648
0.312518
0.314049
0.315252
0.317205
0.325513
0.365297
0.407703
0.439095
0.459168
0.476175
0.501051
0.5349
0.549841
0.546971
0.533929
0.512774
0.502923
0.573172
0.605645
0.522082
0.461266
0.463483
0.473896
0.484776
0.492769
0.496215
0.496673
0.495398
0.494029
0.493277
0.293899
0.293541
0.292353
0.292483
0.293017
0.293818
0.294833
0.29562
0.296723
0.29878
0.299654
0.300748
0.304529
0.309737
0.322909
0.361538
0.39546
0.423817
0.444356
0.464338
0.494947
0.530731
0.541653
0.537701
0.524377
0.503904
0.503396
0.57467
0.59366
0.509362
0.461726
0.465376
0.475279
0.48535
0.492856
0.496172
0.496687
0.495627
0.494247
0.493423
0.296179
0.296205
0.296346
0.296511
0.296434
0.296765
0.297272
0.296839
0.297142
0.297995
0.297885
0.300389
0.305579
0.311613
0.328528
0.363818
0.392073
0.418902
0.441365
0.465011
0.499477
0.530568
0.534473
0.528492
0.514972
0.497628
0.505144
0.583872
0.588087
0.503597
0.469603
0.472488
0.480151
0.488986
0.495466
0.497528
0.497063
0.495827
0.494486
0.493608
0.301028
0.301039
0.301069
0.300856
0.300271
0.300245
0.300188
0.299923
0.300018
0.299231
0.299512
0.303604
0.310331
0.319971
0.341821
0.368672
0.393466
0.419855
0.442933
0.470373
0.508466
0.52857
0.527655
0.519377
0.509102
0.498745
0.525833
0.623762
0.603972
0.522749
0.500904
0.498982
0.499842
0.50194
0.503153
0.502314
0.500087
0.496788
0.494786
0.493773
0.306907
0.306984
0.307073
0.30681
0.306316
0.305892
0.305004
0.304627
0.304557
0.303691
0.304997
0.309461
0.315681
0.327918
0.350857
0.374474
0.39926
0.424372
0.44773
0.48221
0.516199
0.52485
0.523546
0.519442
0.516829
0.524303
0.592414
0.667815
0.613186
0.544073
0.532247
0.528515
0.527268
0.526631
0.523292
0.515992
0.507277
0.5004
0.495861
0.494117
0.313482
0.313577
0.313624
0.313478
0.313188
0.312765
0.311873
0.31119
0.310652
0.310134
0.312116
0.316935
0.325438
0.342119
0.362469
0.384052
0.409236
0.432863
0.460184
0.499037
0.523936
0.530277
0.537804
0.551787
0.562674
0.578178
0.639042
0.663593
0.598468
0.553586
0.547194
0.544503
0.543885
0.544629
0.543813
0.536244
0.522356
0.508717
0.499472
0.49528
0.321888
0.321931
0.321901
0.321748
0.321506
0.320861
0.319791
0.319619
0.319496
0.320162
0.324082
0.33082
0.341177
0.356256
0.375426
0.400334
0.422888
0.448529
0.490865
0.525363
0.550376
0.573672
0.587727
0.594345
0.596626
0.605722
0.643008
0.62986
0.574213
0.556073
0.553086
0.551797
0.551605
0.553205
0.554684
0.55115
0.538501
0.52136
0.506436
0.498739
0.334145
0.334144
0.333997
0.333572
0.332697
0.331388
0.330075
0.329817
0.330158
0.332103
0.337554
0.346559
0.35985
0.377682
0.398566
0.424909
0.457016
0.505327
0.555341
0.588768
0.605412
0.611502
0.614851
0.610976
0.602559
0.604973
0.617664
0.588318
0.558542
0.555212
0.554238
0.553378
0.553655
0.555295
0.557242
0.557412
0.548488
0.532446
0.516287
0.504694
0.349772
0.349598
0.348859
0.347832
0.346725
0.346536
0.347169
0.34935
0.353038
0.358783
0.367297
0.379131
0.398717
0.425624
0.460694
0.507828
0.558655
0.594946
0.615872
0.62345
0.62499
0.622654
0.617303
0.609937
0.597218
0.586571
0.57486
0.555588
0.551468
0.553762
0.554342
0.553873
0.554314
0.555488
0.557255
0.557985
0.552343
0.539164
0.524596
0.513059
0.371403
0.371171
0.371414
0.373191
0.377256
0.383613
0.39254
0.404559
0.421606
0.441222
0.4617
0.482405
0.509641
0.544369
0.579794
0.603764
0.622972
0.626128
0.626039
0.626111
0.625906
0.622667
0.614072
0.600699
0.5808
0.554262
0.536973
0.541369
0.549931
0.553813
0.554455
0.554113
0.554318
0.555148
0.556762
0.558091
0.554576
0.544035
0.531303
0.521376
0.407018
0.408355
0.414298
0.427015
0.444024
0.465103
0.488682
0.512628
0.536302
0.559247
0.579906
0.596836
0.613457
0.624301
0.626583
0.625855
0.623622
0.624376
0.626714
0.627172
0.624288
0.617251
0.605401
0.586108
0.55294
0.519697
0.518409
0.537065
0.549986
0.553959
0.554925
0.554383
0.554102
0.554303
0.555432
0.556953
0.555188
0.547329
0.536439
0.528263
0.461487
0.468001
0.484338
0.507753
0.531037
0.552175
0.571023
0.587304
0.600131
0.609454
0.617012
0.624567
0.62842
0.6278
0.625731
0.624064
0.625053
0.627085
0.628462
0.625545
0.618698
0.609081
0.591873
0.56072
0.521453
0.503201
0.513978
0.537198
0.551372
0.555527
0.556166
0.555004
0.553935
0.55344
0.553445
0.554227
0.554083
0.54943
0.541371
0.535053
0.520512
0.526051
0.541118
0.558612
0.57083
0.577983
0.58351
0.589832
0.597501
0.606275
0.614449
0.621036
0.624094
0.625845
0.627267
0.628613
0.62956
0.629114
0.626435
0.621295
0.611849
0.594769
0.565269
0.527962
0.505707
0.503606
0.512686
0.534977
0.551835
0.557472
0.557911
0.556682
0.555098
0.553339
0.551824
0.55103
0.550919
0.548684
0.543435
0.538777
0.537724
0.541128
0.551527
0.560663
0.566667
0.569358
0.573302
0.579818
0.587616
0.596847
0.606154
0.614502
0.621295
0.626965
0.631049
0.632934
0.631753
0.628722
0.623285
0.612957
0.594157
0.564026
0.529598
0.509842
0.504401
0.504928
0.510205
0.52697
0.545458
0.55544
0.558079
0.557842
0.556794
0.554382
0.55141
0.548337
0.546386
0.545272
0.542276
0.538799
0.533271
0.535813
0.541897
0.546313
0.549255
0.552648
0.558425
0.565665
0.574186
0.584193
0.595852
0.608153
0.619713
0.62761
0.631212
0.631824
0.629522
0.622592
0.609304
0.587384
0.556502
0.52609
0.510893
0.505354
0.503369
0.503696
0.506589
0.516044
0.531549
0.544202
0.550437
0.552985
0.553946
0.553491
0.551199
0.546864
0.54303
0.541269
0.540566
0.538659
0.527051
0.525489
0.526509
0.528199
0.531645
0.537146
0.544092
0.551437
0.559483
0.569565
0.582604
0.597147
0.610673
0.619548
0.623453
0.621738
0.6132
0.596924
0.572813
0.544297
0.520593
0.509713
0.504842
0.502798
0.50182
0.501151
0.50212
0.506096
0.51575
0.527644
0.535992
0.541253
0.544905
0.547675
0.548006
0.545306
0.541418
0.537804
0.538174
0.536526
0.522371
0.518763
0.515601
0.516011
0.519731
0.524427
0.529355
0.535083
0.542077
0.551394
0.563719
0.577612
0.590559
0.597894
0.598393
0.590512
0.574278
0.553039
0.530879
0.515308
0.508212
0.504357
0.502447
0.501188
0.500054
0.498917
0.498348
0.499616
0.503991
0.512121
0.521162
0.528224
0.533548
0.538923
0.541908
0.541535
0.54018
0.537843
0.53826
0.53509
0.518276
0.518628
0.516029
0.513074
0.51377
0.515028
0.516413
0.518953
0.524373
0.533844
0.546468
0.559807
0.569989
0.573468
0.566931
0.552073
0.533866
0.518659
0.510529
0.506507
0.503915
0.502377
0.501151
0.499844
0.49853
0.497346
0.496541
0.496572
0.49805
0.502357
0.509435
0.518234
0.525101
0.532214
0.536734
0.53773
0.537877
0.535921
0.534787
0.534992
0.518276
0.518628
0.516029
0.513074
0.51377
0.515028
0.516413
0.518953
0.524373
0.533844
0.546468
0.559807
0.569989
0.573468
0.566931
0.552073
0.533866
0.518659
0.510529
0.506507
0.503915
0.502377
0.501151
0.499844
0.49853
0.497346
0.496541
0.496572
0.49805
0.502357
0.509435
0.518234
0.525101
0.532214
0.536734
0.53773
0.537877
0.535921
0.534787
0.534992
0.522371
0.518763
0.515601
0.516011
0.519731
0.524427
0.529355
0.535083
0.542077
0.551394
0.563719
0.577612
0.590559
0.597894
0.598393
0.590512
0.574278
0.553039
0.530879
0.515308
0.508212
0.504357
0.502447
0.501188
0.500054
0.498917
0.498348
0.499616
0.503991
0.512121
0.521162
0.528224
0.533548
0.538923
0.541908
0.541535
0.54018
0.537843
0.53826
0.53509
0.527051
0.525489
0.526509
0.528199
0.531645
0.537146
0.544092
0.551437
0.559483
0.569565
0.582604
0.597147
0.610673
0.619548
0.623453
0.621738
0.6132
0.596924
0.572813
0.544297
0.520593
0.509713
0.504842
0.502798
0.50182
0.501151
0.50212
0.506096
0.51575
0.527644
0.535992
0.541253
0.544905
0.547675
0.548006
0.545306
0.541418
0.537804
0.538174
0.536526
0.533271
0.535813
0.541897
0.546313
0.549255
0.552648
0.558425
0.565665
0.574186
0.584193
0.595852
0.608153
0.619713
0.62761
0.631212
0.631824
0.629522
0.622592
0.609304
0.587384
0.556502
0.52609
0.510893
0.505354
0.503369
0.503696
0.506589
0.516044
0.531549
0.544202
0.550437
0.552985
0.553946
0.553491
0.551199
0.546864
0.54303
0.541269
0.540566
0.538659
0.537724
0.541128
0.551527
0.560663
0.566667
0.569358
0.573302
0.579818
0.587616
0.596847
0.606154
0.614502
0.621295
0.626965
0.631049
0.632934
0.631753
0.628722
0.623285
0.612957
0.594157
0.564026
0.529598
0.509842
0.504401
0.504928
0.510205
0.52697
0.545458
0.55544
0.558079
0.557842
0.556794
0.554382
0.55141
0.548337
0.546386
0.545272
0.542276
0.538799
0.520512
0.526051
0.541118
0.558612
0.57083
0.577983
0.58351
0.589832
0.597501
0.606275
0.614449
0.621036
0.624094
0.625845
0.627267
0.628613
0.62956
0.629114
0.626435
0.621295
0.611849
0.594769
0.565269
0.527962
0.505707
0.503606
0.512686
0.534977
0.551835
0.557472
0.557911
0.556682
0.555098
0.553339
0.551824
0.55103
0.550919
0.548684
0.543435
0.538777
0.461487
0.468001
0.484338
0.507753
0.531037
0.552175
0.571023
0.587304
0.600131
0.609454
0.617012
0.624567
0.62842
0.6278
0.625731
0.624064
0.625053
0.627085
0.628462
0.625545
0.618698
0.609081
0.591873
0.56072
0.521453
0.503201
0.513978
0.537198
0.551372
0.555527
0.556166
0.555004
0.553935
0.55344
0.553445
0.554227
0.554083
0.54943
0.541371
0.535053
0.407018
0.408355
0.414298
0.427015
0.444024
0.465103
0.488682
0.512628
0.536302
0.559247
0.579906
0.596836
0.613457
0.624301
0.626583
0.625855
0.623622
0.624376
0.626714
0.627172
0.624288
0.617251
0.605401
0.586108
0.55294
0.519697
0.518409
0.537065
0.549986
0.553959
0.554925
0.554383
0.554102
0.554303
0.555432
0.556953
0.555188
0.547329
0.536439
0.528263
0.371403
0.371171
0.371414
0.373191
0.377256
0.383613
0.39254
0.404559
0.421606
0.441222
0.4617
0.482405
0.509641
0.544369
0.579794
0.603764
0.622972
0.626128
0.626039
0.626111
0.625906
0.622667
0.614072
0.600699
0.5808
0.554262
0.536973
0.541369
0.549931
0.553813
0.554455
0.554113
0.554318
0.555148
0.556762
0.558091
0.554576
0.544035
0.531303
0.521376
0.349772
0.349598
0.348859
0.347832
0.346725
0.346536
0.347169
0.34935
0.353038
0.358783
0.367297
0.379131
0.398717
0.425624
0.460694
0.507828
0.558655
0.594946
0.615872
0.62345
0.62499
0.622654
0.617303
0.609937
0.597218
0.586571
0.57486
0.555588
0.551468
0.553762
0.554342
0.553873
0.554314
0.555488
0.557255
0.557985
0.552343
0.539164
0.524596
0.513059
0.334145
0.334144
0.333997
0.333572
0.332697
0.331388
0.330075
0.329817
0.330158
0.332103
0.337554
0.346559
0.35985
0.377682
0.398566
0.424909
0.457016
0.505327
0.555341
0.588768
0.605412
0.611502
0.614851
0.610976
0.602559
0.604973
0.617664
0.588318
0.558542
0.555212
0.554238
0.553378
0.553655
0.555295
0.557242
0.557412
0.548488
0.532446
0.516287
0.504694
0.321888
0.321931
0.321901
0.321748
0.321506
0.320861
0.319791
0.319619
0.319496
0.320162
0.324082
0.33082
0.341177
0.356256
0.375426
0.400334
0.422888
0.448529
0.490865
0.525363
0.550376
0.573672
0.587727
0.594345
0.596626
0.605722
0.643008
0.62986
0.574213
0.556073
0.553086
0.551797
0.551605
0.553205
0.554684
0.55115
0.538501
0.52136
0.506436
0.498739
0.313482
0.313577
0.313624
0.313478
0.313188
0.312765
0.311873
0.31119
0.310652
0.310134
0.312116
0.316935
0.325438
0.342119
0.362469
0.384052
0.409236
0.432863
0.460184
0.499037
0.523936
0.530277
0.537804
0.551787
0.562674
0.578178
0.639042
0.663593
0.598468
0.553586
0.547194
0.544503
0.543885
0.544629
0.543813
0.536244
0.522356
0.508717
0.499472
0.49528
0.306907
0.306984
0.307073
0.30681
0.306316
0.305892
0.305004
0.304627
0.304557
0.303691
0.304997
0.309461
0.315681
0.327918
0.350857
0.374474
0.39926
0.424372
0.44773
0.48221
0.516199
0.52485
0.523546
0.519442
0.516829
0.524303
0.592414
0.667815
0.613186
0.544073
0.532247
0.528515
0.527268
0.526631
0.523292
0.515992
0.507277
0.5004
0.495861
0.494117
0.301028
0.301039
0.301069
0.300856
0.300271
0.300245
0.300188
0.299923
0.300018
0.299231
0.299512
0.303604
0.310331
0.319971
0.341821
0.368672
0.393466
0.419855
0.442933
0.470373
0.508466
0.52857
0.527655
0.519377
0.509102
0.498745
0.525833
0.623762
0.603972
0.522749
0.500904
0.498982
0.499842
0.50194
0.503153
0.502314
0.500087
0.496788
0.494786
0.493773
0.296179
0.296205
0.296346
0.296511
0.296434
0.296765
0.297272
0.296839
0.297142
0.297995
0.297885
0.300389
0.305579
0.311613
0.328528
0.363818
0.392073
0.418902
0.441365
0.465011
0.499477
0.530568
0.534473
0.528492
0.514972
0.497628
0.505144
0.583872
0.588087
0.503597
0.469603
0.472488
0.480151
0.488986
0.495466
0.497528
0.497063
0.495827
0.494486
0.493608
0.293899
0.293541
0.292353
0.292483
0.293017
0.293818
0.294833
0.29562
0.296723
0.29878
0.299654
0.300748
0.304529
0.309737
0.322909
0.361538
0.39546
0.423817
0.444356
0.464338
0.494947
0.530731
0.541653
0.537701
0.524377
0.503904
0.503396
0.57467
0.59366
0.509362
0.461726
0.465376
0.475279
0.48535
0.492856
0.496172
0.496687
0.495627
0.494247
0.493423
0.295401
0.295232
0.296751
0.298643
0.300297
0.301734
0.303226
0.304835
0.306769
0.309648
0.312518
0.314049
0.315252
0.317205
0.325513
0.365297
0.407703
0.439095
0.459168
0.476175
0.501051
0.5349
0.549841
0.546971
0.533929
0.512774
0.502923
0.573172
0.605645
0.522082
0.461266
0.463483
0.473896
0.484776
0.492769
0.496215
0.496673
0.495398
0.494029
0.493277
0.310879
0.310971
0.310093
0.310265
0.31188
0.31459
0.318316
0.32237
0.325837
0.329437
0.333402
0.333266
0.332803
0.33478
0.343239
0.382999
0.427369
0.45784
0.475887
0.490323
0.511081
0.539312
0.554503
0.552687
0.540842
0.520066
0.502826
0.572215
0.616151
0.534444
0.463476
0.46394
0.474397
0.485259
0.493051
0.496237
0.496536
0.495109
0.493835
0.493231
0.400889
0.395825
0.390564
0.389315
0.390143
0.38986
0.388874
0.387303
0.385242
0.383178
0.381487
0.377502
0.372501
0.373525
0.381973
0.42637
0.471916
0.496255
0.508287
0.516926
0.530043
0.548808
0.560053
0.55959
0.553411
0.534408
0.512034
0.577015
0.623739
0.542731
0.465512
0.464464
0.474836
0.485624
0.493173
0.496094
0.496241
0.49477
0.493647
0.493238
)
;

boundaryField
{
    inlet
    {
        type            fixedValue;
        value           uniform 1;
    }
    outlet
    {
        type            zeroGradient;
    }
    obstacle
    {
        type            zeroGradient;
    }
    empty
    {
        type            empty;
    }
}


// ************************************************************************* //
