/*--------------------------------*- C++ -*----------------------------------*\
| =========                 |                                                 |
| \\      /  F ield         | OpenFOAM: The Open Source CFD Toolbox           |
|  \\    /   O peration     | Version:  v1912                                 |
|   \\  /    A nd           | Website:  www.openfoam.com                      |
|    \\/     M anipulation  |                                                 |
\*---------------------------------------------------------------------------*/
FoamFile
{
    version     2.0;
    format      ascii;
    class       volScalarField;
    location    "0.82";
    object      T;
}
// * * * * * * * * * * * * * * * * * * * * * * * * * * * * * * * * * * * * * //

dimensions      [0 0 0 1 0 0 0];


internalField   nonuniform List<scalar> 
4800
(
11.6559
8.85457
9.34462
9.77754
10.1984
10.6741
10.9752
10.8885
10.1668
9.60786
9.69879
10.0152
10.4053
10.8191
11.2252
11.6151
12.0022
12.4147
12.8684
13.3601
13.8609
14.3667
14.7896
15.0924
15.343
15.1325
14.2397
13.9941
14.2052
14.5698
14.9878
15.4174
15.8515
16.2852
16.7159
17.131
17.5203
17.9038
18.3115
18.7314
11.6569
8.87285
9.35279
9.78232
10.187
10.6515
10.9522
10.8983
10.2018
9.63377
9.73431
10.042
10.4204
10.822
11.2207
11.608
12.0028
12.4242
12.8832
13.3618
13.8429
14.331
14.7696
15.0904
15.338
15.1081
14.218
13.9653
14.1897
14.5721
15.0048
15.4481
15.882
16.3041
16.7181
17.1253
17.5311
17.9397
18.3582
18.8007
11.6579
8.90819
9.37046
9.78274
10.1518
10.5986
10.902
10.9137
10.2714
9.67344
9.79119
10.0809
10.4311
10.8075
11.1956
11.5904
12.0051
12.4437
12.9025
13.3625
13.8197
14.2849
14.7478
15.0926
15.3331
15.0758
14.1987
13.9475
14.1974
14.6085
15.0556
15.5028
15.9262
16.3257
16.72
17.1337
17.5708
18.0106
18.4474
18.8901
11.658
8.94789
9.38706
9.77361
10.1115
10.5328
10.8428
10.9346
10.3658
9.73452
9.8674
10.1351
10.4543
10.7977
11.1709
11.5778
12.0155
12.4683
12.9243
13.3687
13.8077
14.2378
14.7028
15.0732
15.3188
15.0523
14.1951
13.9409
14.2065
14.6495
15.1062
15.5516
15.9619
16.3469
16.7431
17.1737
17.632
18.104
18.5682
19.0158
11.6574
8.98014
9.40412
9.76625
10.0825
10.4671
10.7761
10.9453
10.4647
9.81739
9.9491
10.1951
10.4819
10.797
11.1598
11.5734
12.0275
12.4954
12.9487
13.3851
13.802
14.2016
14.6473
15.0272
15.2987
15.05
14.223
13.9658
14.2319
14.679
15.1379
15.5801
15.991
16.3875
16.8027
17.2524
17.7335
18.2245
18.6952
19.1293
11.6565
9.00698
9.41955
9.76741
10.062
10.4146
10.7175
10.9402
10.5606
9.91967
10.0219
10.2619
10.524
10.8205
11.1749
11.592
12.0521
12.5264
12.9752
13.4051
13.8031
14.1761
14.594
14.9672
15.2779
15.076
14.291
14.0323
14.2768
14.6991
15.1498
15.5944
16.0284
16.4601
16.9036
17.3751
17.8684
18.3549
18.8079
19.22
11.6549
9.03021
9.42759
9.77482
10.0607
10.3946
10.6833
10.9284
10.642
10.0223
10.083
10.3253
10.5826
10.8739
11.2211
11.6356
12.0946
12.5615
13.0009
13.4254
13.8132
14.1647
14.5506
14.9125
15.2608
15.1262
14.3914
14.1338
14.3549
14.7318
15.1575
15.6049
16.0696
16.5475
17.0346
17.5288
18.0197
18.4858
18.9149
19.3171
11.6534
9.06372
9.43377
9.77079
10.0548
10.3865
10.6678
10.9228
10.6985
10.0965
10.1208
10.3724
10.6405
10.9454
11.2974
11.7095
12.1551
12.6052
13.0352
13.4596
13.837
14.1666
14.5289
14.8837
15.2529
15.187
14.5055
14.2352
14.4315
14.7722
15.1805
15.6309
16.1227
16.6487
17.1799
17.6882
18.1696
18.6177
19.0357
19.4366
11.653
9.11214
9.44188
9.75506
10.0391
10.3814
10.6749
10.9301
10.7282
10.1344
10.1269
10.4016
10.6896
11.0203
11.3908
11.8015
12.2313
12.6651
13.0858
13.5041
13.8699
14.1823
14.5321
14.8825
15.2628
15.2477
14.6118
14.3275
14.5095
14.8383
15.2423
15.6965
16.2008
16.753
17.3162
17.8365
18.3121
18.7536
19.1736
19.5781
11.6528
9.15546
9.45225
9.73717
10.0263
10.3859
10.6966
10.9409
10.7436
10.153
10.111
10.4007
10.7303
11.0915
11.4805
11.8927
12.3147
12.7383
13.151
13.559
13.9143
14.2202
14.5687
14.9175
15.3034
15.3137
14.7125
14.4184
14.6024
14.9346
15.3438
15.8048
16.3144
16.8716
17.4467
17.9777
18.4551
18.9028
19.3286
19.7296
11.6516
9.18424
9.4601
9.73757
10.0187
10.4044
10.7288
10.9601
10.7553
10.1685
10.0876
10.3823
10.7537
11.1483
11.556
11.9702
12.3882
12.8104
13.2243
13.6231
13.9736
14.2884
14.6453
14.9978
15.3814
15.3972
14.8168
14.5118
14.7084
15.0564
15.4795
15.9467
16.4575
17.0118
17.5854
18.128
18.6153
19.0674
19.4864
19.8708
11.6492
9.19816
9.46151
9.74286
10.0274
10.4255
10.7602
10.9782
10.7611
10.1735
10.0616
10.3562
10.7652
11.1846
11.6014
12.0127
12.4291
12.8567
13.2816
13.6934
14.0571
14.3883
14.7588
15.1168
15.4924
15.5041
14.9337
14.6161
14.8252
15.1963
15.6414
16.1169
16.6237
17.1691
17.7372
18.2925
18.7963
19.2444
19.6433
19.9991
11.6464
9.20078
9.46096
9.75126
10.0455
10.448
10.785
10.9845
10.7544
10.1641
10.0401
10.3387
10.7685
11.2028
11.6137
12.0174
12.4351
12.8728
13.3156
13.7588
14.1611
14.5205
14.9066
15.2698
15.63
15.6353
15.0674
14.7315
14.9529
15.3522
15.8239
16.3109
16.8153
17.3489
17.9044
18.4584
18.9702
19.4132
19.7876
20.0916
11.645
9.19092
9.4601
9.76294
10.0689
10.4748
10.8024
10.9798
10.7426
10.1448
10.0284
10.3398
10.7755
11.2059
11.6085
12.0066
12.4268
12.8739
13.3363
13.8101
14.2656
14.6745
15.0746
15.4396
15.7766
15.7858
15.2165
14.8516
15.0925
15.519
16.0173
16.5224
17.0278
17.5387
18.0649
18.5979
19.1055
19.5458
19.8867
20.132
11.6445
9.16383
9.45664
9.77972
10.1016
10.505
10.8175
10.9748
10.7169
10.1082
10.02
10.3488
10.7923
11.2085
11.5947
11.983
12.4042
12.8619
13.3466
13.8461
14.3627
14.8327
15.2421
15.61
15.9246
15.9454
15.375
14.9749
15.2321
15.6915
16.2208
16.7525
17.2572
17.7261
18.1992
18.6944
19.1806
19.6058
19.9363
20.168
11.6434
9.11463
9.4462
9.79673
10.1405
10.5413
10.8332
10.9671
10.6742
10.0514
10.0123
10.3632
10.8121
11.2161
11.5912
11.968
12.3812
12.8405
13.3463
13.8742
14.4495
14.9777
15.3943
15.7651
16.0616
16.105
15.5362
15.0903
15.3747
15.8807
16.4489
16.9985
17.4764
17.8973
18.3087
18.7469
19.1954
19.6192
19.9811
20.2308
11.6434
9.04932
9.42894
9.80912
10.1752
10.5765
10.8505
10.9573
10.6201
9.98325
10.0011
10.3759
10.8276
11.2271
11.5963
11.9665
12.3715
12.8254
13.3406
13.8939
14.5059
15.0905
15.5217
15.8893
16.1655
16.2516
15.6968
15.213
15.5401
16.11
16.6911
17.2095
17.6424
18.0309
18.4099
18.7886
19.1887
19.61
20.0047
20.3259
11.6439
8.97168
9.40804
9.81835
10.2021
10.6053
10.8653
10.9428
10.5575
9.91661
9.98783
10.3821
10.8347
11.2421
11.6161
11.985
12.3845
12.8282
13.3362
13.9018
14.531
15.1595
15.6165
15.9753
16.2353
16.3698
15.8485
15.3712
15.7381
16.336
16.8817
17.3484
17.7602
18.1416
18.4937
18.8382
19.1969
19.5984
20.0148
20.3903
11.6446
8.89225
9.38617
9.82173
10.2174
10.6216
10.8747
10.9295
10.4962
9.86323
9.97692
10.3821
10.8324
11.2514
11.6394
12.02
12.4198
12.8581
13.3544
13.915
14.5354
15.1725
15.6538
16.0253
16.2851
16.4669
15.9947
15.5561
15.9225
16.495
16.9941
17.4412
17.8459
18.2205
18.5688
18.9001
19.2213
19.5893
20.0089
20.4261
11.6454
8.8303
9.36745
9.81571
10.2135
10.622
10.8805
10.9225
10.4453
9.82951
9.97666
10.3831
10.8213
11.2546
11.66
12.0585
12.4658
12.9033
13.3903
13.9333
14.5238
15.1412
15.6439
16.041
16.3261
16.5661
16.1318
15.6978
16.0644
16.5917
17.0656
17.491
17.8961
18.2794
18.6415
18.9772
19.286
19.6127
20.0067
20.4278
11.648
8.79558
9.35484
9.79879
10.1883
10.608
10.8851
10.9273
10.4133
9.81535
9.98957
10.3821
10.803
11.2442
11.6707
12.0902
12.5097
12.9497
13.4274
13.9475
14.5007
15.0797
15.5981
16.0387
16.3753
16.6759
16.243
15.7786
16.151
16.6359
17.0852
17.5049
17.9212
18.3237
18.7079
19.06
19.3796
19.6965
20.0478
20.4139
11.6516
8.79491
9.35072
9.77712
10.1469
10.5784
10.8891
10.9477
10.4028
9.81996
10.0157
10.3741
10.7758
11.2186
11.6661
12.1084
12.5437
12.9886
13.4534
13.9471
14.4651
15.0018
15.5315
16.0413
16.4614
16.784
16.3117
15.8
16.1763
16.6352
17.0809
17.5049
17.9319
18.3519
18.7575
19.1324
19.4773
19.7997
20.103
20.3949
11.6583
8.81784
9.35401
9.75711
10.0964
10.5371
10.8926
10.9855
10.4126
9.8388
10.0456
10.3603
10.7444
11.1843
11.647
12.1111
12.5629
13.0107
13.4645
13.9344
14.4178
14.9218
15.4745
16.0583
16.5781
16.8677
16.3209
15.778
16.1431
16.6036
17.0674
17.5036
17.9369
18.3666
18.7828
19.1913
19.5724
19.8931
20.1542
20.378
11.6657
8.84897
9.36366
9.74048
10.0469
10.4899
10.8948
11.0325
10.4389
9.87554
10.067
10.3438
10.7162
11.1494
11.6194
12.0982
12.5623
13.0144
13.4651
13.9149
14.3607
14.8451
15.446
16.1074
16.7176
16.8973
16.2692
15.75
16.0682
16.547
17.0415
17.496
17.9383
18.3707
18.7931
19.224
19.6305
19.9553
20.1878
20.359
11.6705
8.88179
9.37176
9.72598
10.0049
10.4446
10.8951
11.0769
10.4695
9.92646
10.0692
10.331
10.6932
11.119
11.5901
12.0723
12.5442
13.0015
13.4554
13.8906
14.3076
14.7877
15.4388
16.1791
16.8427
16.8783
16.1673
15.6893
15.9679
16.4717
16.9951
17.4708
17.9221
18.3554
18.7887
19.2335
19.6482
19.9754
20.2043
20.3531
11.6737
8.91093
9.37481
9.71007
9.96948
10.4077
10.8993
11.1146
10.4932
9.96439
10.0588
10.3183
10.6723
11.0915
11.5621
12.0432
12.5153
12.9748
13.4323
13.8614
14.2629
14.7511
15.4228
16.242
16.9185
16.8335
16.0465
15.6121
15.8605
16.3802
16.9312
17.4272
17.886
18.3313
18.7762
19.22
19.6189
19.9375
20.1661
20.3226
11.6761
8.93808
9.37025
9.68899
9.94323
10.3933
10.9141
11.1318
10.4988
9.98051
10.0448
10.3017
10.6514
11.0665
11.5368
12.0155
12.485
12.9414
13.3984
13.8264
14.2277
14.7352
15.4238
16.2725
16.9194
16.7549
15.9191
15.5238
15.7526
16.275
16.8399
17.3573
17.8415
18.3068
18.754
19.1717
19.538
19.834
20.0672
20.2538
11.676
8.95437
9.35935
9.66786
9.93195
10.4062
10.9296
11.1163
10.4868
9.98132
10.0385
10.2852
10.6311
11.0443
11.5132
11.9891
12.454
12.9035
13.354
13.7855
14.2039
14.7384
15.436
16.2601
16.8327
16.6272
15.7651
15.4239
15.6521
16.1686
16.732
17.2707
17.7815
18.2573
18.693
19.079
19.4027
19.6792
19.919
20.1454
11.6781
8.96185
9.34539
9.65452
9.94616
10.4391
10.9293
11.0662
10.4577
9.96293
10.0292
10.2694
10.6097
11.0198
11.4856
11.9588
12.4172
12.8569
13.3001
13.7407
14.184
14.7584
15.4476
16.1903
16.6492
16.4463
15.5734
15.2997
15.5385
16.0451
16.6029
17.1521
17.6774
18.1559
18.5725
18.9211
19.2237
19.4908
19.7425
20.021
11.6776
8.96285
9.33322
9.65728
9.98831
10.4784
10.9027
10.9935
10.4081
9.92167
10.0139
10.2468
10.5814
10.9872
11.4479
11.9172
12.366
12.7952
13.2363
13.6884
14.1744
14.7735
15.4301
16.0419
16.4004
16.1956
15.3202
15.1232
15.3807
15.8692
16.4108
16.9594
17.4913
17.9644
18.3616
18.6936
18.9868
19.2638
19.5439
19.8847
11.6757
8.96358
9.32923
9.6745
10.0462
10.5097
10.8558
10.9054
10.3444
9.8618
9.98762
10.2217
10.5499
10.9485
11.3984
11.8583
12.2949
12.717
13.1613
13.6384
14.1553
14.7606
15.3548
15.811
16.1054
15.8806
15.0153
14.8853
15.1673
15.6258
16.1379
16.6699
17.1922
17.6623
18.0518
18.3722
18.6708
18.9751
19.3036
19.7122
11.6725
8.97037
9.3361
9.70503
10.1012
10.5261
10.8064
10.8253
10.2837
9.80209
9.95539
10.2014
10.5238
10.9088
11.3388
11.7813
12.2081
12.632
13.0852
13.5801
14.1121
14.6969
15.2033
15.5393
15.7736
15.5075
14.6599
14.5758
14.8887
15.3185
15.793
16.2912
16.7855
17.2428
17.6292
17.9501
18.2723
18.6213
19.0146
19.4811
11.6683
8.99263
9.35232
9.73432
10.1311
10.5264
10.7642
10.7647
10.2336
9.74868
9.917
10.1799
10.5024
10.8705
11.2726
11.693
12.1173
12.5507
13.0143
13.5085
14.0304
14.5664
14.9868
15.2548
15.4324
15.096
14.2517
14.2039
14.5402
14.958
15.3998
15.8545
16.3048
16.7321
17.1079
17.4442
17.8073
18.2141
18.6763
19.197
11.6628
9.03137
9.37772
9.75309
10.1352
10.5123
10.7321
10.7271
10.1965
9.69895
9.87229
10.158
10.4809
10.8325
11.2067
11.6079
12.0334
12.4831
12.9525
13.4281
13.9176
14.3835
14.7537
14.9804
15.0989
14.6753
13.8327
13.8008
14.1386
14.5565
14.9876
15.4009
15.8017
16.1832
16.5388
16.901
17.3109
17.7746
18.3056
18.8602
11.6567
9.08028
9.4034
9.75675
10.1175
10.4893
10.7112
10.7127
10.173
9.65461
9.82433
10.1287
10.4548
10.795
11.149
11.536
11.9689
12.433
12.8989
13.3492
13.7891
14.1817
14.5224
14.7264
14.7925
14.2862
13.4566
13.4147
13.7203
14.1497
14.5784
14.9715
15.3278
15.6615
15.9995
16.3845
16.8277
17.3558
17.9277
18.4784
11.65
9.13106
9.42349
9.7486
10.0827
10.4585
10.7005
10.714
10.1614
9.62288
9.77753
10.0873
10.4204
10.7584
11.1063
11.4916
11.9294
12.3972
12.8496
13.2762
13.6696
14.0013
14.3084
14.5011
14.5298
13.9699
13.1674
13.1043
13.3575
13.7734
14.2035
14.5924
14.9263
15.2307
15.5618
15.9536
16.44
16.9995
17.5707
18.0868
11.6438
9.17451
9.43885
9.73474
10.0431
10.4261
10.6925
10.721
10.1602
9.61036
9.74057
10.0395
10.3788
10.7253
11.0852
11.4787
11.9133
12.37
12.8076
13.2174
13.5817
13.8749
14.1397
14.3129
14.3208
13.7386
12.9648
12.9025
13.1054
13.4757
13.8822
14.2703
14.6152
14.9365
15.2712
15.6741
16.1772
16.7325
17.2721
17.7409
11.6391
9.20562
9.45032
9.72332
10.0088
10.3989
10.6856
10.7266
10.1629
9.61071
9.71431
9.9938
10.3363
10.7038
11.0873
11.4894
11.9117
12.3459
12.7681
13.168
13.5218
13.7959
14.0248
14.1646
14.1637
13.5946
12.8512
12.7963
12.977
13.2917
13.6432
14.0066
14.3658
14.7239
15.1102
15.5562
16.0508
16.5624
17.0508
17.4854
11.6361
9.225
9.45674
9.71202
9.98112
10.376
10.6819
10.733
10.1667
9.61628
9.69645
9.95699
10.301
10.6923
11.1056
11.5149
11.9161
12.3221
12.7348
13.1318
13.4852
13.7602
13.9635
14.0681
14.0627
13.514
12.7932
12.7631
12.9347
13.209
13.5062
13.8219
14.1784
14.594
15.0645
15.5562
16.0296
16.4833
16.9126
17.3349
11.6344
9.2335
9.45863
9.7042
9.96471
10.361
10.6768
10.7347
10.1702
9.62351
9.68761
9.93726
10.2776
10.6844
11.1222
11.5412
11.9359
12.324
12.7252
13.1165
13.4714
13.7482
13.9397
14.0276
14.0172
13.4785
12.7704
12.7575
12.9372
13.1846
13.4537
13.7381
14.0909
14.5411
15.0683
15.5848
16.0631
16.4893
16.8765
17.2794
19.2028
19.6971
20.2791
20.8773
21.329
21.4189
21.2037
19.9705
18.8532
18.794
18.9234
19.1916
19.5232
19.8073
20.012
20.146
20.2097
20.2302
20.2285
20.2523
20.3415
20.4829
20.6291
20.7326
20.7939
20.8722
21.0477
21.2811
21.2977
21.1362
20.3697
19.3101
19.0247
18.9646
18.9914
19.051
19.0714
19.064
19.062
19.0984
19.1951
19.312
19.4262
19.5157
19.5655
19.5666
19.5616
19.6206
19.6932
19.7026
19.594
19.2442
18.5485
18.0848
18.0468
18.0958
18.1632
18.2241
18.2557
18.2874
18.3665
18.5193
18.7368
18.9621
19.1346
19.26
19.3802
19.4895
19.5241
19.4886
19.3444
19.0567
18.5025
18.1752
18.3284
18.609
18.8914
19.1195
19.2575
19.4442
19.2923
19.8005
20.3469
20.849
21.1874
21.1965
20.9447
19.7538
18.9018
18.903
19.0618
19.3277
19.6111
19.8374
19.9983
20.1128
20.1635
20.1843
20.2177
20.2797
20.3799
20.5274
20.6752
20.7837
20.8451
20.9351
21.1007
21.2909
21.2085
20.9284
20.0714
19.1633
18.9959
18.9536
18.9951
19.0549
19.0774
19.0786
19.0916
19.1339
19.2114
19.3149
19.4153
19.5043
19.5517
19.5552
19.5734
19.65
19.7074
19.6804
19.529
19.1077
18.4345
18.1034
18.0819
18.1396
18.2259
18.3032
18.3554
18.4185
18.5436
18.7256
18.915
19.0699
19.197
19.2998
19.3945
19.5099
19.5693
19.5443
19.4387
19.1894
18.654
18.2594
18.262
18.4462
18.6883
18.9269
19.0924
19.2487
19.3792
19.8645
20.3624
20.8466
21.1677
21.2169
20.9219
19.7032
18.984
19.031
19.2005
19.4263
19.6115
19.7531
19.8711
19.9671
20.0428
20.1115
20.1882
20.2783
20.3813
20.4993
20.6099
20.6971
20.7663
20.9105
21.1269
21.2401
21.1414
20.7673
19.7819
19.0066
18.8981
18.8914
18.9629
19.0421
19.0777
19.093
19.1108
19.1414
19.1925
19.2678
19.3519
19.4355
19.4896
19.5153
19.5552
19.6665
19.7276
19.6575
19.4945
19.0443
18.387
18.1548
18.1444
18.2084
18.3225
18.4343
18.5298
18.6292
18.7453
18.872
18.9953
19.1201
19.2352
19.3286
19.4125
19.5244
19.644
19.7168
19.7062
19.469
18.8178
18.3159
18.2346
18.2741
18.4138
18.6428
18.8577
19.0195
19.4701
19.9136
20.3718
20.8318
21.1309
21.2168
20.9206
19.7838
19.1329
19.1786
19.3109
19.4738
19.598
19.6527
19.6965
19.7731
19.8878
20.0157
20.1403
20.2543
20.3511
20.4305
20.5122
20.5989
20.7149
20.9298
21.1517
21.1649
21.0251
20.4995
19.4395
18.86
18.7843
18.818
18.9165
19.0157
19.0713
19.0991
19.1147
19.1281
19.1535
19.204
19.2684
19.3494
19.4307
19.4988
19.5775
19.7027
19.7506
19.6572
19.4891
18.9982
18.3838
18.2307
18.2317
18.3169
18.4746
18.6456
18.7821
18.8663
18.9272
18.9913
19.0598
19.1427
19.2338
19.3247
19.4256
19.567
19.7477
19.8553
19.8507
19.5636
18.8842
18.3766
18.2533
18.2241
18.2931
18.4315
18.5774
18.7045
19.5432
19.9462
20.3797
20.8368
21.145
21.269
21.0054
19.9796
19.279
19.2856
19.3544
19.4455
19.51
19.5265
19.5379
19.5941
19.7237
19.9065
20.0883
20.2072
20.2791
20.3258
20.3952
20.5025
20.6731
20.911
21.1027
21.0718
20.8522
20.1833
19.1191
18.7123
18.6649
18.7309
18.8557
18.9817
19.06
19.0903
19.0878
19.0843
19.1015
19.143
19.1993
19.2696
19.3684
19.4849
19.6128
19.7537
19.7936
19.7022
19.5258
18.9888
18.4384
18.3544
18.3711
18.481
18.6594
18.8311
18.9498
19.021
19.0448
19.0483
19.0719
19.1264
19.2022
19.298
19.4292
19.6392
19.836
19.9205
19.8837
19.5954
18.8928
18.3814
18.2573
18.2046
18.241
18.3399
18.4511
18.543
19.6089
19.9852
20.4085
20.8602
21.1929
21.3351
21.1114
20.2058
19.4114
19.3455
19.3384
19.3807
19.418
19.4254
19.4345
19.49
19.6165
19.8092
20.0084
20.1425
20.1905
20.218
20.2874
20.4234
20.6445
20.8875
20.9964
20.9219
20.616
19.8266
18.8403
18.5717
18.5691
18.6649
18.8177
18.9511
19.0288
19.0522
19.0435
19.0457
19.072
19.1165
19.1736
19.2381
19.3359
19.4844
19.6664
19.8304
19.8853
19.8133
19.5897
18.9973
18.5141
18.4551
18.4795
18.5998
18.7634
18.9134
19.0199
19.0716
19.0771
19.0628
19.0508
19.061
19.1293
19.2654
19.4675
19.7052
19.8754
19.9388
19.8736
19.5717
18.8976
18.4037
18.2712
18.2193
18.2562
18.3393
18.4087
18.4815
19.6882
20.0546
20.4727
20.9125
21.251
21.4102
21.2142
20.4041
19.506
19.3556
19.3122
19.3265
19.3588
19.3722
19.3884
19.4481
19.5597
19.7213
19.8979
20.0366
20.1033
20.1334
20.2099
20.3643
20.5959
20.8283
20.8618
20.7134
20.3417
19.4831
18.64
18.4723
18.521
18.6429
18.7933
18.9035
18.9606
18.9866
19.0072
19.0362
19.0783
19.1289
19.1824
19.2421
19.3371
19.5045
19.7458
19.9367
20.004
19.9385
19.6375
18.9819
18.5478
18.4953
18.5333
18.6529
18.7998
18.9091
18.9888
19.0355
19.0374
19.0117
18.9915
18.9934
19.0637
19.2386
19.4951
19.7369
19.8999
19.9259
19.832
19.5258
18.8723
18.4244
18.3124
18.2666
18.3051
18.3846
18.4463
18.5123
19.8006
20.1664
20.5711
20.9798
21.2866
21.4474
21.2758
20.547
19.5781
19.357
19.2992
19.3005
19.3363
19.3655
19.392
19.442
19.5319
19.6447
19.7714
19.9007
19.9981
20.0676
20.1643
20.3233
20.5345
20.7034
20.697
20.4724
20.054
19.1996
18.5286
18.4414
18.5172
18.6276
18.7489
18.8295
18.8791
18.9333
18.999
19.0658
19.1269
19.1825
19.226
19.273
19.3675
19.5546
19.8138
20.0192
20.1039
20.0214
19.618
18.9219
18.549
18.5001
18.5596
18.6696
18.7808
18.8526
18.8857
18.9223
18.9472
18.9477
18.9376
18.9579
19.0421
19.2224
19.471
19.7068
19.8999
19.9299
19.7953
19.4729
18.8267
18.428
18.3535
18.3365
18.3785
18.4572
18.5144
18.5758
19.9442
20.2976
20.649
21.0121
21.2843
21.4394
21.3071
20.6475
19.6349
19.3361
19.2667
19.2802
19.341
19.3923
19.4277
19.4637
19.5101
19.5625
19.6459
19.7675
19.9002
20.0178
20.1277
20.2762
20.4347
20.5137
20.4809
20.2401
19.8002
19.0298
18.4983
18.4605
18.5294
18.6026
18.6894
18.7625
18.8307
18.9146
19.0211
19.1315
19.2186
19.272
19.3013
19.3287
19.4004
19.5698
19.8224
20.0335
20.1387
20.0247
19.542
18.8316
18.5342
18.4918
18.5541
18.6471
18.7137
18.7416
18.7522
18.7748
18.8155
18.866
18.9148
18.9739
19.0736
19.2225
19.4168
19.6462
19.8597
19.9254
19.781
19.4095
18.7653
18.4159
18.365
18.3965
18.4654
18.5477
18.6012
18.6601
20.0887
20.4065
20.677
20.9913
21.2408
21.4003
21.3094
20.7016
19.675
19.2919
19.2113
19.249
19.3451
19.4326
19.4851
19.5049
19.5008
19.5068
19.5568
19.6694
19.8259
19.9716
20.0798
20.19
20.2662
20.2626
20.2116
20.0194
19.6208
18.9833
18.5556
18.5194
18.547
18.5882
18.6557
18.7356
18.8286
18.9449
19.0918
19.2294
19.3119
19.3494
19.3637
19.3817
19.4378
19.5593
19.7818
19.9715
20.0854
19.9668
19.4323
18.7327
18.4982
18.457
18.5085
18.5722
18.6154
18.6199
18.62
18.6446
18.7153
18.8249
18.9363
19.0559
19.1307
19.2192
19.3518
19.5676
19.7861
19.885
19.7632
19.345
18.6994
18.3838
18.3545
18.4268
18.5313
18.633
18.6953
18.756
20.209
20.474
20.6621
20.9074
21.162
21.3353
21.2801
20.7128
19.6883
19.2388
19.1538
19.2162
19.3478
19.4691
19.5317
19.5359
19.5112
19.4932
19.5158
19.6058
19.7567
19.9024
19.991
20.0397
20.0429
19.9852
19.9383
19.8244
19.5538
19.0495
18.6681
18.5979
18.5736
18.5986
18.6713
18.7637
18.8768
19.0168
19.1639
19.2774
19.3527
19.3821
19.3848
19.4009
19.4521
19.5578
19.7189
19.8471
19.946
19.8443
19.2973
18.6365
18.4405
18.3937
18.4342
18.4857
18.5206
18.524
18.5255
18.5632
18.6594
18.8262
19.0103
19.1381
19.1932
19.2242
19.3116
19.4988
19.7075
19.8116
19.7171
19.2892
18.6391
18.3446
18.3245
18.4168
18.5401
18.6639
18.7415
18.8053
20.292
20.4762
20.6163
20.8124
21.0607
21.2351
21.2169
20.6868
19.681
19.1822
19.1037
19.1832
19.3359
19.4817
19.5491
19.5379
19.4997
19.4699
19.4822
19.5536
19.6745
19.7919
19.8462
19.8398
19.7749
19.6968
19.6928
19.7051
19.5955
19.1841
18.7738
18.6547
18.5996
18.6405
18.7295
18.8421
18.9644
19.0844
19.1846
19.2749
19.3444
19.3798
19.39
19.4012
19.444
19.5377
19.6506
19.7049
19.7467
19.6589
19.1203
18.5406
18.3845
18.3253
18.3546
18.4087
18.4472
18.4639
18.486
18.5496
18.6775
18.8768
19.0724
19.1905
19.2272
19.2368
19.2994
19.4536
19.6088
19.6857
19.6199
19.2279
18.5913
18.3232
18.3084
18.4028
18.5486
18.6947
18.7773
18.8413
20.3143
20.4556
20.5804
20.7491
20.9659
21.1049
21.1106
20.6334
19.659
19.1276
19.0524
19.1431
19.3119
19.4623
19.5163
19.4954
19.4479
19.419
19.4361
19.492
19.5743
19.6479
19.6656
19.6112
19.5186
19.4847
19.5528
19.6893
19.6605
19.2827
18.8238
18.6703
18.6088
18.6701
18.7973
18.9341
19.0404
19.1102
19.1657
19.2272
19.2871
19.3366
19.365
19.3831
19.4223
19.5121
19.5753
19.5925
19.5499
19.4238
18.9087
18.4449
18.3317
18.2677
18.2868
18.3419
18.3957
18.4455
18.5102
18.6071
18.7559
18.9257
19.0807
19.189
19.2392
19.2669
19.3224
19.4367
19.5371
19.5363
19.4745
19.1233
18.547
18.3287
18.3178
18.407
18.5546
18.6993
18.7794
18.8416
20.3102
20.4448
20.5685
20.714
20.8955
20.9791
20.9745
20.5544
19.6295
19.0804
19.0273
19.1124
19.2819
19.4111
19.4409
19.4151
19.3756
19.3608
19.3818
19.4223
19.4724
19.506
19.471
19.4037
19.3733
19.4274
19.5824
19.7263
19.6739
19.2808
18.7952
18.6236
18.5813
18.6863
18.8519
18.9996
19.0793
19.1035
19.1177
19.1385
19.1894
19.2605
19.3189
19.354
19.4004
19.48
19.5168
19.5051
19.4024
19.1958
18.6866
18.3475
18.2767
18.2337
18.2519
18.3117
18.3862
18.4738
18.581
18.7106
18.8387
18.9518
19.0562
19.1423
19.2328
19.2956
19.3591
19.4338
19.4739
19.4139
19.3273
18.9983
18.4882
18.327
18.3484
18.425
18.5538
18.6824
18.7555
18.8141
20.3278
20.4562
20.5712
20.6981
20.8472
20.8794
20.8373
20.4662
19.5932
19.0559
19.0249
19.097
19.2331
19.3257
19.3487
19.3315
19.3108
19.314
19.342
19.3796
19.4096
19.3978
19.347
19.3331
19.4136
19.5535
19.7053
19.7623
19.6159
19.1913
18.685
18.5386
18.5477
18.6858
18.8727
19.0141
19.0698
19.0675
19.0486
19.0499
19.0961
19.1863
19.2815
19.3371
19.3926
19.4502
19.4695
19.4354
19.2982
19.0127
18.4769
18.2375
18.2108
18.2326
18.2506
18.3257
18.4258
18.5458
18.6853
18.8103
18.8929
18.939
18.9956
19.083
19.2025
19.312
19.3826
19.4289
19.4244
19.3367
19.2134
18.8729
18.4338
18.3387
18.3748
18.4429
18.5594
18.6766
18.7375
18.7901
20.3916
20.5185
20.6124
20.7101
20.8078
20.8143
20.7267
20.3913
19.5782
19.066
19.0356
19.0908
19.1778
19.2405
19.264
19.2693
19.2773
19.3018
19.3404
19.3756
19.3879
19.3761
19.3944
19.482
19.6185
19.7268
19.7891
19.7829
19.552
19.0828
18.5604
18.4335
18.4926
18.6528
18.8321
18.9506
18.9949
18.9975
18.9841
18.9917
19.0475
19.1473
19.2581
19.3385
19.3944
19.4269
19.4317
19.3795
19.2214
18.8765
18.3079
18.1087
18.1437
18.2486
18.2825
18.3759
18.503
18.6493
18.7836
18.8658
18.8953
18.9149
18.9473
19.0308
19.1636
19.2878
19.3708
19.4278
19.3993
19.3026
19.1676
18.8077
18.362
18.3029
18.363
18.4351
18.5429
18.6467
18.6979
18.7431
20.5088
20.6221
20.6813
20.7357
20.778
20.7692
20.6472
20.3464
19.5916
19.107
19.066
19.0808
19.1331
19.1822
19.2171
19.2478
19.288
19.3449
19.413
19.459
19.4738
19.4958
19.5736
19.6852
19.7816
19.8354
19.8338
19.785
19.5293
19.0394
18.5108
18.4121
18.4893
18.6173
18.7516
18.8493
18.9056
18.9351
18.9555
18.9868
19.0467
19.1443
19.2564
19.3444
19.4016
19.4213
19.4088
19.3331
19.1611
18.7821
18.2062
17.9878
18.0682
18.2264
18.3681
18.4757
18.6138
18.7475
18.8358
18.8724
18.8815
18.8887
18.9223
18.9894
19.1015
19.2167
19.3192
19.4208
19.3951
19.3081
19.1836
18.8026
18.3123
18.2178
18.2847
18.3709
18.4807
18.5907
18.6535
18.704
20.6387
20.7285
20.7459
20.7651
20.7675
20.7515
20.6233
20.348
19.6434
19.1702
19.1118
19.0775
19.1142
19.1647
19.2101
19.2769
19.3682
19.4815
19.5702
19.606
19.6177
19.6401
19.6918
19.7605
19.8208
19.8771
19.8641
19.7602
19.5345
19.0696
18.5617
18.479
18.5464
18.6144
18.6953
18.759
18.8128
18.8786
18.9526
19.024
19.1052
19.1954
19.2863
19.3626
19.4207
19.4343
19.4075
19.3083
19.1179
18.7299
18.1592
17.9047
17.9802
18.1889
18.4233
18.6023
18.7236
18.8034
18.8355
18.8464
18.8506
18.8722
18.909
18.9644
19.0425
19.1221
19.246
19.4043
19.4225
19.3573
19.2229
18.8021
18.3027
18.173
18.1889
18.2671
18.3936
18.5288
18.6081
18.6629
20.7279
20.8379
20.8327
20.8201
20.7954
20.7678
20.6551
20.39
19.7203
19.2258
19.1468
19.086
19.1224
19.1777
19.2538
19.3655
19.511
19.6377
19.6885
19.6883
19.6898
19.7046
19.737
19.7822
19.8204
19.8558
19.8389
19.7433
19.5676
19.1603
18.7081
18.5905
18.6258
18.6379
18.6868
18.7295
18.7783
18.8549
18.9636
19.0815
19.1791
19.2583
19.3266
19.3903
19.4513
19.4788
19.4214
19.303
19.0988
18.7124
18.1607
17.8721
17.9171
18.1523
18.4615
18.7111
18.8131
18.818
18.8098
18.8064
18.8292
18.8643
18.908
18.9483
18.9728
19.0299
19.1733
19.3556
19.4443
19.438
19.258
18.7881
18.2688
18.1062
18.0932
18.1714
18.3117
18.4705
18.5753
18.6443
20.7667
20.9196
20.9374
20.906
20.8646
20.8295
20.7367
20.4785
19.7773
19.2485
19.1725
19.1015
19.1485
19.237
19.3472
19.4863
19.6221
19.7031
19.7159
19.7047
19.7121
19.7368
19.7481
19.7381
19.7488
19.7725
19.7931
19.7495
19.6456
19.3014
18.8688
18.7193
18.7036
18.6858
18.7119
18.7472
18.7904
18.8695
18.9833
19.1128
19.2169
19.2938
19.3564
19.4142
19.4742
19.5207
19.4625
19.3256
19.111
18.728
18.1945
17.8951
17.9078
18.1263
18.4627
18.7421
18.8513
18.8351
18.7873
18.7725
18.8012
18.8563
18.9071
18.9214
18.9237
18.9754
19.1237
19.326
19.4525
19.4897
19.2753
18.7665
18.2375
18.0701
18.0471
18.1279
18.2726
18.4377
18.5616
18.6439
20.753
20.9512
21.0059
21.009
20.9854
20.955
20.8906
20.5873
19.7951
19.2357
19.1792
19.1247
19.2059
19.3232
19.4457
19.5576
19.6365
19.6754
19.7006
19.7136
19.7174
19.7166
19.6986
19.6778
19.675
19.7127
19.7702
19.7706
19.7481
19.4457
19.0148
18.8242
18.7431
18.7204
18.7455
18.7824
18.8332
18.8991
18.9936
19.1011
19.2022
19.2836
19.3536
19.4184
19.4885
19.5362
19.515
19.4085
19.1781
18.8048
18.2808
17.9599
17.9453
18.1192
18.4161
18.6909
18.8213
18.8307
18.7917
18.7701
18.7958
18.8547
18.8995
18.8978
18.9071
18.9652
19.1072
19.2954
19.4174
19.4677
19.2555
18.7409
18.2266
18.0745
18.0515
18.14
18.2844
18.4489
18.5759
18.6689
20.6841
20.9118
21.0356
21.1094
21.1586
21.1442
21.0772
20.6795
19.7922
19.22
19.1667
19.1711
19.2833
19.4076
19.4964
19.5448
19.5815
19.6281
19.6614
19.6844
19.6987
19.6903
19.654
19.6311
19.6458
19.6921
19.7668
19.8134
19.8427
19.5591
19.1088
18.8873
18.7816
18.754
18.7851
18.8312
18.8829
18.9508
19.0243
19.0933
19.1642
19.2355
19.3027
19.3688
19.4538
19.5336
19.5695
19.5211
19.322
18.9578
18.4301
18.0676
18.02
18.1306
18.3342
18.564
18.738
18.8191
18.817
18.7936
18.802
18.8397
18.8735
18.8888
18.9201
18.9941
19.1284
19.2775
19.3462
19.3788
19.1814
18.7107
18.2479
18.118
18.1036
18.1939
18.3424
18.4969
18.6054
18.7009
20.5885
20.8059
21.0065
21.1792
21.3244
21.3449
21.2457
20.7218
19.7526
19.1988
19.1604
19.2204
19.3509
19.4513
19.4835
19.4955
19.5075
19.5379
19.5925
19.6455
19.6721
19.6626
19.6285
19.6077
19.6353
19.7045
19.8126
19.8918
19.9285
19.6171
19.1272
18.8927
18.7998
18.7845
18.8283
18.8882
18.9439
18.9956
19.0414
19.0767
19.1222
19.1735
19.2076
19.2608
19.3567
19.4984
19.6219
19.6393
19.5077
19.1527
18.627
18.2143
18.1325
18.1625
18.2507
18.411
18.6206
18.78
18.843
18.8278
18.8048
18.8092
18.8376
18.8897
18.9526
19.0405
19.1566
19.2652
19.2661
19.2389
19.0876
18.6902
18.2885
18.198
18.2012
18.2846
18.4147
18.5462
18.6415
18.7385
20.507
20.6702
20.9193
21.2137
21.4393
21.5291
21.3945
20.7415
19.7087
19.1849
19.1528
19.2516
19.3846
19.4534
19.4547
19.4222
19.4241
19.4708
19.5508
19.6241
19.6548
19.6476
19.6227
19.6099
19.6566
19.7668
19.9053
19.9915
19.9895
19.6206
19.0798
18.8521
18.8011
18.8159
18.8826
18.9532
19.0075
19.041
19.0589
19.0631
19.0792
19.1005
19.1265
19.1483
19.2306
19.3956
19.5949
19.7037
19.6817
19.3803
18.8565
18.3913
18.2602
18.1965
18.2044
18.2972
18.487
18.7178
18.8497
18.8627
18.8119
18.7857
18.8164
18.8897
18.9927
19.086
19.1669
19.2112
19.1701
19.1225
18.9944
18.6415
18.307
18.2667
18.3124
18.3837
18.4842
18.5845
18.6585
18.753
20.455
20.5722
20.8082
21.1767
21.4877
21.6172
21.4666
20.7428
19.6647
19.1713
19.1418
19.2583
19.3915
19.4344
19.3963
19.371
19.3852
19.4435
19.5322
19.6134
19.6485
19.6483
19.6347
19.6371
19.7194
19.8834
20.034
20.0955
20.0036
19.5885
19.0091
18.814
18.8196
18.8703
18.9539
19.0275
19.0702
19.0792
19.0731
19.0539
19.0463
19.0521
19.0726
19.1125
19.175
19.2834
19.4692
19.6504
19.7467
19.5841
19.0944
18.5754
18.3888
18.2388
18.2008
18.2578
18.395
18.6063
18.8019
18.8711
18.8272
18.7909
18.8124
18.8975
19.017
19.1121
19.1594
19.1484
19.1054
19.0644
18.9405
18.6281
18.3617
18.3399
18.3903
18.4456
18.5186
18.6012
18.6635
18.7605
20.4242
20.5342
20.7454
21.1075
21.4487
21.6145
21.461
20.7049
19.6084
19.1727
19.1525
19.2611
19.3614
19.3919
19.3732
19.3585
19.373
19.431
19.5177
19.5954
19.6349
19.6484
19.6569
19.6985
19.8242
20.0174
20.1662
20.1806
19.9948
19.5464
18.9319
18.7897
18.8342
18.9346
19.0399
19.1064
19.1249
19.1126
19.0814
19.05
19.0325
19.0482
19.0765
19.1351
19.1718
19.1983
19.3164
19.4877
19.6633
19.6933
19.285
18.7364
18.4978
18.3113
18.2455
18.2779
18.3701
18.5039
18.702
18.8325
18.8591
18.8275
18.8371
18.9143
19.014
19.09
19.1173
19.1049
19.0718
19.0476
18.9355
18.6532
18.4105
18.3681
18.4078
18.4613
18.5367
18.6251
18.6921
18.7954
20.3976
20.5537
20.7705
21.0798
21.3611
21.5226
21.3941
20.6456
19.5664
19.1945
19.1674
19.2346