/*--------------------------------*- C++ -*----------------------------------*\
| =========                 |                                                 |
| \\      /  F ield         | OpenFOAM: The Open Source CFD Toolbox           |
|  \\    /   O peration     | Version:  v1912                                 |
|   \\  /    A nd           | Website:  www.openfoam.com                      |
|    \\/     M anipulation  |                                                 |
\*---------------------------------------------------------------------------*/
FoamFile
{
    version     2.0;
    format      ascii;
    class       volVectorField;
    location    "5.78";
    object      grad(p);
}
// * * * * * * * * * * * * * * * * * * * * * * * * * * * * * * * * * * * * * //

dimensions      [1 -2 -2 0 0 0 0];


internalField   nonuniform List<vector> 
1900
(
(120253 0.260022 0)
(-123960 0.470308 0)
(-5732.61 -0.0544672 0)
(-608.671 0.0468969 0)
(-627.335 2.24992 0)
(-485.794 2.50125 0)
(-396.226 -4.08426 0)
(-165.735 4.34019 0)
(-69.0311 -37.5205 0)
(865.078 -71.5551 0)
(120254 0.271494 0)
(-123960 0.753623 0)
(-5733.04 0.0546962 0)
(-606.367 0.593758 0)
(-624.881 4.1971 0)
(-492.128 3.87073 0)
(-394.387 -9.97042 0)
(-199.171 -14.4722 0)
(-144.926 -96.8729 0)
(-38.0064 -95.3391 0)
(120254 -3.87956e-08 0)
(-123960 7.00062e-08 0)
(-5732.77 3.1104e-08 0)
(-604.529 1.28075e-08 0)
(-624.058 -6.05738e-09 0)
(-499.961 -1.38556e-08 0)
(-414.569 -1.47082e-08 0)
(-252.637 -4.49418e-09 0)
(-149.898 -1.61648e-09 0)
(-130.49 -8.17124e-10 0)
(120254 -0.271494 0)
(-123960 -0.753623 0)
(-5733.04 -0.0546962 0)
(-606.367 -0.593758 0)
(-624.881 -4.1971 0)
(-492.128 -3.87073 0)
(-394.387 9.97042 0)
(-199.171 14.4722 0)
(-144.926 96.8729 0)
(-38.0064 95.3391 0)
(120253 -0.260022 0)
(-123960 -0.470308 0)
(-5732.61 0.0544672 0)
(-608.671 -0.0468969 0)
(-627.335 -2.24992 0)
(-485.794 -2.50125 0)
(-396.226 4.08426 0)
(-165.735 -4.34019 0)
(-69.0311 37.5205 0)
(865.078 71.5551 0)
(72.2383 -825.259 8.87559e-12)
(-1565.24 -608.837 -1.04107e-11)
(-1355.64 -730.774 -1.31133e-11)
(1010.44 -921.725 0)
(-19064.7 -8274.21 -5.73142e-11)
(-361.139 -961.25 8.72647e-12)
(-982.714 -730.7 1.04107e-11)
(-1247.25 -838.54 1.31133e-11)
(-1781.95 -614.977 0)
(-18232.4 -7489.44 0)
(-757.224 1.12631e-09 0)
(-1108.71 3.70074e-10 0)
(-1170.87 7.89492e-10 0)
(-1694.4 1.68216e-10 0)
(-21142.1 -2.06184e-09 0)
(-361.139 961.25 8.72647e-12)
(-982.714 730.7 1.04107e-11)
(-1247.25 838.54 1.31133e-11)
(-1781.95 614.977 0)
(-18232.4 7489.44 0)
(72.2383 825.259 -2.63285e-11)
(-1565.24 608.837 -1.04107e-11)
(-1355.64 730.774 -1.31133e-11)
(1010.44 921.725 -3.53047e-11)
(-19064.7 8274.21 5.73142e-11)
(-38629.2 11138.4 1.06882e-11)
(-8522.31 4209.77 -5.259e-12)
(-419.355 1965.52 0)
(-543.745 1181.93 3.77808e-12)
(-4010.27 1375.59 -1.59548e-12)
(-34533.5 13690.1 -5.51184e-12)
(-10561.5 3315.39 2.69289e-12)
(-1197.88 864.228 0)
(-623.952 315.355 -2.38592e-12)
(-3556.07 736.571 4.14773e-13)
(-35750.8 8.29864e-10 0)
(-11813.4 1.15767e-09 0)
(-1415.81 4.27641e-10 0)
(-624.018 9.21558e-10 9.58168e-13)
(-3365.57 1.16216e-09 -8.29546e-13)
(-34533.5 -13690.1 -5.51184e-12)
(-10561.5 -3315.39 2.69289e-12)
(-1197.88 -864.228 0)
(-623.952 -315.355 -2.38592e-12)
(-3556.07 -736.571 4.14773e-13)
(-38629.2 -11138.4 5.51184e-12)
(-8522.31 -4209.77 -1.26784e-13)
(-419.355 -1965.52 0)
(-543.745 -1181.93 3.5596e-14)
(-4010.27 -1375.59 1.59548e-12)
(-5093.29 3653.28 0)
(-1514.78 -540.492 0)
(1748.82 -783.201 0)
(2885.1 141.206 0)
(1678.33 1197.33 0)
(152.643 1135.66 0)
(-1035.71 856.892 0)
(-1682.3 476.164 0)
(-1595.76 217.356 0)
(-1081.97 87.3304 0)
(-626.171 36.0437 0)
(-414.868 14.8615 0)
(-351.792 9.157 0)
(-320.607 12.8528 0)
(-274.192 8.59798 0)
(-201.401 2.90696 0)
(-125.446 -0.165953 0)
(-74.4475 -0.957107 0)
(-50.2139 -0.909974 0)
(-40.2192 -0.739363 0)
(-34.7315 -0.661954 0)
(-30.0419 -0.686871 0)
(-25.1124 -0.770913 0)
(-19.9901 -0.876372 0)
(-14.8093 -0.982956 0)
(-9.72849 -1.08866 0)
(-4.03772 -1.1699 0)
(3.11752 -1.24097 0)
(12.3926 -1.2911 0)
(20.8065 -1.23433 0)
(30.5783 -1.22538 0)
(38.1374 -0.989712 0)
(49.3201 -1.26067 0)
(59.761 -0.574054 0)
(92.997 -1.96472 0)
(135.882 1.5961 0)
(183.244 1.80888 0)
(95.1626 1.28267 0)
(-134.932 1.20716 0)
(2421.47 -93.7303 0)
(-5484.68 2282.65 0)
(-2250.09 -198.753 0)
(1928.69 -424.552 0)
(3204.72 -20.6345 0)
(1766.37 541.021 0)
(37.9174 419.84 0)
(-1180.58 255.398 0)
(-1779.36 179.549 0)
(-1641.2 106.011 0)
(-1100.7 41.0083 0)
(-632.894 15.2283 0)
(-417.33 5.58018 0)
(-351.775 3.26821 0)
(-320.606 5.72817 0)
(-275.221 2.93202 0)
(-202.099 0.779896 0)
(-125.719 -0.274425 0)
(-74.4886 -0.492806 0)
(-50.1896 -0.449946 0)
(-40.1948 -0.370642 0)
(-34.725 -0.3336 0)
(-30.0506 -0.343013 0)
(-25.129 -0.380394 0)
(-20.0094 -0.429343 0)
(-14.8292 -0.480945 0)
(-9.74655 -0.534312 0)
(-4.05346 -0.578539 0)
(3.10331 -0.621056 0)
(12.3895 -0.656982 0)
(20.8072 -0.64697 0)
(30.5964 -0.659258 0)
(38.1248 -0.562649 0)
(49.3631 -0.701418 0)
(59.6761 -0.333778 0)
(93.2003 -1.0412 0)
(136.255 0.66921 0)
(183.056 0.941323 0)
(96.2641 1.27367 0)
(-135.689 8.10124 0)
(2421.05 -9.24188 0)
(-5254.64 -1.95722e-08 0)
(-2302.33 -4.49338e-09 0)
(1800.63 1.35936e-07 0)
(3165.99 1.27813e-07 0)
(1806.47 4.56766e-08 0)
(69.5525 -1.54947e-08 0)
(-1105.62 -3.50104e-08 0)
(-1725.76 -2.93543e-08 0)
(-1636.06 -2.64435e-08 0)
(-1108.38 -1.90434e-08 0)
(-636.477 -1.44935e-08 0)
(-418.347 -7.60604e-09 0)
(-351.749 -3.05614e-09 0)
(-320.705 -8.27621e-10 0)
(-275.632 -2.18209e-09 0)
(-202.334 -8.42356e-09 0)
(-125.816 -4.05938e-09 0)
(-74.4986 -1.35043e-09 0)
(-50.1784 1.9984e-10 0)
(-40.1853 1.62294e-09 0)
(-34.7234 2.95723e-09 0)
(-30.0555 4.31574e-09 0)
(-25.1375 4.73762e-09 0)
(-20.0194 3.25396e-09 0)
(-14.8398 7.77156e-10 0)
(-9.75688 -1.41503e-09 0)
(-4.06296 -2.85428e-09 0)
(3.0947 -3.91202e-09 0)
(12.385 -2.27091e-09 0)
(20.8058 1.09004e-09 0)
(30.6028 4.53577e-09 0)
(38.1251 2.91888e-09 0)
(49.3867 -4.71138e-09 0)
(59.6622 -5.27255e-09 0)
(93.2888 1.15887e-08 0)
(136.459 1.80058e-09 0)
(183.42 -2.0638e-08 0)
(97.2455 4.74368e-09 0)
(-137.991 -1.91423e-08 0)
(2421.81 -7.13268e-08 0)
(-5484.68 -2282.65 0)
(-2250.09 198.753 0)
(1928.69 424.552 0)
(3204.72 20.6345 0)
(1766.37 -541.021 0)
(37.9174 -419.84 0)
(-1180.58 -255.398 0)
(-1779.36 -179.549 0)
(-1641.2 -106.011 0)
(-1100.7 -41.0083 0)
(-632.894 -15.2283 0)
(-417.33 -5.58018 0)
(-351.775 -3.26821 0)
(-320.606 -5.72817 0)
(-275.221 -2.93202 0)
(-202.099 -0.779896 0)
(-125.719 0.274425 0)
(-74.4886 0.492806 0)
(-50.1896 0.449946 0)
(-40.1948 0.370642 0)
(-34.725 0.3336 0)
(-30.0506 0.343013 0)
(-25.129 0.380394 0)
(-20.0094 0.429343 0)
(-14.8292 0.480945 0)
(-9.74655 0.534312 0)
(-4.05346 0.578539 0)
(3.10331 0.621056 0)
(12.3895 0.656982 0)
(20.8072 0.64697 0)
(30.5964 0.659258 0)
(38.1248 0.562649 0)
(49.3631 0.701418 0)
(59.6761 0.333778 0)
(93.2003 1.0412 0)
(136.255 -0.66921 0)
(183.056 -0.941323 0)
(96.2641 -1.27367 0)
(-135.689 -8.10124 0)
(2421.05 9.24188 0)
(-5093.29 -3653.28 0)
(-1514.78 540.492 0)
(1748.82 783.201 0)
(2885.1 -141.206 0)
(1678.33 -1197.33 0)
(152.643 -1135.66 0)
(-1035.71 -856.892 0)
(-1682.3 -476.164 0)
(-1595.76 -217.356 0)
(-1081.97 -87.3304 0)
(-626.171 -36.0437 0)
(-414.868 -14.8615 0)
(-351.792 -9.157 0)
(-320.607 -12.8528 0)
(-274.192 -8.59798 0)
(-201.401 -2.90696 0)
(-125.446 0.165953 0)
(-74.4475 0.957107 0)
(-50.2139 0.909974 0)
(-40.2192 0.739363 0)
(-34.7315 0.661954 0)
(-30.0419 0.686871 0)
(-25.1124 0.770913 0)
(-19.9901 0.876372 0)
(-14.8093 0.982956 0)
(-9.72849 1.08866 0)
(-4.03772 1.1699 0)
(3.11752 1.24097 0)
(12.3926 1.2911 0)
(20.8065 1.23433 0)
(30.5783 1.22538 0)
(38.1374 0.989712 0)
(49.3201 1.26067 0)
(59.761 0.574054 0)
(92.997 1.96472 0)
(135.882 -1.5961 0)
(183.244 -1.80888 0)
(95.1626 -1.28267 0)
(-134.932 -1.20716 0)
(2421.47 93.7303 0)
(-647.279 -1363.98 0)
(-317.421 588.811 0)
(1709.06 1085.74 0)
(2331.95 -45.0645 0)
(1244.36 -1035.46 0)
(118.814 -1056.19 0)
(-934.405 -1008.45 0)
(-1490.42 -698.27 0)
(-1449.85 -371.272 0)
(-1008.63 -164.168 0)
(-595.21 -66.4354 0)
(-403.31 -29.7752 0)
(-350.496 -20.9293 0)
(-320.254 -22.1741 0)
(-270.173 -16.0531 0)
(-197.408 -6.14486 0)
(-123.611 -0.183973 0)
(-74.0694 1.54407 0)
(-50.298 1.51493 0)
(-40.3221 1.21884 0)
(-34.7504 1.09464 0)
(-29.9922 1.15366 0)
(-25.0293 1.31324 0)
(-19.8986 1.50673 0)
(-14.719 1.69879 0)
(-9.65017 1.88637 0)
(-3.97612 2.03066 0)
(3.16291 2.14929 0)
(12.3817 2.22601 0)
(20.7667 2.12621 0)
(30.4639 2.05959 0)
(38.1325 1.69328 0)
(49.1521 1.97972 0)
(60.0195 1.1927 0)
(92.074 2.58447 0)
(134.319 -2.07506 0)
(183.035 -3.40178 0)
(97.9152 -6.47496 0)
(-76.9652 13.9697 0)
(2362.53 33.0033 0)
(-314.638 -292.748 0)
(203.811 80.0958 0)
(1159.31 218.087 0)
(1137.64 -696.431 0)
(936.681 -994.009 0)
(196.815 -1213.48 0)
(-745.129 -1114.47 0)
(-1171.18 -829.503 0)
(-1159.32 -484.95 0)
(-827.553 -228.702 0)
(-513.267 -95.2924 0)
(-377.214 -49.1209 0)
(-345.162 -37.0804 0)
(-316.098 -32.4966 0)
(-260.901 -22.6318 0)
(-188.251 -9.23859 0)
(-119.02 -0.655207 0)
(-73.0132 2.16686 0)
(-50.4823 2.29372 0)
(-40.569 1.92222 0)
(-34.7841 1.77372 0)
(-29.8579 1.88733 0)
(-24.8167 2.14544 0)
(-19.6677 2.4535 0)
(-14.4918 2.76069 0)
(-9.45068 3.06313 0)
(-3.81739 3.29769 0)
(3.28142 3.49409 0)
(12.3761 3.62823 0)
(20.6674 3.49195 0)
(30.2225 3.38389 0)
(38.063 2.91367 0)
(48.9279 3.24053 0)
(60.2051 2.46468 0)
(90.343 3.48403 0)
(130.952 -1.64875 0)
(179.116 -4.60393 0)
(110.426 -10.4506 0)
(-127.973 25.8162 0)
(2407.82 -58.0704 0)
(-852.199 -601.701 0)
(174.839 -210.404 0)
(960.771 -457.138 0)
(1163.93 -709.153 0)
(746.113 -776.046 0)
(2.73353 -1108.84 0)
(-564.391 -1038.01 0)
(-883.789 -803.674 0)
(-870.892 -495.739 0)
(-633.14 -246.517 0)
(-422.16 -115.545 0)
(-347.215 -68.317 0)
(-334.476 -53.7061 0)
(-306.331 -42.5896 0)
(-247.76 -28.0299 0)
(-176.23 -11.7633 0)
(-112.62 -1.28408 0)
(-71.2277 2.4922 0)
(-50.5337 2.90282 0)
(-40.8232 2.57435 0)
(-34.784 2.46639 0)
(-29.634 2.66526 0)
(-24.4837 3.0371 0)
(-19.3058 3.47086 0)
(-14.1316 3.90643 0)
(-9.13269 4.34681 0)
(-3.56083 4.68096 0)
(3.48142 4.95267 0)
(12.3796 5.16484 0)
(20.5313 4.97207 0)
(29.9067 4.82771 0)
(37.9943 4.26149 0)
(48.7194 4.62011 0)
(60.2542 3.86524 0)
(88.1102 4.48869 0)
(126.525 -0.837998 0)
(174.553 -5.02155 0)
(127.229 -8.42033 0)
(-122.853 32.4013 0)
(2393.61 7.88535 0)
(-1097.21 -333.098 0)
(343.117 -37.2456 0)
(678.697 -182.218 0)
(830.332 -473.367 0)
(551.531 -749.489 0)
(-55.6188 -916.292 0)
(-451.062 -878.455 0)
(-648.636 -695.404 0)
(-622.426 -445.919 0)
(-461.184 -232.852 0)
(-341.547 -126.242 0)
(-317.624 -83.955 0)
(-320.37 -67.3557 0)
(-291.355 -50.5374 0)
(-231.196 -31.2007 0)
(-162.477 -12.9706 0)
(-105.283 -1.57062 0)
(-68.9785 2.68572 0)
(-50.4031 3.36999 0)
(-40.9896 3.18883 0)
(-34.6965 3.19782 0)
(-29.308 3.51212 0)
(-24.0404 3.99562 0)
(-18.83 4.53356 0)
(-13.6477 5.06597 0)
(-8.70432 5.60916 0)
(-3.23355 6.03413 0)
(3.74771 6.37098 0)
(12.3948 6.58873 0)
(20.3425 6.31519 0)
(29.5377 6.0788 0)
(37.863 5.41066 0)
(48.546 5.61186 0)
(60.0785 4.90689 0)
(85.8108 5.03175 0)
(121.788 0.202201 0)
(171.81 -5.13626 0)
(146.488 -3.86508 0)
(-112.26 34.0445 0)
(2369 11.8542 0)
(-1209.08 -132.549 0)
(320.232 -101.453 0)
(540.508 -191.293 0)
(617.283 -316.963 0)
(319.294 -620.124 0)
(-121.543 -753.977 0)
(-351.535 -713.726 0)
(-466.982 -565.077 0)
(-425.16 -368.038 0)
(-325.087 -205.727 0)
(-278.677 -125.703 0)
(-290.47 -93.6984 0)
(-302.274 -75.6615 0)
(-271.49 -54.6265 0)
(-211.559 -31.6266 0)
(-147.677 -12.4215 0)
(-97.5334 -1.0298 0)
(-66.4667 3.31983 0)
(-50.0489 4.23231 0)
(-40.9891 4.25528 0)
(-34.4725 4.42834 0)
(-28.8652 4.8735 0)
(-23.4994 5.46145 0)
(-18.2743 6.08205 0)
(-13.0951 6.67811 0)
(-8.19974 7.25913 0)
(-2.82671 7.78927 0)
(4.01585 8.2339 0)
(12.3259 8.34566 0)
(20.0399 8.01974 0)
(29.035 7.68798 0)
(37.5443 6.93491 0)
(48.2339 6.92468 0)
(59.6951 6.25213 0)
(83.5766 6.09628 0)
(116.726 2.23995 0)
(170.634 -3.34784 0)
(164.985 1.55329 0)
(-107.706 32.5441 0)
(2349.38 7.71228 0)
(-1322.7 -144.211 0)
(286.509 -148.219 0)
(471.024 -185.345 0)
(417.095 -293.053 0)
(130.407 -566.549 0)
(-145.817 -610.355 0)
(-269.03 -567.539 0)
(-315.518 -434.273 0)
(-276.143 -283.683 0)
(-227.662 -176.227 0)
(-233.592 -121.851 0)
(-269.402 -100.228 0)
(-282.719 -80.643 0)
(-248.922 -55.5624 0)
(-190.526 -30.2004 0)
(-132.993 -10.6941 0)
(-90.1139 0.120415 0)
(-63.9077 4.46935 0)
(-49.5017 5.62236 0)
(-40.8007 5.91689 0)
(-34.1008 6.29616 0)
(-28.3124 6.87215 0)
(-22.8758 7.53223 0)
(-17.6575 8.18474 0)
(-12.5135 8.77959 0)
(-7.63356 9.31867 0)
(-2.29423 9.87435 0)
(4.28386 10.3331 0)
(12.1884 10.2262 0)
(19.7088 9.75527 0)
(28.4924 9.21391 0)
(37.1274 8.26599 0)
(47.8881 7.91878 0)
(59.2802 7.12287 0)
(81.9445 6.68453 0)
(112.687 3.57082 0)
(171.148 -1.40356 0)
(181.075 6.04949 0)
(-106.325 30.8019 0)
(2330.21 1.47453 0)
(-1490.87 -202.968 0)
(280.594 -165.471 0)
(400.941 -193.803 0)
(249.941 -337.291 0)
(13.5308 -502.27 0)
(-122.497 -495.129 0)
(-181.856 -430.684 0)
(-193.447 -319.007 0)
(-176.497 -213.731 0)
(-169.141 -149.206 0)
(-205.442 -117.742 0)
(-250.76 -102.562 0)
(-259.233 -80.5064 0)
(-222.882 -51.8448 0)
(-168.323 -25.5105 0)
(-118.459 -6.76512 0)
(-82.9214 3.30385 0)
(-61.1648 7.45819 0)
(-48.654 8.82486 0)
(-40.3398 9.39417 0)
(-33.552 9.97039 0)
(-27.6741 10.636 0)
(-22.2345 11.3024 0)
(-17.0723 11.9137 0)
(-12.0024 12.4336 0)
(-7.14479 12.871 0)
(-1.84915 13.331 0)
(4.35491 13.684 0)
(11.769 13.3219 0)
(19.0644 12.5939 0)
(27.5999 11.7377 0)
(36.2963 10.4888 0)
(47.1324 9.71494 0)
(58.5058 8.62281 0)
(80.1537 7.94531 0)
(108.932 5.04899 0)
(173.022 1.31407 0)
(196.02 8.91302 0)
(-112.114 28.1688 0)
(2318.27 -5.14543 0)
(-1677.75 -218.677 0)
(295.341 -176.562 0)
(305.453 -212.815 0)
(119.845 -376.938 0)
(-21.6915 -393.436 0)
(-76.8342 -367.83 0)
(-99.3127 -300.557 0)
(-106.455 -226.724 0)
(-112.517 -162.549 0)
(-135.163 -127.549 0)
(-188.644 -112.817 0)
(-233.52 -99.8687 0)
(-233.847 -75.0439 0)
(-195.926 -44.68 0)
(-147.085 -18.7465 0)
(-105.227 -1.69624 0)
(-76.4078 7.46361 0)
(-58.5875 11.3913 0)
(-47.6361 12.9996 0)
(-39.6968 13.8548 0)
(-32.9041 14.6176 0)
(-27.0289 15.3421 0)
(-21.6445 15.9706 0)
(-16.5675 16.493 0)
(-11.591 16.8937 0)
(-6.76884 17.1881 0)
(-1.51078 17.4695 0)
(4.27514 17.6169 0)
(11.1379 16.9704 0)
(18.1821 15.9293 0)
(26.4638 14.7115 0)
(35.1783 13.138 0)
(46.09 11.9328 0)
(57.5749 10.5566 0)
(78.5006 9.65807 0)
(106.297 7.0579 0)
(174.872 4.48927 0)
(206.953 10.9494 0)
(-119.873 26.9447 0)
(2308.02 -10.7332 0)
(-1871.74 -186.162 0)
(286.243 -169.872 0)
(207.852 -238.977 0)
(75.8875 -317.052 0)
(22.3071 -264.868 0)
(-32.9955 -245.12 0)
(-45.8803 -202.64 0)
(-60.457 -162.539 0)
(-80.929 -128.336 0)
(-121.217 -113.66 0)
(-178.768 -108.746 0)
(-214.361 -93.9684 0)
(-206.051 -65.6696 0)
(-168.632 -35.1307 0)
(-126.902 -10.4075 0)
(-93.2022 5.29402 0)
(-70.3097 13.5795 0)
(-55.8301 17.5541 0)
(-46.2801 19.4962 0)
(-38.7806 20.6629 0)
(-32.1187 21.5731 0)
(-26.3704 22.2666 0)
(-21.1255 22.734 0)
(-16.1827 23.0219 0)
(-11.3326 23.1464 0)
(-6.58998 23.1718 0)
(-1.4359 23.0999 0)
(3.87397 22.8093 0)
(10.1428 21.7536 0)
(16.8877 20.2525 0)
(24.9101 18.5464 0)
(33.6186 16.5076 0)
(44.6449 14.8098 0)
(56.3138 13.052 0)
(76.7822 11.9154 0)
(103.952 9.46164 0)
(176.772 7.72435 0)
(217.658 13.2288 0)
(-133.008 27.4437 0)
(2302.65 -15.2141 0)
(-2020.83 -136.19 0)
(244.447 -135.087 0)
(163.626 -206.071 0)
(94.8946 -193.829 0)
(47.6247 -166.58 0)
(-16.8681 -161.681 0)
(-19.7346 -141.359 0)
(-34.8527 -120.734 0)
(-65.4156 -105.304 0)
(-116.286 -103.434 0)
(-169.669 -100.9 0)
(-192.01 -82.0489 0)
(-177.149 -51.8337 0)
(-142.673 -22.6735 0)
(-108.131 -0.654242 0)
(-82.1119 12.6768 0)
(-64.5936 20.0606 0)
(-52.8859 23.8863 0)
(-44.6403 26.0135 0)
(-37.6955 27.3818 0)
(-31.3588 28.3857 0)
(-25.9102 29.0625 0)
(-20.9167 29.453 0)
(-16.17 29.6418 0)
(-11.4466 29.669 0)
(-6.81362 29.6259 0)
(-1.86009 29.3839 0)
(2.97777 28.8725 0)
(8.67414 27.6156 0)
(15.0916 25.8804 0)
(22.8551 23.905 0)
(31.5775 21.6215 0)
(42.7601 19.6624 0)
(54.7858 17.7394 0)
(75.0408 16.5547 0)
(102.259 14.3296 0)
(178.502 13.4414 0)
(225.955 18.3399 0)
(-147.281 30.1029 0)
(2296.24 -21.5798 0)
(-2133.15 -84.5025 0)
(218.904 -98.1751 0)
(151.246 -147.447 0)
(113.943 -123.252 0)
(53.286 -110.845 0)
(-8.69149 -109.411 0)
(-6.42183 -97.5646 0)
(-25.7131 -90.0706 0)
(-64.2585 -88.5005 0)
(-116.973 -93.3651 0)
(-158.161 -87.9061 0)
(-167.079 -65.6434 0)
(-148.834 -35.4211 0)
(-119.314 -8.21911 0)
(-92.8371 10.148 0)
(-73.2406 21.282 0)
(-59.5079 27.7815 0)
(-50.0937 31.4772 0)
(-42.9116 33.7867 0)
(-36.4947 35.3226 0)
(-30.4991 36.3423 0)
(-25.3419 36.8856 0)
(-20.5672 37.0856 0)
(-15.9745 37.1022 0)
(-11.348 37.008 0)
(-6.86473 36.9343 0)
(-2.16186 36.5546 0)
(2.16992 35.8727 0)
(7.25947 34.5135 0)
(13.312 32.663 0)
(20.8061 30.5756 0)
(29.5303 28.212 0)
(40.9039 26.2322 0)
(53.3191 24.3331 0)
(73.4964 23.2768 0)
(100.952 21.3602 0)
(180.637 20.9493 0)
(233.714 25.963 0)
(-171.477 37.3469 0)
(2294.44 -17.5662 0)
(-2196.87 -44.3521 0)
(183.791 -61.8517 0)
(139.461 -95.66 0)
(130.165 -76.4923 0)
(60.9622 -67.5558 0)
(-4.07026 -70.1487 0)
(-1.09761 -66.6838 0)
(-26.1182 -69.3301 0)
(-68.5902 -75.9845 0)
(-115.713 -79.6215 0)
(-142.955 -69.5449 0)
(-141.434 -45.1944 0)
(-121.812 -17.9212 0)
(-98.761 5.2016 0)
(-79.7022 20.1925 0)
(-65.1195 29.6504 0)
(-54.7691 34.9549 0)
(-47.0992 38.1177 0)
(-40.9347 40.1739 0)
(-35.2328 41.6224 0)
(-29.8527 42.7004 0)
(-25.1939 43.4406 0)
(-20.708 43.9374 0)
(-16.2448 44.2788 0)
(-11.6083 44.4689 0)
(-7.25051 44.6221 0)
(-2.88309 44.2581 0)
(1.01089 43.6116 0)
(5.58121 42.3297 0)
(11.2969 40.5332 0)
(18.5659 38.5133 0)
(27.392 36.3182 0)
(39.0222 34.6858 0)
(51.9379 33.3335 0)
(72.176 33.0302 0)
(100.016 32.2237 0)
(182.937 33.3536 0)
(241.757 39.1936 0)
(-189.227 48.8981 0)
(2277.17 -2.97705 0)
(-2235.49 2.27613 0)
(169.461 -22.2566 0)
(137.138 -41.3824 0)
(141.025 -24.4893 0)
(59.3989 -25.025 0)
(-7.85117 -32.547 0)
(-5.6329 -37.7068 0)
(-34.6756 -49.7823 0)
(-74.1758 -61.5631 0)
(-110.767 -60.7897 0)
(-124.985 -45.2443 0)
(-117.333 -19.8302 0)
(-100.271 4.14122 0)
(-82.5858 21.7887 0)
(-69.2773 34.1637 0)
(-59.015 41.9242 0)
(-51.3486 46.5788 0)
(-45.0645 49.5701 0)
(-39.5343 51.664 0)
(-34.06 53.1515 0)
(-28.7471 54.1131 0)
(-24.1498 54.5817 0)
(-19.7595 54.8046 0)
(-15.4623 54.9779 0)
(-11.0173 55.0866 0)
(-7.06793 55.2159 0)
(-3.13554 54.7515 0)
(0.31171 54.1767 0)
(4.29302 53.0403 0)
(9.63443 51.4373 0)
(16.7443 49.6007 0)
(25.842 47.6623 0)
(38.0278 46.5853 0)
(51.7237 45.9682 0)
(72.4269 46.6937 0)
(101.263 47.354 0)
(187.353 49.9923 0)
(248.693 57.5507 0)
(-212.114 65.0722 0)
(2250.19 32.5066 0)
(-2216.12 89.3342 0)
(141.72 22.879 0)
(137.309 10.5556 0)
(145.928 15.7681 0)
(53.1975 5.68318 0)
(-16.2909 -3.79698 0)
(-17.7062 -15.3023 0)
(-49.107 -30.6354 0)
(-79.1974 -40.8096 0)
(-99.988 -34.2977 0)
(-103.485 -14.909 0)
(-93.844 7.14392 0)
(-81.707 26.5064 0)
(-69.8303 40.3307 0)
(-60.2989 50.1442 0)
(-53.1559 56.5375 0)
(-47.4012 60.5881 0)
(-42.1988 63.0524 0)
(-37.4835 64.3617 0)
(-32.8728 65.0597 0)
(-28.4746 65.8945 0)
(-24.5275 66.9069 0)
(-20.3262 67.6719 0)
(-15.973 68.0202 0)
(-11.379 68.051 0)
(-7.57341 68.0372 0)
(-3.88453 67.4477 0)
(-0.638108 66.8766 0)
(2.94142 65.9547 0)
(7.98233 64.7394 0)
(14.9281 63.1623 0)
(24.4863 61.5949 0)
(37.3898 61.1415 0)
(52.0423 61.3189 0)
(73.5114 63.0248 0)
(103.194 64.7526 0)
(192.763 68.4356 0)
(256.288 78.2443 0)
(-213.361 87.2539 0)
(2183.14 96.4579 0)
(-2127.36 172.131 0)
(93.5476 78.5871 0)
(130.286 68.8876 0)
(136.329 61.2976 0)
(40.5452 38.952 0)
(-28.0735 28.5739 0)
(-31.4954 13.723 0)
(-59.2555 2.50628 0)
(-77.7049 -0.755635 0)
(-85.8086 9.90195 0)
(-85.0506 26.7977 0)
(-77.4232 44.6954 0)
(-68.291 59.6839 0)
(-59.8075 71.6993 0)
(-53.6599 80.4188 0)
(-48.951 87.1362 0)
(-45.0706 92.6038 0)
(-41.4281 96.9217 0)
(-37.5999 99.8467 0)
(-32.583 101.391 0)
(-26.9671 102.105 0)
(-22.4371 101.986 0)
(-18.6866 100.863 0)
(-15.097 99.1033 0)
(-11.0008 97.3024 0)
(-7.64932 96.0595 0)
(-4.254 94.4633 0)
(-1.12697 93.1188 0)
(2.23352 91.5539 0)
(6.94356 90.085 0)
(13.7142 88.2164 0)
(23.8947 86.6108 0)
(37.7618 86.4833 0)
(53.5385 87.2175 0)
(75.7358 89.6268 0)
(106.477 92.8785 0)
(200.354 97.7077 0)
(266.827 107.963 0)
(-194.562 111.993 0)
(2073.16 161.112 0)
(-1974.52 254.896 0)
(42.2311 141.593 0)
(120.649 135.57 0)
(117.081 113.231 0)
(21.6637 77.4568 0)
(-40.6025 68.7156 0)
(-42.8258 53.1192 0)
(-63.0592 46.5985 0)
(-72.0706 47.9963 0)
(-73.4366 59.4064 0)
(-69.9567 73.2243 0)
(-62.1536 88.4794 0)
(-55.6851 101.307 0)
(-49.8494 112.325 0)
(-45.4233 121.553 0)
(-41.414 129.781 0)
(-37.9715 136.76 0)
(-35.2193 142.276 0)
(-33.177 146.38 0)
(-30.6967 148.835 0)
(-27.9007 149.413 0)
(-25.7248 148.122 0)
(-23.1043 145.503 0)
(-19.4038 142.075 0)
(-14.3121 137.893 0)
(-10.3092 134.39 0)
(-6.71825 130.592 0)
(-3.44173 128.245 0)
(0.017866 125.771 0)
(4.76613 124.081 0)
(11.5803 122.779 0)
(22.8162 122.282 0)
(37.9745 123.721 0)
(55.0715 126.016 0)
(78.9666 130.468 0)
(110.981 135.618 0)
(207.299 142.081 0)
(270.054 151.116 0)
(-162.145 154.963 0)
(1919.97 246.222 0)
(-1745.29 450.833 0)
(-21.4388 232.199 0)
(102.955 276.537 0)
(80.3293 210.403 0)
(-2.35116 161.737 0)
(-51.5261 148.265 0)
(-52.8082 128.604 0)
(-64.1921 124.825 0)
(-65.3627 129.946 0)
(-61.4981 141.911 0)
(-57.0348 155.243 0)
(-50.3619 166.12 0)
(-45.3126 173.084 0)
(-40.2971 177.52 0)
(-36.8388 180.195 0)
(-34.2974 183.199 0)
(-33.0299 186.913 0)
(-32.1581 190.788 0)
(-31.2792 193.944 0)
(-29.6598 195.881 0)
(-27.6541 196.338 0)
(-26.2051 195.169 0)
(-24.5138 192.477 0)
(-22.4301 190.501 0)
(-18.4068 189.727 0)
(-14.6852 191.169 0)
(-10.1756 193.833 0)
(-5.77229 196.706 0)
(-1.77869 199.65 0)
(4.06002 202.446 0)
(11.9809 206.273 0)
(24.8028 210.093 0)
(41.3596 216.038 0)
(60.0395 223.117 0)
(84.9891 233.059 0)
(117.668 242.313 0)
(215.289 251.532 0)
(279.241 254.632 0)
(-102.915 245.205 0)
(1686.56 459.118 0)
(-1316.33 7486.89 0)
(-125.727 812.225 0)
(99.6456 600.139 0)
(6.45574 438.522 0)
(-38.2151 374.18 0)
(-72.5305 331.934 0)
(-65.4134 300.4 0)
(-61.766 282.338 0)
(-55.6059 275.046 0)
(-49.0595 266.374 0)
(-46.628 259.896 0)
(-44.9614 248.263 0)
(-44.6995 232.968 0)
(-42.997 213.669 0)
(-39.9508 190.587 0)
(-34.9408 165.602 0)
(-30.6582 140.757 0)
(-28.4437 119.976 0)
(-28.269 105.872 0)
(-28.3894 99.6114 0)
(-28.5875 98.969 0)
(-29.4454 105.158 0)
(-27.6026 117.465 0)
(-22.054 137.537 0)
(-13.6678 159.369 0)
(-6.3528 180.171 0)
(-1.38317 199.666 0)
(2.16377 214.588 0)
(5.54932 229.779 0)
(11.1483 242.237 0)
(18.9493 253.96 0)
(32.2261 264.59 0)
(50.525 273.275 0)
(71.4733 282.882 0)
(97.4642 295.675 0)
(128.783 303.745 0)
(219.171 318.03 0)
(263.957 297.011 0)
(34.9055 659.138 0)
(1241.26 6730.67 0)
(6252.04 137494 0)
(-6657.76 7176.82 0)
(-257.159 691.926 0)
(-137.412 394.042 0)
(-105.063 267.496 0)
(-122.623 207.878 0)
(-100.601 169.914 0)
(-88.6243 165.701 0)
(-80.7458 167.083 0)
(-76.0977 159.946 0)
(-74.4874 152.511 0)
(-76.3105 135.41 0)
(-78.6488 112.314 0)
(-81.1371 85.052 0)
(-83.1572 53.2863 0)
(-82.3151 19.0682 0)
(-76.9976 -17.4034 0)
(-65.7751 -51.1683 0)
(-50.9029 -80.1394 0)
(-36.3114 -103.103 0)
(-22.3089 -120.785 0)
(-8.38114 -128.991 0)
(6.688 -132.813 0)
(17.9494 -126.367 0)
(22.6767 -124.748 0)
(24.1465 -124.331 0)
(22.9896 -131.654 0)
(23.2458 -139.106 0)
(24.8651 -151.84 0)
(27.362 -165.454 0)
(33.5207 -189.144 0)
(43.4149 -208.588 0)
(58.9869 -237.588 0)
(81.6253 -242.824 0)
(105.093 -227.554 0)
(139.21 -194.993 0)
(208.8 -140.058 0)
(607.946 -52.2428 0)
(6096.79 5915.03 0)
(-5434.53 120464 0)
(138093 -143542 0)
(-131953 -6250.91 0)
(-6436.49 299.664 0)
(-402.54 695.331 0)
(-217.609 859.992 0)
(-166.565 1030.18 0)
(-106.058 1160.09 0)
(-64.4932 1244.64 0)
(-61.1513 1318.99 0)
(-63.1016 1391.89 0)
(-70.272 1463.44 0)
(-83.6971 1542.11 0)
(-93.2258 1629.49 0)
(-99.8782 1720.47 0)
(-103.535 1817.33 0)
(-103.06 1914.21 0)
(-98.3406 2009.7 0)
(-88.8984 2096.16 0)
(-78.3152 2170.21 0)
(-67.5571 2230.26 0)
(-53.5345 2278 0)
(-41.0361 2308.96 0)
(-25.0736 2329.28 0)
(-14.2819 2328.04 0)
(-11.7063 2325.48 0)
(-13.0081 2316.66 0)
(-15.6209 2313.92 0)
(-17.2876 2309.01 0)
(-19.8398 2307.73 0)
(-24.7999 2303.8 0)
(-22.6163 2305.08 0)
(-14.4561 2292.48 0)
(17.534 2275.02 0)
(81.1428 2213.07 0)
(143.556 2106.11 0)
(213.097 1955.04 0)
(356.73 1740.51 0)
(6098.86 1368.17 0)
(116169 -5219.38 0)
(-120542 -125511 0)
(138093 143542 0)
(-131953 6250.91 0)
(-6436.49 -299.664 0)
(-402.54 -695.331 0)
(-217.609 -859.992 0)
(-166.565 -1030.18 0)
(-106.058 -1160.09 0)
(-64.4932 -1244.64 0)
(-61.1513 -1318.99 0)
(-63.1016 -1391.89 0)
(-70.272 -1463.44 0)
(-83.6971 -1542.11 0)
(-93.2258 -1629.49 0)
(-99.8782 -1720.47 0)
(-103.535 -1817.33 0)
(-103.06 -1914.21 0)
(-98.3406 -2009.7 0)
(-88.8984 -2096.16 0)
(-78.3152 -2170.21 0)
(-67.5571 -2230.26 0)
(-53.5345 -2278 0)
(-41.0361 -2308.96 0)
(-25.0736 -2329.28 0)
(-14.2819 -2328.04 0)
(-11.7063 -2325.48 0)
(-13.0081 -2316.66 0)
(-15.6209 -2313.92 0)
(-17.2876 -2309.01 0)
(-19.8398 -2307.73 0)
(-24.7999 -2303.8 0)
(-22.6163 -2305.08 0)
(-14.4561 -2292.48 0)
(17.534 -2275.02 0)
(81.1428 -2213.07 0)
(143.556 -2106.11 0)
(213.097 -1955.04 0)
(356.73 -1740.51 0)
(6098.86 -1368.17 0)
(116169 5219.38 0)
(-120542 125511 0)
(6252.04 -137494 0)
(-6657.76 -7176.82 0)
(-257.159 -691.926 0)
(-137.412 -394.042 0)
(-105.063 -267.496 0)
(-122.623 -207.878 0)
(-100.601 -169.914 0)
(-88.6243 -165.701 0)
(-80.7458 -167.083 0)
(-76.0977 -159.946 0)
(-74.4874 -152.511 0)
(-76.3105 -135.41 0)
(-78.6488 -112.314 0)
(-81.1371 -85.052 0)
(-83.1572 -53.2863 0)
(-82.3151 -19.0682 0)
(-76.9976 17.4034 0)
(-65.7751 51.1683 0)
(-50.9029 80.1394 0)
(-36.3114 103.103 0)
(-22.3089 120.785 0)
(-8.38114 128.991 0)
(6.688 132.813 0)
(17.9494 126.367 0)
(22.6767 124.748 0)
(24.1465 124.331 0)
(22.9896 131.654 0)
(23.2458 139.106 0)
(24.8651 151.84 0)
(27.362 165.454 0)
(33.5207 189.144 0)
(43.4149 208.588 0)
(58.9869 237.588 0)
(81.6253 242.824 0)
(105.093 227.554 0)
(139.21 194.993 0)
(208.8 140.058 0)
(607.946 52.2428 0)
(6096.79 -5915.03 0)
(-5434.53 -120464 0)
(-1316.33 -7486.89 0)
(-125.727 -812.225 0)
(99.6456 -600.139 0)
(6.45574 -438.522 0)
(-38.2151 -374.18 0)
(-72.5305 -331.934 0)
(-65.4134 -300.4 0)
(-61.766 -282.338 0)
(-55.6059 -275.046 0)
(-49.0595 -266.374 0)
(-46.628 -259.896 0)
(-44.9614 -248.263 0)
(-44.6995 -232.968 0)
(-42.997 -213.669 0)
(-39.9508 -190.587 0)
(-34.9408 -165.602 0)
(-30.6582 -140.757 0)
(-28.4437 -119.976 0)
(-28.269 -105.872 0)
(-28.3894 -99.6114 0)
(-28.5875 -98.969 0)
(-29.4454 -105.158 0)
(-27.6026 -117.465 0)
(-22.054 -137.537 0)
(-13.6678 -159.369 0)
(-6.3528 -180.171 0)
(-1.38317 -199.666 0)
(2.16377 -214.588 0)
(5.54932 -229.779 0)
(11.1483 -242.237 0)
(18.9493 -253.96 0)
(32.2261 -264.59 0)
(50.525 -273.275 0)
(71.4733 -282.882 0)
(97.4642 -295.675 0)
(128.783 -303.745 0)
(219.171 -318.03 0)
(263.957 -297.011 0)
(34.9055 -659.138 0)
(1241.26 -6730.67 0)
(-1745.29 -450.833 0)
(-21.4388 -232.199 0)
(102.955 -276.537 0)
(80.3293 -210.403 0)
(-2.35116 -161.737 0)
(-51.5261 -148.265 0)
(-52.8082 -128.604 0)
(-64.1921 -124.825 0)
(-65.3627 -129.946 0)
(-61.4981 -141.911 0)
(-57.0348 -155.243 0)
(-50.3619 -166.12 0)
(-45.3126 -173.084 0)
(-40.2971 -177.52 0)
(-36.8388 -180.195 0)
(-34.2974 -183.199 0)
(-33.0299 -186.913 0)
(-32.1581 -190.788 0)
(-31.2792 -193.944 0)
(-29.6598 -195.881 0)
(-27.6541 -196.338 0)
(-26.2051 -195.169 0)
(-24.5138 -192.477 0)
(-22.4301 -190.501 0)
(-18.4068 -189.727 0)
(-14.6852 -191.169 0)
(-10.1756 -193.833 0)
(-5.77229 -196.706 0)
(-1.77869 -199.65 0)
(4.06002 -202.446 0)
(11.9809 -206.273 0)
(24.8028 -210.093 0)
(41.3596 -216.038 0)
(60.0395 -223.117 0)
(84.9891 -233.059 0)
(117.668 -242.313 0)
(215.289 -251.532 0)
(279.241 -254.632 0)
(-102.915 -245.205 0)
(1686.56 -459.118 0)
(-1974.52 -254.896 0)
(42.2311 -141.593 0)
(120.649 -135.57 0)
(117.081 -113.231 0)
(21.6637 -77.4568 0)
(-40.6025 -68.7156 0)
(-42.8258 -53.1192 0)
(-63.0592 -46.5985 0)
(-72.0706 -47.9963 0)
(-73.4366 -59.4064 0)
(-69.9567 -73.2243 0)
(-62.1536 -88.4794 0)
(-55.6851 -101.307 0)
(-49.8494 -112.325 0)
(-45.4233 -121.553 0)
(-41.414 -129.781 0)
(-37.9715 -136.76 0)
(-35.2193 -142.276 0)
(-33.177 -146.38 0)
(-30.6967 -148.835 0)
(-27.9007 -149.413 0)
(-25.7248 -148.122 0)
(-23.1043 -145.503 0)
(-19.4038 -142.075 0)
(-14.3121 -137.893 0)
(-10.3092 -134.39 0)
(-6.71825 -130.592 0)
(-3.44173 -128.245 0)
(0.017866 -125.771 0)
(4.76613 -124.081 0)
(11.5803 -122.779 0)
(22.8162 -122.282 0)
(37.9745 -123.721 0)
(55.0715 -126.016 0)
(78.9666 -130.468 0)
(110.981 -135.618 0)
(207.299 -142.081 0)
(270.054 -151.116 0)
(-162.145 -154.963 0)
(1919.97 -246.222 0)
(-2127.36 -172.131 0)
(93.5476 -78.5871 0)
(130.286 -68.8876 0)
(136.329 -61.2976 0)
(40.5452 -38.952 0)
(-28.0735 -28.5739 0)
(-31.4954 -13.723 0)
(-59.2555 -2.50628 0)
(-77.7049 0.755635 0)
(-85.8086 -9.90195 0)
(-85.0506 -26.7977 0)
(-77.4232 -44.6954 0)
(-68.291 -59.6839 0)
(-59.8075 -71.6993 0)
(-53.6599 -80.4188 0)
(-48.951 -87.1362 0)
(-45.0706 -92.6038 0)
(-41.4281 -96.9217 0)
(-37.5999 -99.8467 0)
(-32.583 -101.391 0)
(-26.9671 -102.105 0)
(-22.4371 -101.986 0)
(-18.6866 -100.863 0)
(-15.097 -99.1033 0)
(-11.0008 -97.3024 0)
(-7.64932 -96.0595 0)
(-4.254 -94.4633 0)
(-1.12697 -93.1188 0)
(2.23352 -91.5539 0)
(6.94356 -90.085 0)
(13.7142 -88.2164 0)
(23.8947 -86.6108 0)
(37.7618 -86.4833 0)
(53.5385 -87.2175 0)
(75.7358 -89.6268 0)
(106.477 -92.8785 0)
(200.354 -97.7077 0)
(266.827 -107.963 0)
(-194.562 -111.993 0)
(2073.16 -161.112 0)
(-2216.12 -89.3342 0)
(141.72 -22.879 0)
(137.309 -10.5556 0)
(145.928 -15.7681 0)
(53.1975 -5.68318 0)
(-16.2909 3.79698 0)
(-17.7062 15.3023 0)
(-49.107 30.6354 0)
(-79.1974 40.8096 0)
(-99.988 34.2977 0)
(-103.485 14.909 0)
(-93.844 -7.14392 0)
(-81.707 -26.5064 0)
(-69.8303 -40.3307 0)
(-60.2989 -50.1442 0)
(-53.1559 -56.5375 0)
(-47.4012 -60.5881 0)
(-42.1988 -63.0524 0)
(-37.4835 -64.3617 0)
(-32.8728 -65.0597 0)
(-28.4746 -65.8945 0)
(-24.5275 -66.9069 0)