/*--------------------------------*- C++ -*----------------------------------*\
| =========                 |                                                 |
| \\      /  F ield         | OpenFOAM: The Open Source CFD Toolbox           |
|  \\    /   O peration     | Version:  v1912                                 |
|   \\  /    A nd           | Website:  www.openfoam.com                      |
|    \\/     M anipulation  |                                                 |
\*---------------------------------------------------------------------------*/
FoamFile
{
    version     2.0;
    format      ascii;
    class       volScalarField;
    location    "5.78";
    object      Ma;
}
// * * * * * * * * * * * * * * * * * * * * * * * * * * * * * * * * * * * * * //

dimensions      [0 0 0 0 0 0 0];


internalField   nonuniform List<scalar> 
1900
(
0.789951
0.0734859
0.0782344
0.0771094
0.0823837
0.0870876
0.091802
0.0960838
0.100378
0.0963942
0.789951
0.0734839
0.0782303
0.0770841
0.0823252
0.0869083
0.0912185
0.0958041
0.102571
0.108475
0.789951
0.0734836
0.0782249
0.0770655
0.082281
0.0867992
0.0910062
0.0958995
0.103139
0.114603
0.789951
0.0734839
0.0782303
0.0770841
0.0823252
0.0869083
0.0912185
0.0958041
0.102571
0.108475
0.789951
0.0734859
0.0782344
0.0771094
0.0823837
0.0870876
0.091802
0.0960838
0.100378
0.0963942
0.104527
0.143822
0.197948
0.282822
0.42725
0.125874
0.152173
0.183134
0.246973
0.387195
0.134222
0.159944
0.191024
0.251179
0.384334
0.125874
0.152173
0.183134
0.246973
0.387195
0.104527
0.143822
0.197948
0.282822
0.42725
0.936912
1.34524
1.31852
1.26211
1.24462
0.896287
1.34915
1.34874
1.2863
1.26435
0.891585
1.35769
1.35076
1.27967
1.25906
0.896287
1.34915
1.34874
1.2863
1.26435
0.936912
1.34524
1.31852
1.26211
1.24462
1.5757
1.91146
1.77973
1.25268
0.907927
0.655725
0.425546
0.252221
0.113363
0.0388528
0.0639142
0.079605
0.0866577
0.0918202
0.0939062
0.0885756
0.071923
0.0471012
0.0255538
0.0356623
0.0655417
0.0992319
0.134437
0.170599
0.207445
0.244765
0.282081
0.319729
0.356273
0.391678
0.42625
0.459216
0.491388
0.52137
0.549882
0.569163
0.582827
0.586012
0.633216
0.70221
1.52674
1.8854
1.82816
1.30325
0.952946
0.701128
0.448636
0.255586
0.106921
0.0194978
0.0578133
0.0760924
0.0838173
0.0891537
0.0917355
0.0863951
0.0690978
0.0423911
0.0146336
0.0287286
0.0620999
0.0971001
0.132982
0.16957
0.20672
0.244272
0.281773
0.319579
0.356243
0.391765
0.426414
0.459465
0.491669
0.521724
0.550217
0.569371
0.583133
0.586317
0.633598
0.698341
1.48156
1.86219
1.81973
1.29848
0.932402
0.675518
0.431162
0.251405
0.105508
0.00177897
0.0556249
0.074871
0.0828015
0.088304
0.090953
0.0856045
0.0680831
0.0406626
0.00821748
0.0260333
0.0609204
0.0963786
0.132483
0.169208
0.206454
0.244083
0.281649
0.319518
0.35624
0.391829
0.426547
0.459688
0.491992
0.5222
0.550865
0.570245
0.584435
0.588233
0.635393
0.697497
1.52674
1.8854
1.82816
1.30325
0.952946
0.701128
0.448636
0.255586
0.106921
0.0194978
0.0578133
0.0760924
0.0838173
0.0891537
0.0917355
0.0863951
0.0690978
0.0423911
0.0146336
0.0287286
0.0620999
0.0971001
0.132982
0.16957
0.20672
0.244272
0.281773
0.319579
0.356243
0.391765
0.426414
0.459465
0.491669
0.521724
0.550217
0.569371
0.583133
0.586317
0.633598
0.698341
1.5757
1.91146
1.77973
1.25268
0.907927
0.655725
0.425546
0.252221
0.113363
0.0388528
0.0639142
0.079605
0.0866577
0.0918202
0.0939062
0.0885756
0.071923
0.0471012
0.0255538
0.0356623
0.0655417
0.0992319
0.134437
0.170599
0.207445
0.244765
0.282081
0.319729
0.356273
0.391678
0.42625
0.459216
0.491388
0.52137
0.549882
0.569163
0.582827
0.586012
0.633216
0.70221
1.50132
1.62865
1.39296
0.952158
0.728665
0.554664
0.401323
0.258382
0.135993
0.0810859
0.090038
0.0979494
0.102034
0.105583
0.105985
0.0999151
0.0847566
0.0647388
0.0511035
0.0568333
0.0790454
0.108593
0.141529
0.17631
0.212241
0.248914
0.28577
0.323037
0.359361
0.394536
0.429026
0.461863
0.494091
0.523951
0.552646
0.572364
0.586123
0.58988
0.635559
0.716117
0.801051
0.855604
0.663847
0.598756
0.596963
0.535828
0.420418
0.280106
0.182877
0.144501
0.139204
0.136713
0.136212
0.136441
0.134099
0.126862
0.113915
0.0994646
0.0910425
0.0943999
0.109105
0.131921
0.160106
0.191576
0.225126
0.260023
0.295566
0.331711
0.367345
0.401797
0.435968
0.468331
0.500549
0.529933
0.558923
0.579155
0.593554
0.598651
0.641044
0.707854
0.523552
0.537303
0.616444
0.666492
0.629313
0.540846
0.414686
0.30592
0.237211
0.204455
0.190013
0.180946
0.176162
0.173188
0.168386
0.160139
0.148598
0.137281
0.131131
0.13351
0.144138
0.161851
0.185464
0.213209
0.24379
0.276315
0.310016
0.344529
0.37912
0.412464
0.446088
0.477681
0.509729
0.538331
0.567496
0.588091
0.603816
0.610031
0.64671
0.712731
0.743977
0.79706
0.831198
0.754789
0.647809
0.534333
0.42974
0.347195
0.292355
0.260307
0.239963
0.226621
0.218199
0.212458
0.205543
0.196444
0.185737
0.176221
0.171251
0.173093
0.181262
0.195361
0.215224
0.239512
0.267067
0.297002
0.328596
0.361163
0.394486
0.426467
0.459371
0.489999
0.521738
0.549408
0.578614
0.599388
0.616625
0.623368
0.653817
0.719295
0.885076
0.895738
0.87739
0.755493
0.639575
0.540363
0.456003
0.390991
0.343976
0.311698
0.288375
0.271908
0.260823
0.252655
0.243989
0.2342
0.22399
0.215574
0.211269
0.212765
0.219304
0.230798
0.24772
0.269053
0.293821
0.321222
0.350704
0.381142
0.413134
0.443636
0.475733
0.505323
0.536688
0.563406
0.592618
0.613319
0.631855
0.639186
0.66493
0.730342
0.901705
0.905843
0.869086
0.748269
0.644119
0.560979
0.493366
0.436827
0.393053
0.359571
0.33442
0.315873
0.302931
0.292745
0.282695
0.272414
0.2626
0.254924
0.251047
0.252319
0.257696
0.267222
0.281806
0.300639
0.322904
0.347879
0.375292
0.403479
0.434023
0.462886
0.493962
0.522315
0.553028
0.57858
0.60743
0.627545
0.646348
0.653398
0.675955
0.741009
0.905198
0.907852
0.855709
0.747435
0.660065
0.587553
0.529431
0.477967
0.437508
0.404448
0.378655
0.359005
0.344681
0.332826
0.321615
0.310802
0.301336
0.294031
0.290344
0.291416
0.295925
0.303963
0.316765
0.333642
0.353891
0.37683
0.4025
0.428775
0.458111
0.485621
0.515915
0.543353
0.573692
0.598467
0.627253
0.647056
0.666234
0.673423
0.694005
0.758663
0.891551
0.909954
0.846542
0.75154
0.6837
0.617474
0.566689
0.518042
0.479629
0.446843
0.420653
0.400255
0.384644
0.371354
0.359332
0.348378
0.339116
0.332277
0.328823
0.329807
0.333632
0.340403
0.351633
0.36671
0.38502
0.405887
0.42969
0.453911
0.481772
0.507673
0.536837
0.563068
0.592651
0.616362
0.644642
0.663639
0.682295
0.68943
0.709488
0.772383
0.877595
0.914714
0.849574
0.763107
0.710801
0.646934
0.600902
0.55511
0.519311
0.487325
0.461212
0.440528
0.424089
0.4098
0.397012
0.386107
0.376679
0.36984
0.366328
0.367143
0.370433
0.376298
0.386487
0.400409
0.417486
0.436967
0.459546
0.482389
0.509306
0.534128
0.562536
0.587965
0.61704
0.640023
0.667918
0.68636
0.704391
0.711655
0.731159
0.792426
0.873267
0.925084
0.861687
0.780303
0.736709
0.675399
0.634358
0.591155
0.557271
0.525992
0.500081
0.478796
0.461253
0.446027
0.432902
0.421522
0.412349
0.405697
0.402279
0.403042
0.405862
0.410823
0.419912
0.432569
0.448263
0.466182
0.487329
0.508673
0.534516
0.55822
0.585812
0.610493
0.639075
0.661454
0.688967
0.706883
0.724134
0.731565
0.751584
0.80922
0.877719
0.939939
0.878804
0.799998
0.761224
0.703515
0.666884
0.625606
0.593136
0.562401
0.53692
0.515475
0.497362
0.48172
0.468348
0.456769
0.447459
0.440682
0.437139
0.4378
0.440293
0.444683
0.45316
0.465142
0.480077
0.497023
0.5173
0.537584
0.562675
0.585545
0.612427
0.63647
0.664488
0.686304
0.713232
0.730667
0.746895
0.754184
0.775032
0.830378
0.885816
0.953781
0.895909
0.820641
0.785774
0.73133
0.698202
0.658289
0.627179
0.597193
0.571944
0.549992
0.53115
0.515256
0.501344
0.489806
0.480585
0.473862
0.47031
0.470902
0.473
0.476661
0.484301
0.495362
0.509285
0.525043
0.544307
0.563439
0.587758
0.609873
0.636136
0.659731
0.687351
0.708885
0.735485
0.752783
0.768455
0.776071
0.798296
0.849858
0.902265
0.969138
0.91207
0.841565
0.809701
0.758333
0.727804
0.688849
0.658748
0.629345
0.604681
0.582827
0.564831
0.548448
0.534264
0.52251
0.513051
0.506077
0.502318
0.502834
0.504782
0.508197
0.515629
0.526454
0.540028
0.555182
0.574043
0.592385
0.616185
0.637751
0.663403
0.686516
0.713446
0.734471
0.760186
0.776908
0.791201
0.798227
0.821893
0.869119
0.918365
0.982684
0.926473
0.860399
0.830952
0.782186
0.754504
0.716933
0.68799
0.658698
0.634177
0.612779
0.593866
0.57731
0.563211
0.551578
0.542302
0.535482
0.531808
0.532309
0.533851
0.536492
0.543059
0.553004
0.565645
0.579726
0.597875
0.615142
0.638307
0.659317
0.684457
0.70728
0.733753
0.754595
0.779808
0.79637
0.810011
0.817049
0.842089
0.887125
0.934382
0.996953
0.941644
0.879721
0.851758
0.804756
0.777629
0.740999
0.713477
0.685875
0.662452
0.641022
0.622338
0.605762
0.591572
0.579737
0.570208
0.563111
0.559255
0.55977
0.561315
0.563911
0.570492
0.580481
0.593078
0.606824
0.624966
0.641631
0.664416
0.685061
0.709684
0.732158
0.757789
0.778214
0.802372
0.818431
0.83093
0.83728
0.861504
0.906484
0.950827
1.00498
0.950855
0.892637
0.866915
0.821478
0.796007
0.760803
0.734427
0.707182
0.684006
0.662506
0.643867
0.627298
0.61296
0.600728
0.590523
0.582555
0.577875
0.577858
0.578953
0.581293
0.588023
0.59834
0.611027
0.624392
0.642429
0.658306
0.680531
0.700806
0.725165
0.747532
0.772702
0.793128
0.816813
0.832706
0.844676
0.851217
0.87575
0.925029
0.963038
1.00317
0.951082
0.897094
0.872957
0.830069
0.805752
0.772339
0.747582
0.721355
0.699121
0.678209
0.660127
0.643514
0.628697
0.615368
0.603738
0.594639
0.589705
0.590038
0.591152
0.593252
0.600324
0.611759
0.625665
0.639388
0.657925
0.673061
0.694701
0.714188
0.737628
0.759227
0.782935
0.80271
0.824993
0.840205
0.851257
0.858191
0.881617
0.939213
0.99118
0.988874
0.945613
0.89713
0.87603
0.837315
0.814685
0.782313
0.757839
0.731143
0.708539
0.686771
0.668259
0.651046
0.635766
0.621758
0.609247
0.59927
0.593563
0.593377
0.594232
0.596382
0.603875
0.61565
0.630047
0.643627
0.662766
0.677687
0.699581
0.719123
0.742389
0.764173
0.787171
0.806975
0.828277
0.843401
0.854554
0.865184
0.886855
0.968771
1.83404
0.9664
0.905937
0.886773
0.869538
0.836889
0.815566
0.785554
0.761657
0.736767
0.715457
0.695498
0.679387
0.665265
0.6545
0.646475
0.6411
0.637709
0.63659
0.638567
0.639638
0.639819
0.64366
0.649662
0.658607
0.668083
0.684822
0.698635
0.719469
0.739138
0.763027
0.786474
0.811209
0.832888
0.853962
0.869393
0.87896
0.888075
0.916958
1.77523
2.48817
1.7793
1.07592
1.04619
1.02962
1.00243
0.9835
0.954326
0.932547
0.90706
0.883011
0.85852
0.835973
0.81321
0.79229
0.772734
0.755472
0.740107
0.727942
0.720557
0.714907
0.709866
0.710348
0.71457
0.722302
0.730814
0.746865
0.758803
0.777984
0.794281
0.816266
0.835041
0.856616
0.874817
0.893868
0.912182
0.928464
0.963684
1.74831
2.45778
2.48817
1.7793
1.07592
1.04619
1.02962
1.00243
0.9835
0.954326
0.932547
0.90706
0.883011
0.85852
0.835973
0.81321
0.79229
0.772734
0.755472
0.740107
0.727942
0.720557
0.714907
0.709866
0.710348
0.71457
0.722302
0.730814
0.746865
0.758803
0.777984
0.794281
0.816266
0.835041
0.856616
0.874817
0.893868
0.912182
0.928464
0.963684
1.74831
2.45778
1.83404
0.9664
0.905937
0.886773
0.869538
0.836889
0.815566
0.785554
0.761657
0.736767
0.715457
0.695498
0.679387
0.665265
0.6545
0.646475
0.6411
0.637709
0.63659
0.638567
0.639638
0.639819
0.64366
0.649662
0.658607
0.668083
0.684822
0.698635
0.719469
0.739138
0.763027
0.786474
0.811209
0.832888
0.853962
0.869393
0.87896
0.888075
0.916958
1.77523
0.99118
0.988874
0.945613
0.89713
0.87603
0.837315
0.814685
0.782313
0.757839
0.731143
0.708539
0.686771
0.668259
0.651046
0.635766
0.621758
0.609247
0.59927
0.593563
0.593377
0.594232
0.596382
0.603875
0.61565
0.630047
0.643627
0.662766
0.677687
0.699581
0.719123
0.742389
0.764173
0.787171
0.806975
0.828277
0.843401
0.854554
0.865184
0.886855
0.968771
0.963038
1.00317
0.951082
0.897094
0.872957
0.830069
0.805752
0.772339
0.747582
0.721355
0.699121
0.678209
0.660127
0.643514
0.628697
0.615368
0.603738
0.594639
0.589705
0.590038
0.591152
0.593252
0.600324
0.611759
0.625665
0.639388
0.657925
0.673061
0.694701
0.714188
0.737628
0.759227
0.782935
0.80271
0.824993
0.840205
0.851257
0.858191
0.881617
0.939213
0.950827
1.00498
0.950855
0.892637
0.866915
0.821478
0.796007
0.760803
0.734427
0.707182
0.684006
0.662506
0.643867
0.627298
0.61296
0.600728
0.590523
0.582555
0.577875
0.577858
0.578953
0.581293
0.588023
0.59834
0.611027
0.624392
0.642429
0.658306
0.680531
0.700806
0.725165
0.747532
0.772702
0.793128
0.816813
0.832706
0.844676
0.851217
0.87575
0.925029
0.934382
0.996953
0.941644
0.879721
0.851758
0.804756
0.777629
0.740999
0.713477
0.685875
0.662452
0.641022
0.622338
0.605762
0.591572
0.579737
0.570208
0.563111
0.559255
0.55977
0.561315
0.563911
0.570492
0.580481
0.593078
0.606824
0.624966
0.641631
0.664416
0.685061
0.709684
0.732158
0.757789
0.778214
0.802372
0.818431
0.83093
0.83728
0.861504
0.906484
0.918365
0.982684
0.926473
0.860399
0.830952
0.782186
0.754504
0.716933
0.68799
0.658698
0.634177
0.612779
0.593866
0.57731
0.563211
0.551578
0.542302
0.535482
0.531808
0.532309
0.533851
0.536492
0.543059
0.553004
0.565645
0.579726
0.597875
0.615142
0.638307
0.659317
0.684457
0.70728
0.733753
0.754595
0.779808
0.79637
0.810011
0.817049
0.842089
0.887125
0.902265
0.969138
0.91207
0.841565
0.809701
0.758333
0.727804
0.688849
0.658748
0.629345
0.604681
0.582827
0.564831
0.548448
0.534264
0.52251
0.513051
0.506077
0.502318
0.502834
0.504782
0.508197
0.515629
0.526454
0.540028
0.555182
0.574043
0.592385
0.616185
0.637751
0.663403
0.686516
0.713446
0.734471
0.760186
0.776908
0.791201
0.798227
0.821893
0.869119
0.885816
0.953781
0.895909
0.820641
0.785774
0.73133
0.698202
0.658289
0.627179
0.597193
0.571944
0.549992
0.53115
0.515256
0.501344
0.489806
0.480585
0.473862
0.47031
0.470902
0.473
0.476661
0.484301
0.495362
0.509285
0.525043
0.544307
0.563439
0.587758
0.609873
0.636136
0.659731
0.687351
0.708885
0.735485
0.752783
0.768455
0.776071
0.798296
0.849858
0.877719
0.939939
0.878804
0.799998
0.761224
0.703515
0.666884
0.625606
0.593136
0.562401
0.53692
0.515475
0.497362
0.48172
0.468348
0.456769
0.447459
0.440682
0.437139
0.4378
0.440293
0.444683
0.45316
0.465142
0.480077
0.497023
0.5173
0.537584
0.562675
0.585545
0.612427
0.63647
0.664488
0.686304
0.713232
0.730667
0.746895
0.754184
0.775032
0.830378
0.873267
0.925084
0.861687
0.780303
0.736709
0.675399
0.634358
0.591155
0.557271
0.525992
0.500081
0.478796
0.461253
0.446027
0.432902
0.421522
0.412349
0.405697
0.402279
0.403042
0.405862
0.410823
0.419912
0.432569
0.448263
0.466182
0.487329
0.508673
0.534516
0.55822
0.585812
0.610493
0.639075
0.661454
0.688967
0.706883
0.724134
0.731565
0.751584
0.80922
0.877595
0.914714
0.849574
0.763107
0.710801
0.646934
0.600902
0.55511
0.519311
0.487325
0.461212
0.440528
0.424089
0.4098
0.397012
0.386107
0.376679
0.36984
0.366328
0.367143
0.370433
0.376298
0.386487
0.400409
0.417486
0.436967
0.459546
0.482389
0.509306
0.534128
0.562536
0.587965
0.61704
0.640023
0.667918
0.68636
0.704391
0.711655
0.731159
0.792426
0.891551
0.909954
0.846542
0.75154
0.6837
0.617474
0.566689
0.518042
0.479629
0.446843
0.420653
0.400255
0.384644
0.371354
0.359332
0.348378
0.339116
0.332277
0.328823
0.329807
0.333632
0.340403
0.351633
0.36671
0.38502
0.405887
0.42969
0.453911
0.481772
0.507673
0.536837
0.563068
0.592651
0.616362
0.644642
0.663639
0.682295
0.68943
0.709488
0.772383
0.905198
0.907852
0.855709
0.747435
0.660065
0.587553
0.529431
0.477967
0.437508
0.404448
0.378655
0.359005
0.344681
0.332826
0.321615
0.310802
0.301336
0.294031
0.290344
0.291416
0.295925
0.303963
0.316765
0.333642
0.353891
0.37683
0.4025
0.428775
0.458111
0.485621
0.515915
0.543353
0.573692
0.598467
0.627253
0.647056
0.666234
0.673423
0.694005
0.758663
0.901705
0.905843
0.869086
0.748269
0.644119
0.560979
0.493366
0.436827
0.393053
0.359571
0.33442
0.315873
0.302931
0.292745
0.282695
0.272414
0.2626
0.254924
0.251047
0.252319
0.257696
0.267222
0.281806
0.300639
0.322904
0.347879
0.375292
0.403479
0.434023
0.462886
0.493962
0.522315
0.553028
0.57858
0.60743
0.627545
0.646348
0.653398
0.675955
0.741009
0.885076
0.895738
0.87739
0.755493
0.639575
0.540363
0.456003
0.390991
0.343976
0.311698
0.288375
0.271908
0.260823
0.252655
0.243989
0.2342
0.22399
0.215574
0.211269
0.212765
0.219304
0.230798
0.24772
0.269053
0.293821
0.321222
0.350704
0.381142
0.413134
0.443636
0.475733
0.505323
0.536688
0.563406
0.592618
0.613319
0.631855
0.639186
0.66493
0.730342
0.743977
0.79706
0.831198
0.754789
0.647809
0.534333
0.42974
0.347195
0.292355
0.260307
0.239963
0.226621
0.218199
0.212458
0.205543
0.196444
0.185737
0.176221
0.171251
0.173093
0.181262
0.195361
0.215224
0.239512
0.267067
0.297002
0.328596
0.361163
0.394486
0.426467
0.459371
0.489999
0.521738
0.549408
0.578614
0.599388
0.616625
0.623368
0.653817
0.719295
0.523552
0.537303
0.616444
0.666492
0.629313
0.540846
0.414686
0.30592
0.237211
0.204455
0.190013
0.180946
0.176162
0.173188
0.168386
0.160139
0.148598
0.137281
0.131131
0.13351
0.144138
0.161851
0.185464
0.213209
0.24379
0.276315
0.310016
0.344529
0.37912
0.412464
0.446088
0.477681
0.509729
0.538331
0.567496
0.588091
0.603816
0.610031
0.64671
0.712731
0.801051
0.855604
0.663847
0.598756
0.596963
0.535828
0.420418
0.280106
0.182877
0.144501
0.139204
0.136713
0.136212
0.136441
0.134099
0.126862
0.113915
0.0994646
0.0910425
0.0943999
0.109105
0.131921
0.160106
0.191576
0.225126
0.260023
0.295566
0.331711
0.367345
0.401797
0.435968
0.468331
0.500549
0.529933
0.558923
0.579155
0.593554
0.598651
0.641044
0.707854
1.50132
1.62865
1.39296
0.952158
0.728665
0.554664
0.401323
0.258382
0.135993
0.0810859
0.090038
0.0979494
0.102034
0.105583
0.105985
0.0999151
0.0847566
0.0647388
0.0511035
0.0568333
0.0790454
0.108593
0.141529
0.17631
0.212241
0.248914
0.28577
0.323037
0.359361
0.394536
0.429026
0.461863
0.494091
0.523951
0.552646
0.572364
0.586123
0.58988
0.635559
0.716117
)
;

boundaryField
{
    inlet
    {
        type            calculated;
        value           uniform 0;
    }
    outlet
    {
        type            calculated;
        value           nonuniform List<scalar> 
165
(
1.50132
0.801051
0.523552
0.743977
0.885076
0.901705
0.905198
0.891551
0.877595
0.873267
0.877719
0.885816
0.902265
0.918365
0.934382
0.950827
0.963038
0.99118
1.83404
2.48817
2.48817
1.7793
1.07592
1.04619
1.02962
1.00243
0.9835
0.954326
0.932547
0.90706
0.883011
0.85852
0.835973
0.81321
0.79229
0.772734
0.755472
0.740107
0.727942
0.720557
0.714907
0.709866
0.710348
0.71457
0.722302
0.730814
0.746865
0.758803
0.777984
0.794281
0.816266
0.835041
0.856616
0.874817
0.893868
0.912182
0.928464
0.963684
1.74831
2.45778
0.716117
0.707854
0.712731
0.719295
0.730342
0.741009
0.758663
0.772383
0.792426
0.80922
0.830378
0.849858
0.869119
0.887125
0.906484
0.925029
0.939213
0.968771
1.77523
2.45778
0.70221
0.698341
0.697497
0.698341
0.70221
2.45778
1.77523
0.968771
0.939213
0.925029
0.906484
0.887125
0.869119
0.849858
0.830378
0.80922
0.792426
0.772383
0.758663
0.741009
0.730342
0.719295
0.712731
0.707854
0.716117
2.48817
1.7793
1.07592
1.04619
1.02962
1.00243
0.9835
0.954326
0.932547
0.90706
0.883011
0.85852
0.835973
0.81321
0.79229
0.772734
0.755472
0.740107
0.727942
0.720557
0.714907
0.709866
0.710348
0.71457
0.722302
0.730814
0.746865
0.758803
0.777984
0.794281
0.816266
0.835041
0.856616
0.874817
0.893868
0.912182
0.928464
0.963684
1.74831
2.45778
2.48817
1.83404
0.99118
0.963038
0.950827
0.934382
0.918365
0.902265
0.885816
0.877719
0.873267
0.877595
0.891551
0.905198
0.901705
0.885076
0.743977
0.523552
0.801051
1.50132
)
;
    }
    obstacle
    {
        type            calculated;
        value           nonuniform List<scalar> 
40
(
0.789951
0.0734859
0.0782344
0.0771094
0.0823836
0.0870874
0.0918005
0.0960813
0.100315
0.0955498
0.789951
0.0734859
0.0782344
0.0771094
0.0823836
0.0870874
0.0918005
0.0960813
0.100315
0.0955498
0.102462
0.140626
0.194411
0.279534
0.420637
0.102462
0.140626
0.194411
0.279534
0.420637
0.926906
1.34265
1.31758
1.26158
1.24361
0.926906
1.34265
1.31758
1.26158
1.24361
)
;
    }
    empty
    {
        type            empty;
    }
}


// ************************************************************************* //
