/*--------------------------------*- C++ -*----------------------------------*\
| =========                 |                                                 |
| \\      /  F ield         | OpenFOAM: The Open Source CFD Toolbox           |
|  \\    /   O peration     | Version:  v1912                                 |
|   \\  /    A nd           | Website:  www.openfoam.com                      |
|    \\/     M anipulation  |                                                 |
\*---------------------------------------------------------------------------*/
FoamFile
{
    version     2.0;
    format      ascii;
    class       volVectorField;
    location    "0.08";
    object      grad(T);
}
// * * * * * * * * * * * * * * * * * * * * * * * * * * * * * * * * * * * * * //

dimensions      [0 -1 0 1 0 0 0];


internalField   nonuniform List<vector> 
1900
(
(0 0 0)
(0 0 0)
(0 0 0)
(0 0 0)
(0 -2.1684e-15 0)
(0 0 0)
(0 -2.1684e-15 0)
(0 0 0)
(0 0 0)
(0 -2.1684e-15 0)
(0 0 0)
(0 0 0)
(0 0 0)
(0 0 0)
(0 0 0)
(2.1684e-15 0 0)
(0 2.1684e-15 0)
(-2.1684e-15 0 0)
(0 0 0)
(0 0 0)
(0 0 0)
(0 0 0)
(0 0 0)
(0 0 0)
(0 0 0)
(2.1684e-15 0 0)
(0 0 0)
(-2.1684e-15 0 0)
(2.1684e-15 0 0)
(-2.1684e-15 0 0)
(0 0 0)
(0 0 0)
(0 2.1684e-15 0)
(0 0 0)
(0 0 0)
(0 0 0)
(0 -2.1684e-15 0)
(0 0 0)
(0 0 0)
(0 0 0)
(0 0 0)
(2.1684e-15 0 0)
(-2.1684e-15 0 0)
(2.1684e-15 0 0)
(-2.1684e-15 2.1684e-15 0)
(0 0 0)
(0 0 0)
(0 0 0)
(0 0 0)
(0 0 0)
(2.9462e-15 0 9.82067e-16)
(2.74617e-13 0 -1.18882e-15)
(6.50371e-12 -5.72218e-14 -1.50584e-15)
(1.38113e-11 -8.64487e-12 0)
(-9.83896e-09 -3.95437e-10 -6.45358e-15)
(-2.45517e-16 0 9.82067e-16)
(2.27956e-13 0 1.18882e-15)
(7.39366e-13 -2.98156e-13 1.50584e-15)
(-1.49517e-10 -1.66285e-11 0)
(-3.16455e-09 -7.28326e-10 0)
(2.45517e-16 0 0)
(2.97205e-16 0 0)
(-4.64287e-12 -6.02335e-14 0)
(-2.90201e-10 -1.64273e-14 0)
(-3.48808e-09 1.29072e-13 0)
(-2.45517e-15 0 9.82067e-16)
(1.7119e-13 0 1.18882e-15)
(7.35601e-13 2.98156e-13 1.50584e-15)
(-1.494e-10 1.66162e-11 0)
(-3.16448e-09 7.28384e-10 0)
(0 0 -2.9462e-15)
(2.74617e-13 0 -1.18882e-15)
(6.52328e-12 1.14444e-13 -1.50584e-15)
(1.384e-11 8.6613e-12 -4.10683e-15)
(-9.83889e-09 3.95366e-10 6.45358e-15)
(-7.69358e-08 3.09853e-08 2.73788e-15)
(7.97009e-05 3.16462e-07 -2.31667e-15)
(0.00380558 -5.41666e-05 0)
(0.0267804 -0.00518347 1.77258e-15)
(-0.000695336 -0.0450186 -7.96319e-16)
(2.0148e-08 3.04107e-08 -1.36894e-15)
(6.07224e-05 1.04762e-06 1.15834e-15)
(0.00176212 -5.30054e-05 0)
(0.00714864 -0.00746268 -1.10771e-15)
(-0.00219695 -0.0550929 1.98326e-16)
(2.42144e-07 1.25943e-13 0)
(6.11029e-05 -9.26669e-15 0)
(0.000866317 -4.41712e-14 0)
(0.0030905 -3.18883e-14 4.42994e-16)
(-0.000454568 -9.82756e-14 -3.96652e-16)
(2.01479e-08 -3.04104e-08 -1.36894e-15)
(6.07224e-05 -1.04762e-06 1.15834e-15)
(0.00176212 5.30054e-05 0)
(0.00714864 0.00746268 -1.10771e-15)
(-0.00219695 0.0550929 1.98326e-16)
(-7.69358e-08 -3.09851e-08 1.36894e-15)
(7.97009e-05 -3.16462e-07 -9.53079e-24)
(0.00380558 5.41666e-05 0)
(0.0267804 0.00518347 -1.56109e-19)
(-0.000695336 0.0450186 7.96319e-16)
(-0.0405293 0.0752104 0)
(-0.00422527 0.102482 0)
(0.0197768 0.0111185 0)
(0.00255561 0.000161906 0)
(4.17214e-05 1.80813e-07 0)
(4.8704e-08 9.951e-12 0)
(2.67305e-12 3.94255e-15 0)
(0 -3.94255e-15 0)
(0 0 0)
(0 -3.94255e-15 0)
(0 0 0)
(0 3.94255e-15 0)
(0 -3.94255e-15 0)
(0 0 0)
(1.97128e-15 -3.94255e-15 0)
(-1.97128e-15 0 0)
(0 0 0)
(1.97128e-15 0 0)
(9.85638e-16 -1.18277e-14 0)
(-2.95692e-15 7.88511e-15 0)
(0 -3.94255e-15 0)
(0 3.94255e-15 0)
(1.97128e-15 0 0)
(9.85638e-16 -1.18277e-14 0)
(-2.95692e-15 7.88511e-15 0)
(0 -3.94255e-15 0)
(0 0 0)
(0 0 0)
(0 -3.94255e-15 0)
(0 -3.94255e-15 0)
(0 -3.94255e-15 0)
(0 0 0)
(0 0 0)
(-6.60969e-12 0 0)
(-1.19715e-07 0 0)
(-0.000105046 1.18277e-14 0)
(-0.00689117 1.57702e-14 0)
(-0.0607406 5.91383e-14 0)
(-0.0502224 0 0)
(0.00373194 5.91383e-14 0)
(-0.0111853 -0.00478632 0)
(-0.00218118 0.0625419 0)
(0.00551824 0.00790963 0)
(0.000898241 0.000119527 0)
(1.66019e-05 1.18179e-07 0)
(1.98583e-08 4.75866e-12 0)
(1.06252e-12 0 0)
(-1.97128e-15 0 0)
(0 0 0)
(0 3.94255e-15 0)
(1.97128e-15 0 0)
(0 0 0)
(-1.97128e-15 0 0)
(0 0 0)
(0 3.94255e-15 0)
(0 0 0)
(0 0 0)
(0 0 0)
(1.97128e-15 -3.94255e-15 0)
(0 -7.88511e-15 0)
(0 0 0)
(0 0 0)
(-1.97128e-15 0 0)
(1.97128e-15 -3.94255e-15 0)
(0 -7.88511e-15 0)
(-1.97128e-15 3.94255e-15 0)
(0 0 0)
(0 0 0)
(0 0 0)
(0 0 0)
(0 0 0)
(0 0 0)
(0 0 0)
(-6.60772e-12 0 0)
(-1.19715e-07 -7.88511e-15 0)
(-0.000105046 1.57702e-14 0)
(-0.00689117 4.73106e-14 0)
(-0.0607406 7.0966e-14 0)
(-0.0502224 -3.5483e-14 0)
(0.00373194 -5.12532e-14 0)
(-0.00410442 7.49085e-14 0)
(-0.000531901 1.06449e-13 0)
(0.00161754 0 0)
(0.000254665 -3.94255e-15 0)
(6.95e-06 3.94255e-15 0)
(1.43246e-08 -5.91383e-14 0)
(1.28823e-12 -3.94255e-15 0)
(0 0 0)
(0 0 0)
(1.97128e-15 0 0)
(-1.97128e-15 0 0)
(0 -3.94255e-15 0)
(0 0 0)
(0 0 0)
(1.97128e-15 0 0)
(-1.97128e-15 0 0)
(0 0 0)
(0 0 0)
(0 0 0)
(0 -3.94255e-15 0)
(0 0 0)
(0 -3.94255e-15 0)
(0 -3.94255e-15 0)
(0 0 0)
(1.97128e-15 -3.94255e-15 0)
(0 0 0)
(-1.97128e-15 0 0)
(0 -3.94255e-15 0)
(0 0 0)
(0 0 0)
(0 0 0)
(0 0 0)
(0 -3.94255e-15 0)
(-6.61166e-12 0 0)
(-1.19715e-07 -3.94255e-15 0)
(-0.000105046 0 0)
(-0.00689117 -3.94255e-15 0)
(-0.0607406 1.18277e-14 0)
(-0.0502224 3.94255e-15 0)
(0.00373194 -9.85638e-14 0)
(-0.0111853 0.00478632 0)
(-0.00218118 -0.0625419 0)
(0.00551824 -0.00790963 0)
(0.000898241 -0.000119527 0)
(1.66019e-05 -1.18179e-07 0)
(1.98583e-08 -4.82569e-12 0)
(1.08026e-12 0 0)
(-1.97128e-15 3.94255e-15 0)
(0 0 0)
(0 -3.94255e-15 0)
(0 0 0)
(0 0 0)
(0 0 0)
(0 0 0)
(0 -3.94255e-15 0)
(0 0 0)
(0 0 0)
(0 0 0)
(0 0 0)
(0 0 0)
(0 0 0)
(-1.97128e-15 0 0)
(0 -3.94255e-15 0)
(1.97128e-15 0 0)
(0 0 0)
(0 -3.94255e-15 0)
(-1.97128e-15 0 0)
(0 -3.94255e-15 0)
(1.97128e-15 0 0)
(0 0 0)
(0 0 0)
(-1.97128e-15 0 0)
(0 -3.94255e-15 0)
(-6.60772e-12 0 0)
(-1.19715e-07 1.97128e-14 0)
(-0.000105046 -1.97128e-14 0)
(-0.00689117 -2.75979e-14 0)
(-0.0607406 -2.36553e-14 0)
(-0.0502224 -1.57702e-14 0)
(0.00373194 1.57702e-14 0)
(-0.0405293 -0.0752104 0)
(-0.00422527 -0.102482 0)
(0.0197768 -0.0111185 0)
(0.00255561 -0.000161906 0)
(4.17214e-05 -1.80813e-07 0)
(4.8704e-08 -9.951e-12 0)
(2.69276e-12 0 0)
(0 0 0)
(0 0 0)
(0 3.94255e-15 0)
(0 0 0)
(0 0 0)
(0 3.94255e-15 0)
(0 0 0)
(0 0 0)
(0 0 0)
(0 0 0)
(0 0 0)
(0 0 0)
(1.97128e-15 3.94255e-15 0)
(-1.97128e-15 0 0)
(0 0 0)
(0 7.88511e-15 0)
(0 0 0)
(1.97128e-15 3.94255e-15 0)
(-1.97128e-15 0 0)
(0 0 0)
(0 7.88511e-15 0)
(0 0 0)
(0 3.94255e-15 0)
(0 0 0)
(0 0 0)
(0 7.88511e-15 0)
(-6.60575e-12 0 0)
(-1.19715e-07 3.94255e-15 0)
(-0.000105046 -7.88511e-15 0)
(-0.00689117 -3.94255e-15 0)
(-0.0607406 -1.18277e-14 0)
(-0.0502224 -7.88511e-15 0)
(0.00373194 3.94255e-14 0)
(-0.0069619 -0.0876152 0)
(0.0403854 -0.0610811 0)
(0.0532144 -0.00637339 0)
(0.00595611 -9.17253e-05 0)
(8.91166e-05 -1.0169e-07 0)
(9.99245e-08 -5.56183e-12 0)
(5.45352e-12 0 0)
(0 -1.1902e-15 0)
(0 0 0)
(0 -1.1902e-15 0)
(0 0 0)
(0 0 0)
(0 -1.1902e-15 0)
(0 0 0)
(0 0 0)
(0 1.1902e-15 0)
(0 0 0)
(0 0 0)
(0 0 0)
(0 -1.1902e-15 0)
(0 0 0)
(0 0 0)
(0 0 0)
(0 0 0)
(0 -1.1902e-15 0)
(0 0 0)
(0 1.1902e-15 0)
(0 0 0)
(0 0 0)
(0 -1.1902e-15 0)
(0 0 0)
(0 0 0)
(0 0 0)
(-6.6104e-12 1.1902e-15 0)
(-1.19715e-07 -1.30923e-14 0)
(-0.000105046 1.07118e-14 0)
(-0.00689117 1.1902e-14 0)
(-0.0607406 -2.49943e-14 0)
(-0.0502224 5.95102e-15 0)
(0.00373194 1.54727e-14 0)
(-0.00370841 -0.0111786 0)
(0.0501406 -0.00782659 0)
(0.0606181 -0.00097034 0)
(0.0068737 -1.653e-05 0)
(0.000104696 -2.05366e-08 0)
(1.1923e-07 -1.1902e-12 0)
(6.57112e-12 -1.1902e-15 0)
(0 0 0)
(0 0 0)
(0 0 0)
(0 0 0)
(0 0 0)
(0 0 0)
(0 0 0)
(0 0 0)
(0 -1.1902e-15 0)
(0 0 0)
(0 0 0)
(0 0 0)
(0 0 0)
(0 0 0)
(0 0 0)
(0 0 0)
(0 0 0)
(0 1.1902e-15 0)
(1.1902e-15 0 0)
(-1.1902e-15 0 0)
(0 0 0)
(0 0 0)
(0 0 0)
(0 0 0)
(0 0 0)
(0 0 0)
(-6.61516e-12 -1.1902e-15 0)
(-1.19715e-07 9.52164e-15 0)
(-0.000105046 -5.95102e-15 0)
(-0.00689117 -1.1902e-15 0)
(-0.0607406 -4.76082e-15 0)
(-0.0502224 -3.57061e-15 0)
(0.00373194 -4.76082e-15 0)
(-0.00373182 -0.000103053 0)
(0.0502224 -0.000127471 0)
(0.0607404 -1.81331e-05 0)
(0.00689114 -3.62911e-07 0)
(0.000105046 -5.03558e-10 0)
(1.19714e-07 -3.09453e-14 0)
(6.60207e-12 0 0)
(0 0 0)
(0 0 0)
(0 0 0)
(0 0 0)
(0 0 0)
(0 0 0)
(0 0 0)
(0 0 0)
(0 0 0)
(0 0 0)
(0 0 0)
(0 0 0)
(0 0 0)
(0 0 0)
(0 0 0)
(0 0 0)
(0 0 0)
(0 -1.1902e-15 0)
(1.1902e-15 1.1902e-15 0)
(0 -1.1902e-15 0)
(0 1.1902e-15 0)
(-1.1902e-15 0 0)
(0 0 0)
(0 0 0)
(1.1902e-15 1.1902e-15 0)
(0 0 0)
(-6.60207e-12 1.1902e-15 0)
(-1.19715e-07 4.76082e-15 0)
(-0.000105046 -2.38041e-15 0)
(-0.00689117 1.90433e-14 0)
(-0.0607406 2.49943e-14 0)
(-0.0502224 4.76082e-15 0)
(0.00373194 5.95102e-15 0)
(-0.00373194 -4.55327e-08 0)
(0.0502224 -1.70608e-07 0)
(0.0607406 -2.64519e-08 0)
(0.00689117 -5.86052e-10 0)
(0.000105046 -8.50996e-13 0)
(1.19715e-07 -7.14123e-15 0)
(6.60207e-12 1.1902e-15 0)
(0 -1.1902e-15 0)
(0 0 0)
(0 0 0)
(0 1.1902e-15 0)
(0 0 0)
(0 0 0)
(0 0 0)
(0 0 0)
(0 0 0)
(0 -1.1902e-15 0)
(0 0 0)
(0 0 0)
(0 -1.1902e-15 0)
(0 0 0)
(0 0 0)
(0 0 0)
(0 0 0)
(0 0 0)
(0 -1.1902e-15 0)
(0 0 0)
(0 -1.1902e-15 0)
(0 0 0)
(0 0 0)
(1.1902e-15 0 0)
(-1.1902e-15 -1.1902e-15 0)
(0 0 0)
(-6.61159e-12 -1.1902e-15 0)
(-1.19715e-07 3.57061e-15 0)
(-0.000105046 1.30923e-14 0)
(-0.00689117 2.85649e-14 0)
(-0.0607406 1.1902e-14 0)
(-0.0502224 -2.02335e-14 0)
(0.00373194 -5.95102e-15 0)
(-0.00373194 -1.17592e-12 0)
(0.0502224 -1.18449e-11 0)
(0.0607406 -1.91266e-12 0)
(0.00689117 -3.68963e-14 0)
(0.000105046 -1.66629e-14 0)
(1.19715e-07 -1.54727e-14 0)
(6.60564e-12 0 0)
(1.1902e-15 0 0)
(1.1902e-15 1.1902e-15 0)
(-1.1902e-15 0 0)
(1.1902e-15 -1.1902e-15 0)
(-1.1902e-15 0 0)
(0 0 0)
(0 0 0)
(0 0 0)
(-1.1902e-15 0 0)
(0 0 0)
(1.1902e-15 0 0)
(-1.1902e-15 0 0)
(0 0 0)
(1.1902e-15 0 0)
(0 0 0)
(0 0 0)
(0 0 0)
(0 0 0)
(0 0 0)
(0 0 0)
(0 0 0)
(0 0 0)
(0 0 0)
(0 0 0)
(0 0 0)
(0 0 0)
(-6.59969e-12 0 0)
(-1.19715e-07 1.1902e-15 0)
(-0.000105046 2.02335e-14 0)
(-0.00689117 7.14123e-15 0)
(-0.0607406 -1.1902e-15 0)
(-0.0502224 -2.61845e-14 0)
(0.00373194 0 0)
(-0.00373194 -2.38041e-15 0)
(0.0502224 7.14123e-15 0)
(0.0607406 9.52164e-15 0)
(0.00689117 0 0)
(0.000105046 0 0)
(1.19715e-07 7.14123e-15 0)
(6.61635e-12 0 0)
(0 1.1902e-15 0)
(0 -1.1902e-15 0)
(0 0 0)
(0 -1.1902e-15 0)
(0 1.1902e-15 0)
(0 0 0)
(0 0 0)
(0 0 0)
(0 0 0)
(0 1.1902e-15 0)
(0 0 0)
(0 0 0)
(0 1.1902e-15 0)
(0 0 0)
(0 0 0)
(0 0 0)
(0 0 0)
(0 0 0)
(0 0 0)
(0 0 0)
(0 0 0)
(0 0 0)
(0 0 0)
(0 0 0)
(0 0 0)
(0 0 0)
(-6.60921e-12 1.1902e-15 0)
(-1.19715e-07 -8.33143e-15 0)
(-0.000105046 -5.95102e-15 0)
(-0.00689117 -1.42825e-14 0)
(-0.0607406 9.52164e-15 0)
(-0.0502224 1.78531e-14 0)
(0.00373194 9.52164e-15 0)
(-0.00373194 4.76082e-15 0)
(0.0502224 -1.78531e-14 0)
(0.0607406 -2.14237e-14 0)
(0.00689117 -3.57061e-15 0)
(0.000105046 1.66629e-14 0)
(1.19715e-07 4.76082e-15 0)
(6.60088e-12 1.1902e-15 0)
(0 0 0)
(0 1.1902e-15 0)
(-1.1902e-15 0 0)
(1.1902e-15 0 0)
(1.1902e-15 0 0)
(-1.1902e-15 0 0)
(0 0 0)
(0 0 0)
(0 0 0)
(0 0 0)
(0 1.1902e-15 0)
(0 0 0)
(0 0 0)
(0 0 0)
(0 0 0)
(0 0 0)
(0 0 0)
(0 0 0)
(0 0 0)
(-1.1902e-15 0 0)
(1.1902e-15 0 0)
(0 0 0)
(0 0 0)
(0 0 0)
(0 0 0)
(1.1902e-15 0 0)
(-6.60802e-12 -1.1902e-15 0)
(-1.19715e-07 2.38041e-14 0)
(-0.000105046 0 0)
(-0.00689117 -7.14123e-15 0)
(-0.0607406 -5.95102e-15 0)
(-0.0502224 1.90433e-14 0)
(0.00373194 -1.42825e-14 0)
(-0.00373194 -9.52164e-15 0)
(0.0502224 -1.42825e-14 0)
(0.0607406 -2.38041e-15 0)
(0.00689117 -3.57061e-15 0)
(0.000105046 8.33143e-15 0)
(1.19715e-07 3.57061e-15 0)
(6.61278e-12 0 0)
(-1.1902e-15 0 0)
(1.1902e-15 -1.1902e-15 0)
(-1.1902e-15 0 0)
(1.1902e-15 1.1902e-15 0)
(0 0 0)
(-1.1902e-15 0 0)
(0 0 0)
(0 0 0)
(0 0 0)
(1.1902e-15 0 0)
(-1.1902e-15 0 0)
(0 0 0)
(0 0 0)
(0 0 0)
(0 0 0)
(0 0 0)
(0 0 0)
(0 0 0)
(0 0 0)
(0 0 0)
(0 0 0)
(0 0 0)
(0 0 0)
(0 0 0)
(0 0 0)
(0 0 0)
(-6.58659e-12 0 0)
(-1.19715e-07 3.57061e-15 0)
(-0.000105046 -8.33143e-15 0)
(-0.00689117 -2.38041e-14 0)
(-0.0607406 -3.21355e-14 0)
(-0.0502224 -1.30923e-14 0)
(0.00373194 -5.95102e-15 0)
(-0.00373194 7.14123e-15 0)
(0.0502224 1.42825e-14 0)
(0.0607406 2.61845e-14 0)
(0.00689117 0 0)
(0.000105046 -1.07118e-14 0)
(1.19715e-07 3.57061e-15 0)
(6.5985e-12 -1.1902e-15 0)
(0 0 0)
(-1.1902e-15 0 0)
(1.1902e-15 0 0)
(0 0 0)
(0 -1.1902e-15 0)
(0 -1.1902e-15 0)
(0 0 0)
(0 0 0)
(0 -1.1902e-15 0)
(0 -1.1902e-15 0)
(0 -1.1902e-15 0)
(0 0 0)
(0 0 0)
(0 0 0)
(0 0 0)
(0 0 0)
(0 0 0)
(0 0 0)
(0 0 0)
(0 0 0)
(0 1.1902e-15 0)
(0 0 0)
(0 0 0)
(0 0 0)
(0 0 0)
(0 0 0)
(-6.60326e-12 0 0)
(-1.19715e-07 -2.02335e-14 0)
(-0.000105046 -2.14237e-14 0)
(-0.00689117 -7.14123e-15 0)
(-0.0607406 -2.38041e-15 0)
(-0.0502224 3.57061e-15 0)
(0.00373194 5.95102e-15 0)
(-0.00373194 7.14123e-15 0)
(0.0502224 -4.76082e-15 0)
(0.0607406 0 0)
(0.00689117 2.38041e-14 0)
(0.000105046 -3.57061e-15 0)
(1.19715e-07 -1.1902e-15 0)
(6.60683e-12 0 0)
(0 0 0)
(0 0 0)
(0 0 0)
(0 0 0)
(-1.1902e-15 0 0)
(0 0 0)
(1.1902e-15 0 0)
(-1.1902e-15 0 0)
(-1.1902e-15 0 0)
(1.1902e-15 0 0)
(1.1902e-15 0 0)
(0 0 0)
(0 0 0)
(0 0 0)
(0 0 0)
(0 0 0)
(0 0 0)
(0 0 0)
(0 0 0)
(1.1902e-15 0 0)
(0 -1.1902e-15 0)
(-1.1902e-15 0 0)
(0 0 0)
(1.1902e-15 0 0)
(-1.1902e-15 0 0)
(1.1902e-15 0 0)
(-6.60802e-12 0 0)
(-1.19715e-07 2.38041e-15 0)
(-0.000105046 2.02335e-14 0)
(-0.00689117 2.85649e-14 0)
(-0.0607406 -1.30923e-14 0)
(-0.0502224 2.49943e-14 0)
(0.00373194 7.14123e-15 0)
(-0.00373194 5.95102e-15 0)
(0.0502224 1.42825e-14 0)
(0.0607406 -8.33143e-15 0)
(0.00689117 4.76082e-15 0)
(0.000105046 2.73747e-14 0)
(1.19715e-07 -5.95102e-15 0)
(6.59969e-12 0 0)
(0 0 0)
(0 0 0)
(0 0 0)
(0 0 0)
(0 0 0)
(0 1.1902e-15 0)
(0 0 0)
(0 0 0)
(0 1.1902e-15 0)
(0 1.1902e-15 0)
(0 0 0)
(0 0 0)
(0 0 0)
(0 0 0)
(0 0 0)
(0 0 0)
(0 0 0)
(0 0 0)
(0 0 0)
(0 0 0)
(0 0 0)
(0 0 0)
(0 0 0)
(0 0 0)
(0 0 0)
(0 0 0)
(-6.59969e-12 0 0)
(-1.19715e-07 -1.66629e-14 0)
(-0.000105046 1.90433e-14 0)
(-0.00689117 1.42825e-14 0)
(-0.0607406 8.33143e-15 0)
(-0.0502224 4.76082e-15 0)
(0.00373194 1.30923e-14 0)
(-0.00373194 2.02335e-14 0)
(0.0502224 -8.33143e-15 0)
(0.0607406 -2.38041e-15 0)
(0.00689117 -2.73747e-14 0)
(0.000105046 9.52164e-15 0)
(1.19715e-07 1.42825e-14 0)
(6.61159e-12 0 0)
(0 0 0)
(0 0 0)
(0 0 0)
(0 0 0)
(0 0 0)
(0 0 0)
(0 0 0)
(0 0 0)
(0 0 0)
(0 0 0)
(0 0 0)
(0 0 0)
(0 0 0)
(0 0 0)
(0 0 0)
(-1.1902e-15 -1.1902e-15 0)
(1.1902e-15 0 0)
(0 0 0)
(0 0 0)
(0 0 0)
(0 0 0)
(0 0 0)
(0 0 0)
(0 0 0)
(0 0 0)
(0 0 0)
(-6.6223e-12 0 0)
(-1.19715e-07 -2.02335e-14 0)
(-0.000105046 -3.57061e-15 0)
(-0.00689117 -2.38041e-15 0)
(-0.0607406 1.90433e-14 0)
(-0.0502224 -1.1902e-14 0)
(0.00373194 4.76082e-15 0)
(-0.00373194 -7.14123e-15 0)
(0.0502224 -1.42825e-14 0)
(0.0607406 2.61845e-14 0)
(0.00689117 8.33143e-15 0)
(0.000105046 0 0)
(1.19715e-07 1.1902e-14 0)
(6.58659e-12 0 0)
(0 0 0)
(0 0 0)
(1.1902e-15 0 0)
(-1.1902e-15 0 0)
(0 0 0)
(0 0 0)
(0 0 0)
(0 0 0)
(0 0 0)
(0 0 0)
(0 0 0)
(0 0 0)
(0 0 0)
(0 0 0)
(0 0 0)
(0 1.1902e-15 0)
(0 0 0)
(0 0 0)
(0 0 0)
(0 0 0)
(0 0 0)
(0 0 0)
(0 0 0)
(0 0 0)
(0 0 0)
(0 0 0)
(-6.61873e-12 0 0)
(-1.19715e-07 2.38041e-14 0)
(-0.000105046 -8.33143e-15 0)
(-0.00689117 -1.42825e-14 0)
(-0.0607406 -2.73747e-14 0)
(-0.0502224 1.1902e-15 0)
(0.00373194 -1.66629e-14 0)
(-0.00373194 -1.04869e-11 0)
(0.0502224 -1.0406e-11 0)
(0.0607406 -1.08832e-11 0)
(0.00689117 -1.09606e-11 0)
(0.000105046 -1.09225e-11 0)
(1.19715e-07 -1.09558e-11 0)
(6.59969e-12 -1.09261e-11 0)
(0 -1.09308e-11 0)
(0 -1.09225e-11 0)
(0 -1.09177e-11 0)
(0 -1.09213e-11 0)
(0 -1.09225e-11 0)
(0 -1.09308e-11 0)
(0 -1.09201e-11 0)
(0 -1.09213e-11 0)
(0 -1.09237e-11 0)
(0 -1.09177e-11 0)
(0 -1.09142e-11 0)
(0 -1.09201e-11 0)
(0 -1.09201e-11 0)
(0 -1.09201e-11 0)
(0 -1.09213e-11 0)
(0 -1.09201e-11 0)
(0 -1.09201e-11 0)
(0 -1.09201e-11 0)
(0 -1.09201e-11 0)
(0 -1.09213e-11 0)
(0 -1.09189e-11 0)
(0 -1.09142e-11 0)
(0 -1.09285e-11 0)
(0 -1.09166e-11 0)
(0 -1.09213e-11 0)
(0 -1.09142e-11 0)
(-6.59969e-12 -1.09213e-11 0)
(-1.19715e-07 -1.09166e-11 0)
(-0.000105046 -1.09189e-11 0)
(-0.00689117 -1.09725e-11 0)
(-0.0607406 -1.08928e-11 0)
(-0.0502224 -1.04405e-11 0)
(0.00373194 -1.04845e-11 0)
(-0.00373194 -1.63646e-07 0)
(0.0502224 -1.63893e-07 0)
(0.0607406 -1.68988e-07 0)
(0.00689117 -1.69615e-07 0)
(0.000105046 -1.69627e-07 0)
(1.19715e-07 -1.69627e-07 0)
(6.61159e-12 -1.69627e-07 0)
(3.57061e-15 -1.69627e-07 0)
(1.30923e-14 -1.69627e-07 0)
(0 -1.69627e-07 0)
(-3.57061e-15 -1.69627e-07 0)
(-9.52164e-15 -1.69627e-07 0)
(2.38041e-15 -1.69627e-07 0)
(9.52164e-15 -1.69627e-07 0)
(-4.76082e-15 -1.69627e-07 0)
(4.76082e-15 -1.69627e-07 0)
(8.33143e-15 -1.69627e-07 0)
(-1.1902e-15 -1.69627e-07 0)
(-4.76082e-15 -1.69627e-07 0)
(0 -1.69627e-07 0)
(-2.38041e-15 -1.69627e-07 0)
(0 -1.69627e-07 0)
(0 -1.69627e-07 0)
(1.1902e-15 -1.69627e-07 0)
(1.1902e-15 -1.69627e-07 0)
(-1.1902e-15 -1.69627e-07 0)
(0 -1.69627e-07 0)
(7.14123e-15 -1.69627e-07 0)
(-9.52164e-15 -1.69627e-07 0)
(-3.57061e-15 -1.69627e-07 0)
(7.14123e-15 -1.69627e-07 0)
(3.57061e-15 -1.69627e-07 0)
(0 -1.69627e-07 0)
(-6.6223e-12 -1.69627e-07 0)
(-1.19715e-07 -1.69627e-07 0)
(-0.000105046 -1.69627e-07 0)
(-0.00689117 -1.69615e-07 0)
(-0.0607406 -1.68988e-07 0)
(-0.0502224 -1.63893e-07 0)
(0.00373194 -1.63646e-07 0)
(-0.00373194 -0.000127863 0)
(0.0502224 -0.000128102 0)
(0.0607406 -0.000131198 0)
(0.00689117 -0.000131586 0)
(0.000105046 -0.000131594 0)
(1.19715e-07 -0.000131594 0)
(6.58302e-12 -0.000131594 0)
(-1.90433e-14 -0.000131594 0)
(1.42825e-14 -0.000131594 0)
(3.57061e-15 -0.000131594 0)
(3.57061e-15 -0.000131594 0)
(7.14123e-15 -0.000131594 0)
(-9.52164e-15 -0.000131594 0)
(0 -0.000131594 0)
(1.54727e-14 -0.000131594 0)
(7.14123e-15 -0.000131594 0)
(-1.1902e-14 -0.000131594 0)
(-1.1902e-15 -0.000131594 0)
(1.1902e-15 -0.000131594 0)
(-4.76082e-15 -0.000131594 0)
(1.1902e-15 -0.000131594 0)
(1.30923e-14 -0.000131594 0)
(0 -0.000131594 0)
(-1.07118e-14 -0.000131594 0)
(3.57061e-15 -0.000131594 0)
(-1.07118e-14 -0.000131594 0)
(-3.57061e-15 -0.000131594 0)
(1.1902e-15 -0.000131594 0)
(4.76082e-15 -0.000131594 0)
(1.42825e-14 -0.000131594 0)
(-1.54727e-14 -0.000131594 0)
(-1.30923e-14 -0.000131594 0)
(-9.52164e-15 -0.000131594 0)
(-6.59016e-12 -0.000131594 0)
(-1.19715e-07 -0.000131594 0)
(-0.000105046 -0.000131594 0)
(-0.00689117 -0.000131586 0)
(-0.0607406 -0.000131198 0)
(-0.0502224 -0.000128102 0)
(0.00373194 -0.000127863 0)
(-0.00373217 -0.0078186 0)
(0.0502192 -0.00777919 0)
(0.0607372 -0.00792508 0)
(0.00689079 -0.00794368 0)
(0.000105039 -0.00794404 0)
(1.19705e-07 -0.00794404 0)
(6.57826e-12 -0.00794404 0)
(-1.1902e-14 -0.00794404 0)
(2.49943e-14 -0.00794404 0)
(-8.33143e-15 -0.00794404 0)
(2.38041e-15 -0.00794404 0)
(-1.1902e-15 -0.00794404 0)
(-1.1902e-14 -0.00794404 0)
(2.38041e-14 -0.00794404 0)
(-8.33143e-15 -0.00794404 0)
(-2.73747e-14 -0.00794404 0)
(1.54727e-14 -0.00794404 0)
(1.30923e-14 -0.00794404 0)
(-1.78531e-14 -0.00794404 0)
(-1.1902e-15 -0.00794404 0)
(1.07118e-14 -0.00794404 0)
(9.52164e-15 -0.00794404 0)
(3.57061e-14 -0.00794404 0)
(2.38041e-14 -0.00794404 0)
(-2.38041e-15 -0.00794404 0)
(-3.33257e-14 -0.00794404 0)
(-3.45159e-14 -0.00794404 0)
(1.07118e-14 -0.00794404 0)
(2.02335e-14 -0.00794404 0)
(0 -0.00794404 0)
(-2.85649e-14 -0.00794404 0)
(-1.1902e-14 -0.00794404 0)
(1.30923e-14 -0.00794404 0)
(-6.61397e-12 -0.00794404 0)
(-1.19705e-07 -0.00794404 0)
(-0.000105039 -0.00794404 0)
(-0.00689079 -0.00794368 0)
(-0.0607372 -0.00792508 0)
(-0.0502192 -0.00777919 0)
(0.00373217 -0.0078186 0)
(-0.00369397 -0.0656203 0)
(0.0501198 -0.0655513 0)
(0.0605821 -0.0670951 0)
(0.0068729 -0.06725 0)
(0.000104694 -0.0672531 0)
(1.19214e-07 -0.0672531 0)
(6.55446e-12 -0.0672531 0)
(2.38041e-14 -0.0672531 0)
(2.26139e-14 -0.0672531 0)
(1.1902e-14 -0.0672531 0)
(0 -0.0672531 0)
(-8.33143e-15 -0.0672531 0)
(8.33143e-15 -0.0672531 0)
(-2.38041e-15 -0.0672531 0)
(-3.33257e-14 -0.0672531 0)
(-3.09453e-14 -0.0672531 0)
(0 -0.0672531 0)
(-9.52164e-15 -0.0672531 0)
(1.78531e-14 -0.0672531 0)
(1.07118e-14 -0.0672531 0)
(2.38041e-15 -0.0672531 0)
(1.78531e-14 -0.0672531 0)
(-3.57061e-15 -0.0672531 0)
(2.14237e-14 -0.0672531 0)
(1.1902e-15 -0.0672531 0)
(-2.49943e-14 -0.0672531 0)
(2.38041e-15 -0.0672531 0)
(-4.76082e-15 -0.0672531 0)
(-2.38041e-15 -0.0672531 0)
(-5.95102e-15 -0.0672531 0)
(-1.1902e-14 -0.0672531 0)
(3.57061e-14 -0.0672531 0)
(1.07118e-14 -0.0672531 0)
(-6.59611e-12 -0.0672531 0)
(-1.19214e-07 -0.0672531 0)
(-0.000104694 -0.0672531 0)
(-0.0068729 -0.06725 0)
(-0.0605821 -0.0670951 0)
(-0.0501198 -0.0655513 0)
(0.00369397 -0.0656203 0)
(-0.00366567 -0.0540641 0)
(0.048798 -0.0536816 0)
(0.0591003 -0.0550369 0)
(0.00673855 -0.0551352 0)
(0.000102074 -0.0551381 0)
(1.15404e-07 -0.0551381 0)
(6.28428e-12 -0.0551381 0)
(-2.49943e-14 -0.0551381 0)
(-1.54727e-14 -0.0551381 0)
(7.14123e-15 -0.0551381 0)
(-5.95102e-15 -0.0551381 0)
(1.30923e-14 -0.0551381 0)
(1.54727e-14 -0.0551381 0)
(0 -0.0551381 0)
(9.52164e-15 -0.0551381 0)
(-7.14123e-15 -0.0551381 0)
(-1.66629e-14 -0.0551381 0)
(5.95102e-15 -0.0551381 0)
(1.07118e-14 -0.0551381 0)
(-1.1902e-14 -0.0551381 0)
(7.14123e-15 -0.0551381 0)
(9.52164e-15 -0.0551381 0)
(3.57061e-15 -0.0551381 0)
(-7.14123e-15 -0.0551381 0)
(-2.26139e-14 -0.0551381 0)
(-4.76082e-15 -0.0551381 0)
(1.1902e-14 -0.0551381 0)
(8.33143e-15 -0.0551381 0)
(-8.33143e-15 -0.0551381 0)
(-9.52164e-15 -0.0551381 0)
(2.02335e-14 -0.0551381 0)
(1.90433e-14 -0.0551381 0)
(-1.54727e-14 -0.0551381 0)
(-6.31642e-12 -0.0551381 0)
(-1.15404e-07 -0.0551381 0)
(-0.000102074 -0.0551381 0)
(-0.00673855 -0.0551352 0)
(-0.0591003 -0.0550369 0)
(-0.048798 -0.0536816 0)
(0.00366567 -0.0540641 0)
(-0.00332542 0.00386531 0)
(0.0491823 0.0042184 0)
(0.0591814 0.00426412 0)
(0.00677538 0.00430255 0)
(0.000101864 0.00430233 0)
(1.15211e-07 0.00430233 0)
(6.3069e-12 0.00430233 0)
(-1.54727e-14 0.00430233 0)
(3.57061e-15 0.00430233 0)
(1.1902e-14 0.00430233 0)
(4.76082e-15 0.00430233 0)
(0 0.00430233 0)
(1.42825e-14 0.00430233 0)
(-4.76082e-15 0.00430233 0)
(-9.52164e-15 0.00430233 0)
(-1.1902e-15 0.00430233 0)
(-7.14123e-15 0.00430233 0)
(5.95102e-15 0.00430233 0)
(1.1902e-15 0.00430233 0)
(-1.42825e-14 0.00430233 0)
(-3.57061e-15 0.00430233 0)
(1.07118e-14 0.00430233 0)
(1.30923e-14 0.00430233 0)
(-7.14123e-15 0.00430233 0)
(-7.14123e-15 0.00430233 0)
(2.38041e-15 0.00430233 0)
(1.42825e-14 0.00430233 0)
(0 0.00430233 0)
(-1.1902e-14 0.00430233 0)
(-1.30923e-14 0.00430233 0)
(-4.76082e-15 0.00430233 0)
(1.66629e-14 0.00430233 0)
(1.07118e-14 0.00430233 0)
(-6.33903e-12 0.00430233 0)
(-1.15211e-07 0.00430233 0)
(-0.000101864 0.00430233 0)
(-0.00677538 0.00430255 0)
(-0.0591814 0.00426412 0)
(-0.0491823 0.0042184 0)
(0.00332542 0.00386531 0)
(-0.00332542 -0.00386531 0)
(0.0491823 -0.0042184 0)
(0.0591814 -0.00426412 0)
(0.00677538 -0.00430255 0)
(0.000101864 -0.00430233 0)
(1.15211e-07 -0.00430233 0)
(6.30213e-12 -0.00430233 0)
(-3.57061e-15 -0.00430233 0)
(-1.07118e-14 -0.00430233 0)
(5.95102e-15 -0.00430233 0)
(4.76082e-15 -0.00430233 0)
(-1.07118e-14 -0.00430233 0)
(0 -0.00430233 0)
(1.1902e-15 -0.00430233 0)
(2.38041e-15 -0.00430233 0)
(-2.38041e-15 -0.00430233 0)
(7.14123e-15 -0.00430233 0)
(7.14123e-15 -0.00430233 0)
(-2.38041e-15 -0.00430233 0)
(2.38041e-15 -0.00430233 0)
(8.33143e-15 -0.00430233 0)
(-4.76082e-15 -0.00430233 0)
(-5.95102e-15 -0.00430233 0)
(7.14123e-15 -0.00430233 0)
(0 -0.00430233 0)
(-7.14123e-15 -0.00430233 0)
(0 -0.00430233 0)
(-4.76082e-15 -0.00430233 0)
(-7.14123e-15 -0.00430233 0)
(1.1902e-15 -0.00430233 0)
(1.30923e-14 -0.00430233 0)
(-7.14123e-15 -0.00430233 0)
(-5.95102e-15 -0.00430233 0)
(-6.31523e-12 -0.00430233 0)
(-1.15211e-07 -0.00430233 0)
(-0.000101864 -0.00430233 0)
(-0.00677538 -0.00430255 0)
(-0.0591814 -0.00426412 0)
(-0.0491823 -0.0042184 0)
(0.00332542 -0.00386531 0)
(-0.00366567 0.0540641 0)
(0.048798 0.0536816 0)
(0.0591003 0.0550369 0)
(0.00673855 0.0551352 0)
(0.000102074 0.0551381 0)
(1.15404e-07 0.0551381 0)
(6.2819e-12 0.0551381 0)
(-1.90433e-14 0.0551381 0)
(-1.1902e-15 0.0551381 0)
(-4.76082e-15 0.0551381 0)
(-4.76082e-15 0.0551381 0)
(1.42825e-14 0.0551381 0)
(5.95102e-15 0.0551381 0)
(-8.33143e-15 0.0551381 0)
(1.1902e-15 0.0551381 0)
(1.07118e-14 0.0551381 0)
(-1.30923e-14 0.0551381 0)
(-1.54727e-14 0.0551381 0)
(1.66629e-14 0.0551381 0)
(5.95102e-15 0.0551381 0)
(2.38041e-15 0.0551381 0)
(-9.52164e-15 0.0551381 0)
(-1.42825e-14 0.0551381 0)
(1.42825e-14 0.0551381 0)
(2.38041e-14 0.0551381 0)
(-8.33143e-15 0.0551381 0)
(-1.1902e-14 0.0551381 0)
(-2.38041e-15 0.0551381 0)
(-2.38041e-15 0.0551381 0)
(7.14123e-15 0.0551381 0)
(4.76082e-15 0.0551381 0)
(-2.38041e-15 0.0551381 0)
(-2.38041e-15 0.0551381 0)
(-6.29856e-12 0.0551381 0)
(-1.15404e-07 0.0551381 0)
(-0.000102074 0.0551381 0)
(-0.00673855 0.0551352 0)
(-0.0591003 0.0550369 0)
(-0.048798 0.0536816 0)
(0.00366567 0.0540641 0)
(-0.00369397 0.0656203 0)
(0.0501198 0.0655513 0)
(0.0605821 0.0670951 0)
(0.0068729 0.06725 0)
(0.000104694 0.0672531 0)
(1.19214e-07 0.0672531 0)
(6.57231e-12 0.0672531 0)
(-4.76082e-15 0.0672531 0)
(-1.54727e-14 0.0672531 0)
(1.54727e-14 0.0672531 0)
(1.90433e-14 0.0672531 0)
(-9.52164e-15 0.0672531 0)
(-8.33143e-15 0.0672531 0)
(1.78531e-14 0.0672531 0)
(-1.78531e-14 0.0672531 0)
(-1.30923e-14 0.0672531 0)
(5.95102e-15 0.0672531 0)
(-1.90433e-14 0.0672531 0)
(2.73747e-14 0.0672531 0)
(-3.57061e-15 0.0672531 0)
(-4.76082e-15 0.0672531 0)
(3.09453e-14 0.0672531 0)
(-1.90433e-14 0.0672531 0)
(8.33143e-15 0.0672531 0)
(2.73747e-14 0.0672531 0)
(-2.85649e-14 0.0672531 0)
(-1.66629e-14 0.0672531 0)
(1.1902e-15 0.0672531 0)
(-4.76082e-15 0.0672531 0)
(-9.52164e-15 0.0672531 0)
(-2.14237e-14 0.0672531 0)
(1.78531e-14 0.0672531 0)
(2.02335e-14 0.0672531 0)
(-6.57469e-12 0.0672531 0)
(-1.19214e-07 0.0672531 0)
(-0.000104694 0.0672531 0)
(-0.0068729 0.06725 0)
(-0.0605821 0.0670951 0)
(-0.0501198 0.0655513 0)
(0.00369397 0.0656203 0)
(-0.00373217 0.0078186 0)
(0.0502192 0.00777919 0)
(0.0607372 0.00792508 0)
(0.00689079 0.00794368 0)
(0.000105039 0.00794404 0)
(1.19705e-07 0.00794404 0)
(6.58183e-12 0.00794404 0)
(-3.21355e-14 0.00794404 0)
(2.38041e-15 0.00794404 0)
(2.85649e-14 0.00794404 0)
(0 0.00794404 0)
(-1.54727e-14 0.00794404 0)
(4.76082e-15 0.00794404 0)
(2.73747e-14 0.00794404 0)
(8.33143e-15 0.00794404 0)
(-2.38041e-14 0.00794404 0)
(8.33143e-15 0.00794404 0)
(3.68963e-14 0.00794404 0)
(3.57061e-15 0.00794404 0)
(-4.0467e-14 0.00794404 0)
(2.38041e-15 0.00794404 0)
(2.02335e-14 0.00794404 0)
(-7.14123e-15 0.00794404 0)
(-2.38041e-15 0.00794404 0)
(-1.66629e-14 0.00794404 0)
(-1.54727e-14 0.00794404 0)
(1.1902e-14 0.00794404 0)
(1.78531e-14 0.00794404 0)
(0 0.00794404 0)
(-1.54727e-14 0.00794404 0)
(-7.14123e-15 0.00794404 0)
(8.33143e-15 0.00794404 0)
(-1.66629e-14 0.00794404 0)
(-6.61873e-12 0.00794404 0)
(-1.19705e-07 0.00794404 0)
(-0.000105039 0.00794404 0)
(-0.00689079 0.00794368 0)
(-0.0607372 0.00792508 0)
(-0.0502192 0.00777919 0)
(0.00373217 0.0078186 0)
(-0.00373194 0.000127863 0)
(0.0502224 0.000128102 0)
(0.0607406 0.000131198 0)
(0.00689117 0.000131586 0)
(0.000105046 0.000131594 0)
(1.19715e-07 0.000131594 0)
(6.60088e-12 0.000131594 0)
(-2.61845e-14 0.000131594 0)
(9.52164e-15 0.000131594 0)
(1.90433e-14 0.000131594 0)
(-2.38041e-15 0.000131594 0)
(-5.95102e-15 0.000131594 0)
(-2.38041e-15 0.000131594 0)
(4.76082e-15 0.000131594 0)
(8.33143e-15 0.000131594 0)
(-7.14123e-15 0.000131594 0)
(1.30923e-14 0.000131594 0)
(8.33143e-15 0.000131594 0)
(-2.14237e-14 0.000131594 0)
(2.38041e-15 0.000131594 0)
(-5.95102e-15 0.000131594 0)
(-1.1902e-14 0.000131594 0)
(1.30923e-14 0.000131594 0)
(9.52164e-15 0.000131594 0)
(-2.14237e-14 0.000131594 0)
(-8.33143e-15 0.000131594 0)
(1.42825e-14 0.000131594 0)
(0 0.000131594 0)
(2.38041e-15 0.000131594 0)
(1.42825e-14 0.000131594 0)
(0 0.000131594 0)
(-1.1902e-14 0.000131594 0)
(1.1902e-15 0.000131594 0)
(-6.59254e-12 0.000131594 0)
(-1.19715e-07 0.000131594 0)
(-0.000105046 0.000131594 0)
(-0.00689117 0.000131586 0)
(-0.0607406 0.000131198 0)
(-0.0502224 0.000128102 0)
(0.00373194 0.000127863 0)
(-0.00373194 1.63646e-07 0)
(0.0502224 1.63893e-07 0)
(0.0607406 1.68988e-07 0)
(0.00689117 1.69615e-07 0)
(0.000105046 1.69627e-07 0)
(1.19715e-07 1.69627e-07 0)
(6.63777e-12 1.69627e-07 0)
(9.52164e-15 1.69627e-07 0)
(-7.14123e-15 1.69627e-07 0)
(-9.52164e-15 1.69627e-07 0)
(-4.76082e-15 1.69627e-07 0)
(5.95102e-15 1.69627e-07 0)
(9.52164e-15 1.69627e-07 0)
(-1.1902e-15 1.69627e-07 0)
(0 1.69627e-07 0)
(0 1.69627e-07 0)
(4.76082e-15 1.69627e-07 0)
(0 1.69627e-07 0)
(-4.76082e-15 1.69627e-07 0)
(0 1.69627e-07 0)
(-5.95102e-15 1.69627e-07 0)
(-9.52164e-15 1.69627e-07 0)
(0 1.69627e-07 0)
(2.38041e-15 1.69627e-07 0)
(-2.02335e-14 1.69627e-07 0)
(1.1902e-15 1.69627e-07 0)
(1.54727e-14 1.69627e-07 0)
(1.1902e-15 1.69627e-07 0)
(-1.66629e-14 1.69627e-07 0)
(0 1.69627e-07 0)
(1.90433e-14 1.69627e-07 0)
(1.66629e-14 1.69627e-07 0)
(2.14237e-14 1.69627e-07 0)
(-6.61278e-12 1.69627e-07 0)
(-1.19715e-07 1.69627e-07 0)
(-0.000105046 1.69627e-07 0)
(-0.00689117 1.69615e-07 0)
(-0.0607406 1.68988e-07 0)
(-0.0502224 1.63893e-07 0)
(0.00373194 1.63646e-07 0)
(-0.00373194 1.04893e-11 0)
(0.0502224 1.0431e-11 0)
(0.0607406 1.08868e-11 0)
(0.00689117 1.09606e-11 0)
(0.000105046 1.09035e-11 0)
(1.19715e-07 1.09713e-11 0)
(6.59969e-12 1.09225e-11 0)
(0 1.09166e-11 0)
(0 1.0913e-11 0)
(0 1.09249e-11 0)
(0 1.09213e-11 0)
(0 1.09308e-11 0)
(0 1.09166e-11 0)
(0 1.09201e-11 0)
(0 1.09177e-11 0)
(0 1.09201e-11 0)
(0 1.09177e-11 0)
(0 1.09142e-11 0)
(0 1.09177e-11 0)
(0 1.09201e-11 0)
(0 1.09177e-11 0)
(0 1.09249e-11 0)
(0 1.09285e-11 0)
(0 1.09249e-11 0)
(0 1.09273e-11 0)
(0 1.09439e-11 0)
(1.1902e-15 1.09261e-11 0)
(0 1.09285e-11 0)
(-1.1902e-15 1.09261e-11 0)
(0 1.09439e-11 0)
(0 1.09273e-11 0)
(0 1.09249e-11 0)
(0 1.09082e-11 0)
(-6.60683e-12 1.09023e-11 0)
(-1.19715e-07 1.09392e-11 0)
(-0.000105046 1.09177e-11 0)
(-0.00689117 1.09344e-11 0)
(-0.0607406 1.08309e-11 0)
(-0.0502224 1.04274e-11 0)
(0.00373194 1.04881e-11 0)
(-0.00373194 4.76082e-15 0)
(0.0502224 1.1902e-14 0)
(0.0607406 8.33143e-15 0)
(0.00689117 2.61845e-14 0)