/*--------------------------------*- C++ -*----------------------------------*\
| =========                 |                                                 |
| \\      /  F ield         | OpenFOAM: The Open Source CFD Toolbox           |
|  \\    /   O peration     | Version:  v1912                                 |
|   \\  /    A nd           | Website:  www.openfoam.com                      |
|    \\/     M anipulation  |                                                 |
\*---------------------------------------------------------------------------*/
FoamFile
{
    version     2.0;
    format      ascii;
    class       volScalarField;
    location    "5.78";
    object      T;
}
// * * * * * * * * * * * * * * * * * * * * * * * * * * * * * * * * * * * * * //

dimensions      [0 0 0 1 0 0 0];


internalField   nonuniform List<scalar> 
1900
(
1.18047
0.915442
0.92681
0.947372
0.960433
0.966658
0.96842
0.968592
0.968961
0.968381
1.18047
0.915445
0.92681
0.947375
0.960451
0.966656
0.968342
0.96863
0.968967
0.968207
1.18047
0.915447
0.926812
0.94738
0.960467
0.96666
0.968281
0.96852
0.968703
0.968219
1.18047
0.915445
0.92681
0.947375
0.960451
0.966656
0.968342
0.96863
0.968967
0.968207
1.18047
0.915442
0.92681
0.947372
0.960433
0.966658
0.96842
0.968592
0.968961
0.968381
0.972237
0.967661
0.970024
0.975834
1.00869
0.967535
0.96448
0.965903
0.970402
0.991558
0.966923
0.963672
0.964726
0.970054
0.990618
0.967535
0.96448
0.965903
0.970402
0.991558
0.972237
0.967661
0.970024
0.975834
1.00869
0.799817
0.691243
0.680885
0.677871
0.665602
0.820331
0.706939
0.691455
0.685477
0.675813
0.82058
0.700807
0.685192
0.679984
0.671274
0.820331
0.706939
0.691455
0.685477
0.675813
0.799817
0.691243
0.680885
0.677871
0.665602
0.579039
0.500938
0.50237
0.552309
0.571383
0.593853
0.594712
0.577918
0.546059
0.518232
0.501305
0.49085
0.482119
0.473737
0.465816
0.459228
0.4548
0.452194
0.450555
0.4493
0.448219
0.44727
0.446452
0.445783
0.445261
0.444895
0.444674
0.44465
0.444859
0.445389
0.446096
0.4472
0.448347
0.450092
0.451765
0.455289
0.460145
0.467633
0.453044
0.396215
0.598768
0.496376
0.495502
0.554364
0.57576
0.598561
0.597752
0.579717
0.546961
0.518557
0.501433
0.490902
0.482149
0.473797
0.46585
0.459239
0.454798
0.452189
0.450551
0.449297
0.448216
0.447267
0.446449
0.445779
0.445256
0.44489
0.444669
0.444644
0.444852
0.445382
0.446089
0.447194
0.448339
0.450088
0.451752
0.455295
0.460154
0.467657
0.453338
0.397315
0.597523
0.495834
0.491601
0.549385
0.573338
0.596372
0.596342
0.579687
0.547341
0.518728
0.501489
0.490921
0.482163
0.473821
0.465862
0.459243
0.454797
0.452188
0.45055
0.449296
0.448216
0.447266
0.446448
0.445777
0.445255
0.444888
0.444666
0.444641
0.44485
0.445379
0.446086
0.447192
0.448336
0.450087
0.451748
0.455298
0.460162
0.467694
0.453518
0.397717
0.598768
0.496376
0.495502
0.554364
0.57576
0.598561
0.597752
0.579717
0.546961
0.518557
0.501433
0.490902
0.482149
0.473797
0.46585
0.459239
0.454798
0.452189
0.450551
0.449297
0.448216
0.447267
0.446449
0.445779
0.445256
0.44489
0.444669
0.444644
0.444852
0.445382
0.446089
0.447194
0.448339
0.450088
0.451752
0.455295
0.460154
0.467657
0.453338
0.397315
0.579039
0.500938
0.50237
0.552309
0.571383
0.593853
0.594712
0.577918
0.546059
0.518232
0.501305
0.49085
0.482119
0.473737
0.465816
0.459228
0.4548
0.452194
0.450555
0.4493
0.448219
0.44727
0.446452
0.445783
0.445261
0.444895
0.444674
0.44465
0.444859
0.445389
0.446096
0.4472
0.448347
0.450092
0.451765
0.455289
0.460145
0.467633
0.453044
0.396215
0.533139
0.507993
0.51594
0.555414
0.57059
0.589385
0.588014
0.571298
0.542312
0.516667
0.500625
0.490536
0.481903
0.473454
0.465596
0.459139
0.45479
0.452207
0.450568
0.449309
0.448226
0.447278
0.446462
0.445796
0.445277
0.444914
0.444695
0.444673
0.444882
0.44541
0.446117
0.447214
0.448366
0.450094
0.451803
0.455253
0.460085
0.467532
0.452918
0.397378
0.524228
0.513078
0.53126
0.543405
0.560229
0.577638
0.573518
0.557122
0.533336
0.512462
0.498889
0.48968
0.48124
0.472787
0.465093
0.458928
0.454773
0.452251
0.450612
0.449343
0.448257
0.447311
0.446501
0.445842
0.44533
0.444974
0.44476
0.444742
0.444954
0.445479
0.446182
0.447267
0.448426
0.450132
0.451878
0.455211
0.459953
0.467222
0.453647
0.397352
0.491602
0.494593
0.511179
0.532323
0.555075
0.562057
0.55643
0.541774
0.523372
0.507344
0.49654
0.488308
0.480141
0.47184
0.46442
0.458634
0.454741
0.452313
0.450682
0.449403
0.448313
0.447372
0.446571
0.445923
0.445422
0.445076
0.444871
0.44486
0.445077
0.445596
0.446296
0.447365
0.448533
0.450216
0.451992
0.455179
0.459798
0.466915
0.454672
0.399749
0.472752
0.492433
0.510632
0.526276
0.543457
0.545842
0.539424
0.527647
0.513912
0.502235
0.493839
0.486563
0.478682
0.470669
0.463641
0.458297
0.454699
0.452384
0.450769
0.449483
0.448392
0.447458
0.44667
0.446036
0.445549
0.445219
0.445024
0.445021
0.445246
0.445758
0.446452
0.447504
0.448681
0.450343
0.452129
0.455179
0.459657
0.466771
0.455618
0.401778
0.468514
0.493502
0.508788
0.520451
0.531644
0.530314
0.524502
0.515527
0.505517
0.497458
0.490936
0.484447
0.476915
0.469316
0.462802
0.457944
0.454657
0.452463
0.450872
0.449584
0.448496
0.447574
0.446802
0.446185
0.445714
0.4454
0.445219
0.445228
0.445457
0.445959
0.446644
0.447674
0.448852
0.450492
0.452275
0.455201
0.459517
0.466755
0.456457
0.403289
0.467228
0.493023
0.505336
0.513778
0.519323
0.517059
0.512095
0.505528
0.498665
0.493287
0.488187
0.482213
0.475031
0.467924
0.461998
0.457638
0.454648
0.452572
0.45101
0.449728
0.448648
0.44774
0.446987
0.446389
0.445937
0.44564
0.445476
0.445499
0.445729
0.446222
0.446895
0.447902
0.449076
0.450698
0.452472
0.455309
0.459496
0.466919
0.457241
0.4046
0.464472
0.489602
0.499436
0.506059
0.507563
0.505772
0.501994
0.497735
0.493337
0.489628
0.485386
0.479741
0.472985
0.466503
0.461227
0.457376
0.454669
0.452715
0.451191
0.449922
0.448857
0.447969
0.447236
0.446657
0.446222
0.445939
0.44579
0.445825
0.446047
0.446521
0.447173
0.448147
0.449303
0.450896
0.452649
0.455397
0.459467
0.467178
0.458122
0.406112
0.459662
0.484553
0.493861
0.497494
0.497626
0.496418
0.494166
0.491828
0.489209
0.486541
0.482752
0.477338
0.471065
0.465281
0.460663
0.45728
0.454832
0.452988
0.451506
0.450258
0.449214
0.448347
0.447634
0.447072
0.446651
0.446379
0.446242
0.446286
0.446494
0.446943
0.447566
0.448499
0.449626
0.451183
0.452913
0.45558
0.459585
0.467512
0.458927
0.407735
0.454467
0.479089
0.488106
0.488671
0.490388
0.489865
0.48886
0.487627
0.48598
0.483773
0.480107
0.474934
0.469249
0.464209
0.460242
0.457288
0.455078
0.453344
0.451914
0.450698
0.449681
0.448837
0.448143
0.447597
0.447186
0.446921
0.446789
0.446832
0.447016
0.447429
0.44801
0.44889
0.449975
0.451486
0.453183
0.455776
0.459722
0.467852
0.459852
0.409692
0.450917
0.474585
0.482281
0.48298
0.485844
0.485436
0.484978
0.484398
0.483304
0.481252
0.477594
0.472759
0.467765
0.463467
0.460114
0.457565
0.455571
0.453952
0.452584
0.451409
0.450422
0.449599
0.448917
0.448376
0.447965
0.447696
0.447556
0.447582
0.44773
0.448091
0.448615
0.449428
0.450455
0.451908
0.453568
0.456089
0.460006
0.468265
0.460776
0.411879
0.448557
0.471154
0.47808
0.479821
0.482886
0.482436
0.482328
0.482032
0.481071
0.478895
0.475257
0.470888
0.466622
0.463033
0.460209
0.457968
0.456165
0.454649
0.453346
0.452215
0.451262
0.450464
0.449798
0.449267
0.448861
0.448595
0.448451
0.448465
0.448577
0.448889
0.449355
0.450102
0.45107
0.452466
0.45409
0.456548
0.46044
0.468805
0.46182
0.414244
0.447071
0.468539
0.474991
0.477451
0.480814
0.480332
0.480432
0.48019
0.479131
0.476796
0.47332
0.469491
0.46596
0.46304
0.460651
0.458703
0.45707
0.455664
0.454435
0.453356
0.452435
0.451652
0.450989
0.450455
0.450042
0.449773
0.449613
0.449601
0.449671
0.449925
0.450327
0.451002
0.451911
0.453247
0.454839
0.457237
0.461112
0.469564
0.463137
0.417141
0.446095
0.467007
0.473269
0.47637
0.479787
0.479125
0.47918
0.478761
0.477458
0.475059
0.471842
0.468622
0.465708
0.463306
0.461275
0.459549
0.458044
0.456715
0.455538
0.454499
0.453617
0.452869
0.452239
0.451734
0.451344
0.451091
0.450928
0.450907
0.450946
0.451154
0.451502
0.452119
0.452987
0.454294
0.455886
0.458275
0.462192
0.470758
0.464811
0.420502
0.446608
0.466784
0.472829
0.476343
0.479655
0.478785
0.478631
0.477825
0.476184
0.473844
0.471083
0.468496
0.466178
0.464177
0.462449
0.460927
0.459561
0.458334
0.457235
0.456253
0.4554
0.454654
0.454014
0.453497
0.453098
0.45284
0.452657
0.452615
0.452621
0.452783
0.453078
0.453636
0.454473
0.455756
0.457365
0.459764
0.463734
0.47246
0.466991
0.424434
0.448821
0.467824
0.473672
0.477113
0.480022
0.47892
0.478447
0.477293
0.47547
0.47336
0.471088
0.468968
0.467044
0.465369
0.463867
0.462497
0.461226
0.460046
0.458954
0.457969
0.457149
0.456473
0.455901
0.455428
0.455049
0.454799
0.454606
0.454552
0.454541
0.454679
0.454934
0.455455
0.456284
0.457576
0.45923
0.461662
0.465719
0.47471
0.469802
0.429241
0.452229
0.470366
0.475998
0.479206
0.48142
0.480098
0.479284
0.477943
0.476127
0.474299
0.472378
0.470697
0.469155
0.467793
0.466543
0.465398
0.46434
0.463354
0.462422
0.461536
0.460746
0.460029
0.459364
0.45878
0.458299
0.457979
0.457711
0.457595
0.457514
0.457592
0.457778
0.458237
0.459046
0.460336
0.462028
0.464528
0.46868
0.477873
0.473106
0.434046
0.457023
0.474938
0.480498
0.482898
0.484036
0.482589
0.481411
0.48
0.478302
0.476817
0.475287
0.473991
0.472765
0.471693
0.470703
0.4698
0.468942
0.468103
0.467277
0.466464
0.465712
0.465001
0.464311
0.463674
0.463094
0.462686
0.462314
0.462158
0.462025
0.462077
0.462259
0.462737
0.46361
0.464981
0.466804
0.469425
0.473756
0.483179
0.478563
0.43963
0.456236
0.483106
0.491473
0.491146
0.490714
0.488753
0.487051
0.485636
0.484238
0.483155
0.482035
0.480989
0.479856
0.478743
0.477645
0.476684
0.475881
0.475195
0.474544
0.473865
0.473145
0.472357
0.471529
0.470857
0.470398
0.470254
0.470225
0.470297
0.470423
0.470667
0.471032
0.471638
0.472672
0.474238
0.476368
0.47926
0.483875
0.493485
0.487737
0.441702
0.341362
0.458499
0.490935
0.488228
0.486966
0.483647
0.481113
0.478596
0.476472
0.474539
0.472761
0.471051
0.469386
0.46774
0.466094
0.464499
0.462992
0.461677
0.460665
0.459957
0.459286
0.458739
0.458562
0.458814
0.459254
0.459858
0.460599
0.461237
0.462026
0.462837
0.463766
0.464957
0.466488
0.468597
0.471356
0.474533
0.479458
0.487912
0.459668
0.341578
0.335282
0.345068
0.435813
0.433871
0.429393
0.424667
0.420564
0.417419
0.414924
0.41283
0.411086
0.409529
0.408228
0.407089
0.406133
0.405394
0.40487
0.404557
0.404447
0.40448
0.40423
0.403938
0.404073
0.404608
0.405491
0.40668
0.40821
0.409807
0.411707
0.413819
0.416155
0.418986
0.422242
0.426449
0.431558
0.436584
0.441921
0.443023
0.34257
0.333844
0.335282
0.345068
0.435813
0.433871
0.429393
0.424667
0.420564
0.417419
0.414924
0.41283
0.411086
0.409529
0.408228
0.407089
0.406133
0.405394
0.40487
0.404557
0.404447
0.40448
0.40423
0.403938
0.404073
0.404608
0.405491
0.40668
0.40821
0.409807
0.411707
0.413819
0.416155
0.418986
0.422242
0.426449
0.431558
0.436584
0.441921
0.443023
0.34257
0.333844
0.341362
0.458499
0.490935
0.488228
0.486966
0.483647
0.481113
0.478596
0.476472
0.474539
0.472761
0.471051
0.469386
0.46774
0.466094
0.464499
0.462992
0.461677
0.460665
0.459957
0.459286
0.458739
0.458562
0.458814
0.459254
0.459858
0.460599
0.461237
0.462026
0.462837
0.463766
0.464957
0.466488
0.468597
0.471356
0.474533
0.479458
0.487912
0.459668
0.341578
0.456236
0.483106
0.491473
0.491146
0.490714
0.488753
0.487051
0.485636
0.484238
0.483155
0.482035
0.480989
0.479856
0.478743
0.477645
0.476684
0.475881
0.475195
0.474544
0.473865
0.473145
0.472357
0.471529
0.470857
0.470398
0.470254
0.470225
0.470297
0.470423
0.470667
0.471032
0.471638
0.472672
0.474238
0.476368
0.47926
0.483875
0.493485
0.487737
0.441702
0.457023
0.474938
0.480498
0.482898
0.484036
0.482589
0.481411
0.48
0.478302
0.476817
0.475287
0.473991
0.472765
0.471693
0.470703
0.4698
0.468942
0.468103
0.467277
0.466464
0.465712
0.465001
0.464311
0.463674
0.463094
0.462686
0.462314
0.462158
0.462025
0.462077
0.462259
0.462737
0.46361
0.464981
0.466804
0.469425
0.473756
0.483179
0.478563
0.43963
0.452229
0.470366
0.475998
0.479206
0.48142
0.480098
0.479284
0.477943
0.476127
0.474299
0.472378
0.470697
0.469155
0.467793
0.466543
0.465398
0.46434
0.463354
0.462422
0.461536
0.460746
0.460029
0.459364
0.45878
0.458299
0.457979
0.457711
0.457595
0.457514
0.457592
0.457778
0.458237
0.459046
0.460336
0.462028
0.464528
0.46868
0.477873
0.473106
0.434046
0.448821
0.467824
0.473672
0.477113
0.480022
0.47892
0.478447
0.477293
0.47547
0.47336
0.471088
0.468968
0.467044
0.465369
0.463867
0.462497
0.461226
0.460046
0.458954
0.457969
0.457149
0.456473
0.455901
0.455428
0.455049
0.454799
0.454606
0.454552
0.454541
0.454679
0.454934
0.455455
0.456284
0.457576
0.45923
0.461662
0.465719
0.47471
0.469802
0.429241
0.446608
0.466784
0.472829
0.476343
0.479655
0.478785
0.478631
0.477825
0.476184
0.473844
0.471083
0.468496
0.466178
0.464177
0.462449
0.460927
0.459561
0.458334
0.457235
0.456253
0.4554
0.454654
0.454014
0.453497
0.453098
0.45284
0.452657
0.452615
0.452621
0.452783
0.453078
0.453636
0.454473
0.455756
0.457365
0.459764
0.463734
0.47246
0.466991
0.424434
0.446095
0.467007
0.473269
0.47637
0.479787
0.479125
0.47918
0.478761
0.477458
0.475059
0.471842
0.468622
0.465708
0.463306
0.461275
0.459549
0.458044
0.456715
0.455538
0.454499
0.453617
0.452869
0.452239
0.451734
0.451344
0.451091
0.450928
0.450907
0.450946
0.451154
0.451502
0.452119
0.452987
0.454294
0.455886
0.458275
0.462192
0.470758
0.464811
0.420502
0.447071
0.468539
0.474991
0.477451
0.480814
0.480332
0.480432
0.48019
0.479131
0.476796
0.47332
0.469491
0.46596
0.46304
0.460651
0.458703
0.45707
0.455664
0.454435
0.453356
0.452435
0.451652
0.450989
0.450455
0.450042
0.449773
0.449613
0.449601
0.449671
0.449925
0.450327
0.451002
0.451911
0.453247
0.454839
0.457237
0.461112
0.469564
0.463137
0.417141
0.448557
0.471154
0.47808
0.479821
0.482886
0.482436
0.482328
0.482032
0.481071
0.478895
0.475257
0.470888
0.466622
0.463033
0.460209
0.457968
0.456165
0.454649
0.453346
0.452215
0.451262
0.450464
0.449798
0.449267
0.448861
0.448595
0.448451
0.448465
0.448577
0.448889
0.449355
0.450102
0.45107
0.452466
0.45409
0.456548
0.46044
0.468805
0.46182
0.414244
0.450917
0.474585
0.482281
0.48298
0.485844
0.485436
0.484978
0.484398
0.483304
0.481252
0.477594
0.472759
0.467765
0.463467
0.460114
0.457565
0.455571
0.453952
0.452584
0.451409
0.450422
0.449599
0.448917
0.448376
0.447965
0.447696
0.447556
0.447582
0.44773
0.448091
0.448615
0.449428
0.450455
0.451908
0.453568
0.456089
0.460006
0.468265
0.460776
0.411879
0.454467
0.479089
0.488106
0.488671
0.490388
0.489865
0.48886
0.487627
0.48598
0.483773
0.480107
0.474934
0.469249
0.464209
0.460242
0.457288
0.455078
0.453344
0.451914
0.450698
0.449681
0.448837
0.448143
0.447597
0.447186
0.446921
0.446789
0.446832
0.447016
0.447429
0.44801
0.44889
0.449975
0.451486
0.453183
0.455776
0.459722
0.467852
0.459852
0.409692
0.459662
0.484553
0.493861
0.497494
0.497626
0.496418
0.494166
0.491828
0.489209
0.486541
0.482752
0.477338
0.471065
0.465281
0.460663
0.45728
0.454832
0.452988
0.451506
0.450258
0.449214
0.448347
0.447634
0.447072
0.446651
0.446379
0.446242
0.446286
0.446494
0.446943
0.447566
0.448499
0.449626
0.451183
0.452913
0.45558
0.459585
0.467512
0.458927
0.407735
0.464472
0.489602
0.499436
0.506059
0.507563
0.505772
0.501994
0.497735
0.493337
0.489628
0.485386
0.479741
0.472985
0.466503
0.461227
0.457376
0.454669
0.452715
0.451191
0.449922
0.448857
0.447969
0.447236
0.446657
0.446222
0.445939
0.44579
0.445825
0.446047
0.446521
0.447173
0.448147
0.449303
0.450896
0.452649
0.455397
0.459467
0.467178
0.458122
0.406112
0.467228
0.493023
0.505336
0.513778
0.519323
0.517059
0.512095
0.505528
0.498665
0.493287
0.488187
0.482213
0.475031
0.467924
0.461998
0.457638
0.454648
0.452572
0.45101
0.449728
0.448648
0.44774
0.446987
0.446389
0.445937
0.44564
0.445476
0.445499
0.445729
0.446222
0.446895
0.447902
0.449076
0.450698
0.452472
0.455309
0.459496
0.466919
0.457241
0.4046
0.468514
0.493502
0.508788
0.520451
0.531644
0.530314
0.524502
0.515527
0.505517
0.497458
0.490936
0.484447
0.476915
0.469316
0.462802
0.457944
0.454657
0.452463
0.450872
0.449584
0.448496
0.447574
0.446802
0.446185
0.445714
0.4454
0.445219
0.445228
0.445457
0.445959
0.446644
0.447674
0.448852
0.450492
0.452275
0.455201
0.459517
0.466755
0.456457
0.403289
0.472752
0.492433
0.510632
0.526276
0.543457
0.545842
0.539424
0.527647
0.513912
0.502235
0.493839
0.486563
0.478682
0.470669
0.463641
0.458297
0.454699
0.452384
0.450769
0.449483
0.448392
0.447458
0.44667
0.446036
0.445549
0.445219
0.445024
0.445021
0.445246
0.445758
0.446452
0.447504
0.448681
0.450343
0.452129
0.455179
0.459657
0.466771
0.455618
0.401778
0.491602
0.494593
0.511179
0.532323
0.555075
0.562057
0.55643
0.541774
0.523372
0.507344
0.49654
0.488308
0.480141
0.47184
0.46442
0.458634
0.454741
0.452313
0.450682
0.449403
0.448313
0.447372
0.446571
0.445923
0.445422
0.445076
0.444871
0.44486
0.445077
0.445596
0.446296
0.447365
0.448533
0.450216
0.451992
0.455179
0.459798
0.466915
0.454672
0.399749
0.524228
0.513078
0.53126
0.543405
0.560229
0.577638
0.573518
0.557122
0.533336
0.512462
0.498889
0.48968
0.48124
0.472787
0.465093
0.458928
0.454773
0.452251
0.450612
0.449343
0.448257
0.447311
0.446501
0.445842
0.44533
0.444974
0.44476
0.444742
0.444954
0.445479
0.446182
0.447267
0.448426
0.450132
0.451878
0.455211
0.459953
0.467222
0.453647
0.397352
0.533139
0.507993
0.51594
0.555414
0.57059
0.589385
0.588014
0.571298
0.542312
0.516667
0.500625
0.490536
0.481903
0.473454
0.465596
0.459139
0.45479
0.452207
0.450568
0.449309
0.448226
0.447278
0.446462
0.445796
0.445277
0.444914
0.444695
0.444673
0.444882
0.44541
0.446117
0.447214
0.448366
0.450094
0.451803
0.455253
0.460085
0.467532
0.452918
0.397378
)
;

boundaryField
{
    inlet
    {
        type            fixedValue;
        value           uniform 1;
    }
    outlet
    {
        type            zeroGradient;
    }
    obstacle
    {
        type            zeroGradient;
    }
    empty
    {
        type            empty;
    }
}


// ************************************************************************* //
