/*--------------------------------*- C++ -*----------------------------------*\
| =========                 |                                                 |
| \\      /  F ield         | OpenFOAM: The Open Source CFD Toolbox           |
|  \\    /   O peration     | Version:  v1912                                 |
|   \\  /    A nd           | Website:  www.openfoam.com                      |
|    \\/     M anipulation  |                                                 |
\*---------------------------------------------------------------------------*/
FoamFile
{
    version     2.0;
    format      ascii;
    class       volVectorField;
    location    "6.18";
    object      grad(p);
}
// * * * * * * * * * * * * * * * * * * * * * * * * * * * * * * * * * * * * * //

dimensions      [1 -2 -2 0 0 0 0];


internalField   nonuniform List<vector> 
1900
(
(106969 -0.283 0)
(-114776 -0.319527 0)
(-4435.27 -0.726799 0)
(-394.752 -1.0822 0)
(-286.78 0.32293 0)
(-58.9292 2.69231 0)
(76.1613 7.25692 0)
(101.097 -1.53309 0)
(58.942 49.2783 0)
(849.37 43.4465 0)
(106969 -0.471048 0)
(-114776 -0.470224 0)
(-4436.03 -0.929243 0)
(-393.702 -0.905215 0)
(-283.006 2.55522 0)
(-51.9952 7.2392 0)
(71.9359 9.14379 0)
(143.118 -11.651 0)
(103.922 14.7073 0)
(-23.6655 -15.0431 0)
(106968 -4.38405e-08 0)
(-114776 -9.166e-09 0)
(-4435.7 -3.73035e-09 0)
(-391.267 -2.73559e-09 0)
(-278.636 -2.06057e-09 0)
(-52.3406 1.9007e-09 0)
(57.2711 4.95604e-09 0)
(106.661 1.32516e-08 0)
(55.5498 6.62581e-09 0)
(-187.27 4.08562e-10 0)
(106969 0.471048 0)
(-114776 0.470224 0)
(-4436.03 0.929243 0)
(-393.702 0.905215 0)
(-283.006 -2.55522 0)
(-51.9952 -7.2392 0)
(71.9359 -9.14379 0)
(143.118 11.651 0)
(103.922 -14.7073 0)
(-23.6655 15.0431 0)
(106969 0.283 0)
(-114776 0.319527 0)
(-4435.27 0.726799 0)
(-394.752 1.0822 0)
(-286.78 -0.32293 0)
(-58.9292 -2.69231 0)
(76.1613 -7.25692 0)
(101.097 1.53309 0)
(58.942 -49.2783 0)
(849.37 -43.4465 0)
(-64.7094 -698.669 8.76247e-12)
(-1619.84 -518.034 -1.03006e-11)
(-1590.24 -636.131 -1.29615e-11)
(624.795 -841.505 0)
(-19371.9 -7993.39 -5.63469e-11)
(-564.305 -882.39 8.63622e-12)
(-1139.75 -648.312 1.03006e-11)
(-1533.57 -767.398 1.29615e-11)
(-2131.65 -626.605 0)
(-18616.4 -7522.43 0)
(-856.743 5.63157e-10 0)
(-1173.36 -2.55157e-09 0)
(-1470.19 -3.4787e-09 0)
(-2118.69 1.31208e-09 0)
(-21379 8.98752e-09 0)
(-564.305 882.39 8.63622e-12)
(-1139.75 648.312 1.03006e-11)
(-1533.57 767.398 1.29615e-11)
(-2131.65 626.605 0)
(-18616.4 7522.43 0)
(-64.7094 698.669 -2.60349e-11)
(-1619.84 518.034 -1.03006e-11)
(-1590.24 636.131 -1.29615e-11)
(624.795 841.505 -3.47955e-11)
(-19371.9 7993.39 5.63469e-11)
(-38734 10556.2 1.0294e-11)
(-12145.4 4237.21 -4.88651e-12)
(-4186.13 2063.61 0)
(-320.719 1086.71 2.24744e-12)
(-947.168 1046.27 -1.01807e-12)
(-34723.5 13106.9 -5.30596e-12)
(-14013 3476.33 2.50706e-12)
(-5005.24 1297.48 0)
(-569.027 444.928 -1.42846e-12)
(-636.664 531.425 2.66395e-13)
(-35757.2 1.9513e-09 0)
(-15150 1.08176e-09 0)
(-5180.34 -2.5494e-10 0)
(-617.26 2.12611e-09 5.76743e-13)
(-649.365 -1.03231e-09 -5.3279e-13)
(-34723.5 -13106.9 -5.30596e-12)
(-14013 -3476.33 2.50706e-12)
(-5005.24 -1297.48 0)
(-569.027 -444.928 -1.42846e-12)
(-636.664 -531.425 2.66395e-13)
(-38734 -10556.2 5.30596e-12)
(-12145.4 -4237.21 -1.27611e-13)
(-4186.13 -2063.61 0)
(-320.719 -1086.71 3.27281e-14)
(-947.168 -1046.27 1.01807e-12)
(-2385.65 2176.56 0)
(-1721.09 -20.3517 0)
(-53.3219 -1644.73 0)
(2341.01 -1705.08 0)
(2801.17 -101.055 0)
(1135.74 742.721 0)
(208.527 698.427 0)
(-413.147 629.101 0)
(-1058.39 440.01 0)
(-1481.95 277.382 0)
(-1485.88 154.229 0)
(-1036.33 66.2807 0)
(-548.836 22.8834 0)
(-320.651 8.10007 0)
(-256.214 5.72991 0)
(-227.943 7.37657 0)
(-194.458 5.69085 0)
(-144.223 1.69099 0)
(-89.8939 -0.230676 0)
(-52.0578 -0.620966 0)
(-33.4882 -0.558279 0)
(-26.2081 -0.450531 0)
(-22.7601 -0.412613 0)
(-19.4438 -0.453354 0)
(-14.9345 -0.542292 0)
(-9.64348 -0.648708 0)
(-3.50644 -0.718748 0)
(3.94944 -0.776539 0)
(12.0246 -0.812924 0)
(18.1743 -0.751425 0)
(25.3581 -0.786936 0)
(31.4174 -0.666351 0)
(44.9384 -1.03031 0)
(64.9931 -0.063029 0)
(99.9449 -0.303317 0)
(118.938 2.00638 0)
(150.908 -0.585048 0)
(356.368 -0.177715 0)
(217.692 -6.76644 0)
(2646.45 -12.9003 0)
(-2442.15 1422.68 0)
(-2325.9 362.556 0)
(-433.916 -332.689 0)
(2428.41 -882.513 0)
(3133.3 -211.5 0)
(1276.28 393.023 0)
(181.365 406.935 0)
(-498.585 285.021 0)
(-1134.21 167.538 0)
(-1524.78 106.832 0)
(-1510.68 74.4946 0)
(-1050.28 31.8595 0)
(-554.28 9.58954 0)
(-322.025 2.8287 0)
(-256.168 2.52685 0)
(-227.999 3.20168 0)
(-195.013 2.11437 0)
(-144.737 0.514479 0)
(-90.0571 -0.216203 0)
(-52.0661 -0.305957 0)
(-33.4698 -0.259221 0)
(-26.1947 -0.211476 0)
(-22.7598 -0.196839 0)
(-19.455 -0.217133 0)
(-14.9521 -0.25885 0)
(-9.66046 -0.310048 0)
(-3.5196 -0.35101 0)
(3.93927 -0.384635 0)
(12.025 -0.410069 0)
(18.1734 -0.395212 0)
(25.3641 -0.424129 0)
(31.3868 -0.377952 0)
(44.9933 -0.566734 0)
(65.036 -0.129523 0)
(100.13 -0.343436 0)
(118.963 0.798038 0)
(150.803 -0.163994 0)
(355.257 0.655807 0)
(214.923 -5.15778 0)
(2650.32 -11.7294 0)
(-2369.04 3.76103e-08 0)
(-2231.75 3.82522e-08 0)
(-415.524 7.22574e-08 0)
(2376.27 -2.78692e-07 0)
(3172.23 2.29499e-06 0)
(1315.65 2.05524e-06 0)
(177.109 1.22858e-06 0)
(-482.789 2.98388e-07 0)
(-1110.23 -3.78647e-08 0)
(-1509.01 -6.1684e-08 0)
(-1507.69 -3.83693e-08 0)
(-1055.22 -2.31572e-08 0)
(-557.281 -1.40736e-08 0)
(-322.706 -1.3797e-08 0)
(-256.105 -6.87127e-09 0)
(-228.063 5.05858e-09 0)
(-195.239 -4.73561e-09 0)
(-144.901 -8.90197e-10 0)
(-90.1326 2.86639e-09 0)
(-52.0704 2.52323e-09 0)
(-33.4607 2.99155e-09 0)
(-26.19 3.70209e-09 0)
(-22.7618 3.56483e-09 0)
(-19.4618 2.35973e-09 0)
(-14.9615 7.38803e-10 0)
(-9.67029 -3.81513e-10 0)
(-3.52814 -5.30888e-10 0)
(3.93226 -8.07435e-12 0)
(12.0215 2.79776e-09 0)
(18.1702 3.58501e-09 0)
(25.3631 1.76828e-09 0)
(31.376 -3.39123e-09 0)
(45.0106 -7.75541e-09 0)
(65.058 -1.89747e-10 0)
(100.215 5.77316e-09 0)
(118.99 -1.27413e-08 0)
(150.866 -1.04563e-08 0)
(354.915 1.56239e-08 0)
(214.089 8.46515e-08 0)
(2651.37 1.23447e-07 0)
(-2442.15 -1422.68 0)
(-2325.9 -362.556 0)
(-433.916 332.689 0)
(2428.41 882.513 0)
(3133.3 211.5 0)
(1276.28 -393.023 0)
(181.365 -406.935 0)
(-498.585 -285.021 0)
(-1134.21 -167.538 0)
(-1524.78 -106.832 0)
(-1510.68 -74.4946 0)
(-1050.28 -31.8595 0)
(-554.28 -9.58954 0)
(-322.025 -2.8287 0)
(-256.168 -2.52685 0)
(-227.999 -3.20168 0)
(-195.013 -2.11437 0)
(-144.737 -0.514479 0)
(-90.0571 0.216203 0)
(-52.0661 0.305957 0)
(-33.4698 0.259221 0)
(-26.1947 0.211476 0)
(-22.7598 0.196839 0)
(-19.455 0.217133 0)
(-14.9521 0.25885 0)
(-9.66046 0.310048 0)
(-3.5196 0.35101 0)
(3.93927 0.384635 0)
(12.025 0.410069 0)
(18.1734 0.395212 0)
(25.3641 0.424129 0)
(31.3868 0.377952 0)
(44.9933 0.566734 0)
(65.036 0.129523 0)
(100.13 0.343436 0)
(118.963 -0.798038 0)
(150.803 0.163994 0)
(355.257 -0.655807 0)
(214.923 5.15778 0)
(2650.32 11.7294 0)
(-2385.65 -2176.56 0)
(-1721.09 20.3517 0)
(-53.3219 1644.73 0)
(2341.01 1705.08 0)
(2801.17 101.055 0)
(1135.74 -742.721 0)
(208.527 -698.427 0)
(-413.147 -629.101 0)
(-1058.39 -440.01 0)
(-1481.95 -277.382 0)
(-1485.88 -154.229 0)
(-1036.33 -66.2807 0)
(-548.836 -22.8834 0)
(-320.651 -8.10007 0)
(-256.214 -5.72991 0)
(-227.943 -7.37657 0)
(-194.458 -5.69085 0)
(-144.223 -1.69099 0)
(-89.8939 0.230676 0)
(-52.0578 0.620966 0)
(-33.4882 0.558279 0)
(-26.2081 0.450531 0)
(-22.7601 0.412613 0)
(-19.4438 0.453354 0)
(-14.9345 0.542292 0)
(-9.64348 0.648708 0)
(-3.50644 0.718748 0)
(3.94944 0.776539 0)
(12.0246 0.812924 0)
(18.1743 0.751425 0)
(25.3581 0.786936 0)
(31.4174 0.666351 0)
(44.9384 1.03031 0)
(64.9931 0.063029 0)
(99.9449 0.303317 0)
(118.938 -2.00638 0)
(150.908 0.585048 0)
(356.368 0.177715 0)
(217.692 6.76644 0)
(2646.45 12.9003 0)
(-899.372 -241.957 0)
(-628.212 1030.4 0)
(182.806 1902.25 0)
(1561.17 1764.89 0)
(1981.89 93.6405 0)
(937.29 -603.589 0)
(221.229 -675.114 0)
(-435.275 -702.46 0)
(-1001.26 -573.756 0)
(-1395.03 -424.224 0)
(-1406.93 -269.783 0)
(-984.014 -125.742 0)
(-524.079 -42.9322 0)
(-312.853 -15.9674 0)
(-255.661 -11.5553 0)
(-228.039 -13.2308 0)
(-192.089 -10.1461 0)
(-141.617 -3.72578 0)
(-88.7956 0.0196785 0)
(-51.8701 1.04332 0)
(-33.5555 0.995149 0)
(-26.2705 0.799675 0)
(-22.7577 0.732145 0)
(-19.3866 0.811496 0)
(-14.8498 0.978051 0)
(-9.56941 1.16936 0)
(-3.45462 1.28437 0)
(3.98659 1.38579 0)
(12.0098 1.44281 0)
(18.156 1.33912 0)
(25.3177 1.35629 0)
(31.5039 1.19578 0)
(44.6784 1.62566 0)
(64.6295 0.348779 0)
(99.045 -0.13255 0)
(119.168 -3.35663 0)
(152.051 1.03364 0)
(357.851 5.33208 0)
(219.702 9.94485 0)
(2642.46 10.7888 0)
(-391.326 -31.189 0)
(-240.889 357.795 0)
(527.839 669.53 0)
(1016.34 649.791 0)
(958.138 -407.887 0)
(501.356 -724.523 0)
(106.441 -824.597 0)
(-303.608 -845.45 0)
(-820.914 -720.709 0)
(-1235.63 -581.477 0)
(-1240.59 -388.431 0)
(-845.788 -178.289 0)
(-456.329 -60.0195 0)
(-294.597 -26.1125 0)
(-253.873 -20.5845 0)
(-226.534 -19.6095 0)
(-186.568 -14.1062 0)
(-135.825 -5.77099 0)
(-85.8872 -0.232362 0)
(-51.2185 1.61751 0)
(-33.6868 1.7121 0)
(-26.4281 1.4648 0)
(-22.75 1.37773 0)
(-19.2375 1.50942 0)
(-14.6351 1.76992 0)
(-9.38802 2.05009 0)
(-3.32566 2.22062 0)
(4.0822 2.38184 0)
(11.9876 2.44432 0)
(18.1007 2.29707 0)
(25.2416 2.29788 0)
(31.6306 2.10518 0)
(44.2616 2.59343 0)
(63.4937 1.15431 0)
(96.8568 -0.287093 0)
(119.939 -4.12985 0)
(158.667 1.40119 0)
(364.16 11.7481 0)
(221.872 15.1512 0)
(2628.61 14.4038 0)
(-584.643 -245.799 0)
(47.0266 11.7661 0)
(464.184 18.4356 0)
(522.931 -303.303 0)
(657.551 -670.584 0)
(535.733 -797.994 0)
(104.699 -778.98 0)
(-335.166 -801.974 0)
(-746.881 -782.401 0)
(-1074.84 -669.91 0)
(-1018.41 -434.747 0)
(-667.545 -191.337 0)
(-377.436 -70.1666 0)
(-274.852 -37.5692 0)
(-249.395 -30.535 0)
(-221.797 -25.6052 0)
(-178.754 -17.2568 0)
(-128.247 -7.17796 0)
(-81.6757 -0.272707 0)
(-49.9964 2.33585 0)
(-33.7027 2.67185 0)
(-26.5927 2.45245 0)
(-22.7148 2.38216 0)
(-19.0086 2.57608 0)
(-14.3288 2.91903 0)
(-9.1351 3.25866 0)
(-3.13493 3.49089 0)
(4.20215 3.70255 0)
(11.9281 3.70739 0)
(18.0149 3.48722 0)
(25.1328 3.46583 0)
(31.7887 3.22925 0)
(43.7621 3.72725 0)
(61.8538 2.16423 0)
(93.953 0.0701917 0)
(120.795 -3.96995 0)
(167.352 1.77534 0)
(371.101 14.0079 0)
(222.261 17.5224 0)
(2613.98 15.7113 0)
(-616.848 -237.691 0)
(13.7367 -22.9595 0)
(224.227 -340.791 0)
(352.38 -492.977 0)
(481.436 -615.445 0)
(396.902 -695.458 0)
(102.606 -789.452 0)
(-306.905 -790.608 0)
(-693.653 -785.537 0)
(-900.62 -654.56 0)
(-779.417 -401.221 0)
(-494.465 -174.863 0)
(-308.152 -76.9143 0)
(-256.406 -48.3036 0)
(-242.344 -39.2299 0)
(-213.738 -30.1487 0)
(-168.811 -18.8608 0)
(-119.458 -7.30325 0)
(-76.7194 0.345765 0)
(-48.381 3.4217 0)
(-33.5745 3.97733 0)
(-26.7073 3.84718 0)
(-22.6309 3.82975 0)
(-18.7201 4.07786 0)
(-13.9773 4.46093 0)
(-8.83696 4.81771 0)
(-2.8979 5.09162 0)
(4.29082 5.28514 0)
(11.7801 5.16644 0)
(17.868 4.8208 0)
(24.993 4.70366 0)
(31.8825 4.39753 0)
(43.2353 4.71415 0)
(59.9697 3.20805 0)
(90.9457 0.811538 0)
(121.582 -2.72666 0)
(175.991 1.8773 0)
(379.334 13.6478 0)
(223.514 18.2947 0)
(2596.59 15.3019 0)
(-835.815 -437.033 0)
(-52.3246 -280.448 0)
(11.2581 -530.396 0)
(258.265 -491.254 0)
(462.432 -516.617 0)
(368.054 -570.104 0)
(13.0096 -702.701 0)
(-331.393 -757.125 0)
(-615.78 -731.893 0)
(-704.498 -568.227 0)
(-556.152 -326.95 0)
(-355.032 -149.654 0)
(-255.479 -78.9533 0)
(-238.538 -55.4872 0)
(-231.9 -44.4704 0)
(-202.168 -31.9848 0)
(-156.739 -18.2024 0)
(-109.739 -5.72521 0)
(-71.3408 2.11704 0)
(-46.4969 5.3674 0)
(-33.2927 6.08928 0)
(-26.7349 6.07288 0)
(-22.4925 6.12084 0)
(-18.4004 6.40495 0)
(-13.6159 6.79532 0)
(-8.52735 7.14792 0)
(-2.6845 7.42214 0)
(4.27426 7.51838 0)
(11.4806 7.26719 0)
(17.569 6.77917 0)
(24.7249 6.51958 0)
(31.7988 6.12136 0)
(42.6159 6.20836 0)
(58.0931 4.84007 0)
(88.2341 2.58302 0)
(121.822 -0.177244 0)
(183.131 3.23523 0)
(386.921 13.883 0)
(223.855 18.8254 0)
(2581.6 14.7802 0)
(-1308.24 -421.855 0)
(-76.2311 -352.975 0)
(21.0869 -445.788 0)
(365.658 -384.029 0)
(405.453 -326.178 0)
(217.585 -531.727 0)
(-77.6149 -643.244 0)
(-335.036 -677.582 0)
(-511.624 -621.606 0)
(-510.402 -444.867 0)
(-376.065 -247.84 0)
(-255.486 -127.209 0)
(-217.41 -78.4049 0)
(-223.177 -60.3931 0)
(-219.696 -47.37 0)
(-188.426 -31.7992 0)
(-143.506 -15.9222 0)
(-99.8776 -3.01435 0)
(-66.0301 4.77705 0)
(-44.5532 8.01821 0)
(-32.8946 8.87656 0)
(-26.6769 8.98798 0)
(-22.3109 9.10133 0)
(-18.0702 9.39394 0)
(-13.2614 9.75049 0)
(-8.23293 10.0541 0)
(-2.54092 10.2518 0)
(4.1415 10.1434 0)
(11.0678 9.70106 0)
(17.1475 9.01618 0)
(24.3591 8.52436 0)
(31.5826 7.93592 0)
(42.0006 7.71504 0)
(56.4761 6.42088 0)
(86.1108 4.4033 0)
(122.21 2.15749 0)
(189.54 5.19428 0)
(394.358 13.9141 0)
(224.378 18.6437 0)
(2564.21 15.3588 0)
(-1582.47 -225.532 0)
(-75.3871 -212.442 0)
(-18.666 -249.3 0)
(373.525 -313.883 0)
(320.104 -293.633 0)
(62.5179 -500.749 0)
(-127.541 -567.266 0)
(-310.542 -574.854 0)
(-391.528 -489.133 0)
(-344.324 -325.549 0)
(-250.045 -184.524 0)
(-191.758 -107.614 0)
(-191.092 -75.497 0)
(-208.632 -61.5916 0)
(-204.346 -46.5546 0)
(-171.864 -28.4671 0)
(-129.001 -11.3832 0)
(-89.7926 1.53243 0)
(-60.7094 9.0244 0)
(-42.5464 12.1409 0)
(-32.3582 13.0734 0)
(-26.5183 13.2868 0)
(-22.1013 13.438 0)
(-17.7749 13.6942 0)
(-12.9797 13.9628 0)
(-8.04426 14.1628 0)
(-2.59844 14.2051 0)
(3.74354 13.8257 0)
(10.3944 13.1345 0)
(16.4351 12.1994 0)
(23.6839 11.404 0)
(31.019 10.5343 0)
(41.1559 9.95375 0)
(54.9018 8.63262 0)
(84.1258 6.92469 0)
(122.585 4.83771 0)
(194.46 7.96914 0)
(399.882 14.7267 0)
(225.247 19.6202 0)
(2548.84 18.3641 0)
(-1730.29 -109.235 0)
(-99.1347 -141.402 0)
(-76.6658 -178.808 0)
(322.938 -245.624 0)
(225.383 -327.298 0)
(-46.0979 -441.121 0)
(-149.025 -485.961 0)
(-259.744 -460.07 0)
(-271.384 -355.679 0)
(-216.87 -228.011 0)
(-166.055 -136.934 0)
(-150.424 -90.3709 0)
(-173.061 -71.3354 0)
(-195.287 -59.6964 0)
(-187.776 -42.7657 0)
(-154.533 -22.9693 0)
(-114.598 -5.65705 0)
(-80.2121 6.55084 0)
(-55.8075 13.4423 0)
(-40.6515 16.3811 0)
(-31.7904 17.3775 0)
(-26.3255 17.7004 0)
(-21.9183 17.9044 0)
(-17.5645 18.1429 0)
(-12.8098 18.3574 0)
(-7.99938 18.4888 0)
(-2.86575 18.3197 0)
(3.10984 17.7244 0)
(9.50063 16.8725 0)
(15.4799 15.7458 0)
(22.7546 14.6971 0)
(30.1851 13.622 0)
(40.1681 12.78 0)
(53.5572 11.5229 0)
(82.4539 10.1756 0)
(123.217 8.16083 0)
(199.07 11.3129 0)
(405.585 17.2543 0)
(227.884 22.3436 0)
(2527.6 22.4374 0)
(-1823.99 -60.1593 0)
(-142.431 -116.389 0)
(-119.098 -157.53 0)
(230.435 -194.211 0)
(131.716 -358.448 0)
(-90.3759 -381.44 0)
(-145.8 -396.948 0)
(-184.997 -337.851 0)
(-167.907 -240.712 0)
(-133.533 -157.111 0)
(-117.411 -101.972 0)
(-128.545 -76.7988 0)
(-161.533 -67.2994 0)
(-181.101 -55.7966 0)
(-168.954 -36.9808 0)
(-136.105 -16.03 0)
(-100.554 1.21531 0)
(-71.3877 12.5037 0)
(-51.2366 18.7473 0)
(-38.7544 21.5073 0)
(-31.0868 22.5683 0)
(-26.0105 22.9729 0)
(-21.6748 23.1835 0)
(-17.3384 23.3574 0)
(-12.6463 23.4675 0)
(-8.0806 23.4313 0)
(-3.33503 22.9744 0)
(2.34897 22.1904 0)
(8.48771 21.1356 0)
(14.3388 19.8401 0)
(21.6373 18.5762 0)
(29.1716 17.312 0)
(39.1332 16.3052 0)
(52.392 15.1269 0)
(80.886 14.1163 0)
(123.681 12.0954 0)
(203.223 15.3396 0)
(410.511 21.015 0)
(230.242 25.5287 0)
(2505.69 26.5516 0)
(-1900.42 -57.4296 0)
(-192.965 -108.479 0)
(-151.658 -150.07 0)
(129.326 -187.803 0)
(44.9616 -340.538 0)
(-83.1974 -319.326 0)
(-107.021 -289.038 0)
(-109.189 -222.576 0)
(-97.2158 -156.587 0)
(-83.1747 -108.632 0)
(-88.6639 -78.1558 0)
(-117.012 -67.28 0)
(-152.822 -62.0129 0)
(-166.071 -48.6976 0)
(-149.456 -28.2427 0)
(-117.726 -7.80447 0)
(-87.1016 7.81038 0)
(-63.3176 17.953 0)
(-47.1313 23.3761 0)
(-36.9694 25.8922 0)
(-30.3781 27.0139 0)
(-25.7327 27.5695 0)
(-21.5478 27.9256 0)
(-17.2909 28.2137 0)
(-12.7385 28.3842 0)
(-8.47453 28.3125 0)
(-4.06154 27.835 0)
(1.33789 27.1109 0)
(7.2358 25.948 0)
(13.0137 24.6505 0)
(20.3184 23.3751 0)
(27.9967 22.1266 0)
(38.0624 21.1833 0)
(51.4479 20.2734 0)
(79.5326 19.7525 0)
(124.395 18.0861 0)
(207.665 21.9116 0)
(415.403 27.9644 0)
(233.219 32.1169 0)
(2477.42 33.9599 0)
(-1983.87 -75.1987 0)
(-231.702 -107.659 0)
(-195.537 -142.413 0)
(46.8934 -205.286 0)
(4.97566 -253.902 0)
(-40.7489 -224.975 0)
(-52.5691 -180.946 0)
(-57.3622 -137.909 0)
(-58.1059 -99.8675 0)
(-57.9538 -72.7405 0)
(-77.5627 -59.0474 0)
(-112.989 -57.5532 0)
(-143.627 -53.6635 0)
(-148.559 -38.9144 0)
(-129.548 -16.9491 0)
(-101.363 2.46203 0)
(-75.7335 15.9342 0)
(-56.3881 24.6264 0)
(-43.5861 29.2458 0)
(-35.2488 31.5284 0)
(-29.4706 32.6732 0)
(-25.132 33.2997 0)
(-21.0541 33.7163 0)
(-16.8965 34.0439 0)
(-12.5511 34.2123 0)
(-8.60978 34.1226 0)
(-4.49292 33.7029 0)
(0.53054 33.0875 0)
(6.11679 31.8993 0)
(11.8595 30.6534 0)
(19.2052 29.4949 0)
(27.0595 28.3901 0)
(37.3473 27.6792 0)
(51.0132 27.1274 0)
(78.7782 27.1872 0)
(125.761 26.1793 0)
(212.742 30.4851 0)
(420.345 36.7509 0)
(236.019 39.978 0)
(2442.01 42.9649 0)
(-2076.62 -66.5853 0)
(-257.735 -85.2943 0)
(-245.735 -115.804 0)
(21.8915 -170.245 0)
(25.9887 -140.703 0)
(-12.8949 -125.894 0)
(-23.1214 -101.375 0)
(-31.0583 -81.4451 0)
(-34.4168 -60.8018 0)
(-43.839 -48.1767 0)
(-74.0288 -44.9985 0)
(-111.824 -47.1016 0)
(-134.861 -41.3814 0)
(-130.692 -25.0253 0)
(-109.584 -4.0956 0)
(-86.0385 12.6823 0)
(-65.7432 24.444 0)
(-50.49 31.3748 0)
(-40.4803 34.9804 0)
(-33.6667 36.8294 0)
(-28.6712 37.9973 0)
(-24.7275 38.9457 0)
(-20.8307 39.7851 0)
(-16.8128 40.4646 0)
(-12.6627 40.8515 0)
(-8.9654 40.898 0)
(-5.05895 40.5793 0)
(-0.400156 40.0204 0)
(4.89019 38.8367 0)
(10.6967 37.6881 0)
(18.1374 36.6852 0)
(26.247 35.8111 0)
(36.8457 35.4498 0)
(50.9738 35.3832 0)
(78.619 36.1529 0)
(127.573 36.0679 0)
(217.852 41.1628 0)
(424.551 47.7548 0)
(239.207 49.4916 0)
(2397.49 52.7651 0)
(-2130.23 -27.4295 0)
(-279.131 -42.3614 0)
(-277.399 -65.7687 0)
(22.9005 -94.4533 0)
(47.714 -67.5031 0)
(-2.85166 -62.66 0)
(-9.73651 -49.5151 0)
(-18.2642 -38.2113 0)
(-26.0473 -27.3718 0)
(-42.7252 -26.8889 0)
(-76.5267 -33.1493 0)
(-109.503 -34.9677 0)
(-122.353 -24.3506 0)
(-112.629 -4.39355 0)
(-93.2116 14.0772 0)
(-73.8608 28.7826 0)
(-57.7208 39.4744 0)
(-46.2348 45.9158 0)
(-38.3298 49.5976 0)
(-32.3417 51.633 0)
(-27.4312 52.7913 0)
(-23.4092 53.381 0)
(-19.5904 53.5621 0)
(-15.8689 53.4575 0)
(-12.1335 53.1093 0)
(-8.8721 52.6298 0)
(-5.33856 51.9252 0)
(-1.14864 51.0761 0)
(3.86926 49.7307 0)
(9.78619 48.7362 0)
(17.3964 47.8565 0)
(25.869 47.195 0)
(36.935 47.2149 0)
(51.6908 47.6449 0)
(79.4381 49.0369 0)
(130.589 50.195 0)
(224.004 56.0476 0)
(428.371 62.0682 0)
(240.847 61.388 0)
(2343.47 64.3041 0)
(-2143.88 4.31383 0)
(-294.68 -7.87294 0)
(-295.933 -20.4563 0)
(20.2201 -34.0464 0)
(56.6259 -18.2497 0)
(4.439 -16.4783 0)
(0.438182 -7.7574 0)
(-9.72024 -3.91327 0)
(-23.5061 -0.985343 0)
(-49.4064 -7.99312 0)
(-81.8139 -16.4357 0)
(-103.346 -13.1867 0)
(-105.399 1.54881 0)
(-93.6613 20.9088 0)
(-77.6141 38.0216 0)
(-61.5649 52.2434 0)
(-49.2329 62.3789 0)
(-40.735 69.029 0)
(-34.9709 72.9603 0)
(-30.5891 74.9531 0)
(-26.9868 75.9094 0)
(-23.9847 76.13 0)
(-20.757 75.5116 0)
(-17.2491 74.1581 0)
(-13.4602 72.4412 0)
(-10.1065 70.8141 0)
(-6.55621 69.1867 0)
(-2.51487 67.76 0)
(2.63543 66.2678 0)
(8.89063 65.3596 0)
(16.6523 64.617 0)
(25.6287 64.4146 0)
(37.2792 65.1186 0)
(52.7296 66.3857 0)
(81.0763 68.7219 0)
(134.329 71.5358 0)
(229.294 78.3133 0)
(429.697 82.6687 0)
(241.361 76.6541 0)
(2276.37 76.0237 0)
(-2133.66 36.9842 0)
(-303.001 30.2258 0)
(-302.621 32.2246 0)
(25.0268 28.2245 0)
(64.6432 41.2559 0)
(7.25912 41.1407 0)
(2.37165 43.7766 0)
(-11.7384 40.2226 0)
(-29.9787 34.2334 0)
(-57.6137 24.6421 0)
(-81.5314 21.6403 0)
(-92.1726 29.8801 0)
(-89.4974 45.5812 0)
(-77.4824 62.5634 0)
(-63.0164 78.2003 0)
(-50.3893 90.5439 0)
(-41.5456 99.4933 0)
(-36.0382 105.867 0)
(-32.6212 110.161 0)
(-29.4998 112.612 0)
(-26.2971 113.465 0)
(-23.7924 112.844 0)
(-21.4906 111.101 0)
(-18.8277 108.825 0)
(-15.3559 106.486 0)
(-12.0083 104.653 0)
(-8.28157 102.936 0)
(-3.96132 101.692 0)
(1.55615 100.367 0)
(8.19541 99.0148 0)
(16.4858 98.0644 0)
(26.3524 98.0106 0)
(38.8344 99.2035 0)
(55.163 101.468 0)
(84.4009 105.121 0)
(139.832 110.363 0)
(234.732 118.735 0)
(426.772 120.584 0)
(234.444 102.74 0)
(2196.35 92.0213 0)
(-2079.11 89.6854 0)
(-299.267 98.2133 0)
(-297.861 127.35 0)
(28.9231 122.917 0)
(69.0723 126.178 0)
(6.86798 118.417 0)
(-0.446477 111.778 0)
(-18.9164 100.033 0)
(-38.5201 87.007 0)
(-61.5416 78.0849 0)
(-76.7663 77.7701 0)
(-80.2752 86.1054 0)
(-73.9043 98.5604 0)
(-62.2285 111.082 0)
(-50.651 120.281 0)
(-41.0462 125.645 0)
(-34.4668 128.018 0)
(-30.4551 128.848 0)
(-28.4715 129.337 0)
(-27.4048 130.09 0)
(-26.7628 131.013 0)
(-26.2637 132.087 0)
(-24.6304 133.727 0)
(-21.6956 135.98 0)
(-17.4805 138.144 0)
(-13.5275 140.307 0)
(-9.40926 141.848 0)
(-4.99037 143.912 0)
(0.0554448 145.324 0)
(6.67152 146.7 0)
(15.6845 149.004 0)
(26.7264 151.937 0)
(40.6111 156.256 0)
(58.4314 161.283 0)
(89.648 167.905 0)
(147.449 176.319 0)
(239.142 183.9 0)
(414.283 177.273 0)
(213.838 138.878 0)
(2088.69 108.866 0)
(-1952.59 168.153 0)
(-266.706 151.275 0)
(-278.815 254.037 0)
(23.8982 244.011 0)
(60.307 231.292 0)
(-6.61751 208.229 0)
(-15.3444 185.975 0)
(-35.6088 160.922 0)
(-51.1284 139.086 0)
(-66.5147 127.278 0)
(-73.8026 124.36 0)
(-72.1383 129.479 0)
(-65.4291 137.201 0)
(-56.5516 143.895 0)
(-48.9826 147.457 0)
(-42.9337 147.842 0)
(-38.4597 146.191 0)
(-34.7676 144.132 0)
(-31.4243 143.027 0)
(-27.8844 144.085 0)
(-24.3727 148.514 0)
(-21.1769 156.572 0)
(-17.7392 167.029 0)
(-14.5718 178.388 0)
(-11.186 189.322 0)
(-8.43869 199.258 0)
(-4.80763 206.956 0)
(-0.611438 214.364 0)
(4.24271 220.543 0)
(11.7416 227.06 0)
(21.5321 234.282 0)
(33.3399 241.49 0)
(47.8411 249.895 0)
(66.3887 257.334 0)
(98.8898 264.582 0)
(155.245 269.525 0)
(235.652 266.067 0)
(383.388 237.326 0)
(168.524 135.098 0)
(1957.61 52.9129 0)
(-1771.3 3894.52 0)
(-216.507 65.8108 0)
(-208.497 338.395 0)
(7.00571 353.131 0)
(34.5916 306.307 0)
(-36.8018 281.881 0)
(-46.0327 255.894 0)
(-64.0995 235.928 0)
(-70.9408 222.586 0)
(-75.7323 222.025 0)
(-74.6454 229.624 0)
(-67.9014 242.319 0)
(-60.0127 256.455 0)
(-52.3451 269.721 0)
(-46.8478 281.558 0)
(-42.2662 292.33 0)
(-38.0415 302.571 0)
(-33.5046 312.493 0)
(-28.517 321.936 0)
(-22.1172 331.326 0)
(-14.7296 342.076 0)
(-8.42182 353.841 0)
(-3.60817 365.547 0)
(-0.213012 376.799 0)
(2.63128 387.841 0)
(3.46506 398.921 0)
(5.1473 408.555 0)
(8.10255 418.503 0)
(12.2893 426.807 0)
(19.9107 434.698 0)
(29.59 441.653 0)
(41.772 447.524 0)
(55.8795 453.188 0)
(72.5847 456.477 0)
(101.395 455.032 0)
(148.88 443.853 0)
(208.114 411.09 0)
(288.076 312.498 0)
(36.1303 -64.9956 0)
(1907.52 2939.69 0)
(1863.73 108540 0)
(-3693.52 3001.17 0)
(-1.94323 -101.582 0)
(-7.02246 -36.1378 0)
(-8.35174 -104.657 0)
(-55.1973 -108.935 0)
(-59.6263 -119.365 0)
(-67.7056 -110.828 0)
(-64.5265 -99.1716 0)
(-59.7328 -75.5472 0)
(-54.2456 -47.4747 0)
(-46.2833 -17.3448 0)
(-39.0238 12.5169 0)
(-32.361 41.2491 0)
(-27.1956 69.2026 0)
(-22.6847 96.5871 0)
(-19.0297 122.764 0)
(-16.1076 146.393 0)
(-13.2763 166.425 0)
(-8.47621 183.016 0)
(-2.67675 197.017 0)
(1.44066 208.164 0)
(4.38371 216.372 0)
(6.91152 221.486 0)
(10.1315 225.192 0)
(11.5218 228.92 0)
(14.0625 233.301 0)
(16.9769 239.326 0)
(19.8488 244.615 0)
(26.0481 249.808 0)
(33.8918 253.796 0)
(44.4552 257.865 0)
(56.4683 260.804 0)
(68.166 263.774 0)
(86.7248 258.69 0)
(112.9 242.305 0)
(109.074 194.266 0)
(-75.3854 44.6953 0)
(2700.18 2547.41 0)
(-812.548 91989.9 0)
(105714 -110547 0)
(-104907 -1090.2 0)
(-3135.36 2152.26 0)
(4.04291 2165.49 0)
(-35.558 2155.36 0)
(-50.9751 2211.06 0)
(-47.8578 2265.54 0)
(-44.6404 2322.6 0)
(-36.9424 2382.12 0)
(-25.9154 2427.9 0)
(-18.5595 2471 0)
(-10.0913 2503.45 0)
(-3.54948 2529.5 0)
(2.27932 2547.63 0)
(6.47794 2560.72 0)
(9.34757 2569.13 0)
(9.95352 2574.56 0)
(8.56881 2578.55 0)
(6.77407 2582.38 0)
(7.36205 2585.29 0)
(9.50441 2583.54 0)
(10.2291 2578.21 0)
(9.22855 2571.43 0)
(8.28644 2564.08 0)
(9.79568 2555.66 0)
(11.2791 2543.4 0)
(15.1747 2532 0)
(19.0057 2513.06 0)
(22.39 2494.66 0)
(28.7572 2469.23 0)
(37.354 2437.78 0)
(48.5257 2395.3 0)
(61.5732 2341.29 0)
(70.5476 2272.8 0)
(80.707 2197.35 0)
(86.7986 2099.05 0)
(17.6905 1990.11 0)
(2555.65 1967.5 0)
(88637.8 -583.751 0)
(-89192 -92817.2 0)
(105714 110547 0)
(-104907 1090.2 0)
(-3135.36 -2152.26 0)
(4.04291 -2165.49 0)
(-35.558 -2155.36 0)
(-50.9751 -2211.06 0)
(-47.8578 -2265.54 0)
(-44.6404 -2322.6 0)
(-36.9424 -2382.12 0)
(-25.9154 -2427.9 0)
(-18.5595 -2471 0)
(-10.0913 -2503.45 0)
(-3.54948 -2529.5 0)
(2.27932 -2547.63 0)
(6.47794 -2560.72 0)
(9.34757 -2569.13 0)
(9.95352 -2574.56 0)
(8.56881 -2578.55 0)
(6.77407 -2582.38 0)
(7.36205 -2585.29 0)
(9.50441 -2583.54 0)
(10.2291 -2578.21 0)
(9.22855 -2571.43 0)
(8.28644 -2564.08 0)
(9.79568 -2555.66 0)
(11.2791 -2543.4 0)
(15.1747 -2532 0)
(19.0057 -2513.06 0)
(22.39 -2494.66 0)
(28.7572 -2469.23 0)
(37.354 -2437.78 0)
(48.5257 -2395.3 0)
(61.5732 -2341.29 0)
(70.5476 -2272.8 0)
(80.707 -2197.35 0)
(86.7986 -2099.05 0)
(17.6905 -1990.11 0)
(2555.65 -1967.5 0)
(88637.8 583.751 0)
(-89192 92817.2 0)
(1863.73 -108540 0)
(-3693.52 -3001.17 0)
(-1.94323 101.582 0)
(-7.02246 36.1378 0)
(-8.35174 104.657 0)
(-55.1973 108.935 0)
(-59.6263 119.365 0)
(-67.7056 110.828 0)
(-64.5265 99.1716 0)
(-59.7328 75.5472 0)
(-54.2456 47.4747 0)
(-46.2833 17.3448 0)
(-39.0238 -12.5169 0)
(-32.361 -41.2491 0)
(-27.1956 -69.2026 0)
(-22.6847 -96.5871 0)
(-19.0297 -122.764 0)
(-16.1076 -146.393 0)
(-13.2763 -166.425 0)
(-8.47621 -183.016 0)
(-2.67675 -197.017 0)
(1.44066 -208.164 0)
(4.38371 -216.372 0)
(6.91152 -221.486 0)
(10.1315 -225.192 0)
(11.5218 -228.92 0)
(14.0625 -233.301 0)
(16.9769 -239.326 0)
(19.8488 -244.615 0)
(26.0481 -249.808 0)
(33.8918 -253.796 0)
(44.4552 -257.865 0)
(56.4683 -260.804 0)
(68.166 -263.774 0)
(86.7248 -258.69 0)
(112.9 -242.305 0)
(109.074 -194.266 0)
(-75.3854 -44.6953 0)
(2700.18 -2547.41 0)
(-812.548 -91989.9 0)
(-1771.3 -3894.52 0)
(-216.507 -65.8108 0)
(-208.497 -338.395 0)
(7.00571 -353.131 0)
(34.5916 -306.307 0)
(-36.8018 -281.881 0)
(-46.0327 -255.894 0)
(-64.0995 -235.928 0)
(-70.9408 -222.586 0)
(-75.7323 -222.025 0)
(-74.6454 -229.624 0)
(-67.9014 -242.319 0)
(-60.0127 -256.455 0)
(-52.3451 -269.721 0)
(-46.8478 -281.558 0)
(-42.2662 -292.33 0)
(-38.0415 -302.571 0)
(-33.5046 -312.493 0)
(-28.517 -321.936 0)
(-22.1172 -331.326 0)
(-14.7296 -342.076 0)
(-8.42182 -353.841 0)
(-3.60817 -365.547 0)
(-0.213012 -376.799 0)
(2.63128 -387.841 0)
(3.46506 -398.921 0)
(5.1473 -408.555 0)
(8.10255 -418.503 0)
(12.2893 -426.807 0)
(19.9107 -434.698 0)
(29.59 -441.653 0)
(41.772 -447.524 0)
(55.8795 -453.188 0)
(72.5847 -456.477 0)
(101.395 -455.032 0)
(148.88 -443.853 0)
(208.114 -411.09 0)
(288.076 -312.498 0)
(36.1303 64.9956 0)
(1907.52 -2939.69 0)
(-1952.59 -168.153 0)
(-266.706 -151.275 0)
(-278.815 -254.037 0)
(23.8982 -244.011 0)
(60.307 -231.292 0)
(-6.61751 -208.229 0)
(-15.3444 -185.975 0)
(-35.6088 -160.922 0)
(-51.1284 -139.086 0)
(-66.5147 -127.278 0)
(-73.8026 -124.36 0)
(-72.1383 -129.479 0)
(-65.4291 -137.201 0)
(-56.5516 -143.895 0)
(-48.9826 -147.457 0)
(-42.9337 -147.842 0)
(-38.4597 -146.191 0)
(-34.7676 -144.132 0)
(-31.4243 -143.027 0)
(-27.8844 -144.085 0)
(-24.3727 -148.514 0)
(-21.1769 -156.572 0)
(-17.7392 -167.029 0)
(-14.5718 -178.388 0)
(-11.186 -189.322 0)
(-8.43869 -199.258 0)
(-4.80763 -206.956 0)
(-0.611438 -214.364 0)
(4.24271 -220.543 0)
(11.7416 -227.06 0)
(21.5321 -234.282 0)
(33.3399 -241.49 0)
(47.8411 -249.895 0)
(66.3887 -257.334 0)
(98.8898 -264.582 0)
(155.245 -269.525 0)
(235.652 -266.067 0)
(383.388 -237.326 0)
(168.524 -135.098 0)
(1957.61 -52.9129 0)
(-2079.11 -89.6854 0)
(-299.267 -98.2133 0)
(-297.861 -127.35 0)
(28.9231 -122.917 0)
(69.0723 -126.178 0)
(6.86798 -118.417 0)
(-0.446477 -111.778 0)
(-18.9164 -100.033 0)
(-38.5201 -87.007 0)
(-61.5416 -78.0849 0)
(-76.7663 -77.7701 0)
(-80.2752 -86.1054 0)
(-73.9043 -98.5604 0)
(-62.2285 -111.082 0)
(-50.651 -120.281 0)
(-41.0462 -125.645 0)
(-34.4668 -128.018 0)
(-30.4551 -128.848 0)
(-28.4715 -129.337 0)
(-27.4048 -130.09 0)
(-26.7628 -131.013 0)
(-26.2637 -132.087 0)
(-24.6304 -133.727 0)
(-21.6956 -135.98 0)
(-17.4805 -138.144 0)
(-13.5275 -140.307 0)
(-9.40926 -141.848 0)
(-4.99037 -143.912 0)
(0.0554448 -145.324 0)
(6.67152 -146.7 0)
(15.6845 -149.004 0)
(26.7264 -151.937 0)
(40.6111 -156.256 0)
(58.4314 -161.283 0)
(89.648 -167.905 0)
(147.449 -176.319 0)
(239.142 -183.9 0)
(414.283 -177.273 0)
(213.838 -138.878 0)
(2088.69 -108.866 0)
(-2133.66 -36.9842 0)
(-303.001 -30.2258 0)
(-302.621 -32.2246 0)
(25.0268 -28.2245 0)
(64.6432 -41.2559 0)
(7.25912 -41.1407 0)
(2.37165 -43.7766 0)
(-11.7384 -40.2226 0)
(-29.9787 -34.2334 0)
(-57.6137 -24.6421 0)
(-81.5314 -21.6403 0)
(-92.1726 -29.8801 0)
(-89.4974 -45.5812 0)
(-77.4824 -62.5634 0)
(-63.0164 -78.2003 0)
(-50.3893 -90.5439 0)
(-41.5456 -99.4933 0)
(-36.0382 -105.867 0)
(-32.6212 -110.161 0)
(-29.4998 -112.612 0)
(-26.2971 -113.465 0)
(-23.7924 -112.844 0)
(-21.4906 -111.101 0)
(-18.8277 -108.825 0)
(-15.3559 -106.486 0)
(-12.0083 -104.653 0)
(-8.28157 -102.936 0)
(-3.96132 -101.692 0)
(1.55615 -100.367 0)
(8.19541 -99.0148 0)
(16.4858 -98.0644 0)
(26.3524 -98.0106 0)
(38.8344 -99.2035 0)
(55.163 -101.468 0)
(84.4009 -105.121 0)
(139.832 -110.363 0)
(234.732 -118.735 0)
(426.772 -120.584 0)
(234.444 -102.74 0)
(2196.35 -92.0213 0)
(-2143.88 -4.31383 0)
(-294.68 7.87294 0)
(-295.933 20.4563 0)
(20.2201 34.0464 0)
(56.6259 18.2497 0)
(4.439 16.4783 0)
(0.438182 7.7574 0)
(-9.72024 3.91327 0)
(-23.5061 0.985343 0)
(-49.4064 7.99312 0)
(-81.8139 16.4357 0)
(-103.346 13.1867 0)
(-105.399 -1.54881 0)
(-93.6613 -20.9088 0)
(-77.6141 -38.0216 0)
(-61.5649 -52.2434 0)
(-49.2329 -62.3789 0)
(-40.735 -69.029 0)
(-34.9709 -72.9603 0)
(-30.5891 -74.9531 0)
(-26.9868 -75.9094 0)
(-23.9847 -76.13 0)
(-20.757 -75.5116 0)
(-17.2491 -74.1581 0)
(-13.4602 -72.4412 0)