/*--------------------------------*- C++ -*----------------------------------*\
| =========                 |                                                 |
| \\      /  F ield         | OpenFOAM: The Open Source CFD Toolbox           |
|  \\    /   O peration     | Version:  v1912                                 |
|   \\  /    A nd           | Website:  www.openfoam.com                      |
|    \\/     M anipulation  |                                                 |
\*---------------------------------------------------------------------------*/
FoamFile
{
    version     2.0;
    format      ascii;
    class       volScalarField;
    location    "6.12";
    object      p;
}
// * * * * * * * * * * * * * * * * * * * * * * * * * * * * * * * * * * * * * //

dimensions      [1 -1 -2 0 0 0 0];


internalField   nonuniform List<scalar> 
1900
(
32100.2
9718.78
8826.84
8791.64
8742.31
8725.4
8721.7
8726.81
8727.04
8731.78
32100.2
9718.77
8826.67
8791.27
8741.77
8725.19
8722.26
8727.4
8737.44
8742.02
32100.1
9718.75
8826.59
8791.15
8741.93
8725.96
8723.09
8726.06
8731.88
8731.13
32100.2
9718.77
8826.67
8791.27
8741.77
8725.19
8722.26
8727.4
8737.44
8742.02
32100.2
9718.78
8826.84
8791.64
8742.31
8725.4
8721.7
8726.81
8727.04
8731.78
8867.74
8718.46
8668.69
8504.43
8782.34
8743.05
8643.64
8595.2
8435.76
8335.37
8710.69
8623.76
8580.43
8454.78
8360.19
8743.05
8643.64
8595.2
8435.76
8335.37
8867.74
8718.46
8668.69
8504.43
8782.34
3653
2031.38
1408.07
1365.68
1402.07
4119.18
2254.68
1531.07
1440.43
1485.07
4232.49
2215.22
1483.3
1393.39
1443.72
4119.18
2254.68
1531.07
1440.43
1485.07
3653
2031.38
1408.07
1365.68
1402.07
1066.91
687.847
571.13
715.357
1265.13
1472.16
1541.17
1513.06
1377.94
1169.09
944.304
785.129
704.76
658.786
621.254
587.597
557.833
535.272
521.254
513.313
508.307
504.416
500.986
497.98
495.519
493.808
492.83
492.817
493.899
496.173
499.041
503.371
507.899
515.72
525.355
543.472
559.52
578.918
632.885
599.48
1222.92
738.981
546.188
667.928
1273.21
1510.48
1578.46
1538.47
1392.7
1176.89
947.772
786.315
705.176
658.933
621.362
587.828
557.933
535.276
521.236
513.294
508.291
504.402
500.972
497.965
495.502
493.788
492.807
492.793
493.874
496.149
499.015
503.349
507.865
515.711
525.326
543.521
559.52
578.936
632.676
599.07
1200.71
717.255
541.338
658.698
1254.63
1502.25
1570.32
1532.16
1390.73
1177.76
949.323
786.943
705.366
658.995
621.404
587.914
557.971
535.283
521.231
513.289
508.287
504.4
500.97
497.961
495.497
493.781
492.799
492.784
493.864
496.138
499.004
503.339
507.851
515.706
525.317
543.54
559.529
578.973
632.649
598.972
1222.92
738.981
546.188
667.928
1273.21
1510.48
1578.46
1538.47
1392.7
1176.89
947.772
786.315
705.176
658.933
621.362
587.828
557.933
535.276
521.236
513.294
508.291
504.402
500.972
497.965
495.502
493.788
492.807
492.793
493.874
496.149
499.015
503.349
507.865
515.711
525.326
543.521
559.52
578.936
632.676
599.07
1066.91
687.847
571.13
715.357
1265.13
1472.16
1541.17
1513.06
1377.94
1169.09
944.304
785.129
704.76
658.786
621.254
587.597
557.833
535.272
521.254
513.313
508.307
504.416
500.986
497.98
495.519
493.808
492.83
492.817
493.899
496.173
499.041
503.371
507.899
515.72
525.355
543.472
559.52
578.918
632.885
599.48
955.354
803.184
798.402
878.614
1274.21
1433.03
1502.98
1461.75
1335.09
1141.49
929.95
779.133
702.59
657.86
620.506
586.586
557.252
535.127
521.293
513.382
508.364
504.462
501.029
498.031
495.583
493.884
492.916
492.91
493.995
496.261
499.131
503.446
508.015
515.736
525.389
543.203
559.541
579.029
633.111
599.13
996.716
894.884
950.681
1081.62
1240.24
1326.8
1367.05
1344.27
1247.96
1077.15
891.008
763.073
697.354
655.376
618.267
584.353
555.871
534.714
521.376
513.572
508.529
504.595
501.159
498.18
495.763
494.098
493.152
493.163
494.258
496.508
499.376
503.667
508.296
515.869
525.401
542.674
559.591
580.111
635.389
601.833
947.118
883.263
965.557
1028.5
1122.9
1224.43
1260.54
1231.97
1143.31
994.316
842.711
743.682
690.216
651.166
614.621
581.301
553.99
534.082
521.457
513.852
508.801
504.834
501.395
498.446
496.076
494.46
493.541
493.579
494.686
496.911
499.776
504.032
508.741
516.133
525.462
542.063
559.638
581.615
637.952
604.662
912.914
892.87
923.161
972.777
1033.22
1113.82
1148.89
1121.25
1036.08
910.756
796.412
724.848
681.678
645.474
609.831
577.66
551.856
533.382
521.588
514.244
509.206
505.212
501.778
498.87
496.558
494.995
494.113
494.182
495.291
497.48
500.336
504.554
509.328
516.548
525.608
541.572
559.748
583.263
640.734
607.36
857.922
863.248
849.548
890.385
962.647
1031.68
1046.46
1013.26
935.573
837.425
757.176
707.167
671.818
638.274
604.06
573.597
549.64
532.754
521.845
514.8
509.801
505.794
502.374
499.515
497.265
495.756
494.914
495.009
496.098
498.232
501.059
505.224
510.028
517.081
525.863
541.292
559.82
584.821
643.317
609.515
786.818
817.14
788.111
838.686
917.185
954.338
953.04
916.856
850.492
779.886
726.522
691.509
661.984
630.569
598.058
569.643
547.732
532.458
522.411
515.676
510.735
506.732
503.335
500.529
498.34
496.884
496.084
496.19
497.244
499.306
502.088
506.191
510.998
517.908
526.445
541.493
560.254
586.758
646.187
612.075
753.671
789.718
756.946
796.063
873.902
881.123
872.042
836.243
784.135
737.537
702.708
677.18
651.543
622.018
591.718
565.796
546.169
532.504
523.318
516.901
512.043
508.064
504.699
501.943
499.806
498.392
497.616
497.698
498.679
500.633
503.325
507.323
512.074
518.826
527.135
541.81
560.75
588.527
648.859
614.488
738.725
770.635
734.456
763.336
825.793
818.282
802.849
771.702
735.233
706.782
684.427
665.045
641.891
614.027
586.146
562.866
545.532
533.369
524.973
518.855
514.089
510.144
506.811
504.095
501.993
500.602
499.829
499.856
500.729
502.544
505.109
508.967
513.618
520.206
528.338
542.687
561.819
590.761
652.045
617.819
729.893
752.747
711.899
738.302
773.501
763.626
746.34
724.336
702.385
685.373
670.231
654.003
632.176
606.132
581.031
560.595
545.485
534.716
527.042
521.223
516.572
512.682
509.392
506.716
504.644
503.27
502.474
502.417
503.162
504.813
507.215
510.908
515.424
521.852
529.828
543.864
563.161
593.159
655.351
621.205
720.749
735.466
689.203
712.884
724.08
717.065
704.43
692.657
680.123
669.956
659.126
644.404
623.423
599.431
577.216
559.661
546.622
537.155
530.131
524.599
520.071
516.237
512.974
510.311
508.238
506.844
505.966
505.787
506.373
507.828
510.034
513.527
517.886
524.15
532.012
545.753
565.308
596.263
659.323
625.526
708.387
718.058
667.329
681.637
686.733
684.044
678.754
673.05
665.684
659.032
649.836
635.306
615.28
593.762
574.623
559.619
548.318
539.937
533.469
528.205
523.82
520.079
516.886
514.283
512.253
510.869
509.942
509.684
510.123
511.406
513.438
516.762
520.993
527.153
534.969
548.509
568.436
600.358
664.235
630.888
696.348
703.11
647.853
653.536
666.344
665.176
662.931
660.233
656.177
651.576
642.771
628.042
608.983
590.008
573.966
561.296
551.579
544.115
538.136
533.129
528.881
525.21
522.052
519.466
517.433
516.019
515.018
514.667
514.934
516.034
517.898
521.053
525.184
531.268
539.114
552.536
572.917
605.699
670.308
637.578
690.533
695.093
636.697
640.546
656.146
655.289
654.707
653.401
650.559
646.049
636.661
621.856
604.512
588.153
574.672
563.853
555.389
548.583
542.925
538.094
534.006
530.516
527.546
525.123
523.201
521.836
520.818
520.413
520.534
521.488
523.219
526.265
530.361
536.474
544.467
557.948
578.999
612.819
678.063
645.993
689.419
691.413
631.622
632.996
651.129
650.79
651.657
651.146
648.893
643.216
632.48
618.32
603.275
589.886
578.584
569.578
562.342
556.334
551.186
546.658
542.706
539.201
536.116
533.54
531.455
529.951
528.787
528.236
528.154
528.976
530.58
533.522
537.626
543.796
551.991
565.696
587.453
622.095
687.664
656.421
692.252
692.484
632.245
633.013
652.937
652.445
653.655
652.585
649.386
642.213
631.078
618.372
605.593
594.434
585.223
577.822
571.716
566.448
561.703
557.339
553.5
550.101
547.016
544.294
541.985
540.255
538.86
538.117
537.86
538.572
540.086
543.037
547.284
553.693
562.265
576.428
599.11
634.605
699.619
668.313
702.043
700.609
641.805
642.535
663.202
662.282
663.105
660.798
656.007
648.084
637.469
626.352
615.839
606.986
599.688
593.773
588.829
584.513
580.538
576.685
572.967
569.275
565.666
562.399
559.608
557.547
555.856
554.912
554.416
554.84
556.129
558.988
563.36
570.073
579.154
594.139
617.986
653.966
716.304
683.186
722.41
720.872
666.539
666.398
685.845
682.807
681.542
676.793
669.992
661.348
651.172
641.451
632.471
624.808
618.114
612.229
606.904
602.025
597.548
593.457
589.833
586.589
583.741
581.386
579.411
578.001
576.701
576.156
575.936
576.695
578.545
582.064
587.316
594.937
605.165
621.445
646.379
681.865
738.947
701.917
763.09
744.067
711.202
709.21
723.679
716.325
710.38
701.28
691.07
680.772
670.066
660.444
651.617
643.944
636.964
630.602
624.709
619.336
614.575
610.55
607.507
605.391
604.006
603.314
603.12
603.526
603.837
604.89
606.113
608.239
611.391
616.058
622.63
631.352
642.685
659.429
683.872
716.452
758.196
711.644
1892.02
768.649
767.902
759.705
762.765
752.197
742.8
731.992
721.241
711.875
702.905
695.2
688.308
682.347
676.988
672.277
668.164
664.651
661.658
659.268
657.903
657.47
657.704
658.467
659.609
661.281
662.981
665.452
667.996
671.301
675.433
680.945
688.274
697.575
708.619
723.233
742.247
758.671
747.559
1619.72
30696.3
1681.65
690.906
683.547
674.718
664.247
653.797
645.622
637.613
632.537
628.108
625.19
622.981
621.683
620.953
620.817
621.051
621.362
621.432
621.416
621.976
623.017
624.261
625.419
626.754
628.623
630.474
633.448
636.343
640.17
644.773
650.961
659.089
669.559
680.915
694.606
709.351
711.353
1546.41
26229.5
30696.3
1681.65
690.906
683.547
674.718
664.247
653.797
645.622
637.613
632.537
628.108
625.19
622.981
621.683
620.953
620.817
621.051
621.362
621.432
621.416
621.976
623.017
624.261
625.419
626.754
628.623
630.474
633.448
636.343
640.17
644.773
650.961
659.089
669.559
680.915
694.606
709.351
711.353
1546.41
26229.5
1892.02
768.649
767.902
759.705
762.765
752.197
742.8
731.992
721.241
711.875
702.905
695.2
688.308
682.347
676.988
672.277
668.164
664.651
661.658
659.268
657.903
657.47
657.704
658.467
659.609
661.281
662.981
665.452
667.996
671.301
675.433
680.945
688.274
697.575
708.619
723.233
742.247
758.671
747.559
1619.72
763.09
744.067
711.202
709.21
723.679
716.325
710.38
701.28
691.07
680.772
670.066
660.444
651.617
643.944
636.964
630.602
624.709
619.336
614.575
610.55
607.507
605.391
604.006
603.314
603.12
603.526
603.837
604.89
606.113
608.239
611.391
616.058
622.63
631.352
642.685
659.429
683.872
716.452
758.196
711.644
722.41
720.872
666.539
666.398
685.845
682.807
681.542
676.793
669.992
661.348
651.172
641.451
632.471
624.808
618.114
612.229
606.904
602.025
597.548
593.457
589.833
586.589
583.741
581.386
579.411
578.001
576.701
576.156
575.936
576.695
578.545
582.064
587.316
594.937
605.165
621.445
646.379
681.865
738.947
701.917
702.043
700.609
641.805
642.535
663.202
662.282
663.105
660.798
656.007
648.084
637.469
626.352
615.839
606.986
599.688
593.773
588.829
584.513
580.538
576.685
572.967
569.275
565.666
562.399
559.608
557.547
555.856
554.912
554.416
554.84
556.129
558.988
563.36
570.073
579.154
594.139
617.986
653.966
716.304
683.186
692.252
692.484
632.245
633.013
652.937
652.445
653.655
652.585
649.386
642.213
631.078
618.372
605.593
594.434
585.223
577.822
571.716
566.448
561.703
557.339
553.5
550.101
547.016
544.294
541.985
540.255
538.86
538.117
537.86
538.572
540.086
543.037
547.284
553.693
562.265
576.428
599.11
634.605
699.619
668.313
689.419
691.413
631.622
632.996
651.129
650.79
651.657
651.146
648.893
643.216
632.48
618.32
603.275
589.886
578.584
569.578
562.342
556.334
551.186
546.658
542.706
539.201
536.116
533.54
531.455
529.951
528.787
528.236
528.154
528.976
530.58
533.522
537.626
543.796
551.991
565.696
587.453
622.095
687.664
656.421
690.533
695.093
636.697
640.546
656.146
655.289
654.707
653.401
650.559
646.049
636.661
621.856
604.512
588.153
574.672
563.853
555.389
548.583
542.925
538.094
534.006
530.516
527.546
525.123
523.201
521.836
520.818
520.413
520.534
521.488
523.219
526.265
530.361
536.474
544.467
557.948
578.999
612.819
678.063
645.993
696.348
703.11
647.853
653.536
666.344
665.176
662.931
660.233
656.177
651.576
642.771
628.042
608.983
590.008
573.966
561.296
551.579
544.115
538.136
533.129
528.881
525.21
522.052
519.466
517.433
516.019
515.018
514.667
514.934
516.034
517.898
521.053
525.184
531.268
539.114
552.536
572.917
605.699
670.308
637.578
708.387
718.058
667.329
681.637
686.733
684.044
678.754
673.05
665.684
659.032
649.836
635.306
615.28
593.762
574.623
559.619
548.318
539.937
533.469
528.205
523.82
520.079
516.886
514.283
512.253
510.869
509.942
509.684
510.123
511.406
513.438
516.762
520.993
527.153
534.969
548.509
568.436
600.358
664.235
630.888
720.749
735.466
689.203
712.884
724.08
717.065
704.43
692.657
680.123
669.956
659.126
644.404
623.423
599.431
577.216
559.661
546.622
537.155
530.131
524.599
520.071
516.237
512.974
510.311
508.238
506.844
505.966
505.787
506.373
507.828
510.034
513.527
517.886
524.15
532.012
545.753
565.308
596.263
659.323
625.526
729.893
752.747
711.899
738.302
773.501
763.626
746.34
724.336
702.385
685.373
670.231
654.003
632.176
606.132
581.031
560.595
545.485
534.716
527.042
521.223
516.572
512.682
509.392
506.716
504.644
503.27
502.474
502.417
503.162
504.813
507.215
510.908
515.424
521.852
529.828
543.864
563.161
593.159
655.351
621.205
738.725
770.635
734.456
763.336
825.793
818.282
802.849
771.702
735.233
706.782
684.427
665.045
641.891
614.027
586.146
562.866
545.532
533.369
524.973
518.855
514.089
510.144
506.811
504.095
501.993
500.602
499.829
499.856
500.729
502.544
505.109
508.967
513.618
520.206
528.338
542.687
561.819
590.761
652.045
617.819
753.671
789.718
756.946
796.063
873.902
881.123
872.042
836.243
784.135
737.537
702.708
677.18
651.543
622.018
591.718
565.796
546.169
532.504
523.318
516.901
512.043
508.064
504.699
501.943
499.806
498.392
497.616
497.698
498.679
500.633
503.325
507.323
512.074
518.826
527.135
541.81
560.75
588.527
648.859
614.488
786.818
817.14
788.111
838.686
917.185
954.338
953.04
916.856
850.492
779.886
726.522
691.509
661.984
630.569
598.058
569.643
547.732
532.458
522.411
515.676
510.735
506.732
503.335
500.529
498.34
496.884
496.084
496.19
497.244
499.306
502.088
506.191
510.998
517.908
526.445
541.493
560.254
586.758
646.187
612.075
857.922
863.248
849.548
890.385
962.647
1031.68
1046.46
1013.26
935.573
837.425
757.176
707.167
671.818
638.274
604.06
573.597
549.64
532.754
521.845
514.8
509.801
505.794
502.374
499.515
497.265
495.756
494.914
495.009
496.098
498.232
501.059
505.224
510.028
517.081
525.863
541.292
559.82
584.821
643.317
609.515
912.914
892.87
923.161
972.777
1033.22
1113.82
1148.89
1121.25
1036.08
910.756
796.412
724.848
681.678
645.474
609.831
577.66
551.856
533.382
521.588
514.244
509.206
505.212
501.778
498.87
496.558
494.995
494.113
494.182
495.291
497.48
500.336
504.554
509.328
516.548
525.608
541.572
559.748
583.263
640.734
607.36
947.118
883.263
965.557
1028.5
1122.9
1224.43
1260.54
1231.97
1143.31
994.316
842.711
743.682
690.216
651.166
614.621
581.301
553.99
534.082
521.457
513.852
508.801
504.834
501.395
498.446
496.076
494.46
493.541
493.579
494.686
496.911
499.776
504.032
508.741
516.133
525.462
542.063
559.638
581.615
637.952
604.662
996.716
894.884
950.681
1081.62
1240.24
1326.8
1367.05
1344.27
1247.96
1077.15
891.008
763.073
697.354
655.376
618.267
584.353
555.871
534.714
521.376
513.572
508.529
504.595
501.159
498.18
495.763
494.098
493.152
493.163
494.258
496.508
499.376
503.667
508.296
515.869
525.401
542.674
559.591
580.111
635.389
601.833
955.354
803.184
798.402
878.614
1274.21
1433.03
1502.98
1461.75
1335.09
1141.49
929.95
779.133
702.59
657.86
620.506
586.586
557.252
535.127
521.293
513.382
508.364
504.462
501.029
498.031
495.583
493.884
492.916
492.91
493.995
496.261
499.131
503.446
508.015
515.736
525.389
543.203
559.541
579.029
633.111
599.13
)
;

boundaryField
{
    inlet
    {
        type            fixedValue;
        value           uniform 10000;
    }
    outlet
    {
        type            fixedValue;
        value           uniform 1000;
    }
    obstacle
    {
        type            zeroGradient;
    }
    empty
    {
        type            empty;
    }
}


// ************************************************************************* //
