/*--------------------------------*- C++ -*----------------------------------*\
| =========                 |                                                 |
| \\      /  F ield         | OpenFOAM: The Open Source CFD Toolbox           |
|  \\    /   O peration     | Version:  v1912                                 |
|   \\  /    A nd           | Website:  www.openfoam.com                      |
|    \\/     M anipulation  |                                                 |
\*---------------------------------------------------------------------------*/
FoamFile
{
    version     2.0;
    format      ascii;
    class       volTensorField;
    location    "8.94";
    object      grad(U);
}
// * * * * * * * * * * * * * * * * * * * * * * * * * * * * * * * * * * * * * //

dimensions      [0 0 -1 0 0 0 0];


internalField   nonuniform List<tensor> 
1900
(
(2.90928 -3.37157e-06 0 -2.70632e-06 -2.26373e-06 0 0 0 0)
(-1.69977 -7.52562e-06 0 5.9928e-06 -4.69898e-06 0 0 0 0)
(0.122573 -2.34398e-05 0 1.47383e-05 -1.12207e-05 0 0 0 0)
(0.00423266 -5.04958e-05 0 -1.67186e-05 -3.57053e-05 0 0 0 0)
(-0.106231 -0.000157236 0 -6.61375e-05 -0.000134888 0 0 0 0)
(-0.0980368 -0.000268886 0 -0.000305319 -0.000468556 0 0 0 0)
(-0.0463097 -0.00143445 0 -0.000737497 -0.000819445 0 0 0 0)
(-0.0237239 0.0188028 0 -0.00164109 -0.00274294 0 0 0 0)
(-0.0708761 0.0580675 0 0.000664827 0.0292196 0 0 0 0)
(-0.0451312 0.200254 0 0.0680486 0.110295 0 0 0 0)
(2.90928 -3.59114e-06 0 6.94671e-07 4.14204e-08 0 0 0 0)
(-1.69976 -1.43137e-06 0 1.19837e-05 3.33015e-06 0 0 0 0)
(0.12255 -7.56647e-06 0 2.26378e-05 7.56704e-06 0 0 0 0)
(0.00415178 -7.31713e-05 0 -5.90141e-05 2.677e-05 0 0 0 0)
(-0.10652 -0.000275615 0 -0.000186405 5.80628e-05 0 0 0 0)
(-0.0987082 -0.000415671 0 -0.000704996 0.000184006 0 0 0 0)
(-0.0476454 -0.000839935 0 -0.00128622 0.000326949 0 0 0 0)
(-0.0223216 0.0112363 0 -0.000276519 0.00161845 0 0 0 0)
(-0.00118632 0.0549706 0 0.008475 -0.0184758 0 0 0 0)
(0.0852637 0.142503 0 0.104627 -0.056449 0 0 0 0)
(2.90929 -4.6986e-13 0 -3.91397e-13 4.44461e-06 0 0 0 0)
(-1.69975 1.84027e-13 0 -1.51788e-14 2.73766e-06 0 0 0 0)
(0.122502 9.89179e-14 0 -2.1684e-14 7.30736e-06 0 0 0 0)
(0.00402362 5.28521e-14 0 -7.07442e-14 1.78706e-05 0 0 0 0)
(-0.106877 1.34019e-13 0 -1.29562e-13 0.00015365 0 0 0 0)
(-0.0991366 1.68889e-13 0 1.32815e-14 0.000569101 0 0 0 0)
(-0.0458812 1.01854e-14 0 5.35325e-14 0.000984991 0 0 0 0)
(-0.0139627 -9.41601e-14 0 -4.58075e-14 0.00224897 0 0 0 0)
(0.0340278 -8.40616e-14 0 -7.18284e-15 -0.0214876 0 0 0 0)
(0.130951 -3.38959e-14 0 4.96022e-14 -0.107692 0 0 0 0)
(2.90928 3.59114e-06 0 -6.94671e-07 4.14208e-08 0 0 0 0)
(-1.69976 1.43137e-06 0 -1.19837e-05 3.33015e-06 0 0 0 0)
(0.12255 7.56647e-06 0 -2.26378e-05 7.56704e-06 0 0 0 0)
(0.00415178 7.31713e-05 0 5.90141e-05 2.677e-05 0 0 0 0)
(-0.10652 0.000275615 0 0.000186405 5.80628e-05 0 0 0 0)
(-0.0987082 0.000415671 0 0.000704996 0.000184006 0 0 0 0)
(-0.0476454 0.000839935 0 0.00128622 0.000326949 0 0 0 0)
(-0.0223216 -0.0112363 0 0.000276519 0.00161845 0 0 0 0)
(-0.00118632 -0.0549706 0 -0.008475 -0.0184758 0 0 0 0)
(0.0852637 -0.142503 0 -0.104627 -0.056449 0 0 0 0)
(2.90928 3.37157e-06 0 2.70632e-06 -2.26373e-06 0 0 0 0)
(-1.69977 7.52562e-06 0 -5.9928e-06 -4.69898e-06 0 0 0 0)
(0.122573 2.34398e-05 0 -1.47383e-05 -1.12207e-05 0 0 0 0)
(0.00423266 5.04958e-05 0 1.67186e-05 -3.57053e-05 0 0 0 0)
(-0.106231 0.000157236 0 6.61375e-05 -0.000134888 0 0 0 0)
(-0.0980368 0.000268886 0 0.000305319 -0.000468556 0 0 0 0)
(-0.0463097 0.00143445 0 0.000737497 -0.000819445 0 0 0 0)
(-0.0237239 -0.0188028 0 0.00164109 -0.00274294 0 0 0 0)
(-0.0708761 -0.0580675 0 -0.000664827 0.0292196 0 0 0 0)
(-0.0451312 -0.200254 0 -0.0680486 0.110295 0 0 0 0)
(0.169614 0.442136 -2.43471e-17 0.2629 -0.25902 3.65207e-17 5.81017e-17 7.79723e-17 -6.5993e-33)
(0.51237 0.605142 0 0.294192 -0.490356 0 -1.63975e-16 -4.72929e-17 0)
(0.792566 0.994654 0 0.283215 -0.813633 0 -2.65203e-16 -8.62314e-17 0)
(1.48349 1.6064 0 0.332663 -1.47042 0 0 0 0)
(2.76862 1.87777 2.75551e-16 1.13555 -3.5506 -4.13326e-16 -2.29773e-15 -1.53182e-15 -7.46881e-32)
(0.216187 0.159885 0 0.182475 -0.200938 0 1.05608e-16 3.11674e-17 0)
(0.408911 0.181423 0 0.125212 -0.338201 0 1.63975e-16 4.72929e-17 0)
(0.753291 0.429151 0 0.0313564 -0.632964 0 2.65203e-16 8.62314e-17 0)
(1.69433 0.86287 0 -0.0960119 -1.33042 0 0 0 0)
(3.70945 0.57227 0 -0.201779 -3.09488 0 0 0 0)
(0.266373 -1.31858e-13 0 1.05327e-13 -0.288049 0 0 0 0)
(0.427064 1.12353e-13 0 1.30176e-13 -0.370478 0 0 0 0)
(0.741698 7.91682e-14 0 3.77588e-13 -0.642899 0 0 0 0)
(1.59599 -1.49322e-13 0 2.24849e-13 -1.37646 0 0 0 0)
(3.45347 1.0389e-13 0 3.80761e-13 -3.66328 0 0 0 0)
(0.216187 -0.159885 0 -0.182475 -0.200938 0 1.05608e-16 -3.11674e-17 0)
(0.408911 -0.181423 0 -0.125212 -0.338201 0 1.63975e-16 -4.72929e-17 0)
(0.753291 -0.429151 0 -0.0313564 -0.632964 0 2.65203e-16 -8.62314e-17 0)
(1.69433 -0.86287 0 0.0960119 -1.33042 0 0 0 0)
(3.70945 -0.57227 0 0.201779 -3.09488 0 0 0 0)
(0.169614 -0.442136 2.43471e-17 -0.2629 -0.25902 3.65207e-17 -2.69317e-16 1.40307e-16 -6.5993e-33)
(0.51237 -0.605142 0 -0.294192 -0.490356 0 -1.63975e-16 4.72929e-17 0)
(0.792566 -0.994654 0 -0.283215 -0.813633 0 -2.65203e-16 8.62314e-17 0)
(1.48349 -1.6064 9.97744e-17 -0.332663 -1.47042 1.49662e-16 -9.45714e-16 6.30476e-16 -2.70439e-32)
(2.76862 -1.87777 -2.75551e-16 -1.13555 -3.5506 -4.13326e-16 2.29773e-15 -1.53182e-15 -7.46881e-32)
(4.18673 -0.78277 -1.86407e-17 0.00279051 4.49461 -1.67766e-16 2.27848e-15 -1.17792e-16 5.05256e-33)
(2.31245 -0.309364 8.97812e-18 0.547191 2.76046 8.0803e-17 -2.55425e-15 1.98838e-16 2.43352e-33)
(1.3778 -0.00229286 0 0.732524 2.27158 0 0 0 0)
(1.06811 0.0809786 -5.23635e-18 0.660868 2.08491 -4.71271e-17 2.39009e-15 -2.00563e-16 1.41932e-33)
(0.662364 0.5548 4.71803e-18 0.510348 1.76365 4.24623e-17 -1.13717e-15 1.26352e-16 1.27883e-33)
(4.32056 -0.952071 0 -0.707296 -0.683814 0 -1.13928e-15 -8.78533e-18 0)
(2.60013 -0.201521 0 0.323467 0.999178 0 1.28536e-15 -5.7851e-17 0)
(1.46077 -0.0168185 0 0.445523 1.37998 0 0 0 0)
(1.019 -0.0597524 0 0.362976 1.4037 0 -1.50898e-15 7.55393e-17 0)
(0.553355 0.232008 0 0.17203 1.39274 0 2.89429e-16 -7.82294e-18 0)
(4.32022 3.44281e-14 0 1.91652e-13 0.78421 0 0 0 0)
(2.57665 -5.14916e-15 0 2.13134e-13 1.84343 0 0 0 0)
(1.35694 -3.26068e-14 0 9.63735e-14 1.9712 0 0 0 0)
(0.93286 6.68561e-14 0 9.21218e-14 1.76723 0 6.07964e-16 9.48847e-31 0)
(0.562643 -6.072e-14 0 -1.90211e-14 2.07803 0 -5.78858e-16 -3.54436e-30 0)
(4.32056 0.952071 0 0.707296 -0.683814 0 -1.13928e-15 8.78533e-18 0)
(2.60013 0.201521 0 -0.323467 0.999178 0 1.28536e-15 5.7851e-17 0)
(1.46077 0.0168185 0 -0.445523 1.37998 0 0 0 0)
(1.019 0.0597524 0 -0.362976 1.4037 0 -1.50898e-15 -7.55393e-17 0)
(0.553355 -0.232008 0 -0.17203 1.39274 0 2.89429e-16 7.82294e-18 0)
(4.18673 0.78277 0 -0.00279051 4.49461 0 1.13928e-15 -8.78533e-18 0)
(2.31245 0.309364 -8.97812e-18 -0.547191 2.76046 8.0803e-17 -1.64796e-17 8.3136e-17 2.43352e-33)
(1.3778 0.00229286 0 -0.732524 2.27158 0 0 0 0)
(1.06811 -0.0809786 5.23635e-18 -0.660868 2.08491 -4.71271e-17 1.99032e-17 -6.27905e-17 1.41932e-33)
(0.662364 -0.5548 -4.71803e-18 -0.510348 1.76365 4.24623e-17 1.13717e-15 1.26352e-16 1.27883e-33)
(0.208192 0.663482 0 -0.468406 -0.597598 0 0 0 0)
(0.0841274 0.101288 0 -0.959428 -0.268276 0 0 0 0)
(0.0693531 -0.241785 0 -1.14578 0.0298232 0 0 0 0)
(0.118639 -0.118172 0 -1.00358 0.000353077 0 0 0 0)
(0.0680547 -0.0193803 0 -0.921241 0.0308406 0 0 0 0)
(0.110912 0.0147574 0 -0.806944 0.0625558 0 0 0 0)
(0.144676 0.0319002 0 -0.694077 0.127478 0 0 0 0)
(0.156777 0.015909 0 -0.566792 0.172323 0 0 0 0)
(0.13515 0.0122634 0 -0.440271 0.232566 0 0 0 0)
(0.115282 0.0356813 0 -0.371046 0.222092 0 0 0 0)
(0.179339 -8.96313e-05 0 -0.282793 0.167702 0 0 0 0)
(0.172025 -0.0263208 0 -0.16793 0.229069 0 0 0 0)
(-0.00159959 -0.012517 0 -0.132827 0.211491 0 0 0 0)
(-0.434861 -0.0216087 0 -0.0922113 0.132785 0 0 0 0)
(-1.12768 -0.0190734 0 -0.330457 0.121437 0 0 0 0)
(-1.09503 0.014499 0 -0.343554 0.126054 0 0 0 0)
(-0.375455 0.0383881 0 -0.260083 0.128223 0 0 0 0)
(-0.027271 0.0174387 0 -0.148603 0.0833443 0 0 0 0)
(-0.000556003 -0.0437665 0 -0.0321535 0.0745683 0 0 0 0)
(-0.0653068 -0.0883527 0 0.0394645 0.172114 0 0 0 0)
(-0.216502 -0.0748208 0 0.100683 0.330762 0 0 0 0)
(-0.381379 -0.0584272 0 0.188965 0.486065 0 0 0 0)
(-0.459989 -0.0550405 0 0.262219 0.556394 0 0 0 0)
(-0.443438 0.010651 0 0.106658 0.539093 0 0 0 0)
(-0.423403 0.0646041 0 -0.0847832 0.470111 0 0 0 0)
(-0.369105 0.0450976 0 -0.133835 0.410702 0 0 0 0)
(-1.30331 0.039894 0 -0.0921652 0.370147 0 0 0 0)
(-2.78346 0.0370112 0 -0.00434781 0.285745 0 0 0 0)
(-2.96704 0.0348942 0 0.0548028 0.210382 0 0 0 0)
(-1.74181 0.033619 0 0.0779232 0.130742 0 0 0 0)
(-0.499988 0.00971428 0 0.0102934 0.108164 0 0 0 0)
(-0.134695 -0.00185005 0 0.00766768 0.109786 0 0 0 0)
(-0.0938968 -0.00339787 0 0.0107386 0.11301 0 0 0 0)
(-0.0770259 -0.0054739 0 0.00929516 0.117441 0 0 0 0)
(-0.0631282 -0.00759368 0 0.000392513 0.125564 0 0 0 0)
(-0.0642621 -0.00535179 0 -0.0172465 0.136185 0 0 0 0)
(-0.0616062 0.00249085 0 -0.0364815 0.139666 0 0 0 0)
(-0.0431916 0.00802724 0 -0.0467215 0.129442 0 0 0 0)
(-0.0237475 0.00841585 0 -0.048076 0.116198 0 0 0 0)
(-0.008235 0.00407991 0 -0.0453615 0.102671 0 0 0 0)
(-0.0196797 0.493406 0 0.195022 0.148085 0 0 0 0)
(-0.134299 0.205663 0 -0.384773 -0.702359 0 0 0 0)
(0.0466083 -0.128043 0 -0.716369 -0.200094 0 0 0 0)
(0.156882 -0.174596 0 -0.656302 0.128775 0 0 0 0)
(0.102408 -0.0911287 0 -0.588798 0.206123 0 0 0 0)
(0.14095 -0.0554814 0 -0.486143 0.195395 0 0 0 0)
(0.173156 -0.0217786 0 -0.397633 0.155394 0 0 0 0)
(0.186573 -0.00731128 0 -0.330132 0.0857383 0 0 0 0)
(0.158034 0.00918694 0 -0.275773 0.100707 0 0 0 0)
(0.137177 0.0330667 0 -0.244601 0.043583 0 0 0 0)
(0.20654 0.00950502 0 -0.183786 -0.0219475 0 0 0 0)
(0.193509 0.00322644 0 -0.128988 0.0438911 0 0 0 0)
(0.00938744 0.0127014 0 -0.0975536 0.0685301 0 0 0 0)
(-0.462705 -0.00719224 0 -0.0917988 0.0869181 0 0 0 0)
(-1.16535 -0.00427451 0 -0.23437 0.14281 0 0 0 0)
(-1.08274 0.0260315 0 -0.269189 0.152483 0 0 0 0)
(-0.341902 0.0366604 0 -0.167375 0.0929698 0 0 0 0)
(0.00483999 0.0191608 0 -0.100255 0.020524 0 0 0 0)
(0.0278957 -0.00790648 0 -0.0184555 0.0330243 0 0 0 0)
(-0.0412193 -0.032086 0 0.0321934 0.170971 0 0 0 0)
(-0.180355 -0.0356017 0 0.0585036 0.336737 0 0 0 0)
(-0.33108 -0.0350598 0 0.104103 0.428168 0 0 0 0)
(-0.464474 -0.0280327 0 0.176529 0.53758 0 0 0 0)
(-0.521476 0.0111496 0 0.0974749 0.617369 0 0 0 0)
(-0.481783 0.037109 0 0.0113111 0.500967 0 0 0 0)
(-0.370604 0.0285071 0 -0.0123286 0.395293 0 0 0 0)
(-1.26916 0.0161086 0 0.0347484 0.345944 0 0 0 0)
(-2.76149 0.00942442 0 0.115144 0.258157 0 0 0 0)
(-2.97012 0.0194589 0 0.0582018 0.218718 0 0 0 0)
(-1.74991 0.0201972 0 0.0326827 0.138209 0 0 0 0)
(-0.505832 0.00409803 0 0.0127301 0.103153 0 0 0 0)
(-0.133968 -0.00115426 0 0.0145093 0.104816 0 0 0 0)
(-0.0937856 -0.00188901 0 0.018215 0.109512 0 0 0 0)
(-0.0794429 -0.00275442 0 0.0182918 0.116496 0 0 0 0)
(-0.0685785 -0.00380902 0 0.0135106 0.128329 0 0 0 0)
(-0.0710237 -0.0028014 0 0.00396729 0.142599 0 0 0 0)
(-0.0663449 0.00112426 0 -0.00637543 0.146726 0 0 0 0)
(-0.0447025 0.00396586 0 -0.0124832 0.134037 0 0 0 0)
(-0.0233607 0.00420806 0 -0.0153416 0.119132 0 0 0 0)
(-0.00779111 0.00206275 0 -0.0172748 0.105107 0 0 0 0)
(0.0507113 -1.49541e-13 0 -1.57702e-13 0.40915 0 0 0 0)
(-0.181004 -1.53478e-13 0 -4.88877e-13 -1.07806 0 0 0 0)
(-0.00963733 -2.33817e-13 0 -6.46579e-13 -1.00478 0 0 0 0)
(0.15575 -1.06376e-13 0 -2.75979e-13 -0.197764 0 0 0 0)
(0.117556 6.80102e-14 0 -5.36187e-13 0.195566 0 0 0 0)
(0.166524 1.66347e-13 0 -2.60209e-13 0.428746 0 0 0 0)
(0.190061 8.71475e-14 0 -4.65221e-13 0.577001 0 0 0 0)
(0.192227 -5.24584e-14 0 -6.78119e-13 0.578474 0 0 0 0)
(0.160032 7.65245e-14 0 -4.57336e-13 0.627266 0 0 0 0)
(0.142041 8.05486e-14 0 -6.46579e-13 0.515314 0 0 0 0)
(0.212971 -2.59769e-13 0 -5.83498e-13 0.399932 0 0 0 0)
(0.197111 -1.11055e-13 0 -3.46945e-13 0.449967 0 0 0 0)
(0.00921914 2.20276e-13 0 -1.49817e-13 0.37775 0 0 0 0)
(-0.474662 5.07833e-13 0 -3.15404e-14 0.362645 0 0 0 0)
(-1.17928 3.12086e-13 0 3.94255e-14 0.427197 0 0 0 0)
(-1.07554 -5.3268e-13 0 2.56266e-13 0.392032 0 0 0 0)
(-0.326311 -4.20124e-13 0 6.30809e-14 0.24823 0 0 0 0)
(0.0160511 1.95916e-13 0 1.34047e-13 0.139992 0 0 0 0)
(0.0379744 8.80158e-14 0 5.75613e-13 0.1165 0 0 0 0)
(-0.0429187 -2.31185e-12 0 -1.21431e-12 0.194349 0 0 0 0)
(-0.195583 -5.38632e-12 0 -1.02428e-11 0.337091 0 0 0 0)
(-0.347044 1.71742e-12 0 -7.21093e-12 0.439111 0 0 0 0)
(-0.461917 6.66191e-12 0 -7.90482e-12 0.578128 0 0 0 0)
(-0.491501 4.30797e-13 0 1.74182e-11 0.631836 0 0 0 0)
(-0.455346 -2.15717e-12 0 9.37539e-12 0.501474 0 0 0 0)
(-0.362287 -2.33776e-14 0 1.59673e-12 0.376711 0 0 0 0)
(-1.26623 -7.21349e-13 0 2.97663e-12 0.305488 0 0 0 0)
(-2.77664 -4.25272e-12 0 4.20276e-12 0.265964 0 0 0 0)
(-2.99103 -7.39461e-13 0 -2.57247e-11 0.240695 0 0 0 0)
(-1.75504 5.03518e-12 0 -5.0166e-11 0.132184 0 0 0 0)
(-0.505275 4.78011e-12 0 -2.9715e-11 0.10184 0 0 0 0)
(-0.1331 2.05141e-12 0 -1.07651e-11 0.10401 0 0 0 0)
(-0.0927964 -8.16797e-13 0 1.49817e-13 0.109775 0 0 0 0)
(-0.0783944 -1.3904e-12 0 6.03605e-12 0.116997 0 0 0 0)
(-0.0672953 -1.0181e-12 0 9.4779e-12 0.128712 0 0 0 0)
(-0.0700471 -2.05311e-12 0 9.15264e-12 0.143184 0 0 0 0)
(-0.0663918 -1.17818e-12 0 4.24219e-12 0.147971 0 0 0 0)
(-0.0457999 1.16819e-12 0 3.11462e-13 0.135455 0 0 0 0)
(-0.0251415 8.92446e-13 0 -1.25176e-12 0.120706 0 0 0 0)
(-0.00879739 -1.33552e-13 0 -1.09603e-12 0.106525 0 0 0 0)
(-0.0196797 -0.493406 0 -0.195022 0.148085 0 0 0 0)
(-0.134299 -0.205663 0 0.384773 -0.702359 0 0 0 0)
(0.0466083 0.128043 0 0.716369 -0.200094 0 0 0 0)
(0.156882 0.174596 0 0.656302 0.128775 0 0 0 0)
(0.102408 0.0911287 0 0.588798 0.206123 0 0 0 0)
(0.14095 0.0554814 0 0.486143 0.195395 0 0 0 0)
(0.173156 0.0217786 0 0.397633 0.155394 0 0 0 0)
(0.186573 0.00731128 0 0.330132 0.0857383 0 0 0 0)
(0.158034 -0.00918694 0 0.275773 0.100707 0 0 0 0)
(0.137177 -0.0330667 0 0.244601 0.043583 0 0 0 0)
(0.20654 -0.00950502 0 0.183786 -0.0219475 0 0 0 0)
(0.193509 -0.00322644 0 0.128988 0.0438911 0 0 0 0)
(0.00938744 -0.0127014 0 0.0975536 0.0685301 0 0 0 0)
(-0.462705 0.00719224 0 0.0917988 0.0869181 0 0 0 0)
(-1.16535 0.00427451 0 0.23437 0.14281 0 0 0 0)
(-1.08274 -0.0260315 0 0.269189 0.152483 0 0 0 0)
(-0.341902 -0.0366604 0 0.167375 0.0929698 0 0 0 0)
(0.00483999 -0.0191608 0 0.100255 0.020524 0 0 0 0)
(0.0278957 0.00790648 0 0.0184555 0.0330243 0 0 0 0)
(-0.0412193 0.032086 0 -0.0321934 0.170971 0 0 0 0)
(-0.180355 0.0356017 0 -0.0585036 0.336737 0 0 0 0)
(-0.33108 0.0350598 0 -0.104103 0.428168 0 0 0 0)
(-0.464474 0.0280327 0 -0.176529 0.53758 0 0 0 0)
(-0.521476 -0.0111496 0 -0.0974749 0.617369 0 0 0 0)
(-0.481783 -0.037109 0 -0.0113111 0.500967 0 0 0 0)
(-0.370604 -0.0285071 0 0.0123286 0.395293 0 0 0 0)
(-1.26916 -0.0161086 0 -0.0347484 0.345944 0 0 0 0)
(-2.76149 -0.00942442 0 -0.115144 0.258157 0 0 0 0)
(-2.97012 -0.0194589 0 -0.0582018 0.218718 0 0 0 0)
(-1.74991 -0.0201972 0 -0.0326827 0.138209 0 0 0 0)
(-0.505832 -0.00409803 0 -0.0127301 0.103153 0 0 0 0)
(-0.133968 0.00115426 0 -0.0145093 0.104816 0 0 0 0)
(-0.0937856 0.00188901 0 -0.018215 0.109512 0 0 0 0)
(-0.0794429 0.00275442 0 -0.0182918 0.116496 0 0 0 0)
(-0.0685785 0.00380902 0 -0.0135106 0.128329 0 0 0 0)
(-0.0710237 0.0028014 0 -0.00396729 0.142599 0 0 0 0)
(-0.0663449 -0.00112426 0 0.00637543 0.146726 0 0 0 0)
(-0.0447025 -0.00396586 0 0.0124832 0.134037 0 0 0 0)
(-0.0233607 -0.00420806 0 0.0153416 0.119132 0 0 0 0)
(-0.00779111 -0.00206275 0 0.0172748 0.105107 0 0 0 0)
(0.208192 -0.663482 0 0.468406 -0.597598 0 0 0 0)
(0.0841274 -0.101288 0 0.959428 -0.268276 0 0 0 0)
(0.0693531 0.241785 0 1.14578 0.0298232 0 0 0 0)
(0.118639 0.118172 0 1.00358 0.000353077 0 0 0 0)
(0.0680547 0.0193803 0 0.921241 0.0308406 0 0 0 0)
(0.110912 -0.0147574 0 0.806944 0.0625558 0 0 0 0)
(0.144676 -0.0319002 0 0.694077 0.127478 0 0 0 0)
(0.156777 -0.015909 0 0.566792 0.172323 0 0 0 0)
(0.13515 -0.0122634 0 0.440271 0.232566 0 0 0 0)
(0.115282 -0.0356813 0 0.371046 0.222092 0 0 0 0)
(0.179339 8.96313e-05 0 0.282793 0.167702 0 0 0 0)
(0.172025 0.0263208 0 0.16793 0.229069 0 0 0 0)
(-0.00159959 0.012517 0 0.132827 0.211491 0 0 0 0)
(-0.434861 0.0216087 0 0.0922113 0.132785 0 0 0 0)
(-1.12768 0.0190734 0 0.330457 0.121437 0 0 0 0)
(-1.09503 -0.014499 0 0.343554 0.126054 0 0 0 0)
(-0.375455 -0.0383881 0 0.260083 0.128223 0 0 0 0)
(-0.027271 -0.0174387 0 0.148603 0.0833443 0 0 0 0)
(-0.000556003 0.0437665 0 0.0321535 0.0745683 0 0 0 0)
(-0.0653068 0.0883527 0 -0.0394645 0.172114 0 0 0 0)
(-0.216502 0.0748208 0 -0.100683 0.330762 0 0 0 0)
(-0.381379 0.0584272 0 -0.188965 0.486065 0 0 0 0)
(-0.459989 0.0550405 0 -0.262219 0.556394 0 0 0 0)
(-0.443438 -0.010651 0 -0.106658 0.539093 0 0 0 0)
(-0.423403 -0.0646041 0 0.0847832 0.470111 0 0 0 0)
(-0.369105 -0.0450976 0 0.133835 0.410702 0 0 0 0)
(-1.30331 -0.039894 0 0.0921652 0.370147 0 0 0 0)
(-2.78346 -0.0370112 0 0.00434781 0.285745 0 0 0 0)
(-2.96704 -0.0348942 0 -0.0548028 0.210382 0 0 0 0)
(-1.74181 -0.033619 0 -0.0779232 0.130742 0 0 0 0)
(-0.499988 -0.00971428 0 -0.0102934 0.108164 0 0 0 0)
(-0.134695 0.00185005 0 -0.00766768 0.109786 0 0 0 0)
(-0.0938968 0.00339787 0 -0.0107386 0.11301 0 0 0 0)
(-0.0770259 0.0054739 0 -0.00929516 0.117441 0 0 0 0)
(-0.0631282 0.00759368 0 -0.000392513 0.125564 0 0 0 0)
(-0.0642621 0.00535179 0 0.0172465 0.136185 0 0 0 0)
(-0.0616062 -0.00249085 0 0.0364815 0.139666 0 0 0 0)
(-0.0431916 -0.00802724 0 0.0467215 0.129442 0 0 0 0)
(-0.0237475 -0.00841585 0 0.048076 0.116198 0 0 0 0)
(-0.008235 -0.00407991 0 0.0453615 0.102671 0 0 0 0)
(0.0395499 0.0261893 0 1.0459 -0.210712 0 0 0 0)
(0.038043 0.067218 0 0.895927 0.208324 0 0 0 0)
(0.0480061 0.165034 0 0.943709 0.0217265 0 0 0 0)
(0.0602546 0.240475 0 0.824697 -0.102791 0 0 0 0)
(0.0187845 0.213106 0 0.796766 -0.0686402 0 0 0 0)
(0.0331862 0.197313 0 0.732596 0.0332498 0 0 0 0)
(0.0554458 0.152698 0 0.630215 0.102399 0 0 0 0)
(0.0618197 0.100079 0 0.514926 0.183672 0 0 0 0)
(0.0617072 0.0255892 0 0.405588 0.283633 0 0 0 0)
(0.0637119 -0.070731 0 0.322651 0.320538 0 0 0 0)
(0.110582 -0.0162222 0 0.249865 0.318023 0 0 0 0)
(0.12428 -0.0099227 0 0.139699 0.377706 0 0 0 0)
(-0.0254051 -0.102257 0 0.109449 0.330756 0 0 0 0)
(-0.370931 -0.0659651 0 0.0669048 0.215396 0 0 0 0)
(-1.05125 -0.0170587 0 0.260375 0.142617 0 0 0 0)
(-1.11266 -0.0351096 0 0.235024 0.137653 0 0 0 0)
(-0.425393 -0.0614533 0 0.214997 0.15224 0 0 0 0)
(-0.101005 -0.0548079 0 0.103428 0.161686 0 0 0 0)
(-0.0571768 0.0221261 0 0.0173791 0.160135 0 0 0 0)
(-0.0966926 0.127731 0 -0.0498225 0.199353 0 0 0 0)
(-0.232337 0.187188 0 -0.0883139 0.339807 0 0 0 0)
(-0.374249 0.149574 0 -0.125554 0.523593 0 0 0 0)
(-0.418031 0.0300677 0 -0.111191 0.563599 0 0 0 0)
(-0.394042 -0.065849 0 -0.063535 0.492843 0 0 0 0)
(-0.398429 -0.085854 0 -0.0365815 0.473237 0 0 0 0)
(-0.367707 -0.0720293 0 -0.0242414 0.439468 0 0 0 0)
(-1.31089 -0.0669889 0 -0.0291632 0.379123 0 0 0 0)
(-2.82828 -0.0777432 0 -0.0690412 0.325468 0 0 0 0)
(-3.02528 -0.0988407 0 -0.116729 0.218011 0 0 0 0)
(-1.73136 -0.0687971 0 -0.0945643 0.117384 0 0 0 0)
(-0.46852 -0.0107496 0 0.000278004 0.114609 0 0 0 0)
(-0.133406 0.00338987 0 0.00758347 0.116025 0 0 0 0)
(-0.0946779 0.00494629 0 0.00611525 0.118251 0 0 0 0)
(-0.0757478 0.00748463 0 0.00673657 0.119615 0 0 0 0)
(-0.0582317 0.0111907 0 0.0100923 0.122681 0 0 0 0)
(-0.0557118 0.00869845 0 0.0180365 0.128538 0 0 0 0)
(-0.0533352 -0.00377414 0 0.0291179 0.132165 0 0 0 0)
(-0.0391766 -0.0139905 0 0.0357917 0.12718 0 0 0 0)
(-0.0237666 -0.0161355 0 0.0358595 0.117949 0 0 0 0)
(-0.00898063 -0.00821579 0 0.0313149 0.10483 0 0 0 0)
(0.00328151 0.00968799 0 0.529057 0.594427 0 0 0 0)
(0.0103605 0.0323391 0 0.490626 0.561038 0 0 0 0)
(0.0121602 -0.0168612 0 0.468653 0.586083 0 0 0 0)
(0.00834665 -0.0344912 0 0.400616 0.445184 0 0 0 0)
(0.00572305 0.0465922 0 0.383098 0.319211 0 0 0 0)
(-0.00790278 0.0363431 0 0.371896 0.2469 0 0 0 0)
(-0.0172307 0.0140641 0 0.343078 0.103417 0 0 0 0)
(-0.0087629 0.0965387 0 0.303267 0.0519174 0 0 0 0)
(-0.0107516 0.099328 0 0.252881 0.0835804 0 0 0 0)
(-0.00712569 0.016253 0 0.198101 0.0964591 0 0 0 0)
(0.039909 0.0639259 0 0.151731 0.150392 0 0 0 0)
(0.0623174 0.0580253 0 0.0686755 0.237326 0 0 0 0)
(-0.0589811 -0.0823448 0 0.0250522 0.248855 0 0 0 0)
(-0.323705 -0.112729 0 0.012886 0.112176 0 0 0 0)
(-1.00666 -0.0364679 0 0.0694556 0.0243977 0 0 0 0)
(-1.12931 0.00582669 0 0.0267477 0.125969 0 0 0 0)
(-0.475488 -0.00286072 0 0.054076 0.169102 0 0 0 0)
(-0.178164 0.0102078 0 -0.00200113 0.214582 0 0 0 0)
(-0.117872 0.0916684 0 -0.0343549 0.221941 0 0 0 0)
(-0.150326 0.240375 0 -0.0582671 0.274279 0 0 0 0)
(-0.280989 0.327015 0 -0.0980665 0.421899 0 0 0 0)
(-0.407247 0.225206 0 -0.15627 0.526013 0 0 0 0)
(-0.422724 0.0388003 0 -0.1922 0.539154 0 0 0 0)
(-0.398029 -0.0681287 0 -0.215926 0.524024 0 0 0 0)
(-0.39893 -0.104643 0 -0.223568 0.490761 0 0 0 0)
(-0.362707 -0.121347 0 -0.19982 0.443633 0 0 0 0)
(-1.34241 -0.13522 0 -0.200973 0.383582 0 0 0 0)
(-2.84381 -0.170423 0 -0.264929 0.301247 0 0 0 0)
(-2.9604 -0.201122 0 -0.238681 0.198026 0 0 0 0)
(-1.63466 -0.114398 0 -0.10952 0.122399 0 0 0 0)
(-0.418429 -0.0104684 0 0.00552415 0.120805 0 0 0 0)
(-0.129762 0.00453404 0 0.0143036 0.122178 0 0 0 0)
(-0.094294 0.00602652 0 0.0115541 0.123559 0 0 0 0)
(-0.0738788 0.00866455 0 0.010871 0.12412 0 0 0 0)
(-0.0548648 0.0142635 0 0.011132 0.124665 0 0 0 0)
(-0.0505133 0.012697 0 0.0136807 0.12625 0 0 0 0)
(-0.0489318 -0.00311169 0 0.0187342 0.128364 0 0 0 0)
(-0.038848 -0.0185291 0 0.021708 0.126126 0 0 0 0)
(-0.0280513 -0.0258135 0 0.0207856 0.120704 0 0 0 0)
(-0.0122145 -0.0145042 0 0.0155304 0.107782 0 0 0 0)
(0.00251617 -0.00598578 0 0.087147 0.551834 0 0 0 0)
(-0.0201644 0.059178 0 0.0828824 0.558802 0 0 0 0)
(-0.0387302 0.0533936 0 0.0625723 0.53348 0 0 0 0)
(-0.0221894 -0.0166926 0 0.0429466 0.518433 0 0 0 0)
(-0.00889174 0.0220319 0 0.022954 0.49397 0 0 0 0)
(-0.00537877 -0.0106347 0 0.00446338 0.464433 0 0 0 0)
(-0.010687 -0.0351939 0 0.013331 0.417278 0 0 0 0)
(-0.0250975 0.0809637 0 0.0172504 0.390876 0 0 0 0)
(-0.0396353 0.0685111 0 0.00664906 0.372035 0 0 0 0)
(-0.0337601 -0.00634891 0 0.01516 0.321386 0 0 0 0)
(-0.0141372 0.119522 0 0.0172131 0.323061 0 0 0 0)
(0.00220844 0.0849599 0 -0.0468547 0.36213 0 0 0 0)
(-0.0791658 -0.222855 0 -0.171622 0.307994 0 0 0 0)
(-0.328142 -0.28226 0 -0.167684 0.275891 0 0 0 0)
(-1.03789 -0.00376793 0 -0.260782 0.240203 0 0 0 0)
(-1.12748 0.104332 0 -0.188842 0.246089 0 0 0 0)
(-0.453097 0.0239374 0 -0.0590552 0.266444 0 0 0 0)
(-0.186221 -0.00389014 0 -0.072442 0.28283 0 0 0 0)
(-0.111397 0.0796523 0 -0.097821 0.275809 0 0 0 0)
(-0.158087 0.320418 0 -0.165361 0.345725 0 0 0 0)
(-0.326776 0.429768 0 -0.25669 0.486512 0 0 0 0)
(-0.464959 0.262565 0 -0.328658 0.54213 0 0 0 0)
(-0.475518 0.0281513 0 -0.342742 0.531095 0 0 0 0)
(-0.424269 -0.112482 0 -0.328958 0.494827 0 0 0 0)
(-0.382909 -0.163321 0 -0.291103 0.444066 0 0 0 0)
(-0.345934 -0.175311 0 -0.241979 0.395544 0 0 0 0)
(-1.37364 -0.204198 0 -0.245373 0.348141 0 0 0 0)
(-2.86462 -0.256552 0 -0.32994 0.262034 0 0 0 0)
(-2.87553 -0.271185 0 -0.323275 0.170583 0 0 0 0)
(-1.49603 -0.14321 0 -0.125266 0.109452 0 0 0 0)
(-0.349198 -0.0109618 0 0.00387324 0.122064 0 0 0 0)
(-0.127596 0.00604347 0 0.0152161 0.122527 0 0 0 0)
(-0.0979857 0.00681761 0 0.00970579 0.125715 0 0 0 0)
(-0.0761546 0.00855084 0 0.00625753 0.128739 0 0 0 0)
(-0.0555241 0.0132426 0 0.00277371 0.129809 0 0 0 0)
(-0.0483861 0.012263 0 0.00138006 0.128142 0 0 0 0)
(-0.0455998 -0.00389297 0 0.00435687 0.12697 0 0 0 0)
(-0.0371997 -0.0213728 0 0.00842216 0.123603 0 0 0 0)
(-0.0297196 -0.0338133 0 0.0107877 0.121156 0 0 0 0)
(-0.0140448 -0.020668 0 0.00886154 0.109268 0 0 0 0)
(-0.000828064 0.0164025 0 -0.224909 0.461704 0 0 0 0)
(-0.0133205 0.0146524 0 -0.228432 0.491843 0 0 0 0)
(-0.0263233 -0.0557618 0 -0.193752 0.436541 0 0 0 0)
(-0.029831 -0.0725636 0 -0.154712 0.407488 0 0 0 0)
(-0.0313608 -0.00544458 0 -0.139074 0.404823 0 0 0 0)
(-0.0171758 -0.0375602 0 -0.135539 0.379596 0 0 0 0)
(-0.00490865 -0.0568173 0 -0.122949 0.372186 0 0 0 0)
(-0.0152019 0.0529407 0 -0.122739 0.382848 0 0 0 0)
(-0.012766 0.0323646 0 -0.122578 0.31662 0 0 0 0)
(0.00305422 -0.0309406 0 -0.087561 0.271484 0 0 0 0)
(-0.0198506 0.103188 0 -0.0648436 0.341876 0 0 0 0)
(-0.119651 0.0435066 0 -0.17841 0.233055 0 0 0 0)
(-0.175417 -0.165448 0 -0.29039 0.134819 0 0 0 0)
(-0.409622 -0.178055 0 -0.309906 0.229974 0 0 0 0)
(-1.02705 -0.0651857 0 -0.453136 0.295167 0 0 0 0)
(-0.934916 0.031113 0 -0.175753 0.207534 0 0 0 0)
(-0.36332 0.0325437 0 -0.00917669 0.244298 0 0 0 0)
(-0.21552 0.019233 0 -0.0560763 0.258572 0 0 0 0)
(-0.207412 0.152276 0 -0.146374 0.307323 0 0 0 0)
(-0.303418 0.443415 0 -0.31141 0.452906 0 0 0 0)
(-0.438348 0.516279 0 -0.465792 0.568582 0 0 0 0)
(-0.49017 0.268168 0 -0.525728 0.536897 0 0 0 0)
(-0.423013 -0.00678288 0 -0.467506 0.469183 0 0 0 0)
(-0.348267 -0.151994 0 -0.383318 0.419793 0 0 0 0)
(-0.315115 -0.200316 0 -0.312594 0.382864 0 0 0 0)
(-0.31864 -0.213783 0 -0.251672 0.341667 0 0 0 0)
(-1.42717 -0.263874 0 -0.281934 0.291399 0 0 0 0)
(-2.91887 -0.341525 0 -0.413919 0.193105 0 0 0 0)
(-2.76317 -0.348155 0 -0.413726 0.0527516 0 0 0 0)
(-1.31941 -0.161152 0 -0.114126 0.0589609 0 0 0 0)
(-0.283055 0.00213191 0 0.00174545 0.0616522 0 0 0 0)
(-0.124141 0.00805213 0 0.0184664 0.0710836 0 0 0 0)
(-0.102927 0.0120124 0 0.016737 0.0858944 0 0 0 0)
(-0.0805588 0.0126096 0 0.0179312 0.10193 0 0 0 0)
(-0.0595649 0.013688 0 0.0168755 0.117866 0 0 0 0)
(-0.0489877 0.00996108 0 0.0129162 0.12528 0 0 0 0)
(-0.0421458 -0.00748513 0 0.0118528 0.124288 0 0 0 0)
(-0.032651 -0.024131 0 0.0144679 0.119076 0 0 0 0)
(-0.0276279 -0.0396275 0 0.0180409 0.119072 0 0 0 0)
(-0.0140707 -0.0259601 0 0.0178601 0.109286 0 0 0 0)
(-0.000878702 0.0230567 0 -0.354313 0.350413 0 0 0 0)
(0.00985946 0.0349302 0 -0.359275 0.35164 0 0 0 0)
(0.032309 -0.0278939 0 -0.338746 0.345161 0 0 0 0)
(0.0305001 -0.0472578 0 -0.306603 0.366538 0 0 0 0)
(0.00958319 -0.00484543 0 -0.281523 0.384863 0 0 0 0)
(0.0101594 -0.042085 0 -0.254592 0.349078 0 0 0 0)
(0.00164769 -0.0320599 0 -0.24024 0.375932 0 0 0 0)
(-0.0247393 0.0274187 0 -0.23456 0.426138 0 0 0 0)
(-0.00573623 -0.0388035 0 -0.218756 0.353736 0 0 0 0)
(0.0218747 0.0179888 0 -0.172845 0.346633 0 0 0 0)
(-0.101682 0.0824907 0 -0.151618 0.401093 0 0 0 0)
(-0.215136 -0.114568 0 -0.278148 0.228519 0 0 0 0)
(-0.20588 -0.225825 0 -0.261765 0.159571 0 0 0 0)
(-0.484971 -0.127744 0 -0.352005 0.18634 0 0 0 0)
(-0.908618 -0.025392 0 -0.447471 0.257687 0 0 0 0)
(-0.699669 0.0553136 0 -0.103737 0.250549 0 0 0 0)
(-0.337772 0.0731198 0 -0.0478279 0.31619 0 0 0 0)
(-0.318429 0.0568431 0 -0.121608 0.348156 0 0 0 0)
(-0.357445 0.26692 0 -0.254485 0.456819 0 0 0 0)
(-0.46589 0.572177 0 -0.435407 0.657968 0 0 0 0)
(-0.5333 0.510705 0 -0.563761 0.665399 0 0 0 0)
(-0.46661 0.16678 0 -0.547741 0.51944 0 0 0 0)
(-0.338287 -0.084694 0 -0.450414 0.405692 0 0 0 0)
(-0.274991 -0.195661 0 -0.376492 0.33687 0 0 0 0)
(-0.25605 -0.238607 0 -0.325933 0.285117 0 0 0 0)
(-0.316389 -0.26345 0 -0.279585 0.2375 0 0 0 0)
(-1.52998 -0.347358 0 -0.387513 0.169671 0 0 0 0)
(-2.99162 -0.486522 0 -0.603453 -0.0744701 0 0 0 0)
(-2.58663 -0.400451 0 -0.552076 -0.217608 0 0 0 0)
(-1.09567 -0.134633 0 -0.0853692 -0.238211 0 0 0 0)
(-0.221428 0.000720051 0 0.0325587 -0.20278 0 0 0 0)
(-0.113149 0.0294041 0 0.0530567 -0.136033 0 0 0 0)
(-0.0985015 0.0365427 0 0.0501942 -0.066697 0 0 0 0)
(-0.0760211 0.03936 0 0.0450416 -0.00448447 0 0 0 0)
(-0.0603567 0.0357433 0 0.0398578 0.0473294 0 0 0 0)
(-0.0532262 0.0184514 0 0.0335515 0.0856399 0 0 0 0)
(-0.0441046 -0.00987204 0 0.0234861 0.108827 0 0 0 0)
(-0.0312366 -0.0263992 0 0.0168138 0.114785 0 0 0 0)
(-0.0264508 -0.0432468 0 0.0153328 0.116918 0 0 0 0)
(-0.0142191 -0.030098 0 0.014769 0.110379 0 0 0 0)
(-0.00560918 0.0175847 0 -0.375023 0.332243 0 0 0 0)
(0.00168062 0.00959157 0 -0.377629 0.320302 0 0 0 0)
(0.0244334 -0.0414053 0 -0.383489 0.293831 0 0 0 0)
(0.0253115 -0.0343057 0 -0.396082 0.319161 0 0 0 0)
(0.0187588 -0.0222703 0 -0.398487 0.322622 0 0 0 0)
(0.0226055 -0.0461666 0 -0.386013 0.30221 0 0 0 0)
(0.0143948 0.0174404 0 -0.384927 0.337607 0 0 0 0)
(0.0055007 0.0315523 0 -0.371844 0.350067 0 0 0 0)
(0.0467046 -0.0442486 0 -0.340155 0.335717 0 0 0 0)
(0.0677512 0.0146942 0 -0.281152 0.373348 0 0 0 0)
(-0.121325 -0.0106305 0 -0.307498 0.283133 0 0 0 0)
(-0.225793 -0.189233 0 -0.355529 0.157936 0 0 0 0)
(-0.246588 -0.206094 0 -0.346486 0.169019 0 0 0 0)
(-0.588576 -0.0835065 0 -0.454776 0.221562 0 0 0 0)
(-0.787806 -0.00331099 0 -0.473133 0.229398 0 0 0 0)
(-0.549805 0.0874887 0 -0.18659 0.302019 0 0 0 0)
(-0.380541 0.126601 0 -0.224261 0.349355 0 0 0 0)
(-0.414663 0.154748 0 -0.311796 0.37002 0 0 0 0)
(-0.5098 0.450822 0 -0.47028 0.626669 0 0 0 0)
(-0.601447 0.644411 0 -0.612046 0.832889 0 0 0 0)
(-0.546596 0.382788 0 -0.63518 0.63306 0 0 0 0)
(-0.380945 0.0179049 0 -0.52891 0.420785 0 0 0 0)
(-0.257991 -0.182714 0 -0.453546 0.299606 0 0 0 0)
(-0.228313 -0.268184 0 -0.415316 0.207046 0 0 0 0)
(-0.221732 -0.296072 0 -0.398736 0.0883776 0 0 0 0)
(-0.377981 -0.325032 0 -0.402174 -0.0557253 0 0 0 0)
(-1.73926 -0.5645 0 -0.756814 -0.337238 0 0 0 0)
(-3.07745 -0.714721 0 -0.99421 -0.784216 0 0 0 0)
(-2.26393 -0.505943 0 -0.624069 -0.881277 0 0 0 0)
(-0.756036 -0.146863 0 -0.0119504 -0.782099 0 0 0 0)
(-0.149663 0.100595 0 0.123184 -0.648474 0 0 0 0)
(-0.107147 0.139187 0 0.144182 -0.520376 0 0 0 0)
(-0.110651 0.138777 0 0.147727 -0.390002 0 0 0 0)
(-0.0905193 0.12249 0 0.135092 -0.257258 0 0 0 0)
(-0.0706372 0.100535 0 0.110886 -0.131814 0 0 0 0)
(-0.0647641 0.0692227 0 0.081712 -0.0261176 0 0 0 0)
(-0.0582748 0.0206004 0 0.0501666 0.0474925 0 0 0 0)
(-0.0405078 -0.0163345 0 0.0282239 0.0927495 0 0 0 0)