/*--------------------------------*- C++ -*----------------------------------*\
| =========                 |                                                 |
| \\      /  F ield         | OpenFOAM: The Open Source CFD Toolbox           |
|  \\    /   O peration     | Version:  v1912                                 |
|   \\  /    A nd           | Website:  www.openfoam.com                      |
|    \\/     M anipulation  |                                                 |
\*---------------------------------------------------------------------------*/
FoamFile
{
    version     2.0;
    format      ascii;
    class       volScalarField;
    location    "8.94";
    object      T;
}
// * * * * * * * * * * * * * * * * * * * * * * * * * * * * * * * * * * * * * //

dimensions      [0 0 0 1 0 0 0];


internalField   nonuniform List<scalar> 
1900
(
0.903679
1.05918
1.02989
0.979321
0.944454
0.933643
0.932836
0.936349
0.943256
0.949378
0.903679
1.05918
1.02989
0.979316
0.944452
0.933655
0.932869
0.936398
0.94364
0.949083
0.903679
1.05918
1.02989
0.979314
0.944461
0.933684
0.93289
0.936269
0.943256
0.948308
0.903679
1.05918
1.02989
0.979316
0.944452
0.933655
0.932869
0.936398
0.94364
0.949083
0.903679
1.05918
1.02989
0.979321
0.944454
0.933643
0.932836
0.936349
0.943256
0.949378
0.95628
0.952193
0.954958
0.962746
1.00125
0.951267
0.949155
0.950956
0.957211
0.983179
0.950168
0.948557
0.950166
0.957086
0.98166
0.951267
0.949155
0.950956
0.957211
0.983179
0.95628
0.952193
0.954958
0.962746
1.00125
0.794307
0.679413
0.614604
0.56974
0.536428
0.814041
0.695674
0.62764
0.582918
0.542687
0.81398
0.690084
0.62146
0.578096
0.533325
0.814041
0.695674
0.62764
0.582918
0.542687
0.794307
0.679413
0.614604
0.56974
0.536428
0.509203
0.495417
0.482547
0.476402
0.470383
0.462399
0.452671
0.442886
0.433888
0.427715
0.422091
0.411759
0.408641
0.411695
0.439389
0.497597
0.523242
0.535293
0.539828
0.545756
0.557153
0.565882
0.564648
0.553308
0.531975
0.509183
0.495235
0.54851
0.558982
0.481118
0.45619
0.462458
0.472537
0.483559
0.492733
0.497162
0.497885
0.496695
0.495581
0.495098
0.526031
0.534632
0.53216
0.523349
0.511596
0.498162
0.484144
0.470964
0.458404
0.449661
0.441597
0.429282
0.422532
0.425025
0.453424
0.51186
0.535434
0.544932
0.54766
0.551635
0.560245
0.56775
0.565755
0.553342
0.531487
0.508725
0.494972
0.547525
0.559406
0.481723
0.456243
0.462459
0.472536
0.483558
0.492722
0.497131
0.49784
0.496648
0.495534
0.495045
0.527508
0.535349
0.544641
0.539266
0.52837
0.514143
0.498677
0.483644
0.469096
0.459147
0.449858
0.436537
0.42801
0.430193
0.458576
0.517133
0.539955
0.548464
0.550482
0.553495
0.561205
0.567114
0.564818
0.552919
0.531501
0.509265
0.495869
0.547987
0.559772
0.481871
0.456246
0.462457
0.472531
0.483554
0.492716
0.497109
0.497796
0.496586
0.495469
0.494971
0.526031
0.534632
0.53216
0.523349
0.511596
0.498162
0.484144
0.470964
0.458404
0.449661
0.441597
0.429282
0.422532
0.425025
0.453424
0.51186
0.535434
0.544932
0.54766
0.551635
0.560245
0.56775
0.565755
0.553342
0.531487
0.508725
0.494972
0.547525
0.559406
0.481723
0.456243
0.462459
0.472536
0.483558
0.492722
0.497131
0.49784
0.496648
0.495534
0.495045
0.509203
0.495417
0.482547
0.476402
0.470383
0.462399
0.452671
0.442886
0.433888
0.427715
0.422091
0.411759
0.408641
0.411695
0.439389
0.497597
0.523242
0.535293
0.539828
0.545756
0.557153
0.565882
0.564648
0.553308
0.531975
0.509183
0.495235
0.54851
0.558982
0.481118
0.45619
0.462458
0.472537
0.483559
0.492733
0.497162
0.497885
0.496695
0.495581
0.495098
0.401582
0.396556
0.390466
0.390429
0.390531
0.389474
0.388284
0.387045
0.385686
0.38451
0.382428
0.376256
0.375405
0.377979
0.40309
0.459773
0.491473
0.508589
0.518037
0.53001
0.547902
0.56267
0.564233
0.559358
0.541086
0.517988
0.502278
0.553158
0.558051
0.478649
0.455921
0.462375
0.472428
0.483484
0.492755
0.497313
0.498117
0.496967
0.495781
0.495211
0.314467
0.314245
0.312872
0.31332
0.314901
0.317342
0.320964
0.324689
0.328509
0.333185
0.335675
0.334997
0.335981
0.339952
0.363335
0.415716
0.451489
0.474751
0.490257
0.509374
0.536946
0.556513
0.556109
0.545693
0.526417
0.506258
0.494784
0.548903
0.550398
0.473862
0.455495
0.462172
0.472142
0.483262
0.492706
0.49747
0.498407
0.497323
0.495989
0.495208
0.300212
0.300278
0.302038
0.304069
0.305587
0.306798
0.308121
0.30953
0.311689
0.314631
0.316359
0.317714
0.319214
0.322928
0.347561
0.397774
0.432749
0.457676
0.475711
0.498409
0.531815
0.551275
0.549758
0.538048
0.519255
0.501595
0.493368
0.546137
0.539016
0.467006
0.454745
0.461736
0.471582
0.482776
0.492454
0.497481
0.498577
0.497636
0.496199
0.495259
0.29819
0.297998
0.297393
0.297698
0.298256
0.299088
0.299868
0.300499
0.302127
0.30334
0.303558
0.306056
0.311217
0.319825
0.348221
0.387783
0.418469
0.443018
0.463378
0.491619
0.528341
0.543567
0.540759
0.528467
0.511423
0.496241
0.490458
0.5407
0.52441
0.46119
0.454906
0.462055
0.47148
0.482476
0.492161
0.497384
0.498604
0.497886
0.496436
0.495419
0.301254
0.30142
0.301497
0.301302
0.301262
0.301681
0.301577
0.301476
0.302247
0.301973
0.303021
0.30735
0.312598
0.324066
0.356003
0.386224
0.414858
0.440111
0.463502
0.495997
0.530223
0.537074
0.531816
0.518172
0.503302
0.49077
0.487646
0.535369
0.511196
0.459989
0.458527
0.465565
0.474268
0.484591
0.493344
0.497661
0.498603
0.498083
0.496688
0.495629
0.30621
0.306237
0.306174
0.305667
0.305308
0.305319
0.304926
0.304927
0.304491
0.303705
0.306681
0.312797
0.320443
0.336673
0.36383
0.388774
0.41658
0.441822
0.468547
0.506109
0.530066
0.529668
0.521682
0.508803
0.498335
0.489292
0.491871
0.541949
0.513231
0.478528
0.478419
0.481002
0.484828
0.49139
0.497766
0.500697
0.500357
0.498536
0.496898
0.495822
0.312166
0.312249
0.312184
0.311724
0.311324
0.310708
0.309813
0.309908
0.309471
0.309467
0.312436
0.318158
0.327945
0.347325
0.371507
0.396267
0.4235
0.447457
0.479439
0.516146
0.525378
0.522059
0.514169
0.507155
0.503062
0.50172
0.52745
0.580092
0.542771
0.519863
0.517066
0.513673
0.512244
0.512821
0.512381
0.509714
0.505397
0.500965
0.497575
0.496128
0.318929
0.318978
0.318901
0.318675
0.31835
0.317722
0.316786
0.316473
0.316029
0.316875
0.320877
0.328417
0.342643
0.362206
0.383775
0.409366
0.432552
0.461214
0.497208
0.519241
0.52172
0.521279
0.523077
0.532236
0.542918
0.547157
0.577227
0.593047
0.557362
0.545751
0.541832
0.537599
0.536139
0.536394
0.535392
0.528988
0.518039
0.507234
0.500149
0.496973
0.327912
0.327909
0.327809
0.327621
0.32724
0.326418
0.326179
0.326375
0.326807
0.3296
0.335865
0.345285
0.358961
0.376474
0.400733
0.425415
0.44825
0.481291
0.515475
0.52761
0.538993
0.556597
0.570896
0.579508
0.578722
0.573179
0.582706
0.572385
0.555082
0.553716
0.551556
0.54865
0.548047
0.549379
0.550578
0.547326
0.535513
0.519101
0.506046
0.499415
0.341389
0.341349
0.341102
0.340567
0.33959
0.338363
0.337604
0.337798
0.339103
0.343083
0.350933
0.362791
0.380126
0.400149
0.422367
0.445964
0.484381
0.520576
0.553159
0.576786
0.591535
0.598951
0.603125
0.59851
0.585273
0.567739
0.555299
0.548606
0.551271
0.554667
0.553876
0.552048
0.552257
0.553973
0.55599
0.556446
0.548314
0.532111
0.515543
0.504681
0.358969
0.358717
0.357923
0.356976
0.35613
0.356185
0.356842
0.35916
0.363706
0.36985
0.37861
0.39187
0.412558
0.439133
0.476001
0.519766
0.566211
0.591252
0.605647
0.613337
0.616611
0.613347
0.605689
0.594946
0.573483
0.541109
0.521567
0.533829
0.547559
0.552867
0.553775
0.552791
0.553426
0.555103
0.557068
0.558063
0.553577
0.54052
0.525011
0.51266
0.38426
0.384033
0.384358
0.385838
0.389172
0.394396
0.401814
0.412275
0.426895
0.443134
0.459206
0.478832
0.512587
0.550622
0.581804
0.60255
0.616788
0.620182
0.621298
0.620107
0.617089
0.611435
0.599299
0.579549
0.547234
0.509076
0.502968
0.527203
0.545487
0.551793
0.553316
0.552719
0.553308
0.554781
0.556425
0.557693
0.555362
0.545566
0.532282
0.521665
0.423051
0.424656
0.431548
0.444082
0.459986
0.479269
0.499796
0.520995
0.542773
0.563217
0.581232
0.598496
0.613497
0.61932
0.621623
0.619488
0.619502
0.621215
0.622487
0.619722
0.612638
0.601952
0.585339
0.556591
0.516597
0.491517
0.497331
0.525359
0.544831
0.551693
0.554001
0.553278
0.553283
0.554124
0.555204
0.556408
0.5555
0.548495
0.537472
0.528696
0.478609
0.485451
0.503106
0.526264
0.547354
0.564966
0.580162
0.593347
0.604221
0.613016
0.62084
0.625511
0.625045
0.622575
0.620221
0.621071
0.621907
0.622404
0.620461
0.614163
0.60392
0.589217
0.564125
0.527544
0.498722
0.49269
0.500353
0.525234
0.545192
0.552753
0.555267
0.554145
0.553458
0.553495
0.553622
0.554098
0.554245
0.550085
0.54216
0.535596
0.531831
0.537247
0.552743
0.566361
0.573973
0.577949
0.582443
0.589975
0.599303
0.608625
0.616599
0.620918
0.622577
0.62411
0.624434
0.625347
0.624144
0.620429
0.614614
0.606306
0.592207
0.568376
0.535285
0.508487
0.500149
0.499774
0.504755
0.523949
0.544833
0.554351
0.557118
0.555917
0.554566
0.553308
0.552134
0.551219
0.551082
0.549126
0.543936
0.539128
0.538508
0.542523
0.553002
0.560738
0.56521
0.568778
0.574784
0.582416
0.591495
0.600852
0.610162
0.617974
0.623797
0.62736
0.628313
0.626619
0.622895
0.617119
0.607702
0.592476
0.568317
0.537642
0.514524
0.506607
0.50366
0.503863
0.506685
0.519135
0.53911
0.552685
0.557835
0.557403
0.556151
0.554023
0.551499
0.548524
0.546431
0.545448
0.542563
0.53914
0.533261
0.534797
0.540314
0.544273
0.549377
0.555335
0.563034
0.571603
0.580909
0.591465
0.603725
0.615692
0.624238
0.627385
0.626969
0.623811
0.617237
0.606201
0.588411
0.562781
0.534383
0.515992
0.509099
0.506039
0.504742
0.504353
0.506188
0.512332
0.526988
0.542384
0.551277
0.553855
0.554259
0.553707
0.551504
0.547061
0.542784
0.540902
0.540418
0.538537
0.526783
0.524755
0.526204
0.528842
0.53447
0.541907
0.549794
0.557796
0.566818
0.578431
0.592578
0.60615
0.615658
0.619735
0.618059
0.6101
0.596056
0.576225
0.551672
0.528245
0.514776
0.508771
0.506075
0.504898
0.503898
0.502934
0.502911
0.50571
0.513676
0.526135
0.536635
0.542712
0.546256
0.54847
0.54846
0.545523
0.541079
0.537084
0.537745
0.53582
0.519827
0.517944
0.51632
0.517642
0.522433
0.527768
0.533778
0.540527
0.548984
0.560331
0.573954
0.587028
0.595322
0.596856
0.590207
0.575844
0.557434
0.537634
0.52138
0.512632
0.508058
0.505658
0.504299
0.503127
0.501939
0.500742
0.499965
0.500641
0.503887
0.511178
0.521014
0.528966
0.534772
0.539735
0.542282
0.541766
0.540013
0.537344
0.539137
0.536393
0.50712
0.513668
0.514386
0.513982
0.515
0.516475
0.518781
0.52336
0.531787
0.543658
0.55695
0.567788
0.572391
0.567459
0.554236
0.538051
0.523728
0.514634
0.509849
0.5069
0.505233
0.504048
0.502798
0.501426
0.500134
0.499047
0.498291
0.49821
0.499079
0.502771
0.509184
0.518256
0.525592
0.532861
0.53708
0.538068
0.537768
0.535172
0.536029
0.535028
0.50712
0.513668
0.514386
0.513982
0.515
0.516475
0.518781
0.52336
0.531787
0.543658
0.55695
0.567788
0.572391
0.567459
0.554236
0.538051
0.523728
0.514634
0.509849
0.5069
0.505233
0.504048
0.502798
0.501426
0.500134
0.499047
0.498291
0.49821
0.499079
0.502771
0.509184
0.518256
0.525592
0.532861
0.53708
0.538068
0.537768
0.535172
0.536029
0.535028
0.519827
0.517944
0.51632
0.517642
0.522433
0.527768
0.533778
0.540527
0.548984
0.560331
0.573954
0.587028
0.595322
0.596856
0.590207
0.575844
0.557434
0.537634
0.52138
0.512632
0.508058
0.505658
0.504299
0.503127
0.501939
0.500742
0.499965
0.500641
0.503887
0.511178
0.521014
0.528966
0.534772
0.539735
0.542282
0.541766
0.540013
0.537344
0.539137
0.536393
0.526783
0.524755
0.526204
0.528842
0.53447
0.541907
0.549794
0.557796
0.566818
0.578431
0.592578
0.60615
0.615658
0.619735
0.618059
0.6101
0.596056
0.576225
0.551672
0.528245
0.514776
0.508771
0.506075
0.504898
0.503898
0.502934
0.502911
0.50571
0.513676
0.526135
0.536635
0.542712
0.546256
0.54847
0.54846
0.545523
0.541079
0.537084
0.537745
0.53582
0.533261
0.534797
0.540314
0.544273
0.549377
0.555335
0.563034
0.571603
0.580909
0.591465
0.603725
0.615692
0.624238
0.627385
0.626969
0.623811
0.617237
0.606201
0.588411
0.562781
0.534383
0.515992
0.509099
0.506039
0.504742
0.504353
0.506188
0.512332
0.526988
0.542384
0.551277
0.553855
0.554259
0.553707
0.551504
0.547061
0.542784
0.540902
0.540418
0.538537
0.538508
0.542523
0.553002
0.560738
0.56521
0.568778
0.574784
0.582416
0.591495
0.600852
0.610162
0.617974
0.623797
0.62736
0.628313
0.626619
0.622895
0.617119
0.607702
0.592476
0.568317
0.537642
0.514524
0.506607
0.50366
0.503863
0.506685
0.519135
0.53911
0.552685
0.557835
0.557403
0.556151
0.554023
0.551499
0.548524
0.546431
0.545448
0.542563
0.53914
0.531831
0.537247
0.552743
0.566361
0.573973
0.577949
0.582443
0.589975
0.599303
0.608625
0.616599
0.620918
0.622577
0.62411
0.624434
0.625347
0.624144
0.620429
0.614614
0.606306
0.592207
0.568376
0.535285
0.508487
0.500149
0.499774
0.504755
0.523949
0.544833
0.554351
0.557118
0.555917
0.554566
0.553308
0.552134
0.551219
0.551082
0.549126
0.543936
0.539128
0.478609
0.485451
0.503106
0.526264
0.547354
0.564966
0.580162
0.593347
0.604221
0.613016
0.62084
0.625511
0.625045
0.622575
0.620221
0.621071
0.621907
0.622404
0.620461
0.614163
0.60392
0.589217
0.564125
0.527544
0.498722
0.49269
0.500353
0.525234
0.545192
0.552753
0.555267
0.554145
0.553458
0.553495
0.553622
0.554098
0.554245
0.550085
0.54216
0.535596
0.423051
0.424656
0.431548
0.444082
0.459986
0.479269
0.499796
0.520995
0.542773
0.563217
0.581232
0.598496
0.613497
0.61932
0.621623
0.619488
0.619502
0.621215
0.622487
0.619722
0.612638
0.601952
0.585339
0.556591
0.516597
0.491517
0.497331
0.525359
0.544831
0.551693
0.554001
0.553278
0.553283
0.554124
0.555204
0.556408
0.5555
0.548495
0.537472
0.528696
0.38426
0.384033
0.384358
0.385838
0.389172
0.394396
0.401814
0.412275
0.426895
0.443134
0.459206
0.478832
0.512587
0.550622
0.581804
0.60255
0.616788
0.620182
0.621298
0.620107
0.617089
0.611435
0.599299
0.579549
0.547234
0.509076
0.502968
0.527203
0.545487
0.551793
0.553316
0.552719
0.553308
0.554781
0.556425
0.557693
0.555362
0.545566
0.532282
0.521665
0.358969
0.358717
0.357923
0.356976
0.35613
0.356185
0.356842
0.35916
0.363706
0.36985
0.37861
0.39187
0.412558
0.439133
0.476001
0.519766
0.566211
0.591252
0.605647
0.613337
0.616611
0.613347
0.605689
0.594946
0.573483
0.541109
0.521567
0.533829
0.547559
0.552867
0.553775
0.552791
0.553426
0.555103
0.557068
0.558063
0.553577
0.54052
0.525011
0.51266
0.341389
0.341349
0.341102
0.340567
0.33959
0.338363
0.337604
0.337798
0.339103
0.343083
0.350933
0.362791
0.380126
0.400149
0.422367
0.445964
0.484381
0.520576
0.553159
0.576786
0.591535
0.598951
0.603125
0.59851
0.585273
0.567739
0.555299
0.548606
0.551271
0.554667
0.553876
0.552048
0.552257
0.553973
0.55599
0.556446
0.548314
0.532111
0.515543
0.504681
0.327912
0.327909
0.327809
0.327621
0.32724
0.326418
0.326179
0.326375
0.326807
0.3296
0.335865
0.345285
0.358961
0.376474
0.400733
0.425415
0.44825
0.481291
0.515475
0.52761
0.538993
0.556597
0.570896
0.579508
0.578722
0.573179
0.582706
0.572385
0.555082
0.553716
0.551556
0.54865
0.548047
0.549379
0.550578
0.547326
0.535513
0.519101
0.506046
0.499415
0.318929
0.318978
0.318901
0.318675
0.31835
0.317722
0.316786
0.316473
0.316029
0.316875
0.320877
0.328417
0.342643
0.362206
0.383775
0.409366
0.432552
0.461214
0.497208
0.519241
0.52172
0.521279
0.523077
0.532236
0.542918
0.547157
0.577227
0.593047
0.557362
0.545751
0.541832
0.537599
0.536139
0.536394
0.535392
0.528988
0.518039
0.507234
0.500149
0.496973
0.312166
0.312249
0.312184
0.311724
0.311324
0.310708
0.309813
0.309908
0.309471
0.309467
0.312436
0.318158
0.327945
0.347325
0.371507
0.396267
0.4235
0.447457
0.479439
0.516146
0.525378
0.522059
0.514169
0.507155
0.503062
0.50172
0.52745
0.580092
0.542771
0.519863
0.517066
0.513673
0.512244
0.512821
0.512381
0.509714
0.505397
0.500965
0.497575
0.496128
0.30621
0.306237
0.306174
0.305667
0.305308
0.305319
0.304926
0.304927
0.304491
0.303705
0.306681
0.312797
0.320443
0.336673
0.36383
0.388774
0.41658
0.441822
0.468547
0.506109
0.530066
0.529668
0.521682
0.508803
0.498335
0.489292
0.491871
0.541949
0.513231
0.478528
0.478419
0.481002
0.484828
0.49139
0.497766
0.500697
0.500357
0.498536
0.496898
0.495822
0.301254
0.30142
0.301497
0.301302
0.301262
0.301681
0.301577
0.301476
0.302247
0.301973
0.303021
0.30735
0.312598
0.324066
0.356003
0.386224
0.414858
0.440111
0.463502
0.495997
0.530223
0.537074
0.531816
0.518172
0.503302
0.49077
0.487646
0.535369
0.511196
0.459989
0.458527
0.465565
0.474268
0.484591
0.493344
0.497661
0.498603
0.498083
0.496688
0.495629
0.29819
0.297998
0.297393
0.297698
0.298256
0.299088
0.299868
0.300499
0.302127
0.30334
0.303558
0.306056
0.311217
0.319825
0.348221
0.387783
0.418469
0.443018
0.463378
0.491619
0.528341
0.543567
0.540759
0.528467
0.511423
0.496241
0.490458
0.5407
0.52441
0.46119
0.454906
0.462055
0.47148
0.482476
0.492161
0.497384
0.498604
0.497886
0.496436
0.495419
0.300212
0.300278
0.302038
0.304069
0.305587
0.306798
0.308121
0.30953
0.311689
0.314631
0.316359
0.317714
0.319214
0.322928
0.347561
0.397774
0.432749
0.457676
0.475711
0.498409
0.531815
0.551275
0.549758
0.538048
0.519255
0.501595
0.493368
0.546137
0.539016
0.467006
0.454745
0.461736
0.471582
0.482776
0.492454
0.497481
0.498577
0.497636
0.496199
0.495259
0.314467
0.314245
0.312872
0.31332
0.314901
0.317342
0.320964
0.324689
0.328509
0.333185
0.335675
0.334997
0.335981
0.339952
0.363335
0.415716
0.451489
0.474751
0.490257
0.509374
0.536946
0.556513
0.556109
0.545693
0.526417
0.506258
0.494784
0.548903
0.550398
0.473862
0.455495
0.462172
0.472142
0.483262
0.492706
0.49747
0.498407
0.497323
0.495989
0.495208
0.401582
0.396556
0.390466
0.390429
0.390531
0.389474
0.388284
0.387045
0.385686
0.38451
0.382428
0.376256
0.375405
0.377979
0.40309
0.459773
0.491473
0.508589
0.518037
0.53001
0.547902
0.56267
0.564233
0.559358
0.541086
0.517988
0.502278
0.553158
0.558051
0.478649
0.455921
0.462375
0.472428
0.483484
0.492755
0.497313
0.498117
0.496967
0.495781
0.495211
)
;

boundaryField
{
    inlet
    {
        type            fixedValue;
        value           uniform 1;
    }
    outlet
    {
        type            zeroGradient;
    }
    obstacle
    {
        type            zeroGradient;
    }
    empty
    {
        type            empty;
    }
}


// ************************************************************************* //
