/*--------------------------------*- C++ -*----------------------------------*\
| =========                 |                                                 |
| \\      /  F ield         | OpenFOAM: The Open Source CFD Toolbox           |
|  \\    /   O peration     | Version:  v1912                                 |
|   \\  /    A nd           | Website:  www.openfoam.com                      |
|    \\/     M anipulation  |                                                 |
\*---------------------------------------------------------------------------*/
FoamFile
{
    version     2.0;
    format      ascii;
    class       volScalarField;
    location    "6.76";
    object      T;
}
// * * * * * * * * * * * * * * * * * * * * * * * * * * * * * * * * * * * * * //

dimensions      [0 0 0 1 0 0 0];


internalField   nonuniform List<scalar> 
1900
(
1.22511
0.935973
0.917282
0.923196
0.93452
0.947429
0.956151
0.959627
0.960007
0.959414
1.22511
0.935971
0.917283
0.923197
0.934528
0.947427
0.956133
0.95961
0.960284
0.959409
1.22511
0.935971
0.917284
0.9232
0.934536
0.947432
0.956115
0.959516
0.960009
0.959174
1.22511
0.935971
0.917283
0.923197
0.934528
0.947427
0.956133
0.95961
0.960284
0.959409
1.22511
0.935973
0.917282
0.923196
0.93452
0.947429
0.956151
0.959627
0.960007
0.959414
0.962612
0.958237
0.961207
0.969699
1.00937
0.958307
0.955251
0.957547
0.964582
0.991438
0.95755
0.954624
0.956536
0.964156
0.989546
0.958307
0.955251
0.957547
0.964582
0.991438
0.962612
0.958237
0.961207
0.969699
1.00937
0.800115
0.684898
0.622915
0.575461
0.535792
0.820055
0.701443
0.635498
0.58905
0.544147
0.819978
0.695754
0.629162
0.584232
0.536103
0.820055
0.701443
0.635498
0.58905
0.544147
0.800115
0.684898
0.622915
0.575461
0.535792
0.510377
0.488664
0.462459
0.451569
0.46009
0.555839
0.625771
0.61561
0.591306
0.569848
0.550055
0.534113
0.51516
0.488077
0.454746
0.429586
0.417928
0.411342
0.405833
0.400725
0.39632
0.393256
0.391527
0.390642
0.390159
0.389889
0.389738
0.389795
0.390043
0.390497
0.391101
0.392233
0.393682
0.395886
0.398448
0.405888
0.430768
0.472785
0.515014
0.523488
0.515978
0.499155
0.472348
0.453992
0.462312
0.564062
0.628957
0.615706
0.591033
0.570445
0.552004
0.535672
0.516103
0.488661
0.455048
0.429695
0.417948
0.411357
0.405859
0.400742
0.396325
0.393252
0.39152
0.390636
0.390154
0.389885
0.389733
0.389791
0.390039
0.390494
0.391098
0.392231
0.39368
0.39589
0.398446
0.40588
0.430744
0.47283
0.515062
0.523501
0.514296
0.50242
0.47677
0.455609
0.462184
0.563816
0.631424
0.616622
0.591771
0.571357
0.551681
0.535123
0.51587
0.488763
0.455232
0.429759
0.417957
0.411363
0.405871
0.400749
0.396328
0.39325
0.391518
0.390634
0.390153
0.389884
0.389732
0.38979
0.390037
0.390492
0.391096
0.39223
0.393679
0.395891
0.398444
0.405877
0.430732
0.472843
0.515078
0.523537
0.515978
0.499155
0.472348
0.453992
0.462312
0.564062
0.628957
0.615706
0.591033
0.570445
0.552004
0.535672
0.516103
0.488661
0.455048
0.429695
0.417948
0.411357
0.405859
0.400742
0.396325
0.393252
0.39152
0.390636
0.390154
0.389885
0.389733
0.389791
0.390039
0.390494
0.391098
0.392231
0.39368
0.39589
0.398446
0.40588
0.430744
0.47283
0.515062
0.523501
0.510377
0.488664
0.462459
0.451569
0.46009
0.555839
0.625771
0.61561
0.591306
0.569848
0.550055
0.534113
0.51516
0.488077
0.454746
0.429586
0.417928
0.411342
0.405833
0.400725
0.39632
0.393256
0.391527
0.390642
0.390159
0.389889
0.389738
0.389795
0.390043
0.390497
0.391101
0.392233
0.393682
0.395886
0.398448
0.405888
0.430768
0.472785
0.515014
0.523488
0.485434
0.48309
0.471816
0.455859
0.46975
0.547647
0.605523
0.597459
0.579506
0.562807
0.546627
0.532123
0.513373
0.486276
0.45327
0.428971
0.417784
0.411271
0.405719
0.400622
0.396292
0.393273
0.391554
0.390668
0.390181
0.389908
0.389755
0.389811
0.390057
0.39051
0.391114
0.392235
0.393683
0.395863
0.398447
0.405915
0.430825
0.472606
0.514804
0.523448
0.457383
0.458208
0.462169
0.473929
0.496987
0.550243
0.580937
0.575696
0.56236
0.548571
0.536961
0.524918
0.507353
0.480881
0.449288
0.427466
0.417426
0.411069
0.405451
0.400398
0.396215
0.393309
0.391628
0.39074
0.390242
0.389961
0.389805
0.38986
0.390102
0.390551
0.391155
0.392257
0.393688
0.395825
0.398446
0.405985
0.430977
0.472445
0.514531
0.523314
0.459301
0.462529
0.474772
0.493575
0.525891
0.55843
0.562507
0.554001
0.542274
0.534327
0.527551
0.516886
0.499244
0.4727
0.443606
0.425555
0.416926
0.410723
0.405088
0.400128
0.39613
0.393374
0.391757
0.390874
0.390364
0.390071
0.389909
0.38996
0.390195
0.39064
0.391243
0.392319
0.393722
0.395799
0.398465
0.406097
0.431218
0.472328
0.514245
0.523189
0.473279
0.480231
0.496761
0.52119
0.544661
0.548714
0.540779
0.530932
0.528206
0.523625
0.517897
0.507095
0.488894
0.462623
0.437542
0.423715
0.416327
0.410266
0.404671
0.399858
0.396079
0.393497
0.391958
0.391086
0.390563
0.390256
0.390087
0.390128
0.390354
0.390791
0.391392
0.392439
0.393803
0.395809
0.398519
0.406257
0.431536
0.472252
0.513975
0.523121
0.487013
0.497727
0.510697
0.524238
0.534515
0.52934
0.521502
0.516658
0.51528
0.513069
0.507266
0.495711
0.476619
0.451771
0.432165
0.422074
0.415588
0.409679
0.404211
0.399614
0.396087
0.393699
0.392248
0.391391
0.390856
0.390532
0.39035
0.390377
0.390589
0.391013
0.391608
0.392622
0.393937
0.395869
0.398617
0.406462
0.43186
0.472156
0.513608
0.522964
0.504157
0.514806
0.517476
0.522312
0.518955
0.509413
0.503641
0.504197
0.504088
0.501977
0.495576
0.482965
0.463248
0.441858
0.428149
0.420723
0.414829
0.409072
0.403802
0.399469
0.396211
0.394021
0.39266
0.39182
0.391272
0.390931
0.390732
0.390738
0.390936
0.391345
0.391929
0.392912
0.394179
0.396035
0.398839
0.40678
0.432364
0.472261
0.513365
0.522842
0.526049
0.525221
0.515948
0.507245
0.495625
0.491481
0.491849
0.493404
0.49324
0.490615
0.483062
0.469191
0.450315
0.434317
0.425267
0.419398
0.413904
0.40837
0.403406
0.399396
0.396429
0.394436
0.393165
0.392345
0.391786
0.391425
0.391202
0.391185
0.391366
0.391755
0.392323
0.393272
0.394493
0.396285
0.399118
0.407126
0.432731
0.472298
0.513056
0.522656
0.531114
0.518834
0.501741
0.488976
0.481485
0.4798
0.481441
0.483067
0.482634
0.47888
0.469741
0.455245
0.439659
0.429271
0.423177
0.418244
0.413043
0.407772
0.403149
0.399491
0.396822
0.395017
0.393828
0.393025
0.392453
0.392068
0.391822
0.391785
0.391942
0.392307
0.392855
0.393771
0.394952
0.396694
0.399588
0.407649
0.4333
0.472539
0.51292
0.52265
0.533596
0.51369
0.491798
0.477708
0.470426
0.469594
0.471927
0.473106
0.472017
0.466746
0.456317
0.443154
0.432444
0.425971
0.421467
0.417037
0.412089
0.407177
0.402961
0.399654
0.397274
0.39565
0.394543
0.393762
0.393182
0.392781
0.392521
0.392467
0.3926
0.392942
0.393473
0.394364
0.395517
0.397238
0.400189
0.408271
0.433834
0.47279
0.512832
0.52266
0.536481
0.51192
0.485719
0.468332
0.460326
0.461062
0.463397
0.463557
0.461198
0.454451
0.444199
0.434482
0.427958
0.42376
0.420176
0.416043
0.411324
0.406779
0.402994
0.400055
0.39795
0.396486
0.395449
0.394684
0.394096
0.393679
0.393405
0.393331
0.393437
0.393756
0.39427
0.395138
0.396271
0.397991
0.400996
0.409114
0.434615
0.473143
0.51283
0.522861
0.536217
0.510526
0.481064
0.460911
0.45237
0.454062
0.45543
0.454371
0.450419
0.443246
0.435154
0.429253
0.425251
0.422199
0.419022
0.415073
0.410652
0.406524
0.40315
0.400573
0.398727
0.397416
0.39645
0.395712
0.395129
0.394709
0.394426
0.394337
0.394418
0.39472
0.395221
0.396077
0.397202
0.398936
0.401991
0.410123
0.43546
0.473479
0.512822
0.523134
0.533963
0.509607
0.478146
0.456148
0.446957
0.447805
0.447753
0.445544
0.440686
0.434824
0.429756
0.426306
0.423761
0.421452
0.418414
0.41454
0.410476
0.406866
0.403931
0.401709
0.40009
0.398892
0.397962
0.397216
0.396609
0.396159
0.395845
0.39572
0.395767
0.396042
0.396528
0.39737
0.398493
0.400245
0.40337
0.411557
0.43671
0.473982
0.512908
0.523738
0.532672
0.509767
0.477119
0.45326
0.44314
0.44188
0.44063
0.437876
0.433581
0.429998
0.427164
0.425063
0.423203
0.421049
0.418044
0.414416
0.410803
0.407647
0.405134
0.403213
0.401779
0.400677
0.399783
0.399036
0.398405
0.397921
0.397573
0.397407
0.397414
0.397676
0.398151
0.398992
0.400128
0.401915
0.405112
0.41333
0.438038
0.474401
0.512859
0.524509
0.533323
0.511132
0.47738
0.451308
0.439692
0.436321
0.434368
0.43221
0.429721
0.427873
0.426136
0.424817
0.423429
0.421415
0.418533
0.415183
0.41197
0.409273
0.407158
0.405519
0.404246
0.4032
0.402297
0.401513
0.400834
0.400302
0.399912
0.399715
0.399709
0.399983
0.400483
0.401355
0.402534
0.404389
0.40771
0.416033
0.440252
0.475412
0.513151
0.52578
0.534238
0.512085
0.477556
0.449996
0.436593
0.43266
0.431408
0.430543
0.429382
0.428324
0.427157
0.426157
0.424812
0.422668
0.419714
0.416532
0.413645
0.411288
0.409447
0.408011
0.406906
0.406021
0.405271
0.404627
0.404081
0.403696
0.403435
0.403373
0.403463
0.403847
0.404426
0.405403
0.406679
0.408682
0.412201
0.420641
0.443959
0.477123
0.513262
0.526704
0.536036
0.514454
0.479562
0.450843
0.436481
0.433394
0.43312
0.432822
0.432094
0.431538
0.430836
0.430007
0.428593
0.426489
0.423905
0.421331
0.419099
0.417319
0.415941
0.41488
0.41409
0.41349
0.413012
0.412628
0.412322
0.412151
0.412064
0.412164
0.412398
0.412931
0.413634
0.41477
0.416158
0.418324
0.421971
0.430176
0.45137
0.481154
0.5143
0.527592
0.535201
0.51534
0.484614
0.458474
0.444647
0.442053
0.44244
0.442711
0.442575
0.442709
0.442663
0.442506
0.441817
0.440612
0.439173
0.437818
0.436776
0.43608
0.435656
0.435455
0.435546
0.435864
0.436252
0.436624
0.436959
0.437395
0.437661
0.438122
0.438558
0.439311
0.440089
0.441229
0.44231
0.444111
0.446921
0.453164
0.468502
0.490343
0.515678
0.526331
0.522756
0.514716
0.494337
0.475152
0.464917
0.463959
0.465306
0.46693
0.468309
0.469895
0.471138
0.471986
0.472198
0.47202
0.471726
0.471617
0.471752
0.4721
0.472535
0.472971
0.473457
0.473903
0.474208
0.474393
0.474486
0.474672
0.474716
0.474941
0.475126
0.475482
0.475782
0.476244
0.476553
0.477337
0.478508
0.481976
0.490208
0.504886
0.51883
0.51378
0.403917
0.479135
0.510641
0.503816
0.49849
0.499108
0.500794
0.503021
0.505121
0.507302
0.508975
0.510182
0.510745
0.511038
0.51126
0.51165
0.512165
0.51272
0.513273
0.513719
0.514014
0.514103
0.514019
0.513854
0.513613
0.513461
0.513223
0.513122
0.513011
0.513003
0.512944
0.51296
0.512807
0.512968
0.51286
0.513822
0.515137
0.518782
0.484571
0.401777
0.320249
0.38926
0.509104
0.52034
0.520232
0.520462
0.521616
0.522366
0.523282
0.523714
0.523804
0.523688
0.523358
0.523055
0.522847
0.522758
0.522767
0.522969
0.523317
0.523612
0.523714
0.523589
0.52335
0.52314
0.522954
0.522867
0.522786
0.522845
0.522907
0.523158
0.523452
0.523993
0.524581
0.525503
0.526118
0.526878
0.525682
0.514832
0.408511
0.319974
0.320249
0.38926
0.509104
0.52034
0.520232
0.520462
0.521616
0.522366
0.523282
0.523714
0.523804
0.523688
0.523358
0.523055
0.522847
0.522758
0.522767
0.522969
0.523317
0.523612
0.523714
0.523589
0.52335
0.52314
0.522954
0.522867
0.522786
0.522845
0.522907
0.523158
0.523452
0.523993
0.524581
0.525503
0.526118
0.526878
0.525682
0.514832
0.408511
0.319974
0.403917
0.479135
0.510641
0.503816
0.49849
0.499108
0.500794
0.503021
0.505121
0.507302
0.508975
0.510182
0.510745
0.511038
0.51126
0.51165
0.512165
0.51272
0.513273
0.513719
0.514014
0.514103
0.514019
0.513854
0.513613
0.513461
0.513223
0.513122
0.513011
0.513003
0.512944
0.51296
0.512807
0.512968
0.51286
0.513822
0.515137
0.518782
0.484571
0.401777
0.522756
0.514716
0.494337
0.475152
0.464917
0.463959
0.465306
0.46693
0.468309
0.469895
0.471138
0.471986
0.472198
0.47202
0.471726
0.471617
0.471752
0.4721
0.472535
0.472971
0.473457
0.473903
0.474208
0.474393
0.474486
0.474672
0.474716
0.474941
0.475126
0.475482
0.475782
0.476244
0.476553
0.477337
0.478508
0.481976
0.490208
0.504886
0.51883
0.51378
0.535201
0.51534
0.484614
0.458474
0.444647
0.442053
0.44244
0.442711
0.442575
0.442709
0.442663
0.442506
0.441817
0.440612
0.439173
0.437818
0.436776
0.43608
0.435656
0.435455
0.435546
0.435864
0.436252
0.436624
0.436959
0.437395
0.437661
0.438122
0.438558
0.439311
0.440089
0.441229
0.44231
0.444111
0.446921
0.453164
0.468502
0.490343
0.515678
0.526331
0.536036
0.514454
0.479562
0.450843
0.436481
0.433394
0.43312
0.432822
0.432094
0.431538
0.430836
0.430007
0.428593
0.426489
0.423905
0.421331
0.419099
0.417319
0.415941
0.41488
0.41409
0.41349
0.413012
0.412628
0.412322
0.412151
0.412064
0.412164
0.412398
0.412931
0.413634
0.41477
0.416158
0.418324
0.421971
0.430176
0.45137
0.481154
0.5143
0.527592
0.534238
0.512085
0.477556
0.449996
0.436593
0.43266
0.431408
0.430543
0.429382
0.428324
0.427157
0.426157
0.424812
0.422668
0.419714
0.416532
0.413645
0.411288
0.409447
0.408011
0.406906
0.406021
0.405271
0.404627
0.404081
0.403696
0.403435
0.403373
0.403463
0.403847
0.404426
0.405403
0.406679
0.408682
0.412201
0.420641
0.443959
0.477123
0.513262
0.526704
0.533323
0.511132
0.47738
0.451308
0.439692
0.436321
0.434368
0.43221
0.429721
0.427873
0.426136
0.424817
0.423429
0.421415
0.418533
0.415183
0.41197
0.409273
0.407158
0.405519
0.404246
0.4032
0.402297
0.401513
0.400834
0.400302
0.399912
0.399715
0.399709
0.399983
0.400483
0.401355
0.402534
0.404389
0.40771
0.416033
0.440252
0.475412
0.513151
0.52578
0.532672
0.509767
0.477119
0.45326
0.44314
0.44188
0.44063
0.437876
0.433581
0.429998
0.427164
0.425063
0.423203
0.421049
0.418044
0.414416
0.410803
0.407647
0.405134
0.403213
0.401779
0.400677
0.399783
0.399036
0.398405
0.397921
0.397573
0.397407
0.397414
0.397676
0.398151
0.398992
0.400128
0.401915
0.405112
0.41333
0.438038
0.474401
0.512859
0.524509
0.533963
0.509607
0.478146
0.456148
0.446957
0.447805
0.447753
0.445544
0.440686
0.434824
0.429756
0.426306
0.423761
0.421452
0.418414
0.41454
0.410476
0.406866
0.403931
0.401709
0.40009
0.398892
0.397962
0.397216
0.396609
0.396159
0.395845
0.39572
0.395767
0.396042
0.396528
0.39737
0.398493
0.400245
0.40337
0.411557
0.43671
0.473982
0.512908
0.523738
0.536217
0.510526
0.481064
0.460911
0.45237
0.454062
0.45543
0.454371
0.450419
0.443246
0.435154
0.429253
0.425251
0.422199
0.419022
0.415073
0.410652
0.406524
0.40315
0.400573
0.398727
0.397416
0.39645
0.395712
0.395129
0.394709
0.394426
0.394337
0.394418
0.39472
0.395221
0.396077
0.397202
0.398936
0.401991
0.410123
0.43546
0.473479
0.512822
0.523134
0.536481
0.51192
0.485719
0.468332
0.460326
0.461062
0.463397
0.463557
0.461198
0.454451
0.444199
0.434482
0.427958
0.42376
0.420176
0.416043
0.411324
0.406779
0.402994
0.400055
0.39795
0.396486
0.395449
0.394684
0.394096
0.393679
0.393405
0.393331
0.393437
0.393756
0.39427
0.395138
0.396271
0.397991
0.400996
0.409114
0.434615
0.473143
0.51283
0.522861
0.533596
0.51369
0.491798
0.477708
0.470426
0.469594
0.471927
0.473106
0.472017
0.466746
0.456317
0.443154
0.432444
0.425971
0.421467
0.417037
0.412089
0.407177
0.402961
0.399654
0.397274
0.39565
0.394543
0.393762
0.393182
0.392781
0.392521
0.392467
0.3926
0.392942
0.393473
0.394364
0.395517
0.397238
0.400189
0.408271
0.433834
0.47279
0.512832
0.52266
0.531114
0.518834
0.501741
0.488976
0.481485
0.4798
0.481441
0.483067
0.482634
0.47888
0.469741
0.455245
0.439659
0.429271
0.423177
0.418244
0.413043
0.407772
0.403149
0.399491
0.396822
0.395017
0.393828
0.393025
0.392453
0.392068
0.391822
0.391785
0.391942
0.392307
0.392855
0.393771
0.394952
0.396694
0.399588
0.407649
0.4333
0.472539
0.51292
0.52265
0.526049
0.525221
0.515948
0.507245
0.495625
0.491481
0.491849
0.493404
0.49324
0.490615
0.483062
0.469191
0.450315
0.434317
0.425267
0.419398
0.413904
0.40837
0.403406
0.399396
0.396429
0.394436
0.393165
0.392345
0.391786
0.391425
0.391202
0.391185
0.391366
0.391755
0.392323
0.393272
0.394493
0.396285
0.399118
0.407126
0.432731
0.472298
0.513056
0.522656
0.504157
0.514806
0.517476
0.522312
0.518955
0.509413
0.503641
0.504197
0.504088
0.501977
0.495576
0.482965
0.463248
0.441858
0.428149
0.420723
0.414829
0.409072
0.403802
0.399469
0.396211
0.394021
0.39266
0.39182
0.391272
0.390931
0.390732
0.390738
0.390936
0.391345
0.391929
0.392912
0.394179
0.396035
0.398839
0.40678
0.432364
0.472261
0.513365
0.522842
0.487013
0.497727
0.510697
0.524238
0.534515
0.52934
0.521502
0.516658
0.51528
0.513069
0.507266
0.495711
0.476619
0.451771
0.432165
0.422074
0.415588
0.409679
0.404211
0.399614
0.396087
0.393699
0.392248
0.391391
0.390856
0.390532
0.39035
0.390377
0.390589
0.391013
0.391608
0.392622
0.393937
0.395869
0.398617
0.406462
0.43186
0.472156
0.513608
0.522964
0.473279
0.480231
0.496761
0.52119
0.544661
0.548714
0.540779
0.530932
0.528206
0.523625
0.517897
0.507095
0.488894
0.462623
0.437542
0.423715
0.416327
0.410266
0.404671
0.399858
0.396079
0.393497
0.391958
0.391086
0.390563
0.390256
0.390087
0.390128
0.390354
0.390791
0.391392
0.392439
0.393803
0.395809
0.398519
0.406257
0.431536
0.472252
0.513975
0.523121
0.459301
0.462529
0.474772
0.493575
0.525891
0.55843
0.562507
0.554001
0.542274
0.534327
0.527551
0.516886
0.499244
0.4727
0.443606
0.425555
0.416926
0.410723
0.405088
0.400128
0.39613
0.393374
0.391757
0.390874
0.390364
0.390071
0.389909
0.38996
0.390195
0.39064
0.391243
0.392319
0.393722
0.395799
0.398465
0.406097
0.431218
0.472328
0.514245
0.523189
0.457383
0.458208
0.462169
0.473929
0.496987
0.550243
0.580937
0.575696
0.56236
0.548571
0.536961
0.524918
0.507353
0.480881
0.449288
0.427466
0.417426
0.411069
0.405451
0.400398
0.396215
0.393309
0.391628
0.39074
0.390242
0.389961
0.389805
0.38986
0.390102
0.390551
0.391155
0.392257
0.393688
0.395825
0.398446
0.405985
0.430977
0.472445
0.514531
0.523314
0.485434
0.48309
0.471816
0.455859
0.46975
0.547647
0.605523
0.597459
0.579506
0.562807
0.546627
0.532123
0.513373
0.486276
0.45327
0.428971
0.417784
0.411271
0.405719
0.400622
0.396292
0.393273
0.391554
0.390668
0.390181
0.389908
0.389755
0.389811
0.390057
0.39051
0.391114
0.392235
0.393683
0.395863
0.398447
0.405915
0.430825
0.472606
0.514804
0.523448
)
;

boundaryField
{
    inlet
    {
        type            fixedValue;
        value           uniform 1;
    }
    outlet
    {
        type            zeroGradient;
    }
    obstacle
    {
        type            zeroGradient;
    }
    empty
    {
        type            empty;
    }
}


// ************************************************************************* //
