/*--------------------------------*- C++ -*----------------------------------*\
| =========                 |                                                 |
| \\      /  F ield         | OpenFOAM: The Open Source CFD Toolbox           |
|  \\    /   O peration     | Version:  v1912                                 |
|   \\  /    A nd           | Website:  www.openfoam.com                      |
|    \\/     M anipulation  |                                                 |
\*---------------------------------------------------------------------------*/
FoamFile
{
    version     2.0;
    format      ascii;
    class       volScalarField;
    location    "1.46";
    object      Ma;
}
// * * * * * * * * * * * * * * * * * * * * * * * * * * * * * * * * * * * * * //

dimensions      [0 0 0 0 0 0 0];


internalField   nonuniform List<scalar> 
1900
(
3.07617e-05
0.000912401
0.00667638
0.0199228
0.034405
0.0439697
0.0490761
0.0501079
0.0501427
0.0452524
3.06863e-05
0.000911451
0.00667488
0.0199191
0.034353
0.0437913
0.0485875
0.0493622
0.0507199
0.0510256
3.06378e-05
0.000911084
0.0066748
0.0199086
0.0342944
0.0436593
0.0483784
0.0492044
0.0510238
0.0542811
3.06863e-05
0.000911451
0.00667488
0.0199191
0.034353
0.0437913
0.0485875
0.0493622
0.0507199
0.0510256
3.07617e-05
0.000912401
0.00667638
0.0199228
0.034405
0.0439697
0.0490761
0.0501079
0.0501427
0.0452524
0.0502122
0.0657409
0.083495
0.111154
0.184889
0.0597621
0.0745225
0.0963143
0.137456
0.213312
0.0627296
0.0761024
0.0991395
0.143486
0.218168
0.0597621
0.0745225
0.0963143
0.137456
0.213312
0.0502122
0.0657409
0.083495
0.111154
0.184889
0.215317
0.184098
0.169878
0.170688
0.258408
0.22388
0.191919
0.165904
0.137187
0.1364
0.229157
0.194899
0.162303
0.112444
0.0136841
0.22388
0.191919
0.165904
0.137187
0.1364
0.215317
0.184098
0.169878
0.170688
0.258408
0.47797
0.185052
0.246394
0.291286
0.319937
0.314992
0.278765
0.232194
0.17927
0.125778
0.0760866
0.0355418
0.0103945
0.00136197
5.26298e-05
3.95795e-07
4.03964e-10
4.07478e-14
2.9258e-16
1.13916e-16
7.99431e-17
9.40351e-17
5.92485e-14
5.39755e-10
5.00834e-07
6.34425e-05
0.00157732
0.0116941
0.0393152
0.0836416
0.138638
0.199965
0.265347
0.333253
0.40189
0.468705
0.529759
0.581177
0.717349
1.52684
0.114503
0.201009
0.123335
0.253904
0.313768
0.315123
0.279226
0.232282
0.179092
0.125601
0.0759669
0.035477
0.0103693
0.001357
5.23361e-05
3.92586e-07
3.99467e-10
3.83704e-14
5.28152e-16
1.99934e-16
1.52019e-16
3.44699e-16
5.99989e-14
5.39773e-10
5.00834e-07
6.34425e-05
0.00157732
0.0116941
0.0393152
0.0836416
0.138638
0.199965
0.265347
0.333253
0.40189
0.468705
0.529759
0.581177
0.717349
1.52684
0.204833
0.258848
0.004907
0.236658
0.311674
0.315428
0.279468
0.23232
0.179036
0.125547
0.0759299
0.0354543
0.0103595
0.00135502
5.22226e-05
3.91389e-07
3.97853e-10
3.70262e-14
4.18571e-16
3.00617e-16
2.77672e-16
5.99751e-16
5.88424e-14
5.3979e-10
5.00834e-07
6.34425e-05
0.00157732
0.0116941
0.0393152
0.0836416
0.138638
0.199965
0.265347
0.333253
0.40189
0.468705
0.529759
0.581177
0.717349
1.52684
0.114503
0.201009
0.123335
0.253904
0.313768
0.315123
0.279226
0.232282
0.179092
0.125601
0.0759669
0.035477
0.0103693
0.001357
5.23361e-05
3.92586e-07
3.99458e-10
3.74207e-14
1.32708e-16
1.24154e-16
1.27104e-16
1.9919e-16
5.93264e-14
5.39801e-10
5.00834e-07
6.34425e-05
0.00157732
0.0116941
0.0393152
0.0836416
0.138638
0.199965
0.265347
0.333253
0.40189
0.468705
0.529759
0.581177
0.717349
1.52684
0.47797
0.185052
0.246394
0.291286
0.319937
0.314992
0.278765
0.232194
0.17927
0.125778
0.0760866
0.0355418
0.0103945
0.00136197
5.26298e-05
3.95795e-07
4.03954e-10
3.76755e-14
9.40911e-17
6.30566e-17
1.71769e-17
9.96119e-17
5.61693e-14
5.39802e-10
5.00834e-07
6.34425e-05
0.00157732
0.0116941
0.0393152
0.0836416
0.138638
0.199965
0.265347
0.333253
0.40189
0.468705
0.529759
0.581177
0.717349
1.52684
1.27368
0.498902
0.398179
0.347727
0.339355
0.317691
0.279832
0.232882
0.179907
0.12628
0.0764688
0.0357999
0.0105119
0.00138579
5.39914e-05
4.10107e-07
4.23156e-10
4.00713e-14
9.05537e-17
1.60068e-17
2.71268e-17
1.01262e-16
5.77697e-14
5.39772e-10
5.00834e-07
6.34425e-05
0.00157732
0.0116941
0.0393152
0.0836416
0.138638
0.199965
0.265347
0.333253
0.40189
0.468705
0.529759
0.581177
0.717349
1.52684
1.54385
0.677779
0.508025
0.410086
0.370258
0.330953
0.287381
0.236456
0.181975
0.127687
0.0774556
0.0363946
0.0107553
0.00143222
5.65665e-05
4.36608e-07
4.57477e-10
4.38915e-14
2.45309e-16
4.52534e-16
2.88622e-16
1.44521e-16
5.42388e-14
5.39761e-10
5.00834e-07
6.34425e-05
0.00157732
0.0116941
0.0393152
0.0836416
0.138638
0.199965
0.265347
0.333253
0.40189
0.468705
0.529759
0.581177
0.717349
1.52684
1.55853
0.709248
0.539919
0.445839
0.395554
0.347947
0.297243
0.241904
0.185179
0.129727
0.078759
0.0371213
0.0110341
0.0014826
5.92549e-05
4.62758e-07
4.94568e-10
3.61906e-12
3.59124e-12
3.59135e-12
3.59127e-12
3.59118e-12
3.61784e-12
5.39759e-10
5.00835e-07
6.34425e-05
0.00157732
0.0116941
0.0393152
0.0836416
0.138638
0.199965
0.265347
0.333253
0.40189
0.468705
0.529759
0.581177
0.717349
1.52684
1.54691
0.716243
0.552782
0.47187
0.417387
0.36388
0.307047
0.247951
0.188953
0.132113
0.0802026
0.0378632
0.0112953
0.00152571
6.14252e-05
4.86893e-07
1.21251e-08
1.21074e-08
1.21073e-08
1.21074e-08
1.21074e-08
1.21074e-08
1.21074e-08
1.21194e-08
5.00981e-07
6.34425e-05
0.00157732
0.0116941
0.0393152
0.0836416
0.138638
0.199965
0.265347
0.333253
0.40189
0.468705
0.529759
0.581177
0.717349
1.52684
1.53244
0.715516
0.558384
0.490139
0.43446
0.376553
0.315592
0.253651
0.192686
0.134471
0.0815483
0.0384732
0.0114883
0.0015571
6.31456e-05
4.67108e-06
4.64088e-06
4.64088e-06
4.64088e-06
4.64088e-06
4.64088e-06
4.64088e-06
4.64088e-06
4.64088e-06
4.66783e-06
6.3612e-05
0.00157733
0.0116941
0.0393151
0.0836416
0.138638
0.199965
0.265346
0.333253
0.40189
0.468705
0.529759
0.581177
0.717349
1.52684
1.5279
0.713221
0.561913
0.504094
0.447633
0.386318
0.322419
0.258213
0.195533
0.136187
0.0825089
0.0389504
0.0116325
0.00160027
0.000288799
0.00028156
0.000281559
0.000281559
0.000281559
0.000281559
0.000281559
0.000281559
0.000281559
0.000281559
0.000281559
0.000288612
0.00160213
0.0116969
0.039315
0.0836403
0.138636
0.199963
0.265345
0.333252
0.40189
0.468705
0.529759
0.581178
0.717344
1.52684
1.52433
0.710544
0.567188
0.514369
0.456434
0.393007
0.327457
0.261803
0.197982
0.137627
0.0832672
0.0393711
0.0123308
0.00428606
0.00398784
0.00398746
0.00398746
0.00398746
0.00398746
0.00398746
0.00398746
0.00398746
0.00398746
0.00398746
0.00398746
0.00398791
0.00428625
0.0123441
0.0394953
0.0837072
0.138662
0.199973
0.26535
0.33326
0.401905
0.468727
0.529776
0.581228
0.71721
1.5269
1.52391
0.709238
0.575849
0.523543
0.464062
0.398682
0.33127
0.264406
0.199914
0.139457
0.0856756
0.0440216
0.0232978
0.0202705
0.020215
0.0202151
0.0202151
0.0202151
0.0202151
0.0202151
0.0202151
0.0202151
0.0202151
0.0202151
0.0202151
0.020215
0.0202714
0.0232983
0.0440549
0.085838
0.139868
0.20075
0.265909
0.333708
0.402309
0.469109
0.530122
0.581744
0.716435
1.52774
1.52804
0.711695
0.582066
0.530141
0.470071
0.404115
0.336393
0.269727
0.206228
0.14806
0.0990575
0.0666415
0.0554186
0.0542823
0.0542688
0.0542692
0.0542692
0.0542692
0.0542692
0.0542692
0.0542692
0.0542692
0.0542692
0.0542692
0.0542692
0.0542689
0.0542831
0.0554219
0.0666396
0.099046
0.148085
0.206376
0.270074
0.337003
0.405075
0.471566
0.532357
0.584222
0.715636
1.53169
1.53892
0.718129
0.591655
0.539528
0.479366
0.413877
0.347409
0.282883
0.222958
0.170709
0.130894
0.108882
0.102637
0.102087
0.102087
0.102087
0.102087
0.102087
0.102087
0.102087
0.102087
0.102087
0.102087
0.102087
0.102087
0.102087
0.102088
0.102641
0.108891
0.130894
0.170691
0.222904
0.28276
0.347218
0.413637
0.479167
0.539279
0.590986
0.718711
1.54028
1.55254
0.730141
0.604186
0.553473
0.494461
0.430677
0.367122
0.306794
0.252746
0.208374
0.177596
0.162399
0.158455
0.15814
0.158144
0.158144
0.158144
0.158144
0.158144
0.158144
0.158144
0.158144
0.158144
0.158144
0.158144
0.158144
0.15814
0.158456
0.162405
0.177609
0.208387
0.252737
0.30675
0.367045
0.430545
0.494278
0.553154
0.603733
0.729803
1.55246
1.56438
0.749989
0.623799
0.575274
0.51817
0.456555
0.397101
0.341822
0.294311
0.257321
0.233312
0.22218
0.219427
0.219223
0.219228
0.219229
0.219229
0.219229
0.219229
0.219229
0.219229
0.219229
0.219229
0.219229
0.219229
0.219228
0.219223
0.219427
0.222183
0.233321
0.257336
0.294327
0.34184
0.397108
0.456524
0.518078
0.575114
0.623639
0.749839
1.56424
1.58007
0.77782
0.650702
0.605191
0.549653
0.491714
0.43606
0.386335
0.344754
0.313766
0.294476
0.285851
0.283772
0.283621
0.283625
0.283626
0.283626
0.283626
0.283626
0.283626
0.283626
0.283626
0.283626
0.283626
0.283626
0.283625
0.283621
0.283772
0.285851
0.294479
0.313774
0.344771
0.386363
0.436092
0.491737
0.54965
0.605177
0.650713
0.777821
1.58
1.58614
0.81188
0.689093
0.641858
0.590523
0.533483
0.483628
0.437738
0.401409
0.374869
0.358847
0.351823
0.350141
0.350009
0.350011
0.350011
0.350011
0.350011
0.350011
0.350011
0.350011
0.350011
0.350011
0.350011
0.350011
0.350011
0.350009
0.35014
0.351822
0.358847
0.37487
0.401415
0.43775
0.483643
0.533503
0.590542
0.641886
0.689149
0.811921
1.58615
1.6063
0.850202
0.730545
0.68363
0.632244
0.583015
0.534197
0.493842
0.461076
0.438039
0.424283
0.418318
0.416863
0.416728
0.416727
0.416727
0.416727
0.416727
0.416727
0.416727
0.416727
0.416727
0.416727
0.416727
0.416727
0.416727
0.416728
0.416863
0.418318
0.424283
0.438038
0.461076
0.493843
0.5342
0.583021
0.632257
0.683648
0.730573
0.850225
1.6063
1.60455
0.892408
0.784212
0.727644
0.68342
0.631887
0.590457
0.551269
0.521656
0.500508
0.488113
0.482752
0.481422
0.481281
0.481277
0.481277
0.481277
0.481277
0.481277
0.481277
0.481277
0.481277
0.481277
0.481277
0.481277
0.481277
0.481281
0.481422
0.482752
0.488112
0.500507
0.521654
0.551267
0.590455
0.631887
0.683422
0.727649
0.784216
0.892412
1.60455
1.6156
0.932623
0.825789
0.772448
0.727803
0.682473
0.64108
0.605467
0.577296
0.557608
0.546108
0.541138
0.53989
0.539757
0.539754
0.539754
0.539754
0.539754
0.539754
0.539754
0.539754
0.539754
0.539754
0.539754
0.539754
0.539754
0.539757
0.53989
0.541138
0.546108
0.557607
0.577295
0.605466
0.641079
0.682472
0.727801
0.772448
0.825787
0.932621
1.61559
1.59749
0.96928
0.88051
0.822717
0.780955
0.727096
0.685659
0.648278
0.622877
0.605074
0.594351
0.589318
0.587813
0.587575
0.58756
0.58756
0.58756
0.58756
0.58756
0.58756
0.58756
0.58756
0.58756
0.58756
0.58756
0.58756
0.587575
0.587813
0.589318
0.594351
0.605074
0.622877
0.648278
0.685658
0.727095
0.780954
0.822716
0.880509
0.969279
1.59749
1.66621
1.06543
0.96999
0.930982
0.890608
0.848023
0.809849
0.776522
0.75012
0.732478
0.72432
0.723249
0.72435
0.724818
0.724863
0.724863
0.724863
0.724863
0.724863
0.724863
0.724863
0.724863
0.724863
0.724863
0.724863
0.724863
0.724818
0.72435
0.723249
0.72432
0.732478
0.75012
0.776522
0.809849
0.848022
0.890607
0.930981
0.969989
1.06543
1.66621
2.21928
1.67187
1.60372
1.62136
1.60935
1.61137
1.59159
1.58471
1.56945
1.55734
1.54596
1.53893
1.53642
1.53605
1.53604
1.53604
1.53604
1.53604
1.53604
1.53604
1.53604
1.53604
1.53604
1.53604
1.53604
1.53604
1.53605
1.53642
1.53893
1.54596
1.55734
1.56945
1.58471
1.59159
1.61137
1.60935
1.62136
1.60372
1.67187
2.21928
2.21928
1.67187
1.60372
1.62136
1.60935
1.61137
1.59159
1.58471
1.56945
1.55734
1.54596
1.53893
1.53642
1.53605
1.53604
1.53604
1.53604
1.53604
1.53604
1.53604
1.53604
1.53604
1.53604
1.53604
1.53604
1.53604
1.53605
1.53642
1.53893
1.54596
1.55734
1.56945
1.58471
1.59159
1.61137
1.60935
1.62136
1.60372
1.67187
2.21928
1.66621
1.06543
0.96999
0.930982
0.890608
0.848023
0.809849
0.776522
0.75012
0.732478
0.72432
0.723249
0.72435
0.724818
0.724863
0.724863
0.724863
0.724863
0.724863
0.724863
0.724863
0.724863
0.724863
0.724863
0.724863
0.724863
0.724818
0.72435
0.723249
0.72432
0.732478
0.75012
0.776522
0.809849
0.848022
0.890607
0.930981
0.969989
1.06543
1.66621
1.59749
0.96928
0.88051
0.822717
0.780955
0.727096
0.685659
0.648278
0.622877
0.605074
0.594351
0.589318
0.587813
0.587575
0.58756
0.58756
0.58756
0.58756
0.58756
0.58756
0.58756
0.58756
0.58756
0.58756
0.58756
0.58756
0.587575
0.587813
0.589318
0.594351
0.605074
0.622877
0.648278
0.685658
0.727095
0.780954
0.822716
0.880509
0.969279
1.59749
1.6156
0.932623
0.825789
0.772448
0.727803
0.682473
0.64108
0.605467
0.577296
0.557608
0.546108
0.541138
0.53989
0.539757
0.539754
0.539754
0.539754
0.539754
0.539754
0.539754
0.539754
0.539754
0.539754
0.539754
0.539754
0.539754
0.539757
0.53989
0.541138
0.546108
0.557607
0.577295
0.605466
0.641079
0.682472
0.727801
0.772448
0.825787
0.932621
1.61559
1.60455
0.892408
0.784212
0.727644
0.68342
0.631887
0.590457
0.551269
0.521656
0.500508
0.488113
0.482752
0.481422
0.481281
0.481277
0.481277
0.481277
0.481277
0.481277
0.481277
0.481277
0.481277
0.481277
0.481277
0.481277
0.481277
0.481281
0.481422
0.482752
0.488112
0.500507
0.521654
0.551267
0.590455
0.631887
0.683422
0.727649
0.784216
0.892412
1.60455
1.6063
0.850202
0.730545
0.68363
0.632244
0.583015
0.534197
0.493842
0.461076
0.438039
0.424283
0.418318
0.416863
0.416728
0.416727
0.416727
0.416727
0.416727
0.416727
0.416727
0.416727
0.416727
0.416727
0.416727
0.416727
0.416727
0.416728
0.416863
0.418318
0.424283
0.438038
0.461076
0.493843
0.5342
0.583021
0.632257
0.683648
0.730573
0.850225
1.6063
1.58614
0.81188
0.689093
0.641858
0.590523
0.533483
0.483628
0.437738
0.401409
0.374869
0.358847
0.351823
0.350141
0.350009
0.350011
0.350011
0.350011
0.350011
0.350011
0.350011
0.350011
0.350011
0.350011
0.350011
0.350011
0.350011
0.350009
0.35014
0.351822
0.358847
0.37487
0.401415
0.43775
0.483643
0.533503
0.590542
0.641886
0.689149
0.811921
1.58615
1.58007
0.77782
0.650702
0.605191
0.549653
0.491714
0.43606
0.386335
0.344754
0.313766
0.294476
0.285851
0.283772
0.283621
0.283625
0.283626
0.283626
0.283626
0.283626
0.283626
0.283626
0.283626
0.283626
0.283626
0.283626
0.283625
0.283621
0.283772
0.285851
0.294479
0.313774
0.344771
0.386363
0.436092
0.491737
0.54965
0.605177
0.650713
0.777821
1.58
1.56438
0.749989
0.623799
0.575274
0.51817
0.456555
0.397101
0.341822
0.294311
0.257321
0.233312
0.22218
0.219427
0.219223
0.219228
0.219229
0.219229
0.219229
0.219229
0.219229
0.219229
0.219229
0.219229
0.219229
0.219229
0.219228
0.219223
0.219427
0.222183
0.233321
0.257336
0.294327
0.34184
0.397108
0.456524
0.518078
0.575114
0.623639
0.749839
1.56424
1.55254
0.730141
0.604186
0.553473
0.494461
0.430677
0.367122
0.306794
0.252746
0.208374
0.177596
0.162399
0.158455
0.15814
0.158144
0.158144
0.158144
0.158144
0.158144
0.158144
0.158144
0.158144
0.158144
0.158144
0.158144
0.158144
0.15814
0.158456
0.162405
0.177609
0.208387
0.252737
0.30675
0.367045
0.430545
0.494278
0.553154
0.603733
0.729803
1.55246
1.53892
0.718129
0.591655
0.539528
0.479366
0.413877
0.347409
0.282883
0.222958
0.170709
0.130894
0.108882
0.102637
0.102087
0.102087
0.102087
0.102087
0.102087
0.102087
0.102087
0.102087
0.102087
0.102087
0.102087
0.102087
0.102087
0.102088
0.102641
0.108891
0.130894
0.170691
0.222904
0.28276
0.347218
0.413637
0.479167
0.539279
0.590986
0.718711
1.54028
1.52804
0.711695
0.582066
0.530141
0.470071
0.404115
0.336393
0.269727
0.206228
0.14806
0.0990575
0.0666415
0.0554186
0.0542823
0.0542688
0.0542692
0.0542692
0.0542692
0.0542692
0.0542692
0.0542692
0.0542692
0.0542692
0.0542692
0.0542692
0.0542689
0.0542831
0.0554219
0.0666396
0.099046
0.148085
0.206376
0.270074
0.337003
0.405075
0.471566
0.532357
0.584222
0.715636
1.53169
1.52391
0.709238
0.575849
0.523543
0.464062
0.398682
0.33127
0.264406
0.199914
0.139457
0.0856756
0.0440216
0.0232978
0.0202705
0.020215
0.0202151
0.0202151
0.0202151
0.0202151
0.0202151
0.0202151
0.0202151
0.0202151
0.0202151
0.0202151
0.020215
0.0202714
0.0232983
0.0440549
0.085838
0.139868
0.20075
0.265909
0.333708
0.402309
0.469109
0.530122
0.581744
0.716435
1.52774
1.52433
0.710544
0.567188
0.514369
0.456434
0.393007
0.327457
0.261803
0.197982
0.137627
0.0832672
0.0393711
0.0123308
0.00428606
0.00398784
0.00398746
0.00398746
0.00398746
0.00398746
0.00398746
0.00398746
0.00398746
0.00398746
0.00398746
0.00398746
0.00398791
0.00428625
0.0123441
0.0394953
0.0837072
0.138662
0.199973
0.26535
0.33326
0.401905
0.468727
0.529776
0.581228
0.71721
1.5269
1.5279
0.713221
0.561913
0.504094
0.447633
0.386318
0.322419
0.258213
0.195533
0.136187
0.0825089
0.0389504
0.0116325
0.00160027
0.000288799
0.00028156
0.000281559
0.000281559
0.000281559
0.000281559
0.000281559
0.000281559
0.000281559
0.000281559
0.000281559
0.000288612
0.00160213
0.0116969
0.039315
0.0836403
0.138636
0.199963
0.265345
0.333252
0.40189
0.468705
0.529759
0.581178
0.717344
1.52684
1.53244
0.715516
0.558384
0.490139
0.43446
0.376553
0.315592
0.253651
0.192686
0.134471
0.0815483
0.0384732
0.0114883
0.0015571
6.31456e-05
4.67108e-06
4.64088e-06
4.64088e-06
4.64088e-06
4.64088e-06
4.64088e-06
4.64088e-06
4.64088e-06
4.64088e-06
4.66783e-06
6.3612e-05
0.00157733
0.0116941
0.0393151
0.0836416
0.138638
0.199965
0.265346
0.333253
0.40189
0.468705
0.529759
0.581177
0.717349
1.52684
1.54691
0.716243
0.552782
0.47187
0.417387
0.36388
0.307047
0.247951
0.188953
0.132113
0.0802026
0.0378632
0.0112953
0.00152571
6.14252e-05
4.86893e-07
1.21251e-08
1.21074e-08
1.21073e-08
1.21073e-08
1.21073e-08
1.21073e-08
1.21074e-08
1.21194e-08
5.00981e-07
6.34425e-05
0.00157732
0.0116941
0.0393152
0.0836416
0.138638
0.199965
0.265347
0.333253
0.40189
0.468705
0.529759
0.581177
0.717349
1.52684
1.55853
0.709248
0.539919
0.445839
0.395554
0.347947
0.297243
0.241904
0.185179
0.129727
0.078759
0.0371213
0.0110341
0.0014826
5.92549e-05
4.62758e-07
4.94568e-10
3.61831e-12
3.59112e-12
3.59114e-12
3.59114e-12
3.5911e-12
3.61801e-12
5.39759e-10
5.00835e-07
6.34425e-05
0.00157732
0.0116941
0.0393152
0.0836416
0.138638
0.199965
0.265347
0.333253
0.40189
0.468705
0.529759
0.581177
0.717349
1.52684
1.54385
0.677779
0.508025
0.410086
0.370258
0.330953
0.287381
0.236456
0.181975
0.127687
0.0774556
0.0363946
0.0107553
0.00143222
5.65665e-05
4.36608e-07
4.57477e-10
4.43855e-14
4.43399e-16
5.16695e-16
3.43515e-16
2.4868e-16
5.39624e-14
5.39757e-10
5.00835e-07
6.34425e-05
0.00157732
0.0116941
0.0393152
0.0836416
0.138638
0.199965
0.265347
0.333253
0.40189
0.468705
0.529759
0.581177
0.717349
1.52684
1.27368
0.498902
0.398179
0.347727
0.339355
0.317691
0.279832
0.232882
0.179907
0.12628
0.0764688
0.0357999
0.0105119
0.00138579
5.39914e-05
4.10107e-07
4.23162e-10
4.0277e-14
4.2674e-16
2.93206e-16
2.32067e-16
8.81581e-17
5.81745e-14
5.3974e-10
5.00835e-07
6.34425e-05
0.00157732
0.0116941
0.0393152
0.0836416
0.138638
0.199965
0.265347
0.333253
0.40189
0.468705
0.529759
0.581177
0.717349
1.52684
)
;

boundaryField
{
    inlet
    {
        type            calculated;
        value           uniform 0;
    }
    outlet
    {
        type            calculated;
        value           nonuniform List<scalar> 
165
(
1.27368
1.54385
1.55853
1.54691
1.53244
1.5279
1.52433
1.52391
1.52804
1.53892
1.55254
1.56438
1.58007
1.58614
1.6063
1.60455
1.6156
1.59749
1.66621
2.21928
2.21928
1.67187
1.60372
1.62136
1.60935
1.61137
1.59159
1.58471
1.56945
1.55734
1.54596
1.53893
1.53642
1.53605
1.53604
1.53604
1.53604
1.53604
1.53604
1.53604
1.53604
1.53604
1.53604
1.53604
1.53604
1.53604
1.53605
1.53642
1.53893
1.54596
1.55734
1.56945
1.58471
1.59159
1.61137
1.60935
1.62136
1.60372
1.67187
2.21928
1.52684
1.52684
1.52684
1.52684
1.52684
1.52684
1.5269
1.52774
1.53169
1.54028
1.55246
1.56424
1.58
1.58615
1.6063
1.60455
1.61559
1.59749
1.66621
2.21928
1.52684
1.52684
1.52684
1.52684
1.52684
2.21928
1.66621
1.59749
1.61559
1.60455
1.6063
1.58615
1.58
1.56424
1.55246
1.54028
1.53169
1.52774
1.5269
1.52684
1.52684
1.52684
1.52684
1.52684
1.52684
2.21928
1.67187
1.60372
1.62136
1.60935
1.61137
1.59159
1.58471
1.56945
1.55734
1.54596
1.53893
1.53642
1.53605
1.53604
1.53604
1.53604
1.53604
1.53604
1.53604
1.53604
1.53604
1.53604
1.53604
1.53604
1.53604
1.53605
1.53642
1.53893
1.54596
1.55734
1.56945
1.58471
1.59159
1.61137
1.60935
1.62136
1.60372
1.67187
2.21928
2.21928
1.66621
1.59749
1.6156
1.60455
1.6063
1.58614
1.58007
1.56438
1.55254
1.53892
1.52804
1.52391
1.52433
1.5279
1.53244
1.54691
1.55853
1.54385
1.27368
)
;
    }
    obstacle
    {
        type            calculated;
        value           nonuniform List<scalar> 
40
(
3.07617e-05
0.000912401
0.00667638
0.0199228
0.034405
0.0439696
0.0490759
0.0501059
0.0500931
0.0446175
3.07617e-05
0.000912401
0.00667638
0.0199228
0.034405
0.0439696
0.0490759
0.0501059
0.0500931
0.0446175
0.0497411
0.0651754
0.0832387
0.110853
0.176195
0.0497411
0.0651754
0.0832387
0.110853
0.176195
0.214831
0.184021
0.169869
0.169875
0.251581
0.214831
0.184021
0.169869
0.169875
0.251581
)
;
    }
    empty
    {
        type            empty;
    }
}


// ************************************************************************* //
