/*--------------------------------*- C++ -*----------------------------------*\
| =========                 |                                                 |
| \\      /  F ield         | OpenFOAM: The Open Source CFD Toolbox           |
|  \\    /   O peration     | Version:  v1912                                 |
|   \\  /    A nd           | Website:  www.openfoam.com                      |
|    \\/     M anipulation  |                                                 |
\*---------------------------------------------------------------------------*/
FoamFile
{
    version     2.0;
    format      ascii;
    class       volScalarField;
    location    "1.46";
    object      p;
}
// * * * * * * * * * * * * * * * * * * * * * * * * * * * * * * * * * * * * * //

dimensions      [1 -1 -2 0 0 0 0];


internalField   nonuniform List<scalar> 
1900
(
10000.4
10012.8
10093.9
10283.1
10494.1
10639.6
10701.5
10739.2
10748.3
10745.1
10000.4
10012.8
10093.9
10283.2
10493.9
10638.3
10698.9
10731.4
10726.6
10714.5
10000.4
10012.8
10093.9
10283.1
10493.3
10637
10698.3
10732
10731.2
10720
10000.4
10012.8
10093.9
10283.2
10493.9
10638.3
10698.9
10731.4
10726.6
10714.5
10000.4
10012.8
10093.9
10283.1
10494.1
10639.6
10701.5
10739.2
10748.3
10745.1
10663.6
10707.6
10709.3
10643.2
10006
10710.6
10748
10740.1
10726
10428.1
10713.2
10736.5
10717.9
10673.5
10361.9
10710.6
10748
10740.1
10726
10428.1
10663.6
10707.6
10709.3
10643.2
10006
11559.8
11486.5
11672
11752.3
12037.2
11414.6
11460.9
11668.3
11837
11803.5
11409.4
11467.7
11659.7
11787.3
11486.4
11414.6
11460.9
11668.3
11837
11803.5
11559.8
11486.5
11672
11752.3
12037.2
10237.2
5608.53
6071.77
6190.72
6207.4
6449.57
6764.4
7235.13
7787.19
8387.86
8988.87
9513.38
9855.1
9980.9
9999.26
9999.99
10000
10000
10000
10000
10000
10000
10000
10000
9999.99
9999.11
9977.94
9837.65
9465.54
8901.32
8254.26
7595.6
6958.91
6361.88
5816.53
5334.1
4926.89
4607.08
4089.01
15700.4
10424.6
5943.7
6248.66
6223.3
6222.26
6452.03
6768.04
7236.96
7787.91
8388.58
8989.65
9514
9855.4
9980.97
9999.27
9999.99
10000
10000
10000
10000
10000
10000
10000
10000
9999.99
9999.11
9977.94
9837.65
9465.54
8901.32
8254.26
7595.6
6958.91
6361.88
5816.53
5334.1
4926.89
4607.08
4089.01
15700.4
9923.22
6427.01
6333.12
6243.69
6228.89
6453.82
6769.4
7237.6
7788.14
8388.8
8989.91
9514.23
9855.52
9981
9999.27
9999.99
10000
10000
10000
10000
10000
10000
10000
10000
9999.99
9999.11
9977.94
9837.65
9465.54
8901.32
8254.26
7595.6
6958.91
6361.88
5816.53
5334.1
4926.89
4607.08
4089.01
15700.4
10424.6
5943.7
6248.66
6223.3
6222.26
6452.03
6768.04
7236.96
7787.91
8388.58
8989.65
9514
9855.4
9980.97
9999.27
9999.99
10000
10000
10000
10000
10000
10000
10000
10000
9999.99
9999.11
9977.94
9837.65
9465.54
8901.32
8254.26
7595.6
6958.91
6361.88
5816.53
5334.1
4926.89
4607.08
4089.01
15700.4
10237.2
5608.53
6071.77
6190.72
6207.4
6449.57
6764.4
7235.13
7787.19
8387.86
8988.87
9513.38
9855.1
9980.9
9999.26
9999.99
10000
10000
10000
10000
10000
10000
10000
10000
9999.99
9999.11
9977.94
9837.65
9465.54
8901.32
8254.26
7595.6
6958.91
6361.88
5816.53
5334.1
4926.89
4607.08
4089.01
15700.4
12123
5040.88
5819.79
6046.19
6155.52
6409.9
6755.21
7229.28
7783.59
8384.51
8985.5
9510.53
9853.63
9980.59
9999.24
9999.99
10000
10000
10000
10000
10000
10000
10000
10000
9999.99
9999.11
9977.94
9837.65
9465.54
8901.32
8254.26
7595.6
6958.91
6361.88
5816.53
5334.1
4926.89
4607.08
4089.01
15700.4
13409.1
4522.2
5469.16
5782.63
6028.45
6319.86
6719.2
7209.48
7771.19
8373.87
8976.07
9503.74
9850.53
9979.97
9999.21
9999.99
10000
10000
10000
10000
10000
10000
10000
10000
9999.99
9999.11
9977.94
9837.65
9465.54
8901.32
8254.26
7595.6
6958.91
6361.88
5816.53
5334.1
4926.89
4607.08
4089.01
15700.4
14750
4405.44
5277.04
5608.9
5902.68
6240.43
6671.87
7178.77
7749.03
8356.3
8962.46
9495
9846.89
9979.29
9999.17
9999.99
10000
10000
10000
10000
10000
10000
10000
10000
9999.99
9999.11
9977.94
9837.65
9465.54
8901.32
8254.26
7595.6
6958.91
6361.88
5816.53
5334.1
4926.89
4607.08
4089.01
15700.4
15853.3
4346.77
5130.1
5467.57
5787.51
6163.66
6617.56
7140.65
7720.53
8334.66
8947.02
9485.97
9843.48
9978.69
9999.14
9999.99
10000
10000
10000
10000
10000
10000
10000
10000
9999.99
9999.11
9977.94
9837.65
9465.54
8901.32
8254.26
7595.6
6958.91
6361.88
5816.53
5334.1
4926.89
4607.08
4089.01
15700.4
16559.9
4318.88
5028.63
5352
5686.51
6086.42
6559.13
7097.4
7688.13
8311.07
8931.08
9477.29
9840.49
9978.19
9999.05
9999.93
9999.94
9999.94
9999.94
9999.94
9999.94
9999.94
9999.94
9999.94
9999.93
9999.05
9977.88
9837.59
9465.48
8901.26
8254.22
7595.57
6958.88
6361.86
5816.52
5334.1
4926.89
4607.07
4089.01
15700.4
16628.9
4289.38
4940.42
5235.23
5582.03
6001.93
6492.89
7044.84
7647.69
8282.87
8914.01
9467.91
9834.96
9974.07
9995.17
9996.05
9996.06
9996.06
9996.06
9996.06
9996.06
9996.06
9996.06
9996.06
9996.05
9995.17
9974.01
9833.8
9461.9
8898.03
8251.43
7593.26
6957.05
6360.46
5815.49
5333.35
4926.37
4606.7
4088.87
15700.3
16528.4
4256.88
4818.96
5095.92
5457.45
5899.46
6412.07
6981.97
7593.48
8230.41
8861.81
9416.31
9783.54
9922.42
9943.44
9944.32
9944.33
9944.33
9944.33
9944.33
9944.33
9944.33
9944.33
9944.33
9944.32
9943.45
9922.43
9783.14
9413.72
8853.83
8212.13
7559.28
6928.42
6336.91
5796.54
5318.31
4914.7
4597.31
4084.68
15694.5
16215.5
4183.64
4651.5
4949.07
5323.26
5762.65
6263.61
6819.29
7418.89
8044.14
8662.69
9205.29
9564.35
9699.85
9720.29
9721.14
9721.15
9721.15
9721.15
9721.15
9721.15
9721.15
9721.15
9721.15
9721.14
9720.3
9699.9
9564.42
9204.8
8659.86
8035.92
7401.95
6790.06
6216.83
5693.61
5230.67
4840.74
4532.87
4048.54
15609
15559
4017.77
4429.66
4706.45
5057.38
5480.69
5964.09
6498.71
7073.93
7673.2
8264.65
8781.9
9122.93
9250.85
9269.97
9270.76
9270.76
9270.76
9270.76
9270.76
9270.76
9270.76
9270.76
9270.76
9270.76
9269.98
9250.88
9123.09
8782.26
8264.76
7672.2
7070.61
6490.64
5948.01
5453.56
5016.7
4649.65
4358.19
3927.4
15193.7
14429.2
3739.08
4108.43
4376
4712.87
5117.19
5577.04
6083.08
6625.03
7188.14
7742.87
8226.24
8542.77
8660.15
8677.4
8678.09
8678.1
8678.1
8678.1
8678.1
8678.1
8678.1
8678.1
8678.1
8678.09
8677.4
8660.16
8542.85
8226.54
7743.5
7189.11
6625.99
6083.24
5575.82
5113.95
4706.37
4363.8
4091.29
3706.9
14272.1
13043.5
3428.2
3787.41
4038.7
4355.97
4734.41
5163.93
5636.36
6141.66
6665.73
7180.8
7627.48
7916.97
8022.38
8037.46
8038.04
8038.05
8038.05
8038.05
8038.05
8038.05
8038.05
8038.05
8038.05
8038.04
8037.46
8022.38
7916.99
7627.63
7181.26
6666.65
6143.05
5638.2
5166.22
4736.76
4357.68
4038.51
3785.51
3422.95
13002.7
11606.6
3115.77
3472.84
3706.67
4003.6
4355.46
4755.11
5193.22
5662.03
6147.52
6623.38
7033.37
7295.28
7388.22
7401.02
7401.49
7401.5
7401.5
7401.5
7401.5
7401.5
7401.5
7401.5
7401.5
7401.49
7401.02
7388.22
7295.28
7033.41
6623.57
6147.97
5662.89
5194.66
4757.18
4358.02
4006.46
3709.45
3475.43
3117.41
11600.4
10269.5
2816.26
3173.1
3391.5
3666.42
3994.4
4363.99
4770.37
5203.91
5652.76
6091.23
6465.84
6700.68
6781.27
6791.84
6792.2
6792.2
6792.2
6792.2
6792.2
6792.2
6792.2
6792.2
6792.2
6792.2
6791.84
6781.27
6700.68
6465.84
6091.27
5652.9
5204.24
4770.99
4364.93
3995.67
3668.02
3393.45
3175.2
2817.93
10270.7
8926.01
2546.68
2890.96
3101.47
3354.8
3655.53
4001.05
4375.87
4777.84
5192.42
5596.04
5937.26
6146.25
6215.08
6223.57
6223.84
6223.84
6223.84
6223.84
6223.84
6223.84
6223.84
6223.84
6223.84
6223.84
6223.57
6215.08
6146.25
5937.25
5596.04
5192.44
4777.91
4376.03
4001.3
3655.93
3355.36
3102.25
2891.79
2547.32
8926.97
7814.8
2305.7
2627.54
2837.1
3069.43
3349.9
3667.22
4017.95
4390.34
4774.74
5146.54
5456.79
5641.56
5699.51
5706.17
5706.36
5706.36
5706.36
5706.36
5706.36
5706.36
5706.36
5706.36
5706.36
5706.36
5706.17
5699.51
5641.55
5456.79
5146.54
4774.73
4390.32
4017.94
3667.23
3349.94
3069.53
2837.26
2627.72
2305.84
7815.09
6733.81
2109.96
2401.61
2607.14
2824.04
3079.47
3376.65
3700.74
4049.08
4406.43
4750.18
5032.59
5195.52
5243.95
5249.1
5249.23
5249.23
5249.23
5249.23
5249.23
5249.23
5249.23
5249.23
5249.23
5249.23
5249.1
5243.95
5195.52
5032.59
4750.18
4406.42
4049.07
3700.71
3376.62
3079.44
2824.02
2607.12
2401.59
2109.95
6733.84
5960.78
1943.52
2209.49
2407.38
2617.06
2857.6
3134.88
3437.22
3763.19
4098.56
4419.34
4678.3
4822.02
4862.07
4865.96
4866.05
4866.05
4866.05
4866.05
4866.05
4866.05
4866.05
4866.05
4866.05
4866.05
4865.96
4862.07
4822.02
4678.3
4419.34
4098.56
3763.19
3437.21
3134.87
2857.58
2617.04
2407.36
2209.47
1943.5
5960.79
5252.95
1799.9
2029.72
2215.3
2418.71
2656.63
2934.34
3231.5
3542.11
3858.84
4161.01
4402.64
4533.05
4567.41
4570.48
4570.54
4570.54
4570.54
4570.54
4570.54
4570.54
4570.54
4570.54
4570.54
4570.54
4570.48
4567.41
4533.05
4402.64
4161.01
3858.84
3542.11
3231.49
2934.34
2656.62
2418.7
2215.29
2029.71
1799.89
5252.94
4677.45
1585.75
1804.85
1952.48
2129.18
2335.53
2587.8
2869.17
3178.89
3486.78
3756.97
3944.29
4027.88
4045.7
4046.98
4047
4047
4047
4047
4047
4047
4047
4047
4047
4047
4046.98
4045.7
4027.88
3944.29
3756.97
3486.78
3178.89
2869.17
2587.8
2335.52
2129.18
1952.48
1804.84
1585.74
4677.45
23393
4768.9
5369.78
6131.97
6969.4
8141.04
9331.14
10764.8
12182.1
13626.1
14853.8
15621.1
15886.2
15922.9
15924.4
15924.4
15924.4
15924.4
15924.4
15924.4
15924.4
15924.4
15924.4
15924.4
15924.4
15924.4
15922.9
15886.2
15621.1
14853.8
13626.1
12182.1
10764.8
9331.14
8141.05
6969.41
6131.97
5369.79
4768.9
23393
23393
4768.9
5369.78
6131.97
6969.4
8141.04
9331.14
10764.8
12182.1
13626.1
14853.8
15621.1
15886.2
15922.9
15924.4
15924.4
15924.4
15924.4
15924.4
15924.4
15924.4
15924.4
15924.4
15924.4
15924.4
15924.4
15922.9
15886.2
15621.1
14853.8
13626.1
12182.1
10764.8
9331.14
8141.05
6969.41
6131.97
5369.79
4768.9
23393
4677.45
1585.75
1804.85
1952.48
2129.18
2335.53
2587.8
2869.17
3178.89
3486.78
3756.97
3944.29
4027.88
4045.7
4046.98
4047
4047
4047
4047
4047
4047
4047
4047
4047
4047
4046.98
4045.7
4027.88
3944.29
3756.97
3486.78
3178.89
2869.17
2587.8
2335.52
2129.18
1952.48
1804.84
1585.74
4677.45
5252.95
1799.9
2029.72
2215.3
2418.71
2656.63
2934.34
3231.5
3542.11
3858.84
4161.01
4402.64
4533.05
4567.41
4570.48
4570.54
4570.54
4570.54
4570.54
4570.54
4570.54
4570.54
4570.54
4570.54
4570.54
4570.48
4567.41
4533.05
4402.64
4161.01
3858.84
3542.11
3231.49
2934.34
2656.62
2418.7
2215.29
2029.71
1799.89
5252.94
5960.78
1943.52
2209.49
2407.38
2617.06
2857.6
3134.88
3437.22
3763.19
4098.56
4419.34
4678.3
4822.02
4862.07
4865.96
4866.05
4866.05
4866.05
4866.05
4866.05
4866.05
4866.05
4866.05
4866.05
4866.05
4865.96
4862.07
4822.02
4678.3
4419.34
4098.56
3763.19
3437.21
3134.87
2857.58
2617.04
2407.36
2209.47
1943.5
5960.79
6733.81
2109.96
2401.61
2607.14
2824.04
3079.47
3376.65
3700.74
4049.08
4406.43
4750.18
5032.59
5195.52
5243.95
5249.1
5249.23
5249.23
5249.23
5249.23
5249.23
5249.23
5249.23
5249.23
5249.23
5249.23
5249.1
5243.95
5195.52
5032.59
4750.18
4406.42
4049.07
3700.71
3376.62
3079.44
2824.02
2607.12
2401.59
2109.95
6733.84
7814.8
2305.7
2627.54
2837.1
3069.43
3349.9
3667.22
4017.95
4390.34
4774.74
5146.54
5456.79
5641.56
5699.51
5706.17
5706.36
5706.36
5706.36
5706.36
5706.36
5706.36
5706.36
5706.36
5706.36
5706.36
5706.17
5699.51
5641.55
5456.79
5146.54
4774.73
4390.32
4017.94
3667.23
3349.94
3069.53
2837.26
2627.72
2305.84
7815.09
8926.01
2546.68
2890.96
3101.47
3354.8
3655.53
4001.05
4375.87
4777.84
5192.42
5596.04
5937.26
6146.25
6215.08
6223.57
6223.84
6223.84
6223.84
6223.84
6223.84
6223.84
6223.84
6223.84
6223.84
6223.84
6223.57
6215.08
6146.25
5937.25
5596.04
5192.44
4777.91
4376.03
4001.3
3655.93
3355.36
3102.25
2891.79
2547.32
8926.97
10269.5
2816.26
3173.1
3391.5
3666.42
3994.4
4363.99
4770.37
5203.91
5652.76
6091.23
6465.84
6700.68
6781.27
6791.84
6792.2
6792.2
6792.2
6792.2
6792.2
6792.2
6792.2
6792.2
6792.2
6792.2
6791.84
6781.27
6700.68
6465.84
6091.27
5652.9
5204.24
4770.99
4364.93
3995.67
3668.02
3393.45
3175.2
2817.93
10270.7
11606.6
3115.77
3472.84
3706.67
4003.6
4355.46
4755.11
5193.22
5662.03
6147.52
6623.38
7033.37
7295.28
7388.22
7401.02
7401.49
7401.5
7401.5
7401.5
7401.5
7401.5
7401.5
7401.5
7401.5
7401.49
7401.02
7388.22
7295.28
7033.41
6623.57
6147.97
5662.89
5194.66
4757.18
4358.02
4006.46
3709.45
3475.43
3117.41
11600.4
13043.5
3428.2
3787.41
4038.7
4355.97
4734.41
5163.93
5636.36
6141.66
6665.73
7180.8
7627.48
7916.97
8022.38
8037.46
8038.04
8038.05
8038.05
8038.05
8038.05
8038.05
8038.05
8038.05
8038.05
8038.04
8037.46
8022.38
7916.99
7627.63
7181.26
6666.65
6143.05
5638.2
5166.22
4736.76
4357.68
4038.51
3785.51
3422.95
13002.7
14429.2
3739.08
4108.43
4376
4712.87
5117.19
5577.04
6083.08
6625.03
7188.14
7742.87
8226.24
8542.77
8660.15
8677.4
8678.09
8678.1
8678.1
8678.1
8678.1
8678.1
8678.1
8678.1
8678.1
8678.09
8677.4
8660.16
8542.85
8226.54
7743.5
7189.11
6625.99
6083.24
5575.82
5113.95
4706.37
4363.8
4091.29
3706.9
14272.1
15559
4017.77
4429.66
4706.45
5057.38
5480.69
5964.09
6498.71
7073.93
7673.2
8264.65
8781.9
9122.93
9250.85
9269.97
9270.76
9270.76
9270.76
9270.76
9270.76
9270.76
9270.76
9270.76
9270.76
9270.76
9269.98
9250.88
9123.09
8782.26
8264.76
7672.2
7070.61
6490.64
5948.01
5453.56
5016.7
4649.65
4358.19
3927.4
15193.7
16215.5
4183.64
4651.5
4949.07
5323.26
5762.65
6263.61
6819.29
7418.89
8044.14
8662.69
9205.29
9564.35
9699.85
9720.29
9721.14
9721.15
9721.15
9721.15
9721.15
9721.15
9721.15
9721.15
9721.15
9721.14
9720.3
9699.9
9564.42
9204.8
8659.86
8035.92
7401.95
6790.06
6216.83
5693.61
5230.67
4840.74
4532.87
4048.54
15609
16528.4
4256.88
4818.96
5095.92
5457.45
5899.46
6412.07
6981.97
7593.48
8230.41
8861.81
9416.31
9783.54
9922.42
9943.44
9944.32
9944.33
9944.33
9944.33
9944.33
9944.33
9944.33
9944.33
9944.33
9944.32
9943.45
9922.43
9783.14
9413.72
8853.83
8212.13
7559.28
6928.42
6336.91
5796.54
5318.31
4914.7
4597.31
4084.68
15694.5
16628.9
4289.38
4940.42
5235.23
5582.03
6001.93
6492.89
7044.84
7647.69
8282.87
8914.01
9467.91
9834.96
9974.07
9995.17
9996.05
9996.06
9996.06
9996.06
9996.06
9996.06
9996.06
9996.06
9996.06
9996.05
9995.17
9974.01
9833.8
9461.9
8898.03
8251.43
7593.26
6957.05
6360.46
5815.49
5333.35
4926.37
4606.7
4088.87
15700.3
16559.9
4318.88
5028.63
5352
5686.51
6086.42
6559.13
7097.4
7688.13
8311.07
8931.08
9477.29
9840.49
9978.19
9999.05
9999.93
9999.94
9999.94
9999.94
9999.94
9999.94
9999.94
9999.94
9999.94
9999.93
9999.05
9977.88
9837.59
9465.48
8901.26
8254.22
7595.57
6958.88
6361.86
5816.52
5334.1
4926.89
4607.07
4089.01
15700.4
15853.3
4346.77
5130.1
5467.57
5787.51
6163.66
6617.56
7140.65
7720.53
8334.66
8947.02
9485.97
9843.48
9978.69
9999.14
9999.99
10000
10000
10000
10000
10000
10000
10000
10000
9999.99
9999.11
9977.94
9837.65
9465.54
8901.32
8254.26
7595.6
6958.91
6361.88
5816.53
5334.1
4926.89
4607.08
4089.01
15700.4
14750
4405.44
5277.04
5608.9
5902.68
6240.43
6671.87
7178.77
7749.03
8356.3
8962.46
9495
9846.89
9979.29
9999.17
9999.99
10000
10000
10000
10000
10000
10000
10000
10000
9999.99
9999.11
9977.94
9837.65
9465.54
8901.32
8254.26
7595.6
6958.91
6361.88
5816.53
5334.1
4926.89
4607.08
4089.01
15700.4
13409.1
4522.2
5469.16
5782.63
6028.45
6319.86
6719.2
7209.48
7771.19
8373.87
8976.07
9503.74
9850.53
9979.97
9999.21
9999.99
10000
10000
10000
10000
10000
10000
10000
10000
9999.99
9999.11
9977.94
9837.65
9465.54
8901.32
8254.26
7595.6
6958.91
6361.88
5816.53
5334.1
4926.89
4607.08
4089.01
15700.4
12123
5040.88
5819.79
6046.19
6155.52
6409.9
6755.21
7229.28
7783.59
8384.51
8985.5
9510.53
9853.63
9980.59
9999.24
9999.99
10000
10000
10000
10000
10000
10000
10000
10000
9999.99
9999.11
9977.94
9837.65
9465.54
8901.32
8254.26
7595.6
6958.91
6361.88
5816.53
5334.1
4926.89
4607.08
4089.01
15700.4
)
;

boundaryField
{
    inlet
    {
        type            fixedValue;
        value           uniform 10000;
    }
    outlet
    {
        type            fixedValue;
        value           uniform 1000;
    }
    obstacle
    {
        type            zeroGradient;
    }
    empty
    {
        type            empty;
    }
}


// ************************************************************************* //
