/*--------------------------------*- C++ -*----------------------------------*\
| =========                 |                                                 |
| \\      /  F ield         | OpenFOAM: The Open Source CFD Toolbox           |
|  \\    /   O peration     | Version:  v1912                                 |
|   \\  /    A nd           | Website:  www.openfoam.com                      |
|    \\/     M anipulation  |                                                 |
\*---------------------------------------------------------------------------*/
FoamFile
{
    version     2.0;
    format      ascii;
    class       volScalarField;
    location    "1.46";
    object      T;
}
// * * * * * * * * * * * * * * * * * * * * * * * * * * * * * * * * * * * * * //

dimensions      [0 0 0 1 0 0 0];


internalField   nonuniform List<scalar> 
1900
(
1.00001
1.00037
1.00268
1.00803
1.0139
1.0179
1.01958
1.0206
1.02088
1.02088
1.00001
1.00037
1.00268
1.00803
1.0139
1.01787
1.01951
1.02038
1.02028
1.02006
1.00001
1.00037
1.00268
1.00803
1.01388
1.01783
1.01949
1.0204
1.0204
1.02022
1.00001
1.00037
1.00268
1.00803
1.0139
1.01787
1.01951
1.02038
1.02028
1.02006
1.00001
1.00037
1.00268
1.00803
1.0139
1.0179
1.01958
1.0206
1.02088
1.02088
1.01874
1.02053
1.02223
1.02345
1.00713
1.0201
1.02167
1.02324
1.02558
1.01857
1.02021
1.02136
1.02259
1.02412
1.01652
1.0201
1.02167
1.02324
1.02558
1.01857
1.01874
1.02053
1.02223
1.02345
1.00713
1.0453
1.03924
1.03915
1.03024
1.01263
1.0417
1.03823
1.03837
1.03522
1.02524
1.0415
1.03823
1.03777
1.03529
1.02667
1.0417
1.03823
1.03837
1.03522
1.02524
1.0453
1.03924
1.03915
1.03024
1.01263
0.904143
0.825574
0.869568
0.875942
0.873605
0.882274
0.894442
0.911841
0.931166
0.951115
0.970085
0.985901
0.995856
0.999456
0.999979
1
1
1
1
1
1
1
1
1
1
0.999975
0.999371
0.995356
0.984493
0.967395
0.946783
0.924542
0.901607
0.878607
0.856545
0.837629
0.823667
0.80373
0.708312
0.637438
0.992914
0.87178
0.885306
0.878112
0.874023
0.882268
0.894596
0.911936
0.931199
0.951137
0.970108
0.985919
0.995864
0.999457
0.999979
1
1
1
1
1
1
1
1
1
1
0.999975
0.999371
0.995356
0.984493
0.967395
0.946783
0.924542
0.901607
0.878607
0.856545
0.837629
0.823667
0.80373
0.708312
0.637438
0.99272
0.903459
0.891856
0.879077
0.874266
0.882328
0.89465
0.911967
0.931209
0.951144
0.970115
0.985926
0.995868
0.999458
0.999979
1
1
1
1
1
1
1
1
1
1
0.999975
0.999371
0.995356
0.984493
0.967395
0.946783
0.924542
0.901607
0.878607
0.856545
0.837629
0.823667
0.80373
0.708312
0.637438
0.992914
0.87178
0.885306
0.878112
0.874023
0.882268
0.894596
0.911936
0.931199
0.951137
0.970108
0.985919
0.995864
0.999457
0.999979
1
1
1
1
1
1
1
1
1
1
0.999975
0.999371
0.995356
0.984493
0.967395
0.946783
0.924542
0.901607
0.878607
0.856545
0.837629
0.823667
0.80373
0.708312
0.637438
0.904143
0.825574
0.869568
0.875942
0.873605
0.882274
0.894442
0.911841
0.931166
0.951115
0.970085
0.985901
0.995856
0.999456
0.999979
1
1
1
1
1
1
1
1
1
1
0.999975
0.999371
0.995356
0.984493
0.967395
0.946783
0.924542
0.901607
0.878607
0.856545
0.837629
0.823667
0.80373
0.708312
0.637438
0.716669
0.764107
0.852275
0.869472
0.872281
0.881037
0.893975
0.911514
0.931013
0.951009
0.969985
0.985818
0.995814
0.999447
0.999978
1
1
1
1
1
1
1
1
1
1
0.999975
0.999371
0.995356
0.984493
0.967395
0.946783
0.924542
0.901607
0.878607
0.856545
0.837629
0.823667
0.80373
0.708312
0.637438
0.627779
0.738606
0.838629
0.859139
0.867885
0.877656
0.892471
0.91069
0.930559
0.950667
0.969699
0.985618
0.995725
0.999429
0.999977
1
1
1
1
1
1
1
1
1
1
0.999975
0.999371
0.995356
0.984493
0.967395
0.946783
0.924542
0.901607
0.878607
0.856545
0.837629
0.823667
0.80373
0.708312
0.637438
0.624127
0.734351
0.832175
0.852548
0.862694
0.874353
0.890621
0.909572
0.929801
0.950099
0.969281
0.985361
0.99562
0.99941
0.999976
1
1
1
1
1
1
1
1
1
1
0.999975
0.999371
0.995356
0.984493
0.967395
0.946783
0.924542
0.901607
0.878607
0.856545
0.837629
0.823667
0.80373
0.708312
0.637438
0.633004
0.727138
0.825952
0.847062
0.85771
0.871085
0.888529
0.908219
0.928838
0.9494
0.968806
0.985095
0.995523
0.999393
0.999975
1
1
1
1
1
1
1
1
1
1
0.999975
0.999371
0.995356
0.984493
0.967395
0.946783
0.924542
0.901607
0.878607
0.856545
0.837629
0.823667
0.80373
0.708312
0.637438
0.643193
0.721304
0.821401
0.84254
0.853325
0.867824
0.886275
0.906669
0.927736
0.948635
0.968314
0.984839
0.995437
0.999378
0.999973
0.999998
0.999998
0.999998
0.999998
0.999998
0.999998
0.999998
0.999998
0.999998
0.999998
0.999973
0.999369
0.995354
0.984491
0.967393
0.946781
0.924541
0.901606
0.878606
0.856544
0.837629
0.823666
0.80373
0.708312
0.637438
0.645499
0.717579
0.817789
0.837732
0.848759
0.864296
0.883713
0.90476
0.926346
0.947717
0.967787
0.984562
0.995278
0.999261
0.999862
0.999887
0.999888
0.999888
0.999888
0.999888
0.999888
0.999888
0.999888
0.999888
0.999887
0.999862
0.999259
0.995244
0.984385
0.967293
0.94669
0.924461
0.901538
0.878551
0.856501
0.837595
0.823642
0.803711
0.708305
0.637437
0.645469
0.714551
0.812829
0.831536
0.843232
0.86003
0.880569
0.902458
0.924473
0.946005
0.966171
0.983032
0.993794
0.997785
0.998387
0.998412
0.998412
0.998412
0.998412
0.998412
0.998412
0.998412
0.998412
0.998412
0.998412
0.998387
0.997786
0.993783
0.982956
0.965923
0.945405
0.923282
0.900481
0.877624
0.855705
0.836922
0.823082
0.803241
0.708077
0.637377
0.643094
0.710389
0.805446
0.824669
0.837198
0.8543
0.87473
0.896429
0.918376
0.939865
0.959946
0.976715
0.98741
0.991368
0.991962
0.991987
0.991987
0.991987
0.991987
0.991987
0.991987
0.991987
0.991987
0.991987
0.991987
0.991962
0.991369
0.987412
0.9767
0.959856
0.93959
0.917775
0.895329
0.872862
0.851357
0.832974
0.819522
0.800013
0.706085
0.636471
0.63628
0.70301
0.794626
0.812932
0.825035
0.842174
0.862608
0.884217
0.906002
0.927309
0.947169
0.963702
0.974209
0.978074
0.978649
0.978673
0.978673
0.978673
0.978673
0.978673
0.978673
0.978673
0.978673
0.978673
0.978673
0.978649
0.978075
0.974214
0.963714
0.947173
0.927274
0.905881
0.883903
0.861943
0.840979
0.823124
0.810144
0.791102
0.699505
0.632033
0.623918
0.689426
0.777909
0.796195
0.808578
0.825848
0.846256
0.867703
0.889217
0.910196
0.929713
0.945902
0.956121
0.959838
0.960382
0.960404
0.960405
0.960405
0.960405
0.960405
0.960405
0.960405
0.960405
0.960405
0.960404
0.960382
0.959839
0.956123
0.945912
0.929735
0.910232
0.889253
0.86771
0.846203
0.825702
0.808267
0.795579
0.776984
0.687869
0.621999
0.608315
0.673668
0.760139
0.778159
0.790605
0.807727
0.827867
0.849013
0.870192
0.890802
0.909927
0.925716
0.935582
0.939107
0.939609
0.939629
0.939629
0.939629
0.939629
0.939629
0.939629
0.939629
0.939629
0.939629
0.939629
0.939609
0.939107
0.935582
0.925721
0.909944
0.890837
0.870248
0.849093
0.827972
0.807842
0.790696
0.778151
0.760001
0.673266
0.607783
0.591602
0.657517
0.741651
0.7593
0.771763
0.788692
0.808573
0.829367
0.850196
0.870429
0.889149
0.904503
0.913963
0.917259
0.917711
0.917728
0.917728
0.917728
0.917728
0.917728
0.917728
0.917728
0.917728
0.917728
0.917728
0.917711
0.917259
0.913963
0.904504
0.889156
0.870447
0.850233
0.829433
0.808674
0.788824
0.77192
0.75946
0.741791
0.657564
0.5915
0.575582
0.641477
0.722907
0.740184
0.75251
0.769346
0.7889
0.809394
0.829854
0.849718
0.86803
0.882924
0.891933
0.89497
0.895367
0.895381
0.895381
0.895381
0.895381
0.895381
0.895381
0.895381
0.895381
0.895381
0.895381
0.895367
0.89497
0.891933
0.882924
0.868032
0.849724
0.829869
0.809424
0.788949
0.769415
0.752604
0.740304
0.723038
0.641582
0.575591
0.558595
0.626392
0.704017
0.72127
0.73346
0.749938
0.769394
0.789498
0.80966
0.829152
0.847057
0.861468
0.869989
0.872748
0.873087
0.873098
0.873098
0.873098
0.873098
0.873098
0.873098
0.873098
0.873098
0.873098
0.873098
0.873087
0.872748
0.869989
0.861467
0.847057
0.829153
0.809663
0.789506
0.769408
0.749962
0.733495
0.72132
0.704074
0.626444
0.558609
0.544419
0.611699
0.685416
0.70305
0.715072
0.731513
0.750553
0.770552
0.790399
0.80959
0.827099
0.84101
0.849014
0.851485
0.851768
0.851776
0.851777
0.851777
0.851777
0.851777
0.851777
0.851777
0.851777
0.851777
0.851776
0.851768
0.851485
0.849014
0.84101
0.827098
0.80959
0.790398
0.770552
0.750554
0.731516
0.715079
0.703061
0.68543
0.611713
0.544424
0.530624
0.600479
0.669686
0.687431
0.699553
0.715593
0.734609
0.754281
0.774012
0.792958
0.810143
0.82359
0.831092
0.833288
0.833522
0.833528
0.833528
0.833528
0.833528
0.833528
0.833528
0.833528
0.833528
0.833528
0.833528
0.833522
0.833288
0.831092
0.82359
0.810143
0.792958
0.774012
0.75428
0.734607
0.715592
0.699551
0.687429
0.669686
0.600479
0.530625
0.52481
0.591317
0.657488
0.675321
0.688105
0.704284
0.723206
0.742756
0.762327
0.781175
0.798186
0.811281
0.818321
0.820259
0.820447
0.820451
0.820451
0.820451
0.820451
0.820451
0.820451
0.820451
0.820451
0.820451
0.820451
0.820447
0.820259
0.818321
0.811281
0.798186
0.781175
0.762327
0.742755
0.723205
0.704283
0.688103
0.675319
0.657486
0.591316
0.52481
0.516444
0.58004
0.641931
0.658827
0.671816
0.688214
0.707607
0.727314
0.746521
0.764909
0.781499
0.794165
0.800797
0.802526
0.802681
0.802684
0.802684
0.802684
0.802684
0.802684
0.802684
0.802684
0.802684
0.802684
0.802684
0.802681
0.802526
0.800797
0.794165
0.781499
0.764909
0.74652
0.727313
0.707607
0.688214
0.671815
0.658826
0.64193
0.580039
0.516444
0.465974
0.524095
0.582526
0.594696
0.604605
0.616421
0.631671
0.647228
0.663563
0.67942
0.69357
0.703752
0.708444
0.709455
0.709526
0.709528
0.709528
0.709528
0.709528
0.709528
0.709528
0.709528
0.709528
0.709528
0.709528
0.709526
0.709455
0.708444
0.703752
0.69357
0.67942
0.663563
0.647228
0.631671
0.616421
0.604605
0.594696
0.582525
0.524095
0.465974
0.442883
0.462046
0.514262
0.523519
0.529749
0.544094
0.558631
0.57602
0.59236
0.608508
0.621777
0.62986
0.632612
0.632991
0.633006
0.633006
0.633006
0.633006
0.633006
0.633006
0.633006
0.633006
0.633006
0.633006
0.633006
0.633006
0.632991
0.632612
0.62986
0.621777
0.608508
0.59236
0.57602
0.558631
0.544094
0.52975
0.523519
0.514262
0.462046
0.442883
0.442883
0.462046
0.514262
0.523519
0.529749
0.544094
0.558631
0.57602
0.59236
0.608508
0.621777
0.62986
0.632612
0.632991
0.633006
0.633006
0.633006
0.633006
0.633006
0.633006
0.633006
0.633006
0.633006
0.633006
0.633006
0.633006
0.632991
0.632612
0.62986
0.621777
0.608508
0.59236
0.57602
0.558631
0.544094
0.52975
0.523519
0.514262
0.462046
0.442883
0.465974
0.524095
0.582526
0.594696
0.604605
0.616421
0.631671
0.647228
0.663563
0.67942
0.69357
0.703752
0.708444
0.709455
0.709526
0.709528
0.709528
0.709528
0.709528
0.709528
0.709528
0.709528
0.709528
0.709528
0.709528
0.709526
0.709455
0.708444
0.703752
0.69357
0.67942
0.663563
0.647228
0.631671
0.616421
0.604605
0.594696
0.582525
0.524095
0.465974
0.516444
0.58004
0.641931
0.658827
0.671816
0.688214
0.707607
0.727314
0.746521
0.764909
0.781499
0.794165
0.800797
0.802526
0.802681
0.802684
0.802684
0.802684
0.802684
0.802684
0.802684
0.802684
0.802684
0.802684
0.802684
0.802681
0.802526
0.800797
0.794165
0.781499
0.764909
0.74652
0.727313
0.707607
0.688214
0.671815
0.658826
0.64193
0.580039
0.516444
0.52481
0.591317
0.657488
0.675321
0.688105
0.704284
0.723206
0.742756
0.762327
0.781175
0.798186
0.811281
0.818321
0.820259
0.820447
0.820451
0.820451
0.820451
0.820451
0.820451
0.820451
0.820451
0.820451
0.820451
0.820451
0.820447
0.820259
0.818321
0.811281
0.798186
0.781175
0.762327
0.742755
0.723205
0.704283
0.688103
0.675319
0.657486
0.591316
0.52481
0.530624
0.600479
0.669686
0.687431
0.699553
0.715593
0.734609
0.754281
0.774012
0.792958
0.810143
0.82359
0.831092
0.833288
0.833522
0.833528
0.833528
0.833528
0.833528
0.833528
0.833528
0.833528
0.833528
0.833528
0.833528
0.833522
0.833288
0.831092
0.82359
0.810143
0.792958
0.774012
0.75428
0.734607
0.715592
0.699551
0.687429
0.669686
0.600479
0.530625
0.544419
0.611699
0.685416
0.70305
0.715072
0.731513
0.750553
0.770552
0.790399
0.80959
0.827099
0.84101
0.849014
0.851485
0.851768
0.851776
0.851777
0.851777
0.851777
0.851777
0.851777
0.851777
0.851777
0.851777
0.851776
0.851768
0.851485
0.849014
0.84101
0.827098
0.80959
0.790398
0.770552
0.750554
0.731516
0.715079
0.703061
0.68543
0.611713
0.544424
0.558595
0.626392
0.704017
0.72127
0.73346
0.749938
0.769394
0.789498
0.80966
0.829152
0.847057
0.861468
0.869989
0.872748
0.873087
0.873098
0.873098
0.873098
0.873098
0.873098
0.873098
0.873098
0.873098
0.873098
0.873098
0.873087
0.872748
0.869989
0.861467
0.847057
0.829153
0.809663
0.789506
0.769408
0.749962
0.733495
0.72132
0.704074
0.626444
0.558609
0.575582
0.641477
0.722907
0.740184
0.75251
0.769346
0.7889
0.809394
0.829854
0.849718
0.86803
0.882924
0.891933
0.89497
0.895367
0.895381
0.895381
0.895381
0.895381
0.895381
0.895381
0.895381
0.895381
0.895381
0.895381
0.895367
0.89497
0.891933
0.882924
0.868032
0.849724
0.829869
0.809424
0.788949
0.769415
0.752604
0.740304
0.723038
0.641582
0.575591
0.591602
0.657517
0.741651
0.7593
0.771763
0.788692
0.808573
0.829367
0.850196
0.870429
0.889149
0.904503
0.913963
0.917259
0.917711
0.917728
0.917728
0.917728
0.917728
0.917728
0.917728
0.917728
0.917728
0.917728
0.917728
0.917711
0.917259
0.913963
0.904504
0.889156
0.870447
0.850233
0.829433
0.808674
0.788824
0.77192
0.75946
0.741791
0.657564
0.5915
0.608315
0.673668
0.760139
0.778159
0.790605
0.807727
0.827867
0.849013
0.870192
0.890802
0.909927
0.925716
0.935582
0.939107
0.939609
0.939629
0.939629
0.939629
0.939629
0.939629
0.939629
0.939629
0.939629
0.939629
0.939629
0.939609
0.939107
0.935582
0.925721
0.909944
0.890837
0.870248
0.849093
0.827972
0.807842
0.790696
0.778151
0.760001
0.673266
0.607783
0.623918
0.689426
0.777909
0.796195
0.808578
0.825848
0.846256
0.867703
0.889217
0.910196
0.929713
0.945902
0.956121
0.959838
0.960382
0.960404
0.960405
0.960405
0.960405
0.960405
0.960405
0.960405
0.960405
0.960405
0.960404
0.960382
0.959839
0.956123
0.945912
0.929735
0.910232
0.889253
0.86771
0.846203
0.825702
0.808267
0.795579
0.776984
0.687869
0.621999
0.63628
0.70301
0.794626
0.812932
0.825035
0.842174
0.862608
0.884217
0.906002
0.927309
0.947169
0.963702
0.974209
0.978074
0.978649
0.978673
0.978673
0.978673
0.978673
0.978673
0.978673
0.978673
0.978673
0.978673
0.978673
0.978649
0.978075
0.974214
0.963714
0.947173
0.927274
0.905881
0.883903
0.861943
0.840979
0.823124
0.810144
0.791102
0.699505
0.632033
0.643094
0.710389
0.805446
0.824669
0.837198
0.8543
0.87473
0.896429
0.918376
0.939865
0.959946
0.976715
0.98741
0.991368
0.991962
0.991987
0.991987
0.991987
0.991987
0.991987
0.991987
0.991987
0.991987
0.991987
0.991987
0.991962
0.991369
0.987412
0.9767
0.959856
0.93959
0.917775
0.895329
0.872862
0.851357
0.832974
0.819522
0.800013
0.706085
0.636471
0.645469
0.714551
0.812829
0.831536
0.843232
0.86003
0.880569
0.902458
0.924473
0.946005
0.966171
0.983032
0.993794
0.997785
0.998387
0.998412
0.998412
0.998412
0.998412
0.998412
0.998412
0.998412
0.998412
0.998412
0.998412
0.998387
0.997786
0.993783
0.982956
0.965923
0.945405
0.923282
0.900481
0.877624
0.855705
0.836922
0.823082
0.803241
0.708077
0.637377
0.645499
0.717579
0.817789
0.837732
0.848759
0.864296
0.883713
0.90476
0.926346
0.947717
0.967787
0.984562
0.995278
0.999261
0.999862
0.999887
0.999888
0.999888
0.999888
0.999888
0.999888
0.999888
0.999888
0.999888
0.999887
0.999862
0.999259
0.995244
0.984385
0.967293
0.94669
0.924461
0.901538
0.878551
0.856501
0.837595
0.823642
0.803711
0.708305
0.637437
0.643193
0.721304
0.821401
0.84254
0.853325
0.867824
0.886275
0.906669
0.927736
0.948635
0.968314
0.984839
0.995437
0.999378
0.999973
0.999998
0.999998
0.999998
0.999998
0.999998
0.999998
0.999998
0.999998
0.999998
0.999998
0.999973
0.999369
0.995354
0.984491
0.967393
0.946781
0.924541
0.901606
0.878606
0.856544
0.837629
0.823666
0.80373
0.708312
0.637438
0.633004
0.727138
0.825952
0.847062
0.85771
0.871085
0.888529
0.908219
0.928838
0.9494
0.968806
0.985095
0.995523
0.999393
0.999975
1
1
1
1
1
1
1
1
1
1
0.999975
0.999371
0.995356
0.984493
0.967395
0.946783
0.924542
0.901607
0.878607
0.856545
0.837629
0.823667
0.80373
0.708312
0.637438
0.624127
0.734351
0.832175
0.852548
0.862694
0.874353
0.890621
0.909572
0.929801
0.950099
0.969281
0.985361
0.99562
0.99941
0.999976
1
1
1
1
1
1
1
1
1
1
0.999975
0.999371
0.995356
0.984493
0.967395
0.946783
0.924542
0.901607
0.878607
0.856545
0.837629
0.823667
0.80373
0.708312
0.637438
0.627779
0.738606
0.838629
0.859139
0.867885
0.877656
0.892471
0.91069
0.930559
0.950667
0.969699
0.985618
0.995725
0.999429
0.999977
1
1
1
1
1
1
1
1
1
1
0.999975
0.999371
0.995356
0.984493
0.967395
0.946783
0.924542
0.901607
0.878607
0.856545
0.837629
0.823667
0.80373
0.708312
0.637438
0.716669
0.764107
0.852275
0.869472
0.872281
0.881037
0.893975
0.911514
0.931013
0.951009
0.969985
0.985818
0.995814
0.999447
0.999978
1
1
1
1
1
1
1
1
1
1
0.999975
0.999371
0.995356
0.984493
0.967395
0.946783
0.924542
0.901607
0.878607
0.856545
0.837629
0.823667
0.80373
0.708312
0.637438
)
;

boundaryField
{
    inlet
    {
        type            fixedValue;
        value           uniform 1;
    }
    outlet
    {
        type            zeroGradient;
    }
    obstacle
    {
        type            zeroGradient;
    }
    empty
    {
        type            empty;
    }
}


// ************************************************************************* //
