/*--------------------------------*- C++ -*----------------------------------*\
| =========                 |                                                 |
| \\      /  F ield         | OpenFOAM: The Open Source CFD Toolbox           |
|  \\    /   O peration     | Version:  v1912                                 |
|   \\  /    A nd           | Website:  www.openfoam.com                      |
|    \\/     M anipulation  |                                                 |
\*---------------------------------------------------------------------------*/
FoamFile
{
    version     2.0;
    format      ascii;
    class       volScalarField;
    location    "5.58";
    object      rho;
}
// * * * * * * * * * * * * * * * * * * * * * * * * * * * * * * * * * * * * * //

dimensions      [1 -3 0 0 0 0 0];


internalField   nonuniform List<scalar> 
1900
(
41348.3
16050.9
13899.3
13465.7
13159.8
13016.9
12950.9
12908.8
12876.8
12831.5
41348.4
16050.8
13899.2
13465.6
13160.2
13017.9
12953
12912.9
12878
12808.3
41348.4
16050.8
13899.2
13465.7
13160.8
13018.6
12953
12909.3
12860.9
12795.7
41348.4
16050.8
13899.2
13465.6
13160.2
13017.9
12953
12912.9
12878
12808.3
41348.3
16050.9
13899.3
13465.7
13159.8
13016.9
12950.9
12908.8
12876.8
12831.5
12942.1
12752.5
12621.1
12316
12309
12770.2
12644.1
12534.7
12249.5
11863.1
12741.4
12624.9
12528.6
12280.8
11950
12770.2
12644.1
12534.7
12249.5
11863.1
12942.1
12752.5
12621.1
12316
12309
6885.25
5150
5184.85
5075.77
4805.09
7556.61
5444.21
5353.28
5184.69
4968.12
7733.77
5380.14
5254.53
5108.8
4892.89
7556.61
5444.21
5353.28
5184.69
4968.12
6885.25
5150
5184.85
5075.77
4805.09
3251.83
2540.86
2866.89
3893.14
4243.14
4149.11
3743.9
3314.79
2971.9
2743.63
2599.16
2482.33
2371.49
2268.31
2183.97
2128.16
2095.43
2074.57
2058.49
2044.56
2032.5
2022.4
2014.17
2007.74
2002.88
1999.52
1997.46
1997.14
1999.03
2004.31
2011.67
2023.69
2036.53
2055.64
2073.79
2109.77
2145.69
2215.93
2408.69
3747.92
3616.53
2437.08
2830.17
4016.32
4367.01
4223.12
3778.6
3328.93
2977.42
2746.02
2600.12
2482.71
2372.37
2268.8
2184.12
2128.11
2095.34
2074.49
2058.42
2044.49
2032.43
2022.32
2014.09
2007.66
2002.8
1999.43
1997.36
1997.04
1998.92
2004.2
2011.57
2023.61
2036.43
2055.59
2073.63
2109.82
2145.72
2215.88
2406.81
3739.18
3651.95
2443.16
2759.68
3984.39
4322.58
4195.75
3782.94
3335.34
2979.94
2746.95
2600.49
2482.87
2372.77
2268.97
2184.16
2128.1
2095.32
2074.46
2058.4
2044.47
2032.41
2022.3
2014.07
2007.63
2002.77
1999.4
1997.33
1997.01
1998.89
2004.17
2011.53
2023.58
2036.4
2055.59
2073.59
2109.87
2145.86
2216.21
2406.18
3734.5
3616.53
2437.08
2830.17
4016.32
4367.01
4223.12
3778.6
3328.93
2977.42
2746.02
2600.12
2482.71
2372.37
2268.8
2184.12
2128.11
2095.34
2074.49
2058.42
2044.49
2032.43
2022.32
2014.09
2007.66
2002.8
1999.43
1997.36
1997.04
1998.92
2004.2
2011.57
2023.61
2036.43
2055.59
2073.63
2109.82
2145.72
2215.88
2406.81
3739.18
3251.83
2540.86
2866.89
3893.14
4243.14
4149.11
3743.9
3314.79
2971.9
2743.63
2599.16
2482.33
2371.49
2268.31
2183.97
2128.16
2095.43
2074.57
2058.49
2044.56
2032.5
2022.4
2014.17
2007.74
2002.88
1999.52
1997.46
1997.14
1999.03
2004.31
2011.67
2023.69
2036.53
2055.64
2073.79
2109.77
2145.69
2215.93
2408.69
3747.92
2766.74
2505.06
3001.35
3768.71
4047.75
3950.69
3625.89
3264.07
2947.5
2731.85
2593.96
2478.89
2367.51
2265.31
2182.79
2128.11
2095.72
2074.87
2058.74
2044.8
2032.74
2022.67
2014.46
2008.05
2003.21
1999.87
1997.82
1997.52
1999.41
2004.67
2012.03
2023.97
2036.82
2055.75
2074.28
2109.48
2145.56
2214.63
2414.16
3876.34
2824.34
2597.39
2965.64
3388.31
3629.87
3602.6
3412.21
3137.31
2880.1
2702.38
2579.83
2468.57
2357.92
2258.32
2179.9
2127.92
2096.38
2075.56
2059.33
2045.35
2033.34
2023.32
2015.17
2008.81
2004.01
2000.72
1998.72
1998.46
2000.38
2005.62
2012.93
2024.71
2037.57
2056.23
2075.22
2109.28
2145.13
2210.8
2413.72
3727.6
2832.68
2596.91
2811.92
3173.56
3304.9
3324.36
3201.97
2993.66
2800.06
2663.56
2557.73
2452.03
2344.05
2248.9
2175.78
2127.38
2097.11
2076.43
2060.12
2046.12
2034.16
2024.24
2016.18
2009.9
2005.19
2001.99
2000.06
1999.88
2001.86
2007.06
2014.32
2025.89
2038.77
2057.16
2076.56
2109.28
2144.55
2206.41
2416.68
3680.3
2997.69
2596.9
2728.17
2976.77
3101.45
3098.36
3004.18
2856.11
2721.99
2621.56
2530.25
2430.53
2326.87
2237.92
2170.99
2126.56
2097.77
2077.34
2060.99
2046.99
2035.14
2025.35
2017.42
2011.25
2006.64
2003.58
2001.78
2001.71
2003.78
2008.94
2016.13
2027.47
2040.36
2058.51
2078.17
2109.71
2143.79
2203.69
2424.06
3650.69
3042.76
2523.46
2657.13
2865.39
2930.36
2911.62
2837.29
2740.22
2650.67
2577.9
2498.38
2404.55
2307.47
2226.05
2165.92
2125.55
2098.31
2078.23
2061.92
2047.98
2036.26
2026.64
2018.87
2012.85
2008.39
2005.47
2003.85
2003.95
2006.09
2011.2
2018.31
2029.36
2042.2
2060.09
2079.86
2110.39
2142.76
2202.39
2429.82
3614.53
3018.32
2465.25
2617.17
2758.57
2776.56
2756.42
2705.69
2649.26
2592.29
2537.19
2465.59
2376.99
2287.73
2214.6
2161.23
2124.66
2098.94
2079.28
2063.07
2049.24
2037.7
2028.27
2020.69
2014.86
2010.58
2007.84
2006.41
2006.76
2008.98
2014.05
2021.07
2031.84
2044.59
2062.27
2082.07
2111.94
2142.82
2203.33
2436.73
3581.32
2974.89
2415.68
2578.99
2638.38
2648.16
2635.07
2609.69
2579.59
2542.76
2496.94
2430.02
2347.65
2267.73
2203.55
2156.81
2123.85
2099.64
2080.49
2064.5
2050.87
2039.54
2030.33
2022.96
2017.33
2013.24
2010.66
2009.42
2009.99
2012.23
2017.19
2024.01
2034.39
2046.9
2064.23
2083.91
2113.08
2142.47
2204.31
2440.4
3538.04
2945.38
2367.21
2517.55
2524.69
2555.7
2550.71
2541.4
2525.86
2500.93
2459.57
2395.64
2320.23
2250.15
2194.82
2154.04
2124.29
2101.44
2082.83
2067.13
2053.74
2042.66
2033.68
2026.52
2021.09
2017.18
2014.78
2013.71
2014.51
2016.73
2021.53
2028.1
2038.03
2050.22
2067.12
2086.61
2115.1
2143.6
2206.37
2443.25
3489.19
2921.48
2328.09
2453.43
2464.2
2498.96
2495.76
2492.85
2483.84
2463.03
2422.39
2361.67
2294.58
2234.5
2187.59
2152.2
2125.35
2103.93
2086
2070.73
2057.67
2046.89
2038.15
2031.18
2025.91
2022.14
2019.85
2018.9
2019.81
2021.9
2026.39
2032.55
2041.9
2053.58
2069.93
2089.07
2116.92
2144.62
2208.08
2443.41
3430.92
2910.45
2298.9
2403.88
2417.75
2455.94
2453.67
2454.67
2448.32
2427.55
2386.77
2330.75
2273.24
2223.18
2183.83
2153.4
2129.19
2109.14
2092.04
2077.32
2064.67
2054.18
2045.64
2038.77
2033.56
2029.8
2027.5
2026.51
2027.36
2029.14
2033.14
2038.68
2047.25
2058.25
2073.88
2092.58
2119.76
2147.09
2210.85
2443.04
3367.68
2898.09
2276.5
2365.37
2386.18
2426.7
2423.9
2425.6
2417.91
2394.53
2354.47
2304.74
2256.91
2215.63
2182.52
2156.27
2134.29
2115.6
2099.36
2085.25
2073.02
2062.85
2054.51
2047.78
2042.65
2038.94
2036.67
2035.63
2036.43
2037.88
2041.36
2046.22
2053.94
2064.18
2079.02
2097.21
2123.7
2150.59
2214.31
2441.24
3299.48
2902.6
2267.09
2340.66
2366.01
2405.61
2400.85
2401.12
2390.18
2364.3
2327.34
2285.24
2246.27
2213.06
2186
2162.81
2143.06
2125.76
2110.54
2097.16
2085.43
2075.54
2067.3
2060.52
2055.3
2051.47
2049.11
2047.88
2048.43
2049.41
2052.22
2056.28
2063.02
2072.38
2086.32
2103.95
2129.74
2156.24
2219.88
2441.67
3231.34
2907.72
2264.8
2331.58
2357.07
2391.51
2383.73
2380.77
2366.68
2340.4
2307.5
2272.54
2241.22
2214.59
2191.41
2171.14
2153.08
2136.88
2122.4
2109.56
2098.24
2088.68
2080.7
2074.15
2069.13
2065.46
2063.24
2061.99
2062.44
2063.09
2065.38
2068.76
2074.69
2083.35
2096.73
2114.16
2139.78
2166.47
2230.25
2443.85
3162.76
2915.15
2273.4
2334.47
2358.25
2386
2373.82
2365.91
2348.73
2323.37
2296.38
2268.73
2244.68
2222.53
2202.99
2185.14
2168.77
2153.8
2140.29
2128.19
2117.37
2108.01
2099.95
2093.22
2088.04
2084.25
2081.99
2080.54
2080.74
2080.97
2082.7
2085.39
2090.49
2098.6
2111.52
2129.07
2154.76
2181.66
2246.67
2454.5
3116.74
2919.01
2289.62
2346.53
2364.58
2383.23
2369.08
2357.02
2339.15
2316.32
2295.12
2273.15
2253.4
2234.87
2217.88
2201.77
2186.54
2172.21
2158.88
2146.67
2135.73
2126.71
2119.42
2113.47
2108.86
2105.4
2103.34
2101.89
2102.1
2102.14
2103.57
2105.77
2110.3
2118.07
2130.95
2149.02
2175.34
2203.32
2270.61
2474.12
3095.6
2968.14
2322.85
2374.93
2384.22
2392.62
2377.81
2362.85
2346.12
2326.21
2309
2291.26
2275.44
2259.84
2245.24
2231.09
2217.72
2205.14
2193.46
2182.57
2172.43
2163.51
2155.64
2148.74
2143.15
2138.84
2136.27
2134.25
2133.96
2133.44
2134.33
2135.74
2139.49
2146.87
2159.59
2178.29
2205.44
2234.04
2304.1
2508.71
3137.36
3066.14
2368.14
2411.23
2410.43
2410.14
2392.92
2375.85
2360.76
2343.59
2329.43
2314.53
2301.39
2288.01
2275.79
2264.04
2252.97
2242.09
2231.13
2220.28
2210.04
2201.35
2194
2187.43
2181.39
2175.8
2172
2168.48
2167.29
2165.96
2166.53
2167.65
2171.28
2178.82
2191.87
2211.84
2240.09
2269.5
2341.72
2554.68
3225.83
3330.71
2442.08
2482.14
2467.76
2457.63
2436.45
2417.73
2405.1
2391.92
2381.33
2369.7
2358.63
2346.25
2334.35
2322.49
2311.92
2302.75
2294.91
2287.57
2279.62
2271.26
2262.28
2252.74
2244.84
2238.85
2235.98
2234.02
2233.99
2233.57
2234.63
2236.14
2239.88
2247.69
2262.06
2284.49
2316.49
2348.07
2421.27
2627.44
3466.3
13291.4
3286.32
2876.87
2813.04
2790.71
2759.7
2739.99
2723.88
2710.99
2695.44
2678.96
2660.72
2638.79
2615.72
2589.69
2562.65
2534.54
2508.4
2486.83
2470.45
2461.19
2459.32
2457.74
2463.86
2467.75
2473.4
2475.72
2478.76
2479.25
2479.71
2477.73
2476.78
2477.04
2484.32
2500.93
2534.51
2575.52
2639.06
3364.62
12418.5
167713
13137.2
4401.05
4171.03
4107.88
4085.86
4121.15
4145.81
4183.79
4199.35
4201.62
4191.63
4166.33
4131.37
4086.52
4037.59
3984.09
3931.32
3883.7
3839.49
3803.42
3773.47
3732.52
3704.01
3661
3621.36
3571.03
3519.05
3458.51
3394.79
3324.2
3249.49
3175.65
3109.93
3071.73
3106.02
3174.44
3349.32
11874.2
149680
167713
13137.2
4401.05
4171.03
4107.88
4085.86
4121.15
4145.81
4183.79
4199.35
4201.62
4191.63
4166.33
4131.37
4086.52
4037.59
3984.09
3931.32
3883.7
3839.49
3803.42
3773.47
3732.52
3704.01
3661
3621.36
3571.03
3519.05
3458.51
3394.79
3324.2
3249.49
3175.65
3109.93
3071.73
3106.02
3174.44
3349.32
11874.2
149680
13291.4
3286.32
2876.87
2813.04
2790.71
2759.7
2739.99
2723.88
2710.99
2695.44
2678.96
2660.72
2638.79
2615.72
2589.69
2562.65
2534.54
2508.4
2486.83
2470.45
2461.19
2459.32
2457.74
2463.86
2467.75
2473.4
2475.72
2478.76
2479.25
2479.71
2477.73
2476.78
2477.04
2484.32
2500.93
2534.51
2575.52
2639.06
3364.62
12418.5
3330.71
2442.08
2482.14
2467.76
2457.63
2436.45
2417.73
2405.1
2391.92
2381.33
2369.7
2358.63
2346.25
2334.35
2322.49
2311.92
2302.75
2294.91
2287.57
2279.62
2271.26
2262.28
2252.74
2244.84
2238.85
2235.98
2234.02
2233.99
2233.57
2234.63
2236.14
2239.88
2247.69
2262.06
2284.49
2316.49
2348.07
2421.27
2627.44
3466.3
3066.14
2368.14
2411.23
2410.43
2410.14
2392.92
2375.85
2360.76
2343.59
2329.43
2314.53
2301.39
2288.01
2275.79
2264.04
2252.97
2242.09
2231.13
2220.28
2210.04
2201.35
2194
2187.43
2181.39
2175.8
2172
2168.48
2167.29
2165.96
2166.53
2167.65
2171.28
2178.82
2191.87
2211.84
2240.09
2269.5
2341.72
2554.68
3225.83
2968.14
2322.85
2374.93
2384.22
2392.62
2377.81
2362.85
2346.12
2326.21
2309
2291.26
2275.44
2259.84
2245.24
2231.09
2217.72
2205.14
2193.46
2182.57
2172.43
2163.51
2155.64
2148.74
2143.15
2138.84
2136.27
2134.25
2133.96
2133.44
2134.33
2135.74
2139.49
2146.87
2159.59
2178.29
2205.44
2234.04
2304.1
2508.71
3137.36
2919.01
2289.62
2346.53
2364.58
2383.23
2369.08
2357.02
2339.15
2316.32
2295.12
2273.15
2253.4
2234.87
2217.88
2201.77
2186.54
2172.21
2158.88
2146.67
2135.73
2126.71
2119.42
2113.47
2108.86
2105.4
2103.34
2101.89
2102.1
2102.14
2103.57
2105.77
2110.3
2118.07
2130.95
2149.02
2175.34
2203.32
2270.61
2474.12
3095.6
2915.15
2273.4
2334.47
2358.25
2386
2373.82
2365.91
2348.73
2323.37
2296.38
2268.73
2244.68
2222.53
2202.99
2185.14
2168.77
2153.8
2140.29
2128.19
2117.37
2108.01
2099.95
2093.22
2088.04
2084.25
2081.99
2080.54
2080.74
2080.97
2082.7
2085.39
2090.49
2098.6
2111.52
2129.07
2154.76
2181.66
2246.67
2454.5
3116.74
2907.72
2264.8
2331.58
2357.07
2391.51
2383.73
2380.77
2366.68
2340.4
2307.5
2272.54
2241.22
2214.59
2191.41
2171.14
2153.08
2136.88
2122.4
2109.56
2098.24
2088.68
2080.7
2074.15
2069.13
2065.46
2063.24
2061.99
2062.44
2063.09
2065.38
2068.76
2074.69
2083.35
2096.73
2114.16
2139.78
2166.47
2230.25
2443.85
3162.76
2902.6
2267.09
2340.66
2366.01
2405.61
2400.85
2401.12
2390.18
2364.3
2327.34
2285.24
2246.27
2213.06
2186
2162.81
2143.06
2125.76
2110.54
2097.16
2085.43
2075.54
2067.3
2060.52
2055.3
2051.47
2049.11
2047.88
2048.43
2049.41
2052.22
2056.28
2063.02
2072.38
2086.32
2103.95
2129.74
2156.24
2219.88
2441.67
3231.34
2898.09
2276.5
2365.37
2386.18
2426.7
2423.9
2425.6
2417.91
2394.53
2354.47
2304.74
2256.91
2215.63
2182.52
2156.27
2134.29
2115.6
2099.36
2085.25
2073.02
2062.85
2054.51
2047.78
2042.65
2038.94
2036.67
2035.63
2036.43
2037.88
2041.36
2046.22
2053.94
2064.18
2079.02
2097.21
2123.7
2150.59
2214.31
2441.24
3299.48
2910.45
2298.9
2403.88
2417.75
2455.94
2453.67
2454.67
2448.32
2427.55
2386.77
2330.75
2273.24
2223.18
2183.83
2153.4
2129.19
2109.14
2092.04
2077.32
2064.67
2054.18
2045.64
2038.77
2033.56
2029.8
2027.5
2026.51
2027.36
2029.14
2033.14
2038.68
2047.25
2058.25
2073.88
2092.58
2119.76
2147.09
2210.85
2443.04
3367.68
2921.48
2328.09
2453.43
2464.2
2498.96
2495.76
2492.85
2483.84
2463.03
2422.39
2361.67
2294.58
2234.5
2187.59
2152.2
2125.35
2103.93
2086
2070.73
2057.67
2046.89
2038.15
2031.18
2025.91
2022.14
2019.85
2018.9
2019.81
2021.9
2026.39
2032.55
2041.9
2053.58
2069.93
2089.07
2116.92
2144.62
2208.08
2443.41
3430.92
2945.38
2367.21
2517.55
2524.69
2555.7
2550.71
2541.4
2525.86
2500.93
2459.57
2395.64
2320.23
2250.15
2194.82
2154.04
2124.29
2101.44
2082.83
2067.13
2053.74
2042.66
2033.68
2026.52
2021.09
2017.18
2014.78
2013.71
2014.51
2016.73
2021.53
2028.1
2038.03
2050.22
2067.12
2086.61
2115.1
2143.6
2206.37
2443.25
3489.19
2974.89
2415.68
2578.99
2638.38
2648.16
2635.07
2609.69
2579.59
2542.76
2496.94
2430.02
2347.65
2267.73
2203.55
2156.81
2123.85
2099.64
2080.49
2064.5
2050.87
2039.54
2030.33
2022.96
2017.33
2013.24
2010.66
2009.42
2009.99
2012.23
2017.19
2024.01
2034.39
2046.9
2064.23
2083.91
2113.08
2142.47
2204.31
2440.4
3538.04
3018.32
2465.25
2617.17
2758.57
2776.56
2756.42
2705.69
2649.26
2592.29
2537.19
2465.59
2376.99
2287.73
2214.6
2161.23
2124.66
2098.94
2079.28
2063.07
2049.24
2037.7
2028.27
2020.69
2014.86
2010.58
2007.84
2006.41
2006.76
2008.98
2014.05
2021.07
2031.84
2044.59
2062.27
2082.07
2111.94
2142.82
2203.33
2436.73
3581.32
3042.76
2523.46
2657.13
2865.39
2930.36
2911.62
2837.29
2740.22
2650.67
2577.9
2498.38
2404.55
2307.47
2226.05
2165.92
2125.55
2098.31
2078.23
2061.92
2047.98
2036.26
2026.64
2018.87
2012.85
2008.39
2005.47
2003.85
2003.95
2006.09
2011.2
2018.31
2029.36
2042.2
2060.09
2079.86
2110.39
2142.76
2202.39
2429.82
3614.53
2997.69
2596.9
2728.17
2976.77
3101.45
3098.36
3004.18
2856.11
2721.99
2621.56
2530.25
2430.53
2326.87
2237.92
2170.99
2126.56
2097.77
2077.34
2060.99
2046.99
2035.14
2025.35
2017.42
2011.25
2006.64
2003.58
2001.78
2001.71
2003.78
2008.94
2016.13
2027.47
2040.36
2058.51
2078.17
2109.71
2143.79
2203.69
2424.06
3650.69
2832.68
2596.91
2811.92
3173.56
3304.9
3324.36
3201.97
2993.66
2800.06
2663.56
2557.73
2452.03
2344.05
2248.9
2175.78
2127.38
2097.11
2076.43
2060.12
2046.12
2034.16
2024.24
2016.18
2009.9
2005.19
2001.99
2000.06
1999.88
2001.86
2007.06
2014.32
2025.89
2038.77
2057.16
2076.56
2109.28
2144.55
2206.41
2416.68
3680.3
2824.34
2597.39
2965.64
3388.31
3629.87
3602.6
3412.21
3137.31
2880.1
2702.38
2579.83
2468.57
2357.92
2258.32
2179.9
2127.92
2096.38
2075.56
2059.33
2045.35
2033.34
2023.32
2015.17
2008.81
2004.01
2000.72
1998.72
1998.46
2000.38
2005.62
2012.93
2024.71
2037.57
2056.23
2075.22
2109.28
2145.13
2210.8
2413.72
3727.6
2766.74
2505.06
3001.35
3768.71
4047.75
3950.69
3625.89
3264.07
2947.5
2731.85
2593.96
2478.89
2367.51
2265.31
2182.79
2128.11
2095.72
2074.87
2058.74
2044.8
2032.74
2022.67
2014.46
2008.05
2003.21
1999.87
1997.82
1997.52
1999.41
2004.67
2012.03
2023.97
2036.82
2055.75
2074.28
2109.48
2145.56
2214.63
2414.16
3876.34
)
;

boundaryField
{
    inlet
    {
        type            calculated;
        value           uniform 14000.1;
    }
    outlet
    {
        type            calculated;
        value           nonuniform List<scalar> 
165
(
2580.98
2719.69
2942.87
3023.89
3059.56
3094.85
3143.4
3195.65
3237.1
3264.88
3282.81
3287.44
3286.4
3276.72
3257.34
3223.08
3177.71
3127.41
3941.17
4110.48
4110.48
3873.53
3215.32
3271.58
3318.84
3358.11
3387.8
3414.62
3433.48
3451.27
3467.96
3484.11
3499.65
3515.15
3529.98
3543.46
3554.87
3563.85
3569.79
3573.23
3577.78
3583.25
3584.74
3581.26
3574.73
3564.7
3552.43
3540.19
3525.64
3510.22
3492.37
3473.1
3449.92
3419.64
3379.66
3329.2
3273.02
3217.79
3921.33
4126.77
3614.65
3632.89
3610.36
3592.39
3580.68
3570.49
3559.02
3547.36
3533.36
3518.82
3501.7
3482.4
3460.42
3429.13
3389.99
3343.17
3287.6
3220.11
3922.93
4126.77
3641.97
3630.9
3626.68
3630.9
3641.97
4126.77
3922.93
3220.11
3287.6
3343.17
3389.99
3429.13
3460.42
3482.4
3501.7
3518.82
3533.36
3547.36
3559.02
3570.49
3580.68
3592.39
3610.36
3632.89
3614.65
4110.48
3873.53
3215.32
3271.58
3318.84
3358.11
3387.8
3414.62
3433.48
3451.27
3467.96
3484.11
3499.65
3515.15
3529.98
3543.46
3554.87
3563.85
3569.79
3573.23
3577.78
3583.25
3584.74
3581.26
3574.73
3564.7
3552.43
3540.19
3525.64
3510.22
3492.37
3473.1
3449.92
3419.64
3379.66
3329.2
3273.02
3217.79
3921.33
4126.77
4110.48
3941.17
3127.41
3177.71
3223.08
3257.34
3276.72
3286.4
3287.44
3282.81
3264.88
3237.1
3195.65
3143.4
3094.85
3059.56
3023.89
2942.87
2719.69
2580.98
)
;
    }
    obstacle
    {
        type            calculated;
        value           nonuniform List<scalar> 
40
(
41348.3
16050.9
13899.3
13465.7
13159.8
13016.9
12950.9
12908.8
12876.8
12831.5
41348.3
16050.9
13899.3
13465.7
13159.8
13016.9
12950.9
12908.8
12876.8
12831.5
12942.1
12752.5
12621.1
12316
12309
12942.1
12752.5
12621.1
12316
12309
6885.25
5150
5184.85
5075.77
4805.09
6885.25
5150
5184.85
5075.77
4805.09
)
;
    }
    empty
    {
        type            empty;
    }
}


// ************************************************************************* //
