/*--------------------------------*- C++ -*----------------------------------*\
| =========                 |                                                 |
| \\      /  F ield         | OpenFOAM: The Open Source CFD Toolbox           |
|  \\    /   O peration     | Version:  v1912                                 |
|   \\  /    A nd           | Website:  www.openfoam.com                      |
|    \\/     M anipulation  |                                                 |
\*---------------------------------------------------------------------------*/
FoamFile
{
    version     2.0;
    format      ascii;
    class       volScalarField;
    location    "5.58";
    object      T;
}
// * * * * * * * * * * * * * * * * * * * * * * * * * * * * * * * * * * * * * //

dimensions      [0 0 0 1 0 0 0];


internalField   nonuniform List<scalar> 
1900
(
1.1747
0.919479
0.934152
0.955567
0.966611
0.971451
0.973079
0.973397
0.973022
0.971252
1.1747
0.919479
0.934147
0.955565
0.966627
0.971483
0.97314
0.973521
0.97323
0.97086
1.1747
0.919479
0.934146
0.955569
0.966651
0.971507
0.97312
0.973424
0.972785
0.970587
1.1747
0.919479
0.934147
0.955565
0.966627
0.971483
0.97314
0.973521
0.97323
0.97086
1.1747
0.919479
0.934152
0.955567
0.966611
0.971451
0.973079
0.973397
0.973022
0.971252
0.973511
0.967347
0.967439
0.970226
1.00069
0.968425
0.963711
0.963023
0.964628
0.983186
0.967659
0.962939
0.961797
0.964214
0.982889
0.968425
0.963711
0.963023
0.964628
0.983186
0.973511
0.967347
0.967439
0.970226
1.00069
0.80617
0.727199
0.721015
0.704791
0.677508
0.826336
0.741046
0.729743
0.711173
0.687495
0.826255
0.735292
0.723634
0.706858
0.683309
0.826336
0.741046
0.729743
0.711173
0.687495
0.80617
0.727199
0.721015
0.704791
0.677508
0.57884
0.502843
0.517727
0.557814
0.591624
0.605828
0.593274
0.56528
0.538498
0.521025
0.509926
0.500648
0.491567
0.48288
0.475603
0.470698
0.467789
0.465921
0.464473
0.463213
0.462117
0.461196
0.46044
0.459846
0.459394
0.45908
0.458885
0.458856
0.459029
0.459516
0.460194
0.461299
0.462474
0.46422
0.465794
0.468939
0.47328
0.481521
0.45972
0.384409
0.593777
0.48867
0.505953
0.555319
0.594977
0.60876
0.595541
0.566581
0.538945
0.521187
0.509994
0.500676
0.491639
0.482922
0.47562
0.470697
0.467783
0.465915
0.464469
0.463209
0.462113
0.461191
0.460435
0.459841
0.459389
0.459073
0.458879
0.458848
0.459022
0.459509
0.460186
0.461293
0.462467
0.464217
0.465781
0.468943
0.473293
0.481589
0.460117
0.385581
0.592842
0.485951
0.496709
0.549929
0.591449
0.606762
0.595597
0.567159
0.539156
0.521251
0.51002
0.500688
0.491671
0.482936
0.475624
0.470697
0.467782
0.465914
0.464467
0.463208
0.462112
0.46119
0.460433
0.459839
0.459386
0.459071
0.458876
0.458846
0.459019
0.459506
0.460183
0.46129
0.462465
0.464216
0.465778
0.468948
0.473309
0.481654
0.460333
0.386029
0.593777
0.48867
0.505953
0.555319
0.594977
0.60876
0.595541
0.566581
0.538945
0.521187
0.509994
0.500676
0.491639
0.482922
0.47562
0.470697
0.467783
0.465915
0.464469
0.463209
0.462113
0.461191
0.460435
0.459841
0.459389
0.459073
0.458879
0.458848
0.459022
0.459509
0.460186
0.461293
0.462467
0.464217
0.465781
0.468943
0.473293
0.481589
0.460117
0.385581
0.57884
0.502843
0.517727
0.557814
0.591624
0.605828
0.593274
0.56528
0.538498
0.521025
0.509926
0.500648
0.491567
0.48288
0.475603
0.470698
0.467789
0.465921
0.464473
0.463213
0.462117
0.461196
0.46044
0.459846
0.459394
0.45908
0.458885
0.458856
0.459029
0.459516
0.460194
0.461299
0.462474
0.46422
0.465794
0.468939
0.47328
0.481521
0.45972
0.384409
0.542431
0.50744
0.532082
0.563447
0.591342
0.5977
0.585378
0.560743
0.536578
0.520177
0.509531
0.500367
0.491232
0.482615
0.47549
0.470683
0.467804
0.465937
0.464485
0.463224
0.462129
0.46121
0.460457
0.459864
0.459414
0.459101
0.458908
0.45888
0.459054
0.45954
0.460216
0.461313
0.46249
0.464218
0.465835
0.468921
0.473233
0.481278
0.459507
0.387314
0.514766
0.501652
0.524021
0.5543
0.578819
0.581089
0.570268
0.550428
0.53142
0.51797
0.508427
0.499522
0.490425
0.482007
0.475224
0.470653
0.46785
0.465986
0.464526
0.463262
0.462171
0.461257
0.460509
0.459922
0.459476
0.459167
0.458978
0.458954
0.45913
0.459613
0.460285
0.461367
0.462544
0.464249
0.465916
0.468915
0.473136
0.480807
0.460313
0.38537
0.475727
0.492699
0.520595
0.552209
0.563813
0.564374
0.554623
0.539437
0.525373
0.514991
0.506673
0.498171
0.48926
0.481193
0.474857
0.4706
0.46791
0.466059
0.464592
0.463326
0.462241
0.461336
0.460597
0.460017
0.459578
0.459278
0.459097
0.459079
0.459261
0.45974
0.460407
0.461469
0.462648
0.464326
0.466038
0.468927
0.47303
0.48032
0.46137
0.387775
0.462981
0.498694
0.524138
0.543755
0.550451
0.548117
0.539974
0.529293
0.519445
0.511723
0.504476
0.496414
0.487817
0.480248
0.474437
0.470527
0.467969
0.466142
0.464672
0.463407
0.462331
0.461438
0.460711
0.460142
0.459713
0.459425
0.459255
0.459247
0.459438
0.459913
0.460574
0.461614
0.462793
0.464449
0.466186
0.468977
0.472931
0.480054
0.462301
0.389714
0.457584
0.500614
0.522049
0.534601
0.536727
0.53393
0.527797
0.520721
0.513958
0.508281
0.501915
0.49428
0.486181
0.479226
0.473996
0.470441
0.468022
0.466227
0.46476
0.463501
0.462438
0.461561
0.460848
0.460293
0.459878
0.459603
0.459449
0.459457
0.459654
0.460124
0.460777
0.46179
0.462964
0.464596
0.466343
0.469044
0.472831
0.479975
0.463109
0.390989
0.452367
0.498516
0.516844
0.524187
0.524081
0.522057
0.518028
0.513805
0.509396
0.505038
0.499265
0.492002
0.48451
0.478239
0.473588
0.470367
0.468083
0.466326
0.464869
0.463621
0.462574
0.461715
0.46102
0.460482
0.460084
0.459825
0.459689
0.459721
0.459924
0.46039
0.461034
0.462022
0.463187
0.464798
0.466547
0.469185
0.472848
0.480117
0.46388
0.392104
0.445379
0.493165
0.511203
0.513226
0.513734
0.512765
0.510729
0.508375
0.50547
0.501804
0.496367
0.489558
0.482806
0.477282
0.473202
0.470298
0.468149
0.466439
0.465003
0.463773
0.462747
0.461908
0.461233
0.460713
0.460331
0.460088
0.459969
0.460021
0.460226
0.460681
0.461307
0.462258
0.4634
0.464979
0.466714
0.469283
0.472824
0.480337
0.464873
0.393368
0.438097
0.486347
0.505339
0.503985
0.506485
0.506171
0.505355
0.504089
0.502109
0.498775
0.493539
0.487257
0.481303
0.476525
0.472962
0.470339
0.468313
0.466653
0.465245
0.464038
0.463035
0.462218
0.461562
0.461061
0.460696
0.460469
0.460366
0.460438
0.460642
0.461082
0.461684
0.462593
0.463705
0.465245
0.46696
0.469461
0.472939
0.48064
0.465714
0.394661
0.432487
0.481579
0.499694
0.499089
0.502065
0.501805
0.50144
0.500695
0.499046
0.495743
0.490725
0.48509
0.479958
0.475896
0.4728
0.470435
0.468537
0.46694
0.465572
0.464395
0.46342
0.462626
0.461988
0.461503
0.461151
0.460934
0.460841
0.460925
0.461116
0.461528
0.462091
0.462946
0.464011
0.4655
0.467181
0.469619
0.473035
0.480915
0.466784
0.396225
0.428808
0.478031
0.495359
0.49545
0.498701
0.498402
0.498347
0.497818
0.496151
0.492807
0.488137
0.483275
0.478981
0.475569
0.472907
0.470778
0.469004
0.467484
0.466168
0.465029
0.464083
0.463309
0.462682
0.462202
0.461852
0.461635
0.461538
0.461616
0.461778
0.462144
0.462651
0.463434
0.464436
0.465857
0.467498
0.469871
0.473262
0.481247
0.467798
0.397862
0.426466
0.475295
0.491995
0.493064
0.496409
0.495976
0.495978
0.495343
0.493442
0.490126
0.485948
0.48188
0.478328
0.475454
0.47316
0.47123
0.469579
0.468139
0.466879
0.465782
0.464867
0.464113
0.4635
0.463029
0.462684
0.46247
0.46237
0.462443
0.462575
0.462892
0.463336
0.464041
0.464972
0.466321
0.467913
0.47022
0.473569
0.48162
0.468969
0.399807
0.425865
0.473679
0.489774
0.491471
0.494704
0.494077
0.493963
0.493067
0.490939
0.487855
0.484296
0.480968
0.478106
0.475759
0.473737
0.472007
0.470485
0.469138
0.467948
0.4669
0.466013
0.465271
0.464656
0.464178
0.463823
0.463601
0.463484
0.463534
0.463623
0.46388
0.464249
0.464864
0.465713
0.466977
0.468516
0.470755
0.474063
0.482159
0.470355
0.402023
0.425999
0.472993
0.488828
0.490727
0.493519
0.492649
0.492305
0.491142
0.488956
0.48619
0.483216
0.480535
0.47824
0.476233
0.47447
0.472892
0.471471
0.470195
0.469058
0.468049
0.467196
0.46648
0.465887
0.465429
0.46509
0.464882
0.464763
0.464805
0.464863
0.465072
0.465379
0.465918
0.466703
0.467912
0.469429
0.471644
0.474959
0.483101
0.472019
0.404577
0.427258
0.473568
0.48899
0.490804
0.493032
0.491817
0.491089
0.489661
0.48753
0.485249
0.482893
0.480837
0.478934
0.477248
0.475701
0.474278
0.472972
0.471788
0.470723
0.469765
0.468933
0.468214
0.467608
0.467138
0.46679
0.466579
0.466442
0.466462
0.466483
0.46664
0.466884
0.467346
0.468077
0.469239
0.47076
0.472969
0.476294
0.484583
0.474334
0.408268
0.4298
0.475
0.489848
0.491263
0.492734
0.491392
0.49034
0.488844
0.486914
0.485122
0.483252
0.481561
0.479971
0.478509
0.477118
0.475799
0.474552
0.473384
0.472306
0.471337
0.470541
0.469899
0.469373
0.46896
0.468645
0.468452
0.468314
0.468332
0.468336
0.468465
0.468665
0.469073
0.469772
0.470922
0.472482
0.474729
0.478138
0.486697
0.47727
0.412982
0.434369
0.477552
0.491993
0.492806
0.493472
0.492103
0.490822
0.489422
0.487734
0.486273
0.484756
0.483407
0.482076
0.480831
0.479622
0.478473
0.477383
0.476356
0.475388
0.474486
0.473708
0.473037
0.472448
0.471963
0.471578
0.471338
0.471146
0.471117
0.471066
0.471144
0.471269
0.471603
0.472259
0.473385
0.474981
0.477276
0.480744
0.48961
0.480669
0.418765
0.44057
0.481404
0.495406
0.495523
0.495392
0.493895
0.492471
0.491269
0.489874
0.488731
0.487509
0.48643
0.485315
0.484294
0.483308
0.482389
0.4815
0.480612
0.479727
0.478871
0.478127
0.477478
0.476871
0.476309
0.475799
0.475468
0.475162
0.47508
0.474969
0.475028
0.475129
0.475451
0.476113
0.477258
0.478953
0.48135
0.484928
0.494087
0.485499
0.425844
0.447656
0.489005
0.503875
0.502466
0.501266
0.49937
0.497833
0.496864
0.495891
0.4951
0.494196
0.493279
0.492218
0.491168
0.49012
0.489223
0.488523
0.488018
0.4876
0.487088
0.486392
0.485494
0.484513
0.483757
0.483276
0.483154
0.483132
0.483207
0.483303
0.483499
0.48372
0.48411
0.484839
0.486141
0.488115
0.490914
0.494825
0.504219
0.494471
0.434769
0.355226
0.468918
0.50036
0.496124
0.493975
0.490232
0.487685
0.485204
0.483286
0.481425
0.479713
0.477946
0.476209
0.474453
0.472708
0.471037
0.469481
0.468119
0.467106
0.46646
0.465736
0.465034
0.464754
0.465018
0.465478
0.466129
0.467029
0.467737
0.46874
0.469726
0.47086
0.47216
0.473748
0.476005
0.478914
0.482387
0.486937
0.495116
0.470895
0.356877
0.340594
0.361428
0.435417
0.427929
0.421835
0.416903
0.413249
0.410003
0.407751
0.40565
0.403698
0.401826
0.400042
0.398277
0.396605
0.395095
0.393827
0.392835
0.392181
0.391804
0.391306
0.390708
0.390545
0.390925
0.39164
0.392742
0.394098
0.395461
0.397092
0.398836
0.400875
0.4031
0.405808
0.409402
0.414245
0.420523
0.427741
0.435083
0.357023
0.339249
0.340594
0.361428
0.435417
0.427929
0.421835
0.416903
0.413249
0.410003
0.407751
0.40565
0.403698
0.401826
0.400042
0.398277
0.396605
0.395095
0.393827
0.392835
0.392181
0.391804
0.391306
0.390708
0.390545
0.390925
0.39164
0.392742
0.394098
0.395461
0.397092
0.398836
0.400875
0.4031
0.405808
0.409402
0.414245
0.420523
0.427741
0.435083
0.357023
0.339249
0.355226
0.468918
0.50036
0.496124
0.493975
0.490232
0.487685
0.485204
0.483286
0.481425
0.479713
0.477946
0.476209
0.474453
0.472708
0.471037
0.469481
0.468119
0.467106
0.46646
0.465736
0.465034
0.464754
0.465018
0.465478
0.466129
0.467029
0.467737
0.46874
0.469726
0.47086
0.47216
0.473748
0.476005
0.478914
0.482387
0.486937
0.495116
0.470895
0.356877
0.447656
0.489005
0.503875
0.502466
0.501266
0.49937
0.497833
0.496864
0.495891
0.4951
0.494196
0.493279
0.492218
0.491168
0.49012
0.489223
0.488523
0.488018
0.4876
0.487088
0.486392
0.485494
0.484513
0.483757
0.483276
0.483154
0.483132
0.483207
0.483303
0.483499
0.48372
0.48411
0.484839
0.486141
0.488115
0.490914
0.494825
0.504219
0.494471
0.434769
0.44057
0.481404
0.495406
0.495523
0.495392
0.493895
0.492471
0.491269
0.489874
0.488731
0.487509
0.48643
0.485315
0.484294
0.483308
0.482389
0.4815
0.480612
0.479727
0.478871
0.478127
0.477478
0.476871
0.476309
0.475799
0.475468
0.475162
0.47508
0.474969
0.475028
0.475129
0.475451
0.476113
0.477258
0.478953
0.48135
0.484928
0.494087
0.485499
0.425844
0.434369
0.477552
0.491993
0.492806
0.493472
0.492103
0.490822
0.489422
0.487734
0.486273
0.484756
0.483407
0.482076
0.480831
0.479622
0.478473
0.477383
0.476356
0.475388
0.474486
0.473708
0.473037
0.472448
0.471963
0.471578
0.471338
0.471146
0.471117
0.471066
0.471144
0.471269
0.471603
0.472259
0.473385
0.474981
0.477276
0.480744
0.48961
0.480669
0.418765
0.4298
0.475
0.489848
0.491263
0.492734
0.491392
0.49034
0.488844
0.486914
0.485122
0.483252
0.481561
0.479971
0.478509
0.477118
0.475799
0.474552
0.473384
0.472306
0.471337
0.470541
0.469899
0.469373
0.46896
0.468645
0.468452
0.468314
0.468332
0.468336
0.468465
0.468665
0.469073
0.469772
0.470922
0.472482
0.474729
0.478138
0.486697
0.47727
0.412982
0.427258
0.473568
0.48899
0.490804
0.493032
0.491817
0.491089
0.489661
0.48753
0.485249
0.482893
0.480837
0.478934
0.477248
0.475701
0.474278
0.472972
0.471788
0.470723
0.469765
0.468933
0.468214
0.467608
0.467138
0.46679
0.466579
0.466442
0.466462
0.466483
0.46664
0.466884
0.467346
0.468077
0.469239
0.47076
0.472969
0.476294
0.484583
0.474334
0.408268
0.425999
0.472993
0.488828
0.490727
0.493519
0.492649
0.492305
0.491142
0.488956
0.48619
0.483216
0.480535
0.47824
0.476233
0.47447
0.472892
0.471471
0.470195
0.469058
0.468049
0.467196
0.46648
0.465887
0.465429
0.46509
0.464882
0.464763
0.464805
0.464863
0.465072
0.465379
0.465918
0.466703
0.467912
0.469429
0.471644
0.474959
0.483101
0.472019
0.404577
0.425865
0.473679
0.489774
0.491471
0.494704
0.494077
0.493963
0.493067
0.490939
0.487855
0.484296
0.480968
0.478106
0.475759
0.473737
0.472007
0.470485
0.469138
0.467948
0.4669
0.466013
0.465271
0.464656
0.464178
0.463823
0.463601
0.463484
0.463534
0.463623
0.46388
0.464249
0.464864
0.465713
0.466977
0.468516
0.470755
0.474063
0.482159
0.470355
0.402023
0.426466
0.475295
0.491995
0.493064
0.496409
0.495976
0.495978
0.495343
0.493442
0.490126
0.485948
0.48188
0.478328
0.475454
0.47316
0.47123
0.469579
0.468139
0.466879
0.465782
0.464867
0.464113
0.4635
0.463029
0.462684
0.46247
0.46237
0.462443
0.462575
0.462892
0.463336
0.464041
0.464972
0.466321
0.467913
0.47022
0.473569
0.48162
0.468969
0.399807
0.428808
0.478031
0.495359
0.49545
0.498701
0.498402
0.498347
0.497818
0.496151
0.492807
0.488137
0.483275
0.478981
0.475569
0.472907
0.470778
0.469004
0.467484
0.466168
0.465029
0.464083
0.463309
0.462682
0.462202
0.461852
0.461635
0.461538
0.461616
0.461778
0.462144
0.462651
0.463434
0.464436
0.465857
0.467498
0.469871
0.473262
0.481247
0.467798
0.397862
0.432487
0.481579
0.499694
0.499089
0.502065
0.501805
0.50144
0.500695
0.499046
0.495743
0.490725
0.48509
0.479958
0.475896
0.4728
0.470435
0.468537
0.46694
0.465572
0.464395
0.46342
0.462626
0.461988
0.461503
0.461151
0.460934
0.460841
0.460925
0.461116
0.461528
0.462091
0.462946
0.464011
0.4655
0.467181
0.469619
0.473035
0.480915
0.466784
0.396225
0.438097
0.486347
0.505339
0.503985
0.506485
0.506171
0.505355
0.504089
0.502109
0.498775
0.493539
0.487257
0.481303
0.476525
0.472962
0.470339
0.468313
0.466653
0.465245
0.464038
0.463035
0.462218
0.461562
0.461061
0.460696
0.460469
0.460366
0.460438
0.460642
0.461082
0.461684
0.462593
0.463705
0.465245
0.46696
0.469461
0.472939
0.48064
0.465714
0.394661
0.445379
0.493165
0.511203
0.513226
0.513734
0.512765
0.510729
0.508375
0.50547
0.501804
0.496367
0.489558
0.482806
0.477282
0.473202
0.470298
0.468149
0.466439
0.465003
0.463773
0.462747
0.461908
0.461233
0.460713
0.460331
0.460088
0.459969
0.460021
0.460226
0.460681
0.461307
0.462258
0.4634
0.464979
0.466714
0.469283
0.472824
0.480337
0.464873
0.393368
0.452367
0.498516
0.516844
0.524187
0.524081
0.522057
0.518028
0.513805
0.509396
0.505038
0.499265
0.492002
0.48451
0.478239
0.473588
0.470367
0.468083
0.466326
0.464869
0.463621
0.462574
0.461715
0.46102
0.460482
0.460084
0.459825
0.459689
0.459721
0.459924
0.46039
0.461034
0.462022
0.463187
0.464798
0.466547
0.469185
0.472848
0.480117
0.46388
0.392104
0.457584
0.500614
0.522049
0.534601
0.536727
0.53393
0.527797
0.520721
0.513958
0.508281
0.501915
0.49428
0.486181
0.479226
0.473996
0.470441
0.468022
0.466227
0.46476
0.463501
0.462438
0.461561
0.460848
0.460293
0.459878
0.459603
0.459449
0.459457
0.459654
0.460124
0.460777
0.46179
0.462964
0.464596
0.466343
0.469044
0.472831
0.479975
0.463109
0.390989
0.462981
0.498694
0.524138
0.543755
0.550451
0.548117
0.539974
0.529293
0.519445
0.511723
0.504476
0.496414
0.487817
0.480248
0.474437
0.470527
0.467969
0.466142
0.464672
0.463407
0.462331
0.461438
0.460711
0.460142
0.459713
0.459425
0.459255
0.459247
0.459438
0.459913
0.460574
0.461614
0.462793
0.464449
0.466186
0.468977
0.472931
0.480054
0.462301
0.389714
0.475727
0.492699
0.520595
0.552209
0.563813
0.564374
0.554623
0.539437
0.525373
0.514991
0.506673
0.498171
0.48926
0.481193
0.474857
0.4706
0.46791
0.466059
0.464592
0.463326
0.462241
0.461336
0.460597
0.460017
0.459578
0.459278
0.459097
0.459079
0.459261
0.45974
0.460407
0.461469
0.462648
0.464326
0.466038
0.468927
0.47303
0.48032
0.46137
0.387775
0.514766
0.501652
0.524021
0.5543
0.578819
0.581089
0.570268
0.550428
0.53142
0.51797
0.508427
0.499522
0.490425
0.482007
0.475224
0.470653
0.46785
0.465986
0.464526
0.463262
0.462171
0.461257
0.460509
0.459922
0.459476
0.459167
0.458978
0.458954
0.45913
0.459613
0.460285
0.461367
0.462544
0.464249
0.465916
0.468915
0.473136
0.480807
0.460313
0.38537
0.542431
0.50744
0.532082
0.563447
0.591342
0.5977
0.585378
0.560743
0.536578
0.520177
0.509531
0.500367
0.491232
0.482615
0.47549
0.470683
0.467804
0.465937
0.464485
0.463224
0.462129
0.46121
0.460457
0.459864
0.459414
0.459101
0.458908
0.45888
0.459054
0.45954
0.460216
0.461313
0.46249
0.464218
0.465835
0.468921
0.473233
0.481278
0.459507
0.387314
)
;

boundaryField
{
    inlet
    {
        type            fixedValue;
        value           uniform 1;
    }
    outlet
    {
        type            zeroGradient;
    }
    obstacle
    {
        type            zeroGradient;
    }
    empty
    {
        type            empty;
    }
}


// ************************************************************************* //
