/*--------------------------------*- C++ -*----------------------------------*\
| =========                 |                                                 |
| \\      /  F ield         | OpenFOAM: The Open Source CFD Toolbox           |
|  \\    /   O peration     | Version:  v1912                                 |
|   \\  /    A nd           | Website:  www.openfoam.com                      |
|    \\/     M anipulation  |                                                 |
\*---------------------------------------------------------------------------*/
FoamFile
{
    version     2.0;
    format      ascii;
    class       vectorField;
    location    "0.00034/lagrangian/dsmc";
    object      U;
}
// * * * * * * * * * * * * * * * * * * * * * * * * * * * * * * * * * * * * * //


13102
(
(701.327909 233.1423606 448.1379673)
(-1.788366074 -79.56473243 -290.6352436)
(463.4002481 779.867706 94.05502859)
(346.6249777 798.758245 -212.0088954)
(659.6257962 -178.3580542 -151.1070963)
(-363.9346922 -374.1816154 -59.95546111)
(-149.1279968 29.25417006 -755.0004137)
(267.0385065 258.9425987 -333.8938868)
(160.9797188 -222.633285 -152.7661949)
(-249.814916 10.53432781 -422.8375101)
(891.2789102 -564.6880695 -136.1417272)
(133.614774 587.3627304 489.5811995)
(-72.2022585 574.7524931 281.0341371)
(-703.8336541 -21.42287419 -585.4023863)
(-54.70596837 937.4174259 -384.495886)
(200.5623389 454.3140741 -1074.29616)
(132.7705491 169.5476877 -1067.391655)
(343.9064385 -84.48420481 1000.871777)
(554.1954689 -368.6283996 241.5105559)
(456.4511596 149.6256634 -33.68730192)
(-637.8264957 -172.42762 542.0099182)
(171.7274552 146.9281817 -152.4745304)
(484.4279054 -86.93477529 123.3472024)
(-534.9728354 50.61780835 -150.2175239)
(-532.0749047 -185.588665 -367.5771644)
(1274.117323 282.9633169 412.6896552)
(86.30939453 694.6309198 687.769241)
(1398.130619 420.0790833 76.64093625)
(-146.3485633 -173.3657727 -237.5102037)
(-451.1814609 587.8705786 -562.6757417)
(274.3333563 -644.1093404 -867.2381016)
(836.3413106 -52.28634502 168.4321374)
(690.459659 -304.9954652 -460.4316507)
(40.92618905 -265.6031043 455.5121566)
(594.648375 236.0275384 -360.5231066)
(715.2470224 -590.2753272 -248.9068305)
(342.7685656 841.057833 -69.04168395)
(-162.6983536 388.5836773 -366.2041612)
(-29.85158025 -387.6609792 -344.8704296)
(1250.41794 -118.7190959 -437.1098247)
(547.5282106 24.01565465 284.3799254)
(1620.505687 206.2924529 193.0467785)
(34.16948314 -2.450705975 6.51020897)
(384.4051519 -970.8661598 883.2477563)
(340.7648208 915.1254585 335.5891276)
(813.4039986 884.4498892 246.0930893)
(768.5591783 -320.239957 -726.4109412)
(423.6714516 924.9758546 1.138841806)
(-433.3865747 25.91453757 -166.4576971)
(887.0695949 -440.5799304 517.6819546)
(910.9167613 345.9290414 -106.0182465)
(1343.973385 -77.06995719 -83.52626899)
(839.4046317 450.6042723 -341.8781065)
(465.9985571 -37.44388131 156.0878174)
(683.2312356 -563.5547376 -579.3417647)
(583.2145079 -1250.101867 -387.8602841)
(379.8012821 564.9284059 -450.4236188)
(612.361264 804.9372446 364.9724085)
(53.09331378 -474.7196921 -682.4528462)
(-334.7388969 155.0156017 -154.1524536)
(12.93610849 16.72468396 255.134451)
(-10.54999387 638.3465732 60.21099919)
(303.0250906 128.0235189 -454.7285053)
(-1194.945539 -331.6874265 -105.6991805)
(-312.2847433 -627.9087123 277.5537122)
(70.88395584 211.7008498 -137.0854544)
(93.74930937 -766.4138975 36.15122766)
(788.9777975 -363.8623188 405.4039538)
(79.6221141 87.58338099 -489.7801199)
(799.5473729 411.0315723 203.1072385)
(226.6346828 229.6683925 -8.975177963)
(682.4034601 -1100.753405 158.8572111)
(579.8535343 355.7218517 108.9276923)
(1134.006485 -575.1529621 395.5736483)
(272.9384804 341.3154289 -48.23106632)
(-234.8684261 -42.5864759 -19.04468035)
(-145.6922606 -562.6704435 -165.6506684)
(-845.5114808 152.8463456 -391.6981664)
(804.0974178 478.6938311 -168.9544371)
(1261.245842 282.5942697 -134.2745634)
(114.8180949 -537.5596121 -152.6513972)
(-298.0231653 -760.6139547 55.25065376)
(692.1640064 -722.733862 -220.2916058)
(-602.3872358 264.0594843 -71.16504327)
(182.6517037 716.1932232 382.3062175)
(18.21942719 -157.4118989 -211.5468936)
(1200.016621 248.4875912 -745.7173281)
(-163.2300417 210.142448 12.07156733)
(2204.964967 60.93565146 215.24155)
(644.0711249 -755.4241767 -248.0700553)
(-458.3423943 -448.5665432 -20.6879715)
(625.6756606 435.8418019 190.881995)
(437.4526328 -57.72363495 -373.7997069)
(632.4984567 201.8767859 115.9598848)
(658.1963444 542.3875842 -442.1755054)
(721.3634456 21.43092516 385.7146241)
(-603.1803399 27.20795053 -776.575275)
(261.6990579 934.0690732 -115.3401322)
(-197.5223758 -426.875252 -642.7693528)
(1454.001364 155.952821 650.382988)
(40.80645555 51.25243648 433.0126576)
(-581.2529555 111.8108601 87.06061613)
(804.581024 304.0011882 193.1574286)
(323.3266859 881.4400989 507.0733946)
(1135.734824 535.5830016 -252.5534777)
(530.3276456 -333.883013 -81.06287911)
(297.5653899 -364.7309077 263.4363415)
(753.942004 -310.2935989 522.1171432)
(415.6552088 -904.484476 13.49834294)
(49.94755891 -602.0211132 -166.2911432)
(197.0619285 -318.3015821 135.275042)
(348.807303 -231.6677886 -7.156756783)
(1643.87501 71.58352593 -578.9000124)
(504.5923293 1271.239478 -1138.280389)
(526.7004451 801.9089278 978.7041578)
(136.8456778 780.418117 111.4063344)
(727.2270556 -133.2526726 -330.4072569)
(-679.7227355 -160.82509 527.5906726)
(-276.4483493 236.7505087 -548.7432253)
(-36.06445585 384.5482382 -869.3041128)
(144.030884 179.4538369 121.2512727)
(782.4932464 -365.0989382 772.4432484)
(314.4221442 257.647908 239.2922568)
(1486.163548 328.3954399 451.6541782)
(175.7873399 -350.5649573 -547.8865619)
(615.4085471 -400.0970536 -110.4147756)
(-1166.620535 -565.8959353 -795.4358711)
(37.23284707 663.2706146 -67.88588342)
(895.1488551 -401.6450055 -153.107724)
(729.4679211 -124.6916293 -525.8756338)
(214.8895829 -267.1868856 -583.7616287)
(220.3845069 669.144304 -595.3070108)
(954.7880549 -134.5734991 -135.8591117)
(97.64731152 489.8105857 517.2756238)
(180.2551035 16.11790034 104.0956759)
(-77.75211846 435.1913688 892.125305)
(-67.77721838 -193.1569367 -124.5397479)
(-4.637295707 788.3464043 -156.3992502)
(406.5671997 100.1548432 -298.5869389)
(369.4472527 43.81446217 -446.9463595)
(-391.6238147 -607.2942059 -546.6203393)
(1108.073919 268.735093 285.1647716)
(759.5975912 195.3420935 -402.9700743)
(191.3653686 672.2962383 -318.5360826)
(178.8411158 -232.3501101 -873.9147856)
(347.4239742 175.0123341 162.9635366)
(73.05357537 -277.9449009 667.8599717)
(612.0023444 459.8200245 364.2495851)
(310.3375273 -699.8005457 350.0887121)
(8.191001186 -584.3596573 -1219.026946)
(-121.0904783 -250.034628 -201.1653094)
(136.2370501 227.0002276 449.711261)
(88.78738751 812.675858 671.1423246)
(1098.497213 -254.1405616 -1.780120269)
(32.94211844 -722.1766361 -513.3527724)
(535.5976979 -269.8329063 -637.9567613)
(395.0579362 199.3609137 185.6838383)
(-5.60239183 101.7774845 -431.7108362)
(-359.9133938 -368.1452441 -107.2238789)
(-22.03902045 -234.8326453 214.1320043)
(120.1542242 -753.7070364 -278.70674)
(1100.977513 587.6764987 266.5210447)
(414.1535592 -244.6324242 28.51353265)
(92.55781987 114.4234657 -790.2034845)
(-58.70186115 -549.3776128 591.9540972)
(-58.61063391 -1378.437959 60.66328154)
(166.6160402 24.25250606 268.6735746)
(415.9372775 -149.3622424 510.1008907)
(1034.960744 54.27129888 -451.5637366)
(798.4629181 418.3560663 -1116.734635)
(530.3123596 393.0949994 -197.3123432)
(428.418468 319.944216 349.9841618)
(72.80025713 -578.2057365 -105.9526162)
(1044.754022 -233.6700048 -144.8400668)
(688.9017529 531.1374634 712.9008428)
(781.0792683 34.14553562 700.6353191)
(290.9297592 -90.42719716 177.5808095)
(910.601112 -93.4545345 -6.377951926)
(755.7189433 -840.7477081 -45.37890143)
(50.83394846 140.9579615 34.57526466)
(1271.19472 442.7808765 526.7302375)
(-163.8181329 -230.4990636 -238.6413327)
(181.9343157 2.604004784 -406.9845022)
(140.1844416 -536.9339644 -20.48224318)
(364.763195 -179.283525 -220.5021363)
(352.9494566 595.1778781 -1.239756603)
(1180.647347 -316.5530064 280.0487717)
(87.4926774 816.4705495 -239.6886805)
(-1127.632967 756.9196494 130.9929635)
(57.4550905 589.4194107 -311.3396468)
(-54.85258225 467.8816243 -246.5958412)
(249.26989 -78.71214578 850.2930115)
(433.6738963 -703.0087431 -179.4645898)
(483.7013197 11.89225879 285.2704504)
(730.1523741 595.9375859 288.852637)
(-824.7775589 -257.296383 -559.7310117)
(337.4491908 568.9544473 -318.9754692)
(569.6600632 -390.4780365 145.0451512)
(579.9904909 671.6591559 764.0473897)
(-190.9883848 448.147847 222.8062299)
(-160.8972241 246.2050622 78.96880735)
(245.0456612 -157.0424095 115.9381148)
(704.0902715 285.6964483 214.5313119)
(257.094045 -485.2628366 -34.61470863)
(-16.44285947 -777.3433487 208.9899385)
(148.2410854 410.3363334 580.1319284)
(-245.9403844 -670.0679803 -87.86355264)
(565.460375 -85.36886882 -567.9823316)
(689.843513 -310.6107464 354.5010874)
(-329.5590567 -316.8996051 530.0449779)
(1644.719109 381.6746101 -508.4313174)
(754.0131667 -113.1352103 -227.2378314)
(469.8496895 578.6063395 -199.459794)
(259.3029293 -11.64009376 -748.4663668)
(-723.4213781 -17.70366518 -76.10346474)
(-611.5532165 -444.8136241 -557.1586349)
(406.4120902 -361.8137612 245.8081621)
(-704.2839352 -30.90299815 -963.401132)
(1350.929807 -643.370462 947.0030442)
(779.1364815 369.2821797 95.21410337)
(145.7724326 1127.14363 405.4377292)
(415.7546819 233.8138949 0.2588178048)
(-216.5776867 -163.818203 -443.0426267)
(277.8513554 616.8864002 -179.2325188)
(-131.6448345 -339.3261589 893.094127)
(930.9144391 505.4624324 -799.1642081)
(542.236378 736.1131557 611.4147084)
(855.7113925 -117.3908762 172.1175186)
(-684.1690906 -319.1433306 1032.977086)
(595.8083036 570.1397994 -158.1034307)
(-293.8374638 -174.8860733 539.0119915)
(-559.5995245 -256.2539625 751.7890671)
(282.3748124 -313.5869192 -98.71392481)
(-420.3085345 -780.657652 -167.5232172)
(669.276779 -542.4060419 91.59714752)
(-389.2823929 185.5816917 -775.6636469)
(-677.6243177 67.69738305 -96.05334503)
(1099.918786 -369.3267721 -385.70911)
(871.2210906 277.3031899 149.320885)
(581.0088587 -877.1996199 983.0584391)
(942.9635745 148.1010518 -565.1799317)
(833.9968203 439.3013707 277.2399554)
(595.7916419 -971.6181902 322.1359599)
(889.6871195 445.7086814 -743.1927823)
(148.8742374 -64.67907058 608.8953119)
(234.3876714 20.70402862 -265.065766)
(770.504137 88.93167471 282.8921998)
(1326.838204 93.6932602 346.0560437)
(51.28918844 -321.861835 -169.8167046)
(1604.615046 1081.257816 371.6334672)
(2278.825633 157.6889827 -990.2486458)
(-126.0215382 -216.9741472 387.3138596)
(-37.69225362 61.5442512 -72.22525137)
(22.54898803 873.0192789 -412.5807597)
(-883.2732063 700.9174378 170.048546)
(846.7785785 -69.74549625 -36.76789818)
(-565.3679427 14.74915105 335.1867314)
(1606.944853 -108.5665643 23.40227888)
(-511.5272376 462.3307048 -288.9257152)
(-36.41278744 -681.3216275 101.5166194)
(164.3423739 264.1178661 394.7715624)
(1428.965624 386.6928465 -190.2434229)
(406.8944418 128.6846899 460.4773572)
(982.5993976 -178.004881 851.4807044)
(-72.96363944 -213.1401612 780.44449)
(689.2617117 -405.3514422 303.3142959)
(1333.28148 -517.1984876 -322.5203828)
(310.7208991 -154.8801566 632.4132639)
(786.2642462 60.71131642 28.62115819)
(-380.8381881 266.8970116 -312.2618682)
(878.7989945 546.7153831 -10.32297267)
(1454.356625 -253.4530179 297.2602206)
(-444.0225996 -145.6433741 946.7026014)
(-317.5371656 -37.13011301 -207.1330591)
(106.563487 -1331.642843 -400.1511261)
(-784.6365366 1278.426598 -316.292963)
(399.6104879 551.487181 1101.349012)
(900.7710379 -566.0936938 -1330.115759)
(792.0235635 438.2295819 246.7262843)
(1385.961357 -431.2544866 -0.6081101356)
(704.2900678 -1276.688297 -522.4075803)
(646.7663117 -83.82872486 -260.5849124)
(341.1399443 503.6310269 -683.6359837)
(-779.0491101 -90.27688598 -97.26656113)
(140.9160217 245.8098422 -509.7992475)
(1146.347829 40.29887056 53.60607398)
(1592.396901 -59.48033911 171.9067426)
(813.6735395 702.5864696 -17.04850968)
(3.105160797 -119.3647416 -548.7354787)
(334.2027449 -888.1677244 215.7728135)
(1358.429263 162.9001633 -251.4508327)
(146.4218909 -119.9358527 -275.8383213)
(-375.9947182 -598.8645621 440.8895787)
(252.5967348 -480.2597715 37.37412997)
(1067.966937 933.9323548 -818.1531559)
(-552.4671932 -761.6896851 -659.0375759)
(-448.5651168 331.4993337 67.25776407)
(-371.0091561 -2.652232313 280.3569177)
(828.2061116 632.9145252 -407.5209937)
(1299.649785 -96.79742807 -106.5709314)
(-114.425244 364.7955122 628.8245465)
(718.1322736 -34.94041414 -386.0684515)
(-545.3948402 214.7498007 89.060944)
(301.7581258 -58.08778156 122.6821727)
(284.76478 -154.1524497 86.38504216)
(-298.0380763 -206.1777544 -341.7710648)
(-567.5330297 -580.8630577 649.2994237)
(350.9520723 169.7400497 657.5320043)
(-172.3495987 471.6094891 -216.0341963)
(244.3534879 126.2429191 -196.6001082)
(-150.6227045 -54.2557226 -19.58245052)
(321.5340169 236.1254705 380.1805784)
(282.8516878 -462.5554645 83.43883277)
(338.47138 452.0801359 -867.1004511)
(327.5540776 -265.1683859 -56.68110333)
(1034.693513 -220.7475368 -119.7861732)
(423.6308919 331.692624 -293.4418383)
(-438.9576665 315.0701927 -582.8152726)
(-953.3272513 -60.35462082 291.9076071)
(-257.9904413 392.4133815 527.7575796)
(935.8780664 -10.68260714 -659.0633181)
(710.6918123 -227.9620027 552.1360822)
(237.1567838 402.8796109 474.6968057)
(-152.0269424 423.6528974 337.706776)
(1752.596397 487.6317545 -210.1197492)
(-61.01315377 466.0368895 -436.7706583)
(173.7779673 -579.5889615 -397.9442921)
(137.2956204 268.3024717 485.0842367)
(204.1025716 313.4785557 456.5455725)
(-156.4396711 842.7821883 -608.088191)
(-993.7962918 -322.1919206 501.9028805)
(330.7007269 -741.7452672 559.6079817)
(2193.186507 1188.509482 -826.8976272)
(-125.7142714 -87.61631397 186.4906489)
(43.11098698 386.388239 -34.27651214)
(68.05630638 113.3446127 -771.575216)
(532.5253912 401.8610848 -103.4680483)
(1103.470862 17.13027953 -187.4883055)
(565.4879551 427.8807655 -461.5259498)
(1795.745075 -129.3716354 374.63766)
(669.44007 70.49185112 769.552389)
(-649.3828015 -286.4075456 -215.338588)
(22.03973136 17.18452318 -640.83565)
(429.9590957 314.9268634 218.2275531)
(-554.8588972 450.6151435 -92.86888594)
(564.6831088 291.9767495 193.341374)
(498.6822651 91.3982498 516.7042044)
(2059.864832 926.1429296 -288.4283592)
(-483.2339837 686.3858765 28.65529466)
(983.3713465 1089.216522 457.7838358)
(654.8448227 -460.6286109 -388.2298412)
(165.19415 -338.652301 537.1292683)
(520.575427 693.5647594 409.1371011)
(770.8685604 744.389067 -276.5736171)
(467.8861056 -125.2324347 409.2961376)
(-304.2506936 905.0117963 511.4691595)
(519.5405562 -397.6439822 87.03743008)
(-701.11703 149.7681883 -162.2497533)
(657.667546 -45.38420259 530.5575204)
(1066.228732 324.0953177 -830.2526982)
(816.3629705 -583.8505853 -162.3340369)
(-14.75701507 -98.54503016 -280.1299647)
(1149.425379 -231.3108657 202.2641175)
(3.414953663 419.1972996 -417.6359547)
(555.1228323 -105.6169539 -435.5534944)
(569.8381635 -21.49190907 249.3033974)
(1714.534083 482.1945081 357.4159904)
(179.4898953 724.5298618 -692.8647662)
(815.4696054 -386.1837589 -230.4446167)
(128.3698587 -429.9228766 -815.1651176)
(276.2456472 -182.5126659 768.0907704)
(-50.41072372 68.56579993 484.7997131)
(488.8773231 -212.123085 47.26202317)
(-79.78599772 117.7342069 -909.900997)
(665.7767872 229.4851752 -366.7831531)
(42.9059666 468.0712879 -3.563202922)
(225.9053409 242.6896155 -650.2238971)
(231.7299841 331.4793921 -293.5322158)
(15.32511923 -359.5229141 613.3242635)
(167.4378931 -146.6409399 586.8961276)
(598.5836395 106.6882373 1079.352272)
(-366.4228755 -6.800852096 -119.4663526)
(439.0222809 -10.02142446 45.00163972)
(978.3902949 540.0854194 -59.96241315)
(28.00539836 -128.291675 -330.1304951)
(1494.708399 -31.59168002 398.4225532)
(-92.97190633 -579.357296 -508.7285333)
(223.0289259 63.04696332 -579.3330992)
(302.0154966 621.9854732 -156.3005212)
(335.3704446 -483.8910214 -390.448689)
(694.9879488 -703.0043761 352.9001927)
(972.1551921 443.7686329 -556.4535329)
(719.1205607 59.97853197 272.2376865)
(430.1883596 -159.1453088 -228.0427021)
(256.6296992 -466.4078197 247.5805924)
(-170.3505979 -172.4299569 -416.2373816)
(100.8257548 274.3465824 -45.12185901)
(-83.67044443 -100.3160844 10.38211038)
(343.4271204 49.4927763 -129.7400917)
(1575.411492 320.8388338 -506.6094852)
(199.2625052 130.4106845 342.4504621)
(373.1473176 1003.462066 -958.0761001)
(572.4976157 -477.3162388 450.953311)
(1310.610837 80.08275776 -565.5397202)
(981.3170037 -197.3682683 1121.150864)
(-259.8544497 473.955995 412.2154896)
(218.4852771 349.4815722 443.5882414)
(981.8817525 -96.06233275 102.0141673)
(-193.4148542 -860.3465477 -727.0320881)
(388.0168677 18.31269966 527.1086209)
(301.8052649 32.98989475 222.4161916)
(1284.423166 380.603855 527.7059021)
(1305.929968 246.0723881 303.2657528)
(1056.621462 247.4388349 -99.97627088)
(537.7506401 -327.3573207 -101.2820583)
(476.4259979 331.4574663 -441.6325536)
(-360.8262875 596.2043032 -703.6930658)
(-101.6859711 -97.6186148 -655.5858494)
(223.1318247 -1119.165913 149.4433272)
(896.3916556 -401.1808694 -108.4756066)
(-160.6567758 1021.893088 -386.6547584)
(-271.9456423 -507.40982 -535.3358071)
(585.4719858 730.7996111 -265.1672064)
(487.1774317 67.88622178 -257.9294706)
(-309.9589155 291.0818608 -607.2902846)
(1098.901759 285.1626796 1030.161272)
(546.1025148 110.4937289 -247.5739276)
(-4.125981637 284.5641456 171.5818667)
(955.3936022 874.7094496 200.7373137)
(271.9462934 923.8707767 302.3052302)
(571.3734914 -541.1872489 -726.8933099)
(-75.28585898 26.20919452 -201.8198187)
(875.728453 105.4473407 -25.08484609)
(-29.80144729 -527.87608 -392.1678577)
(1591.692013 405.8753077 -191.9194626)
(-358.792341 967.4192703 -819.9369371)
(212.9230567 148.8089258 -465.4945294)
(-431.5809742 -920.0316321 -637.7250537)
(-187.8698547 -920.8768047 -319.6430055)
(518.5918152 -350.6775081 0.8700687711)
(221.3247193 -909.5095336 620.1755314)
(-175.4492792 -374.1639096 483.5559323)
(-212.635037 -487.3463929 462.3737009)
(839.8403399 353.9282732 -263.2266441)
(582.8630662 1035.212376 -539.1154863)
(73.96968495 146.8293286 221.9126814)
(-166.7812554 222.5482873 -518.225545)
(335.1194888 -531.5177124 -580.1384437)
(351.658447 218.7061601 -32.38876875)
(851.3023185 31.68491596 430.9832432)
(1289.969861 -1231.10163 705.4513132)
(324.538505 28.57037185 -62.06421928)
(-12.05538275 -253.2297024 818.1125434)
(1048.197968 71.80741047 -354.0818518)
(1697.224681 332.7359996 629.2207476)
(-728.6346663 685.7431926 -317.4202255)
(422.1196332 -151.1630551 137.5289012)
(8.534271433 448.6861122 -164.2753204)
(-282.3215975 524.4054689 119.2404182)
(887.6233483 315.0276268 732.603236)
(1053.714897 1462.902619 -1304.532187)
(-378.373041 -23.06413009 378.0754649)
(367.4166948 109.5066022 38.25476215)
(80.60618324 -1015.204645 -160.4962958)
(426.8122735 122.8019814 -118.3848026)
(1087.141156 193.0116981 359.9317016)
(-545.1476644 -341.7866231 46.75788528)
(-122.6755748 456.7395585 -221.8153494)
(-1033.307918 340.2621755 761.3876406)
(260.3606951 -534.452469 -868.9856779)
(298.9938294 -108.0609339 572.385316)
(621.9970272 106.1245721 -874.6798246)
(1967.148009 881.9306952 -449.2210577)
(574.0018484 -821.6055296 -2.379293322)
(187.0257349 -432.2175758 41.82107771)
(346.4747068 -46.1811822 652.6083793)
(-64.293909 -85.48458059 -261.9620642)
(987.659849 -27.16103853 -1451.240048)
(-635.6498284 120.915291 37.31941994)
(1244.904217 880.4230397 -71.072298)
(1998.581894 194.3444705 409.2356355)
(354.4247219 -440.8360057 186.3252309)
(-695.330178 75.59951612 -469.6410961)
(38.31520513 -597.732928 162.4514666)
(2.842001887 -271.8089247 -280.9956521)
(-31.17479563 -391.6008786 -263.2102144)
(831.2439551 770.6572107 292.5834145)
(554.4031208 605.1956837 -595.7665887)
(589.6772253 -952.5256323 -30.55852042)
(1220.130107 -102.6512353 193.5695194)
(283.8098478 -301.5238962 -1019.979643)
(-177.8803481 -294.3744645 -310.9039408)
(481.4469969 104.4364185 -157.4974291)
(1414.641891 287.5981228 -412.0885007)
(-22.54656445 -3.154207172 -732.6134211)
(524.8342544 179.9405078 269.6911268)
(485.6088768 90.09759007 95.07558857)
(-131.9703346 283.3559953 -533.4133937)
(-648.3143146 97.24052657 523.8871408)
(938.3631767 62.22649167 405.0473743)
(-133.4421475 12.89870622 -52.08740729)
(-350.9693538 -8.867757217 -97.75204244)
(238.36676 285.5029084 -55.68955773)
(-46.63547426 588.5249323 -16.49052603)
(1575.578984 -398.593469 101.5904972)
(426.5531551 50.76815936 1276.362719)
(-589.3668044 169.3188589 1027.326545)
(-159.1587589 -369.6993373 -137.3842535)
(755.4946768 -406.7097267 731.2960125)
(-674.5147915 159.9616253 -674.219756)
(1517.531061 247.9251809 -144.1427115)
(1901.770085 170.6036002 -277.9036393)
(332.843251 245.2740441 117.2406275)
(-234.0530484 236.9763294 47.17046165)
(545.4198913 323.9783778 -200.2277178)
(-564.4610627 443.5347377 -7.277713767)
(1248.95119 -214.787116 -1233.548361)
(508.7200344 -26.34984956 -491.6628163)
(-231.480427 -77.3638679 220.3213775)
(-10.77577615 452.8709387 -172.8225432)
(-151.1444553 -416.8712699 23.24309326)
(8.630712264 -781.605947 455.8311788)
(76.89858413 174.4544745 414.9491954)
(70.58473756 -858.3337188 305.3591435)
(-54.85879423 524.4256981 129.6438819)
(-459.7164902 -100.8057786 31.69855288)
(353.192449 388.2781305 379.0023925)
(1672.53137 775.3093974 508.9468318)
(-580.1487251 224.0011611 192.0306518)
(3.046215357 226.6343918 -19.50636689)
(300.8487463 -356.1268472 -83.96367397)
(608.0955145 -297.7990812 470.4971494)
(719.9436307 -51.44752284 421.7384129)
(-156.0521775 536.9636465 -241.2306319)
(1170.404104 -475.3417839 511.7717215)
(17.65072342 408.5535208 50.28467131)
(56.85761899 22.41640922 450.6562277)
(22.15465295 380.633996 498.6061296)
(-150.7390351 -29.21392283 -37.78057984)
(550.2125347 -453.6010892 98.92601417)
(912.6810692 -327.647127 -424.220264)
(591.1208131 1041.89657 282.6506523)
(1565.905829 578.8858712 621.25738)
(155.3573957 -487.0893162 381.1377924)
(-88.25032704 761.5763515 -670.9106297)
(826.6034238 -402.4366602 -63.1213858)
(1619.237327 -365.1903921 1153.590156)
(-394.5982674 317.0730165 -710.5711187)
(-241.6287964 -11.14063631 -581.2282781)
(-341.6982049 -271.9537888 393.9570247)
(182.7484796 -758.514055 -444.6073531)
(349.3649095 219.1364391 -736.3594862)
(-154.4809881 -152.4677654 -130.9894322)
(267.2106287 237.6590445 203.0067394)
(-696.0782341 87.34374417 67.69515936)
(616.7696536 -373.561194 118.8334868)
(878.7932598 -369.6958366 -177.6969655)
(990.9386512 -101.3112502 -56.18955451)
(632.7950031 593.475948 273.476926)
(950.4321826 -372.8208286 976.5477491)
(748.3560346 -573.3438082 234.6190311)
(988.9467708 404.8893566 -448.7431999)
(1817.488617 420.9764261 -93.54806896)
(313.8162175 645.8835619 -18.63946664)
(1511.416415 383.3193632 556.7875033)
(-155.0130327 114.6990079 -197.4736787)
(950.1800204 -884.3723209 -335.3977512)
(423.8079875 579.6856662 -356.1794174)
(-264.9128494 608.6211631 -358.0674902)
(-169.8388144 -67.78207479 153.4529016)
(58.8701557 -343.0399913 -1019.413017)
(-409.7567944 -459.6426296 429.3259648)
(-441.5596473 397.1566323 216.2475026)
(636.6112465 244.8306113 297.5053189)
(641.0079767 418.3601662 293.8750706)
(-10.883016 -158.1755675 -1084.505896)
(942.2923233 742.2012135 -310.8096455)
(-443.572456 459.4924233 -107.1293238)
(1099.972818 731.1567012 -361.0627005)
(856.3354134 1117.35576 404.7345498)
(686.7252197 183.1038295 -456.7239027)
(21.40279525 166.916228 83.88711564)
(449.50688 286.4175498 642.9286776)
(1087.269941 -230.7472923 594.5927569)
(906.3753855 -316.0953206 -406.8672597)
(-321.8513286 -200.2407339 -152.1182994)
(-183.5679861 47.51844551 98.83458456)
(20.81259456 -70.08823407 262.7893031)
(546.8967826 430.4021674 -278.2751834)
(1360.517397 1035.760889 1053.588631)
(940.0699842 197.1205453 414.4059563)
(293.3517035 48.51057544 -84.05967433)
(598.9249114 -267.2947379 281.2170925)
(498.0867234 494.8608988 459.1147198)
(678.7000967 321.8104547 -502.9715212)
(1492.015974 415.83983 183.8102859)
(237.5391761 102.8758631 -38.8962451)
(139.7604252 -733.8275271 91.32004011)
(602.0442128 -46.40393569 760.3235931)
(720.0986236 -564.7361915 120.031749)
(1271.925821 -1049.6867 742.2800033)
(466.568695 -18.20319211 209.0079446)
(275.8721164 -598.3485321 69.97934794)
(-16.198159 251.2499464 -26.82053659)
(-382.609122 284.1838138 42.10678304)
(743.8357706 -302.7981524 569.9230194)
(-323.070416 840.8838064 -109.7632265)
(-261.2459957 646.66957 -412.5692011)
(969.0390328 1028.726012 82.47477399)
(1452.755179 -585.1504012 -196.9211912)
(-389.893332 207.0451435 327.0939734)
(1128.43556 41.13835321 -96.60610852)
(586.3497956 -504.0504646 -225.6584827)
(439.2438104 -284.5892439 -750.0530338)
(-175.9319628 -1048.427738 423.8343639)
(889.7146156 -1006.936391 1073.132773)
(693.2881452 -921.5428116 28.84732143)
(195.7242115 -296.342023 373.6409034)
(276.9093815 -1102.00384 219.3737956)
(191.5544728 -228.0942943 -154.1203699)
(372.4115182 320.8664634 69.37954567)
(1513.268789 -258.2772442 167.3225208)
(1515.437496 935.9027582 -788.8446564)
(-250.2668966 595.3406602 -347.720794)
(1300.020517 79.23468725 -889.7282375)
(-23.48321215 -68.71566274 -290.1350717)
(698.2596158 662.0255692 -536.6519648)
(1329.808529 476.7451906 -600.3100048)
(-491.3118579 278.5467137 839.3764774)
(-198.3943391 363.1188903 12.66401575)
(-454.382069 405.4650557 291.1514277)
(-582.9488829 683.6221415 714.7097173)
(-308.1802789 773.4239322 -944.6574762)
(1798.601656 574.9744841 -31.43422963)
(409.3699981 205.0006747 -288.6560483)
(-231.3581471 -429.9811029 229.2880911)
(-312.2408467 330.4948682 379.1454402)
(195.374269 432.4509505 -15.5256271)
(858.1927148 -432.073202 -343.1346493)
(116.8501011 -502.0082145 606.0130096)
(232.115515 157.6230113 -158.7106261)
(812.471744 193.2544999 -382.2253612)
(-355.7410946 218.1076581 -312.048184)
(157.9526551 -414.2342499 -173.0957208)
(607.3316416 298.4868875 -155.2834609)
(733.4900464 -1027.632092 -37.73347544)
(138.7935525 -259.0798394 -812.14371)
(1649.719862 1080.461268 134.8340962)
(760.3008629 341.6800366 -250.8824675)
(673.5846506 145.7113834 110.5692419)
(775.3893638 478.3558832 -212.899026)
(1017.678863 168.5218135 -602.7303655)
(425.2252788 873.6188715 -48.02442651)
(-15.32895429 24.88724631 -145.5321514)
(-484.0923301 -10.42324363 536.9994752)
(290.0610019 551.247916 -210.8155052)
(109.4798714 1134.519067 -21.18797357)
(1249.292908 726.2862283 32.49436426)
(-279.8700009 -79.50949981 -349.4113596)
(747.4785254 642.0939377 185.960789)
(552.8150658 688.6776164 -1129.313557)
(1132.397805 -670.7905846 -47.69403834)
(36.9483865 172.888425 -277.9008704)
(-320.0190035 -39.63535107 -115.4114796)
(-238.7466534 214.4417889 -519.2403637)
(1113.902595 -132.1620456 816.849059)
(269.1047458 136.7982612 -479.6635962)
(560.5175428 -736.9727617 -200.0286388)
(822.0214941 321.6455504 776.5170051)
(-182.0240701 311.2185396 31.72866076)
(793.3277144 -449.400479 725.5527299)
(-223.4247915 -72.84780024 -678.5739601)
(-317.4408287 -333.1468471 498.59831)
(1022.631277 -115.2894012 46.21683442)
(-220.4981491 -44.46267982 -822.4915389)
(-170.997002 -490.2187221 325.7936889)
(-559.5105868 -407.6945496 -103.050228)
(318.5121504 -549.9403962 -668.3058055)
(449.7151819 747.1785276 606.944258)
(-74.08980498 766.3451883 342.9105072)
(893.9799677 421.0344656 -421.9320612)
(748.0564529 1308.434262 122.2993179)
(-884.6494045 2.318344269 167.6851109)
(574.614858 77.0069047 15.37605116)
(182.1759418 559.5741763 70.08321062)
(1521.965766 -9.714381473 238.0922306)
(1502.084977 360.897346 -488.0035096)
(506.9911291 437.8976216 559.990794)
(1001.993236 547.637076 223.0180822)
(524.8676938 -198.3331169 -113.3314146)
(38.82060161 -139.9250136 69.12620868)
(1172.254769 559.3108964 -211.3217983)
(-237.5274371 -124.0283857 -11.46912913)
(375.0086482 248.1313498 211.0741306)
(-481.8155596 -122.8205546 -558.2102554)
(-50.50526002 325.2953853 374.912048)
(139.1025821 80.55307787 116.1525068)
(-787.4377364 -113.1458685 -604.1107303)
(753.3247266 -962.6592886 -520.5094264)
(1163.604607 -190.58254 -263.1469136)
(-767.8127334 -396.9880915 0.2744039779)
(82.15878671 381.4087036 539.454036)
(-217.6137489 514.6130407 73.27737699)
(-420.7689096 -414.7168289 376.0788307)
(-253.4356413 20.11205902 -536.3116976)
(-840.0828085 -513.1569265 63.52563472)
(1219.9126 -718.4701922 -358.6284288)
(931.0613048 107.837396 392.0264406)
(28.10182009 -889.9948064 -103.1412853)
(428.3351792 209.2433088 344.6122605)
(661.865944 6.293488523 -183.5732267)
(1296.857708 545.9887776 798.8627348)
(-202.5463985 276.6005943 -153.9051942)
(742.7687373 -305.0173801 409.4385873)
(131.6130552 -351.8891714 316.0604167)
(269.4958477 475.5932877 326.7772467)
(497.4529735 1057.419869 267.3181152)
(1020.24354 -12.66103097 52.02560709)
(1227.761783 185.4068207 273.8775628)
(124.5760076 -86.65939946 445.248482)
(261.8674863 402.1718718 -154.0681539)
(-112.7218636 -13.39384876 92.82190082)
(-1106.002795 -249.3209535 -33.96813409)
(502.419743 726.3540609 615.6924577)
(1126.245928 150.0255385 -472.3007117)
(641.6046833 -45.65204074 -613.8900415)
(-82.73140745 -78.38821532 -615.284495)
(1182.810778 -241.6625076 -753.9768157)
(-271.1355058 230.5282442 914.0728084)
(100.3617275 560.9296489 -332.6266454)
(203.7384865 -248.6579401 -799.6021686)
(93.55655514 42.98457802 -388.6559937)
(396.8073686 -237.9361507 -278.0951238)
(984.6016981 -358.4914746 8.26688555)
(868.9527839 -80.30561677 65.67977143)
(63.62389035 14.25530358 124.7679085)
(-187.4166093 -539.4456091 702.8389068)
(1005.061571 302.2527343 36.68301602)
(488.5523911 73.3802568 -131.9443242)
(412.2434781 86.79331915 149.7646052)
(561.5632912 -390.6705089 858.0453447)
(-338.3072379 -38.39999653 -71.15936888)
(461.5726683 -37.26872049 -139.9071375)
(-503.3105739 942.2838617 -221.0131443)
(-290.5149584 -802.3607138 -291.5487985)
(941.1688205 263.003274 -661.7074397)
(812.5984322 382.9787297 299.6478677)
(1047.36445 136.4014804 409.0819878)
(1220.529525 612.9036484 -500.7620665)
(1383.820289 648.0578757 -446.8477546)