/*--------------------------------*- C++ -*----------------------------------*\
| =========                 |                                                 |
| \\      /  F ield         | OpenFOAM: The Open Source CFD Toolbox           |
|  \\    /   O peration     | Version:  v1912                                 |
|   \\  /    A nd           | Website:  www.openfoam.com                      |
|    \\/     M anipulation  |                                                 |
\*---------------------------------------------------------------------------*/
FoamFile
{
    version     2.0;
    format      ascii;
    class       volTensorField;
    location    "3.88";
    object      grad(U);
}
// * * * * * * * * * * * * * * * * * * * * * * * * * * * * * * * * * * * * * //

dimensions      [0 0 -1 0 0 0 0];


internalField   nonuniform List<tensor> 
1900
(
(-4.12222 2.64818e-05 0 -2.76407e-05 2.12143e-05 0 0 0 0)
(3.1166 4.68795e-05 0 -8.57767e-05 4.21131e-05 0 0 0 0)
(0.0547427 7.28501e-05 0 -0.000111011 3.33106e-05 0 0 0 0)
(-0.00311459 0.000654788 0 -0.000106104 0.000109686 0 0 0 0)
(0.0442021 0.00148322 0 0.000255128 0.00122839 0 0 0 0)
(0.0742149 0.00263102 0 0.00164913 0.00303784 0 0 0 0)
(0.0874603 0.00428136 0 0.00459212 0.00666993 0 0 0 0)
(0.096535 -0.0174006 0 0.0105715 0.0114609 0 0 0 0)
(0.133831 -0.0480883 0 0.0132479 -0.0232316 0 0 0 0)
(0.13041 -0.108181 0 -0.012031 -0.0650462 0 0 0 0)
(-4.12233 3.68456e-05 0 -3.70323e-05 -7.68996e-06 0 0 0 0)
(3.11651 -3.47832e-05 0 -0.000123244 -1.87918e-05 0 0 0 0)
(0.0547224 -5.27764e-06 0 -0.000111117 -5.45694e-05 0 0 0 0)
(-0.00274845 0.000540286 0 1.67794e-06 -9.16419e-05 0 0 0 0)
(0.0459574 0.00144493 0 0.000839419 -0.000709358 0 0 0 0)
(0.0785519 0.00281053 0 0.00330934 -0.00157486 0 0 0 0)
(0.0963827 0.00414169 0 0.0076814 -0.00334037 0 0 0 0)
(0.105191 -0.0125009 0 0.014614 -0.00585622 0 0 0 0)
(0.111228 -0.0284187 0 0.0110228 0.0140602 0 0 0 0)
(0.0759571 -0.059137 0 -0.03073 0.0422321 0 0 0 0)
(-4.12238 5.74213e-15 0 -1.73472e-14 -2.70487e-05 0 0 0 0)
(3.11652 3.6787e-14 0 -2.35001e-13 -4.66426e-05 0 0 0 0)
(0.0548676 -1.00881e-13 0 1.7022e-13 4.25177e-05 0 0 0 0)
(-0.00216405 3.76669e-14 0 5.40746e-14 -3.60873e-05 0 0 0 0)
(0.0475098 4.31674e-14 0 -3.63208e-14 -0.00103805 0 0 0 0)
(0.0810569 4.27304e-16 0 -7.84691e-14 -0.00292595 0 0 0 0)
(0.098765 -2.09961e-14 0 -1.00695e-13 -0.00665911 0 0 0 0)
(0.0998764 -1.19962e-13 0 -7.16929e-14 -0.0112093 0 0 0 0)
(0.0884869 -9.66138e-14 0 -1.2265e-14 0.0183427 0 0 0 0)
(0.0582098 7.66409e-14 0 4.79082e-14 0.0456281 0 0 0 0)
(-4.12233 -3.68456e-05 0 3.70323e-05 -7.68996e-06 0 0 0 0)
(3.11651 3.47832e-05 0 0.000123244 -1.87918e-05 0 0 0 0)
(0.0547224 5.27764e-06 0 0.000111117 -5.45694e-05 0 0 0 0)
(-0.00274845 -0.000540286 0 -1.67794e-06 -9.16419e-05 0 0 0 0)
(0.0459574 -0.00144493 0 -0.000839419 -0.000709358 0 0 0 0)
(0.0785519 -0.00281053 0 -0.00330934 -0.00157486 0 0 0 0)
(0.0963827 -0.00414169 0 -0.0076814 -0.00334037 0 0 0 0)
(0.105191 0.0125009 0 -0.014614 -0.00585622 0 0 0 0)
(0.111228 0.0284187 0 -0.0110228 0.0140602 0 0 0 0)
(0.0759571 0.059137 0 0.03073 0.0422321 0 0 0 0)
(-4.12222 -2.64818e-05 0 2.76407e-05 2.12143e-05 0 0 0 0)
(3.1166 -4.68795e-05 0 8.57767e-05 4.21131e-05 0 0 0 0)
(0.0547427 -7.28501e-05 0 0.000111011 3.33106e-05 0 0 0 0)
(-0.00311459 -0.000654788 0 0.000106104 0.000109686 0 0 0 0)
(0.0442021 -0.00148322 0 -0.000255128 0.00122839 0 0 0 0)
(0.0742149 -0.00263102 0 -0.00164913 0.00303784 0 0 0 0)
(0.0874603 -0.00428136 0 -0.00459212 0.00666993 0 0 0 0)
(0.096535 0.0174006 0 -0.0105715 0.0114609 0 0 0 0)
(0.133831 0.0480883 0 -0.0132479 -0.0232316 0 0 0 0)
(0.13041 0.108181 0 0.012031 -0.0650462 0 0 0 0)
(0.0551486 -0.140415 2.64364e-18 -0.0527999 0.0727379 -3.96546e-18 -2.92988e-17 -2.92848e-17 7.1656e-34)
(0.003001 -0.077966 0 -0.0551725 0.0817471 0 4.96581e-17 2.23963e-17 0)
(0.0126734 -0.0867173 0 -0.0831678 0.067044 0 6.57243e-17 3.27493e-17 0)
(-0.277988 -0.0423791 0 -0.22385 0.0338114 0 0 0 0)
(-0.126045 -0.319995 -7.97591e-17 -0.893157 0.820956 1.19639e-16 4.77002e-16 3.18001e-16 2.16188e-32)
(0.0200153 -0.093584 0 -0.0595902 0.114721 0 -3.88398e-17 -1.6141e-17 0)
(-0.024728 -0.0853615 0 -0.0764281 0.156485 0 -4.96581e-17 -2.23963e-17 0)
(-0.108 -0.12098 0 -0.160459 0.216441 0 -6.57243e-17 -3.27493e-17 0)
(-0.365916 -0.115561 0 -0.421004 0.356362 0 0 0 0)
(-0.316815 0.0320008 0 -0.614924 0.548871 0 0 0 0)
(-0.00142018 6.11193e-14 0 6.82537e-14 0.127856 0 0 0 0)
(-0.0784422 2.00938e-13 0 1.38126e-13 0.182798 0 0 0 0)
(-0.204549 3.05402e-14 0 4.7735e-13 0.292059 0 0 0 0)
(-0.461685 -1.47978e-13 0 2.45896e-13 0.519069 0 0 0 0)
(-0.406752 1.02694e-13 0 2.59757e-13 0.779999 0 0 0 0)
(0.0200153 0.093584 0 0.0595902 0.114721 0 -3.88398e-17 1.6141e-17 0)
(-0.024728 0.0853615 0 0.0764281 0.156485 0 -4.96581e-17 2.23963e-17 0)
(-0.108 0.12098 0 0.160459 0.216441 0 -6.57243e-17 3.27493e-17 0)
(-0.365916 0.115561 0 0.421004 0.356362 0 0 0 0)
(-0.316815 -0.0320008 0 0.614924 0.548871 0 0 0 0)
(0.0551486 0.140415 -2.64364e-18 0.0527999 0.0727379 -3.96546e-18 1.06978e-16 -6.15667e-17 7.1656e-34)
(0.003001 0.077966 0 0.0551725 0.0817471 0 4.96581e-17 -2.23963e-17 0)
(0.0126734 0.0867173 0 0.0831678 0.067044 0 6.57243e-17 -3.27493e-17 0)
(-0.277988 0.0423791 7.59132e-18 0.22385 0.0338114 1.1387e-17 1.76104e-16 -1.17402e-16 -2.05763e-33)
(-0.126045 0.319995 7.97591e-17 0.893157 0.820956 1.19639e-16 -4.77002e-16 3.18001e-16 2.16188e-32)
(0.133263 0.180026 1.14084e-18 -0.150216 -0.327919 1.02675e-17 -3.24247e-16 2.56489e-17 -3.09224e-34)
(0.457504 -0.00434797 -1.09316e-19 -0.134617 -0.0592441 -9.8384e-19 1.46431e-16 -1.40354e-17 -2.96301e-35)
(0.306993 0.0821005 0 -0.0559102 0.0325883 0 0 0 0)
(0.128246 0.242125 -1.80621e-18 0.34671 0.486701 -1.62559e-17 -3.03711e-18 1.61555e-17 4.89575e-34)
(-0.548123 0.0829429 3.26177e-18 1.40876 1.19075 2.9356e-17 1.31632e-17 -1.46258e-18 8.84106e-34)
(0.24469 0.154129 0 -0.207363 -0.12443 0 1.64386e-16 -7.88655e-18 0)
(0.463836 -0.0179646 0 -0.206888 -0.114986 0 -7.52428e-17 6.1256e-18 0)
(0.457005 0.0605597 0 -0.0769954 -0.0950726 0 0 0 0)
(0.708202 0.285328 0 0.472789 -0.282314 0 -8.18762e-18 -1.71328e-17 0)
(1.21522 0.209115 0 1.9386 -0.511652 0 2.19121e-17 5.47871e-18 0)
(0.280743 2.68404e-13 0 2.41618e-13 -0.274872 0 0 0 0)
(0.490496 1.5681e-13 0 1.09752e-12 -0.176819 0 0 0 0)
(0.555705 3.14978e-14 0 2.92885e-12 -0.115657 0 0 0 0)
(0.971974 -3.49572e-13 0 3.63781e-12 -0.458503 0 8.97059e-18 2.07427e-29 0)
(1.59031 -6.9368e-13 0 3.04734e-12 -1.45533 0 -4.38241e-17 3.21783e-30 0)
(0.24469 -0.154129 0 0.207363 -0.12443 0 1.64386e-16 7.88655e-18 0)
(0.463836 0.0179646 0 0.206888 -0.114986 0 -7.52428e-17 -6.1256e-18 0)
(0.457005 -0.0605597 0 0.0769954 -0.0950726 0 0 0 0)
(0.708202 -0.285328 0 -0.472789 -0.282314 0 -8.18762e-18 1.71328e-17 0)
(1.21522 -0.209115 0 -1.9386 -0.511652 0 2.19121e-17 -5.47871e-18 0)
(0.133263 -0.180026 0 0.150216 -0.327919 0 -1.64386e-16 -7.88655e-18 0)
(0.457504 0.00434797 1.09316e-19 0.134617 -0.0592441 -9.8384e-19 4.05422e-18 -1.78424e-18 -2.96301e-35)
(0.306993 -0.0821005 0 0.0559102 0.0325883 0 0 0 0)
(0.128246 -0.242125 1.80621e-18 -0.34671 0.486701 -1.62559e-17 1.04418e-17 -1.46578e-17 4.89575e-34)
(-0.548123 -0.0829429 -3.26177e-18 -1.40876 1.19075 2.9356e-17 -1.31632e-17 -1.46258e-18 8.84106e-34)
(0.472313 -0.718193 0 9.12022 0.345659 0 0 0 0)
(0.734011 -0.76829 0 5.94684 0.839117 0 0 0 0)
(-0.972598 -0.0302016 0 3.77633 1.3012 0 0 0 0)
(-1.04081 0.444884 0 1.43473 1.24303 0 0 0 0)
(-0.647562 0.418109 0 0.325758 0.841234 0 0 0 0)
(-0.434891 0.17052 0 0.0757987 0.549687 0 0 0 0)
(-0.301207 0.0482464 0 0.044901 0.438265 0 0 0 0)
(-0.123978 0.0194401 0 0.0137809 0.394367 0 0 0 0)
(0.0403661 0.0119478 0 0.00729146 0.369455 0 0 0 0)
(0.12095 0.00618806 0 0.00146902 0.355726 0 0 0 0)
(0.170718 0.00349841 0 -0.000360583 0.348548 0 0 0 0)
(0.208687 0.00212857 0 -0.00118655 0.344337 0 0 0 0)
(0.237289 0.00158338 0 -0.00181894 0.341088 0 0 0 0)
(0.259051 0.0011156 0 -0.00192157 0.338915 0 0 0 0)
(0.275239 0.000879824 0 -0.00174472 0.337209 0 0 0 0)
(0.287883 0.000731502 0 -0.00144898 0.335814 0 0 0 0)
(0.297933 0.000604381 0 -0.00111333 0.334628 0 0 0 0)
(0.306097 0.000554477 0 -0.000766311 0.333687 0 0 0 0)
(0.312061 -6.46952e-05 0 -0.000406771 0.332691 0 0 0 0)
(0.315719 -0.000202197 0 -2.09046e-05 0.3339 0 0 0 0)
(0.31889 0.000647268 0 0.000395333 0.333388 0 0 0 0)
(0.321389 0.000393106 0 0.00082073 0.331673 0 0 0 0)
(0.321852 -0.000150338 0 0.00122843 0.332037 0 0 0 0)
(0.321042 -0.000109847 0 0.00162075 0.332199 0 0 0 0)
(0.319095 -0.000137499 0 0.00197398 0.332429 0 0 0 0)
(0.315116 -0.000164759 0 0.00227447 0.332689 0 0 0 0)
(0.308579 -0.0001991 0 0.00250136 0.333015 0 0 0 0)
(0.298958 -0.000247557 0 0.00262901 0.333391 0 0 0 0)
(0.286104 -0.000246037 0 0.00264127 0.333888 0 0 0 0)
(0.269984 -0.000364801 0 0.00251468 0.334238 0 0 0 0)
(0.250305 -3.64138e-06 0 0.00223241 0.335209 0 0 0 0)
(0.225694 -0.000425226 0 0.00191864 0.334251 0 0 0 0)
(0.194237 0.00077179 0 0.000819744 0.336783 0 0 0 0)
(0.158184 -0.00043104 0 0.000310577 0.331895 0 0 0 0)
(0.121855 0.000517653 0 -0.00289261 0.338004 0 0 0 0)
(0.0974958 -0.000724837 0 -0.00534035 0.330723 0 0 0 0)
(0.07637 -0.000854171 0 -0.00805193 0.340545 0 0 0 0)
(-0.00159915 -0.00816904 0 -0.0145073 0.332217 0 0 0 0)
(2.19734 -0.0156115 0 -0.0028107 0.381853 0 0 0 0)
(2.22979 -0.00517062 0 -0.0409759 0.403905 0 0 0 0)
(1.39406 -0.532917 0 6.18707 -0.0892648 0 0 0 0)
(-0.0310346 -0.68479 0 4.70547 1.89652 0 0 0 0)
(-1.78154 -0.010347 0 3.24681 2.55173 0 0 0 0)
(-1.6612 0.328871 0 1.22741 2.00034 0 0 0 0)
(-0.890252 0.260562 0 0.154205 1.02244 0 0 0 0)
(-0.472209 0.0937398 0 -0.0411829 0.563085 0 0 0 0)
(-0.304393 0.0235297 0 -0.0349478 0.436281 0 0 0 0)
(-0.125622 0.0092268 0 -0.0389086 0.397238 0 0 0 0)
(0.040671 0.00595344 0 -0.029919 0.369456 0 0 0 0)
(0.121042 0.00288062 0 -0.0272437 0.356167 0 0 0 0)
(0.171243 0.00177237 0 -0.0243954 0.348184 0 0 0 0)
(0.20934 0.00105012 0 -0.0211512 0.344142 0 0 0 0)
(0.237996 0.000785715 0 -0.0182249 0.340867 0 0 0 0)
(0.259831 0.000556127 0 -0.0154001 0.338699 0 0 0 0)
(0.276057 0.000440575 0 -0.0127094 0.337032 0 0 0 0)
(0.288718 0.000366873 0 -0.0101499 0.335674 0 0 0 0)
(0.298771 0.000302666 0 -0.00771548 0.334518 0 0 0 0)
(0.306933 0.000276955 0 -0.00538949 0.333597 0 0 0 0)
(0.312896 -3.29868e-05 0 -0.003145 0.332612 0 0 0 0)
(0.316554 -0.000102241 0 -0.000948161 0.333819 0 0 0 0)
(0.319722 0.000321465 0 0.00123254 0.333307 0 0 0 0)
(0.322213 0.000193485 0 0.00341601 0.331594 0 0 0 0)
(0.322663 -7.9178e-05 0 0.00561745 0.331956 0 0 0 0)
(0.321835 -5.99976e-05 0 0.00785913 0.332111 0 0 0 0)
(0.319865 -7.45411e-05 0 0.0101559 0.332333 0 0 0 0)
(0.315857 -8.82844e-05 0 0.012533 0.332584 0 0 0 0)
(0.309289 -0.000104403 0 0.0150228 0.332899 0 0 0 0)
(0.299628 -0.000125727 0 0.0176698 0.333268 0 0 0 0)
(0.286727 -0.000120087 0 0.0205317 0.33375 0 0 0 0)
(0.270546 -0.00016884 0 0.023677 0.334114 0 0 0 0)
(0.250805 2.73887e-05 0 0.0271718 0.335004 0 0 0 0)
(0.226044 -0.000149305 0 0.0311939 0.334126 0 0 0 0)
(0.194484 0.000466712 0 0.0355451 0.336466 0 0 0 0)
(0.158139 -7.46506e-05 0 0.0405443 0.331473 0 0 0 0)
(0.121505 0.000406792 0 0.0460031 0.337948 0 0 0 0)
(0.0972522 -0.000186359 0 0.0509947 0.329694 0 0 0 0)
(0.0757471 -0.000290796 0 0.0581621 0.340439 0 0 0 0)
(-0.000633961 -0.0047408 0 0.0601968 0.33263 0 0 0 0)
(2.19345 0.00110653 0 0.060627 0.368521 0 0 0 0)
(2.22438 0.00698666 0 0.0672344 0.386295 0 0 0 0)
(1.58003 -5.60402e-13 0 1.93185e-12 -1.37153 0 0 0 0)
(-0.121337 5.9181e-14 0 3.706e-13 2.27885 0 0 0 0)
(-1.9844 1.0334e-12 0 -1.07139e-12 3.3364 0 0 0 0)
(-1.94047 -9.41279e-13 0 1.67411e-12 2.34999 0 0 0 0)
(-1.01661 -3.73932e-12 0 -1.82639e-12 1.07541 0 0 0 0)
(-0.489917 -4.62503e-12 0 -2.00016e-11 0.558621 0 0 0 0)
(-0.300545 -6.81417e-12 0 -5.31436e-11 0.430953 0 0 0 0)
(-0.122515 -9.88432e-12 0 -7.77018e-11 0.396855 0 0 0 0)
(0.0437595 2.80236e-12 0 -9.75486e-11 0.367519 0 0 0 0)
(0.122556 1.44625e-11 0 -8.61744e-11 0.355925 0 0 0 0)
(0.172491 7.50687e-12 0 -6.88843e-11 0.347715 0 0 0 0)
(0.210482 -6.94204e-14 0 -4.59534e-11 0.34374 0 0 0 0)
(0.238963 -2.5805e-12 0 -4.48603e-11 0.340495 0 0 0 0)
(0.260656 5.59146e-12 0 -8.2564e-11 0.338338 0 0 0 0)
(0.276766 2.94985e-11 0 -1.47151e-10 0.336672 0 0 0 0)
(0.289336 4.97667e-11 0 -1.96011e-10 0.335309 0 0 0 0)
(0.299318 8.19197e-12 0 -1.84438e-10 0.334149 0 0 0 0)
(0.307426 -1.0257e-10 0 -1.17307e-10 0.333228 0 0 0 0)
(0.313353 -9.49023e-11 0 -4.21644e-11 0.332245 0 0 0 0)
(0.316993 5.89633e-11 0 1.14351e-11 0.333455 0 0 0 0)
(0.32016 1.21454e-10 0 4.99438e-11 0.332948 0 0 0 0)
(0.322665 -4.59291e-11 0 8.3918e-11 0.331245 0 0 0 0)
(0.323145 -1.93225e-10 0 7.82888e-11 0.331618 0 0 0 0)
(0.322362 -5.59528e-11 0 7.40609e-12 0.331789 0 0 0 0)
(0.320455 1.3473e-10 0 -6.14398e-11 0.33203 0 0 0 0)
(0.316532 1.50145e-10 0 -7.5078e-11 0.332302 0 0 0 0)
(0.310074 6.08906e-11 0 -8.92801e-11 0.332637 0 0 0 0)
(0.30056 -3.09767e-11 0 -1.94094e-10 0.333019 0 0 0 0)
(0.287852 -3.85511e-11 0 -4.04478e-10 0.333502 0 0 0 0)
(0.271915 -2.5727e-11 0 -6.3375e-10 0.333845 0 0 0 0)
(0.252492 2.52705e-12 0 -7.69856e-10 0.334663 0 0 0 0)
(0.22813 1.2659e-11 0 -7.41401e-10 0.333657 0 0 0 0)
(0.196957 -3.57061e-11 0 -5.70951e-10 0.335689 0 0 0 0)
(0.161227 6.10342e-11 0 -3.81312e-10 0.330448 0 0 0 0)
(0.124895 -2.29669e-12 0 -9.87235e-11 0.336202 0 0 0 0)
(0.101033 -1.28731e-10 0 -2.49031e-11 0.327651 0 0 0 0)
(0.079047 -2.04369e-12 0 -1.55731e-10 0.337483 0 0 0 0)
(-0.000882098 9.60583e-11 0 -2.5239e-10 0.329651 0 0 0 0)
(2.19939 2.99529e-11 0 -4.58204e-11 0.370076 0 0 0 0)
(2.23171 -2.48716e-11 0 5.13399e-11 0.322043 0 0 0 0)
(1.39406 0.532917 0 -6.18707 -0.0892648 0 0 0 0)
(-0.0310346 0.68479 0 -4.70547 1.89652 0 0 0 0)
(-1.78154 0.010347 0 -3.24681 2.55173 0 0 0 0)
(-1.6612 -0.328871 0 -1.22741 2.00034 0 0 0 0)
(-0.890252 -0.260562 0 -0.154205 1.02244 0 0 0 0)
(-0.472209 -0.0937398 0 0.0411829 0.563085 0 0 0 0)
(-0.304393 -0.0235297 0 0.0349478 0.436281 0 0 0 0)
(-0.125622 -0.0092268 0 0.0389086 0.397238 0 0 0 0)
(0.040671 -0.00595344 0 0.029919 0.369456 0 0 0 0)
(0.121042 -0.00288062 0 0.0272437 0.356167 0 0 0 0)
(0.171243 -0.00177237 0 0.0243954 0.348184 0 0 0 0)
(0.20934 -0.00105012 0 0.0211512 0.344142 0 0 0 0)
(0.237996 -0.000785715 0 0.0182249 0.340867 0 0 0 0)
(0.259831 -0.000556127 0 0.0154001 0.338699 0 0 0 0)
(0.276057 -0.000440575 0 0.0127094 0.337032 0 0 0 0)
(0.288718 -0.000366873 0 0.0101499 0.335674 0 0 0 0)
(0.298771 -0.000302666 0 0.00771548 0.334518 0 0 0 0)
(0.306933 -0.000276956 0 0.00538949 0.333597 0 0 0 0)
(0.312896 3.29866e-05 0 0.003145 0.332612 0 0 0 0)
(0.316554 0.000102242 0 0.00094816 0.333819 0 0 0 0)
(0.319722 -0.000321464 0 -0.00123254 0.333307 0 0 0 0)
(0.322213 -0.000193485 0 -0.00341601 0.331594 0 0 0 0)
(0.322663 7.91776e-05 0 -0.00561745 0.331956 0 0 0 0)
(0.321835 5.99974e-05 0 -0.00785913 0.332111 0 0 0 0)
(0.319865 7.45414e-05 0 -0.0101559 0.332333 0 0 0 0)
(0.315857 8.82847e-05 0 -0.012533 0.332584 0 0 0 0)
(0.309289 0.000104403 0 -0.0150228 0.332899 0 0 0 0)
(0.299628 0.000125727 0 -0.0176698 0.333268 0 0 0 0)
(0.286727 0.000120087 0 -0.0205317 0.33375 0 0 0 0)
(0.270546 0.00016884 0 -0.023677 0.334114 0 0 0 0)
(0.250805 -2.73887e-05 0 -0.0271718 0.335004 0 0 0 0)
(0.226044 0.000149305 0 -0.0311939 0.334126 0 0 0 0)
(0.194484 -0.000466712 0 -0.0355451 0.336466 0 0 0 0)
(0.158139 7.46507e-05 0 -0.0405443 0.331473 0 0 0 0)
(0.121505 -0.000406792 0 -0.0460031 0.337948 0 0 0 0)
(0.0972522 0.000186359 0 -0.0509947 0.329694 0 0 0 0)
(0.0757471 0.000290796 0 -0.0581621 0.340439 0 0 0 0)
(-0.000633961 0.0047408 0 -0.0601968 0.33263 0 0 0 0)
(2.19345 -0.00110653 0 -0.060627 0.368521 0 0 0 0)
(2.22438 -0.00698666 0 -0.0672344 0.386295 0 0 0 0)
(0.472313 0.718193 0 -9.12022 0.345659 0 0 0 0)
(0.734011 0.76829 0 -5.94684 0.839117 0 0 0 0)
(-0.972598 0.0302016 0 -3.77633 1.3012 0 0 0 0)
(-1.04081 -0.444884 0 -1.43473 1.24303 0 0 0 0)
(-0.647562 -0.418109 0 -0.325758 0.841234 0 0 0 0)
(-0.434891 -0.17052 0 -0.0757987 0.549687 0 0 0 0)
(-0.301207 -0.0482464 0 -0.044901 0.438265 0 0 0 0)
(-0.123978 -0.0194401 0 -0.0137809 0.394367 0 0 0 0)
(0.0403661 -0.0119478 0 -0.00729146 0.369455 0 0 0 0)
(0.12095 -0.00618806 0 -0.00146902 0.355726 0 0 0 0)
(0.170718 -0.00349841 0 0.000360583 0.348548 0 0 0 0)
(0.208687 -0.00212857 0 0.00118655 0.344337 0 0 0 0)
(0.237289 -0.00158338 0 0.00181894 0.341088 0 0 0 0)
(0.259051 -0.0011156 0 0.00192157 0.338915 0 0 0 0)
(0.275239 -0.000879824 0 0.00174472 0.337209 0 0 0 0)
(0.287883 -0.000731502 0 0.00144898 0.335814 0 0 0 0)
(0.297933 -0.000604381 0 0.00111333 0.334628 0 0 0 0)
(0.306097 -0.000554478 0 0.000766311 0.333687 0 0 0 0)
(0.312061 6.4695e-05 0 0.000406771 0.332691 0 0 0 0)
(0.315719 0.000202197 0 2.09044e-05 0.3339 0 0 0 0)
(0.31889 -0.000647267 0 -0.000395333 0.333388 0 0 0 0)
(0.321389 -0.000393106 0 -0.000820731 0.331673 0 0 0 0)
(0.321852 0.000150337 0 -0.00122843 0.332037 0 0 0 0)
(0.321042 0.000109846 0 -0.00162075 0.332199 0 0 0 0)
(0.319095 0.000137499 0 -0.00197398 0.332429 0 0 0 0)
(0.315116 0.000164759 0 -0.00227447 0.332689 0 0 0 0)
(0.308579 0.0001991 0 -0.00250136 0.333015 0 0 0 0)
(0.298958 0.000247557 0 -0.00262901 0.333391 0 0 0 0)
(0.286104 0.000246037 0 -0.00264127 0.333888 0 0 0 0)
(0.269984 0.000364801 0 -0.00251468 0.334238 0 0 0 0)
(0.250305 3.64135e-06 0 -0.00223241 0.335209 0 0 0 0)
(0.225694 0.000425226 0 -0.00191864 0.334251 0 0 0 0)
(0.194237 -0.00077179 0 -0.000819743 0.336783 0 0 0 0)
(0.158184 0.00043104 0 -0.000310576 0.331895 0 0 0 0)
(0.121855 -0.000517653 0 0.00289261 0.338004 0 0 0 0)
(0.0974958 0.000724837 0 0.00534035 0.330723 0 0 0 0)
(0.07637 0.000854171 0 0.00805194 0.340545 0 0 0 0)
(-0.00159915 0.00816904 0 0.0145073 0.332217 0 0 0 0)
(2.19734 0.0156115 0 0.00281071 0.381853 0 0 0 0)
(2.22979 0.00517062 0 0.0409759 0.403905 0 0 0 0)
(2.25468 0.786481 0 -5.11031 0.0310122 0 0 0 0)
(2.43646 1.18763 0 -3.31886 0.513654 0 0 0 0)
(0.113437 0.240751 0 -2.27512 0.671944 0 0 0 0)
(-0.214088 -0.483253 0 -0.984752 0.644344 0 0 0 0)
(-0.318439 -0.51331 0 -0.446569 0.596626 0 0 0 0)
(-0.339184 -0.257734 0 -0.189398 0.503008 0 0 0 0)
(-0.269176 -0.0923786 0 -0.115465 0.427127 0 0 0 0)
(-0.103931 -0.0405804 0 -0.0557264 0.385153 0 0 0 0)
(0.0487464 -0.023261 0 -0.0315579 0.3643 0 0 0 0)
(0.125948 -0.012171 0 -0.0218972 0.353401 0 0 0 0)
(0.173516 -0.00692065 0 -0.0172401 0.347327 0 0 0 0)
(0.21101 -0.00448243 0 -0.0138915 0.343073 0 0 0 0)
(0.239273 -0.00326486 0 -0.0110782 0.340055 0 0 0 0)
(0.260686 -0.00234263 0 -0.00911362 0.33796 0 0 0 0)
(0.276706 -0.0018776 0 -0.00756408 0.336238 0 0 0 0)
(0.289286 -0.0015637 0 -0.00616784 0.334825 0 0 0 0)
(0.299312 -0.00128828 0 -0.00482005 0.333631 0 0 0 0)
(0.307457 -0.00117144 0 -0.00349524 0.332691 0 0 0 0)
(0.313394 0.000130257 0 -0.00220719 0.331711 0 0 0 0)
(0.317016 0.000424212 0 -0.00098065 0.332948 0 0 0 0)
(0.320156 -0.00134164 0 0.000174725 0.332456 0 0 0 0)
(0.322643 -0.000810348 0 0.00128032 0.330748 0 0 0 0)
(0.323099 0.00032664 0 0.00237484 0.331126 0 0 0 0)
(0.322285 0.000248231 0 0.00343319 0.331309 0 0 0 0)
(0.320345 0.000309494 0 0.00447607 0.331563 0 0 0 0)
(0.316384 0.000367107 0 0.00550563 0.331848 0 0 0 0)
(0.309886 0.000435292 0 0.00653217 0.332192 0 0 0 0)
(0.300316 0.000532686 0 0.0075668 0.332576 0 0 0 0)
(0.287519 0.000505663 0 0.00860202 0.333081 0 0 0 0)
(0.271452 0.000771087 0 0.0096026 0.333371 0 0 0 0)
(0.251757 -5.52557e-05 0 0.0105328 0.334443 0 0 0 0)
(0.227336 0.000817202 0 0.0110082 0.333192 0 0 0 0)
(0.19578 -0.00159186 0 0.012261 0.335862 0 0 0 0)
(0.160416 0.000428909 0 0.0120872 0.331019 0 0 0 0)
(0.124645 -0.00101349 0 0.0150352 0.335903 0 0 0 0)
(0.100207 0.00115723 0 0.0164566 0.33042 0 0 0 0)
(0.0807769 0.000575965 0 0.0186569 0.33779 0 0 0 0)
(-0.00280564 0.0266885 0 0.0257177 0.330369 0 0 0 0)
(2.20555 0.0245317 0 0.0135082 0.401884 0 0 0 0)
(2.24206 -0.00721062 0 -0.00521907 0.365459 0 0 0 0)
(2.14861 0.930809 0 -1.01052 0.46068 0 0 0 0)
(2.5532 1.16105 0 -1.31578 0.491186 0 0 0 0)
(0.694271 0.0432358 0 -1.06508 0.309023 0 0 0 0)
(0.277935 -0.496889 0 -0.642076 0.291983 0 0 0 0)
(-0.0576168 -0.503256 0 -0.430696 0.383042 0 0 0 0)
(-0.167149 -0.287089 0 -0.243226 0.427081 0 0 0 0)
(-0.189572 -0.138151 0 -0.137448 0.402444 0 0 0 0)
(-0.053871 -0.0686456 0 -0.0569938 0.372608 0 0 0 0)
(0.0684714 -0.0364787 0 -0.0260846 0.359107 0 0 0 0)
(0.132067 -0.0193357 0 -0.0164998 0.350374 0 0 0 0)
(0.176933 -0.0116153 0 -0.0108064 0.345804 0 0 0 0)
(0.21338 -0.00787443 0 -0.00745969 0.341697 0 0 0 0)
(0.24083 -0.00560914 0 -0.00513573 0.338923 0 0 0 0)
(0.261561 -0.00413557 0 -0.0039057 0.336883 0 0 0 0)
(0.277291 -0.00336557 0 -0.00315203 0.335131 0 0 0 0)
(0.289775 -0.00279759 0 -0.0025708 0.333716 0 0 0 0)
(0.299769 -0.00229408 0 -0.00204889 0.332534 0 0 0 0)
(0.307885 -0.0020738 0 -0.00156101 0.331618 0 0 0 0)
(0.313769 0.000277562 0 -0.00112146 0.330675 0 0 0 0)
(0.317319 0.00080084 0 -0.000764057 0.331965 0 0 0 0)
(0.32039 -0.00239539 0 -0.000503162 0.331494 0 0 0 0)
(0.322837 -0.00145116 0 -0.000309835 0.329778 0 0 0 0)
(0.323258 0.000596461 0 -0.000123833 0.330157 0 0 0 0)
(0.3224 0.000457091 0 7.31936e-06 0.330348 0 0 0 0)
(0.320422 0.000564768 0 0.000114888 0.330613 0 0 0 0)
(0.316417 0.000662764 0 0.000183887 0.330907 0 0 0 0)
(0.309865 0.000773759 0 0.000217495 0.33126 0 0 0 0)
(0.300224 0.000950499 0 0.000220045 0.331642 0 0 0 0)
(0.287307 0.000872981 0 0.000144599 0.332182 0 0 0 0)
(0.271057 0.00145973 0 -7.78756e-05 0.332358 0 0 0 0)
(0.250881 -0.000137611 0 -0.000423762 0.333709 0 0 0 0)
(0.226479 0.00158299 0 -0.0016233 0.332082 0 0 0 0)
(0.194449 -0.00242555 0 -0.00168484 0.335071 0 0 0 0)
(0.159661 0.000471287 0 -0.00363786 0.330864 0 0 0 0)
(0.124569 -0.000829445 0 -0.00221106 0.33467 0 0 0 0)
(0.0995321 0.00231169 0 -0.00209635 0.331864 0 0 0 0)
(0.0829311 0.000954133 0 -0.00133784 0.336985 0 0 0 0)
(-0.00591371 0.0600017 0 0.00497331 0.332709 0 0 0 0)
(2.16313 0.0446426 0 0.00666733 0.398929 0 0 0 0)
(2.20516 -0.023291 0 -0.0196647 0.406757 0 0 0 0)
(1.96052 0.815877 0 -0.152211 0.514072 0 0 0 0)
(2.38389 1.04148 0 -0.419437 0.142882 0 0 0 0)
(0.762643 0.0487918 0 -0.437233 0.0918061 0 0 0 0)
(0.397226 -0.411925 0 -0.437244 0.125446 0 0 0 0)
(0.0659064 -0.383125 0 -0.313875 0.278447 0 0 0 0)
(-0.0565998 -0.239037 0 -0.259208 0.351212 0 0 0 0)
(-0.0897154 -0.144871 0 -0.139397 0.366786 0 0 0 0)
(0.00338233 -0.0823421 0 -0.0623997 0.359649 0 0 0 0)
(0.0877679 -0.0446862 0 -0.0333674 0.354413 0 0 0 0)
(0.140671 -0.0249903 0 -0.0226756 0.346875 0 0 0 0)
(0.182227 -0.0152821 0 -0.0144486 0.343906 0 0 0 0)
(0.216474 -0.0111131 0 -0.00995546 0.340341 0 0 0 0)
(0.242698 -0.00790369 0 -0.00712345 0.337619 0 0 0 0)
(0.262598 -0.00599696 0 -0.00550928 0.335578 0 0 0 0)
(0.277993 -0.00493001 0 -0.00443377 0.333755 0 0 0 0)
(0.290349 -0.00406646 0 -0.00357644 0.332314 0 0 0 0)
(0.300285 -0.00330981 0 -0.0028237 0.331129 0 0 0 0)
(0.308351 -0.00296248 0 -0.00213318 0.330226 0 0 0 0)
(0.314162 0.000464637 0 -0.00151498 0.329319 0 0 0 0)
(0.317611 0.00121309 0 -0.00101194 0.330677 0 0 0 0)
(0.320594 -0.00344905 0 -0.000638345 0.330223 0 0 0 0)
(0.323009 -0.00209866 0 -0.000344345 0.328477 0 0 0 0)
(0.323405 0.000876324 0 -4.00417e-05 0.32885 0 0 0 0)
(0.322515 0.000688049 0 0.000207251 0.329053 0 0 0 0)
(0.320515 0.00084838 0 0.000435481 0.329331 0 0 0 0)
(0.316483 0.000990549 0 0.000645739 0.32965 0 0 0 0)
(0.309921 0.0011432 0 0.000817701 0.330024 0 0 0 0)
(0.300246 0.00142136 0 0.000970925 0.330382 0 0 0 0)
(0.287232 0.00119597 0 0.00110127 0.33104 0 0 0 0)
(0.270904 0.00224195 0 0.000974993 0.33097 0 0 0 0)
(0.250268 -0.000321162 0 0.000769876 0.332725 0 0 0 0)
(0.22612 0.00213043 0 -0.000616127 0.330384 0 0 0 0)
(0.193838 -0.00276576 0 -0.000128208 0.333569 0 0 0 0)
(0.159908 4.2364e-05 0 -0.0020165 0.330415 0 0 0 0)
(0.12613 -4.9716e-05 0 -0.000428423 0.332567 0 0 0 0)
(0.101048 0.00338744 0 5.33095e-05 0.332304 0 0 0 0)
(0.0875895 0.0013896 0 0.00124372 0.334662 0 0 0 0)
(0.00490843 0.0863803 0 0.0070542 0.333461 0 0 0 0)
(2.18181 0.0958872 0 0.015619 0.378169 0 0 0 0)
(2.21669 0.000332672 0 -0.0302773 0.402072 0 0 0 0)
(1.8911 0.573116 0 0.0302243 0.561986 0 0 0 0)
(2.27854 0.754143 0 -0.114464 0.181225 0 0 0 0)
(0.677111 0.0264338 0 -0.189077 0.0939689 0 0 0 0)
(0.396807 -0.317034 0 -0.301445 0.129708 0 0 0 0)
(0.113945 -0.285699 0 -0.244876 0.25818 0 0 0 0)
(0.000983917 -0.201963 0 -0.21317 0.314217 0 0 0 0)
(7.97747e-05 -0.13002 0 -0.125374 0.339063 0 0 0 0)
(0.0483033 -0.0805693 0 -0.0667515 0.346582 0 0 0 0)
(0.106751 -0.0487885 0 -0.0404661 0.346311 0 0 0 0)
(0.150297 -0.0294598 0 -0.0278859 0.342994 0 0 0 0)
(0.18919 -0.0179116 0 -0.0187113 0.340274 0 0 0 0)
(0.220438 -0.0139329 0 -0.0131653 0.337564 0 0 0 0)
(0.245114 -0.0101993 0 -0.00987326 0.334938 0 0 0 0)
(0.264152 -0.00785929 0 -0.00777601 0.332938 0 0 0 0)
(0.279153 -0.00651069 0 -0.00625865 0.331109 0 0 0 0)
(0.291327 -0.0053279 0 -0.00502677 0.329689 0 0 0 0)
(0.30116 -0.00430613 0 -0.00393885 0.328527 0 0 0 0)
(0.309146 -0.00381807 0 -0.00295721 0.327653 0 0 0 0)
(0.31485 0.000712506 0 -0.00207933 0.326796 0 0 0 0)
(0.318164 0.00167205 0 -0.00135921 0.328247 0 0 0 0)
(0.321033 -0.00451524 0 -0.000808226 0.32781 0 0 0 0)
(0.323413 -0.0027746 0 -0.000356523 0.32601 0 0 0 0)
(0.32379 0.00115145 0 0.000119353 0.326367 0 0 0 0)
(0.322858 0.00092069 0 0.000521363 0.326571 0 0 0 0)
(0.320844 0.00113919 0 0.000918301 0.326861 0 0 0 0)
(0.316785 0.00133072 0 0.00127431 0.327166 0 0 0 0)
(0.310178 0.00147914 0 0.00162571 0.327586 0 0 0 0)
(0.300497 0.00192943 0 0.00193129 0.327881 0 0 0 0)
(0.287311 0.00144007 0 0.00217092 0.328684 0 0 0 0)
(0.270738 0.0030831 0 0.00215522 0.32821 0 0 0 0)
(0.249348 -0.000702182 0 0.00219657 0.330601 0 0 0 0)
(0.225613 0.00239624 0 0.000466489 0.327466 0 0 0 0)
(0.193099 -0.00239551 0 0.00106682 0.330555 0 0 0 0)
(0.159372 -0.000493387 0 -0.000147603 0.328866 0 0 0 0)
(0.126563 0.000990448 0 0.00176969 0.329859 0 0 0 0)
(0.101143 0.0043301 0 0.00300527 0.331203 0 0 0 0)
(0.0896774 0.00206935 0 0.00465489 0.331795 0 0 0 0)
(0.00793879 0.101926 0 0.00941259 0.332845 0 0 0 0)
(2.12715 0.110758 0 0.017651 0.365988 0 0 0 0)
(2.16093 -0.000257453 0 -0.0792465 0.394963 0 0 0 0)
(1.82109 0.448961 0 0.0557023 0.416354 0 0 0 0)
(2.17256 0.590486 0 -0.0327873 0.187678 0 0 0 0)
(0.582461 -0.00085198 0 -0.103194 0.124521 0 0 0 0)
(0.343457 -0.253685 0 -0.207407 0.159861 0 0 0 0)
(0.150972 -0.205325 0 -0.204265 0.252873 0 0 0 0)
(0.0585563 -0.161095 0 -0.154582 0.300505 0 0 0 0)
(0.0513785 -0.113684 0 -0.104438 0.324283 0 0 0 0)
(0.0852028 -0.0753577 0 -0.0621418 0.334935 0 0 0 0)
(0.12522 -0.0481439 0 -0.0427664 0.337177 0 0 0 0)
(0.161634 -0.030808 0 -0.0292656 0.338077 0 0 0 0)
(0.196413 -0.0205139 0 -0.0208025 0.335418 0 0 0 0)
(0.224991 -0.0162549 0 -0.0153472 0.33328 0 0 0 0)
(0.247891 -0.0123617 0 -0.0119218 0.330894 0 0 0 0)
(0.266081 -0.00968679 0 -0.00954348 0.328922 0 0 0 0)
(0.280642 -0.00806064 0 -0.00773546 0.327149 0 0 0 0)
(0.292585 -0.00655497 0 -0.00618583 0.32576 0 0 0 0)
(0.302279 -0.0052718 0 -0.00481554 0.324641 0 0 0 0)
(0.310143 -0.00463082 0 -0.00359736 0.323803 0 0 0 0)
(0.315702 0.0010371 0 -0.0025161 0.323 0 0 0 0)
(0.318836 0.00219033 0 -0.00163927 0.324573 0 0 0 0)
(0.32156 -0.0056047 0 -0.000976173 0.324151 0 0 0 0)
(0.323902 -0.00348899 0 -0.000435879 0.322277 0 0 0 0)
(0.324251 0.00141659 0 0.000143772 0.322617 0 0 0 0)
(0.323285 0.00116435 0 0.000629232 0.322827 0 0 0 0)
(0.321241 0.00142121 0 0.00110215 0.323117 0 0 0 0)
(0.317165 0.00168884 0 0.00155998 0.323446 0 0 0 0)
(0.310554 0.00183275 0 0.00190873 0.323883 0 0 0 0)
(0.300771 0.00247982 0 0.00231953 0.324127 0 0 0 0)
(0.287448 0.00151264 0 0.00255987 0.325335 0 0 0 0)
(0.270929 0.00408914 0 0.00193854 0.324025 0 0 0 0)
(0.24864 -0.00103812 0 0.00201027 0.327247 0 0 0 0)
(0.225032 0.00208629 0 -0.000444181 0.323574 0 0 0 0)
(0.193247 -0.00141607 0 -0.000407806 0.326365 0 0 0 0)
(0.160586 -0.000628379 0 -0.00309353 0.325466 0 0 0 0)
(0.129169 0.00220184 0 -0.00184532 0.32551 0 0 0 0)
(0.103829 0.00525279 0 -0.00263905 0.327597 0 0 0 0)
(0.0937638 0.00297153 0 -0.00316497 0.32614 0 0 0 0)
(0.0174319 0.11933 0 -0.00300035 0.328729 0 0 0 0)
(2.09637 0.155746 0 0.0241443 0.344269 0 0 0 0)
(2.12332 0.0282533 0 -0.081323 0.38295 0 0 0 0)
(1.80582 0.352756 0 -0.012431 0.380852 0 0 0 0)
(2.12542 0.472923 0 -0.0272305 0.190188 0 0 0 0)
(0.508841 -0.000371018 0 -0.0897013 0.15174 0 0 0 0)
(0.299412 -0.193349 0 -0.164247 0.191532 0 0 0 0)
(0.16485 -0.15017 0 -0.167973 0.259648 0 0 0 0)
(0.0971808 -0.13315 0 -0.134719 0.290255 0 0 0 0)
(0.0891583 -0.0968422 0 -0.0931652 0.313379 0 0 0 0)
(0.107732 -0.0681446 0 -0.0635676 0.324235 0 0 0 0)
(0.138432 -0.0457606 0 -0.0458705 0.328735 0 0 0 0)
(0.171463 -0.0311542 0 -0.032532 0.330506 0 0 0 0)
(0.202602 -0.0225343 0 -0.023911 0.328811 0 0 0 0)
(0.228996 -0.0182929 0 -0.0181716 0.326964 0 0 0 0)
(0.250707 -0.0143996 0 -0.0142129 0.32492 0 0 0 0)
(0.268187 -0.0114677 0 -0.0114895 0.323085 0 0 0 0)
(0.282389 -0.009557 0 -0.00926055 0.321397 0 0 0 0)
(0.294141 -0.00774488 0 -0.00734688 0.320073 0 0 0 0)
(0.303654 -0.00619179 0 -0.0056705 0.319026 0 0 0 0)
(0.311362 -0.00539959 0 -0.00421048 0.318225 0 0 0 0)
(0.316737 0.00145412 0 -0.00292984 0.317478 0 0 0 0)
(0.319648 0.00278154 0 -0.00189606 0.319202 0 0 0 0)
(0.322193 -0.0067281 0 -0.0011232 0.318794 0 0 0 0)
(0.324493 -0.00425311 0 -0.000499375 0.316824 0 0 0 0)
(0.324816 0.00168176 0 0.00017994 0.317148 0 0 0 0)
(0.323782 0.00140289 0 0.000757387 0.317376 0 0 0 0)
(0.321741 0.00173586 0 0.00132354 0.317656 0 0 0 0)
(0.317562 0.00206833 0 0.00191569 0.317969 0 0 0 0)
(0.31091 0.0021356 0 0.00252631 0.318564 0 0 0 0)
(0.301124 0.00332869 0 0.00303814 0.318424 0 0 0 0)
(0.286944 0.00134163 0 0.00397219 0.320241 0 0 0 0)
(0.270208 0.00492565 0 0.00380744 0.318298 0 0 0 0)
(0.247052 -0.0011371 0 0.00456117 0.322009 0 0 0 0)