/*--------------------------------*- C++ -*----------------------------------*\
| =========                 |                                                 |
| \\      /  F ield         | OpenFOAM: The Open Source CFD Toolbox           |
|  \\    /   O peration     | Version:  v1912                                 |
|   \\  /    A nd           | Website:  www.openfoam.com                      |
|    \\/     M anipulation  |                                                 |
\*---------------------------------------------------------------------------*/
FoamFile
{
    version     2.0;
    format      ascii;
    class       volScalarField;
    location    "4.24";
    object      Ma;
}
// * * * * * * * * * * * * * * * * * * * * * * * * * * * * * * * * * * * * * //

dimensions      [0 0 0 0 0 0 0];


internalField   nonuniform List<scalar> 
1900
(
0.739396
0.109245
0.0627508
0.0546879
0.0476692
0.0394012
0.0318227
0.0239204
0.0151053
0.00444919
0.739396
0.109248
0.0627786
0.0547201
0.0477037
0.0393649
0.031454
0.0225755
0.0129528
0.00234806
0.739397
0.10925
0.062792
0.0547266
0.0476848
0.0392684
0.0311394
0.021857
0.0117667
0.000229603
0.739396
0.109248
0.0627786
0.0547201
0.0477037
0.0393649
0.031454
0.0225755
0.0129528
0.00234806
0.739396
0.109245
0.0627508
0.0546879
0.0476692
0.0394012
0.0318227
0.0239204
0.0151053
0.00444919
0.00499347
0.0155005
0.0305158
0.0553437
0.100132
0.0071618
0.0170224
0.0312743
0.0535996
0.0936652
0.00940316
0.018099
0.0317295
0.0550767
0.0961355
0.0071618
0.0170224
0.0312743
0.0535996
0.0936652
0.00499347
0.0155005
0.0305158
0.0553437
0.100132
0.160107
0.175312
0.198812
0.218051
0.21459
0.157929
0.174923
0.194185
0.229399
0.288682
0.158446
0.174214
0.193565
0.234173
0.320179
0.157929
0.174923
0.194185
0.229399
0.288682
0.160107
0.175312
0.198812
0.218051
0.21459
0.0972473
0.379741
0.28145
0.213517
0.257861
0.307898
0.349915
0.393056
0.416521
0.413785
0.392307
0.361929
0.327189
0.289177
0.248409
0.205399
0.160696
0.114984
0.0696758
0.0338264
0.048286
0.0929538
0.14225
0.192619
0.243263
0.293773
0.343916
0.393541
0.44252
0.490753
0.537972
0.583317
0.62556
0.662762
0.695566
0.72125
0.743723
0.756783
0.758015
1.69794
0.455828
0.673955
0.396538
0.116414
0.2195
0.303508
0.3485
0.392451
0.416348
0.413949
0.392467
0.361914
0.326968
0.288705
0.247617
0.204179
0.158852
0.112089
0.0644435
0.0203858
0.0401036
0.0891812
0.140008
0.191176
0.242333
0.293214
0.343645
0.393504
0.442678
0.491078
0.53843
0.583899
0.626193
0.663449
0.696209
0.721794
0.744223
0.757155
0.758171
1.69702
0.540656
0.745933
0.458694
0.0532266
0.200296
0.304959
0.35092
0.394316
0.417111
0.414573
0.393056
0.362315
0.327184
0.288749
0.247493
0.203866
0.158296
0.111147
0.0626246
0.0131653
0.0369947
0.0879169
0.139298
0.190762
0.242123
0.29317
0.343754
0.393766
0.443108
0.491705
0.539291
0.585065
0.627745
0.665477
0.698857
0.725068
0.748278
0.761696
0.762185
1.70112
0.455828
0.673955
0.396538
0.116414
0.2195
0.303508
0.3485
0.392451
0.416348
0.413949
0.392467
0.361914
0.326968
0.288705
0.247617
0.204179
0.158852
0.112089
0.0644435
0.0203858
0.0401036
0.0891812
0.140008
0.191176
0.242333
0.293214
0.343645
0.393504
0.442678
0.491078
0.53843
0.583899
0.626193
0.663449
0.696209
0.721794
0.744223
0.757155
0.758171
1.69702
0.0972473
0.379741
0.28145
0.213517
0.257861
0.307898
0.349915
0.393056
0.416521
0.413785
0.392307
0.361929
0.327189
0.289177
0.248409
0.205399
0.160696
0.114984
0.0696758
0.0338264
0.048286
0.0929538
0.14225
0.192619
0.243263
0.293773
0.343916
0.393541
0.44252
0.490753
0.537972
0.583317
0.62556
0.662762
0.695566
0.72125
0.743723
0.756783
0.758015
1.69794
0.91514
0.320246
0.396712
0.372304
0.339598
0.336827
0.370845
0.407927
0.426248
0.420507
0.398758
0.368422
0.333807
0.296111
0.255947
0.213985
0.171077
0.128635
0.0899896
0.0661424
0.0745326
0.108952
0.153426
0.201285
0.250466
0.300062
0.349608
0.398835
0.447557
0.49561
0.54276
0.588005
0.630415
0.667676
0.700861
0.72697
0.749988
0.76389
0.76559
1.69812
1.47364
0.742007
0.651006
0.528023
0.445229
0.408734
0.420295
0.439264
0.445437
0.435246
0.412771
0.382829
0.348994
0.312561
0.274342
0.235305
0.196775
0.160946
0.131834
0.117032
0.121838
0.145182
0.181026
0.223114
0.268405
0.315276
0.36284
0.41057
0.458138
0.505201
0.551636
0.596008
0.638124
0.674747
0.707879
0.733826
0.756875
0.77134
0.774332
1.69852
1.60114
0.866229
0.759476
0.612273
0.524462
0.484249
0.476764
0.47671
0.472517
0.457253
0.433438
0.40377
0.370982
0.336262
0.300543
0.264993
0.231133
0.201217
0.178527
0.16812
0.171362
0.18831
0.217193
0.253397
0.294119
0.337503
0.382384
0.428007
0.473921
0.519514
0.564919
0.608006
0.649725
0.685571
0.71867
0.744523
0.767863
0.783217
0.791853
1.71994
1.63342
0.909873
0.804305
0.672136
0.589072
0.553766
0.529662
0.519038
0.505257
0.485626
0.460227
0.430683
0.398938
0.366015
0.332836
0.300614
0.270819
0.24542
0.226889
0.219027
0.221381
0.234355
0.258211
0.289424
0.325784
0.365559
0.407511
0.450736
0.494741
0.538553
0.582776
0.624272
0.66546
0.700461
0.733379
0.758969
0.78225
0.797892
0.808492
1.71003
1.64084
0.934666
0.830432
0.718072
0.647719
0.613397
0.581616
0.561924
0.541605
0.518334
0.49159
0.462141
0.431391
0.400193
0.369359
0.340044
0.313545
0.291494
0.275761
0.269576
0.271345
0.281614
0.301835
0.329048
0.361578
0.397948
0.436992
0.477721
0.519712
0.561517
0.604515
0.644283
0.684861
0.719118
0.751982
0.777549
0.801037
0.81752
0.832681
1.72466
1.6385
0.950577
0.851994
0.7602
0.701109
0.662322
0.62927
0.603793
0.579317
0.553632
0.526052
0.496865
0.46711
0.437511
0.408738
0.381849
0.357949
0.338379
0.324602
0.319624
0.32097
0.329262
0.3468
0.370856
0.400155
0.433483
0.469802
0.508058
0.548048
0.587617
0.629265
0.667016
0.706612
0.739662
0.771783
0.796431
0.818673
0.834098
0.854264
1.71929
1.65948
0.974062
0.880422
0.802897
0.752396
0.710709
0.67689
0.647244
0.619529
0.591748
0.563317
0.534246
0.5053
0.47705
0.449988
0.425058
0.403185
0.38547
0.373108
0.369064
0.370082
0.376844
0.392348
0.413913
0.440537
0.47124
0.505158
0.541126
0.579396
0.616897
0.657615
0.693859
0.733074
0.766057
0.798474
0.823908
0.84648
0.862457
0.887643
1.7322
1.67719
0.991391
0.903652
0.838784
0.794442
0.751014
0.716789
0.685559
0.656785
0.62857
0.600425
0.572194
0.544448
0.517641
0.492178
0.468925
0.44869
0.432407
0.421111
0.417838
0.418591
0.424105
0.438018
0.457573
0.481936
0.510287
0.541945
0.575514
0.611847
0.646585
0.685693
0.719388
0.756791
0.78813
0.819168
0.843327
0.864386
0.878641
0.913114
1.73199
1.69831
1.01808
0.935339
0.879932
0.839712
0.795977
0.76156
0.729279
0.699098
0.669739
0.641099
0.612913
0.585668
0.559697
0.535314
0.513266
0.494243
0.479021
0.468521
0.465908
0.466439
0.470904
0.483574
0.501555
0.524131
0.550639
0.580624
0.612377
0.647752
0.680659
0.719398
0.752283
0.78946
0.821047
0.852463
0.877242
0.898391
0.91226
0.952192
1.73977
1.70214
1.03719
0.958998
0.912854
0.876013
0.832142
0.798218
0.765086
0.734883
0.705565
0.677712
0.650665
0.624856
0.600392
0.577524
0.556893
0.539142
0.524938
0.515177
0.513217
0.513559
0.517053
0.528598
0.54509
0.565847
0.590281
0.618215
0.647295
0.680881
0.710738
0.747752
0.778417
0.814117
0.844601
0.875586
0.899373
0.919836
0.931802
0.981976
1.74058
1.71237
1.06279
0.98791
0.950135
0.915321
0.872263
0.839993
0.806188
0.776602
0.746928
0.719384
0.692564
0.66724
0.643236
0.620944
0.600932
0.583821
0.570166
0.560853
0.559442
0.559613
0.562302
0.573084
0.588651
0.608332
0.631579
0.658628
0.686203
0.719367
0.7475
0.784031
0.813666
0.848773
0.879008
0.9106
0.934353
0.954903
0.965793
1.02018
1.74462
1.71837
1.08659
1.01429
0.983016
0.947133
0.907708
0.876808
0.841891
0.813163
0.782988
0.756005
0.72953
0.705116
0.681949
0.660692
0.641761
0.625709
0.612949
0.604344
0.603648
0.603657
0.605406
0.615182
0.629441
0.647568
0.668985
0.694589
0.719906
0.752316
0.778186
0.813935
0.842187
0.87661
0.905733
0.93767
0.960635
0.980761
0.990132
1.0494
1.7439
1.72919
1.11421
1.04409
1.01806
0.979707
0.945607
0.914749
0.879353
0.851778
0.82088
0.794706
0.768328
0.744565
0.721607
0.700711
0.682034
0.666187
0.653509
0.644982
0.644712
0.64458
0.645755
0.655249
0.669153
0.686787
0.7074
0.732545
0.756262
0.788587
0.812771
0.848051
0.875675
0.910584
0.939664
0.973129
0.996002
1.0163
1.02451
1.08306
1.74592
1.73401
1.13998
1.07273
1.04982
1.01291
0.983272
0.949156
0.913686
0.886372
0.854797
0.82962
0.802328
0.778845
0.755752
0.735007
0.716503
0.700948
0.688544
0.680333
0.680669
0.680339
0.680678
0.689575
0.702835
0.719789
0.739435
0.764441
0.786474
0.819225
0.84229
0.877642
0.904084
0.938957
0.967157
1.00049
1.02365
1.04386
1.05199
1.10911
1.74347
1.74001
1.16361
1.09869
1.07846
1.04191
1.01586
0.979247
0.94738
0.92008
0.887065
0.862392
0.833835
0.811082
0.78759
0.766802
0.748151
0.732549
0.720034
0.711762
0.712521
0.712113
0.711976
0.720788
0.733947
0.750764
0.769803
0.795118
0.815735
0.848798
0.870934
0.906723
0.93319
0.969533
0.997699
1.0323
1.05428
1.07461
1.08088
1.13427
1.74029
1.7398
1.18478
1.12242
1.10483
1.07046
1.04386
1.00594
0.975746
0.946359
0.912593
0.88955
0.859547
0.837002
0.812715
0.79189
0.773109
0.757467
0.744792
0.736282
0.737414
0.736849
0.736125
0.744844
0.757896
0.774607
0.792844
0.818802
0.838117
0.872106
0.893309
0.929367
0.954695
0.990946
1.01864
1.05235
1.0765
1.09622
1.10296
1.15255
1.72931
1.7284
1.19175
1.13401
1.11921
1.0866
1.06088
1.02337
0.99708
0.963886
0.933556
0.90999
0.878624
0.85771
0.8334
0.813207
0.794291
0.778509
0.765381
0.756775
0.758546
0.757901
0.756695
0.76559
0.778838
0.795725
0.81289
0.83904
0.856322
0.890213
0.910206
0.945966
0.970769
1.00705
1.03486
1.06824
1.09196
1.11039
1.11409
1.15853
1.70581
1.68773
1.18514
1.13053
1.1227
1.09462
1.0699
1.03265
1.00707
0.972575
0.944798
0.921293
0.891149
0.872
0.847122
0.827785
0.808359
0.79201
0.777802
0.768546
0.770233
0.769407
0.768496
0.778235
0.792202
0.810077
0.826651
0.853661
0.869467
0.903289
0.921865
0.956768
0.980058
1.01517
1.04217
1.07436
1.09814
1.11363
1.11587
1.15364
1.64862
1.73823
1.14551
1.1438
1.14871
1.1307
1.11156
1.08006
1.05297
1.01587
0.984486
0.951566
0.916075
0.887643
0.856668
0.830833
0.807204
0.787002
0.773072
0.761821
0.764063
0.763618
0.761749
0.773717
0.787135
0.809739
0.830909
0.863447
0.888576
0.927603
0.957362
0.996862
1.02956
1.06584
1.09497
1.12488
1.14608
1.15565
1.15072
1.13216
1.71193
2.40753
1.7267
1.64821
1.69831
1.71674
1.72612
1.72963
1.73375
1.73466
1.73854
1.73534
1.73554
1.72957
1.7266
1.71977
1.71718
1.7049
1.71162
1.69501
1.71675
1.717
1.69397
1.71325
1.7012
1.72164
1.71675
1.73107
1.73115
1.74
1.74148
1.74609
1.74466
1.74597
1.74249
1.73961
1.72982
1.70733
1.64925
1.70544
2.39774
2.40753
1.7267
1.64821
1.69831
1.71674
1.72612
1.72963
1.73375
1.73466
1.73854
1.73534
1.73554
1.72957
1.7266
1.71977
1.71718
1.7049
1.71162
1.69501
1.71675
1.717
1.69397
1.71325
1.7012
1.72164
1.71675
1.73107
1.73115
1.74
1.74148
1.74609
1.74466
1.74597
1.74249
1.73961
1.72982
1.70733
1.64925
1.70544
2.39774
1.73823
1.14551
1.1438
1.14871
1.1307
1.11156
1.08006
1.05297
1.01587
0.984486
0.951566
0.916075
0.887643
0.856668
0.830833
0.807204
0.787002
0.773072
0.761821
0.764063
0.763618
0.761749
0.773717
0.787135
0.809739
0.830909
0.863447
0.888576
0.927603
0.957362
0.996862
1.02956
1.06584
1.09497
1.12488
1.14608
1.15565
1.15072
1.13216
1.71193
1.68773
1.18514
1.13053
1.1227
1.09462
1.0699
1.03265
1.00707
0.972575
0.944798
0.921293
0.891149
0.872
0.847122
0.827785
0.808359
0.79201
0.777802
0.768546
0.770233
0.769407
0.768496
0.778235
0.792202
0.810077
0.826651
0.853661
0.869467
0.903289
0.921865
0.956768
0.980058
1.01517
1.04217
1.07436
1.09814
1.11363
1.11587
1.15364
1.64862
1.7284
1.19175
1.13401
1.11921
1.0866
1.06088
1.02337
0.99708
0.963886
0.933556
0.90999
0.878624
0.85771
0.8334
0.813207
0.794291
0.778509
0.765381
0.756775
0.758546
0.757901
0.756695
0.76559
0.778838
0.795725
0.81289
0.83904
0.856322
0.890213
0.910206
0.945966
0.970769
1.00705
1.03486
1.06824
1.09196
1.11039
1.11409
1.15853
1.70581
1.7398
1.18478
1.12242
1.10483
1.07046
1.04386
1.00594
0.975746
0.946359
0.912593
0.88955
0.859547
0.837002
0.812715
0.79189
0.773109
0.757467
0.744792
0.736282
0.737414
0.736849
0.736125
0.744844
0.757896
0.774607
0.792844
0.818802
0.838117
0.872106
0.893309
0.929367
0.954695
0.990946
1.01864
1.05235
1.0765
1.09622
1.10296
1.15255
1.72931
1.74001
1.16361
1.09869
1.07846
1.04191
1.01586
0.979247
0.94738
0.92008
0.887065
0.862392
0.833835
0.811082
0.78759
0.766802
0.748151
0.732549
0.720034
0.711762
0.712521
0.712113
0.711976
0.720788
0.733947
0.750764
0.769803
0.795118
0.815735
0.848798
0.870934
0.906723
0.93319
0.969533
0.997699
1.0323
1.05428
1.07461
1.08088
1.13427
1.74029
1.73401
1.13998
1.07273
1.04982
1.01291
0.983272
0.949156
0.913686
0.886372
0.854797
0.82962
0.802328
0.778845
0.755752
0.735007
0.716503
0.700948
0.688544
0.680333
0.680669
0.680339
0.680678
0.689575
0.702835
0.719789
0.739435
0.764441
0.786474
0.819225
0.84229
0.877642
0.904084
0.938957
0.967157
1.00049
1.02365
1.04386
1.05199
1.10911
1.74347
1.72919
1.11421
1.04409
1.01806
0.979707
0.945607
0.914749
0.879353
0.851778
0.82088
0.794706
0.768328
0.744565
0.721607
0.700711
0.682034
0.666187
0.653509
0.644982
0.644712
0.64458
0.645755
0.655249
0.669153
0.686787
0.7074
0.732545
0.756262
0.788587
0.812771
0.848051
0.875675
0.910584
0.939664
0.973129
0.996002
1.0163
1.02451
1.08306
1.74592
1.71837
1.08659
1.01429
0.983016
0.947133
0.907708
0.876808
0.841891
0.813163
0.782988
0.756005
0.72953
0.705116
0.681949
0.660692
0.641761
0.625709
0.612949
0.604344
0.603648
0.603657
0.605406
0.615182
0.629441
0.647568
0.668985
0.694589
0.719906
0.752316
0.778186
0.813935
0.842187
0.87661
0.905733
0.93767
0.960635
0.980761
0.990132
1.0494
1.7439
1.71237
1.06279
0.98791
0.950135
0.915321
0.872263
0.839993
0.806188
0.776602
0.746928
0.719384
0.692564
0.66724
0.643236
0.620944
0.600932
0.583821
0.570166
0.560853
0.559442
0.559613
0.562302
0.573084
0.588651
0.608332
0.631579
0.658628
0.686203
0.719367
0.7475
0.784031
0.813666
0.848773
0.879008
0.9106
0.934353
0.954903
0.965793
1.02018
1.74462
1.70214
1.03719
0.958998
0.912854
0.876013
0.832142
0.798218
0.765086
0.734883
0.705565
0.677712
0.650665
0.624856
0.600392
0.577524
0.556893
0.539142
0.524938
0.515177
0.513217
0.513559
0.517053
0.528598
0.54509
0.565847
0.590281
0.618215
0.647295
0.680881
0.710738
0.747752
0.778417
0.814117
0.844601
0.875586
0.899373
0.919836
0.931802
0.981976
1.74058
1.69831
1.01808
0.935339
0.879932
0.839712
0.795977
0.76156
0.729279
0.699098
0.669739
0.641099
0.612913
0.585668
0.559697
0.535314
0.513266
0.494243
0.479021
0.468521
0.465908
0.466439
0.470904
0.483574
0.501555
0.524131
0.550639
0.580624
0.612377
0.647752
0.680659
0.719398
0.752283
0.78946
0.821047
0.852463
0.877242
0.898391
0.91226
0.952192
1.73977
1.67719
0.991391
0.903652
0.838784
0.794442
0.751014
0.716789
0.685559
0.656785
0.62857
0.600425
0.572194
0.544448
0.517641
0.492178
0.468925
0.44869
0.432407
0.421111
0.417838
0.418591
0.424105
0.438018
0.457573
0.481936
0.510287
0.541945
0.575514
0.611847
0.646585
0.685693
0.719388
0.756791
0.78813
0.819168
0.843327
0.864386
0.878641
0.913114
1.73199
1.65948
0.974062
0.880422
0.802897
0.752396
0.710709
0.67689
0.647244
0.619529
0.591748
0.563317
0.534246
0.5053
0.47705
0.449988
0.425058
0.403185
0.38547
0.373108
0.369064
0.370082
0.376844
0.392348
0.413913
0.440537
0.47124
0.505158
0.541126
0.579396
0.616897
0.657615
0.693859
0.733074
0.766057
0.798474
0.823908
0.84648
0.862457
0.887643
1.7322
1.6385
0.950577
0.851994
0.7602
0.701109
0.662322
0.62927
0.603793
0.579317
0.553632
0.526052
0.496865
0.46711
0.437511
0.408738
0.381849
0.357949
0.338379
0.324602
0.319624
0.32097
0.329262
0.3468
0.370856
0.400155
0.433483
0.469802
0.508058
0.548048
0.587617
0.629265
0.667016
0.706612
0.739662
0.771783
0.796431
0.818673
0.834098
0.854264
1.71929
1.64084
0.934666
0.830432
0.718072
0.647719
0.613397
0.581616
0.561924
0.541605
0.518334
0.49159
0.462141
0.431391
0.400193
0.369359
0.340044
0.313545
0.291494
0.275761
0.269576
0.271345
0.281614
0.301835
0.329048
0.361578
0.397948
0.436992
0.477721
0.519712
0.561517
0.604515
0.644283
0.684861
0.719118
0.751982
0.777549
0.801037
0.81752
0.832681
1.72466
1.63342
0.909873
0.804305
0.672136
0.589072
0.553766
0.529662
0.519038
0.505257
0.485626
0.460227
0.430683
0.398938
0.366015
0.332836
0.300614
0.270819
0.24542
0.226889
0.219027
0.221381
0.234355
0.258211
0.289424
0.325784
0.365559
0.407511
0.450736
0.494741
0.538553
0.582776
0.624272
0.66546
0.700461
0.733379
0.758969
0.78225
0.797892
0.808492
1.71003
1.60114
0.866229
0.759476
0.612273
0.524462
0.484249
0.476764
0.47671
0.472517
0.457253
0.433438
0.40377
0.370982
0.336262
0.300543
0.264993
0.231133
0.201217
0.178527
0.16812
0.171362
0.18831
0.217193
0.253397
0.294119
0.337503
0.382384
0.428007
0.473921
0.519514
0.564919
0.608006
0.649725
0.685571
0.71867
0.744523
0.767863
0.783217
0.791853
1.71994
1.47364
0.742007
0.651006
0.528023
0.445229
0.408734
0.420295
0.439264
0.445437
0.435246
0.412771
0.382829
0.348994
0.312561
0.274342
0.235305
0.196775
0.160946
0.131834
0.117032
0.121838
0.145182
0.181026
0.223114
0.268405
0.315276
0.36284
0.41057
0.458138
0.505201
0.551636
0.596008
0.638124
0.674747
0.707879
0.733826
0.756875
0.77134
0.774332
1.69852
0.91514
0.320246
0.396712
0.372304
0.339598
0.336827
0.370845
0.407927
0.426248
0.420507
0.398758
0.368422
0.333807
0.296111
0.255947
0.213985
0.171077
0.128635
0.0899896
0.0661424
0.0745326
0.108952
0.153426
0.201285
0.250466
0.300062
0.349608
0.398835
0.447557
0.49561
0.54276
0.588005
0.630415
0.667676
0.700861
0.72697
0.749988
0.76389
0.76559
1.69812
)
;

boundaryField
{
    inlet
    {
        type            calculated;
        value           uniform 0;
    }
    outlet
    {
        type            calculated;
        value           nonuniform List<scalar> 
165
(
0.91514
1.47364
1.60114
1.63342
1.64084
1.6385
1.65948
1.67719
1.69831
1.70214
1.71237
1.71837
1.72919
1.73401
1.74001
1.7398
1.7284
1.68773
1.73823
2.40753
2.40753
1.7267
1.64821
1.69831
1.71674
1.72612
1.72963
1.73375
1.73466
1.73854
1.73534
1.73554
1.72957
1.7266
1.71977
1.71718
1.7049
1.71162
1.69501
1.71675
1.717
1.69397
1.71325
1.7012
1.72164
1.71675
1.73107
1.73115
1.74
1.74148
1.74609
1.74466
1.74597
1.74249
1.73961
1.72982
1.70733
1.64925
1.70544
2.39774
1.69812
1.69852
1.71994
1.71003
1.72466
1.71929
1.7322
1.73199
1.73977
1.74058
1.74462
1.7439
1.74592
1.74347
1.74029
1.72931
1.70581
1.64862
1.71193
2.39774
1.69794
1.69702
1.70112
1.69702
1.69794
2.39774
1.71193
1.64862
1.70581
1.72931
1.74029
1.74347
1.74592
1.7439
1.74462
1.74058
1.73977
1.73199
1.7322
1.71929
1.72466
1.71003
1.71994
1.69852
1.69812
2.40753
1.7267
1.64821
1.69831
1.71674
1.72612
1.72963
1.73375
1.73466
1.73854
1.73534
1.73554
1.72957
1.7266
1.71977
1.71718
1.7049
1.71162
1.69501
1.71675
1.717
1.69397
1.71325
1.7012
1.72164
1.71675
1.73107
1.73115
1.74
1.74148
1.74609
1.74466
1.74597
1.74249
1.73961
1.72982
1.70733
1.64925
1.70544
2.39774
2.40753
1.73823
1.68773
1.7284
1.7398
1.74001
1.73401
1.72919
1.71837
1.71237
1.70214
1.69831
1.67719
1.65948
1.6385
1.64084
1.63342
1.60114
1.47364
0.91514
)
;
    }
    obstacle
    {
        type            calculated;
        value           nonuniform List<scalar> 
40
(
0.739396
0.109245
0.0627508
0.0546879
0.0476692
0.039401
0.0318194
0.0239012
0.0151045
0.00444743
0.739396
0.109245
0.0627508
0.0546879
0.0476692
0.039401
0.0318194
0.0239012
0.0151045
0.00444743
0.00161939
0.0126789
0.0283152
0.0532407
0.0951719
0.00161939
0.0126789
0.0283152
0.0532407
0.0951719
0.159441
0.175243
0.198656
0.217158
0.210528
0.159441
0.175243
0.198656
0.217158
0.210528
)
;
    }
    empty
    {
        type            empty;
    }
}


// ************************************************************************* //
