/*--------------------------------*- C++ -*----------------------------------*\
| =========                 |                                                 |
| \\      /  F ield         | OpenFOAM: The Open Source CFD Toolbox           |
|  \\    /   O peration     | Version:  v1912                                 |
|   \\  /    A nd           | Website:  www.openfoam.com                      |
|    \\/     M anipulation  |                                                 |
\*---------------------------------------------------------------------------*/
FoamFile
{
    version     2.0;
    format      ascii;
    class       volScalarField;
    location    "1.2";
    object      p;
}
// * * * * * * * * * * * * * * * * * * * * * * * * * * * * * * * * * * * * * //

dimensions      [1 -1 -2 0 0 0 0];


internalField   nonuniform List<scalar> 
1900
(
10000
10000
10000
10001
10021.9
10133
10348.6
10558.2
10652
10758.3
10000
10000
10000
10001
10021.8
10131.8
10346.1
10554.5
10665.8
10741.5
10000
10000
10000
10001
10021.8
10131.6
10345.8
10553
10667.9
10722.7
10000
10000
10000
10001
10021.8
10131.8
10346.1
10554.5
10665.8
10741.5
10000
10000
10000
10001
10021.9
10133
10348.6
10558.2
10652
10758.3
10695.2
10720.3
10696.9
10601
10019.9
10738.2
10750.9
10706.1
10663.9
10387
10719.5
10728.3
10680.6
10618.2
10340.2
10738.2
10750.9
10706.1
10663.9
10387
10695.2
10720.3
10696.9
10601
10019.9
11557.8
11490.4
11690.9
11765.2
12079.5
11413.7
11466.1
11687.2
11831
11783.6
11409.4
11471.5
11678.1
11795.8
11512.7
11413.7
11466.1
11687.2
11831
11783.6
11557.8
11490.4
11690.9
11765.2
12079.5
10372.5
5963.28
6360.7
6418.19
6597.81
6982.04
7518.06
8154.22
8823.33
9424.92
9826.31
9976.88
9999.1
9999.99
10000
10000
10000
10000
10000
10000
10000
10000
10000
10000
10000
10000
9999.99
9998.92
9972.94
9801.76
9354.33
8688.52
7939.27
7191.15
6484.85
5848.24
5300.49
4847.63
4283.58
14677.4
10477.3
6298.54
6534.39
6460.6
6597.65
6987.88
7518.72
8155.52
8824.86
9425.99
9826.78
9976.97
9999.11
9999.99
10000
10000
10000
10000
10000
10000
10000
10000
10000
10000
10000
10000
9999.99
9998.92
9972.94
9801.76
9354.33
8688.52
7939.27
7191.15
6484.85
5848.24
5300.49
4847.63
4283.58
14677.4
10015.3
6816.94
6597.76
6474.74
6598.38
6989.55
7519.23
8155.92
8825.37
9426.4
9826.98
9977.01
9999.11
9999.99
10000
10000
10000
10000
10000
10000
10000
10000
10000
10000
10000
10000
9999.99
9998.92
9972.94
9801.76
9354.33
8688.52
7939.27
7191.15
6484.85
5848.24
5300.49
4847.63
4283.58
14677.4
10477.3
6298.54
6534.39
6460.6
6597.65
6987.88
7518.72
8155.52
8824.86
9425.99
9826.78
9976.97
9999.11
9999.99
10000
10000
10000
10000
10000
10000
10000
10000
10000
10000
10000
10000
9999.99
9998.92
9972.94
9801.76
9354.33
8688.52
7939.27
7191.15
6484.85
5848.24
5300.49
4847.63
4283.58
14677.4
10372.5
5963.28
6360.7
6418.19
6597.81
6982.04
7518.06
8154.22
8823.33
9424.92
9826.31
9976.88
9999.1
9999.99
10000
10000
10000
10000
10000
10000
10000
10000
10000
10000
10000
10000
9999.99
9998.92
9972.94
9801.76
9354.33
8688.52
7939.27
7191.15
6484.85
5848.24
5300.49
4847.63
4283.58
14677.4
11932.7
5345.04
6070.81
6290.54
6557.92
6958.4
7510.2
8147.77
8816.91
9419.93
9823.97
9976.43
9999.08
9999.99
10000
10000
10000
10000
10000
10000
10000
10000
10000
10000
10000
10000
9999.99
9998.92
9972.94
9801.76
9354.33
8688.52
7939.27
7191.15
6484.85
5848.24
5300.49
4847.63
4283.58
14677.4
13156.6
4751.77
5682.89
6053.72
6429.92
6890.1
7473.29
8123.5
8798.85
9408.34
9819.19
9975.56
9999.04
9999.99
10000
10000
10000
10000
10000
10000
10000
10000
10000
10000
10000
10000
9999.99
9998.92
9972.94
9801.76
9354.33
8688.52
7939.27
7191.15
6484.85
5848.24
5300.49
4847.63
4283.58
14677.4
14668.6
4616.89
5476.18
5879.9
6304.57
6813.13
7418.66
8085.83
8773.23
9393.7
9813.69
9974.62
9998.99
9999.99
10000
10000
10000
10000
10000
10000
10000
10000
10000
10000
10000
10000
9999.99
9998.92
9972.94
9801.76
9354.33
8688.52
7939.27
7191.15
6484.85
5848.24
5300.49
4847.63
4283.58
14677.4
15414.9
4547.87
5320.95
5728.11
6183.13
6728.44
7357.51
8043.6
8745.92
9379.2
9808.63
9973.8
9998.95
9999.99
10000
10000
10000
10000
10000
10000
10000
10000
10000
10000
10000
10000
9999.99
9998.92
9972.94
9801.76
9354.33
8688.52
7939.27
7191.15
6484.85
5848.24
5300.49
4847.63
4283.58
14677.4
15440.2
4501.93
5186.66
5592.01
6074.62
6647.16
7298.42
8003.45
8721.5
9367.32
9804.89
9973.26
9998.93
9999.99
10000
10000
10000
10000
10000
10000
10000
10000
10000
10000
10000
10000
9999.99
9998.92
9972.94
9801.76
9354.33
8688.52
7939.27
7191.15
6484.85
5848.24
5300.49
4847.63
4283.58
14677.4
15352.9
4458.36
5055.6
5475.08
5980.99
6576.61
7248.88
7971.56
8703.61
9359.52
9802.76
9973
9998.92
9999.99
10000
10000
10000
10000
10000
10000
10000
10000
10000
10000
10000
10000
9999.99
9998.92
9972.94
9801.76
9354.33
8688.52
7939.27
7191.15
6484.85
5848.24
5300.49
4847.63
4283.58
14677.4
15122.3
4391.97
4948.21
5383.54
5908.56
6523.99
7213.63
7950.22
8692.61
9355.4
9801.85
9972.89
9998.86
9999.94
9999.95
9999.95
9999.95
9999.95
9999.95
9999.95
9999.95
9999.95
9999.95
9999.95
9999.95
9999.95
9999.94
9998.86
9972.89
9801.71
9354.28
8688.48
7939.24
7191.12
6484.84
5848.22
5300.48
4847.63
4283.58
14677.4
14866.7
4323.27
4874.01
5320.19
5859.87
6491
7193.4
7939.04
8686.69
9351.21
9798.11
9969.16
9995.13
9996.2
9996.21
9996.21
9996.21
9996.21
9996.21
9996.21
9996.21
9996.21
9996.21
9996.21
9996.21
9996.21
9996.2
9995.13
9969.16
9798.07
9350.89
8685.49
7936.74
7189.13
6483.32
5847.11
5299.7
4847.09
4283.38
14677.1
14699.5
4284.18
4840.94
5290.39
5831.46
6459.99
7158.02
7898.24
8640.32
9300.47
9744.45
9914.37
9940.16
9941.22
9941.23
9941.23
9941.23
9941.23
9941.23
9941.23
9941.23
9941.23
9941.23
9941.23
9941.23
9941.23
9941.22
9940.16
9914.38
9744.5
9300.51
8640.12
7897.37
7156.06
6456.3
5825.49
5282.9
4833.98
4277.02
14665.9
14536.5
4225.16
4748.73
5181.88
5704.27
6313.3
6989.73
7707.37
8427.35
9068.12
9498.93
9663.58
9688.51
9689.53
9689.54
9689.54
9689.54
9689.54
9689.54
9689.54
9689.54
9689.54
9689.54
9689.54
9689.54
9689.54
9689.53
9688.51
9663.59
9498.96
9068.25
8427.73
7708.06
6990.61
6314.09
5704.69
5181.69
4747.93
4223.47
14526.8
13956.6
4050.51
4521.88
4929.8
5419.59
5991.84
6628.05
7303.74
7982.02
8585.5
8990.26
9144.11
9167.19
9168.13
9168.13
9168.13
9168.13
9168.13
9168.13
9168.13
9168.13
9168.13
9168.13
9168.13
9168.13
9168.13
9168.13
9167.19
9144.11
8990.27
8585.54
7982.18
7304.08
6628.61
5992.66
5420.8
4931.43
4523.62
4051.95
13957.1
12854.2
3758.66
4190.32
4568.99
5021.23
5549.72
6138.29
6763.87
7391.58
7948.53
8319.52
8458.71
8479.19
8480
8480.01
8480.01
8480.01
8480.01
8480.01
8480.01
8480.01
8480.01
8480.01
8480.01
8480.01
8480.01
8480
8479.19
8458.71
8319.52
7948.54
7391.61
6763.96
6138.48
5550.05
5021.74
4569.64
4190.98
3759.18
12854.7
11474.6
3407.51
3817.93
4168.06
4583.62
5069.12
5609.6
6184.23
6759.86
7268.01
7602.49
7725.31
7742.81
7743.47
7743.47
7743.47
7743.47
7743.47
7743.47
7743.47
7743.47
7743.47
7743.47
7743.47
7743.47
7743.47
7743.47
7742.81
7725.31
7602.49
7268.01
6759.85
6184.23
5609.62
5069.18
4583.72
4168.19
3818.07
3407.6
11474.8
10012.5
3052.59
3448.59
3770.29
4152.45
4596
5091.87
5617.33
6142.61
6602.93
6900.94
7007.12
7021.58
7022.1
7022.1
7022.1
7022.1
7022.1
7022.1
7022.1
7022.1
7022.1
7022.1
7022.1
7022.1
7022.1
7022.1
7021.58
7007.12
6900.94
6602.93
6142.61
5617.32
5091.86
4596
4152.44
3770.29
3448.58
3052.58
10012.5
8729.07
2722.63
3099.99
3397.11
3745.44
4154.91
4607.85
5088.91
5567
5982.02
6244.99
6335.16
6346.77
6347.16
6347.16
6347.16
6347.16
6347.16
6347.16
6347.16
6347.16
6347.16
6347.16
6347.16
6347.16
6347.16
6347.16
6346.77
6335.16
6244.99
5982.02
5567
5088.91
4607.84
4154.9
3745.43
3397.1
3099.98
2722.62
8729.07
7434.88
2440.18
2795.02
3067.53
3388.13
3758.52
4177.08
4616.71
5052.71
5426.45
5657.26
5732.93
5742.06
5742.34
5742.34
5742.34
5742.34
5742.34
5742.34
5742.34
5742.34
5742.34
5742.34
5742.34
5742.34
5742.34
5742.34
5742.06
5732.93
5657.26
5426.45
5052.71
4616.71
4177.08
3758.52
3388.12
3067.52
2795.02
2440.18
7434.88
6516.41
2203.01
2529.47
2781.8
3079.73
3422.08
3806.94
4213.32
4613.61
4951.74
5153.63
5216.14
5223.1
5223.29
5223.29
5223.29
5223.29
5223.29
5223.29
5223.29
5223.29
5223.29
5223.29
5223.29
5223.29
5223.29
5223.29
5223.1
5216.14
5153.63
4951.74
4613.61
4213.32
3806.94
3422.08
3079.73
2781.8
2529.47
2203.01
6516.41
5690.35
2021.63
2304.21
2538.84
2817.64
3136.44
3497.23
3875.64
4247.54
4557.78
4737.58
4790.17
4795.52
4795.65
4795.65
4795.65
4795.65
4795.65
4795.65
4795.65
4795.65
4795.65
4795.65
4795.65
4795.65
4795.65
4795.65
4795.52
4790.17
4737.58
4557.78
4247.54
3875.64
3497.23
3136.44
2817.64
2538.84
2304.21
2021.63
5690.35
4985.38
1760.41
2025.26
2214.53
2464.54
2763.38
3108.38
3473.63
3821.06
4085.44
4215.61
4246.22
4248.65
4248.7
4248.7
4248.7
4248.7
4248.7
4248.7
4248.7
4248.7
4248.7
4248.7
4248.7
4248.7
4248.7
4248.7
4248.65
4246.22
4215.61
4085.44
3821.06
3473.63
3108.38
2763.38
2464.54
2214.53
2025.26
1760.41
4985.38
20873.2
5088.74
5814.93
6717.68
7697.49
9080.69
10453.3
11976.9
13363.3
14356.9
14774.6
14848.2
14852
14852
14852
14852
14852
14852
14852
14852
14852
14852
14852
14852
14852
14852
14852
14852
14848.2
14774.6
14356.9
13363.3
11976.9
10453.3
9080.69
7697.49
6717.68
5814.93
5088.74
20873.2
20873.2
5088.74
5814.93
6717.68
7697.49
9080.69
10453.3
11976.9
13363.3
14356.9
14774.6
14848.2
14852
14852
14852
14852
14852
14852
14852
14852
14852
14852
14852
14852
14852
14852
14852
14852
14848.2
14774.6
14356.9
13363.3
11976.9
10453.3
9080.69
7697.49
6717.68
5814.93
5088.74
20873.2
4985.38
1760.41
2025.26
2214.53
2464.54
2763.38
3108.38
3473.63
3821.06
4085.44
4215.61
4246.22
4248.65
4248.7
4248.7
4248.7
4248.7
4248.7
4248.7
4248.7
4248.7
4248.7
4248.7
4248.7
4248.7
4248.7
4248.7
4248.65
4246.22
4215.61
4085.44
3821.06
3473.63
3108.38
2763.38
2464.54
2214.53
2025.26
1760.41
4985.38
5690.35
2021.63
2304.21
2538.84
2817.64
3136.44
3497.23
3875.64
4247.54
4557.78
4737.58
4790.17
4795.52
4795.65
4795.65
4795.65
4795.65
4795.65
4795.65
4795.65
4795.65
4795.65
4795.65
4795.65
4795.65
4795.65
4795.65
4795.52
4790.17
4737.58
4557.78
4247.54
3875.64
3497.23
3136.44
2817.64
2538.84
2304.21
2021.63
5690.35
6516.41
2203.01
2529.47
2781.8
3079.73
3422.08
3806.94
4213.32
4613.61
4951.74
5153.63
5216.14
5223.1
5223.29
5223.29
5223.29
5223.29
5223.29
5223.29
5223.29
5223.29
5223.29
5223.29
5223.29
5223.29
5223.29
5223.29
5223.1
5216.14
5153.63
4951.74
4613.61
4213.32
3806.94
3422.08
3079.73
2781.8
2529.47
2203.01
6516.41
7434.88
2440.18
2795.02
3067.53
3388.13
3758.52
4177.08
4616.71
5052.71
5426.45
5657.26
5732.93
5742.06
5742.34
5742.34
5742.34
5742.34
5742.34
5742.34
5742.34
5742.34
5742.34
5742.34
5742.34
5742.34
5742.34
5742.34
5742.06
5732.93
5657.26
5426.45
5052.71
4616.71
4177.08
3758.52
3388.12
3067.52
2795.02
2440.18
7434.88
8729.07
2722.63
3099.99
3397.11
3745.44
4154.91
4607.85
5088.91
5567
5982.02
6244.99
6335.16
6346.77
6347.16
6347.16
6347.16
6347.16
6347.16
6347.16
6347.16
6347.16
6347.16
6347.16
6347.16
6347.16
6347.16
6347.16
6346.77
6335.16
6244.99
5982.02
5567
5088.91
4607.84
4154.9
3745.43
3397.1
3099.98
2722.62
8729.07
10012.5
3052.59
3448.59
3770.29
4152.45
4596
5091.87
5617.33
6142.61
6602.93
6900.94
7007.12
7021.58
7022.1
7022.1
7022.1
7022.1
7022.1
7022.1
7022.1
7022.1
7022.1
7022.1
7022.1
7022.1
7022.1
7022.1
7021.58
7007.12
6900.94
6602.93
6142.61
5617.32
5091.86
4596
4152.44
3770.29
3448.58
3052.58
10012.5
11474.6
3407.51
3817.93
4168.06
4583.62
5069.12
5609.6
6184.23
6759.86
7268.01
7602.49
7725.31
7742.81
7743.47
7743.47
7743.47
7743.47
7743.47
7743.47
7743.47
7743.47
7743.47
7743.47
7743.47
7743.47
7743.47
7743.47
7742.81
7725.31
7602.49
7268.01
6759.85
6184.23
5609.62
5069.18
4583.72
4168.19
3818.07
3407.6
11474.8
12854.2
3758.66
4190.32
4568.99
5021.23
5549.72
6138.29
6763.87
7391.58
7948.53
8319.52
8458.71
8479.19
8480
8480.01
8480.01
8480.01
8480.01
8480.01
8480.01
8480.01
8480.01
8480.01
8480.01
8480.01
8480.01
8480
8479.19
8458.71
8319.52
7948.54
7391.61
6763.96
6138.48
5550.05
5021.74
4569.64
4190.98
3759.18
12854.7
13956.6
4050.51
4521.88
4929.8
5419.59
5991.84
6628.05
7303.74
7982.02
8585.5
8990.26
9144.11
9167.19
9168.13
9168.13
9168.13
9168.13
9168.13
9168.13
9168.13
9168.13
9168.13
9168.13
9168.13
9168.13
9168.13
9168.13
9167.19
9144.11
8990.27
8585.54
7982.18
7304.08
6628.61
5992.66
5420.8
4931.43
4523.62
4051.95
13957.1
14536.5
4225.16
4748.73
5181.88
5704.27
6313.3
6989.73
7707.37
8427.35
9068.12
9498.93
9663.58
9688.51
9689.53
9689.54
9689.54
9689.54
9689.54
9689.54
9689.54
9689.54
9689.54
9689.54
9689.54
9689.54
9689.54
9689.53
9688.51
9663.59
9498.96
9068.25
8427.73
7708.06
6990.61
6314.09
5704.69
5181.69
4747.93
4223.47
14526.8
14699.5
4284.18
4840.94
5290.39
5831.46
6459.99
7158.02
7898.24
8640.32
9300.47
9744.45
9914.37
9940.16
9941.22
9941.23
9941.23
9941.23
9941.23
9941.23
9941.23
9941.23
9941.23
9941.23
9941.23
9941.23
9941.23
9941.22
9940.16
9914.38
9744.5
9300.51
8640.12
7897.37
7156.06
6456.3
5825.49
5282.9
4833.98
4277.02
14665.9
14866.7
4323.27
4874.01
5320.19
5859.87
6491
7193.4
7939.04
8686.69
9351.21
9798.11
9969.16
9995.13
9996.2
9996.21
9996.21
9996.21
9996.21
9996.21
9996.21
9996.21
9996.21
9996.21
9996.21
9996.21
9996.21
9996.2
9995.13
9969.16
9798.07
9350.89
8685.49
7936.74
7189.13
6483.32
5847.11
5299.7
4847.09
4283.38
14677.1
15122.3
4391.97
4948.21
5383.54
5908.56
6523.99
7213.63
7950.22
8692.61
9355.4
9801.85
9972.89
9998.86
9999.94
9999.95
9999.95
9999.95
9999.95
9999.95
9999.95
9999.95
9999.95
9999.95
9999.95
9999.95
9999.95
9999.94
9998.86
9972.89
9801.71
9354.28
8688.48
7939.24
7191.12
6484.84
5848.22
5300.48
4847.63
4283.58
14677.4
15352.9
4458.36
5055.6
5475.08
5980.99
6576.61
7248.88
7971.56
8703.61
9359.52
9802.76
9973
9998.92
9999.99
10000
10000
10000
10000
10000
10000
10000
10000
10000
10000
10000
10000
9999.99
9998.92
9972.94
9801.76
9354.33
8688.52
7939.27
7191.15
6484.85
5848.24
5300.49
4847.63
4283.58
14677.4
15440.2
4501.93
5186.66
5592.01
6074.62
6647.16
7298.42
8003.45
8721.5
9367.32
9804.89
9973.26
9998.93
9999.99
10000
10000
10000
10000
10000
10000
10000
10000
10000
10000
10000
10000
9999.99
9998.92
9972.94
9801.76
9354.33
8688.52
7939.27
7191.15
6484.85
5848.24
5300.49
4847.63
4283.58
14677.4
15414.9
4547.87
5320.95
5728.11
6183.13
6728.44
7357.51
8043.6
8745.92
9379.2
9808.63
9973.8
9998.95
9999.99
10000
10000
10000
10000
10000
10000
10000
10000
10000
10000
10000
10000
9999.99
9998.92
9972.94
9801.76
9354.33
8688.52
7939.27
7191.15
6484.85
5848.24
5300.49
4847.63
4283.58
14677.4
14668.6
4616.89
5476.18
5879.9
6304.57
6813.13
7418.66
8085.83
8773.23
9393.7
9813.69
9974.62
9998.99
9999.99
10000
10000
10000
10000
10000
10000
10000
10000
10000
10000
10000
10000
9999.99
9998.92
9972.94
9801.76
9354.33
8688.52
7939.27
7191.15
6484.85
5848.24
5300.49
4847.63
4283.58
14677.4
13156.6
4751.77
5682.89
6053.72
6429.92
6890.1
7473.29
8123.5
8798.85
9408.34
9819.19
9975.56
9999.04
9999.99
10000
10000
10000
10000
10000
10000
10000
10000
10000
10000
10000
10000
9999.99
9998.92
9972.94
9801.76
9354.33
8688.52
7939.27
7191.15
6484.85
5848.24
5300.49
4847.63
4283.58
14677.4
11932.7
5345.04
6070.81
6290.54
6557.92
6958.4
7510.2
8147.77
8816.91
9419.93
9823.97
9976.43
9999.08
9999.99
10000
10000
10000
10000
10000
10000
10000
10000
10000
10000
10000
10000
9999.99
9998.92
9972.94
9801.76
9354.33
8688.52
7939.27
7191.15
6484.85
5848.24
5300.49
4847.63
4283.58
14677.4
)
;

boundaryField
{
    inlet
    {
        type            fixedValue;
        value           uniform 10000;
    }
    outlet
    {
        type            fixedValue;
        value           uniform 1000;
    }
    obstacle
    {
        type            zeroGradient;
    }
    empty
    {
        type            empty;
    }
}


// ************************************************************************* //
