/*--------------------------------*- C++ -*----------------------------------*\
| =========                 |                                                 |
| \\      /  F ield         | OpenFOAM: The Open Source CFD Toolbox           |
|  \\    /   O peration     | Version:  v1912                                 |
|   \\  /    A nd           | Website:  www.openfoam.com                      |
|    \\/     M anipulation  |                                                 |
\*---------------------------------------------------------------------------*/
FoamFile
{
    version     2.0;
    format      ascii;
    class       volVectorField;
    location    "5.5";
    object      grad(p);
}
// * * * * * * * * * * * * * * * * * * * * * * * * * * * * * * * * * * * * * //

dimensions      [1 -2 -2 0 0 0 0];


internalField   nonuniform List<vector> 
1900
(
(128345 0.616944 0)
(-128049 -0.565706 0)
(-7205.37 -0.52676 0)
(-1033.52 -1.03742 0)
(-788.169 0.726402 0)
(-380.215 4.1959 0)
(-347.594 11.2277 0)
(-427.688 21.3491 0)
(-524.701 43.3318 0)
(233.658 -75.8014 0)
(128345 0.781755 0)
(-128051 -0.575689 0)
(-7205.84 -0.762577 0)
(-1032.26 -0.644715 0)
(-782.936 3.38649 0)
(-369.714 9.03991 0)
(-330.441 13.3984 0)
(-395.584 6.45961 0)
(-621.852 -27.4464 0)
(-822.75 -141.261 0)
(128345 -5.67724e-08 0)
(-128051 7.72715e-08 0)
(-7205.44 -5.69678e-08 0)
(-1029.37 4.54747e-09 0)
(-778.485 -8.3844e-09 0)
(-370.203 2.62901e-09 0)
(-350.174 2.85993e-09 0)
(-468.533 8.52651e-10 0)
(-672.422 6.75016e-10 0)
(-908.878 -1.19016e-09 0)
(128345 -0.781755 0)
(-128051 0.575689 0)
(-7205.84 0.762577 0)
(-1032.26 0.644715 0)
(-782.936 -3.38649 0)
(-369.714 -9.03991 0)
(-330.441 -13.3984 0)
(-395.584 -6.45961 0)
(-621.852 27.4464 0)
(-822.75 141.261 0)
(128345 -0.616944 0)
(-128049 0.565706 0)
(-7205.37 0.52676 0)
(-1033.52 1.03742 0)
(-788.169 -0.726402 0)
(-380.215 -4.1959 0)
(-347.594 -11.2277 0)
(-427.688 -21.3491 0)
(-524.701 -43.3318 0)
(233.658 75.8014 0)
(-599.597 -888.556 8.9314e-12)
(-2205.93 -727.039 -1.04205e-11)
(-2093.25 -793.862 -1.30584e-11)
(539.078 -1111.82 0)
(-17278 -8427.43 -5.66935e-11)
(-1152.77 -1038.36 8.77084e-12)
(-1598.35 -854.736 1.04205e-11)
(-1953.98 -948.557 1.30584e-11)
(-2259.39 -950.366 0)
(-16338.7 -7257.44 0)
(-1520.7 2.89623e-10 0)
(-1792.88 1.05179e-09 0)
(-1994 1.23358e-10 0)
(-2042.4 3.49888e-09 0)
(-19185 2.11471e-10 0)
(-1152.77 1038.36 8.77084e-12)
(-1598.35 854.736 1.04205e-11)
(-1953.98 948.557 1.30584e-11)
(-2259.39 950.366 0)
(-16338.7 7257.44 0)
(-599.597 888.556 -2.64731e-11)
(-2205.93 727.039 -1.04205e-11)
(-2093.25 793.862 -1.30584e-11)
(539.078 1111.82 -3.50032e-11)
(-17278 8427.43 5.66935e-11)
(-33855.4 11302.4 1.15111e-11)
(-5950.95 3734.51 -6.89178e-12)
(-983.371 1930.12 0)
(-2476.4 1158.58 4.87649e-12)
(-6209.34 1554.13 -1.94237e-12)
(-29860.2 13594.6 -5.92573e-12)
(-8031.52 2617.17 3.50213e-12)
(-1642.87 647.55 0)
(-2464.48 371.472 -3.07241e-12)
(-5692.33 855.562 5.03736e-13)
(-31290.2 3.5886e-10 0)
(-9253.43 3.03651e-10 0)
(-1764.2 2.66454e-09 0)
(-2431.64 -1.88665e-09 1.23344e-12)
(-5493.43 3.53194e-09 -1.00747e-12)
(-29860.2 -13594.6 -5.92573e-12)
(-8031.52 -2617.17 3.50213e-12)
(-1642.87 -647.55 0)
(-2464.48 -371.472 -3.07241e-12)
(-5692.33 -855.562 5.03736e-13)
(-33855.4 -11302.4 5.92573e-12)
(-5950.95 -3734.51 -1.12471e-13)
(-983.371 -1930.12 0)
(-2476.4 -1158.58 3.48927e-14)
(-6209.34 -1554.13 1.94237e-12)
(-6223.76 4002.54 0)
(-902.209 -817.313 0)
(2488.82 -852.041 0)
(2557.73 967.654 0)
(470.091 1390.81 0)
(-1109.16 1063.06 0)
(-1667.64 548.39 0)
(-1463.39 230.56 0)
(-1009.19 97.0353 0)
(-636.591 42.1971 0)
(-475.725 18.2187 0)
(-431.019 14.0123 0)
(-394.377 18.9439 0)
(-322.772 9.72769 0)
(-221.566 2.4888 0)
(-133.586 -0.683871 0)
(-83.6463 -1.28355 0)
(-62.0735 -1.15409 0)
(-52.3942 -1.01183 0)
(-45.3142 -1.00414 0)
(-37.9523 -1.08353 0)
(-30.8021 -1.17569 0)
(-24.2694 -1.24676 0)
(-18.4623 -1.29914 0)
(-13.3091 -1.34542 0)
(-8.73386 -1.40564 0)
(-3.85588 -1.46036 0)
(2.4739 -1.52343 0)
(11.7169 -1.56259 0)
(21.0659 -1.50887 0)
(33.0436 -1.46881 0)
(43.0917 -1.13921 0)
(55.8228 -1.23374 0)
(64.4973 -0.335068 0)
(91.6085 -2.09416 0)
(126.548 0.832088 0)
(203.339 0.327689 0)
(300.402 7.21979 0)
(1691.04 -8.59702 0)
(-355.798 -312.83 0)
(-6854.59 2553.33 0)
(-1678.86 -877.164 0)
(2932.97 -888.462 0)
(2864.99 165.921 0)
(412.874 284.891 0)
(-1261.27 373.981 0)
(-1772.98 297.719 0)
(-1517.99 126.703 0)
(-1030.09 43.2641 0)
(-644.27 18.0631 0)
(-478.867 6.47409 0)
(-430.418 3.1626 0)
(-394.356 9.42625 0)
(-324.536 3.24818 0)
(-222.405 0.441558 0)
(-133.853 -0.520555 0)
(-83.6678 -0.680078 0)
(-62.0424 -0.601622 0)
(-52.3759 -0.526249 0)
(-45.3169 -0.512595 0)
(-37.9653 -0.540664 0)
(-30.8157 -0.578682 0)
(-24.2804 -0.61162 0)
(-18.4719 -0.639827 0)
(-13.3201 -0.66797 0)
(-8.74604 -0.704103 0)
(-3.8693 -0.738933 0)
(2.46048 -0.780166 0)
(11.7137 -0.812163 0)
(21.0674 -0.802927 0)
(33.0709 -0.803088 0)
(43.1043 -0.661745 0)
(55.9077 -0.712974 0)
(64.4018 -0.199311 0)
(91.7259 -1.03453 0)
(126.832 0.608092 0)
(203.703 1.06992 0)
(300.526 4.57417 0)
(1691.63 2.70356 0)
(-356.973 0.421054 0)
(-6605.38 -5.09168e-08 0)
(-1903.46 -1.57369e-08 0)
(2792.26 1.06674e-07 0)
(2899.07 8.41266e-08 0)
(530.618 2.89546e-08 0)
(-1105.43 -1.73679e-08 0)
(-1739.57 -1.04078e-08 0)
(-1537.41 -6.63308e-09 0)
(-1040.8 -1.55149e-08 0)
(-647.294 -1.78403e-08 0)
(-480.059 -2.20026e-09 0)
(-430.16 -4.82039e-09 0)
(-394.352 2.67665e-09 0)
(-325.386 -4.15022e-09 0)
(-222.662 -4.86883e-09 0)
(-133.913 -3.96451e-09 0)
(-83.6699 -2.03474e-09 0)
(-62.0287 -1.64717e-09 0)
(-52.3683 -8.7203e-10 0)
(-45.3184 7.20636e-10 0)
(-37.9715 2.59792e-09 0)
(-30.8227 4.82846e-09 0)
(-24.2872 6.01741e-09 0)
(-18.4786 4.6912e-09 0)
(-13.3278 1.90757e-09 0)
(-8.7545 -1.39686e-09 0)
(-3.878 -3.88174e-09 0)
(2.45259 -5.46633e-09 0)
(11.7103 -6.0053e-09 0)
(21.0685 -3.45178e-09 0)
(33.0847 3.72026e-09 0)
(43.1179 6.85512e-09 0)
(55.9573 5.81353e-10 0)
(64.4038 5.27053e-09 0)
(91.8434 1.14737e-08 0)
(127.16 2.50668e-08 0)
(204.493 -2.50709e-09 0)
(300.877 1.71741e-08 0)
(1689.83 -6.40175e-08 0)
(-356.707 -2.47616e-07 0)
(-6854.59 -2553.33 0)
(-1678.86 877.164 0)
(2932.97 888.462 0)
(2864.99 -165.921 0)
(412.874 -284.891 0)
(-1261.27 -373.981 0)
(-1772.98 -297.719 0)
(-1517.99 -126.703 0)
(-1030.09 -43.2641 0)
(-644.27 -18.0631 0)
(-478.867 -6.47409 0)
(-430.418 -3.1626 0)
(-394.356 -9.42625 0)
(-324.536 -3.24818 0)
(-222.405 -0.441558 0)
(-133.853 0.520555 0)
(-83.6678 0.680078 0)
(-62.0424 0.601622 0)
(-52.3759 0.526249 0)
(-45.3169 0.512595 0)
(-37.9653 0.540664 0)
(-30.8157 0.578682 0)
(-24.2804 0.61162 0)
(-18.4719 0.639827 0)
(-13.3201 0.66797 0)
(-8.74604 0.704103 0)
(-3.8693 0.738933 0)
(2.46048 0.780166 0)
(11.7137 0.812163 0)
(21.0674 0.802927 0)
(33.0709 0.803088 0)
(43.1043 0.661745 0)
(55.9077 0.712974 0)
(64.4018 0.199311 0)
(91.7259 1.03453 0)
(126.832 -0.608092 0)
(203.703 -1.06992 0)
(300.526 -4.57417 0)
(1691.63 -2.70356 0)
(-356.973 -0.421054 0)
(-6223.76 -4002.54 0)
(-902.209 817.313 0)
(2488.82 852.041 0)
(2557.73 -967.654 0)
(470.091 -1390.81 0)
(-1109.16 -1063.06 0)
(-1667.64 -548.39 0)
(-1463.39 -230.56 0)
(-1009.19 -97.0353 0)
(-636.591 -42.1971 0)
(-475.725 -18.2187 0)
(-431.019 -14.0123 0)
(-394.377 -18.9439 0)
(-322.772 -9.72769 0)
(-221.566 -2.4888 0)
(-133.586 0.683871 0)
(-83.6463 1.28355 0)
(-62.0735 1.15409 0)
(-52.3942 1.01183 0)
(-45.3142 1.00414 0)
(-37.9523 1.08353 0)
(-30.8021 1.17569 0)
(-24.2694 1.24676 0)
(-18.4623 1.29914 0)
(-13.3091 1.34542 0)
(-8.73386 1.40564 0)
(-3.85588 1.46036 0)
(2.4739 1.52343 0)
(11.7169 1.56259 0)
(21.0659 1.50887 0)
(33.0436 1.46881 0)
(43.0917 1.13921 0)
(55.8228 1.23374 0)
(64.4973 0.335068 0)
(91.6085 2.09416 0)
(126.548 -0.832088 0)
(203.339 -0.327689 0)
(300.402 -7.21979 0)
(1691.04 8.59702 0)
(-355.798 312.83 0)
(267.859 -1809.06 0)
(468.287 -58.3395 0)
(2326.86 175.41 0)
(1813.38 -1089.86 0)
(286.87 -1426.17 0)
(-908.718 -1294.67 0)
(-1372.58 -755.101 0)
(-1297.99 -387.742 0)
(-936.099 -180.57 0)
(-603.71 -76.5363 0)
(-464.822 -39.8836 0)
(-430.178 -33.0041 0)
(-391.645 -31.1092 0)
(-316.253 -18.2828 0)
(-216.845 -5.46105 0)
(-131.795 0.688238 0)
(-83.3978 1.9644 0)
(-62.1769 1.77402 0)
(-52.4487 1.55388 0)
(-45.2751 1.57208 0)
(-37.8728 1.73813 0)
(-30.729 1.91775 0)
(-24.2158 2.0539 0)
(-18.4211 2.15439 0)
(-13.2661 2.24222 0)
(-8.68803 2.35361 0)
(-3.81094 2.45844 0)
(2.50909 2.56612 0)
(11.7008 2.63204 0)
(21.0104 2.54439 0)
(32.8706 2.41893 0)
(42.9713 1.88669 0)
(55.5016 1.88758 0)
(64.831 0.836083 0)
(91.1295 2.79981 0)
(125.642 -0.812431 0)
(200.117 -0.808791 0)
(306.269 -14.4017 0)
(1893.08 12.5791 0)
(-559.954 90.8109 0)
(119.345 -266.96 0)
(275.193 11.8714 0)
(1581.65 -578.904 0)
(1413.53 -1122.19 0)
(370.98 -1462.2 0)
(-569.975 -1228.15 0)
(-951.904 -844.34 0)
(-998.446 -508.239 0)
(-748.499 -248.58 0)
(-518.652 -114.482 0)
(-439.622 -67.9426 0)
(-423.015 -54.2143 0)
(-381.655 -44.37 0)
(-301.552 -25.9276 0)
(-205.816 -8.37786 0)
(-127.391 0.495923 0)
(-82.7332 2.66541 0)
(-62.4136 2.56202 0)
(-52.5596 2.32637 0)
(-45.1577 2.3973 0)
(-37.6618 2.66919 0)
(-30.537 2.95584 0)
(-24.0701 3.18137 0)
(-18.3028 3.35985 0)
(-13.1402 3.52284 0)
(-8.55007 3.73003 0)
(-3.6752 3.93504 0)
(2.62231 4.13747 0)
(11.7046 4.28443 0)
(20.8903 4.19214 0)
(32.5026 4.01631 0)
(42.6442 3.30594 0)
(54.9826 3.23921 0)
(65.1975 2.19622 0)
(90.2768 3.92473 0)
(123.556 0.00594197 0)
(191.972 -1.36168 0)
(310.157 -17.8808 0)
(1684.08 11.7672 0)
(-345.954 -266.235 0)
(22.0466 76.4566 0)
(167.687 -6.69048 0)
(1234.04 -350.178 0)
(962.206 -733.993 0)
(184.755 -1121.57 0)
(-313.329 -1009.84 0)
(-678.842 -801.574 0)
(-723.894 -508.158 0)
(-556.661 -267.117 0)
(-429.641 -141.768 0)
(-406.745 -95.1816 0)
(-407.463 -74.5526 0)
(-364.387 -56.5195 0)
(-281.57 -32.0492 0)
(-191.382 -11.0287 0)
(-121.153 -0.189183 0)
(-81.4068 2.83924 0)
(-62.5036 3.02914 0)
(-52.6075 2.90772 0)
(-44.9447 3.08212 0)
(-37.3346 3.47489 0)
(-30.2354 3.8794 0)
(-23.8265 4.21564 0)
(-18.0921 4.50277 0)
(-12.9094 4.77028 0)
(-8.29082 5.10161 0)
(-3.41832 5.46542 0)
(2.84578 5.81541 0)
(11.7535 6.06206 0)
(20.752 5.97003 0)
(32.0167 5.77719 0)
(42.2225 4.91632 0)
(54.4322 4.83958 0)
(65.4916 3.82662 0)
(89.0188 5.19453 0)
(120.548 1.18891 0)
(182.881 -1.933 0)
(318.92 -14.6383 0)
(1653.76 22.4976 0)
(-314.739 -65.1845 0)
(186.574 177.655 0)
(-135.928 -120.373 0)
(880.799 -256.405 0)
(670.188 -651.476 0)
(105.165 -813.891 0)
(-261.616 -837.003 0)
(-468.466 -690.384 0)
(-483.424 -441.782 0)
(-395.432 -256.165 0)
(-352.969 -155.685 0)
(-374.851 -115.655 0)
(-385.758 -91.0465 0)
(-340.698 -64.4589 0)
(-257.716 -35.3812 0)
(-175.115 -12.4788 0)
(-114.028 -0.922749 0)
(-79.6319 2.55059 0)
(-62.3476 3.08512 0)
(-52.5086 3.17983 0)
(-44.6111 3.50641 0)
(-36.8936 4.02427 0)
(-29.8232 4.54015 0)
(-23.4694 4.99039 0)
(-17.7684 5.4048 0)
(-12.5631 5.80156 0)
(-7.88021 6.23647 0)
(-2.98736 6.74931 0)
(3.19725 7.31652 0)
(11.8536 7.60455 0)
(20.6158 7.52554 0)
(31.4872 7.28743 0)
(41.7407 6.31193 0)
(53.9325 6.11455 0)
(65.5395 5.13548 0)
(87.735 5.88593 0)
(116.688 2.42926 0)
(176.72 -2.77606 0)
(333.699 -7.67051 0)
(1635.37 25.1492 0)
(-304.819 -65.5519 0)
(77.2454 -62.3299 0)
(-250.589 -201.162 0)
(722.252 -210.378 0)
(424.992 -538.864 0)
(5.97432 -691.297 0)
(-194.313 -670.89 0)
(-297.993 -539.731 0)
(-305.465 -356.963 0)
(-280.967 -226.299 0)
(-294.241 -158.354 0)
(-344.457 -126.93 0)
(-358.128 -100.628 0)
(-310.746 -67.1103 0)
(-231.48 -35.431 0)
(-158.177 -12.4464 0)
(-106.67 -1.25571 0)
(-77.5447 2.40203 0)
(-61.8973 3.25504 0)
(-52.2015 3.59329 0)
(-44.131 4.08498 0)
(-36.3384 4.72096 0)
(-29.3045 5.33821 0)
(-22.9932 5.89986 0)
(-17.3104 6.44999 0)
(-12.1079 6.9978 0)
(-7.37754 7.54299 0)
(-2.37754 8.17346 0)
(3.66991 9.00166 0)
(11.9549 9.33457 0)
(20.4464 9.29633 0)
(30.8472 9.02834 0)
(41.0923 7.99723 0)
(53.2985 7.67261 0)
(65.2712 6.7397 0)
(86.411 7.07923 0)
(112.201 4.46626 0)
(173.148 -1.11645 0)
(345.83 0.0248896 0)
(1597.98 23.9617 0)
(-275.806 -82.22 0)
(-67.3361 -147.491 0)
(-278.592 -197.242 0)
(555.377 -195.959 0)
(206.757 -530.029 0)
(-22.0603 -545.899 0)
(-115.562 -505.462 0)
(-165.955 -395.717 0)
(-181.39 -280.391 0)
(-204.045 -195.29 0)
(-257.214 -156.997 0)
(-319.224 -133.909 0)
(-328.114 -104.34 0)
(-277.872 -66.398 0)
(-205.04 -33.6415 0)
(-142.183 -11.7867 0)
(-99.7193 -1.39329 0)
(-75.2852 2.43279 0)
(-61.1997 3.65632 0)
(-51.7088 4.30044 0)
(-43.5244 4.98018 0)
(-35.6859 5.73257 0)
(-28.6872 6.43853 0)
(-22.398 7.08699 0)
(-16.7103 7.73121 0)
(-11.5099 8.37384 0)
(-6.74731 8.9962 0)
(-1.58173 9.67803 0)
(4.31614 10.6062 0)
(12.1376 10.91 0)
(20.3207 10.7685 0)
(30.2353 10.3248 0)
(40.4342 9.10442 0)
(52.7207 8.47854 0)
(64.9677 7.39251 0)
(85.5443 7.30318 0)
(108.79 5.13359 0)
(172.44 -0.0642374 0)
(357.865 4.86866 0)
(1556.12 22.8987 0)
(-248.679 -93.1412 0)
(-254.951 -152.062 0)
(-297.295 -205.15 0)
(401.567 -247.77 0)
(87.7779 -450.833 0)
(29.6485 -387.007 0)
(-49.5921 -354.637 0)
(-81.1062 -283.003 0)
(-112.326 -220.318 0)
(-162.061 -173.441 0)
(-235.092 -154.777 0)
(-293.715 -135.412 0)
(-293.072 -101.129 0)
(-242.618 -61.0338 0)
(-178.855 -28.9717 0)
(-127.101 -9.13527 0)
(-92.9678 0.339796 0)
(-72.6787 4.16378 0)
(-60.0975 5.69509 0)
(-50.9258 6.6398 0)
(-42.7509 7.48128 0)
(-34.9331 8.31767 0)
(-27.9993 9.08001 0)
(-21.7476 9.77721 0)
(-16.0703 10.467 0)
(-10.8889 11.1462 0)
(-6.12076 11.7933 0)
(-0.826043 12.4854 0)
(4.85713 13.4118 0)
(12.1112 13.6101 0)
(19.8825 13.2764 0)
(29.2437 12.5678 0)
(39.3131 11.0665 0)
(51.6489 10.026 0)
(64.1386 8.58072 0)
(84.2343 8.06392 0)
(105.101 5.75844 0)
(172.893 1.59762 0)
(367.958 7.20928 0)
(1503.53 18.5853 0)
(-208.117 -113.373 0)
(-411.559 -103.723 0)
(-370.819 -170.378 0)
(318.629 -249.974 0)
(72.5831 -280.905 0)
(70.6378 -251.245 0)
(-15.3398 -240.387 0)
(-36.5207 -207.091 0)
(-75.8126 -177.188 0)
(-140.887 -158.009 0)
(-220.567 -149.967 0)
(-267.527 -129.344 0)
(-256.441 -91.9155 0)
(-208.338 -52.6911 0)
(-155.028 -23.0095 0)
(-113.937 -5.58965 0)
(-86.9039 3.10212 0)
(-70.1247 7.0192 0)
(-58.8137 8.91395 0)
(-49.9876 10.1894 0)
(-41.9076 11.2171 0)
(-34.1453 12.1394 0)
(-27.2807 12.9322 0)
(-21.0615 13.6199 0)
(-15.3911 14.27 0)
(-10.2318 14.8893 0)
(-5.45688 15.4589 0)
(-0.0221422 16.0507 0)
(5.40003 16.8294 0)
(12.0071 16.7701 0)
(19.3162 16.124 0)
(28.1058 15.0426 0)
(37.9849 13.1928 0)
(50.3253 11.6849 0)
(63.077 9.85422 0)
(82.8246 8.89937 0)
(102.559 6.63931 0)
(173.838 3.70948 0)
(374.235 8.35872 0)
(1439.92 15.0655 0)
(-157.339 -131.836 0)
(-519.086 -57.4161 0)
(-438.228 -125.24 0)
(295.059 -202.644 0)
(86.5534 -174.701 0)
(68.6923 -171.872 0)
(-7.044 -172.457 0)
(-20.2053 -159.722 0)
(-65.0288 -150.659 0)
(-135.83 -150.299 0)
(-207.469 -144.77 0)
(-237.774 -118.999 0)
(-219.207 -79.0843 0)
(-176.217 -41.7449 0)
(-133.466 -15.0137 0)
(-101.939 0.759607 0)
(-80.8174 8.93207 0)
(-67.0782 13.0627 0)
(-57.0426 15.4982 0)
(-48.7064 17.1774 0)
(-40.8718 18.4268 0)
(-33.2804 19.4105 0)
(-26.5727 20.133 0)
(-20.4584 20.6442 0)
(-14.8471 21.0435 0)
(-9.74318 21.3604 0)
(-5.0016 21.6179 0)
(0.494608 21.8116 0)
(5.55034 22.0975 0)
(11.4315 21.4748 0)
(18.2179 20.2153 0)
(26.419 18.4723 0)
(36.0775 16.0033 0)
(48.4317 13.8425 0)
(61.4544 11.4383 0)
(81.1363 10.0101 0)
(100.1 7.71845 0)
(174.55 5.66149 0)
(378.901 9.03505 0)
(1368.44 11.73 0)
(-95.5927 -149.371 0)
(-587.573 -17.3478 0)
(-510.767 -93.3408 0)
(270.966 -156.128 0)
(102.237 -131.105 0)
(72.8007 -127.654 0)
(-3.63198 -131.709 0)
(-15.5155 -129.698 0)
(-66.7327 -133.995 0)
(-135.213 -140.969 0)
(-190.404 -131.156 0)
(-204.23 -100.812 0)
(-181.996 -61.2286 0)
(-146.598 -27.6143 0)
(-114.07 -5.20336 0)
(-90.8619 8.74569 0)
(-75.0481 16.1194 0)
(-63.7973 20.3677 0)
(-54.8487 23.1594 0)
(-47.1655 25.1137 0)
(-39.7557 26.5003 0)
(-32.5011 27.504 0)
(-26.0918 28.154 0)
(-20.1841 28.5334 0)
(-14.701 28.7758 0)
(-9.67822 28.9179 0)
(-5.02215 28.9939 0)
(0.439979 28.8863 0)
(5.0755 28.843 0)
(10.1934 27.8192 0)
(16.4229 26.1107 0)
(24.0469 23.8368 0)
(33.5235 20.8589 0)
(45.9263 18.1483 0)
(59.3839 15.2751 0)
(79.2401 13.4803 0)
(98.3682 11.0458 0)
(175.107 9.53545 0)
(380.083 11.2695 0)
(1287.27 9.48036 0)
(-24.7029 -159.577 0)
(-625.749 3.021 0)
(-571.961 -54.9451 0)
(258.668 -103.793 0)
(113.992 -85.6275 0)
(68.1102 -93.3647 0)
(-9.01378 -102.456 0)
(-22.4084 -109.937 0)
(-75.8902 -122.038 0)
(-133.093 -127.679 0)
(-168.772 -110.478 0)
(-170.39 -77.5784 0)
(-148.671 -41.4211 0)
(-122.229 -12.442 0)
(-98.4282 6.95675 0)
(-81.3919 18.2171 0)
(-69.618 25.2378 0)
(-60.2943 29.7797 0)
(-52.4693 32.9693 0)
(-45.4869 35.2452 0)
(-38.5684 36.7766 0)
(-31.6869 37.7355 0)
(-25.5807 38.1825 0)
(-19.8592 38.2715 0)
(-14.4766 38.2022 0)
(-9.53302 38.0376 0)
(-5.0321 37.8952 0)
(0.349135 37.4517 0)
(4.52209 36.9913 0)
(8.79854 35.6055 0)
(14.3803 33.5111 0)
(21.3582 30.7797 0)
(30.5958 27.3137 0)
(43.0509 24.0895 0)
(56.9561 20.7696 0)
(77.0608 18.6458 0)
(96.2988 16.0755 0)
(174.765 14.388 0)
(378.848 15.235 0)
(1203.8 12.0465 0)
(49.0457 -168.721 0)
(-637.609 24.041 0)
(-613.697 -20.2573 0)
(241.399 -53.4625 0)
(112.286 -52.5813 0)
(56.5837 -72.5855 0)
(-19.6017 -83.8455 0)
(-34.3852 -96.2392 0)
(-83.8295 -106.932 0)
(-124.072 -105.242 0)
(-142.126 -83.7469 0)
(-137.684 -51.9263 0)
(-119.228 -21.5975 0)
(-99.979 2.91077 0)
(-84.5253 18.725 0)
(-73.2456 28.2718 0)
(-63.906 34.5895 0)
(-56.347 38.796 0)
(-49.582 41.8289 0)
(-43.4966 44.009 0)
(-37.3559 45.4935 0)
(-31.1463 46.4665 0)
(-25.5753 46.9857 0)
(-20.1651 47.1908 0)
(-14.9264 47.2602 0)
(-9.9741 47.2271 0)
(-5.58672 47.2619 0)
(-0.431074 46.8343 0)
(3.29642 46.2436 0)
(6.83979 44.7979 0)
(11.7726 42.6606 0)
(18.0748 39.8753 0)
(27.0766 36.368 0)
(39.6202 33.1581 0)
(54.1381 30.1059 0)
(74.7166 28.443 0)
(94.2653 26.7201 0)
(174.297 26.0266 0)
(377.827 26.8064 0)
(1110.01 19.3223 0)
(126.274 -163.271 0)
(-622.103 7.15552 0)
(-646.646 10.6553 0)
(227.52 -7.83749 0)
(95.5644 -18.9289 0)
(37.9829 -48.9951 0)
(-31.8073 -62.6716 0)
(-44.6557 -78.5468 0)
(-84.5661 -84.3374 0)
(-110.751 -75.4991 0)
(-117.395 -51.6823 0)
(-110.5 -22.7535 0)
(-95.8284 2.78903 0)
(-83.3732 20.9292 0)
(-73.9894 33.2318 0)
(-66.1044 41.8365 0)
(-59.4765 47.4352 0)
(-53.3181 51.4014 0)
(-47.4458 54.3395 0)
(-41.9556 56.5333 0)
(-36.2003 58.0183 0)
(-30.2489 58.8134 0)
(-24.8827 58.9962 0)
(-19.5946 58.911 0)
(-14.4416 58.8565 0)
(-9.5314 58.8114 0)
(-5.41057 58.9391 0)
(-0.632178 58.5083 0)
(2.55969 57.8699 0)
(5.34586 56.4847 0)
(9.63675 54.4956 0)
(15.2944 51.9083 0)
(24.1228 48.6714 0)
(37.0165 45.9752 0)
(52.4125 43.6962 0)
(73.7981 43.2493 0)
(93.9704 42.8663 0)
(174.849 43.1238 0)
(372.387 46.3661 0)
(1020.64 37.0939 0)
(187.76 -134.944 0)
(-620.446 -20.1792 0)
(-628.145 40.3208 0)
(212.891 26.0212 0)
(72.6254 5.8965 0)
(14.4316 -30.1432 0)
(-48.0788 -39.6916 0)
(-55.2631 -54.4137 0)
(-80.8926 -54.374 0)
(-92.6049 -40.9514 0)
(-91.2981 -16.1426 0)
(-85.1936 6.95884 0)
(-77.134 26.6195 0)
(-70.6432 39.7564 0)
(-64.3782 49.8731 0)
(-59.5587 56.5937 0)
(-54.689 61.2187 0)
(-49.6939 64.2195 0)
(-44.6367 65.9754 0)
(-39.9516 66.8568 0)
(-35.1587 67.4084 0)
(-30.2039 68.2816 0)
(-25.4812 69.4263 0)
(-20.2996 70.4542 0)
(-15.0224 71.1721 0)
(-9.89452 71.5212 0)
(-5.87882 71.8059 0)
(-1.46144 71.4406 0)
(1.34647 70.9876 0)
(3.58819 69.8587 0)
(7.36258 68.2837 0)
(12.4624 66.0598 0)
(21.3592 63.3137 0)
(34.826 61.2968 0)
(51.5114 60.02 0)
(73.9168 61.1512 0)
(94.1443 62.5785 0)
(177.67 64.8893 0)
(372.016 73.0662 0)
(935.29 66.9148 0)
(220.566 -76.097 0)
(-602.694 79.3318 0)
(-602.126 81.282 0)
(194.347 66.6203 0)
(41.4423 37.7911 0)
(-5.94746 1.05613 0)
(-55.1953 -0.824531 0)
(-58.8042 -9.84896 0)
(-71.5933 -3.57641 0)
(-73.91 10.4281 0)
(-71.2266 29.2261 0)
(-69.2932 45.793 0)
(-64.2234 59.4152 0)
(-60.9652 69.9494 0)
(-57.7644 77.8575 0)
(-55.1713 83.8135 0)
(-52.128 88.5231 0)
(-48.7344 92.1049 0)
(-44.9044 94.6527 0)
(-40.5747 96.2135 0)
(-34.8273 97.0512 0)
(-28.3045 97.7129 0)
(-22.7891 98.1133 0)
(-17.9122 98.0335 0)
(-13.4135 97.5933 0)
(-8.92074 96.8747 0)
(-5.48825 96.4169 0)
(-1.42068 95.4533 0)
(1.03532 94.7156 0)
(2.74028 93.3646 0)
(5.97606 91.862 0)
(10.5052 89.5082 0)
(19.533 86.9228 0)
(33.8426 85.2627 0)
(52.2721 84.6314 0)
(76.2636 86.9404 0)
(97.5725 90.0004 0)
(184.955 93.4794 0)
(374.339 106.404 0)
(876.899 106.564 0)
(196.609 78.5446 0)
(-465.672 248.536 0)
(-640.394 132.32 0)
(170.982 109.419 0)
(9.44541 79.0571 0)
(-22.7798 46.1637 0)
(-58.5874 42.1636 0)
(-57.9149 37.9178 0)
(-61.3529 46.9053 0)
(-60.9952 59.2327 0)
(-57.2192 71.637 0)
(-56.1022 83.7766 0)
(-53.8561 94.4032 0)
(-52.8716 102.522 0)
(-51.0182 110.419 0)
(-49.2809 117.678 0)
(-46.6991 124.615 0)
(-43.7871 130.253 0)
(-40.6776 133.846 0)
(-37.6403 135.545 0)
(-33.7138 136.125 0)
(-29.1805 136.562 0)
(-25.1723 136.79 0)
(-20.8007 135.971 0)
(-16.139 133.561 0)
(-11.0282 129.814 0)
(-7.24858 126.862 0)
(-3.10084 123.225 0)
(-0.666206 120.911 0)
(0.83835 118.402 0)
(3.64641 116.921 0)
(7.7029 114.846 0)
(17.2681 112.994 0)
(32.6178 112.039 0)
(53.1281 111.953 0)
(79.0906 115.44 0)
(100.446 119.648 0)
(193.477 122.432 0)
(384.625 135.943 0)
(908.444 149.659 0)
(42.1888 252.882 0)
(-235.687 534.045 0)
(-736.184 219.91 0)
(143.021 203.655 0)
(-19.5129 165.363 0)
(-41.4994 131.244 0)
(-63.1413 121.71 0)
(-54.2349 120.207 0)
(-51.0535 129.674 0)
(-50.0777 143.156 0)
(-47.5752 154.343 0)
(-47.3548 164.059 0)
(-46.16 171.18 0)
(-45.5315 175.569 0)
(-43.1594 179.364 0)
(-41.4923 182.589 0)
(-40.0097 187.243 0)
(-39.8384 193.751 0)
(-39.8047 202.002 0)
(-38.3787 210.327 0)
(-33.8475 215.623 0)
(-27.6639 216.286 0)
(-23.3587 212.386 0)
(-21.0235 205.421 0)
(-19.3471 200.009 0)
(-15.3762 196.691 0)
(-11.8376 196.894 0)
(-7.15527 197.818 0)
(-3.61223 198.526 0)
(-1.10488 199.419 0)
(2.54923 200.407 0)
(6.72149 201.102 0)
(16.8289 201.281 0)
(32.839 201.761 0)
(55.5489 204.778 0)
(83.6793 212.256 0)
(104.311 224.245 0)
(200.657 232.374 0)
(400.576 244.243 0)
(989.586 233.741 0)
(-191.294 505.871 0)
(260.866 9567.76 0)
(-958.77 1160.13 0)
(118.418 689.036 0)
(-60.3326 582.593 0)
(-64.8454 547.232 0)
(-69.223 516.511 0)
(-50.24 511.652 0)
(-39.2383 500.548 0)
(-37.2239 502.273 0)
(-37.0763 494.464 0)
(-39.8773 487.641 0)
(-42.7648 475.284 0)
(-44.9848 459.04 0)
(-44.2529 439.279 0)
(-41.6887 415.012 0)
(-35.9431 388.989 0)
(-29.565 362.065 0)
(-24.7041 339.287 0)
(-24.5141 325.424 0)
(-27.9716 319.106 0)
(-32.2998 318.723 0)
(-35.6425 325.71 0)
(-32.728 332.49 0)
(-24.5518 353.039 0)
(-14.0299 369.431 0)
(-6.16222 387.174 0)
(-1.52781 401.449 0)
(0.876595 411.423 0)
(2.65031 420.478 0)
(5.26772 426.194 0)
(8.54523 428.987 0)
(17.9031 429.131 0)
(35.9879 425.946 0)
(63.2414 424.814 0)
(97.8498 426.341 0)
(119.832 440.166 0)
(212.748 462.476 0)
(385.942 444.631 0)
(1160.56 998.382 0)
(-670.528 8696.22 0)
(10102.1 154254 0)
(-9292.05 10547.2 0)
(-413.517 2349.4 0)
(-156.16 2040.84 0)
(-105.178 1943.07 0)
(-97.4283 1918.02 0)
(-69.6179 1997.61 0)
(-60.0914 2031.31 0)
(-55.9399 2086.45 0)
(-61.6746 2118.67 0)
(-65.8374 2131.46 0)
(-73.721 2129.98 0)
(-80.2274 2113.66 0)
(-85.5867 2083.82 0)
(-89.9542 2043 0)
(-91.0313 1995.88 0)
(-87.7326 1943.33 0)
(-75.1131 1890.04 0)
(-57.8257 1845.45 0)
(-40.305 1806.92 0)
(-21.2998 1779.5 0)
(-10.0925 1756.41 0)
(5.31129 1723.5 0)
(16.2505 1699.12 0)
(17.5178 1655.7 0)
(19.0165 1612.59 0)
(16.2116 1558.34 0)
(14.7253 1494.12 0)
(13.1294 1422.63 0)
(10.7485 1341.57 0)
(9.55147 1255.17 0)
(13.8986 1152.78 0)
(28.6788 1057.23 0)
(55.9289 944.968 0)
(98.4729 866.214 0)
(139.132 884.492 0)
(204.96 951.338 0)
(916.994 1053.66 0)
(8941.12 8754.65 0)
(-9533.36 137073 0)
(159069 -164872 0)
(-147339 -10682.4 0)
(-8078.63 -2330.6 0)
(-451.889 -1869.78 0)
(-183.195 -1699.61 0)
(-16.6635 -1570.53 0)
(58.9283 -1581.21 0)
(46.3722 -1559.44 0)
(46.9608 -1566.98 0)
(6.29575 -1550.12 0)
(-28.982 -1509.51 0)
(-59.9195 -1451.72 0)
(-89.4659 -1370.82 0)
(-112.347 -1275.62 0)
(-126.431 -1165.42 0)
(-131.99 -1051.07 0)
(-131.558 -933.985 0)
(-119.022 -823.507 0)
(-104.605 -732.524 0)
(-91.5248 -654.947 0)
(-80.98 -595.719 0)
(-89.6052 -548.807 0)
(-87.9349 -492.259 0)
(-89.8879 -463.066 0)
(-97.414 -415.843 0)
(-99.9736 -380.155 0)
(-115.69 -331.831 0)
(-129.907 -276.922 0)
(-144.35 -212.302 0)
(-156.103 -140.75 0)
(-173.376 -61.4628 0)
(-172.839 29.2563 0)
(-164.269 103.475 0)
(-120.825 169.963 0)
(39.573 170.82 0)
(201.861 26.7081 0)
(375.766 -183.04 0)
(7905.49 -575.932 0)
(132234 -9338.45 0)
(-141195 -147078 0)
(159069 164872 0)
(-147339 10682.4 0)
(-8078.63 2330.6 0)
(-451.889 1869.78 0)
(-183.195 1699.61 0)
(-16.6635 1570.53 0)
(58.9283 1581.21 0)
(46.3722 1559.44 0)
(46.9608 1566.98 0)
(6.29575 1550.12 0)
(-28.982 1509.51 0)
(-59.9195 1451.72 0)
(-89.4659 1370.82 0)
(-112.347 1275.62 0)
(-126.431 1165.42 0)
(-131.99 1051.07 0)
(-131.558 933.985 0)
(-119.022 823.507 0)
(-104.605 732.524 0)
(-91.5248 654.947 0)
(-80.98 595.719 0)
(-89.6052 548.807 0)
(-87.9349 492.259 0)
(-89.8879 463.066 0)
(-97.414 415.843 0)
(-99.9736 380.155 0)
(-115.69 331.831 0)
(-129.907 276.922 0)
(-144.35 212.302 0)
(-156.103 140.75 0)
(-173.376 61.4628 0)
(-172.839 -29.2563 0)
(-164.269 -103.475 0)
(-120.825 -169.963 0)
(39.573 -170.82 0)
(201.861 -26.7081 0)
(375.766 183.04 0)
(7905.49 575.932 0)
(132234 9338.45 0)
(-141195 147078 0)
(10102.1 -154254 0)
(-9292.05 -10547.2 0)
(-413.517 -2349.4 0)
(-156.16 -2040.84 0)
(-105.178 -1943.07 0)
(-97.4283 -1918.02 0)
(-69.6179 -1997.61 0)
(-60.0914 -2031.31 0)
(-55.9399 -2086.45 0)
(-61.6746 -2118.67 0)
(-65.8374 -2131.46 0)
(-73.721 -2129.98 0)
(-80.2274 -2113.66 0)
(-85.5867 -2083.82 0)
(-89.9542 -2043 0)
(-91.0313 -1995.88 0)
(-87.7326 -1943.33 0)
(-75.1131 -1890.04 0)
(-57.8257 -1845.45 0)
(-40.305 -1806.92 0)
(-21.2998 -1779.5 0)
(-10.0925 -1756.41 0)
(5.31129 -1723.5 0)
(16.2505 -1699.12 0)
(17.5178 -1655.7 0)
(19.0165 -1612.59 0)
(16.2116 -1558.34 0)
(14.7253 -1494.12 0)
(13.1294 -1422.63 0)
(10.7485 -1341.57 0)
(9.55147 -1255.17 0)
(13.8986 -1152.78 0)
(28.6788 -1057.23 0)
(55.9289 -944.968 0)
(98.4729 -866.214 0)
(139.132 -884.492 0)
(204.96 -951.338 0)
(916.994 -1053.66 0)
(8941.12 -8754.65 0)
(-9533.36 -137073 0)
(260.866 -9567.76 0)
(-958.77 -1160.13 0)
(118.418 -689.036 0)
(-60.3326 -582.593 0)
(-64.8454 -547.232 0)
(-69.223 -516.511 0)
(-50.24 -511.652 0)
(-39.2383 -500.548 0)
(-37.2239 -502.273 0)
(-37.0763 -494.464 0)
(-39.8773 -487.641 0)
(-42.7648 -475.284 0)
(-44.9848 -459.04 0)
(-44.2529 -439.279 0)
(-41.6887 -415.012 0)
(-35.9431 -388.989 0)
(-29.565 -362.065 0)
(-24.7041 -339.287 0)
(-24.5141 -325.424 0)
(-27.9716 -319.106 0)
(-32.2998 -318.723 0)
(-35.6425 -325.71 0)
(-32.728 -332.49 0)
(-24.5518 -353.039 0)
(-14.0299 -369.431 0)
(-6.16222 -387.174 0)
(-1.52781 -401.449 0)
(0.876595 -411.423 0)
(2.65031 -420.478 0)
(5.26772 -426.194 0)
(8.54523 -428.987 0)
(17.9031 -429.131 0)
(35.9879 -425.946 0)
(63.2414 -424.814 0)
(97.8498 -426.341 0)
(119.832 -440.166 0)
(212.748 -462.476 0)
(385.942 -444.631 0)
(1160.56 -998.382 0)
(-670.528 -8696.22 0)
(-235.687 -534.045 0)
(-736.184 -219.91 0)
(143.021 -203.655 0)
(-19.5129 -165.363 0)
(-41.4994 -131.244 0)
(-63.1413 -121.71 0)
(-54.2349 -120.207 0)
(-51.0535 -129.674 0)
(-50.0777 -143.156 0)
(-47.5752 -154.343 0)
(-47.3548 -164.059 0)
(-46.16 -171.18 0)
(-45.5315 -175.569 0)
(-43.1594 -179.364 0)
(-41.4923 -182.589 0)
(-40.0097 -187.243 0)
(-39.8384 -193.751 0)
(-39.8047 -202.002 0)
(-38.3787 -210.327 0)
(-33.8475 -215.623 0)
(-27.6639 -216.286 0)
(-23.3587 -212.386 0)
(-21.0235 -205.421 0)
(-19.3471 -200.009 0)
(-15.3762 -196.691 0)
(-11.8376 -196.894 0)
(-7.15527 -197.818 0)
(-3.61223 -198.526 0)
(-1.10488 -199.419 0)
(2.54923 -200.407 0)
(6.72149 -201.102 0)
(16.8289 -201.281 0)
(32.839 -201.761 0)
(55.5489 -204.778 0)
(83.6793 -212.256 0)
(104.311 -224.245 0)
(200.657 -232.374 0)
(400.576 -244.243 0)
(989.586 -233.741 0)
(-191.294 -505.871 0)
(-465.672 -248.536 0)
(-640.394 -132.32 0)
(170.982 -109.419 0)
(9.44541 -79.0571 0)
(-22.7798 -46.1637 0)
(-58.5874 -42.1636 0)
(-57.9149 -37.9178 0)
(-61.3529 -46.9053 0)
(-60.9952 -59.2327 0)
(-57.2192 -71.637 0)
(-56.1022 -83.7766 0)
(-53.8561 -94.4032 0)
(-52.8716 -102.522 0)
(-51.0182 -110.419 0)
(-49.2809 -117.678 0)
(-46.6991 -124.615 0)
(-43.7871 -130.253 0)
(-40.6776 -133.846 0)
(-37.6403 -135.545 0)
(-33.7138 -136.125 0)
(-29.1805 -136.562 0)
(-25.1723 -136.79 0)
(-20.8007 -135.971 0)
(-16.139 -133.561 0)
(-11.0282 -129.814 0)
(-7.24858 -126.862 0)
(-3.10084 -123.225 0)
(-0.666206 -120.911 0)
(0.83835 -118.402 0)
(3.64641 -116.921 0)
(7.7029 -114.846 0)
(17.2681 -112.994 0)
(32.6178 -112.039 0)
(53.1281 -111.953 0)
(79.0906 -115.44 0)
(100.446 -119.648 0)
(193.477 -122.432 0)
(384.625 -135.943 0)
(908.444 -149.659 0)
(42.1888 -252.882 0)
(-602.694 -79.3318 0)
(-602.126 -81.282 0)
(194.347 -66.6203 0)
(41.4423 -37.7911 0)
(-5.94746 -1.05613 0)
(-55.1953 0.824531 0)
(-58.8042 9.84896 0)
(-71.5933 3.57641 0)
(-73.91 -10.4281 0)
(-71.2266 -29.2261 0)
(-69.2932 -45.793 0)
(-64.2234 -59.4152 0)
(-60.9652 -69.9494 0)
(-57.7644 -77.8575 0)
(-55.1713 -83.8135 0)
(-52.128 -88.5231 0)
(-48.7344 -92.1049 0)
(-44.9044 -94.6527 0)
(-40.5747 -96.2135 0)
(-34.8273 -97.0512 0)
(-28.3045 -97.7129 0)
(-22.7891 -98.1133 0)
(-17.9122 -98.0335 0)
(-13.4135 -97.5933 0)
(-8.92074 -96.8747 0)
(-5.48825 -96.4169 0)
(-1.42068 -95.4533 0)
(1.03532 -94.7156 0)
(2.74028 -93.3646 0)
(5.97606 -91.862 0)
(10.5052 -89.5082 0)
(19.533 -86.9228 0)
(33.8426 -85.2627 0)
(52.2721 -84.6314 0)
(76.2636 -86.9404 0)
(97.5725 -90.0004 0)
(184.955 -93.4794 0)
(374.339 -106.404 0)
(876.899 -106.564 0)
(196.609 -78.5446 0)
(-620.446 20.1792 0)
(-628.145 -40.3208 0)
(212.891 -26.0212 0)
(72.6254 -5.8965 0)
(14.4316 30.1432 0)
(-48.0788 39.6916 0)
(-55.2631 54.4137 0)
(-80.8926 54.374 0)
(-92.6049 40.9514 0)
(-91.2981 16.1426 0)
(-85.1936 -6.95884 0)
(-77.134 -26.6195 0)
(-70.6432 -39.7564 0)
(-64.3782 -49.8731 0)
(-59.5587 -56.5937 0)
(-54.689 -61.2187 0)
(-49.6939 -64.2195 0)
(-44.6367 -65.9754 0)
(-39.9516 -66.8568 0)
(-35.1587 -67.4084 0)
(-30.2039 -68.2816 0)
(-25.4812 -69.4263 0)