/*--------------------------------*- C++ -*----------------------------------*\
| =========                 |                                                 |
| \\      /  F ield         | OpenFOAM: The Open Source CFD Toolbox           |
|  \\    /   O peration     | Version:  v1912                                 |
|   \\  /    A nd           | Website:  www.openfoam.com                      |
|    \\/     M anipulation  |                                                 |
\*---------------------------------------------------------------------------*/
FoamFile
{
    version     2.0;
    format      ascii;
    class       volScalarField;
    location    "5.5";
    object      Ma;
}
// * * * * * * * * * * * * * * * * * * * * * * * * * * * * * * * * * * * * * //

dimensions      [0 0 0 0 0 0 0];


internalField   nonuniform List<scalar> 
1900
(
0.806271
0.0760641
0.0634801
0.0636921
0.0703191
0.0781611
0.0860909
0.0925691
0.0964596
0.0900511
0.806271
0.0760603
0.0635003
0.063697
0.070278
0.0779698
0.0854927
0.09153
0.0978468
0.103243
0.80627
0.0760576
0.0635041
0.0636853
0.0702268
0.0778464
0.0852427
0.0913358
0.0983867
0.109725
0.806271
0.0760603
0.0635003
0.063697
0.070278
0.0779698
0.0854927
0.09153
0.0978468
0.103243
0.806271
0.0760641
0.0634801
0.0636921
0.0703191
0.0781611
0.0860909
0.0925691
0.0964596
0.0900511
0.0996741
0.139625
0.193709
0.280829
0.427446
0.121752
0.148312
0.180562
0.247165
0.384844
0.130069
0.155911
0.188483
0.251657
0.382001
0.121752
0.148312
0.180562
0.247165
0.384844
0.0996741
0.139625
0.193709
0.280829
0.427446
0.886094
1.10669
1.05919
1.06337
1.10519
0.851303
1.12877
1.08595
1.08551
1.1211
0.848951
1.13976
1.08647
1.07618
1.11616
0.851303
1.12877
1.08595
1.08551
1.1211
0.886094
1.10669
1.05919
1.06337
1.10519
1.48265
1.72315
1.39313
0.914513
0.610599
0.342945
0.161417
0.0575131
0.082361
0.11667
0.130793
0.139205
0.146627
0.149415
0.141489
0.120554
0.0913114
0.0593807
0.03117
0.0311309
0.0604454
0.0958997
0.133327
0.171779
0.210887
0.250453
0.290143
0.330154
0.369375
0.40746
0.444532
0.479602
0.513665
0.545538
0.576453
0.600767
0.621318
0.620824
0.64113
1.12447
1.44354
1.74484
1.49961
0.985196
0.682909
0.374477
0.157916
0.0321167
0.0735279
0.113137
0.12879
0.13763
0.145105
0.148184
0.14024
0.118955
0.088961
0.0554045
0.022262
0.0220137
0.0563581
0.0934954
0.13173
0.17067
0.210117
0.249938
0.289831
0.330012
0.369365
0.407576
0.44473
0.479885
0.513984
0.545915
0.576804
0.601043
0.621689
0.620942
0.641607
1.11937
1.39613
1.74386
1.51046
0.972805
0.675229
0.378869
0.157686
0.0155246
0.0710895
0.11216
0.128087
0.137063
0.144682
0.147825
0.139802
0.118384
0.0881324
0.053987
0.0183375
0.017996
0.0549375
0.0926808
0.131187
0.170288
0.209848
0.24976
0.28973
0.329986
0.369409
0.407703
0.444943
0.480209
0.514438
0.546568
0.577694
0.602268
0.623465
0.623239
0.643741
1.11967
1.44354
1.74484
1.49961
0.985196
0.682909
0.374477
0.157916
0.0321167
0.0735279
0.113137
0.12879
0.13763
0.145105
0.148184
0.14024
0.118955
0.088961
0.0554045
0.022262
0.0220137
0.0563581
0.0934954
0.13173
0.17067
0.210117
0.249938
0.289831
0.330012
0.369365
0.407576
0.44473
0.479885
0.513984
0.545915
0.576804
0.601043
0.621689
0.620942
0.641607
1.11937
1.48265
1.72315
1.39313
0.914513
0.610599
0.342945
0.161417
0.0575131
0.082361
0.11667
0.130793
0.139205
0.146627
0.149415
0.141489
0.120554
0.0913114
0.0593807
0.03117
0.0311309
0.0604454
0.0958997
0.133327
0.171779
0.210887
0.250453
0.290143
0.330154
0.369375
0.40746
0.444532
0.479602
0.513665
0.545538
0.576453
0.600767
0.621318
0.620824
0.64113
1.12447
1.12172
1.23315
0.900081
0.651569
0.493637
0.338379
0.196458
0.112924
0.117683
0.137003
0.14525
0.151457
0.157515
0.158529
0.14979
0.129576
0.102665
0.0754536
0.0557725
0.055688
0.076021
0.106389
0.141131
0.178002
0.216089
0.254949
0.294139
0.33375
0.372728
0.410568
0.447555
0.482506
0.516618
0.548405
0.579515
0.604028
0.624755
0.626039
0.644897
1.12999
0.400293
0.481368
0.525889
0.551554
0.512168
0.399892
0.266389
0.195238
0.182969
0.180632
0.179457
0.180761
0.183343
0.181097
0.170888
0.152247
0.129716
0.109205
0.0964112
0.0963284
0.109222
0.132004
0.161324
0.194457
0.229894
0.266806
0.304546
0.342959
0.381153
0.418194
0.454814
0.489278
0.523324
0.554669
0.586014
0.610533
0.631852
0.636532
0.651806
1.12434
0.765213
0.677334
0.733567
0.668012
0.558513
0.424301
0.325184
0.269451
0.245957
0.230484
0.221338
0.217841
0.216316
0.210893
0.199344
0.182155
0.163249
0.14719
0.137733
0.137671
0.146835
0.164249
0.188576
0.217609
0.249796
0.284133
0.319852
0.356529
0.393543
0.429363
0.465363
0.499039
0.53285
0.563454
0.594899
0.619223
0.641549
0.649338
0.660999
1.12803
1.00022
0.853464
0.83866
0.71267
0.573383
0.464917
0.386218
0.336062
0.303635
0.281417
0.266226
0.258876
0.253364
0.24509
0.232434
0.216364
0.200065
0.186833
0.179226
0.179184
0.18617
0.199923
0.22028
0.245592
0.274522
0.306082
0.339517
0.374136
0.409727
0.444048
0.479252
0.511951
0.54539
0.575104
0.606505
0.630522
0.653946
0.663819
0.671109
1.12559
1.05816
0.890058
0.845709
0.712472
0.592141
0.505208
0.441059
0.393613
0.357411
0.330841
0.31209
0.30132
0.292465
0.281768
0.268248
0.253019
0.238555
0.227168
0.220694
0.220679
0.226243
0.237402
0.254705
0.27688
0.302833
0.331688
0.362851
0.39521
0.429296
0.461984
0.496282
0.527918
0.560915
0.589712
0.621036
0.644631
0.669072
0.680539
0.685805
1.13229
1.072
0.89714
0.833245
0.714169
0.621746
0.549565
0.492747
0.444379
0.40676
0.377624
0.357007
0.343572
0.332045
0.319483
0.305414
0.290897
0.277814
0.26772
0.262017
0.26205
0.266613
0.275835
0.290745
0.310304
0.333612
0.359908
0.388852
0.418864
0.451323
0.482213
0.515385
0.54575
0.578015
0.605654
0.636505
0.659242
0.68374
0.695335
0.699929
1.13323
1.08417
0.90114
0.825899
0.725795
0.657966
0.589949
0.537295
0.489899
0.453124
0.423338
0.401665
0.386036
0.372259
0.358187
0.343646
0.329677
0.317507
0.308242
0.303026
0.303088
0.306905
0.314648
0.327715
0.3452
0.366338
0.390452
0.417484
0.44544
0.476503
0.505862
0.538144
0.567572
0.599412
0.626314
0.657056
0.679349
0.704222
0.716453
0.721495
1.14505
1.09183
0.907028
0.831282
0.744993
0.692857
0.626331
0.577825
0.531869
0.496165
0.466392
0.443924
0.426392
0.410882
0.395871
0.381303
0.367953
0.356666
0.348175
0.343424
0.343587
0.346821
0.353313
0.364779
0.38039
0.399481
0.421409
0.446448
0.472185
0.501584
0.529118
0.560104
0.588232
0.619175
0.644956
0.675059
0.696395
0.720689
0.732822
0.739736
1.14854
1.1101
0.921171
0.848033
0.768109
0.723303
0.659855
0.616118
0.572388
0.537938
0.508717
0.485956
0.467207
0.450482
0.434572
0.419929
0.406839
0.395847
0.387638
0.383034
0.383188
0.385952
0.391519
0.401886
0.41625
0.433984
0.454406
0.478103
0.502308
0.530631
0.556929
0.587076
0.6144
0.644805
0.669905
0.699612
0.720353
0.744088
0.756593
0.765055
1.16213
1.1244
0.935579
0.867212
0.791537
0.752047
0.691907
0.652372
0.610735
0.577546
0.548711
0.525215
0.505076
0.4873
0.470825
0.456274
0.443556
0.433123
0.425374
0.421066
0.421325
0.423682
0.428329
0.43755
0.450574
0.466813
0.485547
0.507689
0.530197
0.557285
0.582252
0.611442
0.63795
0.667767
0.692248
0.721461
0.741545
0.764401
0.777051
0.788228
1.16805
1.15249
0.953468
0.887886
0.817187
0.781144
0.724012
0.687757
0.647712
0.61578
0.587385
0.563652
0.542682
0.524167
0.507996
0.493047
0.480372
0.47
0.462276
0.457956
0.458202
0.460247
0.464288
0.472862
0.485173
0.500594
0.51829
0.539506
0.560822
0.587069
0.611055
0.639456
0.665316
0.694546
0.718537
0.747155
0.76677
0.788727
0.801776
0.815399
1.1844
1.16593
0.970694
0.908118
0.842202
0.809324
0.754871
0.721319
0.682767
0.65199
0.62363
0.599342
0.577489
0.5589
0.541972
0.527233
0.514736
0.504587
0.497017
0.492783
0.493057
0.494754
0.498085
0.505859
0.517296
0.531732
0.548257
0.568475
0.588569
0.61404
0.637193
0.664968
0.690425
0.719302
0.743149
0.771418
0.790891
0.812249
0.825904
0.841823
1.19052
1.19463
0.990798
0.928864
0.867393
0.837161
0.785066
0.753463
0.716106
0.686409
0.658275
0.633823
0.612508
0.593399
0.576301
0.56139
0.548795
0.538527
0.53079
0.526425
0.52669
0.528224
0.531235
0.538733
0.549882
0.563901
0.579743
0.599506
0.618693
0.643617
0.666106
0.693245
0.718233
0.746472
0.769955
0.797287
0.816228
0.836284
0.849772
0.868596
1.20904
1.20479
1.00788
0.946915
0.889597
0.862299
0.812926
0.783149
0.746622
0.717267
0.689025
0.665036
0.642952
0.623705
0.606578
0.591838
0.579487
0.569487
0.561946
0.557702
0.558013
0.559191
0.561484
0.568202
0.57855
0.591676
0.606455
0.625506
0.643594
0.667945
0.689843
0.716526
0.741309
0.769238
0.792826
0.819715
0.838719
0.858501
0.872488
0.893572
1.21526
1.22033
1.02631
0.966315
0.912245
0.885455
0.838338
0.809685
0.774585
0.746918
0.71933
0.695704
0.673691
0.654449
0.637277
0.62248
0.610024
0.599865
0.592093
0.587664
0.58797
0.58912
0.591347
0.598068
0.60843
0.621449
0.635819
0.654835
0.67213
0.696105
0.717513
0.743632
0.767974
0.795068
0.818342
0.844054
0.862547
0.881136
0.894434
0.916685
1.22668
1.22762
1.03722
0.979184
0.927806
0.902415
0.85814
0.831098
0.796724
0.77
0.742355
0.718909
0.697018
0.678134
0.661166
0.64651
0.634051
0.623722
0.615657
0.610955
0.611104
0.611851
0.613558
0.619976
0.630195
0.642937
0.656694
0.675402
0.691627
0.715088
0.735958
0.761731
0.785881
0.812591
0.836042
0.861167
0.879614
0.897871
0.910616
0.933971
1.23187
1.22859
1.04051
0.985545
0.937176
0.914104
0.873696
0.847767
0.814352
0.788737
0.761972
0.739712
0.718286
0.700031
0.68305
0.668068
0.654769
0.643322
0.63434
0.629499
0.630097
0.630877
0.632283
0.63895
0.65008
0.663788
0.677729
0.696958
0.712346
0.735367
0.755378
0.780347
0.803683
0.829178
0.852301
0.876039
0.893962
0.911598
0.923382
0.945604
1.23524
1.23427
1.03599
0.988934
0.944523
0.924788
0.88785
0.862779
0.829336
0.803478
0.776291
0.753931
0.731615
0.713045
0.695261
0.679414
0.664538
0.650616
0.6386
0.630767
0.629427
0.629841
0.63259
0.641776
0.655357
0.67103
0.685502
0.70609
0.72144
0.745207
0.765517
0.791011
0.814869
0.840475
0.864252
0.887274
0.904563
0.921398
0.933244
0.954216
1.24557
1.82532
0.994156
0.958769
0.938302
0.918181
0.886173
0.859091
0.827007
0.799114
0.771612
0.747995
0.724951
0.706252
0.688996
0.675194
0.663833
0.655477
0.649523
0.646179
0.647167
0.647501
0.647306
0.653561
0.661539
0.674475
0.687367
0.708211
0.72512
0.750189
0.772942
0.800844
0.827657
0.856156
0.882808
0.907581
0.926012
0.940361
0.953344
0.951779
1.77364
2.4767
1.77821
1.31173
1.30314
1.29844
1.2841
1.27152
1.25431
1.23497
1.22136
1.20539
1.18947
1.17747
1.1632
1.15237
1.14125
1.13351
1.12678
1.12085
1.11923
1.11865
1.11146
1.11757
1.11341
1.12066
1.12071
1.13309
1.13513
1.14881
1.15421
1.17038
1.17642
1.19511
1.2014
1.21329
1.21638
1.21974
1.23389
1.754
2.44899
2.4767
1.77821
1.31173
1.30314
1.29844
1.2841
1.27152
1.25431
1.23497
1.22136
1.20539
1.18947
1.17747
1.1632
1.15237
1.14125
1.13351
1.12678
1.12085
1.11923
1.11865
1.11146
1.11757
1.11341
1.12066
1.12071
1.13309
1.13513
1.14881
1.15421
1.17038
1.17642
1.19511
1.2014
1.21329
1.21638
1.21974
1.23389
1.754
2.44899
1.82532
0.994156
0.958769
0.938302
0.918181
0.886173
0.859091
0.827007
0.799114
0.771612
0.747995
0.724951
0.706252
0.688996
0.675194
0.663833
0.655477
0.649523
0.646179
0.647167
0.647501
0.647306
0.653561
0.661539
0.674475
0.687367
0.708211
0.72512
0.750189
0.772942
0.800844
0.827657
0.856156
0.882808
0.907581
0.926012
0.940361
0.953344
0.951779
1.77364
1.23427
1.03599
0.988934
0.944523
0.924788
0.88785
0.862779
0.829336
0.803478
0.776291
0.753931
0.731615
0.713045
0.695261
0.679414
0.664538
0.650616
0.6386
0.630767
0.629427
0.629841
0.63259
0.641776
0.655357
0.67103
0.685502
0.70609
0.72144
0.745207
0.765517
0.791011
0.814869
0.840475
0.864252
0.887274
0.904563
0.921398
0.933244
0.954216
1.24557
1.22859
1.04051
0.985545
0.937176
0.914104
0.873696
0.847767
0.814352
0.788737
0.761972
0.739712
0.718286
0.700031
0.68305
0.668068
0.654769
0.643322
0.63434
0.629499
0.630097
0.630877
0.632283
0.63895
0.65008
0.663788
0.677729
0.696958
0.712346
0.735367
0.755378
0.780347
0.803683
0.829178
0.852301
0.876039
0.893962
0.911598
0.923382
0.945604
1.23524
1.22762
1.03722
0.979184
0.927806
0.902415
0.85814
0.831098
0.796724
0.77
0.742355
0.718909
0.697018
0.678134
0.661166
0.64651
0.634051
0.623722
0.615657
0.610955
0.611104
0.611851
0.613558
0.619976
0.630195
0.642937
0.656694
0.675402
0.691627
0.715088
0.735958
0.761731
0.785881
0.812591
0.836042
0.861167
0.879614
0.897871
0.910616
0.933971
1.23187
1.22033
1.02631
0.966315
0.912245
0.885455
0.838338
0.809685
0.774585
0.746918
0.71933
0.695704
0.673691
0.654449
0.637277
0.62248
0.610024
0.599865
0.592093
0.587664
0.58797
0.58912
0.591347
0.598068
0.60843
0.621449
0.635819
0.654835
0.67213
0.696105
0.717513
0.743632
0.767974
0.795068
0.818342
0.844054
0.862547
0.881136
0.894434
0.916685
1.22668
1.20479
1.00788
0.946915
0.889597
0.862299
0.812926
0.783149
0.746622
0.717267
0.689025
0.665036
0.642952
0.623705
0.606578
0.591838
0.579487
0.569487
0.561946
0.557702
0.558013
0.559191
0.561484
0.568202
0.57855
0.591676
0.606455
0.625506
0.643594
0.667945
0.689843
0.716526
0.741309
0.769238
0.792826
0.819715
0.838719
0.858501
0.872488
0.893572
1.21526
1.19463
0.990798
0.928864
0.867393
0.837161
0.785066
0.753463
0.716106
0.686409
0.658275
0.633823
0.612508
0.593399
0.576301
0.56139
0.548795
0.538527
0.53079
0.526425
0.52669
0.528224
0.531235
0.538733
0.549882
0.563901
0.579743
0.599506
0.618693
0.643617
0.666106
0.693245
0.718233
0.746472
0.769955
0.797287
0.816228
0.836284
0.849772
0.868596
1.20904
1.16593
0.970694
0.908118
0.842202
0.809324
0.754871
0.721319
0.682767
0.65199
0.62363
0.599342
0.577489
0.5589
0.541972
0.527233
0.514736
0.504587
0.497017
0.492783
0.493057
0.494754
0.498085
0.505859
0.517296
0.531732
0.548257
0.568475
0.588569
0.61404
0.637193
0.664968
0.690425
0.719302
0.743149
0.771418
0.790891
0.812249
0.825904
0.841823
1.19052
1.15249
0.953468
0.887886
0.817187
0.781144
0.724012
0.687757
0.647712
0.61578
0.587385
0.563652
0.542682
0.524167
0.507996
0.493047
0.480372
0.47
0.462276
0.457956
0.458202
0.460247
0.464288
0.472862
0.485173
0.500594
0.51829
0.539506
0.560822
0.587069
0.611055
0.639456
0.665316
0.694546
0.718537
0.747155
0.76677
0.788727
0.801776
0.815399
1.1844
1.1244
0.935579
0.867212
0.791537
0.752047
0.691907
0.652372
0.610735
0.577546
0.548711
0.525215
0.505076
0.4873
0.470825
0.456274
0.443556
0.433123
0.425374
0.421066
0.421325
0.423682
0.428329
0.43755
0.450574
0.466813
0.485547
0.507689
0.530197
0.557285
0.582252
0.611442
0.63795
0.667767
0.692248
0.721461
0.741545
0.764401
0.777051
0.788228
1.16805
1.1101
0.921171
0.848033
0.768109
0.723303
0.659855
0.616118
0.572388
0.537938
0.508717
0.485956
0.467207
0.450482
0.434572
0.419929
0.406839
0.395847
0.387638
0.383034
0.383188
0.385952
0.391519
0.401886
0.41625
0.433984
0.454406
0.478103
0.502308
0.530631
0.556929
0.587076
0.6144
0.644805
0.669905
0.699612
0.720353
0.744088
0.756593
0.765055
1.16213
1.09183
0.907028
0.831282
0.744993
0.692857
0.626331
0.577825
0.531869
0.496165
0.466392
0.443924
0.426392
0.410882
0.395871
0.381303
0.367953
0.356666
0.348175
0.343424
0.343587
0.346821
0.353313
0.364779
0.38039
0.399481
0.421409
0.446448
0.472185
0.501584
0.529118
0.560104
0.588232
0.619175
0.644956
0.675059
0.696395
0.720689
0.732822
0.739736
1.14854
1.08417
0.90114
0.825899
0.725795
0.657966
0.589949
0.537295
0.489899
0.453124
0.423338
0.401665
0.386036
0.372259
0.358187
0.343646
0.329677
0.317507
0.308242
0.303026
0.303088
0.306905
0.314648
0.327715
0.3452
0.366338
0.390452
0.417484
0.44544
0.476503
0.505862
0.538144
0.567572
0.599412
0.626314
0.657056
0.679349
0.704222
0.716453
0.721495
1.14505
1.072
0.89714
0.833245
0.714169
0.621746
0.549565
0.492747
0.444379
0.40676
0.377624
0.357007
0.343572
0.332045
0.319483
0.305414
0.290897
0.277814
0.26772
0.262017
0.26205
0.266613
0.275835
0.290745
0.310304
0.333612
0.359908
0.388852
0.418864
0.451323
0.482213
0.515385
0.54575
0.578015
0.605654
0.636505
0.659242
0.68374
0.695335
0.699929
1.13323
1.05816
0.890058
0.845709
0.712472
0.592141
0.505208
0.441059
0.393613
0.357411
0.330841
0.31209
0.30132
0.292465
0.281768
0.268248
0.253019
0.238555
0.227168
0.220694
0.220679
0.226243
0.237402
0.254705
0.27688
0.302833
0.331688
0.362851
0.39521
0.429296
0.461984
0.496282
0.527918
0.560915
0.589712
0.621036
0.644631
0.669072
0.680539
0.685805
1.13229
1.00022
0.853464
0.83866
0.71267
0.573383
0.464917
0.386218
0.336062
0.303635
0.281417
0.266226
0.258876
0.253364
0.24509
0.232434
0.216364
0.200065
0.186833
0.179226
0.179184
0.18617
0.199923
0.22028
0.245592
0.274522
0.306082
0.339517
0.374136
0.409727
0.444048
0.479252
0.511951
0.54539
0.575104
0.606505
0.630522
0.653946
0.663819
0.671109
1.12559
0.765213
0.677334
0.733567
0.668012
0.558513
0.424301
0.325184
0.269451
0.245957
0.230484
0.221338
0.217841
0.216316
0.210893
0.199344
0.182155
0.163249
0.14719
0.137733
0.137671
0.146835
0.164249
0.188576
0.217609
0.249796
0.284133
0.319852
0.356529
0.393543
0.429363
0.465363
0.499039
0.53285
0.563454
0.594899
0.619223
0.641549
0.649338
0.660999
1.12803
0.400293
0.481368
0.525889
0.551554
0.512168
0.399892
0.266389
0.195238
0.182969
0.180632
0.179457
0.180761
0.183343
0.181097
0.170888
0.152247
0.129716
0.109205
0.0964112
0.0963284
0.109222
0.132004
0.161324
0.194457
0.229894
0.266806
0.304546
0.342959
0.381153
0.418194
0.454814
0.489278
0.523324
0.554669
0.586014
0.610533
0.631852
0.636532
0.651806
1.12434
1.12172
1.23315
0.900081
0.651569
0.493637
0.338379
0.196458
0.112924
0.117683
0.137003
0.14525
0.151457
0.157515
0.158529
0.14979
0.129576
0.102665
0.0754536
0.0557725
0.055688
0.076021
0.106389
0.141131
0.178002
0.216089
0.254949
0.294139
0.33375
0.372728
0.410568
0.447555
0.482506
0.516618
0.548405
0.579515
0.604028
0.624755
0.626039
0.644897
1.12999
)
;

boundaryField
{
    inlet
    {
        type            calculated;
        value           uniform 0;
    }
    outlet
    {
        type            calculated;
        value           nonuniform List<scalar> 
165
(
1.12172
0.400293
0.765213
1.00022
1.05816
1.072
1.08417
1.09183
1.1101
1.1244
1.15249
1.16593
1.19463
1.20479
1.22033
1.22762
1.22859
1.23427
1.82532
2.4767
2.4767
1.77821
1.31173
1.30314
1.29844
1.2841
1.27152
1.25431
1.23497
1.22136
1.20539
1.18947
1.17747
1.1632
1.15237
1.14125
1.13351
1.12678
1.12085
1.11923
1.11865
1.11146
1.11757
1.11341
1.12066
1.12071
1.13309
1.13513
1.14881
1.15421
1.17038
1.17642
1.19511
1.2014
1.21329
1.21638
1.21974
1.23389
1.754
2.44899
1.12999
1.12434
1.12803
1.12559
1.13229
1.13323
1.14505
1.14854
1.16213
1.16805
1.1844
1.19052
1.20904
1.21526
1.22668
1.23187
1.23524
1.24557
1.77364
2.44899
1.12447
1.11937
1.11967
1.11937
1.12447
2.44899
1.77364
1.24557
1.23524
1.23187
1.22668
1.21526
1.20904
1.19052
1.1844
1.16805
1.16213
1.14854
1.14505
1.13323
1.13229
1.12559
1.12803
1.12434
1.12999
2.4767
1.77821
1.31173
1.30314
1.29844
1.2841
1.27152
1.25431
1.23497
1.22136
1.20539
1.18947
1.17747
1.1632
1.15237
1.14125
1.13351
1.12678
1.12085
1.11923
1.11865
1.11146
1.11757
1.11341
1.12066
1.12071
1.13309
1.13513
1.14881
1.15421
1.17038
1.17642
1.19511
1.2014
1.21329
1.21638
1.21974
1.23389
1.754
2.44899
2.4767
1.82532
1.23427
1.22859
1.22762
1.22033
1.20479
1.19463
1.16593
1.15249
1.1244
1.1101
1.09183
1.08417
1.072
1.05816
1.00022
0.765213
0.400293
1.12172
)
;
    }
    obstacle
    {
        type            calculated;
        value           nonuniform List<scalar> 
40
(
0.806271
0.0760641
0.0634801
0.0636921
0.0703191
0.0781609
0.08609
0.0925679
0.0964043
0.0893047
0.806271
0.0760641
0.0634801
0.0636921
0.0703191
0.0781609
0.08609
0.0925679
0.0964043
0.0893047
0.0975237
0.136166
0.190272
0.277274
0.420343
0.0975237
0.136166
0.190272
0.277274
0.420343
0.876542
1.10511
1.0586
1.06291
1.10431
0.876542
1.10511
1.0586
1.06291
1.10431
)
;
    }
    empty
    {
        type            empty;
    }
}


// ************************************************************************* //
