/*--------------------------------*- C++ -*----------------------------------*\
| =========                 |                                                 |
| \\      /  F ield         | OpenFOAM: The Open Source CFD Toolbox           |
|  \\    /   O peration     | Version:  v1912                                 |
|   \\  /    A nd           | Website:  www.openfoam.com                      |
|    \\/     M anipulation  |                                                 |
\*---------------------------------------------------------------------------*/
FoamFile
{
    version     2.0;
    format      ascii;
    class       volScalarField;
    location    "2.52";
    object      p;
}
// * * * * * * * * * * * * * * * * * * * * * * * * * * * * * * * * * * * * * //

dimensions      [1 -1 -2 0 0 0 0];


internalField   nonuniform List<scalar> 
1900
(
15326.9
11012.8
10829.6
10887.3
10942.5
11005.4
11071.1
11141.7
11201.9
11283
15327
11012.9
10829.7
10887.2
10942.5
11005.2
11069
11128.8
11176.7
11250
15327.1
11012.9
10829.6
10887
10942.1
11004.5
11069.1
11132.2
11187.6
11243.1
15327
11012.9
10829.7
10887.2
10942.5
11005.2
11069
11128.8
11176.7
11250
15326.9
11012.8
10829.6
10887.3
10942.5
11005.4
11071.1
11141.7
11201.9
11283
11195.4
11271.2
11272.4
11073.6
9790.72
11299.6
11376.9
11348.9
11290.8
10696.3
11280.5
11334.1
11283.6
11155
10513.8
11299.6
11376.9
11348.9
11290.8
10696.3
11195.4
11271.2
11272.4
11073.6
9790.72
12539.2
12721.9
13114.6
13204.1
13292.1
12353
12686.3
13109.1
13380.8
13256.5
12341.9
12693.5
13092.7
13241.6
12700.8
12353
12686.3
13109.1
13380.8
13256.5
12539.2
12721.9
13114.6
13204.1
13292.1
10644.1
4860.94
5234.26
5450.43
5352.33
5350.61
5413.75
5533.6
5686.06
5881.32
6118.89
6396.6
6711.33
7057.27
7428.93
7821.46
8227.67
8629.81
8978.74
9219.52
9211.69
8954.35
8594.02
8181.51
7764.42
7358.14
6967.13
6592.52
6235.14
5896.18
5577.56
5282.09
5012.78
4770.42
4550.91
4348.1
4166.22
4040.59
3698.3
19994.7
11025.5
5212.22
5447.16
5493.79
5383.3
5374.24
5434.18
5555.8
5708.65
5904.4
6142.89
6421.5
6737.2
7084.13
7456.78
7850.36
8257.69
8660.98
9010.91
9252.47
9244.58
8986.32
8624.81
8210.96
7792.51
7384.93
6992.69
6616.91
6258.43
5918.46
5598.94
5302.69
5032.72
4789.84
4569.92
4366.78
4183.98
4057.28
3712.52
20015
10453.4
5642.45
5581.71
5532.69
5396.09
5383.12
5441.66
5564.13
5717.1
5913.21
6152.04
6430.93
6746.95
7094.2
7467.16
7861.09
8268.8
8672.5
9022.79
9264.65
9256.74
8998.11
8636.16
8221.8
7802.88
7394.85
7002.2
6626.05
6267.23
5926.97
5607.2
5310.75
5040.65
4797.68
4577.76
4374.68
4191.7
4064.93
3719.67
20018.7
11025.5
5212.22
5447.16
5493.79
5383.3
5374.24
5434.18
5555.8
5708.65
5904.4
6142.89
6421.5
6737.2
7084.13
7456.78
7850.36
8257.69
8660.98
9010.91
9252.47
9244.58
8986.32
8624.81
8210.96
7792.51
7384.93
6992.69
6616.91
6258.43
5918.46
5598.94
5302.69
5032.72
4789.84
4569.92
4366.78
4183.98
4057.28
3712.52
20015
10644.1
4860.94
5234.26
5450.43
5352.33
5350.61
5413.75
5533.6
5686.06
5881.32
6118.89
6396.6
6711.33
7057.27
7428.93
7821.46
8227.67
8629.81
8978.74
9219.52
9211.69
8954.35
8594.02
8181.51
7764.42
7358.14
6967.13
6592.52
6235.14
5896.18
5577.56
5282.09
5012.78
4770.42
4550.91
4348.1
4166.22
4040.59
3698.3
19994.7
12238.9
4225.56
4964.22
5222.86
5227.21
5247.64
5322.13
5434.75
5586.77
5778.35
6011.45
6284.86
6594.8
6935.35
7301.05
7687.09
8086.48
8481.87
8824.92
9061.61
9053.93
8800.98
8446.42
8040.46
7629.88
7229.87
6844.88
6476.07
6124.32
5790.85
5477.61
5187.41
4923.22
4685.8
4471.02
4272.98
4097.26
3977.32
3645.27
19828.8
13437.4
3807.6
4597.78
4815.18
4947.18
5022.78
5120.19
5234.07
5381.34
5566.65
5791.68
6056.04
6355.23
6683.44
7035.51
7407.01
7791.37
8171.97
8502.24
8730.35
8723.24
8479.87
8138.18
7746.86
7351.05
6965.47
6594.47
6239.25
5900.73
5580.13
5279.36
5001.15
4748.34
4521.59
4316.84
4128.41
3965.15
3854.87
3540.62
19453.5
14522.6
3617.8
4239.99
4476.39
4629.3
4740.26
4851.48
4971.26
5115.94
5296.25
5514
5768.84
6056.14
6370.38
6706.79
7061.32
7427.85
7790.7
8105.64
8323.58
8317.33
8085.65
7759.71
7386.28
7008.51
6640.47
6286.38
5947.41
5624.5
5318.83
5032.21
4767.24
4526.57
4310.74
4116.19
3937.62
3787.42
3684.21
3383.24
18659.1
15854.4
3457.07
3952.63
4155.19
4315.21
4452.61
4569.04
4695.11
4839.73
5017.82
5230.93
5478.07
5754.8
6056.06
6377.61
6715.84
7065.09
7410.76
7710.97
7919.23
7914.03
7693.98
7383.61
7027.92
6668.04
6317.36
5979.89
5656.83
5349.05
5057.75
4784.59
4532
4302.47
4096.47
3911.56
3742.48
3602.88
3503.15
3208.24
17586.6
15107.8
3243.99
3678.55
3870.51
4029.92
4168.82
4288.42
4417.08
4563.52
4740.54
4949.87
5189.92
5456.52
5745.25
6052.37
6374.71
6707.16
7036.19
7322.26
7521.25
7517.15
7308.49
7013.29
6674.86
6332.39
5998.54
5677.15
5369.4
5076.2
4798.64
4538.37
4297.48
4078.5
3881.81
3706.75
3547.34
3415.94
3313.69
3029.24
16360.9
14574.5
3039.81
3429.64
3613.23
3767.83
3898.02
4017.04
4146.32
4294.41
4470.88
4676.83
4910.02
5166.88
5443.49
5736.71
6043.76
6360.11
6673.29
6945.97
7136.06
7133.01
6935.35
6654.71
6332.89
6007.14
5689.44
5383.43
5090.33
4811.01
4546.66
4298.52
4068.85
3859.86
3672.13
3507.04
3356.79
3230.91
3123.83
2851.92
15077.4
13756.9
2851.14
3201.12
3373.15
3522.05
3641.82
3757.9
3886.9
4035.9
4211.74
4413.71
4640.17
4887.28
5152.14
5431.92
5724.35
6025.36
6323.49
6583.5
6764.95
6762.86
6575.83
6309.18
6003.34
5693.67
5391.47
5100.23
4821.12
4555.27
4303.27
4067.16
3847.7
3648.64
3469.57
3314.22
3172.11
3049.91
2937.88
2680.05
13820.8
12949.3
2673.76
2987.83
3147.86
3289.7
3400.82
3513.42
3641.08
3790.48
3964.18
4162.53
4381.4
4619.19
4872.5
5139.49
5418.05
5704.62
5988.54
6236.51
6409.47
6408.2
6231.41
5978.19
5687.69
5393.44
5106.1
4828.92
4563.38
4309.96
4070.58
3844.74
3636.19
3445.97
3275.31
3129.27
2994.09
2874.55
2758.47
2515.53
12564.7
12012.5
2503.3
2787.67
2937.38
3071.23
3175.84
3284.98
3410.4
3558.33
3730.84
3922.99
4135.56
4363.38
4605.96
4860.76
5126.38
5399.42
5669.94
5906.42
6070.92
6070.26
5903.36
5663.01
5387.2
5107.67
4834.42
4570.77
4317.69
4077.06
3847.83
3634.37
3433.58
3253.5
3090.65
2952.69
2823.65
2706.7
2588.23
2360.48
11404.4
10978
2341.51
2598.81
2740.58
2866.27
2965.8
3071.63
3194.38
3341.81
3509.18
3698.48
3902.03
4121.79
4353.66
4597.39
4850.96
5111.39
5369.25
5594.66
5750.67
5750.43
5593.09
5365.04
5103.22
4837.6
4577.73
4326.52
4085.9
3855.51
3638.95
3432.88
3243.36
3070.81
2914.66
2785.02
2660.83
2545.94
2426.27
2213.66
10251.3
9986.15
2194.97
2428.52
2562.58
2677.51
2772.12
2875.47
2994.77
3139.97
3305.32
3486.51
3684.79
3894.91
4117.9
4351.2
4593.84
4842.57
5088.47
5303.17
5450.7
5450.71
5302.58
5086.24
4837.6
4585.02
4337.46
4098.16
3867.98
3649.45
3440.56
3247.07
3063.82
2900.34
2752
2627.7
2508.73
2397.12
2278.68
2080.58
9219.59
8951.41
2055.13
2266.38
2391.95
2498.14
2589.96
2691.72
2811.12
2953.21
3114.12
3291.98
3482.38
3686.04
3900.23
4124.65
4357.37
4595.42
4830.1
5034.5
5173.63
5173.75
5034.44
4829.17
4592.78
4352.09
4115.8
3886.83
3667.09
3456.84
3258.42
3071.31
2896.6
2741.6
2597.46
2480.06
2363.95
2254.4
2137.49
1953
8196.04
8001.92
1933.91
2125.39
2240.42
2340.59
2429.75
2533.28
2647.64
2790.36
2944.95
3117.5
3301.29
3497.17
3703.65
3919.62
4143.4
4371.72
4596.02
4790.6
4921.5
4921.64
4790.77
4595.84
4370.6
4140.66
3914.49
3695.33
3484.76
3284.04
3093.91
2915.33
2749.59
2599.7
2463.9
2349.29
2236.54
2129.78
2016.15
1844.29
7318.17
7040.41
1813.38
1985.53
2091.56
2188.24
2279.73
2385.42
2501.57
2640.1
2793.05
2959.76
3138.42
3327.63
3526.99
3735.34
3950.97
4170.48
4385.29
4570.63
4693.52
4693.64
4570.86
4385.45
4170.23
3949.87
3732.82
3522.43
3320.3
3127.81
2944.53
2773.96
2612.34
2470.47
2337.59
2226.04
2113.89
2008.5
1898.02
1738.28
6457.02
6182.8
1705.16
1859.47
1958.81
2056.56
2153.69
2261.53
2379.85
2516.17
2665.25
2827.21
2999.39
3181.34
3372.25
3571.44
3777.59
3987.64
4193
4369.44
4484.59
4484.66
4369.62
4193.26
3987.81
3777.41
3570.54
3370.22
3177.62
2993.6
2818.34
2653.96
2498.89
2361.05
2231.22
2119.75
2007.39
1902.22
1795.15
1647.23
5737.89
5337.54
1598.8
1736.51
1830.91
1928.34
2031.84
2140.05
2262.24
2395.27
2543.07
2701.16
2869.44
3046.25
3230.72
3421.98
3619.13
3819.92
4015.88
4183.52
4290.95
4290.98
4183.63
4016.1
3820.21
3619.37
3421.96
3230.18
3044.84
2866.88
2696.75
2537.19
2385.59
2251.54
2122.57
2011.55
1898.7
1794.83
1693.04
1557.84
5025.46
4697.09
1510.55
1630.21
1716.99
1812.44
1918.85
2027.37
2151.35
2281.99
2429.79
2586.14
2753.85
2929.61
3112.62
3300.91
3492.57
3684.56
3868.79
4024.22
4122.33
4122.33
4024.27
3868.93
3684.82
3492.92
3301.28
3112.88
2929.58
2753.36
2584.84
2427.79
2278.17
2146.96
2019.67
1909.54
1798.24
1698.15
1605.17
1485.31
4501.12
4156.88
1448.5
1547.38
1622.35
1710.73
1814.39
1920.17
2042.97
2171.04
2319.19
2475.65
2646.07
2825.8
3014.47
3208.88
3404.28
3594.02
3773.17
3922.02
4013.45
4013.45
3922.04
3773.27
3594.22
3404.59
3209.26
3014.87
2826.12
2646.18
2475.37
2318.46
2169.33
2040.76
1916.19
1809.33
1703.09
1611.78
1533.05
1434.02
4070.74
4067.63
1363.96
1446.96
1502.11
1576
1668.33
1762.79
1874.36
1989.47
2124.07
2265.65
2420.65
2584.71
2758.24
2939.02
3126.04
3314.48
3484.88
3615.31
3688.81
3688.8
3615.31
3484.91
3314.57
3126.24
2939.36
2758.68
2585.2
2421.13
2266.02
2124.27
1989.21
1873.85
1761.37
1666.34
1572.61
1496.95
1438.62
1354.36
4006.95
34408.7
4034.08
4137.63
4626.47
5186.28
5958.6
6735.15
7676.02
8626.06
9735.07
10853.7
12100.1
13352.3
14695.7
16034.1
17361.5
18569.1
19529.1
20109.8
20331
20331
20109.8
19529.1
18569.1
17361.6
16034.2
14696.1
13353
12101.1
10855.2
9737.01
8628.52
7678.83
6738.37
5962.07
5189.81
4629.62
4139.49
4033.94
34370.2
34408.7
4034.08
4137.63
4626.47
5186.28
5958.6
6735.15
7676.02
8626.06
9735.07
10853.7
12100.1
13352.3
14695.7
16034.1
17361.5
18569.1
19529.1
20109.8
20331
20331
20109.8
19529.1
18569.1
17361.6
16034.2
14696.1
13353
12101.1
10855.2
9737.01
8628.52
7678.83
6738.37
5962.07
5189.81
4629.62
4139.49
4033.94
34370.2
4067.63
1363.96
1446.96
1502.11
1576
1668.33
1762.79
1874.36
1989.47
2124.07
2265.65
2420.65
2584.71
2758.24
2939.02
3126.04
3314.48
3484.88
3615.31
3688.81
3688.8
3615.31
3484.91
3314.57
3126.24
2939.36
2758.68
2585.2
2421.13
2266.02
2124.27
1989.21
1873.85
1761.37
1666.34
1572.61
1496.95
1438.62
1354.36
4006.95
4156.88
1448.5
1547.38
1622.35
1710.73
1814.39
1920.17
2042.97
2171.04
2319.19
2475.65
2646.07
2825.8
3014.47
3208.88
3404.28
3594.02
3773.17
3922.02
4013.45
4013.45
3922.04
3773.27
3594.22
3404.59
3209.26
3014.87
2826.12
2646.18
2475.37
2318.46
2169.33
2040.76
1916.19
1809.33
1703.09
1611.78
1533.05
1434.02
4070.74
4697.09
1510.55
1630.21
1716.99
1812.44
1918.85
2027.37
2151.35
2281.99
2429.79
2586.14
2753.85
2929.61
3112.62
3300.91
3492.57
3684.56
3868.79
4024.22
4122.33
4122.33
4024.27
3868.93
3684.82
3492.92
3301.28
3112.88
2929.58
2753.36
2584.84
2427.79
2278.17
2146.96
2019.67
1909.54
1798.24
1698.15
1605.17
1485.31
4501.12
5337.54
1598.8
1736.51
1830.91
1928.34
2031.84
2140.05
2262.24
2395.27
2543.07
2701.16
2869.44
3046.25
3230.72
3421.98
3619.13
3819.92
4015.88
4183.52
4290.95
4290.98
4183.63
4016.1
3820.21
3619.37
3421.96
3230.18
3044.84
2866.88
2696.75
2537.19
2385.59
2251.54
2122.57
2011.55
1898.7
1794.83
1693.04
1557.84
5025.46
6182.8
1705.16
1859.47
1958.81
2056.56
2153.69
2261.53
2379.85
2516.17
2665.25
2827.21
2999.39
3181.34
3372.25
3571.44
3777.59
3987.64
4193
4369.44
4484.59
4484.66
4369.62
4193.26
3987.81
3777.41
3570.54
3370.22
3177.62
2993.6
2818.34
2653.96
2498.89
2361.05
2231.22
2119.75
2007.39
1902.22
1795.15
1647.23
5737.89
7040.41
1813.38
1985.53
2091.56
2188.24
2279.73
2385.42
2501.57
2640.1
2793.05
2959.76
3138.42
3327.63
3526.99
3735.34
3950.97
4170.48
4385.29
4570.63
4693.52
4693.64
4570.86
4385.45
4170.23
3949.87
3732.82
3522.43
3320.3
3127.81
2944.53
2773.96
2612.34
2470.47
2337.59
2226.04
2113.89
2008.5
1898.02
1738.28
6457.02
8001.92
1933.91
2125.39
2240.42
2340.59
2429.75
2533.28
2647.64
2790.36
2944.95
3117.5
3301.29
3497.17
3703.65
3919.62
4143.4
4371.72
4596.02
4790.6
4921.5
4921.64
4790.77
4595.84
4370.6
4140.66
3914.49
3695.33
3484.76
3284.04
3093.91
2915.33
2749.59
2599.7
2463.9
2349.29
2236.54
2129.78
2016.15
1844.29
7318.17
8951.41
2055.13
2266.38
2391.95
2498.14
2589.96
2691.72
2811.12
2953.21
3114.12
3291.98
3482.38
3686.04
3900.23
4124.65
4357.37
4595.42
4830.1
5034.5
5173.63
5173.75
5034.44
4829.17
4592.78
4352.09
4115.8
3886.83
3667.09
3456.84
3258.42
3071.31
2896.6
2741.6
2597.46
2480.06
2363.95
2254.4
2137.49
1953
8196.04
9986.15
2194.97
2428.52
2562.58
2677.51
2772.12
2875.47
2994.77
3139.97
3305.32
3486.51
3684.79
3894.91
4117.9
4351.2
4593.84
4842.57
5088.47
5303.17
5450.7
5450.71
5302.58
5086.24
4837.6
4585.02
4337.46
4098.16
3867.98
3649.45
3440.56
3247.07
3063.82
2900.34
2752
2627.7
2508.73
2397.12
2278.68
2080.58
9219.59
10978
2341.51
2598.81
2740.58
2866.27
2965.8
3071.63
3194.38
3341.81
3509.18
3698.48
3902.03
4121.79
4353.66
4597.39
4850.96
5111.39
5369.25
5594.66
5750.67
5750.43
5593.09
5365.04
5103.22
4837.6
4577.73
4326.52
4085.9
3855.51
3638.95
3432.88
3243.36
3070.81
2914.66
2785.02
2660.83
2545.94
2426.27
2213.66
10251.3
12012.5
2503.3
2787.67
2937.38
3071.23
3175.84
3284.98
3410.4
3558.33
3730.84
3922.99
4135.56
4363.38
4605.96
4860.76
5126.38
5399.42
5669.94
5906.42
6070.92
6070.26
5903.36
5663.01
5387.2
5107.67
4834.42
4570.77
4317.69
4077.06
3847.83
3634.37
3433.58
3253.5
3090.65
2952.69
2823.65
2706.7
2588.23
2360.48
11404.4
12949.3
2673.76
2987.83
3147.86
3289.7
3400.82
3513.42
3641.08
3790.48
3964.18
4162.53
4381.4
4619.19
4872.5
5139.49
5418.05
5704.62
5988.54
6236.51
6409.47
6408.2
6231.41
5978.19
5687.69
5393.44
5106.1
4828.92
4563.38
4309.96
4070.58
3844.74
3636.19
3445.97
3275.31
3129.27
2994.09
2874.55
2758.47
2515.53
12564.7
13756.9
2851.14
3201.12
3373.15
3522.05
3641.82
3757.9
3886.9
4035.9
4211.74
4413.71
4640.17
4887.28
5152.14
5431.92
5724.35
6025.36
6323.49
6583.5
6764.95
6762.86
6575.83
6309.18
6003.34
5693.67
5391.47
5100.23
4821.12
4555.27
4303.27
4067.16
3847.7
3648.64
3469.57
3314.22
3172.11
3049.91
2937.88
2680.05
13820.8
14574.5
3039.81
3429.64
3613.23
3767.83
3898.02
4017.04
4146.32
4294.41
4470.88
4676.83
4910.02
5166.88
5443.49
5736.71
6043.76
6360.11
6673.29
6945.97
7136.06
7133.01
6935.35
6654.71
6332.89
6007.14
5689.44
5383.43
5090.33
4811.01
4546.66
4298.52
4068.85
3859.86
3672.13
3507.04
3356.79
3230.91
3123.83
2851.92
15077.4
15107.8
3243.99
3678.55
3870.51
4029.92
4168.82
4288.42
4417.08
4563.52
4740.54
4949.87
5189.92
5456.52
5745.25
6052.37
6374.71
6707.16
7036.19
7322.26
7521.25
7517.15
7308.49
7013.29
6674.86
6332.39
5998.54
5677.15
5369.4
5076.2
4798.64
4538.37
4297.48
4078.5
3881.81
3706.75
3547.34
3415.94
3313.69
3029.24
16360.9
15854.4
3457.07
3952.63
4155.19
4315.21
4452.61
4569.04
4695.11
4839.73
5017.82
5230.93
5478.07
5754.8
6056.06
6377.61
6715.84
7065.09
7410.76
7710.97
7919.23
7914.03
7693.98
7383.61
7027.92
6668.04
6317.36
5979.89
5656.83
5349.05
5057.75
4784.59
4532
4302.47
4096.47
3911.56
3742.48
3602.88
3503.15
3208.24
17586.6
14522.6
3617.8
4239.99
4476.39
4629.3
4740.26
4851.48
4971.26
5115.94
5296.25
5514
5768.84
6056.14
6370.38
6706.79
7061.32
7427.85
7790.7
8105.64
8323.58
8317.33
8085.65
7759.71
7386.28
7008.51
6640.47
6286.38
5947.41
5624.5
5318.83
5032.21
4767.24
4526.57
4310.74
4116.19
3937.62
3787.42
3684.21
3383.24
18659.1
13437.4
3807.6
4597.78
4815.18
4947.18
5022.78
5120.19
5234.07
5381.34
5566.65
5791.68
6056.04
6355.23
6683.44
7035.51
7407.01
7791.37
8171.97
8502.24
8730.35
8723.24
8479.87
8138.18
7746.86
7351.05
6965.47
6594.47
6239.25
5900.73
5580.13
5279.36
5001.15
4748.34
4521.59
4316.84
4128.41
3965.15
3854.87
3540.62
19453.5
12238.9
4225.56
4964.22
5222.86
5227.21
5247.64
5322.13
5434.75
5586.77
5778.35
6011.45
6284.86
6594.8
6935.35
7301.05
7687.09
8086.48
8481.87
8824.92
9061.61
9053.93
8800.98
8446.42
8040.46
7629.88
7229.87
6844.88
6476.07
6124.32
5790.85
5477.61
5187.41
4923.22
4685.8
4471.02
4272.98
4097.26
3977.32
3645.27
19828.8
)
;

boundaryField
{
    inlet
    {
        type            fixedValue;
        value           uniform 10000;
    }
    outlet
    {
        type            fixedValue;
        value           uniform 1000;
    }
    obstacle
    {
        type            zeroGradient;
    }
    empty
    {
        type            empty;
    }
}


// ************************************************************************* //
