/*--------------------------------*- C++ -*----------------------------------*\
| =========                 |                                                 |
| \\      /  F ield         | OpenFOAM: The Open Source CFD Toolbox           |
|  \\    /   O peration     | Version:  v1912                                 |
|   \\  /    A nd           | Website:  www.openfoam.com                      |
|    \\/     M anipulation  |                                                 |
\*---------------------------------------------------------------------------*/
FoamFile
{
    version     2.0;
    format      ascii;
    class       volScalarField;
    location    "1.04";
    object      p;
}
// * * * * * * * * * * * * * * * * * * * * * * * * * * * * * * * * * * * * * //

dimensions      [1 -1 -2 0 0 0 0];


internalField   nonuniform List<scalar> 
4800
(
825.264
51.4609
7.97766
6.78023
5.4615
5.29478
5.35363
5.63394
6.00989
6.47711
7.04026
7.72969
8.5624
9.49275
10.3466
11.0503
11.399
11.4726
11.5156
11.4646
11.4856
10.6902
8.3037
6.85705
6.83439
6.95418
7.16861
7.34904
7.45024
7.47805
7.46702
7.45997
7.4939
7.58525
7.72602
7.94984
8.30671
8.77594
9.31829
9.83274
825.988
51.3152
8.01013
6.80311
5.46886
5.26252
5.33811
5.61814
5.99404
6.47126
7.04679
7.73057
8.52619
9.38066
10.1745
10.8664
11.3053
11.4751
11.5686
11.5502
11.5522
10.687
8.23656
6.79493
6.76901
6.8916
7.09715
7.26316
7.35161
7.39178
7.42006
7.4564
7.52841
7.64672
7.84074
8.13025
8.51397
8.96397
9.43427
9.94012
827.38
51.0215
8.05966
6.85054
5.4824
5.2286
5.32444
5.60931
5.99585
6.48523
7.06674
7.73219
8.45848
9.19752
9.92261
10.6043
11.1843
11.5004
11.6641
11.6753
11.6338
10.6865
8.14178
6.70674
6.66112
6.78598
6.98045
7.13664
7.23198
7.30123
7.37885
7.47737
7.60296
7.79095
8.0543
8.37501
8.72839
9.08994
9.46209
9.89108
828.544
50.8284
8.13472
6.92003
5.49335
5.18177
5.29887
5.59771
5.99846
6.49788
7.08482
7.72547
8.37487
8.99295
9.63888
10.3062
10.9795
11.4793
11.7498
11.8198
11.7431
10.7284
8.08131
6.6195
6.52195
6.62806
6.8062
6.96684
7.09742
7.22242
7.35328
7.51607
7.7359
8.01355
8.31063
8.59849
8.87736
9.15208
9.43258
9.78838
829.858
50.7742
8.23161
7.00684
5.50336
5.13572
5.26284
5.57952
6.00037
6.5146
7.10176
7.71556
8.30635
8.85275
9.41366
10.0394
10.7407
11.3918
11.7853
11.9426
11.8553
10.7701
8.03672
6.53195
6.37122
6.46286
6.63881
6.82107
6.99884
7.17729
7.38186
7.63942
7.94114
8.23821
8.5066
8.74972
8.96936
9.17405
9.37986
9.65658
830.373
50.8477
8.33275
7.10037
5.51783
5.10162
5.22018
5.55402
5.99961
6.53374
7.11915
7.70318
8.24356
8.74454
9.26687
9.84135
10.506
11.2188
11.7319
12.0173
11.9748
10.8506
8.04154
6.46452
6.24248
6.3328
6.52411
6.73818
6.9552
7.2082
7.50462
7.83437
8.13346
8.38598
8.60264
8.81077
9.00732
9.16969
9.3286
9.52674
830.159
50.9674
8.40589
7.18449
5.54099
5.08604
5.1808
5.52542
5.99515
6.55148
7.13665
7.69299
8.19658
8.68463
9.18702
9.72913
10.3177
10.9987
11.5619
11.9619
12.0529
10.9551
8.09025
6.42104
6.16534
6.26184
6.47675
6.71929
6.99633
7.32982
7.69263
8.00448
8.23796
8.42901
8.61999
8.81234
8.99951
9.15494
9.2864
9.43187
829.511
51.1057
8.45134
7.26823
5.57653
5.09388
5.15893
5.50264
5.98888
6.56363
7.1509
7.68634
8.16575
8.65175
9.15641
9.68122
10.2193
10.7729
11.3042
11.7664
12.0096
11.054
8.18737
6.40539
6.14933
6.25744
6.49188
6.78569
7.13349
7.51506
7.84701
8.07669
8.25276
8.40716
8.57394
8.76951
8.96909
9.13354
9.24133
9.33297
828.831
51.2785
8.49793
7.35663
5.63201
5.12308
5.14963
5.48974
5.98502
6.57239
7.16119
7.68604
8.158
8.64471
9.15311
9.67019
10.163
10.6212
11.0646
11.4389
11.7702
11.0626
8.30403
6.43577
6.20751
6.33157
6.61459
6.96413
7.32999
7.65568
7.89466
8.07877
8.21159
8.34175
8.51158
8.71379
8.92388
9.09788
9.19653
9.25414
828.192
51.4787
8.57531
7.45474
5.69499
5.16184
5.15775
5.49615
5.99163
6.57506
7.1553
7.6806
8.16402
8.65634
9.16648
9.67478
10.1452
10.5427
10.8834
11.122
11.3498
10.9051
8.39365
6.49517
6.36521
6.51699
6.84231
7.18058
7.46348
7.69839
7.88546
8.01815
8.14716
8.29445
8.46913
8.66277
8.86522
9.04481
9.15805
9.21793
827.872
51.6516
8.67306
7.54462
5.7562
5.21014
5.20005
5.53013
6.00844
6.56897
7.13768
7.67006
8.17505
8.67468
9.18682
9.68859
10.1397
10.5032
10.7545
10.9089
10.9134
10.5949
8.40393
6.60807
6.541
6.77423
7.06432
7.31071
7.51536
7.675
7.8219
7.97164
8.12171
8.27302
8.4313
8.60143
8.79327
8.98636
9.13964
9.22977
827.51
51.7202
8.78484
7.61957
5.81857
5.26589
5.27387
5.58931
6.03249
6.55456
7.10625
7.65021
8.18152
8.69401
9.20842
9.7006
10.1245
10.46
10.6726
10.7889
10.6402
10.2723
8.3391
6.71731
6.67666
7.01761
7.24229
7.39061
7.51585
7.6524
7.80464
7.96827
8.12295
8.25961
8.38924
8.53821
8.72485
8.93985
9.14202
9.28013
828.379
51.6831
8.8794
7.69065
5.88653
5.3217
5.36303
5.65778
6.05547
6.53162
7.0623
7.61739
8.17773
8.71035
9.22468
9.69599
10.0867
10.3993
10.6157
10.7308
10.5419
10.088
8.25438
6.74359
6.70475
7.09346
7.31401
7.44917
7.54639
7.67736
7.83898
8.00289
8.14528
8.25815
8.36277
8.49405
8.6705
8.90581
9.16249
9.36046
828.704
51.5024
8.93563
7.74664
5.96225
5.37267
5.45203
5.7208
6.07596
6.51013
7.01761
7.57747
8.1624
8.7169
9.22855
9.66987
10.0273
10.3291
10.5788
10.7322
10.582
10.1131
8.2453
6.65672
6.63857
7.04157
7.29478
7.44574
7.58439
7.74288
7.9145
8.07261
8.19285
8.27945
8.36179
8.47465
8.63633
8.88255
9.18885
9.45185
828.927
51.2334
8.95368
7.79458
6.02983
5.40179
5.53604
5.77445
6.09901
6.50182
6.98639
7.54066
8.13574
8.70414
9.21108
9.62706
9.96135
10.2676
10.5684
10.7869
10.7487
10.3121
8.31568
6.51189
6.4805
6.87431
7.20884
7.41252
7.60802
7.81573
8.0069
8.15979
8.25869
8.32298
8.38637
8.48061
8.62581
8.87382
9.20947
9.53199
828.829
50.9321
8.9395
7.82225
6.06807
5.41814
5.60196
5.81813
6.12853
6.51355
6.97851
7.52106
8.10779
8.67357
9.17227
9.57861
9.91053
10.241
10.6083
10.9129
10.9889
10.5155
8.41561
6.40293
6.28837
6.65806
7.08368
7.37828
7.60819
7.83915
8.06946
8.23921
8.33332
8.38178
8.42825
8.50767
8.63929
8.87634
9.21557
9.57038
828.632
50.6566
8.87953
7.81414
6.07868
5.42932
5.61834
5.85946
6.16798
6.54571
6.99445
7.51876
8.08438
8.63215
9.12135
9.53739
9.89977
10.2733
10.7137
11.0957
11.1832
10.6366
8.50608
6.34784
6.16978
6.49386
6.9377
7.30538
7.57601
7.82974
8.06895
8.27628
8.39434
8.44223
8.48037
8.5538
8.67579
8.8884
9.20033
9.54618
827.985
50.4437
8.77751
7.76246
6.05513
5.41719
5.61073
5.89504
6.21431
6.59179
7.02873
7.53367
8.0677
8.58863
9.07651
9.52181
9.93317
10.376
10.8653
11.2486
11.2759
10.6722
8.56208
6.34224
6.129
6.42558
6.83127
7.19965
7.4861
7.75153
8.01378
8.25298
8.42687
8.49794
8.54094
8.61489
8.72488
8.89838
9.15043
9.44733
826.599
50.3366
8.63484
7.63617
5.97042
5.38117
5.5891
5.92361
6.25988
6.64392
7.07276
7.5581
8.06124
8.56514
9.06053
9.54594
10.0309
10.5399
11.0067
11.3229
11.274
10.6422
8.6067
6.37599
6.13133
6.42327
6.8089
7.1268
7.37376
7.61535
7.88755
8.16867
8.40476
8.54767
8.61066
8.68292
8.77433
8.89255
9.06557
9.29504
825.033
50.3384
8.47803
7.45675
5.83755
5.33009
5.55832
5.95672
6.29097
6.68216
7.10882
7.58004
8.07112
8.57592
9.10014
9.64816
10.2041
10.7068
11.0832
11.3186
11.2142
10.5978
8.64816
6.42127
6.14604
6.44115
6.83677
7.12496
7.2994
7.47598
7.71725
8.01678
8.32529
8.56821
8.68613
8.75458
8.8169
8.87875
8.96884
9.12367
823.987
50.4591
8.3505
7.28857
5.70477
5.27494
5.52499
5.98629
6.30468
6.68996
7.11789
7.59107
8.10358
8.64813
9.23025
9.83881
10.4
10.812
11.0904
11.2603
11.1276
10.5678
8.69669
6.47328
6.16159
6.4573
6.86409
7.14186
7.28251
7.39027
7.56972
7.84115
8.18722
8.52981
8.75827
8.82931
8.84846
8.85261
8.88203
8.97067
823.665
50.5312
8.27323
7.19253
5.62131
5.22576
5.49346
5.98353
6.29853
6.6719
7.09719
7.60521
8.1785
8.80097
9.45315
10.0622
10.5517
10.8374
11.0189
11.1645
11.0444
10.5644
8.75953
6.53872
6.17709
6.46505
6.87079
7.16248
7.29299
7.36164
7.47931
7.69631
8.02821
8.43592
8.77614
8.89695
8.89409
8.85065
8.83502
8.86966
823.779
50.4718
8.24162
7.20301
5.61331
5.18893
5.45242
5.92216
6.23909
6.61097
7.0555
7.61186
8.28857
9.02693
9.71903
10.2645
10.6367
10.7904
10.92
11.079
10.9939
10.6009
8.83495
6.60223
6.18818
6.45984
6.85696
7.18351
7.33246
7.37509
7.44603
7.59935
7.88687
8.30079
8.71496
8.95204
8.94742
8.87654
8.84436
8.86162
825
50.2684
8.24123
7.31734
5.70444
5.17362
5.39696
5.77217
6.11911
6.51366
7.00728
7.65374
8.44819
9.27593
9.95549
10.4139
10.6589
10.7278
10.8325
11.0026
10.9754
10.68
8.92885
6.6749
6.20204
6.43626
6.82264
7.18975
7.39805
7.43429
7.45437
7.56555
7.78469
8.14099
8.59184
8.9193
8.99774
8.95513
8.92722
8.95496
826.474
49.8885
8.26615
7.51259
5.86705
5.17606
5.33906
5.57657
5.93842
6.37963
6.94621
7.69137
8.58824
9.46087
10.1045
10.5025
10.6464
10.6823
10.7705
10.9451
10.9932
10.7898
9.03854
6.74834
6.24337
6.40328
6.77552
7.16839
7.4462
7.51924
7.51451
7.58351
7.74313
8.01812
8.40695
8.80182
9.02646
9.08377
9.1016
9.15001
827.765
49.6055
8.3423
7.76752
6.04727
5.1767
5.25896
5.40128
5.75453
6.23162
6.86638
7.68499
8.64254
9.53098
10.1813
10.5678
10.6639
10.6741
10.7394
10.9111
11.0392
10.9233
9.16553
6.82716
6.2933
6.3708
6.7229
7.12328
7.44852
7.6006
7.6108
7.63904
7.75765
7.94833
8.22931
8.61766
8.99606
9.21528
9.33359
9.44814
828.997
49.5257
8.45488
7.99844
6.18416
5.18998
5.12623
5.28022
5.63002
6.12091
6.79353
7.62929
8.57416
9.46241
10.1529
10.5891
10.7218
10.7131
10.7496
10.9128
11.1101
11.0784
9.29343
6.90161
6.34161
6.35336
6.67507
7.06076
7.41438
7.64775
7.70684
7.72093
7.78976
7.91666
8.12132
8.4512
8.91208
9.37096
9.64013
9.79054
829.353
49.617
8.59865
8.18953
6.25864
5.1888
5.00845
5.19857
5.57354
6.10511
6.77446
7.5536
8.40581
9.26953
10.0213
10.587
10.8237
10.783
10.7981
10.9491
11.2204
11.2418
9.39956
6.96841
6.38583
6.35484
6.63876
6.99784
7.35539
7.64951
7.77904
7.79791
7.82683
7.92684
8.093
8.39077
8.86431
9.4398
9.88271
10.0567
828.302
49.8091
8.74023
8.29242
6.27117
5.1834
4.93395
5.15684
5.57885
6.15246
6.80442
7.4832
8.20867
9.00877
9.81372
10.5124
10.8926
10.8617
10.8972
11.0368
11.3761
11.38
9.44562
7.00784
6.42548
6.37151
6.61871
6.93722
7.27406
7.58773
7.78776
7.84668
7.87881
7.98418
8.17348
8.48835
8.93593
9.44388
9.8774
10.1232
827.318
50.0531
8.84099
8.2956
6.233
5.18579
4.91632
5.16114
5.61831
6.22068
6.8665
7.47939
8.08595
8.76751
9.55666
10.3271
10.8428
10.9529
11.0479
11.1869
11.5602
11.4731
9.43848
7.01645
6.46855
6.40807
6.61651
6.87261
7.15918
7.4618
7.72884
7.88115
7.98088
8.12318
8.35965
8.66783
9.00897
9.35304
9.70192
9.99556
826.536
50.3127
8.88417
8.22576
6.17015
5.19069
4.93753
5.20045
5.67565
6.2891
6.92266
7.49134
8.02675
8.61416
9.30734
10.0491
10.6742
11.0131
11.2219
11.4321
11.7375
11.4821
9.39023
7.00574
6.51603
6.45444
6.62154
6.81415
7.02768
7.29765
7.62012
7.92115
8.13876
8.35006
8.59704
8.84154
9.05465
9.26594
9.508
9.78171
826.188
50.579
8.89052
8.11286
6.09799
5.20393
4.99535
5.26644
5.73419
6.34117
6.96894
7.5393
8.03329
8.54777
9.10969
9.74644
10.4263
11.0063
11.3867
11.7317
11.8844
11.4129
9.29605
6.97487
6.54945
6.5053
6.63291
6.76383
6.90895
7.14108
7.49956
7.93004
8.33958
8.62632
8.81041
8.94614
9.0638
9.18499
9.36614
9.62914
826.037
50.8083
8.86972
7.97826
6.02534
5.22739
5.0715
5.33483
5.77811
6.36632
7.01206
7.60045
8.07871
8.52783
8.97467
9.49529
10.1815
10.9321
11.5578
11.9876
12.0214
11.3003
9.14992
6.91536
6.551
6.54234
6.64575
6.73788
6.83852
7.03463
7.40828
7.95139
8.50382
8.87619
8.98633
9.01592
9.01851
9.09932
9.28403
9.5843
826.133
51.0192
8.82824
7.84348
5.95896
5.26033
5.1453
5.39451
5.80946
6.38078
7.03587
7.64499
8.13441
8.53191
8.90362
9.3547
10.0145
10.8553
11.6596
12.1429
12.1046
11.1927
8.97214
6.80974
6.50909
6.55214
6.67152
6.75646
6.8343
6.99736
7.37512
7.95996
8.56453
8.98181
9.07728
9.02203
8.96351
9.03782
9.25429
9.61624
826.417
51.2215
8.77626
7.71825
5.90425
5.2997
5.21729
5.45403
5.84234
6.38982
7.03587
7.65723
8.16757
8.55491
8.90431
9.33244
9.98683
10.8354
11.6448
12.1402
12.1125
11.0978
8.78431
6.67078
6.43068
6.53721
6.70487
6.82148
6.90829
7.06999
7.412
7.92501
8.50293
8.93278
9.04272
9.0006
8.9441
9.02129
9.27399
9.67865
826.837
51.4475
8.72487
7.60716
5.86608
5.34196
5.2895
5.51742
5.87892
6.38963
7.00576
7.6343
8.17989
8.6058
8.99112
9.43676
10.0443
10.8257
11.5197
11.9948
11.99
10.9952
8.59988
6.5406
6.34246
6.49315
6.72398
6.91373
7.0549
7.22585
7.49193
7.87576
8.31372
8.68556
8.88696
8.96801
8.97766
9.06301
9.33119
9.74331
827.471
51.7005
8.70025
7.53174
5.85083
5.38468
5.35705
5.58111
5.91579
6.37848
6.94591
7.56772
8.17136
8.69806
9.17361
9.66233
10.1963
10.7927
11.3311
11.7232
11.7738
10.9151
8.45686
6.45549
6.28624
6.46137
6.74991
7.01455
7.22337
7.41534
7.61535
7.84557
8.09178
8.35634
8.60823
8.81721
9.00266
9.17375
9.436
9.80999
828.563
51.9233
8.70737
7.49244
5.84844
5.42023
5.41282
5.63575
5.94605
6.35743
6.86813
7.47154
8.13259
8.79435
9.40986
9.94584
10.3951
10.7996
11.1204
11.3843
11.5274
10.8282
8.37262
6.43635
6.29668
6.46443
6.77497
7.08761
7.34932
7.55922
7.69704
7.78528
7.903
8.06256
8.29048
8.60019
8.97831
9.33547
9.59355
9.85802
828.887
52.0675
8.72347
7.46742
5.84375
5.43993
5.44774
5.67141
5.9631
6.33165
6.79186
7.37826
8.09977
8.90476
9.64422
10.1932
10.546
10.7546
10.9153
11.1026
11.2578
10.7409
8.35139
6.46475
6.36025
6.49
6.78726
7.12199
7.41948
7.62625
7.711
7.73837
7.76722
7.85094
8.04079
8.42106
8.9402
9.47096
9.76056
9.9221
829.724
52.1575
8.73403
7.45347
5.83864
5.45419
5.46791
5.69252
5.97531
6.31942
6.74838
7.30607
8.05679
8.95439
9.78118
10.3667
10.6937
10.7719
10.8242
10.9233
10.999
10.5701
8.30926
6.51202
6.41673
6.52745
6.82962
7.16964
7.45703
7.63814
7.71448
7.72098
7.70068
7.73889
7.90284
8.28475
8.85686
9.48419
9.88521
10.0261
10.3712
10.6403
10.9405
11.2359
11.2762
10.8013
9.22239
7.22661
6.82777
6.95341
7.1815
7.41646
7.56271
7.65024
7.74198
7.87809
8.05333
8.23073
8.34986
8.3802
8.37183
8.39981
8.59478
8.98502
9.5617
10.1109
10.4421
10.5254
10.5374
10.6126
10.8301
11.1716
11.2392
10.968
9.49617
8.01238
7.74464
7.71044
7.82321
8.00303
8.17258
8.30995
8.38774
8.41535
8.44558
8.54612
8.78492
9.16741
9.62746
9.92174
9.89604
9.55023
9.06202
8.78222
8.82949
9.02338
9.08757
8.94733
8.41827
7.48047
6.84405
6.95447
7.36068
7.76878
8.05837
8.14248
8.01815
7.8441
7.74447
7.75603
7.85621
8.01981
8.1835
8.29842
8.35879
8.38736
8.42005
8.45911
8.59187
8.90523
10.4182
10.7069
10.9426
11.1053
10.9107
10.3872
8.83324
7.13333
6.86994
6.99649
7.21533
7.43013
7.56553
7.65256
7.74786
7.877
8.03361
8.17402
8.26293
8.31101
8.36924
8.48478
8.73275
9.19794
9.73097
10.196
10.47
10.5514
10.5982
10.7345
10.9861
11.2503
11.1826
10.6106
9.03705
7.89335
7.74226
7.75404
7.88747
8.06044
8.21688
8.33258
8.4022
8.44403
8.49613
8.62499
8.82094
9.11295
9.41671
9.58214
9.5562
9.44588
9.31832
9.21042
9.10385
9.07563
8.9774
8.72286
8.21645
7.38138
7.00249
7.12597
7.40202
7.72201
7.96013
8.03553
8.03674
7.97349
7.9356
7.96461
8.07865
8.24122
8.38496
8.46875
8.52599
8.54336
8.56035
8.60498
8.78246
9.10291
10.3547
10.704
10.9833
11.1693
10.9681
10.4117
8.73423
7.09084
6.87682
6.99335
7.2045
7.41292
7.5486
7.63945
7.72556
7.81906
7.91134
8.0071
8.11413
8.25387
8.42635
8.64664
8.96879
9.38036
9.75439
10.0685
10.3275
10.4682
10.5652
10.8194
11.1603
11.2702
11.1514
10.3699
8.65534
7.81771
7.72612
7.78914
7.94232
8.09329
8.21075
8.29703
8.37868
8.46467
8.55578
8.66704
8.86383
9.0632
9.14136
9.18903
9.29598
9.44268
9.57052
9.55019
9.39767
9.16457
8.92069
8.64534
8.19109
7.47175
7.20348
7.23503
7.35665
7.53652
7.76081
7.9395
8.07232
8.18063
8.23605
8.32803
8.44585
8.57244
8.69129
8.76347
8.77184
8.76417
8.77653
8.82548
9.03313
9.36921
10.2085
10.6291
10.9749
11.1678
10.9651
10.3908
8.73102
7.11136
6.89058
6.98635
7.18451
7.38492
7.52122
7.60705
7.66068
7.69744
7.74363
7.82103
7.96384
8.18824
8.51802
8.88654
9.21898
9.46285
9.65879
9.90225
10.2072
10.4768
10.6619
11.0006
11.3377
11.2909
11.0592
9.989
8.29248
7.77304
7.74176
7.84823
8.00346
8.11534
8.16912
8.23043
8.32525
8.43421
8.56034
8.69645
8.79359
8.81314
8.81216
8.93256
9.17753
9.47473
9.72146
9.72199
9.59584
9.32599
8.97073
8.67188
8.23935
7.6405
7.372
7.34317
7.33537
7.39753
7.5716
7.88876
8.2223
8.5331
8.7105
8.80789
8.86835
8.92109
8.99262
9.06908
9.1254
9.13572
9.16217
9.2704
9.54699
9.88306
10.0225
10.4738
10.8884
11.1082
10.9879
10.4619
8.86938
7.18145
6.9175
6.99044
7.16882
7.35701
7.48301
7.54478
7.56101
7.5637
7.5877
7.66765
7.85101
8.20132
8.69209
9.13578
9.3418
9.40791
9.50334
9.70482
10.0321
10.42
10.7857
11.1809
11.4366
11.3164
10.9106
9.5555
8.0105
7.72588
7.76138
7.89494
8.01932
8.06719
8.08081
8.11859
8.22012
8.37725
8.53414
8.61967
8.60259
8.56981
8.57162
8.75251
9.06955
9.39995
9.69559
9.75803
9.67958
9.51577
9.19358
8.84482
8.33153
7.72964
7.49407
7.35137
7.32979
7.3858
7.51332
7.8281
8.32553
8.76651
9.05453
9.10871
9.10241
9.10133
9.115
9.17625
9.30168
9.50137
9.78012
10.121
10.5648
10.9532
9.82593
10.251
10.7143
11.0416
11.0644
10.6202
9.12909
7.31416
6.95799
6.9986
7.15526
7.32779
7.43286
7.46685
7.46395
7.46044
7.48353
7.5872
7.86217
8.32028
8.83562
9.21009
9.31598
9.33364
9.36896
9.52201
9.85859
10.3378
10.8357
11.3176
11.5129
11.288
10.6618
9.0582
7.78907
7.65538
7.74709
7.88252
7.96196
7.95883
7.93746
7.97186
8.09229
8.26297
8.4156
8.46815
8.42394
8.34887
8.41726
8.66335
9.00114
9.31637
9.63843
9.78919
9.82996
9.87309
9.83547
9.2385
8.39531
7.73574
7.55102
7.41346
7.3925
7.4681
7.60411
7.85016
8.24003
8.711
9.0829
9.24793
9.21257
9.15963
9.14054
9.19063
9.35427
9.67062
10.0514
10.4444
10.9499
11.3487
9.64423
10.0066
10.5193
11.0008
11.2211
10.8562
9.46738
7.48843
7.00283
7.00236
7.13396
7.28235
7.36316
7.38604
7.38892
7.41017
7.47653
7.65535
8.00186
8.45426
8.85775
9.10727
9.20609
9.24382
9.27602
9.39267
9.69218
10.2134
10.8139
11.3583
11.5564
11.1874
10.3081
8.54209
7.61987
7.57202
7.68645
7.79771
7.82797
7.79748
7.77477
7.82026
7.94395
8.13025
8.28219
8.30274
8.2534
8.24361
8.36278
8.63245
8.9809
9.31454
9.6492
9.95852
10.4126
10.7083
10.8434
9.94502
8.44557
7.71974
7.56464
7.47709
7.51532
7.60621
7.72089
7.8579
8.0734
8.41677
8.8396
9.11553
9.17584
9.10977
9.08428
9.16862
9.40093
9.7489
10.07
10.4304
10.9353
11.287
9.47247
9.7804
10.3339
10.9532
11.3365
11.1068
9.80793
7.70124
7.0505
6.99798
7.10007
7.22407
7.29521
7.32812
7.36554
7.43729
7.58368
7.84356
8.19252
8.52267
8.75493
8.93148
9.04685
9.12924
9.20348
9.30649
9.55865
10.0508
10.6982
11.2905
11.4918
11.0113
9.83968
8.07713
7.48112
7.465
7.55626
7.63987
7.65258
7.62877
7.63048
7.70236
7.85407
8.04074
8.13213
8.17116
8.19666
8.25519
8.40504
8.6541
8.97582
9.36292
9.85388
10.5112
11.1674
11.4558
11.4595
10.4643
8.60755
7.73484
7.57517
7.55123
7.65022
7.75481
7.83648
7.90212
7.99182
8.1673
8.43028
8.76548
8.98263
9.03016
9.08515
9.20682
9.46738
9.78621
10.0675
10.3568
10.8014
11.0926
9.33521
9.5998
10.1602
10.8661
11.3536
11.3029
10.089
7.9351
7.09123
6.9792
7.05754
7.16608
7.24332
7.31468
7.40786
7.55076
7.79441
8.09983
8.35518
8.5263
8.62747
8.74429
8.88528
9.01854
9.13663
9.24914
9.45191
9.86008
10.4913
11.081
11.3098
10.7598
9.31641
7.73397
7.3663
7.34266
7.41038
7.47202
7.48751
7.49693
7.54132
7.65069
7.81064
7.94006
8.034
8.13221
8.23947
8.35409
8.53075
8.82739
9.21575
9.72561
10.3206
10.9153
11.5234
11.7353
11.5495
10.5517
8.7175
7.81286
7.66364
7.65836
7.76196
7.87374
7.91618
7.89823
7.87338
7.898
8.0339
8.32391
8.68278
8.99142
9.19011
9.35095
9.55711
9.77139
9.93002
10.1267
10.5033
10.7142
9.28343
9.5038
10.0208
10.7353
11.279
11.422
10.2967
8.16396
7.12655
6.95543
7.0168
7.12469
7.23337
7.356
7.51182
7.76163
8.07196
8.31306
8.42924
8.45019
8.49946
8.59884
8.75608
8.92917
9.07214
9.20281
9.36958
9.69027
10.2221
10.7141
10.9912
10.3859
8.8171
7.52246
7.26705
7.21503
7.2618
7.32226
7.37237
7.43354
7.53066
7.66053
7.78393
7.88759
8.0207
8.17545
8.34558
8.59792
8.92944
9.25609
9.59715
10.0221
10.5279
11.0502
11.6696
11.8413
11.4404
10.4562
8.7068
7.90871
7.826
7.82056
7.86474
7.95181
7.96096
7.8986
7.8049
7.74966
7.79696
7.99306
8.407
8.87955
9.2781
9.55396
9.66361
9.72475
9.7783
9.93168
10.2927
10.456
9.30259
9.48072
9.90396
10.5669
11.1141
11.4109
10.4294
8.36953
7.15608
6.93756
6.98823
7.1185
7.26665
7.44224
7.71364
8.04349
8.29394
8.40727
8.39761
8.38784
8.42106
8.51861
8.67046
8.85327
9.02015
9.16096
9.31203
9.55113
9.91041
10.2101
10.5014
9.93914
8.43646
7.41661
7.18273
7.11665
7.16526
7.24205
7.33655
7.45008
7.58444
7.70535
7.7991
7.91787
8.07331
8.32014
8.70265
9.11273
9.39354
9.55846
9.7445
10.076
10.5458
11.0637
11.5948
11.6948
11.2131
10.2923
8.64862
7.95732
7.93632
7.97281
7.96523
7.97413
7.98178
7.91304
7.79917
7.71633
7.71095
7.86209
8.19512
8.79367
9.34713
9.66259
9.72565
9.67128
9.68313
9.84707
10.2054
10.3219
9.37326
9.51158
9.81964
10.3995
10.8782
11.2532
10.5058
8.55041
7.18686
6.9435
6.98859
7.14614
7.35798
7.63473
7.98985
8.26285
8.40183
8.39542
8.35702
8.34298
8.38031
8.47981
8.62885
8.81528
8.99692
9.14414
9.2796
9.44231
9.5965
9.67487
9.87989
9.43187
8.181
7.37976
7.15836
7.08263
7.14172
7.24954
7.38355
7.53271
7.67395
7.77613
7.86922
8.01707
8.31428
8.768
9.21755
9.49829
9.61299
9.67295
9.77326
10.0223
10.4114
10.8549
11.3276
11.3986
10.8612
9.95473
8.49357
7.93435
7.98669
8.08338
8.08182
8.02288
7.99092
7.96411
7.87056
7.78743
7.77486
7.88908
8.19443
8.69616
9.25557
9.59139
9.65664
9.62105
9.6683
9.84395
10.1857
10.2689
9.47532
9.57803
9.77049
10.2018
10.6031
10.9821
10.5134
8.72164
7.23607
6.98564
7.03232
7.25146
7.55372
7.91228
8.19585
8.37276
8.40762
8.37117
8.33234
8.32621
8.36824
8.46826
8.61476
8.79044
8.97245
9.11964
9.25077
9.30522
9.31067
9.23333
9.26438
8.91503
7.98327
7.36975
7.22353
7.13044
7.20466
7.34206
7.50448
7.66001
7.78046
7.87972
8.0442
8.35203
8.80312
9.20977
9.48081
9.64282
9.7125
9.69674
9.69881
9.82254
10.093
10.5277
11.0305
11.1479
10.6149
9.67888
8.28335
7.85787
7.96835
8.1383
8.19073
8.10391
8.00333
7.965
7.96763
7.93812
7.94162
8.05618
8.3181
8.65689
9.01391
9.32647
9.48983
9.59617
9.68855
9.88703
10.2381
10.3109
9.58632
9.6637
9.75181
9.99339
10.3374
10.6565
10.446
8.87862
7.33763
7.08135
7.16659
7.47131
7.83281
8.11747
8.29954
8.38558
8.38868
8.36274
8.34302
8.35
8.39075
8.48174
8.61933
8.7932
8.96867
9.10152
9.19827
9.14903
9.0699
8.92702
8.7938
8.50018
7.81528
7.34229
7.29793
7.28108
7.37968
7.53262
7.68893
7.81809
7.93085
8.10619
8.41579
8.82446
9.16135
9.38342
9.56014
9.65322
9.66028
9.62032
9.57523
9.63
9.86459
10.329
10.8515
10.9915
10.5098
9.50725
8.1259
7.75953
7.89984
8.1276
8.25631
8.18639
8.04728
7.96372
7.98646
8.07281
8.1945
8.33315
8.49393
8.67351
8.80674
8.98429
9.21659
9.4529
9.68686
9.95786
10.333
10.4023
9.68333
9.72993
9.75127
9.84772
10.1079
10.2985
10.2873
8.9936
7.49653
7.28051
7.41508
7.74018
8.04035
8.23001
8.31465
8.35298
8.376
8.38666
8.39497
8.41204
8.44994
8.52491
8.64814
8.82112
8.98516
9.09525
9.10758
9.00624
8.90026
8.74425
8.55922
8.22503
7.60638
7.33202
7.34774
7.48278
7.64099
7.78669
7.89993
8.00551
8.16622
8.4436
8.80367
9.09256
9.27494
9.40933
9.48752
9.53752
9.54
9.52151
9.49449
9.53149
9.73983
10.1968
10.7197
10.8846
10.4693
9.37874
8.02668
7.70152
7.8106
8.04726
8.25187
8.25545
8.12488
8.01904
8.03471
8.19811
8.45923
8.62397
8.63814
8.60253
8.61143
8.71142
8.93563
9.25945
9.59683
9.94463
10.3534
10.419
9.74395
9.76895
9.74668
9.75682
9.94066
9.99495
10.0758
9.06769
7.76253
7.53418
7.70265
7.94886
8.15107
8.23665
8.2741
8.32258
8.3833
8.43771
8.47611
8.50116
8.53406
8.60115
8.71648
8.87238
8.99047
9.05041
9.01298
8.90783
8.82384
8.71297
8.54847
8.15006
7.43745
7.23837
7.39563
7.65663
7.88868
8.02819
8.11757
8.23728
8.45158
8.74867
9.01951
9.18257
9.24945
9.28018
9.33187
9.39529
9.45349
9.48654
9.49431
9.51963
9.68551
10.0933
10.594
10.8068
10.4561
9.27772
7.97829
7.67711
7.71682
7.92406
8.1823
8.29
8.23862
8.16474
8.19895
8.4075
8.66435
8.80147
8.73044
8.58883
8.5275
8.57955
8.77259
9.06357
9.4607
9.91608
10.3784
10.4483
9.75185
9.77089
9.72514
9.69328
9.81534
9.82781
9.8829
9.12409
8.03303
7.77016
7.92971
8.05799
8.14607
8.17891
8.22554
8.30661
8.40841
8.50119
8.55929
8.59587
8.63899
8.71041
8.81162
8.94435
9.02444
9.03056
8.97014
8.89433
8.86809
8.83195
8.66709
8.22392
7.40606
7.11192
7.34307
7.69505
8.00872
8.21997
8.36465
8.52941
8.73242
8.93237
9.07964
9.10743
9.1064
9.12405
9.2
9.31624
9.42671
9.50849
9.54145
9.55693
9.67986
10.0113
10.4441
10.71
10.429
9.20415
7.97402
7.66914
7.63402
7.80579
8.07413
8.298
8.3716
8.39988
8.46931
8.59142
8.74254
8.80684
8.74418
8.6192
8.548
8.58284
8.7458
9.03009
9.39764
9.84939
10.2819
10.3248
9.67877
9.7265
9.68372
9.6632
9.7738
9.79092
9.83738
9.19347
8.18087
7.88138
8.05655
8.08992
8.11302
8.12669
8.1865
8.30169
8.44353
8.5579
8.64099
8.70082
8.7612
8.81856
8.92721
9.05452
9.08673
9.07062
9.03877
9.02269
9.06667
9.02913
8.82048
8.3346
7.44729
7.04247
7.18289
7.56926
7.97359
8.3179
8.61836
8.83541
8.96932
9.02968
8.98606
8.95189
8.9463
9.00633
9.13056
9.29408
9.44005
9.55822
9.61264
9.61512
9.70532
9.97344
10.3211
10.5868
10.367
9.15646
7.99647
7.66934
7.58154
7.72272
7.97676
8.2667
8.51781
8.67603
8.7301
8.71592
8.70103
8.69156
8.68069
8.67729
8.66239
8.715
8.8804
9.14026
9.44163
9.80539
10.1351
10.1203
9.52187
9.63826
9.64891
9.69941
9.85137
9.8874
9.9355
9.22463
8.16043
7.8941
8.06732
8.08711
8.08374
8.09833
8.1766
8.31429
8.48333
8.63089
8.74094
8.81969
8.88173
8.9784
9.10352
9.21003
9.22973
9.21964
9.23098
9.24647
9.28536
9.20662
8.96707
8.45457
7.52624
7.02078
7.0506
7.34034
7.82029
8.33384
8.78568
9.07141
9.13565
9.03596
8.90845
8.82947
8.83127
8.91226
9.06839
9.26586
9.4596
9.60878
9.67204
9.67545
9.76208
9.97098
10.2198
10.4276
10.2374
9.09615
8.02341
7.68815
7.56933
7.67721
7.91551
8.25231
8.63152
8.88048
8.93284
8.84014
8.66243
8.55836
8.56211
8.66762
8.82006
8.96472
9.13115
9.3368
9.58385
9.8698
10.0926
10.0276
9.332
9.51478
9.66088
9.82589
10.0278
10.0853
10.0363
9.18704
8.04367
7.79154
7.93747
8.02589
8.07936
8.12437
8.20862
8.35096
8.52327
8.68367
8.81676
8.93084
9.04313
9.15733
9.26191
9.31835
9.33391
9.36256
9.39569
9.43297
9.43555
9.35091
9.09342
8.52464
7.5581
7.01385
7.01365
7.20262
7.63624
8.29274
8.81499
9.10589
9.18085
9.0451
8.87514
8.78455
8.78184
8.86284
9.02757
9.25775
9.47455
9.62604
9.69169
9.7121
9.82757
10.0026
10.1484
10.247
10.0318
8.98327
8.0224
7.73213
7.60954
7.69548
7.92365
8.26976
8.6739
8.95968
9.0199
8.87106
8.6243
8.48276
8.47992
8.65018
8.90175
9.16826
9.38217
9.55822
9.71694
9.94597
10.0957
9.99974
9.15189
9.40165
9.71055
10.0052
10.2539
10.3232
10.084
9.09411
7.83977
7.62526
7.80271
8.02691
8.15059
8.21379
8.28961
8.4027
8.55741
8.73465
8.90659
9.07082
9.20343
9.2868
9.3231
9.3277
9.33665
9.3957
9.45495
9.53879
9.54235
9.42985
9.15702
8.55739
7.57443
7.02928
7.02611
7.21936
7.62166
8.14415
8.65546
8.95453
9.06715
9.03518
8.91167
8.8161
8.81844
8.89309
9.04691
9.25654
9.4559
9.58173
9.65666
9.72787
9.88269
10.0495
10.1262
10.0772
9.76348
8.79178
7.9987
7.80379
7.69965
7.7736
7.99523
8.3142
8.63065
8.89578
8.98607
8.86147
8.64332
8.53456
8.53431
8.69411
8.99716
9.29532
9.52024
9.67706
9.83403
10.0426
10.1749
10.0632
9.02855
9.3318
9.77152
10.1861
10.4799
10.5328
10.0848
8.98974
7.65493
7.48155
7.69414
8.02675
8.24758
8.34478
8.41284
8.49753
8.61942
8.78767
8.98717
9.17902
9.29977
9.3245
9.30409
9.28958
9.31238
9.38404
9.46706
9.57289
9.57784
9.46008
9.19577
8.58328
7.58972
7.09222
7.12335
7.36478
7.70926
8.03
8.33353
8.61686
8.83652
8.99446
9.01438
8.95077
8.92609
8.983
9.09548
9.23921
9.37647
9.49559
9.60779
9.7383
9.93918
10.1098
10.1132
9.91194
9.47616
8.5729
7.98751
7.87899
7.84249
7.91139
8.10505
8.35679
8.5849
8.72383
8.80083
8.79809
8.7394
8.70684
8.76924
8.88855
9.08364
9.29453
9.4903
9.65639
9.84555
10.0901
10.197
10.0725
9.01628
9.34475
9.85063
10.3442
10.6659
10.7152
10.1111
8.95698
7.57391
7.38967
7.64457
8.06742
8.40842
8.53571
8.57192
8.59891
8.66115
8.79951
8.99829
9.19573
9.30748
9.30265
9.26845
9.26743
9.2757
9.32392
9.40531
9.52782
9.56796
9.48362
9.24132
8.64346
7.65161
7.2278
7.31842
7.56691
7.8351
7.99331
8.07943
8.21544
8.48136
8.79855
9.04211
9.14926
9.12777
9.1265
9.16969
9.23204
9.313
9.4217
9.57772
9.77073
10.0109
10.1443
10.0736
9.74263
9.21855
8.37383
7.95594
7.9265
8.03734
8.10962
8.24152
8.37695
8.4303
8.48203
8.6014
8.75528
8.88014
8.98723
9.05717
9.10421
9.17408
9.26792
9.37186
9.53871
9.75318
9.93317
10.0281
9.88366
9.11323
9.46159
9.9664
10.4511
10.7899
10.849
10.1793
8.93898
7.57146
7.37164
7.66273
8.1263
8.52942
8.69033
8.68333
8.65086
8.65694
8.75478
8.92862
9.12929
9.27074
9.28215
9.25664
9.22329
9.2173
9.25358
9.3319
9.45664
9.54772
9.52774
9.33214
8.79311
7.81505
7.4502
7.53247
7.73213
7.86872
7.92254
7.93306
7.97062
8.10686
8.46053
8.89764
9.20013
9.38402
9.36526
9.30168
9.27204
9.29043
9.38665
9.57191
9.82149
10.0796
10.127
9.98006
9.57946
9.01854
8.25796
7.90889
7.98016
8.19282
8.32042
8.35262
8.34447
8.31043
8.32204
8.45372
8.71738
9.05109
9.29101
9.3968
9.34985
9.27263
9.24331
9.27513
9.38815
9.60789
9.70999
9.64889
9.37618
9.32546
9.63368
10.0649
10.4977
10.8075
10.8966
10.2855
8.99331
7.67666
7.49511
7.73503
8.16058
8.55284
8.7379
8.71751
8.64709
8.61339
8.67052
8.81985
9.02556
9.21207
9.27321
9.23582
9.19562
9.18067
9.2134
9.28573
9.41172
9.56239
9.61137
9.49955
9.04894
8.11955
7.67842
7.68011
7.75963
7.83332
7.88445
7.89579
7.88899
7.93651
8.10137
8.55721
9.10199
9.44153
9.59993
9.49508
9.36182
9.32468
9.4144
9.60987
9.86136
10.0839
10.0684
9.84748
9.43896
8.8961
8.23686
7.88041
8.02671
8.27802
8.46656
8.41431
8.31176
8.23945
8.2463
8.41038
8.75582
9.18823
9.49592
9.60489
9.56904
9.46576
9.34099
9.30663
9.29085
9.33562
9.2597
9.08117
8.82211
9.61955
9.83656
10.1329
10.5102
10.7988
10.9289
10.427
9.08527
7.80987
7.60312
7.77241
8.11035
8.45296
8.65173
8.66483
8.59691
8.55343
8.59112
8.72914
8.93503
9.14187
9.22841
9.22358
9.20043
9.18224
9.19981
9.25668
9.39173
9.59253
9.71819
9.77739
9.42578
8.44082
7.82831
7.7417
7.69822
7.76542
7.85868
7.91173
7.90728
7.89756
7.9816
8.21844
8.7642
9.33508
9.61714
9.64038
9.50792
9.42175
9.49972
9.68259
9.89334
10.0326
9.97252
9.71128
9.33156
8.85225
8.29651
7.93737
8.05398
8.28511
8.4885
8.41423
8.29598
8.22876
8.2868
8.49717
8.86785
9.28229
9.57326
9.73505
9.74689
9.69269
9.52173
9.34137
9.2366
9.0555
8.93167
8.8654
8.70498
9.90571
10.0159
10.2028
10.5328
10.8312
11.0232
10.5381
9.11494
7.88487
7.65407
7.73489
7.9784
8.24855
8.46065
8.5627
8.55107