/*--------------------------------*- C++ -*----------------------------------*\
| =========                 |                                                 |
| \\      /  F ield         | OpenFOAM: The Open Source CFD Toolbox           |
|  \\    /   O peration     | Version:  v1912                                 |
|   \\  /    A nd           | Website:  www.openfoam.com                      |
|    \\/     M anipulation  |                                                 |
\*---------------------------------------------------------------------------*/
FoamFile
{
    version     2.0;
    format      ascii;
    class       volVectorField;
    location    "1.04";
    object      U;
}
// * * * * * * * * * * * * * * * * * * * * * * * * * * * * * * * * * * * * * //

dimensions      [0 1 -1 0 0 0 0];


internalField   nonuniform List<vector> 
4800
(
(-6.3206 0.00210001 0)
(-1.78605 -0.00196079 0)
(0.073052 -0.0138357 0)
(-0.566594 -0.0131904 0)
(-1.03544 -0.00919113 0)
(-1.15083 -0.00445619 0)
(-1.07172 0.00412193 0)
(-0.922173 0.00255201 0)
(-0.73832 -0.00174611 0)
(-0.536619 -0.00688242 0)
(-0.336162 -0.0120562 0)
(-0.155705 -0.0187154 0)
(-0.00610104 -0.0250069 0)
(0.117987 -0.0328469 0)
(0.236352 -0.0280698 0)
(0.388097 -0.0318709 0)
(0.516449 -0.0190386 0)
(0.635518 -0.00756989 0)
(0.710244 -0.00312421 0)
(0.738083 -0.00798638 0)
(0.681778 -0.00866821 0)
(0.407522 -0.0109703 0)
(-0.349638 -0.0147047 0)
(-0.878444 -0.018045 0)
(-0.90519 -0.0170219 0)
(-0.821362 -0.0168735 0)
(-0.690447 -0.0148596 0)
(-0.561298 -0.00972449 0)
(-0.444135 -0.00137462 0)
(-0.320098 0.0091521 0)
(-0.192898 0.0157318 0)
(-0.0680706 0.0175093 0)
(0.0490721 0.0141311 0)
(0.154737 0.00985058 0)
(0.246582 0.00590342 0)
(0.311775 -0.00197303 0)
(0.336988 -0.0151262 0)
(0.330477 -0.0275886 0)
(0.302864 -0.0310445 0)
(0.241045 -0.0152124 0)
(-6.32592 0.0028984 0)
(-1.78836 -0.00492217 0)
(0.0868087 -0.051082 0)
(-0.54437 -0.0478991 0)
(-1.01434 -0.0207523 0)
(-1.14402 0.0070358 0)
(-1.07105 0.0195348 0)
(-0.924276 0.0131129 0)
(-0.744229 0.0057454 0)
(-0.548701 -0.00466631 0)
(-0.354942 -0.0253516 0)
(-0.174529 -0.0518091 0)
(-0.0143887 -0.0706433 0)
(0.12661 -0.0777302 0)
(0.260085 -0.051173 0)
(0.408695 -0.0316464 0)
(0.526807 -0.00777328 0)
(0.629992 -0.00478593 0)
(0.699821 -0.014603 0)
(0.727856 -0.0366456 0)
(0.679432 -0.0382863 0)
(0.41684 -0.032372 0)
(-0.346124 -0.0276509 0)
(-0.868949 -0.02914 0)
(-0.890945 -0.0174456 0)
(-0.808621 -0.00895614 0)
(-0.679897 0.00107417 0)
(-0.552864 0.0154048 0)
(-0.435297 0.0332538 0)
(-0.31588 0.0526551 0)
(-0.196088 0.0607661 0)
(-0.0779004 0.054027 0)
(0.03426 0.0321401 0)
(0.135593 0.00526522 0)
(0.221604 -0.0241247 0)
(0.280343 -0.0615461 0)
(0.310978 -0.103881 0)
(0.320171 -0.130053 0)
(0.318811 -0.121024 0)
(0.294272 -0.0837109 0)
(-6.33607 0.00147926 0)
(-1.79244 -0.011238 0)
(0.12157 -0.0654259 0)
(-0.498814 -0.0612342 0)
(-0.980628 -0.0247527 0)
(-1.13137 0.00449131 0)
(-1.06743 0.0233418 0)
(-0.930031 0.0141209 0)
(-0.757073 0.0034192 0)
(-0.567802 -0.0155325 0)
(-0.378999 -0.0442068 0)
(-0.19869 -0.0816731 0)
(-0.0249854 -0.107721 0)
(0.138457 -0.114703 0)
(0.289132 -0.0882537 0)
(0.427116 -0.0513225 0)
(0.546549 -0.0218221 0)
(0.625868 -0.00838473 0)
(0.690285 -0.0166962 0)
(0.71805 -0.0448469 0)
(0.679281 -0.0484422 0)
(0.425389 -0.0438413 0)
(-0.347984 -0.0404085 0)
(-0.865699 -0.0389773 0)
(-0.881924 -0.0290956 0)
(-0.795004 -0.0168375 0)
(-0.663109 0.00240505 0)
(-0.534558 0.0302392 0)
(-0.418144 0.0584327 0)
(-0.305735 0.0793918 0)
(-0.196391 0.0836488 0)
(-0.0896126 0.0698946 0)
(0.00942369 0.0346411 0)
(0.0962422 -0.0146949 0)
(0.165668 -0.0696716 0)
(0.220341 -0.123902 0)
(0.26466 -0.167467 0)
(0.30343 -0.189307 0)
(0.342763 -0.182153 0)
(0.367069 -0.139939 0)
(-6.34618 0.00399195 0)
(-1.79403 -0.0133012 0)
(0.164858 -0.0597389 0)
(-0.447175 -0.0526758 0)
(-0.944244 -0.0206907 0)
(-1.11647 0.00232837 0)
(-1.06256 0.0223818 0)
(-0.936336 0.0118683 0)
(-0.772568 -0.00198337 0)
(-0.59303 -0.0256703 0)
(-0.410077 -0.0602605 0)
(-0.226703 -0.102028 0)
(-0.036559 -0.132767 0)
(0.150815 -0.138596 0)
(0.321477 -0.121447 0)
(0.459606 -0.0788436 0)
(0.568009 -0.0399992 0)
(0.640644 -0.0069512 0)
(0.683738 -0.00687755 0)
(0.708783 -0.035441 0)
(0.681136 -0.0450499 0)
(0.436356 -0.0450578 0)
(-0.342646 -0.0376411 0)
(-0.85952 -0.0328402 0)
(-0.867586 -0.020796 0)
(-0.768102 -0.00500685 0)
(-0.636083 0.0219019 0)
(-0.513833 0.0561797 0)
(-0.40858 0.0838265 0)
(-0.308615 0.0991918 0)
(-0.210036 0.0933691 0)
(-0.114556 0.0673086 0)
(-0.033543 0.0135592 0)
(0.0337301 -0.0591035 0)
(0.0998742 -0.124717 0)
(0.166222 -0.17397 0)
(0.232137 -0.20676 0)
(0.297847 -0.232208 0)
(0.362796 -0.225184 0)
(0.410935 -0.197234 0)
(-6.35217 0.00748769 0)
(-1.79286 -0.00938006 0)
(0.206 -0.0405709 0)
(-0.401127 -0.0327966 0)
(-0.914642 -0.012993 0)
(-1.10298 -0.00406232 0)
(-1.05719 0.0141115 0)
(-0.942048 0.00545448 0)
(-0.789281 -0.00966042 0)
(-0.620761 -0.0375435 0)
(-0.443192 -0.0728679 0)
(-0.254918 -0.11019 0)
(-0.0524731 -0.139079 0)
(0.155967 -0.143183 0)
(0.349756 -0.134765 0)
(0.500706 -0.102381 0)
(0.602121 -0.0606438 0)
(0.667129 -0.0143856 0)
(0.691748 0.000150587 0)
(0.708114 -0.0155886 0)
(0.684452 -0.0281527 0)
(0.44923 -0.0285771 0)
(-0.327194 -0.0174644 0)
(-0.844705 -0.0112724 0)
(-0.850061 0.00659523 0)
(-0.73848 0.0228849 0)
(-0.608847 0.0491986 0)
(-0.496144 0.0760061 0)
(-0.404388 0.0958268 0)
(-0.319773 0.101535 0)
(-0.23647 0.0802422 0)
(-0.161139 0.0346915 0)
(-0.0947027 -0.0391855 0)
(-0.0296821 -0.110522 0)
(0.0421696 -0.158485 0)
(0.119319 -0.192607 0)
(0.202992 -0.22609 0)
(0.286586 -0.253981 0)
(0.371251 -0.258209 0)
(0.435847 -0.245483 0)
(-6.35392 0.00901057 0)
(-1.78967 -0.00300782 0)
(0.236683 -0.0184636 0)
(-0.367719 -0.0143268 0)
(-0.895779 -0.00491254 0)
(-1.09321 -0.00826559 0)
(-1.05232 0.00338729 0)
(-0.947041 -0.00273992 0)
(-0.806727 -0.0162024 0)
(-0.649205 -0.0439089 0)
(-0.474547 -0.0770809 0)
(-0.27805 -0.106652 0)
(-0.0634086 -0.128419 0)
(0.157669 -0.132487 0)
(0.364844 -0.130469 0)
(0.5323 -0.114577 0)
(0.641723 -0.0795004 0)
(0.703461 -0.0371504 0)
(0.724979 -0.000763657 0)
(0.718918 0.00707308 0)
(0.685909 -0.000744743 0)
(0.458502 0.00119978 0)
(-0.310177 0.018111 0)
(-0.83272 0.0229845 0)
(-0.834829 0.0421432 0)
(-0.715695 0.0551327 0)
(-0.590705 0.0734156 0)
(-0.489569 0.0890859 0)
(-0.410686 0.0933768 0)
(-0.342851 0.0802933 0)
(-0.283608 0.038951 0)
(-0.223724 -0.0257392 0)
(-0.156498 -0.088783 0)
(-0.0810303 -0.140122 0)
(0.00171549 -0.179908 0)
(0.087492 -0.207038 0)
(0.175017 -0.23228 0)
(0.272061 -0.263932 0)
(0.36915 -0.280313 0)
(0.446913 -0.283017 0)
(-6.35409 0.00983064 0)
(-1.78645 0.00429774 0)
(0.253468 -0.00316888 0)
(-0.348903 -0.00476499 0)
(-0.88671 0.00238368 0)
(-1.0888 -0.00967968 0)
(-1.05042 -0.00656081 0)
(-0.950967 -0.0104725 0)
(-0.82213 -0.0213449 0)
(-0.674475 -0.0448191 0)
(-0.500715 -0.0721574 0)
(-0.295172 -0.0929282 0)
(-0.0717478 -0.108924 0)
(0.156731 -0.112393 0)
(0.3714 -0.114498 0)
(0.550615 -0.110299 0)
(0.675534 -0.0930728 0)
(0.748954 -0.0667576 0)
(0.766013 -0.0212269 0)
(0.754643 0.0179123 0)
(0.701244 0.0222446 0)
(0.476857 0.0379462 0)
(-0.28517 0.0607022 0)
(-0.823256 0.069155 0)
(-0.8286 0.08278 0)
(-0.709357 0.0881563 0)
(-0.590057 0.0910908 0)
(-0.497753 0.0881802 0)
(-0.433347 0.0745154 0)
(-0.389075 0.0357432 0)
(-0.348056 -0.0246912 0)
(-0.285461 -0.0763923 0)
(-0.201916 -0.121013 0)
(-0.112977 -0.156194 0)
(-0.0254283 -0.178779 0)
(0.0607095 -0.198429 0)
(0.149413 -0.222607 0)
(0.247289 -0.257931 0)
(0.351635 -0.283296 0)
(0.446549 -0.297022 0)
(-6.35285 0.0113941 0)
(-1.78366 0.00942925 0)
(0.257295 0.00459966 0)
(-0.343249 0.00098158 0)
(-0.886773 0.00741448 0)
(-1.08914 -0.00912428 0)
(-1.05167 -0.0111893 0)
(-0.954096 -0.0142845 0)
(-0.834242 -0.0224945 0)
(-0.693644 -0.0399026 0)
(-0.519391 -0.0589013 0)
(-0.30663 -0.0723741 0)
(-0.0749804 -0.0824489 0)
(0.158676 -0.0870679 0)
(0.375007 -0.0898517 0)
(0.556289 -0.0934975 0)
(0.694109 -0.0929635 0)
(0.78597 -0.0848267 0)
(0.821488 -0.0518848 0)
(0.813356 0.00752237 0)
(0.739732 0.0458573 0)
(0.506805 0.0712101 0)
(-0.25635 0.101411 0)
(-0.825893 0.124997 0)
(-0.836137 0.116758 0)
(-0.720434 0.110619 0)
(-0.607068 0.0977699 0)
(-0.526934 0.0766354 0)
(-0.482457 0.0303344 0)
(-0.45309 -0.0270076 0)
(-0.406037 -0.0734775 0)
(-0.325847 -0.107574 0)
(-0.231956 -0.128544 0)
(-0.134367 -0.144985 0)
(-0.0436219 -0.161976 0)
(0.0406981 -0.181561 0)
(0.12547 -0.206281 0)
(0.219229 -0.240125 0)
(0.327947 -0.262939 0)
(0.440332 -0.280695 0)
(-6.34923 0.0120814 0)
(-1.78069 0.0109576 0)
(0.251946 0.00944399 0)
(-0.348841 0.00699132 0)
(-0.894981 0.0114254 0)
(-1.0938 -0.00528669 0)
(-1.05704 -0.0111731 0)
(-0.957982 -0.0138758 0)
(-0.843087 -0.0190517 0)
(-0.704782 -0.0295 0)
(-0.52901 -0.0406204 0)
(-0.312203 -0.0469233 0)
(-0.0764685 -0.0514489 0)
(0.158034 -0.0601061 0)
(0.372853 -0.0640312 0)
(0.554253 -0.072168 0)
(0.697671 -0.0851315 0)
(0.804175 -0.0897395 0)
(0.870825 -0.0810638 0)
(0.883219 -0.0241022 0)
(0.815993 0.05053 0)
(0.554989 0.0960663 0)
(-0.219614 0.140197 0)
(-0.838362 0.183232 0)
(-0.86349 0.148654 0)
(-0.754401 0.128397 0)
(-0.654497 0.088159 0)
(-0.586349 0.031033 0)
(-0.547554 -0.0265722 0)
(-0.506487 -0.0681306 0)
(-0.43617 -0.0963166 0)
(-0.349423 -0.104228 0)
(-0.246948 -0.111212 0)
(-0.144993 -0.120838 0)
(-0.0547532 -0.140351 0)
(0.0271735 -0.163302 0)
(0.108403 -0.185139 0)
(0.196984 -0.209398 0)
(0.306185 -0.224481 0)
(0.430596 -0.240646 0)
(-6.34494 0.0119391 0)
(-1.77759 0.00950241 0)
(0.242093 0.0099324 0)
(-0.359854 0.0145864 0)
(-0.905578 0.0178667 0)
(-1.10226 0.00723451 0)
(-1.06824 -0.00532515 0)
(-0.967835 -0.0103964 0)
(-0.851985 -0.0168682 0)
(-0.709091 -0.0199648 0)
(-0.527669 -0.0209009 0)
(-0.309865 -0.0200642 0)
(-0.0756435 -0.0206241 0)
(0.155669 -0.0348376 0)
(0.367987 -0.0427881 0)
(0.548173 -0.0538579 0)
(0.693704 -0.0726172 0)
(0.807443 -0.0881264 0)
(0.897709 -0.0870329 0)
(0.948104 -0.0548808 0)
(0.917074 0.0234884 0)
(0.631527 0.0890365 0)
(-0.164561 0.162164 0)
(-0.858486 0.211135 0)
(-0.912243 0.164999 0)
(-0.818706 0.115466 0)
(-0.72886 0.0462202 0)
(-0.656949 -0.0136675 0)
(-0.598921 -0.0553204 0)
(-0.532813 -0.0794976 0)
(-0.452513 -0.0826517 0)
(-0.355532 -0.0826044 0)
(-0.253429 -0.0857871 0)
(-0.154835 -0.0991365 0)
(-0.0648271 -0.12295 0)
(0.0178587 -0.145105 0)
(0.100038 -0.158891 0)
(0.185071 -0.169848 0)
(0.289979 -0.177 0)
(0.416621 -0.194033 0)
(-6.3421 0.0104321 0)
(-1.77523 0.00720307 0)
(0.236703 0.0073732 0)
(-0.365806 0.0195744 0)
(-0.914492 0.0242491 0)
(-1.11373 0.0244457 0)
(-1.08323 0.00485847 0)
(-0.981861 -0.00507618 0)
(-0.859036 -0.0109401 0)
(-0.707072 -0.00691736 0)
(-0.521102 -1.96154e-05 0)
(-0.306823 0.0054305 0)
(-0.0782509 0.00504994 0)
(0.148618 -0.0131817 0)
(0.359129 -0.0263173 0)
(0.539477 -0.0406672 0)
(0.685656 -0.0624122 0)
(0.802092 -0.0811283 0)
(0.911741 -0.0806441 0)
(0.993184 -0.0665334 0)
(1.00334 -0.0165274 0)
(0.736464 0.054462 0)
(-0.0938877 0.136037 0)
(-0.870502 0.192278 0)
(-0.978829 0.171986 0)
(-0.911638 0.0918544 0)
(-0.803495 0.0167371 0)
(-0.712136 -0.0288021 0)
(-0.630192 -0.0503043 0)
(-0.547413 -0.0558643 0)
(-0.457292 -0.0561139 0)
(-0.364793 -0.0570403 0)
(-0.267724 -0.0664083 0)
(-0.168964 -0.0826113 0)
(-0.0731775 -0.1052 0)
(0.0165565 -0.120377 0)
(0.0996796 -0.126671 0)
(0.181395 -0.128304 0)
(0.276252 -0.131215 0)
(0.395886 -0.149884 0)
(-6.34173 0.00681177 0)
(-1.77405 0.0042789 0)
(0.240361 0.00141492 0)
(-0.362265 0.0165194 0)
(-0.918333 0.027985 0)
(-1.12654 0.041287 0)
(-1.09988 0.0210401 0)
(-0.99693 0.00896302 0)
(-0.862995 0.00243752 0)
(-0.700007 0.00947962 0)
(-0.511278 0.0196636 0)
(-0.304352 0.0266259 0)
(-0.0855019 0.024744 0)
(0.134444 0.00494923 0)
(0.342978 -0.0148353 0)
(0.525826 -0.0327692 0)
(0.67565 -0.0537927 0)
(0.796935 -0.0694618 0)
(0.918023 -0.0669977 0)
(1.01534 -0.0606107 0)
(1.05327 -0.043555 0)
(0.835407 0.00102713 0)
(-0.0201366 0.0697687 0)
(-0.867493 0.134925 0)
(-1.04009 0.134409 0)
(-0.996918 0.0919459 0)
(-0.864111 0.0485522 0)
(-0.745179 0.00836656 0)
(-0.639606 -0.0134948 0)
(-0.551867 -0.0205796 0)
(-0.468966 -0.027779 0)
(-0.383006 -0.0372069 0)
(-0.288313 -0.051075 0)
(-0.183632 -0.0655267 0)
(-0.0769901 -0.0827343 0)
(0.0201012 -0.0918374 0)
(0.104506 -0.0932344 0)
(0.179193 -0.0897843 0)
(0.264269 -0.0914298 0)
(0.364827 -0.112778 0)
(-6.34295 0.00211354 0)
(-1.77457 0.000693834 0)
(0.251266 -0.0066307 0)
(-0.346998 0.00817827 0)
(-0.912368 0.0310984 0)
(-1.137 0.0552822 0)
(-1.11797 0.038847 0)
(-1.01292 0.0281971 0)
(-0.86603 0.0217845 0)
(-0.691635 0.0282699 0)
(-0.500973 0.0362763 0)
(-0.302963 0.0430254 0)
(-0.0970425 0.0381288 0)
(0.113607 0.0183204 0)
(0.320461 -0.00489853 0)
(0.508989 -0.0254559 0)
(0.665333 -0.0429708 0)
(0.795874 -0.0537559 0)
(0.919307 -0.0501942 0)
(1.02076 -0.0525816 0)
(1.06952 -0.0611677 0)
(0.891104 -0.0492917 0)
(0.0523629 -0.00886761 0)
(-0.844301 0.0523045 0)
(-1.07025 0.068862 0)
(-1.04006 0.0660922 0)
(-0.902732 0.0475301 0)
(-0.772087 0.0345368 0)
(-0.65637 0.0266777 0)
(-0.568209 0.0164367 0)
(-0.489322 0.00345172 0)
(-0.404817 -0.0116954 0)
(-0.306529 -0.0283665 0)
(-0.193519 -0.0420361 0)
(-0.0777444 -0.0565319 0)
(0.0255818 -0.0622006 0)
(0.112465 -0.0608109 0)
(0.181618 -0.0553072 0)
(0.245839 -0.0590865 0)
(0.331261 -0.0793051 0)
(-6.34631 -0.00191447 0)
(-1.77608 -0.00127234 0)
(0.270594 -0.0111376 0)
(-0.318587 0.00122496 0)
(-0.893208 0.0377465 0)
(-1.14068 0.068303 0)
(-1.13342 0.0589929 0)
(-1.02687 0.0518607 0)
(-0.869196 0.0449203 0)
(-0.685924 0.0478682 0)
(-0.494401 0.0510391 0)
(-0.304228 0.0564952 0)
(-0.110888 0.04729 0)
(0.089928 0.0282368 0)
(0.294777 0.00579626 0)
(0.490253 -0.0143272 0)
(0.656341 -0.0274264 0)
(0.795314 -0.0352798 0)
(0.916032 -0.035355 0)
(1.01399 -0.0464765 0)
(1.06145 -0.0714724 0)
(0.89979 -0.0885215 0)
(0.109457 -0.08099 0)
(-0.807753 -0.0394596 0)
(-1.05515 0.00449256 0)
(-1.0439 0.0417155 0)
(-0.910787 0.0558844 0)
(-0.782721 0.0638148 0)
(-0.676144 0.0632099 0)
(-0.594968 0.0525702 0)
(-0.519071 0.0364255 0)
(-0.433388 0.018142 0)
(-0.328932 -0.00104604 0)
(-0.208077 -0.0156726 0)
(-0.0853918 -0.0285917 0)
(0.0243254 -0.0319103 0)
(0.115788 -0.0293902 0)
(0.183635 -0.0256933 0)
(0.227007 -0.0333172 0)
(0.292273 -0.0526918 0)
(-6.35001 -0.0045791 0)
(-1.77791 -0.00319107 0)
(0.296424 -0.00281678 0)
(-0.280622 0.00962004 0)
(-0.861278 0.0517971 0)
(-1.13672 0.0787239 0)
(-1.14608 0.0783422 0)
(-1.03963 0.0764522 0)
(-0.875046 0.0688057 0)
(-0.685468 0.0671065 0)
(-0.493596 0.0644057 0)
(-0.308923 0.0672255 0)
(-0.125029 0.0528859 0)
(0.0676121 0.0358059 0)
(0.270372 0.0182432 0)
(0.471193 0.00236627 0)
(0.646774 -0.00759693 0)
(0.7899 -0.0165547 0)
(0.905294 -0.0267449 0)
(0.992631 -0.0519872 0)
(1.02798 -0.0950995 0)
(0.869016 -0.135579 0)
(0.14376 -0.142034 0)
(-0.764553 -0.104371 0)
(-0.996683 -0.0498945 0)
(-1.01414 0.0109468 0)
(-0.906076 0.0560949 0)
(-0.787819 0.0731185 0)
(-0.694975 0.0775388 0)
(-0.620554 0.0741226 0)
(-0.548022 0.0653519 0)
(-0.459452 0.0512436 0)
(-0.348844 0.032097 0)
(-0.222602 0.0154677 0)
(-0.0962165 0.00220965 0)
(0.0180087 -0.000993724 0)
(0.113144 -0.000542034 0)
(0.181593 -0.00128135 0)
(0.209472 -0.0131964 0)
(0.254787 -0.0289021 0)
(-6.35191 -0.00819173 0)
(-1.77871 -0.00643119 0)
(0.329119 0.00271798 0)
(-0.235804 0.0176888 0)
(-0.822735 0.0659412 0)
(-1.12809 0.0874052 0)
(-1.15435 0.0964074 0)
(-1.05079 0.0978943 0)
(-0.883746 0.090301 0)
(-0.690933 0.0859786 0)
(-0.497966 0.0765321 0)
(-0.314237 0.0767234 0)
(-0.135617 0.0595976 0)
(0.0513396 0.0453133 0)
(0.25185 0.033941 0)
(0.453474 0.0215971 0)
(0.63216 0.0113857 0)
(0.773095 -0.00458318 0)
(0.88022 -0.0303483 0)
(0.952711 -0.0689413 0)
(0.977693 -0.128304 0)
(0.834017 -0.158874 0)
(0.167969 -0.167708 0)
(-0.721647 -0.130416 0)
(-0.922971 -0.0870721 0)
(-0.953607 -0.0218081 0)
(-0.883818 0.0315501 0)
(-0.787399 0.0572149 0)
(-0.702789 0.0682225 0)
(-0.632758 0.0777664 0)
(-0.563773 0.0848693 0)
(-0.480015 0.080602 0)
(-0.36714 0.0649355 0)
(-0.238648 0.047895 0)
(-0.110746 0.0348631 0)
(0.00486932 0.0295506 0)
(0.101299 0.0242689 0)
(0.171944 0.0179418 0)
(0.194566 0.0035399 0)
(0.22651 -0.00849575 0)
(-6.35089 -0.0116718 0)
(-1.77824 -0.00918068 0)
(0.362755 0.0160755 0)
(-0.193282 0.0340312 0)
(-0.789156 0.0826633 0)
(-1.11596 0.0936418 0)
(-1.15626 0.10761 0)
(-1.06039 0.113058 0)
(-0.895507 0.106856 0)
(-0.702686 0.101102 0)
(-0.508944 0.0895235 0)
(-0.324396 0.0841084 0)
(-0.144686 0.0681636 0)
(0.041003 0.0578106 0)
(0.239179 0.0513536 0)
(0.436597 0.0389215 0)
(0.609316 0.0237218 0)
(0.74135 -0.00435427 0)
(0.840939 -0.0411952 0)
(0.899215 -0.0993422 0)
(0.927481 -0.146986 0)
(0.81683 -0.16157 0)
(0.198515 -0.164256 0)
(-0.682227 -0.124032 0)
(-0.868585 -0.0863517 0)
(-0.896909 -0.052072 0)
(-0.849176 -0.0141633 0)
(-0.773671 0.0187737 0)
(-0.696833 0.0405703 0)
(-0.629952 0.0653546 0)
(-0.563393 0.087639 0)
(-0.487688 0.0996665 0)
(-0.38346 0.0931871 0)
(-0.257417 0.0788329 0)
(-0.130727 0.0661729 0)
(-0.0166373 0.0569962 0)
(0.0796476 0.0444172 0)
(0.156805 0.0349596 0)
(0.186912 0.021247 0)
(0.21537 0.0156053 0)
(-6.34729 -0.0127068 0)
(-1.77669 -0.0086182 0)
(0.393722 0.0282327 0)
(-0.158201 0.0523673 0)
(-0.762434 0.0942077 0)
(-1.10264 0.100408 0)
(-1.15345 0.115295 0)
(-1.06874 0.121634 0)
(-0.907424 0.118462 0)
(-0.716329 0.112477 0)
(-0.522517 0.101517 0)
(-0.335364 0.0973732 0)
(-0.153267 0.0798522 0)
(0.0335997 0.072883 0)
(0.22851 0.0680403 0)
(0.41717 0.0501067 0)
(0.576793 0.0249559 0)
(0.696546 -0.00952963 0)
(0.790172 -0.065291 0)
(0.846239 -0.119519 0)
(0.894131 -0.141036 0)
(0.814484 -0.151723 0)
(0.237918 -0.146834 0)
(-0.646052 -0.105313 0)
(-0.839422 -0.0785421 0)
(-0.868719 -0.0680577 0)
(-0.822795 -0.0545682 0)
(-0.748776 -0.0292912 0)
(-0.673435 -0.00114504 0)
(-0.607703 0.0380623 0)
(-0.547073 0.0773276 0)
(-0.481854 0.105041 0)
(-0.394284 0.112886 0)
(-0.279898 0.105881 0)
(-0.158013 0.0926755 0)
(-0.046334 0.0780163 0)
(0.0500633 0.0583305 0)
(0.137413 0.0478678 0)
(0.185261 0.0390938 0)
(0.221164 0.0428974 0)
(-6.34223 -0.0115787 0)
(-1.77384 -0.00776981 0)
(0.42464 0.0323621 0)
(-0.129838 0.0618417 0)
(-0.745119 0.0978015 0)
(-1.08914 0.10367 0)
(-1.14798 0.118353 0)
(-1.07469 0.122925 0)
(-0.917018 0.124696 0)
(-0.728565 0.121431 0)
(-0.535084 0.113176 0)
(-0.346154 0.109267 0)
(-0.16007 0.0985231 0)
(0.0258362 0.0903471 0)
(0.214128 0.08069 0)
(0.391096 0.0579485 0)
(0.535318 0.0229702 0)
(0.645478 -0.0291872 0)
(0.737955 -0.0838069 0)
(0.811522 -0.116314 0)
(0.877728 -0.121068 0)
(0.8172 -0.131907 0)
(0.276238 -0.126268 0)
(-0.612023 -0.0895656 0)
(-0.82299 -0.0706876 0)
(-0.85972 -0.0672782 0)
(-0.809508 -0.0678464 0)
(-0.726227 -0.0626104 0)
(-0.644409 -0.0431273 0)
(-0.570911 -0.00343482 0)
(-0.51193 0.0480352 0)
(-0.458732 0.0946565 0)
(-0.395356 0.123049 0)
(-0.303491 0.128039 0)
(-0.191465 0.114604 0)
(-0.0817426 0.0951038 0)
(0.0199656 0.0722595 0)
(0.116746 0.0592749 0)
(0.193555 0.0609391 0)
(0.243099 0.0722584 0)
(-6.3357 -0.00894818 0)
(-1.76984 -0.00784536 0)
(0.456252 0.0235669 0)
(-0.104129 0.0512632 0)
(-0.730682 0.0864047 0)
(-1.07365 0.0994816 0)
(-1.14116 0.113116 0)
(-1.07748 0.118192 0)
(-0.921827 0.123657 0)
(-0.735168 0.125899 0)
(-0.542232 0.126398 0)
(-0.352146 0.125933 0)
(-0.166938 0.12119 0)
(0.0142466 0.112108 0)
(0.192464 0.0956235 0)
(0.35399 0.0569738 0)
(0.486627 0.00120361 0)
(0.601279 -0.0500472 0)
(0.699928 -0.0827042 0)
(0.795479 -0.0912903 0)
(0.872374 -0.0917623 0)
(0.818141 -0.106638 0)
(0.305126 -0.104676 0)
(-0.582208 -0.0791979 0)
(-0.81212 -0.0626198 0)
(-0.856987 -0.0605834 0)
(-0.807955 -0.0644143 0)
(-0.71644 -0.0694226 0)
(-0.623264 -0.0649278 0)
(-0.532564 -0.0385721 0)
(-0.463614 0.00938135 0)
(-0.418485 0.0659109 0)
(-0.378838 0.116387 0)
(-0.31975 0.143424 0)
(-0.227567 0.13496 0)
(-0.118578 0.111919 0)
(-0.00851082 0.0888223 0)
(0.0991314 0.0781482 0)
(0.197725 0.0840485 0)
(0.26997 0.104055 0)
(-6.32757 -0.00810133 0)
(-1.76453 -0.010267 0)
(0.485708 0.00419712 0)
(-0.0764509 0.0221294 0)
(-0.711133 0.0617546 0)
(-1.05425 0.0856279 0)
(-1.13308 0.100471 0)
(-1.0778 0.1079 0)
(-0.922427 0.116776 0)
(-0.734229 0.126766 0)
(-0.541321 0.138977 0)
(-0.352996 0.143554 0)
(-0.174052 0.141238 0)
(-0.00428148 0.125321 0)
(0.158168 0.0929774 0)
(0.307504 0.0376786 0)
(0.443842 -0.0247761 0)
(0.568649 -0.0598632 0)
(0.684808 -0.071718 0)
(0.787414 -0.0588018 0)
(0.867034 -0.060201 0)
(0.809805 -0.0792477 0)
(0.317851 -0.081363 0)
(-0.561762 -0.0671471 0)
(-0.805927 -0.0553467 0)
(-0.853742 -0.0551839 0)
(-0.806828 -0.0557298 0)
(-0.716832 -0.059796 0)
(-0.613468 -0.0628641 0)
(-0.504211 -0.0519213 0)
(-0.422253 -0.0184968 0)
(-0.365479 0.0351144 0)
(-0.340432 0.0976321 0)
(-0.319868 0.144405 0)
(-0.253751 0.154838 0)
(-0.151283 0.134623 0)
(-0.030292 0.114764 0)
(0.0937387 0.106974 0)
(0.204378 0.114173 0)
(0.297631 0.135513 0)
(-6.32217 -0.00595327 0)
(-1.76066 -0.0080633 0)
(0.509773 -0.0150654 0)
(-0.0489935 -0.01689 0)
(-0.686664 0.0275778 0)
(-1.03311 0.0599518 0)
(-1.1207 0.0770222 0)
(-1.06897 0.0900079 0)
(-0.913251 0.105158 0)
(-0.72292 0.123941 0)
(-0.532537 0.14729 0)
(-0.353611 0.155168 0)
(-0.188858 0.150896 0)
(-0.0363296 0.124903 0)
(0.111467 0.076127 0)
(0.262336 0.0160952 0)
(0.412196 -0.043272 0)
(0.558172 -0.0580181 0)
(0.687577 -0.0468231 0)
(0.787999 -0.0211068 0)
(0.85761 -0.0295595 0)
(0.792295 -0.0508013 0)
(0.314365 -0.0586977 0)
(-0.551884 -0.0584166 0)
(-0.805208 -0.0510081 0)
(-0.849524 -0.0503925 0)
(-0.803083 -0.0441823 0)
(-0.716735 -0.0406215 0)
(-0.613842 -0.0482599 0)
(-0.491199 -0.0496826 0)
(-0.393414 -0.0305747 0)
(-0.321961 0.0107615 0)
(-0.289725 0.0711695 0)
(-0.292181 0.133299 0)
(-0.260963 0.16748 0)
(-0.176765 0.164424 0)
(-0.0465584 0.148507 0)
(0.0878474 0.142594 0)
(0.213528 0.147727 0)
(0.317001 0.163001 0)
(-6.32147 -0.00233432 0)
(-1.75965 -0.00429929 0)
(0.527206 -0.0255534 0)
(-0.0204319 -0.0351405 0)
(-0.661505 0.00375187 0)
(-1.01716 0.0161814 0)
(-1.10504 0.0326539 0)
(-1.05092 0.063681 0)
(-0.891441 0.0956424 0)
(-0.701649 0.123112 0)
(-0.516432 0.149809 0)
(-0.351328 0.153884 0)
(-0.211358 0.144239 0)
(-0.0800638 0.107548 0)
(0.0610104 0.0478262 0)
(0.230234 0.00285057 0)
(0.393064 -0.0444801 0)
(0.56516 -0.0446406 0)
(0.698262 -0.0209719 0)
(0.790384 0.00730009 0)
(0.845528 -0.00341782 0)
(0.768152 -0.0255788 0)
(0.294734 -0.0391393 0)
(-0.554715 -0.0543381 0)
(-0.808327 -0.0544753 0)
(-0.839989 -0.0484282 0)
(-0.793736 -0.0341262 0)
(-0.715888 -0.019628 0)
(-0.621723 -0.0250806 0)
(-0.491987 -0.0355115 0)
(-0.377797 -0.0330619 0)
(-0.293671 -0.00660688 0)
(-0.242232 0.0392038 0)
(-0.242718 0.107805 0)
(-0.247881 0.162752 0)
(-0.179569 0.189628 0)
(-0.0592507 0.18799 0)
(0.0835545 0.184231 0)
(0.216325 0.188663 0)
(0.326081 0.196602 0)
(-6.32697 -0.0016777 0)
(-1.76318 0.000490894 0)
(0.537626 -0.0285906 0)
(-0.0014619 -0.0610061 0)
(-0.647915 -0.0300682 0)
(-1.00889 -0.0240429 0)
(-1.07845 -0.015658 0)
(-1.01275 0.0359497 0)
(-0.856058 0.0764558 0)
(-0.673704 0.109042 0)
(-0.499238 0.133798 0)
(-0.354183 0.131841 0)
(-0.237573 0.113458 0)
(-0.118833 0.074494 0)
(0.0257826 0.0223403 0)
(0.205613 -0.00278739 0)
(0.399263 -0.0327163 0)
(0.577288 -0.0243311 0)
(0.709474 -0.00123608 0)
(0.796038 0.026111 0)
(0.833433 0.0180471 0)
(0.739622 -0.00482005 0)
(0.264437 -0.0248761 0)
(-0.569913 -0.0505274 0)
(-0.817613 -0.0601884 0)
(-0.823948 -0.0515927 0)
(-0.778131 -0.029381 0)
(-0.712903 -0.00583536 0)
(-0.632816 -0.00283918 0)
(-0.505055 -0.0199449 0)
(-0.376566 -0.0260593 0)
(-0.278272 -0.0157535 0)
(-0.207835 0.0105291 0)
(-0.18676 0.0650508 0)
(-0.199071 0.140095 0)
(-0.163388 0.200747 0)
(-0.0636256 0.223652 0)
(0.077389 0.221688 0)
(0.205389 0.213456 0)
(0.319388 0.207043 0)
(-6.33836 -0.00245777 0)
(-1.77061 -0.00263485 0)
(0.540311 -0.0314679 0)
(0.011125 -0.0714566 0)
(-0.637227 -0.0542651 0)
(-1.01059 -0.0543769 0)
(-1.0576 -0.0525458 0)
(-0.961919 -0.00182747 0)
(-0.813581 0.041126 0)
(-0.64112 0.0742137 0)
(-0.481903 0.0942099 0)
(-0.358819 0.0887357 0)
(-0.262405 0.068263 0)
(-0.147314 0.0396477 0)
(0.00862137 0.00673675 0)
(0.194639 -0.00259318 0)
(0.414149 -0.0149994 0)
(0.590531 -0.00516553 0)
(0.722063 0.0140152 0)
(0.804477 0.0396504 0)
(0.824446 0.0354175 0)
(0.709444 0.0121019 0)
(0.227132 -0.0161469 0)
(-0.592663 -0.0472575 0)
(-0.830755 -0.066743 0)
(-0.804751 -0.0591035 0)
(-0.756542 -0.0371091 0)
(-0.701444 -0.00797764 0)
(-0.635534 0.0122015 0)
(-0.526364 -2.63447e-05 0)
(-0.387851 -0.0176561 0)
(-0.273683 -0.0166238 0)
(-0.18923 -0.00177615 0)
(-0.13445 0.0280007 0)
(-0.121961 0.100804 0)
(-0.114277 0.187362 0)
(-0.0450006 0.240948 0)
(0.0640562 0.243218 0)
(0.186247 0.224862 0)
(0.297093 0.202231 0)
(-6.34838 0.00279857 0)
(-1.77625 -0.00435583 0)
(0.53309 -0.0286324 0)
(0.0111081 -0.0691097 0)
(-0.630532 -0.0702375 0)
(-1.00875 -0.0750286 0)
(-1.03208 -0.0668741 0)
(-0.916446 -0.034611 0)
(-0.772263 -0.00450495 0)
(-0.610773 0.0178551 0)
(-0.46893 0.027624 0)
(-0.362905 0.0211687 0)
(-0.272917 0.00969946 0)
(-0.155732 0.00642958 0)
(0.00907988 -0.000996014 0)
(0.198297 -0.00202797 0)
(0.427873 0.000529814 0)
(0.603789 0.0113636 0)
(0.735325 0.0292163 0)
(0.814277 0.0496248 0)
(0.817622 0.0486843 0)
(0.676875 0.0248197 0)
(0.181786 -0.0112529 0)
(-0.62271 -0.0441702 0)
(-0.836987 -0.0699594 0)
(-0.794411 -0.0672126 0)
(-0.729774 -0.0502461 0)
(-0.677607 -0.0174845 0)
(-0.629176 0.0115455 0)
(-0.544207 0.0143497 0)
(-0.407844 -0.00171869 0)
(-0.280288 -0.0152855 0)
(-0.181891 -0.0131542 0)
(-0.0985956 0.005432 0)
(-0.0465065 0.0518443 0)
(-0.0307407 0.139346 0)
(-0.0133624 0.214281 0)
(0.0624118 0.232158 0)
(0.158036 0.207519 0)
(0.254313 0.17127 0)
(-6.35413 0.00738021 0)
(-1.77899 -0.00193471 0)
(0.515271 -0.0161709 0)
(-0.000534625 -0.0528807 0)
(-0.62795 -0.0764107 0)
(-0.999545 -0.0871618 0)
(-1.00982 -0.064132 0)
(-0.880557 -0.0553977 0)
(-0.7421 -0.0463424 0)
(-0.594788 -0.0453428 0)
(-0.465262 -0.0484654 0)
(-0.359491 -0.0565065 0)
(-0.259252 -0.0635452 0)
(-0.137628 -0.0418734 0)
(0.0233653 -0.01378 0)
(0.209935 0.00425768 0)
(0.434261 0.0183331 0)
(0.614043 0.0286232 0)
(0.745572 0.0428836 0)
(0.81654 0.0584177 0)
(0.80314 0.0566083 0)
(0.635781 0.0308603 0)
(0.127384 -0.00830026 0)
(-0.655393 -0.0430471 0)
(-0.84612 -0.0668697 0)
(-0.789682 -0.0718535 0)
(-0.702378 -0.0612157 0)
(-0.645374 -0.0322452 0)
(-0.610767 0.00261958 0)
(-0.546659 0.0197275 0)
(-0.431362 0.00825347 0)
(-0.295643 -0.010704 0)
(-0.175399 -0.0176816 0)
(-0.0761074 -0.00681022 0)
(0.00669215 0.0228414 0)
(0.0473812 0.072453 0)
(0.0450871 0.1355 0)
(0.0562822 0.16395 0)
(0.121697 0.147642 0)
(0.212722 0.117825 0)
(-6.3561 0.0102059 0)
(-1.77987 0.00182284 0)
(0.482706 0.00141693 0)
(-0.027961 -0.029876 0)
(-0.627359 -0.076033 0)
(-0.981827 -0.0890135 0)
(-0.991784 -0.0661558 0)
(-0.856978 -0.0709106 0)
(-0.732887 -0.0770765 0)
(-0.602701 -0.0880831 0)
(-0.476124 -0.112049 0)
(-0.350272 -0.125905 0)
(-0.221862 -0.118543 0)
(-0.0889426 -0.0741003 0)
(0.0562226 -0.0156753 0)
(0.237465 0.0123812 0)
(0.432411 0.0444535 0)
(0.620703 0.050555 0)
(0.750084 0.0573699 0)
(0.808578 0.0623802 0)
(0.777813 0.0547996 0)
(0.587317 0.0295463 0)
(0.069891 -0.00499411 0)
(-0.686866 -0.0377818 0)
(-0.856909 -0.0611816 0)
(-0.78831 -0.0749949 0)
(-0.680138 -0.0687883 0)
(-0.613229 -0.0456969 0)
(-0.579052 -0.0106227 0)
(-0.535247 0.0223231 0)
(-0.443758 0.0235336 0)
(-0.308232 0.00606838 0)
(-0.17561 -0.00768506 0)
(-0.0637503 -0.0115142 0)
(0.0313042 -0.00514098 0)
(0.0902382 0.0120309 0)
(0.0995825 0.0356322 0)
(0.0864689 0.0511087 0)
(0.121303 0.0589044 0)
(0.206827 0.056528 0)
(-6.35739 0.013332 0)
(-1.78017 0.00859237 0)
(0.436643 0.0132039 0)
(-0.06767 -0.0102074 0)
(-0.633286 -0.0671946 0)
(-0.965173 -0.0862279 0)
(-0.974959 -0.0727036 0)
(-0.851141 -0.0798654 0)
(-0.738894 -0.0983767 0)
(-0.624026 -0.120964 0)
(-0.494385 -0.14984 0)
(-0.341862 -0.166665 0)
(-0.183474 -0.161138 0)
(-0.0334556 -0.114211 0)
(0.106133 -0.0381676 0)
(0.281936 0.0101078 0)
(0.435183 0.0729866 0)
(0.622844 0.0768401 0)
(0.748984 0.0737905 0)
(0.788594 0.0595937 0)
(0.743151 0.0443409 0)
(0.543763 0.0239286 0)
(0.0231428 -0.00177868 0)
(-0.713529 -0.0367966 0)
(-0.867311 -0.0537651 0)
(-0.788533 -0.0709322 0)
(-0.664308 -0.073649 0)
(-0.583109 -0.0575325 0)
(-0.539232 -0.0223893 0)
(-0.508115 0.019066 0)
(-0.437139 0.0419949 0)
(-0.316005 0.0342898 0)
(-0.182638 0.0130472 0)
(-0.0691888 -0.0113146 0)
(0.0258412 -0.0413403 0)
(0.0826305 -0.071105 0)
(0.104066 -0.0900565 0)
(0.113585 -0.0828917 0)
(0.151093 -0.0464351 0)
(0.230263 -0.00738968 0)
(-6.35802 0.0157752 0)
(-1.78047 0.015131 0)
(0.388714 0.020871 0)
(-0.11078 0.00871715 0)
(-0.649921 -0.0508234 0)
(-0.955552 -0.0782861 0)
(-0.965907 -0.073999 0)
(-0.853949 -0.092576 0)
(-0.750856 -0.114039 0)
(-0.647951 -0.135209 0)
(-0.51566 -0.15919 0)
(-0.342185 -0.173955 0)
(-0.151744 -0.171236 0)
(0.0252932 -0.135744 0)
(0.176717 -0.0653201 0)
(0.330496 0.0103431 0)
(0.464887 0.0809203 0)
(0.620263 0.105399 0)
(0.734476 0.0912961 0)
(0.754035 0.0536588 0)
(0.702532 0.0265014 0)
(0.515961 0.0224444 0)
(-0.0058731 0.00814942 0)
(-0.734377 -0.0215261 0)
(-0.874818 -0.0404505 0)
(-0.790077 -0.0624352 0)
(-0.651823 -0.0722366 0)
(-0.551448 -0.0637807 0)
(-0.488316 -0.0276967 0)
(-0.455537 0.0246643 0)
(-0.406744 0.0639841 0)
(-0.319223 0.0616104 0)
(-0.203426 0.0289604 0)
(-0.0970086 -0.0199387 0)
(-0.0106861 -0.0773495 0)
(0.049912 -0.13453 0)
(0.105048 -0.163702 0)
(0.158657 -0.158432 0)
(0.219122 -0.124874 0)
(0.285419 -0.0708414 0)
(-6.35663 0.0158602 0)
(-1.78036 0.018846 0)
(0.34587 0.0271511 0)
(-0.154494 0.0240943 0)
(-0.678568 -0.0313732 0)
(-0.957459 -0.0652942 0)
(-0.965453 -0.0793866 0)
(-0.862383 -0.100538 0)
(-0.765633 -0.117954 0)
(-0.666258 -0.135428 0)
(-0.528538 -0.149617 0)
(-0.34119 -0.158394 0)
(-0.135178 -0.157209 0)
(0.0675408 -0.133761 0)
(0.246838 -0.0823649 0)
(0.392837 0.00238625 0)
(0.519534 0.0833687 0)
(0.619471 0.123821 0)
(0.701593 0.104877 0)