/*--------------------------------*- C++ -*----------------------------------*\
| =========                 |                                                 |
| \\      /  F ield         | OpenFOAM: The Open Source CFD Toolbox           |
|  \\    /   O peration     | Version:  v1912                                 |
|   \\  /    A nd           | Website:  www.openfoam.com                      |
|    \\/     M anipulation  |                                                 |
\*---------------------------------------------------------------------------*/
FoamFile
{
    version     2.0;
    format      ascii;
    class       volVectorField;
    location    "1.06";
    object      grad(p);
}
// * * * * * * * * * * * * * * * * * * * * * * * * * * * * * * * * * * * * * //

dimensions      [1 -2 -2 0 0 0 0];


internalField   nonuniform List<vector> 
1900
(
(-0.0134769 -4.17966e-06 0)
(-0.0135766 4.77578e-05 0)
(-0.00650457 9.29906e-05 0)
(0.571967 5.80629e-05 0)
(27.7018 -0.000209741 0)
(304.55 -0.0132604 0)
(1147.25 0.794302 0)
(1958.62 14.8184 0)
(2011.42 117.852 0)
(785.933 166.683 0)
(-0.0134333 -7.67736e-06 0)
(-0.0134794 8.08192e-05 0)
(-0.00649427 0.000164048 0)
(0.571664 0.000113816 0)
(27.6885 0.0136713 0)
(305.344 0.639753 0)
(1162.08 7.3004 0)
(2075.68 33.5376 0)
(2163.28 130.731 0)
(1367.28 121.223 0)
(-0.0134038 5.73763e-09 0)
(-0.0134049 -4.44089e-10 0)
(-0.00647158 1.06581e-09 0)
(0.585474 -7.10543e-11 0)
(28.3414 1.75859e-09 0)
(311.836 -2.23821e-09 0)
(1180.14 5.50671e-10 0)
(2082.05 1.49214e-09 0)
(2099.1 4.13891e-09 0)
(1206.83 1.35003e-09 0)
(-0.0134333 7.68887e-06 0)
(-0.0134794 -8.08205e-05 0)
(-0.00649427 -0.000164046 0)
(0.571664 -0.000113817 0)
(27.6885 -0.0136713 0)
(305.344 -0.639754 0)
(1162.08 -7.3004 0)
(2075.68 -33.5376 0)
(2163.28 -130.731 0)
(1367.28 -121.223 0)
(-0.0134769 4.18542e-06 0)
(-0.0135766 -4.77586e-05 0)
(-0.00650457 -9.2989e-05 0)
(0.571967 -5.80639e-05 0)
(27.7018 0.000209742 0)
(304.55 0.0132604 0)
(1147.25 -0.794302 0)
(1958.62 -14.8184 0)
(2011.42 -117.852 0)
(785.933 -166.683 0)
(69.5819 639.2 1.03675e-11)
(559.009 695.728 -1.2754e-11)
(-33.5299 582.63 -1.61872e-11)
(-4226.33 914.933 0)
(52.78 6203.28 -6.5798e-11)
(556.768 501.959 1.0483e-11)
(203.477 485.128 1.2754e-11)
(-249.297 368.459 1.61872e-11)
(-2100.86 444.216 0)
(345.43 5653.7 0)
(669.894 9.33231e-10 0)
(498.53 1.83089e-09 0)
(-50.0331 -1.11022e-09 0)
(-1740.43 1.07658e-09 0)
(3135.76 2.11471e-10 0)
(556.768 -501.959 1.0483e-11)
(203.477 -485.128 1.2754e-11)
(-249.297 -368.459 1.61872e-11)
(-2100.86 -444.216 0)
(345.43 -5653.7 0)
(69.5819 -639.2 -3.13336e-11)
(559.009 -695.728 -1.2754e-11)
(-33.5299 -582.63 -1.61872e-11)
(-4226.33 -914.933 -4.39189e-11)
(52.78 -6203.28 6.5798e-11)
(8043.27 -3212.82 3.19497e-11)
(501.657 -416.839 -2.68423e-11)
(1431.91 -104.34 0)
(2402.82 868.425 2.10305e-11)
(-6573.25 -4211.58 -9.66599e-12)
(5856.88 -3310.6 -1.59265e-11)
(1224.8 -321.139 1.34149e-11)
(1890.95 -182.643 0)
(552.895 424.865 -1.31636e-11)
(-7041.47 -7862.63 2.32559e-12)
(6280.06 0 0)
(1247.14 8.3504e-10 0)
(1697.07 2.36848e-09 0)
(-1078.54 -1.39322e-09 5.27057e-12)
(-8887 -3.42806e-09 -4.65118e-12)
(5856.88 3310.6 -1.59265e-11)
(1224.8 321.139 1.34149e-11)
(1890.95 182.643 0)
(552.895 -424.865 -1.31636e-11)
(-7041.47 7862.63 2.32559e-12)
(8043.27 3212.82 1.59265e-11)
(501.657 416.839 1.25538e-14)
(1431.91 104.34 0)
(2402.82 -868.425 2.61541e-14)
(-6573.25 4211.58 9.66599e-12)
(-23431.5 -7396.48 0)
(-14309.2 7892.93 0)
(1650.75 3760.39 0)
(1669.05 1013.49 0)
(3004.51 364.712 0)
(4094.05 161.515 0)
(4935.62 91.9094 0)
(4871.24 71.9262 0)
(3838.18 53.9209 0)
(2059.13 23.5326 0)
(613.713 3.97464 0)
(75.5533 0.166824 0)
(2.58122 0.0011456 0)
(0.0162358 8.83334e-07 0)
(1.31419e-05 -2.03474e-09 0)
(2.50305e-10 0 0)
(0 0 0)
(1.61487e-11 0 0)
(0 -9.68922e-11 0)
(-1.61487e-11 3.22974e-11 0)
(0 -3.22974e-11 0)
(0 6.45948e-11 0)
(1.61487e-11 0 0)
(0 -9.68922e-11 0)
(-4.11792e-10 3.22974e-11 0)
(-1.67672e-05 -9.68922e-11 0)
(-0.0202006 6.00732e-09 0)
(-3.12941 -2.4869e-09 0)
(-89.3746 -2.77758e-09 0)
(-711.103 7.3961e-09 0)
(-2350.88 -5.0061e-09 0)
(-4353.1 7.10543e-10 0)
(-5589.34 -1.06581e-09 0)
(-5897.65 3.16514e-09 0)
(-5657.04 -1.2596e-09 0)
(-5098.07 -2.26082e-10 0)
(-4342.42 -1.67946e-09 0)
(-4279.11 -1.61487e-11 0)
(33096.9 -1.74406e-09 0)
(-60180.2 -3.81109e-09 0)
(-20753.4 -4940.39 0)
(-13860.2 10842.3 0)
(538.19 2573.55 0)
(1083.32 533.235 0)
(2906.2 45.5119 0)
(4096.3 102.15 0)
(4922.66 45.9357 0)
(4867.09 29.3957 0)
(3833.93 21.7227 0)
(2054.87 10.4421 0)
(611.563 1.91709 0)
(75.1619 0.0837701 0)
(2.56432 0.000563243 0)
(0.0161226 3.814e-07 0)
(1.30645e-05 0 0)
(7.75138e-10 0 0)
(0 0 0)
(0 0 0)
(2.4223e-11 -3.22974e-11 0)
(0 -3.22974e-11 0)
(0 0 0)
(-1.61487e-11 -3.22974e-11 0)
(-8.07435e-12 0 0)
(2.4223e-11 -3.22974e-11 0)
(-4.19866e-10 -3.22974e-11 0)
(-1.67659e-05 -3.22974e-11 0)
(-0.0202006 6.36259e-09 0)
(-3.12941 -2.71298e-09 0)
(-89.3746 -1.90555e-09 0)
(-711.103 6.2011e-09 0)
(-2350.88 -4.10177e-09 0)
(-4353.1 -6.78245e-10 0)
(-5589.34 -1.03352e-09 0)
(-5897.65 2.22852e-09 0)
(-5657.04 -1.2273e-09 0)
(-5098.07 2.90677e-10 0)
(-4342.42 2.90677e-10 0)
(-4279.11 5.65204e-10 0)
(33096.9 7.91286e-10 0)
(-60180.2 1.74406e-09 0)
(-17944.6 -3.03596e-09 0)
(-12123.4 1.2273e-09 0)
(-1348.24 1.195e-09 0)
(933.619 1.35649e-09 0)
(2879.11 1.61487e-09 0)
(4094.17 1.84095e-09 0)
(4914.45 2.26082e-09 0)
(4864.2 -2.19622e-09 0)
(3832.67 1.71176e-09 0)
(2053.37 -5.10299e-09 0)
(610.699 9.04327e-10 0)
(74.9958 -2.58379e-09 0)
(2.55685 1.2919e-09 0)
(0.0160719 -2.68068e-09 0)
(1.30309e-05 1.77636e-09 0)
(2.50305e-10 0 0)
(0 0 0)
(0 0 0)
(0 0 0)
(0 -3.22974e-11 0)
(0 0 0)
(0 -3.22974e-11 0)
(0 -6.45948e-11 0)
(0 0 0)
(-4.19866e-10 -3.22974e-11 0)
(-1.67654e-05 0 0)
(-0.0202006 4.36015e-09 0)
(-3.12941 -5.71664e-09 0)
(-89.3746 -1.77636e-09 0)
(-711.103 6.58867e-09 0)
(-2350.88 -4.29555e-09 0)
(-4353.1 -3.26204e-09 0)
(-5589.34 -2.00244e-09 0)
(-5897.65 3.19744e-09 0)
(-5657.04 -3.87569e-10 0)
(-5098.07 -2.58379e-10 0)
(-4342.42 5.32907e-10 0)
(-4279.11 4.03717e-10 0)
(33096.9 2.4223e-10 0)
(-60180.2 5.55515e-09 0)
(-20753.4 4940.39 0)
(-13860.2 -10842.3 0)
(538.19 -2573.55 0)
(1083.32 -533.235 0)
(2906.2 -45.5119 0)
(4096.3 -102.15 0)
(4922.66 -45.9357 0)
(4867.09 -29.3957 0)
(3833.93 -21.7227 0)
(2054.87 -10.4421 0)
(611.563 -1.91709 0)
(75.1619 -0.0837701 0)
(2.56432 -0.000563248 0)
(0.0161226 -3.84242e-07 0)
(1.30653e-05 -2.90677e-09 0)
(2.50305e-10 0 0)
(0 0 0)
(0 0 0)
(0 0 0)
(0 0 0)
(0 0 0)
(-2.4223e-11 0 0)
(0 0 0)
(2.4223e-11 0 0)
(-4.19866e-10 0 0)
(-1.67646e-05 -5.49056e-10 0)
(-0.0202006 4.55393e-09 0)
(-3.12941 -4.48934e-09 0)
(-89.3746 -1.45338e-09 0)
(-711.103 5.58745e-09 0)
(-2350.88 -3.6819e-09 0)
(-4353.1 -1.58257e-09 0)
(-5589.34 -1.67946e-09 0)
(-5897.65 3.7788e-09 0)
(-5657.04 -5.81353e-10 0)
(-5098.07 -5.49056e-10 0)
(-4342.42 -1.56642e-09 0)
(-4279.11 7.58989e-10 0)
(33096.9 8.88178e-10 0)
(-60180.2 -1.42109e-09 0)
(-23431.5 7396.48 0)
(-14309.2 -7892.93 0)
(1650.75 -3760.39 0)
(1669.05 -1013.49 0)
(3004.51 -364.712 0)
(4094.05 -161.515 0)
(4935.62 -91.9094 0)
(4871.24 -71.9262 0)
(3838.18 -53.9209 0)
(2059.13 -23.5326 0)
(613.713 -3.97464 0)
(75.5533 -0.166824 0)
(2.58122 -0.0011456 0)
(0.0162358 -8.82849e-07 0)
(1.31427e-05 -1.45338e-09 0)
(1.09811e-09 0 0)
(0 0 0)
(0 0 0)
(0 0 0)
(1.61487e-11 3.22974e-11 0)
(-1.61487e-11 0 0)
(0 0 0)
(0 6.45948e-11 0)
(0 0 0)
(-5.73279e-10 3.22974e-11 0)
(-1.67641e-05 -3.22974e-10 0)
(-0.0202006 2.22852e-09 0)
(-3.12941 1.2919e-10 0)
(-89.3746 -2.22852e-09 0)
(-711.103 7.4284e-09 0)
(-2350.88 -6.45948e-11 0)
(-4353.1 -2.61609e-09 0)
(-5589.34 -6.45948e-11 0)
(-5897.65 1.45338e-09 0)
(-5657.04 -4.52164e-10 0)
(-5098.07 2.58379e-10 0)
(-4342.42 1.34034e-09 0)
(-4279.11 7.26691e-10 0)
(33096.9 2.4546e-09 0)
(-60180.2 3.87569e-10 0)
(55599.5 13050.6 0)
(-20339.3 -5888.66 0)
(3567.08 -3130.85 0)
(2536.09 -1443.6 0)
(3326.94 -860.682 0)
(4270.03 -348.054 0)
(4963.88 -221.582 0)
(4886.11 -151.813 0)
(3859.37 -95.5846 0)
(2081.27 -36.7776 0)
(623.735 -5.77653 0)
(77.2018 -0.23792 0)
(2.64941 -0.00169124 0)
(0.0167104 -1.44698e-06 0)
(1.35295e-05 1.49177e-09 0)
(1.56003e-10 9.75016e-12 0)
(0 0 0)
(0 0 0)
(0 0 0)
(0 -9.75016e-12 0)
(0 0 0)
(0 0 0)
(0 0 0)
(0 0 0)
(-4.09507e-10 -9.75016e-12 0)
(-1.67639e-05 2.92505e-10 0)
(-0.0202006 -2.73004e-10 0)
(-3.12941 3.41256e-10 0)
(-89.3746 2.43754e-10 0)
(-711.103 -3.41256e-09 0)
(-2350.88 5.17733e-09 0)
(-4353.1 -6.2791e-09 0)
(-5589.34 -4.77758e-10 0)
(-5897.65 1.70628e-09 0)
(-5657.04 -1.76478e-09 0)
(-5098.07 4.58257e-10 0)
(-4342.42 1.16027e-09 0)
(-4279.11 -1.56003e-10 0)
(33096.9 -1.14564e-09 0)
(-60180.2 -1.95003e-11 0)
(58429.9 10516.1 0)
(-26668.8 -2741.38 0)
(4906.57 -2203.96 0)
(3391.73 -1503.46 0)
(3887.33 -1004.29 0)
(4615.54 -563.229 0)
(5109.57 -375.26 0)
(4984.68 -238.823 0)
(3937.67 -129.292 0)
(2133.8 -44.6271 0)
(643.549 -6.675 0)
(80.2342 -0.275847 0)
(2.77393 -0.0020497 0)
(0.017611 -1.90422e-06 0)
(1.43297e-05 -1.06277e-09 0)
(1.75503e-10 -9.75016e-12 0)
(0 0 0)
(0 0 0)
(0 0 0)
(0 0 0)
(0 0 0)
(0 0 0)
(0 0 0)
(0 0 0)
(-3.99756e-10 9.75016e-12 0)
(-1.67644e-05 9.75016e-11 0)
(-0.0202006 -2.17429e-09 0)
(-3.12941 2.78855e-09 0)
(-89.3746 5.34309e-09 0)
(-711.103 -1.32407e-08 0)
(-2350.88 1.17684e-08 0)
(-4353.1 -6.3181e-09 0)
(-5589.34 1.58928e-09 0)
(-5897.65 1.53077e-09 0)
(-5657.04 -2.43754e-10 0)
(-5098.07 -3.90006e-11 0)
(-4342.42 -3.02255e-10 0)
(-4279.11 2.19379e-10 0)
(33096.9 -8.28763e-11 0)
(-60180.2 -2.90555e-09 0)
(63091.5 6333.34 0)
(-32596.8 -880.504 0)
(4759.99 -1414.39 0)
(3692.13 -1267.79 0)
(4232.97 -952.255 0)
(4876.19 -636.398 0)
(5276.49 -438.063 0)
(5123.14 -273.79 0)
(4046.51 -139.614 0)
(2199.43 -45.6025 0)
(666.474 -6.62191 0)
(83.6321 -0.273749 0)
(2.91523 -0.00208564 0)
(0.0186855 -2.02096e-06 0)
(1.53645e-05 -2.53504e-10 0)
(1.18952e-09 0 0)
(0 0 0)
(0 0 0)
(0 0 0)
(0 0 0)
(0 0 0)
(0 0 0)
(0 0 0)
(0 0 0)
(-3.02255e-10 -9.75016e-12 0)
(-1.6766e-05 -2.82755e-10 0)
(-0.0202006 -3.57831e-09 0)
(-3.12941 8.77514e-10 0)
(-89.3746 9.99391e-09 0)
(-711.103 -1.67898e-08 0)
(-2350.88 1.60683e-08 0)
(-4353.1 -3.89031e-09 0)
(-5589.34 1.83303e-09 0)
(-5897.65 3.02255e-10 0)
(-5657.04 -1.95003e-11 0)
(-5098.07 -1.85253e-10 0)
(-4342.42 -6.72761e-10 0)
(-4279.11 -1.99878e-10 0)
(33096.9 8.58014e-10 0)
(-60180.2 -4.83608e-09 0)
(63684.4 725.447 0)
(-34134.8 -653.571 0)
(4533.37 -1182.9 0)
(3837.05 -1109.41 0)
(4495.76 -869.013 0)
(5111.04 -618.672 0)
(5458.99 -417.061 0)
(5272.28 -249.947 0)
(4157.56 -119.815 0)
(2261.95 -36.734 0)
(687.23 -5.04568 0)
(86.6133 -0.200076 0)
(3.03772 -0.00148168 0)
(0.0196208 -1.41664e-06 0)
(1.62771e-05 8.67764e-10 0)
(4.09507e-10 0 0)
(0 0 0)
(0 0 0)
(0 0 0)
(0 0 0)
(0 0 0)
(0 0 0)
(0 0 0)
(0 0 0)
(-6.72761e-10 0 0)
(-1.67678e-05 -1.16027e-09 0)
(-0.0202006 1.65753e-10 0)
(-3.12941 -4.51432e-09 0)
(-89.3746 1.12517e-08 0)
(-711.103 -1.80183e-08 0)
(-2350.88 1.4128e-08 0)
(-4353.1 -4.08532e-09 0)
(-5589.34 -3.60756e-10 0)
(-5897.65 -2.92505e-10 0)
(-5657.04 1.12127e-09 0)
(-5098.07 3.70506e-10 0)
(-4342.42 -4.19257e-10 0)
(-4279.11 4.68008e-10 0)
(33096.9 6.82511e-11 0)
(-60180.2 7.80013e-11 0)
(63160.7 -903.587 0)
(-34435.8 -596.525 0)
(4320.72 -1043.47 0)
(3994.61 -922.45 0)
(4705.87 -719.165 0)
(5311.7 -513.066 0)
(5631.8 -331.613 0)
(5409.58 -186.069 0)
(4251.97 -81.5667 0)
(2310.03 -22.4495 0)
(701.679 -2.72724 0)
(88.4929 -0.0953589 0)
(3.10803 -0.000631285 0)
(0.0201133 -5.86638e-07 0)
(1.67296e-05 -3.36673e-08 0)
(3.60756e-10 -3.2897e-08 0)
(0 -3.2936e-08 0)
(0 -3.32188e-08 0)
(0 -3.3794e-08 0)
(0 -3.25363e-08 0)
(0 -3.37453e-08 0)
(0 -3.23608e-08 0)
(0 -3.19318e-08 0)
(0 -3.3638e-08 0)
(-1.44302e-09 -3.23608e-08 0)
(-1.67659e-05 -3.48471e-08 0)
(-0.0202006 -3.46033e-08 0)
(-3.12941 -3.42426e-08 0)
(-89.3746 -3.40671e-08 0)
(-711.103 -4.40122e-08 0)
(-2350.88 -2.64814e-08 0)
(-4353.1 -3.21658e-08 0)
(-5589.34 -2.12748e-08 0)
(-5897.65 -1.41182e-08 0)
(-5657.04 -9.2334e-09 0)
(-5098.07 -5.9671e-09 0)
(-4342.42 -1.95003e-09 0)
(-4279.11 7.65387e-10 0)
(33096.9 -2.04753e-10 0)
(-60180.2 -4.09507e-10 0)
(62238.9 -1562.01 0)
(-34269.6 -579.982 0)
(4219.3 -793.79 0)
(4149.56 -674.05 0)
(4890.25 -506.961 0)
(5484.5 -343.582 0)
(5774.1 -206.795 0)
(5513.23 -105.729 0)
(4315.23 -40.9542 0)
(2337.92 -9.54376 0)
(708.771 -0.921738 0)
(89.2408 -0.0235139 0)
(3.12961 -0.000298963 0)
(0.0202291 -0.000195807 0)
(1.68108e-05 -0.000195763 0)
(1.11152e-09 -0.000195761 0)
(-3.31505e-10 -0.000195757 0)
(-8.28763e-10 -0.000195758 0)
(6.63011e-10 -0.000195756 0)
(4.87508e-11 -0.000195757 0)
(1.75503e-10 -0.000195756 0)
(1.74528e-09 -0.000195757 0)
(-1.22852e-09 -0.000195757 0)
(-4.29007e-10 -0.000195756 0)
(-1.82328e-09 -0.000195756 0)
(-1.677e-05 -0.000195756 0)
(-0.0202006 -0.000195766 0)
(-3.12941 -0.000195766 0)
(-89.3746 -0.000195726 0)
(-711.103 -0.000195004 0)
(-2350.88 -0.000189173 0)
(-4353.1 -0.000170956 0)
(-5589.34 -0.000139562 0)
(-5897.65 -0.000102086 0)
(-5657.04 -6.73238e-05 0)
(-5098.07 -4.08752e-05 0)
(-4342.42 -2.26026e-05 0)
(-4279.11 -1.04991e-05 0)
(33096.9 -2.30553e-06 0)
(-60180.2 -7.5435e-07 0)
(61096.6 -1509.65 0)
(-33695.5 -414.366 0)
(4230.08 -447.401 0)
(4271.01 -366.942 0)
(5024.32 -260.989 0)
(5600.95 -165.046 0)
(5861.01 -90.638 0)
(5569.39 -41.1694 0)
(4344.66 -13.5612 0)
(2348.6 -2.51579 0)
(710.853 -0.259104 0)
(89.3808 -0.11931 0)
(3.1305 -0.119379 0)
(0.0202128 -0.119407 0)
(1.67743e-05 -0.119407 0)
(6.15235e-09 -0.119407 0)
(2.9933e-09 -0.119407 0)
(8.58014e-10 -0.119407 0)
(9.26265e-10 -0.119407 0)
(1.46252e-10 -0.119407 0)
(-2.63254e-10 -0.119407 0)
(-1.30652e-09 -0.119407 0)
(7.80013e-10 -0.119407 0)
(9.45765e-10 -0.119407 0)
(-9.65266e-10 -0.119407 0)
(-1.67751e-05 -0.119407 0)
(-0.0202006 -0.119407 0)
(-3.12941 -0.119407 0)
(-89.3746 -0.119392 0)
(-711.103 -0.118978 0)
(-2350.88 -0.115797 0)
(-4353.1 -0.106129 0)
(-5589.34 -0.0896958 0)
(-5897.65 -0.0697534 0)
(-5657.04 -0.0502508 0)
(-5098.07 -0.0340592 0)
(-4342.42 -0.0214677 0)
(-4279.11 -0.0120309 0)
(33096.9 -0.00358166 0)
(-60180.2 -0.00247677 0)
(60384.8 -765.728 0)
(-33245.9 -173.498 0)
(4265 -155.875 0)
(4329.2 -124.97 0)
(5084.81 -83.8742 0)
(5648.65 -50.9793 0)
(5893.47 -29.1692 0)
(5587.51 -17.0457 0)
(4352.48 -11.7509 0)
(2350.74 -10.4243 0)
(711.08 -10.4054 0)
(89.3754 -10.4418 0)
(3.12952 -10.4441 0)
(0.0202028 -10.4441 0)
(1.67812e-05 -10.4441 0)
(7.89763e-10 -10.4441 0)
(-2.73004e-10 -10.4441 0)
(-7.28337e-09 -10.4441 0)
(-7.95613e-09 -10.4441 0)
(-3.65631e-09 -10.4441 0)
(2.17429e-09 -10.4441 0)
(8.47289e-09 -10.4441 0)
(8.03413e-09 -10.4441 0)
(-4.58257e-10 -10.4441 0)
(-1.09592e-08 -10.4441 0)
(-1.67713e-05 -10.4441 0)
(-0.0202004 -10.4441 0)
(-3.1294 -10.4441 0)
(-89.3741 -10.4428 0)
(-711.099 -10.4088 0)
(-2350.87 -10.1567 0)
(-4353.08 -9.41854 0)
(-5589.31 -8.19488 0)
(-5897.61 -6.70911 0)
(-5657.01 -5.20484 0)
(-5098.04 -3.86796 0)
(-4342.4 -2.72521 0)
(-4279.1 -1.7968 0)
(33096.9 -0.715383 0)
(-60180.2 -0.877824 0)
(60191.6 -225.679 0)
(-33107.8 -59.074 0)
(4276.84 -74.3188 0)
(4340.39 -85.4534 0)
(5095.62 -97.588 0)
(5653.67 -113.87 0)
(5893.71 -134.514 0)
(5586.17 -156.086 0)
(4351.04 -174.679 0)
(2349.9 -186.478 0)
(710.836 -190.713 0)
(89.3436 -191.316 0)
(3.12829 -191.339 0)
(0.0201925 -191.339 0)
(1.67533e-05 -191.339 0)
(6.2596e-09 -191.339 0)
(4.59232e-09 -191.339 0)
(7.46862e-09 -191.339 0)
(8.80439e-09 -191.339 0)
(5.83059e-09 -191.339 0)
(-2.77879e-09 -191.339 0)
(-1.02084e-08 -191.339 0)
(-9.43815e-09 -191.339 0)
(1.41377e-09 -191.339 0)
(1.19537e-08 -191.339 0)
(-1.67544e-05 -191.339 0)
(-0.0201925 -191.339 0)
(-3.12821 -191.339 0)
(-89.3405 -191.316 0)
(-710.827 -190.714 0)
(-2349.93 -186.438 0)
(-4351.21 -174.433 0)
(-5586.73 -155.214 0)
(-5894.77 -132.236 0)
(-5654.3 -108.638 0)
(-5095.68 -86.7064 0)
(-4340.43 -66.7429 0)
(-4277.18 -50.0535 0)
(33097.8 -25.9227 0)
(-60178.6 -48.808 0)
(60110.4 -648.274 0)
(-33100.1 -254.493 0)
(4239.58 -394.401 0)
(4306.77 -479.835 0)
(5057.42 -583.753 0)
(5613.07 -695.033 0)
(5852.79 -811.605 0)
(5548.8 -925.789 0)
(4323.19 -1024.06 0)
(2335.29 -1087.95 0)
(706.418 -1111.72 0)
(88.7724 -1115.22 0)
(3.10724 -1115.36 0)
(0.0200468 -1115.36 0)
(1.66341e-05 -1115.36 0)
(-8.87264e-10 -1115.36 0)
(-1.01109e-08 -1115.36 0)
(-1.08227e-08 -1115.36 0)
(-8.34613e-09 -1115.36 0)
(-4.29982e-09 -1115.36 0)
(1.63803e-09 -1115.36 0)
(8.22913e-09 -1115.36 0)
(1.16124e-08 -1115.36 0)
(6.01585e-09 -1115.36 0)
(-4.23157e-09 -1115.36 0)
(-1.6634e-05 -1115.36 0)
(-0.0200475 -1115.36 0)
(-3.10728 -1115.36 0)
(-88.7717 -1115.22 0)
(-706.398 -1111.73 0)
(-2335.18 -1087.96 0)
(-4322.99 -1024.01 0)
(-5548.64 -925.527 0)
(-5852.73 -810.789 0)
(-5613.13 -693.322 0)
(-5057.67 -581.791 0)
(-4307.08 -477.545 0)
(-4239.76 -392.09 0)
(33098.1 -252.094 0)
(-60108.2 -636.105 0)
(59321.6 -2940.13 0)
(-32863.2 -970.398 0)
(4059.69 -1283.71 0)
(4157.93 -1475.53 0)
(4888.25 -1719.67 0)
(5434.1 -1982.19 0)
(5671.34 -2257.58 0)
(5381.44 -2530.06 0)
(4194.77 -2770.86 0)
(2265.43 -2933.41 0)
(684.563 -2996.37 0)
(85.8454 -3005.99 0)
(2.99503 -3006.39 0)
(0.0192398 -3006.39 0)
(1.58875e-05 -3006.39 0)
(1.66728e-09 -3006.39 0)
(5.04083e-09 -3006.39 0)
(7.03961e-09 -3006.39 0)
(5.89885e-09 -3006.39 0)
(5.21633e-09 -3006.39 0)
(2.34979e-09 -3006.39 0)
(-1.31627e-09 -3006.39 0)
(-4.15357e-09 -3006.39 0)
(-5.17733e-09 -3006.39 0)
(-5.10908e-09 -3006.39 0)
(-1.58846e-05 -3006.39 0)
(-0.01924 -3006.39 0)
(-2.99505 -3006.39 0)
(-85.8456 -3005.99 0)
(-684.559 -2996.37 0)
(-2265.39 -2933.43 0)
(-4194.68 -2770.97 0)
(-5381.27 -2530.28 0)
(-5671.01 -2257.81 0)
(-5433.63 -1982.36 0)
(-4887.75 -1719.7 0)
(-4157.63 -1475.32 0)
(-4059.92 -1283.35 0)
(32862.6 -970.086 0)
(-59322.7 -2937.75 0)
(56342.1 -6757.64 0)
(-31503.9 -1997.69 0)
(3752.81 -2357.56 0)
(3886.67 -2617.14 0)
(4569.19 -2960.75 0)
(5094.72 -3339.02 0)
(5324.84 -3739.21 0)
(5054.19 -4141.39 0)
(3934.51 -4506.44 0)
(2117.98 -4762.04 0)
(636.472 -4865.19 0)
(79.1242 -4881.56 0)
(2.72675 -4882.25 0)
(0.0172445 -4882.26 0)
(1.39695e-05 -4882.26 0)
(6.92261e-10 -4882.26 0)
(-3.29555e-09 -4882.26 0)
(-4.14382e-09 -4882.26 0)
(-3.42231e-09 -4882.26 0)
(-3.99756e-09 -4882.26 0)
(-3.29555e-09 -4882.26 0)
(-1.46252e-09 -4882.26 0)
(7.89763e-10 -4882.26 0)
(1.17977e-09 -4882.26 0)
(-1.15052e-09 -4882.26 0)
(-1.39672e-05 -4882.26 0)
(-0.0172445 -4882.26 0)
(-2.72675 -4882.25 0)
(-79.1243 -4881.56 0)
(-636.473 -4865.19 0)
(-2117.97 -4762.05 0)
(-3934.5 -4506.47 0)
(-5054.14 -4141.49 0)
(-5324.74 -3739.42 0)
(-5094.59 -3339.45 0)
(-4569.06 -2961.44 0)
(-3886.6 -2618.09 0)
(-3752.9 -2358.56 0)
(31503.9 -1998.4 0)
(-56342.4 -6758.04 0)
(50884.7 -9884.47 0)
(-28623.1 -2721.29 0)
(3462.76 -3006.27 0)
(3576.67 -3284.48 0)
(4192.62 -3645.53 0)
(4683.96 -4060.66 0)
(4898.14 -4503.95 0)
(4642.11 -4957.56 0)
(3596.69 -5377.81 0)
(1919.72 -5681.25 0)
(569.388 -5808.03 0)
(69.4057 -5828.73 0)
(2.32741 -5829.61 0)
(0.0142227 -5829.62 0)
(1.10748e-05 -5829.62 0)
(4.29982e-09 -5829.62 0)
(1.46252e-10 -5829.62 0)
(-6.92261e-10 -5829.62 0)
(-1.95003e-10 -5829.62 0)
(1.21877e-09 -5829.62 0)
(1.90128e-09 -5829.62 0)
(3.0323e-09 -5829.62 0)
(2.86655e-09 -5829.62 0)
(9.16515e-10 -5829.62 0)
(-1.49177e-09 -5829.62 0)
(-1.10706e-05 -5829.62 0)
(-0.0142227 -5829.62 0)
(-2.32741 -5829.61 0)
(-69.4058 -5828.73 0)
(-569.389 -5808.03 0)
(-1919.72 -5681.25 0)
(-3596.69 -5377.81 0)
(-4642.11 -4957.58 0)
(-4898.13 -4504 0)
(-4683.95 -4060.78 0)
(-4192.62 -3645.72 0)
(-3576.67 -3284.74 0)
(-3462.77 -3006.54 0)
(28623.1 -2721.46 0)
(-50884.7 -9884.68 0)
(44194.7 -10774.3 0)
(-24875.8 -2902.79 0)
(3210.11 -3154.62 0)
(3270.65 -3425.56 0)
(3821.24 -3773.19 0)
(4267.52 -4169.5 0)
(4460.54 -4607.45 0)
(4212.11 -5059.29 0)
(3237.14 -5485.31 0)
(1703.4 -5799.62 0)
(494.358 -5933.64 0)
(58.3255 -5955.7 0)
(1.8694 -5956.63 0)
(0.0107939 -5956.64 0)
(7.86188e-06 -5956.64 0)
(-1.56978e-09 -5956.64 0)
(-2.43754e-09 -5956.64 0)
(-5.65509e-10 -5956.64 0)
(3.41256e-10 -5956.64 0)
(-3.60756e-10 -5956.64 0)
(1.95003e-11 -5956.64 0)
(-9.65266e-10 -5956.64 0)
(-7.80013e-11 -5956.64 0)
(9.94516e-10 -5956.64 0)
(-6.4351e-10 -5956.64 0)
(-7.86069e-06 -5956.64 0)
(-0.010794 -5956.64 0)
(-1.8694 -5956.63 0)
(-58.3255 -5955.7 0)
(-494.358 -5933.64 0)
(-1703.4 -5799.62 0)
(-3237.14 -5485.3 0)
(-4212.11 -5059.29 0)
(-4460.55 -4607.45 0)
(-4267.52 -4169.51 0)
(-3821.25 -3773.2 0)
(-3270.66 -3425.58 0)
(-3210.1 -3154.64 0)
(24875.8 -2902.79 0)
(-44194.7 -10774.3 0)
(37704.9 -10604.5 0)
(-21280.5 -2713.51 0)
(2959 -2981.64 0)
(2980.59 -3257.89 0)
(3475.74 -3564.22 0)
(3880.03 -3941.79 0)
(4040.71 -4344.04 0)
(3796.18 -4770.49 0)
(2883.28 -5177.32 0)
(1487.69 -5481.88 0)
(418.986 -5612.06 0)
(47.2531 -5633.12 0)
(1.42273 -5633.98 0)
(0.00759456 -5633.98 0)
(5.0487e-06 -5633.98 0)
(7.60512e-10 -5633.98 0)
(-2.82755e-10 -5633.98 0)
(3.51006e-10 -5633.98 0)
(5.07008e-10 -5633.98 0)
(3.60756e-10 -5633.98 0)
(3.80256e-10 -5633.98 0)
(-2.43754e-10 -5633.98 0)
(6.82511e-10 -5633.98 0)
(1.53077e-09 -5633.98 0)
(4.87508e-11 -5633.98 0)
(-5.04408e-06 -5633.98 0)
(-0.00759457 -5633.98 0)
(-1.42273 -5633.98 0)
(-47.2531 -5633.12 0)
(-418.986 -5612.06 0)
(-1487.69 -5481.88 0)
(-2883.28 -5177.32 0)
(-3796.18 -4770.49 0)
(-4040.71 -4344.04 0)
(-3880.03 -3941.79 0)
(-3475.74 -3564.21 0)
(-2980.59 -3257.87 0)
(-2959 -2981.63 0)
(21280.5 -2713.5 0)
(-37704.9 -10604.5 0)
(31360.9 -9097.61 0)
(-17530.1 -2374.17 0)
(2685.52 -2665.36 0)
(2709.26 -2914.79 0)
(3162.2 -3174.26 0)
(3516.04 -3503.74 0)
(3661.98 -3862.25 0)
(3409.13 -4241.86 0)
(2551.62 -4612.74 0)
(1284.47 -4896.5 0)
(348.613 -5017.77 0)
(37.2044 -5036.76 0)
(1.03811 -5037.49 0)
(0.00503776 -5037.49 0)
(2.99254e-06 -5037.49 0)
(8.87264e-10 -5037.49 0)
(-5.75259e-10 -5037.49 0)
(-5.46009e-10 -5037.49 0)
(4.87508e-11 -5037.49 0)
(6.2401e-10 -5037.49 0)
(2.43754e-10 -5037.49 0)
(-9.75016e-12 -5037.49 0)
(1.95003e-10 -5037.49 0)
(0 -5037.49 0)
(-1.85253e-10 -5037.49 0)
(-2.99199e-06 -5037.49 0)
(-0.00503777 -5037.49 0)
(-1.03811 -5037.49 0)
(-37.2044 -5036.76 0)
(-348.613 -5017.77 0)
(-1284.47 -4896.5 0)
(-2551.62 -4612.74 0)
(-3409.13 -4241.86 0)
(-3661.98 -3862.25 0)
(-3516.04 -3503.73 0)
(-3162.2 -3174.25 0)
(-2709.26 -2914.78 0)
(-2685.52 -2665.35 0)
(17530.1 -2374.17 0)
(-31360.9 -9097.61 0)
(26650.3 -7374.09 0)
(-15082.2 -1953.96 0)
(2438.04 -2294.53 0)
(2490.2 -2477.56 0)
(2908.21 -2711.03 0)
(3217.06 -2997 0)
(3329.42 -3297.48 0)
(3072.98 -3609.02 0)
(2252.45 -3914.98 0)
(1097.39 -4156.13 0)
(283.827 -4261.29 0)
(28.2506 -4277.5 0)
(0.718083 -4278.08 0)
(0.00310862 -4278.09 0)
(1.61896e-06 -4278.09 0)
(1.47715e-09 -4278.09 0)
(-1.10664e-09 -4278.09 0)
(-1.75503e-10 -4278.09 0)
(3.41256e-10 -4278.09 0)
(-9.75016e-12 -4278.09 0)
(3.02255e-10 -4278.09 0)
(-4.87508e-12 -4278.09 0)
(5.55759e-10 -4278.09 0)
(1.70628e-10 -4278.09 0)
(-6.1426e-10 -4278.09 0)
(-1.61701e-06 -4278.09 0)
(-0.00310862 -4278.09 0)
(-0.718083 -4278.08 0)
(-28.2506 -4277.5 0)
(-283.827 -4261.29 0)
(-1097.39 -4156.13 0)
(-2252.45 -3914.98 0)
(-3072.98 -3609.02 0)
(-3329.42 -3297.48 0)
(-3217.06 -2997 0)
(-2908.21 -2711.03 0)
(-2490.2 -2477.56 0)
(-2438.04 -2294.53 0)
(15082.2 -1953.96 0)
(-26650.3 -7374.09 0)
(22372.1 -6473.3 0)
(-12635.3 -1950.22 0)
(2180.96 -2203.51 0)
(2307.92 -2478.25 0)
(2661.66 -2735.35 0)
(2950.92 -3001.54 0)
(3072.22 -3244.78 0)
(2814.09 -3502.83 0)
(2024.4 -3812.03 0)
(950.746 -4103.8 0)
(231.659 -4233.81 0)
(21.025 -4251.99 0)
(0.470414 -4252.55 0)
(0.00173932 -4252.56 0)
(7.56208e-07 -4252.56 0)
(1.76965e-09 -4252.56 0)
(-9.55515e-10 -4252.56 0)
(1.95003e-10 -4252.56 0)
(-2.34004e-10 -4252.56 0)
(3.46131e-10 -4252.56 0)
(5.11883e-10 -4252.56 0)
(2.43754e-11 -4252.56 0)
(9.45765e-10 -4252.56 0)
(1.12127e-10 -4252.56 0)
(5.80134e-10 -4252.56 0)
(-7.55788e-07 -4252.56 0)
(-0.00173933 -4252.56 0)
(-0.470414 -4252.55 0)
(-21.025 -4251.99 0)
(-231.659 -4233.81 0)
(-950.746 -4103.8 0)
(-2024.4 -3812.03 0)
(-2814.09 -3502.83 0)
(-3072.22 -3244.78 0)
(-2950.92 -3001.54 0)
(-2661.66 -2735.35 0)
(-2307.92 -2478.25 0)
(-2180.96 -2203.51 0)
(12635.3 -1950.22 0)
(-22372.1 -6473.3 0)
(18533.1 51195.5 0)
(-10967.6 11817.7 0)
(1929.21 13607.7 0)
(1977.69 16412.9 0)
(2403.94 19159.7 0)
(2726.15 23308.8 0)
(2846.36 27304.1 0)
(2526.36 31249.1 0)
(1673.32 33993.4 0)
(690.943 35034.1 0)
(141.023 35152.4 0)
(10.1858 35149.3 0)
(0.174844 35149 0)
(0.000487581 35149 0)
(1.56812e-07 35149 0)
(-1.7404e-09 35149 0)
(-9.75016e-11 35149 0)
(-3.41256e-11 35149 0)
(1.46252e-10 35149 0)
(9.45765e-10 35149 0)
(5.07008e-10 35149 0)
(1.46252e-11 35149 0)
(1.46252e-11 35149 0)
(8.19013e-10 35149 0)
(4.04632e-10 35149 0)
(-1.58425e-07 35149 0)
(-0.000487582 35149 0)
(-0.174844 35149 0)
(-10.1858 35149.3 0)
(-141.023 35152.4 0)
(-690.943 35034.1 0)
(-1673.32 33993.4 0)
(-2526.36 31249.1 0)
(-2846.36 27304.1 0)
(-2726.15 23308.8 0)
(-2403.94 19159.7 0)
(-1977.69 16412.9 0)
(-1929.21 13607.7 0)
(10967.6 11817.7 0)
(-18533.1 51195.5 0)
(83094 -85802.7 0)
(-48856.2 -19659.4 0)
(6608.98 -23721.4 0)
(7658.03 -28519.7 0)
(9306.81 -33720.7 0)
(10799.1 -40672.4 0)
(10723.8 -47756.3 0)
(9260.16 -54754.7 0)
(5671.68 -59987.6 0)
(2067.57 -62376.9 0)
(342.741 -62850.2 0)
(17.8216 -62878.9 0)
(0.191925 -62879.3 0)
(0.000290575 -62879.3 0)
(4.27642e-08 -62879.3 0)
(4.62157e-09 -62879.3 0)
(1.24802e-09 -62879.3 0)
(4.09507e-10 -62879.3 0)
(2.63254e-09 -62879.3 0)
(1.54052e-09 -62879.3 0)
(2.47654e-09 -62879.3 0)
(-1.28702e-09 -62879.3 0)
(7.60512e-10 -62879.3 0)
(2.94455e-09 -62879.3 0)
(-4.87508e-09 -62879.3 0)
(-4.09507e-08 -62879.3 0)
(-0.000290596 -62879.3 0)
(-0.191925 -62879.3 0)
(-17.8216 -62878.9 0)
(-342.741 -62850.2 0)
(-2067.57 -62376.9 0)
(-5671.68 -59987.6 0)
(-9260.16 -54754.7 0)
(-10723.8 -47756.3 0)
(-10799.1 -40672.4 0)
(-9306.81 -33720.7 0)
(-7658.03 -28519.7 0)
(-6608.98 -23721.4 0)
(48856.2 -19659.4 0)
(-83094 -85802.7 0)
(83094 85802.7 0)
(-48856.2 19659.4 0)
(6608.98 23721.4 0)
(7658.03 28519.7 0)
(9306.81 33720.7 0)
(10799.1 40672.4 0)
(10723.8 47756.3 0)
(9260.16 54754.7 0)
(5671.68 59987.6 0)
(2067.57 62376.9 0)
(342.741 62850.2 0)
(17.8216 62878.9 0)
(0.191925 62879.3 0)
(0.000290595 62879.3 0)
(4.15747e-08 62879.3 0)
(1.26752e-09 62879.3 0)
(-7.19562e-09 62879.3 0)
(-4.34857e-09 62879.3 0)
(-4.60207e-09 62879.3 0)
(-2.94455e-09 62879.3 0)
(-1.28702e-09 62879.3 0)
(-5.26509e-10 62879.3 0)
(1.11152e-09 62879.3 0)
(-2.53504e-10 62879.3 0)
(9.16515e-10 62879.3 0)
(-4.07752e-08 62879.3 0)
(-0.000290576 62879.3 0)
(-0.191925 62879.3 0)
(-17.8216 62878.9 0)
(-342.741 62850.2 0)
(-2067.57 62376.9 0)
(-5671.68 59987.6 0)
(-9260.16 54754.7 0)
(-10723.8 47756.3 0)
(-10799.1 40672.4 0)
(-9306.81 33720.7 0)
(-7658.03 28519.7 0)
(-6608.98 23721.4 0)
(48856.2 19659.4 0)
(-83094 85802.7 0)
(18533.1 -51195.5 0)
(-10967.6 -11817.7 0)
(1929.21 -13607.7 0)
(1977.69 -16412.9 0)
(2403.94 -19159.7 0)
(2726.15 -23308.8 0)
(2846.36 -27304.1 0)
(2526.36 -31249.1 0)
(1673.32 -33993.4 0)
(690.943 -35034.1 0)
(141.023 -35152.4 0)
(10.1858 -35149.3 0)
(0.174844 -35149 0)
(0.000487585 -35149 0)
(1.56134e-07 -35149 0)
(-1.73553e-09 -35149 0)
(2.77879e-10 -35149 0)
(9.26265e-10 -35149 0)
(2.77879e-10 -35149 0)
(5.50884e-10 -35149 0)
(-3.51006e-10 -35149 0)
(-1.13589e-09 -35149 0)
(-3.51006e-10 -35149 0)
(7.02011e-10 -35149 0)
(9.3114e-10 -35149 0)
(-1.58869e-07 -35149 0)
(-0.000487582 -35149 0)
(-0.174844 -35149 0)
(-10.1858 -35149.3 0)
(-141.023 -35152.4 0)
(-690.943 -35034.1 0)
(-1673.32 -33993.4 0)
(-2526.36 -31249.1 0)
(-2846.36 -27304.1 0)
(-2726.15 -23308.8 0)
(-2403.94 -19159.7 0)
(-1977.69 -16412.9 0)
(-1929.21 -13607.7 0)
(10967.6 -11817.7 0)
(-18533.1 -51195.5 0)
(22372.1 6473.3 0)
(-12635.3 1950.22 0)
(2180.96 2203.51 0)
(2307.92 2478.25 0)
(2661.66 2735.35 0)
(2950.92 3001.54 0)
(3072.22 3244.78 0)
(2814.09 3502.83 0)
(2024.4 3812.03 0)
(950.746 4103.8 0)
(231.659 4233.81 0)
(21.025 4251.99 0)
(0.470414 4252.55 0)
(0.00173933 4252.56 0)
(7.54087e-07 4252.56 0)
(8.19013e-10 4252.56 0)
(-9.65266e-10 4252.56 0)
(5.80134e-10 4252.56 0)
(-5.55759e-10 4252.56 0)
(2.92505e-11 4252.56 0)
(9.75016e-12 4252.56 0)
(-4.48507e-10 4252.56 0)
(1.02377e-09 4252.56 0)
(-9.75016e-11 4252.56 0)
(-4.48507e-10 4252.56 0)
(-7.55228e-07 4252.56 0)
(-0.00173933 4252.56 0)
(-0.470414 4252.55 0)
(-21.025 4251.99 0)
(-231.659 4233.81 0)
(-950.746 4103.8 0)
(-2024.4 3812.03 0)
(-2814.09 3502.83 0)
(-3072.22 3244.78 0)
(-2950.92 3001.54 0)
(-2661.66 2735.35 0)
(-2307.92 2478.25 0)
(-2180.96 2203.51 0)
(12635.3 1950.22 0)
(-22372.1 6473.3 0)
(26650.3 7374.09 0)
(-15082.2 1953.96 0)
(2438.04 2294.53 0)
(2490.2 2477.56 0)
(2908.21 2711.03 0)
(3217.06 2997 0)
(3329.42 3297.48 0)
(3072.98 3609.02 0)
(2252.45 3914.98 0)
(1097.39 4156.13 0)
(283.827 4261.29 0)
(28.2506 4277.5 0)
(0.718083 4278.08 0)
(0.00310863 4278.09 0)
(1.61644e-06 4278.09 0)
(9.99391e-10 4278.09 0)
(-1.05302e-09 4278.09 0)
(3.85131e-10 4278.09 0)
(-4.58257e-10 4278.09 0)
(2.43754e-11 4278.09 0)
(-2.29129e-10 4278.09 0)
(-7.02011e-10 4278.09 0)
(1.16514e-09 4278.09 0)
(4.09507e-10 4278.09 0)
(3.02255e-10 4278.09 0)
(-1.61828e-06 4278.09 0)
(-0.00310862 4278.09 0)
(-0.718083 4278.08 0)
(-28.2506 4277.5 0)
(-283.827 4261.29 0)
(-1097.39 4156.13 0)
(-2252.45 3914.98 0)
(-3072.98 3609.02 0)
(-3329.42 3297.48 0)
(-3217.06 2997 0)
(-2908.21 2711.03 0)
(-2490.2 2477.56 0)
(-2438.04 2294.53 0)
(15082.2 1953.96 0)
(-26650.3 7374.09 0)
(31360.9 9097.61 0)
(-17530.1 2374.17 0)
(2685.52 2665.36 0)
(2709.26 2914.79 0)
(3162.2 3174.26 0)
(3516.04 3503.74 0)
(3661.98 3862.25 0)
(3409.13 4241.86 0)
(2551.62 4612.74 0)
(1284.47 4896.5 0)
(348.613 5017.77 0)
(37.2044 5036.76 0)
(1.03811 5037.49 0)
(0.00503777 5037.49 0)
(2.99107e-06 5037.49 0)
(1.01402e-09 5037.49 0)
(-1.44302e-09 5037.49 0)
(-1.37477e-09 5037.49 0)
(-7.89763e-10 5037.49 0)
(4.87508e-11 5037.49 0)
(2.92505e-10 5037.49 0)
(6.3376e-10 5037.49 0)
(8.77514e-11 5037.49 0)
(3.70506e-10 5037.49 0)
(-9.75016e-12 5037.49 0)
(-2.99152e-06 5037.49 0)
(-0.00503777 5037.49 0)
(-1.03811 5037.49 0)
(-37.2044 5036.76 0)
(-348.613 5017.77 0)
(-1284.47 4896.5 0)
(-2551.62 4612.74 0)
(-3409.13 4241.86 0)
(-3661.98 3862.25 0)