/*--------------------------------*- C++ -*----------------------------------*\
| =========                 |                                                 |
| \\      /  F ield         | OpenFOAM: The Open Source CFD Toolbox           |
|  \\    /   O peration     | Version:  v1912                                 |
|   \\  /    A nd           | Website:  www.openfoam.com                      |
|    \\/     M anipulation  |                                                 |
\*---------------------------------------------------------------------------*/
FoamFile
{
    version     2.0;
    format      ascii;
    class       volTensorField;
    location    "1.06";
    object      grad(U);
}
// * * * * * * * * * * * * * * * * * * * * * * * * * * * * * * * * * * * * * //

dimensions      [0 0 -1 0 0 0 0];


internalField   nonuniform List<tensor> 
1900
(
(9.62104e-07 5.56511e-10 0 4.5381e-10 9.03422e-10 0 0 0 0)
(9.69248e-07 -1.76331e-09 0 -2.80644e-09 -2.49345e-10 0 0 0 0)
(4.68524e-07 -5.51016e-09 0 -5.8301e-09 -7.34854e-09 0 0 0 0)
(-4.08236e-05 -5.42763e-08 0 -8.3826e-09 -1.78813e-08 0 0 0 0)
(-0.00197597 -4.5469e-06 0 -2.58807e-08 -3.15776e-07 0 0 0 0)
(-0.0216475 -0.000119542 0 -2.36895e-06 -2.23945e-05 0 0 0 0)
(-0.0804048 -0.00137107 0 -0.000145823 -0.000465763 0 0 0 0)
(-0.137457 -0.00608598 0 -0.00207841 -0.00401468 0 0 0 0)
(-0.107066 -0.0294399 0 -0.0100205 -0.0162946 0 0 0 0)
(-0.0689152 -0.101805 0 -0.0440262 -0.0602659 0 0 0 0)
(9.59752e-07 9.75665e-11 0 7.88964e-10 -2.67076e-10 0 0 0 0)
(9.62964e-07 -6.48865e-09 0 -4.872e-09 -2.89734e-10 0 0 0 0)
(4.62947e-07 -1.21218e-08 0 -1.01764e-08 1.49623e-09 0 0 0 0)
(-4.08436e-05 -2.54151e-07 0 -1.71167e-08 5.22039e-09 0 0 0 0)
(-0.00197833 -1.78297e-05 0 -1.04738e-06 5.57726e-08 0 0 0 0)
(-0.0217933 -0.000345906 0 -5.11539e-05 4.55212e-06 0 0 0 0)
(-0.0824808 -0.00262121 0 -0.000644984 0.000119598 0 0 0 0)
(-0.147332 -0.00974281 0 -0.00386454 0.00137562 0 0 0 0)
(-0.149014 -0.0268113 0 -0.0142708 0.00620558 0 0 0 0)
(-0.128921 -0.0745721 0 -0.0545819 0.0308155 0 0 0 0)
(9.58021e-07 -2.99899e-13 0 -3.42548e-13 -1.27389e-09 0 0 0 0)
(9.58283e-07 -3.51405e-15 0 1.04218e-13 1.07791e-09 0 0 0 0)
(4.56279e-07 -3.18677e-14 0 8.1389e-14 1.17036e-08 0 0 0 0)
(-4.18608e-05 3.67613e-14 0 6.20608e-14 2.53214e-08 0 0 0 0)
(-0.00202711 8.51472e-14 0 -2.46129e-14 5.20007e-07 0 0 0 0)
(-0.0222915 2.427e-13 0 3.12256e-13 3.56847e-05 0 0 0 0)
(-0.0842182 -1.23926e-13 0 2.56312e-14 0.000692331 0 0 0 0)
(-0.151083 -1.0948e-13 0 -1.44538e-13 0.00527811 0 0 0 0)
(-0.157783 5.44514e-14 0 -1.87025e-14 0.0201779 0 0 0 0)
(-0.145923 5.87831e-14 0 1.22447e-13 0.0589006 0 0 0 0)
(9.59752e-07 -9.84088e-11 0 -7.89737e-10 -2.66955e-10 0 0 0 0)
(9.62965e-07 6.48886e-09 0 4.87218e-09 -2.89676e-10 0 0 0 0)
(4.62947e-07 1.21217e-08 0 1.01765e-08 1.49635e-09 0 0 0 0)
(-4.08436e-05 2.54152e-07 0 1.71168e-08 5.22047e-09 0 0 0 0)
(-0.00197833 1.78297e-05 0 1.04738e-06 5.57728e-08 0 0 0 0)
(-0.0217933 0.000345906 0 5.11539e-05 4.55212e-06 0 0 0 0)
(-0.0824808 0.00262121 0 0.000644984 0.000119598 0 0 0 0)
(-0.147332 0.00974281 0 0.00386454 0.00137562 0 0 0 0)
(-0.149014 0.0268113 0 0.0142708 0.00620558 0 0 0 0)
(-0.128921 0.0745721 0 0.0545819 0.0308155 0 0 0 0)
(9.62104e-07 -5.56931e-10 0 -4.5424e-10 9.04497e-10 0 0 0 0)
(9.69249e-07 1.7633e-09 0 2.80651e-09 -2.49157e-10 0 0 0 0)
(4.68523e-07 5.51011e-09 0 5.83013e-09 -7.34766e-09 0 0 0 0)
(-4.08236e-05 5.42765e-08 0 8.38261e-09 -1.78809e-08 0 0 0 0)
(-0.00197597 4.5469e-06 0 2.58806e-08 -3.15776e-07 0 0 0 0)
(-0.0216475 0.000119542 0 2.36895e-06 -2.23945e-05 0 0 0 0)
(-0.0804048 0.00137107 0 0.000145823 -0.000465763 0 0 0 0)
(-0.137457 0.00608598 0 0.00207841 -0.00401468 0 0 0 0)
(-0.107066 0.0294399 0 0.0100205 -0.0162946 0 0 0 0)
(-0.0689152 0.101805 0 0.0440262 -0.0602659 0 0 0 0)
(-0.102041 -0.207997 9.92952e-18 -0.125168 0.102818 -1.48943e-17 -2.69375e-17 -3.47872e-17 2.6914e-33)
(-0.161711 -0.281848 0 -0.146237 0.178573 0 7.71471e-17 2.64889e-17 0)
(-0.181501 -0.33185 0 -0.189189 0.213266 0 1.2086e-16 4.99093e-17 0)
(-0.452872 -0.266754 0 -0.409304 0.344932 0 0 0 0)
(0.0482873 -0.690001 -1.62321e-16 -1.36689 1.60947 2.43482e-16 8.36101e-16 5.57401e-16 4.39973e-32)
(-0.138049 -0.104364 0 -0.0908916 0.0998916 0 -4.95553e-17 -1.62079e-17 0)
(-0.225101 -0.131872 0 -0.0851459 0.174046 0 -7.71471e-17 -2.64889e-17 0)
(-0.359618 -0.221797 0 -0.164932 0.333795 0 -1.2086e-16 -4.99093e-17 0)
(-0.616665 -0.207345 0 -0.394832 0.600231 0 0 0 0)
(-0.422823 0.0328515 0 -0.563436 0.868616 0 0 0 0)
(-0.170281 -9.63845e-15 0 7.35323e-14 0.158997 0 0 0 0)
(-0.255896 1.82091e-13 0 3.34355e-14 0.23827 0 0 0 0)
(-0.439467 1.6263e-13 0 1.62066e-13 0.437209 0 0 0 0)
(-0.736427 -1.39825e-13 0 -1.24745e-13 0.814098 0 0 0 0)
(-0.566255 4.30167e-14 0 -7.7443e-14 1.21316 0 0 0 0)
(-0.138049 0.104364 0 0.0908916 0.0998916 0 -4.95553e-17 1.62079e-17 0)
(-0.225101 0.131872 0 0.0851459 0.174046 0 -7.71471e-17 2.64889e-17 0)
(-0.359618 0.221797 0 0.164932 0.333795 0 -1.2086e-16 4.99093e-17 0)
(-0.616665 0.207345 0 0.394832 0.600231 0 0 0 0)
(-0.422823 -0.0328515 0 0.563436 0.868616 0 0 0 0)
(-0.102041 0.207997 -9.92952e-18 0.125168 0.102818 -1.48943e-17 1.26048e-16 -6.72031e-17 2.6914e-33)
(-0.161711 0.281848 0 0.146237 0.178573 0 7.71471e-17 -2.64889e-17 0)
(-0.181501 0.33185 0 0.189189 0.213266 0 1.2086e-16 -4.99093e-17 0)
(-0.452872 0.266754 -1.82808e-17 0.409304 0.344932 -2.74212e-17 3.66518e-16 -2.44345e-16 4.95502e-33)
(0.0482873 0.690001 1.62321e-16 1.36689 1.60947 2.43482e-16 -8.36101e-16 5.57401e-16 4.39973e-32)
(0.0353066 0.285394 2.07804e-18 -0.175289 -0.617133 1.87024e-17 -5.00196e-16 3.64048e-17 -5.63255e-34)
(0.292307 0.0118709 -6.29886e-19 -0.160693 -0.257228 -5.66898e-18 3.42074e-16 -2.97237e-17 -1.70731e-34)
(0.12955 0.0950996 0 0.0168532 -0.102424 0 0 0 0)
(-0.325837 0.3681 -1.51927e-18 0.46908 0.394528 -1.36734e-17 -2.05591e-16 3.6295e-17 4.11799e-34)
(-1.06364 0.288826 4.28394e-18 1.88122 1.47083 3.85554e-17 1.53784e-16 -1.70872e-17 1.16116e-33)
(0.153374 0.243187 0 -0.187901 -0.145982 0 2.52738e-16 -8.90937e-18 0)
(0.329022 0.00377805 0 -0.198161 -0.216927 0 -1.73457e-16 1.09884e-17 0)
(0.333724 0.0925853 0 0.0505735 -0.221623 0 0 0 0)
(0.418538 0.419379 0 0.675165 -0.429662 0 1.14581e-16 -2.68756e-17 0)
(0.947262 0.266041 0 2.70043 -0.923782 0 -3.95002e-18 8.39061e-18 0)
(0.172084 4.30395e-14 0 -1.3005e-13 -0.299692 0 0 0 0)
(0.368509 -8.86398e-15 0 -2.20084e-13 -0.295866 0 0 0 0)
(0.449511 1.58517e-13 0 1.06412e-13 -0.289923 0 0 0 0)
(0.800695 2.73941e-13 0 6.47067e-13 -0.74035 0 -3.76991e-17 1.60413e-29 0)
(1.4166 2.4738e-13 0 1.59807e-12 -2.22882 0 7.90005e-18 -2.16827e-29 0)
(0.153374 -0.243187 0 0.187901 -0.145982 0 2.52738e-16 8.90937e-18 0)
(0.329022 -0.00377805 0 0.198161 -0.216927 0 -1.73457e-16 -1.09884e-17 0)
(0.333724 -0.0925853 0 -0.0505735 -0.221623 0 0 0 0)
(0.418538 -0.419379 0 -0.675165 -0.429662 0 1.14581e-16 2.68756e-17 0)
(0.947262 -0.266041 0 -2.70043 -0.923782 0 -3.95002e-18 -8.39061e-18 0)
(0.0353066 -0.285394 0 0.175289 -0.617133 0 -2.52738e-16 -8.90937e-18 0)
(0.292307 -0.0118709 6.29886e-19 0.160693 -0.257228 -5.66898e-18 4.83953e-18 -7.74686e-18 -1.70731e-34)
(0.12955 -0.0950996 0 -0.0168532 -0.102424 0 0 0 0)
(-0.325837 -0.3681 1.51927e-18 -0.46908 0.394528 -1.36734e-17 1.41271e-17 -1.18819e-17 4.11799e-34)
(-1.06364 -0.288826 -4.28394e-18 -1.88122 1.47083 3.85554e-17 -1.53784e-16 -1.70872e-17 1.16116e-33)
(0.117432 -0.772962 0 9.35809 0.0423742 0 0 0 0)
(0.66703 -0.663537 0 4.36416 0.618913 0 0 0 0)
(-0.468116 0.312968 0 1.82565 0.69337 0 0 0 0)
(-0.205359 0.412465 0 0.491106 0.405224 0 0 0 0)
(0.158602 0.173092 0 0.062298 0.172331 0 0 0 0)
(0.353423 0.0570903 0 -0.00681034 0.0648093 0 0 0 0)
(0.400998 0.0130687 0 -0.00170113 0.0330662 0 0 0 0)
(0.38279 0.00519713 0 0.00544536 0.0155903 0 0 0 0)
(0.287973 0.00323177 0 0.00478257 0.00576834 0 0 0 0)
(0.149809 0.00165022 0 0.00191747 0.00137906 0 0 0 0)
(0.0439385 0.000480462 0 0.000302539 0.000145425 0 0 0 0)
(0.00538619 5.467e-05 0 1.2259e-05 4.31201e-06 0 0 0 0)
(0.000184057 1.6099e-06 0 8.25819e-08 2.35596e-08 0 0 0 0)
(1.15838e-06 7.96466e-09 0 6.30333e-11 1.61191e-11 0 0 0 0)
(9.38088e-10 4.31549e-12 0 -1.08006e-14 -7.47e-15 0 0 0 0)
(6.57779e-14 -5.46789e-15 0 6.09684e-16 2.46236e-15 0 0 0 0)
(-1.0434e-15 1.93784e-16 0 5.85713e-16 1.85322e-15 0 0 0 0)
(-5.30891e-16 9.9828e-16 0 -3.54693e-16 2.61958e-15 0 0 0 0)
(3.54172e-16 2.39084e-16 0 -1.29107e-15 5.98867e-15 0 0 0 0)
(6.17131e-16 -4.47967e-16 0 1.29283e-16 4.36498e-15 0 0 0 0)
(1.30676e-16 -3.05356e-16 0 5.01702e-16 2.08352e-15 0 0 0 0)
(-2.89565e-16 3.14584e-16 0 1.3017e-15 5.03384e-15 0 0 0 0)
(-9.92396e-16 2.718e-15 0 1.37638e-16 4.0643e-15 0 0 0 0)
(-1.4072e-16 -6.69435e-16 0 -2.34459e-15 7.30942e-15 0 0 0 0)
(8.70344e-14 -2.12826e-15 0 -2.58261e-15 6.05636e-15 0 0 0 0)
(1.19769e-09 -1.43398e-13 0 9.31371e-16 -1.02964e-15 0 0 0 0)
(1.4429e-06 4.7102e-14 0 -2.90874e-13 -3.58255e-13 0 0 0 0)
(0.000223534 5.71266e-13 0 4.37118e-13 9.19158e-14 0 0 0 0)
(0.00638898 -4.83642e-13 0 4.71236e-13 2.27315e-13 0 0 0 0)
(0.0511662 -1.63565e-13 0 -1.11751e-12 3.19815e-13 0 0 0 0)
(0.172714 1.00207e-13 0 2.50783e-13 -1.9393e-13 0 0 0 0)
(0.333123 2.48897e-13 0 -4.87891e-14 1.10275e-13 0 0 0 0)
(0.455794 -5.97111e-14 0 9.11715e-14 -4.55036e-13 0 0 0 0)
(0.521866 -3.17581e-13 0 -1.36511e-13 3.2432e-13 0 0 0 0)
(0.549492 3.47485e-13 0 7.39229e-14 -2.86161e-14 0 0 0 0)
(0.542702 -5.78076e-14 0 1.30104e-13 6.10594e-14 0 0 0 0)
(0.491921 1.26777e-13 0 -7.88511e-15 -2.79398e-15 0 0 0 0)
(0.521435 -2.36688e-14 0 -1.06449e-13 -2.73174e-13 0 0 0 0)
(2.63294 -7.77172e-14 0 4.92819e-14 -4.0237e-13 0 0 0 0)
(2.33874 -1.13427e-13 0 2.56266e-13 -1.15938e-13 0 0 0 0)
(0.707856 -0.669166 0 7.24892 -0.643085 0 0 0 0)
(-0.622995 -0.584998 0 3.85168 1.72852 0 0 0 0)
(-1.20856 0.246996 0 1.63411 1.63782 0 0 0 0)
(-0.540556 0.276696 0 0.363559 0.652693 0 0 0 0)
(0.0738221 0.0984442 0 0.0223623 0.219974 0 0 0 0)
(0.344981 0.0298603 0 -0.022158 0.05769 0 0 0 0)
(0.405698 0.00699592 0 -0.00853838 0.0237257 0 0 0 0)
(0.384927 0.00219446 0 0.00154832 0.0127663 0 0 0 0)
(0.287806 0.00142655 0 0.00222437 0.0058606 0 0 0 0)
(0.149362 0.000814274 0 0.000908146 0.00165712 0 0 0 0)
(0.0437492 0.000242063 0 0.000146855 0.000187956 0 0 0 0)
(0.00535557 2.77633e-05 0 5.97892e-06 5.53403e-06 0 0 0 0)
(0.000182808 8.17108e-07 0 3.85473e-08 2.73781e-08 0 0 0 0)
(1.15026e-06 3.90728e-09 0 2.5597e-11 1.5109e-11 0 0 0 0)
(9.32595e-10 1.96708e-12 0 1.69248e-15 -3.55876e-14 0 0 0 0)
(6.9856e-14 7.6339e-17 0 3.66102e-16 2.16565e-15 0 0 0 0)
(-9.68069e-16 2.12239e-16 0 4.22004e-16 1.11022e-15 0 0 0 0)
(-8.44043e-16 1.43954e-15 0 8.14172e-16 2.00993e-15 0 0 0 0)
(3.30712e-16 5.76318e-16 0 4.43541e-16 2.58667e-15 0 0 0 0)
(8.65848e-16 -1.0419e-15 0 -1.14301e-15 4.30534e-15 0 0 0 0)
(4.1114e-16 4.06023e-16 0 2.39946e-16 2.13969e-15 0 0 0 0)
(-2.61183e-16 1.07881e-15 0 9.66715e-16 8.61645e-15 0 0 0 0)
(-1.71363e-15 1.92861e-15 0 1.13589e-16 5.78756e-15 0 0 0 0)
(-8.66687e-16 -5.03334e-17 0 -9.06615e-16 -2.10509e-16 0 0 0 0)
(8.76604e-14 -3.4814e-15 0 -3.64899e-15 8.41748e-15 0 0 0 0)
(1.19762e-09 -1.74217e-13 0 -2.46187e-15 3.03364e-15 0 0 0 0)
(1.4429e-06 6.01887e-14 0 -3.58624e-13 8.47227e-14 0 0 0 0)
(0.000223534 6.16325e-13 0 5.54205e-13 2.95356e-13 0 0 0 0)
(0.00638898 -4.50138e-13 0 4.85254e-13 -2.51926e-13 0 0 0 0)
(0.0511662 -2.7421e-13 0 -1.1347e-12 5.55453e-13 0 0 0 0)
(0.172714 8.56804e-14 0 2.08339e-13 -7.61696e-13 0 0 0 0)
(0.333123 2.75167e-13 0 1.10884e-14 3.60557e-13 0 0 0 0)
(0.455794 -1.74737e-14 0 1.29611e-13 -4.00672e-13 0 0 0 0)
(0.521866 -2.67788e-13 0 -1.4341e-13 4.72606e-13 0 0 0 0)
(0.549492 2.71982e-13 0 9.46213e-14 -3.95495e-13 0 0 0 0)
(0.542702 -7.90792e-14 0 1.1532e-13 1.78884e-13 0 0 0 0)
(0.491921 8.14397e-14 0 -1.57702e-14 -2.40593e-13 0 0 0 0)
(0.521435 -1.47558e-13 0 -7.29372e-14 -3.12376e-13 0 0 0 0)
(2.63294 -1.03244e-13 0 -8.87075e-14 -5.73801e-13 0 0 0 0)
(2.33874 -2.20981e-14 0 4.33681e-14 -4.81913e-13 0 0 0 0)
(0.787603 -3.0683e-14 0 2.17481e-12 -1.89341 0 0 0 0)
(-0.966372 -2.90231e-13 0 1.21234e-12 2.43448 0 0 0 0)
(-1.48284 -1.08821e-13 0 7.17791e-13 2.12845 0 0 0 0)
(-0.67423 3.08576e-14 0 7.49085e-14 0.736378 0 0 0 0)
(0.0463931 -2.38094e-14 0 6.30809e-14 0.226166 0 0 0 0)
(0.344434 2.57266e-14 0 -1.20248e-13 0.0595743 0 0 0 0)
(0.407894 -6.94332e-14 0 4.38609e-14 0.0208759 0 0 0 0)
(0.385921 -1.52719e-13 0 -1.8185e-13 0.0114773 0 0 0 0)
(0.287787 2.28824e-13 0 6.12328e-14 0.00578904 0 0 0 0)
(0.149205 -5.3981e-14 0 -1.33492e-13 0.0016698 0 0 0 0)
(0.0436761 -2.53482e-14 0 7.02498e-14 0.000190899 0 0 0 0)
(0.00534348 4.23728e-15 0 -2.57606e-13 5.61763e-06 0 0 0 0)
(0.000182318 -6.72167e-14 0 2.72311e-13 2.68621e-08 0 0 0 0)
(1.14716e-06 1.0371e-13 0 -1.8838e-13 1.40207e-11 0 0 0 0)
(9.30641e-10 -7.92382e-14 0 1.49119e-14 2.37241e-14 0 0 0 0)
(6.54083e-14 5.20783e-15 0 -5.42587e-16 3.80647e-16 0 0 0 0)
(-9.13051e-16 1.48484e-16 0 -7.08654e-16 0 0 0 0 0)
(-5.24626e-16 1.42779e-15 0 5.12126e-16 -3.48926e-16 0 0 0 0)
(-2.15191e-16 9.06841e-16 0 2.23358e-15 -3.2701e-15 0 0 0 0)
(5.57903e-16 -5.77995e-16 0 -9.28274e-16 -1.02371e-15 0 0 0 0)
(7.44415e-16 9.48785e-16 0 -7.98043e-17 -2.85485e-16 0 0 0 0)
(-3.26323e-16 1.37578e-15 0 5.22615e-16 -1.81095e-15 0 0 0 0)
(-1.53736e-15 1.50161e-16 0 1.06756e-16 -4.23902e-15 0 0 0 0)
(-1.23529e-15 9.56335e-17 0 2.22036e-16 -7.89842e-15 0 0 0 0)
(8.65819e-14 -1.18451e-15 0 -2.43764e-16 4.09483e-16 0 0 0 0)
(1.19759e-09 -1.212e-13 0 -2.96719e-15 9.79876e-15 0 0 0 0)
(1.4429e-06 1.32141e-13 0 -2.98256e-13 3.25176e-13 0 0 0 0)
(0.000223534 4.73332e-13 0 5.25959e-13 1.14503e-13 0 0 0 0)
(0.00638898 -4.07977e-13 0 1.93579e-13 -7.74583e-13 0 0 0 0)
(0.0511662 -3.11862e-13 0 -6.93042e-13 1.059e-12 0 0 0 0)
(0.172714 4.35095e-14 0 1.61829e-13 -9.44838e-13 0 0 0 0)
(0.333123 3.53922e-13 0 1.12363e-13 3.87008e-13 0 0 0 0)
(0.455794 -2.71148e-14 0 -4.73106e-14 -3.33892e-13 0 0 0 0)
(0.521866 -3.16075e-13 0 -3.49409e-13 2.71675e-13 0 0 0 0)
(0.549492 2.62038e-13 0 1.55731e-13 -4.98168e-13 0 0 0 0)
(0.542702 -1.27452e-14 0 1.38975e-13 3.5499e-13 0 0 0 0)
(0.491921 -1.61345e-14 0 -7.29372e-14 -1.46097e-13 0 0 0 0)
(0.521435 -1.20602e-13 0 -2.75979e-14 -3.08031e-13 0 0 0 0)
(2.63294 -1.27037e-13 0 -8.47649e-14 8.73893e-15 0 0 0 0)
(2.33874 -8.66962e-14 0 -4.37623e-13 5.63569e-14 0 0 0 0)
(0.707856 0.669166 0 -7.24892 -0.643085 0 0 0 0)
(-0.622995 0.584998 0 -3.85168 1.72852 0 0 0 0)
(-1.20856 -0.246996 0 -1.63411 1.63782 0 0 0 0)
(-0.540556 -0.276696 0 -0.363559 0.652693 0 0 0 0)
(0.0738221 -0.0984442 0 -0.0223623 0.219974 0 0 0 0)
(0.344981 -0.0298603 0 0.022158 0.05769 0 0 0 0)
(0.405698 -0.00699592 0 0.00853838 0.0237257 0 0 0 0)
(0.384927 -0.00219446 0 -0.00154832 0.0127663 0 0 0 0)
(0.287806 -0.00142655 0 -0.00222437 0.0058606 0 0 0 0)
(0.149362 -0.000814274 0 -0.000908146 0.00165712 0 0 0 0)
(0.0437492 -0.000242063 0 -0.000146855 0.000187956 0 0 0 0)
(0.00535557 -2.77633e-05 0 -5.97892e-06 5.53403e-06 0 0 0 0)
(0.000182808 -8.17108e-07 0 -3.85469e-08 2.73798e-08 0 0 0 0)
(1.15026e-06 -3.90716e-09 0 -2.58406e-11 1.44959e-11 0 0 0 0)
(9.32649e-10 -2.11155e-12 0 -2.04238e-14 2.53591e-14 0 0 0 0)
(6.53119e-14 -6.82521e-15 0 -2.48512e-15 0 0 0 0 0)
(-6.61244e-16 0 0 -1.63809e-15 0 0 0 0 0)
(1.18797e-17 4.88234e-16 0 -6.70081e-17 -5.10412e-16 0 0 0 0)
(-8.8314e-17 3.80017e-16 0 1.17624e-15 -5.85965e-15 0 0 0 0)
(1.92863e-16 -1.7365e-16 0 7.12292e-16 -4.60525e-15 0 0 0 0)
(8.33217e-16 1.77006e-16 0 -7.19443e-16 -2.92117e-15 0 0 0 0)
(-2.06911e-16 -7.13057e-17 0 -1.06119e-15 -7.98781e-15 0 0 0 0)
(-1.80107e-15 1.57711e-16 0 3.147e-16 -1.35101e-14 0 0 0 0)
(-9.68656e-16 1.30196e-15 0 1.74629e-15 -8.47804e-15 0 0 0 0)
(8.67326e-14 1.66688e-15 0 2.85717e-15 -6.17685e-15 0 0 0 0)
(1.19754e-09 -7.97399e-14 0 2.10515e-15 7.03619e-16 0 0 0 0)
(1.4429e-06 9.0648e-14 0 -2.32699e-13 3.27065e-13 0 0 0 0)
(0.000223534 2.96395e-13 0 4.17586e-13 -4.44174e-13 0 0 0 0)
(0.00638898 -1.75376e-13 0 2.57108e-13 -6.54086e-13 0 0 0 0)
(0.0511662 -3.23739e-13 0 -1.8932e-13 1.24825e-12 0 0 0 0)
(0.172714 -1.09807e-13 0 6.00007e-14 -1.07902e-12 0 0 0 0)
(0.333123 4.52897e-13 0 1.9491e-13 2.7234e-13 0 0 0 0)
(0.455794 -5.10251e-14 0 -8.27936e-14 -4.05719e-13 0 0 0 0)
(0.521866 -3.15577e-13 0 -3.86863e-13 4.3983e-13 0 0 0 0)
(0.549492 2.96219e-13 0 1.92199e-13 -2.10745e-13 0 0 0 0)
(0.542702 2.33412e-14 0 1.60659e-13 2.46991e-13 0 0 0 0)
(0.491921 -1.11439e-13 0 -7.88511e-15 -3.82743e-13 0 0 0 0)
(0.521435 -1.02515e-13 0 -3.94255e-14 -1.96007e-13 0 0 0 0)
(2.63294 2.76013e-15 0 -1.6953e-13 -2.48026e-13 0 0 0 0)
(2.33874 -8.24559e-15 0 -4.06083e-13 2.61611e-13 0 0 0 0)
(0.117432 0.772962 0 -9.35809 0.0423742 0 0 0 0)
(0.66703 0.663537 0 -4.36416 0.618913 0 0 0 0)
(-0.468116 -0.312968 0 -1.82565 0.69337 0 0 0 0)
(-0.205359 -0.412465 0 -0.491106 0.405224 0 0 0 0)
(0.158602 -0.173092 0 -0.062298 0.172331 0 0 0 0)
(0.353423 -0.0570903 0 0.00681034 0.0648093 0 0 0 0)
(0.400998 -0.0130687 0 0.00170113 0.0330662 0 0 0 0)
(0.38279 -0.00519713 0 -0.00544536 0.0155903 0 0 0 0)
(0.287973 -0.00323177 0 -0.00478257 0.00576834 0 0 0 0)
(0.149809 -0.00165022 0 -0.00191747 0.00137906 0 0 0 0)
(0.0439385 -0.000480462 0 -0.000302539 0.000145425 0 0 0 0)
(0.00538619 -5.467e-05 0 -1.2259e-05 4.31201e-06 0 0 0 0)
(0.000184057 -1.6099e-06 0 -8.2582e-08 2.35605e-08 0 0 0 0)
(1.15838e-06 -7.96492e-09 0 -6.30213e-11 1.54808e-11 0 0 0 0)
(9.38158e-10 -4.29623e-12 0 -1.49138e-14 -2.18465e-14 0 0 0 0)
(7.08732e-14 -2.16937e-15 0 -1.48807e-15 6.53642e-16 0 0 0 0)
(-2.09601e-16 0 0 -6.9968e-16 4.44105e-17 0 0 0 0)
(2.94089e-16 -2.76834e-16 0 2.72504e-18 -3.22985e-18 0 0 0 0)
(1.15145e-17 -2.84384e-16 0 -2.1257e-16 -2.45667e-15 0 0 0 0)
(6.43266e-18 2.76834e-16 0 5.60899e-16 -1.55073e-15 0 0 0 0)
(2.28493e-16 -3.52334e-17 0 -5.89741e-16 -1.08138e-15 0 0 0 0)
(-2.54812e-17 -1.70463e-15 0 -1.87401e-15 -3.08287e-15 0 0 0 0)
(-7.20643e-16 7.55001e-18 0 -1.94285e-17 -5.46656e-15 0 0 0 0)
(-4.95661e-16 2.22893e-15 0 2.61355e-15 -4.38706e-15 0 0 0 0)
(8.66863e-14 1.48651e-15 0 2.47141e-15 -4.443e-15 0 0 0 0)
(1.19752e-09 -2.42574e-14 0 8.38324e-16 -5.49183e-15 0 0 0 0)
(1.4429e-06 2.7222e-15 0 -5.84392e-14 2.37527e-13 0 0 0 0)
(0.000223534 1.87906e-13 0 7.27796e-14 -3.35367e-13 0 0 0 0)
(0.00638898 8.43631e-14 0 3.91329e-13 -5.70801e-13 0 0 0 0)
(0.0511662 -4.35479e-13 0 -8.71366e-14 1.01766e-12 0 0 0 0)
(0.172714 -2.40391e-13 0 -3.56062e-14 -8.55947e-13 0 0 0 0)
(0.333123 5.49792e-13 0 2.08955e-13 3.21372e-13 0 0 0 0)
(0.455794 2.16095e-14 0 -6.20952e-14 -4.17994e-13 0 0 0 0)
(0.521866 -2.59356e-13 0 -2.19305e-13 7.38055e-13 0 0 0 0)
(0.549492 2.0594e-13 0 1.29119e-13 1.51947e-14 0 0 0 0)
(0.542702 -6.27808e-14 0 1.97128e-15 1.36144e-13 0 0 0 0)
(0.491921 -1.45007e-13 0 3.94255e-14 -3.22245e-13 0 0 0 0)
(0.521435 -8.14118e-14 0 8.27936e-14 -9.43123e-14 0 0 0 0)
(2.63294 6.088e-15 0 -6.30809e-14 -6.66881e-14 0 0 0 0)
(2.33874 6.15618e-14 0 -1.14334e-13 9.15882e-14 0 0 0 0)
(2.31307 0.921309 0 -4.37532 -0.0301172 0 0 0 0)
(2.61031 0.90254 0 -2.03999 -0.0505437 0 0 0 0)
(0.364761 -0.304759 0 -0.986656 0.0341687 0 0 0 0)
(0.177975 -0.446547 0 -0.372382 0.111031 0 0 0 0)
(0.288125 -0.225666 0 -0.111412 0.0883348 0 0 0 0)
(0.375365 -0.0857326 0 -0.0473609 0.0639527 0 0 0 0)
(0.403446 -0.030848 0 -0.0231601 0.0338666 0 0 0 0)
(0.38333 -0.0158458 0 -0.0142595 0.013917 0 0 0 0)
(0.289825 -0.00825356 0 -0.00793147 0.00428052 0 0 0 0)
(0.151656 -0.00337481 0 -0.00283181 0.000823059 0 0 0 0)
(0.0447254 -0.000828758 0 -0.0004276 7.72069e-05 0 0 0 0)
(0.00550989 -8.78585e-05 0 -1.73084e-05 2.33774e-06 0 0 0 0)
(0.000189054 -2.60524e-06 0 -1.21914e-07 1.44995e-08 0 0 0 0)
(1.19267e-06 -1.39943e-08 0 -1.03654e-10 1.24918e-11 0 0 0 0)
(9.65811e-10 -9.29581e-12 0 1.60515e-15 -8.84992e-16 0 0 0 0)
(6.77976e-14 1.52305e-15 0 -5.87718e-16 1.28727e-15 0 0 0 0)
(-2.48319e-16 -4.12038e-16 0 2.57128e-16 4.50447e-16 0 0 0 0)
(-8.87403e-18 -1.96015e-16 0 -4.57522e-16 -1.1274e-18 0 0 0 0)
(1.46387e-16 1.77528e-16 0 -3.49546e-16 6.71533e-16 0 0 0 0)
(1.71835e-16 1.68158e-16 0 -2.52587e-18 1.44115e-15 0 0 0 0)
(5.07743e-18 -5.38663e-16 0 9.62982e-17 3.32976e-16 0 0 0 0)
(-5.89479e-17 -9.33479e-16 0 -3.58264e-16 3.07448e-16 0 0 0 0)
(-2.35399e-16 -4.86746e-16 0 1.34629e-17 1.94341e-15 0 0 0 0)
(4.68773e-17 8.72193e-16 0 3.49242e-16 -2.81353e-16 0 0 0 0)
(8.56726e-14 1.18242e-15 0 8.4946e-16 -1.0442e-15 0 0 0 0)
(1.19752e-09 7.88975e-15 0 -1.3449e-15 -1.84049e-15 0 0 0 0)
(1.4429e-06 -1.46092e-14 0 2.98038e-14 7.89987e-14 0 0 0 0)
(0.000223534 -8.52069e-14 0 -7.04141e-14 -7.86782e-14 0 0 0 0)
(0.00638898 3.73021e-13 0 -9.41821e-14 -7.08439e-13 0 0 0 0)
(0.0511662 -3.73405e-13 0 3.38441e-13 6.07791e-13 0 0 0 0)
(0.172714 -3.95586e-13 0 -4.92429e-13 -2.45852e-13 0 0 0 0)
(0.333123 6.15578e-13 0 2.41984e-13 9.502e-14 0 0 0 0)
(0.455794 1.26365e-13 0 -1.81209e-13 -3.70718e-13 0 0 0 0)
(0.521866 -1.08856e-13 0 -8.00413e-14 5.18592e-13 0 0 0 0)
(0.549492 2.30422e-14 0 1.24376e-13 -1.29595e-13 0 0 0 0)
(0.542702 -8.87471e-14 0 -5.20715e-14 7.64598e-14 0 0 0 0)
(0.491921 -2.17186e-13 0 -3.86817e-14 1.73221e-13 0 0 0 0)
(0.521435 3.33888e-14 0 2.20188e-14 -2.59852e-14 0 0 0 0)
(2.63294 1.15523e-13 0 -3.27306e-14 2.36985e-13 0 0 0 0)
(2.33874 1.0322e-14 0 -3.92768e-14 2.39721e-13 0 0 0 0)
(2.438 0.54616 0 -0.665259 0.436742 0 0 0 0)
(2.89042 0.597324 0 -0.579944 -0.326939 0 0 0 0)
(0.692233 -0.16167 0 -0.470992 -0.230976 0 0 0 0)
(0.432501 -0.341993 0 -0.268508 -0.0666789 0 0 0 0)
(0.402349 -0.190266 0 -0.146729 0.0114693 0 0 0 0)
(0.426699 -0.0942189 0 -0.0856946 0.027754 0 0 0 0)
(0.431583 -0.0517511 0 -0.0445423 0.0154217 0 0 0 0)
(0.397175 -0.0279972 0 -0.0233204 0.00618771 0 0 0 0)
(0.297992 -0.0131567 0 -0.0107489 0.00176144 0 0 0 0)
(0.15605 -0.00477591 0 -0.00339554 0.000322113 0 0 0 0)
(0.0462288 -0.00108457 0 -0.000489877 3.01717e-05 0 0 0 0)
(0.00573179 -0.000111259 0 -1.9992e-05 9.84636e-07 0 0 0 0)
(0.000198056 -3.32888e-06 0 -1.47741e-07 6.8668e-09 0 0 0 0)
(1.25747e-06 -1.8704e-08 0 -1.3682e-10 6.58669e-12 0 0 0 0)
(1.02321e-09 -1.36516e-11 0 -1.62806e-14 2.63753e-15 0 0 0 0)
(7.12235e-14 -2.86248e-15 0 -6.25982e-16 -3.9421e-17 0 0 0 0)
(-6.3378e-17 -1.0206e-15 0 1.18433e-16 4.50976e-16 0 0 0 0)
(-1.28065e-16 -1.07125e-16 0 -2.49308e-16 1.7608e-16 0 0 0 0)
(3.77643e-16 8.57758e-16 0 -2.48792e-16 1.74504e-16 0 0 0 0)
(3.4737e-16 8.86375e-18 0 -3.47885e-18 1.30089e-16 0 0 0 0)
(5.49328e-18 -8.57758e-16 0 9.78001e-17 2.64279e-31 0 0 0 0)
(-8.73584e-17 -5.66267e-16 0 1.25802e-17 4.2417e-16 0 0 0 0)
(-2.99069e-16 -2.94783e-16 0 2.68087e-17 1.416e-15 0 0 0 0)
(1.90108e-17 7.74945e-17 0 1.26834e-17 9.68179e-16 0 0 0 0)
(8.55974e-14 1.47138e-16 0 -7.02899e-17 2.3784e-16 0 0 0 0)
(1.19755e-09 3.56366e-14 0 -7.43259e-16 -2.20757e-17 0 0 0 0)
(1.4429e-06 -6.20278e-14 0 1.02273e-13 7.56946e-14 0 0 0 0)
(0.000223534 -4.24445e-13 0 -2.26125e-13 9.24764e-15 0 0 0 0)
(0.00638898 5.91083e-13 0 -4.63774e-13 -4.45802e-13 0 0 0 0)
(0.0511662 -2.29993e-14 0 9.92219e-13 1.67844e-13 0 0 0 0)
(0.172714 -6.51295e-13 0 -8.019e-13 -2.05766e-13 0 0 0 0)
(0.333123 3.94189e-13 0 4.2468e-13 1.88514e-14 0 0 0 0)
(0.455794 3.73605e-13 0 -9.20921e-14 -2.72262e-13 0 0 0 0)
(0.521866 -1.07703e-13 0 3.15404e-14 2.79629e-13 0 0 0 0)
(0.549492 -1.22039e-13 0 1.17533e-13 -2.93557e-13 0 0 0 0)
(0.542702 2.42947e-13 0 4.52278e-14 2.01745e-14 0 0 0 0)
(0.491921 -2.05021e-13 0 1.96384e-14 3.00202e-13 0 0 0 0)
(0.521435 -8.15262e-14 0 1.1902e-14 8.27e-14 0 0 0 0)
(2.63294 2.0345e-13 0 1.60083e-13 5.02403e-14 0 0 0 0)
(2.33874 9.16751e-14 0 2.97551e-14 2.73542e-13 0 0 0 0)
(2.39529 0.185398 0 -0.0295823 0.234062 0 0 0 0)
(2.79751 0.259103 0 -0.0965368 -0.260175 0 0 0 0)
(0.664872 -0.0539623 0 -0.195645 -0.259808 0 0 0 0)
(0.490447 -0.212918 0 -0.189915 -0.117876 0 0 0 0)
(0.464291 -0.134667 0 -0.133904 -0.0391552 0 0 0 0)
(0.473836 -0.0819239 0 -0.0855041 -0.0140789 0 0 0 0)
(0.463551 -0.0516301 0 -0.0484786 -0.00628903 0 0 0 0)
(0.415895 -0.0290094 0 -0.025731 -0.00265466 0 0 0 0)
(0.309026 -0.0139059 0 -0.0114939 -0.00099644 0 0 0 0)
(0.161542 -0.00504312 0 -0.00347132 -0.000251754 0 0 0 0)
(0.0479782 -0.00113821 0 -0.000487295 -2.84012e-05 0 0 0 0)
(0.00598181 -0.000116926 0 -1.98928e-05 -8.87843e-07 0 0 0 0)
(0.000208319 -3.55407e-06 0 -1.50695e-07 -4.95604e-09 0 0 0 0)
(1.33504e-06 -2.06114e-08 0 -1.45588e-10 -3.51236e-12 0 0 0 0)
(1.09765e-09 -1.5643e-11 0 -1.24221e-14 -5.33891e-15 0 0 0 0)
(8.36004e-14 -5.83994e-16 0 -2.9288e-17 -1.40181e-15 0 0 0 0)
(1.14658e-16 -2.04373e-16 0 1.76012e-16 -9.99979e-16 0 0 0 0)
(-3.62746e-16 -4.62434e-16 0 2.98045e-16 -1.73978e-16 0 0 0 0)
(3.83277e-16 1.33209e-16 0 1.41295e-16 -3.23778e-16 0 0 0 0)
(5.05824e-16 3.83204e-30 0 1.05146e-16 -1.00208e-15 0 0 0 0)
(2.05525e-17 -2.55276e-16 0 2.31014e-16 -3.32976e-16 0 0 0 0)
(-1.27358e-16 4.31031e-16 0 3.07544e-17 1.40398e-31 0 0 0 0)
(-2.35299e-16 3.7481e-17 0 3.23224e-17 4.60963e-16 0 0 0 0)
(-4.66904e-17 -2.63127e-16 0 3.23771e-17 3.05907e-16 0 0 0 0)
(8.49442e-14 2.28178e-16 0 -6.55402e-17 2.1629e-16 0 0 0 0)
(1.19762e-09 8.06026e-14 0 2.83254e-15 2.98811e-15 0 0 0 0)
(1.4429e-06 -5.6766e-15 0 1.47766e-13 -4.96126e-14 0 0 0 0)
(0.000223534 -5.8774e-13 0 -1.46229e-13 2.04073e-13 0 0 0 0)
(0.00638898 5.2585e-13 0 -8.05512e-13 -4.63207e-14 0 0 0 0)
(0.0511662 -1.42096e-13 0 1.32976e-12 1.91106e-13 0 0 0 0)
(0.172714 -5.3916e-13 0 -9.89451e-13 -2.45749e-13 0 0 0 0)
(0.333123 5.51499e-13 0 4.96018e-13 3.62768e-13 0 0 0 0)
(0.455794 3.7766e-13 0 8.79264e-14 -2.1255e-13 0 0 0 0)
(0.521866 -1.29375e-13 0 1.02655e-13 1.05039e-13 0 0 0 0)
(0.549492 -2.26977e-13 0 1.96384e-14 -1.57373e-13 0 0 0 0)
(0.542702 4.8342e-13 0 7.73633e-14 -3.61689e-14 0 0 0 0)
(0.491921 -1.56934e-13 0 8.92654e-14 1.45313e-13 0 0 0 0)
(0.521435 -2.07483e-13 0 2.43992e-14 -4.60261e-14 0 0 0 0)
(2.63294 2.99425e-13 0 1.26757e-13 2.77551e-14 0 0 0 0)
(2.33874 2.25503e-13 0 5.71298e-14 2.18343e-14 0 0 0 0)
(2.37348 0.0698948 0 0.0189347 0.0248544 0 0 0 0)
(2.7304 0.121413 0 -0.0150277 -0.152487 0 0 0 0)
(0.60225 -0.0245456 0 -0.0989972 -0.204929 0 0 0 0)
(0.491998 -0.129364 0 -0.126451 -0.118661 0 0 0 0)
(0.502964 -0.0902436 0 -0.0978104 -0.06268 0 0 0 0)
(0.509018 -0.0625479 0 -0.0656167 -0.0356513 0 0 0 0)
(0.489182 -0.0407423 0 -0.039543 -0.0187108 0 0 0 0)
(0.432815 -0.0228971 0 -0.0213597 -0.00860885 0 0 0 0)
(0.319442 -0.0108412 0 -0.00937128 -0.00314346 0 0 0 0)
(0.166656 -0.00384308 0 -0.00271925 -0.000749226 0 0 0 0)
(0.0495547 -0.000842828 0 -0.000365334 -8.28579e-05 0 0 0 0)
(0.00620122 -8.38951e-05 0 -1.43882e-05 -2.69839e-06 0 0 0 0)
(0.000217226 -2.47332e-06 0 -1.06381e-07 -1.6914e-08 0 0 0 0)
(1.40268e-06 -1.39282e-08 0 -1.01179e-10 -1.33533e-11 0 0 0 0)
(1.16351e-09 -1.02683e-11 0 -2.7257e-15 -1.23125e-15 0 0 0 0)
(8.33635e-14 1.31867e-15 0 5.31517e-16 -1.34031e-15 0 0 0 0)
(2.52051e-16 1.62586e-16 0 9.88136e-17 -5.00121e-16 0 0 0 0)
(-1.6152e-16 5.44487e-16 0 5.47259e-16 -7.22718e-17 0 0 0 0)
(1.91759e-16 5.9767e-17 0 2.23613e-16 8.04188e-17 0 0 0 0)
(4.33826e-16 -2.09771e-30 0 2.0225e-16 -7.25346e-17 0 0 0 0)
(-6.61933e-17 1.07884e-16 0 4.51223e-16 7.98932e-17 0 0 0 0)
(-2.78824e-16 1.98801e-16 0 1.78918e-16 1.60312e-16 0 0 0 0)
(-2.97505e-16 5.08736e-30 0 2.68062e-17 -4.77519e-16 0 0 0 0)
(-7.52931e-17 -1.58281e-16 0 -7.93655e-17 2.44673e-16 0 0 0 0)
(8.82957e-14 2.73181e-15 0 -2.41985e-16 1.05648e-16 0 0 0 0)
(1.19769e-09 -1.23804e-14 0 8.71362e-15 4.86245e-15 0 0 0 0)
(1.4429e-06 1.31745e-13 0 -1.52865e-14 -1.32795e-13 0 0 0 0)
(0.000223534 -4.21272e-13 0 2.36083e-13 6.01882e-14 0 0 0 0)
(0.00638898 5.78587e-13 0 -9.04799e-13 4.56009e-13 0 0 0 0)
(0.0511662 -2.15175e-13 0 1.29016e-12 2.34415e-14 0 0 0 0)
(0.172714 -4.85874e-13 0 -1.05761e-12 2.94245e-13 0 0 0 0)
(0.333123 4.2618e-13 0 4.29813e-13 2.76499e-13 0 0 0 0)
(0.455794 1.25248e-13 0 4.06157e-14 -3.23809e-13 0 0 0 0)
(0.521866 -5.45323e-14 0 -1.1902e-14 -1.0712e-13 0 0 0 0)
(0.549492 -2.58112e-13 0 -7.49829e-14 -7.89265e-14 0 0 0 0)
(0.542702 5.34626e-13 0 9.07531e-14 -8.0974e-14 0 0 0 0)
(0.491921 -2.1452e-13 0 4.99886e-14 -2.58558e-14 0 0 0 0)
(0.521435 -1.94809e-13 0 -4.76082e-14 -2.47269e-13 0 0 0 0)
(2.63294 2.68843e-13 0 -1.48776e-13 -5.46443e-14 0 0 0 0)
(2.33874 8.59697e-14 0 -9.52164e-15 -1.91645e-13 0 0 0 0)
(2.36256 0.0145056 0 0.0197668 -0.0337602 0 0 0 0)
(2.68387 0.037675 0 -0.000851955 -0.111293 0 0 0 0)
(0.5575 -0.0213668 0 -0.0596826 -0.161062 0 0 0 0)
(0.491591 -0.0758419 0 -0.0740717 -0.104067 0 0 0 0)
(0.522913 -0.0546755 0 -0.05972 -0.0654168 0 0 0 0)
(0.529984 -0.0395536 0 -0.041567 -0.0392329 0 0 0 0)
(0.506199 -0.025571 0 -0.0256438 -0.0206958 0 0 0 0)
(0.44497 -0.0140081 0 -0.0136919 -0.00938238 0 0 0 0)
(0.326988 -0.00633205 0 -0.00574962 -0.00331032 0 0 0 0)
(0.17022 -0.00209382 0 -0.00154612 -0.000752247 0 0 0 0)
(0.0505847 -0.000418828 0 -0.000187572 -7.91037e-05 0 0 0 0)
(0.00633376 -3.70979e-05 0 -6.59462e-06 -2.44365e-06 0 0 0 0)
(0.000222184 -9.53814e-07 0 -4.38946e-08 -1.33987e-08 0 0 0 0)
(1.43755e-06 -4.31245e-09 0 -3.90405e-11 -7.0953e-12 0 0 0 0)
(1.19515e-09 -2.77655e-12 0 -1.17404e-14 2.37624e-12 0 0 0 0)
(8.63222e-14 1.20547e-16 0 6.71927e-16 2.36551e-12 0 0 0 0)
(1.29827e-16 1.01756e-15 0 1.99614e-15 2.36665e-12 0 0 0 0)
(-2.42484e-16 9.69947e-17 0 1.19964e-14 2.37476e-12 0 0 0 0)
(5.08136e-17 1.32956e-16 0 -4.81287e-15 2.39171e-12 0 0 0 0)
(7.25157e-16 -5.065e-19 0 -5.17136e-16 2.36429e-12 0 0 0 0)
(-1.93074e-18 -3.08965e-17 0 -4.99537e-16 2.3902e-12 0 0 0 0)
(-5.36341e-16 -1.06112e-16 0 -1.93531e-14 2.35804e-12 0 0 0 0)
(-4.84191e-16 1.18774e-16 0 1.49622e-14 2.34969e-12 0 0 0 0)
(-3.05707e-16 2.98835e-16 0 2.19884e-15 2.38782e-12 0 0 0 0)
(9.34174e-14 4.67803e-15 0 -1.17974e-14 2.35857e-12 0 0 0 0)
(1.1976e-09 -4.74649e-14 0 5.05506e-14 2.40007e-12 0 0 0 0)
(1.4429e-06 4.76373e-14 0 6.05388e-15 2.53144e-12 0 0 0 0)
(0.000223534 -2.0348e-14 0 1.9864e-14 2.16657e-12 0 0 0 0)
(0.00638898 4.90439e-13 0 1.92387e-14 3.11474e-12 0 0 0 0)