/*--------------------------------*- C++ -*----------------------------------*\
| =========                 |                                                 |
| \\      /  F ield         | OpenFOAM: The Open Source CFD Toolbox           |
|  \\    /   O peration     | Version:  v1912                                 |
|   \\  /    A nd           | Website:  www.openfoam.com                      |
|    \\/     M anipulation  |                                                 |
\*---------------------------------------------------------------------------*/
FoamFile
{
    version     2.0;
    format      ascii;
    class       volVectorField;
    location    "9.2";
    object      grad(T);
}
// * * * * * * * * * * * * * * * * * * * * * * * * * * * * * * * * * * * * * //

dimensions      [0 -1 0 1 0 0 0];


internalField   nonuniform List<vector> 
1900
(
(-4.26229 -7.27824e-05 0)
(4.09546 -1.98429e-06 0)
(0.213469 -2.12534e-06 0)
(-0.283229 -1.56551e-05 0)
(-0.241662 -1.49853e-05 0)
(-0.100392 1.28125e-05 0)
(-0.0121649 0.00021397 0)
(0.0227012 -0.000120288 0)
(0.0357221 -0.00219465 0)
(0.0599662 -0.000487718 0)
(-4.26236 -0.000122149 0)
(4.09553 -3.79678e-06 0)
(0.213455 -3.78212e-06 0)
(-0.283241 -2.50861e-05 0)
(-0.241633 -7.92513e-06 0)
(-0.100163 7.98437e-05 0)
(-0.012298 0.000383705 0)
(0.0202925 -0.000107856 0)
(0.0353547 -0.0068867 0)
(0.0305241 -0.00313598 0)
(-4.26242 -7.65447e-13 0)
(4.09558 -3.96818e-13 0)
(0.213448 -2.92735e-13 0)
(-0.283233 -4.11997e-13 0)
(-0.241557 -4.00071e-13 0)
(-0.100001 -2.04914e-13 0)
(-0.0123526 5.42101e-15 0)
(0.0154307 -3.79471e-14 0)
(0.032694 -3.51282e-13 0)
(0.0287439 -1.06252e-13 0)
(-4.26236 0.000122149 0)
(4.09553 3.79678e-06 0)
(0.213455 3.78212e-06 0)
(-0.283241 2.50861e-05 0)
(-0.241633 7.92513e-06 0)
(-0.100163 -7.98437e-05 0)
(-0.012298 -0.000383705 0)
(0.0202925 0.000107856 0)
(0.0353547 0.0068867 0)
(0.0305241 0.00313598 0)
(-4.26229 7.27824e-05 0)
(4.09546 1.98429e-06 0)
(0.213469 2.12534e-06 0)
(-0.283229 1.56551e-05 0)
(-0.241662 1.49853e-05 0)
(-0.100392 -1.28125e-05 0)
(-0.0121649 -0.00021397 0)
(0.0227012 0.000120288 0)
(0.0357221 0.00219465 0)
(0.0599662 0.000487718 0)
(0.0265923 -0.0273218 9.40624e-16)
(-1.30262e-05 -0.0195866 -1.12933e-15)
(0.110235 -0.0322296 -1.43493e-15)
(0.398329 -0.0609824 0)
(-0.508453 -0.318655 -6.47503e-15)
(0.0106378 -0.0334895 9.35687e-16)
(0.0118052 -0.0229395 1.12933e-15)
(0.0914377 -0.0372887 1.43493e-15)
(0.292277 -0.0591314 0)
(-0.441054 -0.341911 0)
(0.00140525 -5.49958e-14 0)
(0.00923539 -8.08396e-14 0)
(0.0841922 -1.05409e-13 0)
(0.264036 -1.23205e-14 0)
(-0.573427 1.09711e-13 0)
(0.0106378 0.0334895 9.35687e-16)
(0.0118052 0.0229395 1.12933e-15)
(0.0914377 0.0372887 1.43493e-15)
(0.292277 0.0591314 0)
(-0.441054 0.341911 0)
(0.0265923 0.0273218 -2.812e-15)
(-1.30262e-05 0.0195866 -1.12933e-15)
(0.110235 0.0322296 -1.43493e-15)
(0.398329 0.0609824 -3.95732e-15)
(-0.508453 0.318655 6.47503e-15)
(-1.87852 0.456997 2.19082e-15)
(-0.964627 0.316926 -1.58487e-15)
(-0.59105 0.217856 0)
(-0.420534 0.194662 1.01586e-15)
(-0.298131 0.0825418 -4.25339e-16)
(-1.67553 0.457048 -1.10229e-15)
(-1.00605 0.209304 7.97206e-16)
(-0.610497 0.113949 0)
(-0.461426 0.123783 -6.39511e-16)
(-0.294341 -0.039556 1.06658e-16)
(-1.73126 1.64273e-13 0)
(-1.06281 2.17767e-13 0)
(-0.62251 5.22023e-14 0)
(-0.494173 -4.25177e-14 2.57295e-16)
(-0.281552 1.10956e-14 -2.13317e-16)
(-1.67553 -0.457048 -1.10229e-15)
(-1.00605 -0.209304 7.97206e-16)
(-0.610497 -0.113949 0)
(-0.461426 -0.123783 -6.39511e-16)
(-0.294341 0.039556 1.06658e-16)
(-1.87852 -0.456997 1.10229e-15)
(-0.964627 -0.316926 -9.54476e-18)
(-0.59105 -0.217856 0)
(-0.420534 -0.194662 5.86258e-18)
(-0.298131 -0.0825418 4.25339e-16)
(-0.170108 0.837271 0)
(-0.0935879 1.08334 0)
(-0.0622497 1.17457 0)
(-0.0389295 1.12205 0)
(-0.0443891 1.01848 0)
(-0.0536945 0.908509 0)
(-0.0634828 0.809208 0)
(-0.0678239 0.716802 0)
(-0.0681427 0.637874 0)
(-0.0606905 0.563423 0)
(-0.0443714 0.50978 0)
(-0.0460177 0.47272 0)
(-0.0535661 0.437039 0)
(-0.0236613 0.38396 0)
(0.0412456 0.356457 0)
(0.222556 0.357425 0)
(0.328651 0.38385 0)
(0.204228 0.367787 0)
(0.0826812 0.302975 0)
(0.0360067 0.260756 0)
(0.0316729 0.21747 0)
(0.058563 0.16287 0)
(0.0716643 0.0864435 0)
(0.0310386 0.0278268 0)
(-0.0306811 0.0228301 0)
(-0.115589 -0.0117388 0)
(0.192304 -0.0452084 0)
(0.545951 -0.0332517 0)
(0.160119 -0.0200313 0)
(-0.483901 -0.011288 0)
(-0.625235 0.0133999 0)
(-0.227201 0.00725994 0)
(0.054786 0.00406147 0)
(0.0513488 0.00247056 0)
(0.0208507 0.000771005 0)
(-0.00014629 -0.000381918 0)
(-0.00943625 -0.0016465 0)
(-0.00892119 -0.00153308 0)
(-0.00347083 -0.00122337 0)
(-0.000437464 -0.00107752 0)
(-0.0426136 0.204773 0)
(0.0314465 0.481888 0)
(-0.0307805 0.78416 0)
(-0.0676871 0.786523 0)
(-0.0845766 0.731864 0)
(-0.0892443 0.657169 0)
(-0.0920549 0.587152 0)
(-0.0912427 0.523313 0)
(-0.089465 0.468875 0)
(-0.0798808 0.413339 0)
(-0.0594257 0.370627 0)
(-0.0586142 0.33487 0)
(-0.0689875 0.306446 0)
(-0.039509 0.258304 0)
(0.0340952 0.222474 0)
(0.223834 0.21742 0)
(0.328402 0.226307 0)
(0.193245 0.214329 0)
(0.0688589 0.177263 0)
(0.0251279 0.148341 0)
(0.0195953 0.12401 0)
(0.0420914 0.0919595 0)
(0.0544248 0.0467122 0)
(0.025379 0.0103969 0)
(-0.0334995 0.00684785 0)
(-0.122672 -0.0106215 0)
(0.192617 -0.0148189 0)
(0.548095 -0.00219237 0)
(0.158679 0.000975569 0)
(-0.481879 0.000930074 0)
(-0.623564 0.00944065 0)
(-0.228393 0.00388285 0)
(0.0542565 0.00222316 0)
(0.0509982 0.00138033 0)
(0.020554 0.000479211 0)
(-0.0003663 -0.000257889 0)
(-0.00950528 -0.00101039 0)
(-0.00892584 -0.00102965 0)
(-0.0035641 -0.00120038 0)
(-0.000495823 -0.00149404 0)
(-0.00367466 1.45874e-13 0)
(0.0749612 1.49817e-13 0)
(0.0263712 2.95692e-14 0)
(-0.0541429 -3.0949e-13 0)
(-0.0820192 -4.4748e-13 0)
(-0.0957928 -5.22388e-13 0)
(-0.102423 -4.61279e-13 0)
(-0.102232 -4.88877e-13 0)
(-0.100135 -5.38159e-13 0)
(-0.0892718 -3.43002e-13 0)
(-0.0671987 -2.1684e-13 0)
(-0.0646885 -1.49817e-13 0)
(-0.07584 -3.68629e-13 0)
(-0.0480894 -4.53394e-13 0)
(0.029352 -4.61279e-13 0)
(0.223671 -4.17911e-13 0)
(0.327752 -1.93185e-13 0)
(0.18996 -4.7902e-13 0)
(0.0634847 -1.28133e-13 0)
(0.0205151 -3.15404e-14 0)
(0.0152709 -5.16474e-13 0)
(0.0360762 -4.51422e-13 0)
(0.047937 1.89243e-12 0)
(0.0194417 -1.90366e-11 0)
(-0.0367955 -2.4158e-11 0)
(-0.121892 -3.9327e-12 0)
(0.194756 7.5697e-13 0)
(0.550546 -1.14334e-13 0)
(0.161028 1.7091e-12 0)
(-0.481438 2.72036e-12 0)
(-0.624376 -1.76824e-12 0)
(-0.2293 -3.8637e-13 0)
(0.054058 -1.63616e-13 0)
(0.0508415 -3.15404e-13 0)
(0.0203741 -2.9372e-13 0)
(-0.000579627 -2.40496e-13 0)
(-0.00966076 -1.97128e-13 0)
(-0.00897646 -3.29203e-13 0)
(-0.00360593 -2.52323e-13 0)
(-0.000522892 -1.65587e-13 0)
(-0.0426136 -0.204773 0)
(0.0314465 -0.481888 0)
(-0.0307805 -0.78416 0)
(-0.0676871 -0.786523 0)
(-0.0845766 -0.731864 0)
(-0.0892443 -0.657169 0)
(-0.0920549 -0.587152 0)
(-0.0912427 -0.523313 0)
(-0.089465 -0.468875 0)
(-0.0798808 -0.413339 0)
(-0.0594257 -0.370627 0)
(-0.0586142 -0.33487 0)
(-0.0689875 -0.306446 0)
(-0.039509 -0.258304 0)
(0.0340952 -0.222474 0)
(0.223834 -0.21742 0)
(0.328402 -0.226307 0)
(0.193245 -0.214329 0)
(0.0688589 -0.177263 0)
(0.0251279 -0.148341 0)
(0.0195953 -0.12401 0)
(0.0420914 -0.0919595 0)
(0.0544248 -0.0467122 0)
(0.025379 -0.0103969 0)
(-0.0334995 -0.00684785 0)
(-0.122672 0.0106215 0)
(0.192617 0.0148189 0)
(0.548095 0.00219237 0)
(0.158679 -0.000975569 0)
(-0.481879 -0.000930074 0)
(-0.623564 -0.00944065 0)
(-0.228393 -0.00388285 0)
(0.0542565 -0.00222316 0)
(0.0509982 -0.00138033 0)
(0.020554 -0.000479211 0)
(-0.0003663 0.000257889 0)
(-0.00950528 0.00101039 0)
(-0.00892584 0.00102965 0)
(-0.0035641 0.00120038 0)
(-0.000495823 0.00149404 0)
(-0.170108 -0.837271 0)
(-0.0935879 -1.08334 0)
(-0.0622497 -1.17457 0)
(-0.0389295 -1.12205 0)
(-0.0443891 -1.01848 0)
(-0.0536945 -0.908509 0)
(-0.0634828 -0.809208 0)
(-0.0678239 -0.716802 0)
(-0.0681427 -0.637874 0)
(-0.0606905 -0.563423 0)
(-0.0443714 -0.50978 0)
(-0.0460177 -0.47272 0)
(-0.0535661 -0.437039 0)
(-0.0236613 -0.38396 0)
(0.0412456 -0.356457 0)
(0.222556 -0.357425 0)
(0.328651 -0.38385 0)
(0.204228 -0.367787 0)
(0.0826812 -0.302975 0)
(0.0360067 -0.260756 0)
(0.0316729 -0.21747 0)
(0.058563 -0.16287 0)
(0.0716643 -0.0864435 0)
(0.0310386 -0.0278268 0)
(-0.0306811 -0.0228301 0)
(-0.115589 0.0117388 0)
(0.192304 0.0452084 0)
(0.545951 0.0332517 0)
(0.160119 0.0200313 0)
(-0.483901 0.011288 0)
(-0.625235 -0.0133999 0)
(-0.227201 -0.00725994 0)
(0.054786 -0.00406147 0)
(0.0513488 -0.00247056 0)
(0.0208507 -0.000771005 0)
(-0.00014629 0.000381918 0)
(-0.00943625 0.0016465 0)
(-0.00892119 0.00153308 0)
(-0.00347083 0.00122337 0)
(-0.000437464 0.00107752 0)
(-0.0207007 -0.996397 0)
(-0.0355596 -0.927581 0)
(-0.0186742 -0.864077 0)
(-0.0030314 -0.835252 0)
(0.00290456 -0.797476 0)
(0.000925317 -0.747094 0)
(-0.00483834 -0.685812 0)
(-0.0108479 -0.617082 0)
(-0.017909 -0.551408 0)
(-0.0217197 -0.492018 0)
(-0.0199365 -0.444717 0)
(-0.0275505 -0.412434 0)
(-0.0311413 -0.381451 0)
(-0.00728596 -0.350084 0)
(0.0424721 -0.341591 0)
(0.208129 -0.347897 0)
(0.321614 -0.388786 0)
(0.231278 -0.380194 0)
(0.120015 -0.322215 0)
(0.0661842 -0.277409 0)
(0.0670319 -0.233505 0)
(0.105235 -0.173904 0)
(0.1192 -0.0966736 0)
(0.058738 -0.0367257 0)
(-0.01194 -0.0249517 0)
(-0.0881826 -0.0192675 0)
(0.206474 -0.00490447 0)
(0.53478 0.00802307 0)
(0.143236 -0.00970121 0)
(-0.500511 -0.0239042 0)
(-0.633266 -0.0388633 0)
(-0.223914 -0.00932949 0)
(0.0566484 -0.00466818 0)
(0.0526569 -0.00290745 0)
(0.0220003 -0.000962411 0)
(0.000895747 0.000478745 0)
(-0.008863 0.00233932 0)
(-0.00919662 0.00240831 0)
(-0.00395771 0.00146336 0)
(-0.000654786 0.000541097 0)
(0.000820373 -0.419179 0)
(0.00280447 -0.400617 0)
(0.00335475 -0.386392 0)
(0.00599964 -0.376852 0)
(0.0152025 -0.366002 0)
(0.0246206 -0.359929 0)
(0.0303549 -0.351953 0)
(0.0311403 -0.34089 0)
(0.0254364 -0.325616 0)
(0.0212234 -0.305591 0)
(0.0192163 -0.282225 0)
(0.0050447 -0.261548 0)
(-0.00550856 -0.236565 0)
(0.00596843 -0.219913 0)
(0.0426955 -0.217896 0)
(0.184813 -0.224083 0)
(0.301301 -0.252546 0)
(0.253873 -0.252385 0)
(0.161709 -0.223004 0)
(0.105309 -0.193841 0)
(0.112454 -0.164803 0)
(0.165391 -0.124549 0)
(0.178363 -0.068923 0)
(0.0852991 -0.032746 0)
(-0.0239073 -0.0338579 0)
(-0.110967 -0.0543579 0)
(0.211004 -0.051816 0)
(0.547319 -0.0199578 0)
(0.138407 -0.0376284 0)
(-0.503096 -0.0665534 0)
(-0.606884 -0.0722707 0)
(-0.196012 -0.00309558 0)
(0.0599759 0.000781276 0)
(0.0542184 -0.000791916 0)
(0.0234973 -0.00107233 0)
(0.00247661 -0.000250582 0)
(-0.00788424 0.00138463 0)
(-0.00961761 0.00186934 0)
(-0.00500907 0.00111868 0)
(-0.00120966 0.000143108 0)
(-0.00281354 -0.0621661 0)
(-0.00396461 -0.0619771 0)
(0.00422675 -0.0655756 0)
(0.0166169 -0.0731282 0)
(0.0192117 -0.0803973 0)
(0.014463 -0.0899774 0)
(0.0135087 -0.101022 0)
(0.0145321 -0.113032 0)
(0.016106 -0.124007 0)
(0.020093 -0.12993 0)
(0.0225053 -0.133079 0)
(0.0164491 -0.137092 0)
(0.00897962 -0.127538 0)
(0.0107043 -0.111111 0)
(0.0384533 -0.100806 0)
(0.174739 -0.0891304 0)
(0.294341 -0.0994883 0)
(0.259745 -0.130791 0)
(0.176429 -0.135198 0)
(0.122269 -0.124763 0)
(0.133805 -0.106828 0)
(0.197629 -0.0781761 0)
(0.207665 -0.0424169 0)
(0.092528 -0.0429561 0)
(-0.032766 -0.050229 0)
(-0.105488 -0.0639686 0)
(0.239623 -0.00838895 0)
(0.548452 0.0398464 0)
(0.0983344 0.00811904 0)
(-0.533894 -0.0495297 0)
(-0.572116 -0.0636435 0)
(-0.153518 0.0183993 0)
(0.0588683 0.0178245 0)
(0.0508707 0.0119679 0)
(0.022522 0.00675548 0)
(0.00326336 0.00283052 0)
(-0.00682017 0.000964286 0)
(-0.0094529 0.00143036 0)
(-0.00562117 0.00124072 0)
(-0.00159488 0.000651171 0)
(0.00100249 0.00403079 0)
(-0.000481086 0.00637289 0)
(-0.00739083 0.00557876 0)
(-0.00828309 -0.000237631 0)
(-0.00103405 -0.0109932 0)
(0.00474543 -0.0181741 0)
(0.00813852 -0.0206971 0)
(0.00899116 -0.0251833 0)
(0.00915274 -0.0354427 0)
(0.0124817 -0.0430952 0)
(0.0123152 -0.0513718 0)
(0.010384 -0.0624952 0)
(0.019527 -0.0581682 0)
(0.0317287 -0.0412682 0)
(0.0638772 -0.0262878 0)
(0.186083 0.00105071 0)
(0.261155 -0.0155655 0)
(0.219461 -0.06721 0)
(0.167519 -0.0846204 0)
(0.132647 -0.0770054 0)
(0.157347 -0.0553235 0)
(0.22746 -0.0249721 0)
(0.212303 -0.0107374 0)
(0.077771 -0.0497251 0)
(-0.0441557 -0.0604866 0)
(-0.0706483 -0.0779988 0)
(0.311044 0.0700085 0)
(0.563227 0.17301 0)
(0.0522805 0.109069 0)
(-0.572249 0.0164334 0)
(-0.541425 0.0223336 0)
(-0.117506 0.0983953 0)
(0.0537784 0.0739886 0)
(0.0435518 0.046754 0)
(0.0146922 0.0275814 0)
(-0.00310399 0.017146 0)
(-0.00923348 0.00700328 0)
(-0.00935122 0.00224438 0)
(-0.00575993 0.00149904 0)
(-0.00177777 0.0010464 0)
(-0.000556604 0.0191154 0)
(-0.00247293 0.0176199 0)
(-0.00214339 0.0189658 0)
(0.000647562 0.0252084 0)
(0.00192749 0.0266167 0)
(0.00511191 0.0231084 0)
(0.00675442 0.0197644 0)
(0.000322779 0.0154664 0)
(-0.00115458 0.0110691 0)
(0.00474312 0.00752344 0)
(0.00381075 -0.00195616 0)
(0.00989987 -0.00533232 0)
(0.0294347 0.000518622 0)
(0.0414254 0.0102183 0)
(0.0792333 0.028508 0)
(0.185072 0.0621416 0)
(0.228563 0.0212374 0)
(0.193201 -0.0148163 0)
(0.16699 -0.0244161 0)
(0.150501 -0.0181607 0)
(0.183946 0.00281712 0)
(0.240593 0.0401746 0)
(0.183812 0.02207 0)
(0.044588 -0.0322803 0)
(-0.0600116 -0.0323256 0)
(0.0202621 -0.0151608 0)
(0.481504 0.333122 0)
(0.586092 0.373722 0)
(-0.0525484 0.17525 0)
(-0.617475 0.0447795 0)
(-0.493134 0.106054 0)
(-0.103741 0.191625 0)
(0.00910486 0.160277 0)
(0.00615107 0.122049 0)
(-0.00600939 0.0839748 0)
(-0.0165665 0.0512793 0)
(-0.0211799 0.0252803 0)
(-0.014757 0.0109023 0)
(-0.00677559 0.0032388 0)
(-0.00203106 0.00105935 0)
(-0.000438611 0.0359581 0)
(-0.000625252 0.0363086 0)
(-7.8234e-05 0.0388335 0)
(-0.000910327 0.0392016 0)
(-0.00305773 0.0371685 0)
(-0.0018577 0.0344175 0)
(0.000774412 0.0284803 0)
(0.000612005 0.0227577 0)
(0.00149863 0.0248253 0)
(-6.99267e-05 0.022678 0)
(-7.31184e-05 0.0146219 0)
(0.0127688 0.0207924 0)
(0.0345122 0.0284938 0)
(0.0587003 0.0294343 0)
(0.113912 0.0492198 0)
(0.179077 0.0759073 0)
(0.186996 0.0333007 0)
(0.175468 0.0127003 0)
(0.164296 0.00608459 0)
(0.15889 0.0107165 0)
(0.213561 0.0401438 0)
(0.246013 0.0811322 0)
(0.142483 0.0456426 0)
(0.0253535 0.0238362 0)
(-0.0276587 0.0544676 0)
(0.28151 0.214989 0)
(0.685786 0.533434 0)
(0.411096 0.354589 0)
(-0.264701 0.0386197 0)
(-0.638929 -0.0707139 0)
(-0.39992 0.0883073 0)
(-0.0652551 0.173326 0)
(-0.0132676 0.170471 0)
(-0.029976 0.163769 0)
(-0.0535038 0.146405 0)
(-0.0596641 0.10744 0)
(-0.0481422 0.064625 0)
(-0.0305913 0.0311493 0)
(-0.015245 0.0103631 0)
(-0.00387797 0.00223014 0)
(-0.000218831 0.0447515 0)
(0.000297975 0.0452142 0)
(0.000644387 0.0461821 0)
(-0.000956944 0.0465703 0)
(-0.00268265 0.0470539 0)
(-0.00326033 0.0480245 0)
(-0.0044814 0.0460765 0)
(-0.00319936 0.0419853 0)
(-0.00123136 0.039575 0)
(-0.00508921 0.0348005 0)
(0.00199375 0.0335331 0)
(0.0232673 0.0394639 0)
(0.0377623 0.046695 0)
(0.0613978 0.0491679 0)
(0.124016 0.0683345 0)
(0.169731 0.0636548 0)
(0.167654 0.0351476 0)
(0.166975 0.0382312 0)
(0.165078 0.0332483 0)
(0.183321 0.0514681 0)
(0.251801 0.130903 0)
(0.245892 0.145746 0)
(0.1286 0.140289 0)
(0.0530921 0.205547 0)
(0.12419 0.244326 0)
(0.481812 0.389472 0)
(0.616028 0.358422 0)
(0.109271 0.0863925 0)
(-0.462386 -0.147306 0)
(-0.569594 -0.181541 0)
(-0.257969 0.0445163 0)
(-0.0245657 0.0937849 0)
(-0.000104561 0.100751 0)
(-0.0170396 0.1133 0)
(-0.0602894 0.135081 0)
(-0.0953727 0.134517 0)
(-0.0946968 0.105886 0)
(-0.0670457 0.0630768 0)
(-0.0346432 0.0284991 0)
(-0.00986833 0.0100813 0)
(7.27279e-06 0.0526445 0)
(0.000753337 0.0530036 0)
(0.0012285 0.0530985 0)
(-7.02775e-05 0.0529262 0)
(-0.00165639 0.053473 0)
(-0.00279958 0.0538927 0)
(-0.00504514 0.0527391 0)
(-0.00565301 0.0506715 0)
(-0.00542496 0.04875 0)
(-0.00589218 0.0471528 0)
(0.00442075 0.0531184 0)
(0.0254521 0.0596906 0)
(0.0438633 0.0642213 0)
(0.079553 0.0789901 0)
(0.127872 0.0909084 0)
(0.147097 0.0792244 0)
(0.162497 0.0758636 0)
(0.173638 0.0910402 0)
(0.177051 0.118251 0)
(0.252994 0.225412 0)
(0.30441 0.329307 0)
(0.255057 0.344822 0)
(0.200109 0.313759 0)
(0.125608 0.291285 0)
(0.149578 0.281017 0)
(0.391457 0.290186 0)
(0.393728 0.0818532 0)
(-0.0762424 -0.14786 0)
(-0.522892 -0.249941 0)
(-0.454081 -0.172969 0)
(-0.134605 0.0219289 0)
(-0.0110655 0.0432243 0)
(0.00553787 0.0440765 0)
(0.00310631 0.0504867 0)
(-0.0330585 0.0735667 0)
(-0.0877978 0.101789 0)
(-0.116984 0.105587 0)
(-0.105164 0.0854446 0)
(-0.0663134 0.0526218 0)
(-0.021626 0.0259246 0)
(0.00012714 0.0700331 0)
(0.0007354 0.0701569 0)
(0.000569857 0.069292 0)
(-0.000596067 0.0679184 0)
(-0.00175136 0.0663127 0)
(-0.00396747 0.0641713 0)
(-0.00758544 0.061264 0)
(-0.00704342 0.058457 0)
(-0.00462205 0.0600463 0)
(-0.000879693 0.0659417 0)
(0.0140755 0.0791955 0)
(0.0339665 0.0962163 0)
(0.05636 0.112445 0)
(0.0871145 0.132262 0)
(0.124242 0.141432 0)
(0.155234 0.160299 0)
(0.17904 0.211084 0)
(0.207821 0.28652 0)
(0.294564 0.427645 0)
(0.386703 0.537153 0)
(0.366869 0.495471 0)
(0.230909 0.389403 0)
(0.0770093 0.269888 0)
(0.0215414 0.160453 0)
(0.123131 0.119661 0)
(0.28989 0.0970702 0)
(0.19391 -0.0602336 0)
(-0.210458 -0.261936 0)
(-0.486581 -0.310737 0)
(-0.307611 -0.112577 0)
(-0.0496374 0.00302375 0)
(-0.00322347 0.015078 0)
(0.00689371 0.0142904 0)
(0.0113783 0.0142416 0)
(-0.0108524 0.0221669 0)
(-0.0645168 0.0497716 0)
(-0.110447 0.0695988 0)
(-0.118085 0.0741602 0)
(-0.0919988 0.0656453 0)
(-0.0355947 0.0436446 0)
(0.000126635 0.0915909 0)
(3.9252e-05 0.0912375 0)
(-0.000928596 0.0889177 0)
(-0.00294125 0.0855848 0)
(-0.00526725 0.0818151 0)
(-0.00766466 0.0802558 0)
(-0.0105516 0.0863804 0)
(-0.00682644 0.100456 0)
(0.00178757 0.115522 0)
(0.0125606 0.145727 0)
(0.0335945 0.194083 0)
(0.0574926 0.242866 0)
(0.078598 0.288176 0)
(0.107486 0.334489 0)
(0.15489 0.388651 0)
(0.214216 0.468287 0)
(0.284128 0.569815 0)
(0.382323 0.644632 0)
(0.41857 0.6563 0)
(0.318353 0.530798 0)
(0.162033 0.322811 0)
(0.0376773 0.149922 0)
(-0.0205161 0.0661546 0)
(-0.0191568 0.0391867 0)
(0.0885005 0.0221826 0)
(0.218105 -0.0281186 0)
(0.047776 -0.155239 0)
(-0.317637 -0.317833 0)
(-0.378964 -0.27503 0)
(-0.15173 -0.0462553 0)
(-0.0115916 -0.000724818 0)
(-0.000208568 0.00392212 0)
(0.00473183 0.00308237 0)
(0.0106964 -0.000636067 0)
(0.00117955 7.21884e-05 0)
(-0.0420907 0.0164667 0)
(-0.0934827 0.0384731 0)
(-0.108974 0.0505565 0)
(-0.0957194 0.059385 0)
(-0.0428266 0.057163 0)
(-0.000213441 0.114145 0)
(-0.00184063 0.113012 0)
(-0.00487727 0.113053 0)
(-0.00744034 0.119425 0)
(-0.00688664 0.136655 0)
(0.000431747 0.166077 0)
(0.0118804 0.208472 0)
(0.0210382 0.269478 0)
(0.0390027 0.339169 0)
(0.074825 0.41515 0)
(0.107682 0.492369 0)
(0.124637 0.565714 0)
(0.144651 0.63884 0)
(0.183936 0.710179 0)
(0.253174 0.76403 0)
(0.32981 0.777938 0)
(0.348973 0.732143 0)
(0.291161 0.597666 0)
(0.18487 0.381775 0)
(0.0653406 0.173036 0)
(-0.000156145 0.0524408 0)
(-0.0164143 0.0100303 0)
(-0.0296996 0.000989917 0)
(-0.0208317 -0.00754864 0)
(0.0582727 -0.0183773 0)
(0.11892 -0.0867301 0)
(-0.085269 -0.255731 0)
(-0.325893 -0.323105 0)
(-0.224879 -0.151845 0)
(-0.04328 -0.0104406 0)
(-0.00128455 0.00265759 0)
(0.000445273 0.00297292 0)
(0.00250128 0.00153839 0)
(0.00847754 -0.00283782 0)
(0.00562844 -0.0030077 0)
(-0.0275122 0.00605842 0)
(-0.0775968 0.0252925 0)
(-0.0979335 0.0390795 0)
(-0.0856326 0.0484886 0)
(-0.0377359 0.0596973 0)
(-0.000965134 0.174252 0)
(-0.00101231 0.177953 0)
(0.00525111 0.193975 0)
(0.0198025 0.238715 0)
(0.0396887 0.30803 0)
(0.0615402 0.393757 0)
(0.0890895 0.484797 0)
(0.119118 0.57511 0)
(0.142162 0.667517 0)
(0.160189 0.737679 0)
(0.178683 0.776472 0)
(0.198638 0.793466 0)
(0.21781 0.793515 0)
(0.228124 0.764056 0)
(0.220185 0.696217 0)
(0.183489 0.550235 0)
(0.110412 0.362484 0)
(0.0446963 0.180154 0)
(0.00938131 0.0517551 0)
(0.000994638 -0.00381887 0)
(0.0049549 0.00100591 0)
(-0.0119027 -0.000701281 0)
(-0.0374559 -0.0121961 0)
(-0.0378198 -0.0247845 0)
(0.0121983 -0.0598238 0)
(-0.0106176 -0.172747 0)
(-0.180003 -0.320332 0)
(-0.217528 -0.235073 0)
(-0.0776695 -0.047219 0)
(-0.00284581 -0.000862586 0)
(0.00133413 0.00280507 0)
(-0.00128707 0.000669343 0)
(-0.000867603 -0.00127421 0)
(0.00631558 -0.00591875 0)
(0.00975228 -0.00769526 0)
(-0.0148196 -0.00201929 0)
(-0.0616624 0.0153993 0)
(-0.0866214 0.0343049 0)
(-0.0758512 0.0442398 0)
(-0.0320255 0.0542381 0)
(0.00335247 0.29565 0)
(0.0171644 0.318462 0)
(0.053675 0.369271 0)
(0.102468 0.443953 0)
(0.142517 0.526587 0)
(0.170771 0.596368 0)
(0.186639 0.643027 0)
(0.197113 0.665193 0)
(0.19566 0.663855 0)
(0.179818 0.639107 0)
(0.161441 0.59168 0)
(0.141061 0.527671 0)
(0.116311 0.452133 0)
(0.0901767 0.352678 0)
(0.0471288 0.238107 0)
(0.00821203 0.1249 0)
(-0.00765114 0.0378825 0)
(-0.00826792 0.00698275 0)
(0.00758698 0.00275273 0)
(0.0164368 0.0133439 0)
(0.00284808 0.00485437 0)
(-0.0291362 -0.0100806 0)
(-0.052907 -0.0247096 0)
(-0.0667274 -0.0545798 0)
(-0.084309 -0.140558 0)
(-0.132115 -0.283689 0)
(-0.145329 -0.278679 0)
(-0.0627121 -0.102956 0)
(0.000815494 0.000635936 0)
(0.00492498 0.00957223 0)
(0.000191676 0.00596991 0)
(-0.00348567 0.00167923 0)
(-0.00384725 -0.00170822 0)
(0.00228998 -0.00668066 0)
(0.00938611 -0.0137244 0)
(-0.00525745 -0.0144342 0)
(-0.0425934 0.00137007 0)
(-0.0701417 0.0259579 0)
(-0.0664243 0.0413285 0)
(-0.0281012 0.0507782 0)
(0.0210172 0.42024 0)
(0.0699316 0.443748 0)
(0.12618 0.477258 0)
(0.171398 0.505485 0)
(0.186561 0.51466 0)
(0.173746 0.495646 0)
(0.155412 0.448207 0)
(0.139188 0.38294 0)
(0.117025 0.302777 0)
(0.0906391 0.223855 0)
(0.071299 0.160608 0)
(0.064165 0.114038 0)
(0.0491804 0.0728894 0)
(0.0218812 0.0324269 0)
(0.000689192 -0.00134864 0)
(-0.00945526 -0.00309091 0)
(-0.00321766 0.00489531 0)
(0.010844 0.0221784 0)
(0.0155112 0.0282318 0)
(0.00301985 0.0158029 0)
(-0.0176178 -0.00399951 0)
(-0.0403916 -0.0247121 0)
(-0.0803369 -0.0578285 0)
(-0.149455 -0.141238 0)
(-0.20858 -0.259055 0)
(-0.143716 -0.290572 0)
(-0.00584262 -0.161585 0)
(0.0516296 -0.0317356 0)
(0.030767 0.0121819 0)
(0.0022942 0.0162357 0)
(-0.00627186 0.0107639 0)
(-0.00868599 0.00753084 0)
(-0.00892349 0.00387862 0)
(-0.00526366 -0.00328871 0)
(0.00228073 -0.0144733 0)
(-0.000273967 -0.0230197 0)
(-0.0227392 -0.0137962 0)
(-0.048116 0.00941925 0)
(-0.0519335 0.0296939 0)
(-0.0229194 0.0410233 0)
(0.0260056 0.379534 0)
(0.0721088 0.368241 0)
(0.113168 0.352951 0)
(0.13851 0.321522 0)
(0.133036 0.257985 0)
(0.106734 0.179767 0)
(0.0780313 0.11155 0)
(0.0569715 0.0497416 0)
(0.0423599 0.00232053 0)
(0.0428191 -0.0278463 0)
(0.0556173 -0.038538 0)
(0.0565313 -0.0392875 0)
(0.0376671 -0.0406828 0)
(0.0186382 -0.0316892 0)
(0.0129025 -0.0132854 0)
(0.0142289 0.00966385 0)
(0.0166993 0.0292398 0)
(0.01422 0.0323518 0)
(0.00144332 0.0230531 0)
(-0.0146225 0.00426414 0)
(-0.0361937 -0.0242288 0)
(-0.0810078 -0.0795977 0)
(-0.165196 -0.1764 0)
(-0.260637 -0.279089 0)
(-0.228213 -0.273327 0)
(-0.0381889 -0.16162 0)
(0.104095 -0.0906408 0)
(0.104736 -0.0469669 0)
(0.0470424 -0.0221081 0)
(0.00355852 -0.00508022 0)
(-0.00819667 0.000474432 0)
(-0.0101205 0.00631258 0)
(-0.0142734 0.00867358 0)
(-0.0153946 0.00355045 0)
(-0.00962734 -0.00764691 0)
(-0.00460496 -0.0230754 0)
(-0.0113341 -0.0263679 0)
(-0.0282331 -0.0109857 0)
(-0.0359695 0.00729997 0)
(-0.0171839 0.0172571 0)
(0.0101346 0.151941 0)
(0.0443149 0.132099 0)
(0.0811591 0.108925 0)
(0.0798856 0.0668493 0)
(0.0499608 0.00758584 0)
(0.0326357 -0.0545424 0)
(0.0301149 -0.0962456 0)
(0.0339307 -0.115318 0)
(0.0422585 -0.117768 0)
(0.0512663 -0.107148 0)
(0.0602738 -0.0956413 0)
(0.0620983 -0.0858396 0)
(0.0565025 -0.0665501 0)
(0.0482823 -0.033571 0)
(0.0405385 -0.00229612 0)
(0.0315235 0.0156525 0)
(0.0186453 0.0188191 0)
(0.00488226 0.0102459 0)
(-0.0115551 -0.00987148 0)
(-0.0425427 -0.0489452 0)
(-0.0984301 -0.123561 0)
(-0.187029 -0.231483 0)
(-0.272574 -0.31767 0)
(-0.242858 -0.279696 0)
(-0.0953821 -0.14322 0)
(0.032327 -0.0584999 0)
(0.104642 -0.0779456 0)
(0.11767 -0.0945578 0)
(0.0711305 -0.083184 0)
(0.0240556 -0.0590776 0)
(0.00470666 -0.0401819 0)
(-0.000784992 -0.0238716 0)
(-0.0115852 -0.0117523 0)
(-0.0209907 -0.00376553 0)
(-0.0233769 -0.00481535 0)
(-0.0183142 -0.0173206 0)
(-0.0110891 -0.0274098 0)
(-0.0156724 -0.0235205 0)
(-0.0247178 -0.00840821 0)
(-0.0133244 0.00152829 0)
(0.00688484 -0.0127404 0)
(0.0306566 -0.0238523 0)
(0.0502909 -0.0538131 0)
(0.0408568 -0.0982903 0)
(0.0160585 -0.129645 0)
(0.00667855 -0.143727 0)
(0.0194653 -0.146083 0)
(0.0362317 -0.14039 0)
(0.0502331 -0.134789 0)
(0.0641412 -0.127601 0)
(0.076151 -0.1186 0)
(0.0845647 -0.104714 0)
(0.0880351 -0.081727 0)
(0.0805557 -0.0553973 0)
(0.060336 -0.034636 0)
(0.0345763 -0.0273414 0)
(0.0114893 -0.0344481 0)
(-0.0134273 -0.0596604 0)
(-0.0555954 -0.114947 0)
(-0.124177 -0.201497 0)
(-0.212094 -0.296904 0)
(-0.268059 -0.341974 0)
(-0.211656 -0.268284 0)
(-0.0925304 -0.130274 0)
(-0.0150594 -0.0435135 0)
(0.0247117 -0.0379283 0)
(0.0693484 -0.0663297 0)
(0.0996881 -0.110163 0)
(0.0812324 -0.121366 0)
(0.0449969 -0.108204 0)
(0.0257291 -0.0892733 0)
(0.0172753 -0.0728064 0)
(0.00510156 -0.0545117 0)
(-0.00870986 -0.0316631 0)
(-0.0226895 -0.0159712 0)
(-0.0263778 -0.0126068 0)
(-0.0173086 -0.0176149 0)
(-0.00992244 -0.0252682 0)
(-0.0118316 -0.0148733 0)
(-0.00760871 -0.00639908 0)
(-0.000573273 -0.0347677 0)
(0.00473579 -0.0572646 0)
(0.00942794 -0.095863 0)
(0.00681108 -0.128915 0)
(0.00617616 -0.14013 0)
(0.0167957 -0.131292 0)
(0.0333305 -0.124431 0)
(0.044814 -0.124183 0)
(0.0545823 -0.125789 0)
(0.0668669 -0.128572 0)
(0.0823293 -0.131014 0)
(0.09763 -0.129989 0)
(0.104026 -0.124653 0)
(0.0936609 -0.119955 0)
(0.0675741 -0.119258 0)
(0.0317046 -0.129469 0)
(-0.0124985 -0.155127 0)
(-0.0726889 -0.210195 0)
(-0.148234 -0.285285 0)
(-0.217883 -0.345309 0)
(-0.2338 -0.33455 0)
(-0.15945 -0.231411 0)
(-0.0685726 -0.102946 0)
(-0.026261 -0.0344981 0)
(-0.00639414 -0.0187209 0)
(0.0103405 -0.0266363 0)
(0.0350334 -0.0471635 0)
(0.0646348 -0.0880615 0)
(0.0730187 -0.118899 0)
(0.0549816 -0.118205 0)
(0.0388168 -0.105362 0)
(0.0327126 -0.0939331 0)
(0.028062 -0.0799168 0)
(0.0161484 -0.0565031 0)
(-0.00501357 -0.034608 0)
(-0.0198981 -0.0194582 0)
(-0.0232901 -0.0115628 0)
(-0.0130305 -0.0144743 0)
(-0.00653481 -0.0159048 0)
(-0.00515837 -0.0221933 0)
(-0.014794 -0.0105136 0)
(-0.028217 -0.0205403 0)
(-0.0187538 -0.0474319 0)
(-0.00180026 -0.0655655 0)
(0.0137675 -0.0747314 0)
(0.0218064 -0.0770427 0)
(0.0263159 -0.0892797 0)
(0.0349234 -0.106795 0)
(0.0460043 -0.125074 0)
(0.059106 -0.137832 0)
(0.0747854 -0.141979 0)
(0.0906946 -0.143302 0)
(0.0977042 -0.147099 0)
(0.0857541 -0.155721 0)
(0.0511677 -0.175224 0)
(1.20617e-05 -0.209458 0)
(-0.0663013 -0.263684 0)
(-0.138852 -0.323197 0)
(-0.185796 -0.343596 0)
(-0.171651 -0.286523 0)
(-0.102338 -0.175109 0)
(-0.0448767 -0.0716077 0)
(-0.0219039 -0.0265447 0)
(-0.0113677 -0.0113091 0)
(-0.00748346 -0.00872707 0)
(-0.00269657 -0.0140736 0)
(0.0101568 -0.0271176 0)
(0.0305607 -0.0517259 0)
(0.0521846 -0.0821342 0)
(0.0580418 -0.0975726 0)
(0.0491188 -0.0909491 0)
(0.0417954 -0.0801333 0)
(0.0411705 -0.0710822 0)
(0.0349513 -0.0578188 0)
(0.0130083 -0.0420628 0)
(-0.00417061 -0.0286594 0)
(-0.0125059 -0.0148671 0)
(-0.0141065 -0.00859344 0)
(-0.0192699 -0.0214682 0)
(-0.0136685 -0.0148297 0)
(-0.0102353 0.00385371 0)
(-0.03084 0.0085844 0)
(-0.03396 0.00113171 0)
(-0.0194957 -0.0071956 0)
(-0.00488367 -0.0172315 0)
(0.00277648 -0.0265506 0)
(0.00466001 -0.0369795 0)
(0.0103214 -0.0490236 0)
(0.0246741 -0.0625099 0)
(0.0505767 -0.0711588 0)
(0.0770583 -0.071361 0)
(0.0926962 -0.0688001 0)
(0.0920581 -0.0692838 0)
(0.0665587 -0.0746593 0)
(0.0157909 -0.0892036 0)
(-0.0535385 -0.111371 0)
(-0.122101 -0.144775 0)
(-0.149695 -0.169277 0)
(-0.112893 -0.156027 0)
(-0.0555228 -0.0936231 0)
(-0.0266993 -0.0355164 0)
(-0.0162885 -0.0151306 0)
(-0.0104666 -0.00584934 0)
(-0.00909124 -0.00326166 0)
(-0.00905808 -0.003487 0)
(-0.00738127 -0.0048957 0)
(-0.00124976 -0.00834848 0)
(0.0116188 -0.0167327 0)
(0.0288392 -0.0280052 0)
(0.0464872 -0.0409591 0)
(0.055622 -0.0399958 0)
(0.0518571 -0.0342105 0)
(0.0495651 -0.0295545 0)
(0.0441126 -0.0254991 0)
(0.0230855 -0.0200475 0)
(0.00630861 -0.0150417 0)
(-0.00395382 -0.00917284 0)
(-0.0193915 -0.00616692 0)
(-0.0125443 -0.0146573 0)
(0.00123872 0.000812437 0)
(-0.0102353 -0.00385371 0)
(-0.03084 -0.0085844 0)
(-0.03396 -0.00113171 0)
(-0.0194957 0.0071956 0)
(-0.00488367 0.0172315 0)
(0.00277648 0.0265506 0)
(0.00466001 0.0369795 0)
(0.0103214 0.0490236 0)
(0.0246741 0.0625099 0)
(0.0505767 0.0711588 0)
(0.0770583 0.071361 0)
(0.0926962 0.0688001 0)
(0.0920581 0.0692838 0)
(0.0665587 0.0746593 0)
(0.0157909 0.0892036 0)
(-0.0535385 0.111371 0)
(-0.122101 0.144775 0)
(-0.149695 0.169277 0)
(-0.112893 0.156027 0)
(-0.0555228 0.0936231 0)
(-0.0266993 0.0355164 0)
(-0.0162885 0.0151306 0)
(-0.0104666 0.00584934 0)
(-0.00909124 0.00326166 0)
(-0.00905808 0.003487 0)
(-0.00738127 0.0048957 0)
(-0.00124976 0.00834848 0)
(0.0116188 0.0167327 0)
(0.0288392 0.0280052 0)
(0.0464872 0.0409591 0)
(0.055622 0.0399958 0)
(0.0518571 0.0342105 0)
(0.0495651 0.0295545 0)
(0.0441126 0.0254991 0)
(0.0230855 0.0200475 0)
(0.00630861 0.0150417 0)
(-0.00395382 0.00917284 0)
(-0.0193915 0.00616692 0)
(-0.0125443 0.0146573 0)
(0.00123872 -0.000812437 0)
(-0.014794 0.0105136 0)
(-0.028217 0.0205403 0)
(-0.0187538 0.0474319 0)
(-0.00180026 0.0655655 0)
(0.0137675 0.0747314 0)
(0.0218064 0.0770427 0)
(0.0263159 0.0892797 0)
(0.0349234 0.106795 0)
(0.0460043 0.125074 0)
(0.059106 0.137832 0)
(0.0747854 0.141979 0)
(0.0906946 0.143302 0)
(0.0977042 0.147099 0)
(0.0857541 0.155721 0)
(0.0511677 0.175224 0)
(1.20617e-05 0.209458 0)
(-0.0663013 0.263684 0)
(-0.138852 0.323197 0)
(-0.185796 0.343596 0)
(-0.171651 0.286523 0)
(-0.102338 0.175109 0)
(-0.0448767 0.0716077 0)
(-0.0219039 0.0265447 0)
(-0.0113677 0.0113091 0)
(-0.00748346 0.00872707 0)
(-0.00269657 0.0140736 0)
(0.0101568 0.0271176 0)