/*--------------------------------*- C++ -*----------------------------------*\
| =========                 |                                                 |
| \\      /  F ield         | OpenFOAM: The Open Source CFD Toolbox           |
|  \\    /   O peration     | Version:  v1912                                 |
|   \\  /    A nd           | Website:  www.openfoam.com                      |
|    \\/     M anipulation  |                                                 |
\*---------------------------------------------------------------------------*/
FoamFile
{
    version     2.0;
    format      ascii;
    class       volTensorField;
    location    "8.18";
    object      grad(U);
}
// * * * * * * * * * * * * * * * * * * * * * * * * * * * * * * * * * * * * * //

dimensions      [0 0 -1 0 0 0 0];


internalField   nonuniform List<tensor> 
1900
(
(-1.31205 -4.27783e-06 0 -2.56507e-06 -9.27998e-06 0 0 0 0)
(2.26458 -3.51179e-05 0 6.88081e-06 -5.34722e-06 0 0 0 0)
(0.0913306 -3.87493e-05 0 3.18817e-05 -6.22025e-05 0 0 0 0)
(-0.0198131 -1.87097e-05 0 8.73984e-06 -5.63792e-05 0 0 0 0)
(0.00801176 -0.000110236 0 -6.83832e-05 -0.000113164 0 0 0 0)
(0.0276273 -0.000354462 0 -0.000503715 -0.000347133 0 0 0 0)
(0.036273 0.00174939 0 -0.00125195 -0.000915149 0 0 0 0)
(0.0237329 0.0177965 0 -0.00126344 0.0025923 0 0 0 0)
(-0.0544489 0.0578052 0 0.0101446 0.0304802 0 0 0 0)
(-0.0512188 0.217709 0 0.0691617 0.118843 0 0 0 0)
(-1.31205 -1.03494e-05 0 -4.51667e-06 3.38105e-06 0 0 0 0)
(2.26461 -1.78046e-05 0 1.36033e-05 8.96776e-07 0 0 0 0)
(0.0913325 -1.22827e-05 0 3.9911e-05 3.8499e-05 0 0 0 0)
(-0.0199133 -3.22522e-05 0 -2.60956e-05 3.96461e-05 0 0 0 0)
(0.00749931 -0.000180518 0 -0.000146999 5.72086e-05 0 0 0 0)
(0.0264437 -0.000447522 0 -0.000785925 0.000149882 0 0 0 0)
(0.0355133 0.00119004 0 -0.00143157 0.00041167 0 0 0 0)
(0.0351294 0.0135988 0 -0.00054487 -0.00159951 0 0 0 0)
(0.0159763 0.0584455 0 0.0161277 -0.0173848 0 0 0 0)
(0.0777417 0.152303 0 0.109095 -0.0594047 0 0 0 0)
(-1.31204 -3.66882e-13 0 2.07083e-13 1.17979e-05 0 0 0 0)
(2.26462 2.03033e-13 0 -1.35525e-15 8.90089e-06 0 0 0 0)
(0.0912909 2.42938e-13 0 -1.90955e-13 4.7407e-05 0 0 0 0)
(-0.02 -7.00416e-14 0 -9.97466e-14 3.34662e-05 0 0 0 0)
(0.00725193 -5.65917e-15 0 -1.80249e-14 0.000111911 0 0 0 0)
(0.0263427 1.63068e-13 0 3.87602e-14 0.000394502 0 0 0 0)
(0.0365141 5.9007e-14 0 1.3146e-14 0.00100696 0 0 0 0)
(0.0412922 -1.04984e-13 0 -6.7085e-14 -0.00198558 0 0 0 0)
(0.0551912 -1.095e-13 0 4.49944e-14 -0.0261907 0 0 0 0)
(0.131871 -6.30686e-14 0 5.1093e-14 -0.118877 0 0 0 0)
(-1.31205 1.03494e-05 0 4.51667e-06 3.38105e-06 0 0 0 0)
(2.26461 1.78046e-05 0 -1.36033e-05 8.96777e-07 0 0 0 0)
(0.0913325 1.22827e-05 0 -3.9911e-05 3.8499e-05 0 0 0 0)
(-0.0199133 3.22522e-05 0 2.60956e-05 3.96461e-05 0 0 0 0)
(0.00749931 0.000180518 0 0.000146999 5.72086e-05 0 0 0 0)
(0.0264437 0.000447522 0 0.000785925 0.000149882 0 0 0 0)
(0.0355133 -0.00119004 0 0.00143157 0.00041167 0 0 0 0)
(0.0351294 -0.0135988 0 0.00054487 -0.00159951 0 0 0 0)
(0.0159763 -0.0584455 0 -0.0161277 -0.0173848 0 0 0 0)
(0.0777417 -0.152303 0 -0.109095 -0.0594047 0 0 0 0)
(-1.31205 4.27783e-06 0 2.56507e-06 -9.27998e-06 0 0 0 0)
(2.26458 3.51179e-05 0 -6.88081e-06 -5.34722e-06 0 0 0 0)
(0.0913306 3.87493e-05 0 -3.18817e-05 -6.22025e-05 0 0 0 0)
(-0.0198131 1.87097e-05 0 -8.73984e-06 -5.63792e-05 0 0 0 0)
(0.00801176 0.000110236 0 6.83832e-05 -0.000113164 0 0 0 0)
(0.0276273 0.000354462 0 0.000503715 -0.000347133 0 0 0 0)
(0.036273 -0.00174939 0 0.00125195 -0.000915149 0 0 0 0)
(0.0237329 -0.0177965 0 0.00126344 0.0025923 0 0 0 0)
(-0.0544489 -0.0578052 0 -0.0101446 0.0304802 0 0 0 0)
(-0.0512188 -0.217709 0 -0.0691617 0.118843 0 0 0 0)
(0.153506 0.460873 -2.5594e-17 0.276973 -0.272395 3.8391e-17 6.22297e-17 8.27804e-17 -6.93727e-33)
(0.503463 0.618949 0 0.317027 -0.514151 0 -1.72694e-16 -4.958e-17 0)
(0.777845 1.01561 0 0.296072 -0.842549 0 -2.75037e-16 -8.94e-17 0)
(1.46253 1.62052 0 0.338067 -1.50298 0 0 0 0)
(2.75007 1.89583 2.78261e-16 1.14426 -3.59835 -4.17392e-16 -2.32477e-15 -1.54985e-15 -7.54229e-32)
(0.212659 0.16508 0 0.196097 -0.215683 0 1.12279e-16 3.35586e-17 0)
(0.397807 0.179151 0 0.139979 -0.353098 0 1.72694e-16 4.958e-17 0)
(0.728173 0.433305 0 0.0394537 -0.655208 0 2.75037e-16 8.94e-17 0)
(1.67611 0.86497 0 -0.0907725 -1.36153 0 0 0 0)
(3.69618 0.576214 0 -0.209049 -3.13352 0 0 0 0)
(0.264715 -1.52665e-13 0 1.13429e-13 -0.31149 0 0 0 0)
(0.417236 8.30037e-14 0 1.21259e-13 -0.391313 0 0 0 0)
(0.717964 1.0375e-13 0 3.72694e-13 -0.668551 0 0 0 0)
(1.56608 -1.06826e-13 0 1.94048e-13 -1.40868 0 0 0 0)
(3.42691 1.15194e-13 0 3.82375e-13 -3.69005 0 0 0 0)
(0.212659 -0.16508 0 -0.196097 -0.215683 0 1.12279e-16 -3.35586e-17 0)
(0.397807 -0.179151 0 -0.139979 -0.353098 0 1.72694e-16 -4.958e-17 0)
(0.728173 -0.433305 0 -0.0394537 -0.655208 0 2.75037e-16 -8.94e-17 0)
(1.67611 -0.86497 0 0.0907725 -1.36153 0 0 0 0)
(3.69618 -0.576214 0 0.209049 -3.13352 0 0 0 0)
(0.153506 -0.460873 2.5594e-17 -0.276973 -0.272395 3.8391e-17 -2.86787e-16 1.49898e-16 -6.93727e-33)
(0.503463 -0.618949 0 -0.317027 -0.514151 0 -1.72694e-16 4.958e-17 0)
(0.777845 -1.01561 0 -0.296072 -0.842549 0 -2.75037e-16 8.94e-17 0)
(1.46253 -1.62052 1.01889e-16 -0.338067 -1.50298 1.52834e-16 -9.67339e-16 6.44893e-16 -2.76171e-32)
(2.75007 -1.89583 -2.78261e-16 -1.14426 -3.59835 -4.17392e-16 2.32477e-15 -1.54985e-15 -7.54229e-32)
(4.18624 -0.785638 -1.90023e-17 -0.0247686 4.57068 -1.7102e-16 2.28982e-15 -1.16853e-16 5.15057e-33)
(2.29354 -0.320086 9.04542e-18 0.550538 2.77773 8.14088e-17 -2.56521e-15 1.99525e-16 2.45177e-33)
(1.35105 -0.00175018 0 0.741209 2.26375 0 0 0 0)
(1.01118 0.0838526 -5.25584e-18 0.668094 2.09042 -4.73025e-17 2.38985e-15 -2.00347e-16 1.4246e-33)
(0.665972 0.576965 4.63067e-18 0.488038 1.72214 4.1676e-17 -1.13039e-15 1.25599e-16 1.25514e-33)
(4.32106 -0.959726 0 -0.749676 -0.72662 0 -1.14454e-15 -1.04005e-17 0)
(2.59369 -0.205873 0 0.329165 0.999144 0 1.2909e-15 -5.79346e-17 0)
(1.43625 -0.0143876 0 0.459883 1.38807 0 0 0 0)
(0.95016 -0.0652884 0 0.371201 1.40037 0 -1.50903e-15 7.53252e-17 0)
(0.5081 0.259293 0 0.166153 1.3933 0 2.87524e-16 -7.94308e-18 0)
(4.32502 3.92314e-14 0 1.36894e-13 0.762559 0 0 0 0)
(2.57232 -2.28771e-14 0 1.76067e-13 1.84905 0 0 0 0)
(1.33111 -3.4995e-14 0 -1.04405e-13 1.98145 0 0 0 0)
(0.868073 6.26348e-14 0 6.37766e-14 1.76118 0 6.08083e-16 4.03356e-31 0)
(0.509576 -5.1569e-14 0 -2.28253e-13 2.10995 0 -5.75048e-16 -2.53797e-30 0)
(4.32106 0.959726 0 0.749676 -0.72662 0 -1.14454e-15 1.04005e-17 0)
(2.59369 0.205873 0 -0.329165 0.999144 0 1.2909e-15 5.79346e-17 0)
(1.43625 0.0143876 0 -0.459883 1.38807 0 0 0 0)
(0.95016 0.0652884 0 -0.371201 1.40037 0 -1.50903e-15 -7.53252e-17 0)
(0.5081 -0.259293 0 -0.166153 1.3933 0 2.87524e-16 7.94308e-18 0)
(4.18624 0.785638 0 0.0247686 4.57068 0 1.14454e-15 -1.04005e-17 0)
(2.29354 0.320086 -9.04542e-18 -0.550538 2.77773 8.14088e-17 -1.65804e-17 8.36561e-17 2.45177e-33)
(1.35105 0.00175018 0 -0.741209 2.26375 0 0 0 0)
(1.01118 -0.0838526 5.25584e-18 -0.668094 2.09042 -4.73025e-17 2.01208e-17 -6.29566e-17 1.4246e-33)
(0.665972 -0.576965 -4.63067e-18 -0.488038 1.72214 4.1676e-17 1.13039e-15 1.25599e-16 1.25514e-33)
(0.296969 0.583246 0 -0.544566 -0.459331 0 0 0 0)
(0.202145 0.070773 0 -0.921174 -0.150596 0 0 0 0)
(0.0907235 -0.144418 0 -0.986816 0.0992998 0 0 0 0)
(0.0949345 -0.125356 0 -0.831585 0.12455 0 0 0 0)
(0.117592 -0.0711933 0 -0.698352 0.0633491 0 0 0 0)
(0.132087 0.00319983 0 -0.555561 0.0674229 0 0 0 0)
(0.196072 0.00536126 0 -0.405794 0.107588 0 0 0 0)
(0.255406 -0.00244344 0 -0.214297 0.239735 0 0 0 0)
(0.0851057 0.063501 0 -0.13605 0.289323 0 0 0 0)
(-0.334332 0.0964266 0 -0.0290992 0.0521212 0 0 0 0)
(-1.14567 0.0309845 0 -0.0891144 -0.0786976 0 0 0 0)
(-1.23539 -0.0301965 0 0.176074 0.0685107 0 0 0 0)
(-0.428991 -0.0357193 0 0.11198 0.0595103 0 0 0 0)
(-0.107411 -0.096515 0 0.224656 0.166622 0 0 0 0)
(-0.243642 -0.149939 0 0.231024 0.330583 0 0 0 0)
(-0.479871 -0.122757 0 0.144589 0.553587 0 0 0 0)
(-0.594944 -0.0473035 0 0.104485 0.73312 0 0 0 0)
(-0.598414 0.0386748 0 0.06463 0.752412 0 0 0 0)
(-0.599087 0.0786462 0 0.100101 0.691194 0 0 0 0)
(-0.598511 0.0650181 0 0.155678 0.563081 0 0 0 0)
(-0.62549 0.0512101 0 0.123935 0.440883 0 0 0 0)
(-0.792795 0.051153 0 0.0655072 0.321672 0 0 0 0)
(-1.13544 0.0464406 0 0.0675322 0.263716 0 0 0 0)
(-1.16941 0.0333837 0 0.0662984 0.192505 0 0 0 0)
(-0.597399 0.016555 0 0.020869 0.13806 0 0 0 0)
(-0.0955104 0.00384036 0 0.00337652 0.126034 0 0 0 0)
(0.0182609 0.00101801 0 0.00243416 0.124079 0 0 0 0)
(0.0212615 0.000836625 0 0.00231869 0.122535 0 0 0 0)
(-0.0152268 0.000466692 0 0.00177991 0.121627 0 0 0 0)
(-0.465949 -0.00114789 0 0.00169827 0.121151 0 0 0 0)
(-1.10146 -0.00223464 0 4.66475e-06 0.125878 0 0 0 0)
(-0.935762 -0.00102037 0 0.00230261 0.129522 0 0 0 0)
(-0.377748 0.000303717 0 0.00603215 0.130163 0 0 0 0)
(-0.167766 0.000176201 0 0.0095528 0.129389 0 0 0 0)
(-0.135416 -0.000748694 0 0.0122459 0.129958 0 0 0 0)
(-0.126706 -0.00520791 0 0.0127034 0.130902 0 0 0 0)
(-0.105161 -0.00875507 0 0.00559564 0.141216 0 0 0 0)
(-0.0861184 -0.00670514 0 -0.0163652 0.150196 0 0 0 0)
(-0.0903795 0.00789571 0 -0.0417783 0.160473 0 0 0 0)
(-0.0500912 0.0104776 0 -0.0506378 0.129539 0 0 0 0)
(0.0470177 0.465372 0 0.0433457 0.073426 0 0 0 0)
(0.0146984 0.154204 0 -0.539446 -0.409678 0 0 0 0)
(0.0944841 -0.0752844 0 -0.843456 -0.169856 0 0 0 0)
(0.142686 -0.150555 0 -0.602006 0.0867599 0 0 0 0)
(0.155557 -0.139468 0 -0.608238 0.261054 0 0 0 0)
(0.174952 -0.0597892 0 -0.497092 0.331487 0 0 0 0)
(0.24597 -0.00708075 0 -0.387503 0.250054 0 0 0 0)
(0.285372 0.00447279 0 -0.249094 0.313057 0 0 0 0)
(0.105046 0.0456276 0 -0.254304 0.258454 0 0 0 0)
(-0.336404 0.0872794 0 -0.165824 0.0947729 0 0 0 0)
(-1.11498 0.0680436 0 -0.260715 -0.0730126 0 0 0 0)
(-1.17943 -0.0126969 0 -0.0431566 -0.0117361 0 0 0 0)
(-0.399434 -0.0288478 0 0.00527643 0.0307879 0 0 0 0)
(-0.066948 -0.0424838 0 0.124911 0.111049 0 0 0 0)
(-0.224241 -0.0760482 0 0.176148 0.362558 0 0 0 0)
(-0.475476 -0.061769 0 0.161769 0.626463 0 0 0 0)
(-0.614064 -0.0259218 0 0.144 0.784537 0 0 0 0)
(-0.616026 0.0242862 0 0.14464 0.789069 0 0 0 0)
(-0.578894 0.0466384 0 0.219927 0.651592 0 0 0 0)
(-0.585474 0.0294832 0 0.306715 0.518722 0 0 0 0)
(-0.649404 0.0157718 0 0.280369 0.428092 0 0 0 0)
(-0.820025 0.0248881 0 0.157372 0.342688 0 0 0 0)
(-1.1519 0.0334297 0 0.038952 0.252254 0 0 0 0)
(-1.18544 0.018834 0 0.00964105 0.183048 0 0 0 0)
(-0.607407 0.00656749 0 0.00542972 0.137497 0 0 0 0)
(-0.0973703 0.00142396 0 0.00170476 0.12614 0 0 0 0)
(0.0183045 0.000491082 0 0.00152367 0.124296 0 0 0 0)
(0.0213245 0.000434862 0 0.00149919 0.122641 0 0 0 0)
(-0.0151498 0.000238781 0 0.00136613 0.12142 0 0 0 0)
(-0.465796 -0.000550467 0 0.00151248 0.121037 0 0 0 0)
(-1.10081 -0.00106349 0 0.00139568 0.125366 0 0 0 0)
(-0.934389 -0.000452669 0 0.00354623 0.128718 0 0 0 0)
(-0.375992 0.000176433 0 0.00778482 0.128873 0 0 0 0)
(-0.165952 2.88014e-05 0 0.0131884 0.127674 0 0 0 0)
(-0.134236 -0.000489043 0 0.0185543 0.128268 0 0 0 0)
(-0.12775 -0.00279624 0 0.0219892 0.130248 0 0 0 0)
(-0.110617 -0.00455005 0 0.0195086 0.14617 0 0 0 0)
(-0.0942851 -0.00333377 0 0.00651308 0.160343 0 0 0 0)
(-0.0955044 0.00412523 0 -0.00840388 0.169219 0 0 0 0)
(-0.0511528 0.00535047 0 -0.0143359 0.133202 0 0 0 0)
(0.0868851 -1.77777e-13 0 -5.51957e-14 0.24526 0 0 0 0)
(-0.0558339 -3.74869e-13 0 -1.00141e-12 -0.812819 0 0 0 0)
(0.0725241 -2.75646e-13 0 -6.07153e-13 -0.814895 0 0 0 0)
(0.163362 5.2112e-14 0 2.28668e-13 -0.295239 0 0 0 0)
(0.148113 9.27289e-14 0 4.10026e-13 0.220168 0 0 0 0)
(0.1963 1.76769e-13 0 5.83498e-13 0.6636 0 0 0 0)
(0.268217 2.59915e-13 0 4.49451e-13 0.631219 0 0 0 0)
(0.294155 1.74849e-13 0 1.49817e-13 0.71228 0 0 0 0)
(0.10933 -2.03357e-14 0 6.93889e-13 0.600468 0 0 0 0)
(-0.336197 2.58338e-13 0 3.8637e-13 0.398591 0 0 0 0)
(-1.10999 5.72503e-13 0 1.3247e-12 0.000422261 0 0 0 0)
(-1.15801 -2.17256e-13 0 1.93579e-12 -0.0692093 0 0 0 0)
(-0.380098 -8.8656e-13 0 -9.54098e-13 0.0877135 0 0 0 0)
(-0.0577025 -1.11631e-12 0 -6.03211e-13 0.12912 0 0 0 0)
(-0.23292 -1.63987e-13 0 -1.01718e-12 0.37979 0 0 0 0)
(-0.489223 2.22263e-12 0 -4.66404e-12 0.651951 0 0 0 0)
(-0.599928 4.18177e-12 0 -8.45678e-12 0.804452 0 0 0 0)
(-0.576326 4.65716e-12 0 -5.08984e-12 0.830163 0 0 0 0)
(-0.551938 9.00315e-13 0 -5.559e-13 0.637484 0 0 0 0)
(-0.580928 -6.07501e-12 0 3.03971e-12 0.509524 0 0 0 0)
(-0.668935 -8.35768e-12 0 8.61054e-12 0.434787 0 0 0 0)
(-0.863025 -1.57725e-12 0 9.61983e-12 0.401093 0 0 0 0)
(-1.17841 6.54297e-12 0 -2.85835e-13 0.263681 0 0 0 0)
(-1.17916 4.70129e-12 0 -6.2657e-12 0.171264 0 0 0 0)
(-0.599708 -1.80277e-12 0 6.95466e-12 0.134197 0 0 0 0)
(-0.0966467 -3.13507e-12 0 1.63853e-11 0.126112 0 0 0 0)
(0.0182011 -3.46949e-12 0 1.17508e-11 0.124408 0 0 0 0)
(0.0212157 -3.42545e-12 0 -1.21431e-12 0.122736 0 0 0 0)
(-0.0152229 1.87199e-13 0 -2.50608e-11 0.121418 0 0 0 0)
(-0.46594 8.2214e-13 0 -4.43853e-11 0.121094 0 0 0 0)
(-1.10087 7.68244e-13 0 -6.26551e-11 0.125202 0 0 0 0)
(-0.933904 4.56823e-12 0 -5.07382e-11 0.128406 0 0 0 0)
(-0.374943 3.80598e-12 0 -2.20241e-11 0.128314 0 0 0 0)
(-0.164633 -5.15115e-13 0 -3.80259e-12 0.127193 0 0 0 0)
(-0.132856 -7.77668e-13 0 -6.60378e-14 0.128116 0 0 0 0)
(-0.126428 1.46898e-13 0 9.05802e-13 0.130555 0 0 0 0)
(-0.109663 -2.46218e-12 0 5.4289e-12 0.147341 0 0 0 0)
(-0.0942384 -2.6268e-12 0 7.59336e-12 0.161837 0 0 0 0)
(-0.0964446 9.26433e-13 0 4.54281e-12 0.17026 0 0 0 0)
(-0.0518169 1.22632e-12 0 1.45086e-12 0.133476 0 0 0 0)
(0.0470177 -0.465372 0 -0.0433457 0.073426 0 0 0 0)
(0.0146984 -0.154204 0 0.539446 -0.409678 0 0 0 0)
(0.0944841 0.0752844 0 0.843456 -0.169856 0 0 0 0)
(0.142686 0.150555 0 0.602006 0.0867599 0 0 0 0)
(0.155557 0.139468 0 0.608238 0.261054 0 0 0 0)
(0.174952 0.0597892 0 0.497092 0.331487 0 0 0 0)
(0.24597 0.00708075 0 0.387503 0.250054 0 0 0 0)
(0.285372 -0.00447279 0 0.249094 0.313057 0 0 0 0)
(0.105046 -0.0456276 0 0.254304 0.258454 0 0 0 0)
(-0.336404 -0.0872794 0 0.165824 0.0947729 0 0 0 0)
(-1.11498 -0.0680436 0 0.260715 -0.0730126 0 0 0 0)
(-1.17943 0.0126969 0 0.0431566 -0.0117361 0 0 0 0)
(-0.399434 0.0288478 0 -0.00527643 0.0307879 0 0 0 0)
(-0.066948 0.0424838 0 -0.124911 0.111049 0 0 0 0)
(-0.224241 0.0760482 0 -0.176148 0.362558 0 0 0 0)
(-0.475476 0.061769 0 -0.161769 0.626463 0 0 0 0)
(-0.614064 0.0259218 0 -0.144 0.784537 0 0 0 0)
(-0.616026 -0.0242862 0 -0.14464 0.789069 0 0 0 0)
(-0.578894 -0.0466384 0 -0.219927 0.651592 0 0 0 0)
(-0.585474 -0.0294832 0 -0.306715 0.518722 0 0 0 0)
(-0.649404 -0.0157718 0 -0.280369 0.428092 0 0 0 0)
(-0.820025 -0.0248881 0 -0.157372 0.342688 0 0 0 0)
(-1.1519 -0.0334297 0 -0.038952 0.252254 0 0 0 0)
(-1.18544 -0.018834 0 -0.00964105 0.183048 0 0 0 0)
(-0.607407 -0.00656749 0 -0.00542972 0.137497 0 0 0 0)
(-0.0973703 -0.00142396 0 -0.00170476 0.12614 0 0 0 0)
(0.0183045 -0.000491082 0 -0.00152367 0.124296 0 0 0 0)
(0.0213245 -0.000434862 0 -0.00149919 0.122641 0 0 0 0)
(-0.0151498 -0.000238781 0 -0.00136613 0.12142 0 0 0 0)
(-0.465796 0.000550467 0 -0.00151248 0.121037 0 0 0 0)
(-1.10081 0.00106349 0 -0.00139568 0.125366 0 0 0 0)
(-0.934389 0.000452669 0 -0.00354623 0.128718 0 0 0 0)
(-0.375992 -0.000176433 0 -0.00778482 0.128873 0 0 0 0)
(-0.165952 -2.88014e-05 0 -0.0131884 0.127674 0 0 0 0)
(-0.134236 0.000489043 0 -0.0185543 0.128268 0 0 0 0)
(-0.12775 0.00279624 0 -0.0219892 0.130248 0 0 0 0)
(-0.110617 0.00455005 0 -0.0195086 0.14617 0 0 0 0)
(-0.0942851 0.00333377 0 -0.00651308 0.160343 0 0 0 0)
(-0.0955044 -0.00412523 0 0.00840388 0.169219 0 0 0 0)
(-0.0511528 -0.00535047 0 0.0143359 0.133202 0 0 0 0)
(0.296969 -0.583246 0 0.544566 -0.459331 0 0 0 0)
(0.202145 -0.070773 0 0.921174 -0.150596 0 0 0 0)
(0.0907235 0.144418 0 0.986816 0.0992998 0 0 0 0)
(0.0949345 0.125356 0 0.831585 0.12455 0 0 0 0)
(0.117592 0.0711933 0 0.698352 0.0633491 0 0 0 0)
(0.132087 -0.00319983 0 0.555561 0.0674229 0 0 0 0)
(0.196072 -0.00536126 0 0.405794 0.107588 0 0 0 0)
(0.255406 0.00244344 0 0.214297 0.239735 0 0 0 0)
(0.0851057 -0.063501 0 0.13605 0.289323 0 0 0 0)
(-0.334332 -0.0964266 0 0.0290992 0.0521212 0 0 0 0)
(-1.14567 -0.0309845 0 0.0891144 -0.0786976 0 0 0 0)
(-1.23539 0.0301965 0 -0.176074 0.0685107 0 0 0 0)
(-0.428991 0.0357193 0 -0.11198 0.0595103 0 0 0 0)
(-0.107411 0.096515 0 -0.224656 0.166622 0 0 0 0)
(-0.243642 0.149939 0 -0.231024 0.330583 0 0 0 0)
(-0.479871 0.122757 0 -0.144589 0.553587 0 0 0 0)
(-0.594944 0.0473035 0 -0.104485 0.73312 0 0 0 0)
(-0.598414 -0.0386748 0 -0.06463 0.752412 0 0 0 0)
(-0.599087 -0.0786462 0 -0.100101 0.691194 0 0 0 0)
(-0.598511 -0.0650181 0 -0.155678 0.563081 0 0 0 0)
(-0.62549 -0.0512101 0 -0.123935 0.440883 0 0 0 0)
(-0.792795 -0.051153 0 -0.0655072 0.321672 0 0 0 0)
(-1.13544 -0.0464406 0 -0.0675322 0.263716 0 0 0 0)
(-1.16941 -0.0333837 0 -0.0662984 0.192505 0 0 0 0)
(-0.597399 -0.016555 0 -0.020869 0.13806 0 0 0 0)
(-0.0955104 -0.00384036 0 -0.00337652 0.126034 0 0 0 0)
(0.0182609 -0.00101801 0 -0.00243416 0.124079 0 0 0 0)
(0.0212615 -0.000836625 0 -0.00231869 0.122535 0 0 0 0)
(-0.0152268 -0.000466692 0 -0.00177991 0.121627 0 0 0 0)
(-0.465949 0.00114789 0 -0.00169827 0.121151 0 0 0 0)
(-1.10146 0.00223464 0 -4.66469e-06 0.125878 0 0 0 0)
(-0.935762 0.00102037 0 -0.00230261 0.129522 0 0 0 0)
(-0.377748 -0.000303717 0 -0.00603215 0.130163 0 0 0 0)
(-0.167766 -0.000176201 0 -0.0095528 0.129389 0 0 0 0)
(-0.135416 0.000748694 0 -0.0122459 0.129958 0 0 0 0)
(-0.126706 0.00520791 0 -0.0127034 0.130902 0 0 0 0)
(-0.105161 0.00875507 0 -0.00559564 0.141216 0 0 0 0)
(-0.0861184 0.00670514 0 0.0163652 0.150196 0 0 0 0)
(-0.0903795 -0.00789571 0 0.0417783 0.160473 0 0 0 0)
(-0.0500912 -0.0104776 0 0.0506378 0.129539 0 0 0 0)
(0.0419433 0.024308 0 0.844724 0.0467542 0 0 0 0)
(0.0753753 0.0997423 0 0.639539 0.295838 0 0 0 0)
(0.0426354 0.167939 0 0.576169 0.212161 0 0 0 0)
(0.016952 0.15714 0 0.507951 0.0838261 0 0 0 0)
(0.026312 0.182576 0 0.401316 0.108233 0 0 0 0)
(0.0410019 0.16037 0 0.30052 0.116693 0 0 0 0)
(0.0895983 0.129554 0 0.19121 0.153339 0 0 0 0)
(0.150817 0.101528 0 0.0612675 0.325452 0 0 0 0)
(0.0119331 -0.142647 0 -0.102832 0.359089 0 0 0 0)
(-0.36824 -0.307552 0 -0.162397 0.196117 0 0 0 0)
(-1.20819 -0.100613 0 -0.255706 0.0822918 0 0 0 0)
(-1.24088 0.079157 0 -0.356008 0.147206 0 0 0 0)
(-0.395733 0.0824455 0 -0.172194 0.164362 0 0 0 0)
(-0.0948361 0.150047 0 -0.229736 0.18897 0 0 0 0)
(-0.151585 0.233345 0 -0.212732 0.298728 0 0 0 0)
(-0.39102 0.243752 0 -0.173948 0.525136 0 0 0 0)
(-0.586015 0.125916 0 -0.170163 0.705427 0 0 0 0)
(-0.63364 -0.0339489 0 -0.166324 0.735513 0 0 0 0)
(-0.612659 -0.128392 0 -0.135497 0.678267 0 0 0 0)
(-0.585351 -0.145409 0 -0.0876944 0.570913 0 0 0 0)
(-0.620493 -0.126225 0 -0.0602188 0.454777 0 0 0 0)
(-0.81613 -0.105652 0 -0.0628248 0.360318 0 0 0 0)
(-1.17144 -0.0994089 0 -0.0915831 0.274591 0 0 0 0)
(-1.17471 -0.0808316 0 -0.0962813 0.180702 0 0 0 0)
(-0.579509 -0.0367151 0 -0.0312908 0.133532 0 0 0 0)
(-0.0879571 -0.00739974 0 -0.00459037 0.125659 0 0 0 0)
(0.0190184 -0.00207643 0 -0.00231685 0.123834 0 0 0 0)
(0.0218078 -0.00150799 0 -0.00139562 0.122425 0 0 0 0)
(-0.0146716 -0.000843384 0 0.000343214 0.121919 0 0 0 0)
(-0.464506 0.00252605 0 0.00123287 0.121432 0 0 0 0)
(-1.10043 0.00496014 0 0.00677144 0.125834 0 0 0 0)
(-0.936583 0.00248421 0 0.00587819 0.129465 0 0 0 0)
(-0.37851 -0.000112691 0 0.00345802 0.130468 0 0 0 0)
(-0.167753 1.28739e-05 0 0.00274025 0.130264 0 0 0 0)
(-0.134847 0.00113785 0 0.00340199 0.131016 0 0 0 0)
(-0.124786 0.00706981 0 0.00450732 0.131185 0 0 0 0)
(-0.0986909 0.0117908 0 0.0075348 0.136479 0 0 0 0)
(-0.0740116 0.0115145 0 0.0173999 0.137967 0 0 0 0)
(-0.0799319 -0.0127237 0 0.0349597 0.151066 0 0 0 0)
(-0.046823 -0.0188263 0 0.0409402 0.129705 0 0 0 0)
(0.0103722 0.0110903 0 0.231149 0.776696 0 0 0 0)
(0.0113328 -0.00281718 0 0.150593 0.834156 0 0 0 0)
(-0.0102937 -0.0724968 0 0.098349 0.75547 0 0 0 0)
(-0.0317429 0.00816336 0 0.0893891 0.600689 0 0 0 0)
(-0.0333482 0.0431385 0 0.0795713 0.541324 0 0 0 0)
(-0.0215371 -0.0474456 0 0.0762022 0.354589 0 0 0 0)
(0.0226145 0.123461 0 0.0616673 0.265846 0 0 0 0)
(0.02814 0.14758 0 -0.0237097 0.320353 0 0 0 0)
(-0.0911878 -0.145693 0 -0.159732 0.212867 0 0 0 0)
(-0.463465 -0.249946 0 -0.192019 0.169218 0 0 0 0)
(-1.29872 -0.0407796 0 -0.387398 0.274516 0 0 0 0)
(-1.15196 0.0830285 0 -0.216381 0.217345 0 0 0 0)
(-0.325145 0.0509081 0 -0.079178 0.209001 0 0 0 0)
(-0.153217 0.19729 0 -0.214812 0.20603 0 0 0 0)
(-0.239248 0.429156 0 -0.359401 0.38233 0 0 0 0)
(-0.486495 0.449785 0 -0.517575 0.613205 0 0 0 0)
(-0.592386 0.207875 0 -0.563676 0.686147 0 0 0 0)
(-0.54612 -0.0673807 0 -0.477058 0.642755 0 0 0 0)
(-0.516038 -0.210586 0 -0.357416 0.571357 0 0 0 0)
(-0.533026 -0.237274 0 -0.268195 0.489358 0 0 0 0)
(-0.604204 -0.213922 0 -0.224808 0.40583 0 0 0 0)
(-0.810505 -0.195563 0 -0.209548 0.324525 0 0 0 0)
(-1.14837 -0.191122 0 -0.207291 0.236914 0 0 0 0)
(-1.10847 -0.14387 0 -0.157308 0.16008 0 0 0 0)
(-0.518636 -0.058786 0 -0.0422603 0.129546 0 0 0 0)
(-0.0716404 -0.0112769 0 -0.00636174 0.124706 0 0 0 0)
(0.0209333 -0.00356678 0 -0.00328862 0.123135 0 0 0 0)
(0.0235319 -0.00232193 0 -0.00178429 0.121676 0 0 0 0)
(-0.0129916 -0.00122188 0 0.000891537 0.12152 0 0 0 0)
(-0.460529 0.00418094 0 0.00238587 0.121072 0 0 0 0)
(-1.09754 0.00851405 0 0.0112087 0.124327 0 0 0 0)
(-0.938515 0.00470179 0 0.0107049 0.12727 0 0 0 0)
(-0.380363 0.000364186 0 0.0074213 0.128506 0 0 0 0)
(-0.167827 0.000250477 0 0.00627918 0.128746 0 0 0 0)
(-0.134018 0.00142719 0 0.00675352 0.13014 0 0 0 0)
(-0.123753 0.00947386 0 0.00691133 0.130945 0 0 0 0)
(-0.0962063 0.013663 0 0.00702491 0.135744 0 0 0 0)
(-0.0661828 0.0181823 0 0.00809707 0.131746 0 0 0 0)
(-0.0732975 -0.0132688 0 0.0190511 0.145194 0 0 0 0)
(-0.0460808 -0.0265854 0 0.0212883 0.132458 0 0 0 0)
(-0.0356833 0.0796787 0 -0.183803 0.590067 0 0 0 0)
(-0.0525955 0.0792879 0 -0.194137 0.586146 0 0 0 0)
(-0.016343 -0.0570376 0 -0.191289 0.582161 0 0 0 0)
(-0.00114289 -0.0492187 0 -0.170785 0.602156 0 0 0 0)
(0.0136045 -0.0545761 0 -0.142405 0.545518 0 0 0 0)
(0.0237489 -0.10509 0 -0.0951422 0.511287 0 0 0 0)
(-0.00668032 0.0965629 0 -0.0316023 0.525228 0 0 0 0)
(-0.0625312 0.0504744 0 -0.143393 0.451552 0 0 0 0)
(-0.150256 -0.288286 0 -0.343836 0.318179 0 0 0 0)
(-0.587627 -0.248145 0 -0.415605 0.324162 0 0 0 0)
(-1.23166 -0.0542352 0 -0.534583 0.346419 0 0 0 0)
(-0.943866 0.0160246 0 -0.0912819 0.276463 0 0 0 0)
(-0.394221 0.0715416 0 -0.0904154 0.324455 0 0 0 0)
(-0.364869 0.317072 0 -0.254668 0.421289 0 0 0 0)
(-0.443339 0.625714 0 -0.493882 0.634694 0 0 0 0)
(-0.587867 0.536522 0 -0.683772 0.726803 0 0 0 0)
(-0.546971 0.154392 0 -0.660129 0.625548 0 0 0 0)
(-0.434879 -0.144565 0 -0.542139 0.521017 0 0 0 0)
(-0.411391 -0.276211 0 -0.432141 0.453133 0 0 0 0)
(-0.457565 -0.304917 0 -0.345372 0.391661 0 0 0 0)
(-0.563978 -0.285064 0 -0.290785 0.328302 0 0 0 0)
(-0.79925 -0.268425 0 -0.268222 0.26177 0 0 0 0)
(-1.1211 -0.257874 0 -0.270671 0.191538 0 0 0 0)
(-1.01568 -0.184295 0 -0.196879 0.138118 0 0 0 0)
(-0.434051 -0.0708031 0 -0.048784 0.124895 0 0 0 0)
(-0.0504025 -0.0135775 0 -0.00817606 0.123009 0 0 0 0)
(0.0234294 -0.00499633 0 -0.00467179 0.121858 0 0 0 0)
(0.025836 -0.00306428 0 -0.0031482 0.120257 0 0 0 0)
(-0.0106531 -0.0014249 0 0.000200003 0.120285 0 0 0 0)
(-0.454564 0.00523092 0 0.00190412 0.119957 0 0 0 0)
(-1.09242 0.010933 0 0.0124432 0.122248 0 0 0 0)
(-0.940233 0.0065111 0 0.0114055 0.124778 0 0 0 0)
(-0.382775 0.00130933 0 0.00646524 0.126107 0 0 0 0)
(-0.168396 0.00158817 0 0.00380548 0.126828 0 0 0 0)
(-0.134238 0.00325711 0 0.00356715 0.129976 0 0 0 0)
(-0.124525 0.0124697 0 0.00252338 0.131999 0 0 0 0)
(-0.0975483 0.0125628 0 0.00290061 0.13746 0 0 0 0)
(-0.0624227 0.0206205 0 0.000773228 0.129551 0 0 0 0)
(-0.0672203 -0.0120383 0 0.00902872 0.139283 0 0 0 0)
(-0.044667 -0.0310992 0 0.0122323 0.131984 0 0 0 0)
(0.000414028 0.00731211 0 -0.38454 0.47968 0 0 0 0)
(0.00411818 -0.0104352 0 -0.343117 0.41541 0 0 0 0)
(0.0122087 -0.0570693 0 -0.310724 0.402665 0 0 0 0)
(0.0153641 -0.0271477 0 -0.29158 0.43979 0 0 0 0)
(0.0395439 -0.0444262 0 -0.276431 0.429569 0 0 0 0)
(0.0852362 -0.0669971 0 -0.26478 0.444506 0 0 0 0)
(-0.0238816 0.0658987 0 -0.21742 0.50456 0 0 0 0)
(-0.27274 -0.0519402 0 -0.395191 0.273675 0 0 0 0)
(-0.353501 -0.268451 0 -0.463839 0.249855 0 0 0 0)
(-0.647276 -0.222733 0 -0.61024 0.342115 0 0 0 0)
(-0.98619 -0.086744 0 -0.590623 0.332039 0 0 0 0)
(-0.723949 0.061863 0 -0.153234 0.381883 0 0 0 0)
(-0.482589 0.190468 0 -0.278008 0.437765 0 0 0 0)
(-0.542012 0.496247 0 -0.445567 0.667051 0 0 0 0)
(-0.652748 0.72356 0 -0.690565 0.875046 0 0 0 0)
(-0.646696 0.440973 0 -0.777419 0.732961 0 0 0 0)
(-0.455903 0.00957288 0 -0.655928 0.521169 0 0 0 0)
(-0.326422 -0.233526 0 -0.53463 0.406082 0 0 0 0)
(-0.326426 -0.335238 0 -0.446114 0.339107 0 0 0 0)
(-0.396811 -0.357566 0 -0.381571 0.292444 0 0 0 0)
(-0.52986 -0.33909 0 -0.33781 0.251719 0 0 0 0)
(-0.791122 -0.327353 0 -0.323056 0.204762 0 0 0 0)
(-1.07962 -0.310278 0 -0.326948 0.147924 0 0 0 0)
(-0.894653 -0.20809 0 -0.214643 0.1159 0 0 0 0)
(-0.336795 -0.0733455 0 -0.0477279 0.119861 0 0 0 0)
(-0.0291322 -0.0142029 0 -0.00917329 0.120488 0 0 0 0)
(0.0257783 -0.00621899 0 -0.00553175 0.119775 0 0 0 0)
(0.0282265 -0.00383799 0 -0.00381129 0.118078 0 0 0 0)
(-0.00812301 -0.00151013 0 0.000467215 0.118085 0 0 0 0)
(-0.448731 0.00607261 0 0.00266106 0.117895 0 0 0 0)
(-1.08838 0.013159 0 0.0158926 0.119278 0 0 0 0)
(-0.944276 0.00842035 0 0.0167397 0.121602 0 0 0 0)
(-0.387687 0.00234011 0 0.0124337 0.123014 0 0 0 0)
(-0.17062 0.00397861 0 0.0102037 0.123999 0 0 0 0)
(-0.135254 0.00641003 0 0.0114609 0.128894 0 0 0 0)
(-0.124395 0.0166856 0 0.0113048 0.130829 0 0 0 0)
(-0.0978928 0.011304 0 0.0147782 0.137215 0 0 0 0)
(-0.0602775 0.019939 0 0.012919 0.128625 0 0 0 0)
(-0.0622552 -0.0109241 0 0.0184303 0.134119 0 0 0 0)
(-0.0429937 -0.0336187 0 0.0208108 0.129772 0 0 0 0)
(0.00423357 0.0177466 0 -0.459514 0.395126 0 0 0 0)
(0.0185364 0.00507426 0 -0.46028 0.404299 0 0 0 0)
(0.0333198 -0.0335445 0 -0.449297 0.409103 0 0 0 0)
(0.0319028 -0.0232934 0 -0.438517 0.418683 0 0 0 0)
(0.03943 -0.050032 0 -0.442243 0.401585 0 0 0 0)
(0.0806144 -0.032826 0 -0.443986 0.434322 0 0 0 0)
(-0.132349 -0.0680554 0 -0.515284 0.441413 0 0 0 0)
(-0.29999 -0.194968 0 -0.590469 0.281644 0 0 0 0)
(-0.357485 -0.222335 0 -0.52669 0.230246 0 0 0 0)
(-0.709801 -0.16895 0 -0.633337 0.273488 0 0 0 0)
(-0.791276 -0.0159138 0 -0.541637 0.38729 0 0 0 0)
(-0.642619 0.117907 0 -0.381305 0.467461 0 0 0 0)
(-0.675923 0.34634 0 -0.578616 0.59205 0 0 0 0)
(-0.762424 0.738451 0 -0.776346 0.96649 0 0 0 0)
(-0.763124 0.689226 0 -0.923111 0.929486 0 0 0 0)
(-0.554489 0.195513 0 -0.796771 0.590753 0 0 0 0)
(-0.31301 -0.160601 0 -0.618455 0.384364 0 0 0 0)
(-0.232695 -0.320007 0 -0.510377 0.283064 0 0 0 0)
(-0.263898 -0.385716 0 -0.444757 0.227854 0 0 0 0)
(-0.353199 -0.389127 0 -0.400653 0.200611 0 0 0 0)
(-0.507591 -0.369558 0 -0.370404 0.180933 0 0 0 0)
(-0.788783 -0.368446 0 -0.370291 0.147821 0 0 0 0)
(-1.01663 -0.343504 0 -0.369661 0.103206 0 0 0 0)
(-0.74661 -0.211338 0 -0.208213 0.0985323 0 0 0 0)
(-0.236053 -0.0663822 0 -0.0417764 0.116125 0 0 0 0)
(-0.00974078 -0.0136606 0 -0.0106244 0.118005 0 0 0 0)
(0.0285964 -0.00731906 0 -0.00783937 0.117446 0 0 0 0)
(0.0316168 -0.00469204 0 -0.00605043 0.115881 0 0 0 0)
(-0.00441608 -0.00160142 0 -0.00143742 0.116017 0 0 0 0)
(-0.439699 0.00638008 0 0.000490556 0.116128 0 0 0 0)
(-1.07885 0.0145052 0 0.0131654 0.117733 0 0 0 0)
(-0.943566 0.0101114 0 0.013742 0.120316 0 0 0 0)
(-0.389073 0.0036197 0 0.00916649 0.12269 0 0 0 0)
(-0.169334 0.00725418 0 0.00648409 0.123489 0 0 0 0)
(-0.133177 0.00983869 0 0.00844544 0.129445 0 0 0 0)
(-0.121328 0.0204878 0 0.00828926 0.129559 0 0 0 0)
(-0.0959928 0.010439 0 0.0131757 0.135727 0 0 0 0)
(-0.0589035 0.017637 0 0.0120691 0.128724 0 0 0 0)
(-0.0596156 -0.0109329 0 0.0159601 0.131493 0 0 0 0)
(-0.0423731 -0.0352873 0 0.0172139 0.128553 0 0 0 0)
(-0.000323603 0.0161516 0 -0.565351 0.356666 0 0 0 0)
(0.0139641 0.00303329 0 -0.572555 0.351986 0 0 0 0)
(0.0331799 -0.0432088 0 -0.574899 0.349411 0 0 0 0)
(0.0221613 -0.0343924 0 -0.585962 0.361284 0 0 0 0)
(0.0342743 -0.0293553 0 -0.610826 0.346611 0 0 0 0)
(0.0148513 -0.0286174 0 -0.652645 0.35159 0 0 0 0)
(-0.165039 -0.0812273 0 -0.76921 0.277092 0 0 0 0)
(-0.28373 -0.255428 0 -0.670455 0.245038 0 0 0 0)
(-0.394811 -0.276311 0 -0.751826 0.226456 0 0 0 0)
(-0.66168 -0.0713997 0 -0.822326 0.358451 0 0 0 0)
(-0.743323 0.100176 0 -0.727556 0.508922 0 0 0 0)
(-0.759583 0.259177 0 -0.845308 0.617437 0 0 0 0)
(-0.863265 0.67135 0 -1.01002 0.973526 0 0 0 0)
(-0.87398 0.821413 0 -1.11166 1.10049 0 0 0 0)
(-0.672431 0.361486 0 -0.990199 0.701521 0 0 0 0)
(-0.353119 -0.0843274 0 -0.727509 0.390392 0 0 0 0)
(-0.179923 -0.286927 0 -0.559266 0.245113 0 0 0 0)
(-0.159041 -0.384345 0 -0.475528 0.164424 0 0 0 0)
(-0.220692 -0.414693 0 -0.434585 0.134162 0 0 0 0)
(-0.325161 -0.40278 0 -0.407064 0.128996 0 0 0 0)
(-0.500602 -0.38996 0 -0.391985 0.122743 0 0 0 0)
(-0.790407 -0.402254 0 -0.409874 0.092089 0 0 0 0)
(-0.923436 -0.357774 0 -0.388549 0.0632433 0 0 0 0)
(-0.578691 -0.195641 0 -0.177931 0.0925989 0 0 0 0)
(-0.146391 -0.0545804 0 -0.0325286 0.116766 0 0 0 0)
(0.00357074 -0.0129306 0 -0.00991513 0.119178 0 0 0 0)
(0.0301859 -0.0082663 0 -0.00737869 0.118735 0 0 0 0)
(0.0343957 -0.00521421 0 -0.00481321 0.117402 0 0 0 0)
(-0.00181988 -0.00127234 0 0.000642499 0.117518 0 0 0 0)
(-0.434659 0.00772601 0 0.00327355 0.117825 0 0 0 0)
(-1.07561 0.0171951 0 0.0189172 0.119121 0 0 0 0)
(-0.948129 0.0131972 0 0.0205706 0.122351 0 0 0 0)
(-0.394681 0.00539742 0 0.0146789 0.124799 0 0 0 0)
(-0.171314 0.0104873 0 0.0100078 0.125845 0 0 0 0)
(-0.133514 0.0122592 0 0.0108926 0.132553 0 0 0 0)
(-0.119837 0.0227393 0 0.00921105 0.130504 0 0 0 0)
(-0.0942504 0.0104997 0 0.0129853 0.134509 0 0 0 0)