/*--------------------------------*- C++ -*----------------------------------*\
| =========                 |                                                 |
| \\      /  F ield         | OpenFOAM: The Open Source CFD Toolbox           |
|  \\    /   O peration     | Version:  v1912                                 |
|   \\  /    A nd           | Website:  www.openfoam.com                      |
|    \\/     M anipulation  |                                                 |
\*---------------------------------------------------------------------------*/
FoamFile
{
    version     2.0;
    format      ascii;
    class       volScalarField;
    location    "8.18";
    object      rho;
}
// * * * * * * * * * * * * * * * * * * * * * * * * * * * * * * * * * * * * * //

dimensions      [1 -3 0 0 0 0 0];


internalField   nonuniform List<scalar> 
1900
(
17104.2
12059.2
12432.5
12673.1
12686.7
12652.4
12577.7
12484.9
12399.3
12358.3
17104.2
12059.1
12432.4
12673
12686.6
12653.1
12579.6
12482.8
12405.4
12347.9
17104.2
12059.1
12432.4
12672.9
12686.7
12653.6
12579.3
12477.8
12395.6
12332.4
17104.2
12059.1
12432.4
12673
12686.6
12653.1
12579.6
12482.8
12405.4
12347.9
17104.2
12059.2
12432.5
12673.1
12686.7
12652.4
12577.7
12484.9
12399.3
12358.3
12488.7
12293.4
12145.8
11786.8
11630.7
12311
12176.5
12050.1
11706.4
11218.9
12277.4
12153.8
12046.8
11749.3
11289.7
12311
12176.5
12050.1
11706.4
11218.9
12488.7
12293.4
12145.8
11786.8
11630.7
6136.31
4167.89
3225.06
2709.48
2176.29
6775.16
4493.55
3408.25
2853.33
2279.02
6965.49
4452.02
3336.29
2794.97
2203.97
6775.16
4493.55
3408.25
2853.33
2279.02
6136.31
4167.89
3225.06
2709.48
2176.29
2429.77
2586.99
2574.24
2534.57
2460.37
2359.1
2245.85
2062.38
1855.91
1852.86
2092.72
2919.42
3162.81
3115.12
2989.87
2920.74
2898.94
2899.56
2886.46
2778.35
2542.05
2221.3
1804.69
1334.2
1056.78
990.54
972.274
956.256
945.652
960.635
1174.13
1584.72
1840.51
1978.08
2087.73
2183.58
2272.93
2388.92
2531.99
2662.5
2200.46
2317.73
2421.58
2397.12
2323.5
2213.65
2107.8
1940.31
1774.13
1773.3
2020.32
2832.22
3094.7
3062.81
2957.37
2904.47
2895.29
2906.4
2894.27
2780.17
2541.86
2225.05
1811.16
1338.12
1057.51
990.508
972.232
956.216
945.602
960.56
1174.09
1584.62
1840.3
1977.85
2087.52
2183.53
2273.06
2389.17
2532.58
2663.29
2150.95
2210.72
2330.63
2339.57
2298.08
2198.08
2089.93
1918.81
1759.92
1762.7
1997.67
2793.18
3075.93
3047.08
2948.73
2901.04
2891.54
2905.72
2927.75
2821.85
2572.28
2231.82
1811.3
1337.32
1057.44
990.497
972.219
956.205
945.583
960.536
1174.1
1584.61
1840.2
1977.74
2087.43
2183.51
2273.13
2389.21
2532.5
2663.11
2200.46
2317.73
2421.58
2397.12
2323.5
2213.65
2107.8
1940.31
1774.13
1773.3
2020.32
2832.22
3094.7
3062.81
2957.37
2904.47
2895.29
2906.4
2894.27
2780.17
2541.86
2225.05
1811.16
1338.12
1057.51
990.508
972.232
956.216
945.602
960.56
1174.09
1584.62
1840.3
1977.85
2087.52
2183.53
2273.06
2389.17
2532.58
2663.29
2429.77
2586.99
2574.24
2534.57
2460.37
2359.1
2245.85
2062.38
1855.91
1852.86
2092.72
2919.42
3162.81
3115.12
2989.87
2920.74
2898.94
2899.56
2886.46
2778.35
2542.05
2221.3
1804.69
1334.2
1056.78
990.54
972.274
956.256
945.652
960.635
1174.13
1584.72
1840.51
1978.08
2087.73
2183.58
2272.93
2388.92
2531.99
2662.5
3339.93
3110.18
2929.37
2813.26
2687.55
2581.73
2470.31
2290.39
2067.6
2038.58
2306.65
3121.99
3308.23
3233.97
3083.58
2993.52
2951.39
2921.53
2880.3
2757.44
2528.19
2213.67
1796.04
1324.09
1053.79
990.572
972.472
956.463
945.913
960.971
1174.12
1584.95
1841.23
1978.85
2088.29
2183.53
2272.26
2387.99
2530.62
2661.4
3915.25
3576.81
3273.57
3048.38
2861.06
2731.27
2603.2
2440.61
2274.46
2276.64
2647.67
3327.27
3416.5
3263.22
3026.55
2925.97
2891.64
2870.5
2829.94
2697.78
2463.36
2154.39
1745.1
1293.02
1047.32
990.703
972.92
956.987
946.561
961.804
1174.04
1585.44
1842.91
1980.94
2090.25
2184.66
2271.82
2386.08
2527.88
2659.25
3960.72
3806.9
3624.87
3415.93
3205.89
2998.79
2790.82
2624.28
2461.23
2483.73
2951.12
3429.91
3445.76
3237.86
2986.45
2899.84
2854.47
2823.46
2769.51
2625.54
2390.35
2082.15
1675.07
1250.34
1039.1
991.117
973.677
957.888
947.584
963.132
1173.98
1585.83
1844.94
1983.7
2093.12
2186.8
2272.41
2384.77
2526.09
2658.24
3965.09
3742.04
3542.77
3340.42
3141.64
2914.76
2676.02
2596.88
2574.87
2664.74
3071.42
3350.97
3341
3115.99
2932.63
2865.74
2807.39
2770.72
2693.92
2529.15
2291.51
1987.36
1588.39
1202.41
1031.19
992.062
974.886
959.232
949.123
965.126
1174.69
1587.25
1848.22
1987.72
2097.35
2190.01
2274.23
2384.36
2525.09
2657.71
3955.73
3758.28
3554.53
3352.65
3162.8
2921.14
2712.26
2683.23
2740.86
2939.03
3208.62
3309.14
3199.28
2947.82
2859.34
2799.05
2749.06
2701.74
2593.54
2411.6
2176.6
1877.49
1490.33
1154.68
1025.06
993.692
976.67
961.119
951.244
967.759
1175.41
1588.03
1850.86
1991.09
2101.12
2192.85
2275.84
2383.35
2523.42
2656.68
3913.48
3731.89
3536.9
3335.04
3141.33
2939.85
2835.7
2812.68
2836.77
2944.3
3110.56
3100.82
2898.24
2803.47
2772.73
2712.94
2674.33
2605.58
2471.15
2282.93
2054.18
1756.99
1387.16
1113.12
1021.65
995.847
978.862
963.46
953.914
971.081
1177.65
1590.58
1854.41
1994.6
2104.93
2195.82
2277.84
2382.9
2522.03
2655.86
3824.38
3645.03
3454.69
3268.76
3114.14
2974.46
2893.46
2863.95
2853.79
2890.46
2901.87
2767.76
2679.86
2680.87
2638.39
2618.7
2582.54
2486.82
2335.47
2149.87
1926
1626.69
1286.06
1080.66
1019.26
996.918
979.866
964.645
955.482
973.171
1176.52
1588.3
1853.7
1994.03
2105.04
2196.17
2278.26
2381.74
2520.19
2654.58
3664.34
3494.05
3321.55
3166.91
3031.39
2905.32
2817.6
2757.15
2727.78
2714.24
2622.1
2516.15
2527.66
2534.17
2545.54
2529.87
2467.42
2349.2
2194.25
2014.03
1788.43
1489.24
1198.05
1059.04
1016.82
996.075
979.036
964.186
955.592
973.966
1175.09
1586.43
1854.68
1996.09
2106.63
2196.4
2278
2380.74
2518.77
2653.62
3431.11
3279.51
3115.62
2969
2853.89
2765.83
2690.67
2614.19
2551.29
2463.09
2350.59
2363.77
2429.77
2458.85
2457.38
2422.48
2330.4
2199.91
2049.76
1878.68
1651.62
1362.55
1141.15
1054.73
1025.02
1005.81
989.378
975.481
967.76
987.403
1188.97
1608.98
1886.62
2030.56
2140
2221.8
2289.65
2383.17
2518.03
2652.2
3166.09
3019.37
2877.38
2766.94
2676.13
2589.35
2485.11
2383.78
2307.12
2234.65
2249.03
2333.66
2359.59
2370.02
2353.51
2289.98
2193.05
2079.43
1949.07
1782.78
1555.95
1293.74
1139.34
1090.89
1069.4
1053.49
1039.87
1029.12
1023.54
1048.06
1272.65
1736.16
2030.58
2160.33
2240.58
2292.45
2342.35
2412.9
2526.47
2651.49
2928.23
2752.61
2619.45
2512.89
2406.78
2303
2226.24
2202.92
2196.85
2208.88
2245.23
2259.7
2277.89
2280.48
2257.76
2212.18
2146.31
2070.81
1983.78
1830.67
1597.34
1419.45
1355.97
1337.06
1326.99
1318.96
1310.6
1305.04
1304.42
1346.95
1652.04
2166.06
2440.16
2520.73
2542.09
2518.99
2483.98
2488.4
2557.3
2649.23
2698.62
2518.3
2374.35
2278.64
2218.16
2209.93
2212.41
2190.28
2176.49
2168.23
2189.66
2230.51
2280.7
2324.23
2351.67
2365.94
2375.61
2359.16
2265.69
2080.24
1873.52
1763.84
1732.32
1716.85
1702.98
1691.79
1679.99
1671.78
1676.02
1736.83
2080.5
2547.24
2775.93
2828.99
2845.19
2814.1
2731.42
2661.4
2648.56
2651.57
2582.88
2496.09
2419.65
2386.96
2365.5
2331.89
2279.07
2250.5
2249.38
2286.14
2385.26
2512.73
2641.95
2737.89
2782.43
2783.09
2741.82
2634.41
2436.18
2194.53
2038.12
1984.54
1960.41
1940.48
1921.2
1906.85
1892.69
1882.64
1891.48
1957.59
2284.73
2708.7
2928.93
2983.44
3014.92
3007.59
2935.68
2841.49
2767.6
2664.94
2652.8
2636.43
2657.94
2698.89
2748.84
2809.02
2878.21
2929.25
2946.17
2974.47
3033.05
3077.04
3090.69
3066.88
3008.28
2918.25
2788.12
2593.85
2362.91
2196.75
2133.25
2107.38
2087.16
2067.2
2048.32
2035.01
2021.73
2011.94
2022.46
2082.87
2360.37
2740.66
2960.57
3014.3
3053.87
3066.72
3015.18
2926.05
2835.54
2669.68
2737.96
2854.15
3010.79
3156.5
3297.48
3428.53
3565.2
3626.2
3587.17
3477.62
3359.4
3254.2
3148.72
3051.01
2963.8
2850.25
2674.63
2465.4
2311.64
2245.82
2222.75
2206.19
2187.34
2168.3
2151.21
2140.03
2129.19
2121.09
2129.35
2181.55
2395.55
2743.86
2978.83
3043.57
3083.33
3092.77
3042.33
2944.93
2829.36
2643.69
2803.5
2963.04
3161.01
3319.2
3462.73
3597.07
3729.87
3785.4
3732.25
3566.25
3357.61
3192.34
3071.82
2969.57
2850.73
2696.87
2523.46
2395.27
2333.47
2313.57
2302.56
2287.47
2268.64
2250.58
2235.3
2225.9
2217.19
2210.67
2213.3
2256.78
2402.44
2706.16
2959.02
3051.4
3088.84
3104.35
3064.08
2959.29
2818.79
2629.03
2764.57
2933.02
3125.76
3280.36
3432.96
3588.74
3739.44
3798.32
3716.16
3489.61
3236.73
3063.16
2944.74
2828.84
2688.74
2546.17
2442.51
2392.21
2376.09
2371.05
2363.69
2350.25
2333.6
2318.44
2306.03
2299.01
2292.83
2287.77
2285.96
2318.07
2405.31
2631.2
2876.84
2997.92
3036.96
3060.39
3040.05
2940.17
2775.81
2607.06
2711.82
2820.74
3012.04
3151.95
3308.11
3453.71
3577.17
3613.89
3508.62
3269.85
3044.44
2900.54
2788.77
2673.91
2560.19
2479.69
2443.02
2435.49
2439.65
2441.32
2438.34
2429.11
2416.5
2404.84
2395.04
2389.65
2384.89
2381.4
2378.72
2392.31
2446.93
2582.56
2781.07
2906.5
2937.82
2952.88
2936.39
2882.58
2750
2590.25
3013.51
2631.32
2841.04
2962.15
3112.62
3228.49
3308.54
3309.72
3194.97
3002.81
2857.14
2764.95
2687.61
2616.25
2554.63
2522.47
2518.22
2526.71
2534.88
2539.47
2540.7
2537.88
2532.3
2526.93
2522.24
2519.57
2516.76
2514.74
2513.08
2516.54
2536.96
2602.52
2721.07
2815.26
2824.7
2816.73
2775.91
2753.01
2656.78
2558.09
11926.5
2932.18
2711.19
2748.05
2830.94
2864.85
2859.88
2810.1
2735.37
2672.54
2639.55
2616.42
2599.17
2592.92
2596.83
2605.54
2613.78
2620.46
2625.84
2631.14
2636.3
2640.53
2643.67
2646.23
2648.03
2649.77
2650.3
2650.83
2650.93
2651.43
2650.65
2652.93
2659.02
2671.52
2649.7
2633.87
2612.83
2598.06
2557.19
4589.61
11926.5
2932.18
2711.19
2748.05
2830.94
2864.85
2859.88
2810.1
2735.37
2672.54
2639.55
2616.42
2599.17
2592.92
2596.83
2605.54
2613.78
2620.46
2625.84
2631.14
2636.3
2640.53
2643.67
2646.23
2648.03
2649.77
2650.3
2650.83
2650.93
2651.43
2650.65
2652.93
2659.02
2671.52
2649.7
2633.87
2612.83
2598.06
2557.19
4589.61
3013.51
2631.32
2841.04
2962.15
3112.62
3228.49
3308.54
3309.72
3194.97
3002.81
2857.14
2764.95
2687.61
2616.25
2554.63
2522.47
2518.22
2526.71
2534.88
2539.47
2540.7
2537.88
2532.3
2526.93
2522.24
2519.57
2516.76
2514.74
2513.08
2516.54
2536.96
2602.52
2721.07
2815.26
2824.7
2816.73
2775.91
2753.01
2656.78
2558.09
2711.82
2820.74
3012.04
3151.95
3308.11
3453.71
3577.17
3613.89
3508.62
3269.85
3044.44
2900.54
2788.77
2673.91
2560.19
2479.69
2443.02
2435.49
2439.65
2441.32
2438.34
2429.11
2416.5
2404.84
2395.04
2389.65
2384.89
2381.4
2378.72
2392.31
2446.93
2582.56
2781.07
2906.5
2937.82
2952.88
2936.39
2882.58
2750
2590.25
2764.57
2933.02
3125.76
3280.36
3432.96
3588.74
3739.44
3798.32
3716.16
3489.61
3236.73
3063.16
2944.74
2828.84
2688.74
2546.17
2442.51
2392.21
2376.09
2371.05
2363.69
2350.25
2333.6
2318.44
2306.03
2299.01
2292.83
2287.77
2285.96
2318.07
2405.31
2631.2
2876.84
2997.92
3036.96
3060.39
3040.05
2940.17
2775.81
2607.06
2803.5
2963.04
3161.01
3319.2
3462.73
3597.07
3729.87
3785.4
3732.25
3566.25
3357.61
3192.34
3071.82
2969.57
2850.73
2696.87
2523.46
2395.27
2333.47
2313.57
2302.56
2287.47
2268.64
2250.58
2235.3
2225.9
2217.19
2210.67
2213.3
2256.78
2402.44
2706.16
2959.02
3051.4
3088.84
3104.35
3064.08
2959.29
2818.79
2629.03
2737.96
2854.15
3010.79
3156.5
3297.48
3428.53
3565.2
3626.2
3587.17
3477.62
3359.4
3254.2
3148.72
3051.01
2963.8
2850.25
2674.63
2465.4
2311.64
2245.82
2222.75
2206.19
2187.34
2168.3
2151.21
2140.03
2129.19
2121.09
2129.35
2181.55
2395.55
2743.86
2978.83
3043.57
3083.33
3092.77
3042.33
2944.93
2829.36
2643.69
2652.8
2636.43
2657.94
2698.89
2748.84
2809.02
2878.21
2929.25
2946.17
2974.47
3033.05
3077.04
3090.69
3066.88
3008.28
2918.25
2788.12
2593.85
2362.91
2196.75
2133.25
2107.38
2087.16
2067.2
2048.32
2035.01
2021.73
2011.94
2022.46
2082.87
2360.37
2740.66
2960.57
3014.3
3053.87
3066.72
3015.18
2926.05
2835.54
2669.68
2582.88
2496.09
2419.65
2386.96
2365.5
2331.89
2279.07
2250.5
2249.38
2286.14
2385.26
2512.73
2641.95
2737.89
2782.43
2783.09
2741.82
2634.41
2436.18
2194.53
2038.12
1984.54
1960.41
1940.48
1921.2
1906.85
1892.69
1882.64
1891.48
1957.59
2284.73
2708.7
2928.93
2983.44
3014.92
3007.59
2935.68
2841.49
2767.6
2664.94
2698.62
2518.3
2374.35
2278.64
2218.16
2209.93
2212.41
2190.28
2176.49
2168.23
2189.66
2230.51
2280.7
2324.23
2351.67
2365.94
2375.61
2359.16
2265.69
2080.24
1873.52
1763.84
1732.32
1716.85
1702.98
1691.79
1679.99
1671.78
1676.02
1736.83
2080.5
2547.24
2775.93
2828.99
2845.19
2814.1
2731.42
2661.4
2648.56
2651.57
2928.23
2752.61
2619.45
2512.89
2406.78
2303
2226.24
2202.92
2196.85
2208.88
2245.23
2259.7
2277.89
2280.48
2257.76
2212.18
2146.31
2070.81
1983.78
1830.67
1597.34
1419.45
1355.97
1337.06
1326.99
1318.96
1310.6
1305.04
1304.42
1346.95
1652.04
2166.06
2440.16
2520.73
2542.09
2518.99
2483.98
2488.4
2557.3
2649.23
3166.09
3019.37
2877.38
2766.94
2676.13
2589.35
2485.11
2383.78
2307.12
2234.65
2249.03
2333.66
2359.59
2370.02
2353.51
2289.98
2193.05
2079.43
1949.07
1782.78
1555.95
1293.74
1139.34
1090.89
1069.4
1053.49
1039.87
1029.12
1023.54
1048.06
1272.65
1736.16
2030.58
2160.33
2240.58
2292.45
2342.35
2412.9
2526.47
2651.49
3431.11
3279.51
3115.62
2969
2853.89
2765.83
2690.67
2614.19
2551.29
2463.09
2350.59
2363.77
2429.77
2458.85
2457.38
2422.48
2330.4
2199.91
2049.76
1878.68
1651.62
1362.55
1141.15
1054.73
1025.02
1005.81
989.378
975.481
967.76
987.403
1188.97
1608.98
1886.62
2030.56
2140
2221.8
2289.65
2383.17
2518.03
2652.2
3664.34
3494.05
3321.55
3166.91
3031.39
2905.32
2817.6
2757.15
2727.78
2714.24
2622.1
2516.15
2527.66
2534.17
2545.54
2529.87
2467.42
2349.2
2194.25
2014.03
1788.43
1489.24
1198.05
1059.04
1016.82
996.075
979.036
964.186
955.592
973.966
1175.09
1586.43
1854.68
1996.09
2106.63
2196.4
2278
2380.74
2518.77
2653.62
3824.38
3645.03
3454.69
3268.76
3114.14
2974.46
2893.46
2863.95
2853.79
2890.46
2901.87
2767.76
2679.86
2680.87
2638.39
2618.7
2582.54
2486.82
2335.47
2149.87
1926
1626.69
1286.06
1080.66
1019.26
996.918
979.866
964.645
955.482
973.171
1176.52
1588.3
1853.7
1994.03
2105.04
2196.17
2278.26
2381.74
2520.19
2654.58
3913.48
3731.89
3536.9
3335.04
3141.33
2939.85
2835.7
2812.68
2836.77
2944.3
3110.56
3100.82
2898.24
2803.47
2772.73
2712.94
2674.33
2605.58
2471.15
2282.93
2054.18
1756.99
1387.16
1113.12
1021.65
995.847
978.862
963.46
953.914
971.081
1177.65
1590.58
1854.41
1994.6
2104.93
2195.82
2277.84
2382.9
2522.03
2655.86
3955.73
3758.28
3554.53
3352.65
3162.8
2921.14
2712.26
2683.23
2740.86
2939.03
3208.62
3309.14
3199.28
2947.82
2859.34
2799.05
2749.06
2701.74
2593.54
2411.6
2176.6
1877.49
1490.33
1154.68
1025.06
993.692
976.67
961.119
951.244
967.759
1175.41
1588.03
1850.86
1991.09
2101.12
2192.85
2275.84
2383.35
2523.42
2656.68
3965.09
3742.04
3542.77
3340.42
3141.64
2914.76
2676.02
2596.88
2574.87
2664.74
3071.42
3350.97
3341
3115.99
2932.63
2865.74
2807.39
2770.72
2693.92
2529.15
2291.51
1987.36
1588.39
1202.41
1031.19
992.062
974.886
959.232
949.123
965.126
1174.69
1587.25
1848.22
1987.72
2097.35
2190.01
2274.23
2384.36
2525.09
2657.71
3960.72
3806.9
3624.87
3415.93
3205.89
2998.79
2790.82
2624.28
2461.23
2483.73
2951.12
3429.91
3445.76
3237.86
2986.45
2899.84
2854.47
2823.46
2769.51
2625.54
2390.35
2082.15
1675.07
1250.34
1039.1
991.117
973.677
957.888
947.584
963.132
1173.98
1585.83
1844.94
1983.7
2093.12
2186.8
2272.41
2384.77
2526.09
2658.24
3915.25
3576.81
3273.57
3048.38
2861.06
2731.27
2603.2
2440.61
2274.46
2276.64
2647.67
3327.27
3416.5
3263.22
3026.55
2925.97
2891.64
2870.5
2829.94
2697.78
2463.36
2154.39
1745.1
1293.02
1047.32
990.703
972.92
956.987
946.561
961.804
1174.04
1585.44
1842.91
1980.94
2090.25
2184.66
2271.82
2386.08
2527.88
2659.25
3339.93
3110.18
2929.37
2813.26
2687.55
2581.73
2470.31
2290.39
2067.6
2038.58
2306.65
3121.99
3308.23
3233.97
3083.58
2993.52
2951.39
2921.53
2880.3
2757.44
2528.19
2213.67
1796.04
1324.09
1053.79
990.572
972.472
956.463
945.913
960.971
1174.12
1584.95
1841.23
1978.85
2088.29
2183.53
2272.26
2387.99
2530.62
2661.4
)
;

boundaryField
{
    inlet
    {
        type            calculated;
        value           uniform 14000.1;
    }
    outlet
    {
        type            calculated;
        value           nonuniform List<scalar> 
165
(
3442.7
4047.9
4087.74
4083.73
4051.82
4004.03
3914.44
3751.61
3508.66
3227.37
2976.97
2794.74
2683.69
2609.5
2581.43
2565.24
2576.26
2600.1
2916.58
3951.58
3951.58
3186.2
2681.36
2626.68
2585.13
2545.53
2519.05
2514.47
2541.75
2583.89
2613.79
2635.91
2656.38
2672.74
2684.24
2689.88
2692.69
2695.7
2700.03
2705.25
2711.08
2717.3
2722.96
2727.05
2729.65
2731.12
2732.08
2732.35
2732.2
2730.61
2725.84
2711.15
2679
2627.66
2594.2
2580.56
2591.68
2626.52
2915.19
3655.26
2745.56
2744.68
2743.42
2741.75
2740.08
2738.57
2737.15
2735.44
2733.32
2728.92
2720.88
2699.66
2659.78
2607.96
2583.09
2575.5
2588.44
2626.23
2923.19
3655.26
2746.69
2747
2747.27
2747
2746.69
3655.26
2923.19
2626.23
2588.44
2575.5
2583.09
2607.96
2659.78
2699.66
2720.88
2728.92
2733.32
2735.44
2737.15
2738.57
2740.08
2741.75
2743.42
2744.68
2745.56
3951.58
3186.2
2681.36
2626.68
2585.13
2545.53
2519.05
2514.47
2541.75
2583.89
2613.79
2635.91
2656.38
2672.74
2684.24
2689.88
2692.69
2695.7
2700.03
2705.25
2711.08
2717.3
2722.96
2727.05
2729.65
2731.12
2732.08
2732.35
2732.2
2730.61
2725.84
2711.15
2679
2627.66
2594.2
2580.56
2591.68
2626.52
2915.19
3655.26
3951.58
2916.58
2600.1
2576.26
2565.24
2581.43
2609.5
2683.69
2794.74
2976.97
3227.37
3508.66
3751.61
3914.44
4004.03
4051.82
4083.73
4087.74
4047.9
3442.7
)
;
    }
    obstacle
    {
        type            calculated;
        value           nonuniform List<scalar> 
40
(
17104.2
12059.2
12432.5
12673.1
12686.7
12652.4
12577.7
12484.9
12399.3
12358.3
17104.2
12059.2
12432.5
12673.1
12686.7
12652.4
12577.7
12484.9
12399.3
12358.3
12488.7
12293.4
12145.8
11786.8
11630.7
12488.7
12293.4
12145.8
11786.8
11630.7
6136.31
4167.89
3225.06
2709.48
2176.29
6136.31
4167.89
3225.06
2709.48
2176.29
)
;
    }
    empty
    {
        type            empty;
    }
}


// ************************************************************************* //
