/*--------------------------------*- C++ -*----------------------------------*\
| =========                 |                                                 |
| \\      /  F ield         | OpenFOAM: The Open Source CFD Toolbox           |
|  \\    /   O peration     | Version:  v1912                                 |
|   \\  /    A nd           | Website:  www.openfoam.com                      |
|    \\/     M anipulation  |                                                 |
\*---------------------------------------------------------------------------*/
FoamFile
{
    version     2.0;
    format      ascii;
    class       volVectorField;
    location    "1.5";
    object      grad(rho);
}
// * * * * * * * * * * * * * * * * * * * * * * * * * * * * * * * * * * * * * //

dimensions      [1 -4 0 0 0 0 0];


internalField   nonuniform List<vector> 
1900
(
(181.992 -0.0113275 0)
(801.004 0.00288464 0)
(1694.29 0.318066 0)
(1975.98 0.316939 0)
(1472.38 -0.932075 0)
(737.937 -4.50005 0)
(322.251 -10.653 0)
(158.176 -34.0212 0)
(17.3746 -90.5983 0)
(-499.614 -143.313 0)
(181.983 -0.0162039 0)
(801.333 0.0496567 0)
(1694.6 0.49392 0)
(1974.73 -0.371478 0)
(1467.56 -3.85004 0)
(728.216 -7.06186 0)
(292.73 -8.85074 0)
(78.2307 -27.7092 0)
(-91.9172 -63.5754 0)
(-52.6808 -117.018 0)
(182.025 7.67386e-09 0)
(801.514 -2.13163e-08 0)
(1693.87 2.55795e-08 0)
(1971.64 -4.81393e-09 0)
(1465.68 -1.03206e-08 0)
(732.936 -9.80549e-09 0)
(301.604 -1.29674e-09 0)
(103.451 1.36779e-09 0)
(-71.9345 2.25597e-09 0)
(-78.9258 -4.08562e-10 0)
(181.983 0.0162039 0)
(801.333 -0.0496568 0)
(1694.6 -0.49392 0)
(1974.73 0.371478 0)
(1467.56 3.85004 0)
(728.216 7.06186 0)
(292.73 8.85074 0)
(78.2307 27.7092 0)
(-91.9172 63.5754 0)
(-52.6808 117.018 0)
(181.992 0.0113276 0)
(801.004 -0.00288465 0)
(1694.29 -0.318066 0)
(1975.98 -0.316939 0)
(1472.38 0.932075 0)
(737.937 4.50005 0)
(322.251 10.653 0)
(158.176 34.0212 0)
(17.3746 90.5983 0)
(-499.614 143.313 0)
(-342.471 273.979 1.437e-11)
(38.0935 300.699 -1.74957e-11)
(-1115.5 281.278 -2.21199e-11)
(-6184.21 982.257 0)
(-1654.09 7710.84 -8.97951e-11)
(147.042 280.613 1.44195e-11)
(-86.1211 222.556 1.74957e-11)
(-798.515 95.9726 2.21199e-11)
(-3071.88 386.56 0)
(-931.77 6557.9 0)
(125.954 1.28722e-10 0)
(-152.512 -2.33731e-10 0)
(-984.767 -6.51331e-09 0)
(-2970.45 -2.15316e-09 0)
(2480.81 -6.76707e-09 0)
(147.042 -280.613 1.44195e-11)
(-86.1211 -222.556 1.74957e-11)
(-798.515 -95.9726 2.21199e-11)
(-3071.88 -386.56 0)
(-931.77 -6557.9 0)
(-342.471 -273.979 -4.32089e-11)
(38.0935 -300.699 -1.74957e-11)
(-1115.5 -281.278 -2.21199e-11)
(-6184.21 -982.257 -5.9821e-11)
(-1654.09 -7710.84 8.97951e-11)
(9187.22 -3251.02 4.23579e-11)
(1448.62 -370.376 -3.59083e-11)
(2860.11 127.196 0)
(5354.49 567.718 2.83938e-11)
(-478.859 -6890.3 -1.3235e-11)
(6515.61 -3363.73 -2.113e-11)
(2262.12 -195.76 1.79486e-11)
(3181.92 96.8435 0)
(2250.61 -479.649 -1.77532e-11)
(-6591.66 -13087.4 3.15833e-12)
(7164.9 -7.08748e-09 0)
(2301.05 -5.16206e-09 0)
(2712.24 3.28955e-10 0)
(-488.804 -6.09534e-09 7.09551e-12)
(-9529.59 -9.76477e-09 -6.31666e-12)
(6515.61 3363.73 -2.113e-11)
(2262.12 195.76 1.79486e-11)
(3181.92 -96.8435 0)
(2250.61 479.649 -1.77532e-11)
(-6591.66 13087.4 3.15833e-12)
(9187.22 3251.02 2.113e-11)
(1448.62 370.376 1.11545e-14)
(2860.11 -127.196 0)
(5354.49 -567.718 1.70978e-14)
(-478.859 6890.3 1.3235e-11)
(-26984.3 -60680.8 0)
(-22476.4 2087.3 0)
(1486.01 2581.14 0)
(683.869 1313.73 0)
(1074.99 668.885 0)
(2134 269.455 0)
(3009.58 100.407 0)
(3895.99 53.9077 0)
(4369.93 32.0271 0)
(4545.57 28.6118 0)
(4322.95 28.076 0)
(3517.7 24.9773 0)
(2130.59 15.1718 0)
(793.265 4.47904 0)
(140.62 0.417326 0)
(8.26837 0.00794822 0)
(0.106937 2.12432e-05 0)
(0.000208644 6.91164e-09 0)
(4.44897e-08 -6.45948e-11 0)
(0 0 0)
(0 -6.45948e-11 0)
(-6.3093e-08 0 0)
(-0.000274101 -2.26082e-09 0)
(-0.133004 -9.9476e-09 0)
(-9.80437 1.13687e-08 0)
(-160.452 -7.29921e-09 0)
(-880.101 8.59111e-09 0)
(-2319.34 3.35893e-09 0)
(-3788.3 -3.35893e-09 0)
(-4654.45 -1.11103e-08 0)
(-4967.29 -5.81353e-10 0)
(-4975.72 6.78245e-10 0)
(-4820.62 2.03474e-09 0)
(-4569.2 2.32541e-09 0)
(-4286.92 -3.84339e-09 0)
(-3967.66 9.68922e-11 0)
(-3117.59 -4.39245e-09 0)
(-1128.54 -3.22974e-09 0)
(98301.7 -9.72152e-09 0)
(-140419 -2.77758e-08 0)
(-25463.2 -23566.7 0)
(-17832.3 5618.09 0)
(1464.81 2093.95 0)
(372.965 642.579 0)
(974.75 377.287 0)
(2068.91 33.2827 0)
(3009.49 51.5095 0)
(3887.3 29.9988 0)
(4366.33 14.7815 0)
(4545.14 12.1677 0)
(4322.58 12.4485 0)
(3516.31 10.9661 0)
(2128.64 6.49674 0)
(791.951 1.9489 0)
(140.22 0.187764 0)
(8.22994 0.00369658 0)
(0.106183 1.01944e-05 0)
(0.000206573 7.17002e-09 0)
(4.32947e-08 0 0)
(0 0 0)
(0 0 0)
(-6.35128e-08 0 0)
(-0.000274103 -2.58379e-10 0)
(-0.133004 -1.09165e-08 0)
(-9.80437 5.10299e-09 0)
(-160.452 -8.46192e-09 0)
(-880.101 7.493e-09 0)
(-2319.34 3.94028e-09 0)
(-3788.3 -1.21438e-08 0)
(-4654.45 -9.30165e-09 0)
(-4967.29 1.16271e-09 0)
(-4975.72 4.52164e-10 0)
(-4820.62 3.64961e-09 0)
(-4569.2 7.75138e-10 0)
(-4286.92 -1.61487e-09 0)
(-3967.66 1.97014e-09 0)
(-3117.59 -1.16271e-09 0)
(-1128.54 -1.97014e-09 0)
(98301.7 -4.52164e-09 0)
(-140419 6.45948e-10 0)
(-22436.7 -8.7203e-09 0)
(-15011.4 -5.45826e-09 0)
(38.5855 -1.06581e-09 0)
(184.476 4.74772e-09 0)
(897.745 6.45948e-11 0)
(2039.22 -1.42109e-09 0)
(3008.63 0 0)
(3885.31 1.55028e-09 0)
(4364.75 -3.7788e-09 0)
(4544.89 -5.87813e-09 0)
(4322.6 -3.22974e-10 0)
(3515.97 5.81353e-10 0)
(2127.97 5.81353e-09 0)
(791.429 -5.16758e-10 0)
(140.054 -1.61487e-09 0)
(8.21375 4.9738e-09 0)
(0.105862 9.68922e-10 0)
(0.000205679 9.68922e-10 0)
(4.24065e-08 0 0)
(0 0 0)
(0 0 0)
(-6.31737e-08 0 0)
(-0.000274104 3.87569e-10 0)
(-0.133004 -7.4284e-09 0)
(-9.80437 2.19622e-09 0)
(-160.452 -7.493e-09 0)
(-880.101 1.67946e-09 0)
(-2319.34 -3.22974e-10 0)
(-3788.3 -8.91408e-09 0)
(-4654.45 -5.81353e-10 0)
(-4967.29 3.10055e-09 0)
(-4975.72 -1.2919e-09 0)
(-4820.62 1.32419e-09 0)
(-4569.2 3.90799e-09 0)
(-4286.92 6.75016e-09 0)
(-3967.66 2.09933e-09 0)
(-3117.59 2.26082e-10 0)
(-1128.54 -4.19866e-10 0)
(98301.7 -5.81353e-10 0)
(-140419 3.50104e-08 0)
(-25463.2 23566.7 0)
(-17832.3 -5618.09 0)
(1464.81 -2093.95 0)
(372.965 -642.579 0)
(974.75 -377.287 0)
(2068.91 -33.2827 0)
(3009.49 -51.5095 0)
(3887.3 -29.9988 0)
(4366.33 -14.7815 0)
(4545.14 -12.1677 0)
(4322.58 -12.4485 0)
(3516.31 -10.9661 0)
(2128.64 -6.49674 0)
(791.951 -1.9489 0)
(140.22 -0.187764 0)
(8.22994 -0.00369657 0)
(0.106183 -1.01964e-05 0)
(0.000206573 -2.19622e-09 0)
(4.29878e-08 0 0)
(1.61487e-11 0 0)
(-1.61487e-11 0 0)
(-6.33998e-08 0 0)
(-0.000274105 5.03839e-09 0)
(-0.133004 -5.36137e-09 0)
(-9.80437 5.29677e-09 0)
(-160.452 -8.59111e-09 0)
(-880.101 -3.87569e-10 0)
(-2319.34 3.61731e-09 0)
(-3788.3 -3.87569e-10 0)
(-4654.45 3.22974e-10 0)
(-4967.29 4.58623e-09 0)
(-4975.72 4.45704e-09 0)
(-4820.62 1.80865e-09 0)
(-4569.2 9.43084e-09 0)
(-4286.92 8.94638e-09 0)
(-3967.66 9.04327e-10 0)
(-3117.59 -2.64839e-09 0)
(-1128.54 1.90555e-09 0)
(98301.7 2.09933e-09 0)
(-140419 1.52444e-08 0)
(-26984.3 60680.8 0)
(-22476.4 -2087.3 0)
(1486.01 -2581.14 0)
(683.869 -1313.73 0)
(1074.99 -668.885 0)
(2134 -269.455 0)
(3009.58 -100.407 0)
(3895.99 -53.9077 0)
(4369.93 -32.0271 0)
(4545.57 -28.6118 0)
(4322.95 -28.076 0)
(3517.7 -24.9773 0)
(2130.59 -15.1718 0)
(793.265 -4.47904 0)
(140.62 -0.417326 0)
(8.26837 -0.00794822 0)
(0.106937 -2.12437e-05 0)
(0.000208645 -5.03839e-09 0)
(4.30524e-08 0 0)
(0 0 0)
(0 0 0)
(-6.17042e-08 0 0)
(-0.000274106 4.78001e-09 0)
(-0.133004 2.90677e-09 0)
(-9.80437 1.93784e-09 0)
(-160.452 -4.26326e-09 0)
(-880.101 -6.45948e-10 0)
(-2319.34 3.10055e-09 0)
(-3788.3 2.90677e-09 0)
(-4654.45 -1.80865e-09 0)
(-4967.29 2.90677e-09 0)
(-4975.72 4.10177e-09 0)
(-4820.62 3.42352e-09 0)
(-4569.2 4.58623e-09 0)
(-4286.92 4.65083e-09 0)
(-3967.66 9.04327e-10 0)
(-3117.59 2.64839e-09 0)
(-1128.54 2.80987e-09 0)
(98301.7 5.94272e-09 0)
(-140419 5.29677e-09 0)
(105739 69935.9 0)
(-52145.1 -4138.98 0)
(1925.53 -2825.36 0)
(1212.99 -2131.79 0)
(1513.89 -1004.75 0)
(2350.25 -643.545 0)
(3144.6 -213.288 0)
(3920.14 -111.834 0)
(4378.03 -67.8073 0)
(4547.13 -58.2903 0)
(4324.43 -53.957 0)
(3522.79 -44.5538 0)
(2139.25 -25.5476 0)
(799.688 -7.18311 0)
(142.563 -0.643432 0)
(8.44727 -0.0118825 0)
(0.110297 -3.09102e-05 0)
(0.000217502 -8.26813e-09 0)
(4.60402e-08 0 0)
(0 0 0)
(0 0 0)
(-6.2323e-08 0 0)
(-0.000274103 3.90006e-11 0)
(-0.133004 4.48507e-09 0)
(-9.80437 -2.34004e-09 0)
(-160.452 -1.95003e-10 0)
(-880.101 -7.21512e-10 0)
(-2319.34 -7.37112e-09 0)
(-3788.3 6.4351e-10 0)
(-4654.45 -7.00061e-09 0)
(-4967.29 -3.84156e-09 0)
(-4975.72 -1.56003e-09 0)
(-4820.62 8.48264e-10 0)
(-4569.2 4.97258e-10 0)
(-4286.92 -2.61304e-09 0)
(-3967.66 -1.18952e-09 0)
(-3117.59 2.12553e-09 0)
(-1128.54 1.01402e-09 0)
(98301.7 -1.83303e-09 0)
(-140419 1.03742e-08 0)
(124338 36102.4 0)
(-76682.4 -3145.53 0)
(3184.53 -2511.96 0)
(2154.55 -1981.32 0)
(2273.77 -1158.92 0)
(2780.71 -742.912 0)
(3449.55 -352.518 0)
(4023.23 -203.818 0)
(4417.19 -131.796 0)
(4558.08 -105.61 0)
(4335.4 -88.3366 0)
(3542.35 -64.4859 0)
(2161.96 -33.1345 0)
(813.819 -8.62987 0)
(146.489 -0.73417 0)
(8.79244 -0.013313 0)
(0.116586 -3.75815e-05 0)
(0.000233682 -3.17034e-06 0)
(4.94138e-08 -3.1556e-06 0)
(0 -3.15544e-06 0)
(0 -3.1556e-06 0)
(-6.13285e-08 -3.1556e-06 0)
(-0.000274103 -3.15966e-06 0)
(-0.133004 -3.15535e-06 0)
(-9.80437 -3.16605e-06 0)
(-160.452 -3.14975e-06 0)
(-880.101 -3.14862e-06 0)
(-2319.34 -3.03372e-06 0)
(-3788.3 -2.77191e-06 0)
(-4654.45 -2.32514e-06 0)
(-4967.29 -1.785e-06 0)
(-4975.72 -1.24253e-06 0)
(-4820.62 -7.86984e-07 0)
(-4569.2 -4.55917e-07 0)
(-4286.92 -2.42701e-07 0)
(-3967.66 -1.22793e-07 0)
(-3117.59 -5.94077e-08 0)
(-1128.54 -2.94845e-08 0)
(98301.7 -6.63011e-09 0)
(-140419 2.73004e-10 0)
(135372 19770.3 0)
(-89355.3 -783.107 0)
(3047.4 -1612.12 0)
(2516.83 -1444.95 0)
(2707.26 -1055.63 0)
(3127.33 -671.189 0)
(3664.09 -425.453 0)
(4132.83 -280.068 0)
(4472.67 -198.382 0)
(4589.01 -152.087 0)
(4364.06 -115.843 0)
(3575.98 -76.3471 0)
(2193.07 -35.7618 0)
(830.91 -8.69997 0)
(150.866 -0.713551 0)
(9.15471 -0.0176952 0)
(0.123123 -0.00516659 0)
(0.000250676 -0.0051328 0)
(6.0373e-08 -0.00513277 0)
(1.95003e-11 -0.00513277 0)
(-1.75503e-10 -0.00513278 0)
(-6.62231e-08 -0.00513278 0)
(-0.000274103 -0.00513279 0)
(-0.133004 -0.00513277 0)
(-9.80437 -0.00513276 0)
(-160.452 -0.00513122 0)
(-880.101 -0.00510456 0)
(-2319.34 -0.0049606 0)
(-3788.3 -0.00459225 0)
(-4654.45 -0.00399007 0)
(-4967.29 -0.00323496 0)
(-4975.72 -0.00244274 0)
(-4820.62 -0.00171761 0)
(-4569.2 -0.00112747 0)
(-4286.92 -0.000694661 0)
(-3967.66 -0.00040983 0)
(-3117.59 -0.000225435 0)
(-1128.54 -0.000128984 0)
(98301.7 -3.62423e-05 0)
(-140419 -6.78478e-06 0)
(142742 11735.4 0)
(-97287.3 -70.1516 0)
(2546.76 -1141.22 0)
(2690.81 -1178.7 0)
(3019.39 -936.506 0)
(3387.97 -658.017 0)
(3826.45 -478.588 0)
(4242.05 -339.629 0)
(4540.51 -249.459 0)
(4637.61 -186.965 0)
(4408.39 -134.628 0)
(3619.52 -81.4374 0)
(2227.15 -34.552 0)
(847.593 -8.38338 0)
(154.855 -1.62181 0)
(9.47507 -1.06219 0)
(0.128691 -1.05257 0)
(0.000266266 -1.05254 0)
(7.18977e-08 -1.05254 0)
(-3.62706e-09 -1.05254 0)
(-6.0451e-10 -1.05254 0)
(-7.04546e-08 -1.05254 0)
(-0.000274096 -1.05254 0)
(-0.133004 -1.05254 0)
(-9.80437 -1.05254 0)
(-160.452 -1.05223 0)
(-880.1 -1.04731 0)
(-2319.34 -1.02171 0)
(-3788.3 -0.958528 0)
(-4654.45 -0.857048 0)
(-4967.29 -0.728609 0)
(-4975.72 -0.588661 0)
(-4820.62 -0.452055 0)
(-4569.2 -0.330632 0)
(-4286.92 -0.231064 0)
(-3967.66 -0.156457 0)
(-3117.59 -0.100252 0)
(-1128.54 -0.0672245 0)
(98301.7 -0.0229768 0)
(-140419 -0.0107145 0)
(147098 4701.05 0)
(-101764 9.98225 0)
(1979.16 -883.294 0)
(2714.09 -1078.91 0)
(3209.01 -924.372 0)
(3568.6 -726.574 0)
(3970.9 -565.194 0)
(4353.63 -429.155 0)
(4619.78 -320.606 0)
(4699.67 -231.316 0)
(4465.75 -159.027 0)
(3672.42 -103.467 0)
(2263.47 -63.6774 0)
(862.643 -43.3818 0)
(157.921 -38.7983 0)
(9.70325 -38.4655 0)
(0.13242 -38.4602 0)
(0.00027489 -38.4602 0)
(6.42145e-08 -38.4602 0)
(1.17002e-10 -38.4602 0)
(-1.20902e-09 -38.4602 0)
(-5.48934e-08 -38.4602 0)
(-0.00027411 -38.4602 0)
(-0.132999 -38.4602 0)
(-9.80407 -38.4601 0)
(-160.447 -38.4492 0)
(-880.071 -38.2828 0)
(-2319.25 -37.4589 0)
(-3788.15 -35.5175 0)
(-4654.23 -32.4982 0)
(-4967.03 -28.7078 0)
(-4975.46 -24.5003 0)
(-4820.37 -20.2123 0)
(-4568.99 -16.145 0)
(-4286.75 -12.5065 0)
(-3967.54 -9.47827 0)
(-3117.51 -6.90394 0)
(-1128.46 -5.27946 0)
(98301.7 -2.19271 0)
(-140419 -2.20394 0)
(147630 -259.194 0)
(-102669 -212.173 0)
(1497.46 -1013.25 0)
(2651.22 -1249.61 0)
(3358.91 -1088.41 0)
(3734.09 -881.482 0)
(4113.06 -700.358 0)
(4477.74 -579.117 0)
(4731.16 -508.125 0)
(4793.32 -457.915 0)
(4531.59 -418.479 0)
(3711.4 -392.871 0)
(2285.05 -379.69 0)
(871.567 -374.439 0)
(159.593 -373.525 0)
(9.80086 -373.495 0)
(0.133743 -373.495 0)
(0.000277386 -373.495 0)
(7.18197e-08 -373.495 0)
(7.03961e-09 -373.495 0)
(6.4351e-09 -373.495 0)
(-6.13675e-08 -373.495 0)
(-0.000273779 -373.495 0)
(-0.132851 -373.495 0)
(-9.7937 -373.493 0)
(-160.281 -373.386 0)
(-879.146 -371.838 0)
(-2316.67 -364.566 0)
(-3783.52 -348.31 0)
(-4647.89 -324.117 0)
(-4959.58 -294.5 0)
(-4967.54 -261.718 0)
(-4812.57 -227.688 0)
(-4561.78 -194.184 0)
(-4280.49 -162.449 0)
(-3962.26 -133.977 0)
(-3113.55 -107.76 0)
(-1124 -90.8993 0)
(98304.6 -45.9889 0)
(-140414 -88.0709 0)
(146722 -3061.2 0)
(-102490 -509.307 0)
(979.451 -1457.03 0)
(2641.67 -1459.93 0)
(3563.75 -1343.37 0)
(3942.54 -1272.52 0)
(4262.27 -1230.08 0)
(4538.87 -1219.11 0)
(4736.58 -1243.66 0)
(4786.05 -1288.96 0)
(4528.42 -1337.47 0)
(3709.8 -1379.87 0)
(2281.23 -1414.29 0)
(868.584 -1433.88 0)
(158.831 -1438.85 0)
(9.73244 -1439.25 0)
(0.13239 -1439.26 0)
(0.000273504 -1439.26 0)
(6.1738e-08 -1439.26 0)
(-5.14808e-09 -1439.26 0)
(-7.35162e-09 -1439.26 0)
(-6.70031e-08 -1439.26 0)
(-0.000270486 -1439.26 0)
(-0.131441 -1439.26 0)
(-9.69979 -1439.25 0)
(-158.852 -1438.82 0)
(-871.572 -1432.86 0)
(-2296.58 -1406.33 0)
(-3749.17 -1350.17 0)
(-4602.38 -1270.6 0)
(-4906.9 -1176.68 0)
(-4911.07 -1074.74 0)
(-4755.29 -969.284 0)
(-4506.12 -864.205 0)
(-4228.73 -761.866 0)
(-3914.84 -665.782 0)
(-3076 -574.198 0)
(-1068.94 -516.64 0)
(98304.5 -317.65 0)
(-140286 -976.807 0)
(144129 -7084.26 0)
(-101123 -1386.53 0)
(581.401 -2125.41 0)
(2760.75 -2065.88 0)
(3539.51 -2112.72 0)
(3843.27 -2191.63 0)
(4164.53 -2292.29 0)
(4464.65 -2390.34 0)
(4663.85 -2488.85 0)
(4702.92 -2602.26 0)
(4443.98 -2728.18 0)
(3637.38 -2849.89 0)
(2233.01 -2946.09 0)
(847.902 -2997.06 0)
(154.415 -3009.75 0)
(9.40598 -3010.74 0)
(0.126948 -3010.76 0)
(0.00025983 -3010.76 0)
(5.971e-08 -3010.76 0)
(6.88361e-09 -3010.76 0)
(2.63254e-09 -3010.76 0)
(-5.62779e-08 -3010.76 0)
(-0.000258137 -3010.76 0)
(-0.126295 -3010.76 0)
(-9.37253 -3010.75 0)
(-154.126 -3009.77 0)
(-847.84 -2996.81 0)
(-2236.99 -2942.1 0)
(-3652.73 -2832.56 0)
(-4480.71 -2685.06 0)
(-4770.84 -2517.99 0)
(-4767.68 -2341.93 0)
(-4609.69 -2162.98 0)
(-4361.9 -1985.75 0)
(-4089.29 -1812.32 0)
(-3781.42 -1645.93 0)
(-2969.83 -1487.88 0)
(-876.778 -1391.64 0)
(97861.2 -1032.86 0)
(-139125 -4277.55 0)
(138302 -12785 0)
(-97711.8 -2703.86 0)
(324.806 -2894.03 0)
(2653.9 -2927.28 0)
(3442.58 -3022.69 0)
(3769.5 -3098.41 0)
(4070.78 -3196.55 0)
(4349.46 -3328.29 0)
(4532.36 -3484.14 0)
(4555.43 -3656.1 0)
(4289.8 -3839.91 0)
(3499.81 -4020.01 0)
(2139.42 -4165.66 0)
(807.237 -4244.42 0)
(145.64 -4264.4 0)
(8.75578 -4265.99 0)
(0.116191 -4266.01 0)
(0.000233075 -4266.01 0)
(4.70543e-08 -4266.01 0)
(-1.11152e-09 -4266.01 0)
(-1.57953e-09 -4266.01 0)
(-5.14808e-08 -4266.01 0)
(-0.000232603 -4266.01 0)
(-0.115959 -4266.01 0)
(-8.73986 -4265.99 0)
(-145.421 -4264.43 0)
(-806.368 -4244.64 0)
(-2138.3 -4165.18 0)
(-3501.47 -4014.52 0)
(-4299.25 -3821.33 0)
(-4576.25 -3610.97 0)
(-4568.98 -3396 0)
(-4412.07 -3182.69 0)
(-4168.21 -2974.86 0)
(-3901.26 -2774.81 0)
(-3602.2 -2582.7 0)
(-2830.95 -2406.14 0)
(-630.457 -2298.26 0)
(95523.5 -2037.83 0)
(-134983 -9935.05 0)
(128648 -17419 0)
(-91591.5 -3489.09 0)
(366.104 -3217.89 0)
(2636.77 -3241.13 0)
(3374.6 -3331.81 0)
(3675.73 -3446.11 0)
(3943 -3584.9 0)
(4187.52 -3752.85 0)
(4347.96 -3947.01 0)
(4360.09 -4155.81 0)
(4093.3 -4370.96 0)
(3323.47 -4580.2 0)
(2016.76 -4753.08 0)
(752.748 -4849.33 0)
(133.636 -4874.32 0)
(7.85136 -4876.33 0)
(0.101128 -4876.37 0)
(0.000195756 -4876.37 0)
(4.14577e-08 -4876.37 0)
(1.73553e-09 -4876.37 0)
(-2.41804e-09 -4876.37 0)
(-4.51432e-08 -4876.37 0)
(-0.000195785 -4876.37 0)
(-0.101109 -4876.37 0)
(-7.84793 -4876.33 0)
(-133.553 -4874.34 0)
(-752.198 -4849.54 0)
(-2015.24 -4753.78 0)
(-3321.39 -4580.6 0)
(-4091.83 -4367.67 0)
(-4360.98 -4142.73 0)
(-4354.97 -3917.92 0)
(-4203.86 -3698.61 0)
(-3968.86 -3489.01 0)
(-3711.38 -3291.27 0)
(-3426.15 -3105.24 0)
(-2695.74 -2938.25 0)
(-521.863 -2831.49 0)
(90502.1 -2911.96 0)
(-127147 -15128.2 0)
(117353 -19312.6 0)
(-84027.1 -3675.67 0)
(563.751 -3143.13 0)
(2544.12 -3217.32 0)
(3245.05 -3344.32 0)
(3525.62 -3499.3 0)
(3775.19 -3666.17 0)
(4000.52 -3857.06 0)
(4144.06 -4063.07 0)
(4146.89 -4282.67 0)
(3880.85 -4507.27 0)
(3131.59 -4725.83 0)
(1880.08 -4910.34 0)
(690.403 -5016.11 0)
(119.619 -5044.05 0)
(6.78708 -5046.29 0)
(0.0835522 -5046.32 0)
(0.000153218 -5046.32 0)
(2.87337e-08 -5046.32 0)
(-2.23279e-09 -5046.32 0)
(-3.80256e-10 -5046.32 0)
(-2.96892e-08 -5046.32 0)
(-0.000153303 -5046.32 0)
(-0.0835812 -5046.32 0)
(-6.78783 -5046.29 0)
(-119.605 -5044.05 0)
(-690.188 -5016.2 0)
(-1879.15 -4910.88 0)
(-3129.41 -4727.14 0)
(-3877.29 -4508.78 0)
(-4142.85 -4283.08 0)
(-4141.01 -4060 0)
(-3998.76 -3845.26 0)
(-3775.68 -3639.94 0)
(-3531.45 -3454.67 0)
(-3262.01 -3277.24 0)
(-2567.16 -3119.8 0)
(-605.13 -3018.23 0)
(83673.9 -3423.53 0)
(-116905 -18144.9 0)
(105569 -19289.4 0)
(-76010 -3639.94 0)
(807.79 -3067.82 0)
(2442.89 -3125.29 0)
(3102.88 -3273.2 0)
(3365.59 -3427.25 0)
(3598.25 -3604.6 0)
(3805.04 -3794.82 0)
(3937.83 -4002.56 0)
(3932.04 -4218.85 0)
(3666.26 -4440.86 0)
(2935.06 -4658.93 0)
(1737.03 -4847.24 0)
(623.904 -4957.54 0)
(104.557 -4986.72 0)
(5.6565 -4989.01 0)
(0.0654653 -4989.05 0)
(0.000111503 -4989.05 0)
(1.90323e-08 -4989.05 0)
(-1.46252e-10 -4989.05 0)
(-2.14503e-10 -4989.05 0)
(-2.01926e-08 -4989.05 0)
(-0.000111545 -4989.05 0)
(-0.065485 -4989.05 0)
(-5.65757 -4989.01 0)
(-104.564 -4986.72 0)
(-623.87 -4957.56 0)
(-1736.69 -4847.48 0)
(-2933.91 -4659.86 0)
(-3663.91 -4442.97 0)
(-3928.51 -4222.48 0)
(-3933.07 -4007 0)
(-3799.08 -3798.64 0)
(-3592.48 -3606.98 0)
(-3361.88 -3426.41 0)
(-3103.46 -3265.56 0)
(-2446.14 -3103.23 0)
(-814.553 -3033.74 0)
(75925.5 -3575.24 0)
(-105495 -18896.4 0)
(94296.1 -19241.2 0)
(-68395.3 -3418.58 0)
(1059.69 -2966.89 0)
(2346.21 -2958.79 0)
(2954.07 -3122.87 0)
(3206.27 -3293.69 0)
(3420.99 -3453.46 0)
(3617.03 -3643.72 0)
(3735.44 -3838.68 0)
(3724.53 -4046.24 0)
(3456.77 -4258.77 0)
(2739.98 -4471.02 0)
(1592.33 -4658.3 0)
(555.998 -4769.22 0)
(89.2915 -4798.13 0)
(4.54583 -4800.31 0)
(0.0486387 -4800.34 0)
(7.54368e-05 -4800.34 0)
(1.18172e-08 -4800.34 0)
(-5.9476e-10 -4800.34 0)
(-4.38757e-10 -4800.34 0)
(-1.07252e-08 -4800.34 0)
(-7.54485e-05 -4800.34 0)
(-0.0486453 -4800.34 0)
(-4.54633 -4800.31 0)
(-89.2979 -4798.13 0)
(-556.012 -4769.22 0)
(-1592.27 -4658.35 0)
(-2739.61 -4471.39 0)
(-3455.82 -4259.98 0)
(-3722.74 -4048.83 0)
(-3732.58 -3842.95 0)
(-3613.28 -3650.14 0)
(-3416.99 -3462.47 0)
(-3202.44 -3304.29 0)
(-2950.58 -3133.54 0)
(-2343.77 -2966.19 0)
(-1059.97 -2972.18 0)
(68388.1 -3419.36 0)
(-94311.9 -19155.8 0)
(82722.4 -18376.5 0)
(-60327.5 -3119.48 0)
(1250.86 -2847.49 0)
(2292.59 -2771.09 0)
(2780.15 -2932.42 0)
(3047.01 -3098.9 0)
(3260.95 -3264.19 0)
(3433.83 -3430.75 0)
(3549.93 -3612.71 0)
(3527.23 -3802.89 0)
(3256.93 -4002.32 0)
(2550.05 -4205.83 0)
(1449.67 -4389.32 0)
(489.159 -4497.92 0)
(74.5995 -4525.32 0)
(3.52837 -4527.26 0)
(0.0343372 -4527.29 0)
(4.75707e-05 -4527.29 0)
(9.12615e-09 -4527.29 0)
(-2.67154e-09 -4527.29 0)
(-4.29007e-10 -4527.29 0)
(-7.20537e-09 -4527.29 0)
(-4.75666e-05 -4527.29 0)
(-0.0343382 -4527.29 0)
(-3.52849 -4527.26 0)
(-74.6019 -4525.32 0)
(-489.173 -4497.91 0)
(-1449.69 -4389.31 0)
(-2550.02 -4205.91 0)
(-3256.71 -4002.73 0)
(-3526.66 -3803.98 0)
(-3548.88 -3614.93 0)
(-3432.43 -3434.65 0)
(-3259.2 -3270 0)
(-3044.91 -3106.47 0)
(-2777.66 -2941.43 0)
(-2290.64 -2781.27 0)
(-1251.24 -2858.29 0)
(60330.3 -3129.54 0)
(-82736.9 -18378.2 0)
(72579 -17223.6 0)
(-53431 -2779.39 0)
(1395.42 -2651.62 0)
(2264.37 -2577.2 0)
(2638.17 -2712.38 0)
(2886.57 -2877.01 0)
(3101.21 -3042.27 0)
(3281.18 -3204.96 0)
(3376.84 -3370.45 0)
(3349.08 -3544.78 0)
(3068.48 -3730.29 0)
(2367.05 -3924.27 0)
(1310.87 -4101.68 0)
(424.944 -4204.88 0)
(61.0136 -4229.61 0)
(2.64985 -4231.24 0)
(0.0231163 -4231.26 0)
(2.81224e-05 -4231.26 0)
(5.37234e-09 -4231.26 0)
(-1.11152e-09 -4231.26 0)
(-3.90006e-11 -4231.26 0)
(-5.56734e-09 -4231.26 0)
(-2.81184e-05 -4231.26 0)
(-0.0231161 -4231.26 0)
(-2.64984 -4231.24 0)
(-61.014 -4229.61 0)
(-424.949 -4204.88 0)
(-1310.89 -4101.66 0)
(-2367.09 -3924.26 0)
(-3068.5 -3730.34 0)
(-3349.04 -3545.05 0)
(-3376.68 -3371.18 0)
(-3280.9 -3206.39 0)
(-3100.75 -3044.5 0)
(-2885.82 -2880.23 0)
(-2637.21 -2716.68 0)
(-2263.65 -2582.85 0)
(-1395.58 -2657.82 0)
(53432.5 -2784.61 0)
(-72583.9 -17232.2 0)
(62500.3 -15601.4 0)
(-46285.4 -2428.6 0)
(1445.7 -2405.71 0)
(2234.04 -2391.04 0)
(2491.25 -2471.78 0)
(2729.12 -2623.12 0)
(2944.93 -2762.86 0)
(3117.58 -2939.72 0)
(3222.46 -3102.5 0)
(3180.49 -3265.7 0)
(2891.24 -3434.98 0)
(2192.17 -3615.5 0)
(1179.27 -3784.25 0)
(365.872 -3879.77 0)
(49.2008 -3901.17 0)
(1.94708 -3902.46 0)
(0.0150777 -3902.48 0)
(1.59185e-05 -3902.48 0)
(2.25229e-09 -3902.48 0)
(9.36015e-10 -3902.48 0)
(-9.26265e-10 -3902.48 0)
(-4.22182e-09 -3902.48 0)
(-1.59186e-05 -3902.48 0)
(-0.0150775 -3902.48 0)
(-1.94707 -3902.46 0)
(-49.2006 -3901.17 0)
(-365.873 -3879.77 0)
(-1179.28 -3784.25 0)
(-2192.2 -3615.48 0)
(-2891.29 -3434.95 0)
(-3180.56 -3265.67 0)
(-3222.54 -3102.56 0)
(-3117.63 -2939.92 0)
(-2944.9 -2763.28 0)
(-2729.02 -2623.86 0)
(-2491.1 -2473.03 0)
(-2233.92 -2392.81 0)
(-1445.66 -2407.68 0)
(46285.9 -2430.11 0)
(-62501.1 -15604.8 0)
(54527.7 -13251.8 0)
(-40715.2 -2102.22 0)
(1431.61 -2187.83 0)
(2200.7 -2215.72 0)
(2414.53 -2243.18 0)
(2606.08 -2269.06 0)
(2796.13 -2287.76 0)
(2953.89 -2334.81 0)
(3062.71 -2436.87 0)
(3028.69 -2564.42 0)
(2731.39 -2697.23 0)
(2030.48 -2835.41 0)
(1056.2 -2966.63 0)
(312.273 -3045.12 0)
(39.1509 -3062.88 0)
(1.39497 -3063.86 0)
(0.00945172 -3063.87 0)
(8.53778e-06 -3063.87 0)
(1.88178e-09 -3063.87 0)
(-1.07252e-10 -3063.87 0)
(-5.75259e-10 -3063.87 0)
(-3.55881e-09 -3063.87 0)
(-8.53771e-06 -3063.87 0)
(-0.00945167 -3063.87 0)
(-1.39497 -3063.86 0)
(-39.1508 -3062.88 0)
(-312.272 -3045.12 0)
(-1056.21 -2966.62 0)
(-2030.49 -2835.4 0)
(-2731.41 -2697.2 0)
(-3028.74 -2564.37 0)
(-3062.77 -2436.79 0)
(-2953.95 -2334.71 0)
(-2796.18 -2287.66 0)
(-2606.12 -2269.02 0)
(-2414.56 -2243.22 0)
(-2200.67 -2215.86 0)
(-1431.53 -2187.99 0)
(40715.3 -2102.36 0)
(-54527.7 -13252.5 0)
(47221 -7099.73 0)
(-35623.7 -1381.84 0)
(1336.33 -1397.13 0)
(2180.7 -1500.61 0)
(2439.85 -1511.69 0)
(2686.16 -1459.8 0)
(2881.57 -1317.97 0)
(2973.9 -1119.64 0)
(3001.2 -867.419 0)
(2929.59 -677.563 0)
(2630.11 -665.8 0)
(1932.57 -862.725 0)
(977.189 -1127.42 0)
(273.12 -1262.3 0)
(31.1395 -1284.94 0)
(0.992573 -1285.91 0)
(0.00588121 -1285.92 0)
(4.55267e-06 -1285.92 0)
(-3.90006e-11 -1285.92 0)
(-1.46252e-10 -1285.92 0)
(-5.16758e-10 -1285.92 0)
(-2.78855e-09 -1285.92 0)
(-4.55175e-06 -1285.92 0)
(-0.00588121 -1285.92 0)
(-0.992571 -1285.91 0)
(-31.1395 -1284.94 0)
(-273.119 -1262.3 0)
(-977.189 -1127.42 0)
(-1932.57 -862.724 0)
(-2630.12 -665.791 0)
(-2929.61 -677.539 0)
(-3001.23 -867.371 0)
(-2973.93 -1119.57 0)
(-2881.6 -1317.88 0)
(-2686.19 -1459.69 0)
(-2439.87 -1511.57 0)
(-2180.7 -1500.49 0)
(-1336.28 -1397.04 0)
(35623.8 -1381.79 0)
(-47220.9 -7099.82 0)
(44022.4 232942 0)
(-35219.9 37994.4 0)
(1317.16 38366.5 0)
(2090.3 44078.2 0)
(2453.86 50388.6 0)
(2792.76 58485.2 0)
(3123.92 66178.9 0)
(3388.06 75142.8 0)
(3488.71 83527.8 0)
(3222.98 91858.7 0)
(2552.96 98825.4 0)
(1585.65 103284 0)
(671.157 104864 0)
(160.478 105038 0)
(16.4004 105030 0)
(0.456466 105030 0)
(0.00233403 105030 0)
(1.55378e-06 105030 0)
(4.29007e-10 105030 0)
(1.07252e-09 105030 0)
(-7.60512e-10 105030 0)
(-2.46679e-09 105030 0)
(-1.5509e-06 105030 0)
(-0.00233403 105030 0)
(-0.456466 105030 0)
(-16.4004 105030 0)
(-160.478 105038 0)
(-671.157 104864 0)
(-1585.65 103284 0)
(-2552.96 98825.4 0)
(-3222.99 91858.7 0)
(-3488.73 83527.8 0)
(-3388.08 75142.9 0)
(-3123.94 66179 0)
(-2792.78 58485.3 0)
(-2453.87 50388.8 0)
(-2090.3 44078.4 0)
(-1317.14 38366.6 0)
(35219.9 37994.5 0)
(-44022.3 232942 0)
(304945 -314984 0)
(-223123 -46962.9 0)
(7198.92 -50301.5 0)
(13765.7 -58365.4 0)
(16322.9 -67308.3 0)
(17902.3 -78589 0)
(18933.5 -89798.3 0)
(19691.9 -102545 0)
(19109.2 -114819 0)
(17670.9 -126982 0)
(13640.3 -137379 0)
(7751.24 -144438 0)
(2666.63 -147429 0)
(433.617 -148023 0)
(23.4159 -148065 0)
(0.288808 -148066 0)
(0.000499856 -148066 0)
(-8.19013e-10 -148066 0)
(3.35405e-09 -148066 0)
(-1.56003e-09 -148066 0)
(-1.01402e-09 -148066 0)
(-1.28702e-08 -148066 0)
(7.25412e-09 -148066 0)
(-0.000499786 -148066 0)
(-0.288808 -148066 0)
(-23.4159 -148065 0)
(-433.617 -148023 0)
(-2666.63 -147429 0)
(-7751.24 -144438 0)
(-13640.3 -137379 0)
(-17670.9 -126982 0)
(-19109.2 -114819 0)
(-19691.9 -102545 0)
(-18933.5 -89798.3 0)
(-17902.3 -78589 0)
(-16322.9 -67308.3 0)
(-13765.7 -58365.3 0)
(-7198.93 -50301.5 0)
(223123 -46962.8 0)
(-304945 -314984 0)
(304945 314984 0)
(-223123 46962.9 0)
(7198.92 50301.5 0)
(13765.7 58365.4 0)
(16322.9 67308.3 0)
(17902.3 78589 0)
(18933.5 89798.3 0)
(19691.9 102545 0)
(19109.2 114819 0)
(17670.9 126982 0)
(13640.3 137379 0)
(7751.24 144438 0)
(2666.63 147429 0)
(433.617 148023 0)
(23.4159 148065 0)
(0.288808 148066 0)
(0.000499744 148066 0)
(-2.57794e-08 148066 0)
(-2.14893e-08 148066 0)
(-1.14272e-08 148066 0)
(-3.00305e-09 148066 0)
(-3.70506e-09 148066 0)
(5.9281e-09 148066 0)
(-0.000499798 148066 0)
(-0.288808 148066 0)
(-23.4159 148065 0)
(-433.617 148023 0)
(-2666.63 147429 0)
(-7751.24 144438 0)
(-13640.3 137379 0)
(-17670.9 126982 0)
(-19109.2 114819 0)
(-19691.9 102545 0)
(-18933.5 89798.3 0)
(-17902.3 78589 0)
(-16322.9 67308.3 0)
(-13765.7 58365.3 0)
(-7198.93 50301.5 0)
(223123 46962.8 0)
(-304945 314984 0)
(44022.4 -232942 0)
(-35219.9 -37994.4 0)
(1317.16 -38366.5 0)
(2090.3 -44078.2 0)
(2453.86 -50388.6 0)
(2792.76 -58485.2 0)
(3123.92 -66178.9 0)
(3388.06 -75142.8 0)
(3488.71 -83527.8 0)
(3222.98 -91858.7 0)
(2552.96 -98825.4 0)
(1585.65 -103284 0)
(671.157 -104864 0)
(160.478 -105038 0)
(16.4004 -105030 0)
(0.456466 -105030 0)
(0.00233403 -105030 0)
(1.55235e-06 -105030 0)
(4.58257e-10 -105030 0)
(8.87264e-10 -105030 0)
(-1.09202e-09 -105030 0)
(-4.06582e-09 -105030 0)
(-1.55224e-06 -105030 0)
(-0.00233402 -105030 0)
(-0.456466 -105030 0)
(-16.4004 -105030 0)
(-160.478 -105038 0)
(-671.157 -104864 0)
(-1585.65 -103284 0)
(-2552.96 -98825.4 0)
(-3222.99 -91858.7 0)
(-3488.73 -83527.8 0)
(-3388.08 -75142.9 0)
(-3123.94 -66179 0)
(-2792.78 -58485.3 0)
(-2453.87 -50388.8 0)
(-2090.3 -44078.4 0)
(-1317.14 -38366.6 0)
(35219.9 -37994.5 0)
(-44022.3 -232942 0)
(47221 7099.73 0)
(-35623.7 1381.84 0)
(1336.33 1397.13 0)
(2180.7 1500.61 0)
(2439.85 1511.69 0)
(2686.16 1459.8 0)
(2881.57 1317.97 0)
(2973.9 1119.64 0)
(3001.2 867.419 0)
(2929.59 677.563 0)
(2630.11 665.8 0)
(1932.57 862.725 0)
(977.189 1127.42 0)
(273.12 1262.3 0)
(31.1395 1284.94 0)
(0.992573 1285.91 0)
(0.00588121 1285.92 0)
(4.55484e-06 1285.92 0)
(6.1426e-10 1285.92 0)
(6.82511e-11 1285.92 0)
(1.95003e-11 1285.92 0)
(-1.60878e-09 1285.92 0)
(-4.55231e-06 1285.92 0)
(-0.00588121 1285.92 0)
(-0.992571 1285.91 0)
(-31.1395 1284.94 0)
(-273.119 1262.3 0)
(-977.189 1127.42 0)
(-1932.57 862.724 0)
(-2630.12 665.791 0)
(-2929.61 677.539 0)
(-3001.23 867.371 0)
(-2973.93 1119.57 0)
(-2881.6 1317.88 0)
(-2686.19 1459.69 0)
(-2439.87 1511.57 0)
(-2180.7 1500.49 0)
(-1336.28 1397.04 0)
(35623.8 1381.79 0)
(-47220.9 7099.82 0)
(54527.7 13251.8 0)
(-40715.2 2102.22 0)
(1431.61 2187.83 0)
(2200.7 2215.72 0)
(2414.53 2243.18 0)
(2606.08 2269.06 0)
(2796.13 2287.76 0)
(2953.89 2334.81 0)
(3062.71 2436.87 0)
(3028.69 2564.42 0)
(2731.39 2697.23 0)
(2030.48 2835.41 0)
(1056.2 2966.63 0)
(312.273 3045.12 0)
(39.1509 3062.88 0)
(1.39497 3063.86 0)
(0.00945172 3063.87 0)
(8.53907e-06 3063.87 0)
(1.00427e-09 3063.87 0)
(0 3063.87 0)
(-3.51006e-10 3063.87 0)
(-2.67154e-09 3063.87 0)
(-8.53811e-06 3063.87 0)
(-0.00945167 3063.87 0)
(-1.39497 3063.86 0)
(-39.1508 3062.88 0)
(-312.272 3045.12 0)
(-1056.21 2966.62 0)
(-2030.49 2835.4 0)
(-2731.41 2697.2 0)
(-3028.74 2564.37 0)
(-3062.77 2436.79 0)
(-2953.95 2334.71 0)
(-2796.18 2287.66 0)
(-2606.12 2269.02 0)
(-2414.56 2243.22 0)
(-2200.67 2215.86 0)
(-1431.53 2187.99 0)
(40715.3 2102.36 0)
(-54527.7 13252.5 0)
(62500.3 15601.4 0)
(-46285.4 2428.6 0)
(1445.7 2405.71 0)
(2234.04 2391.04 0)
(2491.25 2471.78 0)
(2729.12 2623.12 0)
(2944.93 2762.86 0)
(3117.58 2939.72 0)
(3222.46 3102.5 0)
(3180.49 3265.7 0)
(2891.24 3434.98 0)
(2192.17 3615.5 0)
(1179.27 3784.25 0)
(365.872 3879.77 0)
(49.2008 3901.17 0)
(1.94708 3902.46 0)
(0.0150777 3902.48 0)
(1.59193e-05 3902.48 0)
(3.50031e-09 3902.48 0)
(4.97258e-10 3902.48 0)
(-7.70262e-10 3902.48 0)
(-1.97928e-09 3902.48 0)
(-1.59226e-05 3902.48 0)
(-0.0150775 3902.48 0)
(-1.94707 3902.46 0)
(-49.2006 3901.17 0)
(-365.873 3879.77 0)
(-1179.28 3784.25 0)
(-2192.2 3615.48 0)
(-2891.29 3434.95 0)
(-3180.56 3265.67 0)
(-3222.54 3102.56 0)
(-3117.63 2939.92 0)
(-2944.9 2763.28 0)
(-2729.02 2623.86 0)
(-2491.1 2473.03 0)
(-2233.92 2392.81 0)
(-1445.66 2407.68 0)
(46285.9 2430.11 0)
(-62501.1 15604.8 0)
(72579 17223.6 0)
(-53431 2779.39 0)
(1395.42 2651.62 0)
(2264.37 2577.2 0)
(2638.17 2712.38 0)
(2886.57 2877.01 0)
(3101.21 3042.27 0)
(3281.18 3204.96 0)
(3376.84 3370.45 0)