/*--------------------------------*- C++ -*----------------------------------*\
| =========                 |                                                 |
| \\      /  F ield         | OpenFOAM: The Open Source CFD Toolbox           |
|  \\    /   O peration     | Version:  v1912                                 |
|   \\  /    A nd           | Website:  www.openfoam.com                      |
|    \\/     M anipulation  |                                                 |
\*---------------------------------------------------------------------------*/
FoamFile
{
    version     2.0;
    format      ascii;
    class       volScalarField;
    location    "1.5";
    object      p;
}
// * * * * * * * * * * * * * * * * * * * * * * * * * * * * * * * * * * * * * //

dimensions      [1 -1 -2 0 0 0 0];


internalField   nonuniform List<scalar> 
1900
(
10002.3
10034.1
10163
10375.2
10562.6
10674.2
10712.6
10739.7
10745.3
10745.1
10002.3
10034.1
10163.1
10375.3
10562.4
10673.3
10710.4
10732.7
10726.7
10716
10002.3
10034.1
10163.1
10375.2
10561.8
10672.7
10710.7
10733.9
10732.2
10721.6
10002.3
10034.1
10163.1
10375.3
10562.4
10673.3
10710.4
10732.7
10726.7
10716
10002.3
10034.1
10163
10375.2
10562.6
10674.2
10712.6
10739.7
10745.3
10745.1
10666.9
10714.2
10718.9
10654.4
10012.9
10719.5
10761.5
10755.9
10741.1
10443.4
10721.5
10749.4
10732.4
10686.9
10375
10719.5
10761.5
10755.9
10741.1
10443.4
10666.9
10714.2
10718.9
10654.4
10012.9
11584.4
11515.9
11698.9
11781.7
12051.4
11438.2
11489.9
11696
11869.3
11831.8
11432.5
11496.4
11687.4
11817.8
11505.6
11438.2
11489.9
11696
11869.3
11831.8
11584.4
11515.9
11698.9
11781.7
12051.4
10223.1
5553.19
6021.93
6162.27
6169.39
6381.63
6677.67
7122.65
7651.81
8236.11
8833.81
9381.82
9780.63
9961.37
9997.73
9999.97
10000
10000
10000
10000
10000
10000
10000
10000
9999.96
9997.31
9955.93
9756.56
9325.69
8738.91
8096.15
7453.37
6836.64
6260.59
5735.68
5271.81
4882.19
4580.18
4058.62
15862.7
10424.1
5888.28
6199.33
6196.36
6185.98
6382.36
6680.75
7124.54
7652.71
8236.8
8834.52
9382.45
9781
9961.48
9997.74
9999.97
10000
10000
10000
10000
10000
10000
10000
10000
9999.96
9997.31
9955.93
9756.56
9325.69
8738.91
8096.15
7453.37
6836.64
6260.59
5735.68
5271.81
4882.19
4580.18
4058.62
15862.7
9917.91
6369.19
6286.26
6218.03
6193.54
6383.06
6681.54
7125.22
7653.02
8237.01
8834.75
9382.68
9781.15
9961.53
9997.74
9999.97
10000
10000
10000
10000
10000
10000
10000
10000
9999.96
9997.31
9955.93
9756.56
9325.69
8738.91
8096.15
7453.37
6836.64
6260.59
5735.68
5271.81
4882.19
4580.18
4058.62
15862.7
10424.1
5888.28
6199.33
6196.36
6185.98
6382.36
6680.75
7124.54
7652.71
8236.8
8834.52
9382.45
9781
9961.48
9997.74
9999.97
10000
10000
10000
10000
10000
10000
10000
10000
9999.96
9997.31
9955.93
9756.56
9325.69
8738.91
8096.15
7453.37
6836.64
6260.59
5735.68
5271.81
4882.19
4580.18
4058.62
15862.7
10223.1
5553.19
6021.93
6162.27
6169.39
6381.63
6677.67
7122.65
7651.81
8236.11
8833.81
9381.82
9780.63
9961.37
9997.73
9999.97
10000
10000
10000
10000
10000
10000
10000
10000
9999.96
9997.31
9955.93
9756.56
9325.69
8738.91
8096.15
7453.37
6836.64
6260.59
5735.68
5271.81
4882.19
4580.18
4058.62
15862.7
12129.4
4989.08
5774.36
6013.94
6114.67
6346.72
6667.24
7116.33
7648.08
8233
8830.77
9378.98
9778.83
9960.84
9997.68
9999.97
10000
10000
10000
10000
10000
10000
10000
10000
9999.96
9997.31
9955.93
9756.56
9325.69
8738.91
8096.15
7453.37
6836.64
6260.59
5735.68
5271.81
4882.19
4580.18
4058.62
15862.7
13450.7
4488.25
5435.61
5748.7
5983.77
6256.38
6629.5
7095.93
7636.25
8223.25
8821.8
9371.81
9774.89
9959.76
9997.58
9999.97
10000
10000
10000
10000
10000
10000
10000
10000
9999.96
9997.31
9955.93
9756.56
9325.69
8738.91
8096.15
7453.37
6836.64
6260.59
5735.68
5271.81
4882.19
4580.18
4058.62
15862.7
14796.4
4380.45
5248.46
5575.67
5856.32
6174.8
6582.16
7066.01
7615.37
8206.59
8808.28
9362.25
9770.13
9958.56
9997.48
9999.97
10000
10000
10000
10000
10000
10000
10000
10000
9999.96
9997.31
9955.93
9756.56
9325.69
8738.91
8096.15
7453.37
6836.64
6260.59
5735.68
5271.81
4882.19
4580.18
4058.62
15862.7
15891.1
4322.68
5103.9
5435.65
5741.81
6098.23
6528.82
7028.96
7587.79
8185.22
8792.24
9352
9765.5
9957.47
9997.39
9999.96
10000
10000
10000
10000
10000
10000
10000
10000
9999.96
9997.3
9955.93
9756.56
9325.69
8738.91
8096.15
7453.37
6836.64
6260.59
5735.68
5271.81
4882.19
4580.18
4058.62
15862.7
16666.5
4295
5003.15
5322.28
5641.56
6020.34
6469.77
6985.28
7554.62
8159.89
8773.93
9341.12
9761.06
9956.35
9997.05
9999.68
9999.72
9999.72
9999.72
9999.72
9999.72
9999.72
9999.72
9999.72
9999.68
9997.03
9955.66
9756.3
9325.44
8738.69
8095.97
7453.23
6836.53
6260.51
5735.63
5271.78
4882.17
4580.16
4058.62
15862.7
16811.9
4264.74
4915.21
5204.56
5531.96
5929.76
6396.66
6926.82
7509.63
8127.47
8751.7
9325.16
9748.77
9946
9987.13
9989.78
9989.82
9989.82
9989.82
9989.82
9989.82
9989.82
9989.82
9989.82
9989.78
9987.13
9945.81
9746.72
9316.48
8730.63
8088.99
7447.41
6831.84
6256.85
5732.86
5269.72
4880.69
4579.05
4058.19
15862.4
16716.7
4220.11
4793.3
5052.61
5396.57
5818.32
6306.73
6847.5
7430.83
8045.78
8667.45
9239.36
9661.46
9857.55
9898.38
9901.01
9901.05
9901.05
9901.05
9901.05
9901.05
9901.05
9901.05
9901.05
9901.01
9898.39
9857.54
9660.65
9235.23
8656.28
8022.7
7389.63
6782.55
6215.62
5699
5242.21
4858.71
4560.82
4049.55
15848.4
16376.9
4146.04
4615.3
4887.09
5232.02
5641.36
6112.25
6638.22
7208.16
7807.83
8412.93
8969.25
9379.33
9569.29
9608.67
9611.19
9611.23
9611.23
9611.23
9611.23
9611.23
9611.23
9611.23
9611.23
9611.19
9608.68
9569.37
9379.35
8968.27
8408.93
7797.47
7187.31
6602.96
6057.84
5561.69
5123.29
4756.16
4469.56
3995.68
15704.1
15603
3956.1
4351.77
4605.02
4931.47
5327.45
5781.58
6286.51
6832.66
7405.88
7982.16
8510.32
8898.17
9076.64
9113.25
9115.57
9115.6
9115.6
9115.6
9115.6
9115.6
9115.6
9115.6
9115.6
9115.57
9113.26
9076.7
8898.41
8510.67
7981.96
7403.84
6827.33
6275.74
5761.8
5294.82
4882.8
4538.39
4268.09
3850.08
15159.7
14329.3
3657.64
4015.14
4261.97
4577.18
4957.16
5389.85
5867.61
6381.97
6920.71
7461.09
7954.41
8314.31
8478.02
8511.01
8513.05
8513.07
8513.07
8513.07
8513.07
8513.07
8513.07
8513.07
8513.07
8513.05
8511.01
8478.04
8314.45
7954.82
7461.76
6921.47
6382.39
5866.68
5386.49
4950.49
4566.17
4244.5
3992.08
3615.36
14127.5
12879.2
3340.3
3694.8
3926.61
4224
4580.89
4986.32
5433.36
5913.5
6415.44
6917.87
7374.54
7704.59
7852.15
7881.1
7882.83
7882.85
7882.85
7882.85
7882.85
7882.85
7882.85
7882.85
7882.85
7882.83
7881.1
7852.15
7704.65
7374.77
6918.46
6416.53
5915.02
5435.1
4988.16
4582.45
4224.54
3924.54
3690.33
3330.36
12817.9
11426.8
3030.88
3387.68
3603.97
3882.82
4215.38
4593.65
5008.98
5455.25
5920.91
6385.99
6806.45
7106.58
7237.63
7262.43
7263.83
7263.85
7263.85
7263.85
7263.85
7263.85
7263.85
7263.85
7263.85
7263.83
7262.43
7237.63
7106.59
6806.53
6386.28
5921.55
5456.34
5010.66
4596
4218.21
3885.85
3606.57
3389.81
3031.54
11414.7
10107.1
2741.71
3097.04
3301.95
3559.68
3870.44
4220.65
4606.86
5020.17
5451.55
5881.12
6266.93
6537.99
6652.83
6673.57
6674.67
6674.68
6674.68
6674.68
6674.68
6674.68
6674.68
6674.68
6674.68
6674.67
6673.57
6652.83
6537.99
6266.94
5881.21
5451.78
5020.65
4607.71
4221.92
3872.09
3561.67
3304.23
3099.39
2743.59
10107.5
8785.35
2487
2823.79
3025.35
3263.12
3547.91
3876.16
4232.65
4616.89
5016.14
5412.84
5766.12
6009.57
6109
6125.96
6126.8
6126.8
6126.8
6126.8
6126.8
6126.8
6126.8
6126.8
6126.8
6126.8
6125.96
6109
6009.57
5766.12
5412.85
5016.19
4617.02
4232.92
3876.58
3548.52
3263.94
3026.42
2824.94
2487.92
8786.58
7694.31
2257.83
2570.98
2773.21
2992.39
3258.18
3559.55
3893.96
4250.5
4621.84
4988.67
5312.01
5529.64
5614.75
5628.35
5628.96
5628.97
5628.97
5628.97
5628.97
5628.97
5628.97
5628.97
5628.97
5628.96
5628.35
5614.75
5529.64
5312.01
4988.66
4621.83
4250.5
3893.99
3559.61
3258.3
2992.59
2773.51
2571.31
2258.09
7694.77
6640.9
2070.89
2353.77
2552.67
2758.78
3002.2
3284.8
3593.81
3928.14
4274.37
4615.11
4911.67
5106.02
5178.48
5189.26
5189.7
5189.7
5189.7
5189.7
5189.7
5189.7
5189.7
5189.7
5189.7
5189.7
5189.26
5178.48
5106.02
4911.67
4615.1
4274.36
3928.12
3593.79
3284.77
3002.18
2758.77
2552.68
2353.79
2070.91
6640.99
5890.5
1913.07
2170.29
2362.21
2562.33
2793.01
3058.3
3347.68
3659.93
3985.54
4305.01
4579.45
4753.64
4815.2
4823.68
4823.99
4823.99
4823.99
4823.99
4823.99
4823.99
4823.99
4823.99
4823.99
4823.99
4823.68
4815.2
4753.64
4579.45
4305
3985.53
3659.92
3347.66
3058.28
2792.99
2562.3
2362.18
2170.27
1913.06
5890.51
5191.74
1772.47
1995.02
2175.89
2370.34
2598.66
2865.61
3153.46
3455.76
3764.31
4066.34
4324.28
4484.54
4537.89
4544.52
4544.74
4544.74
4544.74
4544.74
4544.74
4544.74
4544.74
4544.74
4544.74
4544.74
4544.52
4537.89
4484.54
4324.28
4066.34
3764.31
3455.75
3153.45
2865.6
2598.65
2370.33
2175.87
1995.01
1772.47
5191.74
4637.76
1564.92
1777.48
1921.97
2089.8
2286.57
2526.94
2793.48
3090.38
3393.57
3669.09
3875.25
3982.19
4012.07
4015.34
4015.43
4015.43
4015.43
4015.43
4015.43
4015.43
4015.43
4015.43
4015.43
4015.43
4015.34
4012.07
3982.19
3875.25
3669.09
3393.57
3090.37
2793.48
2526.94
2286.57
2089.79
1921.96
1777.47
1564.92
4637.76
23790.5
4727.79
5307.53
6058.72
6873.71
8015.46
9183.9
10596.7
11995.6
13452.5
14747.9
15647.3
16022.2
16090.8
16094.6
16094.7
16094.7
16094.7
16094.7
16094.7
16094.7
16094.7
16094.7
16094.7
16094.7
16094.6
16090.8
16022.2
15647.3
14747.9
13452.5
11995.6
10596.8
9183.91
8015.47
6873.71
6058.72
5307.53
4727.79
23790.5
23790.5
4727.79
5307.53
6058.72
6873.71
8015.46
9183.9
10596.7
11995.6
13452.5
14747.9
15647.3
16022.2
16090.8
16094.6
16094.7
16094.7
16094.7
16094.7
16094.7
16094.7
16094.7
16094.7
16094.7
16094.7
16094.6
16090.8
16022.2
15647.3
14747.9
13452.5
11995.6
10596.8
9183.91
8015.47
6873.71
6058.72
5307.53
4727.79
23790.5
4637.76
1564.92
1777.48
1921.97
2089.8
2286.57
2526.94
2793.48
3090.38
3393.57
3669.09
3875.25
3982.19
4012.07
4015.34
4015.43
4015.43
4015.43
4015.43
4015.43
4015.43
4015.43
4015.43
4015.43
4015.43
4015.34
4012.07
3982.19
3875.25
3669.09
3393.57
3090.37
2793.48
2526.94
2286.57
2089.79
1921.96
1777.47
1564.92
4637.76
5191.74
1772.47
1995.02
2175.89
2370.34
2598.66
2865.61
3153.46
3455.76
3764.31
4066.34
4324.28
4484.54
4537.89
4544.52
4544.74
4544.74
4544.74
4544.74
4544.74
4544.74
4544.74
4544.74
4544.74
4544.74
4544.52
4537.89
4484.54
4324.28
4066.34
3764.31
3455.75
3153.45
2865.6
2598.65
2370.33
2175.87
1995.01
1772.47
5191.74
5890.5
1913.07
2170.29
2362.21
2562.33
2793.01
3058.3
3347.68
3659.93
3985.54
4305.01
4579.45
4753.64
4815.2
4823.68
4823.99
4823.99
4823.99
4823.99
4823.99
4823.99
4823.99
4823.99
4823.99
4823.99
4823.68
4815.2
4753.64
4579.45
4305
3985.53
3659.92
3347.66
3058.28
2792.99
2562.3
2362.18
2170.27
1913.06
5890.51
6640.9
2070.89
2353.77
2552.67
2758.78
3002.2
3284.8
3593.81
3928.14
4274.37
4615.11
4911.67
5106.02
5178.48
5189.26
5189.7
5189.7
5189.7
5189.7
5189.7
5189.7
5189.7
5189.7
5189.7
5189.7
5189.26
5178.48
5106.02
4911.67
4615.1
4274.36
3928.12
3593.79
3284.77
3002.18
2758.77
2552.68
2353.79
2070.91
6640.99
7694.31
2257.83
2570.98
2773.21
2992.39
3258.18
3559.55
3893.96
4250.5
4621.84
4988.67
5312.01
5529.64
5614.75
5628.35
5628.96
5628.97
5628.97
5628.97
5628.97
5628.97
5628.97
5628.97
5628.97
5628.96
5628.35
5614.75
5529.64
5312.01
4988.66
4621.83
4250.5
3893.99
3559.61
3258.3
2992.59
2773.51
2571.31
2258.09
7694.77
8785.35
2487
2823.79
3025.35
3263.12
3547.91
3876.16
4232.65
4616.89
5016.14
5412.84
5766.12
6009.57
6109
6125.96
6126.8
6126.8
6126.8
6126.8
6126.8
6126.8
6126.8
6126.8
6126.8
6126.8
6125.96
6109
6009.57
5766.12
5412.85
5016.19
4617.02
4232.92
3876.58
3548.52
3263.94
3026.42
2824.94
2487.92
8786.58
10107.1
2741.71
3097.04
3301.95
3559.68
3870.44
4220.65
4606.86
5020.17
5451.55
5881.12
6266.93
6537.99
6652.83
6673.57
6674.67
6674.68
6674.68
6674.68
6674.68
6674.68
6674.68
6674.68
6674.68
6674.67
6673.57
6652.83
6537.99
6266.94
5881.21
5451.78
5020.65
4607.71
4221.92
3872.09
3561.67
3304.23
3099.39
2743.59
10107.5
11426.8
3030.88
3387.68
3603.97
3882.82
4215.38
4593.65
5008.98
5455.25
5920.91
6385.99
6806.45
7106.58
7237.63
7262.43
7263.83
7263.85
7263.85
7263.85
7263.85
7263.85
7263.85
7263.85
7263.85
7263.83
7262.43
7237.63
7106.59
6806.53
6386.28
5921.55
5456.34
5010.66
4596
4218.21
3885.85
3606.57
3389.81
3031.54
11414.7
12879.2
3340.3
3694.8
3926.61
4224
4580.89
4986.32
5433.36
5913.5
6415.44
6917.87
7374.54
7704.59
7852.15
7881.1
7882.83
7882.85
7882.85
7882.85
7882.85
7882.85
7882.85
7882.85
7882.85
7882.83
7881.1
7852.15
7704.65
7374.77
6918.46
6416.53
5915.02
5435.1
4988.16
4582.45
4224.54
3924.54
3690.33
3330.36
12817.9
14329.3
3657.64
4015.14
4261.97
4577.18
4957.16
5389.85
5867.61
6381.97
6920.71
7461.09
7954.41
8314.31
8478.02
8511.01
8513.05
8513.07
8513.07
8513.07
8513.07
8513.07
8513.07
8513.07
8513.07
8513.05
8511.01
8478.04
8314.45
7954.82
7461.76
6921.47
6382.39
5866.68
5386.49
4950.49
4566.17
4244.5
3992.08
3615.36
14127.5
15603
3956.1
4351.77
4605.02
4931.47
5327.45
5781.58
6286.51
6832.66
7405.88
7982.16
8510.32
8898.17
9076.64
9113.25
9115.57
9115.6
9115.6
9115.6
9115.6
9115.6
9115.6
9115.6
9115.6
9115.57
9113.26
9076.7
8898.41
8510.67
7981.96
7403.84
6827.33
6275.74
5761.8
5294.82
4882.8
4538.39
4268.09
3850.08
15159.7
16376.9
4146.04
4615.3
4887.09
5232.02
5641.36
6112.25
6638.22
7208.16
7807.83
8412.93
8969.25
9379.33
9569.29
9608.67
9611.19
9611.23
9611.23
9611.23
9611.23
9611.23
9611.23
9611.23
9611.23
9611.19
9608.68
9569.37
9379.35
8968.27
8408.93
7797.47
7187.31
6602.96
6057.84
5561.69
5123.29
4756.16
4469.56
3995.68
15704.1
16716.7
4220.11
4793.3
5052.61
5396.57
5818.32
6306.73
6847.5
7430.83
8045.78
8667.45
9239.36
9661.46
9857.55
9898.38
9901.01
9901.05
9901.05
9901.05
9901.05
9901.05
9901.05
9901.05
9901.05
9901.01
9898.39
9857.54
9660.65
9235.23
8656.28
8022.7
7389.63
6782.55
6215.62
5699
5242.21
4858.71
4560.82
4049.55
15848.4
16811.9
4264.74
4915.21
5204.56
5531.96
5929.76
6396.66
6926.82
7509.63
8127.47
8751.7
9325.16
9748.77
9946
9987.13
9989.78
9989.82
9989.82
9989.82
9989.82
9989.82
9989.82
9989.82
9989.82
9989.78
9987.13
9945.81
9746.72
9316.48
8730.63
8088.99
7447.41
6831.84
6256.85
5732.86
5269.72
4880.69
4579.05
4058.19
15862.4
16666.5
4295
5003.15
5322.28
5641.56
6020.34
6469.77
6985.28
7554.62
8159.89
8773.93
9341.12
9761.06
9956.35
9997.05
9999.68
9999.72
9999.72
9999.72
9999.72
9999.72
9999.72
9999.72
9999.72
9999.68
9997.03
9955.66
9756.3
9325.44
8738.69
8095.97
7453.23
6836.53
6260.51
5735.63
5271.78
4882.17
4580.16
4058.62
15862.7
15891.1
4322.68
5103.9
5435.65
5741.81
6098.23
6528.82
7028.96
7587.79
8185.22
8792.24
9352
9765.5
9957.47
9997.39
9999.96
10000
10000
10000
10000
10000
10000
10000
10000
9999.96
9997.3
9955.93
9756.56
9325.69
8738.91
8096.15
7453.37
6836.64
6260.59
5735.68
5271.81
4882.19
4580.18
4058.62
15862.7
14796.4
4380.45
5248.46
5575.67
5856.32
6174.8
6582.16
7066.01
7615.37
8206.59
8808.28
9362.25
9770.13
9958.56
9997.48
9999.97
10000
10000
10000
10000
10000
10000
10000
10000
9999.96
9997.31
9955.93
9756.56
9325.69
8738.91
8096.15
7453.37
6836.64
6260.59
5735.68
5271.81
4882.19
4580.18
4058.62
15862.7
13450.7
4488.25
5435.61
5748.7
5983.77
6256.38
6629.5
7095.93
7636.25
8223.25
8821.8
9371.81
9774.89
9959.76
9997.58
9999.97
10000
10000
10000
10000
10000
10000
10000
10000
9999.96
9997.31
9955.93
9756.56
9325.69
8738.91
8096.15
7453.37
6836.64
6260.59
5735.68
5271.81
4882.19
4580.18
4058.62
15862.7
12129.4
4989.08
5774.36
6013.94
6114.67
6346.72
6667.24
7116.33
7648.08
8233
8830.77
9378.98
9778.83
9960.84
9997.68
9999.97
10000
10000
10000
10000
10000
10000
10000
10000
9999.96
9997.31
9955.93
9756.56
9325.69
8738.91
8096.15
7453.37
6836.64
6260.59
5735.68
5271.81
4882.19
4580.18
4058.62
15862.7
)
;

boundaryField
{
    inlet
    {
        type            fixedValue;
        value           uniform 10000;
    }
    outlet
    {
        type            fixedValue;
        value           uniform 1000;
    }
    obstacle
    {
        type            zeroGradient;
    }
    empty
    {
        type            empty;
    }
}


// ************************************************************************* //
