/*--------------------------------*- C++ -*----------------------------------*\
| =========                 |                                                 |
| \\      /  F ield         | OpenFOAM: The Open Source CFD Toolbox           |
|  \\    /   O peration     | Version:  v1912                                 |
|   \\  /    A nd           | Website:  www.openfoam.com                      |
|    \\/     M anipulation  |                                                 |
\*---------------------------------------------------------------------------*/
FoamFile
{
    version     2.0;
    format      ascii;
    class       volScalarField;
    location    "1.5";
    object      T;
}
// * * * * * * * * * * * * * * * * * * * * * * * * * * * * * * * * * * * * * //

dimensions      [0 0 0 1 0 0 0];


internalField   nonuniform List<scalar> 
1900
(
1.00007
1.00098
1.00464
1.0106
1.01579
1.01885
1.01988
1.02062
1.0208
1.02088
1.00007
1.00098
1.00464
1.0106
1.01579
1.01882
1.01982
1.02042
1.02029
1.02011
1.00007
1.00098
1.00465
1.0106
1.01577
1.01881
1.01983
1.02045
1.02043
1.02027
1.00007
1.00098
1.00464
1.0106
1.01579
1.01882
1.01982
1.02042
1.02029
1.02011
1.00007
1.00098
1.00464
1.0106
1.01579
1.01885
1.01988
1.02062
1.0208
1.02088
1.01884
1.02082
1.02276
1.02402
1.00748
1.02035
1.02215
1.02393
1.02627
1.01917
1.02046
1.02182
1.02325
1.02475
1.01707
1.02035
1.02215
1.02393
1.02627
1.01917
1.01884
1.02082
1.02276
1.02402
1.00748
1.04588
1.03983
1.03932
1.02976
1.01034
1.04229
1.03877
1.03856
1.03491
1.02404
1.04211
1.03875
1.03792
1.03502
1.02567
1.04229
1.03877
1.03856
1.03491
1.02404
1.04588
1.03983
1.03932
1.02976
1.01034
0.900326
0.822438
0.867724
0.874825
0.872091
0.879599
0.891138
0.907769
0.926515
0.946168
0.965277
0.981994
0.993709
0.998899
0.999935
0.999999
1
1
1
1
1
1
1
1
0.999999
0.999923
0.998744
0.993015
0.980323
0.962322
0.941565
0.919562
0.897051
0.874573
0.853052
0.834626
0.821315
0.802977
0.709216
0.634174
0.990993
0.868833
0.883586
0.877057
0.872573
0.879548
0.891272
0.907867
0.926554
0.946189
0.965298
0.982013
0.993719
0.998902
0.999935
0.999999
1
1
1
1
1
1
1
1
0.999999
0.999923
0.998744
0.993015
0.980323
0.962322
0.941565
0.919562
0.897051
0.874573
0.853052
0.834626
0.821315
0.802977
0.709216
0.634174
0.990975
0.900475
0.890459
0.878163
0.872845
0.879566
0.891304
0.907898
0.926567
0.946196
0.965305
0.982019
0.993724
0.998903
0.999936
0.999999
1
1
1
1
1
1
1
1
0.999999
0.999923
0.998744
0.993015
0.980323
0.962322
0.941565
0.919562
0.897051
0.874573
0.853052
0.834626
0.821315
0.802977
0.709216
0.634174
0.990993
0.868833
0.883586
0.877057
0.872573
0.879548
0.891272
0.907867
0.926554
0.946189
0.965298
0.982013
0.993719
0.998902
0.999935
0.999999
1
1
1
1
1
1
1
1
0.999999
0.999923
0.998744
0.993015
0.980323
0.962322
0.941565
0.919562
0.897051
0.874573
0.853052
0.834626
0.821315
0.802977
0.709216
0.634174
0.900326
0.822438
0.867724
0.874825
0.872091
0.879599
0.891138
0.907769
0.926515
0.946168
0.965277
0.981994
0.993709
0.998899
0.999935
0.999999
1
1
1
1
1
1
1
1
0.999999
0.999923
0.998744
0.993015
0.980323
0.962322
0.941565
0.919562
0.897051
0.874573
0.853052
0.834626
0.821315
0.802977
0.709216
0.634174
0.71228
0.761799
0.850903
0.868151
0.870487
0.878479
0.890619
0.907422
0.926355
0.946069
0.965187
0.98191
0.993657
0.998883
0.999934
0.999999
1
1
1
1
1
1
1
1
0.999999
0.999923
0.998744
0.993015
0.980323
0.962322
0.941565
0.919562
0.897051
0.874573
0.853052
0.834626
0.821315
0.802977
0.709216
0.634174
0.624159
0.7385
0.83785
0.857623
0.86586
0.875056
0.889031
0.906564
0.925913
0.945751
0.964911
0.981698
0.993543
0.998853
0.999931
0.999999
1
1
1
1
1
1
1
1
0.999999
0.999923
0.998744
0.993015
0.980323
0.962322
0.941565
0.919562
0.897051
0.874573
0.853052
0.834626
0.821315
0.802977
0.709216
0.634174
0.620069
0.735755
0.831679
0.850953
0.860583
0.871648
0.887161
0.90546
0.925188
0.945205
0.964491
0.981414
0.993406
0.998818
0.999928
0.999999
1
1
1
1
1
1
1
1
0.999999
0.999923
0.998744
0.993015
0.980323
0.962322
0.941565
0.919562
0.897051
0.874573
0.853052
0.834626
0.821315
0.802977
0.709216
0.634174
0.628298
0.729037
0.825551
0.845416
0.855586
0.868366
0.885089
0.904132
0.924246
0.944505
0.96399
0.981108
0.993272
0.998787
0.999926
0.999999
1
1
1
1
1
1
1
1
0.999999
0.999923
0.998744
0.993015
0.980323
0.962322
0.941565
0.919561
0.897051
0.874573
0.853052
0.834626
0.821315
0.802977
0.709216
0.634174
0.638956
0.723016
0.820906
0.840915
0.851198
0.865054
0.882791
0.90255
0.923103
0.943673
0.963418
0.980783
0.993144
0.998755
0.999916
0.999991
0.999992
0.999992
0.999992
0.999992
0.999992
0.999992
0.999992
0.999992
0.999991
0.999915
0.998736
0.993007
0.980316
0.962315
0.941559
0.919556
0.897047
0.87457
0.853049
0.834624
0.821314
0.802976
0.709216
0.634174
0.64211
0.719036
0.817129
0.836029
0.846384
0.861243
0.879933
0.900401
0.921536
0.942603
0.962722
0.980306
0.992788
0.998459
0.999633
0.999709
0.99971
0.99971
0.99971
0.99971
0.99971
0.99971
0.99971
0.99971
0.999709
0.999633
0.998454
0.992729
0.980047
0.962062
0.941328
0.919352
0.896871
0.874424
0.852932
0.834531
0.821242
0.80292
0.709193
0.63417
0.642091
0.715244
0.812028
0.829299
0.840355
0.856561
0.876397
0.897459
0.918775
0.939897
0.960077
0.977732
0.99025
0.995925
0.997098
0.997173
0.997174
0.997174
0.997174
0.997174
0.997174
0.997174
0.997174
0.997174
0.997173
0.997098
0.995925
0.990227
0.977608
0.959724
0.939126
0.917317
0.895025
0.872781
0.851495
0.833288
0.820182
0.802004
0.708709
0.634026
0.639655
0.710573
0.804139
0.8215
0.832897
0.849059
0.868632
0.88957
0.910854
0.931901
0.951968
0.969512
0.981934
0.98755
0.988705
0.988779
0.98878
0.98878
0.98878
0.98878
0.98878
0.98878
0.98878
0.98878
0.988779
0.988705
0.987552
0.981935
0.969481
0.951839
0.931547
0.910099
0.888217
0.866419
0.845609
0.827865
0.815197
0.797395
0.705683
0.63252
0.631859
0.701712
0.79115
0.807673
0.818927
0.835311
0.854973
0.875873
0.897068
0.917967
0.937812
0.955106
0.967305
0.972784
0.973899
0.97397
0.973971
0.973971
0.973971
0.973971
0.973971
0.973971
0.973971
0.973971
0.97397
0.973899
0.972786
0.967312
0.955117
0.937805
0.917894
0.896868
0.875444
0.854137
0.833845
0.816599
0.80435
0.786982
0.697671
0.626776
0.618104
0.687141
0.773387
0.79
0.801669
0.818316
0.838028
0.858807
0.87977
0.90039
0.919921
0.936873
0.948754
0.95403
0.955086
0.955151
0.955152
0.955152
0.955152
0.955152
0.955152
0.955152
0.955152
0.955152
0.955151
0.955086
0.954031
0.948759
0.936887
0.919945
0.900419
0.879787
0.858769
0.837879
0.818004
0.801124
0.789098
0.772136
0.685193
0.615649
0.601923
0.671099
0.755357
0.771726
0.783499
0.800085
0.819615
0.840159
0.860828
0.881113
0.900282
0.916846
0.928349
0.933371
0.93435
0.934408
0.934409
0.934409
0.934409
0.934409
0.934409
0.934409
0.934409
0.934409
0.934408
0.93435
0.933371
0.928351
0.916854
0.900304
0.881156
0.860891
0.840236
0.819701
0.800163
0.783531
0.771614
0.75507
0.670459
0.60112
0.585176
0.65501
0.736983
0.753038
0.764856
0.781291
0.800617
0.820848
0.841204
0.861137
0.879927
0.896075
0.907153
0.911879
0.912767
0.912818
0.912818
0.912818
0.912818
0.912818
0.912818
0.912818
0.912818
0.912818
0.912818
0.912767
0.911879
0.907153
0.896078
0.879938
0.861163
0.841252
0.820927
0.800734
0.781441
0.765028
0.753191
0.737095
0.654989
0.584985
0.569556
0.639336
0.718442
0.734335
0.746008
0.762381
0.781394
0.801366
0.821373
0.840963
0.859371
0.875085
0.885699
0.890096
0.890885
0.890927
0.890927
0.890927
0.890927
0.890927
0.890927
0.890927
0.890927
0.890927
0.890927
0.890885
0.890096
0.885699
0.875085
0.859374
0.840974
0.821396
0.801408
0.781461
0.762474
0.746127
0.734477
0.71859
0.639452
0.56955
0.553056
0.624852
0.699807
0.715914
0.727493
0.743492
0.762432
0.782015
0.80176
0.821
0.839032
0.854297
0.864414
0.868457
0.869143
0.869177
0.869177
0.869177
0.869177
0.869177
0.869177
0.869177
0.869177
0.869177
0.869177
0.869143
0.868457
0.864414
0.854297
0.839033
0.821002
0.801766
0.782029
0.762456
0.743529
0.727545
0.715985
0.699886
0.624923
0.553073
0.539303
0.610573
0.681633
0.698192
0.709673
0.72562
0.744119
0.763617
0.783056
0.80203
0.819704
0.834512
0.844104
0.847779
0.848363
0.848389
0.848389
0.848389
0.848389
0.848389
0.848389
0.848389
0.848389
0.848389
0.848389
0.848363
0.847779
0.844104
0.834512
0.819704
0.802029
0.783056
0.763618
0.744122
0.725627
0.709687
0.698213
0.681659
0.610597
0.539312
0.526015
0.599554
0.666189
0.682891
0.694554
0.710181
0.728646
0.7478
0.767144
0.785899
0.803297
0.817692
0.826777
0.830098
0.83059
0.83061
0.830611
0.830611
0.830611
0.830611
0.830611
0.830611
0.830611
0.830611
0.83061
0.83059
0.830098
0.826777
0.817692
0.803297
0.785899
0.767143
0.747799
0.728644
0.71018
0.694553
0.682892
0.666191
0.599558
0.526017
0.520638
0.590782
0.654408
0.671196
0.683526
0.699357
0.71781
0.736899
0.756054
0.774714
0.79198
0.806093
0.814734
0.817727
0.818137
0.818152
0.818152
0.818152
0.818152
0.818152
0.818152
0.818152
0.818152
0.818152
0.818152
0.818137
0.817727
0.814734
0.806093
0.79198
0.774714
0.756053
0.736898
0.717808
0.699355
0.683524
0.671195
0.654407
0.590781
0.520638
0.513193
0.579972
0.639622
0.65566
0.668189
0.68424
0.703209
0.722624
0.741705
0.759941
0.776811
0.790538
0.798775
0.801465
0.801797
0.801808
0.801808
0.801808
0.801808
0.801808
0.801808
0.801808
0.801808
0.801808
0.801808
0.801797
0.801465
0.798775
0.790538
0.776811
0.759941
0.741704
0.722624
0.703208
0.684239
0.668188
0.655659
0.639621
0.579971
0.513193
0.465165
0.525736
0.582404
0.594051
0.603541
0.615105
0.629982
0.644997
0.660811
0.676512
0.691013
0.702324
0.708425
0.710154
0.710339
0.710344
0.710344
0.710344
0.710344
0.710344
0.710344
0.710344
0.710344
0.710344
0.710344
0.710339
0.710154
0.708425
0.702324
0.691013
0.676512
0.660811
0.644997
0.629982
0.615105
0.60354
0.59405
0.582403
0.525735
0.465165
0.438866
0.461342
0.511261
0.519528
0.525303
0.539099
0.55319
0.570107
0.586015
0.602148
0.616013
0.625385
0.629225
0.629923
0.629963
0.629963
0.629963
0.629963
0.629963
0.629963
0.629963
0.629963
0.629963
0.629963
0.629963
0.629963
0.629923
0.629225
0.625385
0.616013
0.602148
0.586015
0.570107
0.55319
0.539099
0.525303
0.519528
0.511261
0.461342
0.438866
0.438866
0.461342
0.511261
0.519528
0.525303
0.539099
0.55319
0.570107
0.586015
0.602148
0.616013
0.625385
0.629225
0.629923
0.629963
0.629963
0.629963
0.629963
0.629963
0.629963
0.629963
0.629963
0.629963
0.629963
0.629963
0.629963
0.629923
0.629225
0.625385
0.616013
0.602148
0.586015
0.570107
0.55319
0.539099
0.525303
0.519528
0.511261
0.461342
0.438866
0.465165
0.525736
0.582404
0.594051
0.603541
0.615105
0.629982
0.644997
0.660811
0.676512
0.691013
0.702324
0.708425
0.710154
0.710339
0.710344
0.710344
0.710344
0.710344
0.710344
0.710344
0.710344
0.710344
0.710344
0.710344
0.710339
0.710154
0.708425
0.702324
0.691013
0.676512
0.660811
0.644997
0.629982
0.615105
0.60354
0.59405
0.582403
0.525735
0.465165
0.513193
0.579972
0.639622
0.65566
0.668189
0.68424
0.703209
0.722624
0.741705
0.759941
0.776811
0.790538
0.798775
0.801465
0.801797
0.801808
0.801808
0.801808
0.801808
0.801808
0.801808
0.801808
0.801808
0.801808
0.801808
0.801797
0.801465
0.798775
0.790538
0.776811
0.759941
0.741704
0.722624
0.703208
0.684239
0.668188
0.655659
0.639621
0.579971
0.513193
0.520638
0.590782
0.654408
0.671196
0.683526
0.699357
0.71781
0.736899
0.756054
0.774714
0.79198
0.806093
0.814734
0.817727
0.818137
0.818152
0.818152
0.818152
0.818152
0.818152
0.818152
0.818152
0.818152
0.818152
0.818152
0.818137
0.817727
0.814734
0.806093
0.79198
0.774714
0.756053
0.736898
0.717808
0.699355
0.683524
0.671195
0.654407
0.590781
0.520638
0.526015
0.599554
0.666189
0.682891
0.694554
0.710181
0.728646
0.7478
0.767144
0.785899
0.803297
0.817692
0.826777
0.830098
0.83059
0.83061
0.830611
0.830611
0.830611
0.830611
0.830611
0.830611
0.830611
0.830611
0.83061
0.83059
0.830098
0.826777
0.817692
0.803297
0.785899
0.767143
0.747799
0.728644
0.71018
0.694553
0.682892
0.666191
0.599558
0.526017
0.539303
0.610573
0.681633
0.698192
0.709673
0.72562
0.744119
0.763617
0.783056
0.80203
0.819704
0.834512
0.844104
0.847779
0.848363
0.848389
0.848389
0.848389
0.848389
0.848389
0.848389
0.848389
0.848389
0.848389
0.848389
0.848363
0.847779
0.844104
0.834512
0.819704
0.802029
0.783056
0.763618
0.744122
0.725627
0.709687
0.698213
0.681659
0.610597
0.539312
0.553056
0.624852
0.699807
0.715914
0.727493
0.743492
0.762432
0.782015
0.80176
0.821
0.839032
0.854297
0.864414
0.868457
0.869143
0.869177
0.869177
0.869177
0.869177
0.869177
0.869177
0.869177
0.869177
0.869177
0.869177
0.869143
0.868457
0.864414
0.854297
0.839033
0.821002
0.801766
0.782029
0.762456
0.743529
0.727545
0.715985
0.699886
0.624923
0.553073
0.569556
0.639336
0.718442
0.734335
0.746008
0.762381
0.781394
0.801366
0.821373
0.840963
0.859371
0.875085
0.885699
0.890096
0.890885
0.890927
0.890927
0.890927
0.890927
0.890927
0.890927
0.890927
0.890927
0.890927
0.890927
0.890885
0.890096
0.885699
0.875085
0.859374
0.840974
0.821396
0.801408
0.781461
0.762474
0.746127
0.734477
0.71859
0.639452
0.56955
0.585176
0.65501
0.736983
0.753038
0.764856
0.781291
0.800617
0.820848
0.841204
0.861137
0.879927
0.896075
0.907153
0.911879
0.912767
0.912818
0.912818
0.912818
0.912818
0.912818
0.912818
0.912818
0.912818
0.912818
0.912818
0.912767
0.911879
0.907153
0.896078
0.879938
0.861163
0.841252
0.820927
0.800734
0.781441
0.765028
0.753191
0.737095
0.654989
0.584985
0.601923
0.671099
0.755357
0.771726
0.783499
0.800085
0.819615
0.840159
0.860828
0.881113
0.900282
0.916846
0.928349
0.933371
0.93435
0.934408
0.934409
0.934409
0.934409
0.934409
0.934409
0.934409
0.934409
0.934409
0.934408
0.93435
0.933371
0.928351
0.916854
0.900304
0.881156
0.860891
0.840236
0.819701
0.800163
0.783531
0.771614
0.75507
0.670459
0.60112
0.618104
0.687141
0.773387
0.79
0.801669
0.818316
0.838028
0.858807
0.87977
0.90039
0.919921
0.936873
0.948754
0.95403
0.955086
0.955151
0.955152
0.955152
0.955152
0.955152
0.955152
0.955152
0.955152
0.955152
0.955151
0.955086
0.954031
0.948759
0.936887
0.919945
0.900419
0.879787
0.858769
0.837879
0.818004
0.801124
0.789098
0.772136
0.685193
0.615649
0.631859
0.701712
0.79115
0.807673
0.818927
0.835311
0.854973
0.875873
0.897068
0.917967
0.937812
0.955106
0.967305
0.972784
0.973899
0.97397
0.973971
0.973971
0.973971
0.973971
0.973971
0.973971
0.973971
0.973971
0.97397
0.973899
0.972786
0.967312
0.955117
0.937805
0.917894
0.896868
0.875444
0.854137
0.833845
0.816599
0.80435
0.786982
0.697671
0.626776
0.639655
0.710573
0.804139
0.8215
0.832897
0.849059
0.868632
0.88957
0.910854
0.931901
0.951968
0.969512
0.981934
0.98755
0.988705
0.988779
0.98878
0.98878
0.98878
0.98878
0.98878
0.98878
0.98878
0.98878
0.988779
0.988705
0.987552
0.981935
0.969481
0.951839
0.931547
0.910099
0.888217
0.866419
0.845609
0.827865
0.815197
0.797395
0.705683
0.63252
0.642091
0.715244
0.812028
0.829299
0.840355
0.856561
0.876397
0.897459
0.918775
0.939897
0.960077
0.977732
0.99025
0.995925
0.997098
0.997173
0.997174
0.997174
0.997174
0.997174
0.997174
0.997174
0.997174
0.997174
0.997173
0.997098
0.995925
0.990227
0.977608
0.959724
0.939126
0.917317
0.895025
0.872781
0.851495
0.833288
0.820182
0.802004
0.708709
0.634026
0.64211
0.719036
0.817129
0.836029
0.846384
0.861243
0.879933
0.900401
0.921536
0.942603
0.962722
0.980306
0.992788
0.998459
0.999633
0.999709
0.99971
0.99971
0.99971
0.99971
0.99971
0.99971
0.99971
0.99971
0.999709
0.999633
0.998454
0.992729
0.980047
0.962062
0.941328
0.919352
0.896871
0.874424
0.852932
0.834531
0.821242
0.80292
0.709193
0.63417
0.638956
0.723016
0.820906
0.840915
0.851198
0.865054
0.882791
0.90255
0.923103
0.943673
0.963418
0.980783
0.993144
0.998755
0.999916
0.999991
0.999992
0.999992
0.999992
0.999992
0.999992
0.999992
0.999992
0.999992
0.999991
0.999915
0.998736
0.993007
0.980316
0.962315
0.941559
0.919556
0.897047
0.87457
0.853049
0.834624
0.821314
0.802976
0.709216
0.634174
0.628298
0.729037
0.825551
0.845416
0.855586
0.868366
0.885089
0.904132
0.924246
0.944505
0.96399
0.981108
0.993272
0.998787
0.999926
0.999999
1
1
1
1
1
1
1
1
0.999999
0.999923
0.998744
0.993015
0.980323
0.962322
0.941565
0.919561
0.897051
0.874573
0.853052
0.834626
0.821315
0.802977
0.709216
0.634174
0.620069
0.735755
0.831679
0.850953
0.860583
0.871648
0.887161
0.90546
0.925188
0.945205
0.964491
0.981414
0.993406
0.998818
0.999928
0.999999
1
1
1
1
1
1
1
1
0.999999
0.999923
0.998744
0.993015
0.980323
0.962322
0.941565
0.919562
0.897051
0.874573
0.853052
0.834626
0.821315
0.802977
0.709216
0.634174
0.624159
0.7385
0.83785
0.857623
0.86586
0.875056
0.889031
0.906564
0.925913
0.945751
0.964911
0.981698
0.993543
0.998853
0.999931
0.999999
1
1
1
1
1
1
1
1
0.999999
0.999923
0.998744
0.993015
0.980323
0.962322
0.941565
0.919562
0.897051
0.874573
0.853052
0.834626
0.821315
0.802977
0.709216
0.634174
0.71228
0.761799
0.850903
0.868151
0.870487
0.878479
0.890619
0.907422
0.926355
0.946069
0.965187
0.98191
0.993657
0.998883
0.999934
0.999999
1
1
1
1
1
1
1
1
0.999999
0.999923
0.998744
0.993015
0.980323
0.962322
0.941565
0.919562
0.897051
0.874573
0.853052
0.834626
0.821315
0.802977
0.709216
0.634174
)
;

boundaryField
{
    inlet
    {
        type            fixedValue;
        value           uniform 1;
    }
    outlet
    {
        type            zeroGradient;
    }
    obstacle
    {
        type            zeroGradient;
    }
    empty
    {
        type            empty;
    }
}


// ************************************************************************* //
