/*--------------------------------*- C++ -*----------------------------------*\
| =========                 |                                                 |
| \\      /  F ield         | OpenFOAM: The Open Source CFD Toolbox           |
|  \\    /   O peration     | Version:  v1912                                 |
|   \\  /    A nd           | Website:  www.openfoam.com                      |
|    \\/     M anipulation  |                                                 |
\*---------------------------------------------------------------------------*/
FoamFile
{
    version     2.0;
    format      ascii;
    class       volVectorField;
    location    "1.5";
    object      U;
}
// * * * * * * * * * * * * * * * * * * * * * * * * * * * * * * * * * * * * * //

dimensions      [0 1 -1 0 0 0 0];


internalField   nonuniform List<vector> 
1900
(
(-0.000164906 3.37891e-08 0)
(-0.00243581 4.82758e-07 0)
(-0.0115755 2.35554e-06 0)
(-0.0264041 1.00855e-05 0)
(-0.0393488 3.92883e-05 0)
(-0.0466244 0.000126766 0)
(-0.0503923 0.000219627 0)
(-0.0509604 -0.000344361 0)
(-0.0504023 -0.00219674 0)
(-0.0447523 -0.00765187 0)
(-0.00016473 8.07208e-08 0)
(-0.00243557 6.85271e-07 0)
(-0.0115783 2.39408e-06 0)
(-0.0264002 1.39393e-05 0)
(-0.0392911 6.53543e-05 0)
(-0.0464477 0.000207224 0)
(-0.0499105 0.00032216 0)
(-0.0501618 -9.98869e-05 0)
(-0.0508722 -0.00128734 0)
(-0.0510806 -0.00605229 0)
(-0.000164661 -2.11534e-13 0)
(-0.00243604 2.56893e-13 0)
(-0.0115792 -2.12826e-13 0)
(-0.0263849 6.19722e-14 0)
(-0.0392352 -5.03306e-14 0)
(-0.0463365 1.26704e-15 0)
(-0.0497174 -3.08744e-14 0)
(-0.0499613 -1.72496e-14 0)
(-0.0513301 -4.77077e-14 0)
(-0.0547204 -3.18313e-14 0)
(-0.00016473 -8.07213e-08 0)
(-0.00243557 -6.8527e-07 0)
(-0.0115783 -2.39408e-06 0)
(-0.0264002 -1.39393e-05 0)
(-0.0392911 -6.53543e-05 0)
(-0.0464477 -0.000207224 0)
(-0.0499105 -0.00032216 0)
(-0.0501618 9.98869e-05 0)
(-0.0508722 0.00128734 0)
(-0.0510806 0.00605229 0)
(-0.000164906 -3.37894e-08 0)
(-0.00243581 -4.82757e-07 0)
(-0.0115755 -2.35554e-06 0)
(-0.0264041 -1.00855e-05 0)
(-0.0393488 -3.92883e-05 0)
(-0.0466244 -0.000126766 0)
(-0.0503923 -0.000219627 0)
(-0.0509604 0.000344361 0)
(-0.0504023 0.00219674 0)
(-0.0447523 0.00765187 0)
(-0.0458011 -0.0221532 0)
(-0.0603485 -0.0295024 0)
(-0.0749355 -0.0416603 0)
(-0.0994888 -0.0561145 0)
(-0.180781 -0.0517752 0)
(-0.0590701 -0.0144671 0)
(-0.0741286 -0.0188787 0)
(-0.0948391 -0.0288893 0)
(-0.135408 -0.0405308 0)
(-0.214584 -0.0398877 0)
(-0.0637557 -3.87644e-14 0)
(-0.0780331 -3.85345e-14 0)
(-0.101961 4.93632e-15 0)
(-0.147398 -1.52325e-14 0)
(-0.223019 -6.32449e-16 0)
(-0.0590701 0.0144671 0)
(-0.0741286 0.0188787 0)
(-0.0948391 0.0288893 0)
(-0.135408 0.0405308 0)
(-0.214584 0.0398877 0)
(-0.0458011 0.0221532 0)
(-0.0603485 0.0295024 0)
(-0.0749355 0.0416603 0)
(-0.0994888 0.0561145 0)
(-0.180781 0.0517752 0)
(-0.223003 0.00978964 0)
(-0.190745 0.0157128 0)
(-0.176974 0.0176524 0)
(-0.174937 0.0365409 0)
(-0.251287 0.0885753 0)
(-0.231636 0.00955026 0)
(-0.198977 0.0103377 0)
(-0.173087 0.0114338 0)
(-0.141183 0.030849 0)
(-0.103046 0.0983477 0)
(-0.237356 6.94645e-15 0)
(-0.202247 1.70393e-14 0)
(-0.169603 2.01416e-14 0)
(-0.118819 6.65312e-14 0)
(-0.0176962 4.73102e-14 0)
(-0.231636 -0.00955026 0)
(-0.198977 -0.0103377 0)
(-0.173087 -0.0114338 0)
(-0.141183 -0.030849 0)
(-0.103046 -0.0983477 0)
(-0.223003 -0.00978964 0)
(-0.190745 -0.0157128 0)
(-0.176974 -0.0176524 0)
(-0.174937 -0.0365409 0)
(-0.251287 -0.0885753 0)
(-0.455231 0.0836432 0)
(-0.0997048 -0.13499 0)
(-0.169463 -0.155775 0)
(-0.263992 -0.0731989 0)
(-0.301385 -0.0239621 0)
(-0.301431 -0.0103953 0)
(-0.272024 -0.0032914 0)
(-0.232125 -0.00217225 0)
(-0.184808 -0.00145211 0)
(-0.135177 -0.00100533 0)
(-0.087031 -0.000614426 0)
(-0.0450767 -0.000307066 0)
(-0.015747 -0.000109049 0)
(-0.00275538 -2.05662e-05 0)
(-0.000161982 -1.32747e-06 0)
(-2.09697e-06 -1.86646e-08 0)
(-4.09363e-09 -3.88049e-11 0)
(-8.7439e-13 -8.43328e-15 0)
(-1.18757e-16 4.23094e-16 0)
(9.29921e-17 -5.25984e-17 0)
(7.27821e-17 1.2296e-16 0)
(8.18904e-17 -9.297e-17 0)
(1.23184e-12 6.27052e-15 0)
(5.38583e-09 6.81957e-14 0)
(2.61272e-06 -6.96749e-14 0)
(0.000192472 7.43437e-14 0)
(0.00315245 -9.6347e-14 0)
(0.0175513 1.97814e-13 0)
(0.0495209 -1.03452e-14 0)
(0.0951624 -1.92232e-15 0)
(0.14831 5.81099e-14 0)
(0.205235 -6.2181e-14 0)
(0.263967 1.44707e-13 0)
(0.323114 -5.13787e-14 0)
(0.381215 3.95183e-14 0)
(0.436606 3.23404e-14 0)
(0.486742 5.52736e-14 0)
(0.524985 2.13328e-14 0)
(0.608725 5.83199e-14 0)
(1.22128 5.55467e-15 0)
(0.0509714 0.102566 0)
(0.162605 -0.0973981 0)
(-0.0458607 -0.106769 0)
(-0.234721 -0.0425497 0)
(-0.296317 -0.0124968 0)
(-0.30145 -0.00533012 0)
(-0.272486 -0.00160684 0)
(-0.232191 -0.00103001 0)
(-0.184634 -0.00070519 0)
(-0.135009 -0.000504891 0)
(-0.086913 -0.000310097 0)
(-0.045006 -0.000153178 0)
(-0.0157147 -5.3364e-05 0)
(-0.00274691 -9.89057e-06 0)
(-0.000161205 -6.34387e-07 0)
(-2.08192e-06 -8.922e-09 0)
(-4.05217e-09 -1.8565e-11 0)
(-8.60422e-13 -1.62465e-14 0)
(-2.91901e-16 5.54821e-16 0)
(8.97185e-17 1.894e-16 0)
(5.75871e-17 1.4926e-16 0)
(2.55414e-17 3.44658e-16 0)
(1.23423e-12 -7.37762e-16 0)
(5.38585e-09 7.11511e-14 0)
(2.61272e-06 -7.1708e-14 0)
(0.000192472 6.73752e-14 0)
(0.00315245 -1.33042e-13 0)
(0.0175513 1.95453e-13 0)
(0.0495209 -2.33252e-14 0)
(0.0951624 -7.92679e-15 0)
(0.14831 2.07927e-14 0)
(0.205235 -7.11636e-14 0)
(0.263967 1.13465e-13 0)
(0.323114 -5.1586e-14 0)
(0.381215 3.8381e-14 0)
(0.436606 1.91269e-14 0)
(0.486742 4.7003e-14 0)
(0.524985 7.21731e-15 0)
(0.608725 2.85754e-15 0)
(1.22128 -1.61327e-14 0)
(0.202691 1.26881e-14 0)
(0.24846 -1.61206e-14 0)
(0.00796343 -1.77626e-14 0)
(-0.221961 -6.01114e-16 0)
(-0.294718 4.19072e-15 0)
(-0.301784 2.27107e-14 0)
(-0.2727 1.24183e-14 0)
(-0.232221 -8.74567e-15 0)
(-0.184577 -2.72313e-14 0)
(-0.134957 3.98902e-14 0)
(-0.0868776 2.10888e-14 0)
(-0.0449826 -1.6518e-14 0)
(-0.0157025 -2.82501e-14 0)
(-0.00274354 -4.33516e-16 0)
(-0.000160902 3.74215e-14 0)
(-2.07624e-06 -5.01241e-14 0)
(-4.03714e-09 -1.99816e-14 0)
(-8.52245e-13 -4.04108e-15 0)
(-1.52367e-16 4.36475e-16 0)
(-1.31258e-17 3.03594e-16 0)
(5.57057e-17 2.62992e-16 0)
(1.52538e-16 5.91271e-16 0)
(1.23075e-12 -4.63397e-15 0)
(5.38587e-09 4.89468e-14 0)
(2.61272e-06 -3.5896e-14 0)
(0.000192472 4.38215e-14 0)
(0.00315245 -1.47589e-13 0)
(0.0175513 1.98412e-13 0)
(0.0495209 -5.8808e-14 0)
(0.0951624 -8.96047e-15 0)
(0.14831 -1.31925e-14 0)
(0.205235 -7.38866e-14 0)
(0.263967 9.40437e-14 0)
(0.323114 -5.68986e-14 0)
(0.381215 1.14927e-14 0)
(0.436606 1.76972e-14 0)
(0.486742 4.11898e-14 0)
(0.524985 -6.37768e-15 0)
(0.608725 -7.21833e-15 0)
(1.22128 -3.2657e-14 0)
(0.0509714 -0.102566 0)
(0.162605 0.0973981 0)
(-0.0458607 0.106769 0)
(-0.234721 0.0425497 0)
(-0.296317 0.0124968 0)
(-0.30145 0.00533012 0)
(-0.272486 0.00160684 0)
(-0.232191 0.00103001 0)
(-0.184634 0.00070519 0)
(-0.135009 0.000504891 0)
(-0.086913 0.000310097 0)
(-0.045006 0.000153178 0)
(-0.0157147 5.3364e-05 0)
(-0.00274691 9.89057e-06 0)
(-0.000161205 6.34387e-07 0)
(-2.08192e-06 8.92188e-09 0)
(-4.05217e-09 1.85423e-11 0)
(-8.56725e-13 3.06524e-15 0)
(-1.0128e-16 1.30804e-16 0)
(-3.09166e-17 1.23191e-16 0)
(4.85927e-17 1.14194e-16 0)
(1.8533e-16 1.59179e-16 0)
(1.23013e-12 -1.04747e-14 0)
(5.38589e-09 1.42556e-14 0)
(2.61272e-06 -1.01785e-14 0)
(0.000192472 2.23773e-14 0)
(0.00315245 -1.44053e-13 0)
(0.0175513 1.65454e-13 0)
(0.0495209 -9.70985e-14 0)
(0.0951624 4.26024e-16 0)
(0.14831 -5.57253e-14 0)
(0.205235 -9.09834e-14 0)
(0.263967 6.09544e-14 0)
(0.323114 -7.32779e-14 0)
(0.381215 -5.20063e-15 0)
(0.436606 1.85854e-14 0)
(0.486742 3.52347e-14 0)
(0.524985 -1.73891e-14 0)
(0.608725 -1.48043e-14 0)
(1.22128 -1.57076e-14 0)
(-0.455231 -0.0836432 0)
(-0.0997048 0.13499 0)
(-0.169463 0.155775 0)
(-0.263992 0.0731989 0)
(-0.301385 0.0239621 0)
(-0.301431 0.0103953 0)
(-0.272024 0.0032914 0)
(-0.232125 0.00217225 0)
(-0.184808 0.00145211 0)
(-0.135177 0.00100533 0)
(-0.087031 0.000614426 0)
(-0.0450767 0.000307066 0)
(-0.015747 0.000109049 0)
(-0.00275538 2.05662e-05 0)
(-0.000161982 1.32747e-06 0)
(-2.09697e-06 1.86645e-08 0)
(-4.09363e-09 3.8841e-11 0)
(-8.66511e-13 7.74627e-15 0)
(-1.6444e-16 -7.86669e-17 0)
(2.29274e-17 -5.30598e-17 0)
(2.03869e-17 0 0)
(1.26795e-16 -9.06631e-17 0)
(1.22355e-12 -7.57717e-15 0)
(5.38589e-09 -3.29686e-14 0)
(2.61272e-06 1.02182e-14 0)
(0.000192472 -1.11032e-15 0)
(0.00315245 -1.41793e-13 0)
(0.0175513 1.0813e-13 0)
(0.0495209 -1.13481e-13 0)
(0.0951624 9.21934e-15 0)
(0.14831 -9.56269e-14 0)
(0.205235 -9.25252e-14 0)
(0.263967 1.71352e-14 0)
(0.323114 -6.446e-14 0)
(0.381215 -3.08332e-15 0)
(0.436606 6.51374e-15 0)
(0.486742 4.61963e-15 0)
(0.524985 -2.28731e-14 0)
(0.608725 -4.28744e-14 0)
(1.22128 -1.97527e-14 0)
(-1.07784 -0.110918 0)
(-0.40589 0.163904 0)
(-0.318165 0.18858 0)
(-0.3094 0.104204 0)
(-0.317654 0.0411311 0)
(-0.303997 0.0188182 0)
(-0.272878 0.00813087 0)
(-0.232722 0.00515307 0)
(-0.185405 0.00322634 0)
(-0.135646 0.00207564 0)
(-0.087391 0.0012368 0)
(-0.0453411 0.000615254 0)
(-0.0158931 0.000213617 0)
(-0.00279616 3.85159e-05 0)
(-0.00016564 2.37971e-06 0)
(-2.16495e-06 3.2175e-08 0)
(-4.27187e-09 6.34635e-11 0)
(-9.13901e-13 1.07381e-14 0)
(-1.56238e-16 -5.15364e-17 0)
(4.34466e-17 -1.67145e-18 0)
(2.70469e-17 -2.99468e-18 0)
(5.50992e-17 -1.00357e-16 0)
(1.2253e-12 -3.01077e-15 0)
(5.38586e-09 -4.25222e-14 0)
(2.61272e-06 5.52631e-15 0)
(0.000192472 -5.84702e-16 0)
(0.00315245 -8.64858e-14 0)
(0.0175513 1.36205e-14 0)
(0.0495209 -8.42256e-14 0)
(0.0951624 5.3386e-14 0)
(0.14831 -1.32495e-13 0)
(0.205235 -5.92941e-14 0)
(0.263967 -2.72612e-14 0)
(0.323114 -2.80851e-14 0)
(0.381215 1.40397e-14 0)
(0.436606 -6.68974e-15 0)
(0.486742 5.74643e-15 0)
(0.524985 -3.16953e-14 0)
(0.608725 -2.87158e-15 0)
(1.22128 -9.51585e-15 0)
(-1.22292 -0.0831906 0)
(-0.567447 0.147694 0)
(-0.43324 0.180087 0)
(-0.368789 0.104487 0)
(-0.345724 0.0511014 0)
(-0.315351 0.0278829 0)
(-0.279686 0.0153825 0)
(-0.235995 0.00938473 0)
(-0.187314 0.00563332 0)
(-0.136958 0.00337893 0)
(-0.0883591 0.00186495 0)
(-0.0459855 0.000855629 0)
(-0.0162084 0.000277156 0)
(-0.00287737 4.74524e-05 0)
(-0.000172631 2.81038e-06 0)
(-2.29149e-06 3.57546e-08 0)
(-4.59048e-09 6.0497e-11 0)
(-9.99551e-13 1.5456e-14 0)
(-1.51478e-16 3.35648e-15 0)
(-7.19106e-18 3.59501e-15 0)
(3.7564e-17 3.42167e-15 0)
(6.26098e-17 3.27792e-15 0)
(1.21465e-12 -1.31056e-15 0)
(5.38585e-09 -5.58591e-15 0)
(2.61272e-06 -2.95896e-15 0)
(0.000192472 7.11757e-15 0)
(0.00315245 2.48164e-14 0)
(0.0175513 -6.53027e-14 0)
(0.0495209 -6.25633e-14 0)
(0.0951624 1.26202e-13 0)
(0.14831 -1.37611e-13 0)
(0.205235 -1.50153e-14 0)
(0.263967 -6.73015e-14 0)
(0.323114 2.06751e-14 0)
(0.381215 6.04695e-15 0)
(0.436606 -6.03524e-15 0)
(0.486742 4.21119e-14 0)
(0.524985 -3.1138e-14 0)
(0.608725 -6.92496e-15 0)
(1.22128 1.96323e-14 0)
(-1.23327 -0.0278392 0)
(-0.604613 0.0985726 0)
(-0.47699 0.139047 0)
(-0.406799 0.0836521 0)
(-0.369053 0.0492374 0)
(-0.330731 0.030819 0)
(-0.288717 0.0194154 0)
(-0.241031 0.0118803 0)
(-0.190308 0.00715727 0)
(-0.138918 0.00412374 0)
(-0.0896819 0.00215336 0)
(-0.046798 0.000930935 0)
(-0.0165792 0.000283797 0)
(-0.00296702 4.59246e-05 0)
(-0.000180014 2.4089e-06 0)
(-2.41772e-06 2.83352e-08 0)
(-4.94141e-09 1.37868e-10 0)
(-1.15108e-12 5.98376e-11 0)
(-5.06269e-16 5.97603e-11 0)
(1.00018e-16 5.97604e-11 0)
(6.13632e-17 5.97604e-11 0)
(1.14472e-16 5.97602e-11 0)
(1.26563e-12 5.98132e-11 0)
(5.38581e-09 5.97816e-11 0)
(2.61272e-06 5.9904e-11 0)
(0.000192472 5.96809e-11 0)
(0.00315245 5.9852e-11 0)
(0.0175513 5.81038e-11 0)
(0.0495209 5.47144e-11 0)
(0.0951624 4.77865e-11 0)
(0.14831 3.78991e-11 0)
(0.205235 2.78235e-11 0)
(0.263967 1.84568e-11 0)
(0.323114 1.13278e-11 0)
(0.381215 6.26454e-12 0)
(0.436606 3.27222e-12 0)
(0.486742 1.77548e-12 0)
(0.524985 8.59539e-13 0)
(0.608725 1.73909e-13 0)
(1.22128 5.37371e-14 0)
(-1.23331 4.56886e-05 0)
(-0.612066 0.0701465 0)
(-0.496014 0.104237 0)
(-0.433367 0.065274 0)
(-0.389068 0.0450283 0)
(-0.34545 0.0298652 0)
(-0.297894 0.0192197 0)
(-0.246764 0.0119325 0)
(-0.193959 0.00715398 0)
(-0.141299 0.00401333 0)
(-0.0911998 0.00201349 0)
(-0.0476568 0.000824684 0)
(-0.0169387 0.00022611 0)
(-0.00304489 3.18661e-05 0)
(-0.000186128 2.14776e-06 0)
(-2.53463e-06 1.3184e-07 0)
(-5.23276e-09 9.72474e-08 0)
(-1.35734e-12 9.71802e-08 0)
(-5.61045e-15 9.71801e-08 0)
(2.01868e-14 9.71801e-08 0)
(4.24432e-15 9.71801e-08 0)
(-7.90808e-15 9.71801e-08 0)
(1.37284e-12 9.71802e-08 0)
(5.38566e-09 9.71801e-08 0)
(2.61272e-06 9.718e-08 0)
(0.000192472 9.71682e-08 0)
(0.00315245 9.69211e-08 0)
(0.0175513 9.53704e-08 0)
(0.0495209 9.06914e-08 0)
(0.0951623 8.18017e-08 0)
(0.14831 6.92381e-08 0)
(0.205235 5.47492e-08 0)
(0.263967 4.03781e-08 0)
(0.323114 2.78191e-08 0)
(0.381215 1.79939e-08 0)
(0.436606 1.12055e-08 0)
(0.486742 6.5458e-09 0)
(0.524985 3.70451e-09 0)
(0.608725 9.69713e-10 0)
(1.22128 5.49826e-11 0)
(-1.23134 0.0255858 0)
(-0.610931 0.0523115 0)
(-0.504669 0.0768284 0)
(-0.45127 0.0496992 0)
(-0.404983 0.0374557 0)
(-0.357329 0.0254175 0)
(-0.306008 0.0166204 0)
(-0.252282 0.0105139 0)
(-0.197652 0.00628717 0)
(-0.143701 0.00342969 0)
(-0.0926177 0.00161348 0)
(-0.0483787 0.000610981 0)
(-0.0172175 0.000190896 0)
(-0.00310837 5.08523e-05 0)
(-0.000190646 2.16357e-05 0)
(-2.60215e-06 1.99383e-05 0)
(-5.39926e-09 1.99193e-05 0)
(-1.21914e-12 1.99193e-05 0)
(-2.5249e-14 1.99193e-05 0)
(1.69266e-14 1.99193e-05 0)
(7.11098e-15 1.99193e-05 0)
(-3.07047e-14 1.99193e-05 0)
(1.17179e-12 1.99193e-05 0)
(5.38606e-09 1.99193e-05 0)
(2.61269e-06 1.99193e-05 0)
(0.00019247 1.99172e-05 0)
(0.00315242 1.98783e-05 0)
(0.0175512 1.96397e-05 0)
(0.0495207 1.89307e-05 0)
(0.0951619 1.75747e-05 0)
(0.148309 1.5601e-05 0)
(0.205234 1.32015e-05 0)
(0.263966 1.0635e-05 0)
(0.323114 8.16466e-06 0)
(0.381214 5.98902e-06 0)
(0.436605 4.27938e-06 0)
(0.486741 2.90971e-06 0)
(0.524984 1.94098e-06 0)
(0.608725 6.30681e-07 0)
(1.22128 6.73164e-08 0)
(-1.22969 0.0316845 0)
(-0.608163 0.0397397 0)
(-0.509075 0.0572562 0)
(-0.463925 0.0379682 0)
(-0.417041 0.0299704 0)
(-0.366267 0.0208398 0)
(-0.312262 0.013892 0)
(-0.256457 0.00895219 0)
(-0.200398 0.00557926 0)
(-0.145486 0.003373 0)
(-0.0937703 0.0019804 0)
(-0.0489903 0.00119754 0)
(-0.0174212 0.000844194 0)
(-0.003141 0.000741043 0)
(-0.000192612 0.000727939 0)
(-2.62814e-06 0.000727494 0)
(-5.45042e-09 0.000727492 0)
(-1.26751e-12 0.000727492 0)
(-5.98653e-14 0.000727492 0)
(-7.696e-14 0.000727492 0)
(-1.10517e-13 0.000727492 0)
(-1.13726e-13 0.000727492 0)
(1.21859e-12 0.000727492 0)
(5.38311e-09 0.000727492 0)
(2.61152e-06 0.000727491 0)
(0.000192402 0.000727429 0)
(0.00315153 0.000726341 0)
(0.0175471 0.000719964 0)
(0.0495106 0.00070157 0)
(0.095145 0.000666654 0)
(0.148286 0.000615018 0)
(0.205207 0.000549823 0)
(0.263937 0.000475885 0)
(0.323085 0.000399036 0)
(0.381188 0.00032442 0)
(0.436582 0.000259439 0)
(0.48672 0.000200279 0)
(0.52497 0.000153362 0)
(0.608702 6.19572e-05 0)
(1.22128 1.28208e-05 0)
(-1.22714 0.0322011 0)
(-0.604678 0.0314563 0)
(-0.512202 0.0444338 0)
(-0.472404 0.0311375 0)
(-0.424736 0.025381 0)
(-0.372334 0.0190608 0)
(-0.316953 0.0145029 0)
(-0.259873 0.0113126 0)
(-0.202605 0.00914256 0)
(-0.146747 0.00790677 0)
(-0.0943607 0.00733721 0)
(-0.0491941 0.00712325 0)
(-0.0174618 0.00707253 0)
(-0.00314179 0.00708479 0)
(-0.000192246 0.00709274 0)
(-2.6159e-06 0.0070934 0)
(-5.40509e-09 0.00709341 0)
(-1.24922e-12 0.00709341 0)
(4.85578e-14 0.00709341 0)
(9.35182e-14 0.00709341 0)
(7.45897e-14 0.00709341 0)
(4.42253e-14 0.00709341 0)
(1.22077e-12 0.00709341 0)
(5.3482e-09 0.00709341 0)
(2.59866e-06 0.00709341 0)
(0.000191684 0.00709291 0)
(0.00314261 0.00708465 0)
(0.0175082 0.00703903 0)
(0.0494202 0.00691377 0)
(0.094995 0.00668219 0)
(0.14808 0.0063406 0)
(0.204955 0.00590154 0)
(0.263653 0.0053851 0)
(0.322785 0.00481968 0)
(0.38089 0.00423012 0)
(0.436295 0.00367986 0)
(0.486443 0.00313022 0)
(0.524763 0.00266155 0)
(0.608276 0.00133381 0)
(1.22125 0.000502677 0)
(-1.22437 0.0309021 0)
(-0.601131 0.0308211 0)
(-0.518321 0.0397824 0)
(-0.479256 0.0334534 0)
(-0.430203 0.0307084 0)
(-0.375914 0.0281031 0)
(-0.31896 0.0267398 0)
(-0.260843 0.0263351 0)
(-0.202976 0.0264483 0)
(-0.146762 0.0267872 0)
(-0.0942064 0.027251 0)
(-0.0490262 0.0277181 0)
(-0.0173619 0.0280355 0)
(-0.00311179 0.0281705 0)
(-0.000189286 0.0281987 0)
(-2.55541e-06 0.0282005 0)
(-5.23009e-09 0.0282005 0)
(-1.00103e-12 0.0282005 0)
(9.93045e-14 0.0282005 0)
(3.63132e-15 0.0282005 0)
(-1.1734e-13 0.0282005 0)
(-1.94224e-13 0.0282005 0)
(9.76949e-13 0.0282005 0)
(5.19691e-09 0.0282005 0)
(2.54284e-06 0.0282005 0)
(0.000188672 0.0281988 0)
(0.00310712 0.0281721 0)
(0.0173632 0.0280333 0)
(0.0491014 0.027675 0)
(0.0944851 0.0270414 0)
(0.147388 0.0261276 0)
(0.204101 0.0249581 0)
(0.262667 0.0235659 0)
(0.321703 0.0220037 0)
(0.379758 0.0203049 0)
(0.435133 0.0186735 0)
(0.48527 0.0169605 0)
(0.523812 0.0154423 0)
(0.60606 0.00942783 0)
(1.22091 0.00557125 0)
(-1.22051 0.0387 0)
(-0.59875 0.0442924 0)
(-0.52001 0.0542909 0)
(-0.480723 0.0544262 0)
(-0.431134 0.055369 0)
(-0.376244 0.056258 0)
(-0.3187 0.057572 0)
(-0.260221 0.059052 0)
(-0.202197 0.0606789 0)
(-0.145961 0.0622381 0)
(-0.0934724 0.0635747 0)
(-0.0484676 0.0646026 0)
(-0.0170642 0.0652461 0)
(-0.0030301 0.0655153 0)
(-0.000181855 0.06557 0)
(-2.41321e-06 0.0655736 0)
(-4.83996e-09 0.0655736 0)
(-1.21805e-12 0.0655736 0)
(-1.15194e-13 0.0655736 0)
(-6.48265e-14 0.0655736 0)
(2.36548e-14 0.0655736 0)
(1.06412e-13 0.0655736 0)
(1.19276e-12 0.0655736 0)
(4.83046e-09 0.0655736 0)
(2.40867e-06 0.0655736 0)
(0.000181551 0.0655701 0)
(0.00302602 0.0655171 0)
(0.0170487 0.0652536 0)
(0.0484498 0.0646111 0)
(0.0934922 0.0635309 0)
(0.14608 0.0620274 0)
(0.202509 0.0601419 0)
(0.260829 0.0579135 0)
(0.31966 0.0554058 0)
(0.377559 0.0526349 0)
(0.432831 0.0500096 0)
(0.482903 0.0472323 0)
(0.521728 0.0446275 0)
(0.601529 0.0320343 0)
(1.21919 0.0249752 0)
(-1.21525 0.0693363 0)
(-0.595945 0.0763384 0)
(-0.518858 0.0911414 0)
(-0.479455 0.0932868 0)
(-0.429543 0.0953295 0)
(-0.37451 0.0977436 0)
(-0.316886 0.100715 0)
(-0.258338 0.10352 0)
(-0.200345 0.106163 0)
(-0.144274 0.108541 0)
(-0.0920706 0.110532 0)
(-0.0474672 0.112027 0)
(-0.0165492 0.112962 0)
(-0.00289229 0.113361 0)
(-0.000169614 0.113443 0)
(-2.18422e-06 0.113448 0)
(-4.22617e-09 0.113448 0)
(-6.80785e-13 0.113448 0)
(1.78685e-13 0.113448 0)
(8.79777e-14 0.113448 0)
(-4.84858e-14 0.113448 0)
(-1.18328e-13 0.113448 0)
(7.34486e-13 0.113448 0)
(4.22688e-09 0.113448 0)
(2.18394e-06 0.113448 0)
(0.000169554 0.113443 0)
(0.00289084 0.113362 0)
(0.0165399 0.11297 0)
(0.0474406 0.112049 0)
(0.0920218 0.110568 0)
(0.144212 0.108579 0)
(0.200291 0.10615 0)
(0.258297 0.10332 0)
(0.316859 0.100168 0)
(0.374514 0.0966682 0)
(0.429679 0.0935334 0)
(0.479639 0.0902801 0)
(0.518561 0.086736 0)
(0.596672 0.0700075 0)
(1.21446 0.0629289 0)
(-1.20645 0.117432 0)
(-0.59333 0.11976 0)
(-0.514818 0.136432 0)
(-0.476072 0.140743 0)
(-0.426172 0.143605 0)
(-0.371145 0.146848 0)
(-0.313701 0.150789 0)
(-0.255411 0.154452 0)
(-0.197688 0.157758 0)
(-0.141945 0.160657 0)
(-0.0901641 0.163092 0)
(-0.0461102 0.164955 0)
(-0.0158465 0.166143 0)
(-0.00270419 0.166658 0)
(-0.000153139 0.166762 0)
(-1.8845e-06 0.166769 0)
(-3.45392e-09 0.166769 0)
(-7.95001e-13 0.166769 0)
(-6.96104e-14 0.166769 0)
(-5.95876e-14 0.166769 0)
(-8.99215e-14 0.166769 0)
(-1.06909e-13 0.166769 0)
(6.19566e-13 0.166769 0)
(3.45566e-09 0.166769 0)
(1.88515e-06 0.166769 0)
(0.000153159 0.166762 0)
(0.00270401 0.166658 0)
(0.0158429 0.166147 0)
(0.0460937 0.164969 0)
(0.0901229 0.163132 0)
(0.141873 0.160741 0)
(0.197579 0.157887 0)
(0.255257 0.15462 0)
(0.313512 0.151002 0)
(0.370934 0.147055 0)
(0.425992 0.143715 0)
(0.475864 0.140466 0)
(0.514466 0.13584 0)
(0.593206 0.118141 0)
(1.20593 0.115156 0)
(-1.19178 0.171011 0)
(-0.591314 0.170287 0)
(-0.510168 0.188475 0)
(-0.472176 0.193956 0)
(-0.422363 0.197098 0)
(-0.36708 0.20024 0)
(-0.310025 0.204794 0)
(-0.251912 0.208755 0)
(-0.194548 0.21249 0)
(-0.139174 0.215743 0)
(-0.0878675 0.21852 0)
(-0.0444507 0.220691 0)
(-0.0149805 0.222103 0)
(-0.00247451 0.222716 0)
(-0.00013361 0.222838 0)
(-1.54549e-06 0.222846 0)
(-2.6302e-09 0.222846 0)
(-3.13217e-13 0.222846 0)
(1.58411e-13 0.222846 0)
(1.12674e-13 0.222846 0)
(3.84385e-14 0.222846 0)
(-1.25201e-14 0.222846 0)
(4.56075e-13 0.222846 0)
(2.6313e-09 0.222846 0)
(1.54592e-06 0.222846 0)
(0.000133634 0.222838 0)
(0.00247469 0.222716 0)
(0.01498 0.222104 0)
(0.0444448 0.220697 0)
(0.0878477 0.218542 0)
(0.139131 0.215798 0)
(0.194469 0.212595 0)
(0.251791 0.208939 0)
(0.309866 0.20508 0)
(0.366881 0.200609 0)
(0.422128 0.197522 0)
(0.471899 0.194358 0)
(0.509876 0.188912 0)
(0.591114 0.17049 0)
(1.19154 0.17072 0)
(-1.17571 0.238889 0)
(-0.589843 0.223388 0)
(-0.505099 0.243466 0)
(-0.467845 0.249495 0)
(-0.417646 0.252137 0)
(-0.362968 0.255963 0)
(-0.305687 0.26026 0)
(-0.248097 0.264712 0)
(-0.190987 0.268644 0)
(-0.136039 0.272221 0)
(-0.0852336 0.275293 0)
(-0.0425271 0.277738 0)
(-0.0139778 0.27934 0)
(-0.00221468 0.280028 0)
(-0.000112532 0.280161 0)
(-1.20324e-06 0.280169 0)
(-1.86455e-09 0.280169 0)
(-2.7956e-13 0.280169 0)
(2.31677e-14 0.280169 0)
(-6.44987e-15 0.280169 0)
(-4.39032e-14 0.280169 0)
(-6.28841e-14 0.280169 0)
(2.62093e-13 0.280169 0)
(1.86489e-09 0.280169 0)
(1.20338e-06 0.280169 0)
(0.000112543 0.280161 0)
(0.00221482 0.280028 0)
(0.0139781 0.27934 0)
(0.0425262 0.277739 0)
(0.0852277 0.275301 0)
(0.136022 0.272245 0)
(0.190953 0.268698 0)
(0.248043 0.26482 0)
(0.30561 0.260433 0)
(0.362861 0.256206 0)
(0.417498 0.252451 0)
(0.467665 0.24989 0)
(0.504941 0.24395 0)
(0.589753 0.223769 0)
(1.17564 0.238921 0)
(-1.15053 0.288995 0)
(-0.58919 0.276301 0)
(-0.502905 0.301993 0)
(-0.462929 0.3052 0)
(-0.413889 0.309069 0)
(-0.35783 0.311205 0)
(-0.30199 0.316929 0)
(-0.24383 0.320761 0)
(-0.187256 0.325125 0)
(-0.132606 0.328872 0)
(-0.0823296 0.332221 0)
(-0.0403924 0.3349 0)
(-0.0128771 0.336656 0)
(-0.00193952 0.337392 0)
(-9.15614e-05 0.337528 0)
(-8.90363e-07 0.337535 0)
(-1.23238e-09 0.337535 0)
(-2.64099e-13 0.337535 0)
(-1.54884e-14 0.337535 0)
(-2.52491e-15 0.337535 0)
(-4.223e-14 0.337535 0)
(-6.29935e-14 0.337535 0)
(1.42347e-13 0.337535 0)
(1.23226e-09 0.337535 0)
(8.90385e-07 0.337535 0)
(9.1564e-05 0.337528 0)
(0.00193957 0.337392 0)
(0.0128773 0.336655 0)
(0.0403928 0.3349 0)
(0.0823292 0.332222 0)
(0.132602 0.328878 0)
(0.187248 0.325143 0)
(0.243816 0.320799 0)
(0.301965 0.316992 0)
(0.357794 0.311304 0)
(0.41383 0.309214 0)
(0.462859 0.305403 0)
(0.502857 0.302255 0)
(0.589185 0.276495 0)
(1.15054 0.289066 0)
(-1.12774 0.366973 0)
(-0.587515 0.328374 0)
(-0.49884 0.356189 0)
(-0.458076 0.359556 0)
(-0.407064 0.361717 0)
(-0.35415 0.367192 0)
(-0.296456 0.371067 0)
(-0.23971 0.376164 0)
(-0.183009 0.380349 0)
(-0.12888 0.384432 0)
(-0.0791381 0.387995 0)
(-0.0380639 0.390874 0)
(-0.011706 0.392733 0)
(-0.00166192 0.393486 0)
(-7.20522e-05 0.393615 0)
(-6.28127e-07 0.393622 0)
(-7.63697e-10 0.393622 0)
(-1.86657e-13 0.393622 0)
(-3.33357e-14 0.393622 0)
(-1.15145e-14 0.393622 0)
(-9.78109e-15 0.393622 0)
(-3.09534e-15 0.393622 0)
(1.39445e-13 0.393622 0)
(7.63593e-10 0.393622 0)
(6.28121e-07 0.393622 0)
(7.2052e-05 0.393615 0)
(0.00166192 0.393486 0)
(0.0117061 0.392733 0)
(0.0380642 0.390873 0)
(0.0791389 0.387994 0)
(0.128881 0.384431 0)
(0.18301 0.380351 0)
(0.239711 0.376168 0)
(0.296455 0.371077 0)
(0.354145 0.367214 0)
(0.407058 0.361756 0)
(0.458067 0.359616 0)
(0.498845 0.356263 0)
(0.587532 0.328426 0)
(1.12775 0.366998 0)
(-1.09817 0.402815 0)
(-0.587754 0.378353 0)
(-0.499644 0.41396 0)
(-0.453072 0.410635 0)
(-0.40488 0.415538 0)
(-0.348744 0.417917 0)
(-0.294229 0.424694 0)
(-0.236074 0.42875 0)
(-0.179902 0.433413 0)
(-0.125654 0.437377 0)
(-0.0762162 0.441026 0)
(-0.0358454 0.443997 0)
(-0.0105934 0.445919 0)
(-0.00140959 0.44667 0)
(-5.56972e-05 0.44679 0)
(-4.31143e-07 0.446795 0)
(-4.55058e-10 0.446795 0)
(8.00652e-14 0.446795 0)
(1.10354e-13 0.446795 0)
(6.43089e-14 0.446795 0)
(1.40453e-14 0.446795 0)
(-2.10723e-14 0.446795 0)
(9.5429e-15 0.446795 0)
(4.55081e-10 0.446795 0)
(4.31139e-07 0.446795 0)
(5.56968e-05 0.44679 0)
(0.00140958 0.44667 0)
(0.0105934 0.445919 0)
(0.0358456 0.443997 0)
(0.0762167 0.441025 0)
(0.125655 0.437376 0)
(0.179904 0.43341 0)
(0.236077 0.428746 0)
(0.294232 0.424689 0)
(0.348749 0.417914 0)
(0.404885 0.415537 0)
(0.453081 0.410637 0)
(0.499654 0.413962 0)
(0.587762 0.378355 0)
(1.09818 0.402819 0)
(-1.06782 0.479563 0)
(-0.586003 0.426592 0)
(-0.495939 0.460497 0)
(-0.450403 0.45918 0)
(-0.400909 0.462373 0)
(-0.347015 0.466866 0)
(-0.290997 0.471784 0)
(-0.233714 0.476619 0)
(-0.177057 0.481084 0)
(-0.122671 0.485089 0)
(-0.0733054 0.488787 0)
(-0.0335738 0.491806 0)
(-0.0094702 0.49374 0)
(-0.00117081 0.494444 0)
(-4.17527e-05 0.494543 0)
(-2.83587e-07 0.494547 0)
(-2.56842e-10 0.494547 0)
(-5.49254e-14 0.494547 0)
(-2.19925e-14 0.494547 0)
(-2.17777e-14 0.494547 0)
(-1.50555e-14 0.494547 0)
(4.8425e-15 0.494547 0)
(6.92738e-14 0.494547 0)
(2.56845e-10 0.494547 0)
(2.83586e-07 0.494547 0)
(4.17525e-05 0.494543 0)
(0.00117081 0.494444 0)
(0.00947019 0.49374 0)
(0.0335739 0.491806 0)
(0.0733056 0.488786 0)
(0.122672 0.485088 0)
(0.177058 0.481082 0)
(0.233716 0.476616 0)
(0.290999 0.47178 0)
(0.347019 0.466861 0)
(0.400914 0.462366 0)
(0.450409 0.459172 0)
(0.495945 0.460489 0)
(0.586005 0.426588 0)
(1.06782 0.479564 0)
(-1.0453 0.474417 0)
(-0.584082 0.461115 0)
(-0.498233 0.506229 0)
(-0.450426 0.502619 0)
(-0.402966 0.50665 0)
(-0.343263 0.505855 0)
(-0.28742 0.509702 0)
(-0.227895 0.511754 0)
(-0.171837 0.516447 0)
(-0.118474 0.521081 0)
(-0.0702139 0.524996 0)
(-0.0314735 0.527828 0)
(-0.00847868 0.529478 0)
(-0.000965631 0.530143 0)
(-3.05845e-05 0.530258 0)
(-1.79987e-07 0.530262 0)
(-1.38368e-10 0.530262 0)
(-3.75682e-15 0.530262 0)
(2.72951e-14 0.530262 0)
(8.84435e-15 0.530262 0)
(-5.26051e-15 0.530262 0)
(-4.00113e-15 0.530262 0)
(-6.51372e-15 0.530262 0)
(1.38372e-10 0.530262 0)
(1.79987e-07 0.530262 0)
(3.05844e-05 0.530258 0)
(0.00096563 0.530143 0)
(0.00847868 0.529478 0)
(0.0314735 0.527828 0)
(0.0702139 0.524996 0)
(0.118475 0.521081 0)
(0.171837 0.516446 0)
(0.227896 0.511753 0)
(0.287421 0.5097 0)
(0.343264 0.505852 0)
(0.402968 0.506646 0)
(0.450428 0.502614 0)
(0.498235 0.506225 0)
(0.584081 0.461113 0)
(1.0453 0.474417 0)
(-0.984446 0.57396 0)
(-0.547846 0.552474 0)
(-0.455402 0.590972 0)
(-0.419071 0.592099 0)
(-0.369828 0.594236 0)
(-0.317567 0.594175 0)
(-0.263489 0.596014 0)
(-0.20893 0.596719 0)
(-0.154275 0.598229 0)
(-0.101447 0.600762 0)
(-0.0550185 0.604958 0)
(-0.021612 0.610179 0)
(-0.00490993 0.61407 0)
(-0.000464013 0.615413 0)
(-1.23065e-05 0.615571 0)
(-6.03645e-08 0.615575 0)
(-3.88352e-11 0.615575 0)
(-9.28814e-16 0.615575 0)
(-5.52781e-15 0.615575 0)
(-1.29579e-14 0.615575 0)
(-8.01682e-15 0.615575 0)
(-1.10578e-14 0.615575 0)
(6.33235e-15 0.615575 0)
(3.87157e-11 0.615575 0)
(6.03645e-08 0.615575 0)
(1.23065e-05 0.615571 0)
(0.000464013 0.615413 0)
(0.00490993 0.61407 0)
(0.021612 0.610179 0)
(0.0550185 0.604958 0)
(0.101447 0.600762 0)
(0.154275 0.598229 0)
(0.20893 0.596719 0)
(0.263489 0.596014 0)
(0.317566 0.594174 0)
(0.369828 0.594234 0)
(0.41907 0.592097 0)
(0.455401 0.590971 0)
(0.547845 0.552473 0)
(0.984445 0.57396 0)
(-1.04104 1.04663 0)
(-0.567303 0.987081 0)
(-0.466955 1.05093 0)
(-0.471801 1.0742 0)
(-0.391889 1.1048 0)
(-0.354064 1.13535 0)
(-0.274016 1.15821 0)
(-0.221159 1.1831 0)
(-0.152941 1.19883 0)
(-0.0966792 1.21203 0)
(-0.0474556 1.21946 0)
(-0.0154942 1.22304 0)
(-0.00251046 1.22408 0)
(-0.000141757 1.22424 0)
(-1.95154e-06 1.22424 0)
(-4.82864e-09 1.22424 0)
(-1.62362e-12 1.22424 0)
(-4.19885e-14 1.22424 0)
(-3.23862e-14 1.22424 0)
(-2.38037e-14 1.22424 0)
(-1.38987e-14 1.22424 0)
(-4.42455e-16 1.22424 0)
(-8.0928e-15 1.22424 0)
(1.52352e-12 1.22424 0)
(4.82835e-09 1.22424 0)
(1.95154e-06 1.22424 0)
(0.000141757 1.22424 0)
(0.00251046 1.22408 0)
(0.0154942 1.22304 0)
(0.0474556 1.21946 0)
(0.0966792 1.21203 0)
(0.152941 1.19883 0)
(0.221159 1.1831 0)
(0.274016 1.15821 0)
(0.354064 1.13535 0)
(0.391889 1.1048 0)
(0.471801 1.0742 0)
(0.466955 1.05093 0)
(0.567303 0.987081 0)
(1.04104 1.04663 0)
(-1.04104 -1.04663 0)
(-0.567303 -0.987081 0)
(-0.466955 -1.05093 0)
(-0.471801 -1.0742 0)
(-0.391889 -1.1048 0)
(-0.354064 -1.13535 0)
(-0.274016 -1.15821 0)
(-0.221159 -1.1831 0)
(-0.152941 -1.19883 0)
(-0.0966792 -1.21203 0)
(-0.0474556 -1.21946 0)
(-0.0154942 -1.22304 0)
(-0.00251046 -1.22408 0)
(-0.000141757 -1.22424 0)
(-1.95154e-06 -1.22424 0)
(-4.82813e-09 -1.22424 0)
(-1.4667e-12 -1.22424 0)
(1.12717e-13 -1.22424 0)
(1.26513e-13 -1.22424 0)
(6.22946e-14 -1.22424 0)
(4.16143e-14 -1.22424 0)
(2.40381e-14 -1.22424 0)
(-2.35229e-16 -1.22424 0)
(1.57256e-12 -1.22424 0)
(4.8283e-09 -1.22424 0)
(1.95154e-06 -1.22424 0)
(0.000141757 -1.22424 0)
(0.00251046 -1.22408 0)
(0.0154942 -1.22304 0)
(0.0474556 -1.21946 0)
(0.0966792 -1.21203 0)
(0.152941 -1.19883 0)
(0.221159 -1.1831 0)
(0.274016 -1.15821 0)
(0.354064 -1.13535 0)
(0.391889 -1.1048 0)
(0.471801 -1.0742 0)
(0.466955 -1.05093 0)
(0.567303 -0.987081 0)
(1.04104 -1.04663 0)
(-0.984446 -0.57396 0)
(-0.547846 -0.552474 0)
(-0.455402 -0.590972 0)
(-0.419071 -0.592099 0)
(-0.369828 -0.594236 0)
(-0.317567 -0.594175 0)
(-0.263489 -0.596014 0)
(-0.20893 -0.596719 0)
(-0.154275 -0.598229 0)
(-0.101447 -0.600762 0)
(-0.0550185 -0.604958 0)
(-0.021612 -0.610179 0)
(-0.00490993 -0.61407 0)
(-0.000464013 -0.615413 0)
(-1.23065e-05 -0.615571 0)
(-6.03643e-08 -0.615575 0)
(-3.87741e-11 -0.615575 0)
(2.25092e-14 -0.615575 0)
(2.88929e-14 -0.615575 0)
(1.18146e-14 -0.615575 0)
(1.53608e-14 -0.615575 0)
(2.53184e-14 -0.615575 0)
(1.87109e-14 -0.615575 0)
(3.87357e-11 -0.615575 0)
(6.03644e-08 -0.615575 0)
(1.23065e-05 -0.615571 0)
(0.000464013 -0.615413 0)
(0.00490993 -0.61407 0)
(0.021612 -0.610179 0)
(0.0550185 -0.604958 0)