/*--------------------------------*- C++ -*----------------------------------*\
| =========                 |                                                 |
| \\      /  F ield         | OpenFOAM: The Open Source CFD Toolbox           |
|  \\    /   O peration     | Version:  v1912                                 |
|   \\  /    A nd           | Website:  www.openfoam.com                      |
|    \\/     M anipulation  |                                                 |
\*---------------------------------------------------------------------------*/
FoamFile
{
    version     2.0;
    format      ascii;
    class       volScalarField;
    location    "7.48";
    object      p;
}
// * * * * * * * * * * * * * * * * * * * * * * * * * * * * * * * * * * * * * //

dimensions      [1 -1 -2 0 0 0 0];


internalField   nonuniform List<scalar> 
1900
(
22065
9241.85
8569.64
8519.53
8468.94
8434.9
8400.45
8378.15
8360.66
8351.95
22064.9
9241.85
8569.57
8519.68
8468.94
8435.31
8400.12
8381.3
8366.71
8352.21
22064.9
9241.86
8569.52
8519.83
8469.19
8435.78
8399.33
8380.82
8360.13
8341.53
22064.9
9241.85
8569.57
8519.68
8468.94
8435.31
8400.12
8381.3
8366.71
8352.21
22065
9241.85
8569.64
8519.53
8468.94
8434.9
8400.45
8378.15
8360.66
8351.95
8471.78
8326.24
8272.18
8115.25
8378.02
8342.1
8245.63
8199.45
8041.45
7947.61
8313.02
8226.99
8186.52
8062.39
7979.54
8342.1
8245.63
8199.45
8041.45
7947.61
8471.78
8326.24
8272.18
8115.25
8378.02
3522.92
2049.65
1440.3
1116.45
857.432
3982.14
2261.39
1552.43
1203.95
918.674
4091.24
2221.68
1504.42
1170.18
875.377
3982.14
2261.39
1552.43
1203.95
918.674
3522.92
2049.65
1440.3
1116.45
857.432
863.156
847.943
807.919
771.533
702.376
602.049
591.707
714.901
1221.2
1385.29
1365.41
1350.44
1329.48
1256.99
1129.92
982.305
835.465
686.527
524.179
392.806
336.067
317.486
306.448
296.711
288.584
283.15
280.771
280.67
281.562
283.293
284.848
287.748
300.46
373.341
552.435
686.472
767.903
826.314
888.427
946.366
810.525
813.171
810.002
784.683
712.06
601.669
579.7
705.625
1211.83
1383.76
1367.94
1354.98
1334.01
1263.34
1132.45
985.473
839.935
690.218
526.088
393.356
336.11
317.466
306.46
296.714
288.561
283.112
280.73
280.633
281.529
283.266
284.823
287.722
300.433
373.28
552.453
686.516
767.948
826.267
888.415
946.445
802.463
795.826
798.378
784.683
724.593
606.529
584.504
698.079
1213.67
1387.08
1369.72
1357.02
1337.74
1280.31
1154.1
992.525
840.238
689.159
525.82
393.554
336.158
317.463
306.466
296.717
288.554
283.098
280.715
280.62
281.518
283.256
284.814
287.712
300.424
373.26
552.459
686.526
767.971
826.273
888.432
946.397
810.525
813.171
810.002
784.683
712.06
601.669
579.7
705.625
1211.83
1383.76
1367.94
1354.98
1334.01
1263.34
1132.45
985.473
839.935
690.218
526.088
393.356
336.11
317.466
306.46
296.714
288.561
283.112
280.73
280.633
281.529
283.266
284.823
287.722
300.433
373.28
552.453
686.516
767.948
826.267
888.415
946.445
863.156
847.943
807.919
771.533
702.376
602.049
591.707
714.901
1221.2
1385.29
1365.41
1350.44
1329.48
1256.99
1129.92
982.305
835.465
686.527
524.179
392.806
336.067
317.486
306.448
296.711
288.584
283.15
280.771
280.67
281.562
283.293
284.848
287.748
300.46
373.341
552.435
686.472
767.903
826.314
888.427
946.366
955.308
861.051
783.319
738.819
678.44
605.562
605.808
777.543
1204.41
1338.21
1329.57
1318.44
1303.01
1238.33
1115.4
968.664
826.293
680.633
519.293
390.229
335.689
317.537
306.415
296.703
288.675
283.319
280.96
280.84
281.712
283.415
284.957
287.846
300.576
373.5
552.26
685.89
767.842
825.664
888.167
946.467
962.222
865.401
766.023
693.6
634.878
606.965
648.162
873.209
1178.96
1276.39
1278.41
1273.46
1244.57
1171.08
1058.01
929.132
800.107
660.057
503.294
383.478
334.773
317.602
306.354
296.689
288.868
283.706
281.409
281.25
282.073
283.711
285.211
288.073
300.833
373.817
552.033
684.907
767.958
824.377
887.695
946.387
967.908
918.06
858.732
775.908
717.725
714.964
790.601
978.36
1156.84
1195.44
1194.68
1192.91
1157.6
1090.94
994.242
882.528
764.781
629.676
480.335
374.616
333.635
317.659
306.347
296.77
289.205
284.3
282.1
281.9
282.66
284.207
285.637
288.451
301.241
374.262
551.815
684.036
767.725
823.506
888.17
947.094
967.751
903.748
835.22
765.973
746.327
781.629
837.445
984.991
1092.51
1112.57
1139.16
1120
1076.65
1014.1
928.872
830.104
721.654
591.73
453.419
365.413
332.588
317.728
306.411
296.975
289.709
285.098
283.014
282.778
283.47
284.909
286.248
289.005
301.828
374.954
551.888
683.626
767.769
823.588
889.151
948.028
963.782
896.831
840.532
805.206
814.841
849.807
905.981
992.864
1022.72
1062.88
1064.25
1036.78
1000.1
941.076
862.073
773.863
673.293
548.478
425.346
357.152
331.657
317.712
306.482
297.271
290.356
286.073
284.119
283.856
284.482
285.804
287.038
289.719
302.581
375.666
551.684
682.878
767.395
823.813
890.103
948.849
965.81
909.385
878.841
867.559
873.031
893.396
931.306
945.325
969.532
994.011
989.33
967.308
926.348
866.73
795.98
718.234
622.368
502.458
399.636
351.018
331.077
317.734
306.634
297.735
291.228
287.29
285.472
285.195
285.763
286.976
288.102
290.741
303.665
377.092
552.445
682.976
767.711
824.838
891.628
949.811
972.437
937.878
926.731
907.773
887.431
881.461
876.175
884.345
922.686
938.661
921.276
894.132
850.557
794.831
734.612
663.785
568.437
457.099
379.636
346.903
330.439
317.586
306.766
298.284
292.24
288.668
286.991
286.71
287.232
288.349
289.381
291.953
304.931
378.194
552.641
682.691
767.651
825.587
892.816
950.361
973.205
950.965
918.532
873.08
839.778
823.655
832.294
868.182
881.161
866.982
851.501
819.775
777.034
730.987
678.924
608.672
512.115
417.927
366.866
344.769
330.181
317.663
307.258
299.294
293.737
290.502
288.957
288.67
289.132
290.159
291.105
293.662
306.745
380.332
554.061
683.159
768.18
826.901
894.43
951.189
937.533
925.997
865.592
840.814
818.678
815.565
826.114
819.552
815.091
803.58
780.559
747.648
712.943
675.732
625.648
551.091
458.92
390.866
360.093
343.491
329.944
317.926
308.093
300.688
295.618
292.703
291.28
290.98
291.379
292.339
293.235
295.791
308.955
382.35
555.218
683.759
768.997
828.417
896.139
951.915
967.259
944.062
893.21
862.221
827.324
800.339
781.566
769.9
757.196
738.495
712.897
685.853
659.66
625.047
570.278
492.15
417.234
376.761
357.393
343.351
330.392
318.893
309.671
302.813
298.156
295.467
294.107
293.753
294.073
294.973
295.848
298.476
311.809
385.445
557.556
685.146
770.677
830.762
898.539
953.227
991.091
943.891
902.931
861.763
823.633
779.518
745.072
719.794
698.754
676.67
654.451
635.286
612.556
574.284
513.17
441.823
393.002
370.343
356.024
343.007
330.489
319.611
311.017
304.721
300.489
298.029
296.738
296.331
296.592
297.49
298.436
301.175
314.65
387.606
558.885
686.376
772.69
833.483
901.103
954.19
989.535
945.006
913.501
884.48
829.265
763.394
705.124
666.417
641.004
621.552
606.862
592.559
566.995
521.358
459.707
408.446
382.347
367.935
356.117
343.944
332.233
322.351
314.724
309.276
305.698
303.728
302.723
302.529
302.933
304.074
305.182
308.271
322.277
396.337
569.311
696.731
781.039
840.055
905.963
956.307
995.776
956.483
931.603
907.409
834.657
745.032
662.205
615.856
593.092
580.633
571.106
554.512
522.328
475.058
428.523
400.68
385.979
375.884
365.512
354.554
344.436
336.214
330.06
325.84
323.197
321.9
321.361
321.589
322.37
323.978
325.371
329.051
344.238
422.234
601.185
727.444
808.826
860.261
915.403
958.081
1005.05
970.774
951.258
921.097
843.044
730.746
629.01
582.643
566.896
563.331
559.437
542.252
507.457
468.195
443.346
434.632
431.841
428.904
424.129
418.109
412.795
409.34
407.534
407.147
407.641
409.268
410.642
413.087
415.382
418.453
420.072
425.065
444.389
538.334
732.834
843.634
897.409
916.64
944.544
963.763
1015.54
988.562
980.492
951.242
884.859
763.037
654.146
618.664
616.756
623.32
623.576
612.968
594.146
581.505
579.462
583.277
588.036
589.292
586.893
582.365
578.145
575.474
573.828
573.52
573.912
575.618
576.985
579.441
581.483
584.298
585.589
591.165
614.986
719.063
913.244
1009.61
1045.96
1030.89
1008.08
978.707
1021.25
1030.34
1066.52
1082.8
1050.08
946.398
821.522
780.022
778.597
779.908
767.784
748.213
731.707
727.009
728.012
730.642
730.046
725.653
718.665
710.887
704.247
698.962
694.595
691.889
690.219
690.059
689.9
690.53
691.164
692.472
692.936
697.417
720.502
807.63
980.549
1080.09
1126.32
1119.96
1078.22
1009.88
1020
1075.06
1154.5
1203.56
1182.55
1093.9
960.044
897.581
875.414
859.335
839.563
825.173
817.405
816.974
818.325
817.988
813.767
806.448
797.162
788.173
780.849
775.692
772.284
770.089
768.571
768.311
768.143
768.672
769.349
770.758
771.739
775.767
796.504
861.631
1006.76
1110.69
1159.3
1148.77
1095.93
1015.41
1013.33
1088.43
1172.79
1202.87
1184.05
1097.5
979.633
913.934
883.39
867.814
856.132
852.118
851.962
855.416
858.943
859.834
857.485
852.285
846.244
841.059
837.672
834.05
831.029
829.138
828.357
829.018
829.767
831.181
832.59
834.653
836.603
840.85
854.825
898.464
1001.99
1105.85
1146.78
1148.27
1091.83
990.362
1136.83
947.956
1120.47
1146.2
1143.58
1071.67
987.737
940.855
917.43
907.855
902.362
902.549
905.337
910.001
913.358
913.991
911.826
907.637
903.031
899.417
897.975
896.281
895.384
895.519
896.132
897.448
898.435
899.852
901.147
902.963
904.759
908.142
914.341
937.716
992.433
1068.24
1096.95
1094.47
935.128
985.467
10025.3
958.949
1007.52
1040.83
1034.66
991.677
944.794
923.526
915.494
916.152
919.02
925.546
932.423
938.727
943.285
946.064
947.177
947.144
946.489
945.962
945.925
945.894
946.268
947.247
948.509
949.943
950.852
951.986
952.815
954.051
954.939
956.823
958.211
962.926
974.027
1005.15
1015.61
996.424
980.671
6751.94
10025.3
958.949
1007.52
1040.83
1034.66
991.677
944.794
923.526
915.494
916.152
919.02
925.546
932.423
938.727
943.285
946.064
947.177
947.144
946.489
945.962
945.925
945.894
946.268
947.247
948.509
949.943
950.852
951.986
952.815
954.051
954.939
956.823
958.211
962.926
974.027
1005.15
1015.61
996.424
980.671
6751.94
1136.83
947.956
1120.47
1146.2
1143.58
1071.67
987.737
940.855
917.43
907.855
902.362
902.549
905.337
910.001
913.358
913.991
911.826
907.637
903.031
899.417
897.975
896.281
895.384
895.519
896.132
897.448
898.435
899.852
901.147
902.963
904.759
908.142
914.341
937.716
992.433
1068.24
1096.95
1094.47
935.128
985.467
1013.33
1088.43
1172.79
1202.87
1184.05
1097.5
979.633
913.934
883.39
867.814
856.132
852.118
851.962
855.416
858.943
859.834
857.485
852.285
846.244
841.059
837.672
834.05
831.029
829.138
828.357
829.018
829.767
831.181
832.59
834.653
836.603
840.85
854.825
898.464
1001.99
1105.85
1146.78
1148.27
1091.83
990.362
1020
1075.06
1154.5
1203.56
1182.55
1093.9
960.044
897.581
875.414
859.335
839.563
825.173
817.405
816.974
818.325
817.988
813.767
806.448
797.162
788.173
780.849
775.692
772.284
770.089
768.571
768.311
768.143
768.672
769.349
770.758
771.739
775.767
796.504
861.631
1006.76
1110.69
1159.3
1148.77
1095.93
1015.41
1021.25
1030.34
1066.52
1082.8
1050.08
946.398
821.522
780.022
778.597
779.908
767.784
748.213
731.707
727.009
728.012
730.642
730.046
725.653
718.665
710.887
704.247
698.962
694.595
691.889
690.219
690.059
689.9
690.53
691.164
692.472
692.936
697.417
720.502
807.63
980.549
1080.09
1126.32
1119.96
1078.22
1009.88
1015.54
988.562
980.492
951.242
884.859
763.037
654.146
618.664
616.756
623.32
623.576
612.968
594.146
581.505
579.462
583.277
588.036
589.292
586.893
582.365
578.145
575.474
573.828
573.52
573.912
575.618
576.985
579.441
581.483
584.298
585.589
591.165
614.986
719.063
913.244
1009.61
1045.96
1030.89
1008.08
978.707
1005.05
970.774
951.258
921.097
843.044
730.746
629.01
582.643
566.896
563.331
559.437
542.252
507.457
468.195
443.346
434.632
431.841
428.904
424.129
418.109
412.795
409.34
407.534
407.147
407.641
409.268
410.642
413.087
415.382
418.453
420.072
425.065
444.389
538.334
732.834
843.634
897.409
916.64
944.544
963.763
995.776
956.483
931.603
907.409
834.657
745.032
662.205
615.856
593.092
580.633
571.106
554.512
522.328
475.058
428.523
400.68
385.979
375.884
365.512
354.554
344.436
336.214
330.06
325.84
323.197
321.9
321.361
321.589
322.37
323.978
325.371
329.051
344.238
422.234
601.185
727.444
808.826
860.261
915.403
958.081
989.535
945.006
913.501
884.48
829.265
763.394
705.124
666.417
641.004
621.552
606.862
592.559
566.995
521.358
459.707
408.446
382.347
367.935
356.117
343.944
332.233
322.351
314.724
309.276
305.698
303.728
302.723
302.529
302.933
304.074
305.182
308.271
322.277
396.337
569.311
696.731
781.039
840.055
905.963
956.307
991.091
943.891
902.931
861.763
823.633
779.518
745.072
719.794
698.754
676.67
654.451
635.286
612.556
574.284
513.17
441.823
393.002
370.343
356.024
343.007
330.489
319.611
311.017
304.721
300.489
298.029
296.738
296.331
296.592
297.49
298.436
301.175
314.65
387.606
558.885
686.376
772.69
833.483
901.103
954.19
967.259
944.062
893.21
862.221
827.324
800.339
781.566
769.9
757.196
738.495
712.897
685.853
659.66
625.047
570.278
492.15
417.234
376.761
357.393
343.351
330.392
318.893
309.671
302.813
298.156
295.467
294.107
293.753
294.073
294.973
295.848
298.476
311.809
385.445
557.556
685.146
770.677
830.762
898.539
953.227
937.533
925.997
865.592
840.814
818.678
815.565
826.114
819.552
815.091
803.58
780.559
747.648
712.943
675.732
625.648
551.091
458.92
390.866
360.093
343.491
329.944
317.926
308.093
300.688
295.618
292.703
291.28
290.98
291.379
292.339
293.235
295.791
308.955
382.35
555.218
683.759
768.997
828.417
896.139
951.915
973.205
950.965
918.532
873.08
839.778
823.655
832.294
868.182
881.161
866.982
851.501
819.775
777.034
730.987
678.924
608.672
512.115
417.927
366.866
344.769
330.181
317.663
307.258
299.294
293.737
290.502
288.957
288.67
289.132
290.159
291.105
293.662
306.745
380.332
554.061
683.159
768.18
826.901
894.43
951.189
972.437
937.878
926.731
907.773
887.431
881.461
876.175
884.345
922.686
938.661
921.276
894.132
850.557
794.831
734.612
663.785
568.437
457.099
379.636
346.903
330.439
317.586
306.766
298.284
292.24
288.668
286.991
286.71
287.232
288.349
289.381
291.953
304.931
378.194
552.641
682.691
767.651
825.587
892.816
950.361
965.81
909.385
878.841
867.559
873.031
893.396
931.306
945.325
969.532
994.011
989.33
967.308
926.348
866.73
795.98
718.234
622.368
502.458
399.636
351.018
331.077
317.734
306.634
297.735
291.228
287.29
285.472
285.195
285.763
286.976
288.102
290.741
303.665
377.092
552.445
682.976
767.711
824.838
891.628
949.811
963.782
896.831
840.532
805.206
814.841
849.807
905.981
992.864
1022.72
1062.88
1064.25
1036.78
1000.1
941.076
862.073
773.863
673.293
548.478
425.346
357.152
331.657
317.712
306.482
297.271
290.356
286.073
284.119
283.856
284.482
285.804
287.038
289.719
302.581
375.666
551.684
682.878
767.395
823.813
890.103
948.849
967.751
903.748
835.22
765.973
746.327
781.629
837.445
984.991
1092.51
1112.57
1139.16
1120
1076.65
1014.1
928.872
830.104
721.654
591.73
453.419
365.413
332.588
317.728
306.411
296.975
289.709
285.098
283.014
282.778
283.47
284.909
286.248
289.005
301.828
374.954
551.888
683.626
767.769
823.588
889.151
948.028
967.908
918.06
858.732
775.908
717.725
714.964
790.601
978.36
1156.84
1195.44
1194.68
1192.91
1157.6
1090.94
994.242
882.528
764.781
629.676
480.335
374.616
333.635
317.659
306.347
296.77
289.205
284.3
282.1
281.9
282.66
284.207
285.637
288.451
301.241
374.262
551.815
684.036
767.725
823.506
888.17
947.094
962.222
865.401
766.023
693.6
634.878
606.965
648.162
873.209
1178.96
1276.39
1278.41
1273.46
1244.57
1171.08
1058.01
929.132
800.107
660.057
503.294
383.478
334.773
317.602
306.354
296.689
288.868
283.706
281.409
281.25
282.073
283.711
285.211
288.073
300.833
373.817
552.033
684.907
767.958
824.377
887.695
946.387
955.308
861.051
783.319
738.819
678.44
605.562
605.808
777.543
1204.41
1338.21
1329.57
1318.44
1303.01
1238.33
1115.4
968.664
826.293
680.633
519.293
390.229
335.689
317.537
306.415
296.703
288.675
283.319
280.96
280.84
281.712
283.415
284.957
287.846
300.576
373.5
552.26
685.89
767.842
825.664
888.167
946.467
)
;

boundaryField
{
    inlet
    {
        type            fixedValue;
        value           uniform 10000;
    }
    outlet
    {
        type            fixedValue;
        value           uniform 1000;
    }
    obstacle
    {
        type            zeroGradient;
    }
    empty
    {
        type            empty;
    }
}


// ************************************************************************* //
