/*--------------------------------*- C++ -*----------------------------------*\
| =========                 |                                                 |
| \\      /  F ield         | OpenFOAM: The Open Source CFD Toolbox           |
|  \\    /   O peration     | Version:  v1912                                 |
|   \\  /    A nd           | Website:  www.openfoam.com                      |
|    \\/     M anipulation  |                                                 |
\*---------------------------------------------------------------------------*/
FoamFile
{
    version     2.0;
    format      ascii;
    class       volScalarField;
    location    "8.34";
    object      T;
}
// * * * * * * * * * * * * * * * * * * * * * * * * * * * * * * * * * * * * * //

dimensions      [0 0 0 1 0 0 0];


internalField   nonuniform List<scalar> 
1900
(
1.24462
1.05189
0.964093
0.932555
0.925186
0.9254
0.930019
0.938298
0.946173
0.952008
1.24463
1.05189
0.964093
0.932559
0.92519
0.925402
0.930025
0.938398
0.946594
0.951614
1.24463
1.05189
0.964094
0.932564
0.925193
0.925399
0.930017
0.938398
0.94631
0.951
1.24463
1.05189
0.964093
0.932559
0.92519
0.925402
0.930025
0.938398
0.946594
0.951614
1.24462
1.05189
0.964093
0.932555
0.925186
0.9254
0.930019
0.938298
0.946173
0.952008
0.958987
0.954833
0.957927
0.966388
1.00618
0.953628
0.951473
0.954142
0.961124
0.988305
0.952517
0.950793
0.953423
0.961161
0.986581
0.953628
0.951473
0.954142
0.961124
0.988305
0.958987
0.954833
0.957927
0.966388
1.00618
0.796539
0.680314
0.615368
0.569674
0.537692
0.816709
0.696916
0.628491
0.582998
0.543836
0.816679
0.69129
0.622219
0.578188
0.534423
0.816709
0.696916
0.628491
0.582998
0.543836
0.796539
0.680314
0.615368
0.569674
0.537692
0.5061
0.485973
0.475834
0.469272
0.464434
0.4588
0.452021
0.443731
0.429555
0.424477
0.428486
0.46423
0.525288
0.553768
0.565037
0.572732
0.580911
0.580816
0.57213
0.55106
0.525292
0.505218
0.486298
0.455647
0.402583
0.354
0.341437
0.339063
0.339063
0.361399
0.413961
0.442928
0.454928
0.465124
0.478551
0.493569
0.504342
0.508325
0.508683
0.506837
0.525619
0.526603
0.521627
0.512547
0.501575
0.488554
0.476693
0.465378
0.448129
0.439131
0.442464
0.480242
0.540957
0.565961
0.574245
0.578321
0.583009
0.581959
0.572275
0.551602
0.525809
0.505575
0.486703
0.456326
0.403157
0.354153
0.341439
0.339059
0.33906
0.361399
0.413958
0.442915
0.454913
0.465106
0.47853
0.493553
0.504319
0.508278
0.508626
0.506782
0.526364
0.530834
0.532145
0.527382
0.517301
0.502718
0.487956
0.474959
0.455876
0.445099
0.448261
0.48575
0.546651
0.570906
0.577592
0.580593
0.584146
0.582773
0.572426
0.552293
0.529175
0.508404
0.487724
0.456525
0.402991
0.354101
0.341437
0.339058
0.33906
0.361403
0.41396
0.442909
0.454905
0.465095
0.478519
0.493547
0.504313
0.508256
0.508589
0.506728
0.525619
0.526603
0.521627
0.512547
0.501575
0.488554
0.476693
0.465378
0.448129
0.439131
0.442464
0.480242
0.540957
0.565961
0.574245
0.578321
0.583009
0.581959
0.572275
0.551602
0.525809
0.505575
0.486703
0.456326
0.403157
0.354153
0.341439
0.339059
0.33906
0.361399
0.413958
0.442915
0.454913
0.465106
0.47853
0.493553
0.504319
0.508278
0.508626
0.506782
0.5061
0.485973
0.475834
0.469272
0.464434
0.4588
0.452021
0.443731
0.429555
0.424477
0.428486
0.46423
0.525288
0.553768
0.565037
0.572732
0.580911
0.580816
0.57213
0.55106
0.525292
0.505218
0.486298
0.455647
0.402583
0.354
0.341437
0.339063
0.339063
0.361399
0.413961
0.442928
0.454928
0.465124
0.478551
0.493569
0.504342
0.508325
0.508683
0.506837
0.404065
0.399652
0.394783
0.395286
0.396211
0.396684
0.397871
0.396835
0.391401
0.390593
0.395106
0.432132
0.491505
0.526011
0.545898
0.565807
0.584948
0.587703
0.578666
0.553827
0.525193
0.504052
0.484938
0.454566
0.401263
0.35339
0.341422
0.339083
0.339071
0.361365
0.413944
0.442963
0.454967
0.465148
0.478565
0.493568
0.504394
0.508473
0.508859
0.507022
0.338418
0.336788
0.333641
0.334071
0.335698
0.338449
0.343247
0.346189
0.347944
0.351661
0.360972
0.4039
0.456366
0.496117
0.520598
0.545895
0.569988
0.572396
0.564093
0.543091
0.518985
0.500254
0.481099
0.449385
0.395868
0.351767
0.341404
0.339141
0.339104
0.361281
0.41391
0.443084
0.455116
0.465272
0.478656
0.493619
0.504452
0.508595
0.508995
0.507134
0.332807
0.334698
0.336506
0.33713
0.337594
0.338173
0.338178
0.338193
0.33921
0.342524
0.35406
0.399928
0.444634
0.482626
0.508227
0.538295
0.562377
0.562799
0.552607
0.532559
0.512371
0.495733
0.475955
0.441877
0.3883
0.349791
0.341435
0.339265
0.339194
0.361188
0.413854
0.443257
0.455355
0.465491
0.478834
0.493755
0.504556
0.508696
0.509113
0.507322
0.331943
0.331975
0.332782
0.33308
0.332925
0.332557
0.329903
0.329708
0.334398
0.341531
0.358627
0.397715
0.43559
0.472081
0.502518
0.537796
0.556243
0.553101
0.539762
0.521427
0.505008
0.489578
0.468408
0.431744
0.379497
0.347987
0.341566
0.339485
0.339378
0.361197
0.413909
0.443557
0.455728
0.465829
0.479111
0.49397
0.504736
0.508841
0.509276
0.507609
0.33542
0.335324
0.335338
0.33502
0.334635
0.334154
0.331441
0.333136
0.338478
0.350033
0.374853
0.405941
0.442091
0.477169
0.508831
0.541684
0.548152
0.541283
0.526695
0.511019
0.497196
0.481728
0.458532
0.419321
0.370454
0.346601
0.341778
0.339758
0.339606
0.361134
0.413758
0.443657
0.455917
0.465972
0.479198
0.494021
0.504832
0.508981
0.509469
0.507923
0.339964
0.33988
0.339678
0.339209
0.338838
0.337924
0.337998
0.342547
0.3501
0.363297
0.387452
0.418933
0.455023
0.485255
0.520855
0.541668
0.538747
0.527948
0.514036
0.501239
0.488554
0.472059
0.446374
0.405096
0.362206
0.345636
0.341923
0.339921
0.339747
0.361109
0.413642
0.443698
0.455988
0.465973
0.479166
0.49398
0.504877
0.509096
0.509643
0.508201
0.346474
0.34638
0.346139
0.345585
0.345703
0.346519
0.349401
0.356204
0.367876
0.38334
0.407132
0.438993
0.468824
0.502403
0.531267
0.532828
0.52542
0.513965
0.502391
0.491517
0.47856
0.460383
0.431866
0.389997
0.355573
0.344853
0.341763
0.33975
0.339546
0.360491
0.412888
0.443414
0.455923
0.465852
0.478914
0.493705
0.504746
0.509164
0.509822
0.508469
0.357931
0.357948
0.358021
0.358437
0.359897
0.362349
0.366809
0.374809
0.387165
0.404596
0.431128
0.460451
0.49061
0.519004
0.525223
0.520311
0.511196
0.500903
0.491376
0.480735
0.466621
0.446811
0.415972
0.376287
0.351875
0.345219
0.342503
0.340579
0.340491
0.361358
0.414194
0.445536
0.458447
0.468259
0.48086
0.494703
0.505064
0.509322
0.510052
0.508801
0.378105
0.378315
0.378524
0.378841
0.379813
0.382361
0.388028
0.397863
0.412454
0.433906
0.460309
0.484925
0.506246
0.515837
0.513809
0.506603
0.497474
0.489289
0.481236
0.471041
0.456992
0.435855
0.403835
0.369024
0.353912
0.349807
0.347417
0.345724
0.346005
0.368121
0.424109
0.456991
0.469176
0.476735
0.486965
0.499234
0.508143
0.510698
0.510653
0.509259
0.407604
0.407449
0.406115
0.405954
0.407595
0.4121
0.419592
0.429676
0.44397
0.463728
0.48296
0.496418
0.507057
0.506875
0.499828
0.492143
0.487199
0.483497
0.478018
0.470068
0.459129
0.439041
0.408698
0.387999
0.382288
0.380801
0.379583
0.378928
0.380793
0.410464
0.469485
0.497105
0.503351
0.504351
0.508068
0.513329
0.516373
0.51602
0.513049
0.510345
0.444051
0.441823
0.440993
0.441773
0.443886
0.446866
0.450669
0.458445
0.473391
0.486955
0.491414
0.49643
0.494195
0.489967
0.489908
0.492364
0.494783
0.497094
0.498742
0.496841
0.486279
0.464583
0.440922
0.430495
0.427989
0.426713
0.425202
0.424459
0.427616
0.459951
0.50991
0.530038
0.533588
0.532113
0.533792
0.53613
0.534806
0.527488
0.518699
0.512785
0.480385
0.477471
0.476263
0.474198
0.470158
0.467757
0.470125
0.478282
0.484815
0.487144
0.488265
0.489669
0.495416
0.503193
0.514353
0.5257
0.533427
0.535147
0.531639
0.521571
0.501194
0.474934
0.458737
0.453981
0.451816
0.450045
0.448072
0.447192
0.450841
0.479877
0.521504
0.539823
0.544863
0.543703
0.546377
0.5501
0.551003
0.543238
0.52944
0.518677
0.509304
0.507953
0.503628
0.500532
0.501298
0.504817
0.505773
0.50337
0.503148
0.506166
0.514709
0.526987
0.539575
0.551089
0.558023
0.559677
0.556501
0.549032
0.535966
0.516244
0.491598
0.473258
0.4669
0.464393
0.46239
0.460617
0.458681
0.458028
0.4617
0.48593
0.522642
0.541504
0.548439
0.548195
0.551391
0.55533
0.556831
0.552529
0.540453
0.528165
0.533153
0.537143
0.5412
0.545721
0.551227
0.557749
0.564003
0.569033
0.570355
0.569702
0.569329
0.571275
0.573341
0.573322
0.569513
0.561599
0.552334
0.541187
0.523978
0.501837
0.483901
0.476887
0.474649
0.473054
0.471331
0.469783
0.468065
0.467519
0.47084
0.489194
0.521052
0.540182
0.547942
0.548012
0.550616
0.553909
0.555458
0.553788
0.546573
0.537214
0.545084
0.55012
0.558749
0.565607
0.573173
0.581647
0.590497
0.598392
0.600394
0.597195
0.59032
0.582888
0.576427
0.570078
0.562785
0.554251
0.542756
0.527517
0.509683
0.494338
0.487885
0.486266
0.485379
0.484253
0.482821
0.481569
0.480135
0.479564
0.482582
0.495304
0.522538
0.541933
0.550431
0.550113
0.55105
0.552257
0.552694
0.551668
0.547257
0.540853
0.546014
0.548323
0.556674
0.563517
0.571968
0.581507
0.592002
0.601181
0.604433
0.601742
0.594197
0.583007
0.572008
0.562488
0.554087
0.545048
0.532764
0.517837
0.505408
0.500299
0.499286
0.499103
0.498518
0.497538
0.49629
0.495259
0.494082
0.493436
0.495764
0.503767
0.525041
0.544471
0.55359
0.552998
0.551564
0.551011
0.550162
0.548623
0.546343
0.542424
0.541594
0.542374
0.549783
0.557054
0.566905
0.5781
0.590398
0.600754
0.605097
0.60167
0.591041
0.577089
0.565618
0.556917
0.54817
0.537178
0.524495
0.51512
0.511191
0.510265
0.510312
0.510002
0.509188
0.50812
0.506943
0.506047
0.505129
0.504526
0.505688
0.510633
0.524928
0.544455
0.554793
0.554669
0.55192
0.549681
0.547284
0.544473
0.542512
0.53996
0.535795
0.533556
0.539289
0.545893
0.556935
0.568874
0.582032
0.592021
0.596495
0.593277
0.58112
0.566986
0.556852
0.548612
0.539037
0.528751
0.521452
0.517732
0.516486
0.516196
0.515756
0.514864
0.513676
0.512486
0.511391
0.510599
0.509921
0.509506
0.509692
0.512951
0.520967
0.536229
0.549234
0.552798
0.550894
0.548167
0.544451
0.541664
0.539161
0.533056
0.489383
0.513141
0.529931
0.533742
0.543413
0.555056
0.568217
0.577316
0.581104
0.576589
0.564549
0.553446
0.545081
0.537026
0.529319
0.523753
0.520295
0.518709
0.518048
0.517527
0.516682
0.515441
0.514068
0.512879
0.511929
0.511253
0.510762
0.510474
0.510449
0.511604
0.515338
0.524043
0.536022
0.544066
0.546061
0.54559
0.542247
0.53916
0.529327
0.499656
0.368603
0.451965
0.519104
0.52656
0.534077
0.543137
0.553136
0.559601
0.560271
0.552885
0.542877
0.535559
0.52998
0.525243
0.521514
0.519067
0.517743
0.517011
0.516327
0.515472
0.51439
0.513115
0.511857
0.510873
0.510199
0.509794
0.509526
0.50943
0.509457
0.509917
0.511357
0.515731
0.523631
0.533852
0.538983
0.541515
0.539395
0.533019
0.500805
0.425963
0.368603
0.451965
0.519104
0.52656
0.534077
0.543137
0.553136
0.559601
0.560271
0.552885
0.542877
0.535559
0.52998
0.525243
0.521514
0.519067
0.517743
0.517011
0.516327
0.515472
0.51439
0.513115
0.511857
0.510873
0.510199
0.509794
0.509526
0.50943
0.509457
0.509917
0.511357
0.515731
0.523631
0.533852
0.538983
0.541515
0.539395
0.533019
0.500805
0.425963
0.489383
0.513141
0.529931
0.533742
0.543413
0.555056
0.568217
0.577316
0.581104
0.576589
0.564549
0.553446
0.545081
0.537026
0.529319
0.523753
0.520295
0.518709
0.518048
0.517527
0.516682
0.515441
0.514068
0.512879
0.511929
0.511253
0.510762
0.510474
0.510449
0.511604
0.515338
0.524043
0.536022
0.544066
0.546061
0.54559
0.542247
0.53916
0.529327
0.499656
0.535795
0.533556
0.539289
0.545893
0.556935
0.568874
0.582032
0.592021
0.596495
0.593277
0.58112
0.566986
0.556852
0.548612
0.539037
0.528751
0.521452
0.517732
0.516486
0.516196
0.515756
0.514864
0.513676
0.512486
0.511391
0.510599
0.509921
0.509506
0.509692
0.512951
0.520967
0.536229
0.549234
0.552798
0.550894
0.548167
0.544451
0.541664
0.539161
0.533056
0.541594
0.542374
0.549783
0.557054
0.566905
0.5781
0.590398
0.600754
0.605097
0.60167
0.591041
0.577089
0.565618
0.556917
0.54817
0.537178
0.524495
0.51512
0.511191
0.510265
0.510312
0.510002
0.509188
0.50812
0.506943
0.506047
0.505129
0.504526
0.505688
0.510633
0.524928
0.544455
0.554793
0.554669
0.55192
0.549681
0.547284
0.544473
0.542512
0.53996
0.546014
0.548323
0.556674
0.563517
0.571968
0.581507
0.592002
0.601181
0.604433
0.601742
0.594197
0.583007
0.572008
0.562488
0.554087
0.545048
0.532764
0.517837
0.505408
0.500299
0.499286
0.499103
0.498518
0.497538
0.49629
0.495259
0.494082
0.493436
0.495764
0.503767
0.525041
0.544471
0.55359
0.552998
0.551564
0.551011
0.550162
0.548623
0.546343
0.542424
0.545084
0.55012
0.558749
0.565607
0.573173
0.581647
0.590497
0.598392
0.600394
0.597195
0.59032
0.582888
0.576427
0.570078
0.562785
0.554251
0.542756
0.527517
0.509683
0.494338
0.487885
0.486266
0.485379
0.484253
0.482821
0.481569
0.480135
0.479564
0.482582
0.495304
0.522538
0.541933
0.550431
0.550113
0.55105
0.552257
0.552694
0.551668
0.547257
0.540853
0.533153
0.537143
0.5412
0.545721
0.551227
0.557749
0.564003
0.569033
0.570355
0.569702
0.569329
0.571275
0.573341
0.573322
0.569513
0.561599
0.552334
0.541187
0.523978
0.501837
0.483901
0.476887
0.474649
0.473054
0.471331
0.469783
0.468065
0.467519
0.47084
0.489194
0.521052
0.540182
0.547942
0.548012
0.550616
0.553909
0.555458
0.553788
0.546573
0.537214
0.509304
0.507953
0.503628
0.500532
0.501298
0.504817
0.505773
0.50337
0.503148
0.506166
0.514709
0.526987
0.539575
0.551089
0.558023
0.559677
0.556501
0.549032
0.535966
0.516244
0.491598
0.473258
0.4669
0.464393
0.46239
0.460617
0.458681
0.458028
0.4617
0.48593
0.522642
0.541504
0.548439
0.548195
0.551391
0.55533
0.556831
0.552529
0.540453
0.528165
0.480385
0.477471
0.476263
0.474198
0.470158
0.467757
0.470125
0.478282
0.484815
0.487144
0.488265
0.489669
0.495416
0.503193
0.514353
0.5257
0.533427
0.535147
0.531639
0.521571
0.501194
0.474934
0.458737
0.453981
0.451816
0.450045
0.448072
0.447192
0.450841
0.479877
0.521504
0.539823
0.544863
0.543703
0.546377
0.5501
0.551003
0.543238
0.52944
0.518677
0.444051
0.441823
0.440993
0.441773
0.443886
0.446866
0.450669
0.458445
0.473391
0.486955
0.491414
0.49643
0.494195
0.489967
0.489908
0.492364
0.494783
0.497094
0.498742
0.496841
0.486279
0.464583
0.440922
0.430495
0.427989
0.426713
0.425202
0.424459
0.427616
0.459951
0.50991
0.530038
0.533588
0.532113
0.533792
0.53613
0.534806
0.527488
0.518699
0.512785
0.407604
0.407449
0.406115
0.405954
0.407595
0.4121
0.419592
0.429676
0.44397
0.463728
0.48296
0.496418
0.507057
0.506875
0.499828
0.492143
0.487199
0.483497
0.478018
0.470068
0.459129
0.439041
0.408698
0.387999
0.382288
0.380801
0.379583
0.378928
0.380793
0.410464
0.469485
0.497105
0.503351
0.504351
0.508068
0.513329
0.516373
0.51602
0.513049
0.510345
0.378105
0.378315
0.378524
0.378841
0.379813
0.382361
0.388028
0.397863
0.412454
0.433906
0.460309
0.484925
0.506246
0.515837
0.513809
0.506603
0.497474
0.489289
0.481236
0.471041
0.456992
0.435855
0.403835
0.369024
0.353912
0.349807
0.347417
0.345724
0.346005
0.368121
0.424109
0.456991
0.469176
0.476735
0.486965
0.499234
0.508143
0.510698
0.510653
0.509259
0.357931
0.357948
0.358021
0.358437
0.359897
0.362349
0.366809
0.374809
0.387165
0.404596
0.431128
0.460451
0.49061
0.519004
0.525223
0.520311
0.511196
0.500903
0.491376
0.480735
0.466621
0.446811
0.415972
0.376287
0.351875
0.345219
0.342503
0.340579
0.340491
0.361358
0.414194
0.445536
0.458447
0.468259
0.48086
0.494703
0.505064
0.509322
0.510052
0.508801
0.346474
0.34638
0.346139
0.345585
0.345703
0.346519
0.349401
0.356204
0.367876
0.38334
0.407132
0.438993
0.468824
0.502403
0.531267
0.532828
0.52542
0.513965
0.502391
0.491517
0.47856
0.460383
0.431866
0.389997
0.355573
0.344853
0.341763
0.33975
0.339546
0.360491
0.412888
0.443414
0.455923
0.465852
0.478914
0.493705
0.504746
0.509164
0.509822
0.508469
0.339964
0.33988
0.339678
0.339209
0.338838
0.337924
0.337998
0.342547
0.3501
0.363297
0.387452
0.418933
0.455023
0.485255
0.520855
0.541668
0.538747
0.527948
0.514036
0.501239
0.488554
0.472059
0.446374
0.405096
0.362206
0.345636
0.341923
0.339921
0.339747
0.361109
0.413642
0.443698
0.455988
0.465973
0.479166
0.49398
0.504877
0.509096
0.509643
0.508201
0.33542
0.335324
0.335338
0.33502
0.334635
0.334154
0.331441
0.333136
0.338478
0.350033
0.374853
0.405941
0.442091
0.477169
0.508831
0.541684
0.548152
0.541283
0.526695
0.511019
0.497196
0.481728
0.458532
0.419321
0.370454
0.346601
0.341778
0.339758
0.339606
0.361134
0.413758
0.443657
0.455917
0.465972
0.479198
0.494021
0.504832
0.508981
0.509469
0.507923
0.331943
0.331975
0.332782
0.33308
0.332925
0.332557
0.329903
0.329708
0.334398
0.341531
0.358627
0.397715
0.43559
0.472081
0.502518
0.537796
0.556243
0.553101
0.539762
0.521427
0.505008
0.489578
0.468408
0.431744
0.379497
0.347987
0.341566
0.339485
0.339378
0.361197
0.413909
0.443557
0.455728
0.465829
0.479111
0.49397
0.504736
0.508841
0.509276
0.507609
0.332807
0.334698
0.336506
0.33713
0.337594
0.338173
0.338178
0.338193
0.33921
0.342524
0.35406
0.399928
0.444634
0.482626
0.508227
0.538295
0.562377
0.562799
0.552607
0.532559
0.512371
0.495733
0.475955
0.441877
0.3883
0.349791
0.341435
0.339265
0.339194
0.361188
0.413854
0.443257
0.455355
0.465491
0.478834
0.493755
0.504556
0.508696
0.509113
0.507322
0.338418
0.336788
0.333641
0.334071
0.335698
0.338449
0.343247
0.346189
0.347944
0.351661
0.360972
0.4039
0.456366
0.496117
0.520598
0.545895
0.569988
0.572396
0.564093
0.543091
0.518985
0.500254
0.481099
0.449385
0.395868
0.351767
0.341404
0.339141
0.339104
0.361281
0.41391
0.443084
0.455116
0.465272
0.478656
0.493619
0.504452
0.508595
0.508995
0.507134
0.404065
0.399652
0.394783
0.395286
0.396211
0.396684
0.397871
0.396835
0.391401
0.390593
0.395106
0.432132
0.491505
0.526011
0.545898
0.565807
0.584948
0.587703
0.578666
0.553827
0.525193
0.504052
0.484938
0.454566
0.401263
0.35339
0.341422
0.339083
0.339071
0.361365
0.413944
0.442963
0.454967
0.465148
0.478565
0.493568
0.504394
0.508473
0.508859
0.507022
)
;

boundaryField
{
    inlet
    {
        type            fixedValue;
        value           uniform 1;
    }
    outlet
    {
        type            zeroGradient;
    }
    obstacle
    {
        type            zeroGradient;
    }
    empty
    {
        type            empty;
    }
}


// ************************************************************************* //
