/*--------------------------------*- C++ -*----------------------------------*\
| =========                 |                                                 |
| \\      /  F ield         | OpenFOAM: The Open Source CFD Toolbox           |
|  \\    /   O peration     | Version:  v1912                                 |
|   \\  /    A nd           | Website:  www.openfoam.com                      |
|    \\/     M anipulation  |                                                 |
\*---------------------------------------------------------------------------*/
FoamFile
{
    version     2.0;
    format      ascii;
    class       volScalarField;
    location    "5.68";
    object      p;
}
// * * * * * * * * * * * * * * * * * * * * * * * * * * * * * * * * * * * * * //

dimensions      [1 -1 -2 0 0 0 0];


internalField   nonuniform List<scalar> 
1900
(
34307
10350.5
9174.07
9110.1
9021.37
8963.95
8920.81
8895.11
8890.97
8859.95
34307.1
10350.6
9174.03
9110.13
9021.85
8964.68
8922.02
8897.88
8885.53
8839.74
34307.1
10350.6
9174.06
9110.28
9022.25
8965.05
8921.61
8893.6
8869.64
8832.08
34307.1
10350.6
9174.03
9110.13
9021.85
8964.68
8922.02
8897.88
8885.53
8839.74
34307
10350.5
9174.07
9110.1
9021.37
8963.95
8920.81
8895.11
8890.97
8859.95
8983.59
8809.94
8739.89
8569.56
8834.63
8823.41
8708.15
8641.59
8480.75
8370.88
8795.91
8688.97
8628.89
8504.89
8421.66
8823.41
8708.15
8641.59
8480.75
8370.88
8983.59
8809.94
8739.89
8569.56
8834.63
3856.3
2414.91
2387.67
2334.4
2169.25
4349.37
2626.62
2506.06
2412.35
2278.67
4457.63
2575.3
2435.61
2355.76
2228.58
4349.37
2626.62
2506.06
2412.35
2278.67
3856.3
2414.91
2387.67
2334.4
2169.25
1284.08
856.241
933.658
1416.58
1695.74
1774.44
1631.41
1381.84
1153.25
1002.3
915.785
856.818
804.561
756.128
714.033
683.635
665.303
654.524
647.066
640.91
635.559
630.977
627.157
624.118
621.793
620.174
619.186
619.054
619.97
622.417
625.768
631.117
636.765
645.281
653.5
670.434
689.816
724.358
732.623
803.86
1469.48
802.343
908.946
1456.05
1766.94
1825.94
1656.43
1392.95
1157.56
1003.84
916.474
857.084
804.717
756.503
714.167
683.644
665.273
654.489
647.036
640.884
635.534
630.95
627.128
624.087
621.76
620.138
619.148
619.015
619.928
622.377
625.727
631.082
636.723
645.262
653.43
670.462
689.856
724.394
732.582
804.698
1477.76
801.493
878.121
1437.99
1747.59
1802.67
1650.63
1396.08
1159.67
1004.52
916.751
857.226
804.773
756.648
714.21
683.646
665.264
654.479
647.028
640.877
635.527
630.943
627.12
624.078
621.749
620.126
619.135
619
619.912
622.361
625.711
631.069
636.709
645.257
653.411
670.483
689.908
724.566
732.672
804.672
1469.48
802.343
908.946
1456.05
1766.94
1825.94
1656.43
1392.95
1157.56
1003.84
916.474
857.084
804.717
756.503
714.167
683.644
665.273
654.489
647.036
640.884
635.534
630.95
627.128
624.087
621.76
620.138
619.148
619.015
619.928
622.377
625.727
631.082
636.723
645.262
653.43
670.462
689.856
724.394
732.582
804.698
1284.08
856.241
933.658
1416.58
1695.74
1774.44
1631.41
1381.84
1153.25
1002.3
915.785
856.818
804.561
756.128
714.033
683.635
665.303
654.524
647.066
640.91
635.559
630.977
627.157
624.118
621.793
620.174
619.186
619.054
619.97
622.417
625.768
631.117
636.765
645.281
653.5
670.434
689.816
724.358
732.623
803.86
1023.96
867.379
1012.86
1406.23
1626.49
1682.4
1553.83
1339.93
1135.35
994.681
912.462
855.152
803.04
754.504
713.181
683.439
665.377
654.64
647.165
640.993
635.641
631.066
627.258
624.23
621.915
620.306
619.326
619.202
620.122
622.562
625.908
631.225
636.891
645.328
653.721
670.28
689.614
723.776
733.899
833.877
1015.64
914.891
1078.86
1276.07
1439.92
1501.73
1408.38
1249.41
1089.15
974.492
904.175
850.285
798.804
750.841
711.152
682.932
665.556
654.938
647.421
641.212
635.858
631.304
627.524
624.524
622.235
620.654
619.697
619.592
620.525
622.951
626.281
631.535
637.22
645.553
654.145
670.137
689.179
722.045
735.304
803.25
911.569
872.725
993.535
1185.03
1304.12
1334.22
1270.98
1154.6
1035.78
949.511
891.991
842.394
792.261
745.859
708.376
682.143
665.723
655.324
647.779
641.531
636.182
631.663
627.926
624.971
622.726
621.19
620.271
620.199
621.158
623.565
626.876
632.045
637.764
645.983
654.75
670.071
688.648
720.084
738.617
800.99
893.693
884.024
977.729
1098.44
1192.74
1200.72
1151.53
1068.2
985.156
924.002
877.506
832.15
783.881
739.932
705.194
681.187
665.851
655.736
648.19
641.915
636.584
632.115
628.438
625.543
623.357
621.887
621.022
620.994
621.993
624.376
627.661
632.737
638.482
646.608
655.467
670.19
688.099
718.922
742.959
801.283
895.189
870.53
949.393
1047.43
1101.32
1093.87
1054.28
996.287
940.804
899.2
861.436
819.701
774.104
733.356
701.835
680.155
665.948
656.16
648.646
642.37
637.077
632.674
629.073
626.252
624.136
622.74
621.947
621.983
623.01
625.36
628.604
633.569
639.309
647.333
656.223
670.415
687.492
718.448
746.788
799.1
879.029
848.701
924.576
999.34
1019.7
1007.85
977.225
940.708
905.652
877.151
845.591
806.49
763.952
726.835
698.692
679.263
666.135
656.686
649.235
642.985
637.75
633.429
629.917
627.183
625.149
623.832
623.126
623.253
624.3
626.619
629.819
634.669
640.384
648.322
657.212
671.045
687.419
718.962
750.631
797.201
849.608
824.118
900.934
944.65
947.344
938.394
919.69
899.579
878.002
856.892
828.818
792.14
753.371
720.41
695.744
678.53
666.409
657.326
649.99
643.807
638.657
634.433
631.016
628.371
626.416
625.169
624.541
624.749
625.782
628.033
631.14
635.826
641.448
649.246
658.069
671.532
687.249
719.691
753.998
793.236
819.234
796.798
873.626
885.908
892.606
887.521
879.226
869.082
856.09
839.133
812.791
778.486
743.804
715.133
693.726
678.483
667.278
658.543
651.351
645.264
640.215
636.092
632.767
630.204
628.322
627.138
626.577
626.857
627.855
630.012
632.995
637.488
642.973
650.598
659.332
672.454
687.794
720.887
756.849
788.604
792.393
771.61
840.132
841.845
857.711
855.596
852.182
846.868
837.862
822.249
796.765
765.363
735.118
710.696
692.348
678.832
668.507
660.163
653.173
647.227
642.304
638.288
635.047
632.552
630.721
629.574
629.049
629.355
630.267
632.269
635.06
639.301
644.576
651.973
660.557
673.366
688.373
722.017
759.54
782.174
775.23
754.342
811.542
817.721
834.349
832.616
831.937
829.333
821.913
806.329
781.869
754.069
728.471
707.979
692.428
680.499
670.977
663.066
656.332
650.561
645.77
641.839
638.641
636.162
634.325
633.164
632.607
632.86
633.613
635.382
637.9
641.809
646.801
653.902
662.308
674.802
689.66
723.617
762.118
775.289
760.146
740.836
790.891
800.189
818.664
817.042
817.638
815.524
807.672
791.552
768.787
744.981
723.669
706.625
693.427
682.769
673.987
666.496
660.036
654.458
649.807
645.969
642.828
640.382
638.562
637.411
636.832
637.042
637.637
639.171
641.4
644.966
649.651
656.452
664.663
676.866
691.573
725.722
764.846
766.836
755.828
733.158
775.588
788.646
807.892
805.864
806.718
803.895
794.736
778.746
758.533
738.604
721.443
707.606
696.162
686.705
678.623
671.601
665.467
660.108
655.583
651.784
648.625
646.138
644.266
643.077
642.415
642.509
642.896
644.147
646.046
649.226
653.583
660.054
668.08
680.006
694.601
728.955
768.826
760.963
753.006
729.886
768.83
783.837
801.856
798.604
798.567
794.221
783.957
768.863
751.298
735.102
721.244
709.641
699.763
691.206
683.656
676.965
671.059
665.874
661.499
657.83
654.787
652.403
650.614
649.49
648.815
648.865
649.1
650.126
651.747
654.616
658.741
665.043
673.059
684.976
699.774
734.564
774.364
753.77
760.666
732.59
768.697
784.601
800.641
795.592
793.603
787.017
775.907
762.602
748.281
735.693
724.396
714.679
706.085
698.383
691.414
685.158
679.585
674.621
670.333
666.626
663.494
661.035
659.184
658.031
657.265
657.209
657.27
658.057
659.4
661.954
665.904
672.087
680.224
692.255
707.317
743.031
783.317
757.988
775.842
740.947
774.062
788.644
801.33
794.978
790.826
782.952
771.972
760.858
749.437
739.091
729.697
721.369
713.707
706.601
699.976
693.837
688.21
683.174
679.02
675.644
672.849
670.615
668.881
667.794
667.003
666.929
666.909
667.565
668.706
671.052
674.937
681.178
689.607
701.946
717.591
754.753
796.094
770.558
802.253
756.119
788.094
799.584
807.467
800.32
794.333
786.171
776.004
766.732
757.262
749.038
741.273
734.242
727.612
721.446
715.715
710.406
705.441
700.783
696.667
692.991
689.685
686.905
684.698
683.318
682.202
681.839
681.523
681.923
682.723
684.751
688.543
694.808
703.564
716.398
732.611
771.277
813.461
795.991
845.191
778.134
809.609
815.339
818.196
810.133
802.386
794.38
785.203
777.546
769.715
763.029
756.51
750.714
745.264
740.228
735.372
730.558
725.829
721.29
717.252
713.62
710.242
707.135
704.284
702.313
700.52
699.811
699.148
699.398
700.106
702.167
706.191
712.8
722.318
735.879
753.007
793.378
838.538
837.94
938.322
818.183
854.692
850.122
846.796
835.983
826.279
818.951
811.518
805.73
799.682
794.069
787.973
782.111
776.337
771.268
766.979
763.341
759.903
756.198
752.265
747.972
743.387
739.563
736.757
735.488
734.739
734.773
734.826
735.543
736.677
739.073
743.666
751.353
762.538
778.051
796.824
839.017
882.247
928.74
3057.47
1033.71
975.61
945.381
933.966
915.04
901.165
889.591
879.836
870.037
860.545
850.586
839.698
828.447
816.393
804.207
792.061
781.056
772.107
765.559
761.012
758.715
757.888
760.057
762.444
765.494
768.138
770.604
773.121
775.697
778.24
781.779
786.704
794.984
807.19
824.264
846.676
884.613
1054.38
2836.52
39098.5
3036.69
1167.88
1077.62
1040.54
1015.93
1002.92
996.032
993.598
986.866
979.352
969.014
955.663
940.782
924.222
907.448
890.476
874.753
860.966
849.018
838.66
830.523
822.144
818.435
813.013
809.174
803.311
797.851
790.797
783.804
775.061
767.703
759.002
759.335
768.577
793.302
830.915
900.388
2712.36
34558
39098.5
3036.69
1167.88
1077.62
1040.54
1015.93
1002.92
996.032
993.598
986.866
979.352
969.014
955.663
940.782
924.222
907.448
890.476
874.753
860.966
849.018
838.66
830.523
822.144
818.435
813.013
809.174
803.311
797.851
790.797
783.804
775.061
767.703
759.002
759.335
768.577
793.302
830.915
900.388
2712.36
34558
3057.47
1033.71
975.61
945.381
933.966
915.04
901.165
889.591
879.836
870.037
860.545
850.586
839.698
828.447
816.393
804.207
792.061
781.056
772.107
765.559
761.012
758.715
757.888
760.057
762.444
765.494
768.138
770.604
773.121
775.697
778.24
781.779
786.704
794.984
807.19
824.264
846.676
884.613
1054.38
2836.52
938.322
818.183
854.692
850.122
846.796
835.983
826.279
818.951
811.518
805.73
799.682
794.069
787.973
782.111
776.337
771.268
766.979
763.341
759.903
756.198
752.265
747.972
743.387
739.563
736.757
735.488
734.739
734.773
734.826
735.543
736.677
739.073
743.666
751.353
762.538
778.051
796.824
839.017
882.247
928.74
845.191
778.134
809.609
815.339
818.196
810.133
802.386
794.38
785.203
777.546
769.715
763.029
756.51
750.714
745.264
740.228
735.372
730.558
725.829
721.29
717.252
713.62
710.242
707.135
704.284
702.313
700.52
699.811
699.148
699.398
700.106
702.167
706.191
712.8
722.318
735.879
753.007
793.378
838.538
837.94
802.253
756.119
788.094
799.584
807.467
800.32
794.333
786.171
776.004
766.732
757.262
749.038
741.273
734.242
727.612
721.446
715.715
710.406
705.441
700.783
696.667
692.991
689.685
686.905
684.698
683.318
682.202
681.839
681.523
681.923
682.723
684.751
688.543
694.808
703.564
716.398
732.611
771.277
813.461
795.991
775.842
740.947
774.062
788.644
801.33
794.978
790.826
782.952
771.972
760.858
749.437
739.091
729.697
721.369
713.707
706.601
699.976
693.837
688.21
683.174
679.02
675.644
672.849
670.615
668.881
667.794
667.003
666.929
666.909
667.565
668.706
671.052
674.937
681.178
689.607
701.946
717.591
754.753
796.094
770.558
760.666
732.59
768.697
784.601
800.641
795.592
793.603
787.017
775.907
762.602
748.281
735.693
724.396
714.679
706.085
698.383
691.414
685.158
679.585
674.621
670.333
666.626
663.494
661.035
659.184
658.031
657.265
657.209
657.27
658.057
659.4
661.954
665.904
672.087
680.224
692.255
707.317
743.031
783.317
757.988
753.006
729.886
768.83
783.837
801.856
798.604
798.567
794.221
783.957
768.863
751.298
735.102
721.244
709.641
699.763
691.206
683.656
676.965
671.059
665.874
661.499
657.83
654.787
652.403
650.614
649.49
648.815
648.865
649.1
650.126
651.747
654.616
658.741
665.043
673.059
684.976
699.774
734.564
774.364
753.77
755.828
733.158
775.588
788.646
807.892
805.864
806.718
803.895
794.736
778.746
758.533
738.604
721.443
707.606
696.162
686.705
678.623
671.601
665.467
660.108
655.583
651.784
648.625
646.138
644.266
643.077
642.415
642.509
642.896
644.147
646.046
649.226
653.583
660.054
668.08
680.006
694.601
728.955
768.826
760.963
760.146
740.836
790.891
800.189
818.664
817.042
817.638
815.524
807.672
791.552
768.787
744.981
723.669
706.625
693.427
682.769
673.987
666.496
660.036
654.458
649.807
645.969
642.828
640.382
638.562
637.411
636.832
637.042
637.637
639.171
641.4
644.966
649.651
656.452
664.663
676.866
691.573
725.722
764.846
766.836
775.23
754.342
811.542
817.721
834.349
832.616
831.937
829.333
821.913
806.329
781.869
754.069
728.471
707.979
692.428
680.499
670.977
663.066
656.332
650.561
645.77
641.839
638.641
636.162
634.325
633.164
632.607
632.86
633.613
635.382
637.9
641.809
646.801
653.902
662.308
674.802
689.66
723.617
762.118
775.289
792.393
771.61
840.132
841.845
857.711
855.596
852.182
846.868
837.862
822.249
796.765
765.363
735.118
710.696
692.348
678.832
668.507
660.163
653.173
647.227
642.304
638.288
635.047
632.552
630.721
629.574
629.049
629.355
630.267
632.269
635.06
639.301
644.576
651.973
660.557
673.366
688.373
722.017
759.54
782.174
819.234
796.798
873.626
885.908
892.606
887.521
879.226
869.082
856.09
839.133
812.791
778.486
743.804
715.133
693.726
678.483
667.278
658.543
651.351
645.264
640.215
636.092
632.767
630.204
628.322
627.138
626.577
626.857
627.855
630.012
632.995
637.488
642.973
650.598
659.332
672.454
687.794
720.887
756.849
788.604
849.608
824.118
900.934
944.65
947.344
938.394
919.69
899.579
878.002
856.892
828.818
792.14
753.371
720.41
695.744
678.53
666.409
657.326
649.99
643.807
638.657
634.433
631.016
628.371
626.416
625.169
624.541
624.749
625.782
628.033
631.14
635.826
641.448
649.246
658.069
671.532
687.249
719.691
753.998
793.236
879.029
848.701
924.576
999.34
1019.7
1007.85
977.225
940.708
905.652
877.151
845.591
806.49
763.952
726.835
698.692
679.263
666.135
656.686
649.235
642.985
637.75
633.429
629.917
627.183
625.149
623.832
623.126
623.253
624.3
626.619
629.819
634.669
640.384
648.322
657.212
671.045
687.419
718.962
750.631
797.201
895.189
870.53
949.393
1047.43
1101.32
1093.87
1054.28
996.287
940.804
899.2
861.436
819.701
774.104
733.356
701.835
680.155
665.948
656.16
648.646
642.37
637.077
632.674
629.073
626.252
624.136
622.74
621.947
621.983
623.01
625.36
628.604
633.569
639.309
647.333
656.223
670.415
687.492
718.448
746.788
799.1
893.693
884.024
977.729
1098.44
1192.74
1200.72
1151.53
1068.2
985.156
924.002
877.506
832.15
783.881
739.932
705.194
681.187
665.851
655.736
648.19
641.915
636.584
632.115
628.438
625.543
623.357
621.887
621.022
620.994
621.993
624.376
627.661
632.737
638.482
646.608
655.467
670.19
688.099
718.922
742.959
801.283
911.569
872.725
993.535
1185.03
1304.12
1334.22
1270.98
1154.6
1035.78
949.511
891.991
842.394
792.261
745.859
708.376
682.143
665.723
655.324
647.779
641.531
636.182
631.663
627.926
624.971
622.726
621.19
620.271
620.199
621.158
623.565
626.876
632.045
637.764
645.983
654.75
670.071
688.648
720.084
738.617
800.99
1015.64
914.891
1078.86
1276.07
1439.92
1501.73
1408.38
1249.41
1089.15
974.492
904.175
850.285
798.804
750.841
711.152
682.932
665.556
654.938
647.421
641.212
635.858
631.304
627.524
624.524
622.235
620.654
619.697
619.592
620.525
622.951
626.281
631.535
637.22
645.553
654.145
670.137
689.179
722.045
735.304
803.25
1023.96
867.379
1012.86
1406.23
1626.49
1682.4
1553.83
1339.93
1135.35
994.681
912.462
855.152
803.04
754.504
713.181
683.439
665.377
654.64
647.165
640.993
635.641
631.066
627.258
624.23
621.915
620.306
619.326
619.202
620.122
622.562
625.908
631.225
636.891
645.328
653.721
670.28
689.614
723.776
733.899
833.877
)
;

boundaryField
{
    inlet
    {
        type            fixedValue;
        value           uniform 10000;
    }
    outlet
    {
        type            fixedValue;
        value           uniform 1000;
    }
    obstacle
    {
        type            zeroGradient;
    }
    empty
    {
        type            empty;
    }
}


// ************************************************************************* //
