/*--------------------------------*- C++ -*----------------------------------*\
| =========                 |                                                 |
| \\      /  F ield         | OpenFOAM: The Open Source CFD Toolbox           |
|  \\    /   O peration     | Version:  v1912                                 |
|   \\  /    A nd           | Website:  www.openfoam.com                      |
|    \\/     M anipulation  |                                                 |
\*---------------------------------------------------------------------------*/
FoamFile
{
    version     2.0;
    format      ascii;
    class       volScalarField;
    location    "7.82";
    object      p;
}
// * * * * * * * * * * * * * * * * * * * * * * * * * * * * * * * * * * * * * //

dimensions      [1 -1 -2 0 0 0 0];


internalField   nonuniform List<scalar> 
1900
(
19048.3
8907.43
8476.06
8502.41
8506.94
8493.46
8458.16
8414.57
8372.78
8328.08
19048.3
8907.4
8476.09
8502.43
8506.92
8493.75
8458.17
8412.5
8380.72
8330.78
19048.3
8907.38
8476.11
8502.54
8507.13
8494.57
8458.99
8407.53
8372.36
8315.89
19048.3
8907.4
8476.09
8502.43
8506.92
8493.75
8458.17
8412.5
8380.72
8330.78
19048.3
8907.43
8476.06
8502.41
8506.94
8493.46
8458.16
8414.57
8372.78
8328.08
8432.93
8260.04
8181.59
8003.21
8221.38
8284.75
8166.45
8093.11
7915.83
7791.21
8251.35
8147.25
8080.1
7939.27
7826.89
8284.75
8166.45
8093.11
7915.83
7791.21
8432.93
8260.04
8181.59
8003.21
8221.38
3461.69
2017.75
1418.1
1102.72
843.946
3911.15
2225.04
1528.84
1188.63
899.619
4017.94
2186.06
1481.84
1155.17
856.178
3911.15
2225.04
1528.84
1188.63
899.619
3461.69
2017.75
1418.1
1102.72
843.946
863.542
878.688
849.862
808.969
773.472
719.809
622.294
579.82
621.589
977.19
1275.55
1325.65
1309.94
1300.31
1283.04
1229.71
1123.45
988.339
840.369
682.1
507.943
358.991
293.711
276.745
268.751
261.843
256.163
252.635
251.3
251.227
255.772
280.34
410.004
575.143
666.394
724.282
784.841
849.924
912.61
960.088
809.034
843.318
860.893
831.557
785.181
717.975
609.51
570.957
615.776
968.757
1283.12
1326.24
1313.22
1304.37
1286.96
1234.02
1124.39
988.247
842.787
685.731
510.512
359.79
293.779
276.73
268.742
261.83
256.137
252.599
251.262
251.191
255.741
280.305
409.991
575.126
666.321
724.148
784.847
849.842
912.534
960.121
799.076
816.979
843.277
834.325
802.239
729.853
611.665
575.229
614.224
957.087
1289.26
1327.86
1313.27
1304.76
1287.89
1244.96
1151.94
1006.03
846.584
685.702
510.008
359.744
293.805
276.73
268.739
261.827
256.129
252.585
251.248
251.178
255.73
280.295
409.996
575.117
666.283
724.095
784.851
849.836
912.467
959.986
809.034
843.318
860.893
831.557
785.181
717.975
609.51
570.957
615.776
968.757
1283.12
1326.24
1313.22
1304.37
1286.96
1234.02
1124.39
988.247
842.787
685.731
510.512
359.79
293.779
276.73
268.742
261.83
256.137
252.599
251.262
251.191
255.741
280.305
409.991
575.126
666.321
724.148
784.847
849.842
912.534
960.121
863.542
878.688
849.862
808.969
773.472
719.809
622.294
579.82
621.589
977.19
1275.55
1325.65
1309.94
1300.31
1283.04
1229.71
1123.45
988.339
840.369
682.1
507.943
358.991
293.711
276.745
268.751
261.843
256.163
252.635
251.3
251.227
255.772
280.34
410.004
575.143
666.394
724.282
784.841
849.924
912.61
960.088
957.964
879.675
816.254
765.209
731.596
687.47
618.583
585.267
639.528
1012.97
1270.2
1307.68
1291.3
1280.48
1264.39
1216.09
1120.31
987.258
836.232
676.617
502.411
356.056
293.309
276.808
268.792
261.908
256.279
252.8
251.475
251.389
255.921
280.44
409.943
575.083
666.521
724.589
784.732
849.995
912.829
960.483
961.884
872.035
790.095
722.926
675.173
632.796
597.955
597.806
699.638
1047.35
1232.94
1267.83
1261.31
1252.7
1228.42
1171.01
1073.16
945.443
805.088
654.145
486.245
348.793
292.314
276.961
268.907
262.06
256.54
253.189
251.897
251.776
256.269
280.683
409.806
574.921
666.83
725.183
785.183
850.311
913.062
960.637
972.08
939.31
890.004
828.194
754.874
695.491
652.653
657.317
818.943
1067.04
1201.45
1216.36
1211.21
1199.55
1165.46
1106.98
1014.79
896.422
766.744
623.6
463.061
338.809
291.026
277.204
269.126
262.327
256.951
253.773
252.537
252.373
256.812
281.103
409.708
574.706
667.182
725.624
786.024
850.935
913.765
961.185
973.708
915.669
856.651
792.308
718.372
679.965
686.526
757.806
899.707
1070.92
1157.84
1150.54
1163.34
1142.71
1099.93
1037.36
948.292
840.323
722.307
586.281
434.799
327.865
289.832
277.511
269.424
262.705
257.508
254.538
253.371
253.162
257.544
281.742
409.927
574.918
667.99
726.214
787.244
851.747
914.525
961.83
971.828
909.455
846.935
791.437
737.78
736.61
766.628
826.456
944.877
1058.98
1076.45
1097.37
1102.83
1069.18
1025.65
964.174
880.429
782.491
673.679
543.058
403.84
317.608
288.91
277.83
269.769
263.172
258.2
255.466
254.382
254.123
258.448
282.492
409.962
574.838
668.604
726.524
788.167
852.368
915.001
962.339
971.786
910.185
856.615
820.654
793.394
798.912
828.048
877.001
956.085
989.783
1010.52
1043.05
1021.48
994.624
954.997
893.344
813.811
724.605
622.319
496.274
373.884
309.633
288.549
278.279
270.272
263.861
259.159
256.682
255.685
255.382
259.668
283.726
410.902
575.753
670.121
727.662
789.649
853.548
915.825
963.028
971.031
915.517
876.035
851.796
834.155
831.298
845.146
886.824
922.639
926.09
955.487
962.088
955.573
929.011
885.691
823.037
749.054
667.498
568.984
448.697
348.511
304.414
288.574
278.837
270.927
264.747
260.352
258.144
257.241
256.888
261.129
284.996
411.262
576.098
671.249
728.521
790.761
854.535
916.431
963.448
974.039
928.444
898.268
878.167
862.959
852.081
855.06
864.965
851.812
871.047
906.123
910.625
892.117
863.615
815.687
754.833
688.116
612.132
514.402
403.96
330.301
301.95
289.122
279.629
271.851
265.95
261.87
259.899
259.075
258.67
262.897
286.805
412.573
577.029
672.629
729.661
792.244
855.942
917.351
964.078
982.419
938.205
909.233
879.236
848.488
825.397
816.417
804.796
817.108
855.287
855.671
847.658
830.947
795.705
746.906
691.934
631.944
557.255
459.352
366.933
319.327
300.715
289.353
280.006
272.424
266.835
263.091
261.353
260.628
260.198
264.422
288.093
412.475
576.604
673.011
730.192
793.482
857.366
918.364
964.584
964.204
910.705
864.866
827.751
801.731
792.788
788.36
793.505
806.041
803.432
803.158
792.907
767.027
727.248
681.259
633.284
576.884
500.399
408.164
342.27
313.956
299.972
289.279
280.21
273.031
267.898
264.544
263.067
262.471
262.089
266.396
290.164
414.077
578.699
676.353
733.069
796.173
859.903
920.223
965.732
943.111
911.226
866.251
850.618
834.013
808.17
788.55
771.866
764.887
760.62
751.053
730.633
698.688
661.72
625.068
583.597
525.426
446.236
372.232
333.036
316.173
304.78
294.809
286.443
280.011
275.602
272.858
271.81
271.474
271.253
275.786
300.316
427.274
596.722
697.308
752.097
811.543
867.793
923.46
966.626
983.62
945.189
908.357
876.592
841.619
805.359
772.884
745.969
729.443
715.477
697.856
672.95
644.498
617.376
588.934
551.412
493.068
419.009
367.956
348.242
339.052
331.373
324.306
318.574
314.505
312.309
311.124
311.716
312.416
313.196
319.041
349.336
498.335
684.792
779.443
811.783
853.892
898.496
937.75
969.383
992.719
953.536
918.242
884.951
856.558
829.486
777.465
733.105
702.781
683.101
665.619
649.95
641.094
636.668
623.684
586.008
527.089
482.763
467.399
463.845
461.628
458.196
454.126
450.853
448.833
448.743
448.926
451.158
452.368
453.72
462.735
508.405
694.178
886.466
968.035
966.326
971.239
972.368
975.732
976.035
1002.97
975.65
953.695
933.628
921.553
896.227
840.28
784.216
753.213
745.732
750.291
764.803
781.842
786.763
765.316
713.014
659.525
633.703
628.336
625.171
619.517
611.787
604.027
598.046
594.035
592.736
592.224
593.324
593.412
593.91
605.719
659.063
845.692
1019.97
1101.98
1100.17
1099.53
1085.32
1051.23
996.644
1023.14
1030.56
1063.83
1097.41
1149.71
1169.25
1141.82
1050.88
974.876
944.769
937.864
939.514
930.512
897.687
837.557
775.334
742.016
730.231
724.394
717.239
707.447
696.968
687.88
681.447
677.305
675.932
675.581
676.428
676.523
677.019
690.527
738.89
906.188
1077.91
1166.79
1172.79
1172.57
1156.82
1112.48
1022.41
1056.04
1114.69
1199.04
1271.91
1362.78
1404.81
1358.98
1217.69
1082.59
1020.18
991.593
967.776
927.107
873.379
821.578
793.719
785.042
782.334
778.519
771.204
761.466
752.055
744.641
739.584
736.202
735.04
734.554
735.1
735.124
735.216
746.764
783.158
912.361
1072.2
1169.47
1182.19
1182.83
1171.25
1129.03
1036.2
1063.33
1153.47
1258.75
1338.52
1413.98
1436.83
1365.02
1211.09
1079.79
1017.46
982.239
947.59
904.583
865.279
841.993
836.145
836.176
835.396
831.202
823.819
815.334
807.642
802.023
798.551
796.575
796.341
796.287
797.06
797.517
798.171
805.137
835.396
924.965
1065.62
1164.01
1181.81
1180.14
1163.09
1108.12
1023.63
1052.05
1134.17
1225.03
1283.96
1342.19
1351.26
1288.22
1162.21
1061.46
1006.59
968.804
937.265
907.985
890.871
886.202
887.976
889.682
889.143
885.568
879.662
873.488
867.538
862.792
859.718
857.936
857.699
857.472
858.034
858.588
859.522
862.597
885.184
938.31
1048.82
1141.15
1166.23
1159.89
1150.59
1084.91
994.434
1113.05
969.609
1117.9
1171.33
1226.55
1238.92
1199.65
1110.74
1043.56
1004.12
975.839
955.303
938.783
933.444
934.302
936.923
938.366
937.807
935.174
931.159
927.787
924.693
922.408
921.184
920.328
920.194
919.83
919.959
920.116
920.799
922.013
931.281
958.731
1025.05
1096.18
1124.35
1106.45
1085.85
939.848
940.294
6238.9
958.624
1004.41
1050.35
1070.68
1071.32
1049.93
1009.36
977.016
960.529
951.789
948.932
950.924
955.931
959.932
962.798
964.609
965.336
965.008
964.185
963.543
963.146
963.288
963.772
964.282
964.958
965.282
965.877
966.259
967.072
967.617
969.792
974.782
989.514
1015.88
1035.01
1024.23
998.735
936.823
3480.03
6238.9
958.624
1004.41
1050.35
1070.68
1071.32
1049.93
1009.36
977.016
960.529
951.789
948.932
950.924
955.931
959.932
962.798
964.609
965.336
965.008
964.185
963.543
963.146
963.288
963.772
964.282
964.958
965.282
965.877
966.259
967.072
967.617
969.792
974.782
989.514
1015.88
1035.01
1024.23
998.735
936.823
3480.03
1113.05
969.609
1117.9
1171.33
1226.55
1238.92
1199.65
1110.74
1043.56
1004.12
975.839
955.303
938.783
933.444
934.302
936.923
938.366
937.807
935.174
931.159
927.787
924.693
922.408
921.184
920.328
920.194
919.83
919.959
920.116
920.799
922.013
931.281
958.731
1025.05
1096.18
1124.35
1106.45
1085.85
939.848
940.294
1052.05
1134.17
1225.03
1283.96
1342.19
1351.26
1288.22
1162.21
1061.46
1006.59
968.804
937.265
907.985
890.871
886.202
887.976
889.682
889.143
885.568
879.662
873.488
867.538
862.792
859.718
857.936
857.699
857.472
858.034
858.588
859.522
862.597
885.184
938.31
1048.82
1141.15
1166.23
1159.89
1150.59
1084.91
994.434
1063.33
1153.47
1258.75
1338.52
1413.98
1436.83
1365.02
1211.09
1079.79
1017.46
982.239
947.59
904.583
865.279
841.993
836.145
836.176
835.396
831.202
823.819
815.334
807.642
802.023
798.551
796.575
796.341
796.287
797.06
797.517
798.171
805.137
835.396
924.965
1065.62
1164.01
1181.81
1180.14
1163.09
1108.12
1023.63
1056.04
1114.69
1199.04
1271.91
1362.78
1404.81
1358.98
1217.69
1082.59
1020.18
991.593
967.776
927.107
873.379
821.578
793.719
785.042
782.334
778.519
771.204
761.466
752.055
744.641
739.584
736.202
735.04
734.554
735.1
735.124
735.216
746.764
783.158
912.361
1072.2
1169.47
1182.19
1182.83
1171.25
1129.03
1036.2
1023.14
1030.56
1063.83
1097.41
1149.71
1169.25
1141.82
1050.88
974.876
944.769
937.864
939.514
930.512
897.687
837.557
775.334
742.016
730.231
724.394
717.239
707.447
696.968
687.88
681.447
677.305
675.932
675.581
676.428
676.523
677.019
690.527
738.89
906.188
1077.91
1166.79
1172.79
1172.57
1156.82
1112.48
1022.41
1002.97
975.65
953.695
933.628
921.553
896.227
840.28
784.216
753.213
745.732
750.291
764.803
781.842
786.763
765.316
713.014
659.525
633.703
628.336
625.171
619.517
611.787
604.027
598.046
594.035
592.736
592.224
593.324
593.412
593.91
605.719
659.063
845.692
1019.97
1101.98
1100.17
1099.53
1085.32
1051.23
996.644
992.719
953.536
918.242
884.951
856.558
829.486
777.465
733.105
702.781
683.101
665.619
649.95
641.094
636.668
623.684
586.008
527.089
482.763
467.399
463.845
461.628
458.196
454.126
450.853
448.833
448.743
448.926
451.158
452.368
453.72
462.735
508.405
694.178
886.466
968.035
966.326
971.239
972.368
975.732
976.035
983.62
945.189
908.357
876.592
841.619
805.359
772.884
745.969
729.443
715.477
697.856
672.95
644.498
617.376
588.934
551.412
493.068
419.009
367.956
348.242
339.052
331.373
324.306
318.574
314.505
312.309
311.124
311.716
312.416
313.196
319.041
349.336
498.335
684.792
779.443
811.783
853.892
898.496
937.75
969.383
943.111
911.226
866.251
850.618
834.013
808.17
788.55
771.866
764.887
760.62
751.053
730.633
698.688
661.72
625.068
583.597
525.426
446.236
372.232
333.036
316.173
304.78
294.809
286.443
280.011
275.602
272.858
271.81
271.474
271.253
275.786
300.316
427.274
596.722
697.308
752.097
811.543
867.793
923.46
966.626
964.204
910.705
864.866
827.751
801.731
792.788
788.36
793.505
806.041
803.432
803.158
792.907
767.027
727.248
681.259
633.284
576.884
500.399
408.164
342.27
313.956
299.972
289.279
280.21
273.031
267.898
264.544
263.067
262.471
262.089
266.396
290.164
414.077
578.699
676.353
733.069
796.173
859.903
920.223
965.732
982.419
938.205
909.233
879.236
848.488
825.397
816.417
804.796
817.108
855.287
855.671
847.658
830.947
795.705
746.906
691.934
631.944
557.255
459.352
366.933
319.327
300.715
289.353
280.006
272.424
266.835
263.091
261.353
260.628
260.198
264.422
288.093
412.475
576.604
673.011
730.192
793.482
857.366
918.364
964.584
974.039
928.444
898.268
878.167
862.959
852.081
855.06
864.965
851.812
871.047
906.123
910.625
892.117
863.615
815.687
754.833
688.116
612.132
514.402
403.96
330.301
301.95
289.122
279.629
271.851
265.95
261.87
259.899
259.075
258.67
262.897
286.805
412.573
577.029
672.629
729.661
792.244
855.942
917.351
964.078
971.031
915.517
876.035
851.796
834.155
831.298
845.146
886.824
922.639
926.09
955.487
962.088
955.573
929.011
885.691
823.037
749.054
667.498
568.984
448.697
348.511
304.414
288.574
278.837
270.927
264.747
260.352
258.144
257.241
256.888
261.129
284.996
411.262
576.098
671.249
728.521
790.761
854.535
916.431
963.448
971.786
910.185
856.615
820.654
793.394
798.912
828.048
877.001
956.085
989.783
1010.52
1043.05
1021.48
994.624
954.997
893.344
813.811
724.605
622.319
496.274
373.884
309.633
288.549
278.279
270.272
263.861
259.159
256.682
255.685
255.382
259.668
283.726
410.902
575.753
670.121
727.662
789.649
853.548
915.825
963.028
971.828
909.455
846.935
791.437
737.78
736.61
766.628
826.456
944.877
1058.98
1076.45
1097.37
1102.83
1069.18
1025.65
964.174
880.429
782.491
673.679
543.058
403.84
317.608
288.91
277.83
269.769
263.172
258.2
255.466
254.382
254.123
258.448
282.492
409.962
574.838
668.604
726.524
788.167
852.368
915.001
962.339
973.708
915.669
856.651
792.308
718.372
679.965
686.526
757.806
899.707
1070.92
1157.84
1150.54
1163.34
1142.71
1099.93
1037.36
948.292
840.323
722.307
586.281
434.799
327.865
289.832
277.511
269.424
262.705
257.508
254.538
253.371
253.162
257.544
281.742
409.927
574.918
667.99
726.214
787.244
851.747
914.525
961.83
972.08
939.31
890.004
828.194
754.874
695.491
652.653
657.317
818.943
1067.04
1201.45
1216.36
1211.21
1199.55
1165.46
1106.98
1014.79
896.422
766.744
623.6
463.061
338.809
291.026
277.204
269.126
262.327
256.951
253.773
252.537
252.373
256.812
281.103
409.708
574.706
667.182
725.624
786.024
850.935
913.765
961.185
961.884
872.035
790.095
722.926
675.173
632.796
597.955
597.806
699.638
1047.35
1232.94
1267.83
1261.31
1252.7
1228.42
1171.01
1073.16
945.443
805.088
654.145
486.245
348.793
292.314
276.961
268.907
262.06
256.54
253.189
251.897
251.776
256.269
280.683
409.806
574.921
666.83
725.183
785.183
850.311
913.062
960.637
957.964
879.675
816.254
765.209
731.596
687.47
618.583
585.267
639.528
1012.97
1270.2
1307.68
1291.3
1280.48
1264.39
1216.09
1120.31
987.258
836.232
676.617
502.411
356.056
293.309
276.808
268.792
261.908
256.279
252.8
251.475
251.389
255.921
280.44
409.943
575.083
666.521
724.589
784.732
849.995
912.829
960.483
)
;

boundaryField
{
    inlet
    {
        type            fixedValue;
        value           uniform 10000;
    }
    outlet
    {
        type            fixedValue;
        value           uniform 1000;
    }
    obstacle
    {
        type            zeroGradient;
    }
    empty
    {
        type            empty;
    }
}


// ************************************************************************* //
