/*--------------------------------*- C++ -*----------------------------------*\
| =========                 |                                                 |
| \\      /  F ield         | OpenFOAM: The Open Source CFD Toolbox           |
|  \\    /   O peration     | Version:  v1912                                 |
|   \\  /    A nd           | Website:  www.openfoam.com                      |
|    \\/     M anipulation  |                                                 |
\*---------------------------------------------------------------------------*/
FoamFile
{
    version     2.0;
    format      ascii;
    class       volVectorField;
    location    "0.00011";
    object      momentum;
}
// * * * * * * * * * * * * * * * * * * * * * * * * * * * * * * * * * * * * * //

dimensions      [1 -2 -1 0 0 0 0];


internalField   nonuniform List<vector> 
1300
(
(-1.528114976 4.809431559 0.3858069741)
(-1.533297294 2.123203168 0.8097380045)
(6.533856027 0.1471926194 0.2925883985)
(90.92850113 5.207468157 8.532267858)
(34.74424129 0.5396629159 -1.294104286)
(14.41238233 2.628803147 2.577641148)
(15.51404517 2.111010687 -0.5042598188)
(39.79703531 4.218797757 -3.064588672)
(43.97382289 2.814931093 -5.927700855)
(40.40076781 -1.220423072 0.1375082171)
(-2.473090874 3.150149579 -1.039138366)
(4.329401875 1.485035027 -2.530448497)
(26.52867015 8.046442354 1.456323608)
(210.1775145 33.84261153 3.702769053)
(98.17257091 23.9693364 -7.349714972)
(38.78869015 11.47075668 3.137960402)
(91.14747575 12.96866344 -1.213237585)
(69.35134509 1.415513539 -0.1725426667)
(35.43789846 9.623248758 2.47352803)
(27.09638472 -0.2762997184 3.105055835)
(-2.420164012 2.937952401 0.6891065069)
(0.423878092 11.21946228 -5.09759127)
(22.46286583 14.41059827 4.948939473)
(138.4595176 28.90699949 -2.00349374)
(78.58105649 8.561472549 -5.815976807)
(43.23842558 10.46105602 -0.8609320114)
(106.4661055 20.28812866 15.21375389)
(71.95731648 12.96809564 1.174741418)
(131.5165865 13.3184365 -4.282878983)
(48.29371619 13.87161131 -12.41861585)
(0 0 0)
(0.3210554929 2.835395658 -0.07354084444)
(40.23229955 3.843938566 -0.7470289494)
(186.7579447 30.52886921 6.357693539)
(94.55161006 3.715762385 0.536671428)
(20.01670917 3.555198691 3.068713031)
(96.22858602 25.57630985 3.545506223)
(137.1313667 21.57058151 -2.542897036)
(90.49343796 22.43222124 0.5663381361)
(123.149204 26.04188647 -3.245154278)
(0 0 0)
(0 0 0)
(46.35605897 2.298375623 6.517513491)
(188.3393413 24.71306974 7.730129311)
(90.04472034 8.605931305 2.016938461)
(43.26491737 -0.3583470304 -2.083425167)
(128.3728914 17.43024457 1.397184795)
(63.03681031 12.49400167 1.534133841)
(97.05560999 16.50936449 -2.200734117)
(80.96404371 12.45433885 4.75351289)
(0 0 0)
(0 0 0)
(32.30911954 9.310474505 -0.5410686401)
(143.591926 18.43392669 -1.202024242)
(51.06344583 9.4495379 -4.678348541)
(36.40428063 5.647086149 -1.356323094)
(126.1905713 23.09916321 -3.896301125)
(111.3428037 10.86679681 2.414160162)
(41.02494142 4.286851128 -2.610978435)
(90.37390058 26.37031307 -13.88406599)
(0 0 0)
(0.293674131 2.679480613 -2.297170597)
(64.44494712 13.82160974 2.4551874)
(232.7268111 41.57294149 -12.26696809)
(89.99776658 13.87545056 0.7518078729)
(53.89621617 12.32660792 -2.799949844)
(60.72754102 10.05193863 1.447378649)
(83.21008238 11.82461252 -3.836667198)
(71.60691861 4.528275581 1.916685237)
(65.92245342 15.55692696 -2.509084822)
(0 0 0)
(0 0 0)
(20.62174476 4.062183519 -4.145496157)
(169.0361027 18.40019954 -3.367844008)
(77.23975596 8.661983413 2.438159284)
(6.471288651 1.063954449 -0.500979574)
(58.89676772 10.08137369 0.6687659428)
(105.4740673 15.36266108 9.440114134)
(67.48730718 12.27512349 0.167075274)
(104.8163147 13.42237682 4.857240008)
(0 0 0)
(0 0 0)
(24.78515562 0.5702337889 -0.8686358341)
(178.6594394 14.33292176 8.744813285)
(71.85129784 13.06573281 -1.480825631)
(36.38867472 2.771210906 -2.726926431)
(90.99805434 20.66640511 0.9948762142)
(100.8839886 10.94978353 -8.808491323)
(72.33613606 10.62927107 -0.2806886603)
(66.24940422 14.03731961 1.479936605)
(0 0 0)
(0 0 0)
(31.41653782 4.905337386 3.348989666)
(196.0835166 39.35698341 2.468693957)
(88.21442636 9.051469603 3.669698544)
(34.83117913 3.079559896 1.020357137)
(67.57637127 15.49138955 2.97030262)
(116.9118358 18.38676826 -3.81025452)
(83.26250302 11.47960227 0.2681978465)
(122.7304734 22.69335148 6.101627283)
(0 0 0)
(0 0 0)
(55.22391906 5.859722298 -2.34194183)
(148.5251548 24.19475881 -12.7633599)
(87.46841308 8.963124831 -6.202332973)
(38.57653762 4.89598066 2.656748211)
(105.0585981 12.67306398 -9.96486696)
(119.4335881 23.84861069 -4.210071628)
(102.4065223 19.96082754 -10.96911304)
(98.41688979 17.97010281 -0.758325111)
(0 0 0)
(0 0 0)
(23.21433902 1.056959074 0.8131569056)
(189.3373769 23.95393839 -3.196739331)
(74.43612958 13.16222249 11.42845555)
(54.803564 14.21912183 1.703491382)
(113.0834223 12.61966344 -4.074574287)
(82.46430988 6.454577228 3.546350675)
(106.3354633 19.72929436 4.081543762)
(86.64689803 16.5500033 -3.038067201)
(0 0 0)
(0 0 0)
(46.33585673 9.960816327 -2.967084825)
(252.5593375 33.96268584 5.002905007)
(84.95541039 14.69800082 -1.025634439)
(11.46945239 2.594841461 2.174287194)
(68.54499432 14.33942285 2.77984672)
(95.92069874 12.96070402 1.398948657)
(102.2211087 19.32190634 -6.952325104)
(36.32159744 0.3569079527 -0.1574756012)
(0 0 0)
(0 0 0)
(46.03299654 7.38204926 1.80038583)
(124.803188 16.87099541 -6.569086984)
(47.07147896 4.931490167 -3.660457315)
(27.16248211 7.081394027 -2.278580899)
(137.6731305 19.47604962 10.35385903)
(90.42527359 9.219088766 3.804945276)
(73.2256897 9.379912786 2.722697291)
(63.33935141 8.849585374 0.3059935699)
(0 0 0)
(0.3251268249 2.944465776 -3.185070052)
(60.06557951 15.68949493 -3.68295301)
(144.506397 29.1368251 2.614210022)
(74.45340151 5.621668546 0.3047965137)
(51.87043081 5.151681032 4.585058379)
(111.0308542 10.87041045 0.2753955751)
(137.5864765 19.52664291 8.849220423)
(68.39171904 13.82110742 9.780507778)
(76.94703497 5.153249433 -1.325865728)
(0 0 0)
(0 0 0)
(44.1687669 13.22462844 -1.101760617)
(264.0489101 12.70803345 -16.62395069)
(83.23307659 7.582436295 7.440538037)
(38.52693324 3.764910405 1.425456819)
(46.69613946 11.32506463 2.013520436)
(104.684928 16.167999 1.507990608)
(71.61479041 5.810023344 5.98585722)
(54.78685732 8.769631724 3.495253348)
(0 0 0)
(0 0 0)
(25.58030582 1.021516851 -3.171781752)
(187.5647626 30.54692612 -1.719648961)
(35.3419496 2.551972513 4.633269706)
(41.30760334 8.887329654 -4.318678924)
(41.27653298 3.832593556 0.2649464374)
(89.57147844 18.29589017 4.366156341)
(124.5941371 16.02476161 -2.079916446)
(96.29747417 5.863774225 1.217207137)
(0 0 0)
(0 0 0)
(5.846665798 2.5362867 -2.269912985)
(139.7443673 24.05910307 9.005749734)
(96.56826974 14.4191878 1.972174347)
(20.11468443 1.847915755 -1.949636142)
(38.57172365 7.665066831 -1.615027334)
(90.83714893 10.47991934 0.999874759)
(131.2379859 7.916245525 7.645852474)
(138.7137008 20.61219433 9.200426994)
(0 0 0)
(0 0 0)
(27.18518437 2.583043177 0.254145076)
(150.8203259 24.42335538 2.481624368)
(147.1756509 20.02905905 -1.698815466)
(13.04347339 1.676008199 0.4106596139)
(126.6704713 18.31376228 -12.87742744)
(66.84888556 13.97215153 -3.648758295)
(85.92836971 12.07926016 2.375426618)
(47.46107819 11.23834086 1.65267724)
(0 0 0)
(0 0 0)
(18.68501353 1.936870383 -0.6401517022)
(191.6787134 40.81909059 3.939149457)
(87.6158715 10.22095618 7.015517473)
(13.01643478 3.740217259 3.951225439)
(81.83839643 12.98892263 -3.148718892)
(118.6814301 16.47693677 3.22325848)
(132.1624288 27.27698978 6.89355328)
(87.3042563 13.24656818 -0.05808801368)
(23.28316539 4.903219555 -2.313438006)
(24.90166685 4.588431307 10.91863738)
(51.31223753 0.1175045774 -2.678324545)
(28.43655322 2.055260939 1.855996932)
(28.14179119 0.766503716 3.544851211)
(8.292804408 2.118492799 4.119950628)
(27.13124939 11.79800227 -13.00967737)
(3.919308451 -2.14977744 3.833992127)
(16.8883613 -0.7717651769 4.943222201)
(25.97631484 -6.786895833 -9.31009647)
(9.309500922 -0.5098021947 5.959877563)
(9.437896969 6.405152327 5.348350734)
(26.14153038 -1.307034942 6.584626933)
(9.827896735 5.381506227 -4.561455964)
(7.232624492 -0.2496634687 -5.696031049)
(12.76577198 4.104320456 2.122650704)
(27.61115795 -6.740487181 7.818856182)
(7.490242447 2.789273089 -5.564469215)
(11.00873382 3.855633257 -0.4771721683)
(13.65205583 2.429227179 2.120778816)
(12.71209387 3.298569854 -9.707274659)
(23.61626427 9.861800504 -8.912120666)
(2.737527655 2.940292696 3.158163201)
(9.215947791 -3.185883622 0.1964762187)
(6.841614608 7.768722113 0.4405134403)
(10.78349356 10.15819683 -1.382440219)
(12.21905943 6.682528429 5.056693415)
(9.503864482 3.643315842 4.19782519)
(5.272280124 -1.949969201 0.1060104609)
(1.599762237 2.347301395 0.6865319982)
(47.79919158 -2.834742501 8.460867289)
(13.52243188 1.703902958 6.846669126)
(44.06316617 -4.295329594 1.502775506)
(20.74495348 0.03296429877 7.970178329)
(35.14927322 2.347034214 3.139733565)
(32.19719811 5.441547013 6.020881057)
(23.30348924 8.450222478 -5.213192581)
(23.84510687 6.03457064 3.520632362)
(21.33444077 7.7999639 -2.102858486)
(13.32450686 5.041986309 1.176565442)
(12.45770935 9.238299807 -1.658685315)
(13.13605979 3.442150821 -2.312190295)
(25.80620841 8.466962586 -7.706708323)
(11.21508154 4.714540255 3.856634062)
(8.122255096 5.594658442 -1.30806071)
(16.11555346 12.60184393 1.248732765)
(6.788810938 1.845705529 -3.225786823)
(26.79642978 -1.694390992 0.5733584553)
(17.58045588 -6.871430659 -3.030918529)
(47.35074854 1.697781624 7.830268185)
(5.955464876 5.669137764 -2.50104647)
(25.27895985 9.45761335 1.781644839)
(3.045796417 9.554455879 3.507761074)
(18.19903286 5.589205623 -3.014529297)
(19.0146838 2.339575636 -0.3196768712)
(14.46224723 -0.1997272603 -2.617149572)
(0.9115901363 0.927543159 -0.3912460482)
(2.776514742 8.199848026 6.021649791)
(18.59229685 1.918815364 -8.114134043)
(11.87164348 1.913943562 5.258052196)
(42.77265508 -0.8686751423 0.586000667)
(27.7624578 2.564806611 0.7366264755)
(34.10843492 -0.6772750081 -5.764785958)
(66.50016484 4.800522628 0.9702201153)
(32.35810231 5.642407504 4.003257431)
(48.01499636 4.043263539 -11.74132242)
(48.57949194 2.029812815 1.186984393)
(27.84560552 5.584502601 0.07459861994)
(13.93872812 1.487004631 -7.035736644)
(24.74092595 -0.4531005005 7.566640994)
(37.70461944 2.772316539 -4.804595081)
(17.63865549 0.06496517772 -0.9414203658)
(31.04896553 -1.08655687 -5.064744206)
(25.58185464 7.280831473 -0.7341147703)
(35.01382707 9.473823969 7.880718794)
(42.8733838 7.116245391 -1.944514167)
(33.81159192 -3.170776871 8.132423353)
(27.68981446 12.4976785 6.264148834)
(27.93731812 2.739722557 -2.987605113)
(30.06188716 4.825858788 -9.023093314)
(7.927646712 6.259093734 4.746307804)
(12.96528527 0.2470612123 0.6429596171)
(25.47764311 5.444197446 3.363137146)
(11.58310764 5.449271815 2.44765471)
(18.00635406 1.918511778 6.130951717)
(17.22854189 6.95975659 -5.481172428)
(9.691622998 4.605985897 4.65027036)
(24.1084273 1.378679152 -0.3129311325)
(20.10509092 4.062697335 -1.151983749)
(17.81518628 11.32343247 0.342289618)
(103.3669003 15.40643724 -6.234097755)
(77.24881307 21.91769918 11.16446251)
(61.57357141 14.16174141 -6.435434623)
(52.98418956 9.685772691 10.46862608)
(68.82588973 -0.8852326625 -0.9334747943)
(26.76240629 4.068444801 -0.6855427385)
(56.50174921 17.8971316 1.068434642)
(53.27064981 12.74168465 -0.6827939294)
(34.85114188 5.685632975 1.103182617)
(45.08551639 0.8896469643 -6.818965948)
(41.21610665 0.7832518208 -7.745492034)
(29.28402301 3.684842455 -2.932883939)
(44.05335855 5.061150519 -3.074153973)
(45.94709113 13.3215806 -0.002990580625)
(38.55834101 -0.1682849885 -2.34228243)
(12.40635637 -1.790647933 0.6613843057)
(4.864073066 -1.384161841 1.698305716)
(15.32491672 -0.9287984425 4.430992722)
(28.98030427 1.310711555 4.711495333)
(29.45118663 8.460160572 17.54571328)
(24.19494201 6.552792114 5.726076418)
(24.72564725 15.1484929 2.00806631)
(12.09112353 8.421830079 4.316631863)
(37.11498617 9.855277747 -6.033973468)
(17.01827807 -1.094010686 -0.4857689604)
(18.42676422 1.288242489 -7.353910882)
(24.56685009 19.34917171 8.428674092)
(9.019736216 0.8736193153 -4.443937154)
(11.90373288 5.550447494 5.461675097)
(5.175942728 3.839566826 -4.359198706)
(89.7394068 23.91872288 3.769804971)
(65.94124824 9.72798199 -5.194911032)
(73.52840604 15.2046546 0.471127718)
(72.98805021 11.45468191 -5.057390666)
(53.67791151 10.84749996 3.024448404)
(34.12847295 7.314091266 -3.613822286)
(79.76962596 19.3901485 3.304614149)
(31.00810397 9.495630529 2.034288298)
(78.56116231 11.95119338 0.952352339)
(64.67652753 10.72467547 -7.724300715)
(47.26538833 -0.918236293 -3.502199767)
(33.5723628 1.255559228 8.254752918)
(35.74953347 6.362120882 5.530638347)
(69.71162244 12.94489455 3.259813437)
(42.38655257 8.578875699 0.1846772124)
(39.93178062 3.539596218 -2.428370943)
(34.14178168 6.692004428 4.127259463)
(50.14133196 0.07348851533 -3.545204209)
(24.06651621 4.974782536 -3.030184103)
(31.21062824 1.795752847 1.243889618)
(42.74418532 7.437903298 -3.033020097)
(23.11733627 -1.480558337 -1.35216705)
(19.22300678 6.356514683 -10.94643255)
(30.39060481 7.326987459 7.358315719)
(11.55560048 5.544589985 2.595917177)
(9.201458696 4.315208772 6.011405484)
(41.05443296 4.357635189 -7.61167122)
(15.20947962 7.959260354 7.097130323)
(18.38795472 1.691364818 -1.972471595)
(3.833484358 7.424819316 -0.3774205813)
(85.41350042 19.19976525 3.246832394)
(123.1476916 31.4876807 -2.923303451)
(68.47036507 12.1097842 2.983533931)
(122.3416774 23.32485492 1.938783262)
(112.0751457 28.11919802 -3.699824759)
(90.94628946 24.62628264 1.954500972)
(50.22368501 9.193607455 -3.000590062)
(83.19631953 24.03326842 0.07678381528)
(79.69694414 19.18880169 -7.407986997)
(88.28443945 9.076383058 0.09539483315)
(71.64772895 7.828400046 -1.84370932)
(39.70349474 1.781266615 5.963549241)
(62.82061473 1.452679536 -0.6789471383)
(63.81857455 8.010234366 6.505181704)
(27.69674838 3.027837349 -0.8562396973)
(46.11855716 12.4434762 0.8561051468)
(22.91551518 3.12024515 3.553383286)
(43.59087644 0.4233919062 -3.434859377)
(49.98761945 3.880452781 -6.303090545)
(17.92577474 -1.431173441 -5.668781608)
(31.90588642 6.163159323 -5.927429782)
(33.5691521 9.611011761 -3.442613685)
(49.15180215 27.06685554 11.76709491)
(20.74461213 1.105665098 -7.874946046)
(46.85336248 1.880808469 0.9315195478)
(16.5983905 5.784320327 -7.36474158)
(17.64923029 -0.274893389 1.217747953)
(17.02543539 14.98598278 1.003743647)
(22.00990086 8.464431568 -2.51193959)
(22.56159815 7.207411229 -5.526792252)
(115.7572625 20.48808385 3.475499078)
(78.65715147 10.12980872 -0.5378418767)
(100.5534292 32.27647323 -3.471130293)
(123.0230651 27.79708202 -8.542770208)
(83.65634648 16.33326719 2.775767888)
(33.35954868 9.530456737 3.187453085)
(84.85704521 12.67748127 6.549537428)
(57.14676566 9.637492959 1.637226103)
(95.74429322 21.75468731 -1.822640251)
(50.92748714 6.585728894 -7.18598203)
(124.8533282 27.18646797 -0.7961354952)
(55.15868034 13.62839609 -0.9643003507)
(24.34860395 1.808722685 -1.069563711)
(45.00244494 5.310016547 5.12478007)
(47.22292331 1.59134236 0.4720597378)
(66.15343869 13.45779433 -7.785360034)
(47.27146247 15.26976704 8.106388903)
(67.2706688 12.51399002 1.788032513)
(64.96690003 9.947874716 -13.98243148)
(77.13640844 10.51372342 -5.823673745)
(39.14053422 -0.9759567144 0.8734021981)
(61.7776253 7.600511221 7.681013112)
(39.82140218 17.6209152 -3.27229621)
(50.52686624 5.067873204 2.644833698)
(16.32584143 -1.498113237 7.559440895)
(34.6590892 9.631356787 -1.932888826)
(29.61496323 2.748895399 -1.701368969)
(35.32535492 9.577889856 -6.927284757)
(20.33744816 9.284817154 -4.212921726)
(37.24773493 -2.899415717 1.960168278)
(55.92034504 9.859650162 1.267490757)
(45.73015369 5.75564722 0.4942334796)
(115.8522692 13.68867963 10.30226804)
(101.9618961 18.67616799 7.479125089)
(120.5677449 22.09953451 8.006608188)
(67.19239257 11.6186423 -1.974761561)
(69.91272895 10.46289395 2.137470374)
(87.1222298 16.4595787 2.107939529)
(65.70559361 17.90434058 -8.157070036)
(101.538583 15.29143766 -1.051682621)
(63.64581335 9.470276908 2.395041956)
(104.6690194 17.64141494 0.6970032239)
(129.6436942 15.70540841 -0.597119506)
(75.77161445 16.99010338 1.512976464)
(74.85514652 17.87282291 1.414908127)
(62.80442037 8.236244615 0.797049002)
(53.95126672 10.30347698 -5.441719293)
(50.64523519 0.5832458712 -3.087205961)
(50.75111474 5.300928847 -7.379560719)
(50.52554464 13.37145014 -2.442265953)
(51.19684256 14.57155049 -2.173200778)
(45.61213652 8.326709015 -1.277664011)
(66.19144555 18.23081531 14.98995539)
(33.46022402 0.3788060764 3.356931152)
(43.58343587 13.06816018 1.147341769)
(25.59290458 0.8515594061 13.24580366)
(50.62227176 3.060942938 1.563829613)
(35.53309816 9.319697246 1.790233227)
(23.05622079 2.198110978 -2.222853579)
(39.2596277 1.253242008 -6.398282424)
(80.10662663 13.25284044 -5.797133632)
(36.07836076 4.620532575 0.3511947452)
(56.47493304 14.28863235 0.7790617321)
(82.83554241 18.89492682 2.613126967)
(93.93024869 16.73774764 1.539311035)
(81.54942694 15.11488461 -0.4786920336)
(102.4502924 26.8987464 0.5622316708)
(99.18053012 17.15068912 4.619061655)
(102.9433687 20.54877362 -2.24178434)
(95.23626372 21.4429201 -3.770438206)
(185.7555332 35.56303277 7.994492406)
(174.6002728 37.48637172 -11.30159636)
(55.63885545 8.19469993 7.396203573)
(40.92604955 15.66193426 2.260400621)
(80.5291509 17.6450287 2.128942925)
(89.60678598 14.24053056 2.647642875)
(56.43525911 17.41197274 -4.246775538)
(54.22773028 7.118932784 -6.054647866)
(75.57882708 21.78505212 -3.383678444)
(68.53642929 13.86867632 1.119495302)
(53.44766033 14.99122782 -7.788741247)
(46.95625239 11.01516085 11.74506561)
(73.65015401 19.45869106 0.01263026881)
(72.3891791 8.086792234 8.506577938)
(45.63600586 13.42007936 2.237638933)
(40.32051714 8.568867091 -10.90989302)
(41.28611382 7.377590452 -4.015776226)
(23.69562925 4.217852478 6.881856862)
(39.44324336 2.677900649 -3.466607796)
(28.79880057 4.747181393 -1.637292111)
(71.97880133 12.5482552 -2.686289255)
(61.17331647 11.83168109 5.685033362)
(68.58632875 5.431375659 2.040635351)
(116.7247743 20.61031218 0.01091781247)
(74.62805756 12.08926201 1.995239127)
(97.41267712 22.08784659 9.747836233)
(68.45026946 8.731359322 -3.641197261)
(45.23486042 5.216839608 1.127079916)
(84.83099193 13.44427876 6.339596755)
(126.6004724 25.71710418 4.752441253)
(80.89265451 22.86802856 -0.1755632661)
(97.39803563 21.20471138 -4.063931048)
(106.7400854 20.03108446 -9.217448367)
(67.18909677 7.678803612 7.191523794)
(34.9892971 10.30593198 1.23895276)
(77.8902827 12.63853105 -10.03337572)
(80.52467245 16.33319884 -1.69931487)
(104.6092579 20.39267747 -7.70605097)
(77.00999713 11.14256286 0.5614216777)
(51.445879 9.103725441 1.784143949)
(83.54042949 21.64409201 6.911307491)
(75.62676149 20.54471314 -5.364536482)
(65.35470818 22.51437833 -1.669948782)
(78.31000195 17.76798978 2.717695683)
(68.53216286 11.18842591 0.5145538775)
(51.94353279 21.03186843 7.052127633)
(23.29586421 7.982941924 -0.4514973497)
(58.97330882 17.39381567 -3.563506036)
(68.07734601 9.04436359 -2.174084571)
(53.61350793 5.903624987 -3.834320338)
(93.63202376 12.66314742 -3.730259193)
(96.90885227 9.906323197 -8.769326995)
(85.01623669 13.8892342 0.0006787991552)
(83.47757505 16.70604421 3.353431511)
(82.62154674 12.70738033 5.157743092)
(63.70622565 -0.3299350341 1.881128556)
(67.913059 10.63677729 -3.245449095)
(65.75525113 10.68802081 -1.620216347)
(69.12341219 4.974225381 0.8206483979)
(62.66503764 6.780022653 5.895502971)
(61.48704221 11.10614214 -4.086511491)
(71.7710856 10.95357376 -5.209348615)
(114.7975191 24.83563627 6.478357145)
(109.3812048 17.49185086 -2.701990477)
(69.61611679 12.95403602 1.117496539)
(77.48909281 16.68751624 8.906382477)
(109.325085 22.52175101 -1.828268656)
(91.7520192 5.701969834 -4.63620501)
(94.50936069 14.81589249 2.076942217)
(100.9849601 34.55051154 9.026613215)
(93.99630416 25.81229036 -2.922076121)
(157.0386659 25.0347099 1.77772916)
(63.45994068 15.95352883 -6.217165653)
(51.74748476 14.74861415 -0.205813608)
(44.68879991 5.147637837 4.363749606)
(53.75544146 6.985770625 -2.159364473)
(90.96248011 19.38515415 -0.7250365157)
(100.3010117 17.64778432 6.039690359)
(74.74211519 21.83998073 -4.484188483)
(64.81309403 5.733693974 2.136474456)
(51.86175349 11.30243614 -7.974742808)
(81.76139743 12.46177094 2.770212912)
(108.3511062 22.72582582 2.419082809)
(148.068776 30.26222493 -4.18058554)
(126.7584979 24.77818359 -13.81195891)
(92.38111801 21.86602155 1.654036805)
(93.15379707 8.719475819 8.656259072)
(166.8443777 25.53873247 -0.2898199778)
(66.12309087 8.517324206 1.512238802)
(58.97143446 14.70539072 -0.3570787207)
(54.99194768 4.643324952 5.921338856)
(73.90844372 12.42994788 -9.78696618)
(71.53552227 25.53765599 0.8668108886)
(123.5652715 25.71673814 6.960031273)
(114.2362525 25.71926834 -1.849554894)
(73.690256 20.45605396 0.2963972221)
(83.93152865 17.93211725 5.734059198)
(121.9085292 24.24330255 2.154673547)
(73.68094365 17.04467439 -1.194194856)
(94.49955517 10.11475942 6.270798827)
(77.14235215 18.76650751 -0.4085486244)
(109.0050901 20.18489277 2.210447547)
(70.34099174 10.73566209 -5.348411112)
(115.8073615 20.01737324 0.7374417582)
(83.71230456 22.27056702 -1.036158712)
(60.67338237 15.43541908 -8.093752298)
(94.08712631 15.29906457 -0.7521294463)
(72.53124876 22.98442113 -0.3169064378)
(77.97870392 17.84953819 4.630082616)
(87.60251858 23.02879831 -9.514275102)
(113.4122322 11.61404093 -1.25515376)
(100.2288365 17.18200537 4.557740317)
(102.1166442 11.06396391 -2.711776393)
(71.73685172 8.610784438 6.540203915)
(124.5280201 25.34409909 6.841959877)
(64.10726289 14.85618061 2.139139452)
(141.3251327 34.41959736 4.064586896)
(71.20809489 8.462468227 -3.424482387)
(116.0298393 8.703655007 3.64654606)
(60.98190035 3.967509868 2.948031621)
(80.66890055 12.68407283 -1.038698873)
(142.8814792 19.01192372 -8.467533067)
(105.0873422 12.76831172 -5.146777805)
(146.3628787 34.32309757 8.929900979)
(108.9588096 21.03763169 -0.9855342198)
(118.866902 24.24848342 -0.02261120605)
(122.4606784 25.90887699 0.9738400992)
(84.30061865 11.20200896 -0.4060162432)
(94.73124111 17.53367003 1.493165896)
(69.29396405 12.59278917 6.711865157)
(50.24912853 18.39147618 1.605497627)
(103.6828986 29.18602742 4.884974269)
(92.07732348 18.83730689 -0.7491339759)
(87.34004703 22.11715641 7.886656053)
(67.61160608 9.171663867 -0.2447972646)
(92.77244222 23.31432426 5.997227464)
(46.69610027 14.47690446 3.078152067)
(66.66162159 12.33085131 2.407312487)
(87.97756139 20.15078061 -0.2538101797)
(63.64722399 9.381645663 -3.076958983)
(87.56642045 16.63304737 9.984489638)
(93.46539594 19.94631619 0.8581885669)
(109.5480541 9.700902041 7.552454251)
(56.47588468 11.55785119 -2.227748708)
(80.37232256 9.965290489 -0.5713666135)
(106.1947163 11.16102062 -1.604329958)
(82.08081073 5.394736135 -4.073225976)
(57.7084262 4.762463471 1.953374096)
(138.8683218 18.34960362 10.27874797)
(75.0493333 11.50084125 1.269496428)
(96.44901272 15.09153966 -3.203628555)
(123.6492049 25.91695505 2.854139968)
(127.7555595 22.61184634 -1.185831589)
(100.3435285 23.08637735 -1.208601618)
(86.82544822 16.79180356 -1.175355047)
(119.1164875 19.56823619 1.449320476)
(106.4041777 15.22794007 -4.405961988)
(100.7248005 22.99931266 -7.595564294)
(99.99247492 20.97429224 1.633531568)
(113.0969549 20.96122475 -1.450109817)
(107.823728 21.22477643 -0.8647314282)
(48.86005167 11.74264253 -1.63683392)
(72.53285261 11.88938097 8.40659876)
(95.39013156 14.71430963 5.075406195)
(129.2226649 28.476127 -0.5994647722)
(182.3798689 39.1389665 2.515365307)
(109.6980738 16.89045734 5.35524666)
(87.31139215 14.91862634 -3.456358537)
(106.1043326 25.03219393 -7.220393265)
(93.12337743 12.35310641 -7.860303105)
(69.10438026 11.85089098 1.118894798)
(121.3782236 15.83525377 0.9139758231)
(79.30402072 8.118142958 -2.290801873)
(92.33447005 9.393322513 -1.448447892)
(98.63137363 11.2678949 7.43422464)
(95.11432622 17.83401768 0.05180653155)
(63.68787026 11.91180867 1.270632771)
(84.65704046 8.823908422 6.819980765)
(144.0162769 19.88127411 10.777329)
(74.42090879 10.34973332 0.1797685967)
(61.31866241 13.76842282 4.214428701)
(70.29565874 0.766134143 1.965275427)
(107.0657777 21.03628249 -3.156724125)
(94.71625576 16.70823196 -5.825621097)
(48.49970526 2.627418867 -1.78226088)
(71.66523585 8.124131747 -0.8792699574)
(126.7327525 22.09141944 -4.204693212)
(96.00839409 19.05831656 -0.02861219604)
(108.9175098 20.55391197 1.911801297)
(76.99750353 19.66024818 -2.233758855)
(124.5494935 24.50706119 0.4748536524)
(91.71313107 21.72986046 -5.170344276)
(82.40472453 19.23561642 -4.010363111)
(107.3376244 21.65522051 -3.446916958)
(65.57104077 13.41164495 0.4433317051)
(89.6877528 3.269542723 1.220795068)
(102.4633194 25.25504093 1.396067651)
(51.99803567 11.01421363 -2.242114314)
(79.60423311 16.19595932 -6.297195778)
(123.8665691 17.65474927 0.1910120686)
(47.17855541 10.4762981 0.5835029764)
(46.39679622 7.466519588 -2.080803341)
(79.0325526 12.75200421 2.472948232)
(59.75149375 8.713223157 0.906929261)
(76.58035727 13.50649343 0.02814224238)
(109.3242259 20.39555793 6.614325903)
(74.18893116 9.717522085 5.549675727)
(80.07426616 14.34150252 1.220691854)
(105.7258851 12.83588817 0.9800763681)
(96.92937302 11.32703864 -2.435220411)
(40.43048137 4.230088751 -5.992535395)
(74.96492445 6.876878089 3.800342861)
(55.87741384 5.999161689 2.062282984)
(74.82998806 11.29521856 0.3234331856)
(103.3359488 16.47998286 5.602628728)
(31.50458592 7.149713467 -1.109162353)
(111.130515 21.64207918 7.644816822)
(154.0277498 24.79638032 0.5742307633)
(84.66621674 13.41611804 -3.185050188)
(100.1985743 17.75450985 5.975391758)
(129.5603663 31.52658805 6.075489975)
(77.52869591 23.43837324 2.488700463)
(147.1828284 25.79176738 -2.87418479)
(49.10723474 7.555905164 2.645660333)
(140.3458372 28.65454995 -6.635591424)
(132.2395339 26.31261589 9.294281308)
(57.80698968 9.720011884 2.814124414)
(106.0803095 26.1832447 -4.643989799)
(88.88239888 25.41478427 6.195278181)
(106.011045 21.37490448 0.7145531265)
(61.34396172 5.808888773 5.067006439)
(93.27571179 10.63427794 -5.98433315)
(75.7461057 9.791250894 6.536668372)
(99.40212421 20.42740374 -6.931482262)
(94.89439069 9.621973147 6.168843443)
(38.67035191 6.190510642 2.040788616)
(65.1067807 8.262787906 -0.04772576616)
(114.2903998 15.12926899 -7.557675877)
(104.552568 18.71151944 -4.495226315)
(60.8364578 7.172822468 6.90649159)
(89.05225567 13.31445254 -2.286759897)
(112.4701432 20.37369792 -4.657587536)
(75.05380111 18.25689926 0.09874382735)
(67.96863934 8.348601802 -1.270559046)
(84.99797801 19.63241746 4.768309029)
(97.28945923 19.28222774 -1.388508741)
(81.22837642 9.429599472 -4.597327614)
(68.85255699 8.662189221 0.03832474554)
(51.74693852 14.74076467 2.747152628)
(79.21131472 17.77460488 -1.042937614)
(138.4143926 28.58190387 3.425271809)
(153.7327517 22.29814704 -2.711505519)
(84.08714279 12.7398995 7.782769458)
(123.5294446 24.55558736 -3.62843163)
(111.7669178 13.7900331 -3.819485997)
(93.98029213 20.65293134 0.7367456137)
(142.9775098 31.30267465 2.305505682)
(149.6929921 23.54375281 9.581808803)
(119.8901076 31.04970195 -3.130167531)
(60.43828523 14.44708612 8.310626077)
(40.15653689 6.9052053 -0.2329340231)
(120.6091196 18.97996817 -2.701238883)
(62.03098877 2.631104159 0.2480695606)
(97.24019551 16.06331446 7.000711667)
(70.0947874 12.76156125 -1.910749153)
(68.20807619 11.95505523 1.67903067)
(78.68801764 2.073062287 3.790084807)
(59.37557209 9.997093967 2.730071696)
(90.48029017 23.94035523 -10.92255884)
(60.4316886 13.54681394 -4.021225253)
(57.42377845 7.64240578 -2.016979261)
(80.44017795 4.409149855 -6.179323705)
(51.27514704 3.486029855 -2.824595928)
(58.26372255 9.325179948 5.213872892)
(86.53827775 17.01223137 -2.913524913)
(108.0384825 20.59791733 -1.415680909)
(98.141176 16.04810809 5.505276621)
(83.77369628 12.5382053 2.649662412)
(78.11700473 9.690016942 -3.328649548)
(71.37778687 14.30455671 -2.61233288)
(105.1195301 18.34996192 -2.599741081)
(73.84086039 12.14766532 3.176526264)
(104.028236 13.92293425 2.400265734)
(130.0503767 11.80257753 4.912374243)
(91.33219232 23.53279246 2.687004307)
(96.62932805 22.50854234 -3.663599637)
(106.6207157 23.13464832 1.27079906)
(132.5151852 27.53531646 -4.382273391)
(107.9128305 17.60193212 1.546280562)
(136.8611295 26.87313638 -5.673177518)
(59.79830001 7.909571697 -1.230363469)
(80.1307452 12.3254241 -0.9999023015)
(119.5247662 9.231316739 1.313583847)
(59.42133249 6.923568065 0.4076850426)
(56.4449802 9.746658372 -3.128247743)
(93.55659048 18.93758531 -4.587572282)
(48.11826717 8.154171882 -1.308175)
(122.9550342 10.29746825 2.208846422)
(132.6369667 19.91236783 -7.342165685)
(154.0230677 23.04034278 -2.034189067)
(82.04522668 10.2659369 -4.254802825)
(72.69922706 13.57397379 -3.844180097)
(83.04599801 12.96369637 -3.016123783)
(104.836809 15.78369062 6.512075254)
(84.85605553 17.75919809 -0.2213763161)
(88.55360458 20.69546558 2.283952628)
(83.37707281 13.465165 -9.849905544)
(114.8490721 12.67823359 0.8295233957)
(63.95459069 10.7873612 -2.149487352)
(110.9465238 23.45919656 10.08141078)
(88.28716613 12.42304626 4.070595501)
(109.797566 11.32807759 3.974137021)
(103.0195743 8.987026962 8.606792348)
(92.96708437 20.32585445 0.1137761422)
(111.4806807 21.00295236 5.233671047)
(140.1280695 34.05394396 5.733412877)
(138.9281904 36.10700754 -13.37454114)
(82.59354059 5.725166915 -2.260406861)
(153.7015883 24.03585888 -3.096107888)
(103.9215556 25.71710072 5.959261814)
(109.3692644 12.64097423 0.1682823668)
(112.9565554 20.55812572 -1.272023864)
(117.5506489 13.36797182 -10.52432674)
(76.75775834 18.12242054 3.108400258)
(92.36561778 12.2289914 -2.887002992)
(41.99033923 8.99957669 -3.06015267)
(87.71953203 5.136037919 2.479555917)
(56.92418026 8.067007983 -1.642021722)
(91.72040196 15.78570903 1.876967921)
(70.28386163 13.74996653 -2.07958105)
(94.15888087 10.88915484 5.049288273)