/*--------------------------------*- C++ -*----------------------------------*\
| =========                 |                                                 |
| \\      /  F ield         | OpenFOAM: The Open Source CFD Toolbox           |
|  \\    /   O peration     | Version:  v1912                                 |
|   \\  /    A nd           | Website:  www.openfoam.com                      |
|    \\/     M anipulation  |                                                 |
\*---------------------------------------------------------------------------*/
FoamFile
{
    version     2.0;
    format      ascii;
    class       volScalarField;
    location    "4.18";
    object      rho;
}
// * * * * * * * * * * * * * * * * * * * * * * * * * * * * * * * * * * * * * //

dimensions      [1 -3 0 0 0 0 0];


internalField   nonuniform List<scalar> 
1900
(
37482.5
18193
15801.6
15403.3
15149.6
14929
14718.5
14507.4
14305.6
14144.8
37482.3
18193
15801.5
15403.7
15150.7
14930.6
14720.1
14507.5
14287.8
14105.2
37482.2
18193
15801.4
15403.7
15150.5
14929.4
14717.9
14504.8
14287.1
14095
37482.3
18193
15801.5
15403.7
15150.7
14930.6
14720.1
14507.5
14287.8
14105.2
37482.5
18193
15801.6
15403.3
15149.6
14929
14718.5
14507.4
14305.6
14144.8
14056.1
14041.6
14087.9
14126.4
14129.9
13975.6
13941.1
13980.7
13998.5
13899.5
13958
13930
13979.9
14016.7
13930.9
13975.6
13941.1
13980.7
13998.5
13899.5
14056.1
14041.6
14087.9
14126.4
14129.9
13153.7
12499.4
11848.4
11058.1
10184.9
13223.3
12545.9
11901.4
11123.3
10118.4
13216.3
12541.6
11886.1
11101.3
10037.3
13223.3
12545.9
11901.4
11123.3
10118.4
13153.7
12499.4
11848.4
11058.1
10184.9
8306.24
5133.5
5357.27
5631.12
5511.58
5325.98
5069.87
4756.79
4554.57
4393.42
4308.84
4244.97
4192.87
4149.86
4115.09
4087.04
4064.42
4046.1
4031.46
4019.17
4009.26
4001.1
3993.72
3987.3
3981.59
3976.78
3972.95
3969.97
3967.09
3963.41
3957.14
3950.1
3940.35
3936.21
3926.75
3922.62
3904.65
3894.76
4800.26
25603.4
8257.01
5227.02
5384.11
5673.81
5540.4
5341.09
5078.56
4757.17
4556.86
4393.59
4309.19
4245.2
4193.06
4150
4115.19
4087.12
4064.5
4046.17
4031.53
4019.23
4009.31
4001.15
3993.75
3987.33
3981.61
3976.8
3972.96
3969.97
3967.08
3963.39
3957.11
3950.06
3940.32
3936.28
3926.91
3923.08
3905.21
3895.45
4797.93
25594
8182.55
5525.36
5578.35
5739.59
5562.1
5348.29
5082.59
4758.34
4557.22
4393.94
4309.44
4245.34
4193.17
4150.08
4115.25
4087.17
4064.54
4046.21
4031.57
4019.27
4009.35
4001.18
3993.78
3987.36
3981.64
3976.82
3972.99
3970
3967.12
3963.45
3957.21
3950.22
3940.61
3936.81
3927.85
3924.64
3907.69
3898.68
4798.72
25818.6
8257.01
5227.02
5384.11
5673.81
5540.4
5341.09
5078.56
4757.17
4556.86
4393.59
4309.19
4245.2
4193.06
4150
4115.19
4087.12
4064.5
4046.17
4031.53
4019.23
4009.31
4001.15
3993.75
3987.33
3981.61
3976.8
3972.96
3969.97
3967.08
3963.39
3957.11
3950.06
3940.32
3936.28
3926.91
3923.08
3905.21
3895.45
4797.93
25594
8306.24
5133.5
5357.27
5631.12
5511.58
5325.98
5069.87
4756.79
4554.57
4393.42
4308.84
4244.97
4192.87
4149.86
4115.09
4087.04
4064.42
4046.1
4031.46
4019.17
4009.26
4001.1
3993.72
3987.3
3981.59
3976.78
3972.95
3969.97
3967.09
3963.41
3957.14
3950.1
3940.35
3936.21
3926.75
3922.62
3904.65
3894.76
4800.26
25603.4
10230.2
4880.4
5026.46
5405.74
5410.33
5268.46
5032.73
4744.93
4540.63
4390.17
4306.07
4242.72
4190.99
4148.38
4113.9
4086.02
4063.52
4045.28
4030.7
4018.46
4008.59
4000.47
3993.09
3986.68
3980.95
3976.12
3972.26
3969.23
3966.3
3962.63
3956.32
3949.35
3939.57
3935.09
3925.67
3920.67
3902.88
3891.76
4805.2
26443.2
13599
4374.34
4677.52
5080
5198.84
5119.26
4938.51
4700.78
4509.04
4381.2
4299.32
4237.33
4186.58
4144.93
4111.11
4083.63
4061.37
4043.3
4028.87
4016.75
4006.99
3998.94
3991.62
3985.23
3979.51
3974.64
3970.73
3967.64
3964.62
3960.97
3954.66
3947.84
3938.04
3932.79
3923.16
3916.29
3898.07
3884.34
4766.57
25308.2
15708.9
4126.03
4489.53
4866.96
4999.03
4957.65
4819.42
4631
4472.41
4363.93
4288.23
4228.86
4179.92
4139.71
4106.84
4079.93
4058.04
4040.25
4026.06
4014.12
4004.52
3996.6
3989.35
3983.01
3977.27
3972.36
3968.35
3965.15
3961.97
3958.36
3952
3945.36
3935.51
3929.05
3919.01
3909.7
3890.59
3873.94
4714.36
24885.5
16885.5
4064
4369.25
4692.68
4824.61
4799.78
4693.91
4555.66
4431.08
4341.86
4273.39
4217.86
4171.55
4133.16
4101.46
4075.28
4053.89
4036.49
4022.63
4010.96
4001.58
3993.83
3986.67
3980.37
3974.62
3969.63
3965.47
3962.12
3958.71
3955.16
3948.74
3942.25
3932.26
3924.3
3913.51
3901.8
3881.41
3863.07
4685.39
24466.3
17603.9
4048.6
4301.43
4538.44
4663.1
4653.62
4578.89
4481.26
4389.09
4316.24
4255.92
4205
4161.91
4125.61
4095.25
4069.95
4049.2
4032.32
4018.9
4007.56
3998.46
3990.92
3983.87
3977.61
3971.82
3966.71
3962.33
3958.77
3955.03
3951.51
3944.92
3938.43
3928.03
3918.18
3906.02
3891.72
3869.73
3850.52
4640.03
24047
18003.2
4030.13
4216.97
4406.16
4516.63
4526.66
4481.83
4415.65
4349.05
4290.06
4237.46
4191.44
4151.61
4117.45
4088.51
4064.23
4044.26
4028.02
4015.16
4004.23
3995.47
3988.16
3981.23
3975
3969.13
3963.87
3959.21
3955.43
3951.38
3948.02
3941.34
3934.82
3924.09
3912.43
3898.85
3882.55
3859.14
3839.79
4594.28
23437.6
18625.3
4000.05
4140.47
4297.31
4393.52
4418.45
4396.7
4357.09
4309.83
4262.73
4217.84
4176.91
4140.47
4108.59
4081.23
4058.14
4039.13
4023.68
4011.48
4001.05
3992.67
3985.64
3978.8
3972.57
3966.56
3961.05
3956
3951.9
3947.32
3944.05
3937.09
3930.22
3918.86
3905.13
3889.63
3871.15
3846.46
3828.07
4527.62
22826.4
17920.9
3956.23
4062.47
4196.27
4290.25
4328.85
4328.42
4309.65
4276.84
4239.15
4200.51
4163.68
4129.83
4099.75
4073.74
4051.78
4033.75
4019.17
4007.71
3997.83
3989.88
3983.15
3976.44
3970.23
3964.12
3958.46
3953.16
3949.07
3944.32
3941.63
3934.87
3927.88
3916.31
3900.75
3883.12
3862.73
3836.36
3817.8
4431.91
21967.3
17586.1
3913.49
3999.11
4116.11
4207.92
4254.39
4269.28
4264.8
4243.45
4214.04
4181.24
4148.46
4117.23
4089.14
4064.71
4044.12
4027.28
4013.71
4003.12
3993.86
3986.39
3979.97
3973.35
3967.11
3960.82
3954.92
3949.13
3944.85
3939.68
3937.3
3930.37
3922.55
3910.25
3892.33
3871.7
3849.49
3821.81
3804.67
4316.69
21044.5
17136.5
3872.92
3936.88
4041.4
4136.5
4190.87
4219.53
4227.55
4215.18
4194.03
4165.93
4136.14
4106.38
4079.37
4055.75
4036.01
4020
4007.24
3997.38
3988.67
3981.7
3975.7
3969.37
3963.37
3957.26
3951.6
3945.99
3942.29
3937.48
3935.84
3929.14
3920.1
3906.58
3885.26
3860.35
3833.7
3803.02
3784.59
4146.75
19952.8
16555
3832.89
3889.94
3984.49
4082.09
4138.71
4175.82
4190.99
4185.16
4170.36
4145.67
4118.62
4090.56
4065.19
4042.89
4024.44
4009.62
3997.9
3988.89
3980.8
3974.36
3968.77
3962.63
3956.76
3950.62
3944.98
3939.18
3935.62
3930.64
3929.31
3922.8
3913.01
3899.09
3875.49
3846.83
3816.18
3784.8
3766.45
3998.99
18777.6
15810.2
3786.42
3837.53
3927.07
4021.86
4084.05
4128.37
4149.93
4151.86
4143.95
4123.7
4100.43
4074.51
4051.16
4030.41
4013.42
3999.8
3989.02
3980.71
3973.12
3967.26
3962.21
3956.41
3950.79
3944.68
3938.94
3932.65
3928.7
3922.74
3920.35
3912.48
3899.55
3882.96
3854.94
3820.5
3782.86
3748.94
3730.35
3862.8
17468.5
14911.3
3735.12
3784.63
3880.11
3967.44
4032.22
4083.99
4110.4
4119.72
4116.42
4099.05
4078.48
4054.26
4033.13
4014.31
3999.27
3987.25
3977.69
3970.24
3963.22
3957.93
3953.37
3947.78
3942.23
3935.93
3929.96
3923.04
3918.73
3911.77
3908.32
3899.66
3884.22
3866.11
3834.01
3795.3
3748.54
3711.15
3691.82
3762.01
16058.5
13914.4
3675.3
3721.1
3815.97
3905.3
3980.44
4033.67
4062.25
4079.5
4081.51
4067.69
4051.8
4030.65
4013.49
3998.03
3986.42
3977.53
3970.57
3965.09
3959.26
3954.52
3949.83
3943.3
3936.43
3928.38
3920.68
3911.66
3905.68
3896.56
3890.21
3879.6
3858.92
3836.12
3795.32
3746.43
3689.71
3647.2
3626.89
3672.17
14576.9
12861.7
3596.31
3638.97
3729.93
3816.81
3907.82
3968.83
4009.25
4037.21
4043.06
4033.88
4023.1
4004.85
3991.17
3978.85
3970.23
3963.74
3958.48
3954.01
3948.83
3944.86
3940.73
3934.24
3927.06
3918.12
3909.32
3898.61
3890.75
3878.89
3867.95
3853.12
3825.64
3798.53
3747.87
3688.76
3619.45
3568.9
3544.05
3582.6
13127
11738.2
3526.08
3565.91
3651.27
3742.81
3841.55
3909.56
3957.99
3997.31
4002.64
3998.16
3990.63
3975.72
3966.37
3957.44
3952.62
3949.49
3947.68
3946.07
3942.52
3938.71
3933.5
3925.08
3915.81
3904.48
3893.69
3880.96
3871.29
3857.7
3843
3825.68
3791.88
3757.55
3697.62
3627.24
3554.61
3498.68
3475.53
3509.42
11703.4
10915.5
3484.94
3513.81
3590.9
3680.33
3779.9
3855.86
3920.05
3947.04
3958.72
3961.95
3953.96
3939.61
3933.04
3926.93
3925.59
3925.29
3925.75
3925.98
3923.63
3920.14
3914.76
3905.33
3894.65
3881.44
3868.9
3855.01
3843.72
3828.8
3810.68
3791.74
3755.72
3720.24
3658.5
3582.5
3505.6
3448.46
3429.46
3467.19
10699.4
9879.67
3496.02
3516.88
3573.44
3651.46
3747.86
3824.97
3890.69
3913.61
3924.75
3929.18
3922.08
3911.09
3907.13
3903.1
3904.46
3907.42
3911.32
3914.7
3913.87
3910.17
3903.43
3891.64
3878.97
3864.11
3850.97
3837.44
3825.85
3812.24
3793.33
3775.3
3739.4
3703.32
3641.24
3562.76
3487.28
3434.56
3420.31
3474.29
9467.25
17620.9
4030.29
3682.12
3684.22
3744.79
3833.26
3927.32
4053.57
4190.05
4342.06
4507.72
4621.11
4712.13
4775.77
4820.6
4849.1
4871.9
4872.38
4882.34
4856.82
4852.73
4872.64
4855.03
4847.38
4810.6
4773.47
4713.75
4633.77
4539.49
4382.49
4227.55
4040.73
3895.09
3760.39
3644.95
3553.12
3497.51
3501.18
3924.73
16890.5
176158
18155.4
10728.5
12025.8
13110.4
14575.2
15991
17408
18684.7
19886.1
20987.4
21983.2
22904
23685.9
24332.9
24870.9
25297.8
25676.7
25858
25967.1
25955
25804.5
25614.7
25157.4
24740
24078.7
23422.5
22516.9
21561.5
20416.1
19216.5
17908.7
16509.8
15016
13519
12003.4
10908
9553.89
16485.5
162599
176158
18155.4
10728.5
12025.8
13110.4
14575.2
15991
17408
18684.7
19886.1
20987.4
21983.2
22904
23685.9
24332.9
24870.9
25297.8
25676.7
25858
25967.1
25955
25804.5
25614.7
25157.4
24740
24078.7
23422.5
22516.9
21561.5
20416.1
19216.5
17908.7
16509.8
15016
13519
12003.4
10908
9553.89
16485.5
162599
17620.9
4030.29
3682.12
3684.22
3744.79
3833.26
3927.32
4053.57
4190.05
4342.06
4507.72
4621.11
4712.13
4775.77
4820.6
4849.1
4871.9
4872.38
4882.34
4856.82
4852.73
4872.64
4855.03
4847.38
4810.6
4773.47
4713.75
4633.77
4539.49
4382.49
4227.55
4040.73
3895.09
3760.39
3644.95
3553.12
3497.51
3501.18
3924.73
16890.5
9879.67
3496.02
3516.88
3573.44
3651.46
3747.86
3824.97
3890.69
3913.61
3924.75
3929.18
3922.08
3911.09
3907.13
3903.1
3904.46
3907.42
3911.32
3914.7
3913.87
3910.17
3903.43
3891.64
3878.97
3864.11
3850.97
3837.44
3825.85
3812.24
3793.33
3775.3
3739.4
3703.32
3641.24
3562.76
3487.28
3434.56
3420.31
3474.29
9467.25
10915.5
3484.94
3513.81
3590.9
3680.33
3779.9
3855.86
3920.05
3947.04
3958.72
3961.95
3953.96
3939.61
3933.04
3926.93
3925.59
3925.29
3925.75
3925.98
3923.63
3920.14
3914.76
3905.33
3894.65
3881.44
3868.9
3855.01
3843.72
3828.8
3810.68
3791.74
3755.72
3720.24
3658.5
3582.5
3505.6
3448.46
3429.46
3467.19
10699.4
11738.2
3526.08
3565.91
3651.27
3742.81
3841.55
3909.56
3957.99
3997.31
4002.64
3998.16
3990.63
3975.72
3966.37
3957.44
3952.62
3949.49
3947.68
3946.07
3942.52
3938.71
3933.5
3925.08
3915.81
3904.48
3893.69
3880.96
3871.29
3857.7
3843
3825.68
3791.88
3757.55
3697.62
3627.24
3554.61
3498.68
3475.53
3509.42
11703.4
12861.7
3596.31
3638.97
3729.93
3816.81
3907.82
3968.83
4009.25
4037.21
4043.06
4033.88
4023.1
4004.85
3991.17
3978.85
3970.23
3963.74
3958.48
3954.01
3948.83
3944.86
3940.73
3934.24
3927.06
3918.12
3909.32
3898.61
3890.75
3878.89
3867.95
3853.12
3825.64
3798.53
3747.87
3688.76
3619.45
3568.9
3544.05
3582.6
13127
13914.4
3675.3
3721.1
3815.97
3905.3
3980.44
4033.67
4062.25
4079.5
4081.51
4067.69
4051.8
4030.65
4013.49
3998.03
3986.42
3977.53
3970.57
3965.09
3959.26
3954.52
3949.83
3943.3
3936.43
3928.38
3920.68
3911.66
3905.68
3896.56
3890.21
3879.6
3858.92
3836.12
3795.32
3746.43
3689.71
3647.2
3626.89
3672.17
14576.9
14911.3
3735.12
3784.63
3880.11
3967.44
4032.22
4083.99
4110.4
4119.72
4116.42
4099.05
4078.48
4054.26
4033.13
4014.31
3999.27
3987.25
3977.69
3970.24
3963.22
3957.93
3953.37
3947.78
3942.23
3935.93
3929.96
3923.04
3918.73
3911.77
3908.32
3899.66
3884.22
3866.11
3834.01
3795.3
3748.54
3711.15
3691.82
3762.01
16058.5
15810.2
3786.42
3837.53
3927.07
4021.86
4084.05
4128.37
4149.93
4151.86
4143.95
4123.7
4100.43
4074.51
4051.16
4030.41
4013.42
3999.8
3989.02
3980.71
3973.12
3967.26
3962.21
3956.41
3950.79
3944.68
3938.94
3932.65
3928.7
3922.74
3920.35
3912.48
3899.55
3882.96
3854.94
3820.5
3782.86
3748.94
3730.35
3862.8
17468.5
16555
3832.89
3889.94
3984.49
4082.09
4138.71
4175.82
4190.99
4185.16
4170.36
4145.67
4118.62
4090.56
4065.19
4042.89
4024.44
4009.62
3997.9
3988.89
3980.8
3974.36
3968.77
3962.63
3956.76
3950.62
3944.98
3939.18
3935.62
3930.64
3929.31
3922.8
3913.01
3899.09
3875.49
3846.83
3816.18
3784.8
3766.45
3998.99
18777.6
17136.5
3872.92
3936.88
4041.4
4136.5
4190.87
4219.53
4227.55
4215.18
4194.03
4165.93
4136.14
4106.38
4079.37
4055.75
4036.01
4020
4007.24
3997.38
3988.67
3981.7
3975.7
3969.37
3963.37
3957.26
3951.6
3945.99
3942.29
3937.48
3935.84
3929.14
3920.1
3906.58
3885.26
3860.35
3833.7
3803.02
3784.59
4146.75
19952.8
17586.1
3913.49
3999.11
4116.11
4207.92
4254.39
4269.28
4264.8
4243.45
4214.04
4181.24
4148.46
4117.23
4089.14
4064.71
4044.12
4027.28
4013.71
4003.12
3993.86
3986.39
3979.97
3973.35
3967.11
3960.82
3954.92
3949.13
3944.85
3939.68
3937.3
3930.37
3922.55
3910.25
3892.33
3871.7
3849.49
3821.81
3804.67
4316.69
21044.5
17920.9
3956.23
4062.47
4196.27
4290.25
4328.85
4328.42
4309.65
4276.84
4239.15
4200.51
4163.68
4129.83
4099.75
4073.74
4051.78
4033.75
4019.17
4007.71
3997.83
3989.88
3983.15
3976.44
3970.23
3964.12
3958.46
3953.16
3949.07
3944.32
3941.63
3934.87
3927.88
3916.31
3900.75
3883.12
3862.73
3836.36
3817.8
4431.91
21967.3
18625.3
4000.05
4140.47
4297.31
4393.52
4418.45
4396.7
4357.09
4309.83
4262.73
4217.84
4176.91
4140.47
4108.59
4081.23
4058.14
4039.13
4023.68
4011.48
4001.05
3992.67
3985.64
3978.8
3972.57
3966.56
3961.05
3956
3951.9
3947.32
3944.05
3937.09
3930.22
3918.86
3905.13
3889.63
3871.15
3846.46
3828.07
4527.62
22826.4
18003.2
4030.13
4216.97
4406.16
4516.63
4526.66
4481.83
4415.65
4349.05
4290.06
4237.46
4191.44
4151.61
4117.45
4088.51
4064.23
4044.26
4028.02
4015.16
4004.23
3995.47
3988.16
3981.23
3975
3969.13
3963.87
3959.21
3955.43
3951.38
3948.02
3941.34
3934.82
3924.09
3912.43
3898.85
3882.55
3859.14
3839.79
4594.28
23437.6
17603.9
4048.6
4301.43
4538.44
4663.1
4653.62
4578.89
4481.26
4389.09
4316.24
4255.92
4205
4161.91
4125.61
4095.25
4069.95
4049.2
4032.32
4018.9
4007.56
3998.46
3990.92
3983.87
3977.61
3971.82
3966.71
3962.33
3958.77
3955.03
3951.51
3944.92
3938.43
3928.03
3918.18
3906.02
3891.72
3869.73
3850.52
4640.03
24047
16885.5
4064
4369.25
4692.68
4824.61
4799.78
4693.91
4555.66
4431.08
4341.86
4273.39
4217.86
4171.55
4133.16
4101.46
4075.28
4053.89
4036.49
4022.63
4010.96
4001.58
3993.83
3986.67
3980.37
3974.62
3969.63
3965.47
3962.12
3958.71
3955.16
3948.74
3942.25
3932.26
3924.3
3913.51
3901.8
3881.41
3863.07
4685.39
24466.3
15708.9
4126.03
4489.53
4866.96
4999.03
4957.65
4819.42
4631
4472.41
4363.93
4288.23
4228.86
4179.92
4139.71
4106.84
4079.93
4058.04
4040.25
4026.06
4014.12
4004.52
3996.6
3989.35
3983.01
3977.27
3972.36
3968.35
3965.15
3961.97
3958.36
3952
3945.36
3935.51
3929.05
3919.01
3909.7
3890.59
3873.94
4714.36
24885.5
13599
4374.34
4677.52
5080
5198.84
5119.26
4938.51
4700.78
4509.04
4381.2
4299.32
4237.33
4186.58
4144.93
4111.11
4083.63
4061.37
4043.3
4028.87
4016.75
4006.99
3998.94
3991.62
3985.23
3979.51
3974.64
3970.73
3967.64
3964.62
3960.97
3954.66
3947.84
3938.04
3932.79
3923.16
3916.29
3898.07
3884.34
4766.57
25308.2
10230.2
4880.4
5026.46
5405.74
5410.33
5268.46
5032.73
4744.93
4540.63
4390.17
4306.07
4242.72
4190.99
4148.38
4113.9
4086.02
4063.52
4045.28
4030.7
4018.46
4008.59
4000.47
3993.09
3986.68
3980.95
3976.12
3972.26
3969.23
3966.3
3962.63
3956.32
3949.35
3939.57
3935.09
3925.67
3920.67
3902.88
3891.76
4805.2
26443.2
)
;

boundaryField
{
    inlet
    {
        type            calculated;
        value           uniform 14000.1;
    }
    outlet
    {
        type            calculated;
        value           nonuniform List<scalar> 
165
(
2375.71
2919.95
3075.38
3088.5
3075.92
3062.41
3032.83
3073.24
3077.08
3085.17
3092.28
3098.89
3106.77
3114.18
3121.72
3128.74
3116.63
3072.48
3281.3
3780.98
3780.98
3235.94
2969.34
3017.24
3036.03
3039.68
3041.57
3042.27
3047.67
3053.62
3059.94
3067.12
3072.69
3077.81
3082.64
3085.21
3087.6
3084.77
3086.02
3082.04
3082.57
3088.24
3086.68
3092.64
3089.05
3092.28
3087.73
3088.39
3084.92
3086.07
3085.3
3086.45
3089.48
3095.36
3101.5
3103.7
3086.75
3033.81
3272.24
3816.03
3046.27
3086.99
3082.95
3084.63
3083.14
3085.16
3079.51
3078.75
3074.59
3074.54
3074.6
3077.65
3084.11
3092.95
3101.42
3101.85
3084.48
3031.73
3275.66
3816.03
3082.08
3079.04
3066.45
3079.04
3082.08
3816.03
3275.66
3031.73
3084.48
3101.85
3101.42
3092.95
3084.11
3077.65
3074.6
3074.54
3074.59
3078.75
3079.51
3085.16
3083.14
3084.63
3082.95
3086.99
3046.27
3780.98
3235.94
2969.34
3017.24
3036.03
3039.68
3041.57
3042.27
3047.67
3053.62
3059.94
3067.12
3072.69
3077.81
3082.64
3085.21
3087.6
3084.77
3086.02
3082.04
3082.57
3088.24
3086.68
3092.64
3089.05
3092.28
3087.73
3088.39
3084.92
3086.07
3085.3
3086.45
3089.48
3095.36
3101.5
3103.7
3086.75
3033.81
3272.24
3816.03
3780.98
3281.3
3072.48
3116.63
3128.74
3121.72
3114.18
3106.77
3098.89
3092.28
3085.17
3077.08
3073.24
3032.83
3062.41
3075.92
3088.5
3075.38
2919.95
2375.71
)
;
    }
    obstacle
    {
        type            calculated;
        value           nonuniform List<scalar> 
40
(
37482.5
18193
15801.6
15403.3
15149.6
14929
14718.5
14507.4
14305.6
14144.8
37482.5
18193
15801.6
15403.3
15149.6
14929
14718.5
14507.4
14305.6
14144.8
14056.1
14041.6
14087.9
14126.4
14129.9
14056.1
14041.6
14087.9
14126.4
14129.9
13153.7
12499.4
11848.4
11058.1
10184.9
13153.7
12499.4
11848.4
11058.1
10184.9
)
;
    }
    empty
    {
        type            empty;
    }
}


// ************************************************************************* //
