/*--------------------------------*- C++ -*----------------------------------*\
| =========                 |                                                 |
| \\      /  F ield         | OpenFOAM: The Open Source CFD Toolbox           |
|  \\    /   O peration     | Version:  v1912                                 |
|   \\  /    A nd           | Website:  www.openfoam.com                      |
|    \\/     M anipulation  |                                                 |
\*---------------------------------------------------------------------------*/
FoamFile
{
    version     2.0;
    format      ascii;
    class       volScalarField;
    location    "4.18";
    object      T;
}
// * * * * * * * * * * * * * * * * * * * * * * * * * * * * * * * * * * * * * //

dimensions      [0 0 0 1 0 0 0];


internalField   nonuniform List<scalar> 
1900
(
1.17224
0.994592
1.0197
1.03358
1.03246
1.0279
1.02247
1.01806
1.01492
1.0121
1.17223
0.994594
1.0197
1.03359
1.03248
1.02795
1.02257
1.01815
1.01441
1.01077
1.17223
0.994594
1.01969
1.03359
1.03247
1.02793
1.02254
1.01812
1.01439
1.01029
1.17223
0.994594
1.0197
1.03359
1.03248
1.02795
1.02257
1.01815
1.01441
1.01077
1.17224
0.994592
1.0197
1.03358
1.03246
1.0279
1.02247
1.01806
1.01492
1.0121
1.00623
0.994845
0.976237
0.951642
0.924341
1.00364
0.99163
0.97279
0.947613
0.918454
1.00292
0.99094
0.972383
0.947894
0.919274
1.00364
0.99163
0.97279
0.947613
0.918454
1.00623
0.994845
0.976237
0.951642
0.924341
0.867396
0.821864
0.783969
0.754752
0.740152
0.869143
0.823093
0.785527
0.756202
0.736572
0.868841
0.822976
0.785198
0.755437
0.733065
0.869143
0.823093
0.785527
0.756202
0.736572
0.867396
0.821864
0.783969
0.754752
0.740152
0.709564
0.619047
0.664612
0.701374
0.692691
0.679623
0.665884
0.649462
0.638271
0.629086
0.624203
0.620471
0.6174
0.614848
0.612775
0.611101
0.609752
0.60866
0.607786
0.607047
0.606448
0.60595
0.605493
0.605093
0.604736
0.60444
0.604208
0.604032
0.603864
0.603648
0.603271
0.602849
0.602255
0.602013
0.601427
0.6012
0.600474
0.599086
0.555749
0.454241
0.712304
0.638129
0.672629
0.705499
0.69482
0.680412
0.666296
0.649472
0.638397
0.629099
0.624226
0.620488
0.617415
0.614859
0.612785
0.611109
0.60976
0.608667
0.607793
0.607054
0.606454
0.605956
0.605498
0.605098
0.604741
0.604444
0.604213
0.604036
0.603868
0.603652
0.603276
0.602852
0.60226
0.602023
0.601435
0.601226
0.60051
0.599154
0.556189
0.454688
0.708027
0.655051
0.68532
0.71031
0.696312
0.680775
0.666493
0.649533
0.638416
0.62912
0.624242
0.620497
0.617422
0.614864
0.612789
0.611113
0.609764
0.608671
0.607796
0.607057
0.606457
0.605959
0.605501
0.6051
0.604744
0.604447
0.604215
0.604039
0.603872
0.603657
0.603284
0.602865
0.602282
0.602058
0.601493
0.601322
0.600664
0.599372
0.556724
0.456556
0.712304
0.638129
0.672629
0.705499
0.69482
0.680412
0.666296
0.649472
0.638397
0.629099
0.624226
0.620488
0.617415
0.614859
0.612785
0.611109
0.60976
0.608667
0.607793
0.607054
0.606454
0.605956
0.605498
0.605098
0.604741
0.604444
0.604213
0.604036
0.603868
0.603652
0.603276
0.602852
0.60226
0.602023
0.601435
0.601226
0.60051
0.599154
0.556189
0.454688
0.709564
0.619047
0.664612
0.701374
0.692691
0.679623
0.665884
0.649462
0.638271
0.629086
0.624203
0.620471
0.6174
0.614848
0.612775
0.611101
0.609752
0.60866
0.607786
0.607047
0.606448
0.60595
0.605493
0.605093
0.604736
0.60444
0.604208
0.604032
0.603864
0.603648
0.603271
0.602849
0.602255
0.602013
0.601427
0.6012
0.600474
0.599086
0.555749
0.454241
0.5893
0.57251
0.646089
0.688838
0.686389
0.676511
0.664038
0.648833
0.637478
0.628889
0.624032
0.62033
0.61728
0.614751
0.612695
0.611032
0.60969
0.608602
0.607732
0.606995
0.606399
0.605903
0.605446
0.605046
0.604689
0.604391
0.604157
0.603978
0.603806
0.603591
0.603212
0.602794
0.6022
0.601937
0.601358
0.601071
0.600343
0.598924
0.555553
0.459581
0.479463
0.566401
0.643115
0.670507
0.674332
0.668849
0.65918
0.646416
0.635676
0.62837
0.623635
0.62001
0.617016
0.614542
0.612526
0.610886
0.609558
0.60848
0.607619
0.606889
0.606299
0.605808
0.605354
0.604956
0.604598
0.604298
0.604061
0.603878
0.603701
0.603487
0.603109
0.6027
0.602104
0.601795
0.601204
0.600789
0.600013
0.598579
0.555489
0.453518
0.45523
0.580681
0.639238
0.657929
0.663128
0.660307
0.652844
0.642537
0.633594
0.627378
0.622993
0.619518
0.616627
0.614237
0.612276
0.610669
0.609363
0.608302
0.607455
0.606737
0.606156
0.605672
0.605223
0.604826
0.604468
0.604165
0.603921
0.603731
0.603544
0.603333
0.60295
0.602551
0.601953
0.601568
0.600952
0.600375
0.599527
0.598077
0.556253
0.454113
0.453296
0.586694
0.633039
0.647446
0.653385
0.651806
0.645989
0.638314
0.631238
0.626111
0.622134
0.618878
0.616139
0.613855
0.611962
0.610398
0.609122
0.608085
0.607257
0.606555
0.605987
0.605513
0.605069
0.604674
0.604315
0.604006
0.603753
0.603553
0.603352
0.603143
0.602756
0.602365
0.601759
0.601281
0.600618
0.599886
0.598946
0.597496
0.5562
0.453865
0.45515
0.585177
0.627667
0.638168
0.64437
0.643784
0.639606
0.634103
0.628835
0.624632
0.621119
0.618126
0.615573
0.61341
0.611597
0.610085
0.608847
0.607841
0.607039
0.606357
0.605806
0.605344
0.604906
0.604513
0.60415
0.603834
0.603566
0.603354
0.603131
0.602924
0.602526
0.602134
0.601503
0.600907
0.60016
0.599262
0.598209
0.596782
0.556325
0.454084
0.457159
0.581103
0.621585
0.630341
0.636124
0.636681
0.634142
0.630364
0.626532
0.623115
0.62004
0.617328
0.614964
0.612926
0.611196
0.609744
0.608553
0.607586
0.606818
0.60616
0.605628
0.605181
0.604749
0.604358
0.603989
0.603663
0.603378
0.603152
0.602909
0.602712
0.602309
0.601914
0.601264
0.600556
0.599723
0.5987
0.597541
0.596134
0.556063
0.453787
0.461616
0.577953
0.616546
0.623956
0.629116
0.630543
0.629289
0.627
0.624262
0.621521
0.618887
0.616469
0.614302
0.612397
0.61076
0.609379
0.608246
0.607326
0.606598
0.60597
0.605462
0.605031
0.604604
0.604211
0.603833
0.603491
0.603182
0.602936
0.602659
0.602467
0.602047
0.60163
0.600942
0.600107
0.599157
0.597997
0.596724
0.595461
0.557245
0.45462
0.455548
0.574599
0.6117
0.617968
0.623126
0.625383
0.625357
0.624263
0.622349
0.620145
0.617871
0.615689
0.613671
0.611871
0.610312
0.608998
0.607923
0.607055
0.606372
0.605777
0.605295
0.604882
0.604462
0.60407
0.603686
0.603334
0.603009
0.602765
0.602478
0.602322
0.601916
0.601492
0.600791
0.599842
0.598764
0.597483
0.596069
0.594844
0.557387
0.454732
0.454978
0.572594
0.607819
0.61316
0.618315
0.62107
0.621935
0.621665
0.620406
0.618675
0.616734
0.614786
0.612919
0.611236
0.60977
0.608538
0.607534
0.606728
0.606098
0.605539
0.605086
0.604692
0.604277
0.603882
0.603485
0.603118
0.602763
0.602506
0.602194
0.602058
0.601644
0.60117
0.600426
0.599334
0.598072
0.596678
0.595128
0.59411
0.559673
0.455346
0.453785
0.569821
0.603958
0.608602
0.614071
0.61734
0.619025
0.619488
0.618752
0.617502
0.615833
0.614058
0.612276
0.610654
0.609236
0.608053
0.607099
0.606341
0.605755
0.60523
0.604806
0.604437
0.604039
0.603658
0.603272
0.602919
0.602574
0.602354
0.602065
0.601974
0.601576
0.601027
0.600207
0.598902
0.597375
0.595697
0.593909
0.592903
0.559513
0.455354
0.452743
0.568032
0.600952
0.605071
0.610823
0.614265
0.616464
0.617348
0.616996
0.616116
0.614641
0.613023
0.611335
0.609807
0.608464
0.607358
0.606475
0.605779
0.605245
0.604757
0.604365
0.60402
0.603632
0.603258
0.602869
0.602518
0.602162
0.601952
0.601654
0.601584
0.601199
0.600605
0.599758
0.59831
0.59655
0.594618
0.592724
0.591817
0.560648
0.455345
0.451776
0.565885
0.597653
0.601528
0.607179
0.611002
0.613652
0.614916
0.615026
0.614553
0.613337
0.611941
0.610377
0.608967
0.607716
0.606696
0.605885
0.605247
0.604755
0.604297
0.60394
0.603627
0.603258
0.602898
0.60251
0.602152
0.601765
0.601532
0.601175
0.60104
0.600572
0.599782
0.598765
0.597034
0.594909
0.592528
0.590398
0.589532
0.559628
0.454894
0.45063
0.563406
0.594442
0.598664
0.603867
0.607886
0.611005
0.612568
0.613122
0.612921
0.611872
0.610635
0.609167
0.607887
0.606748
0.605844
0.605129
0.604563
0.604122
0.603698
0.603375
0.603092
0.602736
0.60238
0.60198
0.601609
0.601182
0.600928
0.600512
0.60031
0.599792
0.598844
0.597731
0.595739
0.593344
0.590376
0.587935
0.587116
0.557995
0.453941
0.449559
0.560509
0.590454
0.59467
0.60006
0.604754
0.60798
0.609689
0.610722
0.610837
0.609999
0.609038
0.607749
0.606707
0.605769
0.605072
0.604546
0.60414
0.60382
0.603469
0.603179
0.602886
0.602471
0.602032
0.601525
0.601047
0.60049
0.600133
0.599585
0.599203
0.598563
0.597281
0.59587
0.593321
0.59027
0.586648
0.583769
0.583017
0.554921
0.452644
0.448472
0.556453
0.585213
0.589278
0.59461
0.600336
0.604064
0.606513
0.608201
0.60854
0.607975
0.607312
0.60619
0.605354
0.604602
0.604084
0.603702
0.603398
0.60314
0.602828
0.602585
0.602326
0.601912
0.601454
0.600891
0.600346
0.599687
0.599215
0.598502
0.597835
0.596934
0.595222
0.593539
0.590355
0.586636
0.582178
0.578675
0.577815
0.551086
0.451408
0.447466
0.553362
0.580507
0.584242
0.589957
0.596214
0.600406
0.60337
0.605749
0.606057
0.605779
0.605307
0.604387
0.603816
0.60327
0.60299
0.602821
0.602739
0.602666
0.602457
0.602223
0.601894
0.601351
0.600755
0.600038
0.599369
0.598584
0.598
0.597182
0.596277
0.595215
0.593096
0.590947
0.587159
0.582696
0.577979
0.57397
0.573382
0.548742
0.451345
0.449205
0.551012
0.576291
0.579203
0.58522
0.591826
0.596726
0.600841
0.602606
0.603433
0.6037
0.603273
0.602432
0.602072
0.601721
0.601671
0.601697
0.601772
0.601811
0.601666
0.601453
0.601119
0.600509
0.599812
0.598963
0.598171
0.597292
0.596585
0.59564
0.594474
0.593244
0.590912
0.58862
0.584625
0.5797
0.574547
0.569959
0.569781
0.547446
0.453887
0.455659
0.551971
0.576749
0.579411
0.584813
0.591088
0.59587
0.599936
0.601387
0.602034
0.602244
0.601648
0.600812
0.600422
0.600089
0.600063
0.600129
0.600254
0.600384
0.600358
0.600125
0.599679
0.599004
0.598292
0.597441
0.596659
0.595884
0.595179
0.594416
0.593272
0.592218
0.589978
0.587738
0.583796
0.578828
0.573891
0.56964
0.569292
0.548563
0.461785
0.426661
0.53155
0.560154
0.560867
0.563372
0.566996
0.569972
0.5723
0.571771
0.570372
0.568409
0.564781
0.562663
0.560421
0.559195
0.558098
0.557455
0.557014
0.556848
0.558005
0.557663
0.556033
0.555692
0.555464
0.555601
0.555461
0.556396
0.556274
0.558327
0.558109
0.559739
0.559022
0.558341
0.555681
0.551975
0.549123
0.547268
0.548487
0.524355
0.427396
0.370276
0.432643
0.471487
0.464002
0.46113
0.460576
0.46029
0.460184
0.459369
0.458474
0.457528
0.456455
0.455628
0.45487
0.454158
0.453779
0.453428
0.453845
0.45366
0.454246
0.454167
0.453334
0.453564
0.45269
0.453216
0.452742
0.453409
0.453313
0.453822
0.453653
0.453766
0.453597
0.453152
0.452292
0.451397
0.451077
0.453553
0.461467
0.427843
0.366875
0.370276
0.432643
0.471487
0.464002
0.46113
0.460576
0.46029
0.460184
0.459369
0.458474
0.457528
0.456455
0.455628
0.45487
0.454158
0.453779
0.453428
0.453845
0.45366
0.454246
0.454167
0.453334
0.453564
0.45269
0.453216
0.452742
0.453409
0.453313
0.453822
0.453653
0.453766
0.453597
0.453152
0.452292
0.451397
0.451077
0.453553
0.461467
0.427843
0.366875
0.426661
0.53155
0.560154
0.560867
0.563372
0.566996
0.569972
0.5723
0.571771
0.570372
0.568409
0.564781
0.562663
0.560421
0.559195
0.558098
0.557455
0.557014
0.556848
0.558005
0.557663
0.556033
0.555692
0.555464
0.555601
0.555461
0.556396
0.556274
0.558327
0.558109
0.559739
0.559022
0.558341
0.555681
0.551975
0.549123
0.547268
0.548487
0.524355
0.427396
0.455659
0.551971
0.576749
0.579411
0.584813
0.591088
0.59587
0.599936
0.601387
0.602034
0.602244
0.601648
0.600812
0.600422
0.600089
0.600063
0.600129
0.600254
0.600384
0.600358
0.600125
0.599679
0.599004
0.598292
0.597441
0.596659
0.595884
0.595179
0.594416
0.593272
0.592218
0.589978
0.587738
0.583796
0.578828
0.573891
0.56964
0.569292
0.548563
0.461785
0.449205
0.551012
0.576291
0.579203
0.58522
0.591826
0.596726
0.600841
0.602606
0.603433
0.6037
0.603273
0.602432
0.602072
0.601721
0.601671
0.601697
0.601772
0.601811
0.601666
0.601453
0.601119
0.600509
0.599812
0.598963
0.598171
0.597292
0.596585
0.59564
0.594474
0.593244
0.590912
0.58862
0.584625
0.5797
0.574547
0.569959
0.569781
0.547446
0.453887
0.447466
0.553362
0.580507
0.584242
0.589957
0.596214
0.600406
0.60337
0.605749
0.606057
0.605779
0.605307
0.604387
0.603816
0.60327
0.60299
0.602821
0.602739
0.602666
0.602457
0.602223
0.601894
0.601351
0.600755
0.600038
0.599369
0.598584
0.598
0.597182
0.596277
0.595215
0.593096
0.590947
0.587159
0.582696
0.577979
0.57397
0.573382
0.548742
0.451345
0.448472
0.556453
0.585213
0.589278
0.59461
0.600336
0.604064
0.606513
0.608201
0.60854
0.607975
0.607312
0.60619
0.605354
0.604602
0.604084
0.603702
0.603398
0.60314
0.602828
0.602585
0.602326
0.601912
0.601454
0.600891
0.600346
0.599687
0.599215
0.598502
0.597835
0.596934
0.595222
0.593539
0.590355
0.586636
0.582178
0.578675
0.577815
0.551086
0.451408
0.449559
0.560509
0.590454
0.59467
0.60006
0.604754
0.60798
0.609689
0.610722
0.610837
0.609999
0.609038
0.607749
0.606707
0.605769
0.605072
0.604546
0.60414
0.60382
0.603469
0.603179
0.602886
0.602471
0.602032
0.601525
0.601047
0.60049
0.600133
0.599585
0.599203
0.598563
0.597281
0.59587
0.593321
0.59027
0.586648
0.583769
0.583017
0.554921
0.452644
0.45063
0.563406
0.594442
0.598664
0.603867
0.607886
0.611005
0.612568
0.613122
0.612921
0.611872
0.610635
0.609167
0.607887
0.606748
0.605844
0.605129
0.604563
0.604122
0.603698
0.603375
0.603092
0.602736
0.60238
0.60198
0.601609
0.601182
0.600928
0.600512
0.60031
0.599792
0.598844
0.597731
0.595739
0.593344
0.590376
0.587935
0.587116
0.557995
0.453941
0.451776
0.565885
0.597653
0.601528
0.607179
0.611002
0.613652
0.614916
0.615026
0.614553
0.613337
0.611941
0.610377
0.608967
0.607716
0.606696
0.605885
0.605247
0.604755
0.604297
0.60394
0.603627
0.603258
0.602898
0.60251
0.602152
0.601765
0.601532
0.601175
0.60104
0.600572
0.599782
0.598765
0.597034
0.594909
0.592528
0.590398
0.589532
0.559628
0.454894
0.452743
0.568032
0.600952
0.605071
0.610823
0.614265
0.616464
0.617348
0.616996
0.616116
0.614641
0.613023
0.611335
0.609807
0.608464
0.607358
0.606475
0.605779
0.605245
0.604757
0.604365
0.60402
0.603632
0.603258
0.602869
0.602518
0.602162
0.601952
0.601654
0.601584
0.601199
0.600605
0.599758
0.59831
0.59655
0.594618
0.592724
0.591817
0.560648
0.455345
0.453785
0.569821
0.603958
0.608602
0.614071
0.61734
0.619025
0.619488
0.618752
0.617502
0.615833
0.614058
0.612276
0.610654
0.609236
0.608053
0.607099
0.606341
0.605755
0.60523
0.604806
0.604437
0.604039
0.603658
0.603272
0.602919
0.602574
0.602354
0.602065
0.601974
0.601576
0.601027
0.600207
0.598902
0.597375
0.595697
0.593909
0.592903
0.559513
0.455354
0.454978
0.572594
0.607819
0.61316
0.618315
0.62107
0.621935
0.621665
0.620406
0.618675
0.616734
0.614786
0.612919
0.611236
0.60977
0.608538
0.607534
0.606728
0.606098
0.605539
0.605086
0.604692
0.604277
0.603882
0.603485
0.603118
0.602763
0.602506
0.602194
0.602058
0.601644
0.60117
0.600426
0.599334
0.598072
0.596678
0.595128
0.59411
0.559673
0.455346
0.455548
0.574599
0.6117
0.617968
0.623126
0.625383
0.625357
0.624263
0.622349
0.620145
0.617871
0.615689
0.613671
0.611871
0.610312
0.608998
0.607923
0.607055
0.606372
0.605777
0.605295
0.604882
0.604462
0.60407
0.603686
0.603334
0.603009
0.602765
0.602478
0.602322
0.601916
0.601492
0.600791
0.599842
0.598764
0.597483
0.596069
0.594844
0.557387
0.454732
0.461616
0.577953
0.616546
0.623956
0.629116
0.630543
0.629289
0.627
0.624262
0.621521
0.618887
0.616469
0.614302
0.612397
0.61076
0.609379
0.608246
0.607326
0.606598
0.60597
0.605462
0.605031
0.604604
0.604211
0.603833
0.603491
0.603182
0.602936
0.602659
0.602467
0.602047
0.60163
0.600942
0.600107
0.599157
0.597997
0.596724
0.595461
0.557245
0.45462
0.457159
0.581103
0.621585
0.630341
0.636124
0.636681
0.634142
0.630364
0.626532
0.623115
0.62004
0.617328
0.614964
0.612926
0.611196
0.609744
0.608553
0.607586
0.606818
0.60616
0.605628
0.605181
0.604749
0.604358
0.603989
0.603663
0.603378
0.603152
0.602909
0.602712
0.602309
0.601914
0.601264
0.600556
0.599723
0.5987
0.597541
0.596134
0.556063
0.453787
0.45515
0.585177
0.627667
0.638168
0.64437
0.643784
0.639606
0.634103
0.628835
0.624632
0.621119
0.618126
0.615573
0.61341
0.611597
0.610085
0.608847
0.607841
0.607039
0.606357
0.605806
0.605344
0.604906
0.604513
0.60415
0.603834
0.603566
0.603354
0.603131
0.602924
0.602526
0.602134
0.601503
0.600907
0.60016
0.599262
0.598209
0.596782
0.556325
0.454084
0.453296
0.586694
0.633039
0.647446
0.653385
0.651806
0.645989
0.638314
0.631238
0.626111
0.622134
0.618878
0.616139
0.613855
0.611962
0.610398
0.609122
0.608085
0.607257
0.606555
0.605987
0.605513
0.605069
0.604674
0.604315
0.604006
0.603753
0.603553
0.603352
0.603143
0.602756
0.602365
0.601759
0.601281
0.600618
0.599886
0.598946
0.597496
0.5562
0.453865
0.45523
0.580681
0.639238
0.657929
0.663128
0.660307
0.652844
0.642537
0.633594
0.627378
0.622993
0.619518
0.616627
0.614237
0.612276
0.610669
0.609363
0.608302
0.607455
0.606737
0.606156
0.605672
0.605223
0.604826
0.604468
0.604165
0.603921
0.603731
0.603544
0.603333
0.60295
0.602551
0.601953
0.601568
0.600952
0.600375
0.599527
0.598077
0.556253
0.454113
0.479463
0.566401
0.643115
0.670507
0.674332
0.668849
0.65918
0.646416
0.635676
0.62837
0.623635
0.62001
0.617016
0.614542
0.612526
0.610886
0.609558
0.60848
0.607619
0.606889
0.606299
0.605808
0.605354
0.604956
0.604598
0.604298
0.604061
0.603878
0.603701
0.603487
0.603109
0.6027
0.602104
0.601795
0.601204
0.600789
0.600013
0.598579
0.555489
0.453518
0.5893
0.57251
0.646089
0.688838
0.686389
0.676511
0.664038
0.648833
0.637478
0.628889
0.624032
0.62033
0.61728
0.614751
0.612695
0.611032
0.60969
0.608602
0.607732
0.606995
0.606399
0.605903
0.605446
0.605046
0.604689
0.604391
0.604157
0.603978
0.603806
0.603591
0.603212
0.602794
0.6022
0.601937
0.601358
0.601071
0.600343
0.598924
0.555553
0.459581
)
;

boundaryField
{
    inlet
    {
        type            fixedValue;
        value           uniform 1;
    }
    outlet
    {
        type            zeroGradient;
    }
    obstacle
    {
        type            zeroGradient;
    }
    empty
    {
        type            empty;
    }
}


// ************************************************************************* //
