/*--------------------------------*- C++ -*----------------------------------*\
| =========                 |                                                 |
| \\      /  F ield         | OpenFOAM: The Open Source CFD Toolbox           |
|  \\    /   O peration     | Version:  v1912                                 |
|   \\  /    A nd           | Website:  www.openfoam.com                      |
|    \\/     M anipulation  |                                                 |
\*---------------------------------------------------------------------------*/
FoamFile
{
    version     2.0;
    format      ascii;
    class       volVectorField;
    location    "2.14";
    object      U;
}
// * * * * * * * * * * * * * * * * * * * * * * * * * * * * * * * * * * * * * //

dimensions      [0 1 -1 0 0 0 0];


internalField   nonuniform List<vector> 
1900
(
(-0.178973 -4.49116e-06 0)
(-0.050296 -4.80453e-06 0)
(-0.0507608 -3.74683e-06 0)
(-0.0510146 6.34362e-06 0)
(-0.0522406 3.97278e-05 0)
(-0.0544322 0.000172795 0)
(-0.0576432 0.000345759 0)
(-0.061264 -0.000331688 0)
(-0.0645494 -0.00270357 0)
(-0.0595504 -0.0108984 0)
(-0.178983 -8.08339e-06 0)
(-0.0502965 -5.45034e-06 0)
(-0.0507631 1.24825e-06 0)
(-0.0510022 2.16277e-05 0)
(-0.0521881 7.04296e-05 0)
(-0.0542473 0.000203385 0)
(-0.0570733 0.000359454 0)
(-0.0602853 7.21393e-05 0)
(-0.0647646 -0.00160403 0)
(-0.0699126 -0.0092576 0)
(-0.178988 -3.0482e-14 0)
(-0.0502955 -2.53152e-14 0)
(-0.050763 -3.17922e-14 0)
(-0.0509898 2.85544e-14 0)
(-0.0521512 -2.66936e-14 0)
(-0.0541493 -2.79857e-14 0)
(-0.0568616 -3.75834e-14 0)
(-0.0601452 -1.74845e-14 0)
(-0.0651772 -4.48034e-14 0)
(-0.0744613 -1.95309e-14 0)
(-0.178983 8.08339e-06 0)
(-0.0502965 5.45034e-06 0)
(-0.0507631 -1.24825e-06 0)
(-0.0510022 -2.16277e-05 0)
(-0.0521881 -7.04296e-05 0)
(-0.0542473 -0.000203385 0)
(-0.0570733 -0.000359454 0)
(-0.0602853 -7.21393e-05 0)
(-0.0647646 0.00160403 0)
(-0.0699126 0.0092576 0)
(-0.178973 4.49116e-06 0)
(-0.050296 4.80453e-06 0)
(-0.0507608 3.74683e-06 0)
(-0.0510146 -6.34362e-06 0)
(-0.0522406 -3.97278e-05 0)
(-0.0544322 -0.000172795 0)
(-0.0576432 -0.000345759 0)
(-0.061264 0.000331688 0)
(-0.0645494 0.00270357 0)
(-0.0595504 0.0108984 0)
(-0.0637229 -0.0306153 0)
(-0.0856023 -0.0410594 0)
(-0.105832 -0.0591572 0)
(-0.141562 -0.0787172 0)
(-0.260441 -0.0670211 0)
(-0.0839273 -0.0215907 0)
(-0.105905 -0.0277833 0)
(-0.135621 -0.042037 0)
(-0.194178 -0.057574 0)
(-0.306083 -0.0550983 0)
(-0.0903931 -3.73775e-14 0)
(-0.111557 -3.48156e-14 0)
(-0.146031 8.11449e-15 0)
(-0.210832 -1.20615e-14 0)
(-0.317789 4.1234e-15 0)
(-0.0839273 0.0215907 0)
(-0.105905 0.0277833 0)
(-0.135621 0.042037 0)
(-0.194178 0.057574 0)
(-0.306083 0.0550983 0)
(-0.0637229 0.0306153 0)
(-0.0856023 0.0410594 0)
(-0.105832 0.0591572 0)
(-0.141562 0.0787172 0)
(-0.260441 0.0670211 0)
(-0.312396 0.0148216 0)
(-0.263199 0.0228485 0)
(-0.242441 0.0236551 0)
(-0.236576 0.0441428 0)
(-0.318458 0.103638 0)
(-0.325474 0.0135446 0)
(-0.272247 0.0144123 0)
(-0.235226 0.015605 0)
(-0.195921 0.0362039 0)
(-0.156982 0.109108 0)
(-0.333175 9.00001e-15 0)
(-0.275552 3.84705e-14 0)
(-0.229247 5.40213e-14 0)
(-0.167665 1.08501e-13 0)
(-0.0596617 7.52981e-14 0)
(-0.325474 -0.0135446 0)
(-0.272247 -0.0144123 0)
(-0.235226 -0.015605 0)
(-0.195921 -0.0362039 0)
(-0.156982 -0.109108 0)
(-0.312396 -0.0148216 0)
(-0.263199 -0.0228485 0)
(-0.242441 -0.0236551 0)
(-0.236576 -0.0441428 0)
(-0.318458 -0.103638 0)
(-0.54897 0.113339 0)
(-0.118889 -0.13094 0)
(-0.180063 -0.167478 0)
(-0.292553 -0.0858489 0)
(-0.342675 -0.0282441 0)
(-0.359353 -0.0125381 0)
(-0.356663 -0.00704688 0)
(-0.340948 -0.00371782 0)
(-0.318028 -0.00197722 0)
(-0.287492 -0.00132397 0)
(-0.25231 -0.000781502 0)
(-0.213902 -0.000432104 0)
(-0.174004 -0.000194335 0)
(-0.133914 -4.51325e-05 0)
(-0.0949047 6.27014e-05 0)
(-0.0587726 0.000144994 0)
(-0.0286796 0.00019792 0)
(-0.00908097 0.000223023 0)
(-0.00136489 0.000229207 0)
(-4.9088e-05 0.00022864 0)
(6.40682e-05 0.000228528 0)
(0.00156255 0.000228422 0)
(0.00995897 0.000227547 0)
(0.0307185 0.000224894 0)
(0.0622243 0.000219613 0)
(0.100003 0.000211326 0)
(0.14105 0.000200025 0)
(0.183879 0.000185922 0)
(0.22773 0.000169389 0)
(0.272118 0.00015095 0)
(0.316643 0.00013128 0)
(0.360865 0.000111159 0)
(0.404144 9.14335e-05 0)
(0.445487 7.28129e-05 0)
(0.483844 5.62778e-05 0)
(0.518861 4.19131e-05 0)
(0.552025 3.22974e-05 0)
(0.581594 2.05412e-05 0)
(0.659579 1.20352e-05 0)
(1.24653 9.1717e-07 0)
(0.00710355 0.122799 0)
(0.173861 -0.0949613 0)
(-0.0390706 -0.118648 0)
(-0.259545 -0.0503263 0)
(-0.338316 -0.0145164 0)
(-0.357792 -0.00631168 0)
(-0.356544 -0.00347307 0)
(-0.340967 -0.0017612 0)
(-0.317862 -0.000928007 0)
(-0.287338 -0.000621604 0)
(-0.252207 -0.000351667 0)
(-0.213821 -0.000193502 0)
(-0.173934 -9.74558e-05 0)
(-0.133864 -1.84054e-05 0)
(-0.0948923 4.44341e-05 0)
(-0.0587785 8.52715e-05 0)
(-0.0286909 0.000110851 0)
(-0.00909014 0.000124325 0)
(-0.00136866 0.00012686 0)
(-4.94389e-05 0.000125377 0)
(6.39711e-05 0.000125212 0)
(0.0015625 0.000125119 0)
(0.00995867 0.000124577 0)
(0.0307177 0.000122996 0)
(0.0622227 0.000119879 0)
(0.1 0.000115023 0)
(0.141046 0.000108439 0)
(0.183875 0.000100274 0)
(0.227726 9.07776e-05 0)
(0.272113 8.02871e-05 0)
(0.316638 6.92158e-05 0)
(0.36086 5.80248e-05 0)
(0.40414 4.71939e-05 0)
(0.445483 3.71124e-05 0)
(0.483841 2.82809e-05 0)
(0.518859 2.07439e-05 0)
(0.552023 1.56738e-05 0)
(0.581591 9.92738e-06 0)
(0.659577 5.80627e-06 0)
(1.24653 3.98984e-07 0)
(0.186116 3.42881e-14 0)
(0.274426 -1.65473e-14 0)
(0.0248946 -1.53364e-14 0)
(-0.243206 4.52144e-15 0)
(-0.337216 3.52643e-14 0)
(-0.35737 4.44209e-14 0)
(-0.356628 2.80804e-14 0)
(-0.340912 4.87859e-15 0)
(-0.317772 4.56058e-14 0)
(-0.287277 9.27246e-14 0)
(-0.252174 6.23471e-16 0)
(-0.213805 1.44984e-14 0)
(-0.173931 -1.71033e-13 0)
(-0.133863 -7.20886e-13 0)
(-0.0948876 -3.11393e-13 0)
(-0.0587787 4.52478e-12 0)
(-0.0286952 3.39798e-11 0)
(-0.00909469 -1.19704e-11 0)
(-0.00137072 3.04485e-10 0)
(-4.96555e-05 1.30223e-11 0)
(6.3922e-05 1.08897e-10 0)
(0.00156247 -2.08793e-10 0)
(0.00995841 -2.912e-10 0)
(0.0307168 6.77319e-10 0)
(0.062221 3.65726e-10 0)
(0.0999976 4.59693e-10 0)
(0.141043 2.79009e-10 0)
(0.183871 1.65077e-10 0)
(0.227721 1.14803e-11 0)
(0.272108 -1.53896e-10 0)
(0.316633 -2.01058e-10 0)
(0.360855 -3.53259e-10 0)
(0.404135 -3.37119e-10 0)
(0.445479 -3.44626e-10 0)
(0.483837 -2.63608e-10 0)
(0.518856 -2.05474e-10 0)
(0.552021 2.65251e-11 0)
(0.58159 4.76248e-11 0)
(0.659576 4.31415e-11 0)
(1.24653 8.20275e-12 0)
(0.00710355 -0.122799 0)
(0.173861 0.0949613 0)
(-0.0390706 0.118648 0)
(-0.259545 0.0503263 0)
(-0.338316 0.0145164 0)
(-0.357792 0.00631168 0)
(-0.356544 0.00347307 0)
(-0.340967 0.0017612 0)
(-0.317862 0.000928007 0)
(-0.287338 0.000621604 0)
(-0.252207 0.000351667 0)
(-0.213821 0.000193502 0)
(-0.173934 9.74558e-05 0)
(-0.133864 1.84054e-05 0)
(-0.0948923 -4.44341e-05 0)
(-0.0587785 -8.52715e-05 0)
(-0.0286909 -0.000110851 0)
(-0.00909014 -0.000124325 0)
(-0.00136866 -0.000126859 0)
(-4.94389e-05 -0.000125377 0)
(6.39711e-05 -0.000125212 0)
(0.0015625 -0.000125119 0)
(0.00995867 -0.000124577 0)
(0.0307177 -0.000122994 0)
(0.0622227 -0.000119879 0)
(0.1 -0.000115023 0)
(0.141046 -0.000108438 0)
(0.183875 -0.000100274 0)
(0.227726 -9.07776e-05 0)
(0.272113 -8.02874e-05 0)
(0.316638 -6.92163e-05 0)
(0.36086 -5.80257e-05 0)
(0.40414 -4.71947e-05 0)
(0.445483 -3.71132e-05 0)
(0.483841 -2.82815e-05 0)
(0.518859 -2.07444e-05 0)
(0.552023 -1.56737e-05 0)
(0.581591 -9.92724e-06 0)
(0.659577 -5.80615e-06 0)
(1.24653 -3.98958e-07 0)
(-0.54897 -0.113339 0)
(-0.118889 0.13094 0)
(-0.180063 0.167478 0)
(-0.292553 0.0858489 0)
(-0.342675 0.0282441 0)
(-0.359353 0.0125381 0)
(-0.356663 0.00704688 0)
(-0.340948 0.00371782 0)
(-0.318028 0.00197722 0)
(-0.287492 0.00132397 0)
(-0.25231 0.000781502 0)
(-0.213902 0.000432104 0)
(-0.174004 0.000194335 0)
(-0.133914 4.51325e-05 0)
(-0.0949047 -6.27014e-05 0)
(-0.0587726 -0.000144994 0)
(-0.0286796 -0.00019792 0)
(-0.00908097 -0.000223023 0)
(-0.00136489 -0.000229206 0)
(-4.9088e-05 -0.00022864 0)
(6.40682e-05 -0.000228528 0)
(0.00156255 -0.000228422 0)
(0.00995897 -0.000227548 0)
(0.0307185 -0.000224894 0)
(0.0622243 -0.000219613 0)
(0.100003 -0.000211325 0)
(0.14105 -0.000200025 0)
(0.183879 -0.000185922 0)
(0.22773 -0.000169389 0)
(0.272118 -0.000150951 0)
(0.316643 -0.00013128 0)
(0.360865 -0.000111159 0)
(0.404144 -9.14341e-05 0)
(0.445487 -7.28137e-05 0)
(0.483844 -5.62784e-05 0)
(0.518861 -4.19136e-05 0)
(0.552025 -3.22973e-05 0)
(0.581594 -2.0541e-05 0)
(0.659579 -1.20351e-05 0)
(1.24653 -9.17137e-07 0)
(-1.12828 -0.171037 0)
(-0.440286 0.145116 0)
(-0.350868 0.202492 0)
(-0.34526 0.120437 0)
(-0.358441 0.0502201 0)
(-0.365688 0.0250095 0)
(-0.359538 0.0147965 0)
(-0.342183 0.00891005 0)
(-0.318929 0.00547397 0)
(-0.288142 0.00392725 0)
(-0.252679 0.00288923 0)
(-0.214099 0.00226942 0)
(-0.174109 0.00187083 0)
(-0.133984 0.00159211 0)
(-0.0949855 0.00138055 0)
(-0.0588901 0.0011948 0)
(-0.0288274 0.00101643 0)
(-0.00920523 0.000870936 0)
(-0.00141198 0.000779252 0)
(-5.25794e-05 0.000753248 0)
(6.257e-05 0.000751515 0)
(0.00156215 0.000750785 0)
(0.00995615 0.000747066 0)
(0.0307103 0.000735541 0)
(0.0622092 0.0007121 0)
(0.0999808 0.00067542 0)
(0.141022 0.000626541 0)
(0.183848 0.00056788 0)
(0.227696 0.000502535 0)
(0.272083 0.000433844 0)
(0.316609 0.000365071 0)
(0.360834 0.000299134 0)
(0.404116 0.000238454 0)
(0.445463 0.000184515 0)
(0.483825 0.00013911 0)
(0.518847 0.000101533 0)
(0.552014 7.7251e-05 0)
(0.581581 4.8864e-05 0)
(0.659571 2.85771e-05 0)
(1.24653 2.00416e-06 0)
(-1.25045 -0.12733 0)
(-0.608351 0.155539 0)
(-0.480614 0.197707 0)
(-0.410699 0.127009 0)
(-0.390684 0.0691853 0)
(-0.379564 0.0409723 0)
(-0.367748 0.0260263 0)
(-0.347358 0.0175098 0)
(-0.322045 0.0122937 0)
(-0.290137 0.00955252 0)
(-0.253902 0.00794922 0)
(-0.214915 0.00701891 0)
(-0.174701 0.00646384 0)
(-0.134462 0.0060963 0)
(-0.0953936 0.0058188 0)
(-0.059222 0.00558208 0)
(-0.029053 0.00536501 0)
(-0.00929927 0.00519361 0)
(-0.00142757 0.00512098 0)
(-5.31691e-05 0.00510973 0)
(6.22838e-05 0.00510912 0)
(0.00155883 0.00510617 0)
(0.00993969 0.00508782 0)
(0.0306682 0.00503202 0)
(0.062135 0.00492167 0)
(0.0998737 0.0047508 0)
(0.140885 0.00452207 0)
(0.183686 0.00424262 0)
(0.227516 0.00392177 0)
(0.271892 0.00357013 0)
(0.316414 0.003199 0)
(0.36064 0.00281968 0)
(0.40393 0.00244352 0)
(0.44529 0.00207848 0)
(0.483669 0.00174202 0)
(0.518718 0.00142785 0)
(0.551902 0.00122377 0)
(0.581433 0.000873644 0)
(0.659461 0.000578882 0)
(1.24651 8.17813e-05 0)
(-1.26019 -0.06165 0)
(-0.647062 0.124785 0)
(-0.525389 0.1683 0)
(-0.451648 0.113548 0)
(-0.418853 0.0761347 0)
(-0.396819 0.0547014 0)
(-0.378416 0.0402879 0)
(-0.354548 0.0311623 0)
(-0.325672 0.0262732 0)
(-0.292216 0.0231841 0)
(-0.254949 0.0216894 0)
(-0.215449 0.0209895 0)
(-0.174969 0.0207276 0)
(-0.134617 0.0206501 0)
(-0.0955232 0.0206125 0)
(-0.0593582 0.0205422 0)
(-0.0291769 0.0204364 0)
(-0.00937927 0.020342 0)
(-0.00145219 0.0202954 0)
(-5.47905e-05 0.0202862 0)
(6.07354e-05 0.0202852 0)
(0.00154578 0.0202753 0)
(0.00987822 0.0202181 0)
(0.0305203 0.0200545 0)
(0.0618848 0.0197465 0)
(0.0995205 0.019283 0)
(0.140435 0.0186701 0)
(0.183148 0.01792 0)
(0.226903 0.017048 0)
(0.271218 0.016071 0)
(0.315694 0.0150076 0)
(0.35989 0.0138774 0)
(0.403166 0.0127031 0)
(0.444532 0.0114987 0)
(0.482942 0.0103264 0)
(0.518062 0.00914181 0)
(0.551281 0.00839523 0)
(0.5805 0.00663214 0)
(0.658643 0.00485688 0)
(1.24636 0.00130087 0)
(-1.26266 -0.0271872 0)
(-0.655166 0.110811 0)
(-0.542677 0.15117 0)
(-0.477842 0.111848 0)
(-0.440881 0.0895859 0)
(-0.413545 0.073074 0)
(-0.387726 0.0624869 0)
(-0.360751 0.0542976 0)
(-0.329247 0.049874 0)
(-0.293927 0.0474101 0)
(-0.255648 0.0463516 0)
(-0.215603 0.0460954 0)
(-0.174891 0.0462212 0)
(-0.134472 0.0464791 0)
(-0.0953861 0.0467298 0)
(-0.0592655 0.0469174 0)
(-0.0291435 0.0470364 0)
(-0.00937965 0.0470976 0)
(-0.0014548 0.0471195 0)
(-5.50839e-05 0.047124 0)
(5.84499e-05 0.0471232 0)
(0.00151504 0.0471032 0)
(0.00974099 0.0469922 0)
(0.0302089 0.0466922 0)
(0.0613841 0.0461557 0)
(0.0988371 0.0453787 0)
(0.139579 0.044375 0)
(0.182132 0.0431623 0)
(0.225742 0.0417581 0)
(0.269927 0.0401796 0)
(0.314291 0.0384451 0)
(0.358394 0.0365731 0)
(0.401601 0.0345891 0)
(0.442931 0.0325015 0)
(0.481362 0.0304279 0)
(0.516533 0.0282253 0)
(0.549785 0.0269566 0)
(0.578069 0.0229116 0)
(0.656282 0.0180411 0)
(1.2456 0.00813962 0)
(-1.2525 0.0113623 0)
(-0.653028 0.109815 0)
(-0.548445 0.147713 0)
(-0.491817 0.122483 0)
(-0.453516 0.113616 0)
(-0.424586 0.100339 0)
(-0.395703 0.0919595 0)
(-0.365709 0.0851173 0)
(-0.331999 0.0815177 0)
(-0.295136 0.079665 0)
(-0.255915 0.0790318 0)
(-0.215387 0.0791074 0)
(-0.174471 0.0795154 0)
(-0.13401 0.080031 0)
(-0.094976 0.080537 0)
(-0.0589548 0.080983 0)
(-0.0289445 0.0813371 0)
(-0.00928547 0.081566 0)
(-0.00143168 0.081662 0)
(-5.38663e-05 0.0816816 0)
(5.51362e-05 0.081681 0)
(0.00146272 0.0816497 0)
(0.0095145 0.0814809 0)
(0.0297167 0.081041 0)
(0.0606266 0.0802873 0)
(0.0978396 0.0792346 0)
(0.138361 0.0779104 0)
(0.180709 0.0763399 0)
(0.224127 0.0745436 0)
(0.268136 0.0725392 0)
(0.31234 0.0703436 0)
(0.356301 0.0679722 0)
(0.399394 0.0654546 0)
(0.440658 0.0627862 0)
(0.479112 0.060155 0)
(0.51419 0.0572111 0)
(0.547465 0.0557865 0)
(0.574472 0.0498356 0)
(0.65266 0.0412744 0)
(1.24348 0.0266413 0)
(-1.25233 0.0518085 0)
(-0.647437 0.126521 0)
(-0.548228 0.161496 0)
(-0.500691 0.144611 0)
(-0.464013 0.14327 0)
(-0.433479 0.131621 0)
(-0.402318 0.125567 0)
(-0.369759 0.120228 0)
(-0.334127 0.117417 0)
(-0.295893 0.116135 0)
(-0.255843 0.115879 0)
(-0.214882 0.116227 0)
(-0.173797 0.116869 0)
(-0.13332 0.117626 0)
(-0.0943452 0.118399 0)
(-0.0584195 0.119121 0)
(-0.0285471 0.119725 0)
(-0.00907707 0.120129 0)
(-0.00137855 0.120301 0)
(-5.09825e-05 0.120336 0)
(5.09504e-05 0.120336 0)
(0.00138881 0.120294 0)
(0.00919819 0.120069 0)
(0.0290468 0.119495 0)
(0.0596276 0.118539 0)
(0.0965628 0.117243 0)
(0.136839 0.115651 0)
(0.178962 0.113798 0)
(0.22217 0.111708 0)
(0.265984 0.1094 0)
(0.310006 0.106891 0)
(0.353805 0.104197 0)
(0.396774 0.101352 0)
(0.437973 0.0983363 0)
(0.476468 0.095442 0)
(0.511239 0.0919291 0)
(0.544484 0.0906656 0)
(0.570655 0.0838308 0)
(0.648924 0.0719584 0)
(1.23931 0.0576028 0)
(-1.24649 0.11134 0)
(-0.643401 0.155393 0)
(-0.547664 0.185704 0)
(-0.505987 0.17366 0)
(-0.471718 0.17537 0)
(-0.440008 0.165329 0)
(-0.407537 0.161302 0)
(-0.372947 0.157304 0)
(-0.33565 0.155314 0)
(-0.29624 0.154604 0)
(-0.255485 0.15474 0)
(-0.214167 0.15539 0)
(-0.172932 0.156309 0)
(-0.132416 0.157352 0)
(-0.0934643 0.158426 0)
(-0.0576205 0.159445 0)
(-0.0279312 0.160305 0)
(-0.00875262 0.160882 0)
(-0.00129748 0.161125 0)
(-4.67592e-05 0.161172 0)
(4.61544e-05 0.161172 0)
(0.00129588 0.161122 0)
(0.0087989 0.160848 0)
(0.0282111 0.160148 0)
(0.0584074 0.159003 0)
(0.0950373 0.157483 0)
(0.135057 0.155654 0)
(0.17695 0.153559 0)
(0.219948 0.151226 0)
(0.263562 0.148676 0)
(0.307403 0.145932 0)
(0.351029 0.142992 0)
(0.393901 0.139938 0)
(0.435032 0.136657 0)
(0.473605 0.13367 0)
(0.507851 0.129581 0)
(0.541039 0.128702 0)
(0.567311 0.121985 0)
(0.645891 0.107497 0)
(1.23284 0.0975277 0)
(-1.23605 0.161867 0)
(-0.639826 0.18643 0)
(-0.547652 0.214575 0)
(-0.509401 0.206381 0)
(-0.477029 0.208942 0)
(-0.444872 0.200389 0)
(-0.411561 0.198104 0)
(-0.375215 0.195227 0)
(-0.336579 0.194171 0)
(-0.29618 0.194053 0)
(-0.254863 0.194663 0)
(-0.21322 0.195677 0)
(-0.171821 0.196937 0)
(-0.13123 0.198313 0)
(-0.0922768 0.199717 0)
(-0.0565318 0.201045 0)
(-0.0270978 0.202161 0)
(-0.00832341 0.202898 0)
(-0.00119412 0.2032 0)
(-4.14303e-05 0.203256 0)
(4.07491e-05 0.203256 0)
(0.0011878 0.203199 0)
(0.00832666 0.202883 0)
(0.0272238 0.20207 0)
(0.0569837 0.200749 0)
(0.093286 0.199021 0)
(0.133042 0.196972 0)
(0.174709 0.19466 0)
(0.217498 0.192113 0)
(0.260927 0.189363 0)
(0.304572 0.186402 0)
(0.348073 0.183303 0)
(0.390816 0.180033 0)
(0.431909 0.176552 0)
(0.470615 0.173562 0)
(0.504184 0.168862 0)
(0.537246 0.168421 0)
(0.564603 0.162587 0)
(0.643645 0.146051 0)
(1.22336 0.140935 0)
(-1.22337 0.217634 0)
(-0.637518 0.222241 0)
(-0.547458 0.247342 0)
(-0.51124 0.240648 0)
(-0.480526 0.243204 0)
(-0.448321 0.236311 0)
(-0.414301 0.235301 0)
(-0.37664 0.233735 0)
(-0.33677 0.233444 0)
(-0.295697 0.234099 0)
(-0.253853 0.235173 0)
(-0.211939 0.236637 0)
(-0.170362 0.238282 0)
(-0.129693 0.240032 0)
(-0.0907547 0.241785 0)
(-0.0551562 0.243423 0)
(-0.0260663 0.244776 0)
(-0.00780844 0.245651 0)
(-0.00107561 0.245997 0)
(-3.55486e-05 0.246058 0)
(3.50305e-05 0.246058 0)
(0.00106904 0.245998 0)
(0.00779318 0.245649 0)
(0.0260998 0.244737 0)
(0.0553727 0.243254 0)
(0.0913272 0.241331 0)
(0.130817 0.239079 0)
(0.172257 0.236563 0)
(0.214855 0.23383 0)
(0.25808 0.230872 0)
(0.301619 0.227802 0)
(0.344848 0.224402 0)
(0.387716 0.221217 0)
(0.428531 0.217273 0)
(0.467457 0.214413 0)
(0.500495 0.209287 0)
(0.533371 0.209099 0)
(0.562237 0.204373 0)
(0.64194 0.186661 0)
(1.21236 0.190113 0)
(-1.20681 0.264513 0)
(-0.635079 0.258783 0)
(-0.54696 0.282571 0)
(-0.512467 0.275933 0)
(-0.482937 0.277769 0)
(-0.450449 0.272489 0)
(-0.416041 0.273176 0)
(-0.376739 0.272105 0)
(-0.336466 0.273308 0)
(-0.294472 0.27428 0)
(-0.252412 0.276081 0)
(-0.210197 0.277961 0)
(-0.168502 0.280054 0)
(-0.127783 0.28219 0)
(-0.0889061 0.284291 0)
(-0.0535182 0.286218 0)
(-0.0248667 0.287779 0)
(-0.00722988 0.288764 0)
(-0.000949145 0.289138 0)
(-2.9604e-05 0.2892 0)
(2.92984e-05 0.2892 0)
(0.000944331 0.28914 0)
(0.00721145 0.288768 0)
(0.0248551 0.287772 0)
(0.0535897 0.286143 0)
(0.0891765 0.284039 0)
(0.128395 0.281595 0)
(0.16962 0.278895 0)
(0.212006 0.27596 0)
(0.255129 0.272901 0)
(0.298335 0.269495 0)
(0.341799 0.266342 0)
(0.384056 0.262444 0)
(0.425362 0.259009 0)
(0.463872 0.255463 0)
(0.496923 0.250479 0)
(0.529916 0.250434 0)
(0.56011 0.246711 0)
(0.64003 0.227582 0)
(1.19688 0.233729 0)
(-1.18931 0.318707 0)
(-0.633368 0.296837 0)
(-0.547132 0.318435 0)
(-0.514011 0.311888 0)
(-0.484281 0.31188 0)
(-0.451686 0.309608 0)
(-0.415792 0.310218 0)
(-0.376704 0.311835 0)
(-0.33473 0.312568 0)
(-0.293048 0.315038 0)
(-0.25031 0.316991 0)
(-0.208068 0.319499 0)
(-0.166235 0.321969 0)
(-0.125531 0.324488 0)
(-0.0867629 0.326902 0)
(-0.0516538 0.329081 0)
(-0.0235325 0.330814 0)
(-0.00660963 0.33188 0)
(-0.000821046 0.332269 0)
(-2.39603e-05 0.332329 0)
(2.38206e-05 0.33233 0)
(0.000818314 0.33227 0)
(0.00659539 0.331885 0)
(0.0235071 0.330822 0)
(0.0516507 0.329064 0)
(0.0868485 0.326794 0)
(0.125797 0.324175 0)
(0.166793 0.321288 0)
(0.209051 0.318239 0)
(0.251853 0.314872 0)
(0.295372 0.31177 0)
(0.337848 0.307607 0)
(0.381379 0.305057 0)
(0.421147 0.299867 0)
(0.460718 0.297407 0)
(0.493166 0.291668 0)
(0.527238 0.292312 0)
(0.558363 0.289277 0)
(0.63853 0.270238 0)
(1.18163 0.289359 0)
(-1.16782 0.355203 0)
(-0.631698 0.331044 0)
(-0.548235 0.352491 0)
(-0.515409 0.346906 0)
(-0.484531 0.346132 0)
(-0.45098 0.345638 0)
(-0.415638 0.349365 0)
(-0.373874 0.349338 0)
(-0.333687 0.353359 0)
(-0.29021 0.354896 0)
(-0.248037 0.358101 0)
(-0.205393 0.360768 0)
(-0.163634 0.363694 0)
(-0.122963 0.366503 0)
(-0.084367 0.369182 0)
(-0.0496016 0.371565 0)
(-0.0220966 0.373432 0)
(-0.00596734 0.374552 0)
(-0.000696393 0.374943 0)
(-1.88535e-05 0.375 0)
(1.881e-05 0.375 0)
(0.000695242 0.374944 0)
(0.00595909 0.374556 0)
(0.0220738 0.373443 0)
(0.0495716 0.371576 0)
(0.0843593 0.369161 0)
(0.123027 0.366383 0)
(0.163837 0.363372 0)
(0.205816 0.360096 0)
(0.24878 0.356889 0)
(0.291353 0.35291 0)
(0.335377 0.350254 0)
(0.376283 0.345034 0)
(0.418522 0.342552 0)
(0.456237 0.337753 0)
(0.489394 0.332475 0)
(0.524606 0.333306 0)
(0.55635 0.330685 0)
(0.635757 0.310326 0)
(1.16093 0.329013 0)
(-1.14405 0.409172 0)
(-0.631419 0.36914 0)
(-0.550348 0.387341 0)
(-0.517985 0.384263 0)
(-0.483463 0.3812 0)
(-0.451322 0.384697 0)
(-0.411883 0.385267 0)
(-0.373738 0.390549 0)
(-0.32983 0.391496 0)
(-0.288388 0.39573 0)
(-0.244972 0.398281 0)
(-0.202662 0.401579 0)
(-0.160749 0.404594 0)
(-0.120192 0.407621 0)
(-0.0817857 0.410463 0)
(-0.0474119 0.412987 0)
(-0.0205939 0.414948 0)
(-0.00532135 0.416098 0)
(-0.000579186 0.416482 0)
(-1.44197e-05 0.416533 0)
(1.44175e-05 0.416533 0)
(0.000578928 0.416482 0)
(0.00531794 0.4161 0)
(0.0205795 0.414957 0)
(0.0473811 0.413006 0)
(0.081745 0.410482 0)
(0.120161 0.407611 0)
(0.16076 0.4045 0)
(0.20276 0.401315 0)
(0.245199 0.397724 0)
(0.288849 0.394747 0)
(0.330443 0.389835 0)
(0.374982 0.388168 0)
(0.412961 0.381383 0)
(0.454114 0.380025 0)
(0.485845 0.373251 0)
(0.523468 0.375373 0)
(0.555848 0.373385 0)
(0.634932 0.354682 0)
(1.14017 0.389824 0)
(-1.11897 0.433561 0)
(-0.628754 0.397308 0)
(-0.549973 0.416745 0)
(-0.517376 0.416399 0)
(-0.480091 0.413599 0)
(-0.447194 0.418614 0)
(-0.409521 0.422884 0)
(-0.368186 0.425533 0)
(-0.32758 0.430474 0)
(-0.283988 0.433229 0)
(-0.241691 0.437065 0)
(-0.19912 0.440343 0)
(-0.157548 0.443708 0)
(-0.117156 0.446851 0)
(-0.0790201 0.449794 0)
(-0.0450947 0.452393 0)
(-0.0190364 0.4544 0)
(-0.00468067 0.455552 0)
(-0.000471398 0.455918 0)
(-1.06882e-05 0.455963 0)
(1.06968e-05 0.455963 0)
(0.0004715 0.455918 0)
(0.00468009 0.455553 0)
(0.0190298 0.454405 0)
(0.0450736 0.452408 0)
(0.0789796 0.449822 0)
(0.117098 0.446886 0)
(0.157482 0.44373 0)
(0.19906 0.440313 0)
(0.241663 0.436925 0)
(0.284005 0.432895 0)
(0.327706 0.429837 0)
(0.368408 0.424509 0)
(0.409819 0.421136 0)
(0.44807 0.416379 0)
(0.480714 0.409753 0)
(0.519563 0.411571 0)
(0.552007 0.409223 0)
(0.63002 0.389085 0)
(1.11593 0.420896 0)
(-1.0895 0.492842 0)
(-0.629092 0.438931 0)
(-0.55211 0.454934 0)
(-0.519757 0.455299 0)
(-0.478905 0.451092 0)
(-0.446851 0.457104 0)
(-0.405662 0.458386 0)
(-0.367023 0.463614 0)
(-0.323923 0.466272 0)
(-0.281811 0.470342 0)
(-0.238879 0.473754 0)
(-0.196533 0.47726 0)
(-0.154733 0.480457 0)
(-0.11435 0.483557 0)
(-0.0763549 0.48646 0)
(-0.0428206 0.489027 0)
(-0.0175182 0.49101 0)
(-0.00407873 0.492131 0)
(-0.000377256 0.492471 0)
(-7.71051e-06 0.492509 0)
(7.7178e-06 0.492509 0)
(0.000377419 0.492471 0)
(0.00407928 0.492131 0)
(0.0175167 0.491012 0)
(0.0428101 0.489036 0)
(0.0763274 0.486482 0)
(0.114299 0.483599 0)
(0.154657 0.480518 0)
(0.196432 0.477331 0)
(0.238761 0.473818 0)
(0.28168 0.470362 0)
(0.323795 0.466212 0)
(0.366928 0.463398 0)
(0.405567 0.457923 0)
(0.446997 0.456381 0)
(0.479034 0.449699 0)
(0.520657 0.453291 0)
(0.553206 0.451733 0)
(0.630264 0.434763 0)
(1.0885 0.485658 0)
(-1.06403 0.507114 0)
(-0.623139 0.463696 0)
(-0.547514 0.482688 0)
(-0.515461 0.484043 0)
(-0.47239 0.480227 0)
(-0.440666 0.486899 0)
(-0.399018 0.48861 0)
(-0.360781 0.493653 0)
(-0.31839 0.497182 0)
(-0.276013 0.500995 0)
(-0.233438 0.504904 0)
(-0.191188 0.5088 0)
(-0.150063 0.512835 0)
(-0.110367 0.516656 0)
(-0.0730498 0.520068 0)
(-0.0402502 0.522877 0)
(-0.0159041 0.524875 0)
(-0.00348294 0.525922 0)
(-0.000293269 0.526215 0)
(-5.34079e-06 0.526246 0)
(5.34455e-06 0.526246 0)
(0.000293382 0.526215 0)
(0.00348363 0.525921 0)
(0.0159049 0.524875 0)
(0.040247 0.52288 0)
(0.073036 0.520081 0)
(0.110335 0.516687 0)
(0.150007 0.512891 0)
(0.191101 0.508887 0)
(0.233319 0.505029 0)
(0.275853 0.501146 0)
(0.318206 0.497366 0)
(0.360541 0.493819 0)
(0.398767 0.488769 0)
(0.440403 0.486978 0)
(0.472091 0.480127 0)
(0.515382 0.483687 0)
(0.547499 0.48188 0)
(0.623339 0.462362 0)
(1.0635 0.503956 0)
(-1.02613 0.56782 0)
(-0.622587 0.507084 0)
(-0.549646 0.523957 0)
(-0.519398 0.525683 0)
(-0.475819 0.521792 0)
(-0.444042 0.526939 0)
(-0.401007 0.526236 0)
(-0.36283 0.530023 0)
(-0.319417 0.531488 0)
(-0.276857 0.5344 0)
(-0.233715 0.537519 0)
(-0.191291 0.541347 0)
(-0.149718 0.545348 0)
(-0.109549 0.549156 0)
(-0.0719121 0.552568 0)
(-0.0390568 0.555324 0)
(-0.0150217 0.557251 0)
(-0.00312749 0.558248 0)
(-0.000241856 0.558513 0)
(-3.94406e-06 0.558537 0)
(3.94544e-06 0.558537 0)
(0.000241911 0.558513 0)
(0.00312795 0.558247 0)
(0.0150228 0.55725 0)
(0.039057 0.555324 0)
(0.0719071 0.552572 0)
(0.109533 0.549171 0)
(0.149685 0.545383 0)
(0.191233 0.541411 0)
(0.233628 0.537624 0)
(0.276729 0.53455 0)
(0.319257 0.531701 0)
(0.362607 0.530279 0)
(0.400757 0.52656 0)
(0.443732 0.527289 0)
(0.475482 0.522141 0)
(0.519118 0.526 0)
(0.549422 0.524135 0)
(0.622604 0.506895 0)
(1.02616 0.566561 0)
(-1.00046 0.555413 0)
(-0.615075 0.52622 0)
(-0.54492 0.549939 0)
(-0.517232 0.554572 0)
(-0.473646 0.552538 0)
(-0.442004 0.55834 0)
(-0.398477 0.557797 0)
(-0.360217 0.561444 0)
(-0.316502 0.562601 0)
(-0.273322 0.564676 0)
(-0.229624 0.566654 0)
(-0.186192 0.568765 0)
(-0.143625 0.571136 0)
(-0.102884 0.574028 0)
(-0.065536 0.577584 0)
(-0.0340912 0.581384 0)
(-0.0123179 0.584483 0)
(-0.00234935 0.586064 0)
(-0.000162343 0.586444 0)
(-2.34211e-06 0.586474 0)
(2.34246e-06 0.586474 0)
(0.000162361 0.586444 0)
(0.00234956 0.586064 0)
(0.0123187 0.584483 0)
(0.0340923 0.581384 0)
(0.0655359 0.577586 0)
(0.10288 0.574036 0)
(0.143613 0.571156 0)
(0.186166 0.568807 0)
(0.229579 0.566726 0)
(0.273251 0.564787 0)
(0.316403 0.562763 0)
(0.360079 0.561659 0)
(0.398311 0.558075 0)
(0.441796 0.55868 0)
(0.473426 0.552921 0)
(0.517021 0.554988 0)
(0.544767 0.550326 0)
(0.615109 0.526393 0)
(1.00067 0.555144 0)
(-0.963274 0.613827 0)
(-0.591271 0.592919 0)
(-0.521836 0.617512 0)
(-0.500953 0.625172 0)
(-0.45476 0.626027 0)
(-0.425879 0.633218 0)
(-0.379023 0.633685 0)
(-0.3422 0.638453 0)
(-0.297053 0.639853 0)
(-0.255209 0.642494 0)
(-0.211641 0.64418 0)
(-0.169634 0.646062 0)
(-0.12853 0.647942 0)
(-0.0900701 0.650498 0)
(-0.0556649 0.653866 0)
(-0.0277776 0.657656 0)
(-0.00946002 0.660726 0)
(-0.00165949 0.662182 0)
(-0.000102745 0.662488 0)
(-1.31502e-06 0.662508 0)
(1.31509e-06 0.662508 0)
(0.000102751 0.662488 0)
(0.00165959 0.662182 0)
(0.00946046 0.660726 0)
(0.0277785 0.657655 0)
(0.0556657 0.653865 0)
(0.0900698 0.650499 0)
(0.128527 0.647948 0)
(0.169629 0.646079 0)
(0.211633 0.644214 0)
(0.255198 0.64255 0)
(0.297042 0.63994 0)
(0.342185 0.638575 0)
(0.379017 0.633848 0)
(0.425866 0.63343 0)
(0.45476 0.626272 0)
(0.500955 0.625455 0)
(0.521856 0.617799 0)
(0.591338 0.593108 0)
(0.963303 0.613781 0)
(-1.03242 1.03573 0)
(-0.611986 0.965729 0)
(-0.549413 1.00466 0)
(-0.561286 1.03009 0)
(-0.495528 1.06852 0)
(-0.476501 1.09456 0)
(-0.409392 1.12253 0)
(-0.375869 1.14741 0)
(-0.313846 1.16816 0)
(-0.272001 1.18894 0)
(-0.215608 1.20405 0)
(-0.169969 1.21894 0)
(-0.120897 1.22956 0)
(-0.0776741 1.23812 0)
(-0.0406877 1.2437 0)
(-0.0153319 1.2469 0)
(-0.00336751 1.24827 0)
(-0.000329238 1.24863 0)
(-1.05892e-05 1.24868 0)
(-7.94184e-08 1.24868 0)
(7.94097e-08 1.24868 0)
(1.05887e-05 1.24868 0)
(0.000329234 1.24863 0)
(0.00336752 1.24827 0)
(0.015332 1.2469 0)
(0.040688 1.2437 0)
(0.0776748 1.23812 0)
(0.120898 1.22956 0)
(0.16997 1.21894 0)
(0.215609 1.20405 0)
(0.272002 1.18894 0)
(0.313845 1.16816 0)
(0.375867 1.14741 0)
(0.409387 1.12254 0)
(0.476492 1.09457 0)
(0.495517 1.06854 0)
(0.561267 1.03012 0)
(0.549405 1.0047 0)
(0.611991 0.965772 0)
(1.03242 1.03574 0)
(-1.03242 -1.03573 0)
(-0.611986 -0.965729 0)
(-0.549413 -1.00466 0)
(-0.561286 -1.03009 0)
(-0.495528 -1.06852 0)
(-0.476501 -1.09456 0)
(-0.409392 -1.12253 0)
(-0.375869 -1.14741 0)
(-0.313846 -1.16816 0)
(-0.272001 -1.18894 0)
(-0.215608 -1.20405 0)
(-0.169969 -1.21894 0)
(-0.120897 -1.22956 0)
(-0.0776741 -1.23812 0)
(-0.0406877 -1.2437 0)
(-0.0153319 -1.2469 0)
(-0.00336751 -1.24827 0)
(-0.000329238 -1.24863 0)
(-1.05892e-05 -1.24868 0)
(-7.94183e-08 -1.24868 0)
(7.94099e-08 -1.24868 0)
(1.05887e-05 -1.24868 0)
(0.000329234 -1.24863 0)
(0.00336752 -1.24827 0)
(0.015332 -1.2469 0)
(0.040688 -1.2437 0)
(0.0776748 -1.23812 0)
(0.120898 -1.22956 0)
(0.16997 -1.21894 0)
(0.215609 -1.20405 0)
(0.272002 -1.18894 0)
(0.313845 -1.16816 0)
(0.375867 -1.14741 0)
(0.409387 -1.12254 0)
(0.476492 -1.09457 0)
(0.495517 -1.06854 0)
(0.561267 -1.03012 0)
(0.549405 -1.0047 0)
(0.611991 -0.965772 0)
(1.03242 -1.03574 0)
(-0.963274 -0.613827 0)
(-0.591271 -0.592919 0)
(-0.521836 -0.617512 0)
(-0.500953 -0.625172 0)
(-0.45476 -0.626027 0)
(-0.425879 -0.633218 0)
(-0.379023 -0.633685 0)
(-0.3422 -0.638453 0)
(-0.297053 -0.639853 0)
(-0.255209 -0.642494 0)
(-0.211641 -0.64418 0)
(-0.169634 -0.646062 0)
(-0.12853 -0.647942 0)
(-0.0900701 -0.650498 0)
(-0.0556649 -0.653866 0)
(-0.0277776 -0.657656 0)
(-0.00946002 -0.660726 0)
(-0.00165949 -0.662182 0)
(-0.000102745 -0.662488 0)
(-1.31502e-06 -0.662508 0)
(1.31509e-06 -0.662508 0)
(0.000102751 -0.662488 0)
(0.00165959 -0.662182 0)
(0.00946046 -0.660726 0)
(0.0277785 -0.657655 0)
(0.0556657 -0.653865 0)
(0.0900698 -0.650499 0)
(0.128527 -0.647948 0)
(0.169629 -0.646079 0)
(0.211633 -0.644214 0)
(0.255198 -0.64255 0)
(0.297042 -0.63994 0)
(0.342185 -0.638575 0)
(0.379017 -0.633848 0)
(0.425866 -0.63343 0)
(0.45476 -0.626272 0)
(0.500955 -0.625455 0)
(0.521856 -0.617799 0)
(0.591338 -0.593108 0)
(0.963303 -0.613781 0)
(-1.00046 -0.555413 0)
(-0.615075 -0.52622 0)
(-0.54492 -0.549939 0)
(-0.517232 -0.554572 0)
(-0.473646 -0.552538 0)
(-0.442004 -0.55834 0)
(-0.398477 -0.557797 0)
(-0.360217 -0.561444 0)
(-0.316502 -0.562601 0)
(-0.273322 -0.564676 0)
(-0.229624 -0.566654 0)
(-0.186192 -0.568765 0)
(-0.143625 -0.571136 0)
(-0.102884 -0.574028 0)
(-0.065536 -0.577584 0)
(-0.0340912 -0.581384 0)
(-0.0123179 -0.584483 0)
(-0.00234935 -0.586064 0)
(-0.000162343 -0.586444 0)
(-2.34211e-06 -0.586474 0)
(2.34246e-06 -0.586474 0)
(0.000162361 -0.586444 0)
(0.00234956 -0.586064 0)
(0.0123187 -0.584483 0)
(0.0340923 -0.581384 0)
(0.0655359 -0.577586 0)
(0.10288 -0.574036 0)
(0.143613 -0.571156 0)
(0.186166 -0.568807 0)
(0.229579 -0.566726 0)
(0.273251 -0.564787 0)
(0.316403 -0.562763 0)
(0.360079 -0.561659 0)
(0.398311 -0.558075 0)
(0.441796 -0.55868 0)
(0.473426 -0.552921 0)
(0.517021 -0.554988 0)
(0.544767 -0.550326 0)
(0.615109 -0.526393 0)
(1.00067 -0.555144 0)
(-1.02613 -0.56782 0)
(-0.622587 -0.507084 0)
(-0.549646 -0.523957 0)
(-0.519398 -0.525683 0)