/*--------------------------------*- C++ -*----------------------------------*\
| =========                 |                                                 |
| \\      /  F ield         | OpenFOAM: The Open Source CFD Toolbox           |
|  \\    /   O peration     | Version:  v1912                                 |
|   \\  /    A nd           | Website:  www.openfoam.com                      |
|    \\/     M anipulation  |                                                 |
\*---------------------------------------------------------------------------*/
FoamFile
{
    version     2.0;
    format      ascii;
    class       volScalarField;
    location    "0.68";
    object      p;
}
// * * * * * * * * * * * * * * * * * * * * * * * * * * * * * * * * * * * * * //

dimensions      [1 -1 -2 0 0 0 0];


internalField   nonuniform List<scalar> 
4800
(
446.717
5.27856
4.64646
5.70713
6.8165
8.43635
9.68138
10.2348
10.3822
10.4345
10.3491
9.9038
8.36631
6.5122
6.09429
6.12303
6.32357
6.62152
6.979
7.35631
7.72833
8.09107
8.46333
8.85439
9.25484
9.65203
9.94046
9.92484
9.43118
7.91157
6.521
6.2875
6.47015
6.86079
7.28123
7.63459
7.90092
8.08916
8.20238
8.25415
446.483
5.31173
4.68205
5.69772
6.78478
8.37334
9.592
10.1566
10.321
10.41
10.3662
9.92639
8.35729
6.47308
6.03706
6.06708
6.29575
6.63061
7.00548
7.38641
7.75969
8.12374
8.49426
8.86614
9.23814
9.60649
9.88355
9.89234
9.46906
7.98784
6.61713
6.41172
6.56009
6.87286
7.22101
7.5365
7.79913
7.99177
8.11829
8.22227
446.436
5.32943
4.73213
5.70614
6.74808
8.27164
9.45218
10.0543
10.258
10.4113
10.3865
9.93355
8.33746
6.4119
5.95367
6.00553
6.27442
6.64554
7.04777
7.43581
7.80097
8.15915
8.52416
8.88396
9.22026
9.54398
9.82279
9.85844
9.54087
8.13662
6.7573
6.54429
6.63509
6.8706
7.13728
7.39608
7.64739
7.88169
8.07138
8.21617
446.745
5.325
4.78211
5.71601
6.7013
8.14597
9.29391
9.92995
10.1707
10.3741
10.3663
9.92091
8.30082
6.33857
5.86699
5.9497
6.25697
6.66823
7.09277
7.48686
7.84861
8.19884
8.5489
8.89211
9.20422
9.50371
9.78661
9.87614
9.66003
8.30114
6.88331
6.65252
6.69003
6.8728
7.06668
7.26839
7.49245
7.75588
8.02132
8.23573
447.118
5.35557
4.82984
5.71677
6.65164
8.02677
9.16532
9.82347
10.0968
10.2975
10.3005
9.85765
8.24354
6.27395
5.81224
5.91913
6.25007
6.69297
7.12845
7.51813
7.88
8.22436
8.56887
8.91064
9.22357
9.51756
9.81718
9.94375
9.76327
8.40382
6.96123
6.72076
6.70951
6.83647
6.9932
7.17257
7.37744
7.6457
7.96685
8.27485
447.506
5.29644
4.86867
5.70407
6.61255
7.94022
9.0966
9.76941
10.0655
10.2002
10.1689
9.74842
8.18352
6.24264
5.80812
5.94676
6.2896
6.72173
7.13888
7.52515
7.88111
8.23187
8.59705
8.96035
9.29348
9.61232
9.92105
10.016
9.80745
8.43206
6.98411
6.73382
6.70148
6.80381
6.95061
7.12178
7.31315
7.57379
7.92432
8.30829
447.641
5.23908
4.89018
5.67873
6.57352
7.88573
9.08901
9.77983
10.056
10.1318
10.0077
9.61037
8.11724
6.23543
5.84481
6.02484
6.34704
6.73247
7.12121
7.49093
7.85182
8.23272
8.64248
9.04964
9.42597
9.75475
10.0276
10.0552
9.79405
8.4137
6.94747
6.67526
6.6616
6.78792
6.94165
7.10829
7.29232
7.54158
7.88784
8.2803
447.518
5.23362
4.89686
5.66125
6.56771
7.8927
9.15118
9.84265
10.0745
10.074
9.86761
9.46507
8.02776
6.24559
5.90775
6.12231
6.39244
6.73439
7.07869
7.4329
7.8234
8.26057
8.72012
9.18331
9.58773
9.87845
10.1038
10.0676
9.73967
8.34901
6.89314
6.61034
6.62364
6.78252
6.95269
7.12213
7.30893
7.55292
7.85393
8.19253
447.351
5.2331
4.89121
5.66596
6.6048
7.97206
9.27685
9.94225
10.1267
10.0558
9.776
9.33064
7.92322
6.26139
5.97326
6.19036
6.42131
6.7148
7.02311
7.37956
7.81529
8.31455
8.84412
9.3344
9.71515
9.94157
10.119
10.0293
9.65939
8.28414
6.84758
6.55674
6.59518
6.7819
6.97229
7.15711
7.3535
7.57628
7.81957
8.07509
447.151
5.2376
4.87712
5.69785
6.6779
8.10025
9.42123
10.0392
10.1954
10.0706
9.75102
9.26075
7.83845
6.26172
6.0074
6.19717
6.41021
6.67138
6.97261
7.3569
7.84278
8.41736
8.9823
9.44817
9.76202
9.93938
10.0715
9.95964
9.59242
8.24131
6.81633
6.51699
6.57219
6.78094
7.00252
7.20768
7.40073
7.58961
7.7762
7.96537
446.897
5.17319
4.85741
5.75719
6.79763
8.27375
9.56045
10.1279
10.264
10.1135
9.81146
9.2777
7.79397
6.23513
5.99192
6.14694
6.34488
6.6111
6.94469
7.3731
7.92095
8.54343
9.08817
9.4939
9.73993
9.88397
10.0044
9.89036
9.53771
8.2098
6.79526
6.49111
6.55882
6.78953
7.0387
7.25754
7.43812
7.58703
7.71511
7.85787
446.434
5.11589
4.82953
5.82888
6.94239
8.47374
9.67358
10.1878
10.3105
10.1916
9.95666
9.37925
7.7707
6.17031
5.93993
6.03317
6.25058
6.56069
6.94703
7.44243
8.03877
8.63865
9.12087
9.47499
9.67027
9.81103
9.94026
9.8342
9.49158
8.18103
6.77994
6.47929
6.56354
6.8079
7.0695
7.28843
7.45109
7.56902
7.67021
7.7917
445.897
5.03915
4.79045
5.90047
7.09246
8.67373
9.75986
10.2156
10.3186
10.3076
10.1515
9.52072
7.75617
6.10493
5.83436
5.89273
6.1509
6.51976
6.98697
7.54445
8.14124
8.67013
9.09133
9.39469
9.60064
9.76101
9.89377
9.79359
9.45343
8.15377
6.76558
6.47615
6.58477
6.83459
7.09325
7.2972
7.441
7.55272
7.65885
7.77612
445.331
4.99864
4.73636
5.95106
7.23403
8.84314
9.82736
10.2186
10.3204
10.4276
10.3526
9.65311
7.75129
6.0465
5.71934
5.76825
6.0691
6.50663
7.04232
7.62912
8.18142
8.63074
8.9983
9.30495
9.54794
9.73617
9.87167
9.77163
9.42638
8.12988
6.74928
6.48054
6.61622
6.86381
7.11088
7.296
7.43073
7.55092
7.67425
7.80129
444.876
4.96371
4.67499
5.9513
7.32003
8.94681
9.85361
10.2017
10.325
10.5276
10.5225
9.76908
7.76759
6.00365
5.62106
5.69009
6.02685
6.5177
7.08862
7.65675
8.12608
8.53288
8.8839
9.22042
9.50708
9.73079
9.87136
9.76776
9.41473
8.11819
6.74104
6.49313
6.65145
6.89379
7.12999
7.30339
7.43503
7.55996
7.6979
7.8528
444.624
4.7568
4.62611
5.92602
7.34066
8.99265
9.87554
10.2068
10.3316
10.5893
10.6372
9.86218
7.78479
5.96203
5.55502
5.65883
6.036
6.56146
7.12285
7.61161
8.00635
8.38573
8.76876
9.15348
9.48128
9.73213
9.88164
9.78026
9.42463
8.12581
6.74611
6.51268
6.684
6.92324
7.15397
7.32248
7.45369
7.58793
7.75444
7.95136
444.31
4.73746
4.60382
5.89213
7.3214
9.00121
9.88409
10.2114
10.3236
10.6054
10.7023
9.90936
7.79234
5.93192
5.52858
5.66726
6.09069
6.63418
7.13352
7.52429
7.85408
8.21813
8.64423
9.08452
9.46918
9.73636
9.89629
9.8082
9.45858
8.15403
6.76656
6.54005
6.71606
6.95402
7.18445
7.35716
7.50077
7.65756
7.84743
8.06293
443.929
4.94039
4.62664
5.87575
7.26731
8.93354
9.85167
10.2046
10.3029
10.5871
10.7146
9.92976
7.8008
5.91974
5.54037
5.73182
6.19019
6.70976
7.11466
7.4172
7.70648
8.06155
8.51345
8.99471
9.42166
9.72983
9.91161
9.85116
9.51898
8.21107
6.81202
6.58685
6.75645
6.99328
7.23048
7.41983
7.58184
7.7441
7.92388
8.12609
444.15
4.79566
4.69013
5.88759
7.19404
8.79684
9.76442
10.1729
10.2727
10.5332
10.6491
9.91277
7.80477
5.93169
5.604
5.84702
6.30767
6.75915
7.06656
7.32378
7.59491
7.94174
8.39169
8.88501
9.33619
9.68076
9.91678
9.90563
9.61571
8.30441
6.8807
6.65333
6.80225
7.03733
7.28393
7.49121
7.66266
7.81355
7.96547
8.14208
444.291
4.87375
4.79548
5.93064
7.12699
8.63788
9.63821
10.0989
10.225
10.4324
10.5116
9.85972
7.81621
5.97547
5.71734
5.99065
6.41446
6.78921
7.0456
7.27514
7.53655
7.87082
8.29565
8.76324
9.21162
9.59898
9.87746
9.95202
9.73285
8.42474
6.96113
6.72261
6.8384
7.07618
7.33595
7.55751
7.72842
7.8647
7.98931
8.1384
444.375
5.14973
4.91158
5.97521
7.07432
8.5
9.5068
9.9953
10.1404
10.2839
10.3301
9.7841
7.84588
6.05751
5.85892
6.13404
6.49651
6.81221
7.05411
7.26938
7.52454
7.84713
8.23827
8.65853
9.07365
9.47836
9.7987
9.96718
9.83442
8.55223
7.0551
6.79882
6.87447
7.11284
7.38155
7.60926
7.77489
7.89281
7.99719
8.12556
444.852
5.13376
5.0152
6.00643
7.05617
8.41678
9.39969
9.89567
10.0444
10.1125
10.1281
9.69006
7.89499
6.17573
6.00147
6.24938
6.55692
6.84172
7.08542
7.30182
7.55132
7.8633
8.22442
8.5941
8.9579
9.33796
9.68299
9.93076
9.88262
8.65336
7.15151
6.87516
6.91652
7.15088
7.41918
7.64487
7.8011
7.91118
8.01136
8.12725
445.246
5.21452
5.0804
6.02621
7.05166
8.35769
9.30638
9.78572
9.92788
9.94036
9.92273
9.58099
7.95496
6.32107
6.12548
6.32716
6.59912
6.88087
7.1359
7.36419
7.61266
7.91079
8.24369
8.57907
8.89727
9.22346
9.55555
9.82724
9.8515
8.68761
7.22085
6.94524
6.9739
7.18808
7.43758
7.64994
7.80818
7.92626
8.03382
8.14349
445.63
5.21077
5.09468
6.02748
7.05426
8.32894
9.24804
9.70229
9.82505
9.79096
9.73214
9.46108
8.00179
6.44477
6.22427
6.38625
6.63442
6.92698
7.20051
7.44949
7.69861
7.97825
8.27972
8.58186
8.8793
9.17689
9.4654
9.67304
9.72379
8.64216
7.24261
6.98129
7.03476
7.22219
7.44031
7.63424
7.79803
7.93888
8.06163
8.17492
446.012
5.06454
5.06498
6.02552
7.06686
8.32716
9.22788
9.65439
9.74245
9.67253
9.57909
9.3371
8.03605
6.54492
6.28239
6.43069
6.66785
6.97428
7.26974
7.54189
7.78838
8.04458
8.3162
8.60258
8.88457
9.17101
9.44731
9.54999
9.52715
8.50518
7.20471
6.97708
7.08538
7.25518
7.44179
7.60925
7.77325
7.93036
8.0727
8.20109
445.925
5.18441
5.00196
6.02696
7.0971
8.35456
9.24376
9.64271
9.69955
9.60709
9.46647
9.2226
8.04489
6.60013
6.30163
6.43717
6.6695
7.00135
7.32992
7.62135
7.86998
8.10599
8.35528
8.63089
8.91946
9.21779
9.46835
9.51118
9.32672
8.27785
7.09912
6.93172
7.10796
7.27685
7.44236
7.58526
7.74354
7.91842
8.07787
8.20677
446.18
4.85073
4.92124
6.01053
7.13975
8.40583
9.29349
9.66078
9.7035
9.59335
9.41475
9.13685
8.02274
6.60197
6.27592
6.4273
6.65916
7.00845
7.36336
7.6781
7.93473
8.16158
8.4007
8.679
8.98414
9.30169
9.53303
9.52323
9.19691
8.00755
6.89667
6.81945
7.10506
7.28646
7.44906
7.57992
7.71485
7.87602
8.04627
8.18538
445.838
5.05705
4.83105
5.99207
7.1843
8.47605
9.36598
9.70459
9.75679
9.63623
9.41433
9.08356
7.9837
6.56647
6.22842
6.40588
6.64246
6.99823
7.36966
7.7058
7.98624
8.22183
8.46618
8.75249
9.07035
9.40144
9.62104
9.57691
9.12903
7.79561
6.65254
6.6696
7.01232
7.28878
7.47018
7.59107
7.70139
7.83383
7.99517
8.14158
446.207
4.58912
4.74847
5.96304
7.22121
8.55788
9.43613
9.77058
9.85105
9.71953
9.45744
9.07348
7.9438
6.49341
6.15772
6.34403
6.5974
6.96032
7.3477
7.70734
8.02265
8.29168
8.5534
8.84064
9.15993
9.49882
9.71267
9.66095
9.10705
7.63784
6.48637
6.47053
6.83436
7.24812
7.50637
7.61696
7.70546
7.82199
7.96467
8.10688
446.062
4.62661
4.66356
5.92718
7.23228
8.62945
9.51953
9.87481
9.96635
9.82199
9.53053
9.09486
7.88981
6.38899
6.07506
6.2515
6.52357
6.89551
7.30004
7.69202
8.0484
8.36319
8.65377
8.93723
9.24789
9.58747
9.79673
9.7722
9.11349
7.51712
6.39817
6.31113
6.61752
7.09946
7.49899
7.68074
7.75372
7.83915
7.96468
8.0871
446.096
4.57009
4.59031
5.87265
7.21413
8.68374
9.62933
10.029
10.1142
9.93801
9.62218
9.13599
7.81136
6.27286
5.98614
6.14004
6.42479
6.81141
7.23653
7.66679
8.07852
8.44074
8.76193
9.04281
9.33398
9.66982
9.87761
9.90161
9.13823
7.42809
6.36163
6.20273
6.43093
6.88793
7.38817
7.74208
7.85073
7.91971
8.00089
8.08492
446.264
4.49832
4.55235
5.80541
7.16603
8.73488
9.75658
10.1677
10.2352
10.0484
9.74737
9.18669
7.70996
6.15474
5.89333
6.02567
6.32175
6.72262
7.16929
7.63901
8.10522
8.51173
8.86558
9.14624
9.41564
9.74565
9.96407
10.0393
9.18006
7.37338
6.3699
6.1374
6.29523
6.68137
7.19593
7.68294
7.99392
8.06038
8.09266
8.12673
446.159
4.70157
4.55422
5.76835
7.12223
8.76067
9.86209
10.263
10.3223
10.1716
9.9019
9.24732
7.58733
6.0345
5.80862
5.92522
6.23056
6.6419
7.10665
7.60832
8.11911
8.56328
8.94231
9.23011
9.49063
9.82549
10.0516
10.1447
9.2206
7.35229
6.41607
6.13065
6.22026
6.52198
6.97575
7.54443
8.0066
8.23929
8.24386
8.21934
446.136
4.60058
4.59981
5.763
7.0947
8.7647
9.92158
10.3142
10.3743
10.2825
10.0612
9.31032
7.44512
5.92515
5.73461
5.85139
6.16145
6.57764
7.05038
7.56779
8.10297
8.57611
8.97299
9.28679
9.56357
9.91751
10.1308
10.2159
9.23314
7.34301
6.48051
6.1812
6.22428
6.43602
6.81011
7.33665
7.91616
8.31722
8.40402
8.3643
445.813
4.79467
4.68551
5.80099
7.08468
8.74825
9.92246
10.3275
10.4081
10.3667
10.1933
9.35298
7.29667
5.83982
5.6782
5.80951
6.11576
6.52701
6.99795
7.51288
8.04938
8.54008
8.95451
9.31911
9.64501
10.0179
10.212
10.23
9.16286
7.30035
6.53662
6.28535
6.30098
6.4591
6.73508
7.15836
7.73683
8.23279
8.49074
8.51507
445.406
5.0648
4.80615
5.87118
7.07776
8.70372
9.87734
10.3207
10.4407
10.4254
10.2892
9.37063
7.16142
5.78413
5.64654
5.79011
6.09555
6.49103
6.94486
7.44235
7.96618
8.47105
8.92077
9.34569
9.74948
10.1391
10.2992
10.1941
9.05292
7.21521
6.55786
6.41479
6.44289
6.56896
6.77422
7.08495
7.50524
8.00672
8.39986
8.58312
445.234
5.16176
4.94145
5.9498
7.06438
8.63453
9.80228
10.3074
10.4752
10.469
10.3491
9.36817
7.04911
5.75214
5.64134
5.79452
6.09894
6.48245
6.90539
7.36693
7.86419
8.3757
8.87218
9.37885
9.88774
10.2806
10.3874
10.1295
8.91797
7.10368
6.51134
6.53469
6.63454
6.76512
6.9218
7.11223
7.35097
7.68847
8.11874
8.49207
445.022
5.33235
5.06275
6.0203
7.04755
8.56631
9.7252
10.2899
10.5078
10.5047
10.3819
9.34467
6.95906
5.73464
5.65501
5.81372
6.11277
6.48145
6.8797
7.29773
7.75373
8.2627
8.81387
9.42385
10.0275
10.421
10.4669
10.071
8.78462
6.97765
6.43177
6.56604
6.78801
7.00427
7.13451
7.20579
7.2904
7.45104
7.7669
8.23716
444.831
5.51927
5.15278
6.06403
7.03144
8.51094
9.66653
10.2644
10.5219
10.5319
10.397
9.31377
6.89436
5.72493
5.67524
5.83818
6.13347
6.48693
6.85827
7.24313
7.65993
8.16035
8.76964
9.47907
10.1509
10.5361
10.5332
10.0309
8.68274
6.86667
6.36041
6.55532
6.90268
7.20516
7.33987
7.3158
7.25325
7.2942
7.49146
7.93625
444.715
5.66724
5.19138
6.08987
7.0397
8.50276
9.64526
10.2482
10.5279
10.5414
10.3905
9.2804
6.85646
5.71553
5.6886
5.85998
6.15545
6.49915
6.85305
7.21583
7.61033
8.09466
8.72966
9.50355
10.217
10.6125
10.5977
10.0278
8.62796
6.79729
6.30781
6.53191
6.95868
7.30792
7.48759
7.43601
7.2746
7.22173
7.36078
7.71527
8.32225
8.42407
8.58013
8.81505
9.15416
9.5998
10.1322
10.3496
10.1464
9.20123
7.43126
6.72669
6.63852
6.70072
6.86382
7.05485
7.26187
7.52291
7.81973
8.0963
8.33297
8.5253
8.64879
8.74794
8.8843
9.13315
9.46387
9.6443
9.58644
9.07409
7.81533
7.07695
7.02258
7.11042
7.30849
7.51375
7.64666
7.7391
7.84808
8.06427
8.46582
8.95751
9.44902
9.8325
10.1259
10.3664
10.4312
10.3825
9.77908
8.72873
8.26743
8.21525
8.23789
8.36688
8.52092
8.59865
8.65423
8.74511
8.84678
8.89846
8.84744
8.74356
8.67835
8.64858
8.71003
8.70766
8.72429
8.26919
7.81321
7.67659
7.63611
7.61776
7.68911
7.77651
7.84294
7.8858
7.92124
7.96713
7.99332
8.24931
8.33678
8.48916
8.70019
8.97243
9.30683
9.72521
10.0661
10.0698
9.79355
8.76173
7.20604
6.73606
6.68704
6.77608
6.96022
7.17512
7.39226
7.62113
7.86437
8.10879
8.32884
8.50929
8.66396
8.82307
9.01331
9.29855
9.5944
9.66863
9.46956
8.76818
7.56736
7.0884
7.06871
7.17728
7.37395
7.56754
7.71024
7.83717
8.01417
8.29304
8.61962
9.00164
9.36872
9.72217
10.0247
10.1779
10.154
10.0133
9.35549
8.39641
8.05623
8.0531
8.11246
8.26239
8.42139
8.52806
8.60517
8.68699
8.75647
8.7762
8.79524
8.73828
8.73697
8.76863
8.83261
8.853
8.70882
8.06214
7.63619
7.56764
7.57929
7.63439
7.73502
7.82526
7.88375
7.9244
7.95929
8.01277
8.08424
8.34271
8.36826
8.55558
8.79373
9.04492
9.33299
9.72659
10.0058
9.97272
9.68078
8.52411
7.06188
6.72161
6.71424
6.84403
7.07316
7.31103
7.50606
7.66421
7.82668
8.0234
8.23257
8.44065
8.64264
8.85951
9.09691
9.43702
9.70874
9.65725
9.41763
8.57556
7.4111
7.10067
7.09227
7.2063
7.41408
7.62826
7.81049
8.00076
8.23905
8.45729
8.65047
8.87272
9.1372
9.48309
9.8577
10.0728
10.0277
9.77248
9.01273
8.07655
7.82612
7.85739
7.95673
8.1467
8.35069
8.50526
8.59437
8.61896
8.66161
8.64888
8.64716
8.69249
8.87374
9.01566
9.11233
9.11455
8.70163
7.80763
7.37023
7.39759
7.52543
7.66699
7.79623
7.87833
7.92168
7.94677
7.99135
8.06856
8.1629
8.42883
8.4407
8.66919
8.90556
9.11279
9.37014
9.71099
9.90947
9.80883
9.45143
8.27148
6.97724
6.73433
6.77612
6.94808
7.20598
7.43418
7.58993
7.69429
7.78216
7.91576
8.12752
8.38907
8.66358
8.95341
9.26073
9.61256
9.77381
9.66525
9.34387
8.34476
7.30511
7.11494
7.12154
7.24983
7.46779
7.69824
7.95412
8.21908
8.43216
8.55358
8.61801
8.71179
8.87996
9.22031
9.61916
9.84064
9.79128
9.39716
8.50298
7.61908
7.46914
7.55288
7.73162
7.99684
8.26139
8.44584
8.53451
8.58105
8.54185
8.48008
8.52496
8.72213
9.05114
9.35269
9.46383
9.26856
8.57156
7.58348
7.1275
7.21206
7.42726
7.65831
7.84514
7.9497
7.98553
8.01315
8.06293
8.1483
8.24988
8.51834
8.53394
8.77302
8.97749
9.13544
9.34537
9.61518
9.74429
9.62558
9.24445
8.11417
6.95152
6.77005
6.84888
7.0511
7.3099
7.51168
7.61706
7.66793
7.7304
7.83617
8.02562
8.31707
8.6582
8.99218
9.35034
9.73245
9.83595
9.68755
9.25659
8.11823
7.22822
7.1007
7.1307
7.28175
7.53053
7.82801
8.11571
8.34895
8.47391
8.51426
8.524
8.54529
8.6807
9.00756
9.39424
9.58166
9.53243
9.0589
8.08568
7.25767
7.13071
7.22633
7.45906
7.80403
8.13703
8.35139
8.45336
8.44573
8.38741
8.3608
8.48445
8.81936
9.34461
9.72478
9.73264
9.33851
8.42786
7.4069
6.98065
7.02557
7.28291
7.59578
7.86173
8.04057
8.0982
8.11779
8.15289
8.21952
8.31115
8.58259
8.60591
8.82094
8.97223
9.0976
9.25664
9.44315
9.52903
9.43459
9.08405
8.03667
6.97302
6.82539
6.92722
7.12415
7.36083
7.52285
7.60221
7.64926
7.70974
7.81242
7.9748
8.2436
8.60631
8.99735
9.39448
9.77795
9.90595
9.69964
9.11301
7.88091
7.16603
7.06681
7.13785
7.34429
7.6442
7.94865
8.17796
8.31307
8.38548
8.38724
8.38407
8.40979
8.55502
8.8756
9.26013
9.42462
9.36512
8.85615
7.83692
7.10739
7.00132
7.09188
7.32638
7.66621
7.99008
8.21587
8.30143
8.28387
8.2628
8.32719
8.54755
9.04129
9.61196
9.93757
9.91008
9.33472
8.33191
7.30709
6.92899
6.91716
7.13413
7.48934
7.84345
8.07866
8.22073
8.25532
8.26835
8.29165
8.35178
8.62286
8.60022
8.78207
8.90145
8.98461
9.11599
9.26849
9.34875
9.30009
8.9968
8.01434
7.0227
6.88947
6.98271
7.14824
7.34365
7.49318
7.58235
7.64875
7.72667
7.8353
7.98599
8.19727
8.50685
8.91482
9.3733
9.77292
9.92682
9.68663
8.90985
7.65744
7.11188
7.04383
7.17287
7.43466
7.74352
7.98074
8.11402
8.19397
8.21172
8.23077
8.27334
8.35196
8.51065
8.8114
9.18939
9.31391
9.25808
8.74987
7.71649
7.06412
6.98769
7.10398
7.33151
7.62605
7.8738
8.02104
8.08556
8.13133
8.22072
8.38374
8.72454
9.27449
9.75732
9.99144
9.97054
9.34903
8.29531
7.26893
6.93112
6.88324
7.06695
7.38149
7.78137
8.11109
8.29068
8.37924
8.38792
8.38637
8.42022
8.69519
8.49263
8.66309
8.77808
8.85362
8.97751
9.15204
9.24522
9.23055
8.96834
8.02683
7.07655
6.93961
6.99227
7.11471
7.29332
7.44836
7.56537
7.66754
7.77519
7.89959
8.0377
8.19269
8.41732
8.77554
9.26538
9.66959
9.84954
9.56917
8.64994
7.47411
7.08393
7.06606
7.24572
7.52296
7.77199
7.92259
7.99907
8.01707
8.04342
8.10951
8.21555
8.3525
8.52087
8.78853
9.12022
9.2238
9.20903
8.7065
7.67797
7.10464
7.03895
7.15657
7.37669
7.6044
7.74452
7.80276
7.86086
7.97352
8.18437
8.5217
8.95542
9.42843
9.81911
9.96523
9.88483
9.36833
8.31487
7.28823
6.97363
6.9063
7.07545
7.3624
7.71675
8.06059
8.29316
8.41727
8.47297
8.49712
8.54466
8.84057
8.31893
8.4902
8.62146
8.73735
8.89285
9.10004
9.21446
9.22509
8.98259
8.05008
7.1048
6.95327
6.95876
7.06547
7.239
7.41378
7.56386
7.7003
7.8391
7.97968
8.107
8.2243
8.38048
8.66347
9.08203
9.42992
9.63902
9.35508
8.40647
7.37032
7.09971
7.13626
7.33103
7.56136
7.7467
7.83777
7.85552
7.87944
7.94323
8.05696
8.20803
8.38693
8.55669
8.77652
9.03873
9.12409
9.17279
8.68085
7.67962
7.17888
7.12502
7.21729
7.379
7.54004
7.60709
7.6364
7.70185
7.87293
8.20798
8.68437
9.1029
9.44867
9.75398
9.83882
9.76681
9.40497
8.37563
7.36369
7.0616
6.98916
7.13952
7.40042
7.69506
7.96901
8.20648
8.37354
8.48143
8.57043
8.69727
9.02835
8.15073
8.31832
8.48896
8.66064
8.8628
9.11042
9.24232
9.26518
9.0135
8.05357
7.09245
6.93367
6.91859
7.02336
7.20647
7.40151
7.57975
7.74716
7.91029
8.05087
8.16728
8.27742
8.40907
8.62266
8.9078
9.10687
9.30259
9.09047
8.22643
7.3663
7.17536
7.23325
7.38675
7.56351
7.67509
7.7277
7.76066
7.81283
7.90571
8.05196
8.24169
8.43165
8.58745
8.7897
8.98154
9.04832
9.11109
8.63091
7.68974
7.26918
7.21947
7.25073
7.35742
7.45985
7.5126
7.55474
7.65146
7.86685
8.26553
8.75385
9.08675
9.33988
9.56422
9.66607
9.62679
9.38686
8.46074
7.50986
7.22437
7.14979
7.25605
7.47427
7.71959
7.92559
8.10017
8.29603
8.46833
8.61915
8.79044
9.13915
8.01787
8.18748
8.3902
8.62111
8.88475
9.16773
9.30667
9.32016
9.03046
8.02888
7.06574
6.90488
6.8903
7.00394
7.20468
7.41885
7.62093
7.81457
7.98131
8.11026
8.22134
8.32868
8.4667
8.64756
8.79963
8.84662
8.95359
8.82794
8.12383
7.45821
7.29146
7.3255
7.41078
7.50627
7.59151
7.65512
7.71816
7.79717
7.91588
8.08546
8.29319
8.45587
8.60733
8.82229
8.97987
9.01312
9.02048
8.53265
7.68464
7.33513
7.29262
7.25134
7.31191
7.39613
7.47839
7.57775
7.72128
7.99606
8.35658
8.69737
8.93887
9.13266
9.31407
9.44929
9.43719
9.28824
8.46337
7.68107
7.46058
7.38908
7.42512
7.56575
7.73553
7.88774
8.04118
8.23513
8.46573
8.6747
8.88061
9.23732
7.94117
8.11326
8.32766
8.58986
8.90902
9.24204
9.39458
9.38039
9.03388
7.99902
7.04986
6.88551
6.88663
7.02462
7.24122
7.47883
7.7025
7.89243
8.03699
8.15736
8.26921
8.38868
8.53472
8.67308
8.7293
8.68867
8.681
8.60904
8.08226
7.5755
7.42005
7.39871
7.39215
7.45439
7.53834
7.62284
7.71472
7.8273
7.96555
8.13919
8.3183
8.46153
8.61773
8.86183
9.02246
9.00356
8.93256
8.40317
7.62799
7.32906
7.30119
7.2223
7.26852
7.37707
7.51546
7.68215
7.91154
8.18726
8.43088
8.60393
8.74894
8.8946
9.06057
9.18484
9.15747
9.09019
8.43334
7.76445
7.59517
7.6245
7.64691
7.69787
7.78384
7.89667
8.04109
8.23055
8.46467
8.70665
8.93405
9.28291
7.91917
8.09027
8.30792
8.58946
8.95628
9.30345
9.48632
9.46345
9.05158
7.99492
7.06726
6.9033
6.9223
7.07869
7.32763
7.58486
7.7998
7.95767
8.081
8.19988
8.31659
8.45297
8.59395
8.69031
8.69554
8.6348
8.59682
8.52049
8.08822
7.65046
7.49599
7.46208
7.39916
7.43232
7.51776
7.62976
7.75487
7.89418
8.03725
8.17908
8.30723
8.4436
8.6283
8.90365
9.08442
9.03357
8.86666
8.24825
7.49623
7.26012
7.25163
7.18595
7.2569
7.41708
7.61869
7.86755
8.14527
8.36159
8.45347
8.48067
8.53898
8.66563
8.83892
8.95104
8.87623
8.77144
8.27155
7.77581
7.64797
7.71411
7.77299
7.84559
7.90992
7.97714
8.09725
8.27378
8.47262
8.68295
8.90912
9.23733
7.94453
8.1202
8.33809
8.61476
8.99804
9.36576
9.5567
9.57726
9.11808
8.03808
7.11019
6.94615
6.99312
7.18118
7.45213
7.70662
7.89169
8.0215
8.12618
8.23853
8.36081
8.49304
8.61839
8.70927
8.72314
8.70485
8.67692
8.55682
8.08202
7.64271
7.48875
7.47894
7.42277
7.45938
7.55838
7.6899
7.83851
7.98669
8.10485
8.19062
8.27606
8.41152
8.64458
8.95166
9.13159
9.07351
8.81347
8.11044
7.31297
7.1384
7.16585
7.1946
7.31164
7.51582
7.78011
8.08369
8.32908
8.42784
8.40431
8.36593
8.3801
8.50603
8.66295
8.78603
8.74254
8.56122
8.02736
7.56662
7.55461
7.6621
7.78221
7.92239
8.04726
8.12936
8.20529
8.32721
8.48518
8.66109
8.83185
9.12455
8.02502
8.22615
8.43537
8.67275
9.0236
9.40364
9.62497
9.69724
9.23674
8.13494
7.19406
7.03478
7.10562
7.31476
7.58645
7.81616
7.97682
8.07562
8.16942
8.28059
8.39805
8.51118
8.6227
8.74101
8.85115
8.90781
8.84337
8.61377
8.03298
7.51562
7.41816
7.46904
7.48383
7.54168
7.65346
7.79626
7.95129
8.08325
8.15645
8.19657
8.25059
8.38512
8.65756
8.98382
9.14629
9.08778
8.7502
7.97228
7.13937
6.98339
7.05966
7.23141
7.43033
7.67819
7.96964
8.23819
8.39763
8.40202
8.33788
8.27181
8.27716
8.4015
8.5616
8.68544
8.685
8.51947
7.91171
7.27507
7.28352
7.49178
7.71782
7.90607
8.07672
8.21528
8.3105
8.3855
8.48288
8.61398
8.76133
9.03675
8.16169
8.37468
8.5448
8.72682
9.02946
9.41428
9.66196
9.81455
9.37725
8.26995
7.30998
7.15381
7.23332
7.44541
7.70323
7.91099
8.03859
8.12927
8.22046
8.32279
8.41789
8.50715
8.61492
8.79865
9.02226
9.12717
9.05027
8.70874
7.99657
7.3379
7.28695
7.40393
7.56329
7.68985
7.80651
7.93918
8.06913
8.16398
8.19409
8.20909
8.24884
8.38199
8.64519
8.97548
9.1157
9.04534
8.66022
7.84582
7.02853
6.85291
6.97117
7.2375
7.57003
7.87311
8.11885
8.29339
8.35208
8.32982
8.27178
8.21535
8.23009
8.3528
8.52923
8.65599
8.69228
8.52213
7.9054
7.20938
7.06905
7.19088
7.4971
7.83416
8.08037
8.23232
8.32673
8.39756
8.47574
8.58524
8.7269
8.9885
8.28534
8.49305
8.6394
8.78445
9.03383
9.40155
9.65151
9.86225
9.50799
8.42196
7.44845
7.29535
7.3602
7.56371
7.80005
7.97761
8.09678
8.18934
8.27252
8.34913
8.4237
8.49557
8.61661
8.85654
9.13309
9.27479
9.23469
8.79527
7.98133
7.19582
7.07829
7.28106
7.58154
7.8425
8.00685
8.1135
8.18433
8.22024
8.22581
8.23742
8.28057
8.41138
8.63639
8.92111
9.02511
8.94297
8.56343
7.75994
6.96717
6.78083
6.91207
7.25853
7.7061
8.03621
8.20419
8.25722
8.26184
8.25275
8.23422
8.20448
8.23007
8.34584
8.54068
8.68086
8.74666
8.56473
7.9233
7.22123
7.04873
7.08529
7.29035
7.62395
7.96418
8.183
8.28406
8.36803
8.46301
8.5679
8.70504
8.96484
8.34503
8.56079
8.71661
8.86444
9.07103
9.36907
9.59364
9.81672
9.56651
8.54079
7.58927
7.44215
7.47097
7.65058
7.86663
8.03645
8.15489
8.2395
8.31291
8.37234
8.43725
8.50486
8.63422
8.86993
9.16587
9.34305
9.35102
8.87064
7.98564
7.12386
6.89322
7.08676
7.52415
7.9475
8.20696
8.29676
8.30349
8.27816
8.2698
8.29603
8.3512
8.4663
8.63224
8.8212
8.88405
8.79025
8.47974
7.72525
6.96596
6.78991
6.91496
7.29287
7.75751
8.10025
8.2358
8.21436
8.18829
8.18463
8.2099
8.23555
8.2825
8.40214
8.60903
8.75876
8.84816
8.67361
8.0511
7.35111
7.16139
7.1706
7.3102
7.52664
7.78779
8.02802
8.21712
8.35386
8.47641
8.58782
8.72212
8.97117
8.35227
8.58219
8.78112
8.94701
9.12658
9.34877
9.5228
9.68339
9.53054
8.60249
7.71904
7.56441
7.56847
7.72682
7.92503
8.08848
8.18776
8.25581
8.3329
8.40354
8.46759
8.5387
8.64419
8.82301
9.12666
9.30607
9.32732
8.90124
8.01976
7.1064
6.83133
6.92979
7.37567
7.9305
8.32752
8.45108
8.42137
8.35833
8.34589
8.39014
8.45658
8.53495
8.62342
8.68979
8.71561
8.62819
8.39526
7.73903
7.03509
6.86808
6.99773
7.32948
7.74325
8.07634
8.20497
8.19538
8.15116
8.14131
8.18911
8.2695
8.3634
8.51102
8.76704
8.94102
9.00642
8.82429
8.27114
7.61501
7.42299
7.38548
7.45188
7.59926
7.77397
7.93649
8.1011
8.25992
8.4087
8.53406
8.66987
8.9029
8.33357
8.56534
8.8078
9.01933
9.18956
9.32599
9.46733
9.50265
9.4179
8.58877
7.79927
7.66703
7.6739
7.80875
7.98178
8.10572
8.18798
8.26335
8.35236
8.43364
8.51115
8.57032
8.63967
8.78077
9.01574
9.18962
9.22121
8.90149
8.05603
7.11941
6.84316
6.89645
7.24013
7.79739
8.29256
8.52068
8.51249
8.46789
8.46626
8.5193
8.57782
8.59781
8.59528
8.5668
8.56553
8.47353
8.31757
7.79523
7.18907
7.01958
7.10935
7.34736
7.66348
7.98399
8.18229
8.22348
8.17235
8.15059
8.19438
8.32239
8.52197
8.75799
9.02073
9.14613
9.17221
9.02697
8.56223
7.94743
7.74008
7.68153
7.68203
7.75607
7.8736
7.99097
8.0809
8.16432
8.25022
8.34402
8.45993
8.66511
8.3013
8.52844
8.79634
9.04848
9.23062
9.33566
9.42942
9.33268
9.24554
8.50819
7.82225
7.72396
7.78301
7.88947
8.00105
8.08406
8.16649
8.24862
8.34828
8.44918
8.53486
8.58116
8.63416
8.70793
8.86374
9.03582
9.06644
8.8772
8.10459
7.18879
6.91923
6.936
7.17999
7.61382
8.10646
8.43688
8.56545
8.60545
8.62813
8.66666
8.68682
8.6442
8.55719
8.47702
8.45199
8.35037
8.24841
7.86278
7.39871
7.22847
7.25486
7.36171
7.59898
7.90119
8.15554
8.25205
8.23842
8.21617
8.28561
8.47823
8.754
9.00641
9.21383
9.27167
9.23617
9.1336
8.7118
8.13883
7.95097
7.90339
7.89527
7.96033
8.03733
8.08119
8.10663
8.12831
8.15515
8.19381
8.26988
8.43996
8.28377
8.49283
8.75809
9.02581
9.22603
9.35548
9.39181
9.22466
9.0604
8.34376
7.77999
7.71565
7.83624
7.92169
7.9906
8.05349
8.11771
8.20918
8.33253
8.44184
8.53219
8.58491
8.5948
8.64028
8.75213
8.88646
8.87834
8.78944
8.14883
7.31679
7.04582
7.03062
7.18576
7.48225
7.85584
8.26794
8.55618
8.72512
8.79884
8.80567
8.78479
8.68797
8.54889
8.44805
8.41451
8.33149
8.27475
7.99968
7.62577
7.43492
7.42653
7.42332
7.59257
7.84682
8.10709
8.27907
8.33671
8.35802
8.46148
8.66948
8.90918
9.11494
9.30143
9.3221
9.24055
9.12626
8.7224
8.19749
8.02906
8.04233
8.07499
8.13127
8.17265
8.17643
8.16228
8.13785
8.14087
8.16444
8.22879
8.37449
8.28357
8.4659
8.69858
8.94371
9.16953
9.35081
9.36487
9.16185
8.90314
8.11891
7.66407
7.64893
7.82837
7.90458
7.96516
8.01392
8.0763
8.18036
8.31059
8.41928
8.51614
8.5463
8.55249
8.59726
8.6789
8.77636
8.73376
8.67205
8.17023
7.47061
7.20544
7.18918
7.22645
7.41555
7.677
8.04815
8.48215
8.78239
8.90613
8.91087
8.83633
8.72569
8.61868
8.5384
8.50695
8.48327
8.46295
8.19493
7.793
7.59762
7.61327
7.55973
7.65061
7.82194
8.02178
8.25369
8.44674
8.56349
8.67183
8.80843
8.97809
9.17148
9.34081
9.34139
9.24433
9.10077
8.68319
8.1682
8.02638
8.06421
8.12642
8.21285
8.26225
8.23934
8.17773
8.13792
8.13205
8.16835
8.24998
8.39869
8.30291
8.44983
8.62034
8.81129
9.03941
9.30075
9.35608
9.15386
8.80359
7.87929
7.43567
7.49101
7.73154
7.84846
7.93789
7.99376
8.06417
8.16666
8.28989
8.38638
8.4558
8.49416
8.52049
8.5767
8.64989
8.72123
8.66368
8.58233
8.17163
7.58214
7.3404
7.3721
7.32626
7.42691
7.61447
7.9013
8.32204
8.72657
8.92223
8.92458
8.84267
8.78375
8.76019
8.76157
8.80556
8.82675
8.74317
8.40345
7.90655
7.72814
7.76596
7.72247
7.74905
7.82971
7.96005
8.19906
8.49535
8.74414
8.86821
8.93118
9.01056
9.16523
9.33944
9.34435
9.21997
9.03069
8.58914
8.0942
7.95451
7.99472
8.06215
8.16555
8.2419
8.2467
8.20904
8.17601
8.18916
8.2446
8.354
8.51967
8.32117
8.42905
8.52656
8.64781
8.85366
9.14162
9.25253
9.18347
8.75483
7.68583
7.12347
7.22191
7.49804
7.76319
7.93385
8.02427
8.08968
8.17187
8.25487
8.33334
8.39496
8.45111
8.50099
8.571
8.65446
8.72368
8.67546
8.58088
8.19693
7.67556
7.44918
7.52015
7.46873
7.52583
7.66306
7.85787
8.14076
8.53051
8.79656
8.86277
8.83756
8.86896
9.02701
9.20918
9.31364
9.28783
9.05561
8.59938
8.0037
7.82234
7.86351
7.85988
7.84797
7.86059
7.94531
8.15895
8.4902
8.80612
8.98592
8.99192
9.02889
9.13158
9.25712
9.30078
9.19176
8.95255
8.49874
8.00568
7.84549
7.85315
7.90523
8.01331
8.14182
8.22507
8.26452
8.28071
8.32656
8.41197
8.51787
8.67807
8.31304
8.38924
8.43085
8.48836
8.64856
8.94483
9.12251
9.20078
8.70574
7.5393
6.86359
6.90944
7.21795
7.63623
7.95627
8.10776
8.1498
8.17874
8.22294
8.28872
8.35509
8.42396
8.49495
8.58068
8.68209
8.76969
8.74425
8.67457
8.3202
7.75527
7.53168
7.60255
7.62049
7.68162
7.76611
7.88918
8.0348
8.25069
8.54394
8.7553
8.92641
9.11808
9.4115
9.66286
9.77181
9.71203
9.40467
8.85657
8.13578
7.86544
7.89001
7.90179
7.90577
7.92931
7.98811
8.14949
8.42427
8.76509
8.98664
9.04366
9.05828
9.09814
9.16829
9.21507
9.13401
8.89148
8.44392
7.93521
7.70589
7.65834
7.70306
7.83312
8.02208
8.18475
8.29631
8.4063
8.51905
8.60508
8.67608
8.82458
8.27804
8.32635
8.33782
8.36453
8.48273
8.76333
8.9768
9.15623
8.6204
7.39489
6.72045
6.67746
6.98279