/*--------------------------------*- C++ -*----------------------------------*\
| =========                 |                                                 |
| \\      /  F ield         | OpenFOAM: The Open Source CFD Toolbox           |
|  \\    /   O peration     | Version:  v1912                                 |
|   \\  /    A nd           | Website:  www.openfoam.com                      |
|    \\/     M anipulation  |                                                 |
\*---------------------------------------------------------------------------*/
FoamFile
{
    version     2.0;
    format      ascii;
    class       volScalarField;
    location    "5.36";
    object      rho;
}
// * * * * * * * * * * * * * * * * * * * * * * * * * * * * * * * * * * * * * //

dimensions      [1 -3 0 0 0 0 0];


internalField   nonuniform List<scalar> 
1900
(
42290.2
16596.3
14109.3
13650.5
13365.7
13232.9
13134.9
13046.7
12971.5
12910.8
42290.3
16596.1
14109.4
13650.1
13365.3
13232.7
13135.2
13051.4
12983.2
12901.4
42290.2
16596
14109.4
13650.2
13365.6
13233.5
13135.9
13048.4
12972.9
12888.9
42290.3
16596.1
14109.4
13650.1
13365.3
13232.7
13135.2
13051.4
12983.2
12901.4
42290.2
16596.3
14109.3
13650.5
13365.7
13232.9
13134.9
13046.7
12971.5
12910.8
12996.5
12822.6
12716.9
12427.5
12386.2
12842.5
12715.3
12633.8
12352.6
11927.2
12815.3
12697.9
12616.2
12375.6
12033.2
12842.5
12715.3
12633.8
12352.6
11927.2
12996.5
12822.6
12716.9
12427.5
12386.2
7391.66
6230.6
6206.97
5960.95
5535.74
8046.82
6460.07
6349.06
6065.72
5710.91
8207.8
6400.38
6253.18
5994.19
5629.99
8046.82
6460.07
6349.06
6065.72
5710.91
7391.66
6230.6
6206.97
5960.95
5535.74
3737.79
3002.29
3537.12
4322.65
4332.43
4036.98
3642.65
3299.8
3052.73
2891.69
2758.72
2629.87
2509.2
2411.32
2347.36
2309.84
2285.17
2265.56
2248.54
2233.69
2221.33
2211.45
2203.68
2197.82
2193.54
2190.7
2189.02
2188.77
2190.37
2195.17
2202.18
2214.48
2228.07
2248.38
2267.3
2302.1
2334.24
2405.77
2764.08
6282.67
4111
3049.09
3671.23
4495.74
4420.91
4077.42
3662.72
3308.03
3056.14
2893
2759.24
2631.04
2509.87
2411.55
2347.33
2309.74
2285.07
2265.47
2248.46
2233.6
2221.24
2211.35
2203.58
2197.72
2193.44
2190.59
2188.91
2188.66
2190.25
2195.06
2202.07
2214.38
2227.97
2248.34
2267.17
2302.13
2334.14
2405.83
2761.23
6265.12
4172.85
3049.52
3603.85
4445.86
4411
4096.96
3673.22
3311.47
3057.32
2893.48
2759.38
2631.65
2510.09
2411.62
2347.32
2309.71
2285.04
2265.45
2248.44
2233.58
2221.22
2211.32
2203.55
2197.69
2193.41
2190.56
2188.88
2188.62
2190.21
2195.02
2202.03
2214.35
2227.94
2248.35
2267.17
2302.23
2334.35
2406.34
2759.98
6256.81
4111
3049.09
3671.23
4495.74
4420.91
4077.42
3662.72
3308.03
3056.14
2893
2759.24
2631.04
2509.87
2411.55
2347.33
2309.74
2285.07
2265.47
2248.46
2233.6
2221.24
2211.35
2203.58
2197.72
2193.44
2190.59
2188.91
2188.66
2190.25
2195.06
2202.07
2214.38
2227.97
2248.34
2267.17
2302.13
2334.14
2405.83
2761.23
6265.12
3737.79
3002.29
3537.12
4322.65
4332.43
4036.98
3642.65
3299.8
3052.73
2891.69
2758.72
2629.87
2509.2
2411.32
2347.36
2309.84
2285.17
2265.56
2248.54
2233.69
2221.33
2211.45
2203.68
2197.82
2193.54
2190.7
2189.02
2188.77
2190.37
2195.17
2202.18
2214.48
2228.07
2248.38
2267.3
2302.1
2334.24
2405.77
2764.08
6282.67
3100.12
2932.87
3592.57
4081.15
4096.53
3888.76
3577.05
3267.28
3036.63
2884.49
2753.94
2624.58
2505.24
2409.74
2347.24
2310.12
2285.45
2265.81
2248.79
2233.97
2221.65
2211.79
2204.03
2198.18
2193.9
2191.07
2189.39
2189.16
2190.76
2195.55
2202.54
2214.74
2228.33
2248.41
2267.68
2301.86
2334.69
2403.86
2770.91
6500
3328.13
2905.82
3252.28
3622.55
3741.86
3616.79
3417.99
3179.27
2996.52
2864.1
2739.77
2611.82
2496.07
2406.03
2346.87
2310.72
2286.08
2266.37
2249.37
2234.62
2222.38
2212.58
2204.86
2199.03
2194.77
2191.96
2190.32
2190.13
2191.74
2196.52
2203.46
2215.47
2228.98
2248.72
2268.41
2301.72
2335.14
2399.28
2766.14
6235.33
3737.07
2869.77
3040.31
3368.57
3435.76
3389.25
3248.55
3078.36
2944.73
2833.94
2716.91
2593.74
2483.78
2400.79
2345.99
2311.29
2286.86
2267.11
2250.16
2235.54
2223.43
2213.72
2206.05
2200.26
2196.04
2193.28
2191.71
2191.59
2193.25
2198.02
2204.9
2216.63
2230.06
2249.42
2269.54
2301.77
2335.35
2394.39
2763.24
6136.55
4010.74
2755.13
2912.29
3170.38
3224.98
3188
3092.66
2985.3
2889.88
2797.75
2687.61
2571.66
2469.64
2394.61
2344.58
2311.65
2287.57
2267.89
2251.04
2236.59
2224.64
2215.05
2207.47
2201.75
2197.6
2194.92
2193.46
2193.49
2195.22
2199.99
2206.82
2218.25
2231.57
2250.57
2270.97
2302.25
2335.06
2391.59
2768.37
6064.32
4115.77
2672.34
2853.22
3018.79
3041.43
3021.14
2965.77
2903.56
2835.66
2756.39
2653.67
2546.6
2454.72
2388
2342.83
2311.75
2288.15
2268.63
2251.96
2237.71
2225.96
2216.52
2209.05
2203.44
2199.41
2196.86
2195.53
2195.77
2197.61
2202.41
2209.16
2220.26
2233.43
2252.05
2272.53
2303.01
2334.37
2390.22
2770.11
5982.45
4197.56
2627.67
2813.9
2878.73
2906.1
2896.36
2870.66
2835.91
2786.67
2714.51
2618.64
2521.34
2440.35
2381.79
2341.12
2311.79
2288.71
2269.43
2253
2238.98
2227.44
2218.17
2210.85
2205.39
2201.54
2199.17
2198.03
2198.57
2200.57
2205.42
2212.14
2222.92
2235.96
2254.26
2274.79
2304.83
2334.89
2391.5
2775.1
5898.59
4262.42
2587.24
2746.71
2760.71
2812.41
2810.08
2800.53
2778.49
2737.87
2669.89
2582
2496.26
2426.53
2375.77
2339.24
2311.59
2289.19
2270.29
2254.15
2240.41
2229.11
2220.03
2212.88
2207.61
2203.95
2201.77
2200.84
2201.67
2203.8
2208.63
2215.19
2225.56
2238.3
2256.14
2276.55
2306.02
2334.54
2392.4
2774.92
5801.14
4340.96
2556.97
2683.29
2698.81
2748.06
2747.08
2745.71
2729.83
2691.8
2627.04
2548.09
2474.44
2415.33
2371.39
2338.31
2312.15
2290.49
2272
2256.2
2242.74
2231.67
2222.8
2215.85
2210.79
2207.37
2205.42
2204.73
2205.9
2208.18
2212.99
2219.37
2229.27
2241.66
2258.99
2279.22
2308.14
2335.78
2394.74
2776.1
5689.88
4402.45
2529.97
2635.38
2653.47
2703.45
2701.13
2701
2685.03
2646.1
2585.66
2516.92
2455.12
2405.48
2367.54
2337.54
2313
2292.26
2274.36
2259.01
2245.87
2235.07
2226.41
2219.66
2214.8
2211.57
2209.8
2209.27
2210.7
2212.98
2217.62
2223.64
2232.9
2244.73
2261.38
2281.21
2309.52
2336.23
2396.18
2772.86
5567.38
4444.33
2512.29
2594.84
2617.76
2667.06
2662.53
2660.85
2642.29
2602.6
2548.46
2490.74
2440.2
2399.02
2366.31
2339.44
2316.63
2296.82
2279.63
2264.78
2252
2241.47
2233.01
2226.38
2221.63
2218.47
2216.77
2216.26
2217.78
2219.86
2224.11
2229.58
2238
2249.04
2264.83
2284.17
2311.82
2338.03
2398.44
2769.29
5432.72
4492.65
2501.44
2570.43
2594.49
2638.59
2630.37
2624.65
2602.88
2564.25
2517.74
2470.44
2429.57
2395.32
2366.85
2342.69
2321.45
2302.78
2286.39
2272.11
2259.72
2249.47
2241.21
2234.72
2230.06
2226.98
2225.34
2224.82
2226.37
2228.17
2231.95
2236.72
2244.17
2254.24
2269.01
2287.68
2314.58
2340.15
2400.65
2763.3
5294.21
4475
2497.28
2555.41
2576.48
2612.83
2600.84
2590.59
2567.12
2531.74
2494.01
2456.55
2424.37
2396.18
2371.79
2349.87
2330.42
2313.05
2297.65
2284.08
2272.16
2262.18
2254.01
2247.46
2242.69
2239.44
2237.66
2236.9
2238.2
2239.52
2242.59
2246.41
2252.62
2261.47
2274.99
2292.85
2318.95
2343.95
2404.42
2758.15
5136.01
4471.23
2496.53
2548.65
2563.07
2589.71
2575.22
2561.69
2539.34
2508.77
2478.71
2449.36
2423.62
2400.23
2378.71
2358.99
2340.96
2324.63
2309.98
2296.96
2285.43
2275.77
2267.83
2261.45
2256.8
2253.65
2251.98
2251.19
2252.4
2253.35
2255.84
2258.84
2263.94
2271.65
2284.11
2301.37
2326.99
2351.6
2411.76
2753.93
4996.74
4387.38
2501.35
2550.43
2557.81
2573.04
2555.86
2539.34
2519.56
2494.96
2472.45
2450.46
2429.96
2410.05
2391.48
2373.79
2357.33
2342.2
2328.51
2316.24
2305.21
2295.73
2287.69
2281.1
2276.25
2272.91
2271.15
2270.11
2271.01
2271.45
2273.29
2275.43
2279.43
2286.08
2297.57
2314.56
2339.88
2364.09
2424.99
2754.59
4836.94
4317.71
2510.18
2557.02
2556.42
2560.53
2543.8
2527.06
2511.31
2492.56
2476.11
2457.83
2441.04
2423.94
2407.37
2391.1
2375.52
2360.82
2347.2
2334.84
2323.81
2314.74
2307.43
2301.59
2297.33
2294.36
2292.85
2291.83
2292.76
2292.99
2294.54
2296.11
2299.36
2305.31
2316.37
2333.81
2359.98
2385.04
2447.84
2764.69
4730.7
4292.09
2535.36
2576.8
2569.18
2565.73
2549.73
2533.84
2521.39
2506.32
2493.48
2478.87
2464.77
2449.72
2435.07
2420.39
2406.26
2392.85
2380.45
2369.13
2358.76
2349.77
2341.98
2335.42
2330.52
2326.98
2325.14
2323.65
2324.23
2323.93
2324.93
2325.72
2328.11
2333.3
2343.88
2361.86
2388.97
2414.47
2481.08
2787.27
4687.18
4344.45
2571.9
2602.58
2588.65
2578.27
2561.85
2547.78
2538.1
2526.25
2515.64
2502.8
2490.7
2477.28
2464.73
2452.1
2439.89
2427.7
2415.36
2403.17
2391.98
2383.38
2377.04
2371.68
2366.76
2362.13
2359.15
2356.21
2355.84
2354.57
2355.15
2355.45
2357.39
2362.06
2372.29
2390.79
2419.2
2444.51
2512.77
2813.37
4718.85
4536.28
2639.41
2660.6
2638.75
2621.28
2604.4
2591.94
2584.38
2575.85
2567.51
2556.67
2545.68
2532.68
2520.21
2507.42
2495.85
2485.78
2477.48
2470.29
2462.49
2454.04
2444.79
2435.13
2427.71
2422.27
2420.25
2418.86
2419.45
2419.1
2420.2
2421.01
2423.02
2427.4
2438.18
2458.14
2491.13
2519.14
2587.48
2862.92
4863.06
15241.2
3600.57
3130.41
3078.22
3069.89
3055.32
3052.88
3047.03
3042.93
3033.83
3020.72
3005.61
2985.58
2964.05
2938.74
2912.26
2884.04
2857.04
2836.14
2818.65
2810.57
2812.4
2810.23
2817.95
2818.48
2823.62
2823.33
2825.6
2823.08
2820.97
2815.25
2809.01
2802.28
2799.54
2805.81
2827.09
2853.71
2896.53
3706.61
14501.1
177775
15383.6
6013.48
5876.34
5909.1
5993.63
6135.33
6249.56
6346.65
6429.25
6481.62
6514.66
6530.04
6527.13
6512.3
6487.84
6456.24
6417.51
6382.58
6340.45
6308.45
6275.17
6223.22
6157.06
6070.01
5980.12
5879.29
5763.89
5638.7
5499.66
5353.68
5184.35
5028.26
4838.97
4707.03
4616.17
4629.13
4726.16
13913.9
160140
177775
15383.6
6013.48
5876.34
5909.1
5993.63
6135.33
6249.56
6346.65
6429.25
6481.62
6514.66
6530.04
6527.13
6512.3
6487.84
6456.24
6417.51
6382.58
6340.45
6308.45
6275.17
6223.22
6157.06
6070.01
5980.12
5879.29
5763.89
5638.7
5499.66
5353.68
5184.35
5028.26
4838.97
4707.03
4616.17
4629.13
4726.16
13913.9
160140
15241.2
3600.57
3130.41
3078.22
3069.89
3055.32
3052.88
3047.03
3042.93
3033.83
3020.72
3005.61
2985.58
2964.05
2938.74
2912.26
2884.04
2857.04
2836.14
2818.65
2810.57
2812.4
2810.23
2817.95
2818.48
2823.62
2823.33
2825.6
2823.08
2820.97
2815.25
2809.01
2802.28
2799.54
2805.81
2827.09
2853.71
2896.53
3706.61
14501.1
4536.28
2639.41
2660.6
2638.75
2621.28
2604.4
2591.94
2584.38
2575.85
2567.51
2556.67
2545.68
2532.68
2520.21
2507.42
2495.85
2485.78
2477.48
2470.29
2462.49
2454.04
2444.79
2435.13
2427.71
2422.27
2420.25
2418.86
2419.45
2419.1
2420.2
2421.01
2423.02
2427.4
2438.18
2458.14
2491.13
2519.14
2587.48
2862.92
4863.06
4344.45
2571.9
2602.58
2588.65
2578.27
2561.85
2547.78
2538.1
2526.25
2515.64
2502.8
2490.7
2477.28
2464.73
2452.1
2439.89
2427.7
2415.36
2403.17
2391.98
2383.38
2377.04
2371.68
2366.76
2362.13
2359.15
2356.21
2355.84
2354.57
2355.15
2355.45
2357.39
2362.06
2372.29
2390.79
2419.2
2444.51
2512.77
2813.37
4718.85
4292.09
2535.36
2576.8
2569.18
2565.73
2549.73
2533.84
2521.39
2506.32
2493.48
2478.87
2464.77
2449.72
2435.07
2420.39
2406.26
2392.85
2380.45
2369.13
2358.76
2349.77
2341.98
2335.42
2330.52
2326.98
2325.14
2323.65
2324.23
2323.93
2324.93
2325.72
2328.11
2333.3
2343.88
2361.86
2388.97
2414.47
2481.08
2787.27
4687.18
4317.71
2510.18
2557.02
2556.42
2560.53
2543.8
2527.06
2511.31
2492.56
2476.11
2457.83
2441.04
2423.94
2407.37
2391.1
2375.52
2360.82
2347.2
2334.84
2323.81
2314.74
2307.43
2301.59
2297.33
2294.36
2292.85
2291.83
2292.76
2292.99
2294.54
2296.11
2299.36
2305.31
2316.37
2333.81
2359.98
2385.04
2447.84
2764.69
4730.7
4387.38
2501.35
2550.43
2557.81
2573.04
2555.86
2539.34
2519.56
2494.96
2472.45
2450.46
2429.96
2410.05
2391.48
2373.79
2357.33
2342.2
2328.51
2316.24
2305.21
2295.73
2287.69
2281.1
2276.25
2272.91
2271.15
2270.11
2271.01
2271.45
2273.29
2275.43
2279.43
2286.08
2297.57
2314.56
2339.88
2364.09
2424.99
2754.59
4836.94
4471.23
2496.53
2548.65
2563.07
2589.71
2575.22
2561.69
2539.34
2508.77
2478.71
2449.36
2423.62
2400.23
2378.71
2358.99
2340.96
2324.63
2309.98
2296.96
2285.43
2275.77
2267.83
2261.45
2256.8
2253.65
2251.98
2251.19
2252.4
2253.35
2255.84
2258.84
2263.94
2271.65
2284.11
2301.37
2326.99
2351.6
2411.76
2753.93
4996.74
4475
2497.28
2555.41
2576.48
2612.83
2600.84
2590.59
2567.12
2531.74
2494.01
2456.55
2424.37
2396.18
2371.79
2349.87
2330.42
2313.05
2297.65
2284.08
2272.16
2262.18
2254.01
2247.46
2242.69
2239.44
2237.66
2236.9
2238.2
2239.52
2242.59
2246.41
2252.62
2261.47
2274.99
2292.85
2318.95
2343.95
2404.42
2758.15
5136.01
4492.65
2501.44
2570.43
2594.49
2638.59
2630.37
2624.65
2602.88
2564.25
2517.74
2470.44
2429.57
2395.32
2366.85
2342.69
2321.45
2302.78
2286.39
2272.11
2259.72
2249.47
2241.21
2234.72
2230.06
2226.98
2225.34
2224.82
2226.37
2228.17
2231.95
2236.72
2244.17
2254.24
2269.01
2287.68
2314.58
2340.15
2400.65
2763.3
5294.21
4444.33
2512.29
2594.84
2617.76
2667.06
2662.53
2660.85
2642.29
2602.6
2548.46
2490.74
2440.2
2399.02
2366.31
2339.44
2316.63
2296.82
2279.63
2264.78
2252
2241.47
2233.01
2226.38
2221.63
2218.47
2216.77
2216.26
2217.78
2219.86
2224.11
2229.58
2238
2249.04
2264.83
2284.17
2311.82
2338.03
2398.44
2769.29
5432.72
4402.45
2529.97
2635.38
2653.47
2703.45
2701.13
2701
2685.03
2646.1
2585.66
2516.92
2455.12
2405.48
2367.54
2337.54
2313
2292.26
2274.36
2259.01
2245.87
2235.07
2226.41
2219.66
2214.8
2211.57
2209.8
2209.27
2210.7
2212.98
2217.62
2223.64
2232.9
2244.73
2261.38
2281.21
2309.52
2336.23
2396.18
2772.86
5567.38
4340.96
2556.97
2683.29
2698.81
2748.06
2747.08
2745.71
2729.83
2691.8
2627.04
2548.09
2474.44
2415.33
2371.39
2338.31
2312.15
2290.49
2272
2256.2
2242.74
2231.67
2222.8
2215.85
2210.79
2207.37
2205.42
2204.73
2205.9
2208.18
2212.99
2219.37
2229.27
2241.66
2258.99
2279.22
2308.14
2335.78
2394.74
2776.1
5689.88
4262.42
2587.24
2746.71
2760.71
2812.41
2810.08
2800.53
2778.49
2737.87
2669.89
2582
2496.26
2426.53
2375.77
2339.24
2311.59
2289.19
2270.29
2254.15
2240.41
2229.11
2220.03
2212.88
2207.61
2203.95
2201.77
2200.84
2201.67
2203.8
2208.63
2215.19
2225.56
2238.3
2256.14
2276.55
2306.02
2334.54
2392.4
2774.92
5801.14
4197.56
2627.67
2813.9
2878.73
2906.1
2896.36
2870.66
2835.91
2786.67
2714.51
2618.64
2521.34
2440.35
2381.79
2341.12
2311.79
2288.71
2269.43
2253
2238.98
2227.44
2218.17
2210.85
2205.39
2201.54
2199.17
2198.03
2198.57
2200.57
2205.42
2212.14
2222.92
2235.96
2254.26
2274.79
2304.83
2334.89
2391.5
2775.1
5898.59
4115.77
2672.34
2853.22
3018.79
3041.43
3021.14
2965.77
2903.56
2835.66
2756.39
2653.67
2546.6
2454.72
2388
2342.83
2311.75
2288.15
2268.63
2251.96
2237.71
2225.96
2216.52
2209.05
2203.44
2199.41
2196.86
2195.53
2195.77
2197.61
2202.41
2209.16
2220.26
2233.43
2252.05
2272.53
2303.01
2334.37
2390.22
2770.11
5982.45
4010.74
2755.13
2912.29
3170.38
3224.98
3188
3092.66
2985.3
2889.88
2797.75
2687.61
2571.66
2469.64
2394.61
2344.58
2311.65
2287.57
2267.89
2251.04
2236.59
2224.64
2215.05
2207.47
2201.75
2197.6
2194.92
2193.46
2193.49
2195.22
2199.99
2206.82
2218.25
2231.57
2250.57
2270.97
2302.25
2335.06
2391.59
2768.37
6064.32
3737.07
2869.77
3040.31
3368.57
3435.76
3389.25
3248.55
3078.36
2944.73
2833.94
2716.91
2593.74
2483.78
2400.79
2345.99
2311.29
2286.86
2267.11
2250.16
2235.54
2223.43
2213.72
2206.05
2200.26
2196.04
2193.28
2191.71
2191.59
2193.25
2198.02
2204.9
2216.63
2230.06
2249.42
2269.54
2301.77
2335.35
2394.39
2763.24
6136.55
3328.13
2905.82
3252.28
3622.55
3741.86
3616.79
3417.99
3179.27
2996.52
2864.1
2739.77
2611.82
2496.07
2406.03
2346.87
2310.72
2286.08
2266.37
2249.37
2234.62
2222.38
2212.58
2204.86
2199.03
2194.77
2191.96
2190.32
2190.13
2191.74
2196.52
2203.46
2215.47
2228.98
2248.72
2268.41
2301.72
2335.14
2399.28
2766.14
6235.33
3100.12
2932.87
3592.57
4081.15
4096.53
3888.76
3577.05
3267.28
3036.63
2884.49
2753.94
2624.58
2505.24
2409.74
2347.24
2310.12
2285.45
2265.81
2248.79
2233.97
2221.65
2211.79
2204.03
2198.18
2193.9
2191.07
2189.39
2189.16
2190.76
2195.55
2202.54
2214.74
2228.33
2248.41
2267.68
2301.86
2334.69
2403.86
2770.91
6500
)
;

boundaryField
{
    inlet
    {
        type            calculated;
        value           uniform 14000.1;
    }
    outlet
    {
        type            calculated;
        value           nonuniform List<scalar> 
165
(
2561.89
2736.01
2953.56
3071
3132.29
3184.99
3240.38
3286.52
3314.09
3325.95
3323.47
3325.13
3313.24
3310.16
3293.31
3256.22
3210.92
3145.34
3754.82
4038.05
4038.05
3681.92
3179.34
3247.1
3296.13
3335.96
3360.95
3383.81
3404.65
3421.11
3438.37
3455.07
3470.71
3487.45
3503.48
3518.49
3530.54
3539.7
3545.33
3548.18
3551.15
3556.57
3557.29
3558.06
3552.89
3545.49
3535.37
3526.71
3515.1
3503.68
3489.12
3475.49
3454.47
3433.81
3398.7
3345.76
3289.5
3215.81
3727.18
4052.78
3565.95
3592.33
3573.3
3559.06
3550.02
3543.75
3535.86
3528.32
3518.34
3508.39
3495.1
3482.44
3461.92
3440.38
3405.87
3352.08
3296.09
3215.68
3724.13
4052.78
3598.06
3589.75
3586.57
3589.75
3598.06
4052.78
3724.13
3215.68
3296.09
3352.08
3405.87
3440.38
3461.92
3482.44
3495.1
3508.39
3518.34
3528.32
3535.86
3543.75
3550.02
3559.06
3573.3
3592.33
3565.95
4038.05
3681.92
3179.34
3247.1
3296.13
3335.96
3360.95
3383.81
3404.65
3421.11
3438.37
3455.07
3470.71
3487.45
3503.48
3518.49
3530.54
3539.7
3545.33
3548.18
3551.15
3556.57
3557.29
3558.06
3552.89
3545.49
3535.37
3526.71
3515.1
3503.68
3489.12
3475.49
3454.47
3433.81
3398.7
3345.76
3289.5
3215.81
3727.18
4052.78
4038.05
3754.82
3145.34
3210.92
3256.22
3293.31
3310.16
3313.24
3325.13
3323.47
3325.95
3314.09
3286.52
3240.38
3184.99
3132.29
3071
2953.56
2736.01
2561.89
)
;
    }
    obstacle
    {
        type            calculated;
        value           nonuniform List<scalar> 
40
(
42290.2
16596.3
14109.3
13650.5
13365.7
13232.9
13134.9
13046.7
12971.5
12910.8
42290.2
16596.3
14109.3
13650.5
13365.7
13232.9
13134.9
13046.7
12971.5
12910.8
12996.5
12822.6
12716.9
12427.5
12386.2
12996.5
12822.6
12716.9
12427.5
12386.2
7391.66
6230.6
6206.97
5960.95
5535.74
7391.66
6230.6
6206.97
5960.95
5535.74
)
;
    }
    empty
    {
        type            empty;
    }
}


// ************************************************************************* //
