/*--------------------------------*- C++ -*----------------------------------*\
| =========                 |                                                 |
| \\      /  F ield         | OpenFOAM: The Open Source CFD Toolbox           |
|  \\    /   O peration     | Version:  v1912                                 |
|   \\  /    A nd           | Website:  www.openfoam.com                      |
|    \\/     M anipulation  |                                                 |
\*---------------------------------------------------------------------------*/
FoamFile
{
    version     2.0;
    format      ascii;
    class       volTensorField;
    location    "0.32";
    object      grad(U);
}
// * * * * * * * * * * * * * * * * * * * * * * * * * * * * * * * * * * * * * //

dimensions      [0 0 -1 0 0 0 0];


internalField   nonuniform List<tensor> 
1900
(
(-9.52571e-17 3.00076e-16 0 0 0 0 0 0 0)
(1.18823e-16 -3.5527e-17 0 -9.80716e-17 2.0428e-16 0 0 0 0)
(9.52571e-17 -3.00076e-16 0 1.26172e-16 -7.65734e-16 0 0 0 0)
(-1.07861e-16 4.6883e-16 0 0 -5.77314e-17 0 0 0 0)
(-1.4294e-17 2.01743e-16 0 1.91416e-17 4.33303e-16 0 0 0 0)
(-4.70859e-17 1.7256e-16 0 -3.87755e-17 2.01743e-16 0 0 0 0)
(2.73206e-15 -1.45915e-16 0 -2.78188e-16 5.76679e-16 0 0 0 0)
(2.14638e-12 7.13414e-14 0 8.20001e-16 7.89207e-16 0 0 0 0)
(3.26239e-10 1.56841e-11 0 8.4908e-13 2.50766e-13 0 0 0 0)
(9.58989e-09 5.54562e-10 0 1.8173e-10 6.7932e-11 0 0 0 0)
(-1.93329e-16 -9.5796e-17 0 0 0 0 0 0 0)
(2.44995e-16 -7.30207e-16 0 -1.76855e-16 -3.00076e-16 0 0 0 0)
(1.93329e-16 3.80647e-17 0 2.43741e-16 -6.0269e-17 0 0 0 0)
(-2.14892e-16 7.30207e-16 0 0 9.78011e-32 0 0 0 0)
(-5.30695e-17 5.77314e-17 0 1.381e-16 -4.33303e-16 0 0 0 0)
(-3.44415e-16 -2.91829e-17 0 -2.03124e-16 -2.01743e-16 0 0 0 0)
(3.59084e-15 7.33379e-16 0 -2.50512e-16 3.61112e-31 0 0 0 0)
(2.99574e-12 1.78848e-13 0 5.94934e-16 -5.58282e-17 0 0 0 0)
(5.07968e-10 5.22471e-11 0 1.46819e-12 -6.92529e-14 0 0 0 0)
(1.49769e-08 1.77966e-09 0 3.12473e-10 -1.56953e-11 0 0 0 0)
(-2.72112e-16 0 0 0 0 0 0 0 0)
(3.62564e-16 -9.5796e-17 0 1.93329e-16 9.5796e-17 0 0 0 0)
(2.72112e-16 6.01853e-32 0 -2.44995e-16 4.39012e-16 0 0 0 0)
(-2.13502e-16 9.5796e-17 0 0 5.77314e-17 0 0 0 0)
(-2.17418e-16 0 0 2.95673e-16 -2.2585e-16 0 0 0 0)
(-4.35698e-16 6.05862e-16 0 -2.55265e-16 4.08561e-16 0 0 0 0)
(3.53012e-15 -7.22224e-31 0 3.14312e-16 2.91829e-17 0 0 0 0)
(3.61482e-12 2.08848e-15 0 -6.68434e-16 -1.65201e-15 0 0 0 0)
(6.38712e-10 -1.11778e-14 0 -1.51296e-14 -3.92471e-13 0 0 0 0)
(1.8735e-08 -4.07742e-15 0 -1.86491e-14 -1.04581e-10 0 0 0 0)
(0 0 0 0 0 0 0 0 0)
(0 -2.91195e-16 0 2.72112e-16 -2.53764e-16 0 0 0 0)
(0 1.20371e-31 0 -3.62564e-16 -9.85874e-16 0 0 0 0)
(3.25776e-16 6.53443e-17 0 0 -4.4726e-16 0 0 0 0)
(-3.08335e-16 4.08561e-16 0 -1.49062e-16 -9.68111e-16 0 0 0 0)
(-3.25776e-16 2.2585e-16 0 2.17418e-16 -1.84614e-16 0 0 0 0)
(3.17767e-15 -1.32719e-15 0 2.86637e-16 -6.05862e-16 0 0 0 0)
(2.98029e-12 -2.13652e-13 0 -1.00408e-15 -1.37033e-16 0 0 0 0)
(5.0795e-10 -5.23321e-11 0 -1.52311e-12 -8.35602e-14 0 0 0 0)
(1.4977e-08 -1.77957e-09 0 -3.12526e-10 -1.57161e-11 0 0 0 0)
(0 -2.53764e-16 0 0 0 0 0 0 0)
(0 -1.08167e-15 0 0 2.53764e-16 0 0 0 0)
(0 -1.93495e-16 0 0 1.37287e-15 0 0 0 0)
(0 1.1356e-16 0 0 4.4726e-16 0 0 0 0)
(0 2.62646e-16 0 -3.25776e-16 1.19396e-15 0 0 0 0)
(0 9.68111e-16 0 3.08335e-16 -2.23947e-16 0 0 0 0)
(2.30862e-15 4.75808e-17 0 0 0 0 0 0 0)
(2.09142e-12 -8.08658e-14 0 -5.60713e-16 1.05566e-15 0 0 0 0)
(3.26187e-10 -1.57272e-11 0 -8.88876e-13 2.94518e-13 0 0 0 0)
(9.5903e-09 -5.54506e-10 0 -1.81765e-10 6.80603e-11 0 0 0 0)
(5.67466e-07 4.35248e-08 -8.45492e-25 9.35437e-09 -5.95635e-09 1.26824e-24 2.36278e-25 1.25912e-24 -2.29171e-40)
(1.00214e-05 1.1263e-06 0 4.77949e-07 -3.45923e-07 0 -1.06165e-22 -1.07341e-23 0)
(5.87359e-05 1.34668e-05 0 9.24463e-06 -7.90844e-06 0 -2.28681e-21 -2.53177e-22 0)
(0.000111329 7.10802e-05 0 6.65674e-05 -6.47701e-05 0 0 0 0)
(-0.00771212 0.000186308 2.92354e-20 0.0002029 -0.00022937 -4.38531e-20 -9.92487e-20 -6.61658e-20 -7.92427e-36)
(8.22112e-07 1.01795e-07 0 7.93799e-09 -4.8061e-10 0 1.92662e-24 1.82808e-25 0)
(1.33388e-05 1.73373e-06 0 3.33935e-07 -3.30041e-08 0 1.06165e-22 1.07341e-23 0)
(7.59138e-05 1.16468e-05 0 4.9207e-06 -9.42064e-07 0 2.28681e-21 2.53177e-22 0)
(0.000157982 3.19129e-05 0 2.86503e-05 -1.17002e-05 0 0 0 0)
(-0.00802472 -8.74075e-05 0 7.55619e-05 -6.17396e-05 0 0 0 0)
(9.68053e-07 -1.62297e-13 0 9.34793e-14 -3.0854e-09 0 0 0 0)
(1.48755e-05 2.95938e-13 0 -4.25393e-13 -1.71604e-07 0 0 0 0)
(8.31632e-05 1.09299e-13 0 9.47365e-13 -3.72022e-06 0 0 0 0)
(0.00017866 -4.21551e-13 0 -5.99575e-13 -3.45418e-05 0 0 0 0)
(-0.00829788 2.42156e-13 0 -4.71949e-14 -0.000150106 0 0 0 0)
(8.22112e-07 -1.01796e-07 0 -7.9377e-09 -4.80571e-10 0 1.92665e-24 -1.82802e-25 0)
(1.33388e-05 -1.73373e-06 0 -3.33935e-07 -3.30037e-08 0 1.06165e-22 -1.07341e-23 0)
(7.59138e-05 -1.16468e-05 0 -4.9207e-06 -9.42065e-07 0 2.28681e-21 -2.53177e-22 0)
(0.000157982 -3.19129e-05 0 -2.86503e-05 -1.17002e-05 0 0 0 0)
(-0.00802472 8.74075e-05 0 -7.55619e-05 -6.17396e-05 0 0 0 0)
(5.67465e-07 -4.35249e-08 8.4553e-25 -9.35438e-09 -5.95666e-09 1.2683e-24 -4.08961e-24 1.62478e-24 -2.29181e-40)
(1.00214e-05 -1.1263e-06 0 -4.77949e-07 -3.45922e-07 0 -1.06165e-22 1.07341e-23 0)
(5.87359e-05 -1.34668e-05 0 -9.24463e-06 -7.90844e-06 0 -2.28681e-21 2.53177e-22 0)
(0.000111329 -7.10802e-05 8.47374e-21 -6.65674e-05 -6.47701e-05 1.27106e-20 -2.54086e-20 1.69391e-20 -2.29681e-36)
(-0.00771212 -0.000186308 -2.92354e-20 -0.0002029 -0.00022937 -4.38531e-20 9.92487e-20 -6.61658e-20 -7.92427e-36)
(-0.0659242 -0.000591595 2.50129e-20 -0.00271834 -0.00803069 2.25116e-19 -4.24857e-18 2.21109e-19 -6.77976e-36)
(-0.188381 0.00523743 -1.5081e-19 -0.0229429 -0.0489359 -1.35729e-18 2.61711e-17 -1.35734e-18 -4.08772e-35)
(-0.348308 0.0704059 0 -0.0200977 -0.0647926 0 0 0 0)
(-0.464977 0.224206 -5.34064e-19 0.222507 0.182169 -4.80658e-18 -1.23431e-16 1.99455e-17 1.44758e-34)
(-0.856579 0.145348 2.15747e-18 0.956224 0.718098 1.94172e-17 9.77184e-17 -1.08576e-17 5.84783e-34)
(-0.0713704 -0.000940873 0 -0.0032076 -0.000105712 0 2.16522e-18 1.03746e-20 0)
(-0.191611 0.0111328 0 -0.0314049 -0.00096743 0 -1.3431e-17 -5.82265e-20 0)
(-0.261559 0.0870068 0 -0.0211356 -0.030128 0 0 0 0)
(-0.0774575 0.232522 0 0.356055 -0.199825 0 7.02755e-17 -1.43904e-17 0)
(0.261591 0.0506353 0 1.33308 -0.502625 0 -7.19306e-18 4.33674e-18 0)
(-0.0754125 2.29836e-14 0 -8.80936e-14 0.000900383 0 0 0 0)
(-0.192962 -8.63499e-14 0 -4.95912e-14 0.00580158 0 0 0 0)
(-0.197247 -5.63733e-15 0 3.03677e-14 -0.0635683 0 0 0 0)
(0.107251 1.84043e-14 0 -2.14803e-14 -0.444793 0 -2.38209e-17 1.58384e-30 0)
(0.472533 5.38063e-14 0 1.25222e-13 -1.15198 0 1.43861e-17 1.10469e-30 0)
(-0.0713704 0.000940873 0 0.0032076 -0.000105712 0 2.16522e-18 -1.03746e-20 0)
(-0.191611 -0.0111328 0 0.0314049 -0.00096743 0 -1.3431e-17 5.82265e-20 0)
(-0.261559 -0.0870068 0 0.0211356 -0.030128 0 0 0 0)
(-0.0774575 -0.232522 0 -0.356055 -0.199825 0 7.02755e-17 1.43904e-17 0)
(0.261591 -0.0506353 0 -1.33308 -0.502625 0 -7.19306e-18 -4.33674e-18 0)
(-0.0659242 0.000591595 0 0.00271834 -0.00803069 0 -2.16522e-18 1.03746e-20 0)
(-0.188381 -0.00523743 1.5081e-19 0.0229429 -0.0489359 -1.35729e-18 6.90965e-19 -1.47379e-18 -4.08772e-35)
(-0.348308 -0.0704059 0 0.0200977 -0.0647926 0 0 0 0)
(-0.464977 -0.224206 5.34064e-19 -0.222507 0.182169 -4.80658e-18 6.70118e-18 -5.48635e-18 1.44758e-34)
(-0.856579 -0.145348 -2.15747e-18 -0.956224 0.718098 1.94172e-17 -9.77184e-17 -1.08576e-17 5.84783e-34)
(-0.0511213 -0.451767 0 5.7573 0.0761699 0 0 0 0)
(0.691359 -0.218595 0 1.55427 0.364243 0 0 0 0)
(0.280603 0.281163 0 0.49572 0.100362 0 0 0 0)
(0.26474 0.129121 0 0.0619424 0.0266604 0 0 0 0)
(0.0933269 0.0208041 0 0.000764982 0.00453764 0 0 0 0)
(0.0127472 0.000710258 0 -0.000111954 0.000178442 0 0 0 0)
(0.000422242 -7.37223e-07 0 -9.55039e-07 9.02135e-07 0 0 0 0)
(2.12788e-06 -5.00212e-08 0 -5.99819e-10 4.27741e-10 0 0 0 0)
(1.09635e-09 -3.27144e-11 0 -2.2391e-14 2.5034e-15 0 0 0 0)
(4.82562e-14 -4.86556e-17 0 -2.0842e-16 -1.38502e-16 0 0 0 0)
(3.96643e-17 -5.41923e-16 0 -1.39747e-16 -5.71254e-16 0 0 0 0)
(-2.20945e-17 -2.49989e-16 0 4.95938e-16 3.89922e-15 0 0 0 0)
(-3.02566e-16 7.13057e-17 0 4.27757e-16 1.52421e-15 0 0 0 0)
(-8.04222e-17 7.04668e-17 0 -7.07125e-16 7.26575e-16 0 0 0 0)
(7.86385e-16 1.95461e-16 0 8.48377e-18 3.27888e-16 0 0 0 0)
(-7.03068e-17 -2.15595e-16 0 3.44896e-16 1.87899e-15 0 0 0 0)
(-7.95755e-16 1.65261e-16 0 1.55974e-16 4.07234e-16 0 0 0 0)
(-3.0585e-16 6.3504e-16 0 -2.46253e-16 1.03507e-15 0 0 0 0)
(4.19114e-16 -1.12411e-16 0 -1.03442e-15 4.78695e-15 0 0 0 0)
(4.98462e-16 -4.0099e-16 0 4.65231e-16 3.49276e-15 0 0 0 0)
(-8.34192e-17 -3.89245e-16 0 2.79475e-17 2.45087e-16 0 0 0 0)
(-1.2323e-16 1.5855e-16 0 7.19105e-16 3.48224e-15 0 0 0 0)
(-4.87468e-16 1.90931e-15 0 6.57437e-16 1.57924e-15 0 0 0 0)
(-1.18571e-16 -3.22134e-16 0 -1.38402e-15 4.9547e-15 0 0 0 0)
(1.01397e-15 -1.30028e-15 0 -1.69317e-15 3.88431e-15 0 0 0 0)
(4.49333e-16 -1.06539e-16 0 6.07251e-17 -9.44311e-16 0 0 0 0)
(-9.68443e-16 -7.13057e-17 0 8.51668e-16 -5.03916e-15 0 0 0 0)
(-3.33345e-16 1.359e-15 0 8.08347e-16 4.20468e-16 0 0 0 0)
(4.00552e-16 1.58634e-15 0 9.04853e-16 -2.44223e-16 0 0 0 0)
(2.74133e-16 -8.3134e-16 0 -3.62903e-16 -3.17182e-15 0 0 0 0)
(7.96649e-14 -1.16186e-15 0 -1.12263e-15 -1.14861e-15 0 0 0 0)
(1.69508e-09 -4.97965e-15 0 -9.03786e-15 -3.46476e-14 0 0 0 0)
(3.32074e-06 -1.00847e-13 0 7.03989e-15 -1.01771e-13 0 0 0 0)
(0.000669274 1.06181e-14 0 -2.31957e-13 -2.96313e-13 0 0 0 0)
(0.0206433 1.34782e-13 0 1.53222e-13 4.21053e-13 0 0 0 0)
(0.157492 1.53141e-13 0 1.35032e-13 -1.91223e-13 0 0 0 0)
(0.481968 -1.97951e-14 0 6.75162e-14 -1.23051e-13 0 0 0 0)
(0.735339 -6.11562e-14 0 -3.44973e-14 -2.6367e-13 0 0 0 0)
(2.52385 4.14976e-14 0 5.91383e-15 -3.17801e-13 0 0 0 0)
(2.13297 -4.20525e-14 0 1.18277e-13 -2.69657e-13 0 0 0 0)
(0.133584 -0.366894 0 3.89547 -0.305125 0 0 0 0)
(-0.121748 -0.168883 0 1.36016 1.03801 0 0 0 0)
(0.00209122 0.176828 0 0.452133 0.446295 0 0 0 0)
(0.17302 0.0852125 0 0.0444149 0.0715116 0 0 0 0)
(0.0859177 0.0145094 0 -0.00463361 0.00244134 0 0 0 0)
(0.0134438 4.38599e-06 0 -0.000339513 -2.53432e-06 0 0 0 0)
(0.000475369 -3.15805e-05 0 -2.23544e-06 -1.71948e-07 0 0 0 0)
(2.47551e-06 -2.17957e-07 0 -1.28628e-09 -1.12601e-10 0 0 0 0)
(1.29622e-09 -1.16182e-10 0 -5.06655e-14 1.96033e-14 0 0 0 0)
(5.57221e-14 -2.76834e-16 0 8.52776e-17 -3.74879e-16 0 0 0 0)
(2.30636e-16 1.10901e-15 0 4.45918e-16 -1.29766e-15 0 0 0 0)
(1.53244e-16 3.20456e-16 0 -1.57534e-16 5.727e-15 0 0 0 0)
(-5.12227e-16 -8.22113e-16 0 -2.49747e-17 -3.46042e-16 0 0 0 0)
(-1.65095e-16 -3.81695e-16 0 -1.01045e-15 3.76609e-15 0 0 0 0)
(7.78113e-16 2.01334e-16 0 -2.84855e-16 -1.54854e-15 0 0 0 0)
(5.2056e-18 8.3889e-19 0 -7.52577e-17 6.92085e-16 0 0 0 0)
(-6.49066e-16 -1.34222e-16 0 2.21347e-16 0 0 0 0 0)
(-5.10303e-16 1.32125e-15 0 6.9849e-16 3.74879e-16 0 0 0 0)
(4.3172e-16 5.62057e-16 0 4.10753e-16 2.26369e-15 0 0 0 0)
(5.76343e-16 -1.31035e-15 0 -8.38892e-16 4.05446e-15 0 0 0 0)
(2.91222e-17 4.36223e-17 0 -6.83891e-18 3.8353e-16 0 0 0 0)
(1.17044e-16 6.71951e-16 0 8.77565e-16 7.00447e-15 0 0 0 0)
(-8.73214e-16 1.20549e-15 0 2.56994e-16 2.67894e-15 0 0 0 0)
(-7.47396e-16 2.718e-16 0 -1.12116e-16 -8.88175e-16 0 0 0 0)
(1.05245e-15 -2.23732e-15 0 -2.16186e-15 5.40691e-15 0 0 0 0)
(9.81265e-16 -2.21048e-15 0 -2.73682e-15 1.67831e-15 0 0 0 0)
(-3.96836e-16 5.84707e-16 0 1.53743e-15 -1.25152e-15 0 0 0 0)
(-1.63278e-16 1.9823e-15 0 1.8055e-15 2.59532e-15 0 0 0 0)
(-1.19361e-16 -1.40934e-16 0 -3.00924e-16 -4.53027e-15 0 0 0 0)
(-3.76221e-16 -7.24801e-16 0 -7.32728e-16 -1.1304e-14 0 0 0 0)
(7.4269e-14 -8.76137e-15 0 -8.16828e-16 -3.3047e-15 0 0 0 0)
(1.69508e-09 -1.52905e-14 0 -2.15636e-14 -5.54533e-15 0 0 0 0)
(3.32074e-06 -1.10023e-13 0 -1.15016e-14 1.25512e-13 0 0 0 0)
(0.000669274 7.07816e-14 0 -2.92262e-13 -2.89949e-13 0 0 0 0)
(0.0206433 1.23977e-13 0 2.77679e-13 1.15507e-13 0 0 0 0)
(0.157492 4.42444e-14 0 -3.43741e-14 -8.54024e-14 0 0 0 0)
(0.481968 -3.55187e-14 0 1.09652e-14 -3.7307e-13 0 0 0 0)
(0.735339 -1.07244e-13 0 -1.06942e-13 -2.60646e-13 0 0 0 0)
(2.52385 -2.47696e-15 0 -8.87075e-15 -4.3395e-13 0 0 0 0)
(2.13297 -2.52125e-14 0 -3.15404e-14 -5.6748e-13 0 0 0 0)
(0.142294 8.79338e-14 0 2.76841e-13 -0.575207 0 0 0 0)
(-0.310338 -3.90982e-14 0 -2.77211e-16 1.31523 0 0 0 0)
(-0.102158 -9.85219e-14 0 -2.13391e-13 0.585865 0 0 0 0)
(0.131863 4.35894e-15 0 -1.0263e-13 0.0995353 0 0 0 0)
(0.0803075 9.75322e-14 0 1.09406e-13 2.86553e-05 0 0 0 0)
(0.0140945 -4.87409e-14 0 -8.01678e-14 -0.000217116 0 0 0 0)
(0.000521009 -9.95635e-14 0 2.16759e-17 -1.49846e-06 0 0 0 0)
(2.77819e-06 2.79258e-14 0 1.31686e-13 -7.98846e-10 0 0 0 0)
(1.47054e-09 4.20922e-14 0 -1.56972e-14 1.02054e-14 0 0 0 0)
(6.3125e-14 -6.12893e-15 0 -2.32883e-16 2.5982e-15 0 0 0 0)
(-3.09717e-17 1.23317e-15 0 6.64816e-16 -1.42166e-15 0 0 0 0)
(-1.59082e-16 2.68445e-17 0 -9.43984e-16 -8.33385e-16 0 0 0 0)
(-5.50687e-16 -4.9914e-16 0 -5.78328e-17 -9.11245e-16 0 0 0 0)
(-1.56024e-16 -2.79351e-16 0 6.19367e-16 4.36302e-15 0 0 0 0)
(1.05844e-15 -6.98796e-16 0 -7.1615e-16 8.16083e-16 0 0 0 0)
(7.69521e-17 2.34889e-16 0 -7.07401e-16 -6.92085e-16 0 0 0 0)
(-5.70665e-16 7.29835e-17 0 -2.04768e-16 0 0 0 0 0)
(-2.5075e-16 1.29357e-15 0 4.05531e-16 -2.30695e-16 0 0 0 0)
(-2.81243e-17 9.58013e-16 0 1.85433e-15 -2.77699e-15 0 0 0 0)
(3.76981e-16 -9.47946e-16 0 -1.25838e-15 -8.82408e-16 0 0 0 0)
(4.15914e-16 4.6894e-16 0 3.31659e-16 -4.37711e-31 0 0 0 0)
(-4.64789e-17 8.26307e-16 0 6.68506e-16 -1.32361e-15 0 0 0 0)
(-7.75375e-16 -3.86728e-16 0 -5.5588e-16 -2.39923e-15 0 0 0 0)
(-8.22237e-16 4.71456e-16 0 6.80284e-17 -6.37295e-15 0 0 0 0)
(2.50422e-16 -5.53668e-16 0 -7.7483e-17 -1.29766e-16 0 0 0 0)
(1.52549e-15 -2.04354e-15 0 -1.50345e-15 5.51649e-15 0 0 0 0)
(3.52961e-16 1.95461e-16 0 1.26439e-15 4.51585e-15 0 0 0 0)
(-8.6814e-16 4.05184e-16 0 7.24299e-16 -1.08715e-15 0 0 0 0)
(-3.37842e-16 -2.45711e-15 0 -2.6949e-15 -2.49727e-15 0 0 0 0)
(1.24051e-16 -4.74812e-16 0 -5.80079e-16 -3.97084e-15 0 0 0 0)
(7.3605e-14 5.13401e-16 0 6.84134e-16 -9.74686e-16 0 0 0 0)
(1.69507e-09 3.24944e-14 0 -2.89679e-15 2.72652e-14 0 0 0 0)
(3.32074e-06 -1.83583e-13 0 8.25007e-14 2.03588e-13 0 0 0 0)
(0.000669274 7.70756e-15 0 -4.6115e-13 -4.451e-13 0 0 0 0)
(0.0206433 1.94287e-13 0 4.39354e-13 1.6068e-14 0 0 0 0)
(0.157492 1.1009e-14 0 6.83787e-15 3.3462e-14 0 0 0 0)
(0.481968 -7.07751e-14 0 5.79063e-14 -3.48381e-13 0 0 0 0)
(0.735339 -7.88668e-14 0 -1.03985e-13 -1.58267e-13 0 0 0 0)
(2.52385 -4.7763e-14 0 -1.00535e-13 -1.78048e-13 0 0 0 0)
(2.13297 -8.08976e-14 0 -2.24726e-13 -1.3996e-13 0 0 0 0)
(0.133584 0.366894 0 -3.89547 -0.305125 0 0 0 0)
(-0.121748 0.168883 0 -1.36016 1.03801 0 0 0 0)
(0.00209122 -0.176828 0 -0.452133 0.446295 0 0 0 0)
(0.17302 -0.0852125 0 -0.0444149 0.0715116 0 0 0 0)
(0.0859177 -0.0145094 0 0.00463361 0.00244134 0 0 0 0)
(0.0134438 -4.38599e-06 0 0.000339513 -2.53432e-06 0 0 0 0)
(0.000475369 3.15805e-05 0 2.23544e-06 -1.71948e-07 0 0 0 0)
(2.47551e-06 2.17957e-07 0 1.28631e-09 -1.12144e-10 0 0 0 0)
(1.29618e-09 1.16211e-10 0 3.82135e-14 -4.30794e-14 0 0 0 0)
(6.0482e-14 -3.65924e-15 0 -9.51288e-16 -6.22876e-16 0 0 0 0)
(2.37709e-17 1.10734e-16 0 3.9687e-16 -1.41012e-15 0 0 0 0)
(-5.69808e-17 4.6894e-16 0 2.5193e-16 -4.1179e-15 0 0 0 0)
(-5.74341e-17 6.89568e-16 0 -2.88706e-16 -9.14128e-16 0 0 0 0)
(-3.56606e-16 1.208e-16 0 2.09509e-15 -6.08458e-16 0 0 0 0)
(3.92144e-16 -1.26924e-15 0 -2.22714e-16 2.33579e-15 0 0 0 0)
(1.53971e-16 -2.36567e-16 0 -1.78045e-15 0 0 0 0 0)
(-3.25304e-16 0 0 -5.00526e-16 0 0 0 0 0)
(8.8709e-17 5.13401e-16 0 1.15011e-16 -2.50881e-16 0 0 0 0)
(-5.23274e-17 3.72467e-16 0 9.27809e-16 -5.27138e-15 0 0 0 0)
(1.33383e-16 -5.02495e-16 0 1.96497e-16 -4.51008e-15 0 0 0 0)
(5.89671e-16 -8.47279e-17 0 -3.6808e-16 -1.18808e-15 0 0 0 0)
(-1.41149e-16 -2.60056e-17 0 -1.13644e-15 -5.15603e-15 0 0 0 0)
(-1.0479e-15 -2.63412e-16 0 -2.08282e-16 -6.90643e-15 0 0 0 0)
(-6.08226e-16 9.32007e-16 0 6.33125e-16 -6.18839e-15 0 0 0 0)
(5.95296e-16 1.22142e-15 0 1.97195e-15 -5.23101e-15 0 0 0 0)
(1.37163e-15 -8.59024e-16 0 3.96306e-16 5.73853e-16 0 0 0 0)
(2.51236e-16 -1.33635e-15 0 -1.07535e-15 1.37552e-15 0 0 0 0)
(-1.31507e-15 -5.78834e-17 0 3.77047e-16 -7.32168e-15 0 0 0 0)
(-4.98817e-16 -9.79824e-16 0 -6.0475e-16 -7.78595e-16 0 0 0 0)
(6.06772e-16 -2.81867e-16 0 8.81902e-16 4.31976e-15 0 0 0 0)
(7.35951e-14 3.25489e-16 0 1.76587e-16 -5.07529e-16 0 0 0 0)
(1.6951e-09 4.42188e-14 0 -3.20067e-16 1.71579e-15 0 0 0 0)
(3.32074e-06 -2.47439e-13 0 9.75451e-14 -1.00635e-13 0 0 0 0)
(0.000669274 1.62303e-14 0 -5.96644e-13 6.74264e-14 0 0 0 0)
(0.0206433 2.63195e-13 0 7.18369e-13 6.17425e-14 0 0 0 0)
(0.157492 -6.17772e-14 0 1.53698e-14 -6.18511e-14 0 0 0 0)
(0.481968 -9.12944e-14 0 1.15813e-14 -6.32706e-13 0 0 0 0)
(0.735339 -5.76921e-14 0 -1.28133e-13 -1.30679e-14 0 0 0 0)
(2.52385 2.84874e-15 0 -1.42918e-13 -3.62048e-13 0 0 0 0)
(2.13297 -1.41323e-14 0 -5.12532e-14 7.38598e-14 0 0 0 0)
(-0.0511213 0.451767 0 -5.7573 0.0761699 0 0 0 0)
(0.691359 0.218595 0 -1.55427 0.364243 0 0 0 0)
(0.280603 -0.281163 0 -0.49572 0.100362 0 0 0 0)
(0.26474 -0.129121 0 -0.0619424 0.0266604 0 0 0 0)
(0.0933269 -0.0208041 0 -0.000764982 0.00453764 0 0 0 0)
(0.0127472 -0.000710258 0 0.000111954 0.000178442 0 0 0 0)
(0.000422242 7.37223e-07 0 9.55039e-07 9.02135e-07 0 0 0 0)
(2.12788e-06 5.00212e-08 0 5.99668e-10 4.28048e-10 0 0 0 0)
(1.09634e-09 3.26657e-11 0 3.12266e-14 -2.3224e-14 0 0 0 0)
(5.21238e-14 5.99303e-15 0 -4.07271e-16 -1.14856e-15 0 0 0 0)
(3.19055e-16 2.16434e-16 0 -7.31393e-17 4.29792e-16 0 0 0 0)
(-3.58522e-16 1.71134e-16 0 7.23615e-16 -1.72495e-15 0 0 0 0)
(-1.44961e-17 5.2179e-16 0 -6.74463e-16 -6.23691e-16 0 0 0 0)
(-1.36826e-16 6.66079e-16 0 6.1721e-16 -3.80574e-15 0 0 0 0)
(-6.8988e-17 -5.2179e-16 0 4.55808e-16 1.57752e-16 0 0 0 0)
(-3.86596e-18 -4.44612e-16 0 -8.5163e-16 1.45747e-16 0 0 0 0)
(-1.92574e-17 0 0 -1.01974e-16 0 0 0 0 0)
(1.64766e-16 -2.39923e-16 0 2.61377e-16 -3.22985e-18 0 0 0 0)
(-4.41909e-18 -2.81028e-16 0 -1.02154e-16 -2.7198e-15 0 0 0 0)
(-5.12107e-21 2.39923e-16 0 4.48601e-16 -1.99499e-15 0 0 0 0)
(2.81498e-17 2.81028e-16 0 -5.60551e-16 -3.74879e-17 0 0 0 0)
(7.79099e-21 -8.37213e-16 0 -1.52643e-15 -1.19743e-15 0 0 0 0)
(-2.60592e-16 -6.87051e-16 0 -7.54242e-17 -2.41627e-15 0 0 0 0)
(-1.87989e-16 9.58852e-16 0 1.4779e-15 -2.18014e-15 0 0 0 0)
(1.81529e-16 1.41353e-15 0 1.80804e-15 -3.02576e-15 0 0 0 0)
(6.39004e-16 -1.21639e-16 0 -2.25976e-16 -2.77157e-15 0 0 0 0)
(3.47359e-16 -2.10142e-15 0 -1.72944e-15 -6.56402e-16 0 0 0 0)
(-7.31237e-16 -2.21467e-16 0 -3.41457e-16 -3.2848e-15 0 0 0 0)
(-1.90976e-16 9.29491e-16 0 1.31715e-15 -1.27989e-15 0 0 0 0)
(3.5135e-16 -3.95956e-16 0 1.31807e-15 2.6764e-15 0 0 0 0)
(7.32553e-14 -2.44117e-16 0 -1.23984e-16 -9.05987e-16 0 0 0 0)
(1.6951e-09 3.36647e-15 0 -1.50714e-16 1.23836e-15 0 0 0 0)
(3.32074e-06 -1.64467e-13 0 -2.74384e-14 -2.18937e-13 0 0 0 0)
(0.000669274 5.49446e-14 0 -3.05785e-13 5.1542e-13 0 0 0 0)
(0.0206433 1.56679e-13 0 5.27222e-13 1.31015e-13 0 0 0 0)
(0.157492 -1.91012e-13 0 -1.43564e-13 -6.04334e-14 0 0 0 0)
(0.481968 -5.65837e-14 0 -2.11789e-13 -5.158e-13 0 0 0 0)
(0.735339 -1.30027e-16 0 -5.61814e-14 4.35855e-14 0 0 0 0)
(2.52385 -2.2475e-14 0 -3.84399e-14 -1.548e-13 0 0 0 0)
(2.13297 4.59119e-14 0 8.27936e-14 -4.64604e-14 0 0 0 0)
(1.89782 0.321828 0 -3.04911 0.14038 0 0 0 0)
(2.23854 0.126579 0 -0.720231 -0.230674 0 0 0 0)
(0.616155 -0.267947 0 -0.274148 -0.119011 0 0 0 0)
(0.37744 -0.0945511 0 -0.0693293 -0.00863009 0 0 0 0)
(0.116276 -0.0238426 0 -0.00756097 0.00120653 0 0 0 0)
(0.0147297 -0.002034 0 -0.000214213 5.84828e-05 0 0 0 0)
(0.000466571 -4.46887e-05 0 -9.49785e-07 2.98905e-07 0 0 0 0)
(2.27839e-06 -1.53751e-07 0 -4.47089e-10 1.3969e-10 0 0 0 0)
(1.15108e-09 -5.56941e-11 0 -1.32884e-14 1.08105e-14 0 0 0 0)
(5.05127e-14 1.77275e-17 0 -3.50339e-16 5.09133e-16 0 0 0 0)
(3.91722e-16 -3.73037e-16 0 -5.33175e-16 6.04746e-16 0 0 0 0)
(-8.55181e-17 1.52456e-16 0 1.57693e-16 -8.08073e-17 0 0 0 0)
(-1.73826e-16 -4.21661e-16 0 -1.20325e-16 4.16762e-16 0 0 0 0)
(9.82624e-17 -1.95002e-17 0 -2.46489e-16 -9.50707e-16 0 0 0 0)
(3.965e-18 3.4518e-16 0 3.00135e-16 -5.1509e-16 0 0 0 0)
(-1.3411e-17 -9.49687e-17 0 -1.69503e-16 6.10389e-16 0 0 0 0)
(1.89895e-17 -9.34492e-17 0 2.38262e-16 1.18526e-16 0 0 0 0)
(6.55469e-19 -3.21627e-16 0 -1.17038e-16 -1.1274e-18 0 0 0 0)
(9.71869e-18 -1.21307e-16 0 -1.01074e-19 2.17965e-16 0 0 0 0)
(7.31936e-20 3.21627e-16 0 -6.50934e-19 7.68339e-16 0 0 0 0)
(4.75593e-20 -7.34425e-18 0 5.08033e-19 1.41916e-17 0 0 0 0)
(-5.42887e-20 -5.80196e-16 0 -4.48778e-17 -7.27174e-17 0 0 0 0)
(-7.36863e-17 -3.90005e-16 0 3.58716e-19 9.17742e-16 0 0 0 0)
(8.73192e-17 5.18656e-16 0 1.45409e-16 7.76911e-16 0 0 0 0)
(4.91774e-18 6.28313e-16 0 5.25655e-16 -4.02403e-16 0 0 0 0)
(-2.39145e-19 -2.25392e-16 0 -1.09118e-16 -1.09826e-15 0 0 0 0)
(6.76566e-17 -7.73679e-16 0 -4.61176e-16 -3.368e-16 0 0 0 0)
(-7.90876e-17 -2.59834e-16 0 -4.84451e-16 1.8213e-15 0 0 0 0)
(1.86216e-16 5.51832e-16 0 4.97938e-16 -7.65529e-17 0 0 0 0)
(-1.88198e-18 8.45855e-17 0 3.56953e-16 6.46582e-16 0 0 0 0)
(7.30666e-14 8.2053e-17 0 -3.85641e-17 7.2711e-16 0 0 0 0)
(1.69509e-09 -4.53105e-14 0 -8.14849e-17 8.35164e-16 0 0 0 0)
(3.32074e-06 -2.08417e-14 0 -1.18021e-13 -1.14129e-13 0 0 0 0)
(0.000669274 1.90982e-13 0 6.2756e-14 2.82954e-13 0 0 0 0)
(0.0206433 2.51363e-14 0 2.46409e-13 -1.03057e-14 0 0 0 0)
(0.157492 -3.18078e-13 0 -2.31504e-13 1.07523e-13 0 0 0 0)
(0.481968 -6.61804e-14 0 -2.41165e-13 1.02881e-13 0 0 0 0)
(0.735339 1.02197e-13 0 -1.77043e-14 4.98114e-14 0 0 0 0)
(2.52385 -2.4354e-14 0 -8.03388e-15 1.84591e-13 0 0 0 0)
(2.13297 -1.56002e-14 0 2.61845e-14 1.09257e-13 0 0 0 0)
(2.1398 0.0701163 0 -0.411009 0.0324881 0 0 0 0)
(2.53576 0.0179777 0 -0.165782 -0.294093 0 0 0 0)
(0.727902 -0.0742804 0 -0.112788 -0.0963647 0 0 0 0)
(0.4612 -0.0318123 0 -0.0421001 -0.0233783 0 0 0 0)
(0.147623 -0.0108021 0 -0.00597384 -0.00194422 0 0 0 0)
(0.0189692 -0.00116279 0 -0.000203705 -4.15301e-05 0 0 0 0)
(0.000604894 -3.126e-05 0 -1.04363e-06 -1.38382e-07 0 0 0 0)
(2.96242e-06 -1.28746e-07 0 -5.43185e-10 -4.83234e-11 0 0 0 0)
(1.49782e-09 -5.45626e-11 0 -2.30428e-14 -1.24833e-16 0 0 0 0)
(6.52792e-14 -6.3743e-16 0 1.42853e-16 -5.61355e-16 0 0 0 0)
(7.69647e-16 -3.59615e-17 0 -6.55684e-21 3.9421e-17 0 0 0 0)
(-1.07078e-16 1.05711e-30 0 -1.46195e-16 -1.74241e-16 0 0 0 0)
(-3.18542e-16 1.89431e-16 0 3.26076e-16 -8.98798e-17 0 0 0 0)
(1.42282e-16 1.35742e-16 0 3.95695e-16 7.27448e-16 0 0 0 0)
(-3.39208e-17 5.17643e-16 0 -3.25017e-16 4.46771e-18 0 0 0 0)
(-5.83708e-17 -2.15262e-17 0 -2.82221e-16 1.7608e-17 0 0 0 0)
(1.07904e-17 -5.39169e-16 0 -1.63828e-16 4.81199e-16 0 0 0 0)
(2.3072e-17 -1.00287e-16 0 -2.2153e-16 1.7608e-16 0 0 0 0)
(1.00154e-16 3.7481e-16 0 -7.05089e-19 3.33764e-16 0 0 0 0)
(5.39841e-19 -2.5325e-19 0 -4.09894e-18 1.49274e-16 0 0 0 0)
(6.00539e-19 -3.7481e-16 0 1.57295e-17 1.23881e-32 0 0 0 0)
(-1.02807e-19 -1.04339e-16 0 -5.86903e-20 1.47697e-16 0 0 0 0)
(-1.77449e-16 -2.76042e-17 0 3.16559e-18 9.86839e-16 0 0 0 0)
(1.70577e-16 -7.72412e-17 0 4.75616e-17 5.6372e-16 0 0 0 0)
(3.0962e-17 2.76042e-17 0 -8.55195e-17 2.38103e-16 0 0 0 0)
(3.08391e-17 -2.78575e-18 0 6.71701e-17 -2.29956e-16 0 0 0 0)
(1.35659e-16 5.51681e-30 0 1.64423e-17 5.40593e-16 0 0 0 0)
(-1.56702e-16 4.98902e-17 0 -8.39663e-17 6.91181e-16 0 0 0 0)
(4.17571e-16 7.76318e-31 0 -8.30194e-18 5.67399e-16 0 0 0 0)
(2.37708e-17 1.208e-16 0 -1.47485e-16 1.18526e-16 0 0 0 0)
(7.2934e-14 -2.37295e-16 0 -4.02193e-18 4.79622e-16 0 0 0 0)
(1.69499e-09 -8.12107e-14 0 -1.04506e-15 -4.63591e-16 0 0 0 0)
(3.32074e-06 3.03758e-14 0 -1.5843e-13 4.42903e-14 0 0 0 0)
(0.000669274 8.20448e-14 0 2.60337e-13 1.17804e-13 0 0 0 0)
(0.0206433 5.81651e-14 0 -4.93333e-14 -2.62623e-13 0 0 0 0)
(0.157492 -1.38045e-14 0 8.48951e-14 1.42422e-13 0 0 0 0)
(0.481968 -1.07051e-13 0 -1.33377e-13 2.981e-13 0 0 0 0)
(0.735339 2.3737e-14 0 -3.60037e-14 1.2353e-13 0 0 0 0)
(2.52385 3.58165e-14 0 4.10621e-14 1.32885e-13 0 0 0 0)
(2.13297 6.30251e-15 0 2.38041e-15 1.99113e-13 0 0 0 0)
(2.13413 0.00712291 0 -0.0109661 -0.0153374 0 0 0 0)
(2.52592 0.00241171 0 -0.0180095 -0.0881025 0 0 0 0)
(0.73534 -0.00707679 0 -0.0232538 -0.034115 0 0 0 0)
(0.48037 -0.00356411 0 -0.0102909 -0.0112025 0 0 0 0)
(0.156649 -0.00135448 0 -0.0017342 -0.00120202 0 0 0 0)
(0.0204853 -0.000160606 0 -6.66689e-05 -3.23008e-05 0 0 0 0)
(0.000662868 -4.66877e-06 0 -3.71043e-07 -1.33004e-07 0 0 0 0)
(3.28407e-06 -2.04014e-08 0 -2.04253e-10 -5.64022e-11 0 0 0 0)
(1.67451e-09 -9.12844e-12 0 -7.63213e-15 -9.9262e-16 0 0 0 0)
(7.27175e-14 1.76009e-16 0 5.44904e-16 1.36922e-16 0 0 0 0)
(1.13186e-16 0 0 -2.11056e-19 0 0 0 0 0)
(2.28707e-16 2.78575e-17 0 -2.39777e-16 1.74241e-16 0 0 0 0)
(3.48358e-16 4.47239e-16 0 3.42171e-16 -2.95657e-16 0 0 0 0)
(-5.29155e-16 7.14165e-17 0 1.22729e-16 7.48999e-17 0 0 0 0)
(-6.493e-16 -3.38848e-16 0 -2.87735e-16 -1.40864e-16 0 0 0 0)
(1.41917e-16 3.64427e-16 0 9.2659e-17 -8.95907e-16 0 0 0 0)
(7.74731e-17 5.92605e-17 0 2.92133e-17 -6.82246e-16 0 0 0 0)
(1.57846e-16 -4.63701e-16 0 1.43194e-16 -1.73978e-16 0 0 0 0)
(2.19244e-16 -1.47138e-16 0 -1.77093e-17 -1.44544e-17 0 0 0 0)
(1.59101e-17 2.64279e-31 0 1.97046e-17 -3.88954e-16 0 0 0 0)
(3.94089e-18 -8.86375e-18 0 1.44299e-16 -1.41916e-17 0 0 0 0)
(-1.21613e-17 3.70758e-16 0 -4.81935e-19 3.71642e-32 0 0 0 0)
(-2.77976e-17 1.08897e-17 0 1.45511e-17 9.40847e-17 0 0 0 0)
(1.85905e-18 -2.02853e-16 0 2.48336e-17 2.86459e-17 0 0 0 0)
(2.38133e-17 -1.36502e-16 0 -1.68752e-16 1.74241e-16 0 0 0 0)
(9.80149e-17 6.60982e-17 0 1.33894e-16 3.50321e-16 0 0 0 0)
(-7.7984e-17 1.13962e-16 0 -2.76748e-17 1.77132e-16 0 0 0 0)
(-1.02932e-16 -2.34003e-16 0 -1.67926e-16 0 0 0 0 0)
(1.25006e-16 0 0 -4.67571e-17 1.25359e-16 0 0 0 0)
(2.2424e-18 0 0 -4.09609e-16 0 0 0 0 0)
(7.22016e-14 -4.78896e-16 0 -9.18307e-17 0 0 0 0 0)
(1.69494e-09 -3.09294e-15 0 -9.95221e-16 4.57021e-16 0 0 0 0)
(3.32074e-06 9.31257e-14 0 -1.67594e-14 1.25338e-13 0 0 0 0)
(0.000669274 -1.04771e-13 0 2.10884e-13 1.97003e-14 0 0 0 0)
(0.0206433 4.88588e-14 0 -3.6836e-13 -1.39704e-13 0 0 0 0)
(0.157492 2.22254e-13 0 3.6026e-13 5.89113e-15 0 0 0 0)
(0.481968 -8.43854e-14 0 -2.8007e-14 1.00934e-13 0 0 0 0)
(0.735339 -5.70092e-14 0 -4.98398e-14 4.85012e-15 0 0 0 0)
(2.52385 4.84804e-14 0 1.87457e-14 2.16938e-14 0 0 0 0)
(2.13297 4.82194e-14 0 1.42825e-14 -5.05383e-15 0 0 0 0)
(2.13302 -2.7732e-06 0 0.000324002 -0.00135011 0 0 0 0)
(2.52392 -0.00011705 0 -0.000880169 -0.00875252 0 0 0 0)
(0.73534 -0.000176812 0 -0.00182207 -0.00386486 0 0 0 0)
(0.481937 -9.61146e-05 0 -0.000881701 -0.00141027 0 0 0 0)
(0.157475 -3.80581e-05 0 -0.000163951 -0.000166669 0 0 0 0)
(0.02064 -4.61215e-06 0 -6.64738e-06 -4.84441e-06 0 0 0 0)
(0.000669138 -1.33802e-07 0 -3.80498e-08 -2.1169e-08 0 0 0 0)
(3.31997e-06 -5.77787e-10 0 -2.12427e-11 -9.45783e-12 0 0 0 0)
(1.69465e-09 -2.11239e-13 0 5.43699e-17 2.35264e-15 0 0 0 0)
(7.26336e-14 3.19095e-16 0 1.28424e-16 0 0 0 0 0)
(1.34994e-17 0 0 -9.90484e-19 1.74241e-16 0 0 0 0)
(2.22854e-16 -2.84906e-16 0 5.63217e-17 0 0 0 0 0)
(3.07821e-17 9.37025e-17 0 2.30901e-16 -2.89087e-17 0 0 0 0)
(-4.64718e-16 2.84906e-16 0 -2.47123e-16 -4.64116e-16 0 0 0 0)
(-6.28976e-17 -4.17862e-16 0 -1.53292e-16 -1.57158e-16 0 0 0 0)
(2.47052e-16 -5.43221e-16 0 2.07595e-16 -5.27978e-16 0 0 0 0)
(5.94882e-17 1.56508e-16 0 1.85949e-16 -6.04981e-16 0 0 0 0)
(-2.21444e-17 5.43221e-16 0 3.30458e-16 -1.73978e-16 0 0 0 0)
(-1.88449e-17 1.67651e-16 0 -9.50907e-17 0 0 0 0 0)
(1.56657e-16 0 0 1.16959e-16 -2.12873e-17 0 0 0 0)
(-1.8852e-17 0 0 3.42193e-16 0 0 0 0 0)
(-1.25133e-16 0 0 -2.79312e-18 -1.20891e-17 0 0 0 0)
(-1.53054e-16 0 0 4.88769e-17 -6.49395e-16 0 0 0 0)
(-6.06048e-18 0 0 -2.79881e-16 7.30602e-17 0 0 0 0)
(1.36057e-16 3.37582e-16 0 -1.12842e-17 -2.41782e-17 0 0 0 0)
(1.66787e-16 6.47482e-30 0 -1.10607e-16 6.27319e-16 0 0 0 0)
(-1.55186e-16 -3.37582e-16 0 1.48708e-17 -9.48732e-17 0 0 0 0)
(-1.75091e-16 0 0 -3.00821e-17 0 0 0 0 0)
(1.84676e-16 0 0 -1.69375e-27 0 0 0 0 0)
(-1.96638e-17 0 0 2.05289e-17 0 0 0 0 0)
(7.23697e-14 2.03106e-16 0 -1.64418e-16 0 0 0 0 0)
(1.69498e-09 3.95695e-14 0 5.37453e-16 5.02486e-16 0 0 0 0)
(3.32074e-06 4.89193e-14 0 7.1812e-14 -1.27606e-14 0 0 0 0)
(0.000669274 -1.73359e-13 0 2.27046e-14 -1.90605e-13 0 0 0 0)
(0.0206433 4.48581e-14 0 -3.52196e-13 5.47993e-14 0 0 0 0)
(0.157492 2.18083e-13 0 3.92833e-13 -9.84273e-14 0 0 0 0)
(0.481968 -1.08054e-13 0 -7.43878e-15 -1.04962e-13 0 0 0 0)
(0.735339 -5.26219e-14 0 -8.52484e-14 -1.83146e-13 0 0 0 0)
(2.52385 2.62727e-14 0 -8.65874e-14 -2.36e-14 0 0 0 0)
(2.13297 -1.94725e-14 0 2.02335e-14 -1.4023e-13 0 0 0 0)
(2.13297 -1.03215e-05 0 3.3458e-05 -0.000225887 0 0 0 0)
(2.52385 -1.16013e-05 0 -1.70466e-05 -0.00022311 0 0 0 0)
(0.735339 -1.53677e-06 0 -3.59735e-05 -0.000104528 0 0 0 0)
(0.481968 -3.99891e-07 0 -1.77142e-05 -3.9633e-05 0 0 0 0)
(0.157492 -1.61258e-07 0 -3.4639e-06 -4.78678e-06 0 0 0 0)
(0.0206433 -1.88917e-08 0 -1.41228e-07 -1.38851e-07 0 0 0 0)
(0.000669274 -5.23293e-10 0 -7.92783e-10 -5.9965e-10 0 0 0 0)
(3.32074e-06 -2.17736e-12 0 -4.24093e-13 -1.97488e-13 0 0 0 0)
(1.69498e-09 -1.45312e-14 0 -6.54059e-15 1.72059e-15 0 0 0 0)
(7.26642e-14 -1.92318e-15 0 1.23935e-16 0 0 0 0 0)
(4.37058e-17 2.14726e-30 0 -3.63508e-18 -1.74241e-16 0 0 0 0)
(4.52166e-16 -1.67905e-16 0 -1.06819e-17 -6.80669e-17 0 0 0 0)
(5.59483e-17 0 0 -1.10908e-16 5.31395e-16 0 0 0 0)
(-8.99377e-16 -5.21695e-17 0 2.37756e-16 -1.28512e-16 0 0 0 0)
(-2.11117e-16 -4.00388e-16 0 1.6952e-16 3.30085e-16 0 0 0 0)
(4.68822e-16 -6.71112e-17 0 -4.19022e-18 5.10107e-16 0 0 0 0)
(1.95868e-16 4.00388e-16 0 -1.78998e-16 5.6372e-16 0 0 0 0)
(-1.12973e-16 1.19281e-16 0 1.48829e-16 1.73978e-16 0 0 0 0)
(1.35083e-17 0 0 -1.5565e-16 0 0 0 0 0)
(4.37292e-16 0 0 1.70309e-16 -1.74241e-16 0 0 0 0)
(-1.11457e-16 0 0 -3.16425e-16 0 0 0 0 0)