/*--------------------------------*- C++ -*----------------------------------*\
| =========                 |                                                 |
| \\      /  F ield         | OpenFOAM: The Open Source CFD Toolbox           |
|  \\    /   O peration     | Version:  v1912                                 |
|   \\  /    A nd           | Website:  www.openfoam.com                      |
|    \\/     M anipulation  |                                                 |
\*---------------------------------------------------------------------------*/
FoamFile
{
    version     2.0;
    format      ascii;
    class       volVectorField;
    location    "4.84";
    object      grad(rho);
}
// * * * * * * * * * * * * * * * * * * * * * * * * * * * * * * * * * * * * * //

dimensions      [1 -4 0 0 0 0 0];


internalField   nonuniform List<vector> 
1900
(
(160683 -0.166129 0)
(-137531 0.0391994 0)
(-17074.8 0.588843 0)
(-4156.37 -0.596243 0)
(-2583.59 2.3246 0)
(-1801.7 10.3438 0)
(-1445.41 18.6479 0)
(-1088.54 24.1481 0)
(-1093.01 -130.633 0)
(-338.832 -153.983 0)
(160683 -0.176126 0)
(-137531 0.188497 0)
(-17075.4 0.823412 0)
(-4154.63 -0.531016 0)
(-2572.65 4.44527 0)
(-1785.38 15.3261 0)
(-1431.6 20.8878 0)
(-1237.82 10.9785 0)
(-1271.14 -168.862 0)
(-1174.92 -186.812 0)
(160683 7.81597e-09 0)
(-137530 -9.23706e-10 0)
(-17075.5 -1.52767e-09 0)
(-4152.75 -1.91847e-09 0)
(-2567.74 -1.16707e-08 0)
(-1785.26 -8.17124e-09 0)
(-1449.75 9.23706e-10 0)
(-1278.29 4.1922e-09 0)
(-1290.8 1.06581e-08 0)
(-1241.6 7.51399e-09 0)
(160683 0.176125 0)
(-137531 -0.188497 0)
(-17075.4 -0.823412 0)
(-4154.63 0.531016 0)
(-2572.65 -4.44527 0)
(-1785.38 -15.3261 0)
(-1431.6 -20.8878 0)
(-1237.82 -10.9785 0)
(-1271.14 168.862 0)
(-1174.92 186.812 0)
(160683 0.166129 0)
(-137531 -0.0391994 0)
(-17074.8 -0.588843 0)
(-4156.37 0.596243 0)
(-2583.59 -2.3246 0)
(-1801.7 -10.3438 0)
(-1445.41 -18.6479 0)
(-1088.54 -24.1481 0)
(-1093.01 130.633 0)
(-338.832 153.983 0)
(-357.764 -866.42 1.32146e-11)
(-1016.62 -862.664 -1.56648e-11)
(-1257.86 -1378.3 -1.97835e-11)
(-1585.24 -1446.69 0)
(-13757.1 -8761.71 -8.37882e-11)
(-980.328 -964.102 1.3058e-11)
(-1008.29 -1026.22 1.56648e-11)
(-1263.57 -1493.7 1.97835e-11)
(-3927.88 -1266.16 0)
(-12737.8 -7035 0)
(-1444.03 3.99037e-09 0)
(-1307.56 2.14254e-09 0)
(-1473.53 1.38161e-09 0)
(-3658.63 3.49888e-09 0)
(-15773.7 4.38802e-09 0)
(-980.328 964.102 1.3058e-11)
(-1008.29 1026.22 1.56648e-11)
(-1263.57 1493.7 1.97835e-11)
(-3927.88 1266.16 0)
(-12737.8 7035 0)
(-357.764 866.42 -3.93306e-11)
(-1016.62 862.664 -1.56648e-11)
(-1257.86 1378.3 -1.97835e-11)
(-1585.24 1446.69 -5.34241e-11)
(-13757.1 8761.71 8.37882e-11)
(-21727.7 11098.6 2.6448e-11)
(-3626.1 2899.25 -2.13575e-11)
(-4571.24 1620.07 0)
(-6835.79 1124.31 1.48205e-11)
(-11655.5 1749.97 -6.03466e-12)
(-17890.1 12844.6 -1.33911e-11)
(-5740.48 1912.13 1.07224e-11)
(-4999.12 579.576 0)
(-6634.84 462.52 -9.28748e-12)
(-10532.3 1153.43 1.53053e-12)
(-19463.6 -2.69145e-10 0)
(-6696.15 -6.83214e-10 0)
(-5088.07 2.1711e-09 0)
(-6633.4 -6.85e-09 3.72056e-12)
(-9971.91 -2.70089e-09 -3.06105e-12)
(-17890.1 -12844.6 -1.33911e-11)
(-5740.48 -1912.13 1.07224e-11)
(-4999.12 -579.576 0)
(-6634.84 -462.52 -9.28748e-12)
(-10532.3 -1153.43 1.53053e-12)
(-21727.7 -11098.6 1.33911e-11)
(-3626.1 -2899.25 -8.73159e-14)
(-4571.24 -1620.07 0)
(-6835.79 -1124.31 3.38607e-14)
(-11655.5 -1749.97 6.03466e-12)
(-13610.4 6984.93 0)
(-4849.89 3514.48 0)
(1953.35 2786.13 0)
(-7.17195 2781.32 0)
(-1983.29 1604.16 0)
(-2165.91 675.43 0)
(-1691.83 252.69 0)
(-1411.39 143.433 0)
(-1370.49 99.0586 0)
(-1320.07 95.7627 0)
(-1109.75 54.3169 0)
(-755.959 15.6809 0)
(-456.104 1.74072 0)
(-297.018 0.457653 0)
(-231.479 0.673716 0)
(-197.051 0.407963 0)
(-168.863 -0.297415 0)
(-141.821 -1.09745 0)
(-117.751 -1.71297 0)
(-96.5139 -2.05369 0)
(-76.9197 -2.25524 0)
(-60.1495 -2.3715 0)
(-44.8918 -2.42168 0)
(-30.4987 -2.42404 0)
(-18.1595 -2.38831 0)
(-8.61935 -2.36448 0)
(-1.40592 -2.33906 0)
(4.69443 -2.38789 0)
(14.5153 -2.35849 0)
(27.1107 -2.46517 0)
(55.2751 -2.30006 0)
(86.0941 -1.42223 0)
(127.739 -1.06641 0)
(159.752 1.6732 0)
(203.396 1.15542 0)
(229.24 6.36645 0)
(298.818 -3.41819 0)
(2708.09 15.9823 0)
(40785.8 -80.3215 0)
(-40405.7 -2967.06 0)
(-13486 5261.4 0)
(-5735.35 4701.68 0)
(1805.05 4216.83 0)
(-64.0166 2727.4 0)
(-2217.01 1280.26 0)
(-2342.61 404.301 0)
(-1761.72 126.749 0)
(-1429.76 58.8093 0)
(-1375.07 41.4726 0)
(-1324.19 34.8708 0)
(-1116.63 18.4493 0)
(-760.348 4.13307 0)
(-457.027 -0.795092 0)
(-296.948 -0.747418 0)
(-231.434 -0.433107 0)
(-197.098 -0.438699 0)
(-168.968 -0.619853 0)
(-141.945 -0.876095 0)
(-117.834 -1.17507 0)
(-96.5466 -1.29551 0)
(-76.9347 -1.34322 0)
(-60.1587 -1.37294 0)
(-44.899 -1.39776 0)
(-30.5068 -1.42274 0)
(-18.1742 -1.45294 0)
(-8.64069 -1.5091 0)
(-1.43505 -1.56921 0)
(4.66727 -1.64447 0)
(14.4912 -1.6738 0)
(27.1022 -1.69624 0)
(55.3364 -1.59561 0)
(86.1706 -1.20687 0)
(128.015 -0.714813 0)
(159.993 1.07095 0)
(203.998 2.3695 0)
(228.997 7.48607 0)
(299.478 8.36872 0)
(2697.1 21.9349 0)
(40717.9 -41.7309 0)
(-40378.6 1007.87 0)
(-12298.1 -8.23584e-09 0)
(-5153.77 4.08401e-08 0)
(1379.02 6.66457e-08 0)
(-861.446 3.37185e-08 0)
(-2659.1 -7.50914e-09 0)
(-2501.48 1.11588e-08 0)
(-1792.34 -1.27898e-08 0)
(-1436.2 -2.68714e-08 0)
(-1377.45 -1.06904e-08 0)
(-1326.77 -3.7465e-09 0)
(-1118.69 -3.09571e-08 0)
(-761.558 -1.2919e-08 0)
(-457.524 -1.10619e-08 0)
(-296.913 -7.00854e-09 0)
(-231.389 -3.94028e-09 0)
(-197.106 -3.06018e-09 0)
(-168.99 -4.39245e-09 0)
(-141.982 -5.37752e-09 0)
(-117.873 1.84903e-09 0)
(-96.5628 6.13651e-10 0)
(-76.9422 8.07435e-12 0)
(-60.1654 4.20674e-09 0)
(-44.9063 9.01097e-09 0)
(-30.5147 8.69607e-09 0)
(-18.1847 1.42109e-08 0)
(-8.65317 2.87285e-08 0)
(-1.4453 4.05655e-08 0)
(4.664 3.28061e-08 0)
(14.5002 1.97983e-08 0)
(27.1335 6.66941e-09 0)
(55.4175 8.45384e-09 0)
(86.3503 9.51966e-09 0)
(128.402 8.797e-08 0)
(160.649 1.0642e-07 0)
(205.262 1.3812e-07 0)
(230.985 1.70345e-07 0)
(303.022 1.26024e-07 0)
(2693.52 6.02023e-08 0)
(41072.6 -2.21819e-07 0)
(-40836.9 -1.30481e-07 0)
(-13486 -5261.4 0)
(-5735.35 -4701.68 0)
(1805.05 -4216.83 0)
(-64.0166 -2727.4 0)
(-2217.01 -1280.26 0)
(-2342.61 -404.301 0)
(-1761.72 -126.749 0)
(-1429.76 -58.8093 0)
(-1375.07 -41.4726 0)
(-1324.19 -34.8708 0)
(-1116.63 -18.4493 0)
(-760.348 -4.13307 0)
(-457.027 0.795092 0)
(-296.948 0.747418 0)
(-231.434 0.433107 0)
(-197.098 0.438699 0)
(-168.968 0.619853 0)
(-141.945 0.876095 0)
(-117.834 1.17507 0)
(-96.5466 1.29551 0)
(-76.9347 1.34322 0)
(-60.1587 1.37294 0)
(-44.899 1.39776 0)
(-30.5068 1.42274 0)
(-18.1742 1.45294 0)
(-8.64069 1.5091 0)
(-1.43505 1.56921 0)
(4.66727 1.64447 0)
(14.4912 1.6738 0)
(27.1022 1.69624 0)
(55.3364 1.59561 0)
(86.1706 1.20687 0)
(128.015 0.714813 0)
(159.993 -1.07095 0)
(203.998 -2.3695 0)
(228.997 -7.48607 0)
(299.478 -8.36872 0)
(2697.1 -21.9349 0)
(40717.9 41.7309 0)
(-40378.6 -1007.87 0)
(-13610.4 -6984.93 0)
(-4849.89 -3514.48 0)
(1953.35 -2786.13 0)
(-7.17195 -2781.32 0)
(-1983.29 -1604.16 0)
(-2165.91 -675.43 0)
(-1691.83 -252.69 0)
(-1411.39 -143.433 0)
(-1370.49 -99.0586 0)
(-1320.07 -95.7627 0)
(-1109.75 -54.3169 0)
(-755.959 -15.6809 0)
(-456.104 -1.74072 0)
(-297.018 -0.457653 0)
(-231.479 -0.673716 0)
(-197.051 -0.407963 0)
(-168.863 0.297415 0)
(-141.821 1.09745 0)
(-117.751 1.71297 0)
(-96.5139 2.05369 0)
(-76.9197 2.25524 0)
(-60.1495 2.3715 0)
(-44.8918 2.42168 0)
(-30.4987 2.42404 0)
(-18.1595 2.38831 0)
(-8.61935 2.36448 0)
(-1.40592 2.33906 0)
(4.69443 2.38789 0)
(14.5153 2.35849 0)
(27.1107 2.46517 0)
(55.2751 2.30006 0)
(86.0941 1.42223 0)
(127.739 1.06641 0)
(159.752 -1.6732 0)
(203.396 -1.15542 0)
(229.24 -6.36645 0)
(298.818 3.41819 0)
(2708.09 -15.9823 0)
(40785.8 80.3215 0)
(-40405.7 2967.06 0)
(16338.3 815.476 0)
(-4125.36 -3330.08 0)
(2093.47 -3629 0)
(611.678 -3142.16 0)
(-1166.29 -1996.99 0)
(-1699.19 -1005.93 0)
(-1508.82 -473.831 0)
(-1354.63 -284.665 0)
(-1350.47 -193.849 0)
(-1300.88 -168.751 0)
(-1074.35 -98.2329 0)
(-732.443 -34.2304 0)
(-448.545 -7.49017 0)
(-296.198 -3.14379 0)
(-231.351 -3.03763 0)
(-196.543 -2.35476 0)
(-168.145 -0.918362 0)
(-141.201 0.517845 0)
(-117.331 1.55872 0)
(-96.2443 2.22472 0)
(-76.7528 2.66094 0)
(-60.065 2.92719 0)
(-44.8744 3.0485 0)
(-30.537 3.06057 0)
(-18.2286 2.97175 0)
(-8.69627 2.86896 0)
(-1.45404 2.7609 0)
(4.64806 2.78943 0)
(14.5118 2.72928 0)
(27.0557 2.95871 0)
(54.7531 2.69217 0)
(85.4852 1.25533 0)
(126.391 0.305905 0)
(158.877 -3.85564 0)
(201.75 -3.44757 0)
(231.584 -9.53272 0)
(294.209 2.13207 0)
(2732.64 -27.619 0)
(42510.6 -28.1745 0)
(-42406.2 469.074 0)
(15454.7 7416.97 0)
(-9521.27 -2313.58 0)
(2059.31 -2524.82 0)
(1233.64 -2487.66 0)
(-362.85 -1940.7 0)
(-948.407 -1200.9 0)
(-1094.93 -693.217 0)
(-1172.02 -425.178 0)
(-1269.52 -308.174 0)
(-1238.22 -230.227 0)
(-999.099 -135.328 0)
(-681.126 -52.8265 0)
(-430.201 -15.4167 0)
(-293.167 -6.68934 0)
(-230.787 -5.19586 0)
(-195.282 -3.63553 0)
(-166.479 -1.35044 0)
(-139.766 0.797344 0)
(-116.331 2.36842 0)
(-95.5963 3.3689 0)
(-76.3322 4.03336 0)
(-59.8214 4.45354 0)
(-44.7726 4.66128 0)
(-30.5521 4.71356 0)
(-18.3072 4.62613 0)
(-8.78128 4.53694 0)
(-1.45675 4.45178 0)
(4.68882 4.59826 0)
(14.6803 4.64333 0)
(27.1044 5.12792 0)
(53.9136 4.89565 0)
(84.1211 3.14318 0)
(123.537 1.56887 0)
(156.604 -3.7728 0)
(198.807 -4.10628 0)
(233.36 -11.1505 0)
(283.862 -3.27497 0)
(2665.72 -34.7462 0)
(40339.5 -151.146 0)
(-39905.8 -3121.47 0)
(15871.6 6394.6 0)
(-13705.6 -1257.53 0)
(1925.73 -1254.75 0)
(1174.56 -1792.19 0)
(73.6802 -1482.06 0)
(-497.064 -1083.57 0)
(-761.308 -741.6 0)
(-983.591 -512.673 0)
(-1162.61 -402.487 0)
(-1134.32 -280.418 0)
(-903.403 -165.06 0)
(-616.893 -69.8224 0)
(-404.086 -25.4348 0)
(-286.349 -11.9617 0)
(-228.408 -7.89432 0)
(-192.837 -4.78705 0)
(-163.874 -1.41936 0)
(-137.618 1.52321 0)
(-114.853 3.63419 0)
(-94.6399 4.99118 0)
(-75.7076 5.91236 0)
(-59.4599 6.50267 0)
(-44.6239 6.79308 0)
(-30.5709 6.86851 0)
(-18.3988 6.76803 0)
(-8.86428 6.69861 0)
(-1.39495 6.64096 0)
(4.83265 6.95387 0)
(15.0222 7.12513 0)
(27.2989 7.92896 0)
(52.8405 7.76021 0)
(82.2794 5.54886 0)
(119.727 3.53489 0)
(153.408 -2.52921 0)
(194.641 -3.26157 0)
(232.385 -10.911 0)
(271.471 -8.34969 0)
(2590.15 -30.3729 0)
(39536.1 -95.9671 0)
(-39094.2 -1643.23 0)
(17871.8 5186.51 0)
(-16892.5 -447.292 0)
(1544.09 -764.832 0)
(1014.59 -1285.75 0)
(320.001 -1074.6 0)
(-234.868 -908.338 0)
(-544.794 -698.345 0)
(-845.239 -560.84 0)
(-1045.71 -451.189 0)
(-1009.43 -310.323 0)
(-796.161 -176.549 0)
(-546.578 -80.1562 0)
(-374.445 -33.7196 0)
(-276.265 -17.2067 0)
(-223.873 -10.5179 0)
(-189.042 -5.70494 0)
(-160.398 -1.30819 0)
(-134.896 2.29143 0)
(-112.99 4.8484 0)
(-93.401 6.53177 0)
(-74.8757 7.71649 0)
(-58.9727 8.49783 0)
(-44.4201 8.89607 0)
(-30.5762 9.02909 0)
(-18.4709 8.9707 0)
(-8.90373 8.99655 0)
(-1.21077 9.0337 0)
(5.15538 9.60331 0)
(15.6199 9.98524 0)
(27.7164 11.1451 0)
(51.62 11.0449 0)
(80.0494 8.40188 0)
(115.753 5.98242 0)
(150.055 -0.496113 0)
(190.73 -1.89482 0)
(228.457 -8.9613 0)
(265.107 -12.9177 0)
(2581.29 -19.572 0)
(38785.3 -56.3814 0)
(-38351.7 -1609.02 0)
(20009 4270 0)
(-19440.6 -114.807 0)
(1117.76 -477.431 0)
(876.048 -829.381 0)
(437.369 -754.371 0)
(-134.486 -746.109 0)
(-426.446 -641.675 0)
(-745.423 -569.656 0)
(-921.201 -456.789 0)
(-869.666 -312.894 0)
(-681.606 -171.099 0)
(-479.257 -82.6444 0)
(-343.425 -38.4692 0)
(-263.991 -20.883 0)
(-217.325 -12.3489 0)
(-183.963 -6.20555 0)
(-156.168 -1.06161 0)
(-131.685 2.9702 0)
(-110.767 5.83186 0)
(-91.8761 7.77116 0)
(-73.813 9.21027 0)
(-58.3232 10.2193 0)
(-44.1119 10.8012 0)
(-30.499 11.1165 0)
(-18.4301 11.2881 0)
(-8.80357 11.6333 0)
(-0.810251 11.9763 0)
(5.74959 13.1005 0)
(16.5079 13.985 0)
(28.32 15.777 0)
(50.1971 16.12 0)
(77.401 13.551 0)
(111.152 11.3279 0)
(145.817 4.9016 0)
(186.484 3.23669 0)
(221.763 -2.45648 0)
(261.246 -8.56057 0)
(2548.26 -4.18906 0)
(38004.4 -44.4126 0)
(-37547.8 -1793.14 0)
(21708.7 4162.43 0)
(-21467.3 -41.9184 0)
(855.498 -339.576 0)
(747.724 -500.837 0)
(400.245 -569.91 0)
(-126.27 -626.437 0)
(-374.758 -601.707 0)
(-667.076 -553.927 0)
(-798.287 -437.066 0)
(-734.129 -292.69 0)
(-574.284 -160.865 0)
(-418.771 -81.6933 0)
(-314.929 -42.078 0)
(-251.094 -24.1692 0)
(-209.73 -14.251 0)
(-178.166 -6.97189 0)
(-151.556 -1.24751 0)
(-128.253 2.99063 0)
(-108.363 5.9751 0)
(-90.1454 8.08252 0)
(-72.5166 9.76604 0)
(-57.4397 11.0351 0)
(-43.5555 11.8588 0)
(-30.107 12.4425 0)
(-17.9728 12.9545 0)
(-8.24054 13.7318 0)
(0.203075 14.4264 0)
(7.09101 16.0804 0)
(18.199 17.3812 0)
(29.7738 19.5425 0)
(49.475 20.0664 0)
(75.4316 17.2974 0)
(107.418 14.5309 0)
(142.258 7.72049 0)
(183.64 4.72008 0)
(217.089 -0.243374 0)
(263.438 -7.19248 0)
(2546.74 4.16993 0)
(37061.4 -46.546 0)
(-36600.2 -1978.45 0)
(23790.8 2555.55 0)
(-23778.9 -49.3706 0)
(675.527 -297.503 0)
(654.09 -388.061 0)
(316.337 -490.941 0)
(-165.127 -556.617 0)
(-356.573 -571.119 0)
(-586.769 -518.523 0)
(-669.463 -396.6 0)
(-603.508 -256.013 0)
(-478.282 -141.9 0)
(-364.79 -74.8745 0)
(-287.993 -40.628 0)
(-237.176 -23.4214 0)
(-200.753 -13.0155 0)
(-171.432 -5.53394 0)
(-146.568 -0.0969578 0)
(-124.725 3.65287 0)
(-105.86 6.37158 0)
(-88.223 8.50333 0)
(-70.9678 10.4191 0)
(-56.3065 12.0231 0)
(-42.7557 13.2481 0)
(-29.4431 14.3614 0)
(-17.1877 15.5557 0)
(-7.38525 17.0897 0)
(1.45293 18.469 0)
(8.59694 21.1304 0)
(19.8441 23.1438 0)
(30.9076 25.852 0)
(48.0337 26.9223 0)
(72.0668 24.3727 0)
(101.924 21.4219 0)
(136.363 14.9088 0)
(178.809 11.4715 0)
(210.284 6.06398 0)
(265.499 -1.87945 0)
(2510.34 9.3973 0)
(36093.9 -70.1765 0)
(-35612.3 -2185.86 0)
(23975.7 683.665 0)
(-24216.6 -81.8261 0)
(529.124 -242.235 0)
(561.319 -331.478 0)
(237.818 -457.872 0)
(-203.533 -506.851 0)
(-338.049 -524.74 0)
(-498.903 -460.273 0)
(-545.323 -342.856 0)
(-488.691 -217.826 0)
(-399.732 -124.254 0)
(-321.181 -69.0074 0)
(-265.347 -39.006 0)
(-224.486 -21.7896 0)
(-192.493 -10.9506 0)
(-165.717 -3.99903 0)
(-142.704 0.713389 0)
(-122.02 4.13376 0)
(-103.689 6.8728 0)
(-86.245 9.16251 0)
(-69.1248 11.317 0)
(-54.7136 13.2076 0)
(-41.3022 14.7545 0)
(-27.8833 16.2842 0)
(-15.3438 17.961 0)
(-5.43326 19.9326 0)
(4.09693 21.5967 0)
(11.5958 24.7531 0)
(22.7489 26.7296 0)
(33.4149 29.0884 0)
(48.0495 29.8933 0)
(70.1312 26.9592 0)
(98.2983 23.0667 0)
(132.669 16.2056 0)
(175.117 12.9434 0)
(204.223 8.50546 0)
(266.65 1.67353 0)
(2480.93 13.7986 0)
(34946 -79.7465 0)
(-34466.6 -2331.64 0)
(24346.8 79.647 0)
(-24671.1 -96.755 0)
(434.954 -210.059 0)
(446.295 -305.681 0)
(147.341 -449.739 0)
(-229.564 -475.082 0)
(-311.689 -475.188 0)
(-411.499 -399.385 0)
(-435.833 -291.056 0)
(-392.856 -184.315 0)
(-334.875 -107.744 0)
(-282.641 -60.2989 0)
(-242.492 -32.1204 0)
(-210.14 -14.7227 0)
(-183.609 -3.95224 0)
(-160.192 2.90421 0)
(-138.731 7.47976 0)
(-118.789 10.9977 0)
(-101.014 13.8269 0)
(-83.9404 16.1823 0)
(-67.0698 18.4769 0)
(-52.9941 20.5918 0)
(-39.7909 22.4119 0)
(-26.3532 24.2725 0)
(-13.672 26.2208 0)
(-3.88174 28.1878 0)
(6.0982 29.6981 0)
(13.5432 32.7114 0)
(24.0217 33.6616 0)
(33.9562 34.3772 0)
(45.9819 33.4319 0)
(65.4885 28.7469 0)
(91.5611 22.1166 0)
(126.608 12.8686 0)
(171.389 6.9786 0)
(199.424 2.87205 0)
(270.6 -1.72421 0)
(2431.88 12.3562 0)
(33833.8 -112.993 0)
(-33362.2 -2530.64 0)
(24010.5 -702.039 0)
(-24495.7 -94.1234 0)
(327.795 -201.815 0)
(330.354 -302.124 0)
(74.5765 -437.465 0)
(-228.056 -433.144 0)
(-265.104 -409.878 0)
(-321.467 -331.052 0)
(-338.073 -236.584 0)
(-312.044 -148.466 0)
(-280.226 -86.0742 0)
(-248.308 -44.974 0)
(-221.428 -19.7303 0)
(-197.342 -4.3758 0)
(-175.507 5.83655 0)
(-154.7 12.9323 0)
(-134.904 17.8204 0)
(-115.903 21.5552 0)
(-98.6929 24.6407 0)
(-81.7641 27.279 0)
(-64.8756 29.8837 0)
(-50.9216 32.2819 0)
(-37.7554 34.2804 0)
(-24.2129 36.2177 0)
(-11.5708 38.0033 0)
(-2.08241 39.5568 0)
(8.45604 40.6718 0)
(15.4152 43.4658 0)
(24.3541 43.4585 0)
(33.1936 42.7816 0)
(42.6239 40.2634 0)
(59.2274 34.0528 0)
(82.9974 24.822 0)
(118.082 13.6532 0)
(165.484 4.2059 0)
(195.837 -2.12353 0)
(275.789 -8.69898 0)
(2373.71 2.60007 0)
(32495.5 -154.162 0)
(-32031 -2728.24 0)
(23602.2 -1208.11 0)
(-24189.1 -113.076 0)
(234.517 -202.007 0)
(219.214 -294.195 0)
(21.0852 -410.634 0)
(-202.98 -378.727 0)
(-213.308 -336.526 0)
(-244.506 -264.959 0)
(-259.886 -186.228 0)
(-247.819 -114.847 0)
(-235.147 -64.1388 0)
(-218.71 -28.8274 0)
(-203.37 -5.32327 0)
(-185.503 12.6844 0)
(-166.931 25.3351 0)
(-148.644 34.4975 0)
(-130.421 41.3969 0)
(-112.217 46.8738 0)
(-95.4983 51.3917 0)
(-78.888 54.9541 0)
(-62.2489 57.9107 0)
(-48.7573 60.0314 0)
(-35.9982 61.1184 0)
(-22.7657 61.5853 0)
(-10.4544 61.3345 0)
(-1.31027 61.0224 0)
(9.86509 59.9959 0)
(16.2286 60.4736 0)
(23.3624 58.1602 0)
(30.8773 55.0664 0)
(37.5705 49.8507 0)
(50.6086 41.5642 0)
(71.9032 29.4345 0)
(106.742 15.6978 0)
(156.186 4.21551 0)
(186.988 -2.19141 0)
(275.152 -9.0779 0)
(2291.71 -2.78082 0)
(31202.2 -225.716 0)
(-30747.8 -3019.69 0)
(22778 -1841.94 0)
(-23526.2 -128.481 0)
(153.262 -202.481 0)
(129.314 -277.74 0)
(-6.88115 -366.027 0)
(-156.643 -318.318 0)
(-155.474 -264.129 0)
(-176.634 -201.193 0)
(-193.419 -134.258 0)
(-194.395 -76.104 0)
(-197.334 -35.1916 0)
(-191.631 -3.49116 0)
(-181.426 20.505 0)
(-167.798 38.658 0)
(-154.487 51.515 0)
(-139.223 61.372 0)
(-122.978 69.2006 0)
(-106.272 75.6931 0)
(-90.9064 81.0302 0)
(-75.4822 85.1078 0)
(-59.983 88.3404 0)
(-47.8305 90.4607 0)
(-36.258 91.181 0)
(-24.0046 90.9499 0)
(-12.1133 89.7073 0)
(-3.37234 88.5891 0)
(7.92718 86.3306 0)
(13.6462 85.2903 0)
(19.1436 81.0583 0)
(25.1862 75.8572 0)
(29.6127 67.8403 0)
(39.5536 56.9294 0)
(58.0716 41.1998 0)
(93.7799 22.9093 0)
(148.245 7.00466 0)
(183.027 -0.08274 0)
(275.221 -7.02195 0)
(2164.95 -7.419 0)
(29588.3 -319.826 0)
(-29103.7 -3363.08 0)
(21717.4 -2278.08 0)
(-22609.2 -134.345 0)
(90.685 -190.819 0)
(61.6143 -242.156 0)
(-18.0168 -297.734 0)
(-104.787 -241.832 0)
(-100.443 -184.52 0)
(-119.358 -133.573 0)
(-139.346 -81.005 0)
(-152.356 -36.856 0)
(-165.175 -0.683468 0)
(-165.039 32.1535 0)
(-162.754 54.6874 0)
(-155.621 71.5738 0)
(-145.043 83.9556 0)
(-131.601 94.3964 0)
(-116.621 103.472 0)
(-100.818 111.606 0)
(-86.426 118.491 0)
(-71.8437 123.503 0)
(-57.0906 126.859 0)
(-46.02 128.302 0)
(-35.5267 127.733 0)
(-24.1858 125.944 0)
(-12.7293 123.119 0)
(-4.56415 120.944 0)
(6.68629 117.513 0)
(11.148 114.872 0)
(14.2722 109.069 0)
(18.1399 101.748 0)
(19.331 91.7995 0)
(24.9369 78.263 0)
(39.1203 58.7443 0)
(73.79 38.3392 0)
(134.03 17.6526 0)
(173.472 11.4129 0)
(268.082 3.45649 0)
(1990.28 -4.25395 0)
(27968.6 -426.225 0)
(-27431.5 -3703.52 0)
(20491.2 -2497.8 0)
(-21514.9 -102.406 0)
(49.3708 -140.998 0)
(26.2867 -171.689 0)
(-6.56919 -197.944 0)
(-47.5452 -150.884 0)
(-51.1506 -99.6995 0)
(-76.883 -63.3905 0)
(-100.22 -18.5276 0)
(-116.994 18.2996 0)
(-130.834 47.7765 0)
(-138.274 75.2368 0)
(-143.439 93.2483 0)
(-139.594 108.788 0)
(-132.494 119.035 0)
(-120.416 127.824 0)
(-106.395 135.734 0)
(-91.7995 143.076 0)
(-79.4417 149.592 0)
(-67.4185 154.646 0)
(-55.3585 158.554 0)
(-46.9876 160.829 0)
(-38.5302 160.958 0)
(-28.4516 159.649 0)
(-16.9311 157.141 0)
(-8.77383 155.692 0)
(2.07533 152.658 0)
(5.50945 150.322 0)
(6.4972 145.739 0)
(8.54432 138.753 0)
(6.98157 129.771 0)
(7.70046 118.374 0)
(19.5996 100.415 0)
(54.1824 83.1256 0)
(122.298 60.264 0)
(169.347 53.7573 0)
(260.124 47.5197 0)
(1750.89 32.0407 0)
(26023.5 -476.045 0)
(-25387.6 -3916.21 0)
(19323.4 -2942.56 0)
(-20338.1 1.52124 0)
(23.9206 -24.4322 0)
(6.73949 -47.9195 0)
(2.03217 -51.4065 0)
(-10.1151 -27.8626 0)
(-16.1309 14.2487 0)
(-41.1376 36.8153 0)
(-60.6267 69.2342 0)
(-88.4627 93.6855 0)
(-110.308 112.133 0)
(-121.22 132.72 0)
(-130.423 146.127 0)
(-130.771 158.096 0)
(-126.698 166.273 0)
(-115.51 174.428 0)
(-101.924 182.187 0)
(-87.4631 189.794 0)
(-75.2759 196.852 0)
(-63.2076 202.105 0)
(-51.1329 205.342 0)
(-43.7031 206.285 0)
(-36.6641 205.169 0)
(-27.8643 203.175 0)
(-16.5422 200.08 0)
(-8.88411 198.364 0)
(1.51168 195.331 0)
(4.48071 193.41 0)
(3.12373 190.813 0)
(2.75216 185.936 0)
(-0.306876 179.096 0)
(-3.3512 173.39 0)
(5.15368 160.973 0)
(35.0987 150.238 0)
(105.73 133.738 0)
(161.191 134.305 0)
(247.155 144.308 0)
(1485.75 130.735 0)
(24163.9 -432.583 0)
(-23515.5 -4008.02 0)
(17859.8 -2294.1 0)
(-18702.8 159.815 0)
(1.7279 101.635 0)
(0.293363 72.8174 0)
(12.7583 79.9317 0)
(15.7226 78.3123 0)
(11.1755 114.61 0)
(-23.897 129.821 0)
(-45.4174 146.923 0)
(-75.655 160.891 0)
(-93.2195 172.263 0)
(-105.516 187.729 0)
(-118.985 195.771 0)
(-120.182 206.024 0)
(-116.756 213.814 0)
(-105.081 222.437 0)
(-91.5872 229.603 0)
(-77.6682 234.22 0)
(-67.5783 236.314 0)
(-59.2365 237.707 0)
(-51.3305 242.034 0)
(-47.1545 248.052 0)
(-41.5271 251.239 0)
(-33.3554 250.168 0)
(-21.5679 244.509 0)
(-13.3502 239.371 0)
(-2.69825 231.896 0)
(1.15592 227.001 0)
(-0.704948 221.88 0)
(-2.7474 216.859 0)
(-5.10814 208.159 0)
(-9.76268 205.599 0)
(-2.71083 194.193 0)
(27.9377 187.038 0)
(106.945 175.322 0)
(179.532 182.511 0)
(256.683 212.845 0)
(1194.98 223.874 0)
(22035.2 -212.987 0)
(-21541.9 -3233.64 0)
(17689.1 -1596.28 0)
(-18029.5 366.73 0)
(-59.9137 281.617 0)
(-14.1745 251.09 0)
(7.32725 237.805 0)
(23.302 223.38 0)
(33.5045 248.213 0)
(-9.9993 253.774 0)
(-30.6867 267.361 0)
(-64.0441 273.423 0)
(-84.4455 278.585 0)
(-98.567 275.805 0)
(-112.793 270.731 0)
(-113.385 269.055 0)
(-110.882 267.579 0)
(-100.295 271.518 0)
(-90.5693 279.736 0)
(-80.9962 291.141 0)
(-71.9163 303.195 0)
(-57.6956 309.557 0)
(-41.1641 312.051 0)
(-34.833 311.637 0)
(-34.6247 306.802 0)
(-34.35 303.792 0)
(-26.9468 300.021 0)
(-21.0383 301.888 0)
(-10.4079 303.524 0)
(-5.17034 306.501 0)
(-6.64923 309.888 0)
(-10.47 313.08 0)
(-11.1579 311.574 0)
(-16.8095 315.014 0)
(-12.7319 307.698 0)
(16.9135 300.381 0)
(101.367 289 0)
(197.349 289.178 0)
(287.014 320.453 0)
(1075.41 336.755 0)
(20832.1 40.6455 0)
(-20822.6 -3126.34 0)
(17522.6 37585.1 0)
(-16893.2 3409.41 0)
(-109.707 1720.59 0)
(-41.9249 1724.74 0)
(-13.9444 1905.43 0)
(25.7518 2171.51 0)
(40.4643 2416.95 0)
(-5.44577 2606.78 0)
(-26.4823 2760.78 0)
(-64.839 2848.28 0)
(-90.9241 2910.99 0)
(-113.084 2933.96 0)
(-125.49 2945.99 0)
(-123.219 2942.7 0)
(-114.383 2935.45 0)
(-93.3659 2919.7 0)
(-72.6777 2901.83 0)
(-55.0617 2858.68 0)
(-49.8319 2848.79 0)
(-50.7028 2801.51 0)
(-49.3258 2806.69 0)
(-52.2126 2866.26 0)
(-49.0867 2869.63 0)
(-39.8903 2923.04 0)
(-23.4032 2909.12 0)
(-9.97445 2930.57 0)
(1.74677 2904.92 0)
(7.28901 2887.92 0)
(5.63492 2845 0)
(-1.12336 2791.98 0)
(-3.24454 2717.5 0)
(-13.4971 2603.94 0)
(-16.8114 2453.97 0)
(9.91939 2235.22 0)
(96.1488 1985.4 0)
(209.841 1653.94 0)
(302.53 1477.27 0)
(925.345 1277.04 0)
(18698.1 2758.87 0)
(-19563.1 32649.9 0)
(55297.5 672362 0)
(-52589.9 58842.8 0)
(-1683.32 24407.4 0)
(163.945 26478.9 0)
(437.856 27767.6 0)
(516.225 30030.9 0)
(452.938 31765.8 0)
(321.325 33678.7 0)
(202.035 35268.4 0)
(80.7074 36495.2 0)
(-1.87873 37661 0)
(-64.8442 38582.5 0)
(-104.374 39440 0)
(-123.543 40181.5 0)
(-133.05 40887.6 0)
(-132.696 41467 0)
(-149.37 41970.3 0)
(-132.103 42317.9 0)
(-127.001 42457.8 0)
(-98.2685 42435.5 0)
(21.2283 42387 0)
(25.8265 42233.1 0)
(20.0943 42074.5 0)
(3.70435 41297.7 0)
(-19.6904 40550.3 0)
(-25.0879 39520 0)
(-51.5074 38490.4 0)
(-62.9173 37213.7 0)
(-99.1007 35988 0)
(-133.329 34467.4 0)
(-192.363 33006.4 0)
(-270.76 31149.8 0)
(-368.042 29332 0)
(-434.613 27113.6 0)
(-458.779 25025.6 0)
(-292.301 22613.6 0)
(-76.1745 21271 0)
(2310.4 19036.3 0)
(51064.1 51289 0)
(-53390.3 608069 0)
(716125 -740330 0)
(-641286 -60748.1 0)
(-31296.7 -26892.1 0)
(3196.07 -28352 0)
(3408.82 -29500.2 0)
(3878.58 -31816.7 0)
(3555.64 -33668 0)
(3369.83 -35624 0)
(2687.63 -37197.9 0)
(2240.7 -38296.3 0)
(1920.43 -39290.9 0)
(1601.29 -40004.9 0)
(1415.39 -40630.5 0)
(1271.65 -41147.2 0)
(1124.37 -41638.5 0)
(950.053 -42019.3 0)
(747.322 -42362.7 0)
(414.69 -42568.6 0)
(63.4217 -42616.4 0)
(-118.921 -42489 0)
(-244.33 -42385.3 0)
(-353.38 -42216.2 0)
(-950.501 -42037.9 0)
(-1508.63 -41224.7 0)
(-1736.41 -40464.7 0)
(-1995.05 -39440.6 0)
(-2220.75 -38409.9 0)
(-2404.05 -37153 0)
(-2640.8 -35947.3 0)
(-2874.31 -34435.7 0)
(-3200.18 -32993.3 0)
(-3554.28 -31111.6 0)
(-3906.23 -29251.7 0)
(-4139.88 -26930.8 0)
(-4240.21 -24804.5 0)
(-3408.21 -22469.5 0)
(-3144.73 -21596.2 0)
(29851.7 -20161.6 0)
(586312 -53344.5 0)
(-648770 -675239 0)
(716125 740330 0)
(-641286 60748.1 0)
(-31296.7 26892.1 0)
(3196.07 28352 0)
(3408.82 29500.2 0)
(3878.58 31816.7 0)
(3555.64 33668 0)
(3369.83 35624 0)
(2687.63 37197.9 0)
(2240.7 38296.3 0)
(1920.43 39290.9 0)
(1601.29 40004.9 0)
(1415.39 40630.5 0)
(1271.65 41147.2 0)
(1124.37 41638.5 0)
(950.053 42019.3 0)
(747.322 42362.7 0)
(414.69 42568.6 0)
(63.4217 42616.4 0)
(-118.921 42489 0)
(-244.33 42385.3 0)
(-353.38 42216.2 0)
(-950.501 42037.9 0)
(-1508.63 41224.7 0)
(-1736.41 40464.7 0)
(-1995.05 39440.6 0)
(-2220.75 38409.9 0)
(-2404.05 37153 0)
(-2640.8 35947.3 0)
(-2874.31 34435.7 0)
(-3200.18 32993.3 0)
(-3554.28 31111.6 0)
(-3906.23 29251.7 0)
(-4139.88 26930.8 0)
(-4240.21 24804.5 0)
(-3408.21 22469.5 0)
(-3144.73 21596.2 0)
(29851.7 20161.6 0)
(586312 53344.5 0)
(-648770 675239 0)
(55297.5 -672362 0)
(-52589.9 -58842.8 0)
(-1683.32 -24407.4 0)
(163.945 -26478.9 0)
(437.856 -27767.6 0)
(516.225 -30030.9 0)
(452.938 -31765.8 0)
(321.325 -33678.7 0)
(202.035 -35268.4 0)
(80.7074 -36495.2 0)
(-1.87873 -37661 0)
(-64.8442 -38582.5 0)
(-104.374 -39440 0)
(-123.543 -40181.5 0)
(-133.05 -40887.6 0)
(-132.696 -41467 0)
(-149.37 -41970.3 0)
(-132.103 -42317.9 0)
(-127.001 -42457.8 0)
(-98.2685 -42435.5 0)
(21.2283 -42387 0)
(25.8265 -42233.1 0)
(20.0943 -42074.5 0)
(3.70435 -41297.7 0)
(-19.6904 -40550.3 0)
(-25.0879 -39520 0)
(-51.5074 -38490.4 0)
(-62.9173 -37213.7 0)
(-99.1007 -35988 0)
(-133.329 -34467.4 0)
(-192.363 -33006.4 0)
(-270.76 -31149.8 0)
(-368.042 -29332 0)
(-434.613 -27113.6 0)
(-458.779 -25025.6 0)
(-292.301 -22613.6 0)
(-76.1745 -21271 0)
(2310.4 -19036.3 0)
(51064.1 -51289 0)
(-53390.3 -608069 0)
(17522.6 -37585.1 0)
(-16893.2 -3409.41 0)
(-109.707 -1720.59 0)
(-41.9249 -1724.74 0)
(-13.9444 -1905.43 0)
(25.7518 -2171.51 0)
(40.4643 -2416.95 0)
(-5.44577 -2606.78 0)
(-26.4823 -2760.78 0)
(-64.839 -2848.28 0)
(-90.9241 -2910.99 0)
(-113.084 -2933.96 0)
(-125.49 -2945.99 0)
(-123.219 -2942.7 0)
(-114.383 -2935.45 0)
(-93.3659 -2919.7 0)
(-72.6777 -2901.83 0)
(-55.0617 -2858.68 0)
(-49.8319 -2848.79 0)
(-50.7028 -2801.51 0)
(-49.3258 -2806.69 0)
(-52.2126 -2866.26 0)
(-49.0867 -2869.63 0)
(-39.8903 -2923.04 0)
(-23.4032 -2909.12 0)
(-9.97445 -2930.57 0)
(1.74677 -2904.92 0)
(7.28901 -2887.92 0)
(5.63492 -2845 0)
(-1.12336 -2791.98 0)
(-3.24454 -2717.5 0)
(-13.4971 -2603.94 0)
(-16.8114 -2453.97 0)
(9.91939 -2235.22 0)
(96.1488 -1985.4 0)
(209.841 -1653.94 0)
(302.53 -1477.27 0)
(925.345 -1277.04 0)
(18698.1 -2758.87 0)
(-19563.1 -32649.9 0)
(17689.1 1596.28 0)
(-18029.5 -366.73 0)
(-59.9137 -281.617 0)
(-14.1745 -251.09 0)
(7.32725 -237.805 0)
(23.302 -223.38 0)
(33.5045 -248.213 0)
(-9.9993 -253.774 0)
(-30.6867 -267.361 0)
(-64.0441 -273.423 0)
(-84.4455 -278.585 0)
(-98.567 -275.805 0)
(-112.793 -270.731 0)
(-113.385 -269.055 0)
(-110.882 -267.579 0)
(-100.295 -271.518 0)
(-90.5693 -279.736 0)
(-80.9962 -291.141 0)
(-71.9163 -303.195 0)
(-57.6956 -309.557 0)
(-41.1641 -312.051 0)
(-34.833 -311.637 0)
(-34.6247 -306.802 0)
(-34.35 -303.792 0)
(-26.9468 -300.021 0)
(-21.0383 -301.888 0)
(-10.4079 -303.524 0)
(-5.17034 -306.501 0)
(-6.64923 -309.888 0)
(-10.47 -313.08 0)
(-11.1579 -311.574 0)
(-16.8095 -315.014 0)
(-12.7319 -307.698 0)
(16.9135 -300.381 0)
(101.367 -289 0)
(197.349 -289.178 0)
(287.014 -320.453 0)
(1075.41 -336.755 0)
(20832.1 -40.6455 0)
(-20822.6 3126.34 0)
(17859.8 2294.1 0)
(-18702.8 -159.815 0)
(1.7279 -101.635 0)
(0.293363 -72.8174 0)
(12.7583 -79.9317 0)
(15.7226 -78.3123 0)
(11.1755 -114.61 0)
(-23.897 -129.821 0)
(-45.4174 -146.923 0)
(-75.655 -160.891 0)
(-93.2195 -172.263 0)
(-105.516 -187.729 0)
(-118.985 -195.771 0)
(-120.182 -206.024 0)
(-116.756 -213.814 0)
(-105.081 -222.437 0)
(-91.5872 -229.603 0)
(-77.6682 -234.22 0)
(-67.5783 -236.314 0)
(-59.2365 -237.707 0)
(-51.3305 -242.034 0)
(-47.1545 -248.052 0)
(-41.5271 -251.239 0)
(-33.3554 -250.168 0)
(-21.5679 -244.509 0)
(-13.3502 -239.371 0)
(-2.69825 -231.896 0)
(1.15592 -227.001 0)
(-0.704948 -221.88 0)
(-2.7474 -216.859 0)
(-5.10814 -208.159 0)
(-9.76268 -205.599 0)
(-2.71083 -194.193 0)
(27.9377 -187.038 0)
(106.945 -175.322 0)
(179.532 -182.511 0)
(256.683 -212.845 0)
(1194.98 -223.874 0)
(22035.2 212.987 0)
(-21541.9 3233.64 0)
(19323.4 2942.56 0)
(-20338.1 -1.52124 0)
(23.9206 24.4322 0)
(6.73949 47.9195 0)
(2.03217 51.4065 0)
(-10.1151 27.8626 0)
(-16.1309 -14.2487 0)
(-41.1376 -36.8153 0)
(-60.6267 -69.2342 0)
(-88.4627 -93.6855 0)
(-110.308 -112.133 0)
(-121.22 -132.72 0)
(-130.423 -146.127 0)
(-130.771 -158.096 0)
(-126.698 -166.273 0)
(-115.51 -174.428 0)
(-101.924 -182.187 0)
(-87.4631 -189.794 0)
(-75.2759 -196.852 0)
(-63.2076 -202.105 0)
(-51.1329 -205.342 0)
(-43.7031 -206.285 0)
(-36.6641 -205.169 0)
(-27.8643 -203.175 0)
(-16.5422 -200.08 0)
(-8.88411 -198.364 0)
(1.51168 -195.331 0)
(4.48071 -193.41 0)
(3.12373 -190.813 0)
(2.75216 -185.936 0)
(-0.306876 -179.096 0)
(-3.3512 -173.39 0)
(5.15368 -160.973 0)
(35.0987 -150.238 0)
(105.73 -133.738 0)
(161.191 -134.305 0)
(247.155 -144.308 0)
(1485.75 -130.735 0)
(24163.9 432.583 0)
(-23515.5 4008.02 0)
(20491.2 2497.8 0)
(-21514.9 102.406 0)
(49.3708 140.998 0)
(26.2867 171.689 0)
(-6.56919 197.944 0)
(-47.5452 150.884 0)
(-51.1506 99.6995 0)
(-76.883 63.3905 0)
(-100.22 18.5276 0)
(-116.994 -18.2996 0)
(-130.834 -47.7765 0)
(-138.274 -75.2368 0)
(-143.439 -93.2483 0)
(-139.594 -108.788 0)
(-132.494 -119.035 0)
(-120.416 -127.824 0)
(-106.395 -135.734 0)
(-91.7995 -143.076 0)
(-79.4417 -149.592 0)
(-67.4185 -154.646 0)
(-55.3585 -158.554 0)
(-46.9876 -160.829 0)
(-38.5302 -160.958 0)
(-28.4516 -159.649 0)
(-16.9311 -157.141 0)
(-8.77383 -155.692 0)