/*--------------------------------*- C++ -*----------------------------------*\
| =========                 |                                                 |
| \\      /  F ield         | OpenFOAM: The Open Source CFD Toolbox           |
|  \\    /   O peration     | Version:  v1912                                 |
|   \\  /    A nd           | Website:  www.openfoam.com                      |
|    \\/     M anipulation  |                                                 |
\*---------------------------------------------------------------------------*/
FoamFile
{
    version     2.0;
    format      ascii;
    class       volScalarField;
    location    "4.84";
    object      rho;
}
// * * * * * * * * * * * * * * * * * * * * * * * * * * * * * * * * * * * * * //

dimensions      [1 -3 0 0 0 0 0];


internalField   nonuniform List<scalar> 
1900
(
42373.2
17763.5
14867
14348.6
14035.7
13831.9
13675.3
13542.8
13457.6
13324.2
42373.2
17763.5
14867.1
14348.5
14036.1
13833.9
13679.1
13547.6
13431.5
13293.4
42373.2
17763.6
14867.1
14348.5
14036.6
13834.9
13679.5
13545
13423.9
13286.8
42373.2
17763.5
14867.1
14348.5
14036.1
13833.9
13679.1
13547.6
13431.5
13293.4
42373.2
17763.5
14867
14348.6
14035.7
13831.9
13675.3
13542.8
13457.6
13324.2
13376.2
13242.3
13220.6
13008.6
12983.2
13216.7
13111.2
13055.2
12881.3
12492.6
13198.8
13086.3
13041.3
12897.2
12589.2
13216.7
13111.2
13055.2
12881.3
12492.6
13376.2
13242.3
13220.6
13008.6
12983.2
9537.93
9181.34
8849.21
8346.64
7614.28
10026.3
9332.1
8946.42
8423.09
7747.28
10103.1
9280.77
8883.99
8378.09
7701.94
10026.3
9332.1
8946.42
8423.09
7747.28
9537.93
9181.34
8849.21
8346.64
7614.28
5900.26
4243.79
4566.54
4780.96
4564.56
4235.55
3968.94
3770.3
3580.81
3393.41
3217.79
3088.23
3009.9
2962.8
2928.22
2899.15
2874.03
2852.71
2835.03
2820.33
2808.49
2799.18
2791.95
2786.83
2783.56
2781.84
2781.19
2781.45
2782.48
2785.44
2789.94
2800.64
2813.61
2835.77
2857.54
2891.7
2920.59
2973.88
3665.31
14190
6215.32
4371.42
4638.1
4867.81
4620.5
4258.13
3976.28
3773.66
3583.09
3395.51
3218.94
3088.44
3009.85
2962.76
2928.19
2899.11
2873.98
2852.65
2834.95
2820.24
2808.4
2799.08
2791.86
2786.74
2783.47
2781.74
2781.09
2781.34
2782.37
2785.33
2789.83
2800.55
2813.52
2835.75
2857.52
2891.85
2920.5
2974.21
3662.2
14171.6
6321.17
4619.92
4903.88
4999.15
4666.99
4267.9
3979.08
3775
3584.13
3396.2
3219.26
3088.56
3009.84
2962.74
2928.19
2899.11
2873.98
2852.64
2834.94
2820.23
2808.38
2799.07
2791.84
2786.72
2783.44
2781.72
2781.06
2781.32
2782.35
2785.31
2789.81
2800.55
2813.56
2835.86
2857.73
2892.3
2921.26
2975.63
3661.97
14270.6
6215.32
4371.42
4638.1
4867.81
4620.5
4258.13
3976.28
3773.66
3583.09
3395.51
3218.94
3088.44
3009.85
2962.76
2928.19
2899.11
2873.98
2852.65
2834.95
2820.24
2808.4
2799.08
2791.86
2786.74
2783.47
2781.74
2781.09
2781.34
2782.37
2785.33
2789.83
2800.55
2813.52
2835.75
2857.52
2891.85
2920.5
2974.21
3662.2
14171.6
5900.26
4243.79
4566.54
4780.96
4564.56
4235.55
3968.94
3770.3
3580.81
3393.41
3217.79
3088.23
3009.9
2962.8
2928.22
2899.15
2874.03
2852.71
2835.03
2820.33
2808.49
2799.18
2791.95
2786.83
2783.56
2781.84
2781.19
2781.45
2782.48
2785.44
2789.94
2800.64
2813.61
2835.77
2857.54
2891.7
2920.59
2973.88
3665.31
14190
5374.71
3912.75
4240.24
4488.45
4408.45
4167.72
3941.17
3752.8
3568.65
3381.42
3210.91
3085.97
3009.49
2962.62
2928.03
2899
2873.98
2852.76
2835.15
2820.49
2808.68
2799.39
2792.17
2787.05
2783.77
2782.03
2781.38
2781.63
2782.66
2785.63
2790.1
2800.68
2813.6
2835.44
2857.3
2890.92
2920.98
2971.83
3672.46
14662.2
6398.17
3538.83
3779.82
4105.13
4119.08
4005.35
3858.26
3704.24
3535.96
3355.13
3195.45
3080.37
3008.14
2962.07
2927.52
2898.6
2873.81
2852.82
2835.38
2820.83
2809.09
2799.84
2792.64
2787.53
2784.24
2782.49
2781.82
2782.09
2783.11
2786.13
2790.56
2800.95
2813.7
2834.93
2856.76
2889.6
2920.94
2967.66
3654.01
14061
7340.21
3299.65
3571.16
3829.22
3894.16
3849.49
3757.47
3640.13
3486.98
3320.41
3175.05
3071.97
3005.4
2960.85
2926.65
2898.04
2873.62
2852.97
2835.78
2821.39
2809.75
2800.57
2793.4
2788.3
2784.99
2783.24
2782.56
2782.85
2783.89
2786.98
2791.39
2801.52
2814.02
2834.44
2856.21
2887.97
2920.11
2962.62
3632.4
13835
8092.74
3205.58
3447.32
3630.2
3726.33
3718.2
3661.74
3568.39
3429.3
3280.82
3151.71
3061.87
3001.4
2958.9
2925.42
2897.33
2873.44
2853.22
2836.34
2822.15
2810.66
2801.56
2794.44
2789.35
2786.03
2784.27
2783.58
2783.93
2785
2788.23
2792.62
2802.42
2814.64
2834.26
2855.9
2886.71
2918.73
2959.61
3628.58
13625.6
8714.63
3181.12
3368.48
3488.5
3609.39
3608.78
3572.41
3491.5
3367.42
3238.17
3128.26
3050.73
2996.46
2956.29
2923.87
2896.53
2873.28
2853.58
2837.06
2823.12
2811.8
2802.82
2795.76
2790.69
2787.37
2785.62
2784.95
2785.4
2786.53
2789.94
2794.32
2803.74
2815.61
2834.31
2855.71
2885.59
2916.69
2957.43
3617.46
13408.7
9224.29
3175.16
3320.8
3410.42
3526.42
3520.49
3491.7
3417.43
3308.25
3197.9
3106.36
3039.97
2991.2
2953.36
2922.15
2895.69
2873.16
2854.01
2837.89
2824.21
2813.1
2804.27
2797.3
2792.29
2789.02
2787.35
2786.76
2787.4
2788.71
2792.41
2796.89
2806.01
2817.64
2835.55
2856.76
2886.06
2916.46
2958.5
3616.81
13150.4
9817.68
3170.01
3278.49
3355.78
3458.37
3442.77
3412.96
3344.71
3251.6
3160.61
3085.63
3029.08
2985.31
2949.89
2920.09
2894.68
2872.95
2854.37
2838.65
2825.26
2814.39
2805.74
2798.9
2793.99
2790.8
2789.26
2788.77
2789.66
2791.14
2795.12
2799.64
2808.33
2819.46
2836.35
2856.96
2885.53
2914.78
2958.54
3605.13
12884.4
9901.51
3162.07
3241.96
3307.58
3396.32
3372.98
3340.35
3280.02
3203.15
3130.05
3068.76
3020.13
2980.44
2947.16
2918.7
2894.22
2873.13
2854.98
2839.58
2826.46
2815.86
2807.46
2800.81
2796.1
2793.14
2791.88
2791.65
2793
2794.84
2799.26
2804.03
2812.47
2823.31
2839.51
2859.8
2887.66
2915.96
2960.99
3598.22
12571.1
9998.85
3148.32
3214.3
3267.94
3337.03
3308.46
3273.9
3222.74
3160.74
3102.89
3052.7
3010.8
2974.98
2944.11
2917.19
2893.62
2873.14
2855.47
2840.47
2827.69
2817.39
2809.24
2802.81
2798.3
2795.56
2794.54
2794.5
2796.22
2798.22
2802.82
2807.56
2815.47
2825.57
2840.65
2860.39
2887.78
2915.23
2962.2
3583.99
12266.5
9922.62
3136.43
3186.29
3226.58
3277.14
3247.08
3214.42
3174.18
3126.02
3081.21
3040.21
3004.15
2971.92
2943.26
2917.66
2894.99
2875.11
2857.89
2843.24
2830.75
2820.75
2812.91
2806.75
2802.53
2800.09
2799.35
2799.52
2801.67
2803.76
2808.37
2812.89
2820.09
2829.17
2842.92
2861.65
2888.42
2915.5
2964.27
3568.27
11900.5
9812.81
3123.38
3160.82
3187.87
3221.1
3193.67
3165.28
3135.01
3098.04
3063.54
3029.89
2998.88
2969.75
2942.95
2918.74
2897.05
2877.86
2861.18
2847
2834.92
2825.3
2817.8
2811.9
2807.9
2805.64
2805.02
2805.28
2807.74
2809.74
2814.16
2818.23
2824.49
2832.15
2844.27
2861.5
2887.22
2912.92
2962.89
3543.14
11543.5
9602.47
3106.47
3132.76
3148.61
3168.32
3146.72
3125.25
3103.97
3076.67
3050.78
3023.21
2996.51
2970.51
2946.62
2924.37
2904.13
2886.08
2870.31
2856.86
2845.32
2836.1
2828.82
2822.95
2818.85
2816.35
2815.52
2815.42
2817.7
2819.17
2822.96
2826.1
2831.11
2836.97
2847.08
2862.76
2887.84
2913.1
2963.53
3508.46
11100.3
9324.7
3089.33
3107.16
3114.27
3124.11
3109.32
3095.29
3081.7
3062.47
3043.38
3020.57
2997.95
2975.18
2953.2
2932.39
2913.31
2896.2
2881.24
2868.47
2857.47
2848.71
2841.77
2836.06
2832
2829.41
2828.5
2828.15
2830.34
2831.22
2834.26
2836.21
2839.58
2843.06
2850.34
2863.36
2887.2
2911.06
2960.92
3458.39
10652.3
8998.78
3070.87
3082.19
3084.44
3089.42
3082.64
3076.35
3068.57
3055.2
3041.01
3023.03
3005.03
2985.01
2965.58
2946.62
2929.15
2913.5
2899.89
2888.26
2878.04
2869.72
2862.82
2856.8
2852.22
2848.97
2847.57
2846.56
2848.14
2848.07
2849.93
2850.42
2851.85
2852.54
2857.24
2867.44
2890.87
2914.01
2962.4
3395.51
10118.9
8662.78
3062.2
3069.8
3068.77
3071.65
3069.33
3068.87
3064.9
3057.56
3048.23
3033.23
3017.89
2999.89
2982.02
2963.93
2947.18
2932.17
2919.15
2908.11
2898.45
2890.73
2884.39
2878.71
2874.31
2871.05
2869.76
2868.61
2870.17
2869.84
2871.03
2870.6
2870.95
2869.67
2872.37
2879.33
2901.44
2923.65
2969.41
3332.24
9614.48
8219
3071.27
3075.72
3071.74
3075.8
3075.25
3080.12
3078.33
3073.55
3065.84
3052.75
3040.2
3023.73
3007.48
2990.68
2975.37
2961.78
2950.19
2940.42
2931.6
2924.13
2917.49
2911.17
2906.07
2901.99
2900.13
2898.32
2899.39
2898.64
2899.2
2897.88
2897.79
2895.2
2897.05
2902.88
2926.46
2952.25
2997.05
3280.87
9056.74
8054.84
3104.55
3096.73
3088.07
3092.83
3090.09
3099.24
3099.3
3096.49
3090.86
3078.88
3067.64
3051.77
3036.62
3020.59
3006.13
2993.01
2981.22
2970.74
2961.44
2954.87
2950.12
2945.29
2940.6
2935.85
2933.19
2930.06
2930.33
2928.64
2928.5
2925.76
2925.43
2921.14
2921.93
2925.79
2949.81
2980.06
3028.74
3275.79
8757.57
7795.99
3168.45
3150.35
3138.28
3138.82
3134.45
3145.9
3145.58
3144.4
3138.29
3126.57
3113.29
3095.47
3078.78
3061.59
3047.32
3035.91
3027.34
3020.77
3013.63
3006.83
3000.07
2992.47
2986.57
2981.5
2980.14
2978.76
2980.62
2980.76
2982.17
2980.45
2981.27
2976.74
2976.65
2979.47
3003.09
3037.17
3086.29
3291.64
8228.26
18014.9
4008.04
3552.69
3545.13
3597.77
3665.54
3739.73
3790.1
3828.1
3845.66
3850.29
3845.14
3832.46
3816.44
3798.49
3779.85
3761.99
3738.77
3725.67
3703.85
3698.64
3709.68
3705.74
3715.21
3706.76
3709.79
3699.86
3695.63
3682.56
3668.38
3645.9
3615.48
3571.44
3514.27
3451.92
3388.1
3371.54
3367.15
4006.89
17409.8
185972
18761.8
9618.31
10155.2
10497.2
11092.6
11563.8
12070.4
12490.5
12809.5
13106.7
13337.6
13547.1
13726.9
13896.8
14036.1
14158.1
14241.6
14272.1
14259
14239.4
14191.8
14142.2
13930.5
13727.3
13452.9
13178.7
12842.2
12517.6
12116
11727.2
11236
10749.7
10161.8
9611.26
8995.69
8674
8130.89
16883.2
169367
185972
18761.8
9618.31
10155.2
10497.2
11092.6
11563.8
12070.4
12490.5
12809.5
13106.7
13337.6
13547.1
13726.9
13896.8
14036.1
14158.1
14241.6
14272.1
14259
14239.4
14191.8
14142.2
13930.5
13727.3
13452.9
13178.7
12842.2
12517.6
12116
11727.2
11236
10749.7
10161.8
9611.26
8995.69
8674
8130.89
16883.2
169367
18014.9
4008.04
3552.69
3545.13
3597.77
3665.54
3739.73
3790.1
3828.1
3845.66
3850.29
3845.14
3832.46
3816.44
3798.49
3779.85
3761.99
3738.77
3725.67
3703.85
3698.64
3709.68
3705.74
3715.21
3706.76
3709.79
3699.86
3695.63
3682.56
3668.38
3645.9
3615.48
3571.44
3514.27
3451.92
3388.1
3371.54
3367.15
4006.89
17409.8
7795.99
3168.45
3150.35
3138.28
3138.82
3134.45
3145.9
3145.58
3144.4
3138.29
3126.57
3113.29
3095.47
3078.78
3061.59
3047.32
3035.91
3027.34
3020.77
3013.63
3006.83
3000.07
2992.47
2986.57
2981.5
2980.14
2978.76
2980.62
2980.76
2982.17
2980.45
2981.27
2976.74
2976.65
2979.47
3003.09
3037.17
3086.29
3291.64
8228.26
8054.84
3104.55
3096.73
3088.07
3092.83
3090.09
3099.24
3099.3
3096.49
3090.86
3078.88
3067.64
3051.77
3036.62
3020.59
3006.13
2993.01
2981.22
2970.74
2961.44
2954.87
2950.12
2945.29
2940.6
2935.85
2933.19
2930.06
2930.33
2928.64
2928.5
2925.76
2925.43
2921.14
2921.93
2925.79
2949.81
2980.06
3028.74
3275.79
8757.57
8219
3071.27
3075.72
3071.74
3075.8
3075.25
3080.12
3078.33
3073.55
3065.84
3052.75
3040.2
3023.73
3007.48
2990.68
2975.37
2961.78
2950.19
2940.42
2931.6
2924.13
2917.49
2911.17
2906.07
2901.99
2900.13
2898.32
2899.39
2898.64
2899.2
2897.88
2897.79
2895.2
2897.05
2902.88
2926.46
2952.25
2997.05
3280.87
9056.74
8662.78
3062.2
3069.8
3068.77
3071.65
3069.33
3068.87
3064.9
3057.56
3048.23
3033.23
3017.89
2999.89
2982.02
2963.93
2947.18
2932.17
2919.15
2908.11
2898.45
2890.73
2884.39
2878.71
2874.31
2871.05
2869.76
2868.61
2870.17
2869.84
2871.03
2870.6
2870.95
2869.67
2872.37
2879.33
2901.44
2923.65
2969.41
3332.24
9614.48
8998.78
3070.87
3082.19
3084.44
3089.42
3082.64
3076.35
3068.57
3055.2
3041.01
3023.03
3005.03
2985.01
2965.58
2946.62
2929.15
2913.5
2899.89
2888.26
2878.04
2869.72
2862.82
2856.8
2852.22
2848.97
2847.57
2846.56
2848.14
2848.07
2849.93
2850.42
2851.85
2852.54
2857.24
2867.44
2890.87
2914.01
2962.4
3395.51
10118.9
9324.7
3089.33
3107.16
3114.27
3124.11
3109.32
3095.29
3081.7
3062.47
3043.38
3020.57
2997.95
2975.18
2953.2
2932.39
2913.31
2896.2
2881.24
2868.47
2857.47
2848.71
2841.77
2836.06
2832
2829.41
2828.5
2828.15
2830.34
2831.22
2834.26
2836.21
2839.58
2843.06
2850.34
2863.36
2887.2
2911.06
2960.92
3458.39
10652.3
9602.47
3106.47
3132.76
3148.61
3168.32
3146.72
3125.25
3103.97
3076.67
3050.78
3023.21
2996.51
2970.51
2946.62
2924.37
2904.13
2886.08
2870.31
2856.86
2845.32
2836.1
2828.82
2822.95
2818.85
2816.35
2815.52
2815.42
2817.7
2819.17
2822.96
2826.1
2831.11
2836.97
2847.08
2862.76
2887.84
2913.1
2963.53
3508.46
11100.3
9812.81
3123.38
3160.82
3187.87
3221.1
3193.67
3165.28
3135.01
3098.04
3063.54
3029.89
2998.88
2969.75
2942.95
2918.74
2897.05
2877.86
2861.18
2847
2834.92
2825.3
2817.8
2811.9
2807.9
2805.64
2805.02
2805.28
2807.74
2809.74
2814.16
2818.23
2824.49
2832.15
2844.27
2861.5
2887.22
2912.92
2962.89
3543.14
11543.5
9922.62
3136.43
3186.29
3226.58
3277.14
3247.08
3214.42
3174.18
3126.02
3081.21
3040.21
3004.15
2971.92
2943.26
2917.66
2894.99
2875.11
2857.89
2843.24
2830.75
2820.75
2812.91
2806.75
2802.53
2800.09
2799.35
2799.52
2801.67
2803.76
2808.37
2812.89
2820.09
2829.17
2842.92
2861.65
2888.42
2915.5
2964.27
3568.27
11900.5
9998.85
3148.32
3214.3
3267.94
3337.03
3308.46
3273.9
3222.74
3160.74
3102.89
3052.7
3010.8
2974.98
2944.11
2917.19
2893.62
2873.14
2855.47
2840.47
2827.69
2817.39
2809.24
2802.81
2798.3
2795.56
2794.54
2794.5
2796.22
2798.22
2802.82
2807.56
2815.47
2825.57
2840.65
2860.39
2887.78
2915.23
2962.2
3583.99
12266.5
9901.51
3162.07
3241.96
3307.58
3396.32
3372.98
3340.35
3280.02
3203.15
3130.05
3068.76
3020.13
2980.44
2947.16
2918.7
2894.22
2873.13
2854.98
2839.58
2826.46
2815.86
2807.46
2800.81
2796.1
2793.14
2791.88
2791.65
2793
2794.84
2799.26
2804.03
2812.47
2823.31
2839.51
2859.8
2887.66
2915.96
2960.99
3598.22
12571.1
9817.68
3170.01
3278.49
3355.78
3458.37
3442.77
3412.96
3344.71
3251.6
3160.61
3085.63
3029.08
2985.31
2949.89
2920.09
2894.68
2872.95
2854.37
2838.65
2825.26
2814.39
2805.74
2798.9
2793.99
2790.8
2789.26
2788.77
2789.66
2791.14
2795.12
2799.64
2808.33
2819.46
2836.35
2856.96
2885.53
2914.78
2958.54
3605.13
12884.4
9224.29
3175.16
3320.8
3410.42
3526.42
3520.49
3491.7
3417.43
3308.25
3197.9
3106.36
3039.97
2991.2
2953.36
2922.15
2895.69
2873.16
2854.01
2837.89
2824.21
2813.1
2804.27
2797.3
2792.29
2789.02
2787.35
2786.76
2787.4
2788.71
2792.41
2796.89
2806.01
2817.64
2835.55
2856.76
2886.06
2916.46
2958.5
3616.81
13150.4
8714.63
3181.12
3368.48
3488.5
3609.39
3608.78
3572.41
3491.5
3367.42
3238.17
3128.26
3050.73
2996.46
2956.29
2923.87
2896.53
2873.28
2853.58
2837.06
2823.12
2811.8
2802.82
2795.76
2790.69
2787.37
2785.62
2784.95
2785.4
2786.53
2789.94
2794.32
2803.74
2815.61
2834.31
2855.71
2885.59
2916.69
2957.43
3617.46
13408.7
8092.74
3205.58
3447.32
3630.2
3726.33
3718.2
3661.74
3568.39
3429.3
3280.82
3151.71
3061.87
3001.4
2958.9
2925.42
2897.33
2873.44
2853.22
2836.34
2822.15
2810.66
2801.56
2794.44
2789.35
2786.03
2784.27
2783.58
2783.93
2785
2788.23
2792.62
2802.42
2814.64
2834.26
2855.9
2886.71
2918.73
2959.61
3628.58
13625.6
7340.21
3299.65
3571.16
3829.22
3894.16
3849.49
3757.47
3640.13
3486.98
3320.41
3175.05
3071.97
3005.4
2960.85
2926.65
2898.04
2873.62
2852.97
2835.78
2821.39
2809.75
2800.57
2793.4
2788.3
2784.99
2783.24
2782.56
2782.85
2783.89
2786.98
2791.39
2801.52
2814.02
2834.44
2856.21
2887.97
2920.11
2962.62
3632.4
13835
6398.17
3538.83
3779.82
4105.13
4119.08
4005.35
3858.26
3704.24
3535.96
3355.13
3195.45
3080.37
3008.14
2962.07
2927.52
2898.6
2873.81
2852.82
2835.38
2820.83
2809.09
2799.84
2792.64
2787.53
2784.24
2782.49
2781.82
2782.09
2783.11
2786.13
2790.56
2800.95
2813.7
2834.93
2856.76
2889.6
2920.94
2967.66
3654.01
14061
5374.71
3912.75
4240.24
4488.45
4408.45
4167.72
3941.17
3752.8
3568.65
3381.42
3210.91
3085.97
3009.49
2962.62
2928.03
2899
2873.98
2852.76
2835.15
2820.49
2808.68
2799.39
2792.17
2787.05
2783.77
2782.03
2781.38
2781.63
2782.66
2785.63
2790.1
2800.68
2813.6
2835.44
2857.3
2890.92
2920.98
2971.83
3672.46
14662.2
)
;

boundaryField
{
    inlet
    {
        type            calculated;
        value           uniform 14000.1;
    }
    outlet
    {
        type            calculated;
        value           nonuniform List<scalar> 
165
(
2397.21
2843.47
3137.59
3191.79
3196.63
3214.78
3222.62
3235.13
3225.9
3228.09
3222.8
3222.49
3220.87
3217.28
3205.51
3189.41
3147.45
3072.86
3408.07
3899.78
3899.78
3335.8
3022.29
3093.52
3138.72
3163.37
3190.78
3210.08
3230.6
3253.33
3272.47
3290.74
3306.23
3319.65
3330.54
3340.41
3346.97
3349.83
3352.21
3351.65
3352.96
3357.11
3353.95
3360.56
3355.47
3355.49
3349.97
3346.16
3337.06
3329.47
3314.91
3303.44
3284.73
3269.67
3245
3214.69
3161.27
3077.61
3376.91
3918.98
3336.5
3370.47
3358.27
3353.72
3350.23
3351.07
3348.06
3345.51
3337.94
3330.13
3315.49
3302.61
3283.5
3266.39
3239.97
3206.79
3153.57
3070.02
3367.17
3918.98
3371.86
3364.86
3351.22
3364.86
3371.86
3918.98
3367.17
3070.02
3153.57
3206.79
3239.97
3266.39
3283.5
3302.61
3315.49
3330.13
3337.94
3345.51
3348.06
3351.07
3350.23
3353.72
3358.27
3370.47
3336.5
3899.78
3335.8
3022.29
3093.52
3138.72
3163.37
3190.78
3210.08
3230.6
3253.33
3272.47
3290.74
3306.23
3319.65
3330.54
3340.41
3346.97
3349.83
3352.21
3351.65
3352.96
3357.11
3353.95
3360.56
3355.47
3355.49
3349.97
3346.16
3337.06
3329.47
3314.91
3303.44
3284.73
3269.67
3245
3214.69
3161.27
3077.61
3376.91
3918.98
3899.78
3408.07
3072.86
3147.45
3189.41
3205.51
3217.28
3220.87
3222.49
3222.8
3228.09
3225.9
3235.13
3222.62
3214.78
3196.63
3191.79
3137.59
2843.47
2397.21
)
;
    }
    obstacle
    {
        type            calculated;
        value           nonuniform List<scalar> 
40
(
42373.2
17763.5
14867
14348.6
14035.7
13831.9
13675.3
13542.8
13457.6
13324.2
42373.2
17763.5
14867
14348.6
14035.7
13831.9
13675.3
13542.8
13457.6
13324.2
13376.2
13242.3
13220.6
13008.6
12983.2
13376.2
13242.3
13220.6
13008.6
12983.2
9537.93
9181.34
8849.21
8346.64
7614.28
9537.93
9181.34
8849.21
8346.64
7614.28
)
;
    }
    empty
    {
        type            empty;
    }
}


// ************************************************************************* //
