/*--------------------------------*- C++ -*----------------------------------*\
| =========                 |                                                 |
| \\      /  F ield         | OpenFOAM: The Open Source CFD Toolbox           |
|  \\    /   O peration     | Version:  v1912                                 |
|   \\  /    A nd           | Website:  www.openfoam.com                      |
|    \\/     M anipulation  |                                                 |
\*---------------------------------------------------------------------------*/
FoamFile
{
    version     2.0;
    format      ascii;
    class       volScalarField;
    location    "0.8";
    object      p;
}
// * * * * * * * * * * * * * * * * * * * * * * * * * * * * * * * * * * * * * //

dimensions      [0 2 -2 0 0 0 0];


internalField   nonuniform List<scalar> 
10000
(
8.51048e-06
0.00011051
-0.000111998
-0.000701516
-0.00160744
-0.00277336
-0.00414206
-0.00565865
-0.00727335
-0.00894216
-0.0106264
-0.0122924
-0.0139108
-0.0154562
-0.0169065
-0.0182428
-0.0194487
-0.0205106
-0.0214169
-0.0221578
-0.0227256
-0.0231141
-0.0233185
-0.0233356
-0.0231631
-0.0228003
-0.022247
-0.0215044
-0.0205744
-0.0194598
-0.0181642
-0.0166917
-0.0150473
-0.0132365
-0.0112655
-0.00914083
-0.00686967
-0.00445964
-0.00191879
0.000744428
0.00352118
0.00640227
0.00937818
0.0124391
0.0155749
0.0187752
0.0220294
0.0253268
0.0286563
0.0320068
0.0353672
0.0387259
0.0420716
0.0453929
0.0486782
0.0519162
0.0550955
0.0582048
0.061233
0.0641693
0.0670028
0.0697233
0.0723206
0.074785
0.0771072
0.0792785
0.0812904
0.0831354
0.0848064
0.0862971
0.0876018
0.0887159
0.0896356
0.0903578
0.0908809
0.091204
0.0913276
0.0912534
0.0909846
0.0905255
0.0898822
0.0890625
0.0880757
0.0869333
0.0856486
0.0842373
0.0827174
0.0811097
0.0794377
0.0777285
0.0760124
0.0743241
0.0727026
0.0711915
0.0698398
0.0687003
0.0678271
0.0672716
0.0670764
0.0671875
-8.09317e-05
1.62371e-05
-0.000200987
-0.000727822
-0.0015131
-0.00251724
-0.00369834
-0.005013
-0.00641997
-0.00788144
-0.00936322
-0.0108348
-0.0122691
-0.0136422
-0.0149333
-0.0161241
-0.0171989
-0.0181442
-0.0189485
-0.0196023
-0.0200974
-0.0204277
-0.0205881
-0.020575
-0.0203859
-0.0200196
-0.0194757
-0.0187548
-0.0178586
-0.0167892
-0.0155497
-0.0141441
-0.0125767
-0.0108525
-0.0089772
-0.00695695
-0.00479837
-0.00250858
-9.51343e-05
0.00243402
0.00507056
0.00780581
0.0106308
0.0135362
0.0165124
0.0195496
0.0226379
0.0257668
0.0289261
0.0321051
0.0352933
0.0384797
0.0416536
0.0448041
0.0479204
0.0509917
0.0540072
0.0569562
0.0598284
0.0626134
0.0653011
0.0678818
0.0703461
0.0726848
0.0748893
0.0769514
0.0788634
0.0806183
0.0822095
0.0836313
0.0848787
0.0859475
0.0868343
0.0875367
0.0880534
0.0883838
0.088529
0.0884908
0.0882726
0.087879
0.0873163
0.0865921
0.0857157
0.0846984
0.0835532
0.0822953
0.080942
0.0795129
0.0780304
0.0765195
0.0750082
0.0735277
0.0721123
0.0707995
0.0696297
0.0686444
0.0678832
0.0673818
0.067187
0.0672986
0.000143625
0.000234802
1.76054e-05
-0.000477011
-0.00119372
-0.00209955
-0.00316054
-0.00434056
-0.00560451
-0.00691953
-0.00825527
-0.00958418
-0.0108814
-0.0121248
-0.0132948
-0.0143741
-0.0153476
-0.0162022
-0.0169268
-0.017512
-0.0179498
-0.018234
-0.0183594
-0.0183223
-0.01812
-0.017751
-0.0172147
-0.0165114
-0.0156425
-0.0146098
-0.013416
-0.0120647
-0.0105599
-0.00890633
-0.00710912
-0.00517407
-0.00310743
-0.000915896
0.0013934
0.00381292
0.00633477
0.00895069
0.0116521
0.0144303
0.0172759
0.0201797
0.0231321
0.0261233
0.0291434
0.0321822
0.0352295
0.0382752
0.0413088
0.04432
0.0472983
0.0502336
0.0531156
0.0559342
0.0586793
0.0613413
0.0639106
0.0663778
0.0687342
0.070971
0.0730801
0.0750539
0.0768852
0.0785672
0.0800941
0.0814604
0.0826616
0.0836939
0.0845542
0.0852406
0.0857519
0.0860881
0.0862501
0.0862401
0.0860617
0.0857194
0.0852196
0.0845697
0.083779
0.0828583
0.0818202
0.0806792
0.0794518
0.0781567
0.0768147
0.0754489
0.0740851
0.0727513
0.0714779
0.0702977
0.0692448
0.0683541
0.0676576
0.0671855
0.0669914
0.0671043
0.000732398
0.000762762
0.000513282
1.78094e-05
-0.000672489
-0.00152774
-0.00251834
-0.0036131
-0.00478159
-0.00599493
-0.00722618
-0.00845053
-0.00964535
-0.0107903
-0.011867
-0.0128594
-0.0137532
-0.0145359
-0.0151969
-0.0157271
-0.0161187
-0.0163656
-0.0164626
-0.0164061
-0.0161932
-0.0158223
-0.0152928
-0.0146046
-0.0137589
-0.0127573
-0.0116023
-0.0102972
-0.0088456
-0.00725194
-0.00552112
-0.00365856
-0.00167018
0.000437674
0.00265823
0.00498431
0.00740838
0.00992256
0.0125187
0.0151883
0.0179226
0.0207126
0.0235492
0.026423
0.0293244
0.0322438
0.0351713
0.0380972
0.0410114
0.0439042
0.0467654
0.0495853
0.0523541
0.055062
0.0576996
0.0602575
0.0627265
0.065098
0.0673632
0.0695141
0.071543
0.0734424
0.0752057
0.0768266
0.0782994
0.0796191
0.0807815
0.0817831
0.0826211
0.0832938
0.0838003
0.0841406
0.0843159
0.0843284
0.0841818
0.0838805
0.0834308
0.0828399
0.0821168
0.0812719
0.0803173
0.0792667
0.0781357
0.0769418
0.0757043
0.0744446
0.0731861
0.0719541
0.0707757
0.0696797
0.0686959
0.0678546
0.0671839
0.0667117
0.0664895
0.0665512
0.00163873
0.00155093
0.00123231
0.000707348
1.45246e-05
-0.000819532
-0.00176879
-0.00280645
-0.00390621
-0.00504285
-0.00619259
-0.00733328
-0.00844451
-0.00950772
-0.0105061
-0.0114247
-0.0122502
-0.0129709
-0.0135767
-0.0140588
-0.01441
-0.0146241
-0.0146964
-0.0146229
-0.0144011
-0.0140292
-0.0135063
-0.0128325
-0.0120086
-0.0110361
-0.00991729
-0.00865511
-0.00725304
-0.00571518
-0.00404615
-0.00225108
-0.000335574
0.00169435
0.00383223
0.00607126
0.00840422
0.0108236
0.0133216
0.01589
0.0185206
0.0212046
0.0239334
0.0266978
0.0294888
0.032297
0.0351131
0.0379276
0.040731
0.0435136
0.0462662
0.048979
0.0516428
0.0542482
0.0567862
0.0592477
0.0616241
0.063907
0.0660881
0.0681597
0.0701145
0.0719454
0.0736461
0.0752106
0.0766336
0.0779104
0.079037
0.0800102
0.0808274
0.0814871
0.0819886
0.0823319
0.0825185
0.0825505
0.0824313
0.0821657
0.0817594
0.0812195
0.0805547
0.0797747
0.0788911
0.0779167
0.0768662
0.0757557
0.0746031
0.073428
0.0722515
0.0710962
0.0699863
0.0689469
0.0680041
0.067184
0.0665117
0.0660124
0.0657267
0.0656806
0.00280946
0.00256229
0.00214393
0.0015638
0.000842744
3.99743e-06
-0.00092956
-0.00193513
-0.00299017
-0.00407282
-0.00516222
-0.00623876
-0.00728422
-0.00828181
-0.00921629
-0.0100739
-0.0108424
-0.0115108
-0.0120697
-0.0125109
-0.0128275
-0.0130137
-0.0130648
-0.0129771
-0.0127481
-0.012376
-0.01186
-0.0111998
-0.0103964
-0.00945098
-0.00836572
-0.00714331
-0.00578704
-0.00430075
-0.00268882
-0.000956095
0.000892093
0.00285001
0.00491151
0.00707009
0.00931887
0.0116506
0.0140579
0.0165329
0.0190676
0.0216538
0.024283
0.0269465
0.0296356
0.0323413
0.0350546
0.0377664
0.0404676
0.043149
0.0458015
0.0484158
0.0509831
0.0534944
0.055941
0.0583141
0.0606056
0.0628073
0.0649115
0.0669106
0.0687976
0.0705659
0.0722094
0.0737224
0.0751
0.0763375
0.0774314
0.0783784
0.0791763
0.0798237
0.0803199
0.0806652
0.0808608
0.080909
0.0808132
0.0805776
0.0802081
0.0797113
0.0790953
0.0783695
0.0775447
0.0766328
0.0756475
0.0746036
0.0735175
0.0724068
0.0712907
0.0701894
0.069124
0.0681166
0.0671897
0.0663659
0.0656671
0.065116
0.0647367
0.0645414
0.00419157
0.00375828
0.00321699
0.00256008
0.0017885
0.000922277
-1.84305e-05
-0.00101447
-0.00204672
-0.00309635
-0.0041452
-0.00517605
-0.00617273
-0.00712025
-0.00800484
-0.00881403
-0.00953658
-0.0101625
-0.010683
-0.0110905
-0.0113786
-0.0115416
-0.0115754
-0.0114764
-0.0112421
-0.0108708
-0.0103617
-0.00971465
-0.00893028
-0.00800991
-0.00695548
-0.00576952
-0.00445516
-0.00301602
-0.00145626
0.000219506
0.00200621
0.00389838
0.00589013
0.00797524
0.0101471
0.0123989
0.0147234
0.0171132
0.0195604
0.0220573
0.0245956
0.0271671
0.0297633
0.0323756
0.0349954
0.0376138
0.040222
0.0428113
0.0453728
0.0478978
0.0503776
0.0528036
0.0551673
0.0574605
0.0596752
0.0618036
0.0638381
0.0657718
0.0675978
0.0693096
0.0709016
0.0723682
0.0737046
0.0749067
0.0759709
0.0768941
0.0776743
0.07831
0.0788008
0.0791468
0.0793493
0.0794105
0.0793336
0.0791227
0.0787831
0.0783214
0.077745
0.0770628
0.0762847
0.0754219
0.0744869
0.0734933
0.072456
0.0713909
0.0703151
0.0692465
0.0682037
0.067206
0.0662725
0.0654225
0.0646756
0.0640514
0.0635553
0.0631836
0.00573505
0.0050994
0.00441864
0.00366788
0.00282762
0.00191502
0.000947931
-5.77946e-05
-0.00108612
-0.00212095
-0.00314663
-0.00414814
-0.00511127
-0.00602271
-0.00687019
-0.00764247
-0.0083294
-0.00892188
-0.00941189
-0.00979244
-0.0100575
-0.0102022
-0.0102223
-0.0101146
-0.00987684
-0.00950739
-0.00900545
-0.00837093
-0.00760443
-0.00670719
-0.00568106
-0.00452845
-0.00325233
-0.00185617
-0.00034392
0.00128002
0.00301079
0.00484315
0.00677148
0.0087898
0.0108918
0.0130709
0.0153202
0.0176324
0.0200002
0.022416
0.0248718
0.0273598
0.0298718
0.0323994
0.0349344
0.0374682
0.0399924
0.0424984
0.0449778
0.0474221
0.0498229
0.0521719
0.0544611
0.0566823
0.0588279
0.0608904
0.0628625
0.0647375
0.0665086
0.0681699
0.0697157
0.0711407
0.0724404
0.0736106
0.0746479
0.0755496
0.0763135
0.0769382
0.0774233
0.0777689
0.0779763
0.0780474
0.0779853
0.0777939
0.0774781
0.077044
0.0764987
0.0758502
0.0751079
0.0742819
0.0733837
0.0724258
0.0714215
0.0703851
0.0693318
0.0682774
0.0672383
0.066231
0.0652718
0.0643769
0.0635639
0.0628496
0.0622201
0.061655
0.00739539
0.00654863
0.00571727
0.00485979
0.0039365
0.00296218
0.0019528
0.000921236
-0.000119222
-0.00115497
-0.0021726
-0.00315913
-0.00410219
-0.00499008
-0.00581193
-0.00655774
-0.0072184
-0.00778574
-0.00825251
-0.00861237
-0.00885985
-0.00899039
-0.00900025
-0.00888651
-0.008647
-0.00828034
-0.00778579
-0.00716333
-0.00641355
-0.00553767
-0.00453746
-0.00341527
-0.00217393
-0.000816777
0.000652399
0.00222937
0.00390949
0.00568773
0.00755867
0.00951658
0.0115554
0.0136687
0.0158499
0.0180922
0.0203882
0.0227307
0.0251122
0.0275248
0.0299608
0.0324122
0.0348708
0.0373285
0.039777
0.0422082
0.0446138
0.0469857
0.0493157
0.0515958
0.0538182
0.0559751
0.0580591
0.0600628
0.0619793
0.0638019
0.0655243
0.0671406
0.0686453
0.0700333
0.0713002
0.072442
0.0734554
0.0743376
0.0750865
0.0757009
0.0761802
0.0765244
0.0767348
0.076813
0.076762
0.0765854
0.0762876
0.0758744
0.0753523
0.0747286
0.074012
0.0732118
0.0723384
0.0714029
0.0704176
0.069395
0.0683488
0.0672927
0.0662409
0.0652077
0.0642068
0.0632517
0.0623581
0.0615407
0.0607664
0.0599985
0.00913394
0.00807243
0.00708357
0.00611001
0.00509263
0.00404431
0.00297955
0.00190865
0.000842432
-0.000207715
-0.00123042
-0.00221457
-0.00314947
-0.00402496
-0.00483149
-0.00556025
-0.00620317
-0.00675297
-0.00720317
-0.00754809
-0.00778284
-0.0079033
-0.00790613
-0.0077887
-0.0075491
-0.00718611
-0.00669915
-0.00608828
-0.00535412
-0.00449788
-0.00352133
-0.00242672
-0.00121683
0.000105131
0.0015355
0.0030702
0.00470476
0.00643434
0.00825372
0.0101574
0.0121394
0.0141937
0.0163139
0.0184933
0.020725
0.0230019
0.0253167
0.0276619
0.0300299
0.032413
0.0348034
0.0371931
0.0395742
0.0419387
0.0442787
0.0465862
0.0488533
0.0510723
0.0532355
0.0553354
0.0573648
0.0593166
0.061184
0.0629605
0.06464
0.0662167
0.0676853
0.0690408
0.0702788
0.0713956
0.0723877
0.0732525
0.073988
0.0745927
0.0750661
0.0754082
0.0756198
0.0757027
0.0756594
0.0754931
0.0752082
0.0748097
0.0743036
0.0736966
0.0729967
0.0722122
0.0713527
0.0704281
0.0694492
0.0684275
0.0673747
0.066303
0.0652246
0.0641517
0.0630959
0.0620681
0.0610827
0.0601527
0.0592261
0.0582512
0.0109173
0.00964082
0.00849065
0.00739452
0.00627471
0.00514274
0.00401202
0.0028906
0.00178716
0.000711116
-0.000327975
-0.0013207
-0.00225792
-0.00313086
-0.00393125
-0.00465141
-0.00528426
-0.00582339
-0.00626308
-0.00659833
-0.00682481
-0.00693888
-0.0069376
-0.00681867
-0.00658046
-0.00622194
-0.0057427
-0.0051429
-0.00442326
-0.00358501
-0.00262989
-0.00156014
-0.000378468
0.000911995
0.00230769
0.00380466
0.00539859
0.00708479
0.00885823
0.0107136
0.0126451
0.0146469
0.0167128
0.0188364
0.0210109
0.0232295
0.0254851
0.0277705
0.0300783
0.032401
0.0347311
0.0370607
0.0393823
0.0416881
0.0439702
0.0462211
0.0484329
0.0505983
0.0527097
0.0547598
0.0567416
0.0586482
0.0604728
0.0622092
0.0638514
0.0653938
0.066831
0.0681583
0.0693714
0.0704664
0.07144
0.0722896
0.073013
0.0736089
0.0740765
0.0744157
0.0746272
0.0747125
0.0746738
0.0745141
0.0742372
0.0738478
0.0733513
0.0727538
0.0720624
0.0712848
0.0704294
0.0695052
0.068522
0.0674896
0.0664185
0.0653193
0.0642025
0.0630785
0.0619568
0.0608462
0.0597604
0.0587109
0.0576279
0.0564452
0.0127167
0.0112272
0.00991417
0.00869116
0.00746283
0.00623975
0.0050346
0.00385352
0.0027033
0.00159165
0.000526494
-0.000484273
-0.00143291
-0.00231196
-0.00311433
-0.00383338
-0.00446299
-0.00499762
-0.00543227
-0.00576259
-0.00598482
-0.00609582
-0.00609306
-0.00597459
-0.00573906
-0.00538567
-0.00491419
-0.00432492
-0.00361867
-0.00279673
-0.00186087
-0.000813314
0.000343283
0.00160584
0.00297088
0.00443454
0.00599263
0.00764059
0.00937355
0.0111863
0.0130734
0.015029
0.0170472
0.0191217
0.021246
0.0234135
0.0256172
0.0278503
0.0301054
0.0323753
0.0346526
0.0369299
0.0391997
0.0414543
0.0436863
0.045888
0.0480521
0.0501711
0.0522378
0.0542451
0.056186
0.0580537
0.0598418
0.061544
0.0631545
0.0646676
0.0660782
0.0673817
0.0685735
0.06965
0.0706079
0.0714443
0.0721573
0.0727452
0.0732073
0.0735432
0.0737534
0.0738392
0.0738025
0.0736459
0.0733729
0.0729876
0.0724949
0.0719003
0.0712103
0.0704315
0.0695718
0.068639
0.0676417
0.0665887
0.0654893
0.0643523
0.0631871
0.0620023
0.0608059
0.0596048
0.058412
0.0572384
0.055997
0.054608
0.0145072
0.0128081
0.0113321
0.00997964
0.00863849
0.00731866
0.0060324
0.00478424
0.00357934
0.00242393
0.00132451
0.000287593
-0.00068035
-0.00157304
-0.00238448
-0.00310903
-0.00374147
-0.00427704
-0.0047115
-0.00504112
-0.00526269
-0.00537358
-0.00537166
-0.00525534
-0.00502358
-0.00467583
-0.00421203
-0.00363266
-0.00293863
-0.00213132
-0.00121255
-0.000184538
0.000950067
0.00218823
0.00352653
0.0049612
0.00648811
0.00810284
0.00980064
0.0115765
0.013425
0.0153406
0.0173175
0.0193495
0.0214303
0.0235536
0.0257126
0.0279004
0.0301102
0.0323347
0.0345668
0.0367992
0.0390245
0.0412355
0.0434247
0.0455847
0.0477082
0.049788
0.051817
0.0537882
0.0556947
0.05753
0.0592876
0.0609613
0.0625454
0.0640344
0.0654231
0.0667068
0.0678812
0.0689425
0.0698874
0.070713
0.0714171
0.0719982
0.0724551
0.0727874
0.0729955
0.0730803
0.0730433
0.0728869
0.0726141
0.0722285
0.0717345
0.0711372
0.070442
0.0696553
0.0687836
0.0678342
0.0668145
0.0657324
0.0645958
0.0634126
0.0621906
0.0609372
0.0596589
0.0583612
0.0570567
0.0557558
0.0543555
0.0527631
0.0162673
0.0143626
0.0127248
0.0112415
0.00978456
0.00836378
0.00699121
0.00567002
0.004404
0.00319806
0.00205746
0.000987493
-6.51022e-06
-0.000919349
-0.00174603
-0.00248183
-0.00312239
-0.00366372
-0.00410226
-0.00443488
-0.00465895
-0.00477228
-0.0047732
-0.00466047
-0.00443335
-0.00409155
-0.00363524
-0.00306504
-0.002382
-0.0015876
-0.000683716
0.000327382
0.00144305
0.00266028
0.00397569
0.00538558
0.0068859
0.0084723
0.0101401
0.0118845
0.0137002
0.0155818
0.0175235
0.0195195
0.0215636
0.0236494
0.0257705
0.0279202
0.0300917
0.032278
0.0344722
0.0366669
0.0388552
0.0410298
0.0431833
0.0453088
0.0473988
0.0494464
0.0514445
0.0533862
0.0552648
0.0570738
0.0588068
0.0604577
0.0620209
0.0634907
0.064862
0.0661302
0.067291
0.0683405
0.0692752
0.0700923
0.0707894
0.0713647
0.0718171
0.072146
0.0723514
0.0724339
0.0723948
0.072236
0.0719602
0.0715706
0.071071
0.0704658
0.06976
0.0689591
0.068069
0.067096
0.0660468
0.0649282
0.0637471
0.0625102
0.0612245
0.0598961
0.0585301
0.0571311
0.0557115
0.0542816
0.052723
0.0509306
0.0179782
0.0158722
0.0140743
0.0124597
0.0108852
0.00936046
0.00789759
0.00649866
0.00516627
0.00390422
0.00271666
0.00160784
0.000582036
-0.000356521
-0.00120375
-0.00195579
-0.00260906
-0.0031603
-0.0036066
-0.00394545
-0.00417472
-0.0042927
-0.00429812
-0.00419013
-0.00396829
-0.00363258
-0.00318339
-0.00262151
-0.00194815
-0.00116488
-0.000273665
0.000723167
0.00182295
0.00302268
0.00431901
0.00570827
0.00718648
0.00874936
0.0103924
0.0121107
0.0138992
0.0157526
0.0176653
0.0196315
0.0216452
0.0237002
0.0257902
0.0279087
0.0300489
0.032204
0.0343673
0.0365316
0.0386899
0.0408352
0.0429603
0.0450581
0.0471216
0.0491438
0.0511177
0.0530364
0.0548934
0.0566822
0.0583965
0.0600302
0.0615776
0.0630333
0.0643919
0.0656489
0.0667998
0.0678408
0.0687683
0.0695793
0.0702713
0.0708424
0.0712913
0.0716169
0.0718193
0.0718986
0.071856
0.0716929
0.0714115
0.0710146
0.0705056
0.0698882
0.069167
0.0683467
0.0674325
0.06643
0.0653451
0.0641836
0.0629517
0.0616552
0.0602999
0.0588911
0.057433
0.0559291
0.054392
0.0528321
0.0511164
0.049128
0.0196232
0.0173206
0.0153646
0.0136189
0.0119258
0.010295
0.00873881
0.00725845
0.00585547
0.00453276
0.00329348
0.00214094
0.0010785
0.000109503
-0.000762794
-0.00153532
-0.00220523
-0.00276994
-0.00322717
-0.00357496
-0.00381171
-0.00393616
-0.00394744
-0.00384505
-0.00362889
-0.0032992
-0.00285659
-0.00230206
-0.00163695
-0.000862965
1.78456e-05
0.00100309
0.00209005
0.0032757
0.00455672
0.00592946
0.00738999
0.00893409
0.0105573
0.0122548
0.0140216
0.0158526
0.0177422
0.0196849
0.0216746
0.0237053
0.0257708
0.0278647
0.0299804
0.0321114
0.0342507
0.0363915
0.0385269
0.0406499
0.0427535
0.0448306
0.0468744
0.0488778
0.050834
0.0527363
0.0545779
0.0563526
0.0580539
0.059676
0.061213
0.0626593
0.06401
0.06526
0.066405
0.0674409
0.0683642
0.0691717
0.0698608
0.0704293
0.0708757
0.0711988
0.0713981
0.0714739
0.0714266
0.0712575
0.0709684
0.0705616
0.07004
0.0694068
0.068666
0.0678218
0.0668787
0.0658417
0.0647158
0.0635062
0.0622181
0.0608568
0.0594272
0.0579338
0.05638
0.0547685
0.0531123
0.051422
0.0495508
0.0473703
0.0211878
0.0186928
0.0165811
0.014705
0.0128927
0.0111544
0.00950279
0.00793816
0.00646127
0.0050742
0.00377929
0.00257901
0.00147591
0.000472532
-0.000428633
-0.00122523
-0.00191509
-0.00249626
-0.00296705
-0.00332605
-0.00357214
-0.0037045
-0.00372267
-0.00362649
-0.00341615
-0.00309219
-0.00265547
-0.00210715
-0.00144876
-0.000682119
0.000190619
0.00116699
0.00224421
0.00341923
0.0046887
0.006049
0.00749624
0.00902623
0.0106345
0.0123165
0.0140671
0.0158813
0.0177538
0.0196789
0.0216508
0.0236636
0.0257112
0.0277871
0.0298851
0.0319986
0.0341208
0.036245
0.0383644
0.0404719
0.0425608
0.0446241
0.0466548
0.0486461
0.0505912
0.0524833
0.0543158
0.0560823
0.0577765
0.0593925
0.0609243
0.0623664
0.0637136
0.064961
0.0661041
0.0671386
0.0680609
0.0688677
0.0695561
0.0701239
0.0705691
0.0708905
0.0710873
0.0711593
0.0711067
0.0709305
0.0706321
0.0702132
0.0696764
0.0690244
0.0682607
0.0673887
0.0664127
0.0653367
0.0641654
0.0629032
0.0615546
0.0601243
0.0586164
0.057035
0.0553826
0.0536614
0.051885
0.0500644
0.0480393
0.0456704
0.0226589
0.0199756
0.0177105
0.0157048
0.0137734
0.0119268
0.0101781
0.00852704
0.00697364
0.00551927
0.00416557
0.00291428
0.0017672
0.000726174
-0.000207003
-0.00103064
-0.00174319
-0.00234329
-0.00282981
-0.00320183
-0.00345871
-0.00360007
-0.00362582
-0.00353616
-0.00333156
-0.00301285
-0.0025811
-0.00203772
-0.00138437
-0.000623035
0.000244039
0.0012143
0.0022849
0.00345274
0.00471445
0.0060664
0.0075047
0.00902522
0.0106236
0.0122951
0.0140349
0.015838
0.017699
0.0196125
0.0215728
0.023574
0.02561
0.0276746
0.0297614
0.0318641
0.0339759
0.0360903
0.0382004
0.0402994
0.0423804
0.0444365
0.0464608
0.0484465
0.0503869
0.0522751
0.0541047
0.0558691
0.057562
0.0591773
0.0607092
0.0621521
0.0635007
0.0647499
0.0658951
0.066932
0.0678566
0.0686656
0.0693559
0.0699249
0.0703707
0.0706916
0.0708865
0.070955
0.070897
0.0707129
0.0704039
0.0699714
0.0694173
0.0687441
0.0679546
0.0670518
0.0660394
0.064921
0.0637005
0.0623819
0.0609692
0.0594662
0.0578769
0.0562046
0.0544514
0.0526191
0.0507217
0.048771
0.0465937
0.04404
0.0240246
0.0211568
0.0187406
0.0166064
0.0145561
0.0126007
0.0107539
0.00901478
0.00738286
0.00585888
0.00444388
0.00313892
0.00194519
0.00086387
-0.000103873
-0.000956955
-0.00169441
-0.00231542
-0.00281935
-0.0032058
-0.00347455
-0.00362565
-0.00365937
-0.00357624
-0.00337706
-0.00306288
-0.00263504
-0.00209513
-0.00144502
-0.000686822
0.000177089
0.00114407
0.00221122
0.00337538
0.00463313
0.00598081
0.00741455
0.00893021
0.0105235
0.0121897
0.013924
0.0157215
0.0175769
0.0194847
0.0214394
0.0234351
0.0254659
0.0275255
0.0296078
0.0317063
0.0338145
0.0359257
0.0380332
0.0401303
0.0422101
0.0442657
0.0462902
0.0482769
0.050219
0.0521097
0.0539424
0.0557106
0.057408
0.0590284
0.0605658
0.0620146
0.0633693
0.0646248
0.0657764
0.0668194
0.0677499
0.0685643
0.0692592
0.0698319
0.0702801
0.0706019
0.0707961
0.0708616
0.0707983
0.0706061
0.0702858
0.0698385
0.0692657
0.0685693
0.0677517
0.0668157
0.0657641
0.0646003
0.0633276
0.0619495
0.0604695
0.0588912
0.0572177
0.0554523
0.0535965
0.0516518
0.049633
0.0475526
0.0452246
0.0424889
0.0252741
0.0222252
0.01966
0.0173985
0.0152297
0.0131654
0.0112197
0.00939143
0.00767949
0.00608414
0.00460585
0.00324515
0.00200264
0.000878922
-0.000125411
-0.00100983
-0.00177391
-0.00241735
-0.00293998
-0.00334186
-0.0036232
-0.00378443
-0.00382619
-0.00374935
-0.00355499
-0.00324442
-0.00281921
-0.00228117
-0.00163234
-0.000874994
-1.16331e-05
0.000955
0.00202193
0.00318592
0.00444353
0.00579106
0.00722461
0.00874005
0.010333
0.011999
0.0137332
0.0155306
0.017386
0.019294
0.0212491
0.0232455
0.0252773
0.0273384
0.0294226
0.0315234
0.0336345
0.0357492
0.0378608
0.0399627
0.0420479
0.0441096
0.046141
0.0481352
0.0500853
0.0519848
0.0538268
0.0556049
0.0573126
0.0589436
0.060492
0.0619519
0.0633177
0.0645842
0.0657464
0.0667997
0.0677398
0.0685629
0.0692654
0.0698443
0.0702972
0.0706218
0.0708165
0.0708801
0.070812
0.0706119
0.07028
0.0698172
0.0692246
0.0685037
0.0676564
0.066685
0.0655921
0.0643805
0.0630531
0.061613
0.0600633
0.0584071
0.0566474
0.054787
0.0528271
0.0507691
0.0486286
0.0464187
0.0439414
0.0410262
0.0263975
0.0231706
0.0204583
0.0180705
0.0157838
0.0136105
0.0115656
0.0096474
0.00785434
0.00618628
0.00464322
0.00322518
0.00193225
0.000764508
-0.000277964
-0.00119516
-0.00198714
-0.00265409
-0.0031963
-0.00361424
-0.00390853
-0.00407997
-0.00412956
-0.00405848
-0.0038681
-0.00356
-0.00313597
-0.00259801
-0.00194836
-0.00118944
-0.000323902
0.000645403
0.00171541
0.00288283
0.00414417
0.00549568
0.00693343
0.00845328
0.0100509
0.0117217
0.013461
0.0152637
0.0171248
0.0190388
0.0210003
0.0230035
0.0250425
0.0271114
0.0292039
0.0313136
0.0334342
0.035559
0.0376813
0.0397946
0.0418918
0.0439663
0.046011
0.0480192
0.0499839
0.0518984
0.053756
0.05555
0.0572739
0.0589213
0.0604862
0.0619624
0.0633444
0.0646267
0.0658041
0.0668719
0.0678255
0.0686609
0.0693742
0.0699623
0.0704223
0.0707517
0.0709487
0.0710117
0.0709398
0.0707322
0.070389
0.0699106
0.0692975
0.0685512
0.067673
0.0666649
0.0655289
0.0642676
0.0628836
0.0613794
0.059758
0.058022
0.0561743
0.0542173
0.0521522
0.0499801
0.0477175
0.0453784
0.0427527
0.03966
0.0273855
0.0239832
0.0211255
0.0186125
0.0162085
0.0139264
0.0117821
0.00977336
0.00789842
0.00615669
0.00454776
0.00307121
0.00172664
0.000513698
-0.000568036
-0.00151902
-0.00233977
-0.00303093
-0.00359321
-0.00402749
-0.00433477
-0.0045162
-0.00457311
-0.004507
-0.00431952
-0.00401252
-0.003588
-0.00304818
-0.00239545
-0.00163241
-0.000761845
0.00021326
0.00128975
0.00246426
0.00373323
0.00509289
0.00653926
0.00806818
0.00967528
0.011356
0.0131056
0.0149192
0.0167916
0.0187174
0.0206912
0.0227073
0.0247597
0.0268426
0.0289498
0.0310749
0.0332115
0.0353529
0.0374927
0.0396239
0.0417399
0.0438336
0.0458983
0.047927
0.0499128
0.0518487
0.053728
0.055544
0.0572901
0.0589598
0.0605467
0.0620448
0.0634482
0.0647513
0.0659486
0.0670353
0.0680065
0.068858
0.0695857
0.070186
0.0706559
0.0709927
0.071194
0.0712581
0.0711836
0.0709696
0.0706157
0.0701217
0.0694882
0.0687159
0.0678061
0.0667602
0.0655801
0.0642677
0.0628254
0.0612556
0.0595608
0.0577435
0.0558062
0.0537514
0.0515801
0.0492931
0.0469081
0.0444399
0.0416665
0.0383977
0.0282294
0.0246538
0.0216522
0.0190148
0.0164941
0.0141036
0.0118597
0.00976024
0.00780291
0.00598686
0.00431131
0.00277543
0.00137841
0.000119452
-0.00100228
-0.00198768
-0.00283771
-0.00355341
-0.00413591
-0.00458647
-0.00490645
-0.00509735
-0.00516081
-0.00509863
-0.00491274
-0.00460524
-0.00417837
-0.00363454
-0.00297632
-0.00220647
-0.00132792
-0.000343779
0.000742687
0.00192803
0.00320862
0.00458065
0.0060401
0.00758276
0.00920425
0.0109
0.0126653
0.0144951
0.0163844
0.0183278
0.0203198
0.0223548
0.0244269
0.0265301
0.0286583
0.0308052
0.0329643
0.0351291
0.0372928
0.0394487
0.0415899
0.0437096
0.0458008
0.0478566
0.0498698
0.0518336
0.0537411
0.0555853
0.0573597
0.0590575
0.0606723
0.0621978
0.063628
0.0649569
0.0661791
0.0672893
0.0682825
0.0691542
0.0699
0.0705161
0.0709991
0.0713459
0.071554
0.0716212
0.0715459
0.0713267
0.070963
0.0704542
0.0698005
0.0690024
0.0680606
0.0669764
0.0657512
0.0643868
0.0628852
0.0612486
0.0594791
0.0575791
0.0555511
0.0533974
0.0511188
0.0487164
0.0462085
0.0436111
0.0406903
0.0372463
0.0289209
0.0251736
0.0220294
0.0192685
0.0166315
0.0141328
0.0117895
0.00959913
0.00755914
0.00566837
0.00392573
0.00233002
0.000880048
-0.000425382
-0.00158751
-0.00260762
-0.00348708
-0.00422732
-0.00482986
-0.00529632
-0.00562842
-0.00582798
-0.00589695
-0.0058374
-0.00565155
-0.00534174
-0.00491046
-0.0043603
-0.00369402
-0.00291453
-0.0020249
-0.00102837
7.16735e-05
0.00127169
0.00256797
0.00395665
0.00543367
0.00699479
0.0086356
0.0103515
0.0121377
0.0139892
0.0159011
0.0178678
0.019884
0.021944
0.0240419
0.0261717
0.0283273
0.0305024
0.0326906
0.0348851
0.0370794
0.0392666
0.0414399
0.0435922
0.0457166
0.0478059
0.0498533
0.0518514
0.0537934
0.0556722
0.057481
0.059213
0.0608616
0.0624203
0.0638828
0.065243
0.0664952
0.0676338
0.0686536
0.0695497
0.0703177
0.0709533
0.0714528
0.0718128
0.0720304
0.0721032
0.0720291
0.0718065
0.0714344
0.0709119
0.0702387
0.0694151
0.0684415
0.0673188
0.0660482
0.0646312
0.0630695
0.0613651
0.0595199
0.0575363
0.0554165
0.0531629
0.0507763
0.0482576
0.0456264
0.0428994
0.0398313
0.0362122
0.0294517
0.0255342
0.0222483
0.0193645
0.0166118
0.0140052
0.0115625
0.00928126
0.00715849
0.00519283
0.00338287
0.0017271
0.000223977
-0.00112808
-0.00233067
-0.00338547
-0.0042942
-0.00505867
-0.00568077
-0.00616246
-0.0065058
-0.00671293
-0.0067861
-0.00672766
-0.00654008
-0.00622595
-0.00578798
-0.00522897
-0.00455188
-0.00375977
-0.00285585
-0.00184347
-0.00072614
0.000492487
0.00180862
0.00321831
0.00471746
0.0063018
0.00796687
0.00970804
0.0115205
0.0133993
0.0153393
0.0173352
0.0193815
0.0214725
0.0236024
0.0257651
0.0279545
0.0301643
0.0323879
0.0346189
0.0368504
0.0390756
0.0412876
0.0434792
0.0456434
0.0477731
0.0498611
0.0519002
0.0538833
0.0558031
0.0576527
0.0594252
0.0611136
0.0627113
0.0642119
0.0656089
0.0668964
0.0680686
0.0691199
0.0700452
0.0708396
0.0714987
0.0720185
0.0723951
0.0726254
0.0727066
0.0726362
0.0724123
0.0720335
0.0714987
0.0708072
0.0699589
0.0689541
0.0677931
0.0664771
0.0650072
0.0633849
0.0616121
0.0596906
0.0576225
0.0554101
0.0530557
0.0505601
0.0479244
0.0451692
0.0423121
0.0390962
0.0353018
0.0298141
0.0257272
0.0223003
0.0192941
0.016426
0.0137118
0.01117
0.00879795
0.00659244
0.00455187
0.00267458
0.000958757
-0.000597473
-0.00199603
-0.00323888
-0.00432804
-0.00526559
-0.0060537
-0.00669458
-0.00719055
-0.00754398
-0.00775733
-0.00783314
-0.00777404
-0.00758273
-0.00726206
-0.00681493
-0.0062444
-0.00555357
-0.00474569
-0.0038241
-0.00279228
-0.00165386
-0.000412593
0.000927634
0.00236279
0.00388872
0.0055011
0.00719543
0.00896707
0.0108112
0.0127227
0.0146966
0.0167274
0.0188097
0.0209378
0.0231059
0.0253078
0.0275374
0.0297884
0.0320541
0.0343281
0.0366035
0.0388734
0.0411308
0.0433685
0.0455794
0.0477561
0.0498915
0.0519783
0.054009
0.0559765
0.0578734
0.0596926
0.0614271
0.06307
0.0646146
0.0660543
0.0673827
0.0685938
0.0696818
0.0706411
0.0714667
0.0721538
0.0726978
0.0730949
0.0733414
0.073434
0.0733702
0.0731475
0.0727642
0.0722189
0.0715107
0.0706389
0.0696036
0.0684051
0.0670439
0.0655212
0.0638383
0.0619967
0.0599983
0.0578451
0.0555393
0.0530833
0.050478
0.0477244
0.0448443
0.0418563
0.0384918
0.0345212
0.0300002
0.0257446
0.0221771
0.0190488
0.0160656
0.013244
0.0106033
0.00814054
0.00585243
0.0037371
0.00179265
1.69813e-05
-0.00159208
-0.00303677
-0.0043194
-0.00544233
-0.00640799
-0.00721885
-0.00787748
-0.00838651
-0.00874862
-0.00896658
-0.00904323
-0.00898144
-0.00878419
-0.00845454
-0.00799562
-0.00741066
-0.006703
-0.00587603
-0.00493326
-0.00387829
-0.00271486
-0.00144681
-7.81462e-05
0.00138702
0.00294445
0.00458976
0.00631843
0.00812575
0.0100069
0.0119568
0.0139702
0.0160418
0.0181661
0.0203374
0.0225498
0.0247973
0.0270735
0.0293722
0.0316867
0.0340103
0.0363363
0.0386576
0.0409673
0.0432579
0.0455223
0.047753
0.0499426
0.0520838
0.054169
0.0561907
0.0581416
0.0600142
0.0618013
0.0634957
0.0650905
0.0665788
0.067954
0.0692097
0.0703398
0.0713385
0.0722002
0.0729199
0.0734927
0.0739144
0.0741809
0.0742886
0.0742345
0.0740159
0.0736307
0.0730772
0.072354
0.0714604
0.0703959
0.0691607
0.0677551
0.0661799
0.0644364
0.062526
0.0604504
0.0582115
0.0558117
0.0532534
0.0505374
0.047665
0.0446589
0.041539
0.0380247
0.0338766
0.0300023
0.0255781
0.0218702
0.01862
0.0155219
0.012593
0.00985357
0.00730037
0.00492988
0.00274007
0.000728785
-0.00110633
-0.00276774
-0.00425798
-0.00557969
-0.00673554
-0.00772831
-0.0085608
-0.00923588
-0.00975649
-0.0101256
-0.0103464
-0.0104218
-0.0103551
-0.0101494
-0.00980814
-0.00933457
-0.00873215
-0.00800438
-0.00715484
-0.00618721
-0.00510522
-0.00391271
-0.00261365
-0.00121212
0.000287685
0.00188143
0.00356466
0.00533279
0.0071811
0.00910469
0.0110985
0.0131573
0.0152756
0.0174479
0.0196685
0.0219316
0.0242309
0.0265602
0.0289131
0.0312829
0.033663
0.0360463
0.038426
0.0407947
0.0431452
0.04547
0.0477616
0.0500125
0.052215
0.0543616
0.0564445
0.0584561
0.0603888
0.0622352
0.0639877
0.0656391
0.0671823
0.0686104
0.0699167
0.0710947
0.0721382
0.0730414
0.0737988
0.0744053
0.074856
0.0751467
0.0752734
0.0752327
0.0750215
0.0746374
0.0740782
0.0733424