/*--------------------------------*- C++ -*----------------------------------*\
| =========                 |                                                 |
| \\      /  F ield         | OpenFOAM: The Open Source CFD Toolbox           |
|  \\    /   O peration     | Version:  v1912                                 |
|   \\  /    A nd           | Website:  www.openfoam.com                      |
|    \\/     M anipulation  |                                                 |
\*---------------------------------------------------------------------------*/
FoamFile
{
    version     2.0;
    format      ascii;
    class       volScalarField;
    location    "1.54";
    object      p;
}
// * * * * * * * * * * * * * * * * * * * * * * * * * * * * * * * * * * * * * //

dimensions      [1 -1 -2 0 0 0 0];


internalField   nonuniform List<scalar> 
1900
(
10008.8
10074.1
10247.8
10461
10615.7
10698
10719.2
10738.5
10740.8
10747.3
10008.8
10074.1
10247.9
10461.1
10615.6
10697.7
10717.6
10732
10725.4
10720.4
10008.8
10074.1
10247.9
10460.9
10615.3
10697.8
10718.3
10733.3
10731.5
10726
10008.8
10074.1
10247.9
10461.1
10615.6
10697.7
10717.6
10732
10725.4
10720.4
10008.8
10074.1
10247.8
10461
10615.7
10698
10719.2
10738.5
10740.8
10747.3
10676.3
10725.5
10730.3
10664.5
10016.8
10732.8
10777.7
10771.5
10755
10457.2
10733.4
10764.6
10746.4
10698.9
10386.3
10732.8
10777.7
10771.5
10755
10457.2
10676.3
10725.5
10730.3
10664.5
10016.8
11612.9
11554.8
11735.9
11818.6
12068.8
11465.9
11528.3
11733.7
11909.1
11862.8
11460.1
11534.9
11725
11855.6
11527
11465.9
11528.3
11733.7
11909.1
11862.8
11612.9
11554.8
11735.9
11818.6
12068.8
10210.1
5500.18
5973.73
6133.53
6132.64
6317.52
6597.06
7016.91
7523.42
8090
8680.07
9242.01
9688.43
9929.46
9993.94
9999.87
10000
10000
10000
10000
10000
10000
10000
10000
9999.84
9992.91
9920.45
9657.22
9178.2
8578.62
7944.13
7318.06
6720.91
6164.95
5659.4
5213.08
4840.32
4555.15
4027.73
16026.6
10423.8
5834.94
6151.94
6168.45
6150.59
6318.39
6599.99
7018.58
7524.41
8090.71
8680.72
9242.63
9688.85
9929.62
9993.96
9999.87
10000
10000
10000
10000
10000
10000
10000
10000
9999.84
9992.91
9920.45
9657.22
9178.2
8578.62
7944.13
7318.06
6720.91
6164.95
5659.4
5213.08
4840.32
4555.15
4027.73
16026.6
9914.47
6314.09
6242.28
6190.7
6158.79
6318.84
6600.6
7019.15
7524.76
8090.93
8680.92
9242.84
9689.02
9929.69
9993.97
9999.87
10000
10000
10000
10000
10000
10000
10000
10000
9999.84
9992.91
9920.45
9657.22
9178.2
8578.62
7944.13
7318.06
6720.91
6164.95
5659.4
5213.08
4840.32
4555.15
4027.73
16026.6
10423.8
5834.94
6151.94
6168.45
6150.59
6318.39
6599.99
7018.58
7524.41
8090.71
8680.72
9242.63
9688.85
9929.62
9993.96
9999.87
10000
10000
10000
10000
10000
10000
10000
10000
9999.84
9992.91
9920.45
9657.22
9178.2
8578.62
7944.13
7318.06
6720.91
6164.95
5659.4
5213.08
4840.32
4555.15
4027.73
16026.6
10210.1
5500.18
5973.73
6133.53
6132.64
6317.52
6597.06
7016.91
7523.42
8090
8680.07
9242.01
9688.43
9929.46
9993.94
9999.87
10000
10000
10000
10000
10000
10000
10000
10000
9999.84
9992.91
9920.45
9657.22
9178.2
8578.62
7944.13
7318.06
6720.91
6164.95
5659.4
5213.08
4840.32
4555.15
4027.73
16026.6
12128.7
4938.07
5728.71
5982.28
6076.98
6286.35
6585.49
7010.32
7519.47
8087.01
8677.33
9239.31
9686.39
9928.65
9993.82
9999.87
10000
10000
10000
10000
10000
10000
10000
10000
9999.84
9992.91
9920.45
9657.22
9178.2
8578.62
7944.13
7318.06
6720.91
6164.95
5659.4
5213.08
4840.32
4555.15
4027.73
16026.6
13489.7
4454.38
5401.42
5716.32
5942.92
6197.49
6546.19
6989.16
7507.9
8078.05
8669
9232.07
9681.73
9926.98
9993.6
9999.86
10000
10000
10000
10000
10000
10000
10000
10000
9999.84
9992.91
9920.45
9657.22
9178.2
8578.62
7944.13
7318.06
6720.91
6164.95
5659.4
5213.08
4840.32
4555.15
4027.73
16026.6
14852
4356.41
5220.05
5544.28
5813.58
6114.22
6498.24
6959.65
7488.17
8062.45
8655.86
9222.02
9675.93
9925.09
9993.37
9999.85
10000
10000
10000
10000
10000
10000
10000
10000
9999.84
9992.91
9920.45
9657.22
9178.2
8578.62
7944.13
7318.06
6720.91
6164.95
5659.4
5213.08
4840.32
4555.15
4027.73
16026.6
15933.4
4300.36
5078.35
5405.34
5699.04
6037.19
6445.38
6923.3
7461.34
8041.35
8639.48
9210.77
9669.96
9923.25
9993.15
9999.84
9999.99
9999.99
9999.99
9999.99
9999.99
9999.99
9999.99
9999.99
9999.83
9992.9
9920.44
9657.21
9178.19
8578.62
7944.12
7318.06
6720.91
6164.95
5659.39
5213.08
4840.32
4555.15
4027.73
16026.6
16750.5
4271.59
4977.1
5292.49
5598.04
5957.51
6384.93
6878.3
7426.3
8013.52
8618.64
9197.53
9663.56
9920.82
9991.99
9998.84
9999
9999
9999
9999
9999
9999
9999
9999
9998.84
9991.91
9919.45
9656.27
9177.32
8577.86
7943.49
7317.55
6720.52
6164.67
5659.2
5212.95
4840.23
4555.08
4027.71
16026.6
16990.4
4239.33
4885.74
5170.91
5482.06
5858.44
6304.22
6814.61
7376.64
7974.92
8586.84
9169.5
9638.67
9898.15
9969.93
9976.83
9976.99
9976.99
9976.99
9976.99
9976.99
9976.99
9976.99
9976.99
9976.83
9969.92
9897.67
9635.25
9157.79
8560.33
7928.26
7304.71
6710.01
6156.3
5652.7
5207.98
4836.51
4552.24
4026.5
16025.5
16890.8
4182.63
4760.99
5011.29
5336.78
5737.13
6197.55
6707.9
7263.91
7855.43
8461.97
9039.97
9504.73
9761.39
9832.29
9839.09
9839.24
9839.24
9839.24
9839.24
9839.24
9839.24
9839.24
9839.24
9839.09
9832.31
9761.31
9503.3
9033.94
8447.08
7826.87
7215.62
6633.07
6090.9
5597.92
5162.5
4799.15
4520.45
4010.48
15995.6
16510.3
4100.72
4573.37
4817.57
5134.14
5515.73
5958.67
6455.3
6995.73
7569.06
8156.34
8715.58
9164.37
9411.35
9479.22
9485.68
9485.83
9485.83
9485.83
9485.83
9485.83
9485.83
9485.83
9485.83
9485.68
9479.24
9411.47
9164.25
8713.82
8150.69
7556.16
6970.98
6414.01
5896.28
5426.24
5011.52
4666.4
4400.17
3936.08
15770.9
15613.4
3888.57
4273.34
4504.05
4807.54
5177.99
5605.02
6082.05
6599.72
7146.49
7704.19
8233.75
8657.1
8888.41
8951.27
8957.16
8957.29
8957.29
8957.29
8957.29
8957.29
8957.29
8957.29
8957.29
8957.16
8951.28
8888.52
8657.38
8233.96
7703.43
7143.11
6591.85
6067.58
5580.77
5139.5
4750.68
4427.4
4176.91
3768.67
15093.4
14219.8
3577.59
3927.02
4154.25
4449.13
4806.03
5213.21
5664.48
6152.52
6666.91
7190.05
7684.83
8077.97
8290.37
8347.06
8352.24
8352.35
8352.35
8352.35
8352.35
8352.35
8352.35
8352.35
8352.35
8352.24
8347.06
8290.42
8078.19
7685.34
7190.67
6667.24
6151.99
5661.99
5207.25
4795.19
4432.34
4130.08
3896.42
3524.07
13968.5
12720.5
3256.28
3608.2
3821.82
4100.64
4437.51
4820.42
5243.63
5699.85
6179.9
6667.09
7126.01
7487.63
7679.92
7729.92
7734.32
7734.41
7734.41
7734.41
7734.41
7734.41
7734.41
7734.41
7734.41
7734.32
7729.92
7679.93
7487.73
7126.35
6667.8
6181.06
5701.35
5245.06
4821.44
4437.67
4099.24
3817.14
3600.44
3240.37
12633.3
11255.4
2950.14
3308.19
3508.37
3770.06
4084.79
4443.27
4837.28
5262.16
5708.2
6160.08
6583.84
6914.27
7086.31
7129.52
7133.15
7133.22
7133.22
7133.22
7133.22
7133.22
7133.22
7133.22
7133.22
7133.15
7129.52
7086.3
6914.3
6583.99
6160.49
5709.03
5263.47
4839.13
4445.74
4087.68
3773.02
3510.49
3309.49
2949.09
11234.4
9949.88
2673.4
3024.22
3219.2
3460.29
3754.91
4087.16
4454.6
4848.71
5262.73
5681.07
6071.36
6371.74
6524.02
6560.65
6563.55
6563.6
6563.6
6563.6
6563.6
6563.6
6563.6
6563.6
6563.6
6563.55
6560.65
6524.02
6371.74
6071.4
5681.22
5263.09
4849.37
4455.7
4088.75
3756.95
3462.66
3221.72
3026.68
2675.28
9948.63
8650.91
2431.45
2760.06
2954.19
3177.74
3447.71
3759.82
4099.19
4466.6
4850.53
5237.95
5596.97
5868.95
6002.47
6032.96
6035.2
6035.24
6035.24
6035.24
6035.24
6035.24
6035.24
6035.24
6035.24
6035.2
6032.96
6002.47
5868.94
5596.97
5237.98
4850.62
4466.83
4099.61
3760.46
3448.6
3178.86
2955.58
2761.54
2432.64
8652.3
7579.28
2213.27
2517.66
2713.37
2920.63
3172.92
3459.34
3778.34
4119.7
4477.81
4837.27
5167.72
5413.24
5529.3
5554.25
5555.93
5555.96
5555.96
5555.96
5555.96
5555.96
5555.96
5555.96
5555.96
5555.93
5554.25
5529.3
5413.24
5167.72
4837.26
4477.81
4119.73
3778.42
3459.48
3173.14
2920.98
2713.84
2518.19
2213.69
7579.98
6550.92
2034.05
2308.33
2501.3
2697.73
2930.3
3199.34
3494.28
3814.82
4149.58
4484.85
4789.92
5011.66
5112.36
5132.65
5133.9
5133.92
5133.92
5133.92
5133.92
5133.92
5133.92
5133.92
5133.92
5133.9
5132.65
5112.36
5011.66
4789.92
4484.84
4149.56
3814.8
3494.25
3199.32
2930.31
2697.76
2501.37
2308.4
2034.12
6551.09
5822.37
1884.41
2133.19
2319.4
2510.71
2732.48
2986.62
3264.43
3563.47
3878.54
4194.02
4478.51
4680.3
4768.37
4784.84
4785.76
4785.77
4785.77
4785.77
4785.77
4785.77
4785.77
4785.77
4785.77
4785.76
4784.84
4768.37
4680.3
4478.51
4194.02
3878.53
3563.45
3264.4
2986.59
2732.46
2510.68
2319.38
2133.17
1884.41
5822.41
5131.66
1746.7
1962.37
2138.67
2324.44
2544.04
2800.31
3078.58
3374.15
3674.41
3973.65
4242.58
4429.46
4504.39
4517.21
4517.85
4517.86
4517.86
4517.86
4517.86
4517.86
4517.86
4517.86
4517.86
4517.85
4517.21
4504.39
4429.46
4242.58
3973.65
3674.4
3374.14
3078.57
2800.29
2544.02
2324.42
2138.65
1962.36
1746.69
5131.66
4599.48
1545.6
1751.75
1893.36
2052.69
2241.02
2470.37
2723.73
3005.49
3302.16
3579.9
3800.67
3931.24
3979.6
3986.97
3987.29
3987.29
3987.29
3987.29
3987.29
3987.29
3987.29
3987.29
3987.29
3987.29
3986.97
3979.6
3931.24
3800.67
3579.9
3302.16
3005.49
2723.73
2470.36
2241.01
2052.68
1893.35
1751.74
1545.6
4599.47
24191.6
4688.1
5246.35
5988.22
6781.03
7895.06
9042.98
10433.1
11812.9
13275.2
14620.3
15639.5
16138.9
16254.8
16264.1
16264.3
16264.3
16264.3
16264.3
16264.3
16264.3
16264.3
16264.3
16264.3
16264.3
16264.1
16254.8
16138.9
15639.5
14620.3
13275.2
11812.9
10433.1
9042.99
7895.06
6781.04
5988.22
5246.35
4688.1
24191.6
24191.6
4688.1
5246.35
5988.22
6781.03
7895.06
9042.98
10433.1
11812.9
13275.2
14620.3
15639.5
16138.9
16254.8
16264.1
16264.3
16264.3
16264.3
16264.3
16264.3
16264.3
16264.3
16264.3
16264.3
16264.3
16264.1
16254.8
16138.9
15639.5
14620.3
13275.2
11812.9
10433.1
9042.99
7895.06
6781.04
5988.22
5246.35
4688.1
24191.6
4599.48
1545.6
1751.75
1893.36
2052.69
2241.02
2470.37
2723.73
3005.49
3302.16
3579.9
3800.67
3931.24
3979.6
3986.97
3987.29
3987.29
3987.29
3987.29
3987.29
3987.29
3987.29
3987.29
3987.29
3987.29
3986.97
3979.6
3931.24
3800.67
3579.9
3302.16
3005.49
2723.73
2470.36
2241.01
2052.68
1893.35
1751.74
1545.6
4599.47
5131.66
1746.7
1962.37
2138.67
2324.44
2544.04
2800.31
3078.58
3374.15
3674.41
3973.65
4242.58
4429.46
4504.39
4517.21
4517.85
4517.86
4517.86
4517.86
4517.86
4517.86
4517.86
4517.86
4517.86
4517.85
4517.21
4504.39
4429.46
4242.58
3973.65
3674.4
3374.14
3078.57
2800.29
2544.02
2324.42
2138.65
1962.36
1746.69
5131.66
5822.37
1884.41
2133.19
2319.4
2510.71
2732.48
2986.62
3264.43
3563.47
3878.54
4194.02
4478.51
4680.3
4768.37
4784.84
4785.76
4785.77
4785.77
4785.77
4785.77
4785.77
4785.77
4785.77
4785.77
4785.76
4784.84
4768.37
4680.3
4478.51
4194.02
3878.53
3563.45
3264.4
2986.59
2732.46
2510.68
2319.38
2133.17
1884.41
5822.41
6550.92
2034.05
2308.33
2501.3
2697.73
2930.3
3199.34
3494.28
3814.82
4149.58
4484.85
4789.92
5011.66
5112.36
5132.65
5133.9
5133.92
5133.92
5133.92
5133.92
5133.92
5133.92
5133.92
5133.92
5133.9
5132.65
5112.36
5011.66
4789.92
4484.84
4149.56
3814.8
3494.25
3199.32
2930.31
2697.76
2501.37
2308.4
2034.12
6551.09
7579.28
2213.27
2517.66
2713.37
2920.63
3172.92
3459.34
3778.34
4119.7
4477.81
4837.27
5167.72
5413.24
5529.3
5554.25
5555.93
5555.96
5555.96
5555.96
5555.96
5555.96
5555.96
5555.96
5555.96
5555.93
5554.25
5529.3
5413.24
5167.72
4837.26
4477.81
4119.73
3778.42
3459.48
3173.14
2920.98
2713.84
2518.19
2213.69
7579.98
8650.91
2431.45
2760.06
2954.19
3177.74
3447.71
3759.82
4099.19
4466.6
4850.53
5237.95
5596.97
5868.95
6002.47
6032.96
6035.2
6035.24
6035.24
6035.24
6035.24
6035.24
6035.24
6035.24
6035.24
6035.2
6032.96
6002.47
5868.94
5596.97
5237.98
4850.62
4466.83
4099.61
3760.46
3448.6
3178.86
2955.58
2761.54
2432.64
8652.3
9949.88
2673.4
3024.22
3219.2
3460.29
3754.91
4087.16
4454.6
4848.71
5262.73
5681.07
6071.36
6371.74
6524.02
6560.65
6563.55
6563.6
6563.6
6563.6
6563.6
6563.6
6563.6
6563.6
6563.6
6563.55
6560.65
6524.02
6371.74
6071.4
5681.22
5263.09
4849.37
4455.7
4088.75
3756.95
3462.66
3221.72
3026.68
2675.28
9948.63
11255.4
2950.14
3308.19
3508.37
3770.06
4084.79
4443.27
4837.28
5262.16
5708.2
6160.08
6583.84
6914.27
7086.31
7129.52
7133.15
7133.22
7133.22
7133.22
7133.22
7133.22
7133.22
7133.22
7133.22
7133.15
7129.52
7086.3
6914.3
6583.99
6160.49
5709.03
5263.47
4839.13
4445.74
4087.68
3773.02
3510.49
3309.49
2949.09
11234.4
12720.5
3256.28
3608.2
3821.82
4100.64
4437.51
4820.42
5243.63
5699.85
6179.9
6667.09
7126.01
7487.63
7679.92
7729.92
7734.32
7734.41
7734.41
7734.41
7734.41
7734.41
7734.41
7734.41
7734.41
7734.32
7729.92
7679.93
7487.73
7126.35
6667.8
6181.06
5701.35
5245.06
4821.44
4437.67
4099.24
3817.14
3600.44
3240.37
12633.3
14219.8
3577.59
3927.02
4154.25
4449.13
4806.03
5213.21
5664.48
6152.52
6666.91
7190.05
7684.83
8077.97
8290.37
8347.06
8352.24
8352.35
8352.35
8352.35
8352.35
8352.35
8352.35
8352.35
8352.35
8352.24
8347.06
8290.42
8078.19
7685.34
7190.67
6667.24
6151.99
5661.99
5207.25
4795.19
4432.34
4130.08
3896.42
3524.07
13968.5
15613.4
3888.57
4273.34
4504.05
4807.54
5177.99
5605.02
6082.05
6599.72
7146.49
7704.19
8233.75
8657.1
8888.41
8951.27
8957.16
8957.29
8957.29
8957.29
8957.29
8957.29
8957.29
8957.29
8957.29
8957.16
8951.28
8888.52
8657.38
8233.96
7703.43
7143.11
6591.85
6067.58
5580.77
5139.5
4750.68
4427.4
4176.91
3768.67
15093.4
16510.3
4100.72
4573.37
4817.57
5134.14
5515.73
5958.67
6455.3
6995.73
7569.06
8156.34
8715.58
9164.37
9411.35
9479.22
9485.68
9485.83
9485.83
9485.83
9485.83
9485.83
9485.83
9485.83
9485.83
9485.68
9479.24
9411.47
9164.25
8713.82
8150.69
7556.16
6970.98
6414.01
5896.28
5426.24
5011.52
4666.4
4400.17
3936.08
15770.9
16890.8
4182.63
4760.99
5011.29
5336.78
5737.13
6197.55
6707.9
7263.91
7855.43
8461.97
9039.97
9504.73
9761.39
9832.29
9839.09
9839.24
9839.24
9839.24
9839.24
9839.24
9839.24
9839.24
9839.24
9839.09
9832.31
9761.31
9503.3
9033.94
8447.08
7826.87
7215.62
6633.07
6090.9
5597.92
5162.5
4799.15
4520.45
4010.48
15995.6
16990.4
4239.33
4885.74
5170.91
5482.06
5858.44
6304.22
6814.61
7376.64
7974.92
8586.84
9169.5
9638.67
9898.15
9969.93
9976.83
9976.99
9976.99
9976.99
9976.99
9976.99
9976.99
9976.99
9976.99
9976.83
9969.92
9897.67
9635.25
9157.79
8560.33
7928.26
7304.71
6710.01
6156.3
5652.7
5207.98
4836.51
4552.24
4026.5
16025.5
16750.5
4271.59
4977.1
5292.49
5598.04
5957.51
6384.93
6878.3
7426.3
8013.52
8618.64
9197.53
9663.56
9920.82
9991.99
9998.84
9999
9999
9999
9999
9999
9999
9999
9999
9998.84
9991.91
9919.45
9656.27
9177.32
8577.86
7943.49
7317.55
6720.52
6164.67
5659.2
5212.95
4840.23
4555.08
4027.71
16026.6
15933.4
4300.36
5078.35
5405.34
5699.04
6037.19
6445.38
6923.3
7461.34
8041.35
8639.48
9210.77
9669.96
9923.25
9993.15
9999.84
9999.99
9999.99
9999.99
9999.99
9999.99
9999.99
9999.99
9999.99
9999.83
9992.9
9920.44
9657.21
9178.19
8578.62
7944.12
7318.06
6720.91
6164.95
5659.39
5213.08
4840.32
4555.15
4027.73
16026.6
14852
4356.41
5220.05
5544.28
5813.58
6114.22
6498.24
6959.65
7488.17
8062.45
8655.86
9222.02
9675.93
9925.09
9993.37
9999.85
10000
10000
10000
10000
10000
10000
10000
10000
9999.84
9992.91
9920.45
9657.22
9178.2
8578.62
7944.13
7318.06
6720.91
6164.95
5659.4
5213.08
4840.32
4555.15
4027.73
16026.6
13489.7
4454.38
5401.42
5716.32
5942.92
6197.49
6546.19
6989.16
7507.9
8078.05
8669
9232.07
9681.73
9926.98
9993.6
9999.86
10000
10000
10000
10000
10000
10000
10000
10000
9999.84
9992.91
9920.45
9657.22
9178.2
8578.62
7944.13
7318.06
6720.91
6164.95
5659.4
5213.08
4840.32
4555.15
4027.73
16026.6
12128.7
4938.07
5728.71
5982.28
6076.98
6286.35
6585.49
7010.32
7519.47
8087.01
8677.33
9239.31
9686.39
9928.65
9993.82
9999.87
10000
10000
10000
10000
10000
10000
10000
10000
9999.84
9992.91
9920.45
9657.22
9178.2
8578.62
7944.13
7318.06
6720.91
6164.95
5659.4
5213.08
4840.32
4555.15
4027.73
16026.6
)
;

boundaryField
{
    inlet
    {
        type            fixedValue;
        value           uniform 10000;
    }
    outlet
    {
        type            fixedValue;
        value           uniform 1000;
    }
    obstacle
    {
        type            zeroGradient;
    }
    empty
    {
        type            empty;
    }
}


// ************************************************************************* //
