/*--------------------------------*- C++ -*----------------------------------*\
| =========                 |                                                 |
| \\      /  F ield         | OpenFOAM: The Open Source CFD Toolbox           |
|  \\    /   O peration     | Version:  v1912                                 |
|   \\  /    A nd           | Website:  www.openfoam.com                      |
|    \\/     M anipulation  |                                                 |
\*---------------------------------------------------------------------------*/
FoamFile
{
    version     2.0;
    format      ascii;
    class       volScalarField;
    location    "1.94";
    object      Ma;
}
// * * * * * * * * * * * * * * * * * * * * * * * * * * * * * * * * * * * * * //

dimensions      [0 0 0 0 0 0 0];


internalField   nonuniform List<scalar> 
1900
(
0.0990174
0.0454952
0.0494941
0.0495061
0.0500241
0.0506499
0.0519022
0.0541548
0.0565707
0.0526453
0.0990194
0.0455005
0.0495179
0.0495252
0.0500313
0.050547
0.051406
0.05332
0.0566354
0.0606962
0.0990205
0.0455045
0.0495308
0.0495311
0.0500169
0.0504539
0.0512236
0.0532162
0.0568986
0.0640857
0.0990194
0.0455005
0.0495179
0.0495252
0.0500313
0.050547
0.051406
0.05332
0.0566354
0.0606962
0.0990174
0.0454952
0.0494941
0.0495061
0.0500241
0.0506499
0.0519022
0.0541548
0.0565707
0.0526453
0.0608974
0.0817386
0.105537
0.142081
0.237361
0.0742347
0.0942345
0.123294
0.176283
0.271947
0.0775737
0.0961708
0.126788
0.183341
0.277926
0.0742347
0.0942345
0.123294
0.176283
0.271947
0.0608974
0.0817386
0.105537
0.142081
0.237361
0.273502
0.234682
0.217522
0.218969
0.318324
0.285287
0.24284
0.211255
0.179606
0.176044
0.291974
0.245597
0.205723
0.150442
0.0461151
0.285287
0.24284
0.211255
0.179606
0.176044
0.273502
0.234682
0.217522
0.218969
0.318324
0.574529
0.194376
0.263169
0.317431
0.357502
0.371808
0.363253
0.337778
0.304305
0.263119
0.218347
0.172346
0.127086
0.084411
0.0469548
0.0189696
0.00432302
0.000383895
8.6999e-06
5.53849e-07
5.53841e-07
1.07948e-05
0.00044635
0.00481293
0.0205756
0.0502289
0.0897887
0.135159
0.184115
0.235561
0.288832
0.343369
0.398523
0.453284
0.505964
0.554162
0.597393
0.637969
0.769184
1.5875
0.121446
0.213757
0.132113
0.274391
0.351466
0.369665
0.363303
0.337753
0.30413
0.262929
0.218219
0.172263
0.12703
0.0843704
0.0469269
0.0189559
0.00431964
0.0003843
8.7476e-06
2.23949e-07
2.25377e-07
1.0783e-05
0.00044635
0.00481293
0.0205756
0.0502289
0.0897887
0.135159
0.184115
0.235561
0.288832
0.343369
0.398523
0.453284
0.505964
0.554162
0.597393
0.637969
0.769184
1.5875
0.194612
0.285693
0.0214013
0.252429
0.349765
0.369105
0.363388
0.337688
0.304053
0.262867
0.21818
0.172239
0.127014
0.0843592
0.0469187
0.0189511
0.00431827
0.000384268
8.76687e-06
2.96052e-08
4.10245e-08
1.07807e-05
0.00044635
0.00481293
0.0205756
0.0502289
0.0897887
0.135159
0.184115
0.235561
0.288832
0.343369
0.398523
0.453284
0.505964
0.554162
0.597393
0.637969
0.769184
1.5875
0.121446
0.213757
0.132113
0.274391
0.351466
0.369665
0.363303
0.337753
0.30413
0.262929
0.218219
0.172263
0.12703
0.0843704
0.0469269
0.0189559
0.00431964
0.0003843
8.74762e-06
2.23949e-07
2.25367e-07
1.07829e-05
0.00044635
0.00481293
0.0205756
0.0502289
0.0897887
0.135159
0.184115
0.235561
0.288832
0.343369
0.398523
0.453284
0.505964
0.554162
0.597393
0.637969
0.769184
1.5875
0.574529
0.194376
0.263169
0.317431
0.357502
0.371808
0.363253
0.337778
0.304305
0.263119
0.218347
0.172346
0.127086
0.084411
0.0469548
0.0189696
0.00432302
0.000383895
8.69993e-06
5.53851e-07
5.53828e-07
1.07948e-05
0.00044635
0.00481293
0.0205756
0.0502289
0.0897887
0.135159
0.184115
0.235561
0.288832
0.343369
0.398523
0.453284
0.505964
0.554162
0.597393
0.637969
0.769184
1.5875
1.37922
0.530104
0.434181
0.3827
0.377875
0.379454
0.365653
0.339275
0.305195
0.26375
0.21875
0.1726
0.127251
0.0845275
0.0470493
0.0190413
0.00435474
0.00039068
9.20537e-06
1.43998e-06
1.43918e-06
1.08764e-05
0.000446352
0.00481293
0.0205756
0.0502289
0.0897887
0.135159
0.184115
0.235561
0.288832
0.343369
0.398523
0.453284
0.505964
0.554162
0.597393
0.637969
0.769184
1.5875
1.62289
0.721236
0.55787
0.453261
0.416381
0.395216
0.375245
0.344784
0.308104
0.265448
0.2198
0.17331
0.127776
0.0849505
0.0473861
0.0192608
0.00444267
0.000415682
9.89249e-05
9.83348e-05
9.83343e-05
9.89231e-05
0.00045704
0.00481386
0.0205756
0.0502286
0.0897882
0.135159
0.184115
0.23556
0.288832
0.343368
0.398523
0.453283
0.505964
0.554162
0.597394
0.637968
0.769184
1.5875
1.63151
0.754819
0.592005
0.49221
0.447766
0.416442
0.387587
0.352789
0.312514
0.268169
0.221556
0.174574
0.12876
0.0857318
0.0479783
0.0196831
0.0049325
0.00189106
0.00183748
0.00183728
0.00183728
0.0018373
0.00189049
0.00514937
0.0206518
0.0502536
0.0897963
0.13516
0.184113
0.235558
0.28883
0.343368
0.398524
0.453286
0.505969
0.55417
0.597401
0.637956
0.769175
1.5875
1.62633
0.764437
0.607437
0.522017
0.474064
0.437768
0.401643
0.362209
0.318514
0.272022
0.224216
0.176577
0.13044
0.0873434
0.0498752
0.0229449
0.0122607
0.011315
0.0113026
0.0113025
0.0113025
0.0113024
0.0113105
0.0122716
0.0234254
0.0514061
0.0904018
0.135528
0.184361
0.235739
0.288974
0.343492
0.398638
0.453398
0.506089
0.554316
0.597533
0.637859
0.769094
1.5876
1.61319
0.765618
0.61464
0.543678
0.496049
0.456317
0.415017
0.371717
0.325427
0.277328
0.228758
0.181036
0.135437
0.0937855
0.059725
0.0396583
0.0344862
0.0341523
0.0341481
0.034148
0.034148
0.034148
0.0341493
0.0344621
0.0397341
0.0604492
0.0956807
0.138979
0.186816
0.237599
0.290455
0.344722
0.399701
0.454357
0.507018
0.555272
0.598415
0.63779
0.768969
1.58863
1.60245
0.764611
0.619784
0.560146
0.51544
0.473422
0.429539
0.383569
0.335543
0.286693
0.238334
0.191785
0.148616
0.111367
0.0843729
0.0715034
0.0687845
0.0686283
0.0686276
0.0686277
0.0686277
0.0686276
0.0686267
0.068765
0.0714579
0.0845351
0.112213
0.150619
0.195456
0.244323
0.295898
0.349279
0.403632
0.457866
0.510323
0.558456
0.601416
0.638854
0.769671
1.59253
1.61063
0.769494
0.62887
0.578294
0.536934
0.49295
0.447286
0.399463
0.350598
0.302009
0.255032
0.21112
0.172161
0.140891
0.120585
0.112009
0.11035
0.110269
0.11027
0.11027
0.11027
0.11027
0.110268
0.110339
0.111958
0.12053
0.141072
0.172954
0.212951
0.258396
0.307541
0.359164
0.412237
0.465565
0.51754
0.56521
0.607875
0.643057
0.773058
1.60033
1.61539
0.778582
0.643604
0.59888
0.559945
0.514923
0.468253
0.419572
0.370907
0.32359
0.279023
0.238725
0.204589
0.178884
0.163403
0.157292
0.156179
0.156136
0.156139
0.156139
0.156139
0.156139
0.156137
0.156177
0.157263
0.163318
0.178799
0.204687
0.239282
0.280394
0.326202
0.375287
0.426423
0.478343
0.52949
0.576265
0.618309
0.65226
0.781018
1.61072
1.62561
0.79387
0.662335
0.621135
0.584281
0.5391
0.4921
0.443691
0.396169
0.350982
0.309448
0.273096
0.243543
0.222348
0.210203
0.205613
0.204816
0.204792
0.204794
0.204794
0.204794
0.204794
0.204792
0.204817
0.205605
0.210152
0.22223
0.24339
0.273024
0.309647
0.351699
0.397703
0.446483
0.496461
0.546417
0.592051
0.63297
0.66715
0.79447
1.62269
1.63549
0.813031
0.6849
0.646176
0.610315
0.565405
0.519097
0.471471
0.426076
0.383428
0.345263
0.31275
0.287198
0.269507
0.259701
0.256101
0.255495
0.255479
0.255481
0.255481
0.255481
0.255481
0.255479
0.255497
0.256105
0.259687
0.269438
0.287046
0.312524
0.345016
0.383258
0.426137
0.472009
0.52015
0.568176
0.612578
0.652733
0.687753
0.812745
1.63269
1.64759
0.836536
0.712583
0.675001
0.63748
0.594784
0.54856
0.503643
0.4599
0.420467
0.385486
0.35651
0.334268
0.319255
0.311114
0.308178
0.307688
0.307674
0.307675
0.307675
0.307675
0.307675
0.307674
0.30769
0.308185
0.31112
0.319236
0.334189
0.356338
0.385203
0.420092
0.459459
0.503307
0.548134
0.595282
0.63711
0.677895
0.713719
0.83591
1.64595
1.65402
0.863338
0.745453
0.706784
0.667641
0.625714
0.583104
0.538055
0.498367
0.46094
0.429311
0.403262
0.383718
0.37073
0.363788
0.361308
0.360887
0.360871
0.360872
0.360872
0.360872
0.360872
0.360871
0.360888
0.361313
0.363799
0.370739
0.383704
0.403192
0.429153
0.460664
0.497976
0.53752
0.582463
0.625219
0.66662
0.707494
0.744964
0.862314
1.65173
1.66759
0.894824
0.780555
0.742322
0.698852
0.66268
0.616896
0.578764
0.538404
0.505037
0.475474
0.452047
0.434539
0.423063
0.416978
0.414811
0.414432
0.414414
0.414414
0.414414
0.414414
0.414414
0.414414
0.414433
0.414814
0.416988
0.42308
0.434557
0.45205
0.475438
0.504934
0.5382
0.578458
0.616414
0.662205
0.697991
0.742182
0.779856
0.89399
1.66659
1.66869
0.924546
0.816269
0.776682
0.734082
0.695477
0.658405
0.61651
0.58268
0.549706
0.52305
0.501365
0.485467
0.47505
0.469547
0.46758
0.467223
0.467202
0.467202
0.467202
0.467202
0.467202
0.467202
0.467223
0.467581
0.469552
0.475064
0.485491
0.501397
0.523081
0.549716
0.582661
0.616402
0.658271
0.695167
0.733724
0.77646
0.815792
0.924072
1.66802
1.68229
0.963469
0.857273
0.818474
0.770655
0.738024
0.695114
0.660977
0.625126
0.595644
0.570097
0.549933
0.534898
0.525062
0.519853
0.517964
0.517602
0.517575
0.517575
0.517575
0.517575
0.517575
0.517575
0.517602
0.517964
0.519855
0.525069
0.534914
0.549964
0.570142
0.5957
0.625191
0.661021
0.695159
0.737992
0.770635
0.818459
0.857215
0.963378
1.68215
1.67558
0.988882
0.889788
0.850915
0.803059
0.769395
0.731698
0.696102
0.664665
0.636027
0.612461
0.59356
0.57986
0.570866
0.565992
0.564143
0.563745
0.563708
0.563707
0.563707
0.563707
0.563707
0.563708
0.563745
0.564143
0.565992
0.570868
0.579868
0.593578
0.612495
0.636081
0.664739
0.696189
0.731808
0.769497
0.803194
0.851047
0.889971
0.989043
1.67567
1.67605
1.03223
0.936529
0.899843
0.850708
0.816186
0.774387
0.738856
0.704649
0.675719
0.652106
0.634254
0.621281
0.612677
0.608045
0.606299
0.605931
0.605896
0.605895
0.605895
0.605895
0.605895
0.605896
0.605931
0.606299
0.608044
0.612676
0.621283
0.63426
0.652121
0.675747
0.704693
0.738914
0.774465
0.816266
0.850806
0.899934
0.936653
1.03234
1.67618
1.64051
1.05042
0.966176
0.934992
0.888359
0.853716
0.813091
0.77601
0.741979
0.711587
0.687076
0.668134
0.655249
0.648187
0.645603
0.645291
0.645436
0.645477
0.645479
0.645479
0.645479
0.645479
0.645477
0.645436
0.645291
0.645602
0.648186
0.655249
0.668136
0.687083
0.711602
0.742003
0.776049
0.81314
0.853783
0.888432
0.935081
0.96629
1.05053
1.64061
1.69237
1.13266
1.04878
1.02961
0.98628
0.959126
0.920614
0.889579
0.858819
0.832978
0.811
0.794106
0.782562
0.776411
0.774265
0.774055
0.774179
0.774209
0.77421
0.77421
0.77421
0.77421
0.774209
0.774179
0.774055
0.774265
0.77641
0.782561
0.794106
0.811002
0.832984
0.858832
0.889606
0.920655
0.959188
0.986359
1.02971
1.04889
1.13277
1.6924
2.28951
1.69565
1.64309
1.67836
1.67798
1.68459
1.67044
1.6688
1.654
1.64746
1.63432
1.62363
1.61202
1.60258
1.59661
1.59436
1.59398
1.59396
1.59396
1.59396
1.59396
1.59396
1.59396
1.59398
1.59436
1.59661
1.60258
1.61202
1.62363
1.63432
1.64746
1.654
1.6688
1.67044
1.68459
1.67798
1.67836
1.64309
1.69565
2.28951
2.28951
1.69565
1.64309
1.67836
1.67798
1.68459
1.67044
1.6688
1.654
1.64746
1.63432
1.62363
1.61202
1.60258
1.59661
1.59436
1.59398
1.59396
1.59396
1.59396
1.59396
1.59396
1.59396
1.59398
1.59436
1.59661
1.60258
1.61202
1.62363
1.63432
1.64746
1.654
1.6688
1.67044
1.68459
1.67798
1.67836
1.64309
1.69565
2.28951
1.69237
1.13266
1.04878
1.02961
0.98628
0.959126
0.920614
0.889579
0.858819
0.832978
0.811
0.794106
0.782562
0.776411
0.774265
0.774055
0.774179
0.774209
0.77421
0.77421
0.77421
0.77421
0.774209
0.774179
0.774055
0.774265
0.77641
0.782561
0.794106
0.811002
0.832984
0.858832
0.889606
0.920655
0.959188
0.986359
1.02971
1.04889
1.13277
1.6924
1.64051
1.05042
0.966176
0.934992
0.888359
0.853716
0.813091
0.77601
0.741979
0.711587
0.687076
0.668134
0.655249
0.648187
0.645603
0.645291
0.645436
0.645477
0.645479
0.645479
0.645479
0.645479
0.645477
0.645436
0.645291
0.645602
0.648186
0.655249
0.668136
0.687083
0.711602
0.742003
0.776049
0.81314
0.853783
0.888432
0.935081
0.96629
1.05053
1.64061
1.67605
1.03223
0.936529
0.899843
0.850708
0.816186
0.774387
0.738856
0.704649
0.675719
0.652106
0.634254
0.621281
0.612677
0.608045
0.606299
0.605931
0.605896
0.605895
0.605895
0.605895
0.605895
0.605896
0.605931
0.606299
0.608044
0.612676
0.621283
0.63426
0.652121
0.675747
0.704693
0.738914
0.774465
0.816266
0.850806
0.899934
0.936653
1.03234
1.67618
1.67558
0.988882
0.889788
0.850915
0.803059
0.769395
0.731698
0.696102
0.664665
0.636027
0.612461
0.59356
0.57986
0.570866
0.565992
0.564143
0.563745
0.563708
0.563707
0.563707
0.563707
0.563707
0.563708
0.563745
0.564143
0.565992
0.570868
0.579868
0.593578
0.612495
0.636081
0.664739
0.696189
0.731808
0.769497
0.803194
0.851047
0.889971
0.989043
1.67567
1.68229
0.963469
0.857273
0.818474
0.770655
0.738024
0.695114
0.660977
0.625126
0.595644
0.570097
0.549933
0.534898
0.525062
0.519853
0.517964
0.517602
0.517575
0.517575
0.517575
0.517575
0.517575
0.517575
0.517602
0.517964
0.519855
0.525069
0.534914
0.549964
0.570142
0.5957
0.625191
0.661021
0.695159
0.737992
0.770635
0.818459
0.857215
0.963378
1.68215
1.66869
0.924546
0.816269
0.776682
0.734082
0.695477
0.658405
0.61651
0.58268
0.549706
0.52305
0.501365
0.485467
0.47505
0.469547
0.46758
0.467223
0.467202
0.467202
0.467202
0.467202
0.467202
0.467202
0.467223
0.467581
0.469552
0.475064
0.485491
0.501397
0.523081
0.549716
0.582661
0.616402
0.658271
0.695167
0.733724
0.77646
0.815792
0.924072
1.66802
1.66759
0.894824
0.780555
0.742322
0.698852
0.66268
0.616896
0.578764
0.538404
0.505037
0.475474
0.452047
0.434539
0.423063
0.416978
0.414811
0.414432
0.414414
0.414414
0.414414
0.414414
0.414414
0.414414
0.414433
0.414814
0.416988
0.42308
0.434557
0.45205
0.475438
0.504934
0.5382
0.578458
0.616414
0.662205
0.697991
0.742182
0.779856
0.89399
1.66659
1.65402
0.863338
0.745453
0.706784
0.667641
0.625714
0.583104
0.538055
0.498367
0.46094
0.429311
0.403262
0.383718
0.37073
0.363788
0.361308
0.360887
0.360871
0.360872
0.360872
0.360872
0.360872
0.360871
0.360888
0.361313
0.363799
0.370739
0.383704
0.403192
0.429153
0.460664
0.497976
0.53752
0.582463
0.625219
0.66662
0.707494
0.744964
0.862314
1.65173
1.64759
0.836536
0.712583
0.675001
0.63748
0.594784
0.54856
0.503643
0.4599
0.420467
0.385486
0.35651
0.334268
0.319255
0.311114
0.308178
0.307688
0.307674
0.307675
0.307675
0.307675
0.307675
0.307674
0.30769
0.308185
0.31112
0.319236
0.334189
0.356338
0.385203
0.420092
0.459459
0.503307
0.548134
0.595282
0.63711
0.677895
0.713719
0.83591
1.64595
1.63549
0.813031
0.6849
0.646176
0.610315
0.565405
0.519097
0.471471
0.426076
0.383428
0.345263
0.31275
0.287198
0.269507
0.259701
0.256101
0.255495
0.255479
0.255481
0.255481
0.255481
0.255481
0.255479
0.255497
0.256105
0.259687
0.269438
0.287046
0.312524
0.345016
0.383258
0.426137
0.472009
0.52015
0.568176
0.612578
0.652733
0.687753
0.812745
1.63269
1.62561
0.79387
0.662335
0.621135
0.584281
0.5391
0.4921
0.443691
0.396169
0.350982
0.309448
0.273096
0.243543
0.222348
0.210203
0.205613
0.204816
0.204792
0.204794
0.204794
0.204794
0.204794
0.204792
0.204817
0.205605
0.210152
0.22223
0.24339
0.273024
0.309647
0.351699
0.397703
0.446483
0.496461
0.546417
0.592051
0.63297
0.66715
0.79447
1.62269
1.61539
0.778582
0.643604
0.59888
0.559945
0.514923
0.468253
0.419572
0.370907
0.32359
0.279023
0.238725
0.204589
0.178884
0.163403
0.157292
0.156179
0.156136
0.156139
0.156139
0.156139
0.156139
0.156137
0.156177
0.157263
0.163318
0.178799
0.204687
0.239282
0.280394
0.326202
0.375287
0.426423
0.478343
0.52949
0.576265
0.618309
0.65226
0.781018
1.61072
1.61063
0.769494
0.62887
0.578294
0.536934
0.49295
0.447286
0.399463
0.350598
0.302009
0.255032
0.21112
0.172161
0.140891
0.120585
0.112009
0.11035
0.110269
0.11027
0.11027
0.11027
0.11027
0.110268
0.110339
0.111958
0.12053
0.141072
0.172954
0.212951
0.258396
0.307541
0.359164
0.412237
0.465565
0.51754
0.56521
0.607875
0.643057
0.773058
1.60033
1.60245
0.764611
0.619784
0.560146
0.51544
0.473422
0.429539
0.383569
0.335543
0.286693
0.238334
0.191785
0.148616
0.111367
0.0843729
0.0715034
0.0687845
0.0686283
0.0686276
0.0686277
0.0686277
0.0686276
0.0686267
0.068765
0.0714579
0.0845351
0.112213
0.150619
0.195456
0.244323
0.295898
0.349279
0.403632
0.457866
0.510323
0.558456
0.601416
0.638854
0.769671
1.59253
1.61319
0.765618
0.61464
0.543678
0.496049
0.456317
0.415017
0.371717
0.325427
0.277328
0.228758
0.181036
0.135437
0.0937855
0.059725
0.0396583
0.0344862
0.0341523
0.0341481
0.034148
0.034148
0.034148
0.0341493
0.0344621
0.0397341
0.0604492
0.0956807
0.138979
0.186816
0.237599
0.290455
0.344722
0.399701
0.454357
0.507018
0.555272
0.598415
0.63779
0.768969
1.58863
1.62633
0.764437
0.607437
0.522017
0.474064
0.437768
0.401643
0.362209
0.318514
0.272022
0.224216
0.176577
0.13044
0.0873434
0.0498752
0.0229449
0.0122607
0.011315
0.0113026
0.0113025
0.0113025
0.0113024
0.0113105
0.0122716
0.0234254
0.0514061
0.0904018
0.135528
0.184361
0.235739
0.288974
0.343492
0.398638
0.453398
0.506089
0.554316
0.597533
0.637859
0.769094
1.5876
1.63151
0.754819
0.592005
0.49221
0.447766
0.416442
0.387587
0.352789
0.312514
0.268169
0.221556
0.174574
0.12876
0.0857318
0.0479783
0.0196831
0.0049325
0.00189106
0.00183748
0.00183728
0.00183728
0.0018373
0.00189049
0.00514937
0.0206518
0.0502536
0.0897963
0.13516
0.184113
0.235558
0.28883
0.343368
0.398524
0.453286
0.505969
0.55417
0.597401
0.637956
0.769175
1.5875
1.62289
0.721236
0.55787
0.453261
0.416381
0.395216
0.375245
0.344784
0.308104
0.265448
0.2198
0.17331
0.127776
0.0849505
0.0473861
0.0192608
0.00444267
0.000415682
9.89249e-05
9.83348e-05
9.83343e-05
9.89231e-05
0.00045704
0.00481386
0.0205756
0.0502286
0.0897882
0.135159
0.184115
0.23556
0.288832
0.343368
0.398523
0.453283
0.505964
0.554162
0.597394
0.637968
0.769184
1.5875
1.37922
0.530104
0.434181
0.3827
0.377875
0.379454
0.365653
0.339275
0.305195
0.26375
0.21875
0.1726
0.127251
0.0845275
0.0470493
0.0190413
0.00435474
0.00039068
9.20541e-06
1.43998e-06
1.43919e-06
1.08764e-05
0.000446352
0.00481293
0.0205756
0.0502289
0.0897887
0.135159
0.184115
0.235561
0.288832
0.343369
0.398523
0.453284
0.505964
0.554162
0.597393
0.637969
0.769184
1.5875
)
;

boundaryField
{
    inlet
    {
        type            calculated;
        value           uniform 0;
    }
    outlet
    {
        type            calculated;
        value           nonuniform List<scalar> 
165
(
1.37922
1.62289
1.63151
1.62633
1.61319
1.60245
1.61063
1.61539
1.62561
1.63549
1.64759
1.65402
1.66759
1.66869
1.68229
1.67558
1.67605
1.64051
1.69237
2.28951
2.28951
1.69565
1.64309
1.67836
1.67798
1.68459
1.67044
1.6688
1.654
1.64746
1.63432
1.62363
1.61202
1.60258
1.59661
1.59436
1.59398
1.59396
1.59396
1.59396
1.59396
1.59396
1.59396
1.59398
1.59436
1.59661
1.60258
1.61202
1.62363
1.63432
1.64746
1.654
1.6688
1.67044
1.68459
1.67798
1.67836
1.64309
1.69565
2.28951
1.5875
1.5875
1.5875
1.5876
1.58863
1.59253
1.60033
1.61072
1.62269
1.63269
1.64595
1.65173
1.66659
1.66802
1.68215
1.67567
1.67618
1.64061
1.6924
2.28951
1.5875
1.5875
1.5875
1.5875
1.5875
2.28951
1.6924
1.64061
1.67618
1.67567
1.68215
1.66802
1.66659
1.65173
1.64595
1.63269
1.62269
1.61072
1.60033
1.59253
1.58863
1.5876
1.5875
1.5875
1.5875
2.28951
1.69565
1.64309
1.67836
1.67798
1.68459
1.67044
1.6688
1.654
1.64746
1.63432
1.62363
1.61202
1.60258
1.59661
1.59436
1.59398
1.59396
1.59396
1.59396
1.59396
1.59396
1.59396
1.59398
1.59436
1.59661
1.60258
1.61202
1.62363
1.63432
1.64746
1.654
1.6688
1.67044
1.68459
1.67798
1.67836
1.64309
1.69565
2.28951
2.28951
1.69237
1.64051
1.67605
1.67558
1.68229
1.66869
1.66759
1.65402
1.64759
1.63549
1.62561
1.61539
1.61063
1.60245
1.61319
1.62633
1.63151
1.62289
1.37922
)
;
    }
    obstacle
    {
        type            calculated;
        value           nonuniform List<scalar> 
40
(
0.0990174
0.0454952
0.0494941
0.0495061
0.0500241
0.0506498
0.0519018
0.0541542
0.0565264
0.0518139
0.0990174
0.0454952
0.0494941
0.0495061
0.0500241
0.0506498
0.0519018
0.0541542
0.0565264
0.0518139
0.06031
0.0809228
0.105161
0.1416
0.224761
0.06031
0.0809228
0.105161
0.1416
0.224761
0.272925
0.234607
0.217506
0.218258
0.311345
0.272925
0.234607
0.217506
0.218258
0.311345
)
;
    }
    empty
    {
        type            empty;
    }
}


// ************************************************************************* //
