/*--------------------------------*- C++ -*----------------------------------*\
| =========                 |                                                 |
| \\      /  F ield         | OpenFOAM: The Open Source CFD Toolbox           |
|  \\    /   O peration     | Version:  v1912                                 |
|   \\  /    A nd           | Website:  www.openfoam.com                      |
|    \\/     M anipulation  |                                                 |
\*---------------------------------------------------------------------------*/
FoamFile
{
    version     2.0;
    format      ascii;
    class       volScalarField;
    location    "0.00018";
    object      dsmcRhoNMean;
}
// * * * * * * * * * * * * * * * * * * * * * * * * * * * * * * * * * * * * * //

dimensions      [0 -3 0 0 0 0 0];


internalField   nonuniform List<scalar> 
1300
(
1.9
1.888888889
4.677777778
12.78888889
7.288888889
5.111111111
7.233333333
7.588888889
6.4
6.3
2.277777778
2.2
6.933333333
22.14444444
10.93333333
6.611111111
10.87777778
11.48888889
8.111111111
7.611111111
1.144444444
1.288888889
6.4
22.94444444
10.51111111
6.411111111
12.13333333
14.27777778
9.744444444
9.355555556
0.7
0.7666666667
5.655555556
21.51111111
10.06666667
6.066666667
12.31111111
16.54444444
10.55555556
10.3
0.4222222222
0.6111111111
6.033333333
21.13333333
9.633333333
5.111111111
11.37777778
14.82222222
11.55555556
10.58888889
0.3444444444
0.3888888889
5.566666667
21.21111111
9.177777778
4.944444444
11.04444444
13.65555556
10.66666667
10.15555556
0.2
0.5
5.822222222
21.24444444
9.111111111
4.311111111
10.45555556
13.23333333
10.28888889
9.455555556
0.2333333333
0.2555555556
6.133333333
21.11111111
9.233333333
5.222222222
10.45555556
13.54444444
9.455555556
9.088888889
0.1444444444
0.3222222222
5.844444444
21.55555556
9.166666667
5.1
11.18888889
12.94444444
9.877777778
8.733333333
0.1
0.2555555556
5.577777778
20.93333333
9.555555556
5.033333333
10.05555556
13.85555556
10.1
8.211111111
0.1111111111
0.2444444444
5.922222222
21.48888889
9.222222222
4.933333333
10.47777778
13.87777778
9.911111111
9.122222222
0.1
0.2444444444
5.588888889
20.63333333
9.3
4.477777778
10.85555556
13.41111111
9.366666667
9.211111111
0.03333333333
0.1777777778
5.355555556
21.65555556
9.322222222
4.722222222
10.52222222
13.68888889
9.7
8.877777778
0.05555555556
0.1444444444
5.655555556
21.35555556
9.211111111
4.744444444
10.41111111
13.7
9.588888889
8.777777778
0.03333333333
0.1555555556
5.677777778
20.52222222
9.177777778
4.588888889
10.13333333
13.84444444
9.933333333
8.577777778
0.03333333333
0.2222222222
5.855555556
21.77777778
8.822222222
5.033333333
10.73333333
13.08888889
9.7
8.433333333
0.05555555556
0.1444444444
5.833333333
20.65555556
8.811111111
5.222222222
11.2
12.91111111
9.755555556
9.044444444
0.02222222222
0.07777777778
5.877777778
21.01111111
9.011111111
5.066666667
10.15555556
13.5
9.855555556
8.777777778
0.02222222222
0.1666666667
5.666666667
21.62222222
9.033333333
4.955555556
9.666666667
13.43333333
9.611111111
8.288888889
0.02222222222
0.1
5.011111111
20.01111111
8.677777778
5.244444444
10.14444444
12.9
9.611111111
8.866666667
7.733333333
6.688888889
6.666666667
6.355555556
6.388888889
5.922222222
6.533333333
6.9
6.133333333
6.677777778
6.066666667
7.366666667
6.677777778
6.433333333
7.188888889
7.355555556
6.8
6.822222222
7.533333333
6.911111111
7
7.244444444
6.866666667
7
7.277777778
7.722222222
7.9
8.433333333
9.544444444
9.333333333
9.166666667
7.733333333
7
6.922222222
7.011111111
6.866666667
6.755555556
6.866666667
7.122222222
6.444444444
6.744444444
6.5
7.4
6.811111111
6.911111111
6.766666667
6.877777778
6.377777778
7.177777778
7.655555556
7.188888889
7.022222222
7.522222222
7.433333333
7.166666667
7.9
7.488888889
8.055555556
8.144444444
8.666666667
11.54444444
10.14444444
8.888888889
8.088888889
8.155555556
7.666666667
7.4
7.044444444
7.244444444
7
6.788888889
6.866666667
6.6
7.1
7.166666667
7.111111111
6.855555556
7.033333333
7.366666667
6.966666667
7.422222222
7.477777778
6.922222222
7.255555556
7.088888889
7.433333333
7.4
8.066666667
8.666666667
7.944444444
13.85555556
12.71111111
11.15555556
10.21111111
9.922222222
8.811111111
8.8
8.822222222
8.1
7.7
8.033333333
7.477777778
7.644444444
7.266666667
7.3
7.355555556
6.955555556
7.111111111
6.988888889
6.966666667
7.577777778
7.477777778
7.6
7.844444444
8.244444444
7.022222222
8.111111111
7.977777778
8.077777778
7.866666667
15.93333333
14.78888889
13.12222222
12.5
11.82222222
10.75555556
10.45555556
9.711111111
9.722222222
8.8
8.388888889
8.188888889
8.011111111
8.133333333
7.622222222
7.888888889
7.777777778
7.544444444
7.788888889
7.477777778
7.677777778
7.888888889
7.366666667
7.9
7.7
7.822222222
8.266666667
7.977777778
7.411111111
7.555555556
14.25555556
15.73333333
14.36666667
13.96666667
13.44444444
12.92222222
11.65555556
11.21111111
10.14444444
10.48888889
9.911111111
9.577777778
9.155555556
9.488888889
8.7
8.466666667
8.966666667
7.833333333
8.177777778
8.233333333
8.266666667
8.033333333
7.944444444
7.622222222
8.266666667
8.055555556
7.833333333
8.122222222
7.633333333
8.266666667
12.87777778
14.94444444
14.64444444
14.63333333
14.72222222
14.18888889
13.45555556
12.95555556
12.7
12.01111111
11.02222222
10.85555556
9.822222222
10.02222222
9.444444444
9.711111111
8.977777778
9.755555556
8.755555556
8.5
8.833333333
8.5
8.711111111
8.322222222
8.277777778
8.377777778
8.277777778
8.466666667
8.811111111
7.888888889
13.2
13.95555556
14.26666667
13.83333333
15.3
16.06666667
14.93333333
13.86666667
14.12222222
13.55555556
12.62222222
12.24444444
11.93333333
11.32222222
10.94444444
10.87777778
9.944444444
10.32222222
9.5
9.533333333
9.111111111
9.988888889
9.088888889
9.788888889
9.022222222
9.211111111
8.377777778
8.9
8.488888889
8.633333333
12.52222222
13.05555556
12.57777778
13.36666667
13.43333333
14.94444444
15.02222222
14.86666667
15.3
14.1
13.83333333
13.91111111
12.74444444
12.45555556
12.4
11.82222222
11.5
10.73333333
11.15555556
10.34444444
10.48888889
10.2
10.13333333
9.877777778
10.42222222
9.6
9.977777778
9.455555556
9.677777778
8.8
12.2
13.58888889
11.98888889
12.4
13.51111111
13.35555556
14.38888889
14.2
14.74444444
16.03333333
14.34444444
15.01111111
14.82222222
13.85555556
13.03333333
13.03333333
12.6
11.87777778
12.56666667
11.68888889
11.43333333
11.17777778
10.98888889
10.8
10.9
10.43333333
10.42222222
10.08888889
10.54444444
10.03333333
12.48888889
13.53333333
12.82222222
12.6
12.62222222
13.67777778
13.32222222
13.78888889
14.6
14.55555556
14.5
15.24444444
15.2
14.72222222
14.64444444
14.16666667
14.45555556
13.83333333
12.56666667
12.73333333
11.74444444
12.13333333
11.98888889
11.16666667
11.31111111
11.63333333
11.08888889
11.01111111
10.46666667
11.16666667
12.21111111
13.44444444
12.2
12.31111111
12.18888889
13.25555556
12.54444444
12.94444444
14
14.18888889
14.61111111
14.71111111
15.3
14.26666667
14.91111111
15.03333333
14.32222222
13.76666667
14.7
13.92222222
13.45555556
12.78888889
12.84444444
12.88888889
12.11111111
12.56666667
11.8
11.86666667
12.11111111
11.68888889
12.56666667
12.67777778
12.1
12.14444444
12.84444444
13.08888889
12.65555556
12.21111111
14.15555556
13.44444444
13.44444444
14.7
14.38888889
15.47777778
15.61111111
16.12222222
14.87777778
15.24444444
14.17777778
15.08888889
13.8
14.34444444
13.92222222
12.92222222
13
12.63333333
12.95555556
12.14444444
12.58888889
12.35555556
12.22222222
13.54444444
12.18888889
12.14444444
12.05555556
12.4
12.68888889
11.77777778
12.56666667
13.64444444
12.34444444
13.03333333
14.24444444
13.05555556
15.04444444
14.3
15.16666667
15.74444444
15.07777778
14.85555556
15.13333333
14.35555556
14.56666667
14.58888889
13.14444444
14.2
13.84444444
13.36666667
13.76666667
13.34444444
12.27777778
12.75555556
12.12222222
12.26666667
12.02222222
12.67777778
12.56666667
12.4
12.84444444
12.07777778
12.05555556
13.33333333
13.85555556
12.43333333
13.98888889
14.2
13.93333333
15.48888889
14.72222222
15.11111111
15.55555556
14.36666667
14.77777778
14.71111111
14.85555556
13.91111111
13.38888889
13.78888889
13.38888889
13.97777778
12.82222222
13.12222222
12.23333333
12.13333333
12.7
13.35555556
11.72222222
12.36666667
13.4
12.9
12.24444444
12.26666667
12.25555556
12.61111111
13.48888889
13.3
13.83333333
14.32222222
14.53333333
14.66666667
15.36666667
15.05555556
15.63333333
14.6
14.8
14.84444444
13.92222222
14.05555556
14.26666667
13.92222222
11.95555556
12.53333333
13.16666667
11.56666667
12.37777778
12.45555556
12.45555556
12.37777778
12.51111111
12.93333333
12.91111111
12.82222222
13.56666667
12.2
13.43333333
13.21111111
13.16666667
13
13.82222222
14.53333333
14.68888889
15.15555556
15.85555556
15.33333333
15.63333333
15.57777778
15.87777778
15.04444444
14.7
15.08888889
12.33333333
12.65555556
12.11111111
12.1
12.14444444
13
12.08888889
11.78888889
12.84444444
11.85555556
12.77777778
12.38888889
12.96666667
12.81111111
12.98888889
13.04444444
13.57777778
13.51111111
13.17777778
13.47777778
13.81111111
14.22222222
14.28888889
14.92222222
15.57777778
14.82222222
16.17777778
15.46666667
15.67777778
14.88888889
11.84444444
12.97777778
11.64444444
11.13333333
11.56666667
12.73333333
11.9
11.85555556
12.03333333
12.42222222
12.33333333
12.44444444
12.58888889
12.24444444
12.24444444
13.05555556
12.36666667
13.42222222
13.11111111
13.62222222
13.76666667
13.28888889
14.25555556
13.92222222
14.51111111
15.16666667
14.87777778
15.27777778
14.98888889
16.35555556
12.6
12.63333333
11.9
12.51111111
12.56666667
12.01111111
12.13333333
11.68888889
12.32222222
11.57777778
11.73333333
11.82222222
11.97777778
12.18888889
11.86666667
12.31111111
12.56666667
12.3
12.71111111
12.61111111
13.35555556
13.12222222
13.07777778
13.68888889
14.18888889
14.1
13.53333333
14.58888889
14.63333333
15.21111111
6.722222222
6.511111111
6.633333333
6.233333333
6.1
5.966666667
5.955555556
5.333333333
5.055555556
4.244444444
7.888888889
7.8
7.188888889
7.388888889
7.577777778
7.766666667
7.133333333
6.8
6.055555556
5.533333333
7.077777778
6.766666667
7.255555556
7.366666667
7.133333333
6.911111111
7.077777778
6.844444444
5.577777778
5.077777778
6.622222222
6.366666667
7.288888889
7.177777778
7.044444444
6.988888889
6.155555556
6.588888889
5.755555556
5.411111111
5.988888889
6.411111111
6.422222222
6.666666667
6.722222222
6.577777778
7.066666667
6.266666667
5.788888889
5.833333333
6.877777778
6.655555556
5.977777778
6.744444444
6.511111111
6.466666667
6.511111111
6.166666667
6.166666667
6.466666667
6.833333333
6.5
6.733333333
6.577777778
6.255555556
6.655555556
6.144444444
6.322222222
5.977777778
6.111111111
7.222222222
6.866666667
6.788888889
6.255555556
7.133333333
6.688888889
6.244444444
6.555555556
6.088888889
6.077777778
7.6
7.566666667
7.388888889
7
7.2
6.888888889
6.9
6.322222222
6.455555556
6.4
8
7.966666667
7.944444444
7.577777778
7.211111111
7.6
6.788888889
6.677777778
7.155555556
6.5
8.488888889
8.244444444
9.033333333
8.311111111
8.144444444
7.622222222
7.622222222
7.933333333
7.466666667
7.144444444
8.988888889
9.433333333
9.211111111
8.744444444
8.911111111
9.055555556
8.3
8.422222222
7.477777778
7.988888889
10.06666667
10.68888889
9.977777778
9.377777778
9.811111111
9.5
8.911111111
9.7
8.688888889
8.7
10.31111111
10.38888889
10.74444444
10.35555556
10.4
10.27777778
10.02222222
10.04444444
9.8
9.633333333
10.9
10.52222222
10.33333333
10.94444444
10.95555556
10.21111111
10.56666667
10.33333333
10.47777778
10.16666667
11.23333333
11.51111111
11.61111111
11.46666667
11.55555556
11.05555556
11.35555556
10.78888889
10.73333333
10.83333333
12.14444444
12.46666667
12.08888889
11.71111111
10.84444444
12.04444444
11.27777778
11.66666667
11.3
11.66666667
12.18888889
12.03333333
12.22222222
12.36666667
12.65555556
12.38888889
12.14444444
12.06666667
11.96666667
11.8
12.3
12
12.62222222
12.13333333
12.36666667
12.17777778
12.76666667
11.54444444
13
12.48888889
12.41111111
12.51111111
12.35555556
12.68888889
11.9
12.1
12.03333333
12.21111111
12.03333333
12.35555556
5.266666667
6.633333333
6.1
6
6
5.955555556
6.022222222
5.377777778
5.977777778
6.622222222
6.322222222
6.255555556
6.111111111
6.266666667
5.888888889
6.288888889
6.111111111
6.433333333
6.333333333
6.2
6.722222222
6.655555556
6.922222222
7.133333333
6.733333333
7.188888889
7.255555556
7.211111111
7.277777778
6.611111111
6.255555556
7.988888889
7.655555556
7.9
7.733333333
7.355555556
7.188888889
7.588888889
7.933333333
8.122222222
7.9
7.733333333
7.922222222
8.022222222
7.722222222
8.166666667
7.277777778
8.377777778
8.455555556
7.8
8.611111111
8.311111111
8.322222222
8.877777778
8.333333333
8.922222222
9.188888889
9.322222222
9.222222222
8.566666667
5.544444444
7.911111111
8.022222222
8.077777778
8.611111111
7.566666667
7.677777778
7.911111111
7.577777778
7.744444444
7.855555556
7.222222222
7.766666667
7.688888889
8
8.344444444
7.666666667
8.166666667
8.344444444
7.544444444
8.033333333
8.177777778
8.266666667
7.922222222
8.322222222
8.588888889
9.355555556
8.922222222
9.455555556
7.766666667
6.144444444
7.9
8.222222222
8.233333333
7.911111111
7.255555556
7.633333333
7.6
7.788888889
7.377777778
7.322222222
7.166666667
7.433333333
7.177777778
8.211111111
8.133333333
7.488888889
8.188888889
7.677777778
7.411111111
7.766666667
8.044444444
8.4
8.566666667
8.244444444
8.055555556
9.111111111
9.055555556
9.566666667
8.211111111
6.044444444
7.588888889
7.822222222
8.177777778
8.111111111
8.177777778
6.755555556
7.4
7.433333333
7.844444444
7.3
7.355555556
7.4
6.811111111
7.888888889
7.6
7.9
7.5
7.955555556
7.333333333
7.966666667
7.588888889
7.911111111
8.311111111
8.511111111
8.377777778
8.833333333
9.222222222
9.311111111
8.377777778
6.088888889
7.888888889
7.477777778
7.888888889
7.688888889
7.666666667
7.144444444
7.444444444
7.544444444
7.588888889
7.244444444
7.622222222
7.044444444
6.844444444
7.622222222
7.755555556
7.588888889
7.977777778
7.844444444
7.466666667
7.522222222
7.988888889
7.733333333
7.977777778
8.255555556
8.744444444
8.433333333
9.266666667
9.311111111
9.044444444
5.566666667
7.466666667
7.455555556
7.655555556
7.444444444
7.344444444
6.911111111
6.933333333
6.866666667
7.1
6.888888889
7.122222222
7.177777778
7.366666667
7.433333333
7.888888889
7.522222222
7.644444444
7.811111111
8.011111111
7.944444444
7.844444444
7.822222222
8.088888889
8.411111111
8.355555556
8.822222222
8.933333333
9.755555556
9.177777778
5.266666667
7.377777778
7
7.611111111
6.922222222
7.011111111
6.688888889
5.955555556
7.388888889
7.222222222
6.688888889
7.044444444
7.333333333
7.1
7.566666667
7.155555556
7.588888889
7.111111111
7.066666667
7.744444444
7.322222222
7.688888889
7.488888889
7.644444444
7.811111111
8.088888889
8.522222222
9.011111111
9.488888889
9
5.466666667
7.433333333
6.444444444
6.211111111
6.422222222
6.944444444
6.844444444
7.077777778
6.488888889
6.877777778
6.566666667
6.6
7
6.988888889
7.577777778
7.688888889
7.644444444
6.955555556
7.633333333
7.133333333
7.433333333
7.322222222
7.4
7.922222222
7.677777778
8.133333333
8.122222222
8.644444444
9.833333333
9.444444444
4.733333333
7.022222222
5.933333333
6.422222222
6.355555556
6.422222222
6.311111111
6.744444444
6.666666667
6.644444444
6.911111111
6.9
6.9
7.266666667
6.344444444
7.077777778
6.977777778
6.844444444
7.055555556
7.2
7.166666667
6.8
6.977777778
6.944444444
7.822222222
7.5
7.933333333
8.711111111
9.055555556
9.244444444
)
;

boundaryField
{
    inlet
    {
        type            calculated;
        value           nonuniform List<scalar> 
20
(
1.9
2.277777778
1.144444444
0.7
0.4222222222
0.3444444444
0.2
0.2333333333
0.1444444444
0.1
0.1111111111
0.1
0.03333333333
0.05555555556
0.03333333333
0.03333333333
0.05555555556
0.02222222222
0.02222222222
0.02222222222
)
;
    }
    outlet
    {
        type            calculated;
        value           nonuniform List<scalar> 
70
(
4.244444444
5.533333333
5.077777778
5.411111111
5.833333333
6.466666667
6.111111111
6.077777778
6.4
6.5
7.144444444
7.988888889
8.7
9.633333333
10.16666667
10.83333333
11.66666667
11.8
12.48888889
12.35555556
0.02222222222
0.1
5.011111111
20.01111111
8.677777778
5.244444444
10.14444444
12.9
9.611111111
8.866666667
12.6
12.63333333
11.9
12.51111111
12.56666667
12.01111111
12.13333333
11.68888889
12.32222222
11.57777778
11.73333333
11.82222222
11.97777778
12.18888889
11.86666667
12.31111111
12.56666667
12.3
12.71111111
12.61111111
13.35555556
13.12222222
13.07777778
13.68888889
14.18888889
14.1
13.53333333
14.58888889
14.63333333
15.21111111
12.41111111
12.51111111
12.35555556
12.68888889
11.9
12.1
12.03333333
12.21111111
12.03333333
12.35555556
)
;
    }
    wall
    {
        type            calculated;
        value           nonuniform List<scalar> 
70
(
1.9
1.888888889
4.677777778
12.78888889
7.288888889
5.111111111
7.233333333
7.588888889
6.4
6.3
5.266666667
6.255555556
5.544444444
6.144444444
6.044444444
6.088888889
5.566666667
5.266666667
5.466666667
4.733333333
5.266666667
6.633333333
6.1
6
6
5.955555556
6.022222222
5.377777778
5.977777778
6.622222222
6.322222222
6.255555556
6.111111111
6.266666667
5.888888889
6.288888889
6.111111111
6.433333333
6.333333333
6.2
6.722222222
6.655555556
6.922222222
7.133333333
6.733333333
7.188888889
7.255555556
7.211111111
7.277777778
6.611111111
6.611111111
8.566666667
7.766666667
8.211111111
8.377777778
9.044444444
9.177777778
9
9.444444444
9.244444444
6.722222222
6.511111111
6.633333333
6.233333333
6.1
5.966666667
5.955555556
5.333333333
5.055555556
4.244444444
)
;
    }
    frontAndBack
    {
        type            empty;
    }
}


// ************************************************************************* //
