/*--------------------------------*- C++ -*----------------------------------*\
| =========                 |                                                 |
| \\      /  F ield         | OpenFOAM: The Open Source CFD Toolbox           |
|  \\    /   O peration     | Version:  v1912                                 |
|   \\  /    A nd           | Website:  www.openfoam.com                      |
|    \\/     M anipulation  |                                                 |
\*---------------------------------------------------------------------------*/
FoamFile
{
    version     2.0;
    format      ascii;
    class       volVectorField;
    location    "0.00018";
    object      momentum;
}
// * * * * * * * * * * * * * * * * * * * * * * * * * * * * * * * * * * * * * //

dimensions      [1 -2 -1 0 0 0 0];


internalField   nonuniform List<vector> 
1300
(
(-4.381654966 3.701250696 6.59181627)
(-0.006539839236 0.7180307129 -0.7574419221)
(20.43487178 4.212803974 2.302127552)
(134.3186084 5.279251023 -9.237126633)
(66.55445167 0.4683169804 1.338403693)
(8.066311397 8.033542884 -3.872145968)
(37.11456638 1.000178907 0.4253417435)
(2.280502147 3.522482077 -1.455041939)
(64.36668285 -6.178184421 -8.790256332)
(21.3105132 -3.867939666 -3.778109322)
(-1.944321457 6.801705841 0.80368131)
(-0.685832096 3.463353335 4.394335425)
(48.01217796 7.47893235 -3.722137832)
(167.3753402 17.58335463 3.982390826)
(48.8573583 7.120689823 6.961609548)
(22.60063261 -2.056384662 7.064994245)
(84.67696807 6.204397837 -3.817264022)
(60.75964686 5.003082136 -5.460414849)
(71.72340462 2.540003504 -4.899638824)
(44.40093635 -2.181347766 -12.13227729)
(-3.497235458 4.29288434 4.246385201)
(5.664508481 5.02859644 1.986391863)
(26.64838926 4.520823298 -0.6934095489)
(200.9774348 31.95563861 8.156658311)
(51.40297639 8.571869353 -4.942157177)
(38.11646267 9.089153314 2.923033893)
(48.53852333 7.047823966 -5.308866568)
(126.0497112 18.47250647 9.082289624)
(23.00817392 1.725731571 -1.136943887)
(69.90680045 18.7714277 -5.007402334)
(0.1675187582 3.611789897 0.09733755186)
(1.584844354 2.378353782 1.251267891)
(11.89734249 4.871460412 -2.120756039)
(204.2330771 20.5758154 2.028507263)
(80.8301118 7.343065033 3.812502186)
(63.74142365 19.66630085 -0.7575462792)
(95.04601726 24.35888633 -7.600443549)
(109.0911348 19.86018533 -5.23971272)
(36.04229749 5.223368968 1.051177599)
(90.23738014 14.36199718 -9.16668506)
(-1.473897439 6.263919985 0.8522708727)
(0 0 0)
(6.711093633 1.523969742 1.60234802)
(177.5932974 26.08152161 6.001701604)
(71.6878596 5.80920737 3.222419865)
(43.25816591 5.039641862 -3.460423331)
(80.93189541 28.24994783 4.880183281)
(159.0283382 36.40166286 -12.97654957)
(53.23058435 11.46914285 1.048690541)
(104.8551089 31.89396716 -2.960390664)
(0 0 0)
(0 0 0)
(33.74365998 10.22032566 0.2184527219)
(171.5079622 23.07883062 8.228475397)
(107.2150274 13.34766123 -0.92459994)
(40.43605151 16.92076693 -3.738259492)
(82.89787889 12.68856331 0.8210421)
(114.1264574 16.53576757 2.075762029)
(114.4467061 14.48581005 -2.318185715)
(57.10538121 13.68752922 1.240633554)
(0 0 0)
(1.024229217 3.513768502 0.1829285586)
(38.46097214 7.450993571 3.220520533)
(216.2612274 42.05999668 -9.159871867)
(70.16665075 10.83956123 -4.496979228)
(24.84308327 7.026323381 1.73976658)
(30.69896144 -2.012657314 -1.53054596)
(100.6407843 13.58225196 -4.026322397)
(99.27449042 11.85429492 -3.946820654)
(94.88041339 12.3549965 5.071019831)
(0 0 0)
(0 0 0)
(21.27975133 6.139724777 2.149588649)
(181.5110823 26.37061738 -15.02265256)
(84.6104667 15.90719403 2.925627677)
(67.23200835 16.84134889 3.053075029)
(76.1418372 14.53834262 -6.964072558)
(125.4803006 13.48487719 1.971175043)
(98.57231744 11.50216238 0.1077981085)
(79.53883924 13.41734592 1.534026745)
(-0.4589890161 2.400676865 -1.534565595)
(0 0 0)
(14.83276435 8.664455829 -1.14960411)
(191.1823797 23.59038646 1.772794077)
(61.12339047 10.46116874 -3.272207627)
(57.24372838 7.46826569 -2.984941425)
(98.7715288 20.77506315 10.08263868)
(63.69009842 9.92833486 0.2345237996)
(97.13148968 3.607306191 -5.277599351)
(56.00921688 14.93808229 0.5711641742)
(0 0 0)
(0 0 0)
(71.17342128 15.77964113 -5.609032944)
(262.9501123 34.27731574 6.030189918)
(40.10760125 3.406171016 4.366052827)
(55.73642269 9.312866474 -1.795586802)
(73.30231891 15.89428239 8.388457603)
(153.2991943 26.86716545 -7.420914846)
(65.36081248 9.117923263 4.91513257)
(58.54426384 15.16040429 1.008905707)
(0 0 0)
(0 0 0)
(70.1250971 10.79106941 -1.978945029)
(101.658805 6.462489157 -4.497107392)
(57.95769331 11.64257882 7.351015268)
(20.54820976 2.249678444 1.980526174)
(74.59977238 12.58898385 2.954689115)
(96.22382665 21.08027277 8.400050938)
(82.21088405 6.827700729 -5.840949983)
(118.3167798 17.79968778 -4.46587409)
(0.08089297468 2.932200353 -1.96382579)
(0 0 0)
(52.3447994 10.60266267 1.942295129)
(221.4103346 43.26724001 -1.703122027)
(78.70239349 7.667126095 -0.07274716883)
(12.15639262 0.4864102423 0.07879409506)
(85.62295952 9.768564567 9.147794172)
(60.39769616 4.670948947 -1.335720432)
(57.32963346 10.08555715 -3.527562644)
(74.40958328 17.23159908 -2.870034299)
(0 0 0)
(-0.03631833568 3.618488944 -1.656851455)
(32.55109183 5.204194146 -1.229511882)
(199.4093525 32.04499641 -4.402052997)
(57.68976224 8.481090203 -0.4669625346)
(24.5530916 8.028495918 1.133884851)
(114.3094486 17.5725504 1.061822327)
(101.0410737 20.852793 -5.578986557)
(120.0928993 17.07311435 -1.090259012)
(47.59677096 4.72596319 1.320873192)
(0 0 0)
(0 0 0)
(54.15396607 9.352999557 -3.346131982)
(125.2493531 21.46436674 7.328804281)
(52.0805425 4.128565293 -2.878329098)
(26.78507917 3.808204143 -5.063186039)
(69.26196848 16.49657123 5.068496043)
(114.2887199 26.49845718 4.04797682)
(81.31936648 19.56791448 10.48077179)
(89.38921506 23.41655987 -4.563826297)
(0 0 0)
(0 0 0)
(55.34970807 13.14837254 2.591978865)
(201.2381441 31.12885823 0.8576771738)
(115.6506461 8.955205367 -0.930728306)
(19.85299046 6.781478392 -3.259647064)
(26.30561728 3.603732393 1.357012408)
(160.2251816 18.46703128 3.856214846)
(104.5327416 17.07234867 -4.004221977)
(79.25379399 18.69071465 -3.959716579)
(0 0 0)
(0 0 0)
(25.22049388 7.777469306 3.548610375)
(185.580146 29.55641403 4.784986022)
(51.66368264 6.585772666 -0.3770790486)
(54.00946413 8.048287684 0.007577764607)
(144.5147644 15.48323932 -6.979719473)
(104.4618686 11.22573853 7.890878649)
(58.02369857 2.225182435 -3.605738353)
(64.39643031 7.037180984 -2.727687195)
(0 0 0)
(0 0 0)
(58.84545408 5.294723275 1.635751906)
(200.3842032 29.2814034 14.1703677)
(94.89829174 15.71620579 -2.149863681)
(13.15224451 2.573595272 2.435348231)
(111.9067283 15.42834531 -5.221119367)
(133.3122708 14.84341412 8.547440167)
(105.5820813 19.57239433 -3.235034115)
(84.84995879 12.6530797 6.394822559)
(0 0 0)
(0 0 0)
(46.23313457 4.121981955 0.06983187659)
(244.4754109 33.53761691 18.90416165)
(60.96404247 2.226513447 2.696790042)
(13.15998351 0.04974270442 0.8786016834)
(66.96269503 14.30163357 0.0842362416)
(114.2022621 14.10914368 0.6324827486)
(37.77409009 4.193249028 -0.09284542774)
(37.71344456 8.325504605 -1.016264491)
(0 0 0)
(0 0 0)
(48.1467719 5.165124431 -7.310125594)
(164.0003796 18.02000997 -1.005447211)
(84.76082785 6.411002606 -1.277077105)
(33.34115714 6.604908391 0.009035043955)
(56.38888465 9.969980446 2.782031544)
(89.36901788 8.486483792 5.19330153)
(119.9219912 23.28394197 9.771684153)
(100.7249616 17.98011704 -4.00743905)
(0 0 0)
(0 0 0)
(31.55085668 3.664914661 0.247186673)
(144.7239845 12.65517613 1.372795859)
(101.1286475 19.42899114 5.745848713)
(39.25023077 2.745996547 1.462325828)
(67.21429547 12.39973475 -4.652488213)
(89.25752849 14.86921668 2.146729068)
(63.86268077 3.33506028 -6.077946933)
(69.41648152 6.286487472 2.964554588)
(22.7942725 -4.384300645 4.6687745)
(29.40682361 -3.172852615 -1.89897005)
(33.07631591 11.28130392 0.5502309182)
(28.47215757 -3.69655423 -12.20391636)
(31.70757344 1.204106595 0.6818408694)
(33.17219163 4.805745945 3.799970082)
(14.09903841 2.177179596 5.953173061)
(32.2566475 -11.22067081 -2.990639108)
(21.40072988 1.22779882 1.006659535)
(16.51594127 2.15450683 7.269824303)
(5.796981125 5.869341784 0.6454454672)
(17.92020463 4.691639837 1.662950226)
(10.32442382 2.861048252 -1.566462885)
(9.67682095 5.235344579 4.619370139)
(10.81121557 1.749284389 -3.588439104)
(20.52403258 12.29301442 -5.428340762)
(19.2476468 1.396165044 0.7586338508)
(18.17340397 -2.307363748 0.4330503372)
(42.05495678 7.295509024 -0.7835097543)
(11.6185742 15.88299926 8.017502814)
(8.228978306 -0.5411093499 -0.1385515658)
(4.342191635 -6.055816584 3.899100577)
(8.718114251 -7.317557026 -9.100001333)
(-1.581926899 5.053535084 6.67495446)
(4.436021938 4.508395115 0.9319035827)
(4.263458254 5.606600548 -7.174055371)
(5.346309291 -0.3906164852 -8.395107208)
(21.44107039 -5.462095053 -5.57548347)
(12.18507832 -1.980245316 -4.03225439)
(-1.236346438 5.604917917 -0.8249242716)
(59.3542816 2.4877019 -2.69572846)
(19.71145583 2.560605114 -6.318872984)
(42.22552715 4.252932087 3.593905725)
(3.186281246 2.42717974 -1.837336793)
(7.540819558 -1.08298598 1.749481992)
(18.92547177 13.48242183 -10.06327387)
(42.80949413 7.822694606 5.181181601)
(39.87766171 5.333165182 -16.00108362)
(15.29294915 6.395855151 3.138727657)
(9.721679274 5.200280015 -5.19169347)
(33.42633356 -7.368106822 8.423158481)
(37.49650581 -1.841668952 -1.634018828)
(21.53839864 5.324728293 -4.55193082)
(12.88935449 -3.806113004 -1.488449443)
(20.26918737 2.287092515 0.3046965774)
(19.28794673 -3.994610331 0.01111620156)
(24.43748818 3.383323065 -3.116744224)
(9.259103077 3.498848178 8.440024621)
(22.73266169 7.088033857 -0.2536009535)
(5.861578515 7.21873229 -6.319921492)
(20.54849763 3.244075991 2.899234857)
(18.71615397 8.459940552 7.067603116)
(10.44827726 7.8720273 3.037033718)
(17.12407388 -0.8435382158 -2.980691794)
(6.631032343 7.170122513 -4.075426924)
(14.09935127 7.267356466 -6.202625724)
(28.71110137 5.61401065 5.154561885)
(4.670966607 10.1409203 -0.5365767913)
(1.238677355 2.884872387 -2.39320612)
(9.86434126 -1.096292573 1.323227082)
(33.5179411 13.97142158 -0.9768923132)
(50.34649666 1.370015086 0.4630609122)
(42.45027014 8.783080653 -6.651056112)
(21.07857885 -1.389452855 -4.130693795)
(41.32322414 6.760807963 -6.351478489)
(19.01944807 -6.063230101 -0.1716279828)
(26.30038757 4.947807619 -3.176656011)
(28.88048818 2.480706063 -3.49284797)
(52.33867377 20.35371505 8.465631609)
(21.07340215 5.579115123 3.169414386)
(29.03600413 17.68533999 1.084311016)
(28.28437353 0.1390009365 4.435358666)
(38.72069458 2.80506838 -11.06440351)
(24.34630075 1.344914397 -3.711943115)
(19.15032952 4.645137938 1.243578791)
(29.71323862 4.686147965 -0.2718423953)
(28.37309234 -5.443479939 0.1267930997)
(27.42703873 -1.198626283 1.704978365)
(32.81773505 9.527732177 -1.944976073)
(12.83094146 -6.434716006 -5.049065285)
(15.96372794 11.7712474 -0.6848404876)
(32.95835038 1.840373132 9.887191595)
(17.71804225 -3.880353187 -0.02103025808)
(20.52154448 -2.206207072 4.159126967)
(8.537891722 10.15161562 -7.467473404)
(25.18595407 12.79308836 11.31669115)
(-0.1207120935 4.694545455 1.367720274)
(0.5999717259 2.020846486 2.637417825)
(33.68887764 8.632925016 6.247570204)
(4.876572288 1.895470497 3.669325911)
(69.88243527 15.20432732 5.355306952)
(59.7226618 7.715243101 -4.115226701)
(65.05957056 11.0509854 7.408094466)
(55.40017757 6.18877465 4.297558075)
(60.6754916 0.8316328032 -4.247008019)
(45.94103482 5.711601681 -4.20744271)
(49.71616185 19.26853266 3.717592685)
(43.74667153 6.001211081 9.527473618)
(46.87739577 7.06350877 -8.194093496)
(24.64497135 -0.8033329667 -9.348228021)
(53.34783098 -9.041522409 3.971784119)
(30.22301632 -2.474918387 3.146609618)
(20.60460539 5.091279775 0.9089564447)
(32.98232842 -0.8754343449 -2.094536402)
(31.16217691 7.639361761 -1.471202982)
(28.32539753 2.07763173 -4.87728533)
(38.40021765 4.173962596 4.752432522)
(28.92588879 13.00061349 1.843371307)
(7.348040582 6.935443919 -3.971372568)
(26.68637355 2.451270608 7.556730421)
(7.26563826 -3.578887516 1.057228981)
(31.57106523 17.41552812 10.14557679)
(13.22160431 9.369170355 -8.581961423)
(26.98626269 5.436594006 -0.3297358839)
(2.428286424 -1.017208481 0.6843453548)
(21.98780429 8.085454668 0.9458626563)
(23.71895746 9.688944007 -0.5970499869)
(24.86147858 2.072178768 -7.590412068)
(22.83543478 4.479106563 4.537965361)
(32.96381387 12.84291416 -14.51238707)
(101.950989 23.12281788 -9.005290518)
(121.0771057 23.38877465 4.962085995)
(72.44491936 14.31581803 -1.055629804)
(88.66817556 20.15574308 2.583974432)
(72.19368665 13.18933338 -3.06234393)
(50.078631 7.864228259 -4.374476366)
(43.83682412 5.18760298 2.934563182)
(64.58557987 5.472535911 1.364954446)
(44.31415726 8.571789645 -3.917853609)
(37.16133827 9.366881414 6.8364933)
(45.34053655 11.70280262 0.9656714039)
(35.73090687 7.576752872 -1.422395297)
(34.93414668 4.632302991 5.156546323)
(68.27615942 3.838502409 -5.406359537)
(43.61285107 6.613621955 0.2446799823)
(29.46576082 4.433186536 13.25672064)
(39.22775181 7.542994089 -1.625334997)
(36.15933786 2.63110039 -7.288002903)
(19.26432748 2.30787103 4.953705442)
(7.82059324 6.599426446 -0.6074511444)
(24.25581656 -2.640239893 8.032562932)
(16.90843165 10.43199059 -6.955526914)
(12.61981969 4.418696757 -1.604324011)
(26.96795489 -0.7664384988 -2.653437584)
(37.17686176 9.147461417 5.508496007)
(28.77115855 4.227476079 6.263336114)
(26.65542571 6.616447223 -1.355724836)
(10.78666327 2.37260449 0.6957819188)
(25.61616665 17.62963037 -1.481773092)
(19.62663367 2.011758635 2.935163344)
(96.23904025 24.25255794 -10.03517102)
(93.16007481 21.48361034 1.444739521)
(105.0584017 14.82597001 -6.777429331)
(50.13377345 14.08619342 1.504424815)
(79.70813444 22.59949449 -3.825353906)
(83.24941531 8.1684627 -3.843570488)
(76.01456398 19.86968669 5.168300408)
(63.08965454 18.6535316 -4.660208631)
(49.89102708 5.621161944 -0.96608876)
(28.95416925 0.9728326937 2.483776539)
(40.72040602 5.737746278 2.009223504)
(55.71009106 9.439006103 0.3505875839)
(64.88604791 4.900513243 -1.844573565)
(51.19530334 14.01458871 -5.163006277)
(35.16245077 17.03409953 -5.718454357)
(70.99372597 12.75022547 3.113126111)
(46.15379966 8.279207276 5.176697619)
(34.17723964 9.781865071 -1.380705966)
(56.41811785 4.55356491 -8.917812348)
(45.78270471 10.39822293 2.297455761)
(75.40399409 22.75874209 3.809482655)
(34.66671709 7.066706419 -1.296842697)
(27.7608296 8.632927631 7.402435519)
(22.42281993 1.96175144 -1.012400828)
(21.67445292 8.115417923 -2.286797982)
(8.290681325 4.241631574 3.29435168)
(38.3529578 2.369651071 5.87943374)
(37.29998669 7.929097105 -9.392954748)
(24.5165303 2.353304795 -3.619178329)
(8.657987653 2.071214716 -2.79606448)
(96.79707711 17.3546149 5.03716828)
(111.1092577 19.21093522 -0.4864807322)
(66.69768918 3.819757602 2.45057005)
(42.32097195 3.632969171 8.505604381)
(142.2721113 23.23750393 -3.190000893)
(59.0678848 15.17168438 -1.03645217)
(87.1163744 11.06492871 -2.648950052)
(69.65357215 14.62884966 -4.439995422)
(91.07787354 17.68586408 -3.012456082)
(92.22784232 24.67276668 3.367761388)
(55.85460004 4.337205297 -0.4252232008)
(65.59862537 10.44994299 3.034332112)
(38.54126054 6.975162086 -2.409448418)
(40.01535581 13.23862856 4.108759431)
(31.62055431 10.20794705 -6.021342727)
(80.16893026 10.07453669 3.734023476)
(45.12814158 3.555772794 3.933443488)
(71.59696922 18.63417558 -4.355988052)
(49.25552157 11.34359482 0.8015945849)
(57.41563106 1.391202264 -9.15365624)
(63.71757332 15.09119772 -5.93649946)
(42.0657414 6.433369701 -2.347178598)
(42.4409851 10.95900398 0.5301264318)
(27.96449855 0.8268185918 -2.478606639)
(77.86056996 12.16402342 -5.454800686)
(43.8929393 2.808291957 7.270110387)
(34.61484372 10.50822309 -3.580451617)
(48.04365225 3.770336504 -0.4537024935)
(31.38574504 2.060248911 9.391139267)
(58.03415462 13.49512491 -3.329912745)
(122.2666646 14.64050555 -6.6686666)
(106.5926614 19.24195792 2.173874643)
(93.12726341 16.79141419 6.697957482)
(82.09669811 19.61428544 -1.903263599)
(93.77700831 22.32824322 -2.520202477)
(125.3330578 19.18012151 3.390717809)
(63.45472635 18.35755582 0.1967345263)
(85.91584523 26.05470461 2.346891706)
(123.0018645 14.16364714 8.294822529)
(108.7244267 12.47886113 -3.254531686)
(48.92824789 4.478834281 0.9562562471)
(68.47561553 1.615289892 -5.498226749)
(82.09716235 6.44084699 4.286118858)
(84.23527219 16.88230304 -0.3563577747)
(65.70378585 9.451591949 -4.570190889)
(47.79203957 20.97626673 -5.267453392)
(34.73603965 9.743836509 -1.044078931)
(64.88517514 16.51032873 2.948469973)
(56.83253006 9.717353042 -5.717401057)
(62.11231528 12.38656216 -0.6422523497)
(32.62133535 9.575358018 3.120542746)
(35.00860268 2.21359401 -8.309155549)
(28.67867509 10.9763542 0.4243647946)
(49.73247811 -3.474734163 3.554602569)
(31.17937035 14.37849282 -2.016706588)
(42.71966298 8.738853847 0.6155458372)
(39.37043213 9.860984494 3.077580226)
(24.55656721 18.45885111 -4.621142144)
(51.01736649 11.62389194 -0.08365894459)
(15.83940722 7.625961831 9.580193156)
(91.4255637 4.664085031 -0.3981298987)
(99.02941197 15.25779235 0.8020097136)
(80.29463832 8.463155471 6.606790659)
(51.9418508 10.54743584 0.8024697475)
(81.27136737 7.610010922 1.95435007)
(118.4358718 22.7699729 7.388637955)
(101.7747417 14.36441384 3.591097145)
(77.68724447 14.30684896 0.3294022428)
(75.49604502 14.51334734 0.6043970715)
(128.257985 24.19896051 0.4301483331)
(135.6568075 30.68769832 0.7259032784)
(69.31368238 13.48822421 5.416645566)
(60.07654004 13.97489531 -3.817963637)
(82.41891293 20.87205566 -2.0421072)
(96.55891017 18.03020651 -0.714406559)
(66.65439962 15.74448582 -0.9193421711)
(57.55586017 4.9372284 -1.724467261)
(49.95858971 7.872957617 10.28443523)
(48.19051068 8.227580976 -5.750526948)
(69.07480635 12.67442477 1.619282053)
(37.01195727 7.239898943 -8.096197108)
(73.442137 12.14950221 8.288557055)
(47.29012397 5.826655545 -4.360801508)
(59.1142335 9.46293476 -4.483922521)
(95.37930405 16.55747711 -2.426351051)
(43.62015332 0.9519102263 -0.8730068848)
(29.53398843 3.670664725 3.854855131)
(25.64070722 6.486255128 1.70504788)
(58.93614111 4.8226779 7.168300536)
(24.19557249 10.84304623 5.257360284)
(87.28240409 14.38640527 6.586263391)
(97.1134793 9.611599722 -3.175654869)
(60.80642226 5.808678973 -6.783244619)
(84.35088802 20.14196953 6.441467373)
(65.41467261 10.38722825 -5.440591061)
(64.85630422 11.87002974 -4.461089427)
(114.2967317 21.63909198 -1.192456486)
(114.933763 27.75981701 1.344192728)
(109.8184067 28.92603187 5.257753427)
(144.3931443 31.98711116 3.329371578)
(112.5874035 23.84979737 -9.402211893)
(115.1739509 27.00072281 -0.5374229428)
(49.98772087 13.66274127 -2.894013913)
(92.04192032 19.83868134 0.6879906513)
(45.54471389 5.079581654 -5.117836845)
(64.68983748 16.91064031 1.485541557)
(94.9023916 16.22687312 6.160256159)
(72.5835727 17.90162139 1.106214711)
(82.31883588 9.451853496 2.522815565)
(115.6106532 23.6415908 5.879790334)
(136.3386491 30.85396989 2.603405635)
(95.41012003 25.11938757 -7.256064716)
(79.37959709 17.58182141 -1.17804609)
(68.91581663 23.73792748 -0.8737553623)
(64.10956812 14.43402892 7.439425628)
(99.15701896 8.968589559 8.098292311)
(52.70568106 14.04143353 4.110283803)
(61.48711714 8.643421907 -6.571281362)
(27.81509149 8.467877225 2.644765096)
(44.91980669 11.75039598 0.7831151562)
(67.07949908 8.345697381 3.830185581)
(82.05855647 11.11568493 1.312831818)
(96.17046046 14.10282773 -6.698199914)
(40.28673046 5.729576905 3.403438443)
(136.2566038 16.60173489 1.736342181)
(84.83905649 14.0368969 -5.535822819)
(37.14647293 4.185240022 0.4064269298)
(96.22127487 13.66909274 -3.483719907)
(74.54988828 14.32392646 1.548950887)
(81.14070525 15.56317788 3.596580765)
(50.30428653 4.213540129 4.87864599)
(102.7090283 22.35727306 1.117842518)
(97.14865301 28.17026244 3.874352279)
(49.48902939 6.047543865 -4.961329941)
(131.0960271 27.0541512 10.07160258)
(89.56074712 15.98715399 6.499848216)
(146.2406337 32.41540191 1.167472149)
(119.8655335 14.15433393 11.54380532)
(56.7695421 9.238950193 -5.646767274)
(74.8845129 13.30828332 -4.535141282)
(43.7258378 7.018627695 -3.40422162)
(74.73300272 21.37477444 -4.535810663)
(141.1669578 31.05444003 -8.832456664)
(53.48697165 16.75077056 -3.915308534)
(76.70934013 16.6285506 14.00231403)
(41.19273346 4.930796008 3.827995541)
(64.14565014 8.728666439 2.601466501)
(34.10803061 9.536996429 -2.217303965)
(93.05209549 18.71972877 8.713727652)
(53.04994588 17.71790249 2.883359237)
(52.41427099 7.269108166 -1.82405037)
(84.2671307 12.94391677 -5.682361261)
(101.5268719 14.44369432 3.643709454)
(79.7448583 7.606268339 7.239800822)
(62.99267833 5.693533248 3.308933487)
(125.4778039 28.43413671 0.07169405619)
(83.61336281 13.12642044 -2.396741308)
(113.243662 17.2246875 6.749378521)
(101.4871734 22.34869284 -1.700315571)
(102.8624551 23.69381453 3.52227343)
(109.0050583 24.41638634 4.354476679)
(109.8167493 33.52942736 6.012638691)
(97.8461517 19.73189664 6.109268019)
(95.50264265 27.29002182 -2.654701114)
(119.7136776 28.7596314 1.662477121)
(73.9741421 15.41603733 -1.116325558)
(86.08523178 15.90594468 -6.230042511)
(144.7212976 25.08991366 3.554779143)
(122.8504791 22.02874626 8.166987185)
(64.82549929 9.69937332 -6.027258917)
(85.96922553 16.92136451 -0.06082006269)
(104.2368018 25.67378198 0.2474377382)
(101.4637291 13.23990874 2.447000887)
(65.72171782 17.42738743 -0.4207118268)
(32.40594676 3.333736118 4.40551889)
(73.81841984 18.00616969 -10.60059372)
(58.56254842 8.293730054 -1.298874725)
(90.48688876 24.96650142 -13.69472455)
(75.3592656 14.31358545 -10.92138909)
(43.06239541 16.36268695 -2.082353078)
(60.76111678 15.25983403 -1.905643686)
(77.75831182 8.543735245 7.550836688)
(68.35210595 1.166890925 5.199723531)
(64.4005664 4.069363206 3.671869743)
(101.025985 12.0452921 -1.664326067)
(69.37260841 10.25668858 1.305185914)
(106.3249535 11.34317798 1.485988678)
(133.4162651 14.65910803 5.195908137)
(99.62673563 15.2001195 -1.840623707)
(127.8927634 22.72419109 1.172818881)
(68.59872988 16.31016855 -0.3044674562)
(104.6794935 28.36355339 -3.443873565)
(95.15623091 17.12139443 -5.141967912)
(107.4260199 23.27781812 -1.583633672)
(156.7578648 40.21271615 -5.110107091)
(123.7976955 38.60853624 -4.953046312)
(153.1264615 21.02172695 -6.931031955)
(118.6250386 18.95993615 -0.5549464663)
(75.11801506 12.44563713 4.738893268)
(81.31151815 21.36194681 2.316561927)
(149.9198688 37.51834842 -5.934799692)
(84.22026468 19.60675068 0.4574447533)
(91.19727351 18.8137371 -0.5320085962)
(106.08598 36.64371879 1.275838904)
(116.7594041 24.28814274 -1.152059832)
(133.0434276 31.50216281 -7.899590579)
(79.18456402 14.45183597 -6.723795455)
(65.72217897 11.31482335 4.759747493)
(126.906099 17.35453024 -2.909021842)
(79.74464663 20.51300298 -4.765987643)
(85.67843148 7.121140842 2.537717454)
(107.9067517 6.787492407 -0.3020502131)
(73.49136517 17.49666126 -3.237682198)
(116.1889163 19.43288651 -0.9542009618)
(62.47856077 7.26593913 0.4256430325)
(69.04852924 7.92797676 -0.4621759057)
(111.8202631 12.14437994 -4.035460901)
(100.3924948 21.5868714 -8.152971757)
(57.02048491 12.29753863 -0.3955043351)
(108.1750213 14.5694771 0.03004214723)
(84.60207564 14.83839813 -1.670389167)
(61.72752019 16.72199382 -0.5057212981)
(107.1989496 20.00044579 -1.111576732)
(84.65528098 16.46180859 -0.539704042)
(107.21602 16.1218953 0.6436645727)
(103.3971174 19.41370863 -2.550522725)
(106.0063306 18.24177596 0.566573636)
(137.2689001 17.2952057 -7.689079933)
(110.3845177 10.93046519 0.3322233419)
(180.8455321 36.90109919 -3.37179767)
(70.66633426 13.20261547 -4.030899358)
(95.97846708 24.63387858 -0.2501555937)
(71.96429565 14.63320455 -5.31954281)
(61.43286967 10.69763327 2.079896202)
(94.60863063 10.19191735 2.335914368)
(134.5678163 28.72905478 2.616046945)
(70.5295679 8.698451524 2.459413513)
(45.44839805 15.34671649 -5.365710924)
(120.6120437 35.08555333 -3.247403598)
(92.58409267 16.61878365 -1.024035409)
(61.13241197 10.06768363 0.2021250868)
(59.58595021 5.301656125 -0.9206688835)
(120.1504061 26.00799254 2.797208634)
(86.03786605 11.2732091 -6.305359556)
(43.06989209 4.34741792 -3.30423997)
(83.45004875 10.51353873 -7.095759878)
(115.4244835 16.80603 3.019034841)
(79.1181474 13.42623399 -0.7182273677)
(75.22311649 17.69298384 -0.00426742017)
(56.56688048 15.18227624 0.441030437)
(45.35862113 6.94241702 -3.001186)
(92.20839967 14.48626861 -1.860587781)
(69.70796067 9.001203265 1.833891741)
(68.14197804 10.87268351 -0.00636724768)
(85.89920756 10.65892938 -1.991188335)
(84.94117818 4.841945514 0.1117437061)
(48.36852175 16.26162015 -1.626452354)
(121.4230924 28.6705583 0.7044981744)
(86.43084598 19.40067118 -5.341555011)
(110.7208875 12.42701379 -0.4790100658)
(88.35259837 19.6336817 4.94412785)
(114.6666329 24.85291764 1.889774132)
(85.42042436 17.34850243 -0.1974212201)
(87.35984878 12.76518629 -6.061919429)
(115.2436729 18.54820518 2.112904312)
(105.2255214 17.23418524 0.8542325849)
(134.3101954 22.03952466 -3.740098914)
(119.2519408 23.18617955 -10.4925708)
(122.8665527 25.97167538 9.472321251)
(108.106209 29.8774891 4.232964805)
(72.24263881 10.10974961 -3.78627958)
(45.58487789 12.04223088 2.614004867)
(115.8284093 7.00809652 3.641738123)
(66.69372483 15.27144605 -0.2496010997)
(54.31944198 9.423734945 -1.840040249)
(84.30198836 17.09558818 2.420009301)
(89.31514361 12.02975891 1.878465673)
(72.83257651 8.190483092 2.846068923)
(72.7076984 15.81411318 1.109529867)
(104.5320229 12.63667288 1.616927017)
(149.0491623 22.50762753 -3.153005768)
(120.6131585 12.55187322 -11.44696223)
(80.0712543 8.270239426 -3.81513983)
(104.2133247 11.83922098 1.328464682)
(148.7760416 26.18606099 -0.3962662288)
(96.32214337 28.86057036 2.994880973)
(170.1934153 41.91346915 3.704072707)
(140.7575378 26.23679063 -1.89383569)
(64.11745549 4.536309327 -3.396695857)
(129.9915948 15.83552666 2.272221353)
(95.32742483 18.82909741 3.230294798)
(119.1199889 27.21995077 -2.870641391)
(112.4339856 29.40973655 10.26905747)
(158.3764725 28.86518094 10.4448743)
(131.4423621 31.55109137 -7.859722526)
(155.7616494 37.64140096 4.476053916)
(142.798797 35.17975237 -0.1527191233)
(123.2226323 10.78958964 1.033479964)
(120.0556541 21.53422538 -3.911785107)
(106.7492417 17.0593964 -3.736155082)
(114.5944622 14.73387973 -1.081517963)
(110.2710372 15.74071572 3.617015556)
(97.86105504 8.597228714 -4.06734274)
(69.63540157 9.005929544 -2.924123937)
(103.1625224 16.68671777 5.246429807)
(57.61106073 12.14797726 6.084387943)
(128.2584221 13.29810972 -6.185756988)
(58.3656053 6.721356161 1.35815476)
(158.6016308 22.6485669 -3.465558802)
(126.5393968 14.84033744 3.562337797)
(97.37235415 9.782467756 0.6808190634)
(66.14396777 18.44579555 0.9232478004)
(68.45046361 11.66777599 -1.867603162)
(87.33411151 17.37608193 -6.715695888)
(96.35441514 13.54721839 3.41399392)
(106.6311569 14.43136121 -2.99961214)
(78.34919354 11.44937755 2.019779584)
(61.54180933 18.69245574 1.55810418)
(63.23041147 10.97704131 1.888450392)
(118.7107405 24.65489977 -3.54256486)
(95.84829538 35.22370747 -11.06772396)
(96.9410482 21.98318059 -7.675748988)
(125.1585325 23.1228886 1.082102554)
(105.0034512 27.81783483 -4.636356708)
(136.793378 29.90693153 3.986160329)
(57.01670456 7.561218577 0.4164833205)
(167.2473766 37.10123052 3.86362545)
(118.8605896 22.46783386 -3.639006488)
(112.1582801 14.23854492 12.30802193)
(127.1990766 33.25332829 10.0098084)
(99.67645939 13.19025633 -2.099366846)
(106.0328878 14.93889121 5.070190197)
(110.665635 12.73519914 1.685960272)
(63.75394689 12.33859984 -3.71885444)
(85.13522661 17.26640387 2.150891098)
(75.08426172 10.49270995 -2.841891237)
(78.57805763 6.025110397 -3.875486593)
(111.9041674 15.03319503 6.797770919)
(62.53259317 3.195682341 -2.437677498)
(121.4107133 13.1701899 -3.971042375)
(90.97790202 7.998603843 2.579999788)
(64.95723487 9.597087457 2.12940558)
(66.33279803 7.536726513 2.919093081)
(75.24959533 14.02985209 4.507392957)
(88.94972178 16.01287895 -4.466163111)
(102.2174001 3.879178765 0.1791315507)
(62.03606913 11.6666548 -3.029961612)
(76.79506341 16.76504631 2.298999083)
(115.3161352 19.09314979 9.094246941)
(77.1778831 13.98895298 -2.976687924)
(139.6129792 25.08265465 -2.845053725)
(66.10817346 14.36766782 3.566432682)
(50.68706715 4.367221548 0.2304591334)
(134.1282908 19.52354638 -3.787394692)
(124.2215399 22.17078374 12.55539068)
(86.14654799 11.68343301 6.143950403)
(111.3857955 22.59014835 5.814819191)
(92.18841384 16.98760033 12.43589147)
(105.7005321 22.73431431 4.73780701)
(85.29230919 25.4405289 1.874152756)
(97.56847661 12.58830401 -6.158278372)
(50.30645206 5.125417674 -5.746756416)
(111.1810139 28.14604218 -4.617140973)
(97.36627404 14.5107734 -2.136001979)
(57.20269939 2.192610505 -3.571104827)
(67.32737145 10.69166835 1.246763752)
(77.04984965 18.49248791 0.3626266952)
(126.1415366 20.70820061 0.5640465634)
(82.38762162 18.63588304 3.435705278)
(63.04564156 3.07650024 0.3457594352)
(86.89279151 10.2475513 5.9427018)
(93.91744597 18.4156965 6.295595615)
(62.93074224 4.733989688 0.8316642637)
(108.3315621 20.4875074 0.9585647387)
(85.04824386 8.737930164 4.369313327)
(74.29681339 14.23390763 -6.763271822)
(93.68316204 11.69021215 1.343961185)
(50.37728055 8.914279563 1.137067367)
(57.72057492 8.387602591 -0.1143737088)
(69.80230836 12.26640351 -2.931225926)
(102.725054 15.54164559 3.237485017)
(73.05450994 16.61686933 -4.049391444)
(118.2840493 21.11103099 -9.475245396)
(98.52018579 22.07816114 -0.1760453188)
(133.8111343 29.14409409 -1.350967746)
(92.21129547 23.24829293 2.473943238)
(47.01664392 13.49092947 -7.928287159)
(75.27478204 13.55952589 1.818335229)
(164.5988904 42.05769642 -8.682741563)
(113.758853 20.37739059 0.2352511041)
(94.48083944 15.48841026 -0.4098491448)
(105.9344468 10.32831041 0.5196386931)
(25.56178672 0.9335128495 2.961136003)
(89.26949102 12.24106798 -7.376055317)
(79.73858639 11.37134879 4.065927455)
(90.31556134 18.20287859 -1.457835333)
(50.98397839 9.070621546 5.450828367)
(65.94263812 9.954958356 5.808059597)