/*--------------------------------*- C++ -*----------------------------------*\
| =========                 |                                                 |
| \\      /  F ield         | OpenFOAM: The Open Source CFD Toolbox           |
|  \\    /   O peration     | Version:  v1912                                 |
|   \\  /    A nd           | Website:  www.openfoam.com                      |
|    \\/     M anipulation  |                                                 |
\*---------------------------------------------------------------------------*/
FoamFile
{
    version     2.0;
    format      ascii;
    class       volScalarField;
    location    "0.00018";
    object      rhoM;
}
// * * * * * * * * * * * * * * * * * * * * * * * * * * * * * * * * * * * * * //

dimensions      [1 -3 0 0 0 0 0];


internalField   nonuniform List<scalar> 
1300
(
0.015274
0.00465
0.023912
0.077048
0.052474
0.039186
0.033874
0.02325
0.047824
0.024574
0.0186
0.0093
0.047824
0.101622
0.033212
0.019262
0.067086
0.042512
0.053136
0.038524
0.0093
0.0093
0.0186
0.114248
0.033212
0.039848
0.034536
0.076386
0.010624
0.048486
0.00465
0.00465
0.0093
0.123548
0.043174
0.057124
0.061774
0.067086
0.019924
0.059772
0.00465
1e-277
0.00465
0.10096
0.037862
0.033212
0.061774
0.095648
0.029886
0.071074
1e-277
1e-277
0.024574
0.097634
0.057786
0.028562
0.053798
0.067086
0.066424
0.04185
1e-277
0.0093
0.028562
0.118236
0.035198
0.01395
0.019262
0.057124
0.052474
0.057786
1e-277
1e-277
0.015274
0.104948
0.047162
0.04516
0.0465
0.072398
0.053798
0.053136
0.005312
1e-277
0.015274
0.108274
0.033212
0.0372
0.0651
0.034536
0.053136
0.029224
1e-277
1e-277
0.053136
0.149446
0.028562
0.034536
0.047824
0.083022
0.035198
0.039186
1e-277
1e-277
0.052474
0.056462
0.028562
0.01395
0.0465
0.056462
0.042512
0.067086
0.00465
1e-277
0.038524
0.123532
0.051812
0.0093
0.051812
0.033874
0.033212
0.047824
1e-277
0.005312
0.023912
0.112924
0.029886
0.019262
0.072398
0.057786
0.067748
0.029224
1e-277
1e-277
0.038524
0.071736
0.023912
0.019924
0.043174
0.063098
0.043174
0.049148
1e-277
1e-277
0.038524
0.11491
0.058448
0.014612
0.0186
0.089674
0.061774
0.047824
1e-277
1e-277
0.019262
0.106272
0.023912
0.037862
0.088334
0.063098
0.038524
0.0279
1e-277
1e-277
0.043836
0.11956
0.047824
0.0093
0.067748
0.071074
0.06045
0.052474
1e-277
1e-277
0.033212
0.140146
0.033874
0.009962
0.042512
0.067086
0.023912
0.019924
1e-277
1e-277
0.033212
0.094986
0.039186
0.024574
0.037862
0.047824
0.063098
0.057786
1e-277
1e-277
0.02325
0.081698
0.047162
0.0279
0.042512
0.051812
0.033874
0.04185
0.02735680114
0.02352658521
0.04650787987
0.03447194171
0.0361078142
0.04431353691
0.01532086298
0.03830215713
0.02461716726
0.01586615391
0.02735680092
0.03556252356
0.01969636965
0.01586615378
0.03227759875
0.03501723263
0.03447194142
0.05142867747
0.05908910896
0.04705317041
0.02735680114
0.04322295505
0.03118701663
0.02790209207
0.02790209207
0.01915107857
0.02078695151
0.05634947508
0.05197396798
0.04596258894
0.05142867747
0.01915107857
0.03665310542
0.01149064724
0.01149064714
0.03173230782
0.03884744838
0.04267766377
0.01915107873
0.01203593816
0.04048332084
0.04322295505
0.0235265854
0.01258122899
0.028447383
0.01915107873
0.02461716706
0.01915107873
0.04650787987
0.02790209184
0.03884744838
0.03884744838
0.04759846134
0.0235265854
0.01586615391
0.02681150999
0.04048332117
0.02735680114
0.02407187613
0.02735680114
0.03556252356
0.03939273899
0.03939273931
0.01915107873
0.03665310512
0.01586615391
0.01586615391
0.02844738277
0.04322295505
0.01969636965
0.0432229547
0.02735680114
0.03610781449
0.02790209184
0.02078695151
0.03447194171
0.04213237285
0.02681151022
0.05908910896
0.02407187613
0.03064172596
0.04322295505
0.01915107857
0.02024166058
0.04267766412
0.05471360184
0.0235265854
0.01203593816
0.05634947461
0.03227759875
0.04759846173
0.03665310512
0.0470531708
0.03939273931
0.03884744806
0.03610781449
0.04650787987
0.03173230756
0.03118701689
0.01969636965
0.03447194142
0.02790209207
0.0235265854
0.03064172571
0.03173230782
0.0421323732
0.03993802991
0.03118701689
0.01586615391
0.02735680092
0.01586615391
0.03610781449
0.01969636949
0.02516245819
0.01969636965
0.04705317041
0.03993803024
0.03993803024
0.03556252327
0.0470531708
0.0645551975
0.07221562839
0.05471360229
0.06237403378
0.04267766377
0.03173230782
0.02790209207
0.03556252327
0.03173230782
0.02790209207
0.03336818033
0.03064172596
0.02407187633
0.04868904319
0.04048332117
0.03501723263
0.03064172571
0.02790209207
0.01969636965
0.01258122899
0.028447383
0.02790209207
0.01258122899
0.02735680114
0.03993803024
0.04485882747
0.04322295505
0.03884744838
0.02681150999
0.0235265854
0.06072498175
0.05634947461
0.06400990657
0.03227759875
0.04705317041
0.05525889322
0.05033809561
0.03830215713
0.03064172596
0.02024166058
0.02516245798
0.03501723263
0.04814375266
0.04048332084
0.03173230782
0.05362302043
0.04048332084
0.03227759875
0.04376824598
0.04376824562
0.0755005538
0.03501723263
0.03118701663
0.02078695151
0.02790209207
0.01149064714
0.03064172596
0.03556252356
0.02352658521
0.01586615391
0.05471360229
0.06182874234
0.03556252356
0.0235265854
0.07604584411
0.03665310542
0.05416831136
0.03993802991
0.05471360229
0.05088338654
0.03501723235
0.04322295505
0.02407187633
0.02735680092
0.02298129447
0.06237403378
0.03501723235
0.05470042305
0.0410286121
0.04267766377
0.04814375266
0.03064172596
0.04267766377
0.02681151022
0.06620424952
0.0361078142
0.02681151022
0.03884744838
0.03884744806
0.05963439989
0.07495526287
0.06291932419
0.05854381803
0.04814375266
0.05634947461
0.07386468101
0.04322295505
0.05088338613
0.07495526287
0.06291932471
0.03064172571
0.03884744838
0.0519739684
0.05689476554
0.03830215745
0.0421323732
0.02352658521
0.04814375266
0.03501723263
0.04814375226
0.0235265854
0.02024166058
0.02298129428
0.04322295505
0.02735680114
0.03501723235
0.03556252356
0.03501723263
0.04376824562
0.01969636965
0.05033809561
0.05525889276
0.04650787987
0.03227759875
0.04814375226
0.07440997194
0.05908910896
0.04814375226
0.04322295505
0.07112504713
0.08479685738
0.04322295505
0.03610781449
0.04868904319
0.05744005694
0.04485882784
0.03556252327
0.03118701689
0.03064172596
0.04705317041
0.02735680114
0.05142867747
0.03173230756
0.03993803024
0.06784012231
0.03719839605
0.02899267393
0.0235265854
0.04923433411
0.02298129447
0.05033809561
0.05634947461
0.03610781449
0.05088338654
0.03556252327
0.03939273931
0.07003446527
0.07057975562
0.06838541324
0.09027612585
0.07003446469
0.07167033806
0.03064172596
0.06182874234
0.02735680114
0.03939273931
0.05634947461
0.04596258894
0.06291932471
0.07824018705
0.09136670771
0.05908910896
0.05525889276
0.05088338654
0.04759846173
0.07057975562
0.03665310542
0.05142867747
0.02735680092
0.03993803024
0.04267766412
0.0432229547
0.05471360229
0.02407187633
0.07659113503
0.05088338654
0.02407187633
0.05471360184
0.05142867747
0.0519739684
0.03118701663
0.06674954045
0.05908910896
0.03064172571
0.07878547862
0.05033809561
0.08207040276
0.06565895859
0.03118701689
0.04376824562
0.02735680114
0.05142867747
0.09465163175
0.03556252356
0.0519739684
0.02681150999
0.0470531708
0.03064172596
0.0667495399
0.04157390303
0.03173230782
0.05142867705
0.05854381803
0.04814375266
0.03556252327
0.07167033806
0.05088338654
0.0667495399
0.05689476601
0.06346461564
0.06237403327
0.06400990657
0.06674954045
0.0596343994
0.07604584473
0.04322295505
0.05088338613
0.08207040343
0.06729483138
0.0361078142
0.04759846173
0.06237403378
0.06127027218
0.04376824598
0.02298129447
0.04650787949
0.03501723263
0.05963439989
0.05142867705
0.03173230782
0.03556252356
0.0432229547
0.03556252356
0.03556252356
0.05799852663
0.0410286121
0.05963439989
0.07550055318
0.05471360229
0.07987606048
0.03993802991
0.06017969082
0.05416831136
0.06237403327
0.09191199864
0.0705797562
0.08699120032
0.06893070417
0.04759846173
0.04759846134
0.09628750532
0.05033809561
0.05799852663
0.06291932471
0.07112504713
0.0864459094
0.0470531708
0.04650787987
0.07878547797
0.05908910896
0.04979280469
0.05908910848
0.03884744838
0.0705797562
0.0361078142
0.03993803024
0.05963439989
0.05525889276
0.04048332117
0.06346461564
0.04814375226
0.03556252356
0.06017969082
0.04814375226
0.06017969082
0.05908910896
0.06346461512
0.07878547862
0.06400990657
0.1105177855
0.04267766412
0.05525889322
0.04705317041
0.03939273931
0.05854381803
0.09136670696
0.04322295505
0.03064172596
0.06838541268
0.06729483138
0.03665310542
0.03556252327
0.06838541324
0.05142867747
0.02298129428
0.04431353691
0.0705797562
0.04596258856
0.04322295505
0.03227759875
0.02735680092
0.05471360229
0.04267766412
0.03939273899
0.05088338654
0.05251925933
0.02735680092
0.07112504713
0.05580418415
0.06127027218
0.05306455026
0.06674954045
0.05088338613
0.05088338654
0.06182874285
0.05854381755
0.07933076955
0.07440997194
0.07495526226
0.06620424952
0.03939273931
0.02844738277
0.06620424952
0.03939273931
0.03118701663
0.04650787987
0.04868904359
0.04376824562
0.04322295505
0.06400990657
0.08590061847
0.0705797562
0.04431353691
0.05580418369
0.08535532825
0.05854381803
0.09902713839
0.07987606048
0.03830215745
0.07659113503
0.05963439989
0.0755005538
0.06620424898
0.09136670771
0.07440997194
0.09519692267
0.08699120104
0.07003446527
0.07167033747
0.0645551975
0.06948917434
0.06017969033
0.05908910896
0.04048332117
0.0596343994
0.03610781449
0.07604584473
0.03227759848
0.08973083492
0.0705797562
0.05854381755
0.0421323732
0.03830215745
0.04759846134
0.05525889322
0.06017969082
0.04431353655
0.03501723263
0.03993803024
0.07003446469
0.05471360229
0.06072498175
0.0793307689
0.06565895859
0.08370627622
0.03556252327
0.09793655734
0.0705797562
0.06072498125
0.07495526287
0.06017969082
0.0596343994
0.06400990657
0.03501723263
0.05416831091
0.04267766412
0.04650787987
0.06346461512
0.03665310542
0.07221562899
0.04814375226
0.04376824598
0.03939273931
0.04213237285
0.05251925933
0.05580418415
0.03556252327
0.0470531708
0.06620424952
0.04431353655
0.08370627622
0.03830215745
0.03227759848
0.07878547862
0.06620424952
0.05525889276
0.06291932471
0.05525889322
0.06346461512
0.04868904359
0.05963439989
0.02790209184
0.06291932471
0.05580418415
0.03227759848
0.03939273931
0.04650787987
0.07495526226
0.04868904359
0.03830215745
0.05580418369
0.05580418415
0.03556252356
0.06729483083
0.04650787987
0.04322295505
0.05362301999
0.03173230782
0.03556252356
0.04102861176
0.05525889322
0.04267766412
0.06784012176
0.0579985271
0.07659113566
0.05908910848
0.03336818061
0.0470531708
0.09519692267
0.06510048843
0.05525889322
0.05580418369
0.01532086298
0.05525889322
0.04650787949
0.05088338654
0.02790209207
0.0361078142
0.0421323732
0.04267766412
0.05634947461
0.03501723263
0.04759846173
0.03556252327
0.05525889322
0.03173230782
0.03501723235
0.03610781449
0.08260251513
0.03118701663
0.05088338654
0.05033809561
0.05362301999
0.06128345192
0.06948917434
0.01203593807
0.07824018769
0.07221562899
0.04814375226
0.07167033806
0.028562
0.033874
0.052474
0.02325
0.039186
0.034536
0.0186
0.0186
1e-277
0.037862
0.042512
0.019262
0.019924
0.038524
0.067748
0.033212
0.057786
0.0279
0.033212
0.01395
0.025236
0.0186
0.01395
0.057124
0.033874
0.034536
0.043174
0.023912
0.0093
0.019262
0.048486
0.03255
0.02325
0.0186
0.052474
0.025236
0.014612
0.02325
0.028562
0.014612
0.049148
0.039186
0.028562
0.038524
0.028562
0.047162
0.024574
0.043174
0.019262
0.023912
0.047824
0.038524
0.029224
0.039186
0.03255
0.014612
0.029224
0.014612
0.005312
0.029224
0.037862
0.01395
0.0372
0.0186
0.028562
0.028562
0.04185
0.033874
0.015274
0.028562
0.047824
0.023912
0.051812
0.0186
0.01395
0.028562
0.019262
0.0093
0.014612
0.009962
0.0279
0.057786
0.01395
0.019262
0.01395
0.03255
0.03255
0.01395
0.01395
0.028562
0.037862
0.043836
0.029224
0.043836
0.0465
0.042512
0.042512
0.037862
0.030548
0.015274
0.053798
0.038524
0.053798
0.029886
0.037862
0.033212
0.042512
0.00465
0.019262
0.01395
0.043174
0.058448
0.048486
0.029886
0.033212
0.023912
0.034536
0.019924
0.023912
0.053136
0.043836
0.06841
0.067748
0.039186
0.061112
0.053798
0.0279
0.065084
0.053136
0.0186
0.063098
0.066424
0.051812
0.0279
0.033212
0.06045
0.029224
0.049148
0.034536
0.023912
0.043174
0.051812
0.067748
0.05115
0.064422
0.071736
0.00465
0.048486
0.077048
0.0558
0.065762
0.03255
0.057124
0.067086
0.07771
0.086348
0.035198
0.053136
0.052474
0.07306
0.067086
0.059772
0.0372
0.081036
0.062436
0.0651
0.098958
0.061774
0.057124
0.076386
0.03255
0.071074
0.04051
0.053136
0.075724
0.0744
0.09166
0.066424
0.023912
0.07771
0.071736
0.076386
0.06376
0.06841
0.058448
0.075724
0.052474
0.075062
0.09631
0.05911
0.058448
0.114248
0.038524
0.071074
0.071074
0.067748
0.067748
0.073722
0.069072
0.067748
0.01905805075
0.04666264045
0.03811610149
0.004600765028
0.04206187547
0.03811610149
0.01380229508
0.04797262171
0.03286034583
0.01445728572
0.04337185673
0.03942608276
0.03286034583
0.04206187547
0.02365881577
0.04862761282
0.02365881554
0.02300382514
0.04206187589
0.03746111049
0.04206187589
0.01905805075
0.03811610112
0.05717415224
0.04271686652
0.03942608237
0.01840306011
0.04271686652
0.04206187547
0.0282595808
0.03732567543
0.05534710473
0.02703214475
0.04183103289
0.06628204317
0.0604938706
0.03796708331
0.02831496024
0.0508417478
0.03153750221
0.03668426719
0.01866283771
0.04247244076
0.05276597093
0.03732567543
0.03668426755
0.01802142966
0.04955893204
0.07529275873
0.0463363899
0.04633639034
0.05148315568
0.02831496024
0.01866283771
0.01866283771
0.03668426719
0.02767355263
0.05985246272
0.04569498202
0.05340737932
0.03152516248
0.04223794613
0.03152516248
0.02206913247
0.03278191621
0.01324147948
0.04918046846
0.06367870138
0.05800812145
0.02332588651
0.04728014959
0.05422267197
0.05737974443
0.03152516218
0.03593898898
0.0504372225
0.04413826453
0.04035281547
0.03152516248
0.06746415082
0.02269750949
0.02269750949
0.04728014959
0.04728015004
0.05485104899
0.04035281509
0.036567366
0.064307079
0.04539501855
0.036567366
0.03583925473
0.05004880614
0.0265715085
0.053143017
0.04449113545
0.06302662832
0.03645511982
0.03583925439
0.05004880661
0.03151331416
0.03522338931
0.01915135754
0.04449113587
0.02595564317
0.05746895757
0.03522338964
0.02224556773
0.03212917925
0.05746895757
0.02595564317
0.06612083871
0.04943294152
0.03583925439
0.01853549245
0.03151331416
0.05252715143
0.04387527078
0.05191128683
0.06241076265
0.02224556793
0.03877721747
0.004241486159
0.02665660057
0.04846787325
0.03817337544
0.02665660057
0.06907146255
0.03513957265
0.03089808677
0.03089808677
0.04786403113
0.03453573128
0.03089808677
0.05634700344
0.02605275888
0.03453573128
0.04119258386
0.01696594479
0.04786403156
0.02665660033
0.04362254536
0.02726044226
0.04846787281
0.03453573128
0.05270935945
0.04786403113
0.06179617354
0.04726018987
0.05755468682
0.04301870367
0.03149097881
0.03981151095
0.04278722003
0.05110775253
0.03387440846
0.03803467501
0.03328213
0.0463552071
0.03505896629
0.04694748628
0.05051547331
0.02971414251
0.02198588878
0.04456405593
0.01723334376
0.02614615503
0.03744239591
0.02080133125
0.04931660134
0.02971414225
0.03505896629
0.06477310881
0.06774881692
0.06774881753
0.03030642128
0.03089869977
0.02733071256
0.05051547376
0.04278721965
0.02614615503
0.02973698957
0.02857468861
0.02973698957
0.01224629522
0.03323793733
0.03031813992
0.02157279275
0.01690954384
0.04664653355
0.01690954399
0.04256443477
0.01632839363
0.02973698957
0.02915583896
0.01282744558
0.03323793762
0.04140213407
0.03031813992
0.06063627984
0.03323793733
0.03732003603
0.05014748161
0.05130978186
0.03440023833
0.05072863196
0.03381908768
0.04664653355
0.03381908797
0.05014748117
0.02041049204
0.01259087384
0.03032942605
0.02461131526
0.05379987674
0.05837712246
0.02804769665
0.01602725523
0.02918856123
0.06295436919
0.04635668154
0.02003406886
0.04006813807
0.02804769665
0.033195375
0.03319537529
0.04979306293
0.02117493368
0.05780669054
0.03205451045
0.03663175636
0.04692711396
0.0412090029
0.04865219768
0.05437030915
0.0412090029
0.05437030869
0.03720218909
0.02060450145
0.0497930625
0.03319537529
0.03259425179
0.02472573996
0.05338573615
0.01292297274
0.03259425152
0.055639684
0.02023138171
0.02360553466
0.03764871291
0.01685722855
0.02416563731
0.03315435445
0.03259425179
0.03147404622
0.03259425179
0.03990266076
0.03708860994
0.01967127905
0.03764871291
0.01573702311
0.02416563752
0.02809989333
0.04889137728
0.0162971259
0.01180276743
0.03259425152
0.05731999196
0.02809989333
0.04945147993
0.0365285076
0.01214297714
0.03146437152
0.02428595428
0.03919292964
0.03587879077
0.02815023321
0.02760009285
0.01987153483
0.04305720857
0.02042167535
0.03587879077
0.01932139464
0.02428595428
0.01545711559
0.04747162785
0.02538623499
0.02428595408
0.04250706821
0.03146437178
0.04802176781
0.02760009285
0.03587879107
0.03477851007
0.0270499525
0.01214297714
0.05243618705
0.02428595428
0.04029321035
0.007728557793
0.02870037356
)
;

boundaryField
{
    inlet
    {
        type            zeroGradient;
    }
    outlet
    {
        type            zeroGradient;
    }
    wall
    {
        type            calculated;
        value           uniform 1e-300;
    }
    frontAndBack
    {
        type            empty;
    }
}


// ************************************************************************* //
