/*--------------------------------*- C++ -*----------------------------------*\
| =========                 |                                                 |
| \\      /  F ield         | OpenFOAM: The Open Source CFD Toolbox           |
|  \\    /   O peration     | Version:  v1912                                 |
|   \\  /    A nd           | Website:  www.openfoam.com                      |
|    \\/     M anipulation  |                                                 |
\*---------------------------------------------------------------------------*/
FoamFile
{
    version     2.0;
    format      ascii;
    class       volScalarField;
    location    "3.1";
    object      p;
}
// * * * * * * * * * * * * * * * * * * * * * * * * * * * * * * * * * * * * * //

dimensions      [1 -1 -2 0 0 0 0];


internalField   nonuniform List<scalar> 
1900
(
19759.4
11799.6
11210.2
11296.4
11365.2
11437.2
11506.5
11576.9
11639.5
11700.7
19759.4
11799.6
11210.3
11296.5
11365.6
11437.4
11504.1
11560.1
11590.1
11624.9
19759.4
11799.6
11210.3
11296.2
11364.7
11436.1
11503.8
11564
11603.4
11615.6
19759.4
11799.6
11210.3
11296.5
11365.6
11437.4
11504.1
11560.1
11590.1
11624.9
19759.4
11799.6
11210.2
11296.4
11365.2
11437.2
11506.5
11576.9
11639.5
11700.7
11529
11542
11413.5
10921.5
9102.86
11597
11588.5
11407.5
11115.7
10118.3
11570.7
11537.9
11337
10952.4
9901.28
11597
11588.5
11407.5
11115.7
10118.3
11529
11542
11413.5
10921.5
9102.86
12090
11852.3
12057.3
12049.4
11778.8
11915
11834.6
12107.3
12120.9
11606
11899.9
11848.6
12059
12027.4
11259.3
11915
11834.6
12107.3
12120.9
11606
12090
11852.3
12057.3
12049.4
11778.8
9293.55
4056.98
4325.62
4444.36
4223.84
4037.14
3979.06
3993.78
4028.16
4096.13
4193.29
4314.72
4454.41
4602
4742.66
4861.53
4949.16
5006.2
5033.99
5045.97
5040.66
5017.27
4977.17
4905.07
4798.9
4656.6
4486.09
4300.85
4114.87
3938.3
3776.26
3629.4
3494.96
3370.49
3255.71
3164.61
3097.71
3057.8
3097.93
18267.9
9538.36
4359.98
4517.89
4488.16
4245
4044.22
3983.39
3997.1
4031.11
4098.51
4195.58
4316.93
4456.6
4604.14
4744.71
4863.49
4951.04
5008.01
5035.77
5047.73
5042.42
5019.03
4978.96
4906.89
4800.77
4658.49
4488
4302.75
4116.73
3940.12
3778.03
3631.14
3496.68
3372.11
3257.19
3166.03
3098.86
3059.39
3105.9
18359.4
9166.11
4784.1
4639.17
4521.73
4257.87
4048.35
3985.73
3999.15
4032.73
4099.86
4196.8
4318.05
4457.65
4605.12
4745.63
4864.33
4951.83
5008.77
5036.5
5048.45
5043.14
5019.76
4979.7
4907.66
4801.58
4659.35
4488.91
4303.71
4117.75
3941.2
3779.18
3632.37
3498.02
3373.57
3258.73
3167.72
3100.64
3061.49
3110.66
18607.2
9538.36
4359.98
4517.89
4488.16
4245
4044.22
3983.39
3997.1
4031.11
4098.51
4195.58
4316.93
4456.6
4604.14
4744.71
4863.49
4951.04
5008.01
5035.77
5047.73
5042.42
5019.03
4978.96
4906.89
4800.77
4658.49
4488
4302.75
4116.73
3940.12
3778.03
3631.14
3496.68
3372.11
3257.19
3166.03
3098.86
3059.39
3105.9
18359.4
9293.55
4056.98
4325.62
4444.36
4223.84
4037.14
3979.06
3993.78
4028.16
4096.13
4193.29
4314.72
4454.41
4602
4742.66
4861.53
4949.16
5006.2
5033.99
5045.97
5040.66
5017.27
4977.17
4905.07
4798.9
4656.6
4486.09
4300.85
4114.87
3938.3
3776.26
3629.4
3494.96
3370.49
3255.71
3164.61
3097.71
3057.8
3097.93
18267.9
10298.8
3460.9
4055
4228.58
4119.38
3995.24
3955.18
3973.85
4011.73
4082.75
4180.66
4302.52
4442.42
4590.34
4731.43
4850.74
4938.76
4996.12
5024.1
5036.22
5030.93
5007.45
4967.24
4894.95
4788.6
4646.15
4475.58
4290.36
4104.5
3928.11
3766.2
3619.46
3485.1
3361.04
3246.92
3156.11
3089.91
3048.71
3065.53
18008.6
11124.4
3082.57
3745.9
3880.86
3911.87
3883.01
3881.86
3911.43
3965.16
4041.85
4142.27
4265.32
4406.16
4555.31
4697.82
4818.53
4907.78
4966.12
4994.71
5007.25
5002.02
4978.27
4937.66
4864.71
4757.66
4614.55
4443.46
4257.97
4072.04
3895.66
3733.65
3586.56
3451.77
3327.35
3213.97
3122.35
3055.26
3011.06
2977.74
17309.9
11635.3
2928.78
3458.92
3620.34
3706.43
3737.98
3774.42
3823.32
3887.42
3972.66
4076.3
4201.24
4343.55
4494.47
4638.95
4761.65
4852.63
4912.39
4941.84
4955.01
4949.83
4925.64
4884.43
4810.57
4702.58
4558.63
4387.06
4201.4
4015.77
3839.69
3677.82
3530.54
3395.56
3270.74
3158.58
3065.21
2996.25
2948.63
2853.78
16339.5
12516.2
2799.34
3230.83
3402.32
3503.41
3572.3
3632.98
3700.55
3775.91
3867.49
3974.76
4101.76
4246.08
4399.05
4546.08
4671.22
4764.46
4826.04
4856.65
4870.64
4865.52
4840.75
4798.75
4723.74
4614.59
4469.81
4297.63
4112.37
3927.07
3751.85
3590.39
3442.81
3308.12
3182.7
3071.69
2975.3
2903.42
2851.89
2701.08
15245
11659.6
2655.82
3022.92
3187.62
3299.82
3390.56
3467.11
3547.22
3630.76
3726.32
3836.24
3964.92
4110.4
4265.49
4414.48
4542.16
4637.59
4701.09
4732.96
4747.88
4742.8
4717.37
4674.52
4598.38
4488.34
4342.78
4171.23
3986.3
3803.33
3629.18
3469.17
3322.51
3189.24
3064.25
2954.97
2856.74
2781.92
2727.06
2540.82
14126.2
11303.1
2515.81
2829.43
2982.36
3100.97
3200.78
3287.08
3373.85
3461.28
3558.39
3669.34
3797.89
3944.34
4099.2
4249.87
4378.82
4476.12
4541.18
4574.19
4589.99
4584.96
4558.97
4515.41
4438.6
4328
4183.3
4012.32
3831.27
3650.33
3480.5
3323.66
3179.26
3049.94
2928.07
2821.43
2723.83
2645.87
2587.04
2394.53
12981.7
10883.9
2381.78
2651.85
2792.59
2914.16
3016.5
3106.56
3194.78
3282.3
3378.64
3488.95
3617.23
3761.33
3916.21
4065.48
4195.22
4293.08
4359.17
4392.95
4409.5
4404.55
4378.24
4334.44
4257.54
4147.91
4004.2
3837.73
3659.46
3485.78
3320.1
3168.67
3029.56
2905.38
2788.36
2685.66
2590.38
2509.82
2448.08
2265.47
11901.7
10248.4
2251.73
2488.66
2618.14
2739.44
2841.66
2932.64
3019.08
3105.09
3200.41
3309.72
3435.78
3579.04
3730.2
3878.86
4007.07
4105.06
4171.37
4205.58
4222.69
4217.93
4191.61
4148.07
4072.07
3963.66
3823.72
3660.09
3489.68
3320.63
3162.35
3017.21
2882.53
2764.65
2652.93
2553.72
2460
2378.12
2314.4
2144.56
10826.3
9622.09
2133.28
2347.81
2465.72
2584.2
2683.92
2773.2
2855.41
2938.77
3031.7
3140.12
3264.59
3404.4
3553.94
3699.37
3826.86
3924.01
3990.34
4024.72
4042.34
4037.87
4011.77
3968.87
3893.96
3787.92
3650.33
3492.74
3326.71
3165.86
3013.58
2874.24
2746.13
2633.6
2527.06
2431.71
2339.89
2257.93
2193.31
2035.66
9843.96
8946.79
2021.95
2216.84
2324.93
2437.47
2533.67
2620.9
2699.85
2781.4
2874.56
2981.08
3104.97
3242.58
3389.33
3533.12
3659.25
3756.07
3822.41
3857.01
3875.25
3871.16
3845.29
3803.06
3729.26
3624.79
3490.3
3336.26
3176.13
3021.03
2873.79
2741.51
2616.58
2509.43
2406.75
2314.01
2223.15
2141.11
2076.01
1929.5
8878.43
8280.63
1922.35
2103.53
2204.81
2309.11
2401.78
2486.28
2562.17
2642.38
2732.51
2839.14
2959.69
3095.47
3238.73
3380.57
3505.5
3602.23
3668.88
3703.98
3723.05
3719.41
3693.63
3651.84
3578.78
3475.52
3343.53
3193.17
3038.76
2888.77
2748.48
2620.7
2501.78
2398.63
2300.19
2210.32
2120.6
2038.77
1973.22
1836.72
8006.53
7590.36
1830.18
1996.25
2091.8
2186.21
2275.64
2356.64
2430.67
2510.13
2600.01
2705.55
2825.27
2958.18
3099.31
3239.02
3363.73
3460.78
3528.19
3564.01
3584.19
3581.04
3555.16
3513.59
3440.7
3338.12
3207.3
3060.67
2910.03
2766.23
2629.46
2507.47
2392.05
2293.16
2197.85
2109.98
2020.67
1938.99
1873.73
1746.58
7169.85
6918.98
1744.59
1897.72
1988.14
2077.34
2164.6
2242.58
2316.04
2395.75
2484.68
2589.41
2706.91
2836.33
2973.81
3110.19
3233.05
3329.51
3397.32
3433.89
3455.34
3452.74
3426.6
3385.25
3312.82
3211.57
3083.39
2941.11
2795.67
2657.61
2525.76
2408.42
2297.11
2200.82
2107.93
2021.41
1932.61
1850.84
1785.31
1666.52
6420.9
6242.04
1665.51
1805.26
1889.17
1973.11
2058.85
2133.01
2206.34
2286.02
2374.46
2478.34
2593.29
2720.03
2853.75
2987.9
3110.06
3207.17
3275.76
3312.99
3335.69
3333.63
3307.27
3266.21
3193.85
3092.71
2966
2827.02
2686.55
2553.51
2426.1
2313.24
2204.89
2111.19
2020.31
1934.73
1846.21
1764.67
1699.86
1589.47
5705.15
5620.33
1588.5
1715.27
1792.44
1872.73
1956.5
2029.91
2103.77
2184.35
2273.96
2378.21
2491.7
2617.35
2748.74
2881.56
3002.45
3098.91
3166.76
3203.65
3226.87
3225.35
3199.41
3159.58
3088.66
2988.87
2863.98
2727.43
2590
2460.14
2335.56
2225.41
2118.93
2026.65
1936.69
1851.29
1763.44
1682.69
1618.92
1517.02
5078.49
4981.58
1517.49
1630.22
1699.21
1774.67
1855.22
1926.87
2002.49
2085.42
2176.46
2283.53
2396.94
2522.97
2653.46
2786.33
2909.55
3009.41
3080.21
3118.74
3143.53
3142.49
3115.86
3075.29
3002.18
2899.84
2773.2
2637.52
2501.4
2373.38
2249.45
2140.08
2033.82
1941.67
1851.44
1766.4
1679.98
1600.99
1539.84
1447.68
4461.22
4506.36
1459.02
1552.96
1609.76
1681.05
1759.22
1832.85
1911.28
1997.39
2090.52
2200
2315.05
2443.86
2577.51
2714.28
2839.84
2943.05
3016.68
3056.62
3082.24
3081.64
3054.87
3013.64
2938.35
2833.36
2704.88
2566.33
2427.41
2298.21
2173.76
2064.61
1958.39
1865.76
1775.27
1690.6
1605.64
1528.64
1474.21
1396.43
4023.92
4023.65
1434
1509.59
1547.04
1612.32
1688.24
1764.43
1845.27
1933.32
2029.06
2139.11
2256.36
2387.1
2524.24
2662.69
2791
2896.7
2972.84
3015.09
3043.64
3043.27
3014
2970.82
2893.24
2785.89
2654.86
2515.19
2373.91
2243.45
2118.22
2008.59
1902.55
1809.42
1719.42
1635.36
1552.54
1481.73
1442.47
1379.25
3638.09
4506.13
1413.48
1449.36
1467.05
1515.63
1580.96
1648.21
1722.07
1801.95
1889.88
1988.77
2095.1
2213.61
2345.31
2503.79
2679.38
2852.39
3001.86
3099.11
3157.88
3157.75
3098.6
3000.89
2850.64
2676.88
2499.54
2339.68
2203.54
2085.07
1971.96
1873.42
1777.39
1693.29
1612.02
1536.71
1463.65
1407.16
1385.02
1353.64
4230.56
40195.1
4307.41
3797.57
4204.8
4664.89
5317
5979.85
6750.41
7554.56
8460.19
9401.68
10446.3
11508.5
12659.1
13797.5
14985.4
16119.7
17183.4
17975.1
18621.2
18622.1
17975.8
17184.3
16120.2
14985.3
13796.1
12657.3
11503.6
10441.1
9390.21
8446.64
7535.59
6724.29
5947.43
5271.2
4607.97
4127.32
3698.84
4169.44
39098.5
40195.1
4307.41
3797.57
4204.8
4664.89
5317
5979.85
6750.41
7554.56
8460.19
9401.68
10446.3
11508.5
12659.1
13797.5
14985.4
16119.7
17183.4
17975.1
18621.2
18622.1
17975.8
17184.3
16120.2
14985.3
13796.1
12657.3
11503.6
10441.1
9390.21
8446.64
7535.59
6724.29
5947.43
5271.2
4607.97
4127.32
3698.84
4169.44
39098.5
4506.13
1413.48
1449.36
1467.05
1515.63
1580.96
1648.21
1722.07
1801.95
1889.88
1988.77
2095.1
2213.61
2345.31
2503.79
2679.38
2852.39
3001.86
3099.11
3157.88
3157.75
3098.6
3000.89
2850.64
2676.88
2499.54
2339.68
2203.54
2085.07
1971.96
1873.42
1777.39
1693.29
1612.02
1536.71
1463.65
1407.16
1385.02
1353.64
4230.56
4023.65
1434
1509.59
1547.04
1612.32
1688.24
1764.43
1845.27
1933.32
2029.06
2139.11
2256.36
2387.1
2524.24
2662.69
2791
2896.7
2972.84
3015.09
3043.64
3043.27
3014
2970.82
2893.24
2785.89
2654.86
2515.19
2373.91
2243.45
2118.22
2008.59
1902.55
1809.42
1719.42
1635.36
1552.54
1481.73
1442.47
1379.25
3638.09
4506.36
1459.02
1552.96
1609.76
1681.05
1759.22
1832.85
1911.28
1997.39
2090.52
2200
2315.05
2443.86
2577.51
2714.28
2839.84
2943.05
3016.68
3056.62
3082.24
3081.64
3054.87
3013.64
2938.35
2833.36
2704.88
2566.33
2427.41
2298.21
2173.76
2064.61
1958.39
1865.76
1775.27
1690.6
1605.64
1528.64
1474.21
1396.43
4023.92
4981.58
1517.49
1630.22
1699.21
1774.67
1855.22
1926.87
2002.49
2085.42
2176.46
2283.53
2396.94
2522.97
2653.46
2786.33
2909.55
3009.41
3080.21
3118.74
3143.53
3142.49
3115.86
3075.29
3002.18
2899.84
2773.2
2637.52
2501.4
2373.38
2249.45
2140.08
2033.82
1941.67
1851.44
1766.4
1679.98
1600.99
1539.84
1447.68
4461.22
5620.33
1588.5
1715.27
1792.44
1872.73
1956.5
2029.91
2103.77
2184.35
2273.96
2378.21
2491.7
2617.35
2748.74
2881.56
3002.45
3098.91
3166.76
3203.65
3226.87
3225.35
3199.41
3159.58
3088.66
2988.87
2863.98
2727.43
2590
2460.14
2335.56
2225.41
2118.93
2026.65
1936.69
1851.29
1763.44
1682.69
1618.92
1517.02
5078.49
6242.04
1665.51
1805.26
1889.17
1973.11
2058.85
2133.01
2206.34
2286.02
2374.46
2478.34
2593.29
2720.03
2853.75
2987.9
3110.06
3207.17
3275.76
3312.99
3335.69
3333.63
3307.27
3266.21
3193.85
3092.71
2966
2827.02
2686.55
2553.51
2426.1
2313.24
2204.89
2111.19
2020.31
1934.73
1846.21
1764.67
1699.86
1589.47
5705.15
6918.98
1744.59
1897.72
1988.14
2077.34
2164.6
2242.58
2316.04
2395.75
2484.68
2589.41
2706.91
2836.33
2973.81
3110.19
3233.05
3329.51
3397.32
3433.89
3455.34
3452.74
3426.6
3385.25
3312.82
3211.57
3083.39
2941.11
2795.67
2657.61
2525.76
2408.42
2297.11
2200.82
2107.93
2021.41
1932.61
1850.84
1785.31
1666.52
6420.9
7590.36
1830.18
1996.25
2091.8
2186.21
2275.64
2356.64
2430.67
2510.13
2600.01
2705.55
2825.27
2958.18
3099.31
3239.02
3363.73
3460.78
3528.19
3564.01
3584.19
3581.04
3555.16
3513.59
3440.7
3338.12
3207.3
3060.67
2910.03
2766.23
2629.46
2507.47
2392.05
2293.16
2197.85
2109.98
2020.67
1938.99
1873.73
1746.58
7169.85
8280.63
1922.35
2103.53
2204.81
2309.11
2401.78
2486.28
2562.17
2642.38
2732.51
2839.14
2959.69
3095.47
3238.73
3380.57
3505.5
3602.23
3668.88
3703.98
3723.05
3719.41
3693.63
3651.84
3578.78
3475.52
3343.53
3193.17
3038.76
2888.77
2748.48
2620.7
2501.78
2398.63
2300.19
2210.32
2120.6
2038.77
1973.22
1836.72
8006.53
8946.79
2021.95
2216.84
2324.93
2437.47
2533.67
2620.9
2699.85
2781.4
2874.56
2981.08
3104.97
3242.58
3389.33
3533.12
3659.25
3756.07
3822.41
3857.01
3875.25
3871.16
3845.29
3803.06
3729.26
3624.79
3490.3
3336.26
3176.13
3021.03
2873.79
2741.51
2616.58
2509.43
2406.75
2314.01
2223.15
2141.11
2076.01
1929.5
8878.43
9622.09
2133.28
2347.81
2465.72
2584.2
2683.92
2773.2
2855.41
2938.77
3031.7
3140.12
3264.59
3404.4
3553.94
3699.37
3826.86
3924.01
3990.34
4024.72
4042.34
4037.87
4011.77
3968.87
3893.96
3787.92
3650.33
3492.74
3326.71
3165.86
3013.58
2874.24
2746.13
2633.6
2527.06
2431.71
2339.89
2257.93
2193.31
2035.66
9843.96
10248.4
2251.73
2488.66
2618.14
2739.44
2841.66
2932.64
3019.08
3105.09
3200.41
3309.72
3435.78
3579.04
3730.2
3878.86
4007.07
4105.06
4171.37
4205.58
4222.69
4217.93
4191.61
4148.07
4072.07
3963.66
3823.72
3660.09
3489.68
3320.63
3162.35
3017.21
2882.53
2764.65
2652.93
2553.72
2460
2378.12
2314.4
2144.56
10826.3
10883.9
2381.78
2651.85
2792.59
2914.16
3016.5
3106.56
3194.78
3282.3
3378.64
3488.95
3617.23
3761.33
3916.21
4065.48
4195.22
4293.08
4359.17
4392.95
4409.5
4404.55
4378.24
4334.44
4257.54
4147.91
4004.2
3837.73
3659.46
3485.78
3320.1
3168.67
3029.56
2905.38
2788.36
2685.66
2590.38
2509.82
2448.08
2265.47
11901.7
11303.1
2515.81
2829.43
2982.36
3100.97
3200.78
3287.08
3373.85
3461.28
3558.39
3669.34
3797.89
3944.34
4099.2
4249.87
4378.82
4476.12
4541.18
4574.19
4589.99
4584.96
4558.97
4515.41
4438.6
4328
4183.3
4012.32
3831.27
3650.33
3480.5
3323.66
3179.26
3049.94
2928.07
2821.43
2723.83
2645.87
2587.04
2394.53
12981.7
11659.6
2655.82
3022.92
3187.62
3299.82
3390.56
3467.11
3547.22
3630.76
3726.32
3836.24
3964.92
4110.4
4265.49
4414.48
4542.16
4637.59
4701.09
4732.96
4747.88
4742.8
4717.37
4674.52
4598.38
4488.34
4342.78
4171.23
3986.3
3803.33
3629.18
3469.17
3322.51
3189.24
3064.25
2954.97
2856.74
2781.92
2727.06
2540.82
14126.2
12516.2
2799.34
3230.83
3402.32
3503.41
3572.3
3632.98
3700.55
3775.91
3867.49
3974.76
4101.76
4246.08
4399.05
4546.08
4671.22
4764.46
4826.04
4856.65
4870.64
4865.52
4840.75
4798.75
4723.74
4614.59
4469.81
4297.63
4112.37
3927.07
3751.85
3590.39
3442.81
3308.12
3182.7
3071.69
2975.3
2903.42
2851.89
2701.08
15245
11635.3
2928.78
3458.92
3620.34
3706.43
3737.98
3774.42
3823.32
3887.42
3972.66
4076.3
4201.24
4343.55
4494.47
4638.95
4761.65
4852.63
4912.39
4941.84
4955.01
4949.83
4925.64
4884.43
4810.57
4702.58
4558.63
4387.06
4201.4
4015.77
3839.69
3677.82
3530.54
3395.56
3270.74
3158.58
3065.21
2996.25
2948.63
2853.78
16339.5
11124.4
3082.57
3745.9
3880.86
3911.87
3883.01
3881.86
3911.43
3965.16
4041.85
4142.27
4265.32
4406.16
4555.31
4697.82
4818.53
4907.78
4966.12
4994.71
5007.25
5002.02
4978.27
4937.66
4864.71
4757.66
4614.55
4443.46
4257.97
4072.04
3895.66
3733.65
3586.56
3451.77
3327.35
3213.97
3122.35
3055.26
3011.06
2977.74
17309.9
10298.8
3460.9
4055
4228.58
4119.38
3995.24
3955.18
3973.85
4011.73
4082.75
4180.66
4302.52
4442.42
4590.34
4731.43
4850.74
4938.76
4996.12
5024.1
5036.22
5030.93
5007.45
4967.24
4894.95
4788.6
4646.15
4475.58
4290.36
4104.5
3928.11
3766.2
3619.46
3485.1
3361.04
3246.92
3156.11
3089.91
3048.71
3065.53
18008.6
)
;

boundaryField
{
    inlet
    {
        type            fixedValue;
        value           uniform 10000;
    }
    outlet
    {
        type            fixedValue;
        value           uniform 1000;
    }
    obstacle
    {
        type            zeroGradient;
    }
    empty
    {
        type            empty;
    }
}


// ************************************************************************* //
