/*--------------------------------*- C++ -*----------------------------------*\
| =========                 |                                                 |
| \\      /  F ield         | OpenFOAM: The Open Source CFD Toolbox           |
|  \\    /   O peration     | Version:  v1912                                 |
|   \\  /    A nd           | Website:  www.openfoam.com                      |
|    \\/     M anipulation  |                                                 |
\*---------------------------------------------------------------------------*/
FoamFile
{
    version     2.0;
    format      ascii;
    class       volScalarField;
    location    "3.1";
    object      T;
}
// * * * * * * * * * * * * * * * * * * * * * * * * * * * * * * * * * * * * * //

dimensions      [0 0 0 1 0 0 0];


internalField   nonuniform List<scalar> 
1900
(
1.14467
1.02206
1.02767
1.03424
1.03744
1.03931
1.04099
1.04348
1.04696
1.05053
1.14466
1.02206
1.02767
1.03424
1.03746
1.0393
1.04087
1.04288
1.0453
1.04859
1.14466
1.02206
1.02767
1.03424
1.03744
1.03927
1.04083
1.0429
1.04552
1.04835
1.14466
1.02206
1.02767
1.03424
1.03746
1.0393
1.04087
1.04288
1.0453
1.04859
1.14467
1.02206
1.02767
1.03424
1.03744
1.03931
1.04099
1.04348
1.04696
1.05053
1.04795
1.04959
1.04664
1.02775
0.964505
1.05028
1.05166
1.04679
1.03217
0.98999
1.04972
1.05066
1.04469
1.026
0.982611
1.05028
1.05166
1.04679
1.03217
0.98999
1.04795
1.04959
1.04664
1.02775
0.964505
1.00996
0.968112
0.946935
0.92526
0.891807
1.00378
0.966863
0.947589
0.929219
0.906958
1.00209
0.966725
0.946557
0.928795
0.909581
1.00378
0.966863
0.947589
0.929219
0.906958
1.00996
0.968112
0.946935
0.92526
0.891807
0.802583
0.720978
0.779914
0.798203
0.783478
0.771849
0.768571
0.769467
0.771358
0.774999
0.780178
0.78656
0.79375
0.801171
0.808085
0.813815
0.81798
0.820675
0.821997
0.822579
0.822333
0.821218
0.819314
0.815891
0.810804
0.803863
0.795345
0.785823
0.775964
0.766305
0.757164
0.748638
0.740626
0.733021
0.725767
0.719823
0.71593
0.71237
0.652281
0.556689
0.884683
0.755655
0.792697
0.80149
0.785187
0.77226
0.768796
0.769641
0.771514
0.775123
0.780293
0.78667
0.793856
0.801272
0.80818
0.813904
0.818064
0.820755
0.822076
0.822656
0.82241
0.821296
0.819394
0.815973
0.810889
0.803951
0.795436
0.785917
0.776059
0.766401
0.75726
0.748735
0.740725
0.733116
0.725856
0.719912
0.716002
0.712459
0.652222
0.557319
0.882738
0.779547
0.801679
0.803844
0.786116
0.772494
0.768922
0.769751
0.771602
0.775194
0.780357
0.786727
0.793908
0.801319
0.808223
0.813943
0.8181
0.820789
0.822108
0.822688
0.822442
0.821328
0.819427
0.816008
0.810926
0.803992
0.795481
0.785966
0.776113
0.766459
0.757325
0.748807
0.740805
0.733205
0.725954
0.720022
0.716118
0.712597
0.652453
0.559367
0.884683
0.755655
0.792697
0.80149
0.785187
0.77226
0.768796
0.769641
0.771514
0.775123
0.780293
0.78667
0.793856
0.801272
0.80818
0.813904
0.818064
0.820755
0.822076
0.822656
0.82241
0.821296
0.819394
0.815973
0.810889
0.803951
0.795436
0.785917
0.776059
0.766401
0.75726
0.748735
0.740725
0.733116
0.725856
0.719912
0.716002
0.712459
0.652222
0.557319
0.802583
0.720978
0.779914
0.798203
0.783478
0.771849
0.768571
0.769467
0.771358
0.774999
0.780178
0.78656
0.79375
0.801171
0.808085
0.813815
0.81798
0.820675
0.821997
0.822579
0.822333
0.821218
0.819314
0.815891
0.810804
0.803863
0.795345
0.785823
0.775964
0.766305
0.757164
0.748638
0.740626
0.733021
0.725767
0.719823
0.71593
0.71237
0.652281
0.556689
0.611863
0.672971
0.767731
0.785137
0.777049
0.769471
0.767278
0.768392
0.770467
0.774287
0.77952
0.785939
0.793153
0.800604
0.807552
0.813313
0.817502
0.820216
0.821549
0.822138
0.821892
0.820772
0.818861
0.815423
0.810319
0.803361
0.794825
0.785289
0.775419
0.765751
0.756601
0.748066
0.740043
0.732448
0.725221
0.719272
0.715411
0.711937
0.653092
0.554987
0.530795
0.673774
0.75581
0.764236
0.764945
0.763135
0.763204
0.764939
0.767897
0.772066
0.777478
0.784001
0.791307
0.798863
0.805919
0.811778
0.816046
0.818819
0.820187
0.820799
0.820554
0.819416
0.817477
0.813993
0.808832
0.801806
0.793201
0.7836
0.77367
0.763946
0.754733
0.746121
0.738018
0.730346
0.72311
0.717048
0.713091
0.709613
0.65159
0.550197
0.518482
0.674327
0.740465
0.748548
0.752962
0.754853
0.757109
0.759954
0.763544
0.768258
0.773916
0.780614
0.788073
0.795796
0.803017
0.809026
0.813414
0.816277
0.817698
0.818344
0.8181
0.816932
0.814949
0.811392
0.806143
0.799015
0.790308
0.780606
0.770595
0.760787
0.751484
0.742765
0.734555
0.726765
0.719516
0.713249
0.709109
0.705576
0.648782
0.543355
0.523837
0.667136
0.725979
0.73514
0.740874
0.74517
0.748894
0.752872
0.757199
0.762381
0.768351
0.775279
0.782971
0.790923
0.798382
0.804598
0.809156
0.812145
0.813639
0.814333
0.814089
0.812878
0.810831
0.807173
0.801795
0.794527
0.785662
0.775835
0.765684
0.755764
0.746326
0.737434
0.729091
0.721114
0.713796
0.70719
0.70274
0.69912
0.644276
0.535623
0.512957
0.657298
0.712037
0.72151
0.728327
0.734165
0.738959
0.743806
0.748753
0.754317
0.760598
0.767794
0.775733
0.78398
0.791703
0.798176
0.802934
0.806075
0.807658
0.808411
0.808164
0.806898
0.804771
0.800987
0.795458
0.788002
0.778982
0.768958
0.758705
0.748615
0.739034
0.729975
0.721504
0.713342
0.70594
0.699017
0.694181
0.690475
0.63808
0.527715
0.508345
0.646908
0.698673
0.70796
0.715538
0.722194
0.727785
0.733226
0.738591
0.744441
0.750991
0.75841
0.766647
0.775122
0.783152
0.789865
0.794843
0.798143
0.799822
0.800638
0.800387
0.799061
0.796846
0.792933
0.787232
0.779622
0.770385
0.760291
0.749859
0.739722
0.730043
0.720844
0.712359
0.704141
0.696683
0.689571
0.684253
0.6803
0.630441
0.519529
0.503643
0.636399
0.685962
0.694846
0.702969
0.71007
0.716137
0.721889
0.72747
0.733496
0.740254
0.747924
0.756314
0.765077
0.773291
0.78026
0.785419
0.788871
0.790639
0.791517
0.791264
0.789882
0.78759
0.783555
0.777733
0.769938
0.760657
0.750395
0.740043
0.729822
0.720152
0.710981
0.702547
0.694376
0.686941
0.679748
0.673944
0.669764
0.622382
0.511841
0.497223
0.625968
0.673762
0.682198
0.690677
0.698074
0.704451
0.710317
0.716024
0.722226
0.729183
0.73701
0.745656
0.754516
0.762981
0.770099
0.775436
0.77901
0.780857
0.781793
0.781541
0.780115
0.777764
0.773649
0.767704
0.759861
0.75043
0.740279
0.729857
0.719741
0.710147
0.700949
0.69265
0.68457
0.677131
0.669792
0.663599
0.659268
0.613957
0.503995
0.491955
0.616706
0.662681
0.670592
0.679265
0.686784
0.693291
0.699093
0.704847
0.711134
0.718308
0.726324
0.735077
0.744153
0.752724
0.760042
0.765508
0.769199
0.771114
0.772108
0.771864
0.770404
0.768014
0.763827
0.757821
0.749855
0.740463
0.730236
0.719967
0.709905
0.700364
0.691307
0.683105
0.675126
0.667724
0.660273
0.653789
0.649377
0.606388
0.496888
0.486732
0.607488
0.651924
0.659412
0.668028
0.675592
0.682203
0.687998
0.693852
0.700406
0.707717
0.715999
0.724918
0.73414
0.7429
0.750379
0.756001
0.759809
0.761796
0.762855
0.762625
0.761133
0.758707
0.754454
0.748351
0.740312
0.730831
0.720634
0.710405
0.700332
0.69097
0.681831
0.673747
0.665788
0.658334
0.650691
0.643913
0.639412
0.598185
0.489736
0.482058
0.599392
0.642217
0.64945
0.65777
0.665349
0.671997
0.677779
0.683757
0.690332
0.697921
0.70626
0.715366
0.724668
0.733592
0.741233
0.747023
0.750962
0.753036
0.754176
0.753965
0.752434
0.749963
0.745628
0.739413
0.731282
0.721735
0.71159
0.701373
0.691471
0.682126
0.673147
0.665107
0.657224
0.649763
0.64196
0.634917
0.630313
0.591362
0.483379
0.477356
0.591418
0.632735
0.639762
0.647582
0.655188
0.661808
0.667666
0.673808
0.680608
0.688383
0.696948
0.70616
0.71562
0.724686
0.732546
0.738524
0.742623
0.744798
0.746036
0.745849
0.744268
0.741742
0.737296
0.730944
0.722647
0.713054
0.70285
0.692746
0.682787
0.673582
0.664585
0.656628
0.648745
0.641209
0.633177
0.625863
0.621183
0.583902
0.477243
0.473
0.584128
0.623701
0.630521
0.638195
0.645893
0.652496
0.658516
0.664893
0.671848
0.679814
0.688488
0.697735
0.707231
0.716344
0.724313
0.730424
0.73466
0.73694
0.73829
0.738131
0.736492
0.733912
0.729374
0.722932
0.714572
0.704996
0.694856
0.684873
0.674991
0.665876
0.656947
0.648967
0.641054
0.633405
0.625168
0.617564
0.612754
0.577572
0.471982
0.468612
0.577106
0.614927
0.621401
0.628906
0.636748
0.643255
0.649481
0.656078
0.663227
0.671384
0.680137
0.689471
0.698986
0.708213
0.716362
0.722682
0.727079
0.729459
0.730923
0.730794
0.729099
0.726472
0.721821
0.715214
0.706723
0.697105
0.68703
0.677132
0.667305
0.65828
0.649333
0.641334
0.633355
0.625553
0.617081
0.60921
0.604337
0.570926
0.466955
0.465137
0.570167
0.606022
0.612114
0.619598
0.627543
0.634213
0.640704
0.647601
0.655078
0.663512
0.672406
0.681917
0.69152
0.700895
0.709164
0.715599
0.720057
0.722474
0.724009
0.723911
0.7222
0.719589
0.71492
0.708243
0.699667
0.689979
0.67987
0.669952
0.660086
0.651035
0.641994
0.633886
0.625748
0.617721
0.609042
0.60095
0.596035
0.564708
0.463046
0.461141
0.563546
0.597098
0.602667
0.610021
0.617956
0.62471
0.631599
0.638949
0.646799
0.655729
0.664878
0.674682
0.684468
0.694085
0.702719
0.709537
0.714295
0.716879
0.718551
0.718484
0.71669
0.713968
0.709048
0.702046
0.693146
0.683287
0.673028
0.662998
0.652919
0.643678
0.634391
0.626044
0.61762
0.60936
0.60053
0.592299
0.587466
0.558241
0.458441
0.460796
0.557331
0.588555
0.593193
0.600528
0.608573
0.615815
0.623249
0.631186
0.6395
0.648945
0.658518
0.668847
0.679178
0.689334
0.69833
0.705519
0.710555
0.713271
0.715013
0.714972
0.713152
0.710346
0.705191
0.697868
0.688647
0.678333
0.667563
0.657147
0.64674
0.637236
0.627673
0.619003
0.610271
0.601755
0.592762
0.584388
0.580056
0.553151
0.458747
0.466761
0.556041
0.585902
0.588418
0.595299
0.603262
0.610811
0.618528
0.626695
0.635258
0.644781
0.654512
0.664995
0.675609
0.685792
0.694812
0.701973
0.706975
0.709677
0.711602
0.711575
0.709593
0.706822
0.701711
0.69442
0.685181
0.674878
0.663902
0.65338
0.642904
0.633338
0.623728
0.614948
0.606168
0.597609
0.588687
0.580833
0.578203
0.55208
0.464408
0.453808
0.532227
0.560967
0.561957
0.565972
0.571547
0.576673
0.582694
0.588609
0.595577
0.602714
0.610553
0.618614
0.626733
0.634091
0.640233
0.644823
0.647942
0.649406
0.652382
0.652382
0.649386
0.647888
0.644689
0.639991
0.633662
0.626204
0.617695
0.609608
0.600982
0.593803
0.585902
0.579359
0.57239
0.566003
0.559233
0.553732
0.552316
0.525595
0.443077
0.388353
0.445427
0.467258
0.46098
0.460222
0.46455
0.468249
0.473355
0.478687
0.485049
0.491617
0.499059
0.506441
0.514498
0.522313
0.530515
0.538227
0.545484
0.550801
0.555604
0.555611
0.550806
0.545492
0.538233
0.530518
0.522305
0.514482
0.506388
0.498993
0.491466
0.484845
0.478374
0.472876
0.46759
0.463517
0.458875
0.458753
0.464417
0.444001
0.386409
0.388353
0.445427
0.467258
0.46098
0.460222
0.46455
0.468249
0.473355
0.478687
0.485049
0.491617
0.499059
0.506441
0.514498
0.522313
0.530515
0.538227
0.545484
0.550801
0.555604
0.555611
0.550806
0.545492
0.538233
0.530518
0.522305
0.514482
0.506388
0.498993
0.491466
0.484845
0.478374
0.472876
0.46759
0.463517
0.458875
0.458753
0.464417
0.444001
0.386409
0.453808
0.532227
0.560967
0.561957
0.565972
0.571547
0.576673
0.582694
0.588609
0.595577
0.602714
0.610553
0.618614
0.626733
0.634091
0.640233
0.644823
0.647942
0.649406
0.652382
0.652382
0.649386
0.647888
0.644689
0.639991
0.633662
0.626204
0.617695
0.609608
0.600982
0.593803
0.585902
0.579359
0.57239
0.566003
0.559233
0.553732
0.552316
0.525595
0.443077
0.466761
0.556041
0.585902
0.588418
0.595299
0.603262
0.610811
0.618528
0.626695
0.635258
0.644781
0.654512
0.664995
0.675609
0.685792
0.694812
0.701973
0.706975
0.709677
0.711602
0.711575
0.709593
0.706822
0.701711
0.69442
0.685181
0.674878
0.663902
0.65338
0.642904
0.633338
0.623728
0.614948
0.606168
0.597609
0.588687
0.580833
0.578203
0.55208
0.464408
0.460796
0.557331
0.588555
0.593193
0.600528
0.608573
0.615815
0.623249
0.631186
0.6395
0.648945
0.658518
0.668847
0.679178
0.689334
0.69833
0.705519
0.710555
0.713271
0.715013
0.714972
0.713152
0.710346
0.705191
0.697868
0.688647
0.678333
0.667563
0.657147
0.64674
0.637236
0.627673
0.619003
0.610271
0.601755
0.592762
0.584388
0.580056
0.553151
0.458747
0.461141
0.563546
0.597098
0.602667
0.610021
0.617956
0.62471
0.631599
0.638949
0.646799
0.655729
0.664878
0.674682
0.684468
0.694085
0.702719
0.709537
0.714295
0.716879
0.718551
0.718484
0.71669
0.713968
0.709048
0.702046
0.693146
0.683287
0.673028
0.662998
0.652919
0.643678
0.634391
0.626044
0.61762
0.60936
0.60053
0.592299
0.587466
0.558241
0.458441
0.465137
0.570167
0.606022
0.612114
0.619598
0.627543
0.634213
0.640704
0.647601
0.655078
0.663512
0.672406
0.681917
0.69152
0.700895
0.709164
0.715599
0.720057
0.722474
0.724009
0.723911
0.7222
0.719589
0.71492
0.708243
0.699667
0.689979
0.67987
0.669952
0.660086
0.651035
0.641994
0.633886
0.625748
0.617721
0.609042
0.60095
0.596035
0.564708
0.463046
0.468612
0.577106
0.614927
0.621401
0.628906
0.636748
0.643255
0.649481
0.656078
0.663227
0.671384
0.680137
0.689471
0.698986
0.708213
0.716362
0.722682
0.727079
0.729459
0.730923
0.730794
0.729099
0.726472
0.721821
0.715214
0.706723
0.697105
0.68703
0.677132
0.667305
0.65828
0.649333
0.641334
0.633355
0.625553
0.617081
0.60921
0.604337
0.570926
0.466955
0.473
0.584128
0.623701
0.630521
0.638195
0.645893
0.652496
0.658516
0.664893
0.671848
0.679814
0.688488
0.697735
0.707231
0.716344
0.724313
0.730424
0.73466
0.73694
0.73829
0.738131
0.736492
0.733912
0.729374
0.722932
0.714572
0.704996
0.694856
0.684873
0.674991
0.665876
0.656947
0.648967
0.641054
0.633405
0.625168
0.617564
0.612754
0.577572
0.471982
0.477356
0.591418
0.632735
0.639762
0.647582
0.655188
0.661808
0.667666
0.673808
0.680608
0.688383
0.696948
0.70616
0.71562
0.724686
0.732546
0.738524
0.742623
0.744798
0.746036
0.745849
0.744268
0.741742
0.737296
0.730944
0.722647
0.713054
0.70285
0.692746
0.682787
0.673582
0.664585
0.656628
0.648745
0.641209
0.633177
0.625863
0.621183
0.583902
0.477243
0.482058
0.599392
0.642217
0.64945
0.65777
0.665349
0.671997
0.677779
0.683757
0.690332
0.697921
0.70626
0.715366
0.724668
0.733592
0.741233
0.747023
0.750962
0.753036
0.754176
0.753965
0.752434
0.749963
0.745628
0.739413
0.731282
0.721735
0.71159
0.701373
0.691471
0.682126
0.673147
0.665107
0.657224
0.649763
0.64196
0.634917
0.630313
0.591362
0.483379
0.486732
0.607488
0.651924
0.659412
0.668028
0.675592
0.682203
0.687998
0.693852
0.700406
0.707717
0.715999
0.724918
0.73414
0.7429
0.750379
0.756001
0.759809
0.761796
0.762855
0.762625
0.761133
0.758707
0.754454
0.748351
0.740312
0.730831
0.720634
0.710405
0.700332
0.69097
0.681831
0.673747
0.665788
0.658334
0.650691
0.643913
0.639412
0.598185
0.489736
0.491955
0.616706
0.662681
0.670592
0.679265
0.686784
0.693291
0.699093
0.704847
0.711134
0.718308
0.726324
0.735077
0.744153
0.752724
0.760042
0.765508
0.769199
0.771114
0.772108
0.771864
0.770404
0.768014
0.763827
0.757821
0.749855
0.740463
0.730236
0.719967
0.709905
0.700364
0.691307
0.683105
0.675126
0.667724
0.660273
0.653789
0.649377
0.606388
0.496888
0.497223
0.625968
0.673762
0.682198
0.690677
0.698074
0.704451
0.710317
0.716024
0.722226
0.729183
0.73701
0.745656
0.754516
0.762981
0.770099
0.775436
0.77901
0.780857
0.781793
0.781541
0.780115
0.777764
0.773649
0.767704
0.759861
0.75043
0.740279
0.729857
0.719741
0.710147
0.700949
0.69265
0.68457
0.677131
0.669792
0.663599
0.659268
0.613957
0.503995
0.503643
0.636399
0.685962
0.694846
0.702969
0.71007
0.716137
0.721889
0.72747
0.733496
0.740254
0.747924
0.756314
0.765077
0.773291
0.78026
0.785419
0.788871
0.790639
0.791517
0.791264
0.789882
0.78759
0.783555
0.777733
0.769938
0.760657
0.750395
0.740043
0.729822
0.720152
0.710981
0.702547
0.694376
0.686941
0.679748
0.673944
0.669764
0.622382
0.511841
0.508345
0.646908
0.698673
0.70796
0.715538
0.722194
0.727785
0.733226
0.738591
0.744441
0.750991
0.75841
0.766647
0.775122
0.783152
0.789865
0.794843
0.798143
0.799822
0.800638
0.800387
0.799061
0.796846
0.792933
0.787232
0.779622
0.770385
0.760291
0.749859
0.739722
0.730043
0.720844
0.712359
0.704141
0.696683
0.689571
0.684253
0.6803
0.630441
0.519529
0.512957
0.657298
0.712037
0.72151
0.728327
0.734165
0.738959
0.743806
0.748753
0.754317
0.760598
0.767794
0.775733
0.78398
0.791703
0.798176
0.802934
0.806075
0.807658
0.808411
0.808164
0.806898
0.804771
0.800987
0.795458
0.788002
0.778982
0.768958
0.758705
0.748615
0.739034
0.729975
0.721504
0.713342
0.70594
0.699017
0.694181
0.690475
0.63808
0.527715
0.523837
0.667136
0.725979
0.73514
0.740874
0.74517
0.748894
0.752872
0.757199
0.762381
0.768351
0.775279
0.782971
0.790923
0.798382
0.804598
0.809156
0.812145
0.813639
0.814333
0.814089
0.812878
0.810831
0.807173
0.801795
0.794527
0.785662
0.775835
0.765684
0.755764
0.746326
0.737434
0.729091
0.721114
0.713796
0.70719
0.70274
0.69912
0.644276
0.535623
0.518482
0.674327
0.740465
0.748548
0.752962
0.754853
0.757109
0.759954
0.763544
0.768258
0.773916
0.780614
0.788073
0.795796
0.803017
0.809026
0.813414
0.816277
0.817698
0.818344
0.8181
0.816932
0.814949
0.811392
0.806143
0.799015
0.790308
0.780606
0.770595
0.760787
0.751484
0.742765
0.734555
0.726765
0.719516
0.713249
0.709109
0.705576
0.648782
0.543355
0.530795
0.673774
0.75581
0.764236
0.764945
0.763135
0.763204
0.764939
0.767897
0.772066
0.777478
0.784001
0.791307
0.798863
0.805919
0.811778
0.816046
0.818819
0.820187
0.820799
0.820554
0.819416
0.817477
0.813993
0.808832
0.801806
0.793201
0.7836
0.77367
0.763946
0.754733
0.746121
0.738018
0.730346
0.72311
0.717048
0.713091
0.709613
0.65159
0.550197
0.611863
0.672971
0.767731
0.785137
0.777049
0.769471
0.767278
0.768392
0.770467
0.774287
0.77952
0.785939
0.793153
0.800604
0.807552
0.813313
0.817502
0.820216
0.821549
0.822138
0.821892
0.820772
0.818861
0.815423
0.810319
0.803361
0.794825
0.785289
0.775419
0.765751
0.756601
0.748066
0.740043
0.732448
0.725221
0.719272
0.715411
0.711937
0.653092
0.554987
)
;

boundaryField
{
    inlet
    {
        type            fixedValue;
        value           uniform 1;
    }
    outlet
    {
        type            zeroGradient;
    }
    obstacle
    {
        type            zeroGradient;
    }
    empty
    {
        type            empty;
    }
}


// ************************************************************************* //
