/*--------------------------------*- C++ -*----------------------------------*\
| =========                 |                                                 |
| \\      /  F ield         | OpenFOAM: The Open Source CFD Toolbox           |
|  \\    /   O peration     | Version:  v1912                                 |
|   \\  /    A nd           | Website:  www.openfoam.com                      |
|    \\/     M anipulation  |                                                 |
\*---------------------------------------------------------------------------*/
FoamFile
{
    version     2.0;
    format      ascii;
    class       volVectorField;
    location    "3.1";
    object      U;
}
// * * * * * * * * * * * * * * * * * * * * * * * * * * * * * * * * * * * * * //

dimensions      [0 1 -1 0 0 0 0];


internalField   nonuniform List<vector> 
1900
(
(-0.485411 -2.00646e-06 0)
(-0.0763559 -2.13512e-06 0)
(-0.0815725 -2.74226e-06 0)
(-0.0858768 9.69422e-06 0)
(-0.0904869 0.000130262 0)
(-0.0956482 0.000399005 0)
(-0.100867 0.0005759 0)
(-0.105544 -0.000880827 0)
(-0.108579 -0.00560697 0)
(-0.0964971 -0.0192479 0)
(-0.485414 -1.03291e-06 0)
(-0.0763628 -1.65784e-06 0)
(-0.0815831 -1.67532e-06 0)
(-0.0858897 1.5007e-05 0)
(-0.090428 0.000119727 0)
(-0.0952827 0.000376714 0)
(-0.0997398 0.000629423 0)
(-0.103627 -0.00030602 0)
(-0.10879 -0.00321912 0)
(-0.111693 -0.0153845 0)
(-0.485414 -2.07581e-14 0)
(-0.0763653 -2.17857e-14 0)
(-0.0815854 -2.92541e-14 0)
(-0.0858703 -3.06581e-15 0)
(-0.0903344 1.32759e-14 0)
(-0.0950182 1.36487e-15 0)
(-0.0992714 -2.18698e-14 0)
(-0.103181 -5.36931e-15 0)
(-0.108848 -4.34551e-14 0)
(-0.119658 -2.63134e-14 0)
(-0.485414 1.03291e-06 0)
(-0.0763628 1.65784e-06 0)
(-0.0815831 1.67532e-06 0)
(-0.0858897 -1.5007e-05 0)
(-0.090428 -0.000119727 0)
(-0.0952827 -0.000376714 0)
(-0.0997398 -0.000629423 0)
(-0.103627 0.00030602 0)
(-0.10879 0.00321912 0)
(-0.111693 0.0153845 0)
(-0.485411 2.00646e-06 0)
(-0.0763559 2.13512e-06 0)
(-0.0815725 2.74226e-06 0)
(-0.0858768 -9.69422e-06 0)
(-0.0904869 -0.000130262 0)
(-0.0956482 -0.000399005 0)
(-0.100867 -0.0005759 0)
(-0.105544 0.000880827 0)
(-0.108579 0.00560697 0)
(-0.0964971 0.0192479 0)
(-0.0979794 -0.0505727 0)
(-0.125606 -0.0647646 0)
(-0.14778 -0.0875755 0)
(-0.192257 -0.111101 0)
(-0.385907 -0.0812996 0)
(-0.128252 -0.0347802 0)
(-0.157652 -0.0441443 0)
(-0.196595 -0.0648648 0)
(-0.282031 -0.0852151 0)
(-0.456176 -0.0756891 0)
(-0.139722 -2.83734e-14 0)
(-0.169504 -1.70689e-14 0)
(-0.219358 2.66004e-14 0)
(-0.315048 -2.3108e-15 0)
(-0.47851 8.92684e-15 0)
(-0.128252 0.0347802 0)
(-0.157652 0.0441443 0)
(-0.196595 0.0648648 0)
(-0.282031 0.0852151 0)
(-0.456176 0.0756891 0)
(-0.0979794 0.0505727 0)
(-0.125606 0.0647646 0)
(-0.14778 0.0875755 0)
(-0.192257 0.111101 0)
(-0.385907 0.0812996 0)
(-0.434441 0.0269067 0)
(-0.337108 0.0288486 0)
(-0.277433 0.0284066 0)
(-0.242033 0.042377 0)
(-0.278061 0.0827796 0)
(-0.452205 0.0200264 0)
(-0.349505 0.0177309 0)
(-0.277357 0.0154508 0)
(-0.202729 0.0351337 0)
(-0.127441 0.0976522 0)
(-0.461732 1.24634e-14 0)
(-0.351235 6.9407e-14 0)
(-0.269371 1.17409e-13 0)
(-0.176775 1.4154e-13 0)
(-0.0402854 1.56585e-13 0)
(-0.452205 -0.0200264 0)
(-0.349505 -0.0177309 0)
(-0.277357 -0.0154508 0)
(-0.202729 -0.0351337 0)
(-0.127441 -0.0976522 0)
(-0.434441 -0.0269067 0)
(-0.337108 -0.0288486 0)
(-0.277433 -0.0284066 0)
(-0.242033 -0.042377 0)
(-0.278061 -0.0827796 0)
(-0.476028 0.0718846 0)
(-0.0503529 -0.162169 0)
(-0.111726 -0.205824 0)
(-0.260262 -0.127859 0)
(-0.3317 -0.0594623 0)
(-0.381654 -0.0420576 0)
(-0.396701 -0.0374722 0)
(-0.396901 -0.0354571 0)
(-0.389502 -0.0336362 0)
(-0.377806 -0.0334989 0)
(-0.361947 -0.0331413 0)
(-0.342883 -0.03303 0)
(-0.320601 -0.0329614 0)
(-0.294215 -0.0329278 0)
(-0.262513 -0.0329297 0)
(-0.224642 -0.0329468 0)
(-0.180736 -0.0329524 0)
(-0.13155 -0.0329656 0)
(-0.0793033 -0.032859 0)
(-0.0242251 -0.0330833 0)
(0.030491 -0.033036 0)
(0.0860535 -0.0328042 0)
(0.13891 -0.0328725 0)
(0.189227 -0.0328106 0)
(0.235054 -0.0327395 0)
(0.276036 -0.0326314 0)
(0.312451 -0.0324999 0)
(0.345472 -0.0323547 0)
(0.376434 -0.0322045 0)
(0.406257 -0.0320518 0)
(0.435285 -0.0319 0)
(0.463557 -0.0317483 0)
(0.491127 -0.0316312 0)
(0.518172 -0.0314278 0)
(0.544019 -0.0314647 0)
(0.566804 -0.0306034 0)
(0.58497 -0.031452 0)
(0.597086 -0.0301238 0)
(0.634184 -0.0321257 0)
(1.25713 -0.0301901 0)
(0.0550601 0.102202 0)
(0.261853 -0.112382 0)
(0.0501194 -0.139995 0)
(-0.219071 -0.0728531 0)
(-0.332725 -0.0299085 0)
(-0.38287 -0.0208079 0)
(-0.397928 -0.0187035 0)
(-0.398278 -0.0177282 0)
(-0.39074 -0.0167837 0)
(-0.37898 -0.0167439 0)
(-0.363103 -0.0165615 0)
(-0.343954 -0.0165025 0)
(-0.321582 -0.0164662 0)
(-0.295093 -0.0164461 0)
(-0.263273 -0.0164436 0)
(-0.225271 -0.0164491 0)
(-0.181225 -0.01645 0)
(-0.131897 -0.0164557 0)
(-0.0795072 -0.0164021 0)
(-0.024288 -0.0165147 0)
(0.0305689 -0.0164911 0)
(0.0862737 -0.0163749 0)
(0.139273 -0.0164098 0)
(0.18973 -0.0163802 0)
(0.235694 -0.016347 0)
(0.276807 -0.0162965 0)
(0.313347 -0.0162351 0)
(0.346482 -0.0161672 0)
(0.377549 -0.0160968 0)
(0.407468 -0.0160249 0)
(0.436586 -0.015953 0)
(0.46494 -0.0158812 0)
(0.492585 -0.015826 0)
(0.519703 -0.0157314 0)
(0.545583 -0.0157484 0)
(0.568503 -0.01532 0)
(0.58654 -0.0157434 0)
(0.598585 -0.0150695 0)
(0.634486 -0.016203 0)
(1.25414 -0.0147345 0)
(0.220624 2.79023e-15 0)
(0.361638 -6.00296e-14 0)
(0.12317 -2.77969e-14 0)
(-0.201037 8.31124e-14 0)
(-0.334929 1.18241e-14 0)
(-0.385122 -2.50918e-13 0)
(-0.399773 -6.93573e-13 0)
(-0.400063 -9.2287e-13 0)
(-0.392282 -8.30831e-13 0)
(-0.380394 -1.6051e-13 0)
(-0.364382 1.18843e-12 0)
(-0.345076 2.60074e-12 0)
(-0.322552 2.24294e-12 0)
(-0.295918 -2.01056e-12 0)
(-0.263957 -1.13182e-11 0)
(-0.225815 -1.97193e-11 0)
(-0.181635 -6.20753e-12 0)
(-0.132179 1.56006e-11 0)
(-0.079669 -1.10449e-11 0)
(-0.0243364 -1.38501e-11 0)
(0.0306309 1.96342e-11 0)
(0.0864499 1.44965e-11 0)
(0.139571 -4.91716e-11 0)
(0.190158 -4.40898e-11 0)
(0.236259 1.77814e-11 0)
(0.277518 2.47628e-11 0)
(0.314209 -5.87038e-12 0)
(0.3475 -3.00353e-11 0)
(0.378728 -3.70642e-11 0)
(0.408813 -3.02928e-11 0)
(0.438104 -2.66596e-11 0)
(0.466641 -1.37324e-11 0)
(0.494476 -1.58437e-11 0)
(0.521795 -1.43131e-11 0)
(0.54787 -4.07431e-11 0)
(0.571022 -3.28149e-11 0)
(0.589268 -6.96506e-12 0)
(0.601416 -6.21253e-11 0)
(0.636554 -2.39452e-11 0)
(1.25647 5.37969e-11 0)
(0.0550601 -0.102202 0)
(0.261853 0.112382 0)
(0.0501194 0.139995 0)
(-0.219071 0.0728531 0)
(-0.332725 0.0299085 0)
(-0.38287 0.0208079 0)
(-0.397928 0.0187035 0)
(-0.398278 0.0177282 0)
(-0.39074 0.0167837 0)
(-0.37898 0.0167439 0)
(-0.363103 0.0165615 0)
(-0.343954 0.0165025 0)
(-0.321582 0.0164662 0)
(-0.295093 0.0164461 0)
(-0.263273 0.0164436 0)
(-0.225271 0.0164491 0)
(-0.181225 0.01645 0)
(-0.131897 0.0164557 0)
(-0.0795072 0.0164021 0)
(-0.024288 0.0165147 0)
(0.0305689 0.0164911 0)
(0.0862737 0.0163749 0)
(0.139273 0.0164098 0)
(0.18973 0.0163802 0)
(0.235694 0.016347 0)
(0.276807 0.0162965 0)
(0.313347 0.0162351 0)
(0.346482 0.0161672 0)
(0.377549 0.0160968 0)
(0.407468 0.0160249 0)
(0.436586 0.015953 0)
(0.46494 0.0158812 0)
(0.492585 0.015826 0)
(0.519703 0.0157314 0)
(0.545583 0.0157484 0)
(0.568503 0.01532 0)
(0.58654 0.0157434 0)
(0.598585 0.0150695 0)
(0.634486 0.016203 0)
(1.25414 0.0147345 0)
(-0.476028 -0.0718846 0)
(-0.0503529 0.162169 0)
(-0.111726 0.205824 0)
(-0.260262 0.127859 0)
(-0.3317 0.0594623 0)
(-0.381654 0.0420576 0)
(-0.396701 0.0374722 0)
(-0.396901 0.0354571 0)
(-0.389502 0.0336362 0)
(-0.377806 0.0334989 0)
(-0.361947 0.0331413 0)
(-0.342883 0.03303 0)
(-0.320601 0.0329614 0)
(-0.294215 0.0329278 0)
(-0.262513 0.0329297 0)
(-0.224642 0.0329468 0)
(-0.180736 0.0329524 0)
(-0.13155 0.0329656 0)
(-0.0793033 0.032859 0)
(-0.0242251 0.0330833 0)
(0.030491 0.033036 0)
(0.0860535 0.0328042 0)
(0.13891 0.0328725 0)
(0.189227 0.0328106 0)
(0.235054 0.0327395 0)
(0.276036 0.0326314 0)
(0.312451 0.0324999 0)
(0.345472 0.0323547 0)
(0.376434 0.0322045 0)
(0.406257 0.0320518 0)
(0.435285 0.0319 0)
(0.463557 0.0317483 0)
(0.491127 0.0316312 0)
(0.518172 0.0314278 0)
(0.544019 0.0314647 0)
(0.566804 0.0306034 0)
(0.58497 0.031452 0)
(0.597086 0.0301238 0)
(0.634184 0.0321257 0)
(1.25713 0.0301901 0)
(-1.09269 -0.127927 0)
(-0.400686 0.179757 0)
(-0.310578 0.260308 0)
(-0.328671 0.188352 0)
(-0.355983 0.113325 0)
(-0.391609 0.0860495 0)
(-0.40224 0.0772915 0)
(-0.401618 0.0730364 0)
(-0.393134 0.0697857 0)
(-0.380854 0.069315 0)
(-0.364544 0.0686202 0)
(-0.345218 0.0683828 0)
(-0.322667 0.0682279 0)
(-0.29602 0.0681591 0)
(-0.264061 0.0681612 0)
(-0.225928 0.0681897 0)
(-0.181752 0.0681923 0)
(-0.132283 0.0682125 0)
(-0.0797503 0.0679872 0)
(-0.0243748 0.0684521 0)
(0.0306254 0.0683556 0)
(0.0864737 0.0678758 0)
(0.139604 0.0680189 0)
(0.19019 0.0678943 0)
(0.236272 0.067752 0)
(0.277502 0.0675333 0)
(0.314161 0.0672661 0)
(0.347428 0.0669711 0)
(0.378646 0.0666659 0)
(0.408738 0.0663559 0)
(0.438048 0.0660494 0)
(0.46661 0.0657362 0)
(0.494463 0.065512 0)
(0.52173 0.0650446 0)
(0.547869 0.0651489 0)
(0.570597 0.0634336 0)
(0.589364 0.0648455 0)
(0.601847 0.0624832 0)
(0.640237 0.0653973 0)
(1.25682 0.0634814 0)
(-1.22795 -0.0392267 0)
(-0.58689 0.253182 0)
(-0.460851 0.307426 0)
(-0.400483 0.244855 0)
(-0.400854 0.177242 0)
(-0.408087 0.147777 0)
(-0.410364 0.135617 0)
(-0.404179 0.128726 0)
(-0.39456 0.124103 0)
(-0.381069 0.123041 0)
(-0.364388 0.121942 0)
(-0.344939 0.121519 0)
(-0.322318 0.121256 0)
(-0.295654 0.121167 0)
(-0.263725 0.121197 0)
(-0.225653 0.121261 0)
(-0.181554 0.121271 0)
(-0.13216 0.121312 0)
(-0.0797035 0.120911 0)
(-0.0243816 0.121757 0)
(0.0305269 0.121588 0)
(0.0862927 0.120719 0)
(0.139308 0.12097 0)
(0.189753 0.12074 0)
(0.235664 0.120477 0)
(0.276702 0.120072 0)
(0.31316 0.119577 0)
(0.34624 0.119031 0)
(0.377298 0.118466 0)
(0.407262 0.117892 0)
(0.436462 0.117329 0)
(0.464898 0.116737 0)
(0.492654 0.116351 0)
(0.51959 0.115402 0)
(0.545761 0.115677 0)
(0.567741 0.112673 0)
(0.586917 0.114842 0)
(0.599372 0.111393 0)
(0.64271 0.112952 0)
(1.24814 0.105907 0)
(-1.23442 0.0259361 0)
(-0.635028 0.262884 0)
(-0.519005 0.319062 0)
(-0.452522 0.267334 0)
(-0.432377 0.224666 0)
(-0.424085 0.200915 0)
(-0.418476 0.187584 0)
(-0.408401 0.179837 0)
(-0.396441 0.175819 0)
(-0.381977 0.173794 0)
(-0.364742 0.172526 0)
(-0.345043 0.171975 0)
(-0.322261 0.171704 0)
(-0.29552 0.1717 0)
(-0.263569 0.171848 0)
(-0.225525 0.172027 0)
(-0.181475 0.172107 0)
(-0.132128 0.172215 0)
(-0.0797223 0.171675 0)
(-0.0244102 0.172926 0)
(0.0304465 0.172686 0)
(0.0861785 0.171405 0)
(0.139122 0.17173 0)
(0.189474 0.171358 0)
(0.235262 0.170921 0)
(0.276156 0.170264 0)
(0.312479 0.169464 0)
(0.345437 0.168571 0)
(0.376455 0.167649 0)
(0.406411 0.166692 0)
(0.435647 0.165752 0)
(0.464102 0.164714 0)
(0.491966 0.164055 0)
(0.518547 0.162275 0)
(0.545064 0.162484 0)
(0.566376 0.158294 0)
(0.58603 0.160469 0)
(0.598329 0.156701 0)
(0.64737 0.156024 0)
(1.23944 0.147078 0)
(-1.22959 0.097065 0)
(-0.650633 0.279461 0)
(-0.544103 0.331541 0)
(-0.481249 0.291263 0)
(-0.454513 0.264016 0)
(-0.439191 0.245362 0)
(-0.426459 0.233581 0)
(-0.41338 0.226076 0)
(-0.399149 0.222444 0)
(-0.3833 0.219999 0)
(-0.365346 0.218708 0)
(-0.34514 0.21811 0)
(-0.322073 0.217959 0)
(-0.295158 0.218132 0)
(-0.2632 0.218512 0)
(-0.225214 0.218891 0)
(-0.18127 0.219117 0)
(-0.132027 0.219342 0)
(-0.0797244 0.218697 0)
(-0.0244604 0.220375 0)
(0.0302957 0.220061 0)
(0.0859476 0.218332 0)
(0.138762 0.218685 0)
(0.188952 0.218122 0)
(0.234536 0.217446 0)
(0.275214 0.216471 0)
(0.311285 0.215262 0)
(0.344115 0.213963 0)
(0.374971 0.212536 0)
(0.404935 0.211105 0)
(0.434205 0.20967 0)
(0.46252 0.207949 0)
(0.490567 0.206929 0)
(0.516545 0.203996 0)
(0.543405 0.203875 0)
(0.564053 0.198565 0)
(0.584268 0.200337 0)
(0.596309 0.196921 0)
(0.65161 0.191539 0)
(1.2286 0.183124 0)
(-1.21708 0.154582 0)
(-0.65721 0.299561 0)
(-0.559154 0.345006 0)
(-0.501808 0.31315 0)
(-0.471495 0.29816 0)
(-0.451446 0.282713 0)
(-0.43396 0.273115 0)
(-0.418059 0.266399 0)
(-0.401898 0.26318 0)
(-0.384729 0.260585 0)
(-0.365972 0.259366 0)
(-0.345162 0.258869 0)
(-0.321594 0.25886 0)
(-0.294555 0.259375 0)
(-0.262548 0.260035 0)
(-0.224701 0.260721 0)
(-0.180919 0.261152 0)
(-0.131844 0.261541 0)
(-0.0796975 0.260819 0)
(-0.0245241 0.262943 0)
(0.0300887 0.262553 0)
(0.0856121 0.260343 0)
(0.138242 0.260684 0)
(0.1882 0.259885 0)
(0.233521 0.258927 0)
(0.273862 0.257533 0)
(0.309729 0.255937 0)
(0.342169 0.253995 0)
(0.373127 0.252211 0)
(0.402863 0.250011 0)
(0.432229 0.248084 0)
(0.460468 0.245627 0)
(0.488667 0.244098 0)
(0.513964 0.239967 0)
(0.541108 0.239419 0)
(0.561551 0.23341 0)
(0.582256 0.234487 0)
(0.594787 0.232563 0)
(0.655052 0.221229 0)
(1.21727 0.22256 0)
(-1.21816 0.211113 0)
(-0.658648 0.318313 0)
(-0.567263 0.358243 0)
(-0.517247 0.332876 0)
(-0.484928 0.327402 0)
(-0.460531 0.314296 0)
(-0.44028 0.307269 0)
(-0.422234 0.301334 0)
(-0.404585 0.298511 0)
(-0.386304 0.295934 0)
(-0.366687 0.294831 0)
(-0.34493 0.294226 0)
(-0.321081 0.294681 0)
(-0.293562 0.29528 0)
(-0.26169 0.296391 0)
(-0.223959 0.297325 0)
(-0.180423 0.298002 0)
(-0.131577 0.29856 0)
(-0.0796444 0.297768 0)
(-0.0246098 0.300342 0)
(0.0298156 0.299881 0)
(0.0851597 0.297169 0)
(0.13755 0.297478 0)
(0.187215 0.296437 0)
(0.23217 0.295142 0)
(0.272229 0.293444 0)
(0.307532 0.29118 0)
(0.340139 0.289142 0)
(0.370458 0.286326 0)
(0.400649 0.284105 0)
(0.429952 0.281478 0)
(0.457874 0.278205 0)
(0.486467 0.276617 0)
(0.511156 0.271602 0)
(0.538311 0.270611 0)
(0.558888 0.264498 0)
(0.579982 0.264741 0)
(0.594261 0.264572 0)
(0.656313 0.249229 0)
(1.2036 0.256373 0)
(-1.20552 0.262302 0)
(-0.657567 0.339363 0)
(-0.571941 0.37531 0)
(-0.527889 0.355261 0)
(-0.495396 0.353891 0)
(-0.467806 0.343015 0)
(-0.445973 0.338426 0)
(-0.426238 0.332828 0)
(-0.407479 0.330397 0)
(-0.388064 0.327751 0)
(-0.367304 0.326365 0)
(-0.345155 0.326368 0)
(-0.320092 0.326353 0)
(-0.292724 0.327622 0)
(-0.260575 0.328685 0)
(-0.223143 0.329972 0)
(-0.179842 0.330776 0)
(-0.131274 0.331485 0)
(-0.0795899 0.330596 0)
(-0.0247242 0.333614 0)
(0.029489 0.333094 0)
(0.0846252 0.329878 0)
(0.136748 0.330187 0)
(0.186072 0.328923 0)
(0.230698 0.32745 0)
(0.270186 0.325264 0)
(0.305567 0.323133 0)
(0.337159 0.319989 0)
(0.368508 0.318012 0)
(0.397658 0.314349 0)
(0.427687 0.312257 0)
(0.455479 0.308635 0)
(0.484062 0.306811 0)
(0.508328 0.301514 0)
(0.535666 0.30073 0)
(0.556732 0.295077 0)
(0.578723 0.295114 0)
(0.594545 0.29525 0)
(0.656325 0.279753 0)
(1.1905 0.298118 0)
(-1.18522 0.302841 0)
(-0.654855 0.359187 0)
(-0.574025 0.392834 0)
(-0.533825 0.378075 0)
(-0.502057 0.378239 0)
(-0.47255 0.369478 0)
(-0.450269 0.367343 0)
(-0.429381 0.361969 0)
(-0.409952 0.360033 0)
(-0.389612 0.357342 0)
(-0.368483 0.356729 0)
(-0.344508 0.355714 0)
(-0.319826 0.35688 0)
(-0.291334 0.35745 0)
(-0.259625 0.359067 0)
(-0.222227 0.360257 0)
(-0.179261 0.361195 0)
(-0.130977 0.361957 0)
(-0.0795597 0.360928 0)
(-0.0248693 0.364374 0)
(0.0291251 0.363817 0)
(0.0840515 0.360119 0)
(0.135897 0.360491 0)
(0.18489 0.359138 0)
(0.22905 0.357459 0)
(0.268371 0.35543 0)
(0.302718 0.352506 0)
(0.335305 0.350469 0)
(0.364867 0.346677 0)
(0.395705 0.344724 0)
(0.424823 0.341458 0)
(0.452381 0.337578 0)
(0.481452 0.336357 0)
(0.504922 0.33059 0)
(0.532202 0.329586 0)
(0.55347 0.324084 0)
(0.576983 0.324436 0)
(0.593303 0.32356 0)
(0.653801 0.307914 0)
(1.17464 0.32975 0)
(-1.17151 0.355876 0)
(-0.653781 0.386087 0)
(-0.575483 0.416022 0)
(-0.539009 0.405626 0)
(-0.507979 0.405695 0)
(-0.477617 0.398115 0)
(-0.45514 0.397162 0)
(-0.433022 0.391131 0)
(-0.413074 0.389629 0)
(-0.391949 0.387263 0)
(-0.368764 0.385299 0)
(-0.345271 0.385931 0)
(-0.318447 0.385647 0)
(-0.290585 0.38718 0)
(-0.258336 0.388267 0)
(-0.221375 0.389675 0)
(-0.178668 0.390528 0)
(-0.1307 0.391309 0)
(-0.0795566 0.390085 0)
(-0.0250372 0.393951 0)
(0.0287362 0.393383 0)
(0.083462 0.389227 0)
(0.135032 0.389747 0)
(0.183663 0.388355 0)
(0.227485 0.386777 0)
(0.266064 0.384442 0)
(0.300825 0.382294 0)
(0.331729 0.378905 0)
(0.363501 0.377332 0)
(0.391959 0.372978 0)
(0.42314 0.371913 0)
(0.449925 0.367466 0)
(0.479156 0.366448 0)
(0.502585 0.361106 0)
(0.530314 0.360625 0)
(0.552072 0.355554 0)
(0.577117 0.356318 0)
(0.594227 0.355312 0)
(0.653396 0.340896 0)
(1.15857 0.374217 0)
(-1.15402 0.394568 0)
(-0.649862 0.407317 0)
(-0.573928 0.434881 0)
(-0.540734 0.429513 0)
(-0.509831 0.428981 0)
(-0.479248 0.422587 0)
(-0.457027 0.422828 0)
(-0.434412 0.417245 0)
(-0.414754 0.417046 0)
(-0.392146 0.414124 0)
(-0.369721 0.41436 0)
(-0.343903 0.413594 0)
(-0.317828 0.41479 0)
(-0.288907 0.415686 0)
(-0.257165 0.417167 0)
(-0.220379 0.418465 0)
(-0.178066 0.419317 0)
(-0.130431 0.420075 0)
(-0.0795715 0.418636 0)
(-0.0252155 0.42293 0)
(0.0283309 0.422377 0)
(0.0828688 0.41777 0)
(0.134158 0.418484 0)
(0.182424 0.417122 0)
(0.225742 0.415535 0)
(0.264014 0.413391 0)
(0.297734 0.410738 0)
(0.329564 0.408387 0)
(0.359289 0.405001 0)
(0.389861 0.402715 0)
(0.419103 0.399584 0)
(0.446172 0.395355 0)
(0.475427 0.394389 0)
(0.497917 0.388426 0)
(0.525728 0.387591 0)
(0.547625 0.382427 0)
(0.574062 0.383159 0)
(0.591185 0.380987 0)
(0.649186 0.366736 0)
(1.14047 0.403519 0)
(-1.13746 0.447574 0)
(-0.64882 0.437028 0)
(-0.574828 0.46069 0)
(-0.545644 0.459219 0)
(-0.512765 0.45674 0)
(-0.483667 0.451759 0)
(-0.461689 0.452079 0)
(-0.438347 0.446159 0)
(-0.418105 0.445978 0)
(-0.394982 0.443737 0)
(-0.370489 0.4427 0)
(-0.344493 0.442709 0)
(-0.317067 0.443302 0)
(-0.287916 0.444215 0)
(-0.256059 0.445551 0)
(-0.219502 0.446716 0)
(-0.177519 0.447516 0)
(-0.130195 0.448228 0)
(-0.0796065 0.446575 0)
(-0.0253951 0.451318 0)
(0.0279221 0.450801 0)
(0.0822954 0.445737 0)
(0.133317 0.446668 0)
(0.181245 0.445371 0)
(0.224147 0.44385 0)
(0.261976 0.441847 0)
(0.295584 0.439456 0)
(0.326919 0.436985 0)
(0.357878 0.434719 0)
(0.387013 0.431172 0)
(0.418571 0.430253 0)
(0.444361 0.425101 0)
(0.474357 0.42502 0)
(0.497008 0.419675 0)
(0.525276 0.419072 0)
(0.547486 0.414171 0)
(0.575493 0.415552 0)
(0.593193 0.413549 0)
(0.649621 0.400748 0)
(1.12074 0.449109 0)
(-1.11882 0.482606 0)
(-0.644907 0.458946 0)
(-0.573711 0.480394 0)
(-0.5467 0.480553 0)
(-0.512596 0.476262 0)
(-0.484664 0.473982 0)
(-0.462372 0.473941 0)
(-0.438307 0.468234 0)
(-0.418142 0.469492 0)
(-0.393546 0.467015 0)
(-0.368987 0.467678 0)
(-0.342421 0.468184 0)
(-0.314568 0.46925 0)
(-0.285714 0.470838 0)
(-0.254073 0.472364 0)
(-0.218209 0.473899 0)
(-0.176772 0.474817 0)
(-0.129894 0.475608 0)
(-0.0796215 0.473779 0)
(-0.0255566 0.478994 0)
(0.0275173 0.478531 0)
(0.0817278 0.472997 0)
(0.132433 0.474133 0)
(0.179884 0.472777 0)
(0.222167 0.471173 0)
(0.259108 0.468799 0)
(0.292302 0.466335 0)
(0.322789 0.463184 0)
(0.353849 0.46078 0)
(0.382413 0.456715 0)
(0.413599 0.454948 0)
(0.439228 0.449687 0)
(0.468939 0.448958 0)
(0.491275 0.443246 0)
(0.520037 0.442591 0)
(0.542389 0.437563 0)
(0.571537 0.438757 0)
(0.589546 0.436098 0)
(0.644892 0.424027 0)
(1.10077 0.47595 0)
(-1.09729 0.533127 0)
(-0.643183 0.488569 0)
(-0.574509 0.506226 0)
(-0.549117 0.506957 0)
(-0.514623 0.501396 0)
(-0.488867 0.501181 0)
(-0.465547 0.500242 0)
(-0.44181 0.49523 0)
(-0.421502 0.496615 0)
(-0.395811 0.494232 0)
(-0.37103 0.495427 0)
(-0.343007 0.495636 0)
(-0.314815 0.496903 0)
(-0.285293 0.49828 0)
(-0.253614 0.49965 0)
(-0.217839 0.500935 0)
(-0.176585 0.501627 0)
(-0.129885 0.502327 0)
(-0.0797597 0.500288 0)
(-0.0257331 0.505978 0)
(0.0271692 0.505585 0)
(0.0813272 0.499594 0)
(0.131872 0.500998 0)
(0.179113 0.499771 0)
(0.221126 0.498419 0)
(0.25784 0.496332 0)
(0.290814 0.494061 0)
(0.321631 0.491224 0)
(0.352676 0.488855 0)
(0.381758 0.48511 0)
(0.413257 0.483578 0)
(0.438634 0.478241 0)
(0.468923 0.478051 0)
(0.491088 0.472654 0)
(0.520455 0.472458 0)
(0.543111 0.468013 0)
(0.573287 0.469574 0)
(0.591523 0.467111 0)
(0.644993 0.457082 0)
(1.07696 0.521257 0)
(-1.07655 0.56232 0)
(-0.639394 0.509924 0)
(-0.573974 0.525834 0)
(-0.549895 0.526591 0)
(-0.515532 0.520355 0)
(-0.490942 0.521653 0)
(-0.46627 0.519597 0)
(-0.44206 0.515443 0)
(-0.421008 0.517117 0)
(-0.39393 0.514869 0)
(-0.368499 0.516936 0)
(-0.339374 0.517401 0)
(-0.310975 0.519494 0)
(-0.28114 0.521244 0)
(-0.24997 0.523351 0)
(-0.215042 0.525313 0)
(-0.174841 0.526759 0)
(-0.129006 0.527975 0)
(-0.0794764 0.526069 0)
(-0.0257662 0.532341 0)
(0.0267524 0.532024 0)
(0.0805803 0.52548 0)
(0.130495 0.526828 0)
(0.176816 0.525133 0)
(0.217668 0.523079 0)
(0.253338 0.520343 0)
(0.285607 0.517459 0)
(0.316179 0.514164 0)
(0.347262 0.511464 0)
(0.376108 0.507036 0)
(0.408163 0.50564 0)
(0.433175 0.499802 0)
(0.463959 0.499629 0)
(0.486075 0.494195 0)
(0.516191 0.494154 0)
(0.539093 0.489803 0)
(0.570337 0.491366 0)
(0.588838 0.488627 0)
(0.6408 0.479388 0)
(1.05531 0.544764 0)
(-1.04918 0.611465 0)
(-0.636577 0.540018 0)
(-0.574398 0.551651 0)
(-0.551578 0.552592 0)
(-0.517971 0.546385 0)
(-0.494465 0.547974 0)
(-0.468155 0.544667 0)
(-0.444549 0.54159 0)
(-0.422739 0.542685 0)
(-0.394883 0.540331 0)
(-0.369462 0.542577 0)
(-0.339541 0.542842 0)
(-0.311143 0.545148 0)
(-0.281052 0.546846 0)
(-0.250133 0.549054 0)
(-0.215452 0.550732 0)
(-0.17548 0.551885 0)
(-0.129668 0.552771 0)
(-0.0800184 0.550477 0)
(-0.0260465 0.557122 0)
(0.0266575 0.556892 0)
(0.0807393 0.550019 0)
(0.130743 0.55186 0)
(0.177003 0.55055 0)
(0.217587 0.548879 0)
(0.25285 0.546453 0)
(0.284919 0.543677 0)
(0.31516 0.540362 0)
(0.346653 0.538011 0)
(0.375001 0.533633 0)
(0.407547 0.532924 0)
(0.432339 0.527525 0)
(0.463538 0.52799 0)
(0.485852 0.523352 0)
(0.51673 0.524067 0)
(0.539961 0.520562 0)
(0.571711 0.522185 0)
(0.590196 0.519459 0)
(0.639932 0.5126 0)
(1.02689 0.5896 0)
(-1.02693 0.633968 0)
(-0.632662 0.561671 0)
(-0.574139 0.573363 0)
(-0.552899 0.57428 0)
(-0.520086 0.568064 0)
(-0.497157 0.569362 0)
(-0.46896 0.564293 0)
(-0.445297 0.562561 0)
(-0.422104 0.563118 0)
(-0.393004 0.560453 0)
(-0.367518 0.563086 0)
(-0.336443 0.562788 0)
(-0.307569 0.564927 0)
(-0.276739 0.566081 0)
(-0.24536 0.567819 0)
(-0.210983 0.569648 0)
(-0.17161 0.571252 0)
(-0.126661 0.572761 0)
(-0.0781303 0.570985 0)
(-0.0254692 0.578448 0)
(0.0258009 0.578287 0)
(0.0785469 0.570627 0)
(0.127341 0.572041 0)
(0.172603 0.570148 0)
(0.212418 0.568101 0)
(0.247123 0.565514 0)
(0.279563 0.56338 0)
(0.309976 0.560454 0)
(0.342107 0.558859 0)
(0.370238 0.554639 0)
(0.403035 0.55428 0)
(0.427627 0.549087 0)
(0.459327 0.549865 0)
(0.481727 0.545513 0)
(0.513484 0.546633 0)
(0.536912 0.54337 0)
(0.56942 0.545019 0)
(0.587699 0.541898 0)
(0.635681 0.534383 0)
(1.00397 0.607817 0)
(-0.993328 0.679215 0)
(-0.626448 0.587143 0)
(-0.572906 0.597211 0)
(-0.553961 0.599488 0)
(-0.522659 0.593441 0)
(-0.500329 0.593841 0)
(-0.471427 0.588173 0)
(-0.449559 0.587891 0)
(-0.423473 0.586521 0)
(-0.395802 0.58441 0)
(-0.36878 0.585555 0)
(-0.337351 0.583657 0)
(-0.308176 0.58477 0)
(-0.277055 0.584937 0)
(-0.246717 0.586708 0)
(-0.212676 0.587979 0)
(-0.173804 0.589144 0)
(-0.129013 0.590344 0)
(-0.080017 0.588094 0)
(-0.0262406 0.5956 0)
(0.0263649 0.595514 0)
(0.0802336 0.587863 0)
(0.129462 0.589882 0)
(0.174524 0.588384 0)
(0.21381 0.586911 0)
(0.248039 0.584945 0)
(0.279491 0.583026 0)
(0.309757 0.581022 0)
(0.34228 0.580927 0)
(0.370748 0.578393 0)
(0.404229 0.579677 0)
(0.428728 0.575705 0)
(0.460942 0.577651 0)
(0.483326 0.574389 0)
(0.515182 0.576028 0)
(0.538577 0.573558 0)
(0.570788 0.574986 0)
(0.587644 0.570061 0)
(0.63241 0.561278 0)
(0.970861 0.648204 0)
(-0.956793 0.676441 0)
(-0.61438 0.593729 0)
(-0.566217 0.608539 0)
(-0.552244 0.614056 0)
(-0.523648 0.609389 0)
(-0.50212 0.609341 0)
(-0.472344 0.603339 0)
(-0.451427 0.603373 0)
(-0.422392 0.600357 0)
(-0.396804 0.599801 0)
(-0.367751 0.599192 0)
(-0.338318 0.598323 0)
(-0.308779 0.598081 0)
(-0.277844 0.597416 0)
(-0.245002 0.59796 0)
(-0.209563 0.599299 0)
(-0.170196 0.600846 0)
(-0.12561 0.60228 0)
(-0.0775127 0.59996 0)
(-0.0252554 0.607458 0)
(0.0252632 0.607414 0)
(0.0775649 0.599809 0)
(0.125781 0.601982 0)
(0.17052 0.600323 0)
(0.210179 0.598569 0)
(0.245696 0.596649 0)
(0.279481 0.595932 0)
(0.309825 0.595009 0)
(0.342012 0.595826 0)
(0.369075 0.593223 0)
(0.402614 0.595119 0)
(0.426324 0.591333 0)
(0.458777 0.593581 0)
(0.480815 0.590598 0)
(0.512733 0.592267 0)
(0.535729 0.589672 0)
(0.566362 0.58979 0)
(0.579108 0.581321 0)
(0.619805 0.567905 0)
(0.936915 0.639504 0)
(-0.974495 0.602486 0)
(-0.595122 0.613699 0)
(-0.559633 0.637034 0)
(-0.551067 0.647873 0)
(-0.523569 0.647858 0)
(-0.501533 0.650699 0)
(-0.468315 0.648592 0)
(-0.445528 0.65155 0)
(-0.412968 0.650864 0)
(-0.386675 0.653296 0)
(-0.354698 0.654119 0)
(-0.325429 0.655895 0)
(-0.294327 0.656768 0)
(-0.265205 0.656375 0)
(-0.237108 0.653266 0)
(-0.207891 0.648367 0)
(-0.17216 0.642378 0)
(-0.129114 0.636715 0)
(-0.0799206 0.630606 0)
(-0.0254649 0.635227 0)
(0.0254393 0.635218 0)
(0.0799359 0.630542 0)
(0.129202 0.636574 0)
(0.172324 0.64207 0)
(0.208252 0.647868 0)
(0.237522 0.65237 0)
(0.266198 0.655426 0)
(0.294432 0.654833 0)
(0.327431 0.654462 0)
(0.354514 0.650366 0)
(0.38952 0.650501 0)
(0.413819 0.645448 0)
(0.44827 0.645598 0)
(0.471079 0.640994 0)
(0.505442 0.640153 0)
(0.527966 0.635644 0)
(0.557246 0.632432 0)
(0.56586 0.619194 0)
(0.59801 0.594808 0)
(0.969277 0.555991 0)
(-1.02137 1.02475 0)
(-0.563649 0.968884 0)
(-0.631715 0.944256 0)
(-0.639847 0.977395 0)
(-0.5988 1.01038 0)
(-0.580408 1.03322 0)
(-0.534446 1.0618 0)
(-0.510481 1.08371 0)
(-0.463702 1.10774 0)
(-0.435611 1.12805 0)
(-0.388812 1.14786 0)
(-0.357885 1.16618 0)
(-0.312728 1.18224 0)
(-0.279053 1.19842 0)
(-0.236323 1.21234 0)
(-0.200396 1.22671 0)
(-0.160036 1.23784 0)
(-0.120314 1.24675 0)
(-0.0758518 1.25211 0)
(-0.0252068 1.26602 0)
(0.0251826 1.26603 0)
(0.0758331 1.25211 0)
(0.120301 1.24675 0)
(0.160029 1.23785 0)
(0.200412 1.22672 0)
(0.236315 1.21234 0)
(0.27916 1.19839 0)
(0.312747 1.18213 0)
(0.358246 1.16604 0)
(0.388961 1.1476 0)
(0.436235 1.1277 0)
(0.464299 1.10718 0)
(0.51151 1.08287 0)
(0.535858 1.06058 0)
(0.582538 1.03134 0)
(0.601827 1.00762 0)
(0.644667 0.973152 0)
(0.636331 0.937877 0)
(0.569467 0.961324 0)
(1.01934 1.02463 0)
(-1.02137 -1.02475 0)
(-0.563649 -0.968884 0)
(-0.631715 -0.944256 0)
(-0.639847 -0.977395 0)
(-0.5988 -1.01038 0)
(-0.580408 -1.03322 0)
(-0.534446 -1.0618 0)
(-0.510481 -1.08371 0)
(-0.463702 -1.10774 0)
(-0.435611 -1.12805 0)
(-0.388812 -1.14786 0)
(-0.357885 -1.16618 0)
(-0.312728 -1.18224 0)
(-0.279053 -1.19842 0)
(-0.236323 -1.21234 0)
(-0.200396 -1.22671 0)
(-0.160036 -1.23784 0)
(-0.120314 -1.24675 0)
(-0.0758518 -1.25211 0)
(-0.0252068 -1.26602 0)
(0.0251826 -1.26603 0)
(0.0758331 -1.25211 0)
(0.120301 -1.24675 0)
(0.160029 -1.23785 0)
(0.200412 -1.22672 0)
(0.236315 -1.21234 0)
(0.27916 -1.19839 0)
(0.312747 -1.18213 0)
(0.358246 -1.16604 0)
(0.388961 -1.1476 0)
(0.436235 -1.1277 0)
(0.464299 -1.10718 0)
(0.51151 -1.08287 0)
(0.535858 -1.06058 0)
(0.582538 -1.03134 0)
(0.601827 -1.00762 0)
(0.644667 -0.973152 0)
(0.636331 -0.937877 0)
(0.569467 -0.961324 0)
(1.01934 -1.02463 0)
(-0.974495 -0.602486 0)
(-0.595122 -0.613699 0)
(-0.559633 -0.637034 0)
(-0.551067 -0.647873 0)
(-0.523569 -0.647858 0)
(-0.501533 -0.650699 0)
(-0.468315 -0.648592 0)
(-0.445528 -0.65155 0)
(-0.412968 -0.650864 0)
(-0.386675 -0.653296 0)
(-0.354698 -0.654119 0)
(-0.325429 -0.655895 0)
(-0.294327 -0.656768 0)
(-0.265205 -0.656375 0)
(-0.237108 -0.653266 0)
(-0.207891 -0.648367 0)
(-0.17216 -0.642378 0)
(-0.129114 -0.636715 0)
(-0.0799206 -0.630606 0)
(-0.0254649 -0.635227 0)
(0.0254393 -0.635218 0)
(0.0799359 -0.630542 0)
(0.129202 -0.636574 0)
(0.172324 -0.64207 0)
(0.208252 -0.647868 0)
(0.237522 -0.65237 0)
(0.266198 -0.655426 0)
(0.294432 -0.654833 0)
(0.327431 -0.654462 0)
(0.354514 -0.650366 0)
(0.38952 -0.650501 0)
(0.413819 -0.645448 0)
(0.44827 -0.645598 0)
(0.471079 -0.640994 0)
(0.505442 -0.640153 0)
(0.527966 -0.635644 0)
(0.557246 -0.632432 0)
(0.56586 -0.619194 0)
(0.59801 -0.594808 0)
(0.969277 -0.555991 0)
(-0.956793 -0.676441 0)
(-0.61438 -0.593729 0)
(-0.566217 -0.608539 0)
(-0.552244 -0.614056 0)
(-0.523648 -0.609389 0)
(-0.50212 -0.609341 0)
(-0.472344 -0.603339 0)
(-0.451427 -0.603373 0)
(-0.422392 -0.600357 0)
(-0.396804 -0.599801 0)
(-0.367751 -0.599192 0)
(-0.338318 -0.598323 0)
(-0.308779 -0.598081 0)
(-0.277844 -0.597416 0)
(-0.245002 -0.59796 0)
(-0.209563 -0.599299 0)
(-0.170196 -0.600846 0)
(-0.12561 -0.60228 0)
(-0.0775127 -0.59996 0)
(-0.0252554 -0.607458 0)
(0.0252632 -0.607414 0)
(0.0775649 -0.599809 0)
(0.125781 -0.601982 0)
(0.17052 -0.600323 0)
(0.210179 -0.598569 0)
(0.245696 -0.596649 0)
(0.279481 -0.595932 0)
(0.309825 -0.595009 0)
(0.342012 -0.595826 0)
(0.369075 -0.593223 0)
(0.402614 -0.595119 0)
(0.426324 -0.591333 0)
(0.458777 -0.593581 0)
(0.480815 -0.590598 0)
(0.512733 -0.592267 0)
(0.535729 -0.589672 0)
(0.566362 -0.58979 0)
(0.579108 -0.581321 0)
(0.619805 -0.567905 0)
(0.936915 -0.639504 0)
(-0.993328 -0.679215 0)
(-0.626448 -0.587143 0)
(-0.572906 -0.597211 0)
(-0.553961 -0.599488 0)
(-0.522659 -0.593441 0)
(-0.500329 -0.593841 0)
(-0.471427 -0.588173 0)
(-0.449559 -0.587891 0)
(-0.423473 -0.586521 0)
(-0.395802 -0.58441 0)
(-0.36878 -0.585555 0)
(-0.337351 -0.583657 0)
(-0.308176 -0.58477 0)
(-0.277055 -0.584937 0)
(-0.246717 -0.586708 0)
(-0.212676 -0.587979 0)
(-0.173804 -0.589144 0)
(-0.129013 -0.590344 0)
(-0.080017 -0.588094 0)
(-0.0262406 -0.5956 0)
(0.0263649 -0.595514 0)
(0.0802336 -0.587863 0)
(0.129462 -0.589882 0)
(0.174524 -0.588384 0)
(0.21381 -0.586911 0)
(0.248039 -0.584945 0)
(0.279491 -0.583026 0)
(0.309757 -0.581022 0)
(0.34228 -0.580927 0)
(0.370748 -0.578393 0)
(0.404229 -0.579677 0)
(0.428728 -0.575705 0)
(0.460942 -0.577651 0)
(0.483326 -0.574389 0)
(0.515182 -0.576028 0)
(0.538577 -0.573558 0)
(0.570788 -0.574986 0)
(0.587644 -0.570061 0)
(0.63241 -0.561278 0)
(0.970861 -0.648204 0)
(-1.02693 -0.633968 0)
(-0.632662 -0.561671 0)
(-0.574139 -0.573363 0)
(-0.552899 -0.57428 0)
(-0.520086 -0.568064 0)
(-0.497157 -0.569362 0)