/*--------------------------------*- C++ -*----------------------------------*\
| =========                 |                                                 |
| \\      /  F ield         | OpenFOAM: The Open Source CFD Toolbox           |
|  \\    /   O peration     | Version:  v1912                                 |
|   \\  /    A nd           | Website:  www.openfoam.com                      |
|    \\/     M anipulation  |                                                 |
\*---------------------------------------------------------------------------*/
FoamFile
{
    version     2.0;
    format      ascii;
    class       volScalarField;
    location    "7.1";
    object      p;
}
// * * * * * * * * * * * * * * * * * * * * * * * * * * * * * * * * * * * * * //

dimensions      [1 -1 -2 0 0 0 0];


internalField   nonuniform List<scalar> 
1900
(
25116.8
9457.09
8536.06
8518.34
8483.57
8468.06
8460.06
8464.4
8471.59
8477.91
25116.8
9457.1
8536.03
8518.32
8483.69
8468.22
8460.86
8464.17
8478.05
8472.94
25116.8
9457.1
8536.01
8518.31
8483.87
8468.64
8461.09
8463.45
8468.22
8462.26
25116.8
9457.1
8536.03
8518.32
8483.69
8468.22
8460.86
8464.17
8478.05
8472.94
25116.8
9457.09
8536.06
8518.34
8483.57
8468.06
8460.06
8464.4
8471.59
8477.91
8606.29
8445.48
8378.44
8206.82
8449.02
8462.76
8354.43
8295
8122.25
8009.23
8431.32
8335.68
8280.87
8144.66
8042.72
8462.76
8354.43
8295
8122.25
8009.23
8606.29
8445.48
8378.44
8206.82
8449.02
3547.79
2060.85
1450.81
1129.1
874.076
4010.34
2274.56
1563.58
1216.65
943.274
4120.81
2234.87
1515.23
1182.26
902.835
4010.34
2274.56
1563.58
1216.65
943.274
3547.79
2060.85
1450.81
1129.1
874.076
858.04
810.663
758.748
649.752
580.337
602.232
941.866
1391.23
1418
1400.91
1359.08
1269.14
1139.48
1001.23
864.114
709.867
546.703
438.067
394.739
374.821
359.627
345.889
334.687
327.41
323.869
322.691
322.522
323.014
323.756
325.223
327.371
330.963
334.525
344.351
374.156
509.005
700.029
800.451
897.389
938.44
804.659
789.916
763.875
666.592
589.376
609.595
943.73
1393.68
1415.23
1395.44
1356.59
1267.03
1142.44
1008.11
869.482
713.002
548.036
438.422
394.779
374.821
359.686
345.913
334.673
327.378
323.835
322.66
322.494
322.989
323.733
325.204
327.354
330.954
334.513
344.332
374.08
508.843
699.945
801.93
896.92
938.108
789.859
773.01
754.867
675.193
594.294
613.281
943.866
1398.47
1417.03
1395.2
1360.58
1278.18
1147.54
1006.17
867.261
712.643
548.619
438.669
394.809
374.825
359.71
345.924
334.67
327.367
323.824
322.65
322.486
322.981
323.726
325.197
327.347
330.95
334.507
344.325
374.047
508.786
699.911
802.543
896.774
938.057
804.659
789.916
763.875
666.592
589.376
609.595
943.73
1393.68
1415.23
1395.44
1356.59
1267.03
1142.44
1008.11
869.482
713.002
548.036
438.422
394.779
374.821
359.686
345.913
334.673
327.378
323.835
322.66
322.494
322.989
323.733
325.204
327.354
330.954
334.513
344.332
374.08
508.843
699.945
801.93
896.92
938.108
858.04
810.663
758.748
649.752
580.337
602.232
941.866
1391.23
1418
1400.91
1359.08
1269.14
1139.48
1001.23
864.114
709.867
546.703
438.067
394.739
374.821
359.627
345.889
334.687
327.41
323.869
322.691
322.522
323.014
323.756
325.223
327.371
330.963
334.525
344.351
374.156
509.005
700.029
800.451
897.389
938.44
946.599
849.231
772.19
666.847
591.496
627.6
956.15
1321.57
1341.1
1333.05
1308.24
1232.63
1117.49
990.389
857.138
702.908
540.968
435.931
394.432
374.754
359.405
345.759
334.728
327.548
324.025
322.833
322.647
323.123
323.856
325.309
327.444
330.997
334.561
344.416
374.366
509.381
700.042
796.772
897.416
939.4
952.519
846.836
737.603
669.038
635.147
704.842
977.416
1206.38
1242
1258.81
1234.97
1168.09
1066.76
950.831
826.075
678.451
525.672
430.981
393.655
374.468
358.942
345.466
334.787
327.856
324.401
323.182
322.954
323.391
324.102
325.523
327.624
331.097
334.632
344.552
374.784
509.971
699.941
792.797
896.134
940.045
959.081
877.483
792.93
780.394
815.963
892.703
1042.87
1117.15
1163.56
1182.28
1153.66
1090
1001.43
900.535
786.139
644.715
504.392
424.519
392.596
373.964
358.394
345.177
334.941
328.348
325.008
323.767
323.483
323.86
324.535
325.911
327.961
331.317
334.791
344.786
375.418
510.641
699.433
789.936
894.186
940.059
963.502
888.038
836.611
838.093
881.316
958.854
1050.04
1085.23
1113.3
1094.2
1064.06
1008.5
933.137
846.422
739.627
603.628
480.644
418.156
391.458
373.334
357.846
344.999
335.27
329.066
325.871
324.613
324.26
324.558
325.189
326.51
328.496
331.711
335.087
345.18
376.312
511.585
698.985
787.938
892.338
939.791
957.639
901.549
893.277
905.536
936.205
971.988
991.674
1020.85
1024.23
1016.03
979.491
929.17
867.095
790.766
686.512
557.754
458.264
412.758
390.131
372.49
357.279
344.945
335.812
330.035
327
325.725
325.292
325.496
326.075
327.333
329.244
332.305
335.553
345.742
377.368
512.509
698.283
786.089
890.088
939.053
969.008
953.889
936.082
904.003
890.584
905.921
938.604
960.436
954.045
929.855
898.83
857.771
806.16
732.993
627.746
512.922
440.887
408.874
388.898
371.661
356.867
345.162
336.676
331.336
328.46
327.171
326.653
326.76
327.288
328.481
330.319
333.233
336.357
346.676
378.935
514.268
698.532
785.383
888.831
938.717
946.757
941.841
880.586
852.057
858.809
885.346
896.765
883.415
872.782
852.443
826.52
794.659
746.694
670.737
567.304
476.225
429.2
405.563
387.201
370.542
356.488
345.537
337.737
332.843
330.127
328.822
328.232
328.249
328.718
329.843
331.614
334.404
337.415
347.823
380.471
515.506
698.355
784.474
887.16
937.794
923.387
942.222
887.158
861.655
853.347
834.252
822.447
812.665
800.033
782.727
764.769
736.38
685.111
604.713
512.894
451.37
421.919
402.976
385.632
369.621
356.451
346.345
339.244
334.769
332.195
330.87
330.212
330.151
330.549
331.616
333.329
336.018
338.96
349.502
382.698
517.808
699.25
784.57
886.169
937.278
974.969
951.402
894.903
848.78
804.492
776.019
757.257
746.289
735.495
724.09
710.035
678.714
620.872
541.9
473.369
436.896
416.753
400.157
383.751
368.762
356.546
347.357
340.962
336.904
334.48
333.155
332.445
332.319
332.655
333.685
335.363
338.004
340.95
351.613
385.1
519.897
700.244
784.959
885.381
936.502
980.286
944.02
894.766
830.466
764.396
718.977
695.652
688.091
681.06
673.828
657.378
619.068
557.546
492.444
450.573
428.827
413.591
398.269
382.632
368.735
357.616
349.366
343.618
339.894
337.563
336.203
335.417
335.207
335.47
336.455
338.101
340.719
343.725
354.549
388.436
523.169
702.254
786.201
885.227
936.215
994.913
953.564
900.886
812.902
720.111
662.852
642.043
639.483
635.772
628.203
604.778
560.376
504.837
462.095
438.86
424.334
411.185
396.7
382.139
369.483
359.487
352.13
346.99
343.571
341.312
339.9
339.025
338.722
338.906
339.855
341.481
344.122
347.261
358.181
392.136
526.248
704.476
788.143
885.234
935.35
1005.76
958.41
894.602
793.101
675.213
615.061
600.056
599.585
596.613
583.687
553.157
510.336
471.136
447.411
433.636
422.767
410.727
397.121
383.703
372.204
363.254
356.634
351.897
348.595
346.264
344.702
343.678
343.236
343.339
344.272
345.942
348.661
352.017
363.177
397.586
531.594
708.764
791.892
886.98
935.837
1003.38
952.701
874.968
769.878
639.962
581.303
568.262
566.464
560.595
541.598
509.171
476.669
454.952
441.909
432.346
422.862
411.184
398.009
385.463
374.993
366.959
361.052
356.778
353.695
351.409
349.819
348.754
348.265
348.395
349.477
351.335
354.307
358.056
369.556
404.269
537.581
714.445
797.518
889.493
935.465
988.858
941.655
857.726
755.131
622.599
560.894
544.446
538.328
526.575
505.371
480.607
462.27
450.607
442.997
435.986
427.236
415.994
403.866
392.816
383.852
377.181
372.447
369.056
366.591
364.749
363.539
362.776
362.543
362.886
364.282
366.318
369.585
373.642
385.895
421.904
555.936
731.888
811.51
896.59
937.114
972.537
936.131
857.355
758.629
621.658
551.946
531.03
521.03
507.107
492.201
479.17
470.633
464.491
459.506
453.991
446.311
436.574
426.563
417.911
411.236
406.687
403.952
402.505
401.883
401.747
402.235
402.68
403.807
405.253
407.712
410.345
414.597
419.088
432.977
471.198
606.252
776.988
846.32
911.952
936.667
966.383
940.765
879.443
795.307
652.826
572.953
551.218
546.372
539.916
536.723
534.488
535.567
538.172
541.933
544.284
543.49
540.082
536.009
532.665
530.578
530.285
531.862
534.27
536.707
538.864
541.348
542.985
545.536
547.829
551.255
554.17
558.8
562.65
577.424
616.083
744.918
894.716
931.064
952.91
947.451
962.025
964.797
956.59
914.618
780.807
691.589
667.956
670.499
673.913
682.339
689.867
699.726
708.974
716.877
720.388
719.738
716.549
712.916
710.157
708.556
708.136
709.293
710.311
711.133
711.541
712.406
712.672
713.773
714.779
716.865
718.743
722.069
725.564
738.662
773.69
881.068
1006.48
1032.29
1007.03
953.418
939.142
995.697
1036.56
1005.81
895.932
815.849
791.489
793.211
796.933
804.379
810.452
817.658
822.811
824.246
821.331
815.924
809.874
805.277
803.118
803.696
805.438
802.459
797.089
793.817
791.755
790.921
790.061
790.189
790.531
791.803
793.242
796.065
799.782
809.84
837.695
912.683
1018.37
1077.29
1042.57
937.086
1103.55
893.376
1054.56
1029.34
958.799
907.047
890.066
890.055
892.584
898.391
904.162
910.791
914.697
914.647
911.783
907.605
903.329
900.231
898.343
896.701
895.249
893.729
892.303
889.976
887.444
886.041
884.496
883.746
883.203
883.363
883.411
884.741
886.221
891.579
903.745
941.313
996.146
1038.83
901.817
1003.47
14789.9
938.594
937.498
946.907
920.995
897.426
891.129
893.114
898.76
905.387
911.79
917.619
921.47
923.855
924.932
925.29
925.897
926.71
927.212
927.13
926.893
928.164
929.725
930.909
931.558
932.306
932.388
932.934
933.097
933.611
933.394
934.324
934.057
935.772
935.54
944.869
952.215
941.005
994.745
11173.2
14789.9
938.594
937.498
946.907
920.995
897.426
891.129
893.114
898.76
905.387
911.79
917.619
921.47
923.855
924.932
925.29
925.897
926.71
927.212
927.13
926.893
928.164
929.725
930.909
931.558
932.306
932.388
932.934
933.097
933.611
933.394
934.324
934.057
935.772
935.54
944.869
952.215
941.005
994.745
11173.2
1103.55
893.376
1054.56
1029.34
958.799
907.047
890.066
890.055
892.584
898.391
904.162
910.791
914.697
914.647
911.783
907.605
903.329
900.231
898.343
896.701
895.249
893.729
892.303
889.976
887.444
886.041
884.496
883.746
883.203
883.363
883.411
884.741
886.221
891.579
903.745
941.313
996.146
1038.83
901.817
1003.47
939.142
995.697
1036.56
1005.81
895.932
815.849
791.489
793.211
796.933
804.379
810.452
817.658
822.811
824.246
821.331
815.924
809.874
805.277
803.118
803.696
805.438
802.459
797.089
793.817
791.755
790.921
790.061
790.189
790.531
791.803
793.242
796.065
799.782
809.84
837.695
912.683
1018.37
1077.29
1042.57
937.086
962.025
964.797
956.59
914.618
780.807
691.589
667.956
670.499
673.913
682.339
689.867
699.726
708.974
716.877
720.388
719.738
716.549
712.916
710.157
708.556
708.136
709.293
710.311
711.133
711.541
712.406
712.672
713.773
714.779
716.865
718.743
722.069
725.564
738.662
773.69
881.068
1006.48
1032.29
1007.03
953.418
966.383
940.765
879.443
795.307
652.826
572.953
551.218
546.372
539.916
536.723
534.488
535.567
538.172
541.933
544.284
543.49
540.082
536.009
532.665
530.578
530.285
531.862
534.27
536.707
538.864
541.348
542.985
545.536
547.829
551.255
554.17
558.8
562.65
577.424
616.083
744.918
894.716
931.064
952.91
947.451
972.537
936.131
857.355
758.629
621.658
551.946
531.03
521.03
507.107
492.201
479.17
470.633
464.491
459.506
453.991
446.311
436.574
426.563
417.911
411.236
406.687
403.952
402.505
401.883
401.747
402.235
402.68
403.807
405.253
407.712
410.345
414.597
419.088
432.977
471.198
606.252
776.988
846.32
911.952
936.667
988.858
941.655
857.726
755.131
622.599
560.894
544.446
538.328
526.575
505.371
480.607
462.27
450.607
442.997
435.986
427.236
415.994
403.866
392.816
383.852
377.181
372.447
369.056
366.591
364.749
363.539
362.776
362.543
362.886
364.282
366.318
369.585
373.642
385.895
421.904
555.936
731.888
811.51
896.59
937.114
1003.38
952.701
874.968
769.878
639.962
581.303
568.262
566.464
560.595
541.598
509.171
476.669
454.952
441.909
432.346
422.862
411.184
398.009
385.463
374.993
366.959
361.052
356.778
353.695
351.409
349.819
348.754
348.265
348.395
349.477
351.335
354.307
358.056
369.556
404.269
537.581
714.445
797.518
889.493
935.465
1005.76
958.41
894.602
793.101
675.213
615.061
600.056
599.585
596.613
583.687
553.157
510.336
471.136
447.411
433.636
422.767
410.727
397.121
383.703
372.204
363.254
356.634
351.897
348.595
346.264
344.702
343.678
343.236
343.339
344.272
345.942
348.661
352.017
363.177
397.586
531.594
708.764
791.892
886.98
935.837
994.913
953.564
900.886
812.902
720.111
662.852
642.043
639.483
635.772
628.203
604.778
560.376
504.837
462.095
438.86
424.334
411.185
396.7
382.139
369.483
359.487
352.13
346.99
343.571
341.312
339.9
339.025
338.722
338.906
339.855
341.481
344.122
347.261
358.181
392.136
526.248
704.476
788.143
885.234
935.35
980.286
944.02
894.766
830.466
764.396
718.977
695.652
688.091
681.06
673.828
657.378
619.068
557.546
492.444
450.573
428.827
413.591
398.269
382.632
368.735
357.616
349.366
343.618
339.894
337.563
336.203
335.417
335.207
335.47
336.455
338.101
340.719
343.725
354.549
388.436
523.169
702.254
786.201
885.227
936.215
974.969
951.402
894.903
848.78
804.492
776.019
757.257
746.289
735.495
724.09
710.035
678.714
620.872
541.9
473.369
436.896
416.753
400.157
383.751
368.762
356.546
347.357
340.962
336.904
334.48
333.155
332.445
332.319
332.655
333.685
335.363
338.004
340.95
351.613
385.1
519.897
700.244
784.959
885.381
936.502
923.387
942.222
887.158
861.655
853.347
834.252
822.447
812.665
800.033
782.727
764.769
736.38
685.111
604.713
512.894
451.37
421.919
402.976
385.632
369.621
356.451
346.345
339.244
334.769
332.195
330.87
330.212
330.151
330.549
331.616
333.329
336.018
338.96
349.502
382.698
517.808
699.25
784.57
886.169
937.278
946.757
941.841
880.586
852.057
858.809
885.346
896.765
883.415
872.782
852.443
826.52
794.659
746.694
670.737
567.304
476.225
429.2
405.563
387.201
370.542
356.488
345.537
337.737
332.843
330.127
328.822
328.232
328.249
328.718
329.843
331.614
334.404
337.415
347.823
380.471
515.506
698.355
784.474
887.16
937.794
969.008
953.889
936.082
904.003
890.584
905.921
938.604
960.436
954.045
929.855
898.83
857.771
806.16
732.993
627.746
512.922
440.887
408.874
388.898
371.661
356.867
345.162
336.676
331.336
328.46
327.171
326.653
326.76
327.288
328.481
330.319
333.233
336.357
346.676
378.935
514.268
698.532
785.383
888.831
938.717
957.639
901.549
893.277
905.536
936.205
971.988
991.674
1020.85
1024.23
1016.03
979.491
929.17
867.095
790.766
686.512
557.754
458.264
412.758
390.131
372.49
357.279
344.945
335.812
330.035
327
325.725
325.292
325.496
326.075
327.333
329.244
332.305
335.553
345.742
377.368
512.509
698.283
786.089
890.088
939.053
963.502
888.038
836.611
838.093
881.316
958.854
1050.04
1085.23
1113.3
1094.2
1064.06
1008.5
933.137
846.422
739.627
603.628
480.644
418.156
391.458
373.334
357.846
344.999
335.27
329.066
325.871
324.613
324.26
324.558
325.189
326.51
328.496
331.711
335.087
345.18
376.312
511.585
698.985
787.938
892.338
939.791
959.081
877.483
792.93
780.394
815.963
892.703
1042.87
1117.15
1163.56
1182.28
1153.66
1090
1001.43
900.535
786.139
644.715
504.392
424.519
392.596
373.964
358.394
345.177
334.941
328.348
325.008
323.767
323.483
323.86
324.535
325.911
327.961
331.317
334.791
344.786
375.418
510.641
699.433
789.936
894.186
940.059
952.519
846.836
737.603
669.038
635.147
704.842
977.416
1206.38
1242
1258.81
1234.97
1168.09
1066.76
950.831
826.075
678.451
525.672
430.981
393.655
374.468
358.942
345.466
334.787
327.856
324.401
323.182
322.954
323.391
324.102
325.523
327.624
331.097
334.632
344.552
374.784
509.971
699.941
792.797
896.134
940.045
946.599
849.231
772.19
666.847
591.496
627.6
956.15
1321.57
1341.1
1333.05
1308.24
1232.63
1117.49
990.389
857.138
702.908
540.968
435.931
394.432
374.754
359.405
345.759
334.728
327.548
324.025
322.833
322.647
323.123
323.856
325.309
327.444
330.997
334.561
344.416
374.366
509.381
700.042
796.772
897.416
939.4
)
;

boundaryField
{
    inlet
    {
        type            fixedValue;
        value           uniform 10000;
    }
    outlet
    {
        type            fixedValue;
        value           uniform 1000;
    }
    obstacle
    {
        type            zeroGradient;
    }
    empty
    {
        type            empty;
    }
}


// ************************************************************************* //
