/*--------------------------------*- C++ -*----------------------------------*\
| =========                 |                                                 |
| \\      /  F ield         | OpenFOAM: The Open Source CFD Toolbox           |
|  \\    /   O peration     | Version:  v1912                                 |
|   \\  /    A nd           | Website:  www.openfoam.com                      |
|    \\/     M anipulation  |                                                 |
\*---------------------------------------------------------------------------*/
FoamFile
{
    version     2.0;
    format      ascii;
    class       volVectorField;
    location    "7.1";
    object      U;
}
// * * * * * * * * * * * * * * * * * * * * * * * * * * * * * * * * * * * * * //

dimensions      [0 1 -1 0 0 0 0];


internalField   nonuniform List<vector> 
1900
(
(-0.690463 -4.94553e-07 0)
(-0.00538476 -5.33062e-07 0)
(0.0846941 -1.87373e-06 0)
(0.0838014 -2.6349e-06 0)
(0.0864088 -5.9176e-06 0)
(0.0892048 -4.32501e-05 0)
(0.0927503 -0.000125057 0)
(0.0964579 0.000356728 0)
(0.0988011 0.00319487 0)
(0.091547 0.0119466 0)
(-0.690463 -2.66518e-07 0)
(-0.00538379 -8.59039e-07 0)
(0.0846935 -1.11755e-06 0)
(0.0837981 -2.89809e-06 0)
(0.0863927 -1.42325e-05 0)
(0.0891416 -5.81063e-05 0)
(0.0926162 -0.000161883 0)
(0.0959458 0.000319244 0)
(0.100679 0.00222196 0)
(0.102974 0.0113441 0)
(-0.690463 -2.71936e-14 0)
(-0.00538292 -1.22028e-14 0)
(0.0846925 -2.49238e-14 0)
(0.0837948 -2.63744e-14 0)
(0.0863755 -3.11537e-14 0)
(0.0890906 1.66779e-14 0)
(0.0925133 2.76414e-14 0)
(0.096087 1.88374e-14 0)
(0.101218 1.02625e-14 0)
(0.1098 1.36035e-14 0)
(-0.690463 2.66518e-07 0)
(-0.00538379 8.59039e-07 0)
(0.0846935 1.11755e-06 0)
(0.0837981 2.89809e-06 0)
(0.0863927 1.42325e-05 0)
(0.0891416 5.81063e-05 0)
(0.0926162 0.000161883 0)
(0.0959458 -0.000319244 0)
(0.100679 -0.00222196 0)
(0.102974 -0.0113441 0)
(-0.690463 4.94553e-07 0)
(-0.00538476 5.33062e-07 0)
(0.0846941 1.87373e-06 0)
(0.0838014 2.6349e-06 0)
(0.0864088 5.9176e-06 0)
(0.0892048 4.32501e-05 0)
(0.0927503 0.000125057 0)
(0.0964579 -0.000356728 0)
(0.0988011 -0.00319487 0)
(0.091547 -0.0119466 0)
(0.0934083 0.0384495 0)
(0.129828 0.0515168 0)
(0.177182 0.075712 0)
(0.25346 0.11734 0)
(0.398251 0.17386 0)
(0.117005 0.0276716 0)
(0.143658 0.0286279 0)
(0.174079 0.0381855 0)
(0.236419 0.0599757 0)
(0.377616 0.102459 0)
(0.128275 2.60035e-14 0)
(0.153006 9.34955e-15 0)
(0.184886 1.80524e-14 0)
(0.247641 1.49294e-15 0)
(0.387896 9.69321e-15 0)
(0.117005 -0.0276716 0)
(0.143658 -0.0286279 0)
(0.174079 -0.0381855 0)
(0.236419 -0.0599757 0)
(0.377616 -0.102459 0)
(0.0934083 -0.0384495 0)
(0.129828 -0.0515168 0)
(0.177182 -0.075712 0)
(0.25346 -0.11734 0)
(0.398251 -0.17386 0)
(0.847978 0.0301955 0)
(1.10927 -0.0517272 0)
(1.26124 -0.0840662 0)
(1.34626 -0.0935023 0)
(1.43075 -0.108979 0)
(0.820882 -0.017461 0)
(1.12174 -0.0482103 0)
(1.29299 -0.0595784 0)
(1.37962 -0.0591415 0)
(1.4562 -0.0780639 0)
(0.817013 3.08548e-15 0)
(1.12574 1.0516e-14 0)
(1.28838 -7.92118e-15 0)
(1.37097 -2.50703e-14 0)
(1.44415 1.51904e-13 0)
(0.820882 0.017461 0)
(1.12174 0.0482103 0)
(1.29299 0.0595784 0)
(1.37962 0.0591415 0)
(1.4562 0.0780639 0)
(0.847978 -0.0301955 0)
(1.10927 0.0517272 0)
(1.26124 0.0840662 0)
(1.34626 0.0935023 0)
(1.43075 0.108979 0)
(1.48666 -0.0330563 0)
(1.50366 0.00503618 0)
(1.52426 0.00947446 0)
(1.57539 -0.0287422 0)
(1.59828 -0.0209631 0)
(1.58104 0.000461696 0)
(1.36742 0.00201514 0)
(1.07811 -0.023006 0)
(1.02834 -0.0412066 0)
(0.9515 -0.0654815 0)
(0.825502 -0.0816949 0)
(0.684459 -0.0781122 0)
(0.564432 -0.0612414 0)
(0.473474 -0.0443938 0)
(0.396926 -0.0333642 0)
(0.309912 -0.0256399 0)
(0.201088 -0.0190422 0)
(0.117572 -0.0151251 0)
(0.0906629 -0.0138855 0)
(0.087789 -0.0135125 0)
(0.0897927 -0.0131499 0)
(0.0930143 -0.0126997 0)
(0.0986931 -0.0124184 0)
(0.108654 -0.0123388 0)
(0.122635 -0.01234 0)
(0.138872 -0.0123264 0)
(0.155748 -0.0123913 0)
(0.172237 -0.0122465 0)
(0.188447 -0.0123845 0)
(0.204085 -0.0122354 0)
(0.218902 -0.0124973 0)
(0.23269 -0.0121584 0)
(0.246523 -0.0127085 0)
(0.254902 -0.0123689 0)
(0.233891 -0.0127635 0)
(0.113705 -0.0123584 0)
(-0.013447 -0.012093 0)
(-0.0717425 -0.0102022 0)
(-0.0751518 -0.0175607 0)
(-0.118099 -0.0141315 0)
(1.48843 -0.0312426 0)
(1.50394 0.00576513 0)
(1.51997 0.0134211 0)
(1.58025 -0.00983585 0)
(1.61105 -0.0109049 0)
(1.58796 -0.00328718 0)
(1.382 -0.00150482 0)
(1.07828 -0.0127628 0)
(1.02547 -0.0204709 0)
(0.942014 -0.0318231 0)
(0.815553 -0.0380686 0)
(0.683852 -0.0367442 0)
(0.574001 -0.0317196 0)
(0.4849 -0.0229293 0)
(0.405422 -0.0170084 0)
(0.313961 -0.0126973 0)
(0.202085 -0.00954858 0)
(0.117716 -0.00756702 0)
(0.0906576 -0.00694277 0)
(0.0878305 -0.00675961 0)
(0.0898854 -0.00657031 0)
(0.0930679 -0.00635044 0)
(0.098746 -0.00620709 0)
(0.108734 -0.00617068 0)
(0.122745 -0.00617304 0)
(0.139017 -0.00616656 0)
(0.155928 -0.00619878 0)
(0.172447 -0.0061259 0)
(0.188686 -0.00619488 0)
(0.204348 -0.0061195 0)
(0.219187 -0.00625083 0)
(0.232993 -0.00607875 0)
(0.246855 -0.00635595 0)
(0.255254 -0.00617462 0)
(0.234372 -0.00637657 0)
(0.114429 -0.00614218 0)
(-0.0127866 -0.00598666 0)
(-0.0706299 -0.00491776 0)
(-0.0752531 -0.00892701 0)
(-0.118741 -0.0070525 0)
(1.48258 -2.418e-13 0)
(1.50328 5.55991e-14 0)
(1.52254 2.70534e-13 0)
(1.57975 1.51892e-12 0)
(1.61463 8.30578e-13 0)
(1.59037 3.42526e-13 0)
(1.38501 -4.36673e-13 0)
(1.07748 -1.06547e-12 0)
(1.02708 3.65728e-13 0)
(0.946023 1.01459e-12 0)
(0.827286 1.14957e-12 0)
(0.698013 3.25937e-13 0)
(0.576156 2.89475e-13 0)
(0.480236 8.88872e-13 0)
(0.401692 1.97982e-12 0)
(0.313787 2.10025e-12 0)
(0.203261 1.26485e-12 0)
(0.118165 -4.16521e-13 0)
(0.0907396 -1.56442e-12 0)
(0.0878838 -1.72108e-12 0)
(0.0899445 -1.799e-12 0)
(0.0931137 -1.74062e-13 0)
(0.0987578 1.52834e-12 0)
(0.108739 1.46956e-12 0)
(0.122755 -1.08945e-12 0)
(0.139033 -2.3571e-12 0)
(0.155948 -3.89574e-12 0)
(0.172469 -6.00871e-12 0)
(0.188713 -2.78987e-12 0)
(0.204382 -2.50197e-12 0)
(0.219229 -3.1588e-12 0)
(0.233045 4.87485e-13 0)
(0.246928 2.34569e-12 0)
(0.25536 1.00133e-12 0)
(0.234566 3.81508e-13 0)
(0.11478 1.05998e-12 0)
(-0.0123362 1.49205e-12 0)
(-0.0696574 2.17235e-12 0)
(-0.0743041 -6.10137e-13 0)
(-0.117576 -3.18844e-13 0)
(1.48843 0.0312426 0)
(1.50394 -0.00576513 0)
(1.51997 -0.0134211 0)
(1.58025 0.00983585 0)
(1.61105 0.0109049 0)
(1.58796 0.00328718 0)
(1.382 0.00150482 0)
(1.07828 0.0127628 0)
(1.02547 0.0204709 0)
(0.942014 0.0318231 0)
(0.815553 0.0380686 0)
(0.683852 0.0367442 0)
(0.574001 0.0317196 0)
(0.4849 0.0229293 0)
(0.405422 0.0170084 0)
(0.313961 0.0126973 0)
(0.202085 0.00954858 0)
(0.117716 0.00756702 0)
(0.0906576 0.00694277 0)
(0.0878305 0.00675961 0)
(0.0898854 0.00657031 0)
(0.0930679 0.00635044 0)
(0.098746 0.00620709 0)
(0.108734 0.00617068 0)
(0.122745 0.00617304 0)
(0.139017 0.00616656 0)
(0.155928 0.00619878 0)
(0.172447 0.0061259 0)
(0.188686 0.00619488 0)
(0.204348 0.0061195 0)
(0.219187 0.00625083 0)
(0.232993 0.00607875 0)
(0.246855 0.00635595 0)
(0.255254 0.00617462 0)
(0.234372 0.00637657 0)
(0.114429 0.00614218 0)
(-0.0127866 0.00598666 0)
(-0.0706299 0.00491776 0)
(-0.0752531 0.00892701 0)
(-0.118741 0.0070525 0)
(1.48666 0.0330563 0)
(1.50366 -0.00503618 0)
(1.52426 -0.00947446 0)
(1.57539 0.0287422 0)
(1.59828 0.0209631 0)
(1.58104 -0.000461696 0)
(1.36742 -0.00201514 0)
(1.07811 0.023006 0)
(1.02834 0.0412066 0)
(0.9515 0.0654815 0)
(0.825502 0.0816949 0)
(0.684459 0.0781122 0)
(0.564432 0.0612414 0)
(0.473474 0.0443938 0)
(0.396926 0.0333642 0)
(0.309912 0.0256399 0)
(0.201088 0.0190422 0)
(0.117572 0.0151251 0)
(0.0906629 0.0138855 0)
(0.087789 0.0135125 0)
(0.0897927 0.0131499 0)
(0.0930143 0.0126997 0)
(0.0986931 0.0124184 0)
(0.108654 0.0123388 0)
(0.122635 0.01234 0)
(0.138872 0.0123264 0)
(0.155748 0.0123913 0)
(0.172237 0.0122465 0)
(0.188447 0.0123845 0)
(0.204085 0.0122354 0)
(0.218902 0.0124973 0)
(0.23269 0.0121584 0)
(0.246523 0.0127085 0)
(0.254902 0.0123689 0)
(0.233891 0.0127635 0)
(0.113705 0.0123584 0)
(-0.013447 0.012093 0)
(-0.0717425 0.0102022 0)
(-0.0751518 0.0175607 0)
(-0.118099 0.0141315 0)
(1.50283 0.0314597 0)
(1.50893 0.0231403 0)
(1.51812 0.0244896 0)
(1.55096 0.0674634 0)
(1.55648 0.041588 0)
(1.51435 -0.00422665 0)
(1.28037 -0.00221335 0)
(1.04863 0.0383357 0)
(0.986821 0.0904565 0)
(0.890712 0.14519 0)
(0.761675 0.176308 0)
(0.643117 0.161904 0)
(0.549077 0.125569 0)
(0.470397 0.0924809 0)
(0.395892 0.0698877 0)
(0.306468 0.0534931 0)
(0.196041 0.0398395 0)
(0.114996 0.0314791 0)
(0.0899619 0.028814 0)
(0.0873784 0.0279558 0)
(0.0893754 0.0272202 0)
(0.0927407 0.0263865 0)
(0.0986203 0.0258519 0)
(0.108677 0.0256441 0)
(0.12268 0.0256189 0)
(0.138914 0.025585 0)
(0.155778 0.0257226 0)
(0.17228 0.0254278 0)
(0.1885 0.025713 0)
(0.204158 0.0254128 0)
(0.219008 0.0259428 0)
(0.232856 0.0252725 0)
(0.246707 0.02636 0)
(0.255165 0.0257729 0)
(0.233942 0.0265518 0)
(0.11362 0.0260085 0)
(-0.0127561 0.0256467 0)
(-0.0719539 0.0222457 0)
(-0.0730809 0.0332067 0)
(-0.11419 0.0289599 0)
(1.46034 0.179961 0)
(1.46502 0.161758 0)
(1.46603 0.136011 0)
(1.46171 0.169843 0)
(1.40975 0.141459 0)
(1.33285 0.0422829 0)
(1.12153 0.0283128 0)
(0.969768 0.0756985 0)
(0.866933 0.162849 0)
(0.752462 0.262733 0)
(0.641834 0.292965 0)
(0.563931 0.258224 0)
(0.498928 0.203894 0)
(0.436191 0.156056 0)
(0.370313 0.121075 0)
(0.285408 0.0931343 0)
(0.180687 0.0694272 0)
(0.108811 0.0557311 0)
(0.0882214 0.0514811 0)
(0.0863533 0.0498989 0)
(0.0882719 0.0486259 0)
(0.0918873 0.0473111 0)
(0.0982774 0.04644 0)
(0.108674 0.0460508 0)
(0.122774 0.0459689 0)
(0.138998 0.0458913 0)
(0.155826 0.0461358 0)
(0.172358 0.045614 0)
(0.188606 0.0461205 0)
(0.204318 0.0455982 0)
(0.21925 0.0465095 0)
(0.233256 0.0453715 0)
(0.247165 0.0471925 0)
(0.255787 0.0463282 0)
(0.234192 0.0475938 0)
(0.113808 0.0468383 0)
(-0.011287 0.0466401 0)
(-0.0717922 0.041904 0)
(-0.0721023 0.0555042 0)
(-0.112132 0.0515583 0)
(1.39417 0.285021 0)
(1.39234 0.274565 0)
(1.40864 0.254079 0)
(1.37152 0.245856 0)
(1.30024 0.188274 0)
(1.19272 0.113445 0)
(1.0169 0.118421 0)
(0.851895 0.183936 0)
(0.718689 0.310203 0)
(0.600762 0.388751 0)
(0.523374 0.378756 0)
(0.479049 0.323341 0)
(0.437556 0.257678 0)
(0.392052 0.203595 0)
(0.336384 0.162822 0)
(0.255867 0.126935 0)
(0.159028 0.0956775 0)
(0.10051 0.0789126 0)
(0.0857503 0.0737166 0)
(0.0847749 0.0715212 0)
(0.0866495 0.0697043 0)
(0.090637 0.0679494 0)
(0.0976633 0.0667981 0)
(0.108541 0.0662442 0)
(0.122825 0.0660921 0)
(0.13906 0.0659573 0)
(0.155832 0.0663074 0)
(0.172399 0.0655803 0)
(0.188666 0.0663028 0)
(0.204433 0.0655946 0)
(0.219454 0.0668379 0)
(0.23365 0.065347 0)
(0.247636 0.0677283 0)
(0.256417 0.0667694 0)
(0.234302 0.0683585 0)
(0.113947 0.0674096 0)
(-0.00962329 0.0678315 0)
(-0.0709954 0.062094 0)
(-0.0715193 0.0769552 0)
(-0.111153 0.0734881 0)
(1.26523 0.335326 0)
(1.27106 0.322199 0)
(1.26427 0.304948 0)
(1.22256 0.291278 0)
(1.14519 0.249152 0)
(1.02084 0.215673 0)
(0.842527 0.247693 0)
(0.669797 0.351331 0)
(0.536855 0.454441 0)
(0.447539 0.473042 0)
(0.415674 0.434986 0)
(0.399904 0.364734 0)
(0.377767 0.294151 0)
(0.345788 0.240385 0)
(0.297002 0.196468 0)
(0.219218 0.153821 0)
(0.134189 0.118075 0)
(0.0919908 0.101052 0)
(0.0829859 0.0955182 0)
(0.0827152 0.0927844 0)
(0.0846449 0.0903884 0)
(0.0891224 0.0882441 0)
(0.0968565 0.0868494 0)
(0.108283 0.086167 0)
(0.122798 0.0859557 0)
(0.139059 0.0857631 0)
(0.155762 0.0862207 0)
(0.17237 0.0853111 0)
(0.188638 0.0862431 0)
(0.204451 0.0853906 0)
(0.219551 0.0869216 0)
(0.233951 0.0851883 0)
(0.248025 0.0879671 0)
(0.256916 0.0870485 0)
(0.234205 0.088867 0)
(0.113833 0.0878406 0)
(-0.00814044 0.089148 0)
(-0.0701264 0.0825514 0)
(-0.0711027 0.0982188 0)
(-0.110735 0.0951388 0)
(1.09282 0.405855 0)
(1.08319 0.389182 0)
(1.04159 0.367582 0)
(0.989625 0.345796 0)
(0.903524 0.331774 0)
(0.754697 0.342542 0)
(0.575284 0.416012 0)
(0.432446 0.515594 0)
(0.350856 0.543465 0)
(0.323849 0.521391 0)
(0.328651 0.457758 0)
(0.331257 0.380527 0)
(0.321973 0.317473 0)
(0.298816 0.267433 0)
(0.252402 0.220325 0)
(0.177139 0.172361 0)
(0.109302 0.136796 0)
(0.0835354 0.122136 0)
(0.0793287 0.116749 0)
(0.0796861 0.113477 0)
(0.0820517 0.110518 0)
(0.0872966 0.108124 0)
(0.0958818 0.106513 0)
(0.10797 0.105735 0)
(0.122803 0.10548 0)
(0.139161 0.105235 0)
(0.155843 0.105805 0)
(0.172557 0.104734 0)
(0.188862 0.105867 0)
(0.204769 0.104911 0)
(0.219991 0.106687 0)
(0.234651 0.104806 0)
(0.248894 0.107839 0)
(0.257933 0.107012 0)
(0.234803 0.108997 0)
(0.114821 0.10792 0)
(-0.00512521 0.110096 0)
(-0.0670634 0.102601 0)
(-0.0683611 0.118735 0)
(-0.10796 0.116096 0)
(0.848185 0.456953 0)
(0.807968 0.437191 0)
(0.75497 0.412883 0)
(0.677475 0.403708 0)
(0.553379 0.431025 0)
(0.405076 0.502912 0)
(0.284789 0.582724 0)
(0.229245 0.605979 0)
(0.217222 0.582182 0)
(0.238087 0.525723 0)
(0.259876 0.45431 0)
(0.272273 0.389506 0)
(0.270732 0.335642 0)
(0.250909 0.286812 0)
(0.202969 0.235776 0)
(0.134644 0.186002 0)
(0.0894801 0.155242 0)
(0.0772675 0.14314 0)
(0.0759447 0.13767 0)
(0.076589 0.1337 0)
(0.0794402 0.130235 0)
(0.085447 0.127518 0)
(0.0948359 0.125799 0)
(0.107491 0.124961 0)
(0.122558 0.124682 0)
(0.138933 0.1244 0)
(0.155501 0.125079 0)
(0.172255 0.123862 0)
(0.188488 0.125199 0)
(0.204395 0.124181 0)
(0.219634 0.126167 0)
(0.23445 0.124217 0)
(0.248767 0.127392 0)
(0.257757 0.126698 0)
(0.233963 0.128818 0)
(0.113746 0.12785 0)
(-0.00463404 0.131 0)
(-0.0670175 0.122674 0)
(-0.0689117 0.139472 0)
(-0.109314 0.137094 0)
(0.532776 0.478493 0)
(0.458389 0.479228 0)
(0.3894 0.467589 0)
(0.285412 0.517399 0)
(0.184347 0.590133 0)
(0.11628 0.642807 0)
(0.0976124 0.646831 0)
(0.109858 0.618545 0)
(0.142383 0.566957 0)
(0.177095 0.506817 0)
(0.203793 0.447656 0)
(0.22113 0.394224 0)
(0.222557 0.345274 0)
(0.200614 0.295377 0)
(0.150646 0.241195 0)
(0.0968102 0.195636 0)
(0.0732829 0.17282 0)
(0.0698576 0.163291 0)
(0.0704492 0.157666 0)
(0.0720447 0.15309 0)
(0.0760731 0.149339 0)
(0.0832532 0.146511 0)
(0.0937501 0.144703 0)
(0.107238 0.143824 0)
(0.122787 0.143529 0)
(0.13941 0.143213 0)
(0.1561 0.143991 0)
(0.173073 0.142627 0)
(0.189423 0.144156 0)
(0.205505 0.143102 0)
(0.220914 0.145259 0)
(0.235997 0.143277 0)
(0.250501 0.146519 0)
(0.259618 0.145935 0)
(0.235722 0.148201 0)
(0.11623 0.147439 0)
(-0.000289068 0.151509 0)
(-0.0627331 0.142374 0)
(-0.0649369 0.159564 0)
(-0.105732 0.157569 0)
(0.141411 0.526507 0)
(0.0901931 0.552791 0)
(0.0486803 0.584818 0)
(-0.00318777 0.635776 0)
(-0.0269398 0.667703 0)
(-0.0176281 0.661417 0)
(0.011724 0.632877 0)
(0.0504851 0.591386 0)
(0.0893566 0.542031 0)
(0.125383 0.490996 0)
(0.155571 0.442748 0)
(0.174313 0.396442 0)
(0.173714 0.349285 0)
(0.146624 0.297227 0)
(0.101107 0.244292 0)
(0.0699164 0.208649 0)
(0.0632908 0.192099 0)
(0.0643922 0.183496 0)
(0.0658955 0.177204 0)
(0.0681925 0.172056 0)
(0.0731466 0.168045 0)
(0.0812684 0.165081 0)
(0.0925235 0.163229 0)
(0.106463 0.16234 0)
(0.122159 0.162049 0)
(0.138745 0.161691 0)
(0.15539 0.162559 0)
(0.17224 0.161093 0)
(0.188598 0.162766 0)
(0.204705 0.161727 0)
(0.220143 0.164028 0)
(0.235364 0.162062 0)
(0.249945 0.165324 0)
(0.25903 0.164791 0)
(0.234824 0.16711 0)
(0.115508 0.166462 0)
(0.000792353 0.171498 0)
(-0.0616163 0.162009 0)
(-0.0640733 0.179689 0)
(-0.105724 0.178053 0)
(-0.104383 0.555386 0)
(-0.114933 0.581109 0)
(-0.109124 0.615539 0)
(-0.108071 0.647486 0)
(-0.093841 0.652476 0)
(-0.0687518 0.633692 0)
(-0.0348257 0.601048 0)
(0.00701848 0.561496 0)
(0.046613 0.517708 0)
(0.0837867 0.475329 0)
(0.114907 0.434424 0)
(0.130505 0.391268 0)
(0.123881 0.343221 0)
(0.0934749 0.290417 0)
(0.0612862 0.246038 0)
(0.0504683 0.222049 0)
(0.0526929 0.210043 0)
(0.0563342 0.201969 0)
(0.0592141 0.195328 0)
(0.0631155 0.190026 0)
(0.0696345 0.186248 0)
(0.0791478 0.18327 0)
(0.0916324 0.181392 0)
(0.106453 0.180478 0)
(0.122681 0.180173 0)
(0.139569 0.179741 0)
(0.15646 0.180661 0)
(0.173427 0.179122 0)
(0.189988 0.180854 0)
(0.206237 0.179833 0)
(0.221778 0.182226 0)
(0.237121 0.180266 0)
(0.251706 0.183495 0)
(0.260755 0.182979 0)
(0.236653 0.185402 0)
(0.118068 0.185052 0)
(0.00484287 0.191026 0)
(-0.0578274 0.181213 0)
(-0.0605063 0.199342 0)
(-0.10297 0.198245 0)
(-0.151593 0.535504 0)
(-0.145924 0.558603 0)
(-0.131323 0.589886 0)
(-0.123276 0.619341 0)
(-0.121285 0.620296 0)
(-0.103879 0.599127 0)
(-0.0706542 0.567824 0)
(-0.0292042 0.532535 0)
(0.0107132 0.496676 0)
(0.0476073 0.461688 0)
(0.0759479 0.42461 0)
(0.0844079 0.382267 0)
(0.0716594 0.333685 0)
(0.0474802 0.286845 0)
(0.0361066 0.255755 0)
(0.0391676 0.239041 0)
(0.0456193 0.228631 0)
(0.0503074 0.220079 0)
(0.0538086 0.212786 0)
(0.0589169 0.207511 0)
(0.0664924 0.20348 0)
(0.0768894 0.200507 0)
(0.0899763 0.198672 0)
(0.105098 0.197808 0)
(0.121405 0.19756 0)
(0.138265 0.197106 0)
(0.155157 0.198129 0)
(0.172076 0.196602 0)
(0.188744 0.198396 0)
(0.205083 0.197473 0)
(0.220708 0.199965 0)
(0.236175 0.198059 0)
(0.250764 0.201249 0)
(0.25978 0.200733 0)
(0.235801 0.203242 0)
(0.117926 0.203198 0)
(0.00664738 0.210261 0)
(-0.055634 0.200378 0)
(-0.0581502 0.218941 0)
(-0.101144 0.218431 0)
(-0.149625 0.516322 0)
(-0.135104 0.535727 0)
(-0.121358 0.564391 0)
(-0.124864 0.58637 0)
(-0.142705 0.584934 0)
(-0.135253 0.561836 0)
(-0.0994113 0.536738 0)
(-0.0591396 0.50645 0)
(-0.0189637 0.477542 0)
(0.0157874 0.446042 0)
(0.0375778 0.409161 0)
(0.0382096 0.365899 0)
(0.0249014 0.320244 0)
(0.0141417 0.284897 0)
(0.0173306 0.264857 0)
(0.0266176 0.252833 0)
(0.0349718 0.243187 0)
(0.0411556 0.234966 0)
(0.0465986 0.228476 0)
(0.0534964 0.223274 0)
(0.0630778 0.219484 0)
(0.0752899 0.216599 0)
(0.0898344 0.214821 0)
(0.105969 0.213995 0)
(0.122915 0.213803 0)
(0.14017 0.213317 0)
(0.157363 0.214426 0)
(0.174433 0.212927 0)
(0.191341 0.214683 0)
(0.207799 0.213847 0)
(0.223498 0.216382 0)
(0.23899 0.214506 0)
(0.253423 0.217634 0)
(0.262394 0.217095 0)
(0.239041 0.219692 0)
(0.122727 0.219908 0)
(0.0129296 0.227969 0)
(-0.0495216 0.218319 0)
(-0.0520766 0.237442 0)
(-0.0957296 0.237602 0)
(-0.131535 0.502777 0)
(-0.111471 0.509485 0)
(-0.0995637 0.533059 0)
(-0.119851 0.551755 0)
(-0.15755 0.548091 0)
(-0.157047 0.525098 0)
(-0.119283 0.508889 0)
(-0.0820361 0.482528 0)
(-0.0444076 0.458451 0)
(-0.0162408 0.428073 0)
(-0.00341432 0.391356 0)
(-0.00605245 0.350769 0)
(-0.00967787 0.315681 0)
(-0.00424543 0.292949 0)
(0.00729717 0.27828 0)
(0.0189939 0.267413 0)
(0.0288301 0.25839 0)
(0.0355972 0.249847 0)
(0.0419684 0.242603 0)
(0.0500862 0.237437 0)
(0.0604062 0.23387 0)
(0.0729829 0.231188 0)
(0.0876192 0.229657 0)
(0.103686 0.229069 0)
(0.120524 0.229126 0)
(0.137705 0.228774 0)
(0.154907 0.230106 0)
(0.171938 0.22876 0)
(0.189036 0.230511 0)
(0.205598 0.229828 0)
(0.221393 0.232369 0)
(0.236995 0.230525 0)
(0.251381 0.23355 0)
(0.260332 0.232916 0)
(0.237342 0.235454 0)
(0.122442 0.235856 0)
(0.0149326 0.245243 0)
(-0.0468811 0.23628 0)
(-0.0488428 0.255774 0)
(-0.0924819 0.256964 0)
(-0.101676 0.485351 0)
(-0.0897044 0.484026 0)
(-0.081135 0.498455 0)
(-0.115939 0.51776 0)
(-0.167626 0.513728 0)
(-0.173679 0.494961 0)
(-0.138633 0.486401 0)
(-0.105323 0.462449 0)
(-0.0720367 0.439715 0)
(-0.0513655 0.408173 0)
(-0.0425465 0.372042 0)
(-0.0405072 0.337048 0)
(-0.0331712 0.312815 0)
(-0.0197393 0.298385 0)
(-0.00483702 0.288288 0)
(0.00826448 0.278882 0)
(0.0180435 0.269572 0)
(0.0259228 0.261567 0)
(0.0342522 0.255246 0)
(0.0446549 0.25102 0)
(0.0572433 0.248057 0)
(0.071872 0.245608 0)
(0.0881264 0.244117 0)
(0.105307 0.243491 0)
(0.122835 0.243546 0)
(0.140392 0.243084 0)
(0.157826 0.244444 0)
(0.174898 0.243132 0)
(0.192121 0.244594 0)
(0.208646 0.243897 0)
(0.224419 0.246209 0)
(0.239952 0.244205 0)
(0.254075 0.246931 0)
(0.262924 0.246081 0)
(0.240641 0.248507 0)
(0.128366 0.249103 0)
(0.0228132 0.259276 0)
(-0.0384751 0.251294 0)
(-0.0398343 0.271348 0)
(-0.0830956 0.273805 0)
(-0.0708411 0.467993 0)
(-0.0737673 0.463692 0)
(-0.067957 0.468154 0)
(-0.111841 0.487862 0)
(-0.170568 0.48446 0)
(-0.185203 0.471056 0)
(-0.155205 0.464939 0)
(-0.126273 0.440306 0)
(-0.0973787 0.414819 0)
(-0.08224 0.381886 0)
(-0.0721372 0.352289 0)
(-0.0610385 0.333497 0)
(-0.0452691 0.320132 0)
(-0.0290952 0.307739 0)
(-0.0132867 0.297419 0)
(0.000317963 0.288251 0)
(0.0108602 0.279341 0)
(0.0199294 0.271075 0)
(0.0297685 0.264405 0)
(0.041459 0.259946 0)
(0.0547931 0.256691 0)
(0.0697762 0.253942 0)
(0.0862802 0.252212 0)
(0.103688 0.251364 0)
(0.12143 0.251216 0)
(0.139241 0.250348 0)
(0.156906 0.251493 0)
(0.174341 0.249899 0)
(0.191675 0.250907 0)
(0.208303 0.249998 0)
(0.224214 0.252126 0)
(0.239769 0.249922 0)
(0.253826 0.252571 0)
(0.262433 0.251408 0)
(0.240617 0.253231 0)
(0.132167 0.253691 0)
(0.0304067 0.267189 0)
(-0.0303402 0.263015 0)
(-0.0309504 0.285614 0)
(-0.0731204 0.290936 0)
(-0.0527481 0.450978 0)
(-0.0622331 0.44856 0)
(-0.0590767 0.447307 0)
(-0.107089 0.463253 0)
(-0.168524 0.457255 0)
(-0.192625 0.441986 0)
(-0.168562 0.432225 0)
(-0.145854 0.407639 0)
(-0.123212 0.386126 0)
(-0.109026 0.363064 0)
(-0.0929497 0.344586 0)
(-0.0765449 0.326484 0)
(-0.0584332 0.312822 0)
(-0.0408789 0.300988 0)
(-0.0244422 0.28987 0)
(-0.0108005 0.278497 0)
(0.000287308 0.267285 0)
(0.0109386 0.257281 0)
(0.0228325 0.249387 0)
(0.0364332 0.243797 0)
(0.0515741 0.239024 0)
(0.068043 0.234168 0)
(0.0855404 0.230115 0)
(0.103578 0.227075 0)
(0.121691 0.225031 0)
(0.139724 0.222247 0)
(0.157734 0.222266 0)
(0.175285 0.219432 0)
(0.192682 0.21953 0)
(0.209468 0.217987 0)
(0.225553 0.220111 0)
(0.241099 0.217548 0)
(0.255259 0.220573 0)
(0.263326 0.219467 0)
(0.24241 0.222067 0)
(0.141517 0.226862 0)
(0.0480677 0.251133 0)
(-0.012283 0.261594 0)
(-0.0136702 0.293578 0)
(-0.0558927 0.303594 0)
(-0.0523834 0.437382 0)
(-0.0641452 0.430471 0)
(-0.060333 0.417193 0)
(-0.105829 0.420336 0)
(-0.169823 0.409322 0)
(-0.205501 0.394056 0)
(-0.189418 0.38019 0)
(-0.170718 0.352954 0)
(-0.148753 0.331312 0)
(-0.131166 0.306492 0)
(-0.111526 0.286948 0)
(-0.0929722 0.267779 0)
(-0.0739923 0.250487 0)
(-0.0554969 0.233429 0)
(-0.0387631 0.215773 0)
(-0.0244119 0.197613 0)
(-0.0118098 0.180439 0)
(0.000693503 0.165621 0)
(0.0144644 0.153988 0)
(0.0292818 0.145384 0)
(0.0451891 0.13753 0)
(0.061822 0.128969 0)
(0.0797619 0.121379 0)
(0.0983842 0.115434 0)
(0.117047 0.111237 0)
(0.135597 0.106281 0)
(0.154254 0.105288 0)
(0.172065 0.101083 0)
(0.189968 0.100494 0)
(0.207277 0.0984038 0)
(0.223949 0.100967 0)
(0.240036 0.0988699 0)
(0.254685 0.10377 0)
(0.262662 0.105433 0)
(0.245706 0.113756 0)
(0.161926 0.133962 0)
(0.0849948 0.18286 0)
(0.0269631 0.22956 0)
(0.0184167 0.293201 0)
(-0.0308328 0.316329 0)
(-0.0616445 0.434226 0)
(-0.0860591 0.411125 0)
(-0.0882361 0.364066 0)
(-0.132619 0.336056 0)
(-0.192065 0.300891 0)
(-0.232465 0.275836 0)
(-0.219398 0.258533 0)
(-0.200348 0.23066 0)
(-0.175375 0.211549 0)
(-0.155777 0.186953 0)
(-0.133291 0.167936 0)
(-0.113324 0.14799 0)
(-0.092842 0.129974 0)
(-0.0737773 0.112077 0)
(-0.0565676 0.094166 0)
(-0.0413171 0.0766407 0)
(-0.0262534 0.0607652 0)
(-0.0109522 0.0473359 0)
(0.00531142 0.0368802 0)
(0.0221831 0.0294932 0)
(0.0388145 0.0229724 0)
(0.0556947 0.0159953 0)
(0.074716 0.0110358 0)
(0.0947736 0.00783949 0)
(0.114919 0.00639526 0)
(0.134939 0.00352922 0)
(0.154986 0.00469158 0)
(0.1742 0.00255676 0)
(0.19336 0.00372819 0)
(0.21206 0.00348964 0)
(0.230137 0.00763551 0)
(0.247936 0.00790464 0)
(0.26349 0.0146184 0)
(0.274411 0.0194004 0)
(0.266916 0.0339837 0)
(0.208484 0.0672614 0)
(0.150685 0.132655 0)
(0.0945592 0.192075 0)
(0.080851 0.278235 0)
(0.0105341 0.316424 0)
(-0.0754728 0.458877 0)
(-0.142844 0.420547 0)
(-0.152865 0.320844 0)
(-0.171725 0.245965 0)
(-0.210902 0.185023 0)
(-0.235437 0.153032 0)
(-0.221138 0.140351 0)
(-0.203239 0.119927 0)
(-0.179129 0.10889 0)
(-0.160004 0.090085 0)
(-0.137713 0.0766347 0)
(-0.117386 0.0611378 0)
(-0.0962575 0.0470248 0)
(-0.0779973 0.0320098 0)
(-0.0606931 0.017589 0)
(-0.0454267 0.00380415 0)
(-0.0305706 -0.00804108 0)
(-0.0151679 -0.0176427 0)
(0.00121165 -0.0245181 0)
(0.0180833 -0.0282441 0)
(0.0335139 -0.0313606 0)
(0.0475187 -0.0377216 0)
(0.0661066 -0.0430634 0)
(0.0857109 -0.046186 0)
(0.105249 -0.0470015 0)
(0.124503 -0.0497736 0)
(0.143931 -0.0483889 0)
(0.162999 -0.0502335 0)
(0.181966 -0.0491336 0)
(0.200697 -0.0492386 0)
(0.219084 -0.0453995 0)
(0.237551 -0.0446254 0)
(0.253919 -0.0376259 0)
(0.267896 -0.0324421 0)
(0.271442 -0.0182566 0)
(0.246039 0.0146712 0)
(0.205189 0.0779942 0)
(0.19331 0.177473 0)
(0.166852 0.31973 0)
(0.051433 0.371798 0)
(-0.541227 0.383965 0)
(-0.312436 0.417446 0)
(-0.287983 0.269698 0)
(-0.253351 0.191556 0)
(-0.270608 0.13785 0)
(-0.27299 0.114535 0)
(-0.254942 0.1112 0)
(-0.235625 0.0962195 0)
(-0.211192 0.0912968 0)
(-0.190744 0.0763881 0)
(-0.167565 0.066295 0)
(-0.146324 0.053027 0)
(-0.125104 0.0402147 0)
(-0.106081 0.0263898 0)
(-0.0873501 0.0133687 0)
(-0.0697563 0.000994271 0)
(-0.0522023 -0.00986327 0)
(-0.0341102 -0.0188304 0)
(-0.0150981 -0.0254063 0)
(0.00498478 -0.0296736 0)
(0.0277248 -0.0347101 0)
(0.052709 -0.0399532 0)
(0.0744495 -0.0444231 0)
(0.0952332 -0.0475951 0)
(0.115513 -0.0488154 0)
(0.135717 -0.0522506 0)
(0.155884 -0.0513054 0)
(0.175766 -0.0534816 0)
(0.19555 -0.0526949 0)
(0.215266 -0.0528913 0)
(0.234543 -0.0491978 0)
(0.253665 -0.0480016 0)
(0.27079 -0.04057 0)
(0.286896 -0.0347382 0)
(0.297656 -0.0207429 0)
(0.299828 0.00707935 0)
(0.285372 0.0655027 0)
(0.327627 0.149705 0)
(0.338693 0.329815 0)
(0.515107 0.340686 0)
(-0.943225 0.968416 0)
(-0.351408 0.568591 0)
(-0.336416 0.146249 0)
(-0.28095 0.104032 0)
(-0.283954 0.0619066 0)
(-0.276277 0.0435386 0)
(-0.257805 0.0447206 0)
(-0.238627 0.0338861 0)
(-0.215346 0.0346266 0)
(-0.194204 0.023996 0)
(-0.171198 0.0170979 0)
(-0.149923 0.00574944 0)
(-0.129408 -0.00699637 0)
(-0.11054 -0.0208901 0)
(-0.0921485 -0.033797 0)
(-0.0740272 -0.045333 0)
(-0.0554027 -0.0550414 0)
(-0.0360102 -0.0630562 0)
(-0.0156721 -0.0691768 0)
(0.00536551 -0.0734931 0)
(0.026735 -0.0785129 0)
(0.0483944 -0.0827578 0)
(0.0701767 -0.0854526 0)
(0.0916603 -0.0872616 0)
(0.11259 -0.0875782 0)
(0.133195 -0.0912697 0)
(0.15365 -0.0903164 0)
(0.173744 -0.0929373 0)
(0.193945 -0.0927344 0)
(0.21407 -0.0934207 0)
(0.233853 -0.0904029 0)
(0.253644 -0.0891676 0)
(0.27177 -0.0817771 0)
(0.290123 -0.0753545 0)
(0.30532 -0.0618815 0)
(0.319858 -0.0402751 0)
(0.321314 -0.00199281 0)
(0.374233 0.0385844 0)
(0.348586 0.493025 0)
(0.919923 0.926032 0)
(-0.943225 -0.968416 0)
(-0.351408 -0.568591 0)
(-0.336416 -0.146249 0)
(-0.28095 -0.104032 0)
(-0.283954 -0.0619066 0)
(-0.276277 -0.0435386 0)
(-0.257805 -0.0447206 0)
(-0.238627 -0.0338861 0)
(-0.215346 -0.0346266 0)
(-0.194204 -0.023996 0)
(-0.171198 -0.0170979 0)
(-0.149923 -0.00574944 0)
(-0.129408 0.00699637 0)
(-0.11054 0.0208901 0)
(-0.0921485 0.033797 0)
(-0.0740272 0.045333 0)
(-0.0554027 0.0550414 0)
(-0.0360102 0.0630562 0)
(-0.0156721 0.0691768 0)
(0.00536551 0.0734931 0)
(0.026735 0.0785129 0)
(0.0483944 0.0827578 0)
(0.0701767 0.0854526 0)
(0.0916603 0.0872616 0)
(0.11259 0.0875782 0)
(0.133195 0.0912697 0)
(0.15365 0.0903164 0)
(0.173744 0.0929373 0)
(0.193945 0.0927344 0)
(0.21407 0.0934207 0)
(0.233853 0.0904029 0)
(0.253644 0.0891676 0)
(0.27177 0.0817771 0)
(0.290123 0.0753545 0)
(0.30532 0.0618815 0)
(0.319858 0.0402751 0)
(0.321314 0.00199281 0)
(0.374233 -0.0385844 0)
(0.348586 -0.493025 0)
(0.919923 -0.926032 0)
(-0.541227 -0.383965 0)
(-0.312436 -0.417446 0)
(-0.287983 -0.269698 0)
(-0.253351 -0.191556 0)
(-0.270608 -0.13785 0)
(-0.27299 -0.114535 0)
(-0.254942 -0.1112 0)
(-0.235625 -0.0962195 0)
(-0.211192 -0.0912968 0)
(-0.190744 -0.0763881 0)
(-0.167565 -0.066295 0)
(-0.146324 -0.053027 0)
(-0.125104 -0.0402147 0)
(-0.106081 -0.0263898 0)
(-0.0873501 -0.0133687 0)
(-0.0697563 -0.000994271 0)
(-0.0522023 0.00986327 0)
(-0.0341102 0.0188304 0)
(-0.0150981 0.0254063 0)
(0.00498478 0.0296736 0)
(0.0277248 0.0347101 0)
(0.052709 0.0399532 0)
(0.0744495 0.0444231 0)
(0.0952332 0.0475951 0)
(0.115513 0.0488154 0)
(0.135717 0.0522506 0)
(0.155884 0.0513054 0)
(0.175766 0.0534816 0)
(0.19555 0.0526949 0)
(0.215266 0.0528913 0)
(0.234543 0.0491978 0)
(0.253665 0.0480016 0)
(0.27079 0.04057 0)
(0.286896 0.0347382 0)
(0.297656 0.0207429 0)
(0.299828 -0.00707935 0)
(0.285372 -0.0655027 0)
(0.327627 -0.149705 0)
(0.338693 -0.329815 0)
(0.515107 -0.340686 0)
(-0.0754728 -0.458877 0)
(-0.142844 -0.420547 0)
(-0.152865 -0.320844 0)
(-0.171725 -0.245965 0)
(-0.210902 -0.185023 0)
(-0.235437 -0.153032 0)
(-0.221138 -0.140351 0)
(-0.203239 -0.119927 0)
(-0.179129 -0.10889 0)
(-0.160004 -0.090085 0)
(-0.137713 -0.0766347 0)
(-0.117386 -0.0611378 0)
(-0.0962575 -0.0470248 0)
(-0.0779973 -0.0320098 0)
(-0.0606931 -0.017589 0)
(-0.0454267 -0.00380415 0)
(-0.0305706 0.00804108 0)
(-0.0151679 0.0176427 0)
(0.00121165 0.0245181 0)
(0.0180833 0.0282441 0)
(0.0335139 0.0313606 0)
(0.0475187 0.0377216 0)
(0.0661066 0.0430634 0)
(0.0857109 0.046186 0)
(0.105249 0.0470015 0)
(0.124503 0.0497736 0)
(0.143931 0.0483889 0)
(0.162999 0.0502335 0)
(0.181966 0.0491336 0)
(0.200697 0.0492386 0)
(0.219084 0.0453995 0)
(0.237551 0.0446254 0)
(0.253919 0.0376259 0)
(0.267896 0.0324421 0)
(0.271442 0.0182566 0)
(0.246039 -0.0146712 0)
(0.205189 -0.0779942 0)
(0.19331 -0.177473 0)
(0.166852 -0.31973 0)
(0.051433 -0.371798 0)
(-0.0616445 -0.434226 0)
(-0.0860591 -0.411125 0)
(-0.0882361 -0.364066 0)
(-0.132619 -0.336056 0)
(-0.192065 -0.300891 0)
(-0.232465 -0.275836 0)
(-0.219398 -0.258533 0)
(-0.200348 -0.23066 0)
(-0.175375 -0.211549 0)
(-0.155777 -0.186953 0)
(-0.133291 -0.167936 0)
(-0.113324 -0.14799 0)
(-0.092842 -0.129974 0)
(-0.0737773 -0.112077 0)
(-0.0565676 -0.094166 0)
(-0.0413171 -0.0766407 0)
(-0.0262534 -0.0607652 0)
(-0.0109522 -0.0473359 0)
(0.00531142 -0.0368802 0)
(0.0221831 -0.0294932 0)
(0.0388145 -0.0229724 0)
(0.0556947 -0.0159953 0)
(0.074716 -0.0110358 0)
(0.0947736 -0.00783949 0)
(0.114919 -0.00639526 0)
(0.134939 -0.00352922 0)
(0.154986 -0.00469158 0)
(0.1742 -0.00255676 0)
(0.19336 -0.00372819 0)