/*--------------------------------*- C++ -*----------------------------------*\
| =========                 |                                                 |
| \\      /  F ield         | OpenFOAM: The Open Source CFD Toolbox           |
|  \\    /   O peration     | Version:  v1912                                 |
|   \\  /    A nd           | Website:  www.openfoam.com                      |
|    \\/     M anipulation  |                                                 |
\*---------------------------------------------------------------------------*/
FoamFile
{
    version     2.0;
    format      ascii;
    class       volScalarField;
    location    "5.96";
    object      rho;
}
// * * * * * * * * * * * * * * * * * * * * * * * * * * * * * * * * * * * * * //

dimensions      [1 -3 0 0 0 0 0];


internalField   nonuniform List<scalar> 
1900
(
38912.8
15180.1
13560.2
13247.3
12964.7
12811.1
12737.3
12689.4
12670.3
12680.2
38912.7
15180.2
13560.2
13247.1
12964.2
12810.6
12732.9
12691.2
12679
12680.7
38912.7
15180.2
13560.1
13246.9
12964
12810.9
12732.2
12689.8
12673.1
12673.5
38912.7
15180.2
13560.2
13247.1
12964.2
12810.6
12732.9
12691.2
12679
12680.7
38912.8
15180.1
13560.2
13247.3
12964.7
12811.1
12737.3
12689.4
12670.3
12680.2
12846.1
12688.4
12592.6
12287.7
12287.5
12708.9
12612.8
12536.5
12257.1
11861
12678.8
12596.5
12533.4
12295.7
11924.2
12708.9
12612.8
12536.5
12257.1
11861
12846.1
12688.4
12592.6
12287.7
12287.5
6485.86
4210.67
3681.42
3731.62
3741.68
7142.05
4566.83
3863.28
3854.74
3885.1
7334.69
4522.93
3778.23
3771.37
3814.7
7142.05
4566.83
3863.28
3854.74
3885.1
6485.86
4210.67
3681.42
3731.62
3741.68
2848.32
1917.13
1891.14
2482.24
3509.67
3844.69
3866.68
3633.12
3241.5
2813.92
2475.01
2281.87
2168.36
2075.96
1990.85
1913.42
1851.7
1811.69
1788.69
1774.33
1763.41
1753.96
1745.53
1738.36
1732.65
1728.69
1726.39
1726.27
1728.68
1734.17
1741.28
1752.09
1763.23
1781.08
1801.13
1842.81
1882.24
1919.13
1983.89
1788.6
3116.34
2057.49
1854.41
2441.34
3555.25
3924.47
3938.49
3674.23
3260.43
2822.32
2478.28
2283.11
2168.81
2076.29
1991.44
1913.71
1851.74
1811.64
1788.63
1774.28
1763.37
1753.91
1745.49
1738.31
1732.59
1728.62
1726.32
1726.2
1728.6
1734.09
1741.2
1752.02
1763.13
1781.04
1801.02
1842.91
1882.27
1919.14
1983.43
1788.44
3126.73
1978.31
1846.55
2432.99
3550.23
3907.59
3920.65
3666
3260.84
2825.69
2479.99
2283.68
2168.98
2076.45
1991.67
1913.81
1851.76
1811.63
1788.61
1774.26
1763.36
1753.91
1745.48
1738.3
1732.58
1728.6
1726.3
1726.17
1728.57
1734.07
1741.17
1751.99
1763.1
1781.02
1800.99
1842.96
1882.33
1919.26
1983.32
1787.75
3116.34
2057.49
1854.41
2441.34
3555.25
3924.47
3938.49
3674.23
3260.43
2822.32
2478.28
2283.11
2168.81
2076.29
1991.44
1913.71
1851.74
1811.64
1788.63
1774.28
1763.37
1753.91
1745.49
1738.31
1732.59
1728.62
1726.32
1726.2
1728.6
1734.09
1741.2
1752.02
1763.13
1781.04
1801.02
1842.91
1882.27
1919.14
1983.43
1788.44
2848.32
1917.13
1891.14
2482.24
3509.67
3844.69
3866.68
3633.12
3241.5
2813.92
2475.01
2281.87
2168.36
2075.96
1990.85
1913.42
1851.7
1811.69
1788.69
1774.33
1763.41
1753.96
1745.53
1738.36
1732.65
1728.69
1726.39
1726.27
1728.68
1734.17
1741.28
1752.09
1763.23
1781.08
1801.13
1842.81
1882.24
1919.13
1983.89
1788.6
2587.74
2226.11
2187.64
2709.03
3474.03
3758.46
3744.08
3527.7
3178.92
2780.17
2458.87
2275.33
2165.57
2074
1988.22
1911.63
1851.14
1811.76
1788.9
1774.52
1763.57
1754.1
1745.68
1738.54
1732.86
1728.93
1726.66
1726.56
1728.98
1734.45
1741.56
1752.32
1763.55
1781.23
1801.42
1842.19
1882.04
1919.39
1984.74
1788.62
2642.47
2403.44
2641.62
2973.99
3295.15
3437.56
3479.99
3330.71
3036.72
2687.43
2415.34
2259.44
2158.25
2067.98
1982.17
1907.44
1849.63
1811.85
1789.43
1775.01
1763.97
1754.47
1746.08
1739.01
1733.42
1729.57
1727.36
1727.3
1729.74
1735.18
1742.26
1752.94
1764.3
1781.74
1801.91
1841.13
1881.26
1919.97
1990.95
1791.72
2597.21
2373.44
2568.7
2801.18
3102.13
3212.58
3225.73
3106.55
2858.84
2574.6
2363.25
2238.12
2146.11
2058.05
1973.61
1901.75
1847.38
1811.8
1790.11
1775.72
1764.57
1755.04
1746.71
1739.75
1734.28
1730.55
1728.43
1728.43
1730.91
1736.29
1743.36
1753.92
1765.45
1782.6
1802.66
1839.97
1880.22
1920.96
1998.09
1793.55
2453.18
2412.02
2470.68
2665.18
2887.3
3001.58
2999.32
2885.48
2681.11
2465.31
2312.18
2213.46
2129.95
2044.9
1963.13
1895.14
1844.77
1811.73
1790.93
1776.63
1765.4
1755.86
1747.61
1740.8
1735.49
1731.91
1729.88
1729.96
1732.49
1737.79
1744.81
1755.24
1766.91
1783.8
1803.61
1839.11
1879.32
1922.3
2006.33
1796.67
2276.36
2384.62
2383.62
2523.71
2753.58
2817.12
2792.46
2686.49
2524.28
2371.27
2263.71
2186.05
2110.06
2028.76
1951.21
1888.08
1842.15
1811.76
1791.97
1777.82
1766.57
1757.05
1748.91
1742.26
1737.13
1733.72
1731.8
1731.96
1734.5
1739.67
1746.61
1756.86
1768.6
1785.22
1804.71
1838.68
1878.36
1923.79
2014.71
1801.58
2167.45
2331.59
2327.79
2444.24
2634.47
2647.83
2612.53
2518.59
2397.25
2296.51
2221.69
2159.16
2088.99
2011.55
1939.22
1881.57
1840.09
1812.33
1793.53
1779.6
1768.38
1758.92
1750.93
1744.46
1739.51
1736.26
1734.47
1734.71
1737.21
1742.23
1749.06
1759.13
1770.86
1787.25
1806.43
1839.31
1878.32
1926.62
2023.33
1808.12
2117.6
2288.25
2283.19
2388.04
2515.42
2502.11
2458.65
2383.38
2301.22
2237.59
2184.62
2131.42
2065.63
1993.09
1927.18
1875.66
1838.74
1813.52
1795.72
1782.08
1770.96
1761.63
1753.79
1747.5
1742.71
1739.58
1737.9
1738.16
1740.51
1745.31
1751.91
1761.69
1773.27
1789.35
1808.22
1840.03
1878.34
1929.63
2030.97
1811.65
2081.21
2246.29
2237.84
2337.29
2394.45
2374.22
2332.09
2281.41
2231.21
2191.77
2153.35
2105.73
2043.35
1976.3
1917.28
1871.79
1839.33
1816.36
1799.51
1786.19
1775.24
1766.05
1758.36
1752.21
1747.54
1744.5
1742.89
1743.11
1745.24
1749.72
1756.01
1765.41
1776.73
1792.46
1811.02
1841.96
1879.81
1933.69
2038.52
1816.45
2044.07
2199.89
2187.9
2269.83
2282.05
2266.2
2238.67
2212.16
2182.61
2156.52
2125.19
2080.07
2021.12
1960.57
1908.95
1869.49
1841.02
1820.19
1804.29
1791.37
1780.65
1771.65
1764.13
1758.11
1753.52
1750.53
1748.92
1749.03
1750.84
1754.93
1760.8
1769.73
1780.67
1795.99
1814.22
1844.36
1881.84
1938.08
2045.75
1818.87
2000.67
2148.98
2131.98
2185.04
2198.09
2189.26
2177.12
2163.84
2146.64
2128.53
2100.39
2056.37
2001.62
1948.23
1903.92
1870.46
1845.42
1826.57
1811.6
1799.14
1788.7
1779.87
1772.45
1766.47
1761.87
1758.84
1757.11
1756.96
1758.37
1761.95
1767.28
1775.63
1786.09
1800.93
1818.84
1848.22
1885.62
1943.74
2053.47
1822.89
1961.17
2107.83
2077.04
2115.83
2148.6
2143.21
2137.8
2131.49
2120.92
2105.56
2077.06
2034.26
1984.97
1939.06
1901.58
1872.94
1850.97
1833.76
1819.65
1807.68
1797.56
1788.97
1781.71
1775.85
1771.33
1768.35
1766.51
1766.17
1767.25
1770.35
1775.18
1783
1793.02
1807.46
1825.14
1853.95
1891.52
1951.31
2062.38
1826.93
1938.14
2083.09
2038.15
2078.58
2116.6
2111.94
2111.1
2109.24
2102.42
2087.14
2057.44
2016.69
1972.87
1934.62
1903.71
1879.16
1859.85
1844.12
1830.87
1819.42
1809.62
1801.19
1794
1788.14
1783.6
1780.57
1778.53
1777.94
1778.61
1781.2
1785.5
1792.77
1802.39
1816.48
1834.05
1862.42
1900.38
1961.64
2073.73
1834.62
1924.61
2067.06
2017.06
2056.88
2100.05
2095.59
2096.9
2095.37
2088.32
2071.08
2040.77
2003.27
1965.86
1934.13
1908.05
1886.94
1869.59
1854.88
1842.17
1831.09
1821.68
1813.68
1806.9
1801.41
1797.13
1794.25
1792.17
1791.45
1791.81
1793.99
1797.86
1804.71
1814.11
1828.12
1845.9
1874.32
1913.27
1976.43
2089.41
1849.02
1925.38
2060.77
2005.67
2046.98
2095.44
2090.88
2093.06
2090.22
2080.25
2059.63
2029.75
1997.33
1967.03
1940.82
1919.02
1900.98
1885.59
1872.18
1860.37
1849.9
1840.79
1832.8
1825.87
1820.19
1815.71
1812.66
1810.34
1809.39
1809.33
1811.14
1814.6
1821.06
1830.34
1844.33
1862.44
1891.2
1931.18
1996.23
2110.32
1872.47
1949.17
2069.33
2011.5
2053.57
2101.79
2095.44
2096.31
2089.96
2076.05
2054.16
2026.8
1999.72
1974.28
1952.68
1934.45
1918.89
1905.2
1892.85
1881.57
1871.29
1862.49
1854.97
1848.35
1842.7
1838.07
1834.85
1832.25
1831.04
1830.69
1832.27
1835.45
1841.72
1851.13
1865.46
1884.22
1913.67
1954.97
2022.58
2138.21
1906.88
2001.64
2096.57
2037.18
2078.89
2124.12
2114.91
2112.22
2101.68
2085.18
2064.29
2040.21
2017.8
1997.67
1980.64
1966.09
1953.63
1942.73
1932.93
1923.76
1914.85
1906.38
1898.11
1890.06
1882.82
1876.77
1872.54
1869.02
1867.13
1866.03
1866.88
1869.37
1875.2
1884.7
1899.39
1918.92
1949.64
1992.52
2061.69
2175.79
1953.69
2087.07
2145.65
2083.46
2122.73
2159.6
2146.48
2138.82
2124.41
2105.61
2086.03
2065.26
2047.16
2031.04
2017.46
2005.39
1994.48
1984.25
1974.56
1965.33
1956.46
1948.16
1940.26
1932.86
1926.38
1920.69
1916.45
1912.52
1910.49
1909.15
1909.91
1912.83
1919.42
1930.27
1946.4
1967.86
2000.4
2045.11
2115.21
2225.07
2021.16
2306.79
2199.07
2179.71
2213.53
2232.61
2213.49
2196.47
2175.89
2153.39
2133.29
2113.27
2095.58
2078.71
2063.41
2048.98
2035.72
2023.27
2011.52
2000.66
1991.02
1982.98
1976.36
1970.86
1966.85
1963.93
1962.89
1962.36
1963.7
1965.6
1969.15
1974.61
1983.33
1996.63
2015.18
2039.78
2074.26
2119.81
2190.46
2289.48
2184.76
9464.79
2648.55
2414.46
2382.19
2373.43
2339.37
2311.43
2284.19
2257.55
2234.39
2212.09
2191.08
2170.25
2149.93
2129.49
2109.65
2091.05
2074.64
2060.79
2050
2042.98
2039.97
2040.02
2042.9
2047.53
2053.31
2058.77
2064.8
2070.71
2077.3
2084.77
2094.94
2109.12
2129.03
2155.62
2189.72
2232.15
2288.53
2623.34
8419.45
143134
8898.56
2470.6
2291.27
2226.53
2174.47
2130.34
2105.14
2079.36
2061.19
2042.66
2023.65
2002.78
1981.69
1959.53
1937.78
1916.94
1897.91
1879.8
1863.43
1852.18
1846.79
1844.43
1844.04
1844.76
1846.81
1846.55
1848.93
1849.44
1851.88
1853.74
1860.21
1871.59
1893.48
1926.68
1969.85
2025.19
2143.46
7985.67
124563
143134
8898.56
2470.6
2291.27
2226.53
2174.47
2130.34
2105.14
2079.36
2061.19
2042.66
2023.65
2002.78
1981.69
1959.53
1937.78
1916.94
1897.91
1879.8
1863.43
1852.18
1846.79
1844.43
1844.04
1844.76
1846.81
1846.55
1848.93
1849.44
1851.88
1853.74
1860.21
1871.59
1893.48
1926.68
1969.85
2025.19
2143.46
7985.67
124563
9464.79
2648.55
2414.46
2382.19
2373.43
2339.37
2311.43
2284.19
2257.55
2234.39
2212.09
2191.08
2170.25
2149.93
2129.49
2109.65
2091.05
2074.64
2060.79
2050
2042.98
2039.97
2040.02
2042.9
2047.53
2053.31
2058.77
2064.8
2070.71
2077.3
2084.77
2094.94
2109.12
2129.03
2155.62
2189.72
2232.15
2288.53
2623.34
8419.45
2306.79
2199.07
2179.71
2213.53
2232.61
2213.49
2196.47
2175.89
2153.39
2133.29
2113.27
2095.58
2078.71
2063.41
2048.98
2035.72
2023.27
2011.52
2000.66
1991.02
1982.98
1976.36
1970.86
1966.85
1963.93
1962.89
1962.36
1963.7
1965.6
1969.15
1974.61
1983.33
1996.63
2015.18
2039.78
2074.26
2119.81
2190.46
2289.48
2184.76
2087.07
2145.65
2083.46
2122.73
2159.6
2146.48
2138.82
2124.41
2105.61
2086.03
2065.26
2047.16
2031.04
2017.46
2005.39
1994.48
1984.25
1974.56
1965.33
1956.46
1948.16
1940.26
1932.86
1926.38
1920.69
1916.45
1912.52
1910.49
1909.15
1909.91
1912.83
1919.42
1930.27
1946.4
1967.86
2000.4
2045.11
2115.21
2225.07
2021.16
2001.64
2096.57
2037.18
2078.89
2124.12
2114.91
2112.22
2101.68
2085.18
2064.29
2040.21
2017.8
1997.67
1980.64
1966.09
1953.63
1942.73
1932.93
1923.76
1914.85
1906.38
1898.11
1890.06
1882.82
1876.77
1872.54
1869.02
1867.13
1866.03
1866.88
1869.37
1875.2
1884.7
1899.39
1918.92
1949.64
1992.52
2061.69
2175.79
1953.69
1949.17
2069.33
2011.5
2053.57
2101.79
2095.44
2096.31
2089.96
2076.05
2054.16
2026.8
1999.72
1974.28
1952.68
1934.45
1918.89
1905.2
1892.85
1881.57
1871.29
1862.49
1854.97
1848.35
1842.7
1838.07
1834.85
1832.25
1831.04
1830.69
1832.27
1835.45
1841.72
1851.13
1865.46
1884.22
1913.67
1954.97
2022.58
2138.21
1906.88
1925.38
2060.77
2005.67
2046.98
2095.44
2090.88
2093.06
2090.22
2080.25
2059.63
2029.75
1997.33
1967.03
1940.82
1919.02
1900.98
1885.59
1872.18
1860.37
1849.9
1840.79
1832.8
1825.87
1820.19
1815.71
1812.66
1810.34
1809.39
1809.33
1811.14
1814.6
1821.06
1830.34
1844.33
1862.44
1891.2
1931.18
1996.23
2110.32
1872.47
1924.61
2067.06
2017.06
2056.88
2100.05
2095.59
2096.9
2095.37
2088.32
2071.08
2040.77
2003.27
1965.86
1934.13
1908.05
1886.94
1869.59
1854.88
1842.17
1831.09
1821.68
1813.68
1806.9
1801.41
1797.13
1794.25
1792.17
1791.45
1791.81
1793.99
1797.86
1804.71
1814.11
1828.12
1845.9
1874.32
1913.27
1976.43
2089.41
1849.02
1938.14
2083.09
2038.15
2078.58
2116.6
2111.94
2111.1
2109.24
2102.42
2087.14
2057.44
2016.69
1972.87
1934.62
1903.71
1879.16
1859.85
1844.12
1830.87
1819.42
1809.62
1801.19
1794
1788.14
1783.6
1780.57
1778.53
1777.94
1778.61
1781.2
1785.5
1792.77
1802.39
1816.48
1834.05
1862.42
1900.38
1961.64
2073.73
1834.62
1961.17
2107.83
2077.04
2115.83
2148.6
2143.21
2137.8
2131.49
2120.92
2105.56
2077.06
2034.26
1984.97
1939.06
1901.58
1872.94
1850.97
1833.76
1819.65
1807.68
1797.56
1788.97
1781.71
1775.85
1771.33
1768.35
1766.51
1766.17
1767.25
1770.35
1775.18
1783
1793.02
1807.46
1825.14
1853.95
1891.52
1951.31
2062.38
1826.93
2000.67
2148.98
2131.98
2185.04
2198.09
2189.26
2177.12
2163.84
2146.64
2128.53
2100.39
2056.37
2001.62
1948.23
1903.92
1870.46
1845.42
1826.57
1811.6
1799.14
1788.7
1779.87
1772.45
1766.47
1761.87
1758.84
1757.11
1756.96
1758.37
1761.95
1767.28
1775.63
1786.09
1800.93
1818.84
1848.22
1885.62
1943.74
2053.47
1822.89
2044.07
2199.89
2187.9
2269.83
2282.05
2266.2
2238.67
2212.16
2182.61
2156.52
2125.19
2080.07
2021.12
1960.57
1908.95
1869.49
1841.02
1820.19
1804.29
1791.37
1780.65
1771.65
1764.13
1758.11
1753.52
1750.53
1748.92
1749.03
1750.84
1754.93
1760.8
1769.73
1780.67
1795.99
1814.22
1844.36
1881.84
1938.08
2045.75
1818.87
2081.21
2246.29
2237.84
2337.29
2394.45
2374.22
2332.09
2281.41
2231.21
2191.77
2153.35
2105.73
2043.35
1976.3
1917.28
1871.79
1839.33
1816.36
1799.51
1786.19
1775.24
1766.05
1758.36
1752.21
1747.54
1744.5
1742.89
1743.11
1745.24
1749.72
1756.01
1765.41
1776.73
1792.46
1811.02
1841.96
1879.81
1933.69
2038.52
1816.45
2117.6
2288.25
2283.19
2388.04
2515.42
2502.11
2458.65
2383.38
2301.22
2237.59
2184.62
2131.42
2065.63
1993.09
1927.18
1875.66
1838.74
1813.52
1795.72
1782.08
1770.96
1761.63
1753.79
1747.5
1742.71
1739.58
1737.9
1738.16
1740.51
1745.31
1751.91
1761.69
1773.27
1789.35
1808.22
1840.03
1878.34
1929.63
2030.97
1811.65
2167.45
2331.59
2327.79
2444.24
2634.47
2647.83
2612.53
2518.59
2397.25
2296.51
2221.69
2159.16
2088.99
2011.55
1939.22
1881.57
1840.09
1812.33
1793.53
1779.6
1768.38
1758.92
1750.93
1744.46
1739.51
1736.26
1734.47
1734.71
1737.21
1742.23
1749.06
1759.13
1770.86
1787.25
1806.43
1839.31
1878.32
1926.62
2023.33
1808.12
2276.36
2384.62
2383.62
2523.71
2753.58
2817.12
2792.46
2686.49
2524.28
2371.27
2263.71
2186.05
2110.06
2028.76
1951.21
1888.08
1842.15
1811.76
1791.97
1777.82
1766.57
1757.05
1748.91
1742.26
1737.13
1733.72
1731.8
1731.96
1734.5
1739.67
1746.61
1756.86
1768.6
1785.22
1804.71
1838.68
1878.36
1923.79
2014.71
1801.58
2453.18
2412.02
2470.68
2665.18
2887.3
3001.58
2999.32
2885.48
2681.11
2465.31
2312.18
2213.46
2129.95
2044.9
1963.13
1895.14
1844.77
1811.73
1790.93
1776.63
1765.4
1755.86
1747.61
1740.8
1735.49
1731.91
1729.88
1729.96
1732.49
1737.79
1744.81
1755.24
1766.91
1783.8
1803.61
1839.11
1879.32
1922.3
2006.33
1796.67
2597.21
2373.44
2568.7
2801.18
3102.13
3212.58
3225.73
3106.55
2858.84
2574.6
2363.25
2238.12
2146.11
2058.05
1973.61
1901.75
1847.38
1811.8
1790.11
1775.72
1764.57
1755.04
1746.71
1739.75
1734.28
1730.55
1728.43
1728.43
1730.91
1736.29
1743.36
1753.92
1765.45
1782.6
1802.66
1839.97
1880.22
1920.96
1998.09
1793.55
2642.47
2403.44
2641.62
2973.99
3295.15
3437.56
3479.99
3330.71
3036.72
2687.43
2415.34
2259.44
2158.25
2067.98
1982.17
1907.44
1849.63
1811.85
1789.43
1775.01
1763.97
1754.47
1746.08
1739.01
1733.42
1729.57
1727.36
1727.3
1729.74
1735.18
1742.26
1752.94
1764.3
1781.74
1801.91
1841.13
1881.26
1919.97
1990.95
1791.72
2587.74
2226.11
2187.64
2709.03
3474.03
3758.46
3744.08
3527.7
3178.92
2780.17
2458.87
2275.33
2165.57
2074
1988.22
1911.63
1851.14
1811.76
1788.9
1774.52
1763.57
1754.1
1745.68
1738.54
1732.86
1728.93
1726.66
1726.56
1728.98
1734.45
1741.56
1752.32
1763.55
1781.23
1801.42
1842.19
1882.04
1919.39
1984.74
1788.62
)
;

boundaryField
{
    inlet
    {
        type            calculated;
        value           uniform 14000.1;
    }
    outlet
    {
        type            calculated;
        value           nonuniform List<scalar> 
165
(
2692.11
2655.61
2746.05
2853.06
2888.46
2895.99
2892.97
2897.36
2909.62
2925.48
2937.96
2946.03
2951.5
2954.77
2951.17
2942.27
2921.07
2961.56
4182.32
4230.33
4230.33
4210.66
3159.26
3111.31
3126.24
3149.12
3168.85
3188.45
3203.72
3215.35
3223.97
3229.31
3231.54
3231.72
3230.04
3226.68
3221.99
3216.49
3210.43
3204.53
3201.27
3200.01
3197.23
3193.32
3187.9
3181.28
3171.57
3161.76
3149.86
3136.77
3121.29
3103.47
3082.12
3059.09
3035.74
3015.32
2992.98
3038.31
4185.04
4249.64
3258.81
3246.52
3230.99
3219.71
3210.83
3203.38
3193.7
3183.47
3170.58
3156.08
3139.13
3120.2
3098.04
3075.92
3054.03
3033.41
3007.9
3056.5
4214.7
4249.64
3254.55
3247.99
3244.75
3247.99
3254.55
4249.64
4214.7
3056.5
3007.9
3033.41
3054.03
3075.92
3098.04
3120.2
3139.13
3156.08
3170.58
3183.47
3193.7
3203.38
3210.83
3219.71
3230.99
3246.52
3258.81
4230.33
4210.66
3159.26
3111.31
3126.24
3149.12
3168.85
3188.45
3203.72
3215.35
3223.97
3229.31
3231.54
3231.72
3230.04
3226.68
3221.99
3216.49
3210.43
3204.53
3201.27
3200.01
3197.23
3193.32
3187.9
3181.28
3171.57
3161.76
3149.86
3136.77
3121.29
3103.47
3082.12
3059.09
3035.74
3015.32
2992.98
3038.31
4185.04
4249.64
4230.33
4182.32
2961.56
2921.07
2942.27
2951.17
2954.77
2951.5
2946.03
2937.96
2925.48
2909.62
2897.36
2892.97
2895.99
2888.46
2853.06
2746.05
2655.61
2692.11
)
;
    }
    obstacle
    {
        type            calculated;
        value           nonuniform List<scalar> 
40
(
38912.8
15180.1
13560.2
13247.3
12964.7
12811.1
12737.3
12689.4
12670.3
12680.2
38912.8
15180.1
13560.2
13247.3
12964.7
12811.1
12737.3
12689.4
12670.3
12680.2
12846.1
12688.4
12592.6
12287.7
12287.5
12846.1
12688.4
12592.6
12287.7
12287.5
6485.86
4210.67
3681.42
3731.62
3741.68
6485.86
4210.67
3681.42
3731.62
3741.68
)
;
    }
    empty
    {
        type            empty;
    }
}


// ************************************************************************* //
