/*--------------------------------*- C++ -*----------------------------------*\
| =========                 |                                                 |
| \\      /  F ield         | OpenFOAM: The Open Source CFD Toolbox           |
|  \\    /   O peration     | Version:  v1912                                 |
|   \\  /    A nd           | Website:  www.openfoam.com                      |
|    \\/     M anipulation  |                                                 |
\*---------------------------------------------------------------------------*/
FoamFile
{
    version     2.0;
    format      ascii;
    class       volTensorField;
    location    "7.8";
    object      grad(U);
}
// * * * * * * * * * * * * * * * * * * * * * * * * * * * * * * * * * * * * * //

dimensions      [0 0 -1 0 0 0 0];


internalField   nonuniform List<tensor> 
1900
(
(-2.38042 -2.47199e-05 0 1.40679e-05 -9.64659e-06 0 0 0 0)
(3.06063 1.98039e-06 0 7.0345e-06 -3.00081e-05 0 0 0 0)
(0.345834 -4.87517e-05 0 3.31395e-06 -2.41228e-05 0 0 0 0)
(0.0253276 -0.000130451 0 -5.84361e-05 -0.000123306 0 0 0 0)
(0.0114382 -0.000240303 0 -0.000204916 -0.000290774 0 0 0 0)
(-6.35359e-05 -0.000464021 0 -0.000584837 -0.000810264 0 0 0 0)
(-0.00615036 -0.000337049 0 -0.000727738 -0.00119995 0 0 0 0)
(-0.0135457 0.0166557 0 -0.00154177 -0.000439963 0 0 0 0)
(-0.0648949 0.0588418 0 0.00427921 0.0267852 0 0 0 0)
(-0.0469894 0.206692 0 0.0615244 0.111929 0 0 0 0)
(-2.3804 -1.49348e-05 0 1.66139e-05 8.68323e-06 0 0 0 0)
(3.06061 -1.64566e-05 0 9.62387e-06 1.60367e-05 0 0 0 0)
(0.345769 -4.45466e-05 0 -6.6757e-06 6.70284e-06 0 0 0 0)
(0.0251194 -0.0001362 0 -0.000112023 6.47884e-05 0 0 0 0)
(0.0109118 -0.000446654 0 -0.000387743 0.000137154 0 0 0 0)
(-0.000586358 -0.000445152 0 -0.00109434 0.000305092 0 0 0 0)
(-0.00710729 0.00070735 0 -0.00124287 0.000601174 0 0 0 0)
(-0.00853871 0.0113295 0 -0.000412814 0.000642141 0 0 0 0)
(-0.00182878 0.0535268 0 0.0112155 -0.0160545 0 0 0 0)
(0.0821387 0.144607 0 0.0962225 -0.0581997 0 0 0 0)
(-2.38039 -2.84884e-13 0 5.74627e-14 1.92672e-06 0 0 0 0)
(3.0606 1.2906e-13 0 6.13252e-14 2.79429e-05 0 0 0 0)
(0.345713 1.15812e-13 0 -1.24683e-13 3.48399e-05 0 0 0 0)
(0.0249466 -9.36834e-14 0 -8.11796e-14 0.000117036 0 0 0 0)
(0.0104559 -6.45939e-15 0 -6.47811e-14 0.000307241 0 0 0 0)
(-0.000918663 1.91942e-13 0 3.7676e-14 0.00101034 0 0 0 0)
(-0.00546883 1.23037e-13 0 4.20128e-14 0.00119755 0 0 0 0)
(-0.00108725 -8.44326e-14 0 -6.91179e-15 -0.000404356 0 0 0 0)
(0.0317403 -7.95578e-14 0 1.06387e-13 -0.0214615 0 0 0 0)
(0.131285 -2.53425e-14 0 6.03087e-14 -0.107458 0 0 0 0)
(-2.3804 1.49348e-05 0 -1.66139e-05 8.68323e-06 0 0 0 0)
(3.06061 1.64566e-05 0 -9.62387e-06 1.60367e-05 0 0 0 0)
(0.345769 4.45466e-05 0 6.6757e-06 6.70284e-06 0 0 0 0)
(0.0251194 0.0001362 0 0.000112023 6.47884e-05 0 0 0 0)
(0.0109118 0.000446654 0 0.000387743 0.000137154 0 0 0 0)
(-0.000586358 0.000445152 0 0.00109434 0.000305092 0 0 0 0)
(-0.00710729 -0.00070735 0 0.00124287 0.000601174 0 0 0 0)
(-0.00853871 -0.0113295 0 0.000412814 0.000642141 0 0 0 0)
(-0.00182878 -0.0535268 0 -0.0112155 -0.0160545 0 0 0 0)
(0.0821387 -0.144607 0 -0.0962225 -0.0581997 0 0 0 0)
(-2.38042 2.47199e-05 0 -1.40679e-05 -9.64659e-06 0 0 0 0)
(3.06063 -1.98039e-06 0 -7.0345e-06 -3.00081e-05 0 0 0 0)
(0.345834 4.87517e-05 0 -3.31395e-06 -2.41228e-05 0 0 0 0)
(0.0253276 0.000130451 0 5.84361e-05 -0.000123306 0 0 0 0)
(0.0114382 0.000240303 0 0.000204916 -0.000290774 0 0 0 0)
(-6.35359e-05 0.000464021 0 0.000584837 -0.000810264 0 0 0 0)
(-0.00615036 0.000337049 0 0.000727738 -0.00119995 0 0 0 0)
(-0.0135457 -0.0166557 0 0.00154177 -0.000439963 0 0 0 0)
(-0.0648949 -0.0588418 0 -0.00427921 0.0267852 0 0 0 0)
(-0.0469894 -0.206692 0 -0.0615244 0.111929 0 0 0 0)
(0.161107 0.427219 -2.25077e-17 0.25326 -0.245832 3.37616e-17 5.79475e-17 7.60973e-17 -6.10073e-33)
(0.508134 0.581717 0 0.296767 -0.473053 0 -1.61773e-16 -4.7233e-17 0)
(0.793496 0.983391 0 0.292035 -0.799734 0 -2.62745e-16 -8.53167e-17 0)
(1.48541 1.59833 0 0.339652 -1.4557 0 0 0 0)
(2.77665 1.86148 2.72395e-16 1.13508 -3.52443 -4.08593e-16 -2.28542e-15 -1.52361e-15 -7.38329e-32)
(0.223416 0.162328 0 0.18481 -0.20479 0 1.03712e-16 3.16755e-17 0)
(0.414607 0.174282 0 0.137383 -0.336194 0 1.61773e-16 4.7233e-17 0)
(0.747543 0.419323 0 0.0502807 -0.626397 0 2.62745e-16 8.53167e-17 0)
(1.68088 0.861038 0 -0.0769897 -1.32383 0 0 0 0)
(3.6974 0.574733 0 -0.186623 -3.08528 0 0 0 0)
(0.276047 -1.60652e-13 0 8.0775e-14 -0.291592 0 0 0 0)
(0.437224 5.78109e-14 0 5.3794e-14 -0.373166 0 0 0 0)
(0.742739 1.52578e-13 0 2.95897e-13 -0.635783 0 0 0 0)
(1.58586 -1.02061e-13 0 1.84807e-13 -1.3595 0 0 0 0)
(3.44777 6.2151e-14 0 2.88798e-13 -3.64401 0 0 0 0)
(0.223416 -0.162328 0 -0.18481 -0.20479 0 1.03712e-16 -3.16755e-17 0)
(0.414607 -0.174282 0 -0.137383 -0.336194 0 1.61773e-16 -4.7233e-17 0)
(0.747543 -0.419323 0 -0.0502807 -0.626397 0 2.62745e-16 -8.53167e-17 0)
(1.68088 -0.861038 0 0.0769897 -1.32383 0 0 0 0)
(3.6974 -0.574733 0 0.186623 -3.08528 0 0 0 0)
(0.161107 -0.427219 2.25077e-17 -0.25326 -0.245832 3.37616e-17 -2.65371e-16 1.39448e-16 -6.10073e-33)
(0.508134 -0.581717 0 -0.296767 -0.473053 0 -1.61773e-16 4.7233e-17 0)
(0.793496 -0.983391 0 -0.292035 -0.799734 0 -2.62745e-16 8.53167e-17 0)
(1.48541 -1.59833 9.77736e-17 -0.339652 -1.4557 1.4666e-16 -9.37638e-16 6.25092e-16 -2.65016e-32)
(2.77665 -1.86148 -2.72395e-16 -1.13508 -3.52443 -4.08593e-16 2.28542e-15 -1.52361e-15 -7.38329e-32)
(4.19776 -0.781044 -1.85513e-17 0.0103848 4.47227 -1.66962e-16 2.27378e-15 -1.17918e-16 5.02834e-33)
(2.30598 -0.309232 8.99635e-18 0.543416 2.76141 8.09672e-17 -2.55273e-15 1.98653e-16 2.43847e-33)
(1.37182 0.00137592 0 0.72964 2.25586 0 0 0 0)
(1.03664 0.0778608 -5.3285e-18 0.665465 2.10615 -4.79565e-17 2.38693e-15 -1.99557e-16 1.44429e-33)
(0.727624 0.516442 4.53004e-18 0.473522 1.71448 4.07704e-17 -1.13081e-15 1.25645e-16 1.22787e-33)
(4.32502 -0.948643 0 -0.693723 -0.675003 0 -1.13705e-15 -8.38615e-18 0)
(2.59115 -0.200624 0 0.320033 0.995159 0 1.28455e-15 -5.77444e-17 0)
(1.45689 -0.0121332 0 0.445138 1.38597 0 0 0 0)
(0.973847 -0.064947 0 0.363652 1.38689 0 -1.50709e-15 7.46373e-17 0)
(0.571632 0.208946 0 0.151092 1.4091 0 2.87405e-16 -7.89332e-18 0)
(4.32494 2.13576e-14 0 1.20467e-13 0.793097 0 0 0 0)
(2.56726 1.02305e-14 0 1.20467e-13 1.84439 0 0 0 0)
(1.35249 -9.36442e-14 0 -4.01556e-14 1.97039 0 0 0 0)
(0.891829 2.19983e-13 0 1.9133e-13 1.7462 0 6.07219e-16 -3.22608e-30 0)
(0.569508 -1.33455e-13 0 -4.75527e-13 2.09673 0 -5.7481e-16 -1.41733e-29 0)
(4.32502 0.948643 0 0.693723 -0.675003 0 -1.13705e-15 8.38615e-18 0)
(2.59115 0.200624 0 -0.320033 0.995159 0 1.28455e-15 5.77444e-17 0)
(1.45689 0.0121332 0 -0.445138 1.38597 0 0 0 0)
(0.973847 0.064947 0 -0.363652 1.38689 0 -1.50709e-15 -7.46373e-17 0)
(0.571632 -0.208946 0 -0.151092 1.4091 0 2.87405e-16 7.89332e-18 0)
(4.19776 0.781044 0 -0.0103848 4.47227 0 1.13705e-15 -8.38615e-18 0)
(2.30598 0.309232 -8.99635e-18 -0.543416 2.76141 8.09672e-17 -1.63659e-17 8.31647e-17 2.43847e-33)
(1.37182 -0.00137592 0 -0.72964 2.25586 0 0 0 0)
(1.03664 -0.0778608 5.3285e-18 -0.665465 2.10615 -4.79565e-17 2.00416e-17 -6.34302e-17 1.44429e-33)
(0.727624 -0.516442 -4.53004e-18 -0.473522 1.71448 4.07704e-17 1.13081e-15 1.25645e-16 1.22787e-33)
(0.336568 0.558225 0 -0.409109 -0.371452 0 0 0 0)
(0.199376 0.105696 0 -0.745074 -0.153316 0 0 0 0)
(0.125082 -0.137518 0 -0.729886 0.0817467 0 0 0 0)
(0.124679 -0.123183 0 -0.685183 0.195488 0 0 0 0)
(0.144284 -0.0796037 0 -0.559683 0.0746716 0 0 0 0)
(0.23121 -0.0798541 0 -0.419449 0.125053 0 0 0 0)
(0.183905 0.0778102 0 -0.228001 0.254043 0 0 0 0)
(-0.0854009 0.196716 0 -0.0506589 0.0586035 0 0 0 0)
(-0.949104 0.0632185 0 0.0322147 -0.157254 0 0 0 0)
(-1.48123 -0.0707713 0 0.489391 0.0708669 0 0 0 0)
(-0.724666 -0.0988023 0 0.14265 0.1036 0 0 0 0)
(-0.169939 -0.109903 0 0.161253 0.293524 0 0 0 0)
(-0.36833 -0.137051 0 0.0620793 0.530338 0 0 0 0)
(-0.644298 -0.107911 0 0.0439917 0.777388 0 0 0 0)
(-0.774023 -0.0179443 0 0.0485672 0.910424 0 0 0 0)
(-0.781332 0.0619232 0 0.0816617 0.845134 0 0 0 0)
(-0.728558 0.0780715 0 0.145223 0.696075 0 0 0 0)
(-0.664017 0.0736842 0 0.122938 0.515266 0 0 0 0)
(-0.67448 0.0655314 0 0.0895525 0.374099 0 0 0 0)
(-0.835516 0.0507625 0 0.0853266 0.306994 0 0 0 0)
(-0.981234 0.0395389 0 0.0727454 0.236049 0 0 0 0)
(-0.721697 0.0242406 0 0.033716 0.170046 0 0 0 0)
(-0.246198 0.00825585 0 0.00662512 0.143941 0 0 0 0)
(-0.0174878 0.00217846 0 0.00277883 0.138844 0 0 0 0)
(0.0204905 0.00175877 0 0.00292093 0.136093 0 0 0 0)
(0.0274556 0.00131932 0 0.00223681 0.1332 0 0 0 0)
(0.0415136 0.000762329 0 0.00169937 0.132253 0 0 0 0)
(0.066318 -0.000155482 0 0.00147695 0.130659 0 0 0 0)
(0.0905323 -0.000390283 0 0.00155564 0.132453 0 0 0 0)
(0.0898384 -0.000662534 0 0.00168771 0.131862 0 0 0 0)
(-0.0352864 -0.00102493 0 0.00210613 0.134791 0 0 0 0)
(-0.591973 -0.000690207 0 0.00229552 0.135624 0 0 0 0)
(-1.05503 -0.00107133 0 0.00224173 0.138123 0 0 0 0)
(-0.735772 -0.000979047 0 0.00432041 0.140471 0 0 0 0)
(-0.281612 0.00034929 0 0.00857828 0.141812 0 0 0 0)
(-0.145835 -0.00100925 0 0.0120231 0.139471 0 0 0 0)
(-0.119142 -0.00568893 0 0.0154879 0.144871 0 0 0 0)
(-0.122102 -0.0138873 0 0.00471116 0.14951 0 0 0 0)
(-0.161031 0.00202086 0 -0.0298417 0.178737 0 0 0 0)
(-0.0962124 0.0119877 0 -0.0466099 0.146218 0 0 0 0)
(0.104668 0.405252 0 0.0310085 0.217666 0 0 0 0)
(0.0492801 0.160191 0 -0.48595 -0.336731 0 0 0 0)
(0.12069 -0.0346696 0 -0.676863 -0.145664 0 0 0 0)
(0.137063 -0.137279 0 -0.605661 0.135988 0 0 0 0)
(0.178667 -0.140417 0 -0.61474 0.27778 0 0 0 0)
(0.275966 -0.0896586 0 -0.50667 0.409626 0 0 0 0)
(0.227085 0.0514049 0 -0.384829 0.552278 0 0 0 0)
(-0.0713486 0.152975 0 -0.314257 0.142153 0 0 0 0)
(-0.876171 0.0869834 0 -0.333389 -0.123932 0 0 0 0)
(-1.41718 -0.0396571 0 -0.0332725 -0.0751605 0 0 0 0)
(-0.735856 -0.0727372 0 -0.0177315 0.119345 0 0 0 0)
(-0.194278 -0.0434962 0 0.0183397 0.264472 0 0 0 0)
(-0.406867 -0.0650975 0 -0.0629336 0.497134 0 0 0 0)
(-0.649089 -0.0504968 0 -0.0719653 0.735587 0 0 0 0)
(-0.740198 -0.00499313 0 0.00499633 0.868079 0 0 0 0)
(-0.713429 0.0340857 0 0.158398 0.79727 0 0 0 0)
(-0.685394 0.0306879 0 0.286103 0.655218 0 0 0 0)
(-0.674931 0.0206698 0 0.311318 0.528899 0 0 0 0)
(-0.698626 0.034382 0 0.159033 0.401928 0 0 0 0)
(-0.853848 0.0358915 0 0.0451974 0.303635 0 0 0 0)
(-0.999209 0.0218415 0 0.0200359 0.227432 0 0 0 0)
(-0.73438 0.0106903 0 0.0128247 0.16772 0 0 0 0)
(-0.24986 0.00348051 0 0.0034092 0.144105 0 0 0 0)
(-0.0176185 0.00106885 0 0.0016668 0.139341 0 0 0 0)
(0.020558 0.000880744 0 0.0019271 0.136616 0 0 0 0)
(0.0274368 0.000682882 0 0.00150091 0.133295 0 0 0 0)
(0.0415893 0.000386446 0 0.00129913 0.132081 0 0 0 0)
(0.0664457 -9.21271e-05 0 0.0014646 0.130675 0 0 0 0)
(0.0906803 -0.000200014 0 0.00175434 0.132616 0 0 0 0)
(0.0900445 -0.000323369 0 0.00206513 0.132016 0 0 0 0)
(-0.0350069 -0.000499901 0 0.00259085 0.134893 0 0 0 0)
(-0.591478 -0.000279741 0 0.00317616 0.135539 0 0 0 0)
(-1.05407 -0.000440426 0 0.00439626 0.137266 0 0 0 0)
(-0.734186 -0.000449692 0 0.00734011 0.139222 0 0 0 0)
(-0.279716 0.000126579 0 0.012818 0.140631 0 0 0 0)
(-0.144213 -0.000630482 0 0.0189784 0.138021 0 0 0 0)
(-0.12061 -0.00313833 0 0.024767 0.1441 0 0 0 0)
(-0.129773 -0.00722839 0 0.0195187 0.157577 0 0 0 0)
(-0.168951 0.00119089 0 -0.000110879 0.191838 0 0 0 0)
(-0.0986233 0.00623899 0 -0.0098434 0.15063 0 0 0 0)
(0.146333 -4.68792e-13 0 7.88511e-15 0.514819 0 0 0 0)
(-0.00654976 -2.18454e-14 0 3.15404e-13 -0.473336 0 0 0 0)
(0.0902574 1.40647e-14 0 4.33681e-13 -0.586495 0 0 0 0)
(0.142751 9.97779e-15 0 6.38694e-13 -0.234983 0 0 0 0)
(0.173081 1.85116e-13 0 8.75247e-13 0.357296 0 0 0 0)
(0.298093 2.29006e-14 0 8.12166e-13 0.730384 0 0 0 0)
(0.239879 -2.3423e-13 0 6.15038e-13 0.973698 0 0 0 0)
(-0.0704365 -3.2413e-13 0 -1.41932e-13 0.376976 0 0 0 0)
(-0.867364 1.42273e-12 0 1.01718e-12 -0.078008 0 0 0 0)
(-1.3894 1.54519e-12 0 5.47226e-12 -0.221035 0 0 0 0)
(-0.709651 -1.325e-12 0 -1.28527e-12 0.194635 0 0 0 0)
(-0.183088 -4.0391e-12 0 -1.10391e-12 0.279033 0 0 0 0)
(-0.394601 -2.12111e-12 0 -2.52323e-12 0.493671 0 0 0 0)
(-0.624537 2.52887e-12 0 -7.12419e-12 0.726578 0 0 0 0)
(-0.707008 2.50162e-12 0 -4.31315e-12 0.840837 0 0 0 0)
(-0.699555 2.24937e-12 0 -1.07237e-12 0.760906 0 0 0 0)
(-0.684073 2.37443e-12 0 2.49958e-12 0.606498 0 0 0 0)
(-0.700983 -1.78509e-12 0 1.02467e-11 0.549927 0 0 0 0)
(-0.751897 -5.87437e-12 0 2.38643e-11 0.464393 0 0 0 0)
(-0.875951 -5.23773e-12 0 2.84179e-11 0.31355 0 0 0 0)
(-0.990652 2.79645e-12 0 9.13982e-12 0.217638 0 0 0 0)
(-0.726534 7.9214e-12 0 -1.94259e-11 0.16339 0 0 0 0)
(-0.249444 3.5331e-12 0 -1.79613e-11 0.144143 0 0 0 0)
(-0.0179189 1.95713e-14 0 2.31526e-12 0.139461 0 0 0 0)
(0.0204422 -2.11003e-12 0 1.35057e-11 0.136794 0 0 0 0)
(0.0272729 -3.59973e-12 0 1.83669e-11 0.133406 0 0 0 0)
(0.0415031 -4.23418e-12 0 1.03783e-11 0.1321 0 0 0 0)
(0.0664504 -1.18427e-12 0 -1.34264e-11 0.130749 0 0 0 0)
(0.090707 3.83981e-12 0 -3.86912e-11 0.132733 0 0 0 0)
(0.0900817 1.31898e-12 0 -4.97383e-11 0.132124 0 0 0 0)
(-0.0349632 -7.73444e-13 0 -5.04805e-11 0.134956 0 0 0 0)
(-0.591448 1.78475e-12 0 -4.87896e-11 0.135561 0 0 0 0)
(-1.05382 2.08754e-12 0 -3.11781e-11 0.136879 0 0 0 0)
(-0.733322 -8.10252e-13 0 -1.32667e-12 0.138589 0 0 0 0)
(-0.278226 -1.4952e-12 0 2.75042e-12 0.139971 0 0 0 0)
(-0.142359 1.54677e-12 0 -3.86272e-12 0.137719 0 0 0 0)
(-0.118984 -3.26439e-13 0 -7.04731e-13 0.144305 0 0 0 0)
(-0.129339 -3.69368e-12 0 6.76542e-12 0.159295 0 0 0 0)
(-0.169572 -4.09959e-13 0 7.13306e-12 0.194001 0 0 0 0)
(-0.0990437 1.52704e-12 0 3.70009e-12 0.151108 0 0 0 0)
(0.104668 -0.405252 0 -0.0310085 0.217666 0 0 0 0)
(0.0492801 -0.160191 0 0.48595 -0.336731 0 0 0 0)
(0.12069 0.0346696 0 0.676863 -0.145664 0 0 0 0)
(0.137063 0.137279 0 0.605661 0.135988 0 0 0 0)
(0.178667 0.140417 0 0.61474 0.27778 0 0 0 0)
(0.275966 0.0896586 0 0.50667 0.409626 0 0 0 0)
(0.227085 -0.0514049 0 0.384829 0.552278 0 0 0 0)
(-0.0713486 -0.152975 0 0.314257 0.142153 0 0 0 0)
(-0.876171 -0.0869834 0 0.333389 -0.123932 0 0 0 0)
(-1.41718 0.0396571 0 0.0332725 -0.0751605 0 0 0 0)
(-0.735856 0.0727372 0 0.0177315 0.119345 0 0 0 0)
(-0.194278 0.0434962 0 -0.0183397 0.264472 0 0 0 0)
(-0.406867 0.0650975 0 0.0629336 0.497134 0 0 0 0)
(-0.649089 0.0504968 0 0.0719653 0.735587 0 0 0 0)
(-0.740198 0.00499313 0 -0.00499633 0.868079 0 0 0 0)
(-0.713429 -0.0340857 0 -0.158398 0.79727 0 0 0 0)
(-0.685394 -0.0306879 0 -0.286103 0.655218 0 0 0 0)
(-0.674931 -0.0206698 0 -0.311318 0.528899 0 0 0 0)
(-0.698626 -0.034382 0 -0.159033 0.401928 0 0 0 0)
(-0.853848 -0.0358915 0 -0.0451974 0.303635 0 0 0 0)
(-0.999209 -0.0218415 0 -0.0200359 0.227432 0 0 0 0)
(-0.73438 -0.0106903 0 -0.0128247 0.16772 0 0 0 0)
(-0.24986 -0.00348051 0 -0.0034092 0.144105 0 0 0 0)
(-0.0176185 -0.00106885 0 -0.0016668 0.139341 0 0 0 0)
(0.020558 -0.000880745 0 -0.0019271 0.136616 0 0 0 0)
(0.0274368 -0.000682882 0 -0.00150091 0.133295 0 0 0 0)
(0.0415893 -0.000386446 0 -0.00129913 0.132081 0 0 0 0)
(0.0664457 9.21271e-05 0 -0.0014646 0.130675 0 0 0 0)
(0.0906803 0.000200014 0 -0.00175434 0.132616 0 0 0 0)
(0.0900445 0.000323369 0 -0.00206513 0.132016 0 0 0 0)
(-0.0350069 0.000499901 0 -0.00259085 0.134893 0 0 0 0)
(-0.591478 0.000279741 0 -0.00317616 0.135539 0 0 0 0)
(-1.05407 0.000440426 0 -0.00439626 0.137266 0 0 0 0)
(-0.734186 0.000449692 0 -0.00734011 0.139222 0 0 0 0)
(-0.279716 -0.000126579 0 -0.012818 0.140631 0 0 0 0)
(-0.144213 0.000630482 0 -0.0189784 0.138021 0 0 0 0)
(-0.12061 0.00313833 0 -0.024767 0.1441 0 0 0 0)
(-0.129773 0.00722839 0 -0.0195187 0.157577 0 0 0 0)
(-0.168951 -0.00119089 0 0.000110879 0.191838 0 0 0 0)
(-0.0986233 -0.00623899 0 0.0098434 0.15063 0 0 0 0)
(0.336568 -0.558225 0 0.409109 -0.371452 0 0 0 0)
(0.199376 -0.105696 0 0.745074 -0.153316 0 0 0 0)
(0.125082 0.137518 0 0.729886 0.0817467 0 0 0 0)
(0.124679 0.123183 0 0.685183 0.195488 0 0 0 0)
(0.144284 0.0796037 0 0.559683 0.0746716 0 0 0 0)
(0.23121 0.0798541 0 0.419449 0.125053 0 0 0 0)
(0.183905 -0.0778102 0 0.228001 0.254043 0 0 0 0)
(-0.0854009 -0.196716 0 0.0506589 0.0586035 0 0 0 0)
(-0.949104 -0.0632185 0 -0.0322147 -0.157254 0 0 0 0)
(-1.48123 0.0707713 0 -0.489391 0.0708669 0 0 0 0)
(-0.724666 0.0988023 0 -0.14265 0.1036 0 0 0 0)
(-0.169939 0.109903 0 -0.161253 0.293524 0 0 0 0)
(-0.36833 0.137051 0 -0.0620793 0.530338 0 0 0 0)
(-0.644298 0.107911 0 -0.0439917 0.777388 0 0 0 0)
(-0.774023 0.0179443 0 -0.0485672 0.910424 0 0 0 0)
(-0.781332 -0.0619232 0 -0.0816617 0.845134 0 0 0 0)
(-0.728558 -0.0780715 0 -0.145223 0.696075 0 0 0 0)
(-0.664017 -0.0736842 0 -0.122938 0.515266 0 0 0 0)
(-0.67448 -0.0655314 0 -0.0895525 0.374099 0 0 0 0)
(-0.835516 -0.0507625 0 -0.0853266 0.306994 0 0 0 0)
(-0.981234 -0.0395389 0 -0.0727454 0.236049 0 0 0 0)
(-0.721697 -0.0242406 0 -0.033716 0.170046 0 0 0 0)
(-0.246198 -0.00825585 0 -0.00662512 0.143941 0 0 0 0)
(-0.0174878 -0.00217846 0 -0.00277883 0.138844 0 0 0 0)
(0.0204905 -0.00175877 0 -0.00292093 0.136093 0 0 0 0)
(0.0274556 -0.00131932 0 -0.00223681 0.1332 0 0 0 0)
(0.0415136 -0.000762329 0 -0.00169937 0.132253 0 0 0 0)
(0.066318 0.000155482 0 -0.00147695 0.130659 0 0 0 0)
(0.0905323 0.000390283 0 -0.00155564 0.132453 0 0 0 0)
(0.0898384 0.000662534 0 -0.00168771 0.131862 0 0 0 0)
(-0.0352864 0.00102493 0 -0.00210613 0.134791 0 0 0 0)
(-0.591973 0.000690207 0 -0.00229552 0.135624 0 0 0 0)
(-1.05503 0.00107133 0 -0.00224173 0.138123 0 0 0 0)
(-0.735772 0.000979047 0 -0.00432041 0.140471 0 0 0 0)
(-0.281612 -0.00034929 0 -0.00857828 0.141812 0 0 0 0)
(-0.145835 0.00100925 0 -0.0120231 0.139471 0 0 0 0)
(-0.119142 0.00568893 0 -0.0154879 0.144871 0 0 0 0)
(-0.122102 0.0138873 0 -0.00471116 0.14951 0 0 0 0)
(-0.161031 -0.00202086 0 0.0298417 0.178737 0 0 0 0)
(-0.0962124 -0.0119877 0 0.0466099 0.146218 0 0 0 0)
(0.0352425 0.013389 0 0.575968 0.206844 0 0 0 0)
(0.0769461 0.0610783 0 0.390034 0.410072 0 0 0 0)
(0.0780439 0.134546 0 0.326793 0.299783 0 0 0 0)
(0.0446186 0.149138 0 0.242575 0.257449 0 0 0 0)
(0.0517352 0.166551 0 0.125522 0.159831 0 0 0 0)
(0.119659 0.21351 0 0.0187775 0.285001 0 0 0 0)
(0.0456802 -0.0625557 0 -0.184831 0.356902 0 0 0 0)
(-0.218327 -0.360396 0 -0.400655 0.237485 0 0 0 0)
(-1.1306 -0.106769 0 -0.631505 0.09303 0 0 0 0)
(-1.4124 0.167308 0 -0.814621 0.130455 0 0 0 0)
(-0.542963 0.182266 0 -0.325291 0.123681 0 0 0 0)
(-0.171881 0.234395 0 -0.384596 0.240045 0 0 0 0)
(-0.377871 0.285415 0 -0.424148 0.505594 0 0 0 0)
(-0.646152 0.222529 0 -0.472652 0.773014 0 0 0 0)
(-0.724718 0.0325137 0 -0.429986 0.860971 0 0 0 0)
(-0.695546 -0.136354 0 -0.298963 0.795594 0 0 0 0)
(-0.661377 -0.182818 0 -0.16348 0.656398 0 0 0 0)
(-0.652631 -0.161339 0 -0.086575 0.505506 0 0 0 0)
(-0.702952 -0.129009 0 -0.0760491 0.394024 0 0 0 0)
(-0.864502 -0.105292 0 -0.0867053 0.307092 0 0 0 0)
(-0.987618 -0.0872828 0 -0.0921235 0.225136 0 0 0 0)
(-0.707568 -0.0527995 0 -0.054936 0.164109 0 0 0 0)
(-0.234688 -0.0175311 0 -0.0122643 0.142917 0 0 0 0)
(-0.0154461 -0.0047086 0 -0.00424332 0.137916 0 0 0 0)
(0.0209761 -0.00340622 0 -0.00361391 0.135381 0 0 0 0)
(0.0281814 -0.00235617 0 -0.00243309 0.133118 0 0 0 0)
(0.0421535 -0.0015454 0 -0.000608824 0.132435 0 0 0 0)
(0.0666835 0.000144675 0 0.000800855 0.130719 0 0 0 0)
(0.0907193 0.000734294 0 0.00130946 0.132332 0 0 0 0)
(0.0899375 0.00139777 0 0.00167308 0.131695 0 0 0 0)
(-0.0350651 0.00225317 0 0.00179485 0.134502 0 0 0 0)
(-0.590991 0.00189494 0 0.00261199 0.13553 0 0 0 0)
(-1.05423 0.00275097 0 0.00599362 0.138027 0 0 0 0)
(-0.736326 0.0021517 0 0.00645219 0.140193 0 0 0 0)
(-0.282356 -0.000495957 0 0.00489046 0.141356 0 0 0 0)
(-0.146673 0.00211117 0 0.00353812 0.139464 0 0 0 0)
(-0.117721 0.00648592 0 0.00186688 0.14651 0 0 0 0)
(-0.110209 0.0207727 0 0.00424719 0.140122 0 0 0 0)
(-0.145917 -0.0022962 0 0.0271271 0.163217 0 0 0 0)
(-0.0908925 -0.0199908 0 0.0371393 0.144263 0 0 0 0)
(0.0153936 -0.0591045 0 0.0308863 0.88102 0 0 0 0)
(0.0249131 -0.105566 0 -0.0327973 0.842614 0 0 0 0)
(0.00820902 -0.0079601 0 -0.082692 0.767091 0 0 0 0)
(-0.0263424 -0.0255976 0 -0.109748 0.687968 0 0 0 0)
(-0.0217475 0.0595302 0 -0.093053 0.56501 0 0 0 0)
(-0.00803954 0.198089 0 -0.122696 0.510657 0 0 0 0)
(-0.146156 -0.131779 0 -0.252302 0.319302 0 0 0 0)
(-0.444553 -0.363222 0 -0.423417 0.231327 0 0 0 0)
(-1.25069 -0.143003 0 -0.702348 0.346011 0 0 0 0)
(-1.22306 0.0485421 0 -0.441557 0.254443 0 0 0 0)
(-0.407714 0.159652 0 -0.237628 0.253658 0 0 0 0)
(-0.264159 0.41117 0 -0.443828 0.354531 0 0 0 0)
(-0.448068 0.571082 0 -0.656396 0.604351 0 0 0 0)
(-0.64893 0.388904 0 -0.753976 0.761876 0 0 0 0)
(-0.633089 0.0318906 0 -0.667889 0.718872 0 0 0 0)
(-0.570517 -0.219145 0 -0.512736 0.630327 0 0 0 0)
(-0.559918 -0.301443 0 -0.377917 0.531017 0 0 0 0)
(-0.585871 -0.279514 0 -0.286951 0.429331 0 0 0 0)
(-0.659337 -0.222692 0 -0.222802 0.34662 0 0 0 0)
(-0.835463 -0.184269 0 -0.184952 0.273695 0 0 0 0)
(-0.947197 -0.15172 0 -0.159862 0.202035 0 0 0 0)
(-0.652318 -0.0881558 0 -0.0836163 0.154373 0 0 0 0)
(-0.203521 -0.028523 0 -0.0182725 0.140346 0 0 0 0)
(-0.0102467 -0.00808325 0 -0.00639267 0.136292 0 0 0 0)
(0.0219745 -0.00549867 0 -0.00542685 0.134101 0 0 0 0)
(0.0299622 -0.00360199 0 -0.00396874 0.132236 0 0 0 0)
(0.0442869 -0.00265383 0 -0.0011375 0.131773 0 0 0 0)
(0.0679706 6.18569e-05 0 0.00128184 0.13009 0 0 0 0)
(0.0912725 0.00114602 0 0.0022469 0.131515 0 0 0 0)
(0.0902529 0.00235927 0 0.00283769 0.130826 0 0 0 0)
(-0.0345002 0.00406197 0 0.00309992 0.133285 0 0 0 0)
(-0.588453 0.00344067 0 0.00415142 0.134515 0 0 0 0)
(-1.05176 0.0046638 0 0.00912919 0.136231 0 0 0 0)
(-0.736537 0.00355835 0 0.010363 0.137562 0 0 0 0)
(-0.284021 -0.000973178 0 0.00930452 0.138953 0 0 0 0)
(-0.148299 0.00538503 0 0.00588897 0.136684 0 0 0 0)
(-0.11922 0.00589555 0 0.00542129 0.148343 0 0 0 0)
(-0.104137 0.0262946 0 0.00143757 0.135753 0 0 0 0)
(-0.137439 0.00211747 0 0.0121323 0.152663 0 0 0 0)
(-0.089417 -0.0259608 0 0.0152075 0.144066 0 0 0 0)
(-0.0261253 -0.0236203 0 -0.288817 0.534885 0 0 0 0)
(-0.0325021 -0.0487077 0 -0.284568 0.556719 0 0 0 0)
(0.00389115 -0.0144764 0 -0.276456 0.601733 0 0 0 0)
(0.0346344 -0.0455938 0 -0.263675 0.603537 0 0 0 0)
(0.0392586 -0.00431236 0 -0.161558 0.643745 0 0 0 0)
(-0.0337995 -0.0232636 0 -0.244755 0.509446 0 0 0 0)
(-0.244106 -0.331728 0 -0.391906 0.302942 0 0 0 0)
(-0.652007 -0.334659 0 -0.43138 0.349653 0 0 0 0)
(-1.14808 -0.0844942 0 -0.602176 0.406339 0 0 0 0)
(-0.964579 0.0783136 0 -0.139117 0.406223 0 0 0 0)
(-0.545151 0.278715 0 -0.259462 0.478539 0 0 0 0)
(-0.575422 0.572336 0 -0.536491 0.675496 0 0 0 0)
(-0.67674 0.677948 0 -0.831323 0.844953 0 0 0 0)
(-0.657227 0.332885 0 -0.871317 0.733666 0 0 0 0)
(-0.49225 -0.0942523 0 -0.722439 0.555829 0 0 0 0)
(-0.416119 -0.317377 0 -0.564889 0.447737 0 0 0 0)
(-0.443802 -0.376505 0 -0.44083 0.378599 0 0 0 0)
(-0.503156 -0.33903 0 -0.34683 0.331113 0 0 0 0)
(-0.604662 -0.278985 0 -0.275175 0.286746 0 0 0 0)
(-0.803851 -0.24462 0 -0.242407 0.231818 0 0 0 0)
(-0.889968 -0.202266 0 -0.212924 0.173012 0 0 0 0)
(-0.571128 -0.112245 0 -0.102108 0.142964 0 0 0 0)
(-0.160273 -0.0349545 0 -0.0220448 0.137289 0 0 0 0)
(-0.00306751 -0.0107267 0 -0.00833962 0.134432 0 0 0 0)
(0.0233119 -0.00731503 0 -0.00741664 0.13242 0 0 0 0)
(0.0323147 -0.00459892 0 -0.00558309 0.130742 0 0 0 0)
(0.0472131 -0.00361324 0 -0.00221526 0.13053 0 0 0 0)
(0.0699449 -0.000104449 0 0.000812676 0.128923 0 0 0 0)
(0.0922186 0.00144377 0 0.00216172 0.130168 0 0 0 0)
(0.0907595 0.00310371 0 0.00291792 0.129484 0 0 0 0)
(-0.0337992 0.00580747 0 0.00324128 0.131503 0 0 0 0)
(-0.585181 0.00473348 0 0.00420522 0.132977 0 0 0 0)
(-1.04824 0.00568725 0 0.00932805 0.134304 0 0 0 0)
(-0.736157 0.00477531 0 0.00996044 0.135443 0 0 0 0)
(-0.286667 -0.00134178 0 0.00838309 0.137381 0 0 0 0)
(-0.150415 0.0111592 0 0.00257152 0.135105 0 0 0 0)
(-0.12201 0.00558867 0 0.00381671 0.149703 0 0 0 0)
(-0.103742 0.0249356 0 -0.00155691 0.135304 0 0 0 0)
(-0.132648 0.00571451 0 0.00398091 0.14506 0 0 0 0)
(-0.0879292 -0.0282752 0 0.00703375 0.141419 0 0 0 0)
(0.0194882 -0.0380646 0 -0.48271 0.425644 0 0 0 0)
(0.0368243 -0.0411494 0 -0.438416 0.415526 0 0 0 0)
(0.028342 0.0371556 0 -0.41745 0.441406 0 0 0 0)
(0.084377 0.0148871 0 -0.448256 0.476563 0 0 0 0)
(-0.00351563 -0.0311392 0 -0.39227 0.495092 0 0 0 0)
(-0.230011 -0.130322 0 -0.505655 0.378012 0 0 0 0)
(-0.325994 -0.285762 0 -0.633036 0.336742 0 0 0 0)
(-0.647176 -0.263584 0 -0.675856 0.395592 0 0 0 0)
(-0.969059 -0.0884903 0 -0.663814 0.412014 0 0 0 0)
(-0.892809 0.118116 0 -0.410498 0.498257 0 0 0 0)
(-0.790638 0.419133 0 -0.648281 0.643078 0 0 0 0)
(-0.815225 0.76426 0 -0.86199 0.95647 0 0 0 0)
(-0.770718 0.627137 0 -0.992939 0.884587 0 0 0 0)
(-0.544006 0.110294 0 -0.848239 0.56896 0 0 0 0)
(-0.337804 -0.243641 0 -0.668291 0.388113 0 0 0 0)
(-0.299148 -0.38993 0 -0.54332 0.300986 0 0 0 0)
(-0.349788 -0.413826 0 -0.45081 0.265934 0 0 0 0)
(-0.42624 -0.368027 0 -0.369808 0.250672 0 0 0 0)
(-0.558712 -0.318376 0 -0.311756 0.226821 0 0 0 0)
(-0.775475 -0.293867 0 -0.294425 0.182662 0 0 0 0)
(-0.812 -0.237344 0 -0.251092 0.139085 0 0 0 0)
(-0.46838 -0.12258 0 -0.106114 0.131857 0 0 0 0)
(-0.113162 -0.0367444 0 -0.0236674 0.134303 0 0 0 0)
(0.00384944 -0.0127757 0 -0.0103736 0.132685 0 0 0 0)
(0.0246308 -0.00905399 0 -0.00923302 0.130656 0 0 0 0)
(0.0349744 -0.00542277 0 -0.00661815 0.129065 0 0 0 0)
(0.0504501 -0.00440739 0 -0.00255003 0.129034 0 0 0 0)
(0.0721884 -0.000287461 0 0.00109361 0.127466 0 0 0 0)
(0.0933012 0.00168715 0 0.00292179 0.128558 0 0 0 0)
(0.0912932 0.00364608 0 0.00395444 0.127888 0 0 0 0)
(-0.0332598 0.0074277 0 0.00464923 0.129393 0 0 0 0)
(-0.582588 0.00613943 0 0.00608812 0.130906 0 0 0 0)
(-1.04621 0.0070402 0 0.013138 0.131856 0 0 0 0)
(-0.737448 0.00652424 0 0.0147261 0.132929 0 0 0 0)
(-0.291142 -0.00129915 0 0.0142448 0.135581 0 0 0 0)
(-0.152699 0.0172582 0 0.00868884 0.13391 0 0 0 0)
(-0.123199 0.00608716 0 0.0125008 0.146998 0 0 0 0)
(-0.103979 0.0218212 0 0.00928702 0.135688 0 0 0 0)
(-0.129161 0.00801012 0 0.0141694 0.141083 0 0 0 0)
(-0.0864752 -0.0294701 0 0.0167664 0.138848 0 0 0 0)
(0.0165584 -0.0333701 0 -0.627453 0.430836 0 0 0 0)
(0.0303855 -0.0335188 0 -0.635828 0.455061 0 0 0 0)
(-0.00559093 0.0443411 0 -0.660305 0.479341 0 0 0 0)
(0.0588988 0.00614018 0 -0.707787 0.427987 0 0 0 0)
(-0.016053 -0.0992795 0 -0.796703 0.364406 0 0 0 0)
(-0.265811 -0.175856 0 -0.809584 0.246343 0 0 0 0)
(-0.408118 -0.314788 0 -0.813502 0.235359 0 0 0 0)
(-0.681666 -0.262124 0 -0.950537 0.339444 0 0 0 0)
(-0.892371 0.014437 0 -0.91598 0.520514 0 0 0 0)
(-0.949612 0.300975 0 -0.942521 0.676416 0 0 0 0)
(-0.980225 0.720266 0 -1.09454 0.995606 0 0 0 0)
(-0.907546 0.805063 0 -1.1761 1.07135 0 0 0 0)
(-0.663489 0.304529 0 -1.02538 0.673655 0 0 0 0)
(-0.344385 -0.145536 0 -0.764387 0.385718 0 0 0 0)
(-0.19842 -0.352482 0 -0.596925 0.248008 0 0 0 0)
(-0.206546 -0.435113 0 -0.504039 0.186274 0 0 0 0)
(-0.2766 -0.42499 0 -0.437902 0.178337 0 0 0 0)
(-0.369158 -0.376721 0 -0.376989 0.182187 0 0 0 0)
(-0.53202 -0.344521 0 -0.34202 0.169059 0 0 0 0)
(-0.745393 -0.329166 0 -0.339185 0.13282 0 0 0 0)
(-0.708505 -0.251224 0 -0.264532 0.110294 0 0 0 0)
(-0.351973 -0.116852 0 -0.0949757 0.12508 0 0 0 0)
(-0.0680137 -0.0341564 0 -0.0228979 0.13164 0 0 0 0)
(0.010842 -0.0142414 0 -0.0125892 0.130511 0 0 0 0)
(0.0269308 -0.0108038 0 -0.011456 0.12825 0 0 0 0)
(0.0387547 -0.0061613 0 -0.00839613 0.126767 0 0 0 0)
(0.0546445 -0.0051538 0 -0.00413037 0.126947 0 0 0 0)
(0.0752177 -0.000563293 0 -0.000419122 0.125469 0 0 0 0)
(0.0949754 0.00185061 0 0.00141095 0.126482 0 0 0 0)
(0.0924242 0.00390809 0 0.00230759 0.125877 0 0 0 0)
(-0.0317431 0.00871591 0 0.00285219 0.126912 0 0 0 0)
(-0.577001 0.0071065 0 0.00373531 0.128334 0 0 0 0)
(-1.03992 0.00763622 0 0.0100791 0.128982 0 0 0 0)
(-0.735091 0.00836539 0 0.0114555 0.129826 0 0 0 0)
(-0.292485 -0.000396395 0 0.0110156 0.133233 0 0 0 0)
(-0.152096 0.022161 0 0.00505122 0.13243 0 0 0 0)
(-0.121434 0.00730233 0 0.00844446 0.142856 0 0 0 0)
(-0.102134 0.0192358 0 0.00627782 0.135623 0 0 0 0)
(-0.125441 0.00875929 0 0.0115159 0.13899 0 0 0 0)
(-0.0854266 -0.0304293 0 0.0136343 0.137307 0 0 0 0)
(0.0114179 -0.0147201 0 -0.847192 0.389684 0 0 0 0)
(0.00516653 0.00559225 0 -0.86185 0.40759 0 0 0 0)
(-0.041001 0.0110659 0 -0.906353 0.377247 0 0 0 0)
(-0.0470609 -0.0958683 0 -0.944642 0.272851 0 0 0 0)
(-0.10161 -0.206178 0 -1.09561 0.233059 0 0 0 0)
(-0.246199 -0.254676 0 -1.12632 0.226645 0 0 0 0)
(-0.461821 -0.196047 0 -1.18507 0.310628 0 0 0 0)
(-0.745928 0.0112014 0 -1.31698 0.587991 0 0 0 0)
(-0.961334 0.236229 0 -1.36025 0.787299 0 0 0 0)
(-1.06487 0.575932 0 -1.50366 1.00783 0 0 0 0)
(-1.01572 0.799709 0 -1.47755 1.17625 0 0 0 0)
(-0.748579 0.454016 0 -1.2606 0.786725 0 0 0 0)
(-0.373979 -0.0335658 0 -0.890496 0.40699 0 0 0 0)
(-0.131135 -0.299875 0 -0.635526 0.221631 0 0 0 0)
(-0.0869236 -0.435832 0 -0.514666 0.114894 0 0 0 0)
(-0.145908 -0.457067 0 -0.462849 0.095464 0 0 0 0)
(-0.227359 -0.417764 0 -0.419398 0.111003 0 0 0 0)
(-0.333845 -0.376969 0 -0.378512 0.123727 0 0 0 0)
(-0.522282 -0.365949 0 -0.368112 0.111834 0 0 0 0)
(-0.700805 -0.350495 0 -0.369692 0.0818028 0 0 0 0)
(-0.576671 -0.244802 0 -0.248993 0.0883392 0 0 0 0)
(-0.235533 -0.10201 0 -0.0773642 0.120659 0 0 0 0)
(-0.0337718 -0.0315116 0 -0.0221596 0.128495 0 0 0 0)
(0.0148753 -0.0160417 0 -0.0147452 0.127216 0 0 0 0)
(0.0286714 -0.0126613 0 -0.0123308 0.124837 0 0 0 0)
(0.0420336 -0.00667921 0 -0.00803808 0.123539 0 0 0 0)
(0.058137 -0.00565817 0 -0.00292225 0.123889 0 0 0 0)
(0.0775282 -0.000735053 0 0.00133903 0.122454 0 0 0 0)
(0.0959288 0.00208041 0 0.00353076 0.123418 0 0 0 0)
(0.0926821 0.00406032 0 0.00460966 0.122878 0 0 0 0)
(-0.0318839 0.00979552 0 0.00545112 0.123537 0 0 0 0)
(-0.575624 0.00813402 0 0.00692224 0.124901 0 0 0 0)
(-1.03877 0.00847766 0 0.0153793 0.125636 0 0 0 0)
(-0.736546 0.0106211 0 0.0168847 0.126448 0 0 0 0)