/*--------------------------------*- C++ -*----------------------------------*\
| =========                 |                                                 |
| \\      /  F ield         | OpenFOAM: The Open Source CFD Toolbox           |
|  \\    /   O peration     | Version:  v1912                                 |
|   \\  /    A nd           | Website:  www.openfoam.com                      |
|    \\/     M anipulation  |                                                 |
\*---------------------------------------------------------------------------*/
FoamFile
{
    version     2.0;
    format      ascii;
    class       volScalarField;
    location    "7.8";
    object      Ma;
}
// * * * * * * * * * * * * * * * * * * * * * * * * * * * * * * * * * * * * * //

dimensions      [0 0 0 0 0 0 0];


internalField   nonuniform List<scalar> 
1900
(
0.45271
0.0347864
0.104754
0.107999
0.110477
0.110054
0.109707
0.107885
0.106336
0.0950923
0.452707
0.0347878
0.104755
0.107987
0.110435
0.109932
0.109556
0.107571
0.107177
0.107522
0.452707
0.0347884
0.104752
0.107975
0.110396
0.109825
0.109447
0.107811
0.108595
0.114103
0.452707
0.0347878
0.104755
0.107987
0.110435
0.109932
0.109556
0.107571
0.107177
0.107522
0.45271
0.0347864
0.104754
0.107999
0.110477
0.110054
0.109707
0.107885
0.106336
0.0950923
0.103425
0.14322
0.196645
0.28337
0.432514
0.123587
0.149031
0.181214
0.247506
0.392795
0.131139
0.154985
0.187587
0.251076
0.389907
0.123587
0.149031
0.181214
0.247506
0.392795
0.103425
0.14322
0.196645
0.28337
0.432514
0.948486
1.34034
1.60562
1.78364
1.95901
0.907004
1.33962
1.62705
1.80373
1.97901
0.902549
1.34853
1.62749
1.79816
1.97514
0.907004
1.33962
1.62705
1.80373
1.97901
0.948486
1.34034
1.60562
1.78364
1.95901
2.07443
2.16055
2.20678
2.25
2.28546
2.33915
2.43939
2.46401
2.38363
1.90689
1.58071
1.52616
1.48329
1.3898
1.26803
1.15129
1.04134
0.932445
0.827015
0.7065
0.534713
0.339294
0.248181
0.238025
0.242986
0.249291
0.257309
0.269753
0.288724
0.311937
0.329692
0.291455
0.0538658
0.174493
0.250466
0.280331
0.299608
0.316791
0.33947
0.376628
2.05024
2.04848
2.07839
2.1209
2.17153
2.24606
2.36762
2.40769
2.32417
1.88866
1.56615
1.52083
1.47217
1.37519
1.25534
1.14907
1.05521
0.948743
0.83816
0.714161
0.539373
0.340445
0.247886
0.237637
0.242673
0.248997
0.257046
0.269548
0.288568
0.311853
0.329673
0.291456
0.052265
0.173116
0.24891
0.278498
0.297533
0.315552
0.340216
0.378526
2.04412
2.03575
2.0386
2.07972
2.12068
2.20278
2.3348
2.37791
2.29913
1.87117
1.55599
1.51701
1.47183
1.37768
1.26381
1.16201
1.06606
0.96334
0.843074
0.710398
0.536162
0.340167
0.24789
0.237521
0.242554
0.248849
0.256871
0.269379
0.288411
0.311713
0.329546
0.291323
0.0515565
0.172807
0.248417
0.27769
0.296349
0.314128
0.338837
0.377393
2.05024
2.04848
2.07839
2.1209
2.17153
2.24606
2.36762
2.40769
2.32417
1.88866
1.56615
1.52083
1.47217
1.37519
1.25534
1.14907
1.05521
0.948743
0.83816
0.714161
0.539373
0.340445
0.247886
0.237637
0.242673
0.248997
0.257046
0.269548
0.288568
0.311853
0.329673
0.291456
0.052265
0.173116
0.24891
0.278498
0.297533
0.315552
0.340216
0.378526
2.07443
2.16055
2.20678
2.25
2.28546
2.33915
2.43939
2.46401
2.38363
1.90689
1.58071
1.52616
1.48329
1.3898
1.26803
1.15129
1.04134
0.932445
0.827015
0.7065
0.534713
0.339294
0.248181
0.238025
0.242986
0.249291
0.257309
0.269753
0.288724
0.311937
0.329692
0.291455
0.0538658
0.174493
0.250466
0.280331
0.299608
0.316791
0.33947
0.376628
2.40449
2.42702
2.45487
2.47426
2.47651
2.49973
2.54559
2.52582
2.39527
1.851
1.58191
1.51733
1.46765
1.37288
1.25607
1.15061
1.05123
0.947177
0.836483
0.708104
0.530973
0.336459
0.249325
0.23994
0.244844
0.251173
0.259273
0.271696
0.290636
0.313739
0.331475
0.293538
0.0630044
0.176653
0.252006
0.281634
0.301153
0.31743
0.336802
0.371169
2.62306
2.63447
2.64605
2.65109
2.63522
2.63303
2.61089
2.51733
2.28311
1.74589
1.54618
1.45453
1.39017
1.29788
1.1993
1.11302
1.024
0.924114
0.816404
0.690363
0.514135
0.329115
0.253019
0.245508
0.250278
0.256539
0.264932
0.277382
0.296251
0.319027
0.336728
0.299572
0.0839679
0.182558
0.255788
0.285017
0.30478
0.320793
0.338577
0.370944
2.60577
2.5862
2.58179
2.58959
2.60457
2.61177
2.57347
2.44823
2.13542
1.73792
1.54852
1.40974
1.30546
1.21023
1.13193
1.06349
0.983551
0.890163
0.789276
0.665524
0.489487
0.319843
0.258977
0.253948
0.258516
0.264662
0.273396
0.285853
0.304641
0.326949
0.344581
0.308505
0.108417
0.191419
0.261506
0.290382
0.310464
0.326208
0.343811
0.374118
2.52308
2.53103
2.54181
2.55681
2.5946
2.54622
2.44162
2.29245
1.99558
1.69915
1.48062
1.32135
1.21569
1.1369
1.07701
1.01554
0.939485
0.85323
0.758648
0.63422
0.458877
0.312004
0.267782
0.265013
0.269197
0.275176
0.284214
0.296567
0.315215
0.336908
0.3544
0.319537
0.133929
0.204114
0.270729
0.29934
0.319614
0.33432
0.352095
0.380314
2.4213
2.42702
2.43495
2.43094
2.45713
2.38459
2.26039
2.08428
1.81491
1.56341
1.34844
1.21873
1.1389
1.07855
1.02809
0.967161
0.894026
0.814339
0.723209
0.594886
0.424313
0.30736
0.278864
0.278106
0.28196
0.287906
0.297368
0.309642
0.328214
0.349293
0.366712
0.33341
0.160366
0.216795
0.278962
0.306549
0.326529
0.339558
0.357132
0.383246
2.26219
2.26576
2.26271
2.238
2.20681
2.12674
2.00577
1.82051
1.58636
1.35949
1.20091
1.12864
1.07624
1.03557
0.984818
0.920521
0.850062
0.775285
0.683898
0.549668
0.392765
0.30958
0.292749
0.292822
0.296075
0.301834
0.311519
0.323457
0.341748
0.361984
0.379037
0.346907
0.185479
0.234247
0.292965
0.320125
0.340388
0.351956
0.369331
0.393497
2.03812
2.03541
2.0131
1.97035
1.91464
1.83
1.69902
1.51826
1.31484
1.14786
1.09278
1.0648
1.03905
0.997166
0.9371
0.872514
0.806033
0.734134
0.638349
0.498957
0.367428
0.316147
0.307781
0.308477
0.311653
0.317666
0.327945
0.339823
0.358103
0.377741
0.394704
0.364333
0.21182
0.248451
0.302992
0.329262
0.349628
0.359778
0.376895
0.399228
1.74019
1.73175
1.70398
1.65976
1.59591
1.49947
1.36185
1.20113
1.0708
1.05237
1.05567
1.03772
1.00197
0.948459
0.888685
0.826676
0.764098
0.692088
0.587813
0.450915
0.356141
0.328405
0.323776
0.32408
0.327013
0.33305
0.343635
0.355136
0.373095
0.391898
0.408402
0.379243
0.236118
0.267303
0.318476
0.343695
0.363818
0.372527
0.389094
0.4096
1.39206
1.389
1.36582
1.32329
1.2494
1.15306
1.0598
1.01162
1.03161
1.04672
1.03431
0.999643
0.951831
0.89755
0.839245
0.781684
0.722213
0.644625
0.530155
0.411302
0.356065
0.343256
0.340982
0.341545
0.345115
0.351725
0.363031
0.374488
0.3923
0.410429
0.426559
0.399037
0.262445
0.283313
0.33105
0.355351
0.37542
0.382883
0.399013
0.417903
1.02076
1.023
1.00697
0.981917
0.963746
0.963926
0.996185
1.03085
1.03923
1.02704
0.993779
0.952257
0.903515
0.848974
0.79406
0.740846
0.680471
0.59255
0.477758
0.39346
0.366605
0.360671
0.358568
0.358992
0.362852
0.369603
0.38125
0.392351
0.409674
0.4269
0.442282
0.415897
0.286978
0.30309
0.347818
0.371222
0.391198
0.397204
0.412251
0.429133
0.761031
0.797521
0.827494
0.872934
0.930756
0.984824
1.02056
1.02996
1.01705
0.989124
0.951885
0.906118
0.853856
0.801301
0.752997
0.702471
0.632785
0.52676
0.42484
0.388727
0.377415
0.372314
0.369364
0.369515
0.373454
0.38011
0.391954
0.402764
0.419644
0.436095
0.451045
0.424934
0.296674
0.304507
0.346491
0.371274
0.393932
0.402503
0.418944
0.435252
0.736373
0.771703
0.82215
0.874583
0.921257
0.965306
0.997711
1.00202
0.982925
0.948932
0.905201
0.853183
0.798761
0.747281
0.695756
0.627103
0.535099
0.449047
0.389237
0.357695
0.343786
0.33371
0.326265
0.323509
0.325619
0.331208
0.34324
0.354329
0.371579
0.388519
0.404135
0.372175
0.222453
0.235936
0.291736
0.335606
0.370237
0.39487
0.421994
0.443814
0.723776
0.744901
0.79359
0.839267
0.884239
0.928574
0.957481
0.957482
0.930396
0.883832
0.8287
0.767202
0.70223
0.632489
0.55682
0.467693
0.356577
0.256353
0.208913
0.186214
0.173117
0.166511
0.167408
0.175782
0.189198
0.206525
0.227396
0.246996
0.269889
0.29402
0.310918
0.269858
0.0735022
0.101027
0.163991
0.230557
0.286753
0.346519
0.400464
0.442611
0.697669
0.70524
0.743934
0.778388
0.81169
0.843325
0.861876
0.847079
0.79375
0.710806
0.616168
0.520209
0.433983
0.350573
0.258528
0.157155
0.0809664
0.0723579
0.0963104
0.122055
0.146532
0.169236
0.190589
0.210871
0.229694
0.249927
0.267441
0.287463
0.305976
0.327955
0.338607
0.303647
0.164523
0.105778
0.0900494
0.132502
0.179905
0.257078
0.342663
0.415827
0.661018
0.644241
0.639824
0.626668
0.613154
0.58707
0.558505
0.52654
0.468129
0.392876
0.322825
0.258625
0.197209
0.123372
0.0434647
0.0463649
0.0917458
0.1229
0.149568
0.173821
0.196044
0.217005
0.236389
0.254369
0.270112
0.288271
0.302777
0.321242
0.337697
0.358201
0.366384
0.340144
0.220321
0.107974
0.0362448
0.0575224
0.117196
0.196174
0.286451
0.356144
0.630689
0.570143
0.513643
0.467596
0.430221
0.383969
0.341567
0.308959
0.274529
0.231277
0.179783
0.117967
0.0521537
0.032399
0.0801196
0.116903
0.14007
0.160751
0.181283
0.200546
0.219505
0.238717
0.256992
0.274132
0.288892
0.306799
0.320395
0.338389
0.354154
0.373927
0.382831
0.368347
0.280169
0.163241
0.0803186
0.0231074
0.0979875
0.194347
0.293293
0.346089
0.60964
0.539512
0.480344
0.422196
0.36094
0.300016
0.240982
0.225263
0.215656
0.186232
0.146231
0.114899
0.105606
0.122608
0.140199
0.15241
0.166269
0.183627
0.202549
0.220517
0.23809
0.256609
0.275105
0.292515
0.306914
0.325021
0.3384
0.355991
0.371395
0.390515
0.401601
0.394225
0.332801
0.220625
0.140985
0.107298
0.151858
0.22483
0.315502
0.347373
0.630227
0.579004
0.488165
0.404847
0.321682
0.247517
0.182905
0.173885
0.176814
0.166572
0.152808
0.154692
0.162178
0.172787
0.177796
0.185063
0.196779
0.211469
0.226764
0.240369
0.254324
0.270586
0.287957
0.30406
0.316473
0.332995
0.344853
0.361134
0.37536
0.392951
0.404625
0.407442
0.376657
0.294607
0.219233
0.205779
0.226971
0.31516
0.442941
0.457217
0.860502
0.715511
0.565041
0.446648
0.351497
0.269134
0.218476
0.224139
0.230053
0.22659
0.216318
0.214677
0.21035
0.206387
0.203685
0.206455
0.215111
0.227452
0.241261
0.255076
0.270936
0.287457
0.303273
0.318028
0.329455
0.345582
0.357116
0.372819
0.386529
0.403034
0.414509
0.424308
0.414217
0.367237
0.305546
0.300887
0.312525
0.438632
0.598553
0.742189
2.08173
0.979903
0.553488
0.455934
0.371563
0.282241
0.242988
0.254127
0.267492
0.271633
0.264952
0.261663
0.251325
0.244409
0.242481
0.247203
0.256999
0.269578
0.282743
0.295455
0.310036
0.322989
0.333732
0.344323
0.352593
0.366415
0.375847
0.38954
0.40145
0.416033
0.426178
0.438719
0.442929
0.428033
0.37422
0.35328
0.344653
0.453977
0.728718
1.84493
2.08173
0.979903
0.553488
0.455934
0.371563
0.282241
0.242988
0.254127
0.267492
0.271633
0.264952
0.261663
0.251325
0.244409
0.242481
0.247203
0.256999
0.269578
0.282743
0.295455
0.310036
0.322989
0.333732
0.344323
0.352593
0.366415
0.375847
0.38954
0.40145
0.416033
0.426178
0.438719
0.442929
0.428033
0.37422
0.35328
0.344653
0.453977
0.728718
1.84493
0.860502
0.715511
0.565041
0.446648
0.351497
0.269134
0.218476
0.224139
0.230053
0.22659
0.216318
0.214677
0.21035
0.206387
0.203685
0.206455
0.215111
0.227452
0.241261
0.255076
0.270936
0.287457
0.303273
0.318028
0.329455
0.345582
0.357116
0.372819
0.386529
0.403034
0.414509
0.424308
0.414217
0.367237
0.305546
0.300887
0.312525
0.438632
0.598553
0.742189
0.630227
0.579004
0.488165
0.404847
0.321682
0.247517
0.182905
0.173885
0.176814
0.166572
0.152808
0.154692
0.162178
0.172787
0.177796
0.185063
0.196779
0.211469
0.226764
0.240369
0.254324
0.270586
0.287957
0.30406
0.316473
0.332995
0.344853
0.361134
0.37536
0.392951
0.404625
0.407442
0.376657
0.294607
0.219233
0.205779
0.226971
0.31516
0.442941
0.457217
0.60964
0.539512
0.480344
0.422196
0.36094
0.300016
0.240982
0.225263
0.215656
0.186232
0.146231
0.114899
0.105606
0.122608
0.140199
0.15241
0.166269
0.183627
0.202549
0.220517
0.23809
0.256609
0.275105
0.292515
0.306914
0.325021
0.3384
0.355991
0.371395
0.390515
0.401601
0.394225
0.332801
0.220625
0.140985
0.107298
0.151858
0.22483
0.315502
0.347373
0.630689
0.570143
0.513643
0.467596
0.430221
0.383969
0.341567
0.308959
0.274529
0.231277
0.179783
0.117967
0.0521537
0.032399
0.0801196
0.116903
0.14007
0.160751
0.181283
0.200546
0.219505
0.238717
0.256992
0.274132
0.288892
0.306799
0.320395
0.338389
0.354154
0.373927
0.382831
0.368347
0.280169
0.163241
0.0803186
0.0231074
0.0979875
0.194347
0.293293
0.346089
0.661018
0.644241
0.639824
0.626668
0.613154
0.58707
0.558505
0.52654
0.468129
0.392876
0.322825
0.258625
0.197209
0.123372
0.0434647
0.0463649
0.0917458
0.1229
0.149568
0.173821
0.196044
0.217005
0.236389
0.254369
0.270112
0.288271
0.302777
0.321242
0.337697
0.358201
0.366384
0.340144
0.220321
0.107974
0.0362448
0.0575224
0.117196
0.196174
0.286451
0.356144
0.697669
0.70524
0.743934
0.778388
0.81169
0.843325
0.861876
0.847079
0.79375
0.710806
0.616168
0.520209
0.433983
0.350573
0.258528
0.157155
0.0809664
0.0723579
0.0963104
0.122055
0.146532
0.169236
0.190589
0.210871
0.229694
0.249927
0.267441
0.287463
0.305976
0.327955
0.338607
0.303647
0.164523
0.105778
0.0900494
0.132502
0.179905
0.257078
0.342663
0.415827
0.723776
0.744901
0.79359
0.839267
0.884239
0.928574
0.957481
0.957482
0.930396
0.883832
0.8287
0.767202
0.70223
0.632489
0.55682
0.467693
0.356577
0.256353
0.208913
0.186214
0.173117
0.166511
0.167408
0.175782
0.189198
0.206525
0.227396
0.246996
0.269889
0.29402
0.310918
0.269858
0.0735022
0.101027
0.163991
0.230557
0.286753
0.346519
0.400464
0.442611
0.736373
0.771703
0.82215
0.874583
0.921257
0.965306
0.997711
1.00202
0.982925
0.948932
0.905201
0.853183
0.798761
0.747281
0.695756
0.627103
0.535099
0.449047
0.389237
0.357695
0.343786
0.33371
0.326265
0.323509
0.325619
0.331208
0.34324
0.354329
0.371579
0.388519
0.404135
0.372175
0.222453
0.235936
0.291736
0.335606
0.370237
0.39487
0.421994
0.443814
0.761031
0.797521
0.827494
0.872934
0.930756
0.984824
1.02056
1.02996
1.01705
0.989124
0.951885
0.906118
0.853856
0.801301
0.752997
0.702471
0.632785
0.52676
0.42484
0.388727
0.377415
0.372314
0.369364
0.369515
0.373454
0.38011
0.391954
0.402764
0.419644
0.436095
0.451045
0.424934
0.296674
0.304507
0.346491
0.371274
0.393932
0.402503
0.418944
0.435252
1.02076
1.023
1.00697
0.981917
0.963746
0.963926
0.996185
1.03085
1.03923
1.02704
0.993779
0.952257
0.903515
0.848974
0.79406
0.740846
0.680471
0.59255
0.477758
0.39346
0.366605
0.360671
0.358568
0.358992
0.362852
0.369603
0.38125
0.392351
0.409674
0.4269
0.442282
0.415897
0.286978
0.30309
0.347818
0.371222
0.391198
0.397204
0.412251
0.429133
1.39206
1.389
1.36582
1.32329
1.2494
1.15306
1.0598
1.01162
1.03161
1.04672
1.03431
0.999643
0.951831
0.89755
0.839245
0.781684
0.722213
0.644625
0.530155
0.411302
0.356065
0.343256
0.340982
0.341545
0.345115
0.351725
0.363031
0.374488
0.3923
0.410429
0.426559
0.399037
0.262445
0.283313
0.33105
0.355351
0.37542
0.382883
0.399013
0.417903
1.74019
1.73175
1.70398
1.65976
1.59591
1.49947
1.36185
1.20113
1.0708
1.05237
1.05567
1.03772
1.00197
0.948459
0.888685
0.826676
0.764098
0.692088
0.587813
0.450915
0.356141
0.328405
0.323776
0.32408
0.327013
0.33305
0.343635
0.355136
0.373095
0.391898
0.408402
0.379243
0.236118
0.267303
0.318476
0.343695
0.363818
0.372527
0.389094
0.4096
2.03812
2.03541
2.0131
1.97035
1.91464
1.83
1.69902
1.51826
1.31484
1.14786
1.09278
1.0648
1.03905
0.997166
0.9371
0.872514
0.806033
0.734134
0.638349
0.498957
0.367428
0.316147
0.307781
0.308477
0.311653
0.317666
0.327945
0.339823
0.358103
0.377741
0.394704
0.364333
0.21182
0.248451
0.302992
0.329262
0.349628
0.359778
0.376895
0.399228
2.26219
2.26576
2.26271
2.238
2.20681
2.12674
2.00577
1.82051
1.58636
1.35949
1.20091
1.12864
1.07624
1.03557
0.984818
0.920521
0.850062
0.775285
0.683898
0.549668
0.392765
0.30958
0.292749
0.292822
0.296075
0.301834
0.311519
0.323457
0.341748
0.361984
0.379037
0.346907
0.185479
0.234247
0.292965
0.320125
0.340388
0.351956
0.369331
0.393497
2.4213
2.42702
2.43495
2.43094
2.45713
2.38459
2.26039
2.08428
1.81491
1.56341
1.34844
1.21873
1.1389
1.07855
1.02809
0.967161
0.894026
0.814339
0.723209
0.594886
0.424313
0.30736
0.278864
0.278106
0.28196
0.287906
0.297368
0.309642
0.328214
0.349293
0.366712
0.33341
0.160366
0.216795
0.278962
0.306549
0.326529
0.339558
0.357132
0.383246
2.52308
2.53103
2.54181
2.55681
2.5946
2.54622
2.44162
2.29245
1.99558
1.69915
1.48062
1.32135
1.21569
1.1369
1.07701
1.01554
0.939485
0.85323
0.758648
0.63422
0.458877
0.312004
0.267782
0.265013
0.269197
0.275176
0.284214
0.296567
0.315215
0.336908
0.3544
0.319537
0.133929
0.204114
0.270729
0.29934
0.319614
0.33432
0.352095
0.380314
2.60577
2.5862
2.58179
2.58959
2.60457
2.61177
2.57347
2.44823
2.13542
1.73792
1.54852
1.40974
1.30546
1.21023
1.13193
1.06349
0.983551
0.890163
0.789276
0.665524
0.489487
0.319843
0.258977
0.253948
0.258516
0.264662
0.273396
0.285853
0.304641
0.326949
0.344581
0.308505
0.108417
0.191419
0.261506
0.290382
0.310464
0.326208
0.343811
0.374118
2.62306
2.63447
2.64605
2.65109
2.63522
2.63303
2.61089
2.51733
2.28311
1.74589
1.54618
1.45453
1.39017
1.29788
1.1993
1.11302
1.024
0.924114
0.816404
0.690363
0.514135
0.329115
0.253019
0.245508
0.250278
0.256539
0.264932
0.277382
0.296251
0.319027
0.336728
0.299572
0.0839679
0.182558
0.255788
0.285017
0.30478
0.320793
0.338577
0.370944
2.40449
2.42702
2.45487
2.47426
2.47651
2.49973
2.54559
2.52582
2.39527
1.851
1.58191
1.51733
1.46765
1.37288
1.25607
1.15061
1.05123
0.947177
0.836483
0.708104
0.530973
0.336459
0.249325
0.23994
0.244844
0.251173
0.259273
0.271696
0.290636
0.313739
0.331475
0.293538
0.0630044
0.176653
0.252006
0.281634
0.301153
0.31743
0.336802
0.371169
)
;

boundaryField
{
    inlet
    {
        type            calculated;
        value           uniform 0;
    }
    outlet
    {
        type            calculated;
        value           nonuniform List<scalar> 
165
(
2.40449
2.62306
2.60577
2.52308
2.4213
2.26219
2.03812
1.74019
1.39206
1.02076
0.761031
0.736373
0.723776
0.697669
0.661018
0.630689
0.60964
0.630227
0.860502
2.08173
2.08173
0.979903
0.553488
0.455934
0.371563
0.282241
0.242988
0.254127
0.267492
0.271633
0.264952
0.261663
0.251325
0.244409
0.242481
0.247203
0.256999
0.269578
0.282743
0.295455
0.310036
0.322989
0.333732
0.344323
0.352593
0.366415
0.375847
0.38954
0.40145
0.416033
0.426178
0.438719
0.442929
0.428033
0.37422
0.35328
0.344653
0.453977
0.728718
1.84493
0.371169
0.370944
0.374118
0.380314
0.383246
0.393497
0.399228
0.4096
0.417903
0.429133
0.435252
0.443814
0.442611
0.415827
0.356144
0.346089
0.347373
0.457217
0.742189
1.84493
0.376628
0.378526
0.377393
0.378526
0.376628
1.84493
0.742189
0.457217
0.347373
0.346089
0.356144
0.415827
0.442611
0.443814
0.435252
0.429133
0.417903
0.4096
0.399228
0.393497
0.383246
0.380314
0.374118
0.370944
0.371169
2.08173
0.979903
0.553488
0.455934
0.371563
0.282241
0.242988
0.254127
0.267492
0.271633
0.264952
0.261663
0.251325
0.244409
0.242481
0.247203
0.256999
0.269578
0.282743
0.295455
0.310036
0.322989
0.333732
0.344323
0.352593
0.366415
0.375847
0.38954
0.40145
0.416033
0.426178
0.438719
0.442929
0.428033
0.37422
0.35328
0.344653
0.453977
0.728718
1.84493
2.08173
0.860502
0.630227
0.60964
0.630689
0.661018
0.697669
0.723776
0.736373
0.761031
1.02076
1.39206
1.74019
2.03812
2.26219
2.4213
2.52308
2.60577
2.62306
2.40449
)
;
    }
    obstacle
    {
        type            calculated;
        value           nonuniform List<scalar> 
40
(
0.45271
0.0347864
0.104754
0.107999
0.110477
0.110054
0.109707
0.107885
0.106285
0.0943403
0.45271
0.0347864
0.104754
0.107999
0.110477
0.110054
0.109707
0.107885
0.106285
0.0943403
0.101241
0.139976
0.193267
0.279965
0.425763
0.101241
0.139976
0.193267
0.279965
0.425763
0.938418
1.33762
1.60403
1.78218
1.95774
0.938418
1.33762
1.60403
1.78218
1.95774
)
;
    }
    empty
    {
        type            empty;
    }
}


// ************************************************************************* //
