/*--------------------------------*- C++ -*----------------------------------*\
| =========                 |                                                 |
| \\      /  F ield         | OpenFOAM: The Open Source CFD Toolbox           |
|  \\    /   O peration     | Version:  v1912                                 |
|   \\  /    A nd           | Website:  www.openfoam.com                      |
|    \\/     M anipulation  |                                                 |
\*---------------------------------------------------------------------------*/
FoamFile
{
    version     2.0;
    format      ascii;
    class       volTensorField;
    location    "2.94";
    object      grad(U);
}
// * * * * * * * * * * * * * * * * * * * * * * * * * * * * * * * * * * * * * //

dimensions      [0 0 -1 0 0 0 0];


internalField   nonuniform List<tensor> 
1900
(
(-2.53003 -2.30101e-05 0 -2.50766e-05 -2.76929e-05 0 0 0 0)
(1.80718 -1.1651e-05 0 -3.15979e-05 -3.13567e-05 0 0 0 0)
(-0.0432034 4.81785e-05 0 -4.56759e-05 -3.69732e-05 0 0 0 0)
(-0.0421925 0.000577936 0 -3.13695e-05 0.000108796 0 0 0 0)
(-0.0443236 0.00179108 0 0.000326625 0.00110532 0 0 0 0)
(-0.0499706 0.00232309 0 0.00181147 0.00366557 0 0 0 0)
(-0.0525895 -0.00623167 0 0.0055116 0.00593851 0 0 0 0)
(-0.0465352 -0.0281178 0 0.00837748 -0.00547108 0 0 0 0)
(0.0304737 -0.0862322 0 -0.0028033 -0.0397307 0 0 0 0)
(0.0243318 -0.256865 0 -0.0766059 -0.164995 0 0 0 0)
(-2.53008 -3.60395e-05 0 -3.16885e-05 9.66623e-06 0 0 0 0)
(1.80715 2.3707e-06 0 -3.86836e-05 1.33438e-05 0 0 0 0)
(-0.0432032 9.1974e-05 0 -5.1894e-05 2.13173e-05 0 0 0 0)
(-0.0418202 0.000564356 0 5.61737e-05 -3.48346e-05 0 0 0 0)
(-0.0424807 0.0017657 0 0.00073395 -0.000556618 0 0 0 0)
(-0.0447856 0.0025101 0 0.00301348 -0.00182591 0 0 0 0)
(-0.0460235 -0.00290498 0 0.00770922 -0.00287971 0 0 0 0)
(-0.0548501 -0.0175514 0 0.0103649 0.00440576 0 0 0 0)
(-0.0545096 -0.0732915 0 -0.0029441 0.0252381 0 0 0 0)
(-0.145436 -0.17937 0 -0.115748 0.090638 0 0 0 0)
(-2.5301 -1.88367e-13 0 -1.07336e-13 3.60533e-05 0 0 0 0)
(1.80715 -4.31589e-14 0 -7.16929e-14 3.60257e-05 0 0 0 0)
(-0.0431086 1.82102e-13 0 -3.08998e-14 3.13119e-05 0 0 0 0)
(-0.0414067 3.47917e-13 0 1.71304e-13 -0.000147922 0 0 0 0)
(-0.0413662 -3.29014e-14 0 9.48677e-15 -0.0010974 0 0 0 0)
(-0.0429953 -2.7424e-13 0 -7.02021e-14 -0.00367933 0 0 0 0)
(-0.0452381 -9.06016e-14 0 -1.53279e-13 -0.0061176 0 0 0 0)
(-0.0571886 -1.46163e-13 0 -1.13706e-13 0.00213063 0 0 0 0)
(-0.0956389 -7.85592e-14 0 2.62919e-14 0.0289852 0 0 0 0)
(-0.202168 1.00538e-13 0 1.59513e-13 0.148714 0 0 0 0)
(-2.53008 3.60395e-05 0 3.16885e-05 9.66623e-06 0 0 0 0)
(1.80715 -2.3707e-06 0 3.86836e-05 1.33438e-05 0 0 0 0)
(-0.0432032 -9.1974e-05 0 5.1894e-05 2.13173e-05 0 0 0 0)
(-0.0418202 -0.000564356 0 -5.61737e-05 -3.48346e-05 0 0 0 0)
(-0.0424807 -0.0017657 0 -0.00073395 -0.000556618 0 0 0 0)
(-0.0447856 -0.0025101 0 -0.00301348 -0.00182591 0 0 0 0)
(-0.0460235 0.00290498 0 -0.00770922 -0.00287971 0 0 0 0)
(-0.0548501 0.0175514 0 -0.0103649 0.00440576 0 0 0 0)
(-0.0545096 0.0732915 0 0.0029441 0.0252381 0 0 0 0)
(-0.145436 0.17937 0 0.115748 0.090638 0 0 0 0)
(-2.53003 2.30101e-05 0 2.50766e-05 -2.76929e-05 0 0 0 0)
(1.80718 1.1651e-05 0 3.15979e-05 -3.13567e-05 0 0 0 0)
(-0.0432034 -4.81785e-05 0 4.56759e-05 -3.69732e-05 0 0 0 0)
(-0.0421925 -0.000577936 0 3.13695e-05 0.000108796 0 0 0 0)
(-0.0443236 -0.00179108 0 -0.000326625 0.00110532 0 0 0 0)
(-0.0499706 -0.00232309 0 -0.00181147 0.00366557 0 0 0 0)
(-0.0525895 0.00623167 0 -0.0055116 0.00593851 0 0 0 0)
(-0.0465352 0.0281178 0 -0.00837748 -0.00547108 0 0 0 0)
(0.0304737 0.0862322 0 0.0028033 -0.0397307 0 0 0 0)
(0.0243318 0.256865 0 0.0766059 -0.164995 0 0 0 0)
(-0.139637 -0.427785 1.42506e-17 -0.244671 0.197884 -2.13759e-17 -6.52666e-17 -7.61273e-17 3.86263e-33)
(-0.288096 -0.497273 0 -0.335027 0.316623 0 1.68248e-16 6.33783e-17 0)
(-0.359213 -0.583935 0 -0.504099 0.336579 0 2.6338e-16 1.14813e-16 0)
(-1.31137 -0.336071 0 -1.20856 0.613579 0 0 0 0)
(0.296656 -2.13091 -5.28738e-16 -4.14728 4.49514 7.93106e-16 1.98362e-15 1.32241e-15 1.43315e-31)
(-0.296363 -0.259146 0 -0.223605 0.263201 0 -1.09479e-16 -4.03695e-17 0)
(-0.504556 -0.342401 0 -0.280445 0.414956 0 -1.68248e-16 -6.33783e-17 0)
(-0.854247 -0.498637 0 -0.579686 0.729691 0 -2.6338e-16 -1.14813e-16 0)
(-1.62641 -0.3736 0 -1.34597 1.27566 0 0 0 0)
(-1.15724 0.345095 0 -1.59751 1.4646 0 0 0 0)
(-0.374782 8.57621e-14 0 6.5553e-14 0.367222 0 0 0 0)
(-0.658747 4.6043e-13 0 3.47729e-14 0.573036 0 0 0 0)
(-1.15665 8.73973e-14 0 2.74062e-13 1.08214 0 0 0 0)
(-2.00079 -2.14758e-13 0 2.25875e-14 1.94549 0 0 0 0)
(-1.44631 1.57571e-13 0 2.90411e-13 2.71706 0 0 0 0)
(-0.296363 0.259146 0 0.223605 0.263201 0 -1.09479e-16 4.03695e-17 0)
(-0.504556 0.342401 0 0.280445 0.414956 0 -1.68248e-16 6.33783e-17 0)
(-0.854247 0.498637 0 0.579686 0.729691 0 -2.6338e-16 1.14813e-16 0)
(-1.62641 0.3736 0 1.34597 1.27566 0 0 0 0)
(-1.15724 -0.345095 0 1.59751 1.4646 0 0 0 0)
(-0.139637 0.427785 -1.42506e-17 0.244671 0.197884 -2.13759e-17 2.84224e-16 -1.56866e-16 3.86263e-33)
(-0.288096 0.497273 0 0.335027 0.316623 0 1.68248e-16 -6.33783e-17 0)
(-0.359213 0.583935 0 0.504099 0.336579 0 2.6338e-16 -1.14813e-16 0)
(-1.31137 0.336071 -3.74246e-17 1.20856 0.613579 -5.61368e-17 7.75742e-16 -5.17161e-16 1.01439e-32)
(0.296656 2.13091 5.28738e-16 4.14728 4.49514 7.93106e-16 -1.98362e-15 1.32241e-15 1.43315e-31)
(0.205938 0.543848 3.27651e-18 -0.503522 -1.14124 2.94886e-17 -1.21613e-15 9.90702e-17 -8.881e-34)
(0.782426 -0.0343964 -1.06846e-18 -0.25891 -0.547347 -9.61616e-18 8.11013e-16 -7.27619e-17 -2.89607e-34)
(0.453271 0.0577294 0 0.0427051 -0.30741 0 0 0 0)
(-0.0727966 0.386176 -1.44263e-18 0.689506 0.320832 -1.29836e-17 -4.52369e-16 6.22329e-17 3.91025e-34)
(-1.07803 0.408545 4.90402e-18 2.18838 1.62859 4.41361e-17 2.53353e-16 -2.81504e-17 1.32924e-33)
(0.548804 0.537389 0 -0.606453 -0.618123 0 6.15647e-16 -3.23499e-17 0)
(0.902328 -0.0416501 0 -0.238076 -0.581188 0 -4.09405e-16 2.81388e-17 0)
(0.770912 0.0867088 0 0.202446 -0.504666 0 0 0 0)
(0.784063 0.473468 0 1.04757 -0.651945 0 2.61865e-16 -4.00259e-17 0)
(1.32468 0.375675 0 3.24549 -1.20011 0 -2.24258e-17 1.02637e-17 0)
(0.690301 2.55488e-13 0 1.07873e-12 -0.912058 0 0 0 0)
(1.01925 6.67156e-13 0 2.37227e-12 -0.706275 0 0 0 0)
(0.930565 5.85785e-13 0 4.32075e-12 -0.55716 0 0 0 0)
(1.22528 2.87983e-13 0 6.24302e-12 -1.08333 0 -9.21261e-17 4.90051e-29 0)
(1.94151 -6.79067e-13 0 9.70512e-12 -2.72639 0 4.48515e-17 -5.8431e-29 0)
(0.548804 -0.537389 0 0.606453 -0.618123 0 6.15647e-16 3.23499e-17 0)
(0.902328 0.0416501 0 0.238076 -0.581188 0 -4.09405e-16 -2.81388e-17 0)
(0.770912 -0.0867088 0 -0.202446 -0.504666 0 0 0 0)
(0.784063 -0.473468 0 -1.04757 -0.651945 0 2.61865e-16 4.00259e-17 0)
(1.32468 -0.375675 0 -3.24549 -1.20011 0 -2.24258e-17 -1.02637e-17 0)
(0.205938 -0.543848 0 0.503522 -1.14124 0 -6.15647e-16 -3.23499e-17 0)
(0.782426 0.0343964 1.06846e-18 0.25891 -0.547347 -9.61616e-18 7.79752e-18 -1.64843e-17 -2.89607e-34)
(0.453271 -0.0577294 0 -0.0427051 -0.30741 0 0 0 0)
(-0.0727966 -0.386176 1.44263e-18 -0.689506 0.320832 -1.29836e-17 2.07657e-17 -9.6624e-18 3.91025e-34)
(-1.07803 -0.408545 -4.90402e-18 -2.18838 1.62859 4.41361e-17 -2.53353e-16 -2.81504e-17 1.32924e-33)
(0.660492 -0.902695 0 10.2683 -0.0217572 0 0 0 0)
(1.39433 -1.04249 0 5.8472 0.693554 0 0 0 0)
(-0.709774 0.12921 0 3.06611 1.07791 0 0 0 0)
(-0.742827 0.518599 0 0.835295 0.983883 0 0 0 0)
(-0.387416 0.291164 0 0.123038 0.643716 0 0 0 0)
(-0.177132 0.0708549 0 0.0367153 0.49865 0 0 0 0)
(-0.0281258 0.0212818 0 0.0189234 0.453368 0 0 0 0)
(0.0396654 0.0141456 0 0.00541983 0.427612 0 0 0 0)
(0.09004 0.00560141 0 0.00288909 0.411197 0 0 0 0)
(0.120536 0.000214745 0 0.00257172 0.410541 0 0 0 0)
(0.1469 0.00112782 0 0.0012053 0.408029 0 0 0 0)
(0.16729 0.000339743 0 0.000767624 0.40726 0 0 0 0)
(0.185607 -7.3034e-05 0 8.48746e-05 0.40727 0 0 0 0)
(0.205458 -0.000440591 0 -0.000467085 0.407933 0 0 0 0)
(0.231321 -0.000723537 0 -0.000672331 0.409201 0 0 0 0)
(0.265977 -0.000781061 0 -0.000591204 0.410722 0 0 0 0)
(0.308397 -0.00067662 0 -0.00037267 0.412071 0 0 0 0)
(0.348024 -0.000104131 0 -0.000173742 0.413136 0 0 0 0)
(0.386148 -0.000702575 0 2.10257e-05 0.412484 0 0 0 0)
(0.399462 -0.00071611 0 7.19801e-05 0.415574 0 0 0 0)
(0.40075 0.00111757 0 0.000241326 0.414945 0 0 0 0)
(0.389179 0.000900438 0 0.000386715 0.411746 0 0 0 0)
(0.353288 0.000449408 0 0.000627644 0.411795 0 0 0 0)
(0.318067 0.00107552 0 0.000840729 0.410098 0 0 0 0)
(0.282155 0.00130452 0 0.0010444 0.407973 0 0 0 0)
(0.256601 0.00146936 0 0.00116681 0.405427 0 0 0 0)
(0.242632 0.001543 0 0.00114874 0.402682 0 0 0 0)
(0.23729 0.00159015 0 0.000978831 0.399826 0 0 0 0)
(0.235256 0.00163861 0 0.000702333 0.396862 0 0 0 0)
(0.232159 0.00167996 0 0.000372636 0.393778 0 0 0 0)
(0.226109 0.0017011 0 -2.30421e-06 0.390605 0 0 0 0)
(0.217928 0.00163323 0 -0.000462141 0.387329 0 0 0 0)
(0.210298 0.00167223 0 -0.00103319 0.384307 0 0 0 0)
(0.203897 0.00129591 0 -0.00144974 0.380455 0 0 0 0)
(0.192851 0.00302128 0 -0.00228147 0.378813 0 0 0 0)
(0.16709 0.000359672 0 0.000504752 0.368872 0 0 0 0)
(0.121189 0.0037578 0 -0.00526734 0.374209 0 0 0 0)
(0.231436 0.0117554 0 -0.00602025 0.356514 0 0 0 0)
(2.40602 0.0216017 0 -0.017477 0.337384 0 0 0 0)
(2.22115 0.0158618 0 -0.0190136 0.303601 0 0 0 0)
(1.54338 -0.771096 0 9.03073 -1.09514 0 0 0 0)
(-0.0236113 -0.905038 0 5.14921 1.95315 0 0 0 0)
(-1.70248 0.150288 0 2.8772 2.48842 0 0 0 0)
(-1.31739 0.39544 0 0.696301 1.50899 0 0 0 0)
(-0.530536 0.177041 0 -0.0244555 0.705739 0 0 0 0)
(-0.180046 0.0361721 0 -0.0390036 0.508111 0 0 0 0)
(-0.0284261 0.0101314 0 -0.0345305 0.462176 0 0 0 0)
(0.0393153 0.00710686 0 -0.0359046 0.434954 0 0 0 0)
(0.0907435 0.00280438 0 -0.0328935 0.41355 0 0 0 0)
(0.12115 2.6838e-05 0 -0.0301581 0.4157 0 0 0 0)
(0.147324 0.000615944 0 -0.0281898 0.412812 0 0 0 0)
(0.167822 0.000198514 0 -0.0253985 0.411823 0 0 0 0)
(0.186127 -1.26401e-05 0 -0.0228035 0.411644 0 0 0 0)
(0.206059 -0.000190273 0 -0.0202247 0.412074 0 0 0 0)
(0.232048 -0.00033004 0 -0.0174319 0.413159 0 0 0 0)
(0.266819 -0.00036239 0 -0.0143849 0.414561 0 0 0 0)
(0.309316 -0.000318691 0 -0.0111512 0.415844 0 0 0 0)
(0.348986 -4.06505e-05 0 -0.0078576 0.416887 0 0 0 0)
(0.387123 -0.000349718 0 -0.00456266 0.416202 0 0 0 0)
(0.40043 -0.000360723 0 -0.00137829 0.419302 0 0 0 0)
(0.401723 0.000560686 0 0.00173708 0.418663 0 0 0 0)
(0.390153 0.000446315 0 0.00494821 0.41546 0 0 0 0)
(0.35423 0.000211021 0 0.00822985 0.415568 0 0 0 0)
(0.318958 0.000517078 0 0.0115007 0.413915 0 0 0 0)
(0.28299 0.00062354 0 0.0147495 0.411871 0 0 0 0)
(0.257373 0.000700324 0 0.0179322 0.409431 0 0 0 0)
(0.243345 0.000732946 0 0.0210304 0.40682 0 0 0 0)
(0.237957 0.000752698 0 0.0240601 0.404127 0 0 0 0)
(0.23589 0.000772558 0 0.027063 0.401354 0 0 0 0)
(0.232762 0.000788347 0 0.0300647 0.398494 0 0 0 0)
(0.226662 0.000792418 0 0.0330516 0.395579 0 0 0 0)
(0.218401 0.000753274 0 0.0359685 0.392647 0 0 0 0)
(0.210698 0.000753489 0 0.0387271 0.389965 0 0 0 0)
(0.204153 0.000569217 0 0.0413996 0.386899 0 0 0 0)
(0.193358 0.00140187 0 0.0435403 0.38551 0 0 0 0)
(0.166843 3.41233e-05 0 0.0474982 0.376513 0 0 0 0)
(0.120428 0.00183358 0 0.0464761 0.384274 0 0 0 0)
(0.228738 0.00577703 0 0.0470244 0.363595 0 0 0 0)
(2.39183 0.0135475 0 0.0302438 0.343864 0 0 0 0)
(2.20959 0.0107982 0 -0.012106 0.28934 0 0 0 0)
(1.63738 -1.01909e-12 0 8.77267e-12 -2.79292 0 0 0 0)
(-0.395785 -2.90367e-13 0 3.20628e-12 2.75528 0 0 0 0)
(-2.00517 4.60005e-13 0 1.52552e-12 3.42922 0 0 0 0)
(-1.58695 7.52837e-13 0 1.23599e-12 1.72205 0 0 0 0)
(-0.601323 4.4211e-14 0 9.97466e-13 0.710566 0 0 0 0)
(-0.180063 -1.50583e-12 0 -1.50408e-12 0.504889 0 0 0 0)
(-0.0272242 -2.10289e-12 0 -5.67728e-13 0.461883 0 0 0 0)
(0.0401416 -3.70557e-12 0 -7.49085e-14 0.435235 0 0 0 0)
(0.0917117 -3.84665e-12 0 5.67728e-13 0.413023 0 0 0 0)
(0.121904 2.16753e-12 0 -8.57505e-13 0.415955 0 0 0 0)
(0.148285 1.15365e-11 0 -1.45756e-11 0.412838 0 0 0 0)
(0.168857 1.97834e-11 0 -3.02364e-11 0.411721 0 0 0 0)
(0.187112 1.96161e-11 0 -2.61017e-11 0.411474 0 0 0 0)
(0.207021 -1.21284e-12 0 -1.5031e-12 0.411808 0 0 0 0)
(0.23302 -4.81379e-11 0 -2.82385e-11 0.412782 0 0 0 0)
(0.267804 -2.22427e-11 0 -2.24321e-10 0.414077 0 0 0 0)
(0.310296 7.65197e-11 0 -5.09857e-10 0.415273 0 0 0 0)
(0.349941 -8.64308e-11 0 -4.7106e-10 0.416268 0 0 0 0)
(0.388033 -1.69889e-10 0 -1.4995e-10 0.415553 0 0 0 0)
(0.401295 1.95903e-10 0 7.64885e-11 0.418672 0 0 0 0)
(0.40259 2.86151e-10 0 1.947e-10 0.418033 0 0 0 0)
(0.391068 -1.83662e-10 0 1.23706e-10 0.414817 0 0 0 0)
(0.355195 -1.92155e-10 0 -1.14926e-10 0.414964 0 0 0 0)
(0.319963 2.89326e-10 0 -3.50826e-10 0.413367 0 0 0 0)
(0.284026 1.90149e-10 0 -1.14569e-10 0.411409 0 0 0 0)
(0.258428 -1.48869e-10 0 3.93989e-11 0.40908 0 0 0 0)
(0.244415 -1.31251e-10 0 -2.21038e-10 0.406595 0 0 0 0)
(0.239045 2.84659e-14 0 -4.49538e-10 0.404041 0 0 0 0)
(0.237002 3.5446e-11 0 -3.50996e-10 0.40142 0 0 0 0)
(0.233902 -3.6543e-11 0 1.68702e-11 0.398729 0 0 0 0)
(0.227826 -7.22719e-11 0 4.48335e-10 0.396 0 0 0 0)
(0.219579 -1.11318e-10 0 8.91711e-10 0.393281 0 0 0 0)
(0.211878 -1.47134e-10 0 1.27971e-09 0.390821 0 0 0 0)
(0.205298 -1.82268e-10 0 1.66996e-09 0.388101 0 0 0 0)
(0.194625 3.80764e-12 0 2.10372e-09 0.386908 0 0 0 0)
(0.167944 2.68533e-10 0 2.55259e-09 0.378463 0 0 0 0)
(0.121051 9.308e-12 0 2.19588e-09 0.386673 0 0 0 0)
(0.226714 1.2418e-10 0 1.68032e-09 0.365857 0 0 0 0)
(2.38882 5.4275e-10 0 1.10731e-09 0.346956 0 0 0 0)
(2.20883 2.86081e-10 0 1.77253e-10 0.272718 0 0 0 0)
(1.54338 0.771096 0 -9.03073 -1.09514 0 0 0 0)
(-0.0236113 0.905038 0 -5.14921 1.95315 0 0 0 0)
(-1.70248 -0.150288 0 -2.8772 2.48842 0 0 0 0)
(-1.31739 -0.39544 0 -0.696301 1.50899 0 0 0 0)
(-0.530536 -0.177041 0 0.0244555 0.705739 0 0 0 0)
(-0.180046 -0.0361721 0 0.0390036 0.508111 0 0 0 0)
(-0.0284261 -0.0101314 0 0.0345305 0.462176 0 0 0 0)
(0.0393153 -0.00710686 0 0.0359046 0.434954 0 0 0 0)
(0.0907435 -0.00280438 0 0.0328935 0.41355 0 0 0 0)
(0.12115 -2.6838e-05 0 0.0301581 0.4157 0 0 0 0)
(0.147324 -0.000615944 0 0.0281898 0.412812 0 0 0 0)
(0.167822 -0.000198514 0 0.0253985 0.411823 0 0 0 0)
(0.186127 1.26401e-05 0 0.0228035 0.411644 0 0 0 0)
(0.206059 0.000190273 0 0.0202247 0.412074 0 0 0 0)
(0.232048 0.00033004 0 0.0174319 0.413159 0 0 0 0)
(0.266819 0.00036239 0 0.0143849 0.414561 0 0 0 0)
(0.309316 0.000318691 0 0.0111512 0.415844 0 0 0 0)
(0.348986 4.06503e-05 0 0.0078576 0.416887 0 0 0 0)
(0.387123 0.000349718 0 0.00456266 0.416202 0 0 0 0)
(0.40043 0.000360723 0 0.00137829 0.419302 0 0 0 0)
(0.401723 -0.000560685 0 -0.00173708 0.418663 0 0 0 0)
(0.390153 -0.000446315 0 -0.00494821 0.41546 0 0 0 0)
(0.35423 -0.000211022 0 -0.00822985 0.415568 0 0 0 0)
(0.318958 -0.000517078 0 -0.0115007 0.413915 0 0 0 0)
(0.28299 -0.00062354 0 -0.0147495 0.411871 0 0 0 0)
(0.257373 -0.000700324 0 -0.0179322 0.409431 0 0 0 0)
(0.243345 -0.000732946 0 -0.0210304 0.40682 0 0 0 0)
(0.237957 -0.000752698 0 -0.0240601 0.404127 0 0 0 0)
(0.23589 -0.000772558 0 -0.027063 0.401354 0 0 0 0)
(0.232762 -0.000788347 0 -0.0300647 0.398494 0 0 0 0)
(0.226662 -0.000792418 0 -0.0330516 0.395579 0 0 0 0)
(0.218401 -0.000753274 0 -0.0359685 0.392647 0 0 0 0)
(0.210698 -0.000753489 0 -0.0387271 0.389965 0 0 0 0)
(0.204153 -0.000569218 0 -0.0413996 0.386899 0 0 0 0)
(0.193358 -0.00140187 0 -0.0435403 0.38551 0 0 0 0)
(0.166843 -3.41228e-05 0 -0.0474982 0.376513 0 0 0 0)
(0.120428 -0.00183358 0 -0.0464761 0.384274 0 0 0 0)
(0.228738 -0.00577703 0 -0.0470244 0.363595 0 0 0 0)
(2.39183 -0.0135475 0 -0.0302438 0.343864 0 0 0 0)
(2.20959 -0.0107982 0 0.012106 0.28934 0 0 0 0)
(0.660492 0.902695 0 -10.2683 -0.0217572 0 0 0 0)
(1.39433 1.04249 0 -5.8472 0.693554 0 0 0 0)
(-0.709774 -0.12921 0 -3.06611 1.07791 0 0 0 0)
(-0.742827 -0.518599 0 -0.835295 0.983883 0 0 0 0)
(-0.387416 -0.291164 0 -0.123038 0.643716 0 0 0 0)
(-0.177132 -0.0708549 0 -0.0367153 0.49865 0 0 0 0)
(-0.0281258 -0.0212818 0 -0.0189234 0.453368 0 0 0 0)
(0.0396654 -0.0141456 0 -0.00541983 0.427612 0 0 0 0)
(0.09004 -0.00560141 0 -0.00288909 0.411197 0 0 0 0)
(0.120536 -0.000214745 0 -0.00257172 0.410541 0 0 0 0)
(0.1469 -0.00112782 0 -0.0012053 0.408029 0 0 0 0)
(0.16729 -0.000339743 0 -0.000767624 0.40726 0 0 0 0)
(0.185607 7.30341e-05 0 -8.48746e-05 0.40727 0 0 0 0)
(0.205458 0.000440591 0 0.000467084 0.407933 0 0 0 0)
(0.231321 0.000723537 0 0.000672331 0.409201 0 0 0 0)
(0.265977 0.000781061 0 0.000591203 0.410722 0 0 0 0)
(0.308397 0.00067662 0 0.000372669 0.412071 0 0 0 0)
(0.348024 0.000104131 0 0.000173743 0.413136 0 0 0 0)
(0.386148 0.000702575 0 -2.10251e-05 0.412484 0 0 0 0)
(0.399462 0.00071611 0 -7.19798e-05 0.415574 0 0 0 0)
(0.40075 -0.00111757 0 -0.000241327 0.414945 0 0 0 0)
(0.389179 -0.000900438 0 -0.000386716 0.411746 0 0 0 0)
(0.353288 -0.000449409 0 -0.000627645 0.411795 0 0 0 0)
(0.318067 -0.00107552 0 -0.00084073 0.410098 0 0 0 0)
(0.282155 -0.00130452 0 -0.0010444 0.407973 0 0 0 0)
(0.256601 -0.00146936 0 -0.00116681 0.405427 0 0 0 0)
(0.242632 -0.001543 0 -0.00114874 0.402682 0 0 0 0)
(0.23729 -0.00159015 0 -0.00097883 0.399826 0 0 0 0)
(0.235256 -0.00163861 0 -0.000702331 0.396862 0 0 0 0)
(0.232159 -0.00167996 0 -0.000372634 0.393778 0 0 0 0)
(0.226109 -0.0017011 0 2.305e-06 0.390605 0 0 0 0)
(0.217928 -0.00163323 0 0.000462141 0.387329 0 0 0 0)
(0.210298 -0.00167223 0 0.00103318 0.384307 0 0 0 0)
(0.203897 -0.00129591 0 0.00144974 0.380455 0 0 0 0)
(0.192851 -0.00302128 0 0.00228146 0.378813 0 0 0 0)
(0.16709 -0.000359672 0 -0.000504755 0.368872 0 0 0 0)
(0.121189 -0.0037578 0 0.00526734 0.374209 0 0 0 0)
(0.231436 -0.0117554 0 0.00602025 0.356514 0 0 0 0)
(2.40602 -0.0216017 0 0.017477 0.337384 0 0 0 0)
(2.22115 -0.0158618 0 0.0190136 0.303601 0 0 0 0)
(2.52107 1.16348 0 -3.8871 -0.016475 0 0 0 0)
(2.85463 1.4359 0 -2.61647 0.344811 0 0 0 0)
(0.293531 0.00745584 0 -1.6281 0.455296 0 0 0 0)
(-0.13562 -0.525394 0 -0.618555 0.52832 0 0 0 0)
(-0.195092 -0.34946 0 -0.275569 0.519213 0 0 0 0)
(-0.118108 -0.11547 0 -0.104904 0.46196 0 0 0 0)
(-0.00914253 -0.041799 0 -0.0641636 0.426659 0 0 0 0)
(0.0489683 -0.0254214 0 -0.0274228 0.40798 0 0 0 0)
(0.0933435 -0.0102784 0 -0.020373 0.399315 0 0 0 0)
(0.122917 -0.00179621 0 -0.0151739 0.395434 0 0 0 0)
(0.148946 -0.00208245 0 -0.0122129 0.393485 0 0 0 0)
(0.16914 -0.000511805 0 -0.010214 0.393069 0 0 0 0)
(0.187503 0.000364709 0 -0.00814592 0.393505 0 0 0 0)
(0.207228 0.00111237 0 -0.00634926 0.394604 0 0 0 0)
(0.232968 0.00162492 0 -0.00503128 0.396188 0 0 0 0)
(0.267605 0.00167842 0 -0.00409372 0.397905 0 0 0 0)
(0.310115 0.00141901 0 -0.00333261 0.399372 0 0 0 0)
(0.349851 0.000226501 0 -0.00254513 0.400509 0 0 0 0)
(0.388096 0.00147113 0 -0.00171735 0.39994 0 0 0 0)
(0.40141 0.00149367 0 -0.000661125 0.40311 0 0 0 0)
(0.40265 -0.00231824 0 6.86629e-05 0.402495 0 0 0 0)
(0.391036 -0.00189717 0 0.000944581 0.399219 0 0 0 0)
(0.355035 -0.000969309 0 0.00157737 0.399165 0 0 0 0)
(0.319728 -0.00226882 0 0.00208379 0.397377 0 0 0 0)
(0.283751 -0.00276579 0 0.00248147 0.395121 0 0 0 0)
(0.2582 -0.00313032 0 0.00289298 0.392405 0 0 0 0)
(0.244287 -0.00330942 0 0.00344348 0.389448 0 0 0 0)
(0.239009 -0.00343521 0 0.00417776 0.386336 0 0 0 0)
(0.237005 -0.00356527 0 0.00500956 0.383064 0 0 0 0)
(0.2339 -0.00368197 0 0.00585014 0.379623 0 0 0 0)
(0.227825 -0.00378679 0 0.00665406 0.376044 0 0 0 0)
(0.219596 -0.00368658 0 0.00740978 0.372229 0 0 0 0)
(0.211779 -0.00400356 0 0.00829063 0.368702 0 0 0 0)
(0.205231 -0.00317524 0 0.00834648 0.363646 0 0 0 0)
(0.192718 -0.00679473 0 0.00961589 0.361716 0 0 0 0)
(0.16843 -0.00254537 0 0.00493518 0.350122 0 0 0 0)
(0.123642 -0.00736065 0 0.0103388 0.35302 0 0 0 0)
(0.233277 -0.021964 0 0.00987907 0.339416 0 0 0 0)
(2.38358 -0.0374259 0 0.0238055 0.318718 0 0 0 0)
(2.19719 -0.0261349 0 -0.03855 0.276835 0 0 0 0)
(2.3335 1.08655 0 -0.486979 0.540844 0 0 0 0)
(2.78814 1.28615 0 -0.813595 0.243606 0 0 0 0)
(0.677486 -0.025659 0 -0.726471 0.176703 0 0 0 0)
(0.234912 -0.453362 0 -0.435267 0.266687 0 0 0 0)
(0.00442567 -0.32385 0 -0.253069 0.389051 0 0 0 0)
(-0.00506519 -0.136119 0 -0.107141 0.400121 0 0 0 0)
(0.0363587 -0.0622969 0 -0.0550449 0.38212 0 0 0 0)
(0.076875 -0.0344485 0 -0.0191864 0.372599 0 0 0 0)
(0.100072 -0.0151836 0 -0.00774301 0.371859 0 0 0 0)
(0.127122 -0.00498493 0 -0.000885697 0.365972 0 0 0 0)
(0.150583 -0.0028948 0 0.00174215 0.364962 0 0 0 0)
(0.170217 -0.000228506 0 0.00339104 0.365017 0 0 0 0)
(0.188315 0.00139625 0 0.0048015 0.366086 0 0 0 0)
(0.207511 0.0026657 0 0.00572661 0.367838 0 0 0 0)
(0.232611 0.00342052 0 0.00585832 0.369981 0 0 0 0)
(0.26674 0.00336804 0 0.00521632 0.372172 0 0 0 0)
(0.308968 0.00278809 0 0.0040681 0.374034 0 0 0 0)
(0.348601 0.000586526 0 0.00272028 0.375464 0 0 0 0)
(0.386919 0.00279721 0 0.00134792 0.375149 0 0 0 0)
(0.400139 0.00276099 0 0.0002486 0.378439 0 0 0 0)
(0.401279 -0.00422376 0 -0.00125316 0.377834 0 0 0 0)
(0.389637 -0.0035753 0 -0.00251034 0.374423 0 0 0 0)
(0.35345 -0.00194539 0 -0.00400732 0.374121 0 0 0 0)
(0.318047 -0.00433231 0 -0.0056366 0.372091 0 0 0 0)
(0.282079 -0.00531172 0 -0.00728964 0.369503 0 0 0 0)
(0.256671 -0.00604535 0 -0.00881561 0.366387 0 0 0 0)
(0.242983 -0.00644458 0 -0.0100347 0.362966 0 0 0 0)
(0.237878 -0.00675253 0 -0.0109606 0.359304 0 0 0 0)
(0.235929 -0.00707398 0 -0.0116898 0.355437 0 0 0 0)
(0.232811 -0.0073711 0 -0.0124669 0.351301 0 0 0 0)
(0.226692 -0.00770834 0 -0.0132244 0.347025 0 0 0 0)
(0.21861 -0.00760775 0 -0.0140981 0.342364 0 0 0 0)
(0.210407 -0.00869283 0 -0.014509 0.338168 0 0 0 0)
(0.20446 -0.0070202 0 -0.0166546 0.331562 0 0 0 0)
(0.189635 -0.0140297 0 -0.0156397 0.328956 0 0 0 0)
(0.167068 -0.00756686 0 -0.022314 0.316444 0 0 0 0)
(0.124637 -0.0121427 0 -0.0189027 0.3172 0 0 0 0)
(0.243426 -0.0393359 0 -0.0205513 0.309285 0 0 0 0)
(2.37138 -0.0734217 0 0.0047566 0.290164 0 0 0 0)
(2.17392 -0.050713 0 -0.0515732 0.263495 0 0 0 0)
(2.20633 0.877049 0 -0.00258429 0.502572 0 0 0 0)
(2.62385 1.085 0 -0.206851 0.0661704 0 0 0 0)
(0.658101 0.0296979 0 -0.278245 0.0585507 0 0 0 0)
(0.320568 -0.320767 0 -0.273594 0.147696 0 0 0 0)
(0.121103 -0.220879 0 -0.180177 0.293763 0 0 0 0)
(0.0727155 -0.122149 0 -0.104627 0.329084 0 0 0 0)
(0.075614 -0.0683197 0 -0.0502129 0.330599 0 0 0 0)
(0.0945502 -0.035309 0 -0.0290444 0.327718 0 0 0 0)
(0.110979 -0.0166652 0 -0.0132554 0.329731 0 0 0 0)
(0.132057 -0.00844301 0 -0.00491168 0.32445 0 0 0 0)
(0.153067 -0.00300251 0 -0.000644146 0.323914 0 0 0 0)
(0.172089 0.000571314 0 0.00268234 0.324119 0 0 0 0)
(0.189754 0.00308379 0 0.00521268 0.325595 0 0 0 0)
(0.208246 0.00486571 0 0.00694754 0.327741 0 0 0 0)
(0.232476 0.00580103 0 0.00741357 0.330288 0 0 0 0)
(0.26588 0.00558421 0 0.00671235 0.33285 0 0 0 0)
(0.30771 0.00459087 0 0.00521768 0.335065 0 0 0 0)
(0.34723 0.00130102 0 0.00340727 0.336762 0 0 0 0)
(0.385714 0.0043386 0 0.00159531 0.336702 0 0 0 0)
(0.398904 0.00408121 0 0.00016264 0.340038 0 0 0 0)
(0.399991 -0.00618814 0 -0.0017017 0.339423 0 0 0 0)
(0.388382 -0.00547499 0 -0.00326146 0.335858 0 0 0 0)
(0.352022 -0.00321657 0 -0.00506668 0.335254 0 0 0 0)
(0.316565 -0.00671957 0 -0.0070214 0.33299 0 0 0 0)
(0.280687 -0.00826293 0 -0.00893648 0.330105 0 0 0 0)
(0.255555 -0.00942906 0 -0.0105877 0.326678 0 0 0 0)
(0.24222 -0.0101343 0 -0.0117958 0.322866 0 0 0 0)
(0.237414 -0.0106912 0 -0.0124598 0.318831 0 0 0 0)
(0.235553 -0.0112773 0 -0.0130029 0.314399 0 0 0 0)
(0.232421 -0.0117873 0 -0.0133312 0.309876 0 0 0 0)
(0.226253 -0.0123994 0 -0.0137316 0.30509 0 0 0 0)
(0.218358 -0.012222 0 -0.014323 0.299875 0 0 0 0)
(0.209316 -0.0144124 0 -0.0139356 0.295693 0 0 0 0)
(0.204141 -0.0120524 0 -0.0165736 0.288077 0 0 0 0)
(0.187265 -0.0213632 0 -0.0148179 0.285153 0 0 0 0)
(0.165285 -0.0138735 0 -0.0205438 0.274265 0 0 0 0)
(0.125341 -0.0142594 0 -0.0173596 0.273573 0 0 0 0)
(0.256076 -0.0480169 0 -0.0174801 0.274689 0 0 0 0)
(2.35369 -0.0815508 0 0.0105511 0.256801 0 0 0 0)
(2.1429 -0.0518342 0 -0.0629332 0.269389 0 0 0 0)
(2.13666 0.666013 0 0.0675702 0.492802 0 0 0 0)
(2.5225 0.858276 0 -0.0697155 0.120498 0 0 0 0)
(0.61317 0.0529023 0 -0.131716 0.0724068 0 0 0 0)
(0.329414 -0.226703 0 -0.174777 0.139051 0 0 0 0)
(0.167248 -0.149058 0 -0.135221 0.245732 0 0 0 0)
(0.120173 -0.100623 0 -0.0930566 0.273856 0 0 0 0)
(0.109193 -0.0636134 0 -0.0529718 0.28651 0 0 0 0)
(0.112489 -0.0352852 0 -0.0330274 0.287528 0 0 0 0)
(0.123327 -0.0183329 0 -0.0182792 0.287663 0 0 0 0)
(0.139275 -0.01059 0 -0.00873241 0.28458 0 0 0 0)
(0.157901 -0.00321385 0 -0.00249134 0.283723 0 0 0 0)
(0.17586 0.00139133 0 0.00253433 0.283919 0 0 0 0)
(0.192425 0.00488713 0 0.0065366 0.285053 0 0 0 0)
(0.209631 0.00718799 0 0.00895335 0.287088 0 0 0 0)
(0.232384 0.00834306 0 0.00976252 0.289353 0 0 0 0)
(0.264624 0.0079713 0 0.00886131 0.291761 0 0 0 0)
(0.305784 0.00655803 0 0.00689224 0.293861 0 0 0 0)
(0.34511 0.00216372 0 0.00446388 0.295497 0 0 0 0)
(0.383792 0.00595373 0 0.00204304 0.295444 0 0 0 0)
(0.396962 0.00538316 0 6.14166e-05 0.298722 0 0 0 0)
(0.397979 -0.00825123 0 -0.00236956 0.29812 0 0 0 0)
(0.386395 -0.00759231 0 -0.00449609 0.294469 0 0 0 0)
(0.349827 -0.00470882 0 -0.00688773 0.293782 0 0 0 0)
(0.314318 -0.00929457 0 -0.00947343 0.291563 0 0 0 0)
(0.278643 -0.0113948 0 -0.0119423 0.288805 0 0 0 0)
(0.253915 -0.0130207 0 -0.0140513 0.285549 0 0 0 0)
(0.241179 -0.0140064 0 -0.0153866 0.282109 0 0 0 0)
(0.236714 -0.0149121 0 -0.0163203 0.278205 0 0 0 0)
(0.23509 -0.015703 0 -0.0165054 0.274548 0 0 0 0)
(0.232109 -0.0163412 0 -0.0171327 0.270124 0 0 0 0)
(0.225736 -0.0173457 0 -0.017007 0.266493 0 0 0 0)
(0.218414 -0.0166633 0 -0.0175856 0.261978 0 0 0 0)
(0.208238 -0.0200615 0 -0.0168327 0.259087 0 0 0 0)
(0.203609 -0.0171763 0 -0.0199618 0.252499 0 0 0 0)
(0.185809 -0.0273393 0 -0.0184432 0.250846 0 0 0 0)
(0.164619 -0.0187265 0 -0.0222365 0.2441 0 0 0 0)
(0.127589 -0.0117349 0 -0.0192134 0.243199 0 0 0 0)
(0.270321 -0.0554975 0 -0.0142611 0.253421 0 0 0 0)
(2.32758 -0.0785285 0 0.00936898 0.229868 0 0 0 0)
(2.1031 -0.0385828 0 -0.074722 0.279215 0 0 0 0)
(2.07404 0.518284 0 0.042164 0.44771 0 0 0 0)
(2.43181 0.679889 0 -0.0197709 0.142593 0 0 0 0)
(0.556859 0.0475753 0 -0.0726649 0.0905991 0 0 0 0)
(0.317191 -0.153744 0 -0.126457 0.141446 0 0 0 0)
(0.199852 -0.0909752 0 -0.105332 0.220018 0 0 0 0)
(0.151973 -0.0828537 0 -0.0735617 0.239441 0 0 0 0)
(0.13346 -0.0551446 0 -0.0491164 0.256066 0 0 0 0)
(0.127981 -0.0341983 0 -0.032725 0.258505 0 0 0 0)
(0.13439 -0.0195062 0 -0.0206884 0.258552 0 0 0 0)
(0.147271 -0.0122397 0 -0.0113405 0.256793 0 0 0 0)
(0.163924 -0.00363931 0 -0.00419196 0.256005 0 0 0 0)
(0.180788 0.00185237 0 0.00237152 0.255451 0 0 0 0)
(0.195939 0.00613713 0 0.00679442 0.256501 0 0 0 0)
(0.211355 0.00901004 0 0.0100196 0.257514 0 0 0 0)
(0.232387 0.0103039 0 0.0108803 0.259138 0 0 0 0)
(0.263114 0.00992822 0 0.00997326 0.260717 0 0 0 0)
(0.303473 0.00819099 0 0.00772406 0.26221 0 0 0 0)
(0.342557 0.00282612 0 0.00494457 0.263393 0 0 0 0)
(0.381471 0.00744674 0 0.00216816 0.263074 0 0 0 0)
(0.394651 0.00666036 0 -0.000108024 0.266212 0 0 0 0)
(0.395599 -0.0102867 0 -0.0028504 0.26571 0 0 0 0)
(0.384028 -0.00965583 0 -0.00526088 0.262139 0 0 0 0)
(0.347226 -0.00601633 0 -0.00796882 0.261739 0 0 0 0)
(0.311694 -0.0115151 0 -0.0108976 0.260014 0 0 0 0)
(0.276276 -0.0140587 0 -0.0136942 0.257911 0 0 0 0)
(0.252236 -0.0158816 0 -0.0158771 0.255649 0 0 0 0)
(0.240034 -0.0172109 0 -0.0174568 0.253026 0 0 0 0)
(0.236336 -0.0179779 0 -0.0177615 0.250897 0 0 0 0)
(0.23477 -0.0190647 0 -0.0186235 0.247737 0 0 0 0)
(0.231938 -0.0195493 0 -0.0180511 0.246113 0 0 0 0)
(0.225817 -0.0202489 0 -0.0184307 0.243396 0 0 0 0)
(0.218526 -0.0193581 0 -0.0189249 0.240909 0 0 0 0)
(0.207026 -0.0235474 0 -0.0175961 0.240694 0 0 0 0)
(0.202589 -0.0199936 0 -0.0215471 0.235858 0 0 0 0)
(0.185073 -0.0294567 0 -0.0210022 0.235979 0 0 0 0)
(0.164543 -0.021243 0 -0.0228128 0.234248 0 0 0 0)
(0.133026 -0.00527703 0 -0.0197919 0.232717 0 0 0 0)
(0.283619 -0.0608633 0 -0.00691881 0.245529 0 0 0 0)
(2.29543 -0.0566947 0 0.00352046 0.226093 0 0 0 0)
(2.06187 -0.00428102 0 -0.0862527 0.280293 0 0 0 0)
(2.07698 0.371992 0 0.04778 0.414276 0 0 0 0)
(2.41185 0.514151 0 0.00178539 0.153397 0 0 0 0)
(0.510363 0.0517965 0 -0.0421951 0.12088 0 0 0 0)
(0.297935 -0.101989 0 -0.0834158 0.166537 0 0 0 0)
(0.21822 -0.0546258 0 -0.0802879 0.207407 0 0 0 0)
(0.174344 -0.0658866 0 -0.0565097 0.223281 0 0 0 0)
(0.148545 -0.045243 0 -0.0437447 0.240987 0 0 0 0)
(0.139883 -0.0328898 0 -0.031415 0.242587 0 0 0 0)
(0.143934 -0.0199825 0 -0.0220643 0.243596 0 0 0 0)
(0.155172 -0.0130435 0 -0.0131652 0.243148 0 0 0 0)
(0.171114 -0.00450714 0 -0.00458252 0.2416 0 0 0 0)
(0.186447 0.00186876 0 0.00140048 0.24247 0 0 0 0)
(0.199795 0.00687496 0 0.00737044 0.241964 0 0 0 0)
(0.213569 0.00972937 0 0.01014 0.243034 0 0 0 0)
(0.23234 0.0114294 0 0.0114813 0.243448 0 0 0 0)
(0.261583 0.0109314 0 0.0104012 0.244278 0 0 0 0)
(0.300938 0.00913705 0 0.00804388 0.244919 0 0 0 0)
(0.339756 0.00299596 0 0.00505321 0.245514 0 0 0 0)
(0.378923 0.00866958 0 0.00208329 0.244795 0 0 0 0)
(0.392126 0.00792332 0 -0.000296266 0.247785 0 0 0 0)
(0.393014 -0.0121757 0 -0.00321817 0.247461 0 0 0 0)
(0.381462 -0.0114182 0 -0.00570692 0.244084 0 0 0 0)
(0.344395 -0.00675694 0 -0.00857555 0.244227 0 0 0 0)
(0.308801 -0.0129836 0 -0.0117304 0.243213 0 0 0 0)
(0.273844 -0.0156003 0 -0.0146891 0.242129 0 0 0 0)
(0.250289 -0.0177285 0 -0.0172035 0.240793 0 0 0 0)
(0.239363 -0.0185861 0 -0.0182472 0.239973 0 0 0 0)
(0.23559 -0.0200089 0 -0.019602 0.238087 0 0 0 0)
(0.234811 -0.0203129 0 -0.0185241 0.238363 0 0 0 0)
(0.232294 -0.0205243 0 -0.0202621 0.235661 0 0 0 0)
(0.224894 -0.0223602 0 -0.0184525 0.236972 0 0 0 0)
(0.219218 -0.0192667 0 -0.0200301 0.234801 0 0 0 0)
(0.205711 -0.0249289 0 -0.0188545 0.235919 0 0 0 0)
(0.200327 -0.0217199 0 -0.0227237 0.233146 0 0 0 0)
(0.18459 -0.0288906 0 -0.0222971 0.2347 0 0 0 0)
(0.165785 -0.0218701 0 -0.0226277 0.235838 0 0 0 0)