/*--------------------------------*- C++ -*----------------------------------*\
| =========                 |                                                 |
| \\      /  F ield         | OpenFOAM: The Open Source CFD Toolbox           |
|  \\    /   O peration     | Version:  v1912                                 |
|   \\  /    A nd           | Website:  www.openfoam.com                      |
|    \\/     M anipulation  |                                                 |
\*---------------------------------------------------------------------------*/
FoamFile
{
    version     2.0;
    format      ascii;
    class       volVectorField;
    location    "8.42";
    object      grad(rho);
}
// * * * * * * * * * * * * * * * * * * * * * * * * * * * * * * * * * * * * * //

dimensions      [1 -4 0 0 0 0 0];


internalField   nonuniform List<vector> 
1900
(
(-8817.86 -0.162439 0)
(-11597.9 0.4136 0)
(4615.68 0.324601 0)
(2279.16 0.0848312 0)
(92.6136 -0.64545 0)
(-623.155 -1.00661 0)
(-919.45 6.44734 0)
(-849.069 3.31185 0)
(-449.774 -3.04616 0)
(780.573 -20.6861 0)
(-8817.61 -0.279259 0)
(-11597.4 0.693909 0)
(4615.36 0.581872 0)
(2278.19 0.0439724 0)
(91.5221 -0.719349 0)
(-616.062 -0.548709 0)
(-915.132 4.51405 0)
(-858.563 0.600315 0)
(-473.772 -50.9978 0)
(-139.483 -92.8652 0)
(-8817.45 4.86722e-09 0)
(-11597 7.10543e-09 0)
(4615.03 7.47846e-09 0)
(2277.86 6.73239e-09 0)
(92.0209 7.01661e-09 0)
(-617.921 3.78364e-09 0)
(-918.301 -2.46914e-09 0)
(-904.581 -9.41469e-10 0)
(-543.24 7.10543e-11 0)
(-267.91 6.75016e-10 0)
(-8817.61 0.279259 0)
(-11597.4 -0.693909 0)
(4615.36 -0.581872 0)
(2278.19 -0.0439723 0)
(91.5221 0.719349 0)
(-616.062 0.548709 0)
(-915.132 -4.51405 0)
(-858.563 -0.600315 0)
(-473.772 50.9978 0)
(-139.483 92.8652 0)
(-8817.86 0.162439 0)
(-11597.9 -0.4136 0)
(4615.68 -0.324601 0)
(2279.16 -0.0848312 0)
(92.6136 0.64545 0)
(-623.155 1.00661 0)
(-919.45 -6.44734 0)
(-849.069 -3.31185 0)
(-449.774 3.04616 0)
(780.573 20.6861 0)
(97.5243 -798.665 1.23518e-11)
(-1945.38 -596.284 -1.46327e-11)
(-3289.23 -597.238 -1.83845e-11)
(-3651.14 -708.912 0)
(-25750.9 -7284.92 -7.61471e-11)
(-390.235 -966.744 1.22075e-11)
(-1279.39 -722.76 1.46327e-11)
(-3046.94 -595.082 1.83845e-11)
(-6170.53 -236.486 0)
(-24093.8 -6074.02 0)
(-705.368 5.95337e-10 0)
(-1245.64 1.75298e-09 0)
(-2795.29 3.94746e-10 0)
(-5938.67 8.41078e-10 0)
(-26287.7 -3.48927e-09 0)
(-390.235 966.744 1.22075e-11)
(-1279.39 722.76 1.46327e-11)
(-3046.94 595.082 1.83845e-11)
(-6170.53 236.486 0)
(-24093.8 6074.02 0)
(97.5243 798.665 -3.67668e-11)
(-1945.38 596.284 -1.46327e-11)
(-3289.23 597.238 -1.83845e-11)
(-3651.14 708.912 -4.89166e-11)
(-25750.9 7284.92 7.61471e-11)
(-43807.3 14789.9 1.74673e-11)
(-15745 6369.9 -9.95638e-12)
(-7917.22 3104.16 0)
(-5811.88 2136.1 4.90612e-12)
(-1642.04 1335.04 -1.73009e-12)
(-39332.9 19197.5 -8.95636e-12)
(-18294.1 5561.93 5.07411e-12)
(-8951.87 1888.54 0)
(-6302.81 1268.43 -3.11608e-12)
(-3409.53 320.054 4.44984e-13)
(-40865.3 -2.06344e-09 0)
(-20161.2 -9.86865e-10 0)
(-9269.17 9.37522e-10 0)
(-6494.82 -5.80509e-11 1.26171e-12)
(-3479.48 8.31044e-10 -8.89967e-13)
(-39332.9 -19197.5 -8.95636e-12)
(-18294.1 -5561.93 5.07411e-12)
(-8951.87 -1888.54 0)
(-6302.81 -1268.43 -3.11608e-12)
(-3409.53 -320.054 4.44984e-13)
(-43807.3 -14789.9 8.95636e-12)
(-15745 -6369.9 -1.91841e-13)
(-7917.22 -3104.16 0)
(-5811.88 -2136.1 6.43325e-14)
(-1642.04 -1335.04 1.73009e-12)
(1927.19 -8368.05 0)
(817.69 -6715.31 0)
(-56.6987 -4465.56 0)
(-352.261 -3826.88 0)
(-572.241 -3657.36 0)
(-818.636 -3601.84 0)
(-921.962 -3524.86 0)
(-1049.1 -3268.75 0)
(-1322.58 -3012.34 0)
(-805.128 -2418.94 0)
(518.378 -2108.09 0)
(3294.29 -2066.57 0)
(4137.46 -2474.88 0)
(1417.06 -1865.95 0)
(-350.002 -1615.6 0)
(-747.442 -1138.75 0)
(-709.032 -926.839 0)
(-451.991 -986.568 0)
(-228.705 -1046.94 0)
(-116.254 -866.474 0)
(-404.034 -477.025 0)
(-1097.14 -90.1968 0)
(-1917.82 144.448 0)
(-2921.84 228.219 0)
(-3590.15 193.21 0)
(-2585.67 84.0999 0)
(-850.118 9.53288 0)
(-42.6021 -0.611242 0)
(954.232 -0.45373 0)
(2331.64 1.60056 0)
(2217.91 -1.9334 0)
(1238.02 -7.12312 0)
(850.335 -7.68904 0)
(739.091 -5.62023 0)
(644.797 -1.66328 0)
(627.497 3.55414 0)
(757.638 8.5778 0)
(929.658 12.2964 0)
(978.807 18.4707 0)
(1044.93 18.7433 0)
(312.161 -3440.67 0)
(1019.1 -4916.35 0)
(340.66 -3389.73 0)
(-312.66 -2828.25 0)
(-603.006 -2504.23 0)
(-809.51 -2365.75 0)
(-796.97 -2283.35 0)
(-893.868 -1950.39 0)
(-1128.35 -1722.97 0)
(-658.954 -1230.94 0)
(550.198 -1114.85 0)
(3236.36 -1063.48 0)
(4132.53 -1475.54 0)
(1518.19 -1152.95 0)
(-248.664 -1009.82 0)
(-634.097 -773 0)
(-622.328 -564.701 0)
(-398.923 -369.196 0)
(-193.68 -252.111 0)
(-77.522 -195.686 0)
(-362.585 90.3421 0)
(-1054.89 427.54 0)
(-1880.71 399.384 0)
(-2903.73 192.448 0)
(-3608.35 104.027 0)
(-2614.27 26.7692 0)
(-860.841 2.17062 0)
(-43.6082 -0.350296 0)
(954.372 -0.122394 0)
(2331.47 0.793819 0)
(2217.07 -0.874122 0)
(1237.39 -3.82637 0)
(850.366 -4.32885 0)
(739.618 -3.5932 0)
(645.914 -1.4611 0)
(628.85 2.02846 0)
(759.006 4.37936 0)
(931.413 5.53725 0)
(980.219 7.79875 0)
(1041.15 8.48661 0)
(171.877 -2.01859e-10 0)
(832.507 4.36015e-10 0)
(550.75 1.16271e-09 0)
(-94.6599 1.55028e-09 0)
(-437.697 6.37874e-10 0)
(-754.379 -3.149e-10 0)
(-801.132 6.05576e-10 0)
(-886.083 2.03474e-09 0)
(-1113.29 1.2596e-09 0)
(-628.223 -2.82602e-10 0)
(567.096 2.66454e-10 0)
(3189.36 2.90677e-10 0)
(4111.43 6.1688e-09 0)
(1552.54 -2.06703e-09 0)
(-239.47 1.2273e-09 0)
(-617.952 7.54144e-09 0)
(-591.562 1.51717e-08 0)
(-361.056 1.05935e-08 0)
(-178.23 1.37506e-08 0)
(-16.6317 5.77316e-09 0)
(-222.732 -1.04159e-09 0)
(-1007.24 1.04967e-10 0)
(-1986.21 4.17444e-09 0)
(-3007.77 -4.05332e-09 0)
(-3638.34 -6.37874e-09 0)
(-2615.31 -2.82602e-11 0)
(-858.007 4.08966e-09 0)
(-43.2692 1.19904e-09 0)
(954.564 3.35489e-09 0)
(2331.42 1.03069e-08 0)
(2216.57 -1.12476e-08 0)
(1237.02 -1.24022e-08 0)
(850.402 -5.61167e-09 0)
(739.925 -1.59065e-09 0)
(646.432 -1.86517e-09 0)
(629.196 -2.67261e-09 0)
(758.659 -2.93099e-09 0)
(930.653 -3.40738e-09 0)
(979.665 -1.34034e-09 0)
(1044.59 1.79251e-09 0)
(312.161 3440.67 0)
(1019.1 4916.35 0)
(340.66 3389.73 0)
(-312.66 2828.25 0)
(-603.006 2504.23 0)
(-809.51 2365.75 0)
(-796.97 2283.35 0)
(-893.868 1950.39 0)
(-1128.35 1722.97 0)
(-658.954 1230.94 0)
(550.198 1114.85 0)
(3236.36 1063.48 0)
(4132.53 1475.54 0)
(1518.19 1152.95 0)
(-248.664 1009.82 0)
(-634.097 773 0)
(-622.328 564.701 0)
(-398.923 369.196 0)
(-193.68 252.111 0)
(-77.522 195.686 0)
(-362.585 -90.3421 0)
(-1054.89 -427.54 0)
(-1880.71 -399.384 0)
(-2903.73 -192.448 0)
(-3608.35 -104.027 0)
(-2614.27 -26.7692 0)
(-860.841 -2.17062 0)
(-43.6082 0.350296 0)
(954.372 0.122394 0)
(2331.47 -0.793819 0)
(2217.07 0.874122 0)
(1237.39 3.82637 0)
(850.366 4.32885 0)
(739.618 3.5932 0)
(645.914 1.4611 0)
(628.85 -2.02846 0)
(759.006 -4.37936 0)
(931.413 -5.53725 0)
(980.219 -7.79875 0)
(1041.15 -8.48661 0)
(1927.19 8368.05 0)
(817.69 6715.31 0)
(-56.6987 4465.56 0)
(-352.261 3826.88 0)
(-572.241 3657.36 0)
(-818.636 3601.84 0)
(-921.962 3524.86 0)
(-1049.1 3268.75 0)
(-1322.58 3012.34 0)
(-805.128 2418.94 0)
(518.378 2108.09 0)
(3294.29 2066.57 0)
(4137.46 2474.88 0)
(1417.06 1865.95 0)
(-350.002 1615.6 0)
(-747.442 1138.75 0)
(-709.032 926.839 0)
(-451.991 986.568 0)
(-228.705 1046.94 0)
(-116.254 866.474 0)
(-404.034 477.025 0)
(-1097.14 90.1968 0)
(-1917.82 -144.448 0)
(-2921.84 -228.219 0)
(-3590.15 -193.21 0)
(-2585.67 -84.0999 0)
(-850.118 -9.53288 0)
(-42.6021 0.611242 0)
(954.232 0.45373 0)
(2331.64 -1.60056 0)
(2217.91 1.9334 0)
(1238.02 7.12312 0)
(850.335 7.68904 0)
(739.091 5.62023 0)
(644.797 1.66328 0)
(627.497 -3.55414 0)
(757.638 -8.5778 0)
(929.658 -12.2964 0)
(978.807 -18.4707 0)
(1044.93 -18.7433 0)
(-1133.61 7964.95 0)
(-1195.94 5294.57 0)
(-1011.72 3716.92 0)
(-773.832 2770.69 0)
(-779.739 2301.68 0)
(-882.071 2035.07 0)
(-861.386 2130.07 0)
(-1035.87 2194 0)
(-1436.85 2245.97 0)
(-1057.15 2249.82 0)
(365.958 2072.39 0)
(3399.45 2208.86 0)
(4000.99 2325.21 0)
(1096.12 1566.58 0)
(-587.646 1307.35 0)
(-935.085 685.371 0)
(-617.532 265.207 0)
(-262.225 226.276 0)
(-228.514 255.49 0)
(-390.231 196.338 0)
(-801.596 20.8482 0)
(-1395.87 -179.327 0)
(-2037.52 -302.108 0)
(-2913.37 -318.656 0)
(-3539 -281.823 0)
(-2532.12 -145.187 0)
(-820.102 -16.7308 0)
(-38.5071 1.26724 0)
(953.147 0.914911 0)
(2332.21 -3.33571 0)
(2221.57 3.76906 0)
(1240.27 12.6026 0)
(849.46 13.7737 0)
(736.448 10.2342 0)
(641.451 4.38569 0)
(623.99 -2.82916 0)
(755.105 -10.4309 0)
(927.236 -15.0284 0)
(977.808 -20.5053 0)
(1048.55 -18.0362 0)
(-2040.91 2838.89 0)
(-2196.09 2873.44 0)
(-1976.69 2763.61 0)
(-1489.97 2409.26 0)
(-1169.84 1942.68 0)
(-949.999 1656.67 0)
(-801.293 1452.63 0)
(-944.509 1215.3 0)
(-1207.52 1266.78 0)
(-837.253 1447.06 0)
(560.642 1549.43 0)
(3481.53 2092.98 0)
(3591.73 1780.51 0)
(608.303 1071.36 0)
(-1071.74 785.285 0)
(-1651.07 130.061 0)
(-1200.5 -282.575 0)
(-563.113 -494.89 0)
(-257.657 -611.908 0)
(-195.449 -588.492 0)
(-552.853 -517.945 0)
(-1248.17 -473.937 0)
(-1987.9 -439.802 0)
(-2906.84 -451.611 0)
(-3450.41 -459.844 0)
(-2358.94 -225.814 0)
(-725.084 -21.5519 0)
(-27.7939 3.34096 0)
(950.377 2.81745 0)
(2334.09 -4.46065 0)
(2231.31 5.5171 0)
(1246.46 19.109 0)
(848.521 22.1156 0)
(731.462 18.3283 0)
(634.003 11.461 0)
(615.1 2.31509 0)
(747.241 -7.45991 0)
(921.249 -16.2488 0)
(976.444 -21.6901 0)
(1066 -16.9209 0)
(-1389.09 400.919 0)
(-1268.49 597.149 0)
(-1459.02 971.423 0)
(-1564.91 1138.95 0)
(-1504.97 1016.83 0)
(-1354.31 885.834 0)
(-1286.7 595.9 0)
(-1214.95 133.135 0)
(-1213.51 322.372 0)
(-784.79 907.466 0)
(988.388 1220.36 0)
(3622.13 1763.19 0)
(3016.52 569.697 0)
(137.085 -33.4766 0)
(-1494.72 -243.188 0)
(-1964.11 -483.443 0)
(-1219.76 -260.461 0)
(-579.582 -142.465 0)
(-318.712 -182.321 0)
(-299.685 -245.88 0)
(-691.207 -408.857 0)
(-1320.57 -534.491 0)
(-2016.01 -565.069 0)
(-2932.69 -615.716 0)
(-3321.42 -607.027 0)
(-2109.76 -262.934 0)
(-599.28 -18.6332 0)
(-15.0239 7.27687 0)
(945.629 6.73567 0)
(2334.81 -2.21052 0)
(2244.28 9.24772 0)
(1256.27 26.169 0)
(848.707 30.0949 0)
(726.18 25.8289 0)
(626.02 18.4798 0)
(605.757 9.86539 0)
(737.216 -0.0184021 0)
(913.524 -12.3628 0)
(977.16 -17.9349 0)
(1075.78 -11.4589 0)
(-1842.2 -58.6332 0)
(-1646.33 -248.218 0)
(-1454.58 -291.163 0)
(-1446.22 -224.866 0)
(-1413.76 -166.601 0)
(-1355.62 -79.4899 0)
(-1526.62 -191.713 0)
(-1208.09 -391.056 0)
(-461.348 -23.3931 0)
(28.0804 748.347 0)
(1385.25 1452.37 0)
(2854.53 1605.2 0)
(1860.4 -209.959 0)
(-175.022 -738.771 0)
(-1505.34 -1088.13 0)
(-1667.71 -923.605 0)
(-871.919 -430.379 0)
(-487.814 -332.962 0)
(-357.311 -305.913 0)
(-413.747 -363.016 0)
(-830.969 -539.845 0)
(-1398.7 -666.964 0)
(-2066.17 -718.484 0)
(-2947.27 -789.892 0)
(-3110.46 -716.238 0)
(-1791.94 -258.85 0)
(-464.699 -12.1459 0)
(-3.34762 9.28748 0)
(941.235 7.96544 0)
(2336.51 -5.07123 0)
(2258.66 3.02035 0)
(1266.55 19.4839 0)
(848.194 22.8768 0)
(720.269 18.9487 0)
(618.62 13.5386 0)
(597.274 8.60931 0)
(725.821 0.780066 0)
(903.984 -12.355 0)
(977.315 -16.9045 0)
(1077.19 -10.5014 0)
(-1508 -266.158 0)
(-1492.56 -34.3049 0)
(-1436.52 51.3528 0)
(-1444.88 85.7133 0)
(-1364.88 167.482 0)
(-1378.5 210.744 0)
(-1586.94 98.1267 0)
(-1052.76 448.079 0)
(-115.544 727.317 0)
(637.313 858.055 0)
(1814.08 1124.27 0)
(2020.25 707.471 0)
(757.787 -502.36 0)
(-709.156 -1033.01 0)
(-1672.83 -1533.46 0)
(-1330.28 -885.738 0)
(-650.593 -481.94 0)
(-459.642 -446.313 0)
(-347.672 -376.299 0)
(-525.111 -480.975 0)
(-984.103 -681.143 0)
(-1492.71 -800.022 0)
(-2134.47 -861.408 0)
(-2930.52 -943.173 0)
(-2809.68 -766.214 0)
(-1431.28 -226.617 0)
(-340.894 -10.1589 0)
(4.35615 4.18224 0)
(931.793 2.00905 0)
(2330.04 -13.2267 0)
(2267.94 -10.4904 0)
(1275.4 2.02922 0)
(848.192 4.38052 0)
(717.182 1.13856 0)
(616.056 -1.5684 0)
(593.462 -2.6598 0)
(717.014 -4.9996 0)
(896.482 -14.9171 0)
(978.946 -16.9835 0)
(1079.18 -10.4124 0)
(-1340.35 -460.517 0)
(-1340.37 -318.355 0)
(-1338.93 -215.289 0)
(-1334.31 -149.516 0)
(-1293.27 -58.1387 0)
(-1422.45 -30.7839 0)
(-1297.92 100.515 0)
(-601.78 560.667 0)
(-66.2811 790.011 0)
(410.595 811.695 0)
(1240.14 437.805 0)
(1287.05 -517.525 0)
(183.21 -1337.39 0)
(-1168.63 -2049.76 0)
(-1363.43 -1724.48 0)
(-654.428 -807.794 0)
(-448.473 -638.662 0)
(-386.015 -497.658 0)
(-390.713 -471.893 0)
(-707.506 -661.381 0)
(-1138.41 -851.304 0)
(-1572.41 -934.639 0)
(-2204.11 -999.757 0)
(-2855.54 -1059.91 0)
(-2419.96 -735.176 0)
(-1063.38 -175.254 0)
(-242.293 -14.012 0)
(8.37788 -5.59848 0)
(924.459 -9.89427 0)
(2324.46 -28.2164 0)
(2273.36 -14.0911 0)
(1280.88 18.2975 0)
(847.335 29.6417 0)
(714.536 19.6917 0)
(614.96 3.40374 0)
(593.968 -8.89987 0)
(714.009 -12.291 0)
(892.435 -16.5662 0)
(981.656 -16.0431 0)
(1080.38 -9.96549 0)
(-1257.65 -704.771 0)
(-1256.25 -636.482 0)
(-1273.82 -564.775 0)
(-1293.44 -487.424 0)
(-1250.46 -374.34 0)
(-1225.62 -254.005 0)
(-1016.99 58.2514 0)
(-388.333 262.427 0)
(126.356 228.787 0)
(297.915 134.261 0)
(533.193 -198.29 0)
(309.607 -1113.3 0)
(-718.729 -2080.38 0)
(-1082.18 -2199.25 0)
(-476.032 -1222.53 0)
(-283.939 -884.849 0)
(-351.735 -734.259 0)
(-298.938 -570.634 0)
(-505.442 -674.891 0)
(-890.725 -883.555 0)
(-1247.42 -992.245 0)
(-1635.77 -1009.11 0)
(-2255.18 -1057.54 0)
(-2675.56 -1061.5 0)
(-1957.2 -565.517 0)
(-736.335 -65.5738 0)
(-177.408 39.4232 0)
(8.32412 45.3935 0)
(909.997 42.8317 0)
(2326 48.2523 0)
(2312.76 108.235 0)
(1317.55 173.289 0)
(849.535 197.831 0)
(691.898 180.429 0)
(588.505 146.825 0)
(578.338 97.4882 0)
(709.626 33.1827 0)
(892.867 -5.35122 0)
(985.307 -11.7948 0)
(1082.6 -9.34794 0)
(-1228.28 -1131.85 0)
(-1205.46 -1050.23 0)
(-1195.29 -972.539 0)
(-1150.8 -883.516 0)
(-1068.34 -783.541 0)
(-1005.59 -675.765 0)
(-800.264 -451.813 0)
(-437.445 -318.49 0)
(-189.786 -541.142 0)
(-0.951855 -782.711 0)
(37.9467 -1055.91 0)
(-526.593 -1814.9 0)
(-863.251 -2263.2 0)
(-341.979 -1525.77 0)
(-96.8276 -1009.6 0)
(-183.91 -863.663 0)
(-145.684 -670.286 0)
(-328.806 -677.708 0)
(-692.255 -828.685 0)
(-1013.32 -888.093 0)
(-1259.4 -836.229 0)
(-1635.33 -783.243 0)
(-2254.6 -807.381 0)
(-2381.41 -749.085 0)
(-1460.25 -169.364 0)
(-480.439 245.593 0)
(-135.361 318.496 0)
(11.6624 336.107 0)
(927.214 366.048 0)
(2387.49 575.837 0)
(2393.85 883.12 0)
(1367.21 998.852 0)
(854.216 949.035 0)
(665.385 774.389 0)
(535.035 573.72 0)
(484.458 378.33 0)
(614.909 224.536 0)
(849.093 96.6823 0)
(977.805 12.6273 0)
(1076.25 -10.6241 0)
(-1124.67 -1640.9 0)
(-1102.74 -1539.01 0)
(-1113.17 -1515.07 0)
(-1111.32 -1507.8 0)
(-1050.27 -1457.94 0)
(-905.955 -1297.76 0)
(-672.711 -1044.94 0)
(-474.414 -947.194 0)
(-320.984 -1082.21 0)
(-198.134 -1286.87 0)
(-461.46 -1710.03 0)
(-853.781 -2100.61 0)
(-440.119 -1492.18 0)
(125.84 -866.645 0)
(162.003 -809.956 0)
(43.032 -681.709 0)
(-172.542 -583.088 0)
(-451.577 -562.188 0)
(-708.176 -473.244 0)
(-897.995 -257.093 0)
(-1146.39 41.9178 0)
(-1607.97 185.364 0)
(-2222.26 89.2586 0)
(-2060.75 426.236 0)
(-998.693 1118.61 0)
(-266.215 1423.41 0)
(-90.1852 1475.6 0)
(54.1474 1511.42 0)
(1141.01 1661.31 0)
(2824.27 2267.04 0)
(2720.4 2598.69 0)
(1381.06 2532.06 0)
(633.234 2319.8 0)
(330.231 1944.88 0)
(206.848 1553.69 0)
(241.852 1118.1 0)
(438.22 704.392 0)
(688.663 365.065 0)
(881.903 128.573 0)
(1047.55 -8.32182 0)
(-1047.09 -1993.42 0)
(-1084.21 -1956.92 0)
(-1165.22 -1943.26 0)
(-1095.75 -1843.5 0)
(-865.941 -1651.28 0)
(-607.609 -1417.85 0)
(-462.449 -1293.2 0)
(-473.361 -1379.62 0)
(-517.106 -1520.2 0)
(-605.94 -1667.94 0)
(-746.208 -1857.31 0)
(-316.662 -1487.57 0)
(325.843 -699.942 0)
(315.434 -493.576 0)
(81.3839 -330.533 0)
(34.7075 -87.2118 0)
(-30.51 233.338 0)
(-222.956 626.235 0)
(-398.254 1116.43 0)
(-516.89 1520.16 0)
(-833.033 1658.7 0)
(-1589.71 1464.31 0)
(-2022.49 1259.38 0)
(-1389.49 1786.33 0)
(-499.331 2379.68 0)
(-136.429 2513.25 0)
(-50.5504 2512.76 0)
(190.612 2529.65 0)
(1655.35 2758.49 0)
(3290.78 3258.59 0)
(2649.24 3068.23 0)
(1098.46 2759.91 0)
(288.388 2582.28 0)
(-72.8611 2367.07 0)
(-261.684 2185.39 0)
(-333.96 1894.37 0)
(-110.743 1403.56 0)
(294.213 869.147 0)
(617.996 409.006 0)
(889.057 -5.34087 0)
(-1014.17 -1958.52 0)
(-1054.4 -2040.33 0)
(-1003.87 -1975.47 0)
(-829.951 -1801.3 0)
(-640.087 -1691.1 0)
(-560.897 -1748.81 0)
(-635.87 -1914.44 0)
(-693.152 -1830.06 0)
(-598.826 -1532.3 0)
(-522.985 -1193.28 0)
(-287.651 -754.101 0)
(261.496 -99.7654 0)
(517.735 205.195 0)
(481.816 634.228 0)
(553.59 1388.18 0)
(586.399 2103.87 0)
(514.961 2479.42 0)
(399.401 2631.43 0)
(153.242 2620.86 0)
(-375.446 2381.75 0)
(-1200.2 1750.82 0)
(-1992.76 1055.4 0)
(-1911.96 1099.65 0)
(-981.183 1714.14 0)
(-298.206 2013.39 0)
(-137.981 2028.63 0)
(-74.382 1997.45 0)
(290.946 1998.55 0)
(1843.44 2136.64 0)
(3122.74 2124.81 0)
(2239.86 1714.42 0)
(912.786 1472.02 0)
(254.672 1448.54 0)
(-52.2299 1457.31 0)
(-248.663 1552.84 0)
(-511.543 1650.73 0)
(-549.72 1564.69 0)
(-269.726 1242 0)
(39.2142 724.857 0)
(482.025 25.1845 0)
(-919.559 -1673.34 0)
(-1100.54 -1648.41 0)
(-934.878 -1479.43 0)
(-821.72 -1205.49 0)
(-815.363 -944.401 0)
(-822.826 -653.005 0)
(-540.747 -335.488 0)
(-105.122 -21.6213 0)
(96.5223 285.277 0)
(143.961 790.267 0)
(307.543 1662.65 0)
(607.751 2545.78 0)
(1033.15 3113.59 0)
(1455.4 3522.25 0)
(1497.59 3678.14 0)
(1086.27 3491.9 0)
(477.859 3038.13 0)
(-86.6665 2372.83 0)
(-638.85 1544.16 0)
(-1355.29 705.56 0)
(-2111.15 -78.3737 0)
(-2217.2 -305.617 0)
(-1387.7 364.23 0)
(-508.976 998.381 0)
(-196.272 1139.82 0)
(-151.793 1138.95 0)
(-79.5436 1128.18 0)
(324.743 1145.91 0)
(1777.02 1144.07 0)
(2883.92 860.729 0)
(2020.19 623.755 0)
(842.255 563.126 0)
(274.207 622.794 0)
(27.6511 677.788 0)
(-75.2943 765.914 0)
(-322.548 896.091 0)
(-504.612 994.112 0)
(-515.076 948.038 0)
(-554.569 663.329 0)
(-216.514 29.7525 0)
(-849.77 -946.142 0)
(-867.545 -321.816 0)
(-577.063 304.547 0)
(-314.378 1003.65 0)
(-107.691 1786.35 0)
(25.8733 2697.28 0)
(-27.4455 3605.12 0)
(-94.9594 4196.95 0)
(183.539 4578.24 0)
(804.296 4753.92 0)
(1404.03 4792.23 0)
(1659.68 4719.34 0)
(1458.7 4471.08 0)
(1025.84 3792.19 0)
(524.341 2793.32 0)
(-30.3357 1702.94 0)
(-563.411 834.623 0)
(-1040.25 196.046 0)
(-1453.4 -427.35 0)
(-1938.98 -1031.93 0)
(-2174.61 -1138.75 0)
(-1566.25 -425.266 0)
(-655.38 432.799 0)
(-233.792 758.244 0)
(-162.752 799.821 0)
(-149.205 803.571 0)
(-67.6696 803.246 0)
(306.264 821.573 0)
(1568.63 718.054 0)
(2621.34 280.515 0)
(1953.08 115.862 0)
(911.86 183.432 0)
(365.165 287.905 0)
(85.6865 351.649 0)
(-38.2975 371.371 0)
(-291.644 403.487 0)
(-499.662 431.991 0)
(-588.48 368.851 0)
(-845.679 234.422 0)
(-809.637 -82.5564 0)
(400.64 9.91159 0)
(104.666 972.466 0)
(342.392 1912.95 0)
(606.195 2667.63 0)
(816.68 3335.22 0)
(929.811 3899.13 0)
(904.384 4446.63 0)
(832.613 5085.89 0)
(633.242 5519.69 0)
(350.17 5337.27 0)
(274.223 4493.02 0)
(298.281 3265.14 0)
(139.705 2100.71 0)
(-161.349 1122.81 0)
(-515.692 301.189 0)
(-801.203 -326.855 0)
(-974.235 -774.906 0)
(-1302.75 -1089.89 0)
(-1822.18 -1361.63 0)
(-2040.82 -1427.21 0)
(-1526.55 -800.075 0)
(-702.798 100.428 0)
(-247.228 557.24 0)
(-155.301 644.326 0)
(-152.593 655.463 0)
(-148.493 658.538 0)
(-62.1969 660.986 0)
(242.649 660.794 0)
(1255.64 525.862 0)
(2303.62 14.8819 0)
(1926.64 -152.424 0)
(1008.04 -30.8293 0)
(436.307 63.6148 0)
(108.082 104.802 0)
(-25.3413 122.224 0)
(-264.133 149.269 0)
(-537.989 162.99 0)
(-705.46 55.1125 0)
(-989.561 -100.377 0)
(-1024.44 -198.925 0)
(1743.46 462.718 0)
(966.294 955.396 0)
(1056.46 1532.29 0)
(1056.17 1807.34 0)
(1079.02 1969.95 0)
(1096.87 1996.7 0)
(1116.17 2046.05 0)
(939.075 2210.63 0)
(425.779 2194.49 0)
(-185.034 2001.17 0)
(-592.752 1608 0)
(-645.644 883.316 0)
(-605.729 110 0)
(-708.243 -472.856 0)
(-872.613 -864.971 0)
(-1067.3 -1074.13 0)
(-1298.7 -1315.28 0)
(-1605.64 -1615.93 0)
(-1778.45 -1601.84 0)
(-1397.84 -972.877 0)
(-702.521 -126.186 0)
(-258.296 366.004 0)
(-131.26 493.792 0)
(-139.141 514.144 0)
(-149.057 522.378 0)
(-143.882 535.423 0)
(-65.4949 548.527 0)
(176.054 522.901 0)
(946.204 423.563 0)
(1967.72 -112.66 0)
(1909.03 -379.104 0)
(1120.04 -219.765 0)
(495.863 -134.122 0)
(142.165 -91.3326 0)
(4.5534 -69.448 0)
(-252.36 -9.61397 0)
(-590.395 33.0233 0)
(-842.271 -4.6054 0)
(-1090.48 -141.439 0)
(-935.167 -147.884 0)
(2301.53 71.6825 0)
(1135.34 81.8109 0)
(1163.35 174.721 0)
(1027.94 160.973 0)
(999.162 160.463 0)
(1003.15 122.696 0)
(1110.53 137.359 0)
(975.656 221.107 0)
(431.401 290.256 0)
(-214.991 285.225 0)
(-802.98 127.726 0)
(-1145.25 -298.126 0)
(-1167.15 -831.616 0)
(-1100.87 -1192.39 0)
(-1095.11 -1404.05 0)
(-1235.14 -1564.03 0)
(-1496.33 -1694.01 0)
(-1578.89 -1592.41 0)
(-1202.51 -1032.26 0)
(-618.82 -262.177 0)
(-236.351 232.859 0)
(-105.365 412.99 0)
(-104.475 447.667 0)
(-127.754 462.815 0)
(-132.088 484.028 0)
(-123.295 512.365 0)
(-74.2632 538.152 0)
(122.23 508.29 0)
(643.187 428.359 0)
(1530.14 -74.0039 0)
(1823.43 -523.809 0)
(1244.11 -434.739 0)
(560.07 -371.303 0)
(170.405 -320.589 0)
(53.4058 -331.396 0)
(-165.388 -262.351 0)
(-533.162 -163.378 0)
(-873.578 -102.083 0)
(-1127.63 -169.266 0)
(-917.681 -101.92 0)
(1705.13 -450.615 0)
(1065.59 -695.146 0)
(1132.74 -786.621 0)
(1042.43 -833.506 0)
(1042.14 -809.493 0)
(1074.61 -803.585 0)
(1211 -742.931 0)
(1086.41 -753.485 0)
(487.565 -777.971 0)
(-341.654 -858.22 0)
(-1154.89 -1129.41 0)
(-1570.1 -1455.12 0)
(-1467.48 -1615.67 0)
(-1259.86 -1634.71 0)
(-1230.74 -1650.74 0)
(-1346.72 -1664.63 0)
(-1326.05 -1444.52 0)
(-967.957 -872.529 0)
(-496.589 -187.953 0)
(-178.723 266.226 0)
(-51.9059 468.624 0)
(-51.2992 528.394 0)
(-83.2468 552.805 0)
(-104.103 576.739 0)
(-101.309 607.267 0)
(-91.7261 639.999 0)
(-69.4216 671.26 0)
(70.2534 665.182 0)
(385.084 556.703 0)
(1050.18 219.255 0)
(1561.41 -396.299 0)
(1267 -528.099 0)
(605.863 -515.096 0)
(180.62 -515.879 0)
(60.6733 -588.93 0)
(-90.4519 -579.081 0)
(-435.955 -495.647 0)
(-847.944 -354.04 0)
(-1090.32 -263.867 0)
(-646.044 -235.024 0)
(821.924 77.3102 0)
(811.554 -940.767 0)
(1030.02 -1029.96 0)
(1005.9 -1225.09 0)
(1027.99 -1334.56 0)
(1067.29 -1413.63 0)
(1158.81 -1461.59 0)
(941.891 -1633.5 0)
(330.474 -1865.23 0)
(-553.653 -2084.77 0)
(-1378.17 -2312.05 0)
(-1613.82 -2237.95 0)
(-1340.21 -1920.19 0)
(-1134.66 -1622.14 0)
(-1123.94 -1374.94 0)
(-1036.42 -1035.66 0)
(-733.03 -509.461 0)
(-368.015 47.5976 0)
(-105.16 426.859 0)
(13.8811 616.027 0)
(16.2829 681.71 0)
(-24.2456 705.899 0)
(-57.8879 733.076 0)
(-75.2728 766.578 0)
(-71.129 804.219 0)
(-61.6297 836.542 0)
(-49.9952 869.409 0)
(11.8393 884.353 0)
(213.474 789.456 0)
(611.795 559.215 0)
(1103.25 -27.0273 0)
(1129.64 -443.43 0)
(571.846 -580.633 0)
(99.2555 -649.155 0)
(-7.49873 -795.287 0)
(-75.4961 -864.927 0)
(-316.304 -871.236 0)
(-650.227 -673.686 0)
(-1012.94 -220.377 0)
(-123.142 -346.315 0)
(-875.065 11781 0)
(-1.42407 -338.415 0)
(858.762 -848.308 0)
(748.904 -1278.83 0)
(860.449 -1505.38 0)
(952.203 -1711.81 0)
(999.122 -2067.45 0)
(697.453 -2641.66 0)
(52.7021 -3166.9 0)
(-772.231 -3493.09 0)
(-1302.5 -3280.75 0)
(-1192.49 -2583.73 0)
(-874.056 -1879.47 0)
(-734.436 -1345.52 0)
(-665.589 -822.783 0)
(-512.706 -236.081 0)
(-282.181 262.925 0)
(-65.6859 568.103 0)
(51.1707 703.549 0)
(66.8607 736.771 0)
(34.6979 745.82 0)
(-1.8016 770.394 0)
(-24.7743 811.309 0)
(-35.5469 860.379 0)
(-33.889 910.017 0)
(-28.9068 949.768 0)
(-23.3498 985.077 0)
(-6.79177 1008.65 0)
(71.7702 977.171 0)
(263.386 792.77 0)
(595.223 347.903 0)
(733.527 -341.015 0)
(407.619 -785.055 0)
(-26.2277 -957.973 0)
(-147.253 -1067.41 0)
(-163.639 -1121.81 0)
(-251.668 -1102.83 0)
(-220.753 -1018.89 0)
(-774.854 -754.697 0)
(1006.04 124.511 0)
(4049.57 -4613.03 0)
(-11358.5 2947.94 0)
(123.802 -275.756 0)
(372.723 -898.896 0)
(610.763 -1895.98 0)
(525.66 -2960.5 0)
(262.77 -4148.05 0)
(-117.581 -4975.71 0)
(-489.993 -5212.85 0)
(-663.366 -4553.49 0)
(-501.889 -3240.29 0)
(-263.495 -1984.99 0)
(-147.022 -1129.14 0)
(-116.403 -457.479 0)
(-54.8446 143.463 0)
(9.80681 592.444 0)
(41.9114 869.352 0)
(56.5868 961.762 0)
(57.3737 946.35 0)
(54.6148 907.287 0)
(48.6839 892.044 0)
(38.8615 913.82 0)
(28.8246 959.316 0)
(19.8465 1007.53 0)
(15.0092 1051.09 0)
(10.7001 1078.21 0)
(6.74154 1102.87 0)
(4.22157 1113.29 0)
(5.44868 1108.69 0)
(5.40894 1008.01 0)
(10.6931 727.966 0)
(37.8773 92.3886 0)
(-22.6778 -623.553 0)
(-172.827 -1013.08 0)
(-165.376 -950.058 0)
(-109.633 -947.927 0)
(-217.126 -684.057 0)
(-314.753 -163.194 0)
(88.8785 973.935 0)
(3899.03 4088.95 0)
(4049.57 4613.03 0)
(-11358.5 -2947.94 0)
(123.802 275.756 0)
(372.723 898.896 0)
(610.763 1895.98 0)
(525.66 2960.5 0)
(262.77 4148.05 0)
(-117.581 4975.71 0)
(-489.993 5212.85 0)
(-663.366 4553.49 0)
(-501.889 3240.29 0)
(-263.495 1984.99 0)
(-147.022 1129.14 0)
(-116.403 457.479 0)
(-54.8446 -143.463 0)
(9.80681 -592.444 0)
(41.9114 -869.352 0)
(56.5868 -961.762 0)
(57.3737 -946.35 0)
(54.6148 -907.287 0)
(48.6839 -892.044 0)
(38.8615 -913.82 0)
(28.8246 -959.316 0)
(19.8465 -1007.53 0)
(15.0092 -1051.09 0)
(10.7001 -1078.21 0)
(6.74154 -1102.87 0)
(4.22157 -1113.29 0)
(5.44868 -1108.69 0)
(5.40894 -1008.01 0)
(10.6931 -727.966 0)
(37.8773 -92.3886 0)
(-22.6778 623.553 0)
(-172.827 1013.08 0)
(-165.376 950.058 0)
(-109.633 947.927 0)
(-217.126 684.057 0)
(-314.753 163.194 0)
(88.8785 -973.935 0)
(3899.03 -4088.95 0)
(-875.065 -11781 0)
(-1.42407 338.415 0)
(858.762 848.308 0)
(748.904 1278.83 0)
(860.449 1505.38 0)
(952.203 1711.81 0)
(999.122 2067.45 0)
(697.453 2641.66 0)
(52.7021 3166.9 0)
(-772.231 3493.09 0)
(-1302.5 3280.75 0)
(-1192.49 2583.73 0)
(-874.056 1879.47 0)
(-734.436 1345.52 0)
(-665.589 822.783 0)
(-512.706 236.081 0)
(-282.181 -262.925 0)
(-65.6859 -568.103 0)
(51.1707 -703.549 0)
(66.8607 -736.771 0)
(34.6979 -745.82 0)
(-1.8016 -770.394 0)
(-24.7743 -811.309 0)
(-35.5469 -860.379 0)
(-33.889 -910.017 0)
(-28.9068 -949.768 0)
(-23.3498 -985.077 0)
(-6.79177 -1008.65 0)
(71.7702 -977.171 0)
(263.386 -792.77 0)
(595.223 -347.903 0)
(733.527 341.015 0)
(407.619 785.055 0)
(-26.2277 957.973 0)
(-147.253 1067.41 0)
(-163.639 1121.81 0)
(-251.668 1102.83 0)
(-220.753 1018.89 0)
(-774.854 754.697 0)
(1006.04 -124.511 0)
(821.924 -77.3102 0)
(811.554 940.767 0)
(1030.02 1029.96 0)
(1005.9 1225.09 0)
(1027.99 1334.56 0)
(1067.29 1413.63 0)
(1158.81 1461.59 0)
(941.891 1633.5 0)
(330.474 1865.23 0)
(-553.653 2084.77 0)
(-1378.17 2312.05 0)
(-1613.82 2237.95 0)
(-1340.21 1920.19 0)
(-1134.66 1622.14 0)
(-1123.94 1374.94 0)
(-1036.42 1035.66 0)
(-733.03 509.461 0)
(-368.015 -47.5976 0)
(-105.16 -426.859 0)
(13.8811 -616.027 0)
(16.2829 -681.71 0)
(-24.2456 -705.899 0)
(-57.8879 -733.076 0)
(-75.2728 -766.578 0)
(-71.129 -804.219 0)
(-61.6297 -836.542 0)
(-49.9952 -869.409 0)
(11.8393 -884.353 0)
(213.474 -789.456 0)
(611.795 -559.215 0)
(1103.25 27.0273 0)
(1129.64 443.43 0)
(571.846 580.633 0)
(99.2555 649.155 0)
(-7.49873 795.287 0)
(-75.4961 864.927 0)
(-316.304 871.236 0)
(-650.227 673.686 0)
(-1012.94 220.377 0)
(-123.142 346.315 0)
(1705.13 450.615 0)
(1065.59 695.146 0)
(1132.74 786.621 0)
(1042.43 833.506 0)
(1042.14 809.493 0)
(1074.61 803.585 0)
(1211 742.931 0)
(1086.41 753.485 0)
(487.565 777.971 0)
(-341.654 858.22 0)
(-1154.89 1129.41 0)
(-1570.1 1455.12 0)
(-1467.48 1615.67 0)
(-1259.86 1634.71 0)
(-1230.74 1650.74 0)
(-1346.72 1664.63 0)
(-1326.05 1444.52 0)
(-967.957 872.529 0)
(-496.589 187.953 0)
(-178.723 -266.226 0)
(-51.9059 -468.624 0)
(-51.2992 -528.394 0)
(-83.2468 -552.805 0)
(-104.103 -576.739 0)
(-101.309 -607.267 0)
(-91.7261 -639.999 0)
(-69.4216 -671.26 0)
(70.2534 -665.182 0)
(385.084 -556.703 0)
(1050.18 -219.255 0)
(1561.41 396.299 0)
(1267 528.099 0)
(605.863 515.096 0)
(180.62 515.879 0)
(60.6733 588.93 0)
(-90.4519 579.081 0)
(-435.955 495.647 0)
(-847.944 354.04 0)
(-1090.32 263.867 0)
(-646.044 235.024 0)
(2301.53 -71.6825 0)
(1135.34 -81.8109 0)
(1163.35 -174.721 0)
(1027.94 -160.973 0)
(999.162 -160.463 0)
(1003.15 -122.696 0)
(1110.53 -137.359 0)
(975.656 -221.107 0)
(431.401 -290.256 0)
(-214.991 -285.225 0)
(-802.98 -127.726 0)
(-1145.25 298.126 0)
(-1167.15 831.616 0)
(-1100.87 1192.39 0)
(-1095.11 1404.05 0)
(-1235.14 1564.03 0)
(-1496.33 1694.01 0)
(-1578.89 1592.41 0)
(-1202.51 1032.26 0)
(-618.82 262.177 0)
(-236.351 -232.859 0)
(-105.365 -412.99 0)
(-104.475 -447.667 0)
(-127.754 -462.815 0)
(-132.088 -484.028 0)
(-123.295 -512.365 0)
(-74.2632 -538.152 0)
(122.23 -508.29 0)
(643.187 -428.359 0)
(1530.14 74.0039 0)
(1823.43 523.809 0)
(1244.11 434.739 0)
(560.07 371.303 0)
(170.405 320.589 0)
(53.4058 331.396 0)
(-165.388 262.351 0)
(-533.162 163.378 0)
(-873.578 102.083 0)
(-1127.63 169.266 0)
(-917.681 101.92 0)
(1743.46 -462.718 0)
(966.294 -955.396 0)
(1056.46 -1532.29 0)
(1056.17 -1807.34 0)
(1079.02 -1969.95 0)
(1096.87 -1996.7 0)
(1116.17 -2046.05 0)
(939.075 -2210.63 0)
(425.779 -2194.49 0)
(-185.034 -2001.17 0)
(-592.752 -1608 0)
(-645.644 -883.316 0)
(-605.729 -110 0)
(-708.243 472.856 0)
(-872.613 864.971 0)
(-1067.3 1074.13 0)
(-1298.7 1315.28 0)
(-1605.64 1615.93 0)
(-1778.45 1601.84 0)
(-1397.84 972.877 0)
(-702.521 126.186 0)
(-258.296 -366.004 0)
(-131.26 -493.792 0)
(-139.141 -514.144 0)
(-149.057 -522.378 0)
(-143.882 -535.423 0)
(-65.4949 -548.527 0)
(176.054 -522.901 0)
(946.204 -423.563 0)
(1967.72 112.66 0)
(1909.03 379.104 0)
(1120.04 219.765 0)
(495.863 134.122 0)
(142.165 91.3326 0)
(4.5534 69.448 0)
(-252.36 9.61397 0)
(-590.395 -33.0233 0)
(-842.271 4.6054 0)
(-1090.48 141.439 0)
(-935.167 147.884 0)
(400.64 -9.91159 0)
(104.666 -972.466 0)
(342.392 -1912.95 0)
(606.195 -2667.63 0)
(816.68 -3335.22 0)
(929.811 -3899.13 0)
(904.384 -4446.63 0)
(832.613 -5085.89 0)
(633.242 -5519.69 0)
(350.17 -5337.27 0)
(274.223 -4493.02 0)
(298.281 -3265.14 0)
(139.705 -2100.71 0)
(-161.349 -1122.81 0)
(-515.692 -301.189 0)
(-801.203 326.855 0)
(-974.235 774.906 0)
(-1302.75 1089.89 0)
(-1822.18 1361.63 0)
(-2040.82 1427.21 0)
(-1526.55 800.075 0)
(-702.798 -100.428 0)
(-247.228 -557.24 0)
(-155.301 -644.326 0)
(-152.593 -655.463 0)
(-148.493 -658.538 0)
(-62.1969 -660.986 0)