/*--------------------------------*- C++ -*----------------------------------*\
| =========                 |                                                 |
| \\      /  F ield         | OpenFOAM: The Open Source CFD Toolbox           |
|  \\    /   O peration     | Version:  v1912                                 |
|   \\  /    A nd           | Website:  www.openfoam.com                      |
|    \\/     M anipulation  |                                                 |
\*---------------------------------------------------------------------------*/
FoamFile
{
    version     2.0;
    format      ascii;
    class       volVectorField;
    location    "8.76";
    object      grad(p);
}
// * * * * * * * * * * * * * * * * * * * * * * * * * * * * * * * * * * * * * //

dimensions      [1 -2 -2 0 0 0 0];


internalField   nonuniform List<vector> 
1900
(
(-15136.2 -0.171666 0)
(1785.79 -0.0176519 0)
(-1068.17 0.314364 0)
(-1181.94 0.187521 0)
(-260.747 -0.774766 0)
(66.3868 -1.57586 0)
(48.2873 0.24705 0)
(-17.1053 10.1465 0)
(-140.028 59.005 0)
(661.668 67.4958 0)
(-15136.4 -0.260172 0)
(1786.28 0.0335736 0)
(-1067.96 0.612083 0)
(-1183.03 0.417098 0)
(-262.511 -0.359176 0)
(67.4086 -0.0874562 0)
(60.0096 4.13687 0)
(41.6526 -0.250057 0)
(-82.6785 -3.42934 0)
(-268.233 -11.6719 0)
(-15136.5 3.51719e-09 0)
(1786.67 5.32907e-11 0)
(-1067.79 -3.37508e-10 0)
(-1182.92 3.01981e-10 0)
(-261.252 -4.26326e-10 0)
(70.8829 -5.86198e-10 0)
(48.1247 -1.33227e-09 0)
(-24.6715 -6.75016e-10 0)
(-151.45 -8.88178e-11 0)
(-372.331 -1.77636e-10 0)
(-15136.4 0.260172 0)
(1786.28 -0.0335736 0)
(-1067.96 -0.612083 0)
(-1183.03 -0.417098 0)
(-262.511 0.359176 0)
(67.4086 0.0874562 0)
(60.0096 -4.13687 0)
(41.6526 0.250057 0)
(-82.6785 3.42934 0)
(-268.233 11.6719 0)
(-15136.2 0.171666 0)
(1785.79 0.0176519 0)
(-1068.17 -0.314364 0)
(-1181.94 -0.187521 0)
(-260.747 0.774766 0)
(66.3868 1.57586 0)
(48.2873 -0.24705 0)
(-17.1053 -10.1465 0)
(-140.028 -59.005 0)
(661.668 -67.4958 0)
(-66.8924 -733.758 8.43526e-12)
(-1637.46 -526.614 -9.90258e-12)
(-1592.78 -639.282 -1.245e-11)
(583.367 -850.551 0)
(-18465.5 -7661.44 -5.41066e-11)
(-604.166 -894.953 8.30267e-12)
(-1105.46 -647.919 9.90258e-12)
(-1537.52 -720.775 1.245e-11)
(-2041.06 -585.198 0)
(-17656 -7072.04 0)
(-880.259 -8.04509e-10 0)
(-1132.75 -3.31119e-10 0)
(-1451.91 -1.35694e-09 0)
(-2036.6 2.01859e-10 0)
(-20333.3 -2.85486e-09 0)
(-604.166 894.953 8.30267e-12)
(-1105.46 647.919 9.90258e-12)
(-1537.52 720.775 1.245e-11)
(-2041.06 585.198 0)
(-17656 7072.04 0)
(-66.8924 733.758 -2.50406e-11)
(-1637.46 526.614 -9.90258e-12)
(-1592.78 639.282 -1.245e-11)
(583.367 850.551 -3.34252e-11)
(-18465.5 7661.44 5.41066e-11)
(-36679.6 10419.7 9.9894e-12)
(-11130.8 4058.58 -4.88655e-12)
(-4994.4 1896.79 0)
(-3202.63 1278.47 2.02517e-12)
(-1211.67 663.079 -6.69362e-13)
(-32835.9 12875.8 -5.1516e-12)
(-13020.1 3287.13 2.50439e-12)
(-5684.27 1101.14 0)
(-3568.26 773.142 -1.29562e-12)
(-1902.74 65.838 1.72829e-13)
(-33905.1 -2.46716e-10 0)
(-14133.6 0 0)
(-5791.27 7.81268e-10 0)
(-3656.98 3.62818e-11 5.2756e-13)
(-1870.48 4.64216e-10 -3.45657e-13)
(-32835.9 -12875.8 -5.1516e-12)
(-13020.1 -3287.13 2.50439e-12)
(-5684.27 -1101.14 0)
(-3568.26 -773.142 -1.29562e-12)
(-1902.74 -65.838 1.72829e-13)
(-36679.6 -10419.7 5.1516e-12)
(-11130.8 -4058.58 -1.22231e-13)
(-4994.4 -1896.79 0)
(-3202.63 -1278.47 3.85033e-14)
(-1211.67 -663.079 6.69362e-13)
(432.97 -1240.44 0)
(189.98 -297.344 0)
(-67.696 749.802 0)
(-134.86 620.384 0)
(-243.211 438.846 0)
(-337.619 175.041 0)
(-402.254 -29.6733 0)
(-405.773 -173.24 0)
(-351.323 -208.807 0)
(-408.002 -211.651 0)
(-419.233 -204.683 0)
(-148.744 -124.774 0)
(461.248 -90.5744 0)
(1733.26 -3.73093 0)
(1829.14 -42.5551 0)
(625.078 -14.5889 0)
(35.3204 -104.962 0)
(-136.479 -15.2401 0)
(-86.9918 110.941 0)
(-53.8166 139.955 0)
(-182.45 -86.8481 0)
(-327.132 -286.886 0)
(-447.495 -353.272 0)
(-553.857 -366.438 0)
(-649.893 -323.092 0)
(-906.262 -192.317 0)
(-1025.74 -5.6109 0)
(-600.532 101.54 0)
(21.6464 50.0684 0)
(364.791 -3.63018 0)
(371.07 -6.27423 0)
(303.51 -3.61788 0)
(302.945 -2.71764 0)
(304.613 -1.64919 0)
(300.096 -0.369025 0)
(300.687 0.460202 0)
(307.287 0.998282 0)
(320.02 0.877537 0)
(328.726 2.74435 0)
(345.411 3.42424 0)
(52.4139 -846.891 0)
(525.137 -937.056 0)
(134.25 265.349 0)
(-242.018 366.5 0)
(-348.029 263.399 0)
(-404.162 156.467 0)
(-427.521 48.5219 0)
(-399.439 -30.5376 0)
(-335.795 -17.07 0)
(-395.659 -14.446 0)
(-404.045 -16.66 0)
(-142.103 -0.841714 0)
(470.929 -4.18261 0)
(1727.95 51.8014 0)
(1830.26 1.73495 0)
(622.965 61.2281 0)
(30.9783 -39.6576 0)
(-103.921 -5.25628 0)
(-63.5395 61.2766 0)
(-70.4343 38.8868 0)
(-199.146 -98.8387 0)
(-316.066 -8.65906 0)
(-447.008 50.5115 0)
(-568.104 90.9114 0)
(-661.658 113.454 0)
(-897.067 82.7095 0)
(-1002.66 41.0192 0)
(-596.873 56.9562 0)
(7.66861 18.4257 0)
(358.568 -2.97936 0)
(370.983 -3.86644 0)
(303.796 -3.10468 0)
(303.205 -2.70836 0)
(305.042 -1.81356 0)
(300.559 -0.58319 0)
(301.127 0.208612 0)
(307.668 0.233868 0)
(320.459 -0.579081 0)
(329.01 0.133116 0)
(343.855 -0.0271704 0)
(84.7035 3.27011e-10 0)
(513.541 8.39732e-10 0)
(311.52 5.36944e-10 0)
(-135.428 7.711e-10 0)
(-304.312 -2.01859e-11 0)
(-400.129 -4.68312e-10 0)
(-456.655 -1.45338e-10 0)
(-424.854 5.36944e-10 0)
(-346.642 5.65204e-11 0)
(-407.883 -1.69561e-10 0)
(-415.275 1.59468e-10 0)
(-145.115 1.19097e-10 0)
(476.562 3.47197e-10 0)
(1734.98 -4.09773e-10 0)
(1831.88 6.37874e-10 0)
(613.037 2.09933e-10 0)
(15.9795 1.29593e-09 0)
(-107.117 5.32907e-10 0)
(-74.1501 -1.21317e-08 0)
(-100.396 -1.34842e-08 0)
(-196.281 4.24792e-08 0)
(-283.685 1.53897e-08 0)
(-418.529 -1.13445e-09 0)
(-535.547 3.12477e-09 0)
(-652.279 1.09206e-08 0)
(-927.334 3.39123e-09 0)
(-1033.23 2.4001e-09 0)
(-607.104 5.08482e-09 0)
(4.21061 -4.92333e-09 0)
(358.306 -5.1474e-09 0)
(371.034 -4.29757e-09 0)
(303.847 -2.47277e-09 0)
(303.321 -5.38963e-10 0)
(305.231 -3.41141e-10 0)
(300.684 -9.12401e-10 0)
(300.924 -1.07793e-09 0)
(307.058 -1.79654e-09 0)
(319.99 -1.67946e-09 0)
(328.887 -3.149e-10 0)
(345.38 5.32907e-10 0)
(52.4139 846.891 0)
(525.137 937.056 0)
(134.25 -265.349 0)
(-242.018 -366.5 0)
(-348.029 -263.399 0)
(-404.162 -156.467 0)
(-427.521 -48.5219 0)
(-399.439 30.5376 0)
(-335.795 17.07 0)
(-395.659 14.446 0)
(-404.045 16.66 0)
(-142.103 0.841714 0)
(470.929 4.18261 0)
(1727.95 -51.8014 0)
(1830.26 -1.73495 0)
(622.965 -61.2281 0)
(30.9783 39.6576 0)
(-103.921 5.25628 0)
(-63.5395 -61.2766 0)
(-70.4343 -38.8868 0)
(-199.146 98.8387 0)
(-316.066 8.65906 0)
(-447.008 -50.5115 0)
(-568.104 -90.9114 0)
(-661.658 -113.454 0)
(-897.067 -82.7095 0)
(-1002.66 -41.0192 0)
(-596.873 -56.9562 0)
(7.66861 -18.4257 0)
(358.568 2.97936 0)
(370.983 3.86644 0)
(303.796 3.10468 0)
(303.205 2.70836 0)
(305.042 1.81356 0)
(300.559 0.58319 0)
(301.127 -0.208612 0)
(307.668 -0.233868 0)
(320.459 0.579081 0)
(329.01 -0.133116 0)
(343.855 0.0271704 0)
(432.97 1240.44 0)
(189.98 297.344 0)
(-67.696 -749.802 0)
(-134.86 -620.384 0)
(-243.211 -438.846 0)
(-337.619 -175.041 0)
(-402.254 29.6733 0)
(-405.773 173.24 0)
(-351.323 208.807 0)
(-408.002 211.651 0)
(-419.233 204.683 0)
(-148.744 124.774 0)
(461.248 90.5744 0)
(1733.26 3.73093 0)
(1829.14 42.5551 0)
(625.078 14.5889 0)
(35.3204 104.962 0)
(-136.479 15.2401 0)
(-86.9918 -110.941 0)
(-53.8166 -139.955 0)
(-182.45 86.8481 0)
(-327.132 286.886 0)
(-447.495 353.272 0)
(-553.857 366.438 0)
(-649.893 323.092 0)
(-906.262 192.317 0)
(-1025.74 5.6109 0)
(-600.532 -101.54 0)
(21.6464 -50.0684 0)
(364.791 3.63018 0)
(371.07 6.27423 0)
(303.51 3.61788 0)
(302.945 2.71764 0)
(304.613 1.64919 0)
(300.096 0.369025 0)
(300.687 -0.460202 0)
(307.287 -0.998282 0)
(320.02 -0.877537 0)
(328.726 -2.74435 0)
(345.411 -3.42424 0)
(-267.28 473.733 0)
(-335.759 -240.508 0)
(-207.915 -515.145 0)
(-170.865 -659.553 0)
(-189.874 -723.365 0)
(-187.213 -609.702 0)
(-238.27 -441.951 0)
(-279.751 -238.802 0)
(-293.746 -74.7719 0)
(-383.975 10.6485 0)
(-440.981 109.523 0)
(-206.001 103.609 0)
(406.195 81.2592 0)
(1691.69 42.3679 0)
(1838.37 -65.7623 0)
(659.669 -44.1998 0)
(26.3661 19.847 0)
(-201.705 -32.3654 0)
(-133.773 -110.805 0)
(34.4193 -126.534 0)
(49.2938 -122.198 0)
(-136.151 -38.8771 0)
(-396.543 33.4603 0)
(-603.507 84.366 0)
(-784.483 81.1377 0)
(-1085.58 15.8238 0)
(-1160.3 -82.1938 0)
(-627.568 -137.301 0)
(57.4771 -65.8246 0)
(386.714 5.54259 0)
(370.874 7.75798 0)
(301.896 3.16864 0)
(302.271 1.75166 0)
(304.064 0.757689 0)
(299.771 -0.292306 0)
(300.779 -0.819127 0)
(307.845 -0.518083 0)
(319.873 0.675534 0)
(327.74 -1.30736 0)
(345.926 -3.73076 0)
(-485.253 -69.4415 0)
(-481.021 -10.9429 0)
(-396.314 26.6056 0)
(-316.202 -49.1139 0)
(-223.773 -108.229 0)
(-147.092 -177.581 0)
(-132.775 -222.341 0)
(-119.522 -202.34 0)
(-141.819 -151.76 0)
(-243.293 -113.715 0)
(-317.99 8.11199 0)
(-145.278 70.7533 0)
(431.754 77.604 0)
(1613.88 181.491 0)
(1740.77 41.0493 0)
(689.025 -17.5018 0)
(51.526 37.0324 0)
(-227.404 -16.3495 0)
(-152.651 -73.4736 0)
(-112.11 -81.2941 0)
(-222.249 -250.145 0)
(-279.544 -399.065 0)
(-356.056 -432.059 0)
(-481.29 -380.812 0)
(-643.771 -299.127 0)
(-967.497 -234.542 0)
(-1101.14 -211.887 0)
(-570.26 -203.734 0)
(140.083 -83.8955 0)
(423.942 7.21093 0)
(368.887 6.07576 0)
(298.587 -0.353203 0)
(300.984 -1.81293 0)
(302.938 -2.0766 0)
(298.751 -2.37002 0)
(300.419 -2.09119 0)
(308.429 -1.30714 0)
(319.338 -0.0622703 0)
(325.009 -2.17299 0)
(349.989 -4.95462 0)
(-344.742 23.3109 0)
(-243.204 88.3894 0)
(-244.698 134.525 0)
(-300.796 149.984 0)
(-313.669 148.397 0)
(-297.175 77.0518 0)
(-262.129 -11.9741 0)
(-211.736 -64.8876 0)
(-208.344 -139.713 0)
(-229.916 -202.441 0)
(-263.22 -96.8215 0)
(-139.036 79.2919 0)
(512.906 164.607 0)
(1656.47 343.958 0)
(1646.61 -38.692 0)
(655.798 -204.781 0)
(27.4765 -210.796 0)
(-308.192 -229.377 0)
(-196.356 -178.226 0)
(-135.828 -148.161 0)
(-256.921 -174.107 0)
(-311.45 -176.932 0)
(-378.954 -195.982 0)
(-475.409 -199.564 0)
(-643.533 -196.357 0)
(-1001.51 -223.701 0)
(-1130.61 -277.758 0)
(-504.231 -272.157 0)
(260.751 -105.775 0)
(473.414 5.26321 0)
(363.585 0.0853713 0)
(294.294 -7.55921 0)
(300.61 -9.05287 0)
(303.527 -8.81593 0)
(299.757 -7.9009 0)
(301.804 -5.11901 0)
(309.801 -2.24032 0)
(319.038 -0.257106 0)
(323.025 -1.67705 0)
(352.794 -2.82023 0)
(-377.614 28.8588 0)
(-373.851 11.4846 0)
(-336.959 -57.9595 0)
(-302.834 -89.2148 0)
(-294.053 -78.0038 0)
(-301.631 -86.6683 0)
(-269.553 -101.854 0)
(-242.617 -112.709 0)
(-274.37 -191.647 0)
(-201.961 -214.054 0)
(-46.5024 -92.3621 0)
(106.644 108.126 0)
(686.796 325.427 0)
(1417.97 523.542 0)
(1211.98 -131.982 0)
(523.18 -342.664 0)
(27.8243 -409.628 0)
(-196.019 -408.488 0)
(-74.3881 -233.43 0)
(-108.141 -216.801 0)
(-249.973 -237.749 0)
(-300.624 -239.849 0)
(-377.865 -244.594 0)
(-481.651 -249.583 0)
(-667.031 -262.917 0)
(-1045.94 -308.119 0)
(-1147.84 -363.284 0)
(-404.531 -312.92 0)
(407.414 -106.958 0)
(525.953 7.68723 0)
(356.531 5.58197 0)
(289.781 0.0187497 0)
(299.773 -4.56375 0)
(304.048 -10.0134 0)
(302.313 -13.9787 0)
(305.874 -11.6656 0)
(313.114 -7.61644 0)
(319.881 -3.36826 0)
(322.539 -2.66217 0)
(354.323 -1.81228 0)
(-305.865 19.2699 0)
(-326.866 71.2648 0)
(-341.736 89.3424 0)
(-320.111 84.0793 0)
(-311.215 82.623 0)
(-320.159 71.614 0)
(-287.223 90.7725 0)
(-298.264 63.7616 0)
(-306.003 10.3606 0)
(-134.241 116.066 0)
(47.2433 191.396 0)
(263.561 274.353 0)
(913.217 452.399 0)
(1215.69 360.305 0)
(811.906 -99.4349 0)
(388.248 -222.133 0)
(-35.9542 -350.584 0)
(-138.402 -324.492 0)
(-11.6384 -159.643 0)
(-139.99 -245.959 0)
(-279.132 -268.669 0)
(-318.046 -282.145 0)
(-388.333 -295.077 0)
(-493.066 -301.746 0)
(-699.941 -318.682 0)
(-1098.23 -375.08 0)
(-1135.23 -421.931 0)
(-257.226 -288.911 0)
(569.7 -52.8728 0)
(581.861 63.5104 0)
(356.195 69.7691 0)
(284.517 68.0192 0)
(290.942 61.4332 0)
(294.455 48.3686 0)
(298.165 29.0875 0)
(307.934 4.69926 0)
(317.796 -7.93179 0)
(323.812 -5.95677 0)
(324.525 -4.20433 0)
(357.106 -1.71264 0)
(-290.372 6.42727 0)
(-306.327 25.2055 0)
(-324.611 46.991 0)
(-309.309 69.4616 0)
(-306.065 68.5795 0)
(-293.778 72.7897 0)
(-277.12 103.43 0)
(-320.104 96.8315 0)
(-223.968 108.472 0)
(-27.5082 192.788 0)
(106.029 237.889 0)
(358.155 358.068 0)
(769.622 424.565 0)
(886.205 77.7027 0)
(650.723 -166.921 0)
(281.163 -317.808 0)
(-70.8125 -509.881 0)
(-12.0205 -277.553 0)
(1.28971 -208.314 0)
(-213.203 -318.763 0)
(-284.844 -309.295 0)
(-326.071 -298.178 0)
(-396.753 -283.655 0)
(-504.398 -256.486 0)
(-737.698 -253.778 0)
(-1145.43 -317.819 0)
(-1064.8 -350.132 0)
(-48.8929 -129.74 0)
(747.02 215.536 0)
(644.135 401.458 0)
(360.876 414.242 0)
(281.748 375.38 0)
(280.836 305.407 0)
(272.879 224.906 0)
(260.232 151.464 0)
(270.201 93.3034 0)
(302.845 47.7135 0)
(323.473 8.83399 0)
(326.629 -2.11893 0)
(360.025 -0.778606 0)
(-275.383 6.02079 0)
(-287.777 14.789 0)
(-299.089 35.9586 0)
(-299.308 60.1486 0)
(-308.008 57.5649 0)
(-286.576 72.5732 0)
(-264.055 75.3682 0)
(-293.405 92.7711 0)
(-213.535 155.599 0)
(-9.53028 200.823 0)
(206.512 273.306 0)
(443.449 340.111 0)
(643.047 302.468 0)
(645.712 45.978 0)
(430.778 -189.065 0)
(57.7596 -527.471 0)
(2.83753 -460.61 0)
(152.199 -192.249 0)
(-51.3499 -343.86 0)
(-237.299 -355.689 0)
(-259.296 -270.052 0)
(-293.338 -168.075 0)
(-348.156 -72.016 0)
(-464.275 55.3368 0)
(-759.044 151.721 0)
(-1191.08 60.3873 0)
(-953.995 81.7734 0)
(287.873 550.873 0)
(1081.58 1113.89 0)
(773.341 1266.89 0)
(331.066 1202.49 0)
(179.641 1068.91 0)
(145.941 898.96 0)
(146.109 710.173 0)
(171.348 510.209 0)
(207.957 327.876 0)
(236.398 186.531 0)
(275.792 88.8744 0)
(315.262 22.0672 0)
(359.898 2.40728 0)
(-270.319 5.36517 0)
(-277.477 10.0834 0)
(-280.9 23.4854 0)
(-288.489 34.5225 0)
(-294.092 45.451 0)
(-276.622 78.6119 0)
(-257.656 94.9161 0)
(-242.791 118.345 0)
(-119.845 211.606 0)
(85.9186 293.534 0)
(240.252 314.254 0)
(386.257 240.007 0)
(486.185 112.049 0)
(412.546 -94.6254 0)
(98.1268 -354.681 0)
(19.4929 -484.001 0)
(252.22 -263.49 0)
(100.484 -307.025 0)
(-156.207 -309.347 0)
(-142.079 -133.634 0)
(-104.053 118.804 0)
(-135.237 454.033 0)
(-181.465 824.708 0)
(-288.797 1025.04 0)
(-732.831 930.297 0)
(-1212.84 600.184 0)
(-592.151 702.208 0)
(945.693 1293.27 0)
(1437 1688.51 0)
(729.511 1598.98 0)
(170.096 1479.34 0)
(-10.7427 1355.73 0)
(-64.855 1256.42 0)
(-101.736 1142.69 0)
(-108.164 969.425 0)
(-41.7066 740.475 0)
(72.5351 491.489 0)
(164.989 260.592 0)
(243.306 96.7744 0)
(336.44 7.44517 0)
(-260.496 7.6226 0)
(-270.316 13.7858 0)
(-275.539 16.2086 0)
(-278.141 10.6218 0)
(-265.522 6.14949 0)
(-238.909 6.34592 0)
(-225.766 8.36109 0)
(-180.959 42.3648 0)
(-44.717 128.897 0)
(89.3851 158.703 0)
(154.932 129.562 0)
(248.597 113.911 0)
(320.583 5.22699 0)
(195.953 -287.831 0)
(55.5617 -581.937 0)
(145.635 -209.667 0)
(173.378 -37.9612 0)
(108.01 -51.1598 0)
(115.735 353.343 0)
(175.283 1004.7 0)
(307.001 1489.71 0)
(386.897 1705.24 0)
(202.083 1731.81 0)
(-362.526 1468.62 0)
(-1168.45 844.943 0)
(-1410.88 381.116 0)
(-286.114 692.422 0)
(1238.31 1084.25 0)
(1376.17 1097.53 0)
(571.773 920.603 0)
(96.6681 871.802 0)
(-35.168 852.71 0)
(-59.3547 891.439 0)
(-130.452 936.207 0)
(-216.244 947.377 0)
(-252.599 913.854 0)
(-226.034 776.898 0)
(-104.569 517.062 0)
(71.3206 257.289 0)
(259.468 30.5742 0)
(-249.689 -10.6071 0)
(-269.204 -28.7312 0)
(-283.949 -45.4949 0)
(-298.182 -66.9596 0)
(-298.213 -67.6465 0)
(-274.491 -59.1668 0)
(-222.947 -25.0187 0)
(-126.639 47.4685 0)
(-7.73727 99.2475 0)
(86.5603 62.2089 0)
(197.089 -6.61046 0)
(266.443 -61.7243 0)
(99.0515 -217.535 0)
(-153.266 -251.731 0)
(173.449 23.755 0)
(543.687 453.564 0)
(404.963 932.771 0)
(477.559 1593.2 0)
(861.257 2054.98 0)
(952.97 2262.16 0)
(571.009 2179.88 0)
(98.0568 1772 0)
(-409.481 1083.58 0)
(-1143.42 360.767 0)
(-1780.78 -282.28 0)
(-1359.81 -231.946 0)
(85.4149 281.502 0)
(1336.07 486.008 0)
(1279.3 394.737 0)
(511.991 317.055 0)
(104.672 338.476 0)
(8.18082 366.174 0)
(15.6055 423.467 0)
(-47.8333 501.075 0)
(-129.704 565.627 0)
(-205.986 638.896 0)
(-309.828 687.397 0)
(-335.726 621.857 0)
(-225.491 402.673 0)
(59.0453 79.5894 0)
(-298.404 -6.47166 0)
(-303.935 -30.7844 0)
(-312.377 -36.6145 0)
(-299.487 -20.2898 0)
(-258.013 41.4191 0)
(-197.832 138.681 0)
(-123.009 262.992 0)
(-61.2112 377.129 0)
(-30.5126 419.398 0)
(-12.6235 377.331 0)
(35.5054 373.692 0)
(45.3431 454.725 0)
(137.485 659.89 0)
(428.469 1104.78 0)
(735.21 1887.68 0)
(1021.6 2228.42 0)
(1271.57 2472.11 0)
(1189.42 2674.05 0)
(760.37 2426.72 0)
(295.638 1663.96 0)
(-165.331 898.092 0)
(-669.537 345.162 0)
(-1157.84 -247.07 0)
(-1678.72 -843.794 0)
(-1739.61 -896.281 0)
(-867.596 -223.359 0)
(405.733 173.217 0)
(1347.43 196.849 0)
(1213.37 67.9544 0)
(517.559 59.4201 0)
(144.001 104.231 0)
(46.7318 135.572 0)
(70.6403 166.47 0)
(6.53857 209.898 0)
(-83.4349 237.693 0)
(-135.257 268.901 0)
(-242.454 334.947 0)
(-378.94 397.182 0)
(-451.228 348.95 0)
(-205.257 117.732 0)
(-285.59 55.5116 0)
(-298.25 135.72 0)
(-273.837 339.245 0)
(-222.986 591.71 0)
(-145.023 812.117 0)
(-60.975 1041.33 0)
(6.82998 1292.16 0)
(24.08 1560.85 0)
(-7.54326 1801.66 0)
(42.5158 2027.93 0)
(271.669 2265.81 0)
(542.234 2462.74 0)
(725.467 2664.41 0)
(1029.88 2910.84 0)
(1256.23 2896.16 0)
(1106.86 2721.15 0)
(834.388 2177.63 0)
(433.821 1420.08 0)
(-112.103 749.027 0)
(-520.072 202.378 0)
(-699.835 -290.929 0)
(-1005.46 -688.128 0)
(-1555.2 -1029.85 0)
(-1769.02 -1183.91 0)
(-1182.91 -618.69 0)
(-329.203 67.1291 0)
(490.342 214.287 0)
(1234.63 72.1442 0)
(1146.87 -68.5322 0)
(546.949 -19.5961 0)
(178.055 41.9951 0)
(68.1561 60.9658 0)
(87.2285 71.9077 0)
(20.8002 78.0498 0)
(-72.8457 84.5272 0)
(-112.269 73.7086 0)
(-186.212 77.3446 0)
(-322.232 115.361 0)
(-494.779 140.132 0)
(-390.667 72.0441 0)
(-114.126 186.382 0)
(-30.5191 544.313 0)
(127.032 979.584 0)
(156.19 1395.17 0)
(175.258 1706.37 0)
(264.759 1943.63 0)
(377.622 2161.9 0)
(429.758 2391.19 0)
(419.578 2669.18 0)
(434.651 2993.63 0)
(454.504 3159.9 0)
(429.443 3031.52 0)
(569.289 2723.79 0)
(651.797 2391.78 0)
(552.418 1763.14 0)
(329.192 1170.68 0)
(17.8184 611.065 0)
(-187.239 48.751 0)
(-413.055 -352.334 0)
(-706.501 -553.644 0)
(-1023.46 -766.762 0)
(-1381.59 -1144.29 0)
(-1635.59 -1305.48 0)
(-1282.51 -829.849 0)
(-534.063 -98.6468 0)
(-64.909 222.877 0)
(410.565 240.962 0)
(1074.89 19.4985 0)
(1124.96 -131.308 0)
(624.067 -50.0303 0)
(221.634 35.2527 0)
(75.5567 64.4243 0)
(87.103 68.0227 0)
(18.6992 60.5323 0)
(-87.6182 65.1173 0)
(-142.178 44.7744 0)
(-202.315 17.0343 0)
(-318.436 3.31201 0)
(-492.97 -3.26236 0)
(-409.718 16.2005 0)
(418.535 303.442 0)
(466.108 639.85 0)
(546.082 872.525 0)
(477.371 946.606 0)
(383.492 1018.09 0)
(377.988 1089.54 0)
(438.115 1186.97 0)
(512.921 1282.56 0)
(572.992 1433.55 0)
(515.382 1571.88 0)
(308.179 1591.18 0)
(121.988 1496.54 0)
(108.99 1356.25 0)
(104.16 929.857 0)
(79.5421 533.44 0)
(-3.31647 122.881 0)
(-246.747 -154.103 0)
(-494.547 -426.928 0)
(-692.592 -697.605 0)
(-919.43 -950.17 0)
(-1269.01 -1203.16 0)
(-1524.59 -1333.42 0)
(-1252.19 -960.966 0)
(-606.072 -231.431 0)
(-168.466 167.902 0)
(-1.94317 247.525 0)
(294.359 239.36 0)
(875.901 11.0092 0)
(1079.87 -198.168 0)
(707.453 -138.142 0)
(288.347 -51.4434 0)
(99.7345 -5.89997 0)
(83.478 -9.72272 0)
(18.0005 -15.2583 0)
(-88.0306 13.4891 0)
(-158.603 20.5083 0)
(-226.166 -0.39963 0)
(-341.79 -23.4783 0)
(-482.36 -47.2182 0)
(-403.134 -0.0625014 0)
(794.864 99.0065 0)
(517.87 93.9009 0)
(422.634 53.2864 0)
(296.461 -42.1028 0)
(312.997 -16.474 0)
(427.502 72.5339 0)
(563.624 171.54 0)
(667.368 251.169 0)
(698.371 311.077 0)
(586.552 367.222 0)
(381.906 470.074 0)
(203.053 539.861 0)
(23.213 551.267 0)
(-141.092 335.903 0)
(-225.214 61.395 0)
(-333.35 -287.189 0)
(-511.997 -568.416 0)
(-710.977 -789.585 0)
(-917.27 -1022.69 0)
(-1193.67 -1291.55 0)
(-1392.77 -1384.7 0)
(-1148.2 -997.609 0)
(-573.669 -313.173 0)
(-194.693 121.459 0)
(-72.5234 240.604 0)
(3.95078 250.698 0)
(182.65 231.919 0)
(653.274 41.9481 0)
(981.234 -220.147 0)
(765.456 -215.587 0)
(349.067 -127.826 0)
(115.76 -79.015 0)
(78.085 -104.109 0)
(41.0669 -112.894 0)
(-53.1522 -80.4019 0)
(-155.562 -63.5258 0)
(-244.703 -76.5494 0)
(-363.552 -74.5364 0)
(-470.406 -74.2667 0)
(-364.156 -23.4832 0)
(604.428 -156.943 0)
(422.05 -331.39 0)
(415.023 -390.187 0)
(410.147 -343.722 0)
(493.96 -226.666 0)
(559.165 -129.119 0)
(610.254 -98.3303 0)
(647.384 -93.9307 0)
(684.825 -96.2192 0)
(668.598 -22.2401 0)
(474.54 93.4743 0)
(200.228 118.411 0)
(-87.5518 13.4712 0)
(-367.899 -166.009 0)
(-520.891 -417.549 0)
(-610.225 -687.584 0)
(-730.875 -931.899 0)
(-932.302 -1153.41 0)
(-1176.3 -1349.69 0)
(-1268.28 -1354.94 0)
(-985.759 -945.625 0)
(-492.027 -319.391 0)
(-173.817 94.9255 0)
(-72.4321 229.408 0)
(-43.9258 268.77 0)
(-10.3122 262.853 0)
(93.2 230.39 0)
(440.273 121.289 0)
(831.699 -168.723 0)
(796.417 -264.452 0)
(419.954 -185.627 0)
(122.59 -115.547 0)
(50.8313 -146.76 0)
(40.8451 -164.607 0)
(-40.458 -167.01 0)
(-154.891 -165.082 0)
(-236.777 -166.136 0)
(-339.591 -141.559 0)
(-433.163 -104.545 0)
(-308.939 -46.2779 0)
(324.288 -218.991 0)
(293.108 -356.544 0)
(410.75 -431.794 0)
(454.036 -452.207 0)
(519.797 -462.467 0)
(551.171 -512.721 0)
(597.532 -571.942 0)
(669.402 -599.542 0)
(767.455 -573.556 0)
(769.347 -502.176 0)
(517.443 -487.195 0)
(125.959 -495.103 0)
(-250.865 -603.977 0)
(-556.439 -761.355 0)
(-727.822 -948.545 0)
(-828.996 -1123.78 0)
(-960.888 -1288.29 0)
(-1113.57 -1387.36 0)
(-1111.47 -1259.27 0)
(-804.3 -811.657 0)
(-394.878 -259.463 0)
(-145.49 95.4925 0)
(-44.8268 226.335 0)
(-27.1704 270.338 0)
(-40.2937 281.652 0)
(-33.033 281.179 0)
(46.2334 254.92 0)
(268.673 196.216 0)
(609.52 -69.0887 0)
(749.167 -293.739 0)
(492.558 -289.604 0)
(153.214 -206.612 0)
(30.8083 -201.523 0)
(21.5533 -227.272 0)
(-53.6092 -260.578 0)
(-154.72 -250.003 0)
(-222.036 -225.723 0)
(-304.2 -207.035 0)
(-378.589 -129.55 0)
(-218.818 -107.587 0)
(49.8211 -307.118 0)
(216.985 -302.7 0)
(322.84 -407.369 0)
(380.589 -515.184 0)
(435.647 -629.878 0)
(453.671 -748.361 0)
(526.59 -851.89 0)
(645.828 -930.566 0)
(778.651 -976.284 0)
(751.818 -1029.51 0)
(481.356 -1099.39 0)
(87.6926 -1171.98 0)
(-344.121 -1277.56 0)
(-699.937 -1409.2 0)
(-870.14 -1469.65 0)
(-937.62 -1454.64 0)
(-984.872 -1354.94 0)
(-904.334 -1085.75 0)
(-621.527 -627.683 0)
(-304.824 -163.107 0)
(-111.596 116.504 0)
(-23.8945 232.594 0)
(-5.32951 271.84 0)
(-19.127 275.281 0)
(-33.4793 282.831 0)
(-36.0718 292.72 0)
(11.3264 292.199 0)
(128.046 235.423 0)
(359.561 53.6765 0)
(583.92 -228.393 0)
(503.913 -377.333 0)
(207.468 -345.014 0)
(30.9221 -307.856 0)
(-16.0618 -337.956 0)
(-62.3625 -383.717 0)
(-121.303 -359.473 0)
(-195.371 -316.418 0)
(-246.915 -260.689 0)
(-337.331 -0.932088 0)
(-80.4256 44.9094 0)
(-263.354 -448.978 0)
(196.502 -470.039 0)
(205.993 -423.532 0)
(239.618 -437.147 0)
(295.099 -599.875 0)
(337.232 -737.161 0)
(421.953 -831.683 0)
(549.532 -925.416 0)
(672.109 -1073.88 0)
(650.716 -1336.91 0)
(380.156 -1659.38 0)
(-45.7273 -1950.51 0)
(-479.464 -2125.16 0)
(-741.546 -2047.88 0)
(-771.608 -1768.97 0)
(-718.456 -1409.83 0)
(-605.408 -980.637 0)
(-412.765 -498.737 0)
(-222.378 -92.6518 0)
(-87.175 133.788 0)
(-13.5656 231.733 0)
(4.19773 259.906 0)
(-3.69273 260.565 0)
(-16.5795 263.521 0)
(-23.4884 274.883 0)
(-24.0051 292.322 0)
(-8.97962 307.371 0)
(38.8236 278.6 0)
(162.57 178.555 0)
(333.831 -73.3415 0)
(380.177 -373.436 0)
(220.164 -491.381 0)
(37.6097 -491.096 0)
(-51.5496 -485.195 0)
(-74.3436 -478.838 0)
(-89.868 -445.242 0)
(-126.843 -392.405 0)
(-0.186061 -352.475 0)
(-84.1038 -91.6935 0)
(-261.196 18.3592 0)
(-835.777 632.885 0)
(241.506 507.722 0)
(354.535 178.348 0)
(210.658 -73.9579 0)
(146.543 -288.92 0)
(230.293 -532.265 0)
(345.181 -877.861 0)
(412.436 -1328.35 0)
(382.123 -1876.13 0)
(187.611 -2422.36 0)
(-109.935 -2746.09 0)
(-361.152 -2702.78 0)
(-437.955 -2323.86 0)
(-356.698 -1750.74 0)
(-255.285 -1184.17 0)
(-177.953 -685.098 0)
(-106.913 -253.934 0)
(-48.6388 54.103 0)
(-12.0029 224.881 0)
(7.76436 297.328 0)
(9.93579 307.289 0)
(3.88921 301.095 0)
(-1.84577 298.896 0)
(-5.32955 306.842 0)
(-5.72573 321.632 0)
(-4.76509 337.159 0)
(-1.89684 351.488 0)
(3.91483 348.446 0)
(20.4174 307.137 0)
(52.0012 158.553 0)
(101.075 -93.2552 0)
(94.0858 -340.859 0)
(36.8827 -419.364 0)
(-4.24878 -418.163 0)
(-23.8623 -361.46 0)
(-38.0142 -316.251 0)
(-105.977 -228.752 0)
(42.8619 -74.6448 0)
(20.0183 -273.038 0)
(-9.75798 -8.14095 0)
(-835.777 -632.885 0)
(241.506 -507.722 0)
(354.535 -178.348 0)
(210.658 73.9579 0)
(146.543 288.92 0)
(230.293 532.265 0)
(345.181 877.861 0)
(412.436 1328.35 0)
(382.123 1876.13 0)
(187.611 2422.36 0)
(-109.935 2746.09 0)
(-361.152 2702.78 0)
(-437.955 2323.86 0)
(-356.698 1750.74 0)
(-255.285 1184.17 0)
(-177.953 685.098 0)
(-106.913 253.934 0)
(-48.6388 -54.103 0)
(-12.0029 -224.881 0)
(7.76436 -297.328 0)
(9.93579 -307.289 0)
(3.88921 -301.095 0)
(-1.84577 -298.896 0)
(-5.32955 -306.842 0)
(-5.72573 -321.632 0)
(-4.76509 -337.159 0)
(-1.89684 -351.488 0)
(3.91483 -348.446 0)
(20.4174 -307.137 0)
(52.0012 -158.553 0)
(101.075 93.2552 0)
(94.0858 340.859 0)
(36.8827 419.364 0)
(-4.24878 418.163 0)
(-23.8623 361.46 0)
(-38.0142 316.251 0)
(-105.977 228.752 0)
(42.8619 74.6448 0)
(20.0183 273.038 0)
(-9.75798 8.14095 0)
(-263.354 448.978 0)
(196.502 470.039 0)
(205.993 423.532 0)
(239.618 437.147 0)
(295.099 599.875 0)
(337.232 737.161 0)
(421.953 831.683 0)
(549.532 925.416 0)
(672.109 1073.88 0)
(650.716 1336.91 0)
(380.156 1659.38 0)
(-45.7273 1950.51 0)
(-479.464 2125.16 0)
(-741.546 2047.88 0)
(-771.608 1768.97 0)
(-718.456 1409.83 0)
(-605.408 980.637 0)
(-412.765 498.737 0)
(-222.378 92.6518 0)
(-87.175 -133.788 0)
(-13.5656 -231.733 0)
(4.19773 -259.906 0)
(-3.69273 -260.565 0)
(-16.5795 -263.521 0)
(-23.4884 -274.883 0)
(-24.0051 -292.322 0)
(-8.97962 -307.371 0)
(38.8236 -278.6 0)
(162.57 -178.555 0)
(333.831 73.3415 0)
(380.177 373.436 0)
(220.164 491.381 0)
(37.6097 491.096 0)
(-51.5496 485.195 0)
(-74.3436 478.838 0)
(-89.868 445.242 0)
(-126.843 392.405 0)
(-0.186061 352.475 0)
(-84.1038 91.6935 0)
(-261.196 -18.3592 0)
(49.8211 307.118 0)
(216.985 302.7 0)
(322.84 407.369 0)
(380.589 515.184 0)
(435.647 629.878 0)
(453.671 748.361 0)
(526.59 851.89 0)
(645.828 930.566 0)
(778.651 976.284 0)
(751.818 1029.51 0)
(481.356 1099.39 0)
(87.6926 1171.98 0)
(-344.121 1277.56 0)
(-699.937 1409.2 0)
(-870.14 1469.65 0)
(-937.62 1454.64 0)
(-984.872 1354.94 0)
(-904.334 1085.75 0)
(-621.527 627.683 0)
(-304.824 163.107 0)
(-111.596 -116.504 0)
(-23.8945 -232.594 0)
(-5.32951 -271.84 0)
(-19.127 -275.281 0)
(-33.4793 -282.831 0)
(-36.0718 -292.72 0)
(11.3264 -292.199 0)
(128.046 -235.423 0)
(359.561 -53.6765 0)
(583.92 228.393 0)
(503.913 377.333 0)
(207.468 345.014 0)
(30.9221 307.856 0)
(-16.0618 337.956 0)
(-62.3625 383.717 0)
(-121.303 359.473 0)
(-195.371 316.418 0)
(-246.915 260.689 0)
(-337.331 0.932088 0)
(-80.4256 -44.9094 0)
(324.288 218.991 0)
(293.108 356.544 0)
(410.75 431.794 0)
(454.036 452.207 0)
(519.797 462.467 0)
(551.171 512.721 0)
(597.532 571.942 0)
(669.402 599.542 0)
(767.455 573.556 0)
(769.347 502.176 0)
(517.443 487.195 0)
(125.959 495.103 0)
(-250.865 603.977 0)
(-556.439 761.355 0)
(-727.822 948.545 0)
(-828.996 1123.78 0)
(-960.888 1288.29 0)
(-1113.57 1387.36 0)
(-1111.47 1259.27 0)
(-804.3 811.657 0)
(-394.878 259.463 0)
(-145.49 -95.4925 0)
(-44.8268 -226.335 0)
(-27.1704 -270.338 0)
(-40.2937 -281.652 0)
(-33.033 -281.179 0)
(46.2334 -254.92 0)
(268.673 -196.216 0)
(609.52 69.0887 0)
(749.167 293.739 0)
(492.558 289.604 0)
(153.214 206.612 0)
(30.8083 201.523 0)
(21.5533 227.272 0)
(-53.6092 260.578 0)
(-154.72 250.003 0)
(-222.036 225.723 0)
(-304.2 207.035 0)
(-378.589 129.55 0)
(-218.818 107.587 0)
(604.428 156.943 0)
(422.05 331.39 0)
(415.023 390.187 0)
(410.147 343.722 0)
(493.96 226.666 0)
(559.165 129.119 0)
(610.254 98.3303 0)
(647.384 93.9307 0)
(684.825 96.2192 0)
(668.598 22.2401 0)
(474.54 -93.4743 0)
(200.228 -118.411 0)
(-87.5518 -13.4712 0)
(-367.899 166.009 0)
(-520.891 417.549 0)
(-610.225 687.584 0)
(-730.875 931.899 0)
(-932.302 1153.41 0)
(-1176.3 1349.69 0)
(-1268.28 1354.94 0)
(-985.759 945.625 0)
(-492.027 319.391 0)
(-173.817 -94.9255 0)
(-72.4321 -229.408 0)
(-43.9258 -268.77 0)
(-10.3122 -262.853 0)
(93.2 -230.39 0)
(440.273 -121.289 0)
(831.699 168.723 0)
(796.417 264.452 0)
(419.954 185.627 0)
(122.59 115.547 0)
(50.8313 146.76 0)
(40.8451 164.607 0)
(-40.458 167.01 0)
(-154.891 165.082 0)
(-236.777 166.136 0)
(-339.591 141.559 0)
(-433.163 104.545 0)
(-308.939 46.2779 0)
(794.864 -99.0065 0)
(517.87 -93.9009 0)
(422.634 -53.2864 0)
(296.461 42.1028 0)
(312.997 16.474 0)
(427.502 -72.5339 0)
(563.624 -171.54 0)
(667.368 -251.169 0)
(698.371 -311.077 0)
(586.552 -367.222 0)
(381.906 -470.074 0)
(203.053 -539.861 0)
(23.213 -551.267 0)
(-141.092 -335.903 0)
(-225.214 -61.395 0)
(-333.35 287.189 0)
(-511.997 568.416 0)
(-710.977 789.585 0)
(-917.27 1022.69 0)
(-1193.67 1291.55 0)
(-1392.77 1384.7 0)
(-1148.2 997.609 0)
(-573.669 313.173 0)
(-194.693 -121.459 0)
(-72.5234 -240.604 0)
(3.95078 -250.698 0)
(182.65 -231.919 0)
(653.274 -41.9481 0)
(981.234 220.147 0)
(765.456 215.587 0)
(349.067 127.826 0)
(115.76 79.015 0)
(78.085 104.109 0)
(41.0669 112.894 0)
(-53.1522 80.4019 0)
(-155.562 63.5258 0)
(-244.703 76.5494 0)
(-363.552 74.5364 0)
(-470.406 74.2667 0)
(-364.156 23.4832 0)
(418.535 -303.442 0)
(466.108 -639.85 0)
(546.082 -872.525 0)
(477.371 -946.606 0)
(383.492 -1018.09 0)
(377.988 -1089.54 0)
(438.115 -1186.97 0)
(512.921 -1282.56 0)
(572.992 -1433.55 0)
(515.382 -1571.88 0)
(308.179 -1591.18 0)
(121.988 -1496.54 0)
(108.99 -1356.25 0)
(104.16 -929.857 0)
(79.5421 -533.44 0)
(-3.31647 -122.881 0)
(-246.747 154.103 0)
(-494.547 426.928 0)
(-692.592 697.605 0)
(-919.43 950.17 0)
(-1269.01 1203.16 0)
(-1524.59 1333.42 0)
(-1252.19 960.966 0)
(-606.072 231.431 0)
(-168.466 -167.902 0)
(-1.94317 -247.525 0)
(294.359 -239.36 0)
(875.901 -11.0092 0)
(1079.87 198.168 0)
(707.453 138.142 0)
(288.347 51.4434 0)