/*--------------------------------*- C++ -*----------------------------------*\
| =========                 |                                                 |
| \\      /  F ield         | OpenFOAM: The Open Source CFD Toolbox           |
|  \\    /   O peration     | Version:  v1912                                 |
|   \\  /    A nd           | Website:  www.openfoam.com                      |
|    \\/     M anipulation  |                                                 |
\*---------------------------------------------------------------------------*/
FoamFile
{
    version     2.0;
    format      ascii;
    class       volVectorField;
    location    "8.76";
    object      U;
}
// * * * * * * * * * * * * * * * * * * * * * * * * * * * * * * * * * * * * * //

dimensions      [0 1 -1 0 0 0 0];


internalField   nonuniform List<vector> 
1900
(
(0.137469 6.46407e-07 0)
(0.142701 -2.58567e-07 0)
(0.130341 -2.29544e-06 0)
(0.117972 -1.10384e-05 0)
(0.113203 -2.03054e-05 0)
(0.11176 -4.89206e-05 0)
(0.109271 -6.92483e-05 0)
(0.106553 -0.000277376 0)
(0.103864 0.00386869 0)
(0.0903709 0.011666 0)
(0.137473 2.71762e-06 0)
(0.1427 1.13379e-06 0)
(0.130333 -3.07712e-06 0)
(0.117963 -1.75647e-05 0)
(0.113182 -2.58116e-05 0)
(0.111706 -6.16634e-05 0)
(0.109136 -8.56417e-05 0)
(0.10623 -0.000115061 0)
(0.103852 0.00228616 0)
(0.103496 0.0107067 0)
(0.137475 -4.31192e-14 0)
(0.142699 -2.10656e-14 0)
(0.130327 -2.32553e-14 0)
(0.117954 -2.89747e-14 0)
(0.113156 -1.67625e-14 0)
(0.111649 1.90766e-14 0)
(0.108999 8.42865e-15 0)
(0.106384 7.22326e-15 0)
(0.105476 -8.80331e-16 0)
(0.110819 -8.8085e-15 0)
(0.137473 -2.71762e-06 0)
(0.1427 -1.13379e-06 0)
(0.130333 3.07712e-06 0)
(0.117963 1.75647e-05 0)
(0.113182 2.58116e-05 0)
(0.111706 6.16634e-05 0)
(0.109136 8.56417e-05 0)
(0.10623 0.000115061 0)
(0.103852 -0.00228616 0)
(0.103496 -0.0107067 0)
(0.137469 -6.46407e-07 0)
(0.142701 2.58567e-07 0)
(0.130341 2.29544e-06 0)
(0.117972 1.10384e-05 0)
(0.113203 2.03054e-05 0)
(0.11176 4.89206e-05 0)
(0.109271 6.92483e-05 0)
(0.106553 0.000277376 0)
(0.103864 -0.00386869 0)
(0.0903709 -0.011666 0)
(0.0934177 0.0372805 0)
(0.129063 0.0516978 0)
(0.175231 0.0754171 0)
(0.250104 0.116673 0)
(0.394359 0.172771 0)
(0.116431 0.0259774 0)
(0.140162 0.0278421 0)
(0.170156 0.0377646 0)
(0.232663 0.0597434 0)
(0.374486 0.101886 0)
(0.126244 -1.09302e-14 0)
(0.148475 -2.80586e-14 0)
(0.17965 1.57565e-15 0)
(0.242836 -1.96379e-14 0)
(0.384317 -5.43289e-15 0)
(0.116431 -0.0259774 0)
(0.140162 -0.0278421 0)
(0.170156 -0.0377646 0)
(0.232663 -0.0597434 0)
(0.374486 -0.101886 0)
(0.0934177 -0.0372805 0)
(0.129063 -0.0516978 0)
(0.175231 -0.0754171 0)
(0.250104 -0.116673 0)
(0.394359 -0.172771 0)
(0.844782 0.0291508 0)
(1.10635 -0.0519815 0)
(1.26407 -0.0830358 0)
(1.35038 -0.0957141 0)
(1.44806 -0.106424 0)
(0.818899 -0.0178347 0)
(1.119 -0.0482219 0)
(1.29538 -0.059397 0)
(1.38342 -0.0601081 0)
(1.47691 -0.0803919 0)
(0.815111 -7.2458e-16 0)
(1.1229 3.4799e-15 0)
(1.29061 -2.92107e-15 0)
(1.37478 -7.44331e-16 0)
(1.46496 5.28434e-15 0)
(0.818899 0.0178347 0)
(1.119 0.0482219 0)
(1.29538 0.059397 0)
(1.38342 0.0601081 0)
(1.47691 0.0803919 0)
(0.844782 -0.0291508 0)
(1.10635 0.0519815 0)
(1.26407 0.0830358 0)
(1.35038 0.0957141 0)
(1.44806 0.106424 0)
(1.47096 -0.0132579 0)
(1.49311 0.0499126 0)
(1.49876 0.0165671 0)
(1.51719 -0.0119559 0)
(1.52578 -0.0178386 0)
(1.54135 -0.0185247 0)
(1.55892 -0.0135268 0)
(1.5783 -0.0137029 0)
(1.59461 -0.00959117 0)
(1.6118 -0.00167456 0)
(1.64636 -0.00728001 0)
(1.66479 -0.00619265 0)
(1.65222 -0.00529209 0)
(1.55059 -0.00592279 0)
(1.34053 -0.00847897 0)
(1.24221 -0.00583348 0)
(1.23554 -0.00218857 0)
(1.23551 -0.00700178 0)
(1.22984 -0.0175632 0)
(1.20005 -0.0252412 0)
(1.1423 -0.0377259 0)
(1.07504 -0.0518535 0)
(1.00848 -0.0459527 0)
(0.943909 -0.0374897 0)
(0.880379 -0.0337035 0)
(0.814291 -0.0317999 0)
(0.722764 -0.0261679 0)
(0.392717 -0.0187958 0)
(-0.0751671 -0.011102 0)
(-0.274694 -0.00893249 0)
(-0.308552 -0.00889998 0)
(-0.331492 -0.00873262 0)
(-0.352191 -0.00888558 0)
(-0.367332 -0.00928623 0)
(-0.377779 -0.0100376 0)
(-0.386042 -0.0112145 0)
(-0.39545 -0.0121853 0)
(-0.405003 -0.0116475 0)
(-0.410628 -0.0104725 0)
(-0.41491 -0.00885714 0)
(1.48137 -0.0140573 0)
(1.46156 0.0398 0)
(1.44901 0.0390331 0)
(1.47705 0.00942703 0)
(1.49181 -0.00661923 0)
(1.5105 -0.0204079 0)
(1.53272 -0.0244066 0)
(1.55772 -0.0264097 0)
(1.57741 -0.0234953 0)
(1.59893 -0.0179232 0)
(1.6383 -0.0209161 0)
(1.65839 -0.016073 0)
(1.64656 -0.0144213 0)
(1.53699 -0.0151139 0)
(1.32632 -0.0135769 0)
(1.23497 -0.00833522 0)
(1.23259 -0.00532299 0)
(1.23693 -0.00553805 0)
(1.23657 -0.00819654 0)
(1.21524 -0.0128475 0)
(1.16502 -0.020864 0)
(1.08743 -0.0263565 0)
(1.00689 -0.0221003 0)
(0.93828 -0.0172904 0)
(0.878121 -0.0150321 0)
(0.817029 -0.0145092 0)
(0.728263 -0.0150043 0)
(0.397799 -0.00943318 0)
(-0.0731932 -0.00515002 0)
(-0.274349 -0.0044471 0)
(-0.308036 -0.00444396 0)
(-0.330693 -0.00435356 0)
(-0.351185 -0.00444117 0)
(-0.366273 -0.00466036 0)
(-0.376973 -0.00505193 0)
(-0.385982 -0.0056416 0)
(-0.396466 -0.00613736 0)
(-0.406721 -0.00587649 0)
(-0.412508 -0.00528168 0)
(-0.416688 -0.00446734 0)
(1.47951 -1.44686e-14 0)
(1.46281 -2.47323e-14 0)
(1.43162 -5.95088e-14 0)
(1.46527 -6.59685e-14 0)
(1.47838 -5.60645e-14 0)
(1.50046 -3.80247e-14 0)
(1.5262 -2.36029e-14 0)
(1.55284 -5.16986e-14 0)
(1.57296 -4.29685e-14 0)
(1.59598 -2.71617e-14 0)
(1.63623 -7.6399e-14 0)
(1.6563 -3.97531e-14 0)
(1.64437 -1.65718e-14 0)
(1.53183 7.66605e-14 0)
(1.32132 6.46311e-14 0)
(1.23338 -3.56642e-14 0)
(1.23235 -2.74237e-14 0)
(1.23793 -5.81314e-14 0)
(1.23949 -5.49184e-13 0)
(1.21795 -1.66753e-12 0)
(1.16464 -9.91253e-13 0)
(1.08637 2.04508e-13 0)
(1.0118 1.45341e-13 0)
(0.945032 -2.69176e-13 0)
(0.884227 -8.38031e-14 0)
(0.824422 3.18274e-13 0)
(0.733288 4.10764e-13 0)
(0.396789 -2.70733e-13 0)
(-0.0738922 -1.61685e-12 0)
(-0.274391 -9.15924e-13 0)
(-0.307979 -1.78946e-13 0)
(-0.330487 4.72958e-13 0)
(-0.350834 7.64229e-13 0)
(-0.365793 4.95023e-13 0)
(-0.376353 3.82928e-13 0)
(-0.385192 2.91755e-13 0)
(-0.395561 -1.40507e-13 0)
(-0.405855 -3.10452e-13 0)
(-0.411822 -4.33846e-15 0)
(-0.416257 4.92984e-14 0)
(1.48137 0.0140573 0)
(1.46156 -0.0398 0)
(1.44901 -0.0390331 0)
(1.47705 -0.00942703 0)
(1.49181 0.00661923 0)
(1.5105 0.0204079 0)
(1.53272 0.0244066 0)
(1.55772 0.0264097 0)
(1.57741 0.0234953 0)
(1.59893 0.0179232 0)
(1.6383 0.0209161 0)
(1.65839 0.016073 0)
(1.64656 0.0144213 0)
(1.53699 0.0151139 0)
(1.32632 0.0135769 0)
(1.23497 0.00833522 0)
(1.23259 0.00532299 0)
(1.23693 0.00553805 0)
(1.23657 0.00819654 0)
(1.21524 0.0128475 0)
(1.16502 0.020864 0)
(1.08743 0.0263565 0)
(1.00689 0.0221003 0)
(0.93828 0.0172904 0)
(0.878121 0.0150321 0)
(0.817029 0.0145092 0)
(0.728263 0.0150043 0)
(0.397799 0.00943318 0)
(-0.0731932 0.00515002 0)
(-0.274349 0.0044471 0)
(-0.308036 0.00444396 0)
(-0.330693 0.00435356 0)
(-0.351185 0.00444117 0)
(-0.366273 0.00466036 0)
(-0.376973 0.00505193 0)
(-0.385982 0.0056416 0)
(-0.396466 0.00613736 0)
(-0.406721 0.00587649 0)
(-0.412508 0.00528168 0)
(-0.416688 0.00446734 0)
(1.47096 0.0132579 0)
(1.49311 -0.0499126 0)
(1.49876 -0.0165671 0)
(1.51719 0.0119559 0)
(1.52578 0.0178386 0)
(1.54135 0.0185247 0)
(1.55892 0.0135268 0)
(1.5783 0.0137029 0)
(1.59461 0.00959117 0)
(1.6118 0.00167456 0)
(1.64636 0.00728001 0)
(1.66479 0.00619265 0)
(1.65222 0.00529209 0)
(1.55059 0.00592279 0)
(1.34053 0.00847897 0)
(1.24221 0.00583348 0)
(1.23554 0.00218857 0)
(1.23551 0.00700178 0)
(1.22984 0.0175632 0)
(1.20005 0.0252412 0)
(1.1423 0.0377259 0)
(1.07504 0.0518535 0)
(1.00848 0.0459527 0)
(0.943909 0.0374897 0)
(0.880379 0.0337035 0)
(0.814291 0.0317999 0)
(0.722764 0.0261679 0)
(0.392717 0.0187958 0)
(-0.0751671 0.011102 0)
(-0.274694 0.00893249 0)
(-0.308552 0.00889998 0)
(-0.331492 0.00873262 0)
(-0.352191 0.00888558 0)
(-0.367332 0.00928623 0)
(-0.377779 0.0100376 0)
(-0.386042 0.0112145 0)
(-0.39545 0.0121853 0)
(-0.405003 0.0116475 0)
(-0.410628 0.0104725 0)
(-0.41491 0.00885714 0)
(1.57459 -0.0820906 0)
(1.58117 -0.0794728 0)
(1.59438 -0.0524664 0)
(1.60028 -0.0231253 0)
(1.60143 -0.000965898 0)
(1.60979 0.0353043 0)
(1.61534 0.0577282 0)
(1.62103 0.0769487 0)
(1.6263 0.0783446 0)
(1.63433 0.0675162 0)
(1.65463 0.0787715 0)
(1.67144 0.0666314 0)
(1.65338 0.0447886 0)
(1.57351 0.0371806 0)
(1.35834 0.0348512 0)
(1.25934 0.0298448 0)
(1.24002 0.0217521 0)
(1.23042 0.021794 0)
(1.22115 0.0393439 0)
(1.19325 0.0688999 0)
(1.13914 0.092714 0)
(1.07649 0.0973626 0)
(1.01813 0.0886407 0)
(0.956115 0.0774296 0)
(0.892105 0.068273 0)
(0.825528 0.0606949 0)
(0.725632 0.0529979 0)
(0.379941 0.0350049 0)
(-0.0817279 0.0218269 0)
(-0.274683 0.0187314 0)
(-0.308149 0.018712 0)
(-0.331153 0.0185071 0)
(-0.351796 0.0188576 0)
(-0.366905 0.0194953 0)
(-0.377199 0.0205756 0)
(-0.38484 0.0223337 0)
(-0.392937 0.0239747 0)
(-0.401228 0.0232167 0)
(-0.406326 0.0212309 0)
(-0.410647 0.0180185 0)
(1.66801 0.0177854 0)
(1.66855 0.0230828 0)
(1.673 0.010997 0)
(1.6765 0.00499033 0)
(1.67891 0.0159517 0)
(1.67706 0.0123465 0)
(1.67462 0.0167739 0)
(1.67237 0.0402362 0)
(1.66694 0.0461669 0)
(1.6649 0.0438083 0)
(1.67363 0.0679994 0)
(1.68037 0.0659917 0)
(1.65937 0.0416414 0)
(1.5906 0.0234578 0)
(1.36907 0.0306957 0)
(1.27463 0.0335386 0)
(1.24238 0.0359404 0)
(1.22432 0.0436631 0)
(1.20969 0.0754722 0)
(1.17485 0.128426 0)
(1.11508 0.165539 0)
(1.05263 0.17366 0)
(0.991699 0.164232 0)
(0.931014 0.145978 0)
(0.869662 0.126829 0)
(0.803935 0.110287 0)
(0.701584 0.0921495 0)
(0.355451 0.0577641 0)
(-0.0919852 0.0378062 0)
(-0.274259 0.0337749 0)
(-0.307394 0.0339186 0)
(-0.330545 0.0337028 0)
(-0.350878 0.0342602 0)
(-0.365677 0.03512 0)
(-0.37573 0.03649 0)
(-0.383008 0.0388733 0)
(-0.390351 0.0413501 0)
(-0.397998 0.0407811 0)
(-0.403102 0.0383778 0)
(-0.408145 0.0330314 0)
(1.70022 0.0880023 0)
(1.69539 0.100147 0)
(1.69052 0.099093 0)
(1.68969 0.0960929 0)
(1.69032 0.103317 0)
(1.69071 0.0931426 0)
(1.6884 0.092065 0)
(1.68254 0.113183 0)
(1.67671 0.106967 0)
(1.67411 0.106141 0)
(1.67272 0.137837 0)
(1.67289 0.124416 0)
(1.6493 0.0730717 0)
(1.5717 0.0513276 0)
(1.34437 0.0749094 0)
(1.26511 0.079652 0)
(1.23264 0.0803125 0)
(1.21455 0.0834564 0)
(1.19417 0.126987 0)
(1.14602 0.198749 0)
(1.07298 0.244262 0)
(1.00407 0.2511 0)
(0.946699 0.233658 0)
(0.89323 0.206912 0)
(0.83925 0.179531 0)
(0.77763 0.154153 0)
(0.669585 0.126075 0)
(0.319545 0.0773169 0)
(-0.106317 0.0536135 0)
(-0.272233 0.0490521 0)
(-0.305485 0.0496374 0)
(-0.328848 0.0494297 0)
(-0.348947 0.050184 0)
(-0.363683 0.0511702 0)
(-0.373914 0.0526981 0)
(-0.38136 0.0552432 0)
(-0.388497 0.0579805 0)
(-0.395769 0.0574708 0)
(-0.400665 0.0551706 0)
(-0.406016 0.0479935 0)
(1.67937 0.17384 0)
(1.6792 0.172668 0)
(1.67887 0.154739 0)
(1.67527 0.146701 0)
(1.67047 0.151937 0)
(1.66927 0.140027 0)
(1.66767 0.139783 0)
(1.66323 0.154678 0)
(1.6635 0.142336 0)
(1.66748 0.137565 0)
(1.65945 0.164879 0)
(1.62877 0.146374 0)
(1.60285 0.119254 0)
(1.49824 0.0983994 0)
(1.31119 0.0975076 0)
(1.25602 0.103487 0)
(1.22032 0.107016 0)
(1.18834 0.119901 0)
(1.14212 0.185792 0)
(1.07543 0.27483 0)
(0.999548 0.318419 0)
(0.942235 0.315873 0)
(0.896868 0.291211 0)
(0.852665 0.258391 0)
(0.805223 0.22498 0)
(0.745554 0.192464 0)
(0.625274 0.154626 0)
(0.275256 0.0924409 0)
(-0.122402 0.0698897 0)
(-0.270618 0.0659078 0)
(-0.30502 0.0666585 0)
(-0.32894 0.0666298 0)
(-0.349093 0.0675932 0)
(-0.364028 0.0687786 0)
(-0.374571 0.0703093 0)
(-0.382139 0.0723989 0)
(-0.388984 0.0748494 0)
(-0.395839 0.073856 0)
(-0.400219 0.0719133 0)
(-0.405438 0.0634072 0)
(1.63086 0.217956 0)
(1.63251 0.219058 0)
(1.63731 0.208122 0)
(1.63935 0.205564 0)
(1.63931 0.210041 0)
(1.64217 0.200217 0)
(1.64092 0.203327 0)
(1.63854 0.206726 0)
(1.6453 0.192161 0)
(1.65112 0.210622 0)
(1.61486 0.201023 0)
(1.59222 0.165316 0)
(1.55328 0.139804 0)
(1.43064 0.135443 0)
(1.30814 0.135434 0)
(1.25741 0.150301 0)
(1.20551 0.155621 0)
(1.15128 0.185038 0)
(1.07977 0.278535 0)
(0.994945 0.362331 0)
(0.925702 0.384089 0)
(0.881672 0.36879 0)
(0.846629 0.338028 0)
(0.81086 0.30079 0)
(0.768403 0.263611 0)
(0.707183 0.224796 0)
(0.567634 0.176671 0)
(0.227868 0.104914 0)
(-0.133971 0.0842748 0)
(-0.266413 0.0824417 0)
(-0.302019 0.0828098 0)
(-0.325851 0.0827031 0)
(-0.34531 0.084118 0)
(-0.359899 0.0858059 0)
(-0.370466 0.0878107 0)
(-0.378112 0.0894649 0)
(-0.384925 0.0915177 0)
(-0.391662 0.0894261 0)
(-0.395738 0.0877376 0)
(-0.400925 0.0783296 0)
(1.57928 0.263469 0)
(1.57957 0.262163 0)
(1.58272 0.252851 0)
(1.58435 0.252819 0)
(1.58695 0.250762 0)
(1.59105 0.246564 0)
(1.59229 0.257133 0)
(1.595 0.255399 0)
(1.61261 0.244893 0)
(1.61537 0.250188 0)
(1.57658 0.229872 0)
(1.54926 0.190588 0)
(1.49385 0.173812 0)
(1.37562 0.169001 0)
(1.28517 0.174457 0)
(1.22975 0.198435 0)
(1.16602 0.211966 0)
(1.08655 0.275827 0)
(0.992463 0.387951 0)
(0.907256 0.442783 0)
(0.857225 0.440492 0)
(0.826831 0.414414 0)
(0.800213 0.378376 0)
(0.770033 0.336768 0)
(0.729173 0.294721 0)
(0.661059 0.250192 0)
(0.495806 0.187553 0)
(0.181109 0.101505 0)
(-0.144803 0.094517 0)
(-0.266475 0.0867137 0)
(-0.30286 0.0851804 0)
(-0.326087 0.085356 0)
(-0.344448 0.0892189 0)
(-0.358251 0.0944378 0)
(-0.368618 0.100333 0)
(-0.377035 0.105331 0)
(-0.384908 0.108577 0)
(-0.392211 0.105201 0)
(-0.396084 0.103938 0)
(-0.401162 0.0939375 0)
(1.52432 0.303496 0)
(1.52502 0.301042 0)
(1.52691 0.29638 0)
(1.52791 0.298297 0)
(1.53056 0.29525 0)
(1.53338 0.296281 0)
(1.53536 0.299653 0)
(1.53875 0.296579 0)
(1.55672 0.285979 0)
(1.54878 0.277695 0)
(1.5081 0.255005 0)
(1.47689 0.227132 0)
(1.40222 0.204481 0)
(1.30854 0.204222 0)
(1.24042 0.231924 0)
(1.17052 0.248249 0)
(1.08311 0.287362 0)
(0.982643 0.405807 0)
(0.886186 0.494291 0)
(0.825814 0.506565 0)
(0.795132 0.485834 0)
(0.774536 0.448971 0)
(0.752765 0.400793 0)
(0.722992 0.350903 0)
(0.67799 0.30103 0)
(0.597883 0.235237 0)
(0.40576 0.156012 0)
(0.135742 0.0802906 0)
(-0.162951 0.0425565 0)
(-0.268781 0.0274243 0)
(-0.299526 0.0291523 0)
(-0.318281 0.0399013 0)
(-0.33413 0.0586269 0)
(-0.348922 0.0776885 0)
(-0.360684 0.094647 0)
(-0.369585 0.108628 0)
(-0.378264 0.118873 0)
(-0.387615 0.119383 0)
(-0.39255 0.119192 0)
(-0.397821 0.109054 0)
(1.46273 0.344273 0)
(1.46369 0.341719 0)
(1.46465 0.339665 0)
(1.46488 0.340408 0)
(1.4666 0.338234 0)
(1.46705 0.340268 0)
(1.46738 0.340407 0)
(1.47079 0.328228 0)
(1.4813 0.323231 0)
(1.45777 0.31678 0)
(1.4302 0.289616 0)
(1.38397 0.255826 0)
(1.31009 0.24955 0)
(1.23143 0.270362 0)
(1.1547 0.286813 0)
(1.064 0.321293 0)
(0.958166 0.434302 0)
(0.852311 0.541034 0)
(0.781264 0.564918 0)
(0.750295 0.547897 0)
(0.733236 0.510174 0)
(0.714226 0.458092 0)
(0.684643 0.393695 0)
(0.645555 0.315941 0)
(0.591811 0.227571 0)
(0.492885 0.13211 0)
(0.281733 0.01241 0)
(0.071739 -0.0957087 0)
(-0.189012 -0.136078 0)
(-0.264137 -0.125065 0)
(-0.283997 -0.101518 0)
(-0.294371 -0.0693109 0)
(-0.304953 -0.0300674 0)
(-0.319517 0.0105507 0)
(-0.333938 0.0507599 0)
(-0.349266 0.0866799 0)
(-0.365071 0.113487 0)
(-0.380556 0.125953 0)
(-0.388694 0.133007 0)
(-0.396402 0.124523 0)
(1.38584 0.379432 0)
(1.38698 0.376851 0)
(1.38771 0.375727 0)
(1.38783 0.377149 0)
(1.38838 0.378825 0)
(1.38785 0.382966 0)
(1.389 0.381471 0)
(1.39004 0.375436 0)
(1.3858 0.367779 0)
(1.36287 0.347898 0)
(1.32965 0.317249 0)
(1.27029 0.29907 0)
(1.19132 0.307332 0)
(1.11106 0.332244 0)
(1.02043 0.382419 0)
(0.906079 0.465501 0)
(0.799733 0.563035 0)
(0.723385 0.610623 0)
(0.683926 0.605567 0)
(0.662677 0.558402 0)
(0.64408 0.473928 0)
(0.615223 0.370714 0)
(0.588195 0.260264 0)
(0.551329 0.155132 0)
(0.493512 0.0530063 0)
(0.381555 -0.0730959 0)
(0.207119 -0.183778 0)
(0.017056 -0.24472 0)
(-0.17787 -0.247334 0)
(-0.241191 -0.216352 0)
(-0.259049 -0.180153 0)
(-0.262541 -0.140619 0)
(-0.268722 -0.0989129 0)
(-0.27981 -0.0559461 0)
(-0.291534 -0.0105027 0)
(-0.310463 0.0369633 0)
(-0.330642 0.0843458 0)
(-0.356516 0.120038 0)
(-0.375907 0.140493 0)
(-0.391223 0.139807 0)
(1.28736 0.411163 0)
(1.28831 0.410336 0)
(1.28881 0.412057 0)
(1.28968 0.415183 0)
(1.29148 0.417785 0)
(1.29371 0.415485 0)
(1.29479 0.405353 0)
(1.28606 0.395459 0)
(1.26274 0.386785 0)
(1.23168 0.370546 0)
(1.18883 0.363865 0)
(1.12826 0.389542 0)
(1.05018 0.421034 0)
(0.959741 0.419882 0)
(0.823354 0.472464 0)
(0.71783 0.603536 0)
(0.623714 0.663657 0)
(0.583796 0.622495 0)
(0.56258 0.531049 0)
(0.549997 0.416743 0)
(0.537759 0.299183 0)
(0.525824 0.194536 0)
(0.502513 0.107203 0)
(0.46825 0.0159591 0)
(0.400799 -0.0974981 0)
(0.271253 -0.204797 0)
(0.160282 -0.262829 0)
(0.00831951 -0.286663 0)
(-0.147423 -0.27403 0)
(-0.208254 -0.244434 0)
(-0.227583 -0.208171 0)
(-0.232247 -0.167754 0)
(-0.23167 -0.127361 0)
(-0.243888 -0.0871906 0)
(-0.250386 -0.0444428 0)
(-0.26631 0.000384216 0)
(-0.28449 0.0501372 0)
(-0.316813 0.0983794 0)
(-0.34714 0.138495 0)
(-0.378403 0.155894 0)
(1.16098 0.434589 0)
(1.16108 0.436144 0)
(1.16228 0.44125 0)
(1.16703 0.44775 0)
(1.17203 0.453386 0)
(1.17447 0.45646 0)
(1.16758 0.461708 0)
(1.14957 0.463934 0)
(1.12394 0.45755 0)
(1.0913 0.438423 0)
(1.03932 0.408827 0)
(0.957067 0.404083 0)
(0.852199 0.447496 0)
(0.715959 0.550226 0)
(0.570261 0.641718 0)
(0.483313 0.616677 0)
(0.451677 0.536245 0)
(0.453849 0.434372 0)
(0.462747 0.329582 0)
(0.468356 0.240971 0)
(0.455752 0.170658 0)
(0.450086 0.0905466 0)
(0.440006 -0.00218842 0)
(0.386837 -0.0860304 0)
(0.288961 -0.177433 0)
(0.185036 -0.26322 0)
(0.140815 -0.293197 0)
(0.0202254 -0.296116 0)
(-0.111939 -0.276001 0)
(-0.170472 -0.247195 0)
(-0.189673 -0.211625 0)
(-0.197593 -0.170892 0)
(-0.194444 -0.12886 0)
(-0.20518 -0.0875434 0)
(-0.209379 -0.0452652 0)
(-0.2203 -0.00264564 0)
(-0.236872 0.0423439 0)
(-0.265692 0.0901523 0)
(-0.299973 0.138476 0)
(-0.344305 0.16329 0)
(0.986507 0.477436 0)
(0.99086 0.479364 0)
(0.998325 0.478132 0)
(1.01176 0.469059 0)
(1.01882 0.458968 0)
(1.01596 0.450722 0)
(1.00395 0.439322 0)
(0.982084 0.425932 0)
(0.946104 0.41792 0)
(0.885697 0.428373 0)
(0.783745 0.468777 0)
(0.65293 0.521343 0)
(0.496039 0.535253 0)
(0.375193 0.524828 0)
(0.336661 0.4741 0)
(0.346249 0.413024 0)
(0.360353 0.33893 0)
(0.381842 0.283698 0)
(0.384596 0.226365 0)
(0.400124 0.155111 0)
(0.410694 0.073855 0)
(0.389996 0.00758698 0)
(0.348562 -0.0547872 0)
(0.279265 -0.148076 0)
(0.192164 -0.250941 0)
(0.145871 -0.298493 0)
(0.134377 -0.310303 0)
(0.0423438 -0.302157 0)
(-0.074212 -0.274865 0)
(-0.131445 -0.2426 0)
(-0.149333 -0.211776 0)
(-0.15967 -0.175013 0)
(-0.156181 -0.134399 0)
(-0.165612 -0.0919442 0)
(-0.168362 -0.0457605 0)
(-0.177589 0.00405554 0)
(-0.191195 0.0580525 0)
(-0.215928 0.109253 0)
(-0.242627 0.151215 0)
(-0.284898 0.165942 0)
(0.763489 0.474485 0)
(0.775706 0.46082 0)
(0.766565 0.435338 0)
(0.746972 0.410425 0)
(0.73182 0.383595 0)
(0.708571 0.35943 0)
(0.672713 0.340017 0)
(0.621307 0.319755 0)
(0.552798 0.309496 0)
(0.469101 0.324069 0)
(0.3797 0.354336 0)
(0.300172 0.370297 0)
(0.247462 0.361948 0)
(0.233277 0.35412 0)
(0.246089 0.333236 0)
(0.277764 0.305191 0)
(0.299502 0.261085 0)
(0.328388 0.204536 0)
(0.346307 0.142035 0)
(0.346033 0.0817605 0)
(0.333235 0.0262725 0)
(0.304464 -0.0417127 0)
(0.251701 -0.137342 0)
(0.182648 -0.24165 0)
(0.140553 -0.298168 0)
(0.135091 -0.31881 0)
(0.131358 -0.322773 0)
(0.0668143 -0.311534 0)
(-0.036076 -0.282107 0)
(-0.0933845 -0.247459 0)
(-0.109344 -0.208642 0)
(-0.119854 -0.171917 0)
(-0.114197 -0.130546 0)
(-0.122716 -0.0852924 0)
(-0.122301 -0.0367832 0)
(-0.131804 0.0149858 0)
(-0.137372 0.0714539 0)
(-0.159425 0.123834 0)
(-0.175915 0.161089 0)
(-0.211509 0.172757 0)
(0.463517 0.463325 0)
(0.448164 0.433681 0)
(0.420084 0.389228 0)
(0.386203 0.346144 0)
(0.350161 0.312434 0)
(0.31284 0.284994 0)
(0.27518 0.264125 0)
(0.237388 0.24945 0)
(0.201786 0.24677 0)
(0.177068 0.25951 0)
(0.163078 0.275107 0)
(0.160123 0.283971 0)
(0.167728 0.287407 0)
(0.185355 0.284808 0)
(0.210671 0.266387 0)
(0.239285 0.232582 0)
(0.265742 0.183728 0)
(0.280448 0.132942 0)
(0.283755 0.0825309 0)
(0.273341 0.0278385 0)
(0.25628 -0.0442588 0)
(0.21967 -0.137783 0)
(0.160979 -0.2362 0)
(0.124597 -0.297962 0)
(0.123085 -0.321379 0)
(0.128948 -0.33058 0)
(0.130591 -0.333114 0)
(0.0895019 -0.323954 0)
(0.00247017 -0.292732 0)
(-0.0548316 -0.255329 0)
(-0.0719873 -0.218968 0)
(-0.0794983 -0.180001 0)
(-0.0702806 -0.13702 0)
(-0.0768224 -0.0904338 0)
(-0.0723259 -0.0391363 0)
(-0.0813372 0.0177895 0)
(-0.0791364 0.0835323 0)
(-0.097777 0.144777 0)
(-0.106016 0.183495 0)
(-0.133186 0.194077 0)
(0.12063 0.44441 0)
(0.12049 0.407127 0)
(0.0992823 0.363396 0)
(0.0778017 0.323218 0)
(0.0545096 0.294656 0)
(0.0390431 0.277298 0)
(0.0340358 0.269845 0)
(0.0397358 0.266813 0)
(0.0547228 0.262036 0)
(0.0752704 0.257025 0)
(0.0979274 0.251435 0)
(0.118728 0.245584 0)
(0.141587 0.243563 0)
(0.163798 0.228338 0)
(0.186124 0.198576 0)
(0.200422 0.163657 0)
(0.211667 0.124471 0)
(0.216783 0.073976 0)
(0.21864 0.012155 0)
(0.208704 -0.0595306 0)
(0.17807 -0.143589 0)
(0.132327 -0.234294 0)
(0.101528 -0.29547 0)
(0.102521 -0.322233 0)
(0.114255 -0.332032 0)
(0.12471 -0.34076 0)
(0.130568 -0.342503 0)
(0.108693 -0.336121 0)
(0.0423911 -0.305632 0)
(-0.0143514 -0.26377 0)
(-0.0323439 -0.220971 0)
(-0.0362179 -0.180785 0)
(-0.0251365 -0.135515 0)
(-0.0276787 -0.0853965 0)
(-0.0204723 -0.0334829 0)
(-0.028066 0.0256494 0)
(-0.0180627 0.0902147 0)
(-0.0284825 0.149677 0)
(-0.0310827 0.186054 0)
(-0.0527898 0.197427 0)
(-0.118061 0.44666 0)
(-0.0935849 0.421961 0)
(-0.0909716 0.386008 0)
(-0.0838068 0.355207 0)
(-0.0790142 0.331015 0)
(-0.067119 0.312183 0)
(-0.0480785 0.296394 0)
(-0.0212394 0.279458 0)
(0.0124488 0.259037 0)
(0.0518843 0.240851 0)
(0.0900238 0.22596 0)
(0.115861 0.209369 0)
(0.132941 0.191466 0)
(0.144314 0.166383 0)
(0.150063 0.137488 0)
(0.155509 0.0987727 0)
(0.161655 0.0493561 0)
(0.16266 -0.0093402 0)
(0.153653 -0.0778763 0)
(0.128712 -0.158484 0)
(0.0943002 -0.240899 0)
(0.0741643 -0.294051 0)
(0.0781016 -0.318806 0)
(0.0908801 -0.333714 0)
(0.107232 -0.340478 0)
(0.120046 -0.349324 0)
(0.129429 -0.350841 0)
(0.122659 -0.347844 0)
(0.0810129 -0.323295 0)
(0.028766 -0.282279 0)
(0.00802134 -0.235841 0)
(0.0101866 -0.191589 0)
(0.0223782 -0.144952 0)
(0.0280414 -0.0939163 0)
(0.0373249 -0.0390472 0)
(0.0318673 0.0220601 0)
(0.0432141 0.0916548 0)
(0.0399935 0.161255 0)
(0.0406295 0.206571 0)
(0.0205702 0.220344 0)
(-0.212682 0.459235 0)
(-0.180315 0.43088 0)
(-0.169638 0.398935 0)
(-0.147823 0.378221 0)
(-0.128758 0.353983 0)
(-0.104455 0.331595 0)
(-0.0772694 0.307212 0)
(-0.0457135 0.280097 0)
(-0.00899994 0.251631 0)
(0.0333152 0.226179 0)
(0.0712254 0.203113 0)
(0.0919003 0.180026 0)
(0.100259 0.155871 0)
(0.102613 0.122677 0)
(0.104622 0.077456 0)
(0.107173 0.0232832 0)
(0.107673 -0.0372884 0)
(0.0983885 -0.104992 0)
(0.0771596 -0.181436 0)
(0.0514912 -0.252251 0)
(0.041752 -0.295651 0)
(0.0504967 -0.31891 0)
(0.0669555 -0.333661 0)
(0.0840949 -0.343685 0)
(0.101675 -0.349039 0)
(0.116028 -0.357891 0)
(0.128447 -0.36011 0)
(0.132064 -0.358538 0)
(0.113738 -0.339301 0)
(0.0747393 -0.301884 0)
(0.051775 -0.254305 0)
(0.0593804 -0.208573 0)
(0.0742839 -0.156698 0)
(0.0911529 -0.0980738 0)
(0.0995104 -0.0342454 0)
(0.10093 0.0300329 0)
(0.107487 0.0964432 0)
(0.110725 0.165101 0)
(0.112817 0.215517 0)
(0.0874937 0.229708 0)
(-0.214605 0.472059 0)
(-0.201447 0.452826 0)
(-0.194158 0.430479 0)
(-0.175379 0.411724 0)
(-0.152173 0.390345 0)
(-0.125793 0.366297 0)
(-0.0995956 0.340102 0)
(-0.0713666 0.310543 0)
(-0.0374507 0.280215 0)
(0.000625707 0.248074 0)
(0.0327107 0.209338 0)
(0.051345 0.164117 0)
(0.0630741 0.114511 0)
(0.0621736 0.0594426 0)
(0.0578628 -0.00268274 0)
(0.0538989 -0.068806 0)
(0.0466728 -0.138274 0)
(0.0306136 -0.207496 0)
(0.013988 -0.26443 0)
(0.0120389 -0.299411 0)
(0.0229161 -0.322614 0)
(0.0410327 -0.336641 0)
(0.0603906 -0.345622 0)
(0.0780516 -0.353951 0)
(0.0950661 -0.358095 0)
(0.109235 -0.366006 0)
(0.12258 -0.368743 0)
(0.132973 -0.369063 0)
(0.132025 -0.359089 0)
(0.116307 -0.329898 0)
(0.0984098 -0.283094 0)
(0.107909 -0.231913 0)
(0.124595 -0.177877 0)
(0.148242 -0.117414 0)
(0.154971 -0.0466451 0)
(0.167455 0.0238038 0)
(0.172186 0.0972051 0)
(0.181003 0.171293 0)
(0.187886 0.229964 0)
(0.150243 0.255743 0)
(-0.217497 0.5002 0)
(-0.23213 0.480513 0)
(-0.221758 0.452443 0)
(-0.197577 0.434653 0)
(-0.176514 0.41213 0)
(-0.15391 0.39126 0)
(-0.131924 0.368127 0)
(-0.107579 0.340734 0)
(-0.0773643 0.309243 0)
(-0.0442905 0.270499 0)
(-0.0175209 0.223805 0)
(-0.0100297 0.160218 0)
(-0.00547754 0.0823228 0)
(-0.0109179 -0.00138264 0)
(-0.0141819 -0.0844321 0)
(-0.0144999 -0.160016 0)
(-0.0149622 -0.225128 0)
(-0.0153335 -0.274191 0)
(-0.00956261 -0.303912 0)
(0.00258636 -0.323857 0)
(0.0188803 -0.33697 0)
(0.0370641 -0.346791 0)
(0.0556895 -0.354716 0)
(0.072375 -0.362032 0)
(0.0888076 -0.365016 0)
(0.103694 -0.371581 0)
(0.118614 -0.373666 0)
(0.132892 -0.375842 0)
(0.143207 -0.37039 0)
(0.145876 -0.353336 0)
(0.142696 -0.315654 0)
(0.151703 -0.261577 0)
(0.161103 -0.197495 0)
(0.184394 -0.127495 0)
(0.188505 -0.0512031 0)
(0.209687 0.0229094 0)
(0.218416 0.0973939 0)
(0.235993 0.174497 0)
(0.253883 0.243504 0)
(0.231512 0.27945 0)
(-0.260167 0.4886 0)
(-0.283594 0.449578 0)
(-0.246746 0.433784 0)
(-0.211474 0.432122 0)
(-0.192715 0.435227 0)
(-0.172524 0.432155 0)
(-0.15048 0.43061 0)
(-0.122247 0.419273 0)
(-0.0899218 0.3954 0)
(-0.0643911 0.344452 0)
(-0.0462793 0.255142 0)
(-0.0411552 0.14061 0)
(-0.0454425 0.01713 0)
(-0.0509284 -0.0962633 0)
(-0.0496326 -0.184547 0)
(-0.0460155 -0.24867 0)
(-0.039062 -0.290739 0)
(-0.0259761 -0.314942 0)
(-0.0107525 -0.329655 0)
(0.00511658 -0.338081 0)
(0.0201288 -0.347318 0)
(0.0348456 -0.356676 0)
(0.0495287 -0.364186 0)
(0.0636832 -0.37039 0)
(0.0783976 -0.372409 0)
(0.0924761 -0.377691 0)
(0.107458 -0.379158 0)
(0.122355 -0.381737 0)
(0.137648 -0.380726 0)
(0.153856 -0.3763 0)
(0.166511 -0.35337 0)
(0.169053 -0.303924 0)
(0.173322 -0.233993 0)
(0.194157 -0.154957 0)
(0.198268 -0.0729119 0)
(0.223209 0.00310859 0)
(0.230912 0.0730614 0)
(0.259072 0.136522 0)
(0.286286 0.221681 0)
(0.260407 0.253543 0)
(-0.260167 -0.4886 0)
(-0.283594 -0.449578 0)
(-0.246746 -0.433784 0)
(-0.211474 -0.432122 0)
(-0.192715 -0.435227 0)
(-0.172524 -0.432155 0)
(-0.15048 -0.43061 0)
(-0.122247 -0.419273 0)
(-0.0899218 -0.3954 0)
(-0.0643911 -0.344452 0)
(-0.0462793 -0.255142 0)
(-0.0411552 -0.14061 0)
(-0.0454425 -0.01713 0)
(-0.0509284 0.0962633 0)
(-0.0496326 0.184547 0)
(-0.0460155 0.24867 0)
(-0.039062 0.290739 0)
(-0.0259761 0.314942 0)
(-0.0107525 0.329655 0)
(0.00511658 0.338081 0)
(0.0201288 0.347318 0)
(0.0348456 0.356676 0)
(0.0495287 0.364186 0)
(0.0636832 0.37039 0)
(0.0783976 0.372409 0)
(0.0924761 0.377691 0)
(0.107458 0.379158 0)
(0.122355 0.381737 0)
(0.137648 0.380726 0)
(0.153856 0.3763 0)
(0.166511 0.35337 0)
(0.169053 0.303924 0)
(0.173322 0.233993 0)
(0.194157 0.154957 0)
(0.198268 0.0729119 0)
(0.223209 -0.00310859 0)
(0.230912 -0.0730614 0)
(0.259072 -0.136522 0)
(0.286286 -0.221681 0)
(0.260407 -0.253543 0)
(-0.217497 -0.5002 0)
(-0.23213 -0.480513 0)
(-0.221758 -0.452443 0)
(-0.197577 -0.434653 0)
(-0.176514 -0.41213 0)
(-0.15391 -0.39126 0)
(-0.131924 -0.368127 0)
(-0.107579 -0.340734 0)
(-0.0773643 -0.309243 0)
(-0.0442905 -0.270499 0)
(-0.0175209 -0.223805 0)
(-0.0100297 -0.160218 0)
(-0.00547754 -0.0823228 0)
(-0.0109179 0.00138264 0)
(-0.0141819 0.0844321 0)
(-0.0144999 0.160016 0)
(-0.0149622 0.225128 0)
(-0.0153335 0.274191 0)
(-0.00956261 0.303912 0)
(0.00258636 0.323857 0)
(0.0188803 0.33697 0)
(0.0370641 0.346791 0)
(0.0556895 0.354716 0)
(0.072375 0.362032 0)
(0.0888076 0.365016 0)
(0.103694 0.371581 0)
(0.118614 0.373666 0)
(0.132892 0.375842 0)
(0.143207 0.37039 0)
(0.145876 0.353336 0)
(0.142696 0.315654 0)
(0.151703 0.261577 0)
(0.161103 0.197495 0)
(0.184394 0.127495 0)
(0.188505 0.0512031 0)
(0.209687 -0.0229094 0)
(0.218416 -0.0973939 0)
(0.235993 -0.174497 0)
(0.253883 -0.243504 0)
(0.231512 -0.27945 0)
(-0.214605 -0.472059 0)
(-0.201447 -0.452826 0)
(-0.194158 -0.430479 0)
(-0.175379 -0.411724 0)
(-0.152173 -0.390345 0)
(-0.125793 -0.366297 0)
(-0.0995956 -0.340102 0)
(-0.0713666 -0.310543 0)
(-0.0374507 -0.280215 0)
(0.000625707 -0.248074 0)
(0.0327107 -0.209338 0)
(0.051345 -0.164117 0)
(0.0630741 -0.114511 0)
(0.0621736 -0.0594426 0)
(0.0578628 0.00268274 0)
(0.0538989 0.068806 0)
(0.0466728 0.138274 0)
(0.0306136 0.207496 0)
(0.013988 0.26443 0)
(0.0120389 0.299411 0)
(0.0229161 0.322614 0)
(0.0410327 0.336641 0)
(0.0603906 0.345622 0)
(0.0780516 0.353951 0)
(0.0950661 0.358095 0)
(0.109235 0.366006 0)
(0.12258 0.368743 0)
(0.132973 0.369063 0)
(0.132025 0.359089 0)
(0.116307 0.329898 0)
(0.0984098 0.283094 0)
(0.107909 0.231913 0)
(0.124595 0.177877 0)
(0.148242 0.117414 0)
(0.154971 0.0466451 0)
(0.167455 -0.0238038 0)
(0.172186 -0.0972051 0)
(0.181003 -0.171293 0)
(0.187886 -0.229964 0)
(0.150243 -0.255743 0)
(-0.212682 -0.459235 0)
(-0.180315 -0.43088 0)
(-0.169638 -0.398935 0)
(-0.147823 -0.378221 0)
(-0.128758 -0.353983 0)
(-0.104455 -0.331595 0)
(-0.0772694 -0.307212 0)
(-0.0457135 -0.280097 0)
(-0.00899994 -0.251631 0)
(0.0333152 -0.226179 0)
(0.0712254 -0.203113 0)
(0.0919003 -0.180026 0)
(0.100259 -0.155871 0)
(0.102613 -0.122677 0)
(0.104622 -0.077456 0)
(0.107173 -0.0232832 0)
(0.107673 0.0372884 0)
(0.0983885 0.104992 0)
(0.0771596 0.181436 0)
(0.0514912 0.252251 0)
(0.041752 0.295651 0)
(0.0504967 0.31891 0)
(0.0669555 0.333661 0)
(0.0840949 0.343685 0)
(0.101675 0.349039 0)
(0.116028 0.357891 0)
(0.128447 0.36011 0)
(0.132064 0.358538 0)
(0.113738 0.339301 0)
(0.0747393 0.301884 0)
(0.051775 0.254305 0)
(0.0593804 0.208573 0)
(0.0742839 0.156698 0)
(0.0911529 0.0980738 0)
(0.0995104 0.0342454 0)
(0.10093 -0.0300329 0)
(0.107487 -0.0964432 0)
(0.110725 -0.165101 0)
(0.112817 -0.215517 0)
(0.0874937 -0.229708 0)
(-0.118061 -0.44666 0)
(-0.0935849 -0.421961 0)
(-0.0909716 -0.386008 0)
(-0.0838068 -0.355207 0)
(-0.0790142 -0.331015 0)
(-0.067119 -0.312183 0)
(-0.0480785 -0.296394 0)