/*--------------------------------*- C++ -*----------------------------------*\
| =========                 |                                                 |
| \\      /  F ield         | OpenFOAM: The Open Source CFD Toolbox           |
|  \\    /   O peration     | Version:  v1912                                 |
|   \\  /    A nd           | Website:  www.openfoam.com                      |
|    \\/     M anipulation  |                                                 |
\*---------------------------------------------------------------------------*/
FoamFile
{
    version     2.0;
    format      ascii;
    class       volVectorField;
    location    "6.74";
    object      grad(rho);
}
// * * * * * * * * * * * * * * * * * * * * * * * * * * * * * * * * * * * * * //

dimensions      [1 -4 0 0 0 0 0];


internalField   nonuniform List<vector> 
1900
(
(89132.2 -0.188413 0)
(-94372.8 -0.301422 0)
(-4267.99 -0.0756003 0)
(-906.529 -0.0668305 0)
(-1469.7 1.05352 0)
(-1382.13 1.38253 0)
(-939.858 4.24153 0)
(-553.076 1.90489 0)
(-349.356 25.0715 0)
(655.032 -42.7565 0)
(89131.7 -0.375457 0)
(-94372.7 -0.38569 0)
(-4267.76 0.102129 0)
(-905.4 0.332554 0)
(-1468.25 2.37109 0)
(-1378.95 2.6476 0)
(-939.335 2.02483 0)
(-532.246 -10.1234 0)
(-394.018 -17.7837 0)
(-295.72 -99.7439 0)
(89131.4 1.69109e-08 0)
(-94372.3 8.20677e-09 0)
(-4267.27 1.45661e-08 0)
(-904.26 1.04272e-08 0)
(-1467.38 5.20473e-09 0)
(-1382.48 2.84217e-10 0)
(-952.629 -2.39808e-09 0)
(-572.885 2.41585e-09 0)
(-438.977 1.68754e-09 0)
(-432.224 -3.8014e-09 0)
(89131.7 0.375457 0)
(-94372.7 0.38569 0)
(-4267.76 -0.102129 0)
(-905.4 -0.332554 0)
(-1468.25 -2.37109 0)
(-1378.95 -2.6476 0)
(-939.335 -2.02483 0)
(-532.246 10.1234 0)
(-394.018 17.7837 0)
(-295.72 99.7439 0)
(89132.2 0.188413 0)
(-94372.8 0.301422 0)
(-4267.99 0.0756003 0)
(-906.529 0.0668305 0)
(-1469.7 -1.05352 0)
(-1382.13 -1.38253 0)
(-939.858 -4.24153 0)
(-553.076 -1.90489 0)
(-349.356 -25.0715 0)
(655.032 42.7565 0)
(-213.09 -805.889 1.24475e-11)
(-2317.48 -590.105 -1.47192e-11)
(-3559.28 -585.555 -1.84651e-11)
(-3803.24 -577.45 0)
(-25627.7 -7306.16 -7.64211e-11)
(-662.58 -973.086 1.23019e-11)
(-1628.48 -710.614 1.47192e-11)
(-3228.45 -636.171 1.84651e-11)
(-6318.36 -129.992 0)
(-24119.4 -6059.02 0)
(-994.052 -1.01851e-08 0)
(-1642.56 -7.98581e-09 0)
(-2999.28 -6.41462e-09 0)
(-5960.92 3.29703e-09 0)
(-26311.1 1.16309e-08 0)
(-662.58 973.086 1.23019e-11)
(-1628.48 710.614 1.47192e-11)
(-3228.45 636.171 1.84651e-11)
(-6318.36 129.992 0)
(-24119.4 6059.02 0)
(-213.09 805.889 -3.70514e-11)
(-2317.48 590.105 -1.47192e-11)
(-3559.28 585.555 -1.84651e-11)
(-3803.24 577.45 -4.90854e-11)
(-25627.7 7306.16 7.64211e-11)
(-43761.8 14679.4 1.76365e-11)
(-15492.6 6382.18 -1.00757e-11)
(-7947.14 3028.42 0)
(-6258.61 2221.3 5.00013e-12)
(-3126.08 1868.7 -1.74799e-12)
(-39278.3 19012.8 -9.03931e-12)
(-18043.7 5541.45 5.13397e-12)
(-8950.14 1776.39 0)
(-6493.59 1356.82 -3.17711e-12)
(-4352.3 958.787 4.58286e-13)
(-40827.1 6.10062e-09 0)
(-19906.9 5.61754e-09 0)
(-9251.81 -8.4048e-09 0)
(-6633.53 1.10732e-08 1.28719e-12)
(-4349.64 -2.48015e-09 -9.16572e-13)
(-39278.3 -19012.8 -9.03931e-12)
(-18043.7 -5541.45 5.13397e-12)
(-8950.14 -1776.39 0)
(-6493.59 -1356.82 -3.17711e-12)
(-4352.3 -958.787 4.58286e-13)
(-43761.8 -14679.4 9.03931e-12)
(-15492.6 -6382.18 -1.9221e-13)
(-7947.14 -3028.42 0)
(-6258.61 -2221.3 6.68982e-14)
(-3126.08 -1868.7 1.74799e-12)
(-475.586 -4569.91 0)
(-1249.25 -3744.42 0)
(-1714.99 -2888.62 0)
(-558.95 -1978.01 0)
(2954.69 -2157.01 0)
(5182.17 -1081.36 0)
(2880.39 142.161 0)
(763.521 23.085 0)
(360.631 62.3181 0)
(-583.286 399.477 0)
(-1498.84 601.24 0)
(-1923.92 449.017 0)
(-2266.48 284.329 0)
(-2567.75 199.484 0)
(-2154.59 117.143 0)
(-1204.25 40.3723 0)
(-586.592 8.81629 0)
(-401.946 5.38673 0)
(-350.238 9.18891 0)
(-305.192 6.22355 0)
(-231.004 0.929412 0)
(-143.675 -2.05122 0)
(-77.2839 -2.6338 0)
(-40.984 -2.40892 0)
(-23.199 -2.09516 0)
(-13.2203 -1.87333 0)
(-3.08491 -1.80874 0)
(9.52975 -1.7759 0)
(22.1019 -1.66981 0)
(33.0826 -1.54801 0)
(53.7319 -1.61225 0)
(80.2069 -0.888845 0)
(115.681 -0.853904 0)
(149.16 1.12994 0)
(306.385 -0.556032 0)
(988.802 -2.37265 0)
(2225.05 -7.94253 0)
(2587.22 6.73673 0)
(985.271 7.60788 0)
(2203.14 7.14204 0)
(-1609.98 -1695.8 0)
(-1136 -1685.6 0)
(-1503.96 -1275.22 0)
(-451.106 -898.401 0)
(3017.41 -957.359 0)
(5250.96 -972.087 0)
(2900.86 -339.682 0)
(807.523 -496.871 0)
(513.655 -169.383 0)
(-413.596 200.113 0)
(-1450.63 274.893 0)
(-1982.21 179.621 0)
(-2320.59 118.403 0)
(-2599.62 99.5111 0)
(-2174.46 56.4749 0)
(-1213.9 17.4996 0)
(-589.428 2.95326 0)
(-401.66 2.15671 0)
(-350.205 4.46453 0)
(-306.019 2.40184 0)
(-231.692 0.444432 0)
(-143.994 -0.927879 0)
(-77.303 -1.12888 0)
(-40.9313 -1.00745 0)
(-23.1496 -0.874838 0)
(-13.1948 -0.789831 0)
(-3.07854 -0.778149 0)
(9.53938 -0.787461 0)
(22.1216 -0.758642 0)
(33.0833 -0.723598 0)
(53.7922 -0.7813 0)
(80.2552 -0.479446 0)
(115.861 -0.555428 0)
(149.164 0.360394 0)
(306.038 -0.658022 0)
(987.915 -1.16076 0)
(2225.85 -4.86499 0)
(2588.13 3.08901 0)
(984.565 0.342494 0)
(2202.76 1.27472 0)
(-1395.65 -3.75054e-08 0)
(-1126.9 -3.39365e-08 0)
(-1485.98 -1.02383e-08 0)
(-466.48 1.50264e-08 0)
(2933.26 5.34845e-08 0)
(5361.86 -1.67139e-07 0)
(3018.63 1.03901e-07 0)
(813.062 4.55862e-07 0)
(563.39 1.9091e-07 0)
(-454.042 -2.70055e-07 0)
(-1504.8 -1.05193e-07 0)
(-1969.45 -2.37224e-08 0)
(-2289.79 -1.12879e-08 0)
(-2585.76 -3.97662e-08 0)
(-2178.45 -7.3517e-08 0)
(-1219.82 -5.14255e-08 0)
(-591.055 1.88375e-08 0)
(-401.506 -8.0259e-09 0)
(-350.167 -1.70772e-08 0)
(-306.362 -8.35695e-09 0)
(-231.973 3.76668e-09 0)
(-144.133 8.03398e-09 0)
(-77.3071 4.68716e-09 0)
(-40.9101 1.2919e-09 0)
(-23.1357 2.18007e-10 0)
(-13.1922 8.88178e-10 0)
(-3.08422 3.83128e-09 0)
(9.53543 7.25077e-09 0)
(22.1205 7.10139e-09 0)
(33.076 4.8648e-09 0)
(53.8029 -2.89869e-09 0)
(80.2726 -4.59027e-09 0)
(115.925 7.52933e-09 0)
(149.13 -1.35528e-08 0)
(305.942 -1.22205e-08 0)
(987.579 -2.56764e-08 0)
(2226.29 9.32426e-08 0)
(2588.73 4.83008e-08 0)
(984.743 -3.40738e-09 0)
(2200.65 1.43239e-07 0)
(-1609.98 1695.8 0)
(-1136 1685.6 0)
(-1503.96 1275.22 0)
(-451.106 898.401 0)
(3017.41 957.359 0)
(5250.96 972.087 0)
(2900.86 339.682 0)
(807.523 496.871 0)
(513.655 169.383 0)
(-413.596 -200.113 0)
(-1450.63 -274.893 0)
(-1982.21 -179.621 0)
(-2320.59 -118.403 0)
(-2599.62 -99.5111 0)
(-2174.46 -56.4749 0)
(-1213.9 -17.4996 0)
(-589.428 -2.95326 0)
(-401.66 -2.15671 0)
(-350.205 -4.46453 0)
(-306.019 -2.40184 0)
(-231.692 -0.444432 0)
(-143.994 0.927879 0)
(-77.303 1.12888 0)
(-40.9313 1.00745 0)
(-23.1496 0.874838 0)
(-13.1948 0.789831 0)
(-3.07854 0.778149 0)
(9.53938 0.787461 0)
(22.1216 0.758642 0)
(33.0833 0.723598 0)
(53.7922 0.7813 0)
(80.2552 0.479446 0)
(115.861 0.555428 0)
(149.164 -0.360394 0)
(306.038 0.658022 0)
(987.915 1.16076 0)
(2225.85 4.86499 0)
(2588.13 -3.08901 0)
(984.565 -0.342494 0)
(2202.76 -1.27472 0)
(-475.586 4569.91 0)
(-1249.25 3744.42 0)
(-1714.99 2888.62 0)
(-558.95 1978.01 0)
(2954.69 2157.01 0)
(5182.17 1081.36 0)
(2880.39 -142.161 0)
(763.521 -23.085 0)
(360.631 -62.3181 0)
(-583.286 -399.477 0)
(-1498.84 -601.24 0)
(-1923.92 -449.017 0)
(-2266.48 -284.329 0)
(-2567.75 -199.484 0)
(-2154.59 -117.143 0)
(-1204.25 -40.3723 0)
(-586.592 -8.81629 0)
(-401.946 -5.38673 0)
(-350.238 -9.18891 0)
(-305.192 -6.22355 0)
(-231.004 -0.929412 0)
(-143.675 2.05122 0)
(-77.2839 2.6338 0)
(-40.984 2.40892 0)
(-23.199 2.09516 0)
(-13.2203 1.87333 0)
(-3.08491 1.80874 0)
(9.52975 1.7759 0)
(22.1019 1.66981 0)
(33.0826 1.54801 0)
(53.7319 1.61225 0)
(80.2069 0.888845 0)
(115.681 0.853904 0)
(149.16 -1.12994 0)
(306.385 0.556032 0)
(988.802 2.37265 0)
(2225.05 7.94253 0)
(2587.22 -6.73673 0)
(985.271 -7.60788 0)
(2203.14 -7.14204 0)
(-1977.09 3731.79 0)
(-2059.69 2389.5 0)
(-2367.98 2288.06 0)
(-785.335 2934.94 0)
(2527.49 3010.36 0)
(3888.29 918.152 0)
(2231.74 -979.827 0)
(908.483 -644.033 0)
(454.488 -634.445 0)
(-555.443 -830.255 0)
(-1425.96 -777.882 0)
(-1850.81 -563.167 0)
(-2226.63 -417.227 0)
(-2531.59 -345.191 0)
(-2097.64 -222.588 0)
(-1157.11 -75.1534 0)
(-570.762 -17.8639 0)
(-401.562 -11.1003 0)
(-350.691 -15.2974 0)
(-301.794 -11.378 0)
(-227.297 -2.41794 0)
(-142.127 3.06517 0)
(-77.1008 4.52384 0)
(-41.2083 4.24655 0)
(-23.4286 3.69672 0)
(-13.345 3.30027 0)
(-3.13229 3.17617 0)
(9.46336 3.10824 0)
(22.0015 2.90713 0)
(33.048 2.7332 0)
(53.4485 2.76572 0)
(79.8354 1.71699 0)
(114.803 1.04788 0)
(148.983 -1.76879 0)
(307.834 0.252389 0)
(991.522 3.88199 0)
(2221.06 11.426 0)
(2579.42 -6.88589 0)
(983.493 -16.9612 0)
(2214.93 -18.3339 0)
(-2618.31 528.587 0)
(-2205.91 359.705 0)
(-839.229 1225.41 0)
(258.484 2446.85 0)
(1240.32 2307.22 0)
(2030.9 571.424 0)
(1722.84 -611.14 0)
(1018.61 -569.256 0)
(130.85 -974.617 0)
(-736.437 -1183.07 0)
(-1280.54 -1036.35 0)
(-1615.59 -780.483 0)
(-2077.8 -643.425 0)
(-2399.58 -560.402 0)
(-1924.91 -335.096 0)
(-1032.25 -104.149 0)
(-533.357 -27.53 0)
(-399.678 -19.66 0)
(-350.262 -21.5932 0)
(-294.603 -15.2716 0)
(-219.074 -3.76342 0)
(-137.815 4.39622 0)
(-76.2437 7.18807 0)
(-41.6607 7.1044 0)
(-23.9877 6.35996 0)
(-13.6551 5.75843 0)
(-3.24454 5.53123 0)
(9.3061 5.36516 0)
(21.7943 5.03276 0)
(32.9648 4.78006 0)
(52.9046 4.79505 0)
(78.7508 3.43892 0)
(112.793 2.01476 0)
(148.488 -1.68862 0)
(311.053 0.561333 0)
(998.111 6.02298 0)
(2216.82 17.1248 0)
(2564.04 -3.06115 0)
(975.193 -21.0248 0)
(2239.16 -22.9283 0)
(-2273.54 -181.876 0)
(-1388.2 735.43 0)
(-356.733 1369.18 0)
(257.138 1155.54 0)
(720.261 923.807 0)
(1076.05 49.3806 0)
(1132.54 -538.521 0)
(558.223 -943.25 0)
(-137.001 -1201.51 0)
(-614.93 -1239.91 0)
(-1038.02 -1030.97 0)
(-1472.18 -861.468 0)
(-2014.55 -822.696 0)
(-2234.48 -733.606 0)
(-1657.98 -394.825 0)
(-860.733 -114.646 0)
(-489.346 -36.927 0)
(-395.841 -28.8377 0)
(-346.463 -26.6257 0)
(-284.613 -17.0065 0)
(-208.344 -3.1202 0)
(-131.574 7.03633 0)
(-74.4911 11.0432 0)
(-42.0063 11.3064 0)
(-24.7256 10.4651 0)
(-14.1436 9.67093 0)
(-3.51125 9.28109 0)
(8.98301 8.89564 0)
(21.4377 8.37996 0)
(32.819 7.97881 0)
(52.1561 7.94119 0)
(77.1562 6.28225 0)
(109.862 4.16992 0)
(147.582 -0.437198 0)
(315.265 1.83221 0)
(1007.48 8.65054 0)
(2212.31 23.2801 0)
(2542.66 -0.249537 0)
(964.349 -24.057 0)
(2267.13 -24.8371 0)
(-1334.91 -511.864 0)
(-711.253 224.115 0)
(-434.397 20.0084 0)
(-170.694 -184.967 0)
(174.389 -301.11 0)
(621.747 -382.396 0)
(766.306 -641.161 0)
(379.727 -1091.55 0)
(-155.019 -1194.41 0)
(-572.091 -1152.51 0)
(-915.864 -1040 0)
(-1414.89 -983.289 0)
(-1954.59 -989.42 0)
(-1987.26 -806.083 0)
(-1328.46 -373.343 0)
(-687.364 -109.154 0)
(-450.669 -46.5798 0)
(-389.752 -37.2573 0)
(-338.861 -29.7186 0)
(-271.953 -16.1647 0)
(-195.905 -0.260649 0)
(-124.167 11.2176 0)
(-72.1289 15.9696 0)
(-42.2178 16.5125 0)
(-25.5637 15.6345 0)
(-14.796 14.6876 0)
(-3.99165 14.0751 0)
(8.43773 13.3591 0)
(20.9109 12.6203 0)
(32.542 12.0001 0)
(51.2698 11.7633 0)
(75.1167 9.90042 0)
(106.318 7.10707 0)
(146.235 2.17423 0)
(319.81 3.99745 0)
(1018.78 11.4757 0)
(2208.24 26.5652 0)
(2518.43 1.68295 0)
(951.499 -26.1468 0)
(2293.41 -27.7165 0)
(-1331.67 -1107.52 0)
(-875.671 -742.012 0)
(-750.939 -828.779 0)
(-52.3031 -546.516 0)
(530.011 -380.966 0)
(748.366 -428.679 0)
(449.168 -841.52 0)
(25.0957 -1109.24 0)
(-195.742 -1206.62 0)
(-466.139 -1109.67 0)
(-874.954 -1067.77 0)
(-1423.43 -1099 0)
(-1843.79 -1085.94 0)
(-1640.8 -756.27 0)
(-986.391 -300.488 0)
(-545.852 -97.8 0)
(-420.063 -53.1607 0)
(-379.593 -42.1242 0)
(-326.137 -29.1495 0)
(-256.226 -11.8499 0)
(-181.958 5.42749 0)
(-115.934 17.5455 0)
(-69.3888 22.6164 0)
(-42.3292 23.3232 0)
(-26.4841 22.4306 0)
(-15.6463 21.3618 0)
(-4.79148 20.4702 0)
(7.58106 19.3971 0)
(20.1281 18.4824 0)
(31.9932 17.6246 0)
(50.1328 17.1316 0)
(72.6692 15.1709 0)
(102.417 12.1305 0)
(144.586 7.13957 0)
(324.228 9.27899 0)
(1029.23 16.6271 0)
(2202.87 33.2868 0)
(2491.86 9.05625 0)
(936.018 -21.7209 0)
(2327.55 -21.9267 0)
(-1855.36 -818.837 0)
(-442.649 -401.883 0)
(-246.009 -154.998 0)
(260.836 -87.5311 0)
(287.941 -371.314 0)
(177.94 -768.11 0)
(110.493 -1124.2 0)
(27.8998 -1134.48 0)
(-155.434 -1098.1 0)
(-438.29 -1072.3 0)
(-905.585 -1117.4 0)
(-1432.4 -1178.22 0)
(-1624.32 -1051.3 0)
(-1230.37 -600.825 0)
(-693.93 -222.03 0)
(-449.031 -91.2819 0)
(-397.018 -59.9331 0)
(-366.614 -45.3007 0)
(-309.688 -26.4279 0)
(-238.633 -5.96235 0)
(-167.579 12.3565 0)
(-107.603 24.503 0)
(-66.5614 29.6303 0)
(-42.3969 30.4457 0)
(-27.4538 29.575 0)
(-16.685 28.3937 0)
(-5.88483 27.1262 0)
(6.52216 25.7821 0)
(19.2028 24.758 0)
(31.2403 23.6256 0)
(48.9052 22.8192 0)
(70.2975 20.8069 0)
(98.5786 17.8624 0)
(143.487 13.2655 0)
(328.953 15.1495 0)
(1041.91 21.3961 0)
(2200.95 35.1259 0)
(2465.42 14.588 0)
(921.643 -17.0667 0)
(2345.85 -19.9845 0)
(-988.709 -91.1648 0)
(-235.971 37.7607 0)
(-448.018 -4.44289 0)
(-260.754 -479.948 0)
(-125.819 -881.349 0)
(22.8593 -1070.05 0)
(96.1236 -1042.37 0)
(50.2451 -1025.9 0)
(-135.827 -1008.83 0)
(-484.735 -1062.47 0)
(-977.019 -1164.75 0)
(-1359.74 -1168.3 0)
(-1287.39 -876.015 0)
(-841.683 -418.163 0)
(-495.377 -164.909 0)
(-389.649 -86.8446 0)
(-375.754 -63.174 0)
(-347.306 -44.1102 0)
(-288.229 -20.5914 0)
(-218.852 2.19485 0)
(-152.6 21.2575 0)
(-99.2885 33.0283 0)
(-63.6622 37.93 0)
(-42.3825 38.7476 0)
(-28.4615 37.8445 0)
(-18.006 36.4486 0)
(-7.30804 34.9596 0)
(5.299 33.5691 0)
(18.05 32.239 0)
(30.1248 30.7946 0)
(47.4165 29.6896 0)
(67.8927 27.6399 0)
(95.1495 24.9328 0)
(141.972 21.1993 0)
(332.063 23.3371 0)
(1048.48 28.0288 0)
(2196.31 38.3868 0)
(2441.57 20.5719 0)
(902.703 -13.5205 0)
(2374.31 -17.9819 0)
(-960.625 -90.3367 0)
(-359.081 -124.699 0)
(-744.893 -364.009 0)
(-584.183 -819.382 0)
(-280.706 -1000.66 0)
(22.7778 -992.19 0)
(153.042 -905.177 0)
(60.2218 -909.301 0)
(-190.674 -954.168 0)
(-588.549 -1071.85 0)
(-1007.56 -1151.38 0)
(-1154.16 -1018.23 0)
(-901.464 -622.299 0)
(-545.121 -277.016 0)
(-374.659 -130.054 0)
(-350.995 -83.6429 0)
(-355.837 -63.4054 0)
(-325.579 -39.5596 0)
(-265.067 -13.1987 0)
(-198.306 10.3214 0)
(-137.866 29.1217 0)
(-91.537 40.33 0)
(-61.05 45.0099 0)
(-42.4792 45.9138 0)
(-29.6692 45.1187 0)
(-19.4651 43.7627 0)
(-8.65958 42.5312 0)
(3.90046 41.3362 0)
(16.5292 39.7542 0)
(28.7836 38.2364 0)
(45.8652 37.0879 0)
(65.7136 35.3145 0)
(92.3722 33.1892 0)
(141.949 30.8862 0)
(335.534 34.5744 0)
(1056.42 37.2248 0)
(2193.76 44.9514 0)
(2415.4 29.4904 0)
(884.491 -6.45162 0)
(2382.64 -12.726 0)
(-968.926 -151.487 0)
(-499.692 -166.574 0)
(-1117.44 -443.552 0)
(-874.251 -845.572 0)
(-292.343 -927.603 0)
(114.868 -794.533 0)
(175.998 -763.173 0)
(3.03582 -837.483 0)
(-292.47 -936.02 0)
(-674.78 -1048.66 0)
(-925.343 -1023.79 0)
(-849.897 -753.128 0)
(-573.135 -395.137 0)
(-367.339 -186.329 0)
(-309.035 -105.223 0)
(-325.424 -78.3559 0)
(-333.274 -59.4029 0)
(-298.925 -32.078 0)
(-240.162 -3.26052 0)
(-178.071 20.689 0)
(-123.683 38.5439 0)
(-83.9781 48.8431 0)
(-58.2814 53.1336 0)
(-42.2776 54.0295 0)
(-30.5344 53.3791 0)
(-20.4995 52.2521 0)
(-9.64623 51.2613 0)
(2.62297 50.0819 0)
(15.0629 48.3981 0)
(27.5555 46.9109 0)
(44.6008 45.8252 0)
(64.1357 44.3943 0)
(90.8823 42.964 0)
(143.307 42.2574 0)
(338.171 46.6431 0)
(1058.48 48.5593 0)
(2188.86 53.3686 0)
(2392.04 36.5599 0)
(862.022 -1.64445 0)
(2391.44 -11.0449 0)
(-1075.44 -260.261 0)
(-640.525 -248.301 0)
(-1399.2 -435.969 0)
(-1050.63 -683.37 0)
(-231.523 -716.395 0)
(181.228 -613.536 0)
(111.654 -680.484 0)
(-106.34 -789.412 0)
(-394.169 -908.825 0)
(-673.127 -945.283 0)
(-722.781 -785.779 0)
(-548.37 -478.648 0)
(-355.276 -243.42 0)
(-265.75 -130.194 0)
(-270.612 -87.2124 0)
(-306.841 -69.9622 0)
(-311.242 -48.9023 0)
(-271.479 -20.2898 0)
(-214.219 8.34138 0)
(-158.021 32.3065 0)
(-110.736 49.0571 0)
(-77.4779 58.4662 0)
(-56.0522 62.4988 0)
(-42.2426 63.5916 0)
(-31.382 63.3528 0)
(-21.5059 62.6562 0)
(-10.7509 61.8941 0)
(1.14131 60.7287 0)
(13.4736 59.0454 0)
(26.3043 57.7378 0)
(43.44 56.8234 0)
(62.9565 55.8385 0)
(90.313 55.1143 0)
(145.495 55.6396 0)
(341.607 60.2278 0)
(1062.9 62.4426 0)
(2182.2 66.9883 0)
(2362.39 44.6341 0)
(838.617 2.3106 0)
(2384.87 -8.69855 0)
(-1396.06 -316.611 0)
(-669.01 -227.126 0)
(-1536.69 -307.89 0)
(-1144.48 -453.082 0)
(-225.048 -492.996 0)
(149.473 -524.435 0)
(6.51719 -639.079 0)
(-217.001 -737.906 0)
(-442.672 -816.69 0)
(-556.209 -734.979 0)
(-475.676 -505.162 0)
(-327.261 -277.089 0)
(-237.352 -142.98 0)
(-216.811 -81.4703 0)
(-250.994 -64.4063 0)
(-288.507 -53.5709 0)
(-285.408 -28.1461 0)
(-243.763 4.56207 0)
(-189.478 33.1065 0)
(-138.835 56.2344 0)
(-98.4744 71.3292 0)
(-71.0252 79.2332 0)
(-53.3425 82.18 0)
(-41.4547 82.5172 0)
(-31.4357 81.7266 0)
(-21.9051 80.5844 0)
(-11.5036 79.2958 0)
(-0.122183 77.6403 0)
(12.1808 75.7143 0)
(25.4143 74.3286 0)
(42.7706 73.5142 0)
(62.4887 72.899 0)
(90.6906 72.822 0)
(148.234 74.1304 0)
(344.727 79.3721 0)
(1064.99 83.0727 0)
(2171.7 87.0214 0)
(2329.71 56.4399 0)
(810.628 8.05112 0)
(2376.74 0.751504 0)
(-1709.54 -196.242 0)
(-632.122 -105.173 0)
(-1616.94 -150.029 0)
(-1229.01 -285.085 0)
(-300.281 -344.714 0)
(40.4578 -483.33 0)
(-94.0547 -589.92 0)
(-277.492 -646.267 0)
(-391.349 -628.211 0)
(-372.927 -464.949 0)
(-281.541 -270.214 0)
(-199.358 -141.574 0)
(-166.771 -70.0363 0)
(-190.033 -42.0443 0)
(-243.727 -36.9698 0)
(-271.899 -23.6366 0)
(-255.223 6.17009 0)
(-212.453 39.6743 0)
(-164.425 68.3277 0)
(-121.189 89.2212 0)
(-88.5736 101.876 0)
(-67.0217 107.942 0)
(-52.8877 109.688 0)
(-42.6795 109.044 0)
(-33.2446 107.244 0)
(-23.8483 105.045 0)
(-13.5879 102.803 0)
(-2.31 100.296 0)
(10.2822 97.8302 0)
(24.1842 96.5253 0)
(42.0624 95.77 0)
(62.2895 95.5894 0)
(91.4997 96.2887 0)
(151.807 98.4988 0)
(350.224 104.671 0)
(1070.27 110.104 0)
(2156.53 108.037 0)
(2286.29 68.252 0)
(784.954 12.598 0)
(2339.98 13.7426 0)
(-1803.5 -36.4691 0)
(-624.478 -1.14615 0)
(-1710.06 -40.0918 0)
(-1332.09 -200.987 0)
(-416.085 -287.179 0)
(-86.8163 -446.372 0)
(-150.494 -513.287 0)
(-253.9 -492.566 0)
(-267.947 -383.309 0)
(-211.23 -234.235 0)
(-164.061 -120.576 0)
(-134.362 -48.7729 0)
(-141.441 -11.6043 0)
(-184.947 -3.58306 0)
(-233.256 2.76555 0)
(-246.936 23.1997 0)
(-224.399 53.8613 0)
(-183.866 85.2139 0)
(-141.733 112.257 0)
(-106.507 130.722 0)
(-80.434 141.142 0)
(-63.4973 145.221 0)
(-52.2807 145.331 0)
(-43.8101 143.387 0)
(-35.2891 140.512 0)
(-26.1839 137.439 0)
(-16.0803 134.581 0)
(-4.91458 131.996 0)
(8.54714 130.067 0)
(23.429 129.922 0)
(41.8688 130.381 0)
(62.9886 131.593 0)
(93.4942 133.863 0)
(156.312 137.99 0)
(355.91 146.267 0)
(1068.24 155.175 0)
(2131.37 147.569 0)
(2237.74 98.1122 0)
(758.101 33.564 0)
(2296.67 36.7743 0)
(-1748.95 24.7456 0)
(-635.613 21.9824 0)
(-1809.51 -2.79945 0)
(-1467.11 -153.909 0)
(-536.743 -263.441 0)
(-177.428 -344.195 0)
(-138.568 -331.766 0)
(-152.241 -251.241 0)
(-142.412 -135.541 0)
(-119.747 -51.7044 0)
(-102.824 4.48004 0)
(-94.3489 41.213 0)
(-123.224 56.3467 0)
(-176.186 55.0594 0)
(-217.918 57.7014 0)
(-222.661 74.8093 0)
(-195.464 100.42 0)
(-156.181 127.155 0)
(-120.573 148.604 0)
(-93.354 163.475 0)
(-74.6017 172.958 0)
(-62.9853 178.704 0)
(-54.6551 182.122 0)
(-47.3228 184.245 0)
(-38.9761 185.809 0)
(-29.5639 187.818 0)
(-18.8324 189.45 0)
(-6.65931 192.313 0)
(8.28358 195.049 0)
(24.4867 199.353 0)
(43.6725 203.316 0)
(65.6446 208.481 0)
(97.6638 214.21 0)
(163.76 222.751 0)
(366.784 236.377 0)
(1071.52 251.685 0)
(2101.55 237.942 0)
(2176.43 157.933 0)
(725.847 62.6975 0)
(2194.99 56.6347 0)
(-1697.11 84.0154 0)
(-651.022 100.243 0)
(-1879.55 81.8232 0)
(-1583.25 -33.9028 0)
(-599.452 -121.387 0)
(-152.656 -97.3798 0)
(-60.9196 -31.5297 0)
(-64.8105 33.4811 0)
(-75.667 90.9468 0)
(-76.3008 134.642 0)
(-74.5228 169.258 0)
(-84.3817 183.252 0)
(-128.098 178.95 0)
(-183.642 174.176 0)
(-214.224 184.499 0)
(-205.771 210.883 0)
(-173.957 242.865 0)
(-137.433 271.648 0)
(-106.734 293.95 0)
(-83.0386 310.981 0)
(-65.7583 325.116 0)
(-54.6674 338.144 0)
(-46.9411 350.636 0)
(-40.2563 362.484 0)
(-31.8465 373.516 0)
(-22.6753 384.241 0)
(-11.7492 393.205 0)
(0.480435 401.547 0)
(15.3312 408.515 0)
(31.3956 416.731 0)
(50.6649 423.822 0)
(73.4865 433.581 0)
(107.246 442.759 0)
(177.673 456.494 0)
(383.791 474.103 0)
(1069.75 487.537 0)
(2041.03 436.068 0)
(2068.87 288.446 0)
(660.486 125.475 0)
(2099.96 67.402 0)
(-1475.43 77.4439 0)
(-637.725 175.321 0)
(-1938.78 313.283 0)
(-1662.93 340.895 0)
(-597.911 313.381 0)
(-90.8388 358.627 0)
(-12.4658 412.04 0)
(-34.2178 448.076 0)
(-44.9296 481.2 0)
(-44.2841 520.33 0)
(-55.9815 554.58 0)
(-85.0087 577.123 0)
(-131.97 592.917 0)
(-170.839 620.35 0)
(-182.546 668.542 0)
(-166.418 725.634 0)
(-136.91 782.315 0)
(-106.954 832.714 0)
(-82.6696 875.642 0)
(-63.3218 913.212 0)
(-48.4265 950.604 0)
(-38.3935 989.132 0)
(-31.2005 1026.16 0)
(-25.2746 1060.07 0)
(-18.0102 1090.21 0)
(-10.5903 1119.36 0)
(-2.15518 1139.71 0)
(8.09318 1160.14 0)
(22.9148 1174.2 0)
(39.2374 1190.72 0)
(59.9107 1203.22 0)
(83.8932 1217.39 0)
(119.743 1221.35 0)
(193.964 1229.38 0)
(396.699 1226.8 0)
(1034.87 1192.8 0)
(1909.69 999.62 0)
(1877.13 614.303 0)
(512.841 207.396 0)
(1941.06 -5.09049 0)
(-1419.58 -123.049 0)
(-423.758 106.988 0)
(-1720 589.053 0)
(-1583.16 1015.11 0)
(-582.365 1132.41 0)
(-57.5843 1196.7 0)
(25.2773 1253.11 0)
(1.83392 1318.52 0)
(-6.04037 1389.77 0)
(-5.58898 1458.24 0)
(-19.7949 1517.38 0)
(-47.4387 1568.25 0)
(-86.4437 1618.55 0)
(-110.766 1680.15 0)
(-112.768 1753.83 0)
(-96.1348 1833.22 0)
(-70.7715 1908.58 0)
(-47.5009 1975.32 0)
(-29.1629 2032.6 0)
(-10.8018 2080.77 0)
(7.40087 2122.03 0)
(18.1451 2155.99 0)
(21.4182 2182.48 0)
(21.4613 2203.53 0)
(25.2835 2219.51 0)
(25.0212 2234.3 0)
(27.5504 2242.44 0)
(33.7227 2251.69 0)
(44.8045 2255.56 0)
(59.354 2257.46 0)
(76.3597 2253.78 0)
(90.9636 2244.4 0)
(118.798 2224.07 0)
(182.917 2198.06 0)
(348.541 2142.23 0)
(850.83 2022.9 0)
(1483.57 1609.33 0)
(1305.45 924.105 0)
(63.6165 264.203 0)
(1918.59 -157.411 0)
(-1983.44 5634.96 0)
(48.483 -579.789 0)
(-1063.68 550.491 0)
(-1139.33 1373.29 0)
(-422.924 1683.03 0)
(25.4702 1784.91 0)
(104.923 1839.54 0)
(97.4734 1906.11 0)
(89.7068 1987.63 0)
(78.6839 2054.9 0)
(50.0333 2108.7 0)
(12.4895 2148.16 0)
(-24.1377 2185.66 0)
(-40.4858 2232.75 0)
(-35.0443 2284.74 0)
(-17.2897 2340.12 0)
(0.0249392 2389.09 0)
(12.5519 2427.27 0)
(18.9417 2454.94 0)
(22.8584 2473.37 0)
(24.0603 2480.15 0)
(19.8581 2475.14 0)
(14.6097 2463.5 0)
(10.4117 2449.32 0)
(11.6463 2432.23 0)
(11.5049 2412.29 0)
(14.5972 2392.71 0)
(20.733 2369.23 0)
(28.4758 2346.8 0)
(37.5244 2316.64 0)
(47.3225 2282.69 0)
(55.261 2238.26 0)
(75.0958 2191.49 0)
(115.1 2132.92 0)
(227.908 2039.85 0)
(521.355 1869.6 0)
(850.853 1337.89 0)
(580.914 597.07 0)
(-529.348 -523.481 0)
(2377.13 4047.06 0)
(-2871.2 318034 0)
(-5323.34 3060.08 0)
(162.053 -670.968 0)
(-491.795 80.4658 0)
(-185.711 495.095 0)
(93.2315 579.476 0)
(142.071 606.507 0)
(144.533 624.764 0)
(137.344 653.018 0)
(111.083 665.867 0)
(70.0751 670.844 0)
(26.7219 678.071 0)
(-4.93022 695.233 0)
(-15.284 723.002 0)
(-9.30503 753.365 0)
(4.41427 778.349 0)
(13.2107 795.446 0)
(15.9567 806.639 0)
(15.2576 812.596 0)
(13.4884 815.129 0)
(9.10564 818.349 0)
(2.09952 823.861 0)
(-3.4577 828.849 0)
(-8.6705 830.74 0)
(-10.4057 830.644 0)
(-13.0561 829.208 0)
(-13.9396 822.913 0)
(-10.5195 816.599 0)
(-5.87779 807.392 0)
(-2.42979 795 0)
(0.830281 778.238 0)
(3.0881 759.563 0)
(17.2941 736.623 0)
(36.7889 708.478 0)
(94.7986 655.041 0)
(174.399 521.351 0)
(257.307 103.15 0)
(-488.235 -484.112 0)
(3388.15 2886.89 0)
(4645.15 254351 0)
(295143 -308601 0)
(-307067 6307.91 0)
(-3934.95 3394 0)
(-15.6716 3238.45 0)
(57.9404 3450 0)
(132.831 3354.47 0)
(148.565 3155.14 0)
(142.293 2975.01 0)
(129.315 2792.96 0)
(95.8616 2648.02 0)
(61.7935 2560.51 0)
(35.992 2514.5 0)
(19.1598 2513.5 0)
(15.5319 2523.07 0)
(18.2902 2530.53 0)
(23.2609 2522.39 0)
(27.2855 2502.69 0)
(29.0784 2471.42 0)
(27.1234 2434.56 0)
(28.4023 2401.93 0)
(32.4751 2375.06 0)
(29.9766 2359.66 0)
(21.2381 2356.23 0)
(12.1413 2358.78 0)
(10.1704 2367.94 0)
(4.05528 2369.65 0)
(2.44652 2383.45 0)
(5.77613 2381.91 0)
(7.66213 2383.09 0)
(9.43035 2366.59 0)
(13.174 2352.29 0)
(15.1595 2316.93 0)
(25.8684 2287.71 0)
(36.4844 2213.05 0)
(47.5857 2151.99 0)
(-10.4673 2012.12 0)
(-118.048 1999.49 0)
(3263.43 2355.56 0)
(245039 5004.46 0)
(-233529 -242970 0)
(295143 308601 0)
(-307067 -6307.91 0)
(-3934.95 -3394 0)
(-15.6716 -3238.45 0)
(57.9404 -3450 0)
(132.831 -3354.47 0)
(148.565 -3155.14 0)
(142.293 -2975.01 0)
(129.315 -2792.96 0)
(95.8616 -2648.02 0)
(61.7935 -2560.51 0)
(35.992 -2514.5 0)
(19.1598 -2513.5 0)
(15.5319 -2523.07 0)
(18.2902 -2530.53 0)
(23.2609 -2522.39 0)
(27.2855 -2502.69 0)
(29.0784 -2471.42 0)
(27.1234 -2434.56 0)
(28.4023 -2401.93 0)
(32.4751 -2375.06 0)
(29.9766 -2359.66 0)
(21.2381 -2356.23 0)
(12.1413 -2358.78 0)
(10.1704 -2367.94 0)
(4.05528 -2369.65 0)
(2.44652 -2383.45 0)
(5.77613 -2381.91 0)
(7.66213 -2383.09 0)
(9.43035 -2366.59 0)
(13.174 -2352.29 0)
(15.1595 -2316.93 0)
(25.8684 -2287.71 0)
(36.4844 -2213.05 0)
(47.5857 -2151.99 0)
(-10.4673 -2012.12 0)
(-118.048 -1999.49 0)
(3263.43 -2355.56 0)
(245039 -5004.46 0)
(-233529 242970 0)
(-2871.2 -318034 0)
(-5323.34 -3060.08 0)
(162.053 670.968 0)
(-491.795 -80.4658 0)
(-185.711 -495.095 0)
(93.2315 -579.476 0)
(142.071 -606.507 0)
(144.533 -624.764 0)
(137.344 -653.018 0)
(111.083 -665.867 0)
(70.0751 -670.844 0)
(26.7219 -678.071 0)
(-4.93022 -695.233 0)
(-15.284 -723.002 0)
(-9.30503 -753.365 0)
(4.41427 -778.349 0)
(13.2107 -795.446 0)
(15.9567 -806.639 0)
(15.2576 -812.596 0)
(13.4884 -815.129 0)
(9.10564 -818.349 0)
(2.09952 -823.861 0)
(-3.4577 -828.849 0)
(-8.6705 -830.74 0)
(-10.4057 -830.644 0)
(-13.0561 -829.208 0)
(-13.9396 -822.913 0)
(-10.5195 -816.599 0)
(-5.87779 -807.392 0)
(-2.42979 -795 0)
(0.830281 -778.238 0)
(3.0881 -759.563 0)
(17.2941 -736.623 0)
(36.7889 -708.478 0)
(94.7986 -655.041 0)
(174.399 -521.351 0)
(257.307 -103.15 0)
(-488.235 484.112 0)
(3388.15 -2886.89 0)
(4645.15 -254351 0)
(-1983.44 -5634.96 0)
(48.483 579.789 0)
(-1063.68 -550.491 0)
(-1139.33 -1373.29 0)
(-422.924 -1683.03 0)
(25.4702 -1784.91 0)
(104.923 -1839.54 0)
(97.4734 -1906.11 0)
(89.7068 -1987.63 0)
(78.6839 -2054.9 0)
(50.0333 -2108.7 0)
(12.4895 -2148.16 0)
(-24.1377 -2185.66 0)
(-40.4858 -2232.75 0)
(-35.0443 -2284.74 0)
(-17.2897 -2340.12 0)
(0.0249393 -2389.09 0)
(12.5519 -2427.27 0)
(18.9417 -2454.94 0)
(22.8584 -2473.37 0)
(24.0603 -2480.15 0)
(19.8581 -2475.14 0)
(14.6097 -2463.5 0)
(10.4117 -2449.32 0)
(11.6463 -2432.23 0)
(11.5049 -2412.29 0)
(14.5972 -2392.71 0)
(20.733 -2369.23 0)
(28.4758 -2346.8 0)
(37.5244 -2316.64 0)
(47.3225 -2282.69 0)
(55.261 -2238.26 0)
(75.0958 -2191.49 0)
(115.1 -2132.92 0)
(227.908 -2039.85 0)
(521.355 -1869.6 0)
(850.853 -1337.89 0)
(580.914 -597.07 0)
(-529.348 523.481 0)
(2377.13 -4047.06 0)
(-1419.58 123.049 0)
(-423.758 -106.988 0)
(-1720 -589.053 0)
(-1583.16 -1015.11 0)
(-582.365 -1132.41 0)
(-57.5843 -1196.7 0)
(25.2773 -1253.11 0)
(1.83392 -1318.52 0)
(-6.04037 -1389.77 0)
(-5.58898 -1458.24 0)
(-19.7949 -1517.38 0)
(-47.4387 -1568.25 0)
(-86.4437 -1618.55 0)
(-110.766 -1680.15 0)
(-112.768 -1753.83 0)
(-96.1348 -1833.22 0)
(-70.7715 -1908.58 0)
(-47.5009 -1975.32 0)
(-29.1629 -2032.6 0)
(-10.8018 -2080.77 0)
(7.40087 -2122.03 0)
(18.1451 -2155.99 0)
(21.4182 -2182.48 0)
(21.4613 -2203.53 0)
(25.2835 -2219.51 0)
(25.0212 -2234.3 0)
(27.5504 -2242.44 0)
(33.7227 -2251.69 0)
(44.8045 -2255.56 0)
(59.354 -2257.46 0)
(76.3597 -2253.78 0)
(90.9636 -2244.4 0)
(118.798 -2224.07 0)
(182.917 -2198.06 0)
(348.541 -2142.23 0)
(850.83 -2022.9 0)
(1483.57 -1609.33 0)
(1305.45 -924.105 0)
(63.6165 -264.203 0)
(1918.59 157.411 0)
(-1475.43 -77.4439 0)
(-637.725 -175.321 0)
(-1938.78 -313.283 0)
(-1662.93 -340.895 0)
(-597.911 -313.381 0)
(-90.8388 -358.627 0)
(-12.4658 -412.04 0)
(-34.2178 -448.076 0)
(-44.9296 -481.2 0)
(-44.2841 -520.33 0)
(-55.9815 -554.58 0)
(-85.0087 -577.123 0)
(-131.97 -592.917 0)
(-170.839 -620.35 0)
(-182.546 -668.542 0)
(-166.418 -725.634 0)
(-136.91 -782.315 0)
(-106.954 -832.714 0)
(-82.6696 -875.642 0)
(-63.3218 -913.212 0)
(-48.4265 -950.604 0)
(-38.3935 -989.132 0)
(-31.2005 -1026.16 0)
(-25.2746 -1060.07 0)
(-18.0102 -1090.21 0)
(-10.5903 -1119.36 0)
(-2.15518 -1139.71 0)
(8.09318 -1160.14 0)
(22.9148 -1174.2 0)
(39.2374 -1190.72 0)
(59.9107 -1203.22 0)
(83.8932 -1217.39 0)
(119.743 -1221.35 0)
(193.964 -1229.38 0)
(396.699 -1226.8 0)
(1034.87 -1192.8 0)
(1909.69 -999.62 0)
(1877.13 -614.303 0)
(512.841 -207.396 0)
(1941.06 5.09049 0)
(-1697.11 -84.0154 0)
(-651.022 -100.243 0)
(-1879.55 -81.8232 0)
(-1583.25 33.9028 0)
(-599.452 121.387 0)
(-152.656 97.3798 0)
(-60.9196 31.5297 0)
(-64.8105 -33.4811 0)
(-75.667 -90.9468 0)
(-76.3008 -134.642 0)
(-74.5228 -169.258 0)
(-84.3817 -183.252 0)
(-128.098 -178.95 0)
(-183.642 -174.176 0)
(-214.224 -184.499 0)
(-205.771 -210.883 0)
(-173.957 -242.865 0)
(-137.433 -271.648 0)
(-106.734 -293.95 0)
(-83.0386 -310.981 0)
(-65.7583 -325.116 0)
(-54.6674 -338.144 0)
(-46.9411 -350.636 0)
(-40.2563 -362.484 0)
(-31.8465 -373.516 0)
(-22.6753 -384.241 0)
(-11.7492 -393.205 0)
(0.480435 -401.547 0)
(15.3312 -408.515 0)
(31.3956 -416.731 0)
(50.6649 -423.822 0)
(73.4865 -433.581 0)
(107.246 -442.759 0)
(177.673 -456.494 0)
(383.791 -474.103 0)
(1069.75 -487.537 0)
(2041.03 -436.068 0)
(2068.87 -288.446 0)
(660.486 -125.475 0)
(2099.96 -67.402 0)
(-1748.95 -24.7456 0)
(-635.613 -21.9824 0)
(-1809.51 2.79945 0)
(-1467.11 153.909 0)
(-536.743 263.441 0)
(-177.428 344.195 0)
(-138.568 331.766 0)
(-152.241 251.241 0)
(-142.412 135.541 0)
(-119.747 51.7044 0)
(-102.824 -4.48004 0)
(-94.3489 -41.213 0)
(-123.224 -56.3467 0)
(-176.186 -55.0594 0)
(-217.918 -57.7014 0)
(-222.661 -74.8093 0)
(-195.464 -100.42 0)
(-156.181 -127.155 0)
(-120.573 -148.604 0)
(-93.354 -163.475 0)
(-74.6017 -172.958 0)
(-62.9853 -178.704 0)
(-54.6551 -182.122 0)
(-47.3228 -184.245 0)
(-38.9761 -185.809 0)
(-29.5639 -187.818 0)
(-18.8324 -189.45 0)
(-6.65931 -192.313 0)