/*--------------------------------*- C++ -*----------------------------------*\
| =========                 |                                                 |
| \\      /  F ield         | OpenFOAM: The Open Source CFD Toolbox           |
|  \\    /   O peration     | Version:  v1912                                 |
|   \\  /    A nd           | Website:  www.openfoam.com                      |
|    \\/     M anipulation  |                                                 |
\*---------------------------------------------------------------------------*/
FoamFile
{
    version     2.0;
    format      ascii;
    class       volVectorField;
    location    "6.74";
    object      grad(T);
}
// * * * * * * * * * * * * * * * * * * * * * * * * * * * * * * * * * * * * * //

dimensions      [0 -1 0 1 0 0 0];


internalField   nonuniform List<vector> 
1900
(
(0.792744 -3.65756e-06 0)
(-1.53311 -7.84846e-06 0)
(-0.0560718 -5.49094e-07 0)
(0.0881851 2.37195e-06 0)
(0.12228 3.42874e-05 0)
(0.107836 -1.21775e-05 0)
(0.0601456 -8.49213e-05 0)
(0.0186551 -3.1597e-05 0)
(-0.00143293 0.00134922 0)
(0.0168842 -9.95372e-05 0)
(0.792732 -6.10805e-06 0)
(-1.5331 -8.48617e-06 0)
(-0.0560615 5.68063e-06 0)
(0.0882199 1.41316e-05 0)
(0.122265 7.57561e-05 0)
(0.107717 2.31435e-05 0)
(0.0601261 -0.000170385 0)
(0.0200893 -0.000504749 0)
(-0.00150087 -3.05995e-05 0)
(-0.0117104 -0.00128077 0)
(0.792729 -4.77049e-14 0)
(-1.5331 -4.00071e-13 0)
(-0.0560492 -5.65954e-13 0)
(0.0882551 -3.24176e-13 0)
(0.122289 -9.21572e-14 0)
(0.10759 1.79978e-13 0)
(0.0596177 3.25261e-13 0)
(0.0187949 -1.21431e-13 0)
(-0.00220895 -5.3668e-13 0)
(-0.0148104 -6.90637e-13 0)
(0.792732 6.10805e-06 0)
(-1.5331 8.48616e-06 0)
(-0.0560615 -5.68063e-06 0)
(0.0882199 -1.41316e-05 0)
(0.122265 -7.57561e-05 0)
(0.107717 -2.31435e-05 0)
(0.0601261 0.000170385 0)
(0.0200893 0.000504749 0)
(-0.00150087 3.05995e-05 0)
(-0.0117104 0.00128077 0)
(0.792744 3.65756e-06 0)
(-1.53311 7.84846e-06 0)
(-0.0560718 5.49093e-07 0)
(0.0881851 -2.37195e-06 0)
(0.12228 -3.42874e-05 0)
(0.107836 1.21775e-05 0)
(0.0601456 8.49213e-05 0)
(0.0186551 3.1597e-05 0)
(-0.00143293 -0.00134922 0)
(0.0168842 9.95372e-05 0)
(-0.00385343 -0.0234567 9.47633e-16)
(-0.00807516 -0.0197465 -1.13758e-15)
(0.103854 -0.030603 -1.44491e-15)
(0.394576 -0.0581607 0)
(-0.513858 -0.320131 -6.51527e-15)
(-0.0216315 -0.0275778 9.43394e-16)
(-0.00100833 -0.0238731 1.13758e-15)
(0.0879007 -0.0390357 1.44491e-15)
(0.287469 -0.0629498 0)
(-0.448704 -0.353721 0)
(-0.0329171 -8.4065e-13 0)
(-0.0101715 -1.0105e-12 0)
(0.0777864 -1.04505e-12 0)
(0.259609 -7.72083e-13 0)
(-0.577768 -3.09772e-13 0)
(-0.0216315 0.0275778 9.43394e-16)
(-0.00100833 0.0238731 1.13758e-15)
(0.0879007 0.0390357 1.44491e-15)
(0.287469 0.0629498 0)
(-0.448704 0.353721 0)
(-0.00385343 0.0234567 -2.83442e-15)
(-0.00807516 0.0197465 -1.13758e-15)
(0.103854 0.030603 -1.44491e-15)
(0.394576 0.0581607 -3.98311e-15)
(-0.513858 0.320131 6.51527e-15)
(-1.88479 0.453469 2.20471e-15)
(-0.94756 0.31799 -1.59698e-15)
(-0.595811 0.209821 0)
(-0.47641 0.201002 1.02442e-15)
(-0.322216 0.108865 -4.23779e-16)
(-1.68103 0.451726 -1.10918e-15)
(-0.99105 0.208572 8.03276e-16)
(-0.612853 0.104121 0)
(-0.503363 0.13033 -6.45029e-16)
(-0.366772 0.00295633 1.06787e-16)
(-1.7337 -2.08079e-13 0)
(-1.04808 1.39e-13 0)
(-0.62374 -5.58163e-13 0)
(-0.528856 9.60192e-13 2.59582e-16)
(-0.363796 -6.05505e-13 -2.13573e-16)
(-1.68103 -0.451726 -1.10918e-15)
(-0.99105 -0.208572 8.03276e-16)
(-0.612853 -0.104121 0)
(-0.503363 -0.13033 -6.45029e-16)
(-0.366772 -0.00295633 1.06787e-16)
(-1.88479 -0.453469 1.10918e-15)
(-0.94756 -0.31799 -9.57681e-18)
(-0.595811 -0.209821 0)
(-0.47641 -0.201002 6.05352e-18)
(-0.322216 -0.108865 4.23779e-16)
(-0.190083 0.197322 0)
(-0.176223 0.148098 0)
(-0.131885 0.0520816 0)
(0.000176796 -0.0115024 0)
(0.410302 -0.0403383 0)
(0.595981 0.16114 0)
(0.177281 0.144803 0)
(-0.132552 0.102169 0)
(-0.164482 0.0629978 0)
(-0.144409 0.0527231 0)
(-0.125739 0.0439025 0)
(-0.128543 0.030174 0)
(-0.174093 0.0217925 0)
(-0.223451 0.0174239 0)
(-0.205525 0.0115228 0)
(-0.123331 0.00425852 0)
(-0.0619807 0.00095099 0)
(-0.0433278 0.000606424 0)
(-0.0386022 0.00106217 0)
(-0.0342923 0.000769296 0)
(-0.0263638 0.000180688 0)
(-0.0165955 -0.000164029 0)
(-0.00900853 -0.000237441 0)
(-0.00481613 -0.000214362 0)
(-0.00275281 -0.00017876 0)
(-0.00159058 -0.000152777 0)
(-0.000387947 -0.000145024 0)
(0.00110116 -0.000141223 0)
(0.00257444 -0.000128618 0)
(0.00385909 -0.000113427 0)
(0.00626478 -0.00012003 0)
(0.00932224 -3.71497e-05 0)
(0.0133615 -2.97195e-05 0)
(0.0170382 0.000202752 0)
(0.0343339 -4.02881e-06 0)
(0.107933 -0.000239212 0)
(0.235049 -0.000677225 0)
(0.309529 0.00150246 0)
(0.188679 0.00185493 0)
(0.0316726 0.000520808 0)
(-0.184528 0.048389 0)
(-0.162673 0.171952 0)
(-0.164184 0.166185 0)
(-0.0254066 0.0351967 0)
(0.43509 0.0202017 0)
(0.597006 0.107549 0)
(0.147208 0.0565588 0)
(-0.141637 0.0111319 0)
(-0.160673 0.00928734 0)
(-0.136454 0.0242913 0)
(-0.124497 0.0200015 0)
(-0.132706 0.0120072 0)
(-0.17749 0.0088323 0)
(-0.225681 0.00861223 0)
(-0.207183 0.0056126 0)
(-0.124268 0.0018473 0)
(-0.0622751 0.000312658 0)
(-0.04329 0.000235263 0)
(-0.0385911 0.000507974 0)
(-0.0343806 0.000296391 0)
(-0.0264414 7.97712e-05 0)
(-0.0166331 -7.96368e-05 0)
(-0.00901219 -0.000107828 0)
(-0.00481047 -9.54997e-05 0)
(-0.00274708 -8.02835e-05 0)
(-0.00158753 -7.01232e-05 0)
(-0.000387122 -6.85321e-05 0)
(0.00110237 -6.94108e-05 0)
(0.00257682 -6.57985e-05 0)
(0.00385928 -6.1532e-05 0)
(0.00627065 -6.79768e-05 0)
(0.00932834 -3.84931e-05 0)
(0.0133855 -4.14216e-05 0)
(0.0170387 7.26611e-05 0)
(0.0342892 -4.81621e-05 0)
(0.107847 -0.00012183 0)
(0.235236 -0.000467695 0)
(0.309799 0.000715295 0)
(0.18858 0.000810471 0)
(0.0315555 0.000676106 0)
(-0.137998 -3.27429e-12 0)
(-0.141955 -2.44635e-12 0)
(-0.171668 -3.56604e-12 0)
(-0.0422909 2.95692e-13 0)
(0.43135 6.03014e-12 0)
(0.606558 -4.67409e-11 0)
(0.149233 6.77528e-12 0)
(-0.146303 2.77024e-11 0)
(-0.160654 -2.57054e-12 0)
(-0.141292 -2.58494e-11 0)
(-0.129312 -6.94481e-12 0)
(-0.131792 -6.18981e-13 0)
(-0.17508 -1.00338e-12 0)
(-0.224387 -3.5621e-12 0)
(-0.207493 -6.96058e-12 0)
(-0.124873 -5.1884e-12 0)
(-0.0624497 1.88257e-12 0)
(-0.043271 -7.21487e-13 0)
(-0.0385844 -1.54154e-12 0)
(-0.0344169 -1.18277e-12 0)
(-0.0264732 -2.81893e-13 0)
(-0.01665 -5.51957e-14 0)
(-0.00901314 -6.09124e-13 0)
(-0.00480812 -6.68263e-13 0)
(-0.00274542 -6.26866e-13 0)
(-0.00158716 -7.64855e-13 0)
(-0.00038774 -6.97832e-13 0)
(0.00110196 -1.10391e-13 0)
(0.00257673 -2.1684e-13 0)
(0.00385845 -1.06646e-12 0)
(0.00627149 -2.2098e-12 0)
(0.00932997 -3.77894e-12 0)
(0.0133938 -3.28612e-12 0)
(0.0170362 -3.82033e-12 0)
(0.0342773 -3.14813e-12 0)
(0.107811 -4.29935e-12 0)
(0.235292 8.2222e-12 0)
(0.3099 7.85751e-12 0)
(0.188667 5.57083e-12 0)
(0.0316335 2.31034e-12 0)
(-0.184528 -0.048389 0)
(-0.162673 -0.171952 0)
(-0.164184 -0.166185 0)
(-0.0254066 -0.0351967 0)
(0.43509 -0.0202017 0)
(0.597006 -0.107549 0)
(0.147208 -0.0565588 0)
(-0.141637 -0.0111319 0)
(-0.160673 -0.00928734 0)
(-0.136454 -0.0242913 0)
(-0.124497 -0.0200015 0)
(-0.132706 -0.0120072 0)
(-0.17749 -0.0088323 0)
(-0.225681 -0.00861223 0)
(-0.207183 -0.0056126 0)
(-0.124268 -0.0018473 0)
(-0.0622751 -0.000312658 0)
(-0.04329 -0.000235263 0)
(-0.0385911 -0.000507974 0)
(-0.0343806 -0.000296391 0)
(-0.0264414 -7.97712e-05 0)
(-0.0166331 7.96368e-05 0)
(-0.00901219 0.000107828 0)
(-0.00481047 9.54997e-05 0)
(-0.00274708 8.02835e-05 0)
(-0.00158753 7.01232e-05 0)
(-0.000387122 6.85321e-05 0)
(0.00110237 6.94108e-05 0)
(0.00257682 6.57985e-05 0)
(0.00385928 6.1532e-05 0)
(0.00627065 6.79768e-05 0)
(0.00932834 3.84931e-05 0)
(0.0133855 4.14216e-05 0)
(0.0170387 -7.26611e-05 0)
(0.0342892 4.81621e-05 0)
(0.107847 0.00012183 0)
(0.235236 0.000467695 0)
(0.309799 -0.000715295 0)
(0.18858 -0.000810471 0)
(0.0315555 -0.000676106 0)
(-0.190083 -0.197322 0)
(-0.176223 -0.148098 0)
(-0.131885 -0.0520816 0)
(0.000176796 0.0115024 0)
(0.410302 0.0403383 0)
(0.595981 -0.16114 0)
(0.177281 -0.144803 0)
(-0.132552 -0.102169 0)
(-0.164482 -0.0629978 0)
(-0.144409 -0.0527231 0)
(-0.125739 -0.0439025 0)
(-0.128543 -0.030174 0)
(-0.174093 -0.0217925 0)
(-0.223451 -0.0174239 0)
(-0.205525 -0.0115228 0)
(-0.123331 -0.00425852 0)
(-0.0619807 -0.00095099 0)
(-0.0433278 -0.000606424 0)
(-0.0386022 -0.00106217 0)
(-0.0342923 -0.000769296 0)
(-0.0263638 -0.000180688 0)
(-0.0165955 0.000164029 0)
(-0.00900853 0.000237441 0)
(-0.00481613 0.000214362 0)
(-0.00275281 0.00017876 0)
(-0.00159058 0.000152777 0)
(-0.000387947 0.000145024 0)
(0.00110116 0.000141223 0)
(0.00257444 0.000128618 0)
(0.00385909 0.000113427 0)
(0.00626478 0.00012003 0)
(0.00932224 3.71497e-05 0)
(0.0133615 2.97195e-05 0)
(0.0170382 -0.000202752 0)
(0.0343339 4.0288e-06 0)
(0.107933 0.000239212 0)
(0.235049 0.000677225 0)
(0.309529 -0.00150246 0)
(0.188679 -0.00185493 0)
(0.0316726 -0.000520808 0)
(-0.00899339 -0.233854 0)
(-0.0559002 -0.108217 0)
(-0.101417 0.0361789 0)
(0.002985 0.112043 0)
(0.355457 0.173829 0)
(0.482057 -0.0544954 0)
(0.149426 -0.209026 0)
(-0.100827 -0.182337 0)
(-0.125254 -0.128469 0)
(-0.115279 -0.0909656 0)
(-0.108917 -0.0539908 0)
(-0.123651 -0.0383826 0)
(-0.17342 -0.0332893 0)
(-0.221818 -0.0308075 0)
(-0.200842 -0.0221396 0)
(-0.11872 -0.00795527 0)
(-0.0603246 -0.00192637 0)
(-0.0433161 -0.00124565 0)
(-0.0386806 -0.0017617 0)
(-0.0339298 -0.00137589 0)
(-0.0259457 -0.000378919 0)
(-0.0164143 0.000255149 0)
(-0.00898486 0.000428613 0)
(-0.00484074 0.000399932 0)
(-0.00277909 0.000337679 0)
(-0.00160515 0.000291854 0)
(-0.000393416 0.00027756 0)
(0.00109347 0.000270178 0)
(0.00256213 0.000246886 0)
(0.00385412 0.000224919 0)
(0.00622959 0.000227352 0)
(0.00927873 0.000100309 0)
(0.0132628 2.64392e-05 0)
(0.0170232 -0.000291152 0)
(0.0345147 -4.3551e-05 0)
(0.108171 0.000400428 0)
(0.23436 0.000973179 0)
(0.308524 -0.00146433 0)
(0.189081 -0.00224853 0)
(0.0322571 -0.000844204 0)
(0.00369343 -0.0961133 0)
(0.01947 -0.0728477 0)
(0.0640281 0.02241 0)
(0.131315 0.152035 0)
(0.279229 0.217598 0)
(0.288138 0.0200184 0)
(0.0690248 -0.164929 0)
(-0.0719358 -0.165342 0)
(-0.0974678 -0.13745 0)
(-0.0882585 -0.102965 0)
(-0.084088 -0.0697534 0)
(-0.111218 -0.0571871 0)
(-0.167154 -0.0539024 0)
(-0.213582 -0.0510848 0)
(-0.186015 -0.0337451 0)
(-0.106325 -0.0110159 0)
(-0.0564031 -0.00294536 0)
(-0.0431754 -0.00216742 0)
(-0.0386856 -0.00245083 0)
(-0.0331542 -0.00180058 0)
(-0.0250164 -0.000514642 0)
(-0.0159144 0.000424158 0)
(-0.0088817 0.00075321 0)
(-0.00489056 0.000747952 0)
(-0.00284286 0.000663704 0)
(-0.0016407 0.000594587 0)
(-0.000405902 0.000568869 0)
(0.00107573 0.000550387 0)
(0.00253743 0.000512252 0)
(0.00384293 0.000481381 0)
(0.00616358 0.000481669 0)
(0.00915197 0.000321195 0)
(0.0130372 0.000155949 0)
(0.0169787 -0.000256888 0)
(0.0349034 1.85004e-05 0)
(0.108785 0.000661243 0)
(0.233621 0.00156647 0)
(0.306963 -0.000857037 0)
(0.18906 -0.00203397 0)
(0.0327124 -0.00099609 0)
(0.0134262 0.0608247 0)
(0.0583132 0.0848123 0)
(0.115287 0.131963 0)
(0.191076 0.173455 0)
(0.228241 0.167451 0)
(0.113439 -0.0296261 0)
(-0.0291936 -0.156886 0)
(-0.0743474 -0.165838 0)
(-0.0651453 -0.124074 0)
(-0.0500441 -0.0897271 0)
(-0.064804 -0.0707658 0)
(-0.108376 -0.0680567 0)
(-0.167539 -0.0711784 0)
(-0.202394 -0.0681322 0)
(-0.16223 -0.0401974 0)
(-0.0890403 -0.0120889 0)
(-0.0517979 -0.00392304 0)
(-0.0428395 -0.0031428 0)
(-0.0383271 -0.00298548 0)
(-0.032064 -0.00196612 0)
(-0.0238018 -0.000406845 0)
(-0.0151926 0.000762117 0)
(-0.00867284 0.00123498 0)
(-0.00492699 0.00127173 0)
(-0.00292688 0.00117689 0)
(-0.00169654 0.00108567 0)
(-0.000436009 0.0010413 0)
(0.00103892 0.000997189 0)
(0.00249563 0.000937621 0)
(0.00382464 0.000889465 0)
(0.00607523 0.000883527 0)
(0.00896486 0.000689336 0)
(0.0127058 0.000442483 0)
(0.0168907 -7.64028e-05 0)
(0.0353995 0.000196081 0)
(0.109663 0.000981037 0)
(0.232897 0.00219398 0)
(0.305055 -0.000516574 0)
(0.188947 -0.00198494 0)
(0.0332572 -0.00072137 0)
(0.0268088 0.102003 0)
(0.0880219 0.129589 0)
(0.149447 0.130028 0)
(0.165513 0.106268 0)
(0.0835334 0.0145293 0)
(-0.0244056 -0.12135 0)
(-0.0622339 -0.155122 0)
(-0.0403164 -0.134971 0)
(-0.0241245 -0.0974173 0)
(-0.036889 -0.0789058 0)
(-0.0632057 -0.07734 0)
(-0.111615 -0.0816322 0)
(-0.167227 -0.086776 0)
(-0.183728 -0.0764035 0)
(-0.13201 -0.0383364 0)
(-0.0713697 -0.0114558 0)
(-0.0477823 -0.00493314 0)
(-0.042272 -0.00404322 0)
(-0.0375517 -0.00330927 0)
(-0.0306693 -0.00184365 0)
(-0.0223873 -4.84442e-05 0)
(-0.0143323 0.00127986 0)
(-0.00839062 0.00184219 0)
(-0.00494653 0.00191324 0)
(-0.00302215 0.00181498 0)
(-0.00177136 0.00170626 0)
(-0.000491168 0.00163602 0)
(0.000975821 0.00155302 0)
(0.00243363 0.00146678 0)
(0.0037908 0.00139257 0)
(0.00597072 0.00136279 0)
(0.00872696 0.00114414 0)
(0.0122993 0.000818316 0)
(0.0167413 0.000249469 0)
(0.0359223 0.000465746 0)
(0.11071 0.00130984 0)
(0.232178 0.00250817 0)
(0.302936 -0.000421578 0)
(0.188863 -0.00226556 0)
(0.03393 -0.0008619 0)
(0.0400092 0.112563 0)
(0.0853195 0.125334 0)
(0.0928147 0.0686412 0)
(0.0797769 -0.00757294 0)
(0.00889974 -0.106661 0)
(-0.0500433 -0.150111 0)
(-0.0423192 -0.13474 0)
(-0.0187408 -0.0980667 0)
(-0.0111186 -0.0892703 0)
(-0.0306969 -0.0819652 0)
(-0.0674313 -0.085868 0)
(-0.117469 -0.0931603 0)
(-0.162501 -0.0970057 0)
(-0.155716 -0.0735739 0)
(-0.0996445 -0.031028 0)
(-0.0568517 -0.0102212 0)
(-0.0446549 -0.00562974 0)
(-0.0412747 -0.00457068 0)
(-0.0362075 -0.00323609 0)
(-0.0289218 -0.00133708 0)
(-0.0207919 0.000625588 0)
(-0.0133707 0.00203513 0)
(-0.0080625 0.00263673 0)
(-0.00495322 0.00272869 0)
(-0.00312633 0.00263025 0)
(-0.00186899 0.00250851 0)
(-0.000583678 0.00240624 0)
(0.000875837 0.00228136 0)
(0.00234101 0.00217422 0)
(0.00372443 0.00207172 0)
(0.00583583 0.00201092 0)
(0.00844018 0.00177885 0)
(0.0118436 0.00142217 0)
(0.016551 0.00083984 0)
(0.0364213 0.00108897 0)
(0.111631 0.00189261 0)
(0.231229 0.00321016 0)
(0.300454 0.000244194 0)
(0.188523 -0.00214944 0)
(0.0346098 -0.00105014 0)
(0.0391152 0.145142 0)
(0.0456972 0.094653 0)
(0.0213732 0.010394 0)
(-0.00341475 -0.076109 0)
(-0.0538211 -0.151134 0)
(-0.0514638 -0.139506 0)
(-0.0120825 -0.108427 0)
(0.00350001 -0.0854417 0)
(-0.00860849 -0.0829963 0)
(-0.0336103 -0.0859262 0)
(-0.0739937 -0.0933052 0)
(-0.122348 -0.101717 0)
(-0.148352 -0.0970532 0)
(-0.120149 -0.0599641 0)
(-0.0709606 -0.0229675 0)
(-0.0468951 -0.00953439 0)
(-0.0423373 -0.00637344 0)
(-0.0399654 -0.00493256 0)
(-0.0344357 -0.00293641 0)
(-0.0269481 -0.000663741 0)
(-0.0191378 0.00143096 0)
(-0.0123943 0.00284616 0)
(-0.00772228 0.00345567 0)
(-0.00495278 0.00356215 0)
(-0.00323433 0.00346845 0)
(-0.00198722 0.00333622 0)
(-0.000710052 0.00319036 0)
(0.000752234 0.00303212 0)
(0.00223161 0.00291422 0)
(0.00363345 0.00277919 0)
(0.00568851 0.00268036 0)
(0.00815962 0.00243983 0)
(0.0113944 0.00209164 0)
(0.0164202 0.00155453 0)
(0.0369368 0.00176666 0)
(0.112754 0.002417 0)
(0.230589 0.00339731 0)
(0.297771 0.000734552 0)
(0.187616 -0.00190778 0)
(0.0349893 -0.00111704 0)
(-0.00864379 0.0941216 0)
(-0.0445285 0.00470486 0)
(-0.0717378 -0.0688391 0)
(-0.0758772 -0.131338 0)
(-0.052192 -0.13854 0)
(-0.00888984 -0.106128 0)
(0.00977926 -0.0819768 0)
(0.00576555 -0.0795409 0)
(-0.0115854 -0.0814511 0)
(-0.0406309 -0.0887648 0)
(-0.082648 -0.0993466 0)
(-0.121081 -0.104446 0)
(-0.122266 -0.0841565 0)
(-0.0843242 -0.0424809 0)
(-0.0510485 -0.017058 0)
(-0.040861 -0.00909622 0)
(-0.0402204 -0.0067525 0)
(-0.0379626 -0.00482153 0)
(-0.0320939 -0.00228854 0)
(-0.0247132 0.000263945 0)
(-0.0174096 0.00245274 0)
(-0.0114196 0.00382654 0)
(-0.00737254 0.00441185 0)
(-0.0049409 0.00452087 0)
(-0.00334404 0.00442607 0)
(-0.00213697 0.00427143 0)
(-0.000876718 0.00410106 0)
(0.000609737 0.00393644 0)
(0.00209728 0.00378309 0)
(0.00349908 0.00361129 0)
(0.00550881 0.0034761 0)
(0.00787287 0.00322821 0)
(0.0109905 0.00290335 0)
(0.0162378 0.00245984 0)
(0.0372524 0.00268871 0)
(0.113202 0.00313551 0)
(0.229607 0.00369968 0)
(0.295342 0.00125178 0)
(0.186739 -0.00149264 0)
(0.0353718 -0.000649729 0)
(-0.0470501 0.0236703 0)
(-0.111338 -0.0455847 0)
(-0.109722 -0.0929906 0)
(-0.070581 -0.108614 0)
(-0.0295277 -0.0924814 0)
(0.00304239 -0.0805453 0)
(0.0135373 -0.0740475 0)
(0.0040066 -0.076828 0)
(-0.017497 -0.0812703 0)
(-0.0508551 -0.0918183 0)
(-0.0891045 -0.101661 0)
(-0.10771 -0.0952778 0)
(-0.0886407 -0.0618192 0)
(-0.0554903 -0.0283894 0)
(-0.0387898 -0.0134789 0)
(-0.0369644 -0.00880158 0)
(-0.038218 -0.00681001 0)
(-0.0356637 -0.00434053 0)
(-0.0295352 -0.00146673 0)
(-0.0223792 0.00118366 0)
(-0.0157047 0.00334394 0)
(-0.0105064 0.00465403 0)
(-0.0070532 0.0052149 0)
(-0.00493909 0.00533584 0)
(-0.0034747 0.00525593 0)
(-0.00230041 0.00510758 0)
(-0.00103285 0.00496966 0)
(0.000445827 0.00482923 0)
(0.00191828 0.0046443 0)
(0.00333762 0.00446361 0)
(0.00531935 0.00432252 0)
(0.00760769 0.0041041 0)
(0.010654 0.00384185 0)
(0.0162134 0.00355366 0)
(0.0375879 0.00394229 0)
(0.113728 0.00413814 0)
(0.228774 0.00433388 0)
(0.292768 0.00203899 0)
(0.185783 -0.000687957 0)
(0.0358016 0.000136874 0)
(-0.0753804 0.0202091 0)
(-0.156947 -0.0261253 0)
(-0.132476 -0.0597078 0)
(-0.0753865 -0.07701 0)
(-0.0251436 -0.0788189 0)
(0.0088737 -0.0687352 0)
(0.0133614 -0.0674884 0)
(-0.00119458 -0.0741279 0)
(-0.0260306 -0.0823714 0)
(-0.0602802 -0.0932002 0)
(-0.0859817 -0.0948019 0)
(-0.0826878 -0.0734783 0)
(-0.0578102 -0.0400385 0)
(-0.0377418 -0.0191598 0)
(-0.032173 -0.0109427 0)
(-0.0344346 -0.00828441 0)
(-0.0359216 -0.00640767 0)
(-0.0328137 -0.00353003 0)
(-0.0267706 -0.000359303 0)
(-0.0200775 0.00235084 0)
(-0.0140655 0.00440617 0)
(-0.00961667 0.00561277 0)
(-0.00671552 0.00612998 0)
(-0.00490137 0.00625205 0)
(-0.003564 0.00619126 0)
(-0.00241283 0.00607133 0)
(-0.00114494 0.00596319 0)
(0.00029621 0.00582567 0)
(0.00174495 0.0056282 0)
(0.003189 0.00544983 0)
(0.00516237 0.00531466 0)
(0.00740967 0.00513306 0)
(0.0104601 0.00494613 0)
(0.0163346 0.00483136 0)
(0.0378156 0.00527973 0)
(0.11358 0.00537194 0)
(0.227585 0.00509162 0)
(0.290503 0.00243751 0)
(0.184906 -0.00020242 0)
(0.0361666 0.00101037 0)
(-0.0916996 0.00666307 0)
(-0.188348 -0.0137443 0)
(-0.158757 -0.0410993 0)
(-0.0889971 -0.0615552 0)
(-0.0215539 -0.0658989 0)
(0.0139609 -0.0572271 0)
(0.00834078 -0.0625846 0)
(-0.0103352 -0.0714514 0)
(-0.0358758 -0.0824928 0)
(-0.0628335 -0.0878946 0)
(-0.0700998 -0.0760809 0)
(-0.0549384 -0.0480717 0)
(-0.0362974 -0.0249009 0)
(-0.0274526 -0.0134422 0)
(-0.0283099 -0.00911501 0)
(-0.0325942 -0.00743445 0)
(-0.0336365 -0.00530205 0)
(-0.0298353 -0.00224204 0)
(-0.0238681 0.000934039 0)
(-0.017787 0.00364967 0)
(-0.0125614 0.00558165 0)
(-0.0088453 0.00668731 0)
(-0.00643716 0.00717695 0)
(-0.00488004 0.00732477 0)
(-0.00364885 0.00731475 0)
(-0.00252018 0.0072472 0)
(-0.00126958 0.00716736 0)
(0.000123012 0.0070325 0)
(0.00155611 0.006835 0)
(0.00303548 0.00667572 0)
(0.00501411 0.00655794 0)
(0.00725256 0.00642377 0)
(0.0103632 0.00631195 0)
(0.0165349 0.00632729 0)
(0.0381089 0.00677866 0)
(0.113547 0.00686942 0)
(0.225946 0.00632081 0)
(0.287666 0.00274649 0)
(0.184408 5.40605e-05 0)
(0.0369703 0.00210774 0)
(-0.0950456 -0.0116611 0)
(-0.202973 -0.0093688 0)
(-0.178548 -0.0283322 0)
(-0.0992843 -0.0439313 0)
(-0.0209728 -0.0481353 0)
(0.0120674 -0.0499906 0)
(-0.000345683 -0.0598011 0)
(-0.0203788 -0.0686529 0)
(-0.0418759 -0.0769243 0)
(-0.0541015 -0.0712314 0)
(-0.0476069 -0.0504628 0)
(-0.0333688 -0.0282146 0)
(-0.0244399 -0.0146822 0)
(-0.02253 -0.0084329 0)
(-0.0263837 -0.00675127 0)
(-0.0307603 -0.00571157 0)
(-0.030918 -0.00306 0)
(-0.0268043 0.000499999 0)
(-0.0210931 0.00369301 0)
(-0.0155989 0.00632776 0)
(-0.0111383 0.00807917 0)
(-0.00807938 0.00901926 0)
(-0.00610124 0.00939162 0)
(-0.00476858 0.0094601 0)
(-0.00363876 0.00939364 0)
(-0.00255486 0.00928063 0)
(-0.00135183 0.0091445 0)
(-2.40671e-05 0.00895565 0)
(0.00140115 0.00873161 0)
(0.00292202 0.00856218 0)
(0.00491958 0.00845278 0)
(0.00717263 0.00835504 0)
(0.0103671 0.00830856 0)
(0.0167844 0.00839868 0)
(0.0383381 0.0088994 0)
(0.113138 0.0090871 0)
(0.223612 0.0081709 0)
(0.284464 0.00332261 0)
(0.18429 0.000265697 0)
(0.0381457 0.0036872 0)
(-0.0894906 -0.0123507 0)
(-0.204413 -0.00165837 0)
(-0.192062 -0.0137781 0)
(-0.10808 -0.0283649 0)
(-0.0273928 -0.0341947 0)
(0.00271932 -0.0466595 0)
(-0.00964292 -0.0563146 0)
(-0.0268358 -0.0619961 0)
(-0.0383605 -0.0613359 0)
(-0.0373343 -0.0464506 0)
(-0.0286473 -0.0274654 0)
(-0.0204588 -0.0145063 0)
(-0.017235 -0.00721342 0)
(-0.0198101 -0.00435854 0)
(-0.0256875 -0.00387889 0)
(-0.0290372 -0.00251362 0)
(-0.0276508 0.000678814 0)
(-0.0233279 0.00437346 0)
(-0.0182523 0.0076023 0)
(-0.0135604 0.0100033 0)
(-0.00996777 0.0114878 0)
(-0.00758058 0.0122266 0)
(-0.00601236 0.0124702 0)
(-0.00487809 0.0124349 0)
(-0.00382179 0.012261 0)
(-0.00276026 0.0120339 0)
(-0.00158274 0.0117937 0)
(-0.000274856 0.0115098 0)
(0.00117694 0.0112252 0)
(0.00276678 0.0110631 0)
(0.00481449 0.0109556 0)
(0.00711359 0.0108983 0)
(0.0104053 0.0109275 0)
(0.0171042 0.0110996 0)
(0.0387722 0.0116709 0)
(0.112845 0.0119531 0)
(0.220391 0.0100734 0)
(0.280048 0.00367168 0)
(0.184759 -8.02473e-05 0)
(0.0402674 0.00555016 0)
(-0.0847421 -0.0003331 0)
(-0.204348 0.00737648 0)
(-0.204283 -0.00242537 0)
(-0.118959 -0.0194481 0)
(-0.0386022 -0.0283718 0)
(-0.00924802 -0.0437321 0)
(-0.0151245 -0.0501278 0)
(-0.0252176 -0.0485476 0)
(-0.0268956 -0.0383994 0)
(-0.0214626 -0.0237726 0)
(-0.0168242 -0.0123191 0)
(-0.0138533 -0.00500215 0)
(-0.0146612 -0.00118525 0)
(-0.0193167 -0.000357718 0)
(-0.0246059 0.000314423 0)
(-0.0263683 0.00250405 0)
(-0.0242813 0.00585677 0)
(-0.0201326 0.00935478 0)
(-0.0156681 0.012426 0)
(-0.0118546 0.0145641 0)
(-0.00899575 0.0158048 0)
(-0.00713272 0.0163306 0)
(-0.0059005 0.0164038 0)
(-0.0049702 0.0162364 0)
(-0.00402522 0.0159545 0)
(-0.00300513 0.0156395 0)
(-0.0018569 0.0153381 0)
(-0.000571941 0.0150505 0)
(0.000970716 0.0148265 0)
(0.00266224 0.0147941 0)
(0.00476082 0.0148163 0)
(0.00714556 0.0149021 0)
(0.010561 0.0150879 0)
(0.0175007 0.0154428 0)
(0.0391606 0.0161904 0)
(0.111599 0.0166957 0)
(0.215631 0.0137587 0)
(0.27468 0.0056279 0)
(0.1861 0.000674404 0)
(0.0435713 0.0078635 0)
(-0.0820614 0.00645934 0)
(-0.206429 0.00934175 0)
(-0.217911 0.00118748 0)
(-0.133083 -0.0144229 0)
(-0.0507937 -0.0260528 0)
(-0.0182456 -0.0342061 0)
(-0.0142833 -0.0330215 0)
(-0.0155339 -0.0252695 0)
(-0.0144864 -0.013803 0)
(-0.0122023 -0.0053142 0)
(-0.0105595 0.000436715 0)
(-0.00972988 0.00422082 0)
(-0.0127594 0.0058108 0)
(-0.018365 0.00573463 0)
(-0.0229298 0.00609313 0)
(-0.0236964 0.00798609 0)
(-0.0210492 0.010832 0)
(-0.0169975 0.0138427 0)
(-0.0132324 0.0162976 0)
(-0.0103044 0.0180322 0)
(-0.00826547 0.0191661 0)
(-0.00700336 0.0198805 0)
(-0.00610316 0.0203316 0)
(-0.00531103 0.0206321 0)
(-0.004397 0.0208625 0)
(-0.00335429 0.0211322 0)
(-0.00215034 0.0213476 0)
(-0.000767797 0.0216842 0)
(0.000929889 0.0219888 0)
(0.0027569 0.0224485 0)
(0.0049186 0.0228519 0)
(0.00737533 0.0233572 0)
(0.0109264 0.0238933 0)
(0.0181666 0.0246773 0)
(0.0399795 0.0258972 0)
(0.110502 0.0267905 0)
(0.209726 0.0223986 0)
(0.26744 0.0103988 0)
(0.186914 0.00141644 0)
(0.047195 0.008351 0)
(-0.0819645 0.0101503 0)
(-0.209428 0.0123506 0)
(-0.227184 0.00770268 0)
(-0.145208 -0.00306545 0)
(-0.057666 -0.0121611 0)
(-0.0159634 -0.00990423 0)
(-0.00651294 -0.00322654 0)
(-0.00669787 0.00328932 0)
(-0.00766599 0.00914295 0)
(-0.00774078 0.0136162 0)
(-0.00763591 0.0171985 0)
(-0.00867461 0.0186898 0)
(-0.0132025 0.0183435 0)
(-0.0190446 0.0179973 0)
(-0.0224363 0.0192436 0)
(-0.0218017 0.0222 0)
(-0.0186377 0.0257871 0)
(-0.0148658 0.0290515 0)
(-0.0116309 0.0316149 0)
(-0.00909049 0.033602 0)
(-0.0072146 0.0352719 0)
(-0.00600955 0.0368255 0)
(-0.00517622 0.0383248 0)
(-0.00445863 0.0397483 0)
(-0.00354338 0.0410689 0)
(-0.00253768 0.0423317 0)
(-0.00132493 0.0433731 0)
(4.59061e-05 0.0443282 0)
(0.00170724 0.0451054 0)
(0.00349398 0.0459832 0)
(0.00563649 0.0467003 0)
(0.00814912 0.0476332 0)
(0.0118331 0.0484264 0)
(0.0194317 0.0495716 0)
(0.0411969 0.0508668 0)
(0.108227 0.0507665 0)
(0.199836 0.0408797 0)
(0.254461 0.0210164 0)
(0.184127 0.00393934 0)
(0.0502537 0.00698559 0)
(-0.0799412 0.00359227 0)
(-0.208788 0.01201 0)
(-0.232767 0.0258113 0)
(-0.152224 0.0306892 0)
(-0.0573838 0.0295276 0)
(-0.00963599 0.0343623 0)
(-0.0015695 0.0397949 0)
(-0.00361419 0.0433806 0)
(-0.00453499 0.0467784 0)
(-0.00443964 0.050769 0)
(-0.00567042 0.0543661 0)
(-0.00862658 0.0568285 0)
(-0.0134268 0.0587159 0)
(-0.0174975 0.0619037 0)
(-0.01888 0.0673274 0)
(-0.0173909 0.0737733 0)
(-0.0144468 0.0802193 0)
(-0.0113816 0.0859849 0)
(-0.00884741 0.0908967 0)
(-0.0067804 0.0951954 0)
(-0.00515917 0.0994333 0)
(-0.00406154 0.103764 0)
(-0.00328671 0.107909 0)
(-0.00266667 0.111646 0)
(-0.00190751 0.114923 0)
(-0.00113387 0.118025 0)
(-0.00022646 0.120131 0)
(0.000901462 0.122163 0)
(0.00252474 0.123457 0)
(0.0042938 0.124842 0)
(0.00650863 0.125659 0)
(0.00903872 0.126392 0)
(0.0127943 0.125882 0)
(0.0205182 0.125392 0)
(0.0411309 0.123237 0)
(0.100878 0.116066 0)
(0.181058 0.0891013 0)
(0.231843 0.0474966 0)
(0.173393 0.00765688 0)
(0.0501305 -0.00139274 0)
(-0.0738529 -0.0510354 0)
(-0.188017 -0.000136201 0)
(-0.209184 0.0537124 0)
(-0.141627 0.0893164 0)
(-0.0541265 0.103206 0)
(-0.00606944 0.110477 0)
(0.00217737 0.116104 0)
(3.16972e-05 0.122979 0)
(-0.000546255 0.130559 0)
(-0.000429032 0.138081 0)
(-0.00179668 0.144845 0)
(-0.00448296 0.150747 0)
(-0.00831189 0.156751 0)
(-0.0107463 0.164016 0)
(-0.0109982 0.172649 0)
(-0.00937858 0.181943 0)
(-0.00687015 0.190834 0)
(-0.00457664 0.198834 0)
(-0.00275535 0.205661 0)
(-0.000864292 0.211307 0)
(0.00104265 0.216165 0)
(0.00215778 0.220234 0)
(0.00241913 0.223342 0)
(0.00230066 0.225648 0)
(0.00260301 0.227318 0)
(0.00248097 0.228841 0)
(0.00266303 0.229507 0)
(0.00325029 0.230261 0)
(0.00428849 0.230314 0)
(0.00561633 0.229867 0)
(0.00713017 0.22853 0)
(0.00836366 0.226223 0)
(0.0108697 0.222339 0)
(0.0168833 0.217345 0)
(0.0322098 0.208536 0)
(0.0753332 0.191547 0)
(0.13376 0.145632 0)
(0.175978 0.0880737 0)
(0.137016 0.0144878 0)
(0.0415332 -0.0539997 0)
(-0.0308929 -0.503027 0)
(-0.107849 -0.140739 0)
(-0.146567 0.0961 0)
(-0.10453 0.170273 0)
(-0.036993 0.19978 0)
(0.00279324 0.211008 0)
(0.0104785 0.216276 0)
(0.0103146 0.224051 0)
(0.0100177 0.232697 0)
(0.00932684 0.24064 0)
(0.00653462 0.247332 0)
(0.00284656 0.252907 0)
(-0.000640315 0.258318 0)
(-0.00217722 0.26469 0)
(-0.00160487 0.271583 0)
(0.00013214 0.278762 0)
(0.00183058 0.285204 0)
(0.0029063 0.290478 0)
(0.00317171 0.294608 0)
(0.00334214 0.29744 0)
(0.00344293 0.298579 0)
(0.00285422 0.298047 0)
(0.00193045 0.296548 0)
(0.00116449 0.294771 0)
(0.00116977 0.292802 0)
(0.00097563 0.290738 0)
(0.00114174 0.288888 0)
(0.00167911 0.286818 0)
(0.00214558 0.284814 0)
(0.00257484 0.282003 0)
(0.00299685 0.278772 0)
(0.00307329 0.274411 0)
(0.00423869 0.269505 0)
(0.00721686 0.263065 0)
(0.0162716 0.252078 0)
(0.0402612 0.232411 0)
(0.081347 0.18105 0)
(0.105468 0.109689 0)
(0.036486 -0.119766 0)
(-0.0158666 -0.476697 0)
(0.27526 -0.761522 0)
(0.389323 -0.47895 0)
(0.090519 0.0578756 0)
(-0.0417175 0.174025 0)
(-0.014873 0.210679 0)
(0.00982683 0.214012 0)
(0.0147463 0.213605 0)
(0.0158554 0.210679 0)
(0.0154392 0.209177 0)
(0.0136737 0.205183 0)
(0.0100248 0.201227 0)
(0.00610405 0.198077 0)
(0.00304277 0.196508 0)
(0.00203624 0.196464 0)
(0.00256166 0.197082 0)
(0.00374719 0.197288 0)
(0.00441975 0.196859 0)
(0.00448521 0.196259 0)
(0.00395365 0.195929 0)
(0.00296218 0.195458 0)
(0.00162707 0.194027 0)
(0.000201051 0.191799 0)
(-0.000737833 0.189652 0)
(-0.00130961 0.18808 0)
(-0.00128334 0.18695 0)
(-0.00129092 0.18583 0)
(-0.00111394 0.185336 0)
(-0.00067497 0.184613 0)
(-0.000351371 0.184109 0)
(-0.000206079 0.1837 0)
(-0.000185994 0.183733 0)
(-0.00056598 0.184022 0)
(-6.35551e-05 0.185013 0)
(8.97551e-05 0.185425 0)
(0.00267009 0.183397 0)
(0.00688804 0.173789 0)
(0.0155008 0.139879 0)
(-0.113899 0.0422163 0)
(-0.428047 -0.418177 0)
(-0.302419 -0.728143 0)
(0.241404 -0.306404 0)
(0.681752 -0.341538 0)
(0.482663 -0.00294027 0)
(0.0427163 0.0654036 0)
(0.00153989 0.0846797 0)
(0.00561349 0.0824359 0)
(0.00726672 0.0803074 0)
(0.00604695 0.074674 0)
(0.00472175 0.0701288 0)
(0.0016659 0.0635522 0)
(-0.000312918 0.0576678 0)
(-0.00170073 0.0528243 0)
(-0.00219452 0.0495685 0)
(-0.001624 0.0473894 0)
(-0.000811335 0.0457701 0)
(-8.23192e-05 0.0438891 0)
(0.000839726 0.0417961 0)
(0.00201019 0.040174 0)
(0.00239903 0.0392277 0)
(0.00150841 0.0385607 0)
(-8.30084e-05 0.0377191 0)
(-0.00136139 0.0367861 0)
(-0.00165257 0.0360977 0)
(-0.00143875 0.0358369 0)
(-0.000998724 0.0359637 0)
(-0.000579589 0.0361322 0)
(-3.07533e-05 0.0367018 0)
(0.000496583 0.0372563 0)
(0.00126545 0.0379176 0)
(0.00221229 0.0389341 0)
(0.00330744 0.0404272 0)
(0.00430653 0.0425594 0)
(0.00559047 0.0454836 0)
(0.00565959 0.0484268 0)
(0.00505877 0.0512636 0)
(-0.00167401 0.0509056 0)
(-0.0454414 0.0423785 0)
(-0.432295 -0.0123363 0)
(-0.705861 -0.288033 0)
(-0.314561 -0.300633 0)
(0.241404 0.306404 0)
(0.681752 0.341538 0)
(0.482663 0.00294027 0)
(0.0427163 -0.0654036 0)
(0.00153989 -0.0846797 0)
(0.00561349 -0.0824359 0)
(0.00726672 -0.0803074 0)
(0.00604695 -0.074674 0)
(0.00472175 -0.0701288 0)
(0.0016659 -0.0635522 0)
(-0.000312918 -0.0576678 0)
(-0.00170073 -0.0528243 0)
(-0.00219452 -0.0495685 0)
(-0.001624 -0.0473894 0)
(-0.000811335 -0.0457701 0)
(-8.23192e-05 -0.0438891 0)
(0.000839726 -0.0417961 0)
(0.00201019 -0.040174 0)
(0.00239903 -0.0392277 0)
(0.00150841 -0.0385607 0)
(-8.30084e-05 -0.0377191 0)
(-0.00136139 -0.0367861 0)
(-0.00165257 -0.0360977 0)
(-0.00143875 -0.0358369 0)
(-0.000998724 -0.0359637 0)
(-0.000579589 -0.0361322 0)
(-3.07533e-05 -0.0367018 0)
(0.000496583 -0.0372563 0)
(0.00126545 -0.0379176 0)
(0.00221229 -0.0389341 0)
(0.00330744 -0.0404272 0)
(0.00430653 -0.0425594 0)