/*--------------------------------*- C++ -*----------------------------------*\
| =========                 |                                                 |
| \\      /  F ield         | OpenFOAM: The Open Source CFD Toolbox           |
|  \\    /   O peration     | Version:  v1912                                 |
|   \\  /    A nd           | Website:  www.openfoam.com                      |
|    \\/     M anipulation  |                                                 |
\*---------------------------------------------------------------------------*/
FoamFile
{
    version     2.0;
    format      ascii;
    class       volVectorField;
    location    "8.28";
    object      grad(T);
}
// * * * * * * * * * * * * * * * * * * * * * * * * * * * * * * * * * * * * * //

dimensions      [0 -1 0 1 0 0 0];


internalField   nonuniform List<vector> 
1900
(
(1.49745 2.0098e-06 0)
(-1.46866 -2.85134e-06 0)
(-0.577933 -1.07936e-05 0)
(-0.173497 1.07922e-05 0)
(-0.0273297 2.11233e-05 0)
(0.0305466 0.000109212 0)
(0.0715315 0.000170337 0)
(0.0823564 2.06896e-05 0)
(0.0636733 0.00217123 0)
(0.066487 -0.00247347 0)
(1.49745 3.35094e-06 0)
(-1.46867 -3.32943e-06 0)
(-0.57792 -1.18873e-05 0)
(-0.173465 3.03923e-05 0)
(-0.0272313 5.24653e-05 0)
(0.0306958 0.000158039 0)
(0.071443 9.65451e-05 0)
(0.0843573 -0.000192145 0)
(0.0611792 0.000658883 0)
(0.0303166 -0.00565661 0)
(1.49745 -5.35596e-13 0)
(-1.46867 -5.18249e-13 0)
(-0.5779 -5.74627e-13 0)
(-0.173433 -4.54281e-13 0)
(-0.0272021 -4.09828e-13 0)
(0.0305907 -2.40693e-13 0)
(0.0711813 1.14925e-13 0)
(0.0829188 7.15573e-14 0)
(0.0582089 -1.19262e-14 0)
(0.0256105 -2.81893e-14 0)
(1.49745 -3.35094e-06 0)
(-1.46867 3.32943e-06 0)
(-0.57792 1.18873e-05 0)
(-0.173465 -3.03923e-05 0)
(-0.0272313 -5.24653e-05 0)
(0.0306958 -0.000158039 0)
(0.071443 -9.65451e-05 0)
(0.0843573 0.000192145 0)
(0.0611792 -0.000658883 0)
(0.0303166 0.00565661 0)
(1.49745 -2.0098e-06 0)
(-1.46866 2.85134e-06 0)
(-0.577933 1.07936e-05 0)
(-0.173497 -1.07922e-05 0)
(-0.0273297 -2.11233e-05 0)
(0.0305466 -0.000109212 0)
(0.0715315 -0.000170337 0)
(0.0823564 -2.06896e-05 0)
(0.0636733 -0.00217123 0)
(0.066487 0.00247347 0)
(0.0198483 -0.0298042 9.44332e-16)
(-0.00790562 -0.0226231 -1.13253e-15)
(0.102097 -0.0324999 -1.43862e-15)
(0.390521 -0.0611063 0)
(-0.517364 -0.320234 -6.48499e-15)
(0.00344578 -0.0358748 9.38946e-16)
(0.00726336 -0.0264712 1.13253e-15)
(0.0874207 -0.0380603 1.43862e-15)
(0.284235 -0.0602735 0)
(-0.449352 -0.349863 0)
(-0.00669154 -9.82067e-15 0)
(0.00283193 -3.56645e-14 0)
(0.080047 -3.01167e-14 0)
(0.253839 3.69614e-14 0)
(-0.582517 1.22618e-13 0)
(0.00344578 0.0358748 9.38946e-16)
(0.00726336 0.0264712 1.13253e-15)
(0.0874207 0.0380603 1.43862e-15)
(0.284235 0.0602735 0)
(-0.449352 0.349863 0)
(0.0198483 0.0298042 -2.82222e-15)
(-0.00790562 0.0226231 -1.13253e-15)
(0.102097 0.0324999 -1.43862e-15)
(0.390521 0.0611063 -3.96524e-15)
(-0.517364 0.320234 6.48499e-15)
(-1.89012 0.457412 2.19187e-15)
(-0.968606 0.318696 -1.58393e-15)
(-0.594181 0.218145 0)
(-0.414137 0.196021 1.01419e-15)
(-0.310843 0.079453 -4.25853e-16)
(-1.68607 0.456842 -1.10282e-15)
(-1.01008 0.210815 7.96764e-16)
(-0.613597 0.11386 0)
(-0.456511 0.125448 -6.38503e-16)
(-0.290668 -0.0438001 1.06732e-16)
(-1.73982 1.0404e-13 0)
(-1.06695 1.946e-13 0)
(-0.625435 1.64638e-13 0)
(-0.489736 4.25177e-14 2.56912e-16)
(-0.277652 1.83871e-13 -2.13463e-16)
(-1.68607 -0.456842 -1.10282e-15)
(-1.01008 -0.210815 7.96764e-16)
(-0.613597 -0.11386 0)
(-0.456511 -0.125448 -6.38503e-16)
(-0.290668 0.0438001 1.06732e-16)
(-1.89012 -0.457412 1.10282e-15)
(-0.968606 -0.318696 -9.59807e-18)
(-0.594181 -0.218145 0)
(-0.414137 -0.196021 5.90352e-18)
(-0.310843 -0.079453 4.25853e-16)
(-0.212039 0.828827 0)
(-0.107979 0.988094 0)
(-0.0591918 1.02154 0)
(-0.03972 0.949956 0)
(-0.0377109 0.842041 0)
(-0.0448454 0.712677 0)
(-0.0589804 0.610635 0)
(-0.0878826 0.523754 0)
(-0.0582622 0.430133 0)
(0.0241105 0.376423 0)
(0.218848 0.368899 0)
(0.375748 0.384697 0)
(0.271049 0.373288 0)
(0.11756 0.28527 0)
(0.0638685 0.180487 0)
(0.0498657 0.0612899 0)
(0.00702262 -0.00624346 0)
(-0.0635028 -0.0174225 0)
(-0.145461 -0.00397549 0)
(-0.183569 0.0160351 0)
(-0.159977 0.0148075 0)
(-0.153987 0.00955148 0)
(-0.228498 0.0105293 0)
(-0.346537 0.0138371 0)
(-0.31462 0.0117819 0)
(-0.133135 0.00204051 0)
(-0.0287074 -0.000162362 0)
(-0.0113493 -0.000199138 0)
(0.0388353 -0.000118997 0)
(0.224558 -1.96253e-05 0)
(0.318192 0.000123452 0)
(0.190463 -0.000278158 0)
(0.0918507 -0.000398243 0)
(0.0843584 -0.000381122 0)
(0.103354 -0.000423197 0)
(0.100321 -0.000231803 0)
(0.0631194 -0.000506803 0)
(0.0216574 -0.00134334 0)
(-0.00466817 -0.0016722 0)
(-0.00738748 -0.00181964 0)
(-0.0797349 0.252064 0)
(-0.0159779 0.545549 0)
(-0.0486537 0.689888 0)
(-0.0712181 0.710619 0)
(-0.0868933 0.645506 0)
(-0.0887319 0.531449 0)
(-0.0884701 0.43974 0)
(-0.111923 0.374046 0)
(-0.0821352 0.309163 0)
(0.0117876 0.249928 0)
(0.226578 0.249431 0)
(0.378389 0.26772 0)
(0.253102 0.254753 0)
(0.0921868 0.198816 0)
(0.0378546 0.134234 0)
(0.0266427 0.0764762 0)
(-0.00554116 0.029974 0)
(-0.0666523 0.0153144 0)
(-0.144717 0.00600429 0)
(-0.183957 0.045123 0)
(-0.162641 0.0478268 0)
(-0.154201 0.0288159 0)
(-0.22697 0.0123618 0)
(-0.346905 0.00749569 0)
(-0.3168 0.00308521 0)
(-0.134542 0.000530007 0)
(-0.0289143 -7.84734e-05 0)
(-0.0113429 -8.06341e-05 0)
(0.038839 -4.23986e-05 0)
(0.224558 -4.03722e-05 0)
(0.318167 3.38211e-06 0)
(0.190422 -0.000203818 0)
(0.0918268 -0.000286894 0)
(0.0843267 -0.000344877 0)
(0.103358 -0.000432107 0)
(0.100316 -0.000302827 0)
(0.0630113 -0.000399227 0)
(0.0215425 -0.000815309 0)
(-0.00470207 -0.00113686 0)
(-0.00738626 -0.00135646 0)
(-0.0226693 -7.88511e-15 0)
(0.0193876 1.79386e-13 0)
(-0.0111716 3.35117e-14 0)
(-0.0526312 -4.35652e-13 0)
(-0.0898329 -5.61814e-13 0)
(-0.104705 -6.60378e-13 0)
(-0.104771 -5.14503e-13 0)
(-0.125868 -4.41566e-13 0)
(-0.0943693 -4.45509e-13 0)
(0.00673396 -1.16305e-13 0)
(0.224024 -2.14869e-13 0)
(0.377296 5.91383e-15 0)
(0.251004 1.41932e-13 0)
(0.0824996 5.91383e-14 0)
(0.0282788 -4.65221e-13 0)
(0.0195354 1.65587e-13 0)
(-0.0107699 2.08364e-12 0)
(-0.0704758 2.53703e-12 0)
(-0.136789 1.5238e-12 0)
(-0.171402 -5.91383e-15 0)
(-0.164721 -9.95495e-13 0)
(-0.164305 -1.11771e-12 0)
(-0.2347 -4.10026e-13 0)
(-0.349236 -6.11096e-14 0)
(-0.316647 -2.1684e-14 0)
(-0.134056 1.93185e-13 0)
(-0.0288851 9.65926e-14 0)
(-0.0113388 3.05548e-14 0)
(0.038847 6.05182e-13 0)
(0.224571 1.71698e-12 0)
(0.318144 2.42467e-13 0)
(0.190379 -1.39172e-12 0)
(0.0918096 -6.52493e-13 0)
(0.0843162 -2.64151e-13 0)
(0.103367 -1.5376e-13 0)
(0.100331 -7.29372e-14 0)
(0.0629703 -1.75444e-13 0)
(0.0214428 -5.04647e-13 0)
(-0.0048256 -4.08054e-13 0)
(-0.00745136 -3.41031e-13 0)
(-0.0797349 -0.252064 0)
(-0.0159779 -0.545549 0)
(-0.0486537 -0.689888 0)
(-0.0712181 -0.710619 0)
(-0.0868933 -0.645506 0)
(-0.0887319 -0.531449 0)
(-0.0884701 -0.43974 0)
(-0.111923 -0.374046 0)
(-0.0821352 -0.309163 0)
(0.0117876 -0.249928 0)
(0.226578 -0.249431 0)
(0.378389 -0.26772 0)
(0.253102 -0.254753 0)
(0.0921868 -0.198816 0)
(0.0378546 -0.134234 0)
(0.0266427 -0.0764762 0)
(-0.00554116 -0.029974 0)
(-0.0666523 -0.0153144 0)
(-0.144717 -0.00600429 0)
(-0.183957 -0.045123 0)
(-0.162641 -0.0478268 0)
(-0.154201 -0.0288159 0)
(-0.22697 -0.0123618 0)
(-0.346905 -0.00749569 0)
(-0.3168 -0.00308521 0)
(-0.134542 -0.000530007 0)
(-0.0289143 7.84734e-05 0)
(-0.0113429 8.06341e-05 0)
(0.038839 4.23986e-05 0)
(0.224558 4.03722e-05 0)
(0.318167 -3.38211e-06 0)
(0.190422 0.000203818 0)
(0.0918268 0.000286894 0)
(0.0843267 0.000344877 0)
(0.103358 0.000432107 0)
(0.100316 0.000302827 0)
(0.0630113 0.000399227 0)
(0.0215425 0.000815309 0)
(-0.00470207 0.00113686 0)
(-0.00738626 0.00135646 0)
(-0.212039 -0.828827 0)
(-0.107979 -0.988094 0)
(-0.0591918 -1.02154 0)
(-0.03972 -0.949956 0)
(-0.0377109 -0.842041 0)
(-0.0448454 -0.712677 0)
(-0.0589804 -0.610635 0)
(-0.0878826 -0.523754 0)
(-0.0582622 -0.430133 0)
(0.0241105 -0.376423 0)
(0.218848 -0.368899 0)
(0.375748 -0.384697 0)
(0.271049 -0.373288 0)
(0.11756 -0.28527 0)
(0.0638685 -0.180487 0)
(0.0498657 -0.0612899 0)
(0.00702262 0.00624346 0)
(-0.0635028 0.0174225 0)
(-0.145461 0.00397549 0)
(-0.183569 -0.0160351 0)
(-0.159977 -0.0148075 0)
(-0.153987 -0.00955148 0)
(-0.228498 -0.0105293 0)
(-0.346537 -0.0138371 0)
(-0.31462 -0.0117819 0)
(-0.133135 -0.00204051 0)
(-0.0287074 0.000162362 0)
(-0.0113493 0.000199138 0)
(0.0388353 0.000118997 0)
(0.224558 1.96253e-05 0)
(0.318192 -0.000123452 0)
(0.190463 0.000278158 0)
(0.0918507 0.000398243 0)
(0.0843584 0.000381122 0)
(0.103354 0.000423197 0)
(0.100321 0.000231803 0)
(0.0631194 0.000506803 0)
(0.0216574 0.00134334 0)
(-0.00466817 0.0016722 0)
(-0.00738748 0.00181964 0)
(-0.0152141 -0.824197 0)
(-0.0304831 -0.726035 0)
(-0.0125457 -0.686954 0)
(0.00495546 -0.647275 0)
(0.0050782 -0.612735 0)
(0.00567915 -0.567584 0)
(-0.00406109 -0.510767 0)
(-0.0264967 -0.45095 0)
(-0.0173221 -0.367852 0)
(0.0359499 -0.340353 0)
(0.230326 -0.310623 0)
(0.378688 -0.291813 0)
(0.294719 -0.306087 0)
(0.183789 -0.247847 0)
(0.148272 -0.172713 0)
(0.116922 -0.073018 0)
(0.0293061 -0.0273984 0)
(-0.0717164 -0.0251869 0)
(-0.164843 -0.0329493 0)
(-0.196189 -0.0346707 0)
(-0.161654 -0.0256189 0)
(-0.151765 -0.0211299 0)
(-0.227892 -0.02172 0)
(-0.348116 -0.0267972 0)
(-0.31192 -0.0213415 0)
(-0.128676 -0.00332517 0)
(-0.0277487 0.000297934 0)
(-0.0113628 0.000379174 0)
(0.0387307 0.000259521 0)
(0.224407 -6.42375e-05 0)
(0.318299 -0.000429843 0)
(0.190701 0.000447069 0)
(0.0918638 0.00073325 0)
(0.0843057 0.000649368 0)
(0.103268 0.000558145 0)
(0.100363 0.000307843 0)
(0.0635835 0.000410421 0)
(0.0221407 0.00115186 0)
(-0.0044425 0.0014416 0)
(-0.00729237 0.00161992 0)
(-0.0068068 -0.258594 0)
(-0.0172831 -0.234785 0)
(-0.00830883 -0.212137 0)
(0.00784416 -0.213244 0)
(0.0161371 -0.214295 0)
(0.0263215 -0.216578 0)
(0.0239629 -0.220914 0)
(0.016918 -0.212135 0)
(0.0263599 -0.18491 0)
(0.0729103 -0.169891 0)
(0.259468 -0.129914 0)
(0.378542 -0.138018 0)
(0.300723 -0.165404 0)
(0.21057 -0.156605 0)
(0.18708 -0.128621 0)
(0.153939 -0.0914702 0)
(0.0411652 -0.0875816 0)
(-0.0644475 -0.0941369 0)
(-0.144206 -0.0909718 0)
(-0.169738 -0.064811 0)
(-0.146029 -0.0381635 0)
(-0.151422 -0.0321468 0)
(-0.234285 -0.0406925 0)
(-0.345326 -0.0514505 0)
(-0.29345 -0.0335113 0)
(-0.114674 -0.0041143 0)
(-0.0256519 0.000581851 0)
(-0.0113791 0.000705058 0)
(0.0384641 0.000567126 0)
(0.223975 2.91748e-05 0)
(0.318627 -0.000659433 0)
(0.191456 0.000707871 0)
(0.0920386 0.00129324 0)
(0.0842179 0.00129029 0)
(0.103072 0.00115086 0)
(0.100157 0.000872494 0)
(0.0636838 0.00062332 0)
(0.0223919 0.000716846 0)
(-0.00433814 0.000898992 0)
(-0.00726663 0.00127596 0)
(0.00772956 -0.0193335 0)
(0.014285 -0.0120325 0)
(0.00821165 0.00119099 0)
(0.00287543 -0.00118537 0)
(0.00186512 -0.00819459 0)
(-0.000699099 -0.0227793 0)
(0.000220769 -0.0515712 0)
(0.00819815 -0.0548301 0)
(0.0233856 -0.0389995 0)
(0.0889461 -0.0256716 0)
(0.26104 0.0119508 0)
(0.344489 -0.0503699 0)
(0.276807 -0.0826861 0)
(0.219234 -0.0796933 0)
(0.211039 -0.0443126 0)
(0.156468 -0.0328638 0)
(0.0267364 -0.0677865 0)
(-0.0749833 -0.0875152 0)
(-0.136584 -0.094973 0)
(-0.145301 -0.0700219 0)
(-0.130177 -0.0459229 0)
(-0.154202 -0.0434757 0)
(-0.246493 -0.0564775 0)
(-0.341196 -0.0686837 0)
(-0.266305 -0.0395721 0)
(-0.0958224 -0.00384051 0)
(-0.0231046 0.00108247 0)
(-0.0113769 0.00124876 0)
(0.0380794 0.00113008 0)
(0.223225 0.00052929 0)
(0.318953 -0.000369262 0)
(0.192582 0.00128728 0)
(0.092425 0.00209577 0)
(0.0841685 0.00210236 0)
(0.102865 0.00190625 0)
(0.0998544 0.00149908 0)
(0.0634335 0.00111953 0)
(0.0224064 0.000846364 0)
(-0.00390372 0.00104878 0)
(-0.00692911 0.00190576 0)
(0.000228722 0.0112613 0)
(0.00249507 0.00293397 0)
(0.00214383 -0.00447015 0)
(-0.00120013 -0.00812221 0)
(-0.0046716 -0.0107164 0)
(-0.0154778 -0.0159259 0)
(-0.00692242 -0.0229322 0)
(0.0290326 -0.0130104 0)
(0.054458 0.0073173 0)
(0.122008 0.0483459 0)
(0.235668 0.0826867 0)
(0.287346 0.00934831 0)
(0.272466 -0.00520225 0)
(0.247548 -0.00844273 0)
(0.232207 0.0185449 0)
(0.131318 -0.016754 0)
(-0.0114988 -0.0707051 0)
(-0.0906454 -0.096791 0)
(-0.127349 -0.0965891 0)
(-0.122471 -0.0709836 0)
(-0.120448 -0.0552118 0)
(-0.161593 -0.0591298 0)
(-0.258576 -0.0745781 0)
(-0.329035 -0.0823455 0)
(-0.230965 -0.039196 0)
(-0.0754981 -0.0025261 0)
(-0.0207477 0.00169574 0)
(-0.0113332 0.00183175 0)
(0.0377708 0.00180682 0)
(0.22253 0.00102053 0)
(0.319358 -0.000510237 0)
(0.193832 0.00121354 0)
(0.092824 0.00216049 0)
(0.0840353 0.00209576 0)
(0.10249 0.00185096 0)
(0.0993988 0.00132062 0)
(0.0630549 0.00112398 0)
(0.0223237 0.000995908 0)
(-0.00331726 0.00131757 0)
(-0.00644081 0.00231251 0)
(-0.000294972 0.0285107 0)
(-0.000874383 0.0279911 0)
(-0.00244249 0.0245543 0)
(-0.00314373 0.0225433 0)
(-0.00565481 0.0219779 0)
(-0.0124706 0.0223421 0)
(0.00303025 0.0405362 0)
(0.0373476 0.0588966 0)
(0.0825108 0.0680025 0)
(0.161575 0.0994672 0)
(0.223461 0.110113 0)
(0.259796 0.090744 0)
(0.259663 0.0715906 0)
(0.242118 0.0581775 0)
(0.20303 0.0592918 0)
(0.0704638 -0.0388713 0)
(-0.0503902 -0.0845256 0)
(-0.0999261 -0.104561 0)
(-0.111715 -0.0916971 0)
(-0.105428 -0.070079 0)
(-0.118755 -0.0646051 0)
(-0.172864 -0.0736361 0)
(-0.268865 -0.0908033 0)
(-0.3071 -0.0905181 0)
(-0.189388 -0.0338455 0)
(-0.0564176 -0.00108755 0)
(-0.0189052 0.00189008 0)
(-0.0112699 0.00190667 0)
(0.0372977 0.00212307 0)
(0.220992 0.00134029 0)
(0.319139 -0.000485072 0)
(0.195156 0.000828884 0)
(0.0932752 0.00151879 0)
(0.0838702 0.00123695 0)
(0.102118 0.00105162 0)
(0.0991539 0.000600088 0)
(0.0631206 0.000728809 0)
(0.0225929 0.000901297 0)
(-0.00263499 0.00133189 0)
(-0.00597035 0.00224583 0)
(-0.000271954 0.0423533 0)
(-0.00131744 0.0423382 0)
(-0.00310594 0.0417935 0)
(-0.0036829 0.0424661 0)
(-0.00486541 0.0456706 0)
(0.00240567 0.0567306 0)
(0.0283028 0.081855 0)
(0.0555001 0.103082 0)
(0.0935533 0.124976 0)
(0.162587 0.134348 0)
(0.227262 0.128969 0)
(0.250225 0.129307 0)
(0.241084 0.096325 0)
(0.235696 0.105291 0)
(0.138687 0.0270482 0)
(-0.00726927 -0.0738189 0)
(-0.0748002 -0.103102 0)
(-0.0975562 -0.103669 0)
(-0.0941207 -0.0844312 0)
(-0.0963643 -0.0720537 0)
(-0.123876 -0.0751079 0)
(-0.186839 -0.0876106 0)
(-0.274844 -0.105632 0)
(-0.274149 -0.0911735 0)
(-0.144786 -0.026188 0)
(-0.041062 -0.000822752 0)
(-0.0178623 0.000792739 0)
(-0.0111087 0.000678974 0)
(0.037225 0.00115241 0)
(0.220017 -8.32776e-05 0)
(0.318865 -0.00249142 0)
(0.195763 -0.00105065 0)
(0.0932172 -0.000176956 0)
(0.0835851 -0.000468688 0)
(0.101877 -0.000525877 0)
(0.0990877 -0.000715349 0)
(0.0633451 -8.92888e-05 0)
(0.0229049 0.000639937 0)
(-0.00202162 0.00125649 0)
(-0.00556011 0.00206095 0)
(-0.00030951 0.0743163 0)
(-0.00141382 0.0748231 0)
(-0.0023192 0.076567 0)
(0.00059244 0.0817863 0)
(0.00809096 0.0908786 0)
(0.022398 0.105645 0)
(0.0476958 0.120515 0)
(0.0789006 0.132777 0)
(0.11264 0.151929 0)
(0.165422 0.168091 0)
(0.218603 0.173152 0)
(0.228339 0.152792 0)
(0.236521 0.136353 0)
(0.17536 0.0778384 0)
(0.0304331 -0.0517093 0)
(-0.0549536 -0.0985389 0)
(-0.0791551 -0.109526 0)
(-0.0819345 -0.0953021 0)
(-0.0812489 -0.0803576 0)
(-0.0964437 -0.0793982 0)
(-0.133746 -0.0877211 0)
(-0.202278 -0.101752 0)
(-0.272298 -0.116255 0)
(-0.230545 -0.0804013 0)
(-0.102323 -0.0172231 0)
(-0.0304179 -0.000537989 0)
(-0.0174581 0.000288554 0)
(-0.0109233 0.000395137 0)
(0.0365631 0.00114197 0)
(0.21748 -0.00017812 0)
(0.318207 -0.00197286 0)
(0.197386 0.00198112 0)
(0.093836 0.00463602 0)
(0.083534 0.00447395 0)
(0.10188 0.00257707 0)
(0.0995746 0.000452004 0)
(0.0644266 -0.000262633 0)
(0.0238898 0.000549263 0)
(-0.00126565 0.00138425 0)
(-0.00519515 0.00222609 0)
(0.000216449 0.132157 0)
(0.000851405 0.13346 0)
(0.00360398 0.135031 0)
(0.0101083 0.137552 0)
(0.0181253 0.140996 0)
(0.0309639 0.148381 0)
(0.0544489 0.159367 0)
(0.0857727 0.169872 0)
(0.127583 0.183653 0)
(0.183038 0.205823 0)
(0.212519 0.1981 0)
(0.214764 0.156488 0)
(0.168856 0.0992155 0)
(0.0544724 -0.023459 0)
(-0.0312764 -0.092693 0)
(-0.0629838 -0.106741 0)
(-0.0716811 -0.100722 0)
(-0.0694482 -0.0869653 0)
(-0.0787951 -0.0812746 0)
(-0.10346 -0.0844496 0)
(-0.145417 -0.0913082 0)
(-0.214335 -0.105985 0)
(-0.25427 -0.107163 0)
(-0.178718 -0.051432 0)
(-0.067827 0.00146116 0)
(-0.0241872 0.0113289 0)
(-0.0169631 0.0121038 0)
(-0.0102863 0.0127862 0)
(0.0366726 0.0140253 0)
(0.217015 0.0145626 0)
(0.320945 0.0184287 0)
(0.202131 0.0260539 0)
(0.0956194 0.0288603 0)
(0.081601 0.025762 0)
(0.0980009 0.0208881 0)
(0.0963512 0.0147469 0)
(0.0634388 0.0087325 0)
(0.0244918 0.0035982 0)
(-0.000405764 0.00247395 0)
(-0.00474887 0.0028388 0)
(0.000945896 0.203095 0)
(0.00135533 0.201049 0)
(0.00162391 0.195557 0)
(0.00634127 0.194306 0)
(0.0185266 0.196894 0)
(0.0401007 0.205521 0)
(0.068405 0.213955 0)
(0.102303 0.217518 0)
(0.147284 0.22479 0)
(0.179345 0.219831 0)
(0.171061 0.161556 0)
(0.13305 0.0897964 0)
(0.0631176 -0.00128035 0)
(-0.00956971 -0.0823612 0)
(-0.0498204 -0.104371 0)
(-0.0626911 -0.103123 0)
(-0.0600986 -0.084345 0)
(-0.0631937 -0.0694486 0)
(-0.0788246 -0.0641668 0)
(-0.106112 -0.0602442 0)
(-0.154498 -0.0569282 0)
(-0.217557 -0.0660914 0)
(-0.219729 -0.044844 0)
(-0.12587 0.03409 0)
(-0.0418443 0.0757131 0)
(-0.0201623 0.08559 0)
(-0.0160537 0.0898755 0)
(-0.0090717 0.0942047 0)
(0.0382749 0.0984209 0)
(0.221724 0.113285 0)
(0.329281 0.142216 0)
(0.207439 0.145764 0)
(0.0935547 0.130637 0)
(0.0758517 0.106086 0)
(0.0912659 0.0796156 0)
(0.087861 0.0531751 0)
(0.0536833 0.0322023 0)
(0.0178588 0.0190685 0)
(-0.00199744 0.00881658 0)
(-0.00484356 0.00531475 0)
(-0.00175476 0.259708 0)
(-0.0064125 0.247408 0)
(-0.00289405 0.246609 0)
(0.0113966 0.248763 0)
(0.0289325 0.249452 0)
(0.0474046 0.243047 0)
(0.0660092 0.229831 0)
(0.0962141 0.225259 0)
(0.129813 0.216322 0)
(0.122103 0.153509 0)
(0.0872126 0.068079 0)
(0.0578491 -0.0027386 0)
(0.00295853 -0.0827933 0)
(-0.0448691 -0.107147 0)
(-0.0512831 -0.0907989 0)
(-0.0436865 -0.0542833 0)
(-0.0392314 -0.0226752 0)
(-0.0500037 0.00303152 0)
(-0.0699254 0.0312445 0)
(-0.0964847 0.0578274 0)
(-0.151051 0.0655121 0)
(-0.20269 0.0744955 0)
(-0.157732 0.138704 0)
(-0.0625447 0.217811 0)
(-0.0181997 0.24413 0)
(-0.0105398 0.252354 0)
(-0.00866171 0.256781 0)
(-0.0020517 0.261229 0)
(0.055059 0.268318 0)
(0.259218 0.299287 0)
(0.352243 0.312217 0)
(0.190973 0.277147 0)
(0.0573849 0.241218 0)
(0.0324355 0.203245 0)
(0.0470136 0.165986 0)
(0.0506621 0.125623 0)
(0.0305725 0.0852077 0)
(0.00195647 0.0521471 0)
(-0.0136594 0.0248713 0)
(-0.00812337 0.0112345 0)
(-0.0109072 0.270396 0)
(-0.0112671 0.263091 0)
(0.00293023 0.259664 0)
(0.00908036 0.24289 0)
(0.0130185 0.215298 0)
(0.0211932 0.194318 0)
(0.0512638 0.183635 0)
(0.0892861 0.1661 0)
(0.0781433 0.110806 0)
(0.0364921 0.0339097 0)
(0.020495 -0.0239216 0)
(-0.0123358 -0.0612634 0)
(-0.0374945 -0.0657395 0)
(-0.0172842 -0.021576 0)
(0.00112139 0.038827 0)
(0.00295542 0.0966985 0)
(-0.00486799 0.138622 0)
(-0.0112348 0.163525 0)
(-0.0260213 0.179326 0)
(-0.0730909 0.176293 0)
(-0.138436 0.153054 0)
(-0.147027 0.168529 0)
(-0.081625 0.244365 0)
(-0.0242776 0.285412 0)
(-0.00855789 0.291872 0)
(-0.00797108 0.291658 0)
(-0.00750159 0.290272 0)
(0.00204568 0.289627 0)
(0.0749497 0.295331 0)
(0.264026 0.311782 0)
(0.307946 0.266993 0)
(0.139021 0.21353 0)
(0.0223399 0.194567 0)
(0.00335508 0.177516 0)
(0.0164666 0.166581 0)
(0.0100202 0.151537 0)
(-0.017121 0.130469 0)
(-0.0402835 0.095973 0)
(-0.0414224 0.0553338 0)
(-0.0179845 0.0272447 0)
(-0.00879448 0.225792 0)
(-0.016755 0.232072 0)
(-0.0223607 0.211979 0)
(-0.0313554 0.198291 0)
(-0.0178728 0.193016 0)
(0.0168931 0.188325 0)
(0.0388172 0.164279 0)
(0.0260333 0.109437 0)
(0.00242908 0.0504382 0)
(-0.00772597 0.0312033 0)
(-0.00449963 0.048122 0)
(0.0175519 0.0806047 0)
(0.0412027 0.15176 0)
(0.055895 0.209711 0)
(0.0626905 0.234257 0)
(0.0524795 0.233526 0)
(0.0251648 0.221254 0)
(-0.01078 0.198499 0)
(-0.0576218 0.153525 0)
(-0.121801 0.0917579 0)
(-0.158532 0.0632695 0)
(-0.1147 0.104752 0)
(-0.0450989 0.154747 0)
(-0.016765 0.166545 0)
(-0.0121816 0.164495 0)
(-0.0120814 0.161829 0)
(-0.0106185 0.159766 0)
(0.00282301 0.158885 0)
(0.0764085 0.162373 0)
(0.23191 0.151988 0)
(0.257563 0.0943487 0)
(0.121182 0.0707534 0)
(0.0226805 0.0795314 0)
(0.00546644 0.0831376 0)
(0.0219796 0.0892412 0)
(0.0158634 0.0939161 0)
(-0.0229709 0.100078 0)
(-0.0704463 0.102187 0)
(-0.0798885 0.0820282 0)
(-0.0351911 0.0534479 0)
(-0.00485516 0.174896 0)
(-0.0245772 0.191463 0)
(-0.029622 0.207815 0)
(-0.00919353 0.232508 0)
(0.00341426 0.265286 0)
(-0.00649923 0.285614 0)
(-0.0247556 0.284817 0)
(-0.0204145 0.277722 0)
(0.00275469 0.273013 0)
(0.0342601 0.2739 0)
(0.0681 0.284486 0)
(0.0875332 0.295235 0)
(0.0869174 0.286209 0)
(0.062213 0.258714 0)
(0.0240702 0.209281 0)
(-0.00957483 0.147115 0)
(-0.0386214 0.0882665 0)
(-0.0765009 0.0380033 0)
(-0.128881 -0.0167403 0)
(-0.160064 -0.0496669 0)
(-0.125914 -0.0177102 0)
(-0.0588762 0.0493097 0)
(-0.0220793 0.0783646 0)
(-0.0148835 0.0827238 0)
(-0.0131026 0.083005 0)
(-0.0125279 0.08349 0)
(-0.0103384 0.0842389 0)
(0.00455816 0.0851894 0)
(0.0683037 0.0867312 0)
(0.198475 0.0622083 0)
(0.229665 0.0130104 0)
(0.124743 0.00521713 0)
(0.0342738 0.0160153 0)
(0.0127118 0.0219326 0)
(0.0268532 0.0238648 0)
(0.020463 0.0246052 0)
(-0.00915127 0.0284079 0)
(-0.0576771 0.0506312 0)
(-0.0883887 0.0704118 0)
(-0.0455255 0.0702484 0)
(0.00716975 0.113408 0)
(0.0149668 0.135187 0)
(0.0171918 0.184989 0)
(0.0240259 0.220183 0)
(0.0333023 0.248495 0)
(0.035714 0.27805 0)
(0.0312123 0.322378 0)
(0.0146582 0.36385 0)
(-0.00125471 0.369753 0)
(0.00333022 0.343189 0)
(0.0160602 0.286857 0)
(0.0192116 0.215494 0)
(0.00600945 0.140078 0)
(-0.0182349 0.0716003 0)
(-0.0448502 0.0227221 0)
(-0.0641348 -0.0109028 0)
(-0.0799793 -0.0429532 0)
(-0.111968 -0.0772523 0)
(-0.142104 -0.0907994 0)
(-0.122736 -0.0512446 0)
(-0.0631549 0.0184308 0)
(-0.0221188 0.0607542 0)
(-0.0128999 0.0717359 0)
(-0.0122934 0.0750922 0)
(-0.0114432 0.0772035 0)
(-0.0108923 0.0793402 0)
(-0.00898093 0.0814042 0)
(0.00522471 0.0824602 0)
(0.054263 0.0820627 0)
(0.16087 0.0528573 0)
(0.202645 0.00578069 0)
(0.124077 -2.6285e-05 0)
(0.0387881 0.00711143 0)
(0.0130305 0.00811842 0)
(0.024555 0.000428266 0)
(0.0202413 -0.00902402 0)
(0.00210873 -0.0126092 0)
(-0.0299697 -0.000258955 0)
(-0.0609847 0.0293612 0)
(-0.0353486 0.0518349 0)
(0.0161322 0.041781 0)
(0.0444011 0.0428758 0)
(0.0522836 0.0662396 0)
(0.0520029 0.0826312 0)
(0.0591762 0.10003 0)
(0.0646979 0.117354 0)
(0.057925 0.140033 0)
(0.0252371 0.15331 0)
(-0.017155 0.155652 0)
(-0.0456213 0.137355 0)
(-0.0549518 0.0935453 0)
(-0.0539086 0.0370211 0)
(-0.0517438 -0.0112402 0)
(-0.0508751 -0.0422973 0)
(-0.0554328 -0.0561054 0)
(-0.072862 -0.0615573 0)
(-0.102558 -0.0724484 0)
(-0.122607 -0.0792815 0)
(-0.103819 -0.0430089 0)
(-0.0548059 0.0229104 0)
(-0.0179877 0.0717968 0)
(-0.00750953 0.0864601 0)
(-0.00826278 0.0907234 0)
(-0.00961473 0.0930384 0)
(-0.00900906 0.095166 0)
(-0.00848007 0.097309 0)
(-0.00733185 0.0995387 0)
(0.00519271 0.100271 0)
(0.0397772 0.0973814 0)
(0.124967 0.0714889 0)
(0.178704 0.0233801 0)
(0.126025 0.015772 0)
(0.0421224 0.0230045 0)
(0.00627165 0.022646 0)
(0.0103341 0.00674057 0)
(0.0078996 -0.008388 0)
(-0.000704929 -0.0174422 0)
(-0.0172328 -0.0190864 0)
(-0.0381891 -0.000901435 0)
(-0.0238691 0.0211466 0)
(0.00822473 -0.00684228 0)
(0.0385359 -0.0184687 0)
(0.0555015 -0.0199569 0)
(0.0565879 -0.0176898 0)
(0.0667622 -0.00962435 0)
(0.0742621 0.0014531 0)
(0.0658614 0.014551 0)
(0.0297097 0.0207808 0)
(-0.0166297 0.0239164 0)
(-0.0565185 0.0158403 0)
(-0.0806253 -0.00849495 0)
(-0.0817636 -0.032431 0)
(-0.0704246 -0.0412518 0)
(-0.0614687 -0.0439162 0)
(-0.0634099 -0.0503527 0)
(-0.0798835 -0.0615568 0)
(-0.0970589 -0.0588294 0)
(-0.0835994 -0.0217041 0)
(-0.0436282 0.0356738 0)
(-0.0121047 0.0771465 0)
(-0.00191616 0.0922545 0)
(-0.00388038 0.0946263 0)
(-0.00656075 0.0950515 0)
(-0.00801236 0.0957586 0)
(-0.00732789 0.0969245 0)
(-0.00667858 0.0981743 0)
(-0.00612685 0.099981 0)
(0.00314584 0.100799 0)
(0.0265278 0.0943422 0)
(0.0895593 0.076578 0)
(0.148954 0.0232619 0)
(0.123715 0.00988697 0)
(0.0454123 0.0173965 0)
(-0.002642 0.0206388 0)
(-0.00535056 0.00570208 0)
(-0.00306211 -0.00673166 0)
(-0.00820061 -0.0165135 0)
(-0.0140305 -0.0251223 0)
(-0.0222148 -0.019695 0)
(-0.0141023 -0.0037806 0)
(0.0049286 -0.0358035 0)
(0.0317634 -0.0508644 0)
(0.0530342 -0.0590746 0)
(0.0619596 -0.0601221 0)
(0.077623 -0.0504898 0)
(0.0879941 -0.040986 0)
(0.0765499 -0.0322716 0)
(0.034262 -0.0305534 0)
(-0.0219158 -0.0279783 0)
(-0.0768541 -0.0355236 0)
(-0.101468 -0.0533495 0)
(-0.0854743 -0.0561778 0)
(-0.0628113 -0.0479612 0)
(-0.059645 -0.0431258 0)
(-0.0724319 -0.0473855 0)
(-0.0810304 -0.044615 0)
(-0.0641546 -0.0171886 0)
(-0.0315404 0.0276757 0)
(-0.00856306 0.0593601 0)
(-0.000282733 0.0706097 0)
(-0.00114356 0.0697802 0)
(-0.00481417 0.0673946 0)
(-0.00717163 0.0657188 0)
(-0.00780987 0.0652246 0)
(-0.00668128 0.0656882 0)
(-0.00553473 0.0662216 0)
(-0.00480255 0.0676913 0)
(-0.000240984 0.0688714 0)
(0.0164369 0.0627966 0)
(0.0564715 0.0500199 0)
(0.114439 0.0032211 0)
(0.120373 -0.026241 0)
(0.0524833 -0.016389 0)
(-0.00499755 0.000772078 0)
(-0.0160411 -0.00136781 0)
(-0.0135082 -0.0100446 0)
(-0.0184268 -0.0207949 0)
(-0.0202985 -0.0231206 0)
(-0.0176235 -0.0255687 0)
(-0.00853341 -0.037016 0)
(-0.00628847 -0.213796 0)
(0.016111 -0.117736 0)
(0.0465804 -0.0742828 0)
(0.0648605 -0.0843914 0)
(0.0852025 -0.0813641 0)
(0.0918178 -0.0798302 0)
(0.0759147 -0.0816873 0)
(0.0338469 -0.087547 0)
(-0.0214192 -0.0880326 0)
(-0.0809672 -0.0916379 0)
(-0.100528 -0.0853889 0)
(-0.0765711 -0.0681555 0)
(-0.0578472 -0.0602865 0)
(-0.0609139 -0.0591836 0)
(-0.0648449 -0.050667 0)
(-0.0507847 -0.0254789 0)
(-0.0273969 0.00721781 0)
(-0.00983421 0.0279827 0)
(-0.00225545 0.0345 0)
(-0.00206358 0.0332006 0)
(-0.00501434 0.0294845 0)
(-0.0077941 0.0263603 0)
(-0.00865178 0.0247668 0)
(-0.00804182 0.0244702 0)
(-0.00636715 0.0251921 0)
(-0.00474834 0.025692 0)
(-0.00357348 0.0269232 0)
(-0.00157086 0.0279873 0)
(0.00836185 0.0258618 0)
(0.0321502 0.0137584 0)
(0.0754661 -0.0180363 0)
(0.104818 -0.0641234 0)
(0.071443 -0.0687662 0)
(0.0118329 -0.0397205 0)
(-0.0157739 -0.0202501 0)
(-0.0217827 -0.0161399 0)
(-0.0208011 -0.0221768 0)
(-0.0186308 -0.0194842 0)
(-0.0356049 -0.055216 0)
(-0.0251333 -0.184763 0)
(0.0974956 -0.657793 0)
(0.166203 -0.332346 0)
(0.085166 -0.0787707 0)
(0.0551358 -0.0711062 0)
(0.0820183 -0.0821904 0)
(0.0876827 -0.094098 0)
(0.0691136 -0.1112 0)
(0.0281475 -0.122922 0)
(-0.0258579 -0.137502 0)
(-0.0743066 -0.143403 0)
(-0.0788393 -0.119489 0)
(-0.0612847 -0.0941493 0)
(-0.0541657 -0.0810077 0)
(-0.0503753 -0.0683961 0)
(-0.0399528 -0.0453824 0)
(-0.0252506 -0.0199984 0)
(-0.012637 -0.0035511 0)
(-0.00525031 0.002515 0)
(-0.00353491 0.0016473 0)
(-0.00511582 -0.0013649 0)
(-0.00773513 -0.00385739 0)
(-0.00936031 -0.00504087 0)
(-0.00899302 -0.00498422 0)
(-0.00740003 -0.00398138 0)
(-0.00550385 -0.00232405 0)
(-0.00386659 -0.000976231 0)
(-0.0025908 0.000395817 0)
(-0.00126378 0.00155489 0)
(0.00272547 0.001815 0)
(0.0141696 -0.00553587 0)
(0.0393888 -0.0256285 0)
(0.071488 -0.065429 0)
(0.0759988 -0.0927925 0)
(0.0417543 -0.0726932 0)
(0.006682 -0.0443342 0)
(-0.0153648 -0.0251642 0)
(-0.0216495 -0.0203336 0)
(-0.0521363 -0.0370143 0)
(-0.176892 -0.17808 0)
(-0.13337 -0.474201 0)
(0.307324 -0.46554 0)
(0.574078 -0.247794 0)
(0.298321 -0.0422736 0)
(0.0615652 -0.0265951 0)
(0.0630467 -0.0356017 0)
(0.0638628 -0.0462826 0)
(0.0481392 -0.0603204 0)
(0.00850193 -0.0680486 0)
(-0.0411553 -0.0807073 0)
(-0.0636096 -0.0839233 0)
(-0.0530663 -0.0696066 0)
(-0.039489 -0.0571777 0)
(-0.0330305 -0.0469884 0)
(-0.0265841 -0.0352449 0)
(-0.0182071 -0.0222994 0)
(-0.0104745 -0.0126786 0)
(-0.00570223 -0.00696583 0)
(-0.00482485 -0.0054821 0)
(-0.00599426 -0.00652431 0)
(-0.0073681 -0.00803426 0)
(-0.00855664 -0.00886158 0)
(-0.00887995 -0.00888677 0)
(-0.00763082 -0.00836309 0)
(-0.00547838 -0.00747316 0)
(-0.00347128 -0.00636892 0)
(-0.00212738 -0.00536389 0)
(-0.0011344 -0.00456408 0)
(-0.000203281 -0.00385253 0)
(0.00152894 -0.00346356 0)
(0.00570458 -0.00509421 0)
(0.0177509 -0.0122481 0)
(0.0400968 -0.0275487 0)
(0.064443 -0.0448239 0)
(0.0585292 -0.0395406 0)
(0.0300267 -0.0274161 0)
(0.00134515 -0.0153149 0)
(-0.0322203 -0.0100755 0)
(-0.170641 -0.0262846 0)
(-0.456894 -0.133052 0)
(-0.310486 -0.316853 0)
(0.307324 0.46554 0)
(0.574078 0.247794 0)
(0.298321 0.0422736 0)
(0.0615652 0.0265951 0)
(0.0630467 0.0356017 0)
(0.0638628 0.0462826 0)
(0.0481392 0.0603204 0)
(0.00850193 0.0680486 0)
(-0.0411553 0.0807073 0)
(-0.0636096 0.0839233 0)
(-0.0530663 0.0696066 0)
(-0.039489 0.0571777 0)
(-0.0330305 0.0469884 0)
(-0.0265841 0.0352449 0)
(-0.0182071 0.0222994 0)
(-0.0104745 0.0126786 0)
(-0.00570223 0.00696583 0)
(-0.00482485 0.0054821 0)
(-0.00599426 0.00652431 0)
(-0.0073681 0.00803426 0)
(-0.00855664 0.00886158 0)
(-0.00887995 0.00888677 0)
(-0.00763082 0.00836309 0)
(-0.00547838 0.00747316 0)
(-0.00347128 0.00636892 0)
(-0.00212738 0.00536389 0)
(-0.0011344 0.00456408 0)
(-0.000203281 0.00385253 0)
(0.00152894 0.00346356 0)
(0.00570458 0.00509421 0)
(0.0177509 0.0122481 0)
(0.0400968 0.0275487 0)
(0.064443 0.0448239 0)
(0.0585292 0.0395406 0)
(0.0300267 0.0274161 0)
(0.00134515 0.0153149 0)
(-0.0322203 0.0100755 0)
(-0.170641 0.0262846 0)
(-0.456894 0.133052 0)
(-0.310486 0.316853 0)
(0.0974956 0.657793 0)
(0.166203 0.332346 0)
(0.085166 0.0787707 0)
(0.0551358 0.0711062 0)
(0.0820183 0.0821904 0)
(0.0876827 0.094098 0)
(0.0691136 0.1112 0)
(0.0281475 0.122922 0)
(-0.0258579 0.137502 0)
(-0.0743066 0.143403 0)
(-0.0788393 0.119489 0)
(-0.0612847 0.0941493 0)
(-0.0541657 0.0810077 0)
(-0.0503753 0.0683961 0)
(-0.0399528 0.0453824 0)
(-0.0252506 0.0199984 0)
(-0.012637 0.0035511 0)
(-0.00525031 -0.002515 0)
(-0.00353491 -0.0016473 0)