/*--------------------------------*- C++ -*----------------------------------*\
| =========                 |                                                 |
| \\      /  F ield         | OpenFOAM: The Open Source CFD Toolbox           |
|  \\    /   O peration     | Version:  v1912                                 |
|   \\  /    A nd           | Website:  www.openfoam.com                      |
|    \\/     M anipulation  |                                                 |
\*---------------------------------------------------------------------------*/
FoamFile
{
    version     2.0;
    format      ascii;
    class       volVectorField;
    location    "1";
    object      U;
}
// * * * * * * * * * * * * * * * * * * * * * * * * * * * * * * * * * * * * * //

dimensions      [0 1 -1 0 0 0 0];


internalField   nonuniform List<vector> 
10000
(
(2.98048e-06 -3.14676e-06 0)
(1.51379e-05 -7.95713e-06 0)
(3.46849e-05 -9.16938e-06 0)
(5.3101e-05 -7.92065e-06 0)
(6.52425e-05 -5.36295e-06 0)
(6.86245e-05 -2.16632e-06 0)
(6.195e-05 1.29687e-06 0)
(4.46231e-05 4.8145e-06 0)
(1.65154e-05 8.26571e-06 0)
(-2.22012e-05 1.1581e-05 0)
(-7.11606e-05 1.47202e-05 0)
(-0.000129868 1.76593e-05 0)
(-0.000197743 2.03845e-05 0)
(-0.000274149 2.28886e-05 0)
(-0.000358415 2.51685e-05 0)
(-0.000449844 2.72236e-05 0)
(-0.000547733 2.90558e-05 0)
(-0.000651371 3.06679e-05 0)
(-0.000760051 3.20639e-05 0)
(-0.000873074 3.32487e-05 0)
(-0.000989749 3.42273e-05 0)
(-0.0011094 3.50055e-05 0)
(-0.00123136 3.55892e-05 0)
(-0.00135499 3.59845e-05 0)
(-0.00147966 3.61979e-05 0)
(-0.00160476 3.62357e-05 0)
(-0.00172971 3.61043e-05 0)
(-0.00185393 3.58104e-05 0)
(-0.00197687 3.53603e-05 0)
(-0.00209801 3.47606e-05 0)
(-0.00221685 3.40179e-05 0)
(-0.00233289 3.31388e-05 0)
(-0.00244569 3.21296e-05 0)
(-0.00255479 3.0997e-05 0)
(-0.00265978 2.97472e-05 0)
(-0.00276026 2.83867e-05 0)
(-0.00285586 2.6922e-05 0)
(-0.00294622 2.53595e-05 0)
(-0.00303103 2.37057e-05 0)
(-0.00310996 2.1967e-05 0)
(-0.00318274 2.01499e-05 0)
(-0.00324911 1.82608e-05 0)
(-0.00330882 1.63063e-05 0)
(-0.00336166 1.42929e-05 0)
(-0.00340743 1.22274e-05 0)
(-0.00344598 1.01165e-05 0)
(-0.00347714 7.96708e-06 0)
(-0.00350081 5.78609e-06 0)
(-0.00351689 3.58048e-06 0)
(-0.0035253 1.35736e-06 0)
(-0.003526 -8.76032e-07 0)
(-0.00351896 -3.11231e-06 0)
(-0.0035042 -5.34395e-06 0)
(-0.00348175 -7.56328e-06 0)
(-0.00345167 -9.76257e-06 0)
(-0.00341403 -1.1934e-05 0)
(-0.00336896 -1.40697e-05 0)
(-0.00331659 -1.61615e-05 0)
(-0.0032571 -1.82014e-05 0)
(-0.00319068 -2.0181e-05 0)
(-0.00311756 -2.2092e-05 0)
(-0.00303799 -2.39259e-05 0)
(-0.00295225 -2.56745e-05 0)
(-0.00286067 -2.73293e-05 0)
(-0.00276357 -2.88819e-05 0)
(-0.00266133 -3.03241e-05 0)
(-0.00255435 -3.16474e-05 0)
(-0.00244305 -3.28437e-05 0)
(-0.00232788 -3.39047e-05 0)
(-0.00220933 -3.48225e-05 0)
(-0.0020879 -3.55894e-05 0)
(-0.00196411 -3.61978e-05 0)
(-0.00183853 -3.66405e-05 0)
(-0.00171173 -3.69105e-05 0)
(-0.00158432 -3.70009e-05 0)
(-0.00145692 -3.69055e-05 0)
(-0.00133015 -3.66182e-05 0)
(-0.00120469 -3.61334e-05 0)
(-0.00108121 -3.54463e-05 0)
(-0.000960389 -3.45524e-05 0)
(-0.000842926 -3.34476e-05 0)
(-0.000729524 -3.21289e-05 0)
(-0.000620895 -3.05935e-05 0)
(-0.000517747 -2.884e-05 0)
(-0.000420788 -2.68677e-05 0)
(-0.000330715 -2.46774e-05 0)
(-0.000248209 -2.22716e-05 0)
(-0.000173929 -1.96549e-05 0)
(-0.000108498 -1.68349e-05 0)
(-5.24884e-05 -1.38236e-05 0)
(-6.40422e-06 -1.06396e-05 0)
(2.9351e-05 -7.31178e-06 0)
(5.45152e-05 -3.88574e-06 0)
(6.90331e-05 -4.36391e-07 0)
(7.31615e-05 2.90998e-06 0)
(6.76327e-05 5.93686e-06 0)
(5.38828e-05 8.2707e-06 0)
(3.45267e-05 9.24945e-06 0)
(1.47595e-05 7.75663e-06 0)
(2.82486e-06 2.8251e-06 0)
(7.85713e-06 -1.53846e-05 0)
(3.20129e-05 -3.2182e-05 0)
(6.45833e-05 -3.44193e-05 0)
(9.07992e-05 -2.63868e-05 0)
(0.000100884 -1.20108e-05 0)
(8.91857e-05 6.04117e-06 0)
(5.22229e-05 2.60241e-05 0)
(-1.19312e-05 4.67954e-05 0)
(-0.000104038 6.7606e-05 0)
(-0.000224033 8.79601e-05 0)
(-0.000371267 0.000107526 0)
(-0.000544676 0.000126081 0)
(-0.000742905 0.000143473 0)
(-0.000964391 0.000159601 0)
(-0.00120742 0.000174403 0)
(-0.0014702 0.000187839 0)
(-0.00175086 0.000199891 0)
(-0.00204749 0.000210553 0)
(-0.00235818 0.000219832 0)
(-0.00268102 0.000227742 0)
(-0.0030141 0.000234304 0)
(-0.00335554 0.000239544 0)
(-0.0037035 0.000243491 0)
(-0.00405617 0.00024618 0)
(-0.0044118 0.000247645 0)
(-0.00476865 0.000247923 0)
(-0.00512506 0.000247055 0)
(-0.00547943 0.00024508 0)
(-0.00583018 0.000242038 0)
(-0.00617583 0.000237973 0)
(-0.00651492 0.000232926 0)
(-0.00684608 0.000226939 0)
(-0.00716799 0.000220057 0)
(-0.00747937 0.000212323 0)
(-0.00777904 0.000203779 0)
(-0.00806585 0.00019447 0)
(-0.00833873 0.000184441 0)
(-0.00859668 0.000173734 0)
(-0.00883874 0.000162395 0)
(-0.00906403 0.000150468 0)
(-0.00927174 0.000137999 0)
(-0.00946111 0.000125032 0)
(-0.00963147 0.000111614 0)
(-0.00978218 9.7791e-05 0)
(-0.0099127 8.3609e-05 0)
(-0.0100226 6.91159e-05 0)
(-0.0101113 5.43595e-05 0)
(-0.0101787 3.93882e-05 0)
(-0.0102243 2.42513e-05 0)
(-0.010248 8.99841e-06 0)
(-0.0102497 -6.31984e-06 0)
(-0.0102294 -2.16521e-05 0)
(-0.0101869 -3.69463e-05 0)
(-0.0101225 -5.21494e-05 0)
(-0.0100364 -6.72079e-05 0)
(-0.00992864 -8.20676e-05 0)
(-0.00979972 -9.66737e-05 0)
(-0.00965 -0.000110971 0)
(-0.00947998 -0.000124903 0)
(-0.00929023 -0.000138415 0)
(-0.0090814 -0.000151448 0)
(-0.00885422 -0.000163946 0)
(-0.00860952 -0.000175852 0)
(-0.00834817 -0.00018711 0)
(-0.00807118 -0.000197663 0)
(-0.00777958 -0.000207455 0)
(-0.00747452 -0.000216431 0)
(-0.00715722 -0.000224536 0)
(-0.00682896 -0.000231715 0)
(-0.0064911 -0.000237918 0)
(-0.0061451 -0.000243093 0)
(-0.00579244 -0.000247192 0)
(-0.00543472 -0.000250168 0)
(-0.00507356 -0.000251976 0)
(-0.00471066 -0.000252575 0)
(-0.00434777 -0.000251926 0)
(-0.00398669 -0.000249994 0)
(-0.00362927 -0.000246746 0)
(-0.00327738 -0.000242156 0)
(-0.00293294 -0.000236201 0)
(-0.00259788 -0.000228865 0)
(-0.00227414 -0.000220135 0)
(-0.00196368 -0.00021001 0)
(-0.00166843 -0.000198492 0)
(-0.0013903 -0.000185598 0)
(-0.00113115 -0.000171354 0)
(-0.000892799 -0.000155804 0)
(-0.000676939 -0.000139012 0)
(-0.000485147 -0.000121067 0)
(-0.000318821 -0.000102097 0)
(-0.000179117 -8.22783e-05 0)
(-6.68647e-05 -6.18599e-05 0)
(1.75468e-05 -4.11979e-05 0)
(7.43373e-05 -2.08091e-05 0)
(0.00010457 -1.45802e-06 0)
(0.000110475 1.57096e-05 0)
(9.58136e-05 2.89706e-05 0)
(6.64522e-05 3.57289e-05 0)
(3.22418e-05 3.22392e-05 0)
(7.74851e-06 1.47481e-05 0)
(9.15328e-06 -3.48242e-05 0)
(3.44727e-05 -6.47493e-05 0)
(6.36308e-05 -6.34585e-05 0)
(7.90166e-05 -3.99706e-05 0)
(6.88302e-05 -1.64716e-06 0)
(2.57378e-05 4.6011e-05 0)
(-5.51143e-05 9.90433e-05 0)
(-0.00017663 0.000154648 0)
(-0.000340144 0.000210853 0)
(-0.000545806 0.00026627 0)
(-0.00079288 0.000319915 0)
(-0.00107997 0.000371093 0)
(-0.00140519 0.000419313 0)
(-0.0017663 0.00046423 0)
(-0.00216079 0.00050561 0)
(-0.00258597 0.000543299 0)
(-0.00303901 0.000577202 0)
(-0.00351702 0.000607273 0)
(-0.00401705 0.000633502 0)
(-0.00453614 0.000655905 0)
(-0.00507132 0.000674523 0)
(-0.00561965 0.000689412 0)
(-0.00617824 0.000700644 0)
(-0.00674425 0.0007083 0)
(-0.00731487 0.000712472 0)
(-0.00788738 0.00071326 0)
(-0.00845915 0.000710766 0)
(-0.00902759 0.000705101 0)
(-0.00959023 0.000696377 0)
(-0.0101447 0.00068471 0)
(-0.0106886 0.000670218 0)
(-0.0112198 0.000653021 0)
(-0.0117361 0.000633242 0)
(-0.0122356 0.000611004 0)
(-0.0127163 0.00058643 0)
(-0.0131763 0.000559648 0)
(-0.013614 0.000530782 0)
(-0.0140277 0.000499961 0)
(-0.014416 0.000467312 0)
(-0.0147773 0.000432966 0)
(-0.0151104 0.000397053 0)
(-0.015414 0.000359704 0)
(-0.0156872 0.000321052 0)
(-0.0159287 0.000281231 0)
(-0.0161379 0.000240377 0)
(-0.0163139 0.000198628 0)
(-0.016456 0.000156122 0)
(-0.0165638 0.000113001 0)
(-0.0166367 6.94076e-05 0)
(-0.0166744 2.54858e-05 0)
(-0.0166768 -1.86173e-05 0)
(-0.0166438 -6.27531e-05 0)
(-0.0165754 -0.000106771 0)
(-0.0164718 -0.000150517 0)
(-0.0163332 -0.000193838 0)
(-0.0161602 -0.000236576 0)
(-0.0159531 -0.000278574 0)
(-0.0157127 -0.000319672 0)
(-0.0154398 -0.000359709 0)
(-0.0151353 -0.000398523 0)
(-0.0148002 -0.000435952 0)
(-0.0144358 -0.000471833 0)
(-0.0140434 -0.000506004 0)
(-0.0136243 -0.000538301 0)
(-0.0131802 -0.000568565 0)
(-0.0127127 -0.000596635 0)
(-0.0122237 -0.000622355 0)
(-0.0117151 -0.00064557 0)
(-0.0111891 -0.000666129 0)
(-0.0106477 -0.000683884 0)
(-0.0100932 -0.000698694 0)
(-0.00952816 -0.000710422 0)
(-0.00895497 -0.000718939 0)
(-0.00837626 -0.000724121 0)
(-0.00779471 -0.000725856 0)
(-0.00721311 -0.000724037 0)
(-0.0066343 -0.000718572 0)
(-0.00606119 -0.000709379 0)
(-0.00549675 -0.000696388 0)
(-0.00494398 -0.000679547 0)
(-0.0044059 -0.00065882 0)
(-0.00388556 -0.000634191 0)
(-0.00338597 -0.000605668 0)
(-0.00291014 -0.000573285 0)
(-0.002461 -0.00053711 0)
(-0.00204139 -0.000497251 0)
(-0.00165404 -0.000453866 0)
(-0.00130148 -0.000407176 0)
(-0.00098602 -0.000357485 0)
(-0.000709657 -0.000305203 0)
(-0.000473982 -0.000250889 0)
(-0.00028005 -0.000195299 0)
(-0.000128221 -0.000139472 0)
(-1.79419e-05 -8.48397e-05 0)
(5.25439e-05 -3.3394e-05 0)
(8.65521e-05 1.20782e-05 0)
(8.93061e-05 4.76966e-05 0)
(6.84148e-05 6.81519e-05 0)
(3.58476e-05 6.64748e-05 0)
(9.25827e-06 3.45149e-05 0)
(7.99604e-06 -5.33141e-05 0)
(2.67928e-05 -9.12016e-05 0)
(4.08572e-05 -7.89775e-05 0)
(3.22343e-05 -3.11046e-05 0)
(-1.14533e-05 4.14165e-05 0)
(-9.83024e-05 0.000130087 0)
(-0.000233852 0.000228497 0)
(-0.000421542 0.000331903 0)
(-0.000663063 0.000436819 0)
(-0.000958717 0.000540689 0)
(-0.00130772 0.000641639 0)
(-0.00170845 0.000738296 0)
(-0.00215863 0.000829663 0)
(-0.0026555 0.000915019 0)
(-0.00319591 0.000993853 0)
(-0.00377647 0.00106581 0)
(-0.00439356 0.00113067 0)
(-0.00504344 0.00118829 0)
(-0.00572228 0.00123862 0)
(-0.00642622 0.00128166 0)
(-0.00715137 0.00131746 0)
(-0.00789385 0.0013461 0)
(-0.00864984 0.00136771 0)
(-0.00941556 0.00138241 0)
(-0.0101873 0.00139039 0)
(-0.0109614 0.00139181 0)
(-0.0117343 0.00138687 0)
(-0.0125027 0.00137577 0)
(-0.0132631 0.00135872 0)
(-0.0140124 0.00133594 0)
(-0.0147474 0.00130766 0)
(-0.0154652 0.00127411 0)
(-0.0161629 0.00123552 0)
(-0.0168378 0.00119213 0)
(-0.0174872 0.00114418 0)
(-0.0181088 0.00109191 0)
(-0.0187001 0.00103557 0)
(-0.019259 0.00097541 0)
(-0.0197834 0.000911678 0)
(-0.0202715 0.000844628 0)
(-0.0207213 0.000774514 0)
(-0.0211314 0.000701595 0)
(-0.0215002 0.000626132 0)
(-0.0218263 0.000548387 0)
(-0.0221087 0.000468627 0)
(-0.0223461 0.000387122 0)
(-0.0225378 0.000304144 0)
(-0.022683 0.00021997 0)
(-0.0227812 0.00013488 0)
(-0.0228318 4.91577e-05 0)
(-0.0228347 -3.69088e-05 0)
(-0.0227897 -0.000123028 0)
(-0.022697 -0.000208906 0)
(-0.0225566 -0.000294242 0)
(-0.0223691 -0.000378735 0)
(-0.022135 -0.000462079 0)
(-0.0218549 -0.000543964 0)
(-0.02153 -0.000624081 0)
(-0.0211611 -0.000702114 0)
(-0.0207496 -0.000777751 0)
(-0.0202969 -0.000850674 0)
(-0.0198046 -0.000920568 0)
(-0.0192744 -0.000987117 0)
(-0.0187084 -0.00105001 0)
(-0.0181086 -0.00110893 0)
(-0.0174774 -0.00116357 0)
(-0.0168171 -0.00121362 0)
(-0.0161304 -0.0012588 0)
(-0.0154201 -0.00129881 0)
(-0.0146892 -0.00133337 0)
(-0.0139406 -0.0013622 0)
(-0.0131776 -0.00138505 0)
(-0.0124037 -0.00140167 0)
(-0.0116221 -0.00141183 0)
(-0.0108367 -0.00141532 0)
(-0.010051 -0.00141194 0)
(-0.00926879 -0.00140151 0)
(-0.00849404 -0.00138391 0)
(-0.00773064 -0.001359 0)
(-0.00698255 -0.00132669 0)
(-0.00625379 -0.00128694 0)
(-0.00554834 -0.00123974 0)
(-0.00487017 -0.00118512 0)
(-0.00422318 -0.00112319 0)
(-0.00361118 -0.0010541 0)
(-0.00303784 -0.000978102 0)
(-0.00250665 -0.000895544 0)
(-0.00202081 -0.000806897 0)
(-0.00158321 -0.000712798 0)
(-0.0011963 -0.000614088 0)
(-0.000862001 -0.000511883 0)
(-0.000581503 -0.000407661 0)
(-0.000355132 -0.000303385 0)
(-0.000182093 -0.000201678 0)
(-6.01905e-05 -0.000106048 0)
(1.45144e-05 -2.11947e-05 0)
(4.80088e-05 4.66185e-05 0)
(4.87423e-05 8.92016e-05 0)
(2.94148e-05 9.61177e-05 0)
(8.34154e-06 5.39783e-05 0)
(5.55265e-06 -6.57816e-05 0)
(1.28889e-05 -0.000101952 0)
(3.52016e-06 -6.94034e-05 0)
(-3.87774e-05 1.23375e-05 0)
(-0.000125861 0.000128749 0)
(-0.000265946 0.000268432 0)
(-0.000464728 0.00042255 0)
(-0.000725798 0.000584363 0)
(-0.00105095 0.000748762 0)
(-0.00144052 0.000911883 0)
(-0.00189362 0.00107081 0)
(-0.00240843 0.00122337 0)
(-0.00298234 0.00136791 0)
(-0.00361219 0.00150323 0)
(-0.0042943 0.00162845 0)
(-0.00502467 0.00174295 0)
(-0.00579904 0.00184631 0)
(-0.00661295 0.00193824 0)
(-0.00746182 0.00201863 0)
(-0.00834099 0.00208741 0)
(-0.00924577 0.00214464 0)
(-0.0101715 0.00219043 0)
(-0.0111134 0.00222493 0)
(-0.012067 0.00224835 0)
(-0.0130278 0.00226093 0)
(-0.0139911 0.00226295 0)
(-0.0149528 0.00225469 0)
(-0.0159086 0.00223648 0)
(-0.0168543 0.00220864 0)
(-0.0177861 0.00217152 0)
(-0.0187 0.00212548 0)
(-0.0195924 0.00207089 0)
(-0.0204597 0.00200812 0)
(-0.0212986 0.00193755 0)
(-0.0221058 0.00185957 0)
(-0.0228783 0.00177457 0)
(-0.0236132 0.00168296 0)
(-0.0243078 0.00158513 0)
(-0.0249594 0.0014815 0)
(-0.0255658 0.00137246 0)
(-0.0261247 0.00125845 0)
(-0.0266341 0.00113987 0)
(-0.0270922 0.00101716 0)
(-0.0274972 0.000890742 0)
(-0.0278478 0.000761052 0)
(-0.0281425 0.00062853 0)
(-0.0283804 0.000493621 0)
(-0.0285605 0.000356776 0)
(-0.0286821 0.000218452 0)
(-0.0287446 7.91129e-05 0)
(-0.0287478 -6.07732e-05 0)
(-0.0286915 -0.000200731 0)
(-0.0285758 -0.00034028 0)
(-0.0284011 -0.000478935 0)
(-0.0281677 -0.000616202 0)
(-0.0278765 -0.000751584 0)
(-0.0275282 -0.000884582 0)
(-0.0271242 -0.00101469 0)
(-0.0266657 -0.0011414 0)
(-0.0261542 -0.00126419 0)
(-0.0255916 -0.00138257 0)
(-0.0249798 -0.00149602 0)
(-0.0243211 -0.00160403 0)
(-0.0236178 -0.00170608 0)
(-0.0228727 -0.00180169 0)
(-0.0220885 -0.00189035 0)
(-0.0212682 -0.00197158 0)
(-0.0204152 -0.00204489 0)
(-0.0195328 -0.00210983 0)
(-0.0186247 -0.00216594 0)
(-0.0176947 -0.00221279 0)
(-0.0167467 -0.00224997 0)
(-0.0157848 -0.00227709 0)
(-0.0148135 -0.00229378 0)
(-0.013837 -0.00229971 0)
(-0.0128599 -0.00229459 0)
(-0.0118868 -0.00227814 0)
(-0.0109226 -0.00225015 0)
(-0.00997188 -0.00221044 0)
(-0.00903961 -0.0021589 0)
(-0.00813062 -0.00209547 0)
(-0.00724973 -0.00202016 0)
(-0.00640173 -0.00193307 0)
(-0.00559132 -0.00183439 0)
(-0.00482306 -0.00172443 0)
(-0.00410131 -0.00160362 0)
(-0.0034302 -0.00147258 0)
(-0.00281351 -0.00133211 0)
(-0.00225459 -0.00118329 0)
(-0.00175629 -0.00102751 0)
(-0.00132076 -0.000866577 0)
(-0.000949362 -0.000702832 0)
(-0.00064244 -0.000539317 0)
(-0.000399108 -0.000379984 0)
(-0.000216989 -0.000229966 0)
(-9.1921e-05 -9.59364e-05 0)
(-1.76757e-05 1.34732e-05 0)
(1.44103e-05 8.72593e-05 0)
(1.67009e-05 0.000111576 0)
(6.11909e-06 6.80672e-05 0)
(2.48824e-06 -6.9778e-05 0)
(-4.63229e-06 -9.14345e-05 0)
(-4.3071e-05 -2.74812e-05 0)
(-0.000125898 9.84159e-05 0)
(-0.000263621 0.000268581 0)
(-0.000464066 0.000468938 0)
(-0.000732674 0.000688357 0)
(-0.00107285 0.000918152 0)
(-0.00148626 0.00115157 0)
(-0.0019731 0.0013834 0)
(-0.00253232 0.0016096 0)
(-0.00316186 0.00182708 0)
(-0.00385881 0.00203348 0)
(-0.00461962 0.00222703 0)
(-0.00544016 0.0024064 0)
(-0.00631594 0.00257062 0)
(-0.00724211 0.00271901 0)
(-0.00821359 0.00285113 0)
(-0.00922517 0.00296673 0)
(-0.0102715 0.00306568 0)
(-0.0113471 0.00314801 0)
(-0.0124467 0.00321383 0)
(-0.0135648 0.00326333 0)
(-0.0146961 0.00329679 0)
(-0.0158353 0.00331454 0)
(-0.0169772 0.00331693 0)
(-0.0181167 0.00330438 0)
(-0.0192489 0.00327733 0)
(-0.0203689 0.00323625 0)
(-0.0214722 0.00318164 0)
(-0.0225542 0.003114 0)
(-0.0236105 0.00303387 0)
(-0.0246371 0.00294178 0)
(-0.0256298 0.00283828 0)
(-0.0265851 0.00272394 0)
(-0.0274991 0.00259934 0)
(-0.0283685 0.00246504 0)
(-0.0291902 0.00232165 0)
(-0.029961 0.00216975 0)
(-0.0306782 0.00200995 0)
(-0.0313392 0.00184285 0)
(-0.0319416 0.00166908 0)
(-0.0324832 0.00148925 0)
(-0.0329621 0.001304 0)
(-0.0333764 0.00111396 0)
(-0.0337248 0.000919783 0)
(-0.0340058 0.000722122 0)
(-0.0342184 0.000521637 0)
(-0.0343619 0.000319001 0)
(-0.0344355 0.000114892 0)
(-0.0344388 -9.00006e-05 0)
(-0.0343719 -0.00029498 0)
(-0.0342347 -0.000499343 0)
(-0.0340277 -0.000702374 0)
(-0.0337513 -0.000903355 0)
(-0.0334066 -0.00110156 0)
(-0.0329944 -0.00129625 0)
(-0.0325163 -0.00148669 0)
(-0.0319738 -0.00167214 0)
(-0.0313687 -0.00185185 0)
(-0.0307032 -0.00202508 0)
(-0.0299796 -0.00219108 0)
(-0.0292005 -0.00234911 0)
(-0.0283687 -0.00249844 0)
(-0.0274874 -0.00263833 0)
(-0.0265599 -0.00276806 0)
(-0.0255898 -0.00288693 0)
(-0.0245808 -0.00299425 0)
(-0.0235371 -0.00308935 0)
(-0.0224629 -0.00317157 0)
(-0.0213625 -0.00324029 0)
(-0.0202408 -0.00329493 0)
(-0.0191025 -0.00333493 0)
(-0.0179526 -0.00335976 0)
(-0.0167962 -0.00336897 0)
(-0.0156388 -0.00336213 0)
(-0.0144857 -0.00333887 0)
(-0.0133424 -0.0032989 0)
(-0.0122144 -0.003242 0)
(-0.0111074 -0.00316801 0)
(-0.010027 -0.00307689 0)
(-0.00897874 -0.00296869 0)
(-0.00796818 -0.00284359 0)
(-0.00700068 -0.00270192 0)
(-0.00608147 -0.00254416 0)
(-0.00521551 -0.00237101 0)
(-0.00440748 -0.00218341 0)
(-0.00366165 -0.00198256 0)
(-0.0029818 -0.00177007 0)
(-0.00237111 -0.00154797 0)
(-0.001832 -0.00131884 0)
(-0.00136602 -0.00108601 0)
(-0.000973634 -0.000853656 0)
(-0.000654026 -0.000627129 0)
(-0.000404886 -0.000413209 0)
(-0.000222159 -0.0002205 0)
(-9.97858e-05 -5.9891e-05 0)
(-2.938e-05 5.4993e-05 0)
(2.65957e-07 0.00010721 0)
(3.2474e-06 7.42829e-05 0)
(-8.3853e-07 -6.40185e-05 0)
(-2.41148e-05 -5.61485e-05 0)
(-9.52027e-05 5.17413e-05 0)
(-0.000223189 0.000232872 0)
(-0.000416654 0.000466928 0)
(-0.000682648 0.000737483 0)
(-0.00102601 0.00103132 0)
(-0.0014497 0.00133793 0)
(-0.00195502 0.00164899 0)
(-0.00254189 0.00195791 0)
(-0.00320897 0.00225953 0)
(-0.00395392 0.0025498 0)
(-0.0047735 0.00282559 0)
(-0.00566378 0.0030845 0)
(-0.00662024 0.00332468 0)
(-0.0076379 0.00354479 0)
(-0.00871142 0.00374385 0)
(-0.00983519 0.00392118 0)
(-0.0110034 0.00407638 0)
(-0.0122101 0.00420925 0)
(-0.0134492 0.00431974 0)
(-0.0147147 0.00440797 0)
(-0.0160005 0.00447417 0)
(-0.0173007 0.00451865 0)
(-0.0186092 0.00454183 0)
(-0.0199203 0.00454418 0)
(-0.0212281 0.00452623 0)
(-0.0225271 0.00448856 0)
(-0.0238118 0.0044318 0)
(-0.0250769 0.0043566 0)
(-0.0263174 0.00426364 0)
(-0.0275283 0.00415362 0)
(-0.0287048 0.00402729 0)
(-0.0298425 0.00388539 0)
(-0.030937 0.00372867 0)
(-0.0319841 0.00355792 0)
(-0.0329801 0.00337393 0)
(-0.0339213 0.0031775 0)
(-0.0348041 0.00296944 0)
(-0.0356255 0.00275058 0)
(-0.0363824 0.00252174 0)
(-0.0370721 0.00228377 0)
(-0.0376921 0.00203753 0)
(-0.0382402 0.00178388 0)
(-0.0387144 0.00152369 0)
(-0.039113 0.00125785 0)
(-0.0394345 0.000987254 0)
(-0.0396777 0.000712814 0)
(-0.0398416 0.000435448 0)
(-0.0399255 0.000156087 0)
(-0.039929 -0.000124326 0)
(-0.039852 -0.000404837 0)
(-0.0396947 -0.000684481 0)
(-0.0394573 -0.000962283 0)
(-0.0391406 -0.00123726 0)
(-0.0387456 -0.00150841 0)
(-0.0382735 -0.00177474 0)
(-0.0377259 -0.00203524 0)
(-0.0371045 -0.00228889 0)
(-0.0364116 -0.00253469 0)
(-0.0356494 -0.00277161 0)
(-0.0348208 -0.00299864 0)
(-0.0339286 -0.00321478 0)
(-0.0329761 -0.00341901 0)
(-0.0319669 -0.00361036 0)
(-0.0309047 -0.00378784 0)
(-0.0297936 -0.0039505 0)
(-0.028638 -0.00409741 0)
(-0.0274425 -0.00422765 0)
(-0.0262117 -0.00434036 0)
(-0.024951 -0.0044347 0)
(-0.0236654 -0.00450988 0)
(-0.0223605 -0.00456514 0)
(-0.0210419 -0.00459982 0)
(-0.0197155 -0.00461328 0)
(-0.0183873 -0.00460498 0)
(-0.0170634 -0.00457445 0)
(-0.0157499 -0.00452129 0)
(-0.0144531 -0.00444525 0)
(-0.0131794 -0.00434616 0)
(-0.011935 -0.00422398 0)
(-0.0107261 -0.00407883 0)
(-0.009559 -0.003911 0)
(-0.00843959 -0.00372099 0)
(-0.00737369 -0.00350949 0)
(-0.00636683 -0.00327751 0)
(-0.00542416 -0.00302636 0)
(-0.00455041 -0.00275772 0)
(-0.00374976 -0.00247378 0)
(-0.00302573 -0.00217727 0)
(-0.00238102 -0.00187163 0)
(-0.00181745 -0.00156117 0)
(-0.0013357 -0.00125129 0)
(-0.0009352 -0.00094872 0)
(-0.000613917 -0.000661827 0)
(-0.000368179 -0.000401049 0)
(-0.000192429 -0.000179345 0)
(-7.89389e-05 -1.26697e-05 0)
(-1.82372e-05 7.94101e-05 0)
(8.77874e-08 7.12765e-05 0)
(-4.23247e-06 -4.78715e-05 0)
(-4.45184e-05 5.9864e-06 0)
(-0.000150351 0.000171469 0)
(-0.00032643 0.000419618 0)
(-0.000579055 0.000728031 0)
(-0.000914208 0.00107831 0)
(-0.00133588 0.00145541 0)
(-0.00184632 0.00184717 0)
(-0.00244632 0.00224378 0)
(-0.00313535 0.00263737 0)
(-0.00391169 0.00302166 0)
(-0.00477263 0.00339164 0)
(-0.00571457 0.00374338 0)
(-0.00673319 0.0040738 0)
(-0.00782357 0.00438055 0)
(-0.00898028 0.00466183 0)
(-0.0101975 0.00491632 0)
(-0.0114692 0.00514312 0)
(-0.0127889 0.00534162 0)
(-0.0141503 0.00551151 0)
(-0.0155466 0.00565267 0)
(-0.0169713 0.00576521 0)
(-0.0184177 0.00584936 0)
(-0.0198792 0.0059055 0)
(-0.0213492 0.00593412 0)
(-0.0228213 0.0059358 0)
(-0.0242891 0.0059112 0)
(-0.0257465 0.00586106 0)
(-0.0271874 0.00578614 0)
(-0.028606 0.00568728 0)
(-0.0299966 0.00556537 0)
(-0.0313537 0.00542129 0)
(-0.0326721 0.00525599 0)
(-0.0339467 0.00507043 0)
(-0.0351727 0.00486561 0)
(-0.0363456 0.00464251 0)
(-0.037461 0.00440217 0)
(-0.0385148 0.00414564 0)
(-0.0395033 0.00387395 0)
(-0.0404228 0.00358819 0)
(-0.0412701 0.00328945 0)
(-0.0420421 0.00297881 0)
(-0.042736 0.00265741 0)
(-0.0433494 0.00232635 0)
(-0.04388 0.00198678 0)
(-0.0443259 0.00163987 0)
(-0.0446855 0.00128678 0)
(-0.0449574 0.000928694 0)
(-0.0451405 0.000566816 0)
(-0.0452342 0.000202359 0)
(-0.0452379 -0.000163445 0)
(-0.0451515 -0.000529354 0)
(-0.0449751 -0.000894108 0)
(-0.0447092 -0.00125644 0)
(-0.0443546 -0.00161505 0)
(-0.0439123 -0.00196867 0)
(-0.0433838 -0.00231598 0)
(-0.0427707 -0.00265567 0)
(-0.0420752 -0.00298643 0)
(-0.0412996 -0.00330694 0)
(-0.0404464 -0.00361588 0)
(-0.0395189 -0.00391193 0)
(-0.0385202 -0.00419379 0)
(-0.0374539 -0.00446015 0)
(-0.0363241 -0.00470975 0)
(-0.0351349 -0.00494132 0)
(-0.0338908 -0.00515362 0)
(-0.0325967 -0.00534545 0)
(-0.0312577 -0.00551564 0)
(-0.029879 -0.00566307 0)
(-0.0284664 -0.00578667 0)
(-0.0270256 -0.00588543 0)
(-0.0255628 -0.00595841 0)
(-0.0240841 -0.00600472 0)
(-0.0225961 -0.00602358 0)
(-0.0211053 -0.00601432 0)
(-0.0196185 -0.00597633 0)
(-0.0181424 -0.00590917 0)
(-0.0166841 -0.00581251 0)
(-0.0152504 -0.00568618 0)
(-0.0138481 -0.00553018 0)
(-0.0124843 -0.0053447 0)
(-0.0111655 -0.00513017 0)
(-0.00989838 -0.00488726 0)
(-0.00868924 -0.00461695 0)
(-0.00754408 -0.00432057 0)
(-0.00646854 -0.00399984 0)
(-0.00546777 -0.00365698 0)
(-0.00454634 -0.00329479 0)
(-0.00370812 -0.00291673 0)
(-0.00295619 -0.00252714 0)
(-0.00229266 -0.00213134 0)
(-0.00171857 -0.00173591 0)
(-0.00123373 -0.00134891 0)
(-0.000836587 -0.000980233 0)
(-0.000524068 -0.000641979 0)
(-0.000291375 -0.000348946 0)
(-0.000131728 -0.000119067 0)
(-3.77549e-05 2.59853e-05 0)
(-3.15907e-06 5.83593e-05 0)
(-7.59059e-06 -2.11172e-05 0)
(-6.52014e-05 9.60284e-05 0)
(-0.000206835 0.000333558 0)
(-0.000432682 0.000661098 0)
(-0.000746574 0.00105468 0)
(-0.00115323 0.00149432 0)
(-0.0016556 0.00196343 0)
(-0.00225506 0.00244838 0)
(-0.00295172 0.00293803 0)
(-0.00374446 0.0034233 0)
(-0.00463108 0.00389683 0)
(-0.00560843 0.00435271 0)
(-0.0066725 0.00478619 0)
(-0.00781854 0.00519353 0)
(-0.00904121 0.00557181 0)
(-0.0103347 0.00591879 0)
(-0.0116927 0.0062328 0)
(-0.0131086 0.00651264 0)
(-0.0145757 0.00675751 0)
(-0.0160869 0.00696696 0)
(-0.0176352 0.0071408 0)
(-0.0192133 0.00727908 0)
(-0.0208141 0.00738206 0)
(-0.0224304 0.00745017 0)
(-0.0240552 0.00748397 0)
(-0.0256813 0.00748415 0)
(-0.027302 0.00745151 0)
(-0.0289106 0.00738692 0)
(-0.0305003 0.00729134 0)
(-0.032065 0.00716579 0)
(-0.0335983 0.00701134 0)
(-0.0350943 0.00682912 0)
(-0.0365473 0.00662029 0)
(-0.0379519 0.00638604 0)
(-0.0393026 0.0061276 0)
(-0.0405946 0.00584623 0)
(-0.0418231 0.00554321 0)
(-0.0429837 0.00521984 0)
(-0.0440722 0.00487745 0)
(-0.0450846 0.00451738 0)
(-0.0460173 0.00414099 0)
(-0.0468671 0.00374968 0)
(-0.0476309 0.00334483 0)
(-0.048306 0.00292787 0)
(-0.0488899 0.00250023 0)
(-0.0493806 0.00206337 0)
(-0.0497762 0.00161876 0)
(-0.0500753 0.0011679 0)
(-0.0502767 0.000712285 0)
(-0.0503797 0.000253459 0)
(-0.0503836 -0.000207037 0)
(-0.0502883 -0.000667637 0)
(-0.0500941 -0.00112676 0)
(-0.0498014 -0.00158281 0)
(-0.049411 -0.00203417 0)
(-0.0489242 -0.00247922 0)
(-0.0483424 -0.00291632 0)
(-0.0476677 -0.00334383 0)
(-0.0469022 -0.0037601 0)
(-0.0460484 -0.00416347 0)
(-0.0451094 -0.0045523 0)
(-0.0440884 -0.00492494 0)
(-0.042989 -0.00527975 0)
(-0.0418152 -0.00561511 0)
(-0.0405712 -0.00592943 0)
(-0.0392618 -0.00622113 0)
(-0.0378917 -0.00648868 0)
(-0.0364663 -0.00673057 0)
(-0.0349912 -0.00694536 0)
(-0.0334721 -0.00713166 0)
(-0.0319151 -0.00728813 0)
(-0.0303267 -0.00741353 0)
(-0.0287134 -0.00750669 0)
(-0.027082 -0.00756655 0)
(-0.0254395 -0.00759214 0)
(-0.0237932 -0.00758264 0)
(-0.0221503 -0.00753734 0)
(-0.0205181 -0.00745571 0)
(-0.0189043 -0.00733737 0)
(-0.0173162 -0.00718215 0)
(-0.0157613 -0.0069901 0)
(-0.0142471 -0.0067615 0)
(-0.0127807 -0.00649694 0)
(-0.0113693 -0.00619729 0)
(-0.0100196 -0.00586383 0)
(-0.00873826 -0.00549824 0)
(-0.00753123 -0.00510269 0)
(-0.00640411 -0.00467995 0)
(-0.00536189 -0.00423345 0)
(-0.00440883 -0.00376744 0)
(-0.00354841 -0.00328711 0)
(-0.00278315 -0.0027988 0)
(-0.00211455 -0.00231022 0)
(-0.00154292 -0.0018307 0)
(-0.00106735 -0.0013715 0)
(-0.000685541 -0.000946239 0)
(-0.00039365 -0.00057128 0)
(-0.000186039 -0.000266182 0)
(-5.76283e-05 -5.42216e-05 0)
(-6.38485e-06 3.52662e-05 0)
(-1.0861e-05 1.62191e-05 0)
(-8.57746e-05 0.000214354 0)
(-0.000263555 0.000538896 0)
(-0.000539929 0.000958653 0)
(-0.000916205 0.00144855 0)
(-0.00139573 0.00198736 0)
(-0.00198026 0.00255723 0)
(-0.00267019 0.00314328 0)
(-0.00346478 0.00373318 0)
(-0.00436225 0.00431675 0)
(-0.00535982 0.00488565 0)
(-0.00645381 0.00543307 0)
(-0.00763973 0.0059535 0)
(-0.00891238 0.00644254 0)
(-0.010266 0.00689671 0)
(-0.0116943 0.00731331 0)
(-0.0131906 0.0076903 0)
(-0.0147478 0.00802619 0)
(-0.0163587 0.00831997 0)
(-0.0180158 0.00857102 0)
(-0.0197116 0.00877908 0)
(-0.0214383 0.00894415 0)
(-0.0231883 0.00906649 0)
(-0.0249539 0.00914657 0)
(-0.0267276 0.00918504 0)
(-0.0285018 0.00918268 0)
(-0.0302692 0.00914044 0)
(-0.0320225 0.00905935 0)
(-0.0337547 0.00894055 0)
(-0.0354589 0.00878525 0)
(-0.0371285 0.00859474 0)
(-0.0387571 0.00837037 0)
(-0.0403385 0.00811355 0)
(-0.0418668 0.00782573 0)
(-0.0433363 0.00750838 0)
(-0.0447417 0.00716305 0)
(-0.0460778 0.00679127 0)
(-0.0473398 0.00639466 0)
(-0.0485232 0.00597481 0)
(-0.0496238 0.00553336 0)
(-0.0506378 0.005072 0)
(-0.0515614 0.00459239 0)
(-0.0523916 0.00409626 0)
(-0.0531252 0.00358534 0)
(-0.0537597 0.00306139 0)
(-0.0542929 0.00252618 0)
(-0.0547228 0.00198152 0)
(-0.0550478 0.00142924 0)
(-0.0552666 0.000871185 0)
(-0.0553785 0.000309221 0)
(-0.0553827 -0.000254757 0)
(-0.0552793 -0.000818835 0)
(-0.0550682 -0.00138108 0)
(-0.0547502 -0.00193954 0)
(-0.0543261 -0.00249225 0)
(-0.0537972 -0.00303723 0)
(-0.0531652 -0.00357246 0)
(-0.0524321 -0.00409596 0)
(-0.0516003 -0.00460571 0)
(-0.0506727 -0.0050997 0)
(-0.0496523 -0.00557591 0)
(-0.0485427 -0.00603234 0)
(-0.0473479 -0.006467 0)
(-0.046072 -0.00687793 0)
(-0.0447196 -0.00726318 0)
(-0.0432959 -0.00762084 0)
(-0.041806 -0.00794906 0)
(-0.0402557 -0.008246 0)
(-0.0386509 -0.00850993 0)
(-0.0369978 -0.00873915 0)
(-0.035303 -0.00893208 0)
(-0.0335735 -0.0090872 0)
(-0.0318162 -0.00920312 0)
(-0.0300384 -0.00927856 0)
(-0.0282477 -0.00931239 0)
(-0.0264518 -0.00930361 0)
(-0.0246585 -0.00925142 0)
(-0.0228758 -0.00915518 0)
(-0.0211115 -0.00901449 0)
(-0.0193737 -0.00882917 0)
(-0.0176705 -0.00859932 0)
(-0.0160097 -0.00832535 0)
(-0.014399 -0.00800797 0)
(-0.0128461 -0.00764833 0)
(-0.0113582 -0.00724799 0)
(-0.00994222 -0.006809 0)
(-0.00860479 -0.00633401 0)
(-0.00735186 -0.00582634 0)
(-0.00618886 -0.00529008 0)
(-0.00512049 -0.00473022 0)
(-0.00415068 -0.00415282 0)
(-0.00328245 -0.0035652 0)
(-0.00251784 -0.00297613 0)
(-0.00185781 -0.0023961 0)
(-0.00130216 -0.00183764 0)
(-0.000849551 -0.00131565 0)
(-0.000497204 -0.000847825 0)
(-0.000240743 -0.000455019 0)
(-7.74526e-05 -0.000161671 0)
(-9.53343e-06 1.98719e-06 0)
(-1.40199e-05 6.39719e-05 0)
(-0.000106008 0.000360897 0)
(-0.000319806 0.000787704 0)
(-0.000646825 0.00131282 0)
(-0.00108587 0.00191045 0)
(-0.00163885 0.00255842 0)
(-0.00230628 0.00323787 0)
(-0.00308744 0.00393288 0)
(-0.00398068 0.00463009 0)
(-0.00498345 0.00531835 0)
(-0.0060923 0.0059884 0)
(-0.00730295 0.00663262 0)
(-0.00861038 0.00724478 0)
(-0.0100089 0.00781983 0)
(-0.0114923 0.00835375 0)
(-0.0130538 0.00884339 0)
(-0.0146863 0.00928633 0)
(-0.0163823 0.0096808 0)
(-0.0181341 0.0100256 0)
(-0.0199337 0.0103198 0)
(-0.0217732 0.0105633 0)
(-0.0236444 0.0107558 0)
(-0.0255392 0.0108977 0)
(-0.0274494 0.0109895 0)
(-0.029367 0.0110319 0)
(-0.0312841 0.0110257 0)
(-0.0331928 0.0109722 0)
(-0.0350855 0.0108724 0)
(-0.0369545 0.0107278 0)
(-0.0387928 0.0105397 0)
(-0.0405931 0.0103096 0)
(-0.0423487 0.0100391 0)
(-0.044053 0.00972999 0)
(-0.0456997 0.00938384 0)
(-0.0472827 0.00900246 0)
(-0.0487963 0.00858767 0)
(-0.0502351 0.00814131 0)
(-0.0515939 0.00766529 0)
(-0.052868 0.00716152 0)
(-0.0540528 0.00663196 0)
(-0.0551441 0.00607861 0)
(-0.0561382 0.00550347 0)
(-0.0570316 0.00490859 0)
(-0.0578211 0.00429606 0)
(-0.0585039 0.00366796 0)
(-0.0590776 0.00302643 0)
(-0.0595402 0.00237363 0)
(-0.05989 0.00171174 0)
(-0.0601256 0.00104297 0)
(-0.060246 0.000369557 0)
(-0.0602508 -0.000306239 0)
(-0.0601397 -0.00098213 0)
(-0.0599129 -0.00165581 0)
(-0.059571 -0.00232493 0)
(-0.059115 -0.00298716 0)
(-0.0585463 -0.00364012 0)
(-0.0578667 -0.00428144 0)
(-0.0570783 -0.0049087 0)
(-0.0561837 -0.00551953 0)
(-0.0551858 -0.00611151 0)
(-0.0540881 -0.00668226 0)
(-0.0528943 -0.00722939 0)
(-0.0516086 -0.00775053 0)
(-0.0502355 -0.00824333 0)
(-0.0487799 -0.0087055 0)
(-0.0472472 -0.00913476 0)