/*--------------------------------*- C++ -*----------------------------------*\
| =========                 |                                                 |
| \\      /  F ield         | OpenFOAM: The Open Source CFD Toolbox           |
|  \\    /   O peration     | Version:  v1912                                 |
|   \\  /    A nd           | Website:  www.openfoam.com                      |
|    \\/     M anipulation  |                                                 |
\*---------------------------------------------------------------------------*/
FoamFile
{
    version     2.0;
    format      ascii;
    class       volVectorField;
    location    "6.44";
    object      grad(p);
}
// * * * * * * * * * * * * * * * * * * * * * * * * * * * * * * * * * * * * * //

dimensions      [1 -2 -2 0 0 0 0];


internalField   nonuniform List<vector> 
1900
(
(97230.8 0.202818 0)
(-107126 0.439984 0)
(-3404.45 0.776049 0)
(-123.859 0.354576 0)
(-52.9772 -0.693407 0)
(40.3883 -3.10508 0)
(58.1083 0.80397 0)
(60.9327 8.14648 0)
(41.6953 34.9347 0)
(723.074 -21.3345 0)
(97231.4 0.438986 0)
(-107126 0.821946 0)
(-3404.53 1.0212 0)
(-125.328 0.113718 0)
(-56.4368 -1.74573 0)
(41.8857 -4.06014 0)
(69.3599 1.18366 0)
(95.0634 2.72887 0)
(12.2144 -14.9698 0)
(-227.225 -94.168 0)
(97232 8.52651e-09 0)
(-107126 1.5703e-08 0)
(-3405.15 -1.36779e-09 0)
(-126.626 -3.41061e-09 0)
(-57.151 -6.05738e-09 0)
(43.3177 -4.10338e-09 0)
(64.8973 -8.68638e-09 0)
(44.7792 -8.08242e-09 0)
(-55.2016 -3.2685e-09 0)
(-353.182 5.7554e-09 0)
(97231.4 -0.438986 0)
(-107126 -0.821946 0)
(-3404.53 -1.0212 0)
(-125.328 -0.113718 0)
(-56.4368 1.74573 0)
(41.8857 4.06014 0)
(69.3599 -1.18366 0)
(95.0634 -2.72887 0)
(12.2144 14.9698 0)
(-227.225 94.168 0)
(97230.8 -0.202818 0)
(-107126 -0.439984 0)
(-3404.45 -0.776049 0)
(-123.859 -0.354576 0)
(-52.9772 0.693407 0)
(40.3883 3.10508 0)
(58.1083 -0.80397 0)
(60.9327 -8.14648 0)
(41.6953 -34.9347 0)
(723.074 21.3345 0)
(-219.715 -792.157 8.7004e-12)
(-1807.42 -619.685 -1.0194e-11)
(-1780.47 -748.07 -1.28012e-11)
(431.297 -1029.97 0)
(-19041.9 -8064.49 -5.54844e-11)
(-736.001 -959.939 8.55726e-12)
(-1296.15 -749.335 1.0194e-11)
(-1728.49 -886.658 1.28012e-11)
(-2266.29 -781.495 0)
(-18140.6 -7396.2 0)
(-1051.55 1.08287e-08 0)
(-1403.35 1.11217e-08 0)
(-1688.59 1.10529e-08 0)
(-2237.86 1.00929e-08 0)
(-20935.8 1.58603e-09 0)
(-736.001 959.939 8.55726e-12)
(-1296.15 749.335 1.0194e-11)
(-1728.49 886.658 1.28012e-11)
(-2266.29 781.495 0)
(-18140.6 7396.2 0)
(-219.715 792.157 -2.58149e-11)
(-1807.42 619.685 -1.0194e-11)
(-1780.47 748.07 -1.28012e-11)
(431.297 1029.97 -3.43459e-11)
(-19041.9 8064.49 5.54844e-11)
(-37535.5 10685.6 1.02314e-11)
(-11556.4 4101.28 -5.03987e-12)
(-5962.26 2054.57 0)
(-3013.38 1041.98 1.82722e-12)
(-751.034 1065.28 -6.9851e-13)
(-33543.3 13222 -5.27658e-12)
(-13453.8 3315.93 2.5817e-12)
(-6761.49 1276.64 0)
(-3247.02 494.755 -1.16535e-12)
(-968.494 683.601 1.87795e-13)
(-34658.8 2.55688e-09 0)
(-14582.4 5.50367e-10 0)
(-6891.83 2.79612e-10 0)
(-3230.76 1.70524e-10 4.72101e-13)
(-939.206 9.4791e-10 -3.7559e-13)
(-33543.3 -13222 -5.27658e-12)
(-13453.8 -3315.93 2.5817e-12)
(-6761.49 -1276.64 0)
(-3247.02 -494.755 -1.16535e-12)
(-968.494 -683.601 1.87795e-13)
(-37535.5 -10685.6 5.27658e-12)
(-11556.4 -4101.28 -1.23517e-13)
(-5962.26 -2054.57 0)
(-3013.38 -1041.98 3.1381e-14)
(-751.034 -1065.28 6.9851e-13)
(-622.241 -262.624 0)
(-1303.31 -920.161 0)
(-709.505 -1124.42 0)
(1211.39 -1643.15 0)
(3072.75 -1094.03 0)
(2187.03 547.672 0)
(243.913 582.894 0)
(-157.887 558.056 0)
(-522.603 578.295 0)
(-887.62 391.444 0)
(-1200.24 229.698 0)
(-1394.25 143.593 0)
(-1191.05 81.0777 0)
(-692.791 30.7345 0)
(-340.687 8.82627 0)
(-224.811 4.30979 0)
(-191.048 4.10665 0)
(-167.29 5.56124 0)
(-133.092 2.06446 0)
(-88.2311 -0.0184775 0)
(-51.022 -0.648642 0)
(-29.995 -0.661459 0)
(-20.8254 -0.568753 0)
(-16.4735 -0.51649 0)
(-12.6073 -0.515713 0)
(-8.31476 -0.533466 0)
(-2.93059 -0.555438 0)
(3.92096 -0.600622 0)
(10.7428 -0.596153 0)
(15.5851 -0.556634 0)
(22.2427 -0.62563 0)
(30.011 -0.478467 0)
(47.418 -0.626528 0)
(66.6948 0.451524 0)
(85.2267 -0.0130164 0)
(145.153 0.330119 0)
(405.35 -1.20004 0)
(942.596 -3.6253 0)
(646.62 2.27431 0)
(1765.06 -2.78412 0)
(-1014.9 107.775 0)
(-1447.7 -213.351 0)
(-792.035 -247.613 0)
(1118.51 -517.157 0)
(3220.39 -672.849 0)
(2397.93 65.7072 0)
(323.505 302.508 0)
(-112.157 279.721 0)
(-549.909 263.658 0)
(-960.911 166.446 0)
(-1248.84 94.4614 0)
(-1418.25 67.35 0)
(-1204.42 39.6915 0)
(-699.485 13.522 0)
(-342.842 3.56795 0)
(-225.268 2.18013 0)
(-190.969 1.36442 0)
(-167.425 2.26985 0)
(-133.621 0.75252 0)
(-88.4451 -0.0915913 0)
(-51.0631 -0.31112 0)
(-29.9835 -0.293413 0)
(-20.8118 -0.24991 0)
(-16.4686 -0.229982 0)
(-12.6087 -0.234445 0)
(-8.3178 -0.246681 0)
(-2.93679 -0.259257 0)
(3.91566 -0.286693 0)
(10.7449 -0.295391 0)
(15.5797 -0.289399 0)
(22.2492 -0.331056 0)
(30.0046 -0.272582 0)
(47.4952 -0.365513 0)
(66.7238 0.0694363 0)
(85.1961 -0.209551 0)
(145.108 -0.0831149 0)
(404.89 -0.186313 0)
(942.831 -2.30985 0)
(646.911 0.426947 0)
(1765.09 -0.107927 0)
(-907.459 -2.77354e-09 0)
(-1406.69 -1.88576e-08 0)
(-797.885 1.28665e-08 0)
(1087.69 3.50608e-08 0)
(3242.31 1.07922e-07 0)
(2470.77 3.89729e-07 0)
(306.172 4.66173e-08 0)
(-169.188 -1.18709e-07 0)
(-555.556 2.93301e-08 0)
(-936.841 1.08766e-07 0)
(-1229.07 5.67304e-08 0)
(-1410.19 -9.38239e-09 0)
(-1206.71 -3.70693e-08 0)
(-703.3 -2.29332e-08 0)
(-343.987 -1.54099e-08 0)
(-225.452 -8.95849e-09 0)
(-191.022 6.82686e-09 0)
(-167.468 -6.86118e-09 0)
(-133.779 3.15707e-09 0)
(-88.5406 6.47563e-09 0)
(-51.0807 3.34076e-09 0)
(-29.9772 1.92977e-09 0)
(-20.8069 1.94996e-09 0)
(-16.469 1.52e-09 0)
(-12.6121 6.96413e-10 0)
(-8.32198 1.25152e-10 0)
(-2.94223 -3.55271e-10 0)
(3.91045 9.34606e-10 0)
(10.742 3.26002e-09 0)
(15.5747 2.71702e-09 0)
(22.2476 -7.22654e-10 0)
(30.001 -5.00812e-09 0)
(47.5175 -2.57975e-09 0)
(66.7402 -1.24749e-09 0)
(85.1823 -1.62597e-08 0)
(145.16 -1.36537e-08 0)
(404.702 -1.87204e-08 0)
(942.775 4.22793e-08 0)
(647.261 2.12396e-08 0)
(1764.97 2.74447e-08 0)
(-1014.9 -107.775 0)
(-1447.7 213.351 0)
(-792.035 247.613 0)
(1118.51 517.157 0)
(3220.39 672.849 0)
(2397.93 -65.7072 0)
(323.505 -302.508 0)
(-112.157 -279.721 0)
(-549.909 -263.658 0)
(-960.911 -166.446 0)
(-1248.84 -94.4614 0)
(-1418.25 -67.35 0)
(-1204.42 -39.6915 0)
(-699.485 -13.522 0)
(-342.842 -3.56795 0)
(-225.268 -2.18013 0)
(-190.969 -1.36442 0)
(-167.425 -2.26985 0)
(-133.621 -0.75252 0)
(-88.4451 0.0915913 0)
(-51.0631 0.31112 0)
(-29.9835 0.293413 0)
(-20.8118 0.24991 0)
(-16.4686 0.229982 0)
(-12.6087 0.234445 0)
(-8.3178 0.246681 0)
(-2.93679 0.259257 0)
(3.91566 0.286693 0)
(10.7449 0.295391 0)
(15.5797 0.289399 0)
(22.2492 0.331056 0)
(30.0046 0.272582 0)
(47.4952 0.365513 0)
(66.7238 -0.0694364 0)
(85.1961 0.209551 0)
(145.108 0.0831149 0)
(404.89 0.186313 0)
(942.831 2.30985 0)
(646.911 -0.426947 0)
(1765.09 0.107927 0)
(-622.241 262.624 0)
(-1303.31 920.161 0)
(-709.505 1124.42 0)
(1211.39 1643.15 0)
(3072.75 1094.03 0)
(2187.03 -547.672 0)
(243.913 -582.894 0)
(-157.887 -558.056 0)
(-522.603 -578.295 0)
(-887.62 -391.444 0)
(-1200.24 -229.698 0)
(-1394.25 -143.593 0)
(-1191.05 -81.0777 0)
(-692.791 -30.7345 0)
(-340.687 -8.82627 0)
(-224.811 -4.30979 0)
(-191.048 -4.10665 0)
(-167.29 -5.56124 0)
(-133.092 -2.06446 0)
(-88.2311 0.0184775 0)
(-51.022 0.648642 0)
(-29.995 0.661459 0)
(-20.8254 0.568753 0)
(-16.4735 0.51649 0)
(-12.6073 0.515713 0)
(-8.31476 0.533466 0)
(-2.93059 0.555438 0)
(3.92096 0.600622 0)
(10.7428 0.596153 0)
(15.5851 0.556634 0)
(22.2427 0.62563 0)
(30.011 0.478467 0)
(47.418 0.626528 0)
(66.6948 -0.451524 0)
(85.2267 0.0130164 0)
(145.153 -0.330119 0)
(405.35 1.20004 0)
(942.596 3.6253 0)
(646.62 -2.27431 0)
(1765.06 2.78412 0)
(-743.095 566.152 0)
(-1074.07 845.061 0)
(-433.947 1689.56 0)
(992.061 1794.77 0)
(2016.85 1034.28 0)
(1589.9 -819.818 0)
(409.021 -722.992 0)
(-56.3985 -639.109 0)
(-476.971 -587.943 0)
(-826.988 -441.458 0)
(-1149.57 -326.627 0)
(-1352.77 -249.237 0)
(-1149.08 -153.709 0)
(-661.902 -57.6822 0)
(-328.758 -16.2194 0)
(-222.835 -8.02391 0)
(-191.664 -8.77673 0)
(-166.301 -9.12996 0)
(-130.732 -4.16281 0)
(-86.9906 -0.377511 0)
(-50.7074 1.04249 0)
(-30.0204 1.17597 0)
(-20.887 1.01992 0)
(-16.4963 0.922915 0)
(-12.5997 0.921305 0)
(-8.29639 0.9599 0)
(-2.90183 1.0165 0)
(3.93506 1.09989 0)
(10.7199 1.07637 0)
(15.592 1.0086 0)
(22.2077 1.08987 0)
(29.9978 0.908186 0)
(47.001 0.972982 0)
(66.3724 -0.662779 0)
(85.2369 -0.621855 0)
(145.801 -0.780497 0)
(406.84 2.69469 0)
(940.924 6.02056 0)
(646.72 -0.629178 0)
(1764.8 3.92096 0)
(-630.658 -22.4913 0)
(-343.682 192.722 0)
(57.9078 1027.87 0)
(697.559 1030.81 0)
(1119.45 498.938 0)
(813.854 -601.691 0)
(329.514 -767.084 0)
(-82.1698 -728.106 0)
(-356.608 -675.464 0)
(-668.319 -561.683 0)
(-1042.18 -476.502 0)
(-1249.87 -385.77 0)
(-1028.97 -227.042 0)
(-576.865 -79.8916 0)
(-299.232 -23.9111 0)
(-218.699 -14.1751 0)
(-191.784 -14.2142 0)
(-163.374 -12.1994 0)
(-125.924 -6.0976 0)
(-83.8804 -0.788286 0)
(-49.6937 1.59973 0)
(-30.0031 2.02239 0)
(-21.0362 1.85711 0)
(-16.5563 1.71716 0)
(-12.5757 1.7083 0)
(-8.23287 1.7668 0)
(-2.81111 1.87176 0)
(3.97109 1.99635 0)
(10.6671 1.93205 0)
(15.5944 1.81971 0)
(22.1647 1.90902 0)
(29.9055 1.71594 0)
(46.1278 1.68733 0)
(65.3308 -0.404749 0)
(85.1078 -1.085 0)
(148.001 -0.616861 0)
(411.104 4.61777 0)
(940.29 8.76496 0)
(644.543 1.29545 0)
(1762.03 2.03435 0)
(-579.055 10.0953 0)
(-61.8996 246.975 0)
(373.663 249.974 0)
(482.361 258.662 0)
(443.712 -214.304 0)
(369.91 -526.976 0)
(287.203 -704.92 0)
(31.8901 -696.375 0)
(-316.6 -636.726 0)
(-635.261 -611.35 0)
(-980.054 -577.061 0)
(-1112.38 -471.549 0)
(-854.323 -257.16 0)
(-466.159 -86.8088 0)
(-265.431 -31.1191 0)
(-213.491 -21.369 0)
(-189.76 -19.3347 0)
(-158.479 -14.658 0)
(-119.736 -7.17683 0)
(-79.5731 -0.69652 0)
(-47.9989 2.51292 0)
(-29.7724 3.28629 0)
(-21.1811 3.18067 0)
(-16.6397 3.01957 0)
(-12.5519 2.99702 0)
(-8.13887 3.06357 0)
(-2.68063 3.20288 0)
(3.99316 3.32613 0)
(10.5497 3.18696 0)
(15.5698 2.99736 0)
(22.1077 3.06639 0)
(29.7841 2.84129 0)
(44.9575 2.73963 0)
(63.7009 0.293665 0)
(85.0325 -1.04353 0)
(151.296 0.0212065 0)
(415.881 6.43614 0)
(937.722 10.7053 0)
(640.234 0.929204 0)
(1761.6 1.25648 0)
(-382.936 -97.6197 0)
(-112.526 127.049 0)
(69.1702 -32.4007 0)
(250.163 -256.688 0)
(362.379 -442.21 0)
(341.079 -586.381 0)
(166.276 -624.417 0)
(-16.4558 -690.058 0)
(-274.675 -666.639 0)
(-610.823 -661.513 0)
(-907.459 -625.58 0)
(-941.602 -479.878 0)
(-658.22 -236.862 0)
(-359.044 -82.4278 0)
(-236.172 -37.9593 0)
(-207.343 -28.2781 0)
(-185.317 -23.2784 0)
(-151.658 -15.8719 0)
(-112.47 -6.94174 0)
(-74.543 0.288434 0)
(-45.8557 4.00728 0)
(-29.3597 5.02967 0)
(-21.2932 4.99987 0)
(-16.7333 4.83938 0)
(-12.5333 4.80048 0)
(-8.0345 4.85802 0)
(-2.5581 4.98449 0)
(3.95575 5.02175 0)
(10.3503 4.77581 0)
(15.4782 4.47217 0)
(22.0143 4.43807 0)
(29.5906 4.14659 0)
(43.6728 3.8821 0)
(61.6853 1.41919 0)
(84.8453 -0.453347 0)
(155.209 0.731194 0)
(421.4 7.51894 0)
(934.983 12.0198 0)
(635.438 0.803538 0)
(1759.92 2.04476 0)
(-550.696 -112.88 0)
(0.947806 -37.9504 0)
(3.87979 -180.19 0)
(87.4537 -389.053 0)
(126.007 -522.543 0)
(194.328 -625.612 0)
(187.296 -622.116 0)
(-8.79617 -635.622 0)
(-289.094 -663.459 0)
(-595.695 -675.363 0)
(-805.024 -619.395 0)
(-737.795 -422.974 0)
(-471.325 -189.981 0)
(-274.488 -74.5693 0)
(-213.25 -42.3052 0)
(-199.344 -32.8035 0)
(-177.805 -24.8584 0)
(-142.736 -15.1259 0)
(-104.163 -4.98948 0)
(-69.0223 2.56007 0)
(-43.4301 6.46213 0)
(-28.8159 7.61078 0)
(-21.3645 7.64205 0)
(-16.8318 7.49419 0)
(-12.5339 7.43814 0)
(-7.96154 7.47012 0)
(-2.52285 7.53399 0)
(3.79206 7.42659 0)
(10.0201 7.06675 0)
(15.2444 6.63022 0)
(21.794 6.45157 0)
(29.2484 6.07285 0)
(42.3292 5.66099 0)
(59.5231 3.37934 0)
(84.3695 1.4117 0)
(158.979 2.67472 0)
(426.759 9.23951 0)
(931.251 14.7076 0)
(630.621 3.1718 0)
(1758.85 3.89699 0)
(-528.282 -139.613 0)
(-177.388 -218.306 0)
(-269.165 -430.399 0)
(-79.7406 -538.449 0)
(134.422 -584.839 0)
(245.127 -496.691 0)
(156.63 -527.124 0)
(-56.2954 -597.563 0)
(-312.971 -640.938 0)
(-568.361 -645.713 0)
(-664.248 -545.29 0)
(-527.803 -324.743 0)
(-322.485 -143.34 0)
(-216.738 -68.5065 0)
(-195.924 -45.6409 0)
(-190.53 -35.7444 0)
(-168.282 -24.8919 0)
(-132.512 -13.005 0)
(-95.427 -2.0528 0)
(-63.5078 5.607 0)
(-40.9886 9.45842 0)
(-28.2226 10.6521 0)
(-21.4056 10.7352 0)
(-16.9297 10.6121 0)
(-12.5565 10.5423 0)
(-7.94214 10.5316 0)
(-2.60005 10.4671 0)
(3.50549 10.1445 0)
(9.58286 9.65808 0)
(14.8854 9.04514 0)
(21.4771 8.6629 0)
(28.8288 8.14084 0)
(41.0772 7.5581 0)
(57.5905 5.52754 0)
(84.1663 3.7513 0)
(162.752 4.95266 0)
(432.995 10.8639 0)
(929.136 15.4114 0)
(625.021 3.32245 0)
(1753.11 4.25532 0)
(-895.599 -274.723 0)
(-279.265 -363.194 0)
(-304.622 -465.148 0)
(-61.37 -447.831 0)
(166.247 -435.629 0)
(249.944 -400.897 0)
(90.0926 -482.395 0)
(-118.471 -553.669 0)
(-335.494 -600.858 0)
(-503.526 -571.424 0)
(-495.725 -424.943 0)
(-350.461 -228.623 0)
(-224.406 -109.231 0)
(-180.342 -62.7608 0)
(-181.68 -46.4719 0)
(-179.349 -35.7184 0)
(-155.892 -22.5517 0)
(-120.728 -9.02847 0)
(-86.228 2.23191 0)
(-57.9296 9.83444 0)
(-38.5685 13.4813 0)
(-27.5855 14.6253 0)
(-21.403 14.7288 0)
(-17.0178 14.6261 0)
(-12.6115 14.5425 0)
(-8.03394 14.4641 0)
(-2.89585 14.169 0)
(3.01243 13.6042 0)
(8.96064 13.01 0)
(14.2854 12.1925 0)
(20.9225 11.5671 0)
(28.1838 10.8509 0)
(39.811 10.0948 0)
(55.8547 8.29359 0)
(83.8155 6.91899 0)
(165.833 8.02152 0)
(436.837 13.1146 0)
(923.984 16.5567 0)
(619.871 4.50565 0)
(1751.55 5.53875 0)
(-1143 -203.06 0)
(-360.888 -256.364 0)
(-350.725 -335.153 0)
(-51.2951 -353.297 0)
(179.649 -293.57 0)
(200.061 -364.12 0)
(9.4129 -453.657 0)
(-170.451 -508.136 0)
(-330.081 -530.812 0)
(-398.842 -455.252 0)
(-333.912 -296.352 0)
(-223.572 -157.244 0)
(-162.654 -85.2392 0)
(-156.261 -57.1173 0)
(-169.865 -45.2821 0)
(-167.48 -33.5074 0)
(-142.563 -18.5374 0)
(-108.629 -4.34549 0)
(-77.25 6.67107 0)
(-52.6674 13.8109 0)
(-36.372 17.1856 0)
(-27.0206 18.2823 0)
(-21.4049 18.4483 0)
(-17.1092 18.4258 0)
(-12.7126 18.3747 0)
(-8.30202 18.2246 0)
(-3.42867 17.792 0)
(2.38859 17.1656 0)
(8.22249 16.4485 0)
(13.495 15.5309 0)
(20.1843 14.7724 0)
(27.4101 13.9836 0)
(38.613 13.1944 0)
(54.5301 11.7205 0)
(83.9041 10.8827 0)
(168.722 12.0549 0)
(441.22 16.3452 0)
(920.84 19.7781 0)
(614.403 8.0376 0)
(1743.43 8.64643 0)
(-1338.32 -153.377 0)
(-406.554 -168.321 0)
(-398.029 -238.025 0)
(-21.2984 -276.819 0)
(155.818 -205.491 0)
(95.6777 -354.269 0)
(-48.6862 -416.784 0)
(-192.82 -449.519 0)
(-284.534 -429.577 0)
(-277.591 -323.16 0)
(-208.554 -194.023 0)
(-147.025 -108.756 0)
(-127.92 -67.1345 0)
(-141.838 -51.8168 0)
(-158.928 -42.7821 0)
(-153.577 -29.7787 0)
(-127.791 -13.3484 0)
(-96.436 1.13417 0)
(-68.7318 11.7977 0)
(-47.7974 18.2658 0)
(-34.2597 21.3127 0)
(-26.3688 22.3556 0)
(-21.2647 22.582 0)
(-17.0886 22.6139 0)
(-12.8054 22.5388 0)
(-8.5955 22.2681 0)
(-3.91629 21.8107 0)
(1.71781 21.185 0)
(7.38532 20.2434 0)
(12.6702 19.2506 0)
(19.4315 18.4286 0)
(26.6632 17.6336 0)
(37.6302 16.9234 0)
(53.6271 15.8028 0)
(84.1377 15.4176 0)
(171.096 16.3425 0)
(444.279 20.4858 0)
(915.978 23.9414 0)
(609.144 10.8827 0)
(1735.47 12.9531 0)
(-1453 -76.1212 0)
(-442.458 -80.4557 0)
(-455.278 -154.507 0)
(-19.9442 -211.966 0)
(105.016 -206.648 0)
(-3.54853 -323.424 0)
(-82.3734 -369.128 0)
(-182.779 -371.78 0)
(-208.317 -310.218 0)
(-171.854 -207.492 0)
(-127.305 -124.833 0)
(-101.298 -76.4635 0)
(-107.785 -54.653 0)
(-132.794 -47.0163 0)
(-148.629 -38.3208 0)
(-139.117 -23.6131 0)
(-112.774 -7.17096 0)
(-84.3974 6.46485 0)
(-60.7413 16.3338 0)
(-43.4985 22.0437 0)
(-32.4309 24.7689 0)
(-25.7974 25.8557 0)
(-21.156 26.2925 0)
(-17.1509 26.534 0)
(-13.0458 26.6063 0)
(-9.00367 26.4432 0)
(-4.47238 26.1261 0)
(0.87835 25.5767 0)
(6.35847 24.5712 0)
(11.7461 23.624 0)
(18.6261 22.8446 0)
(25.9596 22.1706 0)
(36.8487 21.6795 0)
(53.0791 20.9984 0)
(84.4242 21.114 0)
(173.606 22.0238 0)
(448.543 26.5196 0)
(911.587 31.1808 0)
(603.815 16.442 0)
(1720.46 19.0262 0)
(-1489.2 -18.0548 0)
(-482.089 -11.9827 0)
(-524.757 -96.8972 0)
(-71.5431 -163.34 0)
(48.4129 -240.828 0)
(-60.8945 -277.685 0)
(-95.2845 -302.826 0)
(-136.052 -268.027 0)
(-126.219 -194.877 0)
(-98.9471 -125.585 0)
(-82.2903 -77.7127 0)
(-79.3973 -51.6977 0)
(-99.5439 -42.521 0)
(-126.1 -39.9464 0)
(-136.376 -31.1025 0)
(-123.56 -14.4947 0)
(-98.8066 1.8848 0)
(-73.786 14.4147 0)
(-53.7195 23.1216 0)
(-39.6691 28.059 0)
(-30.5863 30.4581 0)
(-24.9006 31.491 0)
(-20.611 31.9623 0)
(-16.7863 32.2268 0)
(-12.8929 32.3081 0)
(-9.05824 32.1908 0)
(-4.75134 31.91 0)
(0.219444 31.3717 0)
(5.5037 30.3828 0)
(11.0064 29.5249 0)
(18.031 28.8635 0)
(25.5405 28.3604 0)
(36.5006 28.1592 0)
(53.0821 27.9353 0)
(85.1259 28.5966 0)
(176.305 29.9348 0)
(453.103 34.9363 0)
(906.267 39.2234 0)
(597.432 21.1479 0)
(1701.29 25.6138 0)
(-1481.95 -7.79968 0)
(-518.433 9.13969 0)
(-601.131 -70.977 0)
(-158.641 -138.831 0)
(-5.17084 -241.597 0)
(-63.2916 -222.944 0)
(-73.0662 -206.192 0)
(-78.7553 -157.217 0)
(-71.0553 -106.166 0)
(-58.9509 -70.2368 0)
(-56.1037 -44.512 0)
(-67.3857 -32.3388 0)
(-96.4614 -31.1712 0)
(-121.791 -29.3153 0)
(-124.102 -19.1104 0)
(-107.329 -2.29028 0)
(-84.9158 12.9785 0)
(-63.9329 24.7815 0)
(-47.5931 32.2861 0)
(-36.4287 36.4051 0)
(-29.1237 38.4574 0)
(-24.3479 39.4905 0)
(-20.447 40.0407 0)
(-16.8178 40.2953 0)
(-13.0805 40.2817 0)
(-9.38721 40.0484 0)
(-5.26176 39.6026 0)
(-0.593362 38.8801 0)
(4.57889 37.7917 0)
(10.2821 37.0134 0)
(17.5039 36.4464 0)
(25.2809 36.1385 0)
(36.4391 36.2566 0)
(53.5007 36.5166 0)
(86.3509 37.7954 0)
(179.716 39.7012 0)
(457.493 45.0582 0)
(898.3 46.7288 0)
(590.7 23.6532 0)
(1675.4 30.071 0)
(-1487.91 -13.6521 0)
(-542.969 -1.83209 0)
(-667.347 -68.1049 0)
(-235.959 -123.069 0)
(-32.6416 -180.797 0)
(-26.7764 -143.507 0)
(-31.9473 -109.262 0)
(-39.6641 -77.764 0)
(-42.4019 -50.8938 0)
(-39.535 -30.8691 0)
(-45.7704 -18.0879 0)
(-66.5416 -16.9228 0)
(-96.6303 -19.679 0)
(-114.477 -13.4393 0)
(-110.334 1.93327 0)
(-92.638 18.7219 0)
(-72.7192 33.6 0)
(-55.1805 45.1687 0)
(-42.5186 52.457 0)
(-33.7222 56.447 0)
(-27.6131 58.224 0)
(-23.3749 58.6393 0)
(-19.8355 58.216 0)
(-16.554 57.3156 0)
(-13.1308 56.1658 0)
(-9.71268 54.9817 0)
(-5.87713 53.7201 0)
(-1.52563 52.3945 0)
(3.70487 50.9635 0)
(9.71007 50.1397 0)
(17.1879 49.5078 0)
(25.3575 49.2928 0)
(36.865 49.6809 0)
(54.565 50.4747 0)
(88.1947 52.4169 0)
(183.304 55.3722 0)
(459.875 61.3382 0)
(885.64 59.8046 0)
(581.38 29.5867 0)
(1649.52 37.449 0)
(-1496.87 -0.418911 0)
(-570.906 -1.08884 0)
(-717.959 -47.96 0)
(-267.236 -69.3918 0)
(-24.866 -79.8872 0)
(5.64199 -54.8065 0)
(-9.71375 -33.8915 0)
(-22.5092 -21.1813 0)
(-25.8657 -6.73247 0)
(-27.3379 3.5169 0)
(-42.6645 7.35953 0)
(-68.9189 3.72702 0)
(-93.1046 3.87717 0)
(-100.965 13.5369 0)
(-93.1107 30.2437 0)
(-76.8136 46.368 0)
(-59.4307 60.2548 0)
(-45.7616 69.9389 0)
(-36.7249 75.7764 0)
(-30.8714 78.7659 0)
(-27.0112 79.9774 0)
(-24.3556 80.1012 0)
(-21.7225 79.4621 0)
(-18.7934 78.205 0)
(-15.3296 76.5312 0)
(-11.744 74.8112 0)
(-7.75489 73.1392 0)
(-3.24971 71.8164 0)
(2.40614 70.7044 0)
(8.87934 70.1924 0)
(16.6878 70.033 0)
(25.4476 70.5176 0)
(37.578 71.8213 0)
(56.1372 73.7865 0)
(91.0704 77.275 0)
(188.312 82.4161 0)
(461.765 89.8954 0)
(867.703 83.2605 0)
(569.157 43.1371 0)
(1610.8 50.8045 0)
(-1489.36 31.869 0)
(-588.782 33.9525 0)
(-733.167 16.0279 0)
(-266.725 15.2543 0)
(-18.5867 14.6082 0)
(17.5468 23.0839 0)
(0.455125 33.0069 0)
(-13.4927 39.0059 0)
(-18.6018 47.5877 0)
(-25.9554 49.8639 0)
(-45.568 45.9623 0)
(-69.8974 40.4984 0)
(-87.1771 41.485 0)
(-89.0695 50.4604 0)
(-78.6966 62.8793 0)
(-63.7183 74.9325 0)
(-50.0054 84.2321 0)
(-40.2233 90.179 0)
(-34.0126 93.6858 0)
(-29.674 95.6745 0)
(-26.3264 96.93 0)
(-23.8714 97.9104 0)
(-21.6627 98.8827 0)
(-19.3783 99.869 0)
(-16.4012 100.757 0)
(-12.9813 101.773 0)
(-8.76306 102.448 0)
(-3.87188 103.632 0)
(2.1399 104.496 0)
(9.06305 105.374 0)
(17.5013 106.675 0)
(27.0808 108.684 0)
(40.0149 111.464 0)
(59.8204 115.39 0)
(96.5105 121.117 0)
(195.466 128.816 0)
(460.689 136.581 0)
(840.582 117.891 0)
(550.104 62.0633 0)
(1559 67.3992 0)
(-1433.44 52.5583 0)
(-586.171 83.4939 0)
(-735.978 117.029 0)
(-268.604 124.253 0)
(-17.3211 119.388 0)
(23.3717 120.905 0)
(5.62931 123.467 0)
(-8.45868 123.19 0)
(-15.4026 123.959 0)
(-28.9042 117.439 0)
(-51.6894 108.195 0)
(-73.2335 102.476 0)
(-83.5048 104.019 0)
(-80.3482 112.741 0)
(-69.5285 123.059 0)
(-56.2373 131.951 0)
(-44.7386 138.311 0)
(-36.6517 142.582 0)
(-31.4293 145.82 0)
(-27.7452 148.944 0)
(-24.8566 152.702 0)
(-22.4739 157.219 0)
(-19.8351 162.381 0)
(-16.9871 168.125 0)
(-13.4952 174.132 0)
(-10.1143 180.435 0)
(-5.96337 185.773 0)
(-1.27607 190.811 0)
(4.08461 195.009 0)
(10.9783 199.234 0)
(19.8777 203.624 0)
(30.0629 208.704 0)
(44.0399 214.028 0)
(65.4393 220.665 0)
(104.008 228.322 0)
(203.214 236.543 0)
(451.237 235.473 0)
(795.895 182.501 0)
(520.502 68.6971 0)
(1486.05 41.0513 0)
(-1358.26 -28.4721 0)
(-526.656 68.4905 0)
(-693.89 227.764 0)
(-264.452 277.892 0)
(-21.8131 281.354 0)
(21.4776 277.47 0)
(2.65731 276.156 0)
(-13.0189 271.655 0)
(-24.1435 266.046 0)
(-41.146 256.928 0)
(-59.9874 251.141 0)
(-73.9213 255.376 0)
(-77.2851 269.204 0)
(-70.7227 288.786 0)
(-60.1853 308.839 0)
(-49.0208 326.956 0)
(-39.761 341.999 0)
(-32.9874 354.779 0)
(-27.8814 365.916 0)
(-23.0419 376.556 0)
(-18.3521 389.053 0)
(-14.5443 403.369 0)
(-11.1536 417.283 0)
(-8.05461 429.716 0)
(-4.53936 440.829 0)
(-1.76325 451.965 0)
(1.23657 460.314 0)
(5.02767 469.22 0)
(10.2564 476.155 0)
(17.365 484.158 0)
(26.6267 491.585 0)
(37.1067 498.738 0)
(51.5409 503.853 0)
(73.5947 507.751 0)
(111.811 506.639 0)
(202.356 498.018 0)
(408.613 454.584 0)
(679.871 313.442 0)
(413.797 46.7752 0)
(1453.24 -130.526 0)
(-1394.88 1969.13 0)
(-339.253 -362.521 0)
(-534.191 275.071 0)
(-216.962 447.882 0)
(-17.7274 502.59 0)
(18.3625 507.73 0)
(0.0252084 524.185 0)
(-18.201 541.483 0)
(-29.5939 556.724 0)
(-43.2669 573.938 0)
(-53.1844 594.553 0)
(-55.8269 623.45 0)
(-51.3098 657.8 0)
(-42.155 694.413 0)
(-32.7468 730.325 0)
(-24.2825 764.509 0)
(-17.9273 795.555 0)
(-13.6048 823.693 0)
(-10.4438 848.653 0)
(-5.44984 869.936 0)
(0.980755 888.946 0)
(4.72966 905.606 0)
(5.55388 918.244 0)
(5.703 927.115 0)
(7.94513 933.126 0)
(8.66184 938.442 0)
(10.664 939.43 0)
(13.9886 942.112 0)
(18.4795 942.041 0)
(25.8477 942.174 0)
(33.927 939.875 0)
(41.8848 934.537 0)
(52.7253 924.12 0)
(68.1239 907.643 0)
(94.6293 880.374 0)
(153.051 837.668 0)
(273.373 722.67 0)
(402.916 453.076 0)
(92.6769 -348.389 0)
(1566.75 1191.87 0)
(189.925 90123.9 0)
(-2159.11 1081.66 0)
(87.0442 -75.4423 0)
(-45.2071 221.875 0)
(35.8582 310.835 0)
(42.2874 300.67 0)
(35.1829 312.656 0)
(18.3374 331.417 0)
(7.13127 347.049 0)
(-4.69241 369.712 0)
(-12.2751 395.675 0)
(-12.9741 427.351 0)
(-8.90322 460.542 0)
(-0.835055 492.223 0)
(7.36232 521.093 0)
(13.8366 546.149 0)
(17.271 567.367 0)
(18.1805 585.468 0)
(16.6798 601.14 0)
(15.7851 613.984 0)
(16.0208 622.648 0)
(13.6883 626.893 0)
(9.57276 628.622 0)
(6.28634 629.457 0)
(6.37653 629.076 0)
(4.31215 626.693 0)
(4.77282 624.018 0)
(7.54314 620.335 0)
(10.3157 616.707 0)
(15.2776 612.707 0)
(19.2677 607.628 0)
(21.9251 601.84 0)
(25.6244 593.162 0)
(31.439 582.159 0)
(44.381 564.799 0)
(50.3869 536.083 0)
(38.0057 432.406 0)
(-352.24 125.836 0)
(1125.73 976.428 0)
(640.427 74460.9 0)
(86494.1 -90692.3 0)
(-87258.6 737.139 0)
(-1362.72 2099.7 0)
(155.269 2060.95 0)
(58.2025 1985.48 0)
(20.1172 1963.34 0)
(29.6544 1920.72 0)
(14.9407 1896.05 0)
(7.30834 1886.19 0)
(3.59121 1881.07 0)
(2.35894 1887.33 0)
(6.68117 1891.36 0)
(11.2032 1893.86 0)
(16.1945 1888.97 0)
(19.218 1877.92 0)
(20.3086 1861.39 0)
(19.9621 1842.49 0)
(18.9405 1822.75 0)
(17.0353 1803.97 0)
(15.2753 1787.76 0)
(13.4203 1771.74 0)
(10.4862 1757.21 0)
(8.02512 1746.65 0)
(6.14088 1738.95 0)
(5.2817 1733.75 0)
(3.788 1726.85 0)
(4.53713 1725.35 0)
(6.94364 1717.19 0)
(11.1285 1710.31 0)
(17.0989 1694.94 0)
(23.4548 1676.72 0)
(27.9448 1650.6 0)
(33.7602 1624.96 0)
(40.7917 1588.98 0)
(50.2291 1550.01 0)
(25.4723 1490.8 0)
(-121.956 1471.29 0)
(927.156 1577.92 0)
(71724.7 874.675 0)
(-71127.4 -74021.6 0)
(86494.1 90692.3 0)
(-87258.6 -737.139 0)
(-1362.72 -2099.7 0)
(155.269 -2060.95 0)
(58.2025 -1985.48 0)
(20.1172 -1963.34 0)
(29.6544 -1920.72 0)
(14.9407 -1896.05 0)
(7.30834 -1886.19 0)
(3.59121 -1881.07 0)
(2.35894 -1887.33 0)
(6.68117 -1891.36 0)
(11.2032 -1893.86 0)
(16.1945 -1888.97 0)
(19.218 -1877.92 0)
(20.3086 -1861.39 0)
(19.9621 -1842.49 0)
(18.9405 -1822.75 0)
(17.0353 -1803.97 0)
(15.2753 -1787.76 0)
(13.4203 -1771.74 0)
(10.4862 -1757.21 0)
(8.02512 -1746.65 0)
(6.14088 -1738.95 0)
(5.2817 -1733.75 0)
(3.788 -1726.85 0)
(4.53713 -1725.35 0)
(6.94364 -1717.19 0)
(11.1285 -1710.31 0)
(17.0989 -1694.94 0)
(23.4548 -1676.72 0)
(27.9448 -1650.6 0)
(33.7602 -1624.96 0)
(40.7917 -1588.98 0)
(50.2291 -1550.01 0)
(25.4723 -1490.8 0)
(-121.956 -1471.29 0)
(927.156 -1577.92 0)
(71724.7 -874.675 0)
(-71127.4 74021.6 0)
(189.925 -90123.9 0)
(-2159.11 -1081.66 0)
(87.0442 75.4423 0)
(-45.2071 -221.875 0)
(35.8582 -310.835 0)
(42.2874 -300.67 0)
(35.1829 -312.656 0)
(18.3374 -331.417 0)
(7.13127 -347.049 0)
(-4.69241 -369.712 0)
(-12.2751 -395.675 0)
(-12.9741 -427.351 0)
(-8.90322 -460.542 0)
(-0.835055 -492.223 0)
(7.36232 -521.093 0)
(13.8366 -546.149 0)
(17.271 -567.367 0)
(18.1805 -585.468 0)
(16.6798 -601.14 0)
(15.7851 -613.984 0)
(16.0208 -622.648 0)
(13.6883 -626.893 0)
(9.57276 -628.622 0)
(6.28634 -629.457 0)
(6.37653 -629.076 0)
(4.31215 -626.693 0)
(4.77282 -624.018 0)
(7.54314 -620.335 0)
(10.3157 -616.707 0)
(15.2776 -612.707 0)
(19.2677 -607.628 0)
(21.9251 -601.84 0)
(25.6244 -593.162 0)
(31.439 -582.159 0)
(44.381 -564.799 0)
(50.3869 -536.083 0)
(38.0057 -432.406 0)
(-352.24 -125.836 0)
(1125.73 -976.428 0)
(640.427 -74460.9 0)
(-1394.88 -1969.13 0)
(-339.253 362.521 0)
(-534.191 -275.071 0)
(-216.962 -447.882 0)
(-17.7274 -502.59 0)
(18.3625 -507.73 0)
(0.0252084 -524.185 0)
(-18.201 -541.483 0)
(-29.5939 -556.724 0)
(-43.2669 -573.938 0)
(-53.1844 -594.553 0)
(-55.8269 -623.45 0)
(-51.3098 -657.8 0)
(-42.155 -694.413 0)
(-32.7468 -730.325 0)
(-24.2825 -764.509 0)
(-17.9273 -795.555 0)
(-13.6048 -823.693 0)
(-10.4438 -848.653 0)
(-5.44984 -869.936 0)
(0.980755 -888.946 0)
(4.72966 -905.606 0)
(5.55388 -918.244 0)
(5.703 -927.115 0)
(7.94513 -933.126 0)
(8.66184 -938.442 0)
(10.664 -939.43 0)
(13.9886 -942.112 0)
(18.4795 -942.041 0)
(25.8477 -942.174 0)
(33.927 -939.875 0)
(41.8848 -934.537 0)
(52.7253 -924.12 0)
(68.1239 -907.643 0)
(94.6293 -880.374 0)
(153.051 -837.668 0)
(273.373 -722.67 0)
(402.916 -453.076 0)
(92.6769 348.389 0)
(1566.75 -1191.87 0)
(-1358.26 28.4721 0)
(-526.656 -68.4905 0)
(-693.89 -227.764 0)
(-264.452 -277.892 0)
(-21.8131 -281.354 0)
(21.4776 -277.47 0)
(2.65731 -276.156 0)
(-13.0189 -271.655 0)
(-24.1435 -266.046 0)
(-41.146 -256.928 0)
(-59.9874 -251.141 0)
(-73.9213 -255.376 0)
(-77.2851 -269.204 0)
(-70.7227 -288.786 0)
(-60.1853 -308.839 0)
(-49.0208 -326.956 0)
(-39.761 -341.999 0)
(-32.9874 -354.779 0)
(-27.8814 -365.916 0)
(-23.0419 -376.556 0)
(-18.3521 -389.053 0)
(-14.5443 -403.369 0)
(-11.1536 -417.283 0)
(-8.05461 -429.716 0)
(-4.53936 -440.829 0)
(-1.76325 -451.965 0)
(1.23657 -460.314 0)
(5.02767 -469.22 0)
(10.2564 -476.155 0)
(17.365 -484.158 0)
(26.6267 -491.585 0)
(37.1067 -498.738 0)
(51.5409 -503.853 0)
(73.5947 -507.751 0)
(111.811 -506.639 0)
(202.356 -498.018 0)
(408.613 -454.584 0)
(679.871 -313.442 0)
(413.797 -46.7752 0)
(1453.24 130.526 0)
(-1433.44 -52.5583 0)
(-586.171 -83.4939 0)
(-735.978 -117.029 0)
(-268.604 -124.253 0)
(-17.3211 -119.388 0)
(23.3717 -120.905 0)
(5.62931 -123.467 0)
(-8.45868 -123.19 0)
(-15.4026 -123.959 0)
(-28.9042 -117.439 0)
(-51.6894 -108.195 0)
(-73.2335 -102.476 0)
(-83.5048 -104.019 0)
(-80.3482 -112.741 0)
(-69.5285 -123.059 0)
(-56.2373 -131.951 0)
(-44.7386 -138.311 0)
(-36.6517 -142.582 0)
(-31.4293 -145.82 0)
(-27.7452 -148.944 0)
(-24.8566 -152.702 0)
(-22.4739 -157.219 0)
(-19.8351 -162.381 0)
(-16.9871 -168.125 0)
(-13.4952 -174.132 0)
(-10.1143 -180.435 0)
(-5.96337 -185.773 0)
(-1.27607 -190.811 0)
(4.08461 -195.009 0)
(10.9783 -199.234 0)
(19.8777 -203.624 0)
(30.0629 -208.704 0)
(44.0399 -214.028 0)
(65.4393 -220.665 0)
(104.008 -228.322 0)
(203.214 -236.543 0)
(451.237 -235.473 0)
(795.895 -182.501 0)
(520.502 -68.6971 0)
(1486.05 -41.0513 0)
(-1489.36 -31.869 0)
(-588.782 -33.9525 0)
(-733.167 -16.0279 0)
(-266.725 -15.2543 0)
(-18.5867 -14.6082 0)
(17.5468 -23.0839 0)
(0.455125 -33.0069 0)
(-13.4927 -39.0059 0)
(-18.6018 -47.5877 0)
(-25.9554 -49.8639 0)
(-45.568 -45.9623 0)
(-69.8974 -40.4984 0)
(-87.1771 -41.485 0)
(-89.0695 -50.4604 0)
(-78.6966 -62.8793 0)
(-63.7183 -74.9325 0)
(-50.0054 -84.2321 0)
(-40.2233 -90.179 0)
(-34.0126 -93.6858 0)
(-29.674 -95.6745 0)
(-26.3264 -96.93 0)
(-23.8714 -97.9104 0)
(-21.6627 -98.8827 0)
(-19.3783 -99.869 0)
(-16.4012 -100.757 0)
(-12.9813 -101.773 0)
(-8.76306 -102.448 0)
(-3.87188 -103.632 0)
(2.1399 -104.496 0)
(9.06305 -105.374 0)
(17.5013 -106.675 0)
(27.0808 -108.684 0)
(40.0149 -111.464 0)
(59.8204 -115.39 0)
(96.5105 -121.117 0)
(195.466 -128.816 0)
(460.689 -136.581 0)
(840.582 -117.891 0)
(550.104 -62.0633 0)
(1559 -67.3992 0)
(-1496.87 0.418911 0)
(-570.906 1.08884 0)
(-717.959 47.96 0)
(-267.236 69.3918 0)
(-24.866 79.8872 0)
(5.64199 54.8065 0)
(-9.71375 33.8915 0)
(-22.5092 21.1813 0)
(-25.8657 6.73247 0)
(-27.3379 -3.5169 0)
(-42.6645 -7.35953 0)
(-68.9189 -3.72702 0)
(-93.1046 -3.87717 0)
(-100.965 -13.5369 0)
(-93.1107 -30.2437 0)
(-76.8136 -46.368 0)
(-59.4307 -60.2548 0)
(-45.7616 -69.9389 0)
(-36.7249 -75.7764 0)
(-30.8714 -78.7659 0)
(-27.0112 -79.9774 0)
(-24.3556 -80.1012 0)
(-21.7225 -79.4621 0)
(-18.7934 -78.205 0)
(-15.3296 -76.5312 0)
(-11.744 -74.8112 0)
(-7.75489 -73.1392 0)