/*--------------------------------*- C++ -*----------------------------------*\
| =========                 |                                                 |
| \\      /  F ield         | OpenFOAM: The Open Source CFD Toolbox           |
|  \\    /   O peration     | Version:  v1912                                 |
|   \\  /    A nd           | Website:  www.openfoam.com                      |
|    \\/     M anipulation  |                                                 |
\*---------------------------------------------------------------------------*/
FoamFile
{
    version     2.0;
    format      ascii;
    class       volScalarField;
    location    "0.52";
    object      p;
}
// * * * * * * * * * * * * * * * * * * * * * * * * * * * * * * * * * * * * * //

dimensions      [1 -1 -2 0 0 0 0];


internalField   nonuniform List<scalar> 
4800
(
255.766
15.7456
5.13969
5.35808
5.65197
6.64059
7.7796
8.61925
8.99676
9.12587
9.14593
9.02876
8.3309
6.80067
5.86527
5.84718
5.96987
6.21739
6.54456
6.915
7.31779
7.73152
8.11979
8.47058
8.78181
9.00648
8.99492
8.68177
7.44666
6.16338
5.90202
5.94295
6.12744
6.36676
6.63832
6.93282
7.22261
7.47516
7.68594
7.86942
255.901
15.7209
5.12811
5.36276
5.65389
6.63905
7.77424
8.61162
8.98881
9.11978
9.14773
9.03634
8.3508
6.83059
5.8859
5.85719
5.97816
6.2308
6.56723
6.94852
7.36031
7.7812
8.17061
8.518
8.8295
9.06155
9.06263
8.76291
7.52813
6.23413
5.9667
6.00275
6.18195
6.40892
6.66001
6.93369
7.21877
7.4764
7.69257
7.90565
256.089
15.6781
5.11757
5.36627
5.65865
6.64262
7.77532
8.60591
8.97353
9.10109
9.13815
9.03642
8.37056
6.87554
5.91492
5.87154
5.9941
6.25635
6.60658
7.00412
7.43014
7.86041
8.25096
8.5944
8.90386
9.13728
9.1491
8.86664
7.64209
6.33734
6.05945
6.08745
6.2589
6.47135
6.69953
6.948
7.2174
7.48641
7.71929
7.9322
256.346
15.6175
5.10075
5.36251
5.65835
6.6373
7.76072
8.58702
8.95437
9.08585
9.13313
9.03903
8.40625
6.94219
5.94369
5.87319
5.99011
6.25738
6.62149
7.03984
7.48647
7.93342
8.33265
8.67674
8.98196
9.20753
9.22664
8.9764
7.79723
6.4871
6.19178
6.20873
6.37023
6.57004
6.77886
7.00043
7.23937
7.4932
7.72644
7.93146
256.656
15.5595
5.08391
5.35829
5.66245
6.63872
7.75484
8.56782
8.92494
9.05491
9.11109
9.0297
8.44374
7.02564
5.98244
5.8797
5.98776
6.26196
6.63561
7.0677
7.53104
7.99156
8.39867
8.73881
9.03063
9.24075
9.26201
9.0364
7.916
6.62001
6.30821
6.31551
6.46891
6.66076
6.86285
7.07389
7.29887
7.52948
7.75398
7.94342
256.976
15.5103
5.07139
5.35372
5.66619
6.63852
7.74296
8.53878
8.8822
9.0119
9.073
9.0007
8.46526
7.10253
6.0169
5.87706
5.97013
6.24328
6.62358
7.06756
7.5426
8.00891
8.41411
8.74223
9.0172
9.20831
9.23141
9.03442
7.98838
6.72615
6.39928
6.39694
6.54264
6.73141
6.92844
7.13482
7.36157
7.60218
7.81636
7.995
257.438
15.4773
5.06806
5.35217
5.66948
6.63742
7.73186
8.51187
8.8425
8.97013
9.02767
8.95721
8.46225
7.16016
6.04363
5.86795
5.94449
6.21131
6.59066
7.03927
7.51711
7.98394
8.38389
8.69486
8.94482
9.10859
9.13716
8.97064
8.00924
6.79317
6.45351
6.44531
6.58226
6.76708
6.96996
7.18236
7.40875
7.65747
7.89637
8.09417
257.925
15.4465
5.07156
5.35418
5.6751
6.63641
7.7232
8.49298
8.81621
8.94097
8.99092
8.91601
8.44556
7.19805
6.06641
5.8611
5.92355
6.17672
6.54253
6.98516
7.4594
7.92359
8.31529
8.61687
8.84966
8.98079
9.00909
8.85249
7.97583
6.81912
6.472
6.46357
6.59654
6.78517
6.99084
7.20651
7.43952
7.68985
7.94295
8.17798
258.267
15.3848
5.08079
5.36038
5.68731
6.64612
7.7261
8.48959
8.80711
8.92772
8.96385
8.87154
8.41827
7.22212
6.09082
5.86789
5.92891
6.17556
6.52726
6.94735
7.40127
7.84867
8.22858
8.52142
8.74871
8.85126
8.8754
8.71402
7.8904
6.79582
6.44742
6.44667
6.58558
6.77883
6.99185
7.21501
7.45133
7.70423
7.96092
8.22314
258.444
15.297
5.09157
5.37025
5.70411
6.66912
7.74767
8.50773
8.81845
8.93622
8.95655
8.84497
8.39909
7.24127
6.12165
5.89313
5.95835
6.20284
6.54899
6.9552
7.38277
7.79883
8.15227
8.44425
8.66879
8.75403
8.77403
8.59828
7.81403
6.76733
6.41411
6.42044
6.56347
6.76146
6.98078
7.20265
7.43351
7.68008
7.93764
8.20948
258.471
15.2052
5.10246
5.38587
5.72306
6.6989
7.78319
8.54035
8.84561
8.96032
8.96471
8.8358
8.39141
7.25967
6.15767
5.93425
6.00863
6.25314
6.59453
6.99045
7.39942
7.77865
8.1089
8.4004
8.62035
8.69707
8.71092
8.51866
7.76144
6.7567
6.39082
6.4063
6.55302
6.75496
6.97284
7.18301
7.39328
7.62225
7.87602
8.15591
258.489
15.1241
5.11479
5.40093
5.74435
6.72989
7.8203
8.57686
8.87633
8.9858
8.97868
8.84006
8.39067
7.27035
6.18925
5.98192
6.07184
6.31754
6.65318
7.03418
7.4282
7.78438
8.09645
8.38673
8.59751
8.67185
8.67645
8.47829
7.74958
6.7698
6.38444
6.40577
6.55206
6.75327
6.96663
7.16304
7.35352
7.55849
7.79684
8.06823
258.449
15.048
5.1296
5.41494
5.75835
6.75591
7.84873
8.59759
8.89265
8.99902
8.98756
8.84813
8.39331
7.27355
6.21519
6.03147
6.13951
6.38391
6.71209
7.07809
7.45665
7.79925
8.10028
8.384
8.5868
8.65965
8.66443
8.48042
7.78576
6.81358
6.4015
6.42623
6.57071
6.76868
6.97238
7.15233
7.32242
7.50889
7.72997
7.98647
258.153
14.9523
5.14464
5.42865
5.76797
6.76679
7.8572
8.59589
8.88916
8.99126
8.98222
8.8521
8.39352
7.26758
6.2292
6.07262
6.19513
6.43458
6.75344
7.10819
7.47266
7.80359
8.09899
8.37337
8.57135
8.64569
8.66163
8.5096
7.85927
6.88646
6.44133
6.47917
6.62047
6.81034
6.99856
7.1607
7.31079
7.47953
7.67888
7.90712
257.786
14.8501
5.15616
5.44038
5.77497
6.77109
7.84998
8.56416
8.8513
8.94444
8.94944
8.84098
8.38759
7.25303
6.2325
6.10184
6.2339
6.4694
6.77878
7.12049
7.4679
7.79031
8.0811
8.3441
8.53899
8.62976
8.64327
8.52246
7.93124
6.96591
6.50414
6.55993
6.69243
6.87263
7.04361
7.18742
7.32262
7.46731
7.63481
7.82758
257.551
14.7613
5.16167
5.45086
5.78391
6.7755
7.8378
8.51643
8.79237
8.87318
8.8912
8.81052
8.37227
7.22892
6.22788
6.11996
6.25199
6.48305
6.78341
7.11231
7.45175
7.77178
8.05821
8.30494
8.48557
8.58797
8.59603
8.51491
7.97363
7.02073
6.56429
6.63671
6.76568
6.9416
7.10644
7.23724
7.34987
7.46773
7.59777
7.75531
257.365
14.6611
5.15857
5.46195
5.79998
6.79042
7.8354
8.47627
8.73716
8.80072
8.82792
8.77305
8.34556
7.18998
6.21687
6.13156
6.25633
6.48069
6.77608
7.10591
7.44387
7.76398
8.04739
8.28264
8.44737
8.54364
8.54983
8.48998
7.97533
7.03155
6.59383
6.67927
6.81357
6.99639
7.15782
7.27673
7.37453
7.46901
7.56856
7.7007
257.259
14.4413
5.14485
5.46632
5.82359
6.82543
7.85738
8.46151
8.7049
8.74924
8.78096
8.74291
8.30842
7.12796
6.19879
6.13802
6.25656
6.48362
6.77827
7.10883
7.45857
7.78656
8.06823
8.29085
8.43903
8.52532
8.52024
8.44894
7.92871
6.99284
6.57123
6.66037
6.80555
7.00622
7.18209
7.30441
7.39161
7.46758
7.5542
7.6736
257.295
14.0683
5.12125
5.47635
5.86622
6.88355
7.905
8.4785
8.70099
8.72782
8.76377
8.72935
8.25778
7.03446
6.16656
6.13179
6.25033
6.48897
6.79928
7.1456
7.50554
7.83532
8.11154
8.32665
8.46987
8.54706
8.53704
8.43718
7.84447
6.89705
6.50585
6.5756
6.73989
6.95791
7.15604
7.29836
7.39564
7.47317
7.56178
7.6722
257.517
13.5436
5.08462
5.48473
5.91658
6.96798
7.98182
8.52179
8.7236
8.74054
8.77849
8.74119
8.18344
6.90028
6.12091
6.10852
6.24051
6.5028
6.84153
7.21416
7.59216
7.92198
8.18745
8.39689
8.54431
8.60751
8.59654
8.44643
7.73707
6.7625
6.41763
6.46493
6.63893
6.86946
7.09091
7.26589
7.39488
7.49569
7.58602
7.68824
257.969
12.894
5.04139
5.49101
5.97354
7.06985
8.08173
8.58785
8.76812
8.78333
8.82641
8.76283
8.06945
6.72805
6.07067
6.06849
6.22758
6.51537
6.88104
7.27832
7.67635
8.01321
8.27803
8.49265
8.64647
8.69289
8.67669
8.45222
7.60421
6.62078
6.33333
6.36894
6.55194
6.79382
7.03392
7.24037
7.40134
7.52155
7.61705
7.71977
258.529
12.1322
4.99928
5.49773
6.03838
7.1846
8.19106
8.66692
8.82582
8.85188
8.88811
8.77115
7.9086
6.53147
6.01395
6.02262
6.21238
6.52412
6.91477
7.33308
7.74625
8.09055
8.36278
8.59278
8.75761
8.8068
8.76755
8.43656
7.45298
6.50537
6.28391
6.32367
6.51343
6.75949
7.00655
7.22247
7.39721
7.53657
7.65331
7.76972
259.22
11.2747
4.96454
5.51022
6.11345
7.30652
8.29846
8.74367
8.88397
8.92124
8.94405
8.74868
7.70798
6.33288
5.94492
5.96847
6.18601
6.52381
6.93585
7.36852
7.79185
8.14558
8.43047
8.67523
8.8371
8.88857
8.81675
8.37383
7.29294
6.43013
6.27771
6.34029
6.53787
6.77843
7.01575
7.22943
7.4124
7.56931
7.70683
7.84108
260.023
10.3623
4.9409
5.53322
6.2005
7.43072
8.39623
8.81018
8.93104
8.97512
8.97632
8.68186
7.48135
6.14986
5.86447
5.90686
6.1459
6.50579
6.93961
7.3905
7.82695
8.18663
8.47402
8.72589
8.89144
8.93697
8.82266
8.25287
7.12325
6.38358
6.29487
6.40081
6.62073
6.85875
7.0782
7.27654
7.46177
7.63561
7.7939
7.94438
260.859
9.4093
4.92836
5.56911
6.30167
7.55458
8.47985
8.86157
8.96331
9.00798
8.98047
8.57155
7.24573
5.99917
5.78974
5.84952
6.10345
6.4757
6.9219
7.38319
7.83023
8.20633
8.50749
8.76173
8.91153
8.93918
8.78046
8.08385
6.95048
6.35938
6.31917
6.48163
6.72925
6.97776
7.19619
7.38309
7.55822
7.74495
7.9295
8.0923
261.693
8.432
4.92346
5.61985
6.42048
7.68183
8.5507
8.8937
8.97557
9.01504
8.95564
8.43107
7.02364
5.88881
5.73764
5.81598
6.07716
6.45268
6.89991
7.37056
7.82216
8.2106
8.52504
8.77911
8.91536
8.90765
8.70388
7.88605
6.7858
6.35105
6.36538
6.57353
6.83836
7.09722
7.33192
7.54241
7.72628
7.90599
8.09531
8.26028
262.501
7.4965
4.92327
5.68439
6.5554
7.81494
8.61598
8.91373
8.9749
8.99846
8.89962
8.27547
6.82819
5.81978
5.71486
5.81373
6.08053
6.45401
6.89408
7.36471
7.82576
8.22705
8.55222
8.79461
8.91179
8.87578
8.60537
7.67365
6.63891
6.35336
6.42868
6.6587
6.92631
7.18363
7.42705
7.6753
7.91819
8.13071
8.30709
8.41278
263.098
6.69347
4.92019
5.75632
6.7039
7.95148
8.68056
8.92903
8.97326
8.97309
8.82562
8.11226
6.66132
5.78439
5.72101
5.84282
6.11789
6.49173
6.92526
7.38377
7.83663
8.24408
8.58048
8.81078
8.90286
8.83985
8.4779
7.4503
6.51797
6.3608
6.4842
6.72164
6.98789
7.23886
7.48365
7.74638
8.04003
8.33303
8.53003
8.58567
263.371
6.04232
4.90849
5.83248
6.86759
8.09065
8.74528
8.93981
8.97628
8.95068
8.75023
7.9487
6.51769
5.77759
5.75194
5.90484
6.1923
6.56559
6.98994
7.44013
7.87474
8.27071
8.60152
8.81392
8.88272
8.78961
8.30959
7.21702
6.42346
6.36652
6.51906
6.76231
7.02268
7.27323
7.52316
7.78809
8.09045
8.4348
8.6789
8.71686
263.352
5.53678
4.89038
5.91363
7.04618
8.23216
8.80683
8.95678
8.9879
8.93969
8.68308
7.78694
6.3895
5.79352
5.80317
5.99146
6.29358
6.66895
7.08916
7.52783
7.94859
8.32273
8.62833
8.81098
8.85126
8.72222
8.09807
6.97821
6.35284
6.36379
6.53925
6.78022
7.0377
7.29744
7.55456
7.81581
8.10056
8.43606
8.7193
8.77033
263.077
5.20697
4.8733
6.00471
7.23553
8.37054
8.86457
8.98224
9.00989
8.94178
8.62267
7.62145
6.27145
5.81771
5.86605
6.08735
6.41075
6.795
7.21601
7.64326
8.04059
8.39912
8.66755
8.80782
8.82558
8.64244
7.86252
6.74217
6.30323
6.35074
6.53641
6.77669
7.03979
7.31089
7.5832
7.85023
8.1164
8.40273
8.67258
8.77497
262.594
5.00966
4.86402
6.10808
7.42633
8.50014
8.91647
9.01396
9.03762
8.95056
8.55826
7.44232
6.15413
5.83489
5.92321
6.17525
6.52687
6.92557
7.35054
7.76956
8.14611
8.48225
8.7182
8.82175
8.81481
8.56179
7.62116
6.53007
6.26037
6.33077
6.5251
6.76882
7.03971
7.32204
7.60217
7.86464
8.10451
8.33925
8.60327
8.77222
261.968
4.92687
4.86901
6.2236
7.60958
8.61823
8.96034
9.05209
9.0624
8.95577
8.47885
7.24352
6.03632
5.83444
5.95587
6.23862
6.62278
7.04217
7.47414
7.89196
8.25513
8.57194
8.78887
8.86359
8.8347
8.48337
7.37858
6.35673
6.22192
6.31292
6.51697
6.76564
7.04258
7.33266
7.6167
7.87226
8.08685
8.28712
8.52764
8.76021
261.387
4.86225
4.89415
6.34489
7.7779
8.7225
9.00001
9.09115
9.08685
8.96061
8.38581
7.0314
5.92615
5.81419
5.96317
6.27483
6.68994
7.13542
7.57923
8.00401
8.36543
8.67009
8.88671
8.93732
8.89439
8.4057
7.14059
6.22094
6.17987
6.29593
6.51385
6.77002
7.04984
7.33824
7.61736
7.86381
8.06528
8.25193
8.48651
8.76045
260.803
4.81861
4.93594
6.46527
7.92248
8.80732
9.04043
9.12418
9.10777
8.96045
8.28547
6.82825
5.83136
5.77745
5.94777
6.28184
6.71845
7.18795
7.64928
8.09219
8.46793
8.77275
9.00669
9.04698
8.98188
8.31898
6.91293
6.11312
6.12723
6.27584
6.51127
6.77681
7.05441
7.33053
7.59312
7.82929
8.03163
8.2194
8.45735
8.78225
260.311
4.80137
4.98244
6.57331
8.03616
8.86693
9.07577
9.15255
9.12456
8.95911
8.19287
6.65761
5.75828
5.73545
5.91908
6.26739
6.71786
7.2074
7.69495
8.16175
8.55425
8.86943
9.12759
9.17271
9.06973
8.21896
6.70325
6.02051
6.06446
6.24932
6.50174
6.77394
7.04339
7.30078
7.53988
7.76572
7.97781
8.18247
8.43452
8.80302
259.868
4.79066
5.02568
6.66056
8.11702
8.90422
9.10172
9.17138
9.13552
8.96158
8.12476
6.53454
5.71003
5.69863
5.88801
6.23937
6.69556
7.19683
7.70437
8.18881
8.61079
8.94732
9.22874
9.28203
9.13422
8.11352
6.52057
5.93951
5.99843
6.21395
6.48508
6.75894
7.01287
7.24307
7.45832
7.67548
7.89898
8.13018
8.41562
8.82872
259.555
4.78657
5.06023
6.72494
8.16902
8.92254
9.11448
9.17817
9.14034
8.96739
8.08539
6.45791
5.68206
5.6734
5.86123
6.20561
6.65659
7.16342
7.68698
8.18999
8.64282
9.00394
9.30086
9.35808
9.16008
8.00737
6.37249
5.86507
5.93773
6.17926
6.46634
6.73719
6.96893
7.16891
7.36113
7.56807
7.79939
8.05814
8.3822
8.83263
259.335
4.78719
5.08964
6.7671
8.19602
8.92209
9.10868
9.17053
9.13595
8.97254
8.07052
6.4212
5.67081
5.66087
5.844
6.17974
6.62073
7.12568
7.66245
8.18841
8.66009
9.04052
9.34764
9.40293
9.15729
7.91543
6.26718
5.80664
5.89318
6.15716
6.45609
6.71994
6.93114
7.10624
7.27688
7.47253
7.70722
7.9859
8.34374
8.82181
259.237
4.79238
5.11338
6.78627
8.20651
8.92885
9.11992
9.17923
9.13973
8.97685
8.06347
6.40436
5.66643
5.65679
5.83503
6.16433
6.59956
7.09764
7.63811
8.17801
8.66336
9.05973
9.37682
9.42427
9.14546
7.85034
6.20803
5.76511
5.85579
6.131
6.43914
6.70524
6.90644
7.06693
7.22451
7.41065
7.63828
7.91976
8.29788
8.80261
8.12615
8.41682
8.94425
9.51885
9.6728
9.43516
8.18509
6.63954
6.33697
6.41485
6.58154
6.81755
7.0256
7.18467
7.32874
7.48886
7.67577
7.89416
8.17768
8.60383
9.22336
9.77295
9.88619
9.51539
7.98728
6.51124
6.25135
6.2953
6.44536
6.67075
6.87512
7.00997
7.0959
7.1356
7.15536
7.21176
7.35783
7.60255
7.91826
8.20094
8.2737
8.27022
8.04162
7.62098
7.46406
7.55444
7.73046
7.96826
8.07072
8.04401
7.89445
7.65142
7.41387
7.34261
7.36078
7.44152
7.55833
7.65111
7.66939
7.66396
7.65125
7.63903
7.59542
7.56802
7.53838
7.49331
7.42596
7.38397
7.39454
7.45964
7.57511
7.73096
7.8906
7.99548
8.03053
8.01631
7.98174
7.94541
7.91891
7.90782
8.18996
8.48449
8.93041
9.31855
9.30791
8.98397
7.74549
6.56769
6.40673
6.49612
6.6652
6.88646
7.08767
7.24922
7.40137
7.57441
7.77713
8.00676
8.28135
8.65656
9.14305
9.50014
9.45754
9.07702
7.76232
6.64931
6.44333
6.4374
6.53476
6.71537
6.89935
7.0382
7.13053
7.18235
7.24133
7.34222
7.49904
7.74098
8.03695
8.26786
8.3062
8.24671
7.96765
7.62633
7.53765
7.64442
7.78759
7.96423
8.0275
7.97534
7.83335
7.62156
7.43798
7.38378
7.40916
7.48027
7.58587
7.66681
7.68245
7.67804
7.66621
7.64689
7.59724
7.55252
7.51628
7.47329
7.43445
7.42681
7.45781
7.53795
7.66255
7.78522
7.89008
7.9702
8.00065
7.99135
7.96759
7.94399
7.92973
7.92808
8.20347
8.48782
8.89497
9.18627
9.17448
8.76297
7.46421
6.50933
6.41719
6.50278
6.67375
6.89576
7.10468
7.28556
7.45402
7.62604
7.81489
8.03205
8.29923
8.66552
9.11941
9.35315
9.29734
8.81562
7.61694
6.81364
6.66624
6.62059
6.6508
6.75912
6.90272
7.02645
7.12227
7.20273
7.28978
7.39653
7.56176
7.82019
8.1255
8.30492
8.3257
8.25942
7.93521
7.62848
7.58397
7.69131
7.81115
7.94737
8.00395
7.9522
7.80502
7.64819
7.49641
7.43042
7.44304
7.5035
7.60267
7.68633
7.71248
7.7097
7.6999
7.65904
7.58298
7.52285
7.48703
7.47391
7.4734
7.49704
7.55373
7.64207
7.73538
7.80969
7.86611
7.91289
7.95275
7.97234
7.96929
7.95993
7.95277
7.95024
8.17902
8.47074
8.83133
8.96185
8.91027
8.40912
7.21429
6.4676
6.42592
6.50853
6.68301
6.91076
7.13089
7.31688
7.48376
7.65616
7.84417
8.05963
8.32752
8.69468
9.06722
9.142
9.0154
8.43665
7.40066
6.90427
6.87535
6.86748
6.84848
6.85669
6.91875
7.01439
7.11862
7.23398
7.36411
7.50685
7.69014
7.96921
8.26101
8.36065
8.36661
8.26883
7.91271
7.64385
7.63265
7.71635
7.81749
7.90548
7.93458
7.8879
7.7774
7.68722
7.58254
7.50761
7.50371
7.54632
7.63256
7.7185
7.75732
7.76693
7.73919
7.66229
7.55881
7.4938
7.46646
7.48167
7.52343
7.59486
7.68636
7.7587
7.81157
7.84095
7.85783
7.87286
7.903
7.94499
7.96827
7.96627
7.96125
7.95701
8.16504
8.46784
8.74133
8.76731
8.6449
8.1101
7.04062
6.42997
6.40886
6.49302
6.66581
6.89657
7.13001
7.3312
7.5076
7.67528
7.85429
8.06501
8.34085
8.72248
8.98432
9.00281
8.78363
8.08828
7.1952
6.94731
6.98153
7.05772
7.06374
7.01865
6.98687
7.02516
7.12493
7.27382
7.44665
7.62371
7.82519
8.11449
8.37189
8.42081
8.42729
8.29134
7.90264
7.65333
7.6472
7.69918
7.77901
7.83376
7.84623
7.82324
7.78585
7.74297
7.68214
7.6027
7.57257
7.598
7.66592
7.74281
7.8082
7.82711
7.77403
7.66184
7.53994
7.48164
7.4752
7.51202
7.61039
7.71843
7.80415
7.85238
7.85582
7.85234
7.85013
7.85756
7.87991
7.91437
7.94449
7.95204
7.94765
7.9387
8.20409
8.48222
8.62533
8.5878
8.41226
7.87231
6.91604
6.39708
6.37862
6.4593
6.62739
6.86596
7.11323
7.33295
7.51459
7.67788
7.85147
8.06824
8.37939
8.75755
8.89764
8.84318
8.49773
7.72619
7.05002
6.95777
7.02988
7.15882
7.23557
7.19586
7.1176
7.09305
7.16366
7.32096
7.52295
7.72981
7.96108
8.25458
8.46426
8.4894
8.49005
8.29442
7.88008
7.63474
7.62094
7.6445
7.68219
7.71168
7.74328
7.78465
7.81086
7.81029
7.78771
7.71882
7.6555
7.65859
7.70836
7.78728
7.8525
7.86317
7.79409
7.66127
7.54669
7.50183
7.52022
7.59447
7.70251
7.80653
7.87767
7.8999
7.89803
7.88097
7.86803
7.87061
7.88329
7.89596
7.90637
7.91032
7.90605
7.88896
8.30375
8.51433
8.55267
8.47993
8.26261
7.71259
6.83384
6.36843
6.34792
6.42174
6.58365
6.82514
7.0933
7.33179
7.52038
7.68372
7.86875
8.12101
8.456
8.75165
8.80815
8.64211
8.1495
7.40601
6.97611
6.94565
7.03123
7.1861
7.33951
7.34837
7.27928
7.21623
7.24997
7.37765
7.57667
7.79733
8.06341
8.36881
8.53775
8.56744
8.52959
8.23963
7.79725
7.57701
7.53773
7.54401
7.56179
7.58558
7.6613
7.77355
7.85657
7.88681
7.88001
7.83002
7.75268
7.72442
7.7604
7.81881
7.86112
7.86225
7.79514
7.67342
7.58329
7.55878
7.59704
7.6814
7.7684
7.85044
7.90361
7.93315
7.94116
7.92763
7.90789
7.89803
7.89311
7.88443
7.87369
7.86027
7.84624
7.82015
8.41132
8.5404
8.51493
8.42276
8.17386
7.63516
6.80249
6.35591
6.33016
6.40139
6.56198
6.80902
7.08538
7.33284
7.53611
7.71398
7.91333
8.19751
8.54227
8.68099
8.65115
8.3567
7.77946
7.20837
6.96319
6.95804
7.03858
7.16036
7.37558
7.46561
7.44222
7.38675
7.37915
7.45665
7.61802
7.83555
8.1334
8.45323
8.59577
8.63446
8.52204
8.12355
7.66548
7.47176
7.41216
7.39233
7.40069
7.46653
7.61564
7.77856
7.91635
7.96294
7.95895
7.92285
7.84855
7.78525
7.78975
7.81769
7.83533
7.83083
7.77284
7.6932
7.64986
7.65022
7.6908
7.75354
7.82021
7.86601
7.90679
7.94618
7.97409
7.97772
7.95909
7.92813
7.89255
7.85821
7.82772
7.80413
7.7889
7.76121
8.46997
8.55959
8.51858
8.41937
8.1677
7.6412
6.82983
6.37616
6.34289
6.41202
6.56867
6.81627
7.09202
7.34228
7.55564
7.75934
7.99976
8.29657
8.525
8.56626
8.41156
8.00608
7.48866
7.1345
6.99013
6.99228
7.05593
7.15131
7.33986
7.53819
7.59038
7.56454
7.52654
7.55263
7.65767
7.86361
8.1881
8.51343
8.64186
8.66638
8.44811
7.94201
7.51026
7.33168
7.24034
7.208
7.25637
7.39202
7.60163
7.81492
7.97433
8.0222
8.01985
7.9953
7.92828
7.83555
7.79873
7.79009
7.78359
7.7815
7.74738
7.71527
7.72732
7.75129
7.78485
7.81452
7.83792
7.87074
7.91107
7.95334
7.98875
8.00325
7.99244
7.94635
7.8832
7.82796
7.78937
7.7671
7.75485
7.72548
8.45175
8.54104
8.5214
8.44291
8.26126
7.78942
6.96422
6.44853
6.39948
6.46306
6.60638
6.83816
7.10488
7.35801
7.59
7.8297
8.10736
8.35928
8.42354
8.3618
8.08291
7.66399
7.33911
7.14479
7.04536
7.03763
7.08073
7.15791
7.31753
7.56777
7.72363
7.73615
7.69258
7.6651
7.71987
7.91628
8.25496
8.55694
8.68128
8.62894
8.26248
7.68289
7.31267
7.14742
7.06911
7.06841
7.16154
7.36053
7.60967
7.85163
8.01847
8.06839
8.06688
8.05021
7.98831
7.8726
7.78433
7.7361
7.71558
7.71832
7.72382
7.75283
7.79417
7.82806
7.84616
7.85028
7.86355
7.88915
7.92895
7.96633
7.99331
8.00386
7.98738
7.93545
7.86873
7.81143
7.77455
7.7559
7.74626
7.71636
8.39187
8.50287
8.50669
8.4467
8.31869
7.97133
7.22775
6.61654
6.51714
6.56359
6.68189
6.8827
7.13267
7.3937
7.6547
7.9285
8.18159
8.29913
8.26434
8.06765
7.72927
7.4455
7.30431
7.20089
7.11625
7.09033
7.11064
7.17828
7.32559
7.57369
7.83177
7.89811
7.85795
7.79774
7.82091
8.01086
8.34552
8.57647
8.67944
8.48588
7.94547
7.37132
7.11136
6.99573
6.95638
7.00661
7.14156
7.35987
7.62109
7.87133
8.04197
8.10514
8.10786
8.09247
8.02537
7.88645
7.74378
7.67434
7.6447
7.6607
7.70838
7.77798
7.83142
7.86953
7.87961
7.8853
7.90166
7.92771
7.95567
7.97596
7.98486
7.96796
7.9322
7.89455
7.85506
7.82177
7.79647
7.78124
7.77201
7.74408
8.30053
8.44437
8.48416
8.45416
8.35643
8.11051
7.51734
6.89096
6.72752
6.73448
6.80812
6.96427
7.19
7.45603
7.74045
8.00828
8.13968
8.14359
8.00041
7.71983
7.47206
7.37102
7.33571
7.27613
7.18946
7.14626
7.14533
7.21192
7.35889
7.6007
7.89334
8.03764
8.0248
7.97288
7.99108
8.16972
8.44089
8.59002
8.58225
8.17929
7.50968
7.1068
6.97071
6.92254
6.94032
7.0175
7.17365
7.39326
7.64374
7.89095
8.05976
8.14173
8.15366
8.1277
8.04427
7.88441
7.71918
7.63249
7.59962
7.61523
7.67604
7.76532
7.83134
7.86834
7.88315
7.90734
7.93266
7.95698
7.96929
7.96493
7.93803
7.89823
7.86776
7.85304
7.84648
7.84228
7.83559
7.82858
7.82241
7.80008
8.20059
8.36083
8.45276
8.45828
8.38381
8.23316
7.74975
7.16719
7.00695
6.99539
7.01444
7.11057
7.29626
7.54471
7.81632
7.97721
8.01144
7.90161
7.67209
7.45842
7.38263
7.3917
7.39987
7.34883
7.25509
7.20247
7.18519
7.2531
7.40533
7.64051
7.92622
8.14846
8.20512
8.20528
8.25384
8.39003
8.50925
8.57054
8.32015
7.69021
7.13831
6.97711
6.93569
6.93774
6.98377
7.08167
7.23996
7.44574
7.67934
7.91485
8.08768
8.18811
8.20771
8.15923
8.05758
7.88619
7.71015
7.61201
7.57647
7.58071
7.62678
7.71166
7.79144
7.84799
7.88378
7.91559
7.9398
7.94877
7.94241
7.91445
7.87367
7.835
7.81704
7.82048
7.83951
7.8625
7.87904
7.88892
7.88837
7.86906
8.10081
8.27646
8.41943
8.4683
8.42625
8.31786
7.90865
7.36749
7.2389
7.25287
7.28452
7.33604
7.455
7.64068
7.81051
7.86007
7.77226
7.58728
7.4216
7.3645
7.39262
7.45223
7.47217
7.41161
7.30845
7.25255
7.23069
7.29891
7.44908
7.67678
7.95934
8.24023
8.4115
8.50505
8.57494
8.60922
8.59448
8.40926
7.85332
7.22371
7.00256
6.95677
6.95763
6.99416
7.06349
7.17714
7.32499
7.50126
7.7075
7.93404
8.12515
8.24013
8.25733
8.1914
8.07914
7.90286
7.72475
7.61232
7.56991
7.56264
7.57962
7.63786
7.72414
7.80634
7.86435
7.90289
7.91915
7.90808
7.88245
7.85075
7.81825
7.79675
7.79158
7.80905
7.84286
7.8786
7.90749
7.92394
7.92728
7.9123
8.01071
8.21413
8.39562
8.48934
8.49889
8.40614
8.00388
7.47397
7.37729
7.39294
7.4864
7.59181
7.68306
7.76724
7.76193
7.6648
7.48938
7.358
7.33899
7.36192
7.44705
7.52589
7.53593
7.45828
7.34628
7.29471
7.27699
7.34339
7.48345
7.69983
7.98799
8.33608
8.6533
8.84222
8.89349
8.81662
8.58181
8.0336
7.32351
7.0112
6.96457
6.96617
7.00052
7.07139
7.16706
7.27877
7.39826
7.54173
7.72429
7.94404
8.15409
8.28429
8.29943
8.22714
8.12074
7.94471
7.75613
7.6236
7.57952
7.55974
7.55037
7.57725
7.64873
7.74885
7.82603
7.86125
7.85721
7.82558
7.78371
7.75426
7.7378
7.73762
7.75434
7.79331
7.84686
7.89661
7.93071
7.94476
7.93976
7.92139
7.9317
8.15947
8.37841
8.52223
8.58181
8.48663
8.06318
7.52408
7.42394
7.44439
7.58371
7.7757
7.8759
7.836
7.6707
7.44778
7.31263
7.28123
7.33225
7.40982
7.51435
7.58399
7.57357
7.48241
7.37019
7.32891
7.32154
7.38363
7.50821
7.7154
8.02358
8.46028
8.92336
9.14079
9.17792
8.95705
8.35889
7.50093
7.02132
6.95137
6.95577
6.99219
7.06218
7.15758
7.26233
7.35972
7.45282
7.57113
7.73548
7.94872
8.17244
8.3161
8.33528
8.27114
8.1817
8.01792
7.80971
7.64692
7.5958
7.56803
7.5426
7.55966
7.61302
7.68648
7.75374
7.77945
7.76198
7.72009
7.67609
7.65149
7.65012
7.67653
7.73002
7.79553
7.86195
7.9095
7.93128
7.93064
7.91332
7.88278
7.87372
8.1239
8.38253
8.55416
8.6402
8.51693
8.048
7.49831
7.38951
7.41272
7.57157
7.8109
7.92121
7.82836
7.58893
7.36296
7.29511
7.30208
7.37699
7.48009
7.57071
7.61519
7.58122
7.48135
7.37894
7.35131
7.36017
7.41499
7.52943
7.74554
8.11025
8.6412
9.16063
9.35323
9.34728
8.91371
7.91065
7.10921
6.9399
6.91475
6.95428
7.03116
7.12597
7.22725
7.32279
7.40217
7.47817
7.58322
7.7387
7.94417
8.17379
8.33097
8.37047
8.33299
8.25252
8.09104
7.86258
7.682
7.61721
7.59127
7.57573
7.59178
7.62876
7.66675
7.68019
7.67707
7.64808
7.59836
7.54661
7.51747
7.52337
7.57056
7.65674
7.75128
7.82576
7.86809
7.87756
7.85786
7.82394
7.78616
7.84148
8.10309
8.38517
8.56604
8.66216
8.50967
7.99649
7.43994
7.31251
7.32692
7.47567
7.68825
7.80122
7.73283
7.60245
7.47266
7.40149
7.40939
7.47325
7.55161
7.60419
7.61566
7.56749
7.46244
7.37945
7.36434
7.38595
7.43457
7.55478
7.80209
8.23811
8.80184
9.28271
9.48078
9.36405
8.63423
7.46402
6.9823
6.89479
6.90773
6.97887
7.08192
7.18081
7.2675
7.34415
7.41677
7.49315
7.59499
7.74046
7.93983
8.17369
8.34341
8.4148
8.41307
8.33652
8.16295
7.9051
7.7118
7.64981
7.63792
7.6358
7.65043
7.67178
7.6787
7.66309
7.63098
7.5858
7.52694
7.48014
7.46039
7.47318
7.51463
7.57986
7.64558
7.69726
7.72145
7.72102
7.70423
7.68246
7.64687
7.83474
8.09607
8.37917
8.55161
8.63679
8.45085
7.89847
7.34879
7.21806
7.22266
7.31461
7.45617
7.59315
7.65522
7.6546
7.64121
7.61532
7.59621
7.60211
7.61878
7.62214
7.59337
7.5395
7.43213
7.37409
7.36912
7.38934
7.45076
7.59685
7.88561
8.35657
8.88796
9.30286
9.44934
9.15448
8.22571
7.26901
6.95086
6.89662
6.93447
7.02753
7.13598
7.22266
7.28647
7.34337
7.41134
7.49432
7.60301
7.74636
7.93895
8.17483
8.3625
8.46595
8.50489
8.41773
8.22819
7.94427
7.74236
7.69389
7.70102
7.70919
7.72114
7.71808
7.70011
7.67024
7.63181
7.59274
7.54675
7.52151
7.51549
7.52108
7.53176
7.55125
7.56276
7.56669
7.55388
7.53164
7.51778
7.50876
7.47827
7.84495
8.09885
8.35687
8.49801
8.55548
8.32836
7.74396
7.2356
7.12294
7.1087
7.1493
7.25532
7.4347
7.61792
7.72765
7.80968
7.86166
7.84643
7.76728
7.68871
7.62442
7.56367
7.50589
7.40286
7.35945
7.36209
7.38532
7.47349
7.65885
7.98068
8.42864
8.95736
9.22049
9.19974
8.71795
7.87476
7.2558
6.98714
6.95445
7.00835
7.09384
7.18211
7.24773
7.29289
7.33719
7.40217
7.49631
7.61104
7.75504
7.94089
8.17569
8.38679
8.51933
8.58127
8.49705
8.28626
7.9786
7.78279
7.74605
7.7595
7.7706
7.77262
7.75009
7.72063
7.68368
7.65948
7.64731
7.63269
7.62346
7.60854
7.58339
7.5643
7.55584
7.54739
7.51655
7.47905
7.44747
7.42345
7.40863
7.37253
7.8753
8.10767
8.31985
8.42329
8.41987
8.15077
7.54408
7.10127
7.01571
7.00109
7.03988
7.14728
7.32022
7.55238
7.79967
7.9631
8.07857
8.08821
7.96296
7.77895
7.63518
7.54457
7.47143
7.37691
7.34408
7.35165
7.39021
7.51442
7.74215
8.06884
8.4998
8.88001
8.98749
8.74613
8.22291
7.75308
7.34646
7.07877
7.03647
7.08577
7.1528
7.21639
7.26524
7.29939
7.33758
7.40015
7.4959
7.62092
7.77213
7.95495
8.18416
8.40169
8.55575
8.63538
8.56716
8.3487
8.02664
7.83181
7.79052
7.7941
7.80474
7.79777
7.77087
7.73512
7.70255
7.6886
7.68874
7.69169
7.69221
7.67798
7.64811
7.60371
7.55606
7.51723
7.47892
7.45286
7.43972
7.42681
7.42271
7.39659
7.93109
8.1305
8.26466
8.33101
8.262
7.93358
7.31969
6.97844
6.93678
6.94404
6.99855
7.11081
7.2836
7.53552
7.85318
8.10214
8.24542
8.27661
8.14228
7.90693
7.68497
7.54629
7.45174
7.3652
7.33426
7.34804
7.41662
7.57754
7.82746
8.15589
8.48669
8.62079
8.52193
8.21371
7.9334
7.73848
7.48007
7.18576
7.09982
7.13565
7.19743
7.24849
7.28616
7.31736
7.35482
7.41757
7.51256
7.63193
7.78323
7.96808
8.19189
8.40649
8.56298
8.65371
8.61117
8.39619
8.07227
7.87221
7.81128
7.80411
7.80898
7.80078
7.77883
7.74593
7.71276
7.69221
7.68931
7.69738
7.71006
7.70538
7.67169
7.62038
7.56338
7.51841
7.49906
7.4864
7.49914
7.53336
7.5642
7.55929
8.01012
8.16821
8.22256
8.22868
8.10687
7.7066
7.12144
6.89653
6.89795
6.91789
6.99116
7.11888
7.30718
7.56831
7.90454
8.21603
8.36637
8.40473
8.29285
8.06641
7.79401
7.58289
7.4485
7.35856
7.33341
7.36546
7.46064
7.65323
7.92404
8.17978
8.28311
8.18243
8.00956
7.86156
7.82217
7.77241
7.60252
7.29453
7.15245
7.15871
7.21229
7.26475
7.31292
7.35445
7.39607
7.45585
7.54257
7.65429
7.80372
7.98739
8.19685
8.39932
8.54838
8.64754
8.62596
8.41887
8.10238
7.90317
7.81758
7.78804
7.78224
7.78862
7.77633
7.74729
7.70672
7.67317
7.66696
7.67086
7.6782
7.67566
7.65369
7.62264
7.59259
7.56896
7.56043
7.60169
7.66595
7.70384
7.71055
7.69366
8.1042
8.20838
8.20531
8.13628
7.95762
7.47942
6.9685
6.8385
6.86422
6.90647
7.00905
7.16681
7.3751
7.63686
7.95961
8.2883
8.4479
8.48671
8.42308
8.23857
7.94771
7.65042
7.45245
7.35838
7.33743
7.38454
7.52167
7.74334
7.96602
8.04892
7.91359
7.73188
7.68425
7.73132
7.77175
7.79842
7.69193
7.39359
7.19489
7.16631
7.20733
7.26336
7.33607
7.40275
7.45583
7.51182
7.586
7.68771
7.83206
8.00632
8.19537
8.37332
8.50447
8.60977
8.60978
8.40427
8.09157
7.90195
7.79824
7.7468
7.74517
7.75793
7.75981
7.73398
7.69127
7.65498
7.62791
7.60797
7.59843
7.60021
7.61735
7.62908
7.63333
7.65212
7.72011
7.78936
7.81574
7.80663
7.77885
7.75188
8.20549
8.23413
8.18868
8.06662
7.80302
7.2613
6.84885
6.77995
6.82136
6.89992
7.04578
7.24254
7.46977
7.72366
8.00932
8.3136
8.49499
8.55003
8.54294
8.4095
8.11963
7.73143
7.45572
7.35426
7.33063
7.41994
7.59384
7.79528
7.88136
7.75654
7.55279
7.47428
7.53652
7.66871
7.76274
7.81693
7.75644
7.47837
7.22756
7.16146
7.18979
7.25096
7.35234
7.45468
7.52991
7.58665
7.64844
7.73257
7.85843
8.01857
8.18277
8.32391
8.41333
8.51893
8.54109
8.33229
8.03699
7.86601
7.76429
7.706
7.70018
7.70942
7.70987
7.69783
7.65997
7.60646
7.56493
7.54078
7.5343
7.5575
7.59692
7.65191
7.73814
7.84131
7.89594
7.89882
7.88006
7.84793
7.80733
7.77299
8.309
8.26997
8.16283
7.999
7.64539
7.06834
6.74693
6.72095
6.77486
6.89685
7.0926
7.3307
7.57385
7.80985
8.05141
8.31797
8.52063
8.61563
8.65029
8.56155
8.28062
7.80485
7.44
7.3285
7.33878
7.4634
7.63677
7.72734
7.63934
7.46178
7.35663
7.36321
7.47648
7.66325
7.78002
7.84503
7.81158
7.54626
7.25108
7.15071
7.16925
7.23349
7.35935
7.49421
7.59769
7.66173
7.7135
7.77949
7.88568
8.02598
8.16367
8.25657
8.28052
8.33872
8.36897
8.19279
7.93521
7.80145
7.72729
7.66647
7.64194
7.63888
7.64696
7.63822
7.6015
7.55496
7.52037
7.50434
7.52264
7.56602
7.64724
7.77299
7.89606
7.96072
7.96828
7.94672
7.90561
7.85002
7.79229
7.75009
8.39675
8.30987
8.13978
7.92876
7.49445
6.91452
6.66426
6.66834
6.74054
6.90574
7.14696