/*--------------------------------*- C++ -*----------------------------------*\
| =========                 |                                                 |
| \\      /  F ield         | OpenFOAM: The Open Source CFD Toolbox           |
|  \\    /   O peration     | Version:  v1912                                 |
|   \\  /    A nd           | Website:  www.openfoam.com                      |
|    \\/     M anipulation  |                                                 |
\*---------------------------------------------------------------------------*/
FoamFile
{
    version     2.0;
    format      ascii;
    class       volScalarField;
    location    "1.18";
    object      p;
}
// * * * * * * * * * * * * * * * * * * * * * * * * * * * * * * * * * * * * * //

dimensions      [1 -1 -2 0 0 0 0];


internalField   nonuniform List<scalar> 
1900
(
10000
10000
10000
10000.4
10012.8
10098.5
10299.8
10520.9
10631.8
10751.4
10000
10000
10000
10000.4
10012.7
10097.6
10297.4
10517.9
10651.2
10739.1
10000
10000
10000
10000.4
10012.8
10097.6
10297.3
10516.9
10652.7
10721.1
10000
10000
10000
10000.4
10012.7
10097.6
10297.4
10517.9
10651.2
10739.1
10000
10000
10000
10000.4
10012.8
10098.5
10299.8
10520.9
10631.8
10751.4
10690.7
10718.2
10699.8
10608.7
10037
10738.7
10755.3
10714.9
10673.6
10400.1
10718
10731.1
10689
10628.4
10355.8
10738.7
10755.3
10714.9
10673.6
10400.1
10690.7
10718.2
10699.8
10608.7
10037
11573.5
11500.1
11700.4
11776.9
12095.4
11429.4
11476
11696.4
11841.1
11796
11425.2
11481.3
11687.6
11806.5
11526
11429.4
11476
11696.4
11841.1
11796
11573.5
11500.1
11700.4
11776.9
12095.4
10383.5
5988.38
6378.72
6439.71
6641.95
7035.97
7590.53
8238.5
8910.32
9496.33
9862.43
9984.43
9999.52
10000
10000
10000
10000
10000
10000
10000
10000
10000
10000
10000
10000
10000
10000
9999.42
9981.67
9842.19
9432.21
8781.79
8029.16
7269.59
6549.11
5897.73
5336.55
4872.21
4299.43
14600.6
10479.2
6324.2
6551.21
6481.49
6640.73
7040.95
7591.66
8239.98
8911.87
9497.34
9862.83
9984.5
9999.52
10000
10000
10000
10000
10000
10000
10000
10000
10000
10000
10000
10000
10000
10000
9999.42
9981.67
9842.19
9432.21
8781.79
8029.16
7269.59
6549.11
5897.73
5336.55
4872.21
4299.43
14600.6
10020.5
6845.81
6611.31
6495.03
6641.46
7042.35
7592.31
8240.46
8912.4
9497.73
9863
9984.53
9999.53
10000
10000
10000
10000
10000
10000
10000
10000
10000
10000
10000
10000
10000
10000
9999.42
9981.67
9842.19
9432.21
8781.79
8029.16
7269.59
6549.11
5897.73
5336.55
4872.21
4299.43
14600.6
10479.2
6324.2
6551.21
6481.49
6640.73
7040.95
7591.66
8239.98
8911.87
9497.34
9862.83
9984.5
9999.52
10000
10000
10000
10000
10000
10000
10000
10000
10000
10000
10000
10000
10000
10000
9999.42
9981.67
9842.19
9432.21
8781.79
8029.16
7269.59
6549.11
5897.73
5336.55
4872.21
4299.43
14600.6
10383.5
5988.38
6378.72
6439.71
6641.95
7035.97
7590.53
8238.5
8910.32
9496.33
9862.43
9984.43
9999.52
10000
10000
10000
10000
10000
10000
10000
10000
10000
10000
10000
10000
10000
10000
9999.42
9981.67
9842.19
9432.21
8781.79
8029.16
7269.59
6549.11
5897.73
5336.55
4872.21
4299.43
14600.6
11912.5
5366.85
6086.36
6314.69
6600.08
7014.75
7582.46
8231.72
8903.72
9491.5
9860.41
9984.1
9999.51
10000
10000
10000
10000
10000
10000
10000
10000
10000
10000
10000
10000
10000
10000
9999.42
9981.67
9842.19
9432.21
8781.79
8029.16
7269.59
6549.11
5897.73
5336.55
4872.21
4299.43
14600.6
13148.2
4772.37
5700.48
6080.11
6470.37
6947
7544.86
8206.84
8885.61
9480.54
9856.35
9983.48
9999.48
10000
10000
10000
10000
10000
10000
10000
10000
10000
10000
10000
10000
10000
10000
9999.42
9981.67
9842.19
9432.21
8781.79
8029.16
7269.59
6549.11
5897.73
5336.55
4872.21
4299.43
14600.6
14667
4638
5493.4
5906
6344.54
6869.36
7489.67
8168.95
8860.45
9466.94
9851.75
9982.82
9999.46
10000
10000
10000
10000
10000
10000
10000
10000
10000
10000
10000
10000
10000
10000
9999.42
9981.67
9842.19
9432.21
8781.79
8029.16
7269.59
6549.11
5897.73
5336.55
4872.21
4299.43
14600.6
15341.6
4565.9
5337.39
5753.31
6222.64
6784.15
7428.45
8127.1
8834.1
9453.68
9847.56
9982.25
9999.43
10000
10000
10000
10000
10000
10000
10000
10000
10000
10000
10000
10000
10000
10000
9999.42
9981.67
9842.19
9432.21
8781.79
8029.16
7269.59
6549.11
5897.73
5336.55
4872.21
4299.43
14600.6
15348.4
4517.61
5199.45
5617.01
6114.23
6702.97
7369.93
8087.97
8811
9443.05
9844.53
9981.87
9999.42
10000
10000
10000
10000
10000
10000
10000
10000
10000
10000
10000
10000
10000
10000
9999.42
9981.67
9842.19
9432.21
8781.79
8029.16
7269.59
6549.11
5897.73
5336.55
4872.21
4299.43
14600.6
15245.4
4468.1
5067.98
5500.48
6021.34
6633.53
7321.79
8057.65
8794.58
9436.32
9842.88
9981.7
9999.42
10000
10000
10000
10000
10000
10000
10000
10000
10000
10000
10000
10000
10000
10000
9999.42
9981.67
9842.19
9432.21
8781.79
8029.16
7269.59
6549.11
5897.73
5336.55
4872.21
4299.43
14600.6
15009.3
4398.45
4962.97
5411.32
5951.47
6583.51
7289.03
8038.46
8785.15
9433
9842.24
9981.65
9999.39
9999.97
9999.98
9999.98
9999.98
9999.98
9999.98
9999.98
9999.98
9999.98
9999.98
9999.98
9999.98
9999.98
9999.97
9999.39
9981.65
9842.16
9432.19
8781.77
8029.15
7269.57
6549.1
5897.72
5336.55
4872.21
4299.43
14600.6
14763
4333.25
4895.12
5353.86
5907.69
6554.39
7271.68
8029.3
8780.82
9430.41
9840.07
9979.49
9997.23
9997.81
9997.81
9997.81
9997.81
9997.81
9997.81
9997.81
9997.81
9997.81
9997.81
9997.81
9997.81
9997.81
9997.81
9997.23
9979.49
9840.05
9430.2
8780.01
8027.68
7268.41
6548.23
5897.09
5336.11
4871.91
4299.33
14600.5
14618.7
4300.16
4867.7
5329.6
5886.23
6531.6
7245.86
7999.58
8746.98
9393.41
9801.11
9939.86
9957.51
9958.09
9958.09
9958.09
9958.09
9958.09
9958.09
9958.09
9958.09
9958.09
9958.09
9958.09
9958.09
9958.09
9958.09
9957.51
9939.87
9801.14
9393.44
8746.83
7998.94
7244.38
6528.75
5881.67
5324.28
4862.86
4295.07
14593.4
14493.8
4253.4
4792.75
5240.11
5779.68
6407.53
7102.53
7836.23
8564.33
9194.4
9591.71
9726.77
9743.91
9744.47
9744.48
9744.48
9744.48
9744.48
9744.48
9744.48
9744.48
9744.48
9744.48
9744.48
9744.48
9744.48
9744.47
9743.91
9726.77
9591.73
9194.49
8564.62
7836.77
7103.22
6408.15
5780.03
5240.03
4792.18
4252.24
14486.8
13987.9
4096.12
4583.85
5006.11
5513.22
6104.9
6760.61
7453.6
8141.78
8737.16
9111.75
9238.43
9254.38
9254.89
9254.9
9254.9
9254.9
9254.9
9254.9
9254.9
9254.9
9254.9
9254.9
9254.9
9254.9
9254.9
9254.89
9254.38
9238.43
9111.75
8737.19
8141.9
7453.86
6761.04
6105.56
5514.24
5007.46
4585.28
4097.3
13988.5
12941.8
3813.11
4257.84
4650.15
5118.48
5665.31
6272.44
6914.68
7552.15
8102.1
8445.66
8560.37
8574.54
8574.99
8574.99
8574.99
8574.99
8574.99
8574.99
8574.99
8574.99
8574.99
8574.99
8574.99
8574.99
8574.99
8574.99
8574.54
8560.37
8445.66
8102.1
7552.18
6914.75
6272.58
5665.56
5118.87
4650.65
4258.36
3813.51
12942.2
11576.5
3460.95
3881.55
4244.26
4674.31
5176.39
5733.78
6323.54
6907.87
7409.16
7718.41
7819.41
7831.5
7831.86
7831.87
7831.87
7831.87
7831.87
7831.87
7831.87
7831.87
7831.87
7831.87
7831.87
7831.87
7831.87
7831.86
7831.5
7819.41
7718.41
7409.16
6907.87
6323.55
5733.79
5176.43
4674.38
4244.35
3881.65
3461.01
11576.6
10110
3100.2
3504.41
3837.5
4232.52
4690.96
5201.75
5740.62
6273.17
6726.36
7000.98
7087.9
7097.84
7098.12
7098.12
7098.12
7098.12
7098.12
7098.12
7098.12
7098.12
7098.12
7098.12
7098.12
7098.12
7098.12
7098.12
7097.84
7087.9
7000.98
6726.36
6273.17
5740.61
5201.74
4690.96
4232.51
3837.49
3504.4
3100.19
10110
8809.38
2763.31
3147.06
3454.19
3813.99
4236.49
4702.64
5195.13
5678.93
6086.3
6327.49
6400.83
6408.74
6408.95
6408.95
6408.95
6408.95
6408.95
6408.95
6408.95
6408.95
6408.95
6408.95
6408.95
6408.95
6408.95
6408.95
6408.74
6400.83
6327.49
6086.3
5678.93
5195.13
4702.63
4236.49
3813.98
3454.18
3147.05
2763.3
8809.38
7498.6
2472.89
2833.66
3113.69
3445.04
3827.29
4257.19
4706.58
5146.65
5512.09
5722.51
5783.54
5789.7
5789.84
5789.84
5789.84
5789.84
5789.84
5789.84
5789.84
5789.84
5789.84
5789.84
5789.84
5789.84
5789.84
5789.84
5789.7
5783.54
5722.51
5512.09
5146.65
4706.58
4257.19
3827.28
3445.04
3113.69
2833.65
2472.89
7498.6
6569.03
2228.94
2560.06
2818.84
3126.2
3479.59
3874.37
4288.92
4691.78
5020.74
5203.33
5253.2
5257.82
5257.92
5257.92
5257.92
5257.92
5257.92
5257.92
5257.92
5257.92
5257.92
5257.92
5257.92
5257.92
5257.92
5257.92
5257.82
5253.2
5203.33
5020.74
4691.78
4288.92
3874.37
3479.59
3126.2
2818.84
2560.06
2228.94
6569.02
5727.92
2042.38
2328.95
2569.91
2856.79
3183.8
3553.1
3938.54
4312.06
4612.64
4773.91
4815.29
4818.79
4818.86
4818.86
4818.86
4818.86
4818.86
4818.86
4818.86
4818.86
4818.86
4818.86
4818.86
4818.86
4818.86
4818.86
4818.79
4815.29
4773.91
4612.64
4312.06
3938.54
3553.1
3183.8
2856.79
2569.91
2328.95
2042.38
5727.92
5013.8
1777.25
2045.8
2240.81
2497.95
2805.06
3157.02
3527.22
3873.05
4125.28
4239.51
4262.97
4264.51
4264.54
4264.54
4264.54
4264.54
4264.54
4264.54
4264.54
4264.54
4264.54
4264.54
4264.54
4264.54
4264.54
4264.54
4264.51
4262.97
4239.51
4125.28
3873.05
3527.22
3157.02
2805.06
2497.95
2240.81
2045.8
1777.25
5013.8
20681.5
5118.74
5853.51
6772.61
7763.99
9162.64
10552.3
12075.9
13435.9
14361.6
14715.6
14769.5
14771.8
14771.8
14771.8
14771.8
14771.8
14771.8
14771.8
14771.8
14771.8
14771.8
14771.8
14771.8
14771.8
14771.8
14771.8
14771.8
14769.5
14715.6
14361.6
13435.9
12075.9
10552.3
9162.64
7763.99
6772.61
5853.51
5118.74
20681.5
20681.5
5118.74
5853.51
6772.61
7763.99
9162.64
10552.3
12075.9
13435.9
14361.6
14715.6
14769.5
14771.8
14771.8
14771.8
14771.8
14771.8
14771.8
14771.8
14771.8
14771.8
14771.8
14771.8
14771.8
14771.8
14771.8
14771.8
14771.8
14769.5
14715.6
14361.6
13435.9
12075.9
10552.3
9162.64
7763.99
6772.61
5853.51
5118.74
20681.5
5013.8
1777.25
2045.8
2240.81
2497.95
2805.06
3157.02
3527.22
3873.05
4125.28
4239.51
4262.97
4264.51
4264.54
4264.54
4264.54
4264.54
4264.54
4264.54
4264.54
4264.54
4264.54
4264.54
4264.54
4264.54
4264.54
4264.54
4264.51
4262.97
4239.51
4125.28
3873.05
3527.22
3157.02
2805.06
2497.95
2240.81
2045.8
1777.25
5013.8
5727.92
2042.38
2328.95
2569.91
2856.79
3183.8
3553.1
3938.54
4312.06
4612.64
4773.91
4815.29
4818.79
4818.86
4818.86
4818.86
4818.86
4818.86
4818.86
4818.86
4818.86
4818.86
4818.86
4818.86
4818.86
4818.86
4818.86
4818.79
4815.29
4773.91
4612.64
4312.06
3938.54
3553.1
3183.8
2856.79
2569.91
2328.95
2042.38
5727.92
6569.03
2228.94
2560.06
2818.84
3126.2
3479.59
3874.37
4288.92
4691.78
5020.74
5203.33
5253.2
5257.82
5257.92
5257.92
5257.92
5257.92
5257.92
5257.92
5257.92
5257.92
5257.92
5257.92
5257.92
5257.92
5257.92
5257.92
5257.82
5253.2
5203.33
5020.74
4691.78
4288.92
3874.37
3479.59
3126.2
2818.84
2560.06
2228.94
6569.02
7498.6
2472.89
2833.66
3113.69
3445.04
3827.29
4257.19
4706.58
5146.65
5512.09
5722.51
5783.54
5789.7
5789.84
5789.84
5789.84
5789.84
5789.84
5789.84
5789.84
5789.84
5789.84
5789.84
5789.84
5789.84
5789.84
5789.84
5789.7
5783.54
5722.51
5512.09
5146.65
4706.58
4257.19
3827.28
3445.04
3113.69
2833.65
2472.89
7498.6
8809.38
2763.31
3147.06
3454.19
3813.99
4236.49
4702.64
5195.13
5678.93
6086.3
6327.49
6400.83
6408.74
6408.95
6408.95
6408.95
6408.95
6408.95
6408.95
6408.95
6408.95
6408.95
6408.95
6408.95
6408.95
6408.95
6408.95
6408.74
6400.83
6327.49
6086.3
5678.93
5195.13
4702.63
4236.49
3813.98
3454.18
3147.05
2763.3
8809.38
10110
3100.2
3504.41
3837.5
4232.52
4690.96
5201.75
5740.62
6273.17
6726.36
7000.98
7087.9
7097.84
7098.12
7098.12
7098.12
7098.12
7098.12
7098.12
7098.12
7098.12
7098.12
7098.12
7098.12
7098.12
7098.12
7098.12
7097.84
7087.9
7000.98
6726.36
6273.17
5740.61
5201.74
4690.96
4232.51
3837.49
3504.4
3100.19
10110
11576.5
3460.95
3881.55
4244.26
4674.31
5176.39
5733.78
6323.54
6907.87
7409.16
7718.41
7819.41
7831.5
7831.86
7831.87
7831.87
7831.87
7831.87
7831.87
7831.87
7831.87
7831.87
7831.87
7831.87
7831.87
7831.87
7831.86
7831.5
7819.41
7718.41
7409.16
6907.87
6323.55
5733.79
5176.43
4674.38
4244.35
3881.65
3461.01
11576.6
12941.8
3813.11
4257.84
4650.15
5118.48
5665.31
6272.44
6914.68
7552.15
8102.1
8445.66
8560.37
8574.54
8574.99
8574.99
8574.99
8574.99
8574.99
8574.99
8574.99
8574.99
8574.99
8574.99
8574.99
8574.99
8574.99
8574.99
8574.54
8560.37
8445.66
8102.1
7552.18
6914.75
6272.58
5665.56
5118.87
4650.65
4258.36
3813.51
12942.2
13987.9
4096.12
4583.85
5006.11
5513.22
6104.9
6760.61
7453.6
8141.78
8737.16
9111.75
9238.43
9254.38
9254.89
9254.9
9254.9
9254.9
9254.9
9254.9
9254.9
9254.9
9254.9
9254.9
9254.9
9254.9
9254.9
9254.89
9254.38
9238.43
9111.75
8737.19
8141.9
7453.86
6761.04
6105.56
5514.24
5007.46
4585.28
4097.3
13988.5
14493.8
4253.4
4792.75
5240.11
5779.68
6407.53
7102.53
7836.23
8564.33
9194.4
9591.71
9726.77
9743.91
9744.47
9744.48
9744.48
9744.48
9744.48
9744.48
9744.48
9744.48
9744.48
9744.48
9744.48
9744.48
9744.48
9744.47
9743.91
9726.77
9591.73
9194.49
8564.62
7836.77
7103.22
6408.15
5780.03
5240.03
4792.18
4252.24
14486.8
14618.7
4300.16
4867.7
5329.6
5886.23
6531.6
7245.86
7999.58
8746.98
9393.41
9801.11
9939.86
9957.51
9958.09
9958.09
9958.09
9958.09
9958.09
9958.09
9958.09
9958.09
9958.09
9958.09
9958.09
9958.09
9958.09
9958.09
9957.51
9939.87
9801.14
9393.44
8746.83
7998.94
7244.38
6528.75
5881.67
5324.28
4862.86
4295.07
14593.4
14763
4333.25
4895.12
5353.86
5907.69
6554.39
7271.68
8029.3
8780.82
9430.41
9840.07
9979.49
9997.23
9997.81
9997.81
9997.81
9997.81
9997.81
9997.81
9997.81
9997.81
9997.81
9997.81
9997.81
9997.81
9997.81
9997.81
9997.23
9979.49
9840.05
9430.2
8780.01
8027.68
7268.41
6548.23
5897.09
5336.11
4871.91
4299.33
14600.5
15009.3
4398.45
4962.97
5411.32
5951.47
6583.51
7289.03
8038.46
8785.15
9433
9842.24
9981.65
9999.39
9999.97
9999.98
9999.98
9999.98
9999.98
9999.98
9999.98
9999.98
9999.98
9999.98
9999.98
9999.98
9999.98
9999.97
9999.39
9981.65
9842.16
9432.19
8781.77
8029.15
7269.57
6549.1
5897.72
5336.55
4872.21
4299.43
14600.6
15245.4
4468.1
5067.98
5500.48
6021.34
6633.53
7321.79
8057.65
8794.58
9436.32
9842.88
9981.7
9999.42
10000
10000
10000
10000
10000
10000
10000
10000
10000
10000
10000
10000
10000
10000
9999.42
9981.67
9842.19
9432.21
8781.79
8029.16
7269.59
6549.11
5897.73
5336.55
4872.21
4299.43
14600.6
15348.4
4517.61
5199.45
5617.01
6114.23
6702.97
7369.93
8087.97
8811
9443.05
9844.53
9981.87
9999.42
10000
10000
10000
10000
10000
10000
10000
10000
10000
10000
10000
10000
10000
10000
9999.42
9981.67
9842.19
9432.21
8781.79
8029.16
7269.59
6549.11
5897.73
5336.55
4872.21
4299.43
14600.6
15341.6
4565.9
5337.39
5753.31
6222.64
6784.15
7428.45
8127.1
8834.1
9453.68
9847.56
9982.25
9999.43
10000
10000
10000
10000
10000
10000
10000
10000
10000
10000
10000
10000
10000
10000
9999.42
9981.67
9842.19
9432.21
8781.79
8029.16
7269.59
6549.11
5897.73
5336.55
4872.21
4299.43
14600.6
14667
4638
5493.4
5906
6344.54
6869.36
7489.67
8168.95
8860.45
9466.94
9851.75
9982.82
9999.46
10000
10000
10000
10000
10000
10000
10000
10000
10000
10000
10000
10000
10000
10000
9999.42
9981.67
9842.19
9432.21
8781.79
8029.16
7269.59
6549.11
5897.73
5336.55
4872.21
4299.43
14600.6
13148.2
4772.37
5700.48
6080.11
6470.37
6947
7544.86
8206.84
8885.61
9480.54
9856.35
9983.48
9999.48
10000
10000
10000
10000
10000
10000
10000
10000
10000
10000
10000
10000
10000
10000
9999.42
9981.67
9842.19
9432.21
8781.79
8029.16
7269.59
6549.11
5897.73
5336.55
4872.21
4299.43
14600.6
11912.5
5366.85
6086.36
6314.69
6600.08
7014.75
7582.46
8231.72
8903.72
9491.5
9860.41
9984.1
9999.51
10000
10000
10000
10000
10000
10000
10000
10000
10000
10000
10000
10000
10000
10000
9999.42
9981.67
9842.19
9432.21
8781.79
8029.16
7269.59
6549.11
5897.73
5336.55
4872.21
4299.43
14600.6
)
;

boundaryField
{
    inlet
    {
        type            fixedValue;
        value           uniform 10000;
    }
    outlet
    {
        type            fixedValue;
        value           uniform 1000;
    }
    obstacle
    {
        type            zeroGradient;
    }
    empty
    {
        type            empty;
    }
}


// ************************************************************************* //
