/*--------------------------------*- C++ -*----------------------------------*\
| =========                 |                                                 |
| \\      /  F ield         | OpenFOAM: The Open Source CFD Toolbox           |
|  \\    /   O peration     | Version:  v1912                                 |
|   \\  /    A nd           | Website:  www.openfoam.com                      |
|    \\/     M anipulation  |                                                 |
\*---------------------------------------------------------------------------*/
FoamFile
{
    version     2.0;
    format      ascii;
    class       volTensorField;
    location    "1.76";
    object      grad(U);
}
// * * * * * * * * * * * * * * * * * * * * * * * * * * * * * * * * * * * * * //

dimensions      [0 0 -1 0 0 0 0];


internalField   nonuniform List<tensor> 
1900
(
(-0.335575 -2.10654e-05 0 -1.92173e-05 -1.80619e-05 0 0 0 0)
(-0.0600962 -8.63233e-06 0 -3.24026e-05 -4.98379e-05 0 0 0 0)
(-0.0697616 5.65969e-05 0 -5.77549e-05 -4.8338e-05 0 0 0 0)
(-0.0292973 0.000104852 0 -1.17666e-05 6.70742e-05 0 0 0 0)
(-0.00917625 0.000876883 0 -0.000108988 0.000301702 0 0 0 0)
(-0.00191253 0.00102494 0 0.00044186 0.00153608 0 0 0 0)
(-0.00532109 -0.0014967 0 0.00161343 0.00191713 0 0 0 0)
(-0.00871396 -0.0115765 0 0.0031732 -0.000627096 0 0 0 0)
(0.0177499 -0.0426209 0 0.00253076 -0.0169694 0 0 0 0)
(0.00787246 -0.131607 0 -0.0388337 -0.0785181 0 0 0 0)
(-0.335626 -4.68344e-05 0 -3.14729e-05 4.77164e-06 0 0 0 0)
(-0.0601347 -2.16437e-05 0 -6.14125e-05 1.62938e-05 0 0 0 0)
(-0.069741 6.03152e-05 0 -9.16734e-05 1.3404e-05 0 0 0 0)
(-0.0293485 0.000245188 0 3.23763e-05 -4.03031e-05 0 0 0 0)
(-0.00872262 0.000592125 0 3.93564e-06 -9.14484e-05 0 0 0 0)
(-0.000190111 0.000590488 0 0.000880403 -0.000917186 0 0 0 0)
(-0.00258975 -0.000666475 0 0.00234839 -0.00111639 0 0 0 0)
(-0.00779663 -0.00731009 0 0.00396412 0.000579518 0 0 0 0)
(-0.024257 -0.0352701 0 -0.000957718 0.0104601 0 0 0 0)
(-0.0821789 -0.0897599 0 -0.05645 0.0432004 0 0 0 0)
(-0.335668 6.00423e-14 0 -3.61852e-14 2.65806e-05 0 0 0 0)
(-0.0601564 6.42635e-13 0 -1.96986e-13 6.70883e-05 0 0 0 0)
(-0.0696678 -1.12893e-12 0 2.20635e-13 6.9868e-05 0 0 0 0)
(-0.0292017 4.15247e-13 0 3.90313e-14 -5.35421e-05 0 0 0 0)
(-0.00832822 -2.20107e-13 0 -5.67851e-14 -0.000420508 0 0 0 0)
(0.000431928 3.10965e-14 0 -1.53008e-13 -0.00123779 0 0 0 0)
(-0.00223737 -1.0853e-13 0 -6.72883e-14 -0.00160148 0 0 0 0)
(-0.0120201 -4.05168e-14 0 -1.75505e-14 9.51572e-05 0 0 0 0)
(-0.0426643 6.80032e-14 0 6.50521e-15 0.0130187 0 0 0 0)
(-0.104841 6.8986e-14 0 2.60683e-13 0.0706354 0 0 0 0)
(-0.335626 4.68344e-05 0 3.14729e-05 4.77164e-06 0 0 0 0)
(-0.0601347 2.16437e-05 0 6.14125e-05 1.62938e-05 0 0 0 0)
(-0.069741 -6.03152e-05 0 9.16734e-05 1.3404e-05 0 0 0 0)
(-0.0293485 -0.000245188 0 -3.23763e-05 -4.03031e-05 0 0 0 0)
(-0.00872262 -0.000592125 0 -3.93564e-06 -9.14484e-05 0 0 0 0)
(-0.000190111 -0.000590488 0 -0.000880403 -0.000917186 0 0 0 0)
(-0.00258975 0.000666475 0 -0.00234839 -0.00111639 0 0 0 0)
(-0.00779663 0.00731009 0 -0.00396412 0.000579518 0 0 0 0)
(-0.024257 0.0352701 0 0.000957718 0.0104601 0 0 0 0)
(-0.0821789 0.0897599 0 0.05645 0.0432004 0 0 0 0)
(-0.335575 2.10654e-05 0 1.92173e-05 -1.80619e-05 0 0 0 0)
(-0.0600962 8.63234e-06 0 3.24026e-05 -4.98379e-05 0 0 0 0)
(-0.0697616 -5.65969e-05 0 5.77549e-05 -4.8338e-05 0 0 0 0)
(-0.0292973 -0.000104852 0 1.17666e-05 6.70742e-05 0 0 0 0)
(-0.00917625 -0.000876883 0 0.000108988 0.000301702 0 0 0 0)
(-0.00191253 -0.00102494 0 -0.00044186 0.00153608 0 0 0 0)
(-0.00532109 0.0014967 0 -0.00161343 0.00191713 0 0 0 0)
(-0.00871396 0.0115765 0 -0.0031732 -0.000627096 0 0 0 0)
(0.0177499 0.0426209 0 -0.00253076 -0.0169694 0 0 0 0)
(0.00787246 0.131607 0 0.0388337 -0.0785181 0 0 0 0)
(-0.0835051 -0.23145 8.3939e-18 -0.130539 0.110858 -1.25908e-17 -3.34259e-17 -4.01627e-17 2.27517e-33)
(-0.187765 -0.285016 0 -0.177023 0.18375 0 8.90383e-17 3.20944e-17 0)
(-0.244821 -0.369063 0 -0.260284 0.223708 0 1.43107e-16 5.95147e-17 0)
(-0.684321 -0.312558 0 -0.58756 0.387802 0 0 0 0)
(-0.0100897 -1.01591 -2.39612e-16 -1.98586 2.20308 3.59418e-16 1.0873e-15 7.24869e-16 6.49469e-32)
(-0.163099 -0.130804 0 -0.110575 0.131994 0 -5.70143e-17 -2.01307e-17 0)
(-0.289367 -0.176072 0 -0.130653 0.213546 0 -8.90383e-17 -3.20944e-17 0)
(-0.483734 -0.280342 0 -0.255317 0.387452 0 -1.43107e-16 -5.95147e-17 0)
(-0.88982 -0.261908 0 -0.609177 0.713112 0 0 0 0)
(-0.705461 0.0897127 0 -0.82339 1.01121 0 0 0 0)
(-0.197617 -3.39139e-14 0 1.12938e-13 0.181628 0 0 0 0)
(-0.350181 3.39988e-13 0 3.03149e-14 0.283353 0 0 0 0)
(-0.622667 1.75448e-13 0 1.35525e-13 0.542518 0 0 0 0)
(-1.07264 -1.41766e-13 0 -1.70947e-13 1.03212 0 0 0 0)
(-0.895467 9.45101e-14 0 -2.77504e-13 1.59431 0 0 0 0)
(-0.163099 0.130804 0 0.110575 0.131994 0 -5.70143e-17 2.01307e-17 0)
(-0.289367 0.176072 0 0.130653 0.213546 0 -8.90383e-17 3.20944e-17 0)
(-0.483734 0.280342 0 0.255317 0.387452 0 -1.43107e-16 5.95147e-17 0)
(-0.88982 0.261908 0 0.609177 0.713112 0 0 0 0)
(-0.705461 -0.0897127 0 0.82339 1.01121 0 0 0 0)
(-0.0835051 0.23145 -8.3939e-18 0.130539 0.110858 -1.25908e-17 1.47454e-16 -8.04242e-17 2.27517e-33)
(-0.187765 0.285016 0 0.177023 0.18375 0 8.90383e-17 -3.20944e-17 0)
(-0.244821 0.369063 0 0.260284 0.223708 0 1.43107e-16 -5.95147e-17 0)
(-0.684321 0.312558 -2.29788e-17 0.58756 0.387802 -3.44683e-17 4.38281e-16 -2.92188e-16 6.22843e-33)
(-0.0100897 1.01591 2.39612e-16 1.98586 2.20308 3.59418e-16 -1.0873e-15 7.24869e-16 6.49469e-32)
(-0.102965 0.359252 2.54152e-18 -0.318069 -0.769206 2.28737e-17 -6.99249e-16 5.3464e-17 -6.8888e-34)
(0.254726 0.0149141 -7.30277e-19 -0.183367 -0.346564 -6.57249e-18 5.10674e-16 -4.56906e-17 -1.97942e-34)
(0.0855758 0.108205 0 0.0733088 -0.204123 0 0 0 0)
(-0.413815 0.47765 -1.72278e-18 0.593642 0.413631 -1.55051e-17 -3.46072e-16 5.28961e-17 4.66962e-34)
(-1.25424 0.494333 5.58389e-18 2.22466 1.77284 5.0255e-17 2.30154e-16 -2.55727e-17 1.51352e-33)
(0.072631 0.32798 0 -0.38055 -0.256358 0 3.54414e-16 -1.5149e-17 0)
(0.343989 -0.00188225 0 -0.217471 -0.356803 0 -2.58098e-16 1.76266e-17 0)
(0.341435 0.111809 0 0.158798 -0.33597 0 0 0 0)
(0.440272 0.496611 0 0.899298 -0.593101 0 1.9835e-16 -3.63803e-17 0)
(1.1055 0.39182 0 3.24482 -1.2589 0 -1.63578e-17 1.02628e-17 0)
(0.121079 9.95458e-14 0 -2.87478e-13 -0.493305 0 0 0 0)
(0.415765 1.35346e-13 0 -6.71835e-14 -0.456946 0 0 0 0)
(0.494634 3.59699e-13 0 1.0069e-12 -0.43216 0 0 0 0)
(0.906397 1.71412e-13 0 2.33227e-12 -0.983801 0 -6.85063e-17 3.11268e-29 0)
(1.68316 -2.57348e-13 0 3.16186e-12 -2.72613 0 3.27156e-17 -2.17666e-29 0)
(0.072631 -0.32798 0 0.38055 -0.256358 0 3.54414e-16 1.5149e-17 0)
(0.343989 0.00188225 0 0.217471 -0.356803 0 -2.58098e-16 -1.76266e-17 0)
(0.341435 -0.111809 0 -0.158798 -0.33597 0 0 0 0)
(0.440272 -0.496611 0 -0.899298 -0.593101 0 1.9835e-16 3.63803e-17 0)
(1.1055 -0.39182 0 -3.24482 -1.2589 0 -1.63578e-17 -1.02628e-17 0)
(-0.102965 -0.359252 0 0.318069 -0.769206 0 -3.54414e-16 -1.5149e-17 0)
(0.254726 -0.0149141 7.30277e-19 0.183367 -0.346564 -6.57249e-18 5.52241e-18 -1.04374e-17 -1.97942e-34)
(0.0855758 -0.108205 0 -0.0733088 -0.204123 0 0 0 0)
(-0.413815 -0.47765 1.72278e-18 -0.593642 0.413631 -1.55051e-17 1.78785e-17 -1.24572e-17 4.66962e-34)
(-1.25424 -0.494333 -5.58389e-18 -2.22466 1.77284 5.0255e-17 -2.30154e-16 -2.55727e-17 1.51352e-33)
(0.476364 -0.82948 0 10.1381 -0.0659914 0 0 0 0)
(1.17886 -0.940659 0 5.26981 0.583624 0 0 0 0)
(-0.609892 0.187633 0 2.57583 0.813282 0 0 0 0)
(-0.52798 0.490518 0 0.67551 0.618172 0 0 0 0)
(-0.202082 0.252855 0 0.152021 0.278747 0 0 0 0)
(0.0111937 0.0801477 0 0.0527306 0.129639 0 0 0 0)
(0.150278 0.0318706 0 0.00522598 0.0638589 0 0 0 0)
(0.236535 0.0113184 0 0.00538508 0.039298 0 0 0 0)
(0.288406 0.00541546 0 0.00638371 0.0239342 0 0 0 0)
(0.318599 0.00337386 0 0.00535794 0.0159437 0 0 0 0)
(0.328372 0.00259919 0 0.00365666 0.0106583 0 0 0 0)
(0.320252 0.00190299 0 0.00249088 0.00703575 0 0 0 0)
(0.289484 0.00142692 0 0.00183453 0.00434005 0 0 0 0)
(0.225537 0.00104263 0 0.00136011 0.00226631 0 0 0 0)
(0.131664 0.000627451 0 0.000769364 0.000820026 0 0 0 0)
(0.0475241 0.000250059 0 0.00022077 0.000148731 0 0 0 0)
(0.00819433 4.91379e-05 0 1.98937e-05 8.22199e-06 0 0 0 0)
(0.000468909 3.01133e-06 0 3.50989e-07 8.51321e-08 0 0 0 0)
(5.89736e-06 2.52943e-08 0 8.2656e-10 6.44401e-10 0 0 0 0)
(1.11299e-08 -6.5861e-11 0 1.62849e-13 4.74037e-10 0 0 0 0)
(1.49321e-08 2.98265e-12 0 1.06662e-14 4.74179e-10 0 0 0 0)
(7.36094e-06 -4.58703e-13 0 -2.20828e-12 4.78062e-10 0 0 0 0)
(0.00055388 7.16201e-12 0 1.59772e-12 4.6892e-10 0 0 0 0)
(0.00927758 2.02011e-11 0 -5.49757e-12 4.9079e-10 0 0 0 0)
(0.0522327 -5.66093e-12 0 -4.55537e-12 5.0082e-10 0 0 0 0)
(0.141984 -1.80993e-11 0 9.92421e-12 4.73752e-10 0 0 0 0)
(0.240852 -1.0975e-11 0 4.73143e-12 4.50712e-10 0 0 0 0)
(0.309284 -2.03755e-11 0 9.28939e-12 4.03283e-10 0 0 0 0)
(0.346444 -2.4945e-11 0 1.11392e-11 3.35555e-10 0 0 0 0)
(0.365703 -3.13912e-11 0 1.29296e-11 2.59149e-10 0 0 0 0)
(0.375475 -3.18507e-11 0 1.31967e-11 1.79546e-10 0 0 0 0)
(0.378857 -1.96189e-11 0 8.82048e-12 1.14679e-10 0 0 0 0)
(0.376263 -1.2819e-11 0 5.59251e-12 6.96945e-11 0 0 0 0)
(0.366305 -6.06008e-12 0 3.23487e-12 3.81741e-11 0 0 0 0)
(0.34454 -3.80831e-12 0 1.43312e-12 2.3185e-11 0 0 0 0)
(0.309196 -3.41231e-12 0 1.57899e-12 1.05584e-11 0 0 0 0)
(0.265626 -1.18362e-12 0 3.0949e-13 7.26099e-12 0 0 0 0)
(0.434945 -1.98731e-12 0 4.9479e-13 2.40104e-12 0 0 0 0)
(2.48349 -2.60365e-13 0 9.85638e-15 5.23449e-13 0 0 0 0)
(2.16992 -8.19923e-14 0 3.11067e-12 -3.17561e-12 0 0 0 0)
(1.21002 -0.719198 0 8.67003 -1.21035 0 0 0 0)
(-0.26896 -0.818008 0 4.56368 1.65851 0 0 0 0)
(-1.49647 0.177207 0 2.39274 2.02316 0 0 0 0)
(-0.991205 0.359287 0 0.573191 1.01353 0 0 0 0)
(-0.311049 0.150615 0 0.0776585 0.337008 0 0 0 0)
(-0.0071517 0.0422809 0 0.0172952 0.144336 0 0 0 0)
(0.145097 0.016575 0 -0.00411963 0.0615 0 0 0 0)
(0.23805 0.00543793 0 0.000272785 0.0347813 0 0 0 0)
(0.289071 0.00249104 0 0.00305318 0.0225931 0 0 0 0)
(0.318396 0.00160924 0 0.00296219 0.0161656 0 0 0 0)
(0.328026 0.00130155 0 0.00200446 0.0109955 0 0 0 0)
(0.320022 0.000960842 0 0.00133882 0.00723091 0 0 0 0)
(0.289327 0.000721567 0 0.000963564 0.00445396 0 0 0 0)
(0.225392 0.000527051 0 0.00066426 0.00232586 0 0 0 0)
(0.131538 0.000313549 0 0.000345769 0.000869928 0 0 0 0)
(0.0474527 0.000123201 0 9.82754e-05 0.000168998 0 0 0 0)
(0.00817385 2.40767e-05 0 8.86701e-06 1.03509e-05 0 0 0 0)
(0.000467061 1.51425e-06 0 1.42237e-07 8.6667e-08 0 0 0 0)
(5.86763e-06 1.70694e-08 0 5.15684e-11 -5.05338e-10 0 0 0 0)
(1.11359e-08 5.65744e-13 0 -3.56817e-14 -2.81756e-10 0 0 0 0)
(1.49327e-08 1.57651e-12 0 -2.06999e-14 -2.81147e-10 0 0 0 0)
(7.36094e-06 -1.71763e-12 0 3.70677e-12 -2.91786e-10 0 0 0 0)
(0.00055388 4.91277e-12 0 -7.12753e-12 -2.86626e-10 0 0 0 0)
(0.00927758 1.20084e-11 0 1.643e-11 -3.09174e-10 0 0 0 0)
(0.0522327 -3.28909e-12 0 6.80917e-12 -3.4636e-10 0 0 0 0)
(0.141984 -8.74154e-12 0 -1.51442e-11 -2.92682e-10 0 0 0 0)
(0.240852 -3.33027e-12 0 -4.72959e-12 -2.89171e-10 0 0 0 0)
(0.309284 -6.1118e-12 0 -6.16344e-12 -2.56344e-10 0 0 0 0)
(0.346444 -8.63649e-12 0 -8.41538e-12 -2.17286e-10 0 0 0 0)
(0.365703 -1.09068e-11 0 -1.13348e-11 -1.75935e-10 0 0 0 0)
(0.375475 -1.167e-11 0 -1.19952e-11 -1.10141e-10 0 0 0 0)
(0.378857 -6.18561e-12 0 -7.07491e-12 -6.82589e-11 0 0 0 0)
(0.376263 -3.56247e-12 0 -3.06829e-12 -4.17126e-11 0 0 0 0)
(0.366305 -1.45705e-12 0 -1.35624e-12 -2.21128e-11 0 0 0 0)
(0.34454 -6.64282e-13 0 -7.45143e-13 -2.15843e-11 0 0 0 0)
(0.309196 -8.74642e-13 0 -1.45283e-12 -7.11484e-12 0 0 0 0)
(0.265626 -3.29316e-13 0 -5.91383e-15 -7.40529e-12 0 0 0 0)
(0.434945 -1.15811e-12 0 -1.10194e-12 -2.97578e-12 0 0 0 0)
(2.48349 -1.72172e-13 0 -4.45509e-13 -2.50601e-12 0 0 0 0)
(2.16992 -3.92627e-14 0 -1.60068e-12 -2.49065e-12 0 0 0 0)
(1.26034 -2.77302e-13 0 2.78591e-12 -2.80349 0 0 0 0)
(-0.64726 -1.49786e-13 0 7.50071e-13 2.40109 0 0 0 0)
(-1.77076 2.02675e-14 0 -1.70084e-13 2.82031 0 0 0 0)
(-1.20146 8.04808e-14 0 -1.87271e-14 1.18279 0 0 0 0)
(-0.363797 1.21522e-13 0 2.17826e-13 0.350217 0 0 0 0)
(-0.0125963 2.90308e-14 0 -8.37793e-14 0.14731 0 0 0 0)
(0.145326 -1.62446e-13 0 -3.84399e-13 0.059536 0 0 0 0)
(0.238622 -1.06326e-13 0 -1.32076e-13 0.0333562 0 0 0 0)
(0.289188 2.91719e-13 0 2.29654e-13 0.0221502 0 0 0 0)
(0.318294 8.37031e-14 0 6.11096e-14 0.0162302 0 0 0 0)
(0.3279 -2.60257e-13 0 -1.37989e-13 0.0110867 0 0 0 0)
(0.319949 -1.39308e-13 0 -1.39961e-13 0.00728207 0 0 0 0)
(0.289288 -3.89012e-14 0 -1.12363e-13 0.00448089 0 0 0 0)
(0.225357 3.57445e-13 0 -3.64686e-14 0.0023213 0 0 0 0)
(0.131499 -2.43841e-13 0 -2.10742e-13 0.000857416 0 0 0 0)
(0.0474261 -2.92316e-13 0 2.56035e-14 0.000165645 0 0 0 0)
(0.00816578 1.51465e-13 0 1.50772e-14 1.04103e-05 0 0 0 0)
(0.00046633 7.56749e-13 0 2.35506e-12 1.17177e-07 0 0 0 0)
(5.85598e-06 1.38775e-13 0 -2.84011e-12 -1.6048e-10 0 0 0 0)
(1.11149e-08 -6.4192e-13 0 4.18969e-14 -1.74438e-10 0 0 0 0)
(1.49332e-08 6.49024e-14 0 4.23298e-13 -1.73156e-10 0 0 0 0)
(7.36094e-06 -2.05251e-12 0 -3.016e-13 -1.84942e-10 0 0 0 0)
(0.00055388 2.1035e-12 0 -9.16066e-12 -1.897e-10 0 0 0 0)
(0.00927758 2.82407e-12 0 1.76387e-11 -1.90263e-10 0 0 0 0)
(0.0522327 -8.63273e-13 0 -2.71657e-12 -2.29347e-10 0 0 0 0)
(0.141984 -1.46254e-12 0 -4.97378e-12 -1.82926e-10 0 0 0 0)
(0.240852 -4.0396e-13 0 -2.62463e-12 -1.89879e-10 0 0 0 0)
(0.309284 5.36333e-13 0 4.67685e-13 -1.65121e-10 0 0 0 0)
(0.346444 -1.55311e-12 0 -1.98015e-12 -1.4426e-10 0 0 0 0)
(0.365703 -2.21793e-13 0 -6.79105e-13 -1.22304e-10 0 0 0 0)
(0.375475 -5.26726e-13 0 -2.65137e-13 -7.16669e-11 0 0 0 0)
(0.378857 2.87656e-13 0 -5.7857e-13 -4.77752e-11 0 0 0 0)
(0.376263 6.05379e-13 0 1.01816e-12 -2.77649e-11 0 0 0 0)
(0.366305 -2.04577e-13 0 3.68629e-13 -1.62085e-11 0 0 0 0)
(0.34454 5.54722e-13 0 9.50155e-13 -1.7802e-11 0 0 0 0)
(0.309196 7.12505e-13 0 7.64855e-13 -4.85405e-12 0 0 0 0)
(0.265626 2.04717e-14 0 2.56266e-14 -4.49056e-12 0 0 0 0)
(0.434945 -5.62068e-13 0 -9.24529e-13 -2.63377e-12 0 0 0 0)
(2.48349 -1.19236e-13 0 -2.81893e-13 -2.16392e-12 0 0 0 0)
(2.16992 -7.75243e-14 0 -2.99634e-13 -1.66849e-12 0 0 0 0)
(1.21002 0.719198 0 -8.67003 -1.21035 0 0 0 0)
(-0.26896 0.818008 0 -4.56368 1.65851 0 0 0 0)
(-1.49647 -0.177207 0 -2.39274 2.02316 0 0 0 0)
(-0.991205 -0.359287 0 -0.573191 1.01353 0 0 0 0)
(-0.311049 -0.150615 0 -0.0776585 0.337008 0 0 0 0)
(-0.0071517 -0.0422809 0 -0.0172952 0.144336 0 0 0 0)
(0.145097 -0.016575 0 0.00411963 0.0615 0 0 0 0)
(0.23805 -0.00543793 0 -0.000272785 0.0347813 0 0 0 0)
(0.289071 -0.00249104 0 -0.00305318 0.0225931 0 0 0 0)
(0.318396 -0.00160924 0 -0.00296219 0.0161656 0 0 0 0)
(0.328026 -0.00130155 0 -0.00200446 0.0109955 0 0 0 0)
(0.320022 -0.000960842 0 -0.00133882 0.00723091 0 0 0 0)
(0.289327 -0.000721567 0 -0.000963564 0.00445396 0 0 0 0)
(0.225392 -0.000527051 0 -0.00066426 0.00232586 0 0 0 0)
(0.131538 -0.000313549 0 -0.000345769 0.000869928 0 0 0 0)
(0.0474527 -0.000123201 0 -9.82754e-05 0.000168998 0 0 0 0)
(0.00817385 -2.40767e-05 0 -8.86701e-06 1.03509e-05 0 0 0 0)
(0.000467061 -1.51425e-06 0 -1.42233e-07 8.66686e-08 0 0 0 0)
(5.86763e-06 -1.70692e-08 0 -5.76667e-11 -4.97679e-10 0 0 0 0)
(1.11369e-08 -3.12164e-12 0 6.83641e-14 -2.81752e-10 0 0 0 0)
(1.49326e-08 -1.47907e-12 0 7.84574e-13 -2.80064e-10 0 0 0 0)
(7.36093e-06 -6.53064e-12 0 -4.45504e-12 -2.9212e-10 0 0 0 0)
(0.00055388 3.36477e-12 0 -9.70512e-12 -3.09441e-10 0 0 0 0)
(0.00927758 4.74787e-13 0 1.60445e-11 -2.87364e-10 0 0 0 0)
(0.0522327 -1.15455e-12 0 -1.081e-11 -3.26488e-10 0 0 0 0)
(0.141984 2.74009e-12 0 5.10493e-12 -2.85691e-10 0 0 0 0)
(0.240852 1.84916e-12 0 2.25834e-13 -2.9019e-10 0 0 0 0)
(0.309284 7.1592e-12 0 6.9246e-12 -2.52502e-10 0 0 0 0)
(0.346444 3.81941e-12 0 4.72614e-12 -2.1861e-10 0 0 0 0)
(0.365703 1.02112e-11 0 1.00023e-11 -1.82563e-10 0 0 0 0)
(0.375475 1.00112e-11 0 1.15073e-11 -1.12482e-10 0 0 0 0)
(0.378857 6.58585e-12 0 5.91087e-12 -7.88786e-11 0 0 0 0)
(0.376263 5.62056e-12 0 4.97156e-12 -4.54566e-11 0 0 0 0)
(0.366305 1.44127e-12 0 1.61053e-12 -2.72086e-11 0 0 0 0)
(0.34454 2.63884e-12 0 2.06196e-12 -2.29971e-11 0 0 0 0)
(0.309196 2.99777e-12 0 2.84258e-12 -7.08681e-12 0 0 0 0)
(0.265626 3.16583e-13 0 3.01605e-13 -3.73718e-12 0 0 0 0)
(0.434945 -4.81267e-13 0 -7.47114e-13 -3.26189e-12 0 0 0 0)
(2.48349 1.08638e-13 0 -2.68094e-13 -2.91482e-12 0 0 0 0)
(2.16992 1.04864e-13 0 1.15517e-12 -1.49425e-12 0 0 0 0)
(0.476364 0.82948 0 -10.1381 -0.0659914 0 0 0 0)
(1.17886 0.940659 0 -5.26981 0.583624 0 0 0 0)
(-0.609892 -0.187633 0 -2.57583 0.813282 0 0 0 0)
(-0.52798 -0.490518 0 -0.67551 0.618172 0 0 0 0)
(-0.202082 -0.252855 0 -0.152021 0.278747 0 0 0 0)
(0.0111937 -0.0801477 0 -0.0527306 0.129639 0 0 0 0)
(0.150278 -0.0318706 0 -0.00522598 0.0638589 0 0 0 0)
(0.236535 -0.0113184 0 -0.00538508 0.039298 0 0 0 0)
(0.288406 -0.00541546 0 -0.00638371 0.0239342 0 0 0 0)
(0.318599 -0.00337386 0 -0.00535794 0.0159437 0 0 0 0)
(0.328372 -0.00259919 0 -0.00365666 0.0106583 0 0 0 0)
(0.320252 -0.00190299 0 -0.00249088 0.00703575 0 0 0 0)
(0.289484 -0.00142692 0 -0.00183453 0.00434005 0 0 0 0)
(0.225537 -0.00104263 0 -0.00136011 0.00226631 0 0 0 0)
(0.131664 -0.000627451 0 -0.000769364 0.000820026 0 0 0 0)
(0.0475241 -0.000250059 0 -0.00022077 0.000148731 0 0 0 0)
(0.00819433 -4.91379e-05 0 -1.98937e-05 8.22199e-06 0 0 0 0)
(0.000468909 -3.01132e-06 0 -3.5099e-07 8.51331e-08 0 0 0 0)
(5.89736e-06 -2.52945e-08 0 -8.25353e-10 6.36505e-10 0 0 0 0)
(1.11319e-08 6.26642e-11 0 -1.8523e-13 4.74104e-10 0 0 0 0)
(1.49318e-08 -2.95134e-12 0 -1.59863e-13 4.73211e-10 0 0 0 0)
(7.36093e-06 -1.05986e-11 0 2.33452e-12 4.77803e-10 0 0 0 0)
(0.00055388 3.48728e-12 0 3.9545e-12 4.90075e-10 0 0 0 0)
(0.00927758 -2.13498e-12 0 -5.05171e-12 4.68878e-10 0 0 0 0)
(0.0522327 -3.76758e-13 0 4.47809e-12 4.8625e-10 0 0 0 0)
(0.141984 9.09677e-12 0 -5.2505e-12 4.65678e-10 0 0 0 0)
(0.240852 9.25101e-12 0 -3.88785e-12 4.51709e-10 0 0 0 0)
(0.309284 2.13595e-11 0 -9.38623e-12 3.99229e-10 0 0 0 0)
(0.346444 1.8793e-11 0 -9.70509e-12 3.36308e-10 0 0 0 0)
(0.365703 3.06518e-11 0 -1.26595e-11 2.65444e-10 0 0 0 0)
(0.375475 2.96359e-11 0 -1.32627e-11 1.8215e-10 0 0 0 0)
(0.378857 1.97861e-11 0 -8.37694e-12 1.23328e-10 0 0 0 0)
(0.376263 1.56366e-11 0 -6.37117e-12 7.28636e-11 0 0 0 0)
(0.366305 6.3291e-12 0 -3.40834e-12 4.25985e-11 0 0 0 0)
(0.34454 6.40834e-12 0 -1.83526e-12 2.48552e-11 0 0 0 0)
(0.309196 6.31538e-12 0 -1.96536e-12 1.05728e-11 0 0 0 0)
(0.265626 1.13318e-12 0 -5.4013e-13 4.17546e-12 0 0 0 0)
(0.434945 -3.22838e-13 0 -6.70234e-14 2.60058e-12 0 0 0 0)
(2.48349 3.94986e-13 0 4.33681e-14 1.18918e-12 0 0 0 0)
(2.16992 3.35734e-13 0 -3.07913e-12 -2.86897e-12 0 0 0 0)
(2.47968 1.07485 0 -4.01116 -0.0910064 0 0 0 0)
(2.80059 1.22774 0 -2.45623 0.123072 0 0 0 0)
(0.360307 -0.143479 0 -1.38179 0.178717 0 0 0 0)
(-0.00642143 -0.54285 0 -0.522156 0.204465 0 0 0 0)
(-0.046389 -0.338844 0 -0.213111 0.167518 0 0 0 0)
(0.0637172 -0.133291 0 -0.0814117 0.103803 0 0 0 0)
(0.168806 -0.055558 0 -0.0370263 0.059861 0 0 0 0)
(0.239075 -0.0236824 0 -0.0209116 0.0403217 0 0 0 0)
(0.289856 -0.0137592 0 -0.0127175 0.0235766 0 0 0 0)
(0.319872 -0.00789647 0 -0.00830552 0.0148358 0 0 0 0)
(0.329424 -0.00538885 0 -0.00560819 0.00965708 0 0 0 0)
(0.3209 -0.00383475 0 -0.00404539 0.00618882 0 0 0 0)
(0.289854 -0.00289774 0 -0.00310102 0.00357016 0 0 0 0)
(0.225892 -0.00213893 0 -0.00228175 0.00166771 0 0 0 0)
(0.132106 -0.0012789 0 -0.00125268 0.000510872 0 0 0 0)
(0.0478402 -0.000485744 0 -0.000341808 7.30449e-05 0 0 0 0)
(0.00828845 -8.83411e-05 0 -3.08056e-05 4.80352e-06 0 0 0 0)
(0.000477401 -4.94029e-06 0 -5.88271e-07 5.40805e-07 0 0 0 0)
(6.05341e-06 -6.06629e-08 0 -1.71753e-09 4.39681e-07 0 0 0 0)
(1.16602e-08 -1.81616e-10 0 -4.8586e-13 4.39259e-07 0 0 0 0)
(1.49351e-08 2.54325e-12 0 -4.7037e-13 4.39258e-07 0 0 0 0)
(7.36094e-06 8.75094e-12 0 3.555e-12 4.39264e-07 0 0 0 0)
(0.00055388 -2.37509e-12 0 4.3278e-12 4.39275e-07 0 0 0 0)
(0.00927758 1.09327e-12 0 -3.38331e-11 4.39213e-07 0 0 0 0)
(0.0522327 -4.06137e-12 0 -4.05879e-10 4.38358e-07 0 0 0 0)
(0.141984 -2.62764e-11 0 -2.11508e-09 4.3268e-07 0 0 0 0)
(0.240852 -4.83908e-11 0 -5.44921e-09 4.15221e-07 0 0 0 0)
(0.309284 -8.16481e-11 0 -9.26456e-09 3.81154e-07 0 0 0 0)
(0.346444 -9.74134e-11 0 -1.21705e-08 3.31549e-07 0 0 0 0)
(0.365703 -1.10122e-10 0 -1.34623e-08 2.72176e-07 0 0 0 0)
(0.375475 -1.01825e-10 0 -1.30849e-08 2.10504e-07 0 0 0 0)
(0.378857 -7.72293e-11 0 -1.14327e-08 1.53276e-07 0 0 0 0)
(0.376263 -5.65997e-11 0 -9.09446e-09 1.04971e-07 0 0 0 0)
(0.366305 -3.43247e-11 0 -6.61177e-09 6.76349e-08 0 0 0 0)
(0.34454 -2.18085e-11 0 -4.37811e-09 4.11888e-08 0 0 0 0)
(0.309196 -1.38101e-11 0 -2.63636e-09 2.41919e-08 0 0 0 0)
(0.265626 -5.62833e-12 0 -1.63228e-09 1.41141e-08 0 0 0 0)
(0.434945 -2.53767e-12 0 -1.34746e-09 6.91351e-09 0 0 0 0)
(2.48349 -3.65335e-12 0 -5.54112e-10 2.82135e-09 0 0 0 0)
(2.16992 -2.70764e-12 0 -2.95028e-11 7.80589e-11 0 0 0 0)
(2.36024 0.912033 0 -0.54038 0.375168 0 0 0 0)
(2.843 1.04663 0 -0.775976 -0.163767 0 0 0 0)
(0.733597 -0.132876 0 -0.624486 -0.167747 0 0 0 0)
(0.318526 -0.473248 0 -0.390147 -0.073869 0 0 0 0)
(0.139148 -0.303747 0 -0.221093 0.0397722 0 0 0 0)
(0.15271 -0.155393 0 -0.112418 0.0573057 0 0 0 0)
(0.198642 -0.0803411 0 -0.0667369 0.047639 0 0 0 0)
(0.258598 -0.0396533 0 -0.0383023 0.030989 0 0 0 0)
(0.299776 -0.0255004 0 -0.0211041 0.0202447 0 0 0 0)
(0.324768 -0.0143621 0 -0.0127463 0.0127587 0 0 0 0)
(0.331913 -0.00943584 0 -0.00859509 0.00803005 0 0 0 0)
(0.32232 -0.0067327 0 -0.00637054 0.00468328 0 0 0 0)
(0.290986 -0.00499493 0 -0.00480386 0.00230011 0 0 0 0)
(0.227128 -0.00340279 0 -0.00326886 0.000847278 0 0 0 0)
(0.133296 -0.0018148 0 -0.00165591 0.000266748 0 0 0 0)
(0.048532 -0.000611343 0 -0.000446535 0.000127735 0 0 0 0)
(0.00847266 -9.79834e-05 0 -3.91782e-05 8.45648e-05 0 0 0 0)
(0.000494039 -6.1821e-06 0 -7.34395e-07 8.02082e-05 0 0 0 0)
(6.38056e-06 -1.04182e-07 0 -1.94181e-09 8.01412e-05 0 0 0 0)
(1.25033e-08 -2.14155e-10 0 -5.05159e-13 8.01411e-05 0 0 0 0)
(1.4934e-08 -8.1054e-13 0 4.65958e-14 8.01411e-05 0 0 0 0)
(7.36093e-06 -4.66891e-12 0 -1.263e-12 8.01411e-05 0 0 0 0)
(0.00055388 -4.25828e-11 0 -8.81812e-11 8.01411e-05 0 0 0 0)
(0.00927758 -8.87627e-10 0 -5.47925e-09 8.01345e-05 0 0 0 0)
(0.0522327 -6.29378e-09 0 -7.73887e-08 8.0011e-05 0 0 0 0)
(0.141984 -2.22672e-08 0 -3.83017e-07 7.92367e-05 0 0 0 0)
(0.240852 -4.96119e-08 0 -9.75154e-07 7.68857e-05 0 0 0 0)
(0.309284 -8.05532e-08 0 -1.67536e-06 7.2292e-05 0 0 0 0)
(0.346444 -1.04935e-07 0 -2.27566e-06 6.54461e-05 0 0 0 0)
(0.365703 -1.16537e-07 0 -2.65452e-06 5.68871e-05 0 0 0 0)
(0.375475 -1.14476e-07 0 -2.77368e-06 4.74169e-05 0 0 0 0)
(0.378857 -1.01623e-07 0 -2.65518e-06 3.78683e-05 0 0 0 0)
(0.376263 -8.24722e-08 0 -2.356e-06 2.89493e-05 0 0 0 0)
(0.366305 -6.14352e-08 0 -1.94636e-06 2.11809e-05 0 0 0 0)
(0.34454 -4.18417e-08 0 -1.48684e-06 1.48752e-05 0 0 0 0)
(0.309196 -2.60731e-08 0 -1.04247e-06 1.01939e-05 0 0 0 0)
(0.265626 -1.66453e-08 0 -7.63022e-07 6.98411e-06 0 0 0 0)
(0.434945 -1.08812e-08 0 -7.53696e-07 4.02736e-06 0 0 0 0)
(2.48349 -6.58433e-09 0 -4.13968e-07 1.94866e-06 0 0 0 0)
(2.16992 -2.64157e-09 0 -2.40289e-08 1.04164e-07 0 0 0 0)
(2.25265 0.555512 0 -0.0435046 0.288639 0 0 0 0)
(2.71954 0.704566 0 -0.189933 -0.264779 0 0 0 0)
(0.732106 -0.0568508 0 -0.241685 -0.270261 0 0 0 0)
(0.382303 -0.342877 0 -0.258328 -0.151905 0 0 0 0)
(0.22124 -0.21244 0 -0.181063 -0.0226866 0 0 0 0)
(0.21246 -0.12571 0 -0.130221 0.0133959 0 0 0 0)
(0.240227 -0.0809177 0 -0.0780169 0.027481 0 0 0 0)
(0.283048 -0.0500806 0 -0.0477626 0.018971 0 0 0 0)
(0.314483 -0.0313267 0 -0.0279433 0.0153975 0 0 0 0)
(0.331926 -0.0196669 0 -0.0175482 0.0108495 0 0 0 0)
(0.335568 -0.0131706 0 -0.0120846 0.0074383 0 0 0 0)
(0.324553 -0.00935633 0 -0.00890502 0.00506016 0 0 0 0)
(0.292843 -0.00659425 0 -0.00651799 0.00371695 0 0 0 0)
(0.228925 -0.00409835 0 -0.00422391 0.00312635 0 0 0 0)
(0.134826 -0.00197228 0 -0.002006 0.00287971 0 0 0 0)
(0.0493982 -0.000661303 0 -0.000506791 0.00272921 0 0 0 0)
(0.00871804 -0.000134139 0 -4.25302e-05 0.00268888 0 0 0 0)
(0.000515153 -9.20307e-06 0 -7.59084e-07 0.00268717 0 0 0 0)
(6.7611e-06 -1.25325e-07 0 -2.01487e-09 0.00268718 0 0 0 0)
(1.35314e-08 -2.51273e-10 0 -4.03753e-13 0.00268718 0 0 0 0)
(1.49343e-08 -7.32397e-14 0 4.83116e-13 0.00268718 0 0 0 0)
(7.36085e-06 -7.15374e-11 0 -9.16821e-12 0.00268718 0 0 0 0)
(0.000553875 -6.40891e-09 0 -3.43032e-09 0.00268718 0 0 0 0)
(0.0092775 -1.25367e-07 0 -2.04193e-07 0.002687 0 0 0 0)
(0.0522323 -8.65112e-07 0 -2.74506e-06 0.00268382 0 0 0 0)
(0.141983 -3.01168e-06 0 -1.29801e-05 0.00266477 0 0 0 0)
(0.240851 -6.6922e-06 0 -3.21896e-05 0.00260876 0 0 0 0)
(0.309283 -1.10237e-05 0 -5.5232e-05 0.00250054 0 0 0 0)
(0.346443 -1.48448e-05 0 -7.66065e-05 0.0023376 0 0 0 0)
(0.365702 -1.73737e-05 0 -9.29704e-05 0.00212769 0 0 0 0)
(0.375475 -1.83274e-05 0 -0.000102771 0.00188395 0 0 0 0)
(0.378857 -1.77961e-05 0 -0.000105735 0.00162164 0 0 0 0)
(0.376264 -1.60806e-05 0 -0.000102391 0.00135575 0 0 0 0)
(0.366306 -1.35623e-05 0 -9.37338e-05 0.00110053 0 0 0 0)
(0.344541 -1.05875e-05 0 -8.02866e-05 0.000868864 0 0 0 0)
(0.309196 -7.6042e-06 0 -6.36144e-05 0.000675757 0 0 0 0)
(0.265626 -5.94231e-06 0 -5.33233e-05 0.000527656 0 0 0 0)
(0.434945 -4.85234e-06 0 -6.21433e-05 0.000353149 0 0 0 0)
(2.48349 -3.78054e-06 0 -4.37996e-05 0.000198243 0 0 0 0)
(2.16992 -1.77742e-06 0 -3.47481e-06 2.15292e-05 0 0 0 0)
(2.21914 0.378739 0 0.00664119 0.182009 0 0 0 0)
(2.65203 0.508058 0 -0.0410593 -0.165293 0 0 0 0)
(0.667689 -0.0241068 0 -0.109852 -0.215942 0 0 0 0)
(0.376944 -0.234677 0 -0.176693 -0.113848 0 0 0 0)
(0.262596 -0.144457 0 -0.143265 -0.0192201 0 0 0 0)
(0.252009 -0.10705 0 -0.114104 0.00215103 0 0 0 0)
(0.278102 -0.0749688 0 -0.0754841 0.0158153 0 0 0 0)
(0.306851 -0.0512974 0 -0.0492759 0.0201574 0 0 0 0)
(0.328892 -0.0333266 0 -0.0318346 0.022395 0 0 0 0)
(0.34005 -0.0220319 0 -0.0210174 0.0228264 0 0 0 0)
(0.340242 -0.0150146 0 -0.0144387 0.0228036 0 0 0 0)
(0.327685 -0.0103187 0 -0.0101059 0.0230109 0 0 0 0)
(0.295496 -0.00685842 0 -0.00689502 0.0235608 0 0 0 0)
(0.231476 -0.00420959 0 -0.00415265 0.0241358 0 0 0 0)
(0.136877 -0.0021975 0 -0.00179514 0.0244616 0 0 0 0)
(0.0504241 -0.000795225 0 -0.000402811 0.0246337 0 0 0 0)
(0.0089603 -0.000138491 0 -3.21151e-05 0.0247096 0 0 0 0)
(0.000535021 -7.82534e-06 0 -5.61443e-07 0.0247164 0 0 0 0)
(7.11204e-06 -9.69948e-08 0 -1.44969e-09 0.0247165 0 0 0 0)
(1.44454e-08 -1.88098e-10 0 -5.4855e-13 0.0247165 0 0 0 0)
(1.49256e-08 -4.36736e-12 0 1.55954e-13 0.0247165 0 0 0 0)
(7.35763e-06 -2.14466e-09 0 -1.0055e-10 0.0247165 0 0 0 0)
(0.000553683 -1.73086e-07 0 -3.82219e-08 0.0247165 0 0 0 0)
(0.00927494 -3.23554e-06 0 -2.18644e-06 0.0247152 0 0 0 0)
(0.0522204 -2.14225e-05 0 -2.79166e-05 0.0246923 0 0 0 0)
(0.141955 -7.23507e-05 0 -0.000124996 0.0245633 0 0 0 0)
(0.240811 -0.000158313 0 -0.000297717 0.0242028 0 0 0 0)
(0.309242 -0.00026138 0 -0.00050239 0.0235265 0 0 0 0)
(0.346408 -0.000359392 0 -0.00070049 0.0225153 0 0 0 0)
(0.365678 -0.000437268 0 -0.000869623 0.0211967 0 0 0 0)
(0.375463 -0.000487769 0 -0.00099757 0.0196207 0 0 0 0)
(0.378857 -0.000509101 0 -0.0010789 0.0178492 0 0 0 0)
(0.376274 -0.00050224 0 -0.0011119 0.015947 0 0 0 0)
(0.366326 -0.00046924 0 -0.00109631 0.0139878 0 0 0 0)
(0.344569 -0.000409369 0 -0.00101927 0.012057 0 0 0 0)
(0.309222 -0.000328826 0 -0.00088151 0.0103138 0 0 0 0)
(0.265628 -0.000310894 0 -0.000810083 0.00887509 0 0 0 0)
(0.434954 -0.000317446 0 -0.00110507 0.0067484 0 0 0 0)
(2.48354 -0.000319567 0 -0.000957693 0.00428551 0 0 0 0)
(2.16995 -0.00017029 0 -0.000113847 0.00095092 0 0 0 0)
(2.20669 0.220839 0 0.0169502 0.193894 0 0 0 0)
(2.60729 0.321086 0 0.0189534 -0.0896025 0 0 0 0)
(0.601404 -0.0072765 0 -0.0455144 -0.140228 0 0 0 0)
(0.350105 -0.153309 0 -0.113592 -0.0515988 0 0 0 0)
(0.281554 -0.100659 0 -0.109754 0.00853897 0 0 0 0)
(0.277776 -0.0919488 0 -0.0879013 0.0302132 0 0 0 0)
(0.302697 -0.0635662 0 -0.0620688 0.0476533 0 0 0 0)
(0.32511 -0.0437402 0 -0.041247 0.0607188 0 0 0 0)
(0.341713 -0.0287547 0 -0.0268446 0.0696882 0 0 0 0)
(0.348689 -0.0192732 0 -0.0174259 0.0760011 0 0 0 0)
(0.346083 -0.0129928 0 -0.0114437 0.0808561 0 0 0 0)
(0.331823 -0.00862671 0 -0.00741884 0.0847353 0 0 0 0)
(0.29858 -0.00551026 0 -0.00446287 0.0878198 0 0 0 0)
(0.23384 -0.0032303 0 -0.00226208 0.0902185 0 0 0 0)
(0.13844 -0.00149253 0 -0.000816693 0.0918989 0 0 0 0)
(0.0510971 -0.000422322 0 -0.000157022 0.0927248 0 0 0 0)
(0.00910566 -5.4369e-05 0 -1.05035e-05 0.092903 0 0 0 0)
(0.000546099 -2.47787e-06 0 -1.5534e-07 0.0929143 0 0 0 0)
(7.30213e-06 -2.61666e-08 0 -3.3531e-10 0.0929145 0 0 0 0)
(1.49286e-08 -4.46357e-11 0 -5.38231e-13 0.0929145 0 0 0 0)
(1.4838e-08 -3.46751e-11 0 -7.01736e-13 0.0929145 0 0 0 0)
(7.32402e-06 -1.71749e-08 0 -4.84994e-10 0.0929145 0 0 0 0)
(0.000551768 -1.32432e-06 0 -1.81885e-07 0.0929144 0 0 0 0)
(0.00925064 -2.34701e-05 0 -1.00947e-05 0.0929101 0 0 0 0)
(0.052114 -0.000147209 0 -0.000123127 0.0928405 0 0 0 0)
(0.141723 -0.000474726 0 -0.000521325 0.0924729 0 0 0 0)
(0.240487 -0.00100585 0 -0.00118068 0.0915125 0 0 0 0)
(0.308895 -0.00163711 0 -0.00193056 0.0897985 0 0 0 0)
(0.346089 -0.00225988 0 -0.00266231 0.0873045 0 0 0 0)
(0.365416 -0.00280673 0 -0.00332273 0.0840768 0 0 0 0)
(0.375273 -0.00324409 0 -0.00388014 0.0801874 0 0 0 0)
(0.378747 -0.00355797 0 -0.00431638 0.075721 0 0 0 0)
(0.376247 -0.00373705 0 -0.00461984 0.0707592 0 0 0 0)
(0.366395 -0.00376204 0 -0.00477251 0.0654147 0 0 0 0)
(0.344748 -0.003551 0 -0.00466799 0.0598581 0 0 0 0)
(0.309398 -0.00307383 0 -0.00424653 0.0546225 0 0 0 0)
(0.265411 -0.0034417 0 -0.00403891 0.0501891 0 0 0 0)
(0.434803 -0.00442754 0 -0.00647073 0.0422032 0 0 0 0)
(2.48444 -0.00559045 0 -0.00652639 0.0294752 0 0 0 0)
(2.17073 -0.00321511 0 -0.00121883 0.0121546 0 0 0 0)
(2.22107 0.105551 0 0.0119913 0.157449 0 0 0 0)