/*--------------------------------*- C++ -*----------------------------------*\
| =========                 |                                                 |
| \\      /  F ield         | OpenFOAM: The Open Source CFD Toolbox           |
|  \\    /   O peration     | Version:  v1912                                 |
|   \\  /    A nd           | Website:  www.openfoam.com                      |
|    \\/     M anipulation  |                                                 |
\*---------------------------------------------------------------------------*/
FoamFile
{
    version     2.0;
    format      ascii;
    class       vectorField;
    location    "0.0001/lagrangian/dsmc";
    object      U;
}
// * * * * * * * * * * * * * * * * * * * * * * * * * * * * * * * * * * * * * //


12929
(
(888.5080843 -800.7618581 -291.1837444)
(-945.7716893 -53.83537894 636.4194373)
(581.310244 -219.8907065 483.2252864)
(-112.3147678 166.8676438 -300.6309809)
(-141.9025047 -55.53416797 -274.4265049)
(-676.2069188 12.34403721 -10.21793108)
(502.536511 -353.1838859 -242.9394306)
(-392.2207148 498.9201335 -319.4277615)
(-326.1730968 -241.1045286 -79.80012842)
(904.0196451 488.6492795 -8.885467831)
(1555.34259 -364.9375358 -351.8106625)
(1204.685773 -945.4011742 56.44856389)
(973.2268302 624.8395114 -164.3331058)
(813.829152 67.76229364 714.7233744)
(1046.253819 713.21261 -55.89844807)
(1236.393529 111.0644729 -350.1400474)
(614.0109518 -280.6860214 104.2282046)
(-349.6702534 334.1749198 -1085.954024)
(1156.190953 143.8875914 53.05185435)
(357.2548584 36.26426492 -204.8366308)
(156.8858249 575.6754038 -273.5512231)
(-706.08045 709.7304365 -198.5115432)
(486.2636378 -265.3600292 63.67584096)
(282.609691 -94.55034913 -514.0746801)
(-4.014896379 593.9445286 -122.2728594)
(-119.2135264 36.64235915 126.6565702)
(-26.69331245 1450.223851 72.42916988)
(1401.813339 179.0399878 -773.741242)
(-439.3745031 124.1356766 31.78313513)
(948.1828503 104.5428998 -245.4404997)
(-149.7423495 166.2111868 -377.6824696)
(684.7750292 431.5524992 530.3216302)
(-369.2840994 -678.6710442 -800.8309724)
(-118.6653392 -24.93734826 -255.1493568)
(745.5131673 384.0743674 331.0290024)
(738.780524 -918.7833315 -106.3257111)
(1026.233584 474.4644546 374.9465672)
(-257.4100755 281.6962151 486.5848524)
(804.6039664 177.5722802 -404.3254668)
(16.03998004 294.6480975 1078.678318)
(72.15556095 393.5139246 -915.705775)
(1050.246289 50.5735842 -214.1562028)
(1024.79901 192.3654882 -97.29496885)
(782.1864972 432.4417781 596.3618242)
(1839.357579 105.8733351 -1255.991534)
(-312.3630845 -1310.654317 -887.2727763)
(-874.551341 -30.32304238 151.7757032)
(1028.797296 -44.61872192 -18.59852746)
(-13.9424237 592.8279122 247.5514951)
(228.0567213 -697.5510906 -410.8877841)
(31.3686352 -178.8077873 1339.256153)
(626.8781314 92.0839138 220.8601919)
(679.3852614 286.8144375 158.1539588)
(187.19314 40.88571112 229.7641387)
(303.4341048 -188.654974 -615.2497188)
(354.0810834 407.1038539 79.87615506)
(1446.763817 1067.451802 534.2807983)
(-832.6961233 -502.7028478 168.5602937)
(97.43356992 -834.5945011 -196.7304816)
(869.7116378 638.5945282 361.7042306)
(872.6775907 799.5479493 894.6153171)
(31.20420456 -68.89728272 -393.4448647)
(1262.538001 466.4627477 200.9546676)
(165.7015653 -650.6955822 -205.803036)
(1672.778302 -643.5394104 -340.322671)
(395.1103379 516.2784367 -256.5138834)
(980.0624559 335.2648825 -331.0256267)
(124.2018383 151.2688929 1149.672498)
(20.09212659 -551.3278237 382.4254505)
(363.8591101 547.4804497 662.6293379)
(19.60617341 -383.1118361 398.4340002)
(50.71773208 976.6269624 189.7182189)
(-156.9404318 -113.9581385 -760.5712167)
(242.003415 -378.1836447 -779.1962963)
(-672.799802 847.546012 -127.6715389)
(1679.680721 211.0540669 237.5265075)
(325.7311355 82.86510264 -415.2240134)
(336.2135883 326.499428 618.903177)
(-7.994115563 238.3935503 98.15527465)
(1757.79636 266.716555 -678.2705356)
(466.5177353 264.0720125 67.93844469)
(906.0037894 230.9360978 159.9472467)
(939.5974133 199.902563 -250.8802554)
(-230.9112622 -38.98155697 224.6652015)
(279.7581632 -150.1364676 50.92777468)
(691.8421611 304.3174043 429.3995987)
(381.0607687 -628.1637186 -287.8661544)
(443.243917 437.5273616 83.91494248)
(1408.604832 697.0293676 379.5919168)
(531.8562866 142.6643872 -227.2043114)
(43.61146125 -364.6083797 438.7911975)
(-452.0287477 823.2416071 291.0949823)
(482.2908451 -162.2168409 -1140.258197)
(749.8256304 69.07030656 -454.1359069)
(329.2508416 -231.4717656 -67.44101048)
(1610.014989 -495.2303987 612.3144068)
(1280.62805 455.9508063 -232.9576163)
(247.5571337 1143.462968 -538.7191467)
(192.5078677 -151.9494718 1188.086932)
(1056.348578 -78.8390265 497.4207527)
(772.4817334 -460.4373261 -1000.010985)
(245.9190937 -245.6566371 -220.3178135)
(239.9950521 -443.6813795 495.3522333)
(-347.1052838 -882.3701626 -212.2595163)
(-280.3424819 -448.0484241 102.9642222)
(-18.17083114 760.7559126 225.3596921)
(-46.72219976 -39.65397082 -335.8791956)
(197.7341347 -168.7410172 389.5412934)
(17.34418434 -94.97257236 112.5784688)
(748.4573255 -345.0307383 -367.4005781)
(552.4376379 -202.8943386 752.6325283)
(456.0536944 -288.5800166 126.9694009)
(-173.7526468 -31.11211269 293.4363841)
(-1058.817183 501.4931677 -381.1931691)
(218.3924967 212.7269984 -460.5041232)
(1552.436895 73.0337566 -85.44633529)
(594.3724301 -327.7939844 -230.7533416)
(-683.9971912 203.6243064 573.9121429)
(1076.854241 -205.3817944 316.2935411)
(379.1228274 473.8730577 -487.5595521)
(647.7251252 -200.5054288 -209.2083387)
(234.5099571 842.1647043 254.3036007)
(515.7031526 -1039.098496 401.5287744)
(-203.5625291 -120.5977012 -372.4243359)
(-483.3342253 673.4814631 -262.0644717)
(311.782732 -970.1745853 -521.6939543)
(-99.51678217 438.8354567 -201.8160012)
(733.91369 32.97853234 -455.3064654)
(-210.7757651 609.9030494 -1095.36225)
(389.7625996 -502.5373885 1488.405822)
(271.1929877 -125.5777065 -100.8992811)
(195.9101411 -186.0096842 -262.7568083)
(340.8363823 -6.714937253 874.0714593)
(-226.4715339 -152.9065741 -123.2110412)
(-230.7415285 511.9756746 -105.285985)
(-407.9727102 -238.0337616 231.2038731)
(1226.692025 228.8676422 -327.1948381)
(1026.690588 -801.0948287 -47.82175433)
(932.6447402 807.0486357 -355.530488)
(-135.90548 574.8181287 -159.1641029)
(550.7855112 206.2290893 -655.0132991)
(385.9709505 16.29082078 -48.19760356)
(860.7215608 -499.7855619 316.7003337)
(847.183466 -307.986091 754.2469045)
(255.208593 -641.0889425 -84.2335974)
(317.1616701 549.2515242 -459.2819332)
(53.68185911 114.0280251 -254.6415545)
(605.5417932 -611.8204784 76.79292476)
(222.445419 -256.9370298 -499.0645021)
(-45.36393772 -1009.839938 701.1821299)
(152.291086 -31.56918123 359.0991771)
(896.1492335 55.659553 42.38036594)
(408.6698142 322.3027346 -325.6492014)
(-39.72672386 25.09078656 -284.2215302)
(261.545549 -232.1326055 -191.3693361)
(-358.6965482 -258.5038399 -439.5671189)
(105.3533772 251.2574899 167.6427179)
(603.3400924 948.7735903 427.59892)
(-209.9936207 -447.7466815 -549.2576987)
(1053.357672 -724.76444 548.9738985)
(594.0067803 -193.0174254 -325.0198658)
(911.2582516 569.5933518 501.7652626)
(1027.416473 1123.794865 661.4722775)
(-708.7126379 -429.1253407 -122.3492544)
(684.4542116 -293.9067777 -434.8723201)
(186.0197094 492.5311208 147.2998005)
(1483.847927 -85.75633627 -224.7907816)
(-76.43977258 -109.6853763 59.94005863)
(818.3334382 930.5860849 -178.3873077)
(1206.343857 325.4580549 420.2251824)
(1213.869085 139.8009373 -221.4358678)
(-158.4195071 519.9508927 46.5219158)
(-8.028019919 -45.73968357 -515.4657239)
(1325.707911 9.945794781 -189.6623778)
(186.3101333 -648.1317771 -184.7076746)
(789.9258877 -246.1179099 34.50734472)
(824.5070245 275.0175785 388.6790228)
(-73.16207567 353.5497086 -471.0250405)
(1491.262335 369.869183 603.967101)
(309.9738951 369.2588314 547.3290287)
(1130.358946 823.2239006 75.6909187)
(-185.906338 240.6194497 -446.2399358)
(499.1781416 -229.2938906 -385.1082361)
(-403.1666523 9.875814793 -327.7807994)
(-605.6246243 -107.6658649 280.8834867)
(69.03563836 75.09889115 757.0226782)
(143.0642011 -433.8334357 -829.9577795)
(220.1862797 159.0077739 -215.7959772)
(-886.7976557 -323.595065 -571.6711427)
(374.7072768 125.0377174 -254.7328698)
(473.4597979 -261.750009 -273.0676843)
(1181.572294 -243.8638137 -550.4463587)
(-414.7780614 359.4547349 -453.4662826)
(952.255256 1103.148578 604.4237548)
(-421.252776 875.105735 573.7326055)
(807.93524 935.7678624 -413.1361614)
(39.98543108 -1009.518157 -360.3821888)
(-516.884027 366.03419 -692.7198697)
(983.0235424 -249.5869877 78.65279131)
(898.8377861 1683.88899 -552.6087)
(397.0349983 -69.66237169 -302.7856582)
(1093.855777 259.9858585 87.92465153)
(148.8401829 -62.04979476 370.4740395)
(1508.799662 942.7104939 -95.17084266)
(1074.42654 191.352699 -466.1438627)
(130.9488276 35.53668504 -508.9140729)
(275.1251077 99.74501967 -18.18257859)
(-294.1657981 -315.5500857 -23.18944938)
(571.050171 613.7592339 -289.6047181)
(-340.3801845 -248.2945866 -554.5405686)
(-403.2715541 -216.3200438 583.9026041)
(-277.3440761 -678.9274937 -252.8509583)
(251.2520295 20.030036 249.7292752)
(-208.2382782 409.4390131 -141.8252363)
(-895.5913508 212.7200855 589.5657777)
(627.341593 6.660113702 -9.49208093)
(768.0761528 344.6538848 214.4162897)
(610.6910586 -383.8468634 130.5179334)
(1378.659469 996.6822188 182.6468525)
(413.111293 20.14178046 -214.66697)
(250.3137356 -608.6372368 348.4085044)
(-295.3559951 144.0029195 66.36114628)
(369.9569903 -206.1166053 -529.2509354)
(99.83060348 -178.1320162 638.4732814)
(1127.90295 161.0581423 740.6068681)
(-66.29792964 447.1110964 47.86462112)
(201.1058247 -618.2123648 -166.0499298)
(1080.209681 565.9330534 1838.751446)
(-18.64439452 274.1135744 -233.9508402)
(1268.709032 194.8233919 96.34784221)
(708.9957642 -840.2760695 444.8992773)
(-9.351552419 106.7603345 -657.2795471)
(-99.09198176 235.7233841 128.9023042)
(755.5773567 -386.9960561 728.7498077)
(476.8303969 805.3821168 -46.68629171)
(551.8151394 -500.1364459 -408.86885)
(1269.627627 309.9394226 -56.39189549)
(578.1980011 -81.85092357 262.0954887)
(-784.7061062 661.5549423 -419.8924884)
(390.9062755 -616.1319691 -37.26893219)
(-301.8095677 -209.6898728 145.0815921)
(874.6390876 -128.9320513 -342.1734374)
(1275.814125 341.6481049 -292.1376368)
(-987.5362935 -454.2227436 74.01884121)
(499.1035111 631.8522236 165.910216)
(1242.271174 687.1042858 -968.8830404)
(70.01604901 711.6255554 -193.8566999)
(633.435897 1150.418641 225.3344814)
(-303.942986 364.7418149 -356.427768)
(619.7711508 725.454523 419.2496063)
(94.71266296 511.7567937 425.0884877)
(1115.10913 -9.068180939 -493.8581597)
(127.1742332 354.7873482 814.7783707)
(-19.13762481 129.464394 -323.632802)
(1160.92934 119.5222808 115.6097617)
(560.8273387 877.4111365 -260.9787739)
(-423.0639476 152.9971598 -269.8778215)
(150.7113332 -320.4937344 604.2556024)
(1016.935894 271.1833616 -677.7004766)
(976.7390843 -144.2217766 61.85122512)
(-204.7083217 -88.43535405 717.0612425)
(132.8719214 144.2856292 344.6905873)
(-59.32179565 857.4335025 595.9880909)
(1223.38877 193.9436511 -107.5362467)
(-46.86711284 -221.0782439 388.2471762)
(72.80513959 432.1893541 -281.1339543)
(447.4588438 -840.4219939 382.1161129)
(-58.56078228 557.014529 569.5193828)
(308.5833122 -106.1311185 316.4734993)
(-6.228481231 -202.275978 804.9035097)
(952.4355022 46.87366805 53.54396831)
(639.9544406 1176.86464 301.380191)
(638.333558 165.5451083 975.018592)
(272.2367313 590.9562349 285.6526861)
(561.6551257 72.59757453 376.3473988)
(-142.8551682 -540.5078459 800.6327035)
(283.7153693 -3.943337761 -788.9091044)
(427.1468909 716.8731298 -197.0890586)
(951.9869169 734.4782301 -77.88600266)
(1028.394798 1212.791759 -242.4594354)
(997.3313046 800.8361679 -431.2406725)
(994.613982 -33.40819146 -87.87600658)
(-203.2891219 1055.413419 396.4355329)
(794.808212 158.2336527 148.6354728)
(871.3831146 -40.6241221 -352.8598341)
(981.051307 601.7151886 -289.1582124)
(-260.9989256 0.4128908053 -440.4599234)
(1189.255447 -265.1768447 18.54507937)
(-95.99569533 500.6510813 365.6447019)
(59.13516613 -252.8038774 146.721816)
(-661.4149141 -170.2791523 -137.5021232)
(176.0453123 741.52685 -83.43256005)
(372.7524863 -293.8577613 37.59363489)
(-154.3546891 737.6275155 281.7893461)
(1477.7122 356.8822217 585.1876251)
(694.9005312 270.8477562 -493.6654493)
(851.8948838 70.89095861 114.9106339)
(946.5433181 -179.9435587 -453.2471733)
(139.1366987 -171.6032266 -529.585354)
(920.0698667 -193.7111439 67.34762954)
(170.2498535 -184.4324997 -356.750579)
(-618.7828086 69.44744166 912.9617999)
(-371.5678632 540.6345514 827.2492206)
(418.6398656 32.96466534 568.8774456)
(-542.7444616 220.1882049 82.0077182)
(1600.436196 434.0149335 269.6388455)
(-294.4243312 132.3682016 63.65834797)
(738.001205 -1082.388184 30.99542583)
(433.3857506 481.3403465 518.8231688)
(-513.9591594 -304.2174731 -505.4892713)
(-270.7473697 10.53526313 -668.263955)
(-302.7947086 -234.2124856 -114.1186997)
(-145.1372222 -89.48285959 -696.819771)
(239.4539188 -843.5528194 -123.931063)
(-167.4823555 193.9668214 1336.24048)
(-150.539423 156.4559779 26.73745387)
(-487.7013179 737.6501292 616.1423014)
(591.5630241 -214.9236766 66.56608753)
(-33.6881809 -4.576688968 459.5275654)
(-428.6237477 257.0219563 175.8004412)
(184.7066095 602.0614476 469.9448744)
(653.1363835 375.1887753 467.8259684)
(-194.7573077 785.0874665 -75.5742321)
(291.9740621 645.8129527 317.0808886)
(104.9479316 -150.4213653 45.19014686)
(52.89608283 -193.8878022 470.8293942)
(-164.1198242 1232.606651 -174.7690512)
(-123.9555321 -250.4424079 99.50600509)
(-653.567707 223.8359194 458.2446497)
(1086.313471 576.0273205 -192.2798125)
(257.018047 363.8262072 507.5705542)
(-538.180359 -333.4035793 536.8443856)
(294.8135366 883.4049135 -59.12165891)
(1160.526112 13.81388042 -2.956005141)
(-426.7999849 -374.1375112 121.3630436)
(7.093148978 562.405814 350.5581579)
(624.871403 295.2773436 -484.3097143)
(183.318298 439.1309722 297.1220825)
(21.45680996 412.8812958 609.9366155)
(786.9715969 333.5291513 22.23116641)
(1161.456251 298.5617958 -303.3617897)
(-95.38909449 687.612627 -190.1059148)
(445.300122 876.6062064 46.67115875)
(1248.66914 430.9911964 -66.71682668)
(1744.619643 -480.3925459 1031.254341)
(1390.084744 108.4782026 44.24777392)
(766.3236938 686.9892956 -125.7366552)
(314.0361152 829.9197543 -214.0737619)
(-410.7695031 330.7199714 -238.4341208)
(228.2103542 -18.24241364 -148.5943832)
(986.9282777 405.6055715 14.54127967)
(261.5227711 679.2425416 -32.97041809)
(591.5895689 -10.14165577 -315.7645612)
(362.5528883 -412.2414692 236.6158342)
(574.2156592 -709.732586 -315.1821091)
(-16.64916838 544.9610327 196.4972297)
(101.0290602 -78.86519534 -1065.594469)
(557.6497364 208.7878342 247.8705527)
(936.2247572 649.7033374 -127.0464839)
(-374.2039099 -13.89633786 326.6864407)
(-60.77249454 -757.6324042 520.9794966)
(462.6145372 -424.0448058 5.813857259)
(1294.592261 -306.3816861 179.1362948)
(798.4729565 35.07487865 110.8068781)
(1461.797111 -53.85321045 -291.2932327)
(400.4503954 470.8084343 157.6638829)
(-1222.472798 723.1311129 -496.9448071)
(214.1667989 -146.6073945 102.6532749)
(122.0717358 303.7625162 -513.4408853)
(-247.113251 -147.5764871 209.8080898)
(440.1326865 103.2837835 443.3190692)
(967.4893194 -264.242103 185.5203897)
(747.8137038 326.0427792 -41.55933727)
(-41.14165181 52.07341544 -502.1555904)
(500.9802183 495.6764512 -202.4002419)
(-615.974233 -17.7004044 747.2638358)
(478.4656988 -232.7068556 1018.355189)
(21.9052283 261.2017771 676.7288212)
(802.6384855 -101.1304749 -687.1896225)
(-136.6134043 734.9521662 113.2772178)
(-191.541931 -106.1474145 -274.2066572)
(-462.9284462 75.79090672 389.797833)
(558.3551076 55.77256695 -475.5191325)
(577.0622689 279.6619275 27.36207358)
(1222.634179 672.3266793 -639.1528052)
(1825.138936 157.2800383 934.403192)
(-392.5506703 4.067292745 -577.4731151)
(382.2949821 -44.65072381 -4.431848676)
(298.2040979 -870.6993288 -321.1959537)
(1326.342366 -278.5298337 -963.5820521)
(1673.99039 -120.8039984 -259.9020893)
(203.8639047 -468.5921302 809.5266448)
(976.4814402 -287.2229008 482.3027357)
(1014.076987 552.7327657 756.0743506)
(515.3182897 609.3896086 140.0295739)
(380.7510039 308.7559043 -745.7226538)
(-196.3518806 -551.3261351 -738.8657061)
(878.0751576 -97.91758121 323.3727358)
(150.9624793 297.2021676 -301.865419)
(378.3369774 570.8981072 -971.1034647)
(-505.8066951 133.3448177 55.31266033)
(-32.73740883 425.4088264 -115.8775654)
(740.0254298 -132.1404465 -140.7616466)
(597.1975157 -138.1085218 -348.7441419)
(11.59404718 -463.3297212 -214.572934)
(-95.78808396 351.8542529 -350.0254061)
(929.3327605 -156.9925491 177.3803732)
(-858.9252254 516.3262228 -989.2992625)
(749.9508527 -131.5365765 105.3444594)
(580.5481988 -903.6286649 75.65334022)
(1163.962195 323.0109093 563.4891161)
(660.9595603 405.8970174 359.7826274)
(597.4558253 -34.49657333 -669.9213008)
(834.2333529 -495.7253194 230.7130091)
(707.3273747 584.3563177 704.777465)
(709.4336226 34.31739684 521.3218277)
(238.4871373 1111.911716 1030.199518)
(397.4582728 361.2130997 -191.2748808)
(-607.2040422 -140.0824351 -780.2683233)
(669.6278941 379.8219494 -4.806282449)
(325.0955624 1504.326365 -337.4722293)
(202.4389077 1.789030574 772.5211549)
(282.0927961 31.19513108 -374.2989121)
(676.049043 -705.7287476 124.9503855)
(735.6768792 480.51231 -269.8039823)
(587.7347095 -151.2437882 92.07759036)
(267.5384713 -189.6378689 147.8461987)
(-116.9866201 -272.5767174 -21.2838977)
(204.2742431 199.2790639 -117.0989792)
(630.1430462 -340.1937234 -32.54427445)
(-706.3032304 105.5357164 -237.9085969)
(-372.8496061 -342.6845121 393.8858371)
(-298.8877124 1073.719162 544.9740872)
(1267.872542 241.4969989 348.1864279)
(474.5110623 -244.9504558 -758.4659834)
(674.5947707 -109.5583861 681.2402528)
(1554.229086 350.6579843 -289.3254207)
(-164.9214537 608.30299 533.6152247)
(466.9455048 229.3760604 119.6135969)
(-419.4355773 228.3718669 -138.1985993)
(1328.012944 66.91238895 905.4227595)
(218.6399049 145.0851573 49.88155879)
(-451.2051682 142.8199759 -570.0787673)
(1016.443497 218.1165779 -313.3664415)
(765.2941048 417.9091392 -587.5433977)
(365.8437036 482.7976081 338.0557006)
(2307.603809 688.6337939 -292.5950821)
(247.5875496 288.8605365 -135.5689455)
(861.3863507 -583.8583965 -603.1493448)
(1024.476193 784.1946339 -61.29143944)
(1687.596962 558.0685945 -413.6235247)
(417.6257097 -383.3801287 559.6828986)
(64.77971491 -639.8717875 -441.2096805)
(1119.773513 152.1591575 -409.7262689)
(-360.2339564 -270.7244043 -596.1789823)
(828.423687 -601.5987675 -220.745755)
(246.9164502 -772.8321619 935.0310678)
(104.2990029 1141.465263 189.8123965)
(926.4570872 180.4612347 -113.5612506)
(-192.9601072 306.5319202 320.1742488)
(748.1124093 415.6691901 4.549669012)
(993.6849338 228.3038219 494.3407695)
(521.898338 466.4462287 -620.3473182)
(45.15163506 -299.9675062 412.9198502)
(956.730655 -359.781936 -1560.80326)
(-71.46172979 447.2621768 59.90403039)
(-184.7150497 826.5519709 -259.3516076)
(1321.047176 563.7593488 -90.96302151)
(297.0964462 139.5908196 -575.1008649)
(670.0577535 -248.5115247 -535.1533193)
(-32.00360145 -636.210075 624.0758078)
(-1.732797067 -256.1728051 -93.34981158)
(-248.4242025 400.427569 96.24716628)
(142.6884809 -8.906297712 294.5470551)
(458.9332124 413.2048162 -30.10130788)
(258.3464638 199.9209789 151.535099)
(-414.9323763 290.0196044 -172.5642323)
(171.8622979 1669.887635 118.8295992)
(378.6257076 371.1400973 478.4332823)
(21.7799446 437.1368441 769.7739195)
(-144.0397992 941.5803037 635.78691)
(-477.6600587 107.5423965 464.3417188)
(557.2141469 -479.4715127 -95.16960532)
(-192.1919631 -62.51937726 -101.5704967)
(1062.546977 -154.9347236 721.3384292)
(-485.8412286 70.73770798 -142.6147024)
(135.8568275 -76.86582278 -108.6396097)
(665.9088896 184.6309715 1048.801128)
(2121.425653 215.3370606 233.8836408)
(433.1267966 -510.7763473 414.3505232)
(961.9150336 574.4852946 -283.4879149)
(331.1131546 -160.2811854 84.20748119)
(1225.473934 -301.8712732 199.1725431)
(971.6897519 323.4797851 -466.1398145)
(694.3326405 664.4330046 626.8680029)
(1104.004423 -56.66371503 122.0472772)
(-102.8681917 30.30588135 -181.4942694)
(-85.41615075 356.1880391 -679.1846946)
(-273.6383801 295.327888 318.3627792)
(581.5563642 -962.8200116 -546.7735785)
(340.7658079 591.731637 1037.787756)
(288.836475 -118.4520808 407.968774)
(-296.9551117 -215.0424764 -250.752685)
(755.930527 165.7955276 97.11706301)
(-145.5039908 37.91410318 -620.7414433)
(104.809223 -419.4925414 100.5746687)
(188.7485123 542.0755375 -219.6796309)
(822.4937686 162.3244502 321.1231495)
(1184.618521 358.6842887 -612.5663107)
(120.9053946 -424.0200176 -408.1211298)
(932.3476058 889.9817783 -157.4858734)
(-891.5291072 138.746693 -210.8750912)
(1406.788662 270.9220937 -665.0013011)
(215.2297386 -224.66604 323.2527925)
(185.3515844 605.6399471 -463.1813326)
(-400.5101473 -329.9365155 746.4441009)
(1482.990249 -90.76129315 276.1898897)
(113.8116851 -359.4859525 -415.1459769)
(-269.366024 -94.15394153 57.81523012)
(-210.9847571 -665.7442118 -578.6879407)
(-314.2209027 -326.1005199 -26.01168388)
(747.2541065 19.15793731 607.2144919)
(677.5281606 -177.6032905 863.5062375)
(468.105898 249.9173508 874.2977111)
(647.5677787 -311.3575679 338.0531245)
(-166.3517344 -536.3202569 -655.4702792)
(1218.629362 627.0146393 -645.7035699)
(420.432871 -498.5399232 212.112983)
(1563.879728 1396.782354 407.8146918)
(1264.96738 -22.14256453 -122.1800212)
(414.6802744 593.8307988 160.7632708)
(-200.0538686 1370.416464 -270.8491758)
(303.7650234 187.369467 749.2060441)
(236.7970619 402.6548506 408.6956375)
(1571.315305 371.9113073 523.2570686)
(-211.2917615 -42.6683297 448.499061)
(101.240061 -158.15808 443.3496352)
(1015.332002 218.3089974 333.6763125)
(35.58667764 933.2881057 503.2763633)
(468.1450396 326.0522643 235.6333159)
(-499.6809643 973.4265495 30.22627035)
(346.2604085 154.3777263 1048.165189)
(-122.5269429 3.639498497 339.209123)
(1525.999433 471.4189283 238.0290233)
(517.7302103 452.2639953 -61.50559698)
(416.5453238 127.9561869 -31.32162165)
(-525.7052194 120.4167284 -590.8407071)
(-861.3385719 -176.3465894 -1046.561591)
(345.4308031 95.98941088 569.9380595)
(1176.761799 757.8985405 396.6033967)
(-60.09486496 -315.313713 364.1772154)
(1071.01979 -59.20303764 -460.1572729)
(364.7314849 -597.0180531 372.5425059)
(345.8558236 -250.7344227 594.4633762)
(1250.11444 538.7869006 106.4898498)
(342.282519 -532.0008101 772.0876575)
(754.9794703 1788.798855 121.6388534)
(1251.580697 -1020.918831 238.4843583)
(522.3610776 -819.9537506 -458.9123487)
(-385.5037015 -521.939984 -423.2372193)
(677.2290127 -80.68563445 -290.1898156)
(-490.5605005 54.60173907 254.8457428)
(-299.5933952 514.1119331 444.9236011)
(424.6499479 -568.0627686 180.5829344)
(1466.331268 832.9517173 -2058.681404)
(854.6253728 446.2246987 293.235855)
(742.8377876 6.029361106 493.8025947)
(39.72305474 884.8169406 -517.1540644)
(103.6431316 136.4823028 -313.2637708)
(223.7994135 51.07865227 512.5773146)
(351.9952085 466.6499728 -365.3957378)
(311.2640544 644.4275853 -254.830819)
(1381.734139 828.2816836 -96.04880191)
(561.2102501 390.7742135 538.7414109)
(1619.839689 -544.5808893 -74.47576441)
(257.1272643 647.4526171 -196.923967)
(192.750549 50.89982077 195.7958848)
(1069.833709 382.1864733 -537.7720973)
(450.0139146 340.3867668 -1420.900543)
(957.9178932 -654.7111909 -1030.291612)
(576.2515985 -425.1480379 -856.6592471)
(429.2753387 -439.2666532 32.58643619)
(199.4714597 -100.8972121 -308.9003828)
(6.186404391 183.9128131 -399.4721393)
(1231.877295 -257.7848632 -294.3423944)
(-492.1560816 690.913581 794.8302412)
(268.2373306 -373.1812032 -44.84926791)
(407.1245459 -606.4673705 107.8448213)
(1045.401687 478.6029277 203.2610718)
(442.5707044 -130.5607597 668.3153669)
(500.2537236 868.565402 308.9784586)
(933.5336038 1113.892255 278.0206627)
(817.1582608 -541.7637594 812.058102)
(-361.7945647 -732.8305954 -332.0309671)
(116.1414888 -372.6295354 -140.8681272)
(-460.3552066 141.3475056 -148.9069247)
(-407.5053337 -1054.650266 349.3336965)
(-401.5014795 461.0201198 197.3755173)
(1174.769472 -218.5079989 -1209.197266)
(-376.9390184 204.0905625 -1041.504209)
(81.57191736 357.8242882 -364.5286494)
(361.3120243 -6.390272318 175.050031)
(-197.83513 -560.1889383 173.1891924)
(495.3803174 -68.01598245 1118.640772)
(-258.4091718 30.05408017 -289.6540304)
(463.8219265 -973.379901 -212.502771)
(803.9830222 604.6408785 732.4831631)
(8.382541191 167.9501157 -414.8808179)
(825.2016891 80.21291227 617.3309722)
(992.5556591 659.145799 320.1512866)
(-57.75776956 134.5586047 122.5409604)
(110.631425 592.86623 478.0641336)
(-335.2018852 205.4188198 -548.3987684)
(-340.7552989 -41.0805396 -616.8060146)
(-104.3603483 408.7880295 -389.8076611)
(445.8455976 -268.3622958 -69.23439649)
(101.9946884 -10.39600541 264.4466193)
(-195.7467721 389.3975224 105.0020803)
(441.8163619 503.1642235 269.8630665)
(159.7151027 -116.3269934 71.16215267)
(-41.30294267 31.25756097 232.4147827)
(580.6989107 -2.381122127 1159.328568)
(1117.722936 -11.32546121 248.3506611)
(751.8477324 -31.47320537 -340.1182914)
(561.7064033 32.43684695 300.8314213)
(-102.8397046 78.20509834 178.36227)
(-212.249951 -303.9641656 57.50743331)
(-496.4355203 316.8032515 -610.3523411)
(148.7249207 441.9860851 -327.1838522)
(768.169017 -21.58931389 -1.648247762)
(384.1704019 -89.63763997 -486.2726611)
(-305.3130161 633.0756877 -29.31310065)
(-474.713334 222.9527895 118.452729)
(904.4627918 594.8315888 592.0877288)
(868.7708978 745.8329619 159.6533079)
(838.0185625 -671.1677273 -578.790192)
(501.2148334 84.22712916 447.8085579)
(299.1339321 511.0998824 406.2700256)
(-309.9179992 202.8052134 -313.7437779)
(1163.01017 -201.5394593 28.78224094)
(1235.774368 263.6269445 395.5025757)
(797.867896 606.5509566 430.5775518)
(785.6204014 1240.711309 88.54049235)
(342.6581874 -29.31099037 -344.1213461)
(1050.16072 533.2159088 49.46610777)
(-25.57375778 66.44781909 617.576715)
(797.2202955 -411.0638485 -314.1235814)
(1279.878194 169.1075518 74.53099299)
(291.5282604 70.77672435 -863.6130114)
(428.0777877 186.9585283 -277.5551382)
(637.4647458 904.4045408 333.2375664)
(395.3545687 3.398570219 226.5968033)
(57.70100085 -318.3745375 350.7774298)
(-464.4306406 -137.5786516 125.9357618)
(2396.007671 -216.3944721 253.2549563)
(974.4396487 -351.9193516 -15.45319861)
(109.0003031 61.7619975 -245.9382064)
(494.2456753 319.4638118 456.1603205)
(746.7071542 -445.3196402 -336.0847896)
(225.3357673 -374.0708562 44.37441901)
(1616.912314 121.538701 -193.4976868)
(55.28346722 155.294554 306.6763083)
(1500.691817 -817.1272393 76.83635809)
(830.9843949 622.7489048 388.5920719)
(628.5686753 -516.8410911 428.9155951)
(130.0452618 -845.5368937 46.08110888)
(1073.714653 -23.7193255 174.3557212)
(615.2688278 594.3467761 423.6981595)
(148.0433485 259.8087839 326.6387202)
(316.8752722 204.9447646 -414.2771797)
(521.3669613 -369.0839415 -694.8748647)
(-408.5000473 21.91034165 72.37173407)
(537.3624595 141.7502329 915.0808769)
(297.5398587 598.0047369 173.2930003)
(-584.6401959 317.046746 -284.2971143)
(299.7805119 -416.3681087 20.20866152)
(-79.87459463 348.3034338 586.468737)
(-520.9380483 -747.153308 66.38805284)
(1103.477634 -533.0204097 31.35151015)
(211.4783475 -150.025793 357.8641654)
(111.8109332 306.1876953 -171.5740472)
(316.4965736 -347.3074089 -514.2069986)
(875.0041368 289.140531 59.19413453)
(-1031.363208 -184.6190628 1311.178065)
(1103.180484 -187.5995565 -46.80940195)
(293.5746435 -323.4607053 17.87874914)
(-139.9335488 951.4046671 266.1643329)
(-399.7148465 -162.1361433 306.7123356)
(112.3017014 305.4032454 -590.8009527)
(68.67837202 35.13463196 347.0042752)
(1022.704488 567.172369 -428.1197323)
(1457.764446 554.3927448 422.1960301)
(414.7217761 405.8331132 -497.2647176)
(1453.81438 386.0815262 -1738.873986)
(301.8315947 -849.8178261 -190.0675117)
(-156.1998163 89.47260269 -240.1238001)
(595.5450154 -376.3615181 -461.9041746)
(255.8497977 408.1556739 145.8576234)
(495.2848106 1190.956943 268.4341157)
(35.89079219 -123.835967 30.4829466)
(119.7932986 -537.5221789 156.3628825)
(-53.80376278 273.520663 67.00174735)
(55.32873451 156.6159599 -427.2144327)
(646.6487228 670.2848364 -468.3332041)
(709.4108922 155.4330737 -583.5614339)
(-369.0587936 -179.2320207 40.73534595)
(1804.582997 -366.9980054 -164.4846372)
(587.6218989 556.1621657 -207.2647266)
(97.78449498 939.0917115 -101.8265373)
(544.9868219 1134.684165 -83.14346746)
(385.780591 402.9754518 1133.648776)
(1556.935221 -464.155176 289.9001693)
(1426.868773 157.9383294 18.95276327)
(-11.48325137 1241.64646 699.1439437)
(25.35721636 574.4694365 149.7511038)
(250.0590929 239.6025545 -341.5421024)
(1225.504331 709.4386654 -53.16578715)
(-590.1469285 85.8722583 118.036325)
(89.25969883 744.9490819 -243.7223872)
(-198.6405746 191.7342507 -535.9183003)
(316.7145539 -532.2603348 105.8470051)
(1461.848886 50.35178036 -431.6025275)
(559.0573895 -127.7140936 583.3798438)
(239.54184 -79.0703608 518.7097767)
(1647.101871 1580.065786 -712.0001177)
(549.8002483 665.2959115 -204.4210857)
(555.6590024 54.22055389 297.707326)
(324.9663107 59.26004849 -521.530402)
(580.0167335 64.02482272 447.2071119)
(933.8025686 -160.6488066 -604.4227171)
(1954.093811 -246.077374 -463.9619191)
(842.3434914 192.7273859 143.7952953)
(-2.14300135 206.3557857 -506.8385355)
(619.0069744 -502.5333435 486.3122476)
(706.3977871 -916.3790017 415.6936645)
(521.8023097 149.0483889 54.60901602)
(2128.889782 -797.2784995 303.2793165)
(-497.6543399 359.7001327 -12.24470616)
(-237.1597347 627.5444082 -36.42229819)
(28.7791849 880.2371394 -65.46578677)
(730.3019266 106.1091439 -72.13487656)
(474.6682414 -683.7843328 269.7693291)
(-443.5194792 -67.0263023 447.8482346)
(290.3682024 100.1262847 1481.087129)
(-4.007441188 -447.9661188 -665.3761272)
(640.52646 725.0667859 -502.610459)
(285.4041684 210.1254292 -406.4684295)
(-57.05568186 -711.5617081 -65.75517328)
(869.5168692 -24.82864547 -127.519134)
(-470.2770533 2.202407518 350.0702415)
(743.3733923 3.135886396 23.76774236)
(2159.964918 492.5819789 145.7441566)