/*--------------------------------*- C++ -*----------------------------------*\
| =========                 |                                                 |
| \\      /  F ield         | OpenFOAM: The Open Source CFD Toolbox           |
|  \\    /   O peration     | Version:  v1912                                 |
|   \\  /    A nd           | Website:  www.openfoam.com                      |
|    \\/     M anipulation  |                                                 |
\*---------------------------------------------------------------------------*/
FoamFile
{
    version     2.0;
    format      ascii;
    class       volVectorField;
    location    "0.00027";
    object      momentumMean;
}
// * * * * * * * * * * * * * * * * * * * * * * * * * * * * * * * * * * * * * //

dimensions      [1 -2 -1 0 0 0 0];


internalField   nonuniform List<vector> 
1300
(
(-1.388679646 2.185886209 -0.1412711443)
(-0.1168326412 2.022170518 0.07065615228)
(18.93863532 2.826443575 0.160959224)
(89.84279183 4.194215387 -0.05312193358)
(45.77104177 2.957767598 0.4579194994)
(16.44665585 1.374170366 0.2375495639)
(33.3477069 -0.8663535121 -0.3094234778)
(39.77723951 -1.133517391 -0.2513383917)
(25.88346435 -0.03323803115 0.02438878394)
(23.9967772 -1.371682125 0.906419887)
(-2.024931812 5.107698111 0.04537467347)
(0.548146725 5.195706352 -0.1601977978)
(33.47059333 10.54142338 0.007967671361)
(168.3233438 26.00085754 0.08135304558)
(80.4113799 13.55756911 0.230552298)
(27.57362871 7.731202764 -0.06221617998)
(59.94359697 10.13380157 0.4809836288)
(68.5599928 9.840243522 0.09372533643)
(44.62559366 6.821922648 0.6309812213)
(37.69399825 5.915372465 -0.3997752062)
(-1.05509997 2.915405105 -0.02559015011)
(0.6165190774 3.457030127 -0.05524353394)
(37.6166653 9.10931059 -0.02046438624)
(185.8467451 28.45293073 -0.3734826536)
(90.95726672 14.82132918 -0.2854733021)
(35.41266061 9.705981864 0.1847313638)
(80.06632646 16.08712935 -0.06969447178)
(105.9077865 16.37551674 -0.372090573)
(65.61408132 11.61019114 0.5021720584)
(59.39403615 9.988374129 -0.9539678655)
(-0.5618562369 2.370791286 -0.04403771898)
(0.6380351794 2.058933346 0.09319369284)
(33.74918778 6.679903531 -0.1974117578)
(180.7532097 26.57328829 -1.015731407)
(88.14975714 13.65428553 0.2400655114)
(36.97041543 9.533226896 0.4223177481)
(88.13862179 18.54055949 -0.7891542455)
(130.663747 24.15652027 0.258004453)
(80.94934145 15.64989226 -0.3685554858)
(71.33694062 14.79574399 0.1965375367)
(-0.3495435915 1.517398775 0.02755411402)
(0.5463545904 2.052067902 0.06164645827)
(37.25617368 7.176744228 -0.7656427774)
(178.4324278 25.6327858 0.8223004172)
(90.79872688 11.86129285 0.04762884831)
(32.61844634 7.177306726 0.01942333706)
(86.1254027 16.28129354 -0.6844822909)
(122.6856913 21.14505477 -0.2221501671)
(95.37136281 17.93977165 0.3027774408)
(77.45918122 17.24421427 -0.3407854403)
(-0.103933215 1.124968395 -0.07937908708)
(0.4947284239 1.073801278 0.06420017781)
(36.04445026 6.8907299 0.2201787105)
(179.7689098 25.92433306 -0.514217605)
(87.0519778 11.74109522 -0.05652866917)
(33.3484859 6.216091218 -0.561567999)
(83.06947021 14.43740685 0.1461541798)
(116.9876942 18.25095897 0.2410293521)
(89.58998599 15.39559243 -0.2841968024)
(78.16428201 15.53677057 -0.3671806961)
(-0.1233854396 0.8333068136 -0.02870588998)
(0.7422661176 1.255606582 0.04664239502)
(37.14474445 7.75800452 0.1310095775)
(178.4794754 26.35857888 -0.1020010518)
(87.11114098 10.8360246 -0.06620796127)
(30.86237353 5.691363779 0.1909674642)
(79.76930135 12.89946156 -0.1575934639)
(114.5632134 17.4725625 -0.9083884813)
(88.28948057 13.16466642 0.0005466910416)
(75.02316989 14.10824015 0.1250114102)
(-0.1346807603 0.9238897351 -0.03855472315)
(0.4936903142 0.7822945935 -0.005815853035)
(36.51849337 7.112677214 -0.1589008831)
(178.4529169 25.59416657 0.6017130913)
(86.43348037 10.96070507 -0.104727013)
(33.61651856 6.103411084 0.1182321173)
(81.85676852 13.1250582 0.156565898)
(118.3411702 16.99522744 0.1856177445)
(80.5424485 11.63878716 0.1168553422)
(73.88212555 11.50870543 0.1014719852)
(-0.054088808 0.5348219566 -0.07038945644)
(0.6883049464 0.6735128015 -0.04186547841)
(37.21373545 7.581682722 -0.1451832429)
(184.4968509 25.7813619 -0.2394396083)
(84.3321993 10.89609712 0.7375643076)
(32.49477391 6.048201829 -0.2643800172)
(84.82171627 13.12477013 -0.02664843017)
(113.4504479 16.34125233 -0.009632005437)
(81.4460892 11.71778352 0.181690155)
(71.03190101 11.00277712 0.2914309667)
(-0.03946702683 0.3748615837 -0.06013433625)
(0.5539878691 0.5729607294 0.02631754828)
(36.30128695 7.108399741 0.05892036709)
(176.9938128 25.45218572 -0.6008809091)
(89.71060803 11.36736095 0.3247781216)
(33.43776274 5.80862039 0.2166981438)
(76.99608652 12.88884789 -0.2630789674)
(117.0760797 16.9480733 -0.122573315)
(85.61984714 12.11757914 -0.2313884149)
(66.24417938 10.20185074 0.4416813841)
(-0.02173812721 0.4438071118 -0.07728083393)
(0.6240106402 0.4529980958 -0.03488240329)
(37.17169805 6.491915145 -0.03825160965)
(180.6709797 25.58210631 -0.1080888893)
(88.74189349 11.18889236 -0.4401192102)
(33.74049838 6.111217105 0.1436603064)
(81.32925446 12.76382714 -0.4639719883)
(120.4111615 16.61812401 -0.05470461406)
(85.22772626 11.84883932 -0.2661125227)
(72.6404968 11.55619481 0.09163707043)
(0.01556145876 0.2652984326 -0.04312505641)
(0.49829937 0.4704669818 -0.01373872351)
(36.23280241 6.629027243 0.1423501156)
(175.5646466 25.22919685 0.1869077401)
(83.65368727 10.23875813 -0.0824561936)
(30.63876345 5.809110976 -0.04183791787)
(80.16090729 12.63882186 0.3481331926)
(115.6139318 16.29718577 0.1051072528)
(80.84911965 11.72586109 -0.3577229752)
(72.43754357 11.42613208 -0.4954057532)
(-0.01283791543 0.1817419814 -0.0219030495)
(0.6937476032 0.4124968074 0.006833535609)
(33.85657209 6.505067453 -0.3333586253)
(180.7073525 25.2661315 1.285546263)
(87.69774276 10.9081434 0.6234444791)
(30.96038869 5.547187912 0.08034559339)
(78.64925467 11.83971492 -0.1610727716)
(117.1329555 16.36628198 0.3614358638)
(80.79778966 10.35832567 0.9934912594)
(71.48089394 10.02833518 -0.0955338948)
(-0.0198573602 0.2397007612 -0.006839908379)
(0.4955881483 0.3786350078 -0.01179394972)
(36.69314605 6.38660112 -0.1466857575)
(180.9135863 25.94379141 -0.001307551509)
(90.70953099 10.70937487 -0.3869308793)
(31.61237895 5.677042244 -0.3515722629)
(79.59190894 12.49635247 0.4235880557)
(114.7135143 16.8266655 0.3612684221)
(85.14673347 11.43778244 0.286877866)
(71.48754922 10.79432085 0.2163438449)
(-0.002074773693 0.1157999843 0.008289920807)
(0.4696591527 0.3665082868 -0.06349850197)
(35.44552068 6.408144557 0.4383462647)
(174.5064062 24.94658231 -0.4309631666)
(87.73801305 11.1019543 -0.0095454649)
(31.55619944 5.211193547 0.3833711837)
(78.48772781 12.35053537 -0.2640681995)
(117.6344816 16.31082834 -0.4347360061)
(86.20953275 11.75690237 -0.3952275067)
(68.1142833 10.38824752 0.03332949346)
(-0.002692120467 0.1946366412 -0.007381024763)
(0.7541303026 0.3976891892 0.0560496116)
(38.08917343 6.819419654 0.03112654757)
(179.2720311 25.05632904 -1.284610986)
(84.71761906 10.42589599 -0.1757606027)
(34.81188186 6.046640417 0.1402832285)
(81.91737944 12.72487657 -0.1472754059)
(114.2902833 15.25462197 -0.1685979192)
(82.76387688 11.20561312 0.04440712836)
(71.60058403 10.70854388 0.1975285579)
(-0.03060596297 0.1970516267 -0.003064924691)
(0.6505764576 0.4529830848 -0.06370270292)
(36.3682359 6.309973366 -0.5659559263)
(176.8454624 26.09722751 -0.5563758958)
(85.00264328 9.86910563 -0.0682347768)
(35.15153501 6.066892117 0.03021898497)
(82.66641007 12.80610529 -0.6669066887)
(109.5322081 14.9543116 -0.6619862605)
(84.93967044 11.66276792 -0.4276913435)
(71.25923252 10.10876664 -0.1821000275)
(0.0002174621097 0.1414848466 -0.008564465044)
(0.2061835765 0.1319516054 -0.003200544524)
(37.89392212 6.991997127 -0.00718479931)
(178.4306486 24.44469777 -0.2345094955)
(86.96143547 10.27216035 -0.4504354558)
(34.83937977 6.258026883 -0.4264868261)
(78.56789169 12.52627839 0.1140029913)
(117.7991653 16.3716358 0.3043454874)
(86.84124666 11.50272649 -0.5103449613)
(69.28976909 10.08759541 -0.04364319898)
(0.0002529744774 0.113289441 -0.001604662085)
(0.7202418176 0.2906630215 0.01072106946)
(35.57868864 6.495768171 -0.2167341588)
(179.3026855 25.72807147 -0.4056555224)
(84.61316272 10.50322601 0.09153159858)
(32.61357012 5.619042 -0.1674182093)
(75.47757978 11.89035273 -0.5388331331)
(112.4106143 15.68042269 0.1282005527)
(84.27560394 11.60693665 -0.7579211026)
(67.96454067 10.09132113 -0.6130894596)
(6.448798146e-05 0.08624373373 0.01704022564)
(0.4569811947 0.214009263 -0.03196643053)
(32.84050276 6.884106576 0.7167827402)
(167.3657767 27.43233135 0.122614619)
(84.79657972 10.70841041 0.04108386998)
(34.76993765 5.328281017 0.1192384913)
(76.32807988 12.41198713 -0.4957891671)
(109.1308823 16.36931707 0.2085321236)
(82.55775816 11.54170693 0.2032460073)
(70.98774522 10.27927993 -0.132307803)
(24.55355873 -0.1310925822 -0.7389616846)
(21.97457474 0.7097197751 0.3463626374)
(21.25495478 0.8983465888 -0.3025232401)
(20.04678858 0.8042756541 0.1019192547)
(19.58261784 2.024174282 0.6320850448)
(18.32407585 1.233554435 -0.2677246566)
(19.15412799 2.730991717 -0.4084928411)
(20.35260717 2.010367458 0.5868778869)
(17.84831174 1.974576851 -0.1030068675)
(18.57744576 1.961608515 -0.0918389631)
(18.30212969 2.222910447 -0.2861043729)
(19.64214496 3.224478474 -0.01517884563)
(17.52958102 3.279759872 0.09961436262)
(18.29139538 2.753724448 -0.4509981241)
(18.15230135 2.1283008 -0.1404081903)
(17.50391338 3.090091201 -0.2611427065)
(18.09377347 2.082564819 -0.5125380001)
(16.03161458 3.002602403 0.7246235658)
(16.93258703 2.898730731 0.5458008572)
(14.86705023 3.354690758 0.8257870017)
(15.85784806 2.376437558 -0.7714840415)
(15.33693888 3.481495097 0.1272736382)
(14.43176354 2.770510092 -0.8148992238)
(14.65583637 3.653745953 0.109554327)
(14.09107822 3.301111648 -0.9392550589)
(13.59606913 3.390234978 -0.819968982)
(13.27727899 3.500984861 0.006822419193)
(12.89905297 4.222724778 0.2075508764)
(12.064974 4.415966538 -0.6306019582)
(12.91465043 3.669639565 -0.05775376264)
(38.75420891 4.319859959 0.4211591856)
(34.5009111 2.45581249 0.6186007335)
(29.48241126 2.875404931 -0.3250616984)
(29.27023313 2.112453927 -0.4569771326)
(27.94848788 2.223177583 -0.6716684773)
(26.71686873 2.078037054 0.3124348212)
(24.53489032 2.28579471 0.3646255197)
(25.92863636 1.972448431 0.5654591963)
(24.08603922 2.627732896 -0.3856671414)
(23.38661543 2.500954619 0.3284862879)
(23.60654499 2.482823888 0.06014138884)
(21.23824207 2.994007214 -0.400244928)
(24.33726509 3.682135691 -0.2618552143)
(21.89298665 3.518376647 0.5995181325)
(22.08126901 3.244329666 -0.5993408353)
(20.97320839 3.272033305 -0.4707239672)
(19.53213092 4.020697992 0.0586246814)
(19.81648369 2.949429857 0.3527377442)
(20.30582695 3.578399817 0.3042987143)
(20.0224262 3.526288416 0.4336149251)
(18.48855055 2.800934148 0.4819793043)
(18.04194305 3.52102268 0.2839251043)
(18.16270082 3.899816546 0.2476574552)
(17.4296705 3.448763008 -0.3428331379)
(17.04577776 3.182314693 0.1365539191)
(16.59031456 4.413262601 -0.5665448698)
(16.26672823 4.47011776 -0.05660587872)
(14.64791877 4.192029372 -0.1222245363)
(15.02238079 4.132290832 -0.3837844371)
(15.06211908 4.267988741 -1.255221991)
(60.53866986 8.967048697 -0.08927604688)
(55.00282195 6.143967652 0.07642936562)
(44.74784767 5.311131008 -0.296704439)
(41.17597656 3.937823281 0.132380732)
(39.93629322 4.589028201 1.193369664)
(36.87316716 3.458807592 -0.5137819476)
(33.71594655 3.913924912 -0.6232362362)
(31.61341469 3.211637991 0.5848364006)
(31.64369065 3.674390577 -0.1283338631)
(29.54657864 3.383895695 -0.1929920535)
(28.81106889 3.356550601 0.3482959391)
(27.84657654 2.937386948 -0.2477160747)
(26.86040568 3.345588319 -0.3549801314)
(26.50033712 3.718690646 -0.1561919085)
(26.92437161 3.960673047 0.08103653316)
(26.24338925 4.586951001 0.756408092)
(24.90127927 3.865322907 -0.4667416352)
(25.35657816 3.749289244 0.1855187247)
(23.87748965 4.389415403 -0.9038139622)
(22.52901886 4.014371281 0.07719505642)
(22.9699039 4.969829196 0.340807865)
(22.99198543 3.572609326 -0.5288641129)
(19.07990541 3.900829525 -0.3581171886)
(19.69284238 4.275392314 -0.8417205492)
(19.14114257 3.954900096 0.04469309659)
(19.28517994 4.396780145 0.007173096613)
(18.46252147 4.695084975 0.6708498183)
(18.98036454 3.82575428 0.1196937759)
(19.61522567 4.587640392 -0.07887717337)
(17.74068519 4.37136554 -0.4576312323)
(78.44781902 14.88337306 -0.2053965673)
(77.20209073 12.50830493 0.1117713001)
(63.24955159 9.604566447 -0.09665367799)
(57.53621091 8.224961083 0.24360151)
(56.53968211 6.467383562 -0.04747273042)
(48.25922313 5.755837486 0.03060034601)
(46.84316352 6.224431424 -0.4472848153)
(44.14487887 4.868355025 -0.3059152279)
(40.81216021 4.696735117 0.3423841604)
(38.65546301 4.605404769 0.03863879465)
(38.63429751 3.908354994 -0.3814917425)
(35.25563567 5.395413679 0.6281286935)
(35.384968 4.3127865 0.05786444311)
(33.18347517 4.557823107 -0.3809720629)
(31.6719619 4.825789595 0.009199134259)
(31.38355462 3.699007689 0.1740707446)
(29.16685009 4.453642536 -0.07372681232)
(29.76366883 4.839601151 -0.01028075249)
(28.62638349 4.407070615 -0.1596811082)
(28.12898097 4.357189803 -0.2787157485)
(28.07887789 5.282843602 -0.9315636578)
(26.10228984 5.39407274 -0.1896956367)
(26.31006384 4.63712871 0.4461484393)
(25.9181266 4.755071292 0.381214868)
(25.31825963 4.826132552 0.09083621443)
(22.68798313 4.132022892 0.6713468784)
(23.01359894 4.942675234 0.3156341584)
(23.39831662 5.162993116 0.09473455694)
(21.04508624 4.329399683 -0.1093698255)
(21.94048385 4.571224191 -0.347685072)
(98.54182894 20.21495776 -0.560061383)
(94.84744739 17.653871 -0.4738635541)
(79.43061614 14.69379241 0.6196428628)
(76.35511779 13.32503371 -0.9140040796)
(71.15079611 11.72267476 0.7687121019)
(65.01581235 9.757172053 -0.9670719277)
(60.03973245 9.198342847 -0.4178512897)
(56.19183821 8.202253661 0.9343279862)
(54.7710298 7.449234591 -0.5230434234)
(46.40858849 6.011760592 -0.1454876515)
(45.70498383 5.761372453 -0.5873480121)
(45.44107953 6.121236044 -0.06048478489)
(41.64073314 5.380695642 -0.2518864618)
(41.37931477 5.576821323 0.4398161183)
(37.3548388 5.318276943 -0.004527352813)
(39.02985175 6.137851173 -0.0783200061)
(37.60300484 5.727239999 -0.7256374143)
(34.80264935 4.877926849 -0.4939281047)
(35.00783211 5.312893372 -0.004910653065)
(33.10327506 5.211747524 -0.9172844836)
(31.25643953 5.513357069 0.1176685072)
(31.58503348 5.607162102 0.4884626921)
(29.35906753 4.858578304 0.03085603625)
(29.57275593 6.174664502 -0.1134746579)
(27.57766333 5.662419972 1.051160303)
(28.13742006 4.894959432 0.3490045496)
(28.40478785 5.876495679 0.2119050546)
(26.03823275 5.694969151 -0.04743316908)
(23.69861642 4.902231629 0.121537716)
(24.50200884 5.70068901 -0.06809045259)
(91.45508712 19.29809367 0.2944109332)
(100.8641101 20.00841633 -1.072546073)
(91.19674258 19.31105376 -0.3374557344)
(87.26954095 17.61252435 0.646265236)
(84.86396397 16.03389315 -0.9197936978)
(80.831759 14.40989583 0.09738244889)
(72.77288381 12.46172105 0.3182997689)
(70.37197065 11.92425947 -0.1224243498)
(63.47456989 9.552662637 0.1383712039)
(62.52508409 9.721254777 0.3347024301)
(56.56800958 8.314108423 0.2290975679)
(54.3739974 8.177965518 0.5051613348)
(51.91010774 7.851131174 0.1599705999)
(50.38648065 7.261168115 0.08558215771)
(48.12079701 7.072281281 -0.06280599288)
(44.42838424 7.677940535 -0.2214284962)
(45.40349933 6.586692099 0.09923842144)
(40.8815541 6.45978461 -0.7940587243)
(40.20000681 7.091597194 -0.5763722515)
(40.86301256 7.127349125 0.009319248251)
(38.59049753 6.356787851 -0.3259218774)
(35.96846449 6.743432904 -0.4652036585)
(36.35324356 6.909119763 -0.3458270224)
(32.85411882 6.526558092 -0.5516132719)
(34.85136978 5.955413658 -0.1938590477)
(32.73586516 6.028404327 -0.4468485928)
(31.94631739 5.601475626 0.3026562344)
(31.25821081 6.902700274 0.2187441577)
(28.41677718 5.866016331 0.3422131639)
(31.02481221 5.867239771 -0.04539149741)
(86.12252149 15.71747885 -0.2552869829)
(101.5928911 19.81606877 0.03791499455)
(96.88316422 19.77064719 0.2708138365)
(96.04299489 20.65390174 0.0753424237)
(94.63999276 19.40729305 0.8373219299)
(93.36245769 17.90551522 -0.345442687)
(88.67031327 16.72011321 -0.2689016536)
(79.89812767 15.03581768 -0.1861146531)
(80.53501003 13.57749867 -0.663589511)
(76.68966054 13.91392241 0.1502989322)
(70.62072055 10.59920377 -0.1184369201)
(65.69866737 10.54994154 -0.03234970565)
(58.9293983 9.485332446 -0.6492776641)
(60.17724163 9.782259661 0.3647235776)
(57.45197147 8.682667411 0.2945770989)
(55.42318896 8.702538227 -0.17852007)
(52.10206163 8.125628798 -0.5705211177)
(53.55722883 8.587292097 -0.075475145)
(48.2506331 7.972261897 0.4106938598)
(47.16244562 6.986868017 -0.2276048701)
(45.40580022 7.647183524 0.2794845867)
(45.17707563 7.955444766 -0.2820292611)
(42.84161937 8.23267227 0.0990959423)
(40.09014165 7.220760162 -0.4628348868)
(39.03747955 6.037858998 -0.250860744)
(38.24392434 6.814444673 -0.8781996694)
(37.00908165 7.4026946 0.1228875518)
(35.74218443 7.018049107 -0.8494224399)
(37.09410586 7.424778943 0.9210781052)
(34.06217852 6.528391577 -0.7073801543)
(85.75495836 13.75077384 0.1002124341)
(95.76011349 16.43048478 -0.1483356656)
(96.06060226 17.46489266 0.1162432146)
(90.11812611 17.68397305 -0.7341438549)
(100.5644939 21.29658369 -0.06936196894)
(103.6373017 21.11811215 0.2566368851)
(96.49101038 20.08553144 -0.2082905392)
(89.84147778 17.59220908 0.4980263149)
(90.0618687 17.38322746 0.1396477595)
(87.38877761 16.56723513 -0.1495441971)
(80.27022716 14.76295381 0.3456906083)
(77.84473102 13.58767637 0.0990382941)
(77.68691147 13.35279379 -0.4596420824)
(70.79043181 11.31122521 0.4486594008)
(66.57736081 11.01589683 0.03716479291)
(66.1915432 11.28506103 -0.3811175882)
(61.40349841 9.126392733 -0.2524047546)
(61.89319607 10.27057952 -0.001893670581)
(56.62702941 9.4983712 -0.7364036272)
(55.53106666 9.33518711 -0.1166313684)
(53.60684545 9.057964797 0.3356261178)
(53.75003572 9.140674676 0.2275196672)
(51.4286006 8.682638323 -0.7028470592)
(49.52794007 8.330704441 -0.5114928861)
(47.22501756 9.244432392 -0.5231260143)
(44.74621613 8.691906078 -0.4420405732)
(40.56463908 7.72228822 -0.3467416984)
(42.43156832 7.829103169 -0.6342950904)
(40.46001538 7.383157834 -0.0463791514)
(39.42296496 7.653332076 -0.4357897057)
(84.88633777 13.45258624 -0.05095596879)
(91.99496625 15.55739369 -0.08358347951)
(86.427076 14.62089492 -0.08356802706)
(87.22013258 15.39947821 0.2653759979)
(91.02835408 17.67992611 0.006164576961)
(101.2881528 19.76660565 -0.1921049212)
(98.2661278 20.01582388 0.8488619683)
(98.21060887 20.66430356 -0.6112633514)
(102.4217845 19.88997048 -0.06089952851)
(94.21116008 19.3237542 -0.366047597)
(91.72320752 17.06553612 0.1822793105)
(91.61323956 17.75931616 -0.003096650445)
(83.6079482 16.00579071 -0.001558893821)
(81.17935683 15.24355455 0.5745891542)
(79.39023447 13.68697315 -0.005573733258)
(75.25933686 12.68881516 0.9100372671)
(72.00607131 12.53492431 0.01829508604)
(66.8733694 11.68721162 -0.1795348132)
(69.00892794 11.60174809 0.2585225483)
(63.25930995 10.62565214 -0.1453148875)
(63.14049761 10.72943922 -0.2376931428)
(59.70225057 10.61012238 0.8158781288)
(59.35848102 10.92072929 0.3467363853)
(55.53097967 11.46896118 0.2431163782)
(58.24150549 10.17203148 0.09040824937)
(53.0970711 9.742201484 0.1688573129)
(52.19220213 10.58650001 -0.3791384909)
(48.74306407 8.781824452 -0.3349329699)
(49.74210787 8.93628487 -0.01145705969)
(44.89466233 8.342761798 -0.106055135)
(82.56673106 12.03733961 -0.936956729)
(93.45452527 13.67131591 0.1864043644)
(82.55078153 12.85178381 0.5621449389)
(83.30520337 14.30773877 -0.7386333529)
(92.71169728 15.90416841 0.5009028856)
(94.4957582 17.24157325 -0.00366991513)
(96.23995062 18.68429003 -0.5563567055)
(94.90542326 19.60575209 -0.5746746268)
(99.45522553 20.04694588 0.3184521501)
(105.8192218 22.08772744 0.3138216138)
(94.19749239 19.13024802 0.0519929902)
(99.65544232 19.67032462 -0.5594668534)
(97.16509237 18.64150607 -0.5018022861)
(91.74386294 17.09092671 0.4520231547)
(87.7457542 16.81842418 0.3636062554)
(86.95834947 15.90189372 -0.6029541124)
(82.47230951 14.31219637 0.9816336752)
(79.4926486 13.67182882 0.03379988102)
(78.39763658 13.44958243 0.005308679237)
(74.88050126 13.44175975 0.06744027029)
(74.28428896 13.19293396 -0.150431125)
(70.72398255 12.50513695 -0.1723747413)
(68.6458907 12.27656367 0.1681388125)
(66.67501511 11.9930507 0.1247243425)
(64.81851883 11.71564808 0.652091402)
(60.75470578 10.9971244 0.1705801509)
(60.65772493 11.46909362 0.03298680998)
(59.15332348 11.26314452 0.1053423556)
(56.54889654 10.38339574 0.17451754)
(53.90084972 10.48622908 -0.6015781506)
(82.91581794 12.84690256 -0.2767391659)
(92.71073732 13.35041211 -0.2367315046)
(87.24580138 13.15801243 0.1029021056)
(83.69551428 13.23338793 -0.2575655586)
(84.94176876 12.94812907 -0.1179096338)
(92.55207834 15.08700424 0.507971585)
(88.70558689 15.45279327 -0.3972859885)
(91.31603835 16.62586249 0.8053763979)
(98.38801565 18.73581731 -0.1634874745)
(99.26362714 19.3307987 -0.5857715002)
(96.52532873 19.38805607 -0.7265900745)
(99.85649892 20.3817831 0.3202518917)
(100.9409326 20.65029565 0.1739441449)
(97.91115226 18.76037568 -0.063413393)
(95.72313144 19.6578467 0.3552686527)
(94.20508032 18.03809232 0.3605545013)
(93.91830464 17.82681072 -0.008068130415)
(88.07812837 16.32750391 0.1409808376)
(84.53045503 15.57220394 -0.05380017638)
(82.84181792 15.00386727 -0.273086027)
(74.27588169 13.52211819 0.7102818096)
(79.05200571 14.35798729 -0.3368882813)
(75.54944573 13.36010895 -0.03676802922)
(72.36648898 13.61209673 -0.1036440806)
(72.46484149 14.18447852 -0.3905423935)
(71.20953097 13.31491279 -0.393032568)
(68.29700527 13.08107235 0.3920008003)
(66.00770712 13.25782411 0.1177555223)
(62.45861885 12.56807481 0.3069420653)
(62.82419271 12.79782416 0.5202123633)
(81.22214118 11.67656902 -0.2282040914)
(91.61510527 13.04807049 -0.28429161)
(82.95638331 12.04663212 -0.2875912462)
(84.31824436 12.66363912 -0.7499551855)
(83.91207923 12.54996095 0.214802936)
(90.29609101 14.12208735 -0.289224692)
(85.9782436 13.88841303 -0.05179456514)
(88.32851339 14.93057801 -0.08813706656)
(96.5150824 16.99697005 0.3171066398)
(94.65978486 17.89027619 0.1445282797)
(97.63730764 18.19484215 -0.3315708213)
(101.1695076 20.76524716 0.1730345497)
(103.1131911 20.9248796 0.1116186752)
(97.07813351 18.85481228 -0.3625660458)
(97.89669656 20.28256804 -0.04520430704)
(102.7896306 19.3735594 0.007878723612)
(95.16129689 18.99199351 -0.1182599311)
(92.55658952 18.02415258 0.5439714352)
(97.05531804 18.22681285 -0.3645597597)
(91.47554904 16.94389542 0.8412830459)
(87.89933913 16.2500285 0.601590423)
(85.68833319 15.5733621 -0.474357099)
(85.43007424 14.45230793 0.2654134053)
(83.62244119 16.19602133 0.2953668826)
(80.19568338 14.45259974 0.398789834)
(80.03515694 15.0184789 -0.3014836753)
(75.84330599 14.7126115 0.368370029)
(73.94310983 13.84305457 -0.611200876)
(77.17266961 14.06844806 0.3976052749)
(70.83087927 14.25866422 -0.3507774189)
(82.78522428 12.48850524 0.4239784083)
(90.1976056 12.52394749 0.1035463917)
(84.1179352 13.14818532 0.2561993216)
(79.28407806 11.56503348 0.1898507351)
(87.98733875 12.62612608 -0.4919577887)
(89.77837121 13.14018607 -0.4289945635)
(86.14267858 12.97540002 -0.06890344121)
(84.35841167 12.99608962 -0.8173907208)
(94.30514899 14.87764337 -0.2117761136)
(91.16502447 15.39582653 -0.1968286156)
(91.17747494 16.19840245 0.2592866)
(100.4014229 18.08904772 -0.2513483796)
(97.84716067 17.97273001 -0.08654781023)
(102.5818076 20.58208859 -0.258023732)
(105.5650821 21.72813895 0.2729830461)
(106.1616329 21.53347158 0.2002875131)
(99.21212298 19.76266774 -0.04442860873)
(101.2085584 19.88276783 -0.5126344855)
(98.6260398 19.32456712 0.856573937)
(100.7675613 19.66038609 -0.2501283852)
(93.22622293 18.17273444 0.2326844961)
(93.55351382 17.57947031 0.2657164891)
(93.72183457 17.48863516 -0.2554998851)
(85.38263775 16.0259912 0.8339775941)
(85.94040197 15.52918172 -0.4597294009)
(85.4944555 16.3842504 0.4680127109)
(86.17233398 16.43622453 0.04978161078)
(81.02061077 15.91416329 0.003536949993)
(81.30809233 15.6788082 0.5740670089)
(79.86839316 15.0236874 -0.2906763676)
(79.51452983 11.86637909 -0.1216748066)
(92.4211661 13.31491998 0.3225667611)
(84.73141975 12.24919244 1.03366457)
(81.33734721 11.68544568 -0.0269298469)
(83.57686007 11.88953357 0.4102120365)
(86.37499081 12.65330484 0.5458536869)
(84.46768055 12.56413803 0.2282085589)
(80.89652025 12.34054268 0.1846512827)
(87.57025183 12.95956435 0.09299205111)
(90.10739937 14.7307947 0.1957489031)
(84.85857945 13.58779499 0.1124027585)
(89.19126579 15.41818555 -0.3095059995)
(97.73444999 17.68447939 -0.232170196)
(91.34521082 16.45714541 0.2945140875)
(102.2523613 19.80534339 0.1716818771)
(97.88820866 18.03853381 -0.3909359048)
(103.0506274 21.38557875 0.08648348647)
(106.0892368 21.34000992 -0.4305512399)
(100.472423 20.06550661 0.03165356013)
(100.6172013 19.66733094 -0.1667829957)
(102.1296316 20.12245713 -0.01917621026)
(97.47608239 18.61172321 -0.1998435529)
(98.92444364 19.1437525 0.2376770985)
(99.49990762 19.04615267 1.428394133)
(88.67938324 16.66355158 0.06180175149)
(95.85264213 17.7252872 -0.7460047431)
(90.35087133 16.49770176 0.5420684737)
(87.51937795 17.34464673 -0.3212930399)
(92.86025276 17.61838685 0.3225654712)
(86.68354068 17.56411671 -0.4334749426)
(81.39003058 12.10994023 0.09816319545)
(90.11989396 12.56647125 -0.3894760966)
(81.83289914 11.85738916 0.2836140395)
(82.33129648 12.12750151 -0.1196141154)
(81.9167208 11.72268303 0.3177437502)
(86.88190716 13.0374858 -0.06565859343)
(84.88855984 12.01131646 0.1503969286)
(81.94772201 11.93654042 0.7046887307)
(87.22986623 13.10172393 0.259019473)
(85.86570613 12.5145903 -0.03288804231)
(82.39226568 13.23525647 -0.0451767066)
(88.91048568 13.33711052 -5.286117982e-05)
(95.14928125 15.72723687 0.2614603755)
(85.37888976 15.04570263 -0.1859818845)
(95.28727695 16.57108995 0.09158412267)
(97.96225383 17.45035431 -0.379323964)
(96.73600505 19.08705714 0.487842311)
(102.469359 20.31609418 0.2514107613)
(102.7756472 19.7393334 -0.2699284285)
(104.2574675 19.93403692 -0.007279000547)
(104.875096 20.66587872 0.1733722021)
(101.113385 20.02069226 0.1648501336)
(99.52072401 19.01866048 -0.1446579644)
(99.32298865 18.79782915 -0.5890442233)
(102.2576597 19.64618683 -0.2731612423)
(96.24818531 18.02200124 0.4415884164)
(93.01715452 17.98054261 0.1931111666)
(94.85003237 18.16953746 -0.3418361379)
(90.07882949 17.4878404 0.5356223598)
(93.03747249 17.93157982 -0.1014871681)
(82.63726842 12.47382217 -0.5817962326)
(91.85390887 12.11115361 -0.4342650656)
(84.32833329 11.7045559 0.6038137047)
(81.47820543 11.95531597 -0.3174197033)
(86.10286184 12.4426462 0.0455602763)
(94.24768344 13.52349079 0.09280044523)
(79.56334255 11.21946121 0.5103517096)
(82.62613047 12.13965476 -0.1425566809)
(90.60170633 13.03147581 -0.02838041396)
(88.65057847 13.15963277 -0.2487205725)
(81.08261627 12.16922006 0.5817659757)
(85.99865349 12.68310303 -0.200202236)
(86.7021982 13.14642582 0.0922940923)
(84.86876361 13.5355251 0.12568357)
(91.20286219 14.85050826 -0.2261174754)
(92.40140688 16.06631342 -0.1829408309)
(94.92949842 16.60167166 0.1386143627)
(96.45134212 17.70452881 0.4606339621)
(99.61783964 17.75540746 -1.096911003)
(99.95271069 19.52261092 0.7697191923)
(103.5299615 20.62160724 0.1061810613)
(103.9880075 20.3509548 -1.085068215)
(105.7995516 20.51915848 1.203810105)
(99.4801252 20.22114094 -0.4461521257)
(102.1333798 19.65173594 0.3088079187)
(103.4169717 20.34357121 -0.2335443561)
(97.05671031 18.84479546 -0.2697807663)
(98.16039726 18.99322905 -0.06878518109)
(98.95045017 18.98273458 0.01611831053)
(96.46872282 18.20291921 -0.1198569126)
(82.59595214 11.85601689 0.05600829596)
(88.68098056 12.48456253 0.06468142602)
(88.81116012 13.02481029 -0.4563983418)
(79.03742188 11.10151175 0.1238101952)
(84.42415231 11.4876581 0.05526867911)
(85.03120718 11.95887881 -0.5049138359)
(83.8920994 11.72973661 -0.4208958322)
(82.75067189 12.26491307 -0.2856334284)
(86.15238 12.19212603 0.6880138918)
(88.2147525 12.46349805 0.02663867572)
(84.26526911 12.2562967 0.3544465485)
(87.07521516 13.05811616 0.008891490529)
(91.58995251 14.31505402 0.007741895704)
(83.98770241 12.40102213 0.06901262725)
(90.00637479 13.84769823 0.3510122194)
(89.11850923 14.02719044 -0.1547788928)
(89.96009019 14.93266248 -0.2685344471)
(88.96433709 14.9137927 -0.132485904)
(93.70434024 17.32518328 0.2800660393)
(99.74136855 18.49075198 -0.03724262676)
(99.98449994 18.46815371 0.4744189291)
(101.0982296 19.13915115 -0.1948177303)
(106.2743989 20.54958948 -0.2570669832)
(104.1289139 20.51621404 0.1035470968)
(104.991041 19.97869274 -0.5514785693)
(105.8399366 20.56363071 0.3254807858)
(106.8884378 20.18581115 1.136095839)
(101.5745033 20.00511118 0.4350798716)
(102.0428462 19.0982184 -0.09541536654)
(104.4420406 19.25587923 -0.1536180877)
(81.18294993 11.96103064 -0.7448337808)
(87.86715811 11.82935015 -0.4158886186)
(84.00427908 11.85125566 -0.405130806)
(81.23869845 12.43179101 -0.3458349684)
(82.56988547 11.69504424 -0.3305510792)
(90.10117424 13.12492436 -0.07136475029)
(83.5498041 11.70695276 -0.3629855352)
(80.3647054 11.3170389 -0.04444341173)
(86.62934254 12.08871282 -0.1870936174)
(83.81338869 11.90166007 -0.4928020381)
(87.05542819 11.9715268 0.1004809207)
(83.25871496 11.38987355 -0.2812956786)
(89.57164946 12.77715512 0.2124016813)
(86.53511522 12.93386909 0.1737286452)
(88.48288455 13.28187824 -0.0931119379)
(89.36942318 13.81728304 0.03306243083)
(92.47205666 13.78074343 0.3740679148)
(91.69861362 13.87507831 0.2478304525)
(90.31668054 14.64012967 -0.375540385)
(93.19762705 15.60709798 0.5121794494)
(96.06330221 16.13191949 0.07279899496)
(95.58448328 16.60786295 -0.9582051193)
(98.4260587 18.12370299 0.7439079668)
(101.6855845 19.14704466 0.2640684487)
(104.4048299 20.14883764 0.1114640828)