/*--------------------------------*- C++ -*----------------------------------*\
| =========                 |                                                 |
| \\      /  F ield         | OpenFOAM: The Open Source CFD Toolbox           |
|  \\    /   O peration     | Version:  v1912                                 |
|   \\  /    A nd           | Website:  www.openfoam.com                      |
|    \\/     M anipulation  |                                                 |
\*---------------------------------------------------------------------------*/
FoamFile
{
    version     2.0;
    format      ascii;
    class       volVectorField;
    location    "5.84";
    object      grad(rho);
}
// * * * * * * * * * * * * * * * * * * * * * * * * * * * * * * * * * * * * * //

dimensions      [1 -4 0 0 0 0 0];


internalField   nonuniform List<vector> 
1900
(
(136014 0.0654474 0)
(-130535 0.426621 0)
(-10597.4 -0.152862 0)
(-3177.79 -0.148788 0)
(-2219.23 1.2212 0)
(-1219.1 2.07924 0)
(-703.906 -10.4898 0)
(-315.02 4.66386 0)
(-61.5173 -31.4335 0)
(1048.99 -62.1729 0)
(136014 -0.0600504 0)
(-130535 0.643332 0)
(-10598 -0.111147 0)
(-3176.41 0.278736 0)
(-2217 2.32989 0)
(-1230.81 2.95497 0)
(-701.321 -17.3729 0)
(-335.964 -14.4212 0)
(-128.354 -83.913 0)
(146.387 -88.6606 0)
(136014 -4.95248e-08 0)
(-130535 4.11582e-08 0)
(-10597.7 3.00915e-08 0)
(-3175.34 2.32347e-08 0)
(-2216.55 9.34364e-09 0)
(-1238.8 -9.59233e-09 0)
(-721.282 -2.2311e-08 0)
(-381.56 -6.59028e-09 0)
(-135.757 7.40741e-09 0)
(27.4151 5.91527e-09 0)
(136014 0.0600503 0)
(-130535 -0.643332 0)
(-10598 0.111147 0)
(-3176.41 -0.278736 0)
(-2217 -2.32989 0)
(-1230.81 -2.95497 0)
(-701.321 17.3729 0)
(-335.964 14.4212 0)
(-128.354 83.913 0)
(146.387 88.6606 0)
(136014 -0.0654475 0)
(-130535 -0.426621 0)
(-10597.4 0.152862 0)
(-3177.79 0.148788 0)
(-2219.23 -1.2212 0)
(-1219.1 -2.07924 0)
(-703.906 10.4898 0)
(-315.02 -4.66386 0)
(-61.5173 31.4335 0)
(1048.99 62.1729 0)
(179.486 -817.477 1.27281e-11)
(-1973.21 -564.456 -1.50752e-11)
(-2931.43 -546.514 -1.89632e-11)
(-2586.63 -477.591 0)
(-25319.1 -7816.88 -7.95601e-11)
(-212.793 -970.953 1.25804e-11)
(-1226.4 -669.615 1.50752e-11)
(-2566.14 -568.07 1.89632e-11)
(-5342 -4.84167 0)
(-23931.6 -6575.82 0)
(-576.077 7.7072e-09 0)
(-1225.02 8.80387e-09 0)
(-2324.36 9.25186e-09 0)
(-4978.63 8.30985e-09 0)
(-26348.1 -5.28678e-11 0)
(-212.793 970.953 1.25804e-11)
(-1226.4 669.615 1.50752e-11)
(-2566.14 568.07 1.89632e-11)
(-5342 4.84167 0)
(-23931.6 6575.82 0)
(179.486 817.477 -3.78889e-11)
(-1973.21 564.456 -1.50752e-11)
(-2931.43 546.514 -1.89632e-11)
(-2586.63 477.591 -5.06301e-11)
(-25319.1 7816.88 7.95601e-11)
(-46061.5 15167.6 1.84375e-11)
(-12551.9 6612.66 -1.02939e-11)
(-868.088 2917.41 0)
(-188.665 1792.14 7.41449e-12)
(-5524.77 1973.8 -3.23066e-12)
(-41337.7 19511.1 -9.44716e-12)
(-15263.8 5688.45 5.24653e-12)
(-2106.54 1405.4 0)
(-338.694 504.379 -4.67159e-12)
(-4710.72 1036.1 8.30326e-13)
(-42942.3 1.03172e-09 0)
(-17235.2 -7.59127e-10 0)
(-2542.85 8.22387e-10 0)
(-375.845 1.32066e-09 1.87471e-12)
(-4405.37 1.55821e-09 -1.66065e-12)
(-41337.7 -19511.1 -9.44716e-12)
(-15263.8 -5688.45 5.24653e-12)
(-2106.54 -1405.4 0)
(-338.694 -504.379 -4.67159e-12)
(-4710.72 -1036.1 8.30326e-13)
(-46061.5 -15167.6 9.44716e-12)
(-12551.9 -6612.66 -1.99152e-13)
(-868.088 -2917.41 0)
(-188.665 -1792.14 5.39734e-14)
(-5524.77 -1973.8 3.23066e-12)
(-8241.48 5778.47 0)
(-2893.94 -709.52 0)
(3347.22 -1639.15 0)
(6118.33 -555.219 0)
(3735.25 2114.66 0)
(294.814 1974.06 0)
(-1678.09 1602.2 0)
(-2884.18 904.167 0)
(-2991 444.577 0)
(-2304.95 204.419 0)
(-1419.88 87.2165 0)
(-893.49 36.5734 0)
(-723.194 19.9589 0)
(-665.212 20.7016 0)
(-594.409 22.0448 0)
(-466.754 8.59394 0)
(-306.492 0.528895 0)
(-181.979 -2.05989 0)
(-116.351 -2.22231 0)
(-88.995 -1.84885 0)
(-76.1639 -1.60848 0)
(-66.659 -1.60699 0)
(-56.612 -1.77634 0)
(-45.6155 -2.02391 0)
(-33.9329 -2.28556 0)
(-22.1602 -2.54233 0)
(-8.96889 -2.73716 0)
(7.46358 -2.89885 0)
(28.204 -3.01175 0)
(46.5222 -2.87939 0)
(67.4579 -2.86677 0)
(83.3623 -2.37877 0)
(107.986 -3.0856 0)
(133.95 -1.5547 0)
(212.26 -4.06874 0)
(292.921 4.20346 0)
(332.344 2.70127 0)
(364.155 -1.21243 0)
(113.947 3.74725 0)
(10236.5 -228.971 0)
(-8548.49 3863.53 0)
(-4134.89 505.066 0)
(3273.18 -460.488 0)
(6668.31 -405.645 0)
(4035.73 1048.5 0)
(125.644 839.311 0)
(-1916.01 519.422 0)
(-3065.56 330.897 0)
(-3081.15 209.564 0)
(-2344.92 98.0369 0)
(-1435.48 36.9305 0)
(-899.147 15.355 0)
(-724.974 9.35992 0)
(-664.974 6.99777 0)
(-595.289 8.44036 0)
(-468.785 2.69372 0)
(-307.279 -0.274915 0)
(-182.147 -1.07226 0)
(-116.315 -1.05899 0)
(-88.9348 -0.88068 0)
(-76.1385 -0.768317 0)
(-66.6724 -0.766866 0)
(-56.6493 -0.845445 0)
(-45.6623 -0.961895 0)
(-33.9817 -1.08831 0)
(-22.2037 -1.21704 0)
(-9.00535 -1.32131 0)
(7.43174 -1.41706 0)
(28.1981 -1.49759 0)
(46.5249 -1.471 0)
(67.4967 -1.49868 0)
(83.3229 -1.29347 0)
(108.081 -1.64766 0)
(133.816 -0.787995 0)
(212.775 -2.16995 0)
(293.567 1.67225 0)
(331.657 1.30191 0)
(364.466 1.11647 0)
(93.9887 7.03531 0)
(10185.1 -112.731 0)
(-8198.93 -2.14939e-08 0)
(-4151.84 -9.65369e-08 0)
(3082.29 2.63482e-07 0)
(6557.31 4.18397e-07 0)
(4097.42 1.64975e-07 0)
(140.9 1.23376e-08 0)
(-1826 -6.75985e-08 0)
(-2974.32 -4.91889e-08 0)
(-3058.74 -5.01094e-08 0)
(-2355.17 -4.51114e-08 0)
(-1443.93 -2.91888e-08 0)
(-901.511 -1.52121e-08 0)
(-725.625 -1.04159e-09 0)
(-665.48 -1.54947e-08 0)
(-595.661 1.06581e-09 0)
(-469.289 -1.38152e-08 0)
(-307.588 -6.72593e-09 0)
(-182.207 -8.96253e-10 0)
(-116.295 2.28504e-09 0)
(-88.9105 6.7986e-09 0)
(-76.1308 1.00364e-08 0)
(-66.6815 1.22649e-08 0)
(-56.6687 1.27332e-08 0)
(-45.6862 8.22776e-09 0)
(-34.0071 3.18937e-09 0)
(-22.228 3.149e-10 0)
(-9.02708 -1.13848e-09 0)
(7.41229 -3.67383e-09 0)
(28.1883 1.36457e-09 0)
(46.5219 1.02706e-08 0)
(67.5095 1.7594e-08 0)
(83.319 1.49941e-08 0)
(108.133 4.52164e-10 0)
(133.798 1.54059e-08 0)
(212.976 3.94432e-08 0)
(293.931 1.20631e-08 0)
(332.182 -4.63225e-08 0)
(365.823 -1.40736e-08 0)
(80.8274 7.52529e-09 0)
(10168.6 -3.65623e-07 0)
(-8548.49 -3863.53 0)
(-4134.89 -505.066 0)
(3273.18 460.488 0)
(6668.31 405.645 0)
(4035.73 -1048.5 0)
(125.644 -839.311 0)
(-1916.01 -519.422 0)
(-3065.56 -330.897 0)
(-3081.15 -209.564 0)
(-2344.92 -98.0369 0)
(-1435.48 -36.9305 0)
(-899.147 -15.355 0)
(-724.974 -9.35992 0)
(-664.974 -6.99777 0)
(-595.289 -8.44036 0)
(-468.785 -2.69372 0)
(-307.279 0.274915 0)
(-182.147 1.07226 0)
(-116.315 1.05899 0)
(-88.9348 0.88068 0)
(-76.1385 0.768317 0)
(-66.6724 0.766866 0)
(-56.6493 0.845445 0)
(-45.6623 0.961895 0)
(-33.9817 1.08831 0)
(-22.2037 1.21704 0)
(-9.00535 1.32131 0)
(7.43174 1.41706 0)
(28.1981 1.49759 0)
(46.5249 1.471 0)
(67.4967 1.49868 0)
(83.3229 1.29347 0)
(108.081 1.64766 0)
(133.816 0.787995 0)
(212.775 2.16995 0)
(293.567 -1.67225 0)
(331.657 -1.30191 0)
(364.466 -1.11647 0)
(93.9887 -7.03531 0)
(10185.1 112.731 0)
(-8241.48 -5778.47 0)
(-2893.94 709.52 0)
(3347.22 1639.15 0)
(6118.33 555.219 0)
(3735.25 -2114.66 0)
(294.814 -1974.06 0)
(-1678.09 -1602.2 0)
(-2884.18 -904.167 0)
(-2991 -444.577 0)
(-2304.95 -204.419 0)
(-1419.88 -87.2165 0)
(-893.49 -36.5734 0)
(-723.194 -19.9589 0)
(-665.212 -20.7016 0)
(-594.409 -22.0448 0)
(-466.754 -8.59394 0)
(-306.492 -0.528895 0)
(-181.979 2.05989 0)
(-116.351 2.22231 0)
(-88.995 1.84885 0)
(-76.1639 1.60848 0)
(-66.659 1.60699 0)
(-56.612 1.77634 0)
(-45.6155 2.02391 0)
(-33.9329 2.28556 0)
(-22.1602 2.54233 0)
(-8.96889 2.73716 0)
(7.46358 2.89885 0)
(28.204 3.01175 0)
(46.5222 2.87939 0)
(67.4579 2.86677 0)
(83.3623 2.37877 0)
(107.986 3.0856 0)
(133.95 1.5547 0)
(212.26 4.06874 0)
(292.921 -4.20346 0)
(332.344 -2.70127 0)
(364.155 1.21243 0)
(113.947 -3.74725 0)
(10236.5 228.971 0)
(-1685.74 -1746.87 0)
(-916.858 1916.26 0)
(3090.78 2677.97 0)
(4949.56 719.733 0)
(2796.6 -1902.09 0)
(251.498 -1978.96 0)
(-1519.98 -1827.46 0)
(-2549.13 -1251.62 0)
(-2746.45 -749.88 0)
(-2166.97 -385.165 0)
(-1348.24 -163.906 0)
(-863.498 -67.4343 0)
(-717.077 -41.3602 0)
(-666.007 -42.5998 0)
(-588.713 -37.6572 0)
(-457.637 -17.5005 0)
(-301.506 -2.45829 0)
(-180.616 3.10974 0)
(-116.407 3.63493 0)
(-89.2501 2.99397 0)
(-76.2608 2.58995 0)
(-66.5825 2.6163 0)
(-56.431 2.93783 0)
(-45.397 3.39007 0)
(-33.7129 3.85935 0)
(-21.9708 4.31229 0)
(-8.82386 4.65653 0)
(7.56717 4.92658 0)
(28.1791 5.09485 0)
(46.4372 4.86298 0)
(67.2275 4.73337 0)
(83.4146 3.98886 0)
(107.675 4.77567 0)
(134.278 3.06332 0)
(209.758 5.27805 0)
(290.068 -5.80021 0)
(334.26 -6.79017 0)
(364.17 -5.72702 0)
(213.779 31.1516 0)
(10110.7 45.4355 0)
(-731.085 46.832 0)
(309.824 535.558 0)
(2331.71 998.519 0)
(2331.55 -807.283 0)
(1638.02 -1867.84 0)
(389.956 -2245.55 0)
(-1062 -2006.43 0)
(-2025.44 -1530.46 0)
(-2287.18 -1015.1 0)
(-1814.28 -538.914 0)
(-1152.12 -229.844 0)
(-791.484 -106.724 0)
(-702.543 -73.7188 0)
(-661.218 -66.6695 0)
(-573.276 -52.5818 0)
(-437.723 -26.0107 0)
(-289.306 -4.85101 0)
(-176.839 3.96415 0)
(-116.432 5.22578 0)
(-89.8652 4.46465 0)
(-76.4758 3.95112 0)
(-66.3648 4.05263 0)
(-55.9634 4.58213 0)
(-44.8447 5.30188 0)
(-33.1621 6.04489 0)
(-21.4936 6.76225 0)
(-8.45472 7.3095 0)
(7.83041 7.74801 0)
(28.156 8.02572 0)
(46.2194 7.69476 0)
(66.7391 7.47507 0)
(83.3751 6.51488 0)
(107.261 7.39961 0)
(134.258 5.64427 0)
(205.061 7.0098 0)
(282.822 -5.36552 0)
(331.387 -10.2002 0)
(400.709 -11.651 0)
(109.715 65.5846 0)
(10137.1 -145.507 0)
(-2270.05 -792.82 0)
(0.2225 -199.396 0)
(1796.77 -806.524 0)
(2187.43 -1451.01 0)
(1410.63 -1554.58 0)
(117.945 -1914.06 0)
(-830.885 -1883.83 0)
(-1593.85 -1570.18 0)
(-1790.97 -1073.94 0)
(-1410.27 -579.342 0)
(-931.761 -265.96 0)
(-713.051 -145.249 0)
(-678.478 -108.797 0)
(-645.639 -90.3077 0)
(-549.533 -65.8222 0)
(-411.642 -32.8973 0)
(-272.621 -7.17196 0)
(-170.905 4.25653 0)
(-115.925 6.44602 0)
(-90.4784 5.84599 0)
(-76.6579 5.39367 0)
(-65.9744 5.65297 0)
(-55.2272 6.42672 0)
(-43.9874 7.43507 0)
(-32.3057 8.47369 0)
(-20.7522 9.49316 0)
(-7.87395 10.2404 0)
(8.25734 10.8289 0)
(28.1278 11.2505 0)
(45.9065 10.7638 0)
(66.0905 10.4562 0)
(83.3419 9.28991 0)
(106.836 10.2231 0)
(133.902 8.4459 0)
(199.148 9.00881 0)
(273.484 -3.87013 0)
(328.203 -10.8628 0)
(437.199 -7.80673 0)
(84.7904 69.6152 0)
(9992.49 -35.646 0)
(-3642.52 -931.712 0)
(296.618 -26.7878 0)
(1125.6 -497.469 0)
(1610.7 -1040.37 0)
(1191.82 -1418.86 0)
(72.6779 -1631.18 0)
(-730.627 -1649.37 0)
(-1245 -1418.51 0)
(-1332.37 -988.043 0)
(-1035.68 -540.565 0)
(-733.815 -281.288 0)
(-640.036 -175.463 0)
(-649.599 -138.71 0)
(-619.805 -109.88 0)
(-517.953 -74.5366 0)
(-381.205 -36.2717 0)
(-253.503 -8.04336 0)
(-163.716 4.61646 0)
(-114.9 7.51633 0)
(-90.8793 7.28098 0)
(-76.6618 7.08667 0)
(-65.3694 7.59465 0)
(-54.2461 8.61167 0)
(-42.8722 9.85215 0)
(-31.1789 11.1114 0)
(-19.7912 12.3509 0)
(-7.16751 13.2432 0)
(8.80376 13.9281 0)
(28.0932 14.3385 0)
(45.4541 13.6453 0)
(65.3187 13.1129 0)
(83.1505 11.7153 0)
(106.448 12.2671 0)
(133.088 10.5913 0)
(193.192 10.1686 0)
(263.673 -1.43212 0)
(327.593 -11.0624 0)
(478.26 -0.999093 0)
(82.8885 74.236 0)
(9842.58 -4.44672 0)
(-4344.51 -567.552 0)
(418.674 -244.274 0)
(820.047 -426.434 0)
(1299.55 -635.568 0)
(841.308 -1097.93 0)
(-104.181 -1408.18 0)
(-625.952 -1403.19 0)
(-956.573 -1197.01 0)
(-944.944 -829.401 0)
(-729.217 -467.935 0)
(-579.935 -273.838 0)
(-575.657 -193.134 0)
(-615.28 -157.796 0)
(-583.799 -121.303 0)
(-478.602 -76.9238 0)
(-347.567 -35.0568 0)
(-233.22 -6.41275 0)
(-155.911 6.31503 0)
(-113.357 9.67078 0)
(-90.8925 9.90338 0)
(-76.3556 10.0945 0)
(-64.5049 10.9066 0)
(-53.0517 12.1545 0)
(-41.5786 13.5659 0)
(-29.8978 14.9519 0)
(-18.6979 16.2649 0)
(-6.35411 17.3583 0)
(9.31288 18.1958 0)
(27.8553 18.3307 0)
(44.7255 17.4817 0)
(64.2307 16.7046 0)
(82.5268 15.1014 0)
(105.753 15.1502 0)
(131.88 13.5548 0)
(187.562 12.642 0)
(253.025 3.32669 0)
(328.62 -7.6485 0)
(519.395 8.34855 0)
(81.4682 73.257 0)
(9715.72 3.50489 0)
(-4720.64 -391.982 0)
(432.604 -318.302 0)
(748.539 -355.805 0)
(963.619 -461.558 0)
(447.301 -1023.18 0)
(-221.487 -1187.37 0)
(-527.131 -1169.96 0)
(-692.074 -955.299 0)
(-629.809 -645.335 0)
(-500.318 -392.204 0)
(-469.007 -257.39 0)
(-528.213 -204.731 0)
(-580.38 -170.611 0)
(-541.874 -125.848 0)
(-434.844 -74.7217 0)
(-313.258 -30.7981 0)
(-213.635 -3.13473 0)
(-148.218 9.39121 0)
(-111.443 13.1493 0)
(-90.471 13.982 0)
(-75.6951 14.6692 0)
(-63.3842 15.8042 0)
(-51.6835 17.2194 0)
(-40.1765 18.6826 0)
(-28.578 20.0326 0)
(-17.4723 21.2332 0)
(-5.30681 22.3856 0)
(9.74079 23.171 0)
(27.4051 22.7644 0)
(43.8871 21.5562 0)
(63.025 20.2861 0)
(81.6526 18.2408 0)
(104.958 17.5235 0)
(130.671 15.6863 0)
(183.336 14.3315 0)
(244.121 6.83877 0)
(332.432 -3.35008 0)
(556.224 16.764 0)
(78.2209 68.5586 0)
(9598.72 -13.5804 0)
(-5128.66 -405.626 0)
(453.536 -317.059 0)
(682.001 -353.87 0)
(656.442 -514.106 0)
(141.888 -968.578 0)
(-245.619 -1006.43 0)
(-402.319 -934.358 0)
(-451.026 -717.824 0)
(-402.325 -483.485 0)
(-355.379 -324.41 0)
(-399.28 -241.366 0)
(-492.034 -209.028 0)
(-539.266 -173.201 0)
(-491.396 -120.009 0)
(-387.008 -64.748 0)
(-278.583 -21.3626 0)
(-194.492 4.70861 0)
(-140.22 16.5838 0)
(-108.933 20.6742 0)
(-89.4278 22.1121 0)
(-74.5997 23.2881 0)
(-62.0474 24.6685 0)
(-50.278 26.1143 0)
(-38.8678 27.4699 0)
(-27.4399 28.6169 0)
(-16.4303 29.5565 0)
(-4.48675 30.4759 0)
(9.6779 30.9672 0)
(26.2992 29.9317 0)
(42.3373 28.1248 0)
(61.0359 26.12 0)
(79.8646 23.3794 0)
(103.291 21.6917 0)
(128.804 19.237 0)
(179.036 17.5051 0)
(235.986 10.7769 0)
(338.184 2.94163 0)
(588.689 22.3598 0)
(52.2272 61.8502 0)
(9494.23 -35.3808 0)
(-5605.24 -410.779 0)
(482.477 -345.193 0)
(558.658 -381.883 0)
(371.263 -653.521 0)
(-27.1181 -836.492 0)
(-188.511 -804.446 0)
(-249.021 -678.872 0)
(-257.596 -509.75 0)
(-250.701 -359.503 0)
(-267.003 -268.646 0)
(-357.82 -226.621 0)
(-462.527 -205.196 0)
(-494.599 -164.808 0)
(-437.364 -106.145 0)
(-339.784 -49.8971 0)
(-246.328 -9.14651 0)
(-177.069 14.7501 0)
(-132.833 25.6852 0)
(-106.115 30.1313 0)
(-87.9521 32.1985 0)
(-73.2317 33.8435 0)
(-60.6608 35.4101 0)
(-48.9839 36.8067 0)
(-37.7649 37.9744 0)
(-26.5673 38.8458 0)
(-15.6809 39.4503 0)
(-3.94739 39.9671 0)
(9.21639 39.993 0)
(24.6661 38.3008 0)
(40.214 35.8125 0)
(58.4522 33.0112 0)
(77.3853 29.5502 0)
(100.966 26.9047 0)
(126.637 23.878 0)
(175.184 21.7672 0)
(230.087 15.7943 0)
(343.594 10.3251 0)
(612.99 26.8356 0)
(22.58 57.8884 0)
(9385.94 -53.3132 0)
(-6169.72 -393.448 0)
(481.381 -363.735 0)
(384.885 -454.565 0)
(218.363 -675.726 0)
(-3.54868 -607.413 0)
(-93.7302 -562.874 0)
(-118.339 -458.892 0)
(-143.271 -360.031 0)
(-169.988 -274.292 0)
(-227.329 -229.885 0)
(-338.138 -216.146 0)
(-432.469 -196.652 0)
(-443.816 -148.243 0)
(-380.663 -86.4746 0)
(-293.537 -31.3065 0)
(-216.287 7.12129 0)
(-160.927 28.538 0)
(-125.398 39.1461 0)
(-102.657 44.1538 0)
(-85.8506 46.9182 0)
(-71.5048 48.9612 0)
(-59.192 50.5342 0)
(-47.807 51.6333 0)
(-36.9028 52.3237 0)
(-26.0177 52.6167 0)
(-15.3498 52.6563 0)
(-3.96376 52.426 0)
(8.07221 51.5228 0)
(22.2706 48.9751 0)
(37.2401 45.5424 0)
(55.0014 41.7451 0)
(73.9801 37.3275 0)
(97.825 33.6576 0)
(123.853 29.8869 0)
(171.246 27.3565 0)
(224.96 21.7126 0)
(348.824 18.1202 0)
(634.523 31.7694 0)
(-25.0072 56.5783 0)
(9276.06 -67.4013 0)
(-6671.63 -325.123 0)
(423.583 -298.526 0)
(258.012 -435.8 0)
(223.974 -474.622 0)
(81.6294 -384.549 0)
(-45.3908 -364.172 0)
(-53.554 -313.223 0)
(-79.7095 -261.331 0)
(-125.287 -216.429 0)
(-210.971 -203.022 0)
(-325.796 -202.43 0)
(-397.094 -176.674 0)
(-388.428 -121.048 0)
(-324.68 -59.3082 0)
(-249.592 -9.00726 0)
(-188.659 23.8131 0)
(-146.209 42.6849 0)
(-117.785 52.5653 0)
(-98.6258 57.832 0)
(-83.3195 61.0525 0)
(-69.7472 63.3782 0)
(-58.086 64.9948 0)
(-47.2596 65.9905 0)
(-36.8172 66.5199 0)
(-26.2467 66.6543 0)
(-15.8647 66.5971 0)
(-5.03971 66.034 0)
(5.891 64.6874 0)
(18.9031 61.7806 0)
(33.247 57.9079 0)
(50.536 53.6206 0)
(69.5919 48.7686 0)
(93.7958 44.6312 0)
(120.565 40.6199 0)
(167.307 38.097 0)
(221.186 33.0548 0)
(353.285 31.5461 0)
(650.05 42.3681 0)
(-72.9845 59.3998 0)
(9148.18 -79.1063 0)
(-7025.84 -208.862 0)
(374.73 -205.21 0)
(215.193 -323.132 0)
(267.75 -291.499 0)
(102.884 -250.529 0)
(-24.9971 -244.076 0)
(-19.2377 -213.654 0)
(-49.9972 -188.199 0)
(-113.799 -172.762 0)
(-213.839 -180.582 0)
(-312.748 -180.506 0)
(-354.047 -145.897 0)
(-330.718 -87.7068 0)
(-272.696 -28.3381 0)
(-213.438 15.53 0)
(-166.474 42.8389 0)
(-133.22 59.3199 0)
(-110.801 68.4928 0)
(-94.4781 74.0125 0)
(-80.5061 77.6145 0)
(-67.7058 80.0534 0)
(-56.6747 81.4648 0)
(-46.3374 82.1225 0)
(-36.2631 82.3501 0)
(-25.9432 82.3077 0)
(-15.9476 82.2712 0)
(-5.804 81.3493 0)
(3.97352 79.7141 0)
(15.7376 76.7727 0)
(29.3768 72.7148 0)
(46.1944 68.2725 0)
(65.3175 63.3582 0)
(89.9727 59.3135 0)
(117.557 55.5011 0)
(163.956 53.404 0)
(218.647 49.174 0)
(357.799 49.1152 0)
(661.364 58.721 0)
(-142.064 70.7675 0)
(9019.37 -68.7591 0)
(-7245.41 -113.26 0)
(313.468 -131.401 0)
(174.861 -208.701 0)
(293.938 -188.127 0)
(127.328 -153.49 0)
(-9.85672 -153.858 0)
(0.290986 -139.814 0)
(-40.3051 -137.416 0)
(-117.947 -143.665 0)
(-218.433 -156.135 0)
(-292.372 -147.391 0)
(-307.669 -105.381 0)
(-275.143 -50.3458 0)
(-225.198 1.84259 0)
(-181.003 38.0767 0)
(-146.462 61.4413 0)
(-121.488 74.7084 0)
(-103.626 82.3692 0)
(-89.8358 87.1775 0)
(-77.4983 90.5568 0)
(-66.037 93.1761 0)
(-56.092 95.1264 0)
(-46.4064 96.5556 0)
(-36.6387 97.5909 0)
(-26.3228 98.2381 0)
(-16.7882 98.7064 0)
(-7.50391 97.8067 0)
(1.48088 96.3268 0)
(12.1584 93.6067 0)
(25.0558 89.7128 0)
(41.5196 85.4485 0)
(60.9587 80.9388 0)
(86.2244 77.6954 0)
(114.87 75.0785 0)
(161.21 74.6138 0)
(217.054 72.7499 0)
(362.485 75.9815 0)
(670.915 86.5874 0)
(-195.829 93.76 0)
(8831.1 -26.422 0)
(-7389.78 -11.0516 0)
(282.76 -55.9286 0)
(160.53 -105.191 0)
(320.953 -74.4147 0)
(135.907 -57.4815 0)
(-11.8183 -67.1419 0)
(-3.39403 -69.8865 0)
(-53.7079 -89.6128 0)
(-131.837 -114.335 0)
(-217.43 -123.479 0)
(-263.84 -101.735 0)
(-260.53 -54.0294 0)
(-227.394 -1.08767 0)
(-187.489 39.902 0)
(-156.007 69.2716 0)
(-131.175 88.5762 0)
(-113.053 100.09 0)
(-98.7856 107.311 0)
(-86.5883 112.254 0)
(-74.7257 115.803 0)
(-63.3024 118.248 0)
(-53.4181 119.651 0)
(-43.9625 120.467 0)
(-34.6418 121.067 0)
(-24.8683 121.434 0)
(-16.3633 121.686 0)
(-8.09709 120.651 0)
(-0.0737481 119.388 0)
(9.36415 116.827 0)
(21.5152 113.442 0)
(37.7395 109.616 0)
(57.8464 105.661 0)
(84.3255 103.571 0)
(114.587 102.421 0)
(161.712 103.952 0)
(219.965 105.124 0)
(371.133 111.136 0)
(678.496 124.505 0)
(-250.964 129.762 0)
(8586.22 56.0971 0)
(-7360.69 194.795 0)
(222.752 38.4729 0)
(157.047 7.81414 0)
(339.912 22.2378 0)
(134.336 14.9369 0)
(-21.8106 -0.963654 0)
(-21.3628 -17.8045 0)
(-83.1377 -48.2288 0)
(-150.582 -75.1226 0)
(-206.291 -73.1036 0)
(-225.448 -40.5339 0)
(-210.682 5.52998 0)
(-184.628 49.4729 0)
(-157.397 81.9518 0)
(-134.099 106.028 0)
(-116.764 122.042 0)
(-103.434 132.413 0)
(-91.9044 138.999 0)
(-81.6525 142.812 0)
(-71.7219 144.995 0)
(-62.3291 147.142 0)
(-53.9536 149.392 0)
(-45.042 150.893 0)
(-35.7073 151.387 0)
(-25.7264 151.215 0)
(-17.5427 150.924 0)
(-9.71821 149.528 0)
(-2.20423 148.141 0)
(6.42847 145.949 0)
(18.1069 143.432 0)
(34.0219 140.175 0)
(55.1336 137.025 0)
(83.1018 136.232 0)
(115.237 136.678 0)
(163.815 140.09 0)
(223.976 143.396 0)
(381.161 150.798 0)
(688.863 167.934 0)
(-261.75 178.108 0)
(8243.78 196.184 0)
(-7084.62 422.762 0)
(102.578 157.33 0)
(144.885 139.777 0)
(327.816 131.296 0)
(113.549 95.4371 0)
(-43.3691 73.1107 0)
(-48.9405 43.4842 0)
(-108.942 15.9628 0)
(-155.808 1.73967 0)
(-184.099 17.1143 0)
(-188.065 49.7005 0)
(-173.796 89.4096 0)
(-153.751 124.086 0)
(-132.991 153.19 0)
(-117.374 174.787 0)
(-105.749 191.531 0)
(-96.713 205.36 0)
(-88.7645 216.628 0)
(-80.8099 224.729 0)
(-70.5531 229.394 0)
(-59.0653 231.509 0)
(-49.8041 231.081 0)
(-42.0396 228.02 0)
(-34.3313 223.45 0)
(-25.3149 218.889 0)
(-17.9885 215.656 0)
(-10.7791 211.901 0)
(-3.52302 208.763 0)
(4.82607 205.152 0)
(15.9515 201.784 0)
(31.5664 197.757 0)
(54.046 194.478 0)
(83.9911 194.372 0)
(118.305 195.97 0)
(168.186 200.748 0)
(230.284 207.187 0)
(394.779 216.251 0)
(704.813 233.298 0)
(-223.742 233.887 0)
(7780.25 346.534 0)
(-6584.66 638.918 0)
(-49.9423 283.302 0)
(131.959 275.592 0)
(297.184 242.916 0)
(78.2669 174.963 0)
(-71.8744 153.186 0)
(-76.4326 119.104 0)
(-123.364 98.5743 0)
(-149.472 93.8506 0)
(-160.074 113.815 0)
(-155.782 142.782 0)
(-139.002 176.462 0)
(-123.167 207.175 0)
(-108.539 233.666 0)
(-97.1515 255.488 0)
(-87.3034 274.242 0)
(-79.2498 289.882 0)
(-73.2392 302.487 0)
(-69.3513 312.246 0)
(-65.189 318.452 0)
(-60.7032 320.24 0)
(-57.3155 317.655 0)
(-52.3952 312.374 0)
(-44.5063 305.792 0)
(-33.2377 297.711 0)
(-24.2765 290.482 0)
(-16.3604 282.632 0)
(-8.70837 277.632 0)
(-0.296225 272.454 0)
(10.9817 268.609 0)
(26.9808 266.23 0)
(51.8714 265.729 0)
(84.5401 269.508 0)
(121.382 274.678 0)
(174.624 283.656 0)
(238.915 293.558 0)
(406.323 304.038 0)
(705.858 317.583 0)
(-152.631 310.42 0)
(7228.43 539.596 0)
(-5838.09 1264.26 0)
(-247.537 431.654 0)
(105.968 537.542 0)
(230.847 431.944 0)
(27.0819 327.291 0)
(-97.1969 300.472 0)
(-101.566 255.983 0)
(-133.277 237.879 0)
(-141.121 238.319 0)
(-136.947 257.967 0)
(-127.697 283.889 0)
(-111.745 307.186 0)
(-98.6266 323.026 0)
(-86.4342 333.321 0)
(-78.2737 339.02 0)
(-72.6053 343.656 0)
(-69.4951 347.368 0)
(-67.214 349.265 0)
(-65.4253 349.944 0)
(-62.85 350.518 0)
(-59.8335 351.5 0)
(-57.3837 352.533 0)
(-53.4709 353.05 0)
(-48.4611 355.189 0)
(-40.0681 358.527 0)
(-32.5199 364.878 0)
(-23.1619 373.026 0)
(-13.3304 382.1 0)
(-3.86883 390.625 0)
(9.95375 397.997 0)
(28.7903 406.493 0)
(57.2047 414.914 0)
(92.6154 427.06 0)
(131.939 440.675 0)
(186.379 459.094 0)
(249.924 474.495 0)
(417.93 487.252 0)
(710.963 479.865 0)
(-9.80171 424.511 0)
(6483.37 1212.07 0)
(-4892.46 31851 0)
(-750.235 2503.36 0)
(132.239 1435.82 0)
(94.5787 1074.75 0)
(-48.4243 924.497 0)
(-140.589 844.88 0)
(-136.75 774.582 0)
(-140.386 736.207 0)
(-130.115 716.577 0)
(-116.16 699.673 0)
(-108.352 686.47 0)
(-101.288 662.926 0)
(-97.9822 629.845 0)
(-93.1267 587.361 0)
(-87.1917 536.243 0)
(-79.2593 481.737 0)
(-73.845 430.563 0)
(-70.7561 390.506 0)
(-68.1438 363.559 0)
(-63.69 352.86 0)
(-58.7618 357.548 0)
(-55.8215 378.408 0)
(-49.8351 411.363 0)
(-39.2287 456.932 0)
(-23.9017 506.194 0)
(-10.3052 552.849 0)
(0.235363 595.434 0)
(8.25066 629.294 0)
(15.0227 660.779 0)
(26.2726 685.266 0)
(43.2831 704.442 0)
(71.6908 719.153 0)
(109.364 729.827 0)
(152.251 743.27 0)
(207.214 762.976 0)
(266.049 772.288 0)
(411.497 786.961 0)
(645.398 723.533 0)
(552.946 2074.39 0)
(5468.52 28325.4 0)
(19082.6 562921 0)
(-29556.8 30142.6 0)
(-1270.7 2488.11 0)
(-261.878 1577.85 0)
(-194.429 1253.42 0)
(-241.66 1107.47 0)
(-206.287 1006.98 0)
(-189.173 1011.72 0)
(-176.327 1012.7 0)
(-165.96 1005.36 0)
(-163.107 989.685 0)
(-166.311 945.791 0)
(-171.444 879.613 0)
(-176.633 799.992 0)
(-180.057 705.043 0)
(-174.442 601.75 0)
(-157.409 491.83 0)
(-131.781 388.623 0)
(-101.703 294.972 0)
(-68.6425 213.838 0)
(-35.2141 153.842 0)
(-5.52593 123.306 0)
(22.1979 102.796 0)
(42.922 102.866 0)
(52.361 93.1436 0)
(53.4749 79.6617 0)
(50.5033 42.312 0)
(49.6384 8.34015 0)
(50.0679 -41.6535 0)
(52.0287 -90.1466 0)
(61.4444 -160.677 0)
(81.6665 -218.954 0)
(115.856 -291.097 0)
(163.883 -311.744 0)
(214.342 -281.895 0)
(273.037 -215.792 0)
(370.947 -91.51 0)
(1951.58 290.184 0)
(26588.4 25850.5 0)
(-15439.2 493485 0)
(558177 -580903 0)
(-540804 -18350 0)
(-27393.7 3499.05 0)
(-1095.22 4498.26 0)
(-501.699 5075.01 0)
(-378.065 5681.17 0)
(-229.024 6185.1 0)
(-134.877 6532.9 0)
(-136.237 6848.6 0)
(-138.339 7121.67 0)
(-165.758 7378.03 0)
(-207.357 7638.73 0)
(-238.479 7906.16 0)
(-261.349 8172.47 0)
(-278.225 8443.91 0)
(-284.719 8706.08 0)
(-279.223 8955.83 0)
(-260.455 9175.18 0)
(-236.573 9358.99 0)
(-199.689 9505.28 0)
(-146.001 9626.62 0)
(-105.011 9704.04 0)
(-69.532 9732.07 0)
(-48.5303 9699.14 0)
(-46.2621 9643.67 0)
(-59.2883 9563.28 0)
(-68.4927 9482.59 0)
(-72.6615 9390.14 0)
(-79.8827 9294.13 0)
(-88.4232 9178.24 0)
(-80.8399 9061.47 0)
(-53.9863 8885.02 0)
(19.9484 8663.89 0)
(161.118 8317.62 0)
(299.677 7835.22 0)
(449.511 7285.87 0)
(899.075 6603.82 0)
(25644 5828.77 0)
(475813 -14371.5 0)
(-487188 -507343 0)
(558177 580903 0)
(-540804 18350 0)
(-27393.7 -3499.05 0)
(-1095.22 -4498.26 0)
(-501.699 -5075.01 0)
(-378.065 -5681.17 0)
(-229.024 -6185.1 0)
(-134.877 -6532.9 0)
(-136.237 -6848.6 0)
(-138.339 -7121.67 0)
(-165.758 -7378.03 0)
(-207.357 -7638.73 0)
(-238.479 -7906.16 0)
(-261.349 -8172.47 0)
(-278.225 -8443.91 0)
(-284.719 -8706.08 0)
(-279.223 -8955.83 0)
(-260.455 -9175.18 0)
(-236.573 -9358.99 0)
(-199.689 -9505.28 0)
(-146.001 -9626.62 0)
(-105.011 -9704.04 0)
(-69.532 -9732.07 0)
(-48.5303 -9699.14 0)
(-46.2621 -9643.67 0)
(-59.2883 -9563.28 0)
(-68.4927 -9482.59 0)
(-72.6615 -9390.14 0)
(-79.8827 -9294.13 0)
(-88.4232 -9178.24 0)
(-80.8399 -9061.47 0)
(-53.9863 -8885.02 0)
(19.9484 -8663.89 0)
(161.118 -8317.62 0)
(299.677 -7835.22 0)
(449.511 -7285.87 0)
(899.075 -6603.82 0)
(25644 -5828.77 0)
(475813 14371.5 0)
(-487188 507343 0)
(19082.6 -562921 0)
(-29556.8 -30142.6 0)
(-1270.7 -2488.11 0)
(-261.878 -1577.85 0)
(-194.429 -1253.42 0)
(-241.66 -1107.47 0)
(-206.287 -1006.98 0)
(-189.173 -1011.72 0)
(-176.327 -1012.7 0)
(-165.96 -1005.36 0)
(-163.107 -989.685 0)
(-166.311 -945.791 0)
(-171.444 -879.613 0)
(-176.633 -799.992 0)
(-180.057 -705.043 0)
(-174.442 -601.75 0)
(-157.409 -491.83 0)
(-131.781 -388.623 0)
(-101.703 -294.972 0)
(-68.6425 -213.838 0)
(-35.2141 -153.842 0)
(-5.52593 -123.306 0)
(22.1979 -102.796 0)
(42.922 -102.866 0)
(52.361 -93.1436 0)
(53.4749 -79.6617 0)
(50.5033 -42.312 0)
(49.6384 -8.34015 0)
(50.0679 41.6535 0)
(52.0287 90.1466 0)
(61.4444 160.677 0)
(81.6665 218.954 0)
(115.856 291.097 0)
(163.883 311.744 0)
(214.342 281.895 0)
(273.037 215.792 0)
(370.947 91.51 0)
(1951.58 -290.184 0)
(26588.4 -25850.5 0)
(-15439.2 -493485 0)
(-4892.46 -31851 0)
(-750.235 -2503.36 0)
(132.239 -1435.82 0)
(94.5787 -1074.75 0)
(-48.4243 -924.497 0)
(-140.589 -844.88 0)
(-136.75 -774.582 0)
(-140.386 -736.207 0)
(-130.115 -716.577 0)
(-116.16 -699.673 0)
(-108.352 -686.47 0)
(-101.288 -662.926 0)
(-97.9822 -629.845 0)
(-93.1267 -587.361 0)
(-87.1917 -536.243 0)
(-79.2593 -481.737 0)
(-73.845 -430.563 0)
(-70.7561 -390.506 0)
(-68.1438 -363.559 0)
(-63.69 -352.86 0)
(-58.7618 -357.548 0)
(-55.8215 -378.408 0)
(-49.8351 -411.363 0)
(-39.2287 -456.932 0)
(-23.9017 -506.194 0)
(-10.3052 -552.849 0)
(0.235363 -595.434 0)
(8.25066 -629.294 0)
(15.0227 -660.779 0)
(26.2726 -685.266 0)
(43.2831 -704.442 0)
(71.6908 -719.153 0)
(109.364 -729.827 0)
(152.251 -743.27 0)
(207.214 -762.976 0)
(266.049 -772.288 0)
(411.497 -786.961 0)
(645.398 -723.533 0)
(552.946 -2074.39 0)
(5468.52 -28325.4 0)
(-5838.09 -1264.26 0)
(-247.537 -431.654 0)
(105.968 -537.542 0)
(230.847 -431.944 0)
(27.0819 -327.291 0)
(-97.1969 -300.472 0)
(-101.566 -255.983 0)
(-133.277 -237.879 0)
(-141.121 -238.319 0)
(-136.947 -257.967 0)
(-127.697 -283.889 0)
(-111.745 -307.186 0)
(-98.6266 -323.026 0)
(-86.4342 -333.321 0)
(-78.2737 -339.02 0)
(-72.6053 -343.656 0)
(-69.4951 -347.368 0)
(-67.214 -349.265 0)
(-65.4253 -349.944 0)
(-62.85 -350.518 0)
(-59.8335 -351.5 0)
(-57.3837 -352.533 0)
(-53.4709 -353.05 0)
(-48.4611 -355.189 0)
(-40.0681 -358.527 0)
(-32.5199 -364.878 0)
(-23.1619 -373.026 0)
(-13.3304 -382.1 0)
(-3.86883 -390.625 0)
(9.95375 -397.997 0)
(28.7903 -406.493 0)
(57.2047 -414.914 0)
(92.6154 -427.06 0)
(131.939 -440.675 0)
(186.379 -459.094 0)
(249.924 -474.495 0)
(417.93 -487.252 0)
(710.963 -479.865 0)
(-9.80171 -424.511 0)
(6483.37 -1212.07 0)
(-6584.66 -638.918 0)
(-49.9423 -283.302 0)
(131.959 -275.592 0)
(297.184 -242.916 0)
(78.2669 -174.963 0)
(-71.8744 -153.186 0)
(-76.4326 -119.104 0)
(-123.364 -98.5743 0)
(-149.472 -93.8506 0)
(-160.074 -113.815 0)
(-155.782 -142.782 0)
(-139.002 -176.462 0)
(-123.167 -207.175 0)
(-108.539 -233.666 0)
(-97.1515 -255.488 0)
(-87.3034 -274.242 0)
(-79.2498 -289.882 0)
(-73.2392 -302.487 0)
(-69.3513 -312.246 0)
(-65.189 -318.452 0)
(-60.7032 -320.24 0)
(-57.3155 -317.655 0)
(-52.3952 -312.374 0)
(-44.5063 -305.792 0)
(-33.2377 -297.711 0)
(-24.2765 -290.482 0)
(-16.3604 -282.632 0)
(-8.70837 -277.632 0)
(-0.296225 -272.454 0)
(10.9817 -268.609 0)
(26.9808 -266.23 0)
(51.8714 -265.729 0)
(84.5401 -269.508 0)
(121.382 -274.678 0)
(174.624 -283.656 0)
(238.915 -293.558 0)
(406.323 -304.038 0)
(705.858 -317.583 0)
(-152.631 -310.42 0)
(7228.43 -539.596 0)
(-7084.62 -422.762 0)
(102.578 -157.33 0)
(144.885 -139.777 0)
(327.816 -131.296 0)
(113.549 -95.4371 0)
(-43.3691 -73.1107 0)
(-48.9405 -43.4842 0)
(-108.942 -15.9628 0)
(-155.808 -1.73967 0)
(-184.099 -17.1143 0)
(-188.065 -49.7005 0)
(-173.796 -89.4096 0)
(-153.751 -124.086 0)
(-132.991 -153.19 0)
(-117.374 -174.787 0)
(-105.749 -191.531 0)
(-96.713 -205.36 0)
(-88.7645 -216.628 0)
(-80.8099 -224.729 0)
(-70.5531 -229.394 0)
(-59.0653 -231.509 0)
(-49.8041 -231.081 0)
(-42.0396 -228.02 0)
(-34.3313 -223.45 0)
(-25.3149 -218.889 0)
(-17.9885 -215.656 0)
(-10.7791 -211.901 0)
(-3.52302 -208.763 0)
(4.82607 -205.152 0)
(15.9515 -201.784 0)
(31.5664 -197.757 0)
(54.046 -194.478 0)
(83.9911 -194.372 0)
(118.305 -195.97 0)
(168.186 -200.748 0)
(230.284 -207.187 0)
(394.779 -216.251 0)
(704.813 -233.298 0)
(-223.742 -233.887 0)
(7780.25 -346.534 0)
(-7360.69 -194.795 0)
(222.752 -38.4729 0)
(157.047 -7.81414 0)
(339.912 -22.2378 0)
(134.336 -14.9369 0)
(-21.8106 0.963655 0)
(-21.3628 17.8045 0)
(-83.1377 48.2288 0)
(-150.582 75.1226 0)
(-206.291 73.1036 0)
(-225.448 40.5339 0)
(-210.682 -5.52998 0)
(-184.628 -49.4729 0)
(-157.397 -81.9518 0)
(-134.099 -106.028 0)
(-116.764 -122.042 0)
(-103.434 -132.413 0)
(-91.9044 -138.999 0)
(-81.6525 -142.812 0)
(-71.7219 -144.995 0)
(-62.3291 -147.142 0)
(-53.9536 -149.392 0)
(-45.042 -150.893 0)
(-35.7073 -151.387 0)
(-25.7264 -151.215 0)
(-17.5427 -150.924 0)
(-9.71821 -149.528 0)