/*--------------------------------*- C++ -*----------------------------------*\
| =========                 |                                                 |
| \\      /  F ield         | OpenFOAM: The Open Source CFD Toolbox           |
|  \\    /   O peration     | Version:  v1912                                 |
|   \\  /    A nd           | Website:  www.openfoam.com                      |
|    \\/     M anipulation  |                                                 |
\*---------------------------------------------------------------------------*/
FoamFile
{
    version     2.0;
    format      ascii;
    class       volScalarField;
    location    "5.84";
    object      p;
}
// * * * * * * * * * * * * * * * * * * * * * * * * * * * * * * * * * * * * * //

dimensions      [1 -1 -2 0 0 0 0];


internalField   nonuniform List<scalar> 
1900
(
33589.5
10086.5
9027.19
8986.49
8917.94
8874.01
8833.44
8797.67
8793.2
8788.75
33589.5
10086.6
9027.18
8986.52
8918.24
8874
8830.62
8798.93
8789.86
8779.69
33589.5
10086.6
9027.2
8986.65
8918.52
8873.99
8828.84
8795.55
8781.4
8776.78
33589.5
10086.6
9027.18
8986.52
8918.24
8874
8830.62
8798.93
8789.86
8779.69
33589.5
10086.5
9027.19
8986.49
8917.94
8874.01
8833.44
8797.67
8793.2
8788.75
8943.66
8792.47
8749.49
8600.64
8900.54
8798.93
8706.68
8669.32
8524.97
8439.39
8772.88
8688.27
8657.09
8550.02
8478.72
8798.93
8706.68
8669.32
8524.97
8439.39
8943.66
8792.47
8749.49
8600.64
8900.54
3748
2127.59
1968.05
1979.91
1918.99
4234.95
2350.63
2086.61
2062.45
2020.17
4348.77
2306.44
2023.52
2002.64
1972.27
4234.95
2350.63
2086.61
2062.45
2020.17
3748
2127.59
1968.05
1979.91
1918.99
1209.11
728.645
758.21
1171.72
1554.2
1682.86
1652.55
1470.75
1222.9
1011.02
883.082
813.091
762.819
717.692
676.558
641.853
617.835
603.715
595.36
589.412
584.454
580.102
576.32
573.201
570.763
569.067
568.061
567.971
568.964
571.395
574.617
579.609
584.796
592.847
601.161
618.852
638.952
664.93
664.574
590.361
1381.56
748.13
729.097
1177.83
1611.54
1737.49
1688.11
1488.6
1230.52
1013.76
884.075
813.513
763.043
717.876
676.808
641.925
617.828
603.688
595.333
589.39
584.435
580.082
576.299
573.177
570.737
569.038
568.029
567.937
568.928
571.36
574.581
579.579
584.756
592.827
601.102
618.892
638.975
664.916
664.937
590.419
1382.62
751.562
727.083
1150.6
1596.01
1720.41
1674.89
1486.32
1232.73
1015.2
884.533
813.679
763.174
717.954
676.872
641.955
617.829
603.68
595.325
589.384
584.43
580.077
576.293
573.17
570.728
569.028
568.018
567.925
568.915
571.346
574.567
579.567
584.741
592.819
601.084
618.91
639.003
665.018
665.306
590.069
1381.56
748.13
729.097
1177.83
1611.54
1737.49
1688.11
1488.6
1230.52
1013.76
884.075
813.513
763.043
717.876
676.808
641.925
617.828
603.688
595.333
589.39
584.435
580.082
576.299
573.177
570.737
569.038
568.029
567.937
568.928
571.36
574.581
579.579
584.756
592.827
601.102
618.892
638.975
664.916
664.937
590.419
1209.11
728.645
758.21
1171.72
1554.2
1682.86
1652.55
1470.75
1222.9
1011.02
883.082
813.091
762.819
717.692
676.558
641.853
617.835
603.715
595.36
589.412
584.454
580.102
576.32
573.201
570.763
569.067
568.061
567.971
568.964
571.395
574.617
579.609
584.796
592.847
601.161
618.852
638.952
664.93
664.574
590.361
974.644
818.094
852.31
1229.77
1496.96
1616.71
1575.07
1416.67
1194.3
998.283
877.816
810.953
761.653
716.403
675.323
641.309
617.759
603.795
595.453
589.486
584.516
580.164
576.391
573.285
570.861
569.178
568.182
568.1
569.097
571.52
574.74
579.707
584.925
592.903
601.338
618.624
638.762
664.879
664.309
598.951
998.99
908.504
1048.06
1208.57
1346.58
1453.66
1429.25
1305.32
1124.1
964.349
864.412
805.548
758.174
713.047
672.567
639.987
617.54
604.001
595.701
589.687
584.688
580.338
576.59
573.517
571.126
569.476
568.504
568.442
569.452
571.86
575.068
579.987
585.249
593.132
601.673
618.308
638.179
664.038
668.079
591.43
924.359
852.13
949.874
1089.49
1259.45
1310.08
1284.19
1183.93
1045.49
924.504
847.638
797.182
752.28
708.074
668.853
638.137
617.15
604.24
596.046
589.988
584.957
580.616
576.905
573.882
571.544
569.944
569.011
568.98
570.011
572.395
575.591
580.446
585.77
593.541
602.163
618.012
637.487
663.247
672.133
592.392
835.589
848.467
917.002
1012.8
1147.9
1186.29
1154.11
1074.22
972.576
886.309
829.572
786.846
744.389
701.803
664.498
636.003
616.672
604.498
596.456
590.37
585.316
580.996
577.336
574.38
572.11
570.578
569.693
569.699
570.759
573.111
576.286
581.071
586.445
594.123
602.748
617.872
636.843
663.006
676.574
594.901
791.724
840.923
887.822
962.283
1067.13
1075.91
1045.34
983.29
910.436
852.673
810.972
774.679
734.775
694.436
659.743
633.762
616.192
604.793
596.941
590.853
585.797
581.514
577.921
575.042
572.849
571.393
570.563
570.613
571.692
573.997
577.133
581.828
587.221
594.8
603.382
617.862
636.16
663.148
680.861
597.067
773.508
825.408
865.949
928.223
992.301
985.491
956.932
910.669
861.663
824.79
794.107
762.189
724.555
686.795
655.121
631.784
615.914
605.259
597.613
591.552
586.518
582.29
578.775
575.982
573.872
572.491
571.733
571.838
572.915
575.17
578.257
582.859
588.244
595.741
604.264
618.288
635.972
664.111
685.057
599.277
753.2
805.835
838.654
894.404
921.748
911.336
886.713
855.919
825.435
801.594
777.867
748.675
713.417
678.913
650.653
630.06
615.826
605.921
598.512
592.518
587.54
583.386
579.956
577.246
575.208
573.89
573.194
573.336
574.369
576.536
579.527
583.987
589.301
596.672
605.097
618.687
635.815
665.361
689.05
600.099
730.949
782.814
812.853
854.448
858.974
850.175
833.379
816.427
798.704
782.899
763.249
735.767
702.957
672.035
647.258
629.22
616.487
607.244
600.077
594.179
589.278
585.207
581.856
579.218
577.238
575.964
575.313
575.476
576.433
578.48
581.337
585.623
590.817
598.032
606.355
619.576
636.373
667.046
692.777
601.077
706.451
756.584
784.067
805.926
810.659
805.654
798.174
789.692
779.049
767.167
749.063
722.869
692.951
665.897
644.602
628.965
617.598
608.988
602.096
596.337
591.544
587.568
584.294
581.715
579.776
578.524
577.888
578.033
578.87
580.75
583.418
587.479
592.489
599.512
607.695
620.576
637.102
668.814
696.569
601.148
685.553
732.656
752.664
766.225
780.219
777.359
774.126
770.084
763.591
753.624
735.919
711.15
684.614
661.454
643.464
630.08
619.908
611.916
605.329
599.744
595.072
591.175
587.945
585.379
583.428
582.154
581.473
581.531
582.191
583.84
586.258
590.032
594.802
601.584
609.618
622.174
638.591
671.055
700.427
601.874
670.149
716.206
728.202
745.55
761.66
759.054
758.086
756.325
751.515
741.446
723.594
700.851
678.02
658.651
643.512
631.834
622.714
615.265
608.98
603.585
599.051
595.252
592.084
589.557
587.626
586.363
585.657
585.645
586.142
587.571
589.742
593.241
597.776
604.339
612.24
624.539
640.934
674.056
704.768
601.699
662.13
704.725
711.876
730.083
748.693
746.392
747.041
746.239
741.724
730.85
713.313
693.04
673.825
657.997
645.348
635.246
627.028
620.108
614.155
608.976
604.574
600.827
597.66
595.109
593.143
591.859
591.066
590.931
591.247
592.423
594.324
597.531
601.838
608.187
615.997
628.08
644.54
678.271
710.256
604.266
656.542
697.933
702.145
722.436
742.426
739.625
740.45
738.999
733.415
721.848
705.215
687.813
671.844
658.883
648.135
639.254
631.701
625.14
619.402
614.385
610.14
606.553
603.538
601.12
599.254
598.04
597.223
597.036
597.214
598.189
599.864
602.844
607.012
613.291
621.171
633.293
650.147
684.712
717.634
608.901
659.674
696.415
698.766
721.012
741.535
737.936
738.203
734.963
727.375
715.409
700.667
686.373
673.703
662.88
653.774
645.972
639.105
633.018
627.625
622.839
618.701
615.097
612.005
609.508
607.572
606.31
605.388
605.102
605.116
605.897
607.355
610.109
614.191
620.437
628.476
640.767
658.072
693.689
727.702
619.374
675.766
701.91
703.001
725.229
744.281
739.467
738.173
732.923
723.963
712.675
700.145
688.465
677.88
668.855
660.993
654.005
647.654
641.835
636.504
631.704
627.684
624.343
621.491
619.117
617.217
615.956
614.963
614.606
614.523
615.204
616.505
619.132
623.238
629.616
637.968
650.576
668.504
705.638
741.124
636.827
702.953
715.264
715.836
737.326
753.428
747.056
743.677
736.968
727.553
717.487
706.773
697.343
688.878
681.557
675.024
669.193
663.93
659.122
654.619
650.319
646.388
642.711
639.241
636.182
633.68
632.01
630.618
629.945
629.519
629.902
630.891
633.281
637.395
643.902
652.603
665.799
684.475
722.951
758.175
660.643
742.985
737.811
738.22
756.795
767.323
759.783
754.213
746.4
736.86
728.111
719.191
711.667
704.826
698.991
693.725
688.955
684.442
680.088
675.869
671.743
667.877
664.176
660.634
657.423
654.522
652.397
650.466
649.538
648.845
649.091
650.136
652.752
657.385
664.513
674.109
688.185
707.91
747.952
783.129
695.858
815.168
774.493
789.25
797.074
799.369
789.214
779.995
770.978
761.735
754.284
746.901
740.365
733.754
727.522
721.482
716.053
711.146
706.538
702.121
697.879
693.971
690.243
686.636
683.713
681.595
680.79
680.502
680.972
681.662
683.011
685.094
688.576
694.294
702.685
714.043
729.732
751.06
791.634
820.248
768.186
2580.31
926.455
889.753
866.812
859.007
840.738
826.06
812.662
800.325
789.185
778.539
768.17
757.585
747.001
736.153
725.559
715.738
707.426
700.782
695.994
692.731
691.096
691.09
692.943
695.595
698.841
702.106
705.242
708.58
712.081
715.943
720.944
727.689
737.346
750.406
766.558
788.89
822.818
928.622
2336.75
36155.4
2490.6
913.966
846.288
814.288
788.092
767.332
756.456
746.206
737.34
728.591
718.714
707.695
696.284
684.181
672.145
660.159
649.098
639.147
630.443
623.224
618.343
614.931
614.002
613.252
613.353
612.44
612.382
611.614
611.698
610.884
612.666
615.513
625.152
642.071
664.465
694.932
747.429
2232.12
31614.7
36155.4
2490.6
913.966
846.288
814.288
788.092
767.332
756.456
746.206
737.34
728.591
718.714
707.695
696.284
684.181
672.145
660.159
649.098
639.147
630.443
623.224
618.343
614.931
614.002
613.252
613.353
612.44
612.382
611.614
611.698
610.884
612.666
615.513
625.152
642.071
664.465
694.932
747.429
2232.12
31614.7
2580.31
926.455
889.753
866.812
859.007
840.738
826.06
812.662
800.325
789.185
778.539
768.17
757.585
747.001
736.153
725.559
715.738
707.426
700.782
695.994
692.731
691.096
691.09
692.943
695.595
698.841
702.106
705.242
708.58
712.081
715.943
720.944
727.689
737.346
750.406
766.558
788.89
822.818
928.622
2336.75
815.168
774.493
789.25
797.074
799.369
789.214
779.995
770.978
761.735
754.284
746.901
740.365
733.754
727.522
721.482
716.053
711.146
706.538
702.121
697.879
693.971
690.243
686.636
683.713
681.595
680.79
680.502
680.972
681.662
683.011
685.094
688.576
694.294
702.685
714.043
729.732
751.06
791.634
820.248
768.186
742.985
737.811
738.22
756.795
767.323
759.783
754.213
746.4
736.86
728.111
719.191
711.667
704.826
698.991
693.725
688.955
684.442
680.088
675.869
671.743
667.877
664.176
660.634
657.423
654.522
652.397
650.466
649.538
648.845
649.091
650.136
652.752
657.385
664.513
674.109
688.185
707.91
747.952
783.129
695.858
702.953
715.264
715.836
737.326
753.428
747.056
743.677
736.968
727.553
717.487
706.773
697.343
688.878
681.557
675.024
669.193
663.93
659.122
654.619
650.319
646.388
642.711
639.241
636.182
633.68
632.01
630.618
629.945
629.519
629.902
630.891
633.281
637.395
643.902
652.603
665.799
684.475
722.951
758.175
660.643
675.766
701.91
703.001
725.229
744.281
739.467
738.173
732.923
723.963
712.675
700.145
688.465
677.88
668.855
660.993
654.005
647.654
641.835
636.504
631.704
627.684
624.343
621.491
619.117
617.217
615.956
614.963
614.606
614.523
615.204
616.505
619.132
623.238
629.616
637.968
650.576
668.504
705.638
741.124
636.827
659.674
696.415
698.766
721.012
741.535
737.936
738.203
734.963
727.375
715.409
700.667
686.373
673.703
662.88
653.774
645.972
639.105
633.018
627.625
622.839
618.701
615.097
612.005
609.508
607.572
606.31
605.388
605.102
605.116
605.897
607.355
610.109
614.191
620.437
628.476
640.767
658.072
693.689
727.702
619.374
656.542
697.933
702.145
722.436
742.426
739.625
740.45
738.999
733.415
721.848
705.215
687.813
671.844
658.883
648.135
639.254
631.701
625.14
619.402
614.385
610.14
606.553
603.538
601.12
599.254
598.04
597.223
597.036
597.214
598.189
599.864
602.844
607.012
613.291
621.171
633.293
650.147
684.712
717.634
608.901
662.13
704.725
711.876
730.083
748.693
746.392
747.041
746.239
741.724
730.85
713.313
693.04
673.825
657.997
645.348
635.246
627.028
620.108
614.155
608.976
604.574
600.827
597.66
595.109
593.143
591.859
591.066
590.931
591.247
592.423
594.324
597.531
601.838
608.187
615.997
628.08
644.54
678.271
710.256
604.266
670.149
716.206
728.202
745.55
761.66
759.054
758.086
756.325
751.515
741.446
723.594
700.851
678.02
658.651
643.512
631.834
622.714
615.265
608.98
603.585
599.051
595.252
592.084
589.557
587.626
586.363
585.657
585.645
586.142
587.571
589.742
593.241
597.776
604.339
612.24
624.539
640.934
674.056
704.768
601.699
685.553
732.656
752.664
766.225
780.219
777.359
774.126
770.084
763.591
753.624
735.919
711.15
684.614
661.454
643.464
630.08
619.908
611.916
605.329
599.744
595.072
591.175
587.945
585.379
583.428
582.154
581.473
581.531
582.191
583.84
586.258
590.032
594.802
601.584
609.618
622.174
638.591
671.055
700.427
601.874
706.451
756.584
784.067
805.926
810.659
805.654
798.174
789.692
779.049
767.167
749.063
722.869
692.951
665.897
644.602
628.965
617.598
608.988
602.096
596.337
591.544
587.568
584.294
581.715
579.776
578.524
577.888
578.033
578.87
580.75
583.418
587.479
592.489
599.512
607.695
620.576
637.102
668.814
696.569
601.148
730.949
782.814
812.853
854.448
858.974
850.175
833.379
816.427
798.704
782.899
763.249
735.767
702.957
672.035
647.258
629.22
616.487
607.244
600.077
594.179
589.278
585.207
581.856
579.218
577.238
575.964
575.313
575.476
576.433
578.48
581.337
585.623
590.817
598.032
606.355
619.576
636.373
667.046
692.777
601.077
753.2
805.835
838.654
894.404
921.748
911.336
886.713
855.919
825.435
801.594
777.867
748.675
713.417
678.913
650.653
630.06
615.826
605.921
598.512
592.518
587.54
583.386
579.956
577.246
575.208
573.89
573.194
573.336
574.369
576.536
579.527
583.987
589.301
596.672
605.097
618.687
635.815
665.361
689.05
600.099
773.508
825.408
865.949
928.223
992.301
985.491
956.932
910.669
861.663
824.79
794.107
762.189
724.555
686.795
655.121
631.784
615.914
605.259
597.613
591.552
586.518
582.29
578.775
575.982
573.872
572.491
571.733
571.838
572.915
575.17
578.257
582.859
588.244
595.741
604.264
618.288
635.972
664.111
685.057
599.277
791.724
840.923
887.822
962.283
1067.13
1075.91
1045.34
983.29
910.436
852.673
810.972
774.679
734.775
694.436
659.743
633.762
616.192
604.793
596.941
590.853
585.797
581.514
577.921
575.042
572.849
571.393
570.563
570.613
571.692
573.997
577.133
581.828
587.221
594.8
603.382
617.862
636.16
663.148
680.861
597.067
835.589
848.467
917.002
1012.8
1147.9
1186.29
1154.11
1074.22
972.576
886.309
829.572
786.846
744.389
701.803
664.498
636.003
616.672
604.498
596.456
590.37
585.316
580.996
577.336
574.38
572.11
570.578
569.693
569.699
570.759
573.111
576.286
581.071
586.445
594.123
602.748
617.872
636.843
663.006
676.574
594.901
924.359
852.13
949.874
1089.49
1259.45
1310.08
1284.19
1183.93
1045.49
924.504
847.638
797.182
752.28
708.074
668.853
638.137
617.15
604.24
596.046
589.988
584.957
580.616
576.905
573.882
571.544
569.944
569.011
568.98
570.011
572.395
575.591
580.446
585.77
593.541
602.163
618.012
637.487
663.247
672.133
592.392
998.99
908.504
1048.06
1208.57
1346.58
1453.66
1429.25
1305.32
1124.1
964.349
864.412
805.548
758.174
713.047
672.567
639.987
617.54
604.001
595.701
589.687
584.688
580.338
576.59
573.517
571.126
569.476
568.504
568.442
569.452
571.86
575.068
579.987
585.249
593.132
601.673
618.308
638.179
664.038
668.079
591.43
974.644
818.094
852.31
1229.77
1496.96
1616.71
1575.07
1416.67
1194.3
998.283
877.816
810.953
761.653
716.403
675.323
641.309
617.759
603.795
595.453
589.486
584.516
580.164
576.391
573.285
570.861
569.178
568.182
568.1
569.097
571.52
574.74
579.707
584.925
592.903
601.338
618.624
638.762
664.879
664.309
598.951
)
;

boundaryField
{
    inlet
    {
        type            fixedValue;
        value           uniform 10000;
    }
    outlet
    {
        type            fixedValue;
        value           uniform 1000;
    }
    obstacle
    {
        type            zeroGradient;
    }
    empty
    {
        type            empty;
    }
}


// ************************************************************************* //
