/*--------------------------------*- C++ -*----------------------------------*\
| =========                 |                                                 |
| \\      /  F ield         | OpenFOAM: The Open Source CFD Toolbox           |
|  \\    /   O peration     | Version:  v1912                                 |
|   \\  /    A nd           | Website:  www.openfoam.com                      |
|    \\/     M anipulation  |                                                 |
\*---------------------------------------------------------------------------*/
FoamFile
{
    version     2.0;
    format      ascii;
    class       volVectorField;
    location    "7.24";
    object      grad(p);
}
// * * * * * * * * * * * * * * * * * * * * * * * * * * * * * * * * * * * * * //

dimensions      [1 -2 -2 0 0 0 0];


internalField   nonuniform List<vector> 
1900
(
(67336.4 -0.0705247 0)
(-77334 0.0879281 0)
(-4749.87 -0.0691155 0)
(-455.453 0.0493128 0)
(-374.997 0.998831 0)
(-212.089 -0.0172777 0)
(-67.9487 2.35077 0)
(57.2486 11.5413 0)
(108.6 26.2593 0)
(874.327 -30.1065 0)
(67336.4 -0.141811 0)
(-77334 0.174557 0)
(-4749.91 -0.0407136 0)
(-454.385 0.271606 0)
(-375.064 2.26499 0)
(-210.737 1.42191 0)
(-56.3901 2.80319 0)
(81.1571 5.12263 0)
(66.9518 -22.2725 0)
(-20.4227 -79.5388 0)
(67336.4 6.60805e-09 0)
(-77333.9 -1.26121e-09 0)
(-4749.77 -1.06581e-10 0)
(-453.147 -1.06581e-10 0)
(-373.847 -4.44089e-10 0)
(-211.551 -6.39488e-10 0)
(-64.248 -9.9476e-10 0)
(32.1729 4.26326e-10 0)
(23.9382 1.19016e-09 0)
(-153.058 1.74083e-09 0)
(67336.4 0.141811 0)
(-77334 -0.174557 0)
(-4749.91 0.0407136 0)
(-454.385 -0.271606 0)
(-375.064 -2.26499 0)
(-210.737 -1.42191 0)
(-56.3901 -2.80319 0)
(81.1571 -5.12263 0)
(66.9518 22.2725 0)
(-20.4227 79.5388 0)
(67336.4 0.0705247 0)
(-77334 -0.0879281 0)
(-4749.87 0.0691155 0)
(-455.453 -0.0493128 0)
(-374.997 -0.998831 0)
(-212.089 0.0172777 0)
(-67.9487 -2.35077 0)
(57.2486 -11.5413 0)
(108.6 -26.2593 0)
(874.327 30.1065 0)
(-32.3224 -753.83 8.48046e-12)
(-1598.52 -585.687 -9.94898e-12)
(-1538.81 -674.838 -1.25164e-11)
(676.693 -934.648 0)
(-18578.1 -7815.54 -5.44541e-11)
(-504.774 -920.867 8.34425e-12)
(-1077.08 -707.076 9.94898e-12)
(-1461.04 -783.428 1.25164e-11)
(-1984.97 -677.054 0)
(-17717.4 -7226.49 0)
(-826.607 8.3669e-10 0)
(-1143.64 1.73351e-09 0)
(-1395.87 8.14164e-10 0)
(-1984.28 1.98494e-09 0)
(-20437.6 -2.43192e-09 0)
(-504.774 920.867 8.34425e-12)
(-1077.08 707.076 9.94898e-12)
(-1461.04 783.428 1.25164e-11)
(-1984.97 677.054 0)
(-17717.4 7226.49 0)
(-32.3224 753.83 -2.5169e-11)
(-1598.52 585.687 -9.94898e-12)
(-1538.81 674.838 -1.25164e-11)
(676.693 934.648 -3.36233e-11)
(-18578.1 7815.54 5.44541e-11)
(-36983.4 10515 1.00123e-11)
(-11119.9 4106.32 -4.89112e-12)
(-5006.67 1874.44 0)
(-3117.66 1291.69 2.02568e-12)
(-1352.77 863.616 -6.86814e-13)
(-33072.7 13026.5 -5.16451e-12)
(-13040.4 3344.57 2.50739e-12)
(-5704.04 1070.43 0)
(-3388.42 791.416 -1.29632e-12)
(-2019.61 314.045 1.8057e-13)
(-34143.9 3.14002e-10 0)
(-14172.9 1.32847e-10 0)
(-5810.17 1.46385e-09 0)
(-3454.47 -1.25535e-09 5.28062e-13)
(-1984.02 2.49962e-09 -3.61141e-13)
(-33072.7 -13026.5 -5.16451e-12)
(-13040.4 -3344.57 2.50739e-12)
(-5704.04 -1070.43 0)
(-3388.42 -791.416 -1.29632e-12)
(-2019.61 -314.045 1.8057e-13)
(-36983.4 -10515 5.16451e-12)
(-11119.9 -4106.32 -1.23669e-13)
(-5006.67 -1874.44 0)
(-3117.66 -1291.69 3.89013e-14)
(-1352.77 -863.616 6.86814e-13)
(-175.631 -1177.39 0)
(-256.065 -482.809 0)
(-377.592 97.5753 0)
(-662.336 261.071 0)
(-462.308 143.228 0)
(339.935 -140.712 0)
(2316.17 -330.414 0)
(2653.31 24.9119 0)
(653.204 273.565 0)
(-164.975 277.222 0)
(-261.63 266.618 0)
(-556.612 294.48 0)
(-887.46 216.613 0)
(-1024.55 158.471 0)
(-1024.2 129.378 0)
(-1069.86 93.0805 0)
(-1135.73 69.1174 0)
(-920.604 41.7038 0)
(-478.197 12.0528 0)
(-189.209 0.865642 0)
(-107.672 0.209766 0)
(-90.3159 1.38466 0)
(-75.9418 0.301176 0)
(-53.2885 -0.859407 0)
(-28.3606 -1.39514 0)
(-10.0466 -1.43847 0)
(0.265749 -1.30334 0)
(4.95475 -1.12128 0)
(8.86751 -1.01096 0)
(13.6607 -0.838216 0)
(18.7929 -0.728203 0)
(25.3793 -0.441365 0)
(72.384 -0.619983 0)
(330.668 -0.640806 0)
(946.531 -3.83494 0)
(1217.05 -0.327169 0)
(789.998 0.0131047 0)
(525.309 36.1953 0)
(480.143 -5.70147 0)
(613.503 -5.72324 0)
(-601.585 -763.049 0)
(-56.3756 -464.811 0)
(-221.193 -50.8517 0)
(-613.988 298.329 0)
(-538.526 301.863 0)
(247.242 -15.7576 0)
(2295.44 -166 0)
(2641.88 -138.579 0)
(657.546 -161.286 0)
(-132.87 -118.73 0)
(-212.311 -46.5975 0)
(-533.17 191.028 0)
(-894.675 284.049 0)
(-1017.87 132.431 0)
(-1018.55 59.0566 0)
(-1079.03 33.5609 0)
(-1148.35 29.2176 0)
(-929.869 19.3692 0)
(-482.253 5.29677 0)
(-190.093 0.317663 0)
(-107.549 0.104393 0)
(-90.3088 0.69597 0)
(-76.1835 0.128573 0)
(-53.4379 -0.4071 0)
(-28.4031 -0.613632 0)
(-10.0351 -0.614081 0)
(0.294859 -0.552706 0)
(4.9811 -0.478047 0)
(8.89302 -0.436619 0)
(13.6845 -0.368499 0)
(18.8277 -0.330816 0)
(25.3742 -0.214415 0)
(72.3692 -0.370393 0)
(330.263 -0.285553 0)
(946.512 -2.28753 0)
(1217.28 -0.372484 0)
(794.385 -1.3968 0)
(524.057 21.1537 0)
(475.514 -6.00851 0)
(615.326 -1.78516 0)
(-464.716 -3.72631e-09 0)
(-48.8806 -3.10862e-09 0)
(-155.588 2.01859e-11 0)
(-559.728 4.06543e-09 0)
(-553.679 -1.01192e-08 0)
(203.829 -8.13491e-09 0)
(2280.44 -3.82926e-09 0)
(2654.68 -1.20106e-08 0)
(658.978 1.80623e-08 0)
(-131.611 2.09206e-08 0)
(-171.518 4.05534e-08 0)
(-460.424 4.08078e-08 0)
(-904.506 4.28748e-09 0)
(-1090 2.22045e-10 0)
(-1052.96 7.37188e-09 0)
(-1078.54 2.72509e-09 0)
(-1139.86 5.2887e-10 0)
(-927.563 4.58017e-09 0)
(-483.74 4.05534e-09 0)
(-190.72 5.30888e-09 0)
(-107.562 2.14475e-09 0)
(-90.3089 1.45338e-09 0)
(-76.2627 -6.2011e-09 0)
(-53.5044 -5.973e-09 0)
(-28.4208 -4.97582e-10 0)
(-10.0288 3.08137e-09 0)
(0.305323 4.35409e-09 0)
(4.98852 4.15425e-09 0)
(8.89938 1.81067e-09 0)
(13.6915 -2.6494e-09 0)
(18.8377 2.98751e-10 0)
(25.3678 7.83212e-10 0)
(72.3633 -5.64195e-09 0)
(330.111 -1.36457e-09 0)
(946.505 4.80222e-09 0)
(1217.31 3.30846e-09 0)
(796.26 -1.05128e-08 0)
(523.968 -2.08318e-09 0)
(473.47 -3.72228e-09 0)
(615.77 -7.26691e-10 0)
(-601.585 763.049 0)
(-56.3756 464.811 0)
(-221.193 50.8517 0)
(-613.988 -298.329 0)
(-538.526 -301.863 0)
(247.242 15.7576 0)
(2295.44 166 0)
(2641.88 138.579 0)
(657.546 161.286 0)
(-132.87 118.73 0)
(-212.311 46.5975 0)
(-533.17 -191.028 0)
(-894.675 -284.049 0)
(-1017.87 -132.431 0)
(-1018.55 -59.0566 0)
(-1079.03 -33.5609 0)
(-1148.35 -29.2176 0)
(-929.869 -19.3692 0)
(-482.253 -5.29677 0)
(-190.093 -0.317663 0)
(-107.549 -0.104393 0)
(-90.3088 -0.69597 0)
(-76.1835 -0.128573 0)
(-53.4379 0.4071 0)
(-28.4031 0.613632 0)
(-10.0351 0.614081 0)
(0.294859 0.552706 0)
(4.9811 0.478047 0)
(8.89302 0.436619 0)
(13.6845 0.368499 0)
(18.8277 0.330816 0)
(25.3742 0.214415 0)
(72.3692 0.370393 0)
(330.263 0.285553 0)
(946.512 2.28753 0)
(1217.28 0.372484 0)
(794.385 1.3968 0)
(524.057 -21.1537 0)
(475.514 6.00851 0)
(615.326 1.78516 0)
(-175.631 1177.39 0)
(-256.065 482.809 0)
(-377.592 -97.5753 0)
(-662.336 -261.071 0)
(-462.308 -143.228 0)
(339.935 140.712 0)
(2316.17 330.414 0)
(2653.31 -24.9119 0)
(653.204 -273.565 0)
(-164.975 -277.222 0)
(-261.63 -266.618 0)
(-556.612 -294.48 0)
(-887.46 -216.613 0)
(-1024.55 -158.471 0)
(-1024.2 -129.378 0)
(-1069.86 -93.0805 0)
(-1135.73 -69.1174 0)
(-920.604 -41.7038 0)
(-478.197 -12.0528 0)
(-189.209 -0.865642 0)
(-107.672 -0.209766 0)
(-90.3159 -1.38466 0)
(-75.9418 -0.301176 0)
(-53.2885 0.859407 0)
(-28.3606 1.39514 0)
(-10.0466 1.43847 0)
(0.265749 1.30334 0)
(4.95475 1.12128 0)
(8.86751 1.01096 0)
(13.6607 0.838216 0)
(18.7929 0.728203 0)
(25.3793 0.441365 0)
(72.384 0.619983 0)
(330.668 0.640806 0)
(946.531 3.83494 0)
(1217.05 0.327169 0)
(789.998 -0.0131046 0)
(525.309 -36.1953 0)
(480.143 5.70147 0)
(613.503 5.72324 0)
(-739.1 560.513 0)
(-625.234 190.323 0)
(-506.971 -132.656 0)
(-586.721 -170.039 0)
(-374.624 110.902 0)
(437.168 258.571 0)
(2167.58 554.172 0)
(2249.8 -364.152 0)
(504.3 -814.945 0)
(-91.3901 -679.849 0)
(-166.111 -561.941 0)
(-474.697 -516.712 0)
(-817.703 -418.774 0)
(-955.429 -294.276 0)
(-970.999 -187.72 0)
(-1051.84 -135.864 0)
(-1130.71 -116.601 0)
(-904.787 -76.4333 0)
(-461.327 -22.3139 0)
(-183.687 -2.18021 0)
(-107.732 -0.818726 0)
(-90.3579 -1.96444 0)
(-75.0554 -0.617995 0)
(-52.5466 1.27645 0)
(-28.0892 2.3493 0)
(-10.0795 2.51067 0)
(0.129554 2.28714 0)
(4.82815 1.9659 0)
(8.74497 1.76365 0)
(13.5346 1.47719 0)
(18.6191 1.23775 0)
(25.3005 0.782186 0)
(72.4772 0.821677 0)
(331.811 1.16091 0)
(946.294 4.62005 0)
(1215.13 -0.0409769 0)
(776.548 -2.63522 0)
(526.194 -35.8313 0)
(496.456 -3.19773 0)
(610.268 6.47633 0)
(-682.399 55.9921 0)
(-726.069 181.219 0)
(-655.473 122.277 0)
(-468.182 179.644 0)
(-96.303 552.375 0)
(714.946 813.342 0)
(1795.77 834.015 0)
(1550.36 -307.428 0)
(428.833 -781.428 0)
(39.3703 -609.757 0)
(-155.646 -582.159 0)
(-462.576 -596.724 0)
(-710.518 -514.063 0)
(-838.963 -388.996 0)
(-900.081 -293.001 0)
(-1010.99 -238.539 0)
(-1081.16 -197.719 0)
(-838.227 -115.059 0)
(-415.691 -30.4952 0)
(-171.457 -3.43205 0)
(-107.431 -1.67437 0)
(-90.1 -2.19788 0)
(-73.2941 -0.517677 0)
(-50.8269 2.00082 0)
(-27.3168 3.62382 0)
(-10.0888 3.98968 0)
(-0.186171 3.7105 0)
(4.51819 3.23377 0)
(8.46228 2.92694 0)
(13.2216 2.51487 0)
(18.2164 2.12021 0)
(25.0206 1.45613 0)
(72.6989 1.35108 0)
(333.716 1.96583 0)
(945.499 5.48199 0)
(1211.09 -0.785804 0)
(762.722 -5.37468 0)
(524.293 -22.4177 0)
(512.165 -7.54348 0)
(612.078 2.7715 0)
(-510.515 37.0622 0)
(-561.359 148.869 0)
(-508.488 265.983 0)
(-172.264 452.795 0)
(236.03 730.611 0)
(708.567 838.395 0)
(1087.56 628.353 0)
(693.104 -279.985 0)
(212.965 -550.378 0)
(100.632 -531.17 0)
(-153.552 -633.389 0)
(-409.077 -624.84 0)
(-617.529 -552.428 0)
(-742.406 -454.749 0)
(-826.014 -360.044 0)
(-960.02 -302.374 0)
(-1011.72 -253.884 0)
(-743.644 -139.385 0)
(-353.759 -34.0522 0)
(-155.914 -4.20894 0)
(-106.543 -2.19856 0)
(-89.2433 -1.99292 0)
(-71.0093 0.225996 0)
(-48.5557 3.26934 0)
(-26.1726 5.29968 0)
(-9.99598 5.85915 0)
(-0.598871 5.55338 0)
(4.07308 4.93814 0)
(8.05221 4.54124 0)
(12.7572 4.00852 0)
(17.5989 3.46231 0)
(24.5593 2.56658 0)
(72.9684 2.37935 0)
(335.792 3.21305 0)
(943.643 7.0822 0)
(1204.67 -0.667955 0)
(755.703 -6.85555 0)
(524.104 -12.1759 0)
(520.729 -6.13084 0)
(614.866 1.44398 0)
(-503.228 -14.2365 0)
(-505.472 -10.8323 0)
(-362.599 182.612 0)
(-20.4506 398.411 0)
(275.275 479.881 0)
(616.407 444.699 0)
(718.055 130.232 0)
(414.488 -396.012 0)
(186.783 -396.516 0)
(-40.6227 -543.864 0)
(-245.909 -601.705 0)
(-384.559 -614.33 0)
(-546.612 -572.121 0)
(-653.575 -481.685 0)
(-753.247 -392.4 0)
(-908.687 -349.544 0)
(-924.094 -291.822 0)
(-626.389 -142.149 0)
(-285.431 -31.3335 0)
(-140.761 -4.95554 0)
(-105.296 -2.79564 0)
(-87.7636 -1.58901 0)
(-68.2232 1.30718 0)
(-45.9377 4.76282 0)
(-24.8211 7.03637 0)
(-9.8443 7.70721 0)
(-1.07369 7.38457 0)
(3.54285 6.68406 0)
(7.56647 6.22877 0)
(12.1819 5.61833 0)
(16.8269 4.95622 0)
(23.9771 3.91141 0)
(73.3219 3.61345 0)
(338.247 4.6397 0)
(941.759 8.22328 0)
(1197.66 -0.810487 0)
(751.632 -7.76829 0)
(524.991 -8.1422 0)
(525.29 -5.15091 0)
(616.595 0.0799067 0)
(-534.672 5.0039 0)
(-371.668 144.481 0)
(-114.126 385.048 0)
(114.196 457.223 0)
(280.634 337.534 0)
(371.632 153.841 0)
(277.424 -250.25 0)
(185.511 -417.888 0)
(70.4892 -492.251 0)
(-97.0952 -586.097 0)
(-221.456 -599.024 0)
(-380.569 -604.06 0)
(-489.708 -557.94 0)
(-569.221 -466.561 0)
(-698.677 -405.555 0)
(-863.099 -389.318 0)
(-811.866 -303.697 0)
(-492.628 -123.105 0)
(-221.554 -24.6282 0)
(-128.414 -5.27363 0)
(-103.299 -3.10893 0)
(-85.2896 -0.765273 0)
(-64.8885 2.82488 0)
(-43.0349 6.60709 0)
(-23.3353 8.9989 0)
(-9.66044 9.72516 0)
(-1.58482 9.40633 0)
(2.9593 8.68546 0)
(7.02523 8.21876 0)
(11.531 7.58132 0)
(15.954 6.88333 0)
(23.2654 5.79879 0)
(73.6702 5.57059 0)
(340.234 6.73433 0)
(938.391 11.0293 0)
(1189.26 2.14656 0)
(748.638 -5.60844 0)
(526.626 -4.19744 0)
(528.652 -2.49089 0)
(619.753 0.271415 0)
(-359.18 36.3734 0)
(-139.248 247.599 0)
(-61.2291 236.344 0)
(-66.2361 47.9196 0)
(-17.0745 -151.165 0)
(49.9968 -304.892 0)
(167.116 -373.484 0)
(181.287 -372.4 0)
(24.6903 -529.35 0)
(-143.513 -564.897 0)
(-263.218 -603.103 0)
(-344.969 -582.506 0)
(-414.113 -508.561 0)
(-506.731 -438.774 0)
(-678.813 -424.219 0)
(-810.533 -415.394 0)
(-667.561 -275.235 0)
(-357.468 -90.492 0)
(-171.884 -18.976 0)
(-120.025 -6.48803 0)
(-100.952 -3.68264 0)
(-82.0456 -0.147813 0)
(-61.119 4.22527 0)
(-39.9882 8.27206 0)
(-21.8164 10.7214 0)
(-9.45168 11.499 0)
(-2.07558 11.2272 0)
(2.39846 10.54 0)
(6.50248 10.1043 0)
(10.895 9.48098 0)
(15.1092 8.8382 0)
(22.712 7.85821 0)
(74.2234 7.66706 0)
(343.508 8.84554 0)
(937.338 12.2995 0)
(1181.62 4.05204 0)
(745.519 -3.26795 0)
(527.995 -1.87264 0)
(529.596 -0.872147 0)
(618.734 -0.222522 0)
(-261.026 -156.77 0)
(-178.969 3.59409 0)
(-306.544 -211.424 0)
(-259.222 -272.511 0)
(-59.3478 -270.629 0)
(157.398 -227.161 0)
(212.371 -276.372 0)
(35.3118 -443.386 0)
(-115.008 -543.827 0)
(-168.166 -586.281 0)
(-238.426 -570.64 0)
(-289.464 -518.455 0)
(-351.202 -453.531 0)
(-487.947 -432.712 0)
(-676.147 -454.286 0)
(-719.532 -406.098 0)
(-498.779 -210.095 0)
(-245.688 -58.3943 0)
(-140.605 -15.2385 0)
(-113.676 -7.44782 0)
(-97.1889 -3.591 0)
(-77.6693 1.15029 0)
(-56.7748 6.25943 0)
(-36.775 10.456 0)
(-20.2257 12.8639 0)
(-9.17302 13.6164 0)
(-2.50894 13.3986 0)
(1.87721 12.7677 0)
(6.00471 12.3008 0)
(10.3109 11.7376 0)
(14.3902 11.1993 0)
(22.1368 10.3893 0)
(74.6216 10.3424 0)
(344.698 11.6062 0)
(933.772 14.4567 0)
(1174.26 6.38727 0)
(742.928 -1.05418 0)
(528.935 -0.286691 0)
(530.242 -0.321233 0)
(620.808 -0.617666 0)
(-506.786 -55.11 0)
(-191.915 -29.3018 0)
(-327.294 -94.3424 0)
(-123.288 -61.7914 0)
(26.6259 -76.0327 0)
(44.4625 -200.769 0)
(-41.2461 -389.908 0)
(-76.4419 -527.949 0)
(-113.008 -534.693 0)
(-169.351 -538.906 0)
(-197.859 -504.588 0)
(-232.119 -444.789 0)
(-331.488 -423.328 0)
(-507.459 -448.698 0)
(-653.167 -464.937 0)
(-575.221 -338.51 0)
(-332.501 -134.081 0)
(-169.698 -36.8229 0)
(-122.79 -13.4583 0)
(-108.801 -7.54847 0)
(-92.6662 -2.38383 0)
(-72.5534 3.43707 0)
(-52.1516 8.91572 0)
(-33.6239 13.1573 0)
(-18.771 15.4801 0)
(-8.93642 16.1716 0)
(-2.89341 15.9853 0)
(1.34055 15.4368 0)
(5.50989 14.9307 0)
(9.83361 14.5032 0)
(13.8098 14.1224 0)
(21.8863 13.6146 0)
(75.3961 13.9003 0)
(347.472 15.1416 0)
(932.309 17.5472 0)
(1166.68 10.213 0)
(739.088 3.00332 0)
(528.702 3.46617 0)
(529.277 2.07994 0)
(619.638 0.0413489 0)
(-342.368 243.501 0)
(-216.774 26.724 0)
(-337.853 79.5046 0)
(-241.578 31.0599 0)
(-193.271 -148.074 0)
(-145.064 -347.84 0)
(-102.912 -449.464 0)
(-104.208 -480.71 0)
(-125.566 -497.704 0)
(-139.156 -475.488 0)
(-147.731 -423.7 0)
(-211.16 -399.262 0)
(-354.969 -424.59 0)
(-528.042 -465.233 0)
(-569.966 -417.132 0)
(-400.707 -226.78 0)
(-208.062 -73.361 0)
(-129.451 -22.3227 0)
(-112.395 -10.6552 0)
(-103.005 -4.98646 0)
(-86.6028 1.75919 0)
(-66.7806 8.43473 0)
(-47.408 13.988 0)
(-30.4492 17.9513 0)
(-17.321 19.9368 0)
(-8.68619 20.3868 0)
(-3.21697 20.0633 0)
(0.860891 19.4719 0)
(5.10501 18.9126 0)
(9.53198 18.5463 0)
(13.534 18.2888 0)
(21.9228 18.0963 0)
(76.0931 18.7178 0)
(348.213 20.0041 0)
(929.022 21.6273 0)
(1160.24 14.7182 0)
(736.427 7.64523 0)
(528.045 7.2785 0)
(526.942 4.65854 0)
(618.764 1.52981 0)
(-246.386 142.261 0)
(-349.948 -10.1801 0)
(-323.115 38.3332 0)
(-342.591 -12.2952 0)
(-338.496 -194.442 0)
(-245.968 -342.787 0)
(-169.284 -433.812 0)
(-122.927 -448.971 0)
(-107.976 -435.552 0)
(-98.0379 -395.433 0)
(-124.405 -366.431 0)
(-232.977 -387.055 0)
(-395.06 -435.9 0)
(-500.273 -439.354 0)
(-423.385 -303.823 0)
(-243.95 -122.027 0)
(-135.478 -36.985 0)
(-109.272 -12.8472 0)
(-106.085 -5.87642 0)
(-96.8377 0.592132 0)
(-79.733 7.89468 0)
(-60.7693 14.6756 0)
(-42.9811 20.0669 0)
(-27.8913 23.6081 0)
(-16.4241 25.1572 0)
(-8.8146 25.2849 0)
(-3.77502 24.7736 0)
(0.231755 24.0711 0)
(4.61794 23.468 0)
(9.23245 23.1669 0)
(13.3762 23.0893 0)
(22.2996 23.2741 0)
(77.2345 24.2339 0)
(350.276 25.4387 0)
(927.215 25.1984 0)
(1153.2 18.7932 0)
(731.919 13.3937 0)
(525.824 12.3551 0)
(523.737 7.48466 0)
(613.675 2.21948 0)
(-215.091 41.2589 0)
(-316.923 67.0383 0)
(-339.891 111.608 0)
(-465.889 -14.3341 0)
(-511.746 -180.968 0)
(-375.73 -360.941 0)
(-205.235 -416.195 0)
(-105.885 -392.007 0)
(-73.9745 -360.742 0)
(-72.5477 -329.964 0)
(-139.658 -342.785 0)
(-278.103 -390.409 0)
(-405.366 -417.479 0)
(-400.768 -340.709 0)
(-264.178 -171.267 0)
(-143.572 -56.3357 0)
(-102.853 -16.2173 0)
(-99.474 -4.92553 0)
(-99.4442 0.96699 0)
(-89.7343 7.86255 0)
(-73.0314 15.0907 0)
(-55.051 21.383 0)
(-38.8003 26.0972 0)
(-25.544 28.902 0)
(-15.7053 29.8536 0)
(-9.05585 29.6075 0)
(-4.3866 28.9358 0)
(-0.39723 28.121 0)
(4.23373 27.6002 0)
(9.16708 27.5871 0)
(13.6372 27.9965 0)
(23.0257 28.813 0)
(78.179 30.5334 0)
(349.142 32.2965 0)
(922.618 31.676 0)
(1148.87 26.1295 0)
(730.223 23.5324 0)
(522.351 21.9321 0)
(517.175 15.0849 0)
(609.412 6.03071 0)
(-142.027 56.7736 0)
(-282.157 61.1616 0)
(-401.529 67.8325 0)
(-624.529 -52.4369 0)
(-672.499 -211.473 0)
(-472.641 -353.33 0)
(-199.22 -358.299 0)
(-69.4903 -320.648 0)
(-48.1893 -291.792 0)
(-80.7343 -290.894 0)
(-182.652 -335.81 0)
(-304.955 -375.91 0)
(-347.166 -338.592 0)
(-263.013 -199.821 0)
(-149.353 -74.0491 0)
(-94.539 -20.1676 0)
(-85.9376 -2.00785 0)
(-92.7126 3.64202 0)
(-93.7616 8.77207 0)
(-83.2277 15.7943 0)
(-66.7043 23.5923 0)
(-50.163 30.4274 0)
(-35.7355 35.6923 0)
(-24.2716 39.0452 0)
(-15.7443 40.7032 0)
(-9.69902 41.5132 0)
(-5.20746 41.8163 0)
(-1.05522 42.1019 0)
(4.10347 42.5913 0)
(9.61435 43.7985 0)
(14.5575 45.0172 0)
(24.7442 46.973 0)
(80.5913 49.5513 0)
(351.377 53.0618 0)
(921.273 56.1259 0)
(1145.35 55.8844 0)
(727.874 50.3059 0)
(517.683 40.4004 0)
(508.414 24.8389 0)
(593.327 7.70333 0)
(-101.444 22.6234 0)
(-306.266 1.05486 0)
(-449.358 -50.9454 0)
(-735.037 -73.9727 0)
(-801.697 -198.913 0)
(-517.217 -277.384 0)
(-173.741 -259.51 0)
(-41.7961 -243.821 0)
(-45.3025 -239.279 0)
(-114.966 -267.503 0)
(-221.582 -306.105 0)
(-280.783 -291.818 0)
(-235.68 -190.429 0)
(-145.845 -66.4491 0)
(-91.0576 3.08669 0)
(-74.1505 30.43 0)
(-79.9091 39.2023 0)
(-89.0861 44.1721 0)
(-87.7338 52.5354 0)
(-75.453 63.6865 0)
(-58.9305 74.8693 0)
(-43.391 84.6355 0)
(-30.4959 92.4891 0)
(-20.7154 98.2696 0)
(-13.327 102.324 0)
(-7.98324 105.421 0)
(-3.81932 107.651 0)
(0.349593 109.823 0)
(5.86865 111.963 0)
(11.5047 114.886 0)
(16.6963 116.939 0)
(27.395 120.255 0)
(84.0464 123.457 0)
(355.478 130.981 0)
(925.338 143.054 0)
(1143.26 153.541 0)
(715.302 146.87 0)
(497.81 111.428 0)
(485.667 56.8542 0)
(578.054 11.614 0)
(-119.21 -30.5303 0)
(-353.05 -30.8242 0)
(-473.828 -86.4677 0)
(-767.116 -36.7291 0)
(-868.514 -89.7383 0)
(-531.035 -130.297 0)
(-166.878 -118.845 0)
(-49.9948 -124.971 0)
(-71.0095 -140.372 0)
(-145.131 -164.194 0)
(-206.083 -152.217 0)
(-193.485 -67.6938 0)
(-129.993 48.4529 0)
(-76.5343 130.416 0)
(-55.9966 180.123 0)
(-59.7366 212.724 0)
(-72.6953 236.171 0)
(-79.8644 257.789 0)
(-74.9568 280.184 0)
(-61.7058 302.42 0)
(-46.517 324.463 0)
(-33.1839 347.261 0)
(-22.5971 368.173 0)
(-14.7943 386.011 0)
(-8.85275 400.69 0)
(-4.56571 413.882 0)
(-0.965922 422.761 0)
(3.10038 432.414 0)
(8.98287 439.462 0)
(14.4088 446.738 0)
(19.7311 449.626 0)
(31.0249 455.159 0)
(90.9269 458.687 0)
(370.262 476.441 0)
(943.012 515.481 0)
(1149.03 526.143 0)
(687.292 453.376 0)
(430.941 305.975 0)
(412.23 145.362 0)
(527.349 17.7217 0)
(-160.568 -76.7735 0)
(-360.169 15.5935 0)
(-455.049 82.8368 0)
(-738.189 231.84 0)
(-891.862 267.396 0)
(-545.266 214.987 0)
(-168.609 213.043 0)
(-62.5405 220.688 0)
(-83.0991 230.931 0)
(-126.38 272.451 0)
(-128.592 358.718 0)
(-87.4101 481.358 0)
(-44.7743 587.855 0)
(-18.9626 666.03 0)
(-11.7427 724.59 0)
(-20.1405 768.372 0)
(-36.4819 802.116 0)
(-46.6741 832.157 0)
(-44.7262 859.288 0)
(-32.7839 883.758 0)
(-15.7204 906.662 0)
(-1.27027 929.796 0)
(6.84517 947.387 0)
(10.6186 961.605 0)
(13.5308 972.158 0)
(13.2857 982.055 0)
(14.039 987.68 0)
(16.4434 994.451 0)
(19.6712 998.111 0)
(21.2987 1001.92 0)
(24.8117 1001.65 0)
(36.1264 1002.32 0)
(104.554 1003.53 0)
(410.207 1022.44 0)
(973.233 1043.74 0)
(1083.41 983.966 0)
(503.14 856.193 0)
(200.997 638.319 0)
(207.896 329.6 0)
(420.9 71.8116 0)
(-178.165 -72.3288 0)
(-199.244 153.787 0)
(-265.445 455.986 0)
(-589.268 766.504 0)
(-884.754 909.135 0)
(-583.411 853.287 0)
(-161.384 799.38 0)
(-32.7573 794.314 0)
(-21.1295 812.664 0)
(-21.991 878.005 0)
(-4.77259 966.48 0)
(27.32 1054.21 0)
(47.9641 1116.18 0)
(55.228 1157.12 0)
(42.6235 1176.48 0)
(14.9711 1177.37 0)
(-11.2295 1171.82 0)
(-24.7713 1169.61 0)
(-25.2322 1171.99 0)
(-16.0545 1175.66 0)
(-2.15267 1176.49 0)
(6.06004 1174.52 0)
(8.05488 1165.98 0)
(9.07567 1156.61 0)
(10.8533 1146.73 0)
(10.3914 1138.23 0)
(10.98 1131.08 0)
(13.1525 1124.02 0)
(16.1847 1117.84 0)
(17.8171 1111.69 0)
(20.116 1107.39 0)
(32.8368 1102.45 0)
(110.309 1099.36 0)
(409.01 1102.99 0)
(905.94 1029.38 0)
(968.306 890.542 0)
(354.214 832.381 0)
(-76.5026 745.242 0)
(-133.677 427.577 0)
(140.534 113.99 0)
(-82.0718 -83.8122 0)
(148.934 240.74 0)
(135.388 616.009 0)
(-301.518 801.944 0)
(-808.235 939.349 0)
(-651.029 959.959 0)
(-225.437 889.043 0)
(-49.7401 856.926 0)
(-2.45174 847.786 0)
(21.843 864.113 0)
(41.2065 883.703 0)
(56.846 892.932 0)
(54.3903 888.062 0)
(39.148 868.985 0)
(7.77113 836.112 0)
(-24.6348 802.44 0)
(-43.9558 778.207 0)
(-46.5102 765.697 0)
(-38.9 764.106 0)
(-28.4492 770.719 0)
(-16.8145 780.594 0)
(-11.396 764.141 0)
(-10.4131 740.023 0)
(-7.92737 724.465 0)
(-4.1806 714.703 0)
(-1.79541 707.365 0)
(0.34716 702.205 0)
(3.67866 696.817 0)
(7.78827 693.212 0)
(11.2332 688.232 0)
(15.9003 685.775 0)
(28.3864 683.819 0)
(105.078 678.565 0)
(342.775 651.596 0)
(768.511 494.557 0)
(893.574 285.916 0)
(363.124 260.825 0)
(-189.087 414.323 0)
(-400.401 287.856 0)
(-100.974 -18.2138 0)
(-26.9436 527.495 0)
(475.13 -291.115 0)
(275.351 275.131 0)
(-277.686 216.939 0)
(-732.485 349.443 0)
(-631.888 531.469 0)
(-260.67 569.038 0)
(-72.5142 571.884 0)
(-14.204 569.186 0)
(12.62 563.402 0)
(22.9978 557.656 0)
(31.52 544.271 0)
(24.8885 531.896 0)
(5.16798 512.205 0)
(-21.5016 494.349 0)
(-40.8283 485.887 0)
(-46.6362 487.24 0)
(-38.3602 495.337 0)
(-20.3933 505.856 0)
(-0.165923 514.595 0)
(-8.49153 521.077 0)
(-33.0357 518.749 0)
(-30.1778 521.483 0)
(-15.3235 521.105 0)
(-5.62493 521.008 0)
(-1.65173 521.525 0)
(0.814921 522.179 0)
(4.48581 522.188 0)
(7.91238 522.072 0)
(10.6514 520.11 0)
(15.8632 517.919 0)
(25.8882 515.704 0)
(79.257 505.961 0)
(231.693 449.233 0)
(553.558 267.48 0)
(743.074 -52.4388 0)
(477.951 -227.584 0)
(-50.4547 -96.0886 0)
(-550.485 -466.623 0)
(-119.304 83.9193 0)
(145.712 45331.2 0)
(-94.2527 -294.168 0)
(624.967 -448.497 0)
(-229.908 -412.613 0)
(-505.142 -198.746 0)
(-439.42 91.2171 0)
(-186.491 226.287 0)
(-49.5974 270.917 0)
(-10.6258 295.225 0)
(10.7327 304.942 0)
(22.7712 318.648 0)
(32.0223 326.749 0)
(23.49 333.77 0)
(2.96684 340.056 0)
(-17.5899 355.627 0)
(-31.4856 380.553 0)
(-34.8488 409.4 0)
(-28.5707 435.19 0)
(-20.3429 452.074 0)
(-13.782 456.465 0)
(-12.8108 449.966 0)
(-11.0048 466.05 0)
(-8.14348 490.513 0)
(-8.38504 505.004 0)
(-3.77556 513.264 0)
(-0.66662 517.666 0)
(0.986643 520.745 0)
(3.57564 521.991 0)
(5.78583 521.418 0)
(7.23115 519.325 0)
(11.6536 515.283 0)
(16.8632 510.172 0)
(41.025 496.284 0)
(112.965 439.015 0)
(285.081 273.705 0)
(416.513 -72.3934 0)
(321.061 -386.45 0)
(-419.434 -556.536 0)
(-226.939 -267.085 0)
(267.813 32098.3 0)
(43372.4 -45652.8 0)
(-43639.9 492.554 0)
(161.213 -268.389 0)
(-37.016 -323.293 0)
(-246.976 8.60772 0)
(-222.31 457.207 0)
(-87.5053 695.309 0)
(-6.08389 741.543 0)
(18.5845 753.092 0)
(35.1915 733.284 0)
(44.0113 705.434 0)
(46.0926 663.981 0)
(37.7118 624.372 0)
(26.2298 600.47 0)
(17.523 594.073 0)
(10.9892 600.54 0)
(6.01318 615.343 0)
(2.76211 630.463 0)
(0.108154 642.126 0)
(-2.19756 651.462 0)
(0.744933 658.708 0)
(6.0377 663.983 0)
(7.36026 663.863 0)
(6.60005 664.796 0)
(6.57673 665.715 0)
(5.55668 661.889 0)
(4.98205 660.641 0)
(5.13478 655.695 0)
(5.34341 651.601 0)
(4.73963 644.146 0)
(7.04295 639.179 0)
(7.5798 624.744 0)
(10.6876 613.814 0)
(17.2082 571.08 0)
(60.7468 478.728 0)
(106.925 212.201 0)
(11.4134 -64.4617 0)
(64.57 -132.819 0)
(30916.9 303.793 0)
(-30793 -31980.9 0)
(43372.4 45652.8 0)
(-43639.9 -492.554 0)
(161.213 268.389 0)
(-37.016 323.293 0)
(-246.976 -8.60772 0)
(-222.31 -457.207 0)
(-87.5053 -695.309 0)
(-6.08389 -741.543 0)
(18.5845 -753.092 0)
(35.1915 -733.284 0)
(44.0113 -705.434 0)
(46.0926 -663.981 0)
(37.7118 -624.372 0)
(26.2298 -600.47 0)
(17.523 -594.073 0)
(10.9892 -600.54 0)
(6.01318 -615.343 0)
(2.76211 -630.463 0)
(0.108154 -642.126 0)
(-2.19756 -651.462 0)
(0.744933 -658.708 0)
(6.0377 -663.983 0)
(7.36026 -663.863 0)
(6.60005 -664.796 0)
(6.57673 -665.715 0)
(5.55668 -661.889 0)
(4.98205 -660.641 0)
(5.13478 -655.695 0)
(5.34341 -651.601 0)
(4.73963 -644.146 0)
(7.04295 -639.179 0)
(7.5798 -624.744 0)
(10.6876 -613.814 0)
(17.2082 -571.08 0)
(60.7468 -478.728 0)
(106.925 -212.201 0)
(11.4134 64.4617 0)
(64.57 132.819 0)
(30916.9 -303.793 0)
(-30793 31980.9 0)
(145.712 -45331.2 0)
(-94.2527 294.168 0)
(624.967 448.497 0)
(-229.908 412.613 0)
(-505.142 198.746 0)
(-439.42 -91.2171 0)
(-186.491 -226.287 0)
(-49.5974 -270.917 0)
(-10.6258 -295.225 0)
(10.7327 -304.942 0)
(22.7712 -318.648 0)
(32.0223 -326.749 0)
(23.49 -333.77 0)
(2.96684 -340.056 0)
(-17.5899 -355.627 0)
(-31.4856 -380.553 0)
(-34.8488 -409.4 0)
(-28.5707 -435.19 0)
(-20.3429 -452.074 0)
(-13.782 -456.465 0)
(-12.8108 -449.966 0)
(-11.0048 -466.05 0)
(-8.14348 -490.513 0)
(-8.38504 -505.004 0)
(-3.77556 -513.264 0)
(-0.66662 -517.666 0)
(0.986643 -520.745 0)
(3.57564 -521.991 0)
(5.78583 -521.418 0)
(7.23115 -519.325 0)
(11.6536 -515.283 0)
(16.8632 -510.172 0)
(41.025 -496.284 0)
(112.965 -439.015 0)
(285.081 -273.705 0)
(416.513 72.3934 0)
(321.061 386.45 0)
(-419.434 556.536 0)
(-226.939 267.085 0)
(267.813 -32098.3 0)
(-26.9436 -527.495 0)
(475.13 291.115 0)
(275.351 -275.131 0)
(-277.686 -216.939 0)
(-732.485 -349.443 0)
(-631.888 -531.469 0)
(-260.67 -569.038 0)
(-72.5142 -571.884 0)
(-14.204 -569.186 0)
(12.62 -563.402 0)
(22.9978 -557.656 0)
(31.52 -544.271 0)
(24.8885 -531.896 0)
(5.16798 -512.205 0)
(-21.5016 -494.349 0)
(-40.8283 -485.887 0)
(-46.6362 -487.24 0)
(-38.3602 -495.337 0)
(-20.3933 -505.856 0)
(-0.165923 -514.595 0)
(-8.49153 -521.077 0)
(-33.0357 -518.749 0)
(-30.1778 -521.483 0)
(-15.3235 -521.105 0)
(-5.62493 -521.008 0)
(-1.65173 -521.525 0)
(0.814921 -522.179 0)
(4.48581 -522.188 0)
(7.91238 -522.072 0)
(10.6514 -520.11 0)
(15.8632 -517.919 0)
(25.8882 -515.704 0)
(79.257 -505.961 0)
(231.693 -449.233 0)
(553.558 -267.48 0)
(743.074 52.4388 0)
(477.951 227.584 0)
(-50.4547 96.0886 0)
(-550.485 466.623 0)
(-119.304 -83.9193 0)
(-82.0718 83.8122 0)
(148.934 -240.74 0)
(135.388 -616.009 0)
(-301.518 -801.944 0)
(-808.235 -939.349 0)
(-651.029 -959.959 0)
(-225.437 -889.043 0)
(-49.7401 -856.926 0)
(-2.45174 -847.786 0)
(21.843 -864.113 0)
(41.2065 -883.703 0)
(56.846 -892.932 0)
(54.3903 -888.062 0)
(39.148 -868.985 0)
(7.77113 -836.112 0)
(-24.6348 -802.44 0)
(-43.9558 -778.207 0)
(-46.5102 -765.697 0)
(-38.9 -764.106 0)
(-28.4492 -770.719 0)
(-16.8145 -780.594 0)
(-11.396 -764.141 0)
(-10.4131 -740.023 0)
(-7.92737 -724.465 0)
(-4.1806 -714.703 0)
(-1.79541 -707.365 0)
(0.34716 -702.205 0)
(3.67866 -696.817 0)
(7.78827 -693.212 0)
(11.2332 -688.232 0)
(15.9003 -685.775 0)
(28.3864 -683.819 0)
(105.078 -678.565 0)
(342.775 -651.596 0)
(768.511 -494.557 0)
(893.574 -285.916 0)
(363.124 -260.825 0)
(-189.087 -414.323 0)
(-400.401 -287.856 0)
(-100.974 18.2138 0)
(-178.165 72.3288 0)
(-199.244 -153.787 0)
(-265.445 -455.986 0)
(-589.268 -766.504 0)
(-884.754 -909.135 0)
(-583.411 -853.287 0)
(-161.384 -799.38 0)
(-32.7573 -794.314 0)
(-21.1295 -812.664 0)
(-21.991 -878.005 0)
(-4.77259 -966.48 0)
(27.32 -1054.21 0)
(47.9641 -1116.18 0)
(55.228 -1157.12 0)
(42.6235 -1176.48 0)
(14.9711 -1177.37 0)
(-11.2295 -1171.82 0)
(-24.7713 -1169.61 0)
(-25.2322 -1171.99 0)
(-16.0545 -1175.66 0)
(-2.15267 -1176.49 0)
(6.06004 -1174.52 0)
(8.05488 -1165.98 0)
(9.07567 -1156.61 0)
(10.8533 -1146.73 0)
(10.3914 -1138.23 0)
(10.98 -1131.08 0)
(13.1525 -1124.02 0)
(16.1847 -1117.84 0)
(17.8171 -1111.69 0)
(20.116 -1107.39 0)
(32.8368 -1102.45 0)
(110.309 -1099.36 0)
(409.01 -1102.99 0)
(905.94 -1029.38 0)
(968.306 -890.542 0)
(354.214 -832.381 0)
(-76.5026 -745.242 0)
(-133.677 -427.577 0)
(140.534 -113.99 0)
(-160.568 76.7735 0)
(-360.169 -15.5935 0)
(-455.049 -82.8368 0)
(-738.189 -231.84 0)
(-891.862 -267.396 0)
(-545.266 -214.987 0)
(-168.609 -213.043 0)
(-62.5405 -220.688 0)
(-83.0991 -230.931 0)
(-126.38 -272.451 0)
(-128.592 -358.718 0)
(-87.4101 -481.358 0)
(-44.7743 -587.855 0)
(-18.9626 -666.03 0)
(-11.7427 -724.59 0)
(-20.1405 -768.372 0)
(-36.4819 -802.116 0)
(-46.6741 -832.157 0)
(-44.7262 -859.288 0)
(-32.7839 -883.758 0)
(-15.7204 -906.662 0)
(-1.27027 -929.796 0)
(6.84517 -947.387 0)
(10.6186 -961.605 0)
(13.5308 -972.158 0)
(13.2857 -982.055 0)
(14.039 -987.68 0)
(16.4434 -994.451 0)
(19.6712 -998.111 0)
(21.2987 -1001.92 0)
(24.8117 -1001.65 0)
(36.1264 -1002.32 0)
(104.554 -1003.53 0)
(410.207 -1022.44 0)
(973.233 -1043.74 0)
(1083.41 -983.966 0)
(503.14 -856.193 0)
(200.997 -638.319 0)
(207.896 -329.6 0)
(420.9 -71.8116 0)
(-119.21 30.5303 0)
(-353.05 30.8242 0)
(-473.828 86.4677 0)
(-767.116 36.7291 0)
(-868.514 89.7383 0)
(-531.035 130.297 0)
(-166.878 118.845 0)
(-49.9948 124.971 0)
(-71.0095 140.372 0)
(-145.131 164.194 0)
(-206.083 152.217 0)
(-193.485 67.6938 0)
(-129.993 -48.4529 0)
(-76.5343 -130.416 0)
(-55.9966 -180.123 0)
(-59.7366 -212.724 0)
(-72.6953 -236.171 0)
(-79.8644 -257.789 0)
(-74.9568 -280.184 0)
(-61.7058 -302.42 0)
(-46.517 -324.463 0)
(-33.1839 -347.261 0)
(-22.5971 -368.173 0)
(-14.7943 -386.011 0)
(-8.85275 -400.69 0)