/*--------------------------------*- C++ -*----------------------------------*\
| =========                 |                                                 |
| \\      /  F ield         | OpenFOAM: The Open Source CFD Toolbox           |
|  \\    /   O peration     | Version:  v1912                                 |
|   \\  /    A nd           | Website:  www.openfoam.com                      |
|    \\/     M anipulation  |                                                 |
\*---------------------------------------------------------------------------*/
FoamFile
{
    version     2.0;
    format      ascii;
    class       volScalarField;
    location    "6e-05";
    object      internalEMean;
}
// * * * * * * * * * * * * * * * * * * * * * * * * * * * * * * * * * * * * * //

dimensions      [1 -1 -2 0 0 0 0];


internalField   nonuniform List<scalar> 
1300
(
1101.897393
833.8324916
4072.864101
10157.18846
8793.387443
5478.976574
7304.382297
8840.918814
8023.240989
6886.331176
910.1059357
1213.098835
5160.886423
13764.28734
12629.22564
5688.520498
11025.19821
12096.9641
8725.712925
9118.231168
424.5376116
607.9873843
3623.637824
9273.94121
7613.999029
3433.795103
6709.329655
10033.43354
8674.046335
7194.120708
354.7338779
301.2063025
2500.635251
7519.728578
6051.35147
3094.10102
6202.573338
8901.974188
7104.452634
6363.762347
100.2271577
356.7071258
1839.600564
7398.448978
5460.41818
2923.168114
3847.289481
7490.173006
6593.404669
6522.778687
153.533872
105.0743002
2001.376756
7822.376096
5568.494746
1572.912586
4120.043973
5538.593754
6533.144452
5347.291592
71.35999672
201.3815219
1941.387358
7019.249929
4613.5461
1618.002553
3261.43769
4912.866937
4730.263427
4743.297255
51.28976289
16.53731486
2345.101342
8133.122139
4616.452281
2225.751677
3843.312324
5290.558598
4406.601069
4197.363331
53.97330963
180.4813865
2235.993148
7541.334195
5080.261843
2406.500384
3769.202617
5312.345781
5400.390094
4194.555374
3.357085038
67.89473498
1965.545429
7444.73813
4499.908008
1922.119987
3342.316978
5520.54851
5035.371517
3399.625193
20.86978123
97.38895133
1884.912505
7350.830204
4604.854156
2097.342852
3629.907861
5048.513115
4815.834523
4265.208176
14.17007408
77.57546126
2226.068028
7379.628579
4460.315153
1858.042878
3532.690661
5424.886021
4480.038757
4547.5622
6.699707152
106.5140086
1897.436216
7482.927379
4719.963557
1877.350397
3439.189053
5982.241838
4399.252726
3879.894
14.17007408
50.04214554
1835.370275
7911.712813
4526.946749
1831.970942
3667.323946
5693.070353
3954.61265
3910.597929
0
17.21410439
1847.611802
7328.953505
4522.04777
1750.899787
3219.979662
5303.931428
5163.504191
3471.453332
6.699707152
67.85743713
1980.903136
8054.813735
3836.503017
1786.696773
3368.745681
5269.703972
4405.684647
4575.843602
0
44.93143653
1935.808395
6894.175185
4061.212125
2097.395726
3468.118962
4557.012229
3934.522237
4067.75279
0
0
1838.09204
7519.039222
4694.177555
2294.309779
3640.524418
5325.268575
4685.73488
3291.873002
0
92.69093267
2070.937928
8316.682485
4978.486215
1927.290045
3072.901048
5594.344409
4556.355914
3861.265436
0
22.02580716
1751.246881
6905.882211
4022.205158
1986.517027
3454.502792
5320.867088
4431.409886
3917.367603
6660.741192
5824.274211
6480.3318
4176.409026
3969.121078
3504.235672
5161.001326
5015.579875
4248.263373
5035.641801
4079.425181
5671.414345
4650.64626
4952.904344
4848.784295
5307.258784
4945.029502
4237.453321
4809.309933
4104.536493
5124.174735
4759.697949
5344.444767
3807.843244
4903.399598
4702.985626
5477.29012
5804.439157
6710.744739
7520.982722
6697.693657
6469.078713
5530.98456
5510.675932
4516.096853
4849.996473
4352.852365
4814.181348
4427.024911
3551.611007
4250.482833
3574.19539
4144.55956
4329.550039
4859.664927
4363.498996
3716.268707
4926.527417
4300.228565
5475.485695
5471.994531
5453.973579
4987.578589
4011.983045
4524.260451
5549.715845
5078.080303
5844.816672
4601.400244
6568.607795
7300.979611
7554.694986
5489.84958
5656.188086
5227.728537
4595.202651
4868.305777
3863.69139
4735.850649
4847.007737
4770.241084
3980.976094
3958.63329
4651.294103
4324.068968
3856.91774
4682.93594
3823.818185
4938.34928
5379.014892
4661.928707
4691.178258
4717.935039
4419.92066
3828.379234
4496.40308
4678.533963
4929.684694
6012.905534
5256.605943
7217.844131
7488.181222
6176.047717
5650.150861
5874.218961
4704.92515
4827.094367
5436.927086
4409.526042
4098.947522
3697.654896
4004.428526
3695.470053
4406.814955
4146.402631
4088.997627
3885.682807
4917.505657
4353.421462
4649.792741
5588.494491
4469.809569
4937.504672
5397.989545
5126.303779
5381.608209
4784.301476
5012.042659
5924.214899
5283.473872
6343.314004
7221.528852
7310.77147
6807.209023
5939.610594
5057.514051
5525.447861
5439.775531
4820.962248
4031.68283
4296.803752
3986.622711
3460.075127
4149.199359
4131.181704
3882.292233
4337.08037
3615.795608
4113.145238
4096.922064
4402.151033
4610.868736
4753.68134
4447.416966
3894.27605
5618.914498
5808.945466
4970.11434
4854.578376
5901.733455
5535.342287
7633.377749
6571.570288
6228.868959
5290.885082
6031.036144
5517.944469
5057.063645
4711.618882
5269.257322
4285.061501
4232.225637
4480.881189
4192.961326
3964.114094
3692.687251
3960.971415
3994.008333
4441.490116
4113.213364
4756.481829
3929.225402
4653.524054
4482.718639
4520.933977
5145.934838
4909.598735
5023.178984
5101.320566
5199.341868
4152.753789
5934.324045
6561.628516
6056.211391
5908.293701
6241.808774
5733.09814
5350.192817
5507.786753
5031.446042
4572.698492
4325.363816
4536.413599
4304.167083
3885.613935
4124.75863
3900.516237
4150.070246
4205.109854
3950.131515
3952.662324
4853.146899
4946.85736
4623.021625
4369.113856
3967.952248
5237.326173
5211.153613
5133.11812
3863.893071
4348.635638
5597.363982
6569.3681
5307.936698
5865.136715
7335.963165
5674.639454
6134.829158
5297.959273
5788.719659
5253.312741
4963.802002
4798.190413
4523.809007
4477.597934
4286.26201
3513.121585
3908.503239
4171.938319
3355.536813
4273.839692
4897.965006
3761.133203
4952.023501
4478.271828
5078.709898
4265.673027
4917.702329
4948.005672
5097.662898
4317.52296
5335.590918
4955.636706
5133.443282
4899.464485
5775.480682
6259.573583
6011.238418
5599.828399
5868.228472
4906.445047
5607.32181
4996.818556
4718.371661
4728.751919
4537.986435
4672.889029
4269.282106
4166.761214
3888.848766
3829.511843
3806.654397
3683.424356
4656.867984
4224.448037
4612.79488
4292.861463
4201.631691
6585.504543
4803.786209
3344.109061
4890.3192
4448.784389
3990.806431
5691.914226
5547.579443
5293.820151
5651.517319
6350.048506
5955.510213
5814.228943
5889.599541
5780.688038
4937.030455
5986.111599
4715.165537
4660.425618
4055.031599
4724.335505
4976.274515
3534.450266
3991.502088
4332.913096
3981.275785
4404.721186
4500.219685
4689.341341
4288.119122
4694.025535
4402.058831
3630.062493
4747.883199
4837.874201
4446.035911
4445.615898
4936.523152
5259.688281
5066.74248
5154.046703
5945.729507
6183.791887
5676.165503
5717.028354
5424.564795
5155.200819
4902.782229
5257.384417
4507.316116
4589.648731
4754.462725
4233.896832
4620.638535
4293.873608
3820.48287
4445.710173
4272.562521
4759.694417
4215.441781
4063.075828
4755.603091
3374.063808
4697.07386
4278.186472
3778.986616
4410.641237
4513.262715
4161.510327
4959.465901
5150.852268
5427.294945
5824.533012
5772.281374
5773.798257
5669.453446
5433.564304
5516.563775
5221.764231
4651.096806
4505.578681
4531.198303
5119.898929
4279.587067
4338.179029
4650.93803
3591.652799
4918.973555
3698.309006
4068.607915
4692.698451
3837.352783
3845.19478
4770.552095
4142.385222
3875.791987
4422.727459
4386.476586
4377.250164
4304.363341
4879.610736
4819.925195
4396.516297
4952.495275
5909.363462
5403.659101
5540.969778
5757.884776
5395.057852
4826.140453
5120.813754
5144.550665
4415.79431
4296.32378
4256.313714
4539.187061
3999.003289
3702.346831
4201.90427
4003.796344
4522.587799
4326.474891
4307.42845
4865.575309
4182.524998
3290.419639
4569.256114
4365.323707
4487.748873
3775.902316
4386.127037
5089.963489
3993.285757
4280.564688
4950.423674
4824.907839
5851.578418
5668.891907
5506.343843
6329.184757
5336.558361
5226.909182
4869.50751
4861.330041
4772.231609
4682.009139
4499.340564
4310.802547
4218.896995
4323.598692
4069.793573
3819.98211
3511.072124
4738.845066
4384.493445
4313.870902
4476.841964
4382.906298
4318.781953
4426.643452
4569.621392
3663.695231
4433.820099
4674.609145
4636.283774
4716.420182
5089.362006
4892.92998
4434.664287
6044.632121
5296.610563
5303.421272
5206.663718
4818.358149
5028.592268
5062.656559
4829.40861
4024.632869
4289.309823
4192.538504
3933.014238
4653.58692
3881.472684
4969.316282
4315.931001
3987.701603
4336.184322
4735.947874
3679.746852
4454.674553
4664.980442
4470.263687
3810.923419
4227.92995
4193.582946
4257.167022
4947.386194
4599.554581
5075.102332
5059.430535
5622.283719
5255.338403
5551.413888
5938.423912
5307.288934
4287.123666
5388.414013
5131.50301
4104.866055
4716.822915
4469.984396
4335.398572
3206.040473
4611.112344
4936.21444
3656.524004
4229.164372
4392.283907
4772.332583
4565.787516
4136.845654
4416.242257
4809.14335
4312.803005
5095.721061
3758.735348
4585.781805
4872.412864
4711.095214
5018.285595
4493.01205
4631.518586
5357.529182
4854.19057
5933.729565
5372.205747
5429.698338
5663.691776
5395.20075
4481.758508
4623.537758
4848.856927
3882.917648
4172.911493
4014.385596
4061.517808
4170.015744
4418.939123
3948.423538
4084.802222
4596.782052
4053.983817
4790.319318
4578.832313
4348.331037
4440.270166
4958.660176
4393.528768
4622.421682
4827.662772
4276.719087
5180.201701
5580.724384
4785.430182
4928.073342
4842.214467
5279.278893
4956.992155
5305.236104
5322.150627
5389.272234
4552.339902
3249.843414
4972.792255
4798.976591
3137.173143
3910.74254
5231.834514
4155.974877
4086.314458
4368.479978
4254.495758
3874.172804
4462.87952
4545.616765
4168.806996
4164.881703
4945.078045
4400.158038
4473.342485
5157.177613
4346.80839
4777.759012
5178.247878
4532.662248
4674.131092
4238.999422
5237.698558
5583.575735
5187.020617
5105.430766
4893.360853
4521.994355
4416.181604
4572.505882
4371.964548
4409.264144
4003.47408
4755.329005
3696.311522
3778.46844
3435.213198
3784.204458
4371.735136
3870.933437
4212.861895
4102.778049
4163.759373
3722.279302
4249.476269
4603.84026
4169.367752
4674.605845
4299.932713
4044.610671
4824.004998
4970.356367
4593.351919
4918.353963
4239.115976
4481.45897
4826.373511
6242.537195
7845.028714
6610.141144
4851.106078
6265.994225
5724.904955
5606.201559
5764.422342
5705.866947
4478.511376
8564.811687
9178.811876
7266.401605
6517.368163
7990.422219
7750.96814
8206.139862
8022.115987
5660.812067
7179.203388
6741.852208
5039.354161
7123.365571
6355.308825
6912.378717
6515.725072
6624.484328
7117.632902
6552.618188
5047.916569
5406.658446
6382.135348
7260.649812
6060.510323
7603.744376
6761.664005
7037.215472
6325.410776
5317.268028
4999.644649
4542.495599
5287.764634
5597.150754
5587.46411
5954.612371
6074.311318
5288.177204
5875.438552
6615.458501
5753.326693
4535.920278
5352.952948
4192.450926
5630.667379
5998.827767
5630.10158
6630.27797
5533.062173
6157.62198
5967.307942
4968.483429
4132.652002
5817.254831
4091.841455
5129.017011
4809.296782
4881.538513
5780.925138
4752.13081
5433.067401
4149.575945
4883.108868
4692.965785
3915.208693
4646.656557
5068.985618
4215.500295
4552.026152
4614.878503
5067.380653
4467.93401
5149.82357
4819.349386
4669.282324
4719.392796
4854.977116
4916.685561
3813.235028
4062.212108
4881.081078
4177.63527
4398.460146
5173.438752
4305.597317
3916.659331
5031.519021
4433.907178
5409.325707
4766.723318
4604.59641
4164.878877
5134.145585
4785.095816
4341.272879
4372.055568
4883.084427
4287.748285
4495.197967
4804.256085
4393.341604
4654.417467
4595.639874
4583.232802
4259.677493
4407.573096
4173.781419
4003.729688
5083.549405
4088.817149
4779.103561
3671.449307
4809.092811
4221.479431
3823.7336
3862.920938
4243.872829
3883.122963
4113.572454
3508.676559
4089.479032
3783.168943
4250.23917
3862.784022
4322.460746
4078.176387
4306.777051
4559.548223
4153.175666
4039.438242
4636.867814
3953.433624
3814.921159
4142.975147
3971.57614
3844.514027
4376.354382
4053.523884
3886.022757
4484.51757
4861.921074
4235.708203
4378.670898
4682.665155
4208.263108
4415.42141
4024.492046
4302.518816
4189.074914
4221.89674
3682.870366
4892.561928
4445.063957
4414.439594
4744.8526
4288.974443
4130.217002
4210.820576
4519.315167
4270.823286
4706.986315
5242.564732
4656.298616
4470.554613
4834.336591
4445.33349
5091.921315
4357.519324
4981.729245
4954.320719
4266.613132
4649.734762
4338.483153
4376.850477
4796.388883
4260.112775
4797.261973
4457.323675
4094.870406
4629.989435
4279.636606
4921.926048
4762.683635
4658.604154
4414.190642
4035.151444
4757.253185
4467.917803
3987.004428
4088.765341
4222.627369
2228.755492
3363.899695
3047.15594
3144.607132
2818.54448
3355.144867
3340.716492
2487.302026
2756.729002
2722.194766
2948.137757
3238.436221
3004.30425
3060.196153
3406.44572
3356.779172
4564.957942
3598.052906
3353.4641
4066.278092
4535.96023
3941.632809
3616.129028
4447.760209
3357.274238
4355.925866
4305.410614
4192.878481
4760.186091
4575.351296
3480.100919
4152.336507
4536.814307
3662.793989
4290.396142
3274.04382
3653.982557
3492.281678
4114.651434
4658.551427
4879.016037
4368.468854
3638.222728
3663.215084
3944.163841
3553.364315
4362.162065
5639.157083
5074.189398
4460.758814
5600.639832
5591.438369
3934.05423
5760.78293
5251.470374
5638.305968
4868.903142
6428.136501
8141.042495
6808.682408
2639.527733
3936.850141
3573.810598
3892.250705
3907.870074
3413.053251
2529.556257
3322.251714
3787.483726
4515.758634
3919.318515
4070.603336
3284.837474
3692.727061
4041.209438
4112.881941
4264.518
4357.623769
5575.198647
4204.734373
5321.765304
4347.861317
5075.402674
5943.673443
4474.854963
5473.165858
6128.630851
6254.757658
7323.550563
7841.487164
2440.82161
3074.888331
4325.161085
4227.913661
3398.421624
2384.074434
3662.859601
4313.957552
4214.90914
3468.655292
4316.478531
3614.00894
4196.86988
4601.588278
4805.404203
3644.255559
3411.909094
4224.054156
3835.647917
4222.881605
5400.834198
4630.589561
4729.846762
4150.146661
4668.079712
4448.53348
6221.831582
5978.504768
8506.393515
6449.584528
2826.993762
3795.967673
3903.823501
3639.163257
3212.591164
4072.887677
3276.241195
3629.362925
3534.217159
4156.824154
3948.053095
3972.964548
3544.983667
3334.831846
4016.863637
3846.970387
4309.072019
3688.150106
3578.165018
3098.241686
3720.846255
4554.113824
4843.917796
4769.054157
5258.983589
4431.071251
5180.027053
5235.435556
7982.057345
7933.805117
2389.532911
3112.229866
3213.510815
4298.915798
3626.481186
3429.566955
4258.68584
4096.221863
3979.986147
3164.526323
3890.791219
2579.323268
3126.187738
3438.025469
4340.546594
3870.150197
4943.763912
4804.445992
3491.116331
3847.20371
4264.204872
4747.992946
4319.323549
4642.019829
5151.733396
4954.080735
5393.545042
5573.156792
8144.41485
8859.967544
2388.705221
4391.612294
3646.751897
3170.853234
3202.383783
3872.461199
3460.702593
4104.245304
3992.5471
3608.003667
3938.587609
4157.854672
4378.091187
4343.819962
4005.192141
4288.328479
4704.849709
4233.553173
3284.31504
4841.626902
4479.258231
4040.666024
4390.529492
5701.978276
5582.593095
6206.240976
4256.276735
5578.334577
6726.529787
8601.973199
2717.948545
3866.228437
3368.428247
3720.479345
3874.988343
3640.1267
4605.119241
3915.72689
4471.744791
4358.716462
4369.598294
3572.80706
4943.151627
3619.265429
4024.916712
3929.827039
3561.702961
3702.665133
3584.955211
4180.569142
3440.489924
4818.142009
5035.361274
4960.348631
4184.816204
4889.263683
5135.591825
5385.925695
7395.704173
8285.246513
2842.596444
4419.583729
4155.665172
3330.144607
3432.517193
5016.105959
4576.834077
4260.136469
4300.616093
3822.624528
4877.61112
4257.284315
4181.85843
4422.086224
4953.466567
3995.350579
4772.44443
3241.885417
4583.391452
4602.507349
5017.586684
4064.563987
5639.789498
5446.523288
4377.294979
5310.706207
4739.941546
5264.029663
8470.343662
8599.440247
2758.758651
4488.323501
4036.871991
3593.574158
4131.140969
4561.192217
3600.89268
3009.602486
3983.869543
4555.574938
4391.791791
5070.934936
4820.653628
4937.9905
3963.493437
4474.89079
4124.087886
4628.829373
4144.797558
4906.998454
4509.219599
4390.796653
4526.335365
5457.606576
5100.015872
5395.29901
5112.643218
5613.790741
7686.239213
7278.596302
)
;

boundaryField
{
    inlet
    {
        type            calculated;
        value           nonuniform List<scalar> 
20
(
1101.897393
910.1059357
424.5376116
354.7338779
100.2271577
153.533872
71.35999672
51.28976289
53.97330963
3.357085038
20.86978123
14.17007408
6.699707152
14.17007408
0
6.699707152
0
0
0
0
)
;
    }
    outlet
    {
        type            calculated;
        value           nonuniform List<scalar> 
70
(
4478.511376
7179.203388
5047.916569
4999.644649
5753.326693
5967.307942
5433.067401
5067.380653
4881.081078
4604.59641
4393.341604
4779.103561
4089.479032
4636.867814
4861.921074
3682.870366
4706.986315
4266.613132
4279.636606
4222.627369
0
22.02580716
1751.246881
6905.882211
4022.205158
1986.517027
3454.502792
5320.867088
4431.409886
3917.367603
4521.994355
4416.181604
4572.505882
4371.964548
4409.264144
4003.47408
4755.329005
3696.311522
3778.46844
3435.213198
3784.204458
4371.735136
3870.933437
4212.861895
4102.778049
4163.759373
3722.279302
4249.476269
4603.84026
4169.367752
4674.605845
4299.932713
4044.610671
4824.004998
4970.356367
4593.351919
4918.353963
4239.115976
4481.45897
4826.373511
4921.926048
4762.683635
4658.604154
4414.190642
4035.151444
4757.253185
4467.917803
3987.004428
4088.765341
4222.627369
)
;
    }
    wall
    {
        type            calculated;
        value           uniform 0;
    }
    frontAndBack
    {
        type            empty;
    }
}


// ************************************************************************* //
