/*--------------------------------*- C++ -*----------------------------------*\
| =========                 |                                                 |
| \\      /  F ield         | OpenFOAM: The Open Source CFD Toolbox           |
|  \\    /   O peration     | Version:  v1912                                 |
|   \\  /    A nd           | Website:  www.openfoam.com                      |
|    \\/     M anipulation  |                                                 |
\*---------------------------------------------------------------------------*/
FoamFile
{
    version     2.0;
    format      ascii;
    class       volVectorField;
    location    "6e-05";
    object      momentum;
}
// * * * * * * * * * * * * * * * * * * * * * * * * * * * * * * * * * * * * * //

dimensions      [1 -2 -1 0 0 0 0];


internalField   nonuniform List<vector> 
1300
(
(-1.57830931 1.931576607 0.1146020779)
(0 0 0)
(35.22049888 -3.437947845 -2.797958313)
(100.3893848 8.753889811 -3.373442338)
(57.97180831 9.84782962 2.73912041)
(-0.5530907368 8.538422283 -1.032065236)
(34.77670386 -0.9630084262 0.5800426341)
(21.58642418 4.088105734 2.931843945)
(17.62385293 7.323086371 1.890452065)
(29.6568534 -2.704594425 1.683720221)
(-4.892017502 15.28947998 -2.150578507)
(-1.408726442 4.663409329 2.621154703)
(35.89554964 6.882663333 0.4518400322)
(202.3035432 15.3244776 -3.516122034)
(42.84665767 8.28118607 6.260114302)
(21.74822209 4.269216034 6.93113128)
(72.42325402 16.05362672 -5.442419377)
(70.72115037 5.769232688 2.406673038)
(20.40387718 2.921870765 -3.547079844)
(88.70144953 6.536081171 -12.76536763)
(-1.540867066 3.965974121 -0.4161585044)
(0 0 0)
(23.20932145 6.333206057 2.503989284)
(162.1270521 12.84046886 -8.461511546)
(119.0369889 13.97256803 1.358032332)
(19.26044856 13.54242689 -1.689349935)
(46.82597771 7.415663353 -3.200347972)
(152.7535482 25.26479769 -7.166979091)
(47.21663668 5.106458981 -1.850563705)
(42.61223566 6.690326315 -7.0288634)
(-6.344733276 12.67961964 -6.020521546)
(8.844728851 8.70212702 -3.06498051)
(39.23840407 7.764345191 -1.927696934)
(163.339269 25.2329448 -0.4235713496)
(78.82265811 8.096845783 6.703851302)
(34.83162385 11.10317114 0.4366489066)
(101.4790803 15.26485515 -1.744037331)
(113.9733528 3.31227365 11.24555037)
(37.71314086 2.789649701 3.79800148)
(45.85284029 10.04192068 7.263841155)
(-1.137467205 3.995309872 1.097868797)
(0.3992602444 3.293175637 -2.948795682)
(30.87857929 6.803588 -2.396280975)
(139.157012 19.18729715 -3.669922814)
(117.0911254 14.58400346 -4.432161233)
(20.18411065 6.377655551 -1.390160532)
(110.7581503 19.36632682 -1.558396304)
(167.1652049 35.21939214 -0.811245322)
(81.36093556 8.545699796 -1.406495548)
(44.49223749 10.01688271 -0.4052064354)
(-0.8366188639 4.25341315 0.1324741706)
(0.06553996722 3.280241661 -1.441675535)
(26.27713622 5.259934342 -0.2473560861)
(151.3045433 35.65816656 4.146378084)
(144.8877416 18.75418185 2.97617206)
(26.81773205 -0.4553038137 -1.097305632)
(152.2112557 23.63568572 3.997373783)
(105.4867204 11.13000699 3.386945821)
(113.6863277 19.87127713 3.944501154)
(53.47811548 14.61749623 -2.010053682)
(0 0 0)
(0 0 0)
(38.6277118 8.491776797 -2.647593865)
(145.6420247 12.39817105 -0.8109341606)
(102.8497749 7.823179499 3.488486699)
(18.81416473 1.494722331 3.222591222)
(77.6151809 8.718511148 -0.3433608753)
(69.75231128 12.80953646 -1.228347266)
(125.1396077 10.34788051 4.381131424)
(80.40525857 15.2614767 -1.183022879)
(0 0 0)
(0 0 0)
(20.11766922 5.964283405 0.1149766895)
(162.0038796 22.19554282 3.524669614)
(148.4040419 29.16280361 -4.357734759)
(39.0674223 3.638153023 1.375732156)
(70.36322469 13.99407582 -2.413338547)
(104.0817261 9.901697945 -3.160561701)
(123.7145973 15.47832137 -1.168546651)
(31.61398552 2.999864223 0.1753311439)
(0.1275285268 3.8846778 0.413377411)
(0 0 0)
(24.91230375 5.076700262 0.9979708837)
(191.7440721 31.29784208 -3.964405913)
(75.78135091 9.28575078 4.831450696)
(16.84712203 4.944890003 0.2280277617)
(78.61382425 14.96302362 0.2862803043)
(119.4479547 13.95184041 0.6347408328)
(59.04893456 9.103523833 3.309533188)
(53.91226883 4.331839378 -10.06880644)
(0 0 0)
(4.117738934 -0.6495458833 -0.4494103712)
(63.59007063 11.68803161 0.7134685293)
(175.2042135 31.98349124 -0.7350072731)
(56.64851336 2.27507371 0.2835371476)
(18.70903877 0.3578919628 -1.065553201)
(110.4511071 17.85173155 1.824439303)
(95.92268735 14.57837528 10.84648774)
(24.03836753 5.039049357 0.6111716047)
(65.03049613 7.975835772 -0.4811265278)
(0 0 0)
(0 0 0)
(27.82102238 2.202308149 3.791801089)
(181.5722316 27.78808773 5.77049236)
(86.81562872 19.11576259 3.771959833)
(18.31750084 5.366021498 -3.613974817)
(107.0751006 10.56136281 -6.500732942)
(80.35661655 8.066223519 6.23553378)
(121.664253 7.549886791 3.464548992)
(119.3054441 18.94039285 -5.09581087)
(0 0 0)
(5.048219302 2.124795217 1.443591545)
(18.81749115 1.687690295 -8.907022703)
(175.4796412 21.61839946 0.5094863482)
(120.861646 14.01699119 -5.12569505)
(7.014181094 0.01612942279 0.3704187098)
(107.4031274 17.55990639 3.069908311)
(131.819626 24.4070211 -3.048790619)
(57.23833702 7.564751999 2.223068472)
(55.52873695 8.339396557 4.326787029)
(0 0 0)
(4.406315237 3.129685817 0.3224941813)
(23.82746078 7.256645033 -2.334474058)
(211.2934367 27.76144549 5.834492286)
(73.97443984 9.244630189 1.292287107)
(67.17246112 14.76847436 -3.925358766)
(77.52487237 7.797729971 -2.272816297)
(77.44164528 7.028007376 1.288565025)
(62.82461608 1.747090388 -7.265371917)
(85.31791807 11.96686954 8.831491704)
(-0.01067086642 3.504111693 0.5886034942)
(0 0 0)
(26.97179383 4.565004079 -0.006194607281)
(201.721931 26.68554481 -7.3394649)
(40.8453019 3.543665439 2.601045052)
(38.60606295 7.186040395 -1.134269095)
(66.69856951 14.52430398 3.093882132)
(162.8708589 22.37187283 -2.270177101)
(105.7862322 16.18625549 3.596302791)
(55.34055484 6.42930843 6.725318812)
(0 0 0)
(0 0 0)
(51.77870967 12.76096254 -1.911069408)
(121.6719729 10.0251161 5.512483202)
(65.54344068 14.58290816 0.5480088665)
(55.28163339 8.084285717 0.6389758722)
(40.9108574 9.454101953 6.64681137)
(81.2148562 14.54791281 1.737866005)
(97.50176067 2.440803135 0.5346559168)
(50.0227344 6.184909532 -3.107000453)
(0 0 0)
(0 0 0)
(58.71989043 17.28553159 -3.390659043)
(165.3529368 16.97915989 7.105729101)
(91.51550994 16.16338854 4.628606877)
(43.34707148 7.335170503 -5.424978721)
(95.61223848 10.34138994 -1.300339045)
(107.806432 12.95067069 2.955884578)
(85.39298338 18.16421749 -2.084880018)
(49.20332908 7.146277418 0.1137339208)
(0 0 0)
(4.369161798 0.1768741546 1.35557869)
(38.83640164 9.028338279 -5.037919207)
(168.7263632 19.70159875 2.649619469)
(129.3202358 11.10847455 5.817620863)
(68.53688359 13.94705751 -3.002345652)
(98.36791918 16.91769386 -0.1816325189)
(106.302387 20.38641931 -9.564984392)
(81.19427612 11.21253053 -0.4277073511)
(98.2139308 19.24279717 -1.540556603)
(0 0 0)
(0 0 0)
(25.37879866 3.887166241 -3.03161511)
(143.9174125 22.79798552 8.408576393)
(45.40779934 0.952481061 4.912320757)
(25.05499988 3.678443744 -2.482687724)
(67.77021972 8.131494377 1.357985111)
(101.3241195 6.312280753 -7.394876857)
(84.0238575 16.06079508 -6.097106077)
(70.44509613 16.42626337 -5.084584534)
(0 0 0)
(0 0 0)
(55.24179595 6.664175486 -2.077580942)
(200.8024242 32.52943001 -3.466064733)
(80.23548479 7.959168319 -3.485274627)
(20.22749258 3.367824401 2.099706745)
(97.14783278 12.97224649 -2.02449752)
(100.3673505 11.2729536 4.484570822)
(83.7516473 19.83219041 -3.591075637)
(39.10818409 4.931989891 -4.675356843)
(0 0 0)
(4.033839569 0.7009243788 1.237590823)
(39.26145601 6.810380556 3.220802628)
(174.2331656 26.50915473 5.608187711)
(52.30313428 12.76898234 -0.5892460856)
(26.78901886 5.424550543 3.409098117)
(54.74240828 3.470577816 3.201945581)
(112.3226059 16.59248773 5.387420597)
(137.7578454 21.14119421 4.007849443)
(78.62130461 16.16797668 -2.731470707)
(32.19380546 2.162506839 7.308649403)
(26.43853771 -5.646277278 -0.06133939614)
(20.04163299 2.992097925 -6.437694719)
(7.016889636 -0.1900413917 2.14393626)
(31.46720736 -2.061942039 6.078807207)
(24.97556894 -2.05333167 5.170497078)
(15.51667005 4.738103611 1.998743039)
(16.4451472 4.074072162 -5.006327712)
(19.59933953 0.9991245839 -3.182640508)
(16.33597525 1.905747354 -8.238112185)
(35.68700797 -7.808944068 4.17901171)
(29.62155047 3.090012168 0.885196346)
(16.41422233 0.870631412 -2.442558158)
(13.73699376 0.4069947428 -8.257726545)
(8.04550631 4.605835091 2.087649046)
(19.63058154 4.914580033 -0.3241482447)
(33.76943541 10.17332751 -12.34857574)
(12.38550561 8.749026443 -6.399007402)
(13.95949163 0.1409769106 2.176546407)
(27.326387 6.373795032 -5.343033362)
(16.8896515 1.086011336 1.68923279)
(9.317744391 4.757691845 -2.429644151)
(27.85317482 -0.1423877879 0.1142308501)
(1.583745638 -0.7242742498 -0.2296871608)
(-0.2430834231 9.776360242 -2.221550483)
(10.15878999 6.352764564 -12.42420624)
(14.11834239 5.228825168 3.64782627)
(5.691774501 10.52993667 -2.184938137)
(9.805413773 2.693522524 -1.171456627)
(7.161440003 4.797162437 2.259370796)
(28.54742999 2.317829422 5.45490658)
(44.51394272 3.687733731 7.086713609)
(51.66589207 3.380243141 1.030543465)
(42.1981096 4.219555244 -0.9374406153)
(11.89906696 9.08023012 -1.695813152)
(22.89808019 3.238367763 -0.05306719612)
(20.06900433 2.292516951 2.842538695)
(24.18401109 -0.9933953071 3.191920679)
(8.847867348 6.285799536 9.814875889)
(31.05013241 -1.354029757 2.567807067)
(30.12271373 -5.851787098 -1.607348392)
(11.63939883 -4.801011333 -9.336834652)
(13.1922616 6.282718754 5.423840486)
(24.75705018 6.327847835 4.443140248)
(22.59963839 0.6932800259 -3.915637043)
(8.535352102 3.656686791 1.657326118)
(27.14297805 -1.256455619 -1.580216596)
(39.23796175 11.74212559 -6.714430999)
(22.24836198 4.891742444 1.786839156)
(24.88137582 9.289057921 4.513074781)
(14.38187586 2.459765389 -0.86898729)
(14.91906539 5.489572255 1.425616503)
(10.83850512 -0.8554823156 8.56512613)
(3.468892598 -1.72736049 4.567927273)
(15.51151523 1.033242833 2.068469404)
(7.024733835 -4.47013743 8.700735738)
(22.64975074 13.539145 6.171996387)
(9.305116765 -5.962734908 1.353368245)
(26.69980831 -1.029476991 1.499960724)
(13.60462879 2.735727523 -6.114052586)
(69.79760518 12.59268552 -8.443184335)
(77.71452537 4.639903382 4.345355291)
(38.57591903 6.158137159 -0.6386056533)
(43.10031875 0.839540201 -2.760853665)
(24.07398928 5.66498319 -10.03780766)
(43.38015097 2.365815063 0.9684390558)
(19.10033028 5.07102514 0.5462200468)
(30.98179513 4.618547567 2.662219479)
(60.31900245 -1.916582766 -0.6574950869)
(39.9755613 10.6853203 -11.23125698)
(40.49637083 -5.91715735 -7.984675526)
(32.28857204 7.837940358 2.393364002)
(28.23815488 -0.9622764448 -4.086024395)
(43.50885197 1.029915624 4.881129093)
(32.31711845 5.994901111 -6.063659081)
(29.64529877 -0.9578221431 2.611140478)
(20.92958328 0.2008203562 -3.905775878)
(24.08222087 -0.9573267361 -3.524233063)
(22.87124352 -1.211580432 -11.76228786)
(65.36883645 8.301910408 5.250601863)
(6.49880248 12.65584312 8.361202646)
(26.07020648 3.050734969 -6.102159747)
(8.845199149 4.224114253 -7.383014803)
(10.03732387 4.699084154 -9.153543711)
(20.21061331 0.5186061092 5.467827035)
(2.099254707 6.176453352 -5.005942229)
(20.52531816 16.22997896 -5.311002078)
(8.284864093 6.649284318 1.305746159)
(18.93950781 10.00454739 -4.34311152)
(10.13211056 -4.31435522 -4.296459087)
(103.2479491 28.8761753 -4.695698105)
(107.3597325 13.02654766 0.5204954172)
(55.19970212 5.878862956 -0.7719186028)
(67.519194 4.007942762 -0.8480055455)
(76.7528105 15.32042944 -7.879990953)
(17.95828866 6.183460945 2.564752408)
(80.43037758 3.519037211 -3.597810326)
(43.27786736 6.530980735 4.189036284)
(35.88805469 4.957591226 -0.3116658333)
(18.37778826 4.540026773 2.913394626)
(27.47053168 2.537176318 4.666833871)
(35.04544115 3.86627525 -3.724415175)
(18.65617548 -2.969726951 2.506002751)
(24.6993803 1.624157615 -1.647332046)
(21.68575599 17.70811581 -3.710981398)
(19.52926584 8.427600508 4.231888536)
(32.67468917 7.759979126 -0.7616601219)
(47.20144175 7.605060862 1.305240301)
(23.51196866 -4.074360228 1.147494332)
(29.32344142 9.350834232 -6.104294855)
(22.54182486 18.24026331 -5.603535585)
(11.81851944 -2.236338948 -1.267557198)
(22.66452564 1.389319293 -0.953790528)
(31.9131771 7.825934244 6.176576018)
(27.27237218 6.39945088 -2.048251997)
(13.88184447 5.112262113 1.793611923)
(9.316034401 13.00879114 7.158916456)
(14.76591081 3.819956912 -1.444913994)
(29.12731531 -6.397221826 4.987747386)
(10.65726159 1.094895821 1.075930096)
(85.98160144 16.10654618 -1.598206113)
(126.4024194 26.88254511 -1.565731383)
(102.2444728 11.15467987 5.807607452)
(92.56703186 9.197381366 -0.3988466451)
(76.2844461 21.45111919 8.818956408)
(54.1265584 5.223631259 -4.078747079)
(27.64175593 -3.227990118 -2.268628393)
(32.13358763 16.73760693 7.931295686)
(100.8209064 15.42612765 1.923018232)
(92.13802683 18.72958364 7.060316039)
(57.6434034 6.939296184 -0.9868967606)
(51.53056071 8.977701575 -1.676839477)
(41.01207462 2.829475506 -4.674593572)
(27.18764074 -0.3600970297 5.527240958)
(14.84095081 -0.3705625868 -0.3502386339)
(57.86182387 2.154828057 -0.7586692281)
(41.99445497 4.087648919 -4.124859537)
(57.02039369 8.346829005 -1.453361722)
(11.7666088 0.5230048212 -2.972062687)
(29.21105997 8.258927681 6.662993395)
(13.97933654 12.46105896 -3.136991189)
(35.4105479 3.418577188 8.961046534)
(40.17563284 12.11258148 1.062887742)
(35.62048296 15.26520225 -13.33786245)
(7.989212777 -1.205335923 4.208169943)
(39.26725532 2.338404483 -7.894513461)
(19.8363638 -3.659153287 -3.317625522)
(26.85416615 -0.1417378765 7.173677814)
(16.46249221 8.429542707 2.199021615)
(40.56917131 4.401604502 -8.118503844)
(66.4253396 11.02013105 3.808023681)
(112.52167 20.25979984 -4.566766986)
(127.6781813 30.30009449 -3.67555384)
(104.7081833 23.84325939 1.202601626)
(84.57817967 19.29962363 0.4023443323)
(66.93161728 9.496653551 -1.878192718)
(83.59796593 5.807803175 3.183621829)
(72.27920248 14.29643105 8.10620055)
(43.24330963 7.104322291 -0.3177035746)
(63.55248007 9.048741175 7.015109508)
(33.78738815 3.741387196 2.356386479)
(54.88863795 14.45732654 1.249831898)
(40.78723146 6.590043843 2.276067632)
(50.50179402 1.606345468 -5.896431694)
(44.97450302 10.4426962 1.931347061)
(28.61650366 8.724190932 -4.489397624)
(59.62699384 -1.303113863 0.535792379)
(34.20397377 5.447036959 0.9025095588)
(26.27936433 -0.7876455227 0.04786074779)
(44.73227034 -2.753884953 -3.80998849)
(19.96020941 2.035876553 1.385094656)
(27.75291206 4.73462641 -2.723136645)
(37.62351507 5.495045322 0.6926040749)
(33.37407417 9.249723171 -3.062451651)
(33.10807113 7.877768233 9.518494085)
(44.65913139 10.18217557 -16.27032964)
(22.88696044 -1.2643649 -1.708547928)
(47.9839538 11.88122367 -4.392935214)
(35.72226386 12.8884032 0.03200747311)
(29.02626316 7.546745022 -1.594206888)
(105.4990323 14.091729 2.141059777)
(106.6368242 17.22905194 2.168543409)
(81.63916393 17.34618312 9.596422999)
(71.74022829 16.97522964 -5.495294798)
(101.6721329 19.43610794 10.06906485)
(105.5391858 16.82226719 -5.914983375)
(53.94012681 11.63031998 6.211726578)
(78.03678012 12.3587385 -1.421239887)
(95.71755332 16.48018412 -5.267379012)
(102.4603529 17.39868228 1.363159012)
(79.85089073 4.267713687 -0.3380230369)
(70.33756904 15.36789687 -1.470686625)
(58.09716282 11.77644542 7.265177824)
(83.92847251 14.23706243 -5.376018137)
(46.87085401 1.744499244 2.066227165)
(52.94365331 17.19412127 2.493771444)
(70.24610594 8.835357213 10.3397604)
(74.99872657 9.822716898 -0.6991527124)
(34.37226026 8.440190944 4.142916178)
(56.51093774 9.563584503 -9.035217112)
(9.610118527 3.281777623 1.602043467)
(32.84362185 5.805543711 -0.5987789958)
(47.39126949 4.359539871 8.63082798)
(26.08421693 8.51434224 -0.09258938195)
(21.01555141 6.554965166 -0.2344646644)
(37.09424341 2.885148587 5.012809933)
(40.36075373 6.688085291 -0.7353570862)
(29.78755172 10.82624995 8.04420014)
(13.17360198 10.08921689 -4.457761545)
(42.10886689 5.365878722 -0.2948242235)
(66.43681718 9.840147684 -0.6571060224)
(31.2961497 4.343301742 -3.321587956)
(63.68520823 10.45810648 -1.99328831)
(77.7051473 4.638669937 -2.370698088)
(102.6311516 21.73602818 0.7937779202)
(99.15357604 10.32584494 7.306547158)
(69.44540157 12.82008053 -4.843507805)
(90.68296384 14.17007545 -0.8348546789)
(88.25964781 14.11799489 -1.321729914)
(32.76748273 11.64390761 -0.4907947224)
(63.04435721 8.553939959 1.11692542)
(64.46930013 8.736055069 -0.1823551384)
(108.0057919 23.91106583 8.494005214)
(84.88107149 3.115393132 -0.04816189107)
(51.82003515 3.636784683 3.205182789)
(90.93768257 1.41570276 0.6012129919)
(23.06951725 3.801392448 -0.3821269702)
(39.98241429 3.033320772 -4.09963495)
(65.88055739 13.88953677 7.639847876)
(45.04369721 5.599308392 -3.696860028)
(73.8338602 13.91006431 7.376080223)
(50.45120939 7.925194204 -2.4107119)
(61.45117417 11.28425993 5.030119875)
(58.53689066 19.34884374 -5.429898491)
(16.23052566 9.70134173 -1.436381469)
(22.87978192 2.009392102 2.988625791)
(45.37293868 29.77079469 -1.945738276)
(58.38341758 5.940003144 10.3363865)
(47.54662472 18.84689056 -4.206600987)
(39.54379357 8.130946248 1.113969457)
(52.74030032 5.216508195 1.449182122)
(88.88673287 13.03678767 -7.027698232)
(88.99841448 16.15359189 1.970470064)
(74.88005074 15.44475545 -4.009924073)
(73.30667856 13.29187889 -1.795191362)
(102.4790833 14.26482352 -3.751154939)
(105.2752844 19.18285128 1.692497257)
(109.9887695 20.6387703 -5.086536455)
(103.3680156 22.17762449 -0.5821895655)
(88.11307307 16.37034018 -5.462289138)
(107.254152 18.91749985 4.586480918)
(87.44343022 16.98626365 8.040276066)
(52.39578529 17.37362044 0.4554537839)
(63.33652554 10.01566896 8.112200224)
(74.10053586 14.57207076 2.338855431)
(104.6294456 17.19534976 5.485240925)
(91.60848309 11.12911374 -11.70390535)
(66.43878772 7.778360815 3.247308717)
(70.15627781 2.138584784 -6.032069623)
(73.77246717 2.564575718 3.024432481)
(56.06092732 10.72186277 3.827105253)
(53.12200887 10.89869475 -2.073878868)
(41.29618904 12.95191371 -6.012085925)
(80.29862822 23.89476926 -5.40864188)
(41.82477624 9.813667574 2.888204548)
(67.31761745 5.676769923 -1.601013252)
(56.32841989 14.86389173 -0.2824301661)
(68.35647473 23.88277737 -4.479441463)
(80.42681264 17.16482211 1.161277943)
(85.52984481 23.33698717 9.273536157)
(103.7946437 17.44718584 -3.221133704)
(48.62995323 6.947273132 4.819757119)
(77.71117538 11.80651633 -2.714394456)
(101.6429644 9.80548227 -1.646353112)
(100.6855279 22.53259947 -0.3512369397)
(125.6628454 20.34504332 -2.496273335)
(86.62395637 15.79173816 2.107012006)
(122.0294088 24.26132308 1.413098171)
(118.1344255 33.6566007 -3.432144965)
(88.27400857 28.12098549 -1.317158782)
(74.20327554 14.48262923 0.7564989029)
(88.54692253 21.17380603 -4.406792579)
(111.7084044 28.42914031 -1.854455905)
(102.886417 20.56033715 -2.310324577)
(132.2770425 20.3798192 3.862025622)
(89.16280401 11.20669313 7.780213008)
(93.17920352 21.61385105 5.764969635)
(92.23942818 14.39971077 3.273422213)
(67.34818891 14.38274764 -0.1139978186)
(59.11761938 7.564524938 5.1255546)
(63.52332225 0.9636267836 0.5489906061)
(39.29212402 3.710934136 1.59648665)
(53.23140119 8.976107452 -3.187253173)
(33.16153827 11.84752216 -3.748780622)
(62.85887144 9.741502412 -1.811144942)
(112.8800178 10.25017512 -0.3688080485)
(78.11093809 16.19518619 -10.33440227)
(45.50743917 11.58596671 -6.356412043)
(42.67144646 8.057177766 3.947511115)
(55.56649847 15.01873886 6.047724383)
(83.56341658 16.16335274 -2.979789428)
(133.7025284 18.56506766 3.979361208)
(101.8669346 10.72525971 0.4272722487)
(109.4845694 17.67084999 5.347942548)
(101.1186629 16.20835192 0.3628826327)
(106.9628836 8.71528612 11.76828814)
(129.1067935 27.85571031 -0.8406897496)
(63.19945227 14.90473911 1.652176483)
(106.4852683 17.97246481 -0.04504624701)
(68.37457027 12.87294652 4.333437171)
(104.910266 22.18455213 -2.989614483)
(118.1138442 20.11117963 1.000627122)
(133.6113249 33.38910187 3.133278691)
(190.017408 33.40095149 4.386700098)
(162.7370623 34.02895372 3.495567455)
(138.1328067 35.59711254 2.467437754)
(103.2746598 16.66560844 2.740304534)
(84.87884905 12.31085848 -0.7158302165)
(103.7772426 12.5542693 -0.9025097014)
(59.14740389 9.452059222 -3.151573725)
(79.25742432 12.53494543 -1.216665638)
(61.71601138 7.131852593 -0.04812206321)
(86.57054595 10.11589479 4.029622524)
(19.88882794 2.165418907 2.566956515)
(102.6862116 8.455855665 -3.187488494)
(44.70879103 16.28810153 9.909682507)
(70.40153974 14.19758349 -2.78158222)
(19.14660772 11.64998832 -4.350232489)
(77.57712001 12.20306081 3.388171127)
(108.4622902 25.50668925 -1.938600408)
(34.93774934 6.639738612 -1.204353822)
(137.5256593 29.69375544 -2.532757102)
(90.83774181 16.59624996 1.939145273)
(99.24830572 19.79221075 1.098636852)
(62.06985784 12.34028421 -5.176863595)
(79.18840534 13.78484353 -7.513452952)
(119.6265036 22.57778952 -12.90178027)
(76.13462401 17.74415704 -7.321898076)
(115.272009 25.39974679 10.45498397)
(87.18241164 7.158339462 -1.497083772)
(93.99893626 25.68535873 -1.30860397)
(57.1955567 1.855744215 2.584892348)
(82.82627932 4.997396452 0.01588900001)
(112.6362841 19.67563865 -5.686773318)
(96.10836402 24.38148983 -0.2850281582)
(103.5271682 14.66299571 -0.8915347536)
(57.45714669 9.272316252 1.068771406)
(97.17546732 27.37565349 -0.6071273283)
(127.8597775 32.3834643 -0.4004128523)
(77.43209563 17.82384614 -5.216007464)
(54.27946591 19.42059519 -1.507109073)
(102.0348825 14.84290824 0.6075771365)
(56.98547544 9.669155087 -2.652616068)
(118.9229002 22.59926661 5.770493268)
(40.54457745 -0.03037635254 1.544494331)
(110.0650378 13.16706227 9.601969437)
(70.5627788 7.410279932 0.4925297564)
(100.3559443 10.05030466 -11.64566589)
(52.34158457 9.595983057 2.19694744)
(40.52577197 10.77199692 -0.8525590923)
(95.40801116 7.637191911 5.850905646)
(53.29813787 3.306742895 -4.01743037)
(64.19336241 5.733756922 7.9091657)
(95.27144945 19.00566742 -1.117759382)
(85.43618518 8.985328288 1.751629928)
(96.16772006 15.58108383 -2.128574362)
(55.80378601 13.21088514 -2.604695147)
(109.5556604 18.0406178 -2.066569502)
(124.8769881 16.00269572 -4.255104999)
(71.9684119 15.11198909 2.32573478)
(78.37276541 12.75859906 3.693655825)
(114.0336906 7.240313495 0.3084260062)
(82.28281922 5.488439981 2.572841964)
(114.0756491 19.51743595 -3.155797748)
(89.56406175 17.90259661 3.92077855)
(121.2757322 14.52513078 -9.071218422)
(70.37437555 11.98365864 -1.242336402)
(139.8313818 31.99106185 -4.441873892)
(95.19634201 15.71264978 -2.459092218)
(66.46850935 11.68163314 -4.670859827)
(54.19602711 12.33872459 5.261091986)
(48.69523278 8.330048464 -0.7791279173)
(70.70879797 10.12916339 -2.181671447)
(103.7949371 10.73271397 3.309007072)
(59.85732408 1.955823561 -0.6365438046)
(64.09899191 9.916668257 -2.340291066)
(50.59131045 9.265518571 2.639377014)
(60.04422187 10.1488365 -2.403047459)
(53.10743934 14.2075552 6.811132856)
(127.2320597 21.96146626 -0.2150502513)
(78.29484552 10.86337961 -3.397498533)
(79.17896904 3.45228602 -2.589934553)
(78.29089669 9.306403792 0.5591308524)
(103.9311593 11.60594039 4.479595815)
(71.53769855 5.852938289 7.540195114)
(51.90386526 12.12729335 4.091028463)
(97.06601202 14.81383131 10.59239962)
(56.64798002 3.299511751 -2.134250055)
(87.62220327 8.181710987 0.6835860056)
(83.199987 7.576023884 3.180926002)
(55.12417359 9.24416972 2.424562293)
(74.69441343 13.86473034 -1.24132146)
(115.1813163 20.97777916 -0.3385513752)
(89.87891923 9.87839888 7.66069658)
(106.8457552 22.37041604 0.8067576181)
(107.6885034 20.776057 -3.022817212)
(98.18010266 17.34595074 -2.398233826)
(111.3176891 19.99465935 -6.982486469)
(124.022533 27.64581234 -0.8653077111)
(55.66966495 7.999463886 -0.1095452986)
(75.64604503 16.10808862 0.8839152938)
(100.7976783 18.79210778 -3.377407778)
(81.37779509 11.68746187 -7.391557015)
(58.9554719 6.408171113 0.06570909562)
(85.41382578 13.08987422 -2.761800863)
(90.44248453 12.4978997 -4.129836752)
(82.61237172 12.93118317 2.469128939)
(119.4838988 24.43260574 -1.314497047)
(64.98872515 17.87505466 -1.622269532)
(64.42887441 16.80599438 -4.795158253)
(113.1844241 15.86514699 5.776375625)
(71.8227467 13.00822925 -9.514387644)
(96.97364223 13.62463836 0.9807040614)
(50.94995271 4.341405081 -2.546629896)
(76.53838514 13.88610392 -2.916157571)
(90.17222535 17.03209795 2.751284287)
(108.3384201 10.49812957 -1.664528286)
(101.9458834 16.8835742 0.7538551206)
(77.97193686 11.54846995 -0.07718293079)
(68.08549142 13.51653754 -3.091697205)
(131.2722695 25.66856796 -10.51505336)
(83.71987625 11.05619244 -3.122472037)
(108.9964764 14.77230843 2.932636854)
(61.86735356 9.609770088 -0.08899822232)
(63.58303094 9.726042378 -2.620161129)
(73.06880399 12.61920985 -2.264002326)
(65.66077002 14.32894874 -6.203946298)
(92.06045959 31.81907368 -2.30597933)
(106.7875572 18.74965635 -2.739461439)
(60.03478987 15.79496573 3.609931903)
(127.4779631 19.30649349 -2.595514802)
(83.58288529 13.77685064 1.122400481)
(90.59449076 25.10153154 -0.6762875989)
(95.25953395 21.51431532 -6.749929146)
(105.0550025 21.88485705 2.272807041)
(84.41966006 13.08505846 -1.054289758)
(86.76983963 14.19436669 3.590205449)
(117.8084495 12.15252285 -1.058823076)
(71.15288605 4.907656645 -2.362322355)
(94.88405929 22.72846036 5.958615406)
(106.3589538 15.33897566 3.862763933)
(102.7435641 14.19983128 1.349273997)
(60.01313922 4.687737921 3.962845249)
(57.33672671 10.17933977 -0.1896216601)
(100.2108318 15.09297137 5.088394346)
(85.96934309 8.613792176 -5.195804596)
(56.77246281 8.581412159 -1.1381437)
(79.44483457 6.575122344 4.648223374)
(145.4873803 19.10428243 -3.637288611)
(35.57781701 5.758545058 2.813393157)
(74.54114696 11.38608531 -0.3188007527)
(61.0722998 3.277289372 3.011150818)
(51.28131015 7.812529971 -5.169949683)
(61.57245833 11.44520883 -3.393712282)
(87.57068882 20.30243391 1.379799229)
(90.53478885 22.75353681 -0.626983248)
(82.42741651 18.89561297 -4.632603802)
(131.9871366 22.70228791 -0.7409053255)
(86.48733417 11.62696911 3.307999792)
(120.8498618 23.82046617 -1.623127179)
(116.0639898 23.19125355 -1.714908827)
(183.6110593 28.89665198 -7.015056251)
(94.3538286 17.65256121 4.469084246)
(63.95057757 7.406706533 4.903414548)
(84.71922498 16.09136483 0.06325671754)
(89.13214069 7.204369657 -3.788985457)
(75.08585996 14.79854363 0.08832104374)
(110.998522 22.05543109 2.286469137)
(80.25737233 11.81261156 0.6054272054)
(108.8822904 15.64073666 -0.01935661207)
(76.90346421 20.20562202 7.382936811)
(47.02747366 8.650175922 4.087624858)
(84.95465914 12.94717731 -3.300254365)
(67.72460212 15.54825154 -0.5208530401)
(72.72560329 6.037911286 7.289025014)
(88.66407055 15.2256448 -3.87223955)
(86.38632454 13.58759954 -1.792599118)
(64.5933407 12.65231034 3.582661511)
(96.93404186 7.876963659 1.085961951)
(116.1181298 14.560953 -2.6651543)
(87.63701976 14.47508004 -0.2338936997)
(111.6733249 15.17980117 0.1974912609)
(118.1644331 16.12246707 4.950981317)
(70.91673608 8.242515816 0.6830143672)
(88.84168209 15.65178203 1.788882234)
(66.43435043 18.8605416 -5.449622843)
(116.2014954 27.43917092 1.075247372)
(107.1202312 28.10955075 -7.291199784)
(106.404839 23.34822353 -1.589359705)
(92.54198919 12.97209083 7.313848668)
(141.1013442 22.09449631 6.544328367)
(142.3787401 20.65448342 1.905299543)
(164.5146104 27.93935496 2.564806701)
(129.6068041 20.63685608 2.939830336)
(158.5274855 26.50055914 -6.610150545)
(160.6507269 27.89219399 -0.1865144012)
(161.3526872 26.22433206 1.420061214)
(84.8510638 12.51262542 11.86278898)
(103.163935 11.99684389 5.996364439)
(106.7399764 19.947953 -1.160931135)
(74.87842892 5.336263907 -2.0009198)
(68.9118503 7.825473537 -1.185218638)
(97.97889287 17.69736194 -6.679138537)
(67.97343639 8.042084166 1.400575888)
(41.22464063 1.435561192 3.33079026)
(72.88176132 16.85332012 3.145150891)
(73.36491203 12.80611186 2.151229151)
(68.49666239 12.11351337 2.02158648)
(78.27352508 10.59849909 -2.148683701)
(156.4550343 18.18441801 -1.392604855)
(93.41313435 10.81325241 1.296251908)
(66.7709355 11.61570069 -0.2405319839)
(56.62149803 4.36473968 7.442885339)
(56.82363063 8.803862735 1.029021899)
(78.51521302 5.983740081 -8.124476456)
(100.6144026 19.43926627 5.919377516)
(55.66380654 9.477047534 2.967899461)
(92.88181037 13.05739101 2.53803865)
(71.65511309 12.64617898 -2.662031894)
(87.18335377 7.619212186 -0.2471445527)
(122.3376939 20.12141261 2.648116935)
(89.50394827 27.68027987 -2.938073066)
(135.0994981 35.55067835 0.1489027051)
(96.75151289 15.26592134 0.9886313428)
(93.7558485 15.63725981 2.375894715)
(133.5287396 22.15963928 7.39233217)
(83.87651681 16.87507794 -4.628114724)
(144.0717124 28.1547037 -2.514222122)
(72.99959696 18.80804289 0.1177053596)
(78.89809944 11.92881272 -2.899857213)
(92.50669414 16.33307787 -0.5692956126)
(75.64737779 11.72028592 0.04428936272)
(91.13300618 8.586908724 4.403604737)
(42.89898193 3.731766661 -2.745615256)
(55.94216862 11.49532039 -7.278262532)
(96.2016326 13.53680531 -6.354317724)
(83.56170696 14.35460204 2.278226583)
(92.96040702 13.15673358 0.7889107489)
(87.7149691 9.729502082 -3.249267924)
(95.97086721 16.5078905 -4.608237792)
(111.192891 12.73857812 7.544160032)
(92.60233087 8.558306687 0.0894575779)
(89.7960792 14.82809907 -0.8946227506)
(62.89204644 6.420402876 1.995315795)
(41.58754791 5.747373159 -0.7198631354)
(100.9096367 15.52384553 1.402697353)
(123.3897233 19.69882608 1.711726134)
(76.4824599 13.0714188 1.316403266)
(126.6197637 15.54685452 -2.380257094)
(69.49231565 9.030792723 -4.913099144)
(77.15648754 9.06855185 -1.159680079)
(93.76935094 13.71348712 1.37266318)
(94.43684842 17.57570911 -4.260763896)
(122.9811821 29.39773032 -0.6476136141)
(64.99417489 14.66249496 5.034795496)
(134.3124934 24.10895455 1.470725237)
(112.8405031 24.8516189 1.613369039)
(119.1731727 13.89960929 6.072498193)
(127.1644495 15.1593604 -5.238204829)
(74.79414343 10.40214621 -5.918069807)
(91.2907931 16.31818635 -5.712483431)
(112.7887549 26.42058366 -6.502132152)
(68.31608761 10.32793136 -0.8214558678)