/*--------------------------------*- C++ -*----------------------------------*\
| =========                 |                                                 |
| \\      /  F ield         | OpenFOAM: The Open Source CFD Toolbox           |
|  \\    /   O peration     | Version:  v1912                                 |
|   \\  /    A nd           | Website:  www.openfoam.com                      |
|    \\/     M anipulation  |                                                 |
\*---------------------------------------------------------------------------*/
FoamFile
{
    version     2.0;
    format      ascii;
    class       volScalarField;
    location    "6e-05";
    object      rhoMMean;
}
// * * * * * * * * * * * * * * * * * * * * * * * * * * * * * * * * * * * * * //

dimensions      [1 -3 0 0 0 0 0];


internalField   nonuniform List<scalar> 
1300
(
0.0081472
0.0084798
0.02433233333
0.06256786667
0.03445093333
0.0252844
0.036643
0.03763813333
0.03110713333
0.02986766667
0.0095648
0.010716
0.03325506667
0.109661
0.05302726667
0.03110766667
0.05282653333
0.05621446667
0.03903313333
0.03726246667
0.0043836
0.0047824
0.0317508
0.1104580667
0.04999346667
0.02473113333
0.05563913333
0.0706494
0.04552213333
0.041934
0.004339466667
0.003409466667
0.0274544
0.1013588
0.04645213333
0.0277434
0.05980206667
0.07394906667
0.0502814
0.0477578
0.001727066667
0.0025462
0.0258818
0.1040610667
0.05154293333
0.02780906667
0.0532248
0.06971993333
0.05282813333
0.0496388
0.002103266667
0.001129133333
0.02488613333
0.1051665333
0.0484214
0.02289266667
0.0571224
0.06613446667
0.06006793333
0.04990413333
0.001284133333
0.001749133333
0.02395613333
0.09978673333
0.04498933333
0.01669426667
0.0511888
0.05884946667
0.04862106667
0.04481226667
0.0006862
0.0011512
0.02946886667
0.1038829333
0.0441718
0.02386733333
0.052361
0.06710753333
0.04569813333
0.04244313333
0.00062
0.001594133333
0.02692266667
0.1065179333
0.04490053333
0.0267456
0.0522512
0.06352046667
0.04888586667
0.0435276
0.000155
0.000775
0.0240218
0.1031526
0.0437278
0.02351266667
0.04961673333
0.06648806667
0.04607433333
0.03874573333
0.0003320666667
0.0009741333333
0.02605993333
0.1041934667
0.04552106667
0.0233356
0.05134433333
0.0649386
0.04534346667
0.04512386667
0.000155
0.001262066667
0.0279856
0.09934433333
0.04563246667
0.02103373333
0.05371346667
0.0636098
0.0463402
0.04771313333
0.0001770666667
0.001439133333
0.02393353333
0.1051439333
0.0464516
0.02368973333
0.0498164
0.07084906667
0.04490106667
0.04304213333
0.000155
0.00031
0.0259932
0.1053882667
0.04350606667
0.02251646667
0.05136533333
0.06655426667
0.0429302
0.04330746667
1e-277
0.0008191333333
0.02710026667
0.0964666
0.04647313333
0.0236908
0.04773466667
0.06553546667
0.0509224
0.03896746667
0.0001770666667
0.0009741333333
0.0275432
0.1075593333
0.043949
0.0240234
0.05457566667
0.0654036
0.04749193333
0.0446788
1e-277
0.00062
0.02926973333
0.0973514
0.04310726667
0.02510733333
0.05234053333
0.0605986
0.0441928
0.04454693333
1e-277
1e-277
0.02590493333
0.1028420667
0.04279833333
0.0279856
0.0515424
0.06279013333
0.04813346667
0.04273053333
1e-277
0.001085
0.02931386667
0.1038388
0.04569866667
0.0260158
0.04514433333
0.06467273333
0.04766846667
0.042554
1e-277
0.00031
0.02645766667
0.09845686667
0.04040713333
0.02816213333
0.05019206667
0.0646722
0.04926366667
0.04664966667
0.0286871902
0.02405457838
0.02556804921
0.02212217296
0.02175688826
0.01874768424
0.02316130088
0.02500282448
0.02031612327
0.02235846569
0.02215808619
0.02485785307
0.02345300133
0.02243204958
0.0240004888
0.02677252164
0.02679025848
0.02460206605
0.02784800229
0.0225778998
0.0254230776
0.02710101412
0.02735592231
0.02403684153
0.02930694382
0.02664440825
0.02832234499
0.03286275687
0.03293546206
0.0402855777
0.03368420772
0.03065638761
0.02647994257
0.02704604572
0.02279601618
0.02518546694
0.02341620929
0.02370790954
0.02711875118
0.02307041906
0.02337985637
0.02213947071
0.02615232871
0.02341664841
0.02753812548
0.02655264804
0.025149114
0.02513049854
0.02675390597
0.02790209185
0.02689975619
0.0277385048
0.02770215184
0.02711875118
0.02467521081
0.02930738289
0.03034738967
0.02906977247
0.02673616869
0.03311942251
0.04302081851
0.04207301137
0.03444937226
0.03244382187
0.03167733916
0.03056550604
0.02790297069
0.02655352644
0.02967178903
0.02795706048
0.02757403867
0.02660849506
0.02483835879
0.0252586115
0.02618824214
0.02469294788
0.02624321031
0.02879580908
0.02979946289
0.02868762928
0.02921518339
0.02861448474
0.02814014181
0.02638862145
0.0265162953
0.02620641828
0.02792114705
0.02737409889
0.03175092323
0.02963587561
0.05524027755
0.05068168889
0.04236559078
0.04141646606
0.04094212302
0.03366559206
0.03445025088
0.03415767154
0.03007342628
0.02808517364
0.02750133322
0.02653447167
0.02686384277
0.02907021154
0.02653491098
0.02784844159
0.02671711371
0.02598786282
0.02877807203
0.02826737636
0.03302678346
0.02735592253
0.03032833444
0.03093035125
0.03167821803
0.0290883879
0.03021839789
0.03284458051
0.03262602456
0.03085764579
0.06384807652
0.05500442367
0.04885790256
0.05203069404
0.04428025898
0.04043230654
0.04189080876
0.03875349108
0.03574472652
0.03262690344
0.03175092323
0.03273596163
0.02919832495
0.02812152614
0.02781164956
0.02899750632
0.03271734568
0.02781208887
0.03175092349
0.0279397625
0.03031015832
0.03253470369
0.03060229783
0.03124022806
0.02950688383
0.03430396107
0.03457704612
0.03189677371
0.02865039793
0.03244426118
0.05385360216
0.06598173953
0.05604311274
0.05354460397
0.05141094
0.04962306709
0.04482686819
0.04396994286
0.0397212318
0.0409789154
0.03621906892
0.03791518211
0.03402999795
0.03614636347
0.03182406826
0.03352018114
0.03269916932
0.03105846442
0.03313672026
0.03069274034
0.03310036753
0.03078406172
0.03291860362
0.03182362895
0.03366559206
0.03180545232
0.0331735123
0.03406722931
0.03284458024
0.03605504263
0.05064489727
0.05582411728
0.05803004745
0.05556877003
0.05310661355
0.05525801461
0.05011602547
0.04696053136
0.05131874067
0.04676015243
0.04402447195
0.03981079569
0.03714869964
0.03680246981
0.03581787128
0.03720322874
0.03280910612
0.03809738506
0.03218847416
0.03277275339
0.03667479625
0.03423081658
0.03567158146
0.03424987156
0.03481509609
0.03350156519
0.03322760208
0.03450477997
0.03578107895
0.0290511568
0.05254138947
0.0534532824
0.05899690922
0.05456643414
0.05870608691
0.06379354743
0.05751935202
0.05338057694
0.05312435105
0.05146546951
0.04893016831
0.04858393917
0.04734443194
0.04150910478
0.04203665899
0.04021331155
0.03496094602
0.03986576409
0.03614636376
0.03262602456
0.03519767835
0.04003066929
0.03452295605
0.0361281874
0.03764121872
0.03755033658
0.03282728276
0.03899110206
0.0369664964
0.03705825713
0.05356321964
0.05321611105
0.05006061777
0.05777557834
0.05551380117
0.05649927907
0.06237227654
0.0581218074
0.0580127497
0.05482090324
0.04922230806
0.05277812151
0.04559247203
0.04812689383
0.04765343013
0.04537435566
0.04274773339
0.04201892193
0.04041369087
0.03807964768
0.03904563116
0.03975714521
0.03709417025
0.03984846634
0.03961041638
0.0404318669
0.03773166123
0.03393955544
0.04453516738
0.03616366151
0.04539253203
0.05467461326
0.04792739352
0.04765430875
0.05221289656
0.05492996143
0.05810319222
0.0554051823
0.05772104926
0.05972659964
0.05318019763
0.05841394763
0.05644474998
0.05031728299
0.05124647452
0.04641392289
0.04871117332
0.04305804985
0.0473076399
0.04438975647
0.03857172776
0.04059677243
0.04148961048
0.03756807395
0.04367868208
0.03771436317
0.03953858953
0.03990211682
0.04409717741
0.03882663617
0.04861941329
0.05288805788
0.04934998233
0.04982388572
0.05155722953
0.04927639825
0.0546391396
0.05303346879
0.05620713932
0.06107560437
0.06076660567
0.05810363152
0.05540518275
0.05693551135
0.05235962582
0.05068124999
0.05598814387
0.04880293417
0.04696097106
0.04785468767
0.04240106489
0.04856576281
0.04389679809
0.03908242319
0.04344151073
0.04329566015
0.04448107797
0.03758712893
0.04159954729
0.04448063866
0.04681512083
0.05319837399
0.05090024499
0.04643165995
0.05099112639
0.05338013807
0.04769066148
0.04984250098
0.05576914935
0.05606084979
0.05861476578
0.05770243358
0.06136818343
0.05669921862
0.05372636761
0.0560063207
0.05252321267
0.04891199235
0.05122785885
0.04858349947
0.04962394571
0.04424346731
0.04924092373
0.04537523428
0.04318484509
0.04648662797
0.04032236974
0.04269408325
0.04590278777
0.03893613366
0.0490941953
0.05022552255
0.04849261804
0.04829267804
0.04830997538
0.05356234103
0.04944086414
0.04480869146
0.05635298954
0.05022464435
0.04985979873
0.05677236384
0.05803092606
0.05897917168
0.05525801461
0.06085704869
0.05372680648
0.05020690729
0.05206660746
0.05206704634
0.0482009176
0.04759890104
0.04617675116
0.04785380944
0.04583052201
0.04272911771
0.04502768682
0.04510127089
0.0477261352
0.04428025934
0.05137414838
0.05544065641
0.04497403634
0.04395132755
0.04893016831
0.04987929342
0.04940495073
0.04351377653
0.04951400891
0.05372768554
0.04583008231
0.04909507391
0.05538700638
0.05040728619
0.05994647324
0.05618896296
0.05848709192
0.06098472255
0.05644431067
0.05489448687
0.05011558617
0.05268723969
0.05256044402
0.05091754274
0.04624989631
0.04865708354
0.04860167623
0.04710638197
0.04659568615
0.04258458576
0.04542888475
0.05151999818
0.0514650302
0.04787242511
0.05195842746
0.04871161303
0.05035231821
0.05051722299
0.05210427811
0.04626763336
0.05126465046
0.05071804203
0.0548931694
0.04774519017
0.05425567872
0.05655380816
0.05263227086
0.06231642953
0.05675374817
0.05666286588
0.05492996143
0.05184849109
0.0541825335
0.05363548579
0.05513034075
0.04754481086
0.04849217874
0.050262315
0.04420711421
0.05141006181
0.05252365242
0.05454825733
0.04717908743
0.0487297894
0.04887607852
0.051993902
0.04579372996
0.05013464073
0.05345284353
0.049149603
0.04732669449
0.04626807267
0.04849305735
0.04889425489
0.05348919626
0.05239509994
0.05195842746
0.05587908615
0.05520392482
0.05903414008
0.05813954494
0.06014553464
0.05463957846
0.04592096452
0.052687679
0.05069986525
0.04650436541
0.0501523782
0.05166628771
0.04655977311
0.0452462425
0.0517208168
0.05518574845
0.04480913114
0.05058948914
0.05091842135
0.05381812805
0.0490396658
0.04942224847
0.05217654426
0.05219472019
0.05270453744
0.05290623468
0.04610360639
0.05230421812
0.0522683047
0.05069942595
0.05203069403
0.05520348551
0.05445605759
0.05646248703
0.05611493957
0.06299159034
0.05746570154
0.05903370126
0.05919772736
0.05514851711
0.0497330039
0.05330743218
0.05179352269
0.0476716065
0.04597593254
0.04597593292
0.04843764965
0.04918551602
0.05058948956
0.04818318054
0.04652210208
0.05177578563
0.04951444822
0.05666198727
0.04776292762
0.05234013154
0.05151955887
0.05197572563
0.05299579858
0.05341692967
0.05387265714
0.04869299736
0.05130100319
0.05569644389
0.05514851711
0.05575053322
0.05589638389
0.05660789795
0.05341692967
0.0589609958
0.05595179161
0.05509486618
0.05024326002
0.04555655862
0.05544109571
0.04686964992
0.04130696857
0.04524668144
0.04982388572
0.04701550015
0.04933092693
0.04648662835
0.0484004183
0.04657794909
0.05018873093
0.05150182224
0.04976891691
0.0476170774
0.05463870029
0.04922142945
0.05451058713
0.05427253716
0.0510820082
0.05454693986
0.05412888348
0.05279629744
0.05367139922
0.05182987541
0.05741073266
0.05631619751
0.05733714906
0.05706406382
0.05695412749
0.05301529286
0.05168402476
0.05172081723
0.05310617468
0.05000696688
0.04659568654
0.0502069073
0.04572102413
0.04411623275
0.04650480472
0.04626719367
0.04690644196
0.04648618905
0.04996973553
0.04615857518
0.05130100361
0.04825544629
0.04705229219
0.05449285007
0.04663247819
0.05330655401
0.04947765618
0.04861985219
0.0520488704
0.05483907961
0.05235830747
0.05460146895
0.04918683435
0.05133779523
0.05609720252
0.03214746667
0.03841366667
0.03172766667
0.02234046667
0.02993386667
0.02652493333
0.0262806
0.0264582
0.02747593333
0.02169733333
0.04073813333
0.04188933333
0.0377716
0.03509246667
0.03770433333
0.03606606667
0.0351366
0.0333218
0.0280082
0.031993
0.03418506667
0.03451713333
0.0353142
0.03604506667
0.03507093333
0.03602246667
0.0362006
0.0331668
0.02995593333
0.02734406667
0.0303316
0.03166146667
0.0379702
0.03865693333
0.03779473333
0.03739593333
0.03478246667
0.034628
0.0325242
0.03307853333
0.03227986667
0.03057593333
0.03186006667
0.0360004
0.0366866
0.0368416
0.03801486667
0.0357566
0.03431746667
0.03668606667
0.0326792
0.03467213333
0.02969006667
0.03684213333
0.0362216
0.0367754
0.04100453333
0.03646486667
0.0413592
0.03887866667
0.03236973333
0.03181646667
0.03670813333
0.03141766667
0.03453973333
0.0374616
0.03832486667
0.04202333333
0.0380154
0.0411364
0.0363992
0.03569093333
0.03420713333
0.0334316
0.03451713333
0.0378378
0.03241386667
0.0362216
0.03639973333
0.03830226667
0.035248
0.0393216
0.03825866667
0.03495953333
0.03624473333
0.03666453333
0.03907833333
0.03287833333
0.03549126667
0.03947713333
0.0365316
0.0418678
0.0412704
0.03808213333
0.03642126667
0.04399313333
0.03524693333
0.03852506667
0.03916766667
0.0369966
0.03870106667
0.03998573333
0.04441346667
0.04255346667
0.04036193333
0.04100453333
0.04053953333
0.04186833333
0.04452486667
0.04031833333
0.04180213333
0.0424216
0.04421486667
0.04171333333
0.0429528
0.04005246667
0.04200073333
0.047225
0.0373292
0.04259866667
0.04111433333
0.04667173333
0.0444576
0.03721833333
0.03991846667
0.04113693333
0.041469
0.039278
0.03847986667
0.0412704
0.04374986667
0.04884173333
0.04585313333
0.045964
0.04372726667
0.04262126667
0.04784606667
0.04186726667
0.0409814
0.04631813333
0.046584
0.04115953333
0.04388173333
0.04490106667
0.04583106667
0.04408193333
0.04625086667
0.04067246667
0.04651673333
0.04607486667
0.04833313333
0.0462514
0.04837673333
0.04862053333
0.04720293333
0.0475576
0.04554313333
0.0466938
0.04363846667
0.04257606667
0.05366826667
0.05214086667
0.0483552
0.05191913333
0.04443606667
0.04941813333
0.0464064
0.0474914
0.0480452
0.0493288
0.05424413333
0.04868673333
0.05220653333
0.05296053333
0.04757966667
0.05455306667
0.05048053333
0.04977173333
0.05216293333
0.0451002
0.0538674
0.05061346667
0.05203
0.0516328
0.049085
0.0487976
0.04833366667
0.04516586667
0.05229533333
0.04924106667
0.05504173333
0.05411173333
0.0522286
0.05424413333
0.0469166
0.05349173333
0.05174206667
0.04616313333
0.049839
0.04797793333
0.02199264625
0.02825852515
0.02065766584
0.02363645507
0.01905857824
0.02473179993
0.02418439134
0.01826942338
0.01973751283
0.02067897117
0.02216889325
0.02056980607
0.02041697492
0.0191017166
0.02072263722
0.01995689841
0.02608914078
0.02392081203
0.01894888564
0.02133607234
0.02479782668
0.02199370162
0.02389950646
0.02725156803
0.02214706045
0.02698851613
0.02648530154
0.0272073743
0.03093270743
0.02937517563
0.02475601878
0.02595693044
0.02735129846
0.02475550204
0.02981777953
0.02381167002
0.02385391381
0.02499120143
0.02863824817
0.02951742265
0.02971087822
0.02990381761
0.02692162624
0.02301749963
0.02788683851
0.02479877931
0.02696490324
0.02784511147
0.02773717667
0.0266854096
0.02936724407
0.03144784721
0.0292170652
0.03513817097
0.03029021257
0.03095610087
0.03232805518
0.03646891469
0.03616804043
0.03719739385
0.02181423795
0.02961199781
0.0255971562
0.02811927044
0.0312089487
0.02265561769
0.02233991045
0.02295037882
0.02418973089
0.02664850119
0.02517722546
0.0269626897
0.02322267574
0.02265561748
0.0269626897
0.02631235429
0.02572384384
0.0257866818
0.02774123174
0.02366405817
0.02803548684
0.02933868889
0.03112465884
0.02889781248
0.02708988384
0.03139847429
0.0324906989
0.0346342682
0.03410960787
0.03585267415
0.02059780321
0.02603527769
0.02953708806
0.02729200243
0.02286292131
0.02026785334
0.02352182894
0.02457227251
0.02512952831
0.02323392907
0.02792988459
0.02385078648
0.02646787199
0.02377065557
0.02591160875
0.02834195008
0.02512903192
0.0262405663
0.02315181372
0.02570532781
0.02910399784
0.02762095998
0.02887768421
0.02731253127
0.02863084227
0.02891874188
0.03526345498
0.03551029718
0.03814642267
0.03520087614
0.01983191246
0.0278902495
0.02849603736
0.02471944238
0.02368950593
0.02667818806
0.0203365733
0.02253880138
0.02118487054
0.02673857223
0.0253453578
0.0244970608
0.02512248998
0.02296246351
0.0265770613
0.02766786818
0.02916220886
0.02381076097
0.02324522947
0.02177101637
0.02114461443
0.02433603635
0.02831391163
0.02766786818
0.03101982807
0.02849555062
0.03344395144
0.03180774113
0.03608948312
0.03966382492
0.01937270477
0.02612688933
0.02266143251
0.02781217019
0.02632717857
0.02355271365
0.02509788723
0.0258702352
0.02575130252
0.02264121273
0.02268117494
0.01796668389
0.02301727694
0.01972950334
0.02608788148
0.02622703419
0.02824793918
0.02921819106
0.02426535681
0.02248279436
0.02674177394
0.02432506185
0.02684096398
0.0271385351
0.02947579952
0.03300048415
0.0302284051
0.03311989453
0.03442767913
0.03866596187
0.01856175503
0.02855157135
0.02258573841
0.02437401939
0.02522918221
0.02730897499
0.02126425048
0.02371304113
0.02128362216
0.02311017831
0.02513138742
0.02283803842
0.02462585121
0.02604513368
0.02456773618
0.02600639055
0.02655067011
0.02435417951
0.02077761754
0.02680343832
0.02734678195
0.02684171372
0.02765860135
0.02968027912
0.03150636708
0.03197175527
0.03049529421
0.03203080699
0.03663781318
0.03809537136
0.01913579595
0.025201681
0.02031790655
0.0245148645
0.02258889374
0.02216919814
0.02279897162
0.01987919617
0.02285647443
0.02407661385
0.02218821237
0.02140632377
0.0272820649
0.01963154924
0.02541083976
0.01961207542
0.02203517793
0.02255040555
0.02153896511
0.02360033417
0.02211123578
0.02712903046
0.02737713673
0.02943712755
0.02985682335
0.0298183347
0.02844562065
0.03224143765
0.03853687424
0.03735476397
0.0153417927
0.02453994156
0.02236744289
0.01948232196
0.01918224666
0.02405226326
0.02246079333
0.02212382907
0.02143032854
0.02135519694
0.02319118279
0.02114982597
0.02193622589
0.02195444455
0.02701251579
0.02536323062
0.02472754493
0.02320940183
0.02272262581
0.02483956545
0.02738727127
0.02463329221
0.02946596822
0.02969091202
0.02701296703
0.0297100331
0.0286048882
0.02985894281
0.03639736544
0.04031204898
0.01574963747
0.0249313302
0.01724077823
0.01933795979
0.02123297984
0.02154561265
0.01834460466
0.01838128053
0.0208098761
0.020423005
0.02312755684
0.02329392878
0.02244727774
0.02586967131
0.02160018347
0.02235514446
0.02286993825
0.02419559387
0.021196304
0.02616440914
0.02288916288
0.02439731199
0.02391919384
0.02870303285
0.0318306888
0.02844497081
0.02905234151
0.02861045637
0.0368721459
0.03442521277
)
;

boundaryField
{
    inlet
    {
        type            calculated;
        value           nonuniform List<scalar> 
20
(
0.0081472
0.0095648
0.0043836
0.004339466667
0.001727066667
0.002103266667
0.001284133333
0.0006862
0.00062
0.000155
0.0003320666667
0.000155
0.0001770666667
0.000155
1e-277
0.0001770666667
1e-277
1e-277
1e-277
1e-277
)
;
    }
    outlet
    {
        type            calculated;
        value           nonuniform List<scalar> 
70
(
0.02169733333
0.031993
0.02734406667
0.03307853333
0.03668606667
0.03887866667
0.0411364
0.03830226667
0.03947713333
0.0369966
0.04031833333
0.04259866667
0.0412704
0.04631813333
0.04607486667
0.04257606667
0.0493288
0.0451002
0.04924106667
0.04797793333
1e-277
0.00031
0.02645766667
0.09845686667
0.04040713333
0.02816213333
0.05019206667
0.0646722
0.04926366667
0.04664966667
0.05301529286
0.05168402476
0.05172081723
0.05310617468
0.05000696688
0.04659568654
0.0502069073
0.04572102413
0.04411623275
0.04650480472
0.04626719367
0.04690644196
0.04648618905
0.04996973553
0.04615857518
0.05130100361
0.04825544629
0.04705229219
0.05449285007
0.04663247819
0.05330655401
0.04947765618
0.04861985219
0.0520488704
0.05483907961
0.05235830747
0.05460146895
0.04918683435
0.05133779523
0.05609720252
0.05504173333
0.05411173333
0.0522286
0.05424413333
0.0469166
0.05349173333
0.05174206667
0.04616313333
0.049839
0.04797793333
)
;
    }
    wall
    {
        type            calculated;
        value           uniform 1.666666667e-301;
    }
    frontAndBack
    {
        type            empty;
    }
}


// ************************************************************************* //
