/*--------------------------------*- C++ -*----------------------------------*\
| =========                 |                                                 |
| \\      /  F ield         | OpenFOAM: The Open Source CFD Toolbox           |
|  \\    /   O peration     | Version:  v1912                                 |
|   \\  /    A nd           | Website:  www.openfoam.com                      |
|    \\/     M anipulation  |                                                 |
\*---------------------------------------------------------------------------*/
FoamFile
{
    version     2.0;
    format      ascii;
    class       volScalarField;
    location    "4.48";
    object      rho;
}
// * * * * * * * * * * * * * * * * * * * * * * * * * * * * * * * * * * * * * //

dimensions      [1 -3 0 0 0 0 0];


internalField   nonuniform List<scalar> 
1900
(
40444.8
18156.4
15293.2
14914.2
14681.6
14493.6
14315.3
14114.3
13905.6
13703.7
40444.8
18156.5
15293.3
14914.1
14681.7
14494.4
14317.9
14119.7
13897.9
13671.2
40444.8
18156.5
15293.4
14914.1
14681.6
14493.7
14316.6
14116.9
13891.4
13661.7
40444.8
18156.5
15293.3
14914.1
14681.7
14494.4
14317.9
14119.7
13897.9
13671.2
40444.8
18156.4
15293.2
14914.2
14681.6
14493.6
14315.3
14114.3
13905.6
13703.7
13645.7
13551.2
13521
13456.6
13618.8
13515.1
13415
13379
13324.2
13207.7
13509.2
13414
13360.6
13307.1
13254.3
13515.1
13415
13379
13324.2
13207.7
13645.7
13551.2
13521
13456.6
13618.8
11638.4
11212
10625.8
9908.01
8983.55
11897.4
11322.2
10686.4
9969.17
9032.22
11916.8
11289
10663.1
9957.29
8998.77
11897.4
11322.2
10686.4
9969.17
9032.22
11638.4
11212
10625.8
9908.01
8983.55
7099.97
4739.88
4997.52
5177.84
4981.61
4757.93
4548.68
4296.15
4052.9
3841.76
3705.71
3627.87
3574.77
3532.11
3496.23
3466.37
3441.81
3421.62
3405.13
3391.35
3380.28
3371.48
3364.35
3359.02
3355.24
3352.85
3351.64
3351.37
3351.54
3352.57
3353.75
3359.43
3366.91
3384.19
3400.17
3425.14
3444.72
3466.78
4297.15
20308.6
7187.31
4903.59
5062.94
5232.73
5017.01
4771.74
4555.95
4301.03
4054.17
3842.87
3705.91
3627.9
3574.83
3532.18
3496.27
3466.39
3441.81
3421.61
3405.12
3391.34
3380.26
3371.46
3364.32
3358.99
3355.2
3352.81
3351.59
3351.32
3351.49
3352.5
3353.68
3359.36
3366.84
3384.2
3400.23
3425.43
3445
3467.21
4294.27
20287.2
7256.76
5201
5301.38
5318.54
5044.19
4777.93
4559.09
4302.91
4054.99
3843.22
3706.02
3627.94
3574.88
3532.22
3496.31
3466.41
3441.83
3421.62
3405.13
3391.35
3380.27
3371.47
3364.32
3358.99
3355.2
3352.81
3351.59
3351.32
3351.49
3352.51
3353.7
3359.42
3366.97
3384.47
3400.75
3426.4
3446.59
3469.64
4294.58
20454.6
7187.31
4903.59
5062.94
5232.73
5017.01
4771.74
4555.95
4301.03
4054.17
3842.87
3705.91
3627.9
3574.83
3532.18
3496.27
3466.39
3441.81
3421.61
3405.12
3391.34
3380.26
3371.46
3364.32
3358.99
3355.2
3352.81
3351.59
3351.32
3351.49
3352.5
3353.68
3359.36
3366.84
3384.2
3400.23
3425.43
3445
3467.21
4294.27
20287.2
7099.97
4739.88
4997.52
5177.84
4981.61
4757.93
4548.68
4296.15
4052.9
3841.76
3705.71
3627.87
3574.77
3532.11
3496.23
3466.37
3441.81
3421.62
3405.13
3391.35
3380.28
3371.48
3364.35
3359.02
3355.24
3352.85
3351.64
3351.37
3351.54
3352.57
3353.75
3359.43
3366.91
3384.19
3400.17
3425.14
3444.72
3466.78
4297.15
20308.6
7680.09
4454.64
4593.91
4924.57
4873.29
4709.52
4517.89
4275
4038.31
3834.53
3703.76
3626.79
3573.7
3531.17
3495.5
3465.82
3441.41
3421.29
3404.86
3391.13
3380.08
3371.31
3364.19
3358.87
3355.07
3352.67
3351.43
3351.15
3351.3
3352.36
3353.53
3359.18
3366.62
3383.53
3399.47
3423.86
3443.98
3464.86
4303.18
20980.6
9895.72
3968.07
4210.37
4575.97
4651.99
4579.65
4434.1
4219.07
4000.36
3817.81
3697.64
3623.74
3571.1
3528.94
3493.77
3464.54
3440.43
3420.51
3404.21
3390.56
3379.6
3370.88
3363.8
3358.5
3354.71
3352.29
3351.01
3350.71
3350.83
3351.97
3353.16
3358.8
3366.1
3382.29
3397.95
3421.2
3441.68
3460.32
4272.56
20090.5
11542.8
3715.7
4021.81
4334.99
4473.17
4442.56
4323.9
4144.14
3951.28
3792.53
3687.45
3618.12
3566.93
3525.61
3491.25
3462.67
3439.01
3419.38
3403.27
3389.77
3378.93
3370.31
3363.29
3358.03
3354.23
3351.77
3350.42
3350.08
3350.16
3351.41
3352.6
3358.18
3365.24
3380.38
3395.62
3417.24
3437.77
3453.55
4234.16
19753.7
12411.7
3649.61
3908.47
4177.26
4326.32
4309.13
4209.47
4061.53
3895.87
3765.02
3673.85
3610.31
3561.37
3521.43
3488.19
3460.45
3437.35
3418.09
3402.26
3388.96
3378.29
3369.81
3362.88
3357.66
3353.84
3351.31
3349.85
3349.45
3349.46
3350.87
3352.08
3357.56
3364.27
3378.2
3392.93
3412.87
3432.92
3447.55
4219.58
19432
13163.5
3641.91
3861.99
4065.86
4202.41
4181.69
4097.25
3976.63
3842.06
3735.85
3658.53
3600.81
3554.78
3516.7
3484.84
3458.08
3435.65
3416.86
3401.37
3388.34
3377.9
3369.6
3362.77
3357.58
3353.72
3351.09
3349.48
3349.02
3348.94
3350.52
3351.74
3357.05
3363.29
3375.76
3389.78
3407.96
3426.85
3441.34
4194.46
19104.4
13797.3
3643.88
3808.68
3972.33
4092.84
4066.65
3996.93
3899.63
3794.24
3708.72
3642.9
3590.76
3547.83
3511.83
3481.47
3455.75
3434.03
3415.77
3400.7
3388
3377.83
3369.74
3363.02
3357.88
3353.98
3351.27
3349.52
3349.1
3349.01
3350.9
3352.27
3357.53
3363.47
3374.66
3388.18
3405.15
3423.32
3438.99
4181.8
18683.7
14802.3
3644.33
3762.75
3892.3
3989.56
3962.14
3906.69
3831.32
3750.56
3682.62
3626.67
3580
3540.44
3506.74
3477.95
3453.33
3432.4
3414.75
3400.17
3387.86
3378.02
3370.17
3363.57
3358.47
3354.52
3351.68
3349.77
3349.36
3349.2
3351.31
3352.67
3357.61
3363
3372.71
3385.29
3400.97
3417.99
3435.7
4154.44
18279.4
14374.2
3621.79
3711.38
3813.35
3892.29
3871.81
3832.18
3776.87
3716
3661.58
3613.23
3571.03
3534.27
3502.42
3474.86
3451.1
3430.84
3413.76
3399.68
3387.78
3378.32
3370.77
3364.37
3359.4
3355.52
3352.74
3350.91
3350.91
3351.03
3353.72
3355.44
3360.39
3365.41
3373.8
3385.38
3400.03
3416.29
3435.16
4125.88
17752.5
14207.5
3590.94
3665.08
3746.87
3806.78
3796.61
3769.62
3730.32
3684.54
3640.73
3598.95
3561.12
3527.23
3497.27
3470.98
3448.15
3428.64
3412.21
3398.73
3387.33
3378.28
3371.07
3364.89
3360.06
3356.21
3353.46
3351.66
3352.01
3352.33
3355.39
3357.14
3361.79
3366.01
3372.83
3382.57
3396.08
3411.04
3431.58
4082.81
17237.9
13912
3564.59
3620.12
3685.36
3731.98
3733.66
3717.86
3692.9
3659.21
3624.1
3587.95
3554.04
3522.53
3494.03
3468.57
3446.35
3427.35
3411.41
3398.42
3387.47
3378.88
3372.11
3366.31
3361.82
3358.24
3355.85
3354.29
3355.18
3355.85
3359.4
3361.19
3365.48
3368.86
3374.23
3382.02
3394.86
3409.29
3430.21
4018.76
16566.2
13586.9
3540.08
3582.7
3634.67
3672.81
3682.49
3674.95
3660.4
3635.21
3607.07
3575.84
3545.73
3516.57
3489.73
3465.44
3444.1
3425.79
3410.46
3398.04
3387.55
3379.41
3373.05
3367.53
3363.26
3359.8
3357.56
3355.97
3357.1
3357.76
3361.37
3362.69
3366.15
3368.02
3371.19
3376.17
3388.4
3402.58
3424.72
3936.23
15871.5
13169.1
3512.69
3544.47
3587.38
3623.17
3637.53
3639.77
3632.98
3615.24
3593.43
3566.74
3540.49
3513.72
3488.87
3465.99
3445.8
3428.47
3414.01
3402.35
3392.46
3384.87
3378.96
3373.69
3369.53
3365.98
3363.61
3361.65
3362.69
3362.95
3366.14
3366.56
3368.97
3368.86
3369.35
3370.44
3380.77
3394.31
3413.32
3814.52
15054.4
12638.2
3481.66
3508.36
3547.22
3586.17
3601.69
3611.7
3609.61
3597.37
3581.56
3559.31
3537.03
3512.39
3489.3
3467.79
3448.94
3432.8
3419.38
3408.62
3399.38
3392.29
3386.75
3381.64
3377.47
3373.68
3371.05
3368.54
3369.36
3369.09
3371.65
3370.51
3371.01
3367.68
3363.91
3360.55
3368.5
3382.94
3399.2
3694.46
14169.7
12020
3451.1
3474.56
3509.34
3548.12
3565.84
3584.66
3588.9
3582.71
3572.93
3555.01
3536.68
3514.51
3494.1
3474.89
3458.34
3444.36
3432.97
3423.93
3415.82
3409.34
3403.85
3398.22
3393.22
3388.31
3384.56
3380.53
3380.18
3378.41
3379.52
3376.15
3374.5
3367.9
3359.86
3351.41
3354.31
3366.83
3376.93
3578.99
13189.7
11299.9
3417.95
3440.98
3483.08
3521.35
3542.25
3567.57
3576.14
3574.69
3570.06
3556.48
3541.53
3520.71
3502.06
3484.08
3468.96
3456.35
3446.24
3438.3
3430.97
3425.12
3420.14
3414.66
3409.59
3404.33
3400.32
3395.56
3394.74
3391.8
3391.71
3385.89
3381.07
3370.17
3357.03
3342.6
3342.51
3353.43
3359.82
3497.97
12153.8
10503.3
3397.9
3420.66
3469.67
3502.11
3529.85
3560.04
3570.76
3575.25
3573.98
3561.32
3548.41
3529.12
3513.07
3497.47
3484.97
3474.94
3467.25
3461.39
3455.22
3449.7
3444.31
3437.71
3431.27
3424.45
3419.29
3413.23
3411.58
3407.58
3407.01
3400.56
3394.79
3382.84
3366.94
3349.36
3343.11
3351.02
3355.94
3454.59
11056.3
9939.8
3415.54
3435.82
3486.15
3513.32
3546.51
3572.11
3579.28
3593.75
3587.6
3576.28
3563.37
3543.48
3527.93
3513.05
3502.27
3493.85
3487.22
3481.9
3476.37
3471.91
3467.31
3460.78
3453.86
3445.85
3439.89
3432.65
3430.39
3425.16
3424.06
3417.11
3409.95
3397.74
3378.89
3360.83
3352.45
3360.57
3369.8
3457.67
10265.6
9164.76
3449.66
3462.48
3499.34
3521.85
3557.99
3581.47
3597.15
3615.07
3605.28
3594.36
3578.39
3557.41
3541.18
3525.78
3516.41
3510.05
3506.21
3503.62
3499.18
3494.43
3488.87
3480.85
3473.23
3464.92
3459.98
3454.25
3452.67
3448.64
3447.53
3442.13
3432.48
3419.58
3395.17
3372.23
3360.34
3369.29
3381.93
3476.97
9183.46
18168.8
4115.49
3700.1
3686.66
3722.88
3818.5
3934.42
4070.4
4190.26
4271.38
4329.46
4361.44
4375.76
4381.07
4380.98
4378.04
4377.99
4365.35
4363.19
4338.95
4334.21
4349.64
4340.96
4347.04
4327.5
4318.36
4292.06
4267.98
4230.31
4176.73
4111.91
4003.22
3885.42
3739.81
3621.72
3535.57
3508.08
3515.83
4031.65
17445.8
181771
18860.9
10562.6
11701
12546.3
13644.2
14588.6
15514.8
16302.8
17024.3
17673.7
18214
18704.9
19129.5
19504.8
19827.3
20112.4
20346.4
20440.7
20478
20463.1
20372.7
20272.8
19937.8
19630
19170.5
18732.3
18162.8
17601.6
16869.4
16134.8
15259.4
14346.8
13341.5
12298.5
11172.8
10360.1
9213.4
17025.7
166459
181771
18860.9
10562.6
11701
12546.3
13644.2
14588.6
15514.8
16302.8
17024.3
17673.7
18214
18704.9
19129.5
19504.8
19827.3
20112.4
20346.4
20440.7
20478
20463.1
20372.7
20272.8
19937.8
19630
19170.5
18732.3
18162.8
17601.6
16869.4
16134.8
15259.4
14346.8
13341.5
12298.5
11172.8
10360.1
9213.4
17025.7
166459
18168.8
4115.49
3700.1
3686.66
3722.88
3818.5
3934.42
4070.4
4190.26
4271.38
4329.46
4361.44
4375.76
4381.07
4380.98
4378.04
4377.99
4365.35
4363.19
4338.95
4334.21
4349.64
4340.96
4347.04
4327.5
4318.36
4292.06
4267.98
4230.31
4176.73
4111.91
4003.22
3885.42
3739.81
3621.72
3535.57
3508.08
3515.83
4031.65
17445.8
9164.76
3449.66
3462.48
3499.34
3521.85
3557.99
3581.47
3597.15
3615.07
3605.28
3594.36
3578.39
3557.41
3541.18
3525.78
3516.41
3510.05
3506.21
3503.62
3499.18
3494.43
3488.87
3480.85
3473.23
3464.92
3459.98
3454.25
3452.67
3448.64
3447.53
3442.13
3432.48
3419.58
3395.17
3372.23
3360.34
3369.29
3381.93
3476.97
9183.46
9939.8
3415.54
3435.82
3486.15
3513.32
3546.51
3572.11
3579.28
3593.75
3587.6
3576.28
3563.37
3543.48
3527.93
3513.05
3502.27
3493.85
3487.22
3481.9
3476.37
3471.91
3467.31
3460.78
3453.86
3445.85
3439.89
3432.65
3430.39
3425.16
3424.06
3417.11
3409.95
3397.74
3378.89
3360.83
3352.45
3360.57
3369.8
3457.67
10265.6
10503.3
3397.9
3420.66
3469.67
3502.11
3529.85
3560.04
3570.76
3575.25
3573.98
3561.32
3548.41
3529.12
3513.07
3497.47
3484.97
3474.94
3467.25
3461.39
3455.22
3449.7
3444.31
3437.71
3431.27
3424.45
3419.29
3413.23
3411.58
3407.58
3407.01
3400.56
3394.79
3382.84
3366.94
3349.36
3343.11
3351.02
3355.94
3454.59
11056.3
11299.9
3417.95
3440.98
3483.08
3521.35
3542.25
3567.57
3576.14
3574.69
3570.06
3556.48
3541.53
3520.71
3502.06
3484.08
3468.96
3456.35
3446.24
3438.3
3430.97
3425.12
3420.14
3414.66
3409.59
3404.33
3400.32
3395.56
3394.74
3391.8
3391.71
3385.89
3381.07
3370.17
3357.03
3342.6
3342.51
3353.43
3359.82
3497.97
12153.8
12020
3451.1
3474.56
3509.34
3548.12
3565.84
3584.66
3588.9
3582.71
3572.93
3555.01
3536.68
3514.51
3494.1
3474.89
3458.34
3444.36
3432.97
3423.93
3415.82
3409.34
3403.85
3398.22
3393.22
3388.31
3384.56
3380.53
3380.18
3378.41
3379.52
3376.15
3374.5
3367.9
3359.86
3351.41
3354.31
3366.83
3376.93
3578.99
13189.7
12638.2
3481.66
3508.36
3547.22
3586.17
3601.69
3611.7
3609.61
3597.37
3581.56
3559.31
3537.03
3512.39
3489.3
3467.79
3448.94
3432.8
3419.38
3408.62
3399.38
3392.29
3386.75
3381.64
3377.47
3373.68
3371.05
3368.54
3369.36
3369.09
3371.65
3370.51
3371.01
3367.68
3363.91
3360.55
3368.5
3382.94
3399.2
3694.46
14169.7
13169.1
3512.69
3544.47
3587.38
3623.17
3637.53
3639.77
3632.98
3615.24
3593.43
3566.74
3540.49
3513.72
3488.87
3465.99
3445.8
3428.47
3414.01
3402.35
3392.46
3384.87
3378.96
3373.69
3369.53
3365.98
3363.61
3361.65
3362.69
3362.95
3366.14
3366.56
3368.97
3368.86
3369.35
3370.44
3380.77
3394.31
3413.32
3814.52
15054.4
13586.9
3540.08
3582.7
3634.67
3672.81
3682.49
3674.95
3660.4
3635.21
3607.07
3575.84
3545.73
3516.57
3489.73
3465.44
3444.1
3425.79
3410.46
3398.04
3387.55
3379.41
3373.05
3367.53
3363.26
3359.8
3357.56
3355.97
3357.1
3357.76
3361.37
3362.69
3366.15
3368.02
3371.19
3376.17
3388.4
3402.58
3424.72
3936.23
15871.5
13912
3564.59
3620.12
3685.36
3731.98
3733.66
3717.86
3692.9
3659.21
3624.1
3587.95
3554.04
3522.53
3494.03
3468.57
3446.35
3427.35
3411.41
3398.42
3387.47
3378.88
3372.11
3366.31
3361.82
3358.24
3355.85
3354.29
3355.18
3355.85
3359.4
3361.19
3365.48
3368.86
3374.23
3382.02
3394.86
3409.29
3430.21
4018.76
16566.2
14207.5
3590.94
3665.08
3746.87
3806.78
3796.61
3769.62
3730.32
3684.54
3640.73
3598.95
3561.12
3527.23
3497.27
3470.98
3448.15
3428.64
3412.21
3398.73
3387.33
3378.28
3371.07
3364.89
3360.06
3356.21
3353.46
3351.66
3352.01
3352.33
3355.39
3357.14
3361.79
3366.01
3372.83
3382.57
3396.08
3411.04
3431.58
4082.81
17237.9
14374.2
3621.79
3711.38
3813.35
3892.29
3871.81
3832.18
3776.87
3716
3661.58
3613.23
3571.03
3534.27
3502.42
3474.86
3451.1
3430.84
3413.76
3399.68
3387.78
3378.32
3370.77
3364.37
3359.4
3355.52
3352.74
3350.91
3350.91
3351.03
3353.72
3355.44
3360.39
3365.41
3373.8
3385.38
3400.03
3416.29
3435.16
4125.88
17752.5
14802.3
3644.33
3762.75
3892.3
3989.56
3962.14
3906.69
3831.32
3750.56
3682.62
3626.67
3580
3540.44
3506.74
3477.95
3453.33
3432.4
3414.75
3400.17
3387.86
3378.02
3370.17
3363.57
3358.47
3354.52
3351.68
3349.77
3349.36
3349.2
3351.31
3352.67
3357.61
3363
3372.71
3385.29
3400.97
3417.99
3435.7
4154.44
18279.4
13797.3
3643.88
3808.68
3972.33
4092.84
4066.65
3996.93
3899.63
3794.24
3708.72
3642.9
3590.76
3547.83
3511.83
3481.47
3455.75
3434.03
3415.77
3400.7
3388
3377.83
3369.74
3363.02
3357.88
3353.98
3351.27
3349.52
3349.1
3349.01
3350.9
3352.27
3357.53
3363.47
3374.66
3388.18
3405.15
3423.32
3438.99
4181.8
18683.7
13163.5
3641.91
3861.99
4065.86
4202.41
4181.69
4097.25
3976.63
3842.06
3735.85
3658.53
3600.81
3554.78
3516.7
3484.84
3458.08
3435.65
3416.86
3401.37
3388.34
3377.9
3369.6
3362.77
3357.58
3353.72
3351.09
3349.48
3349.02
3348.94
3350.52
3351.74
3357.05
3363.29
3375.76
3389.78
3407.96
3426.85
3441.34
4194.46
19104.4
12411.7
3649.61
3908.47
4177.26
4326.32
4309.13
4209.47
4061.53
3895.87
3765.02
3673.85
3610.31
3561.37
3521.43
3488.19
3460.45
3437.35
3418.09
3402.26
3388.96
3378.29
3369.81
3362.88
3357.66
3353.84
3351.31
3349.85
3349.45
3349.46
3350.87
3352.08
3357.56
3364.27
3378.2
3392.93
3412.87
3432.92
3447.55
4219.58
19432
11542.8
3715.7
4021.81
4334.99
4473.17
4442.56
4323.9
4144.14
3951.28
3792.53
3687.45
3618.12
3566.93
3525.61
3491.25
3462.67
3439.01
3419.38
3403.27
3389.77
3378.93
3370.31
3363.29
3358.03
3354.23
3351.77
3350.42
3350.08
3350.16
3351.41
3352.6
3358.18
3365.24
3380.38
3395.62
3417.24
3437.77
3453.55
4234.16
19753.7
9895.72
3968.07
4210.37
4575.97
4651.99
4579.65
4434.1
4219.07
4000.36
3817.81
3697.64
3623.74
3571.1
3528.94
3493.77
3464.54
3440.43
3420.51
3404.21
3390.56
3379.6
3370.88
3363.8
3358.5
3354.71
3352.29
3351.01
3350.71
3350.83
3351.97
3353.16
3358.8
3366.1
3382.29
3397.95
3421.2
3441.68
3460.32
4272.56
20090.5
7680.09
4454.64
4593.91
4924.57
4873.29
4709.52
4517.89
4275
4038.31
3834.53
3703.76
3626.79
3573.7
3531.17
3495.5
3465.82
3441.41
3421.29
3404.86
3391.13
3380.08
3371.31
3364.19
3358.87
3355.07
3352.67
3351.43
3351.15
3351.3
3352.36
3353.53
3359.18
3366.62
3383.53
3399.47
3423.86
3443.98
3464.86
4303.18
20980.6
)
;

boundaryField
{
    inlet
    {
        type            calculated;
        value           uniform 14000.1;
    }
    outlet
    {
        type            calculated;
        value           nonuniform List<scalar> 
165
(
2377.48
2929.35
3135.31
3169.36
3162.45
3155
3112.22
3146.74
3142.25
3147.38
3150.66
3153.3
3154.07
3151.17
3148.33
3139.83
3114.88
3058.35
3316.65
3835.08
3835.08
3253.54
2969.96
3024.71
3054.6
3070.25
3087.97
3101.84
3120.74
3138.55
3155.25
3171.92
3185.45
3195.57
3202.98
3208.28
3211.23
3209.72
3211.78
3209.57
3210.34
3215.07
3212.16
3218.93
3214.95
3217.61
3212.8
3210.47
3201.55
3196.18
3184.41
3176.95
3166.19
3156.78
3145.53
3129.95
3096.5
3031.85
3291.79
3863.46
3179.64
3217.74
3210.51
3211.05
3210.17
3212.61
3208.76
3205.87
3195.47
3187.9
3175.31
3165.94
3155.49
3146.11
3136.46
3121.18
3088.84
3025.75
3290.62
3863.46
3215.33
3210.37
3196.67
3210.37
3215.33
3863.46
3290.62
3025.75
3088.84
3121.18
3136.46
3146.11
3155.49
3165.94
3175.31
3187.9
3195.47
3205.87
3208.76
3212.61
3210.17
3211.05
3210.51
3217.74
3179.64
3835.08
3253.54
2969.96
3024.71
3054.6
3070.25
3087.97
3101.84
3120.74
3138.55
3155.25
3171.92
3185.45
3195.57
3202.98
3208.28
3211.23
3209.72
3211.78
3209.57
3210.34
3215.07
3212.16
3218.93
3214.95
3217.61
3212.8
3210.47
3201.55
3196.18
3184.41
3176.95
3166.19
3156.78
3145.53
3129.95
3096.5
3031.85
3291.79
3863.46
3835.08
3316.65
3058.35
3114.88
3139.83
3148.33
3151.17
3154.07
3153.3
3150.66
3147.38
3142.25
3146.74
3112.22
3155
3162.45
3169.36
3135.31
2929.35
2377.48
)
;
    }
    obstacle
    {
        type            calculated;
        value           nonuniform List<scalar> 
40
(
40444.8
18156.4
15293.2
14914.2
14681.6
14493.6
14315.3
14114.3
13905.6
13703.7
40444.8
18156.4
15293.2
14914.2
14681.6
14493.6
14315.3
14114.3
13905.6
13703.7
13645.7
13551.2
13521
13456.6
13618.8
13645.7
13551.2
13521
13456.6
13618.8
11638.4
11212
10625.8
9908.01
8983.55
11638.4
11212
10625.8
9908.01
8983.55
)
;
    }
    empty
    {
        type            empty;
    }
}


// ************************************************************************* //
