/*--------------------------------*- C++ -*----------------------------------*\
| =========                 |                                                 |
| \\      /  F ield         | OpenFOAM: The Open Source CFD Toolbox           |
|  \\    /   O peration     | Version:  v1912                                 |
|   \\  /    A nd           | Website:  www.openfoam.com                      |
|    \\/     M anipulation  |                                                 |
\*---------------------------------------------------------------------------*/
FoamFile
{
    version     2.0;
    format      ascii;
    class       volScalarField;
    location    "9.18";
    object      p;
}
// * * * * * * * * * * * * * * * * * * * * * * * * * * * * * * * * * * * * * //

dimensions      [1 -1 -2 0 0 0 0];


internalField   nonuniform List<scalar> 
1900
(
961.514
7863.91
8595.34
8577.34
8692.81
8733.19
8718.08
8644.5
8561.23
8458.73
961.465
7863.94
8595.35
8577.39
8692.86
8733.06
8718.95
8644.4
8557.02
8467.99
961.43
7863.96
8595.36
8577.44
8693.03
8733.36
8719.87
8643.84
8533.23
8456.9
961.465
7863.94
8595.35
8577.39
8692.86
8733.06
8718.95
8644.4
8557.02
8467.99
961.514
7863.91
8595.34
8577.34
8692.81
8733.19
8718.08
8644.5
8561.23
8458.73
8578.98
8403.06
8328.24
8153.38
8381.19
8413.47
8297.32
8229.47
8054.34
7939.48
8379.83
8276.82
8223.4
8086.55
7981.32
8413.47
8297.32
8229.47
8054.34
7939.48
8578.98
8403.06
8328.24
8153.38
8381.19
3510.74
2043
1429.37
1114.03
839.006
3973.19
2255.11
1542.72
1200.04
890.355
4083.85
2216.16
1495.2
1165.74
846.146
3973.19
2255.11
1542.72
1200.04
890.355
3510.74
2043
1429.37
1114.03
839.006
885.359
950.505
964.976
969.929
951.286
921.597
877.425
824.421
772.518
719.672
677.338
645.34
597.893
549.093
538.709
593.999
869.631
1091.68
1136.21
1140.99
1120.86
1097.3
1087.8
1078.91
1062.03
1027.44
958.661
1513.81
2091.77
1690.61
930.731
688.789
706.902
742.84
778.718
816.106
854.577
894.062
935.722
978.792
826.786
920.468
1005.14
993.708
959.561
916.299
867.284
814.575
763.958
710.901
671.231
640.802
595.402
547.733
537.324
594.359
868.313
1090.01
1132.09
1136.47
1118.58
1097.89
1087.33
1082.52
1069.4
1027.81
959.189
1520
2093.72
1692.16
933.636
689.773
707.546
743.306
779.084
816.421
854.869
894.392
936.018
979.009
812.755
870.572
987.98
995.765
969.166
929.371
880.703
826.688
773.886
718.106
677.766
645.736
600.373
551.407
539.96
597.053
872.113
1093.65
1135.95
1137.73
1120.31
1098.07
1088.24
1081.25
1063.32
1023.45
958.128
1520.15
2098.4
1695.84
934.884
690.105
707.761
743.436
779.128
816.329
854.641
894.093
935.702
978.724
826.786
920.468
1005.14
993.708
959.561
916.299
867.284
814.575
763.958
710.901
671.231
640.802
595.402
547.733
537.324
594.359
868.313
1090.01
1132.09
1136.47
1118.58
1097.89
1087.33
1082.52
1069.4
1027.81
959.189
1520
2093.72
1692.16
933.636
689.773
707.546
743.306
779.084
816.421
854.869
894.392
936.018
979.009
885.359
950.505
964.976
969.929
951.286
921.597
877.425
824.421
772.518
719.672
677.338
645.34
597.893
549.093
538.709
593.999
869.631
1091.68
1136.21
1140.99
1120.86
1097.3
1087.8
1078.91
1062.03
1027.44
958.661
1513.81
2091.77
1690.61
930.731
688.789
706.902
742.84
778.718
816.106
854.577
894.062
935.722
978.792
995.197
954.332
929.297
911.371
896.142
880.457
854.822
823.627
788.581
746.503
703.184
664.311
612.158
558.303
542.603
591.827
866.13
1091.58
1148.13
1152.32
1123.46
1096.61
1086.12
1075.75
1061.08
1048.06
995.648
1566.55
2122.29
1696.94
920.713
685.6
704.973
741.316
777.584
815.443
854.452
894.16
935.857
978.814
966.22
911.402
865.4
817.883
783.68
764.078
748.781
739.035
727.317
707.421
685.606
659.492
616.913
564.837
547.361
592.319
850.772
1077.7
1151.08
1157.24
1121.79
1089.38
1080.34
1071.37
1042.87
993.489
932.666
1504.71
2036.9
1619.59
883.466
680.436
702.189
738.712
775.202
813.792
853.842
894.1
935.858
978.406
977.441
922.424
873.938
850.2
829.315
799.45
767.49
740.15
715.554
693.299
675.876
655.352
625.672
586.087
558.598
598.539
858.803
1090.92
1173.91
1182.73
1140.04
1095.07
1085.69
1074.82
1038.54
983.591
931.679
1525.4
1997.54
1538.23
841.537
683.626
705.142
738.572
773.165
811.771
852.636
893.864
935.89
978.152
982.936
949.485
903.26
846.518
801.266
765.182
734.16
706.114
676.796
650.19
629.05
600.965
576.24
564.508
567.141
626.521
871.357
1044.38
1112.55
1120.43
1080.21
1047.89
1052.95
1038.33
1003.16
949.336
938.997
1580.59
2016.73
1496.34
825.309
703.442
723.843
752.961
781.583
813.823
851.946
893.37
935.763
978.02
981.602
941.59
898.541
859.801
822.862
785.48
756.393
723.112
679.559
646.388
616.342
577.591
567.468
571.58
587.282
673.631
894.988
1016.81
1077.13
1086.55
1047.36
1021.36
1028.19
1007.18
976.015
922.768
1031.43
1838.59
2222.55
1566.71
915.882
807.439
798.843
798.068
807.559
831.321
859.166
893.739
935.481
977.678
981.382
942.204
905.037
868.209
827.521
786.653
751.246
716.731
682.152
652.99
610.461
573.754
574.596
592.621
630.854
756.787
913.528
996.65
1050.7
1047.12
1001.87
1000.19
1005.7
982.27
984.184
964.34
1451.88
2428.41
2478.75
1643.13
1066.75
989.611
960.251
927.671
898.379
881.887
884.951
905.899
937.563
977.119
981.484
943.895
910.097
876.034
837.926
800.31
762.728
723.032
689.544
656.487
610.823
592.267
599.837
610.414
654.527
777.55
895.116
958.108
1000.18
982.914
958.135
987.963
1026.31
1045.5
1091.15
1293.83
2149.74
2851.19
2374.2
1507.91
1153.61
1117.78
1098.73
1071.43
1035.49
992.963
955.273
938.493
947.825
976.644
981.657
945.769
913.566
881.373
846.518
811.157
774.431
734.437
699.145
662.934
621.6
607.429
615.774
635.159
698.359
787.921
855.293
917.862
939.055
916.46
1003.54
1070.37
1182.01
1375.07
1500.99
1759.73
2501.75
2761.28
2102.04
1357.28
1195.63
1180.2
1169.42
1154.4
1135.52
1103.89
1057.36
1009.33
980.265
979.005
982.609
949.167
917.795
885.272
851.651
816.96
778.265
737.063
702.937
666.745
635.544
635.125
646.826
674.162
720.753
792.92
853.357
898.837
940.875
1070.97
1237.54
1465.27
1638.7
1716.79
1761.16
2012.38
2508.38
2462.07
1759.79
1261.76
1209.89
1208.86
1203.87
1195.33
1186.87
1169.94
1135.84
1088.63
1030.9
986.35
985.202
955.911
925.665
892.608
855.813
816.397
775.157
734.831
702.777
674.855
662.651
680.464
704.762
737.045
786.743
869.002
963.275
1091.22
1290.81
1504.11
1695.9
1829.96
1877.83
1843.47
1814.54
2018.01
2362.56
2066.78
1454.79
1225
1215.24
1218.73
1215.12
1207.14
1200.45
1190.64
1165.59
1129.65
1073.45
1000.07
984.997
954.831
920.07
881.344
841.31
803.585
778.547
770.813
762.352
776.328
813.477
868.288
920.454
999.715
1102.71
1246.92
1406.74
1561.96
1712.17
1842.88
1908.67
1928.09
1902.05
1848.43
1810.89
1938.34
2063.8
1660.18
1282.21
1223.54
1226.96
1232.29
1229.44
1219.81
1210.27
1199.3
1174.41
1139.7
1089.91
1009.21
981.595
944.545
908.447
885.818
890.718
911.588
941.217
990.178
1064.21
1151.76
1238.57
1327.05
1438.53
1552.68
1635.51
1702.5
1749.63
1798.42
1866.07
1907.45
1946.33
1949.82
1904.15
1820.2
1755.02
1773.82
1642.64
1338.28
1225.34
1226.24
1235.77
1240.95
1238.7
1230.06
1220.22
1210.17
1182.54
1142.28
1089.96
1010.91
990.039
969.907
977.048
1027.26
1103.1
1202.54
1309.5
1406.1
1506.96
1589
1650.69
1703.02
1753.86
1786.1
1816.72
1824.06
1854.46
1873.05
1910.17
1950.93
1973.25
1945.82
1863.06
1755.69
1608.82
1436.45
1258.63
1186.35
1204.32
1222.86
1233.85
1239.58
1239.85
1233.51
1224.79
1214.71
1185.1
1139.63
1081.89
1009.29
1006.77
1055.37
1142.33
1249.79
1334.96
1395.19
1448.57
1503.83
1559.8
1605.98
1645.49
1704.83
1793.44
1856.55
1884.73
1888.98
1904.36
1940.41
1972.61
1984.05
1956.05
1895.42
1785.27
1595.84
1315.78
1079.91
1052.92
1127.11
1196.7
1218.03
1225.26
1231.35
1233.66
1229.45
1221.46
1209.95
1182
1137.59
1077.9
1010.67
1023.6
1119.28
1220.97
1303.29
1362.82
1403.96
1441.37
1478.52
1513.69
1551.96
1625.03
1720.75
1813.34
1874.93
1915.1
1946.83
1973.18
1995.28
1995.87
1966.09
1902.94
1790.43
1597.52
1304.39
1010.35
905.563
976.103
1100.04
1184.7
1211.72
1215.55
1220.89
1224.46
1220.7
1213.75
1200.44
1173.97
1132.14
1073.78
1012.4
1036.61
1114.71
1196.32
1262.98
1301.78
1319.51
1338.72
1369.69
1422.43
1491.57
1581.63
1683.63
1783.53
1869.59
1936.51
1983.31
2003.25
1998.76
1969.44
1901.91
1776.32
1572.81
1283.27
1008.18
882.097
879.012
940.27
1059.29
1153.62
1194.01
1199.58
1207.62
1213.03
1209.41
1200.72
1184.54
1159.05
1121.19
1066.47
1010.23
1016.09
1059.74
1106.61
1143.01
1167.62
1180.2
1208.58
1254.46
1316.62
1396.1
1492.4
1600.55
1716.63
1829.58
1917.41
1964.34
1971.51
1942.73
1868.73
1734.01
1517.38
1238.36
1005.55
905.827
879.647
890.115
924.149
1012.23
1107.38
1159.9
1171.36
1178.51
1181.24
1179.4
1172.9
1158.13
1139.94
1111.71
1067.68
1014.79
979.744
997.287
1021.25
1035.79
1048.98
1067.33
1103.45
1151.73
1209.91
1278.64
1364.16
1469.77
1592.71
1712.37
1805.37
1856.57
1854.55
1787.69
1642.93
1424.66
1178.41
1002.17
934.214
911.786
907.869
912.723
931.951
977.366
1053.77
1115.17
1135.38
1138.97
1135.47
1134.54
1131.09
1120.21
1111.51
1089.9
1059.48
1014.04
980.14
979.759
975.607
975.181
984.829
1004.74
1027.54
1059.29
1100.92
1152.09
1219.54
1307.07
1412.24
1516.64
1594.51
1624.83
1592.93
1475.58
1293.05
1114.58
1005.59
963.2
947.216
945.058
945.667
946.115
950.012
968.605
1007.39
1055.94
1083.06
1088.38
1079.71
1076.61
1073.59
1066.74
1067.34
1058.15
1042.99
1002.28
977.485
971.527
945.118
938.109
948.466
965.946
981.709
1001.44
1031.45
1078.57
1143.31
1206.59
1258.51
1283.4
1265.98
1215.47
1149.9
1077.56
1017.81
988.908
980.744
978.128
979.025
979.796
979.937
979.554
978.637
979.22
983.919
994.381
1006.44
1010.77
1008.21
1009.7
1011.61
1009.97
1014.54
1012.7
1001.64
1014.09
977.485
971.527
945.118
938.109
948.466
965.946
981.709
1001.44
1031.45
1078.57
1143.31
1206.59
1258.51
1283.4
1265.98
1215.47
1149.9
1077.56
1017.81
988.908
980.744
978.128
979.025
979.796
979.937
979.554
978.637
979.22
983.919
994.381
1006.44
1010.77
1008.21
1009.7
1011.61
1009.97
1014.54
1012.7
1001.64
1014.09
980.14
979.759
975.607
975.181
984.829
1004.74
1027.54
1059.29
1100.92
1152.09
1219.54
1307.07
1412.24
1516.64
1594.51
1624.83
1592.93
1475.58
1293.05
1114.58
1005.59
963.2
947.216
945.058
945.667
946.115
950.012
968.605
1007.39
1055.94
1083.06
1088.38
1079.71
1076.61
1073.59
1066.74
1067.34
1058.15
1042.99
1002.28
979.744
997.287
1021.25
1035.79
1048.98
1067.33
1103.45
1151.73
1209.91
1278.64
1364.16
1469.77
1592.71
1712.37
1805.37
1856.57
1854.55
1787.69
1642.93
1424.66
1178.41
1002.17
934.214
911.786
907.869
912.723
931.951
977.366
1053.77
1115.17
1135.38
1138.97
1135.47
1134.54
1131.09
1120.21
1111.51
1089.9
1059.48
1014.04
1016.09
1059.74
1106.61
1143.01
1167.62
1180.2
1208.58
1254.46
1316.62
1396.1
1492.4
1600.55
1716.63
1829.58
1917.41
1964.34
1971.51
1942.73
1868.73
1734.01
1517.38
1238.36
1005.55
905.827
879.647
890.115
924.149
1012.23
1107.38
1159.9
1171.36
1178.51
1181.24
1179.4
1172.9
1158.13
1139.94
1111.71
1067.68
1014.79
1036.61
1114.71
1196.32
1262.98
1301.78
1319.51
1338.72
1369.69
1422.43
1491.57
1581.63
1683.63
1783.53
1869.59
1936.51
1983.31
2003.25
1998.76
1969.44
1901.91
1776.32
1572.81
1283.27
1008.18
882.097
879.012
940.27
1059.29
1153.62
1194.01
1199.58
1207.62
1213.03
1209.41
1200.72
1184.54
1159.05
1121.19
1066.47
1010.23
1023.6
1119.28
1220.97
1303.29
1362.82
1403.96
1441.37
1478.52
1513.69
1551.96
1625.03
1720.75
1813.34
1874.93
1915.1
1946.83
1973.18
1995.28
1995.87
1966.09
1902.94
1790.43
1597.52
1304.39
1010.35
905.563
976.103
1100.04
1184.7
1211.72
1215.55
1220.89
1224.46
1220.7
1213.75
1200.44
1173.97
1132.14
1073.78
1012.4
1006.77
1055.37
1142.33
1249.79
1334.96
1395.19
1448.57
1503.83
1559.8
1605.98
1645.49
1704.83
1793.44
1856.55
1884.73
1888.98
1904.36
1940.41
1972.61
1984.05
1956.05
1895.42
1785.27
1595.84
1315.78
1079.91
1052.92
1127.11
1196.7
1218.03
1225.26
1231.35
1233.66
1229.45
1221.46
1209.95
1182
1137.59
1077.9
1010.67
990.039
969.907
977.048
1027.26
1103.1
1202.54
1309.5
1406.1
1506.96
1589
1650.69
1703.02
1753.86
1786.1
1816.72
1824.06
1854.46
1873.05
1910.17
1950.93
1973.25
1945.82
1863.06
1755.69
1608.82
1436.45
1258.63
1186.35
1204.32
1222.86
1233.85
1239.58
1239.85
1233.51
1224.79
1214.71
1185.1
1139.63
1081.89
1009.29
981.595
944.545
908.447
885.818
890.718
911.588
941.217
990.178
1064.21
1151.76
1238.57
1327.05
1438.53
1552.68
1635.51
1702.5
1749.63
1798.42
1866.07
1907.45
1946.33
1949.82
1904.15
1820.2
1755.02
1773.82
1642.64
1338.28
1225.34
1226.24
1235.77
1240.95
1238.7
1230.06
1220.22
1210.17
1182.54
1142.28
1089.96
1010.91
984.997
954.831
920.07
881.344
841.31
803.585
778.547
770.813
762.352
776.328
813.477
868.288
920.454
999.715
1102.71
1246.92
1406.74
1561.96
1712.17
1842.88
1908.67
1928.09
1902.05
1848.43
1810.89
1938.34
2063.8
1660.18
1282.21
1223.54
1226.96
1232.29
1229.44
1219.81
1210.27
1199.3
1174.41
1139.7
1089.91
1009.21
985.202
955.911
925.665
892.608
855.813
816.397
775.157
734.831
702.777
674.855
662.651
680.464
704.762
737.045
786.743
869.002
963.275
1091.22
1290.81
1504.11
1695.9
1829.96
1877.83
1843.47
1814.54
2018.01
2362.56
2066.78
1454.79
1225
1215.24
1218.73
1215.12
1207.14
1200.45
1190.64
1165.59
1129.65
1073.45
1000.07
982.609
949.167
917.795
885.272
851.651
816.96
778.265
737.063
702.937
666.745
635.544
635.125
646.826
674.162
720.753
792.92
853.357
898.837
940.875
1070.97
1237.54
1465.27
1638.7
1716.79
1761.16
2012.38
2508.38
2462.07
1759.79
1261.76
1209.89
1208.86
1203.87
1195.33
1186.87
1169.94
1135.84
1088.63
1030.9
986.35
981.657
945.769
913.566
881.373
846.518
811.157
774.431
734.437
699.145
662.934
621.6
607.429
615.774
635.159
698.359
787.921
855.293
917.862
939.055
916.46
1003.54
1070.37
1182.01
1375.07
1500.99
1759.73
2501.75
2761.28
2102.04
1357.28
1195.63
1180.2
1169.42
1154.4
1135.52
1103.89
1057.36
1009.33
980.265
979.005
981.484
943.895
910.097
876.034
837.926
800.31
762.728
723.032
689.544
656.487
610.823
592.267
599.837
610.414
654.527
777.55
895.116
958.108
1000.18
982.914
958.135
987.963
1026.31
1045.5
1091.15
1293.83
2149.74
2851.19
2374.2
1507.91
1153.61
1117.78
1098.73
1071.43
1035.49
992.963
955.273
938.493
947.825
976.644
981.382
942.204
905.037
868.209
827.521
786.653
751.246
716.731
682.152
652.99
610.461
573.754
574.596
592.621
630.854
756.787
913.528
996.65
1050.7
1047.12
1001.87
1000.19
1005.7
982.27
984.184
964.34
1451.88
2428.41
2478.75
1643.13
1066.75
989.611
960.251
927.671
898.379
881.887
884.951
905.899
937.563
977.119
981.602
941.59
898.541
859.801
822.862
785.48
756.393
723.112
679.559
646.388
616.342
577.591
567.468
571.58
587.282
673.631
894.988
1016.81
1077.13
1086.55
1047.36
1021.36
1028.19
1007.18
976.015
922.768
1031.43
1838.59
2222.55
1566.71
915.882
807.439
798.843
798.068
807.559
831.321
859.166
893.739
935.481
977.678
982.936
949.485
903.26
846.518
801.266
765.182
734.16
706.114
676.796
650.19
629.05
600.965
576.24
564.508
567.141
626.521
871.357
1044.38
1112.55
1120.43
1080.21
1047.89
1052.95
1038.33
1003.16
949.336
938.997
1580.59
2016.73
1496.34
825.309
703.442
723.843
752.961
781.583
813.823
851.946
893.37
935.763
978.02
977.441
922.424
873.938
850.2
829.315
799.45
767.49
740.15
715.554
693.299
675.876
655.352
625.672
586.087
558.598
598.539
858.803
1090.92
1173.91
1182.73
1140.04
1095.07
1085.69
1074.82
1038.54
983.591
931.679
1525.4
1997.54
1538.23
841.537
683.626
705.142
738.572
773.165
811.771
852.636
893.864
935.89
978.152
966.22
911.402
865.4
817.883
783.68
764.078
748.781
739.035
727.317
707.421
685.606
659.492
616.913
564.837
547.361
592.319
850.772
1077.7
1151.08
1157.24
1121.79
1089.38
1080.34
1071.37
1042.87
993.489
932.666
1504.71
2036.9
1619.59
883.466
680.436
702.189
738.712
775.202
813.792
853.842
894.1
935.858
978.406
995.197
954.332
929.297
911.371
896.142
880.457
854.822
823.627
788.581
746.503
703.184
664.311
612.158
558.303
542.603
591.827
866.13
1091.58
1148.13
1152.32
1123.46
1096.61
1086.12
1075.75
1061.08
1048.06
995.648
1566.55
2122.29
1696.94
920.713
685.6
704.973
741.316
777.584
815.443
854.452
894.16
935.857
978.814
)
;

boundaryField
{
    inlet
    {
        type            fixedValue;
        value           uniform 10000;
    }
    outlet
    {
        type            fixedValue;
        value           uniform 1000;
    }
    obstacle
    {
        type            zeroGradient;
    }
    empty
    {
        type            empty;
    }
}


// ************************************************************************* //
