/*--------------------------------*- C++ -*----------------------------------*\
| =========                 |                                                 |
| \\      /  F ield         | OpenFOAM: The Open Source CFD Toolbox           |
|  \\    /   O peration     | Version:  v1912                                 |
|   \\  /    A nd           | Website:  www.openfoam.com                      |
|    \\/     M anipulation  |                                                 |
\*---------------------------------------------------------------------------*/
FoamFile
{
    version     2.0;
    format      ascii;
    class       volVectorField;
    location    "0.5";
    object      U;
}
// * * * * * * * * * * * * * * * * * * * * * * * * * * * * * * * * * * * * * //

dimensions      [0 1 -1 0 0 0 0];


internalField   nonuniform List<vector> 
4800
(
(-6.17844 -0.00239068 0)
(-1.42047 -0.00196372 0)
(0.59345 -0.0128465 0)
(0.6459 -0.0150429 0)
(0.670057 -0.0156765 0)
(0.661315 -0.0161175 0)
(0.643603 -0.0149033 0)
(0.41554 -0.0113395 0)
(-0.124351 -0.00418044 0)
(-0.466882 0.00229125 0)
(-0.494445 0.00556204 0)
(-0.436027 0.00623666 0)
(-0.28785 0.00701855 0)
(-0.0824696 0.00709869 0)
(0.148209 0.00530986 0)
(0.37269 0.000773345 0)
(0.548251 -0.00670173 0)
(0.665291 -0.0120272 0)
(0.739125 -0.0173852 0)
(0.759907 -0.0209711 0)
(0.709139 -0.0205821 0)
(0.416307 -0.00916337 0)
(-0.163669 0.00720788 0)
(-0.452195 0.0126511 0)
(-0.476214 0.0136009 0)
(-0.402217 0.0145825 0)
(-0.302619 0.0152696 0)
(-0.1888 0.0150953 0)
(-0.0694579 0.0143735 0)
(0.0514851 0.0122108 0)
(0.171988 0.008216 0)
(0.288916 0.00270096 0)
(0.403188 -0.00468221 0)
(0.530439 -0.0125287 0)
(0.688244 -0.0221795 0)
(0.852701 -0.0286598 0)
(0.913991 -0.0336682 0)
(0.893325 -0.0348894 0)
(0.553764 -0.0266069 0)
(-0.14524 -0.0187176 0)
(-6.18055 -0.00709161 0)
(-1.42233 -0.00123629 0)
(0.59487 -0.0254701 0)
(0.638092 -0.0288662 0)
(0.658909 -0.0322782 0)
(0.65015 -0.0365224 0)
(0.632557 -0.0452425 0)
(0.412622 -0.047567 0)
(-0.111161 -0.0328288 0)
(-0.455314 -0.0109262 0)
(-0.483325 0.00342872 0)
(-0.423807 0.0164542 0)
(-0.279129 0.0262647 0)
(-0.0787994 0.0313847 0)
(0.145577 0.0302534 0)
(0.362941 0.0209711 0)
(0.533342 0.00370298 0)
(0.645763 -0.020178 0)
(0.719298 -0.044772 0)
(0.743555 -0.061891 0)
(0.70513 -0.0755467 0)
(0.438969 -0.0667401 0)
(-0.122257 -0.0177931 0)
(-0.431365 0.0223044 0)
(-0.46726 0.033803 0)
(-0.395087 0.039011 0)
(-0.296913 0.0425866 0)
(-0.183852 0.0437505 0)
(-0.065266 0.0449592 0)
(0.0547991 0.0432733 0)
(0.173041 0.0377344 0)
(0.28721 0.0295916 0)
(0.399003 0.0212734 0)
(0.520203 0.0126956 0)
(0.666983 -0.00560861 0)
(0.818962 -0.0372858 0)
(0.873135 -0.0759482 0)
(0.857254 -0.111417 0)
(0.552529 -0.120994 0)
(-0.150941 -0.0619772 0)
(-6.18256 -0.00851231 0)
(-1.42131 0.00749012 0)
(0.604438 -0.0392283 0)
(0.641609 -0.0465378 0)
(0.658723 -0.051718 0)
(0.648251 -0.0571349 0)
(0.627192 -0.0670679 0)
(0.418783 -0.067899 0)
(-0.0807381 -0.045886 0)
(-0.434475 -0.0134248 0)
(-0.468321 0.00766627 0)
(-0.410142 0.0262135 0)
(-0.271886 0.0389876 0)
(-0.080281 0.0447527 0)
(0.133916 0.0412721 0)
(0.342569 0.0268406 0)
(0.510543 0.00141657 0)
(0.622276 -0.0317299 0)
(0.699401 -0.0656319 0)
(0.730329 -0.0893874 0)
(0.713079 -0.104121 0)
(0.487805 -0.0913854 0)
(-0.0456552 -0.0240801 0)
(-0.403445 0.0396493 0)
(-0.462163 0.0569323 0)
(-0.39442 0.0628899 0)
(-0.298467 0.0656413 0)
(-0.187565 0.0650573 0)
(-0.0724708 0.0638542 0)
(0.0440755 0.0579056 0)
(0.159724 0.0481599 0)
(0.27254 0.038776 0)
(0.383462 0.0281268 0)
(0.499389 0.0130214 0)
(0.636912 -0.0158559 0)
(0.782051 -0.0619548 0)
(0.827532 -0.113506 0)
(0.813774 -0.161205 0)
(0.575648 -0.169973 0)
(-0.0849205 -0.0786005 0)
(-6.18441 -0.00979736 0)
(-1.4208 0.0167849 0)
(0.613887 -0.0505776 0)
(0.643739 -0.059548 0)
(0.655876 -0.0649453 0)
(0.640679 -0.0710133 0)
(0.617067 -0.0806281 0)
(0.423061 -0.0804638 0)
(-0.0432679 -0.0532925 0)
(-0.407178 -0.0119637 0)
(-0.450484 0.0143505 0)
(-0.392631 0.0345776 0)
(-0.261734 0.0488247 0)
(-0.0790895 0.0539236 0)
(0.123237 0.0503632 0)
(0.319899 0.0317829 0)
(0.483001 -0.000668018 0)
(0.593562 -0.0427709 0)
(0.675294 -0.0822975 0)
(0.71709 -0.108894 0)
(0.716946 -0.121511 0)
(0.54207 -0.107674 0)
(0.0547 -0.0293914 0)
(-0.360964 0.0536479 0)
(-0.450323 0.0771473 0)
(-0.391228 0.0841212 0)
(-0.298384 0.0861384 0)
(-0.190441 0.0829596 0)
(-0.078006 0.0798656 0)
(0.0374501 0.0729446 0)
(0.153464 0.0638005 0)
(0.266784 0.0558118 0)
(0.373265 0.0459965 0)
(0.473705 0.0250633 0)
(0.590544 -0.0140371 0)
(0.72644 -0.0776833 0)
(0.775496 -0.144362 0)
(0.763758 -0.192867 0)
(0.596179 -0.204708 0)
(0.0283906 -0.110522 0)
(-6.18556 -0.00982543 0)
(-1.41991 0.0300921 0)
(0.622926 -0.0591855 0)
(0.646092 -0.0691488 0)
(0.653379 -0.070311 0)
(0.633423 -0.0772473 0)
(0.606898 -0.0849395 0)
(0.428601 -0.0830857 0)
(0.000338372 -0.0535695 0)
(-0.373862 -0.00683967 0)
(-0.431076 0.0215923 0)
(-0.373042 0.0405599 0)
(-0.25072 0.0531524 0)
(-0.0788802 0.0555373 0)
(0.110574 0.0475732 0)
(0.294556 0.0256865 0)
(0.452303 -0.00960971 0)
(0.563189 -0.0526185 0)
(0.648662 -0.0893765 0)
(0.703961 -0.116055 0)
(0.720629 -0.123945 0)
(0.596494 -0.112093 0)
(0.166954 -0.0365836 0)
(-0.304703 0.0586065 0)
(-0.433326 0.0906821 0)
(-0.388076 0.0993797 0)
(-0.298837 0.100791 0)
(-0.194816 0.0970214 0)
(-0.0869956 0.0931611 0)
(0.0255199 0.0837793 0)
(0.141465 0.0722597 0)
(0.254734 0.0606651 0)
(0.35613 0.0452688 0)
(0.44216 0.0174962 0)
(0.535114 -0.0231783 0)
(0.653504 -0.0844322 0)
(0.719604 -0.151692 0)
(0.712735 -0.196343 0)
(0.610805 -0.207643 0)
(0.160399 -0.133769 0)
(-6.18544 -0.00953025 0)
(-1.41779 0.0426895 0)
(0.630001 -0.0627949 0)
(0.649192 -0.0725203 0)
(0.652778 -0.0691469 0)
(0.628582 -0.0752554 0)
(0.599498 -0.0816069 0)
(0.43675 -0.0786306 0)
(0.0469986 -0.0492627 0)
(-0.337161 -0.0011625 0)
(-0.411594 0.0268383 0)
(-0.355045 0.0443095 0)
(-0.242226 0.0524723 0)
(-0.0816937 0.0503528 0)
(0.0951188 0.0382649 0)
(0.266952 0.0146477 0)
(0.41952 -0.0192355 0)
(0.535238 -0.0581729 0)
(0.624163 -0.0887745 0)
(0.691472 -0.111271 0)
(0.72332 -0.118763 0)
(0.643745 -0.111971 0)
(0.276938 -0.0468565 0)
(-0.234665 0.0519441 0)
(-0.409617 0.0935472 0)
(-0.384754 0.103434 0)
(-0.299286 0.106377 0)
(-0.198677 0.104002 0)
(-0.0947074 0.101588 0)
(0.0136171 0.0941744 0)
(0.126211 0.0813964 0)
(0.23484 0.0635104 0)
(0.32882 0.0394241 0)
(0.404326 0.00611536 0)
(0.480661 -0.032538 0)
(0.583547 -0.0808202 0)
(0.667974 -0.136235 0)
(0.665893 -0.178429 0)
(0.61035 -0.191851 0)
(0.278179 -0.144393 0)
(-6.18403 -0.00917603 0)
(-1.4139 0.0524663 0)
(0.634787 -0.0602348 0)
(0.652197 -0.0699691 0)
(0.65241 -0.063344 0)
(0.624253 -0.068692 0)
(0.593783 -0.0738551 0)
(0.447018 -0.0705473 0)
(0.0936791 -0.0430396 0)
(-0.300173 0.00306195 0)
(-0.392047 0.0298397 0)
(-0.341707 0.0445219 0)
(-0.237613 0.0468084 0)
(-0.0888623 0.038887 0)
(0.0773992 0.0240648 0)
(0.240716 0.00128319 0)
(0.389417 -0.0269856 0)
(0.511183 -0.057627 0)
(0.602028 -0.0812192 0)
(0.678408 -0.100304 0)
(0.7227 -0.110622 0)
(0.678302 -0.109352 0)
(0.372827 -0.0613007 0)
(-0.15577 0.0318323 0)
(-0.380637 0.0823759 0)
(-0.380568 0.0953515 0)
(-0.297838 0.099765 0)
(-0.199827 0.0982257 0)
(-0.0994939 0.096865 0)
(0.00231358 0.0891359 0)
(0.107109 0.0752229 0)
(0.207663 0.0555051 0)
(0.294717 0.0302383 0)
(0.365689 5.50693e-05 0)
(0.435177 -0.0314145 0)
(0.529439 -0.0657357 0)
(0.61777 -0.107297 0)
(0.627217 -0.144369 0)
(0.597293 -0.160032 0)
(0.362415 -0.13763 0)
(-6.18175 -0.00900798 0)
(-1.40815 0.0589349 0)
(0.636188 -0.052429 0)
(0.654183 -0.0624429 0)
(0.65156 -0.054398 0)
(0.620407 -0.058747 0)
(0.59009 -0.0625565 0)
(0.458583 -0.0591642 0)
(0.137304 -0.0346745 0)
(-0.265131 0.00664322 0)
(-0.374426 0.0313651 0)
(-0.334541 0.0411415 0)
(-0.239639 0.0379278 0)
(-0.100804 0.0264851 0)
(0.0584746 0.0110788 0)
(0.217958 -0.00726799 0)
(0.366093 -0.0279241 0)
(0.491893 -0.0494883 0)
(0.582501 -0.0662594 0)
(0.662966 -0.0833122 0)
(0.714266 -0.100818 0)
(0.697461 -0.106629 0)
(0.447513 -0.0766472 0)
(-0.0700292 0.00472782 0)
(-0.34667 0.0593975 0)
(-0.376406 0.0743863 0)
(-0.297062 0.0809039 0)
(-0.20239 0.0787161 0)
(-0.105671 0.0780337 0)
(-0.0106523 0.0738303 0)
(0.0852123 0.0635117 0)
(0.178289 0.0490499 0)
(0.261496 0.0294445 0)
(0.33196 0.00736047 0)
(0.399862 -0.015855 0)
(0.48741 -0.0403497 0)
(0.572143 -0.0709782 0)
(0.591295 -0.10107 0)
(0.576607 -0.11748 0)
(0.411128 -0.1143 0)
(-6.17902 -0.00921975 0)
(-1.40129 0.0588866 0)
(0.632486 -0.0402198 0)
(0.652465 -0.0512286 0)
(0.647654 -0.0430113 0)
(0.615657 -0.0440491 0)
(0.587168 -0.0487182 0)
(0.470246 -0.0456559 0)
(0.17569 -0.025101 0)
(-0.233813 0.00982052 0)
(-0.361904 0.0295967 0)
(-0.333212 0.0340604 0)
(-0.247096 0.0271804 0)
(-0.115846 0.0153173 0)
(0.0396848 0.00292324 0)
(0.199243 -0.0109374 0)
(0.349661 -0.0235078 0)
(0.476594 -0.0358922 0)
(0.565398 -0.0480956 0)
(0.645197 -0.063451 0)
(0.697883 -0.0850457 0)
(0.697215 -0.100638 0)
(0.498639 -0.0895412 0)
(0.0144595 -0.0268297 0)
(-0.309912 0.0345663 0)
(-0.368316 0.0467162 0)
(-0.300397 0.052564 0)
(-0.207206 0.0509156 0)
(-0.112215 0.0520424 0)
(-0.0216616 0.0532463 0)
(0.0673288 0.0512879 0)
(0.155245 0.0464966 0)
(0.235487 0.0355062 0)
(0.304711 0.0219211 0)
(0.372254 0.0078518 0)
(0.453989 -0.00882663 0)
(0.532868 -0.0300108 0)
(0.558951 -0.0526004 0)
(0.550985 -0.0692442 0)
(0.431999 -0.0770589 0)
(-6.17586 -0.0118211 0)
(-1.39295 0.0504747 0)
(0.624741 -0.0267125 0)
(0.648257 -0.0374033 0)
(0.642933 -0.0276096 0)
(0.611367 -0.0290555 0)
(0.585259 -0.0329333 0)
(0.480414 -0.0300354 0)
(0.206288 -0.014379 0)
(-0.208477 0.01251 0)
(-0.356112 0.0273867 0)
(-0.336425 0.0276411 0)
(-0.257742 0.0183238 0)
(-0.131577 0.00572182 0)
(0.0224409 -0.00591603 0)
(0.183617 -0.0140788 0)
(0.336465 -0.0186439 0)
(0.462127 -0.0237051 0)
(0.548353 -0.0304451 0)
(0.624232 -0.0436213 0)
(0.673748 -0.0662267 0)
(0.6829 -0.0887035 0)
(0.524784 -0.0941846 0)
(0.0852181 -0.0535966 0)
(-0.274623 0.00382154 0)
(-0.356836 0.0256708 0)
(-0.303461 0.0334416 0)
(-0.210285 0.0310419 0)
(-0.116297 0.0325936 0)
(-0.0282352 0.0367204 0)
(0.0561932 0.0389994 0)
(0.138939 0.0432534 0)
(0.217014 0.042017 0)
(0.285009 0.0373413 0)
(0.351079 0.032165 0)
(0.428058 0.0245326 0)
(0.500669 0.0123869 0)
(0.528944 -0.00404166 0)
(0.522187 -0.0216656 0)
(0.435315 -0.0338222 0)
(-6.17306 -0.0162757 0)
(-1.38377 0.0327648 0)
(0.614922 -0.0118217 0)
(0.643076 -0.0209733 0)
(0.636527 -0.0166201 0)
(0.607507 -0.0163343 0)
(0.584213 -0.0176011 0)
(0.488503 -0.0140871 0)
(0.227588 -0.00224908 0)
(-0.192557 0.0153178 0)
(-0.355525 0.0235403 0)
(-0.343653 0.0230572 0)
(-0.270881 0.0156363 0)
(-0.14682 0.00796424 0)
(0.00937792 0.000814125 0)
(0.175579 -0.00442273 0)
(0.329845 -0.00768445 0)
(0.450769 -0.0116149 0)
(0.532258 -0.0154804 0)
(0.601737 -0.0251121 0)
(0.644777 -0.0465751 0)
(0.656517 -0.0712999 0)
(0.52575 -0.0899133 0)
(0.135663 -0.0710109 0)
(-0.237768 -0.0237877 0)
(-0.342063 0.00251484 0)
(-0.302715 0.0164239 0)
(-0.210708 0.0231858 0)
(-0.117622 0.0257828 0)
(-0.0311579 0.0305797 0)
(0.0500104 0.0350365 0)
(0.128951 0.0402866 0)
(0.205137 0.0445476 0)
(0.274682 0.0491005 0)
(0.339623 0.0527298 0)
(0.410125 0.0536711 0)
(0.474716 0.0512723 0)
(0.50021 0.0401768 0)
(0.487956 0.0201876 0)
(0.423728 0.00658287 0)
(-6.17116 -0.0214727 0)
(-1.37404 0.00341913 0)
(0.605682 0.000686501 0)
(0.638626 -0.0077485 0)
(0.630966 -0.00732716 0)
(0.605444 -0.00742747 0)
(0.585065 -0.00444131 0)
(0.495251 -0.00061928 0)
(0.240118 0.00654692 0)
(-0.186312 0.013723 0)
(-0.359989 0.0152794 0)
(-0.352847 0.0127657 0)
(-0.283756 0.00719138 0)
(-0.160108 0.000825405 0)
(-0.00210717 -0.00466824 0)
(0.168423 -0.00485892 0)
(0.326012 0.00126957 0)
(0.443856 0.0037891 0)
(0.519504 0.00158429 0)
(0.579847 -0.00679374 0)
(0.613962 -0.0273218 0)
(0.620442 -0.0535406 0)
(0.507922 -0.0809223 0)
(0.163797 -0.0807607 0)
(-0.199963 -0.0476973 0)
(-0.320898 -0.021296 0)
(-0.297166 -0.00508426 0)
(-0.20721 0.00601104 0)
(-0.116668 0.0115538 0)
(-0.0316532 0.0172216 0)
(0.0472579 0.0225801 0)
(0.123812 0.0301947 0)
(0.199358 0.0385409 0)
(0.270537 0.0468183 0)
(0.336222 0.0601994 0)
(0.403074 0.0710421 0)
(0.45844 0.0792566 0)
(0.475386 0.0748268 0)
(0.455917 0.0566886 0)
(0.398256 0.0350955 0)
(-6.17145 -0.0249574 0)
(-1.3699 -0.0258142 0)
(0.591682 0.0069929 0)
(0.62921 0.00442401 0)
(0.624837 0.000908586 0)
(0.604504 -0.00133528 0)
(0.588829 0.00483609 0)
(0.501294 0.00615632 0)
(0.243812 0.00755573 0)
(-0.189012 0.00593543 0)
(-0.366936 -0.000515603 0)
(-0.360794 -0.00496417 0)
(-0.291076 -0.00781747 0)
(-0.167021 -0.00788795 0)
(-0.0075567 -0.00648008 0)
(0.166596 -0.00273006 0)
(0.325675 0.00578134 0)
(0.439627 0.0112841 0)
(0.510562 0.0129799 0)
(0.560202 0.00779606 0)
(0.581647 -0.0099978 0)
(0.579222 -0.0389823 0)
(0.476334 -0.0714616 0)
(0.168936 -0.0882444 0)
(-0.169386 -0.0708056 0)
(-0.298034 -0.047739 0)
(-0.282112 -0.0301265 0)
(-0.200527 -0.016505 0)
(-0.113007 -0.00977449 0)
(-0.0323564 -0.00540793 0)
(0.0441314 -0.000896609 0)
(0.121695 0.00747331 0)
(0.199694 0.019294 0)
(0.273667 0.0328119 0)
(0.340955 0.0505866 0)
(0.403599 0.0684547 0)
(0.446558 0.0817709 0)
(0.452783 0.0829224 0)
(0.429262 0.0726949 0)
(0.372969 0.0533192 0)
(-6.17349 -0.025161 0)
(-1.37039 -0.0440281 0)
(0.57653 0.0113901 0)
(0.620783 0.0131216 0)
(0.623051 0.00669558 0)
(0.605008 0.00252944 0)
(0.593568 0.00899092 0)
(0.504412 0.00714353 0)
(0.239788 0.00506681 0)
(-0.200753 -0.00483141 0)
(-0.377201 -0.0188293 0)
(-0.367737 -0.024608 0)
(-0.29346 -0.0247888 0)
(-0.165897 -0.0193496 0)
(-0.00488113 -0.0106686 0)
(0.169067 -0.00185795 0)
(0.326818 0.00910321 0)
(0.436954 0.0180712 0)
(0.505273 0.0233486 0)
(0.541947 0.0176792 0)
(0.550115 0.00277212 0)
(0.535619 -0.0283246 0)
(0.435209 -0.0632251 0)
(0.15852 -0.0902221 0)
(-0.148809 -0.0868161 0)
(-0.278081 -0.0695853 0)
(-0.267077 -0.0541931 0)
(-0.193539 -0.0428219 0)
(-0.108821 -0.0378791 0)
(-0.031203 -0.0351821 0)
(0.0443085 -0.0309492 0)
(0.122799 -0.0206616 0)
(0.203496 -0.00681663 0)
(0.279586 0.00948053 0)
(0.348027 0.0274938 0)
(0.408207 0.0469266 0)
(0.441215 0.0575201 0)
(0.438882 0.0610592 0)
(0.412115 0.0563212 0)
(0.353842 0.0461462 0)
(-6.17596 -0.0257184 0)
(-1.37752 -0.0671222 0)
(0.561014 0.0116648 0)
(0.610468 0.0156649 0)
(0.619473 0.0106868 0)
(0.605655 0.00705073 0)
(0.598451 0.0119577 0)
(0.505544 0.00711603 0)
(0.230515 -0.00266607 0)
(-0.218168 -0.0170209 0)
(-0.388276 -0.0352961 0)
(-0.372855 -0.04127 0)
(-0.291963 -0.0392829 0)
(-0.16014 -0.0293415 0)
(0.00261719 -0.0160489 0)
(0.176152 -0.00404232 0)
(0.331742 0.0108573 0)
(0.435429 0.0238701 0)
(0.500299 0.0278999 0)
(0.52521 0.0240428 0)
(0.521246 0.0121854 0)
(0.49218 -0.0178292 0)
(0.389557 -0.0580143 0)
(0.141599 -0.085622 0)
(-0.137024 -0.0929802 0)
(-0.261166 -0.082834 0)
(-0.254459 -0.0714882 0)
(-0.18883 -0.0629924 0)
(-0.106796 -0.0599757 0)
(-0.0290782 -0.0576914 0)
(0.0483683 -0.0523451 0)
(0.128358 -0.0409671 0)
(0.209181 -0.0274894 0)
(0.285601 -0.0133206 0)
(0.353351 0.00184695 0)
(0.406545 0.0151362 0)
(0.433418 0.0181528 0)
(0.429431 0.0209801 0)
(0.40191 0.0185431 0)
(0.343955 0.0147358 0)
(-6.1798 -0.0241181 0)
(-1.39146 -0.0809885 0)
(0.547374 0.0129254 0)
(0.600605 0.0194671 0)
(0.615044 0.0153327 0)
(0.606261 0.0129956 0)
(0.601852 0.014109 0)
(0.503304 0.00695404 0)
(0.213967 -0.00515964 0)
(-0.239509 -0.0260473 0)
(-0.398456 -0.0463951 0)
(-0.375668 -0.0525944 0)
(-0.286644 -0.0496495 0)
(-0.149572 -0.0374167 0)
(0.0151526 -0.0200926 0)
(0.187563 -0.00347663 0)
(0.338689 0.016242 0)
(0.434602 0.0272026 0)
(0.495811 0.0335385 0)
(0.509566 0.0300112 0)
(0.494232 0.0173224 0)
(0.450879 -0.0112188 0)
(0.345393 -0.0501201 0)
(0.121022 -0.0811048 0)
(-0.132005 -0.092775 0)
(-0.247212 -0.088799 0)
(-0.243821 -0.0823631 0)
(-0.185089 -0.0772263 0)
(-0.103628 -0.0746823 0)
(-0.0245195 -0.0704804 0)
(0.0543421 -0.0624822 0)
(0.133899 -0.050329 0)
(0.21277 -0.0374719 0)
(0.287753 -0.0260867 0)
(0.352548 -0.0188255 0)
(0.39876 -0.0177678 0)
(0.420739 -0.021478 0)
(0.418144 -0.0216912 0)
(0.391956 -0.0238797 0)
(0.338555 -0.0243194 0)
(-6.18464 -0.019371 0)
(-1.40802 -0.0859281 0)
(0.538146 0.0169501 0)
(0.590276 0.0227419 0)
(0.608691 0.0211431 0)
(0.605874 0.0229113 0)
(0.603933 0.0239597 0)
(0.498039 0.0156562 0)
(0.191451 -0.00208874 0)
(-0.263468 -0.0294295 0)
(-0.408503 -0.0508113 0)
(-0.377236 -0.0570502 0)
(-0.281054 -0.056091 0)
(-0.138097 -0.0443061 0)
(0.0307959 -0.0226484 0)
(0.202443 -0.00163637 0)
(0.346708 0.0187912 0)
(0.434188 0.0333612 0)
(0.489737 0.0388477 0)
(0.493522 0.0332208 0)
(0.467653 0.0184962 0)
(0.413043 -0.00886633 0)
(0.304874 -0.0435955 0)
(0.0998332 -0.0752934 0)
(-0.129804 -0.0877638 0)
(-0.236127 -0.0892215 0)
(-0.234464 -0.0878843 0)
(-0.180766 -0.0862193 0)
(-0.0977743 -0.0835901 0)
(-0.0168432 -0.0775472 0)
(0.0620895 -0.0678855 0)
(0.140092 -0.0531281 0)
(0.214762 -0.0387515 0)
(0.284429 -0.0303094 0)
(0.341163 -0.0301986 0)
(0.378737 -0.0343128 0)
(0.399035 -0.0410389 0)
(0.399965 -0.0470054 0)
(0.381121 -0.0500628 0)
(0.33841 -0.0496603 0)
(-6.18963 -0.0158182 0)
(-1.423 -0.0892988 0)
(0.535228 0.0242944 0)
(0.582054 0.0332232 0)
(0.604931 0.0347286 0)
(0.607317 0.0384234 0)
(0.604228 0.037616 0)
(0.487349 0.0291792 0)
(0.160887 0.0062118 0)
(-0.291005 -0.0257734 0)
(-0.419841 -0.0468888 0)
(-0.379577 -0.0531856 0)
(-0.275191 -0.0542311 0)
(-0.125066 -0.0441703 0)
(0.048989 -0.0231363 0)
(0.220339 0.00125399 0)
(0.354569 0.0264132 0)
(0.435363 0.0404867 0)
(0.480037 0.0420724 0)
(0.475601 0.0351637 0)
(0.442384 0.0204439 0)
(0.380653 -0.00100768 0)
(0.270683 -0.0293417 0)
(0.0777845 -0.060191 0)
(-0.133198 -0.0806317 0)
(-0.23037 -0.0873929 0)
(-0.22729 -0.0902713 0)
(-0.173826 -0.0900318 0)
(-0.0886228 -0.0880589 0)
(-0.005087 -0.082279 0)
(0.0745806 -0.071224 0)
(0.1494 -0.0555835 0)
(0.217635 -0.0375155 0)
(0.278457 -0.0268919 0)
(0.325732 -0.0269519 0)
(0.356698 -0.0358299 0)
(0.375572 -0.0456433 0)
(0.37888 -0.05552 0)
(0.367494 -0.0608044 0)
(0.334061 -0.063903 0)
(-6.19512 -0.0149162 0)
(-1.43528 -0.0954876 0)
(0.540733 0.034442 0)
(0.579943 0.0477176 0)
(0.6045 0.051493 0)
(0.607122 0.0535557 0)
(0.601626 0.050289 0)
(0.471239 0.0427896 0)
(0.122948 0.0163738 0)
(-0.31992 -0.0193006 0)
(-0.431742 -0.0381043 0)
(-0.382682 -0.0441913 0)
(-0.272727 -0.0456072 0)
(-0.114577 -0.035865 0)
(0.0670664 -0.0163356 0)
(0.238926 0.00750847 0)
(0.364401 0.0310608 0)
(0.436829 0.0440778 0)
(0.469371 0.044096 0)
(0.460086 0.0382567 0)
(0.423252 0.0274113 0)
(0.358073 0.0155236 0)
(0.244547 -0.00359005 0)
(0.0524195 -0.0328165 0)
(-0.147559 -0.0611007 0)
(-0.231832 -0.0793801 0)
(-0.222847 -0.0871121 0)
(-0.166191 -0.0905527 0)
(-0.0795419 -0.0877526 0)
(0.00935604 -0.0787459 0)
(0.0907117 -0.0638855 0)
(0.16108 -0.0445483 0)
(0.22193 -0.0281265 0)
(0.273159 -0.0173676 0)
(0.31255 -0.012714 0)
(0.338344 -0.0194584 0)
(0.352257 -0.0301475 0)
(0.355838 -0.0432633 0)
(0.347313 -0.0533134 0)
(0.319689 -0.0624023 0)
(-6.2012 -0.0140143 0)
(-1.44341 -0.0978177 0)
(0.55445 0.0452715 0)
(0.583647 0.059436 0)
(0.605969 0.0635665 0)
(0.605965 0.0637566 0)
(0.597209 0.0588855 0)
(0.451527 0.0526605 0)
(0.0804305 0.0233824 0)
(-0.348378 -0.0135632 0)
(-0.444262 -0.0283559 0)
(-0.388429 -0.0346654 0)
(-0.271573 -0.0368303 0)
(-0.103454 -0.0285383 0)
(0.0857698 -0.00946838 0)
(0.256089 0.0130647 0)
(0.373607 0.0326219 0)
(0.438181 0.044169 0)
(0.461935 0.0448731 0)
(0.450966 0.0438657 0)
(0.414306 0.0420239 0)
(0.346849 0.0405601 0)
(0.223882 0.0282875 0)
(0.0227138 0.00114326 0)
(-0.171505 -0.0316857 0)
(-0.242432 -0.0575187 0)
(-0.225036 -0.0727775 0)
(-0.159209 -0.0789679 0)
(-0.0690984 -0.0750118 0)
(0.0246756 -0.0640278 0)
(0.105168 -0.0487192 0)
(0.170891 -0.0318467 0)
(0.225236 -0.0191106 0)
(0.267977 -0.00727802 0)
(0.298946 -0.000460982 0)
(0.320044 -0.000682198 0)
(0.327487 -0.00737497 0)
(0.333064 -0.0157406 0)
(0.327699 -0.0273634 0)
(0.303346 -0.0406971 0)
(-6.20714 -0.0135296 0)
(-1.44739 -0.0948538 0)
(0.572094 0.0539445 0)
(0.591652 0.065578 0)
(0.609708 0.0694479 0)
(0.604882 0.0690998 0)
(0.591317 0.0625258 0)
(0.428799 0.0560463 0)
(0.034457 0.022307 0)
(-0.375418 -0.0157555 0)
(-0.455407 -0.0253781 0)
(-0.394834 -0.0293205 0)
(-0.272112 -0.030331 0)
(-0.0944244 -0.0223358 0)
(0.101555 -0.00469015 0)
(0.270244 0.0154757 0)
(0.383003 0.0290379 0)
(0.442048 0.0409729 0)
(0.460386 0.0488954 0)
(0.450338 0.0554467 0)
(0.416322 0.0618366 0)
(0.34708 0.0676771 0)
(0.209519 0.0623732 0)
(-0.00963628 0.0352452 0)
(-0.201388 -0.00157895 0)
(-0.259135 -0.0298951 0)
(-0.23026 -0.0469898 0)
(-0.15419 -0.053768 0)
(-0.0601067 -0.0505261 0)
(0.0347397 -0.0417097 0)
(0.114512 -0.0315796 0)
(0.178296 -0.0200869 0)
(0.229916 -0.0103221 0)
(0.268794 0.0040963 0)
(0.295545 0.0166338 0)
(0.306972 0.0231139 0)
(0.306404 0.022108 0)
(0.307095 0.0139977 0)
(0.300327 0.000581965 0)
(0.277916 -0.0159115 0)
(-6.21283 -0.0119183 0)
(-1.4484 -0.0876127 0)
(0.590978 0.0596503 0)
(0.60194 0.0669365 0)
(0.6134 0.0691987 0)
(0.600871 0.0698957 0)
(0.582033 0.0599606 0)
(0.402469 0.0493051 0)
(-0.0148892 0.0097121 0)
(-0.398419 -0.0277666 0)
(-0.46268 -0.0319955 0)
(-0.399761 -0.0308024 0)
(-0.271848 -0.0286932 0)
(-0.0859676 -0.0202469 0)
(0.114205 -0.0047359 0)
(0.280954 0.0124319 0)
(0.391494 0.025327 0)
(0.447463 0.0361967 0)
(0.46394 0.0439683 0)
(0.457284 0.057322 0)
(0.427112 0.0760113 0)
(0.355073 0.0924861 0)
(0.196659 0.0898318 0)
(-0.0466801 0.061936 0)
(-0.232842 0.0218364 0)
(-0.274206 -0.00473332 0)
(-0.234105 -0.0210068 0)
(-0.151062 -0.0267186 0)
(-0.0545225 -0.0246406 0)
(0.0407704 -0.019011 0)
(0.119878 -0.0136826 0)
(0.18358 -0.00646813 0)
(0.235891 0.000671218 0)
(0.275854 0.0155233 0)
(0.298962 0.0334556 0)
(0.307752 0.0469907 0)
(0.2993 0.0539392 0)
(0.289417 0.049311 0)
(0.2766 0.0353855 0)
(0.249821 0.0164568 0)
(-6.21834 -0.0100904 0)
(-1.44767 -0.0793537 0)
(0.609615 0.0593863 0)
(0.611921 0.0649271 0)
(0.615642 0.0619698 0)
(0.595409 0.0650076 0)
(0.568457 0.0528259 0)
(0.37127 0.0354534 0)
(-0.066963 -0.0112771 0)
(-0.415014 -0.0459286 0)
(-0.463217 -0.0426281 0)
(-0.400849 -0.0390623 0)
(-0.266411 -0.0322001 0)
(-0.0761277 -0.0239667 0)
(0.125331 -0.00981848 0)
(0.289773 0.00334079 0)
(0.399612 0.0118947 0)
(0.454364 0.0193298 0)
(0.474471 0.0286183 0)
(0.47381 0.0471469 0)
(0.448566 0.0732587 0)
(0.370654 0.0958719 0)
(0.183303 0.100457 0)
(-0.0879676 0.0715878 0)
(-0.265005 0.0304887 0)
(-0.288839 0.00794491 0)
(-0.236004 -0.00514798 0)
(-0.146025 -0.0071714 0)
(-0.0487172 -0.00318062 0)
(0.0465162 0.00064814 0)
(0.124923 0.0028906 0)
(0.189152 0.00849767 0)
(0.242951 0.0151546 0)
(0.283644 0.0300288 0)
(0.30181 0.0493689 0)
(0.306376 0.0664207 0)
(0.288182 0.0768561 0)
(0.272454 0.0786661 0)
(0.253496 0.0698448 0)
(0.218377 0.0507501 0)
(-6.22426 -0.00798963 0)
(-1.44653 -0.0742606 0)
(0.625743 0.0576409 0)
(0.61865 0.061653 0)
(0.616462 0.0522123 0)
(0.588912 0.0580607 0)
(0.54876 0.0446733 0)
(0.333632 0.0193268 0)
(-0.120524 -0.0338248 0)
(-0.424664 -0.0645906 0)
(-0.457056 -0.0584687 0)
(-0.392807 -0.0480524 0)
(-0.253966 -0.0365078 0)
(-0.0635017 -0.0258242 0)
(0.135524 -0.0135706 0)
(0.297501 -0.00307585 0)
(0.405921 0.00341622 0)
(0.460691 0.00648461 0)
(0.487062 0.0140415 0)
(0.493721 0.0312138 0)
(0.474613 0.0551091 0)
(0.389487 0.0779315 0)
(0.168537 0.0812854 0)
(-0.126374 0.0504714 0)
(-0.290685 0.0167608 0)
(-0.298314 0.00434892 0)
(-0.235272 0.000868641 0)
(-0.140653 0.00542312 0)
(-0.0435628 0.012297 0)
(0.0512635 0.0147829 0)
(0.128735 0.0159638 0)
(0.1921 0.0238678 0)
(0.246634 0.0337584 0)
(0.290652 0.0465778 0)
(0.308803 0.0655926 0)
(0.310706 0.0845356 0)
(0.285486 0.0986985 0)
(0.264186 0.106571 0)
(0.231637 0.101232 0)
(0.177159 0.0780074 0)
(-6.23064 -0.00839487 0)
(-1.44528 -0.075653 0)
(0.637161 0.054057 0)
(0.621588 0.0594617 0)
(0.615524 0.0458852 0)
(0.580335 0.0549787 0)
(0.523316 0.0392537 0)
(0.287594 0.0066289 0)
(-0.171636 -0.0536302 0)
(-0.425633 -0.0807402 0)
(-0.442383 -0.0711096 0)
(-0.375094 -0.0548007 0)
(-0.233696 -0.0367408 0)
(-0.0465791 -0.021905 0)
(0.146664 -0.00792412 0)
(0.304406 0.00238283 0)
(0.40864 0.00847067 0)
(0.463426 0.00782397 0)
(0.494668 0.0117944 0)
(0.505309 0.0220395 0)
(0.492855 0.0366182 0)
(0.405713 0.0480671 0)
(0.15572 0.0355838 0)
(-0.153031 0.00123231 0)
(-0.300253 -0.0168199 0)
(-0.293029 -0.013791 0)
(-0.223254 -0.00434433 0)
(-0.126426 0.00816204 0)
(-0.0318004 0.0211501 0)
(0.0608142 0.0285496 0)
(0.133846 0.0374511 0)
(0.196722 0.0453767 0)
(0.252758 0.0531674 0)
(0.299184 0.0638172 0)
(0.318056 0.0817003 0)
(0.317958 0.102089 0)
(0.289547 0.1213 0)
(0.261709 0.133154 0)
(0.208525 0.130961 0)
(0.119289 0.0921838 0)
(-6.237 -0.00847128 0)
(-1.4428 -0.0801853 0)
(0.644925 0.0509854 0)
(0.623204 0.0602567 0)
(0.612663 0.0457053 0)
(0.570496 0.0578814 0)
(0.492425 0.0407964 0)
(0.231143 -0.00113396 0)
(-0.219638 -0.0678358 0)
(-0.420261 -0.0914665 0)
(-0.420509 -0.0791003 0)
(-0.347679 -0.0574372 0)
(-0.205774 -0.0346213 0)
(-0.0240634 -0.014027 0)
(0.161336 0.00441379 0)
(0.311645 0.0177163 0)
(0.408852 0.0244744 0)
(0.464001 0.0249 0)
(0.498822 0.0294321 0)
(0.512691 0.0351489 0)
(0.50379 0.0360435 0)
(0.405658 0.0229177 0)
(0.124108 -0.0118459 0)
(-0.182252 -0.0594313 0)
(-0.301169 -0.0783309 0)
(-0.27449 -0.0737028 0)
(-0.195518 -0.0493236 0)
(-0.100671 -0.017729 0)
(-0.014628 0.0139168 0)
(0.0694528 0.0321663 0)
(0.138703 0.0483498 0)
(0.200642 0.0613526 0)
(0.257536 0.0732087 0)
(0.305462 0.0840655 0)
(0.32592 0.0991347 0)
(0.328357 0.117716 0)
(0.300105 0.135645 0)
(0.261713 0.150603 0)
(0.17673 0.146946 0)
(0.0441725 0.090752 0)
(-6.24118 -0.0122462 0)
(-1.43776 -0.0876297 0)
(0.65132 0.0503191 0)
(0.624536 0.0630706 0)
(0.61006 0.0504182 0)
(0.559299 0.0643737 0)
(0.456707 0.0441234 0)
(0.163449 -0.00583263 0)
(-0.262888 -0.0784322 0)
(-0.4108 -0.0970514 0)
(-0.393582 -0.0853346 0)
(-0.313802 -0.061601 0)
(-0.171269 -0.0343013 0)
(0.00500224 -0.00817527 0)
(0.182552 0.016285 0)
(0.324534 0.036235 0)
(0.412821 0.0476644 0)
(0.467972 0.0533666 0)
(0.499547 0.0586329 0)
(0.513289 0.0568436 0)
(0.502485 0.0425962 0)
(0.380908 0.016487 0)
(0.0693854 -0.0371687 0)
(-0.216747 -0.101862 0)
(-0.300974 -0.120283 0)
(-0.255339 -0.124841 0)
(-0.161815 -0.105052 0)
(-0.0590729 -0.0726012 0)
(0.026605 -0.0285948 0)
(0.0950047 0.0147656 0)
(0.156716 0.0506059 0)
(0.212501 0.0731903 0)
(0.268034 0.0901512 0)
(0.313876 0.105187 0)
(0.333879 0.117551 0)
(0.337953 0.130098 0)
(0.31139 0.149404 0)
(0.259435 0.161721 0)
(0.128712 0.141491 0)
(-0.0394575 0.0694695 0)
(-6.24351 -0.0176364 0)
(-1.43057 -0.0931887 0)
(0.657226 0.0532771 0)
(0.625854 0.0687308 0)
(0.609599 0.0553523 0)
(0.547876 0.0701459 0)
(0.417213 0.0465437 0)
(0.0840861 -0.0118331 0)
(-0.300858 -0.0874074 0)
(-0.401152 -0.102805 0)
(-0.365824 -0.0948938 0)
(-0.276723 -0.0718025 0)
(-0.131348 -0.0409382 0)
(0.0412582 -0.00912383 0)
(0.211358 0.0243223 0)
(0.344145 0.0533578 0)
(0.425243 0.0721198 0)
(0.481046 0.0851739 0)
(0.508744 0.0979899 0)
(0.51541 0.0972195 0)
(0.4904 0.0829788 0)
(0.329196 0.0457488 0)
(-0.0124887 -0.0398033 0)
(-0.256913 -0.119774 0)
(-0.299764 -0.140883 0)
(-0.23521 -0.143962 0)
(-0.13007 -0.131215 0)
(-0.0215111 -0.113501 0)
(0.0757964 -0.0861968 0)
(0.145703 -0.0381301 0)
(0.196053 0.020855 0)
(0.240093 0.0688386 0)
(0.283805 0.100829 0)
(0.323962 0.122004 0)
(0.341151 0.136397 0)
(0.340407 0.148247 0)
(0.319403 0.15935 0)
(0.245963 0.157374 0)
(0.0599044 0.11594 0)
(-0.115934 0.0432864 0)
(-6.24401 -0.0222572 0)
(-1.42102 -0.0948471 0)
(0.665022 0.0553277 0)
(0.629763 0.0733608 0)
(0.614062 0.0590964 0)
(0.537266 0.073544 0)
(0.375118 0.0452496 0)
(-0.00499597 -0.0215967 0)
(-0.335278 -0.0965653 0)
(-0.393035 -0.110153 0)
(-0.342573 -0.106918 0)
(-0.23958 -0.0861749 0)
(-0.088073 -0.0532541 0)
(0.085257 -0.017681 0)
(0.252692 0.0222301 0)
(0.375084 0.0606666 0)
(0.455885 0.0879808 0)
(0.506288 0.114489 0)
(0.521486 0.132179 0)
(0.513604 0.139307 0)
(0.461948 0.126939 0)
(0.247678 0.0704098 0)
(-0.110319 -0.0434197 0)
(-0.301883 -0.121447 0)
(-0.305209 -0.147201 0)
(-0.219483 -0.153154 0)
(-0.105727 -0.141186 0)
(0.00465226 -0.127836 0)
(0.1061 -0.116785 0)
(0.193708 -0.0930839 0)
(0.254938 -0.0429862 0)
(0.293413 0.0227703 0)
(0.322121 0.0855216 0)
(0.342031 0.126481 0)
(0.348175 0.1467 0)
(0.34204 0.163901 0)
(0.3156 0.165618 0)
(0.208207 0.145638 0)
(-0.0220557 0.0865495 0)
(-0.170771 0.0257915 0)
(-6.23993 -0.0240028 0)
(-1.41043 -0.0889368 0)
(0.673645 0.0589006 0)
(0.635702 0.0785112 0)
(0.623041 0.0632376 0)
(0.529096 0.0736772 0)
(0.328313 0.0398371 0)
(-0.0969865 -0.0338697 0)
(-0.367051 -0.102127 0)
(-0.388982 -0.115933 0)
(-0.324915 -0.115937 0)
(-0.204095 -0.0977108 0)
(-0.0436275 -0.0652114 0)
(0.134156 -0.0307515 0)
(0.302986 0.0103973 0)
(0.417078 0.0559458 0)
(0.498713 0.0938273 0)
(0.538452 0.135672 0)
(0.537935 0.163284 0)
(0.514269 0.177589 0)
(0.419066 0.161681 0)
(0.138564 0.0749393 0)
(-0.209288 -0.0591291 0)
(-0.337806 -0.124363 0)
(-0.307295 -0.150754 0)
(-0.202076 -0.155982 0)
(-0.0886102 -0.146874 0)
(0.019534 -0.140118 0)
(0.120873 -0.129356 0)
(0.220346 -0.119679 0)
(0.308333 -0.0953426 0)
(0.36362 -0.0389717 0)
(0.387903 0.0346731 0)
(0.382078 0.103967 0)
(0.366605 0.147439 0)
(0.347462 0.174251 0)
(0.29439 0.173773 0)
(0.144138 0.137811 0)
(-0.103587 0.0691289 0)
(-0.207883 0.0188691 0)
(-6.23448 -0.0230079 0)
(-1.40053 -0.0793262 0)
(0.680811 0.0658852 0)
(0.640928 0.086022 0)
(0.634148 0.066702 0)
(0.52178 0.0699867 0)
(0.275732 0.029608 0)
(-0.182691 -0.0477251 0)
(-0.396562 -0.103961 0)
(-0.391073 -0.117964 0)
(-0.310166 -0.119038 0)
(-0.171497 -0.102019 0)
(7.28054e-05 -0.0710762 0)
(0.183474 -0.0375591 0)
(0.355381 0.00266426 0)
(0.467517 0.0511392 0)
(0.549848 0.0952063 0)
(0.581071 0.143869 0)
(0.566974 0.183778 0)
(0.521526 0.204598 0)
(0.358217 0.176009 0)
(-0.000260624 0.0552143 0)
(-0.296984 -0.0815552 0)
(-0.36114 -0.130454 0)
(-0.299039 -0.15174 0)
(-0.187315 -0.154225 0)
(-0.0741899 -0.1508 0)