/*--------------------------------*- C++ -*----------------------------------*\
| =========                 |                                                 |
| \\      /  F ield         | OpenFOAM: The Open Source CFD Toolbox           |
|  \\    /   O peration     | Version:  v1912                                 |
|   \\  /    A nd           | Website:  www.openfoam.com                      |
|    \\/     M anipulation  |                                                 |
\*---------------------------------------------------------------------------*/
FoamFile
{
    version     2.0;
    format      ascii;
    class       volScalarField;
    location    "6.08";
    object      Ma;
}
// * * * * * * * * * * * * * * * * * * * * * * * * * * * * * * * * * * * * * //

dimensions      [0 0 0 0 0 0 0];


internalField   nonuniform List<scalar> 
1900
(
0.763616
0.0682351
0.0878973
0.0852668
0.0896216
0.0933449
0.0971765
0.0997265
0.0998899
0.091564
0.763616
0.0682305
0.0879007
0.0852847
0.089671
0.0933966
0.0968087
0.0989504
0.101269
0.102745
0.763616
0.0682283
0.0879025
0.0852906
0.0896672
0.0933485
0.0966151
0.0989055
0.101794
0.10901
0.763616
0.0682305
0.0879007
0.0852847
0.089671
0.0933966
0.0968087
0.0989504
0.101269
0.102745
0.763616
0.0682351
0.0878973
0.0852668
0.0896216
0.0933449
0.0971765
0.0997265
0.0998899
0.091564
0.0999955
0.137803
0.190144
0.274952
0.421021
0.118709
0.144737
0.176152
0.241678
0.3846
0.126385
0.151649
0.183065
0.245249
0.381461
0.118709
0.144737
0.176152
0.241678
0.3846
0.0999955
0.137803
0.190144
0.274952
0.421021
0.944142
1.38834
1.66784
1.59672
1.51159
0.906537
1.37927
1.68618
1.62479
1.53433
0.902897
1.38723
1.68749
1.619
1.52964
0.906537
1.37927
1.68618
1.62479
1.53433
0.944142
1.38834
1.66784
1.59672
1.51159
1.66886
1.94707
1.98367
1.7551
1.16122
0.941183
0.732925
0.534245
0.380572
0.243882
0.113966
0.0363454
0.031952
0.0368845
0.0396045
0.04052
0.0378317
0.0290997
0.0237618
0.041781
0.071088
0.103373
0.13677
0.170784
0.205245
0.240027
0.274595
0.309655
0.343275
0.376011
0.408151
0.439077
0.469277
0.496342
0.520027
0.532724
0.546305
0.558282
0.557477
0.255756
1.64383
1.97429
2.0514
1.8157
1.19263
0.969345
0.764586
0.552903
0.387727
0.244378
0.110045
0.0241387
0.0212235
0.029322
0.0329912
0.0347369
0.0321689
0.0212344
0.012625
0.0365211
0.0681711
0.101484
0.135451
0.169837
0.204566
0.239557
0.27429
0.309498
0.343225
0.376069
0.408283
0.439297
0.469527
0.496657
0.520323
0.532921
0.546649
0.558593
0.556903
0.254135
1.61117
1.92692
2.01662
1.80732
1.1822
0.947628
0.736585
0.529867
0.378149
0.243834
0.10994
0.0187401
0.01614
0.0263019
0.0304563
0.0325087
0.0299526
0.0178148
0.00498406
0.0346154
0.0671833
0.100846
0.134996
0.169497
0.204308
0.239363
0.27415
0.309409
0.343182
0.37608
0.408348
0.439435
0.46974
0.496986
0.52078
0.533549
0.547609
0.559994
0.558294
0.254802
1.64383
1.97429
2.0514
1.8157
1.19263
0.969345
0.764586
0.552903
0.387727
0.244378
0.110045
0.0241387
0.0212235
0.029322
0.0329912
0.0347369
0.0321689
0.0212344
0.012625
0.0365211
0.0681711
0.101484
0.135451
0.169837
0.204566
0.239557
0.27429
0.309498
0.343225
0.376069
0.408283
0.439297
0.469527
0.496657
0.520323
0.532921
0.546649
0.558593
0.556903
0.254135
1.66886
1.94707
1.98367
1.7551
1.16122
0.941183
0.732925
0.534245
0.380572
0.243882
0.113966
0.0363454
0.031952
0.0368845
0.0396045
0.04052
0.0378317
0.0290997
0.0237618
0.041781
0.071088
0.103373
0.13677
0.170784
0.205245
0.240027
0.274595
0.309655
0.343275
0.376011
0.408151
0.439077
0.469277
0.496342
0.520027
0.532724
0.546305
0.558282
0.557477
0.255756
1.74218
1.83004
1.6913
1.42665
1.01523
0.826621
0.649954
0.500301
0.373166
0.247457
0.126758
0.0664394
0.0608496
0.061318
0.0618496
0.0610508
0.0577712
0.0515749
0.0485311
0.0595312
0.0827795
0.111699
0.143175
0.175988
0.209638
0.243838
0.277994
0.312696
0.346123
0.378644
0.410708
0.441479
0.471732
0.498719
0.522672
0.535855
0.549089
0.561077
0.561682
0.264362
1.28825
1.38692
1.17337
0.876193
0.739744
0.676611
0.591571
0.493389
0.372204
0.25266
0.154696
0.115056
0.106514
0.103059
0.101058
0.0982335
0.0940501
0.0890448
0.0869399
0.0936216
0.109838
0.132837
0.160144
0.19004
0.221579
0.254193
0.287189
0.320854
0.353693
0.385559
0.417346
0.447622
0.477903
0.504522
0.529015
0.542997
0.555807
0.566497
0.564752
0.272697
0.870593
0.821973
0.688289
0.647104
0.667325
0.646306
0.579603
0.474685
0.365401
0.264312
0.192615
0.163616
0.152276
0.146005
0.141689
0.137186
0.132171
0.127364
0.125459
0.130234
0.142257
0.160441
0.183553
0.210078
0.238944
0.269419
0.300799
0.332926
0.364889
0.395752
0.427056
0.456543
0.486714
0.512683
0.537673
0.552453
0.565128
0.573987
0.570032
0.289103
0.625458
0.611147
0.720321
0.76595
0.728395
0.65554
0.558174
0.460681
0.368373
0.287881
0.236139
0.2111
0.197526
0.188812
0.182417
0.176482
0.17073
0.165866
0.163969
0.16767
0.177056
0.191685
0.211238
0.234559
0.260657
0.288776
0.318311
0.348566
0.379471
0.409096
0.439756
0.468256
0.498174
0.52334
0.548693
0.564068
0.576949
0.583687
0.577647
0.309469
0.757473
0.82841
0.872194
0.813639
0.730684
0.637599
0.546191
0.459125
0.38138
0.319625
0.280272
0.256802
0.241594
0.230859
0.222751
0.215616
0.209251
0.204232
0.202298
0.205291
0.212883
0.224889
0.241596
0.262144
0.285678
0.311488
0.339159
0.367421
0.397209
0.425508
0.455458
0.482915
0.512527
0.536872
0.562516
0.57817
0.591412
0.596391
0.588987
0.334201
0.801135
0.896135
0.886939
0.793134
0.719049
0.627987
0.547821
0.472685
0.407891
0.358617
0.324578
0.301096
0.284309
0.271948
0.262422
0.254273
0.247421
0.242309
0.240265
0.242766
0.24905
0.259041
0.273449
0.29162
0.312824
0.336398
0.362194
0.388385
0.416915
0.44373
0.472766
0.498996
0.528036
0.551344
0.576888
0.592306
0.605126
0.60812
0.599582
0.359498
0.793943
0.898048
0.875284
0.779066
0.712442
0.627363
0.557856
0.492674
0.438209
0.396809
0.366224
0.343078
0.325326
0.311847
0.301231
0.292285
0.28493
0.279775
0.277557
0.279634
0.284928
0.293403
0.306079
0.322427
0.341802
0.363546
0.38781
0.41231
0.439842
0.465473
0.49384
0.519163
0.547883
0.570489
0.596124
0.611452
0.623983
0.625761
0.617103
0.390182
0.779101
0.890831
0.862017
0.779152
0.713178
0.635771
0.576707
0.519897
0.473849
0.4363
0.407002
0.383546
0.364958
0.350444
0.338772
0.329165
0.32157
0.316164
0.313926
0.315727
0.320222
0.327388
0.338507
0.353135
0.370707
0.390539
0.413108
0.435775
0.462048
0.486268
0.513666
0.537857
0.565947
0.587618
0.612935
0.627715
0.639359
0.640139
0.631591
0.418769
0.761035
0.883034
0.855656
0.786798
0.719468
0.650415
0.598308
0.547807
0.507759
0.473016
0.445074
0.421633
0.402655
0.387604
0.375305
0.365188
0.357437
0.351761
0.349256
0.350738
0.354618
0.360867
0.37098
0.384533
0.400991
0.419572
0.441065
0.462528
0.488001
0.511269
0.537996
0.561381
0.588996
0.609951
0.634931
0.649301
0.659908
0.659937
0.651748
0.450945
0.743406
0.877083
0.857454
0.792153
0.73093
0.668891
0.624707
0.578873
0.542488
0.50947
0.48223
0.458638
0.439214
0.423355
0.410362
0.399876
0.391553
0.385861
0.38325
0.384519
0.387838
0.393159
0.402186
0.414529
0.429692
0.446819
0.467082
0.487157
0.511713
0.534013
0.560024
0.582676
0.609849
0.630213
0.654887
0.66895
0.678632
0.678179
0.670588
0.481923
0.727872
0.873364
0.864312
0.799445
0.749363
0.690776
0.65153
0.608154
0.574886
0.543177
0.516422
0.492922
0.473543
0.457353
0.444104
0.4336
0.42502
0.419077
0.416226
0.417296
0.420249
0.425017
0.433463
0.445174
0.45964
0.475883
0.495414
0.514511
0.538409
0.559995
0.585361
0.60736
0.633978
0.65372
0.677817
0.691498
0.699922
0.698746
0.691577
0.513639
0.721415
0.874296
0.871731
0.811837
0.769912
0.713317
0.678622
0.637582
0.606673
0.575746
0.549493
0.526263
0.506651
0.489838
0.476408
0.465242
0.456726
0.450753
0.447823
0.448723
0.451196
0.45516
0.462679
0.473378
0.486777
0.501821
0.520397
0.538316
0.561449
0.582343
0.607086
0.628553
0.654724
0.674044
0.697772
0.711352
0.719052
0.717749
0.711921
0.544475
0.723696
0.881199
0.882529
0.827037
0.788143
0.734535
0.703727
0.664479
0.635328
0.604807
0.578927
0.556037
0.536773
0.521191
0.507513
0.496255
0.48751
0.481249
0.47807
0.478843
0.481161
0.48491
0.492255
0.502755
0.515877
0.530408
0.548633
0.565877
0.58851
0.608959
0.633119
0.654079
0.679566
0.698297
0.721194
0.734303
0.740712
0.738548
0.733282
0.574617
0.729927
0.886875
0.891336
0.841248
0.805566
0.754547
0.72709
0.689009
0.661753
0.632042
0.606696
0.584096
0.565366
0.548666
0.534666
0.523363
0.51452
0.508153
0.504835
0.505419
0.507264
0.510268
0.516829
0.526557
0.538889
0.552482
0.570067
0.586393
0.608376
0.628324
0.651939
0.672517
0.697489
0.715848
0.738237
0.751106
0.756752
0.754251
0.751295
0.603118
0.736888
0.893448
0.900063
0.855686
0.821809
0.773198
0.747328
0.709929
0.683271
0.654243
0.630347
0.608672
0.589786
0.573255
0.559139
0.547458
0.538034
0.531055
0.527303
0.52779
0.529666
0.532756
0.539559
0.549614
0.562197
0.575699
0.59342
0.609425
0.63102
0.650708
0.673843
0.694063
0.718214
0.736041
0.757446
0.769778
0.774273
0.771062
0.770415
0.631035
0.745795
0.898611
0.905568
0.8651
0.832686
0.785743
0.761726
0.725544
0.700335
0.672225
0.648689
0.626756
0.607542
0.59052
0.575823
0.56326
0.552713
0.544479
0.539593
0.539337
0.54075
0.543735
0.550911
0.561548
0.574534
0.587956
0.605731
0.621282
0.642401
0.661959
0.68495
0.7051
0.728787
0.746421
0.767336
0.779303
0.783201
0.78074
0.785402
0.656821
0.756729
0.899586
0.899369
0.861192
0.831066
0.785893
0.763482
0.728799
0.704704
0.677758
0.655173
0.634231
0.616217
0.600091
0.585951
0.573535
0.563123
0.555427
0.551538
0.552215
0.55376
0.556078
0.562485
0.572742
0.58563
0.598439
0.615813
0.630134
0.650062
0.668391
0.690038
0.709235
0.731398
0.748192
0.767832
0.779131
0.782373
0.781549
0.794122
0.678994
0.785974
0.904137
0.87705
0.843749
0.81818
0.777467
0.758496
0.727324
0.705871
0.681097
0.660189
0.640438
0.623607
0.608522
0.595642
0.584588
0.575482
0.568815
0.565577
0.566405
0.567263
0.568032
0.572387
0.580342
0.590922
0.601324
0.617465
0.630338
0.649216
0.666592
0.687342
0.706169
0.727235
0.743584
0.762256
0.774034
0.77867
0.784714
0.808622
0.731883
1.74834
0.955672
0.861915
0.845576
0.826317
0.790146
0.772553
0.743058
0.722057
0.697568
0.676582
0.656514
0.639256
0.623505
0.610112
0.59856
0.588659
0.58049
0.575127
0.573646
0.57199
0.569996
0.571788
0.577372
0.585694
0.59405
0.609498
0.621777
0.640655
0.658346
0.679535
0.699666
0.72144
0.740093
0.760765
0.777293
0.7895
0.808647
0.907283
1.69011
2.49753
1.73351
0.828617
0.770769
0.743313
0.70071
0.667245
0.627664
0.592957
0.5562
0.521402
0.487105
0.45477
0.423771
0.395078
0.369022
0.346034
0.326728
0.312506
0.305029
0.300915
0.300488
0.307375
0.321113
0.339604
0.360339
0.387766
0.413424
0.444056
0.473934
0.505809
0.536758
0.567704
0.596919
0.626084
0.653739
0.678093
0.735689
1.64983
2.46434
2.49753
1.73351
0.828617
0.770769
0.743313
0.70071
0.667245
0.627664
0.592957
0.5562
0.521402
0.487105
0.45477
0.423771
0.395078
0.369022
0.346034
0.326728
0.312506
0.305029
0.300915
0.300488
0.307375
0.321113
0.339604
0.360339
0.387766
0.413424
0.444056
0.473934
0.505809
0.536758
0.567704
0.596919
0.626084
0.653739
0.678093
0.735689
1.64983
2.46434
1.74834
0.955672
0.861915
0.845576
0.826317
0.790146
0.772553
0.743058
0.722057
0.697568
0.676582
0.656514
0.639256
0.623505
0.610112
0.59856
0.588659
0.58049
0.575127
0.573646
0.57199
0.569996
0.571788
0.577372
0.585694
0.59405
0.609498
0.621777
0.640655
0.658346
0.679535
0.699666
0.72144
0.740093
0.760765
0.777293
0.7895
0.808647
0.907283
1.69011
0.785974
0.904137
0.87705
0.843749
0.81818
0.777467
0.758496
0.727324
0.705871
0.681097
0.660189
0.640438
0.623607
0.608522
0.595642
0.584588
0.575482
0.568815
0.565577
0.566405
0.567263
0.568032
0.572387
0.580342
0.590922
0.601324
0.617465
0.630338
0.649216
0.666592
0.687342
0.706169
0.727235
0.743584
0.762256
0.774034
0.77867
0.784714
0.808622
0.731883
0.756729
0.899586
0.899369
0.861192
0.831066
0.785893
0.763482
0.728799
0.704704
0.677758
0.655173
0.634231
0.616217
0.600091
0.585951
0.573535
0.563123
0.555427
0.551538
0.552215
0.55376
0.556078
0.562485
0.572742
0.58563
0.598439
0.615813
0.630134
0.650062
0.668391
0.690038
0.709235
0.731398
0.748192
0.767832
0.779131
0.782373
0.781549
0.794122
0.678994
0.745795
0.898611
0.905568
0.8651
0.832686
0.785743
0.761726
0.725544
0.700335
0.672225
0.648689
0.626756
0.607542
0.59052
0.575823
0.56326
0.552713
0.544479
0.539593
0.539337
0.54075
0.543735
0.550911
0.561548
0.574534
0.587956
0.605731
0.621282
0.642401
0.661959
0.68495
0.7051
0.728787
0.746421
0.767336
0.779303
0.783201
0.78074
0.785402
0.656821
0.736888
0.893448
0.900063
0.855686
0.821809
0.773198
0.747328
0.709929
0.683271
0.654243
0.630347
0.608672
0.589786
0.573255
0.559139
0.547458
0.538034
0.531055
0.527303
0.52779
0.529666
0.532756
0.539559
0.549614
0.562197
0.575699
0.59342
0.609425
0.63102
0.650708
0.673843
0.694063
0.718214
0.736041
0.757446
0.769778
0.774273
0.771062
0.770415
0.631035
0.729927
0.886875
0.891336
0.841248
0.805566
0.754547
0.72709
0.689009
0.661753
0.632042
0.606696
0.584096
0.565366
0.548666
0.534666
0.523363
0.51452
0.508153
0.504835
0.505419
0.507264
0.510268
0.516829
0.526557
0.538889
0.552482
0.570067
0.586393
0.608376
0.628324
0.651939
0.672517
0.697489
0.715848
0.738237
0.751106
0.756752
0.754251
0.751295
0.603118
0.723696
0.881199
0.882529
0.827037
0.788143
0.734535
0.703727
0.664479
0.635328
0.604807
0.578927
0.556037
0.536773
0.521191
0.507513
0.496255
0.48751
0.481249
0.47807
0.478843
0.481161
0.48491
0.492255
0.502755
0.515877
0.530408
0.548633
0.565877
0.58851
0.608959
0.633119
0.654079
0.679566
0.698297
0.721194
0.734303
0.740712
0.738548
0.733282
0.574617
0.721415
0.874296
0.871731
0.811837
0.769912
0.713317
0.678622
0.637582
0.606673
0.575746
0.549493
0.526263
0.506651
0.489838
0.476408
0.465242
0.456726
0.450753
0.447823
0.448723
0.451196
0.45516
0.462679
0.473378
0.486777
0.501821
0.520397
0.538316
0.561449
0.582343
0.607086
0.628553
0.654724
0.674044
0.697772
0.711352
0.719052
0.717749
0.711921
0.544475
0.727872
0.873364
0.864312
0.799445
0.749363
0.690776
0.65153
0.608154
0.574886
0.543177
0.516422
0.492922
0.473543
0.457353
0.444104
0.4336
0.42502
0.419077
0.416226
0.417296
0.420249
0.425017
0.433463
0.445174
0.45964
0.475883
0.495414
0.514511
0.538409
0.559995
0.585361
0.60736
0.633978
0.65372
0.677817
0.691498
0.699922
0.698746
0.691577
0.513639
0.743406
0.877083
0.857454
0.792153
0.73093
0.668891
0.624707
0.578873
0.542488
0.50947
0.48223
0.458638
0.439214
0.423355
0.410362
0.399876
0.391553
0.385861
0.38325
0.384519
0.387838
0.393159
0.402186
0.414529
0.429692
0.446819
0.467082
0.487157
0.511713
0.534013
0.560024
0.582676
0.609849
0.630213
0.654887
0.66895
0.678632
0.678179
0.670588
0.481923
0.761035
0.883034
0.855656
0.786798
0.719468
0.650415
0.598308
0.547807
0.507759
0.473016
0.445074
0.421633
0.402655
0.387604
0.375305
0.365188
0.357437
0.351761
0.349256
0.350738
0.354618
0.360867
0.37098
0.384533
0.400991
0.419572
0.441065
0.462528
0.488001
0.511269
0.537996
0.561381
0.588996
0.609951
0.634931
0.649301
0.659908
0.659937
0.651748
0.450945
0.779101
0.890831
0.862017
0.779152
0.713178
0.635771
0.576707
0.519897
0.473849
0.4363
0.407002
0.383546
0.364958
0.350444
0.338772
0.329165
0.32157
0.316164
0.313926
0.315727
0.320222
0.327388
0.338507
0.353135
0.370707
0.390539
0.413108
0.435775
0.462048
0.486268
0.513666
0.537857
0.565947
0.587618
0.612935
0.627715
0.639359
0.640139
0.631591
0.418769
0.793943
0.898048
0.875284
0.779066
0.712442
0.627363
0.557856
0.492674
0.438209
0.396809
0.366224
0.343078
0.325326
0.311847
0.301231
0.292285
0.28493
0.279775
0.277557
0.279634
0.284928
0.293403
0.306079
0.322427
0.341802
0.363546
0.38781
0.41231
0.439842
0.465473
0.49384
0.519163
0.547883
0.570489
0.596124
0.611452
0.623983
0.625761
0.617103
0.390182
0.801135
0.896135
0.886939
0.793134
0.719049
0.627987
0.547821
0.472685
0.407891
0.358617
0.324578
0.301096
0.284309
0.271948
0.262422
0.254273
0.247421
0.242309
0.240265
0.242766
0.24905
0.259041
0.273449
0.29162
0.312824
0.336398
0.362194
0.388385
0.416915
0.44373
0.472766
0.498996
0.528036
0.551344
0.576888
0.592306
0.605126
0.60812
0.599582
0.359498
0.757473
0.82841
0.872194
0.813639
0.730684
0.637599
0.546191
0.459125
0.38138
0.319625
0.280272
0.256802
0.241594
0.230859
0.222751
0.215616
0.209251
0.204232
0.202298
0.205291
0.212883
0.224889
0.241596
0.262144
0.285678
0.311488
0.339159
0.367421
0.397209
0.425508
0.455458
0.482915
0.512527
0.536872
0.562516
0.57817
0.591412
0.596391
0.588987
0.334201
0.625458
0.611147
0.720321
0.76595
0.728395
0.65554
0.558174
0.460681
0.368373
0.287881
0.236139
0.2111
0.197526
0.188812
0.182417
0.176482
0.17073
0.165866
0.163969
0.16767
0.177056
0.191685
0.211238
0.234559
0.260657
0.288776
0.318311
0.348566
0.379471
0.409096
0.439756
0.468256
0.498174
0.52334
0.548693
0.564068
0.576949
0.583687
0.577647
0.309469
0.870593
0.821973
0.688289
0.647104
0.667325
0.646306
0.579603
0.474685
0.365401
0.264312
0.192615
0.163616
0.152276
0.146005
0.141689
0.137186
0.132171
0.127364
0.125459
0.130234
0.142257
0.160441
0.183553
0.210078
0.238944
0.269419
0.300799
0.332926
0.364889
0.395752
0.427056
0.456543
0.486714
0.512683
0.537673
0.552453
0.565128
0.573987
0.570032
0.289103
1.28825
1.38692
1.17337
0.876193
0.739744
0.676611
0.591571
0.493389
0.372204
0.25266
0.154696
0.115056
0.106514
0.103059
0.101058
0.0982335
0.0940501
0.0890448
0.0869399
0.0936216
0.109838
0.132837
0.160144
0.19004
0.221579
0.254193
0.287189
0.320854
0.353693
0.385559
0.417346
0.447622
0.477903
0.504522
0.529015
0.542997
0.555807
0.566497
0.564752
0.272697
1.74218
1.83004
1.6913
1.42665
1.01523
0.826621
0.649954
0.500301
0.373166
0.247457
0.126758
0.0664394
0.0608496
0.061318
0.0618496
0.0610508
0.0577712
0.0515749
0.0485311
0.0595312
0.0827795
0.111699
0.143175
0.175988
0.209638
0.243838
0.277994
0.312696
0.346123
0.378644
0.410708
0.441479
0.471732
0.498719
0.522672
0.535855
0.549089
0.561077
0.561682
0.264362
)
;

boundaryField
{
    inlet
    {
        type            calculated;
        value           uniform 0;
    }
    outlet
    {
        type            calculated;
        value           nonuniform List<scalar> 
165
(
1.74218
1.28825
0.870593
0.625458
0.757473
0.801135
0.793943
0.779101
0.761035
0.743406
0.727872
0.721415
0.723696
0.729927
0.736888
0.745795
0.756729
0.785974
1.74834
2.49753
2.49753
1.73351
0.828617
0.770769
0.743313
0.70071
0.667245
0.627664
0.592957
0.5562
0.521402
0.487105
0.45477
0.423771
0.395078
0.369022
0.346034
0.326728
0.312506
0.305029
0.300915
0.300488
0.307375
0.321113
0.339604
0.360339
0.387766
0.413424
0.444056
0.473934
0.505809
0.536758
0.567704
0.596919
0.626084
0.653739
0.678093
0.735689
1.64983
2.46434
0.264362
0.272697
0.289103
0.309469
0.334201
0.359498
0.390182
0.418769
0.450945
0.481923
0.513639
0.544475
0.574617
0.603118
0.631035
0.656821
0.678994
0.731883
1.69011
2.46434
0.255756
0.254135
0.254802
0.254135
0.255756
2.46434
1.69011
0.731883
0.678994
0.656821
0.631035
0.603118
0.574617
0.544475
0.513639
0.481923
0.450945
0.418769
0.390182
0.359498
0.334201
0.309469
0.289103
0.272697
0.264362
2.49753
1.73351
0.828617
0.770769
0.743313
0.70071
0.667245
0.627664
0.592957
0.5562
0.521402
0.487105
0.45477
0.423771
0.395078
0.369022
0.346034
0.326728
0.312506
0.305029
0.300915
0.300488
0.307375
0.321113
0.339604
0.360339
0.387766
0.413424
0.444056
0.473934
0.505809
0.536758
0.567704
0.596919
0.626084
0.653739
0.678093
0.735689
1.64983
2.46434
2.49753
1.74834
0.785974
0.756729
0.745795
0.736888
0.729927
0.723696
0.721415
0.727872
0.743406
0.761035
0.779101
0.793943
0.801135
0.757473
0.625458
0.870593
1.28825
1.74218
)
;
    }
    obstacle
    {
        type            calculated;
        value           nonuniform List<scalar> 
40
(
0.763616
0.0682351
0.0878973
0.0852668
0.0896216
0.0933448
0.0971762
0.0997256
0.0998312
0.0906949
0.763616
0.0682351
0.0878973
0.0852668
0.0896216
0.0933448
0.0971762
0.0997256
0.0998312
0.0906949
0.0982495
0.135041
0.186946
0.271965
0.414745
0.0982495
0.135041
0.186946
0.271965
0.414745
0.934686
1.38516
1.66597
1.5959
1.51052
0.934686
1.38516
1.66597
1.5959
1.51052
)
;
    }
    empty
    {
        type            empty;
    }
}


// ************************************************************************* //
