/*--------------------------------*- C++ -*----------------------------------*\
| =========                 |                                                 |
| \\      /  F ield         | OpenFOAM: The Open Source CFD Toolbox           |
|  \\    /   O peration     | Version:  v1912                                 |
|   \\  /    A nd           | Website:  www.openfoam.com                      |
|    \\/     M anipulation  |                                                 |
\*---------------------------------------------------------------------------*/
FoamFile
{
    version     2.0;
    format      ascii;
    class       volScalarField;
    location    "0.02";
    object      Ma;
}
// * * * * * * * * * * * * * * * * * * * * * * * * * * * * * * * * * * * * * //

dimensions      [0 0 0 0 0 0 0];


internalField   nonuniform List<scalar> 
1900
(
0
1.26883e-17
1.28287e-19
0
2.53765e-17
1.26882e-17
2.53765e-17
0
1.26882e-17
2.53765e-17
0
5.70522e-19
1.25751e-17
0
6.56283e-22
6.73841e-22
2.52496e-17
1.25614e-17
0
5.45209e-19
0
1.20804e-17
1.20804e-17
0
5.64696e-19
5.74251e-19
2.52496e-17
0
0
0
0
0
0
0
1.19595e-17
1.73479e-17
0
1.25614e-17
0
0
0
0
2.52496e-17
0
2.52496e-17
1.26882e-19
0
0
0
1.26882e-17
4.03978e-17
4.36159e-17
5.37254e-17
1.88642e-17
8.73635e-16
3.89917e-17
7.21888e-17
1.7182e-18
6.13726e-17
1.46726e-16
2.13051e-17
2.02428e-17
5.40317e-17
5.76739e-18
3.54427e-17
6.44756e-17
4.17377e-17
3.5157e-17
8.79356e-17
1.85321e-16
1.61312e-18
1.39132e-17
5.10097e-17
7.7247e-17
9.45446e-16
5.4673e-13
2.77224e-11
9.49538e-10
9.63736e-06
0.000317994
5.48921e-14
5.60738e-12
7.80086e-10
1.28678e-06
2.91053e-05
1.21154e-14
1.19177e-13
3.65236e-10
2.59256e-08
1.92964e-07
5.48194e-14
5.60768e-12
7.80087e-10
1.28678e-06
2.91053e-05
5.47019e-13
2.77229e-11
9.4954e-10
9.63736e-06
0.000317994
0.00888763
0.000481708
1.32154e-05
1.08387e-08
1.60788e-13
6.22863e-18
1.06039e-16
7.89436e-17
6.69782e-23
4.54519e-17
4.6392e-17
1.01277e-16
4.59202e-17
4.6711e-17
4.66591e-17
4.34607e-17
9.09729e-18
1.94503e-17
9.65437e-17
4.69512e-17
6.9804e-17
8.44397e-17
2.44645e-17
1.34996e-16
6.18409e-17
6.34797e-17
2.37538e-17
3.6435e-17
9.66695e-17
1.01495e-16
8.30544e-17
2.83407e-17
2.95573e-17
2.74316e-17
9.36649e-17
8.41053e-13
5.96231e-08
7.98222e-05
0.00304196
0.0901828
0.000111034
1.43387e-05
4.41674e-07
4.04268e-10
6.06638e-15
1.22048e-17
6.50541e-17
2.54862e-17
4.56777e-17
5.39274e-17
7.69527e-18
6.46139e-17
4.66901e-17
7.55859e-18
2.36363e-19
2.40654e-17
1.90519e-24
1.11536e-19
5.5087e-17
5.01654e-17
4.00856e-21
4.0341e-17
2.51554e-17
7.53087e-17
4.14389e-17
6.85632e-17
8.27499e-17
5.65448e-18
2.0127e-17
1.98536e-24
1.37549e-17
7.5669e-17
4.96313e-19
9.46204e-17
5.60325e-17
8.40606e-13
5.96231e-08
7.98222e-05
0.00304196
0.0901828
9.1817e-08
1.37604e-07
1.70628e-09
1.34559e-11
1.13754e-15
1.54075e-19
4.54551e-17
1.61974e-18
4.82919e-20
2.15985e-17
2.03417e-17
4.56691e-17
4.57541e-17
2.13657e-17
4.56958e-17
2.22083e-17
7.62829e-21
4.45122e-18
4.56777e-17
4.56815e-17
5.59209e-19
7.66496e-17
6.85165e-17
2.96525e-18
5.81308e-17
3.70575e-17
4.52199e-17
9.19941e-17
7.6085e-18
9.13554e-17
5.70507e-18
2.66136e-17
9.15065e-17
3.15512e-18
8.47588e-17
8.40615e-13
5.96231e-08
7.98222e-05
0.00304196
0.0901828
0.000111034
1.43387e-05
4.41674e-07
4.04264e-10
6.0735e-15
5.2208e-18
1.17472e-17
4.7675e-17
4.56929e-17
6.90298e-17
4.57391e-17
1.01808e-17
3.05826e-17
9.21629e-17
4.75169e-17
1.0716e-17
1.11841e-18
5.10897e-18
1.0758e-17
2.33983e-17
5.05762e-18
3.99794e-17
1.50204e-19
2.52192e-17
8.08042e-18
4.59084e-17
3.14653e-17
1.2755e-17
3.0456e-17
2.27202e-21
5.05827e-18
5.12395e-17
2.36691e-19
3.23702e-17
4.91924e-17
8.40644e-13
5.96231e-08
7.98222e-05
0.00304196
0.0901828
0.00888763
0.000481708
1.32154e-05
1.08387e-08
1.60915e-13
2.56579e-18
1.11588e-17
4.63486e-17
1.00251e-17
6.03642e-17
2.0153e-17
3.76101e-20
2.30696e-17
2.12031e-17
4.6596e-17
3.74978e-28
1.01152e-17
4.38005e-24
4.56777e-17
2.30695e-17
2.72181e-34
5.96604e-44
8.51266e-17
4.56777e-17
3.94232e-20
1.93863e-20
3.74115e-20
9.92297e-17
2.08397e-17
2.28389e-17
4.56777e-17
3.96661e-20
4.56777e-17
7.43013e-19
1.30737e-17
8.41043e-13
5.96231e-08
7.98222e-05
0.00304196
0.0901828
0.0874105
0.00292195
7.63012e-05
5.67671e-08
7.99301e-13
1.46519e-17
3.69583e-21
5.41851e-17
2.78877e-26
3.85162e-17
2.4525e-39
1.37982e-17
1.38674e-17
2.77189e-17
5.8513e-20
7.51295e-27
8.33851e-26
1.61839e-22
1.16341e-37
1.3076e-31
1.45998e-32
2.44798e-42
1.88039e-18
4.7635e-19
4.83775e-19
4.7488e-19
1.38672e-17
2.08932e-18
1.37895e-17
6.91216e-18
7.93316e-35
4.83405e-19
1.38591e-17
1.66492e-17
3.34469e-17
8.40795e-13
5.96231e-08
7.98222e-05
0.00304196
0.0901828
0.0901816
0.00304187
7.98191e-05
5.96204e-08
8.41388e-13
1.02953e-17
2.22974e-19
3.05285e-17
2.07539e-17
1.91492e-17
3.72725e-37
1.91492e-17
1.27938e-17
5.87468e-18
5.47714e-18
1.37895e-17
4.5075e-24
2.42404e-19
2.24415e-32
1.38591e-17
2.57883e-27
6.07415e-37
3.90767e-25
1.3354e-17
1.92459e-17
1.3354e-17
1.33794e-17
1.6e-22
6.50734e-51
1.32868e-17
2.24406e-32
1.37796e-17
1.37895e-17
1.38616e-17
7.75938e-18
8.41219e-13
5.96231e-08
7.98222e-05
0.00304196
0.0901828
0.0901828
0.00304196
7.98222e-05
5.96231e-08
8.40813e-13
4.64731e-18
9.10783e-18
1.33543e-17
6.96439e-18
1.6803e-39
1.03564e-31
4.31239e-53
1.3366e-17
3.01219e-17
3.34308e-17
3.22491e-23
2.7579e-17
9.57444e-18
3.91049e-27
3.92615e-27
3.15284e-22
1.33799e-31
6.89475e-18
3.31258e-22
1.38591e-17
1.38591e-17
1.38613e-17
2.39653e-19
1.20009e-48
2.60957e-27
3.91055e-27
1.92459e-17
1.39288e-17
4.11965e-18
2.80411e-17
8.40904e-13
5.96231e-08
7.98222e-05
0.00304196
0.0901828
0.0901828
0.00304196
7.98222e-05
5.96231e-08
8.40804e-13
1.67161e-17
2.47391e-19
9.63874e-21
1.56913e-21
8.73179e-38
1.23267e-27
1.72769e-47
6.98163e-18
1.39288e-19
5.0198e-19
1.37895e-17
2.7579e-17
6.89476e-18
4.85192e-22
4.85229e-22
4.61031e-19
2.56677e-26
3.04977e-21
4.84813e-19
3.22718e-22
1.38591e-17
6.65558e-18
6.65547e-18
2.01e-46
3.20047e-22
4.85193e-22
1.38591e-17
2.77183e-17
3.99834e-25
1.30292e-17
8.41304e-13
5.96231e-08
7.98222e-05
0.00304196
0.0901828
0.0901828
0.00304196
7.98222e-05
5.96231e-08
8.41393e-13
2.23672e-17
6.71064e-18
1.29276e-19
1.38638e-17
3.01429e-32
1.37895e-17
3.16774e-45
1.32868e-17
4.78873e-19
1.37529e-17
6.96473e-18
6.87433e-20
4.79053e-19
7.27693e-19
7.2249e-19
1.25489e-17
1.14043e-22
6.89903e-18
1.91492e-17
4.81323e-19
2.77226e-17
4.96339e-19
4.90379e-19
3.06233e-44
4.78869e-19
7.27671e-19
4.03455e-21
3.22035e-22
4.49544e-23
1.28438e-17
8.40743e-13
5.96231e-08
7.98222e-05
0.00304196
0.0901828
0.0901828
0.00304196
7.98222e-05
5.96231e-08
8.40954e-13
1.18468e-17
6.51965e-21
1.37895e-17
3.06757e-17
5.24075e-27
1.37895e-17
7.3652e-41
6.96439e-18
1.32868e-17
1.84786e-17
6.96439e-18
9.58239e-19
1.32868e-17
2.02881e-17
2.11754e-17
1.99974e-17
6.96439e-18
6.70906e-18
1.37895e-17
1.50014e-17
3.07703e-17
1.3528e-17
1.49692e-17
8.52655e-39
1.32868e-17
2.02869e-17
6.98108e-18
4.85869e-19
1.83302e-19
1.18293e-17
8.41344e-13
5.96231e-08
7.98222e-05
0.00304196
0.0901828
0.0901828
0.00304196
7.98222e-05
5.96231e-08
8.41518e-13
1.55242e-17
6.90866e-18
1.37895e-17
2.06843e-17
6.51273e-22
6.49759e-22
1.38591e-17
1.43231e-40
1.37895e-17
3.00791e-17
2.77183e-17
2.67322e-17
3.03104e-28
1.97183e-19
6.96439e-18
1.36776e-26
6.96893e-18
6.89911e-18
2.57945e-27
6.96439e-18
2.46508e-19
2.456e-19
6.89475e-18
2.12393e-33
6.77326e-46
3.92028e-19
1.47116e-17
1.35752e-17
2.89227e-17
2.70591e-17
8.40796e-13
5.96231e-08
7.98222e-05
0.00304196
0.0901828
0.0901828
0.00304196
7.98222e-05
5.96231e-08
8.41419e-13
4.62556e-17
1.93669e-17
9.62768e-19
6.96483e-18
9.80382e-19
9.74103e-19
2.45981e-36
1.14301e-37
3.22717e-22
9.73314e-19
7.43837e-23
9.86034e-19
2.77183e-17
1.3354e-17
2.58001e-27
6.06243e-23
6.87138e-18
9.57458e-18
3.20048e-22
1.36384e-37
1.33478e-17
1.3354e-17
1.54597e-35
4.67399e-28
1.17866e-43
3.09863e-17
1.39043e-17
4.38833e-19
9.35789e-20
1.03184e-17
8.41422e-13
5.96231e-08
7.98222e-05
0.00304196
0.0901828
0.0901828
0.00304196
7.98222e-05
5.96231e-08
8.40736e-13
1.90723e-17
1.38591e-17
2.6708e-17
2.6708e-17
2.74554e-17
2.71913e-17
1.38591e-17
1.45569e-33
4.81396e-19
2.62053e-17
2.77183e-17
2.67322e-17
2.77183e-17
1.34514e-27
3.20047e-22
6.96439e-18
3.21862e-19
2.67089e-27
4.79089e-19
1.75751e-35
6.9689e-18
6.96439e-18
2.77183e-17
3.01235e-24
6.96439e-18
3.08533e-17
1.99988e-17
1.99974e-17
2.88881e-17
5.30416e-18
8.40701e-13
5.96231e-08
7.98222e-05
0.00304196
0.0901828
0.0901828
0.00304196
7.98222e-05
5.96231e-08
8.41515e-13
1.46983e-17
3.34022e-36
6.51461e-32
1.33412e-40
1.35378e-17
3.06162e-17
4.76902e-32
1.39288e-19
1.5005e-17
1.3789e-17
6.39889e-19
9.85587e-19
1.61121e-22
1.63215e-22
4.78871e-19
6.97237e-18
1.3299e-17
3.25815e-22
1.3299e-17
3.92346e-33
9.75375e-18
6.96439e-18
1.37895e-17
6.96439e-18
1.7388e-39
6.83603e-18
1.37895e-17
2.60935e-27
9.23433e-18
3.26393e-17
8.41041e-13
5.96231e-08
7.98222e-05
0.00304196
0.0901828
0.0901828
0.00304196
7.98222e-05
5.96231e-08
8.41434e-13
2.03977e-17
1.46439e-32
7.44251e-30
5.88214e-35
1.0791e-33
1.34344e-17
7.15704e-27
1.39288e-19
2.07546e-17
1.30473e-17
3.80492e-17
2.6708e-17
2.43313e-19
2.41764e-19
1.3287e-17
3.07384e-17
4.92966e-19
4.83848e-19
4.92793e-19
5.59033e-28
3.24185e-19
2.30026e-19
1.39288e-17
6.9644e-18
6.96439e-18
7.3381e-20
1.39292e-17
3.16929e-22
3.14308e-29
1.36531e-17
8.41441e-13
5.96231e-08
7.98222e-05
0.00304196
0.0901828
0.0901828
0.00304196
7.98222e-05
5.96231e-08
8.41414e-13
2.52079e-17
2.44499e-31
1.01167e-24
5.81177e-31
1.41144e-31
2.77183e-17
1.31715e-23
8.62476e-28
6.76851e-18
1.54076e-17
3.06709e-17
3.39406e-22
6.8032e-18
6.71056e-18
2.77183e-17
2.77183e-17
3.07719e-17
1.50397e-17
1.3354e-17
9.58061e-25
1.3354e-17
6.22013e-18
6.89475e-18
4.79053e-19
7.57606e-35
7.50237e-18
7.42281e-18
4.6692e-19
2.77183e-17
1.83481e-17
8.41431e-13
5.96231e-08
7.98222e-05
0.00304196
0.0901828
0.0901828
0.00304196
7.98222e-05
5.96231e-08
8.40606e-13
1.44227e-17
1.229e-26
1.25805e-21
3.31887e-29
4.25169e-28
4.8273e-19
1.37895e-17
1.41818e-24
1.37895e-17
1.37979e-17
8.14618e-19
4.95519e-19
3.23001e-19
2.42298e-23
1.39325e-17
4.97668e-19
1.39362e-17
6.91293e-18
2.01995e-23
1.37895e-17
6.43152e-30
1.32885e-17
1.24467e-22
1.32868e-17
1.90686e-32
2.6708e-17
2.96776e-17
1.27881e-17
7.24676e-25
1.42565e-17
8.41123e-13
5.96231e-08
7.98222e-05
0.00304196
0.0901828
0.0901828
0.00304196
7.98222e-05
5.96231e-08
8.41394e-13
2.11357e-17
4.31792e-18
4.73586e-18
5.51107e-27
1.2925e-26
1.35903e-17
1.37895e-17
1.37895e-17
1.66719e-19
3.9203e-17
2.85581e-17
1.94187e-17
1.32968e-17
8.07869e-18
2.29761e-17
1.42772e-17
2.28595e-17
1.5411e-17
5.96036e-20
1.8386e-17
8.5662e-18
9.19304e-18
1.54441e-19
8.5662e-18
2.30987e-28
8.5662e-18
2.24779e-17
1.3717e-17
3.69113e-17
1.2938e-17
8.41426e-13
5.96231e-08
7.98222e-05
0.00304196
0.0901828
0.0901828
0.00304196
7.98222e-05
5.96231e-08
8.40674e-13
2.53812e-17
2.33307e-17
3.00521e-17
1.49734e-17
9.12335e-18
2.1799e-17
1.61038e-17
8.07869e-18
1.04499e-17
3.37776e-17
1.53542e-17
1.31628e-17
1.16313e-17
3.51705e-17
3.42648e-17
3.23844e-17
3.68176e-17
1.65924e-17
1.13938e-17
3.42649e-17
3.67023e-17
3.91251e-17
1.07276e-17
3.6772e-17
2.11717e-17
4.01845e-17
3.42648e-17
1.1352e-17
3.86938e-17
3.11138e-17
8.40673e-13
5.96231e-08
7.98222e-05
0.00304196
0.0901828
0.0901828
0.00304196
7.98222e-05
5.96231e-08
1.39797e-12
1.11738e-12
1.11769e-12
1.11736e-12
1.11685e-12
1.11752e-12
1.11686e-12
1.11678e-12
1.11685e-12
1.11685e-12
1.11751e-12
1.11713e-12
1.1171e-12
1.11723e-12
1.11768e-12
1.11752e-12
1.11737e-12
1.11765e-12
1.1176e-12
1.11771e-12
1.11753e-12
1.11738e-12
1.1175e-12
1.11698e-12
1.11736e-12
1.11753e-12
1.11736e-12
1.11716e-12
1.11686e-12
1.11751e-12
1.11767e-12
1.39907e-12
5.96231e-08
7.98222e-05
0.00304196
0.0901828
0.0901828
0.00304196
7.98222e-05
9.34406e-08
7.1946e-08
7.1946e-08
7.1946e-08
7.1946e-08
7.1946e-08
7.1946e-08
7.1946e-08
7.1946e-08
7.1946e-08
7.1946e-08
7.1946e-08
7.1946e-08
7.1946e-08
7.1946e-08
7.1946e-08
7.1946e-08
7.1946e-08
7.1946e-08
7.1946e-08
7.1946e-08
7.1946e-08
7.1946e-08
7.1946e-08
7.1946e-08
7.1946e-08
7.1946e-08
7.1946e-08
7.1946e-08
7.1946e-08
7.1946e-08
7.1946e-08
7.1946e-08
9.34406e-08
7.98222e-05
0.00304196
0.0901828
0.0901888
0.0030435
0.00011966
8.91396e-05
8.91396e-05
8.91396e-05
8.91396e-05
8.91396e-05
8.91396e-05
8.91396e-05
8.91396e-05
8.91396e-05
8.91396e-05
8.91396e-05
8.91396e-05
8.91396e-05
8.91396e-05
8.91396e-05
8.91396e-05
8.91396e-05
8.91396e-05
8.91396e-05
8.91396e-05
8.91396e-05
8.91396e-05
8.91396e-05
8.91396e-05
8.91396e-05
8.91396e-05
8.91396e-05
8.91396e-05
8.91396e-05
8.91396e-05
8.91396e-05
8.91396e-05
8.91396e-05
8.91396e-05
0.00011966
0.0030435
0.0901888
0.0902421
0.00446113
0.00326438
0.00326317
0.00326317
0.00326317
0.00326317
0.00326317
0.00326317
0.00326317
0.00326317
0.00326317
0.00326317
0.00326317
0.00326317
0.00326317
0.00326317
0.00326317
0.00326317
0.00326317
0.00326317
0.00326317
0.00326317
0.00326317
0.00326317
0.00326317
0.00326317
0.00326317
0.00326317
0.00326317
0.00326317
0.00326317
0.00326317
0.00326317
0.00326317
0.00326317
0.00326317
0.00326438
0.00446113
0.0902421
0.129907
0.0935082
0.0934638
0.0934582
0.0934582
0.0934582
0.0934582
0.0934582
0.0934582
0.0934582
0.0934582
0.0934582
0.0934582
0.0934582
0.0934582
0.0934582
0.0934582
0.0934582
0.0934582
0.0934582
0.0934582
0.0934582
0.0934582
0.0934582
0.0934582
0.0934582
0.0934582
0.0934582
0.0934582
0.0934582
0.0934582
0.0934582
0.0934582
0.0934582
0.0934582
0.0934582
0.0934582
0.0934638
0.0935082
0.129907
0.129907
0.0935082
0.0934638
0.0934582
0.0934582
0.0934582
0.0934582
0.0934582
0.0934582
0.0934582
0.0934582
0.0934582
0.0934582
0.0934582
0.0934582
0.0934582
0.0934582
0.0934582
0.0934582
0.0934582
0.0934582
0.0934582
0.0934582
0.0934582
0.0934582
0.0934582
0.0934582
0.0934582
0.0934582
0.0934582
0.0934582
0.0934582
0.0934582
0.0934582
0.0934582
0.0934582
0.0934582
0.0934638
0.0935082
0.129907
0.0902421
0.00446113
0.00326438
0.00326317
0.00326317
0.00326317
0.00326317
0.00326317
0.00326317
0.00326317
0.00326317
0.00326317
0.00326317
0.00326317
0.00326317
0.00326317
0.00326317
0.00326317
0.00326317
0.00326317
0.00326317
0.00326317
0.00326317
0.00326317
0.00326317
0.00326317
0.00326317
0.00326317
0.00326317
0.00326317
0.00326317
0.00326317
0.00326317
0.00326317
0.00326317
0.00326317
0.00326317
0.00326438
0.00446113
0.0902421
0.0901888
0.0030435
0.00011966
8.91396e-05
8.91396e-05
8.91396e-05
8.91396e-05
8.91396e-05
8.91396e-05
8.91396e-05
8.91396e-05
8.91396e-05
8.91396e-05
8.91396e-05
8.91396e-05
8.91396e-05
8.91396e-05
8.91396e-05
8.91396e-05
8.91396e-05
8.91396e-05
8.91396e-05
8.91396e-05
8.91396e-05
8.91396e-05
8.91396e-05
8.91396e-05
8.91396e-05
8.91396e-05
8.91396e-05
8.91396e-05
8.91396e-05
8.91396e-05
8.91396e-05
8.91396e-05
8.91396e-05
8.91396e-05
0.00011966
0.0030435
0.0901888
0.0901828
0.00304196
7.98222e-05
9.34406e-08
7.1946e-08
7.1946e-08
7.1946e-08
7.1946e-08
7.1946e-08
7.1946e-08
7.1946e-08
7.1946e-08
7.1946e-08
7.1946e-08
7.1946e-08
7.1946e-08
7.1946e-08
7.1946e-08
7.1946e-08
7.1946e-08
7.1946e-08
7.1946e-08
7.1946e-08
7.1946e-08
7.1946e-08
7.1946e-08
7.1946e-08
7.1946e-08
7.1946e-08
7.1946e-08
7.1946e-08
7.1946e-08
7.1946e-08
7.1946e-08
7.1946e-08
7.1946e-08
9.34406e-08
7.98222e-05
0.00304196
0.0901828
0.0901828
0.00304196
7.98222e-05
5.96231e-08
1.39801e-12
1.11737e-12
1.11771e-12
1.11736e-12
1.11684e-12
1.11751e-12
1.11688e-12
1.11677e-12
1.11687e-12
1.11683e-12
1.11752e-12
1.11711e-12
1.11713e-12
1.11773e-12
1.11771e-12
1.11751e-12
1.11737e-12
1.11735e-12
1.11686e-12
1.11766e-12
1.11704e-12
1.11733e-12
1.11699e-12
1.11693e-12
1.11736e-12
1.11751e-12
1.11739e-12
1.11767e-12
1.11685e-12
1.11697e-12
1.11738e-12
1.39839e-12
5.96231e-08
7.98222e-05
0.00304196
0.0901828
0.0901828
0.00304196
7.98222e-05
5.96231e-08
8.40677e-13
3.24204e-17
1.89569e-17
4.16471e-17
1.67145e-17
9.6805e-18
9.61086e-18
1.6104e-17
4.81553e-18
1.74806e-17
9.6805e-18
3.25941e-17
2.99301e-17
3.30876e-17
1.14216e-17
4.4781e-17
1.1143e-17
1.13522e-17
9.95908e-18
1.13522e-17
1.10734e-17
3.4822e-17
1.10734e-17
9.75015e-18
1.10738e-17
1.4564e-17
1.1143e-17
1.05169e-17
1.24574e-17
3.17436e-17
1.67775e-17
8.40711e-13
5.96231e-08
7.98222e-05
0.00304196
0.0901828
0.0901828
0.00304196
7.98222e-05
5.96231e-08
8.41115e-13
1.23616e-17
2.2277e-32
8.5662e-18
5.43222e-18
1.48415e-32
1.48131e-32
2.72548e-17
2.6708e-17
1.65033e-22
1.60006e-22
2.67082e-17
2.67365e-17
2.77183e-17
2.80541e-33
9.193e-18
0
1.33111e-17
1.46311e-20
1.32929e-17
3.23215e-22
3.23231e-22
2.57882e-27
2.77183e-17
1.32868e-17
2.26637e-17
1.23272e-20
1.32991e-17
1.49692e-17
4.24828e-18
1.92271e-17
8.40779e-13
5.96231e-08
7.98222e-05
0.00304196
0.0901828
0.0901828
0.00304196
7.98222e-05
5.96231e-08
8.40911e-13
1.53564e-17
4.59596e-27
3.16429e-44
1.62977e-48
2.58211e-27
2.5929e-27
6.56148e-22
6.56152e-22
2.4432e-19
2.39656e-19
1.38591e-17
6.56152e-22
9.17035e-38
6.96439e-18
1.30705e-45
6.96439e-18
9.85809e-19
6.93439e-18
6.96871e-18
4.81198e-19
4.81311e-19
3.20049e-22
2.77183e-17
6.96439e-18
4.67905e-23
6.98235e-18
6.98198e-18
1.55581e-29
1.72302e-19
9.09046e-18
8.40741e-13
5.96231e-08
7.98222e-05
0.00304196
0.0901828
0.0901828
0.00304196
7.98222e-05
5.96231e-08
8.41436e-13
1.68093e-17
3.40949e-22
4.95878e-42
4.76628e-44
3.23263e-22
3.2677e-22
9.62397e-19
9.62398e-19
1.53117e-17
6.65569e-18
1.38762e-17
9.62398e-19
5.02228e-35
6.96439e-18
3.229e-40
6.96439e-18
2.67201e-17
2.12161e-17
9.63317e-18
1.3354e-17
1.33602e-17
4.79195e-19
4.79067e-19
1.68469e-22
1.37895e-17
1.53116e-17
1.51229e-17
1.32927e-27
8.04252e-18
2.10949e-17
8.40623e-13
5.96231e-08
7.98222e-05
0.00304196
0.0901828
0.0901828
0.00304196
7.98222e-05
5.96231e-08
8.41134e-13
1.13258e-17
2.67171e-19
6.20193e-40
7.48924e-42
4.90702e-19
4.95662e-19
2.6708e-17
2.67083e-17
1.37987e-17
5.02502e-19
3.8542e-17
2.67083e-17
1.0386e-29
2.62106e-27
7.10626e-35
0
4.94293e-19
1.33184e-27
4.90379e-19
1.38438e-34
2.53495e-19
1.33048e-17
1.32868e-17
6.96441e-18
1.37917e-17
2.47501e-19
3.35148e-21
1.63216e-22
1.38634e-19
1.86626e-17
8.40787e-13
5.96231e-08
7.98222e-05
0.00304196
0.0901828
0.0901828
0.00304196
7.98222e-05
5.96231e-08
8.41336e-13
6.46143e-18
1.4448e-17
1.37191e-34
1.04504e-39
1.37772e-17
1.9501e-17
0
1.39288e-19
1.37892e-17
1.94955e-17
2.77879e-17
1.39288e-19
6.9124e-26
3.25172e-22
1.36165e-29
0
1.34437e-17
1.63798e-22
1.32868e-17
2.6423e-29
9.83618e-18
7.00211e-18
7.37959e-24
7.00342e-18
9.73269e-18
1.35466e-17
1.3661e-19
2.41874e-19
8.1013e-18
5.22806e-18
8.41055e-13
5.96231e-08
7.98222e-05
0.00304196
0.0901828
0.0901828
0.00304196
7.98222e-05
5.96231e-08
8.41529e-13
1.53267e-17
2.06889e-17
2.64239e-29
1.38591e-17
1.50014e-17
1.94245e-17
1.38591e-17
1.33886e-29
1.32986e-17
1.92651e-17
1.39288e-19
0
2.77183e-17
4.88231e-19
2.22564e-24
0
7.68378e-20
2.44625e-19
3.24831e-22
4.34105e-24
9.33736e-18
2.07107e-17
4.87453e-22
2.11926e-17
2.95404e-21
7.20345e-18
7.15608e-18
6.71662e-18
9.2368e-18
3.24128e-17
8.41068e-13
5.96231e-08
7.98222e-05
0.00304196
0.0901828
0.0901828
0.00304196
7.98222e-05
5.96231e-08
8.41433e-13
4.60953e-17
1.80976e-17
4.34129e-24
6.96439e-18
6.96439e-18
0
6.96439e-18
2.18153e-24
3.27324e-22
1.6063e-24
1.39289e-19
0
1.39288e-17
1.36432e-17
6.11439e-21
0
6.22629e-18
9.63832e-18
4.78869e-19
1.20478e-20
1.32775e-17
1.3354e-17
7.36628e-19
7.37983e-19
6.96817e-18
1.33596e-17
1.88539e-17
5.88889e-21
2.77188e-17
1.03585e-17
8.41434e-13
5.96231e-08
7.98222e-05
0.00304196
0.0901828
0.0901828
0.00304196
7.98222e-05
5.96231e-08
8.41527e-13
1.63851e-17
6.89915e-18
1.20483e-20
6.89475e-18
6.15495e-28
2.77183e-17
6.89475e-18
5.89072e-21
4.87888e-19
1.37895e-17
4.78982e-19
0
1.37979e-17
4.37978e-19
6.96879e-18
0
1.47826e-17
6.89547e-18
1.32868e-17
6.98163e-18
7.02217e-18
0
2.06622e-17
1.99974e-17
9.17466e-18
6.9682e-18
1.93183e-17
2.4166e-19
2.88268e-17
1.06257e-17
8.41052e-13
5.96231e-08
7.98222e-05
0.00304196
0.0901828
0.0901828
0.00304196
7.98222e-05
5.96231e-08
8.41324e-13
2.04963e-17
1.55658e-17
1.37982e-17
2.64264e-29
1.37895e-17
0
0
6.96837e-18
1.36603e-17
1.37895e-17
1.32926e-17
1.39288e-19
1.32924e-17
1.99974e-17
9.67132e-18
0
9.67131e-18
1.5461e-17
0
1.50014e-17
1.32868e-17
0
1.34571e-17
2.77183e-17
2.11754e-17
1.03237e-17
2.44471e-19
6.71056e-18
5.65883e-19
1.14208e-17
8.40745e-13
5.96231e-08
7.98222e-05
0.00304196
0.0901828
0.0901828
0.00304196
7.98222e-05
5.96231e-08
8.40682e-13
3.25397e-17
1.7044e-17
1.91492e-17
4.34129e-24
1.37895e-17
0
0
6.21776e-18
6.75116e-18
4.81395e-19
5.94979e-21
1.39288e-19
5.53575e-21
0
4.87092e-24
0
0
1.39288e-17
0
0
0
0
0
2.77183e-17
0
2.65787e-17
1.92149e-17
1.63225e-22
1.71137e-17
2.22978e-17
8.40714e-13
5.96231e-08
7.98222e-05
0.00304196
0.0901828
0.0901828
0.00304196
7.98222e-05
5.96231e-08
8.41321e-13
9.88986e-18
1.37895e-17
0
1.20483e-20
3.30148e-22
0
0
1.50609e-17
1.39288e-17
1.3354e-17
1.37917e-17
0
6.89868e-18
0
3.222e-22
0
0
6.89475e-18
0
0
0
1.38591e-17
0
0
0
3.31258e-22
7.60476e-20
2.42359e-19
2.33323e-19
1.86741e-17
8.40788e-13
5.96231e-08
7.98222e-05
0.00304196
0.0901828
0.0901828
0.00304196
7.98222e-05
5.96231e-08
8.40825e-13
1.13026e-17
6.96484e-18
0
1.37982e-17
4.88209e-19
0
1.37895e-17
0
2.08932e-17
0
6.64342e-18
0
6.14486e-18
0
4.87172e-19
0
0
6.89475e-18
0
0
0
1.38591e-17
0
0
0
4.84813e-19
6.14439e-18
6.76412e-18
9.23733e-18
2.76496e-17
8.40885e-13
5.96231e-08
7.98222e-05
0.00304196
0.0901828
0.0901816
0.00304187
7.98191e-05
5.96204e-08
8.41375e-13
3.53926e-17
8.37985e-18
0
1.32868e-17
3.07383e-17
0
1.37895e-17
0
6.96439e-18
0
0
0
1.52667e-17
1.37895e-17
1.36323e-17
0
0
0
0
0
0
0
0
0
0
1.91492e-17
1.36302e-17
1.71052e-19
1.49152e-19
2.09609e-17
8.40877e-13
5.96231e-08
7.98222e-05
0.00304196
0.0901828
0.0874105
0.00292195
7.63012e-05
5.67671e-08
7.99161e-13
8.7056e-18
2.34337e-18
2.20946e-17
2.67053e-18
4.91587e-17
1.81622e-18
3.0106e-18
1.25189e-17
1.14934e-17
2.59714e-17
1.37532e-17
2.55469e-19
2.06972e-18
5.27171e-17
1.56731e-17
2.01422e-17
5.12966e-19
4.91307e-18
4.39837e-17
8.74984e-18
1.90777e-17
1.87976e-17
2.31259e-21
1.58346e-17
3.82495e-18
2.22202e-17
5.68817e-18
1.00627e-17
2.12184e-17
1.2327e-17
8.40798e-13
5.96231e-08
7.98222e-05
0.00304196
0.0901828
)
;

boundaryField
{
    inlet
    {
        type            calculated;
        value           uniform 0;
    }
    outlet
    {
        type            calculated;
        value           nonuniform List<scalar> 
165
(
0.0874105
0.0901816
0.0901828
0.0901828
0.0901828
0.0901828
0.0901828
0.0901828
0.0901828
0.0901828
0.0901828
0.0901828
0.0901828
0.0901828
0.0901828
0.0901828
0.0901828
0.0901888
0.0902421
0.129907
0.129907
0.0935082
0.0934638
0.0934582
0.0934582
0.0934582
0.0934582
0.0934582
0.0934582
0.0934582
0.0934582
0.0934582
0.0934582
0.0934582
0.0934582
0.0934582
0.0934582
0.0934582
0.0934582
0.0934582
0.0934582
0.0934582
0.0934582
0.0934582
0.0934582
0.0934582
0.0934582
0.0934582
0.0934582
0.0934582
0.0934582
0.0934582
0.0934582
0.0934582
0.0934582
0.0934582
0.0934582
0.0934638
0.0935082
0.129907
0.0901828
0.0901828
0.0901828
0.0901828
0.0901828
0.0901828
0.0901828
0.0901828
0.0901828
0.0901828
0.0901828
0.0901828
0.0901828
0.0901828
0.0901828
0.0901828
0.0901828
0.0901888
0.0902421
0.129907
0.0901828
0.0901828
0.0901828
0.0901828
0.0901828
0.129907
0.0902421
0.0901888
0.0901828
0.0901828
0.0901828
0.0901828
0.0901828
0.0901828
0.0901828
0.0901828
0.0901828
0.0901828
0.0901828
0.0901828
0.0901828
0.0901828
0.0901828
0.0901828
0.0901828
0.129907
0.0935082
0.0934638
0.0934582
0.0934582
0.0934582
0.0934582
0.0934582
0.0934582
0.0934582
0.0934582
0.0934582
0.0934582
0.0934582
0.0934582
0.0934582
0.0934582
0.0934582
0.0934582
0.0934582
0.0934582
0.0934582
0.0934582
0.0934582
0.0934582
0.0934582
0.0934582
0.0934582
0.0934582
0.0934582
0.0934582
0.0934582
0.0934582
0.0934582
0.0934582
0.0934582
0.0934582
0.0934638
0.0935082
0.129907
0.129907
0.0902421
0.0901888
0.0901828
0.0901828
0.0901828
0.0901828
0.0901828
0.0901828
0.0901828
0.0901828
0.0901828
0.0901828
0.0901828
0.0901828
0.0901828
0.0901828
0.0901828
0.0901816
0.0874105
)
;
    }
    obstacle
    {
        type            calculated;
        value           nonuniform List<scalar> 
40
(
0
0
0
0
0
0
0
0
0
0
0
1.82208e-20
1.89296e-20
0
1.28747e-23
1.31606e-23
0
0
0
0
3.3613e-17
3.62906e-17
5.20043e-17
1.56959e-17
7.09054e-16
1.40253e-18
7.83306e-18
3.02055e-17
4.77543e-17
7.67077e-16
5.4691e-13
2.76165e-11
8.54728e-10
9.61576e-06
0.000317716
5.46614e-13
2.76161e-11
8.54727e-10
9.61576e-06
0.000317716
)
;
    }
    empty
    {
        type            empty;
    }
}


// ************************************************************************* //
