/*--------------------------------*- C++ -*----------------------------------*\
| =========                 |                                                 |
| \\      /  F ield         | OpenFOAM: The Open Source CFD Toolbox           |
|  \\    /   O peration     | Version:  v1912                                 |
|   \\  /    A nd           | Website:  www.openfoam.com                      |
|    \\/     M anipulation  |                                                 |
\*---------------------------------------------------------------------------*/
FoamFile
{
    version     2.0;
    format      ascii;
    class       volVectorField;
    location    "9.06";
    object      grad(rho);
}
// * * * * * * * * * * * * * * * * * * * * * * * * * * * * * * * * * * * * * //

dimensions      [1 -4 0 0 0 0 0];


internalField   nonuniform List<vector> 
1900
(
(-52501.9 -0.0705589 0)
(26803.7 -0.151964 0)
(5802.78 -0.1494 0)
(5306.93 0.910416 0)
(3430.57 0.207961 0)
(373.709 0.277373 0)
(-1224.52 -0.414372 0)
(-1449.9 -5.80614 0)
(-1339.28 41.5526 0)
(-80.5049 19.796 0)
(-52502.1 -0.136314 0)
(26803.6 -0.285385 0)
(5803.84 -0.24925 0)
(5307.29 2.01992 0)
(3429.94 1.56748 0)
(373.087 3.45108 0)
(-1230.61 0.0573427 0)
(-1407.93 -31.8972 0)
(-1313.67 -30.5463 0)
(-1203.07 -61.041 0)
(-52502.3 1.2701e-09 0)
(26803.6 2.22045e-09 0)
(5805.08 2.71783e-09 0)
(5308.75 5.27578e-09 0)
(3432 5.56e-09 0)
(372.199 1.74083e-09 0)
(-1259.87 -2.66454e-09 0)
(-1480.5 5.86198e-10 0)
(-1368.42 1.06581e-09 0)
(-1309.07 6.75016e-10 0)
(-52502.1 0.136314 0)
(26803.6 0.285385 0)
(5803.84 0.24925 0)
(5307.29 -2.01992 0)
(3429.94 -1.56748 0)
(373.087 -3.45108 0)
(-1230.61 -0.0573427 0)
(-1407.93 31.8972 0)
(-1313.67 30.5463 0)
(-1203.07 61.041 0)
(-52501.9 0.0705589 0)
(26803.7 0.151964 0)
(5802.78 0.1494 0)
(5306.93 -0.910416 0)
(3430.57 -0.207961 0)
(373.709 -0.277373 0)
(-1224.52 0.414372 0)
(-1449.9 5.80614 0)
(-1339.28 -41.5526 0)
(-80.5049 -19.796 0)
(-593.869 -925.301 1.24043e-11)
(-2715.3 -760.41 -1.4608e-11)
(-3948.46 -822.416 -1.82762e-11)
(-4340.09 -930.144 0)
(-25744 -7426.57 -7.51553e-11)
(-1303.49 -1096.83 1.22371e-11)
(-2077.05 -909.524 1.4608e-11)
(-3664.94 -839.742 1.82762e-11)
(-6706.79 -437.922 0)
(-24022.2 -6097.86 0)
(-1683.54 2.57443e-10 0)
(-2122.4 1.46082e-09 0)
(-3459.73 2.71388e-10 0)
(-6492.28 1.41301e-09 0)
(-26302.4 -1.11022e-09 0)
(-1303.49 1096.83 1.22371e-11)
(-2077.05 909.524 1.4608e-11)
(-3664.94 839.742 1.82762e-11)
(-6706.79 437.922 0)
(-24022.2 6097.86 0)
(-593.869 925.301 -3.68786e-11)
(-2715.3 760.41 -1.4608e-11)
(-3948.46 822.416 -1.82762e-11)
(-4340.09 930.144 -4.85174e-11)
(-25744 7426.57 7.51553e-11)
(-43003.9 14456.3 1.73178e-11)
(-15502.6 6237.26 -9.92023e-12)
(-7835.86 3076.77 0)
(-5780.89 2113.59 4.9077e-12)
(-1714.69 1404.5 -1.73148e-12)
(-38526.5 18729.1 -8.87661e-12)
(-17980.2 5420.69 5.05404e-12)
(-8841.66 1874.89 0)
(-6231.98 1242.77 -3.11645e-12)
(-3481.57 414.577 4.46567e-13)
(-40081.4 -7.62577e-10 0)
(-19802.3 -7.21171e-10 0)
(-9156.09 1.01976e-09 0)
(-6415.87 -3.1928e-10 1.26155e-12)
(-3504.28 1.09075e-09 -8.93133e-13)
(-38526.5 -18729.1 -8.87661e-12)
(-17980.2 -5420.69 5.05404e-12)
(-8841.66 -1874.89 0)
(-6231.98 -1242.77 -3.11645e-12)
(-3481.57 -414.577 4.46567e-13)
(-43003.9 -14456.3 8.87661e-12)
(-15502.6 -6237.26 -1.87846e-13)
(-7835.86 -3076.77 0)
(-5780.89 -2113.59 6.36544e-14)
(-1714.69 -1404.5 1.73148e-12)
(2024.4 -8924.49 0)
(1286.8 -7513.47 0)
(458.679 -5034.13 0)
(20.8623 -4819.67 0)
(-245.679 -4874.29 0)
(-510.229 -4880.63 0)
(-749.975 -4741.15 0)
(-861.995 -4547.03 0)
(-896.69 -4311.12 0)
(-772.069 -3921.55 0)
(-723.214 -3402.04 0)
(-956.582 -2955.86 0)
(-864.874 -2358.07 0)
(-108.906 -1923.19 0)
(1762.19 -1827.82 0)
(3838.97 -1973.78 0)
(2623.36 -2335.64 0)
(295.602 -2143.32 0)
(-300.628 -1868.74 0)
(-597.234 -1379.63 0)
(-648.239 -848.627 0)
(-504.856 -346.623 0)
(-332.572 147.49 0)
(-252.168 140.82 0)
(-299.114 -269.914 0)
(-568.815 -379.867 0)
(2265.47 -413.781 0)
(4230.26 -412.946 0)
(-1835.32 -173.719 0)
(-6024.38 142.631 0)
(-2695.96 84.2039 0)
(152.592 26.604 0)
(438.283 17.658 0)
(465.982 16.8026 0)
(605.524 15.1084 0)
(761.774 16.0372 0)
(851.081 15.3588 0)
(900.283 16.806 0)
(918.609 15.725 0)
(916.03 14.8324 0)
(355.354 -3341.31 0)
(1533.05 -5058.99 0)
(778.3 -3316.94 0)
(-135.956 -3179.19 0)
(-338.751 -3205.54 0)
(-504.461 -3218.18 0)
(-629.445 -2971.55 0)
(-709.584 -2642.99 0)
(-743.858 -2368.47 0)
(-617.069 -2075.14 0)
(-588.278 -1784.99 0)
(-806.016 -1544.62 0)
(-724.974 -1170.7 0)
(-49.6479 -973.772 0)
(1753.18 -930.031 0)
(3771.15 -1007.49 0)
(2604.3 -1209.85 0)
(358.703 -1079.42 0)
(-208.941 -967.439 0)
(-470.712 -727.777 0)
(-521.361 -478.776 0)
(-359.362 -190.647 0)
(-240.868 78.4321 0)
(-285.564 -21.3996 0)
(-318.307 -51.7229 0)
(-551.527 82.6511 0)
(2262.04 156.535 0)
(4198.85 207.191 0)
(-1843.48 38.9692 0)
(-6008.49 65.1055 0)
(-2705.94 33.1608 0)
(146.408 9.10365 0)
(437.623 5.74324 0)
(466.143 6.37323 0)
(606.173 6.1137 0)
(762.84 6.42858 0)
(852.284 5.33593 0)
(901.118 6.33188 0)
(918.452 6.60973 0)
(911.28 7.11819 0)
(202.065 2.58379e-10 0)
(1293.89 6.21725e-10 0)
(1005.53 1.71176e-09 0)
(53.2704 3.18129e-09 0)
(-257.02 4.38437e-09 0)
(-442.159 2.4546e-09 0)
(-582.648 2.05896e-09 0)
(-686.553 3.09248e-09 0)
(-731.495 1.2596e-09 0)
(-602.331 -8.07435e-12 0)
(-568.883 1.61487e-09 0)
(-777.88 2.26889e-09 0)
(-698.808 4.06947e-09 0)
(-38.8924 1.50183e-09 0)
(1752.38 1.53413e-09 0)
(3757.57 1.84903e-09 0)
(2602.43 2.84217e-09 0)
(366.121 2.53535e-09 0)
(-198.333 -3.43967e-09 0)
(-455.078 -5.42596e-09 0)
(-491.983 1.58096e-08 0)
(-342.759 -1.45419e-08 0)
(-283.336 -2.05508e-07 0)
(-290.032 -6.15911e-08 0)
(-268.844 2.26082e-08 0)
(-508.231 -1.57046e-08 0)
(2301.7 -1.58822e-08 0)
(4196.06 -2.37709e-08 0)
(-1876.66 1.05774e-08 0)
(-6026.07 1.34842e-09 0)
(-2712.25 -9.86685e-09 0)
(144.616 -8.23584e-10 0)
(437.489 7.91286e-10 0)
(466.09 6.05576e-10 0)
(605.54 -2.04281e-09 0)
(761.548 -3.62538e-09 0)
(851.052 -2.26889e-09 0)
(900.653 -5.89427e-10 0)
(918.838 1.61487e-09 0)
(917.236 3.01981e-09 0)
(355.354 3341.31 0)
(1533.05 5058.99 0)
(778.3 3316.94 0)
(-135.956 3179.19 0)
(-338.751 3205.54 0)
(-504.461 3218.18 0)
(-629.445 2971.55 0)
(-709.584 2642.99 0)
(-743.858 2368.47 0)
(-617.069 2075.14 0)
(-588.278 1784.99 0)
(-806.016 1544.62 0)
(-724.974 1170.7 0)
(-49.6479 973.772 0)
(1753.18 930.031 0)
(3771.15 1007.49 0)
(2604.3 1209.85 0)
(358.703 1079.42 0)
(-208.941 967.439 0)
(-470.712 727.777 0)
(-521.361 478.776 0)
(-359.362 190.647 0)
(-240.868 -78.4321 0)
(-285.564 21.3996 0)
(-318.307 51.7229 0)
(-551.527 -82.6511 0)
(2262.04 -156.535 0)
(4198.85 -207.191 0)
(-1843.48 -38.9692 0)
(-6008.49 -65.1055 0)
(-2705.94 -33.1608 0)
(146.408 -9.10365 0)
(437.623 -5.74324 0)
(466.143 -6.37323 0)
(606.173 -6.1137 0)
(762.84 -6.42858 0)
(852.284 -5.33593 0)
(901.118 -6.33188 0)
(918.452 -6.60973 0)
(911.28 -7.11819 0)
(2024.4 8924.49 0)
(1286.8 7513.47 0)
(458.679 5034.13 0)
(20.8623 4819.67 0)
(-245.679 4874.29 0)
(-510.229 4880.63 0)
(-749.975 4741.15 0)
(-861.995 4547.03 0)
(-896.69 4311.12 0)
(-772.069 3921.55 0)
(-723.214 3402.04 0)
(-956.582 2955.86 0)
(-864.874 2358.07 0)
(-108.906 1923.19 0)
(1762.19 1827.82 0)
(3838.97 1973.78 0)
(2623.36 2335.64 0)
(295.602 2143.32 0)
(-300.628 1868.74 0)
(-597.234 1379.63 0)
(-648.239 848.627 0)
(-504.856 346.623 0)
(-332.572 -147.49 0)
(-252.168 -140.82 0)
(-299.114 269.914 0)
(-568.815 379.867 0)
(2265.47 413.781 0)
(4230.26 412.946 0)
(-1835.32 173.719 0)
(-6024.38 -142.631 0)
(-2695.96 -84.2039 0)
(152.592 -26.604 0)
(438.283 -17.658 0)
(465.982 -16.8026 0)
(605.524 -15.1084 0)
(761.774 -16.0372 0)
(851.081 -15.3588 0)
(900.283 -16.806 0)
(918.609 -15.725 0)
(916.03 -14.8324 0)
(-476.498 9419.6 0)
(-622.535 6841.82 0)
(-541.882 5138.99 0)
(-417.542 3983.97 0)
(-408.127 3424.71 0)
(-581.31 3067.78 0)
(-699.339 3033.91 0)
(-803.1 3168 0)
(-959.497 3249.01 0)
(-1008.09 3228.36 0)
(-1038.01 3019.15 0)
(-1286.78 2768.04 0)
(-1210.98 2459.63 0)
(-313.74 2094.86 0)
(1774.5 2025.85 0)
(4011.27 2151.51 0)
(2688.6 2364.62 0)
(138.792 2235.49 0)
(-581.97 1977.54 0)
(-964.311 1431.81 0)
(-1022.63 832.788 0)
(-815.971 308.331 0)
(-440.595 19.3802 0)
(-62.3518 -136.901 0)
(-13.8871 -116.739 0)
(-441.294 -56.8829 0)
(2278.82 52.1985 0)
(4011.96 153.721 0)
(-2201.4 -253.128 0)
(-6151.92 -430.656 0)
(-2644.7 -134.344 0)
(181 -41.5857 0)
(443.008 -28.6236 0)
(467.928 -28.0877 0)
(607.404 -24.65 0)
(763.915 -20.4693 0)
(853.193 -14.5732 0)
(901.854 -10.7936 0)
(919.51 -7.64935 0)
(916.247 -9.00512 0)
(-1924.7 4408.84 0)
(-1814.31 3828.93 0)
(-1758.71 3502.07 0)
(-1396 3129.6 0)
(-1041.45 2608.5 0)
(-848.694 2161.39 0)
(-680.552 1866.23 0)
(-686.304 1675.46 0)
(-804.843 1588.54 0)
(-867.009 1659 0)
(-997.994 1717.38 0)
(-1318.69 1751.47 0)
(-1327.98 1888.67 0)
(-417.065 1698.49 0)
(1810.18 1631.42 0)
(4073.02 1817.13 0)
(2669.3 1850.17 0)
(6.68115 1820.81 0)
(-924.219 1666.88 0)
(-1503.52 1220.23 0)
(-1530.11 621.248 0)
(-1121.85 273.527 0)
(-703.688 115.065 0)
(-485.123 -114.712 0)
(-374.953 -392.912 0)
(-474.402 -575.075 0)
(2461.26 -480.516 0)
(4053.1 -376.855 0)
(-2202.14 -879.163 0)
(-5841.52 -787.526 0)
(-2348.53 -154.824 0)
(239.235 -37.6463 0)
(448.756 -30.4912 0)
(468.768 -35.8656 0)
(611.857 -35.3717 0)
(770.337 -30.2353 0)
(859.271 -20.1143 0)
(906.113 -10.9721 0)
(919.849 -7.31829 0)
(925.479 -10.0479 0)
(-1708.25 1182.09 0)
(-1496.34 1281.39 0)
(-1215.78 1283.21 0)
(-1278.62 1328.87 0)
(-1341.13 1217.31 0)
(-1296.59 1050.16 0)
(-1167.6 815.413 0)
(-1070.7 503.895 0)
(-975.358 293.466 0)
(-883.938 239.613 0)
(-948.904 158.778 0)
(-1121.71 165.512 0)
(-1262.03 600.385 0)
(-561.635 1023.84 0)
(1888.83 1145.45 0)
(4222.07 1401.64 0)
(2692.14 665.455 0)
(-37.8293 551.121 0)
(-1160.71 453.929 0)
(-1971.92 189.212 0)
(-1934.91 -45.8052 0)
(-1303.75 -66.8586 0)
(-814.716 -87.6794 0)
(-551.857 -120 0)
(-457.509 -125.364 0)
(-525.712 -231.884 0)
(2469.84 -101.553 0)
(3627.8 -87.9621 0)
(-2597.14 -927.947 0)
(-5453.92 -853.188 0)
(-1922.09 -44.2501 0)
(300.812 73.6861 0)
(444.724 58.9954 0)
(463.225 17.5503 0)
(612.829 -17.3792 0)
(778.617 -32.6276 0)
(871.756 -25.3147 0)
(914.184 -13.4936 0)
(920.4 -8.75352 0)
(931.372 -9.79357 0)
(-1454.35 5.89798 0)
(-1716.87 195.137 0)
(-1712.96 100.83 0)
(-1459.5 37.9045 0)
(-1310.02 -8.47352 0)
(-1235.97 9.27593 0)
(-1206.95 10.4689 0)
(-1189.27 -176.61 0)
(-1059.51 -321.416 0)
(-996.799 -416.278 0)
(-1069.4 -705.226 0)
(-893.146 -601.262 0)
(-500.858 -91.3478 0)
(108.182 578.498 0)
(2174.24 1028.23 0)
(3610.48 1216.93 0)
(1849.71 -259.815 0)
(-197.153 -506.977 0)
(-1272.97 -616.643 0)
(-1985.08 -772.532 0)
(-1776.86 -686.301 0)
(-1162.21 -470.775 0)
(-754.897 -387.989 0)
(-521.437 -326.15 0)
(-482.767 -285.606 0)
(-451.457 -332.868 0)
(2599.95 33.7221 0)
(3256.76 288.496 0)
(-2939.54 -509.273 0)
(-4989.96 -441.248 0)
(-1455.36 405.636 0)
(338.726 424.895 0)
(394.662 307.275 0)
(395.171 202.363 0)
(563.504 121.346 0)
(762.69 47.4312 0)
(877.71 -9.68884 0)
(922.072 -19.6345 0)
(923.415 -14.2776 0)
(935.458 -12.689 0)
(-1423.12 -417.386 0)
(-1404.86 -275.736 0)
(-1367.3 33.6247 0)
(-1383.95 158.923 0)
(-1368.72 136.186 0)
(-1278.33 124.045 0)
(-1346.72 92.1885 0)
(-1390.52 46.6641 0)
(-1206.31 59.9502 0)
(-1253.79 -126.189 0)
(-1127.16 -410.477 0)
(-530.158 30.5569 0)
(-125.173 438.273 0)
(517.227 759.694 0)
(2504.05 1361.22 0)
(2980.86 870.268 0)
(1030.93 -416.457 0)
(-381.682 -606.006 0)
(-1416.61 -808.035 0)
(-2039.05 -1011.84 0)
(-1644.13 -818.904 0)
(-1016.28 -561.438 0)
(-675.35 -447.114 0)
(-453.197 -325.399 0)
(-463.983 -145.993 0)
(-217.995 -92.0004 0)
(3068.6 979.735 0)
(3104.55 2238.19 0)
(-3300.35 809.707 0)
(-4572.28 905.423 0)
(-1087.44 1700.45 0)
(206.028 1505.04 0)
(230.284 1135.36 0)
(284.056 782.057 0)
(463.532 481.058 0)
(652.347 260.893 0)
(807.129 125.951 0)
(909.762 21.378 0)
(927.093 -11.0325 0)
(943.802 -15.4241 0)
(-1326.71 -584.589 0)
(-1282.26 -475.43 0)
(-1294.11 -346.857 0)
(-1360.67 -285.907 0)
(-1343.63 -212.789 0)
(-1278.37 -173.161 0)
(-1281.52 -211.28 0)
(-1220.34 -102.329 0)
(-1226.08 26.1245 0)
(-1450.12 -95.3125 0)
(-918.354 37.5974 0)
(-75.2593 346.076 0)
(201.765 423.374 0)
(997.565 658.694 0)
(2280.79 987.656 0)
(1897.45 -50.3811 0)
(427.118 -861.988 0)
(-574.491 -1036.58 0)
(-1664.04 -1463.7 0)
(-1995.55 -1432.67 0)
(-1342.84 -925.595 0)
(-803.936 -605.853 0)
(-527.441 -190.357 0)
(-231.266 147.887 0)
(-257.856 484.162 0)
(633.335 1223.01 0)
(4845.4 3894.93 0)
(3092.91 4238.82 0)
(-4223.84 1302.74 0)
(-4131.6 1801.37 0)
(-877.543 2652.66 0)
(-205.819 2478.07 0)
(-302.034 2154.95 0)
(-235.336 1740.06 0)
(61.2916 1271.21 0)
(420.497 821.445 0)
(646.904 442.986 0)
(790.069 191.449 0)
(887.951 31.9 0)
(946.707 -17.767 0)
(-1244.67 -662.397 0)
(-1175.77 -575.719 0)
(-1184.67 -489.462 0)
(-1254.75 -391.358 0)
(-1260.07 -272.534 0)
(-1276.88 -206.993 0)
(-1278.47 -197.582 0)
(-1161.74 -144.556 0)
(-1199.55 -115.591 0)
(-1242.74 -118.54 0)
(-701.823 231.683 0)
(-158.41 242.589 0)
(176.077 230.584 0)
(1060.99 499.251 0)
(1820.76 262.161 0)
(1198.48 -911.031 0)
(80.592 -1361.5 0)
(-961.518 -1763.71 0)
(-1798.3 -2170.66 0)
(-1520.51 -1494.39 0)
(-847.375 -535.542 0)
(-307.781 11.3469 0)
(50.9811 822.038 0)
(196.795 2102.58 0)
(572.045 2833.92 0)
(3068.74 3717.77 0)
(5974.75 5602.83 0)
(606.626 2190.65 0)
(-5649.17 -306.437 0)
(-3271.44 1175.18 0)
(-435.347 1924.08 0)
(-273.591 1997.59 0)
(-480.889 2036.03 0)
(-567.545 2002.37 0)
(-421.68 1831.08 0)
(-145.759 1488.69 0)
(200.042 1013.3 0)
(513.625 557.051 0)
(725.485 194.83 0)
(908.723 -25.0537 0)
(-1172.78 -751.741 0)
(-1115.61 -667.332 0)
(-1116.45 -622.041 0)
(-1151.63 -545.675 0)
(-1165.97 -446.346 0)
(-1206.15 -401.841 0)
(-1221.36 -354.499 0)
(-1141.33 -272.846 0)
(-1201.01 -262.524 0)
(-1115.47 -175.321 0)
(-570.358 163.644 0)
(-76.3176 258.902 0)
(449.094 341.888 0)
(1027.99 274.356 0)
(921.79 -346.825 0)
(332.827 -1270.37 0)
(-394.553 -1774.34 0)
(-1354.23 -2393.49 0)
(-1404.52 -1492.65 0)
(-419.897 -275.634 0)
(108.141 911.001 0)
(504.278 2568.13 0)
(1487.75 3696.33 0)
(1707.46 4134.95 0)
(1298.6 4037.07 0)
(3301.55 3935.27 0)
(3373.81 3009.13 0)
(-2601.47 -1513.6 0)
(-5202.39 -1725.81 0)
(-1982.19 493.625 0)
(-85.0334 861.473 0)
(-97.9452 991.549 0)
(-297.427 1164.42 0)
(-432.828 1351.17 0)
(-433.71 1480 0)
(-367.548 1490.25 0)
(-250.861 1366.77 0)
(1.36189 1002.55 0)
(327.014 493.63 0)
(716.072 -33.7063 0)
(-1071.27 -955.833 0)
(-1050.79 -837.702 0)
(-1067.44 -777.456 0)
(-1085.45 -733.763 0)
(-1121.47 -727.288 0)
(-1188.37 -756.14 0)
(-1154.16 -717.755 0)
(-1073.11 -633.786 0)
(-1105.57 -587.919 0)
(-832.065 -337.948 0)
(-283.39 -26.6398 0)
(13.3526 109.609 0)
(190.969 128.432 0)
(397.321 -201.408 0)
(332.206 -831.047 0)
(-177.122 -1276.04 0)
(-1001.69 -1430.24 0)
(-690.079 -619.025 0)
(242.542 1132.75 0)
(795.742 2823.01 0)
(1892.98 3978.83 0)
(2376.26 4716.32 0)
(1560.82 4589.33 0)
(525.15 3231.72 0)
(379.629 1946.68 0)
(2078.17 1345.03 0)
(724.023 -692.148 0)
(-3956.13 -3186.6 0)
(-3714.94 -1544 0)
(-778.24 249.493 0)
(44.4713 382.223 0)
(18.3389 409.829 0)
(-134.342 515.157 0)
(-263.443 650.489 0)
(-287.657 774.867 0)
(-254.865 894.34 0)
(-269.929 1005.21 0)
(-327.768 1021.76 0)
(-273.086 672.147 0)
(263.33 -10.1759 0)
(-907.156 -1251.27 0)
(-943.722 -1200.75 0)
(-1016.29 -1216.86 0)
(-1103.29 -1242.03 0)
(-1187.53 -1255.82 0)
(-1196.96 -1192.06 0)
(-1103.45 -979.051 0)
(-1016.21 -704.087 0)
(-915.931 -378.316 0)
(-574.605 65.9566 0)
(-139.076 240.49 0)
(73.1152 258.951 0)
(149.387 401.156 0)
(103.405 480.349 0)
(-113.765 444.683 0)
(-244.572 703.127 0)
(238.571 1444.2 0)
(1115.56 3031.24 0)
(1912.35 4070.16 0)
(2322.68 4756.49 0)
(1932.61 4644.56 0)
(1092.58 3263.77 0)
(57.1282 1819.46 0)
(-839.089 830.117 0)
(-519.478 17.0703 0)
(758.681 -816.432 0)
(-993.035 -3127.17 0)
(-3422.35 -3313.74 0)
(-1891.25 -753.29 0)
(-126.019 150.309 0)
(69.4726 232.546 0)
(30.1543 226.487 0)
(-65.5185 261.914 0)
(-182.561 306.261 0)
(-198.726 328.653 0)
(-145.58 351.807 0)
(-128.075 380.797 0)
(-319.591 484.6 0)
(-667.396 455.031 0)
(-318.877 -25.6473 0)
(-939.943 -1591.67 0)
(-1017.62 -1657.64 0)
(-1107.21 -1671.01 0)
(-1123 -1496.48 0)
(-1073.31 -1038.65 0)
(-921.662 -416.505 0)
(-683.938 175.447 0)
(-494.223 775.507 0)
(-363.528 1559.73 0)
(-235.761 2315.36 0)
(-97.4141 2614.14 0)
(168.177 2698.89 0)
(404.316 2777.21 0)
(439.265 2718.86 0)
(546.883 2867.47 0)
(786.044 3216.76 0)
(1241.76 3906.1 0)
(1840.4 4164.15 0)
(1905.06 3881.12 0)
(1349.25 2964.03 0)
(454.542 1837.99 0)
(-346.109 874.274 0)
(-784.339 -0.954987 0)
(-1211.7 -531.527 0)
(-1207.04 -1007.13 0)
(-951.727 -2351 0)
(-1682.48 -4000.81 0)
(-1668.58 -2251.98 0)
(-376.85 -196.956 0)
(171.748 153.745 0)
(117.88 193.998 0)
(46.6387 210.689 0)
(-57.4696 222.3 0)
(-199.131 243.18 0)
(-243.767 231.122 0)
(-204.617 187.573 0)
(-141.964 85.6985 0)
(-256.233 16.7907 0)
(-764.779 38.5071 0)
(-727.518 -149.451 0)
(-1032.69 -1956.89 0)
(-1020.17 -1724.46 0)
(-860.991 -1117.29 0)
(-493.921 -271.074 0)
(-146.831 533.39 0)
(-27.0155 1362.84 0)
(45.216 2109.83 0)
(317.736 2696.21 0)
(567.928 3185.46 0)
(441.457 3485.41 0)
(230.502 3648.66 0)
(230.26 3728.81 0)
(168.633 3690.22 0)
(190.378 3405.35 0)
(366.027 3137.81 0)
(756.288 2998.63 0)
(1151.52 2898.28 0)
(1091.49 2426.69 0)
(755.867 1639.82 0)
(353.853 834.922 0)
(-81.1563 177.744 0)
(-679.497 -211.704 0)
(-1297.55 -639.671 0)
(-1808.67 -1282.46 0)
(-2272.79 -2314.49 0)
(-2126.14 -3498.84 0)
(-897.609 -3192.23 0)
(243.187 -1155.67 0)
(426.995 -53.5533 0)
(250.718 75.8351 0)
(124.346 89.132 0)
(57.4281 104.647 0)
(-34.2088 118.316 0)
(-174.061 168.702 0)
(-252.311 204.535 0)
(-285.716 184.598 0)
(-292.647 53.8045 0)
(-365.066 -143.23 0)
(-827.592 -264.334 0)
(-853.635 -268.556 0)
(-442.578 -2347.21 0)
(-208.55 -1324.5 0)
(293.318 -191.189 0)
(467.657 656.254 0)
(501.191 919.066 0)
(597.448 913.898 0)
(600.944 977.065 0)
(542.294 1044.72 0)
(396.975 936.646 0)
(210.601 767.859 0)
(137.137 892.407 0)
(208.227 1332.13 0)
(92.6138 1736.45 0)
(-93.0565 1924.25 0)
(154.957 1876.49 0)
(555.222 1746.37 0)
(690.618 1429.07 0)
(627.701 1018.68 0)
(371.18 611.507 0)
(-59.6598 140.956 0)
(-554.026 -401.863 0)
(-1133.8 -907.849 0)
(-1816.16 -1488.55 0)
(-2825.61 -2466.32 0)
(-3342.83 -3453.06 0)
(-1797.55 -3074.63 0)
(575.48 -1743.27 0)
(1355.97 -678.554 0)
(809.877 -214.235 0)
(309.244 -122.842 0)
(145.644 -89.7698 0)
(74.7617 -64.4569 0)
(4.25603 -25.0455 0)
(-116.048 36.8914 0)
(-228.449 104.47 0)
(-349.866 97.927 0)
(-457.871 18.7871 0)
(-562.803 -154.439 0)
(-885.548 -329.784 0)
(-779.567 -265.413 0)
(785.532 -2331.93 0)
(1057.44 -1239.57 0)
(1047.74 -612.484 0)
(575.961 -530.409 0)
(101.445 -594.336 0)
(28.8742 -780.987 0)
(171.276 -982.908 0)
(278.787 -1102.86 0)
(301.139 -1114.37 0)
(398.827 -785.342 0)
(774.256 -259.001 0)
(1043.61 320.456 0)
(739.223 641.139 0)
(325.323 1004.06 0)
(194.612 1298.49 0)
(325.137 1246.32 0)
(450.283 924.265 0)
(303.662 517.981 0)
(-89.936 -12.9576 0)
(-622.668 -529.577 0)
(-1091.82 -1116.23 0)
(-1726.67 -1829.19 0)
(-2799.35 -2780.1 0)
(-3701.74 -3559.89 0)
(-2858.98 -2904.62 0)
(-478.525 -1386.05 0)
(1411.34 -760.954 0)
(1716.62 -557.797 0)
(962.499 -386.8 0)
(370.657 -256.268 0)
(180.608 -232.866 0)
(119.799 -209.787 0)
(63.4542 -158.913 0)
(-49.2545 -99.9496 0)
(-193.495 -19.1738 0)
(-368.283 3.99701 0)
(-535.837 -11.2126 0)
(-700.962 -110.988 0)
(-934.531 -249.256 0)
(-777.991 -182.649 0)
(1657.41 -1442.58 0)
(1448.37 -1300.02 0)
(976.686 -1388.39 0)
(485.145 -1594.59 0)
(259.725 -1538.7 0)
(223.005 -1380.95 0)
(290.78 -1188.61 0)
(415.609 -917.823 0)
(702.943 -573.763 0)
(1034.87 -106.229 0)
(1202.72 307.1 0)
(1075.63 422.864 0)
(751.355 418.578 0)
(540.386 600.386 0)
(388.415 744.373 0)
(194.61 729.982 0)
(-11.2387 342.595 0)
(-275.441 -195.826 0)
(-638.285 -799.178 0)
(-1122.81 -1383.45 0)
(-1806.38 -2090.86 0)
(-2737.17 -3031.36 0)
(-3483.92 -3604.03 0)
(-2945.6 -2814.61 0)
(-1248.03 -1038.77 0)
(268.161 -90.515 0)
(1373.61 -243.774 0)
(1716.52 -518.924 0)
(1100.44 -454.574 0)
(457.58 -289.311 0)
(190.434 -267.559 0)
(146.026 -257.521 0)
(110.1 -240.34 0)
(18.6103 -215.964 0)
(-128.282 -157.465 0)
(-342.195 -103.93 0)
(-568.675 -72.6503 0)
(-792.19 -110.527 0)
(-954.604 -185.648 0)
(-740.859 -109.054 0)
(1434.2 -686.994 0)
(1109.66 -1167.21 0)
(763.887 -1516.55 0)
(431.117 -1640.3 0)
(307.313 -1570.62 0)
(366.236 -1415.34 0)
(617.563 -1165.43 0)
(871.272 -877.144 0)
(1083.22 -576.269 0)
(1247.66 -424.283 0)
(1284.11 -327.918 0)
(1151.04 -257.358 0)
(910.29 -52.6537 0)
(639.271 101.418 0)
(319.496 37.8803 0)
(-62.0305 -186.212 0)
(-441.859 -545.359 0)
(-796.592 -1042.51 0)
(-1234.38 -1646.91 0)
(-1867.38 -2395.13 0)
(-2679.8 -3185.26 0)
(-3184.82 -3455.69 0)
(-2590.48 -2512.7 0)
(-1229.76 -836.986 0)
(-233.948 236.575 0)
(287.564 443.275 0)
(998.508 159.447 0)
(1513.48 -356.739 0)
(1183.76 -432.353 0)
(550.871 -264.103 0)
(211.242 -232.519 0)
(146.029 -279.208 0)
(103.5 -348.779 0)
(30.6067 -376.655 0)
(-85.5354 -358.872 0)
(-286.553 -299.003 0)
(-542.194 -188.631 0)
(-809.85 -99.3383 0)
(-933.111 -50.6278 0)
(-628.879 -0.601957 0)
(450.386 -465.34 0)
(648.982 -931.462 0)
(520.801 -1216.82 0)
(433.034 -1308.06 0)
(476.499 -1286.09 0)
(613.46 -1154.16 0)
(809.407 -1038.26 0)
(983.349 -1035.9 0)
(1139.34 -1095.14 0)
(1274.19 -1181.14 0)
(1363.58 -1177.7 0)
(1340.89 -1076.5 0)
(1097.08 -898.769 0)
(627.628 -841.058 0)
(111.244 -919.407 0)
(-367.421 -1138.87 0)
(-836.398 -1490.03 0)
(-1336.93 -1995.03 0)
(-1941.72 -2646.63 0)
(-2605.22 -3236.7 0)
(-2828.38 -3181.64 0)
(-2089.07 -2092.12 0)
(-960.441 -578.505 0)
(-296.302 391.329 0)
(-14.326 681.019 0)
(193.837 659.994 0)
(602.691 475.271 0)
(1146.24 -77.4853 0)
(1189.71 -362.292 0)
(650.148 -243.555 0)
(175.878 -172.564 0)
(33.9933 -270.306 0)
(16.1965 -439.414 0)
(8.88496 -544.122 0)
(-53.454 -583.638 0)
(-178.145 -559.23 0)
(-376.271 -391.376 0)
(-659.206 -213.001 0)
(-859.458 -18.4318 0)
(-690.337 44.1915 0)
(-280.581 -147.937 0)
(385.512 -406.643 0)
(400.982 -667.682 0)
(364.366 -785.435 0)
(455.62 -854.139 0)
(605.053 -925.602 0)
(731.522 -1078.21 0)
(816.46 -1269.56 0)
(943.262 -1501.74 0)
(1168.1 -1704.97 0)
(1384.95 -1826.37 0)
(1419.83 -1886.16 0)
(1137.17 -1923.87 0)
(619.383 -1992.44 0)
(32.5111 -2090.07 0)
(-611.907 -2282.22 0)
(-1266.89 -2642.73 0)
(-1911.13 -3056.17 0)
(-2430.89 -3222.33 0)
(-2382.93 -2748.14 0)
(-1576.84 -1564.99 0)
(-676.347 -273.487 0)
(-197.348 479.492 0)
(-16.0411 751.476 0)
(24.9476 835.945 0)
(89.2978 793.744 0)
(287.846 651.571 0)
(706.377 261.84 0)
(1023.73 -214.723 0)
(733.7 -373.02 0)
(185.464 -304.677 0)
(-111.118 -330.275 0)
(-160.36 -513.444 0)
(-108.373 -683.684 0)
(-100.093 -798.863 0)
(-101.281 -822.774 0)
(-208.555 -685.375 0)
(-450.468 -484.395 0)
(-685.271 -90.4984 0)
(-579.231 67.4586 0)
(-472.003 -105.154 0)
(148.137 -273.894 0)
(155.783 -574.723 0)
(253.357 -655.006 0)
(341.429 -626.469 0)
(397.539 -722.947 0)
(477.953 -920.193 0)
(575.216 -1098.14 0)
(719.758 -1209.41 0)
(961.364 -1337.55 0)
(1188.98 -1648.62 0)
(1246.94 -2195.64 0)
(994.675 -2911.8 0)
(467.475 -3650.16 0)
(-168.003 -4237.95 0)
(-899.986 -4434.86 0)
(-1582.2 -4199.46 0)
(-1895.46 -3564.49 0)
(-1644.89 -2512.71 0)
(-1008.15 -1168.99 0)
(-443.715 -34.2132 0)
(-118.93 529.982 0)
(27.2505 742.495 0)
(47.1902 801.296 0)
(26.4049 812.796 0)
(16.1663 817.597 0)
(90.1296 746.151 0)
(311.445 528.872 0)
(577.935 12.237 0)
(563.465 -539.862 0)
(217.069 -750.398 0)
(-167.182 -808.929 0)
(-324.361 -870.668 0)
(-266.155 -924.84 0)
(-187.486 -969.408 0)
(-68.7841 -954.946 0)
(-50.1961 -881.131 0)
(-85.9606 -718.634 0)
(-327.672 -365.282 0)
(-529.709 178.22 0)
(-921.75 823.742 0)
(-66.9807 751.144 0)
(33.7283 876.231 0)
(314.501 808.943 0)
(390.15 396.556 0)
(322.01 -15.769 0)
(369.968 -448.317 0)
(537.761 -1034.69 0)
(712.558 -1880.77 0)
(744.86 -3048.17 0)
(558.061 -4439.52 0)
(202.574 -5778.2 0)
(-264.458 -6781.11 0)
(-658.534 -7063.76 0)
(-723.651 -6584.56 0)
(-574.824 -5520.39 0)
(-428.174 -3934.42 0)
(-285.712 -2154.67 0)
(-122.489 -679.314 0)
(5.43792 227.481 0)
(60.3434 654.982 0)
(72.1174 808.788 0)
(64.1006 824.76 0)
(51.7042 820.689 0)
(40.6554 832.471 0)
(25.0759 858.012 0)
(9.61996 875.524 0)
(-0.849522 786.601 0)
(-6.13904 480.645 0)
(-1.20276 -63.1843 0)
(-73.8187 -586.335 0)
(-227.015 -856.196 0)
(-272.056 -788.977 0)
(-203.522 -769.967 0)
(-129.104 -739.546 0)
(-16.2147 -648.291 0)
(19.1641 -696.785 0)
(46.6226 -556.014 0)
(178.969 -529.736 0)
(-334.767 -356.808 0)
(-921.75 -823.742 0)
(-66.9807 -751.144 0)
(33.7283 -876.231 0)
(314.501 -808.943 0)
(390.15 -396.556 0)
(322.01 15.769 0)
(369.968 448.317 0)
(537.761 1034.69 0)
(712.558 1880.77 0)
(744.86 3048.17 0)
(558.061 4439.52 0)
(202.574 5778.2 0)
(-264.458 6781.11 0)
(-658.534 7063.76 0)
(-723.651 6584.56 0)
(-574.824 5520.39 0)
(-428.174 3934.42 0)
(-285.712 2154.67 0)
(-122.489 679.314 0)
(5.43792 -227.481 0)
(60.3434 -654.982 0)
(72.1174 -808.788 0)
(64.1006 -824.76 0)
(51.7042 -820.689 0)
(40.6554 -832.471 0)
(25.0759 -858.012 0)
(9.61996 -875.524 0)
(-0.849522 -786.601 0)
(-6.13904 -480.645 0)
(-1.20276 63.1843 0)
(-73.8187 586.335 0)
(-227.015 856.196 0)
(-272.056 788.977 0)
(-203.522 769.967 0)
(-129.104 739.546 0)
(-16.2147 648.291 0)
(19.1641 696.785 0)
(46.6226 556.014 0)
(178.969 529.736 0)
(-334.767 356.808 0)
(-472.003 105.154 0)
(148.137 273.894 0)
(155.783 574.723 0)
(253.357 655.006 0)
(341.429 626.469 0)
(397.539 722.947 0)
(477.953 920.193 0)
(575.216 1098.14 0)
(719.758 1209.41 0)
(961.364 1337.55 0)
(1188.98 1648.62 0)
(1246.94 2195.64 0)
(994.675 2911.8 0)
(467.475 3650.16 0)
(-168.003 4237.95 0)
(-899.986 4434.86 0)
(-1582.2 4199.46 0)
(-1895.46 3564.49 0)
(-1644.89 2512.71 0)
(-1008.15 1168.99 0)
(-443.715 34.2132 0)
(-118.93 -529.982 0)
(27.2505 -742.495 0)
(47.1902 -801.296 0)
(26.4049 -812.796 0)
(16.1663 -817.597 0)
(90.1296 -746.151 0)
(311.445 -528.872 0)
(577.935 -12.237 0)
(563.465 539.862 0)
(217.069 750.398 0)
(-167.182 808.929 0)
(-324.361 870.668 0)
(-266.155 924.84 0)
(-187.486 969.408 0)
(-68.7841 954.946 0)
(-50.1961 881.131 0)
(-85.9606 718.634 0)
(-327.672 365.282 0)
(-529.709 -178.22 0)
(-280.581 147.937 0)
(385.512 406.643 0)
(400.982 667.682 0)
(364.366 785.435 0)
(455.62 854.139 0)
(605.053 925.602 0)
(731.522 1078.21 0)
(816.46 1269.56 0)
(943.262 1501.74 0)
(1168.1 1704.97 0)
(1384.95 1826.37 0)
(1419.83 1886.16 0)
(1137.17 1923.87 0)
(619.383 1992.44 0)
(32.5111 2090.07 0)
(-611.907 2282.22 0)
(-1266.89 2642.73 0)
(-1911.13 3056.17 0)
(-2430.89 3222.33 0)
(-2382.93 2748.14 0)
(-1576.84 1564.99 0)
(-676.347 273.487 0)
(-197.348 -479.492 0)
(-16.0411 -751.476 0)
(24.9476 -835.945 0)
(89.2978 -793.744 0)
(287.846 -651.571 0)
(706.377 -261.84 0)
(1023.73 214.723 0)
(733.7 373.02 0)
(185.464 304.677 0)
(-111.118 330.275 0)
(-160.36 513.444 0)
(-108.373 683.684 0)
(-100.093 798.863 0)
(-101.281 822.774 0)
(-208.555 685.375 0)
(-450.468 484.395 0)
(-685.271 90.4984 0)
(-579.231 -67.4586 0)
(450.386 465.34 0)
(648.982 931.462 0)
(520.801 1216.82 0)
(433.034 1308.06 0)
(476.499 1286.09 0)
(613.46 1154.16 0)
(809.407 1038.26 0)
(983.349 1035.9 0)
(1139.34 1095.14 0)
(1274.19 1181.14 0)
(1363.58 1177.7 0)
(1340.89 1076.5 0)
(1097.08 898.769 0)
(627.628 841.058 0)
(111.244 919.407 0)
(-367.421 1138.87 0)
(-836.398 1490.03 0)
(-1336.93 1995.03 0)
(-1941.72 2646.63 0)
(-2605.22 3236.7 0)
(-2828.38 3181.64 0)
(-2089.07 2092.12 0)
(-960.441 578.505 0)
(-296.302 -391.329 0)
(-14.326 -681.019 0)
(193.837 -659.994 0)
(602.691 -475.271 0)
(1146.24 77.4853 0)
(1189.71 362.292 0)
(650.148 243.555 0)
(175.878 172.564 0)
(33.9933 270.306 0)
(16.1965 439.414 0)
(8.88496 544.122 0)
(-53.454 583.638 0)
(-178.145 559.23 0)
(-376.271 391.376 0)
(-659.206 213.001 0)
(-859.458 18.4318 0)
(-690.337 -44.1915 0)
(1434.2 686.994 0)
(1109.66 1167.21 0)
(763.887 1516.55 0)
(431.117 1640.3 0)
(307.313 1570.62 0)
(366.236 1415.34 0)
(617.563 1165.43 0)
(871.272 877.144 0)
(1083.22 576.269 0)
(1247.66 424.283 0)
(1284.11 327.918 0)
(1151.04 257.358 0)
(910.29 52.6537 0)
(639.271 -101.418 0)
(319.496 -37.8803 0)
(-62.0305 186.212 0)
(-441.859 545.359 0)
(-796.592 1042.51 0)
(-1234.38 1646.91 0)
(-1867.38 2395.13 0)
(-2679.8 3185.26 0)
(-3184.82 3455.69 0)
(-2590.48 2512.7 0)
(-1229.76 836.986 0)
(-233.948 -236.575 0)
(287.564 -443.275 0)
(998.508 -159.447 0)
(1513.48 356.739 0)
(1183.76 432.353 0)
(550.871 264.103 0)
(211.242 232.519 0)
(146.029 279.208 0)
(103.5 348.779 0)
(30.6067 376.655 0)
(-85.5354 358.872 0)
(-286.553 299.003 0)
(-542.194 188.631 0)
(-809.85 99.3383 0)
(-933.111 50.6278 0)
(-628.879 0.601957 0)
(1657.41 1442.58 0)
(1448.37 1300.02 0)
(976.686 1388.39 0)
(485.145 1594.59 0)
(259.725 1538.7 0)
(223.005 1380.95 0)
(290.78 1188.61 0)
(415.609 917.823 0)
(702.943 573.763 0)
(1034.87 106.229 0)
(1202.72 -307.1 0)
(1075.63 -422.864 0)
(751.355 -418.578 0)
(540.386 -600.386 0)
(388.415 -744.373 0)
(194.61 -729.982 0)
(-11.2387 -342.595 0)
(-275.441 195.826 0)
(-638.285 799.178 0)
(-1122.81 1383.45 0)
(-1806.38 2090.86 0)
(-2737.17 3031.36 0)
(-3483.92 3604.03 0)
(-2945.6 2814.61 0)
(-1248.03 1038.77 0)
(268.161 90.515 0)
(1373.61 243.774 0)
(1716.52 518.924 0)
(1100.44 454.574 0)
(457.58 289.311 0)
(190.434 267.559 0)
(146.026 257.521 0)
(110.1 240.34 0)
(18.6103 215.964 0)
(-128.282 157.465 0)
(-342.195 103.93 0)
(-568.675 72.6503 0)
(-792.19 110.527 0)
(-954.604 185.648 0)
(-740.859 109.054 0)
(785.532 2331.93 0)
(1057.44 1239.57 0)
(1047.74 612.484 0)
(575.961 530.409 0)
(101.445 594.336 0)
(28.8742 780.987 0)
(171.276 982.908 0)
(278.787 1102.86 0)
(301.139 1114.37 0)
(398.827 785.342 0)
(774.256 259.001 0)
(1043.61 -320.456 0)
(739.223 -641.139 0)
(325.323 -1004.06 0)
(194.612 -1298.49 0)
(325.137 -1246.32 0)
(450.283 -924.265 0)
(303.662 -517.981 0)
(-89.936 12.9576 0)
(-622.668 529.577 0)
(-1091.82 1116.23 0)
(-1726.67 1829.19 0)
(-2799.35 2780.1 0)
(-3701.74 3559.89 0)
(-2858.98 2904.62 0)
(-478.525 1386.05 0)
(1411.34 760.954 0)
(1716.62 557.797 0)
(962.499 386.8 0)
(370.657 256.268 0)
(180.608 232.866 0)
(119.799 209.787 0)