/*--------------------------------*- C++ -*----------------------------------*\
| =========                 |                                                 |
| \\      /  F ield         | OpenFOAM: The Open Source CFD Toolbox           |
|  \\    /   O peration     | Version:  v1912                                 |
|   \\  /    A nd           | Website:  www.openfoam.com                      |
|    \\/     M anipulation  |                                                 |
\*---------------------------------------------------------------------------*/
FoamFile
{
    version     2.0;
    format      ascii;
    class       volVectorField;
    location    "9.06";
    object      grad(p);
}
// * * * * * * * * * * * * * * * * * * * * * * * * * * * * * * * * * * * * * //

dimensions      [1 -2 -2 0 0 0 0];


internalField   nonuniform List<vector> 
1900
(
(-42971.7 -0.0981494 0)
(26625.3 -0.167932 0)
(2649.44 -0.174928 0)
(619.739 0.76152 0)
(205.815 -0.0194397 0)
(-526.678 0.553676 0)
(-934.08 1.76569 0)
(-681.298 -2.94833 0)
(-410.011 33.0453 0)
(614.409 -4.43088 0)
(-42972 -0.187086 0)
(26625.2 -0.311562 0)
(2650.37 -0.292004 0)
(619.894 1.7845 0)
(205.607 1.18285 0)
(-524.893 3.46796 0)
(-937.582 3.12176 0)
(-650.018 -25.5495 0)
(-411.494 -37.9275 0)
(-439.983 -95.3423 0)
(-42972.2 -9.59233e-10 0)
(26625.2 -1.47438e-09 0)
(2651.54 -1.08358e-09 0)
(621.214 -4.79616e-10 0)
(207.498 -2.66454e-10 0)
(-524.739 -8.17124e-10 0)
(-963.097 -1.33227e-09 0)
(-722.347 4.79616e-10 0)
(-479.804 8.88178e-11 0)
(-539.943 -8.88178e-11 0)
(-42972 0.187086 0)
(26625.2 0.311562 0)
(2650.37 0.292004 0)
(619.894 -1.7845 0)
(205.607 -1.18285 0)
(-524.893 -3.46796 0)
(-937.582 -3.12176 0)
(-650.018 25.5495 0)
(-411.494 37.9275 0)
(-439.983 95.3423 0)
(-42971.7 0.0981494 0)
(26625.3 0.167932 0)
(2649.44 0.174928 0)
(619.739 -0.76152 0)
(205.815 0.0194397 0)
(-526.678 -0.553676 0)
(-934.08 -1.76569 0)
(-681.298 2.94833 0)
(-410.011 -33.0453 0)
(614.409 4.43088 0)
(-146.299 -879.479 8.4915e-12)
(-1879.88 -700.433 -9.91663e-12)
(-1820.26 -856.478 -1.24401e-11)
(247.647 -1170.71 0)
(-18677.5 -7893.4 -5.37746e-11)
(-762.511 -1047.12 8.33258e-12)
(-1339.81 -835.225 9.91663e-12)
(-1780.52 -917.688 1.24401e-11)
(-2295.31 -825.959 0)
(-17678.5 -7150.99 0)
(-1095.06 -4.82706e-10 0)
(-1407.76 2.53209e-10 0)
(-1709.21 -7.40149e-11 0)
(-2375.4 1.17751e-09 0)
(-20489.8 0 0)
(-762.511 1047.12 8.33258e-12)
(-1339.81 835.225 9.91663e-12)
(-1780.52 917.688 1.24401e-11)
(-2295.31 825.959 0)
(-17678.5 7150.99 0)
(-146.299 879.479 -2.51567e-11)
(-1879.88 700.433 -9.91663e-12)
(-1820.26 856.478 -1.24401e-11)
(247.647 1170.71 -3.33729e-11)
(-18677.5 7893.4 5.37746e-11)
(-36483.4 10401.1 9.89073e-12)
(-11000.8 4043.74 -4.84442e-12)
(-4945.66 1884.37 0)
(-3184.88 1257.78 2.00876e-12)
(-1213.6 673.497 -6.62898e-13)
(-32566.9 12884.4 -5.10199e-12)
(-12889.3 3294.63 2.4831e-12)
(-5639.03 1097.8 0)
(-3541.36 752.122 -1.28481e-12)
(-1914.07 97.0154 1.71526e-13)
(-33678.1 0 0)
(-14005 3.41607e-10 0)
(-5751.56 6.16791e-10 0)
(-3622.5 -8.70763e-11 5.22985e-13)
(-1875.77 5.81082e-10 -3.43051e-13)
(-32566.9 -12884.4 -5.10199e-12)
(-12889.3 -3294.63 2.4831e-12)
(-5639.03 -1097.8 0)
(-3541.36 -752.122 -1.28481e-12)
(-1914.07 -97.0154 1.71526e-13)
(-36483.4 -10401.1 5.10199e-12)
(-11000.8 -4043.74 -1.21784e-13)
(-4945.66 -1884.37 0)
(-3184.88 -1257.78 3.78802e-14)
(-1213.6 -673.497 6.62898e-13)
(456.417 -1370.7 0)
(281.411 -421.244 0)
(30.4815 689.958 0)
(-76.5874 646.454 0)
(-174.65 398.375 0)
(-282.967 166.766 0)
(-375.809 -9.11352 0)
(-405.622 -138.427 0)
(-392.839 -241.76 0)
(-315.786 -273.54 0)
(-284.669 -214.801 0)
(-368.645 -178.539 0)
(-301.844 -105.033 0)
(1.45142 -61.0784 0)
(811.73 -32.5813 0)
(1838.14 29.3948 0)
(1396.64 -2.95689 0)
(323.652 -97.3704 0)
(-20.2383 -120.492 0)
(-153.75 -59.2997 0)
(-120.693 -1.62767 0)
(-56.5301 23.7382 0)
(-84.5455 125.852 0)
(-180.321 102.102 0)
(-329.946 -159.027 0)
(-508.267 -254.836 0)
(1241.64 -237.364 0)
(2724.14 -251.167 0)
(-875.027 -125.164 0)
(-3562.98 72.6893 0)
(-1556.75 42.3901 0)
(77.7892 12.7128 0)
(260.344 8.57468 0)
(259.354 7.79443 0)
(266.91 5.5326 0)
(283.385 3.65363 0)
(290.912 2.12975 0)
(301.07 2.41943 0)
(314.59 2.61886 0)
(320.331 2.83142 0)
(68.1018 -882.685 0)
(627.448 -1002.31 0)
(230.698 249.691 0)
(-182.191 347.319 0)
(-283.121 238.316 0)
(-349.15 87.1788 0)
(-389.164 32.1938 0)
(-401.14 22.2253 0)
(-387.24 -6.3814 0)
(-302.389 -23.1808 0)
(-271.985 -6.58609 0)
(-352.243 -5.43134 0)
(-291.034 34.4748 0)
(2.13775 8.17582 0)
(820.627 19.4007 0)
(1838.22 53.6202 0)
(1379.91 37.2888 0)
(310.693 -7.84044 0)
(-15.1438 -40.7829 0)
(-136.497 -15.0705 0)
(-111.15 -1.66152 0)
(-30.2414 9.52249 0)
(-56.8482 57.3203 0)
(-205.166 0.496667 0)
(-353.142 -40.7824 0)
(-502.975 2.66419 0)
(1246.18 54.0835 0)
(2710.58 101.335 0)
(-876.188 20.3612 0)
(-3552.02 39.314 0)
(-1562.6 16.7193 0)
(74.611 4.29632 0)
(260.001 2.63098 0)
(259.302 2.86592 0)
(266.821 2.26415 0)
(283.461 1.15234 0)
(291.268 -0.140446 0)
(301.349 -0.0504469 0)
(314.422 -0.205436 0)
(318.565 -0.570147 0)
(76.416 2.09933e-10 0)
(610.829 5.04647e-10 0)
(423.101 4.31978e-10 0)
(-79.8964 6.62097e-10 0)
(-250.327 1.00929e-09 0)
(-342.93 -1.53413e-10 0)
(-394.705 -3.63346e-11 0)
(-416.844 5.45019e-10 0)
(-406.048 -1.17078e-10 0)
(-315.846 -4.64275e-10 0)
(-279.505 8.67993e-11 0)
(-356.7 3.04807e-10 0)
(-297.885 5.0061e-10 0)
(-2.93378 1.81673e-11 0)
(824.951 -2.30119e-10 0)
(1843.34 2.1397e-10 0)
(1378.76 6.29799e-10 0)
(300.94 9.89108e-10 0)
(-22.3416 -1.9984e-09 0)
(-142.369 -2.97136e-09 0)
(-113.539 6.49178e-09 0)
(-39.3717 -1.0206e-08 0)
(-87.1712 -1.15177e-07 0)
(-208.86 -3.44654e-08 0)
(-329.315 1.58863e-08 0)
(-480.669 -4.95765e-09 0)
(1270.35 -6.18899e-09 0)
(2714.33 -1.03392e-08 0)
(-893.07 1.24022e-08 0)
(-3564.04 3.0521e-09 0)
(-1566.94 -5.00206e-09 0)
(73.6908 -4.27941e-10 0)
(259.928 2.58379e-10 0)
(259.247 8.07435e-12 0)
(266.411 -1.00929e-09 0)
(282.685 -1.8248e-09 0)
(290.562 -1.27171e-09 0)
(301.051 -8.15509e-10 0)
(314.439 6.05576e-11 0)
(320.557 7.30729e-10 0)
(68.1018 882.685 0)
(627.448 1002.31 0)
(230.698 -249.691 0)
(-182.191 -347.319 0)
(-283.121 -238.316 0)
(-349.15 -87.1788 0)
(-389.164 -32.1938 0)
(-401.14 -22.2253 0)
(-387.24 6.3814 0)
(-302.389 23.1808 0)
(-271.985 6.58609 0)
(-352.243 5.43134 0)
(-291.034 -34.4748 0)
(2.13775 -8.17582 0)
(820.627 -19.4007 0)
(1838.22 -53.6202 0)
(1379.91 -37.2888 0)
(310.693 7.84044 0)
(-15.1438 40.7829 0)
(-136.497 15.0705 0)
(-111.15 1.66152 0)
(-30.2414 -9.52249 0)
(-56.8482 -57.3203 0)
(-205.166 -0.496667 0)
(-353.142 40.7824 0)
(-502.975 -2.66419 0)
(1246.18 -54.0835 0)
(2710.58 -101.335 0)
(-876.188 -20.3612 0)
(-3552.02 -39.314 0)
(-1562.6 -16.7193 0)
(74.611 -4.29632 0)
(260.001 -2.63098 0)
(259.302 -2.86592 0)
(266.821 -2.26415 0)
(283.461 -1.15234 0)
(291.268 0.140446 0)
(301.349 0.0504469 0)
(314.422 0.205436 0)
(318.565 0.570147 0)
(456.417 1370.7 0)
(281.411 421.244 0)
(30.4815 -689.958 0)
(-76.5874 -646.454 0)
(-174.65 -398.375 0)
(-282.967 -166.766 0)
(-375.809 9.11352 0)
(-405.622 138.427 0)
(-392.839 241.76 0)
(-315.786 273.54 0)
(-284.669 214.801 0)
(-368.645 178.539 0)
(-301.844 105.033 0)
(1.45142 61.0784 0)
(811.73 32.5813 0)
(1838.14 -29.3948 0)
(1396.64 2.95689 0)
(323.652 97.3704 0)
(-20.2383 120.492 0)
(-153.75 59.2997 0)
(-120.693 1.62767 0)
(-56.5301 -23.7382 0)
(-84.5455 -125.852 0)
(-180.321 -102.102 0)
(-329.946 159.027 0)
(-508.267 254.836 0)
(1241.64 237.364 0)
(2724.14 251.167 0)
(-875.027 125.164 0)
(-3562.98 -72.6893 0)
(-1556.75 -42.3901 0)
(77.7892 -12.7128 0)
(260.344 -8.57468 0)
(259.354 -7.79443 0)
(266.91 -5.5326 0)
(283.385 -3.65363 0)
(290.912 -2.12975 0)
(301.07 -2.41943 0)
(314.59 -2.61886 0)
(320.331 -2.83142 0)
(-181.224 536.928 0)
(-265.038 -129.152 0)
(-207.539 -482.462 0)
(-121.394 -703.697 0)
(-107.646 -731.883 0)
(-170.068 -684.896 0)
(-213.166 -514.299 0)
(-250.025 -295.496 0)
(-296.013 -105.546 0)
(-303.809 28.7975 0)
(-316.911 76.7687 0)
(-402.133 92.7818 0)
(-352.215 111.194 0)
(-42.516 56.5697 0)
(774.162 38.149 0)
(1819.73 -42.0061 0)
(1440.1 -85.3938 0)
(369.435 23.4921 0)
(-33.134 77.2281 0)
(-191.109 19.7865 0)
(-152.203 -35.6838 0)
(-79.8093 -61.3943 0)
(-73.9786 -64.8166 0)
(-55.1957 -111.766 0)
(-156.065 -77.7157 0)
(-447.718 -32.3271 0)
(1249.12 32.6678 0)
(2624.52 97.1566 0)
(-1080.68 -152.29 0)
(-3644.46 -241.543 0)
(-1531.74 -68.4486 0)
(92.1477 -20.0093 0)
(262.689 -14.3156 0)
(261.15 -13.3628 0)
(269.316 -9.53368 0)
(285.683 -4.94448 0)
(292.454 -0.839061 0)
(301.365 1.1704 0)
(313.969 0.625216 0)
(319.941 -2.01196 0)
(-424.687 -67.8769 0)
(-407.887 -119.627 0)
(-395.537 -106.009 0)
(-292.912 -132.446 0)
(-192.462 -222.074 0)
(-133.835 -285.249 0)
(-87.783 -304.912 0)
(-95.1696 -295.358 0)
(-132.26 -254.178 0)
(-146.523 -168.53 0)
(-205.722 -92.0456 0)
(-317.515 -20.7421 0)
(-309.729 86.3717 0)
(-45.3603 71.1387 0)
(736.885 57.0171 0)
(1728.96 48.5872 0)
(1436.45 -28.0574 0)
(455.81 48.4002 0)
(-16.894 104.434 0)
(-242.522 57.3573 0)
(-182.025 -30.6011 0)
(-72.1204 -19.0325 0)
(-138.752 -27.6129 0)
(-259.848 -127.81 0)
(-346.637 -282.19 0)
(-434.365 -372.821 0)
(1362.4 -241.141 0)
(2599.32 -190.713 0)
(-1091.13 -557.715 0)
(-3438.5 -458.716 0)
(-1356.69 -80.0889 0)
(122.254 -18.0972 0)
(265.492 -15.3651 0)
(262.999 -17.3153 0)
(273.731 -14.8979 0)
(290.531 -10.0278 0)
(295.977 -4.39068 0)
(302.322 0.308365 0)
(311.857 0.0869046 0)
(321.876 -3.24981 0)
(-361.909 47.2544 0)
(-301.784 73.3424 0)
(-219.892 79.0465 0)
(-233.238 98.2993 0)
(-254.892 72.6939 0)
(-249.893 27.452 0)
(-222.908 -38.8561 0)
(-201.136 -126.428 0)
(-173.797 -183.014 0)
(-147.572 -195.973 0)
(-174.498 -224.913 0)
(-230.203 -203.007 0)
(-263.675 -62.5159 0)
(-70.8031 66.0696 0)
(752.431 125.327 0)
(1737.75 201.535 0)
(1439.92 -114.09 0)
(497.109 -163.1 0)
(-24.5026 -157.641 0)
(-321.234 -178.612 0)
(-225.815 -166.043 0)
(-76.9298 -94.4548 0)
(-178.8 -123.645 0)
(-300.516 -149.194 0)
(-392.166 -162.179 0)
(-408.162 -203.914 0)
(1424.61 -29.8462 0)
(2319.46 -6.40544 0)
(-1338.93 -593.945 0)
(-3184.2 -501.255 0)
(-1107.14 -29.2013 0)
(154.518 33.9965 0)
(263.442 27.2943 0)
(261.6 8.38474 0)
(276.339 -6.42489 0)
(295.808 -11.8297 0)
(302.414 -8.0134 0)
(305.68 -1.34459 0)
(310.54 -0.210795 0)
(322.989 -2.03935 0)
(-308.476 11.0096 0)
(-377.251 52.9674 0)
(-371.487 17.529 0)
(-299.033 -14.5485 0)
(-260.733 -41.3402 0)
(-241.329 -47.3397 0)
(-236.068 -53.1075 0)
(-234.085 -109.289 0)
(-199.276 -152.098 0)
(-186.899 -184.393 0)
(-212.499 -268.011 0)
(-161.024 -237.375 0)
(-50.437 -94.1045 0)
(135.652 84.3933 0)
(867.424 247.249 0)
(1498.25 320.043 0)
(1085.07 -222.957 0)
(413.843 -354.714 0)
(-31.842 -378.163 0)
(-250.619 -370.805 0)
(-100.928 -267.89 0)
(-31.2639 -196.398 0)
(-191.501 -256.594 0)
(-296.981 -252.454 0)
(-399.366 -240.322 0)
(-306.845 -228.836 0)
(1552.73 38.1826 0)
(2055.73 247.252 0)
(-1567.99 -340.867 0)
(-2894.29 -284.509 0)
(-840.902 186.438 0)
(176.696 201.273 0)
(240.812 146.797 0)
(230.506 98.4488 0)
(254.252 61.1777 0)
(289 27.2109 0)
(306.081 -0.150026 0)
(309.841 -4.05736 0)
(311.187 -1.83196 0)
(324.045 -2.04922 0)
(-300.259 -2.67966 0)
(-295.502 27.7687 0)
(-284.953 104.165 0)
(-289.967 124.057 0)
(-286.491 104.08 0)
(-261.233 89.5271 0)
(-282.604 70.2093 0)
(-296.527 47.931 0)
(-246.17 41.198 0)
(-259.269 -20.7089 0)
(-225.554 -91.2439 0)
(-62.6206 20.9153 0)
(46.3928 133.628 0)
(258.137 234.904 0)
(979.512 453.697 0)
(1284.64 307.966 0)
(789.697 -131.038 0)
(347.547 -221.488 0)
(-40.0092 -276.442 0)
(-214.972 -298.375 0)
(-57.7503 -185.497 0)
(-66.0439 -197.571 0)
(-232.818 -265.454 0)
(-284.836 -244.597 0)
(-369.407 -159.899 0)
(-139.784 -67.3916 0)
(1883.38 565.544 0)
(1954.2 1526.44 0)
(-1851.36 492.543 0)
(-2676.07 422.573 0)
(-639.027 834.754 0)
(116.318 738.91 0)
(164.356 559.47 0)
(179.095 386.984 0)
(207.691 241.556 0)
(236.71 135.795 0)
(272.283 69.0568 0)
(304.059 16.4352 0)
(312.475 0.125857 0)
(326.729 -2.8911 0)
(-284.299 5.49999 0)
(-274.291 24.6247 0)
(-278.701 47.6706 0)
(-299.116 50.5992 0)
(-294.007 56.5031 0)
(-273.967 53.3654 0)
(-276.151 27.1544 0)
(-262.041 45.9171 0)
(-265.42 68.3819 0)
(-314.525 24.0771 0)
(-172.388 58.5102 0)
(55.6712 138.814 0)
(155.77 162.666 0)
(444.082 260.06 0)
(937.829 411.223 0)
(934.778 91.9131 0)
(574.87 -174.992 0)
(273.726 -260.946 0)
(-105.933 -412.059 0)
(-162.981 -356.18 0)
(-3.7907 -187.909 0)
(-108.314 -239.524 0)
(-236.816 -139.548 0)
(-195.264 1.48399 0)
(-228.605 197.312 0)
(392.218 659.977 0)
(3088.6 2324.9 0)
(1985.39 2865.89 0)
(-2631.71 794.144 0)
(-2564.52 912.862 0)
(-536.068 1356.74 0)
(-88.5781 1258.64 0)
(-98.3176 1092.5 0)
(-75.8476 886.379 0)
(12.1974 653.763 0)
(122.774 425.52 0)
(191.061 232.075 0)
(243.417 102.062 0)
(292.564 22.0189 0)
(326.709 -2.43143 0)
(-271.23 5.05516 0)
(-254.865 19.427 0)
(-259.923 33.306 0)
(-281.456 49.6226 0)
(-283.825 72.7151 0)
(-289.514 78.0558 0)
(-289.782 66.4525 0)
(-256.798 68.2554 0)
(-267.215 64.6603 0)
(-268.782 57.7301 0)
(-114.989 141.602 0)
(37.7474 152.683 0)
(163.23 157.42 0)
(497.657 276.779 0)
(817.479 239.672 0)
(719.741 -113.539 0)
(449.669 -248.065 0)
(119.101 -419.461 0)
(-131.78 -566.263 0)
(1.02777 -293.5 0)
(54.6637 -38.4784 0)
(-19.4418 36.6778 0)
(-0.573394 406.971 0)
(39.7742 1071.74 0)
(265.141 1523.05 0)
(1910.44 2107.81 0)
(4009.08 3435.57 0)
(479.099 1444.37 0)
(-3733.36 -255.106 0)
(-2133.93 614.098 0)
(-305.819 1032.68 0)
(-138.316 1057.34 0)
(-194.371 1061.62 0)
(-243.687 1041.82 0)
(-236.409 966.128 0)
(-169.643 791.067 0)
(-39.4131 530.508 0)
(101.641 288.209 0)
(211.782 105.266 0)
(307.854 3.14464 0)
(-260.707 7.43188 0)
(-247.067 19.9487 0)
(-249.603 22.5377 0)
(-261.14 34.2754 0)
(-266.608 52.8746 0)
(-280.002 54.5498 0)
(-285.595 55.5226 0)
(-263.768 68.9597 0)
(-275.562 64.3147 0)
(-240.381 87.0666 0)
(-80.888 176.141 0)
(70.9143 214.226 0)
(275.353 263.16 0)
(523.343 280.026 0)
(561.705 109.648 0)
(464.778 -137.378 0)
(280.072 -313.043 0)
(-32.9018 -546.266 0)
(15.4485 -167.628 0)
(345.611 269.695 0)
(314.38 657.141 0)
(320.937 1424.87 0)
(760.608 2026.89 0)
(880.232 2293.86 0)
(769.788 2302.53 0)
(2235.19 2338.07 0)
(2449.29 1859.54 0)
(-1571.08 -1177 0)
(-3431.79 -1180.91 0)
(-1323.56 249.704 0)
(-108.943 480.988 0)
(-60.6945 550.357 0)
(-113.27 622.479 0)
(-167.864 709.254 0)
(-229.442 792.549 0)
(-297.005 820.017 0)
(-293.511 736.612 0)
(-166.362 521.621 0)
(17.866 257.512 0)
(222.241 24.4561 0)
(-244.845 14.166 0)
(-240.308 32.6895 0)
(-246.117 36.4963 0)
(-252.222 35.7054 0)
(-264.288 23.5008 0)
(-286.963 0.428299 0)
(-275.896 -3.33211 0)
(-248.326 11.7153 0)
(-249.767 21.5639 0)
(-161.023 89.3757 0)
(7.54678 181.383 0)
(121.602 242.614 0)
(226.636 286.783 0)
(349.727 224.307 0)
(415.254 62.9421 0)
(312.42 -29.8953 0)
(55.65 -49.5976 0)
(259.229 381.874 0)
(654.509 1205.34 0)
(795.805 1897.93 0)
(1167.83 2347.14 0)
(1300.5 2669.18 0)
(836.815 2602.7 0)
(305.386 1895.21 0)
(307.752 1189.73 0)
(1483.56 842.459 0)
(621.825 -539.265 0)
(-2450.79 -2280.13 0)
(-2358.54 -1066.32 0)
(-532.468 98.4039 0)
(-16.0983 200.814 0)
(-1.97059 225.845 0)
(-41.253 272.82 0)
(-79.8014 331.792 0)
(-129.673 400.532 0)
(-223.546 503.882 0)
(-326.958 576.548 0)
(-360.037 556.655 0)
(-267.305 371.435 0)
(36.1388 68.8853 0)
(-215.555 5.12817 0)
(-225.549 4.83436 0)
(-246.697 -16.6231 0)
(-273.663 -41.7843 0)
(-300.602 -63.5626 0)
(-305.859 -55.2502 0)
(-274.719 1.76179 0)
(-239.777 80.0381 0)
(-200.726 177.874 0)
(-86.3741 320.725 0)
(66.7781 404.216 0)
(172.482 449.363 0)
(257.711 565.366 0)
(307.641 699.645 0)
(316.747 841.964 0)
(356.33 1137.08 0)
(676.868 1659.73 0)
(1176.4 2389.64 0)
(1476.38 2775.35 0)
(1445.89 2888.03 0)
(1057.58 2668.55 0)
(567.205 1876.51 0)
(14.7844 1078.42 0)
(-481.362 517.685 0)
(-244.682 22.913 0)
(569.07 -519.339 0)
(-559.748 -2080.84 0)
(-2078.97 -2192.42 0)
(-1139.76 -538.594 0)
(-102.503 37.9173 0)
(13.8639 101.231 0)
(8.69336 104.497 0)
(-11.1758 122.631 0)
(-44.7957 135.833 0)
(-63.6099 146.709 0)
(-127.389 189.427 0)
(-242.657 252.347 0)
(-364.016 317.419 0)
(-452.167 304.85 0)
(-202.068 98.3987 0)
(-235.244 -14.5428 0)
(-261.269 -46.503 0)
(-291.04 -59.7459 0)
(-297.454 -7.89698 0)
(-277.264 141.956 0)
(-224.014 358.613 0)
(-145.527 591.212 0)
(-78.6177 848.324 0)
(-17.8326 1204.44 0)
(57.0889 1575.29 0)
(131.508 1817.23 0)
(276.892 1987.89 0)
(467.817 2183.84 0)
(616.266 2363.49 0)
(836.787 2609.54 0)
(1100.45 2783.61 0)
(1262.65 3024.64 0)
(1334.28 2848.96 0)
(1134.78 2348.86 0)
(692.887 1665.88 0)
(193.093 1016.76 0)
(-231.809 502.24 0)
(-472.598 -3.85022 0)
(-711.736 -323.223 0)
(-691.562 -616.469 0)
(-543.691 -1433.44 0)
(-990.415 -2459.24 0)
(-964.621 -1384.68 0)
(-209.307 -162.672 0)
(84.0903 50.6972 0)
(48.0601 80.1111 0)
(18.6513 89.795 0)
(-11.0561 93.2277 0)
(-56.5987 94.2794 0)
(-78.0285 87.3704 0)
(-121.749 80.459 0)
(-203.62 82.2662 0)
(-309.444 96.4302 0)
(-478.361 128.495 0)
(-352.446 67.7199 0)
(-274.381 31.3337 0)
(-269.108 91.9292 0)
(-209.495 303.476 0)
(-79.2958 652.595 0)
(52.5803 1036.61 0)
(127.06 1469.45 0)
(197.184 1912.92 0)
(351.154 2316.66 0)
(499.8 2692.08 0)
(504.125 2979.58 0)
(464.374 3182.64 0)
(525.763 3307.27 0)
(619.656 3342.43 0)
(717.861 3156.49 0)
(721.591 2814.5 0)
(756.336 2385.78 0)
(739.841 1900.44 0)
(525.195 1375.32 0)
(336.323 835.148 0)
(162.233 407.528 0)
(-63.7484 76.0169 0)
(-416.29 -143.769 0)
(-780.662 -393.15 0)
(-1071.7 -766.315 0)
(-1314.53 -1336 0)
(-1206.69 -1975.23 0)
(-512.763 -1782.87 0)
(134.078 -633.317 0)
(243.427 -34.8279 0)
(131.451 33.0378 0)
(51.54 40.6177 0)
(21.333 45.4232 0)
(-6.85451 45.0117 0)
(-50.44 56.6914 0)
(-76.9277 66.2076 0)
(-132.308 65.925 0)
(-227.267 45.5685 0)
(-319.468 9.87471 0)
(-479.833 -9.04369 0)
(-391.148 10.3184 0)
(-116.464 124.392 0)
(0.978051 483.152 0)
(249.238 967.651 0)
(409.015 1434.05 0)
(509.887 1705.37 0)
(620.431 1851.06 0)
(670.872 1979.27 0)
(672.21 2068.41 0)
(620.982 2029.41 0)
(529.81 1909.82 0)
(447.288 1858.64 0)
(430.871 1939.1 0)
(322.515 1926.14 0)
(107.534 1687.57 0)
(94.1051 1312.76 0)
(219.635 987.498 0)
(288.934 663.704 0)
(307.725 462.441 0)
(202.182 305.173 0)
(-38.6392 66.5072 0)
(-338.157 -246.563 0)
(-683.915 -532.681 0)
(-1072.51 -850.092 0)
(-1620.3 -1377.87 0)
(-1856.51 -1864.14 0)
(-974.317 -1607.99 0)
(302.7 -871.774 0)
(719.857 -303.008 0)
(432.817 -70.3524 0)
(156.792 -33.3266 0)
(59.9951 -21.8649 0)
(22.8855 -18.8717 0)
(-0.197616 -13.6297 0)
(-36.1736 -0.0688726 0)
(-69.1307 13.3163 0)
(-141.638 6.99745 0)
(-257.632 4.39872 0)
(-362.07 -16.2584 0)
(-477.933 -48.5925 0)
(-353.674 -1.40794 0)
(311.07 192.948 0)
(543.487 610.691 0)
(706.827 925.545 0)
(631.6 1023.9 0)
(454.426 978.048 0)
(390.994 797.145 0)
(406.627 558.766 0)
(399.479 340.413 0)
(346.977 170.316 0)
(339.565 158.089 0)
(492.59 249.072 0)
(590.801 396.909 0)
(377.271 407.503 0)
(126.785 467.999 0)
(46.9804 584.105 0)
(130.886 584.694 0)
(233.877 476.737 0)
(179.701 294.882 0)
(-45.2132 6.96667 0)
(-369.439 -286.597 0)
(-641.148 -614.592 0)
(-997.873 -1007.77 0)
(-1595.12 -1526.67 0)
(-2048.88 -1917.97 0)
(-1536.27 -1500.8 0)
(-250.41 -665.741 0)
(744.761 -343.704 0)
(906.357 -230.92 0)
(503.302 -134.809 0)
(178.175 -71.885 0)
(65.4693 -68.3445 0)
(29.2688 -64.515 0)
(11.2646 -54.8401 0)
(-24.4739 -47.6903 0)
(-70.1184 -38.1314 0)
(-140.901 -47.8843 0)
(-249.677 -38.4188 0)
(-370.533 -31.6484 0)
(-465.522 -42.4372 0)
(-342.965 5.92357 0)
(657.952 111.254 0)
(706.935 162.597 0)
(647.425 100.609 0)
(459.609 -99.029 0)
(291.373 -245.332 0)
(216.396 -364.577 0)
(230.748 -440.743 0)
(297.885 -436.744 0)
(445.288 -356.374 0)
(605.703 -169.494 0)
(677.423 22.7625 0)
(583.54 77.6425 0)
(391.021 98.0779 0)
(277.714 248.094 0)
(206.556 382.291 0)
(116.172 429.971 0)
(9.66099 239.697 0)
(-144.963 -55.6506 0)
(-358.153 -399.143 0)
(-637.596 -731.683 0)
(-1033.11 -1140.73 0)
(-1562.83 -1686.84 0)
(-1949.61 -1990.81 0)
(-1595.36 -1510.76 0)
(-649.818 -537.797 0)
(140.702 -42.3379 0)
(721.709 -128.495 0)
(921.156 -275.826 0)
(586.069 -224.481 0)
(220.84 -116.076 0)
(67.097 -92.3708 0)
(35.8988 -79.9785 0)
(16.0154 -71.7497 0)
(-20.0725 -77.2226 0)
(-69.3176 -78.8502 0)
(-141.915 -89.6338 0)
(-241.986 -89.9708 0)
(-365.942 -74.6283 0)
(-441.728 -64.1639 0)
(-318.488 -14.6937 0)
(574.963 -142.147 0)
(533.229 -343.356 0)
(454.715 -552.49 0)
(298.238 -724.36 0)
(198.534 -796.869 0)
(202.689 -788.45 0)
(337.084 -703.211 0)
(480.78 -589.921 0)
(604.51 -467.621 0)
(704.915 -402.086 0)
(730.74 -340.573 0)
(663.378 -265.532 0)
(541.524 -89.9462 0)
(400.663 56.0438 0)
(222.244 61.8803 0)
(-6.52286 -40.2042 0)
(-234.086 -233.273 0)
(-435.908 -523.607 0)
(-696.662 -894.724 0)
(-1084.06 -1362.8 0)
(-1561.57 -1844.51 0)
(-1817.04 -1991.68 0)
(-1425.44 -1431.76 0)
(-648.701 -504.44 0)
(-121.251 55.6687 0)
(144.009 152.928 0)
(519.763 6.28717 0)
(813.862 -278.138 0)
(657.243 -326.242 0)
(305.481 -212.315 0)
(100.254 -155.328 0)
(49.14 -143.405 0)
(13.9202 -149.28 0)
(-31.3163 -148.384 0)
(-82.0782 -146.797 0)
(-151.618 -151.305 0)
(-235.217 -136.027 0)
(-345.664 -95.0164 0)
(-407.767 -40.1605 0)
(-266.975 -0.465132 0)
(190.103 -250.447 0)
(311.514 -466.05 0)
(280.277 -656.375 0)
(224.117 -762.602 0)
(229.613 -789.004 0)
(306.648 -728.314 0)
(422.058 -667.884 0)
(524.908 -672.37 0)
(626.292 -708.01 0)
(728.131 -755.7 0)
(809.011 -742.948 0)
(825.054 -658.967 0)
(700.903 -521.174 0)
(424.019 -460.68 0)
(113.808 -494.847 0)
(-168.249 -628.671 0)
(-456.163 -852.042 0)
(-782.361 -1193.15 0)
(-1166.83 -1625.42 0)
(-1552.84 -1980.66 0)
(-1639.12 -1922.5 0)
(-1165.09 -1268.29 0)
(-516.456 -422.145 0)
(-162.02 83.6429 0)
(-16.3545 222.303 0)
(93.1163 207.765 0)
(306.319 110.172 0)
(600.719 -186.104 0)
(649.498 -366.042 0)
(385.539 -315.385 0)
(133.501 -246.169 0)
(41.727 -242.482 0)
(11.2172 -271.499 0)
(-17.6798 -269.789 0)
(-72.132 -257.145 0)
(-131.537 -242.719 0)
(-187.745 -190.641 0)
(-273.561 -138.571 0)
(-350.615 -36.8589 0)
(-279.34 1.99712 0)
(-115.48 -130.866 0)
(142.062 -276.602 0)
(168.947 -447.805 0)
(170.432 -530.298 0)
(231.575 -557.173 0)
(319.405 -578.369 0)
(390.994 -652.177 0)
(442.114 -751.044 0)
(524.21 -872.536 0)
(671.246 -984.896 0)
(823.955 -1060.07 0)
(877.088 -1102.76 0)
(732.6 -1134.59 0)
(426.033 -1187.93 0)
(60.3617 -1267.36 0)
(-350.728 -1424.51 0)
(-778.043 -1692.76 0)
(-1181.16 -1960.75 0)
(-1455.53 -2043.29 0)
(-1370.34 -1727.65 0)
(-875.106 -1011.94 0)
(-371.248 -283.156 0)
(-122.664 107.703 0)
(-27.6876 238.879 0)
(-1.64231 276.098 0)
(35.955 249.624 0)
(140.217 173.851 0)
(354.965 -28.4154 0)
(532.663 -290.433 0)
(420.995 -390.373 0)
(170.505 -346.706 0)
(24.7312 -323.573 0)
(-12.3936 -360.916 0)
(-17.4838 -381.08 0)
(-55.9919 -383.933 0)
(-87.5325 -360.773 0)
(-134.856 -287.185 0)
(-197.474 -212.69 0)
(-272.311 -53.6484 0)
(-233.381 -2.01222 0)
(-202.548 -90.992 0)
(6.10046 -146.155 0)
(35.8057 -288.08 0)
(118.725 -353.043 0)
(183.29 -364.125 0)
(215.099 -433.134 0)
(255.663 -554.924 0)
(312.562 -671.394 0)
(400.944 -753.153 0)
(547.416 -831.194 0)
(695.43 -984.746 0)
(753.24 -1248.68 0)
(618.835 -1605.95 0)
(296.085 -1986.4 0)
(-114.166 -2325.34 0)
(-578.181 -2500.48 0)
(-972.91 -2447.39 0)
(-1120.15 -2127.83 0)
(-942.2 -1523.57 0)
(-559.002 -764.416 0)
(-247.152 -151.853 0)
(-86.1621 133.916 0)
(-13.4037 238.988 0)
(0.252223 266.33 0)
(-6.00033 267.596 0)
(-5.41282 264.428 0)
(38.3898 224.615 0)
(153.319 116.893 0)
(300.703 -131.447 0)
(331.312 -393.182 0)
(197.872 -482.508 0)
(28.034 -480.535 0)
(-44.1988 -481.435 0)
(-39.8602 -472.451 0)
(-52.5638 -459.432 0)
(-38.3071 -425.621 0)
(-45.0464 -366.23 0)
(-48.5167 -289.659 0)
(-147.598 -167.22 0)
(-225.704 55.238 0)
(-344.003 284.546 0)
(-47.8598 282.629 0)
(-30.4178 327.881 0)
(97.1519 277.038 0)
(154.397 103.858 0)
(135.544 -73.3913 0)
(161.398 -260.017 0)
(251.093 -506.19 0)
(370.221 -844.943 0)
(448.075 -1306.45 0)
(421.649 -1878 0)
(278.469 -2465.69 0)
(21.7098 -2948.64 0)
(-267.191 -3130.4 0)
(-435.022 -2978.63 0)
(-468.346 -2560.49 0)
(-418.947 -1892.61 0)
(-290.934 -1116.11 0)
(-141.7 -428.278 0)
(-48.4949 8.68848 0)
(-9.44125 202.143 0)
(5.38037 274.965 0)
(4.93421 285.973 0)
(-0.119621 283.754 0)
(-3.47443 285.835 0)
(-5.4633 293.586 0)
(-1.95373 297.122 0)
(11.8503 255.775 0)
(41.1365 125.72 0)
(82.6998 -98.9641 0)
(86.3289 -303.915 0)
(25.7655 -393.89 0)
(-4.60438 -359.745 0)
(3.7197 -343.245 0)
(-10.8639 -322.24 0)
(2.27946 -277.424 0)
(-3.83935 -284.853 0)
(-5.70022 -226.693 0)
(60.0447 -228.59 0)
(-125.471 -135.836 0)
(-344.003 -284.546 0)
(-47.8598 -282.629 0)
(-30.4178 -327.881 0)
(97.1519 -277.038 0)
(154.397 -103.858 0)
(135.544 73.3913 0)
(161.398 260.017 0)
(251.093 506.19 0)
(370.221 844.943 0)
(448.075 1306.45 0)
(421.649 1878 0)
(278.469 2465.69 0)
(21.7098 2948.64 0)
(-267.191 3130.4 0)
(-435.022 2978.63 0)
(-468.346 2560.49 0)
(-418.947 1892.61 0)
(-290.934 1116.11 0)
(-141.7 428.278 0)
(-48.4949 -8.68848 0)
(-9.44125 -202.143 0)
(5.38037 -274.965 0)
(4.93421 -285.973 0)
(-0.119621 -283.754 0)
(-3.47443 -285.835 0)
(-5.4633 -293.586 0)
(-1.95373 -297.122 0)
(11.8503 -255.775 0)
(41.1365 -125.72 0)
(82.6998 98.9641 0)
(86.3289 303.915 0)
(25.7655 393.89 0)
(-4.60438 359.745 0)
(3.7197 343.245 0)
(-10.8639 322.24 0)
(2.27946 277.424 0)
(-3.83935 284.853 0)
(-5.70022 226.693 0)
(60.0447 228.59 0)
(-125.471 135.836 0)
(-202.548 90.992 0)
(6.10046 146.155 0)
(35.8057 288.08 0)
(118.725 353.043 0)
(183.29 364.125 0)
(215.099 433.134 0)
(255.663 554.924 0)
(312.562 671.394 0)
(400.944 753.153 0)
(547.416 831.194 0)
(695.43 984.746 0)
(753.24 1248.68 0)
(618.835 1605.95 0)
(296.085 1986.4 0)
(-114.166 2325.34 0)
(-578.181 2500.48 0)
(-972.91 2447.39 0)
(-1120.15 2127.83 0)
(-942.2 1523.57 0)
(-559.002 764.416 0)
(-247.152 151.853 0)
(-86.1621 -133.916 0)
(-13.4037 -238.988 0)
(0.252223 -266.33 0)
(-6.00033 -267.596 0)
(-5.41282 -264.428 0)
(38.3898 -224.615 0)
(153.319 -116.893 0)
(300.703 131.447 0)
(331.312 393.182 0)
(197.872 482.508 0)
(28.034 480.535 0)
(-44.1988 481.435 0)
(-39.8602 472.451 0)
(-52.5638 459.432 0)
(-38.3071 425.621 0)
(-45.0464 366.23 0)
(-48.5167 289.659 0)
(-147.598 167.22 0)
(-225.704 -55.238 0)
(-115.48 130.866 0)
(142.062 276.602 0)
(168.947 447.805 0)
(170.432 530.298 0)
(231.575 557.173 0)
(319.405 578.369 0)
(390.994 652.177 0)
(442.114 751.044 0)
(524.21 872.536 0)
(671.246 984.896 0)
(823.955 1060.07 0)
(877.088 1102.76 0)
(732.6 1134.59 0)
(426.033 1187.93 0)
(60.3617 1267.36 0)
(-350.728 1424.51 0)
(-778.043 1692.76 0)
(-1181.16 1960.75 0)
(-1455.53 2043.29 0)
(-1370.34 1727.65 0)
(-875.106 1011.94 0)
(-371.248 283.156 0)
(-122.664 -107.703 0)
(-27.6876 -238.879 0)
(-1.64231 -276.098 0)
(35.955 -249.624 0)
(140.217 -173.851 0)
(354.965 28.4154 0)
(532.663 290.433 0)
(420.995 390.373 0)
(170.505 346.706 0)
(24.7312 323.573 0)
(-12.3936 360.916 0)
(-17.4838 381.08 0)
(-55.9919 383.933 0)
(-87.5325 360.773 0)
(-134.856 287.185 0)
(-197.474 212.69 0)
(-272.311 53.6484 0)
(-233.381 2.01222 0)
(190.103 250.447 0)
(311.514 466.05 0)
(280.277 656.375 0)
(224.117 762.602 0)
(229.613 789.004 0)
(306.648 728.314 0)
(422.058 667.884 0)
(524.908 672.37 0)
(626.292 708.01 0)
(728.131 755.7 0)
(809.011 742.948 0)
(825.054 658.967 0)
(700.903 521.174 0)
(424.019 460.68 0)
(113.808 494.847 0)
(-168.249 628.671 0)
(-456.163 852.042 0)
(-782.361 1193.15 0)
(-1166.83 1625.42 0)
(-1552.84 1980.66 0)
(-1639.12 1922.5 0)
(-1165.09 1268.29 0)
(-516.456 422.145 0)
(-162.02 -83.6429 0)
(-16.3545 -222.303 0)
(93.1163 -207.765 0)
(306.319 -110.172 0)
(600.719 186.104 0)
(649.498 366.042 0)
(385.539 315.385 0)
(133.501 246.169 0)
(41.727 242.482 0)
(11.2172 271.499 0)
(-17.6798 269.789 0)
(-72.132 257.145 0)
(-131.537 242.719 0)
(-187.745 190.641 0)
(-273.561 138.571 0)
(-350.615 36.8589 0)
(-279.34 -1.99712 0)
(574.963 142.147 0)
(533.229 343.356 0)
(454.715 552.49 0)
(298.238 724.36 0)
(198.534 796.869 0)
(202.689 788.45 0)
(337.084 703.211 0)
(480.78 589.921 0)
(604.51 467.621 0)
(704.915 402.086 0)
(730.74 340.573 0)
(663.378 265.532 0)
(541.524 89.9462 0)
(400.663 -56.0438 0)
(222.244 -61.8803 0)
(-6.52286 40.2042 0)
(-234.086 233.273 0)
(-435.908 523.607 0)
(-696.662 894.724 0)
(-1084.06 1362.8 0)
(-1561.57 1844.51 0)
(-1817.04 1991.68 0)
(-1425.44 1431.76 0)
(-648.701 504.44 0)
(-121.251 -55.6687 0)
(144.009 -152.928 0)
(519.763 -6.28717 0)
(813.862 278.138 0)
(657.243 326.242 0)
(305.481 212.315 0)
(100.254 155.328 0)
(49.14 143.405 0)
(13.9202 149.28 0)
(-31.3163 148.384 0)
(-82.0782 146.797 0)
(-151.618 151.305 0)
(-235.217 136.027 0)
(-345.664 95.0164 0)
(-407.767 40.1605 0)
(-266.975 0.465132 0)
(657.952 -111.254 0)
(706.935 -162.597 0)
(647.425 -100.609 0)
(459.609 99.029 0)
(291.373 245.332 0)
(216.396 364.577 0)
(230.748 440.743 0)
(297.885 436.744 0)
(445.288 356.374 0)
(605.703 169.494 0)
(677.423 -22.7625 0)
(583.54 -77.6425 0)
(391.021 -98.0779 0)
(277.714 -248.094 0)
(206.556 -382.291 0)
(116.172 -429.971 0)
(9.66099 -239.697 0)
(-144.963 55.6506 0)
(-358.153 399.143 0)
(-637.596 731.683 0)
(-1033.11 1140.73 0)
(-1562.83 1686.84 0)
(-1949.61 1990.81 0)
(-1595.36 1510.76 0)
(-649.818 537.797 0)
(140.702 42.3379 0)
(721.709 128.495 0)
(921.156 275.826 0)
(586.069 224.481 0)
(220.84 116.076 0)
(67.097 92.3708 0)
(35.8988 79.9785 0)
(16.0154 71.7497 0)
(-20.0725 77.2226 0)
(-69.3176 78.8502 0)
(-141.915 89.6338 0)
(-241.986 89.9708 0)
(-365.942 74.6283 0)
(-441.728 64.1639 0)
(-318.488 14.6937 0)
(311.07 -192.948 0)
(543.487 -610.691 0)
(706.827 -925.545 0)
(631.6 -1023.9 0)
(454.426 -978.048 0)
(390.994 -797.145 0)
(406.627 -558.766 0)
(399.479 -340.413 0)
(346.977 -170.316 0)
(339.565 -158.089 0)
(492.59 -249.072 0)
(590.801 -396.909 0)
(377.271 -407.503 0)
(126.785 -467.999 0)
(46.9804 -584.105 0)
(130.886 -584.694 0)
(233.877 -476.737 0)
(179.701 -294.882 0)
(-45.2132 -6.96667 0)
(-369.439 286.597 0)
(-641.148 614.592 0)
(-997.873 1007.77 0)
(-1595.12 1526.67 0)
(-2048.88 1917.97 0)
(-1536.27 1500.8 0)
(-250.41 665.741 0)
(744.761 343.704 0)
(906.357 230.92 0)
(503.302 134.809 0)
(178.175 71.885 0)
(65.4693 68.3445 0)
(29.2688 64.515 0)
(11.2646 54.8401 0)
(-24.4739 47.6903 0)