/*--------------------------------*- C++ -*----------------------------------*\
| =========                 |                                                 |
| \\      /  F ield         | OpenFOAM: The Open Source CFD Toolbox           |
|  \\    /   O peration     | Version:  v1912                                 |
|   \\  /    A nd           | Website:  www.openfoam.com                      |
|    \\/     M anipulation  |                                                 |
\*---------------------------------------------------------------------------*/
FoamFile
{
    version     2.0;
    format      ascii;
    class       volScalarField;
    location    "9.06";
    object      p;
}
// * * * * * * * * * * * * * * * * * * * * * * * * * * * * * * * * * * * * * //

dimensions      [1 -1 -2 0 0 0 0];


internalField   nonuniform List<scalar> 
1900
(
3268.71
8136.94
8593.77
8666.83
8717.72
8707.99
8612.38
8521.18
8476.12
8439.18
3268.69
8136.91
8593.73
8666.98
8717.71
8708.11
8612.73
8520.59
8482.73
8438.29
3268.67
8136.88
8593.71
8667.19
8717.95
8708.69
8613
8516.07
8468.54
8420.11
3268.69
8136.91
8593.73
8666.98
8717.71
8708.11
8612.73
8520.59
8482.73
8438.29
3268.71
8136.94
8593.77
8666.83
8717.72
8707.99
8612.38
8521.18
8476.12
8439.18
8565.65
8394.82
8312.64
8126.21
8332.52
8403.82
8288.36
8209.87
8023.19
7890.49
8372.98
8267.87
8202.52
8053.53
7932.07
8403.82
8288.36
8209.87
8023.19
7890.49
8565.65
8394.82
8312.64
8126.21
8332.52
3498.13
2038.54
1426.26
1112.5
836.416
3955.78
2248.82
1539.32
1198.03
887.602
4065.05
2209.86
1492.12
1163.64
843.789
3955.78
2248.82
1539.32
1198.03
887.602
3498.13
2038.54
1426.26
1112.5
836.416
884.826
951.414
962.214
959.796
941.152
911.768
863.336
808.42
751.79
700.389
664.949
622.106
563.572
539.098
563.971
762.324
1069.46
1146.4
1158.46
1140.83
1116.18
1107.64
1100.64
1084.39
1051.05
993.658
911.275
1335.11
1660.41
1094.48
680.593
666.369
701.985
737.964
773.307
811.364
851.238
891.365
934.032
977.877
826.009
919.71
998.557
983.152
948.454
905.294
852.438
798.274
742.125
691.783
658.968
616.987
562.101
536.953
562.689
762.625
1068.2
1142.1
1153.64
1137.94
1116.1
1107.37
1107.79
1091.74
1051.37
994.624
913.047
1337.32
1658.46
1096.37
681.65
666.656
702.168
738.156
773.476
811.531
851.428
891.63
934.299
978.096
814.211
871.229
982.189
987.582
960.218
918.742
865.912
810.198
751.28
698.535
664.422
621.671
566.33
539.753
565.523
766.614
1072.44
1145.77
1155.2
1139.63
1116.05
1108.4
1105.22
1084.43
1047.79
993.871
915.601
1343.22
1662.04
1097.62
681.93
666.713
702.195
738.193
773.488
811.456
851.227
891.361
934.016
977.831
826.009
919.71
998.557
983.152
948.454
905.294
852.438
798.274
742.125
691.783
658.968
616.987
562.101
536.953
562.689
762.625
1068.2
1142.1
1153.64
1137.94
1116.1
1107.37
1107.79
1091.74
1051.37
994.624
913.047
1337.32
1658.46
1096.37
681.65
666.656
702.168
738.156
773.476
811.531
851.428
891.63
934.299
978.096
884.826
951.414
962.214
959.796
941.152
911.768
863.336
808.42
751.79
700.389
664.949
622.106
563.572
539.098
563.971
762.324
1069.46
1146.4
1158.46
1140.83
1116.18
1107.64
1100.64
1084.39
1051.05
993.658
911.275
1335.11
1660.41
1094.48
680.593
666.369
701.985
737.964
773.307
811.364
851.238
891.365
934.032
977.877
994.446
955.717
921.561
898.644
888.177
869.041
841.409
810.421
772.652
729.017
689.105
641.867
578.518
545.007
566.826
757.902
1067.25
1153.93
1168.85
1144.82
1116.29
1102.96
1094.34
1082.62
1079.16
1039.7
956.042
1383.21
1677.79
1086.02
675.56
664.794
700.901
737.033
772.717
811.095
851.28
891.52
934.155
977.861
968.33
914.881
856.161
806.108
775.61
753.181
738.806
729.041
712.634
692.67
672.34
636.096
585.023
550.921
572.549
753.564
1048.01
1148.59
1173.36
1143.94
1106.67
1093.88
1086.83
1055.73
1015.38
960.402
895.926
1335.06
1610.74
1035
665.152
661.912
698.772
734.922
771.097
810.198
850.993
891.592
934.132
977.352
976.459
924.016
893.468
863.546
829.328
793.45
760.607
732.151
705.295
684.357
664.713
636.37
601.407
563.859
581.936
770.778
1059.82
1166.75
1196.52
1160.02
1108.18
1097.92
1087.03
1048.75
1004.38
940.902
892.14
1332.67
1529.99
964.462
654.336
659.998
696.829
732.444
768.769
808.438
850.116
891.601
934.178
977
980.852
934.317
877.108
832.158
794.874
760.456
728.509
695.538
664.135
640.737
612.738
582.299
568.457
568.429
605.761
806.971
1017.78
1105.37
1131.59
1096.61
1062.67
1068.85
1054.07
1016.19
972.399
906.365
888.017
1333.37
1453.34
902.169
657.414
670.921
706.005
737.144
769.394
807.063
848.869
891.235
934.076
976.812
979.376
938.052
898.113
859.69
818.373
780.905
746.534
703.189
664.989
635.493
593.69
573.465
576.469
586.223
647.457
855.589
1000.73
1072.76
1096.31
1061.75
1037.19
1045.87
1019.03
981.847
940.699
880.26
902.258
1398.19
1439.66
889.068
703.743
713.335
735.73
758.533
784.981
815.648
850.076
890.526
933.693
976.457
980.142
941.676
904.712
865.033
822.455
784.181
747.114
708.239
675.053
635.249
588.559
587.842
603.868
630.679
725.991
888.582
983.055
1046.67
1058.33
1017.54
1013.51
1016.5
983.723
951.373
930.026
888.506
1037.89
1737.87
1583.87
1014.15
878.624
866.732
854.265
839.695
833.407
843.049
867.169
895.591
934.109
976.046
980.834
944.578
910.746
873.099
833.346
795.047
753.729
715.357
683.11
641.873
609.195
610.251
619.575
655.139
756.431
879.946
954.36
1003.61
987.112
967.366
987.395
982.398
982.049
982.24
992.987
1055.15
1518.36
2157.65
1650.11
1130.98
1063.28
1046.88
1025.24
993.424
958.228
928.411
911.576
917.573
939.528
975.813
981.482
946.824
913.538
878.183
841.725
804.866
764.724
726.327
692.188
650.547
626.083
628.303
645.584
704.025
789.504
858.494
917.318
935.514
908.27
939.762
1003.31
1026.22
1091.57
1235.38
1333.63
1447.08
1948.31
2120.63
1516.26
1176.89
1152.28
1146.93
1135.59
1115.78
1089.43
1052.68
1007.75
971.966
962.004
976.879
982.803
949.864
916.719
882.182
847.358
809.503
768.443
733.632
700.153
664.946
655.872
667.021
689.313
729.346
785.488
843.541
871.403
858.845
942.691
1038.83
1161.54
1359.99
1519.18
1590.11
1603.16
1674.74
2011.14
1845.75
1337.17
1197.15
1190.74
1192.72
1190.2
1181.38
1168.25
1145.72
1106.78
1055.8
1007.77
982.293
985.236
955.486
923.21
887.645
847.952
804.979
763.841
729.432
697.902
674.232
674.149
692.596
721.582
763.466
806.183
850.572
904.174
1036.71
1227.68
1442.71
1625.31
1733.55
1781.29
1737.62
1648.91
1670.33
1805.41
1516.4
1233.69
1202.96
1205.5
1206.78
1207.89
1203.7
1195.57
1186.21
1160.54
1119.48
1060.43
995.134
984.162
951.145
912.314
871.109
830.514
794.862
768.91
754.842
747.29
749.938
762.989
786.102
839.135
914.752
1008.61
1144.87
1311.23
1492.1
1678.16
1804.16
1868.7
1857.26
1804.96
1727.3
1609.23
1537.12
1459.71
1264.75
1194.44
1207.2
1217.57
1220.41
1222.7
1217.37
1207.13
1195.91
1173.65
1139.92
1088.55
1008.37
981.382
943.163
907.377
885.552
885.571
900.012
920.512
954.237
1017.08
1091.68
1155.71
1219.39
1300.3
1389.79
1497.71
1588.23
1705.7
1791.68
1850.13
1884.17
1894.75
1866.64
1780.27
1651.96
1485.55
1290.47
1153.71
1149.46
1190.58
1216.4
1226.73
1230.57
1232.6
1228.69
1218.72
1207.53
1182.34
1145.03
1094.49
1013.08
992.466
975.507
992.735
1044.05
1105.21
1184.27
1275.83
1368.76
1460.69
1539.53
1606.39
1662.53
1724.88
1751.22
1754.45
1777.1
1814.85
1856.56
1899.47
1912.16
1888.85
1819.16
1700.77
1524.22
1255.19
1013.68
987.252
1096.93
1185.21
1215.95
1228.33
1232.45
1234.62
1232.39
1224.68
1213.38
1185.73
1142.54
1086.16
1011.1
1014.35
1071.2
1163.8
1265.58
1337.49
1390.54
1445.02
1502.37
1554.87
1597.78
1648.26
1733.25
1810.73
1837
1845.59
1849.92
1881.58
1914.23
1931
1901.8
1829.41
1725.48
1554.99
1286.82
991.551
864.35
922.688
1069.16
1171.94
1207.57
1220.93
1225.57
1228.98
1228.67
1222.25
1209.39
1183.51
1140.73
1081.61
1012.71
1043.6
1137.34
1238
1315.38
1364.4
1395.51
1423.91
1458.97
1505.82
1581.42
1672.39
1767.71
1832.87
1875.24
1909.24
1932.04
1941.18
1934.7
1901.32
1836.21
1725.98
1552.11
1296.2
1015.96
857.477
837.262
896.171
1035.73
1149.49
1196.9
1210.22
1215.35
1220.09
1219.76
1214.57
1200.69
1175.55
1134.15
1074.91
1012.67
1043.83
1114.29
1190.47
1239.33
1272.48
1293.93
1328.22
1386.63
1460.44
1552.87
1654.29
1753.82
1836.72
1902.74
1946.9
1963.86
1945.1
1899.48
1825.23
1707.9
1527.11
1278.47
1027.43
886.474
849.035
853.13
888.637
996.065
1112.45
1176.81
1196.46
1204.38
1209.97
1208.2
1201.36
1185.63
1159.66
1120.95
1064.61
1008.81
1005.93
1046.35
1091.59
1123.43
1153.23
1186.57
1237.55
1302.64
1381.9
1474.87
1582.14
1697.34
1809.03
1890.09
1925.64
1921.39
1879.37
1795.95
1664.22
1475.07
1237.19
1024.31
916.785
882.285
872.23
877.788
897.837
962.026
1063.03
1140.64
1169.06
1177.35
1180.53
1180.44
1175.67
1160.6
1139.5
1108.97
1064.27
1012.55
977.46
990.783
1016.53
1037.24
1063.4
1100.93
1151.23
1208.45
1272.81
1352.61
1457.41
1579.2
1698.6
1780.66
1815.76
1797.26
1719.31
1583.3
1394.49
1183.03
1017.65
942.372
915.559
908.64
907.945
908.188
917.833
946.748
1015.45
1093.23
1131.22
1140.12
1138.02
1136.71
1133.21
1121.31
1109.14
1084.23
1054.84
1009.34
971.248
973.051
972.926
982.898
1005.58
1033.3
1064.73
1103.61
1150.68
1213.87
1301.22
1405.11
1508.36
1575.29
1589.79
1543.9
1430.79
1276.35
1122.75
1017.24
969.021
949.274
945.326
945.588
945.396
943.938
943.907
954.495
986.07
1037.19
1077.18
1091.6
1084.89
1079.45
1073.93
1064.99
1063.39
1052.61
1050.05
1012.02
953.347
952.052
940.185
943.687
966.902
986.146
1004.18
1030.53
1073.23
1132.34
1196.45
1248.3
1273.03
1254.27
1199.55
1134.63
1070.75
1019.42
990.748
980.456
977.411
977.86
978.891
979.217
978.858
978.261
977.356
977.724
980.615
989.037
1003.36
1012.78
1010.44
1011.51
1011.47
1008.52
1012.09
1007.47
1010.52
1023.98
953.347
952.052
940.185
943.687
966.902
986.146
1004.18
1030.53
1073.23
1132.34
1196.45
1248.3
1273.03
1254.27
1199.55
1134.63
1070.75
1019.42
990.748
980.456
977.411
977.86
978.891
979.217
978.858
978.261
977.356
977.724
980.615
989.037
1003.36
1012.78
1010.44
1011.51
1011.47
1008.52
1012.09
1007.47
1010.52
1023.98
971.248
973.051
972.926
982.898
1005.58
1033.3
1064.73
1103.61
1150.68
1213.87
1301.22
1405.11
1508.36
1575.29
1589.79
1543.9
1430.79
1276.35
1122.75
1017.24
969.021
949.274
945.326
945.588
945.396
943.938
943.907
954.495
986.07
1037.19
1077.18
1091.6
1084.89
1079.45
1073.93
1064.99
1063.39
1052.61
1050.05
1012.02
977.46
990.783
1016.53
1037.24
1063.4
1100.93
1151.23
1208.45
1272.81
1352.61
1457.41
1579.2
1698.6
1780.66
1815.76
1797.26
1719.31
1583.3
1394.49
1183.03
1017.65
942.372
915.559
908.64
907.945
908.188
917.833
946.748
1015.45
1093.23
1131.22
1140.12
1138.02
1136.71
1133.21
1121.31
1109.14
1084.23
1054.84
1009.34
1005.93
1046.35
1091.59
1123.43
1153.23
1186.57
1237.55
1302.64
1381.9
1474.87
1582.14
1697.34
1809.03
1890.09
1925.64
1921.39
1879.37
1795.95
1664.22
1475.07
1237.19
1024.31
916.785
882.285
872.23
877.788
897.837
962.026
1063.03
1140.64
1169.06
1177.35
1180.53
1180.44
1175.67
1160.6
1139.5
1108.97
1064.27
1012.55
1043.83
1114.29
1190.47
1239.33
1272.48
1293.93
1328.22
1386.63
1460.44
1552.87
1654.29
1753.82
1836.72
1902.74
1946.9
1963.86
1945.1
1899.48
1825.23
1707.9
1527.11
1278.47
1027.43
886.474
849.035
853.13
888.637
996.065
1112.45
1176.81
1196.46
1204.38
1209.97
1208.2
1201.36
1185.63
1159.66
1120.95
1064.61
1008.81
1043.6
1137.34
1238
1315.38
1364.4
1395.51
1423.91
1458.97
1505.82
1581.42
1672.39
1767.71
1832.87
1875.24
1909.24
1932.04
1941.18
1934.7
1901.32
1836.21
1725.98
1552.11
1296.2
1015.96
857.477
837.262
896.171
1035.73
1149.49
1196.9
1210.22
1215.35
1220.09
1219.76
1214.57
1200.69
1175.55
1134.15
1074.91
1012.67
1014.35
1071.2
1163.8
1265.58
1337.49
1390.54
1445.02
1502.37
1554.87
1597.78
1648.26
1733.25
1810.73
1837
1845.59
1849.92
1881.58
1914.23
1931
1901.8
1829.41
1725.48
1554.99
1286.82
991.551
864.35
922.688
1069.16
1171.94
1207.57
1220.93
1225.57
1228.98
1228.67
1222.25
1209.39
1183.51
1140.73
1081.61
1012.71
992.466
975.507
992.735
1044.05
1105.21
1184.27
1275.83
1368.76
1460.69
1539.53
1606.39
1662.53
1724.88
1751.22
1754.45
1777.1
1814.85
1856.56
1899.47
1912.16
1888.85
1819.16
1700.77
1524.22
1255.19
1013.68
987.252
1096.93
1185.21
1215.95
1228.33
1232.45
1234.62
1232.39
1224.68
1213.38
1185.73
1142.54
1086.16
1011.1
981.382
943.163
907.377
885.552
885.571
900.012
920.512
954.237
1017.08
1091.68
1155.71
1219.39
1300.3
1389.79
1497.71
1588.23
1705.7
1791.68
1850.13
1884.17
1894.75
1866.64
1780.27
1651.96
1485.55
1290.47
1153.71
1149.46
1190.58
1216.4
1226.73
1230.57
1232.6
1228.69
1218.72
1207.53
1182.34
1145.03
1094.49
1013.08
984.162
951.145
912.314
871.109
830.514
794.862
768.91
754.842
747.29
749.938
762.989
786.102
839.135
914.752
1008.61
1144.87
1311.23
1492.1
1678.16
1804.16
1868.7
1857.26
1804.96
1727.3
1609.23
1537.12
1459.71
1264.75
1194.44
1207.2
1217.57
1220.41
1222.7
1217.37
1207.13
1195.91
1173.65
1139.92
1088.55
1008.37
985.236
955.486
923.21
887.645
847.952
804.979
763.841
729.432
697.902
674.232
674.149
692.596
721.582
763.466
806.183
850.572
904.174
1036.71
1227.68
1442.71
1625.31
1733.55
1781.29
1737.62
1648.91
1670.33
1805.41
1516.4
1233.69
1202.96
1205.5
1206.78
1207.89
1203.7
1195.57
1186.21
1160.54
1119.48
1060.43
995.134
982.803
949.864
916.719
882.182
847.358
809.503
768.443
733.632
700.153
664.946
655.872
667.021
689.313
729.346
785.488
843.541
871.403
858.845
942.691
1038.83
1161.54
1359.99
1519.18
1590.11
1603.16
1674.74
2011.14
1845.75
1337.17
1197.15
1190.74
1192.72
1190.2
1181.38
1168.25
1145.72
1106.78
1055.8
1007.77
982.293
981.482
946.824
913.538
878.183
841.725
804.866
764.724
726.327
692.188
650.547
626.083
628.303
645.584
704.025
789.504
858.494
917.318
935.514
908.27
939.762
1003.31
1026.22
1091.57
1235.38
1333.63
1447.08
1948.31
2120.63
1516.26
1176.89
1152.28
1146.93
1135.59
1115.78
1089.43
1052.68
1007.75
971.966
962.004
976.879
980.834
944.578
910.746
873.099
833.346
795.047
753.729
715.357
683.11
641.873
609.195
610.251
619.575
655.139
756.431
879.946
954.36
1003.61
987.112
967.366
987.395
982.398
982.049
982.24
992.987
1055.15
1518.36
2157.65
1650.11
1130.98
1063.28
1046.88
1025.24
993.424
958.228
928.411
911.576
917.573
939.528
975.813
980.142
941.676
904.712
865.033
822.455
784.181
747.114
708.239
675.053
635.249
588.559
587.842
603.868
630.679
725.991
888.582
983.055
1046.67
1058.33
1017.54
1013.51
1016.5
983.723
951.373
930.026
888.506
1037.89
1737.87
1583.87
1014.15
878.624
866.732
854.265
839.695
833.407
843.049
867.169
895.591
934.109
976.046
979.376
938.052
898.113
859.69
818.373
780.905
746.534
703.189
664.989
635.493
593.69
573.465
576.469
586.223
647.457
855.589
1000.73
1072.76
1096.31
1061.75
1037.19
1045.87
1019.03
981.847
940.699
880.26
902.258
1398.19
1439.66
889.068
703.743
713.335
735.73
758.533
784.981
815.648
850.076
890.526
933.693
976.457
980.852
934.317
877.108
832.158
794.874
760.456
728.509
695.538
664.135
640.737
612.738
582.299
568.457
568.429
605.761
806.971
1017.78
1105.37
1131.59
1096.61
1062.67
1068.85
1054.07
1016.19
972.399
906.365
888.017
1333.37
1453.34
902.169
657.414
670.921
706.005
737.144
769.394
807.063
848.869
891.235
934.076
976.812
976.459
924.016
893.468
863.546
829.328
793.45
760.607
732.151
705.295
684.357
664.713
636.37
601.407
563.859
581.936
770.778
1059.82
1166.75
1196.52
1160.02
1108.18
1097.92
1087.03
1048.75
1004.38
940.902
892.14
1332.67
1529.99
964.462
654.336
659.998
696.829
732.444
768.769
808.438
850.116
891.601
934.178
977
968.33
914.881
856.161
806.108
775.61
753.181
738.806
729.041
712.634
692.67
672.34
636.096
585.023
550.921
572.549
753.564
1048.01
1148.59
1173.36
1143.94
1106.67
1093.88
1086.83
1055.73
1015.38
960.402
895.926
1335.06
1610.74
1035
665.152
661.912
698.772
734.922
771.097
810.198
850.993
891.592
934.132
977.352
994.446
955.717
921.561
898.644
888.177
869.041
841.409
810.421
772.652
729.017
689.105
641.867
578.518
545.007
566.826
757.902
1067.25
1153.93
1168.85
1144.82
1116.29
1102.96
1094.34
1082.62
1079.16
1039.7
956.042
1383.21
1677.79
1086.02
675.56
664.794
700.901
737.033
772.717
811.095
851.28
891.52
934.155
977.861
)
;

boundaryField
{
    inlet
    {
        type            fixedValue;
        value           uniform 10000;
    }
    outlet
    {
        type            fixedValue;
        value           uniform 1000;
    }
    obstacle
    {
        type            zeroGradient;
    }
    empty
    {
        type            empty;
    }
}


// ************************************************************************* //
