/*--------------------------------*- C++ -*----------------------------------*\
| =========                 |                                                 |
| \\      /  F ield         | OpenFOAM: The Open Source CFD Toolbox           |
|  \\    /   O peration     | Version:  v1912                                 |
|   \\  /    A nd           | Website:  www.openfoam.com                      |
|    \\/     M anipulation  |                                                 |
\*---------------------------------------------------------------------------*/
FoamFile
{
    version     2.0;
    format      ascii;
    class       volVectorField;
    location    "1.88";
    object      grad(p);
}
// * * * * * * * * * * * * * * * * * * * * * * * * * * * * * * * * * * * * * //

dimensions      [1 -2 -2 0 0 0 0];


internalField   nonuniform List<vector> 
1900
(
(8784.36 -0.0333095 0)
(-2158.6 -0.313846 0)
(540.306 0.375876 0)
(101.959 2.2242 0)
(12.6517 1.45063 0)
(71.996 4.06026 0)
(192.304 -9.67408 0)
(313.272 -45.5257 0)
(437.576 -61.9157 0)
(-88.2398 -68.2253 0)
(8784.01 -0.0574743 0)
(-2158.19 -0.51191 0)
(542.844 0.39628 0)
(103.033 2.70227 0)
(14.4878 1.00566 0)
(60.8713 1.62317 0)
(142.718 -15.3921 0)
(261.03 -39.4076 0)
(414.876 -25.338 0)
(476.67 -88.4475 0)
(8783.79 -4.10338e-09 0)
(-2158.14 1.22569e-09 0)
(543.52 2.66454e-10 0)
(102.568 2.8777e-09 0)
(11.5726 1.03029e-09 0)
(55.5983 -6.39488e-10 0)
(151.273 -1.65201e-09 0)
(303.326 -1.22569e-09 0)
(388.536 1.19016e-09 0)
(378.351 2.66454e-10 0)
(8784.01 0.0574743 0)
(-2158.19 0.51191 0)
(542.844 -0.39628 0)
(103.033 -2.70227 0)
(14.4878 -1.00566 0)
(60.8713 -1.62317 0)
(142.718 15.3921 0)
(261.03 39.4076 0)
(414.876 25.338 0)
(476.67 88.4475 0)
(8784.36 0.0333095 0)
(-2158.6 0.313846 0)
(540.306 -0.375876 0)
(101.959 -2.2242 0)
(12.6517 -1.45063 0)
(71.996 -4.06026 0)
(192.304 9.67408 0)
(313.272 45.5257 0)
(437.576 61.9157 0)
(-88.2398 68.2253 0)
(12.3933 417.155 1.0569e-11)
(595.496 494.47 -1.29675e-11)
(-541.563 536.472 -1.64503e-11)
(-6859.49 1512.28 0)
(-2089.74 10106.1 -6.49276e-11)
(610.436 359.464 1.06443e-11)
(518.989 334.409 1.29675e-11)
(-76.3668 232.795 1.64503e-11)
(-2915 624.905 0)
(-1177.17 8359.27 0)
(633.47 2.10781e-09 0)
(521.947 2.35679e-09 0)
(-247.829 -5.18104e-10 0)
(-2725.45 1.91766e-09 0)
(3352.07 -1.69177e-09 0)
(610.436 -359.464 1.06443e-11)
(518.989 -334.409 1.29675e-11)
(-76.3668 -232.795 1.64503e-11)
(-2915 -624.905 0)
(-1177.17 -8359.27 0)
(12.3933 -417.155 -3.18576e-11)
(595.496 -494.47 -1.29675e-11)
(-541.563 -536.472 -1.64503e-11)
(-6859.49 -1512.28 -4.44485e-11)
(-2089.74 -10106.1 6.49276e-11)
(11297.4 -3664.09 3.26876e-11)
(1410.75 -553.487 -2.7814e-11)
(1259.67 -59.1736 0)
(905.243 1810.44 2.17553e-11)
(-9266.36 -1818.37 -9.80208e-12)
(7775.36 -3822.7 -1.62886e-11)
(2259.51 -409.139 1.38987e-11)
(2123.43 -287.182 0)
(48.7618 725.187 -1.36366e-11)
(-8945.95 -7333.86 2.38161e-12)
(8638.47 -3.05031e-09 0)
(2252.26 -2.12556e-09 0)
(1661.03 2.8948e-09 0)
(-2410.84 -2.32204e-09 5.46338e-12)
(-11380.4 -8.20656e-09 -4.76322e-12)
(7775.36 3822.7 -1.62886e-11)
(2259.51 409.139 1.38987e-11)
(2123.43 287.182 0)
(48.7618 -725.187 -1.36366e-11)
(-8945.95 7333.86 2.38161e-12)
(11297.4 3664.09 1.62886e-11)
(1410.75 553.487 1.66692e-14)
(1259.67 59.1736 0)
(905.243 -1810.44 5.45246e-14)
(-9266.36 1818.37 9.80208e-12)
(-27846.1 -7386.45 0)
(-16755.9 7392.76 0)
(2499.7 3648.25 0)
(809.359 1254.51 0)
(171.408 451.239 0)
(961.271 176.782 0)
(1557.8 224.056 0)
(2064.24 58.06 0)
(2724.51 35.6698 0)
(3175.5 20.8391 0)
(3517.28 14.127 0)
(3722.31 9.73032 0)
(3757.78 7.98918 0)
(3502.04 8.47501 0)
(2765.51 8.91894 0)
(1592.48 5.98354 0)
(549.649 1.7507 0)
(87.3187 0.153953 0)
(4.40798 0.0093396 0)
(0.0467831 0.00671271 0)
(-0.0598994 0.00670726 0)
(-5.24559 0.00670787 0)
(-98.7577 0.00670565 0)
(-601.127 0.00668411 0)
(-1702.78 0.00653111 0)
(-2914.63 0.0061081 0)
(-3666.92 0.00540342 0)
(-3941.85 0.00450045 0)
(-3951.04 0.00352763 0)
(-3835.07 0.00260245 0)
(-3654.77 0.00180615 0)
(-3433.76 0.00118023 0)
(-3177.84 0.000726334 0)
(-2875.15 0.000421182 0)
(-2516.09 0.000232043 0)
(-2130.63 0.000123044 0)
(-1839.41 6.57982e-05 0)
(-2611.86 3.13097e-05 0)
(47572.5 1.24063e-05 0)
(-70070.1 -1.97208e-07 0)
(-25835.7 -3520.04 0)
(-17048.5 9726.57 0)
(1418.08 3620.62 0)
(188.873 698.443 0)
(83.0256 243.067 0)
(932.757 98.8906 0)
(1542.31 83.2952 0)
(2046.21 19.7508 0)
(2721.9 12.42 0)
(3174.14 7.26493 0)
(3516.44 5.13563 0)
(3721.79 3.41522 0)
(3757.75 2.75559 0)
(3502.15 3.21696 0)
(2765.23 3.41471 0)
(1591.84 2.12884 0)
(549.195 0.535098 0)
(87.2075 -0.0166627 0)
(4.41149 -0.00599509 0)
(0.0471322 -0.00436673 0)
(-0.0598983 -0.00436161 0)
(-5.24559 -0.00436157 0)
(-98.7577 -0.00435741 0)
(-601.127 -0.00434934 0)
(-1702.78 -0.00424588 0)
(-2914.63 -0.00396648 0)
(-3666.92 -0.00350247 0)
(-3941.85 -0.00290993 0)
(-3951.04 -0.00227292 0)
(-3835.07 -0.00166886 0)
(-3654.77 -0.00115142 0)
(-3433.76 -0.000746456 0)
(-3177.84 -0.000455187 0)
(-2875.15 -0.000260941 0)
(-2516.09 -0.000141918 0)
(-2130.63 -7.41266e-05 0)
(-1839.41 -3.90381e-05 0)
(-2611.86 -1.85988e-05 0)
(47572.5 -7.40683e-06 0)
(-70070.1 -1.02835e-07 0)
(-22771.9 3.22974e-09 0)
(-14678.6 7.75138e-10 0)
(-126.669 -2.26082e-10 0)
(-173.203 4.52164e-10 0)
(-3.00712 -4.19866e-10 0)
(914.791 -1.03352e-09 0)
(1534.78 -5.81353e-10 0)
(2043.62 3.22974e-11 0)
(2720.88 -8.39732e-10 0)
(3173.38 -4.19866e-10 0)
(3516.16 9.68922e-11 0)
(3721.61 -4.19866e-10 0)
(3757.72 6.45948e-11 0)
(3502.23 -2.26082e-10 0)
(2765.19 6.36259e-09 0)
(1591.64 1.99921e-08 0)
(549.025 -7.24431e-08 0)
(87.1613 4.71542e-08 0)
(4.41155 -1.71664e-06 0)
(0.0472583 -2.37063e-08 0)
(-0.0598979 -2.56377e-07 0)
(-5.24559 2.21043e-07 0)
(-98.7577 3.84995e-06 0)
(-601.127 -4.64269e-06 0)
(-1702.78 -2.02001e-06 0)
(-2914.63 -1.74997e-06 0)
(-3666.92 -6.10421e-07 0)
(-3941.85 -4.46996e-07 0)
(-3951.04 1.31127e-07 0)
(-3835.07 6.5764e-07 0)
(-3654.77 5.15725e-07 0)
(-3433.76 9.26645e-07 0)
(-3177.84 5.54772e-07 0)
(-2875.15 4.99641e-07 0)
(-2516.09 2.42699e-07 0)
(-2130.63 8.29397e-08 0)
(-1839.41 -1.98306e-07 0)
(-2611.86 -5.18373e-08 0)
(47572.5 -1.63748e-08 0)
(-70070.1 -3.61731e-09 0)
(-25835.7 3520.04 0)
(-17048.5 -9726.57 0)
(1418.08 -3620.62 0)
(188.873 -698.443 0)
(83.0256 -243.067 0)
(932.757 -98.8906 0)
(1542.31 -83.2952 0)
(2046.21 -19.7508 0)
(2721.9 -12.42 0)
(3174.14 -7.26493 0)
(3516.44 -5.13563 0)
(3721.79 -3.41522 0)
(3757.75 -2.75559 0)
(3502.15 -3.21696 0)
(2765.23 -3.41471 0)
(1591.84 -2.12884 0)
(549.195 -0.535098 0)
(87.2075 0.0166627 0)
(4.41149 0.00599193 0)
(0.0471326 0.00436667 0)
(-0.0598982 0.00436113 0)
(-5.24559 0.00436201 0)
(-98.7577 0.00436464 0)
(-601.127 0.00434057 0)
(-1702.78 0.00424213 0)
(-2914.63 0.00396314 0)
(-3666.92 0.00350127 0)
(-3941.85 0.0029091 0)
(-3951.04 0.00227318 0)
(-3835.07 0.00167009 0)
(-3654.77 0.00115241 0)
(-3433.76 0.000748201 0)
(-3177.84 0.000456248 0)
(-2875.15 0.000261889 0)
(-2516.09 0.000142379 0)
(-2130.63 7.42795e-05 0)
(-1839.41 3.86687e-05 0)
(-2611.86 1.85004e-05 0)
(47572.5 7.37392e-06 0)
(-70070.1 9.45668e-08 0)
(-27846.1 7386.45 0)
(-16755.9 -7392.76 0)
(2499.7 -3648.25 0)
(809.359 -1254.51 0)
(171.408 -451.239 0)
(961.271 -176.782 0)
(1557.8 -224.056 0)
(2064.24 -58.06 0)
(2724.51 -35.6698 0)
(3175.5 -20.8391 0)
(3517.28 -14.127 0)
(3722.31 -9.73032 0)
(3757.78 -7.98918 0)
(3502.04 -8.47501 0)
(2765.51 -8.91894 0)
(1592.48 -5.98354 0)
(549.649 -1.7507 0)
(87.3187 -0.153953 0)
(4.40798 -0.00933829 0)
(0.0467839 -0.00671272 0)
(-0.0598993 -0.00670706 0)
(-5.24559 -0.006708 0)
(-98.7577 -0.00670872 0)
(-601.127 -0.00668063 0)
(-1702.78 -0.00652922 0)
(-2914.63 -0.00610672 0)
(-3666.92 -0.005403 0)
(-3941.85 -0.00450008 0)
(-3951.04 -0.00352773 0)
(-3835.07 -0.00260299 0)
(-3654.77 -0.00180654 0)
(-3433.76 -0.00118097 0)
(-3177.84 -0.000726765 0)
(-2875.15 -0.000421568 0)
(-2516.09 -0.000232235 0)
(-2130.63 -0.000123115 0)
(-1839.41 -6.56381e-05 0)
(-2611.86 -3.12633e-05 0)
(47572.5 -1.23945e-05 0)
(-70070.1 1.93784e-07 0)
(53383.9 16756.4 0)
(-24308.7 -4764.69 0)
(4017.83 -2363.75 0)
(1476.83 -1818.55 0)
(656.86 -778.918 0)
(1042.29 -367.88 0)
(1598.87 -349.825 0)
(2143.52 -140.951 0)
(2742.23 -85.7088 0)
(3186.08 -48.4743 0)
(3522.43 -31.9536 0)
(3725.05 -23.9711 0)
(3758.49 -21.6532 0)
(3501.7 -21.8859 0)
(2766.46 -20.2209 0)
(1595.6 -12.6913 0)
(552.327 -4.19899 0)
(88.1713 -1.14168 0)
(4.50792 -0.828918 0)
(0.0491863 -0.822742 0)
(-0.0598941 -0.822729 0)
(-5.24559 -0.822726 0)
(-98.7577 -0.822566 0)
(-601.126 -0.819595 0)
(-1702.78 -0.802596 0)
(-2914.62 -0.758396 0)
(-3666.92 -0.686089 0)
(-3941.84 -0.59386 0)
(-3951.04 -0.492138 0)
(-3835.07 -0.39064 0)
(-3654.76 -0.297043 0)
(-3433.75 -0.216379 0)
(-3177.84 -0.150978 0)
(-2875.15 -0.100949 0)
(-2516.09 -0.0650074 0)
(-2130.63 -0.0408346 0)
(-1839.41 -0.0258598 0)
(-2611.86 -0.014489 0)
(47572.5 -0.00698379 0)
(-70070.1 -0.00068111 0)
(57817.5 12520.2 0)
(-31130.7 -1648.03 0)
(4524.64 -1584.54 0)
(1978.64 -1517.75 0)
(1309.01 -1010.26 0)
(1331.31 -618.75 0)
(1754.45 -459.202 0)
(2276.24 -253.934 0)
(2804.12 -169.219 0)
(3221.63 -109.503 0)
(3538.13 -83.3305 0)
(3730.76 -73.0944 0)
(3759.41 -70.7797 0)
(3503.6 -69.1778 0)
(2773.86 -62.3377 0)
(1606.25 -48.1002 0)
(559.342 -34.6181 0)
(90.1091 -30.1987 0)
(4.66173 -29.8283 0)
(0.0514597 -29.8225 0)
(-0.0598865 -29.8225 0)
(-5.24543 -29.8224 0)
(-98.7547 -29.8167 0)
(-601.107 -29.715 0)
(-1702.72 -29.1552 0)
(-2914.51 -27.7575 0)
(-3666.77 -25.5465 0)
(-3941.66 -22.7734 0)
(-3950.85 -19.6987 0)
(-3834.88 -16.5469 0)
(-3654.6 -13.5017 0)
(-3433.61 -10.702 0)
(-3177.73 -8.23973 0)
(-2875.06 -6.1649 0)
(-2516.03 -4.50114 0)
(-2130.6 -3.23782 0)
(-1839.38 -2.34738 0)
(-2611.84 -1.51542 0)
(47572.5 -0.860291 0)
(-70070.1 -0.268401 0)
(63860.8 10542 0)
(-37900.5 -383.399 0)
(4143.36 -1100.28 0)
(2030.22 -1203.29 0)
(1523.17 -1090.17 0)
(1573.32 -800.444 0)
(1950.42 -607.634 0)
(2422.96 -422.084 0)
(2881.41 -336.016 0)
(3268.84 -289.525 0)
(3557.51 -278.921 0)
(3737.15 -288.079 0)
(3762.27 -304.575 0)
(3509.83 -317.104 0)
(2786.77 -318.021 0)
(1622.31 -307.458 0)
(569.578 -295.873 0)
(92.7869 -291.883 0)
(4.87044 -291.533 0)
(0.0548046 -291.527 0)
(-0.059814 -291.527 0)
(-5.23998 -291.526 0)
(-98.6542 -291.47 0)
(-600.489 -290.504 0)
(-1700.89 -285.392 0)
(-2911.15 -273.156 0)
(-3662.12 -254.545 0)
(-3936.21 -231.837 0)
(-3945.04 -206.925 0)
(-3829.09 -181.205 0)
(-3649.13 -155.762 0)
(-3428.68 -131.454 0)
(-3173.46 -108.931 0)
(-2871.54 -88.6921 0)
(-2513.27 -71.2161 0)
(-2128.56 -56.8002 0)
(-1837.75 -45.5205 0)
(-2610.43 -33.1231 0)
(47573.7 -21.5653 0)
(-70069 -15.9875 0)
(67606.7 6474.43 0)
(-42349.6 -474.858 0)
(3734.57 -1119.71 0)
(1988.39 -1315.52 0)
(1697.21 -1189.09 0)
(1796.3 -993.911 0)
(2119.05 -891.789 0)
(2537.98 -824.362 0)
(2931.86 -801.417 0)
(3276.65 -821.653 0)
(3539.52 -871.676 0)
(3706.04 -937.806 0)
(3731.44 -1006.39 0)
(3490.64 -1066.52 0)
(2783.15 -1109.19 0)
(1627.59 -1129.99 0)
(574.351 -1134.43 0)
(94.2909 -1134.17 0)
(5.00455 -1134.08 0)
(0.0570847 -1134.07 0)
(-0.0591901 -1134.07 0)
(-5.19014 -1134.07 0)
(-97.769 -1133.84 0)
(-595.25 -1130.07 0)
(-1686 -1110.88 0)
(-2884.79 -1066.83 0)
(-3626.95 -1002.42 0)
(-3895.77 -926.329 0)
(-3902.05 -844.564 0)
(-3785.58 -760.814 0)
(-3606.66 -677.62 0)
(-3388.49 -596.916 0)
(-3136.52 -520.222 0)
(-2838.72 -448.981 0)
(-2485.3 -385.055 0)
(-2105.84 -329.948 0)
(-1816.56 -282.655 0)
(-2588.76 -225.716 0)
(47589 -164.042 0)
(-70033.9 -246.378 0)
(69642.2 5084.74 0)
(-45218.5 -625.034 0)
(3333.27 -1233.18 0)
(1963.36 -1451.14 0)
(1833.08 -1535.95 0)
(1859.81 -1553.47 0)
(2113.8 -1546.64 0)
(2510.05 -1566.62 0)
(2884.02 -1614.38 0)
(3201.14 -1700.88 0)
(3445.58 -1815.08 0)
(3607.33 -1942.58 0)
(3638.23 -2070.71 0)
(3410.77 -2190.33 0)
(2725.61 -2290.94 0)
(1597.99 -2358.07 0)
(565.553 -2386.05 0)
(93.1246 -2391.37 0)
(4.95834 -2391.69 0)
(0.0567482 -2391.69 0)
(-0.0569433 -2391.69 0)
(-5.01571 -2391.68 0)
(-94.7958 -2391.16 0)
(-578.365 -2382.91 0)
(-1639.95 -2342.65 0)
(-2806.62 -2253.95 0)
(-3526.73 -2129.14 0)
(-3784.1 -1986.43 0)
(-3785.54 -1836.82 0)
(-3668.22 -1686.06 0)
(-3491.19 -1537.54 0)
(-3277.01 -1393.55 0)
(-3030.91 -1255.89 0)
(-2741.29 -1126.78 0)
(-2398.56 -1009.75 0)
(-2029.88 -907.394 0)
(-1737.3 -810.46 0)
(-2496.13 -692.902 0)
(47553.8 -549.66 0)
(-69673.5 -1413.2 0)
(71904.2 404.343 0)
(-48437.8 -1048.11 0)
(2938.5 -1567.37 0)
(1696.63 -1896.27 0)
(1598.6 -2137.31 0)
(1786 -2254.88 0)
(2106.39 -2261.52 0)
(2472.71 -2292.07 0)
(2802.48 -2363.68 0)
(3083.25 -2477.63 0)
(3306.61 -2619.17 0)
(3459.7 -2776.46 0)
(3492.7 -2939.05 0)
(3278.42 -3097.41 0)
(2621.51 -3238.84 0)
(1535.94 -3342.47 0)
(542.262 -3391.79 0)
(88.8573 -3402.53 0)
(4.69483 -3403.25 0)
(0.053168 -3403.26 0)
(-0.052486 -3403.26 0)
(-4.681 -3403.25 0)
(-89.3164 -3402.43 0)
(-548.508 -3389.91 0)
(-1561.73 -3331.21 0)
(-2679.04 -3207.03 0)
(-3369.16 -3038.45 0)
(-3614.08 -2851.19 0)
(-3612.61 -2659.41 0)
(-3497.19 -2469.71 0)
(-3324.78 -2285.46 0)
(-3117.08 -2108.64 0)
(-2879.45 -1940.82 0)
(-2601.53 -1784.79 0)
(-2273.89 -1645.12 0)
(-1913.79 -1524.51 0)
(-1609.87 -1396.31 0)
(-2337.44 -1254.51 0)
(46894.9 -1068.2 0)
(-68142.4 -4037.94 0)
(69021.8 -6128.82 0)
(-47118.5 -1646.56 0)
(2515.96 -2061.1 0)
(1414.14 -2395.97 0)
(1487.52 -2528.02 0)
(1740.12 -2589.09 0)
(2077.95 -2603.46 0)
(2411.6 -2652.12 0)
(2705.21 -2738.84 0)
(2954.94 -2860.96 0)
(3157.62 -3007.35 0)
(3299.08 -3169.72 0)
(3328.95 -3341.76 0)
(3121.88 -3515.94 0)
(2489.46 -3679.3 0)
(1450.6 -3806.63 0)
(507.681 -3871.08 0)
(82.081 -3885.78 0)
(4.25317 -3886.8 0)
(0.0469574 -3886.81 0)
(-0.0461596 -3886.81 0)
(-4.2159 -3886.8 0)
(-81.9383 -3885.76 0)
(-509.73 -3870.29 0)
(-1463.72 -3800.1 0)
(-2524.51 -3656.97 0)
(-3183.84 -3468.56 0)
(-3418.84 -3263.89 0)
(-3417.93 -3057.74 0)
(-3307.86 -2856.57 0)
(-3143.25 -2663.5 0)
(-2944.9 -2480.12 0)
(-2718.84 -2308 0)
(-2456.34 -2150.28 0)
(-2147.75 -2012.23 0)
(-1790.12 -1896.02 0)
(-1477.12 -1762.82 0)
(-2179.96 -1637.95 0)
(44871.6 -1468.53 0)
(-64753 -7138.42 0)
(64411.5 -9232.03 0)
(-44518 -1951.02 0)
(2216.34 -2278.27 0)
(1246.69 -2495.83 0)
(1412.5 -2603.02 0)
(1713.3 -2636.65 0)
(2045.65 -2657.02 0)
(2342.25 -2715.2 0)
(2601.23 -2810.55 0)
(2824.5 -2935.39 0)
(3009.08 -3081.69 0)
(3137.45 -3243.49 0)
(3159.06 -3417.46 0)
(2953.16 -3598.28 0)
(2341.4 -3773.15 0)
(1351.13 -3914.05 0)
(465.981 -3987.52 0)
(73.7123 -4004.52 0)
(3.70313 -4005.69 0)
(0.0392898 -4005.7 0)
(-0.0387265 -4005.7 0)
(-3.66997 -4005.69 0)
(-73.4049 -4004.54 0)
(-465.963 -3987.4 0)
(-1356.18 -3911.24 0)
(-2359.55 -3760.3 0)
(-2990.37 -3566.63 0)
(-3218.19 -3359.74 0)
(-3220.1 -3153.48 0)
(-3117.28 -2953.71 0)
(-2962.02 -2763.06 0)
(-2774.51 -2583.29 0)
(-2561.61 -2415.14 0)
(-2316.51 -2263.14 0)
(-2028.88 -2130.89 0)
(-1673.45 -2020.13 0)
(-1361.19 -1902.65 0)
(-2053.86 -1806.89 0)
(41594.5 -1664.1 0)
(-59848.4 -9218.98 0)
(58245.4 -11309.4 0)
(-40417.6 -2005.66 0)
(1990.97 -2274.41 0)
(1101.19 -2430.5 0)
(1351.82 -2499.7 0)
(1688.09 -2524.74 0)
(2002.26 -2558.2 0)
(2263.65 -2630.54 0)
(2493.02 -2731.32 0)
(2693.66 -2857.69 0)
(2860.73 -3002.81 0)
(2975.53 -3164.22 0)
(2987.06 -3338.62 0)
(2779.12 -3521.68 0)
(2185.18 -3701.56 0)
(1244.03 -3849.13 0)
(420.497 -3926.92 0)
(64.5696 -3944.82 0)
(3.11103 -3946.02 0)
(0.0312908 -3946.04 0)
(-0.0310056 -3946.04 0)
(-3.091 -3946.03 0)
(-64.3168 -3944.85 0)
(-419.827 -3927.09 0)
(-1244.88 -3848.52 0)
(-2192.43 -3695.75 0)
(-2797.84 -3503.77 0)
(-3020.72 -3301.48 0)
(-3026.67 -3101.22 0)
(-2931.64 -2907.88 0)
(-2786.3 -2724.17 0)
(-2609.63 -2550.55 0)
(-2410.33 -2390.6 0)
(-2182.43 -2243.75 0)
(-1913.57 -2117.31 0)
(-1570.18 -2007.58 0)
(-1271.63 -1913.29 0)
(-1950.08 -1850.93 0)
(37729 -1709.48 0)
(-54265.7 -10080.5 0)
(51580.7 -11673.6 0)
(-35811.6 -1976.84 0)
(1806.95 -2251.2 0)
(1029.59 -2286.78 0)
(1321.69 -2315.36 0)
(1656.92 -2340.67 0)
(1943.7 -2397.21 0)
(2175.43 -2476.81 0)
(2382.34 -2585.92 0)
(2562.89 -2711.95 0)
(2713.69 -2857.1 0)
(2813.85 -3017.4 0)
(2814.6 -3191.15 0)
(2603.41 -3373.7 0)
(2025.86 -3554.1 0)
(1133.97 -3703.31 0)
(373.768 -3781.89 0)
(55.2979 -3799.64 0)
(2.5288 -3800.79 0)
(0.0237984 -3800.8 0)
(-0.0236968 -3800.8 0)
(-2.52003 -3800.79 0)
(-55.1541 -3799.66 0)
(-373.142 -3782.09 0)
(-1133.25 -3703.63 0)
(-2027.34 -3552.46 0)
(-2610.44 -3365.64 0)
(-2830.28 -3171.11 0)
(-2840.82 -2979.55 0)
(-2753.94 -2795.3 0)
(-2617.67 -2619.56 0)
(-2453.07 -2456.27 0)
(-2265.96 -2301.99 0)
(-2053.17 -2166.82 0)
(-1801.3 -2040.06 0)
(-1476.85 -1935.23 0)
(-1210.24 -1856.81 0)
(-1857.46 -1834.54 0)
(33664.2 -1670.2 0)
(-48487.2 -9988.12 0)
(45091.3 -11430.9 0)
(-31337.9 -1888.27 0)
(1692.3 -2145.99 0)
(1039.37 -2077.59 0)
(1299.89 -2092.68 0)
(1609.21 -2131.73 0)
(1871.07 -2204.31 0)
(2081.81 -2298.54 0)
(2266.43 -2405.98 0)
(2432.34 -2536.68 0)
(2566.38 -2680.2 0)
(2653.63 -2839.21 0)
(2643.73 -3010.02 0)
(2429.37 -3189.06 0)
(1867.55 -3366.22 0)
(1024.52 -3513.24 0)
(327.67 -3590.03 0)
(46.3597 -3606.88 0)
(1.99149 -3607.91 0)
(0.017309 -3607.93 0)
(-0.0172914 -3607.93 0)
(-1.9891 -3607.91 0)
(-46.3024 -3606.89 0)
(-327.296 -3590.17 0)
(-1023.59 -3513.74 0)
(-1866.72 -3366.46 0)
(-2430.36 -3186.77 0)
(-2648.67 -3001.69 0)
(-2664.53 -2820.5 0)
(-2584.75 -2646.06 0)
(-2459.6 -2481.93 0)
(-2303.6 -2325.34 0)
(-2131.4 -2186.67 0)
(-1930.02 -2052.11 0)
(-1690.41 -1935 0)
(-1393.6 -1831.94 0)
(-1174.6 -1769.02 0)
(-1770.26 -1775.43 0)
(29871.9 -1586.93 0)
(-43031.3 -9679.86 0)
(38745.9 -10449.9 0)
(-26864.3 -1717.47 0)
(1624.51 -1932.91 0)
(1080.97 -1849.77 0)
(1269.51 -1867.75 0)
(1549.35 -1915.5 0)
(1782.96 -2009.83 0)
(1981.09 -2102.97 0)
(2152.86 -2220.01 0)
(2298.64 -2345.49 0)
(2422.16 -2488.54 0)
(2496.03 -2642.56 0)
(2477.48 -2807.4 0)
(2260.16 -2979.32 0)
(1713.47 -3149.92 0)
(918.292 -3291.87 0)
(283.537 -3365.02 0)
(38.0697 -3380.46 0)
(1.52002 -3381.35 0)
(0.0120413 -3381.36 0)
(-0.0120479 -3381.36 0)
(-1.52013 -3381.35 0)
(-38.0587 -3380.46 0)
(-283.385 -3365.09 0)
(-917.669 -3292.23 0)
(-1712.25 -3150.65 0)
(-2258.93 -2979.65 0)
(-2477.33 -2805.59 0)
(-2498.12 -2635.97 0)
(-2427.68 -2473.93 0)
(-2308.62 -2319.41 0)
(-2168.54 -2178.47 0)
(-2002.67 -2041.84 0)
(-1810.65 -1923.61 0)
(-1589.13 -1803.12 0)
(-1316.9 -1713.04 0)
(-1155.78 -1660.17 0)
(-1682 -1672.37 0)
(26047.2 -1480.37 0)
(-37630.1 -9062.87 0)
(33366.4 -9209.61 0)
(-23130.6 -1499.85 0)
(1564.81 -1688.82 0)
(1102.16 -1636.02 0)
(1236.55 -1659.62 0)
(1472.29 -1712.99 0)
(1690.41 -1809.15 0)
(1879.28 -1913.03 0)
(2032.73 -2024.99 0)
(2173.57 -2150.22 0)
(2280.12 -2284.92 0)
(2346.36 -2430.04 0)
(2319.21 -2583.19 0)
(2099.31 -2743.21 0)
(1566.36 -2903.63 0)
(817.237 -3038 0)
(242.304 -3106.1 0)
(30.6272 -3119.81 0)
(1.12427 -3120.54 0)
(0.00800905 -3120.55 0)
(-0.00801654 -3120.55 0)
(-1.12486 -3120.54 0)
(-30.6324 -3119.81 0)
(-242.276 -3106.12 0)
(-816.952 -3038.17 0)
(-1565.51 -2904.22 0)
(-2097.85 -2744.21 0)
(-2317.49 -2584.04 0)
(-2344.93 -2429.57 0)
(-2279.7 -2281.53 0)
(-2174.88 -2141.83 0)
(-2036.12 -2009.17 0)
(-1885.81 -1886.99 0)
(-1699.98 -1770.21 0)
(-1487.5 -1659.49 0)
(-1255.84 -1582.56 0)
(-1135.42 -1538.76 0)
(-1597 -1547.26 0)
(22750.2 -1358.18 0)
(-32871.5 -8362.94 0)
(28425.8 -7945.93 0)
(-19617 -1264.21 0)
(1493.29 -1434.86 0)
(1109.11 -1421.1 0)
(1195.34 -1442.46 0)
(1405.26 -1502.57 0)
(1590.2 -1593.81 0)
(1773.1 -1701.9 0)
(1924.29 -1811.11 0)
(2048.16 -1932.12 0)
(2152.52 -2056.32 0)
(2208.61 -2187.05 0)
(2175.7 -2323.59 0)
(1951.37 -2466.88 0)
(1429.4 -2612.87 0)
(723.188 -2736.61 0)
(204.7 -2798.21 0)
(24.1514 -2809.96 0)
(0.805932 -2810.54 0)
(0.00509268 -2810.54 0)
(-0.00509642 -2810.54 0)
(-0.806331 -2810.54 0)
(-24.158 -2809.96 0)
(-204.716 -2798.21 0)
(-723.114 -2736.66 0)
(-1428.98 -2613.18 0)
(-1950.4 -2467.69 0)
(-2174.13 -2324.95 0)
(-2206.61 -2188.68 0)
(-2150.41 -2057.67 0)
(-2046.16 -1932.22 0)
(-1922.96 -1808.75 0)
(-1772.4 -1696.01 0)
(-1591.43 -1582.17 0)
(-1408.3 -1484.55 0)
(-1200.55 -1413.38 0)
(-1121.77 -1382.88 0)
(-1507.98 -1374.81 0)
(19479.4 -1198.78 0)
(-28262.5 -7537.51 0)
(24491.2 -6921.82 0)
(-16856.3 -1097.41 0)
(1413.63 -1256.13 0)
(1094.82 -1258.67 0)
(1158.04 -1280.1 0)
(1326.45 -1311.79 0)
(1498.33 -1394.55 0)
(1669.88 -1473.04 0)
(1810.89 -1573.97 0)
(1937.28 -1676.37 0)
(2034.46 -1788.15 0)
(2088.8 -1903.27 0)
(2049.55 -2022.44 0)
(1820.55 -2147.32 0)
(1306.44 -2276.74 0)
(638.636 -2387.54 0)
(171.623 -2441.52 0)
(18.7465 -2451.21 0)
(0.562571 -2451.65 0)
(0.00311245 -2451.65 0)
(-0.00311364 -2451.65 0)
(-0.562739 -2451.65 0)
(-18.7504 -2451.21 0)
(-171.643 -2441.52 0)
(-638.649 -2387.54 0)
(-1306.31 -2276.84 0)
(-1820.1 -2147.75 0)
(-2048.63 -2023.42 0)
(-2087.37 -1904.93 0)
(-2032.57 -1790.46 0)
(-1935.01 -1679.09 0)
(-1808.5 -1576.87 0)
(-1667.47 -1475.37 0)
(-1496.21 -1396.14 0)
(-1324.85 -1310.79 0)
(-1157.88 -1276.49 0)
(-1098.24 -1251.05 0)
(-1419.59 -1239.9 0)
(16811.6 -1076.88 0)
(-24452.9 -6768.91 0)
(20698.2 -5710.58 0)
(-14157.3 -917.693 0)
(1337.9 -1079.51 0)
(1086.01 -1110.33 0)
(1144.15 -1131.43 0)
(1294.97 -1148.04 0)
(1434.81 -1190.27 0)
(1600.2 -1244.74 0)
(1728.36 -1304.5 0)
(1841.78 -1378.64 0)
(1933.87 -1463.53 0)
(1982.84 -1566.21 0)
(1940.52 -1685.11 0)
(1706.31 -1813.18 0)
(1197.91 -1939.7 0)
(564.397 -2040.74 0)
(143.343 -2086.46 0)
(14.3963 -2094.01 0)
(0.385117 -2094.32 0)
(0.0018466 -2094.32 0)
(-0.00184681 -2094.32 0)
(-0.38516 -2094.32 0)
(-14.3977 -2094.01 0)
(-143.355 -2086.46 0)
(-564.425 -2040.73 0)
(-1197.91 -1939.7 0)
(-1706.19 -1813.32 0)
(-1940.15 -1685.59 0)
(-1982.13 -1567.23 0)
(-1932.77 -1465.26 0)
(-1840.33 -1381.2 0)
(-1726.65 -1307.96 0)
(-1598.24 -1248.96 0)
(-1432.83 -1195.21 0)
(-1293.01 -1153.36 0)
(-1142.98 -1136.88 0)
(-1086.5 -1114.86 0)
(-1340.15 -1081.08 0)
(14151.4 -916.724 0)
(-20702 -5665.75 0)
(18104 -4670.29 0)
(-12393.6 -790.295 0)
(1228 -959.093 0)
(1044.79 -1035.35 0)
(1121.7 -1081.04 0)
(1269.76 -1099.62 0)
(1405.15 -1123.53 0)
(1559.8 -1144.02 0)
(1681.86 -1166.98 0)
(1784.03 -1195.75 0)
(1853.71 -1244.54 0)
(1875.28 -1317.68 0)
(1811.57 -1418.29 0)
(1575.22 -1543.64 0)
(1087.15 -1679.85 0)
(497.212 -1789.6 0)
(120.29 -1835.48 0)
(11.1799 -1842.11 0)
(0.267528 -1842.34 0)
(0.00111126 -1842.34 0)
(-0.00111124 -1842.34 0)
(-0.26753 -1842.34 0)
(-11.1802 -1842.11 0)
(-120.294 -1835.48 0)
(-497.228 -1789.59 0)
(-1087.18 -1679.83 0)
(-1575.23 -1543.65 0)
(-1811.49 -1418.43 0)
(-1875.06 -1318.09 0)
(-1853.3 -1245.35 0)
(-1783.42 -1197.14 0)
(-1681.07 -1169.03 0)
(-1558.82 -1146.78 0)
(-1404.09 -1127.12 0)
(-1268.64 -1103.86 0)
(-1120.78 -1086.04 0)
(-1044.48 -1040.2 0)
(-1228.66 -963.236 0)
(12393.6 -793.066 0)
(-18109.8 -4668.01 0)
(15436.2 -3685.19 0)
(-10581.1 -963.078 0)
(1101.75 -1095.86 0)
(968.492 -1229.73 0)
(1082.22 -1350.43 0)
(1254.03 -1440.82 0)
(1392.02 -1535.32 0)
(1558.33 -1637.27 0)
(1678.51 -1734.59 0)
(1767.04 -1836.47 0)
(1816.37 -1934.62 0)
(1815.4 -2030.24 0)
(1722.79 -2135.4 0)
(1454.27 -2270.43 0)
(960.894 -2432.3 0)
(414.427 -2563.88 0)
(92.7401 -2614.35 0)
(7.78406 -2620.7 0)
(0.164569 -2620.88 0)
(0.000594268 -2620.88 0)
(-0.000594247 -2620.88 0)
(-0.164566 -2620.88 0)
(-7.78404 -2620.7 0)
(-92.7411 -2614.35 0)
(-414.435 -2563.87 0)
(-960.916 -2432.29 0)
(-1454.3 -2270.41 0)
(-1722.79 -2135.4 0)
(-1815.35 -2030.33 0)
(-1816.22 -1934.88 0)
(-1766.78 -1836.98 0)
(-1678.13 -1735.43 0)
(-1557.86 -1638.47 0)
(-1391.47 -1536.99 0)
(-1253.42 -1442.88 0)
(-1081.64 -1352.95 0)
(-968.159 -1232.36 0)
(-1102 -1098.33 0)
(10581.3 -964.94 0)
(-15439.5 -3686.79 0)
(13624.7 87076.2 0)
(-9898.43 10593.7 0)
(971.048 11371.7 0)
(799.465 13419 0)
(918.278 15395.9 0)
(1091.59 18401.9 0)
(1215.84 21431.2 0)
(1367.78 25133.5 0)
(1489.9 28842.8 0)
(1591.28 33141.9 0)
(1666.99 37404 0)
(1681.8 41831.3 0)
(1580.11 45859.6 0)
(1289.11 48885.5 0)
(804.377 50346.7 0)
(321.781 50633.1 0)
(65.5339 50620.6 0)
(4.88804 50615.4 0)
(0.0896269 50615.3 0)
(0.000274585 50615.3 0)
(-0.000274573 50615.3 0)
(-0.089624 50615.3 0)
(-4.88797 50615.4 0)
(-65.5338 50620.6 0)
(-321.783 50633.1 0)
(-804.39 50346.7 0)
(-1289.14 48885.5 0)
(-1580.14 45859.6 0)
(-1681.82 41831.3 0)
(-1666.98 37403.9 0)
(-1591.23 33141.6 0)
(-1489.78 28842.3 0)
(-1367.6 25132.6 0)
(-1215.6 21430 0)
(-1091.3 18400.3 0)
(-917.922 15394 0)
(-799.114 13416.9 0)
(-970.959 11369.6 0)
(9899.3 10592 0)
(-13627.2 87074.4 0)
(109555 -113389 0)
(-83532.7 -14438.1 0)
(3824.31 -16432.5 0)
(4846.33 -19414.5 0)
(5883.91 -22291.4 0)
(7069.84 -26473.3 0)
(7878.78 -30760.8 0)
(8700.49 -35911.1 0)
(9395.76 -41209 0)
(10016.9 -47207.6 0)
(10189.7 -53255.2 0)
(9963.46 -59511.7 0)
(8520.5 -65339.9 0)
(5778.19 -69993.5 0)
(2644.99 -72673.9 0)
(678.42 -73573 0)
(75.6824 -73711.9 0)
(2.65051 -73719.6 0)
(0.0195758 -73719.7 0)
(1.49176e-05 -73719.7 0)
(-1.49228e-05 -73719.7 0)
(-0.019575 -73719.7 0)
(-2.65045 -73719.6 0)
(-75.6815 -73711.9 0)
(-678.416 -73573 0)
(-2644.98 -72673.9 0)
(-5778.2 -69993.5 0)
(-8520.54 -65339.9 0)
(-9963.54 -59511.7 0)
(-10189.9 -53255.1 0)
(-10017.1 -47207.4 0)
(-9395.93 -41208.7 0)
(-8700.66 -35910.9 0)
(-7878.91 -30760.5 0)
(-7069.91 -26473.2 0)
(-5883.89 -22291.4 0)
(-4846.18 -19414.7 0)
(-3824.11 -16433 0)
(83533.2 -14438.7 0)
(-109554 -113391 0)
(109555 113389 0)
(-83532.7 14438.1 0)
(3824.31 16432.5 0)
(4846.33 19414.5 0)
(5883.91 22291.4 0)
(7069.84 26473.3 0)
(7878.78 30760.8 0)
(8700.49 35911.1 0)
(9395.76 41209 0)
(10016.9 47207.6 0)
(10189.7 53255.2 0)
(9963.46 59511.7 0)
(8520.5 65339.9 0)
(5778.19 69993.5 0)
(2644.99 72673.9 0)
(678.42 73573 0)
(75.6824 73711.9 0)
(2.65051 73719.6 0)
(0.0195758 73719.7 0)
(1.49084e-05 73719.7 0)
(-1.49304e-05 73719.7 0)
(-0.019575 73719.7 0)
(-2.65045 73719.6 0)
(-75.6815 73711.9 0)
(-678.416 73573 0)
(-2644.98 72673.9 0)
(-5778.2 69993.5 0)
(-8520.54 65339.9 0)
(-9963.54 59511.7 0)
(-10189.9 53255.1 0)
(-10017.1 47207.4 0)
(-9395.93 41208.7 0)
(-8700.66 35910.9 0)
(-7878.91 30760.5 0)
(-7069.91 26473.2 0)
(-5883.89 22291.4 0)
(-4846.18 19414.7 0)
(-3824.11 16433 0)
(83533.2 14438.7 0)
(-109554 113391 0)
(13624.7 -87076.2 0)
(-9898.43 -10593.7 0)
(971.048 -11371.7 0)
(799.465 -13419 0)
(918.278 -15395.9 0)
(1091.59 -18401.9 0)
(1215.84 -21431.2 0)
(1367.78 -25133.5 0)
(1489.9 -28842.8 0)
(1591.28 -33141.9 0)
(1666.99 -37404 0)
(1681.8 -41831.3 0)
(1580.11 -45859.6 0)
(1289.11 -48885.5 0)
(804.377 -50346.7 0)
(321.781 -50633.1 0)
(65.5339 -50620.6 0)
(4.88804 -50615.4 0)
(0.0896269 -50615.3 0)
(0.000274583 -50615.3 0)
(-0.000274574 -50615.3 0)
(-0.089624 -50615.3 0)
(-4.88797 -50615.4 0)
(-65.5338 -50620.6 0)
(-321.783 -50633.1 0)
(-804.39 -50346.7 0)
(-1289.14 -48885.5 0)
(-1580.14 -45859.6 0)
(-1681.82 -41831.3 0)
(-1666.98 -37403.9 0)
(-1591.23 -33141.6 0)
(-1489.78 -28842.3 0)
(-1367.6 -25132.6 0)
(-1215.6 -21430 0)
(-1091.3 -18400.3 0)
(-917.922 -15394 0)
(-799.114 -13416.9 0)
(-970.959 -11369.6 0)
(9899.3 -10592 0)
(-13627.2 -87074.4 0)
(15436.2 3685.19 0)
(-10581.1 963.078 0)
(1101.75 1095.86 0)
(968.492 1229.73 0)
(1082.22 1350.43 0)
(1254.03 1440.82 0)
(1392.02 1535.32 0)
(1558.33 1637.27 0)
(1678.51 1734.59 0)
(1767.04 1836.47 0)
(1816.37 1934.62 0)
(1815.4 2030.24 0)
(1722.79 2135.4 0)
(1454.27 2270.43 0)
(960.894 2432.3 0)
(414.427 2563.88 0)
(92.7401 2614.35 0)
(7.78406 2620.7 0)
(0.164569 2620.88 0)
(0.000594266 2620.88 0)
(-0.000594247 2620.88 0)
(-0.164566 2620.88 0)
(-7.78404 2620.7 0)
(-92.7411 2614.35 0)
(-414.435 2563.87 0)
(-960.916 2432.29 0)
(-1454.3 2270.41 0)
(-1722.79 2135.4 0)
(-1815.35 2030.33 0)
(-1816.22 1934.88 0)
(-1766.78 1836.98 0)
(-1678.13 1735.43 0)
(-1557.86 1638.47 0)
(-1391.47 1536.99 0)
(-1253.42 1442.88 0)
(-1081.64 1352.95 0)
(-968.159 1232.36 0)
(-1102 1098.33 0)
(10581.3 964.94 0)
(-15439.5 3686.79 0)
(18104 4670.29 0)
(-12393.6 790.295 0)
(1228 959.093 0)
(1044.79 1035.35 0)
(1121.7 1081.04 0)
(1269.76 1099.62 0)
(1405.15 1123.53 0)
(1559.8 1144.02 0)
(1681.86 1166.98 0)
(1784.03 1195.75 0)
(1853.71 1244.54 0)
(1875.28 1317.68 0)
(1811.57 1418.29 0)
(1575.22 1543.64 0)
(1087.15 1679.85 0)
(497.212 1789.6 0)
(120.29 1835.48 0)
(11.1799 1842.11 0)
(0.267528 1842.34 0)
(0.00111126 1842.34 0)
(-0.00111124 1842.34 0)
(-0.26753 1842.34 0)
(-11.1802 1842.11 0)
(-120.294 1835.48 0)
(-497.228 1789.59 0)
(-1087.18 1679.83 0)
(-1575.23 1543.65 0)
(-1811.49 1418.43 0)
(-1875.06 1318.09 0)
(-1853.3 1245.35 0)
(-1783.42 1197.14 0)
(-1681.07 1169.03 0)
(-1558.82 1146.78 0)
(-1404.09 1127.12 0)
(-1268.64 1103.86 0)
(-1120.78 1086.04 0)
(-1044.48 1040.2 0)
(-1228.66 963.236 0)
(12393.6 793.066 0)
(-18109.8 4668.01 0)
(20698.2 5710.58 0)
(-14157.3 917.693 0)
(1337.9 1079.51 0)
(1086.01 1110.33 0)
(1144.15 1131.43 0)
(1294.97 1148.04 0)
(1434.81 1190.27 0)
(1600.2 1244.74 0)
(1728.36 1304.5 0)
(1841.78 1378.64 0)
(1933.87 1463.53 0)
(1982.84 1566.21 0)
(1940.52 1685.11 0)
(1706.31 1813.18 0)
(1197.91 1939.7 0)
(564.397 2040.74 0)
(143.343 2086.46 0)
(14.3963 2094.01 0)
(0.385117 2094.32 0)
(0.0018466 2094.32 0)
(-0.00184681 2094.32 0)
(-0.38516 2094.32 0)
(-14.3977 2094.01 0)
(-143.355 2086.46 0)
(-564.425 2040.73 0)
(-1197.91 1939.7 0)
(-1706.19 1813.32 0)
(-1940.15 1685.59 0)
(-1982.13 1567.23 0)
(-1932.77 1465.26 0)
(-1840.33 1381.2 0)
(-1726.65 1307.96 0)
(-1598.24 1248.96 0)
(-1432.83 1195.21 0)
(-1293.01 1153.36 0)
(-1142.98 1136.88 0)
(-1086.5 1114.86 0)
(-1340.15 1081.08 0)
(14151.4 916.724 0)
(-20702 5665.75 0)
(24491.2 6921.82 0)
(-16856.3 1097.41 0)
(1413.63 1256.13 0)
(1094.82 1258.67 0)
(1158.04 1280.1 0)
(1326.45 1311.79 0)
(1498.33 1394.55 0)
(1669.88 1473.04 0)
(1810.89 1573.97 0)
(1937.28 1676.37 0)
(2034.46 1788.15 0)
(2088.8 1903.27 0)
(2049.55 2022.44 0)
(1820.55 2147.32 0)
(1306.44 2276.74 0)
(638.636 2387.54 0)
(171.623 2441.52 0)
(18.7465 2451.21 0)
(0.562571 2451.65 0)
(0.00311245 2451.65 0)
(-0.00311365 2451.65 0)
(-0.562739 2451.65 0)
(-18.7504 2451.21 0)
(-171.643 2441.52 0)
(-638.649 2387.54 0)
(-1306.31 2276.84 0)
(-1820.1 2147.75 0)
(-2048.63 2023.42 0)
(-2087.37 1904.93 0)
(-2032.57 1790.46 0)
(-1935.01 1679.09 0)
(-1808.5 1576.87 0)
(-1667.47 1475.37 0)
(-1496.21 1396.14 0)
(-1324.85 1310.79 0)
(-1157.88 1276.49 0)
(-1098.24 1251.05 0)