/*--------------------------------*- C++ -*----------------------------------*\
| =========                 |                                                 |
| \\      /  F ield         | OpenFOAM: The Open Source CFD Toolbox           |
|  \\    /   O peration     | Version:  v1912                                 |
|   \\  /    A nd           | Website:  www.openfoam.com                      |
|    \\/     M anipulation  |                                                 |
\*---------------------------------------------------------------------------*/
FoamFile
{
    version     2.0;
    format      ascii;
    class       volScalarField;
    location    "1.88";
    object      Ma;
}
// * * * * * * * * * * * * * * * * * * * * * * * * * * * * * * * * * * * * * //

dimensions      [0 0 0 0 0 0 0];


internalField   nonuniform List<scalar> 
1900
(
0.0759315
0.0425553
0.0487297
0.0493124
0.0500704
0.0503939
0.0509137
0.0526102
0.0549583
0.0510597
0.0759347
0.0425567
0.0487485
0.0493371
0.0500925
0.0503232
0.0505024
0.0517556
0.0548678
0.058774
0.0759367
0.0425581
0.0487555
0.0493455
0.0500798
0.0502436
0.0503483
0.0516457
0.0552079
0.0620089
0.0759347
0.0425567
0.0487485
0.0493371
0.0500925
0.0503232
0.0505024
0.0517556
0.0548678
0.058774
0.0759315
0.0425553
0.0487297
0.0493124
0.0500704
0.0503939
0.0509137
0.0526102
0.0549583
0.0510597
0.0587857
0.0786548
0.101445
0.136638
0.228516
0.0714508
0.0904791
0.118301
0.169381
0.261899
0.0745818
0.0923128
0.121699
0.17622
0.267613
0.0714508
0.0904791
0.118301
0.169381
0.261899
0.0587857
0.0786548
0.101445
0.136638
0.228516
0.26489
0.228118
0.21197
0.214001
0.312273
0.27623
0.23614
0.206054
0.175401
0.17194
0.282736
0.238842
0.200736
0.14684
0.0427195
0.27623
0.23614
0.206054
0.175401
0.17194
0.26489
0.228118
0.21197
0.214001
0.312273
0.563918
0.192584
0.2613
0.313727
0.353144
0.366059
0.355499
0.327849
0.291865
0.248752
0.202548
0.155705
0.110272
0.0684685
0.0337563
0.0109494
0.00171606
8.67114e-05
9.26285e-07
3.06518e-08
3.0653e-08
1.17886e-06
0.000103047
0.00194362
0.0120152
0.0363712
0.0731484
0.117581
0.166549
0.218513
0.272628
0.328258
0.384738
0.441116
0.495756
0.545895
0.590217
0.631392
0.764579
1.58179
0.120367
0.212716
0.13115
0.271051
0.346967
0.363763
0.355694
0.327895
0.291712
0.24856
0.202416
0.155619
0.110212
0.0684238
0.0337268
0.0109361
0.00171326
8.66749e-05
9.31176e-07
1.13508e-08
1.14143e-08
1.17852e-06
0.000103047
0.00194362
0.0120152
0.0363712
0.0731484
0.117581
0.166549
0.218513
0.272628
0.328258
0.384738
0.441116
0.495756
0.545895
0.590217
0.631392
0.764579
1.58179
0.195705
0.282436
0.0202614
0.249502
0.345243
0.363202
0.355806
0.327836
0.291645
0.248498
0.202377
0.155594
0.110195
0.0684112
0.0337174
0.0109311
0.00171209
8.6631e-05
9.32186e-07
1.29028e-09
1.83764e-09
1.17847e-06
0.000103047
0.00194362
0.0120152
0.0363712
0.0731484
0.117581
0.166549
0.218513
0.272628
0.328258
0.384738
0.441116
0.495756
0.545895
0.590217
0.631392
0.764579
1.58179
0.120367
0.212716
0.13115
0.271051
0.346967
0.363763
0.355694
0.327895
0.291712
0.24856
0.202416
0.155619
0.110212
0.0684238
0.0337268
0.0109361
0.00171326
8.66749e-05
9.31181e-07
1.1351e-08
1.14121e-08
1.17851e-06
0.000103047
0.00194362
0.0120152
0.0363712
0.0731484
0.117581
0.166549
0.218513
0.272628
0.328258
0.384738
0.441116
0.495756
0.545895
0.590217
0.631392
0.764579
1.58179
0.563918
0.192584
0.2613
0.313727
0.353144
0.366059
0.355499
0.327849
0.291865
0.248752
0.202548
0.155705
0.110272
0.0684685
0.0337563
0.0109494
0.00171606
8.67114e-05
9.26294e-07
3.06522e-08
3.06498e-08
1.17885e-06
0.000103047
0.00194362
0.0120152
0.0363712
0.0731484
0.117581
0.166549
0.218513
0.272628
0.328258
0.384738
0.441116
0.495756
0.545895
0.590217
0.631392
0.764579
1.58179
1.3682
0.526468
0.430342
0.378194
0.37343
0.373626
0.357694
0.329267
0.29272
0.249367
0.20295
0.155966
0.110449
0.0686008
0.0338606
0.011011
0.00173282
8.83932e-05
9.72002e-07
9.19415e-08
9.19088e-08
1.18206e-06
0.000103047
0.00194362
0.0120152
0.0363712
0.0731484
0.117581
0.166549
0.218513
0.272628
0.328258
0.384738
0.441116
0.495756
0.545895
0.590217
0.631392
0.764579
1.58179
1.6143
0.716951
0.552458
0.448042
0.411746
0.389088
0.367076
0.334521
0.295501
0.250982
0.203956
0.156652
0.110962
0.0690018
0.034147
0.0111613
0.00177434
9.31895e-05
1.55271e-05
1.54778e-05
1.54778e-05
1.55225e-05
0.000104202
0.00194367
0.0120152
0.0363711
0.0731483
0.117581
0.166549
0.218512
0.272628
0.328258
0.384737
0.441116
0.495756
0.545895
0.590217
0.631392
0.764579
1.58179
1.62408
0.750209
0.585893
0.486506
0.442412
0.410002
0.379132
0.34206
0.299578
0.25342
0.205531
0.157796
0.111857
0.0696995
0.0346281
0.011411
0.00192236
0.000574598
0.000564816
0.000564794
0.000564794
0.000564795
0.000574101
0.00202371
0.0120274
0.0363734
0.0731475
0.117579
0.166547
0.21851
0.272626
0.328257
0.384737
0.441115
0.495757
0.545896
0.590218
0.631389
0.764577
1.58179
1.61885
0.759628
0.60073
0.516036
0.468213
0.430662
0.392312
0.350718
0.30509
0.256973
0.207963
0.159566
0.113204
0.0707735
0.03561
0.0129248
0.00588481
0.00555749
0.00555544
0.00555543
0.00555543
0.00555543
0.00555628
0.00588282
0.0132215
0.0367644
0.0733213
0.11767
0.166599
0.218544
0.272652
0.32828
0.384761
0.441143
0.495791
0.545945
0.590261
0.631341
0.764537
1.58182
1.60544
0.760987
0.607401
0.536603
0.488868
0.448231
0.405175
0.35954
0.311147
0.261314
0.211378
0.162626
0.116385
0.0747412
0.0420451
0.0253386
0.0224895
0.0224011
0.0224005
0.0224005
0.0224005
0.0224005
0.0224004
0.0224781
0.0253621
0.0425627
0.0762868
0.119451
0.167795
0.219412
0.273323
0.32883
0.385236
0.441575
0.496224
0.546419
0.590691
0.631193
0.764362
1.58228
1.59407
0.759012
0.6126
0.552894
0.507161
0.46369
0.417671
0.369419
0.319295
0.268614
0.218671
0.170751
0.126531
0.0890518
0.063787
0.0541864
0.0529265
0.0528938
0.0528939
0.0528939
0.0528939
0.0528939
0.0528936
0.0529196
0.0541533
0.0638725
0.0897078
0.128231
0.173987
0.22406
0.276987
0.331838
0.387794
0.443837
0.498355
0.548534
0.592675
0.631558
0.764428
1.58486
1.59949
0.761503
0.619013
0.569398
0.526823
0.481268
0.43326
0.383125
0.332132
0.281655
0.233018
0.187729
0.147977
0.117222
0.0993492
0.093543
0.0928584
0.0928472
0.0928477
0.0928477
0.0928477
0.0928477
0.0928471
0.0928556
0.0935162
0.0992978
0.117334
0.148609
0.189287
0.235973
0.286603
0.339851
0.394664
0.449907
0.504002
0.553922
0.597861
0.634279
0.766315
1.59134
1.60369
0.768594
0.632253
0.588815
0.548333
0.501449
0.45223
0.401301
0.350585
0.301479
0.255438
0.214164
0.179927
0.155515
0.14262
0.138751
0.138333
0.138332
0.138332
0.138332
0.138332
0.138332
0.138332
0.138333
0.13874
0.142568
0.15544
0.179976
0.21459
0.256573
0.30371
0.354381
0.407274
0.461124
0.514379
0.563676
0.607093
0.641629
0.772326
1.60123
1.61419
0.78228
0.649833
0.610282
0.571374
0.523949
0.474388
0.423895
0.374559
0.327852
0.285245
0.248478
0.21948
0.200008
0.190306
0.187535
0.187257
0.18726
0.187261
0.187261
0.187261
0.187261
0.18726
0.187258
0.187535
0.190283
0.19993
0.219356
0.248395
0.28536
0.328378
0.37577
0.426153
0.478015
0.52999
0.578319
0.620702
0.654862
0.784084
1.61314
1.62503
0.800621
0.67123
0.634402
0.596085
0.548868
0.500077
0.450757
0.403767
0.360029
0.321251
0.288858
0.264308
0.248491
0.240897
0.238797
0.238597
0.238601
0.238601
0.238601
0.238601
0.238601
0.238601
0.238598
0.238802
0.240897
0.248458
0.264209
0.288685
0.321032
0.359844
0.403743
0.451077
0.500842
0.550873
0.597916
0.639535
0.674146
0.801266
1.62374
1.63753
0.823574
0.697988
0.66205
0.622271
0.577262
0.529015
0.482431
0.437668
0.397411
0.362307
0.333834
0.31285
0.299706
0.293544
0.291871
0.291711
0.291714
0.291715
0.291715
0.291715
0.291715
0.291714
0.291712
0.291875
0.293552
0.299706
0.312815
0.333727
0.362104
0.397117
0.4373
0.48208
0.528646
0.577403
0.621917
0.663829
0.699239
0.823703
1.63702
1.64464
0.85049
0.730584
0.692768
0.652014
0.608019
0.563353
0.517356
0.476521
0.438901
0.407363
0.382121
0.36394
0.35275
0.347582
0.346188
0.34605
0.34605
0.346051
0.346051
0.346051
0.346051
0.34605
0.34605
0.346191
0.347591
0.352764
0.363947
0.382096
0.407279
0.438725
0.476243
0.516941
0.562874
0.607489
0.651234
0.692924
0.730296
0.850069
1.64339
1.65911
0.881895
0.765446
0.72749
0.683192
0.64493
0.598094
0.558333
0.517859
0.484143
0.455115
0.432606
0.416534
0.406774
0.402303
0.401094
0.400965
0.400964
0.400964
0.400964
0.400964
0.400964
0.400964
0.400965
0.401095
0.402308
0.406788
0.416555
0.432627
0.45512
0.484106
0.517757
0.558145
0.597798
0.644544
0.682625
0.727284
0.764957
0.881414
1.65864
1.66086
0.913092
0.802771
0.762356
0.719774
0.678813
0.640706
0.597929
0.563397
0.530673
0.504501
0.483896
0.469426
0.460662
0.456657
0.45556
0.455432
0.455429
0.455429
0.455429
0.455429
0.455429
0.455429
0.455432
0.45556
0.456659
0.46067
0.469444
0.483927
0.50454
0.530711
0.563426
0.59791
0.640671
0.678641
0.719629
0.762224
0.802546
0.912885
1.66059
1.67534
0.951691
0.843526
0.804253
0.756137
0.722334
0.678603
0.64362
0.607771
0.578433
0.553617
0.534549
0.520981
0.512752
0.508968
0.507901
0.507763
0.507757
0.507757
0.507757
0.507757
0.507757
0.507757
0.507763
0.507901
0.508968
0.512755
0.520991
0.534571
0.553654
0.578487
0.607842
0.64369
0.678687
0.722372
0.756212
0.804294
0.84358
0.951711
1.67533
1.66906
0.978947
0.878393
0.838037
0.790923
0.75492
0.71763
0.680954
0.649682
0.621461
0.598618
0.580712
0.568175
0.560517
0.556892
0.555802
0.555635
0.555625
0.555625
0.555625
0.555625
0.555625
0.555625
0.555635
0.555802
0.556892
0.560517
0.568177
0.580721
0.598639
0.621499
0.649739
0.68103
0.717728
0.75503
0.791058
0.838169
0.87859
0.97912
1.66919
1.67032
1.02245
0.925049
0.886885
0.838066
0.801966
0.760221
0.724074
0.69025
0.661867
0.639144
0.622353
0.610577
0.603266
0.59985
0.598843
0.598693
0.598684
0.598683
0.598683
0.598683
0.598683
0.598684
0.598693
0.598843
0.59985
0.603265
0.610576
0.622355
0.639152
0.661883
0.690277
0.724114
0.760278
0.802031
0.838145
0.886961
0.925161
1.02256
1.67042
1.63658
1.04193
0.956156
0.923355
0.877118
0.840041
0.799781
0.761339
0.727477
0.697474
0.673986
0.656588
0.645613
0.640384
0.63897
0.639003
0.639114
0.639129
0.639129
0.639129
0.639129
0.639129
0.639129
0.639114
0.639003
0.63897
0.640384
0.645612
0.656587
0.673988
0.69748
0.727489
0.761362
0.79981
0.840086
0.877165
0.923416
0.956236
1.042
1.63663
1.69189
1.12681
1.04041
1.01995
0.976741
0.947616
0.909555
0.877408
0.846979
0.821453
0.800407
0.784873
0.775188
0.770827
0.769782
0.769872
0.769965
0.769975
0.769975
0.769975
0.769975
0.769975
0.769975
0.769965
0.769872
0.769782
0.770827
0.775188
0.784873
0.800407
0.821454
0.846984
0.877421
0.909575
0.947651
0.976788
1.02001
1.04049
1.12688
1.6919
2.28447
1.69528
1.63948
1.67302
1.67186
1.67803
1.66321
1.6611
1.64599
1.63877
1.62555
1.61436
1.603
1.59447
1.58993
1.58864
1.5885
1.5885
1.5885
1.5885
1.5885
1.5885
1.5885
1.5885
1.58864
1.58993
1.59447
1.603
1.61436
1.62555
1.63877
1.64599
1.6611
1.66322
1.67803
1.67186
1.67302
1.63948
1.69528
2.28447
2.28447
1.69528
1.63948
1.67302
1.67186
1.67803
1.66321
1.6611
1.64599
1.63877
1.62555
1.61436
1.603
1.59447
1.58993
1.58864
1.5885
1.5885
1.5885
1.5885
1.5885
1.5885
1.5885
1.5885
1.58864
1.58993
1.59447
1.603
1.61436
1.62555
1.63877
1.64599
1.6611
1.66322
1.67803
1.67186
1.67302
1.63948
1.69528
2.28447
1.69189
1.12681
1.04041
1.01995
0.976741
0.947616
0.909555
0.877408
0.846979
0.821453
0.800407
0.784873
0.775188
0.770827
0.769782
0.769872
0.769965
0.769975
0.769975
0.769975
0.769975
0.769975
0.769975
0.769965
0.769872
0.769782
0.770827
0.775188
0.784873
0.800407
0.821454
0.846984
0.877421
0.909575
0.947651
0.976788
1.02001
1.04049
1.12688
1.6919
1.63658
1.04193
0.956156
0.923355
0.877118
0.840041
0.799781
0.761339
0.727477
0.697474
0.673986
0.656588
0.645613
0.640384
0.63897
0.639003
0.639114
0.639129
0.639129
0.639129
0.639129
0.639129
0.639129
0.639114
0.639003
0.63897
0.640384
0.645612
0.656587
0.673988
0.69748
0.727489
0.761362
0.79981
0.840086
0.877165
0.923416
0.956236
1.042
1.63663
1.67032
1.02245
0.925049
0.886885
0.838066
0.801966
0.760221
0.724074
0.69025
0.661867
0.639144
0.622353
0.610577
0.603266
0.59985
0.598843
0.598693
0.598684
0.598683
0.598683
0.598683
0.598683
0.598684
0.598693
0.598843
0.59985
0.603265
0.610576
0.622355
0.639152
0.661883
0.690277
0.724114
0.760278
0.802031
0.838145
0.886961
0.925161
1.02256
1.67042
1.66906
0.978947
0.878393
0.838037
0.790923
0.75492
0.71763
0.680954
0.649682
0.621461
0.598618
0.580712
0.568175
0.560517
0.556892
0.555802
0.555635
0.555625
0.555625
0.555625
0.555625
0.555625
0.555625
0.555635
0.555802
0.556892
0.560517
0.568177
0.580721
0.598639
0.621499
0.649739
0.68103
0.717728
0.75503
0.791058
0.838169
0.87859
0.97912
1.66919
1.67534
0.951691
0.843526
0.804253
0.756137
0.722334
0.678603
0.64362
0.607771
0.578433
0.553617
0.534549
0.520981
0.512752
0.508968
0.507901
0.507763
0.507757
0.507757
0.507757
0.507757
0.507757
0.507757
0.507763
0.507901
0.508968
0.512755
0.520991
0.534571
0.553654
0.578487
0.607842
0.64369
0.678687
0.722372
0.756212
0.804294
0.84358
0.951711
1.67533
1.66086
0.913092
0.802771
0.762356
0.719774
0.678813
0.640706
0.597929
0.563397
0.530673
0.504501
0.483896
0.469426
0.460662
0.456657
0.45556
0.455432
0.455429
0.455429
0.455429
0.455429
0.455429
0.455429
0.455432
0.45556
0.456659
0.46067
0.469444
0.483927
0.50454
0.530711
0.563426
0.59791
0.640671
0.678641
0.719629
0.762224
0.802546
0.912885
1.66059
1.65911
0.881895
0.765446
0.72749
0.683192
0.64493
0.598094
0.558333
0.517859
0.484143
0.455115
0.432606
0.416534
0.406774
0.402303
0.401094
0.400965
0.400964
0.400964
0.400964
0.400964
0.400964
0.400964
0.400965
0.401095
0.402308
0.406788
0.416555
0.432627
0.45512
0.484106
0.517757
0.558145
0.597798
0.644544
0.682625
0.727284
0.764957
0.881414
1.65864
1.64464
0.85049
0.730584
0.692768
0.652014
0.608019
0.563353
0.517356
0.476521
0.438901
0.407363
0.382121
0.36394
0.35275
0.347582
0.346188
0.34605
0.34605
0.346051
0.346051
0.346051
0.346051
0.34605
0.34605
0.346191
0.347591
0.352764
0.363947
0.382096
0.407279
0.438725
0.476243
0.516941
0.562874
0.607489
0.651234
0.692924
0.730296
0.850069
1.64339
1.63753
0.823574
0.697988
0.66205
0.622271
0.577262
0.529015
0.482431
0.437668
0.397411
0.362307
0.333834
0.31285
0.299706
0.293544
0.291871
0.291711
0.291714
0.291715
0.291715
0.291715
0.291715
0.291714
0.291712
0.291875
0.293552
0.299706
0.312815
0.333727
0.362104
0.397117
0.4373
0.48208
0.528646
0.577403
0.621917
0.663829
0.699239
0.823703
1.63702
1.62503
0.800621
0.67123
0.634402
0.596085
0.548868
0.500077
0.450757
0.403767
0.360029
0.321251
0.288858
0.264308
0.248491
0.240897
0.238797
0.238597
0.238601
0.238601
0.238601
0.238601
0.238601
0.238601
0.238598
0.238802
0.240897
0.248458
0.264209
0.288685
0.321032
0.359844
0.403743
0.451077
0.500842
0.550873
0.597916
0.639535
0.674146
0.801266
1.62374
1.61419
0.78228
0.649833
0.610282
0.571374
0.523949
0.474388
0.423895
0.374559
0.327852
0.285245
0.248478
0.21948
0.200008
0.190306
0.187535
0.187257
0.18726
0.187261
0.187261
0.187261
0.187261
0.18726
0.187258
0.187535
0.190283
0.19993
0.219356
0.248395
0.28536
0.328378
0.37577
0.426153
0.478015
0.52999
0.578319
0.620702
0.654862
0.784084
1.61314
1.60369
0.768594
0.632253
0.588815
0.548333
0.501449
0.45223
0.401301
0.350585
0.301479
0.255438
0.214164
0.179927
0.155515
0.14262
0.138751
0.138333
0.138332
0.138332
0.138332
0.138332
0.138332
0.138332
0.138333
0.13874
0.142568
0.15544
0.179976
0.21459
0.256573
0.30371
0.354381
0.407274
0.461124
0.514379
0.563676
0.607093
0.641629
0.772326
1.60123
1.59949
0.761503
0.619013
0.569398
0.526823
0.481268
0.43326
0.383125
0.332132
0.281655
0.233018
0.187729
0.147977
0.117222
0.0993492
0.093543
0.0928584
0.0928472
0.0928477
0.0928477
0.0928477
0.0928477
0.0928471
0.0928556
0.0935162
0.0992978
0.117334
0.148609
0.189287
0.235973
0.286603
0.339851
0.394664
0.449907
0.504002
0.553922
0.597861
0.634279
0.766315
1.59134
1.59407
0.759012
0.6126
0.552894
0.507161
0.46369
0.417671
0.369419
0.319295
0.268614
0.218671
0.170751
0.126531
0.0890518
0.063787
0.0541864
0.0529265
0.0528938
0.0528939
0.0528939
0.0528939
0.0528939
0.0528936
0.0529196
0.0541533
0.0638725
0.0897078
0.128231
0.173987
0.22406
0.276987
0.331838
0.387794
0.443837
0.498355
0.548534
0.592675
0.631558
0.764428
1.58486
1.60544
0.760987
0.607401
0.536603
0.488868
0.448231
0.405175
0.35954
0.311147
0.261314
0.211378
0.162626
0.116385
0.0747412
0.0420451
0.0253386
0.0224895
0.0224011
0.0224005
0.0224005
0.0224005
0.0224005
0.0224004
0.0224781
0.0253621
0.0425627
0.0762868
0.119451
0.167795
0.219412
0.273323
0.32883
0.385236
0.441575
0.496224
0.546419
0.590691
0.631193
0.764362
1.58228
1.61885
0.759628
0.60073
0.516036
0.468213
0.430662
0.392312
0.350718
0.30509
0.256973
0.207963
0.159566
0.113204
0.0707735
0.03561
0.0129248
0.00588481
0.00555749
0.00555544
0.00555543
0.00555543
0.00555543
0.00555628
0.00588282
0.0132215
0.0367644
0.0733213
0.11767
0.166599
0.218544
0.272652
0.32828
0.384761
0.441143
0.495791
0.545945
0.590261
0.631341
0.764537
1.58182
1.62408
0.750209
0.585893
0.486506
0.442412
0.410002
0.379132
0.34206
0.299578
0.25342
0.205531
0.157796
0.111857
0.0696995
0.0346281
0.011411
0.00192236
0.000574598
0.000564816
0.000564794
0.000564794
0.000564795
0.000574101
0.00202371
0.0120274
0.0363734
0.0731475
0.117579
0.166547
0.21851
0.272626
0.328257
0.384737
0.441115
0.495757
0.545896
0.590218
0.631389
0.764577
1.58179
1.6143
0.716951
0.552458
0.448042
0.411746
0.389088
0.367076
0.334521
0.295501
0.250982
0.203956
0.156652
0.110962
0.0690018
0.034147
0.0111613
0.00177434
9.31895e-05
1.55271e-05
1.54778e-05
1.54777e-05
1.55225e-05
0.000104202
0.00194367
0.0120152
0.0363711
0.0731483
0.117581
0.166549
0.218512
0.272628
0.328258
0.384737
0.441116
0.495756
0.545895
0.590217
0.631392
0.764579
1.58179
1.3682
0.526468
0.430342
0.378194
0.37343
0.373626
0.357694
0.329267
0.29272
0.249367
0.20295
0.155966
0.110449
0.0686008
0.0338606
0.011011
0.00173282
8.83932e-05
9.72011e-07
9.19414e-08
9.19114e-08
1.18206e-06
0.000103047
0.00194362
0.0120152
0.0363712
0.0731484
0.117581
0.166549
0.218513
0.272628
0.328258
0.384738
0.441116
0.495756
0.545895
0.590217
0.631392
0.764579
1.58179
)
;

boundaryField
{
    inlet
    {
        type            calculated;
        value           uniform 0;
    }
    outlet
    {
        type            calculated;
        value           nonuniform List<scalar> 
165
(
1.3682
1.6143
1.62408
1.61885
1.60544
1.59407
1.59949
1.60369
1.61419
1.62503
1.63753
1.64464
1.65911
1.66086
1.67534
1.66906
1.67032
1.63658
1.69189
2.28447
2.28447
1.69528
1.63948
1.67302
1.67186
1.67803
1.66321
1.6611
1.64599
1.63877
1.62555
1.61436
1.603
1.59447
1.58993
1.58864
1.5885
1.5885
1.5885
1.5885
1.5885
1.5885
1.5885
1.5885
1.58864
1.58993
1.59447
1.603
1.61436
1.62555
1.63877
1.64599
1.6611
1.66322
1.67803
1.67186
1.67302
1.63948
1.69528
2.28447
1.58179
1.58179
1.58179
1.58182
1.58228
1.58486
1.59134
1.60123
1.61314
1.62374
1.63702
1.64339
1.65864
1.66059
1.67533
1.66919
1.67042
1.63663
1.6919
2.28447
1.58179
1.58179
1.58179
1.58179
1.58179
2.28447
1.6919
1.63663
1.67042
1.66919
1.67533
1.66059
1.65864
1.64339
1.63702
1.62374
1.61314
1.60123
1.59134
1.58486
1.58228
1.58182
1.58179
1.58179
1.58179
2.28447
1.69528
1.63948
1.67302
1.67186
1.67803
1.66321
1.6611
1.64599
1.63877
1.62555
1.61436
1.603
1.59447
1.58993
1.58864
1.5885
1.5885
1.5885
1.5885
1.5885
1.5885
1.5885
1.5885
1.58864
1.58993
1.59447
1.603
1.61436
1.62555
1.63877
1.64599
1.6611
1.66322
1.67803
1.67186
1.67302
1.63948
1.69528
2.28447
2.28447
1.69189
1.63658
1.67032
1.66906
1.67534
1.66086
1.65911
1.64464
1.63753
1.62503
1.61419
1.60369
1.59949
1.59407
1.60544
1.61885
1.62408
1.6143
1.3682
)
;
    }
    obstacle
    {
        type            calculated;
        value           nonuniform List<scalar> 
40
(
0.0759315
0.0425553
0.0487297
0.0493124
0.0500704
0.0503938
0.0509134
0.0526097
0.0549168
0.0502553
0.0759315
0.0425553
0.0487297
0.0493124
0.0500704
0.0503938
0.0509134
0.0526097
0.0549168
0.0502553
0.0582228
0.0778833
0.101087
0.13618
0.216573
0.0582228
0.0778833
0.101087
0.13618
0.216573
0.264322
0.228044
0.211955
0.213277
0.305319
0.264322
0.228044
0.211955
0.213277
0.305319
)
;
    }
    empty
    {
        type            empty;
    }
}


// ************************************************************************* //
