/*--------------------------------*- C++ -*----------------------------------*\
| =========                 |                                                 |
| \\      /  F ield         | OpenFOAM: The Open Source CFD Toolbox           |
|  \\    /   O peration     | Version:  v1912                                 |
|   \\  /    A nd           | Website:  www.openfoam.com                      |
|    \\/     M anipulation  |                                                 |
\*---------------------------------------------------------------------------*/
FoamFile
{
    version     2.0;
    format      ascii;
    class       volVectorField;
    location    "0.92";
    object      grad(rho);
}
// * * * * * * * * * * * * * * * * * * * * * * * * * * * * * * * * * * * * * //

dimensions      [1 -4 0 0 0 0 0];


internalField   nonuniform List<vector> 
1900
(
(-0.000518949 -6.13465e-07 0)
(-0.00543259 -1.70234e-05 0)
(-0.0154154 -2.5031e-05 0)
(-0.0157671 0.000184151 0)
(0.0288607 0.000364917 0)
(4.57527 0.00184045 0)
(100.236 0.236446 0)
(619.39 7.77153 0)
(1585.4 78.2363 0)
(1756.11 304.001 0)
(-0.000536586 -1.13252e-06 0)
(-0.005457 -3.10948e-05 0)
(-0.0152143 -4.48903e-05 0)
(-0.0153772 0.000322882 0)
(0.030517 0.000636535 0)
(4.81136 0.00627415 0)
(108.006 0.741967 0)
(697.39 18.214 0)
(1881.63 131.395 0)
(2646.23 359.817 0)
(-0.000551176 2.02505e-09 0)
(-0.00547634 1.19016e-09 0)
(-0.0150615 1.07647e-08 0)
(-0.0150857 -7.10543e-11 0)
(0.034812 -1.11555e-08 0)
(5.3166 -1.36069e-08 0)
(118.444 -2.34479e-09 0)
(750.043 6.71463e-09 0)
(1927 2.70006e-09 0)
(2553.33 2.8777e-09 0)
(-0.000536582 1.14008e-06 0)
(-0.00545699 3.1097e-05 0)
(-0.0152143 4.49026e-05 0)
(-0.0153772 -0.000322884 0)
(0.030517 -0.000636546 0)
(4.81136 -0.00627416 0)
(108.006 -0.741967 0)
(697.39 -18.214 0)
(1881.63 -131.395 0)
(2646.23 -359.817 0)
(-0.000518939 6.19043e-07 0)
(-0.00543258 1.70244e-05 0)
(-0.0154154 2.50326e-05 0)
(-0.0157672 -0.000184153 0)
(0.0288607 -0.000364917 0)
(4.57527 -0.00184045 0)
(100.236 -0.236446 0)
(619.39 -7.77153 0)
(1585.4 -78.2363 0)
(1756.11 -304.001 0)
(1355.87 901.852 1.41065e-11)
(1327.63 1162.21 -1.74289e-11)
(855.511 1314.35 -2.21936e-11)
(-2203.94 1287.26 0)
(1144.76 5832.35 -9.29909e-11)
(2144.08 880.33 1.42695e-11)
(1298.26 997.745 1.74289e-11)
(376.636 1083.5 2.21936e-11)
(-1000.94 929.97 0)
(1035.18 5482.69 0)
(2241.61 6.43608e-10 0)
(1576.56 7.01193e-10 0)
(880.209 -3.35534e-09 0)
(-386.001 -2.55688e-09 0)
(3641.53 -5.39251e-09 0)
(2144.08 -880.33 1.42695e-11)
(1298.26 -997.745 1.74289e-11)
(376.636 -1083.5 2.21936e-11)
(-1000.94 -929.97 0)
(1035.18 -5482.69 0)
(1355.87 -901.852 -4.26455e-11)
(1327.63 -1162.21 -1.74289e-11)
(855.511 -1314.35 -2.21936e-11)
(-2203.94 -1287.26 -6.05232e-11)
(1144.76 -5832.35 9.29909e-11)
(7695.12 -2982.69 4.30835e-11)
(1014.83 -320.899 -3.6465e-11)
(1333.36 -151.028 0)
(2959.36 427.394 2.83455e-11)
(-3003.28 -6477.7 -1.30416e-11)
(5664.64 -2922.38 -2.14968e-11)
(1664.9 -247.589 1.82277e-11)
(1592.49 -266.009 0)
(142.696 -37.8134 -1.77237e-11)
(-7698.18 -11430.9 3.12556e-12)
(6003.08 -7.08748e-09 0)
(1631.48 -1.51825e-10 0)
(1399.62 1.64477e-09 0)
(-2018.77 -1.62542e-09 7.08902e-12)
(-9888.97 -1.55821e-09 -6.25112e-12)
(5664.64 2922.38 -2.14968e-11)
(1664.9 247.589 1.82277e-11)
(1592.49 266.009 0)
(142.696 37.8134 -1.77237e-11)
(-7698.18 11430.9 3.12556e-12)
(7695.12 2982.69 2.14968e-11)
(1014.83 320.899 9.66441e-15)
(1333.36 151.028 0)
(2959.36 -427.394 1.28717e-14)
(-3003.28 6477.7 1.30416e-11)
(-23231.7 -42681.7 0)
(-17602.6 2279 0)
(1350.13 2196.18 0)
(2800.32 837.558 0)
(4545 998.321 0)
(5163.83 145.272 0)
(5338.22 87.3474 0)
(4121.86 72.3885 0)
(2131.7 28.7931 0)
(598.255 3.55824 0)
(66.8731 0.0862983 0)
(1.97787 0.000193959 0)
(0.0102663 -1.00316e-07 0)
(6.56705e-06 6.45948e-11 0)
(3.22974e-11 -6.45948e-11 0)
(-1.61487e-11 0 0)
(0 0 0)
(0 0 0)
(0 -6.45948e-11 0)
(0 0 0)
(0 -6.45948e-11 0)
(0 0 0)
(0 0 0)
(0 -6.45948e-11 0)
(0 0 0)
(-3.22974e-11 -6.45948e-11 0)
(-8.11966e-06 2.58379e-10 0)
(-0.0126009 1.61487e-09 0)
(-2.39863 -7.17002e-09 0)
(-79.9641 2.58379e-09 0)
(-706.244 -6.52407e-09 0)
(-2496.28 4.9738e-09 0)
(-4842.01 -6.00732e-09 0)
(-6452.39 5.23218e-09 0)
(-7062.55 -1.80865e-09 0)
(-6944.42 -9.68922e-11 0)
(-5505.98 -4.81231e-09 0)
(-2124.89 -3.58501e-09 0)
(64624.1 -6.42718e-09 0)
(-115906 -1.62779e-08 0)
(-21476.2 -17560 0)
(-14142.7 6476.37 0)
(1146.1 986.356 0)
(2665.93 357.001 0)
(4466.23 438.852 0)
(5051.72 11.6627 0)
(5353.49 18.1356 0)
(4123.65 30.6752 0)
(2125.38 15.0238 0)
(595.071 1.79068 0)
(66.4985 0.0292924 0)
(1.97137 -6.02475e-05 0)
(0.0102767 -1.80542e-07 0)
(6.59986e-06 1.2919e-10 0)
(1.61487e-11 -6.45948e-11 0)
(0 0 0)
(0 0 0)
(0 0 0)
(0 0 0)
(0 0 0)
(0 0 0)
(-1.61487e-11 0 0)
(0 0 0)
(1.61487e-11 0 0)
(0 0 0)
(-1.61487e-11 0 0)
(-8.1189e-06 1.2919e-10 0)
(-0.0126009 2.58379e-09 0)
(-2.39863 -1.11103e-08 0)
(-79.9641 2.97136e-09 0)
(-706.244 -3.35893e-09 0)
(-2496.28 2.90677e-09 0)
(-4842.01 -3.61731e-09 0)
(-6452.39 5.03839e-09 0)
(-7062.55 -7.75138e-10 0)
(-6944.42 1.51798e-09 0)
(-5505.98 -1.74406e-09 0)
(-2124.89 -1.67946e-09 0)
(64624.1 -5.49056e-10 0)
(-115906 2.84217e-09 0)
(-18612.1 -9.36625e-09 0)
(-12207.3 -4.87691e-09 0)
(-430.048 -2.90677e-09 0)
(2641.05 3.48812e-09 0)
(4444.54 6.13651e-10 0)
(5041.44 2.13163e-09 0)
(5343.75 2.97136e-09 0)
(4120.96 2.58379e-10 0)
(2123.29 -5.16758e-10 0)
(593.893 -6.00732e-09 0)
(66.3522 2.26082e-09 0)
(1.96935 -2.26082e-09 0)
(0.0102839 5.74894e-09 0)
(6.61956e-06 -1.2919e-10 0)
(0 6.45948e-11 0)
(0 0 0)
(0 0 0)
(-1.61487e-11 0 0)
(0 0 0)
(0 0 0)
(0 0 0)
(0 0 0)
(0 0 0)
(0 0 0)
(1.61487e-11 0 0)
(0 0 0)
(-8.11894e-06 0 0)
(-0.0126009 -5.81353e-09 0)
(-2.39863 -8.00975e-09 0)
(-79.9641 7.23462e-09 0)
(-706.244 3.16514e-09 0)
(-2496.28 -7.75138e-10 0)
(-4842.01 -6.65326e-09 0)
(-6452.39 8.33273e-09 0)
(-7062.55 5.23218e-09 0)
(-6944.42 5.49056e-10 0)
(-5505.98 -1.03352e-09 0)
(-2124.89 -5.16758e-10 0)
(64624.1 1.71176e-09 0)
(-115906 2.26082e-08 0)
(-21476.2 17560 0)
(-14142.7 -6476.37 0)
(1146.1 -986.356 0)
(2665.93 -357.001 0)
(4466.23 -438.852 0)
(5051.72 -11.6627 0)
(5353.49 -18.1356 0)
(4123.65 -30.6752 0)
(2125.38 -15.0238 0)
(595.071 -1.79068 0)
(66.4985 -0.0292924 0)
(1.97137 6.02438e-05 0)
(0.0102767 1.83191e-07 0)
(6.5982e-06 -3.87569e-10 0)
(4.84461e-11 -6.45948e-11 0)
(-1.61487e-11 0 0)
(0 0 0)
(0 0 0)
(-1.61487e-11 0 0)
(1.61487e-11 0 0)
(-1.61487e-11 0 0)
(0 0 0)
(0 0 0)
(0 0 0)
(1.61487e-11 0 0)
(-1.61487e-11 0 0)
(-8.1206e-06 0 0)
(-0.0126009 -5.23218e-09 0)
(-2.39863 -1.80865e-09 0)
(-79.9641 3.29433e-09 0)
(-706.244 6.13651e-09 0)
(-2496.28 3.29433e-09 0)
(-4842.01 -7.62219e-09 0)
(-6452.39 1.31127e-08 0)
(-7062.55 8.84949e-09 0)
(-6944.42 -9.04327e-10 0)
(-5505.98 -3.52042e-09 0)
(-2124.89 2.64839e-09 0)
(64624.1 5.65204e-09 0)
(-115906 1.47276e-08 0)
(-23231.7 42681.7 0)
(-17602.6 -2279 0)
(1350.13 -2196.18 0)
(2800.32 -837.558 0)
(4545 -998.321 0)
(5163.83 -145.272 0)
(5338.22 -87.3474 0)
(4121.86 -72.3885 0)
(2131.7 -28.7931 0)
(598.255 -3.55824 0)
(66.8731 -0.0862983 0)
(1.97787 -0.000193961 0)
(0.0102664 9.61171e-08 0)
(6.56624e-06 -1.2919e-10 0)
(1.2919e-10 0 0)
(0 0 0)
(0 0 0)
(0 0 0)
(0 0 0)
(0 0 0)
(0 0 0)
(0 0 0)
(0 0 0)
(0 0 0)
(0 0 0)
(0 0 0)
(-8.12044e-06 0 0)
(-0.0126009 1.80865e-09 0)
(-2.39863 -1.74406e-09 0)
(-79.9641 -2.00244e-09 0)
(-706.244 4.9738e-09 0)
(-2496.28 7.10543e-10 0)
(-4842.01 -2.97136e-09 0)
(-6452.39 7.94516e-09 0)
(-7062.55 4.32785e-09 0)
(-6944.42 -8.7203e-10 0)
(-5505.98 2.74528e-09 0)
(-2124.89 4.06947e-09 0)
(64624.1 7.81597e-09 0)
(-115906 9.81841e-09 0)
(99322.9 50773.6 0)
(-38292.9 -2958.22 0)
(1814.36 -2812.88 0)
(3261.93 -1553.15 0)
(4809.4 -1223.63 0)
(5493.52 -480.024 0)
(5416.87 -253.802 0)
(4162.45 -129.151 0)
(2161.25 -41.3764 0)
(609.396 -5.12199 0)
(68.2972 -0.152461 0)
(2.01799 -0.000684678 0)
(0.0104103 -2.8256e-07 0)
(6.57482e-06 2.14503e-10 0)
(0 0 0)
(0 0 0)
(0 0 0)
(0 0 0)
(0 0 0)
(0 0 0)
(0 0 0)
(0 0 0)
(0 0 0)
(0 0 0)
(0 0 0)
(0 0 0)
(-8.11968e-06 0 0)
(-0.0126009 8.97015e-10 0)
(-2.39863 1.18952e-09 0)
(-79.9641 -1.07837e-08 0)
(-706.244 3.56856e-09 0)
(-2496.28 -5.46009e-09 0)
(-4842.01 -2.14503e-09 0)
(-6452.39 4.48507e-09 0)
(-7062.55 -3.52956e-09 0)
(-6944.42 -1.38452e-09 0)
(-5505.98 2.15478e-09 0)
(-2124.89 8.58014e-10 0)
(64624.1 -7.41012e-10 0)
(-115906 2.18404e-09 0)
(114950 25701.6 0)
(-58145.7 -2059.02 0)
(2455.17 -2478.31 0)
(4084.25 -1791.86 0)
(5437.32 -1166.64 0)
(5921.61 -645.893 0)
(5634.16 -376.94 0)
(4304.79 -177.586 0)
(2235.37 -52.477 0)
(632.006 -6.5048 0)
(71.0445 -0.214128 0)
(2.10328 -0.00121787 0)
(0.010849 -8.34438e-07 0)
(6.83396e-06 -9.75016e-11 0)
(0 0 0)
(0 0 0)
(0 0 0)
(0 0 0)
(0 0 0)
(0 0 0)
(0 0 0)
(0 0 0)
(0 0 0)
(0 0 0)
(0 0 0)
(0 0 0)
(-8.11999e-06 0 0)
(-0.0126009 2.37904e-09 0)
(-2.39863 6.78611e-09 0)
(-79.9641 -6.3181e-09 0)
(-706.244 6.2986e-09 0)
(-2496.28 -2.22304e-09 0)
(-4842.01 8.38514e-10 0)
(-6452.39 2.69104e-09 0)
(-7062.55 -1.21877e-09 0)
(-6944.42 -1.56978e-09 0)
(-5505.98 -1.98903e-09 0)
(-2124.89 -5.55759e-10 0)
(64624.1 -7.11762e-10 0)
(-115906 -6.51311e-09 0)
(120879 6716.48 0)
(-65448.1 -998.225 0)
(2071.8 -1848.83 0)
(4525.91 -1560.42 0)
(5913.7 -1055.08 0)
(6254.51 -667.077 0)
(5868.15 -396.805 0)
(4475.12 -185.801 0)
(2326.11 -54.3847 0)
(659.759 -6.85851 0)
(74.5643 -0.237115 0)
(2.22433 -0.00145359 0)
(0.0115838 -1.0897e-06 0)
(7.3789e-06 0 0)
(7.80013e-11 0 0)
(0 0 0)
(0 0 0)
(0 0 0)
(0 0 0)
(0 0 0)
(0 0 0)
(0 0 0)
(0 0 0)
(0 0 0)
(0 0 0)
(0 0 0)
(-8.11736e-06 -1.56003e-10 0)
(-0.0126009 7.80013e-11 0)
(-2.39863 8.54114e-09 0)
(-79.9641 -4.62157e-09 0)
(-706.244 9.00915e-09 0)
(-2496.28 3.70506e-10 0)
(-4842.01 4.09507e-10 0)
(-6452.39 -1.20902e-09 0)
(-7062.55 -4.97258e-10 0)
(-6944.42 -9.55515e-10 0)
(-5505.98 -3.2663e-09 0)
(-2124.89 -2.54479e-09 0)
(64624.1 -8.67764e-10 0)
(-115906 -1.34552e-08 0)
(120502 -773.903 0)
(-66399.5 -1152.31 0)
(1913.42 -1536.92 0)
(4849.14 -1302.17 0)
(6298.18 -907.625 0)
(6555.94 -582.086 0)
(6097.94 -331.13 0)
(4634.76 -147.444 0)
(2407.8 -41.1541 0)
(684.184 -4.99286 0)
(77.6522 -0.167758 0)
(2.33177 -0.00100898 0)
(0.0122497 -7.47213e-07 0)
(7.88404e-06 3.90006e-11 0)
(0 0 0)
(0 0 0)
(0 1.95003e-11 0)
(0 0 0)
(0 0 0)
(0 1.95003e-11 0)
(0 0 0)
(0 0 0)
(0 0 0)
(0 0 0)
(0 0 0)
(-1.56003e-10 0 0)
(-8.11991e-06 0 0)
(-0.0126009 -3.99756e-09 0)
(-2.39863 5.77209e-09 0)
(-79.9641 -1.06862e-08 0)
(-706.244 8.58014e-09 0)
(-2496.28 -3.37355e-09 0)
(-4842.01 -8.19013e-10 0)
(-6452.39 -2.49604e-09 0)
(-7062.55 2.11578e-09 0)
(-6944.42 5.75259e-10 0)
(-5505.98 -1.60878e-09 0)
(-2124.89 -9.65266e-10 0)
(64624.1 -1.01402e-09 0)
(-115906 -2.57404e-09 0)
(119026 -2142.88 0)
(-66183.4 -1062.75 0)
(1927.39 -1187 0)
(5132.32 -951.651 0)
(6607.6 -653.994 0)
(6810.04 -403.61 0)
(6286.99 -213.173 0)
(4754.55 -86.7042 0)
(2463.38 -21.7373 0)
(699.255 -2.33598 0)
(79.3746 -0.0692398 0)
(2.38598 -0.000370583 0)
(0.0125561 -2.50423e-07 0)
(8.09895e-06 -3.90006e-11 0)
(3.90006e-11 0 0)
(0 0 0)
(0 0 0)
(0 0 0)
(0 0 0)
(0 0 0)
(-1.95003e-11 0 0)
(0 0 0)
(0 0 0)
(0 0 0)
(0 0 0)
(0 0 0)
(-8.12122e-06 1.56003e-10 0)
(-0.0126009 -2.53504e-10 0)
(-2.39863 -1.22852e-09 0)
(-79.9641 -9.65266e-09 0)
(-706.244 4.50457e-09 0)
(-2496.28 -2.08653e-09 0)
(-4842.01 3.04205e-09 0)
(-6452.39 1.75503e-09 0)
(-7062.55 4.02682e-09 0)
(-6944.42 7.41012e-10 0)
(-5505.98 5.36259e-10 0)
(-2124.89 1.79403e-09 0)
(64624.1 7.11762e-10 0)
(-115906 3.43206e-09 0)
(117348 -2082.07 0)
(-65478.4 -704.546 0)
(2020.48 -703.669 0)
(5362.76 -526.981 0)
(6826.29 -343.873 0)
(6980.74 -198.511 0)
(6403.32 -95.1164 0)
(4819.24 -34.0472 0)
(2489.1 -7.18977 0)
(705.064 -0.611985 0)
(79.9029 -0.0132717 0)
(2.39849 -4.79012e-05 0)
(0.0126068 -2.88995e-08 0)
(8.12533e-06 -7.95613e-09 0)
(5.85009e-11 -8.61914e-09 0)
(0 -8.59964e-09 0)
(0 -7.64412e-09 0)
(-1.95003e-11 -8.09263e-09 0)
(1.95003e-11 -7.64412e-09 0)
(-1.95003e-11 -7.85863e-09 0)
(1.95003e-11 -7.62462e-09 0)
(0 -7.89763e-09 0)
(0 -8.15113e-09 0)
(0 -7.64412e-09 0)
(-1.95003e-11 -7.83913e-09 0)
(0 -7.54662e-09 0)
(-8.12015e-06 -9.24315e-09 0)
(-0.0126009 -1.06862e-08 0)
(-2.39863 -8.97015e-09 0)
(-79.9641 -1.08032e-08 0)
(-706.244 -9.67216e-09 0)
(-2496.28 -1.27727e-08 0)
(-4842.01 -1.30652e-08 0)
(-6452.39 -1.11152e-08 0)
(-7062.55 -4.97258e-09 0)
(-6944.42 -2.9933e-09 0)
(-5505.98 -1.91103e-09 0)
(-2124.89 -2.49604e-09 0)
(64624.1 -1.71603e-09 0)
(-115906 -1.02572e-08 0)
(116250 -1119.42 0)
(-64855.1 -285.492 0)
(2098.5 -255.833 0)
(5479.03 -179.474 0)
(6924.13 -108.956 0)
(7049.75 -58.0929 0)
(6445.47 -24.7529 0)
(4839.28 -7.49993 0)
(2495.6 -1.22356 0)
(706.17 -0.063787 0)
(79.9643 -0.000227593 0)
(2.39877 -7.04589e-05 0)
(0.0126023 -7.64552e-05 0)
(8.11849e-06 -7.64638e-05 0)
(-5.85009e-10 -7.64605e-05 0)
(9.55515e-10 -7.64624e-05 0)
(4.87508e-10 -7.64591e-05 0)
(0 -7.64592e-05 0)
(2.53504e-10 -7.64635e-05 0)
(0 -7.64648e-05 0)
(-5.85009e-11 -7.64649e-05 0)
(-5.26509e-10 -7.6464e-05 0)
(2.73004e-10 -7.64605e-05 0)
(3.12005e-10 -7.64574e-05 0)
(7.80013e-11 -7.6461e-05 0)
(-1.36502e-09 -7.64641e-05 0)
(-8.12422e-06 -7.64655e-05 0)
(-0.0126009 -7.64595e-05 0)
(-2.39863 -7.64814e-05 0)
(-79.9641 -7.64458e-05 0)
(-706.244 -7.62731e-05 0)
(-2496.28 -7.4289e-05 0)
(-4842.01 -6.76147e-05 0)
(-6452.39 -5.53708e-05 0)
(-7062.55 -4.03483e-05 0)
(-6944.42 -2.64537e-05 0)
(-5505.98 -1.5577e-05 0)
(-2124.89 -6.93271e-06 0)
(64624.1 -2.44541e-06 0)
(-115906 -9.64681e-07 0)
(115936 -283.39 0)
(-64646.2 -56.2927 0)
(2122.64 -44.1422 0)
(5504.3 -28.9545 0)
(6943.26 -16.2088 0)
(7061.88 -7.92087 0)
(6452.07 -2.95172 0)
(4841.91 -0.762534 0)
(2496.27 -0.139304 0)
(706.243 -0.0639959 0)
(79.9643 -0.0641486 0)
(2.39864 -0.0643035 0)
(0.012601 -0.064305 0)
(8.1202e-06 -0.064305 0)
(1.32602e-09 -0.064305 0)
(1.44302e-09 -0.064305 0)
(3.06155e-09 -0.064305 0)
(-4.25107e-09 -0.064305 0)
(-5.36259e-09 -0.064305 0)
(-1.34552e-09 -0.064305 0)
(7.80013e-10 -0.064305 0)
(4.25107e-09 -0.064305 0)
(6.3376e-09 -0.064305 0)
(-4.68008e-10 -0.064305 0)
(-6.4351e-09 -0.064305 0)
(-4.32907e-09 -0.064305 0)
(-8.11578e-06 -0.064305 0)
(-0.0126009 -0.064305 0)
(-2.39863 -0.064305 0)
(-79.9641 -0.0643001 0)
(-706.244 -0.0641361 0)
(-2496.28 -0.062703 0)
(-4842.01 -0.0579266 0)
(-6452.39 -0.0492822 0)
(-7062.55 -0.0384133 0)
(-6944.42 -0.0277241 0)
(-5505.98 -0.0184442 0)
(-2124.89 -0.00995301 0)
(64624.1 -0.00451096 0)
(-115906 -0.00353536 0)
(115906 -26.7989 0)
(-64624.5 -4.93222 0)
(2124.84 -4.3576 0)
(5505.95 -4.3681 0)
(6944.39 -4.5993 0)
(7062.52 -5.19734 0)
(6452.37 -5.97208 0)
(4841.99 -6.69256 0)
(2496.28 -7.13401 0)
(706.243 -7.2761 0)
(79.964 -7.29348 0)
(2.39862 -7.29403 0)
(0.0126008 -7.29403 0)
(8.11352e-06 -7.29403 0)
(-1.46252e-09 -7.29403 0)
(3.56856e-09 -7.29403 0)
(7.50762e-09 -7.29403 0)
(1.50152e-09 -7.29403 0)
(-1.15052e-09 -7.29403 0)
(1.63803e-09 -7.29403 0)
(-1.56003e-10 -7.29403 0)
(-1.05302e-09 -7.29403 0)
(-2.02803e-09 -7.29403 0)
(-2.18404e-09 -7.29403 0)
(2.96405e-09 -7.29403 0)
(1.28702e-09 -7.29403 0)
(-8.11385e-06 -7.29403 0)
(-0.0126009 -7.29403 0)
(-2.39862 -7.29403 0)
(-79.964 -7.2935 0)
(-706.242 -7.27625 0)
(-2496.28 -7.13247 0)
(-4842 -6.67343 0)
(-6452.37 -5.86361 0)
(-7062.53 -4.8381 0)
(-6944.4 -3.78596 0)
(-5505.97 -2.79011 0)
(-2124.87 -1.78854 0)
(64624.1 -1.02918 0)
(-115906 -1.34278 0)
(115904 -77.5196 0)
(-64624.6 -40.765 0)
(2123.19 -57.5352 0)
(5504.07 -77.5659 0)
(6942.46 -97.2051 0)
(7060.55 -116.64 0)
(6450.63 -135.189 0)
(4840.79 -150.019 0)
(2495.71 -158.772 0)
(706.089 -161.662 0)
(79.947 -162.028 0)
(2.3981 -162.04 0)
(0.012598 -162.04 0)
(8.11985e-06 -162.04 0)
(2.98355e-09 -162.04 0)
(-5.85009e-11 -162.04 0)
(-9.08715e-09 -162.04 0)
(-7.68312e-09 -162.04 0)
(-3.25655e-09 -162.04 0)
(-2.63254e-09 -162.04 0)
(-2.67154e-09 -162.04 0)
(-2.73004e-09 -162.04 0)
(3.82206e-09 -162.04 0)
(8.48264e-09 -162.04 0)
(7.21512e-09 -162.04 0)
(5.63559e-09 -162.04 0)
(-8.11558e-06 -162.04 0)
(-0.012598 -162.04 0)
(-2.39811 -162.04 0)
(-79.947 -162.028 0)
(-706.088 -161.663 0)
(-2495.7 -158.773 0)
(-4840.79 -150.016 0)
(-6450.62 -135.176 0)
(-7060.54 -116.615 0)
(-6942.45 -97.1634 0)
(-5504.06 -77.5068 0)
(-2123.19 -57.4692 0)
(64624.5 -40.689 0)
(-115904 -77.0326 0)
(115788 -1012.11 0)
(-64605.3 -413.82 0)
(2089.38 -498.254 0)
(5467.72 -600.977 0)
(6906.74 -712.452 0)
(7025.92 -818.696 0)
(6420.2 -919.675 0)
(4819.26 -1002.72 0)
(2485.06 -1054.19 0)
(703.105 -1072.16 0)
(79.5999 -1074.56 0)
(2.38704 -1074.64 0)
(0.0125347 -1074.64 0)
(8.08103e-06 -1074.64 0)
(6.61061e-09 -1074.64 0)
(1.09202e-09 -1074.64 0)
(1.01207e-08 -1074.64 0)
(7.78063e-09 -1074.64 0)
(2.34004e-10 -1074.64 0)
(1.91103e-09 -1074.64 0)
(7.05911e-09 -1074.64 0)
(9.41865e-09 -1074.64 0)
(5.26509e-09 -1074.64 0)
(-3.35405e-09 -1074.64 0)
(-5.9476e-09 -1074.64 0)
(-6.64961e-09 -1074.64 0)
(-8.07452e-06 -1074.64 0)
(-0.0125348 -1074.64 0)
(-2.38704 -1074.64 0)
(-79.6 -1074.56 0)
(-703.105 -1072.16 0)
(-2485.06 -1054.2 0)
(-4819.26 -1002.73 0)
(-6420.19 -919.679 0)
(-7025.9 -818.702 0)
(-6906.72 -712.461 0)
(-5467.72 -600.991 0)
(-2089.39 -498.27 0)
(64605.3 -413.832 0)
(-115788 -1012.06 0)
(114475 -4673.23 0)
(-64129.4 -1621.26 0)
(1942.83 -1745 0)
(5297.66 -1954.45 0)
(6732.66 -2227.73 0)
(6860.87 -2489.2 0)
(6273.29 -2739.29 0)
(4711.16 -2952.3 0)
(2428.8 -3091.28 0)
(686.465 -3142.57 0)
(77.5541 -3149.8 0)
(2.31829 -3150.05 0)
(0.0121231 -3150.06 0)
(7.76493e-06 -3150.06 0)
(-4.66058e-09 -3150.06 0)
(-6.2206e-09 -3150.06 0)
(-7.54662e-09 -3150.06 0)
(-5.03108e-09 -3150.06 0)
(-2.63254e-09 -3150.06 0)
(-3.78306e-09 -3150.06 0)
(-5.08958e-09 -3150.06 0)
(-6.66911e-09 -3150.06 0)
(-1.71603e-09 -3150.06 0)
(5.26509e-10 -3150.06 0)
(1.79403e-09 -3150.06 0)
(4.52407e-09 -3150.06 0)
(-7.76871e-06 -3150.06 0)
(-0.012123 -3150.06 0)
(-2.31829 -3150.05 0)
(-77.5541 -3149.8 0)
(-686.465 -3142.57 0)
(-2428.8 -3091.28 0)
(-4711.16 -2952.3 0)
(-6273.29 -2739.3 0)
(-6860.86 -2489.22 0)
(-6732.65 -2227.77 0)
(-5297.66 -1954.5 0)
(-1942.84 -1745.04 0)
(64129.4 -1621.29 0)
(-114475 -4673.24 0)
(109472 -10822.6 0)
(-61783.5 -3365.09 0)
(1768.3 -3367.27 0)
(5002.54 -3600.72 0)
(6391.44 -3988.46 0)
(6532.97 -4378.53 0)
(5973.94 -4755.58 0)
(4480.08 -5088.36 0)
(2301.7 -5316.65 0)
(646.716 -5405.62 0)
(72.3898 -5418.76 0)
(2.13598 -5419.25 0)
(0.0109887 -5419.25 0)
(6.92189e-06 -5419.25 0)
(6.2206e-09 -5419.25 0)
(7.46862e-09 -5419.25 0)
(3.41256e-09 -5419.25 0)
(-2.34004e-10 -5419.25 0)
(-1.26752e-09 -5419.25 0)
(-8.19013e-10 -5419.25 0)
(1.98903e-09 -5419.25 0)
(7.07861e-09 -5419.25 0)
(6.4546e-09 -5419.25 0)
(4.09507e-10 -5419.25 0)
(-1.40402e-09 -5419.25 0)
(-8.97015e-10 -5419.25 0)
(-6.91165e-06 -5419.25 0)
(-0.0109886 -5419.25 0)
(-2.13598 -5419.25 0)
(-72.3898 -5418.76 0)
(-646.716 -5405.62 0)
(-2301.7 -5316.65 0)
(-4480.08 -5088.36 0)
(-5973.94 -4755.58 0)
(-6532.97 -4378.54 0)
(-6391.44 -3988.47 0)
(-5002.55 -3600.73 0)
(-1768.3 -3367.28 0)
(61783.5 -3365.1 0)
(-109472 -10822.6 0)
(100211 -15867.9 0)
(-56945.2 -4625.04 0)
(1715.77 -4477.42 0)
(4699.05 -4657.35 0)
(5983.13 -5071.95 0)
(6121.65 -5512.55 0)
(5589.28 -5946.39 0)
(4170.5 -6339.81 0)
(2123.07 -6621.25 0)
(588.061 -6735.87 0)
(64.4211 -6753.36 0)
(1.8452 -6754.01 0)
(0.00914757 -6754.02 0)
(5.51042e-06 -6754.02 0)
(2.34004e-10 -6754.02 0)
(-3.99756e-09 -6754.02 0)
(-4.75808e-09 -6754.02 0)
(-1.61853e-09 -6754.02 0)
(-2.53504e-10 -6754.02 0)
(-1.79403e-09 -6754.02 0)
(3.51006e-10 -6754.02 0)
(3.70506e-10 -6754.02 0)
(1.65753e-09 -6754.02 0)
(1.71603e-09 -6754.02 0)
(-1.56003e-10 -6754.02 0)
(3.12005e-10 -6754.02 0)
(-5.51711e-06 -6754.02 0)
(-0.00914757 -6754.02 0)
(-1.8452 -6754.01 0)
(-64.4211 -6753.36 0)
(-588.061 -6735.87 0)
(-2123.07 -6621.25 0)
(-4170.5 -6339.81 0)
(-5589.28 -5946.39 0)
(-6121.65 -5512.55 0)
(-5983.13 -5071.95 0)
(-4699.05 -4657.35 0)
(-1715.77 -4477.42 0)
(56945.2 -4625.04 0)
(-100211 -15867.9 0)
(88826.7 -18359.8 0)
(-50807.2 -5024.01 0)
(1737.17 -4847.98 0)
(4429.63 -5018.01 0)
(5567.34 -5414.3 0)
(5690.32 -5874.05 0)
(5176.76 -6319.11 0)
(3829.75 -6732.72 0)
(1920.05 -7035.9 0)
(519.418 -7161.79 0)
(54.9068 -7181.06 0)
(1.49711 -7181.77 0)
(0.00697972 -7181.78 0)
(3.91747e-06 -7181.78 0)
(2.38879e-09 -7181.78 0)
(-2.22304e-09 -7181.78 0)
(-8.97015e-10 -7181.78 0)
(2.23279e-09 -7181.78 0)
(2.16453e-09 -7181.78 0)
(5.85009e-11 -7181.78 0)
(-8.48264e-10 -7181.78 0)
(-1.92078e-09 -7181.78 0)
(9.16515e-10 -7181.78 0)
(4.38757e-09 -7181.78 0)
(3.10055e-09 -7181.78 0)
(1.44302e-09 -7181.78 0)
(-3.91902e-06 -7181.78 0)
(-0.00697972 -7181.78 0)
(-1.49711 -7181.77 0)
(-54.9068 -7181.06 0)
(-519.418 -7161.79 0)
(-1920.05 -7035.9 0)
(-3829.75 -6732.72 0)
(-5176.76 -6319.11 0)
(-5690.32 -5874.05 0)
(-5567.34 -5414.3 0)
(-4429.63 -5018.01 0)
(-1737.17 -4847.98 0)
(50807.2 -5024.01 0)
(-88826.7 -18359.8 0)
(76611.1 -17475.5 0)
(-43924.8 -4836.08 0)
(1721.55 -4715.57 0)
(4153.32 -4874.71 0)
(5158.22 -5253.04 0)
(5249.75 -5674.1 0)
(4761.84 -6099.81 0)
(3479.77 -6511.43 0)
(1709.6 -6826.7 0)
(448.183 -6958.56 0)
(45.1613 -6978.17 0)
(1.15195 -6978.86 0)
(0.00493907 -6978.87 0)
(2.5096e-06 -6978.87 0)
(-1.07252e-10 -6978.87 0)
(7.21512e-10 -6978.87 0)
(-4.58257e-10 -6978.87 0)
(-4.77758e-10 -6978.87 0)
(3.60756e-10 -6978.87 0)
(9.65266e-10 -6978.87 0)
(-3.02255e-10 -6978.87 0)
(-1.17002e-09 -6978.87 0)
(-1.56003e-10 -6978.87 0)
(8.97015e-10 -6978.87 0)
(1.74528e-09 -6978.87 0)
(1.35527e-09 -6978.87 0)
(-2.51022e-06 -6978.87 0)
(-0.00493907 -6978.87 0)
(-1.15195 -6978.86 0)
(-45.1613 -6978.17 0)
(-448.183 -6958.56 0)
(-1709.6 -6826.7 0)
(-3479.77 -6511.43 0)
(-4761.84 -6099.81 0)
(-5249.75 -5674.1 0)
(-5158.22 -5253.04 0)
(-4153.32 -4874.71 0)
(-1721.55 -4715.57 0)
(43924.8 -4836.08 0)
(-76611.1 -17475.5 0)
(66367.3 -14809.1 0)
(-38511.3 -3870.53 0)
(1699.95 -3853.22 0)
(3911.7 -3924.2 0)
(4797.02 -4163.75 0)
(4874.35 -4444.95 0)
(4369.88 -4728.77 0)
(3129.3 -5038.43 0)
(1489.18 -5309.68 0)
(373.448 -5434.2 0)
(35.3373 -5453.07 0)
(0.829001 -5453.7 0)
(0.00320649 -5453.71 0)
(1.44374e-06 -5453.71 0)
(1.22852e-09 -5453.71 0)
(1.86228e-09 -5453.71 0)
(-1.17002e-09 -5453.71 0)
(-1.46252e-10 -5453.71 0)
(5.9476e-10 -5453.71 0)
(-7.80013e-11 -5453.71 0)
(-5.16758e-10 -5453.71 0)
(-1.89153e-09 -5453.71 0)
(-4.38757e-10 -5453.71 0)
(-5.16758e-10 -5453.71 0)
(-3.60756e-10 -5453.71 0)
(3.1493e-09 -5453.71 0)
(-1.44467e-06 -5453.71 0)
(-0.00320648 -5453.71 0)
(-0.829001 -5453.7 0)
(-35.3373 -5453.07 0)
(-373.448 -5434.2 0)
(-1489.18 -5309.68 0)
(-3129.3 -5038.43 0)
(-4369.88 -4728.77 0)
(-4874.35 -4444.95 0)
(-4797.02 -4163.75 0)
(-3911.7 -3924.2 0)
(-1699.95 -3853.22 0)
(38511.3 -3870.53 0)
(-66367.3 -14809.1 0)
(57430.5 -7850.51 0)
(-33367.3 -1867.97 0)
(1669.84 -1606.57 0)
(3854.08 -1623.82 0)
(4656.41 -1632.67 0)
(4705.28 -1614.47 0)
(4189.93 -1572.33 0)
(2919.97 -1639.37 0)
(1328.22 -1823.43 0)
(310.013 -1938.51 0)
(26.3721 -1956.63 0)
(0.537419 -1957.2 0)
(0.00175633 -1957.2 0)
(6.55259e-07 -1957.2 0)
(1.48202e-09 -1957.2 0)
(1.76478e-09 -1957.2 0)
(-5.85009e-11 -1957.2 0)
(8.19013e-10 -1957.2 0)
(-5.55759e-10 -1957.2 0)
(3.21755e-10 -1957.2 0)
(-2.92505e-10 -1957.2 0)
(-1.88178e-09 -1957.2 0)
(2.04753e-10 -1957.2 0)
(-6.63011e-10 -1957.2 0)
(1.23827e-09 -1957.2 0)
(2.65204e-09 -1957.2 0)
(-6.58204e-07 -1957.2 0)
(-0.00175633 -1957.2 0)
(-0.537419 -1957.2 0)
(-26.3721 -1956.63 0)
(-310.013 -1938.51 0)
(-1328.22 -1823.43 0)
(-2919.97 -1639.37 0)
(-4189.93 -1572.33 0)
(-4705.28 -1614.47 0)
(-4656.41 -1632.67 0)
(-3854.08 -1623.82 0)
(-1669.84 -1606.57 0)
(33367.3 -1867.97 0)
(-57430.5 -7850.51 0)
(53972.5 125493 0)
(-32494.4 35204 0)
(1935.22 36237.4 0)
(3886.55 42080.7 0)
(4806.03 48181.8 0)
(4932.49 55722.9 0)
(4345.88 62319.6 0)
(2887.33 67080.6 0)
(1200.92 69026.5 0)
(245.085 69319.1 0)
(17.3302 69325.5 0)
(0.281785 69325.3 0)
(0.000718529 69325.3 0)
(2.10886e-07 69325.3 0)
(-1.17002e-09 69325.3 0)
(-1.12127e-09 69325.3 0)
(1.70628e-09 69325.3 0)
(9.26265e-10 69325.3 0)
(-9.75016e-11 69325.3 0)
(9.94516e-10 69325.3 0)
(-1.85253e-10 69325.3 0)
(-1.55028e-09 69325.3 0)
(-1.00427e-09 69325.3 0)
(7.31262e-10 69325.3 0)
(1.23827e-09 69325.3 0)
(1.74528e-09 69325.3 0)
(-2.11266e-07 69325.3 0)
(-0.000718528 69325.3 0)
(-0.281785 69325.3 0)
(-17.3302 69325.5 0)
(-245.085 69319.1 0)
(-1200.92 69026.5 0)
(-2887.33 67080.6 0)
(-4345.88 62319.6 0)
(-4932.49 55722.9 0)
(-4806.03 48181.8 0)
(-3886.55 42080.7 0)
(-1935.22 36237.4 0)
(32494.4 35204 0)
(-53972.5 125493 0)
(210289 -216792 0)
(-119378 -57389.6 0)
(8296.49 -61151.4 0)
(15364.2 -71130.8 0)
(17802.5 -82412.5 0)
(18328.9 -95624.6 0)
(15134.7 -107670 0)
(9383.03 -116740 0)
(3485.3 -120944 0)
(598.066 -121800 0)
(32.3054 -121852 0)
(0.357538 -121853 0)
(0.00054376 -121853 0)
(7.56612e-08 -121853 0)
(-1.56003e-09 -121853 0)
(9.39915e-09 -121853 0)
(1.27922e-08 -121853 0)
(7.09811e-09 -121853 0)
(5.61609e-09 -121853 0)
(1.48202e-09 -121853 0)
(0 -121853 0)
(-7.64412e-09 -121853 0)
(-1.75503e-09 -121853 0)
(4.09507e-09 -121853 0)
(-7.87813e-09 -121853 0)
(1.98903e-09 -121853 0)
(-8.74784e-08 -121853 0)
(-0.000543738 -121853 0)
(-0.357538 -121853 0)
(-32.3054 -121852 0)
(-598.066 -121800 0)
(-3485.3 -120944 0)
(-9383.03 -116740 0)
(-15134.7 -107670 0)
(-18328.9 -95624.6 0)
(-17802.5 -82412.5 0)
(-15364.2 -71130.8 0)
(-8296.49 -61151.4 0)
(119378 -57389.6 0)
(-210289 -216792 0)
(210289 216792 0)
(-119378 57389.6 0)
(8296.49 61151.4 0)
(15364.2 71130.8 0)
(17802.5 82412.5 0)
(18328.9 95624.6 0)
(15134.7 107670 0)
(9383.03 116740 0)
(3485.3 120944 0)
(598.066 121800 0)
(32.3054 121852 0)
(0.357538 121853 0)
(0.000543763 121853 0)
(8.56454e-08 121853 0)
(1.56003e-10 121853 0)
(2.96405e-09 121853 0)
(-9.32115e-09 121853 0)
(-8.73614e-09 121853 0)
(-1.01402e-08 121853 0)
(-4.44607e-09 121853 0)
(-2.53504e-09 121853 0)
(-3.23705e-09 121853 0)
(1.48202e-09 121853 0)
(-3.12005e-10 121853 0)
(3.58806e-09 121853 0)
(7.83913e-09 121853 0)
(-7.59342e-08 121853 0)
(-0.000543751 121853 0)
(-0.357538 121853 0)
(-32.3054 121852 0)
(-598.066 121800 0)
(-3485.3 120944 0)
(-9383.03 116740 0)
(-15134.7 107670 0)
(-18328.9 95624.6 0)
(-17802.5 82412.5 0)
(-15364.2 71130.8 0)
(-8296.49 61151.4 0)
(119378 57389.6 0)
(-210289 216792 0)
(53972.5 -125493 0)
(-32494.4 -35204 0)
(1935.22 -36237.4 0)
(3886.55 -42080.7 0)
(4806.03 -48181.8 0)
(4932.49 -55722.9 0)
(4345.88 -62319.6 0)
(2887.33 -67080.6 0)
(1200.92 -69026.5 0)
(245.085 -69319.1 0)
(17.3302 -69325.5 0)
(0.281785 -69325.3 0)
(0.00071853 -69325.3 0)
(2.12066e-07 -69325.3 0)
(-3.70506e-09 -69325.3 0)
(-3.1493e-09 -69325.3 0)
(3.99756e-10 -69325.3 0)
(1.41377e-09 -69325.3 0)
(-4.19257e-10 -69325.3 0)
(3.02255e-10 -69325.3 0)
(-1.02377e-09 -69325.3 0)
(-2.01828e-09 -69325.3 0)
(-1.75503e-10 -69325.3 0)
(4.29007e-10 -69325.3 0)
(1.85253e-09 -69325.3 0)
(2.71054e-09 -69325.3 0)
(-2.10477e-07 -69325.3 0)
(-0.000718529 -69325.3 0)
(-0.281785 -69325.3 0)
(-17.3302 -69325.5 0)
(-245.085 -69319.1 0)
(-1200.92 -69026.5 0)
(-2887.33 -67080.6 0)
(-4345.88 -62319.6 0)
(-4932.49 -55722.9 0)
(-4806.03 -48181.8 0)
(-3886.55 -42080.7 0)
(-1935.22 -36237.4 0)
(32494.4 -35204 0)
(-53972.5 -125493 0)
(57430.5 7850.51 0)
(-33367.3 1867.97 0)
(1669.84 1606.57 0)
(3854.08 1623.82 0)
(4656.41 1632.67 0)
(4705.28 1614.47 0)
(4189.93 1572.33 0)
(2919.97 1639.37 0)
(1328.22 1823.43 0)
(310.013 1938.51 0)
(26.3721 1956.63 0)
(0.537419 1957.2 0)
(0.00175633 1957.2 0)
(6.57638e-07 1957.2 0)
(-1.41377e-09 1957.2 0)
(-9.06765e-10 1957.2 0)
(-1.85253e-09 1957.2 0)
(9.45765e-10 1957.2 0)
(-1.36502e-09 1957.2 0)
(-3.99756e-10 1957.2 0)
(-4.09507e-10 1957.2 0)
(-1.25777e-09 1957.2 0)
(1.65753e-09 1957.2 0)
(-4.29007e-10 1957.2 0)
(3.60756e-10 1957.2 0)
(3.96831e-09 1957.2 0)
(-6.57083e-07 1957.2 0)
(-0.00175633 1957.2 0)
(-0.537419 1957.2 0)
(-26.3721 1956.63 0)
(-310.013 1938.51 0)
(-1328.22 1823.43 0)
(-2919.97 1639.37 0)
(-4189.93 1572.33 0)
(-4705.28 1614.47 0)
(-4656.41 1632.67 0)
(-3854.08 1623.82 0)
(-1669.84 1606.57 0)
(33367.3 1867.97 0)
(-57430.5 7850.51 0)
(66367.3 14809.1 0)
(-38511.3 3870.53 0)
(1699.95 3853.22 0)
(3911.7 3924.2 0)
(4797.02 4163.75 0)
(4874.35 4444.95 0)
(4369.88 4728.77 0)
(3129.3 5038.43 0)
(1489.18 5309.68 0)
(373.448 5434.2 0)
(35.3373 5453.07 0)
(0.829001 5453.7 0)
(0.00320649 5453.71 0)
(1.44707e-06 5453.71 0)
(-1.96953e-09 5453.71 0)
(0 5453.71 0)
(-2.78855e-09 5453.71 0)
(-6.1426e-10 5453.71 0)
(-1.20902e-09 5453.71 0)
(-2.24254e-10 5453.71 0)
(-4.58257e-10 5453.71 0)
(-1.53077e-09 5453.71 0)
(1.30652e-09 5453.71 0)
(2.82755e-10 5453.71 0)
(1.83303e-09 5453.71 0)
(2.8373e-09 5453.71 0)
(-1.44685e-06 5453.71 0)
(-0.00320649 5453.71 0)
(-0.829001 5453.7 0)
(-35.3373 5453.07 0)
(-373.448 5434.2 0)
(-1489.18 5309.68 0)
(-3129.3 5038.43 0)
(-4369.88 4728.77 0)
(-4874.35 4444.95 0)
(-4797.02 4163.75 0)
(-3911.7 3924.2 0)
(-1699.95 3853.22 0)
(38511.3 3870.53 0)
(-66367.3 14809.1 0)
(76611.1 17475.5 0)
(-43924.8 4836.08 0)
(1721.55 4715.57 0)
(4153.32 4874.71 0)
(5158.22 5253.04 0)
(5249.75 5674.1 0)
(4761.84 6099.81 0)
(3479.77 6511.43 0)
(1709.6 6826.7 0)
(448.183 6958.56 0)
(45.1613 6978.17 0)
(1.15195 6978.86 0)
(0.00493907 6978.87 0)
(2.512e-06 6978.87 0)
(-1.44302e-09 6978.87 0)
(-3.41256e-10 6978.87 0)
(-2.7983e-09 6978.87 0)
(-1.52102e-09 6978.87 0)
(3.90006e-10 6978.87 0)
(6.2401e-10 6978.87 0)
(-5.85009e-11 6978.87 0)
(4.68008e-10 6978.87 0)
(-6.53261e-10 6978.87 0)
(-2.53504e-10 6978.87 0)
(9.55515e-10 6978.87 0)
(8.58014e-10 6978.87 0)
(-2.5096e-06 6978.87 0)
(-0.00493908 6978.87 0)
(-1.15195 6978.86 0)
(-45.1613 6978.17 0)
(-448.183 6958.56 0)
(-1709.6 6826.7 0)
(-3479.77 6511.43 0)
(-4761.84 6099.81 0)
(-5249.75 5674.1 0)
(-5158.22 5253.04 0)
(-4153.32 4874.71 0)
(-1721.55 4715.57 0)
(43924.8 4836.08 0)
(-76611.1 17475.5 0)
(88826.7 18359.8 0)
(-50807.2 5024.01 0)
(1737.17 4847.98 0)
(4429.63 5018.01 0)
(5567.34 5414.3 0)
(5690.32 5874.05 0)
(5176.76 6319.11 0)
(3829.75 6732.72 0)
(1920.05 7035.9 0)
(519.418 7161.79 0)
(54.9068 7181.06 0)
(1.49711 7181.77 0)
(0.00697973 7181.78 0)
(3.91694e-06 7181.78 0)
(-1.95978e-09 7181.78 0)
(-1.33577e-09 7181.78 0)
(3.51006e-10 7181.78 0)
(3.1688e-09 7181.78 0)
(4.26082e-09 7181.78 0)