/*--------------------------------*- C++ -*----------------------------------*\
| =========                 |                                                 |
| \\      /  F ield         | OpenFOAM: The Open Source CFD Toolbox           |
|  \\    /   O peration     | Version:  v1912                                 |
|   \\  /    A nd           | Website:  www.openfoam.com                      |
|    \\/     M anipulation  |                                                 |
\*---------------------------------------------------------------------------*/
FoamFile
{
    version     2.0;
    format      ascii;
    class       volScalarField;
    location    "0.9";
    object      p;
}
// * * * * * * * * * * * * * * * * * * * * * * * * * * * * * * * * * * * * * //

dimensions      [1 -1 -2 0 0 0 0];


internalField   nonuniform List<scalar> 
4800
(
680.162
6.28692
10.0615
11.3319
11.783
11.726
11.3445
10.8755
9.84629
7.32705
5.77299
5.7938
6.0423
6.29627
6.50776
6.70855
6.96555
7.33316
7.84505
8.48017
9.14185
9.66003
9.99333
10.1703
10.2949
10.5173
10.372
9.89271
8.12826
6.48921
6.44659
6.82948
7.28644
7.61079
7.77884
7.80632
7.76507
7.75136
7.82068
7.97614
679.496
6.55572
10.1329
11.2686
11.6433
11.619
11.3181
10.9342
9.9387
7.39011
5.76731
5.7689
5.9757
6.22533
6.4712
6.71321
7.00765
7.39488
7.90075
8.48463
9.05305
9.50403
9.83434
10.1054
10.3169
10.5613
10.4643
10.0341
8.26225
6.54822
6.43159
6.75474
7.13893
7.4429
7.63358
7.74467
7.77704
7.81849
7.91726
8.08377
678.12
7.26882
10.2338
11.161
11.4374
11.4893
11.3044
11.0006
10.0469
7.47895
5.74465
5.71123
5.88519
6.15242
6.44387
6.75237
7.10236
7.51144
7.96582
8.43582
8.88215
9.29248
9.66746
10.0528
10.3875
10.6647
10.6299
10.2256
8.39222
6.59386
6.41691
6.61659
6.92401
7.23361
7.48523
7.6883
7.84255
7.94856
8.07869
8.24981
676.04
8.43314
10.3344
11.0288
11.1891
11.3202
11.2618
11.0564
10.1505
7.59462
5.74411
5.62281
5.77697
6.06875
6.42221
6.81099
7.2245
7.6471
8.03395
8.38266
8.71146
9.0716
9.49071
9.96518
10.4538
10.8073
10.8734
10.4454
8.52379
6.65486
6.41254
6.49882
6.74421
7.03257
7.32145
7.61076
7.88617
8.09277
8.2769
8.44837
673.383
9.91364
10.4257
10.9197
10.9676
11.1426
11.2046
11.0954
10.2289
7.70293
5.77217
5.53853
5.67488
5.99356
6.41339
6.88278
7.35404
7.77221
8.09283
8.3481
8.58941
8.90061
9.33542
9.88342
10.5207
10.9882
11.1443
10.6178
8.62942
6.7136
6.40038
6.42922
6.64513
6.90683
7.2
7.55605
7.95548
8.28913
8.4872
8.61848
670.388
11.1625
10.5071
10.852
10.8088
10.9809
11.1297
11.1045
10.2794
7.78973
5.81089
5.48247
5.5958
5.93858
6.41697
6.95211
7.45807
7.86021
8.13508
8.34098
8.54095
8.82247
9.25428
9.8722
10.6016
11.1552
11.3745
10.731
8.72391
6.79447
6.41902
6.41498
6.61598
6.85572
7.15486
7.54962
8.02083
8.43469
8.64504
8.73977
667.543
12.0979
10.5849
10.8308
10.7368
10.8476
11.0294
11.0729
10.2951
7.84543
5.84091
5.45639
5.5499
5.90132
6.40491
6.97963
7.50756
7.90876
8.16797
8.36675
8.5753
8.85053
9.28287
9.92662
10.6685
11.2585
11.5085
10.8111
8.81584
6.87427
6.45782
6.44772
6.64581
6.86928
7.16733
7.56802
8.05333
8.46773
8.69231
8.78384
665.344
12.7909
10.6661
10.8662
10.7508
10.7822
10.9306
11.012
10.3004
7.88757
5.86476
5.45809
5.54788
5.89442
6.39339
6.97197
7.50085
7.89114
8.18027
8.43205
8.67671
8.99724
9.44403
10.0568
10.7378
11.2846
11.5162
10.8314
8.87452
6.94538
6.51113
6.50996
6.72268
6.96735
7.253
7.60815
8.00498
8.38878
8.64182
8.74131
663.794
13.325
10.7551
10.9453
10.8153
10.763
10.867
10.9161
10.2473
7.88775
5.8758
5.48432
5.56916
5.90889
6.37682
6.91145
7.41591
7.8379
8.2023
8.53967
8.88184
9.26061
9.68348
10.1918
10.7799
11.2452
11.4336
10.794
8.89267
6.99508
6.56679
6.60068
6.84579
7.11315
7.36845
7.62526
7.89888
8.20311
8.47736
8.65019
662.746
13.6855
10.8471
11.0589
10.9237
10.7948
10.8314
10.8161
10.1744
7.86774
5.86939
5.51049
5.60124
5.91757
6.34061
6.80496
7.28887
7.77165
8.24343
8.72647
9.16792
9.55638
9.91707
10.2995
10.7763
11.1325
11.2829
10.7065
8.87755
7.02209
6.61456
6.71053
6.99289
7.27267
7.48514
7.6439
7.78457
7.99273
8.26085
8.52119
662.112
13.8657
10.9284
11.1873
11.062
10.8762
10.8099
10.7179
10.0908
7.85171
5.86146
5.54478
5.63853
5.92309
6.28316
6.6872
7.15926
7.71454
8.34121
8.95215
9.43996
9.80976
10.104
10.3861
10.746
11.0132
11.0941
10.5646
8.84666
7.04189
6.65477
6.82079
7.1353
7.41656
7.5719
7.60955
7.67176
7.82009
8.06631
8.38233
661.779
13.9214
10.9796
11.3049
11.213
11.0087
10.8094
10.6305
9.99072
7.81646
5.83681
5.57175
5.66424
5.91846
6.2339
6.6055
7.07214
7.69917
8.42757
9.11924
9.6353
10
10.2445
10.4562
10.7111
10.8992
10.8685
10.4055
8.82434
7.07324
6.68588
6.91046
7.23201
7.50071
7.5984
7.57365
7.59885
7.71452
7.93828
8.26374
661.648
13.8504
11.0097
11.3951
11.3504
11.1472
10.8441
10.5586
9.88484
7.76608
5.8008
5.57478
5.67176
5.91396
6.22498
6.58945
7.07405
7.7129
8.44729
9.15485
9.70959
10.1182
10.3522
10.5004
10.6474
10.7607
10.6605
10.2797
8.83688
7.11297
6.72469
6.96253
7.26352
7.49814
7.57032
7.55584
7.57504
7.67058
7.87174
8.18038
661.589
13.6359
11.0061
11.4657
11.4814
11.264
10.887
10.4914
9.78122
7.70385
5.75511
5.54193
5.66047
5.92192
6.25825
6.66716
7.15994
7.73036
8.3825
9.07004
9.67714
10.1535
10.4266
10.5285
10.5761
10.643
10.5087
10.2173
8.89381
7.17815
6.75297
6.96112
7.21735
7.44304
7.54168
7.55928
7.58619
7.67193
7.84327
8.13016
662.407
13.2737
10.9655
11.52
11.6116
11.3675
10.9267
10.4409
9.68326
7.63455
5.70542
5.49642
5.65347
5.96829
6.38094
6.8328
7.2659
7.71221
8.25417
8.90269
9.57049
10.1132
10.4468
10.5212
10.495
10.5538
10.4219
10.2214
8.99487
7.2525
6.77057
6.90239
7.12231
7.35032
7.51208
7.58471
7.63272
7.71368
7.85792
8.08628
663.672
12.8186
10.8977
11.5323
11.7147
11.4619
10.9644
10.4107
9.59133
7.56858
5.66953
5.46283
5.68143
6.08702
6.56816
6.97829
7.31531
7.65943
8.09953
8.68872
9.38345
9.99758
10.4117
10.4828
10.4294
10.5031
10.4051
10.2972
9.1397
7.33625
6.77952
6.80317
6.99973
7.24357
7.45501
7.59937
7.69906
7.7864
7.88479
8.03508
665.114
12.3266
10.8079
11.4918
11.7651
11.5365
10.9947
10.3847
9.50126
7.50236
5.65998
5.47887
5.79645
6.27995
6.70842
7.03462
7.3179
7.60453
7.96116
8.47429
9.14864
9.80611
10.2858
10.4353
10.3854
10.4826
10.4398
10.4187
9.30846
7.41254
6.78737
6.71121
6.8914
7.14867
7.40709
7.62078
7.76755
7.85625
7.91213
7.98238
666.717
11.856
10.7128
11.4126
11.756
11.5812
11.0073
10.3519
9.41046
7.44519
5.69432
5.61741
5.99761
6.42749
6.73498
7.0265
7.30309
7.5643
7.86934
8.29972
8.89898
9.54722
10.0852
10.3683
10.3599
10.4902
10.4932
10.5614
9.46485
7.47566
6.77873
6.64611
6.82044
7.08601
7.37718
7.63708
7.81266
7.89141
7.91752
7.94627
668.209
11.414
10.6305
11.3153
11.689
11.545
10.9924
10.3115
9.34463
7.43768
5.85057
5.82199
6.18111
6.44379
6.71608
6.99379
7.26005
7.52787
7.82436
8.18786
8.67577
9.26081
9.81796
10.223
10.3525
10.5117
10.5734
10.6972
9.58691
7.52216
6.76947
6.61668
6.78704
7.06237
7.37053
7.64311
7.82082
7.89191
7.90999
7.93754
669.533
11.0036
10.5535
11.2119
11.5438
11.4237
10.9265
10.2816
9.36058
7.53834
6.08565
5.98511
6.25285
6.42468
6.66725
6.92827
7.21092
7.51406
7.818
8.13618
8.51281
8.99151
9.50889
10.0003
10.3259
10.5435
10.674
10.7954
9.67115
7.55884
6.76153
6.60816
6.79131
7.07357
7.37517
7.63087
7.79909
7.87573
7.91499
7.96905
670.711
10.5879
10.4952
11.1225
11.3469
11.2411
10.8149
10.301
9.52652
7.72958
6.25434
6.11261
6.22782
6.37737
6.59562
6.85859
7.17478
7.51847
7.83835
8.12887
8.4229
8.77404
9.20997
9.73765
10.2643
10.5848
10.7886
10.8473
9.7224
7.59382
6.75681
6.62468
6.81236
7.08845
7.36736
7.59864
7.75909
7.86254
7.94822
8.05412
671.804
10.1189
10.4317
11.0481
11.1369
11.0316
10.7047
10.4233
9.8782
7.92808
6.29411
6.16561
6.15147
6.31647
6.52741
6.80323
7.1502
7.52824
7.87198
8.15504
8.38947
8.62764
8.97009
9.49561
10.1229
10.6143
10.9261
10.8946
9.75528
7.62775
6.76318
6.65523
6.84153
7.09889
7.34003
7.54603
7.72015
7.87147
8.01921
8.19405
672.967
9.45261
10.3674
10.961
10.9666
10.8279
10.6545
10.6857
10.3072
8.05075
6.24396
6.13533
6.06823
6.24799
6.4714
6.76431
7.13151
7.53667
7.90266
8.18907
8.38469
8.55117
8.80647
9.29669
9.95841
10.6144
11.0703
10.9473
9.78454
7.65581
6.77228
6.69201
6.87216
7.09972
7.30385
7.49554
7.69714
7.91208
8.13238
8.34525
674.303
8.52366
10.293
10.8879
10.8517
10.6748
10.6986
11.0402
10.67
8.07685
6.20758
5.97587
5.9932
6.18795
6.43023
6.73956
7.11563
7.53443
7.91887
8.21755
8.40113
8.52922
8.73325
9.1555
9.79691
10.5939
11.1455
11.033
9.81531
7.67083
6.78542
6.73458
6.90142
7.09525
7.27145
7.46333
7.70604
7.98796
8.26379
8.45215
675.316
7.54944
10.1938
10.8339
10.7859
10.6198
10.842
11.3964
10.8971
8.02283
6.1085
5.81631
5.91775
6.14135
6.40439
6.72502
7.10368
7.52279
7.91718
8.23322
8.42911
8.54445
8.73132
9.10159
9.72259
10.5463
11.1722
11.1023
9.84478
7.67509
6.8055
6.77697
6.93218
7.10456
7.26825
7.47381
7.75402
8.0808
8.35912
8.49385
676.108
6.70576
10.0456
10.7886
10.7806
10.6656
11.049
11.6733
10.9955
7.92461
5.98509
5.68799
5.84124
6.09945
6.38959
6.71958
7.09522
7.50686
7.9023
8.23169
8.45423
8.58991
8.77336
9.13054
9.73915
10.5167
11.1632
11.1269
9.85489
7.66516
6.83096
6.82531
6.98352
7.14976
7.31576
7.54148
7.84109
8.16256
8.3875
8.48135
676.54
6.28966
9.86898
10.764
10.824
10.8352
11.2686
11.8013
10.9655
7.8214
5.86969
5.59715
5.77316
6.06
6.37758
6.71917
7.09226
7.49259
7.88056
8.21454
8.46568
8.65022
8.86404
9.22332
9.82726
10.513
11.1048
11.1036
9.83982
7.63479
6.86302
6.88961
7.06566
7.24258
7.41495
7.64413
7.92675
8.19771
8.37019
8.43012
676.605
6.16266
9.69933
10.7626
10.9128
11.0677
11.4311
11.7922
10.8419
7.72506
5.77336
5.54755
5.72616
6.02755
6.36819
6.72464
7.09776
7.48424
7.85657
8.18437
8.46238
8.7145
9.0002
9.39701
9.97825
10.551
11.0087
11.033
9.78688
7.57656
6.89477
6.96154
7.17078
7.37313
7.54954
7.75093
7.98382
8.19163
8.31086
8.36642
676.845
5.69427
9.58218
10.7979
11.0572
11.2957
11.5205
11.6865
10.6815
7.65478
5.70895
5.52261
5.70175
6.00915
6.36782
6.73863
7.11243
7.48096
7.8266
8.14017
8.44629
8.78246
9.17473
9.63256
10.1688
10.6471
10.9011
10.9271
9.67168
7.50603
6.93797
7.04917
7.27981
7.50357
7.67966
7.84467
8.01004
8.14057
8.23677
8.31418
676.729
5.47823
9.53151
10.8821
11.2008
11.453
11.5426
11.5318
10.5263
7.62168
5.68241
5.52432
5.69961
6.00986
6.38024
6.7603
7.13127
7.47381
7.78656
8.08922
8.43021
8.86797
9.38107
9.91657
10.4051
10.7344
10.846
10.8061
9.50086
7.42894
6.97222
7.11148
7.35556
7.59554
7.7743
7.90705
8.00253
8.08391
8.17321
8.28286
676.278
5.49904
9.54076
10.9742
11.306
11.5148
11.507
11.3708
10.3885
7.61657
5.68229
5.56233
5.72103
6.0327
6.40822
6.78967
7.14764
7.45836
7.74265
8.04395
8.43981
8.98736
9.61707
10.2007
10.6239
10.8375
10.8619
10.7202
9.28285
7.30799
6.96829
7.1302
7.39328
7.64352
7.81911
7.92633
7.98512
8.04111
8.13163
8.27399
675.622
5.69975
9.64787
11.033
11.342
11.4834
11.4336
11.2306
10.2805
7.63158
5.70605
5.61795
5.76715
6.07793
6.45053
6.82015
7.15205
7.4362
7.7064
8.02765
8.49583
9.14395
9.85912
10.4388
10.7655
10.9845
10.946
10.6703
9.00603
7.11789
6.89613
7.08775
7.36971
7.62521
7.80128
7.90549
7.95891
8.01305
8.11613
8.29214
674.933
5.9504
9.80008
11.0508
11.319
11.4038
11.3368
11.1206
10.2079
7.67523
5.74952
5.66586
5.83501
6.14489
6.49969
6.84132
7.14955
7.42224
7.70202
8.07328
8.61131
9.33576
10.0635
10.5971
10.8832
11.1663
11.0592
10.6173
8.67691
6.88484
6.76948
6.98191
7.28289
7.54486
7.7269
7.84234
7.91357
7.99325
8.12769
8.34679
673.707
6.73414
9.97552
11.0523
11.2571
11.2918
11.2418
11.0266
10.1548
7.74071
5.80512
5.70576
5.91043
6.21619
6.55049
6.85901
7.14717
7.43209
7.76101
8.19241
8.80219
9.53782
10.1983
10.6861
10.9865
11.3026
11.1615
10.5035
8.32449
6.66244
6.60567
6.8245
7.14398
7.41855
7.6056
7.73453
7.83791
7.96781
8.16375
8.43468
673.085
6.83623
10.16
11.0282
11.1747
11.1807
11.1454
10.9383
10.1108
7.81101
5.85713
5.72313
5.9646
6.267
6.58752
6.87851
7.16534
7.48981
7.88592
8.40278
9.04823
9.71091
10.2787
10.7411
11.0881
11.3709
11.2253
10.3279
7.97995
6.52112
6.44288
6.65194
6.97731
7.26562
7.46161
7.60064
7.73876
7.92472
8.19399
8.52909
671.609
7.9452
10.2993
10.9918
11.0947
11.0932
11.053
10.8534
10.0784
7.86681
5.89204
5.70602
5.94939
6.27096
6.59329
6.89644
7.2142
7.59939
8.09642
8.68257
9.30329
9.85143
10.3321
10.7821
11.1638
11.3775
11.1908
10.0891
7.67768
6.41924
6.32439
6.51421
6.81677
7.10254
7.3145
7.47246
7.63813
7.87557
8.20777
8.57554
670.078
9.26484
10.3896
10.9807
11.0475
11.04
10.9719
10.7739
10.0423
7.90397
5.91159
5.65658
5.85983
6.19685
6.55704
6.91267
7.30141
7.79136
8.36552
8.96709
9.51373
9.97436
10.3919
10.8237
11.2174
11.3275
11.0476
9.82357
7.44754
6.35703
6.26128
6.4263
6.68948
6.94905
7.17445
7.37628
7.57818
7.83998
8.18188
8.54055
668.957
10.443
10.4532
10.978
11.0197
11.0057
10.9021
10.7069
10.0115
7.92684
5.92746
5.59937
5.73604
6.07901
6.49929
6.95017
7.45566
8.02416
8.62084
9.17871
9.66818
10.0888
10.483
10.8821
11.2134
11.229
10.8571
9.58721
7.29988
6.32333
6.23367
6.37497
6.59868
6.82534
7.05223
7.30437
7.57811
7.85688
8.1503
8.44361
668.374
11.186
10.4915
10.9853
11.0185
11.0044
10.8616
10.66
9.98404
7.93313
5.93153
5.55369
5.61602
5.94867
6.43315
7.01828
7.63408
8.22514
8.75914
9.25367
9.71507
10.1579
10.5778
10.9466
11.1758
11.1149
10.688
9.42693
7.22855
6.31492
6.23357
6.35148
6.54132
6.73698
6.95781
7.25256
7.59601
7.91315
8.16218
8.37028
668.128
11.6483
10.5068
10.9773
10.9926
10.9847
10.8372
10.634
9.97632
7.94599
5.93736
5.5289
5.54906
5.8482
6.3612
7.04166
7.76214
8.3848
8.90074
9.35145
9.78234
10.2183
10.6435
10.987
11.1351
11.0271
10.5793
9.33295
7.18538
6.30407
6.2373
6.34702
6.51772
6.68726
6.90036
7.21156
7.58526
7.95325
8.17438
8.316
8.21839
8.53652
8.83793
9.02773
9.12874
9.21784
9.40323
9.81873
10.5635
11.1516
11.122
10.0176
7.56419
6.419
6.28963
6.39935
6.62052
6.86495
7.08781
7.29377
7.4247
7.528
7.63928
7.7852
7.96307
8.13733
8.26209
8.33008
8.35614
8.40137
8.52694
8.79984
9.23996
9.70833
9.94932
9.92136
9.23356
8.09973
7.7228
7.77687
8.00997
8.26165
8.37869
8.30896
8.15175
7.98031
7.88244
7.91094
8.13082
8.52985
9.02898
9.53308
9.86486
10.0139
10.005
9.84702
9.57403
9.20777
8.60815
7.84001
7.61425
7.7132
7.93663
8.06849
8.08674
8.03407
7.99653
7.99679
8.05018
8.17763
8.37083
8.63637
8.90185
9.11807
9.28622
9.46314
9.74166
9.89422
9.88466
9.37094
8.3512
8.70432
9.00238
9.1896
9.29465
9.40915
9.63144
10.0283
10.6166
10.8965
10.7089
9.46941
7.24744
6.45328
6.37406
6.5152
6.76858
7.02963
7.23767
7.38357
7.48139
7.57253
7.70167
7.87904
8.09167
8.28252
8.41111
8.4882
8.55644
8.66044
8.86409
9.18481
9.58023
9.8753
9.97054
9.71912
8.86855
7.87947
7.6722
7.78941
8.0376
8.26798
8.36456
8.31054
8.17201
8.04951
8.0094
8.08682
8.32444
8.72439
9.16197
9.56601
9.822
9.93192
9.93011
9.78371
9.48128
9.12357
8.48179
7.78345
7.6606
7.75397
7.96244
8.0524
8.07047
8.04184
8.01572
8.03063
8.10123
8.2417
8.4423
8.6616
8.878
9.09011
9.2642
9.46398
9.7779
9.95417
9.89003
9.37839
8.49992
8.81644
9.07359
9.2691
9.40663
9.55343
9.78348
10.167
10.6884
10.8687
10.6229
9.23612
7.10078
6.51315
6.50473
6.68981
6.95847
7.17906
7.31673
7.41764
7.51416
7.62661
7.79163
8.00952
8.23518
8.42348
8.57311
8.69134
8.80887
8.95306
9.16357
9.45359
9.79798
9.94064
9.96501
9.61611
8.57713
7.65569
7.57527
7.73816
7.9775
8.20401
8.33835
8.34838
8.27697
8.23571
8.27107
8.3954
8.62012
8.91555
9.20197
9.45679
9.67203
9.80794
9.85872
9.76428
9.46377
9.12906
8.46169
7.79725
7.67532
7.74847
7.87572
7.9847
8.05887
8.07003
8.06014
8.08607
8.1729
8.32023
8.49754
8.66547
8.81066
8.96538
9.14438
9.39315
9.79331
10.0375
9.94334
9.42598
8.65581
8.90356
9.14024
9.36873
9.55875
9.74248
9.97263
10.3252
10.7009
10.7011
10.3393
8.98033
7.0921
6.66097
6.74304
6.94543
7.16352
7.30908
7.39171
7.47508
7.60212
7.78846
8.00143
8.22764
8.43235
8.61855
8.80246
8.96863
9.1154
9.25396
9.42415
9.68898
9.99481
10.023
9.91161
9.39325
8.21061
7.48789
7.47578
7.62877
7.85186
8.08225
8.25342
8.35324
8.42227
8.52542
8.6625
8.81117
8.95454
9.06888
9.17398
9.31921
9.49314
9.67982
9.7913
9.73125
9.46519
9.15685
8.45805
7.80698
7.66717
7.69327
7.77007
7.91843
8.04776
8.10816
8.12522
8.17051
8.26776
8.40858
8.52317
8.62246
8.71021
8.8334
9.03382
9.34787
9.80967
10.0736
10.0195
9.47728
8.76406
8.95913
9.17621
9.43311
9.68123
9.88576
10.088
10.3562
10.5612
10.4432
10.0574
8.87354
7.25365
6.88596
7.00455
7.15137
7.29922
7.39289
7.46145
7.56928
7.75757
8.00837
8.25215
8.44315
8.60855
8.79043
9.00542
9.21002
9.36702
9.48425
9.64072
9.84701
10.0429
10.0134
9.83189
9.1614
7.91185
7.40899
7.42975
7.50056
7.65503
7.85206
8.0715
8.28677
8.49825
8.75601
9.03108
9.21029
9.24341
9.18429
9.13322
9.19206
9.33902
9.55382
9.7196
9.71998
9.53131
9.24068
8.47298
7.8013
7.62356
7.59774
7.67495
7.84426
8.02499
8.15784
8.21544
8.2742
8.36072
8.44193
8.50426
8.56185
8.62948
8.74513
8.95666
9.3275
9.81171
10.0958
10.1095
9.52137
8.83643
8.98477
9.18922
9.46641
9.74278
9.95421
10.1294
10.2615
10.2944
10.1156
9.81279
8.90654
7.54377
7.12892
7.20321
7.25953
7.3758
7.4597
7.55192
7.71553
7.95795
8.23944
8.4481
8.58587
8.72837
8.9122
9.14498
9.36873
9.53196
9.63003
9.73741
9.90485
10.0616
10.0041
9.7794
8.90996
7.71242
7.39279
7.37291
7.41298
7.50332
7.61806
7.81278
8.12733
8.54198
8.97733
9.32931
9.45509
9.40577
9.26308
9.12568
9.10853
9.22841
9.45524
9.66901
9.74393
9.6589
9.32117
8.43568
7.75204
7.55309
7.50773
7.60436
7.79027
8.01129
8.20409
8.31604
8.37559
8.41001
8.43427
8.46295
8.50609
8.57136
8.69555
8.93644
9.35097
9.8561
10.1278
10.18
9.52779
8.85339
8.97074
9.17292
9.44985
9.742
9.94421
10.0586
10.0623
10.0147
9.86196
9.71224
9.06271
7.82347
7.30185
7.31672
7.31608
7.40987
7.52357
7.67311
7.89007
8.16519
8.40619
8.53793
8.64617
8.7825
8.97563
9.22172
9.45532
9.60964
9.68906
9.79294
9.94781
10.0972
10.0103
9.72006
8.657
7.59488
7.39763
7.33175
7.35104
7.41655
7.50045
7.62567
7.92763
8.45525
9.01152
9.38215
9.51731
9.44469
9.2789
9.14181
9.09628
9.16922
9.38803
9.65849
9.83228
9.81424
9.35153
8.32996
7.67379
7.47003
7.42892
7.54659
7.75013
7.99714
8.23439
8.39793
8.43426
8.4154
8.40592
8.41261
8.46066
8.54716
8.71074
8.99152
9.42964
9.91626
10.1142
10.1484
9.42966
8.81153
8.92631
9.11348
9.37713
9.66355
9.84602
9.89609
9.83205
9.80394
9.74752
9.75003
9.2395
8.01827
7.4059
7.33245
7.3239
7.45105
7.62006
7.82486
8.07501
8.32088
8.47912
8.58079
8.67472
8.80727
9.004
9.25345
9.47892
9.62086
9.7267
9.86797
10.0236
10.1483
10.0826
9.63992
8.40807
7.52758
7.40173
7.30696
7.32578
7.39876
7.49317
7.63764
7.89467
8.29138
8.74384
9.10913
9.32147
9.37392
9.30854
9.20757
9.12481
9.15976
9.3668
9.67678
9.9519
9.95848
9.31667
8.20157
7.59795
7.40313
7.39129
7.52553
7.74298
7.99139
8.24758
8.42741
8.44054
8.39048
8.36104
8.37512
8.44194
8.57729
8.7991
9.11201
9.52458
9.94905
10.0889
10.0255
9.21847
8.751
8.85556
9.01877
9.25299
9.51047
9.66668
9.69646
9.69018
9.74078
9.77916
9.8559
9.37128
8.12964
7.4075
7.31611
7.35379
7.53132
7.76209
8.00899
8.23932
8.4111
8.4819
8.55158
8.64144
8.77724
8.97111
9.21332
9.45066
9.62368
9.7664
9.97374
10.1525
10.213
10.1449
9.49841
8.16589
7.4965
7.38026
7.3121
7.3597
7.4561
7.57974
7.75863
7.98681
8.19279
8.3894
8.63476
8.94594
9.19472
9.29129
9.25484
9.18879
9.20702
9.40323
9.71871
10.0469
10.0411
9.23925
8.0882
7.56473
7.37938
7.40447
7.56561
7.78172
8.02382
8.23896
8.38444
8.38712
8.34379
8.33321
8.37019
8.47784
8.67132
8.93256
9.24996
9.60665
9.91845
9.9702
9.83129
8.96907
8.6882
8.78197
8.9236
9.11591
9.3277
9.47526
9.5624
9.66536
9.79861
9.89869
9.9341
9.39531
8.14989
7.39196
7.33293
7.42196
7.65153
7.93489
8.18414
8.33998
8.38002
8.43662
8.51329
8.61848
8.76143
8.94287
9.16359
9.40933
9.634
9.83034
10.1
10.3143
10.2942
10.1525
9.28023
7.93239
7.45979
7.3609
7.35487
7.45072
7.58893
7.74773
7.95944
8.11091
8.16795
8.21103
8.30716
8.54954
8.90499
9.17983
9.25129
9.23589
9.30769
9.53709
9.796
10.0905
10.0043
9.12981
8.01169
7.58308
7.41967
7.47787
7.64993
7.86074
8.06351
8.21101
8.28958
8.31421
8.31673
8.33418
8.43629
8.59142
8.81246
9.07374
9.35879
9.65686
9.8703
9.90084
9.74656
8.81105
8.62993
8.73551
8.86511
9.01258
9.17419
9.33758
9.52553
9.72762
9.92518
10.0196
9.93052
9.34236
8.13827
7.40622
7.39111
7.53757
7.8054
8.09661
8.2755
8.31059
8.3399
8.39502
8.48964
8.61668
8.76217
8.92329
9.11713
9.36362
9.64955
9.94473
10.2642
10.4581
10.3804
10.1056
9.00922
7.73453
7.41789
7.34948
7.42466
7.5684
7.74814
7.96247
8.12943
8.17801
8.14351
8.12791
8.21106
8.37989
8.65224
8.96207
9.16405
9.25874
9.45382
9.76055
9.92377
10.0952
9.88056
8.99176
7.97881
7.66546
7.56716
7.64363
7.79988
7.96995
8.09184
8.1478
8.19145
8.24814
8.31321
8.41468
8.56647
8.76348
8.97992
9.18616
9.43345
9.73797
9.93606
9.94224
9.77512
8.78839
8.5806
8.73606
8.85914
8.95776
9.08025
9.26866
9.53664
9.8248
10.0425
10.0904
9.85336
9.28253
8.14295
7.4798
7.47756
7.68793
7.96332
8.18155
8.24911
8.271
8.29939
8.36802
8.48651
8.63417
8.78041
8.91902
9.08541
9.32894
9.67119
10.0733
10.4556
10.5844
10.4458
10.0003
8.72379
7.60144
7.3774
7.35114
7.47056
7.6794
7.92808
8.1296
8.20609
8.18319
8.13854
8.13693
8.20998
8.35707
8.54343
8.77125
9.03046
9.25824
9.58918
9.967
10.0363
10.0272
9.70344
8.73815
7.90221
7.76669
7.83249
7.91862
8.01727
8.08257
8.09336
8.08976
8.12756
8.22546
8.37479
8.5421
8.74407
8.96098
9.13198
9.29784
9.55137
9.8721
10.024
10.1005
9.87564
8.84867
8.5239
8.75185
8.87738
8.94513
9.0483
9.25704
9.573
9.89913
10.1055
10.1116
9.78052
9.25769
8.18468
7.59287
7.60248
7.84226
8.0624
8.17429
8.2084
8.22714
8.27195
8.36713
8.51275
8.67356
8.81508
8.93767
9.08516
9.31733
9.69798
10.1559
10.5469
10.6934
10.4679
9.81923
8.46977
7.51275
7.30953
7.33708
7.54323
7.81417
8.06326
8.19141
8.20106
8.1757
8.17128
8.20121
8.26716
8.37329
8.49442
8.66959
8.92329
9.25445
9.65894
10.0349
10.0955
9.92797
9.47019
8.4516
7.8351
7.81743
8.01645
8.20633
8.28125
8.23011
8.13877
8.09306
8.14277
8.29972
8.52651
8.73287
8.93733
9.11741
9.28174
9.46615
9.72135
10.0089
10.2411
10.2763
9.8798
8.85232
8.45827
8.72693
8.87593
8.96335
9.07911
9.29899
9.61562
9.91596
10.104
10.0651
9.75056
9.28838
8.26735
7.71464
7.72608
7.95296
8.0962
8.16604
8.18344
8.20532
8.27546
8.4029
8.56989
8.73264
8.86392
8.97604
9.11213
9.34015
9.72209
10.1706
10.5524
10.7316
10.4129
9.57802
8.2717
7.4421
7.26607
7.35739
7.62258
7.91858
8.1118
8.16682
8.16688
8.17983
8.22922
8.28947
8.33736
8.38043
8.45124
8.60676
8.89396
9.25813
9.6707
10.0146
10.0923
9.86522
9.28796
8.11074
7.6113
7.78841
8.10196
8.32553
8.39834
8.34678
8.25276
8.18621
8.2602
8.45627
8.73344
8.94422
9.0925
9.2358
9.42224
9.64309
9.89232
10.1875
10.3486
10.1807
9.65288
8.74562
8.36634
8.63608
8.83667
8.99855
9.16975
9.3971
9.65569
9.89161
10.0012
9.99226
9.77193
9.37169
8.38164
7.81181
7.80049
7.99409
8.09836
8.17366
8.20268
8.23772
8.32532
8.4737
8.64985
8.80478
8.92352
9.02906
9.16697
9.38993
9.72819
10.1068
10.4909
10.6316
10.2339
9.31698
8.14764
7.40291
7.24359
7.38989
7.6889
7.96019
8.09016
8.13038
8.14668
8.19804
8.27787
8.3444
8.37659
8.38848
8.43026
8.57486
8.86407
9.26098
9.65914
9.97407
10.0857
9.83985
9.27153
7.97751
7.3293
7.5231
7.92017
8.21832
8.35292
8.37176
8.3302
8.3339
8.45262
8.68524
8.97433
9.17932
9.2935
9.41325
9.58323
9.76772
10.03
10.189
10.1168
9.78052
9.34744
8.61979
8.23974
8.48801
8.76753
9.04344
9.29429
9.50871
9.68938
9.81543
9.87235
9.91669
9.84884
9.49258
8.50336
7.8539
7.80073
7.94121
8.07995
8.20825
8.27544
8.32761
8.41673
8.55989
8.72639
8.87089
8.98601
9.10067
9.25272
9.44284
9.68773
9.96849
10.2893
10.3595
9.9297
9.10468
8.11915
7.40575
7.2801
7.43991
7.71801
7.9478
8.06863
8.11069
8.15246
8.21688
8.28376
8.32557
8.35168
8.37193
8.4201
8.55964
8.8349
9.2196
9.58422
9.90688
10.0231
9.8256
9.29819
7.98976
7.22779
7.22397
7.48133
7.85474
8.12699
8.25243
8.31657
8.40256
8.58896
8.85816
9.12472
9.33659
9.50497
9.62069
9.71784
9.84626
9.94984
9.90143
9.68401
9.43092
9.11698
8.4461
8.104
8.33808
8.67383
9.05941
9.39124
9.59888
9.69706
9.74521
9.79363
9.88668
9.95265
9.60519
8.56613
7.81956
7.74808
7.83865
8.05262
8.26648
8.39024
8.46337
8.5447
8.65612
8.79093
8.92568
9.05154
9.18225
9.32592
9.4764
9.62558
9.77236
9.91465
9.89831
9.57908
9.00904
8.1829
7.45438
7.35723
7.48576
7.718
7.92368
8.0517
8.1189
8.16499
8.201
8.23088
8.25646
8.28814
8.34008
8.41864
8.5548
8.79935
9.1278
9.45888
9.83354
9.96709
9.78659
9.32865
8.04995
7.23616
7.16538
7.19616
7.39818
7.74167
8.03585
8.23201
8.39043
8.58684
8.84499
9.12735
9.40931
9.63831
9.76228
9.83669
9.84289
9.70869
9.50067
9.32447
9.10162
8.88721
8.24603
8.02015
8.22634
8.585
9.03127
9.38353
9.5686
9.64034
9.693
9.80845
9.93427
10.0657
9.68621
8.57608
7.73223
7.63168
7.72534
7.98963
8.30296
8.52107
8.62379
8.68778
8.75735
8.85632
8.97974
9.11239
9.24331
9.36078
9.45501
9.5104
9.49914
9.45123
9.42285
9.35381
9.03442
8.30161
7.55838
7.43093
7.51937
7.69146
7.87873
8.04604
8.14137
8.16929
8.16876
8.16533
8.17745
8.23106
8.32318
8.43849
8.574
8.76598
9.04133
9.3916
9.82348
9.98429
9.81276
9.36346
8.1219
7.27013
7.13188
7.09174
7.19003
7.39574
7.67343
7.97649
8.25065
8.46257
8.67556
8.95301
9.31904
9.66741
9.91198
9.94218
9.74668
9.43972
9.23149
9.10055
8.93956
8.75618
8.11136
8.01231
8.2259
8.57067
8.96001
9.27401
9.44011
9.5314
9.68723
9.90874
10.055
10.1655
9.70188
8.51835
7.62878
7.4918
7.60651
7.90149
8.26965
8.57584
8.74707
8.8052
8.84337
8.90772
9.01923
9.15609
9.28314
9.3521
9.37631
9.31402
9.19504
9.11956
9.12278
9.21261
9.08853
8.45569
7.71777
7.49918
7.51344
7.63121
7.83095
8.03308
8.1516
8.16593
8.14191
8.11867
8.12984
8.20768
8.34853
8.50698
8.64605
8.7833
8.99254
9.36878
9.84521
10.0716
9.98687
9.48947
8.25548
7.40752
7.22003
7.16294
7.21795
7.34347
7.53299
7.76074
7.99576
8.22167
8.46007
8.76922
9.17593
9.59289
9.8492
9.84322
9.60187
9.2808
9.19609
9.10489
8.94374
8.73653
8.06479
8.08202
8.30658
8.59197
8.85614
9.06377
9.23999
9.42792
9.72633
10.0452
10.216
10.2401
9.65241
8.42864
7.53919
7.36851
7.48993
7.79564
8.18342
8.53522
8.75203
8.81584
8.85395
8.91459
9.02415
9.18173
9.2845
9.32229
9.26224
9.11439
8.99633
8.95304
8.98086
9.09279
9.13372
8.61369
7.87132
7.56443
7.47858
7.57555
7.78387
8.00414
8.14458
8.16851
8.13384
8.10847
8.14908
8.26572
8.43598
8.61446
8.75348
8.85826
9.02826
9.40003
9.93259
10.2555
10.2985
9.71157
8.48179
7.64568
7.42899
7.38536
7.42894
7.51238
7.63698
7.79554
7.9565
8.12393
8.35416
8.65057
8.9297
9.08294
9.19394
9.28643
9.30084
9.26605
9.28422
9.29365
9.15419
8.92846
8.22821
8.22193
8.4338
8.61429
8.739
8.84565
9.03242
9.32373
9.74463
10.1563
10.3713
10.2928
9.60296
8.3473
7.47003
7.28711
7.39712
7.68083
8.05054
8.41735
8.66857
8.7552
8.8049
8.87746
8.99191
9.12906
9.23605
9.2804
9.17514
9.01238
8.90743
8.85313
8.93584
9.03322
9.1669
8.72415
7.974
7.61578
7.47126
7.55507
7.75166
7.96943
8.13527
8.19597
8.17599
8.18401
8.2432
8.39534
8.60202
8.77671
8.90451
9.00403
9.18845
9.58999
10.1315
10.4673
10.5369
9.87211
8.69708
7.92087
7.73799
7.74545
7.84684
7.93883
8.02368
8.14184
8.32036
8.52279
8.74142
8.85326
8.81973
8.73217
8.69245
8.76319
8.99366
9.30832
9.57706
9.69709
9.60513
9.36823
8.61342
8.37942
8.53584
8.59548
8.63068
8.69045
8.86553
9.21428
9.72652
10.2059
10.4429
10.3301
9.57331
8.29544
7.4306
7.25427
7.3618
7.61475
7.92921
8.2352
8.48006
8.60251
8.66003
8.73604
8.85211
8.99122
9.14326
9.20386
9.14295
8.99549
8.85751
8.8417
8.96775
9.03688
9.17352
8.76943
8.01517
7.65506
7.52294
7.58569
7.76615
7.96678
8.13306
8.24358
8.28932
8.33027
8.43692
8.61244
8.8126
8.96442
9.08441
9.21063
9.4374
9.84025
10.2871
10.5106
10.5263
9.90951
8.82259
8.10392
7.96143
8.06148
8.31429
8.57925
8.78227
8.94478
9.11288
9.23046
9.22018
9.04468
8.83491
8.66884
8.5811
8.58695
8.80412
9.24003
9.78177
10.1687
10.3184
10.1459
9.37445
8.48858
8.56153
8.57077
8.57851
8.6316
8.79554
9.13628
9.65856
10.1665
10.4259
10.303
9.56239
8.27939
7.43375
7.26711
7.37296
7.6018
7.84921
8.05587
8.21909
8.34312
8.43001
8.52852
8.6263
8.77103
8.95083
9.06581
9.11673
9.01047
8.93088
8.9487
9.06873
9.08859
9.15571
8.75852
8.02126
7.68638
7.65139
7.68081
7.82749
8.00421
8.17294
8.32769
8.45644
8.55611
8.6783
8.82484
8.97668
9.11397
9.25641
9.42908
9.68244
9.97894
10.2576
10.384
10.3645
9.86409
8.88447
8.20624
8.09718
8.24701
8.59926
9.00621
9.33311
9.53319
9.63277
9.61772
9.45109
9.16884
8.88158
8.65574
8.54658
8.57264
8.73721
9.14728
9.72347
10.2127
10.4599
10.3438
9.57492
8.52977
8.54702
8.54616
8.56942
8.65523
8.83751
9.1497
9.59638
10.0292
10.2936
10.2491
9.57923
8.29411
7.46578
7.31558
7.41078
7.60484
7.79446
7.92079
7.98742
8.03631
8.09691
8.1452
8.2311
8.4361
8.69475
8.89451
9.00705
9.03379
9.07417
9.1477
9.23209
9.22586
9.15647
8.74225
8.03124
7.76652
7.83284
7.86689
7.96306
8.09877
8.25878
8.46432
8.66616
8.79915
8.90973
9.01611
9.12449
9.24443
9.41715
9.64768
9.907
10.1087
10.2131
10.1619
10.0729
9.66701
8.86316
8.24096
8.17426
8.36069
8.73842
9.14417
9.44074
9.56835
9.55959
9.48271
9.31243
9.1265
8.87096
8.66788
8.5571
8.57106
8.76844
9.11649
9.5373
9.87861
10.0693
9.89193
9.1415
8.52763
8.52739
8.53458
8.6045
8.74761
8.96303
9.2174
9.53038
9.8518
10.0962
10.1749
9.59726
8.31808
7.50723
7.36793
7.43958
7.59453
7.73427
7.80067
7.80694
7.79483
7.77851
7.79866
7.93225
8.1513
8.42162
8.66292
8.83344
8.99959
9.19169
9.35889
9.44608
9.42469
9.2204
8.77759
8.04711
7.86529
7.9628
8.07585
8.13044
8.22345
8.37379
8.58357
8.81229
8.98844
9.07537
9.12198
9.19227
9.31832
9.51702
9.79044
10.0167
10.1181
10.0428
9.83375
9.65813
9.34596
8.73824
8.25039
8.22163
8.4072
8.72186
9.0159
9.20582
9.271
9.20977
9.12514
9.05034
8.93492
8.8159
8.7237
8.68235
8.71301
8.88728
9.20698
9.56087
9.74442
9.73287
9.46064
8.70718
8.50318
8.507
8.55422
8.69222
8.89774
9.12615
9.32316
9.50539
9.71753
9.90255
10.0676
9.58585
8.32986
7.53996
7.40418
7.4384
7.54743
7.62878
7.65211
7.6428
7.62431
7.64613
7.75192
7.91992
8.0849
8.19738
8.35431
8.5786
8.85405
9.16582
9.44685
9.67085
9.65007
9.3686
8.8946
8.11489
7.96205
8.05652
8.20226
8.27545
8.34484
8.45983
8.65233
8.88192
9.08363
9.16891
9.19956
9.25705
9.39146
9.61042
9.85018
10.002
9.97342
9.76646
9.45255
9.22555
9.01301
8.6097
8.27609
8.27932
8.4241
8.5889
8.73627
8.86113
8.9083
8.84982
8.77629
8.75266
8.77052
8.79113
8.81145
8.8598
8.96004
9.10887
9.30999
9.4993
9.52415
9.33286
8.99553
8.26594
8.4571
8.49684
8.61934
8.82303
9.07359
9.28807
9.40036
9.49871
9.63867
9.76815
9.94492
9.52419
8.29518
7.54639
7.40831
7.39588