/*--------------------------------*- C++ -*----------------------------------*\
| =========                 |                                                 |
| \\      /  F ield         | OpenFOAM: The Open Source CFD Toolbox           |
|  \\    /   O peration     | Version:  v1912                                 |
|   \\  /    A nd           | Website:  www.openfoam.com                      |
|    \\/     M anipulation  |                                                 |
\*---------------------------------------------------------------------------*/
FoamFile
{
    version     2.0;
    format      ascii;
    class       volTensorField;
    location    "4.96";
    object      grad(U);
}
// * * * * * * * * * * * * * * * * * * * * * * * * * * * * * * * * * * * * * //

dimensions      [0 0 -1 0 0 0 0];


internalField   nonuniform List<tensor> 
1900
(
(-4.79387 2.049e-05 0 9.24386e-07 1.16489e-05 0 0 0 0)
(4.44421 -5.76357e-05 0 1.05542e-05 2.91683e-05 0 0 0 0)
(0.526457 -0.000171817 0 2.40131e-05 -0.000147492 0 0 0 0)
(0.0704644 -0.000291242 0 -0.000299533 -0.000357161 0 0 0 0)
(0.0935011 -0.000868915 0 -0.000667498 -0.000886349 0 0 0 0)
(0.104528 -0.00130408 0 -0.00149367 -0.00232233 0 0 0 0)
(0.106359 0.00241452 0 -0.00285928 -0.00325125 0 0 0 0)
(0.101531 0.0144044 0 -0.00059901 0.0016473 0 0 0 0)
(0.0503296 0.0484322 0 0.00778585 0.0267696 0 0 0 0)
(0.0327972 0.161187 0 0.0607346 0.100388 0 0 0 0)
(-4.79386 2.03271e-05 0 2.90862e-06 -6.94734e-06 0 0 0 0)
(4.44423 -0.000101505 0 1.42429e-05 -1.35427e-05 0 0 0 0)
(0.526147 -0.000214512 0 -1.6806e-05 5.06884e-05 0 0 0 0)
(0.0697729 -0.000447615 0 -0.000506834 0.000158275 0 0 0 0)
(0.0923069 -0.00109625 0 -0.00104799 0.00034193 0 0 0 0)
(0.102337 -0.00106082 0 -0.0021978 0.00102719 0 0 0 0)
(0.107254 0.00155511 0 -0.00376903 0.00164601 0 0 0 0)
(0.112177 0.0156165 0 -0.000379545 -0.00138733 0 0 0 0)
(0.111663 0.0503087 0 0.0124258 -0.0127584 0 0 0 0)
(0.149354 0.121122 0 0.0893259 -0.0498195 0 0 0 0)
(-4.79385 -1.01791e-12 0 -3.36103e-13 -9.40305e-06 0 0 0 0)
(4.44419 -9.39049e-13 0 -5.1093e-14 -3.12512e-05 0 0 0 0)
(0.525936 2.11945e-12 0 -5.4471e-13 0.000193607 0 0 0 0)
(0.0694332 1.5249e-12 0 -3.99596e-13 0.000397772 0 0 0 0)
(0.0918101 -1.70033e-12 0 1.51619e-13 0.00108884 0 0 0 0)
(0.101807 -1.20481e-13 0 5.14318e-14 0.00259027 0 0 0 0)
(0.108177 8.90986e-14 0 4.03188e-14 0.00321049 0 0 0 0)
(0.117726 -7.95868e-14 0 -7.06087e-14 -0.000519943 0 0 0 0)
(0.140035 -8.13431e-14 0 -3.30682e-14 -0.0280226 0 0 0 0)
(0.199229 1.13979e-13 0 8.0502e-14 -0.101137 0 0 0 0)
(-4.79386 -2.03271e-05 0 -2.90862e-06 -6.94734e-06 0 0 0 0)
(4.44423 0.000101505 0 -1.42429e-05 -1.35427e-05 0 0 0 0)
(0.526147 0.000214512 0 1.6806e-05 5.06884e-05 0 0 0 0)
(0.0697729 0.000447615 0 0.000506834 0.000158275 0 0 0 0)
(0.0923069 0.00109625 0 0.00104799 0.00034193 0 0 0 0)
(0.102337 0.00106082 0 0.0021978 0.00102719 0 0 0 0)
(0.107254 -0.00155511 0 0.00376903 0.00164601 0 0 0 0)
(0.112177 -0.0156165 0 0.000379545 -0.00138733 0 0 0 0)
(0.111663 -0.0503087 0 -0.0124258 -0.0127584 0 0 0 0)
(0.149354 -0.121122 0 -0.0893259 -0.0498195 0 0 0 0)
(-4.79387 -2.049e-05 0 -9.24386e-07 1.16489e-05 0 0 0 0)
(4.44421 5.76357e-05 0 -1.05542e-05 2.91683e-05 0 0 0 0)
(0.526457 0.000171817 0 -2.40131e-05 -0.000147492 0 0 0 0)
(0.0704644 0.000291242 0 0.000299533 -0.000357161 0 0 0 0)
(0.0935011 0.000868915 0 0.000667498 -0.000886349 0 0 0 0)
(0.104528 0.00130408 0 0.00149367 -0.00232233 0 0 0 0)
(0.106359 -0.00241452 0 0.00285928 -0.00325125 0 0 0 0)
(0.101531 -0.0144044 0 0.00059901 0.0016473 0 0 0 0)
(0.0503296 -0.0484322 0 -0.00778585 0.0267696 0 0 0 0)
(0.0327972 -0.161187 0 -0.0607346 0.100388 0 0 0 0)
(0.172012 0.325588 -1.88155e-17 0.224851 -0.189401 2.82233e-17 4.44678e-17 6.03012e-17 -5.09995e-33)
(0.4561 0.485912 0 0.288584 -0.400721 0 -1.36615e-16 -3.74891e-17 0)
(0.696898 0.874698 0 0.28786 -0.707946 0 -2.2528e-16 -6.88847e-17 0)
(1.29351 1.38608 0 0.309663 -1.28296 0 0 0 0)
(1.76884 1.64587 2.63425e-16 1.01569 -3.15219 -3.95138e-16 -1.9593e-15 -1.3062e-15 -7.14016e-32)
(0.235305 0.12065 0 0.1741 -0.160914 0 8.50985e-17 2.60764e-17 0)
(0.373589 0.125031 0 0.148414 -0.259438 0 1.36615e-16 3.74891e-17 0)
(0.633189 0.346905 0 0.0630783 -0.499376 0 2.2528e-16 6.88847e-17 0)
(1.42644 0.732471 0 -0.0608921 -1.09932 0 0 0 0)
(2.70565 0.462299 0 -0.188638 -2.52092 0 0 0 0)
(0.295569 -1.34747e-14 0 -5.40137e-15 -0.255402 0 0 0 0)
(0.408213 1.77183e-13 0 -6.65738e-14 -0.310988 0 0 0 0)
(0.637759 5.79747e-14 0 8.05622e-14 -0.526086 0 0 0 0)
(1.35731 -2.42495e-13 0 1.43739e-14 -1.15192 0 0 0 0)
(2.4664 5.67587e-14 0 1.03257e-13 -3.11087 0 0 0 0)
(0.235305 -0.12065 0 -0.1741 -0.160914 0 8.50985e-17 -2.60764e-17 0)
(0.373589 -0.125031 0 -0.148414 -0.259438 0 1.36615e-16 -3.74891e-17 0)
(0.633189 -0.346905 0 -0.0630783 -0.499376 0 2.2528e-16 -6.88847e-17 0)
(1.42644 -0.732471 0 0.0608921 -1.09932 0 0 0 0)
(2.70565 -0.462299 0 0.188638 -2.52092 0 0 0 0)
(0.172012 -0.325588 1.88155e-17 -0.224851 -0.189401 2.82233e-17 -2.14665e-16 1.12454e-16 -5.09995e-33)
(0.4561 -0.485912 0 -0.288584 -0.400721 0 -1.36615e-16 3.74891e-17 0)
(0.696898 -0.874698 0 -0.28786 -0.707946 0 -2.2528e-16 6.88847e-17 0)
(1.29351 -1.38608 9.15065e-17 -0.309663 -1.28296 1.3726e-16 -8.01832e-16 5.34554e-16 -2.48029e-32)
(1.76884 -1.64587 -2.63425e-16 -1.01569 -3.15219 -3.95138e-16 1.9593e-15 -1.3062e-15 -7.14016e-32)
(1.58842 -0.706686 -1.20306e-17 0.169074 3.03784 -1.08276e-16 1.65157e-15 -9.14524e-17 3.26091e-33)
(-0.00453154 -0.187778 3.52595e-18 0.581946 1.23433 3.17335e-17 -1.41947e-15 1.18597e-16 9.5571e-34)
(0.0894674 0.0372564 0 0.432413 0.925381 0 0 0 0)
(0.316331 0.0748463 -1.84287e-18 0.315123 0.855239 -1.65859e-17 1.09982e-15 -9.53907e-17 4.99512e-34)
(0.411363 -0.421531 2.106e-18 0.294446 0.885715 1.8954e-17 -5.15852e-16 5.73169e-17 5.70831e-34)
(1.83456 -0.72552 0 -0.141209 -0.27899 0 -8.28332e-16 -1.8712e-20 0)
(0.15074 -0.0720031 0 0.573848 0.76622 0 7.18497e-16 -4.07115e-17 0)
(0.0417453 0.0383702 0 0.320561 0.784292 0 0 0 0)
(0.282894 0.0389439 0 0.149012 0.730292 0 -6.94441e-16 3.80226e-17 0)
(0.668487 -0.127564 0 0.144887 0.636904 0 1.32271e-16 -2.86515e-18 0)
(1.80145 3.36594e-14 0 2.19031e-14 0.556737 0 0 0 0)
(0.0844485 -2.71394e-14 0 -1.39e-13 1.17114 0 0 0 0)
(-0.0534474 -5.31905e-14 0 3.61401e-14 1.02128 0 0 0 0)
(0.24443 5.68022e-13 0 3.75573e-13 0.851544 0 2.79571e-16 -2.25726e-30 0)
(0.636442 2.02582e-12 0 4.34315e-13 0.761079 0 -2.64542e-16 -3.51627e-29 0)
(1.83456 0.72552 0 0.141209 -0.27899 0 -8.28332e-16 1.8712e-20 0)
(0.15074 0.0720031 0 -0.573848 0.76622 0 7.18497e-16 4.07115e-17 0)
(0.0417453 -0.0383702 0 -0.320561 0.784292 0 0 0 0)
(0.282894 -0.0389439 0 -0.149012 0.730292 0 -6.94441e-16 -3.80226e-17 0)
(0.668487 0.127564 0 -0.144887 0.636904 0 1.32271e-16 2.86515e-18 0)
(1.58842 0.706686 0 -0.169074 3.03784 0 8.28332e-16 -1.8712e-20 0)
(-0.00453154 0.187778 -3.52595e-18 -0.581946 1.23433 3.17335e-17 -1.75263e-17 3.71741e-17 9.5571e-34)
(0.0894674 -0.0372564 0 -0.432413 0.925381 0 0 0 0)
(0.316331 -0.0748463 1.84287e-18 -0.315123 0.855239 -1.65859e-17 9.49048e-18 -2.5757e-17 4.99512e-34)
(0.411363 0.421531 -2.106e-18 -0.294446 0.885715 1.8954e-17 5.15852e-16 5.73169e-17 5.70831e-34)
(0.360233 -0.476844 0 4.99283 1.81662 0 0 0 0)
(-0.791598 0.0133297 0 4.89123 1.61986 0 0 0 0)
(-1.88577 -0.102045 0 4.20656 1.60162 0 0 0 0)
(-1.63617 0.0799727 0 2.66236 1.55268 0 0 0 0)
(-1.07354 0.416975 0 1.21827 1.14569 0 0 0 0)
(-0.579652 0.344528 0 0.277538 0.71747 0 0 0 0)
(-0.318732 0.134295 0 0.0840921 0.496873 0 0 0 0)
(-0.146538 0.0475739 0 0.0370239 0.394458 0 0 0 0)
(-0.0841357 0.0235087 0 0.0212334 0.342322 0 0 0 0)
(-0.0685361 0.0185951 0 0.0128396 0.309255 0 0 0 0)
(-0.0375153 0.0153381 0 0.00787485 0.281412 0 0 0 0)
(0.0295172 0.00683125 0 3.14149e-05 0.263039 0 0 0 0)
(0.106278 0.00180817 0 -0.00304329 0.257252 0 0 0 0)
(0.158549 0.000854769 0 -0.00306791 0.254799 0 0 0 0)
(0.182997 0.000815959 0 -0.00241924 0.253253 0 0 0 0)
(0.194053 0.00081125 0 -0.00178817 0.251765 0 0 0 0)
(0.201302 0.00072903 0 -0.00128921 0.250412 0 0 0 0)
(0.207891 0.000577523 0 -0.000883901 0.249247 0 0 0 0)
(0.213678 0.000157814 0 -0.000482613 0.248461 0 0 0 0)
(0.218198 6.69204e-05 0 -4.35886e-05 0.248725 0 0 0 0)
(0.222161 0.00047549 0 0.000428189 0.248215 0 0 0 0)
(0.225532 0.000398759 0 0.000902227 0.247074 0 0 0 0)
(0.227673 7.50019e-05 0 0.00135346 0.246834 0 0 0 0)
(0.228883 -7.33724e-06 0 0.00178439 0.246816 0 0 0 0)
(0.229667 -4.23522e-05 0 0.00219693 0.246868 0 0 0 0)
(0.230124 -0.00010111 0 0.00258669 0.246973 0 0 0 0)
(0.230439 -3.64483e-05 0 0.00296057 0.247234 0 0 0 0)
(0.229744 -0.000260256 0 0.00330508 0.247105 0 0 0 0)
(0.227238 9.10477e-05 0 0.00358654 0.248138 0 0 0 0)
(0.223203 -0.000403247 0 0.00381527 0.246804 0 0 0 0)
(0.215364 4.2751e-05 0 0.00383627 0.249471 0 0 0 0)
(0.206406 -0.000461457 0 0.00359889 0.24672 0 0 0 0)
(0.195572 -0.000123098 0 0.00319543 0.251036 0 0 0 0)
(0.185128 -0.00188329 0 0.00227833 0.247361 0 0 0 0)
(0.172517 0.00132217 0 0.00143012 0.25722 0 0 0 0)
(0.160252 -0.00426713 0 -0.00110452 0.243453 0 0 0 0)
(0.116621 0.00108527 0 -0.00113266 0.271715 0 0 0 0)
(-0.0211961 -0.00699731 0 -0.0137576 0.238757 0 0 0 0)
(1.67277 -0.0219459 0 -0.000577901 0.303824 0 0 0 0)
(1.73185 -0.00521931 0 -0.0334322 0.309898 0 0 0 0)
(0.902506 -0.22521 0 0.811163 2.01214 0 0 0 0)
(-0.438271 -0.11464 0 2.2349 1.93854 0 0 0 0)
(-2.00196 -0.0993432 0 2.81468 1.96632 0 0 0 0)
(-2.05465 0.0475895 0 2.25343 2.28932 0 0 0 0)
(-1.47433 0.269843 0 1.11318 1.69141 0 0 0 0)
(-0.78468 0.220754 0 0.193744 0.855963 0 0 0 0)
(-0.360082 0.0766975 0 -0.00530898 0.5071 0 0 0 0)
(-0.152218 0.0235235 0 -0.0158083 0.394325 0 0 0 0)
(-0.0855205 0.0110862 0 -0.0120841 0.343565 0 0 0 0)
(-0.0696457 0.00945737 0 -0.010663 0.313514 0 0 0 0)
(-0.0384105 0.0078346 0 -0.0111888 0.279644 0 0 0 0)
(0.0295118 0.00303508 0 -0.0124192 0.260789 0 0 0 0)
(0.106891 0.000813997 0 -0.0111077 0.256162 0 0 0 0)
(0.159199 0.000407276 0 -0.00920652 0.254573 0 0 0 0)
(0.183613 0.000398167 0 -0.00745983 0.253223 0 0 0 0)
(0.194651 0.000400103 0 -0.00589522 0.251769 0 0 0 0)
(0.201877 0.000359349 0 -0.00445935 0.250435 0 0 0 0)
(0.208447 0.00028604 0 -0.00311902 0.249263 0 0 0 0)
(0.214225 7.55443e-05 0 -0.00184227 0.24845 0 0 0 0)
(0.218744 2.90807e-05 0 -0.000590998 0.24872 0 0 0 0)
(0.2227 0.000234603 0 0.000648211 0.24822 0 0 0 0)
(0.226058 0.00019697 0 0.00186978 0.247086 0 0 0 0)
(0.228183 3.56545e-05 0 0.00307278 0.246849 0 0 0 0)
(0.229376 -5.13579e-06 0 0.00426873 0.246828 0 0 0 0)
(0.230141 -2.26295e-05 0 0.00546976 0.246874 0 0 0 0)
(0.230573 -5.18338e-05 0 0.00668419 0.246973 0 0 0 0)
(0.230865 -1.95656e-05 0 0.0079153 0.247222 0 0 0 0)
(0.230138 -0.000130806 0 0.00920006 0.247099 0 0 0 0)
(0.22759 4.57123e-05 0 0.010526 0.248116 0 0 0 0)
(0.223498 -0.000199397 0 0.0119318 0.246786 0 0 0 0)
(0.215578 3.72756e-05 0 0.0134311 0.249502 0 0 0 0)
(0.206545 -0.000196839 0 0.0151185 0.246639 0 0 0 0)
(0.195644 3.7933e-06 0 0.0173349 0.251089 0 0 0 0)
(0.185162 -0.000869612 0 0.0201244 0.247062 0 0 0 0)
(0.172249 0.000756514 0 0.0241223 0.257562 0 0 0 0)
(0.160136 -0.00194753 0 0.0274674 0.242517 0 0 0 0)
(0.115664 0.000674589 0 0.0353059 0.272231 0 0 0 0)
(-0.0205647 -0.00419152 0 0.0356201 0.238786 0 0 0 0)
(1.6698 -0.00960509 0 0.0419882 0.296284 0 0 0 0)
(1.72713 -0.00053447 0 0.05696 0.314225 0 0 0 0)
(1.01291 1.77667e-13 0 3.60349e-12 1.56015 0 0 0 0)
(-0.208757 -8.78426e-12 0 2.55872e-12 2.08948 0 0 0 0)
(-1.88038 -8.42882e-12 0 -3.6096e-11 2.3483 0 0 0 0)
(-2.13115 2.16103e-13 0 -6.2523e-11 2.77247 0 0 0 0)
(-1.67272 -3.75436e-13 0 -5.15267e-11 2.02112 0 0 0 0)
(-0.90503 9.9592e-12 0 -1.48425e-11 0.917298 0 0 0 0)
(-0.379693 1.85357e-11 0 -2.93898e-11 0.503437 0 0 0 0)
(-0.148509 5.53401e-12 0 -5.35616e-11 0.390003 0 0 0 0)
(-0.0826389 -3.51083e-12 0 -5.42436e-11 0.341713 0 0 0 0)
(-0.0682757 -3.30141e-12 0 -4.70149e-11 0.313785 0 0 0 0)
(-0.0380262 -6.04994e-12 0 -3.30987e-11 0.276693 0 0 0 0)
(0.0295408 -1.42513e-12 0 -4.32035e-11 0.259922 0 0 0 0)
(0.107213 1.07942e-11 0 -6.47338e-11 0.255827 0 0 0 0)
(0.15961 2.02956e-11 0 -8.78366e-11 0.254326 0 0 0 0)
(0.18396 2.40414e-11 0 -9.78419e-11 0.253027 0 0 0 0)
(0.194926 7.32506e-12 0 -8.70358e-11 0.251588 0 0 0 0)
(0.20211 -3.72485e-11 0 -6.02499e-11 0.250277 0 0 0 0)
(0.208652 -8.31704e-11 0 -2.29343e-11 0.249118 0 0 0 0)
(0.214413 -4.69473e-11 0 1.19872e-11 0.24831 0 0 0 0)
(0.218923 4.32389e-11 0 3.88207e-11 0.248598 0 0 0 0)
(0.222877 9.0029e-11 0 6.15308e-11 0.24811 0 0 0 0)
(0.226237 2.8794e-11 0 8.16259e-11 0.246985 0 0 0 0)
(0.228371 -9.05947e-11 0 9.17176e-11 0.246756 0 0 0 0)
(0.22958 -1.13639e-10 0 8.14172e-11 0.24674 0 0 0 0)
(0.230369 -3.30525e-11 0 5.25207e-11 0.246791 0 0 0 0)
(0.230835 3.9069e-11 0 2.31103e-11 0.246896 0 0 0 0)
(0.231171 8.76014e-11 0 6.6777e-12 0.247148 0 0 0 0)
(0.230503 7.10912e-11 0 -5.63785e-13 0.24703 0 0 0 0)
(0.228032 2.5026e-11 0 -1.75818e-11 0.248047 0 0 0 0)
(0.224048 3.36531e-11 0 -6.37866e-11 0.246716 0 0 0 0)
(0.216291 -3.93911e-11 0 -1.49813e-10 0.249418 0 0 0 0)
(0.207542 -2.60289e-11 0 -2.61557e-10 0.24646 0 0 0 0)
(0.197028 5.77579e-11 0 -3.76015e-10 0.250771 0 0 0 0)
(0.187102 -3.82762e-11 0 -4.76022e-10 0.246434 0 0 0 0)
(0.174653 -6.50028e-11 0 -5.03917e-10 0.25675 0 0 0 0)
(0.163505 5.15483e-11 0 -4.52495e-10 0.241233 0 0 0 0)
(0.118993 3.6395e-11 0 -3.3531e-10 0.270139 0 0 0 0)
(-0.0192521 -5.16371e-11 0 -2.22009e-10 0.236595 0 0 0 0)
(1.67898 -6.61947e-11 0 -9.35804e-11 0.298956 0 0 0 0)
(1.73621 -3.23194e-11 0 2.40023e-11 0.30263 0 0 0 0)
(0.902506 0.22521 0 -0.811163 2.01214 0 0 0 0)
(-0.438271 0.11464 0 -2.2349 1.93854 0 0 0 0)
(-2.00196 0.0993432 0 -2.81468 1.96632 0 0 0 0)
(-2.05465 -0.0475895 0 -2.25343 2.28932 0 0 0 0)
(-1.47433 -0.269843 0 -1.11318 1.69141 0 0 0 0)
(-0.78468 -0.220754 0 -0.193744 0.855963 0 0 0 0)
(-0.360082 -0.0766975 0 0.00530898 0.5071 0 0 0 0)
(-0.152218 -0.0235235 0 0.0158083 0.394325 0 0 0 0)
(-0.0855205 -0.0110862 0 0.0120841 0.343565 0 0 0 0)
(-0.0696457 -0.00945737 0 0.010663 0.313514 0 0 0 0)
(-0.0384105 -0.0078346 0 0.0111888 0.279644 0 0 0 0)
(0.0295118 -0.00303508 0 0.0124192 0.260789 0 0 0 0)
(0.106891 -0.000813997 0 0.0111077 0.256162 0 0 0 0)
(0.159199 -0.000407276 0 0.00920652 0.254573 0 0 0 0)
(0.183613 -0.000398167 0 0.00745983 0.253223 0 0 0 0)
(0.194651 -0.000400103 0 0.00589522 0.251769 0 0 0 0)
(0.201877 -0.000359349 0 0.00445935 0.250435 0 0 0 0)
(0.208447 -0.00028604 0 0.00311902 0.249263 0 0 0 0)
(0.214225 -7.55444e-05 0 0.00184227 0.24845 0 0 0 0)
(0.218744 -2.90806e-05 0 0.000590998 0.24872 0 0 0 0)
(0.2227 -0.000234602 0 -0.000648211 0.24822 0 0 0 0)
(0.226058 -0.00019697 0 -0.00186978 0.247086 0 0 0 0)
(0.228183 -3.56547e-05 0 -0.00307278 0.246849 0 0 0 0)
(0.229376 5.13556e-06 0 -0.00426873 0.246828 0 0 0 0)
(0.230141 2.26294e-05 0 -0.00546976 0.246874 0 0 0 0)
(0.230573 5.18338e-05 0 -0.00668419 0.246973 0 0 0 0)
(0.230865 1.95657e-05 0 -0.0079153 0.247222 0 0 0 0)
(0.230138 0.000130806 0 -0.00920006 0.247099 0 0 0 0)
(0.22759 -4.57122e-05 0 -0.010526 0.248116 0 0 0 0)
(0.223498 0.000199397 0 -0.0119318 0.246786 0 0 0 0)
(0.215578 -3.72757e-05 0 -0.0134311 0.249502 0 0 0 0)
(0.206545 0.000196839 0 -0.0151185 0.246639 0 0 0 0)
(0.195644 -3.79318e-06 0 -0.0173349 0.251089 0 0 0 0)
(0.185162 0.000869612 0 -0.0201244 0.247062 0 0 0 0)
(0.172249 -0.000756514 0 -0.0241223 0.257562 0 0 0 0)
(0.160136 0.00194753 0 -0.0274674 0.242517 0 0 0 0)
(0.115664 -0.000674588 0 -0.0353059 0.272231 0 0 0 0)
(-0.0205647 0.00419152 0 -0.0356201 0.238786 0 0 0 0)
(1.6698 0.00960509 0 -0.0419882 0.296284 0 0 0 0)
(1.72713 0.00053447 0 -0.05696 0.314225 0 0 0 0)
(0.360233 0.476844 0 -4.99283 1.81662 0 0 0 0)
(-0.791598 -0.0133297 0 -4.89123 1.61986 0 0 0 0)
(-1.88577 0.102045 0 -4.20656 1.60162 0 0 0 0)
(-1.63617 -0.0799727 0 -2.66236 1.55268 0 0 0 0)
(-1.07354 -0.416975 0 -1.21827 1.14569 0 0 0 0)
(-0.579652 -0.344528 0 -0.277538 0.71747 0 0 0 0)
(-0.318732 -0.134295 0 -0.0840921 0.496873 0 0 0 0)
(-0.146538 -0.0475739 0 -0.0370239 0.394458 0 0 0 0)
(-0.0841357 -0.0235087 0 -0.0212334 0.342322 0 0 0 0)
(-0.0685361 -0.0185951 0 -0.0128396 0.309255 0 0 0 0)
(-0.0375153 -0.0153381 0 -0.00787485 0.281412 0 0 0 0)
(0.0295172 -0.00683125 0 -3.1415e-05 0.263039 0 0 0 0)
(0.106278 -0.00180817 0 0.00304329 0.257252 0 0 0 0)
(0.158549 -0.000854769 0 0.00306791 0.254799 0 0 0 0)
(0.182997 -0.000815959 0 0.00241924 0.253253 0 0 0 0)
(0.194053 -0.00081125 0 0.00178817 0.251765 0 0 0 0)
(0.201302 -0.00072903 0 0.00128921 0.250412 0 0 0 0)
(0.207891 -0.000577523 0 0.000883901 0.249247 0 0 0 0)
(0.213678 -0.000157814 0 0.000482613 0.248461 0 0 0 0)
(0.218198 -6.69204e-05 0 4.35884e-05 0.248725 0 0 0 0)
(0.222161 -0.00047549 0 -0.00042819 0.248215 0 0 0 0)
(0.225532 -0.000398759 0 -0.000902228 0.247074 0 0 0 0)
(0.227673 -7.5002e-05 0 -0.00135346 0.246834 0 0 0 0)
(0.228883 7.33702e-06 0 -0.00178439 0.246816 0 0 0 0)
(0.229667 4.23522e-05 0 -0.00219693 0.246868 0 0 0 0)
(0.230124 0.00010111 0 -0.00258669 0.246973 0 0 0 0)
(0.230439 3.64485e-05 0 -0.00296057 0.247234 0 0 0 0)
(0.229744 0.000260256 0 -0.00330508 0.247105 0 0 0 0)
(0.227238 -9.10477e-05 0 -0.00358654 0.248138 0 0 0 0)
(0.223203 0.000403247 0 -0.00381527 0.246804 0 0 0 0)
(0.215364 -4.27511e-05 0 -0.00383627 0.249471 0 0 0 0)
(0.206406 0.000461457 0 -0.00359889 0.24672 0 0 0 0)
(0.195572 0.000123098 0 -0.00319543 0.251036 0 0 0 0)
(0.185128 0.00188329 0 -0.00227833 0.247361 0 0 0 0)
(0.172517 -0.00132217 0 -0.00143012 0.25722 0 0 0 0)
(0.160252 0.00426713 0 0.00110452 0.243453 0 0 0 0)
(0.116621 -0.00108527 0 0.00113266 0.271715 0 0 0 0)
(-0.0211961 0.00699731 0 0.0137576 0.238757 0 0 0 0)
(1.67277 0.0219459 0 0.000577902 0.303824 0 0 0 0)
(1.73185 0.00521931 0 0.0334322 0.309898 0 0 0 0)
(0.845786 0.067358 0 -6.6034 0.330984 0 0 0 0)
(0.463467 0.12774 0 -4.95249 0.91024 0 0 0 0)
(-0.738187 0.0540757 0 -3.43488 1.20366 0 0 0 0)
(-0.664038 -0.296138 0 -1.91691 0.949904 0 0 0 0)
(-0.441819 -0.623625 0 -0.915386 0.713044 0 0 0 0)
(-0.310308 -0.484625 0 -0.352236 0.561477 0 0 0 0)
(-0.257024 -0.212717 0 -0.182891 0.455256 0 0 0 0)
(-0.119355 -0.0926611 0 -0.0871773 0.38142 0 0 0 0)
(-0.0719515 -0.0501681 0 -0.0583694 0.333154 0 0 0 0)
(-0.062549 -0.0370989 0 -0.0443022 0.299623 0 0 0 0)
(-0.0314114 -0.0281486 0 -0.0344587 0.277623 0 0 0 0)
(0.0363543 -0.0138006 0 -0.0184731 0.263579 0 0 0 0)
(0.109544 -0.00483342 0 -0.00842013 0.257609 0 0 0 0)
(0.15956 -0.00239819 0 -0.00551298 0.254421 0 0 0 0)
(0.183523 -0.00181845 0 -0.0048204 0.252627 0 0 0 0)
(0.194633 -0.00170695 0 -0.00425428 0.251109 0 0 0 0)
(0.201975 -0.00151101 0 -0.00346281 0.249786 0 0 0 0)
(0.208583 -0.00117304 0 -0.00256738 0.248688 0 0 0 0)
(0.214331 -0.000308224 0 -0.00172582 0.247943 0 0 0 0)
(0.218803 -0.000139223 0 -0.000979435 0.248235 0 0 0 0)
(0.222731 -0.000991643 0 -0.000319088 0.247741 0 0 0 0)
(0.226087 -0.000829986 0 0.000298092 0.246607 0 0 0 0)
(0.22822 -0.000151791 0 0.00091209 0.246375 0 0 0 0)
(0.229417 2.35831e-05 0 0.00151396 0.246368 0 0 0 0)
(0.230185 9.8078e-05 0 0.00209449 0.246429 0 0 0 0)
(0.230615 0.000224769 0 0.00264826 0.246543 0 0 0 0)
(0.230906 8.27541e-05 0 0.00314428 0.246824 0 0 0 0)
(0.230201 0.00054808 0 0.00360935 0.246678 0 0 0 0)
(0.227677 -0.000182029 0 0.00406039 0.247733 0 0 0 0)
(0.223683 0.000799632 0 0.0044622 0.246389 0 0 0 0)
(0.215961 -8.34307e-05 0 0.00503568 0.248941 0 0 0 0)
(0.207108 0.000872944 0 0.00582675 0.246288 0 0 0 0)
(0.196556 0.000251579 0 0.00665169 0.250207 0 0 0 0)
(0.186308 0.00357628 0 0.00826841 0.246651 0 0 0 0)
(0.174061 -0.00255408 0 0.00933908 0.255146 0 0 0 0)
(0.16161 0.00835769 0 0.012118 0.24355 0 0 0 0)
(0.122495 -0.00314532 0 0.0117176 0.266797 0 0 0 0)
(-0.0201826 0.0210886 0 0.031607 0.237626 0 0 0 0)
(1.67871 0.0399606 0 0.0105546 0.315784 0 0 0 0)
(1.74228 -0.00107259 0 -0.00711171 0.301819 0 0 0 0)
(1.40013 0.489178 0 -3.17617 -0.364396 0 0 0 0)
(1.5887 0.751968 0 -2.75585 0.227869 0 0 0 0)
(0.424045 0.165989 0 -2.01536 0.438689 0 0 0 0)
(0.270415 -0.436836 0 -1.18664 0.306838 0 0 0 0)
(0.095499 -0.680466 0 -0.689267 0.265523 0 0 0 0)
(-0.0182236 -0.517816 0 -0.434372 0.379901 0 0 0 0)
(-0.0964018 -0.265751 0 -0.225694 0.386365 0 0 0 0)
(-0.0411219 -0.141059 0 -0.120658 0.353017 0 0 0 0)
(-0.0493533 -0.0880358 0 -0.0763914 0.31892 0 0 0 0)
(-0.0487054 -0.0621848 0 -0.0607347 0.28912 0 0 0 0)
(-0.0158985 -0.043202 0 -0.0419464 0.272864 0 0 0 0)
(0.0509426 -0.0223798 0 -0.0219215 0.262291 0 0 0 0)
(0.117016 -0.00901113 0 -0.0086511 0.257021 0 0 0 0)
(0.161475 -0.00482835 0 -0.00445302 0.253727 0 0 0 0)
(0.183927 -0.00346977 0 -0.00368852 0.251609 0 0 0 0)
(0.19505 -0.00306845 0 -0.00337335 0.250019 0 0 0 0)
(0.202567 -0.00264287 0 -0.00283577 0.248735 0 0 0 0)
(0.209194 -0.0020344 0 -0.00218997 0.247673 0 0 0 0)
(0.214858 -0.000513127 0 -0.0016188 0.246951 0 0 0 0)
(0.21923 -0.000222689 0 -0.00116679 0.247266 0 0 0 0)
(0.223087 -0.00176793 0 -0.000828947 0.246784 0 0 0 0)
(0.226421 -0.00148376 0 -0.000542881 0.245655 0 0 0 0)
(0.228552 -0.000264265 0 -0.000249011 0.245429 0 0 0 0)
(0.229736 5.07089e-05 0 3.45607e-05 0.245435 0 0 0 0)
(0.230482 0.00018113 0 0.00029088 0.245506 0 0 0 0)
(0.230872 0.000415037 0 0.000509551 0.245624 0 0 0 0)
(0.231115 0.000141808 0 0.000658905 0.245928 0 0 0 0)
(0.230382 0.000982301 0 0.000737696 0.245744 0 0 0 0)
(0.227824 -0.000320342 0 0.000798317 0.246841 0 0 0 0)
(0.223885 0.00135446 0 0.000784757 0.245491 0 0 0 0)
(0.216359 -0.000118227 0 0.000975998 0.24791 0 0 0 0)
(0.207588 0.00146133 0 0.00145092 0.245576 0 0 0 0)
(0.197397 0.000403595 0 0.00185488 0.249015 0 0 0 0)
(0.187085 0.00573444 0 0.00311532 0.245942 0 0 0 0)
(0.175399 -0.00364998 0 0.00325895 0.252888 0 0 0 0)
(0.161815 0.0133012 0 0.00567157 0.244755 0 0 0 0)
(0.132252 -0.00568848 0 0.00379894 0.261368 0 0 0 0)
(-0.0228602 0.0466467 0 0.0255803 0.241172 0 0 0 0)
(1.63227 0.0741442 0 0.00568877 0.304991 0 0 0 0)
(1.70924 -0.00486394 0 -0.00919227 0.31528 0 0 0 0)
(1.25082 0.638086 0 -0.729638 -0.0134996 0 0 0 0)
(1.58206 0.901622 0 -0.988586 0.033381 0 0 0 0)
(0.773958 0.130173 0 -0.829482 -0.0110431 0 0 0 0)
(0.613836 -0.463007 0 -0.64738 -0.061259 0 0 0 0)
(0.283094 -0.553219 0 -0.444001 0.0668279 0 0 0 0)
(0.136408 -0.368177 0 -0.393732 0.245463 0 0 0 0)
(0.045282 -0.238623 0 -0.209202 0.322676 0 0 0 0)
(0.0245185 -0.157654 0 -0.151399 0.312424 0 0 0 0)
(-0.0142075 -0.111742 0 -0.0952698 0.29938 0 0 0 0)
(-0.0293565 -0.08148 0 -0.0788313 0.277548 0 0 0 0)
(0.00599047 -0.054001 0 -0.0500315 0.267387 0 0 0 0)
(0.0684388 -0.0290676 0 -0.026946 0.26031 0 0 0 0)
(0.126377 -0.0130867 0 -0.0117714 0.255965 0 0 0 0)
(0.164342 -0.00761296 0 -0.00617953 0.2527 0 0 0 0)
(0.184564 -0.00539151 0 -0.00472478 0.250347 0 0 0 0)
(0.195455 -0.00447676 0 -0.00411657 0.248697 0 0 0 0)
(0.203115 -0.00377175 0 -0.00342168 0.247442 0 0 0 0)
(0.209756 -0.00289224 0 -0.00266503 0.246402 0 0 0 0)
(0.215317 -0.000699742 0 -0.00201927 0.245712 0 0 0 0)
(0.219564 -0.000300096 0 -0.00152245 0.246044 0 0 0 0)
(0.223332 -0.00254496 0 -0.00116573 0.245563 0 0 0 0)
(0.226645 -0.00213595 0 -0.000868604 0.244427 0 0 0 0)
(0.228776 -0.000363751 0 -0.000553691 0.244203 0 0 0 0)
(0.229938 9.83995e-05 0 -0.000253923 0.244226 0 0 0 0)
(0.230643 0.000280466 0 2.65317e-06 0.244312 0 0 0 0)
(0.230969 0.000631211 0 0.000204522 0.244432 0 0 0 0)
(0.231126 0.000198579 0 0.000319112 0.244776 0 0 0 0)
(0.230336 0.00142738 0 0.000310629 0.244527 0 0 0 0)
(0.227722 -0.000425829 0 0.000292652 0.245689 0 0 0 0)
(0.223854 0.00182982 0 0.000174367 0.244332 0 0 0 0)
(0.216603 -1.9584e-06 0 0.000331535 0.246553 0 0 0 0)
(0.207955 0.00193808 0 0.000883344 0.244717 0 0 0 0)
(0.19816 0.000604194 0 0.001305 0.247436 0 0 0 0)
(0.187661 0.00730843 0 0.00270369 0.245242 0 0 0 0)
(0.176524 -0.00369716 0 0.00273443 0.250184 0 0 0 0)
(0.16213 0.0165291 0 0.00553282 0.245615 0 0 0 0)
(0.14168 -0.00659871 0 0.00405511 0.255606 0 0 0 0)
(-0.0183615 0.0631252 0 0.0233063 0.244718 0 0 0 0)
(1.64521 0.111374 0 0.000777173 0.286869 0 0 0 0)
(1.72794 0.00884294 0 -0.0118011 0.290736 0 0 0 0)
(1.1506 0.534354 0 -0.162193 0.188987 0 0 0 0)
(1.49249 0.754335 0 -0.243387 -0.000721716 0 0 0 0)
(0.752843 0.0747907 0 -0.249354 -0.103317 0 0 0 0)
(0.641879 -0.361796 0 -0.380177 -0.133846 0 0 0 0)
(0.339924 -0.384897 0 -0.302511 0.118562 0 0 0 0)
(0.208037 -0.271272 0 -0.305454 0.203236 0 0 0 0)
(0.137118 -0.201225 0 -0.196558 0.275837 0 0 0 0)
(0.0686676 -0.163507 0 -0.15752 0.275786 0 0 0 0)
(0.0205758 -0.121644 0 -0.11512 0.274326 0 0 0 0)
(-0.00511218 -0.0930145 0 -0.0903806 0.264246 0 0 0 0)
(0.0341 -0.0598133 0 -0.0571098 0.259533 0 0 0 0)
(0.0878114 -0.0333862 0 -0.0312425 0.25681 0 0 0 0)
(0.137028 -0.0163445 0 -0.0155922 0.253673 0 0 0 0)
(0.168266 -0.0102421 0 -0.00904701 0.250954 0 0 0 0)
(0.185915 -0.00732749 0 -0.00675601 0.248726 0 0 0 0)
(0.196306 -0.00586809 0 -0.00557191 0.247159 0 0 0 0)
(0.203965 -0.0048536 0 -0.00450778 0.245968 0 0 0 0)
(0.210545 -0.00370141 0 -0.00349972 0.244996 0 0 0 0)
(0.215959 -0.000858909 0 -0.00266441 0.244351 0 0 0 0)
(0.220052 -0.000366885 0 -0.00200725 0.244709 0 0 0 0)
(0.223717 -0.00332546 0 -0.00150847 0.244231 0 0 0 0)
(0.227011 -0.00279413 0 -0.00107396 0.243081 0 0 0 0)
(0.229144 -0.000458642 0 -0.000612234 0.242844 0 0 0 0)
(0.230272 0.000156201 0 -0.000173123 0.242867 0 0 0 0)
(0.230923 0.000380276 0 0.000204866 0.242943 0 0 0 0)
(0.231177 0.000862064 0 0.000516921 0.243029 0 0 0 0)
(0.231217 0.00023305 0 0.000743347 0.243394 0 0 0 0)
(0.230356 0.00186214 0 0.000785493 0.24302 0 0 0 0)
(0.227693 -0.000507989 0 0.000852995 0.24422 0 0 0 0)
(0.223922 0.00218655 0 0.000822002 0.24282 0 0 0 0)
(0.217042 0.000252925 0 0.00115081 0.244748 0 0 0 0)
(0.208526 0.00231226 0 0.00201027 0.243412 0 0 0 0)
(0.199151 0.000909286 0 0.00273857 0.245372 0 0 0 0)
(0.188462 0.00838313 0 0.00455203 0.244031 0 0 0 0)
(0.178125 -0.00329108 0 0.00497646 0.247202 0 0 0 0)
(0.163088 0.0185255 0 0.0083896 0.244699 0 0 0 0)
(0.149379 -0.00655287 0 0.00782778 0.249604 0 0 0 0)
(-0.026019 0.0767726 0 0.0244494 0.245208 0 0 0 0)
(1.59844 0.118489 0 -0.00425751 0.282804 0 0 0 0)
(1.69712 -0.00113755 0 -0.0362598 0.286707 0 0 0 0)
(1.17258 0.455276 0 -0.054916 0.224514 0 0 0 0)
(1.49807 0.619947 0 -0.0331884 0.0325526 0 0 0 0)
(0.642142 0.0018897 0 -0.0689588 -0.0499931 0 0 0 0)
(0.562613 -0.249197 0 -0.236384 -0.0580266 0 0 0 0)
(0.3551 -0.228395 0 -0.227111 0.154423 0 0 0 0)
(0.238508 -0.216621 0 -0.214414 0.198688 0 0 0 0)
(0.187836 -0.168711 0 -0.179445 0.240812 0 0 0 0)
(0.102994 -0.15911 0 -0.142993 0.251939 0 0 0 0)
(0.050491 -0.122863 0 -0.123771 0.251776 0 0 0 0)
(0.0265447 -0.0957342 0 -0.0894436 0.252636 0 0 0 0)
(0.0629781 -0.0611668 0 -0.0579869 0.252313 0 0 0 0)
(0.108447 -0.0347154 0 -0.0320866 0.252866 0 0 0 0)
(0.147765 -0.0187295 0 -0.0175588 0.250855 0 0 0 0)
(0.172857 -0.0123795 0 -0.0109738 0.248771 0 0 0 0)
(0.187912 -0.00904837 0 -0.00823616 0.246869 0 0 0 0)
(0.197621 -0.0071348 0 -0.00664727 0.245488 0 0 0 0)
(0.205112 -0.0058564 0 -0.0053156 0.244387 0 0 0 0)
(0.211532 -0.0044503 0 -0.00414978 0.243503 0 0 0 0)
(0.216755 -0.000976822 0 -0.00320668 0.24292 0 0 0 0)
(0.220678 -0.000416016 0 -0.0024493 0.243319 0 0 0 0)
(0.224231 -0.00411302 0 -0.00185469 0.242847 0 0 0 0)
(0.227509 -0.00347193 0 -0.00132448 0.241675 0 0 0 0)
(0.229645 -0.00056978 0 -0.000763742 0.24141 0 0 0 0)
(0.230725 0.000193926 0 -0.000249024 0.241414 0 0 0 0)
(0.231308 0.00043658 0 0.000165094 0.241452 0 0 0 0)
(0.231488 0.001065 0 0.000481995 0.241461 0 0 0 0)
(0.231384 0.000189784 0 0.000728594 0.241825 0 0 0 0)
(0.230441 0.00222422 0 0.000626782 0.241286 0 0 0 0)
(0.227757 -0.000618499 0 0.000555529 0.242508 0 0 0 0)
(0.224141 0.00233802 0 0.000343595 0.241065 0 0 0 0)
(0.217748 0.00056841 0 0.000451853 0.242659 0 0 0 0)
(0.209485 0.00253935 0 0.00110489 0.241818 0 0 0 0)
(0.200609 0.0012006 0 0.0015042 0.243082 0 0 0 0)
(0.189818 0.00907204 0 0.00280613 0.24242 0 0 0 0)
(0.180222 -0.00305335 0 0.00238397 0.244292 0 0 0 0)
(0.164878 0.0188434 0 0.00426167 0.243674 0 0 0 0)
(0.157156 -0.00610886 0 0.00226334 0.244926 0 0 0 0)
(-0.0300073 0.0951179 0 0.0130563 0.245991 0 0 0 0)
(1.5867 0.151365 0 -0.0124084 0.279272 0 0 0 0)
(1.6971 0.0126048 0 -0.0412662 0.282536 0 0 0 0)
(1.17153 0.349373 0 -0.0517868 0.267253 0 0 0 0)
(1.47896 0.48981 0 -0.010493 0.0683056 0 0 0 0)
(0.557037 -0.0124947 0 -0.0450446 0.0287568 0 0 0 0)
(0.489478 -0.164813 0 -0.153552 0.0588184 0 0 0 0)
(0.361095 -0.137517 0 -0.18344 0.16454 0 0 0 0)
(0.25397 -0.188024 0 -0.162276 0.193592 0 0 0 0)
(0.205943 -0.14991 0 -0.162747 0.213545 0 0 0 0)
(0.122317 -0.152942 0 -0.138814 0.230217 0 0 0 0)
(0.0721777 -0.120973 0 -0.126524 0.233686 0 0 0 0)
(0.0582793 -0.0924966 0 -0.0903281 0.24132 0 0 0 0)
(0.0893714 -0.0595914 0 -0.0586454 0.245986 0 0 0 0)
(0.126769 -0.0347914 0 -0.0344649 0.248167 0 0 0 0)
(0.157373 -0.0202906 0 -0.020734 0.247403 0 0 0 0)
(0.177249 -0.0140833 0 -0.0139342 0.246014 0 0 0 0)
(0.190084 -0.0104913 0 -0.0105416 0.244565 0 0 0 0)
(0.19912 -0.00825985 0 -0.00834307 0.243435 0 0 0 0)
(0.206372 -0.00676652 0 -0.00656909 0.242626 0 0 0 0)
(0.212577 -0.0051146 0 -0.00511402 0.241871 0 0 0 0)
(0.217597 -0.00103605 0 -0.00395508 0.241397 0 0 0 0)
(0.221355 -0.000437539 0 -0.00300745 0.241868 0 0 0 0)
(0.224801 -0.00490937 0 -0.0022285 0.241413 0 0 0 0)
(0.228062 -0.00417919 0 -0.00151062 0.240209 0 0 0 0)
(0.23018 -0.00070982 0 -0.000749382 0.239894 0 0 0 0)
(0.231167 0.000196583 0 -3.86109e-05 0.239852 0 0 0 0)
(0.231628 0.000424996 0 0.000565023 0.239812 0 0 0 0)
(0.23172 0.0012219 0 0.00110154 0.239691 0 0 0 0)
(0.231357 6.44355e-05 0 0.00164879 0.240024 0 0 0 0)
(0.230189 0.0025207 0 0.00178746 0.239263 0 0 0 0)
(0.22742 -0.000721223 0 0.00208263 0.240486 0 0 0 0)
(0.223822 0.00233211 0 0.00235308 0.238992 0 0 0 0)
(0.217776 0.000979325 0 0.00307182 0.240225 0 0 0 0)
(0.20954 0.00271969 0 0.00450296 0.239843 0 0 0 0)
(0.20079 0.0014894 0 0.00579992 0.24052 0 0 0 0)