/*--------------------------------*- C++ -*----------------------------------*\
| =========                 |                                                 |
| \\      /  F ield         | OpenFOAM: The Open Source CFD Toolbox           |
|  \\    /   O peration     | Version:  v1912                                 |
|   \\  /    A nd           | Website:  www.openfoam.com                      |
|    \\/     M anipulation  |                                                 |
\*---------------------------------------------------------------------------*/
FoamFile
{
    version     2.0;
    format      ascii;
    class       volScalarField;
    location    "5.76";
    object      T;
}
// * * * * * * * * * * * * * * * * * * * * * * * * * * * * * * * * * * * * * //

dimensions      [0 0 0 1 0 0 0];


internalField   nonuniform List<scalar> 
1900
(
1.17983
0.915677
0.927452
0.948183
0.96108
0.967104
0.968774
0.96898
0.969377
0.968686
1.17983
0.91568
0.927452
0.948186
0.961097
0.967109
0.968722
0.96902
0.969361
0.968469
1.17983
0.915682
0.927453
0.948191
0.961113
0.967117
0.968673
0.968902
0.969051
0.96844
1.17983
0.91568
0.927452
0.948186
0.961097
0.967109
0.968722
0.96902
0.969361
0.968469
1.17983
0.915677
0.927452
0.948183
0.96108
0.967104
0.968774
0.96898
0.969377
0.968686
0.97239
0.967694
0.969907
0.975454
1.00789
0.967627
0.964426
0.965699
0.969965
0.990748
0.967016
0.963641
0.964521
0.969624
0.989874
0.967627
0.964426
0.965699
0.969965
0.990748
0.97239
0.967694
0.969907
0.975454
1.00789
0.800168
0.694214
0.6851
0.681296
0.667556
0.82066
0.709647
0.695533
0.68872
0.677724
0.820856
0.703507
0.689308
0.683366
0.673213
0.82066
0.709647
0.695533
0.68872
0.677724
0.800168
0.694214
0.6851
0.681296
0.667556
0.579424
0.502437
0.50409
0.552734
0.572372
0.595587
0.59516
0.576635
0.544622
0.517974
0.501946
0.49177
0.483036
0.474617
0.466701
0.46025
0.455994
0.453496
0.451894
0.450643
0.44956
0.448611
0.447798
0.447136
0.446621
0.44626
0.446041
0.446016
0.446222
0.446748
0.447453
0.448558
0.449709
0.451453
0.453111
0.456588
0.461406
0.469072
0.453726
0.393798
0.598662
0.495746
0.496936
0.554936
0.576658
0.600233
0.598137
0.578372
0.545466
0.518273
0.502069
0.491818
0.48306
0.474685
0.466733
0.460259
0.455992
0.453491
0.45189
0.450639
0.449557
0.448608
0.447795
0.447132
0.446616
0.446255
0.446035
0.44601
0.446215
0.446741
0.447446
0.448553
0.449701
0.451449
0.453097
0.456594
0.461416
0.469101
0.454044
0.394917
0.597459
0.494497
0.492875
0.549987
0.574222
0.597939
0.59682
0.578457
0.545847
0.518427
0.502122
0.491837
0.483071
0.474711
0.466745
0.460262
0.455991
0.453489
0.451888
0.450638
0.449556
0.448607
0.447794
0.447131
0.446615
0.446253
0.446033
0.446007
0.446212
0.446738
0.447444
0.44855
0.449698
0.451448
0.453093
0.456597
0.461424
0.469142
0.454223
0.395328
0.598662
0.495746
0.496936
0.554936
0.576658
0.600233
0.598137
0.578372
0.545466
0.518273
0.502069
0.491818
0.48306
0.474685
0.466733
0.460259
0.455992
0.453491
0.45189
0.450639
0.449557
0.448608
0.447795
0.447132
0.446616
0.446255
0.446035
0.44601
0.446215
0.446741
0.447446
0.448553
0.449701
0.451449
0.453097
0.456594
0.461416
0.469101
0.454044
0.394917
0.579424
0.502437
0.50409
0.552734
0.572372
0.595587
0.59516
0.576635
0.544622
0.517974
0.501946
0.49177
0.483036
0.474617
0.466701
0.46025
0.455994
0.453496
0.451894
0.450643
0.44956
0.448611
0.447798
0.447136
0.446621
0.44626
0.446041
0.446016
0.446222
0.446748
0.447453
0.448558
0.449709
0.451453
0.453111
0.456588
0.461406
0.469072
0.453726
0.393798
0.534445
0.507935
0.51763
0.55542
0.571893
0.590888
0.588307
0.570102
0.541096
0.516522
0.501306
0.491467
0.482814
0.474326
0.466492
0.46017
0.455989
0.45351
0.451907
0.450652
0.449567
0.44862
0.447809
0.44715
0.446638
0.446279
0.446062
0.446039
0.446245
0.446769
0.447474
0.448573
0.449728
0.451455
0.45315
0.456554
0.461345
0.46895
0.453582
0.395248
0.523419
0.511946
0.530077
0.543358
0.56181
0.578851
0.573389
0.556133
0.532614
0.512605
0.499683
0.490626
0.482137
0.473653
0.466008
0.459981
0.455982
0.453556
0.45195
0.450686
0.449599
0.448654
0.44785
0.447197
0.446692
0.44634
0.446128
0.446109
0.446318
0.446839
0.44754
0.448626
0.449787
0.451492
0.453227
0.456518
0.461214
0.468622
0.454335
0.394943
0.489332
0.49362
0.511224
0.534107
0.556055
0.562542
0.556169
0.541206
0.523143
0.507798
0.497438
0.489273
0.481027
0.472709
0.46536
0.459716
0.455965
0.453621
0.45202
0.450746
0.449656
0.448717
0.447922
0.44728
0.446785
0.446444
0.44624
0.446228
0.446441
0.446957
0.447655
0.448724
0.449895
0.451576
0.453343
0.456492
0.461062
0.468286
0.455385
0.397368
0.471212
0.492579
0.511737
0.528059
0.544241
0.546012
0.539298
0.527503
0.514117
0.502964
0.494827
0.487539
0.479563
0.47155
0.464614
0.459411
0.45594
0.453696
0.452107
0.450826
0.449735
0.448804
0.448022
0.447394
0.446913
0.446586
0.446394
0.44639
0.446611
0.447121
0.447813
0.448864
0.450042
0.451704
0.453482
0.456499
0.460922
0.468119
0.456342
0.399416
0.467302
0.493979
0.510065
0.522087
0.532165
0.530565
0.524627
0.515748
0.506086
0.49839
0.491996
0.485428
0.477799
0.47022
0.463814
0.459091
0.455914
0.453778
0.452208
0.450926
0.449839
0.44892
0.448154
0.447543
0.447078
0.446768
0.446589
0.446597
0.446823
0.447323
0.448006
0.449035
0.450213
0.451853
0.453631
0.456527
0.460784
0.468091
0.457193
0.400916
0.465742
0.493397
0.506473
0.515112
0.519735
0.517436
0.512466
0.506094
0.499535
0.494366
0.489287
0.483188
0.475923
0.468861
0.46305
0.458815
0.455916
0.453888
0.452344
0.451065
0.449988
0.449085
0.448337
0.447746
0.447299
0.447005
0.446844
0.446868
0.447095
0.447586
0.448257
0.449263
0.450437
0.452058
0.453828
0.456639
0.460766
0.468246
0.457989
0.402222
0.462571
0.489739
0.500593
0.506992
0.508
0.506272
0.502626
0.498602
0.494415
0.490794
0.486491
0.480708
0.473897
0.467481
0.462322
0.458582
0.455948
0.45403
0.452519
0.451255
0.450193
0.449309
0.448582
0.44801
0.44758
0.4473
0.447155
0.447191
0.447411
0.447884
0.448535
0.449507
0.450662
0.452254
0.454005
0.456728
0.460736
0.468494
0.458891
0.403724
0.457423
0.484365
0.495126
0.498077
0.498277
0.497151
0.495094
0.492913
0.490418
0.48775
0.483841
0.478298
0.472006
0.466304
0.461795
0.458506
0.456116
0.454298
0.452826
0.451583
0.450542
0.44968
0.448973
0.448418
0.448002
0.447735
0.447601
0.447647
0.447855
0.448304
0.448926
0.449857
0.450984
0.452539
0.454267
0.456911
0.460854
0.468818
0.459709
0.405332
0.451789
0.478963
0.489373
0.489379
0.491368
0.49091
0.489992
0.488837
0.487244
0.484977
0.481167
0.475898
0.47023
0.46528
0.461411
0.45853
0.456363
0.454649
0.453227
0.452015
0.451001
0.450163
0.449475
0.448935
0.44853
0.448269
0.448141
0.448188
0.448373
0.448786
0.449366
0.450245
0.451327
0.452837
0.454532
0.457103
0.460985
0.469142
0.460652
0.407275
0.448081
0.474756
0.48361
0.48412
0.487008
0.48662
0.486217
0.485678
0.484579
0.482419
0.478626
0.473741
0.468793
0.464585
0.461315
0.45882
0.456857
0.455251
0.45389
0.452718
0.451736
0.450918
0.450242
0.449707
0.449301
0.449037
0.448901
0.448933
0.449082
0.449444
0.449966
0.450777
0.451802
0.453252
0.45491
0.45741
0.461263
0.469537
0.461582
0.409444
0.445578
0.471407
0.479533
0.481025
0.484125
0.4837
0.48363
0.483332
0.482314
0.480015
0.476281
0.471907
0.467699
0.464188
0.461432
0.459234
0.457452
0.455947
0.454648
0.453521
0.452571
0.451778
0.451117
0.450592
0.450192
0.449931
0.449791
0.449811
0.449925
0.450237
0.450701
0.451444
0.452409
0.453801
0.455421
0.457858
0.461682
0.470047
0.462628
0.411808
0.444094
0.468903
0.476445
0.478761
0.482121
0.481646
0.481749
0.48147
0.480317
0.477875
0.474353
0.47055
0.46709
0.464237
0.461895
0.459977
0.458359
0.45696
0.455736
0.454659
0.453743
0.452964
0.452305
0.451777
0.45137
0.451104
0.450949
0.450944
0.451015
0.451269
0.451668
0.452337
0.453241
0.454571
0.456156
0.458532
0.462334
0.47078
0.4639
0.414735
0.443161
0.467465
0.474787
0.477747
0.481107
0.480438
0.480473
0.479997
0.478595
0.476126
0.472902
0.469728
0.466883
0.464531
0.462535
0.460829
0.459335
0.458012
0.456839
0.455804
0.454925
0.454181
0.453554
0.453054
0.452668
0.452419
0.452261
0.452246
0.452286
0.452494
0.452838
0.453448
0.454309
0.455607
0.457191
0.459557
0.463394
0.471964
0.4655
0.418036
0.443806
0.467371
0.474423
0.477773
0.480967
0.480073
0.479872
0.478995
0.477279
0.474919
0.472182
0.469652
0.467381
0.465421
0.463717
0.46221
0.460851
0.459628
0.458533
0.457553
0.456702
0.455959
0.455322
0.45481
0.454416
0.454162
0.453985
0.453948
0.453956
0.454117
0.454406
0.454956
0.455783
0.457057
0.458656
0.461031
0.464917
0.473655
0.467674
0.42199
0.446177
0.468473
0.475277
0.478533
0.481288
0.480158
0.479627
0.478418
0.476555
0.474459
0.472226
0.470151
0.468269
0.466622
0.465136
0.463773
0.462505
0.461324
0.460233
0.459248
0.45843
0.457759
0.457193
0.456727
0.456354
0.45611
0.455924
0.455878
0.455868
0.456004
0.456254
0.456764
0.457581
0.458862
0.460506
0.462913
0.466885
0.475886
0.470491
0.426884
0.44972
0.471065
0.477601
0.480585
0.482608
0.481279
0.480412
0.479043
0.477217
0.475417
0.473536
0.471895
0.47038
0.469034
0.46779
0.466645
0.465583
0.464592
0.463654
0.462766
0.461976
0.461264
0.460608
0.460034
0.459564
0.459254
0.458995
0.458886
0.458809
0.458886
0.459067
0.459513
0.460309
0.461585
0.463267
0.465739
0.469804
0.478995
0.473886
0.431775
0.45455
0.475616
0.482049
0.484163
0.485132
0.483687
0.482468
0.481059
0.479378
0.477926
0.47643
0.475161
0.47395
0.472887
0.471901
0.470999
0.47014
0.469299
0.468469
0.467653
0.466901
0.466195
0.46551
0.464877
0.4643
0.463898
0.463531
0.463382
0.46325
0.463301
0.463473
0.463932
0.464782
0.46613
0.46794
0.470532
0.47478
0.484207
0.479394
0.437416
0.454986
0.483534
0.492844
0.492255
0.491718
0.489752
0.488052
0.486684
0.485333
0.48429
0.483204
0.482183
0.481067
0.479969
0.478884
0.477939
0.477158
0.476505
0.47589
0.475236
0.474522
0.473722
0.472871
0.472178
0.47171
0.471561
0.471526
0.47159
0.471702
0.47193
0.472263
0.472848
0.473873
0.475428
0.477546
0.480407
0.484916
0.494558
0.488452
0.440581
0.342528
0.459477
0.491925
0.488899
0.487545
0.484181
0.481634
0.479118
0.477017
0.475099
0.47334
0.471639
0.469987
0.468352
0.466719
0.465137
0.463639
0.462326
0.461316
0.460616
0.45994
0.459384
0.459208
0.459476
0.459937
0.460562
0.461332
0.461992
0.462812
0.463647
0.464587
0.46572
0.467177
0.469287
0.472058
0.475282
0.480299
0.488725
0.460788
0.342938
0.335793
0.346637
0.435483
0.432788
0.428122
0.423325
0.419183
0.416022
0.413542
0.411417
0.409633
0.408012
0.406623
0.405378
0.404301
0.403435
0.402787
0.402361
0.402155
0.402111
0.4018
0.401463
0.401558
0.402082
0.402956
0.404146
0.405668
0.407257
0.40915
0.411258
0.413613
0.416482
0.419662
0.4239
0.429006
0.434238
0.439713
0.441757
0.343834
0.334362
0.335793
0.346637
0.435483
0.432788
0.428122
0.423325
0.419183
0.416022
0.413542
0.411417
0.409633
0.408012
0.406623
0.405378
0.404301
0.403435
0.402787
0.402361
0.402155
0.402111
0.4018
0.401463
0.401558
0.402082
0.402956
0.404146
0.405668
0.407257
0.40915
0.411258
0.413613
0.416482
0.419662
0.4239
0.429006
0.434238
0.439713
0.441757
0.343834
0.334362
0.342528
0.459477
0.491925
0.488899
0.487545
0.484181
0.481634
0.479118
0.477017
0.475099
0.47334
0.471639
0.469987
0.468352
0.466719
0.465137
0.463639
0.462326
0.461316
0.460616
0.45994
0.459384
0.459208
0.459476
0.459937
0.460562
0.461332
0.461992
0.462812
0.463647
0.464587
0.46572
0.467177
0.469287
0.472058
0.475282
0.480299
0.488725
0.460788
0.342938
0.454986
0.483534
0.492844
0.492255
0.491718
0.489752
0.488052
0.486684
0.485333
0.48429
0.483204
0.482183
0.481067
0.479969
0.478884
0.477939
0.477158
0.476505
0.47589
0.475236
0.474522
0.473722
0.472871
0.472178
0.47171
0.471561
0.471526
0.47159
0.471702
0.47193
0.472263
0.472848
0.473873
0.475428
0.477546
0.480407
0.484916
0.494558
0.488452
0.440581
0.45455
0.475616
0.482049
0.484163
0.485132
0.483687
0.482468
0.481059
0.479378
0.477926
0.47643
0.475161
0.47395
0.472887
0.471901
0.470999
0.47014
0.469299
0.468469
0.467653
0.466901
0.466195
0.46551
0.464877
0.4643
0.463898
0.463531
0.463382
0.46325
0.463301
0.463473
0.463932
0.464782
0.46613
0.46794
0.470532
0.47478
0.484207
0.479394
0.437416
0.44972
0.471065
0.477601
0.480585
0.482608
0.481279
0.480412
0.479043
0.477217
0.475417
0.473536
0.471895
0.47038
0.469034
0.46779
0.466645
0.465583
0.464592
0.463654
0.462766
0.461976
0.461264
0.460608
0.460034
0.459564
0.459254
0.458995
0.458886
0.458809
0.458886
0.459067
0.459513
0.460309
0.461585
0.463267
0.465739
0.469804
0.478995
0.473886
0.431775
0.446177
0.468473
0.475277
0.478533
0.481288
0.480158
0.479627
0.478418
0.476555
0.474459
0.472226
0.470151
0.468269
0.466622
0.465136
0.463773
0.462505
0.461324
0.460233
0.459248
0.45843
0.457759
0.457193
0.456727
0.456354
0.45611
0.455924
0.455878
0.455868
0.456004
0.456254
0.456764
0.457581
0.458862
0.460506
0.462913
0.466885
0.475886
0.470491
0.426884
0.443806
0.467371
0.474423
0.477773
0.480967
0.480073
0.479872
0.478995
0.477279
0.474919
0.472182
0.469652
0.467381
0.465421
0.463717
0.46221
0.460851
0.459628
0.458533
0.457553
0.456702
0.455959
0.455322
0.45481
0.454416
0.454162
0.453985
0.453948
0.453956
0.454117
0.454406
0.454956
0.455783
0.457057
0.458656
0.461031
0.464917
0.473655
0.467674
0.42199
0.443161
0.467465
0.474787
0.477747
0.481107
0.480438
0.480473
0.479997
0.478595
0.476126
0.472902
0.469728
0.466883
0.464531
0.462535
0.460829
0.459335
0.458012
0.456839
0.455804
0.454925
0.454181
0.453554
0.453054
0.452668
0.452419
0.452261
0.452246
0.452286
0.452494
0.452838
0.453448
0.454309
0.455607
0.457191
0.459557
0.463394
0.471964
0.4655
0.418036
0.444094
0.468903
0.476445
0.478761
0.482121
0.481646
0.481749
0.48147
0.480317
0.477875
0.474353
0.47055
0.46709
0.464237
0.461895
0.459977
0.458359
0.45696
0.455736
0.454659
0.453743
0.452964
0.452305
0.451777
0.45137
0.451104
0.450949
0.450944
0.451015
0.451269
0.451668
0.452337
0.453241
0.454571
0.456156
0.458532
0.462334
0.47078
0.4639
0.414735
0.445578
0.471407
0.479533
0.481025
0.484125
0.4837
0.48363
0.483332
0.482314
0.480015
0.476281
0.471907
0.467699
0.464188
0.461432
0.459234
0.457452
0.455947
0.454648
0.453521
0.452571
0.451778
0.451117
0.450592
0.450192
0.449931
0.449791
0.449811
0.449925
0.450237
0.450701
0.451444
0.452409
0.453801
0.455421
0.457858
0.461682
0.470047
0.462628
0.411808
0.448081
0.474756
0.48361
0.48412
0.487008
0.48662
0.486217
0.485678
0.484579
0.482419
0.478626
0.473741
0.468793
0.464585
0.461315
0.45882
0.456857
0.455251
0.45389
0.452718
0.451736
0.450918
0.450242
0.449707
0.449301
0.449037
0.448901
0.448933
0.449082
0.449444
0.449966
0.450777
0.451802
0.453252
0.45491
0.45741
0.461263
0.469537
0.461582
0.409444
0.451789
0.478963
0.489373
0.489379
0.491368
0.49091
0.489992
0.488837
0.487244
0.484977
0.481167
0.475898
0.47023
0.46528
0.461411
0.45853
0.456363
0.454649
0.453227
0.452015
0.451001
0.450163
0.449475
0.448935
0.44853
0.448269
0.448141
0.448188
0.448373
0.448786
0.449366
0.450245
0.451327
0.452837
0.454532
0.457103
0.460985
0.469142
0.460652
0.407275
0.457423
0.484365
0.495126
0.498077
0.498277
0.497151
0.495094
0.492913
0.490418
0.48775
0.483841
0.478298
0.472006
0.466304
0.461795
0.458506
0.456116
0.454298
0.452826
0.451583
0.450542
0.44968
0.448973
0.448418
0.448002
0.447735
0.447601
0.447647
0.447855
0.448304
0.448926
0.449857
0.450984
0.452539
0.454267
0.456911
0.460854
0.468818
0.459709
0.405332
0.462571
0.489739
0.500593
0.506992
0.508
0.506272
0.502626
0.498602
0.494415
0.490794
0.486491
0.480708
0.473897
0.467481
0.462322
0.458582
0.455948
0.45403
0.452519
0.451255
0.450193
0.449309
0.448582
0.44801
0.44758
0.4473
0.447155
0.447191
0.447411
0.447884
0.448535
0.449507
0.450662
0.452254
0.454005
0.456728
0.460736
0.468494
0.458891
0.403724
0.465742
0.493397
0.506473
0.515112
0.519735
0.517436
0.512466
0.506094
0.499535
0.494366
0.489287
0.483188
0.475923
0.468861
0.46305
0.458815
0.455916
0.453888
0.452344
0.451065
0.449988
0.449085
0.448337
0.447746
0.447299
0.447005
0.446844
0.446868
0.447095
0.447586
0.448257
0.449263
0.450437
0.452058
0.453828
0.456639
0.460766
0.468246
0.457989
0.402222
0.467302
0.493979
0.510065
0.522087
0.532165
0.530565
0.524627
0.515748
0.506086
0.49839
0.491996
0.485428
0.477799
0.47022
0.463814
0.459091
0.455914
0.453778
0.452208
0.450926
0.449839
0.44892
0.448154
0.447543
0.447078
0.446768
0.446589
0.446597
0.446823
0.447323
0.448006
0.449035
0.450213
0.451853
0.453631
0.456527
0.460784
0.468091
0.457193
0.400916
0.471212
0.492579
0.511737
0.528059
0.544241
0.546012
0.539298
0.527503
0.514117
0.502964
0.494827
0.487539
0.479563
0.47155
0.464614
0.459411
0.45594
0.453696
0.452107
0.450826
0.449735
0.448804
0.448022
0.447394
0.446913
0.446586
0.446394
0.44639
0.446611
0.447121
0.447813
0.448864
0.450042
0.451704
0.453482
0.456499
0.460922
0.468119
0.456342
0.399416
0.489332
0.49362
0.511224
0.534107
0.556055
0.562542
0.556169
0.541206
0.523143
0.507798
0.497438
0.489273
0.481027
0.472709
0.46536
0.459716
0.455965
0.453621
0.45202
0.450746
0.449656
0.448717
0.447922
0.44728
0.446785
0.446444
0.44624
0.446228
0.446441
0.446957
0.447655
0.448724
0.449895
0.451576
0.453343
0.456492
0.461062
0.468286
0.455385
0.397368
0.523419
0.511946
0.530077
0.543358
0.56181
0.578851
0.573389
0.556133
0.532614
0.512605
0.499683
0.490626
0.482137
0.473653
0.466008
0.459981
0.455982
0.453556
0.45195
0.450686
0.449599
0.448654
0.44785
0.447197
0.446692
0.44634
0.446128
0.446109
0.446318
0.446839
0.44754
0.448626
0.449787
0.451492
0.453227
0.456518
0.461214
0.468622
0.454335
0.394943
0.534445
0.507935
0.51763
0.55542
0.571893
0.590888
0.588307
0.570102
0.541096
0.516522
0.501306
0.491467
0.482814
0.474326
0.466492
0.46017
0.455989
0.45351
0.451907
0.450652
0.449567
0.44862
0.447809
0.44715
0.446638
0.446279
0.446062
0.446039
0.446245
0.446769
0.447474
0.448573
0.449728
0.451455
0.45315
0.456554
0.461345
0.46895
0.453582
0.395248
)
;

boundaryField
{
    inlet
    {
        type            fixedValue;
        value           uniform 1;
    }
    outlet
    {
        type            zeroGradient;
    }
    obstacle
    {
        type            zeroGradient;
    }
    empty
    {
        type            empty;
    }
}


// ************************************************************************* //
