/*--------------------------------*- C++ -*----------------------------------*\
| =========                 |                                                 |
| \\      /  F ield         | OpenFOAM: The Open Source CFD Toolbox           |
|  \\    /   O peration     | Version:  v1912                                 |
|   \\  /    A nd           | Website:  www.openfoam.com                      |
|    \\/     M anipulation  |                                                 |
\*---------------------------------------------------------------------------*/
FoamFile
{
    version     2.0;
    format      ascii;
    class       volVectorField;
    location    "8.94";
    object      grad(rho);
}
// * * * * * * * * * * * * * * * * * * * * * * * * * * * * * * * * * * * * * //

dimensions      [1 -4 0 0 0 0 0];


internalField   nonuniform List<vector> 
1900
(
(-43485.7 0.0309532 0)
(18013.7 -0.061255 0)
(6464.35 -0.0963688 0)
(5351.31 -0.403646 0)
(1759.94 -0.13345 0)
(-362.324 1.10959 0)
(-788.534 1.23332 0)
(-958.728 -1.84203 0)
(-1074.69 71.3168 0)
(5.84034 21.7147 0)
(-43485.7 0.0230846 0)
(18013.6 -0.116656 0)
(6464 -0.0131892 0)
(5351.27 -0.19425 0)
(1761.46 0.972675 0)
(-360.957 5.44729 0)
(-791.486 3.02479 0)
(-888.644 -28.4033 0)
(-1051.13 11.1598 0)
(-1105.76 -68.812 0)
(-43485.8 5.73763e-09 0)
(18013.7 2.82441e-09 0)
(6464.27 3.10862e-09 0)
(5352.3 4.61853e-09 0)
(1765.59 5.1692e-09 0)
(-360.272 3.35731e-09 0)
(-822.385 -1.52767e-09 0)
(-950.593 -4.9738e-10 0)
(-1115.09 3.01981e-10 0)
(-1227.21 0 0)
(-43485.7 -0.0230846 0)
(18013.6 0.116656 0)
(6464 0.0131893 0)
(5351.27 0.19425 0)
(1761.46 -0.972675 0)
(-360.957 -5.44729 0)
(-791.486 -3.02479 0)
(-888.644 28.4033 0)
(-1051.13 -11.1598 0)
(-1105.76 68.812 0)
(-43485.7 -0.0309532 0)
(18013.7 0.061255 0)
(6464.35 0.0963688 0)
(5351.31 0.403646 0)
(1759.94 0.13345 0)
(-362.324 -1.10959 0)
(-788.534 -1.23332 0)
(-958.728 1.84203 0)
(-1074.69 -71.3168 0)
(5.84034 -21.7147 0)
(-628.538 -889.833 1.2381e-11)
(-2747.3 -711.872 -1.45873e-11)
(-3987.17 -760.966 -1.82486e-11)
(-4387.92 -833.094 0)
(-25653.1 -7331.9 -7.50067e-11)
(-1289.81 -1066.57 1.22202e-11)
(-2102.5 -853.386 1.45873e-11)
(-3693.95 -784.848 1.82486e-11)
(-6765.08 -359.611 0)
(-24007.9 -6011.12 0)
(-1631.85 -3.37894e-10 0)
(-2125.66 1.1297e-09 0)
(-3487.45 -3.94746e-10 0)
(-6508.42 1.41301e-09 0)
(-26244.1 -2.00897e-09 0)
(-1289.81 1066.57 1.22202e-11)
(-2102.5 853.386 1.45873e-11)
(-3693.95 784.848 1.82486e-11)
(-6765.08 359.611 0)
(-24007.9 6011.12 0)
(-628.538 889.833 -3.68214e-11)
(-2747.3 711.872 -1.45873e-11)
(-3987.17 760.966 -1.82486e-11)
(-4387.92 833.094 -4.84237e-11)
(-25653.1 7331.9 7.50067e-11)
(-42844.5 14366.5 1.73247e-11)
(-15506.7 6207.9 -9.93078e-12)
(-7842.82 3075.83 0)
(-5790.18 2119.13 4.91425e-12)
(-1714.64 1384.04 -1.73277e-12)
(-38408.5 18597.7 -8.8787e-12)
(-17963.2 5379.44 5.05887e-12)
(-8838.28 1875.05 0)
(-6250.11 1248.15 -3.12069e-12)
(-3465.79 387.009 4.46527e-13)
(-39959.4 -6.28005e-10 0)
(-19773.2 -7.97083e-10 0)
(-9149.44 1.25003e-09 0)
(-6437.83 -4.35382e-11 1.26331e-12)
(-3479.24 1.01284e-09 -8.93054e-13)
(-38408.5 -18597.7 -8.8787e-12)
(-17963.2 -5379.44 5.05887e-12)
(-8838.28 -1875.05 0)
(-6250.11 -1248.15 -3.12069e-12)
(-3465.79 -387.009 4.46527e-13)
(-42844.5 -14366.5 8.8787e-12)
(-15506.7 -6207.9 -1.86962e-13)
(-7842.82 -3075.83 0)
(-5790.18 -2119.13 6.38213e-14)
(-1714.64 -1384.04 1.73277e-12)
(2060.09 -8790.44 0)
(1233.32 -7401.43 0)
(338.253 -4781.61 0)
(-4.73274 -4677.36 0)
(-265.779 -4759.7 0)
(-584.214 -4734 0)
(-819.444 -4650.02 0)
(-940.018 -4454.02 0)
(-896.198 -4160.87 0)
(-770.763 -3673.19 0)
(-934.831 -3218.66 0)
(-1043.27 -2697.09 0)
(-435.073 -2066.23 0)
(997.134 -1917.53 0)
(3539.12 -1839.37 0)
(3419.55 -2384.02 0)
(838.862 -2144.39 0)
(-204.624 -1947.14 0)
(-571.405 -1452.85 0)
(-658.037 -878.137 0)
(-492.422 -278.036 0)
(-317.413 244.987 0)
(-293.554 -1.21286 0)
(-323.624 -375.189 0)
(-515.482 -438.661 0)
(-1022.09 -478.924 0)
(803.544 -513.873 0)
(1325.32 -433.226 0)
(-2723.29 76.6983 0)
(-3055.73 167.584 0)
(-181.282 16.4503 0)
(569.796 1.48789 0)
(491.864 4.66005 0)
(447.676 5.52728 0)
(566.964 6.42929 0)
(734.673 9.92667 0)
(846.149 11.9236 0)
(910.223 15.4068 0)
(936.784 16.5172 0)
(943.475 15.9925 0)
(382.051 -3266.09 0)
(1471.91 -5110.7 0)
(699.44 -3239.86 0)
(-170.407 -3073.99 0)
(-379.666 -3193.88 0)
(-570.964 -3186.26 0)
(-691.21 -2916.97 0)
(-775.664 -2605.59 0)
(-723.101 -2313.98 0)
(-616.985 -1941.13 0)
(-788.541 -1703.55 0)
(-874.928 -1381.82 0)
(-339.745 -1029.11 0)
(1016.76 -983.694 0)
(3463.88 -944.982 0)
(3389.29 -1296.98 0)
(907.106 -1062.96 0)
(-133.086 -1031.15 0)
(-435.018 -800.841 0)
(-506.448 -515.063 0)
(-322.724 -167.138 0)
(-260.819 86.5346 0)
(-339.888 -128.984 0)
(-310.368 -10.8161 0)
(-500.474 159.692 0)
(-1056.85 219.267 0)
(742.426 128.026 0)
(1337.03 -55.2346 0)
(-2670.22 50.6264 0)
(-3061.13 71.3726 0)
(-198.38 4.33373 0)
(568.543 -1.86861 0)
(492.514 -0.466853 0)
(448.406 1.11588 0)
(567.991 2.80517 0)
(735.987 4.20928 0)
(847.784 4.18465 0)
(911.578 5.97029 0)
(937.072 7.17706 0)
(938.98 7.83162 0)
(236.741 1.8571e-10 0)
(1240.95 1.37264e-10 0)
(930.748 2.14778e-09 0)
(8.6429 3.04403e-09 0)
(-298.44 3.0844e-09 0)
(-503.658 9.52773e-10 0)
(-650.521 1.61487e-09 0)
(-764.603 3.10055e-09 0)
(-702.901 9.93145e-10 0)
(-593.184 3.31048e-10 0)
(-772.122 1.67139e-09 0)
(-847.068 2.77758e-09 0)
(-319.253 3.43967e-09 0)
(1021.61 1.72791e-09 0)
(3447.98 7.02468e-10 0)
(3385.22 1.00122e-09 0)
(916.196 3.69805e-09 0)
(-128.371 2.16393e-09 0)
(-421.271 -1.76021e-09 0)
(-473.687 1.34276e-08 0)
(-317.411 -4.24307e-08 0)
(-306.314 -1.20994e-07 0)
(-321.875 3.62781e-08 0)
(-239.646 7.04891e-09 0)
(-448.548 -1.60599e-08 0)
(-1031.3 -9.19668e-09 0)
(723.689 9.69729e-09 0)
(1302.8 1.43077e-08 0)
(-2686.46 8.19546e-09 0)
(-3069.2 -2.26647e-08 0)
(-202.589 -8.13894e-09 0)
(568.399 -1.81673e-09 0)
(492.732 4.60238e-10 0)
(448.628 6.94394e-10 0)
(567.863 -9.20476e-10 0)
(735.075 -3.15707e-09 0)
(846.661 -3.30241e-09 0)
(911.093 -1.39686e-09 0)
(937.325 1.16271e-09 0)
(944.385 2.76143e-09 0)
(382.051 3266.09 0)
(1471.91 5110.7 0)
(699.44 3239.86 0)
(-170.407 3073.99 0)
(-379.666 3193.88 0)
(-570.964 3186.26 0)
(-691.21 2916.97 0)
(-775.664 2605.59 0)
(-723.101 2313.98 0)
(-616.985 1941.13 0)
(-788.541 1703.55 0)
(-874.928 1381.82 0)
(-339.745 1029.11 0)
(1016.76 983.694 0)
(3463.88 944.982 0)
(3389.29 1296.98 0)
(907.106 1062.96 0)
(-133.086 1031.15 0)
(-435.018 800.841 0)
(-506.448 515.063 0)
(-322.724 167.138 0)
(-260.819 -86.5346 0)
(-339.888 128.984 0)
(-310.368 10.8161 0)
(-500.474 -159.692 0)
(-1056.85 -219.267 0)
(742.426 -128.026 0)
(1337.03 55.2346 0)
(-2670.22 -50.6264 0)
(-3061.13 -71.3726 0)
(-198.38 -4.33373 0)
(568.543 1.86861 0)
(492.514 0.466853 0)
(448.406 -1.11588 0)
(567.991 -2.80517 0)
(735.987 -4.20928 0)
(847.784 -4.18465 0)
(911.578 -5.97029 0)
(937.072 -7.17706 0)
(938.98 -7.83162 0)
(2060.09 8790.44 0)
(1233.32 7401.43 0)
(338.253 4781.61 0)
(-4.73274 4677.36 0)
(-265.779 4759.7 0)
(-584.214 4734 0)
(-819.444 4650.02 0)
(-940.018 4454.02 0)
(-896.198 4160.87 0)
(-770.763 3673.19 0)
(-934.831 3218.66 0)
(-1043.27 2697.09 0)
(-435.073 2066.23 0)
(997.134 1917.53 0)
(3539.12 1839.37 0)
(3419.55 2384.02 0)
(838.862 2144.39 0)
(-204.624 1947.14 0)
(-571.405 1452.85 0)
(-658.037 878.137 0)
(-492.422 278.036 0)
(-317.413 -244.987 0)
(-293.554 1.21286 0)
(-323.624 375.189 0)
(-515.482 438.661 0)
(-1022.09 478.924 0)
(803.544 513.873 0)
(1325.32 433.226 0)
(-2723.29 -76.6983 0)
(-3055.73 -167.584 0)
(-181.282 -16.4503 0)
(569.796 -1.48789 0)
(491.864 -4.66005 0)
(447.676 -5.52728 0)
(566.964 -6.42929 0)
(734.673 -9.92667 0)
(846.149 -11.9236 0)
(910.223 -15.4068 0)
(936.784 -16.5172 0)
(943.475 -15.9925 0)
(-529.005 9175.2 0)
(-766.844 6471.64 0)
(-591.674 4740.52 0)
(-375.712 3751.77 0)
(-475.819 3144.52 0)
(-624.444 2812.01 0)
(-718.565 2880.72 0)
(-892.459 2994.76 0)
(-1012.75 3075.18 0)
(-1030.2 2996 0)
(-1231.67 2784.75 0)
(-1403.17 2586.51 0)
(-718.52 2198.86 0)
(897.144 2074.49 0)
(3669.5 2051.74 0)
(3545.63 2333.91 0)
(711.973 2210.57 0)
(-484.157 1967.97 0)
(-947.879 1448.06 0)
(-1068.1 831.569 0)
(-831.016 263.109 0)
(-369.026 -44.8649 0)
(-4.44233 -184.215 0)
(-20.6412 -85.4528 0)
(-418.052 3.86434 0)
(-1049.85 73.7773 0)
(643.093 122.954 0)
(980.118 67.5733 0)
(-2985.73 -354.805 0)
(-3029.59 -236.399 0)
(-113.962 -24.8127 0)
(574.489 -7.31058 0)
(490.732 -12.929 0)
(448.141 -12.1733 0)
(566.419 -11.327 0)
(734.059 -12.8318 0)
(846.237 -11.5546 0)
(910.263 -10.6207 0)
(937.038 -10.1336 0)
(944.704 -11.219 0)
(-1921.94 4105 0)
(-1967.56 3597.77 0)
(-1784.06 3390.4 0)
(-1343.76 2936.29 0)
(-1058.74 2407.38 0)
(-816.848 1999.74 0)
(-697.432 1699.7 0)
(-778.128 1495.96 0)
(-832.502 1478.51 0)
(-911.514 1547.87 0)
(-1170.26 1559.26 0)
(-1414.87 1729.96 0)
(-776.471 1722.23 0)
(908.986 1600.05 0)
(3719.19 1760.11 0)
(3504.98 1869.37 0)
(554.273 1717.09 0)
(-789.506 1590.99 0)
(-1464.61 1202.56 0)
(-1580.01 591.336 0)
(-1155.42 241.287 0)
(-720.794 61.2129 0)
(-487.698 -230.701 0)
(-304.853 -493.786 0)
(-414.287 -602.885 0)
(-892.444 -630.907 0)
(883.605 -509.367 0)
(1050.04 -430.382 0)
(-2875.48 -743.189 0)
(-2751.76 -308.611 0)
(3.37693 -38.2996 0)
(578.731 -18.5563 0)
(487.785 -26.7252 0)
(448.971 -25.774 0)
(566.621 -23.1259 0)
(734.783 -20.0768 0)
(848.232 -14.9345 0)
(911.571 -10.1596 0)
(936.071 -9.67333 0)
(956.328 -12.3873 0)
(-1667.48 993.352 0)
(-1455.47 1093.48 0)
(-1229.1 1249.74 0)
(-1322.99 1292 0)
(-1378.31 1185.86 0)
(-1306.39 1010.05 0)
(-1204.03 685.555 0)
(-1105.6 382.911 0)
(-962.724 267.621 0)
(-952.386 163.404 0)
(-1056.2 40.8974 0)
(-1246.13 350.843 0)
(-843.706 937.917 0)
(933.644 1091.25 0)
(3929.02 1481.14 0)
(3504.18 814.914 0)
(443.718 440.037 0)
(-979.975 378.922 0)
(-1911.18 147.226 0)
(-1994.42 -88.6403 0)
(-1341.86 -97.3038 0)
(-823.851 -108.216 0)
(-539.259 -121.371 0)
(-379.291 -116.762 0)
(-550.187 -222.024 0)
(-959.735 -354.61 0)
(836.326 -344.312 0)
(754.798 -495.868 0)
(-2868.39 -973.115 0)
(-2350.33 -333.971 0)
(165.545 -16.1258 0)
(585.643 2.97 0)
(483.777 -18.9156 0)
(451.609 -28.0561 0)
(571.909 -31.6679 0)
(741.953 -28.6267 0)
(855.794 -21.1832 0)
(915.332 -11.4895 0)
(934.891 -9.97581 0)
(963.963 -11.5999 0)
(-1678.32 -17.1887 0)
(-1720.49 173.064 0)
(-1592.76 77.2034 0)
(-1405.33 -24.0075 0)
(-1330.44 -62.5044 0)
(-1298.96 -33.0153 0)
(-1301.76 -131.486 0)
(-1180.86 -266.657 0)
(-1044.03 -314.876 0)
(-1129.99 -559.957 0)
(-989.636 -661.161 0)
(-550.472 -242.149 0)
(-62.9855 445.665 0)
(1432.45 935.322 0)
(3452.9 1622.53 0)
(2501.74 -19.646 0)
(134.136 -566.278 0)
(-1071.67 -655.239 0)
(-1915.17 -847.862 0)
(-1815.65 -743.592 0)
(-1174.28 -471.251 0)
(-743.986 -358.845 0)
(-495.932 -309.414 0)
(-401.846 -293.721 0)
(-643.486 -374.406 0)
(-1010.29 -475.736 0)
(747.484 -420.473 0)
(444.102 -584.623 0)
(-2719.47 -956.492 0)
(-1829.57 -147.112 0)
(328.065 148.895 0)
(576.042 159.251 0)
(457.887 117.401 0)
(436.683 81.9258 0)
(566.071 32.7312 0)
(744.887 -15.187 0)
(864.746 -28.0152 0)
(922.371 -18.7754 0)
(935.964 -15.6281 0)
(968.372 -13.8878 0)
(-1399.98 -381.032 0)
(-1364.51 -147.802 0)
(-1419.01 88.2846 0)
(-1457.61 112.605 0)
(-1386.99 108.335 0)
(-1372.86 113.602 0)
(-1429.18 79.432 0)
(-1282.33 129.385 0)
(-1245.36 33.995 0)
(-1286.08 -248.265 0)
(-749.949 73.5519 0)
(-179.549 474.521 0)
(290.948 724.302 0)
(2067.71 1203.33 0)
(3008.78 1197.58 0)
(1394.96 -304.101 0)
(-168.762 -662.218 0)
(-1251.32 -864.354 0)
(-1996.32 -1107.83 0)
(-1631.51 -857.606 0)
(-971.106 -562.102 0)
(-667.898 -467.428 0)
(-476.503 -369.885 0)
(-441.92 -333.715 0)
(-725.583 -361.226 0)
(-1004.13 -374.246 0)
(731.398 -158.1 0)
(238.271 -105.069 0)
(-2446.78 -289.524 0)
(-1285.14 694.989 0)
(460.767 887.347 0)
(555.294 748.084 0)
(409.264 550.127 0)
(370.018 375.313 0)
(478.327 232.786 0)
(683.416 129.778 0)
(852.336 41.7402 0)
(927.269 -9.16667 0)
(939.601 -17.6413 0)
(977.076 -15.3804 0)
(-1293.63 -561.047 0)
(-1268.24 -465.189 0)
(-1341.82 -367.485 0)
(-1386.01 -279.734 0)
(-1329.48 -178.454 0)
(-1326.81 -162.692 0)
(-1286.55 -106.497 0)
(-1224.65 61.0412 0)
(-1407.94 45.7977 0)
(-1091.87 36.984 0)
(-293.133 373.249 0)
(76.6141 466.285 0)
(639.321 644.292 0)
(1888.52 981.47 0)
(2000.29 131.466 0)
(709.571 -839.068 0)
(-405.744 -1059.9 0)
(-1501.08 -1543.56 0)
(-1908.67 -1570.85 0)
(-1289.76 -933.886 0)
(-798.294 -642.174 0)
(-558.759 -491.029 0)
(-367.082 -202.691 0)
(-393.501 -52.4964 0)
(-682.543 50.0884 0)
(-814.546 271.053 0)
(1006.87 1261.06 0)
(317.457 1572.4 0)
(-1948.51 1376.84 0)
(-695.498 2354.66 0)
(379.23 2356.85 0)
(251.085 2006.18 0)
(98.6715 1625.87 0)
(130.881 1214.68 0)
(329.465 825.784 0)
(560.788 492.995 0)
(730.854 247.071 0)
(865.149 94.3675 0)
(929.977 4.45678 0)
(983.491 -15.04 0)
(-1207.49 -645.454 0)
(-1177.98 -572.534 0)
(-1240.3 -500.533 0)
(-1275.46 -378.324 0)
(-1274.21 -275.436 0)
(-1303.52 -236.664 0)
(-1213.58 -170.341 0)
(-1135.57 -112.57 0)
(-1268.54 -88.3548 0)
(-970.535 129.819 0)
(-336.259 239.512 0)
(81.6387 266.341 0)
(787.399 513.134 0)
(1573.53 448.157 0)
(1254.44 -592.016 0)
(246.919 -1289.03 0)
(-847.636 -1832.55 0)
(-1743.69 -2207.67 0)
(-1408.82 -1584.56 0)
(-736.602 -925.621 0)
(-544.353 -442.011 0)
(-244.396 15.8893 0)
(-53.9169 519.335 0)
(-198.332 1244.64 0)
(-413.799 1862.14 0)
(162.806 2246.63 0)
(1985.43 3410.92 0)
(349.846 2255.29 0)
(-1692.98 2021.45 0)
(-340.771 2816.51 0)
(124.964 2723.65 0)
(-149.101 2506.3 0)
(-353.454 2337.48 0)
(-400.974 2076.36 0)
(-217.117 1681.17 0)
(125.747 1202.14 0)
(468.204 738.373 0)
(693.477 360.162 0)
(834.172 109.057 0)
(966.606 -17.3656 0)
(-1141.24 -763.892 0)
(-1128.59 -701.014 0)
(-1154.67 -647.673 0)
(-1169.1 -545.595 0)
(-1192.97 -479.298 0)
(-1225.54 -426.089 0)
(-1166.97 -313.778 0)
(-1145.64 -249.987 0)
(-1174.37 -223.205 0)
(-775.93 89.3655 0)
(-161.575 307.705 0)
(340.286 362.848 0)
(814.525 286.84 0)
(823.558 -242.311 0)
(326.276 -1152.38 0)
(-485.85 -1776.85 0)
(-1290.99 -2555.51 0)
(-1262.11 -2063.41 0)
(-673.233 -792.816 0)
(-188.756 -171.132 0)
(108.979 698.209 0)
(367.63 2112.07 0)
(816.988 3041.19 0)
(900.471 3418.17 0)
(283.005 3387.55 0)
(677.913 3067.84 0)
(1015.22 2676.38 0)
(-1021.49 374.845 0)
(-1407.7 958.762 0)
(-18.832 1624.22 0)
(80.3025 1581.21 0)
(-121.038 1601.86 0)
(-315.63 1737.69 0)
(-501.566 1853.78 0)
(-512.968 1832.61 0)
(-347.724 1655.73 0)
(-80.5073 1306.78 0)
(258.718 825.955 0)
(566.178 359.503 0)
(847.562 -25.1363 0)
(-1052.85 -1019.1 0)
(-1065.99 -924.95 0)
(-1090.53 -865.212 0)
(-1113.21 -827.838 0)
(-1159.05 -832.497 0)
(-1144.02 -815.279 0)
(-1043.88 -744.649 0)
(-1048.29 -689.288 0)
(-941.528 -529.788 0)
(-458.931 -200.877 0)
(-72.7213 -87.7028 0)
(61.5328 -125.298 0)
(204.246 -414.163 0)
(186.649 -1012.02 0)
(-224.302 -1662.24 0)
(-1105.18 -2291.2 0)
(-1123.78 -1526.81 0)
(-45.0947 -295.667 0)
(414.656 1114.93 0)
(700.204 2660.67 0)
(1655.82 3805.23 0)
(2013.38 4325.07 0)
(1204.7 4228.36 0)
(135.44 3289.9 0)
(-751.397 1982.34 0)
(-522.512 927.915 0)
(-609.638 -578.519 0)
(-1305.31 -1165.75 0)
(-489.036 290.022 0)
(259.04 692.583 0)
(103.423 671.985 0)
(1.68812 687.732 0)
(-110.694 825.806 0)
(-309.505 1012.41 0)
(-407.971 1167.79 0)
(-380.958 1270.19 0)
(-331.396 1288.78 0)
(-219.355 1124.1 0)
(14.0294 649.118 0)
(509.315 -17.0673 0)
(-914.292 -1372.99 0)
(-980.295 -1363.48 0)
(-1061.09 -1387.29 0)
(-1137.57 -1404.3 0)
(-1180.87 -1368.37 0)
(-1140.88 -1245.24 0)
(-1045.56 -1110.19 0)
(-938.596 -927.121 0)
(-703.72 -557.412 0)
(-349.921 -341.972 0)
(-88.7446 -438.183 0)
(25.6972 -533.285 0)
(-39.954 -653.303 0)
(-379.138 -902.198 0)
(-906.384 -728.137 0)
(-355.342 -96.4382 0)
(631.978 1771.16 0)
(1283.56 3254.94 0)
(2175.6 4179.85 0)
(2403.71 4866.21 0)
(1712.85 4680.71 0)
(775.379 3291.99 0)
(-180.537 1823.7 0)
(-1263.87 773.108 0)
(-1993.09 -316.68 0)
(-1789.83 -1441.74 0)
(-1002.31 -2344.44 0)
(-184.528 -1099.14 0)
(383.063 176.406 0)
(349.242 294.903 0)
(75.6276 308.093 0)
(27.1893 321.699 0)
(-2.75539 375.983 0)
(-172.014 470.379 0)
(-264.561 547.677 0)
(-231.134 618.54 0)
(-221.285 698.108 0)
(-357.687 777.974 0)
(-533.497 616.51 0)
(-74.4048 1.16194 0)
(-1003.41 -1750.95 0)
(-1079.76 -1801.19 0)
(-1129.86 -1770.04 0)
(-1094.97 -1597.29 0)
(-1005.78 -1217.41 0)
(-895.231 -734.091 0)
(-737.33 -248.412 0)
(-515.609 274.498 0)
(-377.658 828.086 0)
(-344.037 1153.61 0)
(-257.077 1174.41 0)
(-145.765 1130.34 0)
(-151.252 1319.21 0)
(114.536 1632.63 0)
(552.157 2377.28 0)
(1303.23 3744.91 0)
(2105.74 4516.46 0)
(2276.01 4868.95 0)
(1967.33 4389.61 0)
(1182.86 3061.01 0)
(138.846 1730.65 0)
(-739.735 727.724 0)
(-1222.59 -234.183 0)
(-1927.11 -1026.66 0)
(-2885.7 -1827.08 0)
(-2476.53 -2511.04 0)
(-279.504 -2046.2 0)
(1123.87 -610.366 0)
(854.318 118.065 0)
(385.938 136.211 0)
(129.245 174.595 0)
(67.1086 220.396 0)
(32.5786 237.013 0)
(-144.054 278.111 0)
(-265.197 291.363 0)
(-235.997 270.683 0)
(-177.76 214.341 0)
(-297.986 204.763 0)
(-734.535 230.93 0)
(-612.61 -77.3351 0)
(-1009.77 -2053.83 0)
(-998.689 -1756.95 0)
(-864.612 -1102.38 0)
(-605.032 -354.109 0)
(-349.055 278.006 0)
(-207.124 914.477 0)
(-73.6501 1576.85 0)
(98.7567 2210.27 0)
(143.426 2682.84 0)
(-16.1901 3018.54 0)
(-111.167 3318.16 0)
(165.235 3658.63 0)
(444.065 3955.93 0)
(640.453 4076.03 0)
(1129.09 4128.68 0)
(1706.05 4159.82 0)
(1715.14 3589.63 0)
(1161.32 2719.56 0)
(433.395 1663.8 0)
(-158.558 618.672 0)
(-535.581 -202.335 0)
(-1118 -665.055 0)
(-1871.12 -1130.02 0)
(-2798.85 -2045.65 0)
(-3423.49 -2785.7 0)
(-2000.98 -2137.53 0)
(829.244 -1055.2 0)
(1901.04 -358.064 0)
(1102.49 4.07745 0)
(403.717 72.9851 0)
(156.751 118.479 0)
(87.3378 133.943 0)
(52.8617 136.8 0)
(-119.641 174.076 0)
(-271.72 210.825 0)
(-305.355 187.166 0)
(-284.808 73.231 0)
(-341.701 -77.099 0)
(-805.337 -160.796 0)
(-879.257 -233.743 0)
(-379.146 -2208.78 0)
(-162.916 -1178.06 0)
(221.964 -135.582 0)
(235.22 650.416 0)
(216.681 1040.61 0)
(356.386 1271.23 0)
(511.344 1490.96 0)
(550.164 1683.13 0)
(401.221 1813.71 0)
(268.178 2048.53 0)
(359.735 2594.09 0)
(468.813 3143.92 0)
(250.967 3195.15 0)
(281.001 3109.47 0)
(632.905 2816.01 0)
(783.781 2298.2 0)
(717.848 1417.79 0)
(420.205 697.314 0)
(-57.1637 114.33 0)
(-615.415 -321.301 0)
(-1098.2 -854.016 0)
(-1633.69 -1451.77 0)
(-2552.98 -2195.94 0)
(-3522.58 -2949.99 0)
(-2974.25 -2508.16 0)
(-808.964 -974.826 0)
(1435.26 -405.005 0)
(2144.63 -422.794 0)
(1269.69 -263.917 0)
(496.179 -113.011 0)
(187.986 -19.7395 0)
(84.7637 1.29214 0)
(71.253 21.7309 0)
(-72.7209 64.5443 0)
(-252.583 131.897 0)
(-368.587 125.787 0)
(-432.415 46.736 0)
(-523.502 -123.129 0)
(-885.483 -305.766 0)
(-834.832 -265.153 0)
(950.002 -1845.73 0)
(999.124 -884.18 0)
(897.37 -373.002 0)
(528.385 -246.386 0)
(249.183 -150.789 0)
(226.851 -140.25 0)
(323.269 -159.597 0)
(409.777 -147.841 0)
(495.54 92.9624 0)
(735.811 568.917 0)
(944.39 1087.38 0)
(744.435 1329.69 0)
(410.87 1380.95 0)
(275.102 1597.69 0)
(347.321 1450.03 0)
(358.672 1124.68 0)
(172.475 567.349 0)
(-94.7393 -45.8575 0)
(-548.18 -633.511 0)
(-1091.69 -1113.48 0)
(-1624.94 -1661.84 0)
(-2411.13 -2447.56 0)
(-3314.86 -3175.3 0)
(-3099.72 -2756.11 0)
(-1520.16 -1139.23 0)
(25.6962 -110.718 0)
(1361.2 -132.146 0)
(2037 -550.014 0)
(1401.01 -517.352 0)
(639.015 -318.108 0)
(266.898 -216.441 0)
(127.3 -169.08 0)
(113.814 -131.358 0)
(-13.4801 -86.8068 0)
(-212.704 6.85801 0)
(-387.42 47.1504 0)
(-524.672 22.0675 0)
(-681.386 -95.729 0)
(-942.196 -254.688 0)
(-836.77 -189.509 0)
(1912.98 -1023.71 0)
(1256.26 -990.006 0)
(836.565 -1083.3 0)
(449.352 -1238.32 0)
(318.957 -1146.93 0)
(347.898 -954.259 0)
(504.03 -659.666 0)
(793.539 -335.414 0)
(1091.92 57.0162 0)
(1226.44 422.576 0)
(1092.84 618.85 0)
(751.712 687.199 0)
(509.225 820.514 0)
(347.567 857.289 0)
(177.089 734.632 0)
(-66.805 314.265 0)
(-410.12 -192.281 0)
(-736.987 -779.836 0)
(-1085.97 -1404.23 0)
(-1606.35 -2015.01 0)
(-2383.77 -2702.11 0)
(-3092.11 -3235.76 0)
(-2850.31 -2737.9 0)
(-1560.55 -1186.42 0)
(-425.052 -17.0485 0)
(161.494 286.249 0)
(1011.94 108.166 0)
(1773.43 -458.744 0)
(1493.17 -586.413 0)
(786.148 -393.854 0)
(331.595 -297.393 0)
(166.753 -259.892 0)
(150.534 -261.433 0)
(60.4689 -244.869 0)
(-123.497 -161.262 0)
(-353.931 -84.1968 0)
(-570.099 -61.9099 0)
(-790.194 -110.106 0)
(-975.853 -203.88 0)
(-779.41 -126.403 0)
(1375.85 -564.228 0)
(941.703 -1000.47 0)
(658.085 -1230.73 0)
(467.064 -1239.51 0)
(522.915 -1060.13 0)
(696.4 -828.319 0)
(919.611 -562.777 0)
(1100.4 -337.266 0)
(1225.97 -258.739 0)
(1277.22 -234.591 0)
(1199.39 -155.87 0)
(938.765 48.6491 0)
(574.774 221.568 0)
(192.343 97.9575 0)
(-175.957 -197.42 0)
(-534.534 -665.417 0)
(-881.84 -1127.58 0)
(-1262.62 -1624.73 0)
(-1738.44 -2227.01 0)
(-2342.37 -2882.85 0)
(-2801.3 -3153.01 0)
(-2445.62 -2464.76 0)
(-1340.04 -1009.17 0)
(-477.805 113.783 0)
(-101.038 499.605 0)
(146.357 537.277 0)
(643.299 411.628 0)
(1367.68 -162.77 0)
(1463.54 -482.649 0)
(917.525 -360.322 0)
(395.988 -273.36 0)
(161.952 -287.111 0)
(128.291 -362.966 0)
(83.0485 -395.286 0)
(-57.8746 -367.681 0)
(-291.68 -298.849 0)
(-549.639 -207.376 0)
(-818.193 -138.586 0)
(-957.9 -110.962 0)
(-643.458 -35.9946 0)
(456.517 -404.188 0)
(613.99 -765.43 0)
(606.22 -910.923 0)
(613.756 -908.362 0)
(715.195 -855.694 0)
(827.162 -786.911 0)
(977.226 -823.987 0)
(1086.52 -928.398 0)
(1190.86 -1060.39 0)
(1325.56 -1089.82 0)
(1365.78 -1009.66 0)
(1115.42 -887.075 0)
(556.741 -846.923 0)
(-56.1853 -939.022 0)
(-558.526 -1193.7 0)
(-963.145 -1589.35 0)
(-1334.55 -2024.72 0)
(-1796.43 -2481.95 0)
(-2298.34 -2878.95 0)
(-2498.68 -2864.21 0)
(-1980.88 -2038.87 0)
(-1026.23 -731.033 0)
(-365.525 241.777 0)
(-106.632 621.898 0)
(-16.9579 751.091 0)
(76.7168 720.825 0)
(337.345 605.65 0)
(911.67 207.974 0)
(1302.8 -286.298 0)
(987.827 -318.371 0)
(402.144 -236.005 0)
(80.4055 -268.25 0)
(46.2922 -413.19 0)
(55.9248 -530.031 0)
(-30.5665 -589.174 0)
(-199.454 -565.706 0)
(-415.664 -424.611 0)
(-697.286 -277.069 0)
(-876.992 -90.1099 0)
(-617.099 -5.38659 0)
(-172.063 -215.756 0)
(453.395 -380.005 0)
(520.35 -593.002 0)
(520.285 -701.435 0)
(639.95 -832.721 0)
(726.954 -992.136 0)
(783.269 -1193.94 0)
(872.59 -1423.03 0)
(1070.42 -1616.85 0)
(1326.1 -1729.05 0)
(1394.76 -1814.14 0)
(1095.59 -1908.04 0)
(524.716 -2025.73 0)
(-141.821 -2123.09 0)
(-802.639 -2311.8 0)
(-1335.34 -2574.61 0)
(-1741.98 -2818.45 0)
(-2085.78 -2862.86 0)
(-2106.81 -2453.1 0)
(-1532.84 -1506.45 0)
(-745.687 -385.401 0)
(-247.905 371.311 0)
(-36.3084 686.518 0)
(12.9882 806.656 0)
(-5.70812 830.993 0)
(6.205 826.355 0)
(149.097 737.537 0)
(508.163 512.287 0)
(956.335 1.12028 0)
(965.99 -324.012 0)
(444.286 -344.388 0)
(-8.79006 -312.977 0)
(-123.97 -464.89 0)
(-86.5357 -657.479 0)
(-92.2525 -808.269 0)
(-133.102 -841.741 0)
(-271.498 -725.281 0)
(-495.856 -529.767 0)
(-696.097 -13.1552 0)
(-434.42 167.932 0)
(-611.027 -273.054 0)
(250.461 -489.018 0)
(296.478 -726.066 0)
(382.755 -699.425 0)
(435.065 -773.503 0)
(479.074 -975.236 0)
(562.004 -1174.64 0)
(678.995 -1301.3 0)
(895.962 -1395.77 0)
(1135.45 -1656.61 0)
(1193.3 -2178.67 0)
(911.52 -2878.63 0)
(349.51 -3593.74 0)
(-331.849 -4113.82 0)
(-993.627 -4206.66 0)
(-1451.37 -3858.69 0)
(-1612.31 -3212.66 0)
(-1444.37 -2311.26 0)
(-991.254 -1183.32 0)
(-506.177 -140.95 0)
(-171.402 459.096 0)
(6.71205 703.527 0)
(53.989 785.469 0)
(32.5898 801.789 0)
(2.02485 818.747 0)
(-13.3408 842.056 0)
(34.6978 834.092 0)
(202.032 699.566 0)
(496.909 309.146 0)
(654.883 -299.183 0)
(412.778 -682.348 0)
(-35.7149 -782.061 0)
(-285.682 -854.047 0)
(-274.968 -924.389 0)
(-208.128 -988.283 0)
(-119.485 -982.579 0)
(-115.034 -899.913 0)
(-11.0553 -731.828 0)
(-204.664 -235.118 0)
(-690.676 183.51 0)
(-1655.88 1468.59 0)
(16.8565 1127.56 0)
(317.594 896.872 0)
(474.573 477.753 0)
(374.168 -17.294 0)
(340.405 -461.258 0)
(469.06 -1017.23 0)
(659.496 -1800.33 0)
(728.031 -2904.35 0)
(571.671 -4239.39 0)
(217.172 -5573.59 0)
(-268.031 -6529.06 0)
(-665.558 -6753.13 0)
(-732.447 -6190.28 0)
(-556.787 -5043.98 0)
(-377.487 -3563.67 0)
(-250.81 -2035.62 0)
(-130.235 -736.687 0)
(-15.4204 147.627 0)
(49.846 621.223 0)
(68.0818 810.496 0)
(66.5999 846.393 0)
(58.3808 835.694 0)
(45.0566 839.39 0)
(33.0944 867.044 0)
(20.9914 903.403 0)
(11.789 937.283 0)
(2.30659 890.741 0)
(-6.09567 691.746 0)
(10.5499 188.996 0)
(-21.0337 -418.979 0)
(-174.246 -845.457 0)
(-261.122 -848.871 0)
(-215.89 -836.811 0)
(-148.327 -769.488 0)
(-47.9454 -658.797 0)
(-29.865 -620.932 0)
(144.764 -402.178 0)
(185.955 -695.925 0)
(-356.576 -377.444 0)
(-1655.88 -1468.59 0)
(16.8565 -1127.56 0)
(317.594 -896.872 0)
(474.573 -477.753 0)
(374.168 17.294 0)
(340.405 461.258 0)
(469.06 1017.23 0)
(659.496 1800.33 0)
(728.031 2904.35 0)
(571.671 4239.39 0)
(217.172 5573.59 0)
(-268.031 6529.06 0)
(-665.558 6753.13 0)
(-732.447 6190.28 0)
(-556.787 5043.98 0)
(-377.487 3563.67 0)
(-250.81 2035.62 0)
(-130.235 736.687 0)
(-15.4204 -147.627 0)
(49.846 -621.223 0)
(68.0818 -810.496 0)
(66.5999 -846.393 0)
(58.3808 -835.694 0)
(45.0566 -839.39 0)
(33.0944 -867.044 0)
(20.9914 -903.403 0)
(11.789 -937.283 0)
(2.30659 -890.741 0)
(-6.09567 -691.746 0)
(10.5499 -188.996 0)
(-21.0337 418.979 0)
(-174.246 845.457 0)
(-261.122 848.871 0)
(-215.89 836.811 0)
(-148.327 769.488 0)
(-47.9454 658.797 0)
(-29.865 620.932 0)
(144.764 402.178 0)
(185.955 695.925 0)
(-356.576 377.444 0)
(-611.027 273.054 0)
(250.461 489.018 0)
(296.478 726.066 0)
(382.755 699.425 0)
(435.065 773.503 0)
(479.074 975.236 0)
(562.004 1174.64 0)
(678.995 1301.3 0)
(895.962 1395.77 0)
(1135.45 1656.61 0)
(1193.3 2178.67 0)
(911.52 2878.63 0)
(349.51 3593.74 0)
(-331.849 4113.82 0)
(-993.627 4206.66 0)
(-1451.37 3858.69 0)
(-1612.31 3212.66 0)
(-1444.37 2311.26 0)
(-991.254 1183.32 0)
(-506.177 140.95 0)
(-171.402 -459.096 0)
(6.71205 -703.527 0)
(53.989 -785.469 0)
(32.5898 -801.789 0)
(2.02485 -818.747 0)
(-13.3408 -842.056 0)
(34.6978 -834.092 0)
(202.032 -699.566 0)
(496.909 -309.146 0)
(654.883 299.183 0)
(412.778 682.348 0)
(-35.7149 782.061 0)
(-285.682 854.047 0)
(-274.968 924.389 0)
(-208.128 988.283 0)
(-119.485 982.579 0)
(-115.034 899.913 0)
(-11.0553 731.828 0)
(-204.664 235.118 0)
(-690.676 -183.51 0)
(-172.063 215.756 0)
(453.395 380.005 0)
(520.35 593.002 0)
(520.285 701.435 0)
(639.95 832.721 0)
(726.954 992.136 0)
(783.269 1193.94 0)
(872.59 1423.03 0)
(1070.42 1616.85 0)
(1326.1 1729.05 0)
(1394.76 1814.14 0)
(1095.59 1908.04 0)
(524.716 2025.73 0)
(-141.821 2123.09 0)
(-802.639 2311.8 0)
(-1335.34 2574.61 0)
(-1741.98 2818.45 0)
(-2085.78 2862.86 0)
(-2106.81 2453.1 0)
(-1532.84 1506.45 0)
(-745.687 385.401 0)
(-247.905 -371.311 0)
(-36.3084 -686.518 0)
(12.9882 -806.656 0)
(-5.70812 -830.993 0)
(6.205 -826.355 0)
(149.097 -737.537 0)
(508.163 -512.287 0)
(956.335 -1.12028 0)
(965.99 324.012 0)
(444.286 344.388 0)
(-8.79006 312.977 0)
(-123.97 464.89 0)
(-86.5357 657.479 0)
(-92.2525 808.269 0)
(-133.102 841.741 0)
(-271.498 725.281 0)
(-495.856 529.767 0)
(-696.097 13.1552 0)
(-434.42 -167.932 0)
(456.517 404.188 0)
(613.99 765.43 0)
(606.22 910.923 0)
(613.756 908.362 0)
(715.195 855.694 0)
(827.162 786.911 0)
(977.226 823.987 0)
(1086.52 928.398 0)
(1190.86 1060.39 0)
(1325.56 1089.82 0)
(1365.78 1009.66 0)
(1115.42 887.075 0)
(556.741 846.923 0)
(-56.1853 939.022 0)
(-558.526 1193.7 0)
(-963.145 1589.35 0)
(-1334.55 2024.72 0)
(-1796.43 2481.95 0)
(-2298.34 2878.95 0)
(-2498.68 2864.21 0)
(-1980.88 2038.87 0)
(-1026.23 731.033 0)
(-365.525 -241.777 0)
(-106.632 -621.898 0)
(-16.9579 -751.091 0)
(76.7168 -720.825 0)
(337.345 -605.65 0)
(911.67 -207.974 0)
(1302.8 286.298 0)
(987.827 318.371 0)
(402.144 236.005 0)
(80.4055 268.25 0)
(46.2922 413.19 0)
(55.9248 530.031 0)
(-30.5665 589.174 0)
(-199.454 565.706 0)
(-415.664 424.611 0)
(-697.286 277.069 0)
(-876.992 90.1099 0)
(-617.099 5.38659 0)
(1375.85 564.228 0)
(941.703 1000.47 0)
(658.085 1230.73 0)
(467.064 1239.51 0)
(522.915 1060.13 0)
(696.4 828.319 0)
(919.611 562.777 0)
(1100.4 337.266 0)
(1225.97 258.739 0)
(1277.22 234.591 0)
(1199.39 155.87 0)
(938.765 -48.6491 0)
(574.774 -221.568 0)
(192.343 -97.9575 0)
(-175.957 197.42 0)
(-534.534 665.417 0)
(-881.84 1127.58 0)
(-1262.62 1624.73 0)
(-1738.44 2227.01 0)
(-2342.37 2882.85 0)
(-2801.3 3153.01 0)
(-2445.62 2464.76 0)
(-1340.04 1009.17 0)
(-477.805 -113.783 0)
(-101.038 -499.605 0)
(146.357 -537.277 0)
(643.299 -411.628 0)
(1367.68 162.77 0)
(1463.54 482.649 0)
(917.525 360.322 0)
(395.988 273.36 0)
(161.952 287.111 0)
(128.291 362.966 0)
(83.0485 395.286 0)
(-57.8746 367.681 0)
(-291.68 298.849 0)
(-549.639 207.376 0)
(-818.193 138.586 0)
(-957.9 110.962 0)
(-643.458 35.9946 0)
(1912.98 1023.71 0)
(1256.26 990.006 0)
(836.565 1083.3 0)
(449.352 1238.32 0)
(318.957 1146.93 0)
(347.898 954.259 0)
(504.03 659.666 0)
(793.539 335.414 0)
(1091.92 -57.0162 0)
(1226.44 -422.576 0)
(1092.84 -618.85 0)
(751.712 -687.199 0)
(509.225 -820.514 0)
(347.567 -857.289 0)
(177.089 -734.632 0)
(-66.805 -314.265 0)
(-410.12 192.281 0)
(-736.987 779.836 0)
(-1085.97 1404.23 0)
(-1606.35 2015.01 0)
(-2383.77 2702.11 0)
(-3092.11 3235.76 0)
(-2850.31 2737.9 0)
(-1560.55 1186.42 0)
(-425.052 17.0485 0)
(161.494 -286.249 0)
(1011.94 -108.166 0)
(1773.43 458.744 0)
(1493.17 586.413 0)
(786.148 393.854 0)
(331.595 297.393 0)
(166.753 259.892 0)
(150.534 261.433 0)
(60.4689 244.869 0)
(-123.497 161.262 0)
(-353.931 84.1968 0)
(-570.099 61.9099 0)
(-790.194 110.106 0)
(-975.853 203.88 0)
(-779.41 126.403 0)
(950.002 1845.73 0)
(999.124 884.18 0)
(897.37 373.002 0)
(528.385 246.386 0)
(249.183 150.789 0)
(226.851 140.25 0)
(323.269 159.597 0)
(409.777 147.841 0)
(495.54 -92.9624 0)
(735.811 -568.917 0)
(944.39 -1087.38 0)
(744.435 -1329.69 0)
(410.87 -1380.95 0)
(275.102 -1597.69 0)
(347.321 -1450.03 0)
(358.672 -1124.68 0)
(172.475 -567.349 0)
(-94.7393 45.8575 0)
(-548.18 633.511 0)
(-1091.69 1113.48 0)
(-1624.94 1661.84 0)
(-2411.13 2447.56 0)
(-3314.86 3175.3 0)
(-3099.72 2756.11 0)
(-1520.16 1139.23 0)
(25.6962 110.718 0)
(1361.2 132.146 0)
(2037 550.014 0)
(1401.01 517.352 0)
(639.015 318.108 0)