/*--------------------------------*- C++ -*----------------------------------*\
| =========                 |                                                 |
| \\      /  F ield         | OpenFOAM: The Open Source CFD Toolbox           |
|  \\    /   O peration     | Version:  v1912                                 |
|   \\  /    A nd           | Website:  www.openfoam.com                      |
|    \\/     M anipulation  |                                                 |
\*---------------------------------------------------------------------------*/
FoamFile
{
    version     2.0;
    format      ascii;
    class       volVectorField;
    location    "8.94";
    object      grad(p);
}
// * * * * * * * * * * * * * * * * * * * * * * * * * * * * * * * * * * * * * //

dimensions      [1 -2 -2 0 0 0 0];


internalField   nonuniform List<vector> 
1900
(
(-31500.9 0.0224003 0)
(16920 -0.0796234 0)
(1337.54 -0.141007 0)
(27.3899 -0.517507 0)
(-858.532 -0.162368 0)
(-772.998 1.29704 0)
(-403.583 2.32196 0)
(-171.904 0.972307 0)
(-140.082 65.2875 0)
(668.518 1.5952 0)
(-31501 0.00690839 0)
(16919.8 -0.148382 0)
(1337.1 -0.101441 0)
(27.3685 -0.469357 0)
(-856.717 0.956673 0)
(-770.513 5.51967 0)
(-403.907 4.46487 0)
(-108.938 -22.6322 0)
(-139.459 7.54351 0)
(-383.562 -94.1555 0)
(-31501.1 1.64313e-09 0)
(16919.9 -1.36779e-09 0)
(1337.21 -1.43885e-09 0)
(28.448 -1.63425e-09 0)
(-852.543 -9.76996e-10 0)
(-769.49 1.06581e-10 0)
(-431.735 -5.32907e-10 0)
(-168.825 -1.06581e-10 0)
(-211.605 -2.30926e-10 0)
(-501.342 -4.44089e-10 0)
(-31501 -0.00690839 0)
(16919.8 0.148382 0)
(1337.1 0.101441 0)
(27.3685 0.469357 0)
(-856.717 -0.956673 0)
(-770.513 -5.51967 0)
(-403.907 -4.46487 0)
(-108.938 22.6322 0)
(-139.459 -7.54351 0)
(-383.562 94.1555 0)
(-31500.9 -0.0224003 0)
(16920 0.0796234 0)
(1337.54 0.141007 0)
(27.3899 0.517507 0)
(-858.532 0.162368 0)
(-772.998 -1.29704 0)
(-403.583 -2.32196 0)
(-171.904 -0.972307 0)
(-140.082 -65.2875 0)
(668.518 -1.5952 0)
(-206.783 -848.392 8.47865e-12)
(-1938.49 -658.545 -9.90559e-12)
(-1885.15 -806.663 -1.24216e-11)
(176.621 -1099.34 0)
(-18616.6 -7828.15 -5.36431e-11)
(-787.131 -1021.08 8.32534e-12)
(-1396.29 -788.745 9.90559e-12)
(-1845.07 -879.616 1.24216e-11)
(-2378.45 -787.515 0)
(-17672.5 -7119.38 0)
(-1093.54 -8.206e-10 0)
(-1449.93 -1.36343e-10 0)
(-1782.7 -4.68761e-10 0)
(-2432.02 1.41301e-09 0)
(-20440.4 -1.11022e-09 0)
(-787.131 1021.08 8.32534e-12)
(-1396.29 788.745 9.90559e-12)
(-1845.07 879.616 1.24216e-11)
(-2378.45 787.515 0)
(-17672.5 7119.38 0)
(-206.783 848.392 -2.51293e-11)
(-1938.49 658.545 -9.90559e-12)
(-1885.15 806.663 -1.24216e-11)
(176.621 1099.34 -3.32997e-11)
(-18616.6 7828.15 5.36431e-11)
(-36352.4 10330 9.89499e-12)
(-11006.5 4024.18 -4.84981e-12)
(-4950.27 1883.7 0)
(-3186.47 1261.34 2.01189e-12)
(-1214.24 665.093 -6.63931e-13)
(-32464.2 12783.3 -5.10305e-12)
(-12878.3 3268.1 2.4855e-12)
(-5636.8 1097.79 0)
(-3546.53 755.708 -1.28687e-12)
(-1903.59 83.6683 1.7162e-13)
(-33562.4 2.01859e-10 0)
(-13985.5 7.59127e-11 0)
(-5747.36 6.16791e-10 0)
(-3630.28 1.01589e-10 5.2385e-13)
(-1859.69 4.54477e-10 -3.43241e-13)
(-32464.2 -12783.3 -5.10305e-12)
(-12878.3 -3268.1 2.4855e-12)
(-5636.8 -1097.79 0)
(-3546.53 -755.708 -1.28687e-12)
(-1903.59 -83.6683 1.7162e-13)
(-36352.4 -10330 5.10305e-12)
(-11006.5 -4024.18 -1.21195e-13)
(-4950.27 -1883.7 0)
(-3186.47 -1261.34 3.79873e-14)
(-1214.24 -665.093 6.63931e-13)
(464.47 -1321.12 0)
(256.328 -397.417 0)
(-18.1653 751.044 0)
(-89.3209 639.994 0)
(-189.303 387.645 0)
(-316.581 162.078 0)
(-396.993 -31.718 0)
(-418.901 -165.502 0)
(-372.029 -262.813 0)
(-304.577 -244.284 0)
(-368.045 -214.746 0)
(-379.428 -165.204 0)
(-128.272 -97.282 0)
(461.289 -62.2157 0)
(1675.06 29.1308 0)
(1742.3 -16.3031 0)
(599.096 -42.6794 0)
(53.4452 -125.246 0)
(-139.219 -68.5341 0)
(-126.165 4.79058 0)
(-46.5718 76.8248 0)
(-72.8377 182.541 0)
(-206.846 31.4481 0)
(-356.131 -216.889 0)
(-496.968 -282.129 0)
(-615.251 -281.502 0)
(576.176 -259.187 0)
(922.805 -248.614 0)
(-1422.42 51.5485 0)
(-1727.76 89.1645 0)
(-158.299 8.374 0)
(273.056 1.18357 0)
(278.448 2.47993 0)
(265.533 2.55248 0)
(276.107 1.84628 0)
(290.462 1.4635 0)
(297.442 0.99279 0)
(307.944 1.58218 0)
(320.895 2.54964 0)
(330.347 3.04767 0)
(76.8145 -832.227 0)
(594.684 -992.242 0)
(190.712 279.059 0)
(-201.965 382.647 0)
(-305.612 231.564 0)
(-380.601 85.6769 0)
(-409.284 35.0534 0)
(-415.203 7.04906 0)
(-360.177 -34.6156 0)
(-290.577 -6.18188 0)
(-353.646 -15.7748 0)
(-364.509 9.23596 0)
(-124.112 6.60022 0)
(472.76 6.53639 0)
(1673.07 55.6536 0)
(1736.66 16.8081 0)
(589.773 48.4634 0)
(43.1966 -42.5004 0)
(-119.092 -28.0334 0)
(-105.812 -2.09058 0)
(-10.1061 35.5605 0)
(-64.9916 65.6346 0)
(-238.997 -47.8634 0)
(-362.775 -13.6522 0)
(-495.106 49.361 0)
(-626.562 81.6262 0)
(548.894 58.7991 0)
(931.896 -34.6094 0)
(-1392.15 39.5777 0)
(-1732.78 38.2321 0)
(-167.37 2.36007 0)
(272.383 -0.649526 0)
(278.663 -0.269646 0)
(265.733 0.295219 0)
(276.289 0.644378 0)
(290.716 0.422213 0)
(297.9 -0.406729 0)
(308.374 -0.318381 0)
(320.92 -0.0913381 0)
(328.68 -0.362609 0)
(95.0775 5.65204e-11 0)
(579.611 3.4316e-10 0)
(381.802 8.15509e-10 0)
(-103.138 4.88498e-10 0)
(-275.695 5.77316e-10 0)
(-373.748 -5.49056e-10 0)
(-419.867 -4.44089e-11 0)
(-439.168 6.05576e-10 0)
(-375.878 -2.30119e-10 0)
(-299.096 -2.64435e-10 0)
(-363.56 6.05576e-11 0)
(-372.919 2.82602e-10 0)
(-129.057 3.87569e-10 0)
(475.559 -1.41301e-11 0)
(1678.04 -3.2903e-10 0)
(1740.21 1.73599e-10 0)
(581.843 1.52201e-09 0)
(31.1916 5.24833e-10 0)
(-127.463 -1.03755e-09 0)
(-107.665 6.03558e-09 0)
(-26.87 -2.49901e-08 0)
(-97.1065 -6.60482e-08 0)
(-229.912 1.88253e-08 0)
(-327.848 6.83897e-09 0)
(-469.251 -6.43122e-09 0)
(-612.505 -3.33471e-09 0)
(542.362 4.72349e-09 0)
(917.213 9.3501e-09 0)
(-1401.23 1.09529e-08 0)
(-1738.59 -1.00586e-08 0)
(-169.61 -3.90597e-09 0)
(272.291 -9.20476e-10 0)
(278.723 1.23134e-10 0)
(265.799 1.2919e-10 0)
(276.144 -4.64275e-10 0)
(290.156 -1.52201e-09 0)
(297.227 -1.7158e-09 0)
(308.036 -1.17885e-09 0)
(320.882 -5.65204e-11 0)
(330.479 5.69242e-10 0)
(76.8145 832.227 0)
(594.684 992.242 0)
(190.712 -279.059 0)
(-201.965 -382.647 0)
(-305.612 -231.564 0)
(-380.601 -85.6769 0)
(-409.284 -35.0534 0)
(-415.203 -7.04906 0)
(-360.177 34.6156 0)
(-290.577 6.18188 0)
(-353.646 15.7748 0)
(-364.509 -9.23596 0)
(-124.112 -6.60022 0)
(472.76 -6.53639 0)
(1673.07 -55.6536 0)
(1736.66 -16.8081 0)
(589.773 -48.4634 0)
(43.1966 42.5004 0)
(-119.092 28.0334 0)
(-105.812 2.09058 0)
(-10.1061 -35.5605 0)
(-64.9916 -65.6346 0)
(-238.997 47.8634 0)
(-362.775 13.6522 0)
(-495.106 -49.361 0)
(-626.562 -81.6262 0)
(548.894 -58.7991 0)
(931.896 34.6094 0)
(-1392.15 -39.5777 0)
(-1732.78 -38.2321 0)
(-167.37 -2.36007 0)
(272.383 0.649526 0)
(278.663 0.269646 0)
(265.733 -0.295219 0)
(276.289 -0.644378 0)
(290.716 -0.422213 0)
(297.9 0.406729 0)
(308.374 0.318381 0)
(320.92 0.0913381 0)
(328.68 0.362609 0)
(464.47 1321.12 0)
(256.328 397.417 0)
(-18.1653 -751.044 0)
(-89.3209 -639.994 0)
(-189.303 -387.645 0)
(-316.581 -162.078 0)
(-396.993 31.718 0)
(-418.901 165.502 0)
(-372.029 262.813 0)
(-304.577 244.284 0)
(-368.045 214.746 0)
(-379.428 165.204 0)
(-128.272 97.282 0)
(461.289 62.2157 0)
(1675.06 -29.1308 0)
(1742.3 16.3031 0)
(599.096 42.6794 0)
(53.4452 125.246 0)
(-139.219 68.5341 0)
(-126.165 -4.79058 0)
(-46.5718 -76.8248 0)
(-72.8377 -182.541 0)
(-206.846 -31.4481 0)
(-356.131 216.889 0)
(-496.968 282.129 0)
(-615.251 281.502 0)
(576.176 259.187 0)
(922.805 248.614 0)
(-1422.42 -51.5485 0)
(-1727.76 -89.1645 0)
(-158.299 -8.374 0)
(273.056 -1.18357 0)
(278.448 -2.47993 0)
(265.533 -2.55248 0)
(276.107 -1.84628 0)
(290.462 -1.4635 0)
(297.442 -0.99279 0)
(307.944 -1.58218 0)
(320.895 -2.54964 0)
(330.347 -3.04767 0)
(-195.634 531.582 0)
(-313.905 -171.571 0)
(-218.514 -526.598 0)
(-104.259 -688.667 0)
(-140.31 -735.218 0)
(-191.569 -675.339 0)
(-218.014 -475.769 0)
(-265.967 -266.754 0)
(-297.056 -80.706 0)
(-304.54 26.0457 0)
(-386.601 65.9421 0)
(-420.942 121.006 0)
(-183.903 86.467 0)
(406.728 61.3295 0)
(1641.98 -6.0429 0)
(1775.17 -75.657 0)
(647.331 -9.95552 0)
(47.5647 56.3267 0)
(-177.389 14.6552 0)
(-173.458 -47.312 0)
(-79.4408 -91.0144 0)
(-27.456 -101.061 0)
(-25.6204 -137.94 0)
(-173.759 -63.7341 0)
(-452.423 -1.39558 0)
(-654.031 40.7129 0)
(496.72 65.6924 0)
(747.492 48.4398 0)
(-1569.03 -206.72 0)
(-1711.49 -127.106 0)
(-122.67 -12.3801 0)
(275.301 -4.17895 0)
(278.052 -6.87317 0)
(266.362 -6.11957 0)
(277.183 -4.07711 0)
(291.545 -2.18395 0)
(298.354 0.0408521 0)
(307.895 1.44987 0)
(320.03 0.0625811 0)
(330.263 -2.70173 0)
(-434.032 -66.374 0)
(-457.596 -100.906 0)
(-409.025 -44.0724 0)
(-282.344 -107.075 0)
(-202.731 -195.835 0)
(-133.602 -245.646 0)
(-99.2408 -269.526 0)
(-120.212 -269.156 0)
(-130.079 -215.981 0)
(-163.282 -140.483 0)
(-266.588 -83.9379 0)
(-337.389 36.9222 0)
(-155.947 80.0674 0)
(401.401 63.9301 0)
(1560.79 91.1026 0)
(1720.91 18.8445 0)
(700.416 10.6687 0)
(80.3142 72.5542 0)
(-218.62 48.9459 0)
(-202.632 -45.0668 0)
(-80.7413 -32.3052 0)
(-142.392 -61.0392 0)
(-268.055 -198.176 0)
(-322.346 -348.929 0)
(-420.206 -385.534 0)
(-529.807 -343.392 0)
(626.228 -238.66 0)
(754.306 -221.5 0)
(-1512.97 -426.337 0)
(-1549.22 -166.075 0)
(-58.9474 -18.4617 0)
(277.159 -9.53364 0)
(276.79 -13.6931 0)
(267.783 -12.9259 0)
(279.323 -9.90511 0)
(293.849 -6.10221 0)
(300.454 -2.36361 0)
(307.991 0.903382 0)
(317.358 -0.464106 0)
(332.935 -4.02355 0)
(-356.831 22.1247 0)
(-292.415 55.0773 0)
(-224.459 107.876 0)
(-250.503 124.555 0)
(-273.842 99.7464 0)
(-262.581 54.6311 0)
(-240.669 -34.161 0)
(-214.369 -118.862 0)
(-173.062 -153.377 0)
(-177.298 -194.235 0)
(-215.647 -226.465 0)
(-262.9 -120.878 0)
(-157.878 53.0093 0)
(417.362 123.473 0)
(1598.54 263.325 0)
(1697.66 -25.9111 0)
(699.087 -183.82 0)
(84.4499 -178.99 0)
(-290.733 -192.243 0)
(-251.754 -179.08 0)
(-94.8324 -103.791 0)
(-187.295 -138.816 0)
(-303.042 -158.314 0)
(-354.304 -166.642 0)
(-447.086 -186.565 0)
(-512.497 -193.892 0)
(614.179 -148.187 0)
(566.639 -252.737 0)
(-1515.62 -550.335 0)
(-1318.45 -177.582 0)
(28.1796 -8.24868 0)
(279.896 0.356538 0)
(274.783 -10.0415 0)
(270.012 -14.1495 0)
(283.758 -14.3339 0)
(298.812 -10.6917 0)
(305.105 -6.28455 0)
(309.725 -0.28795 0)
(315.282 -0.361174 0)
(334.588 -2.53713 0)
(-359.638 9.08517 0)
(-374.963 50.5476 0)
(-342.073 10.5678 0)
(-290.178 -34.8255 0)
(-270.113 -57.6125 0)
(-262.64 -56.7566 0)
(-266.425 -88.8119 0)
(-235.093 -128.36 0)
(-202.711 -147.508 0)
(-233.712 -223.237 0)
(-195.899 -246.044 0)
(-68.077 -128.935 0)
(79.5185 54.563 0)
(604.069 224.114 0)
(1416.84 475.781 0)
(1290.02 -116.277 0)
(552.903 -348.209 0)
(72.1975 -380.347 0)
(-218.707 -394.942 0)
(-117.396 -283.969 0)
(-41.9406 -191.019 0)
(-194.932 -244.391 0)
(-294.87 -247.935 0)
(-349.57 -250.152 0)
(-446.465 -246.052 0)
(-492.824 -239.39 0)
(569.523 -182.366 0)
(366.782 -302.477 0)
(-1440.55 -539.393 0)
(-1026.84 -84.8387 0)
(112.521 68.0259 0)
(275.432 73.347 0)
(262.812 54.6181 0)
(263.647 38.6713 0)
(282.655 16.7493 0)
(301.606 -4.3046 0)
(310.48 -9.80967 0)
(313.699 -3.67017 0)
(315.19 -2.07923 0)
(335.728 -2.16908 0)
(-299.366 15.6986 0)
(-290.986 64.2016 0)
(-306.727 116.547 0)
(-316.204 108.544 0)
(-294.976 94.3782 0)
(-292.645 84.277 0)
(-309.669 63.1711 0)
(-270.93 66.187 0)
(-264.488 26.7684 0)
(-272.251 -51.0064 0)
(-124.775 39.0875 0)
(26.7754 153.729 0)
(182.334 229.89 0)
(823.263 407.831 0)
(1270.52 436.25 0)
(903.638 -74.9376 0)
(444.619 -215.682 0)
(39.4159 -284.364 0)
(-197.86 -323.883 0)
(-55.247 -190.199 0)
(-56.6933 -199.494 0)
(-242.141 -279.69 0)
(-308.594 -274.672 0)
(-352.49 -259.561 0)
(-436.716 -218.563 0)
(-451.128 -176.347 0)
(553.387 -46.8893 0)
(222.596 -31.7901 0)
(-1305.89 -178.298 0)
(-733.117 325.859 0)
(180.613 423.13 0)
(266.976 358.133 0)
(241.369 264.28 0)
(233.521 182.33 0)
(242.345 115.553 0)
(273.219 66.6054 0)
(305.717 26.1455 0)
(317.175 1.10935 0)
(316.729 -2.98892 0)
(338.682 -2.45307 0)
(-282.643 8.66011 0)
(-277.782 23.5584 0)
(-299.343 38.2576 0)
(-311.541 49.2695 0)
(-293.497 62.6118 0)
(-292.713 51.251 0)
(-283.857 51.7874 0)
(-270.172 86.1713 0)
(-315.643 69.3508 0)
(-221.84 65.8401 0)
(1.39191 151.515 0)
(115.787 183.116 0)
(324.38 260.067 0)
(802.925 414.536 0)
(951.622 168.915 0)
(661.796 -141.247 0)
(351.092 -236.97 0)
(-32.0686 -423.849 0)
(-127.966 -398.483 0)
(2.46912 -183.523 0)
(-128.178 -277.532 0)
(-267.377 -292.104 0)
(-275.473 -198.789 0)
(-295.501 -95.0977 0)
(-366.277 16.3839 0)
(-327.394 166.873 0)
(708.823 712.924 0)
(240.152 960.587 0)
(-1095.9 728.022 0)
(-447.285 1179.52 0)
(143.62 1174.8 0)
(122.358 997.714 0)
(93.402 807.948 0)
(120.328 607.028 0)
(171.138 414.25 0)
(215.45 252.971 0)
(247.365 132.615 0)
(285.624 53.1609 0)
(311.758 7.86768 0)
(340.972 -1.6237 0)
(-268.319 6.57128 0)
(-262.465 17.4884 0)
(-281.951 27.7317 0)
(-292.736 51.9904 0)
(-293.066 69.2119 0)
(-303.076 65.7422 0)
(-276.018 69.6993 0)
(-254.006 74.7454 0)
(-284.08 74.874 0)
(-193.074 129.92 0)
(-11.7633 160.076 0)
(131.38 178.322 0)
(405.338 291.327 0)
(735.425 317.408 0)
(734.951 14.5436 0)
(512.513 -183.905 0)
(172.294 -416.186 0)
(-116.224 -551.361 0)
(33.7281 -325.468 0)
(61.3057 -242.739 0)
(-161.326 -225.838 0)
(-166.262 -53.3548 0)
(-118.752 203.674 0)
(-145.141 632.37 0)
(-184.271 1017.14 0)
(220.084 1241.88 0)
(1318.24 1919.61 0)
(237.145 1314.78 0)
(-1094.92 1080.52 0)
(-302.59 1473.7 0)
(5.41783 1417.66 0)
(-86.5324 1294.69 0)
(-135.111 1198.87 0)
(-145.861 1063.04 0)
(-98.8372 869.286 0)
(1.82496 629.299 0)
(113.172 386.946 0)
(196.964 189.032 0)
(263.937 61.9518 0)
(332.665 2.37723 0)
(-259.458 7.79423 0)
(-257.391 14.7091 0)
(-266.096 19.979 0)
(-271.569 39.3221 0)
(-280.246 47.7537 0)
(-292.243 50.8414 0)
(-275.181 75.3774 0)
(-265.186 84.3397 0)
(-262.475 90.5909 0)
(-139.736 176.47 0)
(48.0334 249.805 0)
(242.265 292.165 0)
(458.409 308.41 0)
(536.206 169.634 0)
(468.539 -74.4633 0)
(246.729 -278.041 0)
(-3.00307 -597.409 0)
(55.3506 -426.628 0)
(169.434 -16.9893 0)
(98.4756 19.3323 0)
(54.3195 365.245 0)
(146.517 1078.3 0)
(385.316 1631.66 0)
(488.385 1911.87 0)
(221.071 1911.39 0)
(542.255 1724.92 0)
(779.072 1493.88 0)
(-568.419 91.3402 0)
(-942.766 467.975 0)
(-122.408 871.879 0)
(-28.8771 860.316 0)
(-88.4735 868.097 0)
(-129.828 922.682 0)
(-197.273 969.072 0)
(-246.827 968.018 0)
(-249.35 889.843 0)
(-176.892 697.645 0)
(-27.5524 429.493 0)
(131.891 189.931 0)
(278.983 15.4042 0)
(-246.634 12.3824 0)
(-250.723 25.0893 0)
(-258.233 28.5123 0)
(-265.971 25.1174 0)
(-281.966 8.6173 0)
(-276.457 -1.73079 0)
(-243.738 7.88335 0)
(-239.345 17.0153 0)
(-195.299 59.8566 0)
(-39.6501 153.271 0)
(99.7237 205.842 0)
(187.854 229.008 0)
(287.263 181.129 0)
(366.475 22.2818 0)
(303.554 -175.66 0)
(8.58271 -420.51 0)
(29.1104 -109.339 0)
(443.09 335.007 0)
(463.472 840.406 0)
(429.64 1498.78 0)
(859.134 2097.01 0)
(1054.1 2400.05 0)
(684.503 2404.32 0)
(124.42 1915.61 0)
(-364.42 1165.33 0)
(-182.251 538.741 0)
(-255.939 -414.75 0)
(-751.45 -841.015 0)
(-342.764 67.3491 0)
(75.4839 342.171 0)
(1.77424 358.33 0)
(-26.4346 381.884 0)
(-37.8082 448.067 0)
(-102.173 531.175 0)
(-175.185 612.422 0)
(-258.717 698.35 0)
(-330.438 715.447 0)
(-292.288 601.072 0)
(-135.094 349.119 0)
(134.797 50.9386 0)
(-223.349 -0.727774 0)
(-241.848 -12.8311 0)
(-266.069 -37.8251 0)
(-290.74 -61.141 0)
(-306.118 -67.9525 0)
(-292.95 -41.2804 0)
(-257.117 -11.6454 0)
(-215.102 40.2487 0)
(-131.174 153.025 0)
(0.940103 222.978 0)
(121.017 211.986 0)
(218.451 210.856 0)
(259.2 224.306 0)
(192.392 210.876 0)
(41.8489 348.21 0)
(310.638 692.172 0)
(725.04 1553.39 0)
(970.56 2131.45 0)
(1290.88 2445.08 0)
(1309.38 2748.24 0)
(922.816 2650.04 0)
(442.649 1919.92 0)
(-81.5004 1104.72 0)
(-705.547 472.269 0)
(-1105.73 -177.787 0)
(-980.366 -837.954 0)
(-550.511 -1410.66 0)
(-103.852 -739.181 0)
(197.395 10.1685 0)
(157.992 109.719 0)
(9.39132 139.639 0)
(-1.99959 160.22 0)
(14.0351 191.728 0)
(-38.8955 231.919 0)
(-85.7318 268.435 0)
(-150.072 328.493 0)
(-270.633 411.542 0)
(-380.559 458.555 0)
(-398.238 370.372 0)
(-106.528 98.381 0)
(-259.7 -13.802 0)
(-286.471 -44.1332 0)
(-304.786 -46.4054 0)
(-295.003 1.40397 0)
(-262.828 123.602 0)
(-222.197 290.754 0)
(-165.174 472.726 0)
(-80.6629 684.453 0)
(-19.2151 935.241 0)
(17.167 1123.83 0)
(88.0425 1199.14 0)
(199.726 1258.91 0)
(287.284 1481.3 0)
(485.873 1768.8 0)
(767.349 2144.72 0)
(1169.94 2679.04 0)
(1416.05 2915.57 0)
(1302.36 2882.43 0)
(1057.83 2489.29 0)
(627.14 1741.24 0)
(60.9366 1011.35 0)
(-435.02 444.743 0)
(-710.504 -139.656 0)
(-1111.45 -615.221 0)
(-1627 -1070.34 0)
(-1370.29 -1414.96 0)
(-160.758 -1155.68 0)
(617.71 -397.049 0)
(475.267 0.307941 0)
(200.247 30.4196 0)
(50.4387 64.4388 0)
(23.7595 92.4782 0)
(31.2835 102.267 0)
(-28.2552 116.792 0)
(-82.123 119.303 0)
(-120.814 117.745 0)
(-205.105 140.562 0)
(-331.96 184.613 0)
(-482.171 215.261 0)
(-316.911 96.7773 0)
(-279.178 41.4213 0)
(-273.265 123.142 0)
(-222.188 361.91 0)
(-126.915 681.388 0)
(-27.2895 996.886 0)
(43.4782 1342.84 0)
(122.265 1714.52 0)
(230.594 2088.08 0)
(292.23 2414.19 0)
(255.245 2672.36 0)
(251.181 2880.72 0)
(490.35 3082.65 0)
(750.552 3202.48 0)
(831.687 3107.2 0)
(918.986 2910.11 0)
(1053.46 2603.22 0)
(921.034 2034 0)
(559.78 1482.62 0)
(191.189 908.996 0)
(-114.82 341.961 0)
(-326.533 -131.956 0)
(-666.499 -408.666 0)
(-1102.92 -683.632 0)
(-1602.38 -1191.55 0)
(-1876.39 -1536.95 0)
(-1062.61 -1133.47 0)
(430.387 -547.228 0)
(1010.1 -198.027 0)
(609.32 -20.0934 0)
(219.791 19.1943 0)
(69.1933 48.745 0)
(34.4533 56.9486 0)
(37.4651 52.8837 0)
(-22.4787 60.8056 0)
(-84.8134 68.3709 0)
(-129.586 61.0266 0)
(-206.197 44.4399 0)
(-308.576 33.1271 0)
(-482.879 35.2012 0)
(-407.22 30.3453 0)
(-101.121 154.175 0)
(22.3629 530.131 0)
(233.16 1007.78 0)
(316.883 1454.14 0)
(374.569 1743.26 0)
(469.342 1938.16 0)
(552.967 2097.27 0)
(593.56 2216.37 0)
(543.815 2266.69 0)
(466.733 2325.2 0)
(483.416 2501.03 0)
(509.785 2625.73 0)
(310.939 2380 0)
(204.138 2005.43 0)
(281.698 1591.5 0)
(325.688 1195.3 0)
(336.199 682.116 0)
(218.263 333.919 0)
(-41.3512 41.401 0)
(-375.959 -206.835 0)
(-662.395 -512.752 0)
(-966.634 -848.428 0)
(-1464.92 -1241.25 0)
(-1933.74 -1595.22 0)
(-1571.04 -1284.4 0)
(-416.557 -453.861 0)
(740.672 -161.942 0)
(1125.68 -173.145 0)
(684.589 -105.131 0)
(266.582 -36.754 0)
(86.8202 8.32743 0)
(27.7477 12.3604 0)
(35.0003 9.84358 0)
(-13.3311 14.7793 0)
(-81.91 29.0061 0)
(-143.875 20.4927 0)
(-231.99 9.52715 0)
(-340.863 -12.5187 0)
(-484.852 -41.5587 0)
(-380.074 0.808986 0)
(380.245 263.096 0)
(549.303 639.631 0)
(668.219 912.397 0)
(581.818 983.617 0)
(439.134 954.701 0)
(384.61 832.173 0)
(390.352 692.469 0)
(393.855 586.024 0)
(397.102 581.9 0)
(481.065 687.601 0)
(540.786 825.112 0)
(373.725 813.111 0)
(152.812 706.137 0)
(71.8599 760.848 0)
(138.311 675.832 0)
(177.141 564.576 0)
(90.9765 303.641 0)
(-57.6361 -29.0848 0)
(-329.901 -366.589 0)
(-648.822 -631.242 0)
(-944.795 -923.223 0)
(-1368.51 -1339.28 0)
(-1822.56 -1693.06 0)
(-1643.96 -1405.17 0)
(-776.538 -521.435 0)
(19.0322 11.6457 0)
(700.895 -0.437535 0)
(1064.84 -216.081 0)
(740.751 -201.317 0)
(329.124 -104.162 0)
(116.522 -60.2045 0)
(35.9143 -45.1313 0)
(39.796 -41.2847 0)
(-4.01295 -41.1579 0)
(-79.3078 -22.8558 0)
(-148.357 -24.0244 0)
(-238.008 -26.8837 0)
(-357.804 -32.572 0)
(-470.036 -49.4085 0)
(-367.952 2.43791 0)
(768.78 89.0033 0)
(648.054 96.5285 0)
(564.637 11.2011 0)
(357.648 -183.007 0)
(228.633 -298.911 0)
(216.646 -352.365 0)
(315.769 -321.168 0)
(487.012 -243.414 0)
(641.699 -98.8852 0)
(701.101 61.2984 0)
(604.362 160.695 0)
(395.136 223.668 0)
(260.576 352.169 0)
(174.936 436.195 0)
(92.5632 418.425 0)
(-32.9699 202.422 0)
(-235.873 -74.4608 0)
(-427.594 -403.259 0)
(-621.612 -751.936 0)
(-912.352 -1088.12 0)
(-1344.69 -1465.43 0)
(-1708.48 -1740.29 0)
(-1528.41 -1431.01 0)
(-804.721 -579.9 0)
(-205.739 24.814 0)
(85.4957 170.792 0)
(521.226 78.9471 0)
(932.101 -213.251 0)
(792.439 -273.223 0)
(402.563 -156.036 0)
(143.704 -97.2541 0)
(45.9795 -76.3915 0)
(38.8291 -81.3281 0)
(4.42754 -92.4742 0)
(-65.3995 -81.2589 0)
(-147.756 -78.9006 0)
(-240.227 -87.1958 0)
(-362.569 -79.2946 0)
(-451.115 -75.9703 0)
(-334.812 -23.338 0)
(559.03 -204.123 0)
(474.33 -401.931 0)
(398.849 -580.346 0)
(282.982 -673.672 0)
(275.934 -632.697 0)
(363.162 -530.272 0)
(495.342 -402.336 0)
(608.056 -308.432 0)
(690.734 -284.973 0)
(731.206 -272.465 0)
(697.251 -203.24 0)
(558.236 -35.6317 0)
(357.611 117.277 0)
(135.706 80.8721 0)
(-86.9617 -59.5654 0)
(-297.821 -314.038 0)
(-492.679 -575.391 0)
(-710.476 -861.689 0)
(-989.862 -1218.58 0)
(-1336.37 -1607.71 0)
(-1573.25 -1758.25 0)
(-1335.34 -1356.06 0)
(-704.36 -558.176 0)
(-241.076 25.3824 0)
(-53.1439 208.344 0)
(71.1968 221.565 0)
(330.818 157.808 0)
(725.479 -139.349 0)
(795.885 -316.931 0)
(498.694 -235.026 0)
(193.27 -155.311 0)
(51.2611 -130.532 0)
(24.2981 -146.237 0)
(-3.94621 -153.015 0)
(-66.2278 -150.087 0)
(-154.078 -151.04 0)
(-238.387 -147.349 0)
(-346.986 -117.837 0)
(-416.114 -69.1529 0)
(-272.255 -18.0332 0)
(184.764 -238.009 0)
(285.511 -423.821 0)
(302.777 -557.47 0)
(307.201 -604.489 0)
(366.818 -584.045 0)
(438.63 -535.196 0)
(529.542 -545.717 0)
(600.107 -597.956 0)
(676.357 -668.802 0)
(779.862 -678.344 0)
(832.584 -614.649 0)
(703.998 -514.86 0)
(372.843 -464.798 0)
(4.52361 -503.269 0)
(-287.986 -644.798 0)
(-530.038 -880.215 0)
(-763.61 -1159.76 0)
(-1047.39 -1459.23 0)
(-1340.5 -1703.58 0)
(-1432.4 -1685.42 0)
(-1102.19 -1200.57 0)
(-552.046 -477.52 0)
(-197.2 31.5583 0)
(-66.0749 213.433 0)
(-16.6906 271.827 0)
(36.7974 253.124 0)
(173.436 193.549 0)
(474.625 -15.4539 0)
(700.24 -292.666 0)
(558.305 -327.577 0)
(244.399 -261.271 0)
(54.7235 -223.357 0)
(17.1632 -242.135 0)
(0.717954 -253.287 0)
(-63.4958 -255.842 0)
(-145.118 -244.975 0)
(-208.231 -207.039 0)
(-287.216 -171.279 0)
(-354.941 -70.3372 0)
(-250.796 -25.5 0)
(-78.7334 -176.069 0)
(166.486 -264.432 0)
(224.751 -401.01 0)
(257.374 -467.012 0)
(342.706 -527.72 0)
(400.096 -603.591 0)
(434.865 -708.745 0)
(489.446 -830.724 0)
(613.269 -936.392 0)
(783.391 -1001.33 0)
(854.791 -1054.96 0)
(702.638 -1113.84 0)
(368.781 -1187.59 0)
(-37.7488 -1251.94 0)
(-450.201 -1387.77 0)
(-794.061 -1584.03 0)
(-1050.64 -1751.64 0)
(-1234.51 -1782.11 0)
(-1207.83 -1529.82 0)
(-851.656 -965.491 0)
(-409.269 -333.125 0)
(-148.013 63.9923 0)
(-38.5326 215.703 0)
(-9.54516 270.923 0)
(-14.8961 279.711 0)
(-4.23409 272.086 0)
(72.0065 222.574 0)
(256.944 104.268 0)
(495.111 -166.718 0)
(528.948 -359.125 0)
(293.701 -369.261 0)
(69.7005 -317.746 0)
(-4.54341 -333.989 0)
(-17.1547 -365.941 0)
(-58.2181 -387.473 0)
(-107.049 -368.235 0)
(-167.372 -301.703 0)
(-215.256 -230.798 0)
(-275.636 -14.5487 0)
(-179.903 49.1854 0)
(-239.719 -237.334 0)
(68.75 -258.803 0)
(107.564 -353.941 0)
(185.098 -368.9 0)
(235.206 -435.655 0)
(264.188 -563.729 0)
(310.669 -692.693 0)
(380.738 -782.625 0)
(511.95 -843.607 0)
(665.607 -969.953 0)
(724.169 -1220.5 0)
(576.186 -1567.48 0)
(239.769 -1934.07 0)
(-188.376 -2232.88 0)
(-608.001 -2344.23 0)
(-880.673 -2219.43 0)
(-954.489 -1899.59 0)
(-833.634 -1399.63 0)
(-553.58 -769.758 0)
(-279.223 -208.316 0)
(-110.145 99.2141 0)
(-23.1754 221.105 0)
(2.20605 259.876 0)
(-4.39474 263.602 0)
(-15.5695 266.927 0)
(-18.2614 273.788 0)
(11.7201 265.474 0)
(99.4893 197.234 0)
(253.699 5.51241 0)
(363.128 -285.101 0)
(284.273 -464.703 0)
(88.7129 -483.523 0)
(-29.2798 -483.492 0)
(-50.8213 -474.237 0)
(-65.7061 -468.102 0)
(-62.4676 -435.586 0)
(-75.7915 -371.227 0)
(-10.5032 -294.223 0)
(-85.139 -102.639 0)
(-284.173 64.5454 0)
(-556.829 443.159 0)
(54.1191 383.448 0)
(118.657 315.653 0)
(178.631 148.691 0)
(154.962 -61.8017 0)
(152.405 -256.201 0)
(223.928 -494.116 0)
(344.02 -810.972 0)
(432.753 -1246.22 0)
(420.202 -1791.32 0)
(278.992 -2373.01 0)
(15.0138 -2832.34 0)
(-272.426 -2986.51 0)
(-432.991 -2798.45 0)
(-437.233 -2341.7 0)
(-365.587 -1713.77 0)
(-260.654 -1048.41 0)
(-145.769 -452.776 0)
(-59.8339 -32.0489 0)
(-14.2829 183.786 0)
(4.53571 272.532 0)
(6.80693 293.38 0)
(2.41962 289.519 0)
(-2.75118 288.58 0)
(-5.08075 296.934 0)
(-5.63422 310.009 0)
(-1.76363 321.731 0)
(6.43606 299.677 0)
(30.3156 211.809 0)
(75.8312 4.94514 0)
(102.493 -243.715 0)
(51.5947 -396.417 0)
(4.40521 -389.317 0)
(-2.32372 -370.603 0)
(-20.9728 -334.166 0)
(-13.6977 -280.654 0)
(-31.1484 -255.127 0)
(43.5656 -169.678 0)
(70.0858 -289.437 0)
(-143.194 -154.057 0)
(-556.829 -443.159 0)
(54.1191 -383.448 0)
(118.657 -315.653 0)
(178.631 -148.691 0)
(154.962 61.8017 0)
(152.405 256.201 0)
(223.928 494.116 0)
(344.02 810.972 0)
(432.753 1246.22 0)
(420.202 1791.32 0)
(278.992 2373.01 0)
(15.0138 2832.34 0)
(-272.426 2986.51 0)
(-432.991 2798.45 0)
(-437.233 2341.7 0)
(-365.587 1713.77 0)
(-260.654 1048.41 0)
(-145.769 452.776 0)
(-59.8339 32.0489 0)
(-14.2829 -183.786 0)
(4.53571 -272.532 0)
(6.80693 -293.38 0)
(2.41962 -289.519 0)
(-2.75118 -288.58 0)
(-5.08075 -296.934 0)
(-5.63422 -310.009 0)
(-1.76363 -321.731 0)
(6.43606 -299.677 0)
(30.3156 -211.809 0)
(75.8312 -4.94514 0)
(102.493 243.715 0)
(51.5947 396.417 0)
(4.40521 389.317 0)
(-2.32372 370.603 0)
(-20.9728 334.166 0)
(-13.6977 280.654 0)
(-31.1484 255.127 0)
(43.5656 169.678 0)
(70.0858 289.437 0)
(-143.194 154.057 0)
(-239.719 237.334 0)
(68.75 258.803 0)
(107.564 353.941 0)
(185.098 368.9 0)
(235.206 435.655 0)
(264.188 563.729 0)
(310.669 692.693 0)
(380.738 782.625 0)
(511.95 843.607 0)
(665.607 969.953 0)
(724.169 1220.5 0)
(576.186 1567.48 0)
(239.769 1934.07 0)
(-188.376 2232.88 0)
(-608.001 2344.23 0)
(-880.673 2219.43 0)
(-954.489 1899.59 0)
(-833.634 1399.63 0)
(-553.58 769.758 0)
(-279.223 208.316 0)
(-110.145 -99.2141 0)
(-23.1754 -221.105 0)
(2.20605 -259.876 0)
(-4.39474 -263.602 0)
(-15.5695 -266.927 0)
(-18.2614 -273.788 0)
(11.7201 -265.474 0)
(99.4893 -197.234 0)
(253.699 -5.51241 0)
(363.128 285.101 0)
(284.273 464.703 0)
(88.7129 483.523 0)
(-29.2798 483.492 0)
(-50.8213 474.237 0)
(-65.7061 468.102 0)
(-62.4676 435.586 0)
(-75.7915 371.227 0)
(-10.5032 294.223 0)
(-85.139 102.639 0)
(-284.173 -64.5454 0)
(-78.7334 176.069 0)
(166.486 264.432 0)
(224.751 401.01 0)
(257.374 467.012 0)
(342.706 527.72 0)
(400.096 603.591 0)
(434.865 708.745 0)
(489.446 830.724 0)
(613.269 936.392 0)
(783.391 1001.33 0)
(854.791 1054.96 0)
(702.638 1113.84 0)
(368.781 1187.59 0)
(-37.7488 1251.94 0)
(-450.201 1387.77 0)
(-794.061 1584.03 0)
(-1050.64 1751.64 0)
(-1234.51 1782.11 0)
(-1207.83 1529.82 0)
(-851.656 965.491 0)
(-409.269 333.125 0)
(-148.013 -63.9923 0)
(-38.5326 -215.703 0)
(-9.54516 -270.923 0)
(-14.8961 -279.711 0)
(-4.23409 -272.086 0)
(72.0065 -222.574 0)
(256.944 -104.268 0)
(495.111 166.718 0)
(528.948 359.125 0)
(293.701 369.261 0)
(69.7005 317.746 0)
(-4.54341 333.989 0)
(-17.1547 365.941 0)
(-58.2181 387.473 0)
(-107.049 368.235 0)
(-167.372 301.703 0)
(-215.256 230.798 0)
(-275.636 14.5487 0)
(-179.903 -49.1854 0)
(184.764 238.009 0)
(285.511 423.821 0)
(302.777 557.47 0)
(307.201 604.489 0)
(366.818 584.045 0)
(438.63 535.196 0)
(529.542 545.717 0)
(600.107 597.956 0)
(676.357 668.802 0)
(779.862 678.344 0)
(832.584 614.649 0)
(703.998 514.86 0)
(372.843 464.798 0)
(4.52361 503.269 0)
(-287.986 644.798 0)
(-530.038 880.215 0)
(-763.61 1159.76 0)
(-1047.39 1459.23 0)
(-1340.5 1703.58 0)
(-1432.4 1685.42 0)
(-1102.19 1200.57 0)
(-552.046 477.52 0)
(-197.2 -31.5583 0)
(-66.0749 -213.433 0)
(-16.6906 -271.827 0)
(36.7974 -253.124 0)
(173.436 -193.549 0)
(474.625 15.4539 0)
(700.24 292.666 0)
(558.305 327.577 0)
(244.399 261.271 0)
(54.7235 223.357 0)
(17.1632 242.135 0)
(0.717954 253.287 0)
(-63.4958 255.842 0)
(-145.118 244.975 0)
(-208.231 207.039 0)
(-287.216 171.279 0)
(-354.941 70.3372 0)
(-250.796 25.5 0)
(559.03 204.123 0)
(474.33 401.931 0)
(398.849 580.346 0)
(282.982 673.672 0)
(275.934 632.697 0)
(363.162 530.272 0)
(495.342 402.336 0)
(608.056 308.432 0)
(690.734 284.973 0)
(731.206 272.465 0)
(697.251 203.24 0)
(558.236 35.6317 0)
(357.611 -117.277 0)
(135.706 -80.8721 0)
(-86.9617 59.5654 0)
(-297.821 314.038 0)
(-492.679 575.391 0)
(-710.476 861.689 0)
(-989.862 1218.58 0)
(-1336.37 1607.71 0)
(-1573.25 1758.25 0)
(-1335.34 1356.06 0)
(-704.36 558.176 0)
(-241.076 -25.3824 0)
(-53.1439 -208.344 0)
(71.1968 -221.565 0)
(330.818 -157.808 0)
(725.479 139.349 0)
(795.885 316.931 0)
(498.694 235.026 0)
(193.27 155.311 0)
(51.2611 130.532 0)
(24.2981 146.237 0)
(-3.94621 153.015 0)
(-66.2278 150.087 0)
(-154.078 151.04 0)
(-238.387 147.349 0)
(-346.986 117.837 0)
(-416.114 69.1529 0)
(-272.255 18.0332 0)
(768.78 -89.0033 0)
(648.054 -96.5285 0)
(564.637 -11.2011 0)
(357.648 183.007 0)
(228.633 298.911 0)
(216.646 352.365 0)
(315.769 321.168 0)
(487.012 243.414 0)
(641.699 98.8852 0)
(701.101 -61.2984 0)
(604.362 -160.695 0)
(395.136 -223.668 0)
(260.576 -352.169 0)
(174.936 -436.195 0)
(92.5632 -418.425 0)
(-32.9699 -202.422 0)
(-235.873 74.4608 0)
(-427.594 403.259 0)
(-621.612 751.936 0)
(-912.352 1088.12 0)
(-1344.69 1465.43 0)
(-1708.48 1740.29 0)
(-1528.41 1431.01 0)
(-804.721 579.9 0)
(-205.739 -24.814 0)
(85.4957 -170.792 0)
(521.226 -78.9471 0)
(932.101 213.251 0)
(792.439 273.223 0)
(402.563 156.036 0)
(143.704 97.2541 0)
(45.9795 76.3915 0)
(38.8291 81.3281 0)
(4.42754 92.4742 0)
(-65.3995 81.2589 0)
(-147.756 78.9006 0)
(-240.227 87.1958 0)
(-362.569 79.2946 0)
(-451.115 75.9703 0)
(-334.812 23.338 0)
(380.245 -263.096 0)
(549.303 -639.631 0)
(668.219 -912.397 0)
(581.818 -983.617 0)
(439.134 -954.701 0)
(384.61 -832.173 0)
(390.352 -692.469 0)
(393.855 -586.024 0)
(397.102 -581.9 0)
(481.065 -687.601 0)
(540.786 -825.112 0)
(373.725 -813.111 0)
(152.812 -706.137 0)
(71.8599 -760.848 0)
(138.311 -675.832 0)
(177.141 -564.576 0)
(90.9765 -303.641 0)
(-57.6361 29.0848 0)
(-329.901 366.589 0)
(-648.822 631.242 0)
(-944.795 923.223 0)
(-1368.51 1339.28 0)
(-1822.56 1693.06 0)
(-1643.96 1405.17 0)
(-776.538 521.435 0)
(19.0322 -11.6457 0)
(700.895 0.437535 0)
(1064.84 216.081 0)
(740.751 201.317 0)
(329.124 104.162 0)
(116.522 60.2045 0)