/*--------------------------------*- C++ -*----------------------------------*\
| =========                 |                                                 |
| \\      /  F ield         | OpenFOAM: The Open Source CFD Toolbox           |
|  \\    /   O peration     | Version:  v1912                                 |
|   \\  /    A nd           | Website:  www.openfoam.com                      |
|    \\/     M anipulation  |                                                 |
\*---------------------------------------------------------------------------*/
FoamFile
{
    version     2.0;
    format      ascii;
    class       volVectorField;
    location    "5.44";
    object      grad(p);
}
// * * * * * * * * * * * * * * * * * * * * * * * * * * * * * * * * * * * * * //

dimensions      [1 -2 -2 0 0 0 0];


internalField   nonuniform List<vector> 
1900
(
(129860 0.495533 0)
(-128643 -0.879799 0)
(-7516.79 0.0819032 0)
(-1032.63 -1.35091 0)
(-776.111 -0.674958 0)
(-433.249 2.34392 0)
(-469.107 8.10537 0)
(-567.235 20.1561 0)
(-617.222 60.9118 0)
(178.312 -54.195 0)
(129860 0.54302 0)
(-128644 -1.04012 0)
(-7517.26 0.00179201 0)
(-1033.39 -0.764261 0)
(-772.416 1.3509 0)
(-424.469 7.29286 0)
(-451.295 11.6363 0)
(-514.429 6.00118 0)
(-691.573 -0.249889 0)
(-867.278 -119.441 0)
(129859 -5.80513e-08 0)
(-128644 7.55485e-08 0)
(-7516.52 -5.8602e-08 0)
(-1031.28 -1.24345e-09 0)
(-768.054 3.0731e-09 0)
(-422.964 4.17444e-09 0)
(-470.399 1.7053e-09 0)
(-579.121 5.15143e-10 0)
(-742.664 1.19016e-09 0)
(-962.483 -1.03029e-09 0)
(129860 -0.54302 0)
(-128644 1.04012 0)
(-7517.26 -0.00179215 0)
(-1033.39 0.764261 0)
(-772.416 -1.3509 0)
(-424.469 -7.29286 0)
(-451.295 -11.6363 0)
(-514.429 -6.00118 0)
(-691.573 0.249889 0)
(-867.278 119.441 0)
(129860 -0.495533 0)
(-128643 0.879799 0)
(-7516.79 -0.0819033 0)
(-1032.63 1.35091 0)
(-776.111 0.674958 0)
(-433.249 -2.34392 0)
(-469.107 -8.10537 0)
(-567.235 -20.1561 0)
(-617.222 -60.9118 0)
(178.312 54.195 0)
(-637.091 -859.229 8.9425e-12)
(-2224.53 -718.931 -1.04397e-11)
(-2168.53 -772.658 -1.30781e-11)
(455.523 -1115.32 0)
(-16806.5 -8504.74 -5.67028e-11)
(-1215.87 -1008.52 8.78724e-12)
(-1644 -845.839 1.04397e-11)
(-2037.15 -941.595 1.30781e-11)
(-2397.97 -962.654 0)
(-15896.2 -7240.32 0)
(-1571.59 -8.04509e-11 0)
(-1849.34 9.7388e-11 0)
(-2076.27 -5.67447e-10 0)
(-2127.87 1.27844e-09 0)
(-18759.2 -4.7581e-10 0)
(-1215.87 1008.52 8.78724e-12)
(-1644 845.839 1.04397e-11)
(-2037.15 941.595 1.30781e-11)
(-2397.97 962.654 0)
(-15896.2 7240.32 0)
(-637.091 859.229 -2.6517e-11)
(-2224.53 718.931 -1.04397e-11)
(-2168.53 772.658 -1.30781e-11)
(455.523 1115.32 -3.50336e-11)
(-16806.5 8504.74 5.67028e-11)
(-32649.1 11311.2 1.17922e-11)
(-5590.62 3503.2 -7.36146e-12)
(-1383.19 1863.23 0)
(-2932.52 1163.28 5.11607e-12)
(-6631.99 1591.81 -2.01747e-12)
(-28700 13571.5 -6.06644e-12)
(-7688.3 2455.23 3.73348e-12)
(-1974.57 600.353 0)
(-2882.53 387.75 -3.22236e-12)
(-6136.39 879.929 5.22978e-13)
(-30141.3 3.14002e-10 0)
(-8880.99 5.12411e-10 0)
(-2106.17 2.50006e-09 0)
(-2862.23 -1.98824e-09 1.29361e-12)
(-5926.39 4.03836e-09 -1.04596e-12)
(-28700 -13571.5 -6.06644e-12)
(-7688.3 -2455.23 3.73348e-12)
(-1974.57 -600.353 0)
(-2882.53 -387.75 -3.22236e-12)
(-6136.39 -879.929 5.22978e-13)
(-32649.1 -11311.2 6.06644e-12)
(-5590.62 -3503.2 -1.05505e-13)
(-1383.19 -1863.23 0)
(-2932.52 -1163.28 3.50341e-14)
(-6631.99 -1591.81 2.01747e-12)
(-6468.36 4019.15 0)
(-796.065 -742.059 0)
(2578.74 -504.235 0)
(2352.16 1293.06 0)
(183.908 1413.52 0)
(-1244.88 934.823 0)
(-1618.43 467.047 0)
(-1363.88 202.433 0)
(-919.566 86.1731 0)
(-597.677 36.3386 0)
(-480.181 17.4863 0)
(-445.627 17.5484 0)
(-399.662 18.1936 0)
(-312.336 8.3813 0)
(-204.08 1.38057 0)
(-122.007 -1.00071 0)
(-80.1636 -1.29073 0)
(-62.6555 -1.12745 0)
(-53.8358 -1.03282 0)
(-46.3348 -1.07413 0)
(-38.3499 -1.17748 0)
(-30.7762 -1.27065 0)
(-24.0217 -1.33132 0)
(-18.1095 -1.37074 0)
(-12.9305 -1.4041 0)
(-8.3988 -1.45287 0)
(-3.68089 -1.5013 0)
(2.39675 -1.56279 0)
(11.4799 -1.59717 0)
(20.8923 -1.54718 0)
(33.3396 -1.49862 0)
(44.0095 -1.15268 0)
(57.2969 -1.22158 0)
(66.0901 -0.278472 0)
(92.3446 -1.96501 0)
(125.197 0.79225 0)
(203.382 -0.342636 0)
(348.299 8.1415 0)
(2314.27 -9.7481 0)
(-1207.53 -371.897 0)
(-7071.47 2545.92 0)
(-1468.37 -561.546 0)
(3050.46 -606.702 0)
(2564.35 336.282 0)
(35.0258 366.493 0)
(-1399.34 412.899 0)
(-1707.23 273.134 0)
(-1409.26 108.351 0)
(-937.609 37.1651 0)
(-604.483 15.2435 0)
(-482.235 5.54215 0)
(-445.071 6.13789 0)
(-400.251 7.91639 0)
(-313.96 2.87746 0)
(-204.857 0.103897 0)
(-122.19 -0.629138 0)
(-80.1612 -0.689647 0)
(-62.6258 -0.600169 0)
(-53.8253 -0.542758 0)
(-46.3437 -0.548901 0)
(-38.3652 -0.586898 0)
(-30.7891 -0.625494 0)
(-24.0309 -0.654449 0)
(-18.1171 -0.67784 0)
(-12.9396 -0.701397 0)
(-8.40963 -0.733502 0)
(-3.69388 -0.766148 0)
(2.38354 -0.807316 0)
(11.4764 -0.837833 0)
(20.894 -0.83026 0)
(33.3686 -0.825727 0)
(44.0248 -0.676807 0)
(57.3889 -0.719868 0)
(66.0104 -0.163165 0)
(92.4554 -0.940753 0)
(125.406 0.687902 0)
(203.83 1.00303 0)
(348.329 5.19545 0)
(2313.16 2.08655 0)
(-1206.92 -7.31686 0)
(-6766.83 -6.10825e-08 0)
(-1713.19 6.90397e-08 0)
(2839.93 6.94031e-08 0)
(2635.27 1.9984e-08 0)
(206.196 1.28463e-08 0)
(-1272.04 -9.9476e-09 0)
(-1707.03 -3.9968e-09 0)
(-1432.52 -5.88216e-09 0)
(-946.652 -1.61164e-08 0)
(-606.876 -1.3028e-08 0)
(-482.83 9.2855e-11 0)
(-444.937 -7.82404e-09 0)
(-400.61 4.68312e-10 0)
(-314.609 -5.34118e-09 0)
(-205.1 -3.54464e-09 0)
(-122.238 -2.70087e-09 0)
(-80.1551 -1.15867e-09 0)
(-62.6127 -1.195e-09 0)
(-53.8209 -8.39732e-10 0)
(-46.3477 6.09613e-10 0)
(-38.3722 2.46671e-09 0)
(-30.7959 4.85067e-09 0)
(-24.037 6.19706e-09 0)
(-18.1232 5.0061e-09 0)
(-12.9467 2.42029e-09 0)
(-8.41764 -7.4284e-10 0)
(-3.70236 -3.43362e-09 0)
(2.37589 -5.08078e-09 0)
(11.4732 -5.90639e-09 0)
(20.8958 -3.96854e-09 0)
(33.3842 3.2035e-09 0)
(44.0403 8.04003e-09 0)
(57.4463 3.62942e-09 0)
(66.0258 4.52567e-09 0)
(92.5921 7.40418e-09 0)
(125.763 2.15464e-08 0)
(204.693 6.21321e-09 0)
(348.614 -7.1458e-10 0)
(2310.63 -7.50672e-08 0)
(-1206 -2.74544e-07 0)
(-7071.47 -2545.92 0)
(-1468.37 561.546 0)
(3050.46 606.702 0)
(2564.35 -336.282 0)
(35.0258 -366.493 0)
(-1399.34 -412.899 0)
(-1707.23 -273.134 0)
(-1409.26 -108.351 0)
(-937.609 -37.1651 0)
(-604.483 -15.2435 0)
(-482.235 -5.54215 0)
(-445.071 -6.13789 0)
(-400.251 -7.91639 0)
(-313.96 -2.87746 0)
(-204.857 -0.103897 0)
(-122.19 0.629138 0)
(-80.1612 0.689647 0)
(-62.6258 0.600168 0)
(-53.8253 0.542758 0)
(-46.3437 0.548901 0)
(-38.3652 0.586898 0)
(-30.7891 0.625494 0)
(-24.0309 0.654449 0)
(-18.1171 0.67784 0)
(-12.9396 0.701397 0)
(-8.40963 0.733502 0)
(-3.69388 0.766148 0)
(2.38354 0.807316 0)
(11.4764 0.837833 0)
(20.894 0.83026 0)
(33.3686 0.825727 0)
(44.0248 0.676807 0)
(57.3889 0.719868 0)
(66.0104 0.163165 0)
(92.4554 0.940753 0)
(125.406 -0.687902 0)
(203.83 -1.00303 0)
(348.329 -5.19545 0)
(2313.16 -2.08655 0)
(-1206.92 7.31686 0)
(-6468.36 -4019.15 0)
(-796.065 742.059 0)
(2578.74 504.235 0)
(2352.16 -1293.06 0)
(183.908 -1413.52 0)
(-1244.88 -934.823 0)
(-1618.43 -467.047 0)
(-1363.88 -202.433 0)
(-919.566 -86.1731 0)
(-597.677 -36.3386 0)
(-480.181 -17.4863 0)
(-445.627 -17.5484 0)
(-399.662 -18.1936 0)
(-312.336 -8.3813 0)
(-204.08 -1.38057 0)
(-122.007 1.00071 0)
(-80.1636 1.29073 0)
(-62.6555 1.12745 0)
(-53.8358 1.03282 0)
(-46.3348 1.07413 0)
(-38.3499 1.17748 0)
(-30.7762 1.27065 0)
(-24.0217 1.33132 0)
(-18.1095 1.37074 0)
(-12.9305 1.4041 0)
(-8.3988 1.45287 0)
(-3.68089 1.5013 0)
(2.39675 1.56279 0)
(11.4799 1.59717 0)
(20.8923 1.54718 0)
(33.3396 1.49862 0)
(44.0095 1.15268 0)
(57.2969 1.22158 0)
(66.0901 0.278472 0)
(92.3446 1.96501 0)
(125.197 -0.79225 0)
(203.382 0.342636 0)
(348.299 -8.1415 0)
(2314.27 9.7481 0)
(-1207.53 371.897 0)
(583.138 -1847.53 0)
(591.675 -53.3962 0)
(2319.31 10.318 0)
(1606.73 -1192.45 0)
(87.5905 -1449.92 0)
(-984.232 -1198.87 0)
(-1350.5 -678.301 0)
(-1222.81 -347.555 0)
(-854.285 -157.849 0)
(-569.267 -68.4044 0)
(-472.823 -40.0032 0)
(-444.871 -36.2712 0)
(-395.182 -31.0878 0)
(-305.292 -15.5836 0)
(-199.87 -3.37642 0)
(-120.726 1.30658 0)
(-80.0789 1.94815 0)
(-62.7533 1.68893 0)
(-53.8465 1.56294 0)
(-46.2633 1.67186 0)
(-38.2595 1.88 0)
(-30.7074 2.06038 0)
(-23.9786 2.17769 0)
(-18.0801 2.25527 0)
(-12.8987 2.32014 0)
(-8.36119 2.41129 0)
(-3.63994 2.5063 0)
(2.42841 2.61193 0)
(11.4625 2.67019 0)
(20.8342 2.58883 0)
(33.1547 2.45212 0)
(43.8686 1.88613 0)
(56.9469 1.83071 0)
(66.3847 0.707315 0)
(91.912 2.62845 0)
(124.631 -0.753783 0)
(199.738 0.0703365 0)
(354.263 -15.5613 0)
(2550.28 11.8076 0)
(-1445.63 102.295 0)
(401.614 -81.1926 0)
(250.073 -48.7015 0)
(1620.23 -706.234 0)
(1344.74 -1184.49 0)
(229.374 -1434.42 0)
(-641.093 -1168.1 0)
(-941.748 -790.869 0)
(-937.999 -459.869 0)
(-685.573 -217.982 0)
(-499.351 -106.248 0)
(-453.162 -69.0075 0)
(-437.442 -56.841 0)
(-382.129 -43.7116 0)
(-289.41 -22.1769 0)
(-190.061 -5.48576 0)
(-117.563 1.43361 0)
(-79.8405 2.67328 0)
(-62.9742 2.45123 0)
(-53.8465 2.34796 0)
(-46.0677 2.54874 0)
(-38.0241 2.87909 0)
(-30.5263 3.16461 0)
(-23.8571 3.3618 0)
(-17.988 3.50784 0)
(-12.7972 3.63838 0)
(-8.23957 3.81456 0)
(-3.50951 4.00982 0)
(2.5377 4.21608 0)
(11.467 4.35299 0)
(20.7134 4.27514 0)
(32.7615 4.091 0)
(43.4862 3.32702 0)
(56.3486 3.16695 0)
(66.7008 2.02046 0)
(91.1686 3.75486 0)
(123.036 0.0650872 0)
(191.067 -0.545074 0)
(356.411 -18.763 0)
(2301.28 8.59297 0)
(-1189.8 -320.414 0)
(457.967 228.849 0)
(-10.6383 -42.4165 0)
(1224.82 -392.981 0)
(905.026 -785.525 0)
(103.386 -1129.94 0)
(-364.08 -973.575 0)
(-668.026 -754.926 0)
(-670.755 -459.208 0)
(-513.523 -240.417 0)
(-425.71 -135.338 0)
(-425.212 -97.5465 0)
(-420.495 -76.2913 0)
(-361.778 -54.5545 0)
(-268.456 -27.5642 0)
(-177.118 -7.74182 0)
(-112.864 0.915398 0)
(-79.0983 2.88858 0)
(-63.0668 2.92076 0)
(-53.7526 2.95151 0)
(-45.7515 3.27975 0)
(-37.666 3.74047 0)
(-30.2422 4.14022 0)
(-23.6479 4.43938 0)
(-17.8136 4.68879 0)
(-12.6031 4.92128 0)
(-8.00326 5.20497 0)
(-3.25303 5.56228 0)
(2.7591 5.94033 0)
(11.5194 6.16388 0)
(20.5817 6.11009 0)
(32.2411 5.91742 0)
(42.9782 4.98617 0)
(55.6879 4.79538 0)
(66.9512 3.6584 0)
(90.0277 5.05164 0)
(120.487 1.24248 0)
(181.595 -1.30219 0)
(363.069 -15.0767 0)
(2259.6 20.0056 0)
(-1145.14 -87.9429 0)
(581.266 184.715 0)
(-349.145 -177.103 0)
(904.139 -289.763 0)
(634.583 -692.372 0)
(48.1612 -833.393 0)
(-279.718 -814.538 0)
(-446.085 -644.964 0)
(-442.2 -399.952 0)
(-373.48 -236.336 0)
(-361.676 -152.81 0)
(-396.262 -118.898 0)
(-396.013 -91.561 0)
(-335.174 -61.0075 0)
(-244.3 -30.402 0)
(-162.617 -9.19314 0)
(-107.319 0.143372 0)
(-77.908 2.59001 0)
(-62.9136 2.96696 0)
(-53.5006 3.21983 0)
(-45.3074 3.70203 0)
(-37.1949 4.285 0)
(-29.8528 4.79089 0)
(-23.3284 5.19952 0)
(-17.5236 5.57688 0)
(-12.2998 5.94905 0)
(-7.62188 6.34983 0)
(-2.8009 6.84025 0)
(3.11743 7.45245 0)
(11.6306 7.75039 0)
(20.4758 7.73084 0)
(31.6785 7.50202 0)
(42.405 6.45621 0)
(55.0691 6.15533 0)
(66.9477 5.04096 0)
(88.8405 5.79782 0)
(116.913 2.51647 0)
(175.341 -2.39329 0)
(376.944 -7.7908 0)
(2231.06 23.2197 0)
(-1124.33 -88.4416 0)
(465.303 -37.7903 0)
(-467.863 -210.349 0)
(728.291 -211.546 0)
(381.164 -586.173 0)
(-14.3376 -690.034 0)
(-182.503 -644.018 0)
(-268.515 -499.338 0)
(-276.986 -328.271 0)
(-275.367 -213.987 0)
(-312.542 -159.31 0)
(-366.191 -130.422 0)
(-364.709 -99.6334 0)
(-302.843 -62.4536 0)
(-218.526 -30.2655 0)
(-147.684 -9.38544 0)
(-101.509 -0.297063 0)
(-76.3774 2.37485 0)
(-62.4598 3.08526 0)
(-53.0442 3.57271 0)
(-44.725 4.20545 0)
(-36.6168 4.89405 0)
(-29.361 5.49524 0)
(-22.8904 6.0164 0)
(-17.0913 6.53656 0)
(-11.8583 7.07588 0)
(-7.14448 7.62302 0)
(-2.1905 8.23158 0)
(3.63614 9.10839 0)
(11.7877 9.51345 0)
(20.3424 9.54976 0)
(31.0128 9.30821 0)
(41.6805 8.22597 0)
(54.3241 7.83068 0)
(66.6067 6.77768 0)
(87.595 7.11592 0)
(112.594 4.69537 0)
(171.662 -0.722672 0)
(387.751 0.191135 0)
(2181.88 22.1366 0)
(-1082.29 -109.166 0)
(342.15 -97.8617 0)
(-516.582 -198.074 0)
(541.983 -213.058 0)
(173.495 -548.666 0)
(-7.58107 -516.252 0)
(-95.957 -470.128 0)
(-141.82 -364.075 0)
(-167.225 -263.673 0)
(-210.663 -191.762 0)
(-281.15 -161.582 0)
(-338.756 -136.822 0)
(-330.516 -101.581 0)
(-268.328 -60.8664 0)
(-193.161 -28.6291 0)
(-133.739 -9.13529 0)
(-95.9863 -0.666283 0)
(-74.6487 2.2867 0)
(-61.7593 3.38852 0)
(-52.4211 4.15399 0)
(-44.0341 4.94594 0)
(-35.952 5.73209 0)
(-28.7713 6.41611 0)
(-22.325 7.03048 0)
(-16.5027 7.65938 0)
(-11.2528 8.31081 0)
(-6.50821 8.95748 0)
(-1.36955 9.6495 0)
(4.35269 10.6422 0)
(12.0559 11.0456 0)
(20.2781 10.993 0)
(30.4028 10.5885 0)
(40.9812 9.32561 0)
(53.6735 8.64597 0)
(66.259 7.4455 0)
(86.8339 7.36123 0)
(109.36 5.35587 0)
(171.001 0.178243 0)
(398.972 5.13442 0)
(2125.68 21.2633 0)
(-1040.47 -123.162 0)
(180.128 -90.0923 0)
(-578.87 -196.411 0)
(390.448 -266.859 0)
(88.9948 -416.829 0)
(61.3441 -353.634 0)
(-35.8592 -326.108 0)
(-69.5676 -264.257 0)
(-110.939 -212.987 0)
(-176.988 -177.086 0)
(-259.6 -161.654 0)
(-308.372 -136.784 0)
(-291.515 -96.6131 0)
(-232.544 -54.9669 0)
(-168.676 -24.4172 0)
(-120.738 -7.05503 0)
(-90.5028 0.663936 0)
(-72.4701 3.8243 0)
(-60.6605 5.25782 0)
(-51.5434 6.28542 0)
(-43.2043 7.19651 0)
(-35.2001 8.04451 0)
(-28.1098 8.78533 0)
(-21.6924 9.4661 0)
(-15.8576 10.1674 0)
(-10.6074 10.8831 0)
(-5.85447 11.5797 0)
(-0.567025 12.3161 0)
(4.98147 13.3457 0)
(12.1257 13.6726 0)
(19.9019 13.45 0)
(29.4061 12.7928 0)
(39.8086 11.2518 0)
(52.5123 10.1615 0)
(65.3687 8.60201 0)
(85.5814 8.08396 0)
(105.672 5.89354 0)
(171.449 1.66334 0)
(408.069 7.48999 0)
(2058.25 17.1565 0)
(-984.099 -146.742 0)
(66.0653 -41.339 0)
(-686.921 -156.768 0)
(329.579 -241.727 0)
(89.876 -244.165 0)
(79.8412 -231.553 0)
(-9.8305 -226.478 0)
(-32.8115 -199.688 0)
(-83.2243 -177.506 0)
(-161.196 -166.156 0)
(-242.313 -156.564 0)
(-276.081 -128.511 0)
(-251.674 -86.2826 0)
(-198.758 -46.7914 0)
(-146.991 -19.2826 0)
(-109.57 -4.22595 0)
(-85.5026 3.03531 0)
(-70.2219 6.46038 0)
(-59.3877 8.28664 0)
(-50.5529 9.61063 0)
(-42.339 10.6657 0)
(-34.4209 11.5794 0)
(-27.4014 12.3563 0)
(-20.9932 13.0487 0)
(-15.1371 13.7335 0)
(-9.89182 14.41 0)
(-5.12739 15.0454 0)
(0.332173 15.7023 0)
(5.65986 16.6162 0)
(12.1564 16.6984 0)
(19.4303 16.1775 0)
(28.2846 15.1492 0)
(38.4455 13.2469 0)
(51.1201 11.6748 0)
(64.257 9.72677 0)
(84.2239 8.74378 0)
(103.172 6.53633 0)
(172.539 3.51622 0)
(413.902 8.56516 0)
(1977.06 13.6543 0)
(-915.597 -167.94 0)
(-10.7745 -8.85318 0)
(-771.972 -117.047 0)
(306.229 -189.505 0)
(98.799 -165.008 0)
(78.3876 -163.784 0)
(-5.15296 -167.429 0)
(-22.3759 -160.006 0)
(-78.6264 -157.383 0)
(-156.808 -160.391 0)
(-223.324 -149.002 0)
(-240.647 -115.779 0)
(-212.767 -73.0048 0)
(-167.98 -36.633 0)
(-127.658 -12.2249 0)
(-99.2315 1.60363 0)
(-80.205 8.76826 0)
(-67.4097 12.4947 0)
(-57.6248 14.8642 0)
(-49.2508 16.5524 0)
(-41.3071 17.7939 0)
(-33.5709 18.7572 0)
(-26.694 19.4743 0)
(-20.3653 20.0059 0)
(-14.5457 20.4491 0)
(-9.34314 20.8292 0)
(-4.60918 21.1564 0)
(0.946638 21.414 0)
(5.94134 21.8389 0)
(11.7029 21.3336 0)
(18.409 20.1819 0)
(26.582 18.4724 0)
(36.4606 15.9235 0)
(49.1202 13.6551 0)
(62.5443 11.1021 0)
(82.507 9.61089 0)
(100.635 7.3128 0)
(173.404 5.11223 0)
(417.838 8.86511 0)
(1888.16 9.48473 0)
(-835.424 -187.778 0)
(-55.2567 29.629 0)
(-861.004 -82.3615 0)
(283.362 -146.502 0)
(114.661 -121.322 0)
(77.5089 -124.816 0)
(-6.18955 -132.333 0)
(-23.1311 -135.724 0)
(-83.5947 -144.121 0)
(-153.12 -149.396 0)
(-199.324 -132.049 0)
(-202.847 -95.9676 0)
(-175.406 -55.4308 0)
(-140.188 -23.4628 0)
(-110.145 -3.09989 0)
(-89.3398 9.3194 0)
(-75.0075 16.002 0)
(-64.3476 19.98 0)
(-55.4775 22.722 0)
(-47.7298 24.6631 0)
(-40.2144 26.0243 0)
(-32.8017 27.0089 0)
(-26.1981 27.6621 0)
(-20.0538 28.0602 0)
(-14.3438 28.3359 0)
(-9.21022 28.5277 0)
(-4.56387 28.6585 0)
(0.989837 28.5924 0)
(5.58242 28.6636 0)
(10.5597 27.7109 0)
(16.6731 26.0622 0)
(24.181 23.7814 0)
(33.8034 20.6805 0)
(46.474 17.7958 0)
(60.3598 14.7055 0)
(80.5724 12.7875 0)
(98.8373 10.3046 0)
(174.035 8.61877 0)
(418.115 10.6223 0)
(1787.57 6.71865 0)
(-743.787 -199.146 0)
(-61.5894 23.7936 0)
(-941.698 -45.8994 0)
(268.685 -91.9618 0)
(119.696 -81.4368 0)
(67.7769 -96.4869 0)
(-15.6645 -108.168 0)
(-33.7354 -119.919 0)
(-91.8006 -132.392 0)
(-145.175 -132.66 0)
(-171.839 -108.547 0)
(-166.814 -72.2351 0)
(-142.899 -35.9953 0)
(-117.552 -8.82961 0)
(-96.0679 8.66414 0)
(-80.8242 18.8637 0)
(-69.9321 25.4196 0)
(-60.934 29.861 0)
(-53.112 33.0505 0)
(-46.0686 35.3213 0)
(-39.0467 36.8303 0)
(-31.9927 37.7774 0)
(-25.6809 38.2273 0)
(-19.716 38.3151 0)
(-14.0953 38.2419 0)
(-9.03225 38.0696 0)
(-4.54678 37.9211 0)
(0.951487 37.4644 0)
(5.09185 37.0449 0)
(9.19613 35.6634 0)
(14.6224 33.5423 0)
(21.3961 30.7084 0)
(30.6927 27.016 0)
(43.3624 23.4918 0)
(57.7181 19.8439 0)
(78.2661 17.4992 0)
(96.6174 14.8083 0)
(173.71 12.9176 0)
(416.007 13.9664 0)
(1686.02 8.20453 0)
(-649.994 -214.263 0)
(-76.5587 21.0785 0)
(-972.55 -15.7327 0)
(249.117 -47.4087 0)
(110.301 -54.4927 0)
(51.7494 -80.6429 0)
(-28.7692 -92.6326 0)
(-46.4737 -106.869 0)
(-95.8724 -114.348 0)
(-130.143 -106.643 0)
(-141.097 -80.1074 0)
(-132.933 -46.5467 0)
(-114.306 -16.7702 0)
(-97.1525 5.92362 0)
(-83.459 20.3618 0)
(-73.1936 29.2224 0)
(-64.4102 35.2592 0)
(-56.9942 39.4451 0)
(-50.2157 42.5032 0)
(-44.0874 44.6957 0)
(-37.8475 46.1734 0)
(-31.4555 47.1391 0)
(-25.68 47.6475 0)
(-20.0398 47.8227 0)
(-14.5804 47.8471 0)
(-9.5194 47.7551 0)
(-5.14707 47.7538 0)
(0.145552 47.3039 0)
(3.84685 46.7087 0)
(7.18447 45.2272 0)
(11.8984 43.0181 0)
(17.892 40.0676 0)
(26.8493 36.2499 0)
(39.5627 32.6115 0)
(54.5851 29.11 0)
(75.7199 27.1065 0)
(94.4223 25.1422 0)
(173.224 24.0676 0)
(413.574 24.71 0)
(1567.64 14.7616 0)
(-545.221 -206.863 0)
(-56.4381 -21.8458 0)
(-1007.69 10.4425 0)
(231.335 -7.38648 0)
(87.6704 -24.7822 0)
(31.0239 -60.1314 0)
(-40.9371 -72.7097 0)
(-54.6611 -87.8173 0)
(-91.5828 -88.1744 0)
(-112.18 -73.759 0)
(-113.928 -47.1169 0)
(-105.78 -17.4739 0)
(-92.3365 6.41859 0)
(-81.7701 23.2713 0)
(-73.6164 34.8625 0)
(-66.4685 42.996 0)
(-60.0811 48.4629 0)
(-53.9535 52.4359 0)
(-48.0523 55.4063 0)
(-42.5319 57.6251 0)
(-36.6921 59.1169 0)
(-30.5722 59.9043 0)
(-25.0222 60.063 0)
(-19.5237 59.9344 0)
(-14.1604 59.8241 0)
(-9.12215 59.7127 0)
(-4.98154 59.8078 0)
(-0.0555354 59.3459 0)
(3.0907 58.6721 0)
(5.63972 57.2134 0)
(9.6504 55.1426 0)
(14.874 52.3773 0)
(23.5077 48.8229 0)
(36.4821 45.6327 0)
(52.4133 42.8285 0)
(74.4427 41.9772 0)
(93.689 41.2399 0)
(173.293 40.8735 0)
(407.04 43.6887 0)
(1462.87 31.4955 0)
(-464.878 -186.026 0)
(-87.5472 -74.7777 0)
(-958.616 35.8977 0)
(215.173 22.6251 0)
(59.4737 -1.60048 0)
(5.56472 -41.5453 0)
(-55.4484 -48.8468 0)
(-61.3761 -60.5702 0)
(-82.3254 -54.9596 0)
(-90.5783 -37.0444 0)
(-86.8585 -11.1913 0)
(-81.3443 11.0128 0)
(-75.0422 29.4767 0)
(-69.7429 41.8414 0)
(-64.4516 51.4007 0)
(-60.0878 57.8564 0)
(-55.3135 62.3477 0)
(-50.3034 65.2608 0)
(-45.2152 66.9791 0)
(-40.5117 67.8886 0)
(-35.6512 68.5036 0)
(-30.5438 69.4122 0)
(-25.651 70.5405 0)
(-20.27 71.5424 0)
(-14.794 72.255 0)
(-9.53503 72.6003 0)
(-5.50053 72.8944 0)
(-0.948837 72.503 0)
(1.79193 72.0339 0)
(3.78326 70.8363 0)
(7.23808 69.2143 0)
(11.8021 66.8429 0)
(20.3499 63.8444 0)
(33.7862 61.3709 0)
(51.0625 59.6335 0)
(74.189 60.5402 0)
(93.3587 61.9084 0)
(175.583 63.7876 0)
(404.537 71.587 0)
(1346.27 61.1119 0)
(-396.311 -133.029 0)
(-93.9042 41.0445 0)
(-913.834 76.2245 0)
(195.2 59.3276 0)
(25.8334 30.2829 0)
(-14.5044 -6.10869 0)
(-59.2701 -6.15753 0)
(-60.5516 -11.1553 0)
(-68.9125 -1.1887 0)
(-70.0034 15.0183 0)
(-67.6182 33.8583 0)
(-66.5911 49.1524 0)
(-62.6289 62.0017 0)
(-60.6434 71.7731 0)
(-58.1837 79.253 0)
(-55.9195 84.9284 0)
(-52.9459 89.3621 0)
(-49.4905 92.6386 0)
(-45.5201 94.9424 0)
(-41.0628 96.3937 0)
(-35.2239 97.2414 0)
(-28.6094 97.9388 0)
(-22.9695 98.3752 0)
(-17.8715 98.3953 0)
(-13.141 98.1302 0)
(-8.50595 97.5718 0)
(-5.07531 97.2345 0)
(-0.884768 96.3196 0)
(1.48458 95.6535 0)
(2.92259 94.3001 0)
(5.80226 92.7927 0)
(9.69933 90.3695 0)
(18.2346 87.6228 0)
(32.4244 85.5678 0)
(51.6128 84.5627 0)
(76.6349 86.8251 0)
(96.8183 90.0577 0)
(182.62 93.306 0)
(404.461 106.677 0)
(1265.69 102.385 0)
(-395.577 42.2873 0)
(25.4575 221.064 0)
(-940.998 128.027 0)
(170.902 99.9921 0)
(-3.58313 72.4873 0)
(-29.5506 41.7566 0)
(-60.3114 39.4722 0)
(-56.5879 39.2946 0)
(-57.1036 50.0287 0)
(-56.8057 63.0057 0)
(-53.9656 74.8377 0)
(-54.2243 86.2216 0)
(-53.2441 95.8909 0)
(-53.1189 103.334 0)
(-51.7746 110.938 0)
(-50.3462 117.913 0)
(-47.8837 124.514 0)
(-44.926 129.721 0)
(-41.5966 132.796 0)
(-38.2963 133.916 0)
(-34.1623 134.079 0)
(-29.4512 134.599 0)
(-25.2111 135.349 0)
(-20.5061 135.091 0)
(-15.5876 133.065 0)
(-10.3982 129.532 0)
(-6.70724 126.691 0)
(-2.47229 123.097 0)
(-0.154103 120.811 0)
(1.02647 118.222 0)
(3.45038 116.672 0)
(6.82017 114.478 0)
(15.7229 112.393 0)
(30.8374 110.891 0)
(52.2742 110.268 0)
(79.4843 113.368 0)
(99.604 117.716 0)
(191.599 119.747 0)
(413.285 133.507 0)
(1284.23 142.16 0)
(-535.722 227.937 0)
(242.492 509.314 0)
(-1030.5 216.488 0)
(141.68 193.292 0)
(-30.2843 159.247 0)
(-46.319 127.176 0)
(-61.6426 120.941 0)
(-50.3789 123.29 0)
(-46.0636 132.972 0)
(-46.0965 146.214 0)
(-45.2464 156.186 0)
(-46.3036 164.64 0)
(-46.1383 170.874 0)
(-46.1437 174.615 0)
(-44.135 178.13 0)
(-42.8369 181.14 0)
(-41.5674 185.681 0)
(-41.51 192.208 0)
(-41.4777 200.698 0)
(-39.8266 209.471 0)
(-34.5663 215.081 0)
(-27.3848 215.737 0)
(-22.4951 211.546 0)
(-20.0732 204.238 0)
(-18.4979 198.694 0)
(-14.6482 195.281 0)
(-11.2761 195.574 0)
(-6.5502 196.571 0)
(-3.21321 197.259 0)
(-1.06605 198.167 0)
(2.19488 199.181 0)
(5.57571 199.923 0)
(14.7779 199.962 0)
(30.3767 199.829 0)
(53.9995 202.122 0)
(83.8123 208.738 0)
(102.966 221.388 0)
(197.836 229.163 0)
(426.06 239.764 0)
(1356.69 219.417 0)
(-752.216 476.447 0)
(724.867 9873.53 0)
(-1245.53 1209.59 0)
(115.742 709.224 0)
(-67.2948 610.706 0)
(-66.4635 584.505 0)
(-64.0559 558.982 0)
(-44.9939 559.47 0)
(-35.0138 549.006 0)
(-34.436 550.996 0)
(-36.2095 543.388 0)
(-40.0712 536.342 0)
(-43.632 524.07 0)
(-46.1266 508.017 0)
(-45.4863 488.298 0)
(-43.0698 464.039 0)
(-37.2183 438.114 0)
(-30.4547 411.311 0)
(-24.9615 388.592 0)
(-24.4363 375.581 0)
(-28.1243 369.556 0)
(-32.8581 369.466 0)
(-36.2916 376.884 0)
(-32.8901 382.706 0)
(-24.2193 403.329 0)
(-13.4054 418.326 0)
(-5.46385 435.792 0)
(-0.848164 449.383 0)
(1.38413 459.025 0)
(2.879 467.42 0)
(5.14254 472.294 0)
(7.57253 474.274 0)
(15.6323 473.086 0)
(32.9185 468.7 0)
(60.859 465.188 0)
(98.05 464.14 0)
(119.286 475.678 0)
(209.306 496.872 0)
(403.893 472.946 0)
(1512.3 1037.82 0)
(-1206.28 8980.06 0)
(10922.6 157193 0)
(-9861.56 11267.2 0)
(-435.422 2796.9 0)
(-150.469 2505.28 0)
(-96.1618 2434.39 0)
(-85.7674 2428.88 0)
(-59.9922 2537.29 0)
(-54.2294 2593.4 0)
(-51.5105 2658.76 0)
(-59.3677 2707.99 0)
(-64.9184 2732.07 0)
(-73.433 2740.24 0)
(-80.6153 2733.15 0)
(-86.5134 2709.45 0)
(-91.196 2674.23 0)
(-92.378 2631.27 0)
(-89.2312 2582.9 0)
(-75.9092 2531.95 0)
(-58.1705 2489.9 0)
(-40.4583 2451.45 0)
(-20.3225 2425.41 0)
(-9.73665 2400.66 0)
(5.40945 2364.85 0)
(15.8262 2327.97 0)
(16.635 2271.98 0)
(18.6521 2214.63 0)
(15.8372 2146.73 0)
(14.1675 2064.16 0)
(11.7206 1974.95 0)
(8.80019 1872.75 0)
(6.33932 1766.21 0)
(9.40614 1637.6 0)
(22.766 1522.41 0)
(49.6055 1375.73 0)
(93.9207 1273.42 0)
(134.508 1261.29 0)
(195.203 1316.94 0)
(947.339 1411.34 0)
(9554.46 9377.56 0)
(-10405.8 139973 0)
(163059 -168911 0)
(-150027 -11636.7 0)
(-8327.6 -2988.22 0)
(-416.624 -2542.98 0)
(-140.088 -2399.72 0)
(35.1052 -2297.82 0)
(113.54 -2347.15 0)
(82.0334 -2353.38 0)
(75.9862 -2376 0)
(34.4375 -2378.78 0)
(-8.98993 -2350.13 0)
(-42.5954 -2302.09 0)
(-75.803 -2229.72 0)
(-102.261 -2139.77 0)
(-118.399 -2033.83 0)
(-125.221 -1922.26 0)
(-126.165 -1808.02 0)
(-114.586 -1698.74 0)
(-102.006 -1610.33 0)
(-90.2725 -1532.52 0)
(-81.8041 -1474.67 0)
(-94.6411 -1426.54 0)
(-102.941 -1366.35 0)
(-113.72 -1325.32 0)
(-122.62 -1264.76 0)
(-126.156 -1215.34 0)
(-145.846 -1153.2 0)
(-164.145 -1080.42 0)
(-181.568 -997.566 0)
(-196.015 -904.168 0)
(-219.03 -803.287 0)
(-219.303 -683.452 0)
(-219.428 -585.469 0)
(-179.07 -479.369 0)
(-12.2333 -451.119 0)
(161.218 -564.138 0)
(353.898 -758.005 0)
(8171.4 -1133.96 0)
(135036 -10220.8 0)
(-145126 -151180 0)
(163059 168911 0)
(-150027 11636.7 0)
(-8327.6 2988.22 0)
(-416.624 2542.98 0)
(-140.088 2399.72 0)
(35.1052 2297.82 0)
(113.54 2347.15 0)
(82.0334 2353.38 0)
(75.9862 2376 0)
(34.4375 2378.78 0)
(-8.98993 2350.13 0)
(-42.5954 2302.09 0)
(-75.803 2229.72 0)
(-102.261 2139.77 0)
(-118.399 2033.83 0)
(-125.221 1922.26 0)
(-126.165 1808.02 0)
(-114.586 1698.74 0)
(-102.006 1610.33 0)
(-90.2725 1532.52 0)
(-81.8041 1474.67 0)
(-94.6411 1426.54 0)
(-102.941 1366.35 0)
(-113.72 1325.32 0)
(-122.62 1264.76 0)
(-126.156 1215.34 0)
(-145.846 1153.2 0)
(-164.145 1080.42 0)
(-181.568 997.566 0)
(-196.015 904.168 0)
(-219.03 803.287 0)
(-219.303 683.452 0)
(-219.428 585.469 0)
(-179.07 479.369 0)
(-12.2333 451.119 0)
(161.218 564.138 0)
(353.898 758.005 0)
(8171.4 1133.96 0)
(135036 10220.8 0)
(-145126 151180 0)
(10922.6 -157193 0)
(-9861.56 -11267.2 0)
(-435.422 -2796.9 0)
(-150.469 -2505.28 0)
(-96.1618 -2434.39 0)
(-85.7674 -2428.88 0)
(-59.9922 -2537.29 0)
(-54.2294 -2593.4 0)
(-51.5105 -2658.76 0)
(-59.3677 -2707.99 0)
(-64.9184 -2732.07 0)
(-73.433 -2740.24 0)
(-80.6153 -2733.15 0)
(-86.5134 -2709.45 0)
(-91.196 -2674.23 0)
(-92.378 -2631.27 0)
(-89.2312 -2582.9 0)
(-75.9092 -2531.95 0)
(-58.1705 -2489.9 0)
(-40.4583 -2451.45 0)
(-20.3225 -2425.41 0)
(-9.73665 -2400.66 0)
(5.40945 -2364.85 0)
(15.8262 -2327.97 0)
(16.635 -2271.98 0)
(18.6521 -2214.63 0)
(15.8372 -2146.73 0)
(14.1675 -2064.16 0)
(11.7206 -1974.95 0)
(8.80019 -1872.75 0)
(6.33932 -1766.21 0)
(9.40614 -1637.6 0)
(22.766 -1522.41 0)
(49.6055 -1375.73 0)
(93.9207 -1273.42 0)
(134.508 -1261.29 0)
(195.203 -1316.94 0)
(947.339 -1411.34 0)
(9554.46 -9377.56 0)
(-10405.8 -139973 0)
(724.867 -9873.53 0)
(-1245.53 -1209.59 0)
(115.742 -709.224 0)
(-67.2948 -610.706 0)
(-66.4635 -584.505 0)
(-64.0559 -558.982 0)
(-44.9939 -559.47 0)
(-35.0138 -549.006 0)
(-34.436 -550.996 0)
(-36.2095 -543.388 0)
(-40.0712 -536.342 0)
(-43.632 -524.07 0)
(-46.1266 -508.017 0)
(-45.4863 -488.298 0)
(-43.0698 -464.039 0)
(-37.2183 -438.114 0)
(-30.4547 -411.311 0)
(-24.9615 -388.592 0)
(-24.4363 -375.581 0)
(-28.1243 -369.556 0)
(-32.8581 -369.466 0)
(-36.2916 -376.884 0)
(-32.8901 -382.706 0)
(-24.2193 -403.329 0)
(-13.4054 -418.326 0)
(-5.46385 -435.792 0)
(-0.848164 -449.383 0)
(1.38413 -459.025 0)
(2.879 -467.42 0)
(5.14254 -472.294 0)
(7.57253 -474.274 0)
(15.6323 -473.086 0)
(32.9185 -468.7 0)
(60.859 -465.188 0)
(98.05 -464.14 0)
(119.286 -475.678 0)
(209.306 -496.872 0)
(403.893 -472.946 0)
(1512.3 -1037.82 0)
(-1206.28 -8980.06 0)
(242.492 -509.314 0)
(-1030.5 -216.488 0)
(141.68 -193.292 0)
(-30.2843 -159.247 0)
(-46.319 -127.176 0)
(-61.6426 -120.941 0)
(-50.3789 -123.29 0)
(-46.0636 -132.972 0)
(-46.0965 -146.214 0)
(-45.2464 -156.186 0)
(-46.3036 -164.64 0)
(-46.1383 -170.874 0)
(-46.1437 -174.615 0)
(-44.135 -178.13 0)
(-42.8369 -181.14 0)
(-41.5674 -185.681 0)
(-41.51 -192.208 0)
(-41.4777 -200.698 0)
(-39.8266 -209.471 0)
(-34.5663 -215.081 0)
(-27.3848 -215.737 0)
(-22.4951 -211.546 0)
(-20.0732 -204.238 0)
(-18.4979 -198.694 0)
(-14.6482 -195.281 0)
(-11.2761 -195.574 0)
(-6.5502 -196.571 0)
(-3.21321 -197.259 0)
(-1.06605 -198.167 0)
(2.19488 -199.181 0)
(5.57571 -199.923 0)
(14.7779 -199.962 0)
(30.3767 -199.829 0)
(53.9995 -202.122 0)
(83.8123 -208.738 0)
(102.966 -221.388 0)
(197.836 -229.163 0)
(426.06 -239.764 0)
(1356.69 -219.417 0)
(-752.216 -476.447 0)
(25.4575 -221.064 0)
(-940.998 -128.027 0)
(170.902 -99.9921 0)
(-3.58313 -72.4873 0)
(-29.5506 -41.7566 0)
(-60.3114 -39.4722 0)
(-56.5879 -39.2946 0)
(-57.1036 -50.0287 0)
(-56.8057 -63.0057 0)
(-53.9656 -74.8377 0)
(-54.2243 -86.2216 0)
(-53.2441 -95.8909 0)
(-53.1189 -103.334 0)
(-51.7746 -110.938 0)
(-50.3462 -117.913 0)
(-47.8837 -124.514 0)
(-44.926 -129.721 0)
(-41.5966 -132.796 0)
(-38.2963 -133.916 0)
(-34.1623 -134.079 0)
(-29.4512 -134.599 0)
(-25.2111 -135.349 0)
(-20.5061 -135.091 0)
(-15.5876 -133.065 0)
(-10.3982 -129.532 0)
(-6.70724 -126.691 0)
(-2.47229 -123.097 0)
(-0.154103 -120.811 0)
(1.02647 -118.222 0)
(3.45038 -116.672 0)
(6.82017 -114.478 0)
(15.7229 -112.393 0)
(30.8374 -110.891 0)
(52.2742 -110.268 0)
(79.4843 -113.368 0)
(99.604 -117.716 0)
(191.599 -119.747 0)
(413.285 -133.507 0)
(1284.23 -142.16 0)
(-535.722 -227.937 0)
(-93.9042 -41.0445 0)
(-913.834 -76.2245 0)
(195.2 -59.3276 0)
(25.8334 -30.2829 0)
(-14.5044 6.10869 0)
(-59.2701 6.15753 0)
(-60.5516 11.1553 0)
(-68.9125 1.1887 0)
(-70.0034 -15.0183 0)
(-67.6182 -33.8583 0)
(-66.5911 -49.1524 0)
(-62.6289 -62.0017 0)
(-60.6434 -71.7731 0)
(-58.1837 -79.253 0)
(-55.9195 -84.9284 0)
(-52.9459 -89.3621 0)
(-49.4905 -92.6386 0)
(-45.5201 -94.9424 0)
(-41.0628 -96.3937 0)
(-35.2239 -97.2414 0)
(-28.6094 -97.9388 0)
(-22.9695 -98.3752 0)
(-17.8715 -98.3953 0)
(-13.141 -98.1302 0)
(-8.50595 -97.5718 0)
(-5.07531 -97.2345 0)
(-0.884768 -96.3196 0)
(1.48458 -95.6535 0)
(2.92259 -94.3001 0)
(5.80226 -92.7927 0)
(9.69933 -90.3695 0)
(18.2346 -87.6228 0)
(32.4244 -85.5678 0)
(51.6128 -84.5627 0)
(76.6349 -86.8251 0)
(96.8183 -90.0577 0)
(182.62 -93.306 0)
(404.461 -106.677 0)
(1265.69 -102.385 0)
(-395.577 -42.2873 0)
(-87.5472 74.7777 0)
(-958.616 -35.8977 0)
(215.173 -22.6251 0)
(59.4737 1.60048 0)
(5.56472 41.5453 0)
(-55.4484 48.8468 0)
(-61.3761 60.5702 0)
(-82.3254 54.9596 0)
(-90.5783 37.0444 0)
(-86.8585 11.1913 0)
(-81.3443 -11.0128 0)
(-75.0422 -29.4767 0)
(-69.7429 -41.8414 0)
(-64.4516 -51.4007 0)
(-60.0878 -57.8564 0)
(-55.3135 -62.3477 0)
(-50.3034 -65.2608 0)
(-45.2152 -66.9791 0)
(-40.5117 -67.8886 0)
(-35.6512 -68.5036 0)
(-30.5438 -69.4122 0)
(-25.651 -70.5405 0)
(-20.27 -71.5424 0)
(-14.794 -72.255 0)