/*--------------------------------*- C++ -*----------------------------------*\
| =========                 |                                                 |
| \\      /  F ield         | OpenFOAM: The Open Source CFD Toolbox           |
|  \\    /   O peration     | Version:  v1912                                 |
|   \\  /    A nd           | Website:  www.openfoam.com                      |
|    \\/     M anipulation  |                                                 |
\*---------------------------------------------------------------------------*/
FoamFile
{
    version     2.0;
    format      ascii;
    class       volScalarField;
    location    "5.44";
    object      p;
}
// * * * * * * * * * * * * * * * * * * * * * * * * * * * * * * * * * * * * * //

dimensions      [1 -1 -2 0 0 0 0];


internalField   nonuniform List<scalar> 
1900
(
35146.7
10825.3
9418.1
9321.92
9211.57
9166.7
9124.92
9072.88
9011.47
8949.43
35146.8
10825.1
9418.11
9321.65
9211.44
9167.17
9126.54
9076.91
9023.66
8938.59
35146.8
10825.1
9418.1
9321.77
9211.84
9168.16
9127.25
9074.08
9011.42
8925.54
35146.8
10825.1
9418.11
9321.65
9211.44
9167.17
9126.54
9076.91
9023.66
8938.59
35146.7
10825.3
9418.1
9321.92
9211.57
9166.7
9124.92
9072.88
9011.47
8949.43
9026.75
8836.2
8731.29
8530.57
8786.25
8868.65
8726.92
8638.57
8432.43
8309.98
8841.18
8707.63
8618.3
8445.86
8380.79
8868.65
8726.92
8638.57
8432.43
8309.98
9026.75
8836.2
8731.29
8530.57
8786.25
4182.63
3132.06
3083.16
2868.09
2545.56
4680.33
3314.23
3194.95
2947.2
2666.53
4779.78
3259.73
3119.18
2894.46
2612.43
4680.33
3314.23
3194.95
2947.2
2666.53
4182.63
3132.06
3083.16
2868.09
2545.56
1451.31
1004.47
1232.39
1713.63
1879.23
1764.2
1536.89
1319.13
1161.82
1066.25
997.46
934.202
874.913
824.295
789.02
768.173
755.468
746.129
738.238
731.324
725.496
720.777
717.033
714.171
712.053
710.616
709.743
709.603
710.402
712.76
716.147
721.929
728.25
737.685
746.425
763.08
780.854
819.01
876.636
1455.43
1634.96
945.977
1231.16
1784.85
1936.36
1794.49
1551.54
1325
1163.99
1067.15
997.761
934.54
875.367
824.471
789.028
768.135
755.426
746.091
738.204
731.289
725.459
720.738
716.992
714.13
712.01
710.571
709.697
709.556
710.353
712.712
716.099
721.888
728.205
737.67
746.358
763.095
780.845
819.148
876.635
1455.27
1654.98
959.549
1183.85
1740.53
1908.55
1797.23
1558.74
1327.8
1164.79
1067.47
997.904
934.693
875.546
824.526
789.029
768.123
755.413
746.08
738.195
731.28
725.449
720.727
716.98
714.117
711.996
710.557
709.682
709.539
710.335
712.694
716.081
721.875
728.192
737.672
746.349
763.135
780.934
819.426
876.803
1454.85
1634.96
945.977
1231.16
1784.85
1936.36
1794.49
1551.54
1325
1163.99
1067.15
997.761
934.54
875.367
824.471
789.028
768.135
755.426
746.091
738.204
731.289
725.459
720.738
716.992
714.13
712.01
710.571
709.697
709.556
710.353
712.712
716.099
721.888
728.205
737.67
746.358
763.095
780.845
819.148
876.635
1455.27
1451.31
1004.47
1232.39
1713.63
1879.23
1764.2
1536.89
1319.13
1161.82
1066.25
997.46
934.202
874.913
824.295
789.02
768.173
755.468
746.129
738.238
731.324
725.496
720.777
717.033
714.171
712.053
710.616
709.743
709.603
710.402
712.76
716.147
721.929
728.25
737.685
746.425
763.08
780.854
819.01
876.636
1455.43
1154.02
1006.35
1316.73
1644.16
1758.58
1668.24
1487.91
1296.86
1151.64
1061.93
995.093
931.902
872.754
823.228
788.799
768.263
755.599
746.241
738.342
731.434
725.619
720.912
717.175
714.318
712.203
710.771
709.904
709.77
710.571
712.922
716.301
722.04
728.365
737.7
746.62
762.976
780.894
817.904
878.316
1519.23
1121.13
989.317
1189.9
1434.88
1559.7
1497.96
1383.4
1238.98
1125.45
1050.44
988.129
925.824
867.832
820.739
788.244
768.472
755.915
746.515
738.597
731.708
725.928
721.251
717.533
714.69
712.587
711.171
710.321
710.206
711.019
713.359
716.715
722.369
728.674
737.865
747.016
762.936
780.851
815.48
878.864
1448.33
1132.5
993.441
1129.57
1330.27
1378.46
1358.7
1278.33
1174.99
1093.88
1033.77
976.806
916.84
861.17
817.351
787.345
768.643
756.307
746.891
738.964
732.109
726.382
721.751
718.066
715.248
713.167
711.782
710.966
710.887
711.725
714.055
717.385
722.921
729.204
738.236
747.615
762.993
780.749
812.932
880.593
1434.32
1181.77
978.077
1085.76
1226.71
1260.27
1239.96
1183.34
1117.29
1061.74
1014.58
962.279
905.607
853.375
813.434
786.193
768.714
756.68
747.289
739.379
732.577
726.919
722.348
718.71
715.933
713.891
712.55
711.795
711.78
712.652
714.979
718.283
723.69
729.944
738.834
748.355
763.265
780.506
811.484
884.166
1425.03
1181.45
946.509
1052.79
1146.79
1157.61
1142.85
1107.42
1069
1031.25
993.278
945.298
892.576
845.003
809.294
784.909
768.681
756.994
747.677
739.817
733.09
727.518
723.021
719.444
716.726
714.744
713.465
712.779
712.862
713.779
716.104
719.373
724.632
730.835
739.571
749.152
763.66
780.115
810.867
886.747
1410.88
1171.76
922.334
1029.7
1071.38
1077.41
1069.29
1051.02
1030.29
1005.03
972.362
927.717
879.204
836.825
805.414
783.706
768.635
757.31
748.107
740.326
733.691
728.216
723.804
720.304
717.665
715.766
714.571
713.976
714.194
715.173
717.509
720.75
725.87
732.02
740.63
750.241
764.51
780.315
811.535
890.032
1396.1
1155.52
894.019
996.327
1001.39
1020.8
1018.26
1010.94
999.131
980.43
950.459
909.04
865.657
828.874
801.707
782.488
768.505
757.6
748.575
740.918
734.401
729.037
724.721
721.307
718.755
716.946
715.838
715.336
715.682
716.706
719.017
722.179
727.104
733.126
741.545
751.103
765.079
780.162
812.228
892.381
1378.25
1147.88
870.285
958.979
960.919
983.695
982.876
980.992
973.853
958.105
929.524
891.469
853.601
822.259
798.943
781.836
768.811
758.323
749.5
741.991
735.598
730.348
726.133
722.813
720.359
718.65
717.639
717.24
717.731
718.796
721.074
724.14
728.852
734.712
742.91
752.383
766.071
780.755
813.52
894.578
1357.21
1144.56
852.476
932.269
936.689
959.438
958.245
958.021
952.092
936.399
908.97
874.985
842.792
816.474
796.598
781.368
769.309
759.312
750.771
743.465
737.227
732.105
727.995
724.765
722.395
720.765
719.825
719.497
720.086
721.131
723.304
726.193
730.614
736.22
744.122
753.42
766.812
781.094
814.498
896
1333.74
1145.54
839.268
908.761
917.192
940.292
938.507
938.59
932.146
915.602
890.038
860.788
834.255
812.551
795.703
782.261
771.135
761.634
753.439
746.378
740.314
735.319
731.293
728.114
725.778
724.17
723.246
722.915
723.518
724.45
726.422
729.035
733.072
738.331
745.852
754.93
768.009
782.11
815.869
897.092
1307.45
1152.41
830.65
893.446
904.539
926.362
923.177
922.054
913.9
896.809
873.977
849.554
828.103
810.256
795.776
783.838
773.549
764.606
756.793
750.001
744.124
739.263
735.326
732.201
729.904
728.324
727.42
727.074
727.682
728.474
730.211
732.495
736.094
740.936
748.019
756.808
769.542
783.378
817.312
897.78
1280.97
1151.84
827.104
884.391
895.611
914.723
909.843
906.812
897.062
880.447
861.273
841.645
824.716
810.211
797.999
787.26
777.871
769.547
762.198
755.738
750.074
745.33
741.424
738.268
735.913
734.258
733.295
732.843
733.335
733.901
735.311
737.173
740.231
744.556
751.111
759.567
771.934
785.533
819.57
899.266
1250.67
1158
826.481
880.882
890.098
904.992
898.63
893.734
883.598
868.549
852.748
837.219
823.659
811.826
801.172
791.582
782.893
775.059
768.056
761.845
756.36
751.755
747.952
744.874
742.583
740.979
740.075
739.61
740.059
740.459
741.61
743.113
745.701
749.578
755.733
763.992
776.205
789.756
823.861
901.692
1226.15
1146.05
829.872
882.433
889.044
898.789
890.574
883.54
873.696
860.901
848.787
837.015
826.417
816.378
807.238
798.654
790.714
783.443
776.88
771.009
765.74
761.204
757.34
754.15
751.766
750.082
749.144
748.569
748.883
749.062
749.923
751.053
753.169
756.649
762.46
770.691
782.862
796.365
831.148
907.612
1201.37
1138.18
835.994
886.878
889.674
893.982
885.685
877.683
869.034
858.732
849.783
840.137
831.47
822.914
814.793
806.914
799.415
792.354
785.805
779.835
774.513
770.149
766.645
763.832
761.731
760.219
759.392
758.823
759.148
759.231
759.952
760.827
762.619
765.841
771.536
780.035
792.611
806.66
842.831
917.887
1190.9
1156.93
850.071
898.155
897.069
897.17
888.943
880.584
873.381
864.881
857.759
850.04
842.848
835.398
828.24
821.16
814.395
807.992
802.04
796.553
791.509
787.158
783.41
780.225
777.77
775.939
774.911
774.094
774.231
774.052
774.513
775.001
776.389
779.324
784.869
793.7
806.727
821.091
859.417
934.744
1212.58
1196.76
869.921
913.376
908.883
905.048
896.145
888.096
882.291
875.429
869.615
862.986
856.881
850.298
844.192
838.161
832.411
826.73
820.996
815.323
810.044
805.818
802.513
799.631
796.993
794.544
792.965
791.444
791.163
790.56
790.87
791.163
792.404
795.227
800.757
810.077
823.806
838.393
878.21
955.559
1251.3
1291.9
907.441
949.378
939.269
930.871
920.992
913.256
908.619
903.627
899.149
893.67
888.129
881.671
875.444
869.162
863.6
858.927
855.225
852.063
848.505
844.329
839.469
834.348
830.424
827.688
826.738
826.185
826.505
826.566
827.296
827.98
829.379
832.279
838.431
849.015
865.395
881.819
922.954
992.89
1338.84
3813.25
1190.46
1101.32
1070.72
1059.94
1044.28
1036.36
1027.78
1021.44
1013.61
1005.12
995.76
984.922
973.591
961.131
948.512
935.727
923.973
914.852
907.976
903.726
902.387
901.049
903.875
905.401
908.45
910.53
912.805
914.426
916.028
916.846
917.771
919.433
924.032
933.074
949.86
970.064
1003.54
1230.58
3631.02
42948.1
3893.26
1690.56
1603.17
1575.98
1564.65
1585.64
1595.87
1608.2
1616.77
1617.67
1614.29
1605.95
1593.45
1577.83
1560.89
1543.4
1526.19
1511.89
1498.14
1487.06
1475.64
1461.03
1447.34
1429.76
1413.62
1395.07
1373.51
1349.93
1323.58
1296.02
1263.34
1235.72
1203
1186.47
1199.64
1230.81
1296.96
3477.94
38431.8
42948.1
3893.26
1690.56
1603.17
1575.98
1564.65
1585.64
1595.87
1608.2
1616.77
1617.67
1614.29
1605.95
1593.45
1577.83
1560.89
1543.4
1526.19
1511.89
1498.14
1487.06
1475.64
1461.03
1447.34
1429.76
1413.62
1395.07
1373.51
1349.93
1323.58
1296.02
1263.34
1235.72
1203
1186.47
1199.64
1230.81
1296.96
3477.94
38431.8
3813.25
1190.46
1101.32
1070.72
1059.94
1044.28
1036.36
1027.78
1021.44
1013.61
1005.12
995.76
984.922
973.591
961.131
948.512
935.727
923.973
914.852
907.976
903.726
902.387
901.049
903.875
905.401
908.45
910.53
912.805
914.426
916.028
916.846
917.771
919.433
924.032
933.074
949.86
970.064
1003.54
1230.58
3631.02
1291.9
907.441
949.378
939.269
930.871
920.992
913.256
908.619
903.627
899.149
893.67
888.129
881.671
875.444
869.162
863.6
858.927
855.225
852.063
848.505
844.329
839.469
834.348
830.424
827.688
826.738
826.185
826.505
826.566
827.296
827.98
829.379
832.279
838.431
849.015
865.395
881.819
922.954
992.89
1338.84
1196.76
869.921
913.376
908.883
905.048
896.145
888.096
882.291
875.429
869.615
862.986
856.881
850.298
844.192
838.161
832.411
826.73
820.996
815.323
810.044
805.818
802.513
799.631
796.993
794.544
792.965
791.444
791.163
790.56
790.87
791.163
792.404
795.227
800.757
810.077
823.806
838.393
878.21
955.559
1251.3
1156.93
850.071
898.155
897.069
897.17
888.943
880.584
873.381
864.881
857.759
850.04
842.848
835.398
828.24
821.16
814.395
807.992
802.04
796.553
791.509
787.158
783.41
780.225
777.77
775.939
774.911
774.094
774.231
774.052
774.513
775.001
776.389
779.324
784.869
793.7
806.727
821.091
859.417
934.744
1212.58
1138.18
835.994
886.878
889.674
893.982
885.685
877.683
869.034
858.732
849.783
840.137
831.47
822.914
814.793
806.914
799.415
792.354
785.805
779.835
774.513
770.149
766.645
763.832
761.731
760.219
759.392
758.823
759.148
759.231
759.952
760.827
762.619
765.841
771.536
780.035
792.611
806.66
842.831
917.887
1190.9
1146.05
829.872
882.433
889.044
898.789
890.574
883.54
873.696
860.901
848.787
837.015
826.417
816.378
807.238
798.654
790.714
783.443
776.88
771.009
765.74
761.204
757.34
754.15
751.766
750.082
749.144
748.569
748.883
749.062
749.923
751.053
753.169
756.649
762.46
770.691
782.862
796.365
831.148
907.612
1201.37
1158
826.481
880.882
890.098
904.992
898.63
893.734
883.598
868.549
852.748
837.219
823.659
811.826
801.172
791.582
782.893
775.059
768.056
761.845
756.36
751.755
747.952
744.874
742.583
740.979
740.075
739.61
740.059
740.459
741.61
743.113
745.701
749.578
755.733
763.992
776.205
789.756
823.861
901.692
1226.15
1151.84
827.104
884.391
895.611
914.723
909.843
906.812
897.062
880.447
861.273
841.645
824.716
810.211
797.999
787.26
777.871
769.547
762.198
755.738
750.074
745.33
741.424
738.268
735.913
734.258
733.295
732.843
733.335
733.901
735.311
737.173
740.231
744.556
751.111
759.567
771.934
785.533
819.57
899.266
1250.67
1152.41
830.65
893.446
904.539
926.362
923.177
922.054
913.9
896.809
873.977
849.554
828.103
810.256
795.776
783.838
773.549
764.606
756.793
750.001
744.124
739.263
735.326
732.201
729.904
728.324
727.42
727.074
727.682
728.474
730.211
732.495
736.094
740.936
748.019
756.808
769.542
783.378
817.312
897.78
1280.97
1145.54
839.268
908.761
917.192
940.292
938.507
938.59
932.146
915.602
890.038
860.788
834.255
812.551
795.703
782.261
771.135
761.634
753.439
746.378
740.314
735.319
731.293
728.114
725.778
724.17
723.246
722.915
723.518
724.45
726.422
729.035
733.072
738.331
745.852
754.93
768.009
782.11
815.869
897.092
1307.45
1144.56
852.476
932.269
936.689
959.438
958.245
958.021
952.092
936.399
908.97
874.985
842.792
816.474
796.598
781.368
769.309
759.312
750.771
743.465
737.227
732.105
727.995
724.765
722.395
720.765
719.825
719.497
720.086
721.131
723.304
726.193
730.614
736.22
744.122
753.42
766.812
781.094
814.498
896
1333.74
1147.88
870.285
958.979
960.919
983.695
982.876
980.992
973.853
958.105
929.524
891.469
853.601
822.259
798.943
781.836
768.811
758.323
749.5
741.991
735.598
730.348
726.133
722.813
720.359
718.65
717.639
717.24
717.731
718.796
721.074
724.14
728.852
734.712
742.91
752.383
766.071
780.755
813.52
894.578
1357.21
1155.52
894.019
996.327
1001.39
1020.8
1018.26
1010.94
999.131
980.43
950.459
909.04
865.657
828.874
801.707
782.488
768.505
757.6
748.575
740.918
734.401
729.037
724.721
721.307
718.755
716.946
715.838
715.336
715.682
716.706
719.017
722.179
727.104
733.126
741.545
751.103
765.079
780.162
812.228
892.381
1378.25
1171.76
922.334
1029.7
1071.38
1077.41
1069.29
1051.02
1030.29
1005.03
972.362
927.717
879.204
836.825
805.414
783.706
768.635
757.31
748.107
740.326
733.691
728.216
723.804
720.304
717.665
715.766
714.571
713.976
714.194
715.173
717.509
720.75
725.87
732.02
740.63
750.241
764.51
780.315
811.535
890.032
1396.1
1181.45
946.509
1052.79
1146.79
1157.61
1142.85
1107.42
1069
1031.25
993.278
945.298
892.576
845.003
809.294
784.909
768.681
756.994
747.677
739.817
733.09
727.518
723.021
719.444
716.726
714.744
713.465
712.779
712.862
713.779
716.104
719.373
724.632
730.835
739.571
749.152
763.66
780.115
810.867
886.747
1410.88
1181.77
978.077
1085.76
1226.71
1260.27
1239.96
1183.34
1117.29
1061.74
1014.58
962.279
905.607
853.375
813.434
786.193
768.714
756.68
747.289
739.379
732.577
726.919
722.348
718.71
715.933
713.891
712.55
711.795
711.78
712.652
714.979
718.283
723.69
729.944
738.834
748.355
763.265
780.506
811.484
884.166
1425.03
1132.5
993.441
1129.57
1330.27
1378.46
1358.7
1278.33
1174.99
1093.88
1033.77
976.806
916.84
861.17
817.351
787.345
768.643
756.307
746.891
738.964
732.109
726.382
721.751
718.066
715.248
713.167
711.782
710.966
710.887
711.725
714.055
717.385
722.921
729.204
738.236
747.615
762.993
780.749
812.932
880.593
1434.32
1121.13
989.317
1189.9
1434.88
1559.7
1497.96
1383.4
1238.98
1125.45
1050.44
988.129
925.824
867.832
820.739
788.244
768.472
755.915
746.515
738.597
731.708
725.928
721.251
717.533
714.69
712.587
711.171
710.321
710.206
711.019
713.359
716.715
722.369
728.674
737.865
747.016
762.936
780.851
815.48
878.864
1448.33
1154.02
1006.35
1316.73
1644.16
1758.58
1668.24
1487.91
1296.86
1151.64
1061.93
995.093
931.902
872.754
823.228
788.799
768.263
755.599
746.241
738.342
731.434
725.619
720.912
717.175
714.318
712.203
710.771
709.904
709.77
710.571
712.922
716.301
722.04
728.365
737.7
746.62
762.976
780.894
817.904
878.316
1519.23
)
;

boundaryField
{
    inlet
    {
        type            fixedValue;
        value           uniform 10000;
    }
    outlet
    {
        type            fixedValue;
        value           uniform 1000;
    }
    obstacle
    {
        type            zeroGradient;
    }
    empty
    {
        type            empty;
    }
}


// ************************************************************************* //
