/*--------------------------------*- C++ -*----------------------------------*\
| =========                 |                                                 |
| \\      /  F ield         | OpenFOAM: The Open Source CFD Toolbox           |
|  \\    /   O peration     | Version:  v1912                                 |
|   \\  /    A nd           | Website:  www.openfoam.com                      |
|    \\/     M anipulation  |                                                 |
\*---------------------------------------------------------------------------*/
FoamFile
{
    version     2.0;
    format      ascii;
    class       volScalarField;
    location    "7.64";
    object      T;
}
// * * * * * * * * * * * * * * * * * * * * * * * * * * * * * * * * * * * * * //

dimensions      [0 0 0 1 0 0 0];


internalField   nonuniform List<scalar> 
1900
(
1.26951
0.98704
0.931969
0.925587
0.926149
0.932059
0.94066
0.947487
0.95072
0.951372
1.26951
0.987043
0.931972
0.925591
0.926143
0.932065
0.940688
0.94755
0.951035
0.951493
1.26951
0.987046
0.931974
0.925594
0.926142
0.93207
0.94069
0.947536
0.950754
0.951035
1.26951
0.987043
0.931972
0.925591
0.926143
0.932065
0.940688
0.94755
0.951035
0.951493
1.26951
0.98704
0.931969
0.925587
0.926149
0.932059
0.94066
0.947487
0.95072
0.951372
0.955073
0.950832
0.953706
0.962086
1.00155
0.950856
0.948111
0.95018
0.956991
0.983678
0.949958
0.947501
0.949185
0.956455
0.981705
0.950856
0.948111
0.95018
0.956991
0.983678
0.955073
0.950832
0.953706
0.962086
1.00155
0.794489
0.679745
0.615471
0.57024
0.53857
0.814183
0.696019
0.628273
0.583818
0.544557
0.81406
0.690384
0.622019
0.579147
0.53523
0.814183
0.696019
0.628273
0.583818
0.544557
0.794489
0.679745
0.615471
0.57024
0.53857
0.509236
0.494507
0.48315
0.476947
0.470567
0.457296
0.447052
0.450837
0.503791
0.575347
0.605976
0.609446
0.608183
0.59647
0.568207
0.535431
0.511558
0.489908
0.463461
0.427472
0.390275
0.371656
0.365869
0.362548
0.359527
0.356994
0.355358
0.354767
0.354946
0.355414
0.355843
0.358767
0.373973
0.421083
0.455554
0.471978
0.489325
0.507378
0.518001
0.517991
0.524686
0.52133
0.515905
0.508049
0.497014
0.476882
0.459632
0.462789
0.516425
0.586769
0.611045
0.611575
0.609631
0.59736
0.56918
0.535755
0.511865
0.490561
0.464202
0.427989
0.390462
0.371672
0.365863
0.362549
0.359526
0.356984
0.355344
0.354753
0.354933
0.355403
0.355833
0.358759
0.373956
0.421084
0.455562
0.471958
0.489304
0.507344
0.517947
0.517933
0.525718
0.524884
0.523033
0.518458
0.508554
0.485277
0.465455
0.467702
0.519248
0.59168
0.613036
0.612555
0.609913
0.597697
0.571363
0.539328
0.513328
0.490862
0.464061
0.427871
0.390484
0.371684
0.365863
0.362549
0.359526
0.356981
0.355339
0.354748
0.354929
0.3554
0.355829
0.358757
0.37395
0.421086
0.455563
0.471948
0.489292
0.507338
0.517932
0.517904
0.524686
0.52133
0.515905
0.508049
0.497014
0.476882
0.459632
0.462789
0.516425
0.586769
0.611045
0.611575
0.609631
0.59736
0.56918
0.535755
0.511865
0.490561
0.464202
0.427989
0.390462
0.371672
0.365863
0.362549
0.359526
0.356984
0.355344
0.354753
0.354933
0.355403
0.355833
0.358759
0.373956
0.421084
0.455562
0.471958
0.489304
0.507344
0.517947
0.517933
0.509236
0.494507
0.48315
0.476947
0.470567
0.457296
0.447052
0.450837
0.503791
0.575347
0.605976
0.609446
0.608183
0.59647
0.568207
0.535431
0.511558
0.489908
0.463461
0.427472
0.390275
0.371656
0.365869
0.362548
0.359527
0.356994
0.355358
0.354767
0.354946
0.355414
0.355843
0.358767
0.373973
0.421083
0.455554
0.471978
0.489325
0.507378
0.518001
0.517991
0.427541
0.424553
0.420037
0.419916
0.419254
0.415053
0.415095
0.42393
0.485289
0.552204
0.589676
0.600275
0.5998
0.589638
0.564008
0.534004
0.510598
0.488779
0.462213
0.426189
0.389486
0.371544
0.36589
0.362544
0.359537
0.357035
0.355418
0.354833
0.355006
0.355463
0.355887
0.358805
0.374012
0.421034
0.455479
0.471952
0.489326
0.507455
0.518115
0.518159
0.37756
0.375626
0.372498
0.37098
0.371637
0.375154
0.382778
0.40469
0.469676
0.53215
0.571985
0.587645
0.587295
0.575515
0.550494
0.525207
0.504909
0.484365
0.458136
0.422293
0.387391
0.371258
0.365931
0.362549
0.359561
0.357127
0.355562
0.354994
0.355152
0.355586
0.35599
0.358902
0.374096
0.420941
0.455348
0.471842
0.489421
0.507591
0.518223
0.518258
0.377096
0.378374
0.379039
0.377605
0.376713
0.379266
0.386415
0.419002
0.471332
0.527071
0.559649
0.572335
0.57016
0.555918
0.53459
0.515316
0.49801
0.478361
0.45203
0.416441
0.38455
0.370907
0.365991
0.362588
0.359628
0.357278
0.355784
0.355245
0.355388
0.355789
0.356162
0.359063
0.374233
0.420857
0.455219
0.471693
0.489505
0.507713
0.518414
0.518444
0.378026
0.377594
0.376697
0.374939
0.376831
0.38658
0.403598
0.432777
0.480621
0.527064
0.553184
0.56076
0.553287
0.536976
0.520081
0.505458
0.489988
0.470704
0.443976
0.40916
0.381533
0.370601
0.366068
0.362657
0.35974
0.357491
0.35608
0.35558
0.355707
0.35607
0.356406
0.359294
0.374446
0.420858
0.455191
0.471617
0.48961
0.507863
0.51865
0.51869
0.382008
0.381674
0.382028
0.383362
0.390088
0.40326
0.424498
0.457103
0.500414
0.53053
0.548578
0.546343
0.533716
0.519873
0.507882
0.495663
0.480774
0.46144
0.434191
0.401131
0.378784
0.370357
0.366134
0.362736
0.359885
0.357753
0.356439
0.355983
0.356097
0.356421
0.356714
0.359588
0.374673
0.420794
0.455113
0.471489
0.489615
0.507982
0.518874
0.518971
0.394566
0.395061
0.397515
0.402973
0.413209
0.428867
0.451557
0.484626
0.51491
0.533758
0.53642
0.527852
0.516783
0.506579
0.496911
0.485242
0.470584
0.450986
0.423139
0.393315
0.376714
0.370245
0.36622
0.362854
0.360098
0.358099
0.356891
0.356484
0.356588
0.356875
0.357129
0.359995
0.375094
0.420972
0.455229
0.471533
0.489749
0.508209
0.519129
0.519239
0.417814
0.419161
0.423499
0.431025
0.441704
0.457337
0.481266
0.505371
0.518871
0.525587
0.520222
0.511492
0.502761
0.495047
0.485794
0.474251
0.459808
0.439418
0.411394
0.386786
0.375367
0.370167
0.366288
0.362995
0.360364
0.358514
0.357419
0.357065
0.35716
0.357414
0.357628
0.360485
0.37546
0.420983
0.455243
0.471498
0.489759
0.508338
0.519336
0.519475
0.450645
0.45237
0.457782
0.463398
0.47153
0.485412
0.500129
0.507456
0.513664
0.511968
0.503664
0.496852
0.49091
0.483577
0.474357
0.463272
0.448568
0.426638
0.400089
0.382363
0.374769
0.37026
0.366474
0.363291
0.360811
0.359115
0.358127
0.357816
0.357901
0.35812
0.358301
0.361158
0.376124
0.42132
0.455452
0.471579
0.489878
0.508558
0.5196
0.519761
0.483782
0.486038
0.486188
0.488204
0.49404
0.499197
0.500939
0.503504
0.500761
0.493841
0.489543
0.485021
0.479285
0.471898
0.463294
0.452517
0.436452
0.413163
0.39116
0.379973
0.37453
0.370387
0.366698
0.363652
0.36133
0.359787
0.358902
0.358625
0.358701
0.358896
0.359057
0.361914
0.376724
0.42148
0.455579
0.47162
0.489987
0.508788
0.519913
0.520098
0.512416
0.513828
0.506672
0.505436
0.502472
0.498352
0.495495
0.489083
0.484541
0.481423
0.478264
0.473696
0.467622
0.460805
0.452738
0.44106
0.422708
0.400594
0.385774
0.378965
0.374526
0.370536
0.366959
0.364068
0.361905
0.360496
0.359694
0.359434
0.359498
0.359674
0.359835
0.36272
0.377495
0.421837
0.455783
0.4717
0.490182
0.50913
0.520376
0.52064
0.531443
0.525164
0.516177
0.508507
0.500377
0.491726
0.4832
0.477591
0.474209
0.471259
0.467238
0.461885
0.456345
0.450536
0.442251
0.428569
0.408903
0.391897
0.383266
0.378425
0.37439
0.370555
0.367211
0.364557
0.362613
0.361391
0.360706
0.360502
0.360588
0.360801
0.360989
0.363929
0.378518
0.4226
0.456742
0.472384
0.490594
0.509573
0.520961
0.521296
0.532158
0.522793
0.512091
0.503044
0.495783
0.485671
0.476291
0.469558
0.465004
0.46071
0.455834
0.451205
0.446944
0.441011
0.430839
0.415275
0.398752
0.388909
0.383978
0.380304
0.376697
0.373269
0.370398
0.36819
0.366634
0.365718
0.365243
0.365166
0.365328
0.365627
0.365874
0.368952
0.38369
0.427772
0.461764
0.47662
0.494105
0.511835
0.522254
0.522318
0.53213
0.522225
0.510984
0.502847
0.49694
0.485788
0.473239
0.46294
0.456054
0.451068
0.447196
0.444383
0.441392
0.435655
0.424459
0.409997
0.399691
0.395415
0.393423
0.391496
0.389429
0.387572
0.38618
0.385303
0.384879
0.384955
0.385099
0.385695
0.386303
0.387004
0.387322
0.390831
0.406649
0.450868
0.481745
0.49107
0.503734
0.517785
0.525476
0.524023
0.534006
0.523934
0.513406
0.506299
0.500957
0.48986
0.47411
0.459852
0.452934
0.451097
0.45152
0.452771
0.451756
0.446384
0.438068
0.432076
0.430402
0.430602
0.430857
0.430515
0.429692
0.428813
0.428094
0.427709
0.427592
0.427909
0.428199
0.428869
0.429379
0.429937
0.430216
0.433838
0.449731
0.488663
0.513212
0.51728
0.524468
0.531783
0.533617
0.528518
0.538117
0.529545
0.523109
0.520826
0.519422
0.513795
0.497042
0.481397
0.476916
0.478715
0.481624
0.482964
0.480104
0.473659
0.467284
0.464613
0.464384
0.464257
0.463575
0.462306
0.460742
0.459254
0.458023
0.457243
0.456814
0.456819
0.4569
0.457238
0.457498
0.457781
0.458086
0.461601
0.475163
0.50769
0.529893
0.534347
0.540031
0.545103
0.545239
0.536532
0.543276
0.541527
0.542685
0.54515
0.5489
0.547187
0.529695
0.510225
0.503689
0.50251
0.500482
0.496116
0.489149
0.483167
0.48019
0.479639
0.479673
0.479305
0.478351
0.476861
0.475262
0.473903
0.472901
0.472264
0.471837
0.471748
0.471717
0.471841
0.471934
0.472031
0.472107
0.475087
0.484604
0.510304
0.531895
0.537075
0.542356
0.548497
0.55046
0.544027
0.545658
0.547807
0.552365
0.557017
0.560186
0.556733
0.539007
0.520341
0.512185
0.508244
0.503978
0.49944
0.495449
0.493646
0.493511
0.494058
0.494414
0.494223
0.493255
0.491819
0.490507
0.48965
0.489248
0.489076
0.488969
0.489072
0.489149
0.48936
0.489548
0.489766
0.489814
0.492209
0.498757
0.517528
0.536582
0.541592
0.544269
0.547374
0.547791
0.543362
0.541284
0.547639
0.551749
0.553605
0.557089
0.554004
0.540438
0.525573
0.517241
0.51268
0.509243
0.507398
0.506627
0.507352
0.508732
0.509974
0.51069
0.51084
0.510354
0.509431
0.50866
0.508167
0.507963
0.507889
0.50784
0.507971
0.508086
0.508331
0.508556
0.508838
0.509055
0.510381
0.514975
0.526525
0.541589
0.547578
0.547063
0.548884
0.545684
0.532889
0.452994
0.51181
0.544113
0.548076
0.553795
0.55317
0.543675
0.532829
0.526607
0.523627
0.521728
0.521183
0.521294
0.522025
0.52287
0.523369
0.523432
0.523127
0.522491
0.521738
0.521192
0.520689
0.520302
0.520082
0.519953
0.519947
0.519942
0.520032
0.520156
0.520386
0.520686
0.521483
0.523741
0.53023
0.541751
0.549202
0.547468
0.546004
0.511372
0.441542
0.332814
0.421036
0.528583
0.543392
0.546551
0.544552
0.536782
0.529719
0.526678
0.525836
0.525236
0.525042
0.525158
0.525431
0.525509
0.525243
0.524631
0.523862
0.523086
0.522398
0.521789
0.52117
0.520659
0.520321
0.520163
0.520132
0.520144
0.520247
0.520387
0.520675
0.521051
0.521755
0.522969
0.526428
0.533564
0.542138
0.542814
0.533474
0.444039
0.337111
0.332814
0.421036
0.528583
0.543392
0.546551
0.544552
0.536782
0.529719
0.526678
0.525836
0.525236
0.525042
0.525158
0.525431
0.525509
0.525243
0.524631
0.523862
0.523086
0.522398
0.521789
0.52117
0.520659
0.520321
0.520163
0.520132
0.520144
0.520247
0.520387
0.520675
0.521051
0.521755
0.522969
0.526428
0.533564
0.542138
0.542814
0.533474
0.444039
0.337111
0.452994
0.51181
0.544113
0.548076
0.553795
0.55317
0.543675
0.532829
0.526607
0.523627
0.521728
0.521183
0.521294
0.522025
0.52287
0.523369
0.523432
0.523127
0.522491
0.521738
0.521192
0.520689
0.520302
0.520082
0.519953
0.519947
0.519942
0.520032
0.520156
0.520386
0.520686
0.521483
0.523741
0.53023
0.541751
0.549202
0.547468
0.546004
0.511372
0.441542
0.541284
0.547639
0.551749
0.553605
0.557089
0.554004
0.540438
0.525573
0.517241
0.51268
0.509243
0.507398
0.506627
0.507352
0.508732
0.509974
0.51069
0.51084
0.510354
0.509431
0.50866
0.508167
0.507963
0.507889
0.50784
0.507971
0.508086
0.508331
0.508556
0.508838
0.509055
0.510381
0.514975
0.526525
0.541589
0.547578
0.547063
0.548884
0.545684
0.532889
0.545658
0.547807
0.552365
0.557017
0.560186
0.556733
0.539007
0.520341
0.512185
0.508244
0.503978
0.49944
0.495449
0.493646
0.493511
0.494058
0.494414
0.494223
0.493255
0.491819
0.490507
0.48965
0.489248
0.489076
0.488969
0.489072
0.489149
0.48936
0.489548
0.489766
0.489814
0.492209
0.498757
0.517528
0.536582
0.541592
0.544269
0.547374
0.547791
0.543362
0.543276
0.541527
0.542685
0.54515
0.5489
0.547187
0.529695
0.510225
0.503689
0.50251
0.500482
0.496116
0.489149
0.483167
0.48019
0.479639
0.479673
0.479305
0.478351
0.476861
0.475262
0.473903
0.472901
0.472264
0.471837
0.471748
0.471717
0.471841
0.471934
0.472031
0.472107
0.475087
0.484604
0.510304
0.531895
0.537075
0.542356
0.548497
0.55046
0.544027
0.538117
0.529545
0.523109
0.520826
0.519422
0.513795
0.497042
0.481397
0.476916
0.478715
0.481624
0.482964
0.480104
0.473659
0.467284
0.464613
0.464384
0.464257
0.463575
0.462306
0.460742
0.459254
0.458023
0.457243
0.456814
0.456819
0.4569
0.457238
0.457498
0.457781
0.458086
0.461601
0.475163
0.50769
0.529893
0.534347
0.540031
0.545103
0.545239
0.536532
0.534006
0.523934
0.513406
0.506299
0.500957
0.48986
0.47411
0.459852
0.452934
0.451097
0.45152
0.452771
0.451756
0.446384
0.438068
0.432076
0.430402
0.430602
0.430857
0.430515
0.429692
0.428813
0.428094
0.427709
0.427592
0.427909
0.428199
0.428869
0.429379
0.429937
0.430216
0.433838
0.449731
0.488663
0.513212
0.51728
0.524468
0.531783
0.533617
0.528518
0.53213
0.522225
0.510984
0.502847
0.49694
0.485788
0.473239
0.46294
0.456054
0.451068
0.447196
0.444383
0.441392
0.435655
0.424459
0.409997
0.399691
0.395415
0.393423
0.391496
0.389429
0.387572
0.38618
0.385303
0.384879
0.384955
0.385099
0.385695
0.386303
0.387004
0.387322
0.390831
0.406649
0.450868
0.481745
0.49107
0.503734
0.517785
0.525476
0.524023
0.532158
0.522793
0.512091
0.503044
0.495783
0.485671
0.476291
0.469558
0.465004
0.46071
0.455834
0.451205
0.446944
0.441011
0.430839
0.415275
0.398752
0.388909
0.383978
0.380304
0.376697
0.373269
0.370398
0.36819
0.366634
0.365718
0.365243
0.365166
0.365328
0.365627
0.365874
0.368952
0.38369
0.427772
0.461764
0.47662
0.494105
0.511835
0.522254
0.522318
0.531443
0.525164
0.516177
0.508507
0.500377
0.491726
0.4832
0.477591
0.474209
0.471259
0.467238
0.461885
0.456345
0.450536
0.442251
0.428569
0.408903
0.391897
0.383266
0.378425
0.37439
0.370555
0.367211
0.364557
0.362613
0.361391
0.360706
0.360502
0.360588
0.360801
0.360989
0.363929
0.378518
0.4226
0.456742
0.472384
0.490594
0.509573
0.520961
0.521296
0.512416
0.513828
0.506672
0.505436
0.502472
0.498352
0.495495
0.489083
0.484541
0.481423
0.478264
0.473696
0.467622
0.460805
0.452738
0.44106
0.422708
0.400594
0.385774
0.378965
0.374526
0.370536
0.366959
0.364068
0.361905
0.360496
0.359694
0.359434
0.359498
0.359674
0.359835
0.36272
0.377495
0.421837
0.455783
0.4717
0.490182
0.50913
0.520376
0.52064
0.483782
0.486038
0.486188
0.488204
0.49404
0.499197
0.500939
0.503504
0.500761
0.493841
0.489543
0.485021
0.479285
0.471898
0.463294
0.452517
0.436452
0.413163
0.39116
0.379973
0.37453
0.370387
0.366698
0.363652
0.36133
0.359787
0.358902
0.358625
0.358701
0.358896
0.359057
0.361914
0.376724
0.42148
0.455579
0.47162
0.489987
0.508788
0.519913
0.520098
0.450645
0.45237
0.457782
0.463398
0.47153
0.485412
0.500129
0.507456
0.513664
0.511968
0.503664
0.496852
0.49091
0.483577
0.474357
0.463272
0.448568
0.426638
0.400089
0.382363
0.374769
0.37026
0.366474
0.363291
0.360811
0.359115
0.358127
0.357816
0.357901
0.35812
0.358301
0.361158
0.376124
0.42132
0.455452
0.471579
0.489878
0.508558
0.5196
0.519761
0.417814
0.419161
0.423499
0.431025
0.441704
0.457337
0.481266
0.505371
0.518871
0.525587
0.520222
0.511492
0.502761
0.495047
0.485794
0.474251
0.459808
0.439418
0.411394
0.386786
0.375367
0.370167
0.366288
0.362995
0.360364
0.358514
0.357419
0.357065
0.35716
0.357414
0.357628
0.360485
0.37546
0.420983
0.455243
0.471498
0.489759
0.508338
0.519336
0.519475
0.394566
0.395061
0.397515
0.402973
0.413209
0.428867
0.451557
0.484626
0.51491
0.533758
0.53642
0.527852
0.516783
0.506579
0.496911
0.485242
0.470584
0.450986
0.423139
0.393315
0.376714
0.370245
0.36622
0.362854
0.360098
0.358099
0.356891
0.356484
0.356588
0.356875
0.357129
0.359995
0.375094
0.420972
0.455229
0.471533
0.489749
0.508209
0.519129
0.519239
0.382008
0.381674
0.382028
0.383362
0.390088
0.40326
0.424498
0.457103
0.500414
0.53053
0.548578
0.546343
0.533716
0.519873
0.507882
0.495663
0.480774
0.46144
0.434191
0.401131
0.378784
0.370357
0.366134
0.362736
0.359885
0.357753
0.356439
0.355983
0.356097
0.356421
0.356714
0.359588
0.374673
0.420794
0.455113
0.471489
0.489615
0.507982
0.518874
0.518971
0.378026
0.377594
0.376697
0.374939
0.376831
0.38658
0.403598
0.432777
0.480621
0.527064
0.553184
0.56076
0.553287
0.536976
0.520081
0.505458
0.489988
0.470704
0.443976
0.40916
0.381533
0.370601
0.366068
0.362657
0.35974
0.357491
0.35608
0.35558
0.355707
0.35607
0.356406
0.359294
0.374446
0.420858
0.455191
0.471617
0.48961
0.507863
0.51865
0.51869
0.377096
0.378374
0.379039
0.377605
0.376713
0.379266
0.386415
0.419002
0.471332
0.527071
0.559649
0.572335
0.57016
0.555918
0.53459
0.515316
0.49801
0.478361
0.45203
0.416441
0.38455
0.370907
0.365991
0.362588
0.359628
0.357278
0.355784
0.355245
0.355388
0.355789
0.356162
0.359063
0.374233
0.420857
0.455219
0.471693
0.489505
0.507713
0.518414
0.518444
0.37756
0.375626
0.372498
0.37098
0.371637
0.375154
0.382778
0.40469
0.469676
0.53215
0.571985
0.587645
0.587295
0.575515
0.550494
0.525207
0.504909
0.484365
0.458136
0.422293
0.387391
0.371258
0.365931
0.362549
0.359561
0.357127
0.355562
0.354994
0.355152
0.355586
0.35599
0.358902
0.374096
0.420941
0.455348
0.471842
0.489421
0.507591
0.518223
0.518258
0.427541
0.424553
0.420037
0.419916
0.419254
0.415053
0.415095
0.42393
0.485289
0.552204
0.589676
0.600275
0.5998
0.589638
0.564008
0.534004
0.510598
0.488779
0.462213
0.426189
0.389486
0.371544
0.36589
0.362544
0.359537
0.357035
0.355418
0.354833
0.355006
0.355463
0.355887
0.358805
0.374012
0.421034
0.455479
0.471952
0.489326
0.507455
0.518115
0.518159
)
;

boundaryField
{
    inlet
    {
        type            fixedValue;
        value           uniform 1;
    }
    outlet
    {
        type            zeroGradient;
    }
    obstacle
    {
        type            zeroGradient;
    }
    empty
    {
        type            empty;
    }
}


// ************************************************************************* //
