/*--------------------------------*- C++ -*----------------------------------*\
| =========                 |                                                 |
| \\      /  F ield         | OpenFOAM: The Open Source CFD Toolbox           |
|  \\    /   O peration     | Version:  v1912                                 |
|   \\  /    A nd           | Website:  www.openfoam.com                      |
|    \\/     M anipulation  |                                                 |
\*---------------------------------------------------------------------------*/
FoamFile
{
    version     2.0;
    format      ascii;
    class       volScalarField;
    location    "2.7";
    object      p;
}
// * * * * * * * * * * * * * * * * * * * * * * * * * * * * * * * * * * * * * //

dimensions      [1 -1 -2 0 0 0 0];


internalField   nonuniform List<scalar> 
1900
(
16561.2
11208.1
10937.5
11012.8
11071.7
11130.8
11189.4
11258.6
11327.7
11423
16561.2
11208.1
10937.6
11012.9
11071.9
11130.3
11186.4
11243.6
11298.2
11387.3
16561.2
11208.1
10937.6
11012.7
11071.1
11129
11186.2
11247.5
11311.2
11378.7
16561.2
11208.1
10937.6
11012.9
11071.9
11130.3
11186.4
11243.6
11298.2
11387.3
16561.2
11208.1
10937.5
11012.8
11071.7
11130.8
11189.4
11258.6
11327.7
11423
11329.4
11405.7
11395.2
11125.1
9639.06
11443.9
11520.1
11472.7
11374.9
10649.4
11420.1
11470.6
11397.3
11215
10442.5
11443.9
11520.1
11472.7
11374.9
10649.4
11329.4
11405.7
11395.2
11125.1
9639.06
12633.5
12783.6
13167.2
13248.5
13249.6
12446.8
12756.4
13189.9
13403.9
13184.2
12432.3
12763
13156.9
13269.1
12658.4
12446.8
12756.4
13189.9
13403.9
13184.2
12633.5
12783.6
13167.2
13248.5
13249.6
10496.3
4696.88
5038.31
5219.75
5063.39
5008.24
5025.48
5107.67
5209.87
5355.83
5534.51
5746.71
5991.86
6268.15
6572.14
6896.83
7226.05
7531.44
7765.51
7924.29
7916.16
7741.25
7494.3
7176.85
6835.09
6494.34
6167.47
5857.81
5565.29
5289.97
5033.17
4797.04
4582.77
4388.66
4209.15
4044.59
3906.69
3827.35
3568.92
20339.3
10875.1
5048.85
5256.49
5266.48
5093.64
5027.03
5040.57
5123.26
5224.5
5370.13
5548.88
5761.06
6006.19
6282.55
6586.69
6911.59
7241.04
7546.64
7780.85
7939.73
7931.62
7756.6
7509.51
7191.81
6849.77
6508.76
6181.69
5871.91
5579.32
5303.97
5047.17
4811.06
4596.8
4402.68
4223.02
4058.17
3919.1
3840.16
3580.71
20424.1
10338.7
5485.4
5392.03
5305.78
5107.89
5034.99
5047.13
5130.1
5230.72
5376.33
5555.04
5767.13
6012.2
6288.55
6592.72
6917.69
7247.21
7552.9
7787.16
7946.09
7937.99
7762.91
7515.75
7197.97
6855.84
6514.77
6187.67
5877.89
5585.35
5310.08
5053.38
4817.39
4603.26
4409.27
4229.68
4064.9
3925.32
3846.72
3586.95
20516
10875.1
5048.85
5256.49
5266.48
5093.64
5027.03
5040.57
5123.26
5224.5
5370.13
5548.88
5761.06
6006.19
6282.55
6586.69
6911.59
7241.04
7546.64
7780.85
7939.73
7931.62
7756.6
7509.51
7191.81
6849.77
6508.76
6181.69
5871.91
5579.32
5303.97
5047.17
4811.06
4596.8
4402.68
4223.02
4058.17
3919.1
3840.16
3580.71
20424.1
10496.3
4696.88
5038.31
5219.75
5063.39
5008.24
5025.48
5107.67
5209.87
5355.83
5534.51
5746.71
5991.86
6268.15
6572.14
6896.83
7226.05
7531.44
7765.51
7924.29
7916.16
7741.25
7494.3
7176.85
6835.09
6494.34
6167.47
5857.81
5565.29
5289.97
5033.17
4797.04
4582.77
4388.66
4209.15
4044.59
3906.69
3827.35
3568.92
20339.3
11926.7
4053.29
4753.27
4977.62
4933
4914.32
4949.31
5029.36
5138.54
5284.83
5462.99
5674.89
5919.56
6194.99
6497.73
6820.8
7148.24
7451.97
7684.83
7842.86
7834.75
7660.73
7415.17
7099.67
6760.09
6421.51
6096.63
5788.71
5497.69
5223.63
4967.88
4732.55
4518.76
4324.81
4145.46
3980.97
3846.47
3764.54
3506.79
19957
12984.5
3608.64
4364.03
4549.51
4641.55
4687.15
4758.79
4846.11
4960.94
5106.28
5282.34
5491.77
5733.25
6004.42
6301.84
6618.83
6940.04
7238.21
7467.15
7622.56
7614.52
7443.57
7202.34
6892.92
6560.16
6228.44
5910
5607.97
5322.36
5053.3
4802.16
4571.02
4360.98
4170.21
3994.5
3833.5
3706.46
3624.71
3372.21
19189.9
13757.9
3409.65
3991.16
4198.35
4323.76
4417.03
4509.35
4608.67
4726.46
4870.78
5044.02
5249.25
5485.13
5748.96
6037.41
6344.28
6655.24
6944.35
7166.86
7318.13
7310.26
7144.05
6909.68
6609.79
6287.72
5966.86
5658.81
5366.52
5090.03
4829.55
4586.46
4362.71
4159.4
3974.68
3805.69
3651.3
3531.94
3451.94
3196.74
18088
14942.3
3234.03
3704.55
3885.98
4026.75
4145.43
4248.1
4356.41
4475.45
4618.52
4788.92
4989.26
5218.14
5472.77
5750.08
6044.57
6343.1
6621.3
6836.09
6982.72
6975.29
6814.75
6588.79
6300.43
5991.4
5683.92
5388.84
5108.86
4844
4594.55
4361.73
4147.43
3952.76
3775.89
3615.74
3469.53
3356.15
3277.08
3016.56
16881.9
13973.2
3030.91
3441.53
3615.54
3758.47
3885.03
3993.05
4104.05
4223.99
4365.91
4533.76
4729.3
4950.83
5195.77
5461.36
5742.88
6028.43
6295.28
6502.12
6644.22
6637.48
6482.88
6265.79
5989.56
5694.28
5400.97
5119.65
4852.68
4600.16
4362.15
4140.09
3935.37
3749.58
3580.86
3430.1
3292.05
3182.02
3098.96
2843.15
15631.8
13418.3
2844.09
3205.04
3374.94
3518.75
3641.69
3749.76
3860.46
3980.67
4122.03
4288.1
4479.18
4693.89
4929.46
5183.81
5452.86
5726
5982.11
6181.62
6319.75
6313.88
6164.9
5956.25
5691.6
5409.57
5129.97
4861.9
4607.56
4366.63
4139.83
3927.57
3732.05
3554.75
3393.73
3251.96
3121.06
3012.48
2923.39
2679.74
14367.7
12767.7
2674.62
2993.94
3156.15
3298.78
3414.31
3519.17
3627.93
3748.16
3889.47
4053.45
4240.85
4448.62
4675.45
4919.01
5176.25
5437.7
5683.87
5876.78
6011.55
6006.66
5862.83
5661.91
5408.04
5138.47
4871.75
4616.27
4373.5
4144.02
3926.79
3724.66
3537.07
3368.02
3214.58
3080.98
2955.95
2848.08
2753.75
2524.33
13164.4
12024.4
2516.44
2802.27
2953.77
3092.48
3200.44
3301.27
3407.55
3527.72
3668.19
3831.23
4013.52
4215.41
4433.26
4666.69
4912.61
5163.03
5399.95
5586.97
5718.85
5714.97
5575.84
5382.01
5138.19
4880.33
4625.88
4382.01
4150.81
3930.82
3724.56
3529.9
3351.04
3189.82
3043.03
2916.88
2796.83
2689.54
2591.24
2376.34
11964.6
11245.9
2368.37
2626.86
2766.47
2898.52
3000.4
3097.23
3200.38
3320.12
3460.52
3619.65
3799.09
3993.27
4203.39
4426.69
4662.01
4902
5130.34
5312.06
5441.38
5438.5
5303.67
5116.35
4881.96
4635.26
4392.25
4159.88
3938.37
3729.66
3530.41
3346.41
3173.86
3020.2
2880.76
2760.92
2645.04
2538.84
2438.66
2238.02
10864.3
10344.3
2225.53
2459.72
2590.07
2714.19
2811.69
2905.47
3006.73
3125.54
3264.02
3422.4
3595.26
3784.58
3985.9
4200.36
4425.57
4655.93
4876.33
5053.3
5180.3
5178.34
5047.4
4866.03
4640.52
4404.25
4172.25
3949.87
3739.1
3537.69
3349.43
3171.11
3006.05
2860.31
2725.55
2611.7
2499.56
2394.49
2293.03
2105.99
9772.56
9458.9
2096.22
2310.34
2433.53
2546.91
2640.55
2731.52
2828.74
2947.69
3083.49
3237.58
3407.02
3588.85
3783.44
3989.08
4205.34
4426.84
4640.02
4812.75
4937.59
4936.4
4808.96
4632.95
4415.64
4189.16
3967.07
3754.7
3552.04
3360.63
3178.39
3009.45
2851.38
2711.3
2583.5
2474.58
2366.06
2263.02
2162.35
1988.26
8800.21
8535.39
1973.12
2167.66
2284.27
2387.44
2477.84
2566.73
2664.29
2780.24
2916.03
3066.65
3231.94
3408.64
3596.4
3794.75
4002.92
4216.57
4423.27
4592.3
4715.1
4714.5
4590.13
4418.83
4208.99
3991.35
3778.39
3574.42
3380.08
3195.64
3020.34
2858.45
2704.47
2572.75
2448.32
2343.72
2237.5
2136.19
2036.48
1874.12
7839.86
7684.65
1865.71
2043.64
2153.49
2250.26
2337.94
2425.7
2521.11
2638.38
2768.34
2917.14
3075.76
3246.73
3427.38
3618.45
3819.03
4025.43
4226.21
4391.96
4512.85
4512.66
4390.93
4223.74
4020.74
3811.34
3607.01
3411.44
3225.38
3048.36
2881.44
2724.95
2579.62
2451.63
2332.36
2230.44
2126.5
2026.55
1928.17
1776.38
7003.77
6835.81
1763.72
1924.54
2025.47
2115.97
2202.53
2292.06
2387.73
2505.18
2633.2
2778.36
2932.96
3098.33
3273.03
3457.4
3651.02
3850.72
4046.06
4208.91
4328.08
4328.12
4208.61
4044.93
3848.15
3646.37
3450.01
3262.28
3083.36
2913.66
2752.18
2602.6
2461.17
2338.15
2221.65
2121.36
2017.89
1919.11
1823.09
1681.65
6195.92
6062.61
1669.51
1813.63
1905.5
1995.08
2082.68
2175.73
2272.75
2390.52
2517.11
2658.9
2809.37
2969.34
3137.55
3314.25
3499.48
3691.01
3879.66
4038.72
4155.77
4155.91
4038.79
3879.35
3689.87
3497.02
3309.92
3130.87
2959.48
2796.5
2640.51
2496.42
2358.97
2239.36
2124.84
2024.22
1920.67
1822.68
1729.29
1598.05
5510.42
5291.22
1575.59
1702.99
1786.42
1873.59
1964.18
2058.53
2160.32
2276.39
2403.48
2542.93
2691.27
2848.23
3012.48
3183.87
3362.62
3547.25
3729.65
3885.13
4000.29
4000.45
3885.34
3729.76
3546.97
3361.62
3181.76
3008.9
2842.52
2683.57
2531.12
2390.39
2255.25
2138.34
2024.35
1923.91
1820.9
1725
1636.29
1516.38
4836.49
4667.89
1494
1602.48
1675.87
1760.49
1853.12
1948.86
2054.56
2169.61
2298.36
2437
2586.3
2744.04
2909.48
3081.33
3258.85
3439.42
3615.92
3765.39
3874.91
3875.03
3765.61
3616.18
3439.59
3258.76
3080.7
2908.06
2741.37
2582.47
2430.6
2291.26
2157.51
2041.93
1928.99
1829.25
1728.29
1636.25
1555.63
1450.32
4328.46
4118.07
1442.32
1528.91
1588.52
1667.68
1759.4
1854.28
1960.99
2074.92
2205.15
2343.71
2495.89
2657.05
2827.94
3006.18
3187.28
3367.69
3543.12
3692.89
3803.79
3803.88
3693.07
3543.39
3367.98
3187.45
3006.06
2827.35
2655.67
2493.72
2339.82
2200.59
2067.11
1952.46
1841.37
1743.68
1646.79
1562.51
1497.46
1411.92
3925.16
4153.91
1373.06
1439.56
1478.64
1544.44
1626.81
1712.2
1810.04
1912.85
2031.93
2156.94
2295.32
2441.68
2598.09
2764.5
2947.19
3140.12
3325.56
3475.94
3579.43
3579.47
3476.03
3325.72
3140.35
2947.46
2764.71
2598.1
2441.27
2294.46
2155.02
2029.57
1908.41
1805.05
1704.51
1617.17
1531.29
1461.49
1416.96
1348.66
4012.1
36235
4037.38
4005.54
4449.61
4992.46
5725
6463.91
7342.58
8244.84
9290.1
10344.5
11525.8
12715.6
14006.9
15299.3
16629
17920.9
19119.4
20076.4
20681.3
20681.3
20076.4
19119.6
17921.2
16629.6
15300.2
14008.3
12717.4
11528
10347
9292.68
8247.43
7344.87
6465.95
5725.99
4992.14
4445.52
3997.53
4022.77
36063.1
36235
4037.38
4005.54
4449.61
4992.46
5725
6463.91
7342.58
8244.84
9290.1
10344.5
11525.8
12715.6
14006.9
15299.3
16629
17920.9
19119.4
20076.4
20681.3
20681.3
20076.4
19119.6
17921.2
16629.6
15300.2
14008.3
12717.4
11528
10347
9292.68
8247.43
7344.87
6465.95
5725.99
4992.14
4445.52
3997.53
4022.77
36063.1
4153.91
1373.06
1439.56
1478.64
1544.44
1626.81
1712.2
1810.04
1912.85
2031.93
2156.94
2295.32
2441.68
2598.09
2764.5
2947.19
3140.12
3325.56
3475.94
3579.43
3579.47
3476.03
3325.72
3140.35
2947.46
2764.71
2598.1
2441.27
2294.46
2155.02
2029.57
1908.41
1805.05
1704.51
1617.17
1531.29
1461.49
1416.96
1348.66
4012.1
4118.07
1442.32
1528.91
1588.52
1667.68
1759.4
1854.28
1960.99
2074.92
2205.15
2343.71
2495.89
2657.05
2827.94
3006.18
3187.28
3367.69
3543.12
3692.89
3803.79
3803.88
3693.07
3543.39
3367.98
3187.45
3006.06
2827.35
2655.67
2493.72
2339.82
2200.59
2067.11
1952.46
1841.37
1743.68
1646.79
1562.51
1497.46
1411.92
3925.16
4667.89
1494
1602.48
1675.87
1760.49
1853.12
1948.86
2054.56
2169.61
2298.36
2437
2586.3
2744.04
2909.48
3081.33
3258.85
3439.42
3615.92
3765.39
3874.91
3875.03
3765.61
3616.18
3439.59
3258.76
3080.7
2908.06
2741.37
2582.47
2430.6
2291.26
2157.51
2041.93
1928.99
1829.25
1728.29
1636.25
1555.63
1450.32
4328.46
5291.22
1575.59
1702.99
1786.42
1873.59
1964.18
2058.53
2160.32
2276.39
2403.48
2542.93
2691.27
2848.23
3012.48
3183.87
3362.62
3547.25
3729.65
3885.13
4000.29
4000.45
3885.34
3729.76
3546.97
3361.62
3181.76
3008.9
2842.52
2683.57
2531.12
2390.39
2255.25
2138.34
2024.35
1923.91
1820.9
1725
1636.29
1516.38
4836.49
6062.61
1669.51
1813.63
1905.5
1995.08
2082.68
2175.73
2272.75
2390.52
2517.11
2658.9
2809.37
2969.34
3137.55
3314.25
3499.48
3691.01
3879.66
4038.72
4155.77
4155.91
4038.79
3879.35
3689.87
3497.02
3309.92
3130.87
2959.48
2796.5
2640.51
2496.42
2358.97
2239.36
2124.84
2024.22
1920.67
1822.68
1729.29
1598.05
5510.42
6835.81
1763.72
1924.54
2025.47
2115.97
2202.53
2292.06
2387.73
2505.18
2633.2
2778.36
2932.96
3098.33
3273.03
3457.4
3651.02
3850.72
4046.06
4208.91
4328.08
4328.12
4208.61
4044.93
3848.15
3646.37
3450.01
3262.28
3083.36
2913.66
2752.18
2602.6
2461.17
2338.15
2221.65
2121.36
2017.89
1919.11
1823.09
1681.65
6195.92
7684.65
1865.71
2043.64
2153.49
2250.26
2337.94
2425.7
2521.11
2638.38
2768.34
2917.14
3075.76
3246.73
3427.38
3618.45
3819.03
4025.43
4226.21
4391.96
4512.85
4512.66
4390.93
4223.74
4020.74
3811.34
3607.01
3411.44
3225.38
3048.36
2881.44
2724.95
2579.62
2451.63
2332.36
2230.44
2126.5
2026.55
1928.17
1776.38
7003.77
8535.39
1973.12
2167.66
2284.27
2387.44
2477.84
2566.73
2664.29
2780.24
2916.03
3066.65
3231.94
3408.64
3596.4
3794.75
4002.92
4216.57
4423.27
4592.3
4715.1
4714.5
4590.13
4418.83
4208.99
3991.35
3778.39
3574.42
3380.08
3195.64
3020.34
2858.45
2704.47
2572.75
2448.32
2343.72
2237.5
2136.19
2036.48
1874.12
7839.86
9458.9
2096.22
2310.34
2433.53
2546.91
2640.55
2731.52
2828.74
2947.69
3083.49
3237.58
3407.02
3588.85
3783.44
3989.08
4205.34
4426.84
4640.02
4812.75
4937.59
4936.4
4808.96
4632.95
4415.64
4189.16
3967.07
3754.7
3552.04
3360.63
3178.39
3009.45
2851.38
2711.3
2583.5
2474.58
2366.06
2263.02
2162.35
1988.26
8800.21
10344.3
2225.53
2459.72
2590.07
2714.19
2811.69
2905.47
3006.73
3125.54
3264.02
3422.4
3595.26
3784.58
3985.9
4200.36
4425.57
4655.93
4876.33
5053.3
5180.3
5178.34
5047.4
4866.03
4640.52
4404.25
4172.25
3949.87
3739.1
3537.69
3349.43
3171.11
3006.05
2860.31
2725.55
2611.7
2499.56
2394.49
2293.03
2105.99
9772.56
11245.9
2368.37
2626.86
2766.47
2898.52
3000.4
3097.23
3200.38
3320.12
3460.52
3619.65
3799.09
3993.27
4203.39
4426.69
4662.01
4902
5130.34
5312.06
5441.38
5438.5
5303.67
5116.35
4881.96
4635.26
4392.25
4159.88
3938.37
3729.66
3530.41
3346.41
3173.86
3020.2
2880.76
2760.92
2645.04
2538.84
2438.66
2238.02
10864.3
12024.4
2516.44
2802.27
2953.77
3092.48
3200.44
3301.27
3407.55
3527.72
3668.19
3831.23
4013.52
4215.41
4433.26
4666.69
4912.61
5163.03
5399.95
5586.97
5718.85
5714.97
5575.84
5382.01
5138.19
4880.33
4625.88
4382.01
4150.81
3930.82
3724.56
3529.9
3351.04
3189.82
3043.03
2916.88
2796.83
2689.54
2591.24
2376.34
11964.6
12767.7
2674.62
2993.94
3156.15
3298.78
3414.31
3519.17
3627.93
3748.16
3889.47
4053.45
4240.85
4448.62
4675.45
4919.01
5176.25
5437.7
5683.87
5876.78
6011.55
6006.66
5862.83
5661.91
5408.04
5138.47
4871.75
4616.27
4373.5
4144.02
3926.79
3724.66
3537.07
3368.02
3214.58
3080.98
2955.95
2848.08
2753.75
2524.33
13164.4
13418.3
2844.09
3205.04
3374.94
3518.75
3641.69
3749.76
3860.46
3980.67
4122.03
4288.1
4479.18
4693.89
4929.46
5183.81
5452.86
5726
5982.11
6181.62
6319.75
6313.88
6164.9
5956.25
5691.6
5409.57
5129.97
4861.9
4607.56
4366.63
4139.83
3927.57
3732.05
3554.75
3393.73
3251.96
3121.06
3012.48
2923.39
2679.74
14367.7
13973.2
3030.91
3441.53
3615.54
3758.47
3885.03
3993.05
4104.05
4223.99
4365.91
4533.76
4729.3
4950.83
5195.77
5461.36
5742.88
6028.43
6295.28
6502.12
6644.22
6637.48
6482.88
6265.79
5989.56
5694.28
5400.97
5119.65
4852.68
4600.16
4362.15
4140.09
3935.37
3749.58
3580.86
3430.1
3292.05
3182.02
3098.96
2843.15
15631.8
14942.3
3234.03
3704.55
3885.98
4026.75
4145.43
4248.1
4356.41
4475.45
4618.52
4788.92
4989.26
5218.14
5472.77
5750.08
6044.57
6343.1
6621.3
6836.09
6982.72
6975.29
6814.75
6588.79
6300.43
5991.4
5683.92
5388.84
5108.86
4844
4594.55
4361.73
4147.43
3952.76
3775.89
3615.74
3469.53
3356.15
3277.08
3016.56
16881.9
13757.9
3409.65
3991.16
4198.35
4323.76
4417.03
4509.35
4608.67
4726.46
4870.78
5044.02
5249.25
5485.13
5748.96
6037.41
6344.28
6655.24
6944.35
7166.86
7318.13
7310.26
7144.05
6909.68
6609.79
6287.72
5966.86
5658.81
5366.52
5090.03
4829.55
4586.46
4362.71
4159.4
3974.68
3805.69
3651.3
3531.94
3451.94
3196.74
18088
12984.5
3608.64
4364.03
4549.51
4641.55
4687.15
4758.79
4846.11
4960.94
5106.28
5282.34
5491.77
5733.25
6004.42
6301.84
6618.83
6940.04
7238.21
7467.15
7622.56
7614.52
7443.57
7202.34
6892.92
6560.16
6228.44
5910
5607.97
5322.36
5053.3
4802.16
4571.02
4360.98
4170.21
3994.5
3833.5
3706.46
3624.71
3372.21
19189.9
11926.7
4053.29
4753.27
4977.62
4933
4914.32
4949.31
5029.36
5138.54
5284.83
5462.99
5674.89
5919.56
6194.99
6497.73
6820.8
7148.24
7451.97
7684.83
7842.86
7834.75
7660.73
7415.17
7099.67
6760.09
6421.51
6096.63
5788.71
5497.69
5223.63
4967.88
4732.55
4518.76
4324.81
4145.46
3980.97
3846.47
3764.54
3506.79
19957
)
;

boundaryField
{
    inlet
    {
        type            fixedValue;
        value           uniform 10000;
    }
    outlet
    {
        type            fixedValue;
        value           uniform 1000;
    }
    obstacle
    {
        type            zeroGradient;
    }
    empty
    {
        type            empty;
    }
}


// ************************************************************************* //
