/*--------------------------------*- C++ -*----------------------------------*\
| =========                 |                                                 |
| \\      /  F ield         | OpenFOAM: The Open Source CFD Toolbox           |
|  \\    /   O peration     | Version:  v1912                                 |
|   \\  /    A nd           | Website:  www.openfoam.com                      |
|    \\/     M anipulation  |                                                 |
\*---------------------------------------------------------------------------*/
FoamFile
{
    version     2.0;
    format      ascii;
    class       volTensorField;
    location    "6.82";
    object      grad(U);
}
// * * * * * * * * * * * * * * * * * * * * * * * * * * * * * * * * * * * * * //

dimensions      [0 0 -1 0 0 0 0];


internalField   nonuniform List<tensor> 
1900
(
(-3.85808 -2.13416e-07 0 9.38359e-06 4.85601e-06 0 0 0 0)
(4.12015 1.67935e-05 0 -5.30977e-06 1.30286e-05 0 0 0 0)
(0.582663 4.34994e-06 0 2.32155e-06 1.643e-05 0 0 0 0)
(0.00631145 -2.51399e-05 0 -1.25517e-05 -6.6992e-06 0 0 0 0)
(0.0275562 -0.00019117 0 -5.11399e-05 -8.24113e-05 0 0 0 0)
(0.0309378 -0.000444821 0 -0.000206422 -0.000414945 0 0 0 0)
(0.0348199 0.00112155 0 -0.000481928 -0.000860662 0 0 0 0)
(0.0280891 0.0154781 0 -0.00202552 0.00176813 0 0 0 0)
(-0.0270304 0.059107 0 0.00710884 0.0254113 0 0 0 0)
(-0.0244877 0.211892 0 0.0579596 0.116773 0 0 0 0)
(-3.85808 1.80981e-05 0 1.00568e-05 3.21111e-06 0 0 0 0)
(4.12014 -5.21944e-06 0 -1.33097e-05 -2.9977e-06 0 0 0 0)
(0.582655 -2.40778e-05 0 -6.50785e-06 -1.35824e-05 0 0 0 0)
(0.00625799 -7.37015e-05 0 -3.76689e-05 -7.34764e-06 0 0 0 0)
(0.0273623 -0.000217075 0 -0.000111612 1.15575e-05 0 0 0 0)
(0.030507 -0.000333429 0 -0.00031391 0.000183822 0 0 0 0)
(0.0330008 0.00106153 0 -0.000536911 0.000456379 0 0 0 0)
(0.0356799 0.0107939 0 -0.00154508 -0.000937726 0 0 0 0)
(0.0329548 0.0558981 0 0.00997136 -0.0150217 0 0 0 0)
(0.102284 0.149385 0 0.0918781 -0.0600447 0 0 0 0)
(-3.85808 -1.03644e-12 0 -2.63461e-13 -1.61343e-05 0 0 0 0)
(4.12013 3.15142e-13 0 -2.54991e-13 -2.00619e-05 0 0 0 0)
(0.582638 2.36354e-13 0 3.3163e-13 -5.69537e-06 0 0 0 0)
(0.00620635 1.85876e-13 0 7.7656e-14 2.80937e-05 0 0 0 0)
(0.0272799 5.47665e-13 0 4.20128e-14 0.000141708 0 0 0 0)
(0.0305125 4.9802e-13 0 1.32408e-13 0.000462244 0 0 0 0)
(0.0335887 -2.82203e-14 0 4.08338e-13 0.000808566 0 0 0 0)
(0.0385974 -1.71822e-13 0 5.48742e-13 -0.00166082 0 0 0 0)
(0.0663928 -1.82423e-13 0 5.49013e-13 -0.0207793 0 0 0 0)
(0.159941 8.69254e-14 0 4.44116e-13 -0.113457 0 0 0 0)
(-3.85808 -1.80981e-05 0 -1.00568e-05 3.21112e-06 0 0 0 0)
(4.12014 5.21944e-06 0 1.33097e-05 -2.9977e-06 0 0 0 0)
(0.582655 2.40778e-05 0 6.50785e-06 -1.35824e-05 0 0 0 0)
(0.00625799 7.37015e-05 0 3.76689e-05 -7.34764e-06 0 0 0 0)
(0.0273623 0.000217075 0 0.000111612 1.15575e-05 0 0 0 0)
(0.030507 0.000333429 0 0.00031391 0.000183822 0 0 0 0)
(0.0330008 -0.00106153 0 0.000536911 0.000456379 0 0 0 0)
(0.0356799 -0.0107939 0 0.00154508 -0.000937726 0 0 0 0)
(0.0329548 -0.0558981 0 -0.00997136 -0.0150217 0 0 0 0)
(0.102284 -0.149385 0 -0.0918781 -0.0600447 0 0 0 0)
(-3.85808 2.13416e-07 0 -9.38359e-06 4.85602e-06 0 0 0 0)
(4.12015 -1.67935e-05 0 5.30977e-06 1.30286e-05 0 0 0 0)
(0.582663 -4.34994e-06 0 -2.32155e-06 1.643e-05 0 0 0 0)
(0.00631145 2.51399e-05 0 1.25517e-05 -6.6992e-06 0 0 0 0)
(0.0275562 0.00019117 0 5.11399e-05 -8.24113e-05 0 0 0 0)
(0.0309378 0.000444821 0 0.000206422 -0.000414945 0 0 0 0)
(0.0348199 -0.00112155 0 0.000481928 -0.000860662 0 0 0 0)
(0.0280891 -0.0154781 0 0.00202552 0.00176813 0 0 0 0)
(-0.0270304 -0.059107 0 -0.00710884 0.0254113 0 0 0 0)
(-0.0244877 -0.211892 0 -0.0579596 0.116773 0 0 0 0)
(0.1674 0.419447 -2.12748e-17 0.246036 -0.235102 3.19122e-17 5.82981e-17 7.49265e-17 -5.76655e-33)
(0.512787 0.57215 0 0.299838 -0.465477 0 -1.6146e-16 -4.7524e-17 0)
(0.80171 0.983699 0 0.296321 -0.798255 0 -2.62916e-16 -8.53063e-17 0)
(1.49574 1.60117 0 0.342013 -1.45467 0 0 0 0)
(2.79895 1.85778 2.71259e-16 1.1386 -3.52579 -4.06888e-16 -2.29173e-15 -1.52782e-15 -7.35248e-32)
(0.240093 0.159011 0 0.188048 -0.208792 0 1.02757e-16 3.24434e-17 0)
(0.424557 0.165607 0 0.151183 -0.338358 0 1.6146e-16 4.7524e-17 0)
(0.747634 0.418532 0 0.0616331 -0.628506 0 2.62916e-16 8.53063e-17 0)
(1.68336 0.868892 0 -0.0673665 -1.33139 0 0 0 0)
(3.71143 0.580735 0 -0.180122 -3.10163 0 0 0 0)
(0.298222 8.44846e-14 0 5.9145e-13 -0.300586 0 0 0 0)
(0.44793 3.96239e-13 0 2.42816e-13 -0.37528 0 0 0 0)
(0.740195 2.94567e-13 0 2.37922e-13 -0.631336 0 0 0 0)
(1.58684 -2.81286e-13 0 -7.49496e-14 -1.35836 0 0 0 0)
(3.46452 -2.7922e-13 0 4.84019e-15 -3.65512 0 0 0 0)
(0.240093 -0.159011 0 -0.188048 -0.208792 0 1.02757e-16 -3.24434e-17 0)
(0.424557 -0.165607 0 -0.151183 -0.338358 0 1.6146e-16 -4.7524e-17 0)
(0.747634 -0.418532 0 -0.0616331 -0.628506 0 2.62916e-16 -8.53063e-17 0)
(1.68336 -0.868892 0 0.0673665 -1.33139 0 0 0 0)
(3.71143 -0.580735 0 0.180122 -3.10163 0 0 0 0)
(0.1674 -0.419447 2.12748e-17 -0.246036 -0.235102 3.19122e-17 -2.63812e-16 1.39813e-16 -5.76655e-33)
(0.512787 -0.57215 0 -0.299838 -0.465477 0 -1.6146e-16 4.7524e-17 0)
(0.80171 -0.983699 0 -0.296321 -0.798255 0 -2.62916e-16 8.53063e-17 0)
(1.49574 -1.60117 9.66706e-17 -0.342013 -1.45467 1.45006e-16 -9.39256e-16 6.26171e-16 -2.62026e-32)
(2.79895 -1.85778 -2.71259e-16 -1.1386 -3.52579 -4.06888e-16 2.29173e-15 -1.52782e-15 -7.35248e-32)
(4.24519 -0.783325 -1.86265e-17 0.013456 4.48827 -1.67639e-16 2.28444e-15 -1.18609e-16 5.04874e-33)
(2.28765 -0.313935 9.14347e-18 0.538001 2.79472 8.22912e-17 -2.57263e-15 1.9988e-16 2.47834e-33)
(1.34265 0.00366982 0 0.735667 2.23166 0 0 0 0)
(1.05444 0.0813454 -5.46347e-18 0.660968 2.13575 -4.91712e-17 2.392e-15 -1.99244e-16 1.48088e-33)
(0.7708 0.377593 4.46016e-18 0.511122 1.72879 4.01414e-17 -1.13445e-15 1.2605e-16 1.20893e-33)
(4.36581 -0.953007 0 -0.691883 -0.676505 0 -1.14242e-15 -8.28133e-18 0)
(2.57625 -0.201699 0 0.310717 0.991685 0 1.29442e-15 -5.7856e-17 0)
(1.42728 -0.0068005 0 0.458125 1.41002 0 0 0 0)
(1.00537 -0.0562667 0 0.350091 1.37153 0 -1.51008e-15 7.40002e-17 0)
(0.757139 0.143242 0 0.205844 1.42627 0 2.89012e-16 -7.75763e-18 0)
(4.36711 -4.27984e-13 0 -3.94255e-13 0.803062 0 0 0 0)
(2.55352 -2.76145e-14 0 -3.61401e-13 1.85875 0 0 0 0)
(1.32007 8.30269e-13 0 7.22801e-13 1.98119 0 0 0 0)
(0.929792 -3.33891e-12 0 5.24385e-13 1.73694 0 6.08249e-16 5.5292e-29 0)
(0.749848 2.23781e-12 0 -3.4555e-12 2.06068 0 -5.78023e-16 2.14288e-28 0)
(4.36581 0.953007 0 0.691883 -0.676505 0 -1.14242e-15 8.28133e-18 0)
(2.57625 0.201699 0 -0.310717 0.991685 0 1.29442e-15 5.7856e-17 0)
(1.42728 0.0068005 0 -0.458125 1.41002 0 0 0 0)
(1.00537 0.0562667 0 -0.350091 1.37153 0 -1.51008e-15 -7.40002e-17 0)
(0.757139 -0.143242 0 -0.205844 1.42627 0 2.89012e-16 7.75763e-18 0)
(4.24519 0.783325 0 -0.013456 4.48827 0 1.14242e-15 -8.28133e-18 0)
(2.28765 0.313935 -9.14347e-18 -0.538001 2.79472 8.22912e-17 -1.62028e-17 8.41679e-17 2.47834e-33)
(1.34265 -0.00366982 0 -0.735667 2.23166 0 0 0 0)
(1.05444 -0.0813454 5.46347e-18 -0.660968 2.13575 -4.91712e-17 1.99062e-17 -6.43217e-17 1.48088e-33)
(0.7708 -0.377593 -4.46016e-18 -0.511122 1.72879 4.01414e-17 1.13445e-15 1.2605e-16 1.20893e-33)
(0.274806 0.386057 0 0.691029 0.274789 0 0 0 0)
(0.137554 0.0401877 0 0.712171 0.455711 0 0 0 0)
(0.223084 0.00437 0 0.788383 0.608613 0 0 0 0)
(0.0867371 0.197828 0 0.631419 0.357346 0 0 0 0)
(-0.771072 0.187336 0 0.692111 -0.19781 0 0 0 0)
(-1.94199 -0.118845 0 0.704759 -0.093838 0 0 0 0)
(-1.50149 -0.275747 0 0.080777 0.17836 0 0 0 0)
(-0.634825 -0.216473 0 0.236668 0.593724 0 0 0 0)
(-0.864967 -0.19366 0 0.336457 1.03424 0 0 0 0)
(-1.01168 -0.0297114 0 0.447584 1.16461 0 0 0 0)
(-0.87515 0.120543 0 0.397121 0.966224 0 0 0 0)
(-0.67307 0.142635 0 0.26558 0.70583 0 0 0 0)
(-0.583739 0.101761 0 0.155528 0.513758 0 0 0 0)
(-0.655245 0.0705962 0 0.0834217 0.386678 0 0 0 0)
(-0.694836 0.0494447 0 0.0487816 0.284296 0 0 0 0)
(-0.469586 0.026691 0 0.0243762 0.217453 0 0 0 0)
(-0.166684 0.00996261 0 0.00658562 0.190914 0 0 0 0)
(-0.0274568 0.00365532 0 0.00227347 0.182406 0 0 0 0)
(0.00688688 0.00317394 0 0.00332563 0.177351 0 0 0 0)
(0.0212328 0.00331831 0 0.00311148 0.171816 0 0 0 0)
(0.0452225 0.00220052 0 0.00111779 0.16706 0 0 0 0)
(0.0802039 0.000886026 0 0.000450715 0.164492 0 0 0 0)
(0.11142 0.000179685 0 0.000582203 0.163651 0 0 0 0)
(0.128415 4.99082e-05 0 0.00103852 0.163497 0 0 0 0)
(0.133502 0.000155809 0 0.00154354 0.163375 0 0 0 0)
(0.13232 -5.90819e-06 0 0.00200311 0.162963 0 0 0 0)
(0.130249 0.000449047 0 0.00238488 0.163416 0 0 0 0)
(0.127795 7.44405e-05 0 0.00268521 0.161461 0 0 0 0)
(0.125201 4.64162e-05 0 0.0029125 0.163184 0 0 0 0)
(0.123378 -0.000288569 0 0.00314107 0.161352 0 0 0 0)
(0.11749 0.000449715 0 0.00332293 0.164168 0 0 0 0)
(0.108353 -0.000917852 0 0.00320943 0.159971 0 0 0 0)
(0.0980438 -0.000450454 0 0.00311138 0.167128 0 0 0 0)
(0.0826462 -0.000246917 0 0.00240046 0.161537 0 0 0 0)
(-0.0266316 -0.00215403 0 0.00381688 0.168299 0 0 0 0)
(-0.419894 0.000914194 0 0.0047455 0.169009 0 0 0 0)
(-0.811943 0.00781112 0 0.00527683 0.166412 0 0 0 0)
(-0.566631 -0.00964174 0 0.00238197 0.141432 0 0 0 0)
(-0.438892 -0.0113371 0 -0.0104044 0.193255 0 0 0 0)
(-0.327442 0.00504977 0 -0.0207051 0.178038 0 0 0 0)
(0.298872 0.275331 0 0.387922 0.578809 0 0 0 0)
(0.13524 0.0330622 0 0.467813 0.196491 0 0 0 0)
(0.169113 -0.0244749 0 0.540059 0.440664 0 0 0 0)
(-0.00595514 0.107422 0 0.32521 0.181469 0 0 0 0)
(-0.811069 0.151952 0 0.0672333 -0.239369 0 0 0 0)
(-2.00497 -0.0433296 0 -0.00786499 -0.462499 0 0 0 0)
(-1.54768 -0.15588 0 -0.179775 0.169161 0 0 0 0)
(-0.635628 -0.093204 0 -0.103137 0.48538 0 0 0 0)
(-0.825456 -0.0901393 0 -0.0444454 0.913286 0 0 0 0)
(-0.922193 -0.0239911 0 0.110443 1.15109 0 0 0 0)
(-0.837928 0.053314 0 0.12047 1.01542 0 0 0 0)
(-0.693747 0.0712711 0 0.0913358 0.736718 0 0 0 0)
(-0.6225 0.0529397 0 0.0724336 0.525111 0 0 0 0)
(-0.68736 0.0355925 0 0.0592176 0.386916 0 0 0 0)
(-0.710328 0.0241227 0 0.0348141 0.282437 0 0 0 0)
(-0.47433 0.0136302 0 0.0110748 0.21695 0 0 0 0)
(-0.167943 0.00505181 0 0.000802763 0.190686 0 0 0 0)
(-0.02731 0.00176427 0 -0.000394723 0.182703 0 0 0 0)
(0.00727038 0.00160522 0 0.000603986 0.178121 0 0 0 0)
(0.0212381 0.00167917 0 0.00118987 0.171793 0 0 0 0)
(0.0452147 0.00106869 0 0.000395616 0.166715 0 0 0 0)
(0.0804055 0.000428549 0 0.000454831 0.164229 0 0 0 0)
(0.111672 7.80291e-05 0 0.000868947 0.163669 0 0 0 0)
(0.128694 2.16529e-05 0 0.00142356 0.163611 0 0 0 0)
(0.13378 7.77941e-05 0 0.00198418 0.163497 0 0 0 0)
(0.132578 -2.74154e-06 0 0.00250852 0.163075 0 0 0 0)
(0.130484 0.00022533 0 0.00298339 0.163518 0 0 0 0)
(0.128007 3.803e-05 0 0.0034354 0.161532 0 0 0 0)
(0.125401 2.50015e-05 0 0.00386409 0.163262 0 0 0 0)
(0.123569 -0.000143745 0 0.00431959 0.161372 0 0 0 0)
(0.117649 0.000233398 0 0.00479156 0.164254 0 0 0 0)
(0.108485 -0.00045639 0 0.00520511 0.159826 0 0 0 0)
(0.0981105 -0.000216547 0 0.00572524 0.167409 0 0 0 0)
(0.0828999 -7.41597e-05 0 0.00608308 0.161375 0 0 0 0)
(-0.0261393 -0.00107705 0 0.00789072 0.168258 0 0 0 0)
(-0.41931 0.000559654 0 0.0103077 0.168779 0 0 0 0)
(-0.811823 0.00401843 0 0.0137018 0.165115 0 0 0 0)
(-0.568561 -0.00489803 0 0.0161137 0.141929 0 0 0 0)
(-0.441616 -0.00557304 0 0.0127246 0.198258 0 0 0 0)
(-0.328459 0.00267445 0 0.014455 0.1809 0 0 0 0)
(0.366167 4.10633e-12 0 5.06224e-12 0.88092 0 0 0 0)
(0.181812 5.45735e-12 0 -1.81357e-13 0.298658 0 0 0 0)
(0.1816 5.28542e-12 0 -1.19381e-11 0.653617 0 0 0 0)
(-0.0508123 -1.33988e-11 0 -1.0708e-11 0.466923 0 0 0 0)
(-0.867967 1.27565e-11 0 -1.53838e-11 -0.0849086 0 0 0 0)
(-2.01385 -3.47972e-11 0 1.51157e-11 -0.577749 0 0 0 0)
(-1.52921 -6.76051e-11 0 -1.7074e-10 0.212982 0 0 0 0)
(-0.595457 3.19338e-11 0 -2.99307e-10 0.493928 0 0 0 0)
(-0.802834 6.53369e-11 0 -3.17159e-10 0.85376 0 0 0 0)
(-0.963709 1.85816e-11 0 -2.17047e-10 1.11364 0 0 0 0)
(-0.880709 -9.30238e-12 0 -7.44669e-11 1.0187 0 0 0 0)
(-0.687045 2.95493e-12 0 -1.20701e-11 0.747102 0 0 0 0)
(-0.593083 2.25467e-11 0 -4.29797e-11 0.52871 0 0 0 0)
(-0.666188 2.64941e-11 0 -7.10645e-11 0.383142 0 0 0 0)
(-0.708841 2.8207e-12 0 -6.58308e-11 0.284012 0 0 0 0)
(-0.47948 -2.75448e-11 0 -5.85987e-11 0.217298 0 0 0 0)
(-0.170021 -4.11317e-11 0 -2.1844e-11 0.190304 0 0 0 0)
(-0.0275146 -4.28666e-11 0 4.50683e-12 0.182567 0 0 0 0)
(0.00734785 -3.06999e-11 0 2.4876e-11 0.178175 0 0 0 0)
(0.0211721 6.89587e-13 0 3.74888e-11 0.171531 0 0 0 0)
(0.0450087 4.13552e-11 0 5.75408e-11 0.166631 0 0 0 0)
(0.0803416 5.37275e-11 0 7.00528e-11 0.164184 0 0 0 0)
(0.111701 1.3588e-11 0 7.48193e-11 0.163684 0 0 0 0)
(0.12874 -4.70494e-11 0 7.6862e-11 0.163647 0 0 0 0)
(0.133818 -5.69336e-11 0 7.45123e-11 0.163536 0 0 0 0)
(0.13261 -3.99471e-11 0 6.58574e-11 0.163113 0 0 0 0)
(0.130519 -3.71951e-11 0 5.35768e-11 0.163554 0 0 0 0)
(0.128051 2.94097e-11 0 3.94817e-11 0.161563 0 0 0 0)
(0.125458 4.20833e-11 0 3.05242e-11 0.163293 0 0 0 0)
(0.123648 1.37223e-12 0 2.76265e-11 0.161391 0 0 0 0)
(0.117748 5.72986e-11 0 2.30038e-11 0.164281 0 0 0 0)
(0.108625 6.57872e-11 0 1.43065e-11 0.159787 0 0 0 0)
(0.0982992 -1.5284e-11 0 2.57252e-12 0.167419 0 0 0 0)
(0.0832762 -3.36236e-11 0 -2.28027e-11 0.161276 0 0 0 0)
(-0.0254026 2.75579e-11 0 -5.85223e-11 0.167929 0 0 0 0)
(-0.418203 2.34337e-11 0 -1.348e-10 0.16868 0 0 0 0)
(-0.810254 -1.58267e-11 0 -2.25637e-10 0.164081 0 0 0 0)
(-0.566915 -1.69058e-11 0 -2.49721e-10 0.141054 0 0 0 0)
(-0.439375 -2.37061e-11 0 -2.24236e-10 0.197755 0 0 0 0)
(-0.326939 -1.25009e-11 0 -2.10913e-10 0.179368 0 0 0 0)
(0.298872 -0.275331 0 -0.387922 0.578809 0 0 0 0)
(0.13524 -0.0330622 0 -0.467813 0.196491 0 0 0 0)
(0.169113 0.0244749 0 -0.540059 0.440664 0 0 0 0)
(-0.00595514 -0.107422 0 -0.32521 0.181469 0 0 0 0)
(-0.811069 -0.151952 0 -0.0672333 -0.239369 0 0 0 0)
(-2.00497 0.0433296 0 0.00786499 -0.462499 0 0 0 0)
(-1.54768 0.15588 0 0.179775 0.169161 0 0 0 0)
(-0.635628 0.093204 0 0.103137 0.48538 0 0 0 0)
(-0.825456 0.0901393 0 0.0444454 0.913286 0 0 0 0)
(-0.922193 0.0239911 0 -0.110443 1.15109 0 0 0 0)
(-0.837928 -0.053314 0 -0.12047 1.01542 0 0 0 0)
(-0.693747 -0.0712711 0 -0.0913358 0.736718 0 0 0 0)
(-0.6225 -0.0529397 0 -0.0724336 0.525111 0 0 0 0)
(-0.68736 -0.0355925 0 -0.0592176 0.386916 0 0 0 0)
(-0.710328 -0.0241227 0 -0.0348141 0.282437 0 0 0 0)
(-0.47433 -0.0136302 0 -0.0110748 0.21695 0 0 0 0)
(-0.167943 -0.00505181 0 -0.000802764 0.190686 0 0 0 0)
(-0.02731 -0.00176427 0 0.000394723 0.182703 0 0 0 0)
(0.00727038 -0.00160522 0 -0.000603986 0.178121 0 0 0 0)
(0.0212381 -0.00167917 0 -0.00118987 0.171793 0 0 0 0)
(0.0452147 -0.00106869 0 -0.000395616 0.166715 0 0 0 0)
(0.0804055 -0.000428548 0 -0.000454831 0.164229 0 0 0 0)
(0.111672 -7.8029e-05 0 -0.000868947 0.163669 0 0 0 0)
(0.128694 -2.1653e-05 0 -0.00142356 0.163611 0 0 0 0)
(0.13378 -7.77942e-05 0 -0.00198417 0.163497 0 0 0 0)
(0.132578 2.74146e-06 0 -0.00250852 0.163075 0 0 0 0)
(0.130484 -0.00022533 0 -0.00298339 0.163518 0 0 0 0)
(0.128007 -3.803e-05 0 -0.0034354 0.161532 0 0 0 0)
(0.125401 -2.50014e-05 0 -0.00386409 0.163262 0 0 0 0)
(0.123569 0.000143745 0 -0.00431959 0.161372 0 0 0 0)
(0.117649 -0.000233398 0 -0.00479156 0.164254 0 0 0 0)
(0.108485 0.00045639 0 -0.00520511 0.159826 0 0 0 0)
(0.0981105 0.000216547 0 -0.00572524 0.167409 0 0 0 0)
(0.0828999 7.41597e-05 0 -0.00608308 0.161375 0 0 0 0)
(-0.0261393 0.00107705 0 -0.00789072 0.168258 0 0 0 0)
(-0.41931 -0.000559654 0 -0.0103077 0.168779 0 0 0 0)
(-0.811823 -0.00401843 0 -0.0137018 0.165115 0 0 0 0)
(-0.568561 0.00489803 0 -0.0161137 0.141929 0 0 0 0)
(-0.441616 0.00557304 0 -0.0127246 0.198258 0 0 0 0)
(-0.328459 -0.00267445 0 -0.014455 0.1809 0 0 0 0)
(0.274806 -0.386057 0 -0.691029 0.274789 0 0 0 0)
(0.137554 -0.0401877 0 -0.712171 0.455711 0 0 0 0)
(0.223084 -0.00437 0 -0.788383 0.608613 0 0 0 0)
(0.0867371 -0.197828 0 -0.631419 0.357346 0 0 0 0)
(-0.771072 -0.187336 0 -0.692111 -0.19781 0 0 0 0)
(-1.94199 0.118845 0 -0.704759 -0.093838 0 0 0 0)
(-1.50149 0.275747 0 -0.080777 0.17836 0 0 0 0)
(-0.634825 0.216473 0 -0.236668 0.593724 0 0 0 0)
(-0.864967 0.19366 0 -0.336457 1.03424 0 0 0 0)
(-1.01168 0.0297114 0 -0.447584 1.16461 0 0 0 0)
(-0.87515 -0.120543 0 -0.397121 0.966224 0 0 0 0)
(-0.67307 -0.142635 0 -0.26558 0.70583 0 0 0 0)
(-0.583739 -0.101761 0 -0.155528 0.513758 0 0 0 0)
(-0.655245 -0.0705962 0 -0.0834217 0.386678 0 0 0 0)
(-0.694836 -0.0494447 0 -0.0487816 0.284296 0 0 0 0)
(-0.469586 -0.026691 0 -0.0243762 0.217453 0 0 0 0)
(-0.166684 -0.00996261 0 -0.00658562 0.190914 0 0 0 0)
(-0.0274568 -0.00365532 0 -0.00227348 0.182406 0 0 0 0)
(0.00688688 -0.00317394 0 -0.00332563 0.177351 0 0 0 0)
(0.0212328 -0.00331831 0 -0.00311148 0.171816 0 0 0 0)
(0.0452225 -0.00220052 0 -0.00111779 0.16706 0 0 0 0)
(0.0802039 -0.000886026 0 -0.000450715 0.164492 0 0 0 0)
(0.11142 -0.000179685 0 -0.000582203 0.163651 0 0 0 0)
(0.128415 -4.99083e-05 0 -0.00103852 0.163497 0 0 0 0)
(0.133502 -0.000155809 0 -0.00154354 0.163375 0 0 0 0)
(0.13232 5.90811e-06 0 -0.00200311 0.162963 0 0 0 0)
(0.130249 -0.000449047 0 -0.00238488 0.163416 0 0 0 0)
(0.127795 -7.44405e-05 0 -0.00268521 0.161461 0 0 0 0)
(0.125201 -4.64161e-05 0 -0.0029125 0.163184 0 0 0 0)
(0.123378 0.000288569 0 -0.00314107 0.161352 0 0 0 0)
(0.11749 -0.000449715 0 -0.00332293 0.164168 0 0 0 0)
(0.108353 0.000917853 0 -0.00320943 0.159971 0 0 0 0)
(0.0980438 0.000450454 0 -0.00311138 0.167128 0 0 0 0)
(0.0826462 0.000246916 0 -0.00240046 0.161537 0 0 0 0)
(-0.0266316 0.00215403 0 -0.00381688 0.168299 0 0 0 0)
(-0.419894 -0.000914194 0 -0.0047455 0.169009 0 0 0 0)
(-0.811943 -0.00781112 0 -0.00527683 0.166412 0 0 0 0)
(-0.566631 0.00964174 0 -0.00238197 0.141432 0 0 0 0)
(-0.438892 0.0113371 0 0.0104044 0.193255 0 0 0 0)
(-0.327442 -0.00504977 0 0.0207051 0.178038 0 0 0 0)
(0.0145296 0.0594674 0 -0.521896 0.657163 0 0 0 0)
(0.0714963 0.184576 0 -0.537924 0.832462 0 0 0 0)
(0.157363 -0.00387517 0 -0.660918 0.896612 0 0 0 0)
(-0.0527416 -0.508737 0 -0.975156 0.781595 0 0 0 0)
(-0.903319 -0.394055 0 -1.31395 0.369114 0 0 0 0)
(-1.69432 0.191975 0 -1.29117 0.388021 0 0 0 0)
(-1.30747 0.448574 0 -0.58029 0.449286 0 0 0 0)
(-0.796938 0.487543 0 -0.830224 0.848956 0 0 0 0)
(-0.912075 0.328544 0 -1.00069 1.08792 0 0 0 0)
(-0.856771 -0.0252854 0 -0.825861 1.00194 0 0 0 0)
(-0.680725 -0.263359 0 -0.494187 0.791189 0 0 0 0)
(-0.566109 -0.272576 0 -0.262553 0.607787 0 0 0 0)
(-0.553054 -0.196686 0 -0.150866 0.472424 0 0 0 0)
(-0.657534 -0.139054 0 -0.118477 0.367491 0 0 0 0)
(-0.691202 -0.100994 0 -0.104786 0.27613 0 0 0 0)
(-0.453348 -0.0571051 0 -0.0571333 0.21289 0 0 0 0)
(-0.155535 -0.0213573 0 -0.018307 0.189307 0 0 0 0)
(-0.0250954 -0.00808513 0 -0.0083415 0.181044 0 0 0 0)
(0.00718813 -0.00643421 0 -0.00829766 0.175727 0 0 0 0)
(0.0226291 -0.00623921 0 -0.0074216 0.170865 0 0 0 0)
(0.0468747 -0.00435432 0 -0.00362788 0.167117 0 0 0 0)
(0.0809746 -0.00203819 0 -0.000751842 0.164637 0 0 0 0)
(0.111596 -0.000584802 0 0.000279268 0.163538 0 0 0 0)
(0.128413 -0.000162269 0 0.000340922 0.163243 0 0 0 0)
(0.133495 -0.000322598 0 0.000233335 0.163086 0 0 0 0)
(0.132348 2.49826e-05 0 0.000202448 0.162675 0 0 0 0)
(0.130326 -0.000908794 0 0.000297274 0.163142 0 0 0 0)
(0.127922 -0.000141132 0 0.000509479 0.161231 0 0 0 0)
(0.125347 -6.83047e-05 0 0.000823635 0.162928 0 0 0 0)
(0.123533 0.000593011 0 0.00112401 0.16118 0 0 0 0)
(0.117789 -0.000849426 0 0.00147191 0.163859 0 0 0 0)
(0.10877 0.00177965 0 0.00236404 0.159965 0 0 0 0)
(0.0986951 0.000928289 0 0.0031646 0.166338 0 0 0 0)
(0.0827507 0.000609019 0 0.00488447 0.161418 0 0 0 0)
(-0.027041 0.00451887 0 0.00371726 0.167402 0 0 0 0)
(-0.419551 -0.0013331 0 0.00302987 0.168865 0 0 0 0)
(-0.810201 -0.0169315 0 0.00400475 0.166267 0 0 0 0)
(-0.560957 0.0162508 0 0.00597321 0.141179 0 0 0 0)
(-0.430283 0.0218702 0 0.01646 0.1848 0 0 0 0)
(-0.323173 -0.00947306 0 0.0228373 0.173114 0 0 0 0)
(0.0460789 -0.0338225 0 -0.652899 0.934358 0 0 0 0)
(0.0390103 0.0700285 0 -0.648047 0.822645 0 0 0 0)
(-0.163007 -0.0536532 0 -0.83103 0.7304 0 0 0 0)
(-0.46776 -0.539424 0 -1.20049 0.687374 0 0 0 0)
(-1.00468 -0.455748 0 -1.46313 0.826676 0 0 0 0)
(-1.36782 0.156887 0 -1.38238 0.816318 0 0 0 0)
(-1.16135 0.627244 0 -1.07783 0.920567 0 0 0 0)
(-0.953009 0.686528 0 -1.22355 1.07365 0 0 0 0)
(-0.835501 0.268755 0 -1.18525 0.924929 0 0 0 0)
(-0.606669 -0.22674 0 -0.884607 0.696162 0 0 0 0)
(-0.436584 -0.423784 0 -0.591772 0.549283 0 0 0 0)
(-0.39959 -0.380129 0 -0.386019 0.457878 0 0 0 0)
(-0.461357 -0.282417 0 -0.27198 0.394664 0 0 0 0)
(-0.609613 -0.223043 0 -0.222848 0.321642 0 0 0 0)
(-0.637672 -0.170781 0 -0.176246 0.244539 0 0 0 0)
(-0.394958 -0.0940477 0 -0.0839314 0.200468 0 0 0 0)
(-0.125645 -0.0345407 0 -0.0260138 0.186111 0 0 0 0)
(-0.0190777 -0.0143659 0 -0.0127363 0.179143 0 0 0 0)
(0.00761179 -0.0112348 0 -0.0125855 0.173682 0 0 0 0)
(0.024984 -0.0100487 0 -0.0112716 0.169161 0 0 0 0)
(0.0507638 -0.00704639 0 -0.00656038 0.16615 0 0 0 0)
(0.0835558 -0.0037175 0 -0.00213766 0.163995 0 0 0 0)
(0.112378 -0.0013062 0 -0.00014767 0.162829 0 0 0 0)
(0.128372 -0.000425462 0 0.000108815 0.16239 0 0 0 0)
(0.133372 -0.000613286 0 -9.87364e-05 0.162169 0 0 0 0)
(0.132366 5.01997e-05 0 -0.000237341 0.161755 0 0 0 0)
(0.130504 -0.00159401 0 -0.000173427 0.162246 0 0 0 0)
(0.128234 -0.00024507 0 0.000103301 0.160431 0 0 0 0)
(0.125715 -8.44127e-05 0 0.000496953 0.162086 0 0 0 0)
(0.12392 0.0010223 0 0.00087586 0.160505 0 0 0 0)
(0.118525 -0.00140568 0 0.00127787 0.162961 0 0 0 0)
(0.10976 0.00284504 0 0.00243413 0.159613 0 0 0 0)
(0.100123 0.00159439 0 0.00346016 0.164811 0 0 0 0)
(0.0831227 0.00107814 0 0.00558103 0.161044 0 0 0 0)
(-0.0281992 0.00806174 0 0.00427126 0.165731 0 0 0 0)
(-0.419801 -0.00178403 0 0.00236056 0.168075 0 0 0 0)
(-0.810041 -0.0295995 0 0.00256532 0.165613 0 0 0 0)
(-0.557671 0.0239576 0 0.00245875 0.144856 0 0 0 0)
(-0.427258 0.0364626 0 0.0106157 0.180222 0 0 0 0)
(-0.323586 -0.0139392 0 0.00990057 0.172242 0 0 0 0)
(0.0192053 -0.048183 0 -1.1388 0.616497 0 0 0 0)
(-0.100158 -0.0119652 0 -1.27383 0.624846 0 0 0 0)
(-0.374992 -0.134227 0 -1.44049 0.467685 0 0 0 0)
(-0.661853 -0.415962 0 -1.53263 0.496749 0 0 0 0)
(-1.07859 -0.2698 0 -1.7144 0.807975 0 0 0 0)
(-1.32303 0.282452 0 -1.70816 1.08061 0 0 0 0)
(-1.15441 0.69655 0 -1.62241 1.23118 0 0 0 0)
(-0.900448 0.491746 0 -1.49989 0.991335 0 0 0 0)
(-0.585457 -0.0352185 0 -1.18717 0.626335 0 0 0 0)
(-0.284877 -0.387272 0 -0.806534 0.430029 0 0 0 0)
(-0.200268 -0.492978 0 -0.557422 0.345205 0 0 0 0)
(-0.257946 -0.421573 0 -0.400304 0.329248 0 0 0 0)
(-0.395816 -0.327969 0 -0.322737 0.307864 0 0 0 0)
(-0.565281 -0.28372 0 -0.291369 0.253638 0 0 0 0)
(-0.557337 -0.217762 0 -0.222878 0.202766 0 0 0 0)
(-0.308579 -0.113408 0 -0.0957351 0.187579 0 0 0 0)
(-0.0869289 -0.0419071 0 -0.030581 0.18261 0 0 0 0)
(-0.0121554 -0.0200622 0 -0.0176976 0.176851 0 0 0 0)
(0.00859953 -0.0160525 0 -0.0172797 0.170958 0 0 0 0)
(0.0284352 -0.0134968 0 -0.0144781 0.166788 0 0 0 0)
(0.0556766 -0.00933236 0 -0.00887783 0.164279 0 0 0 0)
(0.0871541 -0.0052384 0 -0.00355718 0.162489 0 0 0 0)
(0.113761 -0.00213183 0 -0.000858372 0.161376 0 0 0 0)
(0.12846 -0.000798896 0 -0.000330053 0.160853 0 0 0 0)
(0.133162 -0.000934942 0 -0.000564264 0.160587 0 0 0 0)
(0.132276 9.97493e-05 0 -0.000808952 0.160181 0 0 0 0)
(0.130655 -0.00218397 0 -0.000833176 0.160724 0 0 0 0)
(0.128568 -0.00029557 0 -0.000506548 0.159097 0 0 0 0)
(0.126091 2.95809e-06 0 -0.000127055 0.160705 0 0 0 0)
(0.124285 0.00143616 0 0.000247168 0.159415 0 0 0 0)
(0.11929 -0.00170961 0 0.00057646 0.161605 0 0 0 0)
(0.110873 0.00356256 0 0.0017958 0.159086 0 0 0 0)
(0.101728 0.00230741 0 0.00288077 0.162864 0 0 0 0)
(0.0835323 0.00149521 0 0.00513761 0.160808 0 0 0 0)
(-0.0301444 0.0112946 0 0.00388639 0.16365 0 0 0 0)
(-0.421195 -0.00144643 0 0.000392498 0.16701 0 0 0 0)
(-0.810107 -0.0393065 0 -7.36999e-05 0.165535 0 0 0 0)
(-0.553199 0.0303284 0 0.000607009 0.149825 0 0 0 0)
(-0.423112 0.0482604 0 0.0106099 0.17721 0 0 0 0)
(-0.323863 -0.0171631 0 0.0109453 0.172502 0 0 0 0)
(-0.0840331 -0.0257778 0 -1.78291 0.475531 0 0 0 0)
(-0.251711 -0.0733726 0 -1.98371 0.419413 0 0 0 0)
(-0.412397 -0.177091 0 -2.07587 0.270397 0 0 0 0)
(-0.7317 -0.211508 0 -2.21176 0.451325 0 0 0 0)
(-1.17383 0.106883 0 -2.35725 0.923431 0 0 0 0)
(-1.27918 0.564707 0 -2.21739 1.26073 0 0 0 0)
(-0.96066 0.541214 0 -1.84049 1.08826 0 0 0 0)
(-0.533596 0.103673 0 -1.40082 0.61749 0 0 0 0)
(-0.167353 -0.272139 0 -0.938596 0.323753 0 0 0 0)
(0.000181452 -0.497647 0 -0.639558 0.187125 0 0 0 0)
(-0.0451262 -0.5209 0 -0.484041 0.188902 0 0 0 0)
(-0.173439 -0.416112 0 -0.399078 0.228225 0 0 0 0)
(-0.356383 -0.355278 0 -0.361006 0.218337 0 0 0 0)
(-0.513385 -0.32432 0 -0.338791 0.177514 0 0 0 0)
(-0.449152 -0.234437 0 -0.234683 0.163294 0 0 0 0)
(-0.209654 -0.113471 0 -0.0932372 0.176637 0 0 0 0)
(-0.0504452 -0.044879 0 -0.0352747 0.178267 0 0 0 0)
(-0.00626004 -0.0255945 0 -0.0250421 0.172996 0 0 0 0)
(0.0107142 -0.0209313 0 -0.0227693 0.166907 0 0 0 0)
(0.0330803 -0.0164844 0 -0.0176845 0.163411 0 0 0 0)
(0.0612876 -0.0111891 0 -0.0108356 0.161822 0 0 0 0)
(0.0912836 -0.00651519 0 -0.00479979 0.16021 0 0 0 0)
(0.115488 -0.00288341 0 -0.00152426 0.159259 0 0 0 0)
(0.128655 -0.00118574 0 -0.000631814 0.158752 0 0 0 0)
(0.132911 -0.00126028 0 -0.000679612 0.15849 0 0 0 0)
(0.132107 0.000182646 0 -0.000796923 0.158109 0 0 0 0)
(0.130796 -0.00263902 0 -0.000722267 0.15872 0 0 0 0)
(0.128914 -0.000263909 0 -0.000112392 0.157335 0 0 0 0)
(0.126441 0.000222255 0 0.00038433 0.158884 0 0 0 0)
(0.124598 0.00189049 0 0.000926526 0.157923 0 0 0 0)
(0.120017 -0.00172255 0 0.00136156 0.159874 0 0 0 0)
(0.111981 0.00405771 0 0.0027599 0.158173 0 0 0 0)
(0.103344 0.00325366 0 0.0040676 0.160813 0 0 0 0)
(0.0840918 0.00183565 0 0.00653773 0.15991 0 0 0 0)
(-0.0327718 0.0140383 0 0.0058634 0.161185 0 0 0 0)
(-0.423617 3.25287e-05 0 0.00181181 0.165262 0 0 0 0)
(-0.809834 -0.0461596 0 0.00226507 0.164626 0 0 0 0)
(-0.547375 0.0352078 0 0.00507784 0.152978 0 0 0 0)
(-0.417296 0.0583151 0 0.0168191 0.172524 0 0 0 0)
(-0.323263 -0.0184757 0 0.0206193 0.171081 0 0 0 0)
(-0.174289 -0.102261 0 -2.32842 0.371294 0 0 0 0)
(-0.382464 -0.209641 0 -2.57227 0.355946 0 0 0 0)
(-0.594749 -0.103475 0 -2.73927 0.464831 0 0 0 0)
(-0.933 0.213325 0 -2.85862 0.859848 0 0 0 0)
(-1.08402 0.510175 0 -2.67618 1.17848 0 0 0 0)
(-0.825062 0.441285 0 -2.10721 1.03011 0 0 0 0)
(-0.367538 0.0766975 0 -1.47266 0.550524 0 0 0 0)
(-0.0313497 -0.244958 0 -0.95459 0.199068 0 0 0 0)
(0.148119 -0.449934 0 -0.633717 0.0331366 0 0 0 0)
(0.153149 -0.517219 0 -0.496813 0.0213442 0 0 0 0)
(0.0314677 -0.453373 0 -0.42715 0.105628 0 0 0 0)
(-0.139385 -0.393208 0 -0.396351 0.148761 0 0 0 0)
(-0.337721 -0.376836 0 -0.390194 0.135307 0 0 0 0)
(-0.443552 -0.336762 0 -0.354345 0.118772 0 0 0 0)
(-0.320712 -0.218607 0 -0.20848 0.144935 0 0 0 0)
(-0.116421 -0.0989796 0 -0.0788109 0.171634 0 0 0 0)
(-0.0212136 -0.0454156 0 -0.0372013 0.174258 0 0 0 0)
(-0.000104692 -0.0310092 0 -0.0300709 0.168281 0 0 0 0)
(0.0156895 -0.0252888 0 -0.0260424 0.162466 0 0 0 0)
(0.0399349 -0.0183974 0 -0.0192278 0.159838 0 0 0 0)
(0.0680928 -0.0124173 0 -0.0116824 0.158566 0 0 0 0)
(0.0961268 -0.00770807 0 -0.00548799 0.157369 0 0 0 0)
(0.117777 -0.00353686 0 -0.0021931 0.156591 0 0 0 0)
(0.129274 -0.00153968 0 -0.00132524 0.156133 0 0 0 0)
(0.133003 -0.00155414 0 -0.00145946 0.15591 0 0 0 0)
(0.132235 0.000321486 0 -0.0016793 0.15558 0 0 0 0)
(0.131314 -0.00293051 0 -0.00178356 0.156296 0 0 0 0)
(0.129635 -0.000137657 0 -0.00112055 0.155192 0 0 0 0)
(0.127093 0.000570512 0 -0.000865871 0.156695 0 0 0 0)
(0.125227 0.00239028 0 -0.000455635 0.156077 0 0 0 0)
(0.121057 -0.00146871 0 -0.000228133 0.157825 0 0 0 0)
(0.113481 0.00446706 0 0.000948927 0.156883 0 0 0 0)
(0.105368 0.00398096 0 0.00203954 0.158696 0 0 0 0)
(0.0852628 0.00185345 0 0.00406696 0.158354 0 0 0 0)
(-0.0346985 0.0164514 0 0.00341656 0.158502 0 0 0 0)
(-0.424663 0.00186941 0 -0.00141804 0.162791 0 0 0 0)
(-0.806959 -0.0511434 0 -0.00202479 0.163146 0 0 0 0)
(-0.539174 0.0379395 0 0.000956551 0.154403 0 0 0 0)
(-0.408136 0.0657049 0 0.0118488 0.168722 0 0 0 0)
(-0.320201 -0.0185538 0 0.0152246 0.170161 0 0 0 0)
(-0.319012 -0.0405676 0 -2.7994 0.341483 0 0 0 0)
(-0.64762 0.0167637 0 -2.84181 0.530292 0 0 0 0)
(-0.688339 0.308487 0 -2.7986 0.803822 0 0 0 0)
(-0.670906 0.476185 0 -2.52392 0.943933 0 0 0 0)
(-0.449747 0.270956 0 -1.95714 0.714504 0 0 0 0)
(-0.119423 -0.0404096 0 -1.29011 0.3056 0 0 0 0)
(0.150047 -0.259611 0 -0.827872 0.0134347 0 0 0 0)
(0.274842 -0.3949 0 -0.555094 -0.0962876 0 0 0 0)
(0.273778 -0.4434 0 -0.441458 -0.102886 0 0 0 0)
(0.199236 -0.427792 0 -0.404599 -0.0143598 0 0 0 0)
(0.051683 -0.398117 0 -0.390635 0.0534403 0 0 0 0)
(-0.137827 -0.387512 0 -0.398984 0.0722022 0 0 0 0)
(-0.315905 -0.384177 0 -0.404944 0.0626138 0 0 0 0)
(-0.338279 -0.315042 0 -0.328746 0.0843014 0 0 0 0)
(-0.183637 -0.183498 0 -0.1667 0.14044 0 0 0 0)
(-0.0446031 -0.0852142 0 -0.070735 0.167109 0 0 0 0)
(-0.00347763 -0.0481096 0 -0.0450218 0.167676 0 0 0 0)
(0.00449302 -0.0369577 0 -0.0381658 0.161591 0 0 0 0)
(0.0211631 -0.029068 0 -0.0309202 0.157141 0 0 0 0)
(0.0469182 -0.0202419 0 -0.0217293 0.155955 0 0 0 0)
(0.0745277 -0.0135684 0 -0.0131264 0.154909 0 0 0 0)
(0.100428 -0.00841901 0 -0.00625818 0.154176 0 0 0 0)
(0.119499 -0.0040744 0 -0.00241824 0.153544 0 0 0 0)
(0.129362 -0.00184218 0 -0.000973492 0.15314 0 0 0 0)
(0.13257 -0.00179246 0 -0.000547173 0.152981 0 0 0 0)
(0.131795 0.000555184 0 -0.000216731 0.152727 0 0 0 0)
(0.131334 -0.00301332 0 0.000279267 0.153537 0 0 0 0)
(0.129799 0.000120045 0 0.00123235 0.152673 0 0 0 0)
(0.127082 0.00107504 0 0.0018972 0.1541 0 0 0 0)
(0.125212 0.00297945 0 0.00267828 0.153784 0 0 0 0)
(0.121371 -0.000945753 0 0.00315487 0.155335 0 0 0 0)
(0.114166 0.0048973 0 0.00445173 0.154987 0 0 0 0)
(0.106348 0.00467095 0 0.00555063 0.156273 0 0 0 0)
(0.0854187 0.00164907 0 0.00721812 0.156339 0 0 0 0)