/*--------------------------------*- C++ -*----------------------------------*\
| =========                 |                                                 |
| \\      /  F ield         | OpenFOAM: The Open Source CFD Toolbox           |
|  \\    /   O peration     | Version:  v1912                                 |
|   \\  /    A nd           | Website:  www.openfoam.com                      |
|    \\/     M anipulation  |                                                 |
\*---------------------------------------------------------------------------*/
FoamFile
{
    version     2.0;
    format      ascii;
    class       volVectorField;
    location    "6.82";
    object      grad(rho);
}
// * * * * * * * * * * * * * * * * * * * * * * * * * * * * * * * * * * * * * //

dimensions      [1 -4 0 0 0 0 0];


internalField   nonuniform List<vector> 
1900
(
(84870.8 -0.0249034 0)
(-90374.7 -0.112076 0)
(-4232.65 0.212612 0)
(-826.411 0.356863 0)
(-1447.47 1.05274 0)
(-1419.99 1.44716 0)
(-988.869 5.16697 0)
(-575.904 -4.34182 0)
(-342.326 28.3686 0)
(688.844 -35.7089 0)
(84870.6 0.0152648 0)
(-90374.5 -0.107205 0)
(-4232.18 0.432281 0)
(-825.57 0.787294 0)
(-1446.38 1.98081 0)
(-1415.87 1.84415 0)
(-994.658 3.75845 0)
(-552.702 -14.8594 0)
(-373.693 -13.7679 0)
(-262.956 -95.0118 0)
(84870.7 1.15818e-08 0)
(-90374.3 1.59872e-10 0)
(-4231.76 1.26832e-08 0)
(-824.862 1.01252e-08 0)
(-1446.42 6.11067e-09 0)
(-1418.21 9.05942e-10 0)
(-1005.57 -2.71783e-09 0)
(-593.43 3.17968e-09 0)
(-422.478 3.48166e-09 0)
(-408.704 -6.57252e-10 0)
(84870.6 -0.0152648 0)
(-90374.5 0.107205 0)
(-4232.18 -0.432281 0)
(-825.57 -0.787294 0)
(-1446.38 -1.98081 0)
(-1415.87 -1.84415 0)
(-994.658 -3.75845 0)
(-552.702 14.8594 0)
(-373.693 13.7679 0)
(-262.956 95.0118 0)
(84870.8 0.0249034 0)
(-90374.7 0.112076 0)
(-4232.65 -0.212612 0)
(-826.411 -0.356863 0)
(-1447.47 -1.05274 0)
(-1419.99 -1.44716 0)
(-988.869 -5.16697 0)
(-575.904 4.34182 0)
(-342.326 -28.3686 0)
(688.844 35.7089 0)
(-196.279 -802.356 1.24292e-11)
(-2324.59 -585.33 -1.46976e-11)
(-3580.91 -582.252 -1.84368e-11)
(-3867.9 -586.427 0)
(-25634.2 -7287.48 -7.62425e-11)
(-649.191 -977.411 1.22842e-11)
(-1637.31 -706.939 1.46976e-11)
(-3261.96 -633.866 1.84368e-11)
(-6379.9 -144.128 0)
(-24123.8 -6048.23 0)
(-974.715 -4.55352e-09 0)
(-1637.57 1.9088e-09 0)
(-3033.44 7.77156e-09 0)
(-6028.38 1.59468e-08 0)
(-26307.9 2.34733e-08 0)
(-649.191 977.411 1.22842e-11)
(-1637.31 706.939 1.46976e-11)
(-3261.96 633.866 1.84368e-11)
(-6379.9 144.128 0)
(-24123.8 6048.23 0)
(-196.279 802.356 -3.69977e-11)
(-2324.59 585.33 -1.46976e-11)
(-3580.91 582.252 -1.84368e-11)
(-3867.9 586.427 -4.89984e-11)
(-25634.2 7287.48 7.62425e-11)
(-43675.6 14625.2 1.75951e-11)
(-15531.4 6373.32 -1.00466e-11)
(-7809.12 3032.53 0)
(-5948.96 2170.55 5.01731e-12)
(-2966.14 1915.87 -1.77629e-12)
(-39201.4 18943.7 -9.01779e-12)
(-18068.3 5533.57 5.11926e-12)
(-8829.6 1790.44 0)
(-6163.25 1297.53 -3.18645e-12)
(-4250.37 1010.78 4.66109e-13)
(-40744 7.76035e-09 0)
(-19923.9 5.23798e-09 0)
(-9135.25 -2.82901e-09 0)
(-6300.81 4.12161e-09 1.29021e-12)
(-4297.37 9.85566e-09 -9.32218e-13)
(-39201.4 -18943.7 -9.01779e-12)
(-18068.3 -5533.57 5.11926e-12)
(-8829.6 -1790.44 0)
(-6163.25 -1297.53 -3.18645e-12)
(-4250.37 -1010.78 4.66109e-13)
(-43675.6 -14625.2 9.01779e-12)
(-15531.4 -6373.32 -1.91944e-13)
(-7809.12 -3032.53 0)
(-5948.96 -2170.55 6.537e-14)
(-2966.14 -1915.87 1.77629e-12)
(-457.101 -4758.97 0)
(-1049.54 -3735.79 0)
(-1644.3 -2930.57 0)
(-867.396 -1678.46 0)
(1999.48 -1817.69 0)
(4936.62 -1188.46 0)
(3496.14 260.653 0)
(727.775 184.416 0)
(421.538 165.085 0)
(-173.778 141.525 0)
(-1202.77 425.782 0)
(-1810.42 483.607 0)
(-2084.65 329.099 0)
(-2444.72 221.108 0)
(-2438.53 151.507 0)
(-1649.25 69.0484 0)
(-793.04 16.6685 0)
(-436.944 5.09059 0)
(-348.594 5.72787 0)
(-310.242 7.95576 0)
(-253.625 2.34616 0)
(-171.18 -1.52881 0)
(-95.2132 -2.79944 0)
(-47.1714 -2.75349 0)
(-22.9457 -2.4081 0)
(-11.1988 -2.12527 0)
(-1.43093 -1.99804 0)
(9.74727 -1.89246 0)
(21.1583 -1.7769 0)
(32.5251 -1.63616 0)
(54.6707 -1.63521 0)
(80.6515 -0.802697 0)
(109.871 -0.79388 0)
(166.069 0.673838 0)
(390.592 -1.39253 0)
(1362.91 -3.32019 0)
(2504.02 -6.36089 0)
(2413.05 11.5826 0)
(905.877 7.44369 0)
(1844 3.20569 0)
(-1665.52 -2049.26 0)
(-921.054 -1860.89 0)
(-1352.59 -1499.36 0)
(-707.259 -825.803 0)
(2066.2 -952.685 0)
(5051.35 -885.472 0)
(3478.21 -212.33 0)
(735.903 -480.59 0)
(498.493 -198.396 0)
(-73.659 -39.4393 0)
(-1073.36 181.99 0)
(-1800.52 199.012 0)
(-2138.77 128.594 0)
(-2484.88 98.591 0)
(-2463.08 75.6491 0)
(-1663.07 31.233 0)
(-798.092 6.45542 0)
(-437.756 2.76956 0)
(-348.401 2.36598 0)
(-310.543 3.2482 0)
(-254.51 0.837128 0)
(-171.593 -0.742597 0)
(-95.3009 -1.20761 0)
(-47.1313 -1.15674 0)
(-22.8878 -1.00407 0)
(-11.162 -0.891459 0)
(-1.41158 -0.852452 0)
(9.76485 -0.828141 0)
(21.1804 -0.795336 0)
(32.5329 -0.752625 0)
(54.7475 -0.783915 0)
(80.7115 -0.429514 0)
(110 -0.495689 0)
(165.971 0.186357 0)
(390.123 -1.07333 0)
(1362.25 -2.09949 0)
(2505.28 -3.98862 0)
(2413.95 4.33683 0)
(904.685 1.0881 0)
(1844.13 1.07572 0)
(-1467.98 -2.57975e-08 0)
(-889.565 -5.7667e-08 0)
(-1343.19 -3.39769e-08 0)
(-708.363 1.40251e-08 0)
(1982.12 3.53011e-08 0)
(5152 2.59615e-07 0)
(3613.92 7.92901e-09 0)
(731.829 -5.2564e-08 0)
(549.873 1.3623e-07 0)
(-63.1202 -1.73599e-08 0)
(-1133.4 -2.00195e-07 0)
(-1825.95 -9.48252e-08 0)
(-2113.87 -3.37831e-08 0)
(-2460.12 -1.57934e-08 0)
(-2458.13 -6.18657e-08 0)
(-1669.37 -6.93425e-08 0)
(-801.321 -7.28306e-09 0)
(-438.133 6.03154e-09 0)
(-348.455 -5.66819e-09 0)
(-310.687 -1.51556e-08 0)
(-254.786 -6.93587e-09 0)
(-171.775 2.90677e-09 0)
(-95.3337 4.1381e-09 0)
(-47.1122 8.23584e-10 0)
(-22.8685 -2.4223e-10 0)
(-11.1547 6.98431e-10 0)
(-1.41251 3.8878e-09 0)
(9.76389 6.67345e-09 0)
(21.1803 5.50671e-09 0)
(32.5285 3.2903e-09 0)
(54.7647 -4.15425e-09 0)
(80.7353 -2.83006e-09 0)
(110.05 1.01172e-08 0)
(165.901 -1.21519e-08 0)
(389.927 6.24955e-09 0)
(1362.06 5.07069e-09 0)
(2505.89 5.18696e-08 0)
(2414.53 -7.30729e-09 0)
(904.928 3.28465e-08 0)
(1841.92 1.22431e-07 0)
(-1665.52 2049.26 0)
(-921.054 1860.89 0)
(-1352.59 1499.36 0)
(-707.259 825.803 0)
(2066.2 952.685 0)
(5051.35 885.472 0)
(3478.21 212.33 0)
(735.903 480.59 0)
(498.493 198.396 0)
(-73.659 39.4393 0)
(-1073.36 -181.99 0)
(-1800.52 -199.012 0)
(-2138.77 -128.594 0)
(-2484.88 -98.591 0)
(-2463.08 -75.6491 0)
(-1663.07 -31.233 0)
(-798.092 -6.45542 0)
(-437.756 -2.76956 0)
(-348.401 -2.36598 0)
(-310.543 -3.2482 0)
(-254.51 -0.837128 0)
(-171.593 0.742597 0)
(-95.3009 1.20761 0)
(-47.1313 1.15674 0)
(-22.8878 1.00407 0)
(-11.162 0.891459 0)
(-1.41158 0.852452 0)
(9.76485 0.828141 0)
(21.1804 0.795336 0)
(32.5329 0.752625 0)
(54.7475 0.783915 0)
(80.7115 0.429514 0)
(110 0.495689 0)
(165.971 -0.186357 0)
(390.123 1.07333 0)
(1362.25 2.09949 0)
(2505.28 3.98862 0)
(2413.95 -4.33683 0)
(904.685 -1.0881 0)
(1844.13 -1.07572 0)
(-457.101 4758.97 0)
(-1049.54 3735.79 0)
(-1644.3 2930.57 0)
(-867.396 1678.46 0)
(1999.48 1817.69 0)
(4936.62 1188.46 0)
(3496.14 -260.653 0)
(727.775 -184.416 0)
(421.538 -165.085 0)
(-173.778 -141.525 0)
(-1202.77 -425.782 0)
(-1810.42 -483.607 0)
(-2084.65 -329.099 0)
(-2444.72 -221.108 0)
(-2438.53 -151.507 0)
(-1649.25 -69.0484 0)
(-793.04 -16.6685 0)
(-436.944 -5.09059 0)
(-348.594 -5.72787 0)
(-310.242 -7.95576 0)
(-253.625 -2.34616 0)
(-171.18 1.52881 0)
(-95.2132 2.79944 0)
(-47.1714 2.75349 0)
(-22.9457 2.4081 0)
(-11.1988 2.12527 0)
(-1.43093 1.99804 0)
(9.74727 1.89246 0)
(21.1583 1.7769 0)
(32.5251 1.63616 0)
(54.6707 1.63521 0)
(80.6515 0.802697 0)
(109.871 0.79388 0)
(166.069 -0.673838 0)
(390.592 1.39253 0)
(1362.91 3.32019 0)
(2504.02 6.36089 0)
(2413.05 -11.5826 0)
(905.877 -7.44369 0)
(1844 -3.20569 0)
(-2120.99 3814.88 0)
(-1919.4 2503.83 0)
(-2305.79 1874.62 0)
(-1220.18 2336.83 0)
(1835.97 2592.75 0)
(3880.31 1457.43 0)
(2596.32 -960.013 0)
(805.247 -842.093 0)
(614.376 -537.619 0)
(-121.425 -702.918 0)
(-1138.32 -778.965 0)
(-1728.43 -619.396 0)
(-2036.69 -444.243 0)
(-2419.92 -354.169 0)
(-2396.07 -278.236 0)
(-1594.48 -130.623 0)
(-763.814 -31.8205 0)
(-431.832 -9.47142 0)
(-349.975 -11.6063 0)
(-308.77 -12.9679 0)
(-249.583 -5.05732 0)
(-168.842 1.91329 0)
(-94.6341 4.69868 0)
(-47.3305 4.83384 0)
(-23.2149 4.24938 0)
(-11.3768 3.73667 0)
(-1.53525 3.49719 0)
(9.64646 3.3086 0)
(21.0452 3.08722 0)
(32.4531 2.87897 0)
(54.3136 2.79249 0)
(80.2532 1.56436 0)
(109.223 0.969973 0)
(166.233 -1.08192 0)
(392.088 1.49103 0)
(1364.6 4.83924 0)
(2497.39 8.94544 0)
(2406.33 -15.0662 0)
(908.563 -17.3191 0)
(1851.13 -13.2942 0)
(-2565.87 683.665 0)
(-2452.8 526.705 0)
(-1450.51 963.734 0)
(13.7974 2341.85 0)
(1239.73 2348.88 0)
(2079.48 1050.77 0)
(1762.74 -661.375 0)
(1093.27 -453.207 0)
(452.247 -678.901 0)
(-434.421 -1049.55 0)
(-1156.85 -1096.73 0)
(-1531.83 -866.505 0)
(-1854.79 -660.2 0)
(-2298.05 -571.925 0)
(-2245.88 -439.456 0)
(-1441.16 -187.208 0)
(-691.967 -44.6995 0)
(-420.206 -16.8794 0)
(-351.223 -18.3723 0)
(-304.72 -16.6794 0)
(-241.453 -7.00728 0)
(-163.033 2.61846 0)
(-92.7094 7.25572 0)
(-47.519 7.92339 0)
(-23.8586 7.20345 0)
(-11.8282 6.43547 0)
(-1.78749 6.02465 0)
(9.40627 5.67797 0)
(20.805 5.31319 0)
(32.2798 5.01238 0)
(53.5953 4.85831 0)
(79.1088 3.22932 0)
(107.669 1.88061 0)
(166.483 -0.947903 0)
(395.495 2.37695 0)
(1369.19 7.75824 0)
(2488.39 14.1064 0)
(2391.35 -12.3842 0)
(906.144 -24.5604 0)
(1872.64 -20.8259 0)
(-2266.58 -206.196 0)
(-1649.51 466.808 0)
(-556.655 1458.42 0)
(114.602 1579.45 0)
(591.839 1268.77 0)
(979.515 368.498 0)
(1147.04 -438.986 0)
(788.359 -754.974 0)
(39.7184 -1052.77 0)
(-524.065 -1250.73 0)
(-961.926 -1136.74 0)
(-1307.77 -903.102 0)
(-1752.82 -781.731 0)
(-2207.2 -756.104 0)
(-2025.35 -555.398 0)
(-1214.08 -211.192 0)
(-599.678 -51.8658 0)
(-406.462 -25.1291 0)
(-349.782 -24.1855 0)
(-297.818 -18.7356 0)
(-230.987 -6.71627 0)
(-155.098 4.88975 0)
(-89.522 11.0268 0)
(-47.3809 12.3182 0)
(-24.6487 11.5962 0)
(-12.5127 10.6099 0)
(-2.2652 9.97019 0)
(8.96087 9.34837 0)
(20.4038 8.79619 0)
(32.0147 8.34304 0)
(52.5954 8.10744 0)
(77.3838 6.09016 0)
(105.197 3.98618 0)
(166.711 0.23728 0)
(400.477 4.47942 0)
(1375.9 11.9252 0)
(2477.98 19.8052 0)
(2369.07 -10.3498 0)
(900.428 -29.8689 0)
(1902.24 -24.1225 0)
(-1570.29 -587.259 0)
(-848.717 228.611 0)
(-378.33 311.438 0)
(-168.95 -26.2918 0)
(72.8196 -211.968 0)
(433.817 -394.451 0)
(680.121 -533.771 0)
(501.807 -930.552 0)
(-25.4839 -1180.4 0)
(-515.345 -1202.26 0)
(-821.858 -1076.53 0)
(-1189.73 -951.027 0)
(-1713.14 -929.294 0)
(-2079.95 -896.507 0)
(-1720.79 -572.964 0)
(-955.937 -193.43 0)
(-512.669 -55.8597 0)
(-393.532 -33.4799 0)
(-345.062 -28.6593 0)
(-287.886 -18.7636 0)
(-218.687 -4.22123 0)
(-145.935 8.83788 0)
(-85.551 15.8659 0)
(-46.9703 17.5913 0)
(-25.5048 16.9045 0)
(-13.3951 15.7566 0)
(-3.00315 14.8483 0)
(8.27496 13.8738 0)
(19.8363 13.1129 0)
(31.6161 12.4602 0)
(51.4244 12.0348 0)
(75.1374 9.77851 0)
(102.028 6.90748 0)
(166.959 2.87479 0)
(406.758 7.21513 0)
(1383.95 16.1967 0)
(2466.93 22.4755 0)
(2343.48 -8.73444 0)
(892.872 -33.4943 0)
(1930.56 -27.2393 0)
(-1254.08 -1009.11 0)
(-783.498 -649.255 0)
(-802.288 -948.625 0)
(-389.771 -813.86 0)
(237.067 -546.439 0)
(669.414 -413.252 0)
(630.428 -671.934 0)
(165.24 -1006.04 0)
(-222.105 -1206.54 0)
(-423.968 -1144.35 0)
(-719.833 -1044.77 0)
(-1165.89 -1017.32 0)
(-1700.28 -1062.24 0)
(-1863.83 -939.899 0)
(-1347.84 -496.58 0)
(-715.775 -155.266 0)
(-445.545 -57.096 0)
(-380.25 -39.069 0)
(-335.601 -29.8368 0)
(-274.269 -15.8766 0)
(-204.389 0.910034 0)
(-135.741 14.942 0)
(-81.0869 22.3648 0)
(-46.3802 24.3102 0)
(-26.4167 23.6445 0)
(-14.494 22.3724 0)
(-4.07952 21.1698 0)
(7.28851 19.856 0)
(19.0416 18.957 0)
(30.9758 18.1005 0)
(50.0112 17.4663 0)
(72.4429 15.1352 0)
(98.5448 11.9719 0)
(167.007 7.88723 0)
(413.315 12.5444 0)
(1390.61 23.1216 0)
(2453.96 28.7592 0)
(2315.14 -1.12487 0)
(882.596 -29.5657 0)
(1967.63 -22.8315 0)
(-1670.94 -1114.29 0)
(-790.431 -653.586 0)
(-536.95 -490.416 0)
(218.611 -218.946 0)
(458.86 -227.733 0)
(312.884 -534.975 0)
(108.892 -946.671 0)
(-13.356 -1171.48 0)
(-158.768 -1127.1 0)
(-359.461 -1059.06 0)
(-699.443 -1042.87 0)
(-1206.57 -1099.5 0)
(-1638.54 -1126.38 0)
(-1534.86 -844.198 0)
(-964.685 -368.794 0)
(-532.435 -122.801 0)
(-400.698 -60.4655 0)
(-367.264 -44.4337 0)
(-322.712 -29.4348 0)
(-258.258 -11.1874 0)
(-188.989 7.20331 0)
(-125.26 21.5917 0)
(-76.5234 29.0821 0)
(-45.7371 31.1264 0)
(-27.3722 30.4843 0)
(-15.7798 29.08 0)
(-5.42801 27.5697 0)
(6.14259 26.1 0)
(18.1446 25.0781 0)
(30.1796 24.0079 0)
(48.567 23.1502 0)
(69.8428 20.868 0)
(95.044 17.8558 0)
(167.51 14.1124 0)
(421.438 17.9532 0)
(1399.58 28.2533 0)
(2443.56 30.4309 0)
(2287.28 5.31017 0)
(871.954 -25.4951 0)
(1990.24 -22.2503 0)
(-1328.29 -312.9 0)
(-182.308 -46.1432 0)
(-383.454 142.25 0)
(-136.64 -170.638 0)
(-67.4689 -642.935 0)
(-23.3806 -984.527 0)
(17.0732 -1074.09 0)
(-8.6243 -1056.52 0)
(-113.781 -1022.65 0)
(-342.806 -1003.17 0)
(-758.802 -1076.5 0)
(-1246.36 -1160.7 0)
(-1454.26 -1065.48 0)
(-1133.79 -642.205 0)
(-652.672 -251.277 0)
(-418.658 -101.788 0)
(-370.027 -62.7097 0)
(-350.348 -46.1266 0)
(-303.564 -26.117 0)
(-238.963 -3.94547 0)
(-172.802 15.5068 0)
(-114.658 29.7514 0)
(-71.8989 36.9511 0)
(-45.0289 38.9082 0)
(-28.3887 38.2072 0)
(-17.3026 36.6213 0)
(-6.95115 35.0111 0)
(4.88744 33.6083 0)
(17.0256 32.2777 0)
(29.1181 30.9622 0)
(46.9855 29.8964 0)
(67.3411 27.7143 0)
(92.0349 25.0749 0)
(167.101 22.224 0)
(426.941 25.3487 0)
(1402.63 34.9238 0)
(2431.85 34.3233 0)
(2261.25 11.9075 0)
(856.038 -22.4203 0)
(2024.99 -21.8399 0)
(-750.465 95.2442 0)
(-351.831 2.57857 0)
(-656.918 -136.824 0)
(-538.022 -604.168 0)
(-325.432 -940.794 0)
(-102.593 -1033.69 0)
(39.5138 -979.108 0)
(36.2116 -934.667 0)
(-107.35 -922.61 0)
(-411.35 -990.812 0)
(-851.254 -1108.59 0)
(-1195.95 -1126.8 0)
(-1138.89 -859.507 0)
(-750.26 -424.956 0)
(-443.921 -174.02 0)
(-350.725 -89.9642 0)
(-347.06 -64.0105 0)
(-332.002 -44.41 0)
(-282.065 -20.2477 0)
(-218.147 2.92825 0)
(-156.517 22.9814 0)
(-104.596 36.7806 0)
(-67.6996 43.6283 0)
(-44.5267 45.5494 0)
(-29.5759 44.9531 0)
(-18.8597 43.5157 0)
(-8.33141 42.2295 0)
(3.50854 41.0304 0)
(15.5947 39.5407 0)
(27.8849 38.2241 0)
(45.4372 37.1849 0)
(65.1966 35.3944 0)
(89.7533 33.5005 0)
(167.774 32.2302 0)
(433.676 35.351 0)
(1408.23 43.54 0)
(2421.38 42.0535 0)
(2232.6 21.7961 0)
(839.434 -14.3112 0)
(2041.12 -17.6533 0)
(-785.667 -58.6342 0)
(-405.938 -46.8436 0)
(-968.136 -280.771 0)
(-911.375 -756.403 0)
(-481.37 -958.416 0)
(-60.3007 -913.913 0)
(112.493 -822.231 0)
(45.8189 -826.34 0)
(-167.884 -874.459 0)
(-522.022 -996.323 0)
(-889.847 -1076.29 0)
(-1006.34 -949.055 0)
(-777.935 -582.371 0)
(-473.23 -265.285 0)
(-329.862 -125.213 0)
(-312.649 -79.5734 0)
(-326.129 -61.0588 0)
(-308.177 -38.9427 0)
(-257.947 -11.1463 0)
(-197.306 12.6409 0)
(-140.18 32.6586 0)
(-94.7617 45.5739 0)
(-63.449 51.8016 0)
(-43.7523 53.5547 0)
(-30.3485 53.0801 0)
(-19.9272 51.9151 0)
(-9.34606 50.867 0)
(2.29646 49.6775 0)
(14.3214 48.1609 0)
(26.8479 46.9357 0)
(44.2586 46.0253 0)
(63.7907 44.6618 0)
(88.9858 43.5853 0)
(168.885 44.1091 0)
(437.84 46.5562 0)
(1409.09 53.1561 0)
(2410.9 51.1904 0)
(2206.93 30.2089 0)
(818.023 -8.98435 0)
(2057.96 -17.7736 0)
(-680.758 -95.05 0)
(-565.891 -115.985 0)
(-1340.67 -360.098 0)
(-1191.02 -756.64 0)
(-477.215 -822.475 0)
(28.6396 -702.854 0)
(123.903 -685.264 0)
(-14.1166 -757.475 0)
(-271.152 -857.463 0)
(-605.846 -964.257 0)
(-805.705 -930.872 0)
(-719.986 -669.932 0)
(-479.988 -349.017 0)
(-309.726 -168.177 0)
(-264.962 -93.7977 0)
(-288.904 -68.6073 0)
(-307.907 -51.9774 0)
(-283.905 -27.4116 0)
(-232.357 0.792363 0)
(-175.935 25.547 0)
(-124.782 44.7755 0)
(-86.1487 56.7152 0)
(-60.009 62.3556 0)
(-43.2948 64.0443 0)
(-31.1559 63.8187 0)
(-20.9923 62.9566 0)
(-10.4877 62.0249 0)
(0.900885 60.7971 0)
(12.9525 59.2484 0)
(25.827 58.1567 0)
(43.246 57.413 0)
(62.8453 56.5183 0)
(89.2207 56.1552 0)
(170.637 57.9391 0)
(442.394 60.1677 0)
(1412.69 65.8225 0)
(2399.27 62.6152 0)
(2174.61 39.7021 0)
(793.196 -4.09075 0)
(2063.47 -19.2943 0)
(-814.208 -248.641 0)
(-661.348 -206.476 0)
(-1585.49 -328.891 0)
(-1356.94 -563.42 0)
(-429.54 -599.474 0)
(71.9205 -542.321 0)
(59.8578 -608.294 0)
(-120.118 -707.074 0)
(-367.146 -820.675 0)
(-592.761 -837.788 0)
(-606.225 -673.159 0)
(-445.641 -398.449 0)
(-294.425 -196.927 0)
(-227.292 -96.6521 0)
(-233.914 -61.385 0)
(-272.35 -50.7328 0)
(-286.432 -31.8799 0)
(-257.326 -1.33244 0)
(-206.914 27.3972 0)
(-154.922 52.3934 0)
(-110.146 70.0035 0)
(-77.8209 80.1024 0)
(-56.3864 84.2171 0)
(-42.3424 84.8043 0)
(-31.3967 83.7601 0)
(-21.6558 82.217 0)
(-11.427 80.5802 0)
(-0.379029 78.7447 0)
(11.777 76.8769 0)
(25.0792 75.6135 0)
(42.6798 74.9294 0)
(62.5786 74.3924 0)
(90.355 74.6153 0)
(172.751 77.1026 0)
(445.437 80.4712 0)
(1411.45 86.8198 0)
(2385.73 80.3978 0)
(2142.65 53.0795 0)
(761.172 5.39758 0)
(2070 -11.9546 0)
(-1124.86 -278.646 0)
(-643.223 -187.019 0)
(-1684.64 -214.262 0)
(-1451.77 -324.427 0)
(-456.883 -388.003 0)
(20.1406 -459.247 0)
(-34.8589 -563.565 0)
(-218.775 -645.685 0)
(-397.113 -703.392 0)
(-463.694 -606.995 0)
(-382.341 -391.686 0)
(-261.071 -201.73 0)
(-189.166 -94.9054 0)
(-179.112 -44.1501 0)
(-220.712 -29.9015 0)
(-260.472 -21.0281 0)
(-260.303 2.70318 0)
(-226.783 34.1026 0)
(-180.585 62.8001 0)
(-134.878 85.7182 0)
(-98.0802 100.673 0)
(-72.452 108.503 0)
(-55.4782 111.142 0)
(-43.7352 110.707 0)
(-33.6491 108.736 0)
(-24.0566 106.248 0)
(-13.8337 103.842 0)
(-2.66778 101.308 0)
(9.93519 99.117 0)
(23.9503 98.1609 0)
(42.0693 97.773 0)
(62.5426 97.857 0)
(91.8324 98.9655 0)
(176.28 102.357 0)
(451.758 107.265 0)
(1412.62 114.245 0)
(2366.76 99.2228 0)
(2102.34 67.4656 0)
(730.527 17.9489 0)
(2046.67 -2.84938 0)
(-1391.88 -136.335 0)
(-599.306 -83.182 0)
(-1717.91 -72.9586 0)
(-1524.36 -159.467 0)
(-559.458 -265.33 0)
(-97.2568 -422.327 0)
(-119.801 -516.955 0)
(-254.861 -549.142 0)
(-329.863 -500.29 0)
(-292.39 -342.543 0)
(-215.698 -182.748 0)
(-159.652 -77.981 0)
(-142.575 -17.9876 0)
(-164.651 3.22306 0)
(-211.633 8.31772 0)
(-240.931 20.7838 0)
(-233.306 45.221 0)
(-199.414 73.8148 0)
(-157.175 100.825 0)
(-118.426 120.831 0)
(-88.1894 133.259 0)
(-67.7326 138.99 0)
(-54.2619 140.28 0)
(-44.6613 139.148 0)
(-35.6944 136.862 0)
(-26.3719 134.313 0)
(-16.1874 132.243 0)
(-4.93189 130.603 0)
(8.74468 129.714 0)
(23.7841 130.829 0)
(42.387 132.452 0)
(63.7278 134.685 0)
(94.6909 137.977 0)
(180.749 143.683 0)
(456.893 151.856 0)
(1403.7 161.312 0)
(2340.65 138.465 0)
(2064.33 99.7597 0)
(693.414 43.6895 0)
(2016.47 20.7374 0)
(-1417.04 -11.3107 0)
(-582.151 -9.73754 0)
(-1758.15 12.6102 0)
(-1637.14 -64.337 0)
(-710.185 -213.769 0)
(-222.335 -352.783 0)
(-157.062 -389.599 0)
(-202.716 -343.827 0)
(-198.027 -226.643 0)
(-157.699 -100.404 0)
(-127.399 -16.8244 0)
(-102.302 35.3367 0)
(-110.915 64.8986 0)
(-153.763 71.0382 0)
(-203.79 70.3154 0)
(-224.91 80.1387 0)
(-209.2 101.55 0)
(-173.201 128.301 0)
(-135.279 152.582 0)
(-103.624 171.179 0)
(-80.5815 185.107 0)
(-65.686 195.6 0)
(-55.3254 203.004 0)
(-47.0291 208.301 0)
(-38.3089 212.544 0)
(-28.5072 216.963 0)
(-17.4086 220.427 0)
(-5.10487 223.695 0)
(10.1532 226.367 0)
(26.5886 230.579 0)
(45.7853 234.25 0)
(67.8663 239.548 0)
(100.503 245.285 0)
(189.654 254.971 0)
(468.746 269.337 0)
(1399.72 284.277 0)
(2307.44 247.665 0)
(2011.01 168.785 0)
(654.378 70.8331 0)
(1918.92 45.7749 0)
(-1388.62 71.0105 0)
(-576.255 83.0568 0)
(-1770.52 103.225 0)
(-1742.51 38.3771 0)
(-837.414 -107.095 0)
(-266.693 -131.674 0)
(-111.171 -88.4942 0)
(-97.8308 -10.0883 0)
(-95.2918 79.4645 0)
(-90.2008 142.795 0)
(-84.893 190.909 0)
(-80.9012 219.541 0)
(-108.171 227.365 0)
(-159.432 226.143 0)
(-202.863 233.663 0)
(-210.832 257.979 0)
(-186.895 293.175 0)
(-150.238 329.194 0)
(-115.856 359.775 0)
(-87.0846 384.289 0)
(-64.6563 404.684 0)
(-50.486 422.848 0)
(-42.0231 440.311 0)
(-35.4677 457.321 0)
(-27.3474 474.046 0)
(-18.7761 491.825 0)
(-9.70036 505.708 0)
(0.791993 519.879 0)
(15.3785 531.117 0)
(31.381 542.657 0)
(51.03 551.397 0)
(74.3614 563.512 0)
(109.553 572.389 0)
(203.926 587.503 0)
(485.133 604.769 0)
(1382.82 609.126 0)
(2229.35 513.79 0)
(1893.93 348.593 0)
(574.877 152.44 0)
(1828.63 62.1662 0)
(-1179.61 58.2074 0)
(-551.108 173.864 0)
(-1801.2 367.227 0)
(-1839.82 437.906 0)
(-874.053 376.161 0)
(-204.411 420.114 0)
(-39.8974 497.709 0)
(-40.8644 566.436 0)
(-50.7031 623.879 0)
(-50.3074 684.858 0)
(-53.4446 745.05 0)
(-67.1709 797.488 0)
(-104.553 838.806 0)
(-147.695 880.875 0)
(-173.112 937.156 0)
(-167.562 1008.61 0)
(-140.575 1083.12 0)
(-109.022 1150.14 0)
(-82.1877 1207.75 0)
(-60.3485 1257.09 0)
(-43.4244 1303.09 0)
(-31.3545 1347.53 0)
(-22.1054 1388.3 0)
(-14.52 1424.61 0)
(-5.05974 1455.69 0)
(2.0035 1484.53 0)
(9.6248 1503.68 0)
(19.3799 1525.44 0)
(32.1034 1541.22 0)
(46.131 1558.97 0)
(65.8821 1569.68 0)
(88.095 1580.95 0)
(123.622 1578.17 0)
(220.857 1579.31 0)
(489.583 1562.32 0)
(1312.05 1496.15 0)
(2056.38 1207.24 0)
(1662.8 773.195 0)
(378.367 285.751 0)
(1648.8 7.02492 0)
(-1130.51 -141.055 0)
(-278.472 144.205 0)
(-1516.08 685.971 0)
(-1733.9 1146.51 0)
(-854.56 1319.11 0)
(-149.565 1402.97 0)
(29.8302 1480.35 0)
(23.7509 1559.4 0)
(18.8239 1643.91 0)
(26.5646 1730.99 0)
(23.6416 1809.51 0)
(9.44474 1874.33 0)
(-27.8167 1927.41 0)
(-64.6571 1983.26 0)
(-79.7765 2048.71 0)
(-70.1797 2121.84 0)
(-50.5037 2192.46 0)
(-30.1396 2255.08 0)
(-12.802 2309.2 0)
(4.78972 2355.29 0)
(22.4982 2392.86 0)
(31.6265 2419.88 0)
(32.2534 2436.78 0)
(29.4722 2447.15 0)
(30.3934 2451.95 0)
(27.4649 2454.49 0)
(29.7251 2453.19 0)
(36.9762 2451.24 0)
(47.6812 2446.71 0)
(58.7996 2441.03 0)
(72.211 2431.92 0)
(82.5482 2415.95 0)
(107.974 2392.99 0)
(188.648 2362.94 0)
(405 2291.05 0)
(1040.65 2144.13 0)
(1532.69 1625.09 0)
(1005.95 995.674 0)
(-163.432 360.816 0)
(1556.58 -116.862 0)
(-1627.3 4927.68 0)
(245.845 -530.799 0)
(-835.349 559.818 0)
(-1229.7 1327.18 0)
(-626.918 1762.72 0)
(-49.037 1893.54 0)
(110.848 1937.09 0)
(116.755 1984.05 0)
(114.644 2053.17 0)
(109.265 2108.72 0)
(84.6835 2152.17 0)
(46.4417 2174.42 0)
(0.416988 2184.78 0)
(-30.8032 2202.01 0)
(-39.5679 2228.53 0)
(-29.0368 2258.52 0)
(-12.1892 2283.21 0)
(3.46673 2302.09 0)
(14.3864 2314.08 0)
(20.2706 2318.97 0)
(18.8168 2313.23 0)
(10.9679 2297.18 0)
(4.16845 2276.27 0)
(0.101015 2253.45 0)
(2.01053 2229.14 0)
(3.1946 2204.23 0)
(6.49945 2180.88 0)
(13.1337 2152.99 0)
(22.2622 2126.79 0)
(31.8867 2093.05 0)
(41.7171 2060.12 0)
(50.5805 2018.38 0)
(72.5324 1980.93 0)
(122.622 1930.29 0)
(278.738 1830.53 0)
(670.299 1635.75 0)
(949.686 1008.64 0)
(444.504 414.835 0)
(-693.713 -525.128 0)
(1872.28 3663.25 0)
(-2692 298329 0)
(-4487.5 2590.96 0)
(274.332 -742.232 0)
(-574.74 -61.9454 0)
(-308.791 442.396 0)
(18.4618 574.219 0)
(117.048 592.639 0)
(135.616 599.972 0)
(138.962 622.436 0)
(121.967 627.352 0)
(86.954 624.739 0)
(40.8687 619.63 0)
(-1.23338 623.099 0)
(-22.5035 639.648 0)
(-25.3178 664.595 0)
(-17.4826 690.383 0)
(-8.52424 714.125 0)
(-0.39462 731.554 0)
(3.46741 740.131 0)
(3.97048 741.971 0)
(1.50384 744.686 0)
(-3.99224 752.265 0)
(-9.88979 761.348 0)
(-15.9475 767.838 0)
(-17.0319 771.627 0)
(-19.0347 773.631 0)
(-19.6599 769.465 0)
(-15.1431 765.717 0)
(-10.0761 757.208 0)
(-5.45129 744.099 0)
(0.253256 723.708 0)
(6.23743 702.471 0)
(23.0906 673.973 0)
(43.7179 642.374 0)
(121.168 576.666 0)
(248.643 401.139 0)
(356.174 -111.892 0)
(-472.042 -662.787 0)
(2966.86 2554.17 0)
(4199.25 235438 0)
(275978 -288467 0)
(-287950 5793.36 0)
(-3391.79 2620.25 0)
(-88.1495 2579.81 0)
(-13.887 2939.32 0)
(95.7427 2948.68 0)
(135.664 2794.08 0)
(145.468 2627.22 0)
(141.028 2440.18 0)
(111.485 2280.88 0)
(77.2424 2171.16 0)
(44.8615 2104.01 0)
(19.707 2095.1 0)
(9.18326 2110.85 0)
(9.32271 2134.8 0)
(18.6921 2145.66 0)
(27.4845 2139.29 0)
(28.5274 2117.96 0)
(24.424 2090.43 0)
(24.6597 2067.38 0)
(28.7366 2048.34 0)
(27.0244 2037.62 0)
(19.1754 2037.44 0)
(10.0062 2043.9 0)
(7.59237 2057.72 0)
(1.11141 2063.22 0)
(-1.12621 2083.01 0)
(1.32232 2086.52 0)
(1.43022 2094.04 0)
(-0.395296 2086.95 0)
(1.60308 2085.56 0)
(2.65389 2060.73 0)
(14.6209 2042.19 0)
(28.8533 1971.34 0)
(46.2739 1912.28 0)
(6.77934 1746.24 0)
(-75.5508 1657.05 0)
(3013.62 1867.12 0)
(226822 4473.48 0)
(-215404 -224045 0)
(275978 288467 0)
(-287950 -5793.36 0)
(-3391.79 -2620.25 0)
(-88.1495 -2579.81 0)
(-13.887 -2939.32 0)
(95.7427 -2948.68 0)
(135.664 -2794.08 0)
(145.468 -2627.22 0)
(141.028 -2440.18 0)
(111.485 -2280.88 0)
(77.2424 -2171.16 0)
(44.8615 -2104.01 0)
(19.707 -2095.1 0)
(9.18326 -2110.85 0)
(9.32271 -2134.8 0)
(18.6921 -2145.66 0)
(27.4845 -2139.29 0)
(28.5274 -2117.96 0)
(24.424 -2090.43 0)
(24.6597 -2067.38 0)
(28.7366 -2048.34 0)
(27.0244 -2037.62 0)
(19.1754 -2037.44 0)
(10.0062 -2043.9 0)
(7.59237 -2057.72 0)
(1.11141 -2063.22 0)
(-1.12621 -2083.01 0)
(1.32232 -2086.52 0)
(1.43022 -2094.04 0)
(-0.395296 -2086.95 0)
(1.60308 -2085.56 0)
(2.65389 -2060.73 0)
(14.6209 -2042.19 0)
(28.8533 -1971.34 0)
(46.2739 -1912.28 0)
(6.77934 -1746.24 0)
(-75.5508 -1657.05 0)
(3013.62 -1867.12 0)
(226822 -4473.48 0)
(-215404 224045 0)
(-2692 -298329 0)
(-4487.5 -2590.96 0)
(274.332 742.232 0)
(-574.74 61.9454 0)
(-308.791 -442.396 0)
(18.4618 -574.219 0)
(117.048 -592.639 0)
(135.616 -599.972 0)
(138.962 -622.436 0)
(121.967 -627.352 0)
(86.954 -624.739 0)
(40.8687 -619.63 0)
(-1.23338 -623.099 0)
(-22.5035 -639.648 0)
(-25.3178 -664.595 0)
(-17.4826 -690.383 0)
(-8.52424 -714.125 0)
(-0.39462 -731.554 0)
(3.46741 -740.131 0)
(3.97048 -741.971 0)
(1.50384 -744.686 0)
(-3.99224 -752.265 0)
(-9.88979 -761.348 0)
(-15.9475 -767.838 0)
(-17.0319 -771.627 0)
(-19.0347 -773.631 0)
(-19.6599 -769.465 0)
(-15.1431 -765.717 0)
(-10.0761 -757.208 0)
(-5.45129 -744.099 0)
(0.253255 -723.708 0)
(6.23743 -702.471 0)
(23.0906 -673.973 0)
(43.7179 -642.374 0)
(121.168 -576.666 0)
(248.643 -401.139 0)
(356.174 111.892 0)
(-472.042 662.787 0)
(2966.86 -2554.17 0)
(4199.25 -235438 0)
(-1627.3 -4927.68 0)
(245.845 530.799 0)
(-835.349 -559.818 0)
(-1229.7 -1327.18 0)
(-626.918 -1762.72 0)
(-49.037 -1893.54 0)
(110.848 -1937.09 0)
(116.755 -1984.05 0)
(114.644 -2053.17 0)
(109.265 -2108.72 0)
(84.6835 -2152.17 0)
(46.4417 -2174.42 0)
(0.416988 -2184.78 0)
(-30.8032 -2202.01 0)
(-39.5679 -2228.53 0)
(-29.0368 -2258.52 0)
(-12.1892 -2283.21 0)
(3.46673 -2302.09 0)
(14.3864 -2314.08 0)
(20.2706 -2318.97 0)
(18.8168 -2313.23 0)
(10.9679 -2297.18 0)
(4.16845 -2276.27 0)
(0.101015 -2253.45 0)
(2.01053 -2229.14 0)
(3.1946 -2204.23 0)
(6.49945 -2180.88 0)
(13.1337 -2152.99 0)
(22.2622 -2126.79 0)
(31.8867 -2093.05 0)
(41.7171 -2060.12 0)
(50.5805 -2018.38 0)
(72.5324 -1980.93 0)
(122.622 -1930.29 0)
(278.738 -1830.53 0)
(670.299 -1635.75 0)
(949.686 -1008.64 0)
(444.504 -414.835 0)
(-693.713 525.128 0)
(1872.28 -3663.25 0)
(-1130.51 141.055 0)
(-278.472 -144.205 0)
(-1516.08 -685.971 0)
(-1733.9 -1146.51 0)
(-854.56 -1319.11 0)
(-149.565 -1402.97 0)
(29.8302 -1480.35 0)
(23.7509 -1559.4 0)
(18.8239 -1643.91 0)
(26.5646 -1730.99 0)
(23.6416 -1809.51 0)
(9.44474 -1874.33 0)
(-27.8167 -1927.41 0)
(-64.6571 -1983.26 0)
(-79.7765 -2048.71 0)
(-70.1797 -2121.84 0)
(-50.5037 -2192.46 0)
(-30.1396 -2255.08 0)
(-12.802 -2309.2 0)
(4.78972 -2355.29 0)
(22.4982 -2392.86 0)
(31.6265 -2419.88 0)
(32.2534 -2436.78 0)
(29.4722 -2447.15 0)
(30.3934 -2451.95 0)
(27.4649 -2454.49 0)
(29.7251 -2453.19 0)
(36.9762 -2451.24 0)
(47.6812 -2446.71 0)
(58.7996 -2441.03 0)
(72.211 -2431.92 0)
(82.5482 -2415.95 0)
(107.974 -2392.99 0)
(188.648 -2362.94 0)
(405 -2291.05 0)
(1040.65 -2144.13 0)
(1532.69 -1625.09 0)
(1005.95 -995.674 0)
(-163.432 -360.816 0)
(1556.58 116.862 0)
(-1179.61 -58.2074 0)
(-551.108 -173.864 0)
(-1801.2 -367.227 0)
(-1839.82 -437.906 0)
(-874.053 -376.161 0)
(-204.411 -420.114 0)
(-39.8974 -497.709 0)
(-40.8644 -566.436 0)
(-50.7031 -623.879 0)
(-50.3074 -684.858 0)
(-53.4446 -745.05 0)
(-67.1709 -797.488 0)
(-104.553 -838.806 0)
(-147.695 -880.875 0)
(-173.112 -937.156 0)
(-167.562 -1008.61 0)
(-140.575 -1083.12 0)
(-109.022 -1150.14 0)
(-82.1877 -1207.75 0)
(-60.3485 -1257.09 0)
(-43.4244 -1303.09 0)
(-31.3545 -1347.53 0)
(-22.1054 -1388.3 0)
(-14.52 -1424.61 0)
(-5.05974 -1455.69 0)
(2.0035 -1484.53 0)
(9.6248 -1503.68 0)
(19.3799 -1525.44 0)
(32.1034 -1541.22 0)
(46.131 -1558.97 0)
(65.8821 -1569.68 0)
(88.095 -1580.95 0)
(123.622 -1578.17 0)
(220.857 -1579.31 0)
(489.583 -1562.32 0)
(1312.05 -1496.15 0)
(2056.38 -1207.24 0)
(1662.8 -773.195 0)
(378.367 -285.751 0)
(1648.8 -7.02492 0)
(-1388.62 -71.0105 0)
(-576.255 -83.0568 0)
(-1770.52 -103.225 0)
(-1742.51 -38.3771 0)
(-837.414 107.095 0)
(-266.693 131.674 0)
(-111.171 88.4942 0)
(-97.8308 10.0883 0)
(-95.2918 -79.4645 0)
(-90.2008 -142.795 0)
(-84.893 -190.909 0)
(-80.9012 -219.541 0)
(-108.171 -227.365 0)
(-159.432 -226.143 0)
(-202.863 -233.663 0)
(-210.832 -257.979 0)
(-186.895 -293.175 0)
(-150.238 -329.194 0)
(-115.856 -359.775 0)
(-87.0846 -384.289 0)
(-64.6563 -404.684 0)
(-50.486 -422.848 0)
(-42.0231 -440.311 0)
(-35.4677 -457.321 0)
(-27.3474 -474.046 0)
(-18.7761 -491.825 0)
(-9.70036 -505.708 0)
(0.791993 -519.879 0)
(15.3785 -531.117 0)
(31.381 -542.657 0)
(51.03 -551.397 0)
(74.3614 -563.512 0)
(109.553 -572.389 0)
(203.926 -587.503 0)
(485.133 -604.769 0)
(1382.82 -609.126 0)
(2229.35 -513.79 0)
(1893.93 -348.593 0)
(574.877 -152.44 0)
(1828.63 -62.1662 0)
(-1417.04 11.3107 0)
(-582.151 9.73754 0)
(-1758.15 -12.6102 0)
(-1637.14 64.337 0)
(-710.185 213.769 0)
(-222.335 352.783 0)
(-157.062 389.599 0)
(-202.716 343.827 0)
(-198.027 226.643 0)
(-157.699 100.404 0)
(-127.399 16.8244 0)
(-102.302 -35.3367 0)
(-110.915 -64.8986 0)
(-153.763 -71.0382 0)
(-203.79 -70.3154 0)
(-224.91 -80.1387 0)
(-209.2 -101.55 0)
(-173.201 -128.301 0)
(-135.279 -152.582 0)
(-103.624 -171.179 0)
(-80.5815 -185.107 0)
(-65.686 -195.6 0)
(-55.3254 -203.004 0)
(-47.0291 -208.301 0)
(-38.3089 -212.544 0)
(-28.5072 -216.963 0)
(-17.4086 -220.427 0)