/*--------------------------------*- C++ -*----------------------------------*\
| =========                 |                                                 |
| \\      /  F ield         | OpenFOAM: The Open Source CFD Toolbox           |
|  \\    /   O peration     | Version:  v1912                                 |
|   \\  /    A nd           | Website:  www.openfoam.com                      |
|    \\/     M anipulation  |                                                 |
\*---------------------------------------------------------------------------*/
FoamFile
{
    version     2.0;
    format      ascii;
    class       volScalarField;
    location    "6.82";
    object      p;
}
// * * * * * * * * * * * * * * * * * * * * * * * * * * * * * * * * * * * * * //

dimensions      [1 -1 -2 0 0 0 0];


internalField   nonuniform List<scalar> 
1900
(
27309.9
9306.01
8546.17
8573.6
8584.03
8595.25
8590.18
8576
8550.73
8530.19
27309.9
9305.99
8546.21
8573.67
8584.24
8595.41
8590.71
8574.97
8557.23
8525.59
27309.9
9306
8546.25
8573.75
8584.42
8595.48
8590.36
8572.71
8549
8515.34
27309.9
9305.99
8546.21
8573.67
8584.24
8595.41
8590.71
8574.97
8557.23
8525.59
27309.9
9306.01
8546.17
8573.6
8584.03
8595.25
8590.18
8576
8550.73
8530.19
8647.58
8488.72
8426.14
8259.4
8512.53
8508.04
8401.85
8346.42
8180.06
8072.18
8479.3
8383.74
8333.33
8203.09
8105.57
8508.04
8401.85
8346.42
8180.06
8072.18
8647.58
8488.72
8426.14
8259.4
8512.53
3578.75
2078.49
1482.41
1150.9
862.662
4044.52
2294.59
1595.02
1239.8
932.729
4155.34
2254.3
1545.71
1204.81
892.508
4044.52
2294.59
1595.02
1239.8
932.729
3578.75
2078.49
1482.41
1150.9
862.662
810.844
745.742
642.047
538.684
551.172
838.993
1359.05
1411.8
1390.24
1356.03
1264.97
1136.6
1000.63
846.245
670.368
532.452
468.763
440.012
419.398
401.254
385.324
373.691
366.875
363.483
361.828
361.026
360.624
360.867
361.658
363.119
365.127
368.966
373.778
380.803
391.764
423.792
549.137
735.071
895.038
900.933
773.286
716.027
626.592
529.721
539.079
839.803
1363.35
1400.2
1383.72
1349.71
1272.69
1148.96
1008.45
850.349
672.307
533.123
468.908
440.071
419.449
401.334
385.342
373.674
366.848
363.457
361.805
361.006
360.605
360.849
361.641
363.103
365.111
368.958
373.769
380.81
391.744
423.745
549.036
735.228
895.118
900.905
756.913
712.587
623.749
526.648
530.777
823.073
1369.06
1401.17
1384.43
1355.59
1274.02
1145.03
1005.86
850.134
673.206
533.552
468.98
440.103
419.476
401.36
385.353
373.67
366.839
363.449
361.799
361
360.599
360.843
361.635
363.097
365.105
368.954
373.764
380.811
391.732
423.723
548.999
735.287
895.173
901.032
773.286
716.027
626.592
529.721
539.079
839.803
1363.35
1400.2
1383.72
1349.71
1272.69
1148.96
1008.45
850.349
672.307
533.123
468.908
440.071
419.449
401.334
385.342
373.674
366.848
363.457
361.805
361.006
360.605
360.849
361.641
363.103
365.111
368.958
373.769
380.81
391.744
423.745
549.036
735.228
895.118
900.905
810.844
745.742
642.047
538.684
551.172
838.993
1359.05
1411.8
1390.24
1356.03
1264.97
1136.6
1000.63
846.245
670.368
532.452
468.763
440.012
419.398
401.254
385.324
373.691
366.875
363.483
361.828
361.026
360.624
360.867
361.658
363.119
365.127
368.966
373.778
380.803
391.764
423.792
549.137
735.071
895.038
900.933
945.797
849.357
749.187
601.614
625.155
886.511
1277.38
1321.26
1332.54
1315.68
1236.85
1119.42
988.606
836.199
662.337
528.674
467.866
439.775
419.101
400.868
385.19
373.746
366.993
363.6
361.929
361.114
360.706
360.944
361.73
363.184
365.191
368.993
373.8
380.76
391.805
423.919
549.366
734.207
894.238
900.658
942.339
832.289
731.779
721.35
780.662
963.63
1174.85
1245.99
1270.96
1239.3
1161.02
1061.1
947.296
805.124
640.338
519.322
465.699
439.1
418.298
400.067
384.842
373.835
367.272
363.894
362.187
361.339
360.916
361.142
361.914
363.357
365.357
369.089
373.844
380.69
391.88
424.235
549.971
733.251
892.781
899.621
949.206
852.937
826.679
854.834
920.673
1038.56
1123.6
1181.42
1173.21
1136.36
1079.15
1001.18
899.167
761.545
608.584
507.077
462.904
437.935
417.12
399.085
384.436
373.996
367.721
364.395
362.65
361.755
361.305
361.507
362.257
363.68
365.672
369.307
373.975
380.645
392.042
424.752
550.926
732.38
890.804
898.246
956.23
911.076
918.299
949.64
999.876
1033.51
1060.21
1074.71
1080.18
1050.37
1005.14
938.442
841.996
708.029
573.349
495.153
459.966
436.374
415.704
398.076
384.127
374.328
368.396
365.149
363.367
362.417
361.928
362.09
362.807
364.204
366.182
369.708
374.247
380.708
392.348
425.525
552.191
731.709
888.771
896.951
956.638
943.166
926.327
919.084
938.548
967.047
992.268
1004.63
990.984
970.46
934.376
872.623
776.384
649.132
540.657
485.152
456.758
434.313
414.056
397.1
383.99
374.908
369.354
366.203
364.385
363.371
362.827
362.93
363.602
364.96
366.911
370.316
374.691
380.944
392.805
426.508
553.446
731.005
886.268
895.222
931.08
923.974
879.249
888.942
916.082
925.527
918.502
917.482
913.056
897.637
865.33
803.197
705.608
593.158
515.479
477.715
453.707
432.155
412.521
396.402
384.222
375.88
370.709
367.658
365.804
364.721
364.107
364.135
364.76
366.072
367.987
371.278
375.495
381.535
393.677
428.035
555.447
731.314
884.659
894.258
926.5
944.068
901.473
882.707
859.574
844.734
842.557
845.32
842.506
830.662
796.637
730.474
636.081
548.421
498.349
471.47
450.146
429.52
410.919
395.922
384.746
377.155
372.367
369.42
367.531
366.371
365.67
365.621
366.19
367.441
369.307
372.483
376.553
382.425
394.708
429.574
556.896
731.39
882.624
892.489
961.198
941.376
880.253
826.474
789.936
775.389
775.886
781.757
780.839
767.074
726.765
657.667
576.547
518.155
487.033
466.438
446.861
427.183
409.74
395.989
385.849
378.979
374.543
371.685
369.752
368.503
367.721
367.604
368.095
369.274
371.084
374.157
378.109
383.864
396.361
431.822
559.34
732.496
881.466
891.711
957.878
928.143
851.081
775.299
726.954
712.515
719.385
726.754
724.797
704.743
658.112
593.15
534.488
499.662
478.846
461.544
443.171
424.738
408.764
396.234
387.156
380.988
376.898
374.14
372.183
370.87
370.034
369.86
370.278
371.397
373.161
376.161
380.045
385.799
398.446
434.294
561.679
733.843
880.622
890.637
963.925
924.048
824.883
723.826
670.628
662.988
673.537
677.979
671.36
643.739
595.856
544.894
509.13
488.142
473.095
457.683
440.218
422.994
408.554
397.325
389.274
383.735
379.931
377.244
375.254
373.879
372.986
372.744
373.08
374.137
375.86
378.802
382.655
388.484
401.284
437.589
565.158
735.943
880.222
890.103
957.046
913.669
800.187
680.522
626.734
626.468
634.96
633.507
619.882
588.211
547.562
515.233
494.731
480.814
468.45
454.013
437.525
421.791
408.849
398.931
391.854
386.915
383.396
380.801
378.811
377.402
376.465
376.162
376.421
377.432
379.127
382.047
385.91
391.876
404.816
441.442
568.773
738.332
880.035
889.202
938.374
901.35
782.102
653.757
597.878
597.295
599.915
592.78
573.145
544.668
517.543
499.336
486.951
477.372
466.31
452.123
436.758
422.849
411.471
402.864
396.636
392.129
388.733
386.091
383.98
382.435
381.366
380.931
381.074
382.006
383.668
386.571
390.47
396.593
409.828
447.039
574.273
741.925
880.856
889.976
922.365
893.085
772.852
640.187
580.065
571.754
567.981
557.126
537.317
517.749
502.71
492.422
484.107
475.911
465.153
451.715
437.82
425.457
415.545
408.015
402.475
398.324
395.055
392.392
390.179
388.498
387.302
386.731
386.763
387.681
389.348
392.299
396.307
402.675
416.243
453.908
580.028
745.809
882.122
890.709
920.603
893.561
773.289
634.127
566.432
547.751
539.489
528.88
515.354
505.459
496.842
490.577
484.948
477.736
467.235
454.407
441.674
430.803
422.259
415.724
410.763
406.819
403.525
400.736
398.362
396.534
395.236
394.623
394.673
395.731
397.58
400.748
405.034
411.828
426.087
464.723
590.094
753.138
886.009
895.07
922.36
894.974
775.146
632.436
555.083
530.848
522.974
517.537
511.37
506.322
500.801
496.387
491.364
483.821
472.939
460.517
448.879
439.325
431.941
426.326
422.209
419.126
416.603
414.468
412.676
411.442
410.597
410.367
410.684
412.069
414.159
417.73
422.428
429.959
445.352
485.366
608.806
765.544
890.133
898.767
932.144
907.441
787.026
638.796
553.955
532.523
529.278
527.669
524.379
521.662
518.443
515.351
510.53
503.081
493.271
482.946
473.879
466.755
461.374
457.362
454.507
452.451
450.986
449.986
449.378
449.446
449.629
450.557
451.85
454.229
457.123
461.761
467.2
475.944
492.716
533.317
650.895
795.581
903.778
904.235
929.944
918.173
821.947
685.035
598.686
579.107
580.18
582.662
583.062
585.027
586.416
588.032
587.685
584.751
579.909
575.142
571.492
569.13
567.944
567.663
568.615
570.527
572.612
574.576
576.279
578.323
579.623
581.909
584.079
587.647
591.129
596.28
600.955
609.181
623.841
659.155
754.825
862.823
924.83
898.999
896.484
923.92
879.001
780.189
711.299
698.876
705.171
713.679
721.067
729.616
736.578
741.97
743.794
742.969
740.692
738.749
737.831
738.077
739.168
740.695
742.45
743.772
744.399
744.622
744.527
744.936
744.904
745.689
746.527
748.424
750.364
753.354
756.16
761.763
770.951
796.986
858.587
932.345
951.197
871.779
1095.57
810.911
922.741
879.333
841.178
837.11
844.349
854.32
864.692
875.385
883.756
889.584
891.379
891.054
889.781
889.027
888.78
889.229
890.087
890.879
891.413
891.412
890.802
889.754
888.235
887.138
885.447
884.38
883.398
883.022
882.641
882.979
883.242
885.673
888.117
900.316
919.745
949.367
823.556
977.74
18640.9
901.796
829.441
841.176
835.522
838.337
846.467
854.758
864.078
871.681
876.736
879.934
880.802
880.829
880.617
880.993
882.291
884.176
886.094
887.646
889.183
890.538
891.394
891.811
891.801
892.171
891.619
891.979
891.902
892.504
892.506
893.747
894.296
897.497
899.719
904.598
899.979
878.674
952.753
14820.2
18640.9
901.796
829.441
841.176
835.522
838.337
846.467
854.758
864.078
871.681
876.736
879.934
880.802
880.829
880.617
880.993
882.291
884.176
886.094
887.646
889.183
890.538
891.394
891.811
891.801
892.171
891.619
891.979
891.902
892.504
892.506
893.747
894.296
897.497
899.719
904.598
899.979
878.674
952.753
14820.2
1095.57
810.911
922.741
879.333
841.178
837.11
844.349
854.32
864.692
875.385
883.756
889.584
891.379
891.054
889.781
889.027
888.78
889.229
890.087
890.879
891.413
891.412
890.802
889.754
888.235
887.138
885.447
884.38
883.398
883.022
882.641
882.979
883.242
885.673
888.117
900.316
919.745
949.367
823.556
977.74
896.484
923.92
879.001
780.189
711.299
698.876
705.171
713.679
721.067
729.616
736.578
741.97
743.794
742.969
740.692
738.749
737.831
738.077
739.168
740.695
742.45
743.772
744.399
744.622
744.527
744.936
744.904
745.689
746.527
748.424
750.364
753.354
756.16
761.763
770.951
796.986
858.587
932.345
951.197
871.779
929.944
918.173
821.947
685.035
598.686
579.107
580.18
582.662
583.062
585.027
586.416
588.032
587.685
584.751
579.909
575.142
571.492
569.13
567.944
567.663
568.615
570.527
572.612
574.576
576.279
578.323
579.623
581.909
584.079
587.647
591.129
596.28
600.955
609.181
623.841
659.155
754.825
862.823
924.83
898.999
932.144
907.441
787.026
638.796
553.955
532.523
529.278
527.669
524.379
521.662
518.443
515.351
510.53
503.081
493.271
482.946
473.879
466.755
461.374
457.362
454.507
452.451
450.986
449.986
449.378
449.446
449.629
450.557
451.85
454.229
457.123
461.761
467.2
475.944
492.716
533.317
650.895
795.581
903.778
904.235
922.36
894.974
775.146
632.436
555.083
530.848
522.974
517.537
511.37
506.322
500.801
496.387
491.364
483.821
472.939
460.517
448.879
439.325
431.941
426.326
422.209
419.126
416.603
414.468
412.676
411.442
410.597
410.367
410.684
412.069
414.159
417.73
422.428
429.959
445.352
485.366
608.806
765.544
890.133
898.767
920.603
893.561
773.289
634.127
566.432
547.751
539.489
528.88
515.354
505.459
496.842
490.577
484.948
477.736
467.235
454.407
441.674
430.803
422.259
415.724
410.763
406.819
403.525
400.736
398.362
396.534
395.236
394.623
394.673
395.731
397.58
400.748
405.034
411.828
426.087
464.723
590.094
753.138
886.009
895.07
922.365
893.085
772.852
640.187
580.065
571.754
567.981
557.126
537.317
517.749
502.71
492.422
484.107
475.911
465.153
451.715
437.82
425.457
415.545
408.015
402.475
398.324
395.055
392.392
390.179
388.498
387.302
386.731
386.763
387.681
389.348
392.299
396.307
402.675
416.243
453.908
580.028
745.809
882.122
890.709
938.374
901.35
782.102
653.757
597.878
597.295
599.915
592.78
573.145
544.668
517.543
499.336
486.951
477.372
466.31
452.123
436.758
422.849
411.471
402.864
396.636
392.129
388.733
386.091
383.98
382.435
381.366
380.931
381.074
382.006
383.668
386.571
390.47
396.593
409.828
447.039
574.273
741.925
880.856
889.976
957.046
913.669
800.187
680.522
626.734
626.468
634.96
633.507
619.882
588.211
547.562
515.233
494.731
480.814
468.45
454.013
437.525
421.791
408.849
398.931
391.854
386.915
383.396
380.801
378.811
377.402
376.465
376.162
376.421
377.432
379.127
382.047
385.91
391.876
404.816
441.442
568.773
738.332
880.035
889.202
963.925
924.048
824.883
723.826
670.628
662.988
673.537
677.979
671.36
643.739
595.856
544.894
509.13
488.142
473.095
457.683
440.218
422.994
408.554
397.325
389.274
383.735
379.931
377.244
375.254
373.879
372.986
372.744
373.08
374.137
375.86
378.802
382.655
388.484
401.284
437.589
565.158
735.943
880.222
890.103
957.878
928.143
851.081
775.299
726.954
712.515
719.385
726.754
724.797
704.743
658.112
593.15
534.488
499.662
478.846
461.544
443.171
424.738
408.764
396.234
387.156
380.988
376.898
374.14
372.183
370.87
370.034
369.86
370.278
371.397
373.161
376.161
380.045
385.799
398.446
434.294
561.679
733.843
880.622
890.637
961.198
941.376
880.253
826.474
789.936
775.389
775.886
781.757
780.839
767.074
726.765
657.667
576.547
518.155
487.033
466.438
446.861
427.183
409.74
395.989
385.849
378.979
374.543
371.685
369.752
368.503
367.721
367.604
368.095
369.274
371.084
374.157
378.109
383.864
396.361
431.822
559.34
732.496
881.466
891.711
926.5
944.068
901.473
882.707
859.574
844.734
842.557
845.32
842.506
830.662
796.637
730.474
636.081
548.421
498.349
471.47
450.146
429.52
410.919
395.922
384.746
377.155
372.367
369.42
367.531
366.371
365.67
365.621
366.19
367.441
369.307
372.483
376.553
382.425
394.708
429.574
556.896
731.39
882.624
892.489
931.08
923.974
879.249
888.942
916.082
925.527
918.502
917.482
913.056
897.637
865.33
803.197
705.608
593.158
515.479
477.715
453.707
432.155
412.521
396.402
384.222
375.88
370.709
367.658
365.804
364.721
364.107
364.135
364.76
366.072
367.987
371.278
375.495
381.535
393.677
428.035
555.447
731.314
884.659
894.258
956.638
943.166
926.327
919.084
938.548
967.047
992.268
1004.63
990.984
970.46
934.376
872.623
776.384
649.132
540.657
485.152
456.758
434.313
414.056
397.1
383.99
374.908
369.354
366.203
364.385
363.371
362.827
362.93
363.602
364.96
366.911
370.316
374.691
380.944
392.805
426.508
553.446
731.005
886.268
895.222
956.23
911.076
918.299
949.64
999.876
1033.51
1060.21
1074.71
1080.18
1050.37
1005.14
938.442
841.996
708.029
573.349
495.153
459.966
436.374
415.704
398.076
384.127
374.328
368.396
365.149
363.367
362.417
361.928
362.09
362.807
364.204
366.182
369.708
374.247
380.708
392.348
425.525
552.191
731.709
888.771
896.951
949.206
852.937
826.679
854.834
920.673
1038.56
1123.6
1181.42
1173.21
1136.36
1079.15
1001.18
899.167
761.545
608.584
507.077
462.904
437.935
417.12
399.085
384.436
373.996
367.721
364.395
362.65
361.755
361.305
361.507
362.257
363.68
365.672
369.307
373.975
380.645
392.042
424.752
550.926
732.38
890.804
898.246
942.339
832.289
731.779
721.35
780.662
963.63
1174.85
1245.99
1270.96
1239.3
1161.02
1061.1
947.296
805.124
640.338
519.322
465.699
439.1
418.298
400.067
384.842
373.835
367.272
363.894
362.187
361.339
360.916
361.142
361.914
363.357
365.357
369.089
373.844
380.69
391.88
424.235
549.971
733.251
892.781
899.621
945.797
849.357
749.187
601.614
625.155
886.511
1277.38
1321.26
1332.54
1315.68
1236.85
1119.42
988.606
836.199
662.337
528.674
467.866
439.775
419.101
400.868
385.19
373.746
366.993
363.6
361.929
361.114
360.706
360.944
361.73
363.184
365.191
368.993
373.8
380.76
391.805
423.919
549.366
734.207
894.238
900.658
)
;

boundaryField
{
    inlet
    {
        type            fixedValue;
        value           uniform 10000;
    }
    outlet
    {
        type            fixedValue;
        value           uniform 1000;
    }
    obstacle
    {
        type            zeroGradient;
    }
    empty
    {
        type            empty;
    }
}


// ************************************************************************* //
