/*--------------------------------*- C++ -*----------------------------------*\
| =========                 |                                                 |
| \\      /  F ield         | OpenFOAM: The Open Source CFD Toolbox           |
|  \\    /   O peration     | Version:  v1912                                 |
|   \\  /    A nd           | Website:  www.openfoam.com                      |
|    \\/     M anipulation  |                                                 |
\*---------------------------------------------------------------------------*/
FoamFile
{
    version     2.0;
    format      ascii;
    class       volScalarField;
    location    "5.2";
    object      p;
}
// * * * * * * * * * * * * * * * * * * * * * * * * * * * * * * * * * * * * * //

dimensions      [0 2 -2 0 0 0 0];


internalField   nonuniform List<scalar> 
10000
(
4.86536e-06
0.000104209
-0.000118928
-0.000708637
-0.00161476
-0.0027809
-0.00414984
-0.00566669
-0.00728168
-0.00895078
-0.0106353
-0.0123016
-0.0139204
-0.015466
-0.0169166
-0.0182532
-0.0194594
-0.0205215
-0.021428
-0.0221691
-0.0227371
-0.0231257
-0.0233303
-0.0233474
-0.0231751
-0.0228122
-0.022259
-0.0215164
-0.0205864
-0.0194718
-0.0181761
-0.0167035
-0.015059
-0.0132481
-0.0112769
-0.00915204
-0.0068807
-0.00447046
-0.00192937
0.000734113
0.00351113
0.0063925
0.00936869
0.0124299
0.015566
0.0187666
0.0220212
0.0253189
0.0286487
0.0319996
0.0353602
0.0387193
0.0420653
0.0453869
0.0486726
0.0519109
0.0550904
0.0582
0.0612285
0.064165
0.0669988
0.0697195
0.0723171
0.0747816
0.077104
0.0792754
0.0812875
0.0831326
0.0848037
0.0862944
0.0875992
0.0887133
0.0896329
0.0903551
0.0908781
0.0912011
0.0913246
0.0912504
0.0909813
0.0905221
0.0898786
0.0890587
0.0880717
0.086929
0.085644
0.0842324
0.0827122
0.0811042
0.079432
0.0777225
0.0760061
0.0743176
0.0726958
0.0711845
0.0698326
0.0686929
0.0678196
0.0672641
0.0670688
0.06718
-8.72752e-05
9.49193e-06
-0.000207924
-0.000734917
-0.00152038
-0.00252472
-0.00370603
-0.00502093
-0.00642816
-0.00788989
-0.00937195
-0.0108438
-0.0122783
-0.0136517
-0.0149431
-0.0161341
-0.0172092
-0.0181547
-0.0189592
-0.0196131
-0.0201085
-0.0204389
-0.0205994
-0.0205864
-0.0203974
-0.0200312
-0.0194873
-0.0187664
-0.0178701
-0.0168007
-0.0155612
-0.0141555
-0.012588
-0.0108637
-0.00898823
-0.00696781
-0.00480906
-0.00251909
-0.000105437
0.00242395
0.00506074
0.00779625
0.0106215
0.0135271
0.0165036
0.0195412
0.0226297
0.025759
0.0289185
0.0320979
0.0352863
0.038473
0.0416472
0.044798
0.0479146
0.0509862
0.0540019
0.0569512
0.0598236
0.0626088
0.0652968
0.0678777
0.0703422
0.0726811
0.0748857
0.076948
0.0788601
0.080615
0.0822063
0.0836282
0.0848757
0.0859445
0.0868313
0.0875336
0.0880502
0.0883806
0.0885256
0.0884873
0.088269
0.0878752
0.0873123
0.0865879
0.0857113
0.0846938
0.0835484
0.0822902
0.0809366
0.0795073
0.0780245
0.0765133
0.0750018
0.073521
0.0721054
0.0707924
0.0696224
0.0686371
0.0678757
0.0673743
0.0671794
0.0672911
0.000136712
0.000227927
1.06607e-05
-0.000484084
-0.00120095
-0.00210696
-0.00316815
-0.00434838
-0.00561257
-0.00692782
-0.00826382
-0.00959298
-0.0108905
-0.0121341
-0.0133044
-0.0143838
-0.0153575
-0.0162124
-0.0169372
-0.0175225
-0.0179605
-0.0182448
-0.0183704
-0.0183333
-0.0181311
-0.0177622
-0.0172259
-0.0165227
-0.0156537
-0.0146209
-0.0134272
-0.0120758
-0.0105709
-0.0089172
-0.00711985
-0.00518465
-0.00311785
-0.000926146
0.00138333
0.00380305
0.00632512
0.00894129
0.011643
0.0144214
0.0172673
0.0201713
0.023124
0.0261155
0.0291358
0.0321749
0.0352225
0.0382685
0.0413023
0.0443137
0.0472924
0.050228
0.0531102
0.055929
0.0586744
0.0613366
0.063906
0.0663735
0.06873
0.070967
0.0730763
0.0750502
0.0768815
0.0785637
0.0800906
0.0814569
0.0826582
0.0836905
0.0845508
0.0852372
0.0857484
0.0860845
0.0862464
0.0862363
0.0860577
0.0857153
0.0852153
0.0845652
0.0837743
0.0828534
0.081815
0.0806738
0.0794463
0.0781509
0.0768086
0.0754427
0.0740786
0.0727445
0.071471
0.0702906
0.0692375
0.0683467
0.0676501
0.067178
0.0669838
0.0670968
0.000725475
0.000755895
0.000506367
1.07874e-05
-0.00067965
-0.00153506
-0.00252585
-0.00362081
-0.0047895
-0.00600307
-0.00723456
-0.00845914
-0.0096542
-0.0107993
-0.0118763
-0.0128689
-0.0137629
-0.0145458
-0.015207
-0.0157373
-0.0161291
-0.0163761
-0.0164732
-0.0164168
-0.016204
-0.0158332
-0.0153037
-0.0146155
-0.0137698
-0.0127681
-0.0116132
-0.010308
-0.00885631
-0.00726255
-0.0055316
-0.00366891
-0.00168037
0.00042765
0.00264837
0.00497463
0.00739889
0.00991329
0.0125096
0.0151795
0.017914
0.0207043
0.0235411
0.0264151
0.0293168
0.0322365
0.0351643
0.0380904
0.0410049
0.0438979
0.0467594
0.0495795
0.0523485
0.0550567
0.0576945
0.0602526
0.0627218
0.0650934
0.0673588
0.0695099
0.0715388
0.0734384
0.0752018
0.0768227
0.0782956
0.0796154
0.0807778
0.0817794
0.0826174
0.0832901
0.0837964
0.0841366
0.0843118
0.0843243
0.0841775
0.0838761
0.0834262
0.0828352
0.0821119
0.0812668
0.080312
0.0792612
0.07813
0.0769358
0.0756981
0.0744382
0.0731795
0.0719472
0.0707687
0.0696725
0.0686885
0.0678471
0.0671763
0.0667041
0.0664819
0.0665436
0.0016319
0.00154414
0.00122547
0.000700415
7.464e-06
-0.000826745
-0.00177618
-0.00281402
-0.00391398
-0.00505083
-0.00620079
-0.0073417
-0.00845316
-0.00951658
-0.0105152
-0.011434
-0.0122597
-0.0129806
-0.0135865
-0.0140688
-0.0144201
-0.0146344
-0.0147067
-0.0146334
-0.0144116
-0.0140397
-0.0135169
-0.0128431
-0.0120192
-0.0110467
-0.00992783
-0.0086656
-0.00726347
-0.00572553
-0.0040564
-0.00226121
-0.000345549
0.00168453
0.00382258
0.00606176
0.00839489
0.0108145
0.0133126
0.0158813
0.0185121
0.0211964
0.0239254
0.02669
0.0294812
0.0322897
0.035106
0.0379208
0.0407244
0.0435073
0.04626
0.0489731
0.051637
0.0542427
0.0567809
0.0592426
0.0616192
0.0639022
0.0660834
0.0681552
0.0701101
0.0719411
0.0736419
0.0752065
0.0766295
0.0779064
0.079033
0.0800062
0.0808234
0.0814831
0.0819844
0.0823277
0.0825142
0.082546
0.0824268
0.082161
0.0817545
0.0812145
0.0805495
0.0797693
0.0788855
0.0779109
0.0768602
0.0757495
0.0745968
0.0734214
0.0722447
0.0710892
0.0699791
0.0689396
0.0679966
0.0671765
0.0665041
0.0660047
0.065719
0.0656729
0.0028028
0.00255563
0.00213722
0.00155699
0.000835812
-3.08426e-06
-0.000936808
-0.00194256
-0.00299779
-0.00408063
-0.00517024
-0.006247
-0.00729266
-0.00829046
-0.00922514
-0.0100829
-0.0108516
-0.0115202
-0.0120793
-0.0125206
-0.0128374
-0.0130236
-0.0130748
-0.0129873
-0.0127584
-0.0123863
-0.0118703
-0.0112102
-0.0104067
-0.0094613
-0.008376
-0.00715354
-0.00579721
-0.00431085
-0.00269884
-0.000966014
0.000882307
0.00284038
0.00490204
0.00706077
0.0093097
0.0116416
0.0140491
0.0165243
0.0190592
0.0216456
0.024275
0.0269387
0.029628
0.0323339
0.0350475
0.0377596
0.040461
0.0431426
0.0457952
0.0484098
0.0509773
0.0534888
0.0559355
0.0583089
0.0606005
0.0628024
0.0649066
0.0669059
0.068793
0.0705614
0.072205
0.0737181
0.0750956
0.0763332
0.0774271
0.0783741
0.079172
0.0798194
0.0803155
0.0806607
0.0808562
0.0809044
0.0808084
0.0805727
0.080203
0.079706
0.0790899
0.078364
0.0775389
0.0766269
0.0756413
0.0745972
0.0735109
0.0724001
0.0712838
0.0701823
0.0691167
0.0681092
0.0671822
0.0663582
0.0656594
0.0651082
0.0647288
0.0645335
0.00418512
0.0037518
0.00321045
0.00255343
0.00178172
0.000915348
-2.55262e-05
-0.00102175
-0.00205418
-0.00310399
-0.00415304
-0.00518409
-0.00618097
-0.00712869
-0.00801348
-0.00882284
-0.00954556
-0.0101716
-0.0106923
-0.0111
-0.0113881
-0.0115513
-0.0115852
-0.0114863
-0.011252
-0.0108808
-0.0103717
-0.00972471
-0.00894037
-0.00801999
-0.00696552
-0.00577951
-0.00446509
-0.00302589
-0.00146606
0.000209789
0.0019966
0.0038889
0.00588081
0.00796608
0.0101381
0.0123901
0.0147147
0.0171046
0.0195521
0.0220491
0.0245877
0.0271594
0.0297558
0.0323683
0.0349882
0.0376068
0.0402153
0.0428048
0.0453665
0.0478917
0.0503716
0.0527978
0.0551616
0.057455
0.0596699
0.0617984
0.0638331
0.0657669
0.0675929
0.0693049
0.0708969
0.0723636
0.0737001
0.0749022
0.0759663
0.0768896
0.0776697
0.0783054
0.0787961
0.079142
0.0793445
0.0794056
0.0793285
0.0791175
0.0787778
0.0783159
0.0777394
0.077057
0.0762787
0.0754158
0.0744806
0.0734868
0.0724493
0.071384
0.070308
0.0692392
0.0681963
0.0671984
0.0662648
0.0654147
0.0646677
0.0640434
0.0635473
0.0631755
0.00572887
0.00509314
0.00441228
0.00366141
0.00282101
0.00190826
0.000941003
-6.49009e-05
-0.00109341
-0.00212843
-0.00315429
-0.00415599
-0.00511931
-0.00603095
-0.00687862
-0.00765107
-0.00833816
-0.00893079
-0.00942094
-0.00980163
-0.0100669
-0.0102116
-0.0102318
-0.0101243
-0.00988654
-0.00951712
-0.00901522
-0.00838074
-0.00761426
-0.00671703
-0.00569088
-0.00453823
-0.00326205
-0.00186582
-0.0003535
0.0012705
0.00300136
0.00483383
0.00676229
0.00878077
0.0108829
0.0130622
0.0153115
0.0176239
0.0199919
0.0224079
0.0248639
0.0273521
0.0298643
0.0323921
0.0349272
0.0374612
0.0399856
0.0424918
0.0449714
0.0474159
0.0498168
0.052166
0.0544552
0.0566766
0.0588224
0.060885
0.0628573
0.0647323
0.0665036
0.0681649
0.0697107
0.0711358
0.0724355
0.0736058
0.0746431
0.0755448
0.0763086
0.0769333
0.0774183
0.0777639
0.0779712
0.0780422
0.07798
0.0777885
0.0774726
0.0770384
0.0764929
0.0758442
0.0751017
0.0742756
0.0733772
0.0724191
0.0714146
0.070378
0.0693246
0.0682701
0.0672308
0.0662233
0.065264
0.064369
0.0635558
0.0628414
0.0622119
0.0616467
0.00738949
0.00654261
0.00571113
0.00485352
0.00393009
0.00295561
0.00194605
0.000914307
-0.000126337
-0.00116227
-0.00218008
-0.0031668
-0.00411004
-0.00499811
-0.00582014
-0.00656613
-0.00722696
-0.00779445
-0.00826135
-0.00862133
-0.00886894
-0.0089996
-0.00900957
-0.00889591
-0.00865647
-0.00828984
-0.00779533
-0.0071729
-0.00642315
-0.00554728
-0.00454707
-0.00342485
-0.00218346
-0.000826233
0.000643014
0.00222005
0.00390024
0.00567856
0.00754961
0.00950765
0.0115466
0.0136601
0.0158415
0.0180838
0.02038
0.0227227
0.0251043
0.0275171
0.0299533
0.0324048
0.0348636
0.0373214
0.0397701
0.0422015
0.0446073
0.0469794
0.0493095
0.0515898
0.0538123
0.0559693
0.0580534
0.0600572
0.0619738
0.0637966
0.0655191
0.0671354
0.0686401
0.0700282
0.0712951
0.072437
0.0734504
0.0743325
0.0750815
0.0756958
0.076175
0.0765192
0.0767295
0.0768077
0.0767565
0.0765797
0.0762819
0.0758685
0.0753462
0.0747224
0.0740056
0.0732053
0.0723317
0.0713961
0.0704105
0.0693878
0.0683414
0.0672851
0.0662332
0.0651998
0.0641988
0.0632435
0.0623498
0.0615324
0.0607579
0.05999
0.00912833
0.00806667
0.00707765
0.00610395
0.00508641
0.00403792
0.00297299
0.00190191
0.000835498
-0.000214838
-0.00123773
-0.00222206
-0.00315714
-0.00403279
-0.0048395
-0.00556844
-0.00621152
-0.00676147
-0.00721181
-0.00755684
-0.0077917
-0.00791228
-0.00791521
-0.00779787
-0.00755835
-0.00719541
-0.00670849
-0.00609763
-0.00536348
-0.00450727
-0.00353073
-0.00243612
-0.00122619
9.5835e-05
0.00152628
0.00306105
0.00469568
0.00642532
0.00824478
0.0101485
0.0121307
0.0141852
0.0163055
0.018485
0.0207168
0.0229938
0.0253088
0.0276541
0.0300224
0.0324056
0.0347962
0.037186
0.0395673
0.041932
0.0442721
0.0465797
0.048847
0.0510661
0.0532294
0.0553295
0.057359
0.0593109
0.0611784
0.062955
0.0646346
0.0662113
0.0676799
0.0690355
0.0702736
0.0713903
0.0723824
0.0732473
0.0739827
0.0745874
0.0750607
0.0754027
0.0756143
0.0756971
0.0756537
0.0754873
0.0752022
0.0748036
0.0742973
0.0736902
0.0729901
0.0722055
0.0713458
0.070421
0.069442
0.0684201
0.0673672
0.0662953
0.0652167
0.0641437
0.0630877
0.0620597
0.0610742
0.0601441
0.0592174
0.0582424
0.010912
0.00963533
0.00848498
0.00738868
0.00626869
0.00513655
0.00400564
0.00288404
0.00178041
0.000704174
-0.000335107
-0.00132802
-0.00226541
-0.00313851
-0.00393907
-0.00465939
-0.0052924
-0.00583169
-0.00627153
-0.00660689
-0.00683347
-0.00694764
-0.00694646
-0.00682763
-0.0065895
-0.00623104
-0.00575185
-0.00515207
-0.00443243
-0.00359419
-0.00263908
-0.00156935
-0.000387659
0.000902844
0.00229861
0.00379566
0.00538967
0.00707593
0.00884943
0.0107048
0.0126365
0.0146384
0.0167045
0.0188281
0.0210028
0.0232215
0.0254772
0.0277628
0.0300708
0.0323936
0.0347238
0.0370536
0.0393754
0.0416812
0.0439635
0.0462145
0.0484265
0.050592
0.0527035
0.0547538
0.0567357
0.0586423
0.060467
0.0622035
0.0638458
0.0653882
0.0668255
0.0681529
0.0693659
0.0704609
0.0714345
0.0722841
0.0730075
0.0736034
0.0740709
0.07441
0.0746215
0.0747067
0.0746679
0.0745081
0.0742311
0.0738415
0.0733448
0.0727472
0.0720556
0.0712779
0.0704223
0.069498
0.0685146
0.0674821
0.0664108
0.0653114
0.0641944
0.0630702
0.0619484
0.0608377
0.0597517
0.0587021
0.057619
0.0564362
0.0127117
0.011222
0.00990875
0.00868554
0.00745702
0.00623376
0.00502841
0.00384715
0.00269673
0.00158489
0.000519541
-0.000491414
-0.00144023
-0.00231944
-0.00312197
-0.00384118
-0.00447095
-0.00500572
-0.00544052
-0.00577097
-0.0059933
-0.0061044
-0.00610172
-0.00598334
-0.00574789
-0.00539458
-0.00492316
-0.00433392
-0.00362767
-0.00280573
-0.00186988
-0.000822327
0.000334264
0.00159683
0.00296192
0.00442565
0.00598382
0.00763186
0.00936488
0.0111777
0.0130649
0.0150206
0.0170389
0.0191135
0.021238
0.0234055
0.0256094
0.0278425
0.0300978
0.0323679
0.0346454
0.0369228
0.0391927
0.0414474
0.0436794
0.0458813
0.0480455
0.0501647
0.0522316
0.0542389
0.0561799
0.0580477
0.0598359
0.0615381
0.0631487
0.0646619
0.0660726
0.067376
0.0685679
0.0696444
0.0706022
0.0714387
0.0721516
0.0727395
0.0732015
0.0735373
0.0737475
0.0738332
0.0737964
0.0736397
0.0733666
0.0729811
0.0724883
0.0718936
0.0712033
0.0704245
0.0695645
0.0686316
0.0676341
0.066581
0.0654813
0.0643442
0.0631788
0.0619939
0.0607973
0.0595961
0.0584031
0.0572293
0.0559878
0.0545986
0.0145025
0.0128031
0.011327
0.00997426
0.0086329
0.00731286
0.00602639
0.00477804
0.00357295
0.00241735
0.00131773
0.000280627
-0.000687501
-0.00158036
-0.00239196
-0.00311665
-0.00374924
-0.00428496
-0.00471957
-0.00504932
-0.00527101
-0.00538199
-0.00538014
-0.00526391
-0.00503222
-0.00468454
-0.00422082
-0.0036415
-0.00294749
-0.00214018
-0.00122139
-0.00019338
0.000941218
0.00217938
0.00351769
0.00495241
0.0064794
0.00809421
0.00979209
0.011568
0.0134165
0.0153322
0.0173092
0.0193413
0.0214223
0.0235457
0.0257048
0.0278927
0.0301026
0.0323272
0.0345594
0.036792
0.0390175
0.0412285
0.0434178
0.0455779
0.0477015
0.0497815
0.0518106
0.0537819
0.0556885
0.0575238
0.0592815
0.0609553
0.0625394
0.0640285
0.0654172
0.066701
0.0678754
0.0689367
0.0698815
0.0707071
0.0714112
0.0719922
0.0724491
0.0727814
0.0729894
0.0730741
0.073037
0.0728805
0.0726075
0.0722218
0.0717278
0.0711302
0.0704349
0.069648
0.0687762
0.0678266
0.0668068
0.0657245
0.0645877
0.0634043
0.0621821
0.0609286
0.0596501
0.0583522
0.0570476
0.0557465
0.0543461
0.0527534
0.0162629
0.0143579
0.0127199
0.0112363
0.00977918
0.00835818
0.00698539
0.005664
0.00439777
0.00319165
0.00205085
0.000980698
-1.34933e-05
-0.000926511
-0.00175335
-0.00248931
-0.00313
-0.00367147
-0.00411014
-0.0044429
-0.0046671
-0.00478054
-0.00478153
-0.00466887
-0.00444182
-0.00410009
-0.00364385
-0.00307371
-0.00239071
-0.00159633
-0.000692432
0.000318681
0.00143436
0.00265158
0.00396699
0.00537689
0.00687726
0.00846374
0.0101317
0.0118761
0.0136919
0.0155735
0.0175153
0.0195113
0.0215555
0.0236415
0.0257627
0.0279125
0.0300841
0.0322705
0.0344647
0.0366596
0.0388481
0.0410227
0.0431764
0.0453019
0.0473921
0.0494397
0.0514379
0.0533797
0.0552585
0.0570675
0.0588006
0.0604516
0.0620147
0.0634845
0.064856
0.0661242
0.067285
0.0683345
0.0692691
0.0700862
0.0707833
0.0713586
0.071811
0.0721398
0.0723451
0.0724275
0.0723883
0.0722294
0.0719535
0.0715638
0.071064
0.0704587
0.0697528
0.0689517
0.0680614
0.0670883
0.0660389
0.0649201
0.0637388
0.0625018
0.0612159
0.0598873
0.0585211
0.0571219
0.0557021
0.054272
0.0527133
0.0509207
0.0179741
0.0158678
0.0140696
0.0124548
0.01088
0.00935505
0.00789196
0.00649281
0.0051602
0.00389796
0.00271022
0.00160121
0.000575216
-0.000363523
-0.00121092
-0.00196312
-0.00261653
-0.0031679
-0.00361433
-0.0039533
-0.0041827
-0.0043008
-0.00430632
-0.0041984
-0.00397662
-0.00364096
-0.00319183
-0.00263002
-0.00195672
-0.00117348
-0.000282275
0.000714574
0.00181438
0.00301411
0.00431044
0.00569969
0.00717792
0.00874085
0.0103839
0.0121023
0.0138909
0.0157443
0.0176571
0.0196234
0.0216372
0.0236923
0.0257824
0.027901
0.0300413
0.0321965
0.0343598
0.0365242
0.0386827
0.0408281
0.0429533
0.0450512
0.0471148
0.049137
0.051111
0.0530298
0.0548869
0.0566758
0.0583901
0.0600239
0.0615713
0.063027
0.0643857
0.0656427
0.0667937
0.0678346
0.0687621
0.0695731
0.0702651
0.0708361
0.0712849
0.0716105
0.0718128
0.0718921
0.0718493
0.0716861
0.0714046
0.0710076
0.0704984
0.069881
0.0691596
0.0683391
0.0674247
0.0664221
0.065337
0.0641754
0.0629432
0.0616466
0.0602911
0.0588821
0.0574239
0.0559197
0.0543824
0.0528223
0.0511064
0.0491178
0.0196194
0.0173164
0.0153601
0.0136142
0.0119208
0.0102897
0.00873335
0.00725276
0.00584957
0.00452665
0.00328718
0.00213445
0.00107183
0.000102654
-0.00076982
-0.00154251
-0.00221257
-0.0027774
-0.00323475
-0.00358266
-0.00381953
-0.0039441
-0.00395549
-0.0038532
-0.00363709
-0.00330745
-0.00286489
-0.00231042
-0.00164537
-0.00087144
9.33961e-06
0.000994582
0.00208156
0.00326724
0.00454827
0.005921
0.00738153
0.00892564
0.0105489
0.0122465
0.0140134
0.0158444
0.0177341
0.0196768
0.0216665
0.0236974
0.025763
0.027857
0.0299728
0.0321038
0.0342432
0.0363841
0.0385196
0.0406427
0.0427464
0.0448236
0.0468675
0.0488709
0.0508272
0.0527295
0.0545713
0.056346
0.0580474
0.0596696
0.0612065
0.0626529
0.0640036
0.0652536
0.0663986
0.0674346
0.0683579
0.0691654
0.0698544
0.0704228
0.0708691
0.0711922
0.0713915
0.0714671
0.0714198
0.0712506
0.0709614
0.0705544
0.0700327
0.0693994
0.0686585
0.0678141
0.0668708
0.0658336
0.0647075
0.0634977
0.0622095
0.060848
0.0594182
0.0579247
0.0563707
0.0547589
0.0531025
0.051412
0.0495405
0.0473598
0.0211843
0.0186888
0.0165768
0.0147005
0.0128879
0.0111494
0.0094975
0.00793263
0.00645551
0.00506823
0.00377312
0.00257266
0.00146938
0.000465826
-0.000435514
-0.00123228
-0.0019223
-0.00250361
-0.00297452
-0.00333362
-0.00357982
-0.0037123
-0.00373058
-0.0036345
-0.00342425
-0.00310034
-0.00266365
-0.00211538
-0.00145704
-0.000690462
0.000182224
0.00115856
0.00223579
0.00341084
0.00468033
0.00604065
0.00748787
0.00901786
0.0106262
0.0123082
0.0140589
0.0158732
0.0177457
0.0196708
0.0216428
0.0236556
0.0257033
0.0277794
0.0298775
0.031991
0.0341133
0.0362376
0.038357
0.0404646
0.0425536
0.044617
0.0466478
0.0486392
0.0505843
0.0524764
0.054309
0.0560756
0.0577699
0.0593859
0.0609177
0.0623599
0.0637071
0.0649545
0.0660975
0.0671321
0.0680544
0.0688611
0.0695495
0.0701172
0.0705624
0.0708837
0.0710805
0.0711524
0.0710997
0.0709234
0.0706249
0.0702059
0.0696689
0.0690168
0.0682529
0.0673808
0.0664046
0.0653285
0.064157
0.0628946
0.0615459
0.0601153
0.0586072
0.0570256
0.055373
0.0536516
0.051875
0.0500542
0.0480288
0.0456597
0.0226556
0.0199719
0.0177064
0.0157005
0.0137688
0.0119219
0.010173
0.00852166
0.00696803
0.00551343
0.00415953
0.00290804
0.00176078
0.000719592
-0.000213753
-0.00103756
-0.00175027
-0.00235052
-0.00283716
-0.00320929
-0.00346628
-0.00360774
-0.0036336
-0.00354404
-0.00333955
-0.0030209
-0.00258921
-0.00204585
-0.00139254
-0.000631255
0.00023576
0.00120597
0.00227655
0.0034444
0.00470614
0.00605811
0.00749643
0.00901694
0.0106153
0.0122868
0.0140267
0.0158299
0.017691
0.0196045
0.0215648
0.023566
0.0256021
0.0276667
0.0297537
0.0318565
0.0339684
0.0360828
0.038193
0.040292
0.042373
0.0444292
0.0464537
0.0484395
0.0503799
0.0522682
0.0540978
0.0558622
0.0575551
0.0591706
0.0607025
0.0621455
0.0634941
0.0647433
0.0658884
0.0669253
0.0678499
0.0686589
0.0693492
0.0699182
0.0703639
0.0706847
0.0708795
0.0709479
0.0708898
0.0707057
0.0703966
0.0699639
0.0694097
0.0687364
0.0679467
0.0670438
0.0660312
0.0649126
0.0636919
0.0623731
0.0609602
0.0594571
0.0578676
0.0561951
0.0544417
0.0526091
0.0507115
0.0487606
0.046583
0.0440289
0.0240214
0.0211533
0.0187367
0.0166022
0.0145516
0.012596
0.0107489
0.00900954
0.00737738
0.00585318
0.00443795
0.00313279
0.00193888
0.000857392
-0.000110512
-0.000963753
-0.00170137
-0.00232253
-0.00282661
-0.00321318
-0.00348203
-0.00363322
-0.00366703
-0.00358401
-0.00338493
-0.00307084
-0.00264306
-0.0021032
-0.00145311
-0.000694947
0.000168917
0.00113584
0.00220295
0.00336708
0.00462484
0.00597256
0.00740632
0.008922
0.0105152
0.0121814
0.0139158
0.0157134
0.0175688
0.0194767
0.0214314
0.0234272
0.0254579
0.0275176
0.0296
0.0316986
0.0338068
0.0359181
0.0380257
0.0401228
0.0422026
0.0442583
0.046283
0.0482698
0.0502119
0.0521026
0.0539354
0.0557036
0.057401
0.0590214
0.0605589
0.0620078
0.0633625
0.0646181
0.0657696
0.0668126
0.0677431
0.0685574
0.0692523
0.069825
0.0702731
0.0705949
0.0707889
0.0708544
0.070791
0.0705987
0.0702783
0.0698309
0.0692579
0.0685614
0.0677437
0.0668075
0.0657557
0.0645917
0.0633189
0.0619406
0.0604605
0.0588819
0.0572082
0.0554426
0.0535866
0.0516416
0.0496226
0.0475419
0.0452137
0.0424776
0.0252712
0.0222219
0.0196563
0.0173944
0.0152254
0.0131607
0.0112148
0.0093863
0.00767413
0.00607854
0.00460004
0.00323913
0.00199642
0.000872531
-0.00013196
-0.00101653
-0.00178076
-0.00242435
-0.00294714
-0.00334915
-0.0036306
-0.00379192
-0.00383377
-0.00375701
-0.00356275
-0.00325228
-0.00282716
-0.00228918
-0.00164038
-0.000883057
-1.97249e-05
0.000946863
0.00201373
0.00317768
0.00443527
0.00578282
0.0072164
0.00873186
0.0103249
0.0119908
0.013725
0.0155224
0.0173779
0.0192859
0.0212411
0.0232375
0.0252694
0.0273305
0.0294147
0.0315156
0.0336268
0.0357416
0.0378533
0.0399552
0.0420404
0.0441022
0.0461336
0.0481279
0.0500781
0.0519776
0.0538197
0.0555978
0.0573055
0.0589366
0.060485
0.0619449
0.0633108
0.0645773
0.0657395
0.0667928
0.0677328
0.0685559
0.0692583
0.0698373
0.0702901
0.0706146
0.0708092
0.0708728
0.0708045
0.0706043
0.0702724
0.0698095
0.0692167
0.0684957
0.0676482
0.0666767
0.0655836
0.0643718
0.0630442
0.061604
0.0600541
0.0583977
0.0566378
0.0547771
0.052817
0.0507588
0.048618
0.0464079
0.0439302
0.0410147
0.0263947
0.0231674
0.0204547
0.0180666
0.0157796
0.013606
0.0115608
0.00964237
0.00784907
0.00618078
0.0046375
0.00321925
0.00192612
0.000758195
-0.000284441
-0.00120178
-0.00199391
-0.002661
-0.00320336
-0.00362144
-0.00391586
-0.0040874
-0.00413707
-0.00406607
-0.00387577
-0.00356777
-0.00314383
-0.00260596
-0.00195636
-0.00119747
-0.000331949
0.00063733
0.00170729
0.00287466
0.00413595
0.00548744
0.00692521
0.00844509
0.0100427
0.0117136
0.0134528
0.0152556
0.0171166
0.0190307
0.0209922
0.0229955
0.0250346
0.0271035
0.0291959
0.0313057
0.0334263
0.0355512
0.0376737
0.039787
0.0418843
0.0439588
0.0460036
0.0480118
0.0499766
0.0518912
0.0537488
0.0555428
0.0572667
0.0589142
0.060479
0.0619553
0.0633373
0.0646197
0.0657971
0.0668648
0.0678184
0.0686537
0.069367
0.0699551
0.070415
0.0707444
0.0709413
0.0710043
0.0709322
0.0707245
0.0703812
0.0699026
0.0692895
0.068543
0.0676647
0.0666564
0.0655203
0.0642588
0.0628746
0.0613702
0.0597486
0.0580124
0.0561644
0.0542072
0.0521419
0.0499695
0.0477067
0.0453674
0.0427413
0.0396483
0.0273829
0.0239801
0.0211221
0.0186087
0.0162044
0.013922
0.0117774
0.00976841
0.00789322
0.00615127
0.00454213
0.00306536
0.0017206
0.000507459
-0.00057445
-0.00152558
-0.00234648
-0.00303776
-0.00360019
-0.00403461
-0.00434202
-0.00452357
-0.00458058
-0.00451454
-0.00432714
-0.00402021
-0.00359579
-0.00305605
-0.0024034
-0.00164041
-0.000769876
0.000205216
0.00128168
0.00245615
0.00372506
0.00508467
0.00653103
0.00805997
0.0096671
0.0113479
0.0130975
0.014911
0.0167834
0.0187093
0.0206831
0.0226992
0.0247518
0.0268347
0.0289419
0.031067
0.0332036
0.0353451
0.0374849
0.0396163
0.0417323
0.0438261
0.0458908
0.0479195
0.0499053
0.0518413
0.0537207
0.0555367
0.0572828
0.0589525
0.0605395
0.0620376
0.063441
0.064744
0.0659414
0.0670281
0.0679993
0.0688507
0.0695783
0.0701786
0.0706485
0.0709852
0.0711865
0.0712505
0.0711759
0.0709618
0.0706077
0.0701137
0.06948
0.0687076
0.0677977
0.0667516
0.0655713
0.0642588
0.0628163
0.0612463
0.0595513
0.0577338
0.0557963
0.0537412
0.0515696
0.0492824
0.0468972
0.0444287
0.041655
0.0383858
0.0282269
0.0246508
0.0216489
0.0190111
0.0164901
0.0140993
0.0118551
0.00975535
0.00779778
0.0059815
0.00430574
0.00276965
0.00137244
0.000113282
-0.00100864
-0.0019942
-0.00284437
-0.0035602
-0.00414283
-0.00459352
-0.00491363
-0.00510466
-0.00516824
-0.00510614
-0.00492032
-0.00461288
-0.00418609
-0.00364235
-0.00298422
-0.00221445
-0.00133595
-0.000351823
0.000734632
0.00191995
0.0032005
0.00457247
0.00603188
0.00757452
0.00919603
0.0108918
0.0126571
0.0144869
0.0163762
0.0183196
0.0203117
0.0223467
0.0244189
0.0265221
0.0286504
0.0307973
0.0329564
0.0351211
0.0372849
0.0394409
0.0415822
0.043702
0.0457932
0.047849
0.0498622
0.0518261
0.0537336
0.0555779
0.0573523
0.0590501
0.0606649
0.0621904
0.0636206
0.0649496
0.0661718
0.067282
0.0682752
0.0691468
0.0698925
0.0705086
0.0709915
0.0713383
0.0715463
0.0716135
0.071538
0.0713188
0.0709549
0.070446
0.0697922
0.068994
0.068052
0.0669677
0.0657423
0.0643778
0.062876
0.0612391
0.0594694
0.0575693
0.055541
0.053387
0.0511082
0.0487055
0.0461974
0.0435997
0.0406787
0.0372342
0.0289185
0.0251707
0.0220261
0.0192648
0.0166276
0.0141285
0.0117849
0.0095943
0.00755405
0.00566305
0.00392019
0.00232428
0.000874123
-0.000431497
-0.00159381
-0.0026141
-0.00349371
-0.00423408
-0.00483674
-0.00530332
-0.00563554
-0.00583523
-0.00590432
-0.00584488
-0.00565912
-0.00534937
-0.00491815
-0.00436806
-0.00370187
-0.00292247
-0.00203292
-0.00103643
6.3601e-05
0.00126361
0.00255987
0.0039485
0.00542547
0.00698654
0.00862733
0.0103432
0.0121295
0.0139811
0.0158929
0.0178596
0.0198758
0.0219358
0.0240337
0.0261636
0.0283193
0.0304944
0.0326826
0.0348771
0.0370714
0.0392587
0.041432
0.0435844
0.0457088
0.0477982
0.0498456
0.0518437
0.0537858
0.0556646
0.0574735
0.0592056
0.0608542
0.0624128
0.0638753
0.0652355
0.0664877
0.0676263
0.0686461
0.0695422
0.0703101
0.0709457
0.0714451
0.071805
0.0720226
0.0720953
0.0720211
0.0717985
0.0714262
0.0709036
0.0702303
0.0694065
0.0684328
0.06731
0.0660392
0.064622
0.0630601
0.0613555
0.0595102
0.0575263
0.0554063
0.0531524
0.0507656
0.0482466
0.0456152
0.0428879
0.0398195
0.0362
0.0294494
0.0255314
0.022245
0.0193609
0.0166078
0.0140009
0.011558
0.00927647
0.00715344
0.00518753
0.00337735
0.00172139
0.000218078
-0.00113416
-0.00233693
-0.0033919
-0.0043008
-0.00506542
-0.00568764
-0.00616944
-0.00651289
-0.00672014
-0.00679343
-0.00673511
-0.00654763
-0.00623358
-0.00579566
-0.00523672
-0.0045597
-0.00376767
-0.00286384
-0.00185153
-0.000734239
0.000484373
0.0018005
0.00321017
0.00470928
0.00629356
0.00795858
0.00969974
0.0115122
0.0133911
0.0153311
0.017327
0.0193732
0.0214642
0.0235941
0.0257569
0.0279464
0.0301562
0.0323799
0.0346109
0.0368424
0.0390676
0.0412796
0.0434713
0.0456356
0.0477653
0.0498533
0.0518924
0.0538755
0.0557954
0.057645
0.0594175
0.061106
0.0627037
0.0642043
0.0656013
0.0668888
0.0680609
0.0691122
0.0700375
0.0708319
0.071491
0.0720107
0.0723872
0.0726175
0.0726985
0.0726281
0.0724041
0.0720252
0.0714903
0.0707987
0.0699503
0.0689452
0.0677842
0.066468
0.0649979
0.0633755
0.0616024
0.0596807
0.0576124
0.0553997
0.0530451
0.0505493
0.0479134
0.0451579
0.0423005
0.0390842
0.0352895
0.0298118
0.0257244
0.0222971
0.0192905
0.0164221
0.0137076
0.0111655
0.00879318
0.00658741
0.00454659
0.00266908
0.000953048
-0.000603368
-0.0020021
-0.00324511
-0.00433444
-0.00527217
-0.00606043
-0.00670145
-0.00719753
-0.00755106
-0.00776452
-0.00784044
-0.00778146
-0.00759027
-0.00726969
-0.00682264
-0.00625215
-0.00556138
-0.00475356
-0.00383206
-0.00280033
-0.00166198
-0.000420751
0.000919464
0.00235462
0.00388053
0.00549286
0.00718714
0.00895873
0.0108028
0.0127144
0.0146883
0.0167191
0.0188015
0.0209295
0.0230976
0.0252995
0.0275291
0.0297801
0.032046
0.03432
0.0365954
0.0388653
0.0411227
0.0433604
0.0455714
0.0477482
0.0498837
0.0519704
0.0540011
0.0559686
0.0578655
0.0596848
0.0614194
0.0630623
0.0646069
0.0660465
0.0673749
0.068586
0.069674
0.0706333
0.0714589
0.0721459
0.0726899
0.0730869
0.0733333
0.0734259
0.0733619
0.0731392
0.0727558
0.0722104
0.071502
0.0706301
0.0695947
0.068396
0.0670347
0.0655118
0.0638287
0.0619869
0.0599883
0.0578349
0.0555289
0.0530726
0.050467
0.0477132
0.0448328
0.0418446
0.0384797
0.0345088
0.0299979
0.0257418
0.0221738
0.0190452
0.0160617
0.0132398
0.0105988
0.00813576
0.00584739
0.00373182
0.00178714
1.12654e-05
-0.00159799
-0.00304285
-0.00432564
-0.00544873
-0.00641454
-0.00722557
-0.00788435
-0.0083935
-0.00875572
-0.00897378
-0.00905052
-0.00898884
-0.00879171
-0.00846217
-0.00800334
-0.00741846
-0.00671084
-0.00588392
-0.00494121
-0.00388633
-0.00272298
-0.001455
-8.63755e-05
0.00137878
0.00293621
0.0045815
0.00631012
0.00811739
0.00999846
0.0119483
0.0139618
0.0160335
0.0181578
0.0203291
0.0225415
0.0247889
0.0270651
0.0293638
0.0316784
0.0340021
0.0363281
0.0386495
0.040959
0.0432497
0.0455141
0.0477449
0.0499346
0.0520758
0.054161
0.0561827
0.0581336
0.0600062
0.0617934
0.0634878
0.0650826
0.0665709
0.0679461
0.0692018
0.0703319
0.0713305
0.0721922
0.0729119
0.0734847
0.0739063
0.0741727
0.0742803
0.0742261
0.0740075
0.0736222
0.0730685
0.0723452
0.0714515
0.0703869
0.0691515
0.0677457
0.0661704
0.0644267
0.0625161
0.0604403
0.0582012
0.0558012
0.0532426
0.0505264
0.0476537
0.0446474
0.0415272
0.0380125
0.033864
0.0299999
0.0255752
0.0218669
0.0186164
0.015518
0.0125888
0.00984903
0.00729556
0.00492483
0.00273478
0.000723269
-0.00111206
-0.00277367
-0.00426409
-0.00558595
-0.00674196
-0.00773487
-0.00856751
-0.00924275
-0.0097635
-0.0101328
-0.0103536
-0.0104291
-0.0103625
-0.0101569
-0.00981577
-0.00934231
-0.00873997
-0.00801227
-0.00716278
-0.00619519
-0.00511326
-0.00392084
-0.00262186
-0.0012204
0.000279371
0.0018731
0.00355633
0.00532445
0.00717271
0.00909624
0.01109
0.0131487
0.0152671
0.0174395
0.0196601
0.0219231
0.0242224
0.0265517
0.0289046
0.0312745
0.0336546
0.036038
0.0384177
0.0407864
0.0431369
0.0454617
0.0477534
0.0500043
0.0522069
0.0543535
0.0564364
0.058448
0.0603808
0.0622271
0.0639796
0.0656311
0.0671743
0.0686024
0.0699087
0.0710866
0.0721301
0.0730333
0.0737907
0.0743971
0.0748478
0.0751384
0.0752651
0.0752243
0.075013
0.0746288
0.0740695