/*--------------------------------*- C++ -*----------------------------------*\
| =========                 |                                                 |
| \\      /  F ield         | OpenFOAM: The Open Source CFD Toolbox           |
|  \\    /   O peration     | Version:  v1912                                 |
|   \\  /    A nd           | Website:  www.openfoam.com                      |
|    \\/     M anipulation  |                                                 |
\*---------------------------------------------------------------------------*/
FoamFile
{
    version     2.0;
    format      ascii;
    class       volVectorField;
    location    "6.78";
    object      grad(rho);
}
// * * * * * * * * * * * * * * * * * * * * * * * * * * * * * * * * * * * * * //

dimensions      [1 -4 0 0 0 0 0];


internalField   nonuniform List<vector> 
1900
(
(86994.3 -0.112821 0)
(-92380.8 -0.220266 0)
(-4240.12 0.0837594 0)
(-858.02 0.209617 0)
(-1452.08 1.19213 0)
(-1399.93 1.48997 0)
(-968.922 4.62738 0)
(-571.212 -1.25923 0)
(-352.608 26.6191 0)
(668.367 -38.8889 0)
(86994 -0.189211 0)
(-92380.6 -0.258702 0)
(-4239.69 0.31159 0)
(-856.911 0.646221 0)
(-1450.8 2.37923 0)
(-1396.5 2.20302 0)
(-971.672 2.76002 0)
(-549.22 -12.54 0)
(-390.237 -15.5972 0)
(-281.411 -96.7412 0)
(86993.9 1.45661e-08 0)
(-92380.3 4.06786e-09 0)
(-4239.21 1.43707e-08 0)
(-855.952 1.0445e-08 0)
(-1450.53 5.56e-09 0)
(-1399.55 6.21725e-10 0)
(-983.665 -2.38032e-09 0)
(-589.569 3.05533e-09 0)
(-436.809 2.61124e-09 0)
(-422.518 -2.64677e-09 0)
(86994 0.189211 0)
(-92380.6 0.258702 0)
(-4239.69 -0.31159 0)
(-856.911 -0.646221 0)
(-1450.8 -2.37923 0)
(-1396.5 -2.20302 0)
(-971.672 -2.76002 0)
(-549.22 12.54 0)
(-390.237 15.5972 0)
(-281.411 96.7412 0)
(86994.3 0.112821 0)
(-92380.8 0.220266 0)
(-4240.12 -0.0837594 0)
(-858.02 -0.209617 0)
(-1452.08 -1.19213 0)
(-1399.93 -1.48997 0)
(-968.922 -4.62738 0)
(-571.212 1.25923 0)
(-352.608 -26.6191 0)
(668.367 38.8889 0)
(-203.922 -802.843 1.24373e-11)
(-2317.05 -586.192 -1.47076e-11)
(-3565.92 -581.818 -1.84505e-11)
(-3832.11 -579.023 0)
(-25628.8 -7294.82 -7.63328e-11)
(-654.082 -973.645 1.22922e-11)
(-1628.83 -706.991 1.47076e-11)
(-3240.9 -632.231 1.84505e-11)
(-6346.69 -133.981 0)
(-24121.5 -6053.18 0)
(-982.263 -8.33472e-09 0)
(-1635.26 -3.81761e-09 0)
(-3011.44 2.96059e-10 0)
(-5992.46 1.06312e-08 0)
(-26309 1.91381e-08 0)
(-654.082 973.645 1.22922e-11)
(-1628.83 706.991 1.47076e-11)
(-3240.9 632.231 1.84505e-11)
(-6346.69 133.981 0)
(-24121.5 6053.18 0)
(-203.922 802.843 -3.70218e-11)
(-2317.05 586.192 -1.47076e-11)
(-3565.92 581.818 -1.84505e-11)
(-3832.11 579.023 -4.90413e-11)
(-25628.8 7294.82 7.63328e-11)
(-43722.2 14651 1.76161e-11)
(-15510.4 6382.57 -1.00603e-11)
(-7860.78 3024.1 0)
(-6101.47 2194.76 5.01346e-12)
(-3074.89 1901.04 -1.76285e-12)
(-39242.6 18976.4 -9.02869e-12)
(-18056.5 5542.5 5.12626e-12)
(-8874.13 1776.67 0)
(-6320.21 1325.17 -3.1847e-12)
(-4323.14 990.781 4.62485e-13)
(-40787.6 7.85006e-09 0)
(-19916.2 6.49053e-09 0)
(-9177.75 -5.90474e-09 0)
(-6459.97 6.3856e-09 1.28985e-12)
(-4343.04 8.24552e-09 -9.2497e-13)
(-39242.6 -18976.4 -9.02869e-12)
(-18056.5 -5542.5 5.12626e-12)
(-8874.13 -1776.67 0)
(-6320.21 -1325.17 -3.1847e-12)
(-4323.14 -990.781 4.62485e-13)
(-43722.2 -14651 9.02869e-12)
(-15510.4 -6382.57 -1.92222e-13)
(-7860.78 -3024.1 0)
(-6101.47 -2194.76 6.60991e-14)
(-3074.89 -1901.04 1.76285e-12)
(-479.82 -4654.04 0)
(-1139.4 -3755.35 0)
(-1679.12 -2916.66 0)
(-725.201 -1821.42 0)
(2486.66 -2001.21 0)
(5076.64 -1184.83 0)
(3171.98 214.406 0)
(739.884 82.0353 0)
(417.811 71.5199 0)
(-368.231 228.099 0)
(-1367.1 531.822 0)
(-1871.03 476.414 0)
(-2166.47 305.077 0)
(-2521.8 210.754 0)
(-2320.45 135.243 0)
(-1419.96 53.4542 0)
(-673.274 11.7304 0)
(-414.446 5.21049 0)
(-349.034 7.6616 0)
(-308.595 7.00711 0)
(-243.269 1.65791 0)
(-157.37 -1.82505 0)
(-85.6205 -2.73753 0)
(-43.5784 -2.58046 0)
(-22.8617 -2.24447 0)
(-12.1676 -1.9919 0)
(-2.27614 -1.89744 0)
(9.61598 -1.82892 0)
(21.5939 -1.71822 0)
(32.7338 -1.58872 0)
(54.1695 -1.62184 0)
(80.6343 -0.840982 0)
(113.319 -0.806589 0)
(154.435 0.92763 0)
(342.406 -0.953656 0)
(1168.22 -2.7202 0)
(2375.04 -7.267 0)
(2517.89 8.8774 0)
(947.188 7.66262 0)
(2006.76 5.12651 0)
(-1652.19 -1848.32 0)
(-1019.52 -1778.91 0)
(-1429.36 -1379.87 0)
(-598.897 -863.636 0)
(2541.11 -937.074 0)
(5173.07 -1010.48 0)
(3176.33 -247.49 0)
(756.273 -524.946 0)
(528.361 -225.419 0)
(-219.67 46.5198 0)
(-1262.8 233.514 0)
(-1900.31 194.616 0)
(-2223.87 123.181 0)
(-2557.73 100.358 0)
(-2342.67 66.6389 0)
(-1431.63 23.6101 0)
(-677.064 4.08745 0)
(-414.546 2.54483 0)
(-349.011 3.76164 0)
(-309.205 2.55965 0)
(-243.997 0.681041 0)
(-157.745 -0.832544 0)
(-85.6746 -1.17815 0)
(-43.5293 -1.08183 0)
(-22.8074 -0.935915 0)
(-12.1367 -0.837308 0)
(-2.2635 -0.812739 0)
(9.62952 -0.805504 0)
(21.6146 -0.774701 0)
(32.7378 -0.736561 0)
(54.2382 -0.781629 0)
(80.6896 -0.452471 0)
(113.476 -0.51971 0)
(154.385 0.292986 0)
(342.021 -0.913161 0)
(1167.43 -1.42739 0)
(2376 -4.54711 0)
(2518.8 3.50839 0)
(946.257 0.726075 0)
(2006.7 1.03894 0)
(-1447.43 -3.68513e-08 0)
(-1003.13 -4.35692e-08 0)
(-1412.86 -1.87002e-08 0)
(-596.388 1.38152e-08 0)
(2443.94 4.75821e-08 0)
(5277.25 6.20352e-08 0)
(3313.23 -3.86761e-08 0)
(746.305 2.10095e-07 0)
(584.056 2.29247e-07 0)
(-234.724 -1.3405e-07 0)
(-1324.02 -1.8072e-07 0)
(-1903.13 -5.21926e-08 0)
(-2193.89 -1.62375e-08 0)
(-2538.24 -2.73559e-08 0)
(-2342.78 -7.07313e-08 0)
(-1438.16 -6.01216e-08 0)
(-679.402 9.39047e-09 0)
(-414.54 -2.26082e-09 0)
(-349.03 -1.32742e-08 0)
(-309.491 -1.20348e-08 0)
(-244.256 -1.71984e-09 0)
(-157.911 6.11632e-09 0)
(-85.693 4.57412e-09 0)
(-43.508 9.89108e-10 0)
(-22.7906 -7.26691e-11 0)
(-12.1318 7.50914e-10 0)
(-2.26689 3.89991e-09 0)
(9.62704 7.0045e-09 0)
(21.6139 6.28992e-09 0)
(32.7318 4.04525e-09 0)
(54.2521 -3.58905e-09 0)
(80.7105 -3.89184e-09 0)
(113.536 8.68396e-09 0)
(154.321 -1.18249e-08 0)
(341.906 2.10337e-09 0)
(1167.16 -1.933e-08 0)
(2376.47 7.76833e-08 0)
(2519.42 2.71863e-08 0)
(946.47 7.99361e-09 0)
(2004.56 1.22197e-07 0)
(-1652.19 1848.32 0)
(-1019.52 1778.91 0)
(-1429.36 1379.87 0)
(-598.897 863.636 0)
(2541.11 937.074 0)
(5173.07 1010.48 0)
(3176.33 247.49 0)
(756.273 524.946 0)
(528.361 225.419 0)
(-219.67 -46.5198 0)
(-1262.8 -233.514 0)
(-1900.31 -194.616 0)
(-2223.87 -123.181 0)
(-2557.73 -100.358 0)
(-2342.67 -66.6389 0)
(-1431.63 -23.6101 0)
(-677.064 -4.08745 0)
(-414.546 -2.54483 0)
(-349.011 -3.76164 0)
(-309.205 -2.55965 0)
(-243.997 -0.681041 0)
(-157.745 0.832544 0)
(-85.6746 1.17815 0)
(-43.5293 1.08183 0)
(-22.8074 0.935915 0)
(-12.1367 0.837308 0)
(-2.2635 0.812739 0)
(9.62952 0.805504 0)
(21.6146 0.774701 0)
(32.7378 0.736561 0)
(54.2382 0.781629 0)
(80.6896 0.452471 0)
(113.476 0.51971 0)
(154.385 -0.292986 0)
(342.021 0.91316 0)
(1167.43 1.42739 0)
(2376 4.54711 0)
(2518.8 -3.50839 0)
(946.257 -0.726075 0)
(2006.7 -1.03894 0)
(-479.82 4654.04 0)
(-1139.4 3755.35 0)
(-1679.12 2916.66 0)
(-725.201 1821.42 0)
(2486.66 2001.21 0)
(5076.64 1184.83 0)
(3171.98 -214.406 0)
(739.884 -82.0353 0)
(417.811 -71.5199 0)
(-368.231 -228.099 0)
(-1367.1 -531.822 0)
(-1871.03 -476.414 0)
(-2166.47 -305.077 0)
(-2521.8 -210.754 0)
(-2320.45 -135.243 0)
(-1419.96 -53.4542 0)
(-673.274 -11.7304 0)
(-414.446 -5.21049 0)
(-349.034 -7.6616 0)
(-308.595 -7.00711 0)
(-243.269 -1.65791 0)
(-157.37 1.82505 0)
(-85.6205 2.73753 0)
(-43.5784 2.58046 0)
(-22.8617 2.24447 0)
(-12.1676 1.9919 0)
(-2.27614 1.89744 0)
(9.61598 1.82892 0)
(21.5939 1.71822 0)
(32.7338 1.58872 0)
(54.1695 1.62184 0)
(80.6343 0.840982 0)
(113.319 0.806589 0)
(154.435 -0.92763 0)
(342.406 0.953655 0)
(1168.22 2.7202 0)
(2375.04 7.267 0)
(2517.89 -8.8774 0)
(947.188 -7.66262 0)
(2006.76 -5.12651 0)
(-2053.68 3796.64 0)
(-1970.71 2453.49 0)
(-2353.68 2055.17 0)
(-1027.09 2637.38 0)
(2204.75 2825.14 0)
(3894.77 1192.57 0)
(2386.7 -987.49 0)
(864.852 -728.686 0)
(564.562 -568.069 0)
(-336.631 -771.515 0)
(-1297.97 -789.866 0)
(-1791.94 -591.873 0)
(-2123.61 -428.025 0)
(-2492.75 -350.54 0)
(-2269.7 -253.81 0)
(-1367.64 -100.464 0)
(-651.183 -23.2152 0)
(-412.111 -9.93612 0)
(-350.111 -13.5495 0)
(-306.144 -12.4204 0)
(-239.298 -3.73981 0)
(-155.422 2.57367 0)
(-85.2634 4.65243 0)
(-43.7818 4.54156 0)
(-23.1137 3.96176 0)
(-12.3186 3.50577 0)
(-2.35111 3.32602 0)
(9.53275 3.19909 0)
(21.4879 2.9881 0)
(32.6819 2.80015 0)
(53.8486 2.77639 0)
(80.2422 1.63328 0)
(112.548 0.976933 0)
(154.42 -1.46109 0)
(343.863 0.838086 0)
(1170.48 4.22414 0)
(2369.83 10.3688 0)
(2510.5 -10.7061 0)
(947.533 -17.4397 0)
(2016.42 -16.1172 0)
(-2581.94 612.664 0)
(-2371.78 426.143 0)
(-1140.19 1080.18 0)
(178.658 2399.97 0)
(1245.55 2336.6 0)
(2036.41 795.855 0)
(1741.68 -631.763 0)
(1077.04 -481.232 0)
(297.847 -831.781 0)
(-598.909 -1134.11 0)
(-1231.06 -1076.91 0)
(-1564.76 -819.888 0)
(-1956.89 -646.503 0)
(-2369.49 -569.868 0)
(-2106.68 -392.003 0)
(-1225.8 -141.125 0)
(-597.884 -33.7891 0)
(-406.383 -17.9044 0)
(-350.85 -20.1721 0)
(-300.456 -16.2351 0)
(-230.95 -5.42619 0)
(-150.328 3.60504 0)
(-83.9157 7.28807 0)
(-44.1349 7.52421 0)
(-23.7247 6.76923 0)
(-12.6993 6.07997 0)
(-2.53148 5.76271 0)
(9.33497 5.50782 0)
(21.2663 5.15972 0)
(32.5576 4.88768 0)
(53.2171 4.82392 0)
(79.1105 3.32577 0)
(110.751 1.90528 0)
(154.309 -1.36392 0)
(347.103 1.50049 0)
(1176.19 6.53178 0)
(2363.44 15.952 0)
(2495.05 -7.29683 0)
(941.789 -23.0898 0)
(2039.94 -22.4209 0)
(-2285.35 -210.507 0)
(-1520.19 606.81 0)
(-451.626 1461.01 0)
(183.636 1373.57 0)
(658.963 1088.26 0)
(1034.35 200.725 0)
(1156.05 -480.147 0)
(672.108 -862.874 0)
(-64.5722 -1131.43 0)
(-572.849 -1258.28 0)
(-995.176 -1081.94 0)
(-1377.18 -873.039 0)
(-1882.68 -798.213 0)
(-2247.5 -755.406 0)
(-1856.55 -478.867 0)
(-1022.45 -156.02 0)
(-532.443 -41.9009 0)
(-398.989 -26.7398 0)
(-348.503 -25.6499 0)
(-291.935 -18.1153 0)
(-220.179 -4.93471 0)
(-143.17 6.06792 0)
(-81.4867 11.1192 0)
(-44.2817 11.8349 0)
(-24.5055 11.0219 0)
(-13.2885 10.1229 0)
(-2.90245 9.60873 0)
(8.9517 9.10619 0)
(20.8903 8.5729 0)
(32.3583 8.15168 0)
(52.3435 8.02318 0)
(77.4297 6.18012 0)
(108.029 4.03297 0)
(154.03 -0.163167 0)
(351.472 3.31287 0)
(1184.41 9.50531 0)
(2356.5 22.1453 0)
(2472.88 -4.73446 0)
(932.959 -27.1759 0)
(2069.4 -24.9418 0)
(-1455.18 -548.315 0)
(-761.047 248.116 0)
(-401.317 170.514 0)
(-180.539 -118.069 0)
(115.36 -267.819 0)
(525.032 -385.693 0)
(716.756 -579.366 0)
(449.438 -1025.45 0)
(-83.1793 -1191.63 0)
(-551.216 -1175.89 0)
(-859.828 -1051.49 0)
(-1291.35 -960.011 0)
(-1843.53 -962.482 0)
(-2061.76 -866.079 0)
(-1529.09 -471.14 0)
(-804.728 -143.537 0)
(-473.305 -49.3025 0)
(-390.723 -35.2945 0)
(-342.539 -29.4522 0)
(-280.494 -17.6762 0)
(-207.646 -2.2268 0)
(-134.858 10.1431 0)
(-78.3584 16.0154 0)
(-44.2287 17.0864 0)
(-25.3744 16.2681 0)
(-14.0611 15.2089 0)
(-3.51125 14.4477 0)
(8.33681 13.6027 0)
(20.3465 12.8535 0)
(32.0278 12.2233 0)
(51.3172 11.9013 0)
(75.2654 9.83855 0)
(104.638 6.96487 0)
(153.615 2.42741 0)
(356.42 5.86384 0)
(1194.34 12.6833 0)
(2349.72 25.406 0)
(2447.52 -3.08228 0)
(922.317 -30.0291 0)
(2097.11 -27.8503 0)
(-1275.88 -1062.84 0)
(-827.499 -718.086 0)
(-804.495 -921.428 0)
(-238.757 -682.666 0)
(401.071 -454.699 0)
(734.129 -401.272 0)
(539.563 -760.941 0)
(82.1057 -1050.16 0)
(-209.55 -1217.23 0)
(-437.806 -1122.84 0)
(-787.143 -1048.78 0)
(-1291.41 -1055.5 0)
(-1792.16 -1085.86 0)
(-1774.03 -860.452 0)
(-1160.28 -390.078 0)
(-615.956 -120.076 0)
(-428.137 -53.9044 0)
(-379.861 -40.7212 0)
(-331.525 -29.7217 0)
(-265.699 -14.025 0)
(-193.371 3.14767 0)
(-125.591 16.3737 0)
(-74.7959 22.5991 0)
(-44.0383 23.8619 0)
(-26.3147 23.0456 0)
(-15.0427 21.8616 0)
(-4.45028 20.8114 0)
(7.4154 19.617 0)
(19.5611 18.7112 0)
(31.4408 17.8605 0)
(50.0455 17.3057 0)
(72.6727 15.1581 0)
(100.888 12.0185 0)
(152.969 7.38067 0)
(361.355 11.4972 0)
(1203.24 18.3462 0)
(2341.31 31.8968 0)
(2419.46 4.3796 0)
(909.092 -25.8969 0)
(2133.22 -22.8078 0)
(-1795.35 -964.579 0)
(-624.782 -534.107 0)
(-367.185 -312.265 0)
(269.218 -117.84 0)
(386.521 -284.19 0)
(229.926 -648.135 0)
(91.4668 -1049.3 0)
(9.73791 -1156.56 0)
(-153.221 -1110.18 0)
(-388.889 -1059.5 0)
(-794.936 -1075.88 0)
(-1327.09 -1143.85 0)
(-1655.58 -1105.53 0)
(-1391.27 -724.693 0)
(-815.639 -284.79 0)
(-480.779 -103.043 0)
(-396.836 -59.5734 0)
(-367.42 -45.1278 0)
(-316.814 -28.1027 0)
(-248.82 -8.6835 0)
(-178.353 9.81785 0)
(-116.113 23.1922 0)
(-71.1425 29.4712 0)
(-43.7985 30.8398 0)
(-27.302 30.0471 0)
(-16.2141 28.7391 0)
(-5.67418 27.3417 0)
(6.31301 25.9347 0)
(18.6538 24.9152 0)
(30.6734 23.8205 0)
(48.7131 22.9958 0)
(70.1705 20.8478 0)
(97.1439 17.8378 0)
(153.113 13.5315 0)
(366.987 17.3754 0)
(1213.99 23.6869 0)
(2336.26 33.0057 0)
(2391.83 10.5654 0)
(896.118 -21.5259 0)
(2154.2 -21.6215 0)
(-1140.93 -182.068 0)
(-198.905 23.3943 0)
(-403.366 94.1333 0)
(-211.703 -317.509 0)
(-109.941 -771.431 0)
(-3.15773 -1048.19 0)
(49.624 -1058.35 0)
(23.4406 -1040.8 0)
(-116.02 -1010.2 0)
(-404.756 -1027.68 0)
(-868.421 -1122.21 0)
(-1319.98 -1177.19 0)
(-1388.25 -982.961 0)
(-983.133 -521.961 0)
(-561.234 -200.11 0)
(-398.93 -92.2217 0)
(-372.327 -62.7774 0)
(-349.534 -45.4017 0)
(-296.406 -23.5558 0)
(-229.158 -0.942225 0)
(-162.655 18.4917 0)
(-106.653 31.5417 0)
(-67.4264 37.5555 0)
(-43.4833 38.8846 0)
(-28.339 38.0462 0)
(-17.6497 36.5373 0)
(-7.15266 34.9807 0)
(5.07712 33.588 0)
(17.5238 32.2594 0)
(29.5912 30.884 0)
(47.1808 29.8051 0)
(67.7024 27.6901 0)
(93.8373 24.9885 0)
(152.524 21.5637 0)
(371.141 25.151 0)
(1218.3 31.1843 0)
(2328.67 35.8611 0)
(2366.91 16.828 0)
(878.075 -18.1405 0)
(2186.42 -20.4346 0)
(-842.643 10.6061 0)
(-358.624 -53.8948 0)
(-695.692 -255.437 0)
(-564.871 -727.699 0)
(-317.594 -973.554 0)
(-46.556 -1024.23 0)
(98.5871 -942.846 0)
(56.1323 -917.29 0)
(-140.57 -932.514 0)
(-496.822 -1031.26 0)
(-939.011 -1138.29 0)
(-1192.91 -1086.68 0)
(-1024.18 -740.704 0)
(-636.888 -340.892 0)
(-401.527 -147.697 0)
(-348.44 -85.7817 0)
(-351.718 -63.8269 0)
(-329.625 -42.2203 0)
(-273.971 -16.8474 0)
(-208.301 6.58941 0)
(-147.05 26.154 0)
(-97.7428 38.6989 0)
(-64.0666 44.4206 0)
(-43.3257 45.778 0)
(-29.5639 45.0465 0)
(-19.1681 43.6331 0)
(-8.51626 42.3748 0)
(3.69069 41.1836 0)
(16.0481 39.6479 0)
(28.3083 38.2329 0)
(45.6355 37.1451 0)
(65.5291 35.3646 0)
(91.2402 33.3286 0)
(153.269 31.4412 0)
(376.258 35.5358 0)
(1224.32 40.525 0)
(2322.43 43.008 0)
(2339.79 25.9611 0)
(860.21 -10.3644 0)
(2199.06 -15.7099 0)
(-855.687 -102.759 0)
(-455.274 -101.867 0)
(-1052.67 -362.776 0)
(-903.707 -821.267 0)
(-395.693 -952.997 0)
(26.4338 -855.576 0)
(152.679 -787.355 0)
(33.3969 -827.532 0)
(-225.85 -903.005 0)
(-603.046 -1027.82 0)
(-921.821 -1061.65 0)
(-936.851 -856.886 0)
(-669.581 -480.279 0)
(-411.69 -219.64 0)
(-315.4 -113.017 0)
(-318.109 -78.5686 0)
(-330.35 -60.5192 0)
(-304.263 -35.7677 0)
(-249.371 -7.21615 0)
(-187.72 16.6625 0)
(-131.713 35.6876 0)
(-89.0503 47.3117 0)
(-60.6048 52.5247 0)
(-42.8802 53.8007 0)
(-30.4059 53.2099 0)
(-20.2242 52.0553 0)
(-9.51305 51.0407 0)
(2.44933 49.862 0)
(14.6804 48.2656 0)
(27.1794 46.914 0)
(44.4168 45.923 0)
(64.0247 44.5258 0)
(90.0565 43.2475 0)
(154.651 43.0916 0)
(379.895 46.7532 0)
(1225.5 51.1862 0)
(2314.63 52.2425 0)
(2315.48 33.4908 0)
(837.919 -5.22027 0)
(2212.35 -15.0871 0)
(-851.906 -180.691 0)
(-609.186 -188.619 0)
(-1388.93 -404.114 0)
(-1133.63 -733.137 0)
(-350.654 -776.387 0)
(113.062 -651.937 0)
(125.611 -675.882 0)
(-55.3116 -771.517 0)
(-333.578 -886.356 0)
(-649.703 -963.717 0)
(-774.29 -866.045 0)
(-632.671 -569.529 0)
(-410.102 -289.032 0)
(-282.981 -146.088 0)
(-265.586 -89.4159 0)
(-297.851 -69.2766 0)
(-310.474 -50.8102 0)
(-278.26 -24.1122 0)
(-223.447 4.43306 0)
(-166.958 28.9192 0)
(-117.516 46.9679 0)
(-81.518 57.6335 0)
(-57.8136 62.4229 0)
(-42.6655 63.7742 0)
(-31.2458 63.5246 0)
(-21.2584 62.7455 0)
(-10.6298 61.907 0)
(1.01653 60.7174 0)
(13.2073 59.1085 0)
(26.0508 57.9168 0)
(43.3341 57.0975 0)
(62.9509 56.1584 0)
(89.8581 55.5916 0)
(156.648 56.7122 0)
(384.058 60.198 0)
(1229.6 64.473 0)
(2305.38 65.0465 0)
(2284.42 42.0697 0)
(813.399 -0.763658 0)
(2212.6 -15.049 0)
(-1089.49 -294.72 0)
(-670.573 -225.263 0)
(-1577.38 -322.828 0)
(-1262.44 -507.165 0)
(-317.446 -545.259 0)
(123.284 -526.624 0)
(37.4468 -621.417 0)
(-169.424 -723.131 0)
(-411.061 -825.708 0)
(-583.473 -793.674 0)
(-541.967 -588.007 0)
(-380.821 -330.904 0)
(-261.538 -166.244 0)
(-219.333 -87.2211 0)
(-241.382 -62.3721 0)
(-280.907 -52.4628 0)
(-286.828 -30.4208 0)
(-251.029 1.49031 0)
(-198.268 30.1593 0)
(-146.732 54.363 0)
(-104.043 70.7642 0)
(-74.1574 79.7434 0)
(-54.6875 83.2256 0)
(-41.8185 83.6505 0)
(-31.3971 82.7169 0)
(-21.783 81.3734 0)
(-11.4674 79.9144 0)
(-0.247369 78.1715 0)
(11.9816 76.278 0)
(25.2416 74.9548 0)
(42.7223 74.2089 0)
(62.5735 73.6308 0)
(90.5902 73.6807 0)
(159.089 75.5471 0)
(387.373 79.9341 0)
(1230.17 85.2697 0)
(2293.04 84.0289 0)
(2252.06 54.3821 0)
(782.878 7.06607 0)
(2212.77 -6.77789 0)
(-1417.37 -246.239 0)
(-636.272 -148.962 0)
(-1660.58 -182.128 0)
(-1347.97 -299.125 0)
(-369.406 -359.945 0)
(39.6742 -468.4 0)
(-63.7508 -578.37 0)
(-252.174 -650.026 0)
(-401.555 -672.161 0)
(-420.645 -536.67 0)
(-328.348 -325.014 0)
(-226.244 -167.803 0)
(-175.28 -80.4763 0)
(-182.886 -42.0021 0)
(-232.091 -33.2757 0)
(-267.062 -22.692 0)
(-258.483 4.23862 0)
(-219.883 36.9696 0)
(-172.497 65.7988 0)
(-127.829 87.8086 0)
(-93.0582 101.644 0)
(-69.5097 108.555 0)
(-54.0486 110.689 0)
(-43.1556 110.099 0)
(-33.4401 108.175 0)
(-23.959 105.806 0)
(-13.7152 103.456 0)
(-2.48765 100.915 0)
(10.1076 98.5632 0)
(24.057 97.4137 0)
(42.0583 96.8223 0)
(62.4419 96.7571 0)
(91.7047 97.6297 0)
(162.674 100.385 0)
(393.427 105.994 0)
(1233.55 112.594 0)
(2275.61 103.985 0)
(2210.25 66.8766 0)
(754.463 15.7819 0)
(2183.2 4.96287 0)
(-1601.59 -82.5033 0)
(-608.793 -39.8852 0)
(-1722.09 -52.749 0)
(-1433.79 -176.619 0)
(-480.565 -270.152 0)
(-87.1992 -436.17 0)
(-137.575 -519.074 0)
(-259.804 -526.402 0)
(-301.827 -442.802 0)
(-248.95 -284.118 0)
(-186.514 -147.784 0)
(-145.175 -61.3798 0)
(-140.312 -13.527 0)
(-173.848 0.388116 0)
(-222.774 5.39965 0)
(-244.757 21.7516 0)
(-229.335 49.5649 0)
(-191.707 79.7374 0)
(-149.278 106.984 0)
(-112.19 126.335 0)
(-84.0507 137.803 0)
(-65.4409 142.72 0)
(-53.2002 143.399 0)
(-44.2411 141.818 0)
(-35.5332 139.179 0)
(-26.3302 136.275 0)
(-16.1812 133.693 0)
(-4.96269 131.482 0)
(8.60793 130.001 0)
(23.564 130.414 0)
(42.0896 131.422 0)
(63.3516 133.107 0)
(94.0862 135.838 0)
(167.149 140.692 0)
(399.138 148.918 0)
(1228.24 158.62 0)
(2248.99 143.315 0)
(2167.07 97.4565 0)
(723.215 37.7498 0)
(2145.92 30.1367 0)
(-1578.91 13.0485 0)
(-607.599 8.32991 0)
(-1792.34 6.56122 0)
(-1557.47 -108.878 0)
(-619.518 -237.604 0)
(-200.196 -353.344 0)
(-150.702 -365.08 0)
(-178.676 -298.693 0)
(-168.081 -177.333 0)
(-136.355 -72.5034 0)
(-113.71 -5.04704 0)
(-96.8693 38.8437 0)
(-115.758 60.8293 0)
(-164.648 62.2956 0)
(-211.505 62.2531 0)
(-224.502 75.2758 0)
(-202.606 98.8033 0)
(-164.551 125.455 0)
(-127.594 148.195 0)
(-98.1311 164.751 0)
(-77.2688 176.146 0)
(-64.1173 183.824 0)
(-54.9178 189.045 0)
(-47.2226 192.874 0)
(-38.7821 196.099 0)
(-29.2455 200.068 0)
(-18.3337 203.203 0)
(-6.04505 206.635 0)
(9.07863 209.398 0)
(25.4265 213.664 0)
(44.6529 217.448 0)
(66.6975 222.687 0)
(99.014 228.387 0)
(175.277 237.484 0)
(410.704 251.427 0)
(1228.15 267.08 0)
(2216.67 242.19 0)
(2108.53 161.073 0)
(689.591 64.5959 0)
(2044.88 52.4375 0)
(-1533.01 80.4412 0)
(-615.044 93.3684 0)
(-1835.03 91.7626 0)
(-1669.08 -3.09251 0)
(-716.141 -119.002 0)
(-210.039 -118.409 0)
(-84.9109 -60.6723 0)
(-78.8848 13.3588 0)
(-83.8625 86.544 0)
(-82.9283 138.373 0)
(-79.2155 179.21 0)
(-81.6941 200.159 0)
(-117.713 201.145 0)
(-172.476 196.897 0)
(-210.266 204.992 0)
(-209.536 230.41 0)
(-180.981 264.162 0)
(-144.112 296.295 0)
(-111.411 322.364 0)
(-85.2556 342.762 0)
(-65.6712 359.666 0)
(-53.0106 374.906 0)
(-44.479 389.182 0)
(-37.4438 402.56 0)
(-28.6012 415.09 0)
(-19.4844 428.05 0)
(-9.85259 439.316 0)
(1.00661 450.661 0)
(15.3813 459.923 0)
(31.3213 469.914 0)
(50.7843 478.015 0)
(73.8932 489.064 0)
(108.345 498.426 0)
(189.351 513.081 0)
(427.658 530.765 0)
(1219.34 541.064 0)
(2146.84 469.278 0)
(1995.93 313.379 0)
(618.531 136.311 0)
(1953.25 63.8073 0)
(-1315.58 67.9298 0)
(-596.69 174.635 0)
(-1885.3 337.073 0)
(-1760.57 379.825 0)
(-730.641 337.348 0)
(-143.987 384.173 0)
(-23.7263 451.642 0)
(-36.8126 502.484 0)
(-47.6121 545.517 0)
(-47.0587 594.793 0)
(-54.1717 641.42 0)
(-75.732 678.516 0)
(-118.901 706.316 0)
(-160.941 740.432 0)
(-179.21 793.111 0)
(-167.484 857.994 0)
(-139.116 923.427 0)
(-108.466 982.391 0)
(-82.8173 1032.89 0)
(-62.186 1076.78 0)
(-46.2942 1119.02 0)
(-35.6745 1161.16 0)
(-28.2686 1200.77 0)
(-22.2566 1236.37 0)
(-14.2192 1267.36 0)
(-5.89977 1295.86 0)
(3.45473 1314.64 0)
(13.8125 1335.03 0)
(27.6322 1349.92 0)
(42.8599 1367.34 0)
(63.106 1379.3 0)
(86.3669 1392.37 0)
(122.158 1393.26 0)
(206.44 1398.05 0)
(437.668 1388.72 0)
(1168.9 1340.5 0)
(1997.27 1099.98 0)
(1787.67 688.379 0)
(449.095 243.327 0)
(1786.75 -1.50686 0)
(-1264.67 -134.519 0)
(-355.688 122.624 0)
(-1637.3 633.567 0)
(-1668.81 1079.05 0)
(-711.951 1225.01 0)
(-99.9016 1300.28 0)
(29.0978 1366.89 0)
(11.5773 1439.59 0)
(5.09009 1518.04 0)
(9.48734 1596.76 0)
(1.46329 1666.5 0)
(-19.1581 1724.45 0)
(-58.0492 1776.38 0)
(-88.8376 1836.32 0)
(-96.9786 1907.29 0)
(-83.9596 1984.37 0)
(-61.1072 2058.17 0)
(-38.631 2123.68 0)
(-20.4551 2179.94 0)
(-2.25746 2227.47 0)
(15.6362 2267.27 0)
(25.7728 2298.3 0)
(28.0038 2321.13 0)
(26.7184 2338.44 0)
(28.7188 2350.77 0)
(26.0787 2361.32 0)
(27.9009 2365.4 0)
(35.0047 2369.17 0)
(46.5077 2368.69 0)
(59.6349 2366.67 0)
(74.9108 2359.89 0)
(87.3387 2346.8 0)
(113.815 2324.16 0)
(184.983 2295.37 0)
(372.202 2231.3 0)
(941.093 2099.74 0)
(1518.43 1630.66 0)
(1170.43 960.652 0)
(-46.2684 311.13 0)
(1733.4 -138.358 0)
(-1799.17 5245.26 0)
(143.466 -559.793 0)
(-963.651 556.512 0)
(-1190.64 1363.49 0)
(-517.457 1732.78 0)
(-7.26842 1850.7 0)
(110.518 1898.3 0)
(108.842 1956.8 0)
(103.848 2034.01 0)
(96.0037 2096.95 0)
(68.8763 2146.93 0)
(30.1496 2177.94 0)
(-11.1067 2201.96 0)
(-34.7853 2234.66 0)
(-36.5426 2274.24 0)
(-22.0895 2317.81 0)
(-4.87309 2355.45 0)
(8.87578 2383.55 0)
(17.2065 2403.13 0)
(21.9665 2414.37 0)
(21.9559 2414.4 0)
(16.2212 2403.35 0)
(10.414 2386.39 0)
(6.31377 2367.29 0)
(7.82261 2345.99 0)
(8.19672 2323.36 0)
(11.0221 2302.33 0)
(16.9836 2277.01 0)
(25.2201 2252.77 0)
(34.3798 2220.52 0)
(43.9624 2186.92 0)
(51.937 2143.56 0)
(72.5972 2100.71 0)
(116.952 2045.03 0)
(249.155 1948.62 0)
(590.106 1768.48 0)
(899.597 1188.4 0)
(516.118 509.197 0)
(-609.951 -527.977 0)
(2118.9 3831.6 0)
(-2799.09 308123 0)
(-4873.93 2792.99 0)
(216.045 -705.266 0)
(-535.318 21.8083 0)
(-242.465 475.287 0)
(59.5948 582.881 0)
(131.341 605.304 0)
(142.356 617.77 0)
(140.143 643.05 0)
(118.305 651.475 0)
(79.5092 651.689 0)
(33.8709 652.217 0)
(-3.38544 662.113 0)
(-19.1858 683.604 0)
(-16.8528 710.764 0)
(-5.70875 735.376 0)
(2.2396 754.582 0)
(7.32178 768.707 0)
(9.24305 776.041 0)
(8.59675 778.296 0)
(5.01605 781.292 0)
(-1.21915 787.656 0)
(-6.74454 794.194 0)
(-12.2156 797.717 0)
(-13.617 798.889 0)
(-15.9873 798.607 0)
(-16.7583 792.76 0)
(-12.7507 787.559 0)
(-7.93363 778.588 0)
(-3.82221 765.79 0)
(0.750598 747.017 0)
(4.25866 727.15 0)
(18.8748 702.688 0)
(38.429 674.088 0)
(105.709 615.992 0)
(208.518 463.503 0)
(304.934 -0.596695 0)
(-483.536 -571.093 0)
(3155.32 2698.93 0)
(4429.41 244840 0)
(285473 -298441 0)
(-297455 6063.87 0)
(-3634.06 3004.86 0)
(-53.0117 2911.52 0)
(23.2129 3197.55 0)
(118.02 3146.68 0)
(144.138 2967.1 0)
(145.215 2791.24 0)
(136.327 2604.57 0)
(104.328 2450.77 0)
(69.5919 2351.05 0)
(40.1945 2294.58 0)
(19.1388 2290.21 0)
(12.0967 2303.46 0)
(13.347 2319.57 0)
(20.1356 2321.25 0)
(27.2454 2309.22 0)
(29.5542 2282.8 0)
(26.4469 2250.03 0)
(27.0265 2221.79 0)
(30.9754 2198.57 0)
(28.6544 2185.46 0)
(20.1096 2183.78 0)
(10.8376 2188.54 0)
(8.67954 2200.26 0)
(2.29077 2203.98 0)
(0.376635 2221.19 0)
(3.32715 2222.24 0)
(4.24183 2226.82 0)
(3.9565 2215.3 0)
(6.72791 2207.99 0)
(9.21963 2178.14 0)
(21.4646 2153.57 0)
(33.4086 2080.3 0)
(46.2282 2020.95 0)
(-4.0609 1870.61 0)
(-97.3774 1823.84 0)
(3117.48 2105.5 0)
(235877 4743.91 0)
(-224393 -233429 0)
(285473 298441 0)
(-297455 -6063.87 0)
(-3634.06 -3004.86 0)
(-53.0117 -2911.52 0)
(23.2129 -3197.55 0)
(118.02 -3146.68 0)
(144.138 -2967.1 0)
(145.215 -2791.24 0)
(136.327 -2604.57 0)
(104.328 -2450.77 0)
(69.5919 -2351.05 0)
(40.1945 -2294.58 0)
(19.1388 -2290.21 0)
(12.0967 -2303.46 0)
(13.347 -2319.57 0)
(20.1356 -2321.25 0)
(27.2454 -2309.22 0)
(29.5542 -2282.8 0)
(26.4469 -2250.03 0)
(27.0265 -2221.79 0)
(30.9754 -2198.57 0)
(28.6544 -2185.46 0)
(20.1096 -2183.78 0)
(10.8376 -2188.54 0)
(8.67954 -2200.26 0)
(2.29077 -2203.98 0)
(0.376635 -2221.19 0)
(3.32715 -2222.24 0)
(4.24183 -2226.82 0)
(3.9565 -2215.3 0)
(6.72791 -2207.99 0)
(9.21963 -2178.14 0)
(21.4646 -2153.57 0)
(33.4086 -2080.3 0)
(46.2282 -2020.95 0)
(-4.0609 -1870.61 0)
(-97.3774 -1823.84 0)
(3117.48 -2105.5 0)
(235877 -4743.91 0)
(-224393 233429 0)
(-2799.09 -308123 0)
(-4873.93 -2792.99 0)
(216.045 705.266 0)
(-535.318 -21.8083 0)
(-242.465 -475.287 0)
(59.5948 -582.881 0)
(131.341 -605.304 0)
(142.356 -617.77 0)
(140.143 -643.05 0)
(118.305 -651.475 0)
(79.5092 -651.689 0)
(33.8709 -652.217 0)
(-3.38544 -662.113 0)
(-19.1858 -683.604 0)
(-16.8528 -710.764 0)
(-5.70875 -735.376 0)
(2.2396 -754.582 0)
(7.32178 -768.707 0)
(9.24305 -776.041 0)
(8.59675 -778.296 0)
(5.01605 -781.292 0)
(-1.21915 -787.656 0)
(-6.74454 -794.194 0)
(-12.2156 -797.717 0)
(-13.617 -798.889 0)
(-15.9873 -798.607 0)
(-16.7583 -792.76 0)
(-12.7507 -787.559 0)
(-7.93363 -778.588 0)
(-3.82221 -765.79 0)
(0.750598 -747.017 0)
(4.25866 -727.15 0)
(18.8748 -702.688 0)
(38.429 -674.088 0)
(105.709 -615.992 0)
(208.518 -463.503 0)
(304.934 0.596695 0)
(-483.536 571.093 0)
(3155.32 -2698.93 0)
(4429.41 -244840 0)
(-1799.17 -5245.26 0)
(143.466 559.793 0)
(-963.651 -556.512 0)
(-1190.64 -1363.49 0)
(-517.457 -1732.78 0)
(-7.26842 -1850.7 0)
(110.518 -1898.3 0)
(108.842 -1956.8 0)
(103.848 -2034.01 0)
(96.0037 -2096.95 0)
(68.8763 -2146.93 0)
(30.1496 -2177.94 0)
(-11.1067 -2201.96 0)
(-34.7853 -2234.66 0)
(-36.5426 -2274.24 0)
(-22.0895 -2317.81 0)
(-4.87309 -2355.45 0)
(8.87578 -2383.55 0)
(17.2065 -2403.13 0)
(21.9665 -2414.37 0)
(21.9559 -2414.4 0)
(16.2212 -2403.35 0)
(10.414 -2386.39 0)
(6.31377 -2367.29 0)
(7.82261 -2345.99 0)
(8.19672 -2323.36 0)
(11.0221 -2302.33 0)
(16.9836 -2277.01 0)
(25.2201 -2252.77 0)
(34.3798 -2220.52 0)
(43.9624 -2186.92 0)
(51.937 -2143.56 0)
(72.5972 -2100.71 0)
(116.952 -2045.03 0)
(249.155 -1948.62 0)
(590.106 -1768.48 0)
(899.597 -1188.4 0)
(516.118 -509.197 0)
(-609.951 527.977 0)
(2118.9 -3831.6 0)
(-1264.67 134.519 0)
(-355.688 -122.624 0)
(-1637.3 -633.567 0)
(-1668.81 -1079.05 0)
(-711.951 -1225.01 0)
(-99.9016 -1300.28 0)
(29.0978 -1366.89 0)
(11.5773 -1439.59 0)
(5.09009 -1518.04 0)
(9.48734 -1596.76 0)
(1.46329 -1666.5 0)
(-19.1581 -1724.45 0)
(-58.0492 -1776.38 0)
(-88.8376 -1836.32 0)
(-96.9786 -1907.29 0)
(-83.9596 -1984.37 0)
(-61.1072 -2058.17 0)
(-38.631 -2123.68 0)
(-20.4551 -2179.94 0)
(-2.25746 -2227.47 0)
(15.6362 -2267.27 0)
(25.7728 -2298.3 0)
(28.0038 -2321.13 0)
(26.7184 -2338.44 0)
(28.7188 -2350.77 0)
(26.0787 -2361.32 0)
(27.9009 -2365.4 0)
(35.0047 -2369.17 0)
(46.5077 -2368.69 0)
(59.6349 -2366.67 0)
(74.9108 -2359.89 0)
(87.3387 -2346.8 0)
(113.815 -2324.16 0)
(184.983 -2295.37 0)
(372.202 -2231.3 0)
(941.093 -2099.74 0)
(1518.43 -1630.66 0)
(1170.43 -960.652 0)
(-46.2684 -311.13 0)
(1733.4 138.358 0)
(-1315.58 -67.9298 0)
(-596.69 -174.635 0)
(-1885.3 -337.073 0)
(-1760.57 -379.825 0)
(-730.641 -337.348 0)
(-143.987 -384.173 0)
(-23.7263 -451.642 0)
(-36.8126 -502.484 0)
(-47.6121 -545.517 0)
(-47.0587 -594.793 0)
(-54.1717 -641.42 0)
(-75.732 -678.516 0)
(-118.901 -706.316 0)
(-160.941 -740.432 0)
(-179.21 -793.111 0)
(-167.484 -857.994 0)
(-139.116 -923.427 0)
(-108.466 -982.391 0)
(-82.8173 -1032.89 0)
(-62.186 -1076.78 0)
(-46.2942 -1119.02 0)
(-35.6745 -1161.16 0)
(-28.2686 -1200.77 0)
(-22.2566 -1236.37 0)
(-14.2192 -1267.36 0)
(-5.89977 -1295.86 0)
(3.45473 -1314.64 0)
(13.8125 -1335.03 0)
(27.6322 -1349.92 0)
(42.8599 -1367.34 0)
(63.106 -1379.3 0)
(86.3669 -1392.37 0)
(122.158 -1393.26 0)
(206.44 -1398.05 0)
(437.668 -1388.72 0)
(1168.9 -1340.5 0)
(1997.27 -1099.98 0)
(1787.67 -688.379 0)
(449.095 -243.327 0)
(1786.75 1.50686 0)
(-1533.01 -80.4412 0)
(-615.044 -93.3684 0)
(-1835.03 -91.7626 0)
(-1669.08 3.09251 0)
(-716.141 119.002 0)
(-210.039 118.409 0)
(-84.9109 60.6723 0)
(-78.8848 -13.3588 0)
(-83.8625 -86.544 0)
(-82.9283 -138.373 0)
(-79.2155 -179.21 0)
(-81.6941 -200.159 0)
(-117.713 -201.145 0)
(-172.476 -196.897 0)
(-210.266 -204.992 0)
(-209.536 -230.41 0)
(-180.981 -264.162 0)
(-144.112 -296.295 0)
(-111.411 -322.364 0)
(-85.2556 -342.762 0)
(-65.6712 -359.666 0)
(-53.0106 -374.906 0)
(-44.479 -389.182 0)
(-37.4438 -402.56 0)
(-28.6012 -415.09 0)
(-19.4844 -428.05 0)
(-9.85259 -439.316 0)
(1.00661 -450.661 0)
(15.3813 -459.923 0)
(31.3213 -469.914 0)
(50.7843 -478.015 0)
(73.8932 -489.064 0)
(108.345 -498.426 0)
(189.351 -513.081 0)
(427.658 -530.765 0)
(1219.34 -541.064 0)
(2146.84 -469.278 0)
(1995.93 -313.379 0)
(618.531 -136.311 0)
(1953.25 -63.8073 0)
(-1578.91 -13.0485 0)
(-607.599 -8.32991 0)
(-1792.34 -6.56122 0)
(-1557.47 108.878 0)
(-619.518 237.604 0)
(-200.196 353.344 0)
(-150.702 365.08 0)
(-178.676 298.693 0)
(-168.081 177.333 0)
(-136.355 72.5034 0)
(-113.71 5.04704 0)
(-96.8693 -38.8437 0)
(-115.758 -60.8293 0)
(-164.648 -62.2956 0)
(-211.505 -62.2531 0)
(-224.502 -75.2758 0)
(-202.606 -98.8033 0)
(-164.551 -125.455 0)
(-127.594 -148.195 0)
(-98.1311 -164.751 0)
(-77.2688 -176.146 0)
(-64.1173 -183.824 0)
(-54.9178 -189.045 0)
(-47.2226 -192.874 0)
(-38.7821 -196.099 0)
(-29.2455 -200.068 0)
(-18.3337 -203.203 0)
(-6.04505 -206.635 0)