/*--------------------------------*- C++ -*----------------------------------*\
| =========                 |                                                 |
| \\      /  F ield         | OpenFOAM: The Open Source CFD Toolbox           |
|  \\    /   O peration     | Version:  v1912                                 |
|   \\  /    A nd           | Website:  www.openfoam.com                      |
|    \\/     M anipulation  |                                                 |
\*---------------------------------------------------------------------------*/
FoamFile
{
    version     2.0;
    format      ascii;
    class       volScalarField;
    location    "0.06";
    object      rho;
}
// * * * * * * * * * * * * * * * * * * * * * * * * * * * * * * * * * * * * * //

dimensions      [1 -3 0 0 0 0 0];


internalField   nonuniform List<scalar> 
4800
(
0.140001
0.140001
0.140001
0.140001
0.140001
0.140129
0.191057
0.246249
0.248063
0.248155
0.248206
0.24831
0.248652
0.249094
0.249218
0.249229
0.249063
0.248522
0.248025
0.247909
0.24796
0.248399
0.249501
0.250995
0.252311
0.253275
0.254115
0.255022
0.25575
0.256202
0.257266
0.263667
0.277363
0.286761
0.290856
0.294425
0.298532
0.3036
0.309256
0.313246
0.140001
0.140001
0.140001
0.140001
0.140001
0.140129
0.191057
0.246249
0.248063
0.248155
0.248206
0.24831
0.248652
0.249094
0.249218
0.249229
0.249063
0.248523
0.248026
0.24791
0.247958
0.248387
0.249477
0.250966
0.252284
0.253257
0.254105
0.255016
0.255747
0.256201
0.257212
0.263317
0.276781
0.286285
0.2905
0.293953
0.297985
0.3024
0.307401
0.310772
0.140001
0.140001
0.140001
0.140001
0.140001
0.140129
0.191057
0.246249
0.248063
0.248155
0.248206
0.24831
0.248652
0.249094
0.249218
0.249229
0.249063
0.248524
0.248028
0.24791
0.247952
0.248364
0.249432
0.250913
0.252244
0.25323
0.254088
0.255006
0.255741
0.256196
0.257088
0.262622
0.275718
0.28552
0.289892
0.293131
0.296924
0.300741
0.304857
0.307661
0.140001
0.140001
0.140001
0.140001
0.140001
0.140129
0.191057
0.246249
0.248063
0.248155
0.248206
0.24831
0.248652
0.249094
0.249218
0.249228
0.249064
0.248526
0.248031
0.247912
0.247944
0.24833
0.249365
0.250838
0.252184
0.25319
0.254062
0.254991
0.255734
0.256185
0.256926
0.261665
0.274164
0.284401
0.289033
0.292056
0.295528
0.298926
0.30219
0.30432
0.140001
0.140001
0.140001
0.140001
0.140001
0.140129
0.191057
0.246249
0.248063
0.248155
0.248206
0.24831
0.248653
0.249094
0.249217
0.249228
0.249064
0.248528
0.248035
0.247914
0.247934
0.248287
0.249277
0.250739
0.252105
0.253137
0.254027
0.254969
0.255721
0.25617
0.25676
0.260553
0.272108
0.282893
0.287951
0.290819
0.293923
0.296984
0.299687
0.301472
0.140001
0.140001
0.140001
0.140001
0.140001
0.140129
0.191057
0.246249
0.248063
0.248155
0.248206
0.24831
0.248653
0.249094
0.249217
0.249227
0.249065
0.248531
0.24804
0.247918
0.247924
0.248236
0.249169
0.250614
0.252004
0.253068
0.253982
0.254937
0.255699
0.256151
0.256616
0.259417
0.269605
0.280958
0.286658
0.289481
0.292221
0.294989
0.29737
0.299018
0.140001
0.140001
0.140001
0.140001
0.140001
0.140129
0.191057
0.246249
0.248063
0.248155
0.248206
0.24831
0.248653
0.249094
0.249217
0.249227
0.249065
0.248535
0.248046
0.247921
0.247915
0.24818
0.249046
0.25046
0.25188
0.252985
0.253926
0.254894
0.255668
0.25613
0.256508
0.258387
0.266808
0.278525
0.285134
0.288081
0.290519
0.293011
0.295192
0.296844
0.140001
0.140001
0.140001
0.140001
0.140001
0.140129
0.191057
0.246249
0.248063
0.248155
0.248206
0.24831
0.248653
0.249094
0.249216
0.249226
0.249065
0.248538
0.248052
0.247924
0.247907
0.248125
0.248909
0.250278
0.251728
0.252886
0.253856
0.25484
0.255628
0.256105
0.256439
0.257554
0.263953
0.275518
0.283292
0.286622
0.288865
0.291099
0.293149
0.294823
0.140001
0.140001
0.140001
0.140001
0.140001
0.140129
0.191057
0.246249
0.248063
0.248155
0.248206
0.24831
0.248653
0.249094
0.249216
0.249225
0.249065
0.248542
0.248059
0.247929
0.247903
0.248072
0.248762
0.250069
0.251548
0.252769
0.253774
0.254775
0.255578
0.256076
0.256397
0.256962
0.261326
0.271949
0.280973
0.285062
0.287281
0.2893
0.291234
0.292903
0.140001
0.140001
0.140001
0.140001
0.140001
0.140129
0.191057
0.246249
0.248063
0.248155
0.248206
0.24831
0.248653
0.249094
0.249215
0.249225
0.249065
0.248546
0.248066
0.247935
0.247902
0.248024
0.248612
0.249837
0.251338
0.252628
0.253679
0.254698
0.255518
0.25604
0.256361
0.256601
0.259181
0.267999
0.278013
0.283287
0.285753
0.28764
0.289437
0.29108
0.140001
0.140001
0.140001
0.140001
0.140001
0.140129
0.191057
0.246249
0.248063
0.248155
0.248206
0.24831
0.248653
0.249094
0.249215
0.249224
0.249064
0.248549
0.248073
0.247943
0.247903
0.247981
0.248465
0.249587
0.251093
0.25246
0.253568
0.254609
0.255444
0.255988
0.256324
0.256412
0.257659
0.264069
0.274319
0.281099
0.284187
0.286077
0.287733
0.289385
0.140001
0.140001
0.140001
0.140001
0.140001
0.140129
0.191057
0.246249
0.248063
0.248155
0.248206
0.24831
0.248653
0.249094
0.249215
0.249223
0.249063
0.248551
0.24808
0.247953
0.247908
0.247945
0.248327
0.249328
0.250812
0.252261
0.253438
0.254504
0.255355
0.255921
0.256284
0.256332
0.256732
0.260686
0.269984
0.278267
0.282411
0.284535
0.286122
0.28782
0.140001
0.140001
0.140001
0.140001
0.140001
0.140129
0.191057
0.246249
0.248063
0.248155
0.248206
0.24831
0.248653
0.249094
0.249215
0.249222
0.249062
0.248553
0.248086
0.247965
0.247916
0.247919
0.248204
0.249067
0.250497
0.252023
0.253285
0.254384
0.255252
0.255841
0.256234
0.256293
0.256269
0.258244
0.26541
0.274583
0.280206
0.282935
0.284603
0.286327
0.140001
0.140001
0.140001
0.140001
0.140001
0.140129
0.191057
0.246249
0.248063
0.248155
0.248206
0.24831
0.248653
0.249094
0.249215
0.249221
0.249061
0.248553
0.248092
0.247979
0.247924
0.247903
0.248098
0.248811
0.250152
0.251742
0.253104
0.25425
0.255135
0.255747
0.256163
0.256251
0.256076
0.256774
0.261292
0.270085
0.277311
0.281102
0.283126
0.284832
0.140001
0.140001
0.140001
0.140001
0.140001
0.140129
0.191057
0.246249
0.248063
0.248155
0.248206
0.24831
0.248653
0.249094
0.249215
0.24922
0.249059
0.248553
0.248098
0.247991
0.247935
0.247898
0.248015
0.248575
0.249789
0.251415
0.252888
0.254099
0.255006
0.255632
0.25607
0.256202
0.256004
0.256057
0.258311
0.265232
0.273452
0.27878
0.281558
0.283292
0.140001
0.140001
0.140001
0.140001
0.140001
0.140129
0.191057
0.246249
0.248063
0.248155
0.248206
0.24831
0.248653
0.249094
0.249215
0.24922
0.249057
0.248552
0.248101
0.248003
0.247949
0.2479
0.247952
0.248366
0.249422
0.251038
0.252628
0.253925
0.254862
0.255498
0.255955
0.256135
0.255961
0.255783
0.256605
0.260863
0.268711
0.275659
0.279613
0.281706
0.140001
0.140001
0.140001
0.140001
0.140001
0.140129
0.191057
0.246249
0.248063
0.248155
0.248206
0.24831
0.248653
0.249094
0.249215
0.249219
0.249056
0.248551
0.248103
0.248013
0.247966
0.247907
0.24791
0.248192
0.249065
0.250613
0.252313
0.253719
0.254705
0.255351
0.255823
0.256037
0.255915
0.255683
0.255842
0.257839
0.26374
0.271414
0.276913
0.279997
0.140001
0.140001
0.140001
0.140001
0.140001
0.140129
0.191057
0.246249
0.248063
0.248155
0.248206
0.24831
0.248653
0.249094
0.249215
0.249219
0.249054
0.248549
0.248104
0.24802
0.247985
0.247918
0.247889
0.248056
0.248737
0.250158
0.251938
0.253472
0.254531
0.255197
0.255675
0.255911
0.255846
0.255641
0.25558
0.256272
0.259593
0.266393
0.273186
0.277723
0.140001
0.140001
0.140001
0.140001
0.140001
0.140129
0.191057
0.246249
0.248063
0.248155
0.248206
0.24831
0.248653
0.249094
0.249215
0.24922
0.249054
0.248547
0.248104
0.248025
0.248001
0.247935
0.247885
0.24796
0.248453
0.249693
0.251501
0.253168
0.254332
0.255035
0.255515
0.255761
0.25574
0.255595
0.255482
0.255682
0.257085
0.261577
0.268354
0.274459
0.140001
0.140001
0.140001
0.140001
0.140001
0.140129
0.191057
0.246249
0.248063
0.248155
0.248206
0.24831
0.248653
0.249094
0.249215
0.24922
0.249053
0.248545
0.248104
0.248027
0.248015
0.247957
0.247892
0.247898
0.248223
0.249247
0.251005
0.252795
0.254092
0.25486
0.255349
0.255596
0.255596
0.255519
0.255445
0.255478
0.255997
0.258159
0.263261
0.26992
0.140001
0.140001
0.140001
0.140001
0.140001
0.140129
0.191057
0.246249
0.248063
0.248155
0.248206
0.24831
0.248653
0.249094
0.249216
0.24922
0.249053
0.248544
0.248103
0.248027
0.248025
0.247981
0.247903
0.247866
0.248053
0.248846
0.25047
0.252346
0.253795
0.254663
0.255177
0.255424
0.255428
0.255399
0.255401
0.255391
0.255685
0.256506
0.25923
0.264698
0.140001
0.140001
0.140001
0.140001
0.140001
0.140129
0.191057
0.246249
0.248063
0.248155
0.248206
0.24831
0.248653
0.249094
0.249216
0.24922
0.249053
0.248543
0.248101
0.248026
0.24803
0.248002
0.247923
0.247858
0.24794
0.248513
0.249935
0.251824
0.253418
0.254427
0.254996
0.255251
0.255248
0.255242
0.255315
0.255339
0.255552
0.255998
0.257085
0.260262
0.140001
0.140001
0.140001
0.140001
0.140001
0.140129
0.191057
0.246249
0.248063
0.248155
0.248206
0.24831
0.248653
0.249094
0.249216
0.24922
0.249053
0.248542
0.248099
0.248025
0.248032
0.248018
0.247948
0.247868
0.247874
0.248256
0.249435
0.251239
0.252949
0.254133
0.254791
0.255074
0.255067
0.255063
0.255179
0.255265
0.255477
0.255838
0.256368
0.257725
0.140001
0.140001
0.140001
0.140001
0.140001
0.140129
0.191057
0.246249
0.248063
0.248155
0.248206
0.24831
0.248653
0.249094
0.249216
0.24922
0.249054
0.248542
0.248097
0.248023
0.248031
0.248028
0.247975
0.247887
0.247849
0.248081
0.249007
0.250634
0.252387
0.253755
0.254547
0.254887
0.25489
0.254878
0.255011
0.255144
0.255389
0.255763
0.256192
0.256837
0.140001
0.140001
0.140001
0.140001
0.140001
0.140129
0.191057
0.246249
0.248063
0.248155
0.248206
0.24831
0.248653
0.249094
0.249216
0.24922
0.249054
0.248542
0.248097
0.248021
0.24803
0.248033
0.247997
0.247912
0.247849
0.247978
0.248676
0.250064
0.251746
0.25327
0.254239
0.254673
0.254711
0.254693
0.254829
0.254987
0.255263
0.255677
0.256112
0.256641
0.140001
0.140001
0.140001
0.140001
0.140001
0.140129
0.191057
0.246249
0.248063
0.248155
0.248206
0.24831
0.248653
0.249094
0.249216
0.24922
0.249054
0.248542
0.248096
0.248019
0.248027
0.248034
0.248013
0.24794
0.247866
0.247937
0.248443
0.249573
0.251068
0.25267
0.25384
0.25441
0.254519
0.254511
0.254646
0.254813
0.255104
0.255549
0.256025
0.256551
0.140001
0.140001
0.140001
0.140001
0.140001
0.140129
0.191057
0.246249
0.248063
0.248155
0.248206
0.24831
0.248653
0.249094
0.249216
0.24922
0.249054
0.248542
0.248096
0.248018
0.248025
0.248032
0.248021
0.247965
0.247891
0.247931
0.248303
0.249198
0.250423
0.251968
0.253322
0.254077
0.254295
0.254323
0.254463
0.254634
0.254927
0.255384
0.255897
0.256454
0.140001
0.140001
0.140001
0.140001
0.140001
0.140129
0.191057
0.246249
0.248063
0.248155
0.248206
0.24831
0.248653
0.249094
0.249216
0.24922
0.249054
0.248542
0.248096
0.248018
0.248023
0.248029
0.248023
0.247984
0.24792
0.247948
0.248244
0.248947
0.249873
0.251215
0.252674
0.253642
0.25401
0.254112
0.254275
0.254457
0.254744
0.255201
0.255731
0.25632
0.140001
0.140001
0.140001
0.140001
0.140001
0.140129
0.191057
0.246249
0.248063
0.248155
0.248206
0.24831
0.248653
0.249094
0.249216
0.24922
0.249054
0.248543
0.248097
0.248018
0.248022
0.248026
0.248021
0.247993
0.247947
0.247973
0.248235
0.248796
0.249468
0.250505
0.251912
0.25307
0.253634
0.25386
0.254073
0.25428
0.254561
0.255012
0.255548
0.256157
0.140001
0.140001
0.140001
0.140001
0.140001
0.140129
0.191057
0.246249
0.248063
0.248155
0.248206
0.24831
0.248653
0.249094
0.249216
0.24922
0.249054
0.248543
0.248097
0.248018
0.248022
0.248024
0.248018
0.247996
0.247966
0.248003
0.248255
0.24873
0.24922
0.249914
0.251103
0.252355
0.253134
0.253532
0.253838
0.254093
0.25438
0.254826
0.25536
0.255975
0.140001
0.140001
0.140001
0.140001
0.140001
0.140129
0.191057
0.246249
0.248063
0.248155
0.248206
0.24831
0.248653
0.249094
0.249216
0.24922
0.249054
0.248543
0.248097
0.248018
0.248022
0.248023
0.248015
0.247995
0.247976
0.24803
0.248283
0.248722
0.249087
0.249498
0.250363
0.251527
0.252475
0.253086
0.253541
0.253879
0.254195
0.254641
0.255172
0.255784
0.140001
0.140001
0.140001
0.140001
0.140001
0.140129
0.191057
0.246249
0.248063
0.248155
0.248206
0.24831
0.248653
0.249094
0.249216
0.24922
0.249054
0.248543
0.248097
0.248019
0.248022
0.248023
0.248013
0.247992
0.247978
0.248049
0.248314
0.248737
0.249047
0.249262
0.24978
0.250684
0.251667
0.252482
0.253141
0.253611
0.253994
0.254447
0.254985
0.255587
0.140001
0.140001
0.140001
0.140001
0.140001
0.140129
0.191057
0.246249
0.248063
0.248155
0.248206
0.24831
0.248653
0.249094
0.249216
0.24922
0.249054
0.248543
0.248097
0.248019
0.248022
0.248023
0.248012
0.247989
0.247976
0.248056
0.248341
0.248763
0.249048
0.249158
0.24941
0.249961
0.25077
0.251695
0.252586
0.25325
0.253749
0.254233
0.254785
0.25537
0.140001
0.140001
0.140001
0.140001
0.140001
0.140129
0.191057
0.246249
0.248063
0.248155
0.248206
0.24831
0.248653
0.249094
0.249216
0.24922
0.249054
0.248543
0.248097
0.248019
0.248022
0.248023
0.248011
0.247987
0.247974
0.248056
0.248357
0.248794
0.249064
0.249142
0.249231
0.249446
0.249923
0.250778
0.251841
0.252743
0.253417
0.253979
0.254546
0.255121
0.140001
0.140001
0.140001
0.140001
0.140001
0.140129
0.191057
0.246249
0.248063
0.248155
0.248206
0.24831
0.248653
0.249094
0.249216
0.24922
0.249054
0.248543
0.248097
0.248019
0.248022
0.248023
0.248012
0.247986
0.247971
0.248054
0.248361
0.248819
0.249089
0.249153
0.249177
0.249163
0.249253
0.249829
0.250915
0.252037
0.252938
0.253642
0.254242
0.25486
0.140001
0.140001
0.140001
0.140001
0.140001
0.140129
0.191057
0.246249
0.248063
0.248155
0.248206
0.24831
0.248653
0.249094
0.249216
0.24922
0.249054
0.248543
0.248097
0.248019
0.248022
0.248023
0.248012
0.247985
0.247969
0.248052
0.24836
0.248831
0.249115
0.249174
0.249183
0.249077
0.248847
0.249026
0.24991
0.25112
0.252246
0.253157
0.253889
0.254705
0.140001
0.140001
0.140001
0.140001
0.140001
0.140129
0.191057
0.246249
0.248063
0.248155
0.248206
0.24831
0.248653
0.249094
0.249216
0.24922
0.249054
0.248543
0.248097
0.248019
0.248022
0.248023
0.248012
0.247986
0.247969
0.24805
0.248357
0.248832
0.249132
0.249199
0.249201
0.249067
0.24869
0.248475
0.248986
0.250064
0.251322
0.252484
0.253532
0.254736
0.140001
0.140001
0.140001
0.140001
0.140001
0.140129
0.191057
0.246249
0.248063
0.248155
0.248206
0.24831
0.248653
0.249094
0.249216
0.24922
0.249054
0.248543
0.248097
0.248019
0.248022
0.248023
0.248012
0.247986
0.247969
0.248049
0.248355
0.24883
0.249139
0.249219
0.249224
0.249085
0.248665
0.248188
0.248303
0.249048
0.250248
0.251671
0.253229
0.254994
0.140001
0.140001
0.140001
0.140001
0.140001
0.140129
0.191057
0.246249
0.248063
0.248155
0.248206
0.24831
0.248653
0.249094
0.249216
0.24922
0.249054
0.248543
0.248097
0.248019
0.248022
0.248023
0.248012
0.247986
0.247969
0.248048
0.248353
0.248828
0.249139
0.24923
0.249246
0.249102
0.248667
0.248136
0.24793
0.248286
0.249251
0.250856
0.252979
0.255362
0.140001
0.140001
0.140001
0.140001
0.140001
0.140129
0.191057
0.246249
0.248063
0.248155
0.248206
0.24831
0.248653
0.249094
0.249216
0.24922
0.249054
0.248543
0.248097
0.248019
0.248022
0.248023
0.248012
0.247986
0.247969
0.248048
0.248353
0.248826
0.249139
0.249232
0.249258
0.249117
0.248676
0.248119
0.247799
0.247899
0.248605
0.250231
0.252702
0.255572
0.324558
0.31415
0.307743
0.302842
0.299275
0.296855
0.295321
0.294411
0.293794
0.293083
0.292169
0.291322
0.290793
0.290589
0.290625
0.290833
0.291133
0.29138
0.291071
0.290215
0.289252
0.288323
0.28758
0.286988
0.286687
0.28665
0.286783
0.287055
0.287372
0.287701
0.288102
0.288645
0.28923
0.289482
0.289075
0.288362
0.287746
0.287334
0.287142
0.28716
0.287422
0.287967
0.28871
0.289729
0.292309
0.297769
0.300837
0.299162
0.274894
0.196246
0.152365
0.149912
0.149883
0.149934
0.15002
0.15042
0.152226
0.156639
0.162794
0.168516
0.172919
0.175536
0.17659
0.176689
0.176432
0.175926
0.175287
0.174627
0.174075
0.17367
0.173385
0.173182
0.17304
0.172942
0.172876
0.172844
0.172821
0.172874
0.172889
0.173042
0.312292
0.304042
0.301031
0.298246
0.296209
0.294752
0.293833
0.293223
0.292738
0.292137
0.291388
0.290793
0.290455
0.290286
0.290239
0.290267
0.290438
0.29066
0.290358
0.289553
0.288685
0.287866
0.287154
0.286691
0.286556
0.286646
0.286862
0.287162
0.287547
0.288044
0.288593
0.289082
0.289413
0.28945
0.289042
0.288347
0.287686
0.287192
0.286919
0.28696
0.287369
0.288054
0.289019
0.290646
0.294095
0.298156
0.297626
0.291648
0.258427
0.182591
0.15112
0.149895
0.149891
0.15002
0.150562
0.152346
0.155545
0.159379
0.163326
0.167707
0.171686
0.174509
0.175836
0.176175
0.176104
0.175722
0.175144
0.174531
0.174
0.173588
0.173296
0.173101
0.172972
0.172881
0.172827
0.172801
0.172796
0.172857
0.172884
0.173045
0.308554
0.303545
0.301286
0.298391
0.296247
0.294828
0.293928
0.293304
0.29288
0.292535
0.292031
0.291385
0.290822
0.290462
0.290404
0.290652
0.290937
0.291002
0.290394
0.289516
0.288672
0.287929
0.287351
0.286955
0.286808
0.286879
0.287099
0.287439
0.287901
0.288468
0.28907
0.289585
0.289872
0.289807
0.289348
0.288636
0.287917
0.287351
0.287012
0.286983
0.287385
0.288102
0.289034
0.290866
0.295125
0.298226
0.296904
0.29078
0.250831
0.173041
0.150411
0.149886
0.150011
0.150828
0.153045
0.156314
0.159218
0.161138
0.162741
0.165343
0.168911
0.172528
0.175014
0.175938
0.175982
0.175631
0.175092
0.174558
0.174046
0.173612
0.173303
0.173102
0.172969
0.17288
0.172821
0.172797
0.172799
0.172861
0.172892
0.173048
0.304593
0.301587
0.29992
0.297426
0.295363
0.293893
0.293022
0.292574
0.292423
0.292371
0.292035
0.29135
0.290638
0.29016
0.290133
0.29061
0.291063
0.290849
0.28994
0.289039
0.288279
0.287684
0.287249
0.286987
0.286917
0.287045
0.28735
0.287817
0.288418
0.289096
0.289767
0.290304
0.290578
0.290468
0.28994
0.289152
0.288341
0.287679
0.287281
0.287194
0.287519
0.288191
0.289218
0.291416
0.295693
0.297916
0.296641
0.287869
0.237691
0.164493
0.150111
0.150124
0.151259
0.153876
0.157197
0.159916
0.161489
0.162158
0.162593
0.163556
0.166004
0.16978
0.173258
0.175099
0.175534
0.175415
0.175045
0.174575
0.174062
0.173616
0.173288
0.173067
0.172928
0.172841
0.172789
0.172771
0.17278
0.172847
0.172881
0.173034
0.301813
0.299768
0.298449
0.296323
0.294247
0.292792
0.292063
0.29183
0.291909
0.292064
0.291888
0.291291
0.29064
0.290224
0.29023
0.290723
0.291117
0.290724
0.289921
0.289136
0.28843
0.287826
0.287381
0.287134
0.28709
0.287265
0.287645
0.288191
0.288876
0.289595
0.290271
0.290832
0.291162
0.291117
0.290623
0.289802
0.288926
0.288192
0.287723
0.287549
0.287746
0.288334
0.289392
0.291744
0.296083
0.297524
0.296335
0.284595
0.224566
0.158965
0.150519
0.151912
0.154823
0.15803
0.160408
0.161748
0.16236
0.162552
0.162644
0.162947
0.163916
0.166548
0.170466
0.173598
0.174964
0.175252
0.175064
0.174566
0.17407
0.173635
0.173282
0.17304
0.172891
0.172803
0.172753
0.172738
0.172749
0.172817
0.17286
0.173015
0.299495
0.298017
0.296817
0.295045
0.293145
0.291787
0.291176
0.291074
0.291253
0.291484
0.291425
0.290967
0.29041
0.290073
0.290136
0.290638
0.290902
0.290411
0.289668
0.288945
0.2883
0.287781
0.287435
0.28725
0.28725
0.287459
0.287853
0.288397
0.289052
0.289773
0.290488
0.291132
0.291544
0.291591
0.291248
0.290531
0.289633
0.288807
0.288269
0.288045
0.288114
0.288527
0.289528
0.291935
0.296183
0.297208
0.295404
0.278789
0.211091
0.156173
0.153107
0.155813
0.158812
0.160847
0.161959
0.162519
0.162776
0.162839
0.162841
0.162924
0.163213
0.164177
0.167017
0.170993
0.173713
0.174726
0.174871
0.174564
0.174094
0.173644
0.173268
0.173004
0.172839
0.172747
0.172701
0.172688
0.172702
0.172773
0.172824
0.172985
0.297529
0.296535
0.295446
0.293879
0.292129
0.290818
0.290255
0.290224
0.290487
0.290796
0.290856
0.290544
0.290075
0.289794
0.289877
0.290339
0.290511
0.290059
0.289393
0.288743
0.288169
0.287725
0.287437
0.2873
0.287329
0.287533
0.287879
0.288363
0.288991
0.28971
0.290471
0.29121
0.291697
0.291803
0.291585
0.29111
0.290387
0.289518
0.288805
0.288475
0.288525
0.288883
0.289798
0.292269
0.296223
0.296918
0.294511
0.273179
0.200361
0.157543
0.157037
0.15945
0.161169
0.162025
0.162417
0.162671
0.162857
0.16298
0.163017
0.163013
0.163131
0.163351
0.164324
0.167496
0.171436
0.173773
0.174529
0.174562
0.174129
0.17363
0.173241
0.17296
0.172777
0.172676
0.172631
0.172622
0.172641
0.172717
0.172775
0.172942
0.295698
0.295115
0.294141
0.292679
0.291094
0.28985
0.289329
0.289331
0.28968
0.29009
0.290234
0.290009
0.28961
0.289354
0.289435
0.289872
0.290037
0.289633
0.28904
0.288467
0.28797
0.287593
0.287351
0.287238
0.287271
0.287456
0.28777
0.288207
0.288768
0.289466
0.290225
0.290848
0.291352
0.291619
0.291575
0.291331
0.290906
0.290264
0.289547
0.289094
0.288972
0.289083
0.289786
0.292479
0.296519
0.296632
0.293896
0.267688
0.192975
0.160203
0.160013
0.161384
0.16218
0.162533
0.162687
0.162782
0.162876
0.162999
0.163098
0.163153
0.163181
0.163215
0.163327
0.164483
0.168055
0.171849
0.17377
0.174278
0.174123
0.173652
0.173217
0.172908
0.172707
0.172593
0.172543
0.172535
0.172562
0.172647
0.172711
0.172885
0.293944
0.293737
0.292891
0.291481
0.290066
0.288903
0.28843
0.288467
0.288875
0.289378
0.289568
0.289375
0.289026
0.288801
0.288889
0.28935
0.289563
0.289195
0.288658
0.28816
0.287734
0.287414
0.28721
0.287114
0.287145
0.287313
0.287592
0.287976
0.288481
0.289123
0.289811
0.290536
0.291203
0.291481
0.291459
0.291269
0.291019
0.290653
0.290228
0.289841
0.289462
0.289236
0.289858
0.29304
0.297474
0.298151
0.295689
0.263434
0.1874
0.161702
0.161441
0.162054
0.16243
0.162625
0.162767
0.162861
0.16292
0.162987
0.163097
0.163216
0.163279
0.163229
0.163163
0.163233
0.164762
0.168709
0.172207
0.173707
0.174007
0.173663
0.173196
0.172844
0.172626
0.172498
0.17244
0.172431
0.172465
0.172561
0.17263
0.172813
0.292264
0.292343
0.291622
0.29026
0.28902
0.287962
0.287527
0.28758
0.288005
0.288562
0.288812
0.288658
0.288385
0.288232
0.288341
0.288826
0.289111
0.288782
0.288289
0.287853
0.28749
0.287218
0.287043
0.286957
0.286973
0.287109
0.28735
0.287684
0.288152
0.288737
0.289407
0.290116
0.290767
0.291075
0.291
0.290886
0.290731
0.290611
0.290526
0.290425
0.290099
0.289761
0.290732
0.295385
0.300422
0.301874
0.29835
0.257448
0.181658
0.162153
0.16209
0.162398
0.162593
0.162675
0.162775
0.162887
0.162955
0.163
0.163086
0.163227
0.163344
0.163309
0.163148
0.163028
0.163169
0.165208
0.169392
0.172466
0.17355
0.173619
0.173182
0.172774
0.172529
0.172389
0.172323
0.172311
0.172348
0.172455
0.172529
0.172724
0.290673
0.290941
0.290332
0.289048
0.287961
0.287019
0.286601
0.286639
0.287044
0.287624
0.287955
0.287903
0.287756
0.287705
0.287827
0.288289
0.288665
0.288404
0.287951
0.287565
0.287253
0.287013
0.286851
0.286764
0.286755
0.286862
0.287077
0.287383
0.287822
0.288376
0.289031
0.289731
0.290266
0.290508
0.290508
0.290351
0.290199
0.290181
0.290387
0.290694
0.291007
0.291584
0.293947
0.300315
0.305988
0.307556
0.300605
0.248791
0.17604
0.162217
0.16225
0.162486
0.162671
0.162745
0.1628
0.16287
0.162948
0.163017
0.163096
0.163237
0.163366
0.163372
0.163218
0.163011
0.162895
0.163218
0.165838
0.170043
0.172594
0.173314
0.173161
0.17273
0.172415
0.172262
0.172192
0.172175
0.172209
0.172327
0.17241
0.172621
0.289178
0.289527
0.289052
0.287879
0.286901
0.286052
0.285631
0.285642
0.286024
0.286634
0.287089
0.287197
0.287179
0.287207
0.287322
0.28773
0.288211
0.288057
0.287646
0.287295
0.287016
0.286793
0.286631
0.286535
0.286503
0.286584
0.286778
0.287073
0.287473
0.287996
0.288621
0.289244
0.289686
0.289865
0.28984
0.289733
0.289765
0.289904
0.290314
0.291127
0.292772
0.295447
0.300004
0.307481
0.312023
0.312222
0.299697
0.238323
0.171583
0.162369
0.162353
0.162524
0.162692
0.162788
0.162841
0.162878
0.162931
0.163012
0.163116
0.16326
0.163377
0.163389
0.163291
0.16306
0.162877
0.162808
0.163416
0.166599
0.170584
0.172571
0.172981
0.172663
0.172306
0.172116
0.172037
0.172018
0.17205
0.172179
0.172272
0.172502
0.287733
0.288136
0.28783
0.286784
0.285862
0.285072
0.28464
0.284638
0.285025
0.285698
0.286282
0.28653
0.286605
0.286685
0.286801
0.287178
0.287763
0.287734
0.287356
0.287022
0.286759
0.286539
0.286366
0.286252
0.2862
0.286256
0.286434
0.28672
0.287078
0.287526
0.288053
0.288601
0.289029
0.289234
0.289275
0.289325
0.289578
0.290138
0.291289
0.293485
0.29695
0.301362
0.306714
0.313172
0.315971
0.313806
0.296112
0.227799
0.168497
0.162428
0.162433
0.162574
0.162692
0.162779
0.162853
0.162904
0.162941
0.163009
0.163132
0.163292
0.163391
0.163392
0.163312
0.163138
0.16291
0.162768
0.162768
0.16377
0.167391
0.170956
0.1724
0.172548
0.17221
0.171949
0.171854
0.171835
0.171869
0.172011
0.172116
0.172364
0.286297
0.286784
0.286666
0.285757
0.284861
0.284105
0.28366
0.283665
0.284084
0.284837
0.285534
0.285873
0.286006
0.286133
0.286281
0.286653
0.287313
0.287413
0.28705
0.286714
0.286452
0.286225
0.286038
0.285905
0.285835
0.285864
0.286013
0.286253
0.286543
0.286903
0.287344
0.287886
0.28846
0.288859
0.289071
0.289447
0.290301
0.292031
0.294708
0.298478
0.302734
0.307142
0.311751
0.316838
0.317615
0.31322
0.290612
0.218124
0.166541
0.162436
0.162466
0.162615
0.162721
0.162781
0.162847
0.162916
0.162961
0.163024
0.163156
0.163318
0.163402
0.163391
0.163312
0.163178
0.162984
0.162794
0.162699
0.162778
0.164268
0.168113
0.171122
0.172114
0.172083
0.171794
0.171642
0.171621
0.171661
0.171815
0.171931
0.172202
0.284837
0.285446
0.285497
0.284748
0.283885
0.283168
0.282717
0.28273
0.283179
0.283996
0.284787
0.2852
0.285386
0.285573
0.285778
0.286157
0.286845
0.287067
0.286704
0.286348
0.286077
0.28584
0.285636
0.285481
0.285384
0.285369
0.285451
0.285612
0.285841
0.286196
0.28672
0.287428
0.288223
0.288974
0.289783
0.291114
0.293338
0.296427
0.29997
0.303431
0.3069
0.310382
0.314266
0.31761
0.316834
0.311502
0.285006
0.210018
0.165349
0.162455
0.162467
0.162621
0.162753
0.162814
0.16286
0.162911
0.162969
0.163051
0.163199
0.163348
0.163406
0.163384
0.163301
0.163191
0.163051
0.162862
0.162708
0.162653
0.162851
0.164865
0.168677
0.171108
0.171743
0.171613
0.17143
0.171378
0.171412
0.171575
0.171708
0.172004
0.283345
0.284113
0.284296
0.283712
0.282905
0.28224
0.281792
0.281804
0.282265
0.283123
0.284002
0.284512
0.284773
0.285022
0.285277
0.285656
0.286331
0.286663
0.286312
0.285916
0.285626
0.285371
0.285138
0.284938
0.284791
0.284721
0.284748
0.284893
0.285184
0.285684
0.286436
0.2875
0.288881
0.290623
0.292873
0.295614
0.298667
0.301655
0.304123
0.306235
0.308802
0.311967
0.314344
0.316016
0.314945
0.308919
0.279195
0.20382
0.16469
0.16249
0.162496
0.162626
0.162764
0.162847
0.162887
0.162915
0.162971
0.163081
0.163252
0.163386
0.163417
0.163376
0.163286
0.163186
0.163083
0.162946
0.16277
0.162645
0.162623
0.163002
0.165477
0.169038
0.170916
0.171316
0.171206
0.171114
0.171117
0.171277
0.171431
0.171762
0.28183
0.282733
0.283042
0.282608
0.281883
0.281265
0.280838
0.28085
0.281316
0.282203
0.283171
0.283803
0.284152
0.284452
0.284733
0.285109
0.285763
0.28618
0.285867
0.285416
0.285082
0.284784
0.284493
0.284235
0.284055
0.28399
0.28409
0.284395
0.284877
0.285654
0.286963
0.289032
0.291866
0.29499
0.298063
0.300933
0.303301
0.305104
0.305989
0.307119
0.3091
0.311395
0.312518
0.312814
0.311866
0.305049
0.273342
0.200132
0.164443
0.162521
0.162543
0.162658
0.162778
0.162857
0.162905
0.162932
0.162989
0.163121
0.163304
0.163422
0.163434
0.163374
0.163272
0.163173
0.163089
0.162997
0.16286
0.1627
0.1626
0.162606
0.163225
0.165997
0.169162
0.170626
0.170904
0.170825
0.170792
0.170929
0.171091
0.171461
0.280213
0.281265
0.281751
0.281431
0.280798
0.2802
0.279805
0.279843
0.280327
0.28124
0.282288
0.283047
0.28349
0.28383
0.284119
0.284488
0.285135
0.285605
0.285339
0.284832
0.284401
0.284038
0.283704
0.28346
0.283356
0.283446
0.283774
0.284374
0.285348
0.286975
0.289553
0.292954
0.296669
0.300046
0.302537
0.304279
0.305461
0.306095
0.306429
0.307438
0.308594
0.309507
0.309411
0.309011
0.307069
0.298951
0.267703
0.199426
0.164676
0.16255
0.162583
0.1627
0.162806
0.162865
0.162908
0.162948
0.163026
0.16318
0.163357
0.163449
0.163446
0.163372
0.163265
0.163163
0.163084
0.16302
0.16293
0.162788
0.162644
0.162569
0.162606
0.163472
0.166353
0.169108
0.170259
0.170473
0.170459
0.170548
0.170688
0.171088
0.278221
0.279606
0.280367
0.280232
0.27968
0.279058
0.278661
0.278745
0.279282
0.280244
0.281365
0.282232
0.282755
0.283125
0.283419
0.283783
0.284437
0.284927
0.284673
0.284116
0.283586
0.283211
0.282957
0.282876
0.282991
0.283369
0.284166
0.28553
0.287687
0.290574
0.293868
0.297505
0.300953
0.303252
0.304698
0.305526
0.305738
0.305677
0.306176
0.306965
0.307358
0.307107
0.306364
0.304552
0.300544
0.290901
0.263059
0.201739
0.165416
0.162602
0.162615
0.162724
0.162834
0.162886
0.162916
0.162962
0.163071
0.163251
0.163414
0.163473
0.163451
0.16337
0.163263
0.16316
0.163079
0.16302
0.162967
0.162874
0.162728
0.162604
0.162544
0.162619
0.163701
0.166498
0.168859
0.16983
0.170064
0.170136
0.170234
0.17064
0.275229
0.277602
0.278815
0.278998
0.278522
0.277871
0.277454
0.277576
0.278177
0.279201
0.280389
0.28134
0.28193
0.282334
0.282639
0.282997
0.283644
0.284117
0.283839
0.283275
0.282811
0.282602
0.282562
0.282724
0.283279
0.284375
0.286199
0.288692
0.291624
0.294672
0.297808
0.300727
0.303011
0.304477
0.305359
0.305142
0.304918
0.304701
0.305467
0.306156
0.306017
0.305206
0.30306
0.298974
0.292429
0.282551
0.260491
0.205766
0.166534
0.162665
0.162649
0.162739
0.162849
0.162906
0.162934
0.16299
0.163125
0.163323
0.163465
0.163497
0.163454
0.163365
0.163261
0.163163
0.16308
0.163018
0.162973
0.162919
0.162822
0.16268
0.162571
0.162535
0.162643
0.163809
0.166404
0.168481
0.169362
0.169624
0.169732
0.170119
0.270838
0.274771
0.276855
0.277552
0.277291
0.276648
0.276249
0.276383
0.277031
0.278108
0.279361
0.280376
0.281019
0.281461
0.281782
0.282119
0.28272
0.28318
0.282965
0.282541
0.282424
0.282445
0.282723
0.283491
0.28497
0.287141
0.289694
0.292407
0.295056
0.297486
0.299889
0.302077
0.303933
0.304676
0.304531
0.303917
0.303668
0.303766
0.304407
0.304635
0.304214
0.30241
0.298196
0.291293
0.283856
0.276984
0.260394
0.210241
0.167698
0.162721
0.162692
0.162766
0.162862
0.162918
0.162955
0.163034
0.163197
0.163395
0.163506
0.163515
0.163455
0.163359
0.163259
0.163168
0.163086
0.163019
0.16297
0.162935
0.162877
0.162777
0.162641
0.162556
0.162524
0.162652