/*--------------------------------*- C++ -*----------------------------------*\
| =========                 |                                                 |
| \\      /  F ield         | OpenFOAM: The Open Source CFD Toolbox           |
|  \\    /   O peration     | Version:  v1912                                 |
|   \\  /    A nd           | Website:  www.openfoam.com                      |
|    \\/     M anipulation  |                                                 |
\*---------------------------------------------------------------------------*/
FoamFile
{
    version     2.0;
    format      ascii;
    class       volScalarField;
    location    "7.48";
    object      T;
}
// * * * * * * * * * * * * * * * * * * * * * * * * * * * * * * * * * * * * * //

dimensions      [0 0 0 1 0 0 0];


internalField   nonuniform List<scalar> 
1900
(
1.26227
0.981354
0.928505
0.923889
0.925455
0.932516
0.941798
0.948717
0.951604
0.952482
1.26227
0.981355
0.928504
0.923895
0.925453
0.932518
0.941777
0.948872
0.951957
0.952559
1.26227
0.981355
0.928504
0.9239
0.92546
0.932528
0.941747
0.948863
0.951748
0.952251
1.26227
0.981355
0.928504
0.923895
0.925453
0.932518
0.941777
0.948872
0.951957
0.952559
1.26227
0.981354
0.928505
0.923889
0.925455
0.932516
0.941798
0.948717
0.951604
0.952482
0.956511
0.952524
0.955641
0.964348
1.00433
0.952308
0.949751
0.952214
0.959331
0.986486
0.951467
0.949101
0.951202
0.958802
0.984475
0.952308
0.949751
0.952214
0.959331
0.986486
0.956511
0.952524
0.955641
0.964348
1.00433
0.796349
0.681159
0.616598
0.571107
0.539234
0.816166
0.697539
0.629407
0.584773
0.545382
0.816053
0.691888
0.623115
0.580101
0.536216
0.816166
0.697539
0.629407
0.584773
0.545382
0.796349
0.681159
0.616598
0.571107
0.539234
0.511133
0.496051
0.485468
0.479271
0.468088
0.452597
0.45205
0.478908
0.568685
0.612752
0.614723
0.612145
0.598746
0.568818
0.536493
0.51336
0.49236
0.466899
0.432494
0.397343
0.379358
0.373178
0.369428
0.366035
0.363136
0.361161
0.360284
0.360246
0.36057
0.361201
0.361766
0.362817
0.367452
0.392799
0.439431
0.466867
0.485976
0.503824
0.51793
0.520764
0.525823
0.519265
0.513835
0.506497
0.49106
0.468171
0.462263
0.489311
0.57871
0.617308
0.618029
0.614542
0.60002
0.570021
0.53688
0.513814
0.493091
0.467612
0.432956
0.397513
0.379374
0.373172
0.369433
0.366037
0.363128
0.361148
0.36027
0.360233
0.360559
0.361192
0.361758
0.362809
0.367444
0.392781
0.439439
0.466872
0.485958
0.503793
0.517909
0.520735
0.5264
0.522635
0.520336
0.515364
0.501153
0.474949
0.467422
0.492021
0.583318
0.619424
0.619325
0.615321
0.6007
0.572524
0.539898
0.51484
0.493152
0.467392
0.432873
0.39757
0.379391
0.373171
0.369435
0.366038
0.363126
0.361143
0.360265
0.360229
0.360556
0.361189
0.361755
0.362805
0.36744
0.392775
0.439441
0.466872
0.485949
0.503781
0.517906
0.520718
0.525823
0.519265
0.513835
0.506497
0.49106
0.468171
0.462263
0.489311
0.57871
0.617308
0.618029
0.614542
0.60002
0.570021
0.53688
0.513814
0.493091
0.467612
0.432956
0.397513
0.379374
0.373172
0.369433
0.366037
0.363128
0.361148
0.36027
0.360233
0.360559
0.361192
0.361758
0.362809
0.367444
0.392781
0.439439
0.466872
0.485958
0.503793
0.517909
0.520735
0.511133
0.496051
0.485468
0.479271
0.468088
0.452597
0.45205
0.478908
0.568685
0.612752
0.614723
0.612145
0.598746
0.568818
0.536493
0.51336
0.49236
0.466899
0.432494
0.397343
0.379358
0.373178
0.369428
0.366035
0.363136
0.361161
0.360284
0.360246
0.36057
0.361201
0.361766
0.362817
0.367452
0.392799
0.439431
0.466867
0.485976
0.503824
0.51793
0.520764
0.434944
0.431633
0.428063
0.427456
0.423811
0.421387
0.425467
0.465876
0.546344
0.595514
0.603326
0.601965
0.590721
0.56377
0.533973
0.511591
0.491005
0.465767
0.431298
0.396545
0.379225
0.373191
0.369412
0.366027
0.363163
0.361217
0.360349
0.360303
0.36062
0.361241
0.361801
0.362848
0.367489
0.392839
0.439367
0.466729
0.485997
0.50378
0.517957
0.520873
0.388176
0.386006
0.382139
0.381025
0.382494
0.389131
0.405555
0.459236
0.528485
0.57591
0.588691
0.587356
0.574296
0.548917
0.525062
0.506207
0.486829
0.461659
0.427289
0.394429
0.378906
0.373207
0.369384
0.366014
0.363224
0.36135
0.360505
0.360446
0.360745
0.361341
0.361886
0.362922
0.367572
0.392917
0.439267
0.46648
0.486045
0.503665
0.517964
0.520929
0.387876
0.38916
0.389194
0.387644
0.390557
0.39915
0.422929
0.46967
0.527312
0.561815
0.570994
0.568078
0.553188
0.532874
0.515538
0.499542
0.480798
0.455353
0.421374
0.391629
0.378515
0.373223
0.369377
0.366036
0.363339
0.36156
0.360752
0.360677
0.360953
0.361515
0.362034
0.363053
0.367709
0.393026
0.439163
0.466249
0.486
0.503593
0.518103
0.521088
0.390644
0.390585
0.38981
0.390469
0.397383
0.412515
0.437281
0.48393
0.531303
0.553586
0.558607
0.550078
0.533913
0.519071
0.506064
0.491461
0.472924
0.447159
0.414198
0.388695
0.378161
0.373245
0.369397
0.366104
0.363515
0.361846
0.361082
0.360995
0.361245
0.361767
0.362253
0.363249
0.367911
0.393208
0.439125
0.466104
0.485978
0.503647
0.518324
0.521292
0.397615
0.397836
0.399142
0.404566
0.416612
0.435729
0.465159
0.506985
0.534711
0.547195
0.542491
0.529993
0.517845
0.50748
0.496126
0.481991
0.463555
0.437392
0.406402
0.386043
0.377852
0.37324
0.369419
0.366206
0.363745
0.362198
0.361483
0.361387
0.361612
0.362091
0.362538
0.363506
0.368174
0.39339
0.439026
0.465892
0.485848
0.503678
0.51852
0.521506
0.414596
0.415897
0.42067
0.430188
0.444997
0.466095
0.494975
0.51998
0.533329
0.5327
0.523847
0.513869
0.50513
0.496349
0.485455
0.471822
0.453142
0.426392
0.398934
0.384068
0.377664
0.373251
0.369472
0.36637
0.364058
0.362639
0.361976
0.361874
0.362079
0.362517
0.362923
0.363875
0.368554
0.393797
0.439157
0.465855
0.485845
0.503835
0.51877
0.521702
0.442944
0.445438
0.452791
0.461692
0.473779
0.492155
0.50892
0.518957
0.522094
0.516419
0.507261
0.50023
0.49344
0.484939
0.474588
0.461239
0.441495
0.414796
0.392903
0.382749
0.377459
0.373203
0.369519
0.366564
0.364421
0.363137
0.362528
0.362425
0.362612
0.363014
0.363386
0.364311
0.368995
0.394089
0.439152
0.465745
0.485751
0.503887
0.518951
0.521864
0.475007
0.479264
0.482762
0.486924
0.495595
0.503338
0.507973
0.511235
0.506552
0.498401
0.493411
0.488197
0.481632
0.473718
0.463972
0.449924
0.428446
0.404033
0.38896
0.382069
0.377379
0.37323
0.36969
0.36692
0.364956
0.363798
0.363239
0.363134
0.363299
0.363668
0.364008
0.364924
0.369626
0.394699
0.439429
0.465792
0.485781
0.504044
0.519203
0.522085
0.504239
0.508662
0.503091
0.5041
0.502827
0.501732
0.500853
0.493846
0.488942
0.485344
0.481483
0.476299
0.470239
0.463203
0.453273
0.437358
0.415083
0.39616
0.386856
0.381665
0.377303
0.37332
0.369978
0.367409
0.365624
0.364586
0.364074
0.363964
0.364107
0.364449
0.36477
0.365681
0.370386
0.395256
0.439649
0.465834
0.485804
0.5042
0.519491
0.522364
0.528877
0.524811
0.514747
0.508384
0.500816
0.492661
0.484993
0.480266
0.477242
0.474137
0.469914
0.46501
0.459932
0.453006
0.441479
0.423405
0.403707
0.391912
0.386018
0.381624
0.377451
0.373645
0.37052
0.368152
0.366522
0.365571
0.365084
0.364956
0.365069
0.365389
0.3657
0.366631
0.371365
0.396139
0.440136
0.466023
0.485961
0.504473
0.519916
0.522833
0.533726
0.523211
0.511993
0.502342
0.493464
0.483166
0.475432
0.470573
0.467005
0.463114
0.458852
0.454989
0.450336
0.442258
0.428412
0.410414
0.396707
0.389968
0.385596
0.381516
0.377483
0.373886
0.370981
0.368816
0.367342
0.366477
0.366019
0.365873
0.365965
0.366281
0.366615
0.36758
0.372327
0.396718
0.440393
0.466166
0.486125
0.504745
0.520402
0.523399
0.532578
0.521023
0.509216
0.501225
0.490564
0.478849
0.468186
0.461037
0.456175
0.452213
0.449099
0.446066
0.440562
0.430231
0.415068
0.401136
0.393547
0.389243
0.385631
0.381817
0.378054
0.374802
0.372243
0.370388
0.369157
0.368474
0.368122
0.368053
0.368193
0.36859
0.368975
0.370044
0.374891
0.399217
0.442671
0.468047
0.487384
0.505636
0.521277
0.524305
0.533742
0.52169
0.509809
0.502473
0.490948
0.476169
0.460617
0.451111
0.44622
0.443475
0.44139
0.437761
0.430463
0.418978
0.406674
0.398874
0.394642
0.391678
0.388576
0.385226
0.382065
0.379452
0.377472
0.376104
0.375245
0.37483
0.37466
0.37475
0.375021
0.375565
0.376028
0.377249
0.382265
0.406702
0.449749
0.473784
0.49199
0.508722
0.522881
0.525434
0.536645
0.524623
0.512622
0.504393
0.492681
0.474275
0.454179
0.444026
0.440516
0.439778
0.438974
0.435123
0.427049
0.417517
0.411133
0.408921
0.408315
0.407671
0.406512
0.404977
0.403613
0.402753
0.402335
0.402296
0.402482
0.402992
0.403402
0.404117
0.404767
0.405629
0.406058
0.407423
0.412729
0.437189
0.476687
0.494498
0.506539
0.517487
0.527419
0.527831
0.540041
0.529061
0.518195
0.509514
0.499963
0.480579
0.459648
0.452197
0.45194
0.453522
0.453812
0.451754
0.447766
0.444996
0.444597
0.445451
0.446482
0.446749
0.446239
0.445276
0.444378
0.443795
0.443408
0.443324
0.443397
0.443762
0.44405
0.444573
0.445002
0.445599
0.44586
0.447041
0.452169
0.473595
0.506284
0.519744
0.527792
0.533019
0.536615
0.532921
0.542388
0.536163
0.531704
0.529172
0.524668
0.51084
0.490565
0.483055
0.482776
0.483008
0.480829
0.477204
0.474051
0.473118
0.473286
0.473789
0.473723
0.47296
0.47171
0.470311
0.469139
0.468208
0.467424
0.46695
0.466662
0.466655
0.466626
0.466742
0.46685
0.467078
0.467111
0.467903
0.472204
0.488118
0.515316
0.528419
0.536828
0.54269
0.545753
0.540279
0.542818
0.542156
0.542766
0.545033
0.542511
0.531575
0.512217
0.502436
0.498975
0.496509
0.493446
0.49135
0.490348
0.490609
0.491153
0.491442
0.491121
0.490201
0.488813
0.487375
0.486224
0.485554
0.485232
0.485053
0.484902
0.484947
0.484952
0.485075
0.485206
0.485444
0.485518
0.486115
0.489578
0.50051
0.52225
0.534803
0.541728
0.545259
0.546178
0.541786
0.538331
0.543735
0.546913
0.548485
0.54722
0.536918
0.520101
0.509764
0.50498
0.502746
0.501252
0.501284
0.502008
0.503305
0.504573
0.505424
0.505761
0.505511
0.504891
0.504233
0.503832
0.503496
0.503327
0.503261
0.503242
0.503426
0.503593
0.503872
0.504121
0.504456
0.504686
0.505279
0.507404
0.514221
0.528973
0.540911
0.544907
0.54791
0.545423
0.532192
0.446337
0.510354
0.545495
0.547933
0.550188
0.542498
0.530485
0.523106
0.519528
0.518293
0.517678
0.518191
0.519107
0.520212
0.521091
0.521513
0.521503
0.521131
0.520572
0.520063
0.519811
0.519487
0.519249
0.519163
0.51915
0.519253
0.519344
0.519525
0.51971
0.519995
0.520307
0.520899
0.521961
0.525587
0.533559
0.544
0.546194
0.545627
0.508936
0.43554
0.329233
0.420816
0.532001
0.543942
0.544215
0.537704
0.530047
0.526606
0.525343
0.525249
0.525289
0.525656
0.526151
0.526554
0.526644
0.526373
0.525778
0.525099
0.524489
0.523999
0.523564
0.523044
0.522571
0.522268
0.52213
0.522102
0.522113
0.52221
0.522334
0.522596
0.522945
0.523589
0.524408
0.526287
0.530542
0.538097
0.540942
0.532559
0.438248
0.332265
0.329233
0.420816
0.532001
0.543942
0.544215
0.537704
0.530047
0.526606
0.525343
0.525249
0.525289
0.525656
0.526151
0.526554
0.526644
0.526373
0.525778
0.525099
0.524489
0.523999
0.523564
0.523044
0.522571
0.522268
0.52213
0.522102
0.522113
0.52221
0.522334
0.522596
0.522945
0.523589
0.524408
0.526287
0.530542
0.538097
0.540942
0.532559
0.438248
0.332265
0.446337
0.510354
0.545495
0.547933
0.550188
0.542498
0.530485
0.523106
0.519528
0.518293
0.517678
0.518191
0.519107
0.520212
0.521091
0.521513
0.521503
0.521131
0.520572
0.520063
0.519811
0.519487
0.519249
0.519163
0.51915
0.519253
0.519344
0.519525
0.51971
0.519995
0.520307
0.520899
0.521961
0.525587
0.533559
0.544
0.546194
0.545627
0.508936
0.43554
0.538331
0.543735
0.546913
0.548485
0.54722
0.536918
0.520101
0.509764
0.50498
0.502746
0.501252
0.501284
0.502008
0.503305
0.504573
0.505424
0.505761
0.505511
0.504891
0.504233
0.503832
0.503496
0.503327
0.503261
0.503242
0.503426
0.503593
0.503872
0.504121
0.504456
0.504686
0.505279
0.507404
0.514221
0.528973
0.540911
0.544907
0.54791
0.545423
0.532192
0.542818
0.542156
0.542766
0.545033
0.542511
0.531575
0.512217
0.502436
0.498975
0.496509
0.493446
0.49135
0.490348
0.490609
0.491153
0.491442
0.491121
0.490201
0.488813
0.487375
0.486224
0.485554
0.485232
0.485053
0.484902
0.484947
0.484952
0.485075
0.485206
0.485444
0.485518
0.486115
0.489578
0.50051
0.52225
0.534803
0.541728
0.545259
0.546178
0.541786
0.542388
0.536163
0.531704
0.529172
0.524668
0.51084
0.490565
0.483055
0.482776
0.483008
0.480829
0.477204
0.474051
0.473118
0.473286
0.473789
0.473723
0.47296
0.47171
0.470311
0.469139
0.468208
0.467424
0.46695
0.466662
0.466655
0.466626
0.466742
0.46685
0.467078
0.467111
0.467903
0.472204
0.488118
0.515316
0.528419
0.536828
0.54269
0.545753
0.540279
0.540041
0.529061
0.518195
0.509514
0.499963
0.480579
0.459648
0.452197
0.45194
0.453522
0.453812
0.451754
0.447766
0.444996
0.444597
0.445451
0.446482
0.446749
0.446239
0.445276
0.444378
0.443795
0.443408
0.443324
0.443397
0.443762
0.44405
0.444573
0.445002
0.445599
0.44586
0.447041
0.452169
0.473595
0.506284
0.519744
0.527792
0.533019
0.536615
0.532921
0.536645
0.524623
0.512622
0.504393
0.492681
0.474275
0.454179
0.444026
0.440516
0.439778
0.438974
0.435123
0.427049
0.417517
0.411133
0.408921
0.408315
0.407671
0.406512
0.404977
0.403613
0.402753
0.402335
0.402296
0.402482
0.402992
0.403402
0.404117
0.404767
0.405629
0.406058
0.407423
0.412729
0.437189
0.476687
0.494498
0.506539
0.517487
0.527419
0.527831
0.533742
0.52169
0.509809
0.502473
0.490948
0.476169
0.460617
0.451111
0.44622
0.443475
0.44139
0.437761
0.430463
0.418978
0.406674
0.398874
0.394642
0.391678
0.388576
0.385226
0.382065
0.379452
0.377472
0.376104
0.375245
0.37483
0.37466
0.37475
0.375021
0.375565
0.376028
0.377249
0.382265
0.406702
0.449749
0.473784
0.49199
0.508722
0.522881
0.525434
0.532578
0.521023
0.509216
0.501225
0.490564
0.478849
0.468186
0.461037
0.456175
0.452213
0.449099
0.446066
0.440562
0.430231
0.415068
0.401136
0.393547
0.389243
0.385631
0.381817
0.378054
0.374802
0.372243
0.370388
0.369157
0.368474
0.368122
0.368053
0.368193
0.36859
0.368975
0.370044
0.374891
0.399217
0.442671
0.468047
0.487384
0.505636
0.521277
0.524305
0.533726
0.523211
0.511993
0.502342
0.493464
0.483166
0.475432
0.470573
0.467005
0.463114
0.458852
0.454989
0.450336
0.442258
0.428412
0.410414
0.396707
0.389968
0.385596
0.381516
0.377483
0.373886
0.370981
0.368816
0.367342
0.366477
0.366019
0.365873
0.365965
0.366281
0.366615
0.36758
0.372327
0.396718
0.440393
0.466166
0.486125
0.504745
0.520402
0.523399
0.528877
0.524811
0.514747
0.508384
0.500816
0.492661
0.484993
0.480266
0.477242
0.474137
0.469914
0.46501
0.459932
0.453006
0.441479
0.423405
0.403707
0.391912
0.386018
0.381624
0.377451
0.373645
0.37052
0.368152
0.366522
0.365571
0.365084
0.364956
0.365069
0.365389
0.3657
0.366631
0.371365
0.396139
0.440136
0.466023
0.485961
0.504473
0.519916
0.522833
0.504239
0.508662
0.503091
0.5041
0.502827
0.501732
0.500853
0.493846
0.488942
0.485344
0.481483
0.476299
0.470239
0.463203
0.453273
0.437358
0.415083
0.39616
0.386856
0.381665
0.377303
0.37332
0.369978
0.367409
0.365624
0.364586
0.364074
0.363964
0.364107
0.364449
0.36477
0.365681
0.370386
0.395256
0.439649
0.465834
0.485804
0.5042
0.519491
0.522364
0.475007
0.479264
0.482762
0.486924
0.495595
0.503338
0.507973
0.511235
0.506552
0.498401
0.493411
0.488197
0.481632
0.473718
0.463972
0.449924
0.428446
0.404033
0.38896
0.382069
0.377379
0.37323
0.36969
0.36692
0.364956
0.363798
0.363239
0.363134
0.363299
0.363668
0.364008
0.364924
0.369626
0.394699
0.439429
0.465792
0.485781
0.504044
0.519203
0.522085
0.442944
0.445438
0.452791
0.461692
0.473779
0.492155
0.50892
0.518957
0.522094
0.516419
0.507261
0.50023
0.49344
0.484939
0.474588
0.461239
0.441495
0.414796
0.392903
0.382749
0.377459
0.373203
0.369519
0.366564
0.364421
0.363137
0.362528
0.362425
0.362612
0.363014
0.363386
0.364311
0.368995
0.394089
0.439152
0.465745
0.485751
0.503887
0.518951
0.521864
0.414596
0.415897
0.42067
0.430188
0.444997
0.466095
0.494975
0.51998
0.533329
0.5327
0.523847
0.513869
0.50513
0.496349
0.485455
0.471822
0.453142
0.426392
0.398934
0.384068
0.377664
0.373251
0.369472
0.36637
0.364058
0.362639
0.361976
0.361874
0.362079
0.362517
0.362923
0.363875
0.368554
0.393797
0.439157
0.465855
0.485845
0.503835
0.51877
0.521702
0.397615
0.397836
0.399142
0.404566
0.416612
0.435729
0.465159
0.506985
0.534711
0.547195
0.542491
0.529993
0.517845
0.50748
0.496126
0.481991
0.463555
0.437392
0.406402
0.386043
0.377852
0.37324
0.369419
0.366206
0.363745
0.362198
0.361483
0.361387
0.361612
0.362091
0.362538
0.363506
0.368174
0.39339
0.439026
0.465892
0.485848
0.503678
0.51852
0.521506
0.390644
0.390585
0.38981
0.390469
0.397383
0.412515
0.437281
0.48393
0.531303
0.553586
0.558607
0.550078
0.533913
0.519071
0.506064
0.491461
0.472924
0.447159
0.414198
0.388695
0.378161
0.373245
0.369397
0.366104
0.363515
0.361846
0.361082
0.360995
0.361245
0.361767
0.362253
0.363249
0.367911
0.393208
0.439125
0.466104
0.485978
0.503647
0.518324
0.521292
0.387876
0.38916
0.389194
0.387644
0.390557
0.39915
0.422929
0.46967
0.527312
0.561815
0.570994
0.568078
0.553188
0.532874
0.515538
0.499542
0.480798
0.455353
0.421374
0.391629
0.378515
0.373223
0.369377
0.366036
0.363339
0.36156
0.360752
0.360677
0.360953
0.361515
0.362034
0.363053
0.367709
0.393026
0.439163
0.466249
0.486
0.503593
0.518103
0.521088
0.388176
0.386006
0.382139
0.381025
0.382494
0.389131
0.405555
0.459236
0.528485
0.57591
0.588691
0.587356
0.574296
0.548917
0.525062
0.506207
0.486829
0.461659
0.427289
0.394429
0.378906
0.373207
0.369384
0.366014
0.363224
0.36135
0.360505
0.360446
0.360745
0.361341
0.361886
0.362922
0.367572
0.392917
0.439267
0.46648
0.486045
0.503665
0.517964
0.520929
0.434944
0.431633
0.428063
0.427456
0.423811
0.421387
0.425467
0.465876
0.546344
0.595514
0.603326
0.601965
0.590721
0.56377
0.533973
0.511591
0.491005
0.465767
0.431298
0.396545
0.379225
0.373191
0.369412
0.366027
0.363163
0.361217
0.360349
0.360303
0.36062
0.361241
0.361801
0.362848
0.367489
0.392839
0.439367
0.466729
0.485997
0.50378
0.517957
0.520873
)
;

boundaryField
{
    inlet
    {
        type            fixedValue;
        value           uniform 1;
    }
    outlet
    {
        type            zeroGradient;
    }
    obstacle
    {
        type            zeroGradient;
    }
    empty
    {
        type            empty;
    }
}


// ************************************************************************* //
