/*--------------------------------*- C++ -*----------------------------------*\
| =========                 |                                                 |
| \\      /  F ield         | OpenFOAM: The Open Source CFD Toolbox           |
|  \\    /   O peration     | Version:  v1912                                 |
|   \\  /    A nd           | Website:  www.openfoam.com                      |
|    \\/     M anipulation  |                                                 |
\*---------------------------------------------------------------------------*/
FoamFile
{
    version     2.0;
    format      ascii;
    class       volVectorField;
    location    "5.66";
    object      grad(p);
}
// * * * * * * * * * * * * * * * * * * * * * * * * * * * * * * * * * * * * * //

dimensions      [1 -2 -2 0 0 0 0];


internalField   nonuniform List<vector> 
1900
(
(123879 0.463235 0)
(-125973 0.234182 0)
(-6307.32 -0.257173 0)
(-799.873 0.106954 0)
(-748.268 2.4993 0)
(-491.411 3.92709 0)
(-327.587 6.77721 0)
(-161.157 15.666 0)
(-208.736 -18.482 0)
(573.189 -102.748 0)
(123880 0.54301 0)
(-125974 0.423602 0)
(-6307.45 -0.153857 0)
(-797.116 0.881833 0)
(-744.448 4.70123 0)
(-487.134 5.78601 0)
(-315.848 4.90062 0)
(-186.417 -4.97162 0)
(-327.15 -100.305 0)
(-406.294 -145.011 0)
(123880 -2.74269e-08 0)
(-125974 9.63496e-08 0)
(-6306.86 -3.8014e-09 0)
(-795.017 -4.65405e-09 0)
(-743.364 -2.24887e-08 0)
(-491.212 -1.61648e-08 0)
(-338.345 -5.56e-09 0)
(-266.363 2.04281e-09 0)
(-348.776 1.35003e-09 0)
(-481.873 8.52651e-10 0)
(123880 -0.54301 0)
(-125974 -0.423601 0)
(-6307.45 0.153857 0)
(-797.116 -0.881833 0)
(-744.448 -4.70123 0)
(-487.134 -5.78601 0)
(-315.848 -4.90062 0)
(-186.417 4.97162 0)
(-327.15 100.305 0)
(-406.294 145.011 0)
(123879 -0.463235 0)
(-125973 -0.234182 0)
(-6307.32 0.257173 0)
(-799.873 -0.106954 0)
(-748.268 -2.4993 0)
(-491.411 -3.92709 0)
(-327.587 -6.77721 0)
(-161.157 -15.666 0)
(-208.736 18.482 0)
(573.189 102.748 0)
(-248.544 -881.67 8.90533e-12)
(-1877.46 -678.937 -1.04124e-11)
(-1663.17 -828.046 -1.30803e-11)
(726.839 -1023.07 0)
(-18530.2 -8283.52 -5.6958e-11)
(-710.504 -1026.64 8.74601e-12)
(-1304.28 -808.276 1.04124e-11)
(-1542.86 -937.235 1.30803e-11)
(-1971.75 -763.722 0)
(-17616 -7346.41 0)
(-1110.28 1.04586e-09 0)
(-1445.23 -1.16866e-10 0)
(-1526.87 -1.23358e-09 0)
(-1862.25 -8.74721e-10 0)
(-20491.5 -6.07979e-09 0)
(-710.504 1026.64 8.74601e-12)
(-1304.28 808.276 1.04124e-11)
(-1542.86 937.235 1.30803e-11)
(-1971.75 763.722 0)
(-17616 7346.41 0)
(-248.544 881.67 -2.63973e-11)
(-1877.46 678.937 -1.04124e-11)
(-1663.17 828.046 -1.30803e-11)
(726.839 1023.07 -3.51633e-11)
(-18530.2 8283.52 5.6958e-11)
(-36842.1 11215.8 1.09473e-11)
(-7289.91 4051.27 -5.82593e-12)
(-342.865 1974.87 0)
(-1297.27 1145 4.24855e-12)
(-5001.36 1454.02 -1.74388e-12)
(-32794.5 13652.8 -5.64256e-12)
(-9341.59 3044.44 2.97397e-12)
(-1094.41 786.605 0)
(-1344.1 317.764 -2.67929e-12)
(-4493.91 791.261 4.52876e-13)
(-34104.4 3.5886e-10 0)
(-10586 1.00584e-09 0)
(-1265.75 1.11845e-09 0)
(-1324.55 -6.09534e-10 1.07554e-12)
(-4302.42 1.85686e-09 -9.05752e-13)
(-32794.5 -13652.8 -5.64256e-12)
(-9341.59 -3044.44 2.97397e-12)
(-1094.41 -786.605 0)
(-1344.1 -317.764 -2.67929e-12)
(-4493.91 -791.261 4.52876e-13)
(-36842.1 -11215.8 5.64256e-12)
(-7289.91 -4051.27 -1.22011e-13)
(-342.865 -1974.87 0)
(-1297.27 -1145 3.44836e-14)
(-5001.36 -1454.02 1.74388e-12)
(-5563.74 3852.74 0)
(-1220.7 -744.467 0)
(2100.13 -795.82 0)
(2743.73 598.748 0)
(1226.93 1292.67 0)
(-328.933 1167.46 0)
(-1492.68 743.159 0)
(-1725.88 363.959 0)
(-1332.53 147.81 0)
(-828.176 60.0472 0)
(-516.713 26.381 0)
(-405.215 12.8339 0)
(-369.48 11.8659 0)
(-330.097 13.6315 0)
(-260.266 6.19591 0)
(-172.09 0.972825 0)
(-102.492 -0.901192 0)
(-65.2519 -1.12805 0)
(-49.6237 -0.957055 0)
(-42.2247 -0.829922 0)
(-36.3731 -0.82273 0)
(-30.6183 -0.889149 0)
(-24.8808 -0.977749 0)
(-19.3961 -1.06543 0)
(-14.2401 -1.14887 0)
(-9.41694 -1.23741 0)
(-4.06591 -1.30812 0)
(2.7994 -1.37605 0)
(12.1859 -1.42378 0)
(21.1174 -1.36761 0)
(31.8271 -1.34775 0)
(40.3532 -1.06946 0)
(51.9668 -1.24989 0)
(61.1615 -0.503668 0)
(91.3101 -2.18356 0)
(131.329 1.18623 0)
(197.66 1.57739 0)
(171.561 4.29326 0)
(404.486 -9.74306 0)
(1502.31 -176.405 0)
(-6108.35 2441.43 0)
(-1999.48 -709.338 0)
(2448.43 -759.775 0)
(3104.04 246.214 0)
(1259.66 632.242 0)
(-502.365 327.896 0)
(-1632.28 241.125 0)
(-1796.88 176.946 0)
(-1366.03 75.2696 0)
(-840.54 25.7488 0)
(-521.026 11.3108 0)
(-406.837 4.96188 0)
(-369.17 3.58552 0)
(-330.377 5.82991 0)
(-261.502 2.08746 0)
(-172.663 0.0687176 0)
(-102.635 -0.525185 0)
(-65.2453 -0.569709 0)
(-49.5931 -0.483425 0)
(-42.2098 -0.421208 0)
(-36.3763 -0.41342 0)
(-30.631 -0.440404 0)
(-24.8963 -0.48 0)
(-19.4119 -0.521987 0)
(-14.2566 -0.564611 0)
(-9.43265 -0.611518 0)
(-4.08054 -0.651496 0)
(2.7854 -0.693077 0)
(12.1825 -0.728521 0)
(21.1182 -0.719059 0)
(31.8492 -0.727649 0)
(40.3537 -0.610947 0)
(52.0245 -0.702683 0)
(61.0549 -0.302759 0)
(91.4784 -1.1207 0)
(131.729 0.595018 0)
(197.739 1.17798 0)
(171.236 2.8761 0)
(408.014 0.647014 0)
(1498.79 12.9987 0)
(-5881.98 -2.86962e-08 0)
(-2151.96 4.78809e-09 0)
(2378.1 1.02928e-07 0)
(3148.68 4.68393e-08 0)
(1250.69 1.44208e-08 0)
(-442.713 -6.74208e-09 0)
(-1536.59 -2.45218e-08 0)
(-1774.13 -2.40333e-08 0)
(-1376.52 -1.83409e-08 0)
(-846.782 -1.64313e-08 0)
(-522.76 -7.07313e-09 0)
(-407.462 -2.34156e-09 0)
(-369.228 -8.3731e-09 0)
(-330.532 5.99117e-09 0)
(-261.942 -8.50633e-09 0)
(-172.85 -7.32949e-09 0)
(-102.678 -3.43765e-09 0)
(-65.2398 -1.35245e-09 0)
(-49.5805 -2.64435e-10 0)
(-42.2043 1.26565e-09 0)
(-36.3787 2.92897e-09 0)
(-30.6376 4.68716e-09 0)
(-24.9046 5.38963e-09 0)
(-19.4207 3.86358e-09 0)
(-14.2661 1.15261e-09 0)
(-9.44222 -1.59468e-09 0)
(-4.08964 -3.52445e-09 0)
(2.777 -4.92333e-09 0)
(12.1783 -4.20674e-09 0)
(21.1177 -8.39732e-10 0)
(31.8586 4.61045e-09 0)
(40.3605 5.04445e-09 0)
(52.0564 -2.97943e-09 0)
(61.0399 -8.13491e-10 0)
(91.5713 1.34801e-08 0)
(131.997 1.97135e-08 0)
(198.324 -1.93865e-08 0)
(171.407 2.54503e-08 0)
(407.43 -3.85712e-08 0)
(1498.34 -1.28681e-07 0)
(-6108.35 -2441.43 0)
(-1999.48 709.338 0)
(2448.43 759.775 0)
(3104.04 -246.214 0)
(1259.66 -632.242 0)
(-502.365 -327.896 0)
(-1632.28 -241.125 0)
(-1796.88 -176.946 0)
(-1366.03 -75.2696 0)
(-840.54 -25.7488 0)
(-521.026 -11.3108 0)
(-406.837 -4.96188 0)
(-369.17 -3.58552 0)
(-330.377 -5.82991 0)
(-261.502 -2.08746 0)
(-172.663 -0.0687176 0)
(-102.635 0.525185 0)
(-65.2453 0.569709 0)
(-49.5931 0.483425 0)
(-42.2098 0.421208 0)
(-36.3763 0.41342 0)
(-30.631 0.440404 0)
(-24.8963 0.48 0)
(-19.4119 0.521987 0)
(-14.2566 0.564611 0)
(-9.43265 0.611518 0)
(-4.08054 0.651496 0)
(2.7854 0.693077 0)
(12.1825 0.728521 0)
(21.1182 0.719059 0)
(31.8492 0.727649 0)
(40.3537 0.610947 0)
(52.0245 0.702683 0)
(61.0549 0.302759 0)
(91.4784 1.1207 0)
(131.729 -0.595018 0)
(197.739 -1.17798 0)
(171.236 -2.8761 0)
(408.014 -0.647015 0)
(1498.79 -12.9987 0)
(-5563.74 -3852.74 0)
(-1220.7 744.467 0)
(2100.13 795.82 0)
(2743.73 -598.748 0)
(1226.93 -1292.67 0)
(-328.933 -1167.46 0)
(-1492.68 -743.159 0)
(-1725.88 -363.959 0)
(-1332.53 -147.81 0)
(-828.176 -60.0472 0)
(-516.713 -26.381 0)
(-405.215 -12.8339 0)
(-369.48 -11.8659 0)
(-330.097 -13.6315 0)
(-260.266 -6.19591 0)
(-172.09 -0.972825 0)
(-102.492 0.901192 0)
(-65.2519 1.12805 0)
(-49.6237 0.957055 0)
(-42.2247 0.829922 0)
(-36.3731 0.82273 0)
(-30.6183 0.889149 0)
(-24.8808 0.977749 0)
(-19.3961 1.06543 0)
(-14.2401 1.14887 0)
(-9.41694 1.23741 0)
(-4.06591 1.30812 0)
(2.7994 1.37605 0)
(12.1859 1.42378 0)
(21.1174 1.36761 0)
(31.8271 1.34775 0)
(40.3532 1.06946 0)
(51.9668 1.24989 0)
(61.1615 0.503668 0)
(91.3101 2.18356 0)
(131.329 -1.18623 0)
(197.66 -1.57739 0)
(171.561 -4.29326 0)
(404.486 9.74306 0)
(1502.31 176.405 0)
(-335.148 -1574.58 0)
(15.9673 205.595 0)
(2008.6 624.817 0)
(2210.6 -622.767 0)
(940.77 -1125.03 0)
(-358.201 -1253.94 0)
(-1289.67 -985.116 0)
(-1505.53 -557.928 0)
(-1214.14 -262.978 0)
(-778.668 -113.869 0)
(-496.398 -48.353 0)
(-399.607 -28.0616 0)
(-369.312 -25.7355 0)
(-327.144 -23.0725 0)
(-254.99 -11.8266 0)
(-168.873 -2.49768 0)
(-101.482 1.28499 0)
(-65.2026 1.82209 0)
(-49.7447 1.54025 0)
(-42.2769 1.33106 0)
(-36.3429 1.33915 0)
(-30.5485 1.47392 0)
(-24.8037 1.64175 0)
(-19.3228 1.80394 0)
(-14.1679 1.95573 0)
(-9.35091 2.11471 0)
(-4.01049 2.24419 0)
(2.84177 2.35937 0)
(12.1733 2.43528 0)
(21.0715 2.3386 0)
(31.6878 2.2482 0)
(40.293 1.80962 0)
(51.7362 1.96582 0)
(61.5174 1.09743 0)
(90.613 2.90653 0)
(129.833 -1.33043 0)
(195.881 -2.63399 0)
(177.961 -10.4908 0)
(525.44 13.1373 0)
(1377.96 62.5364 0)
(-232.341 -436.329 0)
(235.577 13.8102 0)
(1350.96 -129.815 0)
(1343.4 -862.594 0)
(772.154 -1268 0)
(-178.417 -1324.55 0)
(-930.838 -1043.72 0)
(-1148.16 -672.605 0)
(-968.107 -358.073 0)
(-647.904 -161.568 0)
(-444.92 -75.0407 0)
(-386.428 -48.4122 0)
(-364.763 -41.3533 0)
(-318.277 -32.3334 0)
(-243.268 -17.0851 0)
(-161.18 -4.1073 0)
(-98.8714 1.5818 0)
(-65.0324 2.61472 0)
(-50.032 2.31499 0)
(-42.3905 2.05816 0)
(-36.2516 2.10353 0)
(-30.3641 2.32852 0)
(-24.6042 2.60001 0)
(-19.1329 2.86486 0)
(-13.9793 3.11791 0)
(-9.17437 3.38867 0)
(-3.85987 3.61254 0)
(2.96082 3.81197 0)
(12.1726 3.96053 0)
(20.9618 3.8403 0)
(31.3921 3.70093 0)
(40.1134 3.12967 0)
(51.4041 3.29927 0)
(61.8772 2.45699 0)
(89.3443 3.92892 0)
(126.791 -0.650177 0)
(189.786 -3.4208 0)
(183.328 -14.4732 0)
(409.998 15.9821 0)
(1496.07 -137.634 0)
(-742.302 -412.944 0)
(311.335 -95.1668 0)
(1164.07 -368.91 0)
(1113.8 -672.377 0)
(495.614 -964.083 0)
(-142.08 -1125.03 0)
(-661.437 -950.542 0)
(-844.82 -661.564 0)
(-721.682 -375.01 0)
(-505.927 -182.258 0)
(-387.357 -98.8664 0)
(-367.144 -68.9016 0)
(-353.818 -56.6857 0)
(-303.758 -40.5798 0)
(-227.79 -21.2237 0)
(-150.885 -5.6542 0)
(-95.0048 1.45725 0)
(-64.496 3.05944 0)
(-50.281 2.89619 0)
(-42.4807 2.68533 0)
(-36.0824 2.81014 0)
(-30.0701 3.14568 0)
(-24.2869 3.53737 0)
(-18.8237 3.92217 0)
(-13.6631 4.29626 0)
(-8.87427 4.71297 0)
(-3.60258 5.05974 0)
(3.1771 5.35508 0)
(12.2006 5.60878 0)
(20.8213 5.45263 0)
(31.003 5.27722 0)
(39.9059 4.58772 0)
(51.088 4.78521 0)
(62.1241 3.98764 0)
(87.6189 5.05752 0)
(122.751 0.365302 0)
(182.561 -3.84862 0)
(196.658 -12.2391 0)
(406.758 28.0142 0)
(1495.18 -12.0646 0)
(-721.974 -15.6044 0)
(278.009 -7.90308 0)
(794.742 -170.33 0)
(769.865 -533.809 0)
(335.963 -767.245 0)
(-165.368 -899.518 0)
(-484.226 -804.692 0)
(-593.554 -578.713 0)
(-506.231 -343.593 0)
(-381.802 -183.718 0)
(-335.686 -114.244 0)
(-345.781 -86.2568 0)
(-337.471 -68.4996 0)
(-284.104 -46.2196 0)
(-209.612 -23.2744 0)
(-139.323 -6.53177 0)
(-90.4747 1.19418 0)
(-63.6458 3.19215 0)
(-50.3926 3.25048 0)
(-42.4734 3.18209 0)
(-35.808 3.4322 0)
(-29.6633 3.88822 0)
(-23.8559 4.39795 0)
(-18.4016 4.8966 0)
(-13.2173 5.37377 0)
(-8.43866 5.89297 0)
(-3.2411 6.38016 0)
(3.4899 6.80236 0)
(12.2666 7.06837 0)
(20.6423 6.86262 0)
(30.5586 6.61246 0)
(39.6393 5.8151 0)
(50.8259 5.86818 0)
(62.1396 5.1204 0)
(85.8537 5.63512 0)
(118.209 1.47759 0)
(177.64 -4.17188 0)
(214.032 -6.45475 0)
(410.166 29.9348 0)
(1480.7 -12.2569 0)
(-764.955 -52.2056 0)
(162.236 -142.149 0)
(657.284 -202.392 0)
(538.593 -391.016 0)
(143.204 -658.516 0)
(-178.165 -721.928 0)
(-352.298 -645.827 0)
(-400.488 -465.071 0)
(-341.051 -288.83 0)
(-284.919 -172.84 0)
(-293.439 -120.388 0)
(-323.063 -97.5426 0)
(-315.236 -74.7765 0)
(-260.178 -48.1207 0)
(-189.546 -23.0744 0)
(-127.306 -6.36163 0)
(-85.6345 1.36026 0)
(-62.5145 3.58203 0)
(-50.2907 3.88954 0)
(-42.3056 4.01435 0)
(-35.402 4.41321 0)
(-29.1395 4.98997 0)
(-23.3152 5.60968 0)
(-17.8834 6.21502 0)
(-12.7029 6.78598 0)
(-7.90447 7.35629 0)
(-2.72626 7.97036 0)
(3.84028 8.58558 0)
(12.2587 8.78074 0)
(20.382 8.55916 0)
(29.9936 8.24134 0)
(39.1887 7.36607 0)
(50.4186 7.22948 0)
(61.8995 6.50713 0)
(84.1085 6.66661 0)
(113.3 3.40008 0)
(174.917 -2.3857 0)
(229.524 0.0519057 0)
(401.166 28.011 0)
(1478.15 -21.1998 0)
(-909.261 -177.048 0)
(133.284 -180.093 0)
(554.924 -182.702 0)
(330.328 -407.553 0)
(17.0843 -581.487 0)
(-153.14 -580.49 0)
(-236.709 -495.153 0)
(-249.539 -352.846 0)
(-224.627 -229.797 0)
(-219.485 -157.78 0)
(-263.126 -124.007 0)
(-301.828 -104.588 0)
(-289.846 -77.3694 0)
(-234.282 -47.2989 0)
(-169.372 -21.5678 0)
(-115.777 -5.39445 0)
(-80.8926 1.93667 0)
(-61.2085 4.34021 0)
(-49.976 4.96634 0)
(-41.9688 5.34543 0)
(-34.8678 5.91581 0)
(-28.5103 6.60364 0)
(-22.6754 7.29923 0)
(-17.268 7.96295 0)
(-12.1175 8.57508 0)
(-7.29735 9.1439 0)
(-2.05652 9.77645 0)
(4.27081 10.46 0)
(12.2411 10.5086 0)
(20.1225 10.1616 0)
(29.4089 9.64753 0)
(38.6642 8.57526 0)
(49.9982 8.10896 0)
(61.5972 7.23759 0)
(82.8596 7.01244 0)
(109.486 4.33196 0)
(174.414 -0.812889 0)
(243.323 4.62313 0)
(389.687 26.31 0)
(1474.14 -28.0337 0)
(-1109.11 -225.46 0)
(156.787 -199.626 0)
(438.095 -195.207 0)
(154.31 -441.081 0)
(-23.444 -472.009 0)
(-94.9706 -443.719 0)
(-132.932 -358.206 0)
(-144.781 -262.451 0)
(-153.079 -183.465 0)
(-182.976 -143.533 0)
(-242.181 -125.264 0)
(-278.122 -105.879 0)
(-260.031 -74.7428 0)
(-206.405 -42.4849 0)
(-149.165 -17.4565 0)
(-104.657 -2.36717 0)
(-76.2538 4.39574 0)
(-59.595 6.88075 0)
(-49.3221 7.81858 0)
(-41.3907 8.45417 0)
(-34.1895 9.17836 0)
(-27.8063 9.93475 0)
(-22.0053 10.6447 0)
(-16.6539 11.2969 0)
(-11.5649 11.8792 0)
(-6.74678 12.3963 0)
(-1.45803 12.9623 0)
(4.54583 13.5782 0)
(11.9711 13.4332 0)
(19.5522 12.8486 0)
(28.465 12.0394 0)
(37.7061 10.6759 0)
(49.1295 9.78839 0)
(60.8429 8.58311 0)
(81.3085 8.00783 0)
(105.759 5.36914 0)
(175.198 1.43813 0)
(255.661 7.15683 0)
(369.697 22.3348 0)
(1479.81 -39.2431 0)
(-1318.89 -209.098 0)
(162.436 -198.04 0)
(322.249 -234.435 0)
(63.5917 -380.752 0)
(14.5419 -326.88 0)
(-43.4754 -302.088 0)
(-62.0327 -247.346 0)
(-81.1527 -194.782 0)
(-110.033 -150.603 0)
(-163.4 -132.262 0)
(-226.842 -122.485 0)
(-253.144 -100.738 0)
(-228.757 -67.3346 0)
(-179.079 -35.0291 0)
(-130.713 -11.7869 0)
(-94.7196 1.55836 0)
(-71.981 7.90587 0)
(-57.9101 10.5306 0)
(-48.4597 11.8072 0)
(-40.6584 12.7157 0)
(-33.4411 13.588 0)
(-27.0973 14.38 0)
(-21.3627 15.0481 0)
(-16.0784 15.6205 0)
(-11.0582 16.1028 0)
(-6.25362 16.5018 0)
(-0.917607 16.9113 0)
(4.72457 17.329 0)
(11.5381 16.9099 0)
(18.7794 15.9977 0)
(27.3152 14.8136 0)
(36.4951 13.1164 0)
(47.9815 11.7858 0)
(59.8814 10.2408 0)
(79.7626 9.33469 0)
(103.155 6.89078 0)
(176.137 4.19159 0)
(263.46 8.61526 0)
(344.975 19.528 0)
(1490.43 -49.4373 0)
(-1501.44 -157.159 0)
(132.371 -157.086 0)
(262.027 -232.017 0)
(65.2263 -244.717 0)
(52.3604 -212.318 0)
(-18.3286 -201.494 0)
(-29.5281 -174.918 0)
(-51.5563 -148.614 0)
(-92.8328 -130.19 0)
(-155.88 -126.254 0)
(-211.803 -117.821 0)
(-224.977 -91.242 0)
(-196.711 -56.1129 0)
(-152.878 -25.451 0)
(-113.908 -4.0183 0)
(-85.6799 7.9223 0)
(-67.6078 13.9435 0)
(-55.8355 16.9272 0)
(-47.2165 18.6351 0)
(-39.6746 19.8399 0)
(-32.5858 20.8193 0)
(-26.3994 21.5472 0)
(-20.8098 22.0308 0)
(-15.6376 22.3499 0)
(-10.7157 22.5348 0)
(-5.96761 22.6382 0)
(-0.660882 22.6679 0)
(4.54449 22.6087 0)
(10.6883 21.713 0)
(17.5321 20.264 0)
(25.6884 18.5031 0)
(34.7884 16.2654 0)
(46.3585 14.3729 0)
(58.4809 12.353 0)
(78.0803 11.0945 0)
(100.803 8.73636 0)
(176.859 6.90448 0)
(270.44 10.0473 0)
(313.756 18.2458 0)
(1508.63 -58.9341 0)
(-1621.71 -114.426 0)
(90.3005 -114.435 0)
(237.804 -181.722 0)
(82.5745 -153.62 0)
(56.1934 -144.527 0)
(-7.43549 -142.997 0)
(-11.0757 -128.978 0)
(-38.0514 -118.737 0)
(-88.4858 -116.457 0)
(-151.48 -118.238 0)
(-193.103 -105.896 0)
(-193.68 -75.4734 0)
(-165.359 -41.3758 0)
(-128.879 -14.0053 0)
(-98.5529 4.84756 0)
(-77.411 15.1444 0)
(-63.3035 20.7237 0)
(-53.389 23.8606 0)
(-45.653 25.8471 0)
(-38.5537 27.2388 0)
(-31.7959 28.2681 0)
(-25.9299 28.9382 0)
(-20.5892 29.3123 0)
(-15.5927 29.5022 0)
(-10.7804 29.5511 0)
(-6.1254 29.5373 0)
(-0.945992 29.3435 0)
(3.80433 29.0136 0)
(9.27859 27.8363 0)
(15.6863 26.0678 0)
(23.462 23.9225 0)
(32.515 21.321 0)
(44.2113 19.0434 0)
(56.7222 16.725 0)
(76.2774 15.2767 0)
(99.1176 12.9748 0)
(177.4 11.8094 0)
(274.389 13.5522 0)
(278.502 18.0945 0)
(1529.64 -66.8692 0)
(-1721.98 -66.119 0)
(67.5228 -78.4406 0)
(224.267 -132.718 0)
(101.069 -106.555 0)
(62.5973 -98.1023 0)
(-3.34573 -99.9917 0)
(-6.14991 -95.5721 0)
(-39.4904 -98.0197 0)
(-92.3519 -105.666 0)
(-145.703 -105.72 0)
(-170.594 -87.4916 0)
(-162.803 -56.6045 0)
(-137.478 -24.8216 0)
(-108.335 -0.217084 0)
(-85.8184 14.7397 0)
(-70.3811 23.7347 0)
(-59.2086 29.0155 0)
(-50.8984 32.3263 0)
(-43.961 34.5904 0)
(-37.3417 36.1435 0)
(-30.9482 37.1468 0)
(-25.3931 37.6375 0)
(-20.2663 37.7731 0)
(-15.4075 37.7354 0)
(-10.682 37.5967 0)
(-6.16768 37.4857 0)
(-1.16553 37.0882 0)
(3.09214 36.5045 0)
(7.84956 35.1188 0)
(13.7606 33.1439 0)
(21.1142 30.7616 0)
(30.0867 27.9305 0)
(41.9297 25.45 0)
(54.8512 22.9694 0)
(74.4665 21.4571 0)
(97.4621 19.2663 0)
(177.416 18.1942 0)
(276.496 19.4523 0)
(236.259 23.2218 0)
(1555.63 -63.8816 0)
(-1761.01 -19.9255 0)
(26.1228 -39.34 0)
(210.713 -79.2094 0)
(115.932 -59.509 0)
(62.5176 -63.3436 0)
(-4.9972 -70.1712 0)
(-9.17532 -73.8071 0)
(-47.7787 -83.1807 0)
(-95.9061 -91.9809 0)
(-133.966 -86.2123 0)
(-145.773 -64.8049 0)
(-133.289 -35.5596 0)
(-111.022 -7.56748 0)
(-90.756 12.4213 0)
(-75.4722 24.5232 0)
(-63.6543 32.2105 0)
(-55.0243 36.7683 0)
(-48.0169 39.7744 0)
(-41.9746 41.8815 0)
(-36.0903 43.3675 0)
(-30.3562 44.3988 0)
(-25.3264 45.0184 0)
(-20.4949 45.3654 0)
(-15.7627 45.5806 0)
(-11.021 45.6797 0)
(-6.61535 45.7762 0)
(-1.8915 45.4081 0)
(1.90649 44.8089 0)
(6.04018 43.4395 0)
(11.4875 41.4952 0)
(18.4382 39.1491 0)
(27.3966 36.43 0)
(39.4306 34.2086 0)
(52.8745 32.2103 0)
(72.709 31.3772 0)
(95.9734 30.2343 0)
(177.579 30.47 0)
(279.234 32.5262 0)
(198.198 33.5207 0)
(1568.82 -60.2697 0)
(-1779.09 21.5421 0)
(10.3947 0.0864827 0)
(204.832 -22.8098 0)
(116.358 -14.5107 0)
(52.3228 -28.6929 0)
(-13.4288 -40.7081 0)
(-18.6863 -52.4054 0)
(-57.0033 -66.4808 0)
(-95.2732 -72.3671 0)
(-119.515 -60.3957 0)
(-121.784 -37.0954 0)
(-107.647 -9.28328 0)
(-91.2419 12.4632 0)
(-77.4113 27.5493 0)
(-66.7489 38.0166 0)
(-58.5813 44.4706 0)
(-51.9197 48.6115 0)
(-45.9711 51.4979 0)
(-40.4986 53.6236 0)
(-34.9159 55.1143 0)
(-29.3572 55.9928 0)
(-24.4617 56.3155 0)
(-19.7246 56.3955 0)
(-15.1047 56.4862 0)
(-10.4936 56.5556 0)
(-6.42938 56.6928 0)
(-2.09761 56.3037 0)
(1.19516 55.7351 0)
(4.65633 54.4891 0)
(9.62618 52.7101 0)
(16.2333 50.5596 0)
(25.3259 48.1072 0)
(37.8634 46.462 0)
(52.1226 45.2697 0)
(72.5624 45.6141 0)
(96.5879 45.9427 0)
(179.624 47.5628 0)
(279.436 52.3547 0)
(146.837 52.4605 0)
(1581.41 -21.9782 0)
(-1740.17 81.0714 0)
(-16.6164 43.079 0)
(196.646 21.6062 0)
(110.263 17.6714 0)
(37.2728 -4.39599 0)
(-27.8474 -16.2243 0)
(-34.0108 -32.1899 0)
(-67.0145 -44.5272 0)
(-90.0423 -45.467 0)
(-99.977 -28.9366 0)
(-96.5193 -5.3899 0)
(-85.5324 16.5434 0)
(-75.5287 32.8934 0)
(-66.1317 44.9727 0)
(-59.1662 53.0839 0)
(-53.4447 58.4196 0)
(-48.2524 61.8302 0)
(-43.1869 63.8586 0)
(-38.4898 64.8697 0)
(-33.8072 65.4201 0)
(-29.1986 66.2521 0)
(-24.9383 67.3706 0)
(-20.3304 68.3323 0)
(-15.6085 68.9264 0)
(-10.8219 69.164 0)
(-6.8581 69.3227 0)
(-2.81443 68.9082 0)
(0.157923 68.4562 0)
(3.12524 67.4737 0)
(7.70086 66.0528 0)
(14.0027 64.1942 0)
(23.448 62.1343 0)
(36.6962 61.1259 0)
(52.0574 60.7997 0)
(73.3575 62.3223 0)
(97.8512 63.8927 0)
(183.758 67.0084 0)
(283.954 75.8371 0)
(126.568 80.6456 0)
(1539.45 52.5428 0)
(-1659.46 150.523 0)
(-46.9082 89.4108 0)
(180.348 73.5209 0)
(91.3011 54.9828 0)
(19.6597 22.9003 0)
(-40.212 15.6701 0)
(-45.9601 0.797099 0)
(-69.7976 -3.86629 0)
(-80.2496 1.05123 0)
(-80.8957 16.9565 0)
(-77.9575 35.3235 0)
(-70.7555 51.4571 0)
(-63.8463 64.4346 0)
(-57.9549 74.2618 0)
(-53.7909 81.4539 0)
(-50.1531 87.0989 0)
(-46.6785 91.6343 0)
(-43.0421 95.0737 0)
(-38.9939 97.2607 0)
(-33.5837 98.3564 0)
(-27.4777 98.9969 0)
(-22.4572 99.1582 0)
(-18.2253 98.5803 0)
(-14.3032 97.4702 0)
(-10.1117 96.2068 0)
(-6.67589 95.4091 0)
(-2.93254 94.1402 0)
(-0.187222 93.0293 0)
(2.34032 91.6241 0)
(6.466 90.1613 0)
(12.4572 88.0736 0)
(22.3692 86.0157 0)
(36.5773 85.3115 0)
(53.2755 85.528 0)
(75.5429 87.8549 0)
(101.104 90.8611 0)
(191.134 95.0973 0)
(292.577 106.461 0)
(124.39 113.505 0)
(1453.06 138.029 0)
(-1508.96 261.672 0)
(-90.8182 141.576 0)
(163.47 131.883 0)
(61.4828 98.1283 0)
(-0.610314 61.3201 0)
(-49.1469 55.1404 0)
(-52.8369 42.2247 0)
(-66.7697 42.9638 0)
(-69.9767 50.6704 0)
(-66.951 63.8322 0)
(-63.2732 77.2679 0)
(-57.48 90.7408 0)
(-53.5533 101.231 0)
(-49.7313 110.541 0)
(-46.7959 118.74 0)
(-43.6346 126.464 0)
(-40.5676 133.052 0)
(-37.7651 137.915 0)
(-35.3265 141.135 0)
(-32.1342 142.867 0)
(-28.4258 143.287 0)
(-25.3398 142.416 0)
(-21.9571 140.333 0)
(-17.8956 137.106 0)
(-12.808 132.92 0)
(-8.84957 129.637 0)
(-5.1077 125.87 0)
(-2.26668 123.471 0)
(0.361496 121.056 0)
(4.27946 119.551 0)
(10.0079 117.865 0)
(20.7863 116.702 0)
(36.2262 117.07 0)
(54.5084 118.309 0)
(78.4967 122.364 0)
(104.83 126.881 0)
(198.79 132.166 0)
(301.692 144.588 0)
(156.988 160.34 0)
(1297.06 255.575 0)
(-1270.87 521.053 0)
(-171.978 236.05 0)
(138.48 244.753 0)
(23.3038 187.334 0)
(-21.7649 146.169 0)
(-58.6131 132.382 0)
(-57.6939 119.633 0)
(-61.6589 123.906 0)
(-60.14 134.94 0)
(-55.2653 148.067 0)
(-52.0275 160.732 0)
(-47.6643 170.311 0)
(-44.7664 176.421 0)
(-41.0823 180.784 0)
(-38.4464 184.071 0)
(-36.3614 188.354 0)
(-35.6441 194.024 0)
(-35.2532 200.677 0)
(-34.2225 206.838 0)
(-31.51 210.688 0)
(-27.912 211.398 0)
(-25.3034 208.858 0)
(-23.3422 203.702 0)
(-21.4473 199.504 0)
(-17.3087 197.056 0)
(-13.469 197.389 0)
(-8.87469 198.65 0)
(-4.82635 200.007 0)
(-1.43711 201.274 0)
(3.39149 202.383 0)
(9.71201 203.474 0)
(21.6027 204.624 0)
(38.1257 207.239 0)
(58.3767 212.266 0)
(83.8035 221.248 0)
(110.549 231.597 0)
(208.197 241.196 0)
(319.727 254.831 0)
(231.341 261.388 0)
(1052.27 505.394 0)
(-779.388 8506 0)
(-357.071 991.042 0)
(116.526 632.448 0)
(-33.5166 501.022 0)
(-53.5638 448.798 0)
(-74.7177 408.373 0)
(-61.0044 387.188 0)
(-52.0193 374.234 0)
(-46.6947 372.797 0)
(-42.0963 364.859 0)
(-41.8377 358.762 0)
(-42.3617 346.803 0)
(-43.4618 331.013 0)
(-42.3595 311.117 0)
(-39.5013 286.585 0)
(-34.0434 259.752 0)
(-28.6925 232.114 0)
(-25.417 208.532 0)
(-25.6792 192.47 0)
(-27.7403 184.754 0)
(-30.1895 182.729 0)
(-32.7558 187.703 0)
(-30.9704 196.727 0)
(-24.2998 216.556 0)
(-14.8465 235.727 0)
(-7.31378 254.246 0)
(-2.58513 270.346 0)
(0.262055 281.673 0)
(2.65165 292.916 0)
(6.3996 300.913 0)
(12.1671 306.926 0)
(24.414 311.598 0)
(43.5901 313.798 0)
(68.0081 319.198 0)
(97.1255 328.602 0)
(124.052 342.361 0)
(221.179 363.337 0)
(321.15 355.989 0)
(398.441 841.258 0)
(558.161 7691.44 0)
(7880.82 145238 0)
(-7759.22 8611.62 0)
(-333.721 1295.63 0)
(-153.668 969.883 0)
(-111.044 843.387 0)
(-117.982 793.814 0)
(-90.5914 789.294 0)
(-75.5268 792.839 0)
(-69.1744 816.105 0)
(-68.7903 814.643 0)
(-69.4268 809.89 0)
(-74.4044 792.411 0)
(-79.1546 764.248 0)
(-83.8944 728.81 0)
(-87.9435 686.453 0)
(-88.8513 640.648 0)
(-85.0021 591.068 0)
(-73.4562 543.705 0)
(-57.1357 503.264 0)
(-40.8969 470.984 0)
(-25.0701 445.929 0)
(-11.8139 430.322 0)
(4.46157 413.812 0)
(16.1345 412.496 0)
(19.0103 399.711 0)
(19.8907 387.3 0)
(17.5553 365.015 0)
(16.9235 340.744 0)
(17.1033 310.205 0)
(16.8922 276.8 0)
(20.0084 235.519 0)
(28.2242 193.292 0)
(45.4497 139.071 0)
(72.642 104.316 0)
(106.124 90.8963 0)
(144.022 125.615 0)
(221.329 198.165 0)
(780.268 302.02 0)
(7300.05 7106.44 0)
(-7170.14 128132 0)
(147476 -153090 0)
(-139066 -8129.9 0)
(-7247.33 -724.203 0)
(-469.317 -262.771 0)
(-223.23 -77.7086 0)
(-126.843 84.1168 0)
(-61.944 176.356 0)
(-26.1832 242.408 0)
(-25.683 281.904 0)
(-48.0858 340.845 0)
(-63.2618 403.19 0)
(-86.3439 478.541 0)
(-104.75 570.004 0)
(-117.326 669.385 0)
(-124.458 778.818 0)
(-125.96 889.801 0)
(-122.11 1001.73 0)
(-110.028 1104.73 0)
(-95.756 1192.14 0)
(-82.9903 1263.39 0)
(-69.3728 1320.71 0)
(-63.7049 1361.4 0)
(-48.1485 1399.07 0)
(-37.8881 1406.73 0)
(-39.1257 1421.65 0)
(-40.7482 1427.61 0)
(-47.4483 1443.29 0)
(-52.5542 1458.63 0)
(-58.9672 1480.27 0)
(-65.5713 1502.07 0)
(-68.3039 1530.78 0)
(-68.526 1552.19 0)
(-42.1509 1572.61 0)
(21.5848 1548.77 0)
(117.65 1474.82 0)
(227.421 1316.55 0)
(391.169 1089.36 0)
(6978.22 680.937 0)
(123580 -6961.89 0)
(-129762 -135138 0)
(147476 153090 0)
(-139066 8129.9 0)
(-7247.33 724.203 0)
(-469.317 262.771 0)
(-223.23 77.7086 0)
(-126.843 -84.1168 0)
(-61.944 -176.356 0)
(-26.1832 -242.408 0)
(-25.683 -281.904 0)
(-48.0858 -340.845 0)
(-63.2618 -403.19 0)
(-86.3439 -478.541 0)
(-104.75 -570.004 0)
(-117.326 -669.385 0)
(-124.458 -778.818 0)
(-125.96 -889.801 0)
(-122.11 -1001.73 0)
(-110.028 -1104.73 0)
(-95.756 -1192.14 0)
(-82.9903 -1263.39 0)
(-69.3728 -1320.71 0)
(-63.7049 -1361.4 0)
(-48.1485 -1399.07 0)
(-37.8881 -1406.73 0)
(-39.1257 -1421.65 0)
(-40.7482 -1427.61 0)
(-47.4483 -1443.29 0)
(-52.5542 -1458.63 0)
(-58.9672 -1480.27 0)
(-65.5713 -1502.07 0)
(-68.3039 -1530.78 0)
(-68.526 -1552.19 0)
(-42.1509 -1572.61 0)
(21.5848 -1548.77 0)
(117.65 -1474.82 0)
(227.421 -1316.55 0)
(391.169 -1089.36 0)
(6978.22 -680.937 0)
(123580 6961.89 0)
(-129762 135138 0)
(7880.82 -145238 0)
(-7759.22 -8611.62 0)
(-333.721 -1295.63 0)
(-153.668 -969.883 0)
(-111.044 -843.387 0)
(-117.982 -793.814 0)
(-90.5914 -789.294 0)
(-75.5268 -792.839 0)
(-69.1744 -816.105 0)
(-68.7903 -814.643 0)
(-69.4268 -809.89 0)
(-74.4044 -792.411 0)
(-79.1546 -764.248 0)
(-83.8944 -728.81 0)
(-87.9435 -686.453 0)
(-88.8513 -640.648 0)
(-85.0021 -591.068 0)
(-73.4562 -543.705 0)
(-57.1357 -503.264 0)
(-40.8969 -470.984 0)
(-25.0701 -445.929 0)
(-11.8139 -430.322 0)
(4.46157 -413.812 0)
(16.1345 -412.496 0)
(19.0103 -399.711 0)
(19.8907 -387.3 0)
(17.5553 -365.015 0)
(16.9235 -340.744 0)
(17.1033 -310.205 0)
(16.8922 -276.8 0)
(20.0084 -235.519 0)
(28.2242 -193.292 0)
(45.4497 -139.071 0)
(72.642 -104.316 0)
(106.124 -90.8963 0)
(144.022 -125.615 0)
(221.329 -198.165 0)
(780.268 -302.02 0)
(7300.05 -7106.44 0)
(-7170.14 -128132 0)
(-779.388 -8506 0)
(-357.071 -991.042 0)
(116.526 -632.448 0)
(-33.5166 -501.022 0)
(-53.5638 -448.798 0)
(-74.7177 -408.373 0)
(-61.0044 -387.188 0)
(-52.0193 -374.234 0)
(-46.6947 -372.797 0)
(-42.0963 -364.859 0)
(-41.8377 -358.762 0)
(-42.3617 -346.803 0)
(-43.4618 -331.013 0)
(-42.3595 -311.117 0)
(-39.5013 -286.585 0)
(-34.0434 -259.752 0)
(-28.6925 -232.114 0)
(-25.417 -208.532 0)
(-25.6792 -192.47 0)
(-27.7403 -184.754 0)
(-30.1895 -182.729 0)
(-32.7558 -187.703 0)
(-30.9704 -196.727 0)
(-24.2998 -216.556 0)
(-14.8465 -235.727 0)
(-7.31378 -254.246 0)
(-2.58513 -270.346 0)
(0.262055 -281.673 0)
(2.65165 -292.916 0)
(6.3996 -300.913 0)
(12.1671 -306.926 0)
(24.414 -311.598 0)
(43.5901 -313.798 0)
(68.0081 -319.198 0)
(97.1255 -328.602 0)
(124.052 -342.361 0)
(221.179 -363.337 0)
(321.15 -355.989 0)
(398.441 -841.258 0)
(558.161 -7691.44 0)
(-1270.87 -521.053 0)
(-171.978 -236.05 0)
(138.48 -244.753 0)
(23.3038 -187.334 0)
(-21.7649 -146.169 0)
(-58.6131 -132.382 0)
(-57.6939 -119.633 0)
(-61.6589 -123.906 0)
(-60.14 -134.94 0)
(-55.2653 -148.067 0)
(-52.0275 -160.732 0)
(-47.6643 -170.311 0)
(-44.7664 -176.421 0)
(-41.0823 -180.784 0)
(-38.4464 -184.071 0)
(-36.3614 -188.354 0)
(-35.6441 -194.024 0)
(-35.2532 -200.677 0)
(-34.2225 -206.838 0)
(-31.51 -210.688 0)
(-27.912 -211.398 0)
(-25.3034 -208.858 0)
(-23.3422 -203.702 0)
(-21.4473 -199.504 0)
(-17.3087 -197.056 0)
(-13.469 -197.389 0)
(-8.87469 -198.65 0)
(-4.82635 -200.007 0)
(-1.43711 -201.274 0)
(3.39149 -202.383 0)
(9.71201 -203.474 0)
(21.6027 -204.624 0)
(38.1257 -207.239 0)
(58.3767 -212.266 0)
(83.8035 -221.248 0)
(110.549 -231.597 0)
(208.197 -241.196 0)
(319.727 -254.831 0)
(231.341 -261.388 0)
(1052.27 -505.394 0)
(-1508.96 -261.672 0)
(-90.8182 -141.576 0)
(163.47 -131.883 0)
(61.4828 -98.1283 0)
(-0.610314 -61.3201 0)
(-49.1469 -55.1404 0)
(-52.8369 -42.2247 0)
(-66.7697 -42.9638 0)
(-69.9767 -50.6704 0)
(-66.951 -63.8322 0)
(-63.2732 -77.2679 0)
(-57.48 -90.7408 0)
(-53.5533 -101.231 0)
(-49.7313 -110.541 0)
(-46.7959 -118.74 0)
(-43.6346 -126.464 0)
(-40.5676 -133.052 0)
(-37.7651 -137.915 0)
(-35.3265 -141.135 0)
(-32.1342 -142.867 0)
(-28.4258 -143.287 0)
(-25.3398 -142.416 0)
(-21.9571 -140.333 0)
(-17.8956 -137.106 0)
(-12.808 -132.92 0)
(-8.84957 -129.637 0)
(-5.1077 -125.87 0)
(-2.26668 -123.471 0)
(0.361496 -121.056 0)
(4.27946 -119.551 0)
(10.0079 -117.865 0)
(20.7863 -116.702 0)
(36.2262 -117.07 0)
(54.5084 -118.309 0)
(78.4967 -122.364 0)
(104.83 -126.881 0)
(198.79 -132.166 0)
(301.692 -144.588 0)
(156.988 -160.34 0)
(1297.06 -255.575 0)
(-1659.46 -150.523 0)
(-46.9082 -89.4108 0)
(180.348 -73.5209 0)
(91.3011 -54.9828 0)
(19.6597 -22.9003 0)
(-40.212 -15.6701 0)
(-45.9601 -0.797099 0)
(-69.7976 3.86629 0)
(-80.2496 -1.05123 0)
(-80.8957 -16.9565 0)
(-77.9575 -35.3235 0)
(-70.7555 -51.4571 0)
(-63.8463 -64.4346 0)
(-57.9549 -74.2618 0)
(-53.7909 -81.4539 0)
(-50.1531 -87.0989 0)
(-46.6785 -91.6343 0)
(-43.0421 -95.0737 0)
(-38.9939 -97.2607 0)
(-33.5837 -98.3564 0)
(-27.4777 -98.9969 0)
(-22.4572 -99.1582 0)
(-18.2253 -98.5803 0)
(-14.3032 -97.4702 0)
(-10.1117 -96.2068 0)
(-6.67589 -95.4091 0)
(-2.93254 -94.1402 0)
(-0.187222 -93.0293 0)
(2.34032 -91.6241 0)
(6.466 -90.1613 0)
(12.4572 -88.0736 0)
(22.3692 -86.0157 0)
(36.5773 -85.3115 0)
(53.2755 -85.528 0)
(75.5429 -87.8549 0)
(101.104 -90.8611 0)
(191.134 -95.0973 0)
(292.577 -106.461 0)
(124.39 -113.505 0)
(1453.06 -138.029 0)
(-1740.17 -81.0714 0)
(-16.6164 -43.079 0)
(196.646 -21.6062 0)
(110.263 -17.6714 0)
(37.2728 4.39599 0)
(-27.8474 16.2243 0)
(-34.0108 32.1899 0)
(-67.0145 44.5272 0)
(-90.0423 45.467 0)
(-99.977 28.9366 0)
(-96.5193 5.3899 0)
(-85.5324 -16.5434 0)
(-75.5287 -32.8934 0)
(-66.1317 -44.9727 0)
(-59.1662 -53.0839 0)
(-53.4447 -58.4196 0)
(-48.2524 -61.8302 0)
(-43.1869 -63.8586 0)
(-38.4898 -64.8697 0)
(-33.8072 -65.4201 0)
(-29.1986 -66.2521 0)
(-24.9383 -67.3706 0)
(-20.3304 -68.3323 0)
(-15.6085 -68.9264 0)