/*--------------------------------*- C++ -*----------------------------------*\
| =========                 |                                                 |
| \\      /  F ield         | OpenFOAM: The Open Source CFD Toolbox           |
|  \\    /   O peration     | Version:  v1912                                 |
|   \\  /    A nd           | Website:  www.openfoam.com                      |
|    \\/     M anipulation  |                                                 |
\*---------------------------------------------------------------------------*/
FoamFile
{
    version     2.0;
    format      ascii;
    class       volScalarField;
    location    "0.4";
    object      rho;
}
// * * * * * * * * * * * * * * * * * * * * * * * * * * * * * * * * * * * * * //

dimensions      [1 -3 0 0 0 0 0];


internalField   nonuniform List<scalar> 
4800
(
10.8595
1.3275
0.842673
0.836223
0.824538
0.810423
0.795263
0.780261
0.765415
0.750545
0.735681
0.72094
0.706838
0.693369
0.679667
0.664786
0.647964
0.629321
0.609695
0.590246
0.572163
0.556441
0.543808
0.534545
0.528579
0.52546
0.524218
0.524315
0.525283
0.526736
0.528545
0.530362
0.531937
0.532929
0.533558
0.533983
0.534566
0.535336
0.536942
0.538125
10.8595
1.32632
0.842667
0.836218
0.824606
0.810834
0.795707
0.780479
0.765369
0.750402
0.735489
0.72094
0.706926
0.693214
0.679133
0.66382
0.646869
0.628451
0.609279
0.590362
0.572761
0.557377
0.544818
0.535434
0.529248
0.525897
0.524468
0.524346
0.525138
0.526427
0.528001
0.529695
0.531272
0.532471
0.533338
0.534017
0.534621
0.535341
0.536588
0.537414
10.8598
1.32374
0.8426
0.836587
0.825086
0.811657
0.796388
0.780722
0.765302
0.750174
0.73542
0.721222
0.707255
0.69309
0.678209
0.662269
0.645172
0.627175
0.608758
0.590675
0.573722
0.558631
0.546036
0.536438
0.529974
0.52636
0.52466
0.524438
0.52494
0.525878
0.527234
0.528879
0.530564
0.532076
0.533365
0.534209
0.534722
0.535038
0.535662
0.535983
10.8598
1.32038
0.842637
0.837038
0.825691
0.81251
0.797047
0.781079
0.76535
0.75008
0.735616
0.721674
0.707608
0.692825
0.677095
0.660515
0.643357
0.625903
0.608394
0.591231
0.574889
0.559971
0.547243
0.53738
0.530691
0.526856
0.52495
0.524512
0.52476
0.525396
0.526468
0.528039
0.52991
0.531771
0.533282
0.534357
0.534747
0.534615
0.534359
0.534019
10.8593
1.3172
0.842738
0.837179
0.826017
0.812929
0.797582
0.781473
0.765605
0.750316
0.736079
0.722206
0.707803
0.692369
0.675917
0.658919
0.641904
0.625001
0.608355
0.591917
0.575902
0.560996
0.548141
0.538091
0.531228
0.527235
0.525246
0.524733
0.524825
0.525178
0.525935
0.527358
0.529342
0.531509
0.5333
0.534364
0.534536
0.5339
0.532831
0.531919
10.8584
1.3148
0.84305
0.837175
0.82581
0.812854
0.797722
0.781802
0.76603
0.751114
0.736956
0.722842
0.707866
0.691784
0.674902
0.65784
0.641119
0.624792
0.60867
0.592485
0.576463
0.561491
0.548573
0.538494
0.53157
0.527551
0.525659
0.52518
0.52518
0.525332
0.525844
0.527029
0.528915
0.531304
0.533189
0.534119
0.533916
0.532919
0.531383
0.530234
10.8576
1.31357
0.84359
0.836837
0.825054
0.812249
0.797565
0.782095
0.766836
0.752406
0.738222
0.723542
0.70785
0.691187
0.674148
0.657334
0.641047
0.625163
0.609129
0.592794
0.576592
0.561509
0.548595
0.538588
0.531749
0.527857
0.526033
0.52566
0.525744
0.525772
0.526145
0.527091
0.528727
0.531073
0.532843
0.533483
0.532966
0.531757
0.530241
0.529165
10.8571
1.31355
0.844301
0.836437
0.824021
0.811058
0.796946
0.782243
0.767787
0.753887
0.739515
0.724103
0.707691
0.690691
0.673748
0.657391
0.641588
0.625826
0.609604
0.592942
0.576507
0.561257
0.548357
0.538515
0.531898
0.528207
0.526403
0.526043
0.52623
0.526356
0.526641
0.527402
0.52874
0.530679
0.53217
0.532501
0.531841
0.530702
0.529594
0.528799
10.8568
1.31465
0.844977
0.836108
0.822875
0.809544
0.795917
0.782243
0.768817
0.755234
0.740509
0.724445
0.707541
0.690446
0.67376
0.657882
0.642426
0.626518
0.609881
0.592853
0.576154
0.560859
0.548078
0.538469
0.532135
0.52862
0.526784
0.526351
0.526608
0.526861
0.527248
0.527936
0.528872
0.530195
0.531178
0.531333
0.530851
0.530032
0.529491
0.529104
10.8568
1.31639
0.845626
0.835891
0.822108
0.80813
0.794737
0.782052
0.769499
0.756077
0.741094
0.724666
0.707576
0.690564
0.674183
0.658685
0.64324
0.627006
0.609941
0.592562
0.575725
0.560496
0.547942
0.53863
0.532512
0.529003
0.5271
0.526529
0.526838
0.527291
0.52781
0.528312
0.528865
0.529508
0.530004
0.53021
0.530116
0.529868
0.529933
0.530134
10.8569
1.31831
0.846195
0.836006
0.821889
0.807379
0.793743
0.781611
0.769562
0.756216
0.741203
0.724842
0.707936
0.691213
0.675075
0.659515
0.643702
0.626991
0.609508
0.591955
0.575254
0.560368
0.548149
0.539093
0.533025
0.529325
0.527269
0.526535
0.526827
0.527495
0.528087
0.528431
0.528576
0.528607
0.528762
0.529135
0.52963
0.530182
0.530934
0.53175
10.8567
1.32029
0.846576
0.836523
0.822216
0.807451
0.793216
0.780845
0.768848
0.755616
0.740739
0.724844
0.708528
0.692307
0.676198
0.66014
0.643689
0.626388
0.608632
0.591184
0.574892
0.560503
0.548676
0.539799
0.533646
0.52962
0.5273
0.526404
0.526506
0.52724
0.527884
0.528059
0.527885
0.527645
0.527685
0.528274
0.529444
0.530941
0.532276
0.53346
10.8561
1.32228
0.846714
0.837182
0.822952
0.807985
0.79341
0.78008
0.76747
0.754347
0.740043
0.72482
0.709302
0.693519
0.677281
0.66051
0.643199
0.62539
0.60762
0.590553
0.574773
0.560925
0.549414
0.540576
0.534235
0.529953
0.527395
0.526171
0.525909
0.526477
0.527085
0.527128
0.526888
0.526624
0.526811
0.527747
0.529527
0.531855
0.533625
0.53492
10.8551
1.32449
0.846781
0.83781
0.82377
0.80891
0.79384
0.77936
0.765742
0.752601
0.739102
0.724886
0.710138
0.694626
0.678116
0.660609
0.642481
0.624325
0.606794
0.590243
0.574989
0.561506
0.550178
0.541325
0.534775
0.530298
0.527533
0.525929
0.525193
0.525417
0.525835
0.525882
0.525736
0.525737
0.526278
0.527553
0.529822
0.532675
0.534696
0.535981
10.8536
1.327
0.846799
0.838262
0.824421
0.809812
0.794381
0.778871
0.764058
0.750702
0.737963
0.724924
0.71084
0.695471
0.678571
0.66055
0.641907
0.62365
0.606458
0.590338
0.575437
0.562129
0.550767
0.541791
0.535069
0.530499
0.527641
0.525835
0.524544
0.524335
0.524525
0.524567
0.524643
0.525066
0.526142
0.527819
0.530356
0.533179
0.535131
0.536163
10.8518
1.32991
0.846596
0.838243
0.824717
0.810406
0.794832
0.778731
0.763157
0.749224
0.736781
0.724646
0.711189
0.695755
0.678639
0.660499
0.641747
0.623686
0.606819
0.590922
0.576043
0.562603
0.55106
0.541846
0.535014
0.530469
0.527725
0.52578
0.524031
0.523401
0.523334
0.523468
0.523845
0.524797
0.52637
0.528432
0.530813
0.533208
0.534891
0.535646
10.8501
1.333
0.846437
0.838011
0.824463
0.810544
0.795116
0.778902
0.763026
0.748538
0.735783
0.723825
0.710748
0.695514
0.678445
0.660601
0.642281
0.624583
0.60792
0.591947
0.57672
0.56282
0.550972
0.541595
0.534725
0.530307
0.527611
0.525593
0.523687
0.52262
0.522363
0.522681
0.523497
0.524899
0.526898
0.529097
0.531042
0.532832
0.534117
0.534778
10.8484
1.33609
0.846196
0.837625
0.823922
0.810314
0.79525
0.779403
0.763592
0.748601
0.735027
0.72249
0.709477
0.694695
0.678261
0.661023
0.643704
0.626486
0.609733
0.593309
0.577388
0.562784
0.550517
0.540978
0.534195
0.52988
0.527221
0.525249
0.523453
0.52215
0.521703
0.522251
0.523503
0.525292
0.527582
0.529557
0.531051
0.532167
0.533004
0.533649
10.847
1.33855
0.845886
0.837352
0.823548
0.809946
0.795233
0.780053
0.764548
0.749098
0.734535
0.720907
0.707553
0.693416
0.678182
0.662162
0.645837
0.6291
0.611959
0.594771
0.577974
0.562608
0.549787
0.540072
0.533429
0.529162
0.526611
0.524843
0.523266
0.521912
0.521426
0.52214
0.523731
0.525824
0.528162
0.529818
0.530804
0.531405
0.531863
0.532468
10.8466
1.3399
0.845445
0.837254
0.82344
0.809689
0.795287
0.780659
0.765448
0.749723
0.734046
0.719331
0.705459
0.692071
0.678318
0.66384
0.64854
0.63195
0.614314
0.596187
0.578486
0.562351
0.548994
0.539024
0.532386
0.528214
0.525837
0.524376
0.523042
0.521842
0.521468
0.522322
0.524228
0.526487
0.52854
0.529826
0.530359
0.530572
0.530923
0.531512
10.8468
1.33986
0.844803
0.837285
0.823721
0.809804
0.795498
0.781104
0.765982
0.749971
0.733577
0.717833
0.70368
0.690974
0.67873
0.665823
0.651309
0.634747
0.616476
0.597436
0.578902
0.562152
0.548288
0.538013
0.531196
0.527062
0.524879
0.523721
0.522729
0.521912
0.521831
0.522951
0.524958
0.527061
0.528646
0.529535
0.529755
0.5298
0.530153
0.530869
10.8478
1.33775
0.843969
0.837455
0.824518
0.810528
0.79596
0.78141
0.766144
0.749846
0.733054
0.716963
0.702628
0.690394
0.679342
0.667588
0.653586
0.636946
0.618172
0.598413
0.579219
0.562036
0.54782
0.537181
0.530073
0.525815
0.523807
0.5229
0.522336
0.52207
0.522415
0.523882
0.525711
0.527408
0.528553
0.529052
0.529073
0.52915
0.529597
0.530522
10.8489
1.3336
0.842985
0.837761
0.82572
0.811806
0.796674
0.781495
0.765824
0.749475
0.732636
0.716693
0.702395
0.69043
0.679976
0.668764
0.654969
0.638232
0.619182
0.599045
0.579499
0.562024
0.547578
0.536575
0.529125
0.524636
0.522645
0.521901
0.521862
0.522257
0.523234
0.524762
0.52622
0.527429
0.528109
0.528338
0.528373
0.528611
0.529251
0.530441
10.851
1.32814
0.841906
0.838114
0.827019
0.813295
0.797521
0.781437
0.765165
0.74879
0.732506
0.716988
0.70285
0.69091
0.680454
0.669189
0.655313
0.638508
0.619395
0.599271
0.579701
0.562172
0.547541
0.536214
0.528384
0.523621
0.521532
0.52089
0.521299
0.522487
0.524037
0.525399
0.526411
0.527141
0.527375
0.527452
0.52765
0.528145
0.529023
0.530363
10.8538
1.32207
0.84073
0.838301
0.828041
0.814552
0.798287
0.781415
0.764645
0.748374
0.732744
0.717836
0.703941
0.691726
0.680559
0.668773
0.654637
0.637843
0.618959
0.599158
0.579911
0.562435
0.547689
0.536101
0.527899
0.522857
0.520619
0.520098
0.520887
0.522674
0.524524
0.525697
0.526347
0.52659
0.526469
0.526473
0.526853
0.52766
0.528824
0.530314
10.8575
1.31615
0.839352
0.837874
0.828353
0.815035
0.798666
0.781501
0.764565
0.748528
0.733436
0.719102
0.70542
0.692624
0.680385
0.667682
0.65321
0.636534
0.618068
0.598885
0.580092
0.562815
0.547963
0.536191
0.527714
0.522474
0.520101
0.519692
0.520762
0.522794
0.524654
0.525611
0.525901
0.525788
0.525519
0.525586
0.526108
0.527198
0.528634
0.530342
10.8624
1.31102
0.837901
0.836548
0.8274
0.814441
0.798639
0.78172
0.764964
0.74928
0.734599
0.720529
0.706904
0.693371
0.679936
0.666252
0.651365
0.63487
0.617017
0.59858
0.580336
0.563235
0.548326
0.536344
0.527772
0.52248
0.520043
0.519702
0.52092
0.522799
0.524446
0.525106
0.525149
0.524977
0.524726
0.524897
0.525542
0.526837
0.528421
0.53033
10.8682
1.30706
0.836676
0.834526
0.825436
0.813046
0.798154
0.782038
0.765832
0.750481
0.736087
0.722167
0.708157
0.69385
0.67926
0.664619
0.64942
0.633258
0.616169
0.598456
0.580645
0.563657
0.548659
0.53663
0.528039
0.522795
0.520373
0.520048
0.521079
0.522613
0.523839
0.524266
0.524332
0.524332
0.524294
0.524593
0.525306
0.526655
0.528256
0.530218
10.8744
1.30431
0.835734
0.832291
0.822905
0.810997
0.797156
0.782225
0.766865
0.751939
0.737686
0.723683
0.709199
0.694036
0.67848
0.663032
0.647722
0.632106
0.615777
0.598609
0.581038
0.56407
0.549058
0.53708
0.528558
0.523396
0.520978
0.520586
0.52113
0.522204
0.522936
0.523269
0.523576
0.523905
0.524224
0.524697
0.525386
0.526681
0.528223
0.530118
10.881
1.30239
0.835007
0.83006
0.820179
0.80873
0.79602
0.782266
0.767802
0.753319
0.73911
0.72487
0.709926
0.694076
0.677815
0.661781
0.646521
0.631468
0.615779
0.599
0.581564
0.564591
0.549599
0.537723
0.52932
0.524242
0.521799
0.521085
0.521123
0.521642
0.521957
0.522314
0.522907
0.523687
0.524435
0.525121
0.525779
0.52689
0.528285
0.529966
10.888
1.30055
0.834306
0.827938
0.817725
0.806671
0.794904
0.782202
0.768494
0.754351
0.740159
0.725677
0.710359
0.694105
0.677442
0.661092
0.645892
0.631271
0.616018
0.599499
0.582113
0.565138
0.550204
0.538458
0.53027
0.525396
0.522785
0.52148
0.521125
0.521075
0.521091
0.521516
0.522404
0.523635
0.524858
0.525872
0.526575
0.527314
0.528458
0.529893
10.8948
1.29821
0.833572
0.826202
0.815869
0.805116
0.793999
0.782005
0.768867
0.754955
0.740706
0.726089
0.71061
0.694168
0.677356
0.660933
0.645749
0.631308
0.616242
0.599784
0.582455
0.565605
0.550766
0.539223
0.531266
0.526485
0.523741
0.522026
0.521247
0.52069
0.520491
0.521002
0.522169
0.523773
0.525487
0.526812
0.527563
0.528018
0.528734
0.529928
10.9016
1.29461
0.832923
0.825206
0.814787
0.804176
0.79334
0.781692
0.768846
0.75511
0.740855
0.726134
0.710646
0.694295
0.677527
0.661172
0.645846
0.631296
0.616155
0.599643
0.582359
0.56567
0.551122
0.539861
0.532058
0.527319
0.524501
0.522642
0.521449
0.520547
0.520232
0.520807
0.522204
0.52415
0.526158
0.527618
0.528386
0.528748
0.529164
0.530013
10.9084
1.28892
0.832328
0.824868
0.814528
0.804023
0.793103
0.781435
0.768716
0.754998
0.740688
0.725974
0.710602
0.694487
0.677952
0.661665
0.646041
0.631016
0.615557
0.59898
0.58185
0.565465
0.551294
0.540315
0.532595
0.527827
0.524931
0.523169
0.521784
0.520731
0.520347
0.520969
0.522512
0.524666
0.526708
0.528168
0.528973
0.529417
0.52966
0.530074
10.9157
1.28083
0.83188
0.825185
0.815083
0.804628
0.793402
0.781483
0.768612
0.75482
0.740457
0.725703
0.710509
0.694732
0.678567
0.662291
0.646166
0.630348
0.61437
0.597759
0.5809
0.565
0.551278
0.540527
0.532854
0.528029
0.525167
0.523441
0.522173
0.521244
0.520918
0.521584
0.523169
0.525207
0.52708
0.528496
0.529351
0.529879
0.530024
0.53002
10.9235
1.27086
0.831653
0.826062
0.816401
0.805814
0.794077
0.781735
0.768579
0.754653
0.740209
0.725434
0.71042
0.695052
0.679265
0.662953
0.646241
0.629454
0.612716
0.595958
0.579468
0.564159
0.550957
0.540454
0.53288
0.528033
0.525139
0.523496
0.522592
0.522039
0.521893
0.522549
0.523983
0.525674
0.52727
0.528578
0.529501
0.530088
0.530206
0.529927
10.9312
1.26023
0.831505
0.827266
0.818156
0.80738
0.794977
0.782031
0.768564
0.754536
0.740033
0.72527
0.710372
0.695275
0.679688
0.663394
0.646199
0.628474
0.610865
0.593876
0.577817
0.563152
0.550427
0.540116
0.532682
0.527743
0.524854
0.523486
0.523033
0.522942
0.523062
0.523689
0.524834
0.526077
0.527331
0.528484
0.529454
0.530061
0.530177
0.529851
10.9373
1.25043
0.831352
0.828366
0.819871
0.808874
0.795893
0.782347
0.768554
0.754476
0.739988
0.7252
0.710346
0.695459
0.680072
0.663644
0.645946
0.627425
0.609114
0.591937
0.576327
0.562219
0.549839
0.539655
0.532265
0.527204
0.524445
0.523491
0.523464
0.523774
0.524205
0.524817
0.525593
0.526412
0.527328
0.52831
0.529249
0.529868
0.530025
0.529777
10.9417
1.24305
0.831212
0.829354
0.821368
0.810133
0.796638
0.782585
0.768525
0.754398
0.739937
0.725156
0.710358
0.695618
0.680321
0.663606
0.645376
0.626364
0.607733
0.590522
0.575307
0.561588
0.549348
0.539286
0.531678
0.526576
0.524026
0.523467
0.523752
0.52445
0.525181
0.525721
0.526162
0.526641
0.527285
0.528117
0.528992
0.52961
0.529824
0.529665
10.9431
1.23871
0.831066
0.829908
0.822552
0.811182
0.797391
0.782978
0.76866
0.754418
0.739903
0.725119
0.7103
0.695554
0.680212
0.663313
0.644782
0.625485
0.606661
0.589495
0.574552
0.561139
0.54901
0.53907
0.531335
0.526206
0.523747
0.523381
0.523865
0.524807
0.525764
0.5263
0.526564
0.526803
0.527224
0.52793
0.528771
0.529443
0.52976
0.529695
0.539826
0.539088
0.538526
0.537582
0.537041
0.537163
0.537907
0.538863
0.539484
0.539269
0.538908
0.538738
0.53917
0.540313
0.541755
0.543521
0.545301
0.546866
0.547908
0.54872
0.549737
0.55096
0.552411
0.553682
0.554336
0.554302
0.553392
0.551508
0.549288
0.547678
0.547151
0.54756
0.548799
0.550411
0.552104
0.554124
0.556547
0.559185
0.561335
0.563338
0.564454
0.56442
0.563108
0.560299
0.556368
0.552597
0.55062
0.550268
0.55151
0.5543
0.557257
0.559636
0.560783
0.560884
0.56088
0.561463
0.562561
0.56367
0.563903
0.563362
0.561077
0.557978
0.556031
0.555891
0.557305
0.56053
0.564004
0.565654
0.564902
0.562583
0.559534
0.555912
0.553516
0.552732
0.552934
0.554392
0.556498
0.558301
0.559272
0.559979
0.538124
0.53768
0.53712
0.536463
0.536369
0.536948
0.537886
0.538866
0.539118
0.538703
0.538381
0.538452
0.53927
0.540948
0.542925
0.544801
0.546508
0.547848
0.548817
0.549608
0.55045
0.551403
0.552334
0.55295
0.553228
0.553017
0.552063
0.550449
0.54878
0.547782
0.54781
0.548483
0.549931
0.551652
0.553378
0.555342
0.557674
0.560153
0.561968
0.563498
0.564097
0.563753
0.561939
0.5588
0.555353
0.552265
0.550856
0.55088
0.552537
0.555335
0.558055
0.56001
0.560949
0.561182
0.56134
0.561721
0.562434
0.56333
0.563412
0.562091
0.559989
0.558055
0.556883
0.557108
0.558771
0.561766
0.564034
0.564594
0.563341
0.560835
0.558278
0.555542
0.553794
0.553351
0.554257
0.555554
0.556741
0.557729
0.55832
0.558739
0.536324
0.5359
0.535626
0.535502
0.535939
0.536808
0.53769
0.538564
0.538561
0.538238
0.538217
0.538727
0.539965
0.541863
0.543992
0.545942
0.547608
0.548909
0.549969
0.550669
0.55123
0.551505
0.551822
0.552071
0.552181
0.551846
0.550839
0.549595
0.548891
0.548602
0.548799
0.549555
0.550958
0.552666
0.554471
0.556549
0.558881
0.560923
0.562278
0.563075
0.563298
0.56258
0.560508
0.557625
0.555045
0.552877
0.551789
0.552017
0.553605
0.55596
0.55836
0.560207
0.561348
0.562022
0.562157
0.561889
0.561659
0.562267
0.561598
0.560138
0.559251
0.559094
0.558927
0.559458
0.560864
0.56232
0.562979
0.562614
0.561371
0.559286
0.5575
0.556018
0.554838
0.555042
0.555805
0.556493
0.556759
0.556788
0.556825
0.556894
0.534012
0.533664
0.53388
0.534586
0.535564
0.536525
0.537292
0.537942
0.537939
0.537973
0.538394
0.539365
0.540901
0.542865
0.545001
0.547076
0.5489
0.550297
0.551169
0.551651
0.551722
0.551453
0.551004
0.550616
0.550329
0.549898
0.549326
0.549253
0.549398
0.549696
0.550081
0.550896
0.552194
0.553962
0.555937
0.55804
0.560216
0.561716
0.562497
0.562556
0.562256
0.560976
0.558839
0.556694
0.554961
0.553881
0.553255
0.553657
0.554897
0.5567
0.558692
0.560523
0.562038
0.562945
0.562821
0.562091
0.5613
0.560538
0.559492
0.5588
0.559272
0.560874
0.561793
0.56249
0.56293
0.562573
0.561448
0.559963
0.558692
0.557455
0.556531
0.5565
0.556505
0.556755
0.5569
0.55697
0.556853
0.556488
0.556077
0.555751
0.531707
0.531602
0.532427
0.533815
0.535154
0.53614
0.53677
0.537178
0.537422
0.53802
0.53895
0.540301
0.541933
0.543748
0.5457
0.547831
0.5498
0.551423
0.552219
0.552302
0.551828
0.550934
0.549887
0.548956
0.548356
0.548192
0.548423
0.549271
0.550239
0.550964
0.551459
0.552202
0.553354
0.555143
0.55729
0.559319
0.561182
0.562317
0.562588
0.562145
0.560946
0.559278
0.557565
0.556269
0.555268
0.555081
0.555381
0.555727
0.556236
0.557301
0.559048
0.5609
0.562891
0.563826
0.563533
0.562257
0.56034
0.558549
0.557726
0.558239
0.559999
0.562772
0.564716
0.565607
0.564815
0.562771
0.559734
0.557172
0.556186
0.556156
0.556494
0.557544
0.558153
0.558113
0.557766
0.557415
0.556796
0.555957
0.555132
0.554413
0.529938
0.530099
0.531352
0.533153
0.534628
0.535539
0.536015
0.536397
0.537134
0.538398
0.539896
0.541438
0.542894
0.544385
0.546055
0.548149
0.550134
0.551933
0.552772
0.552598
0.55148
0.54994
0.548377
0.547201
0.546723
0.546967
0.547968
0.549552
0.551162
0.552248
0.552868
0.553466
0.554464
0.556152
0.558296
0.560282
0.561807
0.562582
0.562515
0.561351
0.559605
0.557962
0.556911
0.556264
0.556187
0.557204
0.557829
0.557644
0.557399
0.557855
0.559353
0.561307
0.563639
0.564624
0.563881
0.562025
0.559217
0.557141
0.556716
0.558384
0.561393
0.56525
0.567614
0.567966
0.56629
0.562607
0.55832
0.55514
0.554221
0.555025
0.556655
0.558303
0.559088
0.558882
0.558244
0.557404
0.556391
0.555241
0.554255
0.553401
0.528947
0.529433
0.530867
0.532552
0.5339
0.534724
0.535199
0.535847
0.537144
0.53905
0.540968
0.542481
0.543582
0.54465
0.546067
0.547961
0.549811
0.551635
0.552563
0.552293
0.550901
0.548882
0.54695
0.545962
0.5458
0.546372
0.547896
0.549891
0.551889
0.553256
0.553989
0.554516
0.555364
0.556789
0.558706
0.560644
0.561924
0.562595
0.562113
0.560383
0.558562
0.557206
0.556758
0.556727
0.558002
0.559381
0.559781
0.559095
0.558414
0.558461
0.559647
0.561497
0.564055
0.565078
0.564244
0.561826
0.558484
0.556545
0.556749
0.559063
0.563322
0.567589
0.56967
0.569095
0.566563
0.562117
0.55734
0.554032
0.552958
0.554092
0.556489
0.558362
0.559224
0.558947
0.558245
0.557028
0.555682
0.554592
0.553796
0.552928
0.528734
0.529462
0.530717
0.532104
0.533166
0.533886
0.534557
0.53567
0.537436
0.539752
0.541921
0.543316
0.544106
0.544769
0.545741
0.547293
0.548812
0.550466
0.551431
0.551132
0.549666
0.547601
0.545979
0.54555
0.545533
0.546355
0.548086
0.55023
0.552446
0.55402
0.554892
0.555402
0.555971
0.557001
0.5586
0.560369
0.561508
0.562085
0.561299
0.559422
0.557973
0.557054
0.557101
0.558251
0.560006
0.560773
0.560933
0.56006
0.559244
0.559069
0.559969
0.561484
0.563924
0.564883
0.563889
0.5614
0.558543
0.557034
0.557795
0.560676
0.56546
0.569104
0.570585
0.56943
0.566033
0.561449
0.556849
0.553841
0.553067
0.553847
0.555795
0.557748
0.558496
0.5583
0.557317
0.556089
0.555067
0.554367
0.553844
0.55313
0.529261
0.530015
0.530987
0.531868
0.532568
0.533216
0.534125
0.535749
0.53792
0.540327
0.542608
0.543812
0.544397
0.544754
0.545225
0.546226
0.547204
0.548458
0.549328
0.549168
0.548117
0.546775
0.54594
0.545733
0.545946
0.546879
0.548541
0.55058
0.552758
0.554467
0.555405
0.555829
0.556172
0.556765
0.558024
0.559626
0.560598
0.561033
0.560284
0.558715
0.557848
0.557526
0.558437
0.56006
0.561259
0.561373
0.561372
0.560608
0.559864
0.559644
0.560277
0.56147
0.563219
0.563869
0.562894
0.560953
0.559211
0.558685
0.559784
0.56292
0.566753
0.569454
0.570149
0.568622
0.565309
0.560824
0.556823
0.554669
0.554243
0.554257
0.555005
0.556374
0.557037
0.556763
0.555996
0.555344
0.554912
0.554607
0.554375
0.553948
0.530393
0.53104
0.531515
0.531826
0.532238
0.532789
0.533972
0.536001
0.538367
0.540647
0.542822
0.543861
0.544322
0.544353
0.544368
0.544801
0.545233
0.545874
0.546518
0.546801
0.546728
0.546614
0.546476
0.546531
0.547013
0.547932
0.549324
0.551014
0.552854
0.55447
0.555405
0.555774
0.555877
0.556191
0.557027
0.558257
0.559018
0.559401
0.559078
0.558279
0.558034
0.558653
0.560156
0.561359
0.56162
0.561367
0.561195
0.560653
0.560202
0.560051
0.56049
0.561298
0.561829
0.562123
0.56164
0.560831
0.560657
0.561072
0.562642
0.565023
0.567276
0.568312
0.568071
0.566536
0.563567
0.560098
0.557566
0.556383
0.555593
0.554761
0.55425
0.554473
0.554788
0.554809
0.554797
0.555028
0.555293
0.555292
0.5553
0.555096
0.53198
0.532378
0.532292
0.532088
0.532302
0.532664
0.534022
0.536204
0.538581
0.540664
0.542637
0.543518
0.543853
0.543728
0.543348
0.54323
0.543172
0.543255
0.543754
0.544674
0.545752
0.546703
0.547319
0.547891
0.548614
0.549518
0.550418
0.551446
0.552715
0.554023
0.554921
0.555356
0.555327
0.555336
0.55573
0.55623
0.556796
0.557348
0.557792
0.558045
0.55845
0.560043
0.561558
0.561941
0.561523
0.560947
0.56065
0.560384
0.560281
0.560283
0.560461
0.560494
0.559799
0.559806
0.560278
0.560915
0.561833
0.563693
0.565405
0.566425
0.566546
0.565748
0.564279
0.562761
0.560856
0.559406
0.558841
0.558119
0.55684
0.555404
0.554001
0.552975
0.552698
0.553072
0.553741
0.554545
0.555306
0.555938
0.556373
0.556634
0.533734
0.533831
0.533147
0.532524
0.532479
0.532758
0.534053
0.53623
0.538529
0.540498
0.542166
0.54299
0.543294
0.543024
0.542318
0.541708
0.541267
0.541027
0.541539
0.54299
0.544932
0.546799
0.548262
0.549437
0.550484
0.551262
0.551707
0.552036
0.552535
0.553367
0.554283
0.554689
0.5546
0.554326
0.554111
0.553859
0.554116
0.555072
0.556406
0.55762
0.559352
0.56132
0.562321
0.562163
0.561209
0.560318
0.559874
0.55986
0.560089
0.560294
0.560065
0.558782
0.557359
0.557411
0.558763
0.560851
0.563736
0.566121
0.567138
0.566601
0.564574
0.561823
0.559279
0.558128
0.558071
0.559244
0.560028
0.559583
0.558235
0.555812
0.553562
0.552015
0.551509
0.552017
0.553239
0.554646
0.555894
0.556906
0.557392
0.557707
0.535291
0.535024
0.533892
0.533025
0.532733
0.533023
0.534093
0.536049
0.538222
0.540142
0.541571
0.542452
0.542743
0.542401
0.541412
0.540397
0.539657
0.539457
0.540069
0.541653
0.544089
0.546755
0.549128
0.550994
0.552336
0.552972
0.552918
0.55269
0.552571
0.552948
0.553622
0.554072
0.553833
0.553256
0.552288
0.551447
0.551557
0.552912
0.555138
0.557559
0.560245
0.562011
0.562475
0.561867
0.560631
0.559434
0.558926
0.559144
0.559624
0.559782
0.558868
0.556571
0.555158
0.555342
0.557328
0.561335
0.565109
0.567324
0.567389
0.565383
0.561456
0.55761
0.555335
0.555047
0.556938
0.559309
0.560477
0.560458
0.558757
0.556002
0.553503
0.551933
0.551429
0.551842
0.553111
0.554943
0.556441
0.557338
0.557635
0.557896
0.536295
0.535632
0.534332
0.533508
0.533218
0.533546
0.534243
0.535576
0.537518
0.539488
0.541012
0.54194
0.542247
0.541948
0.540817
0.539593
0.538744
0.538481
0.539138
0.540643
0.543239
0.546552
0.54982
0.552425
0.554013
0.554559
0.55422
0.553383
0.552832
0.552816
0.553288
0.553527
0.553058
0.552169
0.550495
0.549389
0.549575
0.55128
0.554052
0.557656
0.560631
0.561946
0.561917
0.561185
0.5598
0.558635
0.558282
0.558603
0.558883
0.558708
0.557191
0.554735
0.553619
0.553916
0.55622
0.561199
0.565403
0.567043
0.566011
0.562711
0.558056
0.554578
0.553459
0.554448
0.556807
0.559308
0.560773
0.560574
0.559038
0.556506
0.554081
0.552676
0.552381
0.552826
0.553942
0.555457
0.556547
0.557012
0.55707
0.557247
0.536357
0.535659
0.534483
0.533798
0.533717
0.533974
0.534384
0.534971
0.536531
0.53858
0.540457
0.541605
0.541994
0.541629
0.540605
0.539365
0.538426
0.537999
0.538491
0.539928
0.542524
0.54619
0.550168
0.553473
0.555379
0.555899
0.555471
0.554341
0.553408
0.55304
0.553158
0.553011
0.552395
0.551003
0.549066
0.548103
0.548417
0.550157
0.5534
0.557509
0.560296
0.561244
0.560905
0.560036
0.558798
0.558022
0.558001
0.558181
0.558004
0.557326
0.555726
0.553821
0.552864
0.553154
0.555548
0.560176
0.564012
0.565013
0.56336
0.559755
0.555746
0.553452
0.553267
0.55464
0.556703
0.55898
0.56024
0.560103
0.559139
0.55745
0.555584
0.554443
0.554363
0.554717
0.555281
0.555833
0.556039
0.55599
0.555786
0.555901
0.5359
0.535347
0.534561
0.534161
0.534158
0.534279
0.534395
0.534659
0.535551
0.53758
0.539875
0.541442
0.54196
0.541525
0.540644
0.53951
0.5384
0.537807
0.538213
0.539608
0.542086
0.545739
0.550057
0.553898
0.55613
0.556841
0.556529
0.555527
0.554438
0.553663
0.55323
0.552575
0.551797
0.550006
0.548294
0.547582
0.547899
0.549755
0.55343
0.557228
0.559538
0.560175
0.559738
0.558778
0.55794
0.55769
0.557814
0.557766
0.557138
0.556085
0.554861
0.553615
0.553048
0.553973
0.556306
0.558826
0.561076
0.561782
0.560119
0.557591
0.555065
0.553796
0.55398
0.555225
0.556999
0.558148
0.558873
0.559146
0.559129
0.558727
0.558037
0.55742
0.557206
0.557019
0.55669
0.556221
0.555561
0.554952
0.554539
0.554642
0.53508
0.534851
0.534674
0.534608
0.53459
0.534519
0.534383
0.534371
0.534861
0.536736
0.539279
0.541314
0.542038
0.541618
0.540817
0.53981
0.538631
0.53794
0.53814
0.539487
0.541981
0.54543
0.549571
0.553532
0.556106
0.557204
0.55721
0.556568
0.55566
0.554648
0.55358
0.552432
0.551105
0.549337
0.548086
0.547592
0.548166
0.5505
0.554029
0.557049
0.558715
0.559042
0.55855
0.55783
0.557454
0.557472
0.557714
0.557394
0.556473
0.555514
0.554837
0.554374
0.554685
0.556201
0.557392
0.557617
0.557814
0.55835
0.55769
0.556438
0.555685
0.555175
0.555264
0.555902
0.556535
0.556901
0.557506
0.558415
0.559409
0.560384
0.560922
0.561033
0.560422
0.559375
0.557949
0.556447
0.555108
0.554237
0.553809
0.553953
0.53403
0.534337
0.534805
0.535058
0.534985
0.534655
0.534213
0.534089
0.534457
0.536041
0.538632
0.540989
0.54198
0.541716
0.541007
0.540161
0.539042
0.538402
0.538514
0.539826
0.542256
0.545432
0.548907
0.552504
0.555293
0.556847
0.557493
0.557426
0.55685
0.55564
0.553971
0.552342
0.550517
0.549123
0.548385
0.54813
0.549369
0.552056
0.554774
0.556853
0.557939
0.558132
0.557798
0.557429
0.55739
0.557564
0.557699
0.557161
0.556189
0.555643
0.555709
0.556196
0.55752
0.558398
0.557826
0.556285
0.554826
0.55498
0.555577
0.556036
0.556917
0.55709
0.556667
0.556315
0.556046
0.555926
0.556561
0.55807
0.560183
0.562189
0.563775
0.56415
0.563215
0.561168
0.558819
0.556699
0.555055
0.554183
0.553924
0.554216
0.533162
0.533997
0.534947
0.535422
0.535275
0.53478
0.534122
0.533841
0.534353
0.535555
0.537859
0.540205
0.54155
0.54164
0.541134
0.540459
0.539596
0.539257
0.539416
0.540664
0.542865
0.545533
0.548349
0.551134
0.553943
0.556081
0.557416
0.558
0.557643
0.556324
0.554373
0.55217
0.550276
0.549228
0.5489
0.549471
0.551305
0.553462
0.555167
0.556406
0.55724
0.557553
0.557604
0.557627
0.557802
0.557975
0.557798
0.557188
0.556618
0.556607
0.557301
0.559137
0.560495
0.55997
0.557843
0.554858
0.552173
0.551774
0.553558
0.556219
0.558037
0.55889
0.558096
0.556855
0.555866
0.555625
0.556536
0.558672
0.561578
0.564514
0.566054
0.566205
0.565051
0.562711
0.559911
0.557445
0.555763
0.554967
0.55479
0.555228
0.532576
0.533842
0.535016
0.535584
0.535452
0.534983
0.534263
0.533925
0.534389
0.535376
0.536988
0.53898
0.54058
0.541197
0.541093
0.540772
0.540344
0.540441
0.540806
0.541898
0.543655
0.545692
0.54789
0.549824
0.552424
0.555056
0.557176
0.558171
0.557926
0.55663
0.554549
0.55207
0.550264
0.549527
0.549895
0.551617
0.553391
0.554546
0.55531
0.555931
0.556556
0.557325
0.557938
0.558302
0.558377
0.558271
0.557878
0.557547
0.55755
0.558163
0.560008
0.561945
0.562526
0.561023
0.557411
0.553239
0.550242
0.549384
0.551204
0.555597
0.558624
0.560351
0.559581
0.557905
0.556575
0.556477
0.557778
0.560186
0.563587
0.566214
0.567363
0.567337
0.566189
0.563986
0.561305
0.558847
0.557229
0.556437
0.556196
0.556722
0.532145
0.533707
0.534942
0.535591
0.535611
0.535395
0.534831
0.534445
0.534638
0.535144
0.535919
0.537355
0.539113
0.540264
0.540805
0.541063
0.541274
0.541868
0.542522
0.543361
0.544482
0.545852
0.5474
0.549006
0.551127
0.553981
0.556543
0.557843
0.557896
0.556743
0.554446
0.552167
0.550632
0.5503
0.551765
0.553971
0.555066
0.555315
0.555056
0.555184
0.55591
0.557287
0.558487
0.559079
0.559033
0.558438
0.557957
0.558133
0.558731
0.560658
0.56265
0.56379
0.563381
0.561079
0.556621
0.551837
0.549124
0.548353
0.54961
0.554173
0.558442
0.560366
0.559999
0.559135
0.558475
0.55869
0.56004
0.562354
0.565091
0.56709
0.567909
0.567675
0.566466
0.564726
0.562643
0.560684
0.559227
0.55828
0.557747
0.558215
0.531947
0.533636
0.534889
0.535641
0.535955
0.536105
0.535825
0.53534
0.534997
0.534825
0.534828
0.53542