/*--------------------------------*- C++ -*----------------------------------*\
| =========                 |                                                 |
| \\      /  F ield         | OpenFOAM: The Open Source CFD Toolbox           |
|  \\    /   O peration     | Version:  v1912                                 |
|   \\  /    A nd           | Website:  www.openfoam.com                      |
|    \\/     M anipulation  |                                                 |
\*---------------------------------------------------------------------------*/
FoamFile
{
    version     2.0;
    format      ascii;
    class       volVectorField;
    location    "5.28";
    object      grad(rho);
}
// * * * * * * * * * * * * * * * * * * * * * * * * * * * * * * * * * * * * * //

dimensions      [1 -4 0 0 0 0 0];


internalField   nonuniform List<vector> 
1900
(
(156475 0.0227757 0)
(-141497 -0.929016 0)
(-15155.5 0.604004 0)
(-3718.25 -2.25061 0)
(-2191.05 -1.81507 0)
(-1408.3 -2.77243 0)
(-1148.42 -5.17032 0)
(-900.755 27.2722 0)
(-673.138 30.2799 0)
(283.484 -44.795 0)
(156474 -0.325522 0)
(-141497 -1.16077 0)
(-15156.8 0.691012 0)
(-3720.67 -1.56877 0)
(-2191.57 0.0194202 0)
(-1411.66 -0.385633 0)
(-1118.38 -4.41931 0)
(-865.305 13.681 0)
(-745.205 -8.54156 0)
(-661.262 -88.7429 0)
(156474 -3.2756e-08 0)
(-141496 3.70903e-08 0)
(-15155.9 -5.3717e-08 0)
(-3718.92 -5.73763e-09 0)
(-2189.87 -2.36255e-09 0)
(-1412.74 -2.04281e-09 0)
(-1134.35 -4.84945e-09 0)
(-904.877 3.69482e-09 0)
(-775.561 9.14824e-09 0)
(-770.724 6.05738e-09 0)
(156474 0.325522 0)
(-141497 1.16077 0)
(-15156.8 -0.691012 0)
(-3720.67 1.56877 0)
(-2191.57 -0.0194202 0)
(-1411.66 0.385633 0)
(-1118.38 4.41931 0)
(-865.305 -13.681 0)
(-745.205 8.54156 0)
(-661.262 88.7429 0)
(156475 -0.0227758 0)
(-141497 0.929016 0)
(-15155.5 -0.604004 0)
(-3718.25 2.25061 0)
(-2191.05 1.81507 0)
(-1408.3 2.77243 0)
(-1148.42 5.17032 0)
(-900.755 -27.2722 0)
(-673.138 -30.2799 0)
(283.484 44.795 0)
(-322.06 -796.706 1.28787e-11)
(-1809.05 -683.272 -1.52511e-11)
(-2578.71 -704.105 -1.9205e-11)
(-2665.57 -912.718 0)
(-21117.6 -8263.85 -8.0397e-11)
(-886.001 -934.216 1.27348e-11)
(-1262.34 -800.068 1.52511e-11)
(-2349.09 -871.3 1.9205e-11)
(-5473.39 -670.415 0)
(-19703.5 -6298.87 0)
(-1237.19 4.87533e-09 0)
(-1470.7 4.55776e-09 0)
(-2314.66 4.68761e-10 0)
(-4831.93 -2.48959e-09 0)
(-22185.4 -7.93016e-09 0)
(-886.001 934.216 1.27348e-11)
(-1262.34 800.068 1.52511e-11)
(-2349.09 871.3 1.9205e-11)
(-5473.39 670.415 0)
(-19703.5 6298.87 0)
(-322.06 796.706 -3.83483e-11)
(-1809.05 683.272 -1.52511e-11)
(-2578.71 704.105 -1.9205e-11)
(-2665.57 912.718 -5.14211e-11)
(-21117.6 8263.85 8.0397e-11)
(-33239.2 14563.7 2.13491e-11)
(-5247.58 4111.37 -1.55698e-11)
(-1880.93 2245.58 0)
(-4223.75 1531.6 1.12272e-11)
(-10848.7 2295.91 -4.61795e-12)
(-29153.7 18033.1 -1.08939e-11)
(-7985.13 2999.98 7.84681e-12)
(-2512.37 705.211 0)
(-4003.57 513.6 -7.04972e-12)
(-9572.56 1268.8 1.18133e-12)
(-31035.2 -3.54374e-09 0)
(-9595.62 -2.16351e-09 0)
(-2745.58 1.4474e-09 0)
(-4055.48 8.70763e-11 2.82607e-12)
(-9157.61 6.05104e-09 -2.36266e-12)
(-29153.7 -18033.1 -1.08939e-11)
(-7985.13 -2999.98 7.84681e-12)
(-2512.37 -705.211 0)
(-4003.57 -513.6 -7.04972e-12)
(-9572.56 -1268.8 1.18133e-12)
(-33239.2 -14563.7 1.08939e-11)
(-5247.58 -4111.37 -1.23821e-13)
(-1880.93 -2245.58 0)
(-4223.75 -1531.6 4.61268e-14)
(-10848.7 -2295.91 4.61795e-12)
(-10979 8701.95 0)
(-750.451 2335.99 0)
(4361.9 2080.64 0)
(2017.23 3019.8 0)
(-1380.83 2153.83 0)
(-2513.64 1241.32 0)
(-2532.56 566.279 0)
(-1950.55 248.345 0)
(-1345.09 114.472 0)
(-1053.64 52.8359 0)
(-990.325 38.3322 0)
(-931.599 50.7115 0)
(-772.51 26.4273 0)
(-532.129 7.06876 0)
(-323.39 -1.3823 0)
(-207.714 -2.90466 0)
(-158.976 -2.53583 0)
(-135.745 -2.33989 0)
(-117.926 -2.5093 0)
(-99.4954 -2.82585 0)
(-80.4276 -3.11332 0)
(-63.2758 -3.28425 0)
(-48.3619 -3.35395 0)
(-35.4494 -3.3795 0)
(-24.4507 -3.39523 0)
(-15.083 -3.43639 0)
(-6.04036 -3.49744 0)
(4.79751 -3.61632 0)
(22.0432 -3.65322 0)
(41.2989 -3.58716 0)
(69.3128 -3.4566 0)
(94.708 -2.63737 0)
(125.486 -2.47294 0)
(145.911 -0.714693 0)
(196.524 -3.5038 0)
(239.262 2.02632 0)
(369.443 -5.33922 0)
(1775.62 13.5745 0)
(17772.8 -78.9142 0)
(-11400.4 -1690.77 0)
(-10944.8 5465.54 0)
(-1580.18 1469.9 0)
(4290.98 590.131 0)
(1732.28 1072.7 0)
(-1680.59 1149.83 0)
(-2697.41 799.982 0)
(-2646.75 350.305 0)
(-2008.58 116.475 0)
(-1366.14 47.6285 0)
(-1061.84 18.0114 0)
(-989.066 9.99383 0)
(-931.83 24.9351 0)
(-777.164 8.88071 0)
(-534.341 1.49144 0)
(-324.118 -1.23847 0)
(-207.759 -1.65391 0)
(-158.899 -1.39372 0)
(-135.727 -1.25992 0)
(-117.958 -1.30198 0)
(-99.5418 -1.41597 0)
(-80.4649 -1.52906 0)
(-63.2963 -1.60258 0)
(-48.3717 -1.64193 0)
(-35.4563 -1.66981 0)
(-24.4611 -1.69953 0)
(-15.0984 -1.746 0)
(-6.0645 -1.80021 0)
(4.77291 -1.88216 0)
(22.0346 -1.92981 0)
(41.3021 -1.92419 0)
(69.3891 -1.88516 0)
(94.7935 -1.49169 0)
(125.63 -1.36041 0)
(145.771 -0.556503 0)
(196.852 -1.37862 0)
(239.244 2.21439 0)
(369.751 1.62842 0)
(1764.95 9.10416 0)
(17702.9 -57.5486 0)
(-11374.2 -348.327 0)
(-10632.8 -7.03922e-08 0)
(-2168.75 1.87955e-07 0)
(4246.35 2.98105e-08 0)
(2180.05 -9.43084e-09 0)
(-1460.17 7.65448e-09 0)
(-2746.23 1.27413e-08 0)
(-2731.39 6.60482e-09 0)
(-2038.6 -2.49659e-08 0)
(-1373.73 -3.57048e-08 0)
(-1064.58 -3.42352e-09 0)
(-988.311 8.88178e-09 0)
(-931.923 -1.73599e-08 0)
(-779.33 -1.48972e-08 0)
(-535.073 -2.12436e-08 0)
(-324.305 -2.27616e-08 0)
(-207.759 -1.24587e-08 0)
(-158.861 -3.39123e-10 0)
(-135.718 7.42033e-09 0)
(-117.971 3.42352e-09 0)
(-99.5615 4.66697e-09 0)
(-80.4819 8.25198e-09 0)
(-63.3086 1.39363e-08 0)
(-48.3815 1.82965e-08 0)
(-35.4661 1.62052e-08 0)
(-24.4729 1.47599e-08 0)
(-15.1123 1.62456e-08 0)
(-6.07997 1.37264e-08 0)
(4.75981 7.52529e-09 0)
(22.0309 5.5713e-09 0)
(41.3119 6.05576e-09 0)
(69.4386 2.08076e-08 0)
(94.8607 4.56847e-08 0)
(125.758 5.31615e-08 0)
(145.905 5.41627e-08 0)
(197.33 4.08401e-08 0)
(240.137 7.17164e-08 0)
(371.447 9.66338e-08 0)
(1758.41 3.08844e-08 0)
(17668.8 -2.78549e-07 0)
(-11359 -1.06213e-06 0)
(-10944.8 -5465.54 0)
(-1580.18 -1469.9 0)
(4290.98 -590.131 0)
(1732.28 -1072.7 0)
(-1680.59 -1149.83 0)
(-2697.41 -799.982 0)
(-2646.75 -350.305 0)
(-2008.58 -116.475 0)
(-1366.14 -47.6285 0)
(-1061.84 -18.0114 0)
(-989.066 -9.99383 0)
(-931.83 -24.9351 0)
(-777.164 -8.88071 0)
(-534.341 -1.49144 0)
(-324.118 1.23847 0)
(-207.759 1.65391 0)
(-158.899 1.39372 0)
(-135.727 1.25992 0)
(-117.958 1.30198 0)
(-99.5418 1.41597 0)
(-80.4649 1.52906 0)
(-63.2963 1.60258 0)
(-48.3717 1.64193 0)
(-35.4563 1.66981 0)
(-24.4611 1.69953 0)
(-15.0984 1.746 0)
(-6.0645 1.80021 0)
(4.77291 1.88216 0)
(22.0346 1.92981 0)
(41.3021 1.92419 0)
(69.3891 1.88516 0)
(94.7935 1.49169 0)
(125.63 1.36041 0)
(145.771 0.556502 0)
(196.852 1.37862 0)
(239.244 -2.21439 0)
(369.751 -1.62842 0)
(1764.95 -9.10416 0)
(17702.9 57.5486 0)
(-11374.2 348.327 0)
(-10979 -8701.95 0)
(-750.451 -2335.99 0)
(4361.9 -2080.64 0)
(2017.23 -3019.8 0)
(-1380.83 -2153.83 0)
(-2513.64 -1241.32 0)
(-2532.56 -566.279 0)
(-1950.55 -248.345 0)
(-1345.09 -114.472 0)
(-1053.64 -52.8359 0)
(-990.325 -38.3322 0)
(-931.599 -50.7115 0)
(-772.51 -26.4273 0)
(-532.129 -7.06876 0)
(-323.39 1.3823 0)
(-207.714 2.90466 0)
(-158.976 2.53583 0)
(-135.745 2.33989 0)
(-117.926 2.5093 0)
(-99.4954 2.82585 0)
(-80.4276 3.11332 0)
(-63.2758 3.28425 0)
(-48.3619 3.35395 0)
(-35.4494 3.3795 0)
(-24.4507 3.39523 0)
(-15.083 3.43639 0)
(-6.04036 3.49744 0)
(4.79751 3.61632 0)
(22.0432 3.65322 0)
(41.2989 3.58716 0)
(69.3128 3.4566 0)
(94.708 2.63737 0)
(125.486 2.47294 0)
(145.911 0.714693 0)
(196.524 3.5038 0)
(239.262 -2.02632 0)
(369.443 5.33922 0)
(1775.62 -13.5745 0)
(17772.8 78.9142 0)
(-11400.4 1690.77 0)
(4788.19 -2582.64 0)
(1613.81 -774.77 0)
(3780.04 -1759.85 0)
(1356.9 -3195.92 0)
(-911.595 -2569.72 0)
(-1914.07 -1707.5 0)
(-2155.91 -882.324 0)
(-1792.26 -447.984 0)
(-1267.84 -208.028 0)
(-1023.57 -114.87 0)
(-986.277 -89.206 0)
(-924.628 -83.2554 0)
(-755.169 -49.8236 0)
(-519.453 -15.1534 0)
(-318.705 0.722176 0)
(-207.087 3.81334 0)
(-159.165 3.422 0)
(-135.722 3.2075 0)
(-117.69 3.59834 0)
(-99.2166 4.22548 0)
(-80.2203 4.77425 0)
(-63.1692 5.10162 0)
(-48.3234 5.24238 0)
(-35.4385 5.30441 0)
(-24.4374 5.3465 0)
(-15.0522 5.42327 0)
(-5.97954 5.55477 0)
(4.84219 5.7692 0)
(22.0065 5.83142 0)
(41.1825 5.73397 0)
(68.8815 5.41912 0)
(94.2753 4.07727 0)
(124.59 3.58861 0)
(146.256 0.825097 0)
(195.512 4.14048 0)
(240.374 -2.34418 0)
(362.864 6.26305 0)
(1798.75 -29.7436 0)
(18691.1 15.0493 0)
(-12574 277.782 0)
(4696.83 3288.15 0)
(-1225.37 -603.599 0)
(2340.81 -2381.66 0)
(1590.89 -2686.97 0)
(-198.15 -2369.7 0)
(-1209.11 -1759.59 0)
(-1520.81 -1137.39 0)
(-1385.65 -616.196 0)
(-1065.51 -307.575 0)
(-955.256 -187.472 0)
(-962.031 -148.971 0)
(-897.388 -117.598 0)
(-716.183 -70.2366 0)
(-490.219 -23.222 0)
(-307.625 -0.74063 0)
(-205.449 4.42531 0)
(-159.459 4.49717 0)
(-135.588 4.46986 0)
(-117.072 5.16966 0)
(-98.5117 6.15158 0)
(-79.6945 6.99613 0)
(-62.8818 7.51308 0)
(-48.1871 7.76509 0)
(-35.3549 7.92082 0)
(-24.3433 8.06423 0)
(-14.8988 8.25358 0)
(-5.73962 8.55452 0)
(5.04015 9.00899 0)
(22.0289 9.20173 0)
(40.964 9.17929 0)
(67.9476 8.76574 0)
(93.1761 6.88028 0)
(122.833 6.0428 0)
(146.257 2.94245 0)
(194.012 5.89193 0)
(240.712 -0.835806 0)
(346.567 3.9994 0)
(1771.69 -36.3031 0)
(17576.8 -45.4458 0)
(-11212.2 -1617.46 0)
(4320.14 2960.19 0)
(-3849.83 -937.09 0)
(1772.43 -1333.67 0)
(1368.42 -1767.29 0)
(-17.9357 -1899.65 0)
(-726.573 -1540.93 0)
(-1054.1 -1115.66 0)
(-992.625 -642.038 0)
(-854.707 -372.346 0)
(-870.733 -251.303 0)
(-918.945 -204.502 0)
(-848.756 -148.3 0)
(-664.225 -86.044 0)
(-452.484 -31.0051 0)
(-292.063 -3.9219 0)
(-202.039 3.67546 0)
(-159.122 4.79045 0)
(-135.074 5.29739 0)
(-116.069 6.43137 0)
(-97.4566 7.78425 0)
(-78.9083 8.92593 0)
(-62.4282 9.6505 0)
(-47.9305 10.0576 0)
(-35.1502 10.3763 0)
(-24.1168 10.7171 0)
(-14.5797 11.1232 0)
(-5.2516 11.6209 0)
(5.46586 12.4641 0)
(22.1706 12.9095 0)
(40.7624 13.0248 0)
(66.6661 12.5908 0)
(91.6514 10.26 0)
(120.796 9.25589 0)
(146.111 6.02654 0)
(191.872 8.38311 0)
(238.55 1.31384 0)
(328.687 0.551486 0)
(1751.1 -28.8988 0)
(17167.4 -3.37112 0)
(-10895.4 -782.459 0)
(3915.04 1724.58 0)
(-5363.09 -786.608 0)
(1540.79 -680.677 0)
(1045.48 -1370.38 0)
(19.9833 -1480.41 0)
(-453.628 -1307.43 0)
(-654.606 -959.7 0)
(-669.363 -595.322 0)
(-688.982 -392.668 0)
(-793.516 -298.999 0)
(-862.774 -242.664 0)
(-783.237 -169.471 0)
(-603.154 -93.6856 0)
(-411.083 -35.9351 0)
(-274.205 -7.2587 0)
(-197.053 1.87972 0)
(-157.896 4.12949 0)
(-134.006 5.36407 0)
(-114.675 6.9748 0)
(-96.1079 8.64063 0)
(-77.8961 10.0193 0)
(-61.7913 10.9388 0)
(-47.4877 11.5433 0)
(-34.7194 12.1052 0)
(-23.6235 12.7414 0)
(-14.0279 13.4718 0)
(-4.44749 14.2249 0)
(6.28191 15.532 0)
(22.5692 16.3049 0)
(40.6568 16.5775 0)
(65.2833 16.1326 0)
(89.9625 13.5833 0)
(118.753 12.3646 0)
(145.416 9.06816 0)
(189.471 10.1142 0)
(233.165 3.80464 0)
(317.453 -3.43519 0)
(1767.91 -15.3569 0)
(16850.6 16.979 0)
(-10678.3 -715.449 0)
(3835.73 1203.73 0)
(-6167.62 -415.802 0)
(1209.89 -400.177 0)
(597.775 -1146.15 0)
(42.7201 -1133.53 0)
(-224.801 -1008.34 0)
(-367.883 -752.985 0)
(-446.212 -525.251 0)
(-569.159 -385.847 0)
(-726.185 -324.691 0)
(-794.127 -259.77 0)
(-705.195 -176.665 0)
(-535.545 -93.4689 0)
(-369.2 -36.9269 0)
(-255.623 -9.06913 0)
(-191.065 0.601477 0)
(-155.764 3.55699 0)
(-132.332 5.4703 0)
(-112.912 7.47448 0)
(-94.5228 9.35975 0)
(-76.6937 10.9017 0)
(-60.9596 11.9998 0)
(-46.8065 12.8471 0)
(-33.9957 13.7374 0)
(-22.7999 14.7648 0)
(-13.1502 15.9023 0)
(-3.26629 17.0643 0)
(7.47023 18.9536 0)
(23.1781 20.1137 0)
(40.5963 20.6378 0)
(63.7807 20.3269 0)
(88.0205 17.8302 0)
(116.445 16.569 0)
(143.942 13.4724 0)
(186.799 13.78 0)
(225.493 9.26182 0)
(310.222 -0.30752 0)
(1770.78 0.107826 0)
(16492.8 16.6377 0)
(-10375.7 -776.762 0)
(3873.04 1041.43 0)
(-6908.67 -282.615 0)
(836.999 -461.028 0)
(338.796 -895.838 0)
(152.786 -776.126 0)
(-86.9183 -721.008 0)
(-189.085 -571.413 0)
(-315.574 -455.234 0)
(-495.716 -380.269 0)
(-672.023 -338.409 0)
(-720.13 -264.692 0)
(-622.984 -172.96 0)
(-468.497 -89.374 0)
(-329.752 -36.2281 0)
(-238.041 -10.4181 0)
(-184.886 -0.609949 0)
(-153.204 3.08869 0)
(-130.231 5.70357 0)
(-110.927 8.07939 0)
(-92.8053 10.1503 0)
(-75.3521 11.8205 0)
(-59.9166 13.079 0)
(-45.8133 14.1598 0)
(-32.8714 15.3565 0)
(-21.5374 16.7152 0)
(-11.812 18.1665 0)
(-1.50712 19.6354 0)
(9.22039 21.9023 0)
(24.1922 23.1874 0)
(40.8623 23.6413 0)
(62.5778 23.0948 0)
(86.3413 20.3069 0)
(114.554 18.5822 0)
(142.728 15.2282 0)
(185.413 14.7942 0)
(219.59 11.1352 0)
(308.632 0.717537 0)
(1784.24 8.48831 0)
(16102 10.1373 0)
(-10040.3 -853.908 0)
(3827.35 916.181 0)
(-7615.45 -225.185 0)
(618.964 -476.263 0)
(294.136 -576.097 0)
(211.192 -533.733 0)
(-27.5318 -518.825 0)
(-111.773 -451.148 0)
(-262.018 -403.998 0)
(-456.583 -378.375 0)
(-614.81 -338.543 0)
(-634.694 -254.495 0)
(-536.252 -157.555 0)
(-403.785 -78.4365 0)
(-293.116 -31.0266 0)
(-221.3 -8.40718 0)
(-178.05 0.8429 0)
(-149.68 5.50271 0)
(-127.523 8.62895 0)
(-108.627 11.2569 0)
(-90.9177 13.3903 0)
(-73.8715 15.1241 0)
(-58.7053 16.5306 0)
(-44.6118 17.8556 0)
(-31.5332 19.3618 0)
(-20.0921 21.0268 0)
(-10.3362 22.7308 0)
(0.33368 24.4621 0)
(10.8931 27.0602 0)
(24.8539 28.3542 0)
(40.507 28.5824 0)
(60.5676 27.594 0)
(83.672 24.27 0)
(111.551 21.7668 0)
(140.292 17.7547 0)
(182.855 16.4902 0)
(211.929 12.5907 0)
(307.671 3.54346 0)
(1779.85 12.9227 0)
(15661.8 -4.3635 0)
(-9646.39 -971.967 0)
(3864.8 799.41 0)
(-8250.48 -183.332 0)
(498.848 -383.137 0)
(283.416 -376.149 0)
(207.975 -383.816 0)
(-7.33634 -395.025 0)
(-78.4327 -377.586 0)
(-245.448 -371.368 0)
(-432.641 -367.358 0)
(-552.648 -319.236 0)
(-545.724 -229.411 0)
(-453.327 -135.747 0)
(-346.57 -65.6229 0)
(-262.269 -24.8326 0)
(-207.331 -5.41195 0)
(-171.482 3.97782 0)
(-145.701 9.74003 0)
(-124.687 13.612 0)
(-106.339 16.5816 0)
(-89.0787 18.8158 0)
(-72.326 20.6291 0)
(-57.2844 22.1719 0)
(-43.085 23.659 0)
(-29.8155 25.2931 0)
(-18.2909 27.0243 0)
(-8.50165 28.6946 0)
(2.66477 30.3657 0)
(12.9709 32.9615 0)
(25.6591 33.8561 0)
(40.1297 33.5284 0)
(58.4222 31.7582 0)
(80.726 27.5955 0)
(108.276 24.0024 0)
(137.644 19.2625 0)
(180.437 16.9772 0)
(207.114 12.7761 0)
(308.952 5.968 0)
(1776.62 15.0536 0)
(15152.9 -16.0019 0)
(-9194.6 -1076.08 0)
(3984.68 557.236 0)
(-8754.99 -138.184 0)
(433.159 -301.049 0)
(293.481 -275.904 0)
(193.002 -297.745 0)
(-21.5282 -322.056 0)
(-88.9763 -339.56 0)
(-252.162 -357.063 0)
(-406.346 -351.297 0)
(-481.88 -289.422 0)
(-457.878 -197.355 0)
(-378.42 -111.301 0)
(-296.904 -50.6547 0)
(-235.094 -15.1873 0)
(-193.538 4.11374 0)
(-163.449 15.1325 0)
(-140.396 21.685 0)
(-120.93 26.4731 0)
(-103.612 29.9235 0)
(-87.0174 32.3685 0)
(-70.6375 34.2744 0)
(-55.7856 35.819 0)
(-41.6041 37.1437 0)
(-28.2903 38.401 0)
(-16.8143 39.5949 0)
(-7.11637 40.7179 0)
(4.44545 41.6102 0)
(14.2566 43.2606 0)
(25.4001 42.9051 0)
(38.4854 41.2432 0)
(54.8505 37.9897 0)
(76.1981 32.3113 0)
(103.521 26.9628 0)
(133.523 20.8286 0)
(176.605 17.3121 0)
(201.32 12.347 0)
(309.866 6.55341 0)
(1758.68 13.3911 0)
(14610.3 -36.4168 0)
(-8705.63 -1173.16 0)
(4095.59 411.762 0)
(-9077.55 -80.9272 0)
(366.136 -206.386 0)
(286.6 -204.744 0)
(163.502 -253.352 0)
(-47.6309 -284.017 0)
(-112.167 -316.502 0)
(-256.758 -333.81 0)
(-367.46 -313.537 0)
(-404.304 -242.96 0)
(-374.079 -156.18 0)
(-311.961 -81.6714 0)
(-253.952 -30.9718 0)
(-209.492 -0.656404 0)
(-178.114 18.5584 0)
(-154.55 29.951 0)
(-134.773 37.4083 0)
(-116.748 42.8712 0)
(-100.658 46.7451 0)
(-84.886 49.4184 0)
(-69.001 51.4544 0)
(-54.5194 53.003 0)
(-40.5969 54.1274 0)
(-27.4535 55.0077 0)
(-16.0582 55.7033 0)
(-6.55959 56.4307 0)
(5.115 56.6385 0)
(14.2188 57.3278 0)
(23.7151 55.8631 0)
(35.3931 52.9985 0)
(49.8151 48.4381 0)
(70.1001 41.4151 0)
(97.2106 34.3784 0)
(128.344 26.7284 0)
(172.264 22.0406 0)
(196.746 16.6826 0)
(309.958 11.7797 0)
(1735.21 14.7927 0)
(14009.5 -47.7265 0)
(-8159.42 -1243.99 0)
(4318.14 54.2879 0)
(-9350.66 -46.9192 0)
(313.844 -130.024 0)
(248.224 -158.552 0)
(116.612 -227.752 0)
(-82.3824 -258.672 0)
(-136.959 -293.942 0)
(-249.305 -298.369 0)
(-318.799 -262.897 0)
(-330.245 -189.767 0)
(-302.454 -112.608 0)
(-257.765 -48.9885 0)
(-218.834 -5.75793 0)
(-187.365 21.9486 0)
(-164.043 38.8861 0)
(-145.284 50.8466 0)
(-127.946 59.8694 0)
(-111.933 66.4898 0)
(-97.3032 71.1947 0)
(-82.4792 74.334 0)
(-67.1832 76.4346 0)
(-53.2099 77.6069 0)
(-39.6722 77.985 0)
(-26.7717 77.9344 0)
(-15.4431 77.5506 0)
(-6.21518 77.249 0)
(5.30996 76.3238 0)
(13.5094 75.593 0)
(21.2282 72.7802 0)
(31.3304 68.3711 0)
(43.6883 62.1408 0)
(62.6498 53.4067 0)
(89.3681 44.3839 0)
(121.633 35.0021 0)
(166.924 28.9297 0)
(191.432 23.0313 0)
(308.045 18.1403 0)
(1701.34 19.2474 0)
(13397.3 -57.1756 0)
(-7616.28 -1357.34 0)
(4133.85 -256.747 0)
(-9255.16 -25.4284 0)
(258.563 -86.4883 0)
(192.426 -137.002 0)
(67.0234 -215.592 0)
(-111.414 -235.059 0)
(-150.421 -258.635 0)
(-226.842 -244.555 0)
(-262.807 -199.943 0)
(-259.48 -132.055 0)
(-238.42 -66.4418 0)
(-208.997 -13.6654 0)
(-185.594 22.7901 0)
(-166.472 46.536 0)
(-150.266 62.1319 0)
(-134.33 73.802 0)
(-119.698 82.4799 0)
(-105.834 88.9707 0)
(-93.0991 93.7008 0)
(-79.8366 96.9604 0)
(-65.8471 99.1998 0)
(-53.0254 100.455 0)
(-40.2812 100.868 0)
(-27.8721 100.83 0)
(-16.7187 100.392 0)
(-7.74179 100.065 0)
(3.51916 98.9644 0)
(10.804 97.7679 0)
(16.7558 94.3808 0)
(25.1406 89.3479 0)
(35.3948 82.3389 0)
(52.989 72.8201 0)
(79.4752 62.7024 0)
(113.452 52.7107 0)
(160.728 46.4396 0)
(186.349 40.9576 0)
(306.312 36.3061 0)
(1662.63 35.3543 0)
(12683 -57.3342 0)
(-6971.14 -1373.14 0)
(4114.23 -576.967 0)
(-9186.59 -1.16222 0)
(206.327 -36.7926 0)
(123.815 -96.998 0)
(22.1209 -183.231 0)
(-123.861 -192.942 0)
(-146.109 -204.541 0)
(-192.747 -176.816 0)
(-210.391 -127.507 0)
(-201.598 -68.3556 0)
(-188.37 -12.9222 0)
(-171.778 27.4483 0)
(-160.822 55.8219 0)
(-149.454 76.2934 0)
(-137.769 91.5837 0)
(-125.676 102.628 0)
(-113.329 110.97 0)
(-101.12 117.44 0)
(-89.604 122.42 0)
(-77.1802 125.874 0)
(-63.816 127.844 0)
(-51.6024 128.397 0)
(-39.3104 128.124 0)
(-27.2301 127.693 0)
(-16.1807 127.122 0)
(-7.59102 126.98 0)
(3.09669 125.69 0)
(9.09251 124.145 0)
(13.1143 120.538 0)
(19.7264 115.675 0)
(27.7615 108.826 0)
(43.7273 99.6906 0)
(69.9899 89.82 0)
(105.962 80.3511 0)
(155.599 75.4482 0)
(181.667 71.3938 0)
(302.645 66.6377 0)
(1611.1 67.5875 0)
(12040 -46.2309 0)
(-6468.62 -1423.85 0)
(3683.41 -817.354 0)
(-8734.63 30.9956 0)
(166.212 8.34403 0)
(51.3128 -50.4074 0)
(-25.4317 -136.957 0)
(-131.95 -136.564 0)
(-134.882 -133.963 0)
(-152.609 -97.8505 0)
(-158.291 -47.9185 0)
(-149.061 0.902845 0)
(-146.1 39.2576 0)
(-142.753 69.987 0)
(-138.525 92.3516 0)
(-132.01 110.209 0)
(-124.889 122.8 0)
(-115.649 131.792 0)
(-105.425 137.778 0)
(-94.8003 141.768 0)
(-84.9723 144.545 0)
(-74.6099 146.773 0)
(-63.4157 149.182 0)
(-52.7559 151.483 0)
(-40.9594 153.248 0)
(-28.8368 154.463 0)
(-17.406 154.988 0)
(-9.12194 155.523 0)
(0.787233 154.406 0)
(5.83878 153.282 0)
(8.59403 150.33 0)
(13.8546 146.641 0)
(19.9916 140.861 0)
(34.6743 133.339 0)
(60.839 125.298 0)
(99.6025 118.405 0)
(152.097 117.79 0)
(177.859 119.568 0)
(302.644 119.435 0)
(1553.87 127.436 0)
(11245.8 4.88609 0)
(-5842.62 -1296.67 0)
(3498.6 -678.766 0)
(-8390.92 106.416 0)
(127.884 74.2417 0)
(-16.2022 23.8904 0)
(-60.9024 -41.5834 0)
(-120.976 -30.1494 0)
(-108.804 -15.3678 0)
(-109.831 16.9059 0)
(-115.229 54.2409 0)
(-117.592 87.9952 0)
(-121.798 112.658 0)
(-120.614 134.95 0)
(-122.063 151.845 0)
(-120.113 166.054 0)
(-116.97 176.781 0)
(-111.242 184.918 0)
(-103.716 190.816 0)
(-94.599 195.391 0)
(-84.781 199.091 0)
(-72.7124 201.903 0)
(-59.2777 203.895 0)
(-47.6843 204.77 0)
(-36.4389 204.867 0)
(-25.553 204.801 0)
(-15.1593 204.221 0)
(-8.15187 204.089 0)
(0.937628 202.46 0)
(5.16492 201.24 0)
(6.71465 198.401 0)
(10.6019 195.165 0)
(14.9435 190.143 0)
(28.7299 183.865 0)
(55.5985 177.327 0)
(98.7272 172.809 0)
(156.719 175.57 0)
(183.251 183.439 0)
(310.227 188.069 0)
(1500.72 208.987 0)
(10667.7 77.038 0)
(-5621.32 -954.802 0)
(3494.35 -197.313 0)
(-8009.01 215.403 0)
(86.6868 151.265 0)
(-60.3005 107.612 0)
(-77.5064 59.7991 0)
(-106.687 68.8074 0)
(-89.5373 87.6481 0)
(-85.532 109.635 0)
(-89.7868 134.91 0)
(-92.7689 155.33 0)
(-100.853 173.408 0)
(-104.99 189.567 0)
(-108.552 202.335 0)
(-107.981 216.926 0)
(-106.711 229.686 0)
(-102.124 241.24 0)
(-95.3325 249.55 0)
(-86.8263 253.243 0)
(-78.6974 252.802 0)
(-69.9797 251.471 0)
(-60.653 253.643 0)
(-51.82 258.633 0)
(-40.9299 261.691 0)
(-29.4588 260.121 0)
(-18.0916 254.372 0)
(-10.8189 249.108 0)
(-1.95838 242.084 0)
(1.92696 237.198 0)
(2.73949 231.301 0)
(5.89699 227.199 0)
(9.10306 222.39 0)
(22.3244 217.149 0)
(50.1846 210.845 0)
(97.9099 206.312 0)
(162.341 207.971 0)
(189.903 217.91 0)
(327.263 219.593 0)
(1446.88 240.574 0)
(10124.3 123.197 0)
(-5612.81 -416.247 0)
(4069.4 723.863 0)
(-8055.02 383.308 0)
(24.0134 299.902 0)
(-104.342 252.258 0)
(-98.2961 206.393 0)
(-94.14 209.525 0)
(-69.4608 228.328 0)
(-64.288 244.32 0)
(-71.195 266.671 0)
(-80.4937 280.447 0)
(-88.806 291.931 0)
(-92.7396 301.788 0)
(-95.6983 308.066 0)
(-93.7559 315.21 0)
(-93.5411 321.13 0)
(-92.1012 329.853 0)
(-92.1493 341.826 0)
(-91.4649 356.939 0)
(-86.4887 372.432 0)
(-71.9016 381.991 0)
(-52.3759 384.137 0)
(-39.9291 378.958 0)
(-35.0049 367.593 0)
(-32.6058 358.489 0)
(-25.7713 351.565 0)
(-19.9931 351.431 0)
(-10.54 352.143 0)
(-5.22604 352.506 0)
(-2.92076 352.563 0)
(2.01472 352.928 0)
(5.25971 353.118 0)
(17.6048 351.976 0)
(45.1548 347.871 0)
(95.9576 346.91 0)
(167.896 350.718 0)
(194.451 373.649 0)
(332.067 384.806 0)
(1407.83 389.418 0)
(10034.8 220.846 0)
(-6100.44 389.5 0)
(5372.24 41383.7 0)
(-8417.55 3941.53 0)
(-39.5969 2045.45 0)
(-150.41 1927.68 0)
(-118.686 1978.71 0)
(-85.5493 2014.69 0)
(-56.0075 2074.65 0)
(-48.584 2101.07 0)
(-54.973 2134.83 0)
(-68.4273 2145.98 0)
(-80.288 2148.81 0)
(-89.4414 2140.44 0)
(-95.6176 2119.22 0)
(-95.3927 2088.57 0)
(-92.6009 2044.42 0)
(-82.1811 1994.33 0)
(-69.231 1937.28 0)
(-57.3331 1882.98 0)
(-54.5565 1853.89 0)
(-58.6997 1829 0)
(-63.5756 1832.12 0)
(-67.7631 1866.84 0)
(-60.6552 1876.95 0)
(-44.9038 1925.74 0)
(-24.8922 1939.56 0)
(-10.2618 1968.86 0)
(-0.922542 1974.5 0)
(2.33129 1982.52 0)
(3.14577 1973.2 0)
(6.43258 1958.52 0)
(8.18585 1930.5 0)
(17.2682 1893.5 0)
(45.3023 1842.66 0)
(100.653 1779.55 0)
(188.108 1717.99 0)
(222.751 1664.79 0)
(342.458 1650.82 0)
(1288.88 1525.27 0)
(10124.4 3370.16 0)
(-7211.57 37056.2 0)
(44258.3 662010 0)
(-45962.8 50574 0)
(-1916.6 14770.3 0)
(-168.658 14462.7 0)
(-14.453 14859.5 0)
(-1.6883 15492.7 0)
(13.7788 16182.2 0)
(-6.29867 16811.6 0)
(-27.9132 17311.8 0)
(-67.0151 17757.1 0)
(-94.1451 18092.8 0)
(-121.258 18333.8 0)
(-145.685 18526.6 0)
(-165.83 18635.4 0)
(-184.353 18697.7 0)
(-195.351 18708.3 0)
(-199.451 18684.7 0)
(-171.823 18609.9 0)
(-138.508 18538.3 0)
(-92.8799 18419.7 0)
(-15.9099 18337.8 0)
(3.27289 18243.7 0)
(21.7572 18085.7 0)
(27.7316 17794.8 0)
(15.7805 17422.5 0)
(13.6738 17004.9 0)
(2.62314 16549.2 0)
(-6.47811 16006.5 0)
(-26.048 15436.6 0)
(-39.1352 14788.7 0)
(-57.3997 14120.1 0)
(-67.0404 13332.4 0)
(-64.6491 12594.3 0)
(-24.1747 11655 0)
(57.3113 10933.9 0)
(129.715 10176.7 0)
(197.614 10031.2 0)
(3064.65 9980.94 0)
(44273.6 43842.9 0)
(-42361.6 594491 0)
(685711 -710591 0)
(-632121 -47487.2 0)
(-34837.8 -13359.4 0)
(-64.4745 -12255.8 0)
(873.862 -12233.2 0)
(1189.14 -12520.2 0)
(1215.02 -12992.3 0)
(1039.89 -13433.6 0)
(856.139 -13740.8 0)
(684.184 -14003.4 0)
(475.382 -14123.8 0)
(328.556 -14141.3 0)
(195.061 -14094.2 0)
(69.5536 -13951.3 0)
(-22.3939 -13751.9 0)
(-94.7696 -13507 0)
(-164.065 -13252 0)
(-198.419 -12978.7 0)
(-237.815 -12766 0)
(-251.882 -12533.8 0)
(-233.177 -12373.5 0)
(-310.691 -12217.9 0)
(-493.256 -12015.4 0)
(-683.992 -11711.9 0)
(-786.019 -11356 0)
(-851.773 -10997.9 0)
(-963.02 -10603.7 0)
(-1069.88 -10128.9 0)
(-1170.41 -9625.93 0)
(-1262.11 -9047.68 0)
(-1395.14 -8457.83 0)
(-1453.05 -7739.88 0)
(-1571.14 -7129.33 0)
(-1499.39 -6336.64 0)
(-1236.37 -5949.83 0)
(-647.166 -5728.69 0)
(153.785 -6206.46 0)
(33871.1 -7119.78 0)
(573380 -41656.6 0)
(-616317 -641838 0)
(685711 710591 0)
(-632121 47487.2 0)
(-34837.8 13359.4 0)
(-64.4745 12255.8 0)
(873.862 12233.2 0)
(1189.14 12520.2 0)
(1215.02 12992.3 0)
(1039.89 13433.6 0)
(856.139 13740.8 0)
(684.184 14003.4 0)
(475.382 14123.8 0)
(328.556 14141.3 0)
(195.061 14094.2 0)
(69.5536 13951.3 0)
(-22.3939 13751.9 0)
(-94.7696 13507 0)
(-164.065 13252 0)
(-198.419 12978.7 0)
(-237.815 12766 0)
(-251.882 12533.8 0)
(-233.177 12373.5 0)
(-310.691 12217.9 0)
(-493.256 12015.4 0)
(-683.992 11711.9 0)
(-786.019 11356 0)
(-851.773 10997.9 0)
(-963.02 10603.7 0)
(-1069.88 10128.9 0)
(-1170.41 9625.93 0)
(-1262.11 9047.68 0)
(-1395.14 8457.83 0)
(-1453.05 7739.88 0)
(-1571.14 7129.33 0)
(-1499.39 6336.64 0)
(-1236.37 5949.83 0)
(-647.166 5728.69 0)
(153.785 6206.46 0)
(33871.1 7119.78 0)
(573380 41656.6 0)
(-616317 641838 0)
(44258.3 -662010 0)
(-45962.8 -50574 0)
(-1916.6 -14770.3 0)
(-168.658 -14462.7 0)
(-14.453 -14859.5 0)
(-1.6883 -15492.7 0)
(13.7788 -16182.2 0)
(-6.29867 -16811.6 0)
(-27.9132 -17311.8 0)
(-67.0151 -17757.1 0)
(-94.1451 -18092.8 0)
(-121.258 -18333.8 0)
(-145.685 -18526.6 0)
(-165.83 -18635.4 0)
(-184.353 -18697.7 0)
(-195.351 -18708.3 0)
(-199.451 -18684.7 0)
(-171.823 -18609.9 0)
(-138.508 -18538.3 0)
(-92.8799 -18419.7 0)
(-15.9099 -18337.8 0)
(3.27289 -18243.7 0)
(21.7572 -18085.7 0)
(27.7316 -17794.8 0)
(15.7805 -17422.5 0)
(13.6738 -17004.9 0)
(2.62314 -16549.2 0)
(-6.47811 -16006.5 0)
(-26.048 -15436.6 0)
(-39.1352 -14788.7 0)
(-57.3997 -14120.1 0)
(-67.0404 -13332.4 0)
(-64.6491 -12594.3 0)
(-24.1747 -11655 0)
(57.3113 -10933.9 0)
(129.715 -10176.7 0)
(197.614 -10031.2 0)
(3064.65 -9980.94 0)
(44273.6 -43842.9 0)
(-42361.6 -594491 0)
(5372.24 -41383.7 0)
(-8417.55 -3941.53 0)
(-39.5969 -2045.45 0)
(-150.41 -1927.68 0)
(-118.686 -1978.71 0)
(-85.5493 -2014.69 0)
(-56.0075 -2074.65 0)
(-48.584 -2101.07 0)
(-54.973 -2134.83 0)
(-68.4273 -2145.98 0)
(-80.288 -2148.81 0)
(-89.4414 -2140.44 0)
(-95.6176 -2119.22 0)
(-95.3927 -2088.57 0)
(-92.6009 -2044.42 0)
(-82.1811 -1994.33 0)
(-69.231 -1937.28 0)
(-57.3331 -1882.98 0)
(-54.5565 -1853.89 0)
(-58.6997 -1829 0)
(-63.5756 -1832.12 0)
(-67.7631 -1866.84 0)
(-60.6552 -1876.95 0)
(-44.9038 -1925.74 0)
(-24.8922 -1939.56 0)
(-10.2618 -1968.86 0)
(-0.922542 -1974.5 0)
(2.33129 -1982.52 0)
(3.14577 -1973.2 0)
(6.43258 -1958.52 0)
(8.18585 -1930.5 0)
(17.2682 -1893.5 0)
(45.3023 -1842.66 0)
(100.653 -1779.55 0)
(188.108 -1717.99 0)
(222.751 -1664.79 0)
(342.458 -1650.82 0)
(1288.88 -1525.27 0)
(10124.4 -3370.16 0)
(-7211.57 -37056.2 0)
(4069.4 -723.863 0)
(-8055.02 -383.308 0)
(24.0134 -299.902 0)
(-104.342 -252.258 0)
(-98.2961 -206.393 0)
(-94.14 -209.525 0)
(-69.4608 -228.328 0)
(-64.288 -244.32 0)
(-71.195 -266.671 0)
(-80.4937 -280.447 0)
(-88.806 -291.931 0)
(-92.7396 -301.788 0)
(-95.6983 -308.066 0)
(-93.7559 -315.21 0)
(-93.5411 -321.13 0)
(-92.1012 -329.853 0)
(-92.1493 -341.826 0)
(-91.4649 -356.939 0)
(-86.4887 -372.432 0)
(-71.9016 -381.991 0)
(-52.3759 -384.137 0)
(-39.9291 -378.958 0)
(-35.0049 -367.593 0)
(-32.6058 -358.489 0)
(-25.7713 -351.565 0)
(-19.9931 -351.431 0)
(-10.54 -352.143 0)
(-5.22604 -352.506 0)
(-2.92076 -352.563 0)
(2.01472 -352.928 0)
(5.25971 -353.118 0)
(17.6048 -351.976 0)
(45.1548 -347.871 0)
(95.9576 -346.91 0)
(167.896 -350.718 0)
(194.451 -373.649 0)
(332.067 -384.806 0)
(1407.83 -389.418 0)
(10034.8 -220.846 0)
(-6100.44 -389.5 0)
(3494.35 197.313 0)
(-8009.01 -215.403 0)
(86.6868 -151.265 0)
(-60.3005 -107.612 0)
(-77.5064 -59.7991 0)
(-106.687 -68.8074 0)
(-89.5373 -87.6481 0)
(-85.532 -109.635 0)
(-89.7868 -134.91 0)
(-92.7689 -155.33 0)
(-100.853 -173.408 0)
(-104.99 -189.567 0)
(-108.552 -202.335 0)
(-107.981 -216.926 0)
(-106.711 -229.686 0)
(-102.124 -241.24 0)
(-95.3325 -249.55 0)
(-86.8263 -253.243 0)
(-78.6974 -252.802 0)
(-69.9797 -251.471 0)
(-60.653 -253.643 0)
(-51.82 -258.633 0)
(-40.9299 -261.691 0)
(-29.4588 -260.121 0)
(-18.0916 -254.372 0)
(-10.8189 -249.108 0)
(-1.95838 -242.084 0)
(1.92696 -237.198 0)
(2.73949 -231.301 0)
(5.89699 -227.199 0)
(9.10306 -222.39 0)
(22.3244 -217.149 0)
(50.1846 -210.845 0)
(97.9099 -206.312 0)
(162.341 -207.971 0)
(189.903 -217.91 0)
(327.263 -219.593 0)
(1446.88 -240.574 0)
(10124.3 -123.197 0)
(-5612.81 416.247 0)
(3498.6 678.766 0)
(-8390.92 -106.416 0)
(127.884 -74.2417 0)
(-16.2022 -23.8904 0)
(-60.9024 41.5834 0)
(-120.976 30.1494 0)
(-108.804 15.3678 0)
(-109.831 -16.9059 0)
(-115.229 -54.2409 0)
(-117.592 -87.9952 0)
(-121.798 -112.658 0)
(-120.614 -134.95 0)
(-122.063 -151.845 0)
(-120.113 -166.054 0)
(-116.97 -176.781 0)
(-111.242 -184.918 0)
(-103.716 -190.816 0)
(-94.599 -195.391 0)
(-84.781 -199.091 0)
(-72.7124 -201.903 0)
(-59.2777 -203.895 0)
(-47.6843 -204.77 0)
(-36.4389 -204.867 0)
(-25.553 -204.801 0)
(-15.1593 -204.221 0)
(-8.15187 -204.089 0)
(0.937628 -202.46 0)
(5.16492 -201.24 0)
(6.71465 -198.401 0)
(10.6019 -195.165 0)
(14.9435 -190.143 0)
(28.7299 -183.865 0)
(55.5985 -177.327 0)
(98.7272 -172.809 0)
(156.719 -175.57 0)
(183.251 -183.439 0)
(310.227 -188.069 0)
(1500.72 -208.987 0)
(10667.7 -77.038 0)
(-5621.32 954.802 0)
(3683.41 817.354 0)
(-8734.63 -30.9956 0)
(166.212 -8.34403 0)
(51.3128 50.4074 0)
(-25.4317 136.957 0)
(-131.95 136.564 0)
(-134.882 133.963 0)
(-152.609 97.8505 0)
(-158.291 47.9185 0)
(-149.061 -0.902845 0)
(-146.1 -39.2576 0)
(-142.753 -69.987 0)
(-138.525 -92.3516 0)
(-132.01 -110.209 0)
(-124.889 -122.8 0)
(-115.649 -131.792 0)
(-105.425 -137.778 0)
(-94.8003 -141.768 0)
(-84.9723 -144.545 0)
(-74.6099 -146.773 0)
(-63.4157 -149.182 0)
(-52.7559 -151.483 0)
(-40.9594 -153.248 0)
(-28.8368 -154.463 0)
(-17.406 -154.988 0)
(-9.12194 -155.523 0)
(0.787233 -154.406 0)
(5.83878 -153.282 0)
(8.59403 -150.33 0)