/*--------------------------------*- C++ -*----------------------------------*\
| =========                 |                                                 |
| \\      /  F ield         | OpenFOAM: The Open Source CFD Toolbox           |
|  \\    /   O peration     | Version:  v1912                                 |
|   \\  /    A nd           | Website:  www.openfoam.com                      |
|    \\/     M anipulation  |                                                 |
\*---------------------------------------------------------------------------*/
FoamFile
{
    version     2.0;
    format      ascii;
    class       volScalarField;
    location    "5.28";
    object      T;
}
// * * * * * * * * * * * * * * * * * * * * * * * * * * * * * * * * * * * * * //

dimensions      [0 0 0 1 0 0 0];


internalField   nonuniform List<scalar> 
1900
(
1.16923
0.929738
0.947998
0.970738
0.979343
0.981456
0.980954
0.979018
0.976865
0.974729
1.16923
0.929733
0.947999
0.970728
0.979335
0.981452
0.980922
0.979207
0.977253
0.974701
1.16923
0.929732
0.948
0.970733
0.979346
0.981466
0.980928
0.979148
0.97709
0.974535
1.16923
0.929733
0.947999
0.970728
0.979335
0.981452
0.980922
0.979207
0.977253
0.974701
1.16923
0.929738
0.947998
0.970738
0.979343
0.981456
0.980954
0.979018
0.976865
0.974729
0.976891
0.970042
0.965614
0.963766
0.993303
0.972376
0.966542
0.962067
0.9586
0.97514
0.971569
0.965778
0.96102
0.958369
0.975532
0.972376
0.966542
0.962067
0.9586
0.97514
0.976891
0.970042
0.965614
0.963766
0.993303
0.828545
0.777932
0.753328
0.71739
0.671587
0.847308
0.787196
0.759825
0.722695
0.680586
0.847219
0.783656
0.755445
0.719616
0.677072
0.847308
0.787196
0.759825
0.722695
0.680586
0.828545
0.777932
0.753328
0.71739
0.671587
0.569884
0.503873
0.538814
0.58782
0.616907
0.609619
0.587075
0.563538
0.547923
0.537148
0.527019
0.516795
0.507274
0.500005
0.495473
0.49273
0.49076
0.489104
0.487649
0.486387
0.485345
0.484516
0.483865
0.483376
0.483022
0.48279
0.482659
0.482645
0.482772
0.483166
0.483746
0.484796
0.485965
0.487718
0.489301
0.492123
0.495613
0.502969
0.475402
0.392544
0.576549
0.500966
0.532645
0.583053
0.617149
0.611541
0.588743
0.564074
0.548102
0.537213
0.52706
0.516899
0.507318
0.500016
0.49547
0.492725
0.490755
0.489099
0.487644
0.486381
0.485339
0.48451
0.483858
0.483369
0.483016
0.482783
0.482652
0.482637
0.482765
0.483158
0.483738
0.484789
0.485958
0.487716
0.489292
0.49213
0.495615
0.50307
0.475859
0.393371
0.576408
0.496186
0.521622
0.575966
0.617372
0.612792
0.589517
0.564269
0.548162
0.537239
0.527073
0.516946
0.507332
0.500018
0.495469
0.492723
0.490754
0.489098
0.487643
0.48638
0.485338
0.484508
0.483856
0.483367
0.483014
0.482781
0.482649
0.482635
0.482762
0.483155
0.483735
0.484787
0.485956
0.487718
0.489295
0.492144
0.495639
0.503165
0.476163
0.393707
0.576549
0.500966
0.532645
0.583053
0.617149
0.611541
0.588743
0.564074
0.548102
0.537213
0.52706
0.516899
0.507318
0.500016
0.49547
0.492725
0.490755
0.489099
0.487644
0.486381
0.485339
0.48451
0.483858
0.483369
0.483016
0.482783
0.482652
0.482637
0.482765
0.483158
0.483738
0.484789
0.485958
0.487716
0.489292
0.49213
0.495615
0.50307
0.475859
0.393371
0.569884
0.503873
0.538814
0.58782
0.616907
0.609619
0.587075
0.563538
0.547923
0.537148
0.527019
0.516795
0.507274
0.500005
0.495473
0.49273
0.49076
0.489104
0.487649
0.486387
0.485345
0.484516
0.483865
0.483376
0.483022
0.48279
0.482659
0.482645
0.482772
0.483166
0.483746
0.484796
0.485965
0.487718
0.489301
0.492123
0.495613
0.502969
0.475402
0.392544
0.55019
0.51765
0.554014
0.591786
0.610173
0.601741
0.582231
0.561414
0.547019
0.536665
0.526618
0.516344
0.506994
0.499912
0.495467
0.492742
0.49077
0.489112
0.487659
0.4864
0.485362
0.484535
0.483884
0.483396
0.483042
0.482811
0.48268
0.482667
0.482794
0.483186
0.483764
0.484805
0.485973
0.487711
0.489322
0.492103
0.495616
0.502634
0.475134
0.396172
0.514685
0.509497
0.545194
0.584313
0.59455
0.585468
0.571224
0.555958
0.544644
0.535231
0.52545
0.515314
0.506349
0.499699
0.495462
0.492778
0.490802
0.489142
0.487695
0.486445
0.485415
0.484592
0.483944
0.483457
0.483104
0.482874
0.482745
0.482735
0.482863
0.483255
0.483828
0.484851
0.48601
0.487719
0.489368
0.492098
0.495608
0.502088
0.475884
0.393023
0.472234
0.51111
0.548659
0.574647
0.576643
0.570516
0.560146
0.549757
0.541276
0.533048
0.523631
0.513913
0.505494
0.499393
0.495436
0.492824
0.490854
0.489195
0.487758
0.486522
0.485503
0.484688
0.484044
0.483559
0.483209
0.482981
0.482857
0.482854
0.482985
0.483377
0.483945
0.484942
0.486091
0.487761
0.48945
0.49211
0.495592
0.501567
0.476914
0.395001
0.452245
0.515863
0.546407
0.560741
0.560985
0.556895
0.550328
0.54397
0.537561
0.530332
0.521336
0.512248
0.504523
0.499026
0.495373
0.492857
0.490907
0.489259
0.487837
0.486618
0.485614
0.484808
0.48417
0.48369
0.483345
0.483123
0.483005
0.483015
0.483153
0.483547
0.48411
0.485079
0.486215
0.487848
0.48956
0.49215
0.495549
0.50132
0.477672
0.39644
0.443667
0.514647
0.54102
0.547174
0.54773
0.545901
0.542331
0.538594
0.533711
0.527159
0.518725
0.510399
0.503511
0.498624
0.495281
0.492872
0.490953
0.489323
0.487922
0.486724
0.485736
0.484942
0.484312
0.48384
0.483504
0.483293
0.483185
0.483212
0.48336
0.483757
0.484315
0.485254
0.486374
0.487967
0.489683
0.49221
0.495479
0.501251
0.47841
0.397365
0.436703
0.509629
0.534769
0.534951
0.538213
0.537777
0.53628
0.533965
0.530041
0.523873
0.516053
0.50857
0.502545
0.498239
0.495184
0.49288
0.490996
0.489391
0.488015
0.486839
0.48587
0.485089
0.48447
0.48401
0.483689
0.483492
0.4834
0.483452
0.483616
0.484021
0.484577
0.485489
0.486595
0.488157
0.489875
0.492366
0.495539
0.501428
0.479068
0.397905
0.429815
0.503337
0.528107
0.527576
0.532144
0.532128
0.531528
0.529775
0.526213
0.520365
0.513301
0.506779
0.501613
0.49785
0.495063
0.492867
0.49103
0.489459
0.488113
0.486961
0.486012
0.485246
0.484641
0.484196
0.48389
0.483711
0.483636
0.483714
0.483891
0.484297
0.484842
0.485717
0.486797
0.488314
0.490018
0.492456
0.495508
0.50166
0.480092
0.398668
0.424431
0.498233
0.523155
0.523348
0.527902
0.527764
0.527558
0.526022
0.522504
0.517018
0.510798
0.505256
0.500874
0.497575
0.495008
0.492905
0.491125
0.489591
0.488274
0.487146
0.486217
0.485469
0.48488
0.484454
0.48417
0.484011
0.483958
0.484068
0.484261
0.48467
0.485203
0.486039
0.487088
0.488558
0.490244
0.492637
0.495635
0.502015
0.480916
0.399389
0.422041
0.494757
0.519373
0.520474
0.524848
0.524377
0.524083
0.522397
0.518832
0.513849
0.508532
0.503912
0.500212
0.497317
0.494949
0.492958
0.49125
0.489766
0.488487
0.487386
0.486479
0.485749
0.485178
0.48477
0.484504
0.484361
0.484323
0.484459
0.484657
0.485055
0.48556
0.486339
0.487338
0.488748
0.490398
0.492734
0.495663
0.502302
0.482019
0.400418
0.421392
0.492505
0.516505
0.51815
0.522133
0.521328
0.520782
0.51887
0.515382
0.51106
0.50667
0.502898
0.499791
0.497248
0.495099
0.49324
0.491607
0.490181
0.488943
0.487872
0.486987
0.486275
0.485717
0.48532
0.485063
0.484929
0.484896
0.485043
0.485227
0.485598
0.486057
0.486764
0.487693
0.489025
0.490632
0.492907
0.495801
0.502599
0.482944
0.401443
0.422298
0.491312
0.514732
0.516451
0.519781
0.518623
0.517709
0.51565
0.512415
0.508809
0.50525
0.502178
0.499549
0.497304
0.495355
0.493617
0.492076
0.490717
0.489527
0.488489
0.48763
0.486938
0.486393
0.486006
0.485755
0.48563
0.485598
0.485749
0.485912
0.486245
0.486646
0.487268
0.488108
0.489345
0.49089
0.493099
0.495935
0.502864
0.484077
0.40288
0.421936
0.490549
0.5134
0.514908
0.517479
0.516048
0.514818
0.512786
0.509958
0.507101
0.504296
0.501856
0.499669
0.497726
0.495948
0.494355
0.492925
0.49165
0.490522
0.489525
0.488692
0.48801
0.487463
0.487066
0.486801
0.486662
0.486608
0.486738
0.486859
0.48713
0.487449
0.487959
0.488685
0.489805
0.491274
0.493409
0.496201
0.503234
0.485306
0.404229
0.423492
0.490266
0.512516
0.513593
0.515323
0.5138
0.512426
0.510626
0.508265
0.506042
0.503845
0.501888
0.500042
0.498314
0.496709
0.495232
0.493889
0.49268
0.491601
0.490641
0.489837
0.489178
0.488646
0.48826
0.488001
0.487868
0.48781
0.487935
0.488023
0.488243
0.488487
0.488894
0.489507
0.490518
0.491919
0.493995
0.49673
0.503801
0.486741
0.406593
0.42381
0.490562
0.512283
0.51287
0.513658
0.512075
0.510619
0.509133
0.5073
0.505667
0.504027
0.502447
0.500872
0.499377
0.49794
0.496596
0.495358
0.494235
0.493225
0.492312
0.491529
0.490864
0.490316
0.489913
0.489636
0.489495
0.489411
0.489508
0.489549
0.489711
0.489877
0.490181
0.490684
0.491588
0.492941
0.49497
0.497648
0.504844
0.488902
0.408906
0.42601
0.49156
0.512332
0.51241
0.512393
0.510962
0.509648
0.508574
0.50725
0.506052
0.504666
0.503366
0.502003
0.500668
0.499345
0.498073
0.496869
0.495754
0.49474
0.493834
0.493092
0.492493
0.49201
0.491658
0.491413
0.491294
0.49121
0.491309
0.491331
0.491467
0.491582
0.49182
0.49225
0.493099
0.494475
0.496567
0.49928
0.506663
0.491787
0.413152
0.430302
0.493746
0.513439
0.513203
0.512704
0.51143
0.510281
0.509455
0.508407
0.507484
0.506366
0.505266
0.504062
0.502885
0.501692
0.500536
0.499431
0.498404
0.497465
0.49661
0.495884
0.495267
0.494748
0.49436
0.494076
0.493931
0.493808
0.493874
0.493848
0.493933
0.493982
0.494143
0.494495
0.495285
0.49668
0.498848
0.501608
0.509386
0.495732
0.419279
0.436108
0.497239
0.515683
0.515022
0.514013
0.512856
0.511965
0.511378
0.510611
0.509871
0.508893
0.50796
0.506888
0.505885
0.504858
0.503868
0.502895
0.501928
0.500977
0.50009
0.499412
0.498909
0.49846
0.498048
0.497669
0.497445
0.497217
0.497225
0.497124
0.49718
0.49719
0.497315
0.497601
0.498338
0.499727
0.502015
0.504763
0.51275
0.500135
0.426325
0.445573
0.504297
0.522591
0.520991
0.51937
0.518212
0.517502
0.516963
0.516377
0.51571
0.514819
0.513857
0.51271
0.511592
0.510452
0.509468
0.508706
0.508204
0.507869
0.507446
0.506783
0.505871
0.504915
0.504256
0.503885
0.503876
0.503938
0.50413
0.504292
0.504521
0.504705
0.504945
0.505288
0.506135
0.507671
0.510442
0.513615
0.521539
0.50773
0.437485
0.379421
0.486802
0.515284
0.510366
0.507953
0.504621
0.502661
0.500355
0.498526
0.496644
0.494907
0.492997
0.491171
0.489247
0.487346
0.485525
0.483921
0.482578
0.481684
0.481249
0.480571
0.4797
0.479327
0.479499
0.479978
0.480643
0.481687
0.482442
0.483588
0.484588
0.485789
0.486981
0.488401
0.49046
0.493168
0.497333
0.502043
0.508944
0.488155
0.383093
0.348885
0.387247
0.443117
0.433477
0.427272
0.4226
0.41925
0.416571
0.413927
0.411869
0.409794
0.407772
0.405941
0.40401
0.402196
0.400492
0.399175
0.398211
0.397645
0.397398
0.397127
0.396541
0.396545
0.396293
0.396867
0.397564
0.398624
0.399483
0.400729
0.40192
0.403518
0.404994
0.407391
0.409614
0.413798
0.419629
0.427072
0.437462
0.382548
0.347618
0.348885
0.387247
0.443117
0.433477
0.427272
0.4226
0.41925
0.416571
0.413927
0.411869
0.409794
0.407772
0.405941
0.40401
0.402196
0.400492
0.399175
0.398211
0.397645
0.397398
0.397127
0.396541
0.396545
0.396293
0.396867
0.397564
0.398624
0.399483
0.400729
0.40192
0.403518
0.404994
0.407391
0.409614
0.413798
0.419629
0.427072
0.437462
0.382548
0.347618
0.379421
0.486802
0.515284
0.510366
0.507953
0.504621
0.502661
0.500355
0.498526
0.496644
0.494907
0.492997
0.491171
0.489247
0.487346
0.485525
0.483921
0.482578
0.481684
0.481249
0.480571
0.4797
0.479327
0.479499
0.479978
0.480643
0.481687
0.482442
0.483588
0.484588
0.485789
0.486981
0.488401
0.49046
0.493168
0.497333
0.502043
0.508944
0.488155
0.383093
0.445573
0.504297
0.522591
0.520991
0.51937
0.518212
0.517502
0.516963
0.516377
0.51571
0.514819
0.513857
0.51271
0.511592
0.510452
0.509468
0.508706
0.508204
0.507869
0.507446
0.506783
0.505871
0.504915
0.504256
0.503885
0.503876
0.503938
0.50413
0.504292
0.504521
0.504705
0.504945
0.505288
0.506135
0.507671
0.510442
0.513615
0.521539
0.50773
0.437485
0.436108
0.497239
0.515683
0.515022
0.514013
0.512856
0.511965
0.511378
0.510611
0.509871
0.508893
0.50796
0.506888
0.505885
0.504858
0.503868
0.502895
0.501928
0.500977
0.50009
0.499412
0.498909
0.49846
0.498048
0.497669
0.497445
0.497217
0.497225
0.497124
0.49718
0.49719
0.497315
0.497601
0.498338
0.499727
0.502015
0.504763
0.51275
0.500135
0.426325
0.430302
0.493746
0.513439
0.513203
0.512704
0.51143
0.510281
0.509455
0.508407
0.507484
0.506366
0.505266
0.504062
0.502885
0.501692
0.500536
0.499431
0.498404
0.497465
0.49661
0.495884
0.495267
0.494748
0.49436
0.494076
0.493931
0.493808
0.493874
0.493848
0.493933
0.493982
0.494143
0.494495
0.495285
0.49668
0.498848
0.501608
0.509386
0.495732
0.419279
0.42601
0.49156
0.512332
0.51241
0.512393
0.510962
0.509648
0.508574
0.50725
0.506052
0.504666
0.503366
0.502003
0.500668
0.499345
0.498073
0.496869
0.495754
0.49474
0.493834
0.493092
0.492493
0.49201
0.491658
0.491413
0.491294
0.49121
0.491309
0.491331
0.491467
0.491582
0.49182
0.49225
0.493099
0.494475
0.496567
0.49928
0.506663
0.491787
0.413152
0.42381
0.490562
0.512283
0.51287
0.513658
0.512075
0.510619
0.509133
0.5073
0.505667
0.504027
0.502447
0.500872
0.499377
0.49794
0.496596
0.495358
0.494235
0.493225
0.492312
0.491529
0.490864
0.490316
0.489913
0.489636
0.489495
0.489411
0.489508
0.489549
0.489711
0.489877
0.490181
0.490684
0.491588
0.492941
0.49497
0.497648
0.504844
0.488902
0.408906
0.423492
0.490266
0.512516
0.513593
0.515323
0.5138
0.512426
0.510626
0.508265
0.506042
0.503845
0.501888
0.500042
0.498314
0.496709
0.495232
0.493889
0.49268
0.491601
0.490641
0.489837
0.489178
0.488646
0.48826
0.488001
0.487868
0.48781
0.487935
0.488023
0.488243
0.488487
0.488894
0.489507
0.490518
0.491919
0.493995
0.49673
0.503801
0.486741
0.406593
0.421936
0.490549
0.5134
0.514908
0.517479
0.516048
0.514818
0.512786
0.509958
0.507101
0.504296
0.501856
0.499669
0.497726
0.495948
0.494355
0.492925
0.49165
0.490522
0.489525
0.488692
0.48801
0.487463
0.487066
0.486801
0.486662
0.486608
0.486738
0.486859
0.48713
0.487449
0.487959
0.488685
0.489805
0.491274
0.493409
0.496201
0.503234
0.485306
0.404229
0.422298
0.491312
0.514732
0.516451
0.519781
0.518623
0.517709
0.51565
0.512415
0.508809
0.50525
0.502178
0.499549
0.497304
0.495355
0.493617
0.492076
0.490717
0.489527
0.488489
0.48763
0.486938
0.486393
0.486006
0.485755
0.48563
0.485598
0.485749
0.485912
0.486245
0.486646
0.487268
0.488108
0.489345
0.49089
0.493099
0.495935
0.502864
0.484077
0.40288
0.421392
0.492505
0.516505
0.51815
0.522133
0.521328
0.520782
0.51887
0.515382
0.51106
0.50667
0.502898
0.499791
0.497248
0.495099
0.49324
0.491607
0.490181
0.488943
0.487872
0.486987
0.486275
0.485717
0.48532
0.485063
0.484929
0.484896
0.485043
0.485227
0.485598
0.486057
0.486764
0.487693
0.489025
0.490632
0.492907
0.495801
0.502599
0.482944
0.401443
0.422041
0.494757
0.519373
0.520474
0.524848
0.524377
0.524083
0.522397
0.518832
0.513849
0.508532
0.503912
0.500212
0.497317
0.494949
0.492958
0.49125
0.489766
0.488487
0.487386
0.486479
0.485749
0.485178
0.48477
0.484504
0.484361
0.484323
0.484459
0.484657
0.485055
0.48556
0.486339
0.487338
0.488748
0.490398
0.492734
0.495663
0.502302
0.482019
0.400418
0.424431
0.498233
0.523155
0.523348
0.527902
0.527764
0.527558
0.526022
0.522504
0.517018
0.510798
0.505256
0.500874
0.497575
0.495008
0.492905
0.491125
0.489591
0.488274
0.487146
0.486217
0.485469
0.48488
0.484454
0.48417
0.484011
0.483958
0.484068
0.484261
0.48467
0.485203
0.486039
0.487088
0.488558
0.490244
0.492637
0.495635
0.502015
0.480916
0.399389
0.429815
0.503337
0.528107
0.527576
0.532144
0.532128
0.531528
0.529775
0.526213
0.520365
0.513301
0.506779
0.501613
0.49785
0.495063
0.492867
0.49103
0.489459
0.488113
0.486961
0.486012
0.485246
0.484641
0.484196
0.48389
0.483711
0.483636
0.483714
0.483891
0.484297
0.484842
0.485717
0.486797
0.488314
0.490018
0.492456
0.495508
0.50166
0.480092
0.398668
0.436703
0.509629
0.534769
0.534951
0.538213
0.537777
0.53628
0.533965
0.530041
0.523873
0.516053
0.50857
0.502545
0.498239
0.495184
0.49288
0.490996
0.489391
0.488015
0.486839
0.48587
0.485089
0.48447
0.48401
0.483689
0.483492
0.4834
0.483452
0.483616
0.484021
0.484577
0.485489
0.486595
0.488157
0.489875
0.492366
0.495539
0.501428
0.479068
0.397905
0.443667
0.514647
0.54102
0.547174
0.54773
0.545901
0.542331
0.538594
0.533711
0.527159
0.518725
0.510399
0.503511
0.498624
0.495281
0.492872
0.490953
0.489323
0.487922
0.486724
0.485736
0.484942
0.484312
0.48384
0.483504
0.483293
0.483185
0.483212
0.48336
0.483757
0.484315
0.485254
0.486374
0.487967
0.489683
0.49221
0.495479
0.501251
0.47841
0.397365
0.452245
0.515863
0.546407
0.560741
0.560985
0.556895
0.550328
0.54397
0.537561
0.530332
0.521336
0.512248
0.504523
0.499026
0.495373
0.492857
0.490907
0.489259
0.487837
0.486618
0.485614
0.484808
0.48417
0.48369
0.483345
0.483123
0.483005
0.483015
0.483153
0.483547
0.48411
0.485079
0.486215
0.487848
0.48956
0.49215
0.495549
0.50132
0.477672
0.39644
0.472234
0.51111
0.548659
0.574647
0.576643
0.570516
0.560146
0.549757
0.541276
0.533048
0.523631
0.513913
0.505494
0.499393
0.495436
0.492824
0.490854
0.489195
0.487758
0.486522
0.485503
0.484688
0.484044
0.483559
0.483209
0.482981
0.482857
0.482854
0.482985
0.483377
0.483945
0.484942
0.486091
0.487761
0.48945
0.49211
0.495592
0.501567
0.476914
0.395001
0.514685
0.509497
0.545194
0.584313
0.59455
0.585468
0.571224
0.555958
0.544644
0.535231
0.52545
0.515314
0.506349
0.499699
0.495462
0.492778
0.490802
0.489142
0.487695
0.486445
0.485415
0.484592
0.483944
0.483457
0.483104
0.482874
0.482745
0.482735
0.482863
0.483255
0.483828
0.484851
0.48601
0.487719
0.489368
0.492098
0.495608
0.502088
0.475884
0.393023
0.55019
0.51765
0.554014
0.591786
0.610173
0.601741
0.582231
0.561414
0.547019
0.536665
0.526618
0.516344
0.506994
0.499912
0.495467
0.492742
0.49077
0.489112
0.487659
0.4864
0.485362
0.484535
0.483884
0.483396
0.483042
0.482811
0.48268
0.482667
0.482794
0.483186
0.483764
0.484805
0.485973
0.487711
0.489322
0.492103
0.495616
0.502634
0.475134
0.396172
)
;

boundaryField
{
    inlet
    {
        type            fixedValue;
        value           uniform 1;
    }
    outlet
    {
        type            zeroGradient;
    }
    obstacle
    {
        type            zeroGradient;
    }
    empty
    {
        type            empty;
    }
}


// ************************************************************************* //
