/*--------------------------------*- C++ -*----------------------------------*\
| =========                 |                                                 |
| \\      /  F ield         | OpenFOAM: The Open Source CFD Toolbox           |
|  \\    /   O peration     | Version:  v1912                                 |
|   \\  /    A nd           | Website:  www.openfoam.com                      |
|    \\/     M anipulation  |                                                 |
\*---------------------------------------------------------------------------*/
FoamFile
{
    version     2.0;
    format      ascii;
    class       volScalarField;
    location    "0.38";
    object      Ma;
}
// * * * * * * * * * * * * * * * * * * * * * * * * * * * * * * * * * * * * * //

dimensions      [0 0 0 0 0 0 0];


internalField   nonuniform List<scalar> 
1900
(
0
6.32544e-17
3.23425e-17
0
9.5604e-17
5.55685e-17
1.43859e-16
2.16355e-14
3.20667e-11
7.06108e-09
0
5.11982e-17
1.65009e-16
1.75098e-17
7.90866e-18
1.52211e-17
1.27134e-16
2.9646e-14
4.56873e-11
1.05079e-08
0
5.2044e-17
8.00628e-17
0
3.21576e-17
4.77746e-17
1.73516e-16
3.61934e-14
5.54629e-11
1.26337e-08
0
0
7.5622e-17
0
8.48351e-17
9.53885e-17
1.80545e-17
2.93975e-14
4.56766e-11
1.05079e-08
0
6.4837e-17
2.38539e-16
1.1191e-16
2.07199e-16
4.51702e-17
3.80647e-19
2.13818e-14
3.20339e-11
7.06108e-09
1.7258e-07
1.9577e-06
5.09096e-06
3.0361e-06
0.000364255
2.55479e-07
2.7229e-06
6.64039e-06
3.53968e-06
0.000365953
3.02428e-07
3.04651e-06
7.2121e-06
2.90357e-06
0.000364721
2.55479e-07
2.7229e-06
6.64039e-06
3.53968e-06
0.000365953
1.7258e-07
1.9577e-06
5.09096e-06
3.0361e-06
0.000364255
0.00791838
0.0272166
0.0546126
0.0925574
0.143092
0.00815497
0.0289966
0.0558932
0.0751938
0.0779038
0.00832027
0.0303908
0.056098
0.0597086
0.0220479
0.00815497
0.0289966
0.0558932
0.0751938
0.0779038
0.00791838
0.0272166
0.0546126
0.0925574
0.143092
0.290851
0.158615
0.114243
0.0478733
0.0106804
0.000787743
1.16239e-05
2.22562e-08
3.86753e-12
1.40126e-16
1.40347e-16
1.31819e-16
4.3045e-17
1.27607e-16
5.92887e-17
1.6884e-16
2.13577e-17
6.93128e-17
2.4428e-16
6.55241e-17
7.17149e-17
1.51283e-16
1.15289e-16
4.03458e-16
4.80605e-17
1.71103e-16
9.64837e-17
8.87666e-17
3.67102e-16
4.72429e-16
3.62316e-16
5.26513e-12
3.06763e-08
1.64141e-05
0.00114763
0.0162023
0.0763421
0.190819
0.318123
0.970326
0.0299066
0.0683163
0.0775814
0.0439035
0.0110272
0.000855058
1.29258e-05
2.49587e-08
4.34831e-12
1.84545e-16
4.62216e-17
2.40946e-16
1.36309e-16
9.86537e-17
2.34752e-19
1.41976e-16
1.75091e-18
7.46049e-17
4.48348e-16
1.84726e-16
4.08441e-17
2.22732e-16
2.43739e-16
5.99111e-16
3.27676e-16
1.35983e-16
3.70423e-16
6.41179e-17
2.07296e-16
3.06387e-17
2.20642e-16
5.26138e-12
3.06763e-08
1.64141e-05
0.00114763
0.0162023
0.0763421
0.190819
0.318123
0.970326
0.0655669
0.0123608
0.0568505
0.0413105
0.0114079
0.000906447
1.38264e-05
2.67911e-08
4.67607e-12
1.54068e-16
7.31021e-17
3.54806e-16
3.97075e-17
2.44338e-16
7.01895e-17
1.53874e-16
4.48909e-18
3.49619e-17
3.88651e-16
2.91204e-16
1.28961e-16
4.54656e-16
3.88372e-16
3.74758e-16
5.49597e-16
1.89273e-16
2.52237e-16
2.18326e-16
4.00366e-17
4.70831e-16
2.87848e-16
5.26282e-12
3.06763e-08
1.64141e-05
0.00114763
0.0162023
0.0763421
0.190819
0.318123
0.970326
0.0299066
0.0683163
0.0775814
0.0439035
0.0110272
0.000855058
1.29258e-05
2.49587e-08
4.35612e-12
2.45184e-16
1.1216e-16
1.83491e-16
5.27556e-17
3.58847e-16
8.75707e-17
7.2993e-17
1.35984e-17
2.14836e-17
1.34853e-16
1.08906e-16
5.8959e-17
1.72586e-16
5.03251e-18
1.7959e-16
3.45862e-16
3.72601e-16
2.3996e-16
7.96315e-17
1.54066e-16
3.03736e-16
2.85745e-16
5.26138e-12
3.06763e-08
1.64141e-05
0.00114763
0.0162023
0.0763421
0.190819
0.318123
0.970326
0.290851
0.158615
0.114243
0.0478733
0.0106804
0.000787743
1.16239e-05
2.22562e-08
3.87683e-12
2.29647e-16
1.80366e-16
3.83285e-17
5.49518e-17
1.44925e-16
1.377e-16
1.18845e-17
4.59796e-17
1.9431e-18
7.45146e-17
7.86671e-17
7.6963e-21
1.6143e-17
2.51689e-16
2.08271e-16
8.55668e-17
2.27079e-16
1.36247e-16
4.02983e-16
1.12589e-16
1.28389e-16
3.63187e-16
5.25673e-12
3.06763e-08
1.64141e-05
0.00114763
0.0162023
0.0763421
0.190819
0.318123
0.970326
0.821767
0.271316
0.151219
0.0574217
0.0118507
0.000823769
1.16126e-05
2.1441e-08
3.64133e-12
3.21562e-16
3.92095e-17
6.42597e-17
4.55571e-17
5.8278e-17
3.87363e-17
3.40421e-17
7.68518e-19
4.14358e-18
8.39209e-17
2.93898e-17
6.53819e-20
4.31096e-17
1.68747e-16
1.62652e-16
3.84128e-17
4.70581e-17
8.33505e-17
1.93611e-16
1.71455e-16
8.1138e-17
2.81141e-16
5.25673e-12
3.06763e-08
1.64141e-05
0.00114763
0.0162023
0.0763421
0.190819
0.318123
0.970326
0.96447
0.310128
0.179704
0.0704682
0.0146469
0.00101737
1.42865e-05
2.62901e-08
4.45872e-12
3.53937e-16
3.04661e-23
8.34648e-17
2.71204e-17
2.59137e-17
5.11402e-17
1.66438e-16
4.19357e-17
3.34844e-17
8.42725e-18
1.11988e-16
8.50705e-18
7.2005e-22
4.58261e-17
5.49369e-17
6.40166e-17
3.89256e-17
7.40302e-17
4.47677e-18
5.26401e-17
1.2364e-16
2.6351e-16
5.26058e-12
3.06762e-08
1.64141e-05
0.00114763
0.0162023
0.0763421
0.190819
0.318123
0.970326
0.970358
0.317111
0.189325
0.0755252
0.0159698
0.00112739
1.60779e-05
2.99791e-08
5.13094e-12
2.6496e-16
5.22663e-21
2.4643e-19
6.67525e-17
1.62008e-16
9.03806e-17
8.75748e-17
1.41706e-16
7.98891e-17
3.73969e-19
1.06197e-17
6.54616e-18
7.59123e-18
1.10184e-16
1.88706e-17
4.61962e-17
3.13237e-17
7.21499e-17
2.54036e-17
3.13643e-32
1.89579e-17
2.07085e-16
5.25354e-12
3.06762e-08
1.64141e-05
0.00114763
0.0162023
0.0763421
0.190819
0.318123
0.970326
0.970315
0.318077
0.190758
0.0763081
0.0161923
0.00114677
1.64004e-05
3.06494e-08
5.24849e-12
2.42877e-16
1.18476e-19
5.21973e-18
1.09114e-16
3.2639e-17
7.82504e-17
8.9568e-17
1.4989e-16
4.80052e-17
6.21928e-18
7.12002e-18
4.57069e-17
8.37247e-20
4.83587e-18
4.75119e-17
1.24578e-18
9.33538e-17
4.82657e-17
4.73703e-17
1.777e-31
4.76098e-18
2.22355e-16
5.25178e-12
3.06762e-08
1.64141e-05
0.00114763
0.0162023
0.0763421
0.190819
0.318123
0.970326
0.970324
0.318122
0.190819
0.0763418
0.0162022
0.00114762
1.6414e-05
3.0676e-08
5.25729e-12
2.88249e-16
4.61763e-17
2.09215e-17
1.38668e-16
2.99249e-17
1.30467e-16
1.20597e-16
3.41084e-17
2.89863e-17
2.75964e-17
3.33793e-17
9.78415e-17
2.16367e-18
7.83261e-17
8.39132e-17
3.99423e-17
1.3924e-16
5.30855e-17
3.38507e-17
8.90737e-27
2.04447e-17
2.09011e-16
5.25478e-12
3.06762e-08
1.64141e-05
0.00114763
0.0162023
0.0763421
0.190819
0.318123
0.970326
0.970326
0.318123
0.190819
0.0763421
0.0162023
0.00114763
1.64141e-05
3.06762e-08
5.2719e-12
1.97625e-16
4.61998e-17
2.25665e-17
7.11803e-17
7.23532e-17
8.82073e-17
4.29693e-17
4.7162e-17
4.85929e-17
4.70549e-17
6.78974e-17
4.58118e-17
4.97019e-17
5.53224e-17
7.37529e-17
6.76953e-17
1.49187e-16
6.71191e-17
6.834e-17
2.10093e-23
3.48281e-17
1.94181e-16
5.25726e-12
3.06762e-08
1.64141e-05
0.00114763
0.0162023
0.0763421
0.190819
0.318123
0.970326
0.970326
0.318123
0.190819
0.0763421
0.0162023
0.00114763
1.64141e-05
3.06762e-08
5.26459e-12
2.95615e-16
1.8497e-17
1.33724e-16
3.80256e-17
1.33579e-16
9.05621e-17
1.62714e-16
1.71578e-16
4.91992e-17
4.32709e-17
4.62142e-17
2.18087e-19
6.41917e-17
5.90882e-17
2.77362e-19
4.6035e-17
3.00603e-17
2.04093e-17
4.94472e-17
4.00164e-21
6.12001e-25
3.02023e-16
5.27401e-12
3.06762e-08
1.64141e-05
0.00114763
0.0162023
0.0763421
0.190819
0.318123
0.970326
0.970326
0.318123
0.190819
0.0763421
0.0162023
0.00114763
1.64141e-05
3.06762e-08
5.25664e-12
2.00955e-16
5.09359e-17
9.02814e-18
1.82305e-19
2.22799e-17
9.73446e-17
3.75736e-18
9.01515e-17
1.25077e-16
1.09942e-16
5.83577e-18
4.41009e-19
8.09932e-17
8.78388e-17
9.11187e-18
1.01646e-18
3.91112e-17
5.66724e-17
5.81527e-17
8.91436e-20
1.33716e-17
4.00242e-16
5.27384e-12
3.06762e-08
1.64141e-05
0.00114763
0.0162023
0.0763421
0.190819
0.318123
0.970326
0.970326
0.318123
0.190819
0.0763421
0.0162023
0.00114763
1.64141e-05
3.06762e-08
5.26222e-12
2.1032e-16
1.03357e-16
1.58503e-16
3.08579e-17
5.32388e-17
1.94961e-16
1.33598e-16
1.4434e-16
1.09971e-16
8.98754e-18
4.95535e-18
7.91197e-17
4.62594e-17
4.22968e-18
6.6759e-17
1.63709e-17
6.72537e-17
6.35366e-17
1.5837e-16
6.26108e-17
7.89065e-17
3.34457e-16
5.25783e-12
3.06762e-08
1.64141e-05
0.00114763
0.0162023
0.0763421
0.190819
0.318123
0.970326
0.970326
0.318123
0.190819
0.0763421
0.0162023
0.00114763
1.64141e-05
3.06762e-08
5.25588e-12
1.68975e-16
2.04563e-16
6.4351e-17
7.37955e-18
1.22873e-16
3.01067e-17
1.17051e-16
5.87208e-17
9.41145e-18
1.45896e-18
1.97879e-17
6.68525e-17
1.53746e-16
2.02515e-17
1.55817e-16
6.00741e-17
9.56643e-17
5.13856e-17
6.05902e-18
7.89183e-17
2.28432e-17
3.11544e-16
5.25672e-12
3.06762e-08
1.64141e-05
0.00114763
0.0162023
0.0763421
0.190819
0.318123
0.970326
0.970326
0.318123
0.190819
0.0763421
0.0162023
0.00114763
1.64141e-05
3.06762e-08
5.27629e-12
7.69947e-16
8.20873e-16
8.78772e-16
8.45895e-16
9.12596e-16
8.17622e-16
8.13871e-16
8.08219e-16
6.54638e-16
7.34104e-16
8.06325e-16
9.11523e-16
7.69639e-16
6.71584e-16
7.29013e-16
7.2562e-16
7.41787e-16
7.57475e-16
8.41438e-16
7.95968e-16
8.51606e-16
7.70551e-16
5.27569e-12
3.06762e-08
1.64141e-05
0.00114763
0.0162023
0.0763421
0.190819
0.318123
0.970326
0.970326
0.318123
0.190819
0.0763421
0.0162023
0.00114763
1.64141e-05
3.06762e-08
1.83239e-11
1.75646e-11
1.75775e-11
1.75632e-11
1.7568e-11
1.75816e-11
1.75858e-11
1.7582e-11
1.75639e-11
1.75687e-11
1.75833e-11
1.75862e-11
1.75862e-11
1.75861e-11
1.75825e-11
1.75596e-11
1.75675e-11
1.75831e-11
1.75859e-11
1.75851e-11
1.75857e-11
1.75846e-11
1.75871e-11
1.83555e-11
3.06763e-08
1.64141e-05
0.00114763
0.0162023
0.0763421
0.190819
0.318123
0.970326
0.970326
0.318123
0.190819
0.0763421
0.0162023
0.00114763
1.64142e-05
7.9644e-08
7.34991e-08
7.34992e-08
7.34991e-08
7.34992e-08
7.34991e-08
7.34991e-08
7.34992e-08
7.34991e-08
7.34991e-08
7.34992e-08
7.34992e-08
7.34992e-08
7.34992e-08
7.34992e-08
7.34991e-08
7.34992e-08
7.34992e-08
7.34992e-08
7.34991e-08
7.34991e-08
7.34991e-08
7.34992e-08
7.34992e-08
7.34992e-08
7.96437e-08
1.64142e-05
0.00114763
0.0162023
0.0763421
0.190819
0.318123
0.970326
0.970328
0.318123
0.190819
0.076342
0.0162022
0.001148
3.38908e-05
2.9651e-05
2.9651e-05
2.9651e-05
2.9651e-05
2.9651e-05
2.9651e-05
2.9651e-05
2.9651e-05
2.9651e-05
2.9651e-05
2.9651e-05
2.9651e-05
2.9651e-05
2.9651e-05
2.9651e-05
2.9651e-05
2.9651e-05
2.9651e-05
2.9651e-05
2.9651e-05
2.9651e-05
2.9651e-05
2.9651e-05
2.9651e-05
2.9651e-05
2.9651e-05
3.38908e-05
0.001148
0.0162022
0.076342
0.190819
0.318123
0.970328
0.970475
0.318142
0.190809
0.0763516
0.0162809
0.00201229
0.00165404
0.00165396
0.00165396
0.00165396
0.00165396
0.00165396
0.00165396
0.00165396
0.00165396
0.00165396
0.00165396
0.00165396
0.00165396
0.00165396
0.00165396
0.00165396
0.00165396
0.00165396
0.00165396
0.00165396
0.00165396
0.00165396
0.00165396
0.00165396
0.00165396
0.00165396
0.00165396
0.00165404
0.00201229
0.0162809
0.0763516
0.190809
0.318142
0.970475
0.972428
0.318902
0.191774
0.0787499
0.0255721
0.0199126
0.0198839
0.0198839
0.0198839
0.0198839
0.0198839
0.0198839
0.0198839
0.0198839
0.0198839
0.0198839
0.0198839
0.0198839
0.0198839
0.0198839
0.0198839
0.0198839
0.0198839
0.0198839
0.0198839
0.0198839
0.0198839
0.0198839
0.0198839
0.0198839
0.0198839
0.0198839
0.0198839
0.0198839
0.0199126
0.0255721
0.0787499
0.191774
0.318902
0.972428
0.983084
0.32923
0.210073
0.113744
0.0864582
0.0850396
0.0850378
0.0850379
0.0850379
0.0850379
0.0850379
0.0850379
0.0850379
0.0850379
0.0850379
0.0850379
0.0850379
0.0850379
0.0850379
0.0850379
0.0850379
0.0850379
0.0850379
0.0850379
0.0850379
0.0850379
0.0850379
0.0850379
0.0850379
0.0850379
0.0850379
0.0850379
0.0850379
0.0850378
0.0850396
0.0864582
0.113744
0.210073
0.32923
0.983084
1.01702
0.385781
0.292446
0.217
0.202705
0.202124
0.202134
0.202134
0.202134
0.202134
0.202134
0.202134
0.202134
0.202134
0.202134
0.202134
0.202134
0.202134
0.202134
0.202134
0.202134
0.202134
0.202134
0.202134
0.202134
0.202134
0.202134
0.202134
0.202134
0.202134
0.202134
0.202134
0.202134
0.202134
0.202124
0.202705
0.217
0.292446
0.385781
1.01702
1.01198
0.437653
0.390933
0.339369
0.331041
0.33051
0.330498
0.330498
0.330498
0.330498
0.330498
0.330498
0.330498
0.330498
0.330498
0.330498
0.330498
0.330498
0.330498
0.330498
0.330498
0.330498
0.330498
0.330498
0.330498
0.330498
0.330498
0.330498
0.330498
0.330498
0.330498
0.330498
0.330498
0.330498
0.33051
0.331041
0.339369
0.390933
0.437653
1.01198
1.39321
1.02613
1.03123
1.00001
0.990472
0.988873
0.988771
0.98877
0.98877
0.98877
0.98877
0.98877
0.98877
0.98877
0.98877
0.98877
0.98877
0.98877
0.98877
0.98877
0.98877
0.98877
0.98877
0.98877
0.98877
0.98877
0.98877
0.98877
0.98877
0.98877
0.98877
0.98877
0.98877
0.988771
0.988873
0.990472
1.00001
1.03123
1.02613
1.39321
1.39321
1.02613
1.03123
1.00001
0.990472
0.988873
0.988771
0.98877
0.98877
0.98877
0.98877
0.98877
0.98877
0.98877
0.98877
0.98877
0.98877
0.98877
0.98877
0.98877
0.98877
0.98877
0.98877
0.98877
0.98877
0.98877
0.98877
0.98877
0.98877
0.98877
0.98877
0.98877
0.98877
0.988771
0.988873
0.990472
1.00001
1.03123
1.02613
1.39321
1.01198
0.437653
0.390933
0.339369
0.331041
0.33051
0.330498
0.330498
0.330498
0.330498
0.330498
0.330498
0.330498
0.330498
0.330498
0.330498
0.330498
0.330498
0.330498
0.330498
0.330498
0.330498
0.330498
0.330498
0.330498
0.330498
0.330498
0.330498
0.330498
0.330498
0.330498
0.330498
0.330498
0.330498
0.33051
0.331041
0.339369
0.390933
0.437653
1.01198
1.01702
0.385781
0.292446
0.217
0.202705
0.202124
0.202134
0.202134
0.202134
0.202134
0.202134
0.202134
0.202134
0.202134
0.202134
0.202134
0.202134
0.202134
0.202134
0.202134
0.202134
0.202134
0.202134
0.202134
0.202134
0.202134
0.202134
0.202134
0.202134
0.202134
0.202134
0.202134
0.202134
0.202134
0.202124
0.202705
0.217
0.292446
0.385781
1.01702
0.983084
0.32923
0.210073
0.113744
0.0864582
0.0850396
0.0850378
0.0850379
0.0850379
0.0850379
0.0850379
0.0850379
0.0850379
0.0850379
0.0850379
0.0850379
0.0850379
0.0850379
0.0850379
0.0850379
0.0850379
0.0850379
0.0850379
0.0850379
0.0850379
0.0850379
0.0850379
0.0850379
0.0850379
0.0850379
0.0850379
0.0850379
0.0850379
0.0850378
0.0850396
0.0864582
0.113744
0.210073
0.32923
0.983084
0.972428
0.318902
0.191774
0.0787499
0.0255721
0.0199126
0.0198839
0.0198839
0.0198839
0.0198839
0.0198839
0.0198839
0.0198839
0.0198839
0.0198839
0.0198839
0.0198839
0.0198839
0.0198839
0.0198839
0.0198839
0.0198839
0.0198839
0.0198839
0.0198839
0.0198839
0.0198839
0.0198839
0.0198839
0.0198839
0.0198839
0.0198839
0.0198839
0.0198839
0.0199126
0.0255721
0.0787499
0.191774
0.318902
0.972428
0.970475
0.318142
0.190809
0.0763516
0.0162809
0.00201229
0.00165404
0.00165396
0.00165396
0.00165396
0.00165396
0.00165396
0.00165396
0.00165396
0.00165396
0.00165396
0.00165396
0.00165396
0.00165396
0.00165396
0.00165396
0.00165396
0.00165396
0.00165396
0.00165396
0.00165396
0.00165396
0.00165396
0.00165396
0.00165396
0.00165396
0.00165396
0.00165396
0.00165404
0.00201229
0.0162809
0.0763516
0.190809
0.318142
0.970475
0.970328
0.318123
0.190819
0.076342
0.0162022
0.001148
3.38908e-05
2.9651e-05
2.9651e-05
2.9651e-05
2.9651e-05
2.9651e-05
2.9651e-05
2.9651e-05
2.9651e-05
2.9651e-05
2.9651e-05
2.9651e-05
2.9651e-05
2.9651e-05
2.9651e-05
2.9651e-05
2.9651e-05
2.9651e-05
2.9651e-05
2.9651e-05
2.9651e-05
2.9651e-05
2.9651e-05
2.9651e-05
2.9651e-05
2.9651e-05
2.9651e-05
3.38908e-05
0.001148
0.0162022
0.076342
0.190819
0.318123
0.970328
0.970326
0.318123
0.190819
0.0763421
0.0162023
0.00114763
1.64142e-05
7.96438e-08
7.34992e-08
7.34991e-08
7.34991e-08
7.34991e-08
7.34991e-08
7.34991e-08
7.34991e-08
7.34991e-08
7.34991e-08
7.34991e-08
7.34992e-08
7.34991e-08
7.34992e-08
7.34991e-08
7.34991e-08
7.34992e-08
7.34992e-08
7.34992e-08
7.34992e-08
7.34991e-08
7.34992e-08
7.34992e-08
7.34992e-08
7.34992e-08
7.96438e-08
1.64142e-05
0.00114763
0.0162023
0.0763421
0.190819
0.318123
0.970326
0.970326
0.318123
0.190819
0.0763421
0.0162023
0.00114763
1.64141e-05
3.06762e-08
1.83492e-11
1.75646e-11
1.75778e-11
1.75633e-11
1.75682e-11
1.75813e-11
1.75804e-11
1.75589e-11
1.75589e-11
1.75638e-11
1.75609e-11
1.75775e-11
1.75648e-11
1.75814e-11
1.75836e-11
1.75708e-11
1.75822e-11
1.75809e-11
1.75618e-11
1.75663e-11
1.75604e-11
1.75736e-11
1.75586e-11
1.83421e-11
3.06763e-08
1.64141e-05
0.00114763
0.0162023
0.0763421
0.190819
0.318123
0.970326
0.970326
0.318123
0.190819
0.0763421
0.0162023
0.00114763
1.64141e-05
3.06762e-08
5.25359e-12
7.49471e-16
6.8305e-16
7.83152e-16
8.59881e-16
8.51802e-16
7.18133e-16
7.33756e-16
7.76215e-16
6.67691e-16
7.21859e-16
7.34674e-16
7.22635e-16
7.38343e-16
6.76483e-16
7.26899e-16
7.35241e-16
7.44966e-16
8.08578e-16
8.47894e-16
7.51879e-16
8.46538e-16
7.86768e-16
5.25773e-12
3.06762e-08
1.64141e-05
0.00114763
0.0162023
0.0763421
0.190819
0.318123
0.970326
0.970326
0.318123
0.190819
0.0763421
0.0162023
0.00114763
1.64141e-05
3.06762e-08
5.2537e-12
2.11497e-16
1.66357e-16
4.0189e-17
5.9179e-18
4.6835e-17
4.969e-17
7.73504e-17
1.54178e-17
4.27808e-17
1.96349e-17
1.25608e-19
2.20665e-17
1.36044e-16
2.18864e-17
1.41228e-16
4.2843e-17
6.93106e-17
6.64725e-17
6.02767e-17
9.40939e-17
9.42998e-17
3.45917e-16
5.2645e-12
3.06762e-08
1.64141e-05
0.00114763
0.0162023
0.0763421
0.190819
0.318123
0.970326
0.970326
0.318123
0.190819
0.0763421
0.0162023
0.00114763
1.64141e-05
3.06762e-08
5.25481e-12
1.63923e-16
7.70639e-17
3.23148e-17
1.49838e-19
4.74655e-17
1.21798e-16
1.51686e-17
4.24131e-17
1.57589e-16
8.71137e-17
4.25476e-18
1.12344e-35
1.5642e-17
3.0254e-17
4.90147e-17
2.94373e-19
6.85097e-17
1.73285e-16
6.11632e-18
1.839e-16
6.32546e-17
2.95429e-16
5.26132e-12
3.06762e-08
1.64141e-05
0.00114763
0.0162023
0.0763421
0.190819
0.318123
0.970326
0.970326
0.318123
0.190819
0.0763421
0.0162023
0.00114763
1.64141e-05
3.06762e-08
5.25394e-12
2.30433e-16
2.57682e-17
5.99634e-17
7.85687e-19
1.20197e-17
6.22161e-19
8.24347e-18
1.61012e-19
4.00673e-17
1.3509e-16
2.13756e-17
1.46807e-34
2.12708e-17
7.90226e-17
6.05405e-17
1.52311e-18
1.14081e-16
1.83437e-17
1.82938e-17
7.75463e-17
7.09411e-17
3.67318e-16
5.27237e-12
3.06762e-08
1.64141e-05
0.00114763
0.0162023
0.0763421
0.190819
0.318123
0.970326
0.970326
0.318123
0.190819
0.0763421
0.0162023
0.00114763
1.64141e-05
3.06762e-08
5.2538e-12
2.61464e-16
1.46252e-16
2.79272e-17
1.56933e-17
6.53949e-17
4.64697e-17
6.34729e-17
3.32581e-17
1.63254e-16
2.23025e-17
5.18837e-17
3.97703e-30
8.4679e-17
6.27347e-17
1.08565e-16
4.79112e-17
8.27581e-18
1.68488e-17
1.33154e-16
8.53292e-17
2.43232e-17
2.79919e-16
5.26854e-12
3.06762e-08
1.64141e-05
0.00114763
0.0162023
0.0763421
0.190819
0.318123
0.970326
0.970326
0.318123
0.190819
0.0763421
0.0162023
0.00114763
1.64141e-05
3.06762e-08
5.25794e-12
3.08286e-16
1.23339e-16
2.74397e-17
9.15473e-17
1.45295e-16
4.78189e-17
1.45415e-16
1.3805e-17
5.94108e-17
6.03868e-17
5.81792e-17
9.58423e-26
5.08071e-17
8.41476e-17
8.49814e-18
6.64954e-17
4.78683e-17
4.3857e-18
1.40137e-16
1.43014e-16
1.24396e-16
2.27418e-16
5.26841e-12
3.06762e-08
1.64141e-05
0.00114763
0.0162023
0.0763421
0.190819
0.318123
0.970326
0.970324
0.318122
0.190819
0.0763418
0.0162022
0.00114762
1.6414e-05
3.06761e-08
5.26237e-12
3.16517e-16
5.98938e-18
0
2.17333e-17
6.85079e-17
2.73386e-17
3.13343e-17
1.5649e-19
1.73365e-17
4.07626e-20
3.07688e-18
1.83352e-22
0
4.62436e-17
1.75484e-29
0
1.81466e-20
0
4.33031e-17
1.34691e-16
2.4477e-17
3.09084e-16
5.27604e-12
3.06762e-08
1.64141e-05
0.00114763
0.0162023
0.0763421
0.190819
0.318123
0.970326
0.970315
0.318077
0.190758
0.0763081
0.0161923
0.00114677
1.64004e-05
3.06494e-08
5.25266e-12
2.37369e-16
0
0
1.14147e-16
3.70506e-17
9.74155e-17
1.33383e-16
3.754e-17
1.09124e-16
7.17955e-18
9.36645e-18
3.24554e-20
0
4.61043e-17
1.43455e-24
0
7.66863e-20
4.61739e-17
9.42361e-20
2.6395e-17
8.24596e-21
2.40415e-16
5.2739e-12
3.06762e-08
1.64141e-05
0.00114763
0.0162023
0.0763421
0.190819
0.318123
0.970326
0.970358
0.317111
0.189325
0.0755252
0.0159698
0.00112739
1.60779e-05
2.99791e-08
5.12542e-12
2.77018e-16
0
4.61739e-17
0
6.46992e-17
0
9.28805e-17
1.33188e-18
4.19233e-17
1.46356e-18
5.67202e-17
8.51473e-19
0
4.61043e-17
3.41182e-21
0
3.4198e-18
4.61739e-17
3.21343e-19
0
1.03637e-18
2.68297e-16
5.26451e-12
3.06762e-08
1.64141e-05
0.00114763
0.0162023
0.0763421
0.190819
0.318123
0.970326
0.96447
0.310128
0.179704
0.0704682
0.0146469
0.00101737
1.42865e-05
2.62901e-08
4.45664e-12
3.31916e-16
0
4.61739e-17
0
2.76486e-17
2.45843e-17
3.03005e-17
2.86535e-18
1.22391e-16
1.52359e-17
1.2871e-16
1.59313e-17
0
0
5.63424e-17
2.08235e-17
2.69651e-17
4.44328e-17
2.27602e-18
0
3.02621e-17
3.95631e-16
5.26222e-12
3.06762e-08
1.64141e-05
0.00114763
0.0162023
0.0763421
0.190819
0.318123
0.970326
0.821767
0.271316
0.151219
0.0574217
0.0118507
0.000823769
1.16126e-05
2.1441e-08
3.6389e-12
2.75634e-16
2.49812e-17
3.77231e-17
8.95544e-17
1.4921e-18
1.37038e-16
1.61485e-16
8.95241e-17
1.58527e-16
3.20657e-16
1.92931e-16
1.19934e-16
3.24478e-17
3.68931e-18
1.8794e-16
1.30399e-16
9.31374e-17
1.31166e-16
7.34882e-17
6.26914e-17
1.13874e-16
2.96249e-16
5.25854e-12
3.06763e-08
1.64141e-05
0.00114763
0.0162023
0.0763421
0.190819
0.318123
0.970326
)
;

boundaryField
{
    inlet
    {
        type            calculated;
        value           uniform 0;
    }
    outlet
    {
        type            calculated;
        value           nonuniform List<scalar> 
165
(
0.821767
0.96447
0.970358
0.970315
0.970324
0.970326
0.970326
0.970326
0.970326
0.970326
0.970326
0.970326
0.970326
0.970328
0.970475
0.972428
0.983084
1.01702
1.01198
1.39321
1.39321
1.02613
1.03123
1.00001
0.990472
0.988873
0.988771
0.98877
0.98877
0.98877
0.98877
0.98877
0.98877
0.98877
0.98877
0.98877
0.98877
0.98877
0.98877
0.98877
0.98877
0.98877
0.98877
0.98877
0.98877
0.98877
0.98877
0.98877
0.98877
0.98877
0.98877
0.98877
0.98877
0.988771
0.988873
0.990472
1.00001
1.03123
1.02613
1.39321
0.970326
0.970326
0.970326
0.970326
0.970326
0.970326
0.970326
0.970326
0.970326
0.970326
0.970326
0.970326
0.970326
0.970328
0.970475
0.972428
0.983084
1.01702
1.01198
1.39321
0.970326
0.970326
0.970326
0.970326
0.970326
1.39321
1.01198
1.01702
0.983084
0.972428
0.970475
0.970328
0.970326
0.970326
0.970326
0.970326
0.970326
0.970326
0.970326
0.970326
0.970326
0.970326
0.970326
0.970326
0.970326
1.39321
1.02613
1.03123
1.00001
0.990472
0.988873
0.988771
0.98877
0.98877
0.98877
0.98877
0.98877
0.98877
0.98877
0.98877
0.98877
0.98877
0.98877
0.98877
0.98877
0.98877
0.98877
0.98877
0.98877
0.98877
0.98877
0.98877
0.98877
0.98877
0.98877
0.98877
0.98877
0.98877
0.988771
0.988873
0.990472
1.00001
1.03123
1.02613
1.39321
1.39321
1.01198
1.01702
0.983084
0.972428
0.970475
0.970328
0.970326
0.970326
0.970326
0.970326
0.970326
0.970326
0.970326
0.970326
0.970324
0.970315
0.970358
0.96447
0.821767
)
;
    }
    obstacle
    {
        type            calculated;
        value           nonuniform List<scalar> 
40
(
0
0
0
0
0
0
3.80647e-19
2.13695e-14
3.20161e-11
7.05483e-09
0
2.46846e-17
3.04914e-17
0
3.42815e-18
5.24164e-18
2.23754e-17
2.16236e-14
3.20492e-11
7.05483e-09
1.48869e-07
1.71884e-06
4.68396e-06
2.3447e-06
0.000306048
1.48869e-07
1.71884e-06
4.68396e-06
2.3447e-06
0.000306048
0.00788824
0.0271138
0.0545649
0.0922735
0.14056
0.00788824
0.0271138
0.0545649
0.0922735
0.14056
)
;
    }
    empty
    {
        type            empty;
    }
}


// ************************************************************************* //
