/*--------------------------------*- C++ -*----------------------------------*\
| =========                 |                                                 |
| \\      /  F ield         | OpenFOAM: The Open Source CFD Toolbox           |
|  \\    /   O peration     | Version:  v1912                                 |
|   \\  /    A nd           | Website:  www.openfoam.com                      |
|    \\/     M anipulation  |                                                 |
\*---------------------------------------------------------------------------*/
FoamFile
{
    version     2.0;
    format      ascii;
    class       volVectorField;
    location    "1.14";
    object      U;
}
// * * * * * * * * * * * * * * * * * * * * * * * * * * * * * * * * * * * * * //

dimensions      [0 1 -1 0 0 0 0];


internalField   nonuniform List<vector> 
1900
(
(1.68682e-07 2.51809e-11 0)
(2.12098e-07 -2.61216e-10 0)
(2.28301e-07 -6.44494e-10 0)
(-4.01744e-06 -1.54398e-09 0)
(-0.000258019 2.49249e-08 0)
(-0.003363 -5.46919e-07 0)
(-0.0144508 -3.80824e-05 0)
(-0.0299949 -0.000450898 0)
(-0.04216 -0.00153191 0)
(-0.0420823 -0.00774083 0)
(1.68374e-07 -4.42504e-11 0)
(2.11563e-07 -6.9391e-10 0)
(2.27496e-07 -1.20472e-09 0)
(-4.01323e-06 -7.38423e-09 0)
(-0.000256485 -3.147e-07 0)
(-0.00333444 -5.94571e-06 0)
(-0.0143646 -7.28874e-05 0)
(-0.0303772 -0.000544884 0)
(-0.0436549 -0.00189682 0)
(-0.0500677 -0.00669095 0)
(1.68147e-07 -7.96235e-14 0)
(2.11225e-07 -1.4179e-14 0)
(2.26885e-07 -4.81032e-14 0)
(-4.04816e-06 -2.04862e-14 0)
(-0.000258009 -4.92025e-14 0)
(-0.00334874 2.08192e-14 0)
(-0.0144212 -1.0566e-14 0)
(-0.0306313 -3.15453e-14 0)
(-0.0443201 -3.46623e-14 0)
(-0.0525286 -2.41293e-14 0)
(1.68374e-07 4.40521e-11 0)
(2.11563e-07 6.9389e-10 0)
(2.27496e-07 1.20461e-09 0)
(-4.01323e-06 7.3842e-09 0)
(-0.000256485 3.147e-07 0)
(-0.00333444 5.94571e-06 0)
(-0.0143646 7.28874e-05 0)
(-0.0303772 0.000544884 0)
(-0.0436549 0.00189682 0)
(-0.0500677 0.00669095 0)
(1.68682e-07 -2.52798e-11 0)
(2.12098e-07 2.61198e-10 0)
(2.28301e-07 6.44425e-10 0)
(-4.01744e-06 1.54396e-09 0)
(-0.000258019 -2.49249e-08 0)
(-0.003363 5.46919e-07 0)
(-0.0144508 3.80824e-05 0)
(-0.0299949 0.000450898 0)
(-0.04216 0.00153191 0)
(-0.0420823 0.00774083 0)
(-0.0453424 -0.0212998 0)
(-0.0607797 -0.0291668 0)
(-0.0739091 -0.0420067 0)
(-0.0943161 -0.0538485 0)
(-0.160164 -0.0491433 0)
(-0.0586961 -0.0153928 0)
(-0.071967 -0.0185725 0)
(-0.0895767 -0.0274782 0)
(-0.12414 -0.0370552 0)
(-0.188852 -0.035139 0)
(-0.0630868 -1.38213e-14 0)
(-0.0755735 -2.16937e-14 0)
(-0.0954708 1.66394e-14 0)
(-0.133119 -3.09591e-15 0)
(-0.195028 1.9625e-15 0)
(-0.0586961 0.0153928 0)
(-0.071967 0.0185725 0)
(-0.0895767 0.0274782 0)
(-0.12414 0.0370552 0)
(-0.188852 0.035139 0)
(-0.0453424 0.0212998 0)
(-0.0607797 0.0291668 0)
(-0.0739091 0.0420067 0)
(-0.0943161 0.0538485 0)
(-0.160164 0.0491433 0)
(-0.190072 0.00714753 0)
(-0.15388 0.0119701 0)
(-0.135965 0.0140666 0)
(-0.131684 0.0305582 0)
(-0.19814 0.0735229 0)
(-0.195637 0.0072434 0)
(-0.161442 0.00816084 0)
(-0.134547 0.00905952 0)
(-0.102288 0.0261887 0)
(-0.0629368 0.0872667 0)
(-0.19959 6.76088e-15 0)
(-0.164537 8.32671e-15 0)
(-0.132292 7.91932e-15 0)
(-0.0840488 4.69676e-14 0)
(0.0118603 6.08552e-14 0)
(-0.195637 -0.0072434 0)
(-0.161442 -0.00816084 0)
(-0.134547 -0.00905952 0)
(-0.102288 -0.0261887 0)
(-0.0629368 -0.0872667 0)
(-0.190072 -0.00714753 0)
(-0.15388 -0.0119701 0)
(-0.135965 -0.0140666 0)
(-0.131684 -0.0305582 0)
(-0.19814 -0.0735229 0)
(-0.383428 0.0566133 0)
(-0.109073 -0.138671 0)
(-0.183835 -0.138155 0)
(-0.252189 -0.0566824 0)
(-0.261032 -0.0182836 0)
(-0.225832 -0.0054618 0)
(-0.176001 -0.00233034 0)
(-0.120245 -0.00134551 0)
(-0.0675254 -0.000710242 0)
(-0.0268534 -0.000276317 0)
(-0.00578238 -5.84582e-05 0)
(-0.000457636 -4.47849e-06 0)
(-8.64281e-06 -7.93255e-08 0)
(-2.62003e-08 -2.16595e-10 0)
(-9.11505e-12 -4.94259e-14 0)
(-3.46564e-16 -1.84556e-16 0)
(5.07118e-17 -9.8276e-17 0)
(-6.46809e-17 -1.17424e-16 0)
(-1.24739e-16 1.85709e-16 0)
(3.37827e-17 -5.51361e-17 0)
(4.45512e-17 6.25183e-17 0)
(7.09661e-17 -1.37494e-16 0)
(-4.35547e-17 1.61717e-16 0)
(-2.04606e-16 6.33488e-16 0)
(4.87478e-16 -7.77442e-17 0)
(1.19563e-11 -4.49394e-16 0)
(3.32743e-08 -6.79706e-14 0)
(1.06245e-05 4.3543e-14 0)
(0.00054583 1.08344e-13 0)
(0.00672807 -1.43853e-13 0)
(0.0307524 8.6365e-14 0)
(0.0769503 -7.96943e-14 0)
(0.138122 1.45717e-13 0)
(0.206901 -1.16101e-13 0)
(0.278979 5.01041e-14 0)
(0.351258 -1.06087e-14 0)
(0.41884 3.16158e-14 0)
(0.476741 1.78019e-14 0)
(0.556352 3.35063e-14 0)
(1.19439 4.91344e-16 0)
(0.0762028 0.0811884 0)
(0.125889 -0.0979732 0)
(-0.0830164 -0.0905289 0)
(-0.228858 -0.032034 0)
(-0.25842 -0.0093923 0)
(-0.226899 -0.00281089 0)
(-0.176477 -0.00108846 0)
(-0.120139 -0.000624702 0)
(-0.0673544 -0.000349558 0)
(-0.0267677 -0.000137231 0)
(-0.00575828 -2.88658e-05 0)
(-0.000455024 -2.2281e-06 0)
(-8.5786e-06 -3.99913e-08 0)
(-2.5968e-08 -1.09567e-10 0)
(-9.03224e-12 -3.32274e-14 0)
(-2.63259e-16 -3.04517e-17 0)
(5.73902e-17 0 0)
(-6.41639e-17 2.79141e-17 0)
(-1.73131e-16 3.95642e-16 0)
(2.92834e-17 1.87324e-16 0)
(6.40904e-17 1.09349e-16 0)
(1.43563e-16 2.98058e-16 0)
(-1.36263e-17 4.19173e-16 0)
(-3.36259e-16 8.49188e-16 0)
(3.05331e-16 3.98641e-16 0)
(1.19564e-11 2.76003e-15 0)
(3.32743e-08 -8.1956e-14 0)
(1.06245e-05 4.70053e-14 0)
(0.00054583 1.06382e-13 0)
(0.00672807 -1.29128e-13 0)
(0.0307524 6.16431e-14 0)
(0.0769503 -6.78733e-14 0)
(0.138122 1.26463e-13 0)
(0.206901 -9.87731e-14 0)
(0.278979 4.7393e-14 0)
(0.351258 -1.08844e-14 0)
(0.41884 2.52427e-14 0)
(0.476741 7.76727e-15 0)
(0.556352 -1.37881e-14 0)
(1.19439 -2.12316e-14 0)
(0.210947 8.43877e-14 0)
(0.209581 2.54069e-14 0)
(-0.0428501 -2.37505e-16 0)
(-0.221309 5.5993e-15 0)
(-0.258218 8.80969e-15 0)
(-0.227344 -4.03906e-15 0)
(-0.17672 1.90518e-14 0)
(-0.120115 2.39094e-15 0)
(-0.0672968 -1.57223e-14 0)
(-0.0267351 6.61368e-14 0)
(-0.0057486 -2.3642e-14 0)
(-0.000453985 4.17965e-14 0)
(-8.55363e-06 -1.66494e-14 0)
(-2.588e-08 2.88244e-14 0)
(-8.99425e-12 -4.42911e-15 0)
(-2.68397e-16 0 0)
(4.26014e-17 0 0)
(6.34363e-19 4.0833e-17 0)
(-8.95708e-17 3.92643e-16 0)
(-5.76811e-17 2.90214e-16 0)
(6.41622e-17 2.33694e-16 0)
(1.49182e-16 5.5113e-16 0)
(-3.34587e-17 6.24722e-16 0)
(-2.84923e-16 6.08804e-16 0)
(2.87198e-16 6.61864e-16 0)
(1.19582e-11 5.58743e-15 0)
(3.32742e-08 -6.29003e-14 0)
(1.06245e-05 7.64256e-14 0)
(0.00054583 8.38028e-14 0)
(0.00672807 -1.06504e-13 0)
(0.0307524 2.59859e-14 0)
(0.0769503 -4.85088e-14 0)
(0.138122 1.16156e-13 0)
(0.206901 -8.3857e-14 0)
(0.278979 2.13272e-14 0)
(0.351258 4.38225e-15 0)
(0.41884 1.97276e-14 0)
(0.476741 -2.84344e-15 0)
(0.556352 -1.68253e-14 0)
(1.19439 -4.32383e-14 0)
(0.0762028 -0.0811884 0)
(0.125889 0.0979732 0)
(-0.0830164 0.0905289 0)
(-0.228858 0.032034 0)
(-0.25842 0.0093923 0)
(-0.226899 0.00281089 0)
(-0.176477 0.00108846 0)
(-0.120139 0.000624702 0)
(-0.0673544 0.000349558 0)
(-0.0267677 0.000137231 0)
(-0.00575828 2.88658e-05 0)
(-0.000455024 2.2281e-06 0)
(-8.5786e-06 3.99913e-08 0)
(-2.5968e-08 1.09613e-10 0)
(-9.02784e-12 5.29897e-14 0)
(-3.21901e-16 0 0)
(-1.58263e-17 0 0)
(-2.23409e-17 0 0)
(4.14517e-18 1.34264e-16 0)
(-4.60345e-17 1.04274e-16 0)
(5.8882e-17 8.65106e-17 0)
(1.85394e-16 1.46953e-16 0)
(2.94278e-19 7.26689e-17 0)
(-3.29785e-16 2.01397e-16 0)
(3.33381e-16 4.47317e-16 0)
(1.19606e-11 1.31277e-14 0)
(3.32742e-08 -5.27689e-14 0)
(1.06245e-05 5.9955e-14 0)
(0.00054583 5.88312e-14 0)
(0.00672807 -6.42031e-14 0)
(0.0307524 -1.78512e-14 0)
(0.0769503 -4.09182e-14 0)
(0.138122 1.02597e-13 0)
(0.206901 -7.55046e-14 0)
(0.278979 9.10978e-15 0)
(0.351258 1.48329e-14 0)
(0.41884 1.80429e-14 0)
(0.476741 -1.45181e-14 0)
(0.556352 -1.67253e-14 0)
(1.19439 -1.64572e-14 0)
(-0.383428 -0.0566133 0)
(-0.109073 0.138671 0)
(-0.183835 0.138155 0)
(-0.252189 0.0566824 0)
(-0.261032 0.0182836 0)
(-0.225832 0.0054618 0)
(-0.176001 0.00233034 0)
(-0.120245 0.00134551 0)
(-0.0675254 0.000710242 0)
(-0.0268534 0.000276317 0)
(-0.00578238 5.84582e-05 0)
(-0.000457636 4.47849e-06 0)
(-8.64281e-06 7.93255e-08 0)
(-2.62003e-08 2.16594e-10 0)
(-9.12781e-12 8.40191e-14 0)
(-4.00268e-16 0 0)
(-8.82121e-17 0 0)
(-1.26862e-17 0 0)
(1.39731e-18 -7.61293e-17 0)
(-8.47615e-19 -7.79749e-17 0)
(8.87461e-18 0 0)
(6.3659e-17 -9.55077e-17 0)
(-3.29134e-18 -4.79153e-16 0)
(-1.69532e-16 -1.02659e-16 0)
(4.54289e-16 1.75097e-16 0)
(1.19658e-11 5.491e-15 0)
(3.32742e-08 -2.96884e-14 0)
(1.06245e-05 1.86701e-14 0)
(0.00054583 4.3353e-14 0)
(0.00672807 -1.61721e-14 0)
(0.0307524 -6.56762e-14 0)
(0.0769503 -2.60939e-14 0)
(0.138122 7.36087e-14 0)
(0.206901 -4.61697e-14 0)
(0.278979 9.68476e-15 0)
(0.351258 1.96072e-14 0)
(0.41884 -8.93905e-15 0)
(0.476741 -1.73731e-14 0)
(0.556352 -3.62911e-14 0)
(1.19439 -1.85229e-14 0)
(-1.02958 -0.0956567 0)
(-0.386855 0.160845 0)
(-0.305489 0.160789 0)
(-0.290563 0.0804507 0)
(-0.270001 0.0306241 0)
(-0.226982 0.0119026 0)
(-0.176588 0.00607574 0)
(-0.120964 0.00318678 0)
(-0.0681499 0.001501 0)
(-0.0272169 0.000520052 0)
(-0.00589035 0.000100603 0)
(-0.000468866 7.30805e-06 0)
(-8.90667e-06 1.27016e-07 0)
(-2.71401e-08 3.50811e-10 0)
(-9.4863e-12 9.68491e-14 0)
(-4.31741e-16 1.37337e-16 0)
(-2.77787e-17 1.9361e-17 0)
(-5.01395e-17 -5.5715e-19 0)
(-3.94178e-17 -3.90701e-17 0)
(-1.23446e-18 5.59936e-17 0)
(1.89288e-17 9.75012e-19 0)
(2.29833e-19 -1.06207e-16 0)
(-9.69596e-19 -2.64437e-16 0)
(-6.73946e-17 -2.49533e-16 0)
(5.64695e-16 -1.25359e-18 0)
(1.19646e-11 -1.7062e-15 0)
(3.32742e-08 7.18375e-16 0)
(1.06245e-05 -7.93125e-15 0)
(0.00054583 -1.77082e-14 0)
(0.00672807 9.11496e-14 0)
(0.0307524 -1.20912e-13 0)
(0.0769503 8.34771e-15 0)
(0.138122 3.77376e-14 0)
(0.206901 1.47978e-14 0)
(0.278979 2.0732e-14 0)
(0.351258 2.91791e-14 0)
(0.41884 -3.51081e-15 0)
(0.476741 -2.73129e-14 0)
(0.556352 1.47557e-15 0)
(1.19439 4.22851e-15 0)
(-1.19482 -0.0499727 0)
(-0.527139 0.120006 0)
(-0.400323 0.140912 0)
(-0.336411 0.0770822 0)
(-0.289967 0.0383068 0)
(-0.237486 0.0201909 0)
(-0.181827 0.0107395 0)
(-0.123858 0.00522642 0)
(-0.0697757 0.00218686 0)
(-0.0279681 0.000685118 0)
(-0.00609278 0.00012438 0)
(-0.000489222 8.78974e-06 0)
(-9.38353e-06 1.52719e-07 0)
(-2.88655e-08 4.30335e-10 0)
(-1.0168e-11 1.48283e-13 0)
(-6.43812e-16 2.86514e-16 0)
(-5.55508e-18 1.0551e-16 0)
(-1.01246e-16 9.75012e-18 0)
(-7.62263e-17 9.91727e-17 0)
(-1.4148e-18 2.47375e-16 0)
(3.09327e-17 9.63869e-17 0)
(5.05114e-19 -1.39287e-18 0)
(3.71965e-18 -6.90169e-17 0)
(-8.18666e-17 -9.16512e-17 0)
(5.47246e-16 -4.61738e-17 0)
(1.19627e-11 -2.13897e-15 0)
(3.32742e-08 2.74286e-14 0)
(1.06245e-05 -3.71853e-14 0)
(0.00054583 -1.12631e-13 0)
(0.00672807 1.96948e-13 0)
(0.0307524 -1.51782e-13 0)
(0.0769503 -3.89617e-15 0)
(0.138122 -2.20337e-14 0)
(0.206901 6.22317e-14 0)
(0.278979 -3.04921e-14 0)
(0.351258 2.74147e-14 0)
(0.41884 4.28852e-14 0)
(0.476741 -1.92153e-14 0)
(0.556352 8.69761e-15 0)
(1.19439 3.82706e-14 0)
(-1.20526 0.0100326 0)
(-0.551627 0.0746426 0)
(-0.437148 0.101366 0)
(-0.367002 0.0608838 0)
(-0.310348 0.0357641 0)
(-0.250621 0.0213127 0)
(-0.189127 0.0116873 0)
(-0.1279 0.0057352 0)
(-0.0718828 0.00236266 0)
(-0.0288579 0.000719161 0)
(-0.00631707 0.00012702 0)
(-0.000511073 8.84132e-06 0)
(-9.89571e-06 1.53704e-07 0)
(-3.07661e-08 4.39081e-10 0)
(-1.09784e-11 1.45908e-13 0)
(-6.85143e-16 1.02376e-16 0)
(1.38999e-17 1.21598e-16 0)
(-9.52096e-17 4.88899e-17 0)
(-9.93257e-17 6.82509e-18 0)
(-3.71998e-18 8.27368e-17 0)
(4.30928e-17 0 0)
(4.80923e-18 1.28841e-17 0)
(7.65346e-18 1.19021e-16 0)
(-6.43576e-17 2.35396e-17 0)
(5.47765e-16 4.61738e-17 0)
(1.19593e-11 2.37987e-15 0)
(3.32742e-08 4.24681e-14 0)
(1.06245e-05 -1.638e-14 0)
(0.00054583 -1.81879e-13 0)
(0.00672807 2.11773e-13 0)
(0.0307524 -2.60781e-13 0)
(0.0769503 8.02369e-15 0)
(0.138122 -4.34121e-14 0)
(0.206901 9.45883e-14 0)
(0.278979 -5.94213e-14 0)
(0.351258 2.30061e-14 0)
(0.41884 8.21465e-14 0)
(0.476741 -7.61831e-15 0)
(0.556352 5.62719e-15 0)
(1.19439 7.3756e-14 0)
(-1.20303 0.0277663 0)
(-0.555201 0.0502739 0)
(-0.453756 0.0702102 0)
(-0.389136 0.0449003 0)
(-0.327374 0.0290402 0)
(-0.262048 0.0178274 0)
(-0.19605 0.00977757 0)
(-0.131904 0.00476169 0)
(-0.0739546 0.00191961 0)
(-0.0296938 0.000565212 0)
(-0.00651709 9.58664e-05 0)
(-0.000529824 6.40518e-06 0)
(-1.03268e-05 1.06865e-07 0)
(-3.23587e-08 2.90795e-10 0)
(-1.16308e-11 7.18901e-14 0)
(-7.17808e-16 -8.25975e-17 0)
(1.35602e-17 -1.44163e-16 0)
(-2.60041e-17 -4.3388e-17 0)
(-3.08645e-17 0 0)
(2.67275e-17 -7.98814e-17 0)
(8.66363e-17 0 0)
(8.52349e-18 0 0)
(1.17927e-17 5.75954e-17 0)
(-7.32986e-17 -7.93939e-18 0)
(5.47852e-16 1.1143e-17 0)
(1.19741e-11 1.21638e-14 0)
(3.32743e-08 -2.07845e-15 0)
(1.06245e-05 4.54295e-14 0)
(0.00054583 -1.92328e-13 0)
(0.00672807 2.45881e-13 0)
(0.0307524 -2.44264e-13 0)
(0.0769503 6.47216e-14 0)
(0.138122 -6.57003e-14 0)
(0.206901 9.43754e-14 0)
(0.278979 -7.78223e-14 0)
(0.351258 7.21211e-15 0)
(0.41884 8.29111e-14 0)
(0.476741 -3.40339e-14 0)
(0.556352 1.04636e-14 0)
(1.19439 3.69414e-14 0)
(-1.20061 0.0285919 0)
(-0.554964 0.0343574 0)
(-0.464203 0.0454692 0)
(-0.403322 0.029548 0)
(-0.338872 0.0197179 0)
(-0.270206 0.0120893 0)
(-0.201339 0.00654027 0)
(-0.135027 0.00309283 0)
(-0.0755365 0.00118568 0)
(-0.0302972 0.000324085 0)
(-0.00665043 4.96592e-05 0)
(-0.000541261 2.92878e-06 0)
(-1.05678e-05 3.8651e-08 0)
(-3.31734e-08 9.41315e-11 0)
(-1.19582e-11 6.69366e-14 0)
(-6.14723e-16 1.38476e-14 0)
(1.77281e-16 1.42156e-14 0)
(7.00462e-18 1.43715e-14 0)
(-1.08848e-16 1.41701e-14 0)
(3.6429e-16 1.43043e-14 0)
(1.71396e-16 1.49358e-14 0)
(-1.46246e-16 1.4352e-14 0)
(-3.06904e-17 1.42545e-14 0)
(-1.39343e-16 1.42404e-14 0)
(5.91018e-16 1.42306e-14 0)
(1.19986e-11 3.58126e-14 0)
(3.32742e-08 -3.80276e-15 0)
(1.06245e-05 8.10559e-14 0)
(0.00054583 -2.77417e-14 0)
(0.00672807 2.80788e-13 0)
(0.0307524 -1.01838e-13 0)
(0.0769503 1.18117e-13 0)
(0.138122 -7.77779e-14 0)
(0.206901 7.97852e-14 0)
(0.278979 -8.18206e-14 0)
(0.351258 -2.36193e-15 0)
(0.41884 8.18042e-14 0)
(0.476741 -6.28076e-14 0)
(0.556352 -8.33895e-16 0)
(1.19439 1.46939e-14 0)
(-1.19804 0.0221206 0)
(-0.554219 0.0217818 0)
(-0.471431 0.0249095 0)
(-0.411886 0.01652 0)
(-0.345908 0.0108308 0)
(-0.2753 0.00641761 0)
(-0.20466 0.00331697 0)
(-0.136945 0.00146904 0)
(-0.0764585 0.000512624 0)
(-0.030617 0.000120942 0)
(-0.00671094 1.40629e-05 0)
(-0.000545441 5.95635e-07 0)
(-1.06368e-05 1.54994e-08 0)
(-3.33835e-08 2.58421e-10 0)
(-1.20355e-11 2.1287e-10 0)
(-9.13199e-16 2.12853e-10 0)
(3.90857e-15 2.12855e-10 0)
(7.70644e-15 2.12862e-10 0)
(-5.03111e-15 2.12869e-10 0)
(-2.04309e-15 2.12851e-10 0)
(-2.12208e-15 2.12862e-10 0)
(-1.74422e-14 2.1284e-10 0)
(8.96784e-15 2.1283e-10 0)
(3.36951e-15 2.12857e-10 0)
(-8.34622e-15 2.1284e-10 0)
(1.20347e-11 2.12873e-10 0)
(3.32743e-08 2.12951e-10 0)
(1.06245e-05 2.12794e-10 0)
(0.00054583 2.12924e-10 0)
(0.00672807 2.11351e-10 0)
(0.0307524 2.03539e-10 0)
(0.0769503 1.83543e-10 0)
(0.138122 1.50413e-10 0)
(0.206901 1.11301e-10 0)
(0.278979 7.43531e-11 0)
(0.351258 4.62065e-11 0)
(0.41884 2.59568e-11 0)
(0.476741 1.18406e-11 0)
(0.556352 2.30128e-12 0)
(1.19439 2.68662e-13 0)
(-1.19566 0.0134434 0)
(-0.554721 0.0107752 0)
(-0.475132 0.00995429 0)
(-0.416535 0.00680438 0)
(-0.34955 0.00421124 0)
(-0.277866 0.00234883 0)
(-0.206256 0.00110779 0)
(-0.137805 0.000430037 0)
(-0.0768327 0.00012706 0)
(-0.0307259 2.75072e-05 0)
(-0.00672706 5.27906e-06 0)
(-0.000546058 4.84146e-07 0)
(-1.06334e-05 2.71736e-07 0)
(-3.33151e-08 2.75639e-07 0)
(-1.20354e-11 2.75665e-07 0)
(-9.19702e-14 2.75665e-07 0)
(-2.17624e-14 2.75665e-07 0)
(-1.13907e-14 2.75665e-07 0)
(-8.92527e-15 2.75665e-07 0)
(-1.82201e-15 2.75665e-07 0)
(2.51612e-15 2.75665e-07 0)
(1.48461e-14 2.75665e-07 0)
(-1.07096e-14 2.75665e-07 0)
(-1.5059e-14 2.75665e-07 0)
(8.90751e-15 2.75665e-07 0)
(1.1957e-11 2.75665e-07 0)
(3.32745e-08 2.75665e-07 0)
(1.06245e-05 2.75664e-07 0)
(0.00054583 2.75557e-07 0)
(0.00672807 2.74035e-07 0)
(0.0307524 2.66298e-07 0)
(0.0769503 2.46286e-07 0)
(0.138122 2.12471e-07 0)
(0.206901 1.6964e-07 0)
(0.278979 1.25822e-07 0)
(0.351258 8.83548e-08 0)
(0.41884 5.74013e-08 0)
(0.476741 3.22088e-08 0)
(0.556352 8.19994e-09 0)
(1.19439 1.2269e-09 0)
(-1.19464 0.00454018 0)
(-0.555659 0.00306241 0)
(-0.476346 0.00231023 0)
(-0.418291 0.00169023 0)
(-0.350882 0.00104527 0)
(-0.278772 0.000628999 0)
(-0.206804 0.000370867 0)
(-0.138083 0.000210389 0)
(-0.0769387 0.000103148 0)
(-0.0307512 5.38172e-05 0)
(-0.00672786 4.48087e-05 0)
(-0.000545846 4.56163e-05 0)
(-1.06258e-05 4.57581e-05 0)
(-3.3285e-08 4.57619e-05 0)
(-1.19221e-11 4.57619e-05 0)
(-2.73216e-14 4.57619e-05 0)
(6.19005e-15 4.57619e-05 0)
(1.08063e-13 4.57619e-05 0)
(1.32017e-13 4.57619e-05 0)
(5.22193e-14 4.57619e-05 0)
(-2.79508e-14 4.57619e-05 0)
(-1.40598e-13 4.57619e-05 0)
(-1.39784e-13 4.57619e-05 0)
(-2.13072e-14 4.57619e-05 0)
(1.26502e-13 4.57619e-05 0)
(1.22056e-11 4.57619e-05 0)
(3.32732e-08 4.57619e-05 0)
(1.06242e-05 4.57617e-05 0)
(0.000545819 4.57477e-05 0)
(0.00672796 4.55547e-05 0)
(0.030752 4.46013e-05 0)
(0.0769493 4.21579e-05 0)
(0.13812 3.79583e-05 0)
(0.2069 3.23962e-05 0)
(0.278978 2.62733e-05 0)
(0.351257 2.05232e-05 0)
(0.418839 1.51356e-05 0)
(0.47674 1.00937e-05 0)
(0.556351 3.41096e-06 0)
(1.19439 9.59078e-07 0)
(-1.1945 0.000876123 0)
(-0.556225 0.00106137 0)
(-0.47668 0.0012562 0)
(-0.418748 0.0012224 0)
(-0.351164 0.0011006 0)
(-0.278891 0.00106018 0)
(-0.206828 0.00111249 0)
(-0.13807 0.00120925 0)
(-0.0769189 0.00130353 0)
(-0.0307385 0.00136348 0)
(-0.00672471 0.00138601 0)
(-0.000545511 0.00139096 0)
(-1.06163e-05 0.00139132 0)
(-3.32393e-08 0.00139133 0)
(-1.2022e-11 0.00139133 0)
(-8.76112e-14 0.00139133 0)
(-8.93613e-14 0.00139133 0)
(-8.38274e-14 0.00139133 0)
(-1.01673e-13 0.00139133 0)
(-6.73002e-14 0.00139133 0)
(2.08571e-14 0.00139133 0)
(1.29508e-13 0.00139133 0)
(1.1075e-13 0.00139133 0)
(-2.9718e-14 0.00139133 0)
(-1.23999e-13 0.00139133 0)
(1.17604e-11 0.00139133 0)
(3.32379e-08 0.00139133 0)
(1.06153e-05 0.00139132 0)
(0.000545457 0.00139098 0)
(0.00672441 0.00138655 0)
(0.0307386 0.00136566 0)
(0.076921 0.00131353 0)
(0.138077 0.00122386 0)
(0.206846 0.00110178 0)
(0.278919 0.000959783 0)
(0.351197 0.000816828 0)
(0.418774 0.000667968 0)
(0.476693 0.000513505 0)
(0.556279 0.000229579 0)
(1.19439 0.000107566 0)
(-1.19421 0.00247449 0)
(-0.555544 0.00352387 0)
(-0.476305 0.00618229 0)
(-0.418244 0.00729681 0)
(-0.350714 0.00832564 0)
(-0.278461 0.00922597 0)
(-0.206435 0.0100642 0)
(-0.137754 0.0107649 0)
(-0.076708 0.0112828 0)
(-0.0306337 0.0115907 0)
(-0.00669457 0.0117192 0)
(-0.000542208 0.0117481 0)
(-1.05305e-05 0.0117505 0)
(-3.28901e-08 0.0117505 0)
(-1.18747e-11 0.0117505 0)
(6.67172e-14 0.0117505 0)
(1.82091e-13 0.0117505 0)
(1.81809e-13 0.0117505 0)
(1.20765e-13 0.0117505 0)
(6.03673e-14 0.0117505 0)
(1.17118e-14 0.0117505 0)
(-7.55023e-14 0.0117505 0)
(-1.75633e-13 0.0117505 0)
(-1.40345e-13 0.0117505 0)
(-8.29772e-14 0.0117505 0)
(1.18197e-11 0.0117505 0)
(3.28928e-08 0.0117505 0)
(1.05309e-05 0.0117505 0)
(0.000542207 0.0117481 0)
(0.00669434 0.0117195 0)
(0.030632 0.0115926 0)
(0.0767031 0.0112906 0)
(0.137746 0.0107818 0)
(0.206423 0.0100858 0)
(0.278438 0.00925012 0)
(0.35067 0.00837852 0)
(0.418172 0.0073929 0)
(0.476203 0.0063097 0)
(0.555439 0.00362797 0)
(1.19422 0.0024571 0)
(-1.19296 0.0171996 0)
(-0.552613 0.0201071 0)
(-0.474546 0.0287674 0)
(-0.416272 0.0315645 0)
(-0.349015 0.0340903 0)
(-0.27698 0.0361972 0)
(-0.205168 0.0382266 0)
(-0.136756 0.0399027 0)
(-0.0760285 0.0411496 0)
(-0.030282 0.0419202 0)
(-0.00658877 0.0422641 0)
(-0.000530125 0.0423467 0)
(-1.02053e-05 0.0423537 0)
(-3.15334e-08 0.0423539 0)
(-1.11796e-11 0.0423539 0)
(-7.62373e-14 0.0423539 0)
(-1.2526e-13 0.0423539 0)
(-1.27045e-13 0.0423539 0)
(-6.30601e-14 0.0423539 0)
(-6.22462e-14 0.0423539 0)
(-1.02424e-13 0.0423539 0)
(-1.25464e-13 0.0423539 0)
(-6.43057e-14 0.0423539 0)
(3.16843e-14 0.0423539 0)
(9.72161e-14 0.0423539 0)
(1.1276e-11 0.0423539 0)
(3.15343e-08 0.0423539 0)
(1.02056e-05 0.0423537 0)
(0.00053013 0.0423467 0)
(0.00658873 0.0422642 0)
(0.0302814 0.0419212 0)
(0.0760267 0.0411543 0)
(0.136752 0.0399145 0)
(0.205159 0.0382478 0)
(0.27696 0.0362346 0)
(0.348979 0.0341516 0)
(0.416217 0.0316476 0)
(0.474481 0.0288617 0)
(0.552553 0.0201786 0)
(1.19293 0.017205 0)
(-1.18836 0.0553875 0)
(-0.548428 0.0574774 0)
(-0.471292 0.0723724 0)
(-0.412879 0.0764541 0)
(-0.346031 0.0802436 0)
(-0.274379 0.0832328 0)
(-0.202956 0.0862767 0)
(-0.134977 0.0888276 0)
(-0.0747607 0.0907811 0)
(-0.0295849 0.0920488 0)
(-0.00636709 0.0926495 0)
(-0.000503877 0.0928007 0)
(-9.48782e-06 0.0928139 0)
(-2.85374e-08 0.0928141 0)
(-9.7049e-12 0.0928141 0)
(1.14796e-13 0.0928141 0)
(1.72673e-13 0.0928141 0)
(1.6578e-13 0.0928141 0)
(1.01745e-13 0.0928141 0)
(6.91194e-14 0.0928141 0)
(6.32771e-14 0.0928141 0)
(7.09982e-14 0.0928141 0)
(4.92407e-15 0.0928141 0)
(-2.61899e-14 0.0928141 0)
(-8.04248e-15 0.0928141 0)
(9.83439e-12 0.0928141 0)
(2.85377e-08 0.0928141 0)
(9.48788e-06 0.0928139 0)
(0.000503879 0.0928007 0)
(0.0063671 0.0926495 0)
(0.0295849 0.0920489 0)
(0.0747604 0.0907819 0)
(0.134976 0.08883 0)
(0.202954 0.0862832 0)
(0.274373 0.0832482 0)
(0.346022 0.0802699 0)
(0.412868 0.0764937 0)
(0.47128 0.0724183 0)
(0.548422 0.0575112 0)
(1.18835 0.0554006 0)
(-1.17901 0.11512 0)
(-0.544906 0.111036 0)
(-0.46686 0.130579 0)
(-0.408681 0.134993 0)
(-0.342125 0.139444 0)
(-0.270903 0.142891 0)
(-0.199941 0.146605 0)
(-0.132485 0.149818 0)
(-0.072912 0.15235 0)
(-0.0285238 0.154061 0)
(-0.0060193 0.154903 0)
(-0.000462356 0.155119 0)
(-8.36597e-06 0.155138 0)
(-2.39736e-08 0.155139 0)
(-7.88994e-12 0.155139 0)
(-2.83265e-14 0.155139 0)
(-1.69437e-14 0.155139 0)
(-2.89367e-14 0.155139 0)
(-3.43584e-14 0.155139 0)
(-3.17616e-14 0.155139 0)
(-3.29618e-14 0.155139 0)
(-4.79704e-14 0.155139 0)
(-4.98633e-14 0.155139 0)
(-5.07551e-14 0.155139 0)
(-7.51685e-14 0.155139 0)
(7.67873e-12 0.155139 0)
(2.39733e-08 0.155139 0)
(8.36597e-06 0.155138 0)
(0.000462356 0.155119 0)
(0.0060193 0.154903 0)
(0.0285239 0.154061 0)
(0.0729121 0.15235 0)
(0.132485 0.149818 0)
(0.199941 0.146606 0)
(0.270903 0.142893 0)
(0.342124 0.139447 0)
(0.408681 0.134999 0)
(0.46686 0.130584 0)
(0.544908 0.111039 0)
(1.17901 0.115123 0)
(-1.16162 0.180681 0)
(-0.542363 0.171965 0)
(-0.462119 0.197397 0)
(-0.403978 0.20032 0)
(-0.337959 0.205497 0)
(-0.266756 0.208882 0)
(-0.196328 0.213142 0)
(-0.129403 0.21685 0)
(-0.0705663 0.219867 0)
(-0.0271458 0.221955 0)
(-0.0055646 0.222999 0)
(-0.00040895 0.223265 0)
(-6.97519e-06 0.223287 0)
(-1.86028e-08 0.223287 0)
(-5.58661e-12 0.223287 0)
(-1.01794e-14 0.223287 0)
(-9.41032e-15 0.223287 0)
(-4.4883e-14 0.223287 0)
(-3.14957e-14 0.223287 0)
(1.46601e-16 0.223287 0)
(-1.39671e-14 0.223287 0)
(-2.67041e-14 0.223287 0)
(-5.37467e-14 0.223287 0)
(-6.59879e-14 0.223287 0)
(-2.44646e-14 0.223287 0)
(5.57905e-12 0.223287 0)
(1.86028e-08 0.223287 0)
(6.97519e-06 0.223287 0)
(0.00040895 0.223265 0)
(0.0055646 0.222999 0)
(0.0271459 0.221955 0)
(0.0705664 0.219867 0)
(0.129403 0.21685 0)
(0.196328 0.213141 0)
(0.266757 0.208881 0)
(0.337959 0.205496 0)
(0.403979 0.200319 0)
(0.462121 0.197395 0)
(0.542364 0.171963 0)
(1.16162 0.180681 0)
(-1.14261 0.264183 0)
(-0.540147 0.235793 0)
(-0.456591 0.267323 0)
(-0.399412 0.268916 0)
(-0.332979 0.273617 0)
(-0.262508 0.277799 0)
(-0.192191 0.282167 0)
(-0.12586 0.286393 0)
(-0.0678026 0.289844 0)
(-0.0255143 0.292259 0)
(-0.00503539 0.293453 0)
(-0.000349362 0.293746 0)
(-5.51853e-06 0.293769 0)
(-1.34064e-08 0.29377 0)
(-3.60411e-12 0.29377 0)
(3.90349e-14 0.29377 0)
(3.2333e-14 0.29377 0)
(8.20025e-15 0.29377 0)
(8.1326e-15 0.29377 0)
(2.40293e-14 0.29377 0)
(2.73532e-14 0.29377 0)
(3.48688e-14 0.29377 0)
(1.49593e-14 0.29377 0)
(-1.62975e-14 0.29377 0)
(-2.85294e-15 0.29377 0)
(3.59889e-12 0.29377 0)
(1.34062e-08 0.29377 0)
(5.51853e-06 0.293769 0)
(0.000349362 0.293746 0)
(0.00503539 0.293453 0)
(0.0255143 0.292259 0)
(0.0678026 0.289844 0)
(0.12586 0.286393 0)
(0.192191 0.282167 0)
(0.262508 0.277799 0)
(0.332979 0.273616 0)
(0.399413 0.268915 0)
(0.456592 0.267322 0)
(0.540147 0.235792 0)
(1.14261 0.264183 0)
(-1.11191 0.315964 0)
(-0.53927 0.298584 0)
(-0.453733 0.342279 0)
(-0.394588 0.336805 0)
(-0.330955 0.343917 0)
(-0.258597 0.346281 0)
(-0.188993 0.351305 0)
(-0.122642 0.355577 0)
(-0.0651228 0.359409 0)
(-0.0238556 0.362131 0)
(-0.00449846 0.363464 0)
(-0.000291528 0.363775 0)
(-4.20771e-06 0.363798 0)
(-9.16417e-09 0.363799 0)
(-2.16191e-12 0.363799 0)
(6.45947e-14 0.363799 0)
(8.35467e-14 0.363799 0)
(8.98617e-14 0.363799 0)
(7.06567e-14 0.363799 0)
(3.52164e-14 0.363799 0)
(1.16564e-14 0.363799 0)
(-7.48475e-15 0.363799 0)
(-4.11666e-14 0.363799 0)
(-7.73858e-14 0.363799 0)
(-8.28295e-14 0.363799 0)
(2.09457e-12 0.363799 0)
(9.16417e-09 0.363799 0)
(4.20771e-06 0.363798 0)
(0.000291528 0.363775 0)
(0.00449846 0.363464 0)
(0.0238556 0.362131 0)
(0.0651228 0.359409 0)
(0.122642 0.355577 0)
(0.188993 0.351305 0)
(0.258597 0.346281 0)
(0.330955 0.343916 0)
(0.394588 0.336805 0)
(0.453733 0.342279 0)
(0.53927 0.298584 0)
(1.11191 0.315964 0)
(-1.0917 0.40805 0)
(-0.535144 0.357052 0)
(-0.446377 0.404326 0)
(-0.389115 0.399735 0)
(-0.32393 0.40531 0)
(-0.253925 0.410297 0)
(-0.184065 0.415075 0)
(-0.118457 0.419803 0)
(-0.0617733 0.423931 0)
(-0.0219016 0.42698 0)
(-0.00390682 0.428484 0)
(-0.000233158 0.428826 0)
(-3.02187e-06 0.428849 0)
(-5.78709e-09 0.42885 0)
(-1.28812e-12 0.42885 0)
(-3.03147e-14 0.42885 0)
(-2.49356e-14 0.42885 0)
(-4.72003e-14 0.42885 0)
(-5.56427e-14 0.42885 0)
(-3.9768e-14 0.42885 0)
(-7.5018e-15 0.42885 0)
(2.83321e-14 0.42885 0)
(3.41795e-14 0.42885 0)
(4.22302e-14 0.42885 0)
(5.26378e-14 0.42885 0)
(1.19685e-12 0.42885 0)
(5.78708e-09 0.42885 0)
(3.02187e-06 0.428849 0)
(0.000233158 0.428826 0)
(0.00390682 0.428484 0)
(0.0219016 0.42698 0)
(0.0617733 0.423931 0)
(0.118457 0.419803 0)
(0.184065 0.415075 0)
(0.253925 0.410297 0)
(0.32393 0.40531 0)
(0.389115 0.399735 0)
(0.446377 0.404326 0)
(0.535144 0.357052 0)
(1.0917 0.40805 0)
(-1.06273 0.417713 0)
(-0.539569 0.407932 0)
(-0.4584 0.466435 0)
(-0.393344 0.454548 0)
(-0.328239 0.461691 0)
(-0.251613 0.465163 0)
(-0.180689 0.470883 0)
(-0.114285 0.475729 0)
(-0.0583039 0.47993 0)
(-0.019857 0.482741 0)
(-0.00330088 0.484028 0)
(-0.000176999 0.484298 0)
(-1.99273e-06 0.484315 0)
(-3.22715e-09 0.484315 0)
(-6.98699e-13 0.484315 0)
(5.29919e-15 0.484315 0)
(2.96832e-14 0.484315 0)
(1.79796e-14 0.484315 0)
(2.7656e-14 0.484315 0)
(2.08388e-14 0.484315 0)
(1.18378e-14 0.484315 0)
(3.77189e-15 0.484315 0)
(-2.9183e-14 0.484315 0)
(-3.60185e-14 0.484315 0)
(-4.9424e-14 0.484315 0)
(4.54576e-13 0.484315 0)
(3.22724e-09 0.484315 0)
(1.99273e-06 0.484315 0)
(0.000176999 0.484298 0)
(0.00330088 0.484028 0)
(0.019857 0.482741 0)
(0.0583039 0.47993 0)
(0.114285 0.475729 0)
(0.180689 0.470883 0)
(0.251613 0.465163 0)
(0.328239 0.461691 0)
(0.393344 0.454548 0)
(0.4584 0.466435 0)
(0.539569 0.407932 0)
(1.06273 0.417713 0)
(-0.982208 0.531209 0)
(-0.491975 0.498322 0)
(-0.401012 0.547271 0)
(-0.348325 0.543154 0)
(-0.287746 0.546925 0)
(-0.223405 0.547852 0)
(-0.158046 0.550087 0)
(-0.0965116 0.552884 0)
(-0.0452051 0.556768 0)
(-0.0132817 0.560882 0)
(-0.00178793 0.563173 0)
(-7.43332e-05 0.563644 0)
(-6.39491e-07 0.563669 0)
(-7.95565e-10 0.563669 0)
(-1.07967e-13 0.563669 0)
(-2.00896e-15 0.563669 0)
(-1.86266e-14 0.563669 0)
(-2.1191e-14 0.563669 0)
(-1.52351e-14 0.563669 0)
(-1.38826e-14 0.563669 0)
(3.34756e-16 0.563669 0)
(1.22458e-14 0.563669 0)
(8.77708e-16 0.563669 0)
(-1.74398e-14 0.563669 0)
(-2.71888e-14 0.563669 0)
(8.14775e-14 0.563669 0)
(7.9557e-10 0.563669 0)
(6.39491e-07 0.563669 0)
(7.43332e-05 0.563644 0)
(0.00178793 0.563173 0)
(0.0132817 0.560882 0)
(0.0452051 0.556768 0)
(0.0965116 0.552884 0)
(0.158046 0.550087 0)
(0.223405 0.547852 0)
(0.287746 0.546925 0)
(0.348325 0.543154 0)
(0.401012 0.547271 0)
(0.491975 0.498322 0)
(0.982208 0.531209 0)
(-1.03886 1.0476 0)
(-0.523931 0.988118 0)
(-0.408549 1.06808 0)
(-0.398125 1.09906 0)
(-0.302913 1.1199 0)
(-0.248024 1.15074 0)
(-0.164427 1.16971 0)
(-0.0981188 1.1859 0)
(-0.0422183 1.19422 0)
(-0.0106811 1.19778 0)
(-0.00109732 1.19859 0)
(-3.0202e-05 1.19867 0)
(-1.50632e-07 1.19867 0)
(-9.8237e-11 1.19867 0)
(-2.89411e-14 1.19867 0)
(-7.83818e-14 1.19867 0)
(-6.79116e-14 1.19867 0)
(-6.25119e-14 1.19867 0)
(-6.01115e-14 1.19867 0)
(-2.71455e-14 1.19867 0)
(-3.49522e-15 1.19867 0)
(2.37042e-14 1.19867 0)
(1.5941e-14 1.19867 0)
(1.26741e-15 1.19867 0)
(2.13638e-14 1.19867 0)
(3.61796e-14 1.19867 0)
(9.81966e-11 1.19867 0)
(1.50632e-07 1.19867 0)
(3.0202e-05 1.19867 0)
(0.00109732 1.19859 0)
(0.0106811 1.19778 0)
(0.0422183 1.19422 0)
(0.0981188 1.1859 0)
(0.164427 1.16971 0)
(0.248024 1.15074 0)
(0.302913 1.1199 0)
(0.398125 1.09906 0)
(0.408549 1.06808 0)
(0.523931 0.988118 0)
(1.03886 1.0476 0)
(-1.03886 -1.0476 0)
(-0.523931 -0.988118 0)
(-0.408549 -1.06808 0)
(-0.398125 -1.09906 0)
(-0.302913 -1.1199 0)
(-0.248024 -1.15074 0)
(-0.164427 -1.16971 0)
(-0.0981188 -1.1859 0)
(-0.0422183 -1.19422 0)
(-0.0106811 -1.19778 0)
(-0.00109732 -1.19859 0)
(-3.0202e-05 -1.19867 0)
(-1.50632e-07 -1.19867 0)
(-9.81808e-11 -1.19867 0)
(-3.53045e-14 -1.19867 0)
(3.12203e-14 -1.19867 0)
(7.8154e-14 -1.19867 0)
(6.76696e-14 -1.19867 0)
(8.80948e-14 -1.19867 0)
(4.93509e-14 -1.19867 0)
(3.6291e-14 -1.19867 0)
(2.47445e-14 -1.19867 0)
(-1.80534e-15 -1.19867 0)
(-2.06417e-14 -1.19867 0)
(-4.00138e-14 -1.19867 0)
(-4.62287e-14 -1.19867 0)
(9.82308e-11 -1.19867 0)
(1.50632e-07 -1.19867 0)
(3.0202e-05 -1.19867 0)
(0.00109732 -1.19859 0)
(0.0106811 -1.19778 0)
(0.0422183 -1.19422 0)
(0.0981188 -1.1859 0)
(0.164427 -1.16971 0)
(0.248024 -1.15074 0)
(0.302913 -1.1199 0)
(0.398125 -1.09906 0)
(0.408549 -1.06808 0)
(0.523931 -0.988118 0)
(1.03886 -1.0476 0)
(-0.982208 -0.531209 0)
(-0.491975 -0.498322 0)
(-0.401012 -0.547271 0)
(-0.348325 -0.543154 0)
(-0.287746 -0.546925 0)
(-0.223405 -0.547852 0)