/*--------------------------------*- C++ -*----------------------------------*\
| =========                 |                                                 |
| \\      /  F ield         | OpenFOAM: The Open Source CFD Toolbox           |
|  \\    /   O peration     | Version:  v1912                                 |
|   \\  /    A nd           | Website:  www.openfoam.com                      |
|    \\/     M anipulation  |                                                 |
\*---------------------------------------------------------------------------*/
FoamFile
{
    version     2.0;
    format      ascii;
    class       volVectorField;
    location    "0.26";
    object      grad(rho);
}
// * * * * * * * * * * * * * * * * * * * * * * * * * * * * * * * * * * * * * //

dimensions      [1 -4 0 0 0 0 0];


internalField   nonuniform List<vector> 
1900
(
(-1.77636e-11 -1.77636e-11 0)
(0 0 0)
(1.77636e-11 -1.77636e-11 0)
(0 0 0)
(-1.77636e-11 -3.55271e-11 0)
(1.77636e-11 -1.77636e-11 0)
(0 -3.55271e-11 0)
(-1.42109e-10 -1.77636e-11 0)
(-9.55858e-08 1.24345e-10 0)
(-2.1779e-06 -4.3805e-08 0)
(0 1.77636e-11 0)
(0 0 0)
(-1.77636e-11 1.77636e-11 0)
(1.77636e-11 0 0)
(0 0 0)
(0 1.77636e-11 0)
(0 0 0)
(-1.77636e-11 0 0)
(-1.39355e-07 1.24345e-10 0)
(-3.52049e-06 -7.41629e-08 0)
(0 0 0)
(0 0 0)
(-1.77636e-11 0 0)
(1.77636e-11 0 0)
(0 0 0)
(0 0 0)
(0 0 0)
(-1.77636e-11 0 0)
(-1.69731e-07 0 0)
(-4.38531e-06 2.4869e-10 0)
(0 0 0)
(0 0 0)
(0 0 0)
(0 0 0)
(-1.77636e-11 0 0)
(0 -1.77636e-11 0)
(1.77636e-11 0 0)
(-1.77636e-11 0 0)
(-1.39142e-07 0 0)
(-3.5206e-06 7.58149e-08 0)
(0 0 0)
(0 0 0)
(0 0 0)
(0 0 0)
(-1.77636e-11 0 0)
(1.77636e-11 1.77636e-11 0)
(0 0 0)
(-1.77636e-11 1.77636e-11 0)
(-9.3916e-08 0 0)
(-2.1797e-06 4.52083e-08 0)
(-0.000137221 -1.16461e-06 1.3749e-11)
(-0.00454993 -7.11092e-05 -1.66435e-11)
(-0.0670847 -0.00245968 -2.10818e-11)
(-0.284563 -0.0382474 0)
(9.681 -0.240603 -9.03503e-11)
(-0.000221691 -1.91534e-06 1.3749e-11)
(-0.00684278 -0.000119622 1.66435e-11)
(-0.0928109 -0.0039818 2.10818e-11)
(-0.385332 -0.0551454 0)
(10.0245 -0.307241 0)
(-0.000279762 -3.21804e-11 0)
(-0.00828839 4.90835e-09 0)
(-0.1051 -1.11022e-08 0)
(-0.427063 4.9119e-09 0)
(10.6494 -4.33516e-09 0)
(-0.000221685 1.91425e-06 1.3749e-11)
(-0.00684279 0.000119628 1.66435e-11)
(-0.0928109 0.00398179 2.10818e-11)
(-0.385332 0.0551454 0)
(10.0245 0.307241 0)
(-0.000137217 1.16361e-06 -4.1247e-11)
(-0.00454993 7.11097e-05 -1.66435e-11)
(-0.0670847 0.00245968 -2.10818e-11)
(-0.284563 0.0382474 -5.74957e-11)
(9.681 0.240603 9.03503e-11)
(255.467 1.69274 3.83359e-11)
(1386.33 8.11549 -3.25341e-11)
(3283.82 -71.4077 0)
(5192.21 -887.971 2.58863e-11)
(-344.592 -3479.61 -1.20323e-11)
(258.107 4.98852 -1.9168e-11)
(1361.88 61.9311 1.62672e-11)
(2934.93 -0.644523 0)
(3713.62 -934.957 -1.61552e-11)
(-1622.22 -5180.23 2.94288e-12)
(274.577 -4.75489e-09 0)
(1384.97 -4.32702e-09 0)
(2905.78 2.43427e-09 0)
(3004.36 1.10297e-09 6.45081e-12)
(-2156.45 5.76537e-09 -5.88577e-12)
(258.107 -4.98852 -1.9168e-11)
(1361.88 -61.9311 1.62672e-11)
(2934.93 0.644523 0)
(3713.62 934.957 -1.61552e-11)
(-1622.22 5180.23 2.94288e-12)
(255.467 -1.69274 1.9168e-11)
(1386.33 -8.11549 -2.44412e-16)
(3283.82 71.4077 0)
(5192.21 887.971 -2.67428e-14)
(-344.592 3479.61 1.20323e-11)
(-9658.55 -13911.5 0)
(-4184.49 6302.64 0)
(4252.63 2221.42 0)
(2299.78 310.798 0)
(575.133 8.08182 0)
(39.1112 -0.0469473 0)
(0.470955 -0.000222026 0)
(0.000653341 -3.80463e-08 0)
(7.11189e-08 0 0)
(0 -6.45948e-11 0)
(0 0 0)
(0 0 0)
(0 0 0)
(0 6.45948e-11 0)
(1.61487e-11 -6.45948e-11 0)
(-1.61487e-11 0 0)
(0 0 0)
(0 0 0)
(0 -6.45948e-11 0)
(0 0 0)
(0 -6.45948e-11 0)
(0 0 0)
(0 0 0)
(0 -6.45948e-11 0)
(0 0 0)
(0 -6.45948e-11 0)
(0 -6.45948e-11 0)
(0 0 0)
(0 -6.45948e-11 0)
(0 0 0)
(0 -6.45948e-11 0)
(-1.28124e-07 -6.45948e-11 0)
(-0.00114509 -6.45948e-11 0)
(-0.829193 6.07191e-09 0)
(-69.1167 -3.03596e-09 0)
(-1025.36 -3.22974e-10 0)
(-4353.53 -7.68678e-09 0)
(-8548.51 -3.29433e-09 0)
(15047.9 -5.03839e-09 0)
(-91677.6 -7.36381e-09 0)
(-8041.41 -5463.17 0)
(-2884.84 4004.03 0)
(3586.65 1035.58 0)
(2075.45 68.2616 0)
(560.391 -15.4563 0)
(41.2713 -0.45847 0)
(0.532768 -0.000898594 0)
(0.000777839 -1.19888e-07 0)
(8.89793e-08 6.45948e-11 0)
(1.61487e-11 0 0)
(0 0 0)
(-1.61487e-11 0 0)
(0 0 0)
(1.61487e-11 0 0)
(0 -6.45948e-11 0)
(0 0 0)
(0 0 0)
(0 0 0)
(0 0 0)
(0 0 0)
(0 0 0)
(-1.61487e-11 0 0)
(0 0 0)
(1.61487e-11 0 0)
(0 0 0)
(0 0 0)
(0 0 0)
(0 0 0)
(-1.61487e-11 0 0)
(0 0 0)
(1.61487e-11 0 0)
(-1.28011e-07 0 0)
(-0.00114509 3.61731e-09 0)
(-0.829193 4.78001e-09 0)
(-69.1167 -5.10299e-09 0)
(-1025.36 5.81353e-10 0)
(-4353.53 -3.03596e-09 0)
(-8548.51 -1.48568e-09 0)
(15047.9 2.16393e-09 0)
(-91677.6 3.10055e-09 0)
(-7096.36 -3.22974e-09 0)
(-2293.94 -5.23218e-09 0)
(3107.68 -7.75138e-10 0)
(1994.02 4.13407e-09 0)
(555.142 2.58379e-10 0)
(43.6073 -1.80865e-09 0)
(0.604328 7.75138e-10 0)
(0.00091475 4.32785e-09 0)
(1.06e-07 0 0)
(0 0 0)
(0 0 0)
(-1.61487e-11 0 0)
(1.61487e-11 0 0)
(0 0 0)
(0 6.45948e-11 0)
(0 0 0)
(0 0 0)
(-1.61487e-11 0 0)
(0 0 0)
(0 0 0)
(0 0 0)
(0 0 0)
(0 0 0)
(0 0 0)
(1.61487e-11 0 0)
(0 0 0)
(0 0 0)
(0 0 0)
(-1.61487e-11 0 0)
(0 0 0)
(0 0 0)
(-1.2709e-07 0 0)
(-0.00114509 -2.64839e-09 0)
(-0.829193 5.94272e-09 0)
(-69.1167 1.61487e-09 0)
(-1025.36 2.58379e-10 0)
(-4353.53 -1.42109e-09 0)
(-8548.51 -3.22974e-10 0)
(15047.9 1.45338e-09 0)
(-91677.6 1.11103e-08 0)
(-8041.41 5463.17 0)
(-2884.84 -4004.03 0)
(3586.65 -1035.58 0)
(2075.45 -68.2616 0)
(560.391 15.4563 0)
(41.2713 0.45847 0)
(0.532768 0.000898596 0)
(0.000777839 1.21567e-07 0)
(8.77197e-08 -6.45948e-11 0)
(1.61487e-11 0 0)
(0 0 0)
(1.61487e-11 0 0)
(-3.22974e-11 0 0)
(1.61487e-11 -6.45948e-11 0)
(1.61487e-11 -6.45948e-11 0)
(-1.61487e-11 0 0)
(0 0 0)
(0 0 0)
(-1.61487e-11 0 0)
(1.61487e-11 0 0)
(-1.61487e-11 0 0)
(0 0 0)
(0 0 0)
(0 0 0)
(1.61487e-11 0 0)
(0 0 0)
(-1.61487e-11 0 0)
(0 0 0)
(0 0 0)
(0 0 0)
(0 0 0)
(-1.28754e-07 0 0)
(-0.00114509 -4.52164e-09 0)
(-0.829193 9.75381e-09 0)
(-69.1167 3.94028e-09 0)
(-1025.36 6.45948e-11 0)
(-4353.53 -4.00488e-09 0)
(-8548.51 3.94028e-09 0)
(15047.9 2.77758e-09 0)
(-91677.6 2.71298e-09 0)
(-9658.55 13911.5 0)
(-4184.49 -6302.64 0)
(4252.63 -2221.42 0)
(2299.78 -310.798 0)
(575.133 -8.08182 0)
(39.1112 0.0469473 0)
(0.470955 0.000222027 0)
(0.00065334 3.45582e-08 0)
(7.06344e-08 0 0)
(1.61487e-11 6.45948e-11 0)
(-1.61487e-11 0 0)
(0 0 0)
(0 0 0)
(0 0 0)
(0 0 0)
(0 0 0)
(0 0 0)
(0 0 0)
(0 0 0)
(0 0 0)
(0 0 0)
(0 0 0)
(0 0 0)
(0 0 0)
(0 0 0)
(0 0 0)
(0 0 0)
(0 0 0)
(0 0 0)
(0 0 0)
(0 0 0)
(-1.28414e-07 0 0)
(-0.00114509 1.74406e-09 0)
(-0.829193 4.32785e-09 0)
(-69.1167 6.45948e-11 0)
(-1025.36 6.45948e-10 0)
(-4353.53 5.81353e-09 0)
(-8548.51 5.03839e-09 0)
(15047.9 6.33029e-09 0)
(-91677.6 1.09811e-09 0)
(91854.3 12649.1 0)
(-11501.8 -5854.87 0)
(6575.12 -2443.52 0)
(3204.43 -496.178 0)
(738.329 -31.7909 0)
(48.8386 -0.36573 0)
(0.574791 -0.000486564 0)
(0.000782518 -5.64534e-08 0)
(8.58599e-08 0 0)
(0 -3.90006e-11 0)
(0 0 0)
(0 -1.95003e-11 0)
(0 0 0)
(0 1.95003e-11 0)
(0 0 0)
(0 0 0)
(0 0 0)
(0 0 0)
(0 0 0)
(0 0 0)
(0 0 0)
(0 0 0)
(0 0 0)
(0 0 0)
(0 0 0)
(0 0 0)
(0 0 0)
(0 0 0)
(0 0 0)
(0 0 0)
(0 0 0)
(-1.2802e-07 0 0)
(-0.00114509 2.10603e-09 0)
(-0.829193 1.95003e-10 0)
(-69.1167 -6.72761e-09 0)
(-1025.36 -8.38514e-10 0)
(-4353.53 5.9476e-09 0)
(-8548.51 1.59903e-09 0)
(15047.9 1.10177e-09 0)
(-91677.6 2.37904e-09 0)
(92109 2470.6 0)
(-14804.4 -2320.31 0)
(8171.07 -1200.35 0)
(4138.7 -294.325 0)
(965.405 -20.7486 0)
(64.5295 -0.260026 0)
(0.767705 -0.000370276 0)
(0.00105294 -4.08922e-08 0)
(1.16865e-07 1.95003e-11 0)
(0 0 0)
(0 0 0)
(0 1.95003e-11 0)
(0 0 0)
(0 0 0)
(0 0 0)
(0 0 0)
(0 0 0)
(0 0 0)
(0 0 0)
(0 0 0)
(0 0 0)
(0 0 0)
(0 0 0)
(0 0 0)
(0 0 0)
(0 0 0)
(0 0 0)
(0 0 0)
(0 0 0)
(0 0 0)
(0 0 0)
(-1.26596e-07 0 0)
(-0.00114509 2.51554e-09 0)
(-0.829193 -9.36015e-10 0)
(-69.1167 -5.07008e-10 0)
(-1025.36 -2.82755e-09 0)
(-4353.53 -3.12005e-10 0)
(-8548.51 3.31505e-10 0)
(15047.9 -1.85253e-10 0)
(-91677.6 -3.70506e-10 0)
(91706.7 25.8188 0)
(-15039.3 -453.671 0)
(8527.44 -227.549 0)
(4341.15 -62.2402 0)
(1021.7 -4.75733 0)
(68.8323 -0.0637676 0)
(0.825361 -9.55644e-05 0)
(0.00113933 -1.11152e-08 0)
(1.25251e-07 0 0)
(0 0 0)
(0 0 0)
(0 0 0)
(0 0 0)
(0 0 0)
(0 0 0)
(0 0 0)
(0 0 0)
(0 0 0)
(0 0 0)
(0 0 0)
(0 0 0)
(0 0 0)
(0 0 0)
(0 0 0)
(0 0 0)
(0 0 0)
(0 0 0)
(0 0 0)
(0 0 0)
(0 0 0)
(0 0 0)
(-1.25582e-07 0 0)
(-0.00114509 9.75016e-11 0)
(-0.829193 -3.10055e-09 0)
(-69.1167 2.88605e-09 0)
(-1025.36 -3.56856e-09 0)
(-4353.53 -3.29555e-09 0)
(-8548.51 -2.10603e-09 0)
(15047.9 -1.31627e-09 0)
(-91677.6 -5.28459e-09 0)
(91678.7 -4.21538 0)
(-15048.6 -25.6717 0)
(8548.27 -13.1474 0)
(4353.39 -3.80166 0)
(1025.32 -0.29517 0)
(69.1137 -0.00397707 0)
(0.829154 -5.97911e-06 0)
(0.00114503 -5.46009e-10 0)
(1.27571e-07 0 0)
(0 0 0)
(0 0 0)
(0 0 0)
(0 0 0)
(0 -1.95003e-11 0)
(0 0 0)
(0 0 0)
(0 1.95003e-11 0)
(0 0 0)
(0 0 0)
(0 1.95003e-11 0)
(0 0 0)
(0 0 0)
(0 0 0)
(0 0 0)
(0 0 0)
(0 0 0)
(0 0 0)
(0 0 0)
(0 0 0)
(0 0 0)
(0 0 0)
(-1.26499e-07 0 0)
(-0.00114509 -1.71603e-09 0)
(-0.829193 -2.53504e-09 0)
(-69.1167 3.88056e-09 0)
(-1025.36 -2.16453e-09 0)
(-4353.53 -2.76904e-09 0)
(-8548.51 -2.53504e-10 0)
(15047.9 -8.38514e-10 0)
(-91677.6 3.12005e-10 0)
(91677.6 -0.868542 0)
(-15047.9 -0.296317 0)
(8548.51 -0.144793 0)
(4353.53 -0.0415572 0)
(1025.36 -0.00313983 0)
(69.1167 -4.07986e-05 0)
(0.829193 -6.32395e-08 0)
(0.00114509 -2.34004e-10 0)
(1.25797e-07 0 0)
(-1.95003e-11 0 0)
(0 0 0)
(1.95003e-11 0 0)
(-1.95003e-11 0 0)
(0 0 0)
(1.95003e-11 0 0)
(0 0 0)
(0 0 0)
(0 0 0)
(0 0 0)
(0 0 0)
(-1.95003e-11 0 0)
(0 0 0)
(0 0 0)
(0 0 0)
(0 0 0)
(1.95003e-11 0 0)
(0 0 0)
(0 0 0)
(0 0 0)
(0 0 0)
(0 0 0)
(-1.27279e-07 0 0)
(-0.00114509 1.28702e-09 0)
(-0.829193 3.62706e-09 0)
(-69.1167 2.57404e-09 0)
(-1025.36 -1.28702e-09 0)
(-4353.53 -3.51006e-10 0)
(-8548.51 2.67154e-09 0)
(15047.9 1.36502e-10 0)
(-91677.6 2.96405e-09 0)
(91677.6 -0.0241765 0)
(-15047.9 -0.00131831 0)
(8548.51 -0.00025421 0)
(4353.53 -5.06701e-05 0)
(1025.36 -3.51431e-06 0)
(69.1167 -5.04668e-08 0)
(0.829193 1.98903e-09 0)
(0.00114509 -1.57953e-09 0)
(1.27805e-07 -1.95003e-11 0)
(0 0 0)
(1.95003e-11 1.95003e-11 0)
(0 -1.95003e-11 0)
(0 0 0)
(-1.95003e-11 0 0)
(1.95003e-11 0 0)
(0 0 0)
(0 -1.95003e-11 0)
(-1.95003e-11 0 0)
(1.95003e-11 0 0)
(-1.95003e-11 -1.95003e-11 0)
(1.95003e-11 0 0)
(0 0 0)
(0 0 0)
(0 0 0)
(-1.95003e-11 0 0)
(1.95003e-11 0 0)
(-1.95003e-11 0 0)
(0 0 0)
(1.95003e-11 0 0)
(-1.95003e-11 0 0)
(1.95003e-11 0 0)
(-1.2527e-07 0 0)
(-0.00114509 1.95003e-10 0)
(-0.829193 7.21512e-10 0)
(-69.1167 -3.10055e-09 0)
(-1025.36 5.85009e-11 0)
(-4353.53 -8.19013e-10 0)
(-8548.51 3.70506e-10 0)
(15047.9 -1.39427e-09 0)
(-91677.6 -4.21207e-09 0)
(91677.6 -7.05961e-05 0)
(-15047.9 -2.35231e-06 0)
(8548.51 -1.38433e-07 0)
(4353.53 9.75016e-10 0)
(1025.36 -1.44302e-09 0)
(69.1167 -1.34552e-09 0)
(0.829193 5.69409e-09 0)
(0.00114509 1.36502e-09 0)
(1.27298e-07 1.95003e-11 0)
(0 0 0)
(0 -1.95003e-11 0)
(-1.95003e-11 1.95003e-11 0)
(1.95003e-11 0 0)
(0 1.95003e-11 0)
(-1.95003e-11 0 0)
(0 0 0)
(1.95003e-11 0 0)
(0 0 0)
(0 0 0)
(0 0 0)
(0 0 0)
(0 0 0)
(0 0 0)
(0 0 0)
(0 0 0)
(0 0 0)
(0 0 0)
(0 0 0)
(0 0 0)
(0 0 0)
(0 0 0)
(-1.27084e-07 0 0)
(-0.00114509 -1.73553e-09 0)
(-0.829193 -5.07008e-09 0)
(-69.1167 -2.55454e-09 0)
(-1025.36 -5.85009e-11 0)
(-4353.53 -7.41012e-10 0)
(-8548.51 -2.53504e-09 0)
(15047.9 -3.23705e-09 0)
(-91677.6 -6.4936e-09 0)
(91677.6 -9.49665e-09 0)
(-15047.9 1.01402e-09 0)
(8548.51 3.70506e-10 0)
(4353.53 -1.75503e-10 0)
(1025.36 4.09507e-09 0)
(69.1167 2.34004e-10 0)
(0.829193 5.49909e-09 0)
(0.00114509 -6.0451e-10 0)
(1.26499e-07 0 0)
(0 0 0)
(0 0 0)
(0 0 0)
(0 0 0)
(0 0 0)
(0 0 0)
(0 0 0)
(0 0 0)
(0 0 0)
(0 0 0)
(0 0 0)
(0 0 0)
(0 0 0)
(0 0 0)
(0 0 0)
(0 0 0)
(0 0 0)
(0 0 0)
(0 0 0)
(0 0 0)
(0 0 0)
(0 0 0)
(-1.26947e-07 0 0)
(-0.00114509 1.87203e-09 0)
(-0.829193 -2.55454e-09 0)
(-69.1167 -5.85009e-10 0)
(-1025.36 1.30652e-09 0)
(-4353.53 3.13955e-09 0)
(-8548.51 1.07252e-09 0)
(15047.9 1.04327e-09 0)
(-91677.6 -8.58014e-10 0)
(91677.6 -2.14503e-10 0)
(-15047.9 -9.94516e-10 0)
(8548.51 1.22852e-09 0)
(4353.53 4.29007e-10 0)
(1025.36 -1.20902e-09 0)
(69.1167 3.13955e-09 0)
(0.829193 2.92505e-10 0)
(0.00114508 -3.70506e-10 0)
(1.27883e-07 0 0)
(-1.95003e-11 0 0)
(1.95003e-11 0 0)
(0 0 0)
(0 1.95003e-11 0)
(0 0 0)
(-1.95003e-11 0 0)
(0 1.95003e-11 0)
(1.95003e-11 1.95003e-11 0)
(0 0 0)
(0 0 0)
(0 0 0)
(0 0 0)
(0 0 0)
(0 0 0)
(0 0 0)
(0 0 0)
(0 0 0)
(0 0 0)
(0 0 0)
(0 0 0)
(0 0 0)
(-1.95003e-11 0 0)
(-1.25251e-07 0 0)
(-0.00114509 -5.46009e-10 0)
(-0.829193 3.45156e-09 0)
(-69.1167 -2.14503e-10 0)
(-1025.36 2.34004e-09 0)
(-4353.53 4.34857e-09 0)
(-8548.51 -2.92505e-10 0)
(15047.9 2.02803e-09 0)
(-91677.6 2.06703e-09 0)
(91677.6 -4.07557e-09 0)
(-15047.9 -1.13102e-09 0)
(8548.51 5.85009e-10 0)
(4353.53 1.56003e-09 0)
(1025.36 -4.17307e-09 0)
(69.1167 2.00853e-09 0)
(0.829193 -5.44059e-09 0)
(0.00114509 8.19013e-10 0)
(1.26869e-07 0 0)
(-1.95003e-11 0 0)
(1.95003e-11 0 0)
(1.95003e-11 0 0)
(0 -1.95003e-11 0)
(-1.95003e-11 0 0)
(1.95003e-11 0 0)
(0 0 0)
(0 -1.95003e-11 0)
(-1.95003e-11 0 0)
(0 0 0)
(0 0 0)
(0 0 0)
(-1.95003e-11 0 0)
(0 0 0)
(1.95003e-11 0 0)
(0 0 0)
(0 0 0)
(0 0 0)
(0 0 0)
(0 0 0)
(0 0 0)
(-1.95003e-11 0 0)
(-1.27454e-07 0 0)
(-0.00114509 1.95003e-10 0)
(-0.829193 3.37355e-09 0)
(-69.1167 -2.73004e-10 0)
(-1025.36 -3.80256e-09 0)
(-4353.53 2.28154e-09 0)
(-8548.51 -1.40402e-09 0)
(15047.9 -2.04753e-09 0)
(-91677.6 -7.80013e-10 0)
(91677.6 -1.57953e-09 0)
(-15047.9 4.87508e-10 0)
(8548.51 -9.16515e-10 0)
(4353.53 -9.55515e-10 0)
(1025.36 1.01402e-09 0)
(69.1167 -2.92505e-09 0)
(0.829193 -1.36502e-09 0)
(0.00114509 5.07008e-10 0)
(1.27103e-07 0 0)
(0 0 0)
(-1.95003e-11 0 0)
(0 0 0)
(0 0 0)
(0 -1.95003e-11 0)
(1.95003e-11 0 0)
(-1.95003e-11 -1.95003e-11 0)
(1.95003e-11 0 0)
(0 0 0)
(0 0 0)
(-1.95003e-11 0 0)
(1.95003e-11 0 0)
(0 0 0)
(0 0 0)
(0 0 0)
(0 0 0)
(0 0 0)
(0 0 0)
(0 0 0)
(0 0 0)
(0 0 0)
(0 0 0)
(-1.25095e-07 0 0)
(-0.00114509 -3.70506e-10 0)
(-0.829193 -3.86106e-09 0)
(-69.1167 -3.08105e-09 0)
(-1025.36 -3.80256e-09 0)
(-4353.53 -3.80256e-09 0)
(-8548.51 -2.04753e-09 0)
(15047.9 -3.27605e-09 0)
(-91677.6 -4.54357e-09 0)
(91677.6 -2.59744e-07 0)
(-15047.9 -1.71437e-07 0)
(8548.51 -2.68461e-07 0)
(4353.53 -3.25187e-07 0)
(1025.36 -3.28054e-07 0)
(69.1167 -3.39598e-07 0)
(0.829193 -3.33514e-07 0)
(0.00114509 -3.37453e-07 0)
(1.26362e-07 -3.35386e-07 0)
(0 -3.36634e-07 0)
(0 -3.35269e-07 0)
(0 -3.36946e-07 0)
(0 -3.35444e-07 0)
(0 -3.35405e-07 0)
(0 -3.37453e-07 0)
(0 -3.35444e-07 0)
(0 -3.35444e-07 0)
(0 -3.37024e-07 0)
(0 -3.36946e-07 0)
(0 -3.37843e-07 0)
(0 -3.37121e-07 0)
(0 -3.3757e-07 0)
(0 -3.34742e-07 0)
(0 -3.36712e-07 0)
(0 -3.37823e-07 0)
(0 -3.36946e-07 0)
(0 -3.35971e-07 0)
(0 -3.37004e-07 0)
(0 -3.35776e-07 0)
(0 -3.37277e-07 0)
(0 -3.36946e-07 0)
(-1.27825e-07 -3.38077e-07 0)
(-0.00114509 -3.36868e-07 0)
(-0.829193 -3.42699e-07 0)
(-69.1167 -3.40827e-07 0)
(-1025.36 -3.34976e-07 0)
(-4353.53 -3.23783e-07 0)
(-8548.51 -2.69026e-07 0)
(15047.9 -1.74021e-07 0)
(-91677.6 -2.6263e-07 0)
(91677.6 -0.00206717 0)
(-15047.9 -0.00137381 0)
(8548.51 -0.00194768 0)
(4353.53 -0.00223694 0)
(1025.36 -0.00231964 0)
(69.1167 -0.00232534 0)
(0.829193 -0.00232541 0)
(0.00114509 -0.00232541 0)
(1.27883e-07 -0.00232541 0)
(1.17002e-10 -0.00232541 0)
(-2.73004e-10 -0.00232541 0)
(-1.95003e-10 -0.00232541 0)
(1.46252e-09 -0.00232541 0)
(-1.89153e-09 -0.00232541 0)
(-5.85009e-11 -0.00232541 0)
(1.91103e-09 -0.00232541 0)
(-1.52102e-09 -0.00232541 0)
(-1.44302e-09 -0.00232541 0)
(-7.80013e-10 -0.00232541 0)
(-1.56003e-10 -0.00232541 0)
(2.53504e-10 -0.00232541 0)
(2.28154e-09 -0.00232541 0)
(8.19013e-10 -0.00232541 0)
(-2.98355e-09 -0.00232541 0)
(-2.14503e-10 -0.00232541 0)
(1.81353e-09 -0.0023254 0)
(-7.80013e-11 -0.00232541 0)
(1.75503e-10 -0.00232541 0)
(-2.53504e-10 -0.00232541 0)
(-1.11152e-09 -0.00232541 0)
(-7.80013e-10 -0.00232541 0)
(-1.24997e-07 -0.00232541 0)
(-0.00114509 -0.00232541 0)
(-0.829193 -0.0023254 0)
(-69.1167 -0.00232534 0)
(-1025.36 -0.00231963 0)
(-4353.53 -0.00223694 0)
(-8548.51 -0.00194768 0)
(15047.9 -0.0013738 0)
(-91677.6 -0.00206716 0)
(91677.6 -1.35812 0)
(-15047.9 -0.893979 0)
(8548.51 -1.16633 0)
(4353.53 -1.30183 0)
(1025.36 -1.34258 0)
(69.1167 -1.34555 0)
(0.829193 -1.34558 0)
(0.00114509 -1.34558 0)
(1.26908e-07 -1.34558 0)
(0 -1.34558 0)
(-1.40402e-09 -1.34558 0)
(-2.92505e-10 -1.34558 0)
(9.16515e-10 -1.34558 0)
(3.62706e-09 -1.34558 0)
(1.17002e-09 -1.34558 0)
(-2.98355e-09 -1.34558 0)
(-9.55515e-10 -1.34558 0)
(4.68008e-09 -1.34558 0)
(2.92505e-09 -1.34558 0)
(-3.60756e-09 -1.34558 0)
(-1.07252e-09 -1.34558 0)
(-9.75016e-11 -1.34558 0)
(2.16453e-09 -1.34558 0)
(3.74406e-09 -1.34558 0)
(7.60512e-10 -1.34558 0)
(5.07008e-10 -1.34558 0)
(-3.58806e-09 -1.34558 0)
(-1.56003e-10 -1.34558 0)
(2.28154e-09 -1.34558 0)
(-6.4351e-10 -1.34558 0)
(-3.60756e-09 -1.34558 0)
(-1.32661e-07 -1.34558 0)
(-0.00114508 -1.34558 0)
(-0.829193 -1.34558 0)
(-69.1167 -1.34555 0)
(-1025.36 -1.34258 0)
(-4353.53 -1.30183 0)
(-8548.51 -1.16633 0)
(15047.9 -0.893979 0)
(-91677.6 -1.35812 0)
(91675.3 -105.189 0)
(-15047.7 -68.3557 0)
(8548.12 -83.572 0)
(4353.36 -91.3174 0)
(1025.32 -93.771 0)
(69.1138 -93.9591 0)
(0.829157 -93.9616 0)
(0.00114505 -93.9616 0)
(1.35449e-07 -93.9616 0)
(1.75503e-10 -93.9616 0)
(1.17002e-09 -93.9616 0)
(-4.79708e-09 -93.9616 0)
(-4.13407e-09 -93.9616 0)
(2.84705e-09 -93.9616 0)
(3.62706e-09 -93.9616 0)
(-2.14503e-10 -93.9616 0)
(6.63011e-10 -93.9616 0)
(2.26204e-09 -93.9616 0)
(1.17002e-09 -93.9616 0)
(5.65509e-10 -93.9616 0)
(-8.38514e-10 -93.9616 0)
(-3.68556e-09 -93.9616 0)
(-1.01402e-09 -93.9616 0)
(2.39854e-09 -93.9616 0)
(8.77514e-10 -93.9616 0)
(-2.34004e-10 -93.9616 0)
(-2.74954e-09 -93.9616 0)
(-1.22852e-09 -93.9616 0)
(-2.32054e-09 -93.9616 0)
(8.19013e-10 -93.9616 0)
(5.9866e-09 -93.9616 0)
(-1.31413e-07 -93.9616 0)
(-0.00114504 -93.9616 0)
(-0.829157 -93.9616 0)
(-69.1138 -93.9591 0)
(-1025.32 -93.771 0)
(-4353.36 -91.3174 0)
(-8548.12 -83.572 0)
(15047.7 -68.3557 0)
(-91675.3 -105.189 0)
(91503.5 -1495.52 0)
(-15027.1 -952.357 0)
(8526.39 -1112.2 0)
(4343.7 -1199.12 0)
(1022.81 -1227.72 0)
(68.933 -1230.02 0)
(0.826771 -1230.05 0)
(0.00114137 -1230.05 0)
(1.2802e-07 -1230.05 0)
(4.29007e-10 -1230.05 0)
(4.71908e-09 -1230.05 0)
(2.24254e-09 -1230.05 0)
(-6.4351e-10 -1230.05 0)
(-6.0451e-09 -1230.05 0)
(-3.56856e-09 -1230.05 0)
(4.87508e-10 -1230.05 0)
(-2.59354e-09 -1230.05 0)
(-4.44607e-09 -1230.05 0)
(-2.18404e-09 -1230.05 0)
(4.48507e-10 -1230.05 0)
(-7.60512e-10 -1230.05 0)
(-1.65753e-09 -1230.05 0)
(-6.2401e-10 -1230.05 0)
(5.85009e-10 -1230.05 0)
(2.37904e-09 -1230.05 0)
(2.78855e-09 -1230.05 0)
(3.84156e-09 -1230.05 0)
(1.56003e-09 -1230.05 0)
(-2.22304e-09 -1230.05 0)
(-7.80013e-11 -1230.05 0)
(1.52102e-09 -1230.05 0)
(-1.23417e-07 -1230.05 0)
(-0.00114137 -1230.05 0)
(-0.826771 -1230.05 0)
(-68.933 -1230.02 0)
(-1022.81 -1227.72 0)
(-4343.7 -1199.12 0)
(-8526.39 -1112.2 0)
(15027.1 -952.357 0)
(-91503.5 -1495.52 0)
(89217.1 -6179.43 0)
(-14678.3 -3880.08 0)
(8310.33 -4419.83 0)
(4242.05 -4724.12 0)
(995.545 -4822.93 0)
(66.8639 -4831.17 0)
(0.797975 -4831.29 0)
(0.00109472 -4831.29 0)
(1.18445e-07 -4831.29 0)
(7.60512e-10 -4831.29 0)
(-2.53504e-10 -4831.29 0)
(-2.22304e-09 -4831.29 0)
(-1.17002e-10 -4831.29 0)
(-2.34004e-10 -4831.29 0)
(4.07557e-09 -4831.29 0)
(5.03108e-09 -4831.29 0)
(6.82511e-10 -4831.29 0)
(1.96953e-09 -4831.29 0)
(2.06703e-09 -4831.29 0)
(5.26509e-10 -4831.29 0)
(-8.97015e-10 -4831.29 0)
(-3.68556e-09 -4831.29 0)
(-1.50152e-09 -4831.29 0)
(-2.02803e-09 -4831.29 0)
(-1.71603e-09 -4831.29 0)
(3.19805e-09 -4831.29 0)
(5.46009e-10 -4831.29 0)
(-3.31505e-10 -4831.29 0)
(-1.26752e-09 -4831.29 0)
(9.94516e-10 -4831.29 0)
(3.76356e-09 -4831.29 0)
(-1.27864e-07 -4831.29 0)
(-0.00109472 -4831.29 0)
(-0.797975 -4831.29 0)
(-66.8639 -4831.17 0)
(-995.545 -4822.93 0)
(-4242.05 -4724.12 0)
(-8310.33 -4419.83 0)
(14678.3 -3880.08 0)
(-89217.1 -6179.43 0)
(81330.4 -10724.2 0)
(-13331.5 -6990.19 0)
(7713.04 -8213.81 0)
(3955.26 -8817.17 0)
(919.66 -9017.39 0)
(60.881 -9035.08 0)
(0.710263 -9035.35 0)
(0.000945311 -9035.35 0)
(1.0304e-07 -9035.35 0)
(-2.16453e-09 -9035.35 0)
(1.17002e-10 -9035.35 0)
(4.87508e-10 -9035.35 0)
(-2.10603e-09 -9035.35 0)
(-2.22304e-09 -9035.35 0)
(1.95003e-09 -9035.35 0)
(3.19805e-09 -9035.35 0)
(2.53504e-10 -9035.35 0)
(1.17002e-10 -9035.35 0)
(-2.41804e-09 -9035.35 0)
(-4.48507e-10 -9035.35 0)
(-1.17002e-09 -9035.35 0)
(-2.86655e-09 -9035.35 0)
(7.80013e-10 -9035.35 0)
(-2.14503e-10 -9035.35 0)
(1.91103e-09 -9035.35 0)
(3.72456e-09 -9035.35 0)
(-6.82511e-10 -9035.35 0)
(-1.95003e-11 -9035.35 0)
(1.56003e-10 -9035.35 0)
(5.26509e-10 -9035.35 0)
(2.24254e-09 -9035.35 0)
(-1.04736e-07 -9035.35 0)
(-0.000945309 -9035.35 0)
(-0.710263 -9035.35 0)
(-60.881 -9035.08 0)
(-919.66 -9017.39 0)
(-3955.26 -8817.17 0)
(-7713.04 -8213.81 0)
(13331.5 -6990.19 0)
(-81330.4 -10724.2 0)
(71033.2 18806.2 0)
(-12259.2 13512.1 0)
(6549.78 14738.2 0)
(3467.69 16145 0)
(785.559 16476.4 0)
(49.5603 16493.5 0)
(0.540399 16493.7 0)
(0.000659873 16493.7 0)
(6.46045e-08 16493.7 0)
(-9.65266e-10 16493.7 0)
(-3.51006e-10 16493.7 0)
(-1.85253e-09 16493.7 0)
(-7.89763e-10 16493.7 0)
(7.02011e-10 16493.7 0)
(-1.45277e-09 16493.7 0)
(2.63254e-10 16493.7 0)
(2.96405e-09 16493.7 0)
(1.98903e-09 16493.7 0)
(7.50762e-10 16493.7 0)
(8.87264e-10 16493.7 0)
(-9.65266e-10 16493.7 0)
(-2.23279e-09 16493.7 0)
(-1.27727e-09 16493.7 0)
(2.92505e-10 16493.7 0)
(1.85253e-10 16493.7 0)
(7.11762e-10 16493.7 0)
(-1.57953e-09 16493.7 0)
(-1.07252e-10 16493.7 0)
(2.08653e-09 16493.7 0)
(7.60512e-10 16493.7 0)
(0 16493.7 0)
(-6.84266e-08 16493.7 0)
(-0.00065987 16493.7 0)
(-0.540399 16493.7 0)
(-49.5603 16493.5 0)
(-785.559 16476.4 0)
(-3467.69 16145 0)
(-6549.78 14738.2 0)
(12259.2 13512.1 0)
(-71033.2 18806.2 0)
(111833 -115230 0)
(-17251.6 -74542.6 0)
(10250.2 -85252.9 0)
(5630.3 -93085.8 0)
(1255.49 -95157.3 0)
(77.506 -95293.1 0)
(0.833392 -95294.6 0)
(0.00100721 -95294.6 0)
(1.04346e-07 -95294.6 0)
(3.23705e-09 -95294.6 0)
(-4.68008e-09 -95294.6 0)
(-3.33455e-09 -95294.6 0)
(-1.24802e-09 -95294.6 0)
(-4.01706e-09 -95294.6 0)
(-1.91103e-09 -95294.6 0)
(6.1621e-09 -95294.6 0)
(6.57161e-09 -95294.6 0)
(3.12005e-09 -95294.6 0)
(1.79403e-09 -95294.6 0)
(1.56003e-10 -95294.6 0)
(-1.18952e-09 -95294.6 0)
(-5.07008e-09 -95294.6 0)
(-7.41012e-10 -95294.6 0)
(2.98355e-09 -95294.6 0)
(-3.06155e-09 -95294.6 0)
(0 -95294.6 0)
(-2.73004e-10 -95294.6 0)
(0 -95294.6 0)
(3.70506e-10 -95294.6 0)
(1.17002e-09 -95294.6 0)
(3.82206e-09 -95294.6 0)
(-1.03976e-07 -95294.6 0)
(-0.00100722 -95294.6 0)
(-0.833392 -95294.6 0)
(-77.506 -95293.1 0)
(-1255.49 -95157.3 0)
(-5630.3 -93085.8 0)
(-10250.2 -85252.9 0)
(17251.6 -74542.6 0)
(-111833 -115230 0)
(111833 115230 0)
(-17251.6 74542.6 0)
(10250.2 85252.9 0)
(5630.3 93085.8 0)
(1255.49 95157.3 0)
(77.506 95293.1 0)
(0.833392 95294.6 0)
(0.00100722 95294.6 0)
(1.00388e-07 95294.6 0)
(-1.91103e-09 95294.6 0)
(-4.54357e-09 95294.6 0)
(2.18404e-09 95294.6 0)
(3.47106e-09 95294.6 0)
(-5.85009e-11 95294.6 0)
(1.52102e-09 95294.6 0)
(2.63254e-09 95294.6 0)
(-3.12005e-09 95294.6 0)
(-3.19805e-09 95294.6 0)
(-3.54906e-09 95294.6 0)
(-6.63011e-10 95294.6 0)
(-5.46009e-10 95294.6 0)
(-1.91103e-09 95294.6 0)
(8.19013e-10 95294.6 0)
(0 95294.6 0)
(1.03352e-09 95294.6 0)
(2.78855e-09 95294.6 0)
(8.38514e-10 95294.6 0)
(1.13102e-09 95294.6 0)
(1.07252e-09 95294.6 0)
(-2.73004e-10 95294.6 0)
(-1.18952e-09 95294.6 0)
(-9.95881e-08 95294.6 0)
(-0.00100722 95294.6 0)
(-0.833392 95294.6 0)
(-77.506 95293.1 0)
(-1255.49 95157.3 0)
(-5630.3 93085.8 0)
(-10250.2 85252.9 0)
(17251.6 74542.6 0)
(-111833 115230 0)
(71033.2 -18806.2 0)
(-12259.2 -13512.1 0)
(6549.78 -14738.2 0)
(3467.69 -16145 0)
(785.559 -16476.4 0)
(49.5603 -16493.5 0)
(0.540399 -16493.7 0)
(0.000659876 -16493.7 0)
(6.52383e-08 -16493.7 0)
(-3.31505e-09 -16493.7 0)
(-7.50762e-10 -16493.7 0)
(8.38514e-10 -16493.7 0)
(1.37477e-09 -16493.7 0)
(1.87203e-09 -16493.7 0)
(-2.10603e-09 -16493.7 0)
(-1.34552e-09 -16493.7 0)
(1.05302e-09 -16493.7 0)
(1.39427e-09 -16493.7 0)
(-5.36259e-10 -16493.7 0)
(3.60756e-10 -16493.7 0)
(-1.00427e-09 -16493.7 0)
(-2.29129e-09 -16493.7 0)
(1.07252e-10 -16493.7 0)
(5.07008e-10 -16493.7 0)
(1.50152e-09 -16493.7 0)
(1.96953e-09 -16493.7 0)
(-1.63803e-09 -16493.7 0)
(4.48507e-10 -16493.7 0)
(1.99878e-09 -16493.7 0)
(-1.85253e-10 -16493.7 0)
(-9.65266e-10 -16493.7 0)
(-6.76563e-08 -16493.7 0)
(-0.000659869 -16493.7 0)
(-0.540399 -16493.7 0)
(-49.5603 -16493.5 0)
(-785.559 -16476.4 0)
(-3467.69 -16145 0)
(-6549.78 -14738.2 0)
(12259.2 -13512.1 0)
(-71033.2 -18806.2 0)
(81330.4 10724.2 0)
(-13331.5 6990.19 0)
(7713.04 8213.81 0)
(3955.26 8817.17 0)
(919.66 9017.39 0)
(60.881 9035.08 0)
(0.710263 9035.35 0)
(0.000945314 9035.35 0)
(1.0575e-07 9035.35 0)
(-2.08653e-09 9035.35 0)
(-1.03352e-09 9035.35 0)
(2.20354e-09 9035.35 0)
(9.94516e-10 9035.35 0)
(-2.30104e-09 9035.35 0)
(-1.13102e-09 9035.35 0)
(-7.99513e-10 9035.35 0)
(-1.75503e-09 9035.35 0)
(2.12553e-09 9035.35 0)
(-1.07252e-09 9035.35 0)
(3.70506e-10 9035.35 0)
(7.80013e-11 9035.35 0)
(-1.18952e-09 9035.35 0)
(2.35954e-09 9035.35 0)
(-1.38452e-09 9035.35 0)
(-8.58014e-10 9035.35 0)
(4.01706e-09 9035.35 0)
(1.20902e-09 9035.35 0)
(2.14503e-10 9035.35 0)
(-3.90006e-11 9035.35 0)
(0 9035.35 0)
(9.94516e-10 9035.35 0)
(-1.04619e-07 9035.35 0)
(-0.000945309 9035.35 0)
(-0.710263 9035.35 0)
(-60.881 9035.08 0)
(-919.66 9017.39 0)
(-3955.26 8817.17 0)
(-7713.04 8213.81 0)
(13331.5 6990.19 0)
(-81330.4 10724.2 0)
(89217.1 6179.43 0)
(-14678.3 3880.08 0)
(8310.33 4419.83 0)
(4242.05 4724.12 0)
(995.545 4822.93 0)
(66.8639 4831.17 0)
(0.797975 4831.29 0)
(0.00109472 4831.29 0)
(1.21077e-07 4831.29 0)
(-1.93053e-09 4831.29 0)
(-2.67154e-09 4831.29 0)
(1.73553e-09 4831.29 0)
(4.97258e-09 4831.29 0)
(1.44302e-09 4831.29 0)
(1.71603e-09 4831.29 0)
(2.69104e-09 4831.29 0)
(-1.50152e-09 4831.29 0)
(8.77514e-10 4831.29 0)
(-1.54052e-09 4831.29 0)
(-1.09202e-09 4831.29 0)
(-2.63254e-09 4831.29 0)
(-5.07008e-09 4831.29 0)
(1.36502e-09 4831.29 0)
(2.14503e-10 4831.29 0)
(1.22852e-09 4831.29 0)
(4.56307e-09 4831.29 0)
(-1.17002e-10 4831.29 0)
(5.07008e-10 4831.29 0)
(6.4351e-10 4831.29 0)
(1.30652e-09 4831.29 0)
(2.86655e-09 4831.29 0)
(-1.27942e-07 4831.29 0)
(-0.00109472 4831.29 0)
(-0.797975 4831.29 0)
(-66.8639 4831.17 0)
(-995.545 4822.93 0)
(-4242.05 4724.12 0)
(-8310.33 4419.83 0)
(14678.3 3880.08 0)
(-89217.1 6179.43 0)
(91503.5 1495.52 0)
(-15027.1 952.357 0)
(8526.39 1112.2 0)
(4343.7 1199.12 0)
(1022.81 1227.72 0)
(68.933 1230.02 0)
(0.826771 1230.05 0)
(0.00114137 1230.05 0)
(1.3307e-07 1230.05 0)
(-6.82511e-10 1230.05 0)
(4.62157e-09 1230.05 0)
(3.90006e-10 1230.05 0)
(-2.53504e-09 1230.05 0)
(-6.55211e-09 1230.05 0)
(-5.30409e-09 1230.05 0)
(-1.11152e-09 1230.05 0)
(-4.11457e-09 1230.05 0)
(-2.92505e-09 1230.05 0)
(8.77514e-10 1230.05 0)
(2.96405e-09 1230.05 0)
(3.43206e-09 1230.05 0)
(4.01706e-09 1230.05 0)
(-3.31505e-10 1230.05 0)
(0 1230.05 0)
(3.33455e-09 1230.05 0)
(1.38452e-09 1230.05 0)
(1.44302e-09 1230.05 0)
(-2.30104e-09 1230.05 0)
(-4.40707e-09 1230.05 0)
(-1.18952e-09 1230.05 0)
(-1.34552e-09 1230.05 0)
(-1.24646e-07 1230.05 0)
(-0.00114136 1230.05 0)
(-0.826771 1230.05 0)
(-68.933 1230.02 0)
(-1022.81 1227.72 0)
(-4343.7 1199.12 0)
(-8526.39 1112.2 0)
(15027.1 952.357 0)
(-91503.5 1495.52 0)
(91675.3 105.189 0)
(-15047.7 68.3557 0)
(8548.12 83.572 0)
(4353.36 91.3174 0)
(1025.32 93.771 0)
(69.1138 93.9591 0)
(0.829157 93.9616 0)
(0.00114504 93.9616 0)
(1.25095e-07 93.9616 0)
(2.67154e-09 93.9616 0)
(-2.90555e-09 93.9616 0)
(9.75016e-11 93.9616 0)
(5.83059e-09 93.9616 0)
(3.04205e-09 93.9616 0)
(1.95003e-09 93.9616 0)
(4.09507e-10 93.9616 0)
(-2.08653e-09 93.9616 0)
(-1.63803e-09 93.9616 0)
(9.75016e-11 93.9616 0)
(-4.48507e-10 93.9616 0)
(-1.96953e-09 93.9616 0)
(-2.14503e-09 93.9616 0)
(-9.16515e-10 93.9616 0)
(-5.85009e-11 93.9616 0)
(-4.25107e-09 93.9616 0)
(-1.56003e-10 93.9616 0)
(1.85253e-09 93.9616 0)
(-3.90006e-11 93.9616 0)
(-1.07252e-09 93.9616 0)
(8.38514e-10 93.9616 0)
(3.76356e-09 93.9616 0)
(-1.28429e-07 93.9616 0)
(-0.00114504 93.9616 0)
(-0.829157 93.9616 0)
(-69.1138 93.9591 0)
(-1025.32 93.771 0)
(-4353.36 91.3174 0)
(-8548.12 83.572 0)
(15047.7 68.3557 0)
(-91675.3 105.189 0)
(91677.6 1.35812 0)
(-15047.9 0.893979 0)
(8548.51 1.16633 0)
(4353.53 1.30183 0)
(1025.36 1.34258 0)
(69.1167 1.34555 0)
(0.829193 1.34558 0)
(0.00114509 1.34558 0)
(1.28858e-07 1.34558 0)
(-3.45156e-09 1.34558 0)
(-4.19257e-09 1.34558 0)
(-1.96953e-09 1.34558 0)
(3.13955e-09 1.34558 0)
(1.11152e-09 1.34558 0)
(-4.97258e-09 1.34558 0)
(-2.24254e-09 1.34558 0)
(2.98355e-09 1.34558 0)
(5.83059e-09 1.34558 0)
(3.62706e-09 1.34558 0)
(5.46009e-10 1.34558 0)
(-1.03352e-09 1.34558 0)
(-4.03657e-09 1.34558 0)
(0 1.34558 0)
(3.54906e-09 1.34558 0)
(-1.17002e-10 1.34558 0)
(-3.56856e-09 1.34558 0)
(-1.75503e-10 1.34558 0)
(8.58014e-10 1.34558 0)
(-3.52956e-09 1.34558 0)
(2.26204e-09 1.34558 0)
(3.31505e-09 1.34558 0)
(-1.33714e-07 1.34558 0)
(-0.00114509 1.34558 0)
(-0.829193 1.34558 0)
(-69.1167 1.34555 0)
(-1025.36 1.34258 0)
(-4353.53 1.30183 0)
(-8548.51 1.16633 0)
(15047.9 0.893979 0)
(-91677.6 1.35812 0)
(91677.6 0.00206716 0)
(-15047.9 0.0013738 0)
(8548.51 0.00194768 0)
(4353.53 0.00223694 0)
(1025.36 0.00231963 0)
(69.1167 0.00232534 0)
(0.829193 0.00232541 0)
(0.00114509 0.00232541 0)
(1.27591e-07 0.0023254 0)
(9.94516e-10 0.0023254 0)
(-1.01402e-09 0.00232541 0)
(-1.56003e-10 0.00232541 0)
(0 0.00232541 0)
(-4.87508e-10 0.00232541 0)
(9.16515e-10 0.00232541 0)
(8.58014e-10 0.00232541 0)
(5.26509e-10 0.00232541 0)
(-8.58014e-10 0.00232541 0)
(-2.02803e-09 0.00232541 0)
(7.21512e-10 0.0023254 0)
(1.95003e-11 0.0023254 0)
(5.85009e-10 0.00232541 0)
(-3.90006e-11 0.00232541 0)
(-1.44302e-09 0.00232541 0)
(-1.17002e-10 0.0023254 0)
(1.56003e-10 0.00232541 0)
(2.02803e-09 0.00232541 0)
(0 0.00232541 0)