/*--------------------------------*- C++ -*----------------------------------*\
| =========                 |                                                 |
| \\      /  F ield         | OpenFOAM: The Open Source CFD Toolbox           |
|  \\    /   O peration     | Version:  v1912                                 |
|   \\  /    A nd           | Website:  www.openfoam.com                      |
|    \\/     M anipulation  |                                                 |
\*---------------------------------------------------------------------------*/
FoamFile
{
    version     2.0;
    format      ascii;
    class       volScalarField;
    location    "7.36";
    object      T;
}
// * * * * * * * * * * * * * * * * * * * * * * * * * * * * * * * * * * * * * //

dimensions      [0 0 0 1 0 0 0];


internalField   nonuniform List<scalar> 
1900
(
1.25679
0.976365
0.925809
0.922706
0.925238
0.933375
0.943204
0.949984
0.952814
0.953867
1.25679
0.976366
0.925809
0.922706
0.925232
0.933379
0.943192
0.950124
0.953137
0.953848
1.25679
0.976367
0.925809
0.922707
0.925231
0.933388
0.943193
0.950077
0.952892
0.953595
1.25679
0.976366
0.925809
0.922706
0.925232
0.933379
0.943192
0.950124
0.953137
0.953848
1.25679
0.976365
0.925809
0.922706
0.925238
0.933375
0.943204
0.949984
0.952814
0.953867
0.958092
0.954068
0.957159
0.965779
1.00568
0.953752
0.951189
0.953661
0.960688
0.98777
0.952918
0.950523
0.952664
0.96023
0.985787
0.953752
0.951189
0.953661
0.960688
0.98777
0.958092
0.954068
0.957159
0.965779
1.00568
0.797168
0.681727
0.616996
0.571525
0.539464
0.817042
0.698166
0.629834
0.58512
0.546355
0.816943
0.692518
0.623538
0.580395
0.537683
0.817042
0.698166
0.629834
0.58512
0.546355
0.797168
0.681727
0.616996
0.571525
0.539464
0.513826
0.496048
0.487581
0.479738
0.463026
0.452919
0.45919
0.531509
0.605688
0.619341
0.61733
0.605908
0.578424
0.544962
0.520805
0.500688
0.477673
0.44639
0.410654
0.38845
0.380311
0.375982
0.372193
0.368822
0.36633
0.364979
0.364545
0.364688
0.365008
0.365624
0.366299
0.367147
0.369765
0.380266
0.42098
0.459846
0.483136
0.500984
0.517879
0.523078
0.525598
0.517338
0.512943
0.504673
0.483768
0.464234
0.468503
0.538638
0.611658
0.623402
0.620234
0.607206
0.579586
0.545506
0.521281
0.501446
0.478405
0.446901
0.410881
0.388491
0.380306
0.375987
0.372201
0.36882
0.366319
0.364966
0.364532
0.364678
0.364999
0.365617
0.366292
0.367142
0.369759
0.380247
0.420966
0.459869
0.483096
0.500989
0.517862
0.523063
0.525168
0.521175
0.519221
0.513233
0.49247
0.46951
0.472793
0.540955
0.614734
0.624845
0.621286
0.607755
0.581439
0.548591
0.522401
0.501462
0.478129
0.446806
0.410964
0.388523
0.380307
0.37599
0.372205
0.36882
0.366316
0.364961
0.364528
0.364674
0.364996
0.365614
0.366289
0.367139
0.369757
0.380239
0.42096
0.459876
0.483078
0.500996
0.517864
0.523053
0.525598
0.517338
0.512943
0.504673
0.483768
0.464234
0.468503
0.538638
0.611658
0.623402
0.620234
0.607206
0.579586
0.545506
0.521281
0.501446
0.478405
0.446901
0.410881
0.388491
0.380306
0.375987
0.372201
0.36882
0.366319
0.364966
0.364532
0.364678
0.364999
0.365617
0.366292
0.367142
0.369759
0.380247
0.420966
0.459869
0.483096
0.500989
0.517862
0.523063
0.513826
0.496048
0.487581
0.479738
0.463026
0.452919
0.45919
0.531509
0.605688
0.619341
0.61733
0.605908
0.578424
0.544962
0.520805
0.500688
0.477673
0.44639
0.410654
0.38845
0.380311
0.375982
0.372193
0.368822
0.36633
0.364979
0.364545
0.364688
0.365008
0.365624
0.366299
0.367147
0.369765
0.380266
0.42098
0.459846
0.483136
0.500984
0.517879
0.523078
0.441258
0.437811
0.435136
0.432991
0.426842
0.428494
0.442068
0.515875
0.586352
0.605316
0.604641
0.59556
0.571326
0.541049
0.518485
0.499301
0.476647
0.445199
0.409632
0.388174
0.380308
0.375965
0.372163
0.36883
0.366373
0.365037
0.364602
0.364737
0.365051
0.365658
0.366328
0.367166
0.369792
0.380315
0.42101
0.459718
0.483161
0.500669
0.517874
0.523211
0.396517
0.39455
0.39097
0.390502
0.394
0.404236
0.433115
0.503898
0.56578
0.58757
0.587557
0.577621
0.554595
0.530959
0.512811
0.494987
0.472361
0.440868
0.406865
0.387547
0.380281
0.375919
0.372106
0.368844
0.366472
0.365179
0.364745
0.36486
0.365157
0.365745
0.3664
0.367217
0.369852
0.380415
0.421059
0.459525
0.483145
0.500238
0.517822
0.523292
0.397075
0.397887
0.397011
0.397662
0.405316
0.421137
0.455072
0.510323
0.556334
0.568464
0.567849
0.555969
0.537165
0.520591
0.50575
0.488652
0.465881
0.434532
0.403134
0.38676
0.380232
0.375871
0.372071
0.368899
0.366635
0.365405
0.364978
0.365067
0.365342
0.3659
0.366533
0.367316
0.369959
0.380571
0.4211
0.459322
0.483013
0.500014
0.517879
0.523406
0.401583
0.40165
0.401648
0.40512
0.416667
0.436662
0.473396
0.523157
0.54996
0.55751
0.550835
0.536149
0.522299
0.510453
0.497198
0.480519
0.457631
0.426746
0.399078
0.386007
0.380179
0.375834
0.372073
0.369011
0.366871
0.365715
0.365298
0.365359
0.365609
0.366133
0.366734
0.367477
0.370129
0.380808
0.421191
0.459163
0.482894
0.499968
0.518006
0.523538
0.410902
0.411443
0.414675
0.423714
0.439969
0.464808
0.502253
0.533161
0.545028
0.541902
0.53064
0.519557
0.510092
0.499991
0.487397
0.471119
0.447844
0.417992
0.395283
0.385359
0.380087
0.375788
0.3721
0.369177
0.367176
0.366101
0.365698
0.365729
0.365953
0.36644
0.367006
0.367701
0.37036
0.381094
0.421246
0.458944
0.482668
0.499882
0.518106
0.523662
0.43149
0.433832
0.44151
0.454219
0.471671
0.495064
0.51753
0.530673
0.531559
0.523368
0.514305
0.506112
0.49855
0.489082
0.477206
0.460855
0.436645
0.409221
0.392348
0.384917
0.380011
0.375765
0.372187
0.369427
0.367572
0.366582
0.366194
0.3662
0.366399
0.36685
0.367381
0.368031
0.370705
0.381553
0.421535
0.458933
0.482583
0.499938
0.51828
0.523775
0.461731
0.465915
0.473812
0.48168
0.494336
0.507684
0.516516
0.519982
0.515215
0.506015
0.499843
0.494091
0.487004
0.478269
0.466767
0.449346
0.424481
0.401826
0.390368
0.384497
0.379839
0.375707
0.372292
0.369716
0.368019
0.367119
0.366746
0.366729
0.366909
0.367327
0.367827
0.368437
0.371119
0.381994
0.42168
0.458824
0.482428
0.49989
0.518373
0.523856
0.490978
0.496893
0.496568
0.50076
0.504348
0.507072
0.509098
0.503754
0.496194
0.491797
0.487577
0.482227
0.475918
0.467819
0.455596
0.436252
0.412738
0.39676
0.38923
0.384223
0.379715
0.375737
0.372528
0.370158
0.368617
0.367798
0.367439
0.3674
0.367559
0.367947
0.368421
0.369
0.371702
0.382671
0.422122
0.458918
0.48242
0.499956
0.518551
0.524007
0.51725
0.520838
0.511758
0.50801
0.503355
0.499435
0.491369
0.486355
0.48313
0.479914
0.475799
0.471107
0.465604
0.457219
0.443106
0.422562
0.403771
0.393916
0.388481
0.383914
0.379598
0.375852
0.37288
0.370724
0.369337
0.368594
0.368248
0.36819
0.368325
0.368691
0.369149
0.369714
0.372432
0.3834
0.422498
0.459011
0.482406
0.500006
0.518749
0.524212
0.534821
0.524896
0.513598
0.505062
0.494561
0.485061
0.478681
0.474923
0.472043
0.468595
0.464857
0.461112
0.455529
0.44554
0.429246
0.41062
0.398655
0.392644
0.388198
0.383871
0.379777
0.376294
0.373571
0.371615
0.370351
0.369654
0.369304
0.369218
0.369322
0.369665
0.370112
0.370676
0.373428
0.384447
0.423224
0.459331
0.482547
0.500174
0.519071
0.5246
0.533812
0.521052
0.50836
0.499375
0.487596
0.477092
0.469415
0.464742
0.461218
0.457967
0.455262
0.451789
0.444889
0.432622
0.416188
0.403063
0.396305
0.392011
0.388001
0.383877
0.380017
0.376796
0.374311
0.37255
0.371405
0.37075
0.370399
0.370286
0.370366
0.370702
0.371162
0.371755
0.374538
0.385459
0.423745
0.459609
0.482725
0.500345
0.519426
0.525073
0.53406
0.521142
0.508107
0.498521
0.485419
0.471109
0.460039
0.454281
0.4509
0.448665
0.446583
0.442141
0.433178
0.419772
0.406851
0.399481
0.395282
0.391811
0.388044
0.384101
0.380509
0.377572
0.375328
0.373741
0.372691
0.372075
0.371727
0.371603
0.371678
0.372042
0.372543
0.373208
0.376083
0.387037
0.424963
0.460455
0.483387
0.500902
0.520108
0.525886
0.536268
0.522774
0.509437
0.498419
0.484256
0.46447
0.4502
0.444645
0.4423
0.440928
0.438203
0.431808
0.42139
0.410207
0.402915
0.39887
0.395978
0.392956
0.389463
0.385903
0.382788
0.380323
0.378496
0.377242
0.37643
0.375974
0.37573
0.37568
0.375815
0.376264
0.376823
0.377589
0.380543
0.391548
0.429126
0.464098
0.486134
0.502412
0.52103
0.526803
0.538927
0.525467
0.51146
0.498004
0.48243
0.458352
0.44303
0.43817
0.436629
0.435396
0.431746
0.424369
0.415394
0.408654
0.405122
0.403145
0.401371
0.399179
0.396595
0.394053
0.392005
0.390602
0.38975
0.389345
0.389244
0.389429
0.389616
0.390047
0.390552
0.39134
0.391994
0.392971
0.396052
0.407207
0.443911
0.475915
0.494549
0.507799
0.523836
0.528542
0.540805
0.527525
0.512883
0.500154
0.48352
0.45853
0.443964
0.440461
0.440068
0.43911
0.435787
0.431537
0.428439
0.427739
0.428291
0.429207
0.429775
0.429541
0.428669
0.427679
0.427072
0.426984
0.427115
0.427468
0.427886
0.42847
0.428871
0.42951
0.430054
0.430839
0.431319
0.432139
0.435096
0.445606
0.477482
0.502375
0.514964
0.520851
0.529901
0.531668
0.541181
0.531152
0.520616
0.514839
0.502816
0.481473
0.467664
0.464795
0.465122
0.464994
0.463362
0.462239
0.462208
0.46335
0.464682
0.465576
0.465552
0.464826
0.463705
0.462639
0.461944
0.46156
0.461179
0.461019
0.460939
0.461062
0.461109
0.461308
0.461476
0.46183
0.462024
0.462433
0.464973
0.473245
0.498017
0.518559
0.530132
0.534974
0.539503
0.537304
0.540938
0.536318
0.532641
0.534106
0.526706
0.509773
0.495007
0.489735
0.488014
0.486934
0.485835
0.486056
0.486717
0.4877
0.48833
0.488354
0.487662
0.486485
0.485151
0.48395
0.48306
0.48264
0.482393
0.482234
0.482073
0.482089
0.482048
0.482135
0.482228
0.482462
0.48259
0.482978
0.484707
0.491005
0.509197
0.527326
0.538308
0.541914
0.543415
0.539653
0.535752
0.539488
0.541589
0.542822
0.536545
0.520909
0.506567
0.500668
0.498198
0.497635
0.497431
0.498287
0.499398
0.500563
0.501345
0.501697
0.501581
0.501082
0.500535
0.500222
0.500259
0.499938
0.499551
0.499367
0.49931
0.499463
0.499555
0.499764
0.499968
0.500264
0.500451
0.500879
0.501757
0.506145
0.517124
0.532417
0.541087
0.545501
0.543944
0.531241
0.441603
0.508813
0.546724
0.547547
0.544585
0.532944
0.522968
0.518865
0.516968
0.516605
0.516638
0.517409
0.518473
0.51943
0.519981
0.520189
0.520002
0.519579
0.519158
0.518833
0.518697
0.518409
0.518234
0.518138
0.518094
0.518199
0.518272
0.518447
0.518626
0.518895
0.519156
0.519655
0.520254
0.522509
0.527608
0.537338
0.542835
0.543868
0.507294
0.432067
0.326957
0.42005
0.532365
0.542702
0.540423
0.533241
0.527948
0.525969
0.525442
0.525507
0.525847
0.52647
0.527134
0.527556
0.527642
0.527393
0.526871
0.526328
0.525887
0.52552
0.52513
0.524685
0.524267
0.523977
0.523803
0.523732
0.523712
0.523786
0.523878
0.524099
0.524401
0.524992
0.525656
0.527024
0.529669
0.53519
0.538467
0.531393
0.435029
0.329366
0.326957
0.42005
0.532365
0.542702
0.540423
0.533241
0.527948
0.525969
0.525442
0.525507
0.525847
0.52647
0.527134
0.527556
0.527642
0.527393
0.526871
0.526328
0.525887
0.52552
0.52513
0.524685
0.524267
0.523977
0.523803
0.523732
0.523712
0.523786
0.523878
0.524099
0.524401
0.524992
0.525656
0.527024
0.529669
0.53519
0.538467
0.531393
0.435029
0.329366
0.441603
0.508813
0.546724
0.547547
0.544585
0.532944
0.522968
0.518865
0.516968
0.516605
0.516638
0.517409
0.518473
0.51943
0.519981
0.520189
0.520002
0.519579
0.519158
0.518833
0.518697
0.518409
0.518234
0.518138
0.518094
0.518199
0.518272
0.518447
0.518626
0.518895
0.519156
0.519655
0.520254
0.522509
0.527608
0.537338
0.542835
0.543868
0.507294
0.432067
0.535752
0.539488
0.541589
0.542822
0.536545
0.520909
0.506567
0.500668
0.498198
0.497635
0.497431
0.498287
0.499398
0.500563
0.501345
0.501697
0.501581
0.501082
0.500535
0.500222
0.500259
0.499938
0.499551
0.499367
0.49931
0.499463
0.499555
0.499764
0.499968
0.500264
0.500451
0.500879
0.501757
0.506145
0.517124
0.532417
0.541087
0.545501
0.543944
0.531241
0.540938
0.536318
0.532641
0.534106
0.526706
0.509773
0.495007
0.489735
0.488014
0.486934
0.485835
0.486056
0.486717
0.4877
0.48833
0.488354
0.487662
0.486485
0.485151
0.48395
0.48306
0.48264
0.482393
0.482234
0.482073
0.482089
0.482048
0.482135
0.482228
0.482462
0.48259
0.482978
0.484707
0.491005
0.509197
0.527326
0.538308
0.541914
0.543415
0.539653
0.541181
0.531152
0.520616
0.514839
0.502816
0.481473
0.467664
0.464795
0.465122
0.464994
0.463362
0.462239
0.462208
0.46335
0.464682
0.465576
0.465552
0.464826
0.463705
0.462639
0.461944
0.46156
0.461179
0.461019
0.460939
0.461062
0.461109
0.461308
0.461476
0.46183
0.462024
0.462433
0.464973
0.473245
0.498017
0.518559
0.530132
0.534974
0.539503
0.537304
0.540805
0.527525
0.512883
0.500154
0.48352
0.45853
0.443964
0.440461
0.440068
0.43911
0.435787
0.431537
0.428439
0.427739
0.428291
0.429207
0.429775
0.429541
0.428669
0.427679
0.427072
0.426984
0.427115
0.427468
0.427886
0.42847
0.428871
0.42951
0.430054
0.430839
0.431319
0.432139
0.435096
0.445606
0.477482
0.502375
0.514964
0.520851
0.529901
0.531668
0.538927
0.525467
0.51146
0.498004
0.48243
0.458352
0.44303
0.43817
0.436629
0.435396
0.431746
0.424369
0.415394
0.408654
0.405122
0.403145
0.401371
0.399179
0.396595
0.394053
0.392005
0.390602
0.38975
0.389345
0.389244
0.389429
0.389616
0.390047
0.390552
0.39134
0.391994
0.392971
0.396052
0.407207
0.443911
0.475915
0.494549
0.507799
0.523836
0.528542
0.536268
0.522774
0.509437
0.498419
0.484256
0.46447
0.4502
0.444645
0.4423
0.440928
0.438203
0.431808
0.42139
0.410207
0.402915
0.39887
0.395978
0.392956
0.389463
0.385903
0.382788
0.380323
0.378496
0.377242
0.37643
0.375974
0.37573
0.37568
0.375815
0.376264
0.376823
0.377589
0.380543
0.391548
0.429126
0.464098
0.486134
0.502412
0.52103
0.526803
0.53406
0.521142
0.508107
0.498521
0.485419
0.471109
0.460039
0.454281
0.4509
0.448665
0.446583
0.442141
0.433178
0.419772
0.406851
0.399481
0.395282
0.391811
0.388044
0.384101
0.380509
0.377572
0.375328
0.373741
0.372691
0.372075
0.371727
0.371603
0.371678
0.372042
0.372543
0.373208
0.376083
0.387037
0.424963
0.460455
0.483387
0.500902
0.520108
0.525886
0.533812
0.521052
0.50836
0.499375
0.487596
0.477092
0.469415
0.464742
0.461218
0.457967
0.455262
0.451789
0.444889
0.432622
0.416188
0.403063
0.396305
0.392011
0.388001
0.383877
0.380017
0.376796
0.374311
0.37255
0.371405
0.37075
0.370399
0.370286
0.370366
0.370702
0.371162
0.371755
0.374538
0.385459
0.423745
0.459609
0.482725
0.500345
0.519426
0.525073
0.534821
0.524896
0.513598
0.505062
0.494561
0.485061
0.478681
0.474923
0.472043
0.468595
0.464857
0.461112
0.455529
0.44554
0.429246
0.41062
0.398655
0.392644
0.388198
0.383871
0.379777
0.376294
0.373571
0.371615
0.370351
0.369654
0.369304
0.369218
0.369322
0.369665
0.370112
0.370676
0.373428
0.384447
0.423224
0.459331
0.482547
0.500174
0.519071
0.5246
0.51725
0.520838
0.511758
0.50801
0.503355
0.499435
0.491369
0.486355
0.48313
0.479914
0.475799
0.471107
0.465604
0.457219
0.443106
0.422562
0.403771
0.393916
0.388481
0.383914
0.379598
0.375852
0.37288
0.370724
0.369337
0.368594
0.368248
0.36819
0.368325
0.368691
0.369149
0.369714
0.372432
0.3834
0.422498
0.459011
0.482406
0.500006
0.518749
0.524212
0.490978
0.496893
0.496568
0.50076
0.504348
0.507072
0.509098
0.503754
0.496194
0.491797
0.487577
0.482227
0.475918
0.467819
0.455596
0.436252
0.412738
0.39676
0.38923
0.384223
0.379715
0.375737
0.372528
0.370158
0.368617
0.367798
0.367439
0.3674
0.367559
0.367947
0.368421
0.369
0.371702
0.382671
0.422122
0.458918
0.48242
0.499956
0.518551
0.524007
0.461731
0.465915
0.473812
0.48168
0.494336
0.507684
0.516516
0.519982
0.515215
0.506015
0.499843
0.494091
0.487004
0.478269
0.466767
0.449346
0.424481
0.401826
0.390368
0.384497
0.379839
0.375707
0.372292
0.369716
0.368019
0.367119
0.366746
0.366729
0.366909
0.367327
0.367827
0.368437
0.371119
0.381994
0.42168
0.458824
0.482428
0.49989
0.518373
0.523856
0.43149
0.433832
0.44151
0.454219
0.471671
0.495064
0.51753
0.530673
0.531559
0.523368
0.514305
0.506112
0.49855
0.489082
0.477206
0.460855
0.436645
0.409221
0.392348
0.384917
0.380011
0.375765
0.372187
0.369427
0.367572
0.366582
0.366194
0.3662
0.366399
0.36685
0.367381
0.368031
0.370705
0.381553
0.421535
0.458933
0.482583
0.499938
0.51828
0.523775
0.410902
0.411443
0.414675
0.423714
0.439969
0.464808
0.502253
0.533161
0.545028
0.541902
0.53064
0.519557
0.510092
0.499991
0.487397
0.471119
0.447844
0.417992
0.395283
0.385359
0.380087
0.375788
0.3721
0.369177
0.367176
0.366101
0.365698
0.365729
0.365953
0.36644
0.367006
0.367701
0.37036
0.381094
0.421246
0.458944
0.482668
0.499882
0.518106
0.523662
0.401583
0.40165
0.401648
0.40512
0.416667
0.436662
0.473396
0.523157
0.54996
0.55751
0.550835
0.536149
0.522299
0.510453
0.497198
0.480519
0.457631
0.426746
0.399078
0.386007
0.380179
0.375834
0.372073
0.369011
0.366871
0.365715
0.365298
0.365359
0.365609
0.366133
0.366734
0.367477
0.370129
0.380808
0.421191
0.459163
0.482894
0.499968
0.518006
0.523538
0.397075
0.397887
0.397011
0.397662
0.405316
0.421137
0.455072
0.510323
0.556334
0.568464
0.567849
0.555969
0.537165
0.520591
0.50575
0.488652
0.465881
0.434532
0.403134
0.38676
0.380232
0.375871
0.372071
0.368899
0.366635
0.365405
0.364978
0.365067
0.365342
0.3659
0.366533
0.367316
0.369959
0.380571
0.4211
0.459322
0.483013
0.500014
0.517879
0.523406
0.396517
0.39455
0.39097
0.390502
0.394
0.404236
0.433115
0.503898
0.56578
0.58757
0.587557
0.577621
0.554595
0.530959
0.512811
0.494987
0.472361
0.440868
0.406865
0.387547
0.380281
0.375919
0.372106
0.368844
0.366472
0.365179
0.364745
0.36486
0.365157
0.365745
0.3664
0.367217
0.369852
0.380415
0.421059
0.459525
0.483145
0.500238
0.517822
0.523292
0.441258
0.437811
0.435136
0.432991
0.426842
0.428494
0.442068
0.515875
0.586352
0.605316
0.604641
0.59556
0.571326
0.541049
0.518485
0.499301
0.476647
0.445199
0.409632
0.388174
0.380308
0.375965
0.372163
0.36883
0.366373
0.365037
0.364602
0.364737
0.365051
0.365658
0.366328
0.367166
0.369792
0.380315
0.42101
0.459718
0.483161
0.500669
0.517874
0.523211
)
;

boundaryField
{
    inlet
    {
        type            fixedValue;
        value           uniform 1;
    }
    outlet
    {
        type            zeroGradient;
    }
    obstacle
    {
        type            zeroGradient;
    }
    empty
    {
        type            empty;
    }
}


// ************************************************************************* //
