/*--------------------------------*- C++ -*----------------------------------*\
| =========                 |                                                 |
| \\      /  F ield         | OpenFOAM: The Open Source CFD Toolbox           |
|  \\    /   O peration     | Version:  v1912                                 |
|   \\  /    A nd           | Website:  www.openfoam.com                      |
|    \\/     M anipulation  |                                                 |
\*---------------------------------------------------------------------------*/
FoamFile
{
    version     2.0;
    format      ascii;
    class       volScalarField;
    location    "5.5";
    object      T;
}
// * * * * * * * * * * * * * * * * * * * * * * * * * * * * * * * * * * * * * //

dimensions      [0 0 0 1 0 0 0];


internalField   nonuniform List<scalar> 
1900
(
1.17283
0.921949
0.937457
0.959008
0.969329
0.973927
0.975408
0.975368
0.97425
0.972099
1.17283
0.921946
0.937452
0.959002
0.969337
0.973961
0.975479
0.975497
0.974634
0.971833
1.17283
0.921946
0.93745
0.959005
0.969356
0.973989
0.975488
0.975418
0.974239
0.97151
1.17283
0.921946
0.937452
0.959002
0.969337
0.973961
0.975479
0.975497
0.974634
0.971833
1.17283
0.921949
0.937457
0.959008
0.969329
0.973927
0.975408
0.975368
0.97425
0.972099
0.974043
0.967416
0.966169
0.96782
0.998255
0.96899
0.963721
0.962104
0.962151
0.980566
0.96816
0.962946
0.960894
0.961719
0.980562
0.96899
0.963721
0.962104
0.962151
0.980566
0.974043
0.967416
0.966169
0.96782
0.998255
0.811038
0.743772
0.733502
0.710726
0.678332
0.831044
0.75596
0.741433
0.716924
0.688256
0.830919
0.750484
0.735522
0.71301
0.68421
0.831044
0.75596
0.741433
0.716924
0.688256
0.811038
0.743772
0.733502
0.710726
0.678332
0.576931
0.501006
0.52072
0.563472
0.602127
0.606308
0.590331
0.562639
0.539191
0.524443
0.514229
0.504819
0.495516
0.486893
0.480242
0.47606
0.473556
0.471811
0.470371
0.4691
0.468009
0.467109
0.466383
0.465819
0.465395
0.465102
0.464922
0.464893
0.465054
0.465519
0.466177
0.467274
0.468455
0.470204
0.471768
0.474803
0.478908
0.487063
0.463403
0.384916
0.58968
0.485165
0.509571
0.561047
0.605171
0.608767
0.592455
0.563682
0.53953
0.524582
0.514278
0.504848
0.495601
0.486929
0.480249
0.476057
0.47355
0.471805
0.470366
0.469095
0.468004
0.467104
0.466377
0.465813
0.465389
0.465096
0.464915
0.464886
0.465046
0.465512
0.466169
0.467268
0.468448
0.470202
0.471756
0.474807
0.478919
0.487142
0.463832
0.385997
0.588899
0.483296
0.500409
0.554871
0.600782
0.608056
0.593126
0.564182
0.53967
0.524632
0.514301
0.504856
0.495639
0.486939
0.480251
0.476055
0.473548
0.471804
0.470365
0.469094
0.468003
0.467102
0.466375
0.465811
0.465387
0.465093
0.464913
0.464883
0.465043
0.465509
0.466166
0.467266
0.468446
0.470202
0.471754
0.474813
0.478936
0.487215
0.464075
0.386413
0.58968
0.485165
0.509571
0.561047
0.605171
0.608767
0.592455
0.563682
0.53953
0.524582
0.514278
0.504848
0.495601
0.486929
0.480249
0.476057
0.47355
0.471805
0.470366
0.469095
0.468004
0.467104
0.466377
0.465813
0.465389
0.465096
0.464915
0.464886
0.465046
0.465512
0.466169
0.467268
0.468448
0.470202
0.471756
0.474807
0.478919
0.487142
0.463832
0.385997
0.576931
0.501006
0.52072
0.563472
0.602127
0.606308
0.590331
0.562639
0.539191
0.524443
0.514229
0.504819
0.495516
0.486893
0.480242
0.47606
0.473556
0.471811
0.470371
0.4691
0.468009
0.467109
0.466383
0.465819
0.465395
0.465102
0.464922
0.464893
0.465054
0.465519
0.466177
0.467274
0.468455
0.470204
0.471768
0.474803
0.478908
0.487063
0.463403
0.384916
0.544623
0.5081
0.537843
0.570317
0.598293
0.598227
0.583271
0.558955
0.537627
0.523757
0.513874
0.5045
0.495155
0.48667
0.480169
0.476061
0.473572
0.471825
0.470382
0.469112
0.468023
0.467126
0.466401
0.465839
0.465415
0.465124
0.464945
0.464918
0.465079
0.465543
0.466198
0.467288
0.46847
0.470201
0.471805
0.474788
0.478873
0.486784
0.463164
0.388079
0.51175
0.499605
0.525771
0.561548
0.584844
0.581781
0.569136
0.550127
0.533449
0.521962
0.512829
0.503593
0.494328
0.486154
0.48
0.476071
0.473623
0.47187
0.470421
0.469152
0.468069
0.467178
0.466458
0.465899
0.465479
0.465191
0.465016
0.464992
0.465155
0.465617
0.466268
0.467341
0.468521
0.470228
0.471881
0.474788
0.4788
0.486272
0.463982
0.385753
0.47454
0.497138
0.52785
0.559068
0.567523
0.565393
0.554829
0.540618
0.528474
0.519377
0.511131
0.502201
0.493184
0.485463
0.479757
0.476072
0.473691
0.47194
0.470486
0.46922
0.468146
0.467264
0.466551
0.465998
0.465584
0.465303
0.465135
0.465118
0.465286
0.465744
0.46639
0.467442
0.468619
0.470298
0.471998
0.474806
0.478722
0.485758
0.465027
0.388032
0.460698
0.502899
0.530258
0.54938
0.553068
0.549704
0.541536
0.531907
0.523451
0.516439
0.50895
0.500421
0.491811
0.484668
0.479471
0.476059
0.47376
0.472018
0.470564
0.469305
0.468243
0.467372
0.46667
0.466127
0.465721
0.46545
0.465294
0.465288
0.465463
0.465919
0.466559
0.467587
0.468761
0.470415
0.472142
0.474864
0.478643
0.485481
0.465922
0.389836
0.453512
0.504202
0.527114
0.538535
0.538978
0.536134
0.530505
0.524523
0.518685
0.513209
0.506372
0.498298
0.490298
0.483822
0.479165
0.476031
0.47382
0.472097
0.47065
0.469401
0.468354
0.467499
0.46681
0.466279
0.465885
0.465627
0.465485
0.465497
0.465679
0.466133
0.466766
0.467766
0.468931
0.470557
0.472296
0.474938
0.478558
0.485399
0.466706
0.390996
0.447052
0.501321
0.521695
0.526977
0.526789
0.52514
0.521879
0.518488
0.514614
0.510062
0.503671
0.496065
0.488787
0.483021
0.478882
0.476005
0.473884
0.472186
0.470751
0.469517
0.468489
0.467651
0.466978
0.466463
0.466086
0.465843
0.465719
0.465756
0.465948
0.4664
0.467026
0.467999
0.469154
0.470758
0.472499
0.475088
0.47859
0.48555
0.467456
0.391964
0.439326
0.495103
0.51586
0.515749
0.517554
0.517012
0.515553
0.513624
0.510892
0.506786
0.500729
0.49373
0.487284
0.482253
0.478607
0.475969
0.473945
0.472285
0.470871
0.469658
0.468651
0.467833
0.467178
0.46668
0.46632
0.466094
0.465986
0.466046
0.466243
0.466688
0.467297
0.468232
0.469364
0.470932
0.472661
0.475188
0.478567
0.485773
0.46847
0.393082
0.432221
0.488484
0.509545
0.508158
0.511435
0.511301
0.51078
0.509675
0.507559
0.503635
0.497884
0.491587
0.485997
0.481666
0.47845
0.476025
0.474093
0.472474
0.471088
0.469899
0.468914
0.468117
0.467481
0.467002
0.46666
0.466451
0.466362
0.466446
0.466647
0.467082
0.467669
0.468563
0.469663
0.471191
0.472901
0.475365
0.478682
0.486083
0.469305
0.394198
0.427094
0.484201
0.504619
0.504278
0.507592
0.507356
0.507151
0.506373
0.504359
0.500467
0.495123
0.489617
0.48486
0.481173
0.478342
0.476122
0.474293
0.472729
0.471383
0.470224
0.469266
0.46849
0.467873
0.46741
0.467082
0.466885
0.466808
0.466907
0.467101
0.467511
0.468063
0.468902
0.469954
0.471427
0.473103
0.475507
0.478761
0.486357
0.470367
0.395574
0.424076
0.480775
0.500544
0.501072
0.504554
0.504206
0.504165
0.503418
0.501254
0.497444
0.492656
0.488014
0.484066
0.480958
0.478488
0.47646
0.474735
0.473241
0.471944
0.470822
0.469892
0.469135
0.468528
0.468072
0.467748
0.467552
0.467473
0.467571
0.46774
0.468108
0.468605
0.469371
0.470359
0.471761
0.473395
0.475737
0.478966
0.486678
0.471334
0.396986
0.422689
0.478414
0.497632
0.498982
0.502384
0.501834
0.501714
0.500743
0.49836
0.494776
0.49064
0.486829
0.483576
0.480927
0.478762
0.476904
0.475289
0.473871
0.472628
0.471546
0.470645
0.469908
0.469314
0.468866
0.468547
0.468356
0.468274
0.46837
0.468511
0.468832
0.469266
0.469951
0.470862
0.472187
0.473768
0.476042
0.479226
0.487016
0.472452
0.398752
0.422463
0.477146
0.495802
0.497517
0.500631
0.49984
0.499507
0.498228
0.495744
0.492588
0.489174
0.486118
0.483486
0.481288
0.47936
0.477679
0.476185
0.474858
0.473684
0.472648
0.471774
0.471047
0.470451
0.469995
0.469665
0.469465
0.469365
0.469439
0.469537
0.469796
0.470152
0.47074
0.47156
0.47279
0.474312
0.476514
0.479653
0.487495
0.473758
0.400625
0.423292
0.47672
0.495032
0.496717
0.499253
0.498215
0.497605
0.496148
0.493765
0.491056
0.488291
0.485837
0.483714
0.481813
0.480112
0.478569
0.477171
0.475914
0.474792
0.473795
0.472952
0.47225
0.471673
0.471234
0.470917
0.47073
0.470628
0.470694
0.470761
0.470972
0.471262
0.471766
0.472511
0.473674
0.475162
0.477333
0.480464
0.488344
0.4753
0.403096
0.42425
0.477337
0.495255
0.496665
0.498484
0.497117
0.496125
0.494568
0.492417
0.490276
0.488143
0.48625
0.484466
0.482856
0.48135
0.479953
0.478667
0.477499
0.476448
0.475499
0.474677
0.47397
0.473378
0.472926
0.472599
0.472408
0.472287
0.472329
0.472358
0.472515
0.472739
0.473159
0.473837
0.47494
0.476423
0.478579
0.481702
0.489723
0.477557
0.406318
0.426618
0.4787
0.496
0.496904
0.497878
0.496466
0.495232
0.493752
0.491931
0.490321
0.488597
0.487047
0.485544
0.484131
0.482765
0.481461
0.480225
0.479067
0.478001
0.477044
0.476258
0.475627
0.475115
0.474722
0.474429
0.474258
0.474138
0.474179
0.47419
0.47432
0.474497
0.474859
0.475494
0.476575
0.478094
0.480294
0.483499
0.491788
0.480518
0.410727
0.431343
0.481244
0.497889
0.498189
0.498451
0.497055
0.495683
0.494392
0.492856
0.491558
0.49018
0.488923
0.487643
0.486423
0.485221
0.48407
0.482972
0.481937
0.480967
0.480068
0.4793
0.478643
0.478079
0.477627
0.477274
0.477063
0.476893
0.476896
0.476855
0.476934
0.477037
0.477321
0.477904
0.478951
0.480508
0.482753
0.486003
0.494639
0.484153
0.416866
0.437808
0.485039
0.500849
0.500619
0.500166
0.498666
0.497283
0.496244
0.495017
0.494002
0.492873
0.491848
0.490754
0.489741
0.488748
0.487812
0.486901
0.485986
0.485075
0.484202
0.483468
0.482854
0.48229
0.481771
0.481299
0.481
0.480718
0.480665
0.480561
0.480622
0.480695
0.480959
0.481528
0.482574
0.484212
0.486559
0.489873
0.498789
0.488991
0.424261
0.446082
0.492487
0.508679
0.507188
0.505794
0.504036
0.502665
0.501844
0.501002
0.500272
0.499396
0.498483
0.497412
0.496355
0.495296
0.494389
0.493686
0.493199
0.492823
0.492347
0.491654
0.49073
0.489732
0.488986
0.488527
0.488434
0.488433
0.488532
0.488644
0.488847
0.489051
0.489386
0.490008
0.491196
0.493092
0.495881
0.499547
0.508629
0.497711
0.434108
0.361517
0.473406
0.504096
0.499595
0.497263
0.493525
0.491126
0.488695
0.486835
0.484998
0.483294
0.481501
0.479744
0.47795
0.476169
0.474465
0.472898
0.471537
0.470548
0.469944
0.469223
0.468474
0.468155
0.468402
0.468866
0.469525
0.470472
0.4712
0.472236
0.473215
0.47433
0.475546
0.477049
0.479189
0.48208
0.485848
0.49054
0.498534
0.475519
0.363635
0.342808
0.36819
0.436734
0.428264
0.421926
0.416756
0.413534
0.410387
0.408083
0.406061
0.404056
0.402172
0.400329
0.398467
0.396689
0.395064
0.393712
0.392656
0.391972
0.391584
0.391133
0.390512
0.390336
0.390567
0.391199
0.392209
0.393476
0.394687
0.396177
0.397735
0.399617
0.401544
0.404165
0.407259
0.411724
0.418418
0.425827
0.434138
0.363576
0.341504
0.342808
0.36819
0.436734
0.428264
0.421926
0.416756
0.413534
0.410387
0.408083
0.406061
0.404056
0.402172
0.400329
0.398467
0.396689
0.395064
0.393712
0.392656
0.391972
0.391584
0.391133
0.390512
0.390336
0.390567
0.391199
0.392209
0.393476
0.394687
0.396177
0.397735
0.399617
0.401544
0.404165
0.407259
0.411724
0.418418
0.425827
0.434138
0.363576
0.341504
0.361517
0.473406
0.504096
0.499595
0.497263
0.493525
0.491126
0.488695
0.486835
0.484998
0.483294
0.481501
0.479744
0.47795
0.476169
0.474465
0.472898
0.471537
0.470548
0.469944
0.469223
0.468474
0.468155
0.468402
0.468866
0.469525
0.470472
0.4712
0.472236
0.473215
0.47433
0.475546
0.477049
0.479189
0.48208
0.485848
0.49054
0.498534
0.475519
0.363635
0.446082
0.492487
0.508679
0.507188
0.505794
0.504036
0.502665
0.501844
0.501002
0.500272
0.499396
0.498483
0.497412
0.496355
0.495296
0.494389
0.493686
0.493199
0.492823
0.492347
0.491654
0.49073
0.489732
0.488986
0.488527
0.488434
0.488433
0.488532
0.488644
0.488847
0.489051
0.489386
0.490008
0.491196
0.493092
0.495881
0.499547
0.508629
0.497711
0.434108
0.437808
0.485039
0.500849
0.500619
0.500166
0.498666
0.497283
0.496244
0.495017
0.494002
0.492873
0.491848
0.490754
0.489741
0.488748
0.487812
0.486901
0.485986
0.485075
0.484202
0.483468
0.482854
0.48229
0.481771
0.481299
0.481
0.480718
0.480665
0.480561
0.480622
0.480695
0.480959
0.481528
0.482574
0.484212
0.486559
0.489873
0.498789
0.488991
0.424261
0.431343
0.481244
0.497889
0.498189
0.498451
0.497055
0.495683
0.494392
0.492856
0.491558
0.49018
0.488923
0.487643
0.486423
0.485221
0.48407
0.482972
0.481937
0.480967
0.480068
0.4793
0.478643
0.478079
0.477627
0.477274
0.477063
0.476893
0.476896
0.476855
0.476934
0.477037
0.477321
0.477904
0.478951
0.480508
0.482753
0.486003
0.494639
0.484153
0.416866
0.426618
0.4787
0.496
0.496904
0.497878
0.496466
0.495232
0.493752
0.491931
0.490321
0.488597
0.487047
0.485544
0.484131
0.482765
0.481461
0.480225
0.479067
0.478001
0.477044
0.476258
0.475627
0.475115
0.474722
0.474429
0.474258
0.474138
0.474179
0.47419
0.47432
0.474497
0.474859
0.475494
0.476575
0.478094
0.480294
0.483499
0.491788
0.480518
0.410727
0.42425
0.477337
0.495255
0.496665
0.498484
0.497117
0.496125
0.494568
0.492417
0.490276
0.488143
0.48625
0.484466
0.482856
0.48135
0.479953
0.478667
0.477499
0.476448
0.475499
0.474677
0.47397
0.473378
0.472926
0.472599
0.472408
0.472287
0.472329
0.472358
0.472515
0.472739
0.473159
0.473837
0.47494
0.476423
0.478579
0.481702
0.489723
0.477557
0.406318
0.423292
0.47672
0.495032
0.496717
0.499253
0.498215
0.497605
0.496148
0.493765
0.491056
0.488291
0.485837
0.483714
0.481813
0.480112
0.478569
0.477171
0.475914
0.474792
0.473795
0.472952
0.47225
0.471673
0.471234
0.470917
0.47073
0.470628
0.470694
0.470761
0.470972
0.471262
0.471766
0.472511
0.473674
0.475162
0.477333
0.480464
0.488344
0.4753
0.403096
0.422463
0.477146
0.495802
0.497517
0.500631
0.49984
0.499507
0.498228
0.495744
0.492588
0.489174
0.486118
0.483486
0.481288
0.47936
0.477679
0.476185
0.474858
0.473684
0.472648
0.471774
0.471047
0.470451
0.469995
0.469665
0.469465
0.469365
0.469439
0.469537
0.469796
0.470152
0.47074
0.47156
0.47279
0.474312
0.476514
0.479653
0.487495
0.473758
0.400625
0.422689
0.478414
0.497632
0.498982
0.502384
0.501834
0.501714
0.500743
0.49836
0.494776
0.49064
0.486829
0.483576
0.480927
0.478762
0.476904
0.475289
0.473871
0.472628
0.471546
0.470645
0.469908
0.469314
0.468866
0.468547
0.468356
0.468274
0.46837
0.468511
0.468832
0.469266
0.469951
0.470862
0.472187
0.473768
0.476042
0.479226
0.487016
0.472452
0.398752
0.424076
0.480775
0.500544
0.501072
0.504554
0.504206
0.504165
0.503418
0.501254
0.497444
0.492656
0.488014
0.484066
0.480958
0.478488
0.47646
0.474735
0.473241
0.471944
0.470822
0.469892
0.469135
0.468528
0.468072
0.467748
0.467552
0.467473
0.467571
0.46774
0.468108
0.468605
0.469371
0.470359
0.471761
0.473395
0.475737
0.478966
0.486678
0.471334
0.396986
0.427094
0.484201
0.504619
0.504278
0.507592
0.507356
0.507151
0.506373
0.504359
0.500467
0.495123
0.489617
0.48486
0.481173
0.478342
0.476122
0.474293
0.472729
0.471383
0.470224
0.469266
0.46849
0.467873
0.46741
0.467082
0.466885
0.466808
0.466907
0.467101
0.467511
0.468063
0.468902
0.469954
0.471427
0.473103
0.475507
0.478761
0.486357
0.470367
0.395574
0.432221
0.488484
0.509545
0.508158
0.511435
0.511301
0.51078
0.509675
0.507559
0.503635
0.497884
0.491587
0.485997
0.481666
0.47845
0.476025
0.474093
0.472474
0.471088
0.469899
0.468914
0.468117
0.467481
0.467002
0.46666
0.466451
0.466362
0.466446
0.466647
0.467082
0.467669
0.468563
0.469663
0.471191
0.472901
0.475365
0.478682
0.486083
0.469305
0.394198
0.439326
0.495103
0.51586
0.515749
0.517554
0.517012
0.515553
0.513624
0.510892
0.506786
0.500729
0.49373
0.487284
0.482253
0.478607
0.475969
0.473945
0.472285
0.470871
0.469658
0.468651
0.467833
0.467178
0.46668
0.46632
0.466094
0.465986
0.466046
0.466243
0.466688
0.467297
0.468232
0.469364
0.470932
0.472661
0.475188
0.478567
0.485773
0.46847
0.393082
0.447052
0.501321
0.521695
0.526977
0.526789
0.52514
0.521879
0.518488
0.514614
0.510062
0.503671
0.496065
0.488787
0.483021
0.478882
0.476005
0.473884
0.472186
0.470751
0.469517
0.468489
0.467651
0.466978
0.466463
0.466086
0.465843
0.465719
0.465756
0.465948
0.4664
0.467026
0.467999
0.469154
0.470758
0.472499
0.475088
0.47859
0.48555
0.467456
0.391964
0.453512
0.504202
0.527114
0.538535
0.538978
0.536134
0.530505
0.524523
0.518685
0.513209
0.506372
0.498298
0.490298
0.483822
0.479165
0.476031
0.47382
0.472097
0.47065
0.469401
0.468354
0.467499
0.46681
0.466279
0.465885
0.465627
0.465485
0.465497
0.465679
0.466133
0.466766
0.467766
0.468931
0.470557
0.472296
0.474938
0.478558
0.485399
0.466706
0.390996
0.460698
0.502899
0.530258
0.54938
0.553068
0.549704
0.541536
0.531907
0.523451
0.516439
0.50895
0.500421
0.491811
0.484668
0.479471
0.476059
0.47376
0.472018
0.470564
0.469305
0.468243
0.467372
0.46667
0.466127
0.465721
0.46545
0.465294
0.465288
0.465463
0.465919
0.466559
0.467587
0.468761
0.470415
0.472142
0.474864
0.478643
0.485481
0.465922
0.389836
0.47454
0.497138
0.52785
0.559068
0.567523
0.565393
0.554829
0.540618
0.528474
0.519377
0.511131
0.502201
0.493184
0.485463
0.479757
0.476072
0.473691
0.47194
0.470486
0.46922
0.468146
0.467264
0.466551
0.465998
0.465584
0.465303
0.465135
0.465118
0.465286
0.465744
0.46639
0.467442
0.468619
0.470298
0.471998
0.474806
0.478722
0.485758
0.465027
0.388032
0.51175
0.499605
0.525771
0.561548
0.584844
0.581781
0.569136
0.550127
0.533449
0.521962
0.512829
0.503593
0.494328
0.486154
0.48
0.476071
0.473623
0.47187
0.470421
0.469152
0.468069
0.467178
0.466458
0.465899
0.465479
0.465191
0.465016
0.464992
0.465155
0.465617
0.466268
0.467341
0.468521
0.470228
0.471881
0.474788
0.4788
0.486272
0.463982
0.385753
0.544623
0.5081
0.537843
0.570317
0.598293
0.598227
0.583271
0.558955
0.537627
0.523757
0.513874
0.5045
0.495155
0.48667
0.480169
0.476061
0.473572
0.471825
0.470382
0.469112
0.468023
0.467126
0.466401
0.465839
0.465415
0.465124
0.464945
0.464918
0.465079
0.465543
0.466198
0.467288
0.46847
0.470201
0.471805
0.474788
0.478873
0.486784
0.463164
0.388079
)
;

boundaryField
{
    inlet
    {
        type            fixedValue;
        value           uniform 1;
    }
    outlet
    {
        type            zeroGradient;
    }
    obstacle
    {
        type            zeroGradient;
    }
    empty
    {
        type            empty;
    }
}


// ************************************************************************* //
