/*--------------------------------*- C++ -*----------------------------------*\
| =========                 |                                                 |
| \\      /  F ield         | OpenFOAM: The Open Source CFD Toolbox           |
|  \\    /   O peration     | Version:  v1912                                 |
|   \\  /    A nd           | Website:  www.openfoam.com                      |
|    \\/     M anipulation  |                                                 |
\*---------------------------------------------------------------------------*/
FoamFile
{
    version     2.0;
    format      ascii;
    class       volScalarField;
    location    "5.46";
    object      Ma;
}
// * * * * * * * * * * * * * * * * * * * * * * * * * * * * * * * * * * * * * //

dimensions      [0 0 0 0 0 0 0];


internalField   nonuniform List<scalar> 
1900
(
0.807855
0.076605
0.060336
0.0611132
0.0687818
0.0774191
0.0851402
0.0913061
0.0948653
0.0882477
0.807855
0.076602
0.0603603
0.06112
0.0687461
0.0772483
0.0845657
0.0902646
0.0961055
0.101225
0.807854
0.0765993
0.0603644
0.061108
0.0686955
0.0771236
0.0843212
0.0900702
0.0966006
0.10768
0.807855
0.076602
0.0603603
0.06112
0.0687461
0.0772483
0.0845657
0.0902646
0.0961055
0.101225
0.807855
0.076605
0.060336
0.0611132
0.0687818
0.0774191
0.0851402
0.0913061
0.0948653
0.0882477
0.0980167
0.137796
0.191648
0.279714
0.427256
0.119841
0.146697
0.179424
0.246299
0.384279
0.128084
0.15427
0.187218
0.250901
0.381622
0.119841
0.146697
0.179424
0.246299
0.384279
0.0980167
0.137796
0.191648
0.279714
0.427256
0.875721
1.07058
1.02903
1.03997
1.08768
0.842281
1.09472
1.05599
1.0618
1.10318
0.840344
1.10554
1.05614
1.05237
1.09835
0.842281
1.09472
1.05599
1.0618
1.10318
0.875721
1.07058
1.02903
1.03997
1.08768
1.4616
1.69323
1.34107
0.870714
0.560533
0.301584
0.133397
0.0560217
0.0967164
0.127027
0.139553
0.148147
0.155537
0.157207
0.146923
0.123908
0.0935627
0.0610784
0.0321866
0.0305982
0.0597656
0.0955063
0.133274
0.172062
0.211496
0.251377
0.291393
0.331735
0.371326
0.4098
0.447242
0.482632
0.516981
0.549097
0.580274
0.605145
0.626558
0.626481
0.643987
1.16894
1.42645
1.7237
1.44641
0.950744
0.635112
0.327723
0.124487
0.0294422
0.0896176
0.123944
0.137807
0.146665
0.154163
0.156087
0.145732
0.122343
0.0912445
0.0571727
0.0235432
0.0211117
0.0555736
0.0930605
0.131656
0.170941
0.210719
0.25086
0.29108
0.331596
0.37132
0.40992
0.447445
0.48292
0.517307
0.549479
0.580627
0.60543
0.626937
0.626575
0.644467
1.16414
1.38075
1.71004
1.45237
0.939487
0.635953
0.334716
0.122729
0.009955
0.0879541
0.123114
0.137157
0.146165
0.15381
0.155758
0.145314
0.121788
0.0904298
0.0557845
0.0198245
0.0168195
0.0541134
0.0922318
0.131106
0.170557
0.21045
0.250683
0.290982
0.331574
0.371372
0.410057
0.447671
0.483261
0.517783
0.550161
0.581558
0.606713
0.628787
0.628933
0.646693
1.1649
1.42645
1.7237
1.44641
0.950744
0.635112
0.327723
0.124487
0.0294422
0.0896176
0.123944
0.137807
0.146665
0.154163
0.156087
0.145732
0.122343
0.0912445
0.0571727
0.0235432
0.0211117
0.0555736
0.0930605
0.131656
0.170941
0.210719
0.25086
0.29108
0.331596
0.37132
0.40992
0.447445
0.48292
0.517307
0.549479
0.580627
0.60543
0.626937
0.626575
0.644467
1.16414
1.4616
1.69323
1.34107
0.870714
0.560533
0.301584
0.133397
0.0560217
0.0967164
0.127027
0.139553
0.148147
0.155537
0.157207
0.146923
0.123908
0.0935627
0.0610784
0.0321866
0.0305982
0.0597656
0.0955063
0.133274
0.172062
0.211496
0.251377
0.291393
0.331735
0.371326
0.4098
0.447242
0.482632
0.516981
0.549097
0.580274
0.605145
0.626558
0.626481
0.643987
1.16894
1.05486
1.16234
0.840583
0.616547
0.463051
0.312162
0.177485
0.112806
0.12817
0.145794
0.153268
0.15998
0.165937
0.165858
0.154963
0.132813
0.104828
0.0769912
0.0565924
0.0556375
0.0756629
0.106165
0.141183
0.17836
0.216757
0.255926
0.295435
0.335376
0.374721
0.412946
0.450303
0.485575
0.519972
0.552008
0.583387
0.608434
0.630024
0.631828
0.647959
1.17394
0.396466
0.465327
0.529203
0.551687
0.500852
0.380719
0.256406
0.196782
0.189456
0.186955
0.186235
0.188306
0.190759
0.187476
0.175484
0.155237
0.131755
0.110641
0.0972878
0.0967012
0.109329
0.132118
0.161612
0.194987
0.230696
0.267892
0.305932
0.344665
0.383212
0.420627
0.45761
0.49239
0.526712
0.558315
0.589925
0.614922
0.63708
0.642439
0.65499
1.1686
0.816489
0.697742
0.742453
0.665801
0.547717
0.413683
0.321914
0.271872
0.250315
0.235369
0.227048
0.224437
0.222761
0.216378
0.203383
0.184931
0.165244
0.148667
0.138773
0.138359
0.147317
0.164699
0.189137
0.218357
0.250776
0.285369
0.321366
0.358347
0.395696
0.431873
0.468226
0.502211
0.536287
0.567161
0.598865
0.623605
0.646717
0.655265
0.664597
1.17311
1.02909
0.85786
0.835704
0.705658
0.566821
0.460265
0.38584
0.338516
0.307001
0.285511
0.271232
0.264721
0.25902
0.249874
0.236057
0.219024
0.20209
0.188419
0.180456
0.180148
0.18697
0.200682
0.221118
0.246581
0.275708
0.307501
0.341194
0.376098
0.412003
0.446664
0.482208
0.515211
0.548905
0.578903
0.610556
0.634938
0.659082
0.669772
0.674981
1.16989
1.08207
0.891013
0.841565
0.706987
0.588593
0.504224
0.442399
0.396076
0.360419
0.33452
0.316702
0.306604
0.297502
0.286042
0.271603
0.25563
0.240658
0.228899
0.222126
0.221899
0.22733
0.238448
0.255813
0.278114
0.304239
0.333304
0.364708
0.397333
0.431712
0.464718
0.499342
0.531273
0.564515
0.593608
0.625179
0.649109
0.674217
0.686531
0.690086
1.17681
1.09721
0.897136
0.829069
0.71094
0.621747
0.55063
0.494519
0.446637
0.409559
0.381124
0.36142
0.348441
0.336625
0.323417
0.308627
0.29353
0.280036
0.269623
0.263664
0.263524
0.267975
0.277157
0.292121
0.311791
0.335254
0.361744
0.390909
0.42118
0.453908
0.485092
0.518574
0.549227
0.581725
0.609666
0.640752
0.663796
0.688919
0.701338
0.704494
1.17695
1.11342
0.901501
0.823886
0.72504
0.659772
0.591854
0.539449
0.492391
0.456028
0.426908
0.406013
0.39061
0.376522
0.361908
0.346806
0.332387
0.319877
0.310341
0.304907
0.304827
0.308547
0.316251
0.329365
0.346945
0.368219
0.392508
0.419741
0.447938
0.479247
0.508874
0.541451
0.571161
0.603225
0.630442
0.661417
0.684007
0.709502
0.722583
0.726447
1.1887
1.12346
0.908559
0.831843
0.746327
0.694569
0.628253
0.580191
0.534541
0.499157
0.470035
0.448141
0.430686
0.414913
0.399487
0.384498
0.370801
0.359234
0.35051
0.345571
0.345616
0.348766
0.35522
0.366729
0.382428
0.401641
0.423732
0.448956
0.474915
0.504535
0.532305
0.563563
0.591957
0.623102
0.649193
0.67951
0.701129
0.726032
0.738955
0.744898
1.19148
1.14461
0.923708
0.849655
0.76985
0.725642
0.662396
0.61888
0.575399
0.541215
0.512592
0.490212
0.471437
0.454462
0.43821
0.423244
0.409876
0.398652
0.390245
0.38548
0.385537
0.388225
0.393751
0.404152
0.418591
0.436429
0.456998
0.480865
0.50527
0.533799
0.560308
0.590716
0.618306
0.64891
0.674332
0.70425
0.725278
0.749635
0.762901
0.77059
1.20495
1.16038
0.938258
0.86895
0.794148
0.754847
0.694845
0.655396
0.614022
0.581059
0.552646
0.529353
0.509181
0.491233
0.474536
0.459717
0.446793
0.436176
0.428266
0.423824
0.424009
0.426296
0.430899
0.440147
0.453233
0.469561
0.488422
0.510715
0.533393
0.560663
0.585806
0.615232
0.641992
0.671989
0.69679
0.726193
0.746555
0.770022
0.783364
0.793999
1.21029
1.19018
0.956722
0.890022
0.820421
0.784491
0.727359
0.691098
0.651373
0.619638
0.591534
0.567901
0.546884
0.528228
0.511837
0.496709
0.48386
0.473331
0.465463
0.461024
0.461207
0.463184
0.467176
0.475772
0.488142
0.503642
0.521458
0.542818
0.564282
0.590702
0.614839
0.643464
0.66957
0.698978
0.723298
0.752105
0.772012
0.794599
0.808325
0.821572
1.2264
1.20301
0.974536
0.910766
0.845927
0.813116
0.758622
0.724964
0.686748
0.656098
0.627875
0.603641
0.581716
0.563035
0.545962
0.531075
0.518429
0.508143
0.500445
0.496105
0.496329
0.497965
0.501245
0.509045
0.520544
0.535059
0.551704
0.57207
0.592298
0.617941
0.641231
0.669226
0.69493
0.723989
0.748181
0.776625
0.79639
0.818358
0.83262
0.84837
1.23198
1.23156
0.995074
0.932
0.87166
0.841391
0.789245
0.757479
0.720467
0.690866
0.662755
0.638317
0.616922
0.597653
0.580445
0.565412
0.552691
0.542303
0.534451
0.529993
0.53022
0.531689
0.534637
0.542149
0.553351
0.567439
0.583389
0.603295
0.622595
0.64769
0.670298
0.697654
0.722889
0.751323
0.775176
0.802681
0.821934
0.842628
0.856717
0.875541
1.25045
1.24009
1.01248
0.950528
0.894355
0.867032
0.817655
0.787596
0.751259
0.721905
0.693787
0.669687
0.647512
0.628169
0.610934
0.596083
0.583614
0.573496
0.565837
0.561499
0.561777
0.562898
0.565139
0.571887
0.582307
0.595514
0.610408
0.62961
0.647806
0.672342
0.694356
0.721266
0.746304
0.774459
0.798464
0.825545
0.844909
0.865386
0.880006
0.901175
1.25566
1.25672
1.03144
0.970444
0.917383
0.890511
0.84354
0.814725
0.779694
0.751973
0.724299
0.700634
0.678492
0.659169
0.641892
0.626994
0.614429
0.604155
0.596262
0.591732
0.592004
0.593093
0.595266
0.602023
0.612459
0.625556
0.640033
0.659198
0.676572
0.700731
0.72223
0.748564
0.773137
0.800463
0.824168
0.850054
0.868906
0.888182
0.902089
0.924695
1.26807
1.26224
1.04277
0.98374
0.933094
0.907729
0.863801
0.836531
0.802134
0.775339
0.747571
0.724069
0.702074
0.683126
0.666071
0.651339
0.638808
0.628416
0.620287
0.61554
0.615696
0.616388
0.618015
0.624422
0.634668
0.647452
0.661292
0.680139
0.696419
0.720077
0.741019
0.767006
0.791372
0.818336
0.842244
0.867534
0.886351
0.905326
0.918619
0.942518
1.27106
1.26214
1.04663
0.990792
0.943212
0.920297
0.88023
0.854042
0.820497
0.794703
0.767808
0.745519
0.723976
0.705667
0.688605
0.673574
0.660248
0.648795
0.639799
0.63494
0.635553
0.636274
0.637584
0.644214
0.655324
0.669032
0.683035
0.702395
0.717809
0.74105
0.761129
0.786327
0.809862
0.835655
0.859268
0.883198
0.901517
0.919945
0.932196
0.954834
1.27301
1.26575
1.04282
0.995021
0.951411
0.931759
0.894974
0.869611
0.836033
0.809967
0.782707
0.760409
0.738021
0.719466
0.701622
0.685735
0.670806
0.656804
0.644653
0.63666
0.635254
0.635631
0.638405
0.647693
0.661364
0.677085
0.691612
0.712352
0.727702
0.751686
0.772009
0.797708
0.821707
0.847633
0.871908
0.895148
0.912812
0.930392
0.942474
0.9641
1.2808
1.82164
0.999329
0.966923
0.946694
0.925953
0.89385
0.866051
0.833707
0.805407
0.77758
0.753758
0.730369
0.711388
0.693777
0.679612
0.667837
0.659089
0.652813
0.649153
0.650047
0.650321
0.650058
0.65658
0.664751
0.678175
0.691399
0.712683
0.729849
0.755376
0.778427
0.806751
0.833936
0.862925
0.890202
0.915428
0.934486
0.949317
0.962796
0.958513
1.77122
2.47491
1.77711
1.34095
1.3343
1.33101
1.31864
1.3045
1.28976
1.27005
1.25739
1.24228
1.22694
1.21608
1.20252
1.19268
1.18224
1.17536
1.16953
1.16396
1.16307
1.16295
1.15524
1.16257
1.15729
1.16532
1.16463
1.17716
1.17844
1.19212
1.19683
1.2127
1.21825
1.23653
1.24188
1.25484
1.25574
1.25717
1.26897
1.75244
2.44759
2.47491
1.77711
1.34095
1.3343
1.33101
1.31864
1.3045
1.28976
1.27005
1.25739
1.24228
1.22694
1.21608
1.20252
1.19268
1.18224
1.17536
1.16953
1.16396
1.16307
1.16295
1.15524
1.16257
1.15729
1.16532
1.16463
1.17716
1.17844
1.19212
1.19683
1.2127
1.21825
1.23653
1.24188
1.25484
1.25574
1.25717
1.26897
1.75244
2.44759
1.82164
0.999329
0.966923
0.946694
0.925953
0.89385
0.866051
0.833707
0.805407
0.77758
0.753758
0.730369
0.711388
0.693777
0.679612
0.667837
0.659089
0.652813
0.649153
0.650047
0.650321
0.650058
0.65658
0.664751
0.678175
0.691399
0.712683
0.729849
0.755376
0.778427
0.806751
0.833936
0.862925
0.890202
0.915428
0.934486
0.949317
0.962796
0.958513
1.77122
1.26575
1.04282
0.995021
0.951411
0.931759
0.894974
0.869611
0.836033
0.809967
0.782707
0.760409
0.738021
0.719466
0.701622
0.685735
0.670806
0.656804
0.644653
0.63666
0.635254
0.635631
0.638405
0.647693
0.661364
0.677085
0.691612
0.712352
0.727702
0.751686
0.772009
0.797708
0.821707
0.847633
0.871908
0.895148
0.912812
0.930392
0.942474
0.9641
1.2808
1.26214
1.04663
0.990792
0.943212
0.920297
0.88023
0.854042
0.820497
0.794703
0.767808
0.745519
0.723976
0.705667
0.688605
0.673574
0.660248
0.648795
0.639799
0.63494
0.635553
0.636274
0.637584
0.644214
0.655324
0.669032
0.683035
0.702395
0.717809
0.74105
0.761129
0.786327
0.809862
0.835655
0.859268
0.883198
0.901517
0.919945
0.932196
0.954834
1.27301
1.26224
1.04277
0.98374
0.933094
0.907729
0.863801
0.836531
0.802134
0.775339
0.747571
0.724069
0.702074
0.683126
0.666071
0.651339
0.638808
0.628416
0.620287
0.61554
0.615696
0.616388
0.618015
0.624422
0.634668
0.647452
0.661292
0.680139
0.696419
0.720077
0.741019
0.767006
0.791372
0.818336
0.842244
0.867534
0.886351
0.905326
0.918619
0.942518
1.27106
1.25672
1.03144
0.970444
0.917383
0.890511
0.84354
0.814725
0.779694
0.751973
0.724299
0.700634
0.678492
0.659169
0.641892
0.626994
0.614429
0.604155
0.596262
0.591732
0.592004
0.593093
0.595266
0.602023
0.612459
0.625556
0.640033
0.659198
0.676572
0.700731
0.72223
0.748564
0.773137
0.800463
0.824168
0.850054
0.868906
0.888182
0.902089
0.924695
1.26807
1.24009
1.01248
0.950528
0.894355
0.867032
0.817655
0.787596
0.751259
0.721905
0.693787
0.669687
0.647512
0.628169
0.610934
0.596083
0.583614
0.573496
0.565837
0.561499
0.561777
0.562898
0.565139
0.571887
0.582307
0.595514
0.610408
0.62961
0.647806
0.672342
0.694356
0.721266
0.746304
0.774459
0.798464
0.825545
0.844909
0.865386
0.880006
0.901175
1.25566
1.23156
0.995074
0.932
0.87166
0.841391
0.789245
0.757479
0.720467
0.690866
0.662755
0.638317
0.616922
0.597653
0.580445
0.565412
0.552691
0.542303
0.534451
0.529993
0.53022
0.531689
0.534637
0.542149
0.553351
0.567439
0.583389
0.603295
0.622595
0.64769
0.670298
0.697654
0.722889
0.751323
0.775176
0.802681
0.821934
0.842628
0.856717
0.875541
1.25045
1.20301
0.974536
0.910766
0.845927
0.813116
0.758622
0.724964
0.686748
0.656098
0.627875
0.603641
0.581716
0.563035
0.545962
0.531075
0.518429
0.508143
0.500445
0.496105
0.496329
0.497965
0.501245
0.509045
0.520544
0.535059
0.551704
0.57207
0.592298
0.617941
0.641231
0.669226
0.69493
0.723989
0.748181
0.776625
0.79639
0.818358
0.83262
0.84837
1.23198
1.19018
0.956722
0.890022
0.820421
0.784491
0.727359
0.691098
0.651373
0.619638
0.591534
0.567901
0.546884
0.528228
0.511837
0.496709
0.48386
0.473331
0.465463
0.461024
0.461207
0.463184
0.467176
0.475772
0.488142
0.503642
0.521458
0.542818
0.564282
0.590702
0.614839
0.643464
0.66957
0.698978
0.723298
0.752105
0.772012
0.794599
0.808325
0.821572
1.2264
1.16038
0.938258
0.86895
0.794148
0.754847
0.694845
0.655396
0.614022
0.581059
0.552646
0.529353
0.509181
0.491233
0.474536
0.459717
0.446793
0.436176
0.428266
0.423824
0.424009
0.426296
0.430899
0.440147
0.453233
0.469561
0.488422
0.510715
0.533393
0.560663
0.585806
0.615232
0.641992
0.671989
0.69679
0.726193
0.746555
0.770022
0.783364
0.793999
1.21029
1.14461
0.923708
0.849655
0.76985
0.725642
0.662396
0.61888
0.575399
0.541215
0.512592
0.490212
0.471437
0.454462
0.43821
0.423244
0.409876
0.398652
0.390245
0.38548
0.385537
0.388225
0.393751
0.404152
0.418591
0.436429
0.456998
0.480865
0.50527
0.533799
0.560308
0.590716
0.618306
0.64891
0.674332
0.70425
0.725278
0.749635
0.762901
0.77059
1.20495
1.12346
0.908559
0.831843
0.746327
0.694569
0.628253
0.580191
0.534541
0.499157
0.470035
0.448141
0.430686
0.414913
0.399487
0.384498
0.370801
0.359234
0.35051
0.345571
0.345616
0.348766
0.35522
0.366729
0.382428
0.401641
0.423732
0.448956
0.474915
0.504535
0.532305
0.563563
0.591957
0.623102
0.649193
0.67951
0.701129
0.726032
0.738955
0.744898
1.19148
1.11342
0.901501
0.823886
0.72504
0.659772
0.591854
0.539449
0.492391
0.456028
0.426908
0.406013
0.39061
0.376522
0.361908
0.346806
0.332387
0.319877
0.310341
0.304907
0.304827
0.308547
0.316251
0.329365
0.346945
0.368219
0.392508
0.419741
0.447938
0.479247
0.508874
0.541451
0.571161
0.603225
0.630442
0.661417
0.684007
0.709502
0.722583
0.726447
1.1887
1.09721
0.897136
0.829069
0.71094
0.621747
0.55063
0.494519
0.446637
0.409559
0.381124
0.36142
0.348441
0.336625
0.323417
0.308627
0.29353
0.280036
0.269623
0.263664
0.263524
0.267975
0.277157
0.292121
0.311791
0.335254
0.361744
0.390909
0.42118
0.453908
0.485092
0.518574
0.549227
0.581725
0.609666
0.640752
0.663796
0.688919
0.701338
0.704494
1.17695
1.08207
0.891013
0.841565
0.706987
0.588593
0.504224
0.442399
0.396076
0.360419
0.33452
0.316702
0.306604
0.297502
0.286042
0.271603
0.25563
0.240658
0.228899
0.222126
0.221899
0.22733
0.238448
0.255813
0.278114
0.304239
0.333304
0.364708
0.397333
0.431712
0.464718
0.499342
0.531273
0.564515
0.593608
0.625179
0.649109
0.674217
0.686531
0.690086
1.17681
1.02909
0.85786
0.835704
0.705658
0.566821
0.460265
0.38584
0.338516
0.307001
0.285511
0.271232
0.264721
0.25902
0.249874
0.236057
0.219024
0.20209
0.188419
0.180456
0.180148
0.18697
0.200682
0.221118
0.246581
0.275708
0.307501
0.341194
0.376098
0.412003
0.446664
0.482208
0.515211
0.548905
0.578903
0.610556
0.634938
0.659082
0.669772
0.674981
1.16989
0.816489
0.697742
0.742453
0.665801
0.547717
0.413683
0.321914
0.271872
0.250315
0.235369
0.227048
0.224437
0.222761
0.216378
0.203383
0.184931
0.165244
0.148667
0.138773
0.138359
0.147317
0.164699
0.189137
0.218357
0.250776
0.285369
0.321366
0.358347
0.395696
0.431873
0.468226
0.502211
0.536287
0.567161
0.598865
0.623605
0.646717
0.655265
0.664597
1.17311
0.396466
0.465327
0.529203
0.551687
0.500852
0.380719
0.256406
0.196782
0.189456
0.186955
0.186235
0.188306
0.190759
0.187476
0.175484
0.155237
0.131755
0.110641
0.0972878
0.0967012
0.109329
0.132118
0.161612
0.194987
0.230696
0.267892
0.305932
0.344665
0.383212
0.420627
0.45761
0.49239
0.526712
0.558315
0.589925
0.614922
0.63708
0.642439
0.65499
1.1686
1.05486
1.16234
0.840583
0.616547
0.463051
0.312162
0.177485
0.112806
0.12817
0.145794
0.153268
0.15998
0.165937
0.165858
0.154963
0.132813
0.104828
0.0769912
0.0565924
0.0556375
0.0756629
0.106165
0.141183
0.17836
0.216757
0.255926
0.295435
0.335376
0.374721
0.412946
0.450303
0.485575
0.519972
0.552008
0.583387
0.608434
0.630024
0.631828
0.647959
1.17394
)
;

boundaryField
{
    inlet
    {
        type            calculated;
        value           uniform 0;
    }
    outlet
    {
        type            calculated;
        value           nonuniform List<scalar> 
165
(
1.05486
0.396466
0.816489
1.02909
1.08207
1.09721
1.11342
1.12346
1.14461
1.16038
1.19018
1.20301
1.23156
1.24009
1.25672
1.26224
1.26214
1.26575
1.82164
2.47491
2.47491
1.77711
1.34095
1.3343
1.33101
1.31864
1.3045
1.28976
1.27005
1.25739
1.24228
1.22694
1.21608
1.20252
1.19268
1.18224
1.17536
1.16953
1.16396
1.16307
1.16295
1.15524
1.16257
1.15729
1.16532
1.16463
1.17716
1.17844
1.19212
1.19683
1.2127
1.21825
1.23653
1.24188
1.25484
1.25574
1.25717
1.26897
1.75244
2.44759
1.17394
1.1686
1.17311
1.16989
1.17681
1.17695
1.1887
1.19148
1.20495
1.21029
1.2264
1.23198
1.25045
1.25566
1.26807
1.27106
1.27301
1.2808
1.77122
2.44759
1.16894
1.16414
1.1649
1.16414
1.16894
2.44759
1.77122
1.2808
1.27301
1.27106
1.26807
1.25566
1.25045
1.23198
1.2264
1.21029
1.20495
1.19148
1.1887
1.17695
1.17681
1.16989
1.17311
1.1686
1.17394
2.47491
1.77711
1.34095
1.3343
1.33101
1.31864
1.3045
1.28976
1.27005
1.25739
1.24228
1.22694
1.21608
1.20252
1.19268
1.18224
1.17536
1.16953
1.16396
1.16307
1.16295
1.15524
1.16257
1.15729
1.16532
1.16463
1.17716
1.17844
1.19212
1.19683
1.2127
1.21825
1.23653
1.24188
1.25484
1.25574
1.25717
1.26897
1.75244
2.44759
2.47491
1.82164
1.26575
1.26214
1.26224
1.25672
1.24009
1.23156
1.20301
1.19018
1.16038
1.14461
1.12346
1.11342
1.09721
1.08207
1.02909
0.816489
0.396466
1.05486
)
;
    }
    obstacle
    {
        type            calculated;
        value           nonuniform List<scalar> 
40
(
0.807855
0.076605
0.060336
0.0611132
0.0687818
0.0774189
0.0851393
0.0913049
0.0948082
0.0874903
0.807855
0.076605
0.060336
0.0611132
0.0687818
0.0774189
0.0851393
0.0913049
0.0948082
0.0874903
0.0959544
0.1344
0.188305
0.276089
0.420048
0.0959544
0.1344
0.188305
0.276089
0.420048
0.866302
1.06911
1.02846
1.03951
1.08681
0.866302
1.06911
1.02846
1.03951
1.08681
)
;
    }
    empty
    {
        type            empty;
    }
}


// ************************************************************************* //
