/*--------------------------------*- C++ -*----------------------------------*\
| =========                 |                                                 |
| \\      /  F ield         | OpenFOAM: The Open Source CFD Toolbox           |
|  \\    /   O peration     | Version:  v1912                                 |
|   \\  /    A nd           | Website:  www.openfoam.com                      |
|    \\/     M anipulation  |                                                 |
\*---------------------------------------------------------------------------*/
FoamFile
{
    version     2.0;
    format      ascii;
    class       volVectorField;
    location    "0.44";
    object      U;
}
// * * * * * * * * * * * * * * * * * * * * * * * * * * * * * * * * * * * * * //

dimensions      [0 1 -1 0 0 0 0];


internalField   nonuniform List<vector> 
4800
(
(-6.0644 -0.000190363 0)
(-1.36619 -0.0018008 0)
(0.414223 7.38249e-05 0)
(0.389112 0.00039592 0)
(0.394562 0.00284541 0)
(0.381786 0.0020123 0)
(0.356329 -0.000127688 0)
(0.316075 -0.00224233 0)
(0.269735 -0.00319865 0)
(0.231048 -0.00389457 0)
(0.20939 -0.00433361 0)
(0.201796 -0.00454421 0)
(0.201465 -0.00419393 0)
(0.208466 -0.0033023 0)
(0.225138 -0.00229501 0)
(0.246635 -0.000552102 0)
(0.264964 0.00139132 0)
(0.278774 0.00211217 0)
(0.288542 0.00219993 0)
(0.29552 0.00202351 0)
(0.301568 0.00121697 0)
(0.308027 -0.000486953 0)
(0.314827 -0.00191984 0)
(0.321391 -0.00330238 0)
(0.32486 -0.00448455 0)
(0.32155 -0.00551107 0)
(0.308291 -0.0064305 0)
(0.285303 -0.00737504 0)
(0.256374 -0.00749171 0)
(0.228933 -0.00730571 0)
(0.209211 -0.00577557 0)
(0.199861 -0.00415176 0)
(0.20124 -0.00191756 0)
(0.210754 0.000765132 0)
(0.221196 0.00257308 0)
(0.227011 0.0031534 0)
(0.228469 0.00379916 0)
(0.223475 0.00524585 0)
(0.208128 0.00922481 0)
(0.18322 0.0167077 0)
(-6.06514 -0.00234648 0)
(-1.36524 -0.00765218 0)
(0.415993 0.00442061 0)
(0.389355 0.0050542 0)
(0.392974 0.00871073 0)
(0.379907 0.00693942 0)
(0.353657 0.00204183 0)
(0.311933 -0.00237046 0)
(0.264742 -0.00795256 0)
(0.226791 -0.0124567 0)
(0.206668 -0.0151894 0)
(0.200878 -0.0162478 0)
(0.202257 -0.0148334 0)
(0.21082 -0.0111879 0)
(0.228715 -0.0067204 0)
(0.250043 -0.00101197 0)
(0.268032 0.00364198 0)
(0.280422 0.00636023 0)
(0.289326 0.00693021 0)
(0.296135 0.00639855 0)
(0.302004 0.00512586 0)
(0.308232 0.00325358 0)
(0.314527 0.00186894 0)
(0.319838 0.000594743 0)
(0.321025 -0.00151667 0)
(0.315255 -0.00586322 0)
(0.30155 -0.0116984 0)
(0.280271 -0.0160867 0)
(0.254565 -0.0171687 0)
(0.230297 -0.0162058 0)
(0.212676 -0.0114964 0)
(0.20322 -0.0060081 0)
(0.203886 0.00125736 0)
(0.212142 0.00604834 0)
(0.220735 0.00782992 0)
(0.22601 0.00682584 0)
(0.224939 0.00590591 0)
(0.220284 0.00584214 0)
(0.209184 0.00900534 0)
(0.191683 0.014044 0)
(-6.06676 -0.00313247 0)
(-1.36353 -0.00869948 0)
(0.420563 0.00717058 0)
(0.391756 0.00928889 0)
(0.39027 0.0111261 0)
(0.374677 0.00842023 0)
(0.347636 0.000653629 0)
(0.30637 -0.0064058 0)
(0.259711 -0.0146717 0)
(0.22254 -0.0211519 0)
(0.20454 -0.0244154 0)
(0.201234 -0.0247578 0)
(0.20524 -0.0220396 0)
(0.216733 -0.0154145 0)
(0.236062 -0.00760747 0)
(0.256431 0.000615964 0)
(0.271948 0.00720546 0)
(0.282503 0.0103664 0)
(0.289458 0.0108921 0)
(0.295131 0.00983576 0)
(0.301159 0.00742352 0)
(0.307317 0.00453388 0)
(0.313429 0.00174615 0)
(0.316844 -0.00117043 0)
(0.315762 -0.00575246 0)
(0.308544 -0.0123744 0)
(0.29479 -0.019385 0)
(0.275243 -0.024151 0)
(0.253223 -0.0246463 0)
(0.233332 -0.0227573 0)
(0.218107 -0.0163263 0)
(0.210526 -0.00650385 0)
(0.210304 0.00365419 0)
(0.214826 0.0104345 0)
(0.220045 0.0124117 0)
(0.223179 0.0112661 0)
(0.221992 0.0102192 0)
(0.219338 0.0104736 0)
(0.212188 0.0140242 0)
(0.201268 0.0200383 0)
(-6.06905 -0.00475864 0)
(-1.36216 -0.00689067 0)
(0.42431 0.0124812 0)
(0.393368 0.0157679 0)
(0.387531 0.0127543 0)
(0.367865 0.00917787 0)
(0.338373 0.000980151 0)
(0.29645 -0.0089945 0)
(0.251085 -0.0211054 0)
(0.217015 -0.0296358 0)
(0.202812 -0.0327473 0)
(0.202312 -0.0314694 0)
(0.209747 -0.0269411 0)
(0.224842 -0.0173085 0)
(0.24548 -0.00704866 0)
(0.264603 0.00270561 0)
(0.277407 0.0103944 0)
(0.285079 0.0142434 0)
(0.290221 0.0145035 0)
(0.294836 0.0130767 0)
(0.300675 0.00966825 0)
(0.306477 0.005852 0)
(0.311175 0.000857635 0)
(0.311965 -0.00436567 0)
(0.308013 -0.0104901 0)
(0.298981 -0.0174662 0)
(0.285857 -0.0246925 0)
(0.269153 -0.0293522 0)
(0.252008 -0.0281848 0)
(0.236466 -0.0254828 0)
(0.226006 -0.0169141 0)
(0.220202 -0.00463172 0)
(0.217957 0.00679473 0)
(0.218917 0.0138017 0)
(0.219349 0.0161835 0)
(0.219726 0.0149933 0)
(0.219853 0.0137928 0)
(0.21993 0.014561 0)
(0.217365 0.0180411 0)
(0.211069 0.0240896 0)
(-6.07279 -0.00498253 0)
(-1.3614 -0.00222466 0)
(0.428654 0.0166743 0)
(0.395548 0.0205272 0)
(0.385455 0.0115546 0)
(0.360346 0.00577417 0)
(0.327309 -0.00396097 0)
(0.284157 -0.0155309 0)
(0.240966 -0.0286885 0)
(0.212106 -0.0372229 0)
(0.202845 -0.0386851 0)
(0.205939 -0.035385 0)
(0.216894 -0.0272605 0)
(0.234823 -0.0158625 0)
(0.255612 -0.00413105 0)
(0.273213 0.00584347 0)
(0.283269 0.013926 0)
(0.287753 0.017642 0)
(0.290729 0.0179834 0)
(0.294248 0.0156132 0)
(0.299189 0.011266 0)
(0.304413 0.00545977 0)
(0.307277 -0.000940109 0)
(0.305617 -0.00794802 0)
(0.299266 -0.0151329 0)
(0.289203 -0.022206 0)
(0.276722 -0.0275086 0)
(0.262723 -0.0297981 0)
(0.251416 -0.0265207 0)
(0.240886 -0.0226882 0)
(0.234747 -0.0123726 0)
(0.228634 -0.000204564 0)
(0.226082 0.0104539 0)
(0.221744 0.0168383 0)
(0.217688 0.0186725 0)
(0.216264 0.0177082 0)
(0.217962 0.0168618 0)
(0.220869 0.0186231 0)
(0.222283 0.022997 0)
(0.219802 0.0290397 0)
(-6.07828 -0.00529537 0)
(-1.36181 0.00411871 0)
(0.431339 0.0193488 0)
(0.396738 0.0223337 0)
(0.382512 0.0087292 0)
(0.3505 0.0021544 0)
(0.313018 -0.00925892 0)
(0.269281 -0.0230603 0)
(0.230559 -0.0358443 0)
(0.209314 -0.0419256 0)
(0.205508 -0.0408802 0)
(0.212027 -0.0348244 0)
(0.225996 -0.024371 0)
(0.24581 -0.0124754 0)
(0.265821 -0.00028713 0)
(0.281628 0.00943228 0)
(0.289102 0.0170437 0)
(0.290804 0.0204521 0)
(0.291712 0.0210475 0)
(0.293753 0.017983 0)
(0.297064 0.0124646 0)
(0.300647 0.00441129 0)
(0.301848 -0.00495734 0)
(0.298418 -0.0133493 0)
(0.29093 -0.0205792 0)
(0.280873 -0.0253482 0)
(0.270021 -0.0273187 0)
(0.259405 -0.0259152 0)
(0.252035 -0.0202826 0)
(0.245383 -0.0144647 0)
(0.242474 -0.00535169 0)
(0.235637 0.00458685 0)
(0.232824 0.0136041 0)
(0.222445 0.018246 0)
(0.215455 0.0202115 0)
(0.213193 0.0201409 0)
(0.216813 0.02023 0)
(0.222741 0.0228844 0)
(0.226967 0.0282477 0)
(0.227088 0.0339418 0)
(-6.08483 -0.00423953 0)
(-1.36319 0.0125841 0)
(0.432337 0.0179555 0)
(0.397054 0.0189711 0)
(0.379264 0.00148371 0)
(0.339846 -0.00591919 0)
(0.297996 -0.0177659 0)
(0.255188 -0.0311175 0)
(0.222905 -0.0393581 0)
(0.209849 -0.0424416 0)
(0.210966 -0.0387388 0)
(0.220175 -0.0302653 0)
(0.23629 -0.0184298 0)
(0.256419 -0.00613015 0)
(0.275132 0.00510508 0)
(0.288624 0.0133162 0)
(0.293795 0.0195122 0)
(0.293731 0.0225071 0)
(0.292837 0.0224562 0)
(0.292782 0.0189202 0)
(0.293786 0.0124731 0)
(0.295189 0.00296101 0)
(0.294728 -0.00819543 0)
(0.290662 -0.0183682 0)
(0.283362 -0.0246955 0)
(0.274714 -0.0273505 0)
(0.266539 -0.0249811 0)
(0.258781 -0.0208444 0)
(0.253586 -0.0135492 0)
(0.250067 -0.00650489 0)
(0.247751 0.00121227 0)
(0.242351 0.00971732 0)
(0.233928 0.018326 0)
(0.220598 0.0200201 0)
(0.213005 0.0217665 0)
(0.211309 0.0230831 0)
(0.216526 0.0246245 0)
(0.224965 0.0278687 0)
(0.230834 0.0330791 0)
(0.233011 0.0379202 0)
(-6.09094 -0.00146649 0)
(-1.36573 0.023968 0)
(0.42996 0.011933 0)
(0.394327 0.00971679 0)
(0.373199 -0.00950202 0)
(0.328811 -0.0172276 0)
(0.284967 -0.026618 0)
(0.245651 -0.0338495 0)
(0.219943 -0.0368881 0)
(0.212399 -0.0366179 0)
(0.217764 -0.0317685 0)
(0.229579 -0.0218706 0)
(0.247105 -0.00987513 0)
(0.266302 0.00195041 0)
(0.282574 0.0114497 0)
(0.292898 0.0173715 0)
(0.296748 0.0203039 0)
(0.295973 0.0222786 0)
(0.293438 0.0216564 0)
(0.291455 0.0177398 0)
(0.290296 0.010202 0)
(0.289055 4.16136e-06 0)
(0.286882 -0.0110638 0)
(0.282986 -0.0208128 0)
(0.277529 -0.0271885 0)
(0.270967 -0.0276272 0)
(0.266172 -0.0221888 0)
(0.260755 -0.0167087 0)
(0.256814 -0.00903967 0)
(0.253057 -0.00146632 0)
(0.251039 0.00643945 0)
(0.246462 0.0145278 0)
(0.23313 0.0197672 0)
(0.218668 0.0220806 0)
(0.21168 0.0247707 0)
(0.210502 0.0270682 0)
(0.21627 0.0296384 0)
(0.225931 0.0330911 0)
(0.233746 0.0376951 0)
(0.237812 0.0418088 0)
(-6.09504 0.00140793 0)
(-1.36995 0.0386018 0)
(0.424198 0.000436659 0)
(0.389165 -0.00524041 0)
(0.365954 -0.0234177 0)
(0.320206 -0.0295929 0)
(0.277625 -0.0318644 0)
(0.24233 -0.0321776 0)
(0.220843 -0.0308756 0)
(0.217532 -0.026708 0)
(0.225813 -0.0204625 0)
(0.239822 -0.0100601 0)
(0.257284 0.00113361 0)
(0.274129 0.0109368 0)
(0.286755 0.0172317 0)
(0.294622 0.0197097 0)
(0.297793 0.0201776 0)
(0.296889 0.0199242 0)
(0.293852 0.0184862 0)
(0.290341 0.0142439 0)
(0.286721 0.00653292 0)
(0.283226 -0.00386051 0)
(0.28 -0.0148179 0)
(0.276774 -0.0233218 0)
(0.273763 -0.027532 0)
(0.270444 -0.0264579 0)
(0.267271 -0.0214068 0)
(0.263816 -0.0148008 0)
(0.259576 -0.00690252 0)
(0.25437 0.000947504 0)
(0.25505 0.00870401 0)
(0.24747 0.0158575 0)
(0.232071 0.0200869 0)
(0.217518 0.0233916 0)
(0.210557 0.0278193 0)
(0.209734 0.0315933 0)
(0.216003 0.0349646 0)
(0.226454 0.0384575 0)
(0.235726 0.0422092 0)
(0.241496 0.0461892 0)
(-6.09601 0.00420484 0)
(-1.37611 0.0524328 0)
(0.41641 -0.0149491 0)
(0.382526 -0.02269 0)
(0.358311 -0.0346531 0)
(0.316103 -0.037819 0)
(0.277257 -0.0345815 0)
(0.24523 -0.0304201 0)
(0.226333 -0.0226096 0)
(0.224616 -0.013482 0)
(0.234934 -0.00564675 0)
(0.248955 0.00538065 0)
(0.265575 0.013178 0)
(0.279232 0.0182897 0)
(0.287937 0.0212724 0)
(0.293251 0.0205146 0)
(0.296348 0.0185893 0)
(0.296648 0.0165137 0)
(0.294131 0.0134819 0)
(0.289447 0.0084215 0)
(0.284017 0.00093929 0)
(0.278628 -0.0083467 0)
(0.274592 -0.0184114 0)
(0.272538 -0.0259762 0)
(0.272008 -0.0292609 0)
(0.271438 -0.0273684 0)
(0.269407 -0.0222112 0)
(0.267101 -0.0152256 0)
(0.262236 -0.00779277 0)
(0.25626 7.6593e-05 0)
(0.258063 0.00775145 0)
(0.246923 0.0136459 0)
(0.230541 0.0178318 0)
(0.217547 0.0229579 0)
(0.210589 0.0293863 0)
(0.209405 0.035002 0)
(0.21582 0.0394656 0)
(0.226309 0.0427718 0)
(0.236498 0.0459105 0)
(0.244763 0.0503876 0)
(-6.0933 0.00734549 0)
(-1.38447 0.0665772 0)
(0.406291 -0.0280541 0)
(0.374896 -0.0357147 0)
(0.354127 -0.0412744 0)
(0.317555 -0.0431921 0)
(0.28278 -0.0362018 0)
(0.254236 -0.0254462 0)
(0.237112 -0.0122746 0)
(0.234963 0.0015126 0)
(0.244888 0.0105443 0)
(0.257412 0.0197 0)
(0.269259 0.0243179 0)
(0.278821 0.0255284 0)
(0.285159 0.0241011 0)
(0.288747 0.0212056 0)
(0.292152 0.0173095 0)
(0.294576 0.0127044 0)
(0.29335 0.00778921 0)
(0.288244 0.00199703 0)
(0.281499 -0.00581473 0)
(0.275793 -0.0157515 0)
(0.272215 -0.0246727 0)
(0.271259 -0.0307798 0)
(0.272075 -0.0327781 0)
(0.272872 -0.030039 0)
(0.272046 -0.0249741 0)
(0.269962 -0.0181313 0)
(0.264587 -0.0106682 0)
(0.259075 -0.00316403 0)
(0.258263 0.00316584 0)
(0.245127 0.00730537 0)
(0.230401 0.0128587 0)
(0.218961 0.0207766 0)
(0.211492 0.0287411 0)
(0.20984 0.0355236 0)
(0.215651 0.0413455 0)
(0.225674 0.04549 0)
(0.238087 0.0500361 0)
(0.249486 0.0549423 0)
(-6.08685 0.0108828 0)
(-1.39448 0.0826183 0)
(0.396281 -0.0358945 0)
(0.36912 -0.0441608 0)
(0.353171 -0.0453001 0)
(0.322669 -0.0454149 0)
(0.293314 -0.0336257 0)
(0.268315 -0.0181207 0)
(0.252923 -0.000910527 0)
(0.248058 0.0151059 0)
(0.253333 0.025752 0)
(0.261755 0.0312886 0)
(0.26882 0.0333487 0)
(0.275395 0.0317733 0)
(0.279505 0.0267756 0)
(0.281846 0.0216549 0)
(0.285907 0.0163745 0)
(0.289951 0.01024 0)
(0.290604 0.00288835 0)
(0.286178 -0.00445525 0)
(0.279577 -0.0125261 0)
(0.274323 -0.0215249 0)
(0.271889 -0.029629 0)
(0.271989 -0.0347757 0)
(0.273643 -0.0361722 0)
(0.274516 -0.0343123 0)
(0.274569 -0.0289283 0)
(0.27293 -0.0219187 0)
(0.266828 -0.0159214 0)
(0.261037 -0.0105887 0)
(0.256002 -0.00555474 0)
(0.243574 -0.0011172 0)
(0.231511 0.00620108 0)
(0.22113 0.0159204 0)
(0.213055 0.0259788 0)
(0.210783 0.0351603 0)
(0.216511 0.0429183 0)
(0.226618 0.0487183 0)
(0.240943 0.054475 0)
(0.25434 0.0595981 0)
(-6.07717 0.0137953 0)
(-1.40539 0.0952028 0)
(0.387399 -0.0420188 0)
(0.364452 -0.0487708 0)
(0.354417 -0.0450875 0)
(0.331406 -0.0426279 0)
(0.308687 -0.0271075 0)
(0.286223 -0.00906457 0)
(0.270647 0.00967622 0)
(0.26142 0.0247527 0)
(0.259523 0.0355774 0)
(0.262402 0.0384362 0)
(0.266129 0.0384925 0)
(0.269259 0.0348898 0)
(0.271749 0.0288654 0)
(0.273611 0.0230429 0)
(0.278178 0.0164467 0)
(0.283452 0.0086772 0)
(0.285053 3.39045e-05 0)
(0.282618 -0.00936261 0)
(0.277998 -0.0185446 0)
(0.274154 -0.0270314 0)
(0.272946 -0.0341676 0)
(0.273919 -0.0385439 0)
(0.276103 -0.0397495 0)
(0.277902 -0.0380145 0)
(0.278444 -0.0334781 0)
(0.275189 -0.0281699 0)
(0.267951 -0.0235035 0)
(0.260889 -0.019971 0)
(0.252904 -0.0161097 0)
(0.243359 -0.00996604 0)
(0.234025 -0.00102573 0)
(0.224422 0.0106372 0)
(0.216469 0.0228668 0)
(0.213671 0.0343713 0)
(0.218734 0.0441379 0)
(0.228721 0.0518939 0)
(0.243689 0.0584911 0)
(0.257982 0.0630607 0)
(-6.0648 0.0143258 0)
(-1.41537 0.0969729 0)
(0.380647 -0.0422727 0)
(0.361783 -0.0468993 0)
(0.358669 -0.0394551 0)
(0.343161 -0.0340623 0)
(0.326086 -0.0182856 0)
(0.305286 -0.00145104 0)
(0.288003 0.0160135 0)
(0.273836 0.0296457 0)
(0.264296 0.0400165 0)
(0.260791 0.0426393 0)
(0.262118 0.0414066 0)
(0.261944 0.0369725 0)
(0.263377 0.0306624 0)
(0.265114 0.0244943 0)
(0.26922 0.0179213 0)
(0.274799 0.00939786 0)
(0.277767 -0.00123959 0)
(0.277813 -0.012396 0)
(0.276376 -0.022697 0)
(0.274852 -0.0310998 0)
(0.27529 -0.0380202 0)
(0.277001 -0.0420159 0)
(0.279471 -0.0434046 0)
(0.282031 -0.0416981 0)
(0.282069 -0.0385383 0)
(0.276923 -0.0351802 0)
(0.267759 -0.0322962 0)
(0.259019 -0.0298002 0)
(0.251122 -0.0257819 0)
(0.24438 -0.0180968 0)
(0.236826 -0.00761644 0)
(0.228225 0.005701 0)
(0.220897 0.0199659 0)
(0.217737 0.0333569 0)
(0.222258 0.0451284 0)
(0.2318 0.0546257 0)
(0.245927 0.0611656 0)
(0.259696 0.064809 0)
(-6.04958 0.0138219 0)
(-1.42156 0.0873991 0)
(0.377378 -0.0367323 0)
(0.362585 -0.0390013 0)
(0.36478 -0.0307323 0)
(0.354747 -0.0234294 0)
(0.341419 -0.0103909 0)
(0.322169 0.0029435 0)
(0.303435 0.0176344 0)
(0.285481 0.0304011 0)
(0.269537 0.0399205 0)
(0.259237 0.0448879 0)
(0.255948 0.0427911 0)
(0.254264 0.0377485 0)
(0.255107 0.0315735 0)
(0.256734 0.0252924 0)
(0.259645 0.018683 0)
(0.265173 0.00951046 0)
(0.269415 -0.00164632 0)
(0.271895 -0.0133621 0)
(0.273771 -0.0243062 0)
(0.275543 -0.0329733 0)
(0.278795 -0.03986 0)
(0.281857 -0.0432964 0)
(0.284468 -0.0450036 0)
(0.286118 -0.0447045 0)
(0.283827 -0.0433077 0)
(0.276398 -0.0424275 0)
(0.266147 -0.0413487 0)
(0.257172 -0.0383919 0)
(0.250727 -0.0332619 0)
(0.246031 -0.0243068 0)
(0.239018 -0.0126088 0)
(0.232558 0.0022656 0)
(0.226232 0.0179685 0)
(0.223526 0.0335281 0)
(0.227187 0.047342 0)
(0.235127 0.0578138 0)
(0.247035 0.0635604 0)
(0.259437 0.0663253 0)
(-6.03415 0.0132874 0)
(-1.42296 0.0686078 0)
(0.377871 -0.029344 0)
(0.365907 -0.0297295 0)
(0.3704 -0.0215144 0)
(0.363336 -0.0138885 0)
(0.352858 -0.00442904 0)
(0.335699 0.00509837 0)
(0.316536 0.0171134 0)
(0.295912 0.0288755 0)
(0.275222 0.0376126 0)
(0.257929 0.0438457 0)
(0.248679 0.0423023 0)
(0.246761 0.0371061 0)
(0.246812 0.0313193 0)
(0.248389 0.0251454 0)
(0.2506 0.0184214 0)
(0.255236 0.00950887 0)
(0.260651 -0.00137446 0)
(0.26572 -0.0128727 0)
(0.27109 -0.0238171 0)
(0.276664 -0.0324206 0)
(0.282762 -0.0385776 0)
(0.287286 -0.0420416 0)
(0.28966 -0.0446606 0)
(0.288849 -0.0455761 0)
(0.283176 -0.0476765 0)
(0.273782 -0.0491877 0)
(0.264204 -0.0486949 0)
(0.257103 -0.044701 0)
(0.251783 -0.0378804 0)
(0.246735 -0.0278083 0)
(0.242657 -0.014783 0)
(0.237478 0.000919581 0)
(0.23296 0.0187657 0)
(0.23111 0.036488 0)
(0.232575 0.0517865 0)
(0.237912 0.0620797 0)
(0.246515 0.0671521 0)
(0.257368 0.0683864 0)
(-6.02157 0.0116474 0)
(-1.4207 0.0426884 0)
(0.376325 -0.0234162 0)
(0.370747 -0.0230865 0)
(0.375145 -0.0142703 0)
(0.369007 -0.0065694 0)
(0.361087 0.000331665 0)
(0.346716 0.00689573 0)
(0.328075 0.0164175 0)
(0.305505 0.0269335 0)
(0.280659 0.0347014 0)
(0.257155 0.0394893 0)
(0.242307 0.0395654 0)
(0.238993 0.0346384 0)
(0.238565 0.0292663 0)
(0.240167 0.0234114 0)
(0.242272 0.0164176 0)
(0.245617 0.00839325 0)
(0.252231 -0.00136286 0)
(0.260174 -0.0115382 0)
(0.269428 -0.0212283 0)
(0.278826 -0.029034 0)
(0.286346 -0.0347058 0)
(0.292188 -0.0395595 0)
(0.293005 -0.0427724 0)
(0.288548 -0.0481229 0)
(0.280394 -0.0520921 0)
(0.271003 -0.0542541 0)
(0.263113 -0.0532204 0)
(0.257895 -0.0479925 0)
(0.254322 -0.0394752 0)
(0.248585 -0.0283222 0)
(0.246657 -0.0140255 0)
(0.243913 0.00316019 0)
(0.240954 0.022463 0)
(0.238641 0.0412195 0)
(0.23939 0.056612 0)
(0.240949 0.0665608 0)
(0.244842 0.0714528 0)
(0.253261 0.0704344 0)
(-6.01216 0.00948007 0)
(-1.41785 0.0190194 0)
(0.375244 -0.0189426 0)
(0.374672 -0.0180853 0)
(0.379161 -0.00898135 0)
(0.37353 -0.00144027 0)
(0.367697 0.00390467 0)
(0.355992 0.00832096 0)
(0.338129 0.0157563 0)
(0.313706 0.0244489 0)
(0.284834 0.0306659 0)
(0.256385 0.0341141 0)
(0.236981 0.034307 0)
(0.230966 0.0300532 0)
(0.230839 0.0249709 0)
(0.232186 0.0193489 0)
(0.234186 0.0126384 0)
(0.237252 0.0059265 0)
(0.245151 -0.00183213 0)
(0.256302 -0.00954764 0)
(0.269012 -0.0164146 0)
(0.281358 -0.02257 0)
(0.290272 -0.0278831 0)
(0.294593 -0.0330072 0)
(0.292806 -0.0407451 0)
(0.285863 -0.0491587 0)
(0.277021 -0.0549486 0)
(0.2691 -0.0566548 0)
(0.2633 -0.0547069 0)
(0.259743 -0.0483121 0)
(0.257331 -0.0379918 0)
(0.251612 -0.0258588 0)
(0.251124 -0.00988232 0)
(0.250689 0.00815448 0)
(0.249581 0.0274832 0)
(0.245108 0.0459797 0)
(0.246383 0.0606087 0)
(0.242537 0.0705322 0)
(0.242915 0.0747945 0)
(0.247873 0.0732242 0)
(-6.00601 0.00624464 0)
(-1.41487 0.00141581 0)
(0.376418 -0.0145468 0)
(0.378723 -0.0131331 0)
(0.383281 -0.0048314 0)
(0.378533 0.00189426 0)
(0.374006 0.00594045 0)
(0.363808 0.0097096 0)
(0.34631 0.0154559 0)
(0.320071 0.0218463 0)
(0.287584 0.0260069 0)
(0.254999 0.027913 0)
(0.231687 0.0272703 0)
(0.223224 0.0236768 0)
(0.223572 0.0190853 0)
(0.224316 0.0139386 0)
(0.22655 0.00780656 0)
(0.231037 0.00200862 0)
(0.241106 -0.00258265 0)
(0.255219 -0.00634395 0)
(0.270864 -0.00989893 0)
(0.284421 -0.0139973 0)
(0.293033 -0.0198094 0)
(0.294803 -0.0281994 0)
(0.289922 -0.0388638 0)
(0.281876 -0.0488604 0)
(0.274155 -0.0554446 0)
(0.268649 -0.056635 0)
(0.26504 -0.0533976 0)
(0.262835 -0.0455647 0)
(0.260475 -0.0345166 0)
(0.256097 -0.0213494 0)
(0.256388 -0.00404872 0)
(0.257014 0.0145445 0)
(0.256686 0.0328073 0)
(0.251655 0.0497846 0)
(0.250948 0.0635435 0)
(0.244236 0.0729928 0)
(0.240999 0.0768453 0)
(0.240843 0.0736025 0)
(-6.00284 0.00243146 0)
(-1.41238 -0.010486 0)
(0.37933 -0.00882181 0)
(0.382936 -0.00666152 0)
(0.387409 0.000248809 0)
(0.383802 0.00487978 0)
(0.379648 0.00979154 0)
(0.369971 0.0127558 0)
(0.352096 0.01571 0)
(0.323886 0.0187736 0)
(0.288302 0.0204237 0)
(0.252755 0.0202779 0)
(0.226802 0.0183385 0)
(0.216933 0.0148796 0)
(0.217405 0.0106072 0)
(0.21775 0.00621232 0)
(0.220444 0.001898 0)
(0.227258 -0.00199912 0)
(0.2406 -0.00294946 0)
(0.257388 -0.0026655 0)
(0.273894 -0.00294424 0)
(0.286858 -0.00603101 0)
(0.293395 -0.0126738 0)
(0.291624 -0.023472 0)
(0.285064 -0.0363779 0)
(0.277649 -0.0477642 0)
(0.272435 -0.0538517 0)
(0.269509 -0.0541762 0)
(0.267954 -0.0493105 0)
(0.266907 -0.0413368 0)
(0.264335 -0.029543 0)
(0.261491 -0.0140702 0)
(0.261243 0.00384418 0)
(0.261576 0.021266 0)
(0.260897 0.0378004 0)
(0.257432 0.0528326 0)
(0.253699 0.065754 0)
(0.245789 0.073519 0)
(0.23788 0.0759699 0)
(0.232296 0.072008 0)
(-6.0028 -0.00145709 0)
(-1.41148 -0.0281577 0)
(0.382177 -0.000746581 0)
(0.385995 0.0019002 0)
(0.391066 0.00554017 0)
(0.389 0.00719201 0)
(0.384824 0.0105719 0)
(0.374214 0.0136684 0)
(0.354407 0.0152923 0)
(0.324218 0.0149855 0)
(0.28671 0.0134091 0)
(0.249642 0.0106721 0)
(0.222405 0.00752703 0)
(0.21142 0.00437903 0)
(0.210799 0.00132652 0)
(0.211907 -0.00196344 0)
(0.216727 -0.0041289 0)
(0.227006 -0.00529845 0)
(0.243324 -0.00254225 0)
(0.262539 0.000884059 0)
(0.278501 0.00259983 0)
(0.2891 0.000194019 0)
(0.291933 -0.00755966 0)
(0.286715 -0.0201426 0)
(0.279297 -0.0345691 0)
(0.27364 -0.0454373 0)
(0.271923 -0.0505261 0)
(0.271481 -0.0495506 0)
(0.27177 -0.0440907 0)
(0.272102 -0.0344275 0)
(0.268936 -0.0211721 0)
(0.266652 -0.00514273 0)
(0.265228 0.011088 0)
(0.264112 0.0264573 0)
(0.262958 0.0411663 0)
(0.261333 0.0544957 0)
(0.25537 0.0652697 0)
(0.245026 0.0711777 0)
(0.233627 0.0707654 0)
(0.22485 0.068417 0)
(-6.00629 -0.00526456 0)
(-1.41144 -0.0454018 0)
(0.38453 0.0101696 0)
(0.386825 0.0124867 0)
(0.392935 0.0126832 0)
(0.392213 0.0123921 0)
(0.38809 0.0146951 0)
(0.375686 0.0158513 0)
(0.35392 0.0139581 0)
(0.321611 0.0105863 0)
(0.282214 0.00563296 0)
(0.24402 0.000580906 0)
(0.216359 -0.0033711 0)
(0.205422 -0.00676139 0)
(0.205444 -0.00926816 0)
(0.208931 -0.0107263 0)
(0.216379 -0.00953509 0)
(0.230561 -0.00685867 0)
(0.249819 -0.000931176 0)
(0.269081 0.00493142 0)
(0.283204 0.00693254 0)
(0.290077 0.00380874 0)
(0.288117 -0.00534904 0)
(0.280447 -0.0192365 0)
(0.273318 -0.0331167 0)
(0.270499 -0.0424407 0)
(0.272068 -0.0458773 0)
(0.274147 -0.0434592 0)
(0.276268 -0.0367258 0)
(0.278252 -0.0251105 0)
(0.273803 -0.011979 0)
(0.270767 0.00254871 0)
(0.267542 0.0162976 0)
(0.264149 0.0300413 0)
(0.264634 0.0429117 0)
(0.261884 0.0538891 0)
(0.254223 0.0616591 0)
(0.241594 0.0636504 0)
(0.228685 0.0633525 0)
(0.219127 0.0626037 0)
(-6.01474 -0.00870213 0)
(-1.41277 -0.0599811 0)
(0.384726 0.0227972 0)
(0.382299 0.0238098 0)
(0.391088 0.0214316 0)
(0.393222 0.0181857 0)
(0.389248 0.0178388 0)
(0.375173 0.0178571 0)
(0.350728 0.0137301 0)
(0.315883 0.00656193 0)
(0.274728 -0.00189683 0)
(0.236683 -0.00999159 0)
(0.210697 -0.0154982 0)
(0.201593 -0.0192484 0)
(0.203297 -0.0201763 0)
(0.208875 -0.0184853 0)
(0.220086 -0.0137608 0)
(0.237503 -0.00595631 0)
(0.258122 0.00220036 0)
(0.275775 0.00829356 0)
(0.287153 0.00973605 0)
(0.288854 0.00469974 0)
(0.2827 -0.00621043 0)
(0.274208 -0.0202217 0)
(0.268764 -0.0319926 0)
(0.269043 -0.0391325 0)
(0.272977 -0.0405534 0)
(0.277974 -0.0371977 0)
(0.28183 -0.0283063 0)
(0.28452 -0.0161968 0)
(0.278778 -0.0046722 0)
(0.273943 0.00744251 0)
(0.267948 0.0193899 0)
(0.264194 0.0319946 0)
(0.263917 0.042802 0)
(0.258684 0.0505189 0)
(0.24907 0.0534373 0)
(0.236307 0.0532387 0)
(0.224707 0.0534993 0)
(0.216495 0.0546822 0)
(-6.02293 -0.0128558 0)
(-1.41388 -0.0705649 0)
(0.382662 0.0345361 0)
(0.373922 0.0344072 0)
(0.38586 0.0301072 0)
(0.391911 0.0224833 0)
(0.388624 0.0194808 0)
(0.372628 0.018053 0)
(0.344848 0.0119943 0)
(0.306699 0.00193255 0)
(0.264163 -0.00974102 0)
(0.227488 -0.0202494 0)
(0.204465 -0.0263052 0)
(0.198351 -0.0298409 0)
(0.202748 -0.0289127 0)
(0.211796 -0.0244439 0)
(0.227561 -0.0158791 0)
(0.247812 -0.0046595 0)
(0.267368 0.00592888 0)
(0.281877 0.0115253 0)
(0.287953 0.0115113 0)
(0.285123 0.00355932 0)
(0.276775 -0.00866922 0)
(0.269387 -0.0213023 0)
(0.266596 -0.0305778 0)
(0.269608 -0.0347164 0)
(0.275672 -0.0340687 0)
(0.282745 -0.0295137 0)
(0.288138 -0.0203892 0)
(0.289222 -0.00946354 0)
(0.282432 -0.000521171 0)
(0.275325 0.00980141 0)
(0.266903 0.0206061 0)
(0.264422 0.0318433 0)
(0.259067 0.0400089 0)
(0.251221 0.0440714 0)
(0.24053 0.0429625 0)
(0.230448 0.0424361 0)
(0.222547 0.0435234 0)
(0.216979 0.0465843 0)
(-6.0354 -0.0181279 0)
(-1.41447 -0.0759321 0)
(0.376059 0.0464315 0)
(0.364261 0.0461617 0)
(0.377654 0.0386549 0)
(0.387581 0.0261752 0)
(0.385815 0.017833 0)
(0.367849 0.0150392 0)
(0.336568 0.00721922 0)
(0.294615 -0.00444082 0)
(0.251182 -0.0177569 0)
(0.217148 -0.0295181 0)
(0.198587 -0.0356095 0)
(0.196508 -0.0379793 0)
(0.204382 -0.0353732 0)
(0.218783 -0.0276181 0)
(0.238755 -0.0151329 0)
(0.260082 -0.0017239 0)
(0.27658 0.0101148 0)
(0.286079 0.0154018 0)
(0.286065 0.011505 0)
(0.279238 0.00185315 0)
(0.271392 -0.0105272 0)
(0.266579 -0.0211083 0)
(0.266801 -0.0271429 0)
(0.271911 -0.0289099 0)
(0.280275 -0.0280491 0)
(0.288186 -0.0223828 0)
(0.293429 -0.0141631 0)
(0.292537 -0.0060527 0)
(0.284737 2.89613e-05 0)
(0.275471 0.00866246 0)
(0.265945 0.0184947 0)
(0.261497 0.0279181 0)
(0.251277 0.0327569 0)
(0.240517 0.0338757 0)
(0.231304 0.0328265 0)
(0.225861 0.0330918 0)
(0.222112 0.0353118 0)
(0.219459 0.0394554 0)
(-6.05074 -0.0227066 0)
(-1.41334 -0.0816069 0)
(0.367809 0.0611893 0)
(0.353534 0.060319 0)
(0.366417 0.0488512 0)
(0.378917 0.0305637 0)
(0.3794 0.0151804 0)
(0.360053 0.00922413 0)
(0.326252 -0.000670024 0)
(0.281337 -0.012911 0)
(0.237732 -0.0259335 0)
(0.206994 -0.0369262 0)
(0.193792 -0.0424622 0)
(0.196271 -0.0423145 0)
(0.209834 -0.0381867 0)
(0.229683 -0.0264987 0)
(0.25281 -0.0115628 0)
(0.272859 0.003843 0)
(0.285451 0.015092 0)
(0.287415 0.0188486 0)
(0.281733 0.0122947 0)
(0.272738 0.00154216 0)
(0.266756 -0.00987685 0)
(0.265459 -0.0180492 0)
(0.268596 -0.0218887 0)
(0.276096 -0.023329 0)
(0.28507 -0.0207401 0)
(0.292829 -0.0154995 0)
(0.296001 -0.00983295 0)
(0.29342 -0.00522273 0)
(0.284654 -0.00194757 0)
(0.273701 0.00405212 0)
(0.265082 0.0120714 0)
(0.255076 0.0188362 0)
(0.240677 0.0216367 0)
(0.229754 0.0227727 0)
(0.224152 0.0240651 0)
(0.222642 0.0266387 0)
(0.222724 0.0300957 0)
(0.222153 0.0346995 0)
(-6.06717 -0.025522 0)
(-1.40942 -0.0929228 0)
(0.360116 0.0794843 0)
(0.341378 0.0786459 0)
(0.35113 0.0624927 0)
(0.363439 0.036138 0)
(0.367396 0.0126698 0)
(0.34846 0.0013078 0)
(0.314211 -0.0111911 0)
(0.26845 -0.0234407 0)
(0.226009 -0.0345674 0)
(0.199013 -0.042553 0)
(0.190805 -0.0460024 0)
(0.198441 -0.043249 0)
(0.218589 -0.0358699 0)
(0.243484 -0.0220043 0)
(0.268284 -0.00568029 0)
(0.285777 0.0105657 0)
(0.292671 0.0206982 0)
(0.28778 0.0212567 0)
(0.275488 0.0144131 0)
(0.265993 0.00422294 0)
(0.263182 -0.00578323 0)
(0.265278 -0.0126529 0)
(0.271438 -0.0156371 0)
(0.280886 -0.0156529 0)
(0.289753 -0.013022 0)
(0.295754 -0.00903063 0)
(0.296492 -0.00690038 0)
(0.291573 -0.006244 0)
(0.281884 -0.0060658 0)
(0.269755 -0.0039904 0)
(0.262631 0.00166627 0)
(0.245436 0.00535302 0)
(0.230269 0.00837721 0)
(0.22152 0.012498 0)
(0.219446 0.0175963 0)
(0.220971 0.0228636 0)
(0.223916 0.0276728 0)
(0.225406 0.033302 0)
(-6.0817 -0.0289796 0)
(-1.39966 -0.111698 0)
(0.353764 0.0994181 0)
(0.327581 0.100209 0)
(0.330971 0.0795457 0)
(0.339063 0.0447509 0)
(0.346898 0.0123187 0)
(0.332067 -0.008417 0)
(0.300543 -0.024095 0)
(0.257369 -0.0364804 0)
(0.217983 -0.0445474 0)
(0.194943 -0.0476197 0)
(0.191358 -0.0466858 0)
(0.204003 -0.0406553 0)
(0.229891 -0.0299427 0)
(0.258921 -0.0140582 0)
(0.283761 0.00269017 0)
(0.298527 0.0171094 0)
(0.298343 0.0263848 0)
(0.285715 0.0248447 0)
(0.269092 0.018091 0)
(0.259876 0.00948026 0)
(0.260091 0.00107994 0)
(0.266063 -0.00498616 0)
(0.276386 -0.00767472 0)
(0.285626 -0.00675663 0)
(0.292268 -0.00462617 0)
(0.295481 -0.00327588 0)
(0.293587 -0.00529441 0)
(0.285819 -0.0085962 0)
(0.275551 -0.0126703 0)
(0.263921 -0.012841 0)
(0.253229 -0.0111166 0)
(0.23606 -0.0114214 0)
(0.223934 -0.00580997 0)
(0.217642 0.00307302 0)
(0.217964 0.0126872 0)
(0.221147 0.0210948 0)
(0.225911 0.0275965 0)
(0.229099 0.0337908 0)
(-6.09194 -0.0333542 0)
(-1.38328 -0.127008 0)
(0.347893 0.115839 0)
(0.311389 0.120782 0)
(0.305042 0.0961462 0)
(0.305652 0.0557345 0)
(0.315169 0.0147674 0)
(0.308857 -0.0180659 0)
(0.285057 -0.0396265 0)
(0.248825 -0.0514158 0)
(0.215617 -0.0551223 0)
(0.196972 -0.0518797 0)
(0.19622 -0.0449514 0)
(0.213605 -0.0348792 0)
(0.243294 -0.0202601 0)
(0.274688 -0.00324024 0)
(0.29848 0.0126825 0)
(0.308806 0.024867 0)
(0.302554 0.0303438 0)
(0.2826 0.0289489 0)
(0.263717 0.0234301 0)
(0.255543 0.0176081 0)
(0.258209 0.0102789 0)
(0.268119 0.00453632 0)
(0.279706 0.00255865 0)
(0.288108 0.00261819 0)
(0.292761 0.00336065 0)
(0.292389 0.000955058 0)
(0.286399 -0.00512997 0)
(0.276478 -0.0128405 0)
(0.264512 -0.0197137 0)
(0.254807 -0.0244931 0)
(0.24193 -0.0291631 0)
(0.229936 -0.0276724 0)
(0.223042 -0.0185911 0)
(0.219747 -0.00557378 0)
(0.220663 0.00816285 0)
(0.223855 0.0200544 0)
(0.228727 0.0290077 0)
(0.232722 0.0360694 0)
(-6.09738 -0.037528 0)
(-1.36135 -0.13174 0)
(0.341652 0.125742 0)
(0.292721 0.13488 0)
(0.273938 0.106965 0)
(0.265289 0.062785 0)
(0.273255 0.0150495 0)
(0.275529 -0.0264348 0)
(0.266874 -0.055435 0)
(0.244362 -0.0642091 0)
(0.220681 -0.0626729 0)
(0.20555 -0.0543599 0)
(0.206605 -0.0411711 0)
(0.227281 -0.0260178 0)
(0.258597 -0.00834486 0)
(0.28967 0.009059 0)
(0.311642 0.0220896 0)
(0.31623 0.0323443 0)
(0.303984 0.0342949 0)
(0.280113 0.0330574 0)
(0.260277 0.0293297 0)
(0.253013 0.0252597 0)
(0.257746 0.0197393 0)
(0.268152 0.0157029 0)
(0.280683 0.0132494 0)
(0.289194 0.0113307 0)
(0.290801 0.00910512 0)
(0.28536 0.0025428 0)
(0.275066 -0.0073171 0)
(0.262607 -0.0186458 0)
(0.249955 -0.0277429 0)
(0.24219 -0.0391912 0)
(0.232353 -0.0435799 0)
(0.226872 -0.0399648 0)
(0.225041 -0.0285383 0)
(0.226047 -0.0122441 0)
(0.227246 0.0047692 0)
(0.229349 0.0192446 0)
(0.232881 0.0304568 0)
(0.236834 0.0384758 0)
(-6.09486 -0.0399452 0)
(-1.33493 -0.125445 0)
(0.334758 0.128777 0)
(0.271418 0.139669 0)
(0.239327 0.107769 0)
(0.220253 0.0615573 0)
(0.225788 0.0103676 0)
(0.23562 -0.0336758 0)
(0.245222 -0.0616933 0)
(0.242906 -0.0731699 0)
(0.231183 -0.0683736 0)
(0.219972 -0.0549203 0)
(0.223134 -0.0357718 0)
(0.244723 -0.0156175 0)
(0.275 0.00417368 0)
(0.303265 0.0210357 0)
(0.320988 0.03135 0)
(0.320476 0.0368769 0)
(0.303049 0.0375047 0)
(0.278554 0.0363509 0)
(0.259821 0.0351594 0)
(0.253192 0.032959 0)
(0.256752 0.0300675 0)
(0.266804 0.0260931 0)
(0.280341 0.0230697 0)
(0.286974 0.0184704 0)
(0.284588 0.0109096 0)
(0.274038 0.000365811 0)
(0.260925 -0.0129966 0)
(0.244252 -0.0247804 0)
(0.237145 -0.04001 0)
(0.22709 -0.048273 0)
(0.224841 -0.0516637 0)
(0.226869 -0.046981 0)
(0.230181 -0.0348509 0)
(0.234422 -0.0173209 0)
(0.236303 0.0014217 0)
(0.237397 0.0183383 0)