/*--------------------------------*- C++ -*----------------------------------*\
| =========                 |                                                 |
| \\      /  F ield         | OpenFOAM: The Open Source CFD Toolbox           |
|  \\    /   O peration     | Version:  v1912                                 |
|   \\  /    A nd           | Website:  www.openfoam.com                      |
|    \\/     M anipulation  |                                                 |
\*---------------------------------------------------------------------------*/
FoamFile
{
    version     2.0;
    format      ascii;
    class       volVectorField;
    location    "4.22";
    object      grad(T);
}
// * * * * * * * * * * * * * * * * * * * * * * * * * * * * * * * * * * * * * //

dimensions      [0 -1 0 1 0 0 0];


internalField   nonuniform List<vector> 
1900
(
(0.819113 -8.89359e-06 0)
(-0.775404 1.76502e-05 0)
(0.199657 9.66939e-06 0)
(0.0700674 4.03716e-05 0)
(-0.0252833 0.000108049 0)
(-0.0493189 0.000242025 0)
(-0.0503842 0.00044814 0)
(-0.039693 0.000386999 0)
(-0.0334718 -0.00227563 0)
(-0.0524258 -0.00560424 0)
(0.819122 -1.68665e-05 0)
(-0.775385 2.52774e-05 0)
(0.19968 6.30931e-06 0)
(0.0701658 3.31199e-05 0)
(-0.0250817 7.98962e-05 0)
(-0.0489788 0.000122931 0)
(-0.0502392 0.000280192 0)
(-0.0424168 9.97536e-05 0)
(-0.0394631 -0.00278497 0)
(-0.0645486 -0.00797985 0)
(0.819121 -2.1684e-13 0)
(-0.775381 -2.79724e-13 0)
(0.199665 -3.25261e-13 0)
(0.070141 -3.05745e-13 0)
(-0.0251935 -6.54858e-13 0)
(-0.0491186 -3.68629e-13 0)
(-0.0504074 2.05998e-13 0)
(-0.0427582 1.36609e-13 0)
(-0.0415514 1.73472e-14 0)
(-0.0681024 -5.63785e-14 0)
(0.819122 1.68664e-05 0)
(-0.775385 -2.52774e-05 0)
(0.19968 -6.30932e-06 0)
(0.0701658 -3.31199e-05 0)
(-0.0250817 -7.98962e-05 0)
(-0.0489788 -0.000122931 0)
(-0.0502392 -0.000280192 0)
(-0.0424168 -9.97536e-05 0)
(-0.0394631 0.00278497 0)
(-0.0645486 0.00797985 0)
(0.819113 8.89359e-06 0)
(-0.775404 -1.76502e-05 0)
(0.199657 -9.66939e-06 0)
(0.0700674 -4.03716e-05 0)
(-0.0252833 -0.000108049 0)
(-0.0493189 -0.000242025 0)
(-0.0503842 -0.00044814 0)
(-0.039693 -0.000386999 0)
(-0.0334718 0.00227563 0)
(-0.0524258 0.00560424 0)
(-0.120712 -0.0136556 9.87427e-16)
(-0.234435 -0.0207217 -1.17856e-15)
(-0.337328 -0.0293006 -1.46492e-15)
(-0.392979 -0.0493955 0)
(-0.499993 -0.13072 -5.96903e-15)
(-0.134459 -0.0176892 9.84959e-16)
(-0.24242 -0.0247407 1.17856e-15)
(-0.346962 -0.0293405 1.46492e-15)
(-0.422837 -0.0476805 0)
(-0.483494 -0.113358 0)
(-0.140133 -7.85654e-14 0)
(-0.244302 -6.65738e-14 0)
(-0.351997 1.74677e-13 0)
(-0.435328 2.4641e-13 0)
(-0.535707 4.84019e-13 0)
(-0.134459 0.0176892 9.84959e-16)
(-0.24242 0.0247407 1.17856e-15)
(-0.346962 0.0293405 1.46492e-15)
(-0.422837 0.0476805 0)
(-0.483494 0.113358 0)
(-0.120712 0.0136556 -2.95734e-15)
(-0.234435 0.0207217 -1.17856e-15)
(-0.337328 0.0293006 -1.46492e-15)
(-0.392979 0.0493955 -3.90385e-15)
(-0.499993 0.13072 5.96903e-15)
(-0.61989 0.0552458 2.36809e-15)
(-0.460355 0.0213094 -1.89863e-15)
(-0.377074 0.0249287 0)
(-0.249824 0.0227594 1.33067e-15)
(-0.22535 -0.038265 -5.82571e-16)
(-0.570131 0.0510498 -1.18488e-15)
(-0.465085 0.020387 9.49636e-16)
(-0.374771 0.0224071 0)
(-0.275401 0.0168385 -8.32223e-16)
(-0.236629 -0.0857467 1.44709e-16)
(-0.579941 4.16158e-13 0)
(-0.466409 3.10434e-13 0)
(-0.378496 1.32514e-13 0)
(-0.2969 1.41726e-13 3.33092e-16)
(-0.253716 3.4872e-14 -2.89418e-16)
(-0.570131 -0.0510498 -1.18488e-15)
(-0.465085 -0.020387 9.49636e-16)
(-0.374771 -0.0224071 0)
(-0.275401 -0.0168385 -8.32223e-16)
(-0.236629 0.0857467 1.44709e-16)
(-0.61989 -0.0552458 1.18488e-15)
(-0.460355 -0.0213094 -6.41768e-19)
(-0.377074 -0.0249287 0)
(-0.249824 -0.0227594 6.85438e-19)
(-0.22535 0.038265 5.82571e-16)
(-0.453687 0.672118 0)
(-0.156493 0.476564 0)
(0.294944 0.200088 0)
(0.0992657 0.125044 0)
(-0.0807593 0.0641875 0)
(-0.0971449 0.0274522 0)
(-0.108607 0.0152996 0)
(-0.102533 0.00428958 0)
(-0.0792026 0.00694204 0)
(-0.0551678 0.00110413 0)
(-0.0328668 0.00119074 0)
(-0.025262 0.000969242 0)
(-0.0208094 0.000847423 0)
(-0.017177 0.000684478 0)
(-0.0139612 0.000558018 0)
(-0.0112913 0.000479123 0)
(-0.00914538 0.000431726 0)
(-0.00739612 0.000400173 0)
(-0.00607907 0.000375446 0)
(-0.005034 0.000356164 0)
(-0.00410372 0.000337993 0)
(-0.00352154 0.000322387 0)
(-0.00309527 0.000312914 0)
(-0.00265979 0.00030823 0)
(-0.00222704 0.000309206 0)
(-0.00173387 0.000315343 0)
(-0.00125955 0.000326873 0)
(-0.000978159 0.000339895 0)
(-0.0010183 0.000360905 0)
(-0.00158767 0.000351076 0)
(-0.0020137 0.000367445 0)
(-0.00234998 0.000323633 0)
(-0.00123476 0.000357914 0)
(-0.000864594 0.000537462 0)
(-0.000557001 0.000503869 0)
(-0.000998366 0.00104951 0)
(-0.00572852 0.0011785 0)
(-0.158305 0.0017111 0)
(-0.52343 0.00640437 0)
(-0.369417 -0.0243817 0)
(-0.379257 -0.0479602 0)
(-0.130469 0.412565 0)
(0.248519 0.246216 0)
(0.0809352 0.113002 0)
(-0.092977 0.0467184 0)
(-0.103683 0.0143587 0)
(-0.111378 0.00758795 0)
(-0.103419 0.000708319 0)
(-0.079279 0.0022676 0)
(-0.0556387 0.000216545 0)
(-0.0328186 0.000457637 0)
(-0.0252896 0.000296711 0)
(-0.0208248 0.000257523 0)
(-0.0171949 0.000203405 0)
(-0.0139734 0.000162988 0)
(-0.011298 0.000140588 0)
(-0.00914885 0.000129781 0)
(-0.00739842 0.000123981 0)
(-0.00608109 0.000119212 0)
(-0.0050363 0.000114542 0)
(-0.00410656 0.00010808 0)
(-0.00352441 0.000100479 0)
(-0.00309787 9.34438e-05 0)
(-0.00266208 8.69245e-05 0)
(-0.0022289 8.17816e-05 0)
(-0.00173516 7.86362e-05 0)
(-0.00126017 7.90778e-05 0)
(-0.000977346 8.49055e-05 0)
(-0.00101898 0.000100297 0)
(-0.00158753 0.000114175 0)
(-0.00201718 0.000152614 0)
(-0.00234867 0.000180593 0)
(-0.00120964 0.000310199 0)
(-0.000847875 0.00054309 0)
(-0.000496608 0.000808512 0)
(-0.000901752 0.0014826 0)
(-0.00558692 0.00230001 0)
(-0.156876 0.00348893 0)
(-0.521899 0.0119187 0)
(-0.369209 0.0295805 0)
(-0.307853 -3.48916e-13 0)
(-0.0709145 -4.90848e-13 0)
(0.207798 -1.18277e-14 0)
(0.0412301 3.10476e-12 0)
(-0.109455 2.51141e-12 0)
(-0.108528 2.38919e-12 0)
(-0.112578 1.43903e-13 0)
(-0.104081 -3.64095e-12 0)
(-0.0793456 -1.68544e-12 0)
(-0.0556944 -7.58942e-13 0)
(-0.0328434 -2.10927e-13 0)
(-0.0253202 1.41932e-13 0)
(-0.0208366 -7.58942e-13 0)
(-0.0172045 -1.32667e-12 0)
(-0.0139794 -1.6953e-12 0)
(-0.011301 -1.01126e-12 0)
(-0.00915021 1.63616e-13 0)
(-0.0073992 7.23459e-13 0)
(-0.00608182 3.90313e-13 0)
(-0.00503723 2.14869e-13 0)
(-0.00410781 9.97466e-13 0)
(-0.0035258 2.12898e-12 0)
(-0.00309921 6.11096e-13 0)
(-0.00266319 -2.32808e-12 0)
(-0.00222945 -3.62321e-12 0)
(-0.00173465 -3.82822e-12 0)
(-0.00125773 -4.77049e-12 0)
(-0.000971986 -2.23149e-12 0)
(-0.00100978 1.63616e-12 0)
(-0.00157245 6.77528e-12 0)
(-0.00199438 5.40524e-12 0)
(-0.00230414 1.81357e-12 0)
(-0.00112931 5.79555e-13 0)
(-0.00071963 2.10335e-12 0)
(-0.00028369 7.18136e-12 0)
(-0.000564475 1.41084e-11 0)
(-0.00514486 1.16128e-11 0)
(-0.155507 2.40969e-11 0)
(-0.515839 7.48375e-11 0)
(-0.364279 5.77899e-11 0)
(-0.379257 0.0479602 0)
(-0.130469 -0.412565 0)
(0.248519 -0.246216 0)
(0.0809352 -0.113002 0)
(-0.092977 -0.0467184 0)
(-0.103683 -0.0143587 0)
(-0.111378 -0.00758795 0)
(-0.103419 -0.000708319 0)
(-0.079279 -0.0022676 0)
(-0.0556387 -0.000216545 0)
(-0.0328186 -0.000457637 0)
(-0.0252896 -0.000296711 0)
(-0.0208248 -0.000257523 0)
(-0.0171949 -0.000203405 0)
(-0.0139734 -0.000162988 0)
(-0.011298 -0.000140588 0)
(-0.00914885 -0.000129781 0)
(-0.00739842 -0.000123981 0)
(-0.00608109 -0.000119212 0)
(-0.0050363 -0.000114542 0)
(-0.00410656 -0.00010808 0)
(-0.00352441 -0.000100479 0)
(-0.00309787 -9.34438e-05 0)
(-0.00266208 -8.69245e-05 0)
(-0.0022289 -8.17816e-05 0)
(-0.00173516 -7.86362e-05 0)
(-0.00126017 -7.90778e-05 0)
(-0.000977346 -8.49055e-05 0)
(-0.00101898 -0.000100297 0)
(-0.00158753 -0.000114175 0)
(-0.00201718 -0.000152615 0)
(-0.00234867 -0.000180593 0)
(-0.00120964 -0.000310199 0)
(-0.000847875 -0.00054309 0)
(-0.000496608 -0.000808512 0)
(-0.000901752 -0.0014826 0)
(-0.00558692 -0.00230001 0)
(-0.156876 -0.00348893 0)
(-0.521899 -0.0119187 0)
(-0.369209 -0.0295805 0)
(-0.453687 -0.672118 0)
(-0.156493 -0.476564 0)
(0.294944 -0.200088 0)
(0.0992657 -0.125044 0)
(-0.0807593 -0.0641875 0)
(-0.0971449 -0.0274522 0)
(-0.108607 -0.0152996 0)
(-0.102533 -0.00428958 0)
(-0.0792026 -0.00694204 0)
(-0.0551678 -0.00110413 0)
(-0.0328668 -0.00119074 0)
(-0.025262 -0.000969242 0)
(-0.0208094 -0.000847423 0)
(-0.017177 -0.000684478 0)
(-0.0139612 -0.000558018 0)
(-0.0112913 -0.000479123 0)
(-0.00914538 -0.000431726 0)
(-0.00739612 -0.000400173 0)
(-0.00607907 -0.000375446 0)
(-0.005034 -0.000356164 0)
(-0.00410372 -0.000337993 0)
(-0.00352154 -0.000322387 0)
(-0.00309527 -0.000312914 0)
(-0.00265979 -0.00030823 0)
(-0.00222704 -0.000309206 0)
(-0.00173387 -0.000315343 0)
(-0.00125955 -0.000326873 0)
(-0.000978159 -0.000339895 0)
(-0.0010183 -0.000360905 0)
(-0.00158767 -0.000351076 0)
(-0.0020137 -0.000367445 0)
(-0.00234998 -0.000323633 0)
(-0.00123476 -0.000357914 0)
(-0.000864594 -0.000537462 0)
(-0.000557001 -0.000503869 0)
(-0.000998366 -0.00104951 0)
(-0.00572852 -0.0011785 0)
(-0.158305 -0.0017111 0)
(-0.52343 -0.00640437 0)
(-0.369417 0.0243817 0)
(-0.0648288 -1.08687 0)
(0.195713 -0.294526 0)
(0.41534 -0.122551 0)
(0.144987 -0.143068 0)
(-0.0458871 -0.0821935 0)
(-0.0805759 -0.0459846 0)
(-0.100053 -0.028586 0)
(-0.0992009 -0.0137125 0)
(-0.0773692 -0.0122604 0)
(-0.0525755 -0.00310376 0)
(-0.0326782 -0.00235307 0)
(-0.0251061 -0.00192572 0)
(-0.0206638 -0.00163674 0)
(-0.017034 -0.00130593 0)
(-0.0138587 -0.00105691 0)
(-0.0112264 -0.000901497 0)
(-0.00910334 -0.000805927 0)
(-0.00736577 -0.000739804 0)
(-0.00605583 -0.000686634 0)
(-0.00501547 -0.000645002 0)
(-0.00408865 -0.000608428 0)
(-0.003512 -0.000579533 0)
(-0.003092 -0.00056353 0)
(-0.00266239 -0.000557213 0)
(-0.00223552 -0.000562462 0)
(-0.00174773 -0.000578054 0)
(-0.00127628 -0.000603543 0)
(-0.000997754 -0.000630017 0)
(-0.00102678 -0.000665446 0)
(-0.00159148 -0.000650775 0)
(-0.00200399 -0.00065964 0)
(-0.00234117 -0.000596468 0)
(-0.00131472 -0.000619713 0)
(-0.000920098 -0.000909516 0)
(-0.000747972 -0.00093203 0)
(-0.00121322 -0.00173524 0)
(-0.00583819 -0.00190886 0)
(-0.158501 -0.00211171 0)
(-0.503763 -0.00112122 0)
(-0.349657 0.00792245 0)
(0.307477 -0.509855 0)
(0.583898 0.0242281 0)
(0.376333 -0.0275551 0)
(0.113638 -0.117812 0)
(-0.00590592 -0.0869169 0)
(-0.0543717 -0.0599145 0)
(-0.0820958 -0.04227 0)
(-0.0885884 -0.0249539 0)
(-0.0699627 -0.0154966 0)
(-0.0470109 -0.00590759 0)
(-0.0318326 -0.00377048 0)
(-0.0246553 -0.0029326 0)
(-0.0202903 -0.0023781 0)
(-0.0166949 -0.00186814 0)
(-0.0136263 -0.00150286 0)
(-0.0110843 -0.00127839 0)
(-0.00901211 -0.00113778 0)
(-0.00729744 -0.00103679 0)
(-0.00600018 -0.000952883 0)
(-0.00496857 -0.000886032 0)
(-0.00404871 -0.000827331 0)
(-0.00348339 -0.000780805 0)
(-0.00307552 -0.00075349 0)
(-0.00265737 -0.000739869 0)
(-0.00224257 -0.000743296 0)
(-0.00176602 -0.000762149 0)
(-0.00130066 -0.000797813 0)
(-0.0010273 -0.000834889 0)
(-0.00103375 -0.000887202 0)
(-0.00158004 -0.000863342 0)
(-0.00196657 -0.000871085 0)
(-0.00231623 -0.000794035 0)
(-0.00149355 -0.000827647 0)
(-0.00113579 -0.00128471 0)
(-0.0012503 -0.0014299 0)
(-0.00182446 -0.00250679 0)
(-0.0060325 -0.00291203 0)
(-0.157441 -0.00300769 0)
(-0.524306 0.00285547 0)
(-0.371299 -0.0201381 0)
(0.449833 -0.104784 0)
(0.660475 0.0779624 0)
(0.278466 -0.0372609 0)
(0.0877838 -0.0863744 0)
(0.00990482 -0.0775253 0)
(-0.0375525 -0.0633373 0)
(-0.0663637 -0.0502711 0)
(-0.0734011 -0.031712 0)
(-0.0590155 -0.0176458 0)
(-0.0412758 -0.00873037 0)
(-0.0298114 -0.00550134 0)
(-0.0237644 -0.00411659 0)
(-0.0196381 -0.00319309 0)
(-0.0161906 -0.00248466 0)
(-0.0132904 -0.00200195 0)
(-0.0108746 -0.00170159 0)
(-0.00887052 -0.0015031 0)
(-0.00718759 -0.00135386 0)
(-0.00591055 -0.00122855 0)
(-0.00489448 -0.00113012 0)
(-0.00398725 -0.00104564 0)
(-0.00344085 -0.000980306 0)
(-0.00305255 -0.000943905 0)
(-0.00265257 -0.000927432 0)
(-0.00225699 -0.000936145 0)
(-0.00180027 -0.00096764 0)
(-0.00134637 -0.00102638 0)
(-0.00108389 -0.00108563 0)
(-0.0010542 -0.00117023 0)
(-0.00157594 -0.00113718 0)
(-0.0019372 -0.00115772 0)
(-0.00229931 -0.00108545 0)
(-0.00178755 -0.00115557 0)
(-0.00150046 -0.00178987 0)
(-0.00192561 -0.00205297 0)
(-0.00264145 -0.00323153 0)
(-0.00632088 -0.00377914 0)
(-0.152943 -0.0038367 0)
(-0.52027 0.00277165 0)
(-0.371815 0.00153639 0)
(0.483579 -0.00350316 0)
(0.648966 0.0193282 0)
(0.217973 -0.0419133 0)
(0.0748381 -0.0724208 0)
(0.0162935 -0.069153 0)
(-0.0281085 -0.0620116 0)
(-0.0516204 -0.0508698 0)
(-0.0571495 -0.0328781 0)
(-0.0478168 -0.0187548 0)
(-0.0353081 -0.0104359 0)
(-0.0273866 -0.00691028 0)
(-0.022431 -0.00508512 0)
(-0.0187177 -0.00383259 0)
(-0.0155471 -0.00296307 0)
(-0.0128718 -0.00239061 0)
(-0.0106036 -0.00202207 0)
(-0.00867703 -0.0017638 0)
(-0.00703287 -0.00156171 0)
(-0.00578458 -0.00139104 0)
(-0.00479231 -0.00125916 0)
(-0.00390434 -0.00114841 0)
(-0.00338536 -0.00106488 0)
(-0.00302456 -0.00102141 0)
(-0.00264989 -0.00100508 0)
(-0.00228132 -0.00102306 0)
(-0.00185297 -0.00107222 0)
(-0.00141435 -0.00115987 0)
(-0.00116592 -0.00124097 0)
(-0.00108343 -0.00136239 0)
(-0.00156798 -0.00132847 0)
(-0.00191672 -0.00137418 0)
(-0.00231416 -0.00134348 0)
(-0.00217235 -0.00149629 0)
(-0.00200056 -0.00228214 0)
(-0.00263953 -0.00274859 0)
(-0.00348787 -0.00392558 0)
(-0.00661567 -0.00463205 0)
(-0.151128 -0.00456195 0)
(-0.519129 0.000305786 0)
(-0.372489 -0.000183802 0)
(0.471834 0.015997 0)
(0.623462 -0.0199563 0)
(0.190053 -0.0411776 0)
(0.0615346 -0.0628202 0)
(0.0199356 -0.0639664 0)
(-0.0199341 -0.0573532 0)
(-0.0382897 -0.0455316 0)
(-0.042454 -0.0309747 0)
(-0.0373893 -0.0182707 0)
(-0.0298619 -0.011262 0)
(-0.0246552 -0.00772363 0)
(-0.0207986 -0.00566667 0)
(-0.0175932 -0.00424588 0)
(-0.0148011 -0.00329468 0)
(-0.0123837 -0.00266754 0)
(-0.0102706 -0.00223922 0)
(-0.00842691 -0.00192059 0)
(-0.00682839 -0.0016624 0)
(-0.005619 -0.00144335 0)
(-0.00466067 -0.00127669 0)
(-0.00380004 -0.00113976 0)
(-0.00331847 -0.00103919 0)
(-0.00299492 -0.000991042 0)
(-0.00265415 -0.000978321 0)
(-0.00232169 -0.00100926 0)
(-0.0019321 -0.00107691 0)
(-0.00150899 -0.00119209 0)
(-0.00127905 -0.00128102 0)
(-0.00113852 -0.00141772 0)
(-0.0015873 -0.00135646 0)
(-0.00195166 -0.00140048 0)
(-0.00241698 -0.00140243 0)
(-0.00269208 -0.00158252 0)
(-0.00270721 -0.00241759 0)
(-0.00350928 -0.00300498 0)
(-0.00445643 -0.00404157 0)
(-0.00693411 -0.00478645 0)
(-0.148185 -0.00465106 0)
(-0.516051 -0.000487492 0)
(-0.372287 -0.000494507 0)
(0.448933 0.027467 0)
(0.59387 -0.0266033 0)
(0.176667 -0.040145 0)
(0.052878 -0.0524457 0)
(0.0215616 -0.0574224 0)
(-0.0103441 -0.0505381 0)
(-0.0262011 -0.039514 0)
(-0.0308799 -0.0275933 0)
(-0.028821 -0.0175043 0)
(-0.0251445 -0.0116123 0)
(-0.0219948 -0.00821992 0)
(-0.0190797 -0.00603624 0)
(-0.016432 -0.00455537 0)
(-0.0140261 -0.00356068 0)
(-0.0118547 -0.00288492 0)
(-0.00988379 -0.00239243 0)
(-0.00812119 -0.00200818 0)
(-0.00657299 -0.00168938 0)
(-0.0054129 -0.00141875 0)
(-0.00449976 -0.0012164 0)
(-0.00367548 -0.00105416 0)
(-0.00324205 -0.000938967 0)
(-0.00296591 -0.000890609 0)
(-0.00266745 -0.000887238 0)
(-0.00237632 -0.000939442 0)
(-0.00202915 -0.00103281 0)
(-0.00161104 -0.00118536 0)
(-0.00138334 -0.00129443 0)
(-0.00115613 -0.00147097 0)
(-0.00155138 -0.001393 0)
(-0.00196102 -0.00145876 0)
(-0.00248958 -0.00153156 0)
(-0.0031506 -0.00175219 0)
(-0.00337129 -0.00262041 0)
(-0.00420445 -0.00330572 0)
(-0.00520456 -0.00420505 0)
(-0.007203 -0.00493465 0)
(-0.146986 -0.00437246 0)
(-0.515123 0.00318349 0)
(-0.372496 0.00202508 0)
(0.41973 -0.00407584 0)
(0.558308 -0.0240134 0)
(0.16515 -0.0361247 0)
(0.0448855 -0.0459066 0)
(0.0217738 -0.0494895 0)
(-0.00267694 -0.0431295 0)
(-0.0161792 -0.0338526 0)
(-0.0212447 -0.0234676 0)
(-0.0219895 -0.0158047 0)
(-0.0209151 -0.0110051 0)
(-0.019282 -0.00793469 0)
(-0.0172673 -0.00590091 0)
(-0.0152077 -0.00456446 0)
(-0.0131914 -0.00365645 0)
(-0.0112579 -0.00301019 0)
(-0.00942573 -0.00250159 0)
(-0.00774943 -0.00208081 0)
(-0.00626039 -0.0017177 0)
(-0.00516322 -0.00140439 0)
(-0.00430933 -0.00117146 0)
(-0.0035327 -0.000986096 0)
(-0.00316087 -0.000855281 0)
(-0.00294508 -0.000802178 0)
(-0.00270121 -0.000797108 0)
(-0.00246196 -0.000849027 0)
(-0.00216908 -0.000934265 0)
(-0.00176109 -0.00107392 0)
(-0.00155428 -0.00112525 0)
(-0.0012335 -0.0012568 0)
(-0.00157553 -0.00107642 0)
(-0.00208519 -0.00107324 0)
(-0.00269974 -0.00115143 0)
(-0.00374134 -0.00135018 0)
(-0.00420426 -0.00222656 0)
(-0.0050363 -0.00306297 0)
(-0.00602611 -0.00390835 0)
(-0.00709543 -0.00474415 0)
(-0.140362 -0.0041432 0)
(-0.509886 0.00470753 0)
(-0.373403 0.00403977 0)
(0.42972 -0.0249811 0)
(0.562987 -0.0194784 0)
(0.15557 -0.0322625 0)
(0.0399992 -0.0402791 0)
(0.0242378 -0.0413018 0)
(0.00472426 -0.0361789 0)
(-0.00725412 -0.0282465 0)
(-0.0134884 -0.0201971 0)
(-0.0168117 -0.014363 0)
(-0.0175606 -0.0104331 0)
(-0.0170762 -0.00777179 0)
(-0.015832 -0.00596022 0)
(-0.0142691 -0.00480454 0)
(-0.0125284 -0.00397556 0)
(-0.0107418 -0.0033443 0)
(-0.00898821 -0.0028082 0)
(-0.0073658 -0.00234377 0)
(-0.00592117 -0.00193286 0)
(-0.00488652 -0.00157668 0)
(-0.00409667 -0.00131456 0)
(-0.00337079 -0.00110845 0)
(-0.00306482 -0.000965521 0)
(-0.00290985 -0.00091143 0)
(-0.0027126 -0.000908835 0)
(-0.00250849 -0.000965162 0)
(-0.00224587 -0.00104634 0)
(-0.00179508 -0.00119548 0)
(-0.00155957 -0.00120417 0)
(-0.00110907 -0.00129171 0)
(-0.00137449 -0.00105026 0)
(-0.0020333 -0.00101848 0)
(-0.00275644 -0.00118952 0)
(-0.00418663 -0.00142288 0)
(-0.0050218 -0.00237066 0)
(-0.00582509 -0.00349144 0)
(-0.00682461 -0.00424831 0)
(-0.0074293 -0.00517866 0)
(-0.137878 -0.00434999 0)
(-0.507238 0.00912683 0)
(-0.373139 0.0040218 0)
(0.425033 -0.00658865 0)
(0.551292 -0.0172061 0)
(0.145106 -0.0284658 0)
(0.0361749 -0.0347902 0)
(0.0257249 -0.0342779 0)
(0.00990353 -0.0305031 0)
(-0.000778653 -0.0239288 0)
(-0.00786598 -0.0178428 0)
(-0.0125805 -0.0131518 0)
(-0.0145636 -0.00959624 0)
(-0.0149717 -0.00724233 0)
(-0.0144079 -0.00565614 0)
(-0.0132952 -0.00474108 0)
(-0.0117842 -0.00407207 0)
(-0.010133 -0.0035612 0)
(-0.00846159 -0.00309711 0)
(-0.00690592 -0.00267163 0)
(-0.0055212 -0.00227891 0)
(-0.0045674 -0.00192872 0)
(-0.00385813 -0.0016653 0)
(-0.00319635 -0.0014429 0)
(-0.00297101 -0.00127027 0)
(-0.00289045 -0.00117633 0)
(-0.00275299 -0.00111935 0)
(-0.00259447 -0.00111004 0)
(-0.00239103 -0.00109621 0)
(-0.00191319 -0.00114794 0)
(-0.00164701 -0.00102396 0)
(-0.00108519 -0.000987977 0)
(-0.00131224 -0.000686917 0)
(-0.00221938 -0.000645534 0)
(-0.00308943 -0.00103951 0)
(-0.00487953 -0.00148509 0)
(-0.0061976 -0.00274402 0)
(-0.00684567 -0.00434529 0)
(-0.00765198 -0.00554547 0)
(-0.00719342 -0.00688386 0)
(-0.126577 -0.00617739 0)
(-0.501819 0.00852423 0)
(-0.378322 0.00394831 0)
(0.419489 -0.00759725 0)
(0.541905 -0.016477 0)
(0.138626 -0.0249992 0)
(0.0343984 -0.0297923 0)
(0.028369 -0.0280073 0)
(0.014697 -0.0255534 0)
(0.00494577 -0.0204508 0)
(-0.0031032 -0.0158658 0)
(-0.00886503 -0.0123737 0)
(-0.0118661 -0.00919378 0)
(-0.0132794 -0.00731146 0)
(-0.0134217 -0.00598972 0)
(-0.0127426 -0.00527739 0)
(-0.0113914 -0.00468885 0)
(-0.0098023 -0.00423922 0)
(-0.00813099 -0.00379622 0)
(-0.00657735 -0.00337314 0)
(-0.00520527 -0.00298004 0)
(-0.00429523 -0.00263064 0)
(-0.00362851 -0.00236839 0)
(-0.00299012 -0.00213343 0)
(-0.00280795 -0.00193805 0)
(-0.00276442 -0.00181929 0)
(-0.00264872 -0.00172635 0)
(-0.0024862 -0.00168288 0)
(-0.00228238 -0.00161001 0)
(-0.00172545 -0.00160382 0)
(-0.00140542 -0.00141292 0)
(-0.000784284 -0.00133933 0)
(-0.0010445 -0.0010549 0)
(-0.00237307 -0.000980365 0)
(-0.00356546 -0.00138302 0)
(-0.00582916 -0.0017735 0)
(-0.007778 -0.00302467 0)
(-0.00852467 -0.00476026 0)
(-0.00927086 -0.00635537 0)
(-0.00803825 -0.00758515 0)
(-0.12303 -0.00725126 0)
(-0.49748 0.00506235 0)
(-0.377549 0.00201667 0)
(0.416476 -0.006303 0)
(0.534522 -0.0141301 0)
(0.132275 -0.0231058 0)
(0.0332762 -0.0262586 0)
(0.0298097 -0.0251061 0)
(0.0171853 -0.0232173 0)
(0.0085567 -0.0195496 0)
(-8.26098e-05 -0.016298 0)
(-0.00615111 -0.0132889 0)
(-0.0096855 -0.0101747 0)
(-0.0118842 -0.00841415 0)
(-0.0124478 -0.00695146 0)
(-0.0120416 -0.00612785 0)
(-0.0107838 -0.00534176 0)
(-0.0092728 -0.00473176 0)
(-0.007627 -0.00414644 0)
(-0.00611942 -0.00363429 0)
(-0.0048057 -0.00320318 0)
(-0.003978 -0.00285286 0)
(-0.003379 -0.00259978 0)
(-0.00278166 -0.00234871 0)
(-0.0026683 -0.00212569 0)
(-0.00268645 -0.00199408 0)
(-0.00262154 -0.00190199 0)
(-0.00248235 -0.00189745 0)
(-0.00231484 -0.00190679 0)
(-0.00172326 -0.00205272 0)
(-0.00139213 -0.00207611 0)
(-0.000740194 -0.00230364 0)
(-0.000966327 -0.00242344 0)
(-0.00253556 -0.00271177 0)
(-0.00385373 -0.00353719 0)
(-0.0064615 -0.00431308 0)
(-0.00907575 -0.00587394 0)
(-0.0100552 -0.00801738 0)
(-0.0103741 -0.010259 0)
(-0.00805674 -0.0114878 0)
(-0.114389 -0.0111782 0)
(-0.492888 0.00221053 0)
(-0.381257 0.000898356 0)
(0.411946 -0.00657365 0)
(0.525713 -0.0159495 0)
(0.126938 -0.0233385 0)
(0.0324709 -0.0235219 0)
(0.0312997 -0.024908 0)
(0.0200514 -0.0227218 0)
(0.0116135 -0.0192656 0)
(0.00292981 -0.0166558 0)
(-0.00296434 -0.0133584 0)
(-0.00716861 -0.010638 0)
(-0.0101734 -0.00900522 0)
(-0.0112186 -0.00753001 0)
(-0.0111915 -0.00672176 0)
(-0.0100461 -0.005812 0)
(-0.00865045 -0.00506308 0)
(-0.00707343 -0.00432545 0)
(-0.00566838 -0.00371008 0)
(-0.00445226 -0.00322207 0)
(-0.00371377 -0.00285317 0)
(-0.00314269 -0.00260098 0)
(-0.00253328 -0.00233855 0)
(-0.00246622 -0.0021006 0)
(-0.00254885 -0.001978 0)
(-0.0025556 -0.00191279 0)
(-0.00249083 -0.00196113 0)
(-0.00243201 -0.00203417 0)
(-0.00188861 -0.00228994 0)
(-0.00164722 -0.00242401 0)
(-0.00111898 -0.00284092 0)
(-0.00143779 -0.00326562 0)
(-0.00344632 -0.00380642 0)
(-0.00510855 -0.00505571 0)
(-0.00808093 -0.00613219 0)
(-0.0113476 -0.00806964 0)
(-0.0127503 -0.0102418 0)
(-0.0126151 -0.013521 0)
(-0.00892406 -0.0154549 0)
(-0.10983 -0.0154022 0)
(-0.485843 -0.00706566 0)
(-0.378813 -0.00240355 0)
(0.407441 -0.00672 0)
(0.518367 -0.0177499 0)
(0.124978 -0.0244469 0)
(0.0317638 -0.0228399 0)
(0.0305808 -0.0240824 0)
(0.0226225 -0.0217839 0)
(0.014402 -0.0196463 0)
(0.00560975 -0.0179681 0)
(-0.000352096 -0.0143662 0)
(-0.00549059 -0.0120639 0)
(-0.0088892 -0.0105209 0)
(-0.0102474 -0.00891697 0)
(-0.0103861 -0.00790046 0)
(-0.00918543 -0.0065626 0)
(-0.00784031 -0.0054289 0)
(-0.00632319 -0.00425022 0)
(-0.00505616 -0.00319957 0)
(-0.00397996 -0.00232624 0)
(-0.00337949 -0.00165994 0)
(-0.00288308 -0.00124353 0)
(-0.00229948 -0.000977423 0)
(-0.00232087 -0.000886863 0)
(-0.00250546 -0.00105427 0)
(-0.00260528 -0.00135623 0)
(-0.00259932 -0.0018107 0)
(-0.00263169 -0.00224925 0)
(-0.00209893 -0.00287167 0)
(-0.00192307 -0.00330428 0)
(-0.0015512 -0.00402553 0)
(-0.00189672 -0.00485138 0)
(-0.00426056 -0.00553373 0)
(-0.00609492 -0.00719151 0)
(-0.00936583 -0.00863781 0)
(-0.0130359 -0.0113994 0)
(-0.0153083 -0.0143637 0)
(-0.0153976 -0.0187434 0)
(-0.00986955 -0.0213305 0)
(-0.106305 -0.0209086 0)
(-0.480362 -0.0139014 0)
(-0.376765 -0.00560619 0)
(0.401317 -0.00644207 0)
(0.508631 -0.0233491 0)
(0.122034 -0.03119 0)
(0.0328222 -0.030977 0)
(0.0323172 -0.0305353 0)
(0.0243263 -0.0245633 0)
(0.0152905 -0.0225353 0)
(0.00801789 -0.0199019 0)
(0.00272515 -0.0160473 0)
(-0.00346316 -0.0137049 0)
(-0.00714084 -0.0118737 0)
(-0.0086934 -0.00984551 0)
(-0.00892271 -0.00863036 0)
(-0.00766441 -0.00706256 0)
(-0.00642216 -0.00571391 0)
(-0.00492518 -0.00432169 0)
(-0.00381436 -0.0031037 0)
(-0.00296861 -0.00213911 0)
(-0.00267043 -0.00143862 0)
(-0.002485 -0.00100101 0)
(-0.00218958 -0.000696395 0)
(-0.00254027 -0.000585493 0)
(-0.00300115 -0.000780356 0)
(-0.00328453 -0.00115452 0)
(-0.00335138 -0.00174597 0)
(-0.00345439 -0.00234143 0)
(-0.00290527 -0.00315369 0)
(-0.00275911 -0.00388159 0)
(-0.00260983 -0.00495523 0)
(-0.00289115 -0.00646664 0)
(-0.00570136 -0.00779435 0)
(-0.00809975 -0.0104009 0)
(-0.0121358 -0.0123279 0)
(-0.0168653 -0.0162324 0)
(-0.0198272 -0.0203534 0)
(-0.0193285 -0.0264028 0)
(-0.0110105 -0.0303575 0)
(-0.102671 -0.0305038 0)
(-0.471097 -0.0228018 0)
(-0.37082 -0.00744675 0)
(0.391149 -0.00593853 0)
(0.494519 -0.0240576 0)
(0.117627 -0.0339801 0)
(0.0323947 -0.035427 0)
(0.0367613 -0.0339244 0)
(0.0303317 -0.0265025 0)
(0.0188939 -0.0237406 0)
(0.0118617 -0.0201114 0)
(0.00561961 -0.0146987 0)
(-0.00146869 -0.0142629 0)
(-0.00517017 -0.0126672 0)
(-0.00712205 -0.0108782 0)
(-0.00770432 -0.0096162 0)
(-0.00637502 -0.00802997 0)
(-0.00519911 -0.00667435 0)
(-0.00380791 -0.00518925 0)
(-0.00295294 -0.00386768 0)
(-0.00237542 -0.00266193 0)
(-0.00228278 -0.00173956 0)
(-0.00216785 -0.00120582 0)
(-0.00189907 -0.000970825 0)
(-0.00240178 -0.00109133 0)
(-0.0030538 -0.001552 0)
(-0.00353579 -0.00212334 0)
(-0.00374307 -0.00286601 0)
(-0.00398822 -0.00349778 0)
(-0.00358308 -0.00427136 0)
(-0.0036591 -0.00496859 0)
(-0.00404225 -0.00588944 0)
(-0.0046326 -0.00751753 0)
(-0.00805173 -0.00883788 0)
(-0.0104636 -0.0117062 0)
(-0.0149853 -0.0140227 0)
(-0.0207697 -0.0184923 0)
(-0.0251089 -0.0235786 0)
(-0.0250379 -0.0283097 0)
(-0.0138214 -0.0328521 0)
(-0.0990241 -0.032406 0)
(-0.458143 -0.0205821 0)
(-0.361968 -0.0028591 0)
(0.383857 0.00442321 0)
(0.481609 -0.0179139 0)
(0.111078 -0.0305768 0)
(0.0328759 -0.0346842 0)
(0.0409172 -0.0315938 0)
(0.0341397 -0.0273554 0)
(0.0214491 -0.0232095 0)
(0.0167311 -0.0173382 0)
(0.00836103 -0.0160231 0)
(-0.00150558 -0.0149663 0)
(-0.00387928 -0.012378 0)
(-0.00575335 -0.0116042 0)
(-0.00617802 -0.0108528 0)
(-0.00482953 -0.0093059 0)
(-0.00368474 -0.00795424 0)
(-0.00222057 -0.00626285 0)
(-0.00137895 -0.00476643 0)
(-0.000917868 -0.00335435 0)
(-0.00126727 -0.00228789 0)
(-0.00174422 -0.00166402 0)
(-0.00207926 -0.00148435 0)
(-0.00310031 -0.00176362 0)
(-0.00399563 -0.00247575 0)
(-0.00455075 -0.00332567 0)
(-0.00467584 -0.0043405 0)
(-0.00480864 -0.00517169 0)
(-0.0043226 -0.00593579 0)
(-0.00431836 -0.00668189 0)
(-0.00506608 -0.00747879 0)
(-0.00573238 -0.0091498 0)
(-0.00973773 -0.0102125 0)
(-0.013096 -0.0125295 0)
(-0.0186752 -0.0145794 0)
(-0.0260737 -0.0177504 0)
(-0.0292876 -0.0225542 0)
(-0.0282647 -0.0254918 0)
(-0.0149578 -0.0300853 0)
(-0.0908471 -0.0276488 0)
(-0.442624 -0.0114907 0)
(-0.353741 0.0111935 0)
(0.369624 0.031886 0)
(0.460792 -0.00357546 0)
(0.101467 -0.0126701 0)
(0.0314147 -0.0167481 0)
(0.0438236 -0.0174213 0)
(0.038411 -0.017206 0)
(0.0285468 -0.0147697 0)
(0.0187868 -0.0103158 0)
(0.00790525 -0.013769 0)
(0.00204382 -0.0125357 0)
(-0.00193039 -0.0105509 0)
(-0.00565231 -0.0111237 0)
(-0.00548956 -0.0110811 0)
(-0.00358185 -0.0104771 0)
(-0.00226672 -0.009789 0)
(-0.000736014 -0.00880454 0)
(-0.000150201 -0.00796455 0)
(1.29852e-05 -0.00719437 0)
(-0.000653916 -0.00647482 0)
(-0.00139354 -0.00581317 0)
(-0.00199505 -0.00576441 0)
(-0.00335712 -0.00616367 0)
(-0.00455904 -0.00662383 0)
(-0.00533272 -0.00702372 0)
(-0.00552196 -0.00750288 0)
(-0.00552551 -0.00788569 0)
(-0.00503837 -0.00785794 0)
(-0.005146 -0.00832472 0)
(-0.00642042 -0.00818074 0)
(-0.00726693 -0.00916925 0)
(-0.0113085 -0.00922042 0)
(-0.0146717 -0.0100221 0)
(-0.0200164 -0.0104987 0)
(-0.0284545 -0.0110836 0)
(-0.0325688 -0.0130436 0)
(-0.0322952 -0.0139851 0)
(-0.0158999 -0.0152659 0)
(-0.0811056 -0.0143471 0)
(-0.420714 0.000416807 0)
(-0.340109 0.0402413 0)
(0.349685 -0.0879856 0)
(0.438673 -0.0729102 0)
(0.0983838 -0.0602118 0)
(0.0282975 -0.0684673 0)
(0.040476 -0.0815931 0)
(0.0366949 -0.0923688 0)
(0.0280888 -0.0990363 0)
(0.0176953 -0.104752 0)
(0.00622183 -0.114404 0)
(0.00159557 -0.12266 0)
(-0.00251863 -0.130831 0)
(-0.00626432 -0.142382 0)
(-0.00555499 -0.146865 0)
(-0.00358441 -0.153368 0)
(-0.00207296 -0.156403 0)
(-0.000462459 -0.160084 0)
(0.000172668 -0.162442 0)
(0.000517688 -0.164225 0)
(6.37098e-05 -0.164929 0)
(-0.00105964 -0.160185 0)
(-0.00241701 -0.160667 0)
(-0.00392849 -0.165353 0)
(-0.00482441 -0.164384 0)
(-0.00539783 -0.162764 0)
(-0.00550646 -0.159231 0)
(-0.00515079 -0.156998 0)
(-0.00474566 -0.150575 0)
(-0.00462942 -0.148704 0)
(-0.0058799 -0.138236 0)
(-0.00673425 -0.134958 0)
(-0.0105595 -0.124147 0)
(-0.0143279 -0.118747 0)
(-0.0196981 -0.112111 0)
(-0.0285261 -0.10702 0)
(-0.0320836 -0.103052 0)
(-0.0304062 -0.0949523 0)
(-0.0153066 -0.0849533 0)
(-0.0757347 -0.0795084 0)
(-0.390021 -0.0866331 0)
(-0.315365 -0.101207 0)
(0.384151 -0.325781 0)
(0.487556 -0.451627 0)
(0.105748 -0.395957 0)
(0.0108109 -0.434076 0)
(0.0207913 -0.465136 0)
(0.0216022 -0.490386 0)
(0.016614 -0.508237 0)
(0.00397819 -0.523261 0)
(-0.00935197 -0.532687 0)
(-0.0137858 -0.538841 0)
(-0.0209349 -0.543477 0)
(-0.021103 -0.54579 0)
(-0.0160764 -0.545906 0)
(-0.0127734 -0.547278 0)
(-0.00873817 -0.548507 0)
(-0.00655569 -0.549722 0)
(-0.00414035 -0.550923 0)
(-0.00238378 -0.549676 0)
(0.00323851 -0.550725 0)
(0.00271436 -0.548415 0)
(-0.00697512 -0.547856 0)
(-0.00693935 -0.54929 0)
(-0.00206424 -0.545877 0)
(-0.00036681 -0.546626 0)
(3.51802e-05 -0.541635 0)
(0.00281553 -0.540699 0)
(0.00295346 -0.535358 0)
(0.00674457 -0.533113 0)
(0.00682572 -0.527946 0)
(0.00630906 -0.524431 0)
(0.00431357 -0.51953 0)
(-0.00307314 -0.511689 0)
(-0.0087164 -0.504667 0)
(-0.0197246 -0.493384 0)
(-0.0209398 -0.47925 0)
(-0.0148547 -0.462212 0)
(-0.00101763 -0.437606 0)
(-0.0827243 -0.406147 0)
(-0.441623 -0.457058 0)
(-0.354153 -0.361019 0)
(0.228416 -0.212974 0)
(0.371049 -0.374586 0)
(0.115297 -0.333877 0)
(-0.0383655 -0.364677 0)
(-0.0137865 -0.384909 0)
(-0.00483842 -0.40056 0)
(-0.00359022 -0.412347 0)
(-0.00586541 -0.421526 0)
(-0.00879242 -0.422562 0)
(-0.00880218 -0.420946 0)
(-0.00921465 -0.417391 0)
(-0.00860539 -0.408783 0)
(-0.00698876 -0.404421 0)
(-0.0060912 -0.399353 0)
(-0.0044279 -0.397487 0)
(-0.00279002 -0.39488 0)
(0.000216995 -0.393579 0)
(0.000708734 -0.390358 0)
(0.00127874 -0.39037 0)
(0.00170496 -0.392392 0)
(-0.00325988 -0.391417 0)
(-0.00202176 -0.388536 0)
(-0.00225768 -0.386314 0)