/*--------------------------------*- C++ -*----------------------------------*\
| =========                 |                                                 |
| \\      /  F ield         | OpenFOAM: The Open Source CFD Toolbox           |
|  \\    /   O peration     | Version:  v1912                                 |
|   \\  /    A nd           | Website:  www.openfoam.com                      |
|    \\/     M anipulation  |                                                 |
\*---------------------------------------------------------------------------*/
FoamFile
{
    version     2.0;
    format      ascii;
    class       volScalarField;
    location    "2.24";
    object      rho;
}
// * * * * * * * * * * * * * * * * * * * * * * * * * * * * * * * * * * * * * //

dimensions      [1 -3 0 0 0 0 0];


internalField   nonuniform List<scalar> 
1900
(
17532.6
14863.4
14737.5
14747.5
14780.8
14825.8
14877.4
14935.7
14984.9
15062.1
17532.5
14863.3
14737.4
14747.6
14780.9
14825.3
14875
14926.4
14975.9
15047.1
17532.5
14863.2
14737.4
14747.7
14780.8
14824.8
14875
14929.8
14987.6
15038.9
17532.5
14863.3
14737.4
14747.6
14780.9
14825.3
14875
14926.4
14975.9
15047.1
17532.6
14863.4
14737.5
14747.5
14780.8
14825.8
14877.4
14935.7
14984.9
15062.1
14985.9
15020.1
14971
14765.3
13736.3
15073.4
15105.7
15029.7
14928.4
14464.4
15052.5
15066.6
14977.4
14827.1
14337.7
15073.4
15105.7
15029.7
14928.4
14464.4
14985.9
15020.1
14971
14765.3
13736.3
16193.7
16585.9
17195.1
17775.6
18800.7
16046.8
16563.5
17198.3
17830.2
18158.9
16053.5
16579.9
17193.4
17657.3
17352.6
16046.8
16563.5
17198.3
17830.2
18158.9
16193.7
16585.9
17195.1
17775.6
18800.7
17537.8
9006.82
9028.72
9238.15
9221.68
9289.07
9432.27
9613.79
9873.39
10187.7
10563.8
10984.8
11440.1
11917.2
12404.4
12886
13335.5
13702.4
13922.7
13993.6
13992.7
13914.8
13681.9
13300
12834.9
12336.4
11829.3
11325.5
10831.4
10351.3
9888.81
9447.93
9034.79
8657.47
8321.9
8017.74
7720.51
7461.04
7410.8
43962.2
15931.9
9092.15
9192.23
9266.07
9242.29
9300.19
9437.47
9620.57
9879.57
10193.7
10569.8
10990.8
11446.1
11923.1
12409.5
12890.5
13339.6
13706.2
13926.2
13996.8
13995.9
13917.9
13684.9
13302.8
12837.5
12338.7
11831.3
11327.1
10832.6
10352.2
9889.38
9448.21
9034.82
8657.32
8321.62
8017.38
7720.14
7460.69
7410.47
43961.8
15000.1
9497.21
9281.7
9297.4
9253.71
9304.24
9438.95
9622.37
9881.25
10195.3
10571.3
10992.1
11447.1
11923.6
12410
12891.4
13340.8
13707.6
13927.6
13998.2
13997.3
13919.3
13686.3
13304.1
12838.7
12339.7
11832
11327.6
10832.9
10352.3
9889.38
9448.12
9034.66
8657.1
8321.36
8017.1
7719.86
7460.44
7410.24
43961.4
15931.9
9092.15
9192.23
9266.07
9242.29
9300.19
9437.47
9620.57
9879.57
10193.7
10569.8
10990.8
11446.1
11923.1
12409.5
12890.5
13339.6
13706.2
13926.2
13996.8
13995.9
13917.9
13684.9
13302.8
12837.5
12338.7
11831.3
11327.1
10832.6
10352.2
9889.38
9448.21
9034.82
8657.32
8321.62
8017.38
7720.14
7460.69
7410.47
43961.8
17537.8
9006.82
9028.72
9238.15
9221.68
9289.07
9432.27
9613.79
9873.39
10187.7
10563.8
10984.8
11440.1
11917.2
12404.4
12886
13335.5
13702.4
13922.7
13993.6
13992.7
13914.8
13681.9
13300
12834.9
12336.4
11829.3
11325.5
10831.4
10351.3
9888.81
9447.93
9034.79
8657.47
8321.9
8017.74
7720.51
7461.04
7410.8
43962.2
26490.5
8426.47
8734.94
9046.51
9148.76
9241.51
9391.45
9575.15
9833.95
10147.9
10521.8
10940.3
11392.1
11865.4
12348.7
12827.3
13274.3
13639.5
13859.2
13930.4
13929.7
13852.2
13620.7
13241.2
12779.4
12284.6
11781.7
11282.3
10792.9
10317.4
9859.46
9422.92
9013.82
8640.2
8307.87
8006.59
7711.49
7454.59
7405.97
43959.1
33282.4
7708.49
8336.8
8694.28
8947.84
9107.19
9275.98
9471.92
9730.6
10046.3
10417.3
10831.6
11277.4
11743.6
12219.5
12690.7
13131.1
13491.6
13709.1
13779.8
13779.2
13702.9
13474.6
13100.3
12645
12157.9
11663.2
11172.4
10691.9
10225.5
9776.51
9348.8
8948.2
8582.66
8257.72
7963.37
7673.99
7425.03
7381.64
43927.5
37352.4
7492.08
8024.69
8404.47
8696.03
8882.68
9054.36
9255.63
9510.26
9823.3
10186
10589.1
11021.7
11473.8
11935.4
12392.9
12821.2
13172.4
13385
13454.6
13454.2
13380.4
13158.6
12794.4
12351.5
11877.9
11397.4
10921.4
10455.9
10004.6
9570.72
9157.98
8772.04
8420.6
8108.84
7827.11
7550.41
7318.98
7286.98
43684.5
39775.6
7349.45
7732.9
8106.16
8364.55
8555.78
8730.19
8941.53
9198.09
9508.07
9864.02
10256.4
10675.7
11113.1
11559.2
12001.4
12415.6
12755.5
12961.1
13028.5
13028.2
12957.9
12744.7
12393.1
11964.9
11506.9
11042.4
10582.4
10132.7
9697.18
9278.82
8881.24
8509.89
8172.15
7873.04
7603.34
7342.61
7128.61
7103.82
42882.7
40088.9
7164.16
7432.3
7731.39
7966.23
8167.73
8354.39
8573.75
8835.72
9145.34
9495.64
9878.3
10284.9
10707.7
11138.5
11565.3
11965
12292.6
12490.1
12554.4
12554.3
12488.1
12284.9
11947.4
11535
11093.3
10645.2
10201.4
9767.64
9347.57
8944.21
8560.99
8203.11
7877.53
7589.58
7330.67
7086.53
6883.47
6854.25
41359.3
40308.7
6884.13
7080.62
7347.34
7575.45
7769.66
7962.57
8189.7
8457.13
8766.5
9111.47
9484.67
9878.94
10287.7
10703.6
11115.4
11500.8
11815.8
12004.2
12064.8
12064.7
12003.2
11810.8
11488.2
11091.9
10666.6
10234.8
9807.03
9388.82
8983.81
8594.89
8225.36
7880.02
7565.49
7288.11
7039.85
6810.71
6610.87
6566.94
39275.9
37975.9
6553.09
6724.58
6974.82
7194.8
7378.48
7575.05
7807.41
8078.27
8386.56
8725.67
9089.36
9471.58
9866.86
10268.7
10666.3
11037.7
11339.6
11518.1
11574.3
11574.3
11517.7
11336.9
11029.4
10649.3
10240.3
9824.54
9412.36
9009.33
8618.92
8244.06
7887.56
7554.24
7250.02
6983.24
6745.67
6528.68
6325.8
6262.46
36891.4
35962
6234.09
6381.81
6618.25
6827.99
7001.76
7199.2
7434.13
7707.05
8012.6
8345.38
8699.39
9070.09
9452.7
9841.29
10225.4
10583.1
10871.6
11039.3
11090.7
11090.7
11039.3
10870.3
10578.2
10214.1
9821.08
9420.92
9023.96
8635.61
8259.49
7897.95
7554.37
7232.14
6937.95
6681.9
6454.37
6246.59
6037.17
5954.29
34339.2
33628.4
5913.16
6049.99
6278.72
6475.21
6640.19
6837.4
7074.15
7346.61
7649.42
7974.71
8319.54
8679.21
9049.99
9426.06
9797.06
10141.1
10415.7
10572.1
10618.4
10618.4
10572.2
10415.4
10138.6
9790.41
9412.88
9027.87
8645.59
8271.58
7908.85
7560.96
7228.49
6918.44
6632.72
6387.63
6168.71
5967.95
5751.6
5652.01
31801.8
31060.3
5601.21
5730.6
5949.97
6134.78
6293.64
6492.29
6728.13
7001.94
7298.53
7617.95
7953.08
8302.65
8662.12
9026.2
9384.37
9714.63
9975.02
10119.6
10160.7
10160.7
10119.8
9975.13
9713.76
9381.01
9018.52
8648.1
8280.05
7919.45
7570.51
7233.72
6914.94
6613.23
6338.4
6101.89
5890.54
5694.68
5473.18
5361.19
29175.9
28458.5
5298.87
5423.4
5630.65
5807.34
5964.26
6165.17
6402.84
6671.59
6966.18
7276.26
7603.83
7943.16
8292.04
8644.42
8989.93
9306.36
9552.19
9684.81
9720.78
9720.79
9684.94
9552.45
9306.31
8988.66
8640.65
8284.21
7929.48
7582.32
7244.57
6922.09
6610.79
6323.52
6055.33
5827.69
5623.08
5430.08
5206.63
5086.01
26711.3
25665.8
4999.56
5119.77
5317.6
5494.17
5656.19
5860.5
6095.25
6364.55
6649.24
6955.48
7273.49
7604.37
7942.87
8284.06
8617.15
8919.8
9151
9271.68
9302.74
9302.75
9271.76
9151.23
8920.07
8617
8282.72
7939.27
7597.23
7261.27
6936.54
6621.69
6325.8
6044.04
5787.23
5567.05
5364.83
5173.78
4949.27
4825.74
24195.9
23031.5
4721.8
4839.48
5032.7
5211.53
5378.15
5583.73
5816.82
6078.09
6360.58
6656.99
6968.61
7290.14
7619.29
7949.82
8271.07
8560.34
8777.12
8886.17
8912.65
8912.65
8886.21
8777.27
8560.65
8271.39
7949.75
7618.23
7287.26
6962.91
6647.17
6345.7
6055.59
5787.79
5539.53
5325.49
5129.16
4939.08
4716.82
4590.72
21932.8
20339.4
4448.21
4564.99
4766.5
4948.29
5130.2
5329.94
5565.49
5820.46
6096.5
6388
6691.9
7006.04
7326.26
7647.16
7957.56
8234.27
8437.16
8535.06
8557.33
8557.33
8535.07
8437.23
8234.49
7957.95
7647.59
7326.45
7005.54
6690.11
6384.17
6089.84
5809.7
5550.68
5306.43
5102.43
4902.51
4712
4489
4364.6
19616.4
18090.6
4219.39
4336.19
4543.93
4729.84
4920.45
5122.33
5353.1
5605.42
5875.77
6159.87
6454.97
6758.79
7068.72
7379.21
7678.96
7943.88
8133.77
8221.36
8239.92
8239.92
8221.36
8133.79
7944
7679.26
7379.7
7069.33
6759.35
6455.2
6159.39
5874.15
5601.94
5347.72
5112.75
4908.64
4709.11
4517.45
4296.58
4172.47
17674.6
15911.4
4006.61
4119.6
4330.05
4520.6
4722
4924.33
5160.35
5407.8
5675.89
5954.13
6242.11
6537.08
6836.69
7136.41
7425.37
7678.87
7856.2
7933.93
7949.13
7949.13
7933.92
7856.2
7678.91
7425.54
7136.77
6837.27
6537.86
6242.98
5954.97
5676.44
5407.83
5159.57
4921.95
4718.45
4513.1
4319.09
4101.64
3984.32
15713.8
14266.6
3833.41
3934.15
4137.01
4326.45
4532.82
4736.08
4974.08
5219.9
5486.27
5761.26
6044.82
6333.45
6623.8
6910.59
7183.59
7420.35
7583.37
7652.54
7665.27
7665.27
7652.54
7583.36
7420.35
7183.66
6910.78
6624.17
6334.06
6045.69
5762.4
5487.61
5221.43
4975.62
4737.5
4534.03
4326.55
4135.69
3929.5
3826.07
14177
12556.6
3677.25
3754.31
3939.6
4117.85
4321.28
4520.78
4758.58
5002.5
5270.98
5550.47
5841.65
6138.99
6436.3
6725.03
6992.26
7215.06
7360.13
7416.95
7426.41
7426.41
7416.95
7360.12
7215.05
6992.28
6725.12
6436.52
6139.4
5842.28
5551.37
5272.13
5003.94
4760.19
4522.59
4323.11
4119.44
3940.61
3753.87
3675.44
12539.2
12558.5
3627.87
3683.58
3845.5
4010.31
4207.58
4407.19
4644.27
4892.52
5166.05
5455.96
5761.4
6076.8
6394.37
6701.53
6979.55
7201.09
7336.26
7385.14
7392.58
7392.58
7385.14
7336.25
7201.08
6979.55
6701.58
6394.52
6077.1
5761.88
5456.66
5166.96
4893.69
4645.62
4408.79
4209.3
4012.08
3847.12
3684.39
3627.98
12547.5
110173
12742.1
12770.3
14564.5
16227.1
18361.8
20453.3
22956.4
25406.1
28110.4
30750
33541.3
36228.6
38867.5
41250.1
43162
44347.4
44814.3
44904.9
44911.4
44911.4
44904.9
44814.3
44347.4
43161.9
41250
38867.3
36228.5
33541.2
30750
28110.6
25406.6
22957.3
20454.7
18363.9
16229.8
14567.8
12774.2
12745.6
110180
110173
12742.1
12770.3
14564.5
16227.1
18361.8
20453.3
22956.4
25406.1
28110.4
30750
33541.3
36228.6
38867.5
41250.1
43162
44347.4
44814.3
44904.9
44911.4
44911.4
44904.9
44814.3
44347.4
43161.9
41250
38867.3
36228.5
33541.2
30750
28110.6
25406.6
22957.3
20454.7
18363.9
16229.8
14567.8
12774.2
12745.6
110180
12558.5
3627.87
3683.58
3845.5
4010.31
4207.58
4407.19
4644.27
4892.52
5166.05
5455.96
5761.4
6076.8
6394.37
6701.53
6979.55
7201.09
7336.26
7385.14
7392.58
7392.58
7385.14
7336.25
7201.08
6979.55
6701.58
6394.52
6077.1
5761.88
5456.66
5166.96
4893.69
4645.62
4408.79
4209.3
4012.08
3847.12
3684.39
3627.98
12547.5
12556.6
3677.25
3754.31
3939.6
4117.85
4321.28
4520.78
4758.58
5002.5
5270.98
5550.47
5841.65
6138.99
6436.3
6725.03
6992.26
7215.06
7360.13
7416.95
7426.41
7426.41
7416.95
7360.12
7215.05
6992.28
6725.12
6436.52
6139.4
5842.28
5551.37
5272.13
5003.94
4760.19
4522.59
4323.11
4119.44
3940.61
3753.87
3675.44
12539.2
14266.6
3833.41
3934.15
4137.01
4326.45
4532.82
4736.08
4974.08
5219.9
5486.27
5761.26
6044.82
6333.45
6623.8
6910.59
7183.59
7420.35
7583.37
7652.54
7665.27
7665.27
7652.54
7583.36
7420.35
7183.66
6910.78
6624.17
6334.06
6045.69
5762.4
5487.61
5221.43
4975.62
4737.5
4534.03
4326.55
4135.69
3929.5
3826.07
14177
15911.4
4006.61
4119.6
4330.05
4520.6
4722
4924.33
5160.35
5407.8
5675.89
5954.13
6242.11
6537.08
6836.69
7136.41
7425.37
7678.87
7856.2
7933.93
7949.13
7949.13
7933.92
7856.2
7678.91
7425.54
7136.77
6837.27
6537.86
6242.98
5954.97
5676.44
5407.83
5159.57
4921.95
4718.45
4513.1
4319.09
4101.64
3984.32
15713.8
18090.6
4219.39
4336.19
4543.93
4729.84
4920.45
5122.33
5353.1
5605.42
5875.77
6159.87
6454.97
6758.79
7068.72
7379.21
7678.96
7943.88
8133.77
8221.36
8239.92
8239.92
8221.36
8133.79
7944
7679.26
7379.7
7069.33
6759.35
6455.2
6159.39
5874.15
5601.94
5347.72
5112.75
4908.64
4709.11
4517.45
4296.58
4172.47
17674.6
20339.4
4448.21
4564.99
4766.5
4948.29
5130.2
5329.94
5565.49
5820.46
6096.5
6388
6691.9
7006.04
7326.26
7647.16
7957.56
8234.27
8437.16
8535.06
8557.33
8557.33
8535.07
8437.23
8234.49
7957.95
7647.59
7326.45
7005.54
6690.11
6384.17
6089.84
5809.7
5550.68
5306.43
5102.43
4902.51
4712
4489
4364.6
19616.4
23031.5
4721.8
4839.48
5032.7
5211.53
5378.15
5583.73
5816.82
6078.09
6360.58
6656.99
6968.61
7290.14
7619.29
7949.82
8271.07
8560.34
8777.12
8886.17
8912.65
8912.65
8886.21
8777.27
8560.65
8271.39
7949.75
7618.23
7287.26
6962.91
6647.17
6345.7
6055.59
5787.79
5539.53
5325.49
5129.16
4939.08
4716.82
4590.72
21932.8
25665.8
4999.56
5119.77
5317.6
5494.17
5656.19
5860.5
6095.25
6364.55
6649.24
6955.48
7273.49
7604.37
7942.87
8284.06
8617.15
8919.8
9151
9271.68
9302.74
9302.75
9271.76
9151.23
8920.07
8617
8282.72
7939.27
7597.23
7261.27
6936.54
6621.69
6325.8
6044.04
5787.23
5567.05
5364.83
5173.78
4949.27
4825.74
24195.9
28458.5
5298.87
5423.4
5630.65
5807.34
5964.26
6165.17
6402.84
6671.59
6966.18
7276.26
7603.83
7943.16
8292.04
8644.42
8989.93
9306.36
9552.19
9684.81
9720.78
9720.79
9684.94
9552.45
9306.31
8988.66
8640.65
8284.21
7929.48
7582.32
7244.57
6922.09
6610.79
6323.52
6055.33
5827.69
5623.08
5430.08
5206.63
5086.01
26711.3
31060.3
5601.21
5730.6
5949.97
6134.78
6293.64
6492.29
6728.13
7001.94
7298.53
7617.95
7953.08
8302.65
8662.12
9026.2
9384.37
9714.63
9975.02
10119.6
10160.7
10160.7
10119.8
9975.13
9713.76
9381.01
9018.52
8648.1
8280.05
7919.45
7570.51
7233.72
6914.94
6613.23
6338.4
6101.89
5890.54
5694.68
5473.18
5361.19
29175.9
33628.4
5913.16
6049.99
6278.72
6475.21
6640.19
6837.4
7074.15
7346.61
7649.42
7974.71
8319.54
8679.21
9049.99
9426.06
9797.06
10141.1
10415.7
10572.1
10618.4
10618.4
10572.2
10415.4
10138.6
9790.41
9412.88
9027.87
8645.59
8271.58
7908.85
7560.96
7228.49
6918.44
6632.72
6387.63
6168.71
5967.95
5751.6
5652.01
31801.8
35962
6234.09
6381.81
6618.25
6827.99
7001.76
7199.2
7434.13
7707.05
8012.6
8345.38
8699.39
9070.09
9452.7
9841.29
10225.4
10583.1
10871.6
11039.3
11090.7
11090.7
11039.3
10870.3
10578.2
10214.1
9821.08
9420.92
9023.96
8635.61
8259.49
7897.95
7554.37
7232.14
6937.95
6681.9
6454.37
6246.59
6037.17
5954.29
34339.2
37975.9
6553.09
6724.58
6974.82
7194.8
7378.48
7575.05
7807.41
8078.27
8386.56
8725.67
9089.36
9471.58
9866.86
10268.7
10666.3
11037.7
11339.6
11518.1
11574.3
11574.3
11517.7
11336.9
11029.4
10649.3
10240.3
9824.54
9412.36
9009.33
8618.92
8244.06
7887.56
7554.24
7250.02
6983.24
6745.67
6528.68
6325.8
6262.46
36891.4
40308.7
6884.13
7080.62
7347.34
7575.45
7769.66
7962.57
8189.7
8457.13
8766.5
9111.47
9484.67
9878.94
10287.7
10703.6
11115.4
11500.8
11815.8
12004.2
12064.8
12064.7
12003.2
11810.8
11488.2
11091.9
10666.6
10234.8
9807.03
9388.82
8983.81
8594.89
8225.36
7880.02
7565.49
7288.11
7039.85
6810.71
6610.87
6566.94
39275.9
40088.9
7164.16
7432.3
7731.39
7966.23
8167.73
8354.39
8573.75
8835.72
9145.34
9495.64
9878.3
10284.9
10707.7
11138.5
11565.3
11965
12292.6
12490.1
12554.4
12554.3
12488.1
12284.9
11947.4
11535
11093.3
10645.2
10201.4
9767.64
9347.57
8944.21
8560.99
8203.11
7877.53
7589.58
7330.67
7086.53
6883.47
6854.25
41359.3
39775.6
7349.45
7732.9
8106.16
8364.55
8555.78
8730.19
8941.53
9198.09
9508.07
9864.02
10256.4
10675.7
11113.1
11559.2
12001.4
12415.6
12755.5
12961.1
13028.5
13028.2
12957.9
12744.7
12393.1
11964.9
11506.9
11042.4
10582.4
10132.7
9697.18
9278.82
8881.24
8509.89
8172.15
7873.04
7603.34
7342.61
7128.61
7103.82
42882.7
37352.4
7492.08
8024.69
8404.47
8696.03
8882.68
9054.36
9255.63
9510.26
9823.3
10186
10589.1
11021.7
11473.8
11935.4
12392.9
12821.2
13172.4
13385
13454.6
13454.2
13380.4
13158.6
12794.4
12351.5
11877.9
11397.4
10921.4
10455.9
10004.6
9570.72
9157.98
8772.04
8420.6
8108.84
7827.11
7550.41
7318.98
7286.98
43684.5
33282.4
7708.49
8336.8
8694.28
8947.84
9107.19
9275.98
9471.92
9730.6
10046.3
10417.3
10831.6
11277.4
11743.6
12219.5
12690.7
13131.1
13491.6
13709.1
13779.8
13779.2
13702.9
13474.6
13100.3
12645
12157.9
11663.2
11172.4
10691.9
10225.5
9776.51
9348.8
8948.2
8582.66
8257.72
7963.37
7673.99
7425.03
7381.64
43927.5
26490.5
8426.47
8734.94
9046.51
9148.76
9241.51
9391.45
9575.15
9833.95
10147.9
10521.8
10940.3
11392.1
11865.4
12348.7
12827.3
13274.3
13639.5
13859.2
13930.4
13929.7
13852.2
13620.7
13241.2
12779.4
12284.6
11781.7
11282.3
10792.9
10317.4
9859.46
9422.92
9013.82
8640.2
8307.87
8006.59
7711.49
7454.59
7405.97
43959.1
)
;

boundaryField
{
    inlet
    {
        type            calculated;
        value           uniform 14000.1;
    }
    outlet
    {
        type            calculated;
        value           nonuniform List<scalar> 
165
(
2161.2
2427.24
2432.72
2414.76
2418.06
2415.63
2466.35
2501.77
2543.42
2590.09
2638.15
2693.31
2747.1
2807.5
2857.98
2913.43
2939.45
2932.44
3072.29
3489.07
3489.07
3077.58
2936.02
2943.1
2923.77
2873.62
2830.69
2775.33
2724.54
2667.62
2614.21
2557.68
2504.57
2452.78
2406.63
2370
2347.45
2338.56
2336.81
2336.68
2336.68
2336.81
2338.56
2347.45
2370
2406.63
2452.78
2504.58
2557.69
2614.21
2667.61
2724.52
2775.3
2830.63
2873.53
2923.63
2942.89
2935.78
3077.32
3489.02
2328.58
2329.21
2333.95
2349.51
2379.21
2420.29
2467.88
2519.62
2571.37
2626.45
2678.17
2733.2
2781.84
2834.94
2876.36
2923.9
2944.46
2934.59
3073.6
3489.02
2328.52
2328.52
2328.53
2328.52
2328.52
3489.02
3073.6
2934.59
2944.46
2923.9
2876.36
2834.94
2781.84
2733.2
2678.17
2626.45
2571.37
2519.62
2467.88
2420.29
2379.21
2349.51
2333.95
2329.21
2328.58
3489.07
3077.58
2936.02
2943.1
2923.77
2873.62
2830.69
2775.33
2724.54
2667.62
2614.21
2557.68
2504.57
2452.78
2406.63
2370
2347.45
2338.56
2336.81
2336.68
2336.68
2336.81
2338.56
2347.45
2370
2406.63
2452.78
2504.58
2557.69
2614.21
2667.61
2724.52
2775.3
2830.63
2873.53
2923.63
2942.89
2935.78
3077.32
3489.02
3489.07
3072.29
2932.44
2939.45
2913.43
2857.98
2807.5
2747.1
2693.31
2638.15
2590.09
2543.42
2501.77
2466.35
2415.63
2418.06
2414.76
2432.72
2427.24
2161.2
)
;
    }
    obstacle
    {
        type            calculated;
        value           nonuniform List<scalar> 
40
(
17532.6
14863.4
14737.5
14747.5
14780.8
14825.8
14877.4
14935.7
14984.9
15062.1
17532.6
14863.4
14737.5
14747.5
14780.8
14825.8
14877.4
14935.7
14984.9
15062.1
14985.9
15020.1
14971
14765.3
13736.3
14985.9
15020.1
14971
14765.3
13736.3
16193.7
16585.9
17195.1
17775.6
18800.7
16193.7
16585.9
17195.1
17775.6
18800.7
)
;
    }
    empty
    {
        type            empty;
    }
}


// ************************************************************************* //
