/*--------------------------------*- C++ -*----------------------------------*\
| =========                 |                                                 |
| \\      /  F ield         | OpenFOAM: The Open Source CFD Toolbox           |
|  \\    /   O peration     | Version:  v1912                                 |
|   \\  /    A nd           | Website:  www.openfoam.com                      |
|    \\/     M anipulation  |                                                 |
\*---------------------------------------------------------------------------*/
FoamFile
{
    version     2.0;
    format      ascii;
    class       volTensorField;
    location    "0.84";
    object      grad(U);
}
// * * * * * * * * * * * * * * * * * * * * * * * * * * * * * * * * * * * * * //

dimensions      [0 0 -1 0 0 0 0];


internalField   nonuniform List<tensor> 
1900
(
(4.22537e-10 4.29979e-12 0 7.46308e-14 -8.65971e-16 0 0 0 0)
(3.44959e-08 3.1608e-10 0 5.92013e-11 2.08152e-11 0 0 0 0)
(4.25545e-07 3.47527e-09 0 2.41504e-09 1.34217e-09 0 0 0 0)
(1.28236e-06 9.03386e-09 0 8.92768e-09 1.16753e-08 0 0 0 0)
(1.3322e-06 7.52655e-09 0 -1.00511e-08 1.89789e-08 0 0 0 0)
(-5.27848e-06 -9.06726e-08 0 -2.86511e-08 1.83057e-10 0 0 0 0)
(-0.0005336 -1.36578e-05 0 -7.45872e-07 -5.29682e-07 0 0 0 0)
(-0.00924732 -0.000423056 0 -8.5097e-05 -6.22023e-05 0 0 0 0)
(-0.0483055 -0.00473092 0 -0.00212531 -0.00162105 0 0 0 0)
(-0.123376 -0.025187 0 -0.0171352 -0.0141933 0 0 0 0)
(4.81813e-10 1.65145e-11 0 1.75605e-13 5.62025e-15 0 0 0 0)
(3.69109e-08 1.02609e-09 0 1.10053e-10 -4.30615e-12 0 0 0 0)
(4.34414e-07 8.17923e-09 0 4.29962e-09 -3.16116e-10 0 0 0 0)
(1.26989e-06 8.60286e-09 0 1.43771e-08 -3.47961e-09 0 0 0 0)
(1.29462e-06 -1.90188e-08 0 -1.93239e-08 -9.35005e-09 0 0 0 0)
(-6.0143e-06 -4.57988e-07 0 -5.45121e-08 -1.10061e-08 0 0 0 0)
(-0.000618669 -4.85447e-05 0 -1.96681e-06 8.13228e-08 0 0 0 0)
(-0.0113719 -0.00119746 0 -0.000187688 1.36468e-05 0 0 0 0)
(-0.0653556 -0.00940018 0 -0.00373072 0.000423138 0 0 0 0)
(-0.166545 -0.0343502 0 -0.0239577 0.00474457 0 0 0 0)
(5.32765e-10 -7.42261e-16 0 -7.0464e-15 -2.55078e-14 0 0 0 0)
(3.87953e-08 -4.10787e-14 0 5.91035e-16 -3.30191e-11 0 0 0 0)
(4.39812e-07 -3.89256e-14 0 -1.46819e-13 -2.05253e-09 0 0 0 0)
(1.25874e-06 -7.4098e-14 0 5.49612e-14 -1.63916e-08 0 0 0 0)
(1.26331e-06 3.38249e-14 0 1.91347e-14 -1.92582e-08 0 0 0 0)
(-7.22597e-06 2.02064e-13 0 1.3779e-13 2.16461e-08 0 0 0 0)
(-0.000721234 -9.13336e-14 0 1.3685e-13 8.96719e-07 0 0 0 0)
(-0.0129761 -1.10083e-13 0 -2.01037e-13 9.71111e-05 0 0 0 0)
(-0.0720755 8.62196e-14 0 1.08314e-13 0.00239582 0 0 0 0)
(-0.177646 -1.83747e-14 0 -2.24464e-14 0.0188975 0 0 0 0)
(4.81807e-10 -1.65301e-11 0 -2.21127e-13 -4.66102e-15 0 0 0 0)
(3.69107e-08 -1.02641e-09 0 -1.10015e-10 -4.30179e-12 0 0 0 0)
(4.34414e-07 -8.17931e-09 0 -4.30008e-09 -3.16218e-10 0 0 0 0)
(1.26989e-06 -8.60284e-09 0 -1.43769e-08 -3.47957e-09 0 0 0 0)
(1.29462e-06 1.90188e-08 0 1.93239e-08 -9.35e-09 0 0 0 0)
(-6.0143e-06 4.57989e-07 0 5.45123e-08 -1.10062e-08 0 0 0 0)
(-0.000618669 4.85447e-05 0 1.96681e-06 8.13225e-08 0 0 0 0)
(-0.0113719 0.00119746 0 0.000187688 1.36468e-05 0 0 0 0)
(-0.0653556 0.00940018 0 0.00373072 0.000423138 0 0 0 0)
(-0.166545 0.0343502 0 0.0239577 0.00474457 0 0 0 0)
(4.2253e-10 -4.30719e-12 0 -1.13107e-13 2.54145e-14 0 0 0 0)
(3.44955e-08 -3.16255e-10 0 -5.91639e-11 2.08119e-11 0 0 0 0)
(4.25545e-07 -3.47531e-09 0 -2.41536e-09 1.34269e-09 0 0 0 0)
(1.28236e-06 -9.03386e-09 0 -8.92755e-09 1.16754e-08 0 0 0 0)
(1.3322e-06 -7.52655e-09 0 1.00511e-08 1.89794e-08 0 0 0 0)
(-5.27848e-06 9.06727e-08 0 2.86512e-08 1.83129e-10 0 0 0 0)
(-0.0005336 1.36578e-05 0 7.45872e-07 -5.29682e-07 0 0 0 0)
(-0.00924732 0.000423056 0 8.5097e-05 -6.22023e-05 0 0 0 0)
(-0.0483055 0.00473092 0 0.00212531 -0.00162105 0 0 0 0)
(-0.123376 0.025187 0 0.0171352 -0.0141933 0 0 0 0)
(-0.163783 -0.119866 1.00633e-17 -0.098536 0.0739205 -1.50949e-17 -8.68074e-18 -1.84011e-17 2.72765e-33)
(-0.199953 -0.230371 0 -0.158672 0.150438 0 5.24188e-17 1.17964e-17 0)
(-0.164383 -0.385708 0 -0.214623 0.243424 0 9.38391e-17 2.76385e-17 0)
(-0.379786 -0.358607 0 -0.318138 0.305132 0 0 0 0)
(-0.0827759 -0.606655 -1.28024e-16 -0.98842 1.31276 1.92036e-16 6.88952e-16 4.59301e-16 3.4701e-32)
(-0.238688 -0.0572525 0 -0.0553219 0.0231039 0 -2.64862e-17 -5.04359e-18 0)
(-0.272612 -0.0948943 0 -0.0717107 0.0665032 0 -5.24188e-17 -1.17964e-17 0)
(-0.324204 -0.167896 0 -0.0963772 0.168617 0 -9.38391e-17 -2.76385e-17 0)
(-0.515449 -0.195589 0 -0.264726 0.439091 0 0 0 0)
(-0.463986 -0.0124888 0 -0.325541 0.739526 0 0 0 0)
(-0.256313 -5.24533e-14 0 1.69407e-14 0.0654376 0 0 0 0)
(-0.298196 1.92988e-13 0 2.60797e-14 0.12812 0 0 0 0)
(-0.377004 6.64715e-14 0 1.16702e-13 0.274574 0 0 0 0)
(-0.593419 -1.08727e-13 0 -3.3368e-15 0.601467 0 0 0 0)
(-0.54891 1.11678e-13 0 -1.00031e-13 0.978993 0 0 0 0)
(-0.238688 0.0572525 0 0.0553219 0.0231039 0 -2.64862e-17 5.04359e-18 0)
(-0.272612 0.0948943 0 0.0717107 0.0665032 0 -5.24188e-17 1.17964e-17 0)
(-0.324204 0.167896 0 0.0963772 0.168617 0 -9.38391e-17 2.76385e-17 0)
(-0.515449 0.195589 0 0.264726 0.439091 0 0 0 0)
(-0.463986 0.0124888 0 0.325541 0.739526 0 0 0 0)
(-0.163783 0.119866 -1.00633e-17 0.098536 0.0739205 -1.50949e-17 6.16532e-17 -2.84882e-17 2.72765e-33)
(-0.199953 0.230371 0 0.158672 0.150438 0 5.24188e-17 -1.17964e-17 0)
(-0.164383 0.385708 0 0.214623 0.243424 0 9.38391e-17 -2.76385e-17 0)
(-0.379786 0.358607 -2.00908e-17 0.318138 0.305132 -3.01362e-17 2.83236e-16 -1.88824e-16 5.44563e-33)
(-0.0827759 0.606655 1.28024e-16 0.98842 1.31276 1.92036e-16 -6.88952e-16 4.59301e-16 3.4701e-32)
(-0.0156242 0.239529 1.85766e-18 -0.141696 -0.545641 1.6719e-17 -4.2859e-16 3.07141e-17 -5.03521e-34)
(0.260596 0.0107664 -5.93845e-19 -0.138801 -0.239662 -5.34461e-18 2.97373e-16 -2.53591e-17 -1.60962e-34)
(0.108294 0.0910263 0 0.0256156 -0.0799689 0 0 0 0)
(-0.351058 0.333297 -1.40638e-18 0.391207 0.370815 -1.26574e-17 -1.80576e-16 3.25408e-17 3.812e-34)
(-1.05014 0.229219 3.78503e-18 1.77098 1.32136 3.40653e-17 1.40745e-16 -1.56384e-17 1.02593e-33)
(0.0456519 0.196656 0 -0.156418 -0.113799 0 2.16429e-16 -7.14058e-18 0)
(0.293523 0.00560862 0 -0.164039 -0.181691 0 -1.50777e-16 9.07065e-18 0)
(0.276888 0.0896573 0 0.0453761 -0.189487 0 0 0 0)
(0.351616 0.383998 0 0.569839 -0.387558 0 1.01206e-16 -2.43998e-17 0)
(0.818161 0.206426 0 2.54007 -0.825183 0 -2.72766e-18 7.64539e-18 0)
(0.0505463 3.69641e-15 0 -3.83304e-14 -0.246595 0 0 0 0)
(0.325751 -5.35742e-14 0 -1.30313e-13 -0.238984 0 0 0 0)
(0.376229 1.01032e-13 0 1.8572e-14 -0.254234 0 0 0 0)
(0.713866 1.40008e-13 0 3.72473e-13 -0.676188 0 -3.36176e-17 9.90066e-30 0)
(1.2503 1.47747e-13 0 7.33303e-13 -2.03087 0 5.45531e-18 -1.03856e-29 0)
(0.0456519 -0.196656 0 0.156418 -0.113799 0 2.16429e-16 7.14058e-18 0)
(0.293523 -0.00560862 0 0.164039 -0.181691 0 -1.50777e-16 -9.07065e-18 0)
(0.276888 -0.0896573 0 -0.0453761 -0.189487 0 0 0 0)
(0.351616 -0.383998 0 -0.569839 -0.387558 0 1.01206e-16 2.43998e-17 0)
(0.818161 -0.206426 0 -2.54007 -0.825183 0 -2.72766e-18 -7.64539e-18 0)
(-0.0156242 -0.239529 0 0.141696 -0.545641 0 -2.16429e-16 -7.14058e-18 0)
(0.260596 -0.0107664 5.93845e-19 0.138801 -0.239662 -5.34461e-18 4.18023e-18 -7.21784e-18 -1.60962e-34)
(0.108294 -0.0910263 0 -0.0256156 -0.0799689 0 0 0 0)
(-0.351058 -0.333297 1.40638e-18 -0.391207 0.370815 -1.26574e-17 1.17819e-17 -1.11677e-17 3.812e-34)
(-1.05014 -0.229219 -3.78503e-18 -1.77098 1.32136 3.40653e-17 -1.40745e-16 -1.56384e-17 1.02593e-33)
(-0.022417 -0.727427 0 8.81514 -0.00494054 0 0 0 0)
(0.569793 -0.536732 0 3.73404 0.548101 0 0 0 0)
(-0.264387 0.341054 0 1.44237 0.557232 0 0 0 0)
(0.0607477 0.345132 0 0.387018 0.306143 0 0 0 0)
(0.330996 0.132234 0 0.0297022 0.119659 0 0 0 0)
(0.414405 0.0439525 0 -0.00289278 0.0458835 0 0 0 0)
(0.361316 0.00767672 0 0.00242946 0.0157573 0 0 0 0)
(0.222312 0.00224045 0 0.00259037 0.00338538 0 0 0 0)
(0.0805445 0.000452918 0 0.000460704 0.000346163 0 0 0 0)
(0.0132854 2.87005e-05 0 1.35164e-05 9.54084e-06 0 0 0 0)
(0.000678315 -5.79027e-07 0 -5.24215e-08 5.54697e-08 0 0 0 0)
(6.98254e-06 -1.55526e-08 0 -4.82977e-10 2.86814e-11 0 0 0 0)
(9.86961e-09 -6.17356e-11 0 -2.28777e-13 1.45748e-14 0 0 0 0)
(1.36316e-12 -4.7633e-14 0 -1.09827e-15 1.44638e-15 0 0 0 0)
(1.16944e-15 1.39256e-16 0 -9.27032e-17 9.78823e-16 0 0 0 0)
(-8.21223e-17 -3.29684e-16 0 5.72157e-16 2.2743e-15 0 0 0 0)
(-8.36034e-16 9.64724e-17 0 4.04276e-16 1.4141e-15 0 0 0 0)
(-4.15914e-16 9.08518e-16 0 -2.94402e-16 2.52001e-15 0 0 0 0)
(3.37548e-16 1.93784e-16 0 -1.33538e-15 6.02963e-15 0 0 0 0)
(6.22375e-16 -4.64745e-16 0 8.50478e-17 4.08543e-15 0 0 0 0)
(1.1299e-16 -3.17939e-16 0 4.90568e-16 1.92447e-15 0 0 0 0)
(-1.13439e-16 2.31534e-16 0 1.25888e-15 4.98672e-15 0 0 0 0)
(-1.02346e-15 2.47137e-15 0 2.88218e-16 3.77875e-15 0 0 0 0)
(-2.79216e-16 -4.4629e-16 0 -2.22123e-15 6.90665e-15 0 0 0 0)
(1.36827e-15 -1.93616e-15 0 -1.68358e-15 5.3196e-15 0 0 0 0)
(1.07643e-15 -3.35556e-18 0 3.78667e-16 -8.11217e-16 0 0 0 0)
(1.67619e-12 -1.09307e-15 0 8.5509e-16 -5.44021e-15 0 0 0 0)
(1.19937e-08 1.49728e-13 0 -5.43397e-15 2.29977e-14 0 0 0 0)
(8.46135e-06 -6.61785e-14 0 2.8031e-13 4.13174e-13 0 0 0 0)
(0.000818856 -1.61454e-14 0 -5.04643e-13 -5.35458e-14 0 0 0 0)
(0.0159476 -2.51262e-13 0 2.54468e-13 3.81874e-14 0 0 0 0)
(0.0964686 1.23184e-13 0 -5.18369e-13 -3.45598e-13 0 0 0 0)
(0.269137 3.25238e-14 0 4.35283e-13 -6.71835e-13 0 0 0 0)
(0.457161 1.81947e-14 0 -1.43903e-13 5.82989e-13 0 0 0 0)
(0.579781 1.6111e-13 0 0 -1.11853e-13 0 0 0 0)
(0.630806 -1.06657e-13 0 4.73106e-14 1.90795e-14 0 0 0 0)
(0.613601 2.01625e-13 0 2.95692e-14 -8.3351e-14 0 0 0 0)
(0.618905 -6.33516e-14 0 -1.18277e-14 -2.99565e-13 0 0 0 0)
(2.68266 -3.85332e-14 0 5.32245e-14 -3.25821e-13 0 0 0 0)
(2.35698 -6.67437e-14 0 3.35117e-13 -1.48824e-13 0 0 0 0)
(0.456805 -0.638285 0 6.66517 -0.499739 0 0 0 0)
(-0.659554 -0.474003 0 3.3644 1.65487 0 0 0 0)
(-0.902799 0.264607 0 1.29571 1.34528 0 0 0 0)
(-0.213493 0.227236 0 0.309852 0.482497 0 0 0 0)
(0.258727 0.0770244 0 -0.0114315 0.158887 0 0 0 0)
(0.416007 0.0245222 0 -0.0225538 0.0279436 0 0 0 0)
(0.36567 0.00310003 0 -0.00324257 0.00780015 0 0 0 0)
(0.22293 0.000527287 0 0.000887011 0.00155491 0 0 0 0)
(0.080331 0.000125105 0 0.000153546 9.86044e-05 0 0 0 0)
(0.0132487 5.77108e-06 0 4.69335e-07 -1.99062e-06 0 0 0 0)
(0.000678137 -4.30997e-07 0 -1.02681e-07 -5.34622e-08 0 0 0 0)
(7.00275e-06 -1.45375e-08 0 -4.00486e-10 -2.12192e-10 0 0 0 0)
(9.95292e-09 -3.95487e-11 0 -1.66353e-13 -3.18575e-13 0 0 0 0)
(1.41434e-12 -2.8982e-14 0 -1.16786e-15 6.17685e-15 0 0 0 0)
(1.20969e-15 -4.94945e-17 0 -3.78959e-16 -1.2371e-15 0 0 0 0)
(1.00539e-16 8.3889e-19 0 3.04811e-16 1.63217e-15 0 0 0 0)
(-7.70868e-16 1.45128e-16 0 3.68159e-16 7.20921e-16 0 0 0 0)
(-7.40854e-16 1.46386e-15 0 7.33305e-16 1.81095e-15 0 0 0 0)
(2.9139e-16 5.33534e-16 0 4.41261e-16 2.50592e-15 0 0 0 0)
(8.76667e-16 -1.06623e-15 0 -1.13179e-15 4.26209e-15 0 0 0 0)
(4.02067e-16 4.18606e-16 0 2.35076e-16 2.11951e-15 0 0 0 0)
(-1.19695e-16 9.42913e-16 0 9.96536e-16 8.61645e-15 0 0 0 0)
(-1.67689e-15 1.6761e-15 0 -2.42554e-16 5.49631e-15 0 0 0 0)
(-7.23337e-16 -2.68445e-17 0 -4.60878e-16 -1.47068e-16 0 0 0 0)
(1.74068e-15 -3.11899e-15 0 -2.3355e-15 7.32745e-15 0 0 0 0)
(1.4306e-15 -2.6316e-15 0 -2.59476e-15 3.06824e-15 0 0 0 0)
(1.67173e-12 7.69598e-15 0 1.18459e-15 -3.0048e-15 0 0 0 0)
(1.19938e-08 2.26758e-13 0 7.49395e-15 1.25723e-13 0 0 0 0)
(8.46135e-06 -1.02008e-13 0 4.40254e-13 8.68105e-14 0 0 0 0)
(0.000818856 -1.30085e-13 0 -6.59029e-13 -1.21891e-13 0 0 0 0)
(0.0159476 -2.77459e-13 0 2.88945e-13 -3.72206e-13 0 0 0 0)
(0.0964686 9.86909e-14 0 -5.35017e-13 -4.35822e-14 0 0 0 0)
(0.269137 2.00479e-13 0 5.7475e-13 -4.08871e-13 0 0 0 0)
(0.457161 3.7347e-14 0 -1.72487e-15 6.81633e-13 0 0 0 0)
(0.579781 5.3921e-14 0 -7.68798e-14 -5.8251e-13 0 0 0 0)
(0.630806 -1.18054e-13 0 8.47649e-14 2.60065e-13 0 0 0 0)
(0.613601 1.40994e-13 0 5.42101e-14 -3.27772e-13 0 0 0 0)
(0.618905 -1.45386e-13 0 -4.92819e-14 -3.42341e-13 0 0 0 0)
(2.68266 -7.29288e-14 0 -1.00535e-13 -4.62107e-13 0 0 0 0)
(2.35698 -1.76186e-14 0 1.37989e-13 -6.11665e-13 0 0 0 0)
(0.523057 4.39024e-14 0 1.21283e-12 -1.52427 0 0 0 0)
(-0.992232 -2.13838e-13 0 8.57505e-13 2.37089 0 0 0 0)
(-1.15298 -1.32951e-13 0 8.20051e-13 1.7345 0 0 0 0)
(-0.319513 1.41595e-13 0 7.19516e-13 0.551713 0 0 0 0)
(0.234296 2.32702e-13 0 3.81442e-13 0.172255 0 0 0 0)
(0.416787 3.71296e-14 0 8.03295e-14 0.0221699 0 0 0 0)
(0.368135 -3.6168e-13 0 -3.06287e-13 0.00366467 0 0 0 0)
(0.2233 -8.87928e-14 0 1.81111e-14 0.000857133 0 0 0 0)
(0.0802866 2.76915e-13 0 6.0586e-14 3.95762e-05 0 0 0 0)
(0.0132407 -9.63058e-14 0 -1.38007e-13 -2.96338e-06 0 0 0 0)
(0.000678178 -1.18592e-13 0 -4.62435e-14 -9.99457e-08 0 0 0 0)
(7.01241e-06 -3.40765e-14 0 -1.62676e-13 -2.71829e-10 0 0 0 0)
(9.98612e-09 -5.23468e-15 0 1.09097e-13 -2.58179e-13 0 0 0 0)
(1.41145e-12 4.46835e-14 0 -1.44894e-16 6.60076e-15 0 0 0 0)
(1.59785e-15 -1.18284e-15 0 -9.81606e-17 1.19673e-15 0 0 0 0)
(1.35221e-16 2.39923e-16 0 -6.28104e-16 4.6139e-17 0 0 0 0)
(-7.11381e-16 1.48484e-16 0 -3.55875e-16 0 0 0 0 0)
(-3.94648e-16 1.42779e-15 0 4.82137e-16 -4.52739e-16 0 0 0 0)
(-2.05023e-16 9.06841e-16 0 2.24219e-15 -3.35373e-15 0 0 0 0)
(5.62393e-16 -5.77157e-16 0 -8.70005e-16 -9.80453e-16 0 0 0 0)
(7.32138e-16 9.48785e-16 0 -1.12554e-16 -2.88369e-16 0 0 0 0)
(-2.52385e-16 1.21387e-15 0 5.44836e-16 -1.81095e-15 0 0 0 0)
(-1.44743e-15 -7.80168e-17 0 -3.30958e-16 -4.05735e-15 0 0 0 0)
(-8.88073e-16 8.64057e-17 0 5.72992e-16 -7.66772e-15 0 0 0 0)
(7.47504e-16 -1.0008e-15 0 -2.58901e-16 2.10509e-16 0 0 0 0)
(2.10045e-15 -3.0091e-15 0 -2.23807e-15 7.22075e-15 0 0 0 0)
(1.67912e-12 3.45883e-14 0 -7.45413e-16 3.61037e-15 0 0 0 0)
(1.19938e-08 1.75856e-13 0 1.015e-13 1.41704e-14 0 0 0 0)
(8.46135e-06 -1.38212e-13 0 2.79177e-13 -5.9694e-13 0 0 0 0)
(0.000818856 -1.49678e-13 0 -4.39043e-13 3.68504e-13 0 0 0 0)
(0.0159476 -2.28481e-13 0 2.04703e-14 -6.63867e-13 0 0 0 0)
(0.0964686 1.12518e-13 0 -2.63874e-13 6.12358e-14 0 0 0 0)
(0.269137 2.43496e-13 0 5.65387e-13 -3.3588e-13 0 0 0 0)
(0.457161 -3.23185e-14 0 -2.03534e-13 4.09749e-13 0 0 0 0)
(0.579781 3.84722e-14 0 -6.75162e-14 -6.5435e-13 0 0 0 0)
(0.630806 -3.25518e-14 0 1.99099e-13 4.29027e-13 0 0 0 0)
(0.613601 2.63794e-14 0 -4.92819e-14 -2.38721e-13 0 0 0 0)
(0.618905 -1.02431e-13 0 -5.51957e-14 -2.80051e-13 0 0 0 0)
(2.68266 -1.16882e-13 0 -1.18277e-13 9.43413e-15 0 0 0 0)
(2.35698 -1.10251e-13 0 -4.10026e-13 -5.63816e-14 0 0 0 0)
(0.456805 0.638285 0 -6.66517 -0.499739 0 0 0 0)
(-0.659554 0.474003 0 -3.3644 1.65487 0 0 0 0)
(-0.902799 -0.264607 0 -1.29571 1.34528 0 0 0 0)
(-0.213493 -0.227236 0 -0.309852 0.482497 0 0 0 0)
(0.258727 -0.0770244 0 0.0114315 0.158887 0 0 0 0)
(0.416007 -0.0245222 0 0.0225538 0.0279436 0 0 0 0)
(0.36567 -0.00310003 0 0.00324257 0.00780015 0 0 0 0)
(0.22293 -0.000527287 0 -0.000887011 0.00155491 0 0 0 0)
(0.080331 -0.000125105 0 -0.000153546 9.86044e-05 0 0 0 0)
(0.0132487 -5.77108e-06 0 -4.69336e-07 -1.99062e-06 0 0 0 0)
(0.000678137 4.30997e-07 0 1.02681e-07 -5.34621e-08 0 0 0 0)
(7.00275e-06 1.45375e-08 0 4.00349e-10 -2.12086e-10 0 0 0 0)
(9.95297e-09 3.95307e-11 0 2.03341e-13 1.38091e-13 0 0 0 0)
(1.38257e-12 4.64729e-14 0 1.9867e-15 -1.89747e-15 0 0 0 0)
(1.06912e-15 -1.95629e-15 0 -2.10977e-17 3.46331e-15 0 0 0 0)
(2.55678e-17 -3.47301e-16 0 -2.11911e-15 0 0 0 0 0)
(-4.47888e-16 0 0 -1.01334e-15 0 0 0 0 0)
(1.49469e-17 4.88234e-16 0 9.33881e-17 -5.10412e-16 0 0 0 0)
(-1.01961e-16 3.80017e-16 0 1.18199e-15 -5.85965e-15 0 0 0 0)
(1.91651e-16 -1.74489e-16 0 7.11645e-16 -4.60525e-15 0 0 0 0)
(8.13657e-16 1.77006e-16 0 -7.91834e-16 -2.92406e-15 0 0 0 0)
(-1.83231e-16 -1.53517e-16 0 -1.15759e-15 -7.64465e-15 0 0 0 0)
(-1.6687e-15 -2.76834e-17 0 5.45145e-17 -1.23825e-14 0 0 0 0)
(-7.02375e-16 1.21471e-15 0 1.66675e-15 -8.05125e-15 0 0 0 0)
(9.22919e-16 1.2122e-15 0 2.05828e-15 -6.05574e-15 0 0 0 0)
(1.28907e-15 -1.64255e-15 0 3.53138e-16 8.56455e-16 0 0 0 0)
(1.70191e-12 9.71771e-15 0 -3.47675e-15 2.95001e-15 0 0 0 0)
(1.19939e-08 5.20523e-14 0 3.74215e-14 -2.30825e-13 0 0 0 0)
(8.46135e-06 1.07045e-15 0 1.27234e-13 -6.52022e-13 0 0 0 0)
(0.000818856 -1.49554e-13 0 8.29562e-14 6.94448e-13 0 0 0 0)
(0.0159476 -3.66846e-13 0 -4.70666e-13 -7.05875e-13 0 0 0 0)
(0.0964686 1.94105e-13 0 -1.89289e-13 3.57677e-14 0 0 0 0)
(0.269137 3.01865e-13 0 5.17091e-13 -4.61771e-13 0 0 0 0)
(0.457161 -5.5299e-14 0 -2.93227e-13 5.42416e-13 0 0 0 0)
(0.579781 5.95291e-14 0 4.38609e-14 -2.3919e-13 0 0 0 0)
(0.630806 2.85672e-15 0 3.21318e-13 2.65541e-13 0 0 0 0)
(0.613601 -6.52834e-14 0 -1.0842e-13 -4.87349e-13 0 0 0 0)
(0.618905 -7.31956e-14 0 -1.32076e-13 -1.91793e-13 0 0 0 0)
(2.68266 -7.86122e-15 0 -1.49817e-13 -2.80005e-13 0 0 0 0)
(2.35698 -3.6765e-14 0 -4.21853e-13 2.5223e-13 0 0 0 0)
(-0.022417 0.727427 0 -8.81514 -0.00494054 0 0 0 0)
(0.569793 0.536732 0 -3.73404 0.548101 0 0 0 0)
(-0.264387 -0.341054 0 -1.44237 0.557232 0 0 0 0)
(0.0607477 -0.345132 0 -0.387018 0.306143 0 0 0 0)
(0.330996 -0.132234 0 -0.0297022 0.119659 0 0 0 0)
(0.414405 -0.0439525 0 0.00289278 0.0458835 0 0 0 0)
(0.361316 -0.00767672 0 -0.00242946 0.0157573 0 0 0 0)
(0.222312 -0.00224045 0 -0.00259037 0.00338538 0 0 0 0)
(0.0805445 -0.000452918 0 -0.000460704 0.000346163 0 0 0 0)
(0.0132854 -2.87005e-05 0 -1.35164e-05 9.54084e-06 0 0 0 0)
(0.000678315 5.79026e-07 0 5.24216e-08 5.54699e-08 0 0 0 0)
(6.98254e-06 1.55526e-08 0 4.83006e-10 2.8701e-11 0 0 0 0)
(9.86965e-09 6.16919e-11 0 1.3638e-13 1.80551e-13 0 0 0 0)
(1.35229e-12 5.51906e-15 0 1.61937e-15 -6.01693e-15 0 0 0 0)
(4.03432e-16 -6.30846e-16 0 2.90168e-17 9.02136e-16 0 0 0 0)
(-1.5343e-16 -7.67585e-16 0 -1.39453e-15 4.90938e-16 0 0 0 0)
(-6.77459e-17 0 0 -5.2212e-16 0 0 0 0 0)
(2.43991e-16 -2.76834e-16 0 1.37235e-16 -3.22985e-18 0 0 0 0)
(-2.51668e-17 -2.84384e-16 0 -6.58809e-17 -2.53298e-15 0 0 0 0)
(-1.18087e-17 2.76834e-16 0 5.53169e-16 -1.69607e-15 0 0 0 0)
(1.88359e-16 6.45946e-17 0 -6.37261e-16 -1.0785e-15 0 0 0 0)
(-6.17503e-18 -1.53769e-15 0 -1.88975e-15 -2.77087e-15 0 0 0 0)
(-6.25804e-16 -1.963e-16 0 -6.05107e-17 -4.68562e-15 0 0 0 0)
(-3.0516e-16 1.92693e-15 0 2.38877e-15 -3.72511e-15 0 0 0 0)
(3.65363e-16 1.59054e-15 0 1.93422e-15 -4.25595e-15 0 0 0 0)
(4.90263e-16 -3.89245e-16 0 4.70583e-17 -3.2827e-15 0 0 0 0)
(1.68991e-12 -3.28098e-14 0 -1.92816e-15 4.62871e-16 0 0 0 0)
(1.19939e-08 -1.46814e-14 0 -6.17021e-14 -9.66185e-14 0 0 0 0)
(8.46135e-06 1.30959e-13 0 6.80457e-14 -3.02598e-13 0 0 0 0)
(0.000818856 -1.65344e-13 0 3.62349e-13 4.87169e-13 0 0 0 0)
(0.0159476 -4.20098e-13 0 -5.90417e-13 -1.41992e-13 0 0 0 0)
(0.0964686 1.8353e-13 0 -1.24714e-13 1.67387e-13 0 0 0 0)
(0.269137 3.90884e-13 0 3.60744e-13 -3.88586e-13 0 0 0 0)
(0.457161 3.24323e-14 0 -2.03288e-13 7.5989e-13 0 0 0 0)
(0.579781 -4.20732e-14 0 7.68798e-14 -6.44308e-14 0 0 0 0)
(0.630806 -1.04743e-13 0 1.47846e-13 1.83806e-13 0 0 0 0)
(0.613601 -1.06663e-13 0 -1.18277e-14 -4.1158e-13 0 0 0 0)
(0.618905 -4.21125e-14 0 -6.70234e-14 -8.54972e-14 0 0 0 0)
(2.68266 1.22887e-14 0 -1.0842e-13 -1.25252e-13 0 0 0 0)
(2.35698 4.45807e-14 0 -1.34047e-13 8.51611e-14 0 0 0 0)
(2.24471 0.843839 0 -4.25825 0.0904965 0 0 0 0)
(2.54375 0.754108 0 -1.70125 -0.0869839 0 0 0 0)
(0.458531 -0.32799 0 -0.776006 -0.0318031 0 0 0 0)
(0.355542 -0.365396 0 -0.283982 0.0873675 0 0 0 0)
(0.419748 -0.176443 0 -0.102508 0.0603393 0 0 0 0)
(0.434967 -0.0672305 0 -0.0435677 0.0421397 0 0 0 0)
(0.367266 -0.0244661 0 -0.0175179 0.0152115 0 0 0 0)
(0.224879 -0.00821343 0 -0.00581217 0.00367503 0 0 0 0)
(0.0817006 -0.00186364 0 -0.000945331 0.000467283 0 0 0 0)
(0.0134954 -0.000196363 0 -4.23806e-05 2.01421e-05 0 0 0 0)
(0.000686409 -5.72485e-06 0 -2.90512e-07 1.69237e-07 0 0 0 0)
(6.99323e-06 -2.14308e-08 0 -1.38845e-10 2.48225e-10 0 0 0 0)
(9.74633e-09 -4.10043e-12 0 -2.90413e-14 3.48116e-14 0 0 0 0)
(1.33206e-12 -1.88631e-14 0 4.80284e-16 -1.02076e-15 0 0 0 0)
(-5.17126e-17 5.93365e-16 0 1.89412e-16 -5.40751e-16 0 0 0 0)
(-1.13179e-16 -4.27233e-16 0 -4.76837e-16 1.13008e-15 0 0 0 0)
(7.34077e-17 -3.09978e-16 0 1.72336e-16 3.858e-16 0 0 0 0)
(3.63007e-17 -2.16022e-16 0 -4.34433e-16 -1.1274e-18 0 0 0 0)
(7.01509e-17 8.63582e-17 0 -1.94181e-16 5.34782e-16 0 0 0 0)
(6.84903e-17 2.16022e-16 0 -7.96311e-18 1.24535e-15 0 0 0 0)
(4.28331e-18 -3.67212e-16 0 6.38264e-17 2.30481e-16 0 0 0 0)
(-2.61719e-17 -8.15718e-16 0 -2.97558e-16 1.92975e-16 0 0 0 0)
(-1.90755e-16 -4.31285e-16 0 8.08047e-18 1.76672e-15 0 0 0 0)
(8.95851e-17 6.60729e-16 0 2.84543e-16 4.4639e-17 0 0 0 0)
(9.86967e-17 1.05225e-15 0 5.8867e-16 -8.81023e-16 0 0 0 0)
(-2.10077e-16 -1.3169e-16 0 -2.43009e-16 -1.68417e-15 0 0 0 0)
(1.67705e-12 3.43154e-16 0 -1.26493e-16 -2.90405e-16 0 0 0 0)
(1.19939e-08 -6.08886e-14 0 -3.99424e-15 4.69885e-14 0 0 0 0)
(8.46135e-06 2.17082e-13 0 -1.36544e-13 -1.14006e-13 0 0 0 0)
(0.000818856 -3.05535e-14 0 4.41985e-13 -1.1201e-14 0 0 0 0)
(0.0159476 -5.05864e-13 0 -4.09371e-13 2.11388e-13 0 0 0 0)
(0.0964686 5.16512e-14 0 -1.88136e-13 -3.2025e-14 0 0 0 0)
(0.269137 5.70597e-13 0 3.41775e-13 -1.21387e-13 0 0 0 0)
(0.457161 4.65955e-14 0 -2.12749e-14 4.02345e-13 0 0 0 0)
(0.579781 -1.84355e-13 0 8.8819e-14 -2.78576e-13 0 0 0 0)
(0.630806 -9.04879e-14 0 -3.89792e-14 1.91606e-13 0 0 0 0)
(0.613601 -1.86364e-13 0 -6.21882e-14 7.50951e-14 0 0 0 0)
(0.618905 7.04702e-14 0 5.35592e-15 7.53802e-15 0 0 0 0)
(2.68266 7.58897e-14 0 -7.31976e-14 2.13765e-13 0 0 0 0)
(2.35698 1.16544e-15 0 4.76082e-15 1.98081e-13 0 0 0 0)
(2.44539 0.339383 0 -0.637926 0.41803 0 0 0 0)
(2.86691 0.302316 0 -0.464385 -0.338527 0 0 0 0)
(0.713696 -0.180048 0 -0.382761 -0.237613 0 0 0 0)
(0.551676 -0.245474 0 -0.229066 -0.06865 0 0 0 0)
(0.515076 -0.152111 0 -0.127316 -0.00453334 0 0 0 0)
(0.485279 -0.0749568 0 -0.0665698 0.00758866 0 0 0 0)
(0.394508 -0.0357396 0 -0.0285576 0.00422865 0 0 0 0)
(0.236906 -0.0132456 0 -0.00894644 0.00135049 0 0 0 0)
(0.0854845 -0.00321843 0 -0.00145398 0.000224026 0 0 0 0)
(0.0140835 -0.000388922 0 -7.70677e-05 1.25885e-05 0 0 0 0)
(0.000714814 -1.54501e-05 0 -8.31186e-07 1.46314e-07 0 0 0 0)
(7.25675e-06 -1.27698e-07 0 -1.22954e-09 2.11273e-10 0 0 0 0)
(1.00696e-08 -1.42227e-10 0 -1.81773e-13 -7.42691e-15 0 0 0 0)
(1.3913e-12 -1.54733e-14 0 3.81083e-16 9.9919e-16 0 0 0 0)
(-2.74821e-16 7.85328e-16 0 -2.91144e-16 -1.31666e-16 0 0 0 0)
(-1.9147e-16 -5.72345e-17 0 -1.5521e-16 -3.02228e-17 0 0 0 0)
(-1.02575e-16 -9.23856e-16 0 -7.27837e-17 4.79885e-16 0 0 0 0)
(2.17251e-18 -1.65879e-16 0 -4.40199e-16 1.93951e-16 0 0 0 0)
(3.34682e-16 7.17964e-16 0 -2.49556e-16 2.24174e-16 0 0 0 0)
(1.93758e-16 1.6208e-17 0 1.85409e-18 1.48486e-16 0 0 0 0)
(8.00319e-18 -7.17964e-16 0 9.58699e-17 1.98209e-31 0 0 0 0)
(-4.91709e-17 -4.44454e-16 0 6.01755e-18 3.35604e-16 0 0 0 0)
(-2.98158e-16 -2.13236e-16 0 1.88502e-17 1.28434e-15 0 0 0 0)
(4.26433e-17 5.44487e-17 0 2.1153e-17 8.18117e-16 0 0 0 0)
(-9.20186e-21 2.13236e-16 0 -1.05783e-16 3.35078e-16 0 0 0 0)
(1.7665e-16 4.17862e-17 0 -4.64084e-17 -4.24958e-16 0 0 0 0)
(1.69319e-12 -3.68479e-15 0 5.99553e-16 6.94598e-16 0 0 0 0)
(1.19937e-08 -9.94839e-14 0 -8.54082e-15 -1.38315e-15 0 0 0 0)
(8.46135e-06 2.87032e-14 0 -1.98323e-13 -2.46008e-14 0 0 0 0)
(0.000818856 7.59385e-14 0 2.55786e-13 -2.46876e-13 0 0 0 0)
(0.0159476 -3.94173e-13 0 -1.64569e-13 1.92875e-14 0 0 0 0)
(0.0964686 -6.64259e-14 0 -3.04386e-13 1.12232e-13 0 0 0 0)
(0.269137 7.13092e-13 0 3.23959e-13 -3.10129e-15 0 0 0 0)
(0.457161 -1.26636e-13 0 7.69914e-14 3.24134e-14 0 0 0 0)
(0.579781 -1.68853e-13 0 6.05517e-14 -2.85249e-13 0 0 0 0)
(0.630806 2.28423e-13 0 5.44519e-14 1.45768e-13 0 0 0 0)
(0.613601 -2.413e-13 0 -2.97551e-16 2.2521e-13 0 0 0 0)
(0.618905 3.1144e-14 0 3.57061e-15 8.15061e-14 0 0 0 0)
(2.68266 1.61798e-13 0 1.23781e-13 1.0137e-13 0 0 0 0)
(2.35698 5.2748e-14 0 1.54727e-14 2.65866e-13 0 0 0 0)
(2.41194 0.114794 0 -0.025388 0.039875 0 0 0 0)
(2.78964 0.122307 0 -0.0871275 -0.271032 0 0 0 0)
(0.685293 -0.0679266 0 -0.165532 -0.22529 0 0 0 0)
(0.601698 -0.140792 0 -0.156351 -0.117423 0 0 0 0)
(0.576335 -0.102976 0 -0.10367 -0.048018 0 0 0 0)
(0.530134 -0.0587872 0 -0.0589281 -0.0195398 0 0 0 0)
(0.422794 -0.0304775 0 -0.0271703 -0.00643116 0 0 0 0)
(0.250997 -0.0120724 0 -0.00892062 -0.00142143 0 0 0 0)
(0.0902475 -0.0031529 0 -0.00153015 -0.000157693 0 0 0 0)
(0.0148957 -0.000412102 0 -8.74317e-05 -5.68989e-06 0 0 0 0)
(0.000760673 -1.78554e-05 0 -1.03548e-06 -4.15051e-08 0 0 0 0)
(7.79419e-06 -1.62424e-07 0 -1.68231e-09 -3.44915e-11 0 0 0 0)
(1.09312e-08 -2.0769e-10 0 -2.37516e-13 -7.46318e-15 0 0 0 0)
(1.50694e-12 -1.18331e-14 0 6.15244e-17 9.14567e-17 0 0 0 0)
(-5.68503e-16 -3.98615e-16 0 -3.57656e-16 -4.45194e-16 0 0 0 0)
(9.72409e-17 1.6208e-16 0 -4.60511e-17 -1.29511e-15 0 0 0 0)
(-2.01219e-16 -9.39557e-17 0 1.84891e-16 -9.50834e-16 0 0 0 0)
(-1.34043e-16 -4.62434e-16 0 2.14681e-16 -1.91849e-16 0 0 0 0)
(4.9613e-16 4.2546e-17 0 5.16147e-17 -2.13662e-16 0 0 0 0)
(4.01355e-16 2.97313e-30 0 9.26003e-17 -7.45057e-16 0 0 0 0)
(8.29537e-18 -1.86898e-16 0 2.22658e-16 -2.30481e-16 0 0 0 0)
(-1.00391e-16 4.21914e-16 0 8.6124e-18 1.32139e-31 0 0 0 0)
(-1.7617e-16 3.36822e-17 0 3.30574e-17 4.37047e-16 0 0 0 0)
(-3.05159e-17 -2.5401e-16 0 5.08416e-17 2.21283e-16 0 0 0 0)
(3.35921e-17 -1.45619e-16 0 -8.10294e-17 2.09457e-16 0 0 0 0)
(4.6961e-16 2.14756e-16 0 2.2967e-16 4.00254e-16 0 0 0 0)
(1.66886e-12 -5.80196e-16 0 2.7842e-16 1.80022e-16 0 0 0 0)
(1.19937e-08 -8.52642e-14 0 3.03117e-15 2.04038e-14 0 0 0 0)
(8.46135e-06 -1.94846e-14 0 -2.05616e-13 6.63305e-14 0 0 0 0)
(0.000818856 1.17389e-14 0 1.93166e-13 1.20003e-13 0 0 0 0)
(0.0159476 -1.59815e-13 0 -1.43965e-13 -6.49263e-14 0 0 0 0)
(0.0964686 3.00765e-14 0 -7.55687e-14 6.05322e-13 0 0 0 0)
(0.269137 4.93681e-13 0 2.28371e-13 -3.47063e-14 0 0 0 0)
(0.457161 -2.25292e-13 0 1.3122e-13 -6.92542e-15 0 0 0 0)
(0.579781 -7.51226e-14 0 -5.29641e-14 1.17125e-14 0 0 0 0)
(0.630806 4.01409e-13 0 8.39094e-14 6.45876e-14 0 0 0 0)
(0.613601 -2.48289e-13 0 7.49829e-14 1.4034e-13 0 0 0 0)
(0.618905 -4.88664e-14 0 -2.49943e-14 -1.62408e-14 0 0 0 0)
(2.68266 2.53545e-13 0 1.1902e-13 5.81445e-14 0 0 0 0)
(2.35698 1.5968e-13 0 3.68963e-14 3.42132e-14 0 0 0 0)
(2.38589 0.0397815 0 0.0221442 -0.0422262 0 0 0 0)
(2.73187 0.0467938 0 -0.0260452 -0.16232 0 0 0 0)
(0.64699 -0.0320247 0 -0.0733089 -0.170059 0 0 0 0)
(0.611289 -0.0746485 0 -0.0864083 -0.108718 0 0 0 0)
(0.608956 -0.0577868 0 -0.0625108 -0.0563776 0 0 0 0)
(0.558997 -0.0348822 0 -0.0370845 -0.0268751 0 0 0 0)
(0.442697 -0.0182801 0 -0.0176666 -0.010168 0 0 0 0)
(0.261614 -0.00720027 0 -0.0058771 -0.00265207 0 0 0 0)
(0.0939965 -0.00185417 0 -0.00100765 -0.000355959 0 0 0 0)
(0.015557 -0.000237004 0 -5.70334e-05 -1.59267e-05 0 0 0 0)
(0.000799065 -9.96714e-06 0 -6.67254e-07 -1.49212e-07 0 0 0 0)
(8.25458e-06 -8.77024e-08 0 -1.07831e-09 -1.95529e-10 0 0 0 0)
(1.16907e-08 -1.0899e-10 0 -1.5979e-13 -6.79644e-15 0 0 0 0)
(1.61984e-12 -8.71053e-15 0 -1.50078e-16 -7.03007e-16 0 0 0 0)
(-3.78485e-16 -5.50819e-16 0 -2.53953e-16 -5.9184e-16 0 0 0 0)
(3.31348e-16 -5.44487e-16 0 1.2393e-16 -9.30598e-16 0 0 0 0)
(1.48676e-16 1.39287e-16 0 2.23721e-16 -6.43088e-16 0 0 0 0)
(-1.26257e-16 5.44487e-16 0 6.51738e-16 -1.91849e-16 0 0 0 0)
(2.17041e-16 1.84872e-16 0 1.49781e-16 0 0 0 0 0)
(3.58581e-16 0 0 1.82237e-16 -2.36e-16 0 0 0 0)
(-7.29306e-17 0 0 2.53613e-16 0 0 0 0 0)
(-2.31877e-16 1.98801e-16 0 7.83725e-18 -4.2049e-17 0 0 0 0)
(-2.57465e-16 5.08736e-30 0 3.49191e-17 -7.47947e-16 0 0 0 0)
(-6.7295e-17 -1.64866e-16 0 -1.32451e-16 -2.60178e-17 0 0 0 0)
(1.72316e-16 3.857e-16 0 -2.64051e-17 1.07751e-17 0 0 0 0)
(5.23029e-16 1.34222e-17 0 -3.311e-17 6.56228e-16 0 0 0 0)
(1.69589e-12 1.55913e-14 0 -5.13411e-17 -2.25225e-16 0 0 0 0)
(1.19935e-08 -3.57389e-14 0 3.50082e-14 -7.30366e-15 0 0 0 0)
(8.46135e-06 1.24681e-13 0 -1.47421e-13 9.99674e-14 0 0 0 0)
(0.000818856 -5.05453e-14 0 4.55676e-13 2.64214e-13 0 0 0 0)
(0.0159476 7.34976e-14 0 -3.99254e-13 4.63795e-14 0 0 0 0)
(0.0964686 -3.73048e-14 0 2.98723e-13 4.83729e-13 0 0 0 0)
(0.269137 1.23108e-13 0 -6.91807e-14 -4.5429e-13 0 0 0 0)
(0.457161 -8.19048e-14 0 2.18998e-13 -1.37117e-14 0 0 0 0)
(0.579781 -9.99408e-14 0 -1.71092e-13 6.19675e-14 0 0 0 0)
(0.630806 3.52372e-13 0 8.18266e-14 -5.54849e-14 0 0 0 0)
(0.613601 -3.19189e-13 0 4.01694e-14 -1.2589e-14 0 0 0 0)
(0.618905 -4.80622e-14 0 2.97551e-15 -1.92048e-13 0 0 0 0)
(2.68266 2.10417e-13 0 -1.67819e-13 -1.02044e-14 0 0 0 0)
(2.35698 2.96869e-14 0 1.54727e-14 -1.38065e-13 0 0 0 0)
(2.3655 -0.000932825 0 0.0177223 -0.0542733 0 0 0 0)
(2.69766 -0.000877418 0 -0.0101118 -0.100814 0 0 0 0)
(0.627125 -0.0162745 0 -0.0299309 -0.109564 0 0 0 0)
(0.612104 -0.031245 0 -0.038098 -0.0731904 0 0 0 0)
(0.623865 -0.0241091 0 -0.0282409 -0.0400643 0 0 0 0)
(0.573348 -0.0142579 0 -0.0167658 -0.0192699 0 0 0 0)
(0.452866 -0.00713523 0 -0.00788057 -0.0072136 0 0 0 0)
(0.26705 -0.00261723 0 -0.00250742 -0.00183704 0 0 0 0)
(0.0958559 -0.000612609 0 -0.000398246 -0.000237486 0 0 0 0)
(0.015866 -6.92305e-05 0 -2.04258e-05 -1.01299e-05 0 0 0 0)
(0.000815632 -2.50808e-06 0 -2.15626e-07 -9.01073e-08 0 0 0 0)
(8.43718e-06 -1.8638e-08 0 -3.1818e-10 -1.12707e-10 0 0 0 0)
(1.19703e-08 -1.92714e-11 0 -5.31922e-14 -9.36984e-15 0 0 0 0)
(1.66068e-12 -5.85413e-15 0 1.87427e-17 -3.2115e-16 0 0 0 0)
(-3.0446e-16 -6.1793e-16 0 9.64717e-17 2.75947e-16 0 0 0 0)
(5.57546e-16 1.12696e-16 0 2.33015e-16 3.26143e-16 0 0 0 0)
(3.07397e-16 6.1793e-16 0 -1.78824e-16 5.65034e-16 0 0 0 0)
(-2.05295e-16 1.57268e-16 0 3.59298e-16 1.91849e-16 0 0 0 0)
(4.37009e-17 0 0 -5.13692e-17 0 0 0 0 0)
(5.01411e-16 0 0 1.34186e-16 -2.9776e-16 0 0 0 0)
(-1.59762e-16 0 0 -4.23295e-16 0 0 0 0 0)
(-3.11132e-16 -2.98835e-16 0 -1.27217e-16 -2.9776e-16 0 0 0 0)
(-3.11356e-16 4.91305e-17 0 2.78606e-16 -6.12339e-16 0 0 0 0)
(-8.96102e-17 4.77123e-16 0 2.52169e-16 -2.97497e-16 0 0 0 0)
(1.29321e-16 5.11818e-16 0 2.10403e-16 -1.98682e-16 0 0 0 0)
(4.45581e-16 -1.26625e-17 0 -1.68307e-16 -8.62531e-16 0 0 0 0)