/*--------------------------------*- C++ -*----------------------------------*\
| =========                 |                                                 |
| \\      /  F ield         | OpenFOAM: The Open Source CFD Toolbox           |
|  \\    /   O peration     | Version:  v1912                                 |
|   \\  /    A nd           | Website:  www.openfoam.com                      |
|    \\/     M anipulation  |                                                 |
\*---------------------------------------------------------------------------*/
FoamFile
{
    version     2.0;
    format      ascii;
    class       volVectorField;
    location    "0.84";
    object      grad(T);
}
// * * * * * * * * * * * * * * * * * * * * * * * * * * * * * * * * * * * * * //

dimensions      [0 -1 0 1 0 0 0];


internalField   nonuniform List<vector> 
1900
(
(-1.69463e-10 2.1684e-15 0)
(-1.38311e-08 -2.33646e-11 0)
(-1.70772e-07 -9.12896e-10 0)
(-5.15492e-07 -2.73328e-09 0)
(-5.37647e-07 7.38218e-09 0)
(2.11318e-06 1.92557e-08 0)
(0.000215282 3.00491e-07 0)
(0.00376089 3.16697e-05 0)
(0.0203908 0.000762624 0)
(0.0426008 0.0055247 0)
(-1.92823e-10 -3.90313e-14 0)
(-1.4744e-08 -4.34331e-11 0)
(-1.73482e-07 -1.66207e-09 0)
(-5.07197e-07 -4.66245e-09 0)
(-5.15658e-07 1.39351e-08 0)
(2.40629e-06 3.28199e-08 0)
(0.000246933 7.87017e-07 0)
(0.00452321 7.2293e-05 0)
(0.0258838 0.00140562 0)
(0.0640611 0.00796564 0)
(-2.12937e-10 1.95156e-14 0)
(-1.54931e-08 -1.30104e-14 0)
(-1.75391e-07 -4.14165e-13 0)
(-4.99895e-07 -8.23994e-14 0)
(-5.00165e-07 8.34836e-13 0)
(2.88626e-06 8.65193e-13 0)
(0.000287542 -1.23599e-13 0)
(0.00516573 -2.32019e-13 0)
(0.0282842 -2.60209e-13 0)
(0.0657104 -1.56125e-13 0)
(-1.92819e-10 9.1073e-14 0)
(-1.47444e-08 4.33854e-11 0)
(-1.73482e-07 1.66209e-09 0)
(-5.07196e-07 4.66248e-09 0)
(-5.15657e-07 -1.39342e-08 0)
(2.40629e-06 -3.28192e-08 0)
(0.000246933 -7.87016e-07 0)
(0.00452321 -7.2293e-05 0)
(0.0258838 -0.00140562 0)
(0.0640611 -0.00796564 0)
(-1.69459e-10 3.03577e-14 0)
(-1.38312e-08 2.3332e-11 0)
(-1.70772e-07 9.13323e-10 0)
(-5.15492e-07 2.73339e-09 0)
(-5.37646e-07 -7.38211e-09 0)
(2.11318e-06 -1.92559e-08 0)
(0.000215282 -3.00491e-07 0)
(0.00376089 -3.16697e-05 0)
(0.0203908 -0.000762624 0)
(0.0426008 -0.0055247 0)
(0.056927 0.0203674 9.88278e-16)
(0.06167 0.0321277 -1.2072e-15)
(0.0579929 0.0436498 -1.53551e-15)
(0.00313932 0.0398792 0)
(0.0603213 0.155182 -6.57183e-15)
(0.0831341 0.0228928 9.91958e-16)
(0.074783 0.0303392 1.2072e-15)
(0.048974 0.0368121 1.53551e-15)
(0.0263096 0.0311168 0)
(0.0516841 0.147985 0)
(0.0850034 -8.44578e-14 0)
(0.0770523 2.85316e-14 0)
(0.0627467 1.95759e-13 0)
(0.0465993 2.38196e-13 0)
(0.119704 3.54947e-13 0)
(0.0831341 -0.0228928 9.91958e-16)
(0.074783 -0.0303392 1.2072e-15)
(0.048974 -0.0368121 1.53551e-15)
(0.0263096 -0.0311168 0)
(0.0516841 -0.147985 0)
(0.056927 -0.0203674 -2.97219e-15)
(0.06167 -0.0321277 -1.2072e-15)
(0.0579929 -0.0436498 -1.53551e-15)
(0.00313932 -0.0398792 -4.19784e-15)
(0.0603213 -0.155182 6.57183e-15)
(0.18457 -0.0819124 2.87445e-15)
(0.0191951 -0.00628594 -2.4334e-15)
(-0.0140138 -0.00105419 0)
(-0.0770828 0.0469306 1.85868e-15)
(-0.446263 0.034204 -8.24076e-16)
(0.131132 -0.0848269 -1.43599e-15)
(0.0380767 -0.00338272 1.2166e-15)
(0.0062605 -0.00139801 0)
(-0.0628758 0.0581695 -1.163e-15)
(-0.218693 0.0131047 2.06375e-16)
(0.139797 2.13555e-13 0)
(0.0390303 8.80335e-14 0)
(0.00996576 7.62957e-14 0)
(-0.0752341 1.09837e-13 4.659e-16)
(-0.237615 -5.70633e-14 -4.12751e-16)
(0.131132 0.0848269 -1.43599e-15)
(0.0380767 0.00338272 1.2166e-15)
(0.0062605 0.00139801 0)
(-0.0628758 -0.0581695 -1.163e-15)
(-0.218693 -0.0131047 2.06375e-16)
(0.18457 0.0819124 1.43599e-15)
(0.0191951 0.00628594 1.89312e-19)
(-0.0140138 0.00105419 0)
(-0.0770828 -0.0469306 1.4134e-18)
(-0.446263 -0.034204 8.24076e-16)
(-0.701193 1.55901 0)
(-0.215624 0.844272 0)
(0.149981 0.272008 0)
(0.132213 0.0109607 0)
(0.159452 0.0120173 0)
(0.164482 0.00222781 0)
(0.145276 0.00388801 0)
(0.0887055 0.00163082 0)
(0.0320836 0.000234507 0)
(0.00529185 6.61966e-06 0)
(0.000270716 -1.15997e-08 0)
(2.79482e-06 -1.71261e-10 0)
(3.95512e-09 -1.02506e-13 0)
(5.79555e-13 0 0)
(1.97128e-15 -3.94255e-15 0)
(-1.97128e-15 0 0)
(0 0 0)
(1.97128e-15 0 0)
(9.85638e-16 -1.18277e-14 0)
(-2.95692e-15 7.88511e-15 0)
(0 -3.94255e-15 0)
(0 3.94255e-15 0)
(1.97128e-15 0 0)
(9.85638e-16 -1.18277e-14 0)
(-2.95692e-15 7.88511e-15 0)
(0 -3.94255e-15 0)
(-6.65306e-13 0 0)
(-4.80292e-09 -7.49085e-14 0)
(-3.38486e-06 -5.12532e-14 0)
(-0.000326729 2.24726e-13 0)
(-0.00634638 -1.57702e-13 0)
(-0.0383409 2.20783e-13 0)
(-0.106532 -1.89243e-13 0)
(-0.177804 1.18277e-14 0)
(-0.215627 7.49085e-14 0)
(-0.227304 -2.36553e-14 0)
(-0.294679 1.93185e-13 0)
(-0.564837 2.68094e-13 0)
(-0.370325 3.43002e-13 0)
(0.015098 2.52323e-13 0)
(-0.535408 0.634322 0)
(-0.36555 0.77247 0)
(0.0129337 0.184097 0)
(0.0898935 -0.00970621 0)
(0.160648 0.00400653 0)
(0.16397 -0.0016287 0)
(0.145963 0.00163214 0)
(0.0883572 0.000744583 0)
(0.0319107 8.40826e-05 0)
(0.00527202 5.43817e-07 0)
(0.000270594 -3.0552e-08 0)
(2.80066e-06 -1.39003e-10 0)
(3.98123e-09 -3.15404e-14 0)
(5.91383e-13 0 0)
(0 3.94255e-15 0)
(0 0 0)
(0 0 0)
(0 0 0)
(1.97128e-15 -3.94255e-15 0)
(0 -7.88511e-15 0)
(0 0 0)
(0 0 0)
(-1.97128e-15 0 0)
(1.97128e-15 -3.94255e-15 0)
(0 -7.88511e-15 0)
(-1.97128e-15 3.94255e-15 0)
(-6.86004e-13 0 0)
(-4.80292e-09 -1.41932e-13 0)
(-3.38486e-06 1.02506e-13 0)
(-0.000326729 3.23289e-13 0)
(-0.00634638 -9.85638e-14 0)
(-0.0383409 1.57702e-13 0)
(-0.106532 -3.8637e-13 0)
(-0.177804 -1.81357e-13 0)
(-0.215627 1.30104e-13 0)
(-0.227304 -1.93185e-13 0)
(-0.294679 2.08955e-13 0)
(-0.564837 2.52323e-13 0)
(-0.370325 1.02506e-13 0)
(0.015098 -4.33681e-14 0)
(-0.440796 2.36553e-14 0)
(-0.346599 2.20783e-13 0)
(-0.0775612 -7.49085e-14 0)
(0.0798231 -4.33681e-13 0)
(0.161801 -3.94255e-14 0)
(0.163791 1.853e-13 0)
(0.145966 -2.56266e-13 0)
(0.0882552 -5.91383e-14 0)
(0.0318671 2.20783e-13 0)
(0.00526738 1.6953e-13 0)
(0.000270557 -5.12532e-14 0)
(2.80371e-06 -1.57702e-14 0)
(3.99555e-09 3.94255e-14 0)
(5.90397e-13 0 0)
(1.97128e-15 0 0)
(-1.97128e-15 0 0)
(0 0 0)
(0 0 0)
(0 0 0)
(0 -3.94255e-15 0)
(0 0 0)
(0 -3.94255e-15 0)
(0 -3.94255e-15 0)
(0 0 0)
(1.97128e-15 -3.94255e-15 0)
(0 0 0)
(-7.08674e-13 0 0)
(-4.80289e-09 -1.97128e-14 0)
(-3.38486e-06 6.70234e-14 0)
(-0.000326729 -8.27936e-14 0)
(-0.00634638 -1.26162e-13 0)
(-0.0383409 2.36553e-14 0)
(-0.106532 -3.3906e-13 0)
(-0.177804 -2.91749e-13 0)
(-0.215627 -2.32611e-13 0)
(-0.227304 -2.36553e-13 0)
(-0.294679 1.34047e-13 0)
(-0.564837 3.94255e-15 0)
(-0.370325 -2.36553e-13 0)
(0.015098 -3.78485e-13 0)
(-0.535408 -0.634322 0)
(-0.36555 -0.77247 0)
(0.0129337 -0.184097 0)
(0.0898935 0.00970621 0)
(0.160648 -0.00400653 0)
(0.16397 0.0016287 0)
(0.145963 -0.00163214 0)
(0.0883572 -0.000744583 0)
(0.0319107 -8.40826e-05 0)
(0.00527202 -5.43817e-07 0)
(0.000270594 3.0552e-08 0)
(2.80066e-06 1.38991e-10 0)
(3.98124e-09 5.51957e-14 0)
(5.7857e-13 0 0)
(0 -3.94255e-15 0)
(0 0 0)
(0 0 0)
(0 0 0)
(0 0 0)
(0 0 0)
(0 0 0)
(-1.97128e-15 0 0)
(0 -3.94255e-15 0)
(1.97128e-15 0 0)
(0 0 0)
(0 -3.94255e-15 0)
(-6.92904e-13 0 0)
(-4.8029e-09 1.06449e-13 0)
(-3.38486e-06 -1.853e-13 0)
(-0.000326729 -3.98198e-13 0)
(-0.00634638 -1.14334e-13 0)
(-0.0383409 -1.45874e-13 0)
(-0.106532 -3.11462e-13 0)
(-0.177804 -4.17911e-13 0)
(-0.215627 -5.08589e-13 0)
(-0.227304 -1.14334e-13 0)
(-0.294679 0 0)
(-0.564837 -1.97128e-13 0)
(-0.370325 -3.8637e-13 0)
(0.015098 -3.58772e-13 0)
(-0.701193 -1.55901 0)
(-0.215624 -0.844272 0)
(0.149981 -0.272008 0)
(0.132213 -0.0109607 0)
(0.159452 -0.0120173 0)
(0.164482 -0.00222781 0)
(0.145276 -0.00388801 0)
(0.0887055 -0.00163082 0)
(0.0320836 -0.000234507 0)
(0.00529185 -6.61966e-06 0)
(0.000270716 1.15998e-08 0)
(2.79482e-06 1.71268e-10 0)
(3.95512e-09 6.30809e-14 0)
(5.73642e-13 0 0)
(0 0 0)
(0 0 0)
(0 0 0)
(0 0 0)
(0 0 0)
(1.97128e-15 3.94255e-15 0)
(-1.97128e-15 0 0)
(0 0 0)
(0 7.88511e-15 0)
(0 0 0)
(1.97128e-15 3.94255e-15 0)
(-1.97128e-15 0 0)
(-6.75162e-13 0 0)
(-4.80294e-09 6.70234e-14 0)
(-3.38486e-06 -1.34047e-13 0)
(-0.000326729 -9.46213e-14 0)
(-0.00634638 1.57702e-13 0)
(-0.0383409 -6.30809e-14 0)
(-0.106532 -3.706e-13 0)
(-0.177804 -2.32611e-13 0)
(-0.215627 -2.20783e-13 0)
(-0.227304 0 0)
(-0.294679 -1.10391e-13 0)
(-0.564837 -1.77415e-13 0)
(-0.370325 -3.03577e-13 0)
(0.015098 -1.93185e-13 0)
(0.0117387 -1.12906 0)
(0.268401 -0.560078 0)
(0.377187 -0.18972 0)
(0.204046 -0.0425747 0)
(0.167509 -0.0245825 0)
(0.168478 -0.0125883 0)
(0.147131 -0.00702241 0)
(0.0902462 -0.00250675 0)
(0.0327297 -0.000403378 0)
(0.0053962 -1.79222e-05 0)
(0.000274605 -1.20017e-07 0)
(2.80013e-06 -5.63788e-11 0)
(3.90401e-09 -2.14237e-14 0)
(5.43924e-13 0 0)
(0 0 0)
(0 1.1902e-15 0)
(0 0 0)
(0 0 0)
(0 0 0)
(0 -1.1902e-15 0)
(0 0 0)
(0 0 0)
(0 0 0)
(0 0 0)
(0 -1.1902e-15 0)
(0 0 0)
(-6.71275e-13 1.1902e-15 0)
(-4.80292e-09 -4.76082e-14 0)
(-3.38486e-06 6.90319e-14 0)
(-0.000326729 8.92654e-14 0)
(-0.00634638 4.10621e-13 0)
(-0.0383409 1.26162e-13 0)
(-0.106532 -4.23713e-13 0)
(-0.177804 -4.87984e-14 0)
(-0.215627 6.18906e-14 0)
(-0.227304 1.38064e-13 0)
(-0.294679 0 0)
(-0.564837 -6.78417e-14 0)
(-0.370325 -8.80752e-14 0)
(0.015098 -8.09339e-14 0)
(0.06271 -0.245886 0)
(0.430013 -0.234566 0)
(0.526831 -0.0998411 0)
(0.252826 -0.0486699 0)
(0.184027 -0.032444 0)
(0.17926 -0.0187044 0)
(0.153996 -0.00943406 0)
(0.0942577 -0.00321391 0)
(0.0341354 -0.000547097 0)
(0.00562449 -2.98311e-05 0)
(0.000285901 -3.28267e-07 0)
(2.90763e-06 -4.89573e-10 0)
(4.03686e-09 -7.85535e-14 0)
(6.11765e-13 0 0)
(0 0 0)
(0 -1.1902e-15 0)
(0 0 0)
(0 0 0)
(0 0 0)
(0 0 0)
(0 0 0)
(0 0 0)
(0 0 0)
(0 0 0)
(0 1.1902e-15 0)
(1.1902e-15 0 0)
(-7.22454e-13 0 0)
(-4.80289e-09 -1.90433e-14 0)
(-3.38486e-06 6.90319e-14 0)
(-0.000326729 -6.07004e-14 0)
(-0.00634638 1.80911e-13 0)
(-0.0383409 5.35592e-14 0)
(-0.106532 -3.73724e-13 0)
(-0.177804 -4.16572e-14 0)
(-0.215627 9.2836e-14 0)
(-0.227304 1.58297e-13 0)
(-0.294679 1.23781e-13 0)
(-0.564837 6.07004e-14 0)
(-0.370325 3.57061e-14 0)
(0.015098 2.61845e-14 0)
(0.0226474 -0.0115384 0)
(0.409135 -0.0809211 0)
(0.556322 -0.0584244 0)
(0.268993 -0.0445355 0)
(0.196385 -0.0325534 0)
(0.190651 -0.0193162 0)
(0.162058 -0.00939908 0)
(0.09881 -0.00321851 0)
(0.035798 -0.000572213 0)
(0.00592309 -3.36086e-05 0)
(0.00030335 -4.05045e-07 0)
(3.11646e-06 -6.6436e-10 0)
(4.37578e-09 -3.68963e-14 0)
(6.20097e-13 0 0)
(0 0 0)
(0 0 0)
(0 0 0)
(0 0 0)
(0 0 0)
(0 0 0)
(0 0 0)
(0 0 0)
(0 0 0)
(0 0 0)
(0 -1.1902e-15 0)
(1.1902e-15 1.1902e-15 0)
(-6.90319e-13 -1.1902e-15 0)
(-4.80285e-09 -1.30923e-14 0)
(-3.38486e-06 1.07118e-14 0)
(-0.000326729 -1.79721e-13 0)
(-0.00634638 2.38041e-15 0)
(-0.0383409 -9.75968e-14 0)
(-0.106532 -1.44015e-13 0)
(-0.177804 2.26139e-14 0)
(-0.215627 7.14123e-14 0)
(-0.227304 6.90319e-14 0)
(-0.294679 1.38064e-13 0)
(-0.564837 1.69009e-13 0)
(-0.370325 8.92654e-14 0)
(0.015098 6.90319e-14 0)
(-0.00414969 -0.0056891 0)
(0.384832 -0.0450143 0)
(0.561893 -0.0447131 0)
(0.277757 -0.0387838 0)
(0.208329 -0.0271714 0)
(0.201573 -0.0154897 0)
(0.169508 -0.00712251 0)
(0.102764 -0.00232586 0)
(0.0372045 -0.000398067 0)
(0.00617551 -2.2685e-05 0)
(0.000318287 -2.66918e-07 0)
(3.29794e-06 -4.32019e-10 0)
(4.67706e-09 -4.99886e-14 0)
(6.46281e-13 0 0)
(0 0 0)
(0 0 0)
(0 -1.1902e-15 0)
(0 0 0)
(0 0 0)
(0 -1.1902e-15 0)
(0 0 0)
(0 0 0)
(0 0 0)
(0 0 0)
(0 0 0)
(0 -1.1902e-15 0)
(-7.35547e-13 0 0)
(-4.80288e-09 -5.11788e-14 0)
(-3.38486e-06 -2.02335e-14 0)
(-0.000326729 -1.23781e-13 0)
(-0.00634638 1.53536e-13 0)
(-0.0383409 -1.11879e-13 0)
(-0.106532 1.32113e-13 0)
(-0.177804 -7.14123e-14 0)
(-0.215627 9.52164e-15 0)
(-0.227304 -3.45159e-14 0)
(-0.294679 8.33143e-14 0)
(-0.564837 9.8787e-14 0)
(-0.370325 3.33257e-14 0)
(0.015098 -3.57061e-15 0)
(-0.0152478 -0.0149895 0)
(0.37153 -0.0284947 0)
(0.562326 -0.0321214 0)
(0.285896 -0.0265967 0)
(0.218832 -0.0171287 0)
(0.209971 -0.00910877 0)
(0.174744 -0.00386029 0)
(0.10529 -0.00114092 0)
(0.0380174 -0.000173297 0)
(0.00630642 -8.68949e-06 0)
(0.00032521 -9.05435e-08 0)
(3.37367e-06 -1.31993e-10 0)
(4.79209e-09 -2.73747e-14 0)
(6.66515e-13 0 0)
(0 0 0)
(-1.1902e-15 0 0)
(0 0 0)
(1.1902e-15 0 0)
(-1.1902e-15 0 0)
(0 0 0)
(1.1902e-15 0 0)
(0 0 0)
(0 0 0)
(0 0 0)
(0 0 0)
(0 0 0)
(-7.39117e-13 0 0)
(-4.80287e-09 5.59396e-14 0)
(-3.38486e-06 3.92768e-14 0)
(-0.000326729 1.42825e-14 0)
(-0.00634638 2.57084e-13 0)
(-0.0383409 4.87984e-14 0)
(-0.106532 2.02335e-13 0)
(-0.177804 -1.97574e-13 0)
(-0.215627 -2.85649e-14 0)
(-0.227304 -3.92768e-14 0)
(-0.294679 5.2369e-14 0)
(-0.564837 -4.76082e-15 0)
(-0.370325 -1.42825e-14 0)
(0.015098 -2.97551e-14 0)
(-0.0171637 -0.0140573 0)
(0.368323 -0.0144609 0)
(0.563722 -0.0159108 0)
(0.292204 -0.0120344 0)
(0.225181 -0.00707043 0)
(0.214359 -0.00346045 0)
(0.177186 -0.00131621 0)
(0.106317 -0.00033498 0)
(0.0382955 -4.1383e-05 0)
(0.00634242 -1.57952e-06 0)
(0.00032666 -1.16835e-08 0)
(3.38519e-06 -1.13665e-11 0)
(4.80425e-09 -1.1902e-15 0)
(6.72466e-13 0 0)
(0 0 0)
(0 0 0)
(0 1.1902e-15 0)
(0 0 0)
(0 0 0)
(0 1.1902e-15 0)
(0 0 0)
(0 0 0)
(0 0 0)
(0 0 0)
(0 0 0)
(0 0 0)
(-6.81987e-13 0 0)
(-4.80284e-09 -1.42825e-14 0)
(-3.38486e-06 1.90433e-14 0)
(-0.000326729 -2.02335e-14 0)
(-0.00634638 -1.07118e-14 0)
(-0.0383409 1.91623e-13 0)
(-0.106532 2.309e-13 0)
(-0.177804 -1.07118e-13 0)
(-0.215627 4.52278e-14 0)
(-0.227304 -1.78531e-14 0)
(-0.294679 2.14237e-14 0)
(-0.564837 -1.07118e-14 0)
(-0.370325 1.66629e-14 0)
(0.015098 2.49943e-14 0)
(-0.0156368 -0.00614722 0)
(0.369744 -0.00403412 0)
(0.564664 -0.0041028 0)
(0.294415 -0.00288369 0)
(0.227094 -0.0015419 0)
(0.215516 -0.000687045 0)
(0.177755 -0.000227865 0)
(0.106518 -4.71432e-05 0)
(0.0383387 -4.11289e-06 0)
(0.00634629 -7.2023e-08 0)
(0.000326732 3.26311e-10 0)
(3.38493e-06 -6.64967e-12 0)
(4.80304e-09 -8.07673e-12 0)
(6.68895e-13 -8.05769e-12 0)
(0 -8.08506e-12 0)
(0 -8.10291e-12 0)
(0 -8.08625e-12 0)
(0 -8.09815e-12 0)
(0 -8.11363e-12 0)
(0 -8.1291e-12 0)
(0 -8.13743e-12 0)
(0 -8.11958e-12 0)
(0 -8.08625e-12 0)
(0 -8.09577e-12 0)
(0 -8.08387e-12 0)
(0 -8.11244e-12 0)
(-7.52209e-13 -8.1291e-12 0)
(-4.80285e-09 -8.09339e-12 0)
(-3.38486e-06 -8.23622e-12 0)
(-0.000326729 -8.01722e-12 0)
(-0.00634638 -8.60875e-12 0)
(-0.0383409 -7.71491e-12 0)
(-0.106532 -7.52209e-12 0)
(-0.177804 -6.70442e-12 0)
(-0.215627 -5.18096e-12 0)
(-0.227304 -3.66107e-12 0)
(-0.294679 -2.14832e-12 0)
(-0.564837 -9.3074e-13 0)
(-0.370325 -1.54727e-13 0)
(0.015098 4.87984e-14 0)
(-0.0151275 -0.00100765 0)
(0.370293 -0.000448872 0)
(0.56483 -0.00040424 0)
(0.294672 -0.00026953 0)
(0.227298 -0.000130613 0)
(0.215625 -5.23391e-05 0)
(0.177803 -1.46613e-05 0)
(0.106532 -2.30241e-06 0)
(0.0383409 -1.28265e-07 0)
(0.00634638 -2.76497e-08 0)
(0.000326729 -3.07453e-08 0)
(3.38487e-06 -3.08173e-08 0)
(4.8029e-09 -3.08174e-08 0)
(6.65324e-13 -3.08174e-08 0)
(-4.52278e-14 -3.08174e-08 0)
(-1.1902e-15 -3.08174e-08 0)
(4.76082e-15 -3.08174e-08 0)
(-2.49943e-14 -3.08174e-08 0)
(-3.09453e-14 -3.08174e-08 0)
(-2.26139e-14 -3.08174e-08 0)
(1.07118e-14 -3.08174e-08 0)
(4.76082e-14 -3.08174e-08 0)
(2.38041e-14 -3.08174e-08 0)
(1.1902e-15 -3.08174e-08 0)
(-1.54727e-14 -3.08174e-08 0)
(-4.40376e-14 -3.08174e-08 0)
(-6.62944e-13 -3.08174e-08 0)
(-4.80295e-09 -3.08173e-08 0)
(-3.38486e-06 -3.08174e-08 0)
(-0.000326729 -3.08171e-08 0)
(-0.00634638 -3.08097e-08 0)
(-0.0383409 -3.06498e-08 0)
(-0.106532 -2.9634e-08 0)
(-0.177804 -2.67752e-08 0)
(-0.215627 -2.20174e-08 0)
(-0.227304 -1.64466e-08 0)
(-0.294679 -1.10061e-08 0)
(-0.564837 -5.70957e-09 0)
(-0.370325 -1.95778e-09 0)
(0.015098 -5.5538e-10 0)
(-0.0150983 -4.50615e-05 0)
(0.370325 -1.55098e-05 0)
(0.564837 -1.41802e-05 0)
(0.294679 -1.27305e-05 0)
(0.227303 -1.09741e-05 0)
(0.215627 -1.09172e-05 0)
(0.177804 -1.16138e-05 0)
(0.106532 -1.23066e-05 0)
(0.0383409 -1.26199e-05 0)
(0.00634638 -1.26755e-05 0)
(0.000326729 -1.26787e-05 0)
(3.38486e-06 -1.26787e-05 0)
(4.80292e-09 -1.26787e-05 0)
(6.22477e-13 -1.26787e-05 0)
(-2.02335e-14 -1.26787e-05 0)
(1.54727e-14 -1.26787e-05 0)
(1.30923e-14 -1.26787e-05 0)
(1.42825e-14 -1.26787e-05 0)
(1.78531e-14 -1.26787e-05 0)
(0 -1.26787e-05 0)
(8.33143e-15 -1.26787e-05 0)
(2.61845e-14 -1.26787e-05 0)
(3.57061e-15 -1.26787e-05 0)
(-1.1902e-15 -1.26787e-05 0)
(4.76082e-15 -1.26787e-05 0)
(-1.54727e-14 -1.26787e-05 0)
(-6.55803e-13 -1.26787e-05 0)
(-4.80287e-09 -1.26787e-05 0)
(-3.38486e-06 -1.26787e-05 0)
(-0.000326729 -1.26787e-05 0)
(-0.00634638 -1.26758e-05 0)
(-0.0383409 -1.262e-05 0)
(-0.106532 -1.22826e-05 0)
(-0.177804 -1.13623e-05 0)
(-0.215627 -9.8228e-06 0)
(-0.227303 -7.94017e-06 0)
(-0.294679 -5.90727e-06 0)
(-0.564837 -3.65927e-06 0)
(-0.370325 -1.64464e-06 0)
(0.015098 -6.92408e-07 0)
(-0.015099 -0.000108451 0)
(0.370323 -0.000185773 0)
(0.564833 -0.000327841 0)
(0.294675 -0.000455436 0)
(0.2273 -0.000560728 0)
(0.215624 -0.000650037 0)
(0.177801 -0.000721459 0)
(0.106531 -0.000764921 0)
(0.0383405 -0.000781752 0)
(0.00634632 -0.000784761 0)
(0.000326726 -0.000784926 0)
(3.38484e-06 -0.000784928 0)
(4.80332e-09 -0.000784928 0)
(7.66492e-13 -0.000784928 0)
(2.85649e-14 -0.000784928 0)
(-9.04556e-14 -0.000784928 0)
(-1.57107e-13 -0.000784928 0)
(-3.57061e-15 -0.000784928 0)
(5.95102e-15 -0.000784928 0)
(-8.56947e-14 -0.000784928 0)
(-3.92768e-14 -0.000784928 0)
(-4.52278e-14 -0.000784928 0)
(3.68963e-14 -0.000784928 0)
(1.34493e-13 -0.000784928 0)
(8.21241e-14 -0.000784928 0)
(7.73633e-14 -0.000784928 0)
(-7.08172e-13 -0.000784928 0)
(-4.80283e-09 -0.000784928 0)
(-3.38484e-06 -0.000784928 0)
(-0.000326726 -0.000784926 0)
(-0.00634632 -0.000784761 0)
(-0.0383405 -0.000781753 0)
(-0.106531 -0.000764917 0)
(-0.177801 -0.000721446 0)
(-0.215624 -0.000649996 0)
(-0.2273 -0.000560644 0)
(-0.294675 -0.000455316 0)
(-0.564833 -0.000327729 0)
(-0.370323 -0.000185673 0)
(0.015099 -0.000108116 0)
(-0.0151728 -0.00304788 0)
(0.370114 -0.00409093 0)
(0.564577 -0.00603635 0)
(0.294455 -0.00747072 0)
(0.227116 -0.00860112 0)
(0.215473 -0.00949887 0)
(0.177693 -0.0102209 0)
(0.106474 -0.0106815 0)
(0.0383218 -0.0108751 0)
(0.00634332 -0.0109132 0)
(0.000326568 -0.0109155 0)
(3.38306e-06 -0.0109155 0)
(4.79955e-09 -0.0109155 0)
(9.11697e-13 -0.0109155 0)
(4.76082e-14 -0.0109155 0)
(3.80866e-14 -0.0109155 0)
(2.41612e-13 -0.0109155 0)
(1.30923e-13 -0.0109155 0)
(3.21355e-14 -0.0109155 0)
(9.2836e-14 -0.0109155 0)
(1.64248e-13 -0.0109155 0)
(2.39231e-13 -0.0109155 0)
(1.32113e-13 -0.0109155 0)
(-4.52278e-14 -0.0109155 0)
(-1.97574e-13 -0.0109155 0)
(-2.59465e-13 -0.0109155 0)
(-8.05769e-13 -0.0109155 0)
(-4.80041e-09 -0.0109155 0)
(-3.38306e-06 -0.0109155 0)
(-0.000326568 -0.0109155 0)
(-0.00634332 -0.0109132 0)
(-0.0383218 -0.0108751 0)
(-0.106474 -0.0106815 0)
(-0.177693 -0.0102209 0)
(-0.215472 -0.0094989 0)
(-0.227116 -0.00860117 0)
(-0.294455 -0.0074708 0)
(-0.564577 -0.00603642 0)
(-0.370114 -0.00409096 0)
(0.0151728 -0.00304786 0)
(-0.0161041 -0.0237559 0)
(0.367443 -0.026936 0)
(0.561576 -0.0352915 0)
(0.292203 -0.0403618 0)
(0.225345 -0.0443225 0)
(0.214063 -0.0473715 0)
(0.176662 -0.0499155 0)
(0.105901 -0.0516702 0)
(0.0381173 -0.0524884 0)
(0.00630744 -0.0526667 0)
(0.000324489 -0.0526784 0)
(3.35794e-06 -0.0526785 0)
(4.75814e-09 -0.0526785 0)
(4.46327e-13 -0.0526785 0)
(-3.23736e-13 -0.0526785 0)
(-4.0824e-13 -0.0526785 0)
(-3.96338e-13 -0.0526785 0)
(-1.36874e-13 -0.0526785 0)
(1.39254e-13 -0.0526785 0)
(1.90433e-13 -0.0526785 0)
(-1.35683e-13 -0.0526785 0)
(-5.02266e-13 -0.0526785 0)
(-3.66583e-13 -0.0526785 0)
(4.28474e-14 -0.0526785 0)
(2.04715e-13 -0.0526785 0)
(6.66515e-14 -0.0526785 0)
(-7.76014e-13 -0.0526785 0)
(-4.75767e-09 -0.0526785 0)
(-3.35794e-06 -0.0526785 0)
(-0.000324489 -0.0526784 0)
(-0.00630744 -0.0526667 0)
(-0.0381173 -0.0524884 0)
(-0.105901 -0.0516702 0)
(-0.176662 -0.0499156 0)
(-0.214063 -0.0473715 0)
(-0.225345 -0.0443226 0)
(-0.292203 -0.0403619 0)
(-0.561576 -0.0352916 0)
(-0.367443 -0.0269361 0)
(0.0161041 -0.0237559 0)
(-0.0182373 -0.077368 0)
(0.358998 -0.0785695 0)
(0.55164 -0.0962209 0)
(0.285752 -0.104636 0)
(0.220361 -0.111148 0)
(0.210083 -0.116273 0)
(0.17355 -0.120854 0)
(0.103995 -0.124371 0)
(0.0373616 -0.126216 0)
(0.0061603 -0.126661 0)
(0.000315147 -0.126692 0)
(3.23689e-06 -0.126693 0)
(4.54523e-09 -0.126693 0)
(1.13307e-12 -0.126693 0)
(6.18906e-14 -0.126693 0)
(-8.09339e-14 -0.126693 0)
(1.89243e-13 -0.126693 0)
(3.84436e-13 -0.126693 0)
(2.58274e-13 -0.126693 0)
(5.11788e-14 -0.126693 0)
(-5.2369e-14 -0.126693 0)
(-1.44015e-13 -0.126693 0)
(-1.57107e-13 -0.126693 0)
(9.64066e-14 -0.126693 0)
(2.3447e-13 -0.126693 0)
(1.33303e-13 -0.126693 0)
(-5.41543e-13 -0.126693 0)
(-4.54471e-09 -0.126693 0)
(-3.2369e-06 -0.126693 0)
(-0.000315147 -0.126692 0)
(-0.0061603 -0.126661 0)
(-0.0373616 -0.126216 0)
(-0.103995 -0.124371 0)
(-0.17355 -0.120854 0)
(-0.210083 -0.116273 0)
(-0.220361 -0.111148 0)
(-0.285752 -0.104636 0)
(-0.55164 -0.0962209 0)
(-0.358998 -0.0785695 0)
(0.0182373 -0.077368 0)
(-0.0172619 -0.140102 0)
(0.349275 -0.133315 0)
(0.536458 -0.158792 0)
(0.277819 -0.167528 0)
(0.214131 -0.173912 0)
(0.20471 -0.179379 0)
(0.168859 -0.184874 0)
(0.100733 -0.189684 0)
(0.0359102 -0.192535 0)
(0.00584891 -0.193281 0)
(0.000293898 -0.193336 0)
(2.94904e-06 -0.193337 0)
(4.02699e-09 -0.193337 0)
(4.58229e-13 -0.193337 0)
(-9.40262e-14 -0.193337 0)
(-4.28474e-14 -0.193337 0)
(-2.38041e-15 -0.193337 0)
(-5.95102e-14 -0.193337 0)
(-5.47494e-14 -0.193337 0)
(8.33143e-15 -0.193337 0)
(3.21355e-14 -0.193337 0)
(-5.2369e-14 -0.193337 0)
(-1.02358e-13 -0.193337 0)
(-8.80752e-14 -0.193337 0)
(-6.30809e-14 -0.193337 0)
(-3.80866e-14 -0.193337 0)
(-5.86771e-13 -0.193337 0)
(-4.02707e-09 -0.193337 0)
(-2.94904e-06 -0.193337 0)
(-0.000293898 -0.193336 0)
(-0.00584891 -0.193281 0)
(-0.0359102 -0.192535 0)
(-0.100733 -0.189684 0)
(-0.168859 -0.184874 0)
(-0.20471 -0.179379 0)
(-0.214131 -0.173912 0)
(-0.277819 -0.167528 0)
(-0.536458 -0.158792 0)
(-0.349275 -0.133315 0)
(0.0172619 -0.140102 0)
(-0.0116968 -0.174902 0)
(0.340988 -0.157987 0)
(0.518671 -0.189556 0)
(0.271182 -0.198805 0)
(0.208941 -0.20302 0)
(0.19952 -0.207917 0)
(0.16362 -0.213337 0)
(0.0966126 -0.218795 0)
(0.0338958 -0.222353 0)
(0.00538785 -0.223332 0)
(0.000261341 -0.223405 0)
(2.50517e-06 -0.223406 0)
(3.23983e-09 -0.223406 0)
(3.09453e-13 -0.223406 0)
(-8.80752e-14 -0.223406 0)
(4.76082e-15 -0.223406 0)
(-1.30923e-14 -0.223406 0)
(-6.54613e-14 -0.223406 0)
(-5.2369e-14 -0.223406 0)
(4.76082e-15 -0.223406 0)
(2.97551e-14 -0.223406 0)
(4.0467e-14 -0.223406 0)
(-2.38041e-15 -0.223406 0)
(-7.73633e-14 -0.223406 0)
(-3.09453e-14 -0.223406 0)
(3.80866e-14 -0.223406 0)
(-3.64203e-13 -0.223406 0)
(-3.23964e-09 -0.223406 0)
(-2.50517e-06 -0.223406 0)
(-0.000261341 -0.223405 0)
(-0.00538785 -0.223332 0)
(-0.0338958 -0.222353 0)
(-0.0966126 -0.218795 0)
(-0.16362 -0.213337 0)
(-0.19952 -0.207917 0)
(-0.208941 -0.20302 0)
(-0.271182 -0.198805 0)
(-0.518671 -0.189556 0)
(-0.340988 -0.157987 0)
(0.0116968 -0.174902 0)
(-0.000961388 -0.161341 0)
(0.335155 -0.158746 0)
(0.497124 -0.194788 0)
(0.264845 -0.204427 0)
(0.20535 -0.208089 0)
(0.194768 -0.211886 0)
(0.158377 -0.217404 0)
(0.0920452 -0.223774 0)
(0.0315377 -0.228154 0)
(0.00483481 -0.229344 0)
(0.000222506 -0.229429 0)
(1.99192e-06 -0.22943 0)
(2.37363e-09 -0.22943 0)
(2.68986e-13 -0.22943 0)
(-4.76082e-15 -0.22943 0)
(3.21355e-14 -0.22943 0)
(2.38041e-14 -0.22943 0)
(-1.90433e-14 -0.22943 0)
(-5.95102e-14 -0.22943 0)
(1.1902e-15 -0.22943 0)
(1.21401e-13 -0.22943 0)
(1.48776e-13 -0.22943 0)
(4.52278e-14 -0.22943 0)
(-1.03548e-13 -0.22943 0)
(-1.11879e-13 -0.22943 0)
(-2.85649e-14 -0.22943 0)
(-2.96361e-13 -0.22943 0)
(-2.37361e-09 -0.22943 0)
(-1.99192e-06 -0.22943 0)
(-0.000222506 -0.229429 0)
(-0.00483481 -0.229344 0)
(-0.0315377 -0.228154 0)
(-0.0920452 -0.223774 0)
(-0.158377 -0.217404 0)
(-0.194768 -0.211886 0)
(-0.20535 -0.208089 0)
(-0.264845 -0.204427 0)
(-0.497124 -0.194788 0)
(-0.335155 -0.158746 0)
(0.000961388 -0.161341 0)
(-0.00919627 -0.189647 0)
(0.308756 -0.191569 0)
(0.47465 -0.2389 0)
(0.258365 -0.261236 0)
(0.201754 -0.26796 0)
(0.190543 -0.274463 0)
(0.152164 -0.281506 0)
(0.0862535 -0.289675 0)
(0.0285291 -0.295356 0)
(0.00415948 -0.296857 0)
(0.000178532 -0.296957 0)
(1.46244e-06 -0.296958 0)
(1.56777e-09 -0.296958 0)
(2.72557e-13 -0.296958 0)
(-2.73747e-14 -0.296958 0)
(-1.20211e-13 -0.296958 0)
(-3.80866e-14 -0.296958 0)
(0 -0.296958 0)
(-2.14237e-14 -0.296958 0)
(-4.76082e-15 -0.296958 0)
(9.75968e-14 -0.296958 0)
(1.7496e-13 -0.296958 0)
(7.37927e-14 -0.296958 0)
(7.14123e-15 -0.296958 0)
(-4.99886e-14 -0.296958 0)
(-1.23781e-13 -0.296958 0)
(-2.85649e-13 -0.296958 0)
(-1.56766e-09 -0.296958 0)
(-1.46245e-06 -0.296958 0)
(-0.000178532 -0.296957 0)
(-0.00415948 -0.296857 0)
(-0.0285291 -0.295356 0)
(-0.0862535 -0.289675 0)
(-0.152164 -0.281506 0)
(-0.190543 -0.274463 0)
(-0.201754 -0.26796 0)
(-0.258365 -0.261236 0)
(-0.47465 -0.2389 0)
(-0.308756 -0.191569 0)
(0.00919627 -0.189647 0)
(-0.00281409 -0.3742 0)
(0.287692 -0.383147 0)
(0.429991 -0.448313 0)
(0.236843 -0.496776 0)
(0.192605 -0.521177 0)
(0.181715 -0.543976 0)
(0.143717 -0.562486 0)
(0.0786983 -0.577534 0)
(0.0246173 -0.585976 0)
(0.00329247 -0.58791 0)
(0.000125053 -0.588022 0)
(8.78514e-07 -0.588023 0)
(7.88739e-10 -0.588023 0)
(1.65438e-13 -0.588023 0)
(-1.1664e-13 -0.588023 0)
(-1.89243e-13 -0.588023 0)
(-6.07004e-14 -0.588023 0)
(2.38041e-14 -0.588023 0)
(3.33257e-14 -0.588023 0)
(4.28474e-14 -0.588023 0)
(9.75968e-14 -0.588023 0)
(1.60678e-13 -0.588023 0)
(8.33143e-14 -0.588023 0)
(3.45159e-14 -0.588023 0)
(-6.30809e-14 -0.588023 0)
(-1.61868e-13 -0.588023 0)
(-1.85672e-13 -0.588023 0)
(-7.88561e-10 -0.588023 0)
(-8.78514e-07 -0.588023 0)
(-0.000125053 -0.588022 0)
(-0.00329247 -0.58791 0)
(-0.0246173 -0.585976 0)
(-0.0786983 -0.577534 0)
(-0.143717 -0.562486 0)
(-0.181715 -0.543976 0)
(-0.192605 -0.521177 0)
(-0.236843 -0.496776 0)
(-0.429991 -0.448313 0)
(-0.287692 -0.383147 0)
(0.00281409 -0.3742 0)
(-0.0178182 -0.21917 0)
(0.237339 -0.254903 0)
(0.365153 -0.310745 0)
(0.18815 -0.333575 0)
(0.15627 -0.361384 0)
(0.150737 -0.368335 0)
(0.119826 -0.377544 0)
(0.063618 -0.388118 0)
(0.0185312 -0.395564 0)
(0.00218803 -0.397291 0)
(6.91858e-05 -0.397382 0)
(3.85392e-07 -0.397383 0)
(2.64534e-10 -0.397383 0)
(4.10621e-14 -0.397383 0)
(-8.92654e-15 -0.397383 0)
(-1.10689e-13 -0.397383 0)
(-1.69009e-13 -0.397383 0)
(-8.21241e-14 -0.397383 0)
(-6.54613e-15 -0.397383 0)
(2.61845e-14 -0.397383 0)
(9.04556e-14 -0.397383 0)
(1.44015e-13 -0.397383 0)
(8.74801e-14 -0.397383 0)
(-1.84482e-14 -0.397383 0)
(-4.93935e-14 -0.397383 0)
(-6.12955e-14 -0.397383 0)
(-4.28474e-14 -0.397383 0)
(-2.64387e-10 -0.397383 0)
(-3.85392e-07 -0.397383 0)
(-6.91858e-05 -0.397382 0)
(-0.00218803 -0.397291 0)
(-0.0185312 -0.395564 0)
(-0.063618 -0.388118 0)
(-0.119826 -0.377544 0)
(-0.150737 -0.368335 0)
(-0.15627 -0.361384 0)
(-0.18815 -0.333575 0)
(-0.365153 -0.310745 0)
(-0.237339 -0.254903 0)
(0.0178182 -0.21917 0)
(-0.0372475 0.0353707 0)
(0.199448 0.0152081 0)
(0.354179 -0.0039504 0)
(0.188045 0.00382011 0)
(0.159109 -0.00405906 0)
(0.166142 0.00676641 0)
(0.124654 0.0119276 0)
(0.0613339 0.0117765 0)
(0.0157773 0.00955733 0)
(0.00154081 0.00891863 0)
(3.71969e-05 0.00888568 0)
(1.4657e-07 0.00888543 0)
(6.65717e-11 0.00888543 0)
(9.22409e-14 0.00888543 0)
(3.63012e-14 0.00888543 0)
(-1.44015e-13 0.00888543 0)
(-1.81506e-13 0.00888543 0)
(-1.13069e-13 0.00888543 0)
(-4.28474e-14 0.00888543 0)
(4.46327e-14 0.00888543 0)
(1.23186e-13 0.00888543 0)
(1.28542e-13 0.00888543 0)
(4.82033e-14 0.00888543 0)
(-2.79698e-14 0.00888543 0)
(-3.74915e-14 0.00888543 0)
(-1.01167e-14 0.00888543 0)
(-1.1902e-15 0.00888543 0)
(-6.64188e-11 0.00888543 0)
(-1.46571e-07 0.00888543 0)
(-3.71969e-05 0.00888568 0)
(-0.00154081 0.00891863 0)
(-0.0157773 0.00955733 0)
(-0.0613339 0.0117765 0)
(-0.124654 0.0119276 0)
(-0.166142 0.00676641 0)
(-0.159109 -0.00405906 0)
(-0.188045 0.00382011 0)
(-0.354179 -0.0039504 0)
(-0.199448 0.0152081 0)
(0.0372475 0.0353707 0)
(-0.0372475 -0.0353707 0)
(0.199448 -0.0152081 0)
(0.354179 0.0039504 0)
(0.188045 -0.00382011 0)
(0.159109 0.00405906 0)
(0.166142 -0.00676641 0)
(0.124654 -0.0119276 0)
(0.0613339 -0.0117765 0)
(0.0157773 -0.00955733 0)
(0.00154081 -0.00891863 0)
(3.71969e-05 -0.00888568 0)
(1.46571e-07 -0.00888543 0)
(6.64319e-11 -0.00888543 0)
(-2.38041e-15 -0.00888543 0)
(-5.95102e-15 -0.00888543 0)
(-6.54613e-15 -0.00888543 0)
(-7.14123e-15 -0.00888543 0)
(1.30923e-14 -0.00888543 0)
(1.60678e-14 -0.00888543 0)
(8.33143e-15 -0.00888543 0)
(2.3209e-14 -0.00888543 0)
(2.67796e-14 -0.00888543 0)
(1.66629e-14 -0.00888543 0)
(-2.08286e-14 -0.00888543 0)
(-3.92768e-14 -0.00888543 0)
(-4.16572e-14 -0.00888543 0)
(7.73633e-15 -0.00888543 0)
(-6.65146e-11 -0.00888543 0)
(-1.46571e-07 -0.00888543 0)
(-3.71969e-05 -0.00888568 0)
(-0.00154081 -0.00891863 0)
(-0.0157773 -0.00955733 0)
(-0.0613339 -0.0117765 0)
(-0.124654 -0.0119276 0)
(-0.166142 -0.00676641 0)
(-0.159109 0.00405906 0)
(-0.188045 -0.00382011 0)
(-0.354179 0.0039504 0)
(-0.199448 -0.0152081 0)
(0.0372475 -0.0353707 0)
(-0.0178182 0.21917 0)
(0.237339 0.254903 0)
(0.365153 0.310745 0)
(0.18815 0.333575 0)
(0.15627 0.361384 0)
(0.150737 0.368335 0)
(0.119826 0.377544 0)
(0.063618 0.388118 0)
(0.0185312 0.395564 0)
(0.00218803 0.397291 0)
(6.91858e-05 0.397382 0)
(3.85392e-07 0.397383 0)
(2.64405e-10 0.397383 0)
(2.73747e-14 0.397383 0)
(4.93935e-14 0.397383 0)
(3.86817e-14 0.397383 0)
(-8.92654e-15 0.397383 0)
(5.95102e-16 0.397383 0)
(-4.16572e-15 0.397383 0)
(1.30923e-14 0.397383 0)
(4.22523e-14 0.397383 0)
(5.41543e-14 0.397383 0)
(1.48776e-14 0.397383 0)
(-3.39208e-14 0.397383 0)
(-5.95102e-14 0.397383 0)
(-8.74801e-14 0.397383 0)
(-4.82033e-14 0.397383 0)
(-2.64442e-10 0.397383 0)
(-3.85392e-07 0.397383 0)
(-6.91858e-05 0.397382 0)
(-0.00218803 0.397291 0)
(-0.0185312 0.395564 0)
(-0.063618 0.388118 0)
(-0.119826 0.377544 0)
(-0.150737 0.368335 0)
(-0.15627 0.361384 0)
(-0.18815 0.333575 0)
(-0.365153 0.310745 0)