/*--------------------------------*- C++ -*----------------------------------*\
| =========                 |                                                 |
| \\      /  F ield         | OpenFOAM: The Open Source CFD Toolbox           |
|  \\    /   O peration     | Version:  v1912                                 |
|   \\  /    A nd           | Website:  www.openfoam.com                      |
|    \\/     M anipulation  |                                                 |
\*---------------------------------------------------------------------------*/
FoamFile
{
    version     2.0;
    format      ascii;
    class       volVectorField;
    location    "1.66";
    object      grad(T);
}
// * * * * * * * * * * * * * * * * * * * * * * * * * * * * * * * * * * * * * //

dimensions      [0 -1 0 1 0 0 0];


internalField   nonuniform List<vector> 
1900
(
(0.0611633 3.20416e-06 0)
(0.0524275 7.96016e-06 0)
(0.046805 1.52449e-05 0)
(0.0268459 1.06132e-05 0)
(0.0122522 -2.62756e-05 0)
(0.00348981 8.29092e-05 0)
(0.000268329 0.000218669 0)
(0.00208337 -0.000575306 0)
(0.00620066 -0.00214855 0)
(-0.00373764 -0.00273667 0)
(0.0611745 5.19184e-06 0)
(0.0524395 1.03136e-05 0)
(0.0468076 2.45601e-05 0)
(0.0268043 2.30265e-05 0)
(0.0123245 -5.25184e-05 0)
(0.00373475 7.82195e-05 0)
(-0.000389886 0.000200177 0)
(-0.000283851 -0.000370152 0)
(0.0040393 -0.00136179 0)
(0.0113843 -0.00227196 0)
(0.0611788 -1.84314e-13 0)
(0.0524468 -2.0383e-13 0)
(0.0468177 -4.09828e-13 0)
(0.0267688 1.27936e-13 0)
(0.0123074 5.96311e-13 0)
(0.0037425 5.76796e-13 0)
(-0.000180042 3.79471e-13 0)
(0.000521409 6.50521e-14 0)
(0.00429885 -3.03577e-14 0)
(0.0100705 -9.75782e-14 0)
(0.0611745 -5.19184e-06 0)
(0.0524395 -1.03136e-05 0)
(0.0468076 -2.45601e-05 0)
(0.0268043 -2.30265e-05 0)
(0.0123245 5.25184e-05 0)
(0.00373475 -7.82195e-05 0)
(-0.000389886 -0.000200177 0)
(-0.000283851 0.000370152 0)
(0.0040393 0.00136179 0)
(0.0113843 0.00227196 0)
(0.0611633 -3.20416e-06 0)
(0.0524275 -7.96016e-06 0)
(0.046805 -1.52449e-05 0)
(0.0268459 -1.06132e-05 0)
(0.0122522 2.62756e-05 0)
(0.00348981 -8.29092e-05 0)
(0.000268329 -0.000218669 0)
(0.00208337 0.000575306 0)
(0.00620066 0.00214855 0)
(-0.00373764 0.00273667 0)
(0.00685728 0.0105378 1.00103e-15)
(0.0371693 0.0111583 -1.21698e-15)
(0.0268625 0.0116072 -1.54493e-15)
(-0.129159 0.0296542 0)
(-0.0623185 0.231179 -6.51161e-15)
(0.0215774 0.0101899 1.00294e-15)
(0.0331015 0.00779431 1.21698e-15)
(0.0343202 0.00445113 1.54493e-15)
(-0.0391014 0.00981538 0)
(-0.038554 0.188468 0)
(0.0212793 -8.64219e-14 0)
(0.0313321 -9.27278e-14 0)
(0.0300213 7.83035e-14 0)
(-0.0376223 2.34089e-13 0)
(0.062442 3.61401e-13 0)
(0.0215774 -0.0101899 1.00294e-15)
(0.0331015 -0.00779431 1.21698e-15)
(0.0343202 -0.00445113 1.54493e-15)
(-0.0391014 -0.00981538 0)
(-0.038554 -0.188468 0)
(0.00685728 -0.0105378 -3.0069e-15)
(0.0371693 -0.0111583 -1.21698e-15)
(0.0268625 -0.0116072 -1.54493e-15)
(-0.129159 -0.0296542 -4.21574e-15)
(-0.0623185 -0.231179 6.51161e-15)
(0.198939 -0.0919432 2.87233e-15)
(-0.0495329 -0.0224396 -2.41714e-15)
(-0.0889723 -0.0117025 0)
(-0.222607 0.0864422 1.82423e-15)
(-0.66046 0.232606 -7.9312e-16)
(0.115182 -0.103946 -1.43478e-15)
(-0.031685 -0.0243238 1.20823e-15)
(-0.0485731 -0.0227487 0)
(-0.119258 0.0909792 -1.14246e-15)
(-0.232552 0.262355 2.02007e-16)
(0.134597 5.6948e-13 0)
(-0.0312613 2.96534e-13 0)
(-0.0454019 1.92747e-13 0)
(-0.108464 3.7203e-13 4.58078e-16)
(-0.241567 3.04337e-13 -4.04013e-16)
(0.115182 0.103946 -1.43478e-15)
(-0.031685 0.0243238 1.20823e-15)
(-0.0485731 0.0227487 0)
(-0.119258 -0.0909792 -1.14246e-15)
(-0.232552 -0.262355 2.02007e-16)
(0.198939 0.0919432 1.43478e-15)
(-0.0495329 0.0224396 6.75806e-19)
(-0.0889723 0.0117025 0)
(-0.222607 -0.0864422 2.60336e-18)
(-0.66046 -0.232606 7.9312e-16)
(-0.783196 2.31843 0)
(-0.091478 0.91852 0)
(0.216498 0.291426 0)
(0.0231803 0.0696722 0)
(0.00134996 0.0206883 0)
(0.0485444 0.00775916 0)
(0.0838366 0.00685148 0)
(0.108659 0.00300154 0)
(0.124898 0.00153565 0)
(0.132854 0.000827135 0)
(0.133102 0.000584659 0)
(0.124289 0.000542451 0)
(0.102163 0.000526096 0)
(0.0652932 0.000376467 0)
(0.0270805 0.00014138 0)
(0.00575699 1.82516e-05 0)
(0.000446747 5.14721e-07 0)
(8.38845e-06 2.15326e-09 0)
(2.57868e-08 1.00929e-12 0)
(9.26697e-12 8.27936e-14 0)
(-1.29956e-11 8.67362e-14 0)
(-3.36319e-08 1.57702e-13 0)
(-1.03041e-05 2.28668e-13 0)
(-0.000522086 6.34751e-13 0)
(-0.00647372 1.60462e-12 0)
(-0.0296446 1.18277e-14 0)
(-0.0702366 4.37623e-13 0)
(-0.108919 4.77049e-13 0)
(-0.132666 8.27936e-13 0)
(-0.144174 9.38328e-13 0)
(-0.149157 4.88877e-13 0)
(-0.150718 1.853e-13 0)
(-0.14988 1.89243e-13 0)
(-0.145464 1.57702e-14 0)
(-0.131535 2.60209e-13 0)
(-0.101035 -7.88511e-14 0)
(-0.0915766 9.06787e-14 0)
(-0.365627 1.5376e-13 0)
(-0.63815 2.91749e-13 0)
(-0.323582 7.0966e-14 0)
(-0.614479 1.23052 0)
(-0.385815 0.977058 0)
(0.0545729 0.305954 0)
(-0.0336489 0.0475133 0)
(-0.00643132 0.0111834 0)
(0.0470572 0.00248338 0)
(0.0836429 0.00350393 0)
(0.108021 0.00129211 0)
(0.124688 0.000642185 0)
(0.132771 0.000350021 0)
(0.133081 0.000261362 0)
(0.124283 0.00024933 0)
(0.102142 0.000237471 0)
(0.0652546 0.000162532 0)
(0.0270481 6.1696e-05 0)
(0.00574434 8.31064e-06 0)
(0.00044505 2.43614e-07 0)
(8.33908e-06 9.84365e-10 0)
(2.55915e-08 1.18277e-14 0)
(9.26204e-12 -7.49085e-14 0)
(-1.29976e-11 -6.70234e-14 0)
(-3.36319e-08 -1.18277e-14 0)
(-1.03041e-05 3.46945e-13 0)
(-0.000522086 -4.10026e-13 0)
(-0.00647372 -7.80626e-13 0)
(-0.0296446 -4.13968e-13 0)
(-0.0702366 -4.57336e-13 0)
(-0.108919 -4.41566e-13 0)
(-0.132666 1.61645e-13 0)
(-0.144174 -1.18277e-13 0)
(-0.149157 4.73106e-14 0)
(-0.150718 4.73106e-14 0)
(-0.14988 1.97128e-14 0)
(-0.145464 -4.73106e-14 0)
(-0.131535 -3.23289e-13 0)
(-0.101035 -4.37623e-13 0)
(-0.0915766 -2.20783e-13 0)
(-0.365627 3.15404e-14 0)
(-0.63815 2.75979e-14 0)
(-0.323582 -1.18277e-13 0)
(-0.509452 7.37257e-13 0)
(-0.360444 4.37623e-13 0)
(-0.0539155 -7.88511e-14 0)
(-0.0625712 -2.72036e-13 0)
(-0.0117496 3.94255e-15 0)
(0.0463104 7.0966e-14 0)
(0.0834901 -4.33681e-14 0)
(0.107826 -6.30809e-14 0)
(0.124624 2.28668e-13 0)
(0.132743 3.03577e-13 0)
(0.133073 -1.57702e-14 0)
(0.124282 -1.65587e-13 0)
(0.102138 -2.68094e-13 0)
(0.0652421 1.06449e-13 0)
(0.0270357 -1.81357e-13 0)
(0.00573911 3.5483e-14 0)
(0.00044433 -1.10391e-13 0)
(8.31758e-06 -1.18277e-14 0)
(2.55004e-08 1.18277e-14 0)
(9.24529e-12 -3.94255e-15 0)
(-1.29799e-11 0 0)
(-3.36318e-08 3.94255e-14 0)
(-1.03041e-05 5.12532e-13 0)
(-0.000522086 -8.67362e-14 0)
(-0.00647372 4.53394e-13 0)
(-0.0296446 -1.97128e-13 0)
(-0.0702366 2.05013e-13 0)
(-0.108919 2.36553e-14 0)
(-0.132666 4.21853e-13 0)
(-0.144174 3.11462e-13 0)
(-0.149157 7.0966e-14 0)
(-0.150718 2.44438e-13 0)
(-0.14988 2.75979e-14 0)
(-0.145464 -1.65587e-13 0)
(-0.131535 -5.20417e-13 0)
(-0.101035 -3.66657e-13 0)
(-0.0915766 -1.57702e-14 0)
(-0.365627 1.97128e-14 0)
(-0.63815 -2.75979e-14 0)
(-0.323582 -3.19347e-13 0)
(-0.614479 -1.23052 0)
(-0.385815 -0.977058 0)
(0.0545729 -0.305954 0)
(-0.0336489 -0.0475133 0)
(-0.00643132 -0.0111834 0)
(0.0470572 -0.00248338 0)
(0.0836429 -0.00350393 0)
(0.108021 -0.00129211 0)
(0.124688 -0.000642185 0)
(0.132771 -0.000350021 0)
(0.133081 -0.000261362 0)
(0.124283 -0.00024933 0)
(0.102142 -0.000237471 0)
(0.0652546 -0.000162532 0)
(0.0270481 -6.1696e-05 0)
(0.00574434 -8.31064e-06 0)
(0.00044505 -2.43615e-07 0)
(8.33908e-06 -9.84365e-10 0)
(2.55915e-08 -2.0107e-13 0)
(9.25712e-12 5.91383e-14 0)
(-1.29838e-11 0 0)
(-3.36317e-08 5.12532e-14 0)
(-1.03041e-05 5.79555e-13 0)
(-0.000522086 -1.49817e-13 0)
(-0.00647372 1.5376e-12 0)
(-0.0296446 -1.5376e-13 0)
(-0.0702366 7.96396e-13 0)
(-0.108919 2.44438e-13 0)
(-0.132666 4.21853e-13 0)
(-0.144174 7.45143e-13 0)
(-0.149157 6.30809e-14 0)
(-0.150718 3.11462e-13 0)
(-0.14988 5.12532e-14 0)
(-0.145464 -2.24726e-13 0)
(-0.131535 -4.49451e-13 0)
(-0.101035 -2.28668e-13 0)
(-0.0915766 8.27936e-14 0)
(-0.365627 5.51957e-14 0)
(-0.63815 1.57702e-14 0)
(-0.323582 -1.6953e-13 0)
(-0.783196 -2.31843 0)
(-0.091478 -0.91852 0)
(0.216498 -0.291426 0)
(0.0231803 -0.0696722 0)
(0.00134996 -0.0206883 0)
(0.0485444 -0.00775916 0)
(0.0838366 -0.00685148 0)
(0.108659 -0.00300154 0)
(0.124898 -0.00153565 0)
(0.132854 -0.000827135 0)
(0.133102 -0.000584659 0)
(0.124289 -0.000542451 0)
(0.102163 -0.000526096 0)
(0.0652932 -0.000376467 0)
(0.0270805 -0.00014138 0)
(0.00575699 -1.82516e-05 0)
(0.000446747 -5.14722e-07 0)
(8.38845e-06 -2.15316e-09 0)
(2.57868e-08 -1.05266e-12 0)
(9.30443e-12 -7.88511e-14 0)
(-1.29838e-11 -1.26162e-13 0)
(-3.36316e-08 -2.05013e-13 0)
(-1.03041e-05 -6.34751e-13 0)
(-0.000522086 -5.7167e-13 0)
(-0.00647372 -4.13968e-13 0)
(-0.0296446 -3.74543e-13 0)
(-0.0702366 -6.18981e-13 0)
(-0.108919 -7.0966e-13 0)
(-0.132666 -8.08223e-13 0)
(-0.144174 -7.92453e-13 0)
(-0.149157 -3.27232e-13 0)
(-0.150718 -4.53394e-13 0)
(-0.14988 -3.11462e-13 0)
(-0.145464 -4.29738e-13 0)
(-0.131535 -5.79555e-13 0)
(-0.101035 -1.73472e-13 0)
(-0.0915766 -1.18277e-13 0)
(-0.365627 -1.02506e-13 0)
(-0.63815 -1.77415e-13 0)
(-0.323582 5.32245e-14 0)
(0.210733 -1.41992 0)
(0.545341 -0.392667 0)
(0.399806 -0.129664 0)
(0.0704687 -0.0824044 0)
(0.023408 -0.0329595 0)
(0.0540169 -0.0180423 0)
(0.0864033 -0.0110164 0)
(0.110618 -0.00572516 0)
(0.12581 -0.0028386 0)
(0.133272 -0.00155142 0)
(0.133234 -0.00114225 0)
(0.124312 -0.0010664 0)
(0.102222 -0.000964668 0)
(0.0654512 -0.000644095 0)
(0.0272354 -0.000227424 0)
(0.00581809 -2.78868e-05 0)
(0.000454534 -7.81389e-07 0)
(8.60486e-06 -4.07849e-09 0)
(2.67163e-08 -7.36333e-10 0)
(9.78229e-12 -7.34611e-10 0)
(-1.30589e-11 -7.34588e-10 0)
(-3.36321e-08 -7.34707e-10 0)
(-1.03041e-05 -7.3494e-10 0)
(-0.000522086 -7.35147e-10 0)
(-0.00647372 -7.35129e-10 0)
(-0.0296446 -7.30497e-10 0)
(-0.0702366 -7.11083e-10 0)
(-0.108919 -6.60157e-10 0)
(-0.132666 -5.74698e-10 0)
(-0.144174 -4.64464e-10 0)
(-0.149157 -3.46551e-10 0)
(-0.150718 -2.39243e-10 0)
(-0.14988 -1.52246e-10 0)
(-0.145464 -8.97248e-11 0)
(-0.131535 -4.91436e-11 0)
(-0.101035 -2.55632e-11 0)
(-0.0915766 -1.32196e-11 0)
(-0.365627 -6.23429e-12 0)
(-0.63815 -1.68176e-12 0)
(-0.323582 2.55894e-14 0)
(0.458628 -0.330424 0)
(0.810376 -0.051232 0)
(0.417182 -0.0606584 0)
(0.0910109 -0.0666829 0)
(0.0515434 -0.0410595 0)
(0.0667551 -0.0255337 0)
(0.0943296 -0.0149179 0)
(0.115489 -0.00818091 0)
(0.128431 -0.0043619 0)
(0.134265 -0.00270668 0)
(0.133499 -0.00213805 0)
(0.124448 -0.00187596 0)
(0.102538 -0.00148388 0)
(0.0659189 -0.000872471 0)
(0.0275913 -0.000283987 0)
(0.00594262 -3.40577e-05 0)
(0.00046944 -1.58691e-06 0)
(9.02467e-06 -6.62616e-07 0)
(2.85106e-08 -6.58506e-07 0)
(1.07297e-11 -6.58504e-07 0)
(-1.30363e-11 -6.58504e-07 0)
(-3.36317e-08 -6.58504e-07 0)
(-1.03041e-05 -6.58505e-07 0)
(-0.000522086 -6.58499e-07 0)
(-0.00647372 -6.58266e-07 0)
(-0.0296446 -6.55228e-07 0)
(-0.0702366 -6.40803e-07 0)
(-0.108919 -6.04863e-07 0)
(-0.132666 -5.44032e-07 0)
(-0.144174 -4.6317e-07 0)
(-0.149157 -3.72201e-07 0)
(-0.150718 -2.81968e-07 0)
(-0.14988 -2.0122e-07 0)
(-0.145464 -1.35367e-07 0)
(-0.131535 -8.6183e-08 0)
(-0.101035 -5.31512e-08 0)
(-0.0915766 -3.21768e-08 0)
(-0.365627 -1.76982e-08 0)
(-0.63815 -6.04053e-09 0)
(-0.323582 -1.09144e-10 0)
(0.479773 0.00858566 0)
(0.805297 -0.0079419 0)
(0.384917 -0.0407009 0)
(0.089355 -0.0478289 0)
(0.0630608 -0.0412194 0)
(0.0792079 -0.0272335 0)
(0.103125 -0.016757 0)
(0.12079 -0.00998424 0)
(0.131085 -0.00628989 0)
(0.135415 -0.00449527 0)
(0.134034 -0.00358989 0)
(0.124943 -0.0028952 0)
(0.103189 -0.00206193 0)
(0.0666075 -0.00111475 0)
(0.0280433 -0.000392217 0)
(0.00609022 -0.000117515 0)
(0.000486715 -8.25825e-05 0)
(9.4995e-06 -8.16181e-05 0)
(3.0678e-08 -8.16139e-05 0)
(1.17378e-11 -8.16139e-05 0)
(-1.29994e-11 -8.16139e-05 0)
(-3.36324e-08 -8.16139e-05 0)
(-1.03041e-05 -8.16139e-05 0)
(-0.000522085 -8.16134e-05 0)
(-0.00647371 -8.15871e-05 0)
(-0.0296446 -8.12688e-05 0)
(-0.0702365 -7.98409e-05 0)
(-0.108919 -7.6417e-05 0)
(-0.132666 -7.06831e-05 0)
(-0.144173 -6.29262e-05 0)
(-0.149157 -5.38188e-05 0)
(-0.150718 -4.41787e-05 0)
(-0.14988 -3.4781e-05 0)
(-0.145464 -2.62721e-05 0)
(-0.131535 -1.9085e-05 0)
(-0.101035 -1.35758e-05 0)
(-0.0915766 -9.51462e-06 0)
(-0.365627 -6.0986e-06 0)
(-0.63815 -2.70515e-06 0)
(-0.323582 -1.28911e-07 0)
(0.442702 0.0584923 0)
(0.762881 -0.0406576 0)
(0.378745 -0.0421939 0)
(0.0905113 -0.0424796 0)
(0.0713899 -0.0396101 0)
(0.0903279 -0.0290598 0)
(0.110952 -0.0199057 0)
(0.125575 -0.0136503 0)
(0.133721 -0.00989248 0)
(0.136866 -0.00769902 0)
(0.135041 -0.00623022 0)
(0.12592 -0.00508426 0)
(0.104254 -0.0040359 0)
(0.0675279 -0.00301678 0)
(0.0285523 -0.00228704 0)
(0.00624099 -0.00203712 0)
(0.000504032 -0.00200795 0)
(9.95806e-06 -0.00200718 0)
(3.2568e-08 -0.00200718 0)
(1.27031e-11 -0.00200718 0)
(-1.29542e-11 -0.00200718 0)
(-3.36305e-08 -0.00200718 0)
(-1.03036e-05 -0.00200718 0)
(-0.00052206 -0.00200716 0)
(-0.00647338 -0.00200655 0)
(-0.029643 -0.0019997 0)
(-0.0702319 -0.00197131 0)
(-0.10891 -0.00190727 0)
(-0.132653 -0.0018034 0)
(-0.144157 -0.00166309 0)
(-0.149139 -0.00149432 0)
(-0.1507 -0.00130741 0)
(-0.149863 -0.00111315 0)
(-0.145449 -0.000922481 0)
(-0.131523 -0.000745106 0)
(-0.101025 -0.000594625 0)
(-0.0915694 -0.000468688 0)
(-0.365621 -0.000342237 0)
(-0.638144 -0.000189959 0)
(-0.323579 -2.08523e-05 0)
(0.384229 0.0618679 0)
(0.708272 -0.0480481 0)
(0.383162 -0.0427205 0)
(0.0918448 -0.044838 0)
(0.0759926 -0.0434079 0)
(0.0981958 -0.0354115 0)
(0.117974 -0.0268628 0)
(0.130439 -0.02187 0)
(0.13682 -0.019466 0)
(0.138944 -0.018282 0)
(0.136554 -0.0174828 0)
(0.127057 -0.0167181 0)
(0.105182 -0.0159729 0)
(0.0682927 -0.0153277 0)
(0.0289874 -0.0149072 0)
(0.00635917 -0.0147731 0)
(0.000515568 -0.0147593 0)
(1.02443e-05 -0.014759 0)
(3.36992e-08 -0.014759 0)
(1.36969e-11 -0.014759 0)
(-1.28447e-11 -0.014759 0)
(-3.35822e-08 -0.014759 0)
(-1.0291e-05 -0.014759 0)
(-0.000521482 -0.0147589 0)
(-0.00646652 -0.0147543 0)
(-0.0296107 -0.0147075 0)
(-0.0701475 -0.0145308 0)
(-0.108757 -0.0141648 0)
(-0.132431 -0.0136037 0)
(-0.143876 -0.0128645 0)
(-0.148815 -0.0119746 0)
(-0.150351 -0.010968 0)
(-0.149509 -0.00988153 0)
(-0.145109 -0.00875782 0)
(-0.131219 -0.00764296 0)
(-0.100768 -0.00663625 0)
(-0.0913334 -0.00570115 0)
(-0.365359 -0.00460643 0)
(-0.63784 -0.00306952 0)
(-0.323419 -0.000694198 0)
(0.336783 0.0234201 0)
(0.662096 -0.0479046 0)
(0.381839 -0.04705 0)
(0.0898489 -0.0544124 0)
(0.0804736 -0.0564353 0)
(0.106271 -0.0529611 0)
(0.124001 -0.0487962 0)
(0.132703 -0.0467954 0)
(0.137178 -0.0463953 0)
(0.138778 -0.0466935 0)
(0.136548 -0.0471442 0)
(0.127375 -0.0474206 0)
(0.105594 -0.0475143 0)
(0.0685549 -0.047597 0)
(0.0290868 -0.0477056 0)
(0.00638351 -0.0477554 0)
(0.000517595 -0.047763 0)
(1.02785e-05 -0.0477633 0)
(3.37718e-08 -0.0477633 0)
(1.32672e-11 -0.0477633 0)
(-1.27602e-11 -0.0477633 0)
(-3.32179e-08 -0.0477633 0)
(-1.01984e-05 -0.0477633 0)
(-0.000517548 -0.0477629 0)
(-0.00642385 -0.0477467 0)
(-0.0294276 -0.0475947 0)
(-0.0697089 -0.0470766 0)
(-0.108017 -0.0461079 0)
(-0.131401 -0.0447382 0)
(-0.142587 -0.0430202 0)
(-0.147312 -0.0409982 0)
(-0.148683 -0.0387185 0)
(-0.147733 -0.0362262 0)
(-0.143292 -0.0335797 0)
(-0.129478 -0.0308608 0)
(-0.0991542 -0.0283522 0)
(-0.0896134 -0.0258724 0)
(-0.363085 -0.0224382 0)
(-0.634374 -0.0171293 0)
(-0.32129 -0.00677402 0)
(0.315498 -0.0192109 0)
(0.640365 -0.0595174 0)
(0.37689 -0.0686652 0)
(0.0828008 -0.0834424 0)
(0.0773911 -0.0885307 0)
(0.105557 -0.0877275 0)
(0.123916 -0.0865694 0)
(0.132753 -0.0859556 0)
(0.136918 -0.0857905 0)
(0.138222 -0.0860142 0)
(0.135853 -0.0866193 0)
(0.1267 -0.0874906 0)
(0.105012 -0.0884452 0)
(0.0681083 -0.0893545 0)
(0.0288347 -0.090024 0)
(0.00630388 -0.0902813 0)
(0.000507977 -0.0903142 0)
(9.99958e-06 -0.0903151 0)
(3.24978e-08 -0.0903152 0)
(1.25126e-11 -0.0903152 0)
(-1.24198e-11 -0.0903152 0)
(-3.19749e-08 -0.0903152 0)
(-9.89711e-06 -0.0903151 0)
(-0.00050555 -0.0903142 0)
(-0.00630446 -0.0902789 0)
(-0.0289649 -0.0899679 0)
(-0.0687147 -0.0890086 0)
(-0.106504 -0.0874103 0)
(-0.129456 -0.0853704 0)
(-0.140271 -0.0829932 0)
(-0.144669 -0.0803252 0)
(-0.145752 -0.0773991 0)
(-0.144557 -0.0742377 0)
(-0.139939 -0.0708687 0)
(-0.126182 -0.0673659 0)
(-0.0959613 -0.0641592 0)
(-0.0856344 -0.0611986 0)
(-0.356934 -0.0560932 0)
(-0.622745 -0.0463532 0)
(-0.31344 -0.0273915 0)
(0.297942 -0.0599013 0)
(0.61444 -0.0872639 0)
(0.358784 -0.111606 0)
(0.0707057 -0.1242 0)
(0.0763443 -0.124161 0)
(0.108161 -0.120299 0)
(0.125708 -0.117335 0)
(0.133453 -0.116055 0)
(0.137122 -0.115667 0)
(0.137979 -0.115853 0)
(0.135126 -0.116538 0)
(0.125616 -0.117696 0)
(0.103798 -0.119195 0)
(0.0670335 -0.120791 0)
(0.0281936 -0.122018 0)
(0.00610384 -0.122488 0)
(0.00048498 -0.122547 0)
(9.3696e-06 -0.122548 0)
(2.97642e-08 -0.122548 0)
(1.12998e-11 -0.122548 0)
(-1.10308e-11 -0.122548 0)
(-2.9446e-08 -0.122548 0)
(-9.29626e-06 -0.122548 0)
(-0.000482572 -0.122547 0)
(-0.00609016 -0.122489 0)
(-0.0282036 -0.122005 0)
(-0.0672443 -0.120628 0)
(-0.104511 -0.118571 0)
(-0.127144 -0.116216 0)
(-0.137726 -0.113698 0)
(-0.141921 -0.11105 0)
(-0.142817 -0.108284 0)
(-0.14144 -0.105401 0)
(-0.13667 -0.102403 0)
(-0.123013 -0.0993447 0)
(-0.0932113 -0.0966785 0)
(-0.0818408 -0.0948287 0)
(-0.348779 -0.0909089 0)
(-0.606716 -0.0775399 0)
(-0.303018 -0.0606447 0)
(0.28913 -0.10477 0)
(0.59054 -0.1116 0)
(0.341297 -0.140664 0)
(0.0707029 -0.142836 0)
(0.081151 -0.137731 0)
(0.112134 -0.133515 0)
(0.128005 -0.131216 0)
(0.13436 -0.130195 0)
(0.137112 -0.130065 0)
(0.137383 -0.130653 0)
(0.134077 -0.131756 0)
(0.12414 -0.133306 0)
(0.102029 -0.135279 0)
(0.0653872 -0.137455 0)
(0.0271994 -0.139156 0)
(0.00579453 -0.139807 0)
(0.000449838 -0.139887 0)
(8.42787e-06 -0.139889 0)
(2.57956e-08 -0.139889 0)
(9.31454e-12 -0.139889 0)
(-9.41928e-12 -0.139889 0)
(-2.5674e-08 -0.139889 0)
(-8.39465e-06 -0.139889 0)
(-0.000448469 -0.139887 0)
(-0.00578257 -0.139809 0)
(-0.0271717 -0.139164 0)
(-0.0654055 -0.137419 0)
(-0.102252 -0.135023 0)
(-0.124759 -0.132521 0)
(-0.135293 -0.130043 0)
(-0.139452 -0.127584 0)
(-0.140309 -0.12513 0)
(-0.138889 -0.122685 0)
(-0.134103 -0.120215 0)
(-0.120666 -0.117877 0)
(-0.0916095 -0.116017 0)
(-0.0800746 -0.115187 0)
(-0.340273 -0.112739 0)
(-0.593582 -0.0973142 0)
(-0.297159 -0.0903152 0)
(0.291361 -0.124973 0)
(0.579851 -0.119058 0)
(0.328683 -0.142974 0)
(0.0735325 -0.142545 0)
(0.0853264 -0.138942 0)
(0.11444 -0.136037 0)
(0.128907 -0.135137 0)
(0.134562 -0.134958 0)
(0.136681 -0.135434 0)
(0.136349 -0.13645 0)
(0.13257 -0.137989 0)
(0.122221 -0.139946 0)
(0.0997993 -0.142314 0)
(0.0632973 -0.144928 0)
(0.025927 -0.147 0)
(0.00539933 -0.147791 0)
(0.000405559 -0.147886 0)
(7.27346e-06 -0.147889 0)
(2.11139e-08 -0.147889 0)
(7.23883e-12 -0.147889 0)
(-7.23287e-12 -0.147889 0)
(-2.10936e-08 -0.147889 0)
(-7.26512e-06 -0.147889 0)
(-0.000405066 -0.147887 0)
(-0.00539301 -0.147792 0)
(-0.0259008 -0.147011 0)
(-0.0632538 -0.144943 0)
(-0.0997908 -0.142259 0)
(-0.122345 -0.139652 0)
(-0.132968 -0.137217 0)
(-0.137187 -0.134891 0)
(-0.138097 -0.132653 0)
(-0.136704 -0.130446 0)
(-0.132037 -0.128386 0)
(-0.118967 -0.12646 0)
(-0.0906191 -0.12523 0)
(-0.0786817 -0.124482 0)
(-0.331556 -0.122852 0)
(-0.585108 -0.105 0)
(-0.296274 -0.10535 0)
(0.29483 -0.126246 0)
(0.573193 -0.116225 0)
(0.318665 -0.140475 0)
(0.0745886 -0.137969 0)
(0.0874221 -0.136633 0)
(0.115801 -0.135282 0)
(0.129045 -0.134893 0)
(0.134075 -0.135593 0)
(0.135674 -0.136593 0)
(0.134921 -0.138096 0)
(0.130708 -0.139945 0)
(0.119972 -0.142178 0)
(0.097228 -0.14482 0)
(0.0608714 -0.147764 0)
(0.0244409 -0.150125 0)
(0.00494052 -0.151017 0)
(0.000355347 -0.151121 0)
(6.0171e-06 -0.151124 0)
(1.62919e-08 -0.151124 0)
(5.24404e-12 -0.151124 0)
(-5.11788e-12 -0.151124 0)
(-1.63014e-08 -0.151124 0)
(-6.01822e-06 -0.151124 0)
(-0.000355293 -0.151121 0)
(-0.00493847 -0.151018 0)
(-0.0244262 -0.150131 0)
(-0.060827 -0.147786 0)
(-0.0971529 -0.144845 0)
(-0.1199 -0.142145 0)
(-0.130706 -0.139736 0)
(-0.135055 -0.137513 0)
(-0.136025 -0.135367 0)
(-0.134777 -0.133434 0)
(-0.130262 -0.131432 0)
(-0.117625 -0.130021 0)
(-0.0897031 -0.128773 0)
(-0.0777823 -0.127902 0)
(-0.321501 -0.128677 0)
(-0.576717 -0.104919 0)
(-0.297497 -0.111419 0)
(0.301018 -0.117069 0)
(0.566139 -0.110174 0)
(0.30773 -0.138344 0)
(0.077235 -0.133294 0)
(0.0879162 -0.132795 0)
(0.116116 -0.132559 0)
(0.128607 -0.133385 0)
(0.132925 -0.134225 0)
(0.134268 -0.135824 0)
(0.133119 -0.137559 0)
(0.128636 -0.139626 0)
(0.117524 -0.14199 0)
(0.094417 -0.144803 0)
(0.058185 -0.148007 0)
(0.0227921 -0.150596 0)
(0.00443891 -0.151554 0)
(0.000302412 -0.151661 0)
(4.76634e-06 -0.151663 0)
(1.18323e-08 -0.151663 0)
(3.49801e-12 -0.151663 0)
(-3.39208e-12 -0.151663 0)
(-1.18416e-08 -0.151663 0)
(-4.76876e-06 -0.151663 0)
(-0.000302484 -0.151661 0)
(-0.00443888 -0.151554 0)
(-0.022787 -0.150599 0)
(-0.0581596 -0.148022 0)
(-0.0943545 -0.144842 0)
(-0.117422 -0.142049 0)
(-0.128505 -0.139667 0)
(-0.132976 -0.137499 0)
(-0.134166 -0.135556 0)
(-0.132912 -0.1336 0)
(-0.128747 -0.132163 0)
(-0.116405 -0.130436 0)
(-0.0885775 -0.129485 0)
(-0.0785885 -0.128841 0)
(-0.309408 -0.132124 0)
(-0.568477 -0.103499 0)
(-0.302537 -0.108535 0)
(0.301474 -0.109564 0)
(0.552692 -0.103329 0)
(0.296386 -0.133573 0)
(0.0799355 -0.129281 0)
(0.08813 -0.12816 0)
(0.115233 -0.129314 0)
(0.12744 -0.130424 0)
(0.131724 -0.132144 0)
(0.132461 -0.133582 0)
(0.131257 -0.135508 0)
(0.126439 -0.137578 0)
(0.114984 -0.139987 0)
(0.09143 -0.142909 0)
(0.0552887 -0.146325 0)
(0.0210227 -0.149085 0)
(0.00391418 -0.150073 0)
(0.000249764 -0.150177 0)
(3.61122e-06 -0.150179 0)
(8.07801e-09 -0.150179 0)
(2.08167e-12 -0.150179 0)
(-2.05667e-12 -0.150179 0)
(-8.08204e-09 -0.150179 0)
(-3.6126e-06 -0.150179 0)
(-0.000249826 -0.150177 0)
(-0.00391463 -0.150073 0)
(-0.0210223 -0.149086 0)
(-0.0552794 -0.146332 0)
(-0.0913972 -0.142934 0)
(-0.114914 -0.140047 0)
(-0.126321 -0.137676 0)
(-0.131094 -0.135636 0)
(-0.132268 -0.133721 0)
(-0.131508 -0.132229 0)
(-0.127213 -0.13038 0)
(-0.115044 -0.129026 0)
(-0.0881662 -0.127582 0)
(-0.080325 -0.128158 0)
(-0.297081 -0.13158 0)
(-0.553986 -0.10066 0)
(-0.30235 -0.105843 0)
(0.307025 -0.10127 0)
(0.543003 -0.0978839 0)
(0.282722 -0.127003 0)
(0.0824505 -0.123725 0)
(0.0878848 -0.122202 0)
(0.113935 -0.123524 0)
(0.12588 -0.125578 0)
(0.129882 -0.127358 0)
(0.131027 -0.129019 0)
(0.129267 -0.130732 0)
(0.124319 -0.132681 0)
(0.112387 -0.135002 0)
(0.0883095 -0.137938 0)
(0.0522331 -0.141472 0)
(0.019181 -0.144321 0)
(0.00338739 -0.145297 0)
(0.000200184 -0.145393 0)
(2.61714e-06 -0.145394 0)
(5.18587e-09 -0.145394 0)
(1.23543e-12 -0.145394 0)
(-1.15212e-12 -0.145394 0)
(-5.18685e-09 -0.145394 0)
(-2.61759e-06 -0.145394 0)
(-0.000200212 -0.145393 0)
(-0.00338772 -0.145297 0)
(-0.0191819 -0.14432 0)
(-0.0522319 -0.141473 0)
(-0.0882985 -0.137948 0)
(-0.112354 -0.135037 0)
(-0.124254 -0.132756 0)
(-0.129166 -0.130865 0)
(-0.130884 -0.129219 0)
(-0.129693 -0.127619 0)
(-0.125661 -0.125901 0)
(-0.113709 -0.123901 0)
(-0.0877408 -0.122583 0)
(-0.0824409 -0.12393 0)
(-0.282911 -0.126889 0)
(-0.543677 -0.0973787 0)
(-0.307532 -0.100139 0)
(0.304737 -0.0904392 0)
(0.527895 -0.0890411 0)
(0.271484 -0.11701 0)
(0.0845613 -0.114089 0)
(0.0883237 -0.111803 0)
(0.11198 -0.111671 0)
(0.123746 -0.113602 0)
(0.128408 -0.115023 0)
(0.129209 -0.116582 0)
(0.127728 -0.117999 0)
(0.122324 -0.119545 0)
(0.109919 -0.121454 0)
(0.0851955 -0.124043 0)
(0.0491381 -0.127403 0)
(0.0173369 -0.130162 0)
(0.00288123 -0.13107 0)
(0.000155992 -0.131152 0)
(1.81945e-06 -0.131153 0)
(3.14399e-09 -0.131153 0)
(7.04601e-13 -0.131153 0)
(-5.8082e-13 -0.131153 0)
(-3.14403e-09 -0.131153 0)
(-1.81951e-06 -0.131153 0)
(-0.000155999 -0.131152 0)
(-0.00288136 -0.13107 0)
(-0.0173375 -0.130162 0)
(-0.0491392 -0.127402 0)
(-0.0851947 -0.124045 0)
(-0.10991 -0.121466 0)
(-0.122302 -0.119581 0)
(-0.127686 -0.118076 0)
(-0.12914 -0.116714 0)
(-0.128311 -0.115228 0)
(-0.12363 -0.1139 0)
(-0.111847 -0.112059 0)
(-0.0881936 -0.112277 0)
(-0.084475 -0.114557 0)
(-0.271495 -0.117432 0)
(-0.528209 -0.0892994 0)
(-0.30501 -0.0902679 0)
(0.308373 -0.0594957 0)
(0.517399 -0.068895 0)
(0.258585 -0.0943522 0)
(0.0874687 -0.0937228 0)
(0.0902146 -0.0898317 0)
(0.112201 -0.0880736 0)
(0.12265 -0.0872336 0)
(0.127011 -0.0874704 0)
(0.12816 -0.0877751 0)
(0.126412 -0.0888399 0)
(0.12099 -0.0898412 0)
(0.108052 -0.0909865 0)
(0.0825765 -0.0932054 0)
(0.046336 -0.0966243 0)
(0.0156478 -0.0992899 0)
(0.00243432 -0.100094 0)
(0.00011988 -0.10016 0)
(1.23624e-06 -0.100161 0)
(1.84283e-09 -0.100161 0)
(3.15404e-13 -0.100161 0)
(-3.30877e-13 -0.100161 0)
(-1.84272e-09 -0.100161 0)
(-1.23621e-06 -0.100161 0)
(-0.000119879 -0.10016 0)
(-0.00243434 -0.100094 0)
(-0.0156481 -0.0992898 0)
(-0.0463369 -0.0966237 0)
(-0.0825781 -0.0932045 0)
(-0.108053 -0.090988 0)
(-0.120987 -0.0898513 0)
(-0.126402 -0.0888672 0)
(-0.128139 -0.0878308 0)
(-0.126982 -0.0875687 0)
(-0.122607 -0.0873873 0)
(-0.112145 -0.0882842 0)
(-0.0901481 -0.0901089 0)
(-0.087409 -0.0940466 0)
(-0.258571 -0.0946953 0)
(-0.5175 -0.0691919 0)
(-0.308465 -0.0595276 0)
(0.29568 -0.0322824 0)
(0.494306 -0.0632721 0)
(0.247559 -0.0848113 0)
(0.0889173 -0.0868491 0)
(0.0937675 -0.085031 0)
(0.114484 -0.0824063 0)
(0.124327 -0.0799533 0)
(0.127886 -0.0776084 0)
(0.127889 -0.0755429 0)
(0.125737 -0.0744645 0)
(0.120256 -0.0748543 0)
(0.106677 -0.0768023 0)
(0.0797627 -0.08077 0)
(0.0432748 -0.0855007 0)
(0.0139931 -0.0886074 0)
(0.00204279 -0.0894206 0)
(9.16572e-05 -0.0894779 0)
(8.3571e-07 -0.0894786 0)
(1.07287e-09 -0.0894786 0)
(9.75968e-14 -0.0894786 0)
(-1.70199e-13 -0.0894786 0)
(-1.07286e-09 -0.0894786 0)
(-8.35693e-07 -0.0894786 0)
(-9.16561e-05 -0.0894779 0)
(-0.00204278 -0.0894206 0)
(-0.0139932 -0.0886074 0)
(-0.0432752 -0.0855005 0)
(-0.0797639 -0.0807691 0)
(-0.106679 -0.076801 0)
(-0.120258 -0.0748542 0)
(-0.125739 -0.0744684 0)
(-0.127889 -0.0755558 0)
(-0.127883 -0.0776369 0)
(-0.12432 -0.0799999 0)
(-0.114469 -0.0824793 0)
(-0.0937464 -0.0851321 0)
(-0.0888947 -0.0869837 0)
(-0.247544 -0.0849638 0)
(-0.49432 -0.0634132 0)
(-0.295697 -0.0323292 0)
(0.27851 -0.163674 0)
(0.46678 -0.216382 0)
(0.235865 -0.233602 0)
(0.0872571 -0.246751 0)
(0.0944958 -0.257934 0)
(0.117094 -0.271776 0)
(0.127273 -0.283892 0)
(0.131261 -0.29886 0)
(0.131189 -0.31214 0)
(0.127075 -0.324857 0)
(0.118737 -0.335511 0)
(0.102352 -0.344291 0)
(0.0741944 -0.352133 0)
(0.0387836 -0.359489 0)
(0.0118704 -0.363896 0)
(0.0015955 -0.3649 0)
(6.40214e-05 -0.364959 0)
(5.10009e-07 -0.36496 0)
(5.62574e-10 -0.36496 0)
(7.26025e-14 -0.36496 0)
(-8.92654e-14 -0.36496 0)
(-5.62386e-10 -0.36496 0)
(-5.10002e-07 -0.36496 0)
(-6.40207e-05 -0.364959 0)
(-0.00159549 -0.3649 0)
(-0.0118704 -0.363896 0)
(-0.0387837 -0.359489 0)
(-0.074195 -0.352133 0)
(-0.102353 -0.34429 0)
(-0.118739 -0.335508 0)
(-0.127079 -0.324855 0)
(-0.131193 -0.312139 0)
(-0.131264 -0.298863 0)
(-0.127273 -0.283899 0)
(-0.117091 -0.27179 0)
(-0.0944887 -0.25796 0)
(-0.0872467 -0.246789 0)
(-0.235858 -0.23365 0)
(-0.466779 -0.216432 0)
(-0.278512 -0.1637 0)
(0.244889 -0.288016 0)
(0.426922 -0.446761 0)
(0.218295 -0.488109 0)
(0.0654701 -0.518178 0)
(0.0696526 -0.543428 0)
(0.089469 -0.554664 0)
(0.0982268 -0.572153 0)
(0.100666 -0.583254 0)
(0.102838 -0.598709 0)
(0.103216 -0.607974 0)
(0.101529 -0.61755 0)
(0.0906588 -0.627892 0)
(0.0651174 -0.642399 0)
(0.03194 -0.657909 0)
(0.00877912 -0.665896 0)
(0.00101789 -0.667307 0)
(3.37919e-05 -0.66737 0)
(2.14665e-07 -0.66737 0)
(1.82223e-10 -0.66737 0)
(4.10621e-14 -0.66737 0)
(-1.1902e-14 -0.66737 0)
(-1.82114e-10 -0.66737 0)
(-2.14664e-07 -0.66737 0)
(-3.37917e-05 -0.66737 0)
(-0.00101789 -0.667307 0)
(-0.00877909 -0.665896 0)
(-0.0319399 -0.657909 0)
(-0.0651175 -0.642399 0)
(-0.0906593 -0.627891 0)
(-0.10153 -0.617548 0)
(-0.103219 -0.60797 0)
(-0.102842 -0.598704 0)
(-0.10067 -0.583248 0)
(-0.0982311 -0.572145 0)
(-0.0894732 -0.554657 0)
(-0.0696553 -0.543424 0)
(-0.0654684 -0.518179 0)
(-0.21829 -0.488116 0)
(-0.426914 -0.44677 0)
(-0.244883 -0.288023 0)
(0.125538 -0.141592 0)
(0.273963 -0.265447 0)
(0.167045 -0.300323 0)
(0.0339499 -0.318631 0)
(0.0593369 -0.333033 0)
(0.0894128 -0.329336 0)
(0.0997219 -0.333091 0)
(0.105671 -0.327784 0)
(0.107369 -0.327897 0)
(0.108919 -0.323082 0)
(0.0995431 -0.321978 0)
(0.0784062 -0.325143 0)
(0.0452687 -0.334693 0)
(0.0161413 -0.345741 0)
(0.00281425 -0.351088 0)
(0.000175269 -0.351931 0)
(2.75347e-06 -0.351963 0)
(7.71746e-09 -0.351963 0)
(2.47801e-12 -0.351963 0)
(-4.16572e-15 -0.351963 0)
(4.40376e-14 -0.351963 0)
(-2.40243e-12 -0.351963 0)
(-7.71734e-09 -0.351963 0)
(-2.75347e-06 -0.351963 0)
(-0.000175269 -0.351931 0)
(-0.00281425 -0.351088 0)
(-0.0161413 -0.345741 0)
(-0.0452686 -0.334693 0)
(-0.0784062 -0.325143 0)
(-0.0995431 -0.321978 0)
(-0.108919 -0.323081 0)
(-0.107369 -0.327894 0)
(-0.105671 -0.327779 0)
(-0.0997222 -0.333083 0)
(-0.0894133 -0.329326 0)
(-0.0593375 -0.333021 0)
(-0.0339503 -0.318619 0)
(-0.167045 -0.300314 0)
(-0.273962 -0.26544 0)
(-0.125537 -0.141591 0)
(0.125538 0.141592 0)
(0.273963 0.265447 0)
(0.167045 0.300323 0)
(0.0339499 0.318631 0)
(0.0593369 0.333033 0)
(0.0894128 0.329336 0)
(0.0997219 0.333091 0)
(0.105671 0.327784 0)
(0.107369 0.327897 0)
(0.108919 0.323082 0)
(0.0995431 0.321978 0)
(0.0784062 0.325143 0)
(0.0452687 0.334693 0)
(0.0161413 0.345741 0)
(0.00281425 0.351088 0)
(0.000175269 0.351931 0)
(2.75347e-06 0.351963 0)
(7.71754e-09 0.351963 0)
(2.5512e-12 0.351963 0)
(-8.92654e-15 0.351963 0)
(-5.2369e-14 0.351963 0)
(-2.46253e-12 0.351963 0)
(-7.71757e-09 0.351963 0)
(-2.75347e-06 0.351963 0)
(-0.000175269 0.351931 0)
(-0.00281425 0.351088 0)
(-0.0161413 0.345741 0)
(-0.0452686 0.334693 0)
(-0.0784062 0.325143 0)
(-0.0995431 0.321978 0)
(-0.108919 0.323081 0)
(-0.107369 0.327894 0)
(-0.105671 0.327779 0)
(-0.0997222 0.333083 0)
(-0.0894133 0.329326 0)
(-0.0593375 0.333021 0)
(-0.0339503 0.318619 0)
(-0.167045 0.300314 0)
(-0.273962 0.26544 0)
(-0.125537 0.141591 0)
(0.244889 0.288016 0)