/*--------------------------------*- C++ -*----------------------------------*\
| =========                 |                                                 |
| \\      /  F ield         | OpenFOAM: The Open Source CFD Toolbox           |
|  \\    /   O peration     | Version:  v1912                                 |
|   \\  /    A nd           | Website:  www.openfoam.com                      |
|    \\/     M anipulation  |                                                 |
\*---------------------------------------------------------------------------*/
FoamFile
{
    version     2.0;
    format      ascii;
    class       volTensorField;
    location    "1.66";
    object      grad(U);
}
// * * * * * * * * * * * * * * * * * * * * * * * * * * * * * * * * * * * * * //

dimensions      [0 0 -1 0 0 0 0];


internalField   nonuniform List<tensor> 
1900
(
(-0.152495 -8.00389e-06 0 -8.81985e-06 -6.06716e-06 0 0 0 0)
(-0.13033 -4.62735e-06 0 -2.42888e-05 -1.99445e-05 0 0 0 0)
(-0.115662 5.75958e-05 0 -4.56279e-05 -1.8265e-05 0 0 0 0)
(-0.0681299 0.000215277 0 -1.82311e-06 9.24029e-05 0 0 0 0)
(-0.0280376 0.000923899 0 0.000152115 0.000447364 0 0 0 0)
(-0.0105583 0.00109421 0 0.000688059 0.00185353 0 0 0 0)
(-0.00620568 -0.00160531 0 0.00180457 0.00228422 0 0 0 0)
(0.00188812 -0.0119601 0 0.0032892 -0.000645435 0 0 0 0)
(0.0271924 -0.0402831 0 0.00047769 -0.0173042 0 0 0 0)
(0.0103385 -0.125066 0 -0.0354842 -0.0741299 0 0 0 0)
(-0.152528 -1.80078e-05 0 -1.36785e-05 1.25958e-06 0 0 0 0)
(-0.130367 -7.57051e-06 0 -3.31737e-05 6.7443e-06 0 0 0 0)
(-0.11564 5.47516e-05 0 -7.10917e-05 5.88694e-06 0 0 0 0)
(-0.0679321 0.000250352 0 -6.13974e-06 -5.08515e-05 0 0 0 0)
(-0.0273477 0.00083723 0 0.00028 -0.00020939 0 0 0 0)
(-0.00890581 0.000742651 0 0.0012441 -0.00097475 0 0 0 0)
(-0.00360454 -0.000893658 0 0.00274249 -0.0013036 0 0 0 0)
(0.00056124 -0.00762837 0 0.00389151 0.000630558 0 0 0 0)
(-0.011581 -0.0332014 0 -0.00299874 0.0106565 0 0 0 0)
(-0.0744623 -0.0836955 0 -0.0534105 0.0409136 0 0 0 0)
(-0.152542 3.02855e-13 0 1.54312e-13 9.61515e-06 0 0 0 0)
(-0.130388 2.15488e-13 0 -5.1669e-14 2.64004e-05 0 0 0 0)
(-0.115635 -1.09717e-12 0 -5.6514e-14 2.47562e-05 0 0 0 0)
(-0.0677788 6.3521e-13 0 -5.24483e-14 -8.31029e-05 0 0 0 0)
(-0.0267873 -3.11361e-13 0 -7.31159e-14 -0.000475948 0 0 0 0)
(-0.00809577 3.32311e-14 0 -1.64189e-13 -0.00175756 0 0 0 0)
(-0.00355827 -1.56046e-13 0 -3.26616e-14 -0.00196125 0 0 0 0)
(-0.00385311 2.10374e-14 0 -4.01155e-14 2.97539e-05 0 0 0 0)
(-0.0301096 8.97424e-14 0 7.35902e-14 0.0132955 0 0 0 0)
(-0.0957122 6.12423e-14 0 2.26192e-13 0.0664326 0 0 0 0)
(-0.152528 1.80078e-05 0 1.36785e-05 1.25958e-06 0 0 0 0)
(-0.130367 7.57051e-06 0 3.31737e-05 6.7443e-06 0 0 0 0)
(-0.11564 -5.47516e-05 0 7.10917e-05 5.88694e-06 0 0 0 0)
(-0.0679321 -0.000250352 0 6.13974e-06 -5.08515e-05 0 0 0 0)
(-0.0273477 -0.00083723 0 -0.00028 -0.00020939 0 0 0 0)
(-0.00890581 -0.000742651 0 -0.0012441 -0.00097475 0 0 0 0)
(-0.00360454 0.000893658 0 -0.00274249 -0.0013036 0 0 0 0)
(0.00056124 0.00762837 0 -0.00389151 0.000630558 0 0 0 0)
(-0.011581 0.0332014 0 0.00299874 0.0106565 0 0 0 0)
(-0.0744623 0.0836955 0 0.0534105 0.0409136 0 0 0 0)
(-0.152495 8.00389e-06 0 8.81985e-06 -6.06716e-06 0 0 0 0)
(-0.13033 4.62735e-06 0 2.42888e-05 -1.99445e-05 0 0 0 0)
(-0.115662 -5.75958e-05 0 4.56279e-05 -1.8265e-05 0 0 0 0)
(-0.0681299 -0.000215277 0 1.82311e-06 9.24029e-05 0 0 0 0)
(-0.0280376 -0.000923899 0 -0.000152115 0.000447364 0 0 0 0)
(-0.0105583 -0.00109421 0 -0.000688059 0.00185353 0 0 0 0)
(-0.00620568 0.00160531 0 -0.00180457 0.00228422 0 0 0 0)
(0.00188812 0.0119601 0 -0.0032892 -0.000645435 0 0 0 0)
(0.0271924 0.0402831 0 -0.00047769 -0.0173042 0 0 0 0)
(0.0103385 0.125066 0 0.0354842 -0.0741299 0 0 0 0)
(-0.0792345 -0.222613 7.99964e-18 -0.124847 0.107183 -1.19995e-17 -3.18769e-17 -3.84553e-17 2.16831e-33)
(-0.179014 -0.272268 0 -0.168735 0.175289 0 8.50393e-17 3.0692e-17 0)
(-0.229892 -0.351084 0 -0.246545 0.212718 0 1.36383e-16 5.68527e-17 0)
(-0.641719 -0.29678 0 -0.553495 0.364354 0 0 0 0)
(-0.00859407 -0.946535 -2.23448e-16 -1.8728 2.06825 3.35172e-16 1.02985e-15 6.86563e-16 6.05657e-32)
(-0.157491 -0.126236 0 -0.105911 0.126018 0 -5.44368e-17 -1.90872e-17 0)
(-0.274186 -0.170758 0 -0.124631 0.204459 0 -8.50393e-17 -3.0692e-17 0)
(-0.454998 -0.267446 0 -0.241969 0.370243 0 -1.36383e-16 -5.68527e-17 0)
(-0.838207 -0.249259 0 -0.579567 0.68102 0 0 0 0)
(-0.656257 0.0819735 0 -0.793131 0.972304 0 0 0 0)
(-0.188678 -3.91599e-14 0 9.20688e-14 0.170481 0 0 0 0)
(-0.331679 3.27882e-13 0 1.27798e-14 0.270483 0 0 0 0)
(-0.588279 1.66524e-13 0 1.36278e-13 0.518011 0 0 0 0)
(-1.01257 -1.28234e-13 0 -1.54519e-13 0.984304 0 0 0 0)
(-0.839626 1.27639e-13 0 -2.12968e-13 1.51781 0 0 0 0)
(-0.157491 0.126236 0 0.105911 0.126018 0 -5.44368e-17 1.90872e-17 0)
(-0.274186 0.170758 0 0.124631 0.204459 0 -8.50393e-17 3.0692e-17 0)
(-0.454998 0.267446 0 0.241969 0.370243 0 -1.36383e-16 5.68527e-17 0)
(-0.838207 0.249259 0 0.579567 0.68102 0 0 0 0)
(-0.656257 -0.0819735 0 0.793131 0.972304 0 0 0 0)
(-0.0792345 0.222613 -7.99964e-18 0.124847 0.107183 -1.19995e-17 1.40751e-16 -7.66297e-17 2.16831e-33)
(-0.179014 0.272268 0 0.168735 0.175289 0 8.50393e-17 -3.0692e-17 0)
(-0.229892 0.351084 0 0.246545 0.212718 0 1.36383e-16 -5.68527e-17 0)
(-0.641719 0.29678 -2.11403e-17 0.553495 0.364354 -3.17104e-17 4.16747e-16 -2.77831e-16 5.73008e-33)
(-0.00859407 0.946535 2.23448e-16 1.8728 2.06825 3.35172e-16 -1.02985e-15 6.86563e-16 6.05657e-32)
(-0.100094 0.344449 2.40096e-18 -0.298728 -0.725761 2.16086e-17 -6.59853e-16 5.04598e-17 -6.5078e-34)
(0.230501 0.0145044 -7.10025e-19 -0.179664 -0.330395 -6.39022e-18 4.83658e-16 -4.31881e-17 -1.92453e-34)
(0.0703901 0.108231 0 0.0673197 -0.195427 0 0 0 0)
(-0.410434 0.469627 -1.6986e-18 0.578222 0.413077 -1.52874e-17 -3.30673e-16 5.11169e-17 4.60408e-34)
(-1.22787 0.474756 5.4817e-18 2.18918 1.74859 4.93353e-17 2.21708e-16 -2.46342e-17 1.48582e-33)
(0.0682361 0.312123 0 -0.360297 -0.241562 0 3.34425e-16 -1.43011e-17 0)
(0.313949 -0.00136468 0 -0.215807 -0.335014 0 -2.44534e-16 1.66189e-17 0)
(0.319627 0.111411 0 0.144903 -0.319325 0 0 0 0)
(0.431891 0.490406 0 0.874342 -0.574857 0 1.89204e-16 -3.53952e-17 0)
(1.097 0.379665 0 3.18332 -1.22805 0 -1.49765e-17 1.00778e-17 0)
(0.113213 7.48513e-14 0 -4.81868e-13 -0.466591 0 0 0 0)
(0.381588 7.56985e-14 0 -1.62167e-13 -0.433602 0 0 0 0)
(0.469602 3.28696e-13 0 8.01105e-13 -0.410132 0 0 0 0)
(0.888587 1.68182e-13 0 2.0692e-12 -0.960655 0 -6.51486e-17 2.84692e-29 0)
(1.65759 -2.62581e-13 0 2.76638e-12 -2.67701 0 2.99529e-17 -1.94568e-29 0)
(0.0682361 -0.312123 0 0.360297 -0.241562 0 3.34425e-16 1.43011e-17 0)
(0.313949 0.00136468 0 0.215807 -0.335014 0 -2.44534e-16 -1.66189e-17 0)
(0.319627 -0.111411 0 -0.144903 -0.319325 0 0 0 0)
(0.431891 -0.490406 0 -0.874342 -0.574857 0 1.89204e-16 3.53952e-17 0)
(1.097 -0.379665 0 -3.18332 -1.22805 0 -1.49765e-17 -1.00778e-17 0)
(-0.100094 -0.344449 0 0.298728 -0.725761 0 -3.34425e-16 -1.43011e-17 0)
(0.230501 -0.0145044 7.10025e-19 0.179664 -0.330395 -6.39022e-18 5.4109e-18 -9.95041e-18 -1.92453e-34)
(0.0703901 -0.108231 0 -0.0673197 -0.195427 0 0 0 0)
(-0.410434 -0.469627 1.6986e-18 -0.578222 0.413077 -1.52874e-17 1.74142e-17 -1.24405e-17 4.60408e-34)
(-1.22787 -0.474756 -5.4817e-18 -2.18918 1.74859 4.93353e-17 -2.21708e-16 -2.46342e-17 1.48582e-33)
(0.453576 -0.826417 0 10.0716 -0.00987325 0 0 0 0)
(1.13304 -0.916056 0 5.19606 0.600432 0 0 0 0)
(-0.605964 0.199498 0 2.51904 0.809169 0 0 0 0)
(-0.513678 0.485444 0 0.661362 0.602471 0 0 0 0)
(-0.184559 0.246758 0 0.155106 0.269163 0 0 0 0)
(0.042476 0.0801392 0 0.0392526 0.124654 0 0 0 0)
(0.186041 0.0304294 0 0.00291384 0.0581777 0 0 0 0)
(0.266955 0.00920095 0 0.00431233 0.036649 0 0 0 0)
(0.31486 0.00503367 0 0.00625801 0.0223909 0 0 0 0)
(0.336679 0.00327982 0 0.00521278 0.01477 0 0 0 0)
(0.336715 0.0025683 0 0.00358527 0.00968734 0 0 0 0)
(0.313148 0.001926 0 0.00251497 0.00605332 0 0 0 0)
(0.256436 0.00141079 0 0.0018331 0.00329553 0 0 0 0)
(0.163541 0.000884113 0 0.00111287 0.00132509 0 0 0 0)
(0.0677887 0.000389428 0 0.000387263 0.000297084 0 0 0 0)
(0.0144056 9.32457e-05 0 4.83823e-05 2.4562e-05 0 0 0 0)
(0.00111652 8.24244e-06 0 1.35696e-06 4.5551e-07 0 0 0 0)
(2.09415e-05 1.67647e-07 0 5.51469e-09 1.1521e-09 0 0 0 0)
(6.43827e-08 4.66139e-10 0 2.33151e-12 9.97847e-13 0 0 0 0)
(2.30692e-11 -1.74512e-13 0 7.40083e-16 2.74919e-13 0 0 0 0)
(3.23552e-11 2.17825e-13 0 -6.17047e-16 2.71765e-13 0 0 0 0)
(8.40238e-08 5.1023e-14 0 -1.69688e-14 7.63208e-13 0 0 0 0)
(2.57638e-05 8.23498e-13 0 2.16735e-14 -4.88519e-14 0 0 0 0)
(0.00130767 1.16677e-12 0 7.349e-14 1.43125e-12 0 0 0 0)
(0.0162435 -7.79679e-14 0 -1.33912e-12 2.78931e-12 0 0 0 0)
(0.0744669 -1.07235e-12 0 1.1523e-12 1.09169e-12 0 0 0 0)
(0.17679 2.00502e-13 0 -4.87029e-13 7.74592e-13 0 0 0 0)
(0.275461 4.63178e-13 0 2.7524e-13 1.10946e-12 0 0 0 0)
(0.338206 -4.26385e-13 0 2.41974e-13 1.05679e-12 0 0 0 0)
(0.371245 -4.78312e-13 0 2.02056e-14 8.77126e-13 0 0 0 0)
(0.388098 -1.05644e-12 0 3.25261e-14 -1.49066e-13 0 0 0 0)
(0.39568 3.59487e-13 0 -3.15404e-14 -7.50506e-14 0 0 0 0)
(0.395962 1.52214e-13 0 -1.21234e-13 -2.40545e-13 0 0 0 0)
(0.388502 -1.04061e-13 0 1.41932e-13 3.07762e-14 0 0 0 0)
(0.370135 2.57696e-13 0 4.13968e-14 3.30695e-13 0 0 0 0)
(0.335999 -1.50978e-14 0 3.5483e-14 -1.70164e-13 0 0 0 0)
(0.280357 1.93081e-14 0 -1.32076e-13 1.92836e-13 0 0 0 0)
(0.438104 -1.32271e-13 0 -3.35117e-14 -1.69877e-13 0 0 0 0)
(2.50392 -6.01177e-14 0 -4.73106e-14 -5.18629e-13 0 0 0 0)
(2.18898 -1.947e-13 0 1.97128e-13 -7.86824e-13 0 0 0 0)
(1.17467 -0.717044 0 8.51006 -1.15187 0 0 0 0)
(-0.29476 -0.79817 0 4.47613 1.67095 0 0 0 0)
(-1.47796 0.185617 0 2.33841 1.99708 0 0 0 0)
(-0.965896 0.353158 0 0.557182 0.985179 0 0 0 0)
(-0.293581 0.146934 0 0.0820416 0.328362 0 0 0 0)
(0.0231431 0.0424943 0 0.00818593 0.136949 0 0 0 0)
(0.183113 0.0155819 0 -0.00546341 0.0528835 0 0 0 0)
(0.268629 0.00431709 0 -0.000148563 0.0323483 0 0 0 0)
(0.315556 0.00228164 0 0.00307516 0.0212552 0 0 0 0)
(0.336463 0.001566 0 0.00296397 0.0150451 0 0 0 0)
(0.336366 0.00129192 0 0.00199971 0.00998088 0 0 0 0)
(0.3129 0.000978145 0 0.00133816 0.0062166 0 0 0 0)
(0.25624 0.000714838 0 0.000905196 0.00336025 0 0 0 0)
(0.163375 0.000442273 0 0.000500689 0.00136699 0 0 0 0)
(0.0676864 0.00019125 0 0.000168062 0.000321108 0 0 0 0)
(0.0143706 4.50083e-05 0 2.13692e-05 2.8335e-05 0 0 0 0)
(0.00111206 3.96138e-06 0 6.18478e-07 5.76285e-07 0 0 0 0)
(2.08112e-05 8.25005e-08 0 2.53671e-09 1.60203e-09 0 0 0 0)
(6.38485e-08 2.56902e-10 0 2.60092e-13 -1.90888e-13 0 0 0 0)
(2.30252e-11 -9.18593e-14 0 -1.92844e-15 -6.07333e-14 0 0 0 0)
(3.24236e-11 1.74482e-13 0 -3.18156e-15 -8.4939e-14 0 0 0 0)
(8.40237e-08 -4.50887e-14 0 3.7454e-13 -7.24503e-13 0 0 0 0)
(2.57638e-05 5.82516e-13 0 -8.42732e-13 -1.04088e-12 0 0 0 0)
(0.00130767 3.74403e-13 0 1.27232e-12 -2.07508e-12 0 0 0 0)
(0.0162435 6.60069e-14 0 7.81066e-13 -5.682e-12 0 0 0 0)
(0.0744669 -5.12633e-13 0 -1.17014e-12 -1.2822e-12 0 0 0 0)
(0.17679 -1.27458e-14 0 -6.54772e-13 -2.11099e-12 0 0 0 0)
(0.275461 5.09848e-13 0 3.57294e-14 -2.07285e-12 0 0 0 0)
(0.338206 -5.43766e-13 0 1.41439e-13 -2.40415e-12 0 0 0 0)
(0.371245 -3.07309e-13 0 -4.64236e-13 -3.04237e-12 0 0 0 0)
(0.388098 -6.1039e-13 0 -5.59843e-13 -1.00766e-12 0 0 0 0)
(0.39568 3.65558e-13 0 -1.1532e-13 -3.36394e-13 0 0 0 0)
(0.395962 2.02531e-13 0 2.0107e-13 -7.67801e-13 0 0 0 0)
(0.388502 -1.84178e-13 0 2.40496e-13 -2.18236e-13 0 0 0 0)
(0.370135 2.00585e-13 0 2.95692e-14 -1.54167e-12 0 0 0 0)
(0.335999 7.29893e-14 0 -1.79386e-13 -2.59512e-13 0 0 0 0)
(0.280357 9.36515e-15 0 6.89947e-14 -6.82944e-13 0 0 0 0)
(0.438104 -2.34762e-13 0 -6.11096e-14 -4.76714e-13 0 0 0 0)
(2.50392 -1.19625e-13 0 -2.66122e-13 -9.28108e-13 0 0 0 0)
(2.18898 -9.12713e-14 0 -4.29738e-13 -7.1218e-13 0 0 0 0)
(1.22266 -2.6072e-13 0 2.40397e-12 -2.71679 0 0 0 0)
(-0.662352 -1.17389e-13 0 6.61363e-13 2.42424 0 0 0 0)
(-1.74602 4.33745e-14 0 -1.98113e-13 2.77063 0 0 0 0)
(-1.17008 5.94439e-14 0 -1.17291e-13 1.14812 0 0 0 0)
(-0.344267 7.55448e-14 0 1.93185e-13 0.34267 0 0 0 0)
(0.01702 3.39043e-14 0 -1.23205e-13 0.13795 0 0 0 0)
(0.183617 -1.3019e-13 0 -3.26246e-13 0.0505216 0 0 0 0)
(0.269438 -1.16052e-13 0 -1.23205e-13 0.0308248 0 0 0 0)
(0.315766 2.66912e-13 0 2.24726e-13 0.0208416 0 0 0 0)
(0.336366 1.3119e-13 0 5.61814e-14 0.0151385 0 0 0 0)
(0.336242 -2.52289e-13 0 -1.76429e-13 0.0100754 0 0 0 0)
(0.31283 -1.82625e-13 0 -1.92199e-13 0.00625659 0 0 0 0)
(0.256193 -5.25953e-15 0 -7.44157e-14 0.00335062 0 0 0 0)
(0.163327 4.07023e-13 0 1.14149e-13 0.00134208 0 0 0 0)
(0.0676492 -2.63627e-13 0 -3.86955e-13 0.000309999 0 0 0 0)
(0.0143569 -3.22045e-13 0 2.38984e-13 2.72363e-05 0 0 0 0)
(0.00111031 2.36311e-13 0 3.13974e-15 5.6719e-07 0 0 0 0)
(2.07616e-05 1.73119e-13 0 3.87661e-13 1.76568e-09 0 0 0 0)
(6.36447e-08 7.67585e-14 0 -3.37856e-13 1.40822e-13 0 0 0 0)
(2.29926e-11 -1.4369e-13 0 -2.66041e-15 -1.77404e-14 0 0 0 0)
(3.24647e-11 2.47288e-14 0 -2.92904e-15 -2.26427e-14 0 0 0 0)
(8.40235e-08 -2.27069e-13 0 8.44464e-14 -1.08791e-12 0 0 0 0)
(2.57638e-05 4.30603e-13 0 -7.98938e-13 -1.83102e-12 0 0 0 0)
(0.00130767 -1.83377e-13 0 1.50982e-12 -1.80367e-12 0 0 0 0)
(0.0162435 1.52687e-13 0 -1.12182e-12 -4.23758e-12 0 0 0 0)
(0.0744669 -3.35124e-14 0 4.85889e-13 -1.34394e-12 0 0 0 0)
(0.17679 -2.95038e-14 0 -9.89026e-13 -2.13271e-12 0 0 0 0)
(0.275461 3.77896e-13 0 -5.91383e-15 -1.73524e-12 0 0 0 0)
(0.338206 -7.08429e-13 0 -5.1746e-14 -2.69385e-12 0 0 0 0)
(0.371245 -7.20634e-14 0 -2.08955e-13 -3.01565e-12 0 0 0 0)
(0.388098 -2.69243e-13 0 -1.70515e-13 -1.06606e-12 0 0 0 0)
(0.39568 4.29265e-13 0 -1.59673e-13 -9.72574e-13 0 0 0 0)
(0.395962 1.86587e-13 0 3.94255e-14 -8.64243e-13 0 0 0 0)
(0.388502 -3.29185e-13 0 3.35117e-14 -7.63502e-13 0 0 0 0)
(0.370135 2.45688e-13 0 1.14334e-13 -1.64676e-12 0 0 0 0)
(0.335999 2.34712e-13 0 1.02506e-13 -9.02674e-14 0 0 0 0)
(0.280357 -4.38778e-14 0 -6.30809e-14 -4.14444e-13 0 0 0 0)
(0.438104 -2.03592e-13 0 -1.04478e-13 -5.29572e-13 0 0 0 0)
(2.50392 -1.28617e-13 0 -6.50521e-14 -3.44969e-13 0 0 0 0)
(2.18898 -1.31885e-13 0 -4.25796e-13 -5.41943e-14 0 0 0 0)
(1.17467 0.717044 0 -8.51006 -1.15187 0 0 0 0)
(-0.29476 0.79817 0 -4.47613 1.67095 0 0 0 0)
(-1.47796 -0.185617 0 -2.33841 1.99708 0 0 0 0)
(-0.965896 -0.353158 0 -0.557182 0.985179 0 0 0 0)
(-0.293581 -0.146934 0 -0.0820416 0.328362 0 0 0 0)
(0.0231431 -0.0424943 0 -0.00818593 0.136949 0 0 0 0)
(0.183113 -0.0155819 0 0.00546341 0.0528835 0 0 0 0)
(0.268629 -0.00431709 0 0.000148563 0.0323483 0 0 0 0)
(0.315556 -0.00228164 0 -0.00307516 0.0212552 0 0 0 0)
(0.336463 -0.001566 0 -0.00296397 0.0150451 0 0 0 0)
(0.336366 -0.00129192 0 -0.00199971 0.00998088 0 0 0 0)
(0.3129 -0.000978145 0 -0.00133816 0.0062166 0 0 0 0)
(0.25624 -0.000714838 0 -0.000905196 0.00336025 0 0 0 0)
(0.163375 -0.000442273 0 -0.000500689 0.00136699 0 0 0 0)
(0.0676864 -0.00019125 0 -0.000168062 0.000321108 0 0 0 0)
(0.0143706 -4.50083e-05 0 -2.13692e-05 2.8335e-05 0 0 0 0)
(0.00111206 -3.96138e-06 0 -6.18477e-07 5.76285e-07 0 0 0 0)
(2.08112e-05 -8.25002e-08 0 -2.53601e-09 1.60247e-09 0 0 0 0)
(6.38484e-08 -2.56757e-10 0 -9.35561e-13 -5.44887e-13 0 0 0 0)
(2.31227e-11 -1.39413e-13 0 -1.28901e-15 -7.24987e-14 0 0 0 0)
(3.2449e-11 -1.36841e-13 0 2.60313e-15 -7.16365e-14 0 0 0 0)
(8.40234e-08 -5.71163e-13 0 -3.19736e-13 -9.87977e-13 0 0 0 0)
(2.57638e-05 3.74296e-13 0 -8.08031e-13 -2.45556e-12 0 0 0 0)
(0.00130767 -3.25688e-13 0 1.4138e-12 -1.65357e-12 0 0 0 0)
(0.0162435 1.99747e-13 0 -2.31973e-12 -2.98249e-12 0 0 0 0)
(0.0744669 9.96957e-14 0 1.32608e-12 -1.5328e-12 0 0 0 0)
(0.17679 -1.26579e-13 0 -1.07465e-12 -2.74496e-12 0 0 0 0)
(0.275461 3.46605e-13 0 4.26289e-14 -2.09939e-12 0 0 0 0)
(0.338206 -9.16249e-13 0 -3.55815e-13 -2.86037e-12 0 0 0 0)
(0.371245 1.66229e-13 0 8.82146e-14 -3.39669e-12 0 0 0 0)
(0.388098 -1.60405e-14 0 2.69079e-13 -9.5961e-13 0 0 0 0)
(0.39568 4.24269e-13 0 -1.5376e-13 -1.55083e-12 0 0 0 0)
(0.395962 2.63352e-13 0 -2.66122e-14 -1.16733e-12 0 0 0 0)
(0.388502 -4.1182e-13 0 -2.08955e-13 -7.34754e-13 0 0 0 0)
(0.370135 3.96435e-13 0 6.89947e-14 -1.24241e-12 0 0 0 0)
(0.335999 4.31482e-13 0 3.07519e-13 -1.01038e-13 0 0 0 0)
(0.280357 -1.18433e-13 0 -1.65587e-13 -6.16699e-13 0 0 0 0)
(0.438104 -2.14551e-13 0 -1.87271e-13 -4.76564e-13 0 0 0 0)
(2.50392 1.8667e-14 0 -3.5483e-14 -7.7206e-13 0 0 0 0)
(2.18898 -6.68239e-15 0 -1.57702e-14 2.86465e-13 0 0 0 0)
(0.453576 0.826417 0 -10.0716 -0.00987325 0 0 0 0)
(1.13304 0.916056 0 -5.19606 0.600432 0 0 0 0)
(-0.605964 -0.199498 0 -2.51904 0.809169 0 0 0 0)
(-0.513678 -0.485444 0 -0.661362 0.602471 0 0 0 0)
(-0.184559 -0.246758 0 -0.155106 0.269163 0 0 0 0)
(0.042476 -0.0801392 0 -0.0392526 0.124654 0 0 0 0)
(0.186041 -0.0304294 0 -0.00291384 0.0581777 0 0 0 0)
(0.266955 -0.00920095 0 -0.00431233 0.036649 0 0 0 0)
(0.31486 -0.00503367 0 -0.00625801 0.0223909 0 0 0 0)
(0.336679 -0.00327982 0 -0.00521278 0.01477 0 0 0 0)
(0.336715 -0.0025683 0 -0.00358527 0.00968734 0 0 0 0)
(0.313148 -0.001926 0 -0.00251497 0.00605332 0 0 0 0)
(0.256436 -0.00141079 0 -0.0018331 0.00329553 0 0 0 0)
(0.163541 -0.000884113 0 -0.00111287 0.00132509 0 0 0 0)
(0.0677887 -0.000389428 0 -0.000387263 0.000297084 0 0 0 0)
(0.0144056 -9.32457e-05 0 -4.83823e-05 2.4562e-05 0 0 0 0)
(0.00111652 -8.24244e-06 0 -1.35696e-06 4.5551e-07 0 0 0 0)
(2.09415e-05 -1.67646e-07 0 -5.51455e-09 1.15263e-09 0 0 0 0)
(6.43825e-08 -4.66119e-10 0 -2.33886e-12 2.03752e-13 0 0 0 0)
(2.32655e-11 -6.01736e-15 0 2.21719e-16 2.67599e-13 0 0 0 0)
(3.23721e-11 -2.41592e-13 0 3.30568e-15 2.69814e-13 0 0 0 0)
(8.40233e-08 -9.20575e-13 0 -3.21788e-14 5.56579e-13 0 0 0 0)
(2.57638e-05 2.36976e-13 0 2.27831e-13 1.50494e-12 0 0 0 0)
(0.00130767 -3.36665e-13 0 -1.26775e-13 -6.4154e-13 0 0 0 0)
(0.0162435 1.87819e-13 0 -1.03765e-13 2.3571e-12 0 0 0 0)
(0.0744669 3.55886e-14 0 3.76853e-13 -6.51675e-13 0 0 0 0)
(0.17679 -1.94329e-13 0 -4.58938e-14 1.42924e-12 0 0 0 0)
(0.275461 3.44322e-13 0 -1.89735e-14 2.70371e-13 0 0 0 0)
(0.338206 -1.08583e-12 0 9.36356e-14 7.49372e-13 0 0 0 0)
(0.371245 4.80884e-13 0 -1.25176e-13 1.98947e-12 0 0 0 0)
(0.388098 2.67736e-13 0 -2.5528e-13 -1.63387e-14 0 0 0 0)
(0.39568 3.68838e-13 0 6.11096e-14 7.46406e-13 0 0 0 0)
(0.395962 4.2399e-13 0 1.77415e-14 -1.98373e-13 0 0 0 0)
(0.388502 -3.51026e-13 0 -5.7167e-14 5.22096e-13 0 0 0 0)
(0.370135 4.30042e-13 0 3.15404e-14 7.44138e-13 0 0 0 0)
(0.335999 4.16736e-13 0 -8.08223e-14 -1.27643e-13 0 0 0 0)
(0.280357 -1.53122e-13 0 -2.75979e-14 -4.32916e-13 0 0 0 0)
(0.438104 -2.48788e-13 0 1.57702e-14 -5.11179e-14 0 0 0 0)
(2.50392 9.33553e-14 0 2.75979e-14 -1.95797e-13 0 0 0 0)
(2.18898 1.7605e-13 0 3.94255e-14 -4.13291e-13 0 0 0 0)
(2.47069 1.04575 0 -4.06245 -0.0690939 0 0 0 0)
(2.79185 1.17563 0 -2.43546 0.120788 0 0 0 0)
(0.358278 -0.168288 0 -1.35124 0.175387 0 0 0 0)
(-0.00594011 -0.538934 0 -0.511655 0.196471 0 0 0 0)
(-0.029405 -0.331234 0 -0.210555 0.156465 0 0 0 0)
(0.0962554 -0.131313 0 -0.0740696 0.0985799 0 0 0 0)
(0.201643 -0.0536177 0 -0.0341982 0.0580717 0 0 0 0)
(0.268467 -0.0211183 0 -0.0186927 0.0373982 0 0 0 0)
(0.315794 -0.0128237 0 -0.011915 0.0219365 0 0 0 0)
(0.33789 -0.00755297 0 -0.00790007 0.0136366 0 0 0 0)
(0.337655 -0.00528387 0 -0.00557231 0.00859897 0 0 0 0)
(0.313713 -0.00389159 0 -0.00418767 0.00505727 0 0 0 0)
(0.256893 -0.00287603 0 -0.00310748 0.00249714 0 0 0 0)
(0.164091 -0.00181224 0 -0.00184715 0.000884678 0 0 0 0)
(0.0682358 -0.000777894 0 -0.000616533 0.000170067 0 0 0 0)
(0.0145723 -0.000175301 0 -7.38292e-05 1.09248e-05 0 0 0 0)
(0.00113725 -1.44178e-05 0 -1.99077e-06 1.70137e-07 0 0 0 0)
(2.15118e-05 -2.69779e-07 0 -8.6078e-09 2.71544e-09 0 0 0 0)
(6.669e-08 -7.37527e-10 0 -4.22355e-12 1.83598e-09 0 0 0 0)
(2.44267e-11 -2.52212e-13 0 -1.4068e-15 1.83531e-09 0 0 0 0)
(3.25176e-11 1.65546e-13 0 -4.51206e-16 1.8353e-09 0 0 0 0)
(8.40237e-08 6.07603e-13 0 2.65494e-13 1.83582e-09 0 0 0 0)
(2.57638e-05 -2.18475e-13 0 9.61448e-14 1.83662e-09 0 0 0 0)
(0.00130767 2.21542e-13 0 -2.94866e-14 1.83542e-09 0 0 0 0)
(0.0162435 2.07181e-13 0 4.26959e-13 1.83696e-09 0 0 0 0)
(0.0744669 -4.08203e-13 0 -2.78854e-12 1.82664e-09 0 0 0 0)
(0.17679 5.30132e-13 0 -1.20622e-11 1.78613e-09 0 0 0 0)
(0.275461 -7.72158e-14 0 -2.84569e-11 1.66876e-09 0 0 0 0)
(0.338206 3.58169e-13 0 -4.33141e-11 1.46586e-09 0 0 0 0)
(0.371245 -6.77899e-13 0 -5.19267e-11 1.19739e-09 0 0 0 0)
(0.388098 -1.1239e-12 0 -5.21399e-11 9.01238e-10 0 0 0 0)
(0.39568 3.74176e-13 0 -4.48062e-11 6.28905e-10 0 0 0 0)
(0.395962 -6.3089e-14 0 -3.42711e-11 4.03238e-10 0 0 0 0)
(0.388502 1.09099e-13 0 -2.30352e-11 2.40411e-10 0 0 0 0)
(0.370135 -4.99861e-14 0 -1.40349e-11 1.33364e-10 0 0 0 0)
(0.335999 -2.89803e-13 0 -7.95354e-12 7.00302e-11 0 0 0 0)
(0.280357 -3.03208e-14 0 -4.42459e-12 3.59049e-11 0 0 0 0)
(0.438104 -2.6227e-14 0 -3.01955e-12 1.58671e-11 0 0 0 0)
(2.50392 -2.94873e-13 0 -1.30446e-12 5.55887e-12 0 0 0 0)
(2.18898 -3.54395e-13 0 -3.18499e-12 -1.7824e-12 0 0 0 0)
(2.36934 0.883745 0 -0.55445 0.349984 0 0 0 0)
(2.85615 1.01246 0 -0.770159 -0.191465 0 0 0 0)
(0.730832 -0.143304 0 -0.6166 -0.171569 0 0 0 0)
(0.313258 -0.474996 0 -0.384568 -0.077035 0 0 0 0)
(0.153915 -0.29579 0 -0.214065 0.0329208 0 0 0 0)
(0.183582 -0.147514 0 -0.107994 0.0515901 0 0 0 0)
(0.231039 -0.0769519 0 -0.0646382 0.0453247 0 0 0 0)
(0.287617 -0.0376317 0 -0.0352964 0.0284777 0 0 0 0)
(0.32476 -0.023754 0 -0.0198366 0.0181987 0 0 0 0)
(0.342141 -0.013841 0 -0.012424 0.0110208 0 0 0 0)
(0.339789 -0.0093795 0 -0.00880315 0.00632812 0 0 0 0)
(0.315221 -0.00675193 0 -0.00653661 0.00316233 0 0 0 0)
(0.258447 -0.00464595 0 -0.00452312 0.00122023 0 0 0 0)
(0.165647 -0.00262888 0 -0.00242531 0.000277586 0 0 0 0)
(0.0692577 -0.0010231 0 -0.00073462 2.11151e-05 0 0 0 0)
(0.0149084 -0.000212964 0 -8.56576e-05 4.20977e-06 0 0 0 0)
(0.00117654 -1.5456e-05 0 -2.37963e-06 1.79897e-06 0 0 0 0)
(2.2554e-05 -2.75061e-07 0 -1.03665e-08 1.64625e-06 0 0 0 0)
(7.14399e-08 -1.16871e-09 0 -5.09829e-12 1.64559e-06 0 0 0 0)
(2.67123e-11 -5.28319e-13 0 -5.28655e-15 1.64559e-06 0 0 0 0)
(3.25513e-11 3.21929e-14 0 8.13751e-15 1.64559e-06 0 0 0 0)
(8.40231e-08 -4.67396e-13 0 3.02499e-14 1.64559e-06 0 0 0 0)
(2.57638e-05 1.00988e-13 0 7.04179e-13 1.64559e-06 0 0 0 0)
(0.00130767 -3.08471e-13 0 -6.60624e-12 1.64559e-06 0 0 0 0)
(0.0162435 -8.28347e-12 0 -2.40741e-10 1.64519e-06 0 0 0 0)
(0.0744669 -4.87121e-11 0 -2.64983e-09 1.63954e-06 0 0 0 0)
(0.17679 -1.52722e-10 0 -1.10549e-08 1.61011e-06 0 0 0 0)
(0.275461 -3.08048e-10 0 -2.51167e-08 1.53094e-06 0 0 0 0)
(0.338206 -4.56089e-10 0 -3.95255e-08 1.38932e-06 0 0 0 0)
(0.371245 -5.42993e-10 0 -4.94898e-08 1.1942e-06 0 0 0 0)
(0.388098 -5.46802e-10 0 -5.29482e-08 9.69199e-07 0 0 0 0)
(0.39568 -4.79524e-10 0 -5.02006e-08 7.41712e-07 0 0 0 0)
(0.395962 -3.73682e-10 0 -4.29489e-08 5.34753e-07 0 0 0 0)
(0.388502 -2.60658e-10 0 -3.34383e-08 3.63497e-07 0 0 0 0)
(0.370135 -1.63497e-10 0 -2.36396e-08 2.33863e-07 0 0 0 0)
(0.335999 -9.312e-11 0 -1.52808e-08 1.45668e-07 0 0 0 0)
(0.280357 -5.24124e-11 0 -9.91889e-09 8.86568e-08 0 0 0 0)
(0.438104 -2.96106e-11 0 -8.67264e-09 4.67647e-08 0 0 0 0)
(2.50392 -1.67062e-11 0 -4.31972e-09 1.86315e-08 0 0 0 0)
(2.18898 -6.61383e-12 0 -1.71032e-10 6.47561e-10 0 0 0 0)
(2.26282 0.523985 0 -0.0423149 0.28616 0 0 0 0)
(2.73196 0.673041 0 -0.185853 -0.279007 0 0 0 0)
(0.729848 -0.0580184 0 -0.242651 -0.280286 0 0 0 0)
(0.381958 -0.341881 0 -0.25527 -0.15557 0 0 0 0)
(0.237111 -0.207286 0 -0.174285 -0.0270499 0 0 0 0)
(0.240248 -0.11936 0 -0.124199 0.00717811 0 0 0 0)
(0.271697 -0.0758897 0 -0.0751262 0.0212145 0 0 0 0)
(0.311639 -0.0472578 0 -0.044745 0.0145452 0 0 0 0)
(0.337835 -0.0296457 0 -0.0267138 0.0110436 0 0 0 0)
(0.348522 -0.0189919 0 -0.0171658 0.00663989 0 0 0 0)
(0.343328 -0.0128566 0 -0.0118368 0.00329083 0 0 0 0)
(0.317837 -0.00881374 0 -0.00823813 0.00116973 0 0 0 0)
(0.260855 -0.00565587 0 -0.00530348 0.000267125 0 0 0 0)
(0.167742 -0.00296774 0 -0.00270004 0.000165437 0 0 0 0)
(0.0704904 -0.00104133 0 -0.000810438 0.000221059 0 0 0 0)
(0.0152779 -0.000193915 0 -9.01565e-05 0.000208198 0 0 0 0)
(0.00121978 -1.68881e-05 0 -2.44671e-06 0.000204301 0 0 0 0)
(2.38049e-05 -4.17582e-07 0 -1.03016e-08 0.000204208 0 0 0 0)
(7.66796e-08 -1.37492e-09 0 -5.1475e-12 0.000204209 0 0 0 0)
(2.93474e-11 -5.24273e-13 0 1.18594e-13 0.000204209 0 0 0 0)
(3.25518e-11 -8.23872e-15 0 1.99386e-13 0.000204209 0 0 0 0)
(8.40244e-08 1.29797e-12 0 -2.19973e-13 0.000204209 0 0 0 0)
(2.57638e-05 -7.25618e-12 0 -1.00569e-12 0.000204209 0 0 0 0)
(0.00130767 -3.85636e-10 0 -7.78137e-10 0.000204208 0 0 0 0)
(0.0162435 -5.83008e-09 0 -3.21789e-08 0.000204169 0 0 0 0)
(0.0744669 -3.38082e-08 0 -3.36342e-07 0.000203633 0 0 0 0)
(0.17679 -1.04647e-07 0 -1.35928e-06 0.000200929 0 0 0 0)
(0.275461 -2.12758e-07 0 -3.05996e-06 0.000193758 0 0 0 0)
(0.338206 -3.24497e-07 0 -4.89295e-06 0.000180853 0 0 0 0)
(0.371245 -4.04847e-07 0 -6.36548e-06 0.000162575 0 0 0 0)
(0.388098 -4.36031e-07 0 -7.22115e-06 0.000140445 0 0 0 0)
(0.39568 -4.18648e-07 0 -7.40078e-06 0.000116472 0 0 0 0)
(0.395962 -3.64462e-07 0 -6.97341e-06 9.26418e-05 0 0 0 0)
(0.388502 -2.89948e-07 0 -6.09307e-06 7.06988e-05 0 0 0 0)
(0.370135 -2.09908e-07 0 -4.91098e-06 5.1867e-05 0 0 0 0)
(0.335999 -1.39926e-07 0 -3.65637e-06 3.725e-05 0 0 0 0)
(0.280357 -9.53066e-08 0 -2.72551e-06 2.63734e-05 0 0 0 0)
(0.438104 -6.7479e-08 0 -2.90966e-06 1.63884e-05 0 0 0 0)
(2.50392 -4.44404e-08 0 -1.9214e-06 7.66592e-06 0 0 0 0)
(2.18898 -1.73303e-08 0 -9.91393e-08 5.46448e-07 0 0 0 0)
(2.23102 0.33913 0 0.00563039 0.189298 0 0 0 0)
(2.6631 0.466609 0 -0.0370373 -0.175718 0 0 0 0)
(0.663939 -0.0243564 0 -0.110758 -0.232503 0 0 0 0)
(0.379138 -0.230968 0 -0.175836 -0.127448 0 0 0 0)
(0.28022 -0.13896 0 -0.140914 -0.0326869 0 0 0 0)
(0.279135 -0.101004 0 -0.109598 -0.00934614 0 0 0 0)
(0.307603 -0.0698527 0 -0.0717716 0.00203734 0 0 0 0)
(0.334268 -0.0474328 0 -0.0458639 0.00494758 0 0 0 0)
(0.351336 -0.0313718 0 -0.0296749 0.00551927 0 0 0 0)
(0.356477 -0.0213118 0 -0.0199104 0.00489424 0 0 0 0)
(0.348392 -0.0146507 0 -0.0137949 0.00436515 0 0 0 0)
(0.321517 -0.00966569 0 -0.00937285 0.00427798 0 0 0 0)
(0.263784 -0.00561373 0 -0.00567411 0.00454234 0 0 0 0)
(0.169976 -0.00267327 0 -0.00264672 0.00486615 0 0 0 0)
(0.0717727 -0.000981895 0 -0.000734462 0.00499873 0 0 0 0)
(0.015687 -0.000229112 0 -7.59523e-05 0.0050248 0 0 0 0)
(0.00126341 -1.93007e-05 0 -1.89021e-06 0.00503119 0 0 0 0)
(2.49118e-05 -3.64264e-07 0 -7.79907e-09 0.00503146 0 0 0 0)
(8.1367e-08 -1.08993e-09 0 -4.48612e-12 0.00503146 0 0 0 0)
(3.18648e-11 -2.7189e-13 0 -2.12535e-14 0.00503146 0 0 0 0)
(3.2225e-11 6.25802e-15 0 9.94816e-14 0.00503146 0 0 0 0)
(8.4022e-08 -1.47076e-12 0 -2.6842e-13 0.00503146 0 0 0 0)
(2.57631e-05 -6.69137e-10 0 -9.41351e-11 0.00503146 0 0 0 0)
(0.00130764 -3.80453e-08 0 -2.20898e-08 0.00503144 0 0 0 0)
(0.0162431 -5.53587e-07 0 -8.79123e-07 0.00503068 0 0 0 0)
(0.0744656 -3.12264e-06 0 -8.7258e-06 0.00502066 0 0 0 0)
(0.176787 -9.51644e-06 0 -3.37302e-05 0.00497241 0 0 0 0)
(0.275457 -1.93457e-05 0 -7.4236e-05 0.00484837 0 0 0 0)
(0.338203 -3.00498e-05 0 -0.000119036 0.00462703 0 0 0 0)
(0.371243 -3.89398e-05 0 -0.000158711 0.00430928 0 0 0 0)
(0.388097 -4.44268e-05 0 -0.000187941 0.00391152 0 0 0 0)
(0.39568 -4.60649e-05 0 -0.000204412 0.00345788 0 0 0 0)
(0.395964 -4.41091e-05 0 -0.000207631 0.0029748 0 0 0 0)
(0.388504 -3.92923e-05 0 -0.000198713 0.00249076 0 0 0 0)
(0.370137 -3.22326e-05 0 -0.000177703 0.00203099 0 0 0 0)
(0.336001 -2.45667e-05 0 -0.000147402 0.00163564 0 0 0 0)
(0.280358 -2.0103e-05 0 -0.000120783 0.00130778 0 0 0 0)
(0.438104 -1.80272e-05 0 -0.000158033 0.000940825 0 0 0 0)
(2.50393 -1.52659e-05 0 -0.000132171 0.000506128 0 0 0 0)
(2.18898 -6.86059e-06 0 -9.63489e-06 7.68102e-05 0 0 0 0)
(2.22171 0.172243 0 0.0149885 0.17537 0 0 0 0)
(2.6198 0.266579 0 0.0153925 -0.105309 0 0 0 0)
(0.596096 -0.0115036 0 -0.0475875 -0.162755 0 0 0 0)
(0.352898 -0.149331 0 -0.113625 -0.0774668 0 0 0 0)
(0.30094 -0.0934791 0 -0.107777 -0.0237895 0 0 0 0)
(0.306877 -0.0858982 0 -0.084589 -0.00452439 0 0 0 0)
(0.333114 -0.0621157 0 -0.0602443 0.00874668 0 0 0 0)
(0.352205 -0.0439025 0 -0.0412936 0.0177208 0 0 0 0)
(0.362845 -0.0296971 0 -0.0278185 0.0230207 0 0 0 0)
(0.363825 -0.0201041 0 -0.0187037 0.0268126 0 0 0 0)
(0.353483 -0.0134504 0 -0.0124818 0.0300907 0 0 0 0)
(0.325662 -0.008643 0 -0.00799911 0.0329597 0 0 0 0)
(0.267337 -0.00508908 0 -0.00445849 0.0350127 0 0 0 0)
(0.172502 -0.00252796 0 -0.00181201 0.036185 0 0 0 0)
(0.0729676 -0.000888457 0 -0.000411376 0.0368088 0 0 0 0)
(0.0159839 -0.00016263 0 -3.84226e-05 0.0370259 0 0 0 0)
(0.00129296 -1.04701e-05 0 -8.83218e-07 0.0370475 0 0 0 0)
(2.56264e-05 -1.61601e-07 0 -3.30719e-09 0.037048 0 0 0 0)
(8.4195e-08 -4.28229e-10 0 -1.94612e-12 0.037048 0 0 0 0)
(3.37663e-11 -8.18594e-13 0 -4.62644e-13 0.037048 0 0 0 0)
(3.23136e-11 -1.44993e-13 0 -5.18107e-13 0.037048 0 0 0 0)
(8.39336e-08 -4.55802e-11 0 -7.33915e-13 0.037048 0 0 0 0)
(2.57425e-05 -1.37897e-08 0 -8.40577e-10 0.037048 0 0 0 0)
(0.00130683 -7.4987e-07 0 -1.97291e-07 0.0370479 0 0 0 0)
(0.0162351 -1.03952e-05 0 -7.53331e-06 0.0370432 0 0 0 0)
(0.0744352 -5.61881e-05 0 -7.08656e-05 0.0369861 0 0 0 0)
(0.176727 -0.000166128 0 -0.000259501 0.0367274 0 0 0 0)
(0.275379 -0.000333028 0 -0.000550121 0.0360952 0 0 0 0)
(0.338124 -0.000519818 0 -0.000870269 0.0349978 0 0 0 0)
(0.371178 -0.000689902 0 -0.00116917 0.0334302 0 0 0 0)
(0.388054 -0.000820872 0 -0.00141843 0.0314407 0 0 0 0)
(0.395661 -0.000903067 0 -0.00160254 0.0291026 0 0 0 0)
(0.395968 -0.000932313 0 -0.00171242 0.026498 0 0 0 0)
(0.388531 -0.000909788 0 -0.00174655 0.0237321 0 0 0 0)
(0.370184 -0.000824241 0 -0.00168282 0.0209053 0 0 0 0)
(0.336054 -0.000697048 0 -0.00149942 0.0183011 0 0 0 0)
(0.280347 -0.000669641 0 -0.00126838 0.0159925 0 0 0 0)
(0.438093 -0.000772569 0 -0.00205074 0.0129988 0 0 0 0)