/*--------------------------------*- C++ -*----------------------------------*\
| =========                 |                                                 |
| \\      /  F ield         | OpenFOAM: The Open Source CFD Toolbox           |
|  \\    /   O peration     | Version:  v1912                                 |
|   \\  /    A nd           | Website:  www.openfoam.com                      |
|    \\/     M anipulation  |                                                 |
\*---------------------------------------------------------------------------*/
FoamFile
{
    version     2.0;
    format      ascii;
    class       volScalarField;
    location    "0.00032";
    object      rhoMMean;
}
// * * * * * * * * * * * * * * * * * * * * * * * * * * * * * * * * * * * * * //

dimensions      [1 -3 0 0 0 0 0];


internalField   nonuniform List<scalar> 
1300
(
0.00908305
0.01034525
0.0226497
0.059936725
0.0348715
0.0248706625
0.034829625
0.0368264625
0.0304917375
0.0293458875
0.010602675
0.010370175
0.0339625875
0.106530925
0.05132795
0.0311229375
0.053327725
0.0529376
0.0399320125
0.0379056125
0.0054092625
0.0061730625
0.030678825
0.109104775
0.050522175
0.0300184625
0.058691475
0.0664251375
0.04667795
0.0445310625
0.0034913375
0.003412425
0.0265566875
0.104637925
0.0469235625
0.0287155875
0.0597085625
0.07806185
0.050688275
0.0492186
0.0022790875
0.0030222
0.02867765
0.1028244375
0.045523925
0.0241446
0.0558604
0.07128655
0.05547895
0.0504015875
0.0015151875
0.00194285
0.0261080375
0.1028660125
0.0440999625
0.023737425
0.05275535
0.067293075
0.0516888125
0.04850455
0.0011748125
0.002117225
0.0279926625
0.1027867
0.043082675
0.022409125
0.0501443625
0.0642002375
0.048396275
0.046453825
0.00121215
0.0013990375
0.027755925
0.1022434875
0.0442248875
0.0239326875
0.0514432
0.066778225
0.045457325
0.0445814125
0.000722325
0.0012745125
0.0272204875
0.1051655875
0.042883275
0.0227038875
0.0531708
0.0645072125
0.045457325
0.0429791375
0.0005438125
0.0011250625
0.0270792125
0.10114285
0.0447352
0.024111
0.0489149625
0.0661678125
0.0465285
0.040193675
0.0006019375
0.0009506875
0.0277769125
0.102612725
0.0445900875
0.0236171375
0.05062975
0.0669820625
0.0465746125
0.043398325
0.00034875
0.0009922625
0.0270876875
0.1000594625
0.0421777
0.022243025
0.0514725625
0.0649807875
0.0445399375
0.0435268875
0.000240775
0.0010337375
0.0250700625
0.1020891
0.04375565
0.0223842
0.048745225
0.0653541625
0.0449797125
0.043066325
0.0002657
0.0006767125
0.02754865
0.1024548
0.0443324625
0.0223841
0.0492804625
0.0641835875
0.04614655
0.041937025
0.00011625
0.000705775
0.0268303625
0.1003667375
0.0437059
0.02299875
0.049525375
0.0667078875
0.04697665
0.0413850375
0.0002117125
0.000921625
0.0287147875
0.1020858625
0.04251
0.0249746
0.0513063625
0.0638439125
0.0461965
0.0428128375
0.0002034375
0.0007971
0.026826225
0.1007274
0.04262615
0.0251032625
0.050920275
0.0619375
0.0469937
0.0423059625
0.0001785125
0.00041515
0.0279594625
0.1025834625
0.0418995875
0.0240239125
0.0497533375
0.06527555
0.0479604375
0.0417002875
0.00014945
0.00088015
0.0260747375
0.101998675
0.0423564125
0.0229946125
0.04910265
0.062710275
0.0454697375
0.040774725
8.71875e-05
0.0006849875
0.023770725
0.0965800375
0.042650975
0.02406145
0.049193275
0.0608292875
0.045640175
0.0426093
0.03076510627
0.02808054695
0.0277628555
0.02634372967
0.0260907087
0.02519474732
0.02643973218
0.02760176998
0.02579305379
0.02629568724
0.02575889052
0.02807730385
0.02767399861
0.02794048667
0.02872057417
0.02930167556
0.02815601867
0.02774240708
0.02932187686
0.02918173397
0.02841269484
0.03090192322
0.02971196144
0.02951014432
0.03086759543
0.03162665744
0.0335618845
0.0331891695
0.03722777133
0.03766881274
0.03586658298
0.03194443149
0.02858675343
0.02898340728
0.0287129341
0.02792336419
0.02665127952
0.02736254624
0.02705474951
0.02726371249
0.02752654537
0.02545807465
0.0288568969
0.02828252905
0.02835085539
0.0271471792
0.02728765111
0.0267332379
0.02859032624
0.03050867719
0.02841577343
0.02936975456
0.03130871865
0.03105927096
0.02934955326
0.03213602465
0.03012216543
0.0313051461
0.0329366427
0.03487860354
0.04505137855
0.04069134685
0.03518956145
0.03330894612
0.03187602302
0.03134296433
0.02938363394
0.02871691876
0.02897318308
0.02793350602
0.02764623961
0.02723262802
0.02762246573
0.02823107855
0.02820032379
0.02839873309
0.02725673139
0.0285353853
0.02972226826
0.02892887795
0.02981112514
0.03116849388
0.02883653063
0.02922263103
0.02850479505
0.03089128691
0.03002990048
0.03186280286
0.03316896793
0.03247457686
0.05277939482
0.05071075872
0.04311648123
0.04087604184
0.03944012246
0.03474519465
0.03508382897
0.03374674362
0.0317771893
0.03132924969
0.03082661599
0.02901399753
0.03061831222
0.02873736717
0.02940757279
0.02937673543
0.0280051576
0.0291612858
0.0286994668
0.02965361242
0.03051890165
0.03077549521
0.03039563435
0.03116500345
0.03270382351
0.0303238178
0.03187253284
0.033397803
0.03157561879
0.03003671661
0.06226517122
0.0586646135
0.05083718714
0.04902148984
0.04711036624
0.04200823096
0.04093414374
0.03813711808
0.03822954809
0.0338975226
0.03322690509
0.03337419364
0.03181476042
0.032368597
0.03100441238
0.03194833405
0.03134271696
0.03009498325
0.03097373977
0.02933932881
0.02966749205
0.03021102232
0.0298246748
0.03137047599
0.02965012223
0.0321499864
0.03226959854
0.03210169712
0.03032406491
0.0299033901
0.05653713506
0.06125325243
0.05617497374
0.05488593111
0.05209231341
0.05051933072
0.0462961163
0.04528760571
0.0408969021
0.04110869656
0.03818507815
0.0369406702
0.03680693183
0.03522754414
0.03522388925
0.033486907
0.03462907293
0.03201982111
0.031780515
0.03346970164
0.03267306852
0.03174302625
0.03199280341
0.02996490007
0.03236560105
0.03188341575
0.03158235281
0.03132292777
0.03133273987
0.03280647741
0.05263600884
0.06034008576
0.05881489846
0.0589755719
0.05861657106
0.05714948565
0.05431480682
0.04957898145
0.04991379626
0.04860455232
0.04357447995
0.04279804822
0.0384652814
0.03933397812
0.03850342911
0.03769948536
0.03686536291
0.03775791674
0.03530252193
0.0344271732
0.03448178495
0.03476223499
0.03471809456
0.03362380632
0.03249868045
0.03344925323
0.03273108806
0.03312474569
0.03434188912
0.03308002895
0.05148037509
0.05560750417
0.05659232311
0.05527269023
0.06063749377
0.06296953966
0.05927663509
0.05546038064
0.05514219519
0.0535968061
0.04996175591
0.04830681483
0.04813949
0.0448294419
0.04252466142
0.04292082105
0.04057214683
0.04106073649
0.03808957018
0.03904662957
0.03751195923
0.03849611875
0.03700534082
0.03652348557
0.03571646323
0.0349675425
0.0341709094
0.03526146037
0.03392478687
0.03362721439
0.05073785894
0.0527965171
0.05002708622
0.05228049892
0.05481378463
0.06063757664
0.05821675674
0.06037042889
0.06234745908
0.05658891504
0.05541582865
0.05630530404
0.05083710477
0.05026240726
0.04893587628
0.04622787257
0.04560188932
0.04268549959
0.04425831797
0.04108833018
0.04217231246
0.03964875628
0.04072226658
0.04051388053
0.04003826451
0.03931702015
0.03886542568
0.0374160391
0.03689944359
0.03570964709
0.05008153294
0.05271480583
0.04866614467
0.04951032627
0.05398689048
0.0554537297
0.05554907325
0.05759451094
0.05975532969
0.06185804606
0.05810728622
0.06014159459
0.05750873312
0.05561464979
0.052872154
0.05335741762
0.04985910201
0.04863181687
0.0488539179
0.04715093358
0.04703838534
0.04603660889
0.0445898063
0.04384445904
0.04375235883
0.04295880367
0.04145414701
0.04171041109
0.04047963477
0.03901271395
0.04902772939
0.0527148882
0.0496818005
0.04954132837
0.04944922775
0.0541336026
0.05231807004
0.0543459732
0.05836006034
0.05928710641
0.05811028244
0.06051430959
0.06033684293
0.05928303889
0.05809673301
0.0560931801
0.05775826296
0.0537750141
0.05174994197
0.05069745592
0.0470279964
0.04899414292
0.04816983274
0.04627550315
0.04683632087
0.04641581016
0.04528768845
0.04473376924
0.0429075179
0.04367655762
0.0477836506
0.05193147523
0.04789694056
0.04865168869
0.04895673614
0.05222223228
0.05027320847
0.05178817162
0.05580591392
0.05627754528
0.05743400225
0.06005971858
0.06033709004
0.05824061273
0.05945127028
0.06111269843
0.05692381134
0.05555621886
0.05787454961
0.05547758573
0.05381258522
0.05259120973
0.05223586412
0.05079329411
0.05047461398
0.05029016602
0.04869340921
0.04804049128
0.04986251008
0.04750660863
0.04920942782
0.05033804372
0.04881651152
0.04642603475
0.04972585787
0.05139467916
0.04987614277
0.04852226406
0.05441080932
0.05397941583
0.05333721588
0.05943722615
0.05829555416
0.06009745395
0.06297619106
0.06293919653
0.05860651159
0.06021698395
0.05930730771
0.05907781346
0.05577183324
0.05647279361
0.05624362887
0.05273525467
0.05285843935
0.05181485958
0.05269086741
0.05129875903
0.05072439099
0.05144929062
0.04695609748
0.05217427178
0.04825236811
0.0477836506
0.04823857069
0.04993149556
0.04847422203
0.04723338618
0.05031759572
0.05188027227
0.04996557583
0.05297123509
0.05696130056
0.05442103308
0.06113372343
0.05829863275
0.06092508943
0.06227888587
0.06049751636
0.05982722811
0.06049419066
0.05825399838
0.05943398234
0.05870858939
0.05417133847
0.05736185623
0.05542630042
0.05359697084
0.05642134264
0.05401764591
0.04925373271
0.05063569884
0.04736289317
0.04761616103
0.04756844768
0.04915140829
0.04952720187
0.04775663277
0.04939753054
0.049079427
0.04794116268
0.05163739334
0.05423941746
0.05046447173
0.05618187225
0.05641785267
0.05686911751
0.06090455915
0.05997435213
0.0611877578
0.06143794759
0.05979996406
0.05924596199
0.05843894014
0.06114677911
0.0569925493
0.05634595375
0.05707783385
0.05475642406
0.05695813961
0.04869373869
0.0521401911
0.04807424248
0.04753420265
0.04924408469
0.05260857955
0.04661446695
0.0479922837
0.05082688057
0.05090567799
0.04675809965
0.04886430685
0.04933269487
0.04984920729
0.0525677651
0.05345990678
0.05585379116
0.05696520285
0.05813779457
0.05942375813
0.06097255578
0.0619196384
0.06213541701
0.05923914634
0.06041547561
0.0608460449
0.05776191862
0.05851050957
0.05913998239
0.05759434668
0.0490213251
0.04950416869
0.05072463852
0.04644673027
0.04876855105
0.04878218373
0.04823159021
0.04838228615
0.04883338712
0.05066637188
0.04916528727
0.05020106244
0.05162068248
0.04893944869
0.0513021671
0.05128180106
0.05200304467
0.0525096632
0.05527535697
0.05819938643
0.05951594121
0.05913267252
0.0626619893
0.0615543985
0.06204631352
0.06106498497
0.06300727552
0.05993969486
0.05998798391
0.0621113963
0.04867562754
0.05005085991
0.04824189679
0.04802960811
0.04787948797
0.05194169987
0.04842343048
0.04752015814
0.05068690265
0.0477532251
0.05037553247
0.04889140665
0.0514460473
0.05066628909
0.05126816878
0.05138745117
0.05299193017
0.05319308901
0.05253002924
0.05420533633
0.05639034101
0.05555264606
0.05805226291
0.05888671501
0.06250755592
0.05922218788
0.06385178661
0.06245668201
0.06156470457
0.06099982033
0.04768124381
0.05149392457
0.04715783247
0.04620725942
0.0470999773
0.05047810442
0.04784524294
0.04727087493
0.04884003852
0.0487377141
0.04906969661
0.04813558771
0.05019465815
0.04846407979
0.04798546796
0.05178135591
0.04917883717
0.05309076459
0.05222880131
0.05384982642
0.05414058348
0.05432827435
0.05726601846
0.05609609395
0.06017226721
0.0598992094
0.06052777712
0.06122881986
0.06077763642
0.06556832045
0.04796510192
0.04863198121
0.04669975103
0.04774599711
0.0467989141
0.04735624177
0.04744842435
0.04656285132
0.04924375561
0.0456978922
0.04674072983
0.04790010152
0.04795487772
0.04780077292
0.04740054666
0.04772928625
0.04846757023
0.04890171323
0.04871053192
0.05004753421
0.05199631133
0.05235580591
0.05233502758
0.05514252468
0.05582270715
0.05662623859
0.05625726161
0.05998781967
0.06028206623
0.06003212456
0.0314839
0.03043755
0.03086925
0.0308529
0.0299436875
0.0279924625
0.0276684375
0.0266146125
0.0247546125
0.0204949375
0.038681925
0.03860725
0.03482145
0.0351701
0.034995625
0.036357025
0.034148975
0.0332647875
0.0290305375
0.025082575
0.03316055
0.033036425
0.0344603875
0.0340367625
0.0326506375
0.034065725
0.0321276125
0.0318031875
0.0277764125
0.0244766
0.031708025
0.03249685
0.033567525
0.033285475
0.0317873375
0.031857275
0.0297567
0.0307161625
0.0277764125
0.0252029625
0.029648725
0.031574925
0.0312513
0.0309149625
0.031292775
0.0296116875
0.03249685
0.0293208625
0.02678445
0.0264068375
0.0331068625
0.0322350875
0.0298358125
0.0303338125
0.0296614375
0.0295907
0.02980675
0.0276852875
0.028204275
0.0282996375
0.032156475
0.0317456625
0.0333557125
0.0312183
0.0294374125
0.0311809625
0.029034575
0.0289057125
0.028021625
0.0269008
0.03375875
0.0325846375
0.0336966875
0.0315172
0.0340412
0.0308858
0.029698875
0.02960765
0.028835375
0.02741555
0.0358346
0.03512045
0.033750575
0.0330112
0.033518375
0.0319159
0.032521775
0.029757
0.02891005
0.0292714125
0.0394251375
0.037038275
0.0382383125
0.0367772125
0.03528635
0.0357970625
0.03306135
0.031318
0.0328413625
0.03077005
0.041472025
0.040276025
0.0418167375
0.038333275
0.0384288375
0.035859425
0.03708025
0.0366982
0.0350083375
0.0338792375
0.0447640625
0.046420425
0.045224825
0.0441039
0.0425804375
0.04355595
0.0403468625
0.040093375
0.0357636625
0.0372628
0.050338925
0.0515552125
0.0475578
0.0481430875
0.0486864
0.0454447125
0.042750575
0.0455943625
0.04169615
0.04109805
0.0528180125
0.0535645625
0.0544278625
0.0518712625
0.0514767
0.0510824375
0.048695075
0.0482507625
0.0474249
0.04531645
0.05395125
0.0532165125
0.05368545
0.0536066375
0.0534899875
0.0532699
0.0509159375
0.0526932875
0.051235825
0.0490854
0.057379825
0.0578323125
0.057712125
0.056565875
0.0578199
0.0559643375
0.057297275
0.0530501125
0.054632
0.0545691375
0.0586708875
0.06145695
0.0620419375
0.0606138375
0.0565249
0.059920475
0.0577866
0.05979585
0.0578197
0.056824
0.0620707
0.05703955
0.0593268125
0.0629966625
0.0619589875
0.0615768375
0.0603648875
0.0607633875
0.0606388625
0.0594429625
0.0614523125
0.061232525
0.062344875
0.06082595
0.0623072375
0.060983475
0.06172255
0.06295045
0.0627060375
0.0642671375
0.0598664875
0.0601655875
0.0626562875
0.0615726
0.0604646875
0.0618339625
0.0616268875
0.061763525
0.0626812125
0.0633124125
0.02620911135
0.03184854824
0.0306286656
0.03029628506
0.02988922837
0.03004947628
0.03054669283
0.02902288701
0.02918732754
0.03123651076
0.03018935408
0.03126945817
0.0310887421
0.03092420261
0.03170487359
0.03179552845
0.03361516779
0.03242354524
0.03298266187
0.03312174811
0.03335647403
0.03340959307
0.03429660044
0.03532368447
0.0344157136
0.03619002548
0.03700364393
0.03722948955
0.0357594953
0.03129402032
0.02853356724
0.03904783583
0.03760001779
0.03726993979
0.03747917211
0.03476412538
0.03619600549
0.03831943338
0.03757156863
0.03958617798
0.03836000582
0.03747917247
0.03968335805
0.03798133779
0.03724569322
0.03982424736
0.03868578434
0.0403188799
0.04031868612
0.04019832486
0.0425188629
0.04082133626
0.04047961903
0.04159344795
0.04140445305
0.04407941172
0.04646438125
0.04623128956
0.04650925271
0.03916839085
0.02761086961
0.03730098632
0.03728546709
0.03767512966
0.03846690095
0.03700558066
0.036248206
0.03691439682
0.03644178551
0.03704849681
0.03682416255
0.03475480204
0.03773011265
0.03686343611
0.03815157375
0.03837657212
0.03731267347
0.039062495
0.03919630987
0.03741516442
0.03890080894
0.0396178659
0.04053166998
0.03755271717
0.03931413056
0.04212018476
0.04349491414
0.0446494264
0.04590709361
0.03564953925
0.02841295209
0.03648861063
0.03725719804
0.03629953713
0.03746598247
0.03510596129
0.03558859438
0.03398955432
0.03654634832
0.03447659508
0.03563872612
0.03543022077
0.03655432573
0.03344542776
0.03745791238
0.03718369194
0.03700635129
0.03804503089
0.03707141517
0.03639952184
0.03665834599
0.03805648533
0.04000269306
0.03988309048
0.03975166096
0.03906849923
0.04165599349
0.04493490527
0.04400400199
0.03615271099
0.02821032994
0.03580312579
0.03563956666
0.0347577594
0.03357634556
0.03481086919
0.0325498492
0.03428823112
0.03485570124
0.0356435231
0.0350298527
0.03220909367
0.03535928651
0.03244435903
0.03429200545
0.03508341888
0.03652965132
0.03393983667
0.036575031
0.03467786635
0.0373476656
0.03735116596
0.03613569479
0.0381691799
0.03856322765
0.03835510944
0.04051764064
0.04171010256
0.04437207942
0.03824161582
0.02612519713
0.0345785447
0.03316732007
0.03373592334
0.0338252122
0.03392127886
0.03203823276
0.03254680265
0.03360573609
0.03401056802
0.03351274489
0.03433342481
0.03285132996
0.03140661012
0.03430760208
0.03399964173
0.03535145954
0.03464923599
0.03458224675
0.03393590659
0.03541447894
0.03513956586
0.03492776103
0.03650980323
0.03694063683
0.03927338275
0.03926597962
0.04026893929
0.04371172698
0.03892760012
0.02415456637
0.03174924433
0.03163992777
0.03223452052
0.03310896716
0.03286862842
0.02990972158
0.02937749031
0.03059468014
0.028586584
0.0293555216
0.03127972648
0.03174906904
0.03249674019
0.03296678533
0.03443219282
0.03262793796
0.034275043
0.03289777373
0.03352151148
0.03406048045
0.03522274824
0.03529184732
0.03654190248
0.03629740454
0.03762763059
0.03841118532
0.03999698179
0.04159669215
0.0380391218
0.02239270368
0.02984044398
0.02975444853
0.03134274091
0.03088901206
0.0311894372
0.0290183796
0.02799128865
0.0309390975
0.0307278027
0.02890377586
0.02980165785
0.03110743754
0.03104979085
0.03231235754
0.03024494932
0.031675597
0.0305885013
0.03088510246
0.03206601361
0.03152568643
0.03212619149
0.03249835097
0.03356405601
0.03505565708
0.03600014464
0.03701950208
0.03803555251
0.0413800461
0.03808911672
0.02126395464
0.03049418386
0.02733670058
0.02621644239
0.02795168164
0.02920521827
0.02753716783
0.02891774237
0.02823958056
0.02892449008
0.0283377675
0.02853123371
0.02998182133
0.02992897302
0.03039932836
0.03181132431
0.03061021267
0.02922639133
0.03163928523
0.02931441477
0.0312812891
0.03031164311
0.03102498053
0.03332184587
0.03196936083
0.03478285051
0.0354152507
0.03666144738
0.04046575607
0.03810528753
0.02017804919
0.02854789013
0.02492889966
0.02575349731
0.02510500461
0.02647444502
0.02641934789
0.0263676058
0.02681944618
0.02692645139
0.02768522103
0.02738877289
0.02799583865
0.0293693818
0.02967581313
0.02891696017
0.02858923376
0.02839618625
0.02944846472
0.03153172632
0.0305591125
0.03063131843
0.02967941747
0.03049009565
0.03225963415
0.03127997686
0.03351192022
0.03634136187
0.03672737395
0.03661005391
)
;

boundaryField
{
    inlet
    {
        type            calculated;
        value           nonuniform List<scalar> 
20
(
0.00908305
0.010602675
0.0054092625
0.0034913375
0.0022790875
0.0015151875
0.0011748125
0.00121215
0.000722325
0.0005438125
0.0006019375
0.00034875
0.000240775
0.0002657
0.00011625
0.0002117125
0.0002034375
0.0001785125
0.00014945
8.71875e-05
)
;
    }
    outlet
    {
        type            calculated;
        value           nonuniform List<scalar> 
70
(
0.0204949375
0.025082575
0.0244766
0.0252029625
0.0264068375
0.0282996375
0.0269008
0.02741555
0.0292714125
0.03077005
0.0338792375
0.0372628
0.04109805
0.04531645
0.0490854
0.0545691375
0.056824
0.0594429625
0.0642671375
0.0633124125
8.71875e-05
0.0006849875
0.023770725
0.0965800375
0.042650975
0.02406145
0.049193275
0.0608292875
0.045640175
0.0426093
0.04796510192
0.04863198121
0.04669975103
0.04774599711
0.0467989141
0.04735624177
0.04744842435
0.04656285132
0.04924375561
0.0456978922
0.04674072983
0.04790010152
0.04795487772
0.04780077292
0.04740054666
0.04772928625
0.04846757023
0.04890171323
0.04871053192
0.05004753421
0.05199631133
0.05235580591
0.05233502758
0.05514252468
0.05582270715
0.05662623859
0.05625726161
0.05998781967
0.06028206623
0.06003212456
0.0598664875
0.0601655875
0.0626562875
0.0615726
0.0604646875
0.0618339625
0.0616268875
0.061763525
0.0626812125
0.0633124125
)
;
    }
    wall
    {
        type            calculated;
        value           uniform 8.4375e-301;
    }
    frontAndBack
    {
        type            empty;
    }
}


// ************************************************************************* //
