/*--------------------------------*- C++ -*----------------------------------*\
| =========                 |                                                 |
| \\      /  F ield         | OpenFOAM: The Open Source CFD Toolbox           |
|  \\    /   O peration     | Version:  v1912                                 |
|   \\  /    A nd           | Website:  www.openfoam.com                      |
|    \\/     M anipulation  |                                                 |
\*---------------------------------------------------------------------------*/
FoamFile
{
    version     2.0;
    format      ascii;
    class       volScalarField;
    location    "0.24";
    object      T;
}
// * * * * * * * * * * * * * * * * * * * * * * * * * * * * * * * * * * * * * //

dimensions      [0 0 0 1 0 0 0];


internalField   nonuniform List<scalar> 
4800
(
10
10
10
11.2757
14.891
15.7446
15.7049
15.707
15.6948
15.688
15.7042
15.8071
15.9789
16.1349
16.2417
16.3096
16.3477
16.3626
16.3462
16.316
16.3031
16.3219
16.3507
16.3875
16.4102
16.4216
16.4171
16.3916
16.3652
16.364
16.3674
16.3807
16.3938
16.4436
16.5436
16.6297
16.639
16.6066
16.5997
16.583
10
10
10
11.2743
14.8848
15.7356
15.6986
15.7056
15.6996
15.7019
15.729
15.8262
15.9754
16.1216
16.2279
16.2992
16.3398
16.3616
16.3462
16.316
16.3011
16.3188
16.3477
16.3859
16.4101
16.4222
16.4177
16.3916
16.3642
16.3627
16.3669
16.3836
16.3997
16.4581
16.5593
16.633
16.6342
16.5938
16.5871
16.5808
10
10
10
11.2693
14.8705
15.7199
15.6914
15.7079
15.7138
15.7328
15.7722
15.8469
15.9585
16.0932
16.2063
16.2873
16.3328
16.3595
16.3462
16.3157
16.298
16.3143
16.3437
16.3835
16.4096
16.4224
16.4178
16.3906
16.362
16.3601
16.366
16.389
16.4125
16.482
16.5768
16.6301
16.6219
16.5838
16.5661
16.5647
10
10
10
11.2597
14.8472
15.6944
15.683
15.7118
15.7402
15.7819
15.8291
15.8713
15.9415
16.0571
16.1756
16.2675
16.3237
16.3544
16.3456
16.3147
16.2948
16.3101
16.3398
16.3809
16.4087
16.4219
16.417
16.3881
16.3584
16.3562
16.3651
16.3946
16.4337
16.5127
16.5952
16.6285
16.6114
16.5733
16.5517
16.5467
10
10
10
11.2459
14.8131
15.6565
15.6781
15.7244
15.7804
15.8446
15.8862
15.8987
15.9343
16.0187
16.135
16.2401
16.311
16.346
16.3431
16.3122
16.2918
16.3067
16.3367
16.3786
16.4073
16.4206
16.4144
16.3833
16.353
16.3514
16.3656
16.4023
16.4609
16.5427
16.6091
16.6259
16.6023
16.5633
16.5389
16.5306
10
10
10
11.2296
14.7743
15.6157
15.6751
15.7413
15.8314
15.9099
15.9356
15.9264
15.9357
15.9933
16.0914
16.2033
16.2898
16.3326
16.3353
16.3073
16.2893
16.3051
16.3353
16.377
16.4051
16.418
16.4093
16.3753
16.3456
16.3464
16.3693
16.4165
16.4893
16.5656
16.6157
16.6223
16.5955
16.5568
16.5309
16.5221
10
10
10
11.2108
14.7352
15.5777
15.6741
15.7635
15.8852
15.9663
15.9754
15.9523
15.9489
15.9836
16.0546
16.1575
16.2572
16.3132
16.322
16.3008
16.2872
16.3058
16.3363
16.3765
16.4026
16.414
16.4017
16.3641
16.3363
16.3426
16.3756
16.4376
16.5153
16.5799
16.6159
16.6165
16.589
16.5531
16.5271
16.5193
10
10
10
11.1886
14.6983
15.5464
15.6712
15.7945
15.9343
16.0093
16.0092
15.9769
15.9675
15.9816
16.0346
16.1132
16.2127
16.2825
16.303
16.2919
16.2857
16.3083
16.3393
16.3774
16.4001
16.4087
16.3911
16.3505
16.3275
16.3423
16.3891
16.463
16.5361
16.5856
16.6109
16.6082
16.5809
16.5511
16.5269
16.5202
10
10
10
11.1613
14.6631
15.5234
15.6722
15.8275
15.9731
16.0403
16.038
16.0011
15.9873
15.988
16.0279
16.0812
16.1623
16.2372
16.2752
16.2788
16.2842
16.3125
16.3439
16.3789
16.3976
16.4015
16.3773
16.336
16.3221
16.3465
16.4091
16.4885
16.5499
16.5854
16.6012
16.5968
16.571
16.5496
16.5301
16.5244
10
10
10
11.1272
14.6298
15.5132
15.6825
15.8583
15.9991
16.0606
16.0597
16.0232
16.0072
16.0007
16.028
16.0658
16.1181
16.1831
16.2358
16.2599
16.28
16.3149
16.3485
16.3802
16.3949
16.3927
16.361
16.3223
16.3223
16.3594
16.4336
16.5101
16.5557
16.5804
16.5874
16.5812
16.5598
16.5484
16.5367
16.5327
10
10
10
11.087
14.6061
15.5173
15.7085
15.8851
16.0133
16.0713
16.0736
16.042
16.0267
16.0173
16.0351
16.0606
16.0884
16.1321
16.186
16.2319
16.2694
16.3149
16.3512
16.3803
16.3918
16.3825
16.3456
16.3113
16.3263
16.3826
16.4601
16.5257
16.5547
16.5718
16.5718
16.5614
16.5477
16.5469
16.5449
16.5438
10
10
10
11.0499
14.5993
15.538
15.7366
15.9019
16.0187
16.0734
16.0786
16.0532
16.0438
16.0354
16.0473
16.0636
16.0739
16.0948
16.1343
16.1935
16.2516
16.31
16.3498
16.378
16.388
16.3715
16.3332
16.3072
16.3376
16.4109
16.4842
16.5338
16.5499
16.5591
16.5533
16.5394
16.5348
16.5445
16.5529
16.555
10
10
10
11.0336
14.6212
15.5773
15.7592
15.904
16.0187
16.0721
16.0776
16.0585
16.058
16.0542
16.064
16.0733
16.0706
16.0748
16.0912
16.1481
16.2244
16.2952
16.3439
16.3737
16.3832
16.3598
16.3247
16.3126
16.3573
16.4387
16.5033
16.5349
16.5426
16.5459
16.5315
16.516
16.5211
16.5414
16.5582
16.5636
10
10
10
11.0436
14.6711
15.6302
15.7783
15.8976
16.0106
16.0675
16.0758
16.0617
16.0703
16.0737
16.0855
16.0893
16.0761
16.066
16.0635
16.1038
16.1872
16.2712
16.3321
16.3653
16.3762
16.3491
16.3193
16.3261
16.3846
16.4619
16.5153
16.534
16.5348
16.5304
16.5068
16.4928
16.5078
16.537
16.5608
16.5689
10
10
10
11.0815
14.7427
15.6915
15.7965
15.8878
15.9943
16.0588
16.0705
16.0618
16.0807
16.0931
16.1094
16.1099
16.0894
16.0669
16.051
16.0704
16.1443
16.2389
16.3127
16.3523
16.3663
16.3422
16.3181
16.3446
16.4149
16.4797
16.5202
16.5322
16.5291
16.5126
16.483
16.4718
16.4958
16.5323
16.562
16.5719
10
10
10
11.1449
14.8288
15.7582
15.8124
15.8796
15.9709
16.0398
16.0613
16.0589
16.0884
16.1106
16.1327
16.1324
16.1097
16.0747
16.0455
16.0511
16.1057
16.1999
16.2858
16.3347
16.3509
16.3358
16.3268
16.3671
16.44
16.4933
16.5207
16.5292
16.5239
16.4958
16.463
16.4549
16.4846
16.5279
16.5626
16.5733
10
10
10
11.2253
14.9195
15.8259
15.8301
15.8763
15.9486
16.0112
16.0426
16.0497
16.0907
16.1237
16.1528
16.1545
16.1338
16.0885
16.0457
16.0427
16.079
16.1584
16.2505
16.3102
16.3305
16.3309
16.3443
16.3906
16.4547
16.5027
16.5208
16.5264
16.5179
16.4833
16.4486
16.4424
16.473
16.5219
16.5607
16.5729
10
10
10
11.3141
15.004
15.884
15.8594
15.8858
15.9325
15.9796
16.0153
16.0369
16.0889
16.1315
16.1683
16.175
16.1577
16.1055
16.0513
16.0392
16.0633
16.1215
16.2073
16.2761
16.3095
16.327
16.3604
16.4115
16.4606
16.5026
16.5216
16.5266
16.5111
16.4757
16.4388
16.4338
16.4619
16.5132
16.5546
16.57
10
10
10
11.409
15.0819
15.933
15.8982
15.9072
15.9238
15.9487
15.9817
16.0215
16.0856
16.1362
16.1787
16.1917
16.1779
16.1214
16.0609
16.0397
16.0541
16.098
16.1637
16.2329
16.2828
16.3249
16.3769
16.4254
16.4625
16.4951
16.5195
16.5267
16.5065
16.4702
16.4319
16.4269
16.452
16.5018
16.545
16.564
10
10
10
11.5101
15.1546
15.9752
15.9406
15.9356
15.923
15.9205
15.9462
16.0026
16.0778
16.1387
16.1853
16.204
16.1926
16.1344
16.0725
16.0451
16.0504
16.087
16.1287
16.1875
16.2509
16.3202
16.3865
16.4278
16.4611
16.487
16.5148
16.524
16.5026
16.465
16.4254
16.4202
16.442
16.4874
16.5322
16.5555
10
10
10
11.6142
15.2216
16.0085
15.9805
15.9695
15.9302
15.9015
15.9181
15.9806
16.0624
16.1369
16.1892
16.2124
16.202
16.1441
16.0852
16.0546
16.0538
16.0822
16.1053
16.1482
16.2186
16.3105
16.3869
16.4211
16.4541
16.4795
16.508
16.5164
16.4985
16.4585
16.4186
16.4136
16.4309
16.4711
16.5164
16.5444
10
10
10
11.7171
15.2819
16.033
16.0148
16.0039
15.9465
15.8958
15.9019
15.957
16.0413
16.1286
16.1884
16.2166
16.2065
16.151
16.0978
16.0664
16.0618
16.0811
16.0929
16.1206
16.1891
16.2967
16.3798
16.4091
16.4431
16.4706
16.4982
16.5044
16.4904
16.4502
16.4131
16.4073
16.4189
16.4535
16.4973
16.5311
10
10
10
11.8152
15.3353
16.0491
16.0425
16.0341
15.9698
15.9044
15.8972
15.9357
16.0177
16.1137
16.1825
16.2161
16.2066
16.1545
16.109
16.0785
16.0721
16.0851
16.0888
16.1055
16.1683
16.2831
16.3667
16.3957
16.4286
16.4591
16.4873
16.4909
16.4785
16.4398
16.4088
16.3993
16.4062
16.4363
16.4777
16.5196
10
10
10
11.9069
15.3821
16.0586
16.0652
16.0594
15.9997
15.925
15.8962
15.9215
15.9941
16.0935
16.1714
16.2099
16.2027
16.1546
16.118
16.0899
16.0846
16.0947
16.0906
16.1019
16.1599
16.2694
16.3478
16.3815
16.415
16.4486
16.4747
16.4762
16.4618
16.4263
16.4033
16.3889
16.3945
16.4211
16.4611
16.5188
10
10
10
11.992
15.4236
16.0633
16.0828
16.0816
16.0309
15.9523
15.9044
15.9173
15.9729
16.0685
16.1542
16.1982
16.1945
16.152
16.125
16.1009
16.099
16.1088
16.0972
16.1068
16.157
16.2515
16.3232
16.3639
16.4027
16.4393
16.463
16.4602
16.4419
16.4109
16.3925
16.3762
16.3842
16.4086
16.4528
16.5328
10
10
10
12.0707
15.4599
16.0652
16.0974
16.1014
16.0597
15.9821
15.9238
15.9216
15.9585
16.0422
16.1318
16.1811
16.1822
16.1478
16.1301
16.1115
16.1137
16.1243
16.1117
16.1172
16.1549
16.2261
16.2931
16.3441
16.3931
16.4316
16.4543
16.4455
16.4214
16.3947
16.3746
16.3614
16.3752
16.3999
16.4544
16.5582
10
10
10
12.1426
15.4918
16.0657
16.1091
16.1175
16.0846
16.0127
15.9494
15.9281
15.9549
16.0192
16.105
16.1595
16.1673
16.1421
16.134
16.1221
16.1284
16.1389
16.132
16.1347
16.1528
16.1944
16.2592
16.3266
16.3872
16.4263
16.4482
16.4334
16.4011
16.3754
16.3531
16.3466
16.3683
16.396
16.4673
16.5887
10
10
10
12.2074
15.521
16.0657
16.1164
16.1297
16.1051
16.0407
15.976
15.941
15.9578
16.0006
16.0766
16.135
16.1495
16.1355
16.1359
16.1315
16.1437
16.1516
16.1537
16.153
16.1494
16.1615
16.2246
16.3089
16.3797
16.4217
16.4428
16.4223
16.3819
16.3545
16.3312
16.3335
16.3644
16.3993
16.4902
16.6161
10
10
10
12.2655
15.5478
16.065
16.1202
16.1389
16.122
16.0652
16.0029
15.9602
15.9673
15.9888
16.0504
16.1096
16.13
16.128
16.136
16.138
16.1563
16.1668
16.1756
16.1654
16.1409
16.1371
16.1936
16.2869
16.3681
16.4158
16.435
16.4095
16.364
16.3349
16.3145
16.3269
16.3639
16.4157
16.5187
16.6334
10
10
10
12.3181
15.5722
16.0636
16.1215
16.1456
16.1361
16.0865
16.0305
15.9848
15.9795
15.9853
16.0302
16.0857
16.1106
16.1175
16.1334
16.142
16.1661
16.1864
16.1962
16.1732
16.1302
16.1228
16.1662
16.2583
16.3517
16.4063
16.4223
16.3938
16.3469
16.3177
16.3057
16.3294
16.3709
16.445
16.5445
16.6388
10
10
10
12.3667
15.5945
16.0622
16.1214
16.1496
16.147
16.104
16.0548
16.0098
15.9926
15.9901
16.0188
16.0652
16.0917
16.1024
16.1249
16.1453
16.1757
16.2082
16.2116
16.1775
16.1251
16.1153
16.1457
16.2262
16.3283
16.3898
16.4044
16.3748
16.3303
16.3035
16.3051
16.3415
16.3977
16.4831
16.5651
16.6339
10
10
10
12.4126
15.6154
16.0618
16.1201
16.1508
16.1536
16.1174
16.074
16.0323
16.0085
16.0035
16.0146
16.0479
16.0727
16.0836
16.1111
16.1442
16.1889
16.2291
16.2228
16.1777
16.1273
16.1106
16.1344
16.1982
16.2967
16.3647
16.3812
16.3519
16.3144
16.2941
16.3118
16.3619
16.4417
16.5204
16.5789
16.6229
10
10
10
12.4558
15.6352
16.0625
16.118
16.1498
16.1561
16.1259
16.0881
16.0526
16.028
16.0227
16.0161
16.0359
16.0537
16.0627
16.0945
16.1407
16.2025
16.2439
16.2294
16.1758
16.1344
16.114
16.1287
16.1796
16.2598
16.3298
16.3516
16.3245
16.2977
16.2928
16.33
16.3989
16.4908
16.5522
16.5854
16.6092
10
10
10
12.4956
15.6542
16.0645
16.1154
16.1469
16.1558
16.1307
16.098
16.0711
16.0496
16.0446
16.0266
16.029
16.0345
16.0421
16.0752
16.1378
16.2107
16.2493
16.2326
16.1773
16.1446
16.124
16.1329
16.1702
16.2218
16.2844
16.3132
16.2941
16.2817
16.297
16.3541
16.4471
16.5339
16.5753
16.5868
16.5961
10
10
10
12.5308
15.6719
16.0681
16.1127
16.1432
16.1533
16.1327
16.1044
16.0864
16.0705
16.0671
16.0455
16.0253
16.0171
16.0243
16.0568
16.1328
16.2116
16.2472
16.2336
16.1847
16.1577
16.1386
16.1436
16.1662
16.1882
16.2308
16.2633
16.2608
16.2702
16.3098
16.3957
16.4958
16.5659
16.5884
16.5832
16.5856
10
10
10
12.5602
15.6877
16.0721
16.1107
16.1393
16.1496
16.1327
16.1077
16.0982
16.0877
16.0863
16.0656
16.0262
16.0041
16.0077
16.0414
16.1252
16.2069
16.2414
16.2335
16.1948
16.1731
16.1559
16.1573
16.165
16.1617
16.1775
16.205
16.2259
16.2643
16.3335
16.4412
16.537
16.5868
16.5934
16.5767
16.5774
10
10
10
12.5832
15.7007
16.0759
16.1097
16.1364
16.146
16.1316
16.1094
16.1072
16.1014
16.1014
16.0815
16.0322
15.9958
15.9903
16.0274
16.1179
16.2005
16.2357
16.2335
16.2052
16.1882
16.1741
16.172
16.1662
16.1407
16.1316
16.1486
16.1898
16.2578
16.368
16.4861
16.5702
16.602
16.5934
16.5694
16.5714
10
10
10
12.6001
15.7102
16.0791
16.1095
16.1348
16.1435
16.1308
16.1109
16.113
16.1119
16.1123
16.0929
16.0397
15.9878
15.9739
16.0152
16.1134
16.1968
16.2332
16.2354
16.2143
16.2003
16.1902
16.1847
16.1676
16.1257
16.0977
16.1002
16.1545
16.2551
16.4004
16.5238
16.5954
16.6162
16.5922
16.5632
16.5661
10
10
10
12.6112
15.7162
16.0812
16.1096
16.1344
16.1423
16.1305
16.1122
16.1169
16.1188
16.1192
16.0997
16.0438
15.9789
15.9614
16.0072
16.1122
16.1968
16.2335
16.2379
16.2199
16.2064
16.2001
16.1936
16.1695
16.1193
16.0763
16.0638
16.1262
16.2552
16.4273
16.5532
16.6132
16.6264
16.5911
16.5586
16.5603
10
10
10
12.6166
15.7192
16.0821
16.1098
16.1342
16.1418
16.1304
16.1129
16.1189
16.1223
16.1224
16.1026
16.0443
15.9708
15.9516
16.0001
16.1107
16.1982
16.2372
16.2407
16.2237
16.2097
16.2047
16.1973
16.1687
16.1147
16.0651
16.0461
16.1064
16.2523
16.4406
16.5707
16.6278
16.6361
16.5924
16.5569
16.557
16.6133
16.5679
16.5107
16.4368
16.3705
16.3312
16.3158
16.3277
16.3485
16.3526
16.3243
16.2741
16.2214
16.1962
16.2291
16.3132
16.439
16.5439
16.5954
16.604
16.5947
16.5831
16.5984
16.6308
16.676
16.7217
16.7393
16.7391
16.7161
16.6769
16.6562
16.6424
16.6505
16.6883
16.7404
16.7704
16.7709
16.761
16.7232
16.675
16.6521
16.6428
16.6373
16.6518
16.6852
16.7192
16.7433
16.7711
16.8124
16.8542
16.8891
16.9153
16.9301
16.9382
16.9452
16.9519
16.958
16.9712
16.9874
17.009
17.0435
17.0879
17.1208
17.1439
17.1678
17.188
17.2027
17.2015
17.1861
17.163
17.1481
17.1475
17.1742
17.2163
17.25
17.2705
17.2784
17.291
17.3123
17.358
16.5752
16.5239
16.4745
16.4106
16.3571
16.3253
16.3211
16.3321
16.3458
16.3427
16.3088
16.2613
16.2204
16.2166
16.2632
16.3599
16.4812
16.5674
16.6009
16.6025
16.5937
16.5871
16.6089
16.6449
16.6905
16.7284
16.7381
16.731
16.7043
16.6685
16.6536
16.6448
16.6599
16.7008
16.7462
16.7661
16.7639
16.7513
16.7134
16.6686
16.6499
16.6429
16.6405
16.6571
16.6917
16.7256
16.751
16.782
16.8234
16.8623
16.8935
16.9152
16.9291
16.9369
16.9424
16.9489
16.9554
16.9714
16.9896
17.0158
17.0534
17.0973
17.1314
17.1526
17.1697
17.1894
17.2014
17.1981
17.1921
17.1773
17.1658
17.1721
17.191
17.2125
17.2347
17.2476
17.2564
17.2729
17.3041
17.3552
16.5633
16.5212
16.4678
16.4029
16.352
16.3237
16.3228
16.3332
16.3455
16.3408
16.3054
16.2613
16.2341
16.2465
16.2972
16.3867
16.4964
16.5723
16.6021
16.6006
16.5902
16.588
16.6119
16.651
16.6978
16.7303
16.7386
16.7285
16.6948
16.66
16.6456
16.6418
16.6628
16.7091
16.7516
16.7676
16.7668
16.7514
16.7087
16.6626
16.6476
16.6382
16.6382
16.6587
16.697
16.7316
16.7578
16.7893
16.8264
16.8624
16.8922
16.9139
16.9288
16.9376
16.9404
16.9425
16.9493
16.9668
16.9884
17.0204
17.0628
17.1062
17.137
17.1562
17.1694
17.181
17.1889
17.1964
17.2057
17.2054
17.2005
17.2012
17.1998
17.1982
17.202
17.21
17.2249
17.2524
17.2957
17.3566
16.5417
16.5055
16.4558
16.3962
16.3499
16.3245
16.3222
16.3301
16.3399
16.3338
16.3032
16.2692
16.2591
16.2833
16.3322
16.4069
16.5038
16.5725
16.6004
16.5984
16.5884
16.5906
16.6166
16.656
16.7014
16.7298
16.7335
16.7191
16.6816
16.6523
16.6401
16.644
16.6712
16.7182
16.7568
16.7664
16.7629
16.7422
16.6968
16.6573
16.6428
16.6347
16.6394
16.665
16.7058
16.7414
16.7674
16.7971
16.829
16.8619
16.8924
16.9165
16.9338
16.9423
16.9425
16.9397
16.947
16.9645
16.9916
17.0288
17.0727
17.1133
17.142
17.1569
17.1633
17.1665
17.1763
17.1934
17.2165
17.2346
17.2373
17.2265
17.2042
17.182
17.1677
17.1691
17.191
17.2344
17.2903
17.3563
16.5252
16.4957
16.4497
16.394
16.3493
16.3247
16.3182
16.323
16.3315
16.3268
16.3061
16.2919
16.2974
16.3203
16.3604
16.4211
16.5058
16.5713
16.5991
16.5977
16.5881
16.5924
16.619
16.6573
16.7022
16.7274
16.7247
16.7076
16.6706
16.6466
16.6396
16.6491
16.6794
16.7246
16.757
16.7617
16.753
16.7279
16.6846
16.6529
16.6384
16.6341
16.6448
16.6757
16.7186
16.7546
16.7807
16.8061
16.8335
16.8658
16.8988
16.9268
16.9461
16.9517
16.9484
16.9441
16.9508
16.968
16.9981
17.0375
17.0796
17.1159
17.1401
17.1503
17.1508
17.1518
17.1637
17.1939
17.2298
17.2547
17.2578
17.236
17.1973
17.1561
17.1364
17.1393
17.165
17.2198
17.2827
17.35
16.5169
16.492
16.4476
16.3941
16.3493
16.3221
16.31
16.3131
16.3244
16.324
16.3192
16.3259
16.3393
16.3533
16.3804
16.4313
16.5029
16.5671
16.5976
16.5985
16.5893
16.5943
16.6202
16.6572
16.7001
16.7211
16.7144
16.6967
16.6631
16.6447
16.6432
16.6564
16.687
16.7292
16.7526
16.7525
16.7388
16.7105
16.6717
16.6477
16.6363
16.6375
16.656
16.6924
16.7367
16.7715
16.7969
16.8172
16.8398
16.872
16.9086
16.9381
16.955
16.9587
16.9555
16.9539
16.96
16.9783
17.0075
17.0435
17.0805
17.1105
17.1296
17.1378
17.1384
17.1409
17.1569
17.1917
17.2314
17.2544
17.2524
17.2256
17.1772
17.1374
17.12
17.1283
17.161
17.2159
17.2744
17.3383
16.5149
16.4911
16.4456
16.392
16.3461
16.3157
16.3003
16.3052
16.3237
16.328
16.3446
16.3669
16.3784
16.381
16.3942
16.4362
16.4975
16.5629
16.5967
16.6
16.5912
16.596
16.6204
16.6555
16.6947
16.7135
16.7065
16.6902
16.6608
16.6465
16.65
16.6649
16.694
16.7309
16.7458
16.7418
16.7238
16.6927
16.662
16.644
16.6368
16.6454
16.6721
16.7146
16.7604
16.7919
16.8128
16.8278
16.8455
16.8754
16.9143
16.9431
16.9578
16.9607
16.9628
16.9644
16.9719
16.9894
17.0138
17.0413
17.0697
17.0963
17.1182
17.1304
17.1358
17.1419
17.1545
17.1814
17.2124
17.2304
17.2252
17.1993
17.1628
17.131
17.1222
17.1377
17.1732
17.2165
17.2646
17.3225
16.516
16.4906
16.4416
16.3857
16.3386
16.3073
16.2933
16.3022
16.3273
16.3433
16.3805
16.4084
16.4077
16.4022
16.403
16.4374
16.4902
16.5574
16.5947
16.6003
16.5921
16.5972
16.6197
16.6524
16.6894
16.7078
16.703
16.6889
16.6636
16.653
16.6599
16.6743
16.7006
16.7299
16.7379
16.7299
16.7083
16.6774
16.6563
16.6438
16.6421
16.6591
16.6945
16.7422
16.7842
16.8109
16.8255
16.8349
16.8478
16.8736
16.9095
16.9384
16.9536
16.962
16.9668
16.9722
16.9818
16.9979
17.0162
17.035
17.0525
17.0739
17.0976
17.1184
17.1353
17.1494
17.1578
17.1666
17.1762
17.1851
17.1852
17.1718
17.1534
17.1394
17.1428
17.1598
17.1854
17.2198
17.26
17.3135
16.5196
16.4909
16.4373
16.3783
16.3303
16.3004
16.292
16.3074
16.3361
16.3733
16.4214
16.4431
16.4292
16.4156
16.4092
16.4378
16.4821
16.5498
16.5905
16.5993
16.5919
16.5978
16.6185
16.6498
16.6859
16.7057
16.7039
16.6921
16.6703
16.6624
16.6693
16.6821
16.7045
16.725
16.7287
16.7177
16.6942
16.6717
16.6548
16.6477
16.6543
16.6792
16.7212
16.7685
16.8052
16.8246
16.8333
16.8378
16.8463
16.8665
16.8958
16.9253
16.9462
16.9601
16.9694
16.9776
16.989
17.0042
17.019
17.0324
17.0452
17.0617
17.0852
17.1129
17.1406
17.159
17.1638
17.1581
17.1482
17.1432
17.1483
17.1551
17.1574
17.1651
17.1753
17.1879
17.2043
17.2251
17.2541
17.3001
16.5267
16.4932
16.4339
16.3715
16.3228
16.296
16.2961
16.3221
16.3558
16.4115
16.4583
16.467
16.4446
16.4243
16.414
16.4378
16.4735
16.5395
16.584
16.5972
16.5914
16.5987
16.6179
16.6486
16.6847
16.7067
16.7078
16.6987
16.6789
16.6715
16.6764
16.6859
16.7028
16.7158
16.7166
16.7058
16.6878
16.6702
16.6595
16.6593
16.6737
16.7041
16.7469
16.7895
16.8196
16.8322
16.8361
16.8364
16.8412
16.8549
16.8769
16.9088
16.9356
16.9553
16.9687
16.9796
16.9928
17.0089
17.0254
17.0366
17.0463
17.0615
17.0862
17.1169
17.1465
17.1641
17.166
17.1575
17.141
17.1296
17.1341
17.1538
17.1799
17.2043
17.2133
17.2158
17.2182
17.2312
17.2534
17.2939
16.5359
16.4975
16.431
16.3656
16.3178
16.2947
16.3043
16.3406
16.3862
16.4506
16.4858
16.481
16.4542
16.4314
16.4192
16.4371
16.466
16.5268
16.5757
16.5951
16.5906
16.6007
16.6184
16.6488
16.6847
16.7084
16.7133
16.7048
16.6858
16.6763
16.6783
16.6835
16.6939
16.702
16.7031
16.6964
16.6856
16.6735
16.6696
16.6767
16.6973
16.73
16.7693
16.8049
16.8266
16.8347
16.836
16.834
16.8343
16.8419
16.8593
16.8903
16.9224
16.948
16.9656
16.9794
16.9956
17.0159
17.0351
17.0494
17.0575
17.0686
17.0899
17.118
17.1466
17.1666
17.1721
17.1611
17.1438
17.138
17.1474
17.1749
17.2124
17.2379
17.2446
17.2384
17.2386
17.2489
17.2664
17.3029
16.5454
16.5019
16.4279
16.3599
16.3159
16.2991
16.3189
16.3651
16.4274
16.484
16.5027
16.489
16.4592
16.4378
16.4256
16.4385
16.4606
16.513
16.5656
16.5913
16.5891
16.603
16.6196
16.6491
16.6845
16.7083
16.7159
16.7081
16.6887
16.6751
16.673
16.6747
16.6797
16.6867
16.6922
16.6917
16.6854
16.6802
16.6837
16.6983
16.7232
16.7544
16.7886
16.8143
16.8291
16.8363
16.8365
16.8325
16.8287
16.8316
16.8456
16.8723
16.909
16.9414
16.9644
16.9817
17.0017
17.0245
17.0451
17.063
17.0707
17.0799
17.0994
17.1257
17.1475
17.1628
17.1717
17.1688
17.1645
17.1644
17.1801
17.202
17.232
17.2562
17.2631
17.26
17.2607
17.2728
17.2907
17.3247
16.5525
16.5041
16.4245
16.3537
16.316
16.3105
16.3427
16.3961
16.4674
16.5076
16.5111
16.4908
16.4624
16.4443
16.435
16.4436
16.4583
16.4996
16.5528
16.5839
16.5852
16.6035
16.6201
16.6486
16.6832
16.7059
16.7151
16.7074
16.6865
16.6674
16.6618
16.6601
16.6635
16.6729
16.6829
16.6874
16.6865
16.6887
16.6996
16.7207
16.7458
16.7768
16.8032
16.8209
16.8329
16.8387
16.8388
16.8331
16.8258
16.8241
16.8346
16.8587
16.8983
16.938
16.9674
16.9888
17.0103
17.0298
17.0503
17.0705
17.0818
17.0915
17.1067
17.1262
17.1431
17.1545
17.1667
17.1762
17.1892
17.2023
17.2125
17.2238
17.2391
17.2574
17.2688
17.2717
17.2768
17.2898
17.3111
17.346
16.5563
16.5035
16.4212
16.3505
16.3183
16.3287
16.3746
16.4372
16.4986
16.521
16.5151
16.4894
16.4673
16.4544
16.4493
16.4544
16.4606
16.488
16.5365
16.5711
16.5778
16.6
16.6179
16.6462
16.6803
16.7007
16.7108
16.7028
16.6796
16.6552
16.6464
16.6432
16.6483
16.6612
16.6743
16.6838
16.689
16.6986
16.716
16.7393
16.7679
16.7949
16.8146
16.8265
16.835
16.8398
16.8394
16.8332
16.8239
16.8197
16.8288
16.8524
16.8931
16.9383
16.9751
17.0006
17.0192
17.0313
17.0468
17.0654
17.0828
17.0993
17.1153
17.1296
17.1399
17.1477
17.1614
17.1868
17.2164
17.2356
17.2438
17.2477
17.2458
17.2517
17.2644
17.2744
17.2831
17.2957
17.3166
17.3515
16.5577
16.5004
16.4178
16.3526
16.329
16.3562
16.4132
16.478
16.5199
16.5295
16.5168
16.4897
16.4756
16.4677
16.4666
16.4697
16.4675
16.4792
16.5163
16.5522
16.5655
16.5925
16.613
16.6427
16.6762
16.6936
16.7035
16.6949
16.6694
16.6414
16.6315
16.6289
16.6357
16.6505
16.6668
16.6799
16.6905
16.7064
16.7289
16.7556
16.7861
16.8098
16.8237
16.8309
16.8358
16.8389
16.8368
16.8301
16.8217
16.8185
16.8282
16.8534
16.8946
16.9426
16.9857
17.014
17.0263
17.0287
17.0355
17.0497
17.0721
17.097
17.1194
17.1337
17.138
17.1432
17.1579
17.1901
17.2286
17.2565
17.2644
17.261
17.25
17.2458
17.2571
17.2738
17.2895
17.3065
17.3284
17.3622
16.5581
16.4969
16.4148
16.3591
16.3576
16.3923
16.4543
16.5114
16.5344
16.5373
16.5181
16.4942
16.487
16.4834
16.485
16.487
16.4762
16.4712
16.494
16.5277
16.548
16.5814
16.6065
16.6396
16.6721
16.686
16.695
16.6852
16.6579
16.6288
16.6202
16.619
16.6271
16.6444
16.6636
16.6788
16.6923
16.7109
16.7383
16.7705
16.8014
16.823
16.8318
16.8337
16.8364
16.8361
16.831
16.8243
16.8191
16.8204
16.8335
16.8617
16.9037
16.9523
17.0016
17.0281
17.0322
17.0244
17.0212
17.0304
17.0561
17.0893
17.1174
17.1366
17.1419
17.1445
17.1559
17.1832
17.2239
17.2577
17.2677
17.263
17.251
17.242
17.2475
17.2673
17.2902
17.3123
17.3347
17.3661
16.5582
16.4959
16.4186
16.3755
16.3939
16.4384
16.4937
16.5366
16.5502
16.5471
16.5229
16.5032
16.5007
16.5005
16.5033
16.5032
16.4849
16.4646
16.4706
16.4999
16.5277
16.5679
16.6002
16.6377
16.6685
16.6788
16.6863
16.6752
16.6467
16.6193
16.6137
16.6143
16.6239
16.6438
16.6642
16.6791
16.6943
16.7179
16.7491
16.7847
16.8152
16.8335
16.8396
16.8384
16.8328
16.8258
16.8195
16.8159
16.8165
16.8255
16.8461
16.8805
16.9225
16.9702
17.0172
17.0396
17.0362
17.0201
17.0087
17.0125
17.0361
17.074
17.1119
17.1376
17.1485
17.1508
17.1545
17.1705
17.2031
17.2358
17.2521
17.2548
17.2479
17.2374
17.2391
17.2534
17.2755
17.2987
17.3216
17.352
16.558
16.4967
16.433
16.4109
16.4359
16.4828
16.5268
16.5569
16.5661
16.5573
16.5331
16.5166
16.5162
16.5179
16.5201
16.5166
16.4924
16.4586
16.4478
16.4746
16.5083
16.5543
16.5955
16.6367
16.6654
16.6725
16.6775
16.665
16.6359
16.6134
16.6106
16.6136
16.6283
16.6513
16.6705
16.6838
16.7005
16.7269
16.7621
16.7985
16.8277
16.8422
16.8455
16.8382
16.8249
16.8118
16.8067
16.8065
16.8146
16.8343
16.8673
16.9081
16.9499
16.9864
17.0258
17.0452
17.0385
17.0197
17.0045
17.0048
17.0247
17.06
17.0992
17.1309
17.1502
17.155
17.1534
17.1554
17.1702
17.1953
17.2176
17.23
17.2341
17.2322
17.2302
17.2339
17.2428
17.2583
17.2785
17.3088
16.5572
16.5046
16.4594
16.4621
16.4843
16.5221
16.5532
16.5743
16.5804
16.5686
16.5464
16.5333
16.5337
16.5348
16.5351
16.5274
16.4962
16.4521
16.432
16.4526
16.4915
16.5428
16.5929
16.6355
16.6624
16.6665
16.6678
16.6536
16.6258
16.608
16.6097
16.6162
16.6353
16.6623
16.6826
16.6963
16.7135
16.7403
16.7771
16.8118
16.8359
16.848
16.8466
16.833
16.8119
16.7958
16.7946
16.7995
16.8184
16.8514
16.8954
16.9382
16.9708
16.9936
17.0188
17.0355
17.0332
17.0206
17.008
17.0058
17.0186
17.0464
17.0825
17.12
17.145
17.1542
17.1498
17.1396
17.1373
17.1431
17.1639
17.1914
17.2109
17.2185
17.2177
17.2125
17.2079
17.2105
17.2197
17.2457
16.5546
16.5224
16.5036
16.5111
16.5338
16.5557
16.5752
16.5888
16.5904
16.5793
16.5606
16.5506
16.5505
16.5494
16.5473
16.5355
16.4976
16.4458
16.4194
16.4329
16.4761
16.5334
16.5914
16.6335
16.6587
16.6601
16.6571
16.6396
16.6151
16.6053
16.6111
16.6195
16.6423
16.672
16.6941
16.7097
16.7284
16.7577
16.7928
16.8231
16.8412
16.8496
16.8438
16.8241
16.799
16.7868
16.7877
16.8002
16.8301
16.877
16.927
16.9615
16.9807
16.9911
16.9984
17.0102
17.0165
17.0173
17.0149
17.0148
17.0173
17.0289
17.0569
17.096
17.1322
17.1481
17.1445
17.126
17.1075
17.1027
17.1143
17.142
17.1722
17.1919
17.198
17.193
17.1873
17.1899
17.1975
17.2184
16.5534
16.5479
16.558
16.5608
16.5783
16.5834
16.5941
16.6021
16.5984
16.5874
16.5728
16.5657
16.5641
16.5607
16.5564
16.5397
16.4966
16.4413
16.4082
16.4141
16.459
16.5229
16.5875
16.6297
16.6531
16.6533
16.6454
16.6259
16.6083
16.6032
16.6104
16.6223
16.6465
16.6768
16.7022
16.7214
16.7461
16.7786
16.8094
16.8329
16.846
16.8471
16.8371
16.8138
16.7896
16.7836
16.786
16.8071
16.8514
16.9094
16.9551
16.9746
16.9796
16.9781
16.9724
16.9781
16.991
17.0061
17.0179
17.0223
17.0192
17.018
17.0296
17.062
17.1065
17.1364
17.1374
17.1178
17.0924
17.0802
17.0843
17.1035
17.131
17.1588
17.1764
17.1806
17.1781
17.179
17.1848
17.2035
16.5603
16.5841
16.6075
16.6102
16.6147
16.6081
16.6117
16.613
16.6043
16.5937
16.5819
16.5767
16.5726
16.5676
16.5623
16.541
16.4941
16.4384
16.3983
16.395
16.4387
16.5076
16.5776
16.6229
16.6448
16.6456
16.6336
16.6169
16.6045
16.6016
16.6091
16.6216
16.6444
16.6741
16.705
16.7317
16.7669
16.8001
16.8266
16.8416
16.8474
16.8431
16.8274
16.8035
16.7842
16.7812
16.7901
16.824
16.8818
16.9421
16.9753
16.9811
16.9749
16.9636
16.9559
16.9559
16.9684
16.9905
17.0118
17.0208
17.0198
17.0149
17.0189
17.0425
17.0832
17.1197
17.1299
17.116
17.0921
17.0762
17.0772
17.0958
17.1213
17.1467
17.165
17.1707
17.1689
17.1721
17.1808
17.1999
16.5747
16.6259
16.6501
16.6538
16.6442
16.6321
16.6312
16.6218
16.609
16.5984
16.5874
16.5829
16.5763
16.5711
16.5663
16.5416
16.4898
16.4329
16.3877
16.3775
16.4158
16.4846
16.5601
16.6121
16.6344
16.6368
16.626
16.6138
16.6032
16.6004
16.6057
16.6162
16.6365
16.6667
16.7041
16.7427
16.7872
16.8193
16.8415
16.8499
16.8447
16.8356
16.8145
16.7938
16.7855
16.7864
16.8053
16.8515
16.915
16.968
16.9871
16.9834
16.9676
16.95
16.9432
16.9477
16.9603
16.9795
16.9993
17.0102
17.0135
17.0155
17.0199
17.0415
17.075
17.109
17.1276
17.1228
17.1083
17.0965
17.0956
17.1081
17.1272
17.1457
17.1549
17.1593
17.1622
17.1693
17.1845
17.2064
16.5999
16.665
16.6816
16.6899
16.6715
16.6574
16.6505
16.6301
16.6155
16.6028
16.5903
16.5845
16.5766
16.5725
16.5691
16.5416
16.4842
16.4255
16.3778
16.3631
16.392
16.456
16.5366
16.5973
16.6244
16.631
16.6248
16.6142
16.6035
16.5995
16.6009
16.6092
16.6272
16.6588
16.7025
16.7545
16.8044
16.8344
16.851
16.8535
16.839
16.8225
16.8001
16.7883
16.79
16.8
16.8306
16.8825
16.9425
16.9841
16.9927
16.9831
16.9623
16.9457
16.9408
16.9473
16.9617
16.9754
16.9861
16.9945
17.0028
17.0141
17.0264
17.0453
17.0724
17.1014
17.1254
17.1352
17.1355
17.135
17.1318
17.1348
17.1409
17.1438
17.1445
17.1485
17.1582
17.1725
17.1915
17.2148
16.6328
16.6979
16.7108
16.7141
16.6967
16.686
16.6714
16.6426
16.6234
16.6068
16.5925
16.5829
16.5744
16.5731
16.5701
16.5392
16.4788
16.4185
16.3685
16.3501
16.3698
16.4264
16.5097
16.5804
16.6162
16.6276
16.6276
16.6176
16.6053
16.5991
16.5978
16.6031
16.6196
16.6557
16.7046
16.7657
16.817
16.8442
16.8545
16.8508
16.8307
16.8082
16.7896
16.7882
16.7985
16.8204
16.8577
16.9081
16.9597
16.9908
16.993
16.9805
16.9622
16.9499
16.9478
16.9554
16.9653
16.9705
16.972
16.9767
16.9876
17.0088
17.032
17.0512
17.0706
17.0925
17.1176
17.1432
17.1632
17.1752
17.1767
17.17
17.158
17.1437
17.1378
17.1417
17.1537
17.1723
17.2009
17.2323
16.6659
16.7222
16.7363
16.7328
16.72
16.715
16.6941
16.6609
16.6341
16.6108
16.5939
16.5793
16.5709
16.5725
16.5691
16.5338
16.4746
16.412
16.3604
16.3394
16.3508
16.3999
16.483
16.563
16.6093
16.6273
16.6315
16.6215
16.6078
16.5997
16.5971
16.6013
16.6182
16.6568
16.7097
16.776
16.8235
16.847
16.8522
16.8446
16.8239
16.8022
16.7879
16.792
16.8104
16.8424
16.8809
16.9244
16.9671
16.9892
16.9891
16.979
16.9681
16.9609
16.9625
16.9683
16.9692
16.9629
16.9554
16.9565
16.9715
16.9999
17.0303
17.0525
17.0691
17.0873
17.1099
17.1452
17.1831
17.2087
17.212
17.2005
17.1764
17.1515
17.1398
17.1414
17.1542
17.1793
17.2138
17.2473
16.6921
16.7363
16.7541
16.7489
16.7428
16.7443
16.7204
16.6837
16.6483
16.616
16.5943
16.5743
16.5657
16.5693
16.5651
16.5263
16.4691
16.4058
16.3543
16.3318
16.3365
16.3792
16.4603
16.5455
16.603
16.6276
16.6331
16.6244
16.6094
16.6004
16.5981
16.604
16.6252
16.6662
16.7252
16.7872
16.8262
16.8441
16.8463
16.8384
16.8216
16.8038
16.794
16.8005
16.8243
16.8607
16.8961
16.9325
16.966
16.9812
16.9825
16.9794
16.9753
16.9723
16.9732
16.9742
16.9676
16.9572
16.9481
16.9459
16.9589
16.986
17.0164
17.0432
17.0639
17.0843
17.1077
17.1433
17.1883
17.2211
17.2284
17.2159
17.1905
17.165
17.1504
17.1478
17.1625
17.1916
17.2212
17.2523
16.7063
16.7399
16.7653
16.7632