/*--------------------------------*- C++ -*----------------------------------*\
| =========                 |                                                 |
| \\      /  F ield         | OpenFOAM: The Open Source CFD Toolbox           |
|  \\    /   O peration     | Version:  v1912                                 |
|   \\  /    A nd           | Website:  www.openfoam.com                      |
|    \\/     M anipulation  |                                                 |
\*---------------------------------------------------------------------------*/
FoamFile
{
    version     2.0;
    format      ascii;
    class       volScalarField;
    location    "9e-05";
    object      internalEMean;
}
// * * * * * * * * * * * * * * * * * * * * * * * * * * * * * * * * * * * * * //

dimensions      [1 -1 -2 0 0 0 0];


internalField   nonuniform List<scalar> 
1300
(
973.1779208
1091.95814
3849.054499
9675.129724
9189.164722
5174.323637
7095.929405
8707.928992
7693.057464
6899.533645
1094.668996
1242.231384
5215.478228
13802.42851
12583.39311
6144.134293
10764.65226
12089.6634
8712.70701
8909.296181
563.7538955
684.3448744
3488.382659
10254.57384
7390.753981
3900.127231
7404.115149
10117.80976
8972.291866
8032.870422
331.8922022
344.6948726
2482.753134
7400.929494
6432.12448
3247.302437
6221.861914
9824.821836
7694.466376
6562.1983
120.9534515
362.8144044
2117.137699
7418.40212
5633.495548
2903.940371
4266.787809
7527.874966
6635.872744
6518.335821
143.2958378
170.6470805
2176.836634
7902.209649
5269.479719
1811.131646
4167.626942
5354.189041
6595.716671
5335.164177
66.28621906
241.485455
2109.016047
7196.168448
4768.738946
1751.189573
3433.064966
5289.788283
4883.21035
4788.777396
110.545689
120.7933607
2610.004872
8162.918025
4521.201233
2196.430362
3684.073912
5174.351428
4427.467059
4221.091757
63.24974065
171.5148746
2315.299912
7323.833166
5233.160498
2134.144149
3779.035294
5312.128979
5310.334596
4107.605574
31.0768606
90.79154051
2079.422675
7371.122922
4458.053367
1870.22808
3098.861971
5391.643524
5347.44795
3286.850744
19.6127212
122.4262417
2132.657885
7620.966119
4383.358044
2086.473762
3568.771716
4793.947582
5008.783097
3974.171924
26.3959088
115.4228265
1986.590402
7385.468925
4568.944329
1772.372008
3607.255378
5595.796556
4578.629505
4419.127502
10.43615581
85.76503701
1948.729758
7380.156856
4488.219787
1791.97823
3271.407851
5585.750569
4322.899324
4075.006345
13.29919787
43.05068982
1846.464169
7789.519233
4385.540429
1735.968487
3536.269688
5406.578902
4147.543866
3853.532711
9.446716053
18.85903344
1903.596805
7616.002753
4308.080417
1694.930186
3544.95744
5433.670117
4872.342491
3526.029984
8.318953252
50.81939234
2054.503907
8148.958347
3980.657115
1809.158314
3414.015341
5000.248233
4203.267121
4291.543338
13.29919787
64.40538216
1851.195331
7112.217339
4149.384335
1945.026445
3562.380867
4904.740728
4552.506348
3890.706149
9.446716053
32.94212945
2097.449246
7182.773544
4450.951629
2101.150431
3568.756275
5300.186973
4734.447082
3501.925447
3.852481818
61.79395511
1969.458435
8052.58296
4974.749742
1960.366337
3094.968758
5186.249477
4859.409698
3881.534649
9.446716053
15.02611345
1814.272344
6901.740404
4188.237492
1795.67505
3460.340872
5442.287608
4496.895472
3654.005581
6976.031335
5965.133502
6061.38545
4416.465101
4732.860034
4503.554971
5879.390052
6026.050633
5153.579012
5664.150478
4582.991933
5886.152649
5104.730483
5935.112235
5899.616922
5556.490561
5866.593101
5690.642574
6004.822864
5431.088799
6432.599097
5884.229161
5811.878784
5460.766977
5540.186166
5701.9462
6913.899826
6326.757478
8100.478338
7416.789833
7490.310583
6309.172809
5869.387283
5528.52184
5187.31543
5046.256269
5359.767091
4710.73396
5184.170155
4509.03248
5097.075479
4814.404481
5678.001171
5177.24913
5544.099027
4788.701823
4421.383968
5657.235079
5039.156105
6162.404831
5752.835699
5725.344831
6111.41182
4790.827481
5260.889274
6001.506779
6186.321367
6369.334918
5744.989714
6778.735905
7552.418215
7352.051338
5666.211944
5730.241495
5453.340382
4656.208965
5221.93504
4430.769456
4785.156917
5646.340738
5088.925246
5004.268155
4703.95237
5024.673475
5010.107153
5257.477259
5675.161933
4486.898616
5606.976612
5686.766577
5352.23118
5503.226886
5161.891074
5663.025912
5400.308609
5287.914333
5612.934512
6828.853286
6973.476515
6219.636627
7462.530085
7335.953727
6606.162842
5846.209706
6070.448382
5286.091854
4968.658407
5437.514854
4962.143176
4838.812255
5247.071079
4967.942203
4883.688949
4857.004243
4921.188891
4700.41004
4949.004659
5725.4129
4784.357114
5239.416001
6244.417791
5208.291358
6012.286048
5833.939121
6434.157771
6046.227513
5773.195115
6153.653954
6518.090432
6302.676438
7172.495355
7903.856421
7806.588984
7046.456664
6112.50664
5920.519508
6099.721009
5533.722741
5621.856474
4972.046692
4894.211892
4556.032177
4519.454268
4543.276601
4821.248362
4556.61574
4676.850871
4275.605072
4604.242341
5096.617271
4902.763209
5809.033355
5357.896624
5661.838346
5305.731389
6622.722094
6427.851599
6195.643949
5769.7032
5837.063466
5766.459428
7352.311249
6884.366455
6670.408654
5671.368468
6670.883798
5698.719908
5020.920431
5210.398315
5496.934436
4656.786841
5102.053401
4810.626033
4325.932493
4702.677781
4640.270649
4495.014012
4793.044129
4561.219683
4981.904728
5064.115771
5477.371312
5448.353072
5490.457263
5808.443637
6370.400084
6342.767594
5768.757066
5573.257227
6596.048254
4224.677688
6285.204464
6549.976381
6740.461987
6214.479222
6691.28554
6071.457496
5630.333586
5625.729944
5497.422282
5036.730749
4487.52742
5108.827082
5034.105096
4755.04462
4517.27736
4537.883815
4688.962851
4674.875691
4950.186552
4781.428784
4922.938882
5603.414749
5195.820385
5839.434333
4999.910782
6689.347559
5536.081803
6245.989049
4985.88074
4398.779506
5672.751079
6019.171644
5154.984406
6044.820489
7554.709205
5984.85644
6495.141387
5919.50028
5965.222477
5721.251161
5512.767579
4978.653977
5163.437415
5181.023446
4823.637967
4339.394956
4923.671025
4514.531558
4480.408919
4801.321441
5714.358333
4895.835577
5627.852833
5207.065163
6387.489562
5843.235442
6001.670777
6227.22854
6305.684895
4227.678509
5105.908644
4758.570831
5019.638966
4916.373085
5934.071718
6341.402211
6144.541419
5973.797495
6061.528853
5105.572913
6148.613787
5532.861848
5224.070949
5173.619516
4853.156271
4942.476989
4930.385603
5030.735388
4185.105261
4546.132186
4532.764548
4762.515462
5170.317599
4983.513293
5620.962382
6092.470678
5555.896649
6891.06615
6256.227875
3222.373234
5072.6571
4573.860575
3957.902526
5455.308269
5271.101353
5361.293725
5450.365999
6110.946548
6243.067849
5943.543459
6066.541436
6031.400185
5346.671898
5937.041289
5323.897673
4788.481474
4706.370375
5185.681694
5219.874107
4117.117638
4240.377982
4967.68582
4562.700481
4877.929523
5507.023945
5233.967065
4971.672538
5713.326447
5278.452744
3701.97777
4869.766275
4762.480462
4483.242959
4559.50208
4956.066053
4893.529509
5346.233922
5122.343482
5838.102083
5778.980362
5666.049625
6040.56532
5855.614409
5421.425587
5400.648166
5930.876853
4822.727463
4886.275585
5098.8974
4873.746254
4860.757763
4904.615158
4632.096621
5028.813669
4951.001655
5180.924327
5533.110858
5130.064499
5571.598549
3331.902893
4828.837484
4108.449019
3995.157814
4320.466837
4554.714048
4171.639696
4774.626483
5179.634203
5266.365234
5530.390326
5752.053455
5556.957057
6071.871792
5550.993418
5887.168957
5435.318
5167.465617
5123.636672
5101.005409
5138.807542
4646.629783
4660.35737
4897.687296
4297.500848
5328.988035
4067.853143
4749.71008
5275.746958
4828.149038
3755.344775
4907.216747
4108.825233
3900.120915
4219.856954
4443.573949
4224.47002
4115.1712
4723.14969
4847.232248
4648.032736
5320.212322
5231.585256
5170.174355
5580.972813
5810.95897
5371.033054
5415.061914
5029.353671
5336.3714
4627.83275
4964.603683
4684.879882
4854.72843
4658.248322
4197.453564
4601.119193
4373.10502
5111.875854
5166.003532
3948.120796
4830.469592
4289.102437
3711.375134
4262.529601
4400.810614
4347.275479
3887.528166
4471.605234
4968.933439
4184.204648
4284.301581
5104.051615
4875.483295
5624.614724
5149.246126
5595.623501
6317.684478
5326.528212
5335.601062
5472.526874
5180.653525
5037.745948
5048.731593
4935.089202
4663.212086
4764.949602
4810.639966
4689.52114
4637.861569
3517.709566
4660.714939
4154.702985
4029.488716
4168.572683
4452.735258
4143.284998
4379.633783
4563.783364
3729.997231
4476.348786
4805.870812
4845.957526
4515.144689
5226.807854
5125.437658
4388.933555
6095.29505
5464.256195
5623.727984
5724.427159
5209.450214
5264.001251
5486.119204
5164.871681
4549.503773
4567.823789
4799.085096
4693.398365
4980.209832
3865.481792
4843.572434
4247.146176
3814.898135
4466.351319
4652.161604
3875.248232
4415.216046
4486.547355
4434.855313
4134.671415
4109.718775
4261.116335
4430.404773
4873.273502
4495.865012
4862.155498
4990.75191
5525.81268
5086.227536
5531.279738
5997.920318
5527.318777
4924.011497
5702.304837
5143.273168
4799.563046
4932.224276
4555.810988
4670.600314
3336.236861
4576.164895
4897.159035
3662.905391
4290.562288
4164.530502
4514.339803
4397.946368
4082.002205
4282.795648
4586.44684
4129.56877
4717.51363
4086.399899
4607.652743
4680.944891
4599.255051
5041.084538
4767.159877
4869.638773
5350.304821
5308.517565
5847.907489
5259.632318
5880.634496
5623.855353
5734.615153
5210.695154
4722.402603
5566.366477
3818.302645
4242.354369
4007.963775
4178.980609
4030.506177
4359.631218
3999.864573
4099.666865
4612.680432
4093.387752
4370.139584
4428.35203
4500.415494
4471.459939
4664.161309
4209.789754
4807.811684
4781.966943
4392.07123
5071.896617
5318.488961
4921.912091
4797.725729
4976.318409
5671.85401
5036.550103
5600.707237
5521.781978
5587.883141
5169.877751
3490.832694
4855.303766
4809.080771
3352.441993
3816.01424
5010.430399
4381.2975
4080.210931
4486.975391
4259.033398
3962.956138
4071.567474
4333.66701
4089.09864
4078.18661
4674.099792
4174.636904
4276.829428
4893.60518
4783.525992
4794.561312
5251.592872
4956.097472
4694.433438
4648.389716
5258.060652
5496.575955
5207.086577
5196.186382
5342.065322
4092.168639
4267.278245
4732.988481
4352.469805
4397.66519
4120.214834
4528.099034
3781.007626
4116.059268
3638.57241
3958.776186
4439.175977
4238.609272
4137.75494
4081.897238
4043.149489
4155.644674
4216.253863
4239.871355
4310.249604
4427.000341
4369.998055
4427.752259
5065.732375
4882.137578
4737.778843
4909.055057
4651.75684
4643.07749
5023.077516
6378.618559
7001.089956
6097.335817
5020.582568
5891.153879
5302.8897
5339.016819
5437.303746
4807.381372
4039.118262
8113.614712
8358.981981
6755.630067
6101.979166
7868.954208
7832.505375
7537.453211
7838.720763
5595.738513
6479.776613
7233.597151
5613.734313
7088.806643
6766.607283
6886.184294
6489.602462
6411.228584
6751.480827
6391.604752
4542.220006
5395.480781
6486.320727
7455.90138
6361.868894
7750.717237
6719.030948
7006.304901
6522.312143
5084.278672
4622.945065
5034.933157
6199.801702
5746.466559
6504.758196
6788.88108
6439.371829
6102.533931
5809.07192
6364.409379
5785.510894
5691.611935
6105.847084
5274.794023
6458.261438
6386.064242
5900.175771
6473.031791
5509.062737
5774.114921
6191.193579
5730.216859
5132.376933
6630.071916
5138.131652
5869.708525
5089.982042
4750.854146
5155.913044
4607.359772
5441.416539
5475.83244
5620.585092
5579.916389
4758.942154
6334.294672
5830.241282
4834.703755
5182.869381
5152.786503
4950.090252
5678.234749
6630.080484
5447.651721
5612.485304
6030.915538
5798.088044
5688.223538
4813.954023
5293.837839
4660.731342
5314.973986
5082.103317
5790.720973
6154.065196
5229.74372
5882.40217
5734.895586
5687.165083
5512.226837
5620.934156
5141.866146
5796.182086
5657.766838
4851.382251
5279.306581
5609.713153
5427.997589
5664.754713
5236.043364
5595.372428
5426.434524
5372.724925
5825.250195
5436.547069
5245.387676
6060.346129
4938.184603
5615.843601
4891.630282
6048.110355
4755.134393
5450.903931
4845.071466
5136.041661
5195.512025
5233.34612
4541.27974
5760.777335
4833.100939
5166.565711
4298.633313
4729.965618
4820.668162
5385.508977
4910.03118
5279.275712
5490.610708
5375.088732
5605.21574
5922.058456
4169.7209
4953.355343
4537.616156
4788.357463
4962.627131
5024.405706
4979.168791
5069.388828
5059.577281
6342.541592
4949.972429
4645.475173
5575.803857
4782.60319
4988.515587
4698.666804
5260.002269
5167.726458
5366.800479
4739.168125
5513.797116
4871.873691
4613.122983
4817.385074
5179.817734
4849.730924
4764.649889
5392.488273
4972.308861
5392.543199
5513.208815
5020.560688
5068.090904
5492.650406
5226.642008
5115.499102
4952.691329
5447.131744
5227.189878
4923.686813
4847.106809
5001.451124
4686.630604
4965.006721
4886.603663
5234.560987
5222.51516
4712.033154
5151.060652
4671.318205
5078.835039
4927.447346
5056.875582
4425.846937
4388.586511
4737.115229
4625.759308
4786.755207
4446.879649
5256.651598
2669.214458
3708.354739
3559.707597
3861.359924
3352.930522
3431.596612
3848.380809
2938.052819
3281.093642
3331.27915
3555.181245
3851.599657
3493.874925
3921.007321
3914.759532
3480.773279
4558.906629
4073.763603
3770.9686
4530.260316
4774.36395
4480.121994
4360.244796
4724.953876
4177.171114
4942.285691
4445.40589
4647.370158
4955.157829
4719.309776
3889.145465
4955.308669
5483.619808
4810.440387
5045.083417
3822.502381
4085.403441
4579.926914
4958.573714
5247.437541
5669.284635
5112.384893
4880.821527
4446.913488
4652.114116
5236.854741
4826.074633
5825.915749
5690.017161
5301.820196
6747.61472
6104.701592
4770.233991
6319.118082
5772.117855
6625.753093
6322.818796
6993.88772
7944.97213
6639.545105
3125.338912
4483.536209
4560.575684
4707.645681
5099.084471
4230.535371
3822.825373
4587.21024
4324.226446
5391.816723
5270.175734
4369.139983
4365.273984
4747.492258
5060.85263
5395.890064
4907.417106
4858.78438
5775.831415
4978.304911
6030.652185
5458.898464
5928.64551
6457.369932
5569.447722
6323.485914
6771.216179
6735.002942
7573.598623
7244.588621
3005.422619
4050.003265
4595.636248
4682.546012
4212.371288
3729.571687
4424.868526
5272.237799
5262.37029
4705.586184
5180.68921
4634.674192
4826.664353
5043.642672
5390.165793
4360.42119
4393.048946
5351.674669
5512.120755
4864.07033
5959.657367
5692.102701
5880.400806
5747.882717
5323.065831
5526.551095
6536.400956
6550.805613
7881.684207
6279.184226
3134.651758
4361.296858
4111.817293
4665.241073
4519.276277
4730.169288
3666.340857
4728.033821
4547.327791
4994.770522
4528.939561
4770.001871
4434.809352
3983.346396
5033.252569
4924.07669
4620.916216
4487.492677
4946.38505
4622.352463
5238.36363
5389.583844
5728.733497
5220.362431
6363.523336
5731.043982
5954.098053
6390.206585
7970.570148
7051.92018
2951.496269
3884.210529
3482.490526
4747.333151
4307.275066
4501.111881
4817.211325
4949.017934
4465.262842
4493.735169
4541.871073
4188.653088
3725.053845
4805.380163
5191.068899
5282.602036
5201.558594
5387.889438
4569.215537
5602.439841
5158.629297
5442.322383
5286.440698
5149.366352
5587.33721
5604.993349
5540.716815
6236.736211
8207.896326
8200.802799
2689.525489
4677.831873
4385.516607
4243.418133
3969.888814
4670.376521
4566.65203
4400.842965
4667.333558
4782.286442
4721.714102
4936.869255
4874.608383
5010.351596
4805.451817
5297.543738
5103.56101
5318.305089
4874.877412
5371.758359
6266.555323
5302.11363
5047.374435
5955.8151
6358.527489
7151.033586
4908.305207
5690.442008
6880.669074
7788.974348
2947.568512
4760.046766
4105.756963
4398.438908
4648.328969
4308.513945
4931.009488
4740.439803
4990.250647
4854.591449
4602.463384
4864.170654
5439.282159
4720.055404
5063.719068
4450.113
4551.807145
4669.808084
4841.079061
5537.366647
4497.526915
5815.222751
5834.182647
5778.527678
5125.790395
5743.632326
6325.285914
6179.967756
7717.223911
7384.989813
2970.124183
4632.333823
4333.496489
3990.884494
4632.238079
5071.715081
5193.417225
5215.45608
4573.393545
4902.808237
4846.591536
4947.480046
4819.575825
5277.016508
5794.331954
4995.843463
5609.098409
4503.805145
5474.280417
5154.934743
6735.713502
5999.805852
6370.454059
6308.847725
5339.525649
6165.359462
5240.4237
5647.85113
8659.593625
7825.655729
2805.708301
4957.362279
4769.141912
4315.925468
4754.193699
5188.875955
4622.29867
3767.123234
4676.962953
5257.467956
5098.633968
6176.19414
5342.390685
5448.148602
5120.981481
5183.397685
4631.907529
4733.126562
5126.209607
5636.696016
5842.787148
5403.047175
5623.192505
5567.501626
5868.74122
5718.639967
6147.563611
6488.500697
8259.455675
6824.458884
)
;

boundaryField
{
    inlet
    {
        type            calculated;
        value           nonuniform List<scalar> 
20
(
973.1779208
1094.668996
563.7538955
331.8922022
120.9534515
143.2958378
66.28621906
110.545689
63.24974065
31.0768606
19.6127212
26.3959088
10.43615581
13.29919787
9.446716053
8.318953252
13.29919787
9.446716053
3.852481818
9.446716053
)
;
    }
    outlet
    {
        type            calculated;
        value           nonuniform List<scalar> 
70
(
4039.118262
6479.776613
4542.220006
4622.945065
5785.510894
6191.193579
5441.416539
4950.090252
4660.731342
5620.934156
5595.372428
6048.110355
5166.565711
5922.058456
6342.541592
4739.168125
5392.543199
4923.686813
4671.318205
5256.651598
9.446716053
15.02611345
1814.272344
6901.740404
4188.237492
1795.67505
3460.340872
5442.287608
4496.895472
3654.005581
4092.168639
4267.278245
4732.988481
4352.469805
4397.66519
4120.214834
4528.099034
3781.007626
4116.059268
3638.57241
3958.776186
4439.175977
4238.609272
4137.75494
4081.897238
4043.149489
4155.644674
4216.253863
4239.871355
4310.249604
4427.000341
4369.998055
4427.752259
5065.732375
4882.137578
4737.778843
4909.055057
4651.75684
4643.07749
5023.077516
5078.835039
4927.447346
5056.875582
4425.846937
4388.586511
4737.115229
4625.759308
4786.755207
4446.879649
5256.651598
)
;
    }
    wall
    {
        type            calculated;
        value           uniform 0;
    }
    frontAndBack
    {
        type            empty;
    }
}


// ************************************************************************* //
