/*--------------------------------*- C++ -*----------------------------------*\
| =========                 |                                                 |
| \\      /  F ield         | OpenFOAM: The Open Source CFD Toolbox           |
|  \\    /   O peration     | Version:  v1912                                 |
|   \\  /    A nd           | Website:  www.openfoam.com                      |
|    \\/     M anipulation  |                                                 |
\*---------------------------------------------------------------------------*/
FoamFile
{
    version     2.0;
    format      ascii;
    class       volScalarField;
    location    "9e-05";
    object      rhoMMean;
}
// * * * * * * * * * * * * * * * * * * * * * * * * * * * * * * * * * * * * * //

dimensions      [1 -3 0 0 0 0 0];


internalField   nonuniform List<scalar> 
1300
(
0.007985022222
0.008738133333
0.02363106667
0.06137253333
0.03459804444
0.02569773333
0.03619288889
0.03741675556
0.03042093333
0.02947657778
0.009786177778
0.01033226667
0.03263506667
0.1085611111
0.0528432
0.03368346667
0.05380048889
0.0554836
0.03840666667
0.03697471111
0.004915155556
0.005505733333
0.03192751111
0.1108936444
0.04952111111
0.02780853333
0.05697511111
0.06785275556
0.04667262222
0.04287871111
0.003409644444
0.003660444444
0.02767577778
0.1018017333
0.04745586667
0.02748453333
0.05923373333
0.07912973333
0.05189777778
0.04835573333
0.001904133333
0.0032916
0.02842817778
0.1027471556
0.04955053333
0.02769084444
0.05363866667
0.07126275556
0.05309328889
0.0518088
0.001933555556
0.001830222222
0.02558004444
0.1041920444
0.04622951111
0.02265693333
0.05427373333
0.064296
0.05749177778
0.04965351111
0.001062755556
0.002332177778
0.02552084444
0.1001032
0.04432502222
0.01822937778
0.05278293333
0.0629968
0.04974284444
0.04448791111
0.001402177778
0.001712177778
0.03089346667
0.1027769333
0.04382484444
0.02401533333
0.04980026667
0.06484208889
0.04524102222
0.04370502222
0.0007233333333
0.001372755556
0.02720288889
0.1030715111
0.04712902222
0.0252844
0.05341728889
0.0626276
0.04921075556
0.04265697778
0.0005313777778
0.0009447111111
0.02535831111
0.1004881778
0.0448424
0.02376382222
0.04751328889
0.06591991111
0.04897466667
0.03815551111
0.0004280444444
0.001476088889
0.0269528
0.1042663111
0.04460595556
0.02326222222
0.05098248889
0.0641636
0.04521124444
0.04369137778
0.0004133333333
0.001254711111
0.02740991111
0.09936657778
0.04680537778
0.02001511111
0.05276857778
0.06612622222
0.04661306667
0.04558008889
0.0002213777778
0.001166088889
0.02405911111
0.1042214667
0.04561022222
0.02340968889
0.04990502222
0.06782333333
0.04600813333
0.0433516
0.0002066666667
0.0005166666667
0.02673142222
0.1029531111
0.0414916
0.02281946667
0.05157235556
0.06270186667
0.04416284444
0.04290884444
0.0001033333333
0.0006494222222
0.02723302222
0.0987168
0.04476848889
0.02221453333
0.05028786667
0.06674586667
0.04909271111
0.03880528889
0.0002213777778
0.0008560888889
0.02808911111
0.1074412889
0.04326262222
0.02423706667
0.05372693333
0.06124084444
0.0463332
0.04339502222
0.0002066666667
0.0007233333333
0.02819208889
0.09842115556
0.04392675556
0.02493026667
0.05312271111
0.06190462222
0.04730733333
0.04389733333
0.0001033333333
0.0003247111111
0.02841382222
0.09930702222
0.04302688889
0.02606657778
0.05111417778
0.06242128889
0.04754306667
0.04200755556
0.0001033333333
0.0007233333333
0.02743933333
0.1041787556
0.04618573333
0.02538808889
0.04532928889
0.0626868
0.04773502222
0.04134377778
0.0001033333333
0.00031
0.02569737778
0.0981248
0.04075355556
0.02593346667
0.05017017778
0.06417795556
0.04823768889
0.04481226667
0.02964134865
0.02491179622
0.02464433113
0.02285777573
0.02189697257
0.02103369612
0.0245595081
0.02672287963
0.02255337197
0.02442533614
0.0224561383
0.02671164088
0.0245961537
0.02517955438
0.02667558103
0.02823131674
0.02792720561
0.02739227526
0.02902100929
0.02483909076
0.02678463922
0.02825525902
0.02818255333
0.02712480997
0.02909459336
0.02869295588
0.0303589215
0.0321454769
0.03783524606
0.039161041
0.0354165269
0.02956835008
0.02691793255
0.0261767103
0.02465615563
0.02656535135
0.02476579977
0.02470462594
0.02826737659
0.02492449974
0.02610312601
0.0238177001
0.02915518125
0.02491208909
0.02712480997
0.02616400698
0.02646782478
0.02493603158
0.02747709829
0.02924000404
0.02688128695
0.02830372932
0.02877807179
0.02722204345
0.02510684913
0.0298236978
0.03012810181
0.03055250985
0.03043162671
0.0328030476
0.04372036142
0.04177481283
0.03413949545
0.03198794841
0.03209671346
0.02845001885
0.02735592253
0.02731956958
0.02834066779
0.02893589339
0.02806049895
0.02747768404
0.02503326506
0.0254467268
0.02750133344
0.02555607807
0.02706422186
0.02747651255
0.02970222941
0.02814649347
0.02795114812
0.02835307824
0.02795173364
0.02819408539
0.02784208993
0.02682040598
0.02903371261
0.02964164153
0.03319168838
0.03181800947
0.05492996143
0.05004288029
0.0426877316
0.0400246105
0.04024331229
0.03455325028
0.0333864485
0.03334921688
0.03022504242
0.0298845788
0.02989640325
0.0294220608
0.02894859671
0.02894859647
0.02702728361
0.02823131673
0.02814532198
0.02730686648
0.02809714478
0.02708787127
0.03150148813
0.02750191919
0.03061426897
0.03168442326
0.03215847309
0.02883924541
0.02951929428
0.03315475019
0.03378691398
0.03219482582
0.06481523117
0.05895552227
0.05012828949
0.05281476711
0.04455998828
0.04327083961
0.04091241516
0.03976867672
0.03788459529
0.03321650956
0.03223117828
0.03349579955
0.03104014162
0.02863207513
0.0291309461
0.02983610849
0.03056521291
0.02842607657
0.0302489847
0.02911912115
0.0290943005
0.03213365219
0.02982428354
0.03206094674
0.03011510562
0.03321592354
0.03345856821
0.03181742372
0.02876624709
0.03056579891
0.05501478446
0.06400071718
0.05533189155
0.05567235517
0.05196419338
0.05140444232
0.04522821257
0.04266320322
0.0407179482
0.04063253942
0.03625556809
0.03840770118
0.03395714606
0.03601263082
0.03320351336
0.03281516518
0.03365362064
0.03067544284
0.03198765554
0.03324015869
0.03156236888
0.03187859735
0.03253558204
0.03215818022
0.03426154983
0.03196371299
0.03382385273
0.03285181078
0.03075967988
0.03482100844
0.0495200677
0.05885741017
0.05776272859
0.0587965299
0.05575688487
0.05612187698
0.05174490594
0.04904601746
0.04972635937
0.04680876917
0.04340442547
0.0403039005
0.03885693011
0.03868699085
0.03662056003
0.03720337518
0.03466318679
0.03849281708
0.03320351337
0.03359332563
0.03620680521
0.03271705308
0.03416431607
0.0331922744
0.03484553647
0.0338480876
0.03387232303
0.03258405262
0.03589057644
0.03044374453
0.05183002185
0.05524648231
0.05719144528
0.05307070057
0.05956286544
0.06549586554
0.05754402648
0.0562557556
0.05593952759
0.05232889258
0.04984841333
0.05007952631
0.04640801054
0.04381905891
0.0430521375
0.04251691404
0.03770283134
0.04041325156
0.03643821064
0.03529476511
0.03624345081
0.04082700638
0.03534352829
0.03653544412
0.03635280187
0.03748325061
0.03467501178
0.03689985003
0.03707008153
0.03643791777
0.05061474977
0.05252306624
0.0486198526
0.05535641957
0.05331305166
0.05868717884
0.06060907768
0.060133563
0.05989062623
0.05637722469
0.05200025323
0.05460220113
0.04887549318
0.04920325308
0.04874190697
0.04654159675
0.04441369875
0.0430887831
0.04431675851
0.03922250717
0.040644657
0.04047471805
0.03889357539
0.03910045312
0.04019425657
0.03997613987
0.04095971397
0.03722848894
0.04231003628
0.03777495136
0.04617660511
0.05512472081
0.04910660575
0.04753875247
0.05265665244
0.05249853864
0.05706968377
0.05471213748
0.05603676108
0.06149571085
0.05655957361
0.05779995993
0.05793354615
0.05101638659
0.05103974355
0.04855955758
0.0487049681
0.04441399198
0.04924048483
0.04466933933
0.03984196825
0.04235967842
0.04226156598
0.04094847502
0.04235938555
0.0396232658
0.039623559
0.03995102643
0.04237091704
0.03854128738
0.04922748864
0.05186666702
0.04973935556
0.05020070207
0.0510766816
0.05100280508
0.05304617255
0.05562329866
0.0544925572
0.05965951366
0.05811618792
0.05895435127
0.05827430264
0.05775031767
0.05438379188
0.0522919541
0.05692397951
0.04945947982
0.04750181399
0.04804886176
0.04513097909
0.04954430285
0.04431617239
0.04240756298
0.04299125674
0.04398841209
0.04525303347
0.04043836533
0.04195804083
0.04532515318
0.04631048419
0.05237736245
0.04927683756
0.04750181399
0.04904572459
0.05308223241
0.04879096302
0.04956912334
0.05503989823
0.05417632873
0.05687609495
0.05691186241
0.0584687696
0.05832247959
0.05606041048
0.05851723991
0.05559877064
0.05041969706
0.0561215841
0.05072322179
0.0502985213
0.04703958887
0.04868131869
0.04691899885
0.04498439668
0.04819485841
0.04136193697
0.04423193547
0.04768357724
0.04246844374
0.04941071664
0.05139232432
0.0465291863
0.04759963322
0.04697870772
0.05167190761
0.04908207772
0.0456292637
0.05484572414
0.05108792098
0.0504924021
0.05753220177
0.054602494
0.05799442642
0.05579323806
0.05895435127
0.05572082502
0.05441985174
0.05417632873
0.05445591115
0.05017675979
0.05204901684
0.04840144295
0.04817003791
0.04900966514
0.04443764103
0.0461766051
0.04528938619
0.04790257223
0.04679723734
0.04820697639
0.0544801463
0.04539903013
0.04638318965
0.0471007621
0.04928954088
0.04927683756
0.04492410131
0.04847444168
0.05410420902
0.04677241606
0.0488397262
0.0546391396
0.05119756449
0.05765396328
0.05343539935
0.05872382396
0.06037679363
0.05484543127
0.05463884628
0.05561118155
0.05525830748
0.05371498177
0.0520969014
0.049508243
0.05014011377
0.05100309795
0.04897272666
0.04942254093
0.04566649541
0.04671153569
0.05094250964
0.04917931121
0.0476720458
0.04997046771
0.048766435
0.04908237059
0.05005529074
0.05011617191
0.04741669809
0.0502497577
0.05184243229
0.05494178614
0.04784257009
0.05595164517
0.05636539999
0.05090586405
0.06148330041
0.05697303603
0.05762914191
0.05683915695
0.05407968099
0.05527071747
0.05631634394
0.05647387243
0.05017734512
0.04843779608
0.05293682149
0.04770869101
0.05229166124
0.05173308124
0.05328969512
0.04838932578
0.04784198474
0.04939889153
0.05249824577
0.04492468742
0.04942312668
0.05117332976
0.04913113377
0.04879154836
0.04685753235
0.04814697425
0.0493258932
0.05240130516
0.05207325199
0.05243853608
0.05621940333
0.05508895428
0.0568152142
0.05906399519
0.0594650467
0.05726532175
0.05040728661
0.05512559988
0.05260818214
0.05056569372
0.05234071728
0.05217077792
0.04969059238
0.0461033139
0.05050510542
0.05325275709
0.04532573892
0.05029793514
0.0480979182
0.0517691411
0.04864467309
0.04972606649
0.05106427157
0.05095433435
0.05075928207
0.05178125867
0.04736822739
0.05246218592
0.05037151962
0.05082104102
0.05130750171
0.05365351572
0.05529495262
0.0561830506
0.05635269667
0.06190946517
0.05714385359
0.06097289785
0.05877229427
0.05841912781
0.05575747108
0.05354445709
0.05538065473
0.04843750321
0.04753816633
0.04694264825
0.04932472212
0.04733158179
0.05089345402
0.04722281687
0.04596914157
0.05038334433
0.04787950896
0.05293564957
0.04782986716
0.05136779672
0.05085710087
0.05101550839
0.05056452223
0.05486966597
0.05404274252
0.04876584925
0.05253489094
0.05421297433
0.05512442839
0.0548811978
0.05698456786
0.06080266603
0.05467549188
0.06037737938
0.05962345381
0.05755702219
0.05556271124
0.04700352901
0.05333757968
0.04637107207
0.04207892407
0.04528938582
0.0505529904
0.04899725469
0.04745275755
0.04669912524
0.04900878652
0.04728281861
0.04695447296
0.05007952631
0.0487782593
0.04719799597
0.05195178335
0.04694206213
0.05331334497
0.05266818471
0.053167055
0.05418873918
0.05343510648
0.05458979023
0.05466278901
0.05319129059
0.05832247959
0.05654687076
0.05706997664
0.05778754901
0.060255325
0.05135567914
0.05004317316
0.05153832141
0.0517809658
0.04981206061
0.04652889343
0.04937377817
0.04611601684
0.04685753235
0.0471977031
0.04812156721
0.04773321943
0.04776927929
0.04979965016
0.04644377753
0.05023764054
0.04942254094
0.04640771767
0.04961759405
0.0493743635
0.05122150719
0.04950795012
0.05097886237
0.05279053196
0.05461373296
0.05466278856
0.0532764065
0.05316793405
0.05224348337
0.05604887865
0.03166022222
0.03462746667
0.03326942222
0.02493062222
0.03081991111
0.02820751111
0.02581542222
0.02491591111
0.0249152
0.0216236
0.03752044444
0.03974928889
0.03647275556
0.03393391111
0.04054582222
0.03864168889
0.03479
0.03390484444
0.02885693333
0.02872382222
0.03312195556
0.03253173333
0.03507057778
0.03706297778
0.03638448889
0.0359708
0.0336544
0.03264942222
0.02981564444
0.02649497778
0.02941702222
0.02941737778
0.03607377778
0.03580826667
0.03579462222
0.03543977778
0.0331808
0.03427333333
0.02910666667
0.02924048889
0.02997746667
0.03099644444
0.03022897778
0.03567551111
0.03567551111
0.0338008
0.03617746667
0.03232506667
0.03095195556
0.03347608889
0.03194115556
0.03340253333
0.02944644444
0.03419977778
0.03439173333
0.03282737778
0.03541035556
0.03120311111
0.03524817778
0.03505551111
0.03158737778
0.03058417778
0.03518791111
0.03157231111
0.03300462222
0.03452448889
0.03256115556
0.03561702222
0.03244311111
0.03619217778
0.03620724444
0.03451013333
0.03359484444
0.03169035556
0.03549862222
0.03570493333
0.03092324444
0.03414057778
0.03307853333
0.03303333333
0.03582368889
0.03893768889
0.03812537778
0.03453884444
0.03691586667
0.0351592
0.03605977778
0.03160173333
0.03365333333
0.03248795556
0.03743217778
0.03964631111
0.04039942222
0.03938115556
0.03594137778
0.04265733333
0.03523275556
0.03554311111
0.03882035556
0.03458333333
0.03862733333
0.04045791111
0.04423675556
0.03977835556
0.03933595556
0.0387608
0.04053217778
0.04088631111
0.04068
0.03786057778
0.04215608889
0.04538884444
0.04543262222
0.04316
0.04292355556
0.04401573333
0.04183137778
0.043188
0.0361484
0.04220022222
0.04503293333
0.04841351111
0.04494502222
0.04155044444
0.04460524444
0.04295262222
0.04276031111
0.04391275556
0.04149124444
0.04184608889
0.04493102222
0.0487088
0.04807444444
0.04732204444
0.04667191111
0.0455216
0.04773502222
0.04650973333
0.04460524444
0.04845835556
0.04715915556
0.04490124444
0.04590444444
0.04932915556
0.05115902222
0.04653951111
0.0495796
0.04540284444
0.04794133333
0.04956524444
0.05151351111
0.0487088
0.05239937778
0.05014075556
0.04978662222
0.04859075556
0.05171982222
0.05120351111
0.0470856
0.04619973333
0.05728511111
0.05461351111
0.05056951111
0.05198568889
0.05002271111
0.05300466667
0.04912248889
0.0513072
0.05214857778
0.05265017778
0.05707737778
0.05166133333
0.05706337778
0.0569604
0.05424395556
0.05608888889
0.05368386667
0.05408177778
0.05446604444
0.05135097778
0.05598555556
0.0532404
0.05419982222
0.05387617778
0.05390453333
0.05349084444
0.05479146667
0.05092257778
0.05625106667
0.0522372
0.05696004444
0.05514488889
0.05452417778
0.05442155556
0.05020066667
0.05332937778
0.05086373333
0.05200111111
0.05185364444
0.05538062222
0.02393536738
0.02999624013
0.02526482907
0.02646258904
0.0214532187
0.02532305045
0.02649169974
0.01984685364
0.02339611594
0.02520590409
0.02692976706
0.02411143871
0.02443271172
0.02457756138
0.02519134874
0.02450548846
0.02885670155
0.0266958264
0.02415545654
0.02444691504
0.02774838469
0.02564502705
0.0278644754
0.02982157626
0.02488533466
0.02982192775
0.02843494855
0.03002605471
0.03207189422
0.03202576596
0.02747262553
0.03356563403
0.03299308255
0.03050470418
0.03229155986
0.02535621637
0.02601360024
0.03026101627
0.03087632889
0.03349298883
0.03203499671
0.0325352478
0.03153371276
0.02957374741
0.03153336826
0.03398001959
0.02821621916
0.03164911881
0.03297882904
0.03024676276
0.03515225223
0.03429428576
0.03140543088
0.03699750024
0.03409404765
0.03766982624
0.03689669219
0.03990060833
0.03832789909
0.03656817251
0.0234113576
0.03204216522
0.03205612946
0.03221040773
0.03378010544
0.02698498559
0.0279086302
0.02933902611
0.02876414262
0.03002528412
0.02954882261
0.0280349806
0.02859522543
0.02936594149
0.0313548953
0.03268754395
0.03052899794
0.0298005112
0.03218281735
0.02681674314
0.03309351052
0.03285578615
0.03356997143
0.03378044325
0.03291096689
0.03578369788
0.0364835824
0.03813672653
0.03715688834
0.03651117276
0.02381072114
0.03166551255
0.03106101821
0.03182974353
0.02731186946
0.02692734166
0.02674909431
0.03070353088
0.03111642332
0.02861732177
0.03170623944
0.02786095923
0.02911100617
0.02875418041
0.0305389697
0.03117050534
0.03097890258
0.03331245062
0.02970148414
0.02740833225
0.03067649016
0.03133572836
0.03284613769
0.03309347636
0.0323794946
0.03339555798
0.03740573104
0.0373506567
0.03813306756
0.03563396636
0.02314361623
0.03064377975
0.03091182979
0.02970025458
0.02980890122
0.03030669082
0.02419351836
0.02756051829
0.02708891798
0.02936446266
0.02931046325
0.02816630615
0.02905421086
0.02510955752
0.0301044373
0.03085880361
0.03002360048
0.02857016455
0.02902802209
0.02618694568
0.02714291711
0.02839507276
0.02865067651
0.02961974236
0.03488396895
0.03368678509
0.03601568057
0.03633837811
0.0374700894
0.03822348309
0.02168380474
0.02837876141
0.02477447001
0.02988524527
0.02933117906
0.02633232819
0.0277187655
0.02971318792
0.02678173635
0.02874951744
0.02727031142
0.0258970361
0.02576446427
0.02483996044
0.03157472094
0.03038666422
0.02911931862
0.03176025788
0.02765295674
0.02839255938
0.02890777655
0.02839319585
0.02909267701
0.02943615522
0.03063800991
0.03397811192
0.03141709805
0.03687071503
0.03601265606
0.03790051264
0.02105590253
0.02954296039
0.02670533164
0.02805405305
0.02906418926
0.02944058143
0.02499594196
0.02590276258
0.02474963097
0.02554022175
0.02725023545
0.02664138364
0.02687415592
0.02892181816
0.02923238953
0.03037323118
0.0296213835
0.02766474669
0.02688769463
0.02817059501
0.03024346239
0.0300878647
0.02824808172
0.03056788436
0.03315826599
0.03282124141
0.03144793991
0.03183693414
0.03867886237
0.03768039217
0.02038808564
0.02678539209
0.02435625786
0.02542443517
0.02457328622
0.02575585659
0.0242554604
0.02255009898
0.02592126093
0.02472540174
0.02342843852
0.02604863644
0.02936756122
0.02518327934
0.02809472525
0.0223083308
0.02659494158
0.02576883925
0.02522130838
0.026926363
0.0258572668
0.0291004403
0.02824806581
0.02988820766
0.0300029069
0.03040977296
0.03116104363
0.03381865743
0.03768480638
0.03711284241
0.01798314958
0.02705015656
0.02241738021
0.02240433182
0.02240463246
0.02548829954
0.02515223794
0.02500227537
0.02463951557
0.02503931493
0.02460247601
0.02407820961
0.02421542442
0.0258386126
0.02980990798
0.02882240507
0.02747454854
0.02648794834
0.02616313017
0.0247272441
0.03130892995
0.02754922912
0.03052147687
0.03235716235
0.02952273081
0.03000965699
0.02896052236
0.03120755118
0.03853844666
0.03969960239
0.01681678788
0.02562442579
0.02046012424
0.02031312466
0.0219933148
0.02385777186
0.0224841015
0.02189551208
0.02237377795
0.02416429182
0.0251577945
0.02664237957
0.02363712477
0.02699839162
0.02393082843
0.0239069687
0.02449555774
0.02483964036
0.02425075564
0.02717013735
0.02658125286
0.02513334402
0.02764840304
0.02864161067
0.0311683043
0.02862938509
0.02965956423
0.03222263842
0.03839296356
0.03459040261
)
;

boundaryField
{
    inlet
    {
        type            calculated;
        value           nonuniform List<scalar> 
20
(
0.007985022222
0.009786177778
0.004915155556
0.003409644444
0.001904133333
0.001933555556
0.001062755556
0.001402177778
0.0007233333333
0.0005313777778
0.0004280444444
0.0004133333333
0.0002213777778
0.0002066666667
0.0001033333333
0.0002213777778
0.0002066666667
0.0001033333333
0.0001033333333
0.0001033333333
)
;
    }
    outlet
    {
        type            calculated;
        value           nonuniform List<scalar> 
70
(
0.0216236
0.02872382222
0.02649497778
0.02924048889
0.03347608889
0.03505551111
0.03619217778
0.03303333333
0.03248795556
0.03458333333
0.03786057778
0.04220022222
0.04184608889
0.04845835556
0.04956524444
0.04619973333
0.05265017778
0.05135097778
0.0522372
0.05538062222
0.0001033333333
0.00031
0.02569737778
0.0981248
0.04075355556
0.02593346667
0.05017017778
0.06417795556
0.04823768889
0.04481226667
0.05135567914
0.05004317316
0.05153832141
0.0517809658
0.04981206061
0.04652889343
0.04937377817
0.04611601684
0.04685753235
0.0471977031
0.04812156721
0.04773321943
0.04776927929
0.04979965016
0.04644377753
0.05023764054
0.04942254094
0.04640771767
0.04961759405
0.0493743635
0.05122150719
0.04950795012
0.05097886237
0.05279053196
0.05461373296
0.05466278856
0.0532764065
0.05316793405
0.05224348337
0.05604887865
0.05696004444
0.05514488889
0.05452417778
0.05442155556
0.05020066667
0.05332937778
0.05086373333
0.05200111111
0.05185364444
0.05538062222
)
;
    }
    wall
    {
        type            calculated;
        value           uniform 4.444444444e-301;
    }
    frontAndBack
    {
        type            empty;
    }
}


// ************************************************************************* //
