/*--------------------------------*- C++ -*----------------------------------*\
| =========                 |                                                 |
| \\      /  F ield         | OpenFOAM: The Open Source CFD Toolbox           |
|  \\    /   O peration     | Version:  v1912                                 |
|   \\  /    A nd           | Website:  www.openfoam.com                      |
|    \\/     M anipulation  |                                                 |
\*---------------------------------------------------------------------------*/
FoamFile
{
    version     2.0;
    format      ascii;
    class       volVectorField;
    location    "3.38";
    object      grad(rho);
}
// * * * * * * * * * * * * * * * * * * * * * * * * * * * * * * * * * * * * * //

dimensions      [1 -4 0 0 0 0 0];


internalField   nonuniform List<vector> 
1900
(
(79758.5 0.0378107 0)
(-57888.9 0.490699 0)
(-6585.17 1.1199 0)
(164.826 0.958591 0)
(304.626 2.50442 0)
(269.961 -2.93104 0)
(34.6408 -20.5552 0)
(-328.897 -76.5385 0)
(-543.426 -267.068 0)
(-1818.64 -581.736 0)
(79759 0.28595 0)
(-57887.8 0.841635 0)
(-6584.7 1.39952 0)
(166.21 -0.631754 0)
(300.736 -2.39172 0)
(246.902 -11.9603 0)
(-38.9667 -32.1433 0)
(-575.409 -84.4522 0)
(-1048.62 -232.209 0)
(-1473.73 -547.115 0)
(79759.6 1.13687e-09 0)
(-57887.8 -4.47642e-09 0)
(-6586.64 -3.44613e-09 0)
(161.035 2.54019e-09 0)
(293.297 3.94351e-09 0)
(240.21 1.93623e-09 0)
(-37.8512 -1.08358e-09 0)
(-528.962 -3.39284e-09 0)
(-1006.09 -6.23501e-09 0)
(-1425.1 -2.39808e-09 0)
(79759 -0.28595 0)
(-57887.8 -0.841635 0)
(-6584.7 -1.39952 0)
(166.21 0.631754 0)
(300.736 2.39172 0)
(246.902 11.9603 0)
(-38.9667 32.1433 0)
(-575.409 84.4522 0)
(-1048.62 232.209 0)
(-1473.73 547.115 0)
(79758.5 -0.0378107 0)
(-57888.9 -0.490699 0)
(-6585.17 -1.1199 0)
(164.826 -0.958591 0)
(304.626 -2.50442 0)
(269.961 2.93104 0)
(34.6408 20.5552 0)
(-328.897 76.5385 0)
(-543.426 267.068 0)
(-1818.64 581.736 0)
(-2119.23 -65.0032 1.49789e-11)
(-1275.57 -229.734 -1.80275e-11)
(-2364.76 -672.763 -2.26469e-11)
(-13323.7 1015.28 0)
(-6842.92 15278 -8.63781e-11)
(-1613.99 14.6547 1.49672e-11)
(-1835.72 -227.802 1.80275e-11)
(-1490.42 -645.404 2.26469e-11)
(-5990.67 203.988 0)
(-3837.41 12374.7 0)
(-1711.84 -1.54466e-09 0)
(-2032.74 4.28507e-10 0)
(-2303.96 -3.84877e-09 0)
(-6843.96 -3.22974e-09 0)
(2551.94 -1.11022e-08 0)
(-1613.99 -14.6547 1.49672e-11)
(-1835.72 227.802 1.80275e-11)
(-1490.42 645.404 2.26469e-11)
(-5990.67 -203.988 0)
(-3837.41 -12374.7 0)
(-2119.23 65.0032 -4.49132e-11)
(-1275.57 229.734 -1.80275e-11)
(-2364.76 672.763 -2.26469e-11)
(-13323.7 -1015.28 -6.10068e-11)
(-6842.92 -15278 8.63781e-11)
(14595.9 -3294.59 4.41836e-11)
(216.443 64.6706 -3.68132e-11)
(2202.4 756.763 0)
(-475.305 525.159 2.88667e-11)
(-10640.5 -5423.14 -1.27617e-11)
(9553.69 -3350.61 -2.20422e-11)
(1251 383.1 1.84076e-11)
(2361.63 408.168 0)
(-3138.28 -630.403 -1.80469e-11)
(-14788.5 -10042.7 3.07397e-12)
(10830.7 -8.88178e-09 0)
(1135.22 -6.68032e-09 0)
(1769.92 -1.97373e-09 0)
(-5079.97 -2.25818e-08 7.21115e-12)
(-16119.8 -4.58632e-08 -6.14795e-12)
(9553.69 3350.61 -2.20422e-11)
(1251 -383.1 1.84076e-11)
(2361.63 -408.168 0)
(-3138.28 630.403 -1.80469e-11)
(-14788.5 10042.7 3.07397e-12)
(14595.9 3294.59 2.20422e-11)
(216.443 -64.6706 -1.94767e-15)
(2202.4 -756.763 0)
(-475.305 -525.159 1.58161e-14)
(-10640.5 5423.14 1.27617e-11)
(-34124.1 -44519.5 0)
(-25310.2 5129.2 0)
(94.2827 4320.18 0)
(-706.665 2102.07 0)
(-1982.52 1089.2 0)
(-1715.48 456.253 0)
(-786.791 176.544 0)
(26.0905 106.946 0)
(281.476 116.407 0)
(455.411 75.1266 0)
(576.595 64.3058 0)
(575.417 53.933 0)
(495.393 48.9762 0)
(371.633 45.1645 0)
(249.271 41.8083 0)
(149.243 38.8391 0)
(77.7342 36.4609 0)
(33.8243 34.803 0)
(-5.31475 33.8488 0)
(-40.4585 33.3311 0)
(-62.1054 32.9697 0)
(-99.9953 32.8374 0)
(-162.953 33.0138 0)
(-247.751 33.5071 0)
(-369.305 34.2956 0)
(-529.799 35.4382 0)
(-716.558 36.8191 0)
(-903.091 38.4048 0)
(-1051.73 40.1125 0)
(-1135.05 41.8231 0)
(-1151.05 43.3321 0)
(-1121.68 43.566 0)
(-1053.89 42.8345 0)
(-944.744 40.0694 0)
(-751.437 36.0172 0)
(-571.663 44.9223 0)
(-399.309 38.7804 0)
(3146.54 70.9753 0)
(129502 483.836 0)
(-152038 860.548 0)
(-32406.4 -14383.7 0)
(-21840.1 7537.03 0)
(-225.369 3894.33 0)
(-1275.59 1107.11 0)
(-2128.37 512.298 0)
(-1797.73 202.476 0)
(-818.996 80.7989 0)
(21.0588 36.0991 0)
(281.63 45.9796 0)
(450.933 31.2942 0)
(574.977 25.5197 0)
(574.186 20.2109 0)
(494.79 17.6265 0)
(371.196 15.8313 0)
(248.902 14.3931 0)
(148.941 13.2415 0)
(77.5171 12.3912 0)
(33.6957 11.8495 0)
(-5.38303 11.5718 0)
(-40.5128 11.4185 0)
(-62.1618 11.2815 0)
(-100.043 11.1827 0)
(-162.981 11.1545 0)
(-247.754 11.2458 0)
(-369.273 11.4938 0)
(-529.726 11.9698 0)
(-716.443 12.7023 0)
(-902.935 13.7529 0)
(-1051.54 15.1203 0)
(-1134.85 16.8411 0)
(-1150.97 18.8212 0)
(-1121.77 20.7113 0)
(-1054.18 22.7091 0)
(-945.327 24.6381 0)
(-750.732 26.5731 0)
(-571.305 36.1107 0)
(-396.276 38.8077 0)
(3189.13 61.5506 0)
(129901 237.387 0)
(-152486 7636.49 0)
(-29462.2 -7.493e-09 0)
(-19993 7.55759e-09 0)
(-1776.24 9.65692e-09 0)
(-1690.53 1.28867e-08 0)
(-2245.69 1.00122e-09 0)
(-1841.01 -7.04083e-09 0)
(-835.192 -8.13894e-09 0)
(15.9613 -3.92736e-08 0)
(280.078 3.52688e-08 0)
(449.459 4.75741e-08 0)
(573.371 1.0713e-07 0)
(573.121 9.74735e-08 0)
(494.119 -4.73803e-08 0)
(370.693 -2.97427e-07 0)
(248.518 -4.62854e-07 0)
(148.66 -3.84856e-07 0)
(77.3292 -2.4869e-09 0)
(33.586 4.28102e-07 0)
(-5.44012 3.89216e-07 0)
(-40.543 1.76667e-07 0)
(-62.174 -1.09327e-07 0)
(-100.032 -4.36984e-07 0)
(-162.935 -6.7424e-07 0)
(-247.653 -6.13974e-07 0)
(-369.095 -2.15585e-07 0)
(-529.447 1.15592e-07 0)
(-716.04 3.09958e-07 0)
(-902.388 2.59606e-07 0)
(-1050.83 -1.24668e-07 0)
(-1133.97 -6.35839e-07 0)
(-1149.93 -1.11923e-06 0)
(-1120.55 -1.29619e-06 0)
(-1052.75 -1.31105e-06 0)
(-943.62 -1.17821e-06 0)
(-748.099 -7.51948e-07 0)
(-568.104 -1.39977e-07 0)
(-391.908 1.484e-06 0)
(3204.31 1.88097e-06 0)
(131706 9.68922e-07 0)
(-154406 -2.17405e-05 0)
(-32406.4 14383.7 0)
(-21840.1 -7537.03 0)
(-225.369 -3894.33 0)
(-1275.59 -1107.11 0)
(-2128.37 -512.298 0)
(-1797.73 -202.476 0)
(-818.996 -80.7989 0)
(21.0588 -36.0991 0)
(281.63 -45.9796 0)
(450.933 -31.2942 0)
(574.977 -25.5197 0)
(574.186 -20.2109 0)
(494.79 -17.6265 0)
(371.196 -15.8313 0)
(248.902 -14.3931 0)
(148.941 -13.2415 0)
(77.5171 -12.3912 0)
(33.6957 -11.8495 0)
(-5.38303 -11.5718 0)
(-40.5128 -11.4185 0)
(-62.1618 -11.2815 0)
(-100.043 -11.1827 0)
(-162.981 -11.1545 0)
(-247.754 -11.2458 0)
(-369.273 -11.4938 0)
(-529.726 -11.9698 0)
(-716.443 -12.7023 0)
(-902.935 -13.7529 0)
(-1051.54 -15.1203 0)
(-1134.85 -16.8411 0)
(-1150.97 -18.8212 0)
(-1121.77 -20.7113 0)
(-1054.18 -22.7091 0)
(-945.327 -24.6381 0)
(-750.732 -26.5731 0)
(-571.305 -36.1107 0)
(-396.276 -38.8077 0)
(3189.13 -61.5506 0)
(129901 -237.387 0)
(-152486 -7636.49 0)
(-34124.1 44519.5 0)
(-25310.2 -5129.2 0)
(94.2827 -4320.18 0)
(-706.665 -2102.07 0)
(-1982.52 -1089.2 0)
(-1715.48 -456.253 0)
(-786.791 -176.544 0)
(26.0905 -106.946 0)
(281.476 -116.407 0)
(455.411 -75.1266 0)
(576.595 -64.3058 0)
(575.417 -53.933 0)
(495.393 -48.9762 0)
(371.633 -45.1645 0)
(249.271 -41.8083 0)
(149.243 -38.8391 0)
(77.7342 -36.4609 0)
(33.8243 -34.803 0)
(-5.31475 -33.8488 0)
(-40.4585 -33.3311 0)
(-62.1054 -32.9697 0)
(-99.9953 -32.8374 0)
(-162.953 -33.0138 0)
(-247.751 -33.5071 0)
(-369.305 -34.2956 0)
(-529.799 -35.4382 0)
(-716.558 -36.8191 0)
(-903.091 -38.4048 0)
(-1051.73 -40.1125 0)
(-1135.05 -41.8232 0)
(-1151.05 -43.3321 0)
(-1121.68 -43.566 0)
(-1053.89 -42.8345 0)
(-944.744 -40.0694 0)
(-751.437 -36.0172 0)
(-571.663 -44.9223 0)
(-399.309 -38.7804 0)
(3146.54 -70.9753 0)
(129502 -483.836 0)
(-152038 -860.548 0)
(80090.2 54956.6 0)
(-48463.6 -6386.7 0)
(1303.87 -3718.21 0)
(93.2888 -3071.78 0)
(-1264.63 -1745.26 0)
(-1320.33 -885.93 0)
(-637.122 -362.307 0)
(52.9633 -259.947 0)
(301.768 -221.722 0)
(478.437 -160.546 0)
(586.4 -133.438 0)
(582.379 -114.651 0)
(499.594 -104.354 0)
(375.186 -96.0476 0)
(252.442 -88.6409 0)
(151.947 -82.1438 0)
(79.7978 -76.9529 0)
(35.1855 -73.2982 0)
(-4.53867 -71.1422 0)
(-40.0242 -69.9386 0)
(-61.9174 -69.207 0)
(-100.125 -69.1084 0)
(-163.434 -69.7501 0)
(-248.561 -71.1338 0)
(-370.448 -73.2287 0)
(-531.225 -76.0976 0)
(-718.17 -79.6846 0)
(-904.821 -83.7192 0)
(-1053.46 -88.1781 0)
(-1136.65 -92.8108 0)
(-1151.97 -96.8784 0)
(-1121.55 -98.914 0)
(-1052.33 -98.2649 0)
(-941.723 -95.109 0)
(-752.961 -89.6203 0)
(-572.624 -100.829 0)
(-409.112 -100.33 0)
(2959.2 -136.356 0)
(129866 -773.055 0)
(-152204 -2795.28 0)
(93577.5 28898.6 0)
(-69435.8 -3937.97 0)
(2640.04 -2892.86 0)
(765.581 -2744.8 0)
(-261.114 -1869.98 0)
(-594.71 -1160.45 0)
(-263.829 -580.039 0)
(147.154 -428.201 0)
(366.381 -336.537 0)
(528.138 -259.548 0)
(615.563 -221.135 0)
(599.71 -193.5 0)
(511.067 -177.199 0)
(384.87 -163.519 0)
(260.969 -151.585 0)
(159.055 -141.106 0)
(85.1515 -132.967 0)
(38.6938 -127.221 0)
(-2.49346 -123.897 0)
(-38.8265 -122.04 0)
(-61.4062 -120.906 0)
(-100.449 -120.779 0)
(-164.646 -121.812 0)
(-250.669 -124.063 0)
(-373.476 -127.34 0)
(-535.255 -132.093 0)
(-723.039 -137.622 0)
(-910.349 -144.368 0)
(-1059.56 -151.742 0)
(-1142.58 -159.072 0)
(-1156.44 -165.626 0)
(-1123.09 -169.138 0)
(-1051.07 -167.354 0)
(-938.034 -163.528 0)
(-756.132 -157.744 0)
(-581.467 -171.804 0)
(-428.286 -180.095 0)
(2598.74 -209.092 0)
(126745 -1094.78 0)
(-148478 -7477.84 0)
(100652 17120.7 0)
(-79099 -1451.63 0)
(2453.65 -2112.79 0)
(1078.97 -2086.2 0)
(262.095 -1694.67 0)
(-77.2959 -1185.02 0)
(68.5032 -763.986 0)
(287.61 -575.512 0)
(464.288 -466.194 0)
(589.643 -379.601 0)
(650.047 -334.333 0)
(624.716 -298.906 0)
(528.485 -275.221 0)
(399.869 -254.9 0)
(274.039 -236.647 0)
(169.888 -221.632 0)
(93.1788 -209.824 0)
(43.9264 -201.638 0)
(0.453534 -196.962 0)
(-37.1423 -194.372 0)
(-60.7021 -192.811 0)
(-100.998 -192.749 0)
(-166.599 -194.391 0)
(-253.889 -197.733 0)
(-378.186 -202.885 0)
(-541.133 -209.242 0)
(-729.998 -218.433 0)
(-918.427 -227.123 0)
(-1067.63 -238.142 0)
(-1150.02 -249.119 0)
(-1161.67 -256.868 0)
(-1123.21 -261.1 0)
(-1046.92 -257.647 0)
(-932.463 -253.899 0)
(-760.936 -250.451 0)
(-594.162 -270.493 0)
(-445.045 -286.012 0)
(2077.78 -312.647 0)
(122862 -1502.57 0)
(-143755 -10206.4 0)
(108438 3541.67 0)
(-87969.9 -1053.1 0)
(2028.55 -1779.53 0)
(1168.49 -1742.65 0)
(607.291 -1550.42 0)
(302.134 -1173.7 0)
(323.518 -897.177 0)
(434.117 -713.422 0)
(555.168 -606.901 0)
(655.204 -525.976 0)
(693.323 -473.54 0)
(656.672 -433.096 0)
(553.473 -402.081 0)
(422.042 -371.832 0)
(293.028 -348.197 0)
(184.902 -326.76 0)
(104.418 -311.348 0)
(51.0883 -300.304 0)
(4.50828 -294.195 0)
(-34.8269 -290.734 0)
(-59.8424 -288.77 0)
(-101.971 -289.037 0)
(-169.449 -291.505 0)
(-258.854 -296.572 0)
(-384.566 -303.19 0)
(-550.237 -314.236 0)
(-740.27 -323.346 0)
(-929.341 -340.252 0)
(-1080.75 -352.657 0)
(-1160.62 -368.081 0)
(-1167.99 -378.716 0)
(-1123.84 -385.076 0)
(-1044.13 -378.763 0)
(-931.1 -379.488 0)
(-772.123 -381.62 0)
(-615.736 -412.333 0)
(-468.907 -433.731 0)
(1426.41 -467.419 0)
(117211 -1827.56 0)
(-136942 -13145.8 0)
(102965 -6709.03 0)
(-84226.7 -1095.07 0)
(1789.18 -1661.07 0)
(1299.75 -1574.54 0)
(810.351 -1468.8 0)
(552.197 -1228.55 0)
(512.048 -1031.14 0)
(567.331 -880.519 0)
(644.918 -777.528 0)
(718.154 -705.984 0)
(739.549 -653.433 0)
(693.576 -610.385 0)
(587.521 -566.721 0)
(451.794 -533.255 0)
(317.473 -497.904 0)
(205.397 -472.735 0)
(118.672 -452.361 0)
(60.4556 -438.534 0)
(9.67592 -430.908 0)
(-31.9149 -426.493 0)
(-59.0665 -424.263 0)
(-103.634 -425.196 0)
(-173.861 -428.878 0)
(-265.149 -435.531 0)
(-395.207 -446.096 0)
(-560.556 -456.564 0)
(-755.068 -476.932 0)
(-946.672 -488.745 0)
(-1094.45 -512.488 0)
(-1175.14 -532.926 0)
(-1178.05 -541.595 0)
(-1123.26 -553.478 0)
(-1041.53 -548.367 0)
(-935.216 -559.214 0)
(-792.587 -568.508 0)
(-644.378 -618.662 0)
(-498.128 -651.282 0)
(734.638 -697.513 0)
(110644 -1979.43 0)
(-128977 -15256.3 0)
(100423 -4174 0)
(-83105.5 -1097.31 0)
(1566.51 -1505.25 0)
(1353.77 -1519.32 0)
(940.695 -1429.42 0)
(723.873 -1303.74 0)
(658.897 -1168.02 0)
(678.511 -1055.32 0)
(723.356 -975.372 0)
(774.786 -920.356 0)
(785.445 -872.387 0)
(740.23 -825.146 0)
(627.799 -780.157 0)
(488.356 -731.21 0)
(351.347 -694.24 0)
(228.789 -660.709 0)
(137.375 -637.088 0)
(71.7611 -620.253 0)
(16.1121 -611.22 0)
(-28.4239 -605.789 0)
(-58.593 -603.517 0)
(-106.418 -605.436 0)
(-179.408 -610.37 0)
(-275.446 -619.358 0)
(-404.834 -631.255 0)
(-579.952 -649.668 0)
(-771.281 -664.482 0)
(-963.604 -692.143 0)
(-1123.33 -711.53 0)
(-1188.67 -739.171 0)
(-1187.79 -750.94 0)
(-1130.37 -762.858 0)
(-1049.66 -758.072 0)
(-950.508 -774.668 0)
(-829.409 -795.769 0)
(-695.499 -845.154 0)
(-544.89 -901.923 0)
(146.558 -938.113 0)
(103182 -1867.06 0)
(-119908 -16557.1 0)
(97606.3 -6407.03 0)
(-81655 -1150.3 0)
(1382.52 -1449.64 0)
(1372.82 -1563.64 0)
(1018.09 -1505.27 0)
(804.094 -1429.67 0)
(751.427 -1330.6 0)
(752.974 -1248.81 0)
(774.979 -1193.61 0)
(817.395 -1153.84 0)
(831.296 -1112.78 0)
(782.453 -1066.84 0)
(678.041 -1011.02 0)
(534.587 -958.738 0)
(385.41 -912.847 0)
(260.47 -875.381 0)
(157.658 -848.524 0)
(85.3837 -829.369 0)
(23.6137 -819.108 0)
(-24.4922 -812.78 0)
(-58.7265 -810.85 0)
(-110.237 -813.792 0)
(-187.276 -819.849 0)
(-285.275 -830.869 0)
(-424.415 -845.485 0)
(-592.575 -865.895 0)
(-795.999 -887.485 0)
(-992.009 -916.918 0)
(-1139.77 -943.462 0)
(-1213.11 -972.819 0)
(-1200.87 -982.008 0)
(-1130.13 -994.435 0)
(-1052.91 -991.893 0)
(-971.542 -1001.03 0)
(-860.509 -1026.76 0)
(-746.672 -1062.94 0)
(-587.707 -1126.39 0)
(-195.405 -1153.75 0)
(95593.2 -1583.54 0)
(-110741 -17254.8 0)
(92770.5 -8987.11 0)
(-78328.4 -1208.28 0)
(1168.2 -1415.75 0)
(1300.16 -1572.47 0)
(1069.8 -1565.75 0)
(892.187 -1500.54 0)
(833.18 -1421.91 0)
(810.524 -1377.04 0)
(814.87 -1350.83 0)
(852.672 -1334.35 0)
(869.284 -1307.3 0)
(838.29 -1270.04 0)
(731.967 -1212.67 0)
(582.962 -1164.55 0)
(431.673 -1111.51 0)
(290.773 -1075.22 0)
(181.713 -1045.62 0)
(100.107 -1025.96 0)
(32.098 -1014.64 0)
(-20.4656 -1007.8 0)
(-59.5678 -1006.5 0)
(-115.09 -1009.98 0)
(-195.864 -1016.97 0)
(-300.15 -1028.42 0)
(-438.587 -1046.3 0)
(-620.425 -1063.13 0)
(-820.449 -1094.3 0)
(-1017.55 -1113.86 0)
(-1177.19 -1141.37 0)
(-1225.81 -1158.73 0)
(-1208.62 -1156.14 0)
(-1139.9 -1153.92 0)
(-1056.01 -1144.95 0)
(-984.104 -1137.07 0)
(-889.07 -1149.45 0)
(-791.508 -1175.9 0)
(-632.402 -1215.24 0)
(-293.965 -1249.16 0)
(87666.2 -1352.36 0)
(-101235 -17374.5 0)
(87334.9 -10281.7 0)
(-74358.9 -1218.12 0)
(1031.57 -1351.56 0)
(1228.28 -1477.57 0)
(1087.41 -1505.1 0)
(942.696 -1483.61 0)
(870.443 -1441.16 0)
(821.476 -1435.37 0)
(816.112 -1434.3 0)
(859.341 -1434.87 0)
(893.273 -1423.13 0)
(873.641 -1389.31 0)
(779.689 -1347.97 0)
(632.062 -1289.91 0)
(471.496 -1248.04 0)
(323.966 -1208.93 0)
(205.127 -1182.01 0)
(115.236 -1162.8 0)
(41.1066 -1151.64 0)
(-16.6482 -1144.93 0)
(-60.8248 -1143.87 0)
(-120.321 -1147.13 0)
(-205.042 -1153.73 0)
(-313.545 -1165 0)
(-457.869 -1178.85 0)
(-638.825 -1200.91 0)
(-844.881 -1214.19 0)
(-1037.37 -1246.87 0)
(-1183 -1250.01 0)
(-1227.34 -1255.3 0)
(-1196.24 -1237.91 0)
(-1119.35 -1217.16 0)
(-1036.68 -1193.36 0)
(-975.874 -1173.14 0)
(-897.92 -1170.5 0)
(-810.066 -1185.72 0)
(-658.303 -1203.08 0)
(-327.541 -1226.82 0)
(80054.2 -1240.69 0)
(-92160.2 -16975.2 0)
(81259.9 -11168.2 0)
(-69723 -1184.34 0)
(918.185 -1262.52 0)
(1152.2 -1353.93 0)
(1063.98 -1406.7 0)
(953.806 -1411.26 0)
(879.672 -1395.86 0)
(817.131 -1406.19 0)
(815.351 -1413.64 0)
(863.433 -1422.82 0)
(913.187 -1415.03 0)
(910.724 -1395.8 0)
(827.751 -1358.14 0)
(679.254 -1318.92 0)
(509.711 -1284.37 0)
(354.407 -1254.78 0)
(226.166 -1233.02 0)
(129.365 -1216.61 0)
(49.3182 -1207.08 0)
(-12.9733 -1201.1 0)
(-61.6915 -1199.69 0)
(-124.595 -1201.82 0)
(-213.089 -1206.42 0)
(-324.351 -1214.26 0)
(-473.183 -1223.1 0)
(-654.48 -1233.32 0)
(-864.738 -1242.05 0)
(-1052.06 -1250.94 0)
(-1185.32 -1250 0)
(-1214.16 -1237.77 0)
(-1171.87 -1210.43 0)
(-1096.96 -1181.68 0)
(-1013.59 -1154.26 0)
(-962.08 -1130.07 0)
(-901.185 -1121.89 0)
(-822.901 -1134.75 0)
(-672.016 -1146.25 0)
(-330.207 -1163.03 0)
(72490.5 -1169.96 0)
(-83154.7 -16407.6 0)
(75017.5 -11562 0)
(-64813.5 -1098.63 0)
(868.141 -1149.58 0)
(1089.34 -1205.42 0)
(1032.17 -1277.39 0)
(953.14 -1288.08 0)
(875.33 -1299.61 0)
(804.351 -1319.12 0)
(800.083 -1331.7 0)
(858.001 -1347.86 0)
(919.316 -1342.85 0)
(928.458 -1332.86 0)
(853.771 -1302.21 0)
(703.153 -1275.67 0)
(533.298 -1245.87 0)
(373.451 -1226.49 0)
(241.911 -1210.51 0)
(140.225 -1199.24 0)
(56.0569 -1192.47 0)
(-9.52217 -1187.78 0)
(-61.5202 -1185.83 0)
(-126.812 -1185.95 0)
(-217.031 -1187.29 0)
(-329.616 -1189.42 0)
(-476.239 -1192.8 0)
(-657.081 -1193.38 0)
(-861.858 -1198.23 0)
(-1045.03 -1196.62 0)
(-1170.31 -1187.48 0)
(-1189.21 -1167.05 0)
(-1142.2 -1137.47 0)
(-1065.23 -1100.84 0)
(-986.941 -1072.85 0)
(-944.687 -1049.24 0)
(-902.428 -1041.03 0)
(-833.535 -1053.81 0)
(-685.553 -1064.26 0)
(-350.392 -1077.69 0)
(65363.9 -1091.53 0)
(-74714.2 -15681.1 0)
(68674.2 -11667.1 0)
(-59689.2 -1015.96 0)
(815.275 -1075.83 0)
(1029.05 -1118.53 0)
(984.33 -1180.76 0)
(932.389 -1194.26 0)
(849.76 -1224.16 0)
(786.212 -1243.49 0)
(787.648 -1252.59 0)
(852.685 -1258.01 0)
(927.641 -1254.22 0)
(949.892 -1239.17 0)
(882.864 -1213.27 0)
(733.545 -1186.69 0)
(557.099 -1166.59 0)
(388.476 -1155.53 0)
(252.433 -1147.46 0)
(146.751 -1142.27 0)
(60.3552 -1139.09 0)
(-6.5783 -1136.09 0)
(-59.9283 -1133.53 0)
(-126.003 -1131.18 0)
(-216.428 -1128.44 0)
(-329.655 -1124.71 0)
(-477.001 -1120.56 0)
(-659.718 -1116.76 0)
(-867.864 -1110.68 0)
(-1041.71 -1116.86 0)
(-1156.82 -1101.66 0)
(-1165.96 -1087.96 0)
(-1108.07 -1057.09 0)
(-1034.69 -1026.27 0)
(-963.87 -1004.04 0)
(-931.419 -988.185 0)
(-905.588 -984.708 0)
(-845.284 -997.996 0)
(-695.028 -1009 0)
(-356.491 -1020.62 0)
(58418.2 -1033.5 0)
(-66515.3 -14916.4 0)
(62447.7 -11815.5 0)
(-54607.3 -959.03 0)
(769.301 -1016.1 0)
(988.229 -1071.82 0)
(959.193 -1114.27 0)
(911.321 -1123.23 0)
(827.887 -1162.13 0)
(776.951 -1170.49 0)
(786.093 -1172.22 0)
(856.427 -1169.02 0)
(937.466 -1157.94 0)
(967.923 -1147.85 0)
(904.346 -1123.19 0)
(748.132 -1096.82 0)
(563.327 -1075.49 0)
(391.89 -1061 0)
(254.685 -1055.3 0)
(148.293 -1051.97 0)
(62.0176 -1051.19 0)
(-4.17244 -1049.22 0)
(-56.7892 -1046.18 0)
(-121.904 -1042.21 0)
(-210.798 -1036.77 0)
(-322.021 -1031.55 0)
(-468.58 -1025.57 0)
(-647.566 -1027.39 0)
(-861.948 -1025.13 0)
(-1036.34 -1035.18 0)
(-1142.47 -1022.94 0)
(-1146.25 -1007.88 0)
(-1082.74 -983.629 0)
(-1014.1 -963.377 0)
(-950.243 -949.369 0)
(-926.063 -941.711 0)
(-911.883 -944.418 0)
(-856.947 -957.474 0)
(-707.355 -968.208 0)
(-373.996 -978.003 0)
(51973.5 -991.182 0)
(-58906.3 -14188.9 0)
(56036.9 -11736.7 0)
(-49282.4 -935.329 0)
(706.583 -997.785 0)
(934.441 -1065.15 0)
(934.79 -1106.03 0)
(886.271 -1111.66 0)
(804.226 -1138.42 0)
(776.486 -1134.5 0)
(789.063 -1128.71 0)
(866.45 -1111.63 0)
(948.041 -1091.3 0)
(983.378 -1072.92 0)
(932.039 -1035.09 0)
(779.506 -997.861 0)
(591.617 -962.517 0)
(407.932 -940.699 0)
(261.131 -929.117 0)
(150.72 -923.676 0)
(63.0032 -924.183 0)
(-1.75751 -924.816 0)
(-53.1669 -921.277 0)
(-116.935 -914.145 0)
(-206.162 -907.193 0)
(-318.864 -904.305 0)
(-472.992 -905.3 0)
(-659.285 -916.37 0)
(-875.363 -931.173 0)
(-1039.6 -954.218 0)
(-1130.52 -960.123 0)
(-1128.09 -955.441 0)
(-1065.18 -943.307 0)
(-1001.67 -933.704 0)
(-942.992 -928.657 0)
(-926.649 -929.434 0)
(-920.777 -937.661 0)
(-868.209 -948.994 0)
(-714.811 -958.305 0)
(-378.629 -962.978 0)
(45687.7 -966.568 0)
(-51482.9 -13324.6 0)
(49948.9 -11808.1 0)
(-44258.9 -916.06 0)
(644.2 -978.336 0)
(883.923 -1050.69 0)
(914.378 -1084.84 0)
(880.106 -1094.88 0)
(805.87 -1102.47 0)
(786.311 -1089.29 0)
(808.131 -1074.24 0)
(892.477 -1040.45 0)
(974.776 -1002.73 0)
(1022.09 -962.916 0)
(976.672 -917.396 0)
(818.062 -870.353 0)
(618.411 -818.674 0)
(424.075 -783.552 0)
(271.089 -758.006 0)
(153.047 -740.85 0)
(60.9193 -731.903 0)
(-1.3715 -727.268 0)
(-46.5066 -723.435 0)
(-108.333 -720.815 0)
(-201.316 -722.549 0)
(-320.196 -731.17 0)
(-480.206 -746.851 0)
(-672.498 -773.494 0)
(-898.42 -807.119 0)
(-1064.23 -845.23 0)
(-1143.65 -864.723 0)
(-1130.05 -879.478 0)
(-1061.79 -887.159 0)
(-999.987 -893.633 0)
(-946.129 -902.944 0)
(-934.74 -914.529 0)
(-930.73 -925.851 0)
(-876.841 -933.009 0)
(-720.831 -940.81 0)
(-381.959 -935.843 0)
(40061.4 -930.151 0)
(-44788.7 -12587.4 0)
(43473.1 -10910.6 0)
(-38846.5 -778.084 0)
(576.851 -880.269 0)
(831.813 -976.716 0)
(892.2 -1005.31 0)
(869.282 -1019.98 0)
(809.617 -1018.98 0)
(803.684 -996.191 0)
(836.127 -970.948 0)
(935.361 -933.34 0)
(1022.76 -887.665 0)
(1065.61 -843.443 0)
(1021.23 -782.982 0)
(874.639 -731.82 0)
(675.263 -673.539 0)
(466.394 -635.859 0)
(302.28 -603.363 0)
(175.874 -580.686 0)
(76.0909 -567.208 0)
(6.40281 -558.657 0)
(-46.949 -554.534 0)
(-116.081 -555.399 0)
(-216.14 -561.25 0)
(-342.282 -576.389 0)
(-513.777 -598.708 0)
(-717.362 -634.621 0)
(-944.49 -671.378 0)
(-1095.11 -719.552 0)
(-1163.52 -752.75 0)
(-1149.71 -776.711 0)
(-1078.83 -792.31 0)
(-1016.88 -806.584 0)
(-963.128 -822.078 0)
(-948.722 -836.68 0)
(-938.585 -846.898 0)
(-882.624 -852.22 0)
(-717.542 -852.976 0)
(-368.358 -812.901 0)
(34459.9 -763.403 0)
(-38125.4 -11048 0)
(38526 -10369.1 0)
(-34593.3 -411.45 0)
(452.792 -594.359 0)
(763.424 -775.543 0)
(872.683 -838.299 0)
(866.936 -866.45 0)
(828.799 -841.23 0)
(832.597 -805.201 0)
(868.696 -768.829 0)
(972.731 -728.016 0)
(1061.4 -689.668 0)
(1122.97 -651.389 0)
(1084.24 -593.236 0)
(923.525 -558.075 0)
(710.883 -509.492 0)
(491.7 -483.557 0)
(324.255 -457.868 0)
(187.887 -436.555 0)
(82.1472 -419.26 0)
(10.842 -405.082 0)
(-43.3668 -401.322 0)
(-114.804 -408.424 0)
(-221.543 -418.973 0)
(-356.292 -435.329 0)
(-536.321 -453.396 0)
(-742.526 -483.372 0)
(-980.262 -514.596 0)
(-1142.65 -550.48 0)
(-1198.73 -574.852 0)
(-1168.17 -595.618 0)
(-1090.58 -613.287 0)
(-1028.67 -623.633 0)
(-975.13 -637.842 0)
(-958.657 -646.447 0)
(-945.706 -653.262 0)
(-882.698 -652.424 0)
(-682.941 -616.756 0)
(-295.642 -504.595 0)
(30198.4 -359.051 0)
(-33268.5 -9728.22 0)
(33402.7 6722.48 0)
(-29427.3 695.187 0)
(225.997 -22.5927 0)
(596.744 -297.928 0)
(804.599 -412.398 0)
(866.457 -450.978 0)
(868.639 -434.714 0)
(873.453 -416.073 0)
(910.506 -379.058 0)
(1011.64 -351.034 0)
(1096.6 -320.198 0)
(1158.54 -270.676 0)
(1111.15 -75.8238 0)
(955.338 385.616 0)
(747.071 1125.95 0)
(516.141 1952.02 0)
(347.573 2740.85 0)
(213.077 3365.32 0)
(106.42 3729.3 0)
(23.6883 3803.39 0)
(-50.1696 3807.46 0)
(-133.09 3741.16 0)
(-242.066 3385.37 0)
(-375.453 2769.71 0)
(-560.073 1995.96 0)
(-776.336 1177.22 0)
(-1009.16 462.066 0)
(-1153.17 -3.62249 0)
(-1207.02 -211.977 0)
(-1186.75 -249.714 0)
(-1105.82 -272.589 0)
(-1040.54 -275.082 0)
(-985.112 -292.712 0)
(-963.581 -297.133 0)
(-944.345 -301.362 0)
(-847.446 -293.233 0)
(-575.089 -221.137 0)
(-120.024 -22.8895 0)
(25571.7 675.826 0)
(-28768.6 9802.66 0)
(45263.1 540331 0)
(-41093.1 42448.1 0)
(-504.21 28495.2 0)
(387.794 33402.5 0)
(725.198 37989.6 0)
(845.432 44072.3 0)
(862.435 50220.8 0)
(886.229 57164.9 0)
(931.369 64296 0)
(1029.45 72090.1 0)
(1138.84 80039.2 0)
(1358.45 88431 0)
(1716.66 96748 0)
(2081.6 105189 0)
(2220.32 113157 0)
(2047.87 120849 0)
(1686.16 127338 0)
(1140.4 132674 0)
(504.287 135599 0)
(86.1562 138072 0)
(-103.328 138084 0)
(-521.543 135602 0)
(-1157.67 132678 0)
(-1695.18 127327 0)
(-2070.9 120840 0)
(-2220.65 113112 0)
(-2118.17 105133 0)
(-1792.18 96650.1 0)
(-1435.87 88338 0)
(-1226.58 79893.4 0)
(-1115.03 71901.4 0)
(-1048.06 64080.7 0)
(-996.379 56843 0)
(-966.993 49790.3 0)
(-941.948 43476.4 0)
(-805.39 37175.7 0)
(-422.429 32376.4 0)
(568.705 27158.9 0)
(39666.7 39875.1 0)
(-42426.2 521360 0)
(590595 -613239 0)
(-522651 -46315.5 0)
(-8490.64 -33126.8 0)
(9745.95 -37992.7 0)
(11086.4 -43199.5 0)
(12652.9 -50315.1 0)
(13485.1 -57468.7 0)
(14436.8 -65511 0)
(15293 -73756 0)
(16182.3 -82787.3 0)
(16843.3 -92112.3 0)
(17259.8 -101974 0)
(17259.5 -111975 0)
(16767.4 -122201 0)
(15837.8 -132039 0)
(14181.5 -141399 0)
(11742.2 -149272 0)
(8173.46 -155646 0)
(5308.99 -159140 0)
(2418.31 -161832 0)
(-2430.92 -161831 0)
(-5341.75 -159109 0)
(-8215.81 -155593 0)
(-11783.7 -149178 0)
(-14258.6 -141291 0)
(-15912.2 -131836 0)
(-16872.1 -122011 0)
(-17337 -111617 0)
(-17354.4 -101616 0)
(-17025.6 -91564.3 0)
(-16343.5 -82128.8 0)
(-15551.3 -72928.8 0)
(-14755.9 -64426.3 0)
(-13844.1 -56146.2 0)
(-13100.2 -48684 0)
(-11543.8 -41211.8 0)
(-10227.6 -35708.1 0)
(7106.02 -30531.6 0)
(501802 -42756.5 0)
(-564916 -587570 0)
(590595 613239 0)
(-522651 46315.5 0)
(-8490.64 33126.8 0)
(9745.95 37992.7 0)
(11086.4 43199.5 0)
(12652.9 50315.1 0)
(13485.1 57468.7 0)
(14436.8 65511 0)
(15293 73756 0)
(16182.3 82787.3 0)
(16843.3 92112.3 0)
(17259.8 101974 0)
(17259.5 111975 0)
(16767.4 122201 0)
(15837.8 132039 0)
(14181.5 141399 0)
(11742.2 149272 0)
(8173.46 155646 0)
(5308.99 159140 0)
(2418.31 161832 0)
(-2430.92 161831 0)
(-5341.75 159109 0)
(-8215.81 155593 0)
(-11783.7 149178 0)
(-14258.6 141291 0)
(-15912.2 131836 0)
(-16872.1 122011 0)
(-17337 111617 0)
(-17354.4 101616 0)
(-17025.6 91564.3 0)
(-16343.5 82128.8 0)
(-15551.3 72928.8 0)
(-14755.9 64426.3 0)
(-13844.1 56146.2 0)
(-13100.2 48684 0)
(-11543.8 41211.8 0)
(-10227.6 35708.1 0)
(7106.02 30531.6 0)
(501802 42756.5 0)
(-564916 587570 0)
(45263.1 -540331 0)
(-41093.1 -42448.1 0)
(-504.21 -28495.2 0)
(387.794 -33402.5 0)
(725.198 -37989.6 0)
(845.432 -44072.3 0)
(862.435 -50220.8 0)
(886.229 -57164.9 0)
(931.369 -64296 0)
(1029.45 -72090.1 0)
(1138.84 -80039.2 0)
(1358.45 -88431 0)
(1716.66 -96748 0)
(2081.6 -105189 0)
(2220.32 -113157 0)
(2047.87 -120849 0)
(1686.16 -127338 0)
(1140.4 -132674 0)
(504.287 -135599 0)
(86.1562 -138072 0)
(-103.328 -138084 0)
(-521.543 -135602 0)
(-1157.67 -132678 0)
(-1695.18 -127327 0)
(-2070.9 -120840 0)
(-2220.65 -113112 0)
(-2118.17 -105133 0)
(-1792.18 -96650.1 0)
(-1435.87 -88338 0)
(-1226.58 -79893.4 0)
(-1115.03 -71901.4 0)
(-1048.06 -64080.7 0)
(-996.379 -56843 0)
(-966.993 -49790.3 0)
(-941.948 -43476.4 0)
(-805.39 -37175.7 0)
(-422.429 -32376.4 0)
(568.705 -27158.9 0)
(39666.7 -39875.1 0)
(-42426.2 -521360 0)
(33402.7 -6722.48 0)
(-29427.3 -695.187 0)
(225.997 22.5927 0)
(596.744 297.928 0)
(804.599 412.398 0)
(866.457 450.978 0)
(868.639 434.714 0)
(873.453 416.073 0)
(910.506 379.058 0)
(1011.64 351.034 0)
(1096.6 320.198 0)
(1158.54 270.676 0)
(1111.15 75.8238 0)
(955.338 -385.616 0)
(747.071 -1125.95 0)
(516.141 -1952.02 0)
(347.573 -2740.85 0)
(213.077 -3365.32 0)
(106.42 -3729.3 0)
(23.6883 -3803.39 0)
(-50.1696 -3807.46 0)
(-133.09 -3741.16 0)
(-242.066 -3385.37 0)
(-375.453 -2769.71 0)
(-560.073 -1995.96 0)
(-776.336 -1177.22 0)
(-1009.16 -462.066 0)
(-1153.17 3.62249 0)
(-1207.02 211.977 0)
(-1186.75 249.714 0)
(-1105.82 272.589 0)
(-1040.54 275.082 0)
(-985.112 292.712 0)
(-963.581 297.133 0)
(-944.345 301.362 0)
(-847.446 293.233 0)
(-575.089 221.137 0)
(-120.024 22.8895 0)
(25571.7 -675.826 0)
(-28768.6 -9802.66 0)
(38526 10369.1 0)
(-34593.3 411.45 0)
(452.792 594.359 0)
(763.424 775.543 0)
(872.683 838.299 0)
(866.936 866.45 0)
(828.799 841.23 0)
(832.597 805.201 0)
(868.696 768.829 0)
(972.731 728.016 0)
(1061.4 689.668 0)
(1122.97 651.389 0)
(1084.24 593.236 0)
(923.525 558.075 0)
(710.883 509.492 0)
(491.7 483.557 0)
(324.255 457.868 0)
(187.887 436.555 0)
(82.1472 419.26 0)
(10.842 405.082 0)
(-43.3668 401.322 0)
(-114.804 408.424 0)
(-221.543 418.973 0)
(-356.292 435.329 0)
(-536.321 453.396 0)
(-742.526 483.372 0)
(-980.262 514.596 0)
(-1142.65 550.48 0)
(-1198.73 574.852 0)
(-1168.17 595.618 0)
(-1090.58 613.287 0)
(-1028.67 623.633 0)
(-975.13 637.842 0)
(-958.657 646.447 0)
(-945.706 653.262 0)
(-882.698 652.424 0)
(-682.941 616.756 0)
(-295.642 504.595 0)
(30198.4 359.051 0)
(-33268.5 9728.22 0)
(43473.1 10910.6 0)
(-38846.5 778.084 0)
(576.851 880.269 0)
(831.813 976.716 0)
(892.2 1005.31 0)
(869.282 1019.98 0)
(809.617 1018.98 0)
(803.684 996.191 0)
(836.127 970.948 0)
(935.361 933.34 0)
(1022.76 887.665 0)
(1065.61 843.443 0)
(1021.23 782.982 0)
(874.639 731.82 0)
(675.263 673.539 0)
(466.394 635.859 0)
(302.28 603.363 0)
(175.874 580.686 0)
(76.0909 567.208 0)
(6.40281 558.657 0)
(-46.949 554.534 0)
(-116.081 555.399 0)
(-216.14 561.25 0)
(-342.282 576.389 0)
(-513.777 598.708 0)
(-717.362 634.621 0)
(-944.49 671.378 0)
(-1095.11 719.552 0)
(-1163.52 752.75 0)
(-1149.71 776.711 0)
(-1078.83 792.31 0)
(-1016.88 806.584 0)
(-963.128 822.078 0)
(-948.722 836.68 0)
(-938.585 846.898 0)
(-882.624 852.22 0)
(-717.542 852.976 0)
(-368.358 812.901 0)
(34459.9 763.403 0)
(-38125.4 11048 0)
(49948.9 11808.1 0)
(-44258.9 916.06 0)
(644.2 978.336 0)
(883.923 1050.69 0)
(914.378 1084.84 0)
(880.106 1094.88 0)
(805.87 1102.47 0)
(786.311 1089.29 0)
(808.131 1074.24 0)
(892.477 1040.45 0)
(974.776 1002.73 0)
(1022.09 962.916 0)
(976.672 917.396 0)
(818.062 870.353 0)
(618.411 818.674 0)
(424.075 783.552 0)
(271.089 758.006 0)
(153.047 740.85 0)
(60.9193 731.903 0)
(-1.3715 727.268 0)
(-46.5066 723.435 0)
(-108.333 720.815 0)
(-201.316 722.549 0)
(-320.196 731.17 0)
(-480.206 746.851 0)
(-672.498 773.494 0)
(-898.42 807.119 0)
(-1064.23 845.23 0)
(-1143.65 864.723 0)
(-1130.05 879.478 0)
(-1061.79 887.159 0)
(-999.987 893.633 0)
(-946.129 902.944 0)
(-934.74 914.529 0)
(-930.73 925.851 0)
(-876.841 933.009 0)
(-720.831 940.81 0)
(-381.959 935.843 0)
(40061.4 930.151 0)
(-44788.7 12587.4 0)
(56036.9 11736.7 0)
(-49282.4 935.329 0)
(706.583 997.785 0)
(934.441 1065.15 0)
(934.79 1106.03 0)
(886.271 1111.66 0)
(804.226 1138.42 0)
(776.486 1134.5 0)
(789.063 1128.71 0)
(866.45 1111.63 0)
(948.041 1091.3 0)
(983.378 1072.92 0)
(932.039 1035.09 0)
(779.506 997.861 0)
(591.617 962.517 0)
(407.932 940.699 0)
(261.131 929.117 0)
(150.72 923.676 0)
(63.0032 924.183 0)
(-1.75751 924.816 0)
(-53.1669 921.277 0)
(-116.935 914.145 0)
(-206.162 907.193 0)