/*--------------------------------*- C++ -*----------------------------------*\
| =========                 |                                                 |
| \\      /  F ield         | OpenFOAM: The Open Source CFD Toolbox           |
|  \\    /   O peration     | Version:  v1912                                 |
|   \\  /    A nd           | Website:  www.openfoam.com                      |
|    \\/     M anipulation  |                                                 |
\*---------------------------------------------------------------------------*/
FoamFile
{
    version     2.0;
    format      ascii;
    class       volTensorField;
    location    "1.56";
    object      grad(U);
}
// * * * * * * * * * * * * * * * * * * * * * * * * * * * * * * * * * * * * * //

dimensions      [0 0 -1 0 0 0 0];


internalField   nonuniform List<tensor> 
1900
(
(-0.0419058 1.76607e-06 0 -5.40675e-07 6.88544e-07 0 0 0 0)
(-0.0979029 5.18819e-06 0 -1.20495e-05 -1.11382e-06 0 0 0 0)
(-0.138441 4.92355e-05 0 -2.11499e-05 8.12797e-06 0 0 0 0)
(-0.118801 0.000213346 0 1.81857e-05 0.000120899 0 0 0 0)
(-0.068689 0.000742187 0 0.000200865 0.000534194 0 0 0 0)
(-0.0328692 0.00127397 0 0.000837529 0.00176444 0 0 0 0)
(-0.0122554 -0.002095 0 0.00229762 0.00298598 0 0 0 0)
(0.00406596 -0.0123102 0 0.00364822 -0.00156719 0 0 0 0)
(0.0320193 -0.0375263 0 -0.00132795 -0.0173973 0 0 0 0)
(0.0177661 -0.120537 0 -0.0324621 -0.0699429 0 0 0 0)
(-0.0419183 -2.19135e-06 0 -1.93191e-06 -3.71853e-07 0 0 0 0)
(-0.0979236 2.25123e-06 0 -2.05844e-05 -1.39422e-06 0 0 0 0)
(-0.138411 7.2777e-05 0 -1.33038e-05 -5.56004e-06 0 0 0 0)
(-0.118579 0.000312721 0 8.40764e-05 -5.06297e-05 0 0 0 0)
(-0.0678696 0.000901357 0 0.00036218 -0.000218906 0 0 0 0)
(-0.0307724 0.00117782 0 0.00127418 -0.000792817 0 0 0 0)
(-0.00944475 -0.00123663 0 0.00328515 -0.00149288 0 0 0 0)
(0.000440397 -0.00807309 0 0.00464137 0.00130218 0 0 0 0)
(-0.00409104 -0.0308494 0 -0.0041763 0.0108173 0 0 0 0)
(-0.0605264 -0.0791019 0 -0.0507916 0.0388285 0 0 0 0)
(-0.0419283 2.9685e-13 0 -2.54101e-13 -6.33385e-07 0 0 0 0)
(-0.0979143 1.6592e-14 0 9.62475e-13 5.01609e-06 0 0 0 0)
(-0.138336 -1.09488e-12 0 -7.55689e-13 -5.13585e-06 0 0 0 0)
(-0.118425 8.47501e-13 0 4.2826e-14 -0.000140538 0 0 0 0)
(-0.0674989 -3.43227e-13 0 -5.30581e-14 -0.000630578 0 0 0 0)
(-0.0299462 5.16886e-14 0 -9.86624e-14 -0.00194325 0 0 0 0)
(-0.00888825 -1.00089e-13 0 7.09475e-14 -0.00298622 0 0 0 0)
(-0.00339549 1.03214e-14 0 -1.16958e-13 0.000530016 0 0 0 0)
(-0.0234137 -1.78532e-14 0 -3.11708e-15 0.01316 0 0 0 0)
(-0.0820894 2.0902e-14 0 1.34644e-13 0.0622288 0 0 0 0)
(-0.0419183 2.19135e-06 0 1.93191e-06 -3.71852e-07 0 0 0 0)
(-0.0979236 -2.25123e-06 0 2.05844e-05 -1.39422e-06 0 0 0 0)
(-0.138411 -7.2777e-05 0 1.33038e-05 -5.56004e-06 0 0 0 0)
(-0.118579 -0.000312721 0 -8.40764e-05 -5.06297e-05 0 0 0 0)
(-0.0678696 -0.000901357 0 -0.00036218 -0.000218906 0 0 0 0)
(-0.0307724 -0.00117782 0 -0.00127418 -0.000792817 0 0 0 0)
(-0.00944475 0.00123663 0 -0.00328515 -0.00149288 0 0 0 0)
(0.000440397 0.00807309 0 -0.00464137 0.00130218 0 0 0 0)
(-0.00409104 0.0308494 0 0.0041763 0.0108173 0 0 0 0)
(-0.0605264 0.0791019 0 0.0507916 0.0388285 0 0 0 0)
(-0.0419058 -1.76607e-06 0 5.40675e-07 6.88547e-07 0 0 0 0)
(-0.0979029 -5.18819e-06 0 1.20495e-05 -1.11383e-06 0 0 0 0)
(-0.138441 -4.92355e-05 0 2.11499e-05 8.12797e-06 0 0 0 0)
(-0.118801 -0.000213346 0 -1.81857e-05 0.000120899 0 0 0 0)
(-0.068689 -0.000742187 0 -0.000200865 0.000534194 0 0 0 0)
(-0.0328692 -0.00127397 0 -0.000837529 0.00176444 0 0 0 0)
(-0.0122554 0.002095 0 -0.00229762 0.00298598 0 0 0 0)
(0.00406596 0.0123102 0 -0.00364822 -0.00156719 0 0 0 0)
(0.0320193 0.0375263 0 0.00132795 -0.0173973 0 0 0 0)
(0.0177661 0.120537 0 0.0324621 -0.0699429 0 0 0 0)
(-0.0720716 -0.215916 7.64529e-18 -0.118156 0.104497 -1.14679e-17 -3.09361e-17 -3.71824e-17 2.07226e-33)
(-0.171966 -0.260266 0 -0.161514 0.169846 0 8.17451e-17 2.94226e-17 0)
(-0.217567 -0.336459 0 -0.236867 0.206661 0 1.31069e-16 5.44399e-17 0)
(-0.606052 -0.286402 0 -0.528337 0.347697 0 0 0 0)
(-0.00755857 -0.894172 -2.1087e-16 -1.78322 1.9626 3.16305e-16 9.83877e-16 6.55918e-16 5.71564e-32)
(-0.14961 -0.12129 0 -0.101001 0.121788 0 -5.22869e-17 -1.82997e-17 0)
(-0.264523 -0.16515 0 -0.120083 0.197304 0 -8.17451e-17 -2.94226e-17 0)
(-0.432947 -0.25826 0 -0.231151 0.355067 0 -1.31069e-16 -5.44399e-17 0)
(-0.796611 -0.23994 0 -0.55591 0.652991 0 0 0 0)
(-0.617338 0.0753912 0 -0.768786 0.939713 0 0 0 0)
(-0.177498 -3.31371e-14 0 1.06554e-13 0.161508 0 0 0 0)
(-0.318215 3.76521e-13 0 7.81648e-14 0.256693 0 0 0 0)
(-0.560924 2.06835e-13 0 2.27946e-13 0.494953 0 0 0 0)
(-0.964415 -1.08053e-13 0 -1.67353e-13 0.94345 0 0 0 0)
(-0.794678 1.40789e-13 0 -2.08128e-13 1.45511 0 0 0 0)
(-0.14961 0.12129 0 0.101001 0.121788 0 -5.22869e-17 1.82997e-17 0)
(-0.264523 0.16515 0 0.120083 0.197304 0 -8.17451e-17 2.94226e-17 0)
(-0.432947 0.25826 0 0.231151 0.355067 0 -1.31069e-16 5.44399e-17 0)
(-0.796611 0.23994 0 0.55591 0.652991 0 0 0 0)
(-0.617338 -0.0753912 0 0.768786 0.939713 0 0 0 0)
(-0.0720716 0.215916 -7.64529e-18 0.118156 0.104497 -1.14679e-17 1.3551e-16 -7.37817e-17 2.07226e-33)
(-0.171966 0.260266 0 0.161514 0.169846 0 8.17451e-17 -2.94226e-17 0)
(-0.217567 0.336459 0 0.236867 0.206661 0 1.31069e-16 -5.44399e-17 0)
(-0.606052 0.286402 -2.00495e-17 0.528337 0.347697 -3.00742e-17 3.99098e-16 -2.66065e-16 5.43442e-33)
(-0.00755857 0.894172 2.1087e-16 1.78322 1.9626 3.16305e-16 -9.83877e-16 6.55918e-16 5.71564e-32)
(-0.0897702 0.331004 2.28551e-18 -0.280405 -0.690233 2.05696e-17 -6.28621e-16 4.81209e-17 -6.19489e-34)
(0.227801 0.0130309 -7.01878e-19 -0.180732 -0.317898 -6.31691e-18 4.59195e-16 -4.08429e-17 -1.90245e-34)
(0.0761795 0.107106 0 0.062033 -0.181044 0 0 0 0)
(-0.400545 0.459507 -1.6769e-18 0.562369 0.413205 -1.50921e-17 -3.10472e-16 4.88231e-17 4.54525e-34)
(-1.2069 0.454797 5.36933e-18 2.15159 1.72449 4.83239e-17 2.11501e-16 -2.35001e-17 1.45536e-33)
(0.0712624 0.298561 0 -0.339574 -0.230514 0 3.18533e-16 -1.36667e-17 0)
(0.305689 -0.00107738 0 -0.219503 -0.313639 0 -2.32319e-16 1.56344e-17 0)
(0.319744 0.109267 0 0.131683 -0.303318 0 0 0 0)
(0.429128 0.483203 0 0.846005 -0.552541 0 1.7709e-16 -3.4132e-17 0)
(1.07824 0.369528 0 3.11735 -1.19243 0 -1.32045e-17 9.88105e-18 0)
(0.11325 7.8136e-14 0 -3.7509e-13 -0.446554 0 0 0 0)
(0.369511 1.00688e-13 0 -1.62167e-13 -0.410977 0 0 0 0)
(0.465622 3.1111e-13 0 6.967e-13 -0.391336 0 0 0 0)
(0.875108 1.40439e-13 0 1.78043e-12 -0.929252 0 -6.06443e-17 2.67944e-29 0)
(1.62331 -2.1808e-13 0 2.44619e-12 -2.62473 0 2.6409e-17 -1.82154e-29 0)
(0.0712624 -0.298561 0 0.339574 -0.230514 0 3.18533e-16 1.36667e-17 0)
(0.305689 0.00107738 0 0.219503 -0.313639 0 -2.32319e-16 -1.56344e-17 0)
(0.319744 -0.109267 0 -0.131683 -0.303318 0 0 0 0)
(0.429128 -0.483203 0 -0.846005 -0.552541 0 1.7709e-16 3.4132e-17 0)
(1.07824 -0.369528 0 -3.11735 -1.19243 0 -1.32045e-17 -9.88105e-18 0)
(-0.0897702 -0.331004 0 0.280405 -0.690233 0 -3.18533e-16 -1.36667e-17 0)
(0.227801 -0.0130309 7.01878e-19 0.180732 -0.317898 -6.31691e-18 5.44307e-18 -9.57404e-18 -1.90245e-34)
(0.0761795 -0.107106 0 -0.062033 -0.181044 0 0 0 0)
(-0.400545 -0.459507 1.6769e-18 -0.562369 0.413205 -1.50921e-17 1.69367e-17 -1.24444e-17 4.54525e-34)
(-1.2069 -0.454797 -5.36933e-18 -2.15159 1.72449 4.83239e-17 -2.11501e-16 -2.35001e-17 1.45536e-33)
(0.418087 -0.820893 0 9.99253 0.0504446 0 0 0 0)
(1.07875 -0.888602 0 5.11233 0.624572 0 0 0 0)
(-0.601206 0.21383 0 2.45225 0.805435 0 0 0 0)
(-0.495025 0.480584 0 0.64253 0.579187 0 0 0 0)
(-0.158102 0.236921 0 0.157421 0.254733 0 0 0 0)
(0.0806555 0.0780615 0 0.0247793 0.117657 0 0 0 0)
(0.226724 0.029279 0 -0.000240551 0.052726 0 0 0 0)
(0.298264 0.00739805 0 0.00320848 0.0334655 0 0 0 0)
(0.339413 0.00464335 0 0.00600203 0.0206337 0 0 0 0)
(0.350673 0.00312425 0 0.00494129 0.0134092 0 0 0 0)
(0.335782 0.00252975 0 0.0035358 0.00840287 0 0 0 0)
(0.287318 0.00191085 0 0.00252198 0.0046914 0 0 0 0)
(0.198133 0.0012397 0 0.00157731 0.00202354 0 0 0 0)
(0.0930391 0.000587638 0 0.00062762 0.000529409 0 0 0 0)
(0.0238736 0.00016272 0 0.000102061 5.77152e-05 0 0 0 0)
(0.00244334 1.8566e-05 0 4.21396e-06 1.6636e-06 0 0 0 0)
(6.66075e-05 5.61408e-07 0 2.89289e-08 8.18518e-09 0 0 0 0)
(3.23987e-07 2.94603e-09 0 2.27268e-11 3.80902e-12 0 0 0 0)
(1.99047e-10 1.7787e-12 0 -9.28897e-16 4.91966e-15 0 0 0 0)
(1.17288e-14 -2.79183e-15 0 -9.63944e-18 4.31807e-15 0 0 0 0)
(1.53189e-14 -4.42934e-16 0 1.02095e-16 1.79514e-15 0 0 0 0)
(2.71499e-10 6.09898e-14 0 -6.59615e-16 5.61281e-15 0 0 0 0)
(4.15867e-07 3.7419e-13 0 1.16126e-13 -1.96815e-13 0 0 0 0)
(8.10499e-05 -4.51515e-13 0 4.60215e-13 2.9324e-13 0 0 0 0)
(0.00284303 1.35777e-13 0 -1.37928e-12 1.79747e-13 0 0 0 0)
(0.0268557 1.21989e-13 0 9.09328e-13 6.53056e-14 0 0 0 0)
(0.102325 1.5004e-13 0 -4.45539e-13 -6.68007e-13 0 0 0 0)
(0.215136 2.97323e-13 0 2.77334e-13 3.13306e-13 0 0 0 0)
(0.311343 -6.19982e-13 0 2.75979e-13 -1.40008e-13 0 0 0 0)
(0.368307 1.45365e-13 0 1.57702e-14 3.83905e-14 0 0 0 0)
(0.397574 -2.77349e-13 0 -2.75486e-13 -6.171e-13 0 0 0 0)
(0.411839 3.50567e-13 0 -4.6325e-14 -1.75818e-13 0 0 0 0)
(0.416352 9.26823e-14 0 -8.77218e-14 -6.70318e-13 0 0 0 0)
(0.411744 -3.99828e-13 0 1.64602e-13 -1.64747e-13 0 0 0 0)
(0.396405 2.73155e-13 0 1.26162e-13 7.4407e-14 0 0 0 0)
(0.365981 1.01132e-13 0 1.37989e-14 -2.67274e-13 0 0 0 0)
(0.302567 -3.0157e-14 0 -4.33681e-14 7.28047e-14 0 0 0 0)
(0.439975 7.74349e-15 0 -1.67559e-13 -2.94407e-13 0 0 0 0)
(2.52301 -5.53263e-14 0 -3.94255e-14 -5.18568e-13 0 0 0 0)
(2.2125 -1.92755e-13 0 1.77415e-13 -1.88327e-13 0 0 0 0)
(1.12532 -0.711618 0 8.33829 -1.0894 0 0 0 0)
(-0.327323 -0.776736 0 4.39693 1.67958 0 0 0 0)
(-1.45854 0.19339 0 2.26891 1.96517 0 0 0 0)
(-0.934537 0.34634 0 0.537761 0.944543 0 0 0 0)
(-0.265587 0.140779 0 0.0837815 0.313159 0 0 0 0)
(0.0604223 0.0413675 0 0.00133714 0.130127 0 0 0 0)
(0.225307 0.0150338 0 -0.00799454 0.0448228 0 0 0 0)
(0.300528 0.00342401 0 -0.000869124 0.0294803 0 0 0 0)
(0.340217 0.00212576 0 0.00309026 0.019392 0 0 0 0)
(0.350437 0.00149305 0 0.00285436 0.0135188 0 0 0 0)
(0.335434 0.00127291 0 0.00194361 0.0086524 0 0 0 0)
(0.287036 0.000970657 0 0.00127671 0.00482275 0 0 0 0)
(0.197906 0.000623588 0 0.000723026 0.00208384 0 0 0 0)
(0.0928932 0.000290018 0 0.000272181 0.000561279 0 0 0 0)
(0.0238171 7.87313e-05 0 4.42898e-05 6.38307e-05 0 0 0 0)
(0.00243411 8.87949e-06 0 1.86672e-06 1.92985e-06 0 0 0 0)
(6.62149e-05 2.68266e-07 0 1.31898e-08 1.01268e-08 0 0 0 0)
(3.21185e-07 1.41889e-09 0 1.07866e-11 5.98138e-12 0 0 0 0)
(1.96759e-10 9.94609e-13 0 3.04778e-16 -8.73757e-15 0 0 0 0)
(1.21155e-14 -2.00411e-15 0 -1.68012e-15 3.43447e-15 0 0 0 0)
(1.51811e-14 3.46462e-16 0 -8.16349e-16 -2.62415e-15 0 0 0 0)
(2.71515e-10 2.35309e-15 0 6.05781e-16 8.55301e-15 0 0 0 0)
(4.15867e-07 3.43903e-13 0 -2.82362e-14 -3.53153e-13 0 0 0 0)
(8.10499e-05 -4.03056e-13 0 6.04866e-13 -5.19398e-13 0 0 0 0)
(0.00284303 6.4766e-14 0 -1.18346e-12 4.10828e-13 0 0 0 0)
(0.0268557 2.98297e-14 0 6.98294e-13 -8.49729e-13 0 0 0 0)
(0.102325 2.45409e-13 0 -5.83991e-13 -6.84048e-13 0 0 0 0)
(0.215136 3.75647e-13 0 1.28995e-13 -1.30717e-13 0 0 0 0)
(0.311343 -6.7779e-13 0 3.52366e-13 -5.20324e-13 0 0 0 0)
(0.368307 2.46805e-14 0 -1.73965e-13 -3.12625e-13 0 0 0 0)
(0.397574 -2.55512e-13 0 -3.95734e-13 -9.96043e-13 0 0 0 0)
(0.411839 3.68313e-13 0 -6.99803e-14 -2.05241e-13 0 0 0 0)
(0.416352 1.24753e-13 0 6.8009e-14 -7.17395e-13 0 0 0 0)
(0.411744 -2.78458e-13 0 1.58688e-13 -1.9134e-13 0 0 0 0)
(0.396405 2.30068e-13 0 5.12532e-14 -3.85274e-13 0 0 0 0)
(0.365981 7.71162e-14 0 5.91383e-15 -2.06e-13 0 0 0 0)
(0.302567 -3.34804e-14 0 -1.97128e-15 -2.06157e-13 0 0 0 0)
(0.439975 -1.6432e-13 0 -1.0842e-13 -3.93694e-13 0 0 0 0)
(2.52301 -8.87491e-14 0 -9.46213e-14 -8.44396e-13 0 0 0 0)
(2.2125 -7.83615e-14 0 3.94255e-14 -6.00997e-13 0 0 0 0)
(1.17547 -2.37928e-13 0 2.07575e-12 -2.63204 0 0 0 0)
(-0.686887 -1.36149e-13 0 5.8744e-13 2.42897 0 0 0 0)
(-1.72387 5.33799e-14 0 -2.06183e-13 2.70802 0 0 0 0)
(-1.1307 6.52208e-14 0 -2.21769e-13 1.09941 0 0 0 0)
(-0.314153 6.33711e-14 0 2.21769e-13 0.326934 0 0 0 0)
(0.053957 2.97003e-14 0 -1.0842e-13 0.131554 0 0 0 0)
(0.226082 -1.09812e-13 0 -2.81893e-13 0.042533 0 0 0 0)
(0.301488 -1.25177e-13 0 -1.09406e-13 0.0281961 0 0 0 0)
(0.340497 2.09475e-13 0 1.66573e-13 0.0189929 0 0 0 0)
(0.350339 1.50781e-13 0 3.59758e-14 0.0135815 0 0 0 0)
(0.335323 -2.29401e-13 0 -1.95156e-13 0.0087282 0 0 0 0)
(0.286963 -1.99207e-13 0 -2.36553e-13 0.00483029 0 0 0 0)
(0.197841 2.87401e-14 0 -2.4641e-14 0.00205493 0 0 0 0)
(0.0928416 3.30134e-13 0 1.28841e-13 0.000543122 0 0 0 0)
(0.0237949 -2.14529e-13 0 -5.25932e-13 6.10563e-05 0 0 0 0)
(0.00243046 -2.53529e-13 0 3.60191e-13 1.84433e-06 0 0 0 0)
(6.60644e-05 2.0328e-13 0 -8.12748e-14 9.75475e-09 0 0 0 0)
(3.2015e-07 4.90021e-14 0 6.22154e-14 6.46047e-12 0 0 0 0)
(1.95908e-10 3.96619e-14 0 2.06064e-15 -8.13199e-15 0 0 0 0)
(1.14026e-14 -1.01338e-15 0 -1.66693e-15 -1.537e-15 0 0 0 0)
(1.59839e-14 1.0461e-15 0 -3.8533e-16 -1.58891e-15 0 0 0 0)
(2.71491e-10 -4.09823e-14 0 1.9552e-15 -2.31848e-15 0 0 0 0)
(4.15867e-07 2.20605e-13 0 -1.17939e-13 -3.15435e-13 0 0 0 0)
(8.10499e-05 -2.29266e-13 0 5.244e-13 -9.4161e-13 0 0 0 0)
(0.00284303 3.9681e-14 0 -7.76423e-13 8.81756e-13 0 0 0 0)
(0.0268557 -1.9652e-13 0 6.27497e-13 -9.06709e-13 0 0 0 0)
(0.102325 3.59207e-13 0 -6.10695e-13 -4.22929e-13 0 0 0 0)
(0.215136 3.44952e-13 0 -1.92199e-14 -6.16471e-13 0 0 0 0)
(0.311343 -6.72901e-13 0 2.03041e-13 -1.03822e-12 0 0 0 0)
(0.368307 6.97406e-15 0 -2.08463e-13 -3.0227e-14 0 0 0 0)
(0.397574 -2.4611e-13 0 -2.40003e-13 -9.85564e-13 0 0 0 0)
(0.411839 4.31629e-13 0 -4.33681e-14 -3.03462e-13 0 0 0 0)
(0.416352 9.67263e-14 0 -4.13968e-14 -7.09462e-13 0 0 0 0)
(0.411744 -3.03211e-13 0 9.85638e-15 -4.15847e-13 0 0 0 0)
(0.396405 2.6889e-13 0 4.33681e-14 -5.49339e-13 0 0 0 0)
(0.365981 1.53239e-13 0 6.30809e-14 -4.57574e-14 0 0 0 0)
(0.302567 -8.47588e-14 0 -1.06449e-13 -1.96007e-13 0 0 0 0)
(0.439975 -1.77926e-13 0 -4.92819e-14 -3.80747e-13 0 0 0 0)
(2.52301 -1.15633e-13 0 -2.1684e-14 -2.69834e-13 0 0 0 0)
(2.2125 -1.21948e-13 0 -3.27232e-13 -1.69384e-14 0 0 0 0)
(1.12532 0.711618 0 -8.33829 -1.0894 0 0 0 0)
(-0.327323 0.776736 0 -4.39693 1.67958 0 0 0 0)
(-1.45854 -0.19339 0 -2.26891 1.96517 0 0 0 0)
(-0.934537 -0.34634 0 -0.537761 0.944543 0 0 0 0)
(-0.265587 -0.140779 0 -0.0837815 0.313159 0 0 0 0)
(0.0604223 -0.0413675 0 -0.00133714 0.130127 0 0 0 0)
(0.225307 -0.0150338 0 0.00799454 0.0448228 0 0 0 0)
(0.300528 -0.00342401 0 0.000869124 0.0294803 0 0 0 0)
(0.340217 -0.00212576 0 -0.00309026 0.019392 0 0 0 0)
(0.350437 -0.00149305 0 -0.00285436 0.0135188 0 0 0 0)
(0.335434 -0.00127291 0 -0.00194361 0.0086524 0 0 0 0)
(0.287036 -0.000970657 0 -0.00127671 0.00482275 0 0 0 0)
(0.197906 -0.000623588 0 -0.000723026 0.00208384 0 0 0 0)
(0.0928932 -0.000290018 0 -0.000272181 0.000561279 0 0 0 0)
(0.0238171 -7.87313e-05 0 -4.42898e-05 6.38307e-05 0 0 0 0)
(0.00243411 -8.87949e-06 0 -1.86672e-06 1.92985e-06 0 0 0 0)
(6.62149e-05 -2.68265e-07 0 -1.31899e-08 1.01274e-08 0 0 0 0)
(3.21185e-07 -1.41885e-09 0 -1.06042e-11 6.15838e-12 0 0 0 0)
(1.96741e-10 -8.85248e-13 0 -1.56668e-15 -7.67926e-15 0 0 0 0)
(1.14039e-14 -1.00667e-16 0 2.77307e-16 -4.38032e-15 0 0 0 0)
(1.62348e-14 1.19122e-16 0 -3.98569e-16 -3.65363e-15 0 0 0 0)
(2.71481e-10 -8.89476e-14 0 3.88909e-17 -8.52418e-15 0 0 0 0)
(4.15867e-07 7.06547e-14 0 -1.81015e-13 -2.03574e-13 0 0 0 0)
(8.10499e-05 -5.47827e-14 0 3.36574e-13 -1.20594e-12 0 0 0 0)
(0.00284303 7.49191e-14 0 -4.89348e-13 8.02167e-13 0 0 0 0)
(0.0268557 -3.49715e-13 0 5.0884e-13 -9.1625e-13 0 0 0 0)
(0.102325 3.29842e-13 0 -6.52277e-13 -1.31719e-13 0 0 0 0)
(0.215136 1.96652e-13 0 -3.51134e-14 -1.20658e-12 0 0 0 0)
(0.311343 -5.07246e-13 0 2.2719e-13 -8.5513e-13 0 0 0 0)
(0.368307 3.99994e-14 0 -5.27317e-14 1.56068e-13 0 0 0 0)
(0.397574 -3.34998e-13 0 -2.03534e-13 -8.93117e-13 0 0 0 0)
(0.411839 4.48634e-13 0 1.47846e-14 -2.96478e-13 0 0 0 0)
(0.416352 9.20589e-14 0 -7.0966e-14 -9.54204e-13 0 0 0 0)
(0.411744 -2.31877e-13 0 -5.32245e-14 -1.60119e-13 0 0 0 0)
(0.396405 3.3773e-13 0 1.37989e-14 -1.63658e-13 0 0 0 0)
(0.365981 1.79904e-13 0 4.73106e-14 -2.32408e-13 0 0 0 0)
(0.302567 -1.30932e-13 0 -1.16305e-13 -4.89288e-13 0 0 0 0)
(0.439975 -1.85797e-13 0 -3.5483e-14 -2.85103e-13 0 0 0 0)
(2.52301 1.70861e-14 0 -4.13968e-14 -5.37432e-13 0 0 0 0)
(2.2125 -4.79193e-15 0 -2.68094e-13 2.5081e-13 0 0 0 0)
(0.418087 0.820893 0 -9.99253 0.0504446 0 0 0 0)
(1.07875 0.888602 0 -5.11233 0.624572 0 0 0 0)
(-0.601206 -0.21383 0 -2.45225 0.805435 0 0 0 0)
(-0.495025 -0.480584 0 -0.64253 0.579187 0 0 0 0)
(-0.158102 -0.236921 0 -0.157421 0.254733 0 0 0 0)
(0.0806555 -0.0780615 0 -0.0247793 0.117657 0 0 0 0)
(0.226724 -0.029279 0 0.000240551 0.052726 0 0 0 0)
(0.298264 -0.00739805 0 -0.00320848 0.0334655 0 0 0 0)
(0.339413 -0.00464335 0 -0.00600203 0.0206337 0 0 0 0)
(0.350673 -0.00312425 0 -0.00494129 0.0134092 0 0 0 0)
(0.335782 -0.00252975 0 -0.0035358 0.00840287 0 0 0 0)
(0.287318 -0.00191085 0 -0.00252198 0.0046914 0 0 0 0)
(0.198133 -0.0012397 0 -0.00157731 0.00202354 0 0 0 0)
(0.0930391 -0.000587638 0 -0.00062762 0.000529409 0 0 0 0)
(0.0238736 -0.00016272 0 -0.000102061 5.77152e-05 0 0 0 0)
(0.00244334 -1.8566e-05 0 -4.21396e-06 1.6636e-06 0 0 0 0)
(6.66074e-05 -5.61408e-07 0 -2.89288e-08 8.18532e-09 0 0 0 0)
(3.23987e-07 -2.9461e-09 0 -2.26491e-11 4.2119e-12 0 0 0 0)
(1.98993e-10 -1.75314e-12 0 -2.10336e-15 -2.51936e-15 0 0 0 0)
(1.17425e-14 1.57711e-16 0 9.15694e-16 -1.81826e-15 0 0 0 0)
(1.59145e-14 -1.59389e-16 0 -2.11448e-16 -1.49745e-15 0 0 0 0)
(2.71439e-10 -9.91409e-14 0 -9.13387e-16 -3.08919e-15 0 0 0 0)
(4.15867e-07 -1.27735e-13 0 -1.16505e-13 1.20863e-13 0 0 0 0)
(8.10499e-05 6.33128e-14 0 -4.69612e-14 -7.40457e-13 0 0 0 0)
(0.00284303 1.23955e-13 0 5.96608e-14 5.39162e-13 0 0 0 0)
(0.0268557 -4.68196e-13 0 1.56859e-13 -5.44706e-13 0 0 0 0)
(0.102325 2.74747e-13 0 -2.76903e-13 3.01309e-13 0 0 0 0)
(0.215136 1.34505e-13 0 7.79886e-14 -8.91876e-13 0 0 0 0)
(0.311343 -2.76494e-13 0 1.29365e-13 -1.02557e-13 0 0 0 0)
(0.368307 -4.07661e-15 0 3.89327e-14 4.92031e-13 0 0 0 0)
(0.397574 -3.7776e-13 0 -1.73965e-13 -5.32062e-13 0 0 0 0)
(0.411839 4.13858e-13 0 2.75979e-14 1.53328e-13 0 0 0 0)
(0.416352 1.36394e-13 0 8.96931e-14 -7.02191e-13 0 0 0 0)
(0.411744 -7.32336e-14 0 1.57702e-14 2.90376e-13 0 0 0 0)
(0.396405 2.47861e-13 0 -2.95692e-14 1.73288e-13 0 0 0 0)
(0.365981 5.85098e-14 0 -4.73106e-14 -2.79575e-13 0 0 0 0)
(0.302567 -1.00088e-13 0 -4.53394e-14 -4.14103e-13 0 0 0 0)
(0.439975 -1.91932e-13 0 4.33681e-14 -1.44771e-13 0 0 0 0)
(2.52301 4.02694e-14 0 5.7167e-14 -1.75492e-13 0 0 0 0)
(2.2125 1.07359e-13 0 -5.91383e-14 -3.26132e-14 0 0 0 0)
(2.45599 1.01606 0 -4.11868 -0.055448 0 0 0 0)
(2.77671 1.12097 0 -2.40655 0.115293 0 0 0 0)
(0.353945 -0.198226 0 -1.31811 0.167818 0 0 0 0)
(-0.00323908 -0.536561 0 -0.497625 0.186802 0 0 0 0)
(-0.0023684 -0.319121 0 -0.205199 0.14386 0 0 0 0)
(0.135925 -0.125653 0 -0.0639393 0.0906969 0 0 0 0)
(0.237199 -0.0513739 0 -0.0318681 0.0566578 0 0 0 0)
(0.29923 -0.0189597 0 -0.0168167 0.0346448 0 0 0 0)
(0.340059 -0.0117956 0 -0.0110764 0.0204186 0 0 0 0)
(0.351711 -0.00727901 0 -0.00764995 0.0122572 0 0 0 0)
(0.336549 -0.00528813 0 -0.00567726 0.00710484 0 0 0 0)
(0.287938 -0.00388514 0 -0.00418978 0.00361184 0 0 0 0)
(0.198831 -0.00252191 0 -0.00261237 0.00139767 0 0 0 0)
(0.0936499 -0.001179 0 -0.00101314 0.000323318 0 0 0 0)
(0.0241429 -0.00031266 0 -0.000159122 3.11616e-05 0 0 0 0)
(0.00248743 -3.38775e-05 0 -6.3569e-06 7.51861e-07 0 0 0 0)
(6.84043e-05 -9.7285e-07 0 -4.17728e-08 2.7292e-09 0 0 0 0)
(3.36091e-07 -4.78741e-09 0 -3.39287e-11 4.19217e-12 0 0 0 0)
(2.08344e-10 -2.5249e-12 0 -3.50293e-15 1.76154e-12 0 0 0 0)
(1.21993e-14 2.416e-16 0 -6.9667e-16 1.76057e-12 0 0 0 0)
(1.54578e-14 -3.56069e-16 0 -1.39773e-16 1.75879e-12 0 0 0 0)
(2.71456e-10 -4.07986e-16 0 2.28737e-15 1.76123e-12 0 0 0 0)
(4.15867e-07 -1.62488e-13 0 -6.65093e-14 1.85758e-12 0 0 0 0)
(8.10499e-05 7.10567e-14 0 -1.04082e-13 1.85269e-12 0 0 0 0)
(0.00284303 1.41011e-13 0 2.09659e-13 1.85968e-12 0 0 0 0)
(0.0268557 -3.6192e-13 0 1.7695e-14 1.83097e-12 0 0 0 0)
(0.102325 1.75775e-13 0 4.16386e-14 2.48006e-12 0 0 0 0)
(0.215136 1.51752e-14 0 9.12366e-14 1.3529e-12 0 0 0 0)
(0.311343 9.40333e-14 0 -2.17436e-13 1.72646e-12 0 0 0 0)
(0.368307 -1.78454e-13 0 1.10391e-13 2.01228e-12 0 0 0 0)
(0.397574 -4.98014e-13 0 -1.09796e-13 9.40719e-13 0 0 0 0)
(0.411839 3.82127e-13 0 -1.61273e-13 1.10925e-12 0 0 0 0)
(0.416352 1.26763e-13 0 -9.0158e-14 7.04191e-14 0 0 0 0)
(0.411744 1.33856e-13 0 3.60037e-14 6.6487e-13 0 0 0 0)
(0.396405 8.41267e-14 0 3.45159e-14 3.25e-13 0 0 0 0)
(0.365981 -4.8189e-14 0 -1.32113e-13 8.69337e-14 0 0 0 0)
(0.302567 -8.20352e-14 0 -1.55917e-13 1.74378e-13 0 0 0 0)
(0.439975 -2.90303e-14 0 -1.01167e-14 -1.26037e-14 0 0 0 0)
(2.52301 6.06337e-14 0 -1.13069e-14 2.49232e-13 0 0 0 0)
(2.2125 -4.48418e-14 0 -2.26139e-14 9.8504e-14 0 0 0 0)
(2.37829 0.857158 0 -0.572869 0.324816 0 0 0 0)
(2.86699 0.979143 0 -0.759691 -0.22449 0 0 0 0)
(0.726124 -0.153289 0 -0.607537 -0.179499 0 0 0 0)
(0.313708 -0.473653 0 -0.375259 -0.0775811 0 0 0 0)
(0.176304 -0.285453 0 -0.202575 0.030072 0 0 0 0)
(0.218046 -0.136572 0 -0.103392 0.0473014 0 0 0 0)
(0.266516 -0.0714449 0 -0.0618962 0.0437692 0 0 0 0)
(0.317781 -0.0361197 0 -0.0326065 0.026634 0 0 0 0)
(0.3479 -0.0223817 0 -0.0188136 0.0163018 0 0 0 0)
(0.355319 -0.0137259 0 -0.0123337 0.00910131 0 0 0 0)
(0.338705 -0.00938159 0 -0.00884698 0.0045371 0 0 0 0)
(0.289939 -0.00635182 0 -0.00613311 0.00182676 0 0 0 0)
(0.200819 -0.00372108 0 -0.00348533 0.000519274 0 0 0 0)
(0.0950755 -0.00158735 0 -0.00124022 7.7242e-05 0 0 0 0)
(0.0246993 -0.000393153 0 -0.000183783 8.89506e-07 0 0 0 0)
(0.00257299 -4.03813e-05 0 -7.0563e-06 -4.873e-08 0 0 0 0)
(7.17696e-05 -1.0653e-06 0 -4.82368e-08 1.12319e-08 0 0 0 0)
(3.57751e-07 -4.58699e-09 0 -4.0002e-11 9.66317e-09 0 0 0 0)
(2.26673e-10 -3.68248e-12 0 -8.61353e-15 9.66099e-09 0 0 0 0)
(1.47384e-14 -2.53225e-15 0 1.04866e-15 9.66099e-09 0 0 0 0)
(1.90349e-14 5.85261e-16 0 7.72499e-16 9.661e-09 0 0 0 0)
(2.71366e-10 -5.6886e-14 0 3.10191e-15 9.66099e-09 0 0 0 0)
(4.15867e-07 -2.09722e-14 0 3.12769e-13 9.66142e-09 0 0 0 0)
(8.10499e-05 6.11838e-14 0 -3.54394e-13 9.66114e-09 0 0 0 0)
(0.00284303 9.38851e-14 0 7.32638e-13 9.66176e-09 0 0 0 0)
(0.0268557 7.26289e-14 0 -3.8059e-12 9.65409e-09 0 0 0 0)
(0.102325 -1.32873e-13 0 -2.43427e-11 9.58659e-09 0 0 0 0)
(0.215136 -5.27698e-13 0 -8.91802e-11 9.28001e-09 0 0 0 0)
(0.311343 1.60223e-13 0 -1.79064e-10 8.55861e-09 0 0 0 0)
(0.368307 -6.67739e-13 0 -2.55495e-10 7.38384e-09 0 0 0 0)
(0.397574 -1.18347e-12 0 -2.89663e-10 5.90991e-09 0 0 0 0)
(0.411839 -4.0778e-13 0 -2.77901e-10 4.37513e-09 0 0 0 0)
(0.416352 -2.86665e-13 0 -2.3204e-10 2.99117e-09 0 0 0 0)
(0.411744 6.10415e-14 0 -1.7119e-10 1.89295e-09 0 0 0 0)
(0.396405 -2.2126e-13 0 -1.11971e-10 1.11446e-09 0 0 0 0)
(0.365981 -2.94195e-14 0 -6.66806e-11 6.27947e-10 0 0 0 0)
(0.302567 -2.05687e-13 0 -3.79074e-11 3.34309e-10 0 0 0 0)
(0.439975 -2.07152e-13 0 -2.7783e-11 1.6819e-10 0 0 0 0)
(2.52301 1.36417e-13 0 -1.42581e-11 4.45281e-11 0 0 0 0)
(2.2125 4.37263e-14 0 -1.47585e-13 1.59026e-12 0 0 0 0)
(2.27596 0.486732 0 -0.0403986 0.299448 0 0 0 0)
(2.74331 0.634998 0 -0.17653 -0.289418 0 0 0 0)
(0.724397 -0.0566588 0 -0.240611 -0.285368 0 0 0 0)
(0.386997 -0.334611 0 -0.249078 -0.151621 0 0 0 0)
(0.259613 -0.19878 0 -0.167258 -0.0246115 0 0 0 0)
(0.271488 -0.112454 0 -0.117359 0.00657633 0 0 0 0)
(0.30541 -0.0712898 0 -0.0712764 0.0168227 0 0 0 0)
(0.340746 -0.0454283 0 -0.0420217 0.0112856 0 0 0 0)
(0.359595 -0.0286907 0 -0.0256936 0.00751265 0 0 0 0)
(0.361315 -0.0186159 0 -0.0168238 0.00376638 0 0 0 0)
(0.342524 -0.0122981 0 -0.011424 0.00135537 0 0 0 0)
(0.293105 -0.00775686 0 -0.00736188 0.000127383 0 0 0 0)
(0.203546 -0.00420781 0 -0.00383695 -0.00021272 0 0 0 0)
(0.0968314 -0.00167854 0 -0.00125301 -0.000103901 0 0 0 0)
(0.0253312 -0.00038714 0 -0.000179554 -9.10474e-07 0 0 0 0)
(0.00266449 -3.47238e-05 0 -6.92721e-06 5.68476e-06 0 0 0 0)
(7.5204e-05 -9.1658e-07 0 -4.71193e-08 5.61525e-06 0 0 0 0)
(3.82573e-07 -6.30118e-09 0 -3.97553e-11 5.61432e-06 0 0 0 0)
(2.46893e-10 -4.62017e-12 0 -1.94737e-14 5.61432e-06 0 0 0 0)
(2.1244e-14 1.55977e-15 0 1.03894e-13 5.61432e-06 0 0 0 0)
(1.74364e-14 4.30525e-16 0 2.59141e-14 5.61432e-06 0 0 0 0)
(2.71757e-10 4.0692e-13 0 -4.37657e-14 5.61432e-06 0 0 0 0)
(4.15867e-07 -2.46944e-14 0 1.03221e-12 5.61432e-06 0 0 0 0)
(8.10499e-05 3.95518e-13 0 -1.91351e-12 5.61432e-06 0 0 0 0)
(0.00284303 -6.65402e-12 0 -5.73591e-11 5.61425e-06 0 0 0 0)
(0.0268557 -7.27985e-11 0 -1.75818e-09 5.61136e-06 0 0 0 0)
(0.102325 -3.60294e-10 0 -1.46142e-08 5.58012e-06 0 0 0 0)
(0.215136 -9.90578e-10 0 -5.07957e-08 5.44628e-06 0 0 0 0)
(0.311343 -1.82713e-09 0 -1.03177e-07 5.12758e-06 0 0 0 0)
(0.368307 -2.55256e-09 0 -1.51771e-07 4.59942e-06 0 0 0 0)
(0.397574 -2.8998e-09 0 -1.8198e-07 3.90697e-06 0 0 0 0)
(0.411839 -2.81223e-09 0 -1.8881e-07 3.13523e-06 0 0 0 0)
(0.416352 -2.39179e-09 0 -1.74445e-07 2.37413e-06 0 0 0 0)
(0.411744 -1.80832e-09 0 -1.45557e-07 1.69846e-06 0 0 0 0)
(0.396405 -1.21892e-09 0 -1.0986e-07 1.15201e-06 0 0 0 0)
(0.365981 -7.51834e-10 0 -7.7071e-08 7.57168e-07 0 0 0 0)
(0.302567 -4.4312e-10 0 -5.07793e-08 4.74961e-07 0 0 0 0)
(0.439975 -2.79273e-10 0 -4.50219e-08 2.84415e-07 0 0 0 0)
(2.52301 -1.60481e-10 0 -3.18188e-08 9.10757e-08 0 0 0 0)
(2.2125 -4.14213e-11 0 -5.11562e-10 5.47195e-09 0 0 0 0)
(2.24711 0.289706 0 0.00599785 0.199849 0 0 0 0)
(2.67405 0.415594 0 -0.0293033 -0.177418 0 0 0 0)
(0.656214 -0.0205034 0 -0.10745 -0.237031 0 0 0 0)
(0.384394 -0.222379 0 -0.171295 -0.130123 0 0 0 0)
(0.303234 -0.133008 0 -0.13764 -0.0412556 0 0 0 0)
(0.310537 -0.0966448 0 -0.103964 -0.0171721 0 0 0 0)
(0.339113 -0.0669068 0 -0.0681543 -0.00666138 0 0 0 0)
(0.361706 -0.0450912 0 -0.0441723 -0.00214655 0 0 0 0)
(0.372182 -0.0296275 0 -0.0286935 -0.00104062 0 0 0 0)
(0.36907 -0.0196593 0 -0.0186882 -0.0012399 0 0 0 0)
(0.347823 -0.0128883 0 -0.012084 -0.00127216 0 0 0 0)
(0.29725 -0.00786289 0 -0.00731971 -0.000699828 0 0 0 0)
(0.206706 -0.00394395 0 -0.00362544 6.21816e-06 0 0 0 0)
(0.0985999 -0.00138324 0 -0.00114327 0.000390883 0 0 0 0)
(0.0259001 -0.000287553 0 -0.00015099 0.000474996 0 0 0 0)
(0.00274597 -3.40928e-05 0 -5.54059e-06 0.000482206 0 0 0 0)
(7.84449e-05 -1.13318e-06 0 -3.45199e-08 0.000482478 0 0 0 0)
(4.03157e-07 -5.48902e-09 0 -2.72435e-11 0.000482482 0 0 0 0)
(2.65083e-10 -3.97005e-12 0 -2.47155e-13 0.000482482 0 0 0 0)
(5.84756e-14 1.54321e-13 0 6.09484e-14 0.000482482 0 0 0 0)
(-1.23255e-13 4.03908e-14 0 5.68754e-15 0.000482482 0 0 0 0)
(2.72335e-10 5.16254e-13 0 -1.12119e-13 0.000482482 0 0 0 0)
(4.15865e-07 -8.43972e-13 0 -9.14415e-13 0.000482482 0 0 0 0)
(8.10499e-05 -7.02137e-11 0 -3.34307e-11 0.000482482 0 0 0 0)
(0.00284303 -2.85039e-09 0 -5.64344e-09 0.000482477 0 0 0 0)
(0.0268557 -3.28851e-08 0 -1.61256e-07 0.000482282 0 0 0 0)
(0.102325 -1.59077e-07 0 -1.2787e-06 0.000480258 0 0 0 0)
(0.215136 -4.36089e-07 0 -4.31586e-06 0.000471846 0 0 0 0)
(0.311343 -8.16067e-07 0 -8.72875e-06 0.000452058 0 0 0 0)
(0.368307 -1.17622e-06 0 -1.31139e-05 0.000418932 0 0 0 0)
(0.397574 -1.41095e-06 0 -1.64224e-05 0.000374063 0 0 0 0)
(0.411839 -1.4771e-06 0 -1.81623e-05 0.00032128 0 0 0 0)
(0.416352 -1.38452e-06 0 -1.82356e-05 0.000265181 0 0 0 0)
(0.411744 -1.17768e-06 0 -1.68564e-05 0.00021049 0 0 0 0)
(0.396405 -9.07068e-07 0 -1.43455e-05 0.000160916 0 0 0 0)
(0.365981 -6.52429e-07 0 -1.15398e-05 0.00012046 0 0 0 0)
(0.302567 -4.55562e-07 0 -8.47421e-06 8.7151e-05 0 0 0 0)
(0.439975 -3.69926e-07 0 -8.99959e-06 6.10314e-05 0 0 0 0)
(2.52301 -2.688e-07 0 -8.3727e-06 2.3477e-05 0 0 0 0)
(2.2125 -8.24909e-08 0 -2.05173e-07 2.88115e-06 0 0 0 0)
(2.24194 0.123184 0 0.0140456 0.144649 0 0 0 0)
(2.63398 0.214005 0 0.0143213 -0.113196 0 0 0 0)
(0.587569 -0.0110839 0 -0.0490452 -0.175001 0 0 0 0)
(0.357905 -0.145954 0 -0.115367 -0.096167 0 0 0 0)
(0.324495 -0.0899357 0 -0.107183 -0.0467894 0 0 0 0)
(0.338446 -0.079118 0 -0.080618 -0.0257134 0 0 0 0)
(0.363028 -0.0568107 0 -0.055966 -0.0127989 0 0 0 0)
(0.378772 -0.0400119 0 -0.0381863 -0.00431786 0 0 0 0)
(0.384152 -0.027817 0 -0.0259189 0.000360467 0 0 0 0)
(0.377321 -0.018839 0 -0.0176104 0.00319386 0 0 0 0)
(0.353479 -0.0117777 0 -0.0112843 0.00521878 0 0 0 0)
(0.301256 -0.00652497 0 -0.006357 0.0069345 0 0 0 0)
(0.209498 -0.00315676 0 -0.00286017 0.00816598 0 0 0 0)
(0.100179 -0.00122681 0 -0.00081218 0.00873332 0 0 0 0)
(0.0264275 -0.000299137 0 -9.36992e-05 0.00888394 0 0 0 0)
(0.00280995 -2.75139e-05 0 -2.95344e-06 0.00891266 0 0 0 0)
(8.05431e-05 -6.51175e-07 0 -1.72419e-08 0.0089138 0 0 0 0)
(4.15838e-07 -2.47053e-09 0 -1.15398e-11 0.00891381 0 0 0 0)
(2.73204e-10 -3.9706e-13 0 -3.68584e-13 0.00891381 0 0 0 0)
(2.64892e-13 -2.76844e-13 0 -4.21208e-13 0.00891381 0 0 0 0)
(-1.49337e-13 -4.46427e-14 0 -4.98702e-13 0.00891381 0 0 0 0)
(2.7087e-10 -1.32152e-12 0 -4.02349e-13 0.00891381 0 0 0 0)
(4.15835e-07 -2.10809e-11 0 -1.38582e-12 0.00891381 0 0 0 0)
(8.10445e-05 -4.8941e-09 0 -7.91709e-10 0.00891381 0 0 0 0)
(0.00284287 -1.92777e-07 0 -1.2076e-07 0.00891373 0 0 0 0)
(0.0268545 -2.13802e-06 0 -3.29276e-06 0.00891087 0 0 0 0)
(0.102321 -1.00565e-05 0 -2.47623e-05 0.00888283 0 0 0 0)
(0.215129 -2.71751e-05 0 -8.00934e-05 0.00877175 0 0 0 0)
(0.311334 -5.09919e-05 0 -0.00015899 0.008518 0 0 0 0)
(0.368299 -7.51615e-05 0 -0.000240469 0.00809557 0 0 0 0)
(0.397569 -9.4104e-05 0 -0.000309675 0.00751382 0 0 0 0)
(0.411837 -0.000104926 0 -0.000358594 0.00680407 0 0 0 0)
(0.416353 -0.000106764 0 -0.00038317 0.00600712 0 0 0 0)
(0.411747 -0.000100476 0 -0.000383067 0.00517297 0 0 0 0)
(0.39641 -8.67573e-05 0 -0.000358207 0.00434566 0 0 0 0)
(0.365987 -7.10832e-05 0 -0.00032129 0.00360482 0 0 0 0)
(0.302569 -5.72678e-05 0 -0.000257383 0.00292068 0 0 0 0)