/*--------------------------------*- C++ -*----------------------------------*\
| =========                 |                                                 |
| \\      /  F ield         | OpenFOAM: The Open Source CFD Toolbox           |
|  \\    /   O peration     | Version:  v1912                                 |
|   \\  /    A nd           | Website:  www.openfoam.com                      |
|    \\/     M anipulation  |                                                 |
\*---------------------------------------------------------------------------*/
FoamFile
{
    version     2.0;
    format      ascii;
    class       volScalarField;
    location    "0.00015";
    object      iDofMean;
}
// * * * * * * * * * * * * * * * * * * * * * * * * * * * * * * * * * * * * * //

dimensions      [0 -3 0 0 0 0 0];


internalField   nonuniform List<scalar> 
1300
(
3.786666667e+23
3.76e+23
9.52e+23
2.482666667e+24
1.466666667e+24
1.053333333e+24
1.437333333e+24
1.546666667e+24
1.285333333e+24
1.256e+24
4.453333333e+23
4.533333333e+23
1.416e+24
4.424e+24
2.226666667e+24
1.354666667e+24
2.176e+24
2.312e+24
1.618666667e+24
1.493333333e+24
2.266666667e+23
2.48e+23
1.290666667e+24
4.581333333e+24
2.181333333e+24
1.269333333e+24
2.434666667e+24
2.890666667e+24
2.005333333e+24
1.829333333e+24
1.306666667e+23
1.44e+23
1.176e+24
4.248e+24
1.952e+24
1.170666667e+24
2.44e+24
3.272e+24
2.144e+24
2.090666667e+24
8e+22
1.253333333e+23
1.162666667e+24
4.309333333e+24
1.925333333e+24
1.074666667e+24
2.250666667e+24
2.994666667e+24
2.306666667e+24
2.112e+24
6.933333333e+22
6.933333333e+22
1.125333333e+24
4.277333333e+24
1.829333333e+24
9.653333333e+23
2.210666667e+24
2.669333333e+24
2.184e+24
2.026666667e+24
4e+22
8.266666667e+22
1.152e+24
4.184e+24
1.84e+24
8.826666667e+23
2.128e+24
2.666666667e+24
2.045333333e+24
1.890666667e+24
4e+22
5.6e+22
1.248e+24
4.248e+24
1.84e+24
1.002666667e+24
2.074666667e+24
2.704e+24
1.877333333e+24
1.802666667e+24
2.133333333e+22
5.866666667e+22
1.197333333e+24
4.322666667e+24
1.885333333e+24
1.034666667e+24
2.250666667e+24
2.621333333e+24
1.984e+24
1.741333333e+24
1.866666667e+22
4.533333333e+22
1.058666667e+24
4.173333333e+24
1.896e+24
9.76e+23
2e+24
2.784e+24
2.04e+24
1.621333333e+24
1.6e+22
5.066666667e+22
1.202666667e+24
4.290666667e+24
1.845333333e+24
1.005333333e+24
2.056e+24
2.861333333e+24
1.989333333e+24
1.792e+24
1.866666667e+22
5.6e+22
1.114666667e+24
4.106666667e+24
1.906666667e+24
8.773333333e+23
2.16e+24
2.656e+24
1.858666667e+24
1.882666667e+24
8e+21
3.733333333e+22
1.096e+24
4.338666667e+24
1.850666667e+24
9.706666667e+23
2.08e+24
2.754666667e+24
1.96e+24
1.773333333e+24
1.066666667e+22
2.666666667e+22
1.144e+24
4.248e+24
1.856e+24
9.52e+23
2.048e+24
2.749333333e+24
1.922666667e+24
1.738666667e+24
8e+21
2.666666667e+22
1.136e+24
4.082666667e+24
1.869333333e+24
9.306666667e+23
2.042666667e+24
2.762666667e+24
1.986666667e+24
1.693333333e+24
8e+21
4.533333333e+22
1.157333333e+24
4.378666667e+24
1.757333333e+24
1.016e+24
2.122666667e+24
2.584e+24
1.949333333e+24
1.712e+24
1.333333333e+22
2.666666667e+22
1.149333333e+24
4.16e+24
1.725333333e+24
1.053333333e+24
2.194666667e+24
2.605333333e+24
1.946666667e+24
1.8e+24
5.333333333e+21
1.6e+22
1.154666667e+24
4.216e+24
1.805333333e+24
1.029333333e+24
2.056e+24
2.728e+24
1.936e+24
1.752e+24
5.333333333e+21
2.933333333e+22
1.149333333e+24
4.357333333e+24
1.826666667e+24
1.002666667e+24
1.978666667e+24
2.661333333e+24
1.949333333e+24
1.685333333e+24
5.333333333e+21
2.4e+22
1.008e+24
3.997333333e+24
1.717333333e+24
1.061333333e+24
2.021333333e+24
2.608e+24
1.933333333e+24
1.813333333e+24
1.271796368e+24
1.076304344e+24
1.076304353e+24
1.027980484e+24
1.036766633e+24
9.708704569e+23
1.098269748e+24
1.142200528e+24
1.021390865e+24
1.069714734e+24
9.796566069e+23
1.155379775e+24
1.13121784e+24
1.069714725e+24
1.166362472e+24
1.170755551e+24
1.129021291e+24
1.102662827e+24
1.214686341e+24
1.076304344e+24
1.13341438e+24
1.192720946e+24
1.168559002e+24
1.122431682e+24
1.179541709e+24
1.280582515e+24
1.320120237e+24
1.403588738e+24
1.570525726e+24
1.572722279e+24
1.465091843e+24
1.263010199e+24
1.109252445e+24
1.111448985e+24
1.144397068e+24
1.124628222e+24
1.124628222e+24
1.109252436e+24
1.17295209e+24
1.036766642e+24
1.080697423e+24
1.030177023e+24
1.205900183e+24
1.085090502e+24
1.120235143e+24
1.107055906e+24
1.107055897e+24
1.008211628e+24
1.166362472e+24
1.254224041e+24
1.179541709e+24
1.170755551e+24
1.234455186e+24
1.247634433e+24
1.168559012e+24
1.291565213e+24
1.223472499e+24
1.344282171e+24
1.348675239e+24
1.403588738e+24
1.873648189e+24
1.697925016e+24
1.476074541e+24
1.326709855e+24
1.357461397e+24
1.254224052e+24
1.236651736e+24
1.168559002e+24
1.183934788e+24
1.140003998e+24
1.096073199e+24
1.144397077e+24
1.071911274e+24
1.159772844e+24
1.17514863e+24
1.133414379e+24
1.144397068e+24
1.140003998e+24
1.17514863e+24
1.172952081e+24
1.221275959e+24
1.230062117e+24
1.194917476e+24
1.238848276e+24
1.153183235e+24
1.170755541e+24
1.201507104e+24
1.324513316e+24
1.416767963e+24
1.273992907e+24
2.280007996e+24
2.084515964e+24
1.772607373e+24
1.680352714e+24
1.629832292e+24
1.43434029e+24
1.440929909e+24
1.418964502e+24
1.326709855e+24
1.278385986e+24
1.241044805e+24
1.243241354e+24
1.241044815e+24
1.212489791e+24
1.186131327e+24
1.153183235e+24
1.144397068e+24
1.153183235e+24
1.159772854e+24
1.155379765e+24
1.265206749e+24
1.232258657e+24
1.254224042e+24
1.328906395e+24
1.320120237e+24
1.126824752e+24
1.326709855e+24
1.320120237e+24
1.370640634e+24
1.339889092e+24
2.679778184e+24
2.455731136e+24
2.139429469e+24
2.069140205e+24
1.893417029e+24
1.796769307e+24
1.728676583e+24
1.599080739e+24
1.616653068e+24
1.412374895e+24
1.359657937e+24
1.331102934e+24
1.30474446e+24
1.271796357e+24
1.254224052e+24
1.265206749e+24
1.282779055e+24
1.214686341e+24
1.293761763e+24
1.225669028e+24
1.258617131e+24
1.326709855e+24
1.168559002e+24
1.315727158e+24
1.241044815e+24
1.300351371e+24
1.375033724e+24
1.306941e+24
1.243241344e+24
1.26301021e+24
2.334921483e+24
2.666598926e+24
2.378852274e+24
2.345904181e+24
2.187753319e+24
2.110874455e+24
1.919775519e+24
1.80555545e+24
1.686942332e+24
1.719890425e+24
1.632028831e+24
1.533184568e+24
1.458502225e+24
1.526594937e+24
1.429947211e+24
1.372837185e+24
1.476074529e+24
1.273992907e+24
1.326709855e+24
1.335496002e+24
1.284975605e+24
1.298154842e+24
1.331102923e+24
1.280582526e+24
1.381623342e+24
1.339889081e+24
1.315727158e+24
1.353068329e+24
1.2630102e+24
1.427750672e+24
2.091105599e+24
2.418389965e+24
2.39422805e+24
2.475500011e+24
2.409603807e+24
2.334921483e+24
2.211915272e+24
2.088909043e+24
2.084515981e+24
1.961509769e+24
1.845093161e+24
1.728676583e+24
1.603473832e+24
1.651797687e+24
1.541970726e+24
1.548560344e+24
1.451912595e+24
1.614456529e+24
1.410178356e+24
1.396999107e+24
1.491450317e+24
1.381623342e+24
1.407981805e+24
1.366247566e+24
1.403588738e+24
1.407981805e+24
1.357461408e+24
1.386016421e+24
1.46948491e+24
1.30474446e+24
2.141626008e+24
2.299776833e+24
2.352493799e+24
2.293187233e+24
2.528216938e+24
2.675385105e+24
2.488679248e+24
2.321742227e+24
2.381048813e+24
2.227291048e+24
2.088909043e+24
2.007637099e+24
2.042781731e+24
1.853879319e+24
1.792376228e+24
1.801162386e+24
1.632028832e+24
1.693531951e+24
1.541970726e+24
1.546363792e+24
1.513415712e+24
1.675959635e+24
1.478271068e+24
1.592491134e+24
1.504629554e+24
1.528791476e+24
1.394802579e+24
1.526594949e+24
1.399195647e+24
1.425554132e+24
2.126250232e+24
2.165787925e+24
2.080122902e+24
2.233880667e+24
2.172377543e+24
2.431569221e+24
2.473303472e+24
2.486482688e+24
2.477696551e+24
2.328331865e+24
2.26902528e+24
2.30636647e+24
2.066943665e+24
2.036192096e+24
2.058157507e+24
1.95711669e+24
1.902203187e+24
1.744052359e+24
1.864862031e+24
1.697925016e+24
1.719890425e+24
1.684745793e+24
1.632028831e+24
1.629832305e+24
1.715497346e+24
1.588098042e+24
1.673763096e+24
1.590294595e+24
1.607866897e+24
1.484860699e+24
1.987868243e+24
2.247059885e+24
1.985671704e+24
2.031799033e+24
2.225094491e+24
2.203129114e+24
2.359083418e+24
2.306366451e+24
2.418389985e+24
2.65561625e+24
2.343707622e+24
2.43815884e+24
2.464517314e+24
2.22509449e+24
2.165787943e+24
2.124053692e+24
2.108677898e+24
1.910989361e+24
2.080122902e+24
1.937347819e+24
1.836307018e+24
1.834110479e+24
1.825324306e+24
1.768214294e+24
1.78578661e+24
1.675959621e+24
1.673763095e+24
1.65399424e+24
1.72428349e+24
1.65619078e+24
2.08890906e+24
2.209718714e+24
2.069140205e+24
2.093302139e+24
2.073533267e+24
2.251452983e+24
2.183360258e+24
2.293187214e+24
2.385441892e+24
2.416193445e+24
2.398621109e+24
2.47989309e+24
2.52382388e+24
2.43815882e+24
2.387638432e+24
2.271221838e+24
2.383245333e+24
2.227291048e+24
2.113070994e+24
2.080122885e+24
1.908792821e+24
2.058157507e+24
1.957116674e+24
1.834110478e+24
1.867058571e+24
1.963706293e+24
1.825324321e+24
1.836307018e+24
1.728676569e+24
1.87364819e+24
1.974689006e+24
2.255846043e+24
2.012030178e+24
2.042781731e+24
2.001047464e+24
2.152608705e+24
2.058157507e+24
2.108677898e+24
2.26243568e+24
2.301973391e+24
2.398621109e+24
2.407407287e+24
2.477696551e+24
2.363476478e+24
2.389834971e+24
2.471106932e+24
2.348100701e+24
2.238273746e+24
2.39203151e+24
2.240470267e+24
2.207522193e+24
2.086712521e+24
2.095498661e+24
2.117464074e+24
2.007637099e+24
2.064747108e+24
1.939544374e+24
1.921972058e+24
2.009833622e+24
1.900006663e+24
2.055960968e+24
2.117464056e+24
2.014226717e+24
2.014226717e+24
2.14162599e+24
2.154805245e+24
2.073533284e+24
2.025209398e+24
2.3524938e+24
2.209718732e+24
2.233880648e+24
2.403014208e+24
2.359083418e+24
2.510644623e+24
2.532610038e+24
2.627061237e+24
2.422783043e+24
2.468910393e+24
2.30636647e+24
2.455731136e+24
2.222897969e+24
2.315152628e+24
2.233880648e+24
2.097695218e+24
2.17677064e+24
2.071336727e+24
2.102088297e+24
1.968099388e+24
2.055960951e+24
2.00104748e+24
1.992261322e+24
2.240470267e+24
1.983475164e+24
1.990064783e+24
1.957116674e+24
2.04497827e+24
2.086712521e+24
1.9307582e+24
2.080122902e+24
2.244863364e+24
2.020816319e+24
2.170181021e+24
2.326135326e+24
2.163591385e+24
2.475500011e+24
2.330528404e+24
2.455731135e+24
2.583130446e+24
2.433765761e+24
2.416193425e+24
2.442551919e+24
2.315152628e+24
2.339314543e+24
2.343707641e+24
2.126250232e+24
2.27122182e+24
2.293187233e+24
2.225094509e+24
2.253649504e+24
2.143822548e+24
2.038388652e+24
2.119660595e+24
2.014226717e+24
1.996654401e+24
2.020816319e+24
2.058157507e+24
2.0911056e+24
2.014226701e+24
2.130643311e+24
2.012030178e+24
1.97688553e+24
2.17677064e+24
2.293187233e+24
2.051567872e+24
2.315152628e+24
2.323938786e+24
2.251452964e+24
2.547985815e+24
2.413996905e+24
2.446944978e+24
2.565558131e+24
2.337118023e+24
2.424979583e+24
2.367869576e+24
2.416193445e+24
2.22509449e+24
2.157001785e+24
2.26243568e+24
2.146019069e+24
2.293187233e+24
2.077926363e+24
2.167984464e+24
2.007637099e+24
1.992261322e+24
2.097695201e+24
2.207522193e+24
1.904399742e+24
2.020816319e+24
2.189949877e+24
2.0911056e+24
1.998850924e+24
1.994457862e+24
1.992261322e+24
2.06035403e+24
2.154805245e+24
2.183360258e+24
2.231684109e+24
2.317349168e+24
2.332724944e+24
2.350297241e+24
2.473303472e+24
2.493072327e+24
2.517234241e+24
2.312956089e+24
2.383245352e+24
2.378852254e+24
2.194342956e+24
2.288794154e+24
2.264632201e+24
2.244863364e+24
1.972492467e+24
2.066943648e+24
2.187753337e+24
1.880237808e+24
2.033995556e+24
2.060354047e+24
2.04717481e+24
2.053764411e+24
2.04497827e+24
2.08890906e+24
2.080122885e+24
2.113070994e+24
2.227291048e+24
1.972492451e+24
2.21850489e+24
2.148215627e+24
2.163591385e+24
2.126250232e+24
2.312956089e+24
2.341511083e+24
2.422783064e+24
2.409603826e+24
2.600702741e+24
2.499661946e+24
2.558968512e+24
2.567754649e+24
2.576540828e+24
2.446944998e+24
2.389834951e+24
2.411800366e+24
2.00324402e+24
2.06035403e+24
1.963706309e+24
1.996654401e+24
2.023012858e+24
2.150412166e+24
1.946133993e+24
1.950527056e+24
2.137232929e+24
1.952723611e+24
2.130643293e+24
2.012030178e+24
2.152608706e+24
2.130643293e+24
2.124053692e+24
2.113070994e+24
2.22729103e+24
2.242666825e+24
2.150412166e+24
2.181163701e+24
2.21850489e+24
2.288794154e+24
2.299776833e+24
2.444748458e+24
2.56775467e+24
2.389834951e+24
2.627061236e+24
2.547985815e+24
2.565558109e+24
2.429372682e+24
1.970295927e+24
2.181163701e+24
1.895613584e+24
1.842896637e+24
1.88902395e+24
2.095498678e+24
1.968099388e+24
1.943937437e+24
1.976885546e+24
2.04717481e+24
2.012030161e+24
2.038388652e+24
2.082319442e+24
2.003244003e+24
2.016423257e+24
2.185556798e+24
1.959313214e+24
2.207522193e+24
2.163591403e+24
2.216308333e+24
2.238273746e+24
2.187753337e+24
2.31295607e+24
2.225094509e+24
2.312956089e+24
2.468910372e+24
2.403014208e+24
2.493072327e+24
2.418389965e+24
2.642437013e+24
2.062550586e+24
2.075729806e+24
2.040585191e+24
2.042781731e+24
2.084515964e+24
1.983475164e+24
2.00104748e+24
1.950527056e+24
2.014226717e+24
1.906596282e+24
1.928561661e+24
1.91538244e+24
1.990064783e+24
2.036192095e+24
1.919775519e+24
2.00104748e+24
2.073533267e+24
1.974689006e+24
2.077926363e+24
2.038388635e+24
2.163591403e+24
2.121857153e+24
2.163591385e+24
2.192146416e+24
2.301973391e+24
2.282204517e+24
2.214111811e+24
2.312956089e+24
2.334921464e+24
2.43815884e+24
1.349333333e+24
1.373333333e+24
1.32e+24
1.202666667e+24
1.24e+24
1.205333333e+24
1.176e+24
1.093333333e+24
9.973333333e+23
8.853333333e+23
1.586666667e+24
1.549333333e+24
1.434666667e+24
1.450666667e+24
1.536e+24
1.589333333e+24
1.408e+24
1.370666667e+24
1.197333333e+24
1.112e+24
1.416e+24
1.376e+24
1.461333333e+24
1.509333333e+24
1.472e+24
1.429333333e+24
1.416e+24
1.352e+24
1.16e+24
1.034666667e+24
1.282666667e+24
1.266666667e+24
1.501333333e+24
1.456e+24
1.448e+24
1.405333333e+24
1.28e+24
1.365333333e+24
1.205333333e+24
1.138666667e+24
1.197333333e+24
1.288e+24
1.277333333e+24
1.352e+24
1.384e+24
1.357333333e+24
1.477333333e+24
1.293333333e+24
1.165333333e+24
1.242666667e+24
1.354666667e+24
1.32e+24
1.210666667e+24
1.381333333e+24
1.362666667e+24
1.288e+24
1.378666667e+24
1.242666667e+24
1.301333333e+24
1.325333333e+24
1.386666667e+24
1.296e+24
1.402666667e+24
1.341333333e+24
1.298666667e+24
1.36e+24
1.242666667e+24
1.293333333e+24
1.258666667e+24
1.293333333e+24
1.466666667e+24
1.405333333e+24
1.333333333e+24
1.282666667e+24
1.432e+24
1.373333333e+24
1.306666667e+24
1.341333333e+24
1.245333333e+24
1.298666667e+24
1.544e+24
1.546666667e+24
1.466666667e+24
1.434666667e+24
1.458666667e+24
1.381333333e+24
1.426666667e+24
1.312e+24
1.32e+24
1.269333333e+24
1.592e+24
1.584e+24
1.589333333e+24
1.578666667e+24
1.496e+24
1.594666667e+24
1.408e+24
1.344e+24
1.504e+24
1.354666667e+24
1.714666667e+24
1.690666667e+24
1.850666667e+24
1.664e+24
1.650666667e+24
1.528e+24
1.594666667e+24
1.632e+24
1.546666667e+24
1.509333333e+24
1.845333333e+24
1.866666667e+24
1.848e+24
1.733333333e+24
1.837333333e+24
1.821333333e+24
1.714666667e+24
1.741333333e+24
1.501333333e+24
1.632e+24
2.037333333e+24
2.088e+24
1.986666667e+24
1.88e+24
1.949333333e+24
1.856e+24
1.797333333e+24
1.92e+24
1.765333333e+24
1.768e+24
2.026666667e+24
2.088e+24
2.117333333e+24
2.122666667e+24
2.130666667e+24
2.010666667e+24
2.024e+24
2.034666667e+24
1.984e+24
1.984e+24
2.149333333e+24
2.085333333e+24
2.04e+24
2.144e+24
2.138666667e+24
2.024e+24
2.130666667e+24
2.061333333e+24
2e+24
2.056e+24
2.221333333e+24
2.194666667e+24
2.341333333e+24
2.224e+24
2.213333333e+24
2.112e+24
2.264e+24
2.168e+24
2.098666667e+24
2.085333333e+24
2.434666667e+24
2.464e+24
2.354666667e+24
2.293333333e+24
2.170666667e+24
2.405333333e+24
2.234666667e+24
2.234666667e+24
2.274666667e+24
2.314666667e+24
2.456e+24
2.378666667e+24
2.464e+24
2.448e+24
2.472e+24
2.490666667e+24
2.392e+24
2.330666667e+24
2.386666667e+24
2.354666667e+24
2.410666667e+24
2.370666667e+24
2.445333333e+24
2.434666667e+24
2.450666667e+24
2.362666667e+24
2.514666667e+24
2.282666667e+24
2.536e+24
2.477333333e+24
2.458666667e+24
2.392e+24
2.434666667e+24
2.448e+24
2.296e+24
2.36e+24
2.312e+24
2.44e+24
2.352e+24
2.472e+24
1.039542034e+24
1.295469882e+24
1.158271454e+24
1.182017338e+24
1.113418106e+24
1.160909885e+24
1.200486359e+24
1.042180455e+24
1.131887138e+24
1.303385189e+24
1.250616546e+24
1.192571064e+24
1.195209495e+24
1.197847915e+24
1.171463611e+24
1.226870674e+24
1.232147525e+24
1.284916168e+24
1.255893421e+24
1.184655758e+24
1.303385189e+24
1.311300484e+24
1.342961649e+24
1.353515389e+24
1.279639305e+24
1.403645575e+24
1.411560883e+24
1.398368725e+24
1.43002989e+24
1.316577347e+24
1.180758915e+24
1.501139876e+24
1.446881822e+24
1.464967845e+24
1.467551548e+24
1.299609922e+24
1.330614533e+24
1.44429809e+24
1.550230523e+24
1.498556173e+24
1.555397943e+24
1.483053867e+24
1.516642195e+24
1.514058463e+24
1.485637585e+24
1.508891043e+24
1.415877198e+24
1.588986287e+24
1.539895653e+24
1.452049243e+24
1.63807692e+24
1.563149111e+24
1.576067684e+24
1.676832683e+24
1.583818851e+24
1.715588429e+24
1.728507033e+24
1.800851125e+24
1.782765085e+24
1.619990897e+24
1.027678025e+24
1.447861638e+24
1.468111465e+24
1.506079865e+24
1.609860143e+24
1.349143812e+24
1.387112212e+24
1.430143051e+24
1.394705892e+24
1.447861652e+24
1.432674278e+24
1.308644185e+24
1.440267972e+24
1.440267958e+24
1.516204772e+24
1.569360532e+24
1.407362012e+24
1.485830052e+24
1.508611092e+24
1.404830785e+24
1.468111465e+24
1.521267225e+24
1.57442297e+24
1.465580238e+24
1.569360532e+24
1.619985049e+24
1.733890264e+24
1.695921865e+24
1.756671288e+24
1.437736745e+24
1.091563498e+24
1.416551709e+24
1.468649071e+24
1.525708072e+24
1.391743448e+24
1.297472067e+24
1.349569416e+24
1.349569404e+24
1.406628417e+24
1.304914546e+24
1.386781795e+24
1.322280329e+24
1.349569416e+24
1.30739536e+24
1.461206592e+24
1.478572375e+24
1.414070883e+24
1.483534027e+24
1.374377678e+24
1.342126925e+24
1.396705113e+24
1.463687419e+24
1.545554666e+24
1.595171203e+24
1.471129897e+24
1.473610709e+24
1.709289205e+24
1.662153509e+24
1.761386538e+24
1.523227245e+24
1.062955968e+24
1.364572751e+24
1.40349106e+24
1.388896699e+24
1.39132908e+24
1.420517815e+24
1.189440431e+24
1.367005145e+24
1.311060107e+24
1.393761486e+24
1.308627701e+24
1.291600958e+24
1.357275583e+24
1.211331961e+24
1.432679783e+24
1.349978403e+24
1.384031899e+24
1.340248829e+24
1.388896699e+24
1.277006586e+24
1.342681222e+24
1.332951648e+24
1.337816423e+24
1.454571324e+24
1.508083982e+24
1.549434657e+24
1.615109296e+24
1.644298019e+24
1.632136036e+24
1.512948769e+24
1.035444044e+24
1.333671004e+24
1.247781648e+24
1.381387331e+24
1.316970294e+24
1.293112148e+24
1.250167464e+24
1.295497952e+24
1.316970305e+24
1.367072437e+24
1.307427031e+24
1.338442647e+24
1.250167464e+24
1.17859298e+24
1.355143358e+24
1.357529173e+24
1.331285188e+24
1.417174568e+24
1.350371726e+24
1.276411426e+24
1.297883779e+24
1.326513568e+24
1.295497952e+24
1.309812858e+24
1.443418541e+24
1.553166053e+24
1.436261094e+24
1.627126356e+24
1.622354709e+24
1.62474054e+24
9.387363221e+23
1.289884561e+24
1.315635444e+24
1.374160152e+24
1.280520608e+24
1.259451724e+24
1.161130214e+24
1.212631947e+24
1.170494167e+24
1.219654922e+24
1.203267993e+24
1.264133701e+24
1.221995911e+24
1.275838631e+24
1.308612479e+24
1.360114222e+24
1.310953456e+24
1.306271491e+24
1.334363351e+24
1.37416014e+24
1.376501141e+24
1.324999397e+24
1.327340374e+24
1.376501141e+24
1.437366837e+24
1.460776708e+24
1.472481663e+24
1.580167126e+24
1.755741235e+24
1.652737764e+24
9.030410472e+23
1.217841605e+24
1.185672215e+24
1.291371676e+24
1.164991875e+24
1.164991885e+24
1.09375964e+24
1.006442685e+24
1.254606646e+24
1.153502813e+24
1.135120289e+24
1.185672215e+24
1.289073861e+24
1.187970019e+24
1.25690446e+24
1.162694071e+24
1.227032863e+24
1.178778771e+24
1.171885328e+24
1.263797892e+24
1.215543801e+24
1.275286975e+24
1.254606635e+24
1.30975419e+24
1.286776047e+24
1.346519209e+24
1.410858023e+24
1.525748741e+24
1.64293726e+24
1.560215957e+24
8.663823548e+23
1.20932536e+24
1.062672107e+24
1.017548026e+24
1.026572834e+24
1.128102024e+24
1.105539984e+24
1.193531932e+24
1.080721739e+24
1.152920269e+24
1.114564791e+24
1.10328378e+24
1.143895453e+24
1.134870627e+24
1.245424635e+24
1.254449451e+24
1.227374992e+24
1.168713697e+24
1.238656023e+24
1.159688871e+24
1.243168431e+24
1.193531942e+24
1.272499073e+24
1.340185205e+24
1.29280492e+24
1.33792899e+24
1.37628447e+24
1.439458183e+24
1.665078574e+24
1.662822384e+24
7.689776563e+23
1.143494142e+24
9.462635713e+23
1.010529715e+24
1.010529707e+24
1.050419046e+24
1.039338677e+24
1.105820886e+24
1.048202972e+24
1.072579786e+24
1.099172664e+24
1.114685191e+24
1.127981634e+24
1.19889599e+24
1.026042233e+24
1.1479263e+24
1.114685181e+24
1.094740525e+24
1.123549486e+24
1.174519177e+24
1.198896e+24
1.094740525e+24
1.163438808e+24
1.150142374e+24
1.318563993e+24
1.214408508e+24
1.342940806e+24
1.416071246e+24
1.546819596e+24
1.544603534e+24
)
;

boundaryField
{
    inlet
    {
        type            calculated;
        value           nonuniform List<scalar> 
20
(
3.786666667e+23
4.453333333e+23
2.266666667e+23
1.306666667e+23
8e+22
6.933333333e+22
4e+22
4e+22
2.133333333e+22
1.866666667e+22
1.6e+22
1.866666667e+22
8e+21
1.066666667e+22
8e+21
8e+21
1.333333333e+22
5.333333333e+21
5.333333333e+21
5.333333333e+21
)
;
    }
    outlet
    {
        type            calculated;
        value           nonuniform List<scalar> 
70
(
8.853333333e+23
1.112e+24
1.034666667e+24
1.138666667e+24
1.242666667e+24
1.325333333e+24
1.293333333e+24
1.298666667e+24
1.269333333e+24
1.354666667e+24
1.509333333e+24
1.632e+24
1.768e+24
1.984e+24
2.056e+24
2.085333333e+24
2.314666667e+24
2.354666667e+24
2.477333333e+24
2.472e+24
5.333333333e+21
2.4e+22
1.008e+24
3.997333333e+24
1.717333333e+24
1.061333333e+24
2.021333333e+24
2.608e+24
1.933333333e+24
1.813333333e+24
2.062550586e+24
2.075729806e+24
2.040585191e+24
2.042781731e+24
2.084515964e+24
1.983475164e+24
2.00104748e+24
1.950527056e+24
2.014226717e+24
1.906596282e+24
1.928561661e+24
1.91538244e+24
1.990064783e+24
2.036192095e+24
1.919775519e+24
2.00104748e+24
2.073533267e+24
1.974689006e+24
2.077926363e+24
2.038388635e+24
2.163591403e+24
2.121857153e+24
2.163591385e+24
2.192146416e+24
2.301973391e+24
2.282204517e+24
2.214111811e+24
2.312956089e+24
2.334921464e+24
2.43815884e+24
2.458666667e+24
2.392e+24
2.434666667e+24
2.448e+24
2.296e+24
2.36e+24
2.312e+24
2.44e+24
2.352e+24
2.472e+24
)
;
    }
    wall
    {
        type            calculated;
        value           uniform 6.666666667e-301;
    }
    frontAndBack
    {
        type            empty;
    }
}


// ************************************************************************* //
