/*--------------------------------*- C++ -*----------------------------------*\
| =========                 |                                                 |
| \\      /  F ield         | OpenFOAM: The Open Source CFD Toolbox           |
|  \\    /   O peration     | Version:  v1912                                 |
|   \\  /    A nd           | Website:  www.openfoam.com                      |
|    \\/     M anipulation  |                                                 |
\*---------------------------------------------------------------------------*/
FoamFile
{
    version     2.0;
    format      ascii;
    class       volScalarField;
    location    "1.34";
    object      p;
}
// * * * * * * * * * * * * * * * * * * * * * * * * * * * * * * * * * * * * * //

dimensions      [1 -1 -2 0 0 0 0];


internalField   nonuniform List<scalar> 
1900
(
9999.98
10000.1
10005.8
10060.4
10227
10448.5
10613.1
10712.8
10735.3
10759.4
9999.98
10000.1
10005.8
10060.2
10226.5
10447.4
10611.2
10702.3
10713.6
10724.6
9999.98
10000.1
10005.8
10060.1
10226.1
10446.4
10609.5
10698.5
10718.4
10724.3
9999.98
10000.1
10005.8
10060.2
10226.5
10447.4
10611.2
10702.3
10713.6
10724.6
9999.98
10000.1
10005.8
10060.4
10227
10448.5
10613.1
10712.8
10735.3
10759.4
10683
10708.5
10688.7
10604.6
9981.15
10718.4
10732.3
10697
10672.9
10378.5
10714.8
10717.4
10675.1
10624.1
10319.3
10718.4
10732.3
10697
10672.9
10378.5
10683
10708.5
10688.7
10604.6
9981.15
11517.9
11455.3
11649.2
11716.3
12017.7
11373.1
11430.2
11645.2
11792.6
11751.2
11368.5
11436.6
11635.9
11750.3
11459.7
11373.1
11430.2
11645.2
11792.6
11751.2
11517.9
11455.3
11649.2
11716.3
12017.7
10288.9
5778.22
6221.15
6287.16
6341.8
6670.47
7071.07
7617.7
8235.16
8868.86
9437.03
9822.92
9974.63
9998.9
9999.99
10000
10000
10000
10000
10000
10000
10000
10000
10000
10000
9999.99
9998.68
9970.61
9800.45
9376.79
8758.89
8065.44
7369.03
6704.28
6090.65
5545.17
5079.67
4701.93
4178.13
15221.9
10442.4
6111.65
6399.45
6318.94
6349.81
6687.7
7070.08
7617.81
8235.98
8869.96
9437.87
9823.32
9974.72
9998.91
9999.99
10000
10000
10000
10000
10000
10000
10000
10000
10000
10000
9999.99
9998.68
9970.61
9800.45
9376.79
8758.89
8065.44
7369.03
6704.28
6090.65
5545.17
5079.67
4701.93
4178.13
15221.9
9961.14
6605.88
6477.26
6334.89
6355.1
6690.02
7070.72
7617.94
8236.2
8870.31
9438.18
9823.48
9974.76
9998.91
9999.99
10000
10000
10000
10000
10000
10000
10000
10000
10000
10000
9999.99
9998.68
9970.61
9800.45
9376.79
8758.89
8065.44
7369.03
6704.28
6090.65
5545.17
5079.67
4701.93
4178.13
15221.9
10442.4
6111.65
6399.45
6318.94
6349.81
6687.7
7070.08
7617.81
8235.98
8869.96
9437.87
9823.32
9974.72
9998.91
9999.99
10000
10000
10000
10000
10000
10000
10000
10000
10000
10000
9999.99
9998.68
9970.61
9800.45
9376.79
8758.89
8065.44
7369.03
6704.28
6090.65
5545.17
5079.67
4701.93
4178.13
15221.9
10288.9
5778.22
6221.15
6287.16
6341.8
6670.47
7071.07
7617.7
8235.16
8868.86
9437.03
9822.92
9974.63
9998.9
9999.99
10000
10000
10000
10000
10000
10000
10000
10000
10000
10000
9999.99
9998.68
9970.61
9800.45
9376.79
8758.89
8065.44
7369.03
6704.28
6090.65
5545.17
5079.67
4701.93
4178.13
15221.9
12057.5
5191.73
5946.81
6148.29
6308.39
6623.76
7062.61
7612.87
8230.7
8864.27
9433.23
9820.96
9974.19
9998.87
9999.99
10000
10000
10000
10000
10000
10000
10000
10000
10000
10000
9999.99
9998.68
9970.61
9800.45
9376.79
8758.89
8065.44
7369.03
6704.28
6090.65
5545.17
5079.67
4701.93
4178.13
15221.9
13277.4
4623.99
5566.68
5894.43
6188.3
6545.98
7028.74
7592.46
8215.32
8851.52
9424.24
9816.83
9973.33
9998.82
9999.99
10000
10000
10000
10000
10000
10000
10000
10000
10000
10000
9999.99
9998.68
9970.61
9800.45
9376.79
8758.89
8065.44
7369.03
6704.28
6090.65
5545.17
5079.67
4701.93
4178.13
15221.9
14673.3
4490.06
5365.04
5720.55
6064.45
6471.26
6978.7
7558.17
8189.96
8832.99
9412.7
9812.01
9972.39
9998.77
9999.99
10000
10000
10000
10000
10000
10000
10000
10000
10000
10000
9999.99
9998.68
9970.61
9800.45
9376.79
8758.89
8065.44
7369.03
6704.28
6090.65
5545.17
5079.67
4701.93
4178.13
15221.9
15733.7
4430.88
5213.63
5574.72
5946.26
6391.15
6920.44
7516.69
8159.79
8812.32
9400.9
9807.51
9971.57
9998.72
9999.99
10000
10000
10000
10000
10000
10000
10000
10000
10000
10000
9999.99
9998.68
9970.61
9800.45
9376.79
8758.89
8065.44
7369.03
6704.28
6090.65
5545.17
5079.67
4701.93
4178.13
15221.9
16087.6
4394.63
5103.56
5448.18
5839.75
6311.51
6861.09
7473.53
8129.29
8792.75
9390.73
9804.02
9971
9998.69
9999.99
10000
10000
10000
10000
10000
10000
10000
10000
10000
10000
9999.99
9998.68
9970.61
9800.45
9376.79
8758.89
8065.44
7369.03
6704.28
6090.65
5545.17
5079.67
4701.93
4178.13
15221.9
16075.8
4372.98
4992.43
5329.21
5742.9
6236.33
6804.71
7432.78
8101.53
8775.77
9382.59
9801.6
9970.61
9998.59
9999.9
9999.91
9999.91
9999.91
9999.91
9999.91
9999.91
9999.91
9999.91
9999.91
9999.91
9999.9
9998.59
9970.52
9800.36
9376.71
8758.82
8065.38
7368.98
6704.25
6090.63
5545.16
5079.66
4701.92
4178.13
15221.9
15907
4339.52
4873.6
5220.87
5651.87
6162.03
6746.36
7392.08
8076.03
8761.57
9374.49
9795.9
9965.61
9993.66
9994.97
9994.98
9994.98
9994.98
9994.98
9994.98
9994.98
9994.98
9994.98
9994.98
9994.98
9994.97
9993.67
9965.61
9795.57
9372.22
8754.82
8061.97
7366.21
6702.08
6089
5543.96
5078.81
4701.32
4177.9
15221.7
15622.1
4260.85
4748.02
5113.88
5564.05
6093.94
6692.81
7341.19
8023.4
8705.89
9316.09
9735.28
9903.93
9931.78
9933.08
9933.09
9933.09
9933.09
9933.09
9933.09
9933.09
9933.09
9933.09
9933.09
9933.09
9933.08
9931.78
9903.96
9735.25
9315.28
8703.06
8016.43
7327.28
6669.65
6062.6
5522.81
5062.28
4688.07
4171.68
15211.7
15246.5
4163.95
4643.8
4999.09
5432.95
5946
6526.01
7157.48
7821.59
8485.63
9079.23
9486.75
9650.32
9677.24
9678.49
9678.5
9678.5
9678.5
9678.5
9678.5
9678.5
9678.5
9678.5
9678.5
9678.5
9678.49
9677.24
9650.34
9486.88
9079.54
8485.86
7820.72
7154
6518.47
5932.42
5411.59
4968.23
4606.57
4122.98
15087.3
14624.4
3982.9
4408.12
4746.24
5158.85
5646.97
6198.19
6797.9
7427.91
8056.81
8618.07
9002.26
9155.59
9180.6
9181.75
9181.76
9181.76
9181.76
9181.76
9181.76
9181.76
9181.76
9181.76
9181.76
9181.76
9181.75
9180.6
9155.6
9002.32
8618.35
8057.47
7428.97
6799.46
6200.09
5648.29
5158.66
4742.9
4402.02
3971.82
14565.8
13536.2
3711.51
4100.95
4418.27
4804.54
5259.53
5772.94
6331.34
6918.07
7503.35
8024.24
8378.56
8518.31
8540.7
8541.71
8541.71
8541.71
8541.71
8541.71
8541.71
8541.71
8541.71
8541.71
8541.71
8541.71
8541.71
8540.7
8518.31
8378.58
8024.36
7503.7
6918.82
6332.68
5774.82
5261.77
4806.98
4420.69
4103.33
3713.21
13529.4
12181.8
3394.29
3766.75
4060.63
4419.25
4839.99
5315.12
5831.36
6373.73
6913.94
7392.54
7714.66
7839.27
7858.66
7859.49
7859.5
7859.5
7859.5
7859.5
7859.5
7859.5
7859.5
7859.5
7859.5
7859.5
7859.49
7858.66
7839.27
7714.66
7392.56
6914.06
6374.05
5831.98
5316.07
4841.31
4420.97
4062.76
3769.02
3396.11
12182.4
10793.5
3066.99
3432.75
3704.96
4036.03
4425.12
4862.95
5339.09
5838.57
6335.05
6772.06
7061.84
7170.91
7187.2
7187.87
7187.87
7187.87
7187.87
7187.87
7187.87
7187.87
7187.87
7187.87
7187.87
7187.87
7187.87
7187.2
7170.91
7061.84
6772.06
6335.06
5838.64
5339.24
4863.22
4425.55
4036.66
3705.82
3433.69
3067.7
10794.5
9387.22
2755.36
3115.97
3367.77
3674.07
4030.62
4436.22
4873.94
5333.64
5788.8
6186.2
6444.68
6538.62
6551.94
6552.44
6552.45
6552.45
6552.45
6552.45
6552.45
6552.45
6552.45
6552.45
6552.45
6552.45
6552.44
6551.94
6538.62
6444.68
6186.19
5788.8
5333.63
4873.94
4436.24
4030.68
3674.19
3367.94
3116.15
2755.48
9387.48
8208.81
2472.84
2819.61
3058.89
3338.38
3670.4
4042.61
4448.25
4871.3
5288.81
5649.25
5878.18
5957.92
5968.52
5968.89
5968.9
5968.9
5968.9
5968.9
5968.9
5968.9
5968.9
5968.9
5968.9
5968.9
5968.89
5968.52
5957.92
5878.18
5649.25
5288.81
4871.29
4448.23
4042.6
3670.39
3338.36
3058.87
2819.6
2472.84
8208.84
7032.91
2243.36
2562.31
2792.75
3049.86
3349.57
3697.14
4070.95
4462.64
4846.41
5173.61
5375.78
5442.88
5451.21
5451.47
5451.47
5451.47
5451.47
5451.47
5451.47
5451.47
5451.47
5451.47
5451.47
5451.47
5451.47
5451.21
5442.88
5375.78
5173.61
4846.41
4462.64
4070.94
3697.13
3349.55
3049.84
2792.73
2562.28
2243.35
7032.9
6191.16
2048.03
2341.49
2559.87
2803.53
3081.36
3402.18
3751.27
4116.03
4472.1
4770.96
4949.32
5005.11
5011.46
5011.65
5011.65
5011.65
5011.65
5011.65
5011.65
5011.65
5011.65
5011.65
5011.65
5011.65
5011.65
5011.46
5005.11
4949.32
4770.96
4472.09
4116.03
3751.27
3402.17
3081.36
2803.52
2559.86
2341.48
2048.03
6191.16
5444.79
1892.39
2146
2348.45
2581.55
2852.97
3163.39
3492.39
3835.41
4168.41
4445.25
4606.2
4653.96
4658.96
4659.09
4659.09
4659.09
4659.09
4659.09
4659.09
4659.09
4659.09
4659.09
4659.09
4659.09
4659.09
4658.96
4653.96
4606.2
4445.25
4168.41
3835.41
3492.39
3163.39
2852.97
2581.55
2348.45
2145.99
1892.39
5444.79
4807.11
1657.38
1897.02
2057.71
2264.14
2506.63
2801.85
3127.35
3462.78
3771.99
4000.77
4112.01
4138.54
4140.74
4140.78
4140.78
4140.78
4140.78
4140.78
4140.78
4140.78
4140.78
4140.78
4140.78
4140.78
4140.78
4140.74
4138.54
4112.01
4000.77
3771.99
3462.78
3127.35
2801.85
2506.63
2264.14
2057.71
1897.02
1657.38
4807.11
22219.8
4902.99
5564.57
6374.83
7278.69
8548.35
9811.68
11298.5
12752.6
14084.8
14994.5
15358.2
15419
15422
15422.1
15422.1
15422.1
15422.1
15422.1
15422.1
15422.1
15422.1
15422.1
15422.1
15422.1
15422.1
15422
15419
15358.2
14994.5
14084.8
12752.6
11298.5
9811.68
8548.35
7278.69
6374.83
5564.57
4902.99
22219.8
22219.8
4902.99
5564.57
6374.83
7278.69
8548.35
9811.68
11298.5
12752.6
14084.8
14994.5
15358.2
15419
15422
15422.1
15422.1
15422.1
15422.1
15422.1
15422.1
15422.1
15422.1
15422.1
15422.1
15422.1
15422.1
15422
15419
15358.2
14994.5
14084.8
12752.6
11298.5
9811.68
8548.35
7278.69
6374.83
5564.57
4902.99
22219.8
4807.11
1657.38
1897.02
2057.71
2264.14
2506.63
2801.85
3127.35
3462.78
3771.99
4000.77
4112.01
4138.54
4140.74
4140.78
4140.78
4140.78
4140.78
4140.78
4140.78
4140.78
4140.78
4140.78
4140.78
4140.78
4140.78
4140.74
4138.54
4112.01
4000.77
3771.99
3462.78
3127.35
2801.85
2506.63
2264.14
2057.71
1897.02
1657.38
4807.11
5444.79
1892.39
2146
2348.45
2581.55
2852.97
3163.39
3492.39
3835.41
4168.41
4445.25
4606.2
4653.96
4658.96
4659.09
4659.09
4659.09
4659.09
4659.09
4659.09
4659.09
4659.09
4659.09
4659.09
4659.09
4659.09
4658.96
4653.96
4606.2
4445.25
4168.41
3835.41
3492.39
3163.39
2852.97
2581.55
2348.45
2145.99
1892.39
5444.79
6191.16
2048.03
2341.49
2559.87
2803.53
3081.36
3402.18
3751.27
4116.03
4472.1
4770.96
4949.32
5005.11
5011.46
5011.65
5011.65
5011.65
5011.65
5011.65
5011.65
5011.65
5011.65
5011.65
5011.65
5011.65
5011.65
5011.46
5005.11
4949.32
4770.96
4472.09
4116.03
3751.27
3402.17
3081.36
2803.52
2559.86
2341.48
2048.03
6191.16
7032.91
2243.36
2562.31
2792.75
3049.86
3349.57
3697.14
4070.95
4462.64
4846.41
5173.61
5375.78
5442.88
5451.21
5451.47
5451.47
5451.47
5451.47
5451.47
5451.47
5451.47
5451.47
5451.47
5451.47
5451.47
5451.47
5451.21
5442.88
5375.78
5173.61
4846.41
4462.64
4070.94
3697.13
3349.55
3049.84
2792.73
2562.28
2243.35
7032.9
8208.81
2472.84
2819.61
3058.89
3338.38
3670.4
4042.61
4448.25
4871.3
5288.81
5649.25
5878.18
5957.92
5968.52
5968.89
5968.9
5968.9
5968.9
5968.9
5968.9
5968.9
5968.9
5968.9
5968.9
5968.9
5968.89
5968.52
5957.92
5878.18
5649.25
5288.81
4871.29
4448.23
4042.6
3670.39
3338.36
3058.87
2819.6
2472.84
8208.84
9387.22
2755.36
3115.97
3367.77
3674.07
4030.62
4436.22
4873.94
5333.64
5788.8
6186.2
6444.68
6538.62
6551.94
6552.44
6552.45
6552.45
6552.45
6552.45
6552.45
6552.45
6552.45
6552.45
6552.45
6552.45
6552.44
6551.94
6538.62
6444.68
6186.19
5788.8
5333.63
4873.94
4436.24
4030.68
3674.19
3367.94
3116.15
2755.48
9387.48
10793.5
3066.99
3432.75
3704.96
4036.03
4425.12
4862.95
5339.09
5838.57
6335.05
6772.06
7061.84
7170.91
7187.2
7187.87
7187.87
7187.87
7187.87
7187.87
7187.87
7187.87
7187.87
7187.87
7187.87
7187.87
7187.87
7187.2
7170.91
7061.84
6772.06
6335.06
5838.64
5339.24
4863.22
4425.55
4036.66
3705.82
3433.69
3067.7
10794.5
12181.8
3394.29
3766.75
4060.63
4419.25
4839.99
5315.12
5831.36
6373.73
6913.94
7392.54
7714.66
7839.27
7858.66
7859.49
7859.5
7859.5
7859.5
7859.5
7859.5
7859.5
7859.5
7859.5
7859.5
7859.5
7859.49
7858.66
7839.27
7714.66
7392.56
6914.06
6374.05
5831.98
5316.07
4841.31
4420.97
4062.76
3769.02
3396.11
12182.4
13536.2
3711.51
4100.95
4418.27
4804.54
5259.53
5772.94
6331.34
6918.07
7503.35
8024.24
8378.56
8518.31
8540.7
8541.71
8541.71
8541.71
8541.71
8541.71
8541.71
8541.71
8541.71
8541.71
8541.71
8541.71
8541.71
8540.7
8518.31
8378.58
8024.36
7503.7
6918.82
6332.68
5774.82
5261.77
4806.98
4420.69
4103.33
3713.21
13529.4
14624.4
3982.9
4408.12
4746.24
5158.85
5646.97
6198.19
6797.9
7427.91
8056.81
8618.07
9002.26
9155.59
9180.6
9181.75
9181.76
9181.76
9181.76
9181.76
9181.76
9181.76
9181.76
9181.76
9181.76
9181.76
9181.75
9180.6
9155.6
9002.32
8618.35
8057.47
7428.97
6799.46
6200.09
5648.29
5158.66
4742.9
4402.02
3971.82
14565.8
15246.5
4163.95
4643.8
4999.09
5432.95
5946
6526.01
7157.48
7821.59
8485.63
9079.23
9486.75
9650.32
9677.24
9678.49
9678.5
9678.5
9678.5
9678.5
9678.5
9678.5
9678.5
9678.5
9678.5
9678.5
9678.49
9677.24
9650.34
9486.88
9079.54
8485.86
7820.72
7154
6518.47
5932.42
5411.59
4968.23
4606.57
4122.98
15087.3
15622.1
4260.85
4748.02
5113.88
5564.05
6093.94
6692.81
7341.19
8023.4
8705.89
9316.09
9735.28
9903.93
9931.78
9933.08
9933.09
9933.09
9933.09
9933.09
9933.09
9933.09
9933.09
9933.09
9933.09
9933.09
9933.08
9931.78
9903.96
9735.25
9315.28
8703.06
8016.43
7327.28
6669.65
6062.6
5522.81
5062.28
4688.07
4171.68
15211.7
15907
4339.52
4873.6
5220.87
5651.87
6162.03
6746.36
7392.08
8076.03
8761.57
9374.49
9795.9
9965.61
9993.66
9994.97
9994.98
9994.98
9994.98
9994.98
9994.98
9994.98
9994.98
9994.98
9994.98
9994.98
9994.97
9993.67
9965.61
9795.57
9372.22
8754.82
8061.97
7366.21
6702.08
6089
5543.96
5078.81
4701.32
4177.9
15221.7
16075.8
4372.98
4992.43
5329.21
5742.9
6236.33
6804.71
7432.78
8101.53
8775.77
9382.59
9801.6
9970.61
9998.59
9999.9
9999.91
9999.91
9999.91
9999.91
9999.91
9999.91
9999.91
9999.91
9999.91
9999.91
9999.9
9998.59
9970.52
9800.36
9376.71
8758.82
8065.38
7368.98
6704.25
6090.63
5545.16
5079.66
4701.92
4178.13
15221.9
16087.6
4394.63
5103.56
5448.18
5839.75
6311.51
6861.09
7473.53
8129.29
8792.75
9390.73
9804.02
9971
9998.69
9999.99
10000
10000
10000
10000
10000
10000
10000
10000
10000
10000
9999.99
9998.68
9970.61
9800.45
9376.79
8758.89
8065.44
7369.03
6704.28
6090.65
5545.17
5079.67
4701.93
4178.13
15221.9
15733.7
4430.88
5213.63
5574.72
5946.26
6391.15
6920.44
7516.69
8159.79
8812.32
9400.9
9807.51
9971.57
9998.72
9999.99
10000
10000
10000
10000
10000
10000
10000
10000
10000
10000
9999.99
9998.68
9970.61
9800.45
9376.79
8758.89
8065.44
7369.03
6704.28
6090.65
5545.17
5079.67
4701.93
4178.13
15221.9
14673.3
4490.06
5365.04
5720.55
6064.45
6471.26
6978.7
7558.17
8189.96
8832.99
9412.7
9812.01
9972.39
9998.77
9999.99
10000
10000
10000
10000
10000
10000
10000
10000
10000
10000
9999.99
9998.68
9970.61
9800.45
9376.79
8758.89
8065.44
7369.03
6704.28
6090.65
5545.17
5079.67
4701.93
4178.13
15221.9
13277.4
4623.99
5566.68
5894.43
6188.3
6545.98
7028.74
7592.46
8215.32
8851.52
9424.24
9816.83
9973.33
9998.82
9999.99
10000
10000
10000
10000
10000
10000
10000
10000
10000
10000
9999.99
9998.68
9970.61
9800.45
9376.79
8758.89
8065.44
7369.03
6704.28
6090.65
5545.17
5079.67
4701.93
4178.13
15221.9
12057.5
5191.73
5946.81
6148.29
6308.39
6623.76
7062.61
7612.87
8230.7
8864.27
9433.23
9820.96
9974.19
9998.87
9999.99
10000
10000
10000
10000
10000
10000
10000
10000
10000
10000
9999.99
9998.68
9970.61
9800.45
9376.79
8758.89
8065.44
7369.03
6704.28
6090.65
5545.17
5079.67
4701.93
4178.13
15221.9
)
;

boundaryField
{
    inlet
    {
        type            fixedValue;
        value           uniform 10000;
    }
    outlet
    {
        type            fixedValue;
        value           uniform 1000;
    }
    obstacle
    {
        type            zeroGradient;
    }
    empty
    {
        type            empty;
    }
}


// ************************************************************************* //
