/*--------------------------------*- C++ -*----------------------------------*\
| =========                 |                                                 |
| \\      /  F ield         | OpenFOAM: The Open Source CFD Toolbox           |
|  \\    /   O peration     | Version:  v1912                                 |
|   \\  /    A nd           | Website:  www.openfoam.com                      |
|    \\/     M anipulation  |                                                 |
\*---------------------------------------------------------------------------*/
FoamFile
{
    version     2.0;
    format      ascii;
    class       volScalarField;
    location    "0.1";
    object      p;
}
// * * * * * * * * * * * * * * * * * * * * * * * * * * * * * * * * * * * * * //

dimensions      [1 -1 -2 0 0 0 0];


internalField   nonuniform List<scalar> 
4800
(
1
1
1
1
1
1
1
1
1
1
1
1
1
1
1
1
1
1
1
1
1
1
1
1
1
1
1
1
1
1
1
1
1
1
1
1
1
1
1
1
1
1
1
1
1
1
1
1
1
1
1
1
1
1
1
1
1
1
1
1
1
1
1
1
1
1
1
1
1
1
1
1
1
1
1
1
1
1
1
1
1
1
1
1
1
1
1
1
1
1
1
1
1
1
1
1
1
1
1
1
1
1
1
1
1
1
1
1
1
1
1
1
1
1
1
1
1
1
1
1
1
1
1
1
1
1
1
1
1
1
1
1
1
1
1
1
1
1
1
1
1
1
1
1
1
1
1
1
1
1
1
1
1
1
1
1
1
1
1
1
1
1
1
1
1
1
1
1
1
1
1
1
1
1
1
1
1
1
1
1
1
1
1
1
1
1
1
1
1
1
1
1
1
1
1
1
1
1
1
1
1
1
1
1
1
1
1
1
1
1
1
1
1
1
1
1
1
1
1
1
1
1
1
1
1
1
1
1
1
1
1
1
1
1
1
1
1
1
1
1
1
1
1
1
1
1
1
1
1
1
1
1
1
1
1
1
1
1
1
1
1
1
1
1
1
1
1
1
1
1
1
1
1
1
1
1
1
1
1
1
1
1
1
1
1
1
1
1
1
1
1
1
1
1
1
1
1
1
1
1
1
1
1
1
1
1
1
1
1
1
1
1
1
1
1
1
1
1
1
1
1
1
1
1
1
1
1
1
1
1
1
1
1
1
1
1
1
1
1
1
1
1
1
1
1
1
1
1
1
1
1
1
1
1
1
1
1
1
1
1
1
1
1
1
1
1
1
1
1
1
1
1
1
1
1
1
1
1
1
1
1
1
1
1
1
1
1
1
1
1
1
1
1
1
1
1
1
1
1
1
1
1
1
1
1
1
1
1
1
1
1
1
1
1
1
1
1
1
1
1
1
1
1
1
1
1
1
1
1
1
1
1
1
1
1
1
1
1
1
1
1
1
1
1
1
1
1
1
1
1
1
1
1
1
1
1
1
1
1
1
1
1
1
1
1
1
1
1
1
1
1
1
1
1
1
1
1
1
1
1
1
1
1
1
1
1
1
1
1
1
1
1
1
1
1
1
1
1
1
1
1
1
1
1
1
1
1
1
1
1
1
1
1
1
1
1
1
1
1
1
1
1
1
1
1
1
1
1
1
1
1
1
1
1
1
1
1
1
1
1
1
1
1
1
1
1
1
1
1
1
1
1
1
1
1
1
1
1
1
1
1
1
1
1
1
1
1
1
1
1
1
1
1
1
1
1
1
1
1
1
1
1
1
1
1
1
1
1
1
1
1
1
1
1
1
1
1
1
1
1
1
1
1
1
1
1
1
1
1
1
1
1
1
1
1
1
1
1
1
1
1
1
1
1
1
1
1
1
1
1
1
1
1
1
1
1
1
1
1
1
1
1
1
1
1
1
1
1
1
1
1
1
1
1
1
1
1
1
1
1
1
1
1
1
1
1
1
1
1
1
1
1
1
1
1
1
1
1
1
1
1
1
1
1
1
1
1
1
1
1
1
1
1
1
1
1
1
1
1
1
1
1
1
1
1
1
1
1
1
1
1
1
1
1
1
1
1
1
1
1
1
1
1
1
1
1
1
1
1
1
1
1
1
1
1
1
1
1
1
1
1
1
1
1
1
1
1
1
1
1
1
1
1
1
1
1
1
1
1
1
1
1
1
1
1
1
1
1
1
1
1
1
1
1
1
1
1
1
1
1
1
1
1
1
1
1
1
1
1
1
1
1
1
1
1
1
1
1
1
1
1
1
1
1
1
1
1
1
1
1
1
1
1
1
1
1
1
1
1
1
1
1
1
1
1
1
1
1
1
1
1
1
1
1
1
1
1
1
1
1
1
1
1
1
1
1
1
1
1
1
1
1
1
1
1
1
1
1
1
1
1
1
1
1
1
1
1
1
1
1
1
1
1
1
1
1
1
1
1
1
1
1
1
1
1
1
1
1
1
1
1
1
1
1
1
1
1
1
1
1
1
1
1
1
1
1
1
1
1
1
1
1
1
1
1
1
1
1
1
1
1
1
1
1
1
1
1
1
1
1
1
1
1
1
1
1
1
1
1
1
1
1
1
1
1
1
1
1
1
1
1
1
1
1
1
1
1
1
1
1
1
1
1
1
1
1
1
1
1
1
1
1
1
1
1
1
1
1
1
1
1
1
1
1
1
1
1
1
1
1
1
1
1
1
1
1
1
1
1
1
1
1
1
1
1
1
1
1
1
1
1
1
1
1
1
1
1
1
1
1
1
1
1
1
1
1
1
1
1
1
1
1
1
1
1
1
1
1
1
1
1
1
1
1
1
1
1
1
1
1
1
1
1
1
1
1
1
1
1
1
1
1
1
1
1
1
1
1
1
1
1
1
1
1
1
1
1
1
1
1
1
1
1
1
1
1
1
1
1
1
1
1
1
1
1
1
1
1
1
1
1
1
1
1
1
1
1
1
1
1
1
1
1
1
1
1
1
1
1
1
1
1
1
1
1
1
1
1
1
1
1
1
1
1
1
1
1
1
1
1
1
1
1
1
1
1
1
1
1
1
1
1
1
1
1
1
1
1
1
1
1
1
1
1
1
1
1
1
1
1
1
1
1
1
1
1
1
1
1
1
1
1
1
1
1
1
1
1
1
1
1
1
1
1
1
1
1
1
1
1
1
1
1
1
1
1
1
1
1
1
1
1
1
1
1
1
1
1
1
1
1
1
1
1
1
1
1
1
1
1
1
1
1
1
1
1
1
1
1
1
1
1
1
1
1
1
1
1
1
1
1
1
1
1
1
1
1
1
1
1
1
1
1
1
1
1
1
1
1
1
1
1
1
1
1
1
1
1
1
1
1
1
1
1
1
1
1
1
1
1
1
1
1
1
1
1
1
1
1
1
1
1
1
1
1
1
1
1
1
1
1
1
1
1
1
1
1
1
1
1
1
1
1
1
1
1
1
1
1
1
1
1
1
1
1
1
1
1
1
1
1
1
1
1
1
1
1
1
1
1
1
1
1
1
1
1
1
1
1
1
1
1
1
1
1
1
1
1
1
1
1
1
1
1
1
1
1
1
1
1
1
1
1
1
1
1
1
1
1
1
1
1
1
1
1
1
1
1
1
1
1
1
1
1
1
1
1
1
1
1
1
1
1
1
1
1
1
1
1
1
1
1
1
1
1
1
1
1
1
1
1
1
1
1
1
1
1
1
1
1
1
1
1
1
1
1
1
1
1
1
1
1
1
1
1
1
1
1
1
1
1
1
1
1
1
1
1
1
1
1
1
1
1
1
1
1
1
1
1
1
1
1
1
1
1
1
1
1
1
1
1
1
1
1
1
1
1
1
1
1
1
1
1
1
1
1
1
1
1
1
1
1
1
1
1
1
1
1
1
1
1
1
1
1
1
1
1
1
1
1
1
1
1
1
1
1
1
1
1
1
1
1
1
1
1
1
1
1
1
1
1
1
1
1
1
1
1
1
1
1
1
1
1
1
1
1
1
1
1
1
1
1
1
1
1
1
1
1
1
1
1
1
1
1
1
1
1
1
1
1
1
1
1
1
1
1
1
1
1
1
1.26148
1.67374
2.20057
2.73028
3.27612
4.01309
4.71056
5.1019
5.49344
6.20226
6.7759
6.72485
6.69882
6.80088
6.74354
6.48225
6.00731
5.46057
4.95808
4.71892
4.60539
4.51525
4.42496
4.39626
4.39858
4.41373
4.46128
4.52146
4.59002
4.65696
4.70475
4.73779
4.74038
4.72439
4.71269
4.72513
4.74435
4.74639
4.73741
4.72156
4.71613
4.72833
4.76008
4.78292
4.79341
4.79282
4.78866
4.78473
4.77933
4.76528
4.73662
4.71113
4.70476
4.7095
4.73224
4.77251
4.80383
4.82001
4.8244
4.82201
4.80919
4.7928
4.77414
4.75123
4.73306
4.72407
4.72192
4.72474
4.73401
4.74785
4.77098
4.79822
4.82431
4.84515
4.85254
4.85095
4.84235
4.82655
4.80241
4.77248
1
0.999396
0.998743
1.04139
1.10019
1.16099
1.35778
1.69431
1.99215
2.33283
2.86558
3.42088
3.72771
4.21655
4.61343
4.72743
4.85691
5.04264
5.12761
5.1498
5.04551
4.969
4.95399
4.91938
4.82716
4.72341
4.66969
4.61975
4.58936
4.57612
4.58815
4.62941
4.67529
4.68501
4.69871
4.72801
4.74543
4.74464
4.74121
4.73719
4.7316
4.73137
4.73589
4.73845
4.74494
4.76312
4.78108
4.78473
4.78342
4.7758
4.76398
4.75326
4.74431
4.74433
4.75074
4.75498
4.75562
4.75978
4.76625
4.77154
4.77795
4.78152
4.78255
4.78352
4.78465
4.78435
4.782
4.77591
4.76755
4.76552
4.7666
4.77087
4.77792
4.78891
4.80201
4.80948
4.8107
4.80737
4.79493
4.78445
1
1
1
1
1
0.999996
1
0.999977
1.0001
1.01159
1.06126
1.23622
1.49262
1.89161
2.61255
3.40576
4.38507
4.96957
5.29276
5.55744
5.53699
5.43887
5.36131
5.28972
5.19337
4.97309
4.77272
4.64875
4.57207
4.56735
4.57996
4.61261
4.64672
4.66546
4.68421
4.71019
4.7335
4.7487
4.75387
4.75612
4.75827
4.75513
4.7413
4.7266
4.72086
4.72451
4.73977
4.76218
4.78062
4.7875
4.78535
4.78117
4.78337
4.78413
4.78044
4.76556
4.74895
4.73313
4.71988
4.71741
4.72461
4.7477
4.77964
4.80525
4.81766
4.82195
4.82249
4.8187
4.80546
4.78809
4.7772
4.76958
4.76712
4.76534
4.76338
4.76514
4.76934
4.77326
4.7788
4.79023
1
1
1
1
1
1
1
1
1
1
1
1
0.999884
0.999077
1.03215
1.1858
1.51644
2.25198
3.05137
4.01897
4.54147
4.75733
4.99984
4.96872
4.95528
5.01575
5.05157
5.02195
4.89884
4.81749
4.7841
4.75182
4.69279
4.60863
4.57675
4.58047
4.60785
4.6635
4.7338
4.77178
4.7789
4.77844
4.76653
4.73868
4.70775
4.698
4.70165
4.7169
4.73876
4.7638
4.79301
4.81191
4.81804
4.81625
4.80549
4.78768
4.76741
4.74386
4.72149
4.711
4.71127
4.71822
4.73872
4.77454
4.81357
4.83932
4.84543
4.84139
4.82724
4.80369
4.77911
4.76837
4.76189
4.75602
4.75464
4.75766
4.75921
4.75982
4.76321
4.77279
1
1
1
1
1
1
1
1
1
1
1
1
1
1
1
1
0.999189
1.01355
1.11051
1.35349
1.99158
2.7146
3.58331
4.19459
4.59818
5.0832
5.18232
5.1635
5.14708
5.09506
5.02531
4.88671
4.74588
4.62172
4.58539
4.58781
4.60718
4.64863
4.69653
4.74376
4.7697
4.77276
4.76763
4.74678
4.71932
4.71336
4.71811
4.72553
4.73333
4.74315
4.76077
4.78131
4.79484
4.80315
4.8046
4.79622
4.77908
4.76226
4.74955
4.7374
4.73113
4.73233
4.73885
4.75082
4.76854
4.78941
4.80482
4.80998
4.80693
4.79262
4.78066
4.77965
4.781
4.78165
4.78213
4.78276
4.7816
4.778
4.77489
4.77411
1
1
1
1
1
1
1
1
1
1
1
1
1
1
1
1
1
1
1
0.999413
1.00608
1.058
1.21409
1.74986
2.40591
3.23656
3.85272
4.299
4.72085
4.83586
4.87434
4.91042
4.88366
4.80524
4.7523
4.73235
4.70982
4.70695
4.69724
4.68714
4.68738
4.68902
4.69298
4.70335
4.7089
4.72318
4.74608
4.76197
4.76051
4.75383
4.7349
4.72704
4.72912
4.73941
4.76204
4.78435
4.7929
4.79714
4.80059
4.8004
4.79205
4.77424
4.76287
4.75645
4.7536
4.75217
4.75186
4.75218
4.75542
4.76385
4.77642
4.79166
4.80455
4.81026
4.81319
4.81428
4.81281
4.80734
4.79692
4.78609
1
1
1
1
1
1
1
1
1
1
1
1
1
1
1
1
1
1
1
1
1
1
0.999641
1.00157
1.02806
1.14513
1.58476
2.17836
2.98014
3.6609
4.26282
4.82706
4.89441
4.93072
4.92914
4.90305
4.84735
4.74208
4.64996
4.61753
4.61867
4.63698
4.66386
4.6973
4.747
4.78808
4.80614
4.80794
4.79271
4.75167
4.71114
4.69093
4.68626
4.68925
4.70711
4.74624
4.78922
4.81544
4.82625
4.82853
4.82724
4.81775
4.78658
4.75422
4.73963
4.73672
4.73671
4.73768
4.73828
4.74312
4.75703
4.77705
4.7989
4.8163
4.82677
4.83243
4.83226
4.82706
4.81203
4.79278
1
1
1
1
1
1
1
1
1
1
1
1
1
1
1
1
1
1
1
1
1
1
1
1
1
0.999837
1.00041
1.01469
1.12265
1.52113
2.02257
2.81233
3.45739
4.1042
4.6091
4.67462
4.71416
4.72844
4.70066
4.66658
4.66587
4.66384
4.67066
4.69787
4.73904
4.76859
4.78642
4.79607
4.79966
4.79017
4.73814
4.69178
4.6855
4.68992
4.70219
4.72109
4.74297
4.7737
4.80368
4.82437
4.82946
4.82087
4.80572
4.79507
4.78318
4.77311
4.76554
4.75826
4.75236
4.75457
4.76233
4.7699
4.78023
4.79166
4.7985
4.80363
4.80739
4.80742
4.7991
4.78359
1
1
1
1
1
1
1
1
1
1
1
1
1
1
1
1
1
1
1
1
1
1
1
1
1
1
1
1
0.999968
1.00023
1.00945
1.10484
1.43208
1.9192
2.72302
3.43016
4.19347
4.59411
4.75044
4.8055
4.79228
4.74284
4.69472
4.65182
4.62789
4.63531
4.6948
4.75893
4.78103
4.78508
4.79051
4.78331
4.76954
4.76051
4.74748
4.72993
4.72456
4.7289
4.73697
4.74633
4.75876
4.77145
4.78179
4.7886
4.80003
4.81394
4.81754
4.81385
4.7994
4.77835
4.76617
4.76437
4.76519
4.76162
4.75885
4.76114
4.76665
4.77122
4.77496
4.77767
1
1
1
1
1
1
1
1
1
1
1
1
1
1
1
1
1
1
1
1
1
1
1
1
1
1
1
1
1
1
1
0.999987
1.00012
1.0081
1.11663
1.45366
1.94228
2.69525
3.41195
4.26394
4.56332
4.55312
4.62052
4.64174
4.59917
4.59368
4.63812
4.67724
4.71051
4.75449
4.7765
4.78365
4.80265
4.83206
4.84013
4.82019
4.77113
4.72925
4.714
4.71095
4.71045
4.71336
4.72006
4.73957
4.78535
4.82002
4.83147
4.82987
4.82149
4.81314
4.80408
4.79045
4.77055
4.75709
4.75255
4.75321
4.756
4.75745
4.75905
4.76691
1
1
1
1
1
1
1
1
1
1
1
1
1
1
1
1
1
1
1
1
1
1
1
1
1
1
1
1
1
1
1
1
1
0.99999
0.999896
1.00078
1.0114
1.13266
1.42567
2.01557
2.79919
3.52413
4.27228
4.57664
4.66687
4.68355
4.65556
4.61853
4.62458
4.64141
4.69324
4.74173
4.79064
4.83022
4.84305
4.84372
4.83698
4.81203
4.77275
4.73804
4.7128
4.70172
4.7046
4.72338
4.74757
4.76406
4.78276
4.79591
4.80012
4.80506
4.8126
4.81822
4.81196
4.79895
4.78122
4.76335
4.75514
4.75521
4.75841
4.76731
1
1
1
1
1
1
1
1
1
1
1
1
1
1
1
1
1
1
1
1
1
1
1
1
1
1
1
1
1
1
1
1
1
1
0.999999
0.999999
1
0.999912
1.00087
1.01813
1.18597
1.51437
2.12093
2.92566
3.8351
4.52598
4.60683
4.55639
4.61649
4.60494
4.58803
4.5991
4.62371
4.69107
4.78186
4.81576
4.81668
4.81847
4.81702
4.8212
4.81441
4.78541
4.75277
4.74006
4.74104
4.74721
4.74536
4.74079
4.74298
4.75538
4.78206
4.80461
4.80732
4.804
4.80459
4.80267
4.79047
4.77819
4.77496
4.77483
1
1
1
1
1
1
1
1
1
1
1
1
1
1
1
1
1
1
1
1
1
1
1
1
1
1
1
1
1
1
1
1
1
1
1
1
1
0.999998
0.999998
0.99998
1.00009
1.00244
1.03615
1.24615
1.68757
2.4819
3.21519
4.00586
4.54411
4.64245
4.65162
4.63271
4.57924
4.59038
4.64143
4.69454
4.70772
4.7331
4.77475
4.81627
4.83624
4.83326
4.83279
4.82949
4.82229
4.8026
4.75602
4.71875
4.71364
4.72047
4.74128
4.76598
4.78624
4.8001
4.80703
4.80843
4.80082
4.794
4.79523
4.79696
1
1
1
1
1
1
1
1
1
1
1
1
1
1
1
1
1
1
1
1
1
1
1
1
1
1
1
1
1
1
1
1
1
1
1
1
1
1
1
1
1
0.999999
0.999948
1.0004
1.00719
1.10069
1.37039
1.89114
2.74778
3.63989
4.43363
4.63218
4.62463
4.71133
4.69955
4.6622
4.61165
4.5941
4.61988
4.68026
4.7629
4.80204
4.82382
4.84693
4.86179
4.86247
4.82843
4.77068
4.73342
4.72302
4.7292
4.75021
4.7659
4.77114
4.77837
4.78616
4.7917
4.79067
4.7901
4.79376
1
1
1
1
1
1
1
1
1
1
1
1
1
1
1
1
1
1
1
1
1
1
1
1
1
1
1
1
1
1
1
1
1
1
1
1
1
1
1
1
1
1
0.999997
0.999999
0.999992
1.00002
1.00164
1.02148
1.19734
1.62119
2.47785
3.34635
4.0934
4.55335
4.76768
4.76932
4.70645
4.59681
4.59814
4.61305
4.66406
4.70037
4.70537
4.75133
4.81331
4.83828
4.8275
4.80185
4.80118
4.80408
4.8018
4.78993
4.77357
4.76389
4.76463
4.77012
4.77334
4.76721
4.7566
4.76183
1
1
1
1
1
1
1
1
1
1
1
1
1
1
1
1
1
1
1
1
1
1
1
1
1
1
1
1
1
1
1
1
1
1
1
1
1
1
1
1
1
1
1
1
1
1
1
0.999966
1.00048
1.00839
1.12042
1.51527
2.11609
2.92493
3.84506
4.57422
4.68542
4.67444
4.75926
4.78382
4.74281
4.70341
4.66185
4.67098
4.69752
4.7163
4.74045
4.75986
4.78945
4.82476
4.83713
4.83703
4.82325
4.80585
4.796
4.78768
4.7754
4.75588
4.7395
4.73882
1
1
1
1
1
1
1
1
1
1
1
1
1
1
1
1
1
1
1
1
1
1
1
1
1
1
1
1
1
1
1
1
1
1
1
1
1
1
1
1
1
1
1
1
1
1
1
0.999998
0.999998
0.999983
1.00021
1.00528
1.0466
1.30091
1.83122
2.82069
3.71574
4.29918
4.63486
4.81956
4.84097
4.82901
4.75938
4.68653
4.6653
4.65342
4.66429
4.67872
4.69721
4.757
4.82475
4.83428
4.81247
4.80106
4.80278
4.81004
4.81518
4.80086
4.75799
4.7273
1
1
1
1
1
1
1
1
1
1
1
1
1
1
1
1
1
1
1
1
1
1
1
1
1
1
1
1
1
1
1
1
1
1
1
1
1
1
1
1
1
1
1
1
1
1
1
1
1
0.999999
0.999999
1
0.999986
1.00205
1.02177
1.2615
1.96769
2.81124
3.48409
4.26585
4.74892
4.81342
4.78791
4.81915
4.84673
4.80987
4.74795
4.69972
4.6995
4.74202
4.77507
4.77501
4.7535
4.74691
4.75845
4.79548
4.81676
4.8191
4.8081
4.77532
1
1
1
1
1
1
1
1
1
1
1
1
1
1
1
1
1
1
1
1
1
1
1
1
1
1
1
1
1
1
1
1
1
1
1
1
1
1
1
1
1
1
1
1
1
1
1
1
1
1
1
1
0.999999
1
0.999979
1.00274
1.03407
1.23928
1.7633
2.63895
3.63927
4.19201
4.46891
4.7053
4.83647
4.85216
4.84034
4.81251
4.8026
4.80745
4.78148
4.74977
4.71526
4.69431
4.69217
4.70719
4.745
4.7972
4.82164
4.81597
1
1
1
1
1
1
1
1
1
1
1
1
1
1
1
1
1
1
1
1
1
1
1
1
1
1
1
1
1
1
1
1
1
1
1
1
1
1
1
1
1
1
1
1
1
1
1
1
1
1
1
1
1
1
0.999998
1
0.999989
1.002
1.02178
1.16389
1.79998
3.0141
3.69026
4.087
4.57223
4.76714
4.72603
4.74197
4.81619
4.8786
4.90025
4.87299
4.81913
4.75204
4.69833
4.70298
4.72102
4.73699
4.7777
4.80563
1
1
1
1
1
1
1
1
1
1
1
1
1
1
1
1
1
1
1
1
1
1
1
1
1
1
1
1
1
1
1
1
1
1
1
1
1
1
1
1
1
1
1
1
1
1
1
1
1
1
1
1
1
1
1
1
0.999998
1
0.999986
1.00131
1.03307
1.27344
2.01481
2.89566
4.01602
4.43099
4.46676
4.46795
4.54016
4.70223
4.84981
4.88131
4.86807
4.85626
4.82828
4.7614
4.72606
4.72035
4.74222
4.78906
1
1
1
1
1
1
1
1
1
1
1
1
1
1
1
1
1
1
1
1
1
1
1
1
1
1
1
1
1
1
1
1
1
1
1
1
1
1
1
1
1
1
1
1
1
1
1
1
1
1
1
1
1
1
1
1
1
1
0.999999
0.999996
1.00003
1.00341
1.06351
1.28165
1.98939
3.22623
4.38985
4.52449
4.44383
4.45761
4.61101
4.77161
4.82907
4.87687
4.88527
4.82601
4.78694
4.76929
4.76923
4.79221
1
1
1
1
1
1
1
1
1
1
1
1
1
1
1
1
1
1
1
1
1
1
1
1
1
1
1
1
1
1
1
1
1
1
1
1
1
1
1
1
1
1
1
1
1
1
1
1
1
1
1
1
1
1
1
1
1
1
1
0.999999
1
0.999995
1.00013
1.00383
1.06127
1.43614
2.56643
3.85245
4.36302
4.545
4.60449
4.60595
4.6571
4.74255
4.79644
4.7876
4.77046
4.76481
4.78565
4.8008
1
1
1
1
1
1
1
1
1
1
1
1
1
1
1
1
1
1
1
1
1
1
1
1
1
1
1
1
1
1
1
1
1
1
1
1
1
1
1
1
1
1
1
1
1
1
1
1
1
1
1
1
1
1
1
1
1
1
1
1
1
0.999999
0.999999
0.999994
1.00019
1.01494
1.19498
1.83564
2.89645
4.09349
4.60347
4.65055
4.66329
4.68598
4.70355
4.73868
4.74074
4.73438
4.75676
4.78506
1
1
1
1
1
1
1
1
1
1
1
1
1
1
1
1
1
1
1
1
1
1
1
1
1
1
1
1
1
1
1
1
1
1
1
1
1
1
1
1
1
1
1
1
1
1
1
1
1
1
1
1
1
1
1
1
1
1
1
1
1
1
1
0.999999
0.999999
1.00002
1.00192
1.04851
1.32526
2.07755
3.2895
4.28564
4.73496
4.79852
4.81021
4.80999
4.79094
4.75618
4.75876
4.77381
1
1
1
1
1
1
1
1
1
1
1
1
1
1
1
1
1
1
1
1
1
1
1
1
1
1
1
1
1
1
1
1
1
1
1
1
1
1
1
1
1
1
1
1
1
1
1
1
1
1
1
1
1
1
1
1
1
1
1
1
1
1
1
1
1
1
0.999997
1.00019
1.00538
1.07943
1.64999
2.8932
3.75975
4.35371
4.71263
4.80789
4.79882
4.77236
4.76217
4.77593
1
1
1
1
1
1
1
1
1
1
1
1
1
1
1
1
1
1
1
1
1
1
1
1
1
1
1
1
1
1
1
1
1
1
1
1
1
1
1
1
1
1
1
1
1
1
1
1
1
1
1
1
1
1
1
1
1
1
1
1
1
1
1
1
1
1
1
1
0.999997
1.0008
1.03356
1.30384
2.26443
3.56211
4.47316
4.59291
4.60105
4.62973
4.65207
4.69007
1
1
1
1
1
1
1
1
1
1
1
1
1
1
1
1
1
1
1
1
1
1
1
1
1
1
1
1
1
1
1
1
1
1
1
1
1
1
1
1
1
1
1
1
1
1
1
1
1
1
1
1
1
1
1
1
1
1
1
1
1
1
1
1
1
1
1
1
1
0.999998
1.00016
1.00816
1.16835
1.70826
3.00945
4.08999
4.69493
4.79226
4.79402
4.69771
1
1
1
1
1
1
1
1
1
1
1
1
1
1
1
1
1
1
1
1
1
1
1
1
1
1
1
1
1
1
1
1
1
1
1
1
1
1
1
1
1
1
1
1
1
1
1
1
1
1
1
1
1
1
1
1
1
1
1
1
1
1
1
1
1
1
1
1
1
1
0.999999
1.00001
1.0026
1.04181
1.43279
2.49503
3.63089
4.54268
4.81101
4.81727
1
1
1
1
1
1
1
1
1
1
1
1
1
1
1
1
1
1
1
1
1
1
1
1
1
1
1
1
1
1
1
1
1
1
1
1
1
1
1
1
1
1
1
1
1
1
1
1
1
1
1
1
1
1
1
1
1
1
1
1
1
1
1
1
1
1
1
1
1
1
1
1
0.999998
1.00031
1.01512
1.23864
2.15932
3.34323
4.4489
4.79746
1
1
1
1
1
1
1
1
1
1
1
1
1
1
1
1
1
1
1
1
1
1
1
1
1
1
1
1
1
1
1
1
1
1
1
1
1
1
1
1
1
1
1
1
1
1
1
1
1
1
1
1
1
1
1
1
1
1
1
1
1
1
1
1
1
1
1
1
1
1
1
1
1
0.999999
1.00007
1.00671
1.14234
1.7821
3.09506
4.41167
1
1
1
1
1
1
1
1
1
1
1
1
1
1
1
1
1
1
1
1
1
1
1
1
1
1
1
1
1
1
1
1
1
1
1
1
1
1
1
1
1
1
1
1
1
1
1
1
1
1
1
1
1
1
1
1
1
1
1
1
1
1
1
1
1
1
1
1
1
1
1
1
1
1
1
1.00002
1.00272
1.06679
1.53828
3.3675
1
1
1
1
1
1
1
1
1
1
1
1
1
1
1
1
1
1
1
1
1
1
1
1
1
1
1
1
1
1
1
1
1
1
1
1
1
1
1
1
1
1
1
1
1
1
1
1
1
1
1
1
1
1
1
1
1
1
1
1
1
1
1
1
1
1
1
1
1
1
1
1
1
1
1
1
1
1.0012
1.02956
2.05534
1
1
1
1
1
1
1
1
1
1
1
1
1
1
1
1
1
1
1
1
1
1
1
1
1
1
1
1
1
1
1
1
1
1
1
1
1
1
1
1
1
1
1
1
1
1
1
1
1
1
1
1
1
1
1
1
1
1
1
1
1
1
1
1
1
1
1
1
1
1
1
1
1
1
1
1
1
1
1.00075
1.25318
1
1
1
1
1
1
1
1
1
1
1
1
1
1
1
1
1
1
1
1
1
1
1
1
1
1
1
1
1
1
1
1
1
1
1
1
1
1
1
1
1
1
1
1
1
1
1
1
1
1
1
1
1
1
1
1
1
1
1
1
1
1
1
1
1
1
1
1
1
1
1
1
1
1
1
1
1
1
1.00001
1.02901
1
1
1
1
1
1
1
1
1
1
1
1
1
1
1
1
1
1
1
1
1
1
1
1
1
1
1
1
1
1
1
1
1
1
1
1
1
1
1
1
1
1
1
1
1
1
1
1
1
1
1
1
1
1
1
1
1
1
1
1
1
1
1
1
1
1
1
1
1
1
1
1
1
1
1
1
1
1
1
1.00165
1
1
1
1
1
1
1
1
1
1
1
1
1
1
1
1
1
1
1
1
1
1
1
1
1
1
1
1
1
1
1
1
1
1
1
1
1
1
1
1
1
1
1
1
1
1
1
1
1
1
1
1
1
1
1
1
1
1
1
1
1
1
1
1
1
1
1
1
1
1
1
1
1
1
1
1
1
1
1
1.00006
1
1
1
1
1
1
1
1
1
1
1
1
1
1
1
1
1
1
1
1
1
1
1
1
1
1
1
1
1
1
1
1
1
1
1
1
1
1
1
1
1
1
1
1
1
1
1
1
1
1
1
1
1
1
1
1
1
1
1
1
1
1
1
1
1
1
1
1
1
1
1
1
1
1
1
1
1
1
1
1
1
1
1
1
1
1
1
1
1
1
1
1
1
1
1
1
1
1
1
1
1
1
1
1
1
1
1
1
1
1
1
1
1
1
1
1
1
1
1
1
1
1
1
1
1
1
1
1
1
1
1
1
1
1
1
1
1
1
1
1
1
1
1
1
1
1
1
1
1
1
1
1
1
1
1
1
1
1
1
1
1
1
1
1
1
1
1
1
1
1
1
1
1
1
1
1
1
1
1
1
1
1
1
1
1
1
1
1
1
1
1
1
1
1
1
1
1
1
1
1
1
1
1
1
1
1
1
1
1
1
1
1
1
1
1
1
1
1
1
1
1
1
1
1
1
1
1
1
1
1
1
1
1
1
1
1
1
1
1
1
)
;

boundaryField
{
    inlet
    {
        type            fixedValue;
        value           uniform 1;
    }
    outlet
    {
        type            zeroGradient;
    }
    bottom
    {
        type            symmetryPlane;
    }
    top
    {
        type            symmetryPlane;
    }
    obstacle
    {
        type            zeroGradient;
    }
    defaultFaces
    {
        type            empty;
    }
}


// ************************************************************************* //
