/*--------------------------------*- C++ -*----------------------------------*\
| =========                 |                                                 |
| \\      /  F ield         | OpenFOAM: The Open Source CFD Toolbox           |
|  \\    /   O peration     | Version:  v1912                                 |
|   \\  /    A nd           | Website:  www.openfoam.com                      |
|    \\/     M anipulation  |                                                 |
\*---------------------------------------------------------------------------*/
FoamFile
{
    version     2.0;
    format      ascii;
    class       volVectorField;
    location    "5.16";
    object      grad(p);
}
// * * * * * * * * * * * * * * * * * * * * * * * * * * * * * * * * * * * * * //

dimensions      [1 -2 -2 0 0 0 0];


internalField   nonuniform List<vector> 
1900
(
(135116 0.485645 0)
(-128991 -0.574367 0)
(-8284.4 0.606705 0)
(-1253.21 -1.73228 0)
(-1421.32 -1.01482 0)
(-1307.63 -1.44473 0)
(-1171 -6.10827 0)
(-843.044 22.0038 0)
(-620.041 -44.2864 0)
(272.325 -56.0876 0)
(135116 0.641973 0)
(-128991 -0.691944 0)
(-8285.55 0.377814 0)
(-1254.83 -1.90041 0)
(-1421.03 0.501812 0)
(-1312.72 0.141598 0)
(-1147.55 -9.75483 0)
(-881.222 6.02996 0)
(-698.132 -76.5396 0)
(-551.089 -77.8018 0)
(135116 -2.01794e-08 0)
(-128991 2.47447e-08 0)
(-8285.6 -2.47447e-08 0)
(-1253.08 -1.06581e-09 0)
(-1419.28 1.08358e-09 0)
(-1317.88 3.21521e-09 0)
(-1165.11 4.95604e-09 0)
(-909.829 3.42837e-09 0)
(-703.873 1.47438e-09 0)
(-642.204 -8.88178e-10 0)
(135116 -0.641973 0)
(-128991 0.691944 0)
(-8285.55 -0.377814 0)
(-1254.83 1.90041 0)
(-1421.03 -0.501812 0)
(-1312.72 -0.141598 0)
(-1147.55 9.75483 0)
(-881.222 -6.02996 0)
(-698.132 76.5396 0)
(-551.089 77.8018 0)
(135116 -0.485645 0)
(-128991 0.574367 0)
(-8284.4 -0.606705 0)
(-1253.21 1.73228 0)
(-1421.32 1.01482 0)
(-1307.63 1.44473 0)
(-1171 6.10827 0)
(-843.044 -22.0038 0)
(-620.041 44.2864 0)
(272.325 56.0876 0)
(-329.293 -759.044 9.08838e-12)
(-1891.36 -666.313 -1.06672e-11)
(-2143.95 -788.166 -1.33764e-11)
(-92.0611 -1251.21 0)
(-14766.3 -8911.02 -5.7479e-11)
(-869.665 -870.081 8.95122e-12)
(-1480.54 -791.5 1.06672e-11)
(-2175.96 -978.017 1.33764e-11)
(-3122.36 -1074.54 0)
(-13976.2 -7393.18 0)
(-1254.76 -9.81502e-10 0)
(-1746.98 -1.03231e-09 0)
(-2208.47 -1.4803e-09 0)
(-2777.82 2.69145e-10 0)
(-17089.7 -3.17207e-09 0)
(-869.665 870.081 8.95122e-12)
(-1480.54 791.5 1.06672e-11)
(-2175.96 978.017 1.33764e-11)
(-3122.36 1074.54 0)
(-13976.2 7393.18 0)
(-329.293 759.044 -2.69908e-11)
(-1891.36 666.313 -1.06672e-11)
(-2143.95 788.166 -1.33764e-11)
(-92.0611 1251.21 -3.58039e-11)
(-14766.3 8911.02 5.7479e-11)
(-27486.8 10886.4 1.3518e-11)
(-4826.58 2983.26 -9.66156e-12)
(-3442.58 1623.36 0)
(-4989.03 1130.64 6.23309e-12)
(-7983.46 1515.39 -2.36467e-12)
(-23573.3 12671.8 -6.92292e-12)
(-6891.56 2063.75 4.8757e-12)
(-3892.66 519.139 0)
(-4892.79 444.395 -3.92031e-12)
(-7523.93 887.63 6.09261e-13)
(-25041.9 0 0)
(-7884.78 1.17665e-09 0)
(-4009.68 7.56596e-10 0)
(-4884.88 1.77055e-09 1.57348e-12)
(-7318.4 1.33746e-09 -1.21852e-12)
(-23573.3 -12671.8 -6.92292e-12)
(-6891.56 -2063.75 4.8757e-12)
(-3892.66 -519.139 0)
(-4892.79 -444.395 -3.92031e-12)
(-7523.93 -887.63 6.09261e-13)
(-27486.8 -10886.4 6.92292e-12)
(-4826.58 -2983.26 -8.98459e-14)
(-3442.58 -1623.36 0)
(-4989.03 -1130.64 3.40512e-14)
(-7983.46 -1515.39 2.36467e-12)
(-7081.69 4019.72 0)
(-739.425 947.778 0)
(2356.27 138.15 0)
(1211.1 911.167 0)
(-605.926 1043.3 0)
(-1464.11 700.742 0)
(-1406.71 294.74 0)
(-981.912 110.329 0)
(-684.729 49.2484 0)
(-594.672 29.7329 0)
(-564.459 29.4974 0)
(-494.975 23.9425 0)
(-364.905 9.60795 0)
(-226.527 0.949036 0)
(-137.757 -1.01626 0)
(-97.5964 -1.02886 0)
(-80.5201 -0.838186 0)
(-69.6388 -0.856011 0)
(-59.5641 -1.05225 0)
(-49.3828 -1.24948 0)
(-39.4373 -1.38868 0)
(-30.7873 -1.45979 0)
(-23.2526 -1.48002 0)
(-16.635 -1.47901 0)
(-11.0995 -1.47469 0)
(-6.48532 -1.48078 0)
(-2.21985 -1.48487 0)
(2.3809 -1.53695 0)
(9.95479 -1.54835 0)
(18.937 -1.53621 0)
(33.2406 -1.48161 0)
(46.9297 -1.03068 0)
(63.6557 -0.848605 0)
(74.9889 -0.000978903 0)
(99.2387 -1.21315 0)
(123.2 1.60733 0)
(194.197 -2.51167 0)
(568.271 11.7793 0)
(5964.19 -11.7849 0)
(-6050.14 -642.87 0)
(-7213.63 2466.2 0)
(-1394.05 272.252 0)
(2179.47 -692.663 0)
(1347.01 450.584 0)
(-587.478 798.516 0)
(-1541.81 457.302 0)
(-1478.39 171.304 0)
(-1013.2 48.2945 0)
(-693.171 19.3393 0)
(-596.539 10.0218 0)
(-564.56 11.3277 0)
(-496.61 9.3438 0)
(-366.961 3.15453 0)
(-227.372 -0.260811 0)
(-137.855 -0.782068 0)
(-97.5531 -0.67897 0)
(-80.4845 -0.545028 0)
(-69.6447 -0.507371 0)
(-59.5938 -0.577698 0)
(-49.4092 -0.650998 0)
(-39.4542 -0.704577 0)
(-30.7955 -0.735652 0)
(-23.2559 -0.750921 0)
(-16.6374 -0.761793 0)
(-11.1034 -0.774758 0)
(-6.49069 -0.793619 0)
(-2.23093 -0.81377 0)
(2.36874 -0.856002 0)
(9.94811 -0.874998 0)
(18.9326 -0.883374 0)
(33.2799 -0.874895 0)
(46.9833 -0.655703 0)
(63.7502 -0.553125 0)
(74.9423 -0.00387594 0)
(99.4449 -0.242645 0)
(123.179 1.87035 0)
(195.037 1.61964 0)
(568.116 9.44995 0)
(5965.6 0.608738 0)
(-6052.17 68.1415 0)
(-7145.24 -1.87729e-08 0)
(-1658.37 6.59553e-08 0)
(2408.15 4.91082e-08 0)
(1644.9 4.64356e-08 0)
(-603.972 1.02221e-08 0)
(-1646.57 7.26691e-09 0)
(-1525.69 2.77758e-09 0)
(-1026.12 -2.01899e-08 0)
(-695.863 -1.53978e-08 0)
(-597.003 1.76425e-09 0)
(-564.656 -1.87729e-09 0)
(-497.352 -5.63186e-09 0)
(-367.699 -4.96572e-09 0)
(-227.672 -5.74894e-09 0)
(-137.879 -5.64397e-09 0)
(-97.5275 -3.42756e-09 0)
(-80.4702 -4.16636e-09 0)
(-69.6483 -2.7695e-09 0)
(-59.6059 -3.10862e-10 0)
(-49.4197 1.86517e-09 0)
(-39.4619 4.99399e-09 0)
(-30.8008 8.69607e-09 0)
(-23.2602 1.0973e-08 0)
(-16.6419 1.02504e-08 0)
(-11.1088 9.4591e-09 0)
(-6.49666 1.04845e-08 0)
(-2.23799 9.58022e-09 0)
(2.36309 4.91324e-09 0)
(9.94683 4.07755e-10 0)
(18.937 -5.76509e-09 0)
(33.3068 -4.29152e-09 0)
(47.0233 1.88536e-09 0)
(63.8453 1.46469e-08 0)
(75.0792 1.86073e-08 0)
(99.784 2.84136e-08 0)
(123.741 2.38799e-08 0)
(196.402 3.97581e-08 0)
(567.977 4.7679e-09 0)
(5981.26 -5.54708e-08 0)
(-6070.14 -1.38402e-07 0)
(-7213.63 -2466.2 0)
(-1394.05 -272.252 0)
(2179.47 692.663 0)
(1347.01 -450.584 0)
(-587.478 -798.516 0)
(-1541.81 -457.302 0)
(-1478.39 -171.304 0)
(-1013.2 -48.2945 0)
(-693.171 -19.3393 0)
(-596.539 -10.0218 0)
(-564.56 -11.3277 0)
(-496.61 -9.3438 0)
(-366.961 -3.15453 0)
(-227.372 0.260811 0)
(-137.855 0.782068 0)
(-97.5531 0.67897 0)
(-80.4845 0.545028 0)
(-69.6447 0.507371 0)
(-59.5938 0.577698 0)
(-49.4092 0.650998 0)
(-39.4542 0.704577 0)
(-30.7955 0.735652 0)
(-23.2559 0.750921 0)
(-16.6374 0.761793 0)
(-11.1034 0.774758 0)
(-6.49069 0.793619 0)
(-2.23093 0.81377 0)
(2.36874 0.856002 0)
(9.94811 0.874998 0)
(18.9326 0.883374 0)
(33.2799 0.874895 0)
(46.9833 0.655703 0)
(63.7502 0.553125 0)
(74.9423 0.00387589 0)
(99.4449 0.242645 0)
(123.179 -1.87035 0)
(195.037 -1.61964 0)
(568.116 -9.44995 0)
(5965.6 -0.608738 0)
(-6052.17 -68.1415 0)
(-7081.69 -4019.72 0)
(-739.425 -947.778 0)
(2356.27 -138.15 0)
(1211.1 -911.167 0)
(-605.926 -1043.3 0)
(-1464.11 -700.742 0)
(-1406.71 -294.74 0)
(-981.912 -110.329 0)
(-684.729 -49.2484 0)
(-594.672 -29.7329 0)
(-564.459 -29.4974 0)
(-494.975 -23.9425 0)
(-364.905 -9.60795 0)
(-226.527 -0.949036 0)
(-137.757 1.01626 0)
(-97.5964 1.02886 0)
(-80.5201 0.838186 0)
(-69.6388 0.856011 0)
(-59.5641 1.05225 0)
(-49.3828 1.24948 0)
(-39.4373 1.38868 0)
(-30.7873 1.45979 0)
(-23.2526 1.48002 0)
(-16.635 1.47901 0)
(-11.0995 1.47469 0)
(-6.48532 1.48078 0)
(-2.21985 1.48487 0)
(2.3809 1.53695 0)
(9.95479 1.54835 0)
(18.937 1.53621 0)
(33.2406 1.48161 0)
(46.9297 1.03068 0)
(63.6557 0.848605 0)
(74.9889 0.000978844 0)
(99.2387 1.21315 0)
(123.2 -1.60733 0)
(194.197 2.51167 0)
(568.271 -11.7793 0)
(5964.19 11.7849 0)
(-6050.14 642.87 0)
(2801.56 -1460.28 0)
(283.844 -393.27 0)
(1998.01 -980.308 0)
(936.391 -1438.24 0)
(-434.153 -1380.16 0)
(-1162.11 -943.14 0)
(-1190.93 -457.515 0)
(-895.384 -202.115 0)
(-652.376 -97.4452 0)
(-586.309 -64.6148 0)
(-561.045 -57.0009 0)
(-486.025 -41.9804 0)
(-354.915 -18.2877 0)
(-221.686 -3.26482 0)
(-136.729 0.898167 0)
(-97.6148 1.15265 0)
(-80.5517 0.968784 0)
(-69.5172 1.13674 0)
(-59.3814 1.52653 0)
(-49.2287 1.90075 0)
(-39.3419 2.16421 0)
(-30.7477 2.2992 0)
(-23.2476 2.33978 0)
(-16.6434 2.34182 0)
(-11.1068 2.33723 0)
(-6.49052 2.35051 0)
(-2.20851 2.36128 0)
(2.39449 2.44896 0)
(9.93992 2.47631 0)
(18.8856 2.45876 0)
(33.0082 2.30366 0)
(46.6482 1.58516 0)
(63.2137 1.1981 0)
(75.1172 -0.146179 0)
(98.6744 1.20151 0)
(123.97 -1.8035 0)
(189.627 3.00064 0)
(573.753 -18.5724 0)
(6377.87 3.27266 0)
(-6465.17 150.086 0)
(2912.27 445.642 0)
(-825.619 -551.341 0)
(1541.41 -1099.68 0)
(973.091 -1326.72 0)
(-220.944 -1331 0)
(-736.95 -973.757 0)
(-808.334 -574.981 0)
(-681.335 -284.091 0)
(-569.578 -154.726 0)
(-560.183 -105.918 0)
(-544.478 -86.111 0)
(-462.468 -57.6734 0)
(-332.955 -25.9976 0)
(-210.634 -5.86098 0)
(-134.052 0.579568 0)
(-97.5186 1.40844 0)
(-80.5184 1.41387 0)
(-69.1665 1.79212 0)
(-58.9258 2.4106 0)
(-48.851 2.97965 0)
(-39.1045 3.38101 0)
(-30.6394 3.59326 0)
(-23.2142 3.67049 0)
(-16.633 3.69949 0)
(-11.0873 3.72776 0)
(-6.45935 3.78897 0)
(-2.13105 3.85065 0)
(2.48447 4.04353 0)
(9.97221 4.14728 0)
(18.7981 4.18885 0)
(32.5234 3.9897 0)
(46.0153 3.00149 0)
(62.2243 2.44907 0)
(74.9234 0.671504 0)
(97.9443 1.88263 0)
(124.52 -1.01525 0)
(180.489 1.72397 0)
(565.593 -20.4963 0)
(5904.89 -10.8785 0)
(-5975.37 -612.87 0)
(2699.7 250.415 0)
(-1205.28 -432.671 0)
(1250.83 -553.98 0)
(713.476 -1048.4 0)
(-94.0295 -1080.36 0)
(-433.578 -827.163 0)
(-526.341 -545.535 0)
(-490.411 -307.875 0)
(-480.682 -195.812 0)
(-520.188 -142.75 0)
(-514.555 -111.506 0)
(-428.098 -70.185 0)
(-304.987 -32.3063 0)
(-196.075 -8.93256 0)
(-129.723 -0.57163 0)
(-96.8108 1.16347 0)
(-80.182 1.6418 0)
(-68.5567 2.33009 0)
(-58.237 3.2072 0)
(-48.2935 3.9741 0)
(-38.7506 4.5159 0)
(-30.4687 4.81484 0)
(-23.1453 4.94633 0)
(-16.5882 5.02914 0)
(-11.0206 5.1259 0)
(-6.37209 5.27458 0)
(-1.96321 5.42257 0)
(2.68032 5.77755 0)
(10.08 6.00266 0)
(18.7338 6.14194 0)
(31.8641 5.94889 0)
(45.1636 4.73173 0)
(60.9684 4.07425 0)
(74.5713 2.06702 0)
(97.0489 2.99387 0)
(123.818 0.0102356 0)
(170.854 -0.0320409 0)
(561.609 -15.3848 0)
(5807.04 6.23677 0)
(-5864.1 -210.569 0)
(2736.65 451.852 0)
(-1600.76 -241.964 0)
(948.073 -356.353 0)
(465.851 -833.26 0)
(-7.7503 -813.414 0)
(-221.572 -663.144 0)
(-307.929 -462.261 0)
(-344.329 -298.153 0)
(-410.456 -214.097 0)
(-478.943 -169.043 0)
(-474.552 -126.622 0)
(-386.148 -77.3745 0)
(-273.93 -35.4409 0)
(-180.054 -11.4745 0)
(-124.323 -2.20564 0)
(-95.3856 0.365248 0)
(-79.3942 1.4676 0)
(-67.6581 2.518 0)
(-57.3416 3.62752 0)
(-47.5898 4.54491 0)
(-38.2943 5.19809 0)
(-30.2247 5.58288 0)
(-23.0077 5.79398 0)
(-16.4599 5.97566 0)
(-10.8507 6.19686 0)
(-6.17347 6.48915 0)
(-1.64637 6.77612 0)
(3.04346 7.3439 0)
(10.3233 7.73149 0)
(18.7463 7.99364 0)
(31.1644 7.82519 0)
(44.2088 6.49644 0)
(59.6565 5.7042 0)
(73.8823 3.62481 0)
(95.9623 3.86812 0)
(121.604 0.961666 0)
(165.654 -2.1481 0)
(571.634 -7.26703 0)
(5716.8 12.7528 0)
(-5778.47 -218.675 0)
(2901.96 493.703 0)
(-1984.1 -173.822 0)
(681.038 -298.495 0)
(273.036 -651.5 0)
(69.9004 -564.834 0)
(-95.1944 -490.103 0)
(-174.622 -364.366 0)
(-251.272 -274.042 0)
(-356.267 -218.368 0)
(-435.894 -181.732 0)
(-426.22 -130.436 0)
(-340.233 -77.9541 0)
(-241.483 -35.5173 0)
(-164.048 -12.7526 0)
(-118.314 -3.453 0)
(-93.2711 -0.26056 0)
(-78.1075 1.26906 0)
(-66.4753 2.63417 0)
(-56.2838 3.89815 0)
(-46.7801 4.89733 0)
(-37.7503 5.6254 0)
(-29.8945 6.09769 0)
(-22.7668 6.42415 0)
(-16.2 6.76466 0)
(-10.5258 7.18307 0)
(-5.81389 7.68818 0)
(-1.13954 8.19148 0)
(3.60095 9.07289 0)
(10.7061 9.69332 0)
(18.8241 10.1507 0)
(30.4213 10.113 0)
(43.1197 8.8483 0)
(58.2012 8.08276 0)
(72.802 6.16602 0)
(94.4826 6.13948 0)
(118.02 3.79825 0)
(162.924 -0.48364 0)
(575.968 1.02331 0)
(5603.32 11.9386 0)
(-5665.67 -267.99 0)
(3044.9 394.593 0)
(-2364.15 -165.417 0)
(487.765 -288.271 0)
(209.197 -422.888 0)
(147.778 -371.712 0)
(-28.3945 -352.052 0)
(-99.7257 -288.161 0)
(-203.64 -248.861 0)
(-321.502 -220.007 0)
(-394.209 -184.811 0)
(-374.548 -128.11 0)
(-294.681 -74.1954 0)
(-211.099 -34.4362 0)
(-149.155 -13.5277 0)
(-112.285 -4.51728 0)
(-90.8353 -0.842536 0)
(-76.6048 1.01817 0)
(-65.1246 2.64603 0)
(-55.1607 4.02103 0)
(-45.9254 5.07555 0)
(-37.1376 5.86193 0)
(-29.455 6.42104 0)
(-22.365 6.8732 0)
(-15.7286 7.38173 0)
(-9.96079 7.98928 0)
(-5.20172 8.68253 0)
(-0.312022 9.36362 0)
(4.49069 10.477 0)
(11.3619 11.207 0)
(19.1508 11.6879 0)
(29.9094 11.5958 0)
(42.2524 10.2322 0)
(57.0718 9.30105 0)
(72.0097 7.28645 0)
(93.6807 6.86047 0)
(115.222 4.85732 0)
(162.98 -0.0452544 0)
(583.604 5.90326 0)
(5457.57 12.1068 0)
(-5531.73 -304.66 0)
(3122.8 279.305 0)
(-2642.13 -138.831 0)
(432.929 -235.884 0)
(192.629 -245.14 0)
(138.161 -255.221 0)
(-14.6825 -262.503 0)
(-75.1839 -243.546 0)
(-185.595 -232.762 0)
(-294.546 -217.963 0)
(-347.338 -177.615 0)
(-319.626 -118.366 0)
(-249.966 -65.8727 0)
(-183.021 -30.3589 0)
(-135.217 -11.9984 0)
(-106.09 -3.81902 0)
(-87.937 -0.198584 0)
(-74.7458 2.00334 0)
(-63.5816 3.71745 0)
(-53.9427 5.10749 0)
(-45.0061 6.15592 0)
(-36.4538 6.97268 0)
(-28.92 7.62271 0)
(-21.841 8.22778 0)
(-15.1245 8.93973 0)
(-9.27228 9.76188 0)
(-4.48952 10.6411 0)
(0.589701 11.5115 0)
(5.37726 12.8896 0)
(11.8729 13.6964 0)
(19.1987 14.1277 0)
(29.0185 13.8878 0)
(40.9084 12.3225 0)
(55.3626 11.0729 0)
(70.4502 8.81581 0)
(92.1418 8.05262 0)
(111.366 6.18694 0)
(163.932 1.93352 0)
(587.678 9.22605 0)
(5304.05 8.46645 0)
(-5383.75 -339.461 0)
(3180.26 265.657 0)
(-2860.61 -100.966 0)
(385.322 -185.367 0)
(190.564 -178.863 0)
(131.046 -195.428 0)
(-17.1445 -211.735 0)
(-71.0662 -217.025 0)
(-178.987 -219.477 0)
(-268.36 -205.51 0)
(-298.234 -160.414 0)
(-266.869 -103.291 0)
(-209.874 -55.9604 0)
(-159.184 -25.729 0)
(-123.58 -9.96403 0)
(-100.914 -2.76591 0)
(-85.2247 0.953564 0)
(-72.8311 3.63486 0)
(-62.1333 5.59365 0)
(-52.8109 7.0432 0)
(-44.128 8.09622 0)
(-35.7241 8.94914 0)
(-28.2455 9.6845 0)
(-21.0959 10.4068 0)
(-14.2503 11.2409 0)
(-8.32126 12.1623 0)
(-3.51576 13.0647 0)
(1.85472 13.9448 0)
(6.59622 15.4373 0)
(12.555 16.0937 0)
(19.3352 16.2653 0)
(28.1699 15.6543 0)
(39.5398 13.6742 0)
(53.6926 11.8625 0)
(69.0992 9.30413 0)
(91.1474 8.13152 0)
(109.325 6.18516 0)
(165.909 3.05226 0)
(589.9 10.7215 0)
(5121.56 5.81244 0)
(-5212.77 -366.868 0)
(3281.5 209.467 0)
(-3076.75 -66.8224 0)
(357.865 -134.157 0)
(182.935 -129.758 0)
(106.484 -164.158 0)
(-35.4949 -185.723 0)
(-82.6447 -204.739 0)
(-174.498 -208.994 0)
(-237.631 -187.837 0)
(-248.837 -139.22 0)
(-218.971 -86.3619 0)
(-175.224 -45.412 0)
(-138.697 -20.0044 0)
(-113.089 -6.20977 0)
(-95.5698 1.32318 0)
(-81.769 6.07949 0)
(-70.2745 9.18918 0)
(-60.2972 11.4312 0)
(-51.5311 12.9839 0)
(-43.1695 14.0701 0)
(-34.9232 14.9581 0)
(-27.5153 15.7269 0)
(-20.3412 16.4385 0)
(-13.4329 17.1659 0)
(-7.51478 17.8586 0)
(-2.77182 18.5512 0)
(2.87607 19.1236 0)
(7.44799 20.1959 0)
(12.6707 20.2947 0)
(18.7754 19.8107 0)
(26.5217 18.4324 0)
(37.2545 15.633 0)
(51.1515 12.8324 0)
(66.8548 9.51779 0)
(89.1363 7.59049 0)
(106.471 4.94986 0)
(168.304 2.04663 0)
(590.338 8.86244 0)
(4940.19 -1.28268 0)
(-5035.82 -393.072 0)
(3317.72 118.844 0)
(-3191.74 -39.6933 0)
(324.675 -93.3202 0)
(161.654 -107.306 0)
(77.1164 -151.837 0)
(-56.2498 -171.911 0)
(-93.4907 -191.974 0)
(-162.7 -188.458 0)
(-201.124 -159.947 0)
(-200.448 -112.248 0)
(-176.473 -66.3735 0)
(-145.929 -32.7304 0)
(-121.407 -12.1103 0)
(-103.028 -0.0701953 0)
(-89.0717 8.05775 0)
(-77.6447 13.2348 0)
(-67.6741 16.7491 0)
(-58.4766 19.2199 0)
(-50.2679 20.9416 0)
(-42.2256 22.1348 0)
(-34.1276 23.1057 0)
(-26.819 23.9173 0)
(-19.7092 24.5792 0)
(-12.8818 25.1421 0)
(-6.98635 25.5356 0)
(-2.29679 26.0494 0)
(3.43966 26.3612 0)
(7.72477 26.8754 0)
(12.1837 26.4461 0)
(17.5406 25.3536 0)
(24.1441 23.3007 0)
(34.1434 19.7815 0)
(47.7997 16.003 0)
(64.0479 11.8078 0)
(86.7456 9.18837 0)
(103.983 6.38682 0)
(169.679 3.57193 0)
(586.691 7.81673 0)
(4734.24 -6.08928 0)
(-4832.76 -410.971 0)
(3357.77 -37.8585 0)
(-3281.2 -29.0029 0)
(292.711 -69.4598 0)
(126.546 -95.8366 0)
(44.2288 -146.433 0)
(-74.1721 -159.845 0)
(-98.5903 -173.321 0)
(-143.637 -160.274 0)
(-164.193 -127.989 0)
(-158.666 -84.8796 0)
(-142.344 -47.0042 0)
(-122.934 -19.2469 0)
(-107.225 -1.06345 0)
(-93.6546 11.0402 0)
(-82.7486 18.736 0)
(-73.3937 24.3036 0)
(-64.507 28.5491 0)
(-56.2571 31.6575 0)
(-48.7222 33.8677 0)
(-41.0841 35.3513 0)
(-33.2056 36.3864 0)
(-26.0954 37.0059 0)
(-19.161 37.2285 0)
(-12.5113 37.2131 0)
(-6.64041 36.9821 0)
(-1.97625 36.8053 0)
(3.67198 36.3751 0)
(7.52976 36.113 0)
(11.2043 34.781 0)
(15.7444 32.7288 0)
(21.1522 29.7013 0)
(30.2222 25.2241 0)
(43.4677 20.2443 0)
(60.288 15.0197 0)
(83.9124 11.6035 0)
(101.059 8.68768 0)
(169.682 6.01135 0)
(581.028 9.1088 0)
(4536.63 -9.74843 0)
(-4633.93 -448.985 0)
(3253.29 -165.456 0)
(-3222.19 -25.9805 0)
(260.272 -60.3307 0)
(87.4796 -92.0129 0)
(15.4356 -141.734 0)
(-82.1593 -143.833 0)
(-93.9043 -145.395 0)
(-119.017 -124.991 0)
(-128.471 -93.1815 0)
(-122.408 -56.8978 0)
(-113.226 -26.2985 0)
(-101.659 -2.85948 0)
(-92.2216 13.3046 0)
(-83.9489 24.1426 0)
(-76.2906 31.4028 0)
(-68.1884 36.9244 0)
(-60.5876 40.9966 0)
(-53.3514 44.0846 0)
(-46.7084 46.3737 0)
(-39.7985 47.9667 0)
(-32.5332 49.0905 0)
(-26.0076 49.7222 0)
(-19.5095 49.8724 0)
(-13.1192 49.7569 0)
(-7.37937 49.4477 0)
(-2.88174 49.1072 0)
(2.77252 48.3868 0)
(6.18861 47.9386 0)
(8.92262 46.0933 0)
(12.6456 43.5066 0)
(16.9124 39.8316 0)
(25.0304 34.7595 0)
(37.9664 28.88 0)
(55.7213 22.926 0)
(80.6438 19.0114 0)
(98.594 15.8221 0)
(170.085 12.8362 0)
(571.505 14.3389 0)
(4292.81 -12.2569 0)
(-4390.71 -450.506 0)
(3173.3 -282.421 0)
(-3179.9 -16.1058 0)
(229.08 -43.1074 0)
(48.1027 -74.3216 0)
(-5.70735 -121.01 0)
(-77.7003 -115.18 0)
(-80.433 -108.468 0)
(-93.3219 -85.8399 0)
(-98.5754 -56.9725 0)
(-94.2149 -26.9973 0)
(-90.2711 -1.40425 0)
(-84.7707 17.1806 0)
(-81.2048 30.0848 0)
(-76.2144 39.6386 0)
(-70.4316 46.9715 0)
(-64.1488 52.2884 0)
(-57.6072 56.2919 0)
(-51.0756 59.4698 0)
(-44.9812 61.9626 0)
(-38.4661 63.6965 0)
(-31.514 64.7145 0)
(-25.3419 64.9954 0)
(-19.1275 64.741 0)
(-12.9205 64.3208 0)
(-7.26648 63.8139 0)
(-2.99858 63.5327 0)
(2.54595 62.63 0)
(5.31967 61.8538 0)
(6.93336 59.7983 0)
(9.71038 57.1848 0)
(12.7232 53.3708 0)
(19.6688 48.2756 0)
(32.0645 42.0998 0)
(50.7782 35.8701 0)
(77.0669 31.9935 0)
(95.1081 29.2147 0)
(168.252 25.8216 0)
(556.847 27.5601 0)
(4088.69 -9.5588 0)
(-4187.99 -473.815 0)
(2965.62 -329.446 0)
(-2991.58 4.63189 0)
(204.173 -21.1339 0)
(12.4096 -47.4245 0)
(-23.9367 -89.4907 0)
(-70.0727 -80.0949 0)
(-65.6315 -66.9558 0)
(-69.3944 -43.4836 0)
(-71.768 -16.5195 0)
(-68.8607 6.62744 0)
(-70.655 23.9872 0)
(-71.3152 38.1164 0)
(-70.5803 48.5431 0)
(-67.6763 57.1445 0)
(-64.1008 63.1323 0)
(-59.2069 67.3817 0)
(-53.6674 70.2445 0)
(-47.8869 72.2806 0)
(-42.6354 73.8535 0)
(-37.1466 75.1501 0)
(-31.2816 76.4284 0)
(-25.982 77.4744 0)
(-20.1595 78.0838 0)
(-14.0125 78.3771 0)
(-8.13882 78.3592 0)
(-4.02259 78.5074 0)
(1.15471 77.765 0)
(3.45983 77.1068 0)
(4.42334 75.427 0)
(6.45192 73.4207 0)
(8.32714 70.2732 0)
(14.1692 66.1222 0)
(26.012 60.9834 0)
(45.9825 56.2354 0)
(74.2304 54.4756 0)
(92.6466 55.1637 0)
(168.49 53.6781 0)
(537.411 57.303 0)
(3809.66 13.3495 0)
(-3924.91 -423.914 0)
(2860.3 -284.204 0)
(-2882.8 47.2413 0)
(178.916 19.4211 0)
(-17.7684 -1.25961 0)
(-37.1898 -29.9341 0)
(-55.9847 -17.3632 0)
(-45.153 -1.80556 0)
(-44.7196 15.6216 0)
(-50.2866 35.0384 0)
(-55.1813 49.907 0)
(-59.9272 60.6126 0)
(-61.1077 70.9213 0)
(-62.8685 78.6676 0)
(-62.1557 85.4293 0)
(-60.5667 90.2059 0)
(-57.2952 93.7343 0)
(-52.8863 96.2523 0)
(-47.5978 98.3116 0)
(-42.2161 100.145 0)
(-35.9849 101.623 0)
(-29.2741 102.662 0)
(-23.7468 103.065 0)
(-18.2577 103.018 0)
(-12.6551 102.899 0)
(-7.14095 102.494 0)
(-3.57112 102.42 0)
(1.19628 101.558 0)
(3.06667 100.91 0)
(3.38134 99.4019 0)
(4.74396 97.5854 0)
(5.69003 95.1864 0)
(10.7169 91.977 0)
(22.5373 87.9523 0)
(44.5071 84.9898 0)
(76.0341 85.031 0)
(94.3396 90.3927 0)
(170.314 93.2167 0)
(517.985 103.766 0)
(3624.97 45.7077 0)
(-3792.36 -320.582 0)
(2737.27 -73.864 0)
(-2699 109.694 0)
(157.436 71.4869 0)
(-35.1509 51.4587 0)
(-39.4547 32.542 0)
(-42.967 42.3286 0)
(-33.8462 56.5981 0)
(-33.8903 66.2528 0)
(-38.7294 78.5492 0)
(-44.2164 87.606 0)
(-50.4049 95.2308 0)
(-53.9167 102.865 0)
(-56.5998 108.628 0)
(-56.5576 115.472 0)
(-56.0978 120.889 0)
(-53.3804 125.783 0)
(-49.2565 129.273 0)
(-44.1354 130.696 0)
(-39.4446 130.123 0)
(-34.7219 129.18 0)
(-29.8922 130.491 0)
(-25.6383 133.538 0)
(-20.3189 135.393 0)
(-14.518 134.749 0)
(-8.60048 131.93 0)
(-4.9245 129.481 0)
(-0.300859 126.04 0)
(1.38222 123.636 0)
(1.2199 120.523 0)
(2.38972 118.182 0)
(2.92266 115.75 0)
(7.19818 113.164 0)
(19.2789 109.007 0)
(43.1673 105.932 0)
(79.4369 104.631 0)
(100.535 111.68 0)
(181.377 115.42 0)
(491.63 128.675 0)
(3400.75 73.352 0)
(-3660.03 -76.6613 0)
(2894.82 358.172 0)
(-2742.73 216.22 0)
(122.799 173.426 0)
(-55.2971 147.528 0)
(-45.9879 129.19 0)
(-32.8034 131.935 0)
(-22.0988 144.234 0)
(-23.5668 149.605 0)
(-29.7099 158.434 0)
(-39.1063 162.678 0)
(-45.2234 166.096 0)
(-48.1974 168.663 0)
(-50.7202 169.465 0)
(-50.3404 170.636 0)
(-50.6303 171.29 0)
(-49.2165 174.224 0)
(-48.1521 179.831 0)
(-46.7788 187.988 0)
(-43.6766 196.97 0)
(-35.6303 202.654 0)
(-25.0752 203.538 0)
(-19.0231 199.785 0)
(-17.0899 193.055 0)
(-15.9924 188.326 0)
(-12.2177 185.404 0)
(-9.24633 186.644 0)
(-4.43671 188.503 0)
(-2.24968 189.974 0)
(-1.87361 191.8 0)
(0.1447 193.166 0)
(0.854637 194.182 0)
(4.21862 195.004 0)
(15.5678 193.181 0)
(40.2905 192.483 0)
(81.5728 192.519 0)
(104.737 205.713 0)
(186.691 216.654 0)
(477.447 221.681 0)
(3427.1 136.427 0)
(-3789.17 257.409 0)
(3290.78 10701 0)
(-2877.02 1312.12 0)
(91.2411 756.969 0)
(-77.7778 692.401 0)
(-54.4804 720.207 0)
(-28.4709 731.883 0)
(-16.8193 753.868 0)
(-20.2061 755.762 0)
(-26.131 759.371 0)
(-36.8327 753.632 0)
(-44.6379 749.782 0)
(-50.6704 737.676 0)
(-54.6987 723.843 0)
(-54.7989 704.685 0)
(-52.6404 682.502 0)
(-45.1507 659.005 0)
(-35.9924 635.266 0)
(-27.6196 613.039 0)
(-25.312 605.11 0)
(-28.3929 599.286 0)
(-32.6571 600.273 0)
(-35.7396 610.08 0)
(-31.3614 612.705 0)
(-21.8904 634.208 0)
(-10.221 642.957 0)
(-1.93893 659.313 0)
(2.90814 669.556 0)
(4.55958 677.411 0)
(4.29504 682.693 0)
(4.6851 683.041 0)
(4.69427 680.749 0)
(6.23323 673.443 0)
(16.8492 661.709 0)
(42.5298 641.663 0)
(92.1866 622.87 0)
(123.792 601.602 0)
(196.764 603.867 0)
(414.319 537.327 0)
(3435.18 1056.82 0)
(-4039.55 9631.71 0)
(14471.1 167076 0)
(-12325.1 14391.1 0)
(-474.381 5119.78 0)
(-90.7226 4903.39 0)
(-7.94113 5005.16 0)
(-0.366309 5253.52 0)
(0.912363 5450.92 0)
(-18.2639 5674.53 0)
(-31.7628 5827.93 0)
(-48.3465 5961.78 0)
(-60.5997 6073.24 0)
(-73.1931 6143.5 0)
(-82.5113 6210.7 0)
(-90.1788 6247.04 0)
(-94.6487 6275.83 0)
(-94.7341 6284.41 0)
(-92.4473 6287.11 0)
(-75.8381 6272.62 0)
(-56.929 6263.03 0)
(-40.2919 6237.5 0)
(-14.6738 6217.47 0)
(-7.04331 6183.26 0)
(6.16019 6153.33 0)
(13.1597 6031.1 0)
(11.975 5914.25 0)
(16.3855 5764.84 0)
(13.0028 5616.73 0)
(10.4095 5424.36 0)
(3.55222 5238.73 0)
(-1.72851 5015.01 0)
(-8.39507 4799.09 0)
(-14.1295 4528.05 0)
(-15.0566 4289.13 0)
(2.86405 3957.47 0)
(42.9686 3717.53 0)
(86.4248 3425.96 0)
(124.754 3428.12 0)
(913.933 3385.58 0)
(12190.8 12063.3 0)
(-14089 149639 0)
(178159 -184051 0)
(-158943 -15847.4 0)
(-9051.46 -6319.73 0)
(-188.233 -5962.12 0)
(282.915 -6030.25 0)
(401.081 -6247.47 0)
(388.879 -6446.08 0)
(343.098 -6651.97 0)
(250.68 -6783.18 0)
(199.556 -6879.15 0)
(130.469 -6940.09 0)
(81.7858 -6951.66 0)
(45.0785 -6949.01 0)
(7.96838 -6912.81 0)
(-16.63 -6863.7 0)
(-34.2868 -6797.33 0)
(-47.3528 -6729.81 0)
(-50.8162 -6652.26 0)
(-59.1534 -6598.37 0)
(-72.3013 -6531.79 0)
(-84.9302 -6481.53 0)
(-97.5507 -6428.43 0)
(-177.982 -6372.99 0)
(-252.275 -6250.13 0)
(-266.804 -6124.85 0)
(-288.641 -5985.68 0)
(-325.184 -5842.32 0)
(-359.688 -5661.72 0)
(-390.172 -5479.86 0)
(-418.969 -5260.51 0)
(-464.556 -5043.29 0)
(-485.181 -4769.71 0)
(-532.982 -4525.14 0)
(-508.286 -4200.99 0)
(-419.995 -4000.64 0)
(-155.095 -3809.74 0)
(157.847 -3929.38 0)
(8735.52 -4103 0)
(144371 -13943 0)
(-159862 -166572 0)
(178159 184051 0)
(-158943 15847.4 0)
(-9051.46 6319.73 0)
(-188.233 5962.12 0)
(282.915 6030.25 0)
(401.081 6247.47 0)
(388.879 6446.08 0)
(343.098 6651.97 0)
(250.68 6783.18 0)
(199.556 6879.15 0)
(130.469 6940.09 0)
(81.7858 6951.66 0)
(45.0785 6949.01 0)
(7.96838 6912.81 0)
(-16.63 6863.7 0)
(-34.2868 6797.33 0)
(-47.3528 6729.81 0)
(-50.8162 6652.26 0)
(-59.1534 6598.37 0)
(-72.3013 6531.79 0)
(-84.9302 6481.53 0)
(-97.5507 6428.43 0)
(-177.982 6372.99 0)
(-252.275 6250.13 0)
(-266.804 6124.85 0)
(-288.641 5985.68 0)
(-325.184 5842.32 0)
(-359.688 5661.72 0)
(-390.172 5479.86 0)
(-418.969 5260.51 0)
(-464.556 5043.29 0)
(-485.181 4769.71 0)
(-532.982 4525.14 0)
(-508.286 4200.99 0)
(-419.995 4000.64 0)
(-155.095 3809.74 0)
(157.847 3929.38 0)
(8735.52 4103 0)
(144371 13943 0)
(-159862 166572 0)
(14471.1 -167076 0)
(-12325.1 -14391.1 0)
(-474.381 -5119.78 0)
(-90.7226 -4903.39 0)
(-7.94113 -5005.16 0)
(-0.366309 -5253.52 0)
(0.912363 -5450.92 0)
(-18.2639 -5674.53 0)
(-31.7628 -5827.93 0)
(-48.3465 -5961.78 0)
(-60.5997 -6073.24 0)
(-73.1931 -6143.5 0)
(-82.5113 -6210.7 0)
(-90.1788 -6247.04 0)
(-94.6487 -6275.83 0)
(-94.7341 -6284.41 0)
(-92.4473 -6287.11 0)
(-75.8381 -6272.62 0)
(-56.929 -6263.03 0)
(-40.2919 -6237.5 0)
(-14.6738 -6217.47 0)
(-7.04331 -6183.26 0)
(6.16019 -6153.33 0)
(13.1597 -6031.1 0)
(11.975 -5914.25 0)
(16.3855 -5764.84 0)
(13.0028 -5616.73 0)
(10.4095 -5424.36 0)
(3.55222 -5238.73 0)
(-1.72851 -5015.01 0)
(-8.39507 -4799.09 0)
(-14.1295 -4528.05 0)
(-15.0566 -4289.13 0)
(2.86405 -3957.47 0)
(42.9686 -3717.53 0)
(86.4248 -3425.96 0)
(124.754 -3428.12 0)
(913.933 -3385.58 0)
(12190.8 -12063.3 0)
(-14089 -149639 0)
(3290.78 -10701 0)
(-2877.02 -1312.12 0)
(91.2411 -756.969 0)
(-77.7778 -692.401 0)
(-54.4804 -720.207 0)
(-28.4709 -731.883 0)
(-16.8193 -753.868 0)
(-20.2061 -755.762 0)
(-26.131 -759.371 0)
(-36.8327 -753.632 0)
(-44.6379 -749.782 0)
(-50.6704 -737.676 0)
(-54.6987 -723.843 0)
(-54.7989 -704.685 0)
(-52.6404 -682.502 0)
(-45.1507 -659.005 0)
(-35.9924 -635.266 0)
(-27.6196 -613.039 0)
(-25.312 -605.11 0)
(-28.3929 -599.286 0)
(-32.6571 -600.273 0)
(-35.7396 -610.08 0)
(-31.3614 -612.705 0)
(-21.8904 -634.208 0)
(-10.221 -642.957 0)
(-1.93893 -659.313 0)
(2.90814 -669.556 0)
(4.55958 -677.411 0)
(4.29504 -682.693 0)
(4.6851 -683.041 0)
(4.69427 -680.749 0)
(6.23323 -673.443 0)
(16.8492 -661.709 0)
(42.5298 -641.663 0)
(92.1866 -622.87 0)
(123.792 -601.602 0)
(196.764 -603.867 0)
(414.319 -537.327 0)
(3435.18 -1056.82 0)
(-4039.55 -9631.71 0)
(2894.82 -358.172 0)
(-2742.73 -216.22 0)
(122.799 -173.426 0)
(-55.2971 -147.528 0)
(-45.9879 -129.19 0)
(-32.8034 -131.935 0)
(-22.0988 -144.234 0)
(-23.5668 -149.605 0)
(-29.7099 -158.434 0)
(-39.1063 -162.678 0)
(-45.2234 -166.096 0)
(-48.1974 -168.663 0)
(-50.7202 -169.465 0)
(-50.3404 -170.636 0)
(-50.6303 -171.29 0)
(-49.2165 -174.224 0)
(-48.1521 -179.831 0)
(-46.7788 -187.988 0)
(-43.6766 -196.97 0)
(-35.6303 -202.654 0)
(-25.0752 -203.538 0)
(-19.0231 -199.785 0)
(-17.0899 -193.055 0)
(-15.9924 -188.326 0)
(-12.2177 -185.404 0)
(-9.24633 -186.644 0)
(-4.43671 -188.503 0)
(-2.24968 -189.974 0)
(-1.87361 -191.8 0)
(0.1447 -193.166 0)
(0.854637 -194.182 0)
(4.21862 -195.004 0)
(15.5678 -193.181 0)
(40.2905 -192.483 0)
(81.5728 -192.519 0)
(104.737 -205.713 0)
(186.691 -216.654 0)
(477.447 -221.681 0)
(3427.1 -136.427 0)
(-3789.17 -257.409 0)
(2737.27 73.864 0)
(-2699 -109.694 0)
(157.436 -71.4869 0)
(-35.1509 -51.4587 0)
(-39.4547 -32.542 0)
(-42.967 -42.3286 0)
(-33.8462 -56.5981 0)
(-33.8903 -66.2528 0)
(-38.7294 -78.5492 0)
(-44.2164 -87.606 0)
(-50.4049 -95.2308 0)
(-53.9167 -102.865 0)
(-56.5998 -108.628 0)
(-56.5576 -115.472 0)
(-56.0978 -120.889 0)
(-53.3804 -125.783 0)
(-49.2565 -129.273 0)
(-44.1354 -130.696 0)
(-39.4446 -130.123 0)
(-34.7219 -129.18 0)
(-29.8922 -130.491 0)
(-25.6383 -133.538 0)
(-20.3189 -135.393 0)
(-14.518 -134.749 0)
(-8.60048 -131.93 0)
(-4.9245 -129.481 0)
(-0.300859 -126.04 0)
(1.38222 -123.636 0)
(1.2199 -120.523 0)
(2.38972 -118.182 0)
(2.92266 -115.75 0)
(7.19818 -113.164 0)
(19.2789 -109.007 0)
(43.1673 -105.932 0)
(79.4369 -104.631 0)
(100.535 -111.68 0)
(181.377 -115.42 0)
(491.63 -128.675 0)
(3400.75 -73.352 0)
(-3660.03 76.6613 0)
(2860.3 284.204 0)
(-2882.8 -47.2413 0)
(178.916 -19.4211 0)
(-17.7684 1.25961 0)
(-37.1898 29.9341 0)
(-55.9847 17.3632 0)
(-45.153 1.80556 0)
(-44.7196 -15.6216 0)
(-50.2866 -35.0384 0)
(-55.1813 -49.907 0)
(-59.9272 -60.6126 0)
(-61.1077 -70.9213 0)
(-62.8685 -78.6676 0)
(-62.1557 -85.4293 0)
(-60.5667 -90.2059 0)
(-57.2952 -93.7343 0)
(-52.8863 -96.2523 0)
(-47.5978 -98.3116 0)
(-42.2161 -100.145 0)
(-35.9849 -101.623 0)
(-29.2741 -102.662 0)
(-23.7468 -103.065 0)
(-18.2577 -103.018 0)
(-12.6551 -102.899 0)
(-7.14095 -102.494 0)
(-3.57112 -102.42 0)
(1.19628 -101.558 0)
(3.06667 -100.91 0)
(3.38134 -99.4019 0)
(4.74396 -97.5854 0)
(5.69003 -95.1864 0)
(10.7169 -91.977 0)
(22.5373 -87.9523 0)
(44.5071 -84.9898 0)
(76.0341 -85.031 0)
(94.3396 -90.3927 0)
(170.314 -93.2167 0)
(517.985 -103.766 0)
(3624.97 -45.7078 0)
(-3792.36 320.582 0)
(2965.62 329.446 0)
(-2991.58 -4.63189 0)
(204.173 21.1339 0)
(12.4096 47.4245 0)
(-23.9367 89.4907 0)
(-70.0727 80.0949 0)
(-65.6315 66.9558 0)
(-69.3945 43.4836 0)
(-71.768 16.5195 0)
(-68.8607 -6.62744 0)
(-70.655 -23.9872 0)
(-71.3152 -38.1164 0)
(-70.5803 -48.5431 0)
(-67.6763 -57.1445 0)
(-64.1008 -63.1323 0)
(-59.2069 -67.3817 0)
(-53.6674 -70.2445 0)
(-47.8869 -72.2806 0)
(-42.6354 -73.8535 0)
(-37.1466 -75.1501 0)
(-31.2816 -76.4284 0)
(-25.982 -77.4744 0)
(-20.1595 -78.0838 0)
(-14.0125 -78.3771 0)