/*--------------------------------*- C++ -*----------------------------------*\
| =========                 |                                                 |
| \\      /  F ield         | OpenFOAM: The Open Source CFD Toolbox           |
|  \\    /   O peration     | Version:  v1912                                 |
|   \\  /    A nd           | Website:  www.openfoam.com                      |
|    \\/     M anipulation  |                                                 |
\*---------------------------------------------------------------------------*/
FoamFile
{
    version     2.0;
    format      ascii;
    class       volTensorField;
    location    "6.42";
    object      grad(U);
}
// * * * * * * * * * * * * * * * * * * * * * * * * * * * * * * * * * * * * * //

dimensions      [0 0 -1 0 0 0 0];


internalField   nonuniform List<tensor> 
1900
(
(-4.26543 -2.09506e-06 0 1.13104e-05 4.73916e-06 0 0 0 0)
(4.43944 2.07867e-06 0 -2.97744e-05 -1.26626e-05 0 0 0 0)
(0.734259 -2.03011e-05 0 -5.5529e-05 -4.36699e-05 0 0 0 0)
(-0.0105945 -0.000112383 0 -6.25778e-05 -0.000113487 0 0 0 0)
(0.0104994 -0.000358872 0 4.60636e-05 -0.000266729 0 0 0 0)
(0.00736255 -0.000683041 0 -0.000144955 -0.000643824 0 0 0 0)
(0.0107463 0.00173077 0 -0.000879563 -0.00146446 0 0 0 0)
(0.0143419 0.0161942 0 -0.00209146 0.0025081 0 0 0 0)
(-0.0292653 0.0566837 0 0.00634154 0.0257358 0 0 0 0)
(-0.0163075 0.204454 0 0.056882 0.112483 0 0 0 0)
(-4.26545 -5.82841e-06 0 9.05539e-06 -3.88952e-07 0 0 0 0)
(4.43938 -5.04877e-05 0 -4.69388e-05 2.48401e-06 0 0 0 0)
(0.734227 -8.0523e-05 0 -9.4656e-05 -2.46763e-06 0 0 0 0)
(-0.0104929 -0.000110676 0 -9.98607e-05 2.27851e-05 0 0 0 0)
(0.010417 -0.000171465 0 6.56904e-05 0.000109916 0 0 0 0)
(0.00643692 -0.000514685 0 -0.0001999 0.000381657 0 0 0 0)
(0.00879982 0.00142116 0 -0.00120409 0.000792957 0 0 0 0)
(0.021563 0.0110061 0 -0.00187444 -0.00134911 0 0 0 0)
(0.0297082 0.0532907 0 0.0093709 -0.0154012 0 0 0 0)
(0.110491 0.145289 0 0.0904304 -0.0580328 0 0 0 0)
(-4.26547 1.00568e-12 0 6.90637e-13 -8.70042e-06 0 0 0 0)
(4.43934 -7.46866e-13 0 7.36173e-13 2.03572e-05 0 0 0 0)
(0.734207 -3.23414e-13 0 -2.92735e-14 9.2275e-05 0 0 0 0)
(-0.0104342 4.20529e-13 0 -2.56414e-13 0.000181403 0 0 0 0)
(0.0103993 5.04114e-13 0 -4.45201e-13 0.000313627 0 0 0 0)
(0.00609277 -2.7159e-13 0 -3.09675e-13 0.000524334 0 0 0 0)
(0.00907179 -8.72328e-13 0 -1.94614e-13 0.001343 0 0 0 0)
(0.0249168 -7.16943e-13 0 3.94921e-13 -0.00231798 0 0 0 0)
(0.0630396 -3.72421e-14 0 6.97278e-13 -0.0206691 0 0 0 0)
(0.167818 2.94481e-13 0 3.81504e-13 -0.108899 0 0 0 0)
(-4.26545 5.82841e-06 0 -9.05539e-06 -3.88953e-07 0 0 0 0)
(4.43938 5.04877e-05 0 4.69388e-05 2.48401e-06 0 0 0 0)
(0.734227 8.0523e-05 0 9.4656e-05 -2.46763e-06 0 0 0 0)
(-0.0104929 0.000110676 0 9.98607e-05 2.27851e-05 0 0 0 0)
(0.010417 0.000171465 0 -6.56904e-05 0.000109916 0 0 0 0)
(0.00643692 0.000514685 0 0.0001999 0.000381657 0 0 0 0)
(0.00879982 -0.00142116 0 0.00120409 0.000792957 0 0 0 0)
(0.021563 -0.0110061 0 0.00187444 -0.00134911 0 0 0 0)
(0.0297082 -0.0532907 0 -0.0093709 -0.0154012 0 0 0 0)
(0.110491 -0.145289 0 -0.0904304 -0.0580328 0 0 0 0)
(-4.26543 2.09506e-06 0 -1.13104e-05 4.73916e-06 0 0 0 0)
(4.43944 -2.07867e-06 0 2.97744e-05 -1.26626e-05 0 0 0 0)
(0.734259 2.03011e-05 0 5.5529e-05 -4.36699e-05 0 0 0 0)
(-0.0105945 0.000112383 0 6.25778e-05 -0.000113487 0 0 0 0)
(0.0104994 0.000358872 0 -4.60636e-05 -0.000266729 0 0 0 0)
(0.00736255 0.000683041 0 0.000144955 -0.000643824 0 0 0 0)
(0.0107463 -0.00173077 0 0.000879563 -0.00146446 0 0 0 0)
(0.0143419 -0.0161942 0 0.00209146 0.0025081 0 0 0 0)
(-0.0292653 -0.0566837 0 -0.00634154 0.0257358 0 0 0 0)
(-0.0163075 -0.204454 0 -0.056882 0.112483 0 0 0 0)
(0.181813 0.414351 -2.10792e-17 0.244072 -0.231039 3.16188e-17 5.64862e-17 7.32331e-17 -5.71353e-33)
(0.525586 0.574589 0 0.299707 -0.46044 0 -1.59721e-16 -4.68274e-17 0)
(0.817058 0.986201 0 0.302766 -0.795157 0 -2.62432e-16 -8.48752e-17 0)
(1.50588 1.61351 0 0.352995 -1.46492 0 0 0 0)
(2.79644 1.88057 2.74558e-16 1.14484 -3.54672 -4.11836e-16 -2.29764e-15 -1.53176e-15 -7.4419e-32)
(0.255906 0.15936 0 0.186942 -0.202265 0 1.0059e-16 3.14843e-17 0)
(0.44295 0.170624 0 0.15006 -0.332373 0 1.59721e-16 4.68274e-17 0)
(0.764273 0.418844 0 0.066523 -0.623144 0 2.62432e-16 8.48752e-17 0)
(1.69063 0.86714 0 -0.0653952 -1.32492 0 0 0 0)
(3.71546 0.580573 0 -0.183449 -3.09884 0 0 0 0)
(0.312452 4.20869e-14 0 1.96659e-13 -0.29241 0 0 0 0)
(0.467106 3.38247e-13 0 4.55317e-13 -0.371829 0 0 0 0)
(0.762261 1.67477e-13 0 1.93876e-13 -0.632517 0 0 0 0)
(1.59727 1.45086e-13 0 1.16018e-13 -1.35876 0 0 0 0)
(3.46311 2.3525e-13 0 3.74308e-13 -3.66247 0 0 0 0)
(0.255906 -0.15936 0 -0.186942 -0.202265 0 1.0059e-16 -3.14843e-17 0)
(0.44295 -0.170624 0 -0.15006 -0.332373 0 1.59721e-16 -4.68274e-17 0)
(0.764273 -0.418844 0 -0.066523 -0.623144 0 2.62432e-16 -8.48752e-17 0)
(1.69063 -0.86714 0 0.0653952 -1.32492 0 0 0 0)
(3.71546 -0.580573 0 0.183449 -3.09884 0 0 0 0)
(0.181813 -0.414351 2.10792e-17 -0.244072 -0.231039 3.16188e-17 -2.57666e-16 1.36202e-16 -5.71353e-33)
(0.525586 -0.574589 0 -0.299707 -0.46044 0 -1.59721e-16 4.68274e-17 0)
(0.817058 -0.986201 0 -0.302766 -0.795157 0 -2.62432e-16 8.48752e-17 0)
(1.50588 -1.61351 9.87077e-17 -0.352995 -1.46492 1.48062e-16 -9.40334e-16 6.26889e-16 -2.67548e-32)
(2.79644 -1.88057 -2.74558e-16 -1.14484 -3.54672 -4.11836e-16 2.29764e-15 -1.53176e-15 -7.4419e-32)
(4.19671 -0.789345 -1.87135e-17 0.0098505 4.50883 -1.68421e-16 2.28709e-15 -1.18297e-16 5.0723e-33)
(2.34996 -0.295785 8.84313e-18 0.560283 2.7392 7.95882e-17 -2.55819e-15 1.99873e-16 2.39694e-33)
(1.83507 -0.0493259 0 0.716743 2.35291 0 0 0 0)
(0.877736 0.15686 -5.05142e-18 0.697667 2.0985 -4.54628e-17 2.53501e-15 -2.16133e-16 1.36919e-33)
(-0.126708 0.0585941 5.86447e-18 0.659521 2.13874 5.27802e-17 -1.12121e-15 1.24578e-16 1.58957e-33)
(4.33087 -0.953683 0 -0.697937 -0.686944 0 -1.1437e-15 -8.74682e-18 0)
(2.6261 -0.198795 0 0.345539 1.02262 0 1.28753e-15 -5.86886e-17 0)
(1.92942 -0.0548734 0 0.415565 1.33196 0 0 0 0)
(0.886188 0.0517137 0 0.395275 1.56398 0 -1.60049e-15 8.3808e-17 0)
(-0.10471 0.00354879 0 0.346568 1.192 0 2.87877e-16 -6.06688e-18 0)
(4.33053 4.2472e-15 0 5.47577e-15 0.793027 0 0 0 0)
(2.60037 -1.24476e-14 0 1.01934e-13 1.85216 0 0 0 0)
(1.82217 1.8223e-13 0 3.21245e-14 1.97002 0 0 0 0)
(0.825052 -2.76479e-13 0 -2.97624e-13 1.95007 0 6.44958e-16 1.46745e-29 0)
(-0.177822 7.59235e-13 0 8.24247e-14 1.61156 0 -5.75753e-16 2.61503e-29 0)
(4.33087 0.953683 0 0.697937 -0.686944 0 -1.1437e-15 8.74682e-18 0)
(2.6261 0.198795 0 -0.345539 1.02262 0 1.28753e-15 5.86886e-17 0)
(1.92942 0.0548734 0 -0.415565 1.33196 0 0 0 0)
(0.886188 -0.0517137 0 -0.395275 1.56398 0 -1.60049e-15 -8.3808e-17 0)
(-0.10471 -0.00354879 0 -0.346568 1.192 0 2.87877e-16 6.06688e-18 0)
(4.19671 0.789345 0 -0.0098505 4.50883 0 1.1437e-15 -8.74682e-18 0)
(2.34996 0.295785 -8.84313e-18 -0.560283 2.7392 7.95882e-17 -1.68739e-17 8.24957e-17 2.39694e-33)
(1.83507 0.0493259 0 -0.716743 2.35291 0 0 0 0)
(0.877736 -0.15686 5.05142e-18 -0.697667 2.0985 -4.54628e-17 2.10114e-17 -6.31998e-17 1.36919e-33)
(-0.126708 -0.0585941 -5.86447e-18 -0.659521 2.13874 5.27802e-17 1.12121e-15 1.24578e-16 1.58957e-33)
(-0.148268 -0.326984 0 1.01273 1.49468 0 0 0 0)
(0.330613 0.0377062 0 1.16562 1.57609 0 0 0 0)
(0.210161 0.53534 0 0.749076 1.11629 0 0 0 0)
(-0.854501 0.665327 0 0.924194 0.18207 0 0 0 0)
(-1.92282 -0.0217112 0 1.13246 0.301476 0 0 0 0)
(-1.62799 -0.437473 0 0.315723 0.497528 0 0 0 0)
(-0.99269 -0.280367 0 0.630605 1.05176 0 0 0 0)
(-1.06769 -0.105626 0 0.882518 1.2941 0 0 0 0)
(-0.921831 0.118037 0 0.68047 1.13624 0 0 0 0)
(-0.713942 0.18901 0 0.36393 0.834477 0 0 0 0)
(-0.653691 0.142527 0 0.167499 0.587755 0 0 0 0)
(-0.699322 0.0908374 0 0.0821655 0.411111 0 0 0 0)
(-0.600179 0.0522037 0 0.0461697 0.294161 0 0 0 0)
(-0.315039 0.0241574 0 0.0184774 0.233578 0 0 0 0)
(-0.0957971 0.00935783 0 0.00535468 0.210799 0 0 0 0)
(-0.0217288 0.00439861 0 0.00242702 0.201185 0 0 0 0)
(-0.00175595 0.00438233 0 0.00392569 0.194403 0 0 0 0)
(0.0161084 0.00442502 0 0.00283121 0.186428 0 0 0 0)
(0.0487796 0.00227141 0 0.000198013 0.180752 0 0 0 0)
(0.0908053 0.000576934 0 -0.000421425 0.17872 0 0 0 0)
(0.124744 0.000183582 0 -0.000149757 0.178175 0 0 0 0)
(0.142743 0.00023157 0 0.00039167 0.17766 0 0 0 0)
(0.149123 0.000212892 0 0.000971946 0.177276 0 0 0 0)
(0.150053 0.000221871 0 0.00150425 0.176917 0 0 0 0)
(0.14932 0.000274732 0 0.00195574 0.176516 0 0 0 0)
(0.147504 9.03694e-05 0 0.00231571 0.175985 0 0 0 0)
(0.147526 0.000438573 0 0.00261077 0.176221 0 0 0 0)
(0.14556 3.05831e-05 0 0.00294002 0.174482 0 0 0 0)
(0.141536 5.46755e-05 0 0.00315916 0.176124 0 0 0 0)
(0.140193 -0.000243329 0 0.00334514 0.174345 0 0 0 0)
(0.137435 0.000351356 0 0.00355524 0.176942 0 0 0 0)
(0.132106 -0.000951437 0 0.00364857 0.173225 0 0 0 0)
(0.117978 0.000498332 0 0.00359526 0.179982 0 0 0 0)
(0.100049 -0.00129851 0 0.00244524 0.171817 0 0 0 0)
(0.0819348 -0.00192542 0 0.00274092 0.184171 0 0 0 0)
(0.0490932 0.000315974 0 0.00102666 0.178043 0 0 0 0)
(-0.167394 -7.69576e-06 0 0.00444451 0.18371 0 0 0 0)
(-0.486949 -0.0016883 0 0.00426901 0.177943 0 0 0 0)
(-0.947275 -0.00117854 0 -0.00886592 0.184806 0 0 0 0)
(-0.641376 0.00213346 0 -0.0259968 0.180752 0 0 0 0)
(-0.0499305 -0.105989 0 0.355608 1.80514 0 0 0 0)
(0.200153 0.00154977 0 0.442574 2.11026 0 0 0 0)
(0.038456 0.225149 0 -0.164923 1.67553 0 0 0 0)
(-0.814614 0.413754 0 0.0441819 0.270032 0 0 0 0)
(-1.98726 0.0353694 0 0.228031 -0.611535 0 0 0 0)
(-1.67121 -0.259584 0 -0.0844153 0.344664 0 0 0 0)
(-0.867003 -0.131253 0 0.00481027 0.89228 0 0 0 0)
(-1.00125 -0.0621708 0 0.198268 1.30842 0 0 0 0)
(-0.970057 0.0588269 0 0.158143 1.25537 0 0 0 0)
(-0.787339 0.0970859 0 0.0805108 0.902674 0 0 0 0)
(-0.703307 0.0691971 0 0.0652622 0.605649 0 0 0 0)
(-0.723795 0.0426019 0 0.0524383 0.412737 0 0 0 0)
(-0.60972 0.0259095 0 0.0252537 0.293395 0 0 0 0)
(-0.318576 0.012368 0 0.00401386 0.233287 0 0 0 0)
(-0.096679 0.0046697 0 -0.00173205 0.210354 0 0 0 0)
(-0.0214658 0.00210069 0 -0.00188171 0.201119 0 0 0 0)
(-0.00145204 0.00220951 0 -0.000685966 0.195234 0 0 0 0)
(0.016023 0.00225134 0 -0.000279866 0.186055 0 0 0 0)
(0.0488555 0.00108749 0 -0.00103976 0.180023 0 0 0 0)
(0.0911316 0.00026325 0 -0.000685609 0.178247 0 0 0 0)
(0.125081 7.57589e-05 0 -6.06685e-05 0.17804 0 0 0 0)
(0.143084 0.000112514 0 0.000630441 0.177616 0 0 0 0)
(0.149459 0.000105435 0 0.00131833 0.177244 0 0 0 0)
(0.150368 0.000109649 0 0.00196816 0.176884 0 0 0 0)
(0.149608 0.000136046 0 0.00256862 0.176481 0 0 0 0)
(0.147766 4.38945e-05 0 0.00311932 0.17594 0 0 0 0)
(0.147774 0.000217753 0 0.00363837 0.17617 0 0 0 0)
(0.145794 1.48315e-05 0 0.00418265 0.174432 0 0 0 0)
(0.14175 2.92009e-05 0 0.00470369 0.176065 0 0 0 0)
(0.140398 -0.000121476 0 0.00524708 0.174244 0 0 0 0)
(0.137624 0.000179443 0 0.00585262 0.176902 0 0 0 0)
(0.132256 -0.000478296 0 0.00647516 0.173036 0 0 0 0)
(0.118 0.000271229 0 0.00712358 0.180172 0 0 0 0)
(0.10014 -0.000629351 0 0.00749133 0.171323 0 0 0 0)
(0.0819636 -0.000949212 0 0.00899444 0.184636 0 0 0 0)
(0.0494043 0.000185009 0 0.0097305 0.177942 0 0 0 0)
(-0.166886 0.000117728 0 0.0135676 0.18355 0 0 0 0)
(-0.488664 -0.000743162 0 0.0174125 0.177968 0 0 0 0)
(-0.951289 -0.000631419 0 0.0142203 0.189353 0 0 0 0)
(-0.643581 0.00104149 0 0.00768183 0.18202 0 0 0 0)
(-0.113631 -3.9185e-12 0 -1.45086e-12 1.89826 0 0 0 0)
(0.179186 1.08678e-12 0 1.85694e-11 2.17987 0 0 0 0)
(0.0942647 8.49959e-12 0 -3.16429e-11 1.8876 0 0 0 0)
(-0.740187 -1.18552e-10 0 -1.15477e-10 0.631972 0 0 0 0)
(-1.96023 -8.97534e-11 0 -4.91916e-10 -0.956957 0 0 0 0)
(-1.69292 9.80909e-11 0 -5.33857e-10 0.388808 0 0 0 0)
(-0.910455 9.05431e-11 0 -2.25092e-10 0.827681 0 0 0 0)
(-1.02308 1.29977e-11 0 -7.62411e-11 1.29117 0 0 0 0)
(-0.956088 -7.47927e-12 0 1.02717e-10 1.25511 0 0 0 0)
(-0.740961 1.64919e-11 0 8.33456e-11 0.886736 0 0 0 0)
(-0.661858 2.21804e-11 0 -4.152e-11 0.587639 0 0 0 0)
(-0.71096 1.02637e-11 0 -7.93882e-11 0.411006 0 0 0 0)
(-0.614266 5.20405e-12 0 -6.6088e-11 0.294752 0 0 0 0)
(-0.322889 6.08074e-12 0 -5.92231e-11 0.232878 0 0 0 0)
(-0.0975122 -9.67799e-14 0 -5.1393e-11 0.209722 0 0 0 0)
(-0.0214245 -1.26182e-11 0 -3.89123e-11 0.200774 0 0 0 0)
(-0.00128996 -3.46792e-11 0 -1.97529e-11 0.195279 0 0 0 0)
(0.0160055 -5.51151e-11 0 -7.09623e-12 0.185584 0 0 0 0)
(0.0486615 -3.3398e-11 0 3.38346e-11 0.179801 0 0 0 0)
(0.0910901 1.51278e-11 0 4.97932e-11 0.178107 0 0 0 0)
(0.125127 5.5251e-11 0 5.77394e-11 0.177991 0 0 0 0)
(0.143144 5.28237e-11 0 6.75877e-11 0.177587 0 0 0 0)
(0.149512 -4.54185e-12 0 7.74766e-11 0.177218 0 0 0 0)
(0.150417 -6.36899e-11 0 8.22702e-11 0.176862 0 0 0 0)
(0.149655 -6.05706e-11 0 7.8202e-11 0.176464 0 0 0 0)
(0.147815 -3.70379e-11 0 6.70609e-11 0.175926 0 0 0 0)
(0.147835 -1.54597e-11 0 5.20668e-11 0.176162 0 0 0 0)
(0.14587 5.18204e-11 0 3.76405e-11 0.174429 0 0 0 0)
(0.141846 3.54615e-11 0 2.66842e-11 0.17606 0 0 0 0)
(0.140527 1.18038e-11 0 2.38781e-11 0.174229 0 0 0 0)
(0.137793 7.27277e-11 0 1.80303e-11 0.176896 0 0 0 0)
(0.132476 3.23952e-11 0 4.65714e-12 0.172995 0 0 0 0)
(0.118274 -4.72881e-11 0 -2.28234e-11 0.180184 0 0 0 0)
(0.100593 -1.50831e-11 0 -5.91905e-11 0.17113 0 0 0 0)
(0.0825862 5.0892e-11 0 -9.18152e-11 0.184511 0 0 0 0)
(0.0504236 2.45496e-11 0 -1.58747e-10 0.177656 0 0 0 0)
(-0.165159 -2.4533e-11 0 -2.32321e-10 0.183239 0 0 0 0)
(-0.486759 -2.56775e-11 0 -2.8588e-10 0.176847 0 0 0 0)
(-0.950106 -2.1307e-11 0 -2.36602e-10 0.188348 0 0 0 0)
(-0.643278 -9.1644e-12 0 -1.58745e-10 0.181188 0 0 0 0)
(-0.0499305 0.105989 0 -0.355608 1.80514 0 0 0 0)
(0.200153 -0.00154977 0 -0.442574 2.11026 0 0 0 0)
(0.038456 -0.225149 0 0.164923 1.67553 0 0 0 0)
(-0.814614 -0.413754 0 -0.0441819 0.270032 0 0 0 0)
(-1.98726 -0.0353694 0 -0.228031 -0.611535 0 0 0 0)
(-1.67121 0.259584 0 0.0844153 0.344664 0 0 0 0)
(-0.867003 0.131253 0 -0.00481027 0.89228 0 0 0 0)
(-1.00125 0.0621708 0 -0.198268 1.30842 0 0 0 0)
(-0.970057 -0.0588269 0 -0.158143 1.25537 0 0 0 0)
(-0.787339 -0.0970859 0 -0.0805108 0.902674 0 0 0 0)
(-0.703307 -0.0691971 0 -0.0652622 0.605649 0 0 0 0)
(-0.723795 -0.0426019 0 -0.0524383 0.412737 0 0 0 0)
(-0.60972 -0.0259095 0 -0.0252537 0.293395 0 0 0 0)
(-0.318576 -0.012368 0 -0.00401386 0.233287 0 0 0 0)
(-0.096679 -0.0046697 0 0.00173205 0.210354 0 0 0 0)
(-0.0214658 -0.00210069 0 0.00188171 0.201119 0 0 0 0)
(-0.00145204 -0.00220951 0 0.000685966 0.195234 0 0 0 0)
(0.016023 -0.00225134 0 0.000279866 0.186055 0 0 0 0)
(0.0488555 -0.00108749 0 0.00103976 0.180023 0 0 0 0)
(0.0911316 -0.00026325 0 0.000685609 0.178247 0 0 0 0)
(0.125081 -7.57588e-05 0 6.06685e-05 0.17804 0 0 0 0)
(0.143084 -0.000112514 0 -0.000630441 0.177616 0 0 0 0)
(0.149459 -0.000105435 0 -0.00131833 0.177244 0 0 0 0)
(0.150368 -0.000109649 0 -0.00196816 0.176884 0 0 0 0)
(0.149608 -0.000136046 0 -0.00256862 0.176481 0 0 0 0)
(0.147766 -4.38946e-05 0 -0.00311932 0.17594 0 0 0 0)
(0.147774 -0.000217753 0 -0.00363837 0.17617 0 0 0 0)
(0.145794 -1.48314e-05 0 -0.00418265 0.174432 0 0 0 0)
(0.14175 -2.92008e-05 0 -0.00470369 0.176065 0 0 0 0)
(0.140398 0.000121476 0 -0.00524708 0.174244 0 0 0 0)
(0.137624 -0.000179443 0 -0.00585262 0.176902 0 0 0 0)
(0.132256 0.000478296 0 -0.00647516 0.173036 0 0 0 0)
(0.118 -0.00027123 0 -0.00712358 0.180172 0 0 0 0)
(0.10014 0.000629351 0 -0.00749133 0.171323 0 0 0 0)
(0.0819636 0.000949212 0 -0.00899444 0.184636 0 0 0 0)
(0.0494043 -0.000185009 0 -0.0097305 0.177942 0 0 0 0)
(-0.166886 -0.000117728 0 -0.0135676 0.18355 0 0 0 0)
(-0.488664 0.000743162 0 -0.0174125 0.177968 0 0 0 0)
(-0.951289 0.000631419 0 -0.0142203 0.189353 0 0 0 0)
(-0.643581 -0.00104149 0 -0.00768183 0.18202 0 0 0 0)
(-0.148268 0.326984 0 -1.01273 1.49468 0 0 0 0)
(0.330613 -0.0377062 0 -1.16562 1.57609 0 0 0 0)
(0.210161 -0.53534 0 -0.749076 1.11629 0 0 0 0)
(-0.854501 -0.665327 0 -0.924194 0.18207 0 0 0 0)
(-1.92282 0.0217112 0 -1.13246 0.301476 0 0 0 0)
(-1.62799 0.437473 0 -0.315723 0.497528 0 0 0 0)
(-0.99269 0.280367 0 -0.630605 1.05176 0 0 0 0)
(-1.06769 0.105626 0 -0.882518 1.2941 0 0 0 0)
(-0.921831 -0.118037 0 -0.68047 1.13624 0 0 0 0)
(-0.713942 -0.18901 0 -0.36393 0.834477 0 0 0 0)
(-0.653691 -0.142527 0 -0.167499 0.587755 0 0 0 0)
(-0.699322 -0.0908374 0 -0.0821655 0.411111 0 0 0 0)
(-0.600179 -0.0522037 0 -0.0461697 0.294161 0 0 0 0)
(-0.315039 -0.0241574 0 -0.0184774 0.233578 0 0 0 0)
(-0.0957971 -0.00935783 0 -0.00535468 0.210799 0 0 0 0)
(-0.0217288 -0.00439861 0 -0.00242702 0.201185 0 0 0 0)
(-0.00175595 -0.00438233 0 -0.00392569 0.194403 0 0 0 0)
(0.0161084 -0.00442502 0 -0.00283121 0.186428 0 0 0 0)
(0.0487796 -0.00227141 0 -0.000198013 0.180752 0 0 0 0)
(0.0908053 -0.000576934 0 0.000421424 0.17872 0 0 0 0)
(0.124744 -0.000183582 0 0.000149757 0.178175 0 0 0 0)
(0.142743 -0.00023157 0 -0.00039167 0.17766 0 0 0 0)
(0.149123 -0.000212892 0 -0.000971947 0.177276 0 0 0 0)
(0.150053 -0.000221871 0 -0.00150425 0.176917 0 0 0 0)
(0.14932 -0.000274732 0 -0.00195574 0.176516 0 0 0 0)
(0.147504 -9.03695e-05 0 -0.00231571 0.175985 0 0 0 0)
(0.147526 -0.000438573 0 -0.00261077 0.176221 0 0 0 0)
(0.14556 -3.0583e-05 0 -0.00294002 0.174482 0 0 0 0)
(0.141536 -5.46755e-05 0 -0.00315916 0.176124 0 0 0 0)
(0.140193 0.000243329 0 -0.00334514 0.174345 0 0 0 0)
(0.137435 -0.000351355 0 -0.00355524 0.176942 0 0 0 0)
(0.132106 0.000951437 0 -0.00364857 0.173225 0 0 0 0)
(0.117978 -0.000498332 0 -0.00359526 0.179982 0 0 0 0)
(0.100049 0.00129851 0 -0.00244524 0.171817 0 0 0 0)
(0.0819348 0.00192542 0 -0.00274092 0.184171 0 0 0 0)
(0.0490932 -0.000315974 0 -0.00102666 0.178043 0 0 0 0)
(-0.167394 7.6957e-06 0 -0.00444451 0.18371 0 0 0 0)
(-0.486949 0.0016883 0 -0.00426901 0.177943 0 0 0 0)
(-0.947275 0.00117854 0 0.00886592 0.184806 0 0 0 0)
(-0.641376 -0.00213346 0 0.0259968 0.180752 0 0 0 0)
(0.0229227 0.0367606 0 -0.932624 0.853984 0 0 0 0)
(0.214693 -0.197096 0 -0.946578 0.789057 0 0 0 0)
(-0.00863938 -0.740923 0 -1.44563 0.701449 0 0 0 0)
(-1.00898 -0.633986 0 -1.74684 0.658199 0 0 0 0)
(-1.6801 0.0965097 0 -1.82355 0.967484 0 0 0 0)
(-1.40639 0.524534 0 -1.14786 0.962651 0 0 0 0)
(-1.07721 0.458508 0 -1.25948 1.18333 0 0 0 0)
(-0.955704 0.0649181 0 -1.12291 1.11016 0 0 0 0)
(-0.700522 -0.278675 0 -0.712779 0.885163 0 0 0 0)
(-0.550432 -0.334852 0 -0.378743 0.673513 0 0 0 0)
(-0.583931 -0.249976 0 -0.218975 0.509616 0 0 0 0)
(-0.675986 -0.170993 0 -0.160455 0.382831 0 0 0 0)
(-0.580804 -0.106868 0 -0.108403 0.283005 0 0 0 0)
(-0.297064 -0.0510275 0 -0.0471636 0.229254 0 0 0 0)
(-0.0876308 -0.0195686 0 -0.0182728 0.2093 0 0 0 0)
(-0.0202655 -0.00972851 0 -0.0113257 0.200023 0 0 0 0)
(-0.00135418 -0.00895327 0 -0.0120442 0.192469 0 0 0 0)
(0.0182625 -0.008301 0 -0.00980019 0.185618 0 0 0 0)
(0.0509835 -0.0045542 0 -0.00440221 0.181106 0 0 0 0)
(0.091727 -0.0015166 0 -0.00101283 0.179063 0 0 0 0)
(0.12496 -0.000615584 0 1.81047e-05 0.178237 0 0 0 0)
(0.142774 -0.000538853 0 7.34668e-05 0.177583 0 0 0 0)
(0.149148 -0.000447572 0 -2.31184e-05 0.177161 0 0 0 0)
(0.150116 -0.000456661 0 -4.19874e-05 0.176801 0 0 0 0)
(0.149432 -0.000559864 0 5.99371e-05 0.176414 0 0 0 0)
(0.147658 -0.000175089 0 0.000279963 0.175909 0 0 0 0)
(0.14767 -0.000905193 0 0.000592898 0.176162 0 0 0 0)
(0.14572 -5.79125e-05 0 0.00078708 0.174429 0 0 0 0)
(0.141744 -8.58844e-05 0 0.00117708 0.176063 0 0 0 0)
(0.140388 0.000494247 0 0.00158418 0.174337 0 0 0 0)
(0.137652 -0.000683381 0 0.00190658 0.176812 0 0 0 0)
(0.132405 0.00183789 0 0.00241005 0.173315 0 0 0 0)
(0.11878 -0.000891625 0 0.00299469 0.179395 0 0 0 0)
(0.100782 0.00248328 0 0.00543164 0.172276 0 0 0 0)
(0.0828866 0.00372552 0 0.00590568 0.182776 0 0 0 0)
(0.0486953 -0.000322904 0 0.00863989 0.177312 0 0 0 0)
(-0.168332 -0.000324979 0 0.00339652 0.18337 0 0 0 0)
(-0.482299 0.000337841 0 0.00283276 0.176218 0 0 0 0)
(-0.936944 0.00176051 0 0.0114504 0.179207 0 0 0 0)
(-0.635386 -0.00232178 0 0.0234202 0.179841 0 0 0 0)
(-0.00854839 0.0540818 0 -1.42474 0.573349 0 0 0 0)
(-0.101574 -0.0992254 0 -1.43018 0.455442 0 0 0 0)
(-0.443677 -0.551199 0 -1.86205 0.475366 0 0 0 0)
(-1.13585 -0.425771 0 -2.24976 0.814884 0 0 0 0)
(-1.47577 0.274983 0 -2.17228 1.14798 0 0 0 0)
(-1.20325 0.598781 0 -1.81992 1.24753 0 0 0 0)
(-0.923328 0.326989 0 -1.5802 1.03206 0 0 0 0)
(-0.600918 -0.159866 0 -1.14752 0.770144 0 0 0 0)
(-0.323394 -0.452668 0 -0.714437 0.599152 0 0 0 0)
(-0.325773 -0.472695 0 -0.458053 0.480594 0 0 0 0)
(-0.480749 -0.365022 0 -0.340618 0.400397 0 0 0 0)
(-0.605283 -0.266226 0 -0.267849 0.316953 0 0 0 0)
(-0.501397 -0.170883 0 -0.166471 0.250494 0 0 0 0)
(-0.237826 -0.0807731 0 -0.0662054 0.220194 0 0 0 0)
(-0.0656414 -0.0320503 0 -0.0255961 0.20699 0 0 0 0)
(-0.0165113 -0.0177596 0 -0.0175345 0.198347 0 0 0 0)
(-0.000501397 -0.0158124 0 -0.0174019 0.190218 0 0 0 0)
(0.0223174 -0.0132971 0 -0.0140994 0.184221 0 0 0 0)
(0.0560656 -0.00736426 0 -0.00742856 0.180663 0 0 0 0)
(0.0945706 -0.00283716 0 -0.00225867 0.178948 0 0 0 0)
(0.125675 -0.00137805 0 -0.000325299 0.178037 0 0 0 0)
(0.142687 -0.00110351 0 -0.000189731 0.177211 0 0 0 0)
(0.148999 -0.000840228 0 -0.000472575 0.176705 0 0 0 0)
(0.1501 -0.000815986 0 -0.000669474 0.176328 0 0 0 0)
(0.149571 -0.000981791 0 -0.00066523 0.175954 0 0 0 0)
(0.147935 -0.000287999 0 -0.000480325 0.175477 0 0 0 0)
(0.147937 -0.00161436 0 -0.000126595 0.175747 0 0 0 0)
(0.146037 -0.000111647 0 3.16338e-05 0.174032 0 0 0 0)
(0.142192 -0.000127058 0 0.000520422 0.175633 0 0 0 0)
(0.140791 0.0008309 0 0.000998416 0.174023 0 0 0 0)
(0.138115 -0.00115758 0 0.00132683 0.176284 0 0 0 0)
(0.132994 0.00296545 0 0.0018903 0.173193 0 0 0 0)
(0.12046 -0.00128938 0 0.00243349 0.17826 0 0 0 0)
(0.102461 0.0039211 0 0.0054474 0.172874 0 0 0 0)
(0.084516 0.00581377 0 0.00628807 0.18053 0 0 0 0)
(0.0468886 0.000260028 0 0.0089809 0.17622 0 0 0 0)
(-0.172487 -0.000868107 0 0.0012979 0.182892 0 0 0 0)
(-0.481681 -0.00159901 0 -0.000334991 0.175871 0 0 0 0)
(-0.932977 0.00435699 0 0.00429873 0.180646 0 0 0 0)
(-0.633054 -0.00142199 0 0.00936248 0.181298 0 0 0 0)
(0.0176881 -0.0768588 0 -2.23665 0.393412 0 0 0 0)
(-0.20671 -0.291516 0 -2.40998 0.187134 0 0 0 0)
(-0.798425 -0.394553 0 -2.65338 0.37898 0 0 0 0)
(-1.30793 0.0141688 0 -2.84634 1.01773 0 0 0 0)
(-1.26589 0.513423 0 -2.53789 1.29769 0 0 0 0)
(-0.835849 0.412827 0 -1.99399 1.05968 0 0 0 0)
(-0.429262 -0.00151827 0 -1.45087 0.650884 0 0 0 0)
(-0.121419 -0.352244 0 -0.927832 0.389043 0 0 0 0)
(-0.0361243 -0.557695 0 -0.618373 0.284176 0 0 0 0)
(-0.190206 -0.52638 0 -0.475677 0.282361 0 0 0 0)
(-0.400643 -0.407666 0 -0.405378 0.275925 0 0 0 0)
(-0.508171 -0.315445 0 -0.325779 0.237909 0 0 0 0)
(-0.386493 -0.200109 0 -0.188376 0.216526 0 0 0 0)
(-0.161312 -0.0929491 0 -0.0733851 0.211453 0 0 0 0)
(-0.0407298 -0.0406216 0 -0.0321415 0.2045 0 0 0 0)
(-0.0123691 -0.0258908 0 -0.0252354 0.195812 0 0 0 0)
(0.00195593 -0.022565 0 -0.023126 0.187537 0 0 0 0)
(0.0278731 -0.0175085 0 -0.0176721 0.182457 0 0 0 0)
(0.0623937 -0.00963543 0 -0.00988195 0.179673 0 0 0 0)
(0.098572 -0.00404728 0 -0.00360528 0.178401 0 0 0 0)
(0.126954 -0.00228951 0 -0.000913332 0.177461 0 0 0 0)
(0.142632 -0.00182263 0 -0.000569933 0.176487 0 0 0 0)
(0.148686 -0.00129856 0 -0.000934341 0.175883 0 0 0 0)
(0.14993 -0.00117983 0 -0.0012663 0.175486 0 0 0 0)
(0.149614 -0.00138044 0 -0.00135541 0.175138 0 0 0 0)
(0.148177 -0.00037437 0 -0.00122941 0.1747 0 0 0 0)
(0.148164 -0.00229686 0 -0.000869921 0.175004 0 0 0 0)
(0.146344 -0.00016791 0 -0.000754172 0.173367 0 0 0 0)
(0.142676 -9.45543e-05 0 -0.000202842 0.174919 0 0 0 0)
(0.141165 0.00112106 0 0.000299893 0.17354 0 0 0 0)
(0.138511 -0.00148371 0 0.000570238 0.175527 0 0 0 0)
(0.133471 0.00374259 0 0.00110113 0.173073 0 0 0 0)
(0.122208 -0.00119859 0 0.00146921 0.176952 0 0 0 0)
(0.104497 0.00467068 0 0.00461619 0.173535 0 0 0 0)
(0.0862916 0.00694935 0 0.00576619 0.177885 0 0 0 0)
(0.0438866 0.00195301 0 0.00820056 0.17536 0 0 0 0)
(-0.177309 -0.000660678 0 -0.000502564 0.181741 0 0 0 0)
(-0.479407 -0.00182675 0 -0.00164414 0.176156 0 0 0 0)
(-0.927599 0.00699009 0 0.00478883 0.182956 0 0 0 0)
(-0.630506 -0.00169283 0 0.0112568 0.182255 0 0 0 0)
(-0.175575 -0.144695 0 -2.84779 0.291265 0 0 0 0)
(-0.503151 -0.113132 0 -3.21774 0.339236 0 0 0 0)
(-0.864178 0.249189 0 -3.26886 0.80278 0 0 0 0)
(-1.02456 0.459527 0 -2.91339 1.13367 0 0 0 0)
(-0.65441 0.315409 0 -2.20538 0.919702 0 0 0 0)
(-0.155758 -0.0245004 0 -1.50614 0.487116 0 0 0 0)
(0.104062 -0.319258 0 -0.956912 0.202802 0 0 0 0)
(0.201311 -0.51324 0 -0.646002 0.060944 0 0 0 0)
(0.11232 -0.555471 0 -0.516129 0.0798105 0 0 0 0)
(-0.120525 -0.480645 0 -0.467774 0.155124 0 0 0 0)
(-0.336301 -0.407858 0 -0.423868 0.170227 0 0 0 0)
(-0.396172 -0.323465 0 -0.334871 0.171048 0 0 0 0)
(-0.258181 -0.196377 0 -0.179917 0.191595 0 0 0 0)
(-0.0872724 -0.0923617 0 -0.0752694 0.203118 0 0 0 0)
(-0.0192427 -0.0471224 0 -0.041529 0.199589 0 0 0 0)
(-0.00782356 -0.0341059 0 -0.0346315 0.190919 0 0 0 0)
(0.00678692 -0.0286817 0 -0.0292392 0.183581 0 0 0 0)
(0.0350798 -0.0208747 0 -0.0211435 0.179735 0 0 0 0)
(0.0696209 -0.0112726 0 -0.012042 0.177712 0 0 0 0)
(0.103213 -0.00496918 0 -0.00496501 0.177041 0 0 0 0)
(0.1286 -0.00322221 0 -0.00173852 0.176215 0 0 0 0)
(0.142667 -0.00262395 0 -0.00109723 0.175181 0 0 0 0)
(0.148328 -0.00180522 0 -0.00133076 0.174514 0 0 0 0)
(0.149694 -0.00153404 0 -0.00158603 0.174114 0 0 0 0)
(0.149606 -0.00173962 0 -0.00159526 0.173816 0 0 0 0)
(0.148403 -0.00041717 0 -0.00137857 0.173423 0 0 0 0)
(0.148395 -0.00289887 0 -0.000887163 0.173778 0 0 0 0)
(0.14668 -0.000193697 0 -0.000589596 0.172307 0 0 0 0)
(0.143208 4.00115e-05 0 0.00013231 0.173781 0 0 0 0)
(0.141536 0.00141679 0 0.000824329 0.172687 0 0 0 0)
(0.138887 -0.00160733 0 0.00123073 0.174415 0 0 0 0)
(0.133861 0.00433875 0 0.00193647 0.172643 0 0 0 0)
(0.123847 -0.0008445 0 0.00236957 0.175556 0 0 0 0)
(0.106602 0.00482053 0 0.0055431 0.173637 0 0 0 0)
(0.0879701 0.00757297 0 0.00712748 0.175865 0 0 0 0)
(0.0408478 0.00397537 0 0.00920867 0.174635 0 0 0 0)
(-0.181974 -0.000101732 0 0.00183095 0.178929 0 0 0 0)
(-0.476582 -0.000427921 0 0.00150452 0.175237 0 0 0 0)
(-0.920545 0.0102348 0 0.00913734 0.18355 0 0 0 0)
(-0.626821 -0.00209706 0 0.0175555 0.183237 0 0 0 0)
(-0.338815 -0.0306317 0 -2.76595 0.466718 0 0 0 0)
(-0.61247 0.201399 0 -2.81524 0.681556 0 0 0 0)
(-0.505142 0.370995 0 -2.55468 0.753746 0 0 0 0)
(-0.283124 0.126839 0 -1.92881 0.479739 0 0 0 0)
(0.0901942 -0.109622 0 -1.22661 0.131484 0 0 0 0)
(0.367223 -0.278004 0 -0.801401 -0.045969 0 0 0 0)
(0.399598 -0.412193 0 -0.536216 -0.102991 0 0 0 0)
(0.303335 -0.470764 0 -0.45755 -0.0739479 0 0 0 0)
(0.135623 -0.46694 0 -0.445405 0.0180351 0 0 0 0)
(-0.1013 -0.439251 0 -0.453662 0.0794514 0 0 0 0)
(-0.272573 -0.392321 0 -0.413356 0.100887 0 0 0 0)
(-0.27309 -0.294854 0 -0.301122 0.13845 0 0 0 0)
(-0.136331 -0.169205 0 -0.149946 0.18164 0 0 0 0)
(-0.0279563 -0.0852459 0 -0.0712204 0.196952 0 0 0 0)
(-0.0015696 -0.0523766 0 -0.047731 0.193266 0 0 0 0)
(-0.000526308 -0.0413165 0 -0.0401733 0.185248 0 0 0 0)
(0.0149535 -0.0333425 0 -0.0322519 0.17932 0 0 0 0)
(0.044445 -0.0231645 0 -0.0224398 0.176612 0 0 0 0)
(0.0779839 -0.012232 0 -0.0126993 0.175293 0 0 0 0)
(0.108501 -0.00548939 0 -0.00549706 0.174805 0 0 0 0)
(0.130681 -0.00408173 0 -0.00224568 0.174124 0 0 0 0)
(0.143025 -0.00346189 0 -0.00160635 0.173069 0 0 0 0)
(0.148215 -0.00232604 0 -0.00189621 0.172377 0 0 0 0)
(0.149675 -0.0018525 0 -0.00224835 0.172004 0 0 0 0)
(0.149814 -0.00204717 0 -0.00237856 0.171791 0 0 0 0)
(0.14886 -0.000411108 0 -0.0022862 0.171455 0 0 0 0)
(0.148924 -0.0033719 0 -0.00191621 0.171894 0 0 0 0)
(0.147326 -0.000164969 0 -0.00161999 0.170709 0 0 0 0)
(0.144038 0.000271919 0 -0.00105739 0.172112 0 0 0 0)
(0.142223 0.00173191 0 -0.000473093 0.171358 0 0 0 0)
(0.139583 -0.00152664 0 -0.000239903 0.172881 0 0 0 0)
(0.134569 0.00484236 0 0.00030331 0.171812 0 0 0 0)
(0.125683 -0.000240328 0 0.000436026 0.174019 0 0 0 0)
(0.109082 0.00496835 0 0.00298636 0.173305 0 0 0 0)
(0.0898239 0.0079105 0 0.00440221 0.173939 0 0 0 0)
(0.0387827 0.00490592 0 0.00526691 0.173709 0 0 0 0)
(-0.184733 -8.02206e-05 0 -0.00162853 0.175355 0 0 0 0)
(-0.472366 0.00262567 0 -0.00281309 0.173506 0 0 0 0)
(-0.912132 0.0146991 0 0.00359677 0.184039 0 0 0 0)
(-0.622394 -0.00199418 0 0.0113589 0.18451 0 0 0 0)
(-0.22307 0.0623304 0 -1.56668 0.140326 0 0 0 0)
(-0.29956 0.163458 0 -1.45381 0.233801 0 0 0 0)
(-0.00998413 0.0547107 0 -1.17048 0.038425 0 0 0 0)
(0.255207 -0.140107 0 -0.782396 -0.1801 0 0 0 0)
(0.432005 -0.191182 0 -0.488245 -0.238143 0 0 0 0)
(0.509535 -0.250449 0 -0.364601 -0.195842 0 0 0 0)
(0.435409 -0.34622 0 -0.351868 -0.150302 0 0 0 0)
(0.28882 -0.396615 0 -0.370927 -0.0835246 0 0 0 0)
(0.116067 -0.407649 0 -0.407476 -0.0216788 0 0 0 0)
(-0.0896409 -0.400806 0 -0.426985 0.0227747 0 0 0 0)
(-0.189308 -0.351004 0 -0.371564 0.0657838 0 0 0 0)
(-0.14234 -0.245649 0 -0.244508 0.129131 0 0 0 0)
(-0.0366398 -0.140002 0 -0.125057 0.175361 0 0 0 0)
(0.0112258 -0.0811581 0 -0.0740903 0.187588 0 0 0 0)
(0.0106755 -0.0584014 0 -0.0576399 0.183652 0 0 0 0)
(0.00709266 -0.0475448 0 -0.0483616 0.177614 0 0 0 0)
(0.0238756 -0.037003 0 -0.0374124 0.173772 0 0 0 0)
(0.0539214 -0.024755 0 -0.0253459 0.172259 0 0 0 0)
(0.0859475 -0.0130141 0 -0.0146374 0.17215 0 0 0 0)
(0.113287 -0.00609571 0 -0.00709379 0.171684 0 0 0 0)
(0.132349 -0.00489552 0 -0.00338137 0.171085 0 0 0 0)
(0.143004 -0.00430769 0 -0.002196 0.170045 0 0 0 0)
(0.147709 -0.00283155 0 -0.00193661 0.169375 0 0 0 0)
(0.149229 -0.00209921 0 -0.00178044 0.169065 0 0 0 0)
(0.14957 -0.00226846 0 -0.0014522 0.168973 0 0 0 0)
(0.148848 -0.000317797 0 -0.000923778 0.168704 0 0 0 0)
(0.149037 -0.00361719 0 -0.000189689 0.169254 0 0 0 0)
(0.147507 1.71212e-05 0 0.00071866 0.168422 0 0 0 0)
(0.144313 0.000665416 0 0.00159581 0.169763 0 0 0 0)
(0.142324 0.00215771 0 0.00256674 0.169353 0 0 0 0)
(0.139636 -0.00117029 0 0.00314478 0.170723 0 0 0 0)