/*--------------------------------*- C++ -*----------------------------------*\
| =========                 |                                                 |
| \\      /  F ield         | OpenFOAM: The Open Source CFD Toolbox           |
|  \\    /   O peration     | Version:  v1912                                 |
|   \\  /    A nd           | Website:  www.openfoam.com                      |
|    \\/     M anipulation  |                                                 |
\*---------------------------------------------------------------------------*/
FoamFile
{
    version     2.0;
    format      ascii;
    class       volVectorField;
    location    "4.44";
    object      grad(rho);
}
// * * * * * * * * * * * * * * * * * * * * * * * * * * * * * * * * * * * * * //

dimensions      [1 -4 0 0 0 0 0];


internalField   nonuniform List<vector> 
1900
(
(151445 -0.0712967 0)
(-123811 0.580569 0)
(-15892.8 0.360671 0)
(-3019.74 -0.0669406 0)
(-2147.84 0.915617 0)
(-1913 2.55216 0)
(-1973.92 10.4898 0)
(-2110.92 26.5557 0)
(-2061.53 -25.6394 0)
(-1373.57 -137.865 0)
(151445 -0.0770546 0)
(-123811 0.994693 0)
(-15893.4 0.780603 0)
(-3019.19 -0.0087985 0)
(-2145.22 0.132075 0)
(-1903.42 -1.76698 0)
(-1949.91 0.799 0)
(-2147.05 10.8046 0)
(-2225.96 -54.6591 0)
(-2075.97 -179.203 0)
(151446 2.33769e-08 0)
(-123811 -6.75016e-10 0)
(-15893.8 -2.66454e-10 0)
(-3020.39 7.62057e-09 0)
(-2149.6 9.14824e-09 0)
(-1912.33 4.60076e-09 0)
(-1961.34 -3.55271e-11 0)
(-2166.38 -2.41585e-09 0)
(-2251.54 -3.55271e-09 0)
(-2088.82 -4.79616e-10 0)
(151445 0.0770546 0)
(-123811 -0.994693 0)
(-15893.4 -0.780603 0)
(-3019.19 0.00879851 0)
(-2145.22 -0.132075 0)
(-1903.42 1.76698 0)
(-1949.91 -0.799 0)
(-2147.05 -10.8046 0)
(-2225.96 54.6591 0)
(-2075.97 179.203 0)
(151445 0.0712967 0)
(-123811 -0.580569 0)
(-15892.8 -0.360671 0)
(-3019.74 0.0669406 0)
(-2147.84 -0.915617 0)
(-1913 -2.55216 0)
(-1973.92 -10.4898 0)
(-2110.92 -26.5557 0)
(-2061.53 25.6394 0)
(-1373.57 137.865 0)
(-780.572 -657.469 1.35058e-11)
(-548.27 -893.806 -1.60992e-11)
(-123.623 -1196.12 -2.03523e-11)
(1374.58 -1511.18 0)
(-4551.27 -7082.91 -8.84524e-11)
(-1514.31 -702.861 1.3387e-11)
(-739.89 -898.195 1.60992e-11)
(-97.2114 -1314.42 2.03523e-11)
(-443.362 -1690.19 0)
(-4146.92 -6303.43 0)
(-1711.45 1.3194e-09 0)
(-1133.22 1.36343e-09 0)
(-694.397 -3.45403e-09 0)
(-601.346 -5.78662e-09 0)
(-6644.42 -7.40149e-09 0)
(-1514.31 702.861 1.3387e-11)
(-739.89 898.195 1.60992e-11)
(-97.2114 1314.42 2.03523e-11)
(-443.362 1690.19 0)
(-4146.92 6303.43 0)
(-780.572 657.469 -4.02798e-11)
(-548.27 893.806 -1.60992e-11)
(-123.623 1196.12 -2.03523e-11)
(1374.58 1511.18 -5.55873e-11)
(-4551.27 7082.91 8.84524e-11)
(-13207.6 5296.85 3.2657e-11)
(-5827.12 1931.15 -2.64922e-11)
(-7465.87 858.431 0)
(-9331.24 907.15 1.78535e-11)
(-13640.1 629.843 -7.22978e-12)
(-10259.4 5615.04 -1.64083e-11)
(-6824.56 1367.99 1.32752e-11)
(-7671.01 656.238 0)
(-9361.99 667.443 -1.11805e-11)
(-13585.1 -8.18845 1.81213e-12)
(-11035.7 -4.30632e-09 0)
(-7093.85 -2.20147e-09 0)
(-7665.84 1.38161e-09 0)
(-9635.88 -2.03178e-09 4.48024e-12)
(-13383.4 -9.24537e-09 -3.62425e-12)
(-10259.4 -5615.04 -1.64083e-11)
(-6824.56 -1367.99 1.32752e-11)
(-7671.01 -656.238 0)
(-9361.99 -667.443 -1.11805e-11)
(-13585.1 8.18845 1.81213e-12)
(-13207.6 -5296.85 1.64083e-11)
(-5827.12 -1931.15 -5.816e-14)
(-7465.87 -858.431 0)
(-9331.24 -907.15 2.73204e-14)
(-13640.1 -629.843 7.22978e-12)
(-17271.3 -3345.24 0)
(-7965.65 3630.11 0)
(1633.53 2994.75 0)
(5.13201 2062.93 0)
(-1458.15 1031 0)
(-1548.49 451.236 0)
(-1726.38 280.067 0)
(-1842.27 181.663 0)
(-1647.41 99.895 0)
(-1225.17 46.9681 0)
(-733.875 12.6003 0)
(-461.626 7.58427 0)
(-347.22 7.9799 0)
(-286.708 6.9393 0)
(-238.806 5.2163 0)
(-196.65 3.76529 0)
(-161.29 2.78957 0)
(-132.024 2.18109 0)
(-108.837 1.78822 0)
(-89.3685 1.51256 0)
(-71.517 1.27938 0)
(-57.6589 1.09222 0)
(-45.6301 0.969073 0)
(-34.0289 0.893895 0)
(-23.7861 0.881121 0)
(-14.6005 0.92482 0)
(-6.88411 1.03305 0)
(-1.76339 1.07313 0)
(2.44922 1.16088 0)
(4.7284 0.781569 0)
(19.2474 0.796215 0)
(39.6637 0.835557 0)
(79.7617 1.11299 0)
(108.541 4.1888 0)
(133.816 5.26156 0)
(142.16 11.6579 0)
(122.668 9.08688 0)
(3125.18 17.5633 0)
(63569.5 -68.7839 0)
(-69000.9 -4277.9 0)
(-16833.5 1558.91 0)
(-8056.99 5706.7 0)
(1229.61 3515.47 0)
(-69.6127 1650.58 0)
(-1591.97 743.104 0)
(-1642.39 247.066 0)
(-1758.33 138.573 0)
(-1865.84 82.5236 0)
(-1661.46 24.7273 0)
(-1228.94 14.931 0)
(-737.046 3.31493 0)
(-461.875 1.30255 0)
(-347.093 1.80223 0)
(-286.833 1.65716 0)
(-239.011 1.11598 0)
(-196.809 0.652186 0)
(-161.39 0.357458 0)
(-132.082 0.182807 0)
(-108.87 0.0883759 0)
(-89.3948 0.0286225 0)
(-71.5441 -0.0324948 0)
(-57.687 -0.100202 0)
(-45.6597 -0.172389 0)
(-34.0597 -0.253557 0)
(-23.8167 -0.333508 0)
(-14.6292 -0.407654 0)
(-6.92167 -0.462725 0)
(-1.80426 -0.538464 0)
(2.37707 -0.55495 0)
(4.65591 -0.661581 0)
(19.2232 -0.482246 0)
(39.6674 -0.0382076 0)
(80.0486 0.932974 0)
(109.05 3.77993 0)
(134.895 7.97891 0)
(143.032 16.8917 0)
(123.315 25.3037 0)
(3113.82 38.0016 0)
(63492.1 -30.9324 0)
(-68949.4 1926.51 0)
(-15509.9 -1.57288e-08 0)
(-7396.47 1.65524e-08 0)
(453.569 8.36503e-09 0)
(-801.374 3.15707e-08 0)
(-1866.44 -6.44333e-09 0)
(-1724.35 5.18373e-09 0)
(-1774.24 -4.50549e-09 0)
(-1875.39 -5.22895e-08 0)
(-1667.07 -4.34723e-08 0)
(-1231.4 -4.98349e-08 0)
(-737.84 -1.20954e-08 0)
(-462.066 -7.26691e-10 0)
(-347.117 -2.01859e-09 0)
(-286.908 -4.03717e-09 0)
(-239.098 7.91286e-10 0)
(-196.87 6.31414e-09 0)
(-161.426 1.16432e-08 0)
(-132.103 2.89062e-09 0)
(-108.881 -1.79089e-08 0)
(-89.4036 -2.31249e-08 0)
(-71.5545 -1.11749e-08 0)
(-57.6996 1.62617e-08 0)
(-45.6747 3.42029e-08 0)
(-34.0757 3.65445e-08 0)
(-23.8309 4.12599e-08 0)
(-14.6381 4.85914e-08 0)
(-6.92216 4.41667e-08 0)
(-1.79022 1.56319e-08 0)
(2.4134 -1.64394e-08 0)
(4.74955 -5.66012e-08 0)
(19.4288 -7.25561e-08 0)
(40.0754 1.24022e-08 0)
(80.8724 3.78848e-08 0)
(110.591 9.73928e-08 0)
(137.63 1.52315e-07 0)
(147.2 1.79719e-07 0)
(128.809 7.28145e-08 0)
(3108.82 1.52993e-07 0)
(64118.9 3.73035e-09 0)
(-69685.7 -3.731e-07 0)
(-16833.5 -1558.91 0)
(-8056.99 -5706.7 0)
(1229.61 -3515.47 0)
(-69.6127 -1650.58 0)
(-1591.97 -743.104 0)
(-1642.39 -247.066 0)
(-1758.33 -138.573 0)
(-1865.84 -82.5236 0)
(-1661.46 -24.7273 0)
(-1228.94 -14.931 0)
(-737.046 -3.31493 0)
(-461.875 -1.30255 0)
(-347.093 -1.80223 0)
(-286.833 -1.65716 0)
(-239.011 -1.11598 0)
(-196.809 -0.652186 0)
(-161.39 -0.357457 0)
(-132.082 -0.182807 0)
(-108.87 -0.0883759 0)
(-89.3948 -0.0286226 0)
(-71.5441 0.0324947 0)
(-57.687 0.100202 0)
(-45.6597 0.172389 0)
(-34.0597 0.253557 0)
(-23.8167 0.333508 0)
(-14.6292 0.407653 0)
(-6.92167 0.462725 0)
(-1.80426 0.538464 0)
(2.37707 0.55495 0)
(4.65591 0.661581 0)
(19.2232 0.482246 0)
(39.6674 0.0382074 0)
(80.0486 -0.932974 0)
(109.05 -3.77993 0)
(134.895 -7.97891 0)
(143.032 -16.8917 0)
(123.315 -25.3037 0)
(3113.82 -38.0016 0)
(63492.1 30.9324 0)
(-68949.4 -1926.51 0)
(-17271.3 3345.24 0)
(-7965.65 -3630.11 0)
(1633.53 -2994.75 0)
(5.13201 -2062.93 0)
(-1458.15 -1031 0)
(-1548.49 -451.236 0)
(-1726.38 -280.067 0)
(-1842.27 -181.663 0)
(-1647.41 -99.895 0)
(-1225.17 -46.9681 0)
(-733.875 -12.6003 0)
(-461.626 -7.58427 0)
(-347.22 -7.9799 0)
(-286.708 -6.9393 0)
(-238.806 -5.2163 0)
(-196.65 -3.76529 0)
(-161.29 -2.78957 0)
(-132.024 -2.18109 0)
(-108.837 -1.78822 0)
(-89.3685 -1.51256 0)
(-71.517 -1.27938 0)
(-57.6589 -1.09222 0)
(-45.6301 -0.969073 0)
(-34.0289 -0.893895 0)
(-23.7861 -0.881121 0)
(-14.6005 -0.92482 0)
(-6.88411 -1.03305 0)
(-1.76339 -1.07313 0)
(2.44922 -1.16088 0)
(4.7284 -0.781569 0)
(19.2474 -0.796215 0)
(39.6637 -0.835558 0)
(79.7617 -1.11299 0)
(108.541 -4.1888 0)
(133.816 -5.26156 0)
(142.16 -11.6579 0)
(122.668 -9.08688 0)
(3125.18 -17.5633 0)
(63569.5 68.7839 0)
(-69000.9 4277.9 0)
(28119.2 13292.5 0)
(-12139.5 -3449.26 0)
(1745.61 -3738.52 0)
(1075.77 -2739.2 0)
(-735.737 -1428.66 0)
(-1279.93 -772.068 0)
(-1626.17 -504.86 0)
(-1780.08 -331.638 0)
(-1593.23 -228.54 0)
(-1178.54 -91.8535 0)
(-716.009 -32.3944 0)
(-459.265 -19.3342 0)
(-346.541 -17.7089 0)
(-285.244 -14.944 0)
(-237.257 -11.5156 0)
(-195.47 -8.70611 0)
(-160.512 -6.82686 0)
(-131.521 -5.6499 0)
(-108.49 -4.85183 0)
(-89.1061 -4.26894 0)
(-71.3118 -3.77388 0)
(-57.5248 -3.38649 0)
(-45.5695 -3.14966 0)
(-34.0402 -3.0325 0)
(-23.8714 -3.06594 0)
(-14.7577 -3.23833 0)
(-7.05813 -3.55083 0)
(-1.9317 -3.78099 0)
(2.47653 -4.03698 0)
(4.80083 -3.52644 0)
(19.1613 -3.54484 0)
(39.4729 -3.56429 0)
(78.2769 -4.29872 0)
(107.036 -9.12607 0)
(131.458 -10.4885 0)
(141.642 -18.6125 0)
(120.358 -15.1099 0)
(3149.52 -29.4785 0)
(66097.1 -87.28 0)
(-71801.7 531.087 0)
(30946.6 15443 0)
(-22139.2 -2780.54 0)
(2257.68 -2129.06 0)
(1656.88 -2197.84 0)
(50.0737 -1489.64 0)
(-802.288 -1012.62 0)
(-1355.69 -743.55 0)
(-1609.35 -494.739 0)
(-1445.39 -324.283 0)
(-1061.17 -145.826 0)
(-673.573 -58.8225 0)
(-448.74 -34.5094 0)
(-343.354 -27.8104 0)
(-281.525 -22.536 0)
(-233.625 -17.2181 0)
(-192.764 -13.053 0)
(-158.762 -10.2901 0)
(-130.391 -8.53381 0)
(-107.692 -7.30954 0)
(-88.4704 -6.39458 0)
(-70.7767 -5.59969 0)
(-57.1293 -4.96212 0)
(-45.3215 -4.55288 0)
(-33.9421 -4.32145 0)
(-23.9387 -4.32652 0)
(-14.9834 -4.55244 0)
(-7.31372 -5.0015 0)
(-2.14161 -5.29767 0)
(2.67987 -5.62666 0)
(5.1638 -4.85283 0)
(19.2571 -4.777 0)
(39.0395 -4.85057 0)
(75.1983 -6.20537 0)
(103.384 -12.9527 0)
(125.939 -15.6955 0)
(137.984 -26.8582 0)
(113.435 -26.3961 0)
(3042.58 -44.8201 0)
(62754.2 -272.98 0)
(-68044.3 -4805.27 0)
(34851.6 9787.44 0)
(-29072.5 -1188.65 0)
(2307.12 -1131.97 0)
(1691.94 -1474.78 0)
(406.382 -1232.57 0)
(-560.971 -1037.34 0)
(-1127.12 -866.802 0)
(-1376.06 -596.581 0)
(-1257 -383.605 0)
(-922.728 -188.041 0)
(-608.74 -87.2613 0)
(-429.381 -52.7247 0)
(-335.003 -39.3014 0)
(-275.037 -30.3187 0)
(-228.119 -22.7079 0)
(-188.794 -17.0933 0)
(-156.157 -13.3673 0)
(-128.649 -10.9092 0)
(-106.428 -9.12619 0)
(-87.4584 -7.776 0)
(-69.9315 -6.6137 0)
(-56.516 -5.6993 0)
(-44.9521 -5.13466 0)
(-33.822 -4.84491 0)
(-24.094 -4.92138 0)
(-15.4081 -5.32586 0)
(-7.77626 -6.05967 0)
(-2.53413 -6.50965 0)
(2.90519 -7.03887 0)
(5.6196 -6.0272 0)
(19.1635 -5.95195 0)
(38.0965 -6.31346 0)
(70.4694 -8.4176 0)
(97.8912 -17.1445 0)
(118.058 -20.9339 0)
(131.33 -34.234 0)
(103.05 -36.7834 0)
(2911.9 -51.4924 0)
(61509.8 -212.117 0)
(-66676.1 -2576.72 0)
(37551.6 6187.69 0)
(-32661.6 -273.984 0)
(1981.95 -602.225 0)
(1559.95 -1014.95 0)
(471.61 -1041.51 0)
(-449.824 -1009.32 0)
(-930.964 -876.067 0)
(-1143.72 -629.153 0)
(-1051.71 -398.943 0)
(-775.603 -204.143 0)
(-543.177 -107.608 0)
(-402.524 -67.5957 0)
(-321.763 -48.5304 0)
(-265.535 -35.8033 0)
(-220.881 -26.1083 0)
(-183.763 -19.3045 0)
(-152.802 -14.76 0)
(-126.304 -11.6204 0)
(-104.673 -9.2438 0)
(-86.0493 -7.42188 0)
(-68.7755 -5.87359 0)
(-55.7041 -4.66996 0)
(-44.4982 -3.94921 0)
(-33.7366 -3.64058 0)
(-24.4022 -3.86338 0)
(-16.0803 -4.5288 0)
(-8.45447 -5.61225 0)
(-3.0852 -6.19439 0)
(3.14478 -6.94022 0)
(6.21119 -5.72591 0)
(18.9813 -5.67626 0)
(36.6635 -6.50728 0)
(64.7612 -9.61396 0)
(91.3224 -19.8795 0)
(109.47 -24.935 0)
(122.711 -38.8073 0)
(96.8047 -45.5915 0)
(2873.62 -50.8355 0)
(60320.8 -162.408 0)
(-65399.9 -2540.56 0)
(40362.1 5297.81 0)
(-35615.6 -22.7112 0)
(1593.1 -386.588 0)
(1268.62 -804.088 0)
(411.807 -916.147 0)
(-401.541 -940.688 0)
(-760.784 -812.161 0)
(-916.285 -602.96 0)
(-847.448 -370.673 0)
(-641.987 -204.836 0)
(-477.158 -116.59 0)
(-372.452 -76.2381 0)
(-304.367 -53.7459 0)
(-253.43 -38.4793 0)
(-212.22 -27.5033 0)
(-177.859 -19.9655 0)
(-148.752 -14.8007 0)
(-123.333 -11.0326 0)
(-102.382 -8.05886 0)
(-84.2107 -5.75156 0)
(-67.2796 -3.80291 0)
(-54.6616 -2.29828 0)
(-43.9602 -1.4518 0)
(-33.7393 -1.1321 0)
(-24.9499 -1.45277 0)
(-17.0934 -2.25798 0)
(-9.38128 -3.54858 0)
(-3.81381 -3.90695 0)
(3.35663 -4.49905 0)
(6.83759 -2.61387 0)
(18.4105 -2.05134 0)
(34.302 -2.75965 0)
(57.5835 -5.90936 0)
(83.1273 -16.4828 0)
(99.8186 -21.4427 0)
(111.425 -33.3926 0)
(91.4587 -40.7213 0)
(2799.33 -37.8642 0)
(59110.6 -160.187 0)
(-64071.4 -2951.12 0)
(42769.9 6128.24 0)
(-38139.3 -0.842355 0)
(1228.99 -391.34 0)
(1049.64 -691.674 0)
(339.977 -841.66 0)
(-349.619 -848.22 0)
(-605.517 -718.239 0)
(-718.288 -537.616 0)
(-668.061 -334.849 0)
(-530.76 -196.246 0)
(-419.256 -121.064 0)
(-341.966 -81.1037 0)
(-285.377 -56.6376 0)
(-240.246 -39.9019 0)
(-203.04 -28.2886 0)
(-171.522 -20.2844 0)
(-144.194 -14.5771 0)
(-119.807 -10.1915 0)
(-99.5836 -6.61571 0)
(-81.9481 -3.82351 0)
(-65.4478 -1.4875 0)
(-53.4385 0.28117 0)
(-43.3744 1.19603 0)
(-33.7376 1.49733 0)
(-25.4871 1.07877 0)
(-18.0999 0.174069 0)
(-10.0435 -1.26127 0)
(-4.00111 -1.389 0)
(4.39083 -1.93223 0)
(8.5699 0.0387417 0)
(18.8408 0.487644 0)
(32.9458 -0.652298 0)
(51.537 -4.0954 0)
(76.3539 -15.0571 0)
(93.1756 -20.9959 0)
(104.133 -30.9615 0)
(92.4957 -37.761 0)
(2758.5 -26.6695 0)
(57513.5 -172.775 0)
(-62389.2 -3261.87 0)
(46662.1 1938.81 0)
(-41898.1 -103.028 0)
(927.392 -391.346 0)
(834.677 -631.334 0)
(260.953 -787.637 0)
(-282.608 -744.648 0)
(-461.475 -615.223 0)
(-546.836 -452.462 0)
(-518.492 -287.102 0)
(-435.976 -175.601 0)
(-366.202 -113.394 0)
(-310.368 -76.9226 0)
(-264.664 -53.6404 0)
(-226.112 -38.0134 0)
(-193.316 -27.4373 0)
(-164.646 -19.975 0)
(-139.027 -14.3549 0)
(-115.662 -9.75001 0)
(-96.2459 -5.80534 0)
(-79.269 -2.64095 0)
(-63.3242 0.0534597 0)
(-52.0757 2.11639 0)
(-42.7883 3.31147 0)
(-33.8523 3.91393 0)
(-26.2251 3.8222 0)
(-19.3484 3.43311 0)
(-10.8875 2.82478 0)
(-4.46038 4.15888 0)
(4.73246 4.77413 0)
(9.16948 7.69119 0)
(17.7446 8.82121 0)
(29.8856 7.90002 0)
(43.7025 4.36425 0)
(66.8413 -6.78651 0)
(84.4925 -14.9756 0)
(95.2696 -24.004 0)
(95.5947 -30.7822 0)
(2669.23 -19.8028 0)
(55993.1 -242.432 0)
(-60774.3 -3702.69 0)
(44598.4 -2556.63 0)
(-40384.7 -221.768 0)
(719.892 -391.475 0)
(667.764 -571.214 0)
(230.784 -705.695 0)
(-183.475 -625.453 0)
(-323.956 -510.867 0)
(-402.098 -372.383 0)
(-401.267 -243.683 0)
(-363.369 -157.506 0)
(-324.166 -106.418 0)
(-284.385 -73.7113 0)
(-247.883 -52.601 0)
(-214.996 -38.5993 0)
(-185.658 -29.1939 0)
(-158.916 -22.2621 0)
(-134.341 -16.7047 0)
(-111.569 -11.8534 0)
(-92.733 -7.51005 0)
(-76.3024 -3.94839 0)
(-60.8635 -0.856635 0)
(-50.2989 1.53148 0)
(-41.6422 3.04453 0)
(-33.2454 3.9798 0)
(-25.9504 4.20307 0)
(-19.0611 4.29257 0)
(-9.34409 4.35854 0)
(-2.12265 7.07675 0)
(7.79468 8.72075 0)
(12.4698 12.3532 0)
(19.0421 13.701 0)
(28.6509 12.5434 0)
(37.3846 8.03077 0)
(57.7173 -3.54055 0)
(76.5842 -15.6171 0)
(88.9015 -24.2331 0)
(96.5441 -31.7798 0)
(2554.55 -21.7874 0)
(53964.6 -314.271 0)
(-58640.1 -4198.83 0)
(43744.3 -1983.77 0)
(-39811.6 -230.917 0)
(590.653 -361.88 0)
(531.884 -497.348 0)
(208.687 -603.726 0)
(-94.8645 -517.633 0)
(-217.608 -427.066 0)
(-289.368 -309.606 0)
(-311.429 -210.819 0)
(-303.702 -141.48 0)
(-285.454 -97.0238 0)
(-258.509 -66.4157 0)
(-230.828 -47.2916 0)
(-203.556 -35.0185 0)
(-177.573 -27.2366 0)
(-152.611 -21.5049 0)
(-128.996 -16.6572 0)
(-106.801 -12.1438 0)
(-88.6284 -7.85927 0)
(-72.8575 -4.16708 0)
(-58.0436 -0.656994 0)
(-48.3164 2.37843 0)
(-40.429 4.61727 0)
(-32.7359 6.39232 0)
(-25.9237 7.4864 0)
(-19.1985 8.67496 0)
(-8.20457 9.52761 0)
(-0.256793 13.0217 0)
(9.81707 14.9781 0)
(13.9686 18.3863 0)
(17.9278 18.8096 0)
(24.4216 16.4848 0)
(28.2035 10.4382 0)
(44.0534 -1.78718 0)
(64.5524 -18.2039 0)
(79.6947 -25.9535 0)
(97.9514 -33.2957 0)
(2397.01 -27.4009 0)
(51967.9 -470.154 0)
(-56522.1 -4803.22 0)
(42438.1 -2513.97 0)
(-38821.8 -201.333 0)
(463.15 -320.933 0)
(434.713 -430.876 0)
(211.236 -495.576 0)
(-13.2385 -428.772 0)
(-123.494 -352.27 0)
(-193.715 -259.308 0)
(-239.254 -185.502 0)
(-253.712 -128.648 0)
(-251.832 -90.004 0)
(-236.461 -61.6358 0)
(-217.627 -44.7071 0)
(-195.671 -33.4918 0)
(-172.636 -26.2533 0)
(-148.721 -20.5486 0)
(-125.32 -15.7698 0)
(-103.091 -11.3223 0)
(-85.0463 -7.07788 0)
(-69.362 -3.44483 0)
(-54.556 0.111194 0)
(-45.2165 3.38973 0)
(-37.7743 5.90089 0)
(-30.4806 8.01101 0)
(-23.7508 9.40602 0)
(-17.0941 11.1225 0)
(-5.15539 11.9195 0)
(3.12962 15.0035 0)
(12.9642 16.1881 0)
(16.1621 18.3742 0)
(17.2097 16.8254 0)
(20.5838 12.8006 0)
(19.777 4.45377 0)
(30.1168 -9.56097 0)
(53.2966 -28.8378 0)
(74.3585 -34.4626 0)
(95.1494 -37.7507 0)
(2133.58 -34.9053 0)
(49362.4 -636.97 0)
(-53684.3 -5541.41 0)
(41057.1 -3000.59 0)
(-37698.3 -206.823 0)
(369.457 -293.462 0)
(363.591 -374.717 0)
(210.714 -401.576 0)
(43.2304 -364.885 0)
(-54.3059 -292.687 0)
(-128.663 -227.746 0)
(-185.52 -169.5 0)
(-211.677 -120.139 0)
(-220.879 -84.9108 0)
(-214.859 -56.6134 0)
(-203.708 -39.7752 0)
(-185.774 -26.6256 0)
(-165.101 -16.9096 0)
(-142.508 -8.7639 0)
(-120.105 -2.1446 0)
(-98.4254 3.63744 0)
(-81.0374 8.79218 0)
(-65.9299 12.8584 0)
(-51.4575 16.5381 0)
(-42.7372 19.7382 0)
(-35.9757 21.7958 0)
(-29.3582 23.126 0)
(-22.9253 23.2422 0)
(-16.7765 23.3145 0)
(-4.46477 21.7121 0)
(3.85657 22.2584 0)
(13.0652 20.6219 0)
(14.5828 19.5295 0)
(12.5569 14.145 0)
(12.4998 7.14456 0)
(6.65505 -6.17931 0)
(11.9724 -26.1408 0)
(40.5563 -52.4186 0)
(71.1059 -63.435 0)
(97.5248 -67.403 0)
(1819.58 -77.4866 0)
(46661.6 -854.53 0)
(-50702.2 -6112.19 0)
(39301.6 -3848.25 0)
(-36213.1 -237.346 0)
(301.361 -292.829 0)
(330.531 -338.905 0)
(220.711 -326.113 0)
(91.6903 -308.54 0)
(8.65817 -243.399 0)
(-75.007 -196.253 0)
(-135.56 -149.794 0)
(-172.199 -102.877 0)
(-190.616 -69.4854 0)
(-192.966 -41.1606 0)
(-188.73 -24.946 0)
(-173.636 -10.758 0)
(-155.424 0.0636661 0)
(-134.493 9.73487 0)
(-113.37 18.1196 0)
(-92.5518 25.4821 0)
(-76.1607 31.8588 0)
(-61.8977 36.5341 0)
(-47.9263 40.4846 0)
(-40.15 43.691 0)
(-34.5098 45.2709 0)
(-29.0868 45.7387 0)
(-23.5691 44.5609 0)
(-18.5685 43.0752 0)
(-6.17313 39.3851 0)
(2.07906 38.1619 0)
(10.3346 34.5474 0)
(9.92069 31.0689 0)
(5.27512 21.6415 0)
(0.998536 9.38573 0)
(-12.298 -10.5465 0)
(-14.4411 -38.1311 0)
(17.3587 -70.461 0)
(59.919 -88.2057 0)
(81.6088 -88.3527 0)
(1375.07 -113.848 0)
(43547.1 -961.333 0)
(-47115 -6859.7 0)
(37091.7 -4676.37 0)
(-34272.2 -246.3 0)
(271.591 -271.639 0)
(331.517 -293.748 0)
(239.975 -291.319 0)
(122.937 -278.918 0)
(53.8973 -220.407 0)
(-38.4624 -176.855 0)
(-95.5391 -133.915 0)
(-134.289 -87.9503 0)
(-161.407 -56.0413 0)
(-171.939 -26.6239 0)
(-174.411 -9.56701 0)
(-161.674 7.96186 0)
(-145.353 22.1379 0)
(-125.109 36.2294 0)
(-104.931 49.3655 0)
(-85.1858 61.3682 0)
(-70.3873 71.5376 0)
(-57.6177 78.3892 0)
(-44.5609 82.7186 0)
(-38.1249 84.4624 0)
(-34.0024 82.9815 0)
(-30.0424 79.594 0)
(-25.4919 74.1821 0)
(-21.7641 68.8353 0)
(-9.19945 60.5403 0)
(-0.805219 54.7469 0)
(6.23012 46.4445 0)
(2.14617 38.752 0)
(-8.33774 24.5272 0)
(-18.5177 7.58522 0)
(-39.1339 -17.1986 0)
(-45.7634 -49.7315 0)
(-7.69746 -87.8206 0)
(53.8648 -118.102 0)
(72.8151 -124.413 0)
(978.345 -156.186 0)
(40161.1 -883.877 0)
(-43290.5 -7521.47 0)
(34562.8 -5408.35 0)
(-31968.5 -264.961 0)
(255.639 -277.25 0)
(311.566 -247.702 0)
(235.001 -263.844 0)
(160.024 -240.693 0)
(107.01 -185.935 0)
(8.33901 -148.2 0)
(-49.8883 -103.416 0)
(-97.1563 -60.0232 0)
(-131.52 -27.3323 0)
(-148.182 0.786376 0)
(-155.402 15.1767 0)
(-143.084 32.9429 0)
(-128.184 47.1921 0)
(-108.255 62.2847 0)
(-89.1453 76.3563 0)
(-71.1859 89.2265 0)
(-59.7586 100.095 0)
(-51.1233 107.359 0)
(-42.074 112.078 0)
(-39.8966 114.213 0)
(-39.2012 112.702 0)
(-37.5663 108.956 0)
(-33.9366 102.857 0)
(-31.7142 97.3448 0)
(-19.7493 88.3413 0)
(-11.5042 81.3218 0)
(-5.07871 69.7874 0)
(-11.1996 58.6142 0)
(-24.7583 40.5665 0)
(-39.21 18.0872 0)
(-67.5305 -10.8389 0)
(-82.4951 -47.5875 0)
(-48.5253 -91.2563 0)
(24.6574 -125.23 0)
(44.9096 -147.773 0)
(643.225 -179.413 0)
(36449.7 -719.322 0)
(-39133.3 -8116.57 0)
(31650.6 -6073.59 0)
(-29327.7 -238.524 0)
(288.223 -242.469 0)
(344.435 -183.644 0)
(246.73 -204.836 0)
(198.013 -155.534 0)
(143.026 -118.917 0)
(41.0556 -97.6355 0)
(-10.5685 -48.6482 0)
(-60.9715 -18.096 0)
(-102.808 1.51979 0)
(-130.976 22.0199 0)
(-143.424 33.9834 0)
(-130.822 51.5248 0)
(-117.078 66.2968 0)
(-97.0054 82.9064 0)
(-78.9687 98.8568 0)
(-62.3101 113.556 0)
(-52.914 126.029 0)
(-46.0707 133.465 0)
(-37.9568 137.046 0)
(-37.5239 137.278 0)
(-39.0677 133.243 0)
(-39.5293 127.21 0)
(-36.6811 119.277 0)
(-35.7518 113.44 0)
(-24.6398 105.398 0)
(-18.6844 100.128 0)
(-15.6517 90.4231 0)
(-26.0122 82.567 0)
(-47.3911 70.859 0)
(-68.0538 52.45 0)
(-102.42 32.4484 0)
(-123.257 -1.18775 0)
(-82.5162 -35.5118 0)
(-0.596595 -79.9948 0)
(20.6022 -109.077 0)
(427.579 -124.649 0)
(32512.6 -458.236 0)
(-34880.1 -8541.66 0)
(28541.9 -5477.09 0)
(-26349.5 -57.9189 0)
(308.523 -67.8719 0)
(347.831 -49.1844 0)
(262.09 -68.3532 0)
(242.819 -5.0159 0)
(162.803 -13.4018 0)
(76.0531 -14.1077 0)
(26.7589 54.0854 0)
(-48.8126 38.1485 0)
(-92.8624 47.1001 0)
(-116.899 54.3545 0)
(-126.97 57.9185 0)
(-111.946 69.7732 0)
(-97.9434 82.0578 0)
(-76.8795 100.039 0)
(-59.6101 117.499 0)
(-45.0021 132.289 0)
(-40.5738 142.99 0)
(-40.5066 150.265 0)
(-38.3996 155.696 0)
(-43.5617 156.353 0)
(-48.903 151.222 0)
(-51.0236 143.22 0)
(-47.206 132.091 0)
(-45.0889 124.37 0)
(-32.5769 115.117 0)
(-25.9346 109.793 0)
(-22.0012 100.861 0)
(-30.0523 95.7244 0)
(-53.7801 91.9542 0)
(-76.2238 80.2984 0)
(-119.218 75.2117 0)
(-147.984 48.4469 0)
(-124.467 30.9839 0)
(-46.2327 -12.99 0)
(1.87954 -33.334 0)
(306.763 -24.76 0)
(28338.7 -174.977 0)
(-30602.6 -7524.12 0)
(26531.8 -5397.56 0)
(-24115.2 139.703 0)
(296.64 97.8797 0)
(343.971 38.9016 0)
(289.292 21.6659 0)
(250.966 56.7827 0)
(134.265 33.5752 0)
(106.089 64.9072 0)
(39.7875 104.487 0)
(-67.7028 74.0115 0)
(-87.1916 84.3511 0)
(-120.551 73.7756 0)
(-128.565 67.974 0)
(-107.561 68.916 0)
(-87.913 71.482 0)
(-62.8533 85.2718 0)
(-47.8911 100.346 0)
(-37.7451 115.799 0)
(-35.5915 128.393 0)
(-33.8271 135.47 0)
(-32.0907 138.446 0)
(-41.8357 137.059 0)
(-51.7234 130.896 0)
(-57.9642 125.52 0)
(-54.8455 118.991 0)
(-52.109 118.9 0)
(-38.686 119.857 0)
(-32.4216 119.184 0)
(-29.2091 118.953 0)
(-34.5951 114.034 0)
(-62.2562 117.158 0)
(-84.1875 99.1037 0)
(-133.114 92.9633 0)
(-165.876 60.5672 0)
(-141.719 35.4868 0)
(-62.5757 12.9192 0)
(9.26018 13.1559 0)
(291.087 35.8169 0)
(25285.9 45.5485 0)
(-27770.3 -7366.09 0)
(24032.9 30287 0)
(-21053.9 2550.33 0)
(211.387 925.908 0)
(274.389 662.841 0)
(279.32 667.731 0)
(254.295 854.635 0)
(170.632 1183.03 0)
(144.387 1682.15 0)
(35.5321 2094.76 0)
(-68.2167 2474.43 0)
(-93.0897 2775.19 0)
(-132.681 2975.68 0)
(-131.653 3129.98 0)
(-108.566 3226.69 0)
(-82.1824 3294.84 0)
(-49.0653 3331.96 0)
(-30.1926 3368.78 0)
(-17.9749 3347.26 0)
(-21.6184 3362.12 0)
(-30.8193 3289.48 0)
(-36.8685 3287.98 0)
(-50.837 3365.4 0)
(-60.0223 3355.04 0)
(-62.4956 3402.22 0)
(-53.5856 3354.07 0)
(-44.2545 3334.41 0)
(-32.3032 3254 0)
(-26.8057 3157.07 0)
(-26.9639 3017.86 0)
(-31.7817 2788.82 0)
(-68.1674 2542.1 0)
(-99.5388 2108.3 0)
(-156.353 1678.99 0)
(-203.37 1206.82 0)
(-170.382 845.294 0)
(-67.7516 580.708 0)
(23.9446 473.489 0)
(337.978 484.502 0)
(21206 2090.7 0)
(-24208.2 26572 0)
(56737 648397 0)
(-52408.6 57840.7 0)
(-1522.21 26865.2 0)
(95.183 31147.4 0)
(474.112 34395.1 0)
(747.527 38606.5 0)
(931.69 42336.1 0)
(984.662 45971.1 0)
(803.256 49072.9 0)
(587.984 52044.2 0)
(395.83 54733.9 0)
(221.34 57017.9 0)
(113.317 59123.3 0)
(51.3065 60924.4 0)
(13.5331 62500.1 0)
(8.39965 63838.6 0)
(-33.1539 65007 0)
(-44.1696 65968 0)
(-91.2672 66368.1 0)
(-105.268 66555.5 0)
(41.0723 66516.4 0)
(22.781 66170.2 0)
(-16.2476 65788.7 0)
(-58.8911 64500.4 0)
(-120.186 63322.6 0)
(-148.545 61520 0)
(-209.583 59811 0)
(-259.971 57541.7 0)
(-384.067 55293.7 0)
(-493.056 52356.7 0)
(-718.031 49402.1 0)
(-915.91 45957.6 0)
(-1001.81 42353.4 0)
(-969.26 38447.6 0)
(-745.059 34370.1 0)
(-420.86 29957.3 0)
(-83.448 26685.9 0)
(1849.49 22163 0)
(50424.8 50900.9 0)
(-53924.8 591523 0)
(699004 -722839 0)
(-619984 -61884.2 0)
(-25511.3 -31558.3 0)
(7530.44 -35555.2 0)
(7467.17 -38858.5 0)
(7906.61 -43479 0)
(7267.45 -47616.5 0)
(6636.22 -51774.6 0)
(5887.75 -55293.8 0)
(5386.85 -58456.6 0)
(4699.78 -61249.9 0)
(4097.19 -63505.6 0)
(3632.78 -65513.8 0)
(3145.41 -67223 0)
(2726.05 -68704.3 0)
(2366.67 -69975.2 0)
(2021.83 -71111.7 0)
(1293.66 -72031.8 0)
(544.528 -72406.9 0)
(112.027 -72506 0)
(-408.23 -72426.9 0)
(-752.074 -72082.5 0)
(-1669.04 -71654.2 0)
(-2438.92 -70304.2 0)
(-2925.59 -69040.9 0)
(-3428.19 -67151.3 0)
(-3865.98 -65344.9 0)
(-4379.79 -62975.2 0)
(-5023.43 -60611.7 0)
(-5709.16 -57465 0)
(-6234.57 -54292 0)
(-6891.96 -50381.4 0)
(-7393.22 -46311.5 0)
(-7896.29 -41802.2 0)
(-8351.99 -37240.5 0)
(-7472.54 -32528.8 0)
(-7486.9 -29380.1 0)
(23672.4 -25373.9 0)
(569862 -54393.5 0)
(-637224 -662834 0)
(699004 722839 0)
(-619984 61884.2 0)
(-25511.3 31558.3 0)
(7530.44 35555.2 0)
(7467.17 38858.5 0)
(7906.61 43479 0)
(7267.45 47616.5 0)
(6636.22 51774.6 0)
(5887.75 55293.8 0)
(5386.85 58456.6 0)
(4699.78 61249.9 0)
(4097.19 63505.6 0)
(3632.78 65513.8 0)
(3145.41 67223 0)
(2726.05 68704.3 0)
(2366.67 69975.2 0)
(2021.83 71111.7 0)
(1293.66 72031.8 0)
(544.528 72406.9 0)
(112.027 72506 0)
(-408.23 72426.9 0)
(-752.074 72082.5 0)
(-1669.04 71654.2 0)
(-2438.92 70304.2 0)
(-2925.59 69040.9 0)
(-3428.19 67151.3 0)
(-3865.98 65344.9 0)
(-4379.79 62975.2 0)
(-5023.43 60611.7 0)
(-5709.16 57465 0)
(-6234.57 54292 0)
(-6891.96 50381.4 0)
(-7393.22 46311.5 0)
(-7896.29 41802.2 0)
(-8351.99 37240.5 0)
(-7472.54 32528.8 0)
(-7486.9 29380.1 0)
(23672.4 25373.9 0)
(569862 54393.5 0)
(-637224 662834 0)
(56737 -648397 0)
(-52408.6 -57840.7 0)
(-1522.21 -26865.2 0)
(95.183 -31147.4 0)
(474.112 -34395.1 0)
(747.527 -38606.5 0)
(931.69 -42336.1 0)
(984.662 -45971.1 0)
(803.256 -49072.9 0)
(587.984 -52044.2 0)
(395.83 -54733.9 0)
(221.34 -57017.9 0)
(113.317 -59123.3 0)
(51.3065 -60924.4 0)
(13.5331 -62500.1 0)
(8.39965 -63838.6 0)
(-33.1539 -65007 0)
(-44.1696 -65968 0)
(-91.2672 -66368.1 0)
(-105.268 -66555.5 0)
(41.0723 -66516.4 0)
(22.781 -66170.2 0)
(-16.2476 -65788.7 0)
(-58.8911 -64500.4 0)
(-120.186 -63322.6 0)
(-148.545 -61520 0)
(-209.583 -59811 0)
(-259.971 -57541.7 0)
(-384.067 -55293.7 0)
(-493.056 -52356.7 0)
(-718.031 -49402.1 0)
(-915.91 -45957.6 0)
(-1001.81 -42353.4 0)
(-969.26 -38447.6 0)
(-745.059 -34370.1 0)
(-420.86 -29957.3 0)
(-83.448 -26685.9 0)
(1849.49 -22163 0)
(50424.8 -50900.9 0)
(-53924.8 -591523 0)
(24032.9 -30287 0)
(-21053.9 -2550.33 0)
(211.387 -925.908 0)
(274.389 -662.841 0)
(279.32 -667.731 0)
(254.295 -854.635 0)
(170.632 -1183.03 0)
(144.387 -1682.15 0)
(35.5321 -2094.76 0)
(-68.2167 -2474.43 0)
(-93.0897 -2775.19 0)
(-132.681 -2975.68 0)
(-131.653 -3129.98 0)
(-108.566 -3226.69 0)
(-82.1824 -3294.84 0)
(-49.0653 -3331.96 0)
(-30.1926 -3368.78 0)
(-17.9749 -3347.26 0)
(-21.6184 -3362.12 0)
(-30.8193 -3289.48 0)
(-36.8685 -3287.98 0)
(-50.837 -3365.4 0)
(-60.0223 -3355.04 0)
(-62.4956 -3402.22 0)
(-53.5856 -3354.07 0)
(-44.2545 -3334.41 0)
(-32.3032 -3254 0)
(-26.8057 -3157.07 0)
(-26.9639 -3017.86 0)
(-31.7817 -2788.82 0)
(-68.1674 -2542.1 0)
(-99.5388 -2108.3 0)
(-156.353 -1678.99 0)
(-203.37 -1206.82 0)
(-170.382 -845.294 0)
(-67.7516 -580.708 0)
(23.9446 -473.489 0)
(337.978 -484.502 0)
(21206 -2090.7 0)
(-24208.2 -26572 0)
(26531.8 5397.56 0)
(-24115.2 -139.703 0)
(296.64 -97.8797 0)
(343.971 -38.9016 0)
(289.292 -21.6659 0)
(250.966 -56.7827 0)
(134.265 -33.5752 0)
(106.089 -64.9073 0)
(39.7875 -104.487 0)
(-67.7028 -74.0115 0)
(-87.1916 -84.3511 0)
(-120.551 -73.7756 0)
(-128.565 -67.974 0)
(-107.561 -68.916 0)
(-87.913 -71.482 0)
(-62.8533 -85.2718 0)
(-47.8911 -100.346 0)
(-37.7451 -115.799 0)
(-35.5915 -128.393 0)
(-33.8271 -135.47 0)
(-32.0907 -138.446 0)
(-41.8357 -137.059 0)
(-51.7234 -130.896 0)
(-57.9642 -125.52 0)
(-54.8455 -118.991 0)
(-52.109 -118.9 0)
(-38.686 -119.857 0)
(-32.4216 -119.184 0)
(-29.2091 -118.953 0)
(-34.5951 -114.034 0)
(-62.2562 -117.158 0)
(-84.1875 -99.1037 0)
(-133.114 -92.9633 0)
(-165.876 -60.5672 0)
(-141.719 -35.4868 0)
(-62.5757 -12.9192 0)
(9.26018 -13.1559 0)
(291.087 -35.8169 0)
(25285.9 -45.5485 0)
(-27770.3 7366.09 0)
(28541.9 5477.09 0)
(-26349.5 57.9189 0)
(308.523 67.8719 0)
(347.831 49.1844 0)
(262.09 68.3532 0)
(242.819 5.0159 0)
(162.803 13.4018 0)
(76.0531 14.1077 0)
(26.7589 -54.0854 0)
(-48.8126 -38.1485 0)
(-92.8624 -47.1001 0)
(-116.899 -54.3545 0)
(-126.97 -57.9185 0)
(-111.946 -69.7732 0)
(-97.9434 -82.0578 0)
(-76.8795 -100.039 0)
(-59.6101 -117.499 0)
(-45.0021 -132.289 0)
(-40.5738 -142.99 0)
(-40.5066 -150.265 0)
(-38.3996 -155.696 0)
(-43.5617 -156.353 0)
(-48.903 -151.222 0)
(-51.0236 -143.22 0)
(-47.206 -132.091 0)
(-45.0889 -124.37 0)
(-32.5769 -115.117 0)
(-25.9346 -109.793 0)
(-22.0012 -100.861 0)
(-30.0523 -95.7244 0)
(-53.7801 -91.9542 0)
(-76.2238 -80.2984 0)
(-119.218 -75.2117 0)
(-147.984 -48.4469 0)
(-124.467 -30.9839 0)
(-46.2327 12.99 0)
(1.87954 33.334 0)
(306.763 24.76 0)
(28338.7 174.977 0)
(-30602.6 7524.12 0)
(31650.6 6073.59 0)
(-29327.7 238.524 0)
(288.223 242.469 0)
(344.435 183.644 0)
(246.73 204.836 0)
(198.013 155.534 0)
(143.026 118.917 0)
(41.0556 97.6355 0)
(-10.5685 48.6482 0)
(-60.9715 18.096 0)
(-102.808 -1.51979 0)
(-130.976 -22.0199 0)
(-143.424 -33.9834 0)
(-130.822 -51.5248 0)
(-117.078 -66.2968 0)
(-97.0054 -82.9064 0)
(-78.9687 -98.8568 0)
(-62.3101 -113.556 0)
(-52.914 -126.029 0)
(-46.0707 -133.465 0)
(-37.9568 -137.046 0)
(-37.5239 -137.278 0)
(-39.0677 -133.243 0)
(-39.5293 -127.21 0)
(-36.6811 -119.277 0)
(-35.7518 -113.44 0)
(-24.6398 -105.398 0)
(-18.6844 -100.128 0)
(-15.6517 -90.4231 0)
(-26.0122 -82.567 0)
(-47.3911 -70.859 0)
(-68.0538 -52.45 0)
(-102.42 -32.4484 0)
(-123.257 1.18775 0)
(-82.5162 35.5118 0)
(-0.596594 79.9948 0)
(20.6022 109.077 0)
(427.579 124.649 0)
(32512.6 458.236 0)
(-34880.1 8541.66 0)
(34562.8 5408.35 0)
(-31968.5 264.961 0)
(255.639 277.25 0)
(311.566 247.702 0)
(235.001 263.844 0)
(160.024 240.693 0)
(107.01 185.935 0)
(8.33901 148.2 0)
(-49.8883 103.416 0)
(-97.1563 60.0232 0)
(-131.52 27.3323 0)
(-148.182 -0.786375 0)
(-155.402 -15.1767 0)
(-143.084 -32.9429 0)
(-128.184 -47.1921 0)