/*--------------------------------*- C++ -*----------------------------------*\
| =========                 |                                                 |
| \\      /  F ield         | OpenFOAM: The Open Source CFD Toolbox           |
|  \\    /   O peration     | Version:  v1912                                 |
|   \\  /    A nd           | Website:  www.openfoam.com                      |
|    \\/     M anipulation  |                                                 |
\*---------------------------------------------------------------------------*/
FoamFile
{
    version     2.0;
    format      ascii;
    class       volScalarField;
    location    "4.44";
    object      Ma;
}
// * * * * * * * * * * * * * * * * * * * * * * * * * * * * * * * * * * * * * //

dimensions      [0 0 0 0 0 0 0];


internalField   nonuniform List<scalar> 
1900
(
0.768937
0.102106
0.0461692
0.0353798
0.024303
0.0129664
0.00313815
0.00544598
0.0133259
0.0194951
0.768936
0.10211
0.0461849
0.035409
0.024331
0.0129927
0.00303174
0.00611365
0.0150292
0.0254568
0.768937
0.102114
0.0461966
0.0354213
0.024329
0.012939
0.00279477
0.00663837
0.0159557
0.0275009
0.768936
0.10211
0.0461849
0.035409
0.024331
0.0129927
0.00303174
0.00611365
0.0150292
0.0254568
0.768937
0.102106
0.0461692
0.0353798
0.024303
0.0129664
0.00313815
0.00544598
0.0133259
0.0194951
0.0292394
0.0472593
0.0759432
0.119689
0.198554
0.038096
0.0535819
0.0743468
0.109974
0.180493
0.0407045
0.0562634
0.0786773
0.115212
0.185564
0.038096
0.0535819
0.0743468
0.109974
0.180493
0.0292394
0.0472593
0.0759432
0.119689
0.198554
0.309743
0.315469
0.338899
0.365954
0.384203
0.307246
0.324597
0.344416
0.375121
0.428881
0.310373
0.324276
0.340676
0.375571
0.44877
0.307246
0.324597
0.344416
0.375121
0.428881
0.309743
0.315469
0.338899
0.365954
0.384203
0.279726
0.492033
0.333162
0.205679
0.225575
0.271891
0.305748
0.339147
0.366007
0.376904
0.365966
0.339965
0.307336
0.271371
0.232924
0.192322
0.149992
0.106619
0.0637703
0.0315755
0.0489866
0.0921945
0.13952
0.187902
0.236588
0.285207
0.333563
0.38159
0.429229
0.476365
0.522733
0.567142
0.609335
0.646833
0.681544
0.710258
0.736594
0.752373
0.748576
1.66598
0.57747
0.781836
0.472608
0.139603
0.175121
0.265017
0.304224
0.337623
0.365509
0.37687
0.3661
0.339941
0.307079
0.270856
0.232094
0.191069
0.148114
0.103668
0.0583643
0.0176979
0.0414904
0.0886278
0.137372
0.186506
0.235679
0.28465
0.33328
0.38153
0.429353
0.476649
0.523136
0.567661
0.609902
0.647442
0.68212
0.710735
0.737009
0.752639
0.748732
1.66494
0.643461
0.84129
0.536312
0.123304
0.146835
0.265136
0.306439
0.338633
0.36635
0.377406
0.366571
0.340263
0.307223
0.270839
0.231919
0.190716
0.147524
0.10269
0.0564605
0.00926053
0.0386855
0.0874278
0.136681
0.186087
0.235446
0.284568
0.333334
0.381722
0.429693
0.477161
0.523854
0.568646
0.611236
0.649218
0.684479
0.713711
0.740802
0.756896
0.752563
1.66863
0.57747
0.781836
0.472608
0.139603
0.175121
0.265017
0.304224
0.337623
0.365509
0.37687
0.3661
0.339941
0.307079
0.270856
0.232094
0.191069
0.148114
0.103668
0.0583643
0.0176979
0.0414904
0.0886278
0.137372
0.186506
0.235679
0.28465
0.33328
0.38153
0.429353
0.476649
0.523136
0.567661
0.609902
0.647442
0.68212
0.710735
0.737009
0.752639
0.748732
1.66494
0.279726
0.492033
0.333162
0.205679
0.225575
0.271891
0.305748
0.339147
0.366007
0.376904
0.365966
0.339965
0.307336
0.271371
0.232924
0.192322
0.149992
0.106619
0.0637703
0.0315755
0.0489866
0.0921945
0.13952
0.187902
0.236588
0.285207
0.333563
0.38159
0.429229
0.476365
0.522733
0.567142
0.609335
0.646833
0.681544
0.710258
0.736594
0.752373
0.748576
1.66598
0.744267
0.292596
0.379301
0.364156
0.318721
0.304272
0.32772
0.355478
0.377922
0.384085
0.372117
0.346166
0.313784
0.278196
0.240375
0.200834
0.160334
0.120313
0.0842966
0.0634517
0.0736365
0.107359
0.150175
0.196174
0.243455
0.291183
0.338947
0.386568
0.43393
0.480849
0.527131
0.571415
0.613728
0.651306
0.686314
0.715375
0.742224
0.758934
0.755607
1.66587
1.3918
0.725003
0.649426
0.528863
0.432621
0.382629
0.380475
0.390039
0.40135
0.4011
0.386447
0.360463
0.32896
0.294694
0.258791
0.222123
0.185957
0.152492
0.125766
0.112996
0.118885
0.141996
0.176652
0.217186
0.260766
0.305895
0.351761
0.397939
0.444191
0.490124
0.535754
0.579224
0.621273
0.658377
0.693316
0.722199
0.74911
0.766814
0.764307
1.6659
1.54207
0.862855
0.76411
0.61222
0.510698
0.460852
0.438759
0.432679
0.433388
0.425529
0.407631
0.381302
0.350842
0.318299
0.284826
0.251535
0.219907
0.192146
0.171471
0.162526
0.166535
0.183403
0.21139
0.246314
0.28553
0.32732
0.37061
0.414741
0.459381
0.503836
0.548492
0.590745
0.632369
0.668831
0.703673
0.732344
0.75948
0.778309
0.780757
1.68645
1.57372
0.908861
0.80924
0.669884
0.575289
0.529325
0.494732
0.480877
0.47016
0.456002
0.434897
0.408101
0.378583
0.347769
0.316715
0.286603
0.258863
0.235381
0.218556
0.211802
0.214748
0.227709
0.250836
0.280979
0.316019
0.354348
0.394821
0.436616
0.479397
0.522065
0.565589
0.606377
0.647443
0.683181
0.717825
0.746183
0.7733
0.792624
0.796217
1.67696
1.59464
0.931752
0.833204
0.712601
0.633017
0.588648
0.549597
0.528201
0.509794
0.490217
0.466543
0.439365
0.410693
0.381477
0.352619
0.325253
0.30063
0.280278
0.266019
0.260695
0.262943
0.273238
0.292828
0.319125
0.350492
0.385557
0.423231
0.462584
0.503403
0.544055
0.586361
0.625559
0.665984
0.701033
0.735519
0.76371
0.790941
0.811184
0.818478
1.69229
1.59463
0.945226
0.850884
0.751386
0.685521
0.639238
0.599556
0.572703
0.549664
0.526392
0.501004
0.473734
0.445896
0.418143
0.391209
0.366128
0.343951
0.325904
0.313429
0.309129
0.310873
0.31922
0.336188
0.359439
0.387693
0.419823
0.454862
0.491774
0.530627
0.569049
0.60998
0.647333
0.686742
0.720728
0.754369
0.781628
0.807781
0.827065
0.837905
1.68612
1.61326
0.966044
0.875161
0.790973
0.735689
0.688092
0.648327
0.617928
0.591164
0.564926
0.538117
0.510695
0.483498
0.456958
0.431616
0.408378
0.3881
0.371768
0.36058
0.357068
0.358427
0.365267
0.380231
0.401069
0.426743
0.456336
0.489038
0.523688
0.560831
0.597221
0.637153
0.673148
0.71207
0.745889
0.779687
0.80738
0.833778
0.85377
0.868529
1.70265
1.63431
0.983004
0.896539
0.825334
0.777641
0.729137
0.690051
0.657796
0.629185
0.601725
0.57477
0.547967
0.521839
0.496678
0.472888
0.451279
0.432573
0.417588
0.407385
0.404525
0.405571
0.411183
0.424558
0.443414
0.466858
0.494129
0.524568
0.556764
0.591975
0.625702
0.663935
0.697723
0.734967
0.767332
0.799798
0.826312
0.8513
0.869803
0.891861
1.70236
1.6599
1.00874
0.92614
0.863955
0.820692
0.773046
0.735207
0.701522
0.671343
0.642523
0.614958
0.588122
0.562433
0.53807
0.515315
0.494858
0.477292
0.463283
0.453804
0.451491
0.452275
0.456861
0.468992
0.486313
0.508022
0.533497
0.562272
0.592613
0.626773
0.658739
0.696327
0.729251
0.766129
0.798491
0.831036
0.857771
0.882571
0.901027
0.927397
1.71385
1.6656
1.0274
0.94937
0.896406
0.856897
0.809875
0.773512
0.738729
0.70791
0.678764
0.651596
0.625572
0.601063
0.578071
0.556764
0.537704
0.521386
0.508366
0.499598
0.497846
0.498397
0.502006
0.512958
0.528769
0.548655
0.572077
0.59882
0.626611
0.659099
0.688444
0.7244
0.755439
0.790914
0.822258
0.854153
0.880055
0.903901
0.920594
0.955693
1.71654
1.67791
1.05216
0.978287
0.932807
0.895312
0.849847
0.815352
0.779958
0.749035
0.719572
0.692596
0.666795
0.642777
0.62031
0.599583
0.581084
0.565339
0.552804
0.544445
0.543157
0.543553
0.54644
0.556661
0.571595
0.590435
0.612674
0.638454
0.664642
0.696511
0.724195
0.7594
0.789432
0.824407
0.855627
0.887897
0.913958
0.937729
0.953796
0.994221
1.72363
1.68536
1.0751
1.00463
0.965567
0.929051
0.885556
0.852566
0.816718
0.786119
0.756296
0.729638
0.704092
0.680767
0.659019
0.639157
0.621588
0.606726
0.594919
0.587139
0.586407
0.586588
0.588571
0.59781
0.611544
0.628962
0.649574
0.674077
0.698261
0.729346
0.755138
0.789509
0.818378
0.85271
0.883094
0.915039
0.940223
0.963277
0.977225
1.02551
1.72561
1.6974
1.10128
1.03321
0.999008
0.962729
0.923197
0.891111
0.855119
0.825173
0.794581
0.768386
0.742898
0.720057
0.698579
0.679111
0.661828
0.647181
0.63547
0.627796
0.627415
0.627447
0.628884
0.637776
0.651114
0.667982
0.687749
0.711754
0.734419
0.765234
0.789489
0.823353
0.851563
0.886235
0.916779
0.949925
0.975708
0.999109
1.0118
1.06269
1.72955
1.7055
1.13065
1.06515
1.03492
0.996864
0.960403
0.926455
0.890406
0.861365
0.829589
0.803856
0.777866
0.755309
0.7338
0.714468
0.697324
0.682852
0.671281
0.663804
0.663856
0.663683
0.664404
0.672775
0.68558
0.701825
0.72069
0.744459
0.765737
0.796689
0.819923
0.853811
0.881316
0.916234
0.946301
0.97953
1.00521
1.02848
1.0407
1.09459
1.72983
1.71521
1.15517
1.0912
1.0661
1.02767
0.994888
0.958849
0.924394
0.89582
0.86309
0.837756
0.811091
0.789133
0.767523
0.748284
0.731088
0.716553
0.704838
0.697328
0.697767
0.697506
0.697757
0.705968
0.718659
0.734701
0.752894
0.776736
0.796564
0.827542
0.849754
0.883754
0.910665
0.946439
0.976427
1.0114
1.03741
1.06068
1.07117
1.12366
1.72947
1.71761
1.17868
1.11741
1.0956
1.05647
1.02526
0.986571
0.953476
0.924954
0.891409
0.867351
0.83971
0.818076
0.795858
0.776536
0.759224
0.744604
0.732691
0.725039
0.725779
0.725345
0.725079
0.733147
0.745727
0.761584
0.779037
0.803308
0.82198
0.853481
0.874957
0.909421
0.93543
0.971855
1.00123
1.03645
1.06279
1.08571
1.09595
1.14573
1.72126
1.70766
1.18884
1.13144
1.11429
1.07747
1.04881
1.00852
0.976974
0.947788
0.914236
0.890934
0.862466
0.842311
0.820437
0.801638
0.784374
0.769674
0.757555
0.74983
0.751139
0.750724
0.749978
0.758132
0.7709
0.78682
0.803348
0.827779
0.844737
0.876064
0.896262
0.930624
0.955496
0.992243
1.02146
1.05665
1.08256
1.10372
1.11038
1.15476
1.69828
1.66956
1.18488
1.13189
1.11999
1.0875
1.06099
1.02092
0.993304
0.960652
0.93141
0.908349
0.880305
0.861623
0.839241
0.820728
0.802689
0.786953
0.773528
0.76468
0.765735
0.765382
0.764976
0.774095
0.787784
0.804917
0.820923
0.846439
0.862008
0.893594
0.912315
0.946346
0.969266
1.00503
1.03295
1.06641
1.09141
1.10978
1.1143
1.15153
1.64343
1.74601
1.13845
1.14116
1.14389
1.12189
1.09722
1.05904
1.0268
0.988521
0.955218
0.924381
0.891908
0.866097
0.839094
0.815885
0.794995
0.776784
0.764274
0.754146
0.756078
0.755986
0.754387
0.765247
0.777163
0.798191
0.817337
0.847311
0.870329
0.906138
0.933907
0.972556
1.00429
1.04345
1.07739
1.11147
1.13667
1.15023
1.1477
1.12461
1.71755
2.42094
1.73509
1.64612
1.69245
1.70852
1.71457
1.71543
1.71651
1.71335
1.71397
1.70721
1.70448
1.69768
1.69311
1.6856
1.68164
1.6707
1.67702
1.66181
1.68074
1.68109
1.66006
1.67897
1.66541
1.68728
1.68143
1.69862
1.69811
1.71038
1.71331
1.72118
1.72364
1.72799
1.72777
1.72754
1.72021
1.69871
1.64404
1.71135
2.40727
2.42094
1.73509
1.64612
1.69245
1.70852
1.71457
1.71543
1.71651
1.71335
1.71397
1.70721
1.70448
1.69768
1.69311
1.6856
1.68164
1.6707
1.67702
1.66181
1.68074
1.68109
1.66006
1.67897
1.66541
1.68728
1.68143
1.69862
1.69811
1.71038
1.71331
1.72118
1.72364
1.72799
1.72777
1.72754
1.72021
1.69871
1.64404
1.71135
2.40727
1.74601
1.13845
1.14116
1.14389
1.12189
1.09722
1.05904
1.0268
0.988521
0.955218
0.924381
0.891908
0.866097
0.839094
0.815885
0.794995
0.776784
0.764274
0.754146
0.756078
0.755986
0.754387
0.765247
0.777163
0.798191
0.817337
0.847311
0.870329
0.906138
0.933907
0.972556
1.00429
1.04345
1.07739
1.11147
1.13667
1.15023
1.1477
1.12461
1.71755
1.66956
1.18488
1.13189
1.11999
1.0875
1.06099
1.02092
0.993304
0.960652
0.93141
0.908349
0.880305
0.861623
0.839241
0.820728
0.802689
0.786953
0.773528
0.76468
0.765735
0.765382
0.764976
0.774095
0.787784
0.804917
0.820923
0.846439
0.862008
0.893594
0.912315
0.946346
0.969266
1.00503
1.03295
1.06641
1.09141
1.10978
1.1143
1.15153
1.64343
1.70766
1.18884
1.13144
1.11429
1.07747
1.04881
1.00852
0.976974
0.947788
0.914236
0.890934
0.862466
0.842311
0.820437
0.801638
0.784374
0.769674
0.757555
0.74983
0.751139
0.750724
0.749978
0.758132
0.7709
0.78682
0.803348
0.827779
0.844737
0.876064
0.896262
0.930624
0.955496
0.992243
1.02146
1.05665
1.08256
1.10372
1.11038
1.15476
1.69828
1.71761
1.17868
1.11741
1.0956
1.05647
1.02526
0.986571
0.953476
0.924954
0.891409
0.867351
0.83971
0.818076
0.795858
0.776536
0.759224
0.744604
0.732691
0.725039
0.725779
0.725345
0.725079
0.733147
0.745727
0.761584
0.779037
0.803308
0.82198
0.853481
0.874957
0.909421
0.93543
0.971855
1.00123
1.03645
1.06279
1.08571
1.09595
1.14573
1.72126
1.71521
1.15517
1.0912
1.0661
1.02767
0.994888
0.958849
0.924394
0.89582
0.86309
0.837756
0.811091
0.789133
0.767523
0.748284
0.731088
0.716553
0.704838
0.697328
0.697767
0.697506
0.697757
0.705968
0.718659
0.734701
0.752894
0.776736
0.796564
0.827542
0.849754
0.883754
0.910665
0.946439
0.976427
1.0114
1.03741
1.06068
1.07117
1.12366
1.72947
1.7055
1.13065
1.06515
1.03492
0.996864
0.960403
0.926455
0.890406
0.861365
0.829589
0.803856
0.777866
0.755309
0.7338
0.714468
0.697324
0.682852
0.671281
0.663804
0.663856
0.663683
0.664404
0.672775
0.68558
0.701825
0.72069
0.744459
0.765737
0.796689
0.819923
0.853811
0.881316
0.916234
0.946301
0.97953
1.00521
1.02848
1.0407
1.09459
1.72983
1.6974
1.10128
1.03321
0.999008
0.962729
0.923197
0.891111
0.855119
0.825173
0.794581
0.768386
0.742898
0.720057
0.698579
0.679111
0.661828
0.647181
0.63547
0.627796
0.627415
0.627447
0.628884
0.637776
0.651114
0.667982
0.687749
0.711754
0.734419
0.765234
0.789489
0.823353
0.851563
0.886235
0.916779
0.949925
0.975708
0.999109
1.0118
1.06269
1.72955
1.68536
1.0751
1.00463
0.965567
0.929051
0.885556
0.852566
0.816718
0.786119
0.756296
0.729638
0.704092
0.680767
0.659019
0.639157
0.621588
0.606726
0.594919
0.587139
0.586407
0.586588
0.588571
0.59781
0.611544
0.628962
0.649574
0.674077
0.698261
0.729346
0.755138
0.789509
0.818378
0.85271
0.883094
0.915039
0.940223
0.963277
0.977225
1.02551
1.72561
1.67791
1.05216
0.978287
0.932807
0.895312
0.849847
0.815352
0.779958
0.749035
0.719572
0.692596
0.666795
0.642777
0.62031
0.599583
0.581084
0.565339
0.552804
0.544445
0.543157
0.543553
0.54644
0.556661
0.571595
0.590435
0.612674
0.638454
0.664642
0.696511
0.724195
0.7594
0.789432
0.824407
0.855627
0.887897
0.913958
0.937729
0.953796
0.994221
1.72363
1.6656
1.0274
0.94937
0.896406
0.856897
0.809875
0.773512
0.738729
0.70791
0.678764
0.651596
0.625572
0.601063
0.578071
0.556764
0.537704
0.521386
0.508366
0.499598
0.497846
0.498397
0.502006
0.512958
0.528769
0.548655
0.572077
0.59882
0.626611
0.659099
0.688444
0.7244
0.755439
0.790914
0.822258
0.854153
0.880055
0.903901
0.920594
0.955693
1.71654
1.6599
1.00874
0.92614
0.863955
0.820692
0.773046
0.735207
0.701522
0.671343
0.642523
0.614958
0.588122
0.562433
0.53807
0.515315
0.494858
0.477292
0.463283
0.453804
0.451491
0.452275
0.456861
0.468992
0.486313
0.508022
0.533497
0.562272
0.592613
0.626773
0.658739
0.696327
0.729251
0.766129
0.798491
0.831036
0.857771
0.882571
0.901027
0.927397
1.71385
1.63431
0.983004
0.896539
0.825334
0.777641
0.729137
0.690051
0.657796
0.629185
0.601725
0.57477
0.547967
0.521839
0.496678
0.472888
0.451279
0.432573
0.417588
0.407385
0.404525
0.405571
0.411183
0.424558
0.443414
0.466858
0.494129
0.524568
0.556764
0.591975
0.625702
0.663935
0.697723
0.734967
0.767332
0.799798
0.826312
0.8513
0.869803
0.891861
1.70236
1.61326
0.966044
0.875161
0.790973
0.735689
0.688092
0.648327
0.617928
0.591164
0.564926
0.538117
0.510695
0.483498
0.456958
0.431616
0.408378
0.3881
0.371768
0.36058
0.357068
0.358427
0.365267
0.380231
0.401069
0.426743
0.456336
0.489038
0.523688
0.560831
0.597221
0.637153
0.673148
0.71207
0.745889
0.779687
0.80738
0.833778
0.85377
0.868529
1.70265
1.59463
0.945226
0.850884
0.751386
0.685521
0.639238
0.599556
0.572703
0.549664
0.526392
0.501004
0.473734
0.445896
0.418143
0.391209
0.366128
0.343951
0.325904
0.313429
0.309129
0.310873
0.31922
0.336188
0.359439
0.387693
0.419823
0.454862
0.491774
0.530627
0.569049
0.60998
0.647333
0.686742
0.720728
0.754369
0.781628
0.807781
0.827065
0.837905
1.68612
1.59464
0.931752
0.833204
0.712601
0.633017
0.588648
0.549597
0.528201
0.509794
0.490217
0.466543
0.439365
0.410693
0.381477
0.352619
0.325253
0.30063
0.280278
0.266019
0.260695
0.262943
0.273238
0.292828
0.319125
0.350492
0.385557
0.423231
0.462584
0.503403
0.544055
0.586361
0.625559
0.665984
0.701033
0.735519
0.76371
0.790941
0.811184
0.818478
1.69229
1.57372
0.908861
0.80924
0.669884
0.575289
0.529325
0.494732
0.480877
0.47016
0.456002
0.434897
0.408101
0.378583
0.347769
0.316715
0.286603
0.258863
0.235381
0.218556
0.211802
0.214748
0.227709
0.250836
0.280979
0.316019
0.354348
0.394821
0.436616
0.479397
0.522065
0.565589
0.606377
0.647443
0.683181
0.717825
0.746183
0.7733
0.792624
0.796217
1.67696
1.54207
0.862855
0.76411
0.61222
0.510698
0.460852
0.438759
0.432679
0.433388
0.425529
0.407631
0.381302
0.350842
0.318299
0.284826
0.251535
0.219907
0.192146
0.171471
0.162526
0.166535
0.183403
0.21139
0.246314
0.28553
0.32732
0.37061
0.414741
0.459381
0.503836
0.548492
0.590745
0.632369
0.668831
0.703673
0.732344
0.75948
0.778309
0.780757
1.68645
1.3918
0.725003
0.649426
0.528863
0.432621
0.382629
0.380475
0.390039
0.40135
0.4011
0.386447
0.360463
0.32896
0.294694
0.258791
0.222123
0.185957
0.152492
0.125766
0.112996
0.118885
0.141996
0.176652
0.217186
0.260766
0.305895
0.351761
0.397939
0.444191
0.490124
0.535754
0.579224
0.621273
0.658377
0.693316
0.722199
0.74911
0.766814
0.764307
1.6659
0.744267
0.292596
0.379301
0.364156
0.318721
0.304272
0.32772
0.355478
0.377922
0.384085
0.372117
0.346166
0.313784
0.278196
0.240375
0.200834
0.160334
0.120313
0.0842966
0.0634517
0.0736365
0.107359
0.150175
0.196174
0.243455
0.291183
0.338947
0.386568
0.43393
0.480849
0.527131
0.571415
0.613728
0.651306
0.686314
0.715375
0.742224
0.758934
0.755607
1.66587
)
;

boundaryField
{
    inlet
    {
        type            calculated;
        value           uniform 0;
    }
    outlet
    {
        type            calculated;
        value           nonuniform List<scalar> 
165
(
0.744267
1.3918
1.54207
1.57372
1.59464
1.59463
1.61326
1.63431
1.6599
1.6656
1.67791
1.68536
1.6974
1.7055
1.71521
1.71761
1.70766
1.66956
1.74601
2.42094
2.42094
1.73509
1.64612
1.69245
1.70852
1.71457
1.71543
1.71651
1.71335
1.71397
1.70721
1.70448
1.69768
1.69311
1.6856
1.68164
1.6707
1.67702
1.66181
1.68074
1.68109
1.66006
1.67897
1.66541
1.68728
1.68143
1.69862
1.69811
1.71038
1.71331
1.72118
1.72364
1.72799
1.72777
1.72754
1.72021
1.69871
1.64404
1.71135
2.40727
1.66587
1.6659
1.68645
1.67696
1.69229
1.68612
1.70265
1.70236
1.71385
1.71654
1.72363
1.72561
1.72955
1.72983
1.72947
1.72126
1.69828
1.64343
1.71755
2.40727
1.66598
1.66494
1.66863
1.66494
1.66598
2.40727
1.71755
1.64343
1.69828
1.72126
1.72947
1.72983
1.72955
1.72561
1.72363
1.71654
1.71385
1.70236
1.70265
1.68612
1.69229
1.67696
1.68645
1.6659
1.66587
2.42094
1.73509
1.64612
1.69245
1.70852
1.71457
1.71543
1.71651
1.71335
1.71397
1.70721
1.70448
1.69768
1.69311
1.6856
1.68164
1.6707
1.67702
1.66181
1.68074
1.68109
1.66006
1.67897
1.66541
1.68728
1.68143
1.69862
1.69811
1.71038
1.71331
1.72118
1.72364
1.72799
1.72777
1.72754
1.72021
1.69871
1.64404
1.71135
2.40727
2.42094
1.74601
1.66956
1.70766
1.71761
1.71521
1.7055
1.6974
1.68536
1.67791
1.6656
1.6599
1.63431
1.61326
1.59463
1.59464
1.57372
1.54207
1.3918
0.744267
)
;
    }
    obstacle
    {
        type            calculated;
        value           nonuniform List<scalar> 
40
(
0.768937
0.102106
0.0461692
0.0353798
0.024303
0.0129663
0.00312195
0.00540422
0.0133182
0.0193611
0.768937
0.102106
0.0461692
0.0353798
0.024303
0.0129663
0.00312195
0.00540422
0.0133182
0.0193611
0.0270421
0.0442775
0.0734285
0.117931
0.192709
0.0270421
0.0442775
0.0734285
0.117931
0.192709
0.308226
0.315131
0.338753
0.365619
0.38231
0.308226
0.315131
0.338753
0.365619
0.38231
)
;
    }
    empty
    {
        type            empty;
    }
}


// ************************************************************************* //
