/*--------------------------------*- C++ -*----------------------------------*\
| =========                 |                                                 |
| \\      /  F ield         | OpenFOAM: The Open Source CFD Toolbox           |
|  \\    /   O peration     | Version:  v1912                                 |
|   \\  /    A nd           | Website:  www.openfoam.com                      |
|    \\/     M anipulation  |                                                 |
\*---------------------------------------------------------------------------*/
FoamFile
{
    version     2.0;
    format      ascii;
    class       volVectorField;
    location    "5.74";
    object      grad(rho);
}
// * * * * * * * * * * * * * * * * * * * * * * * * * * * * * * * * * * * * * //

dimensions      [1 -4 0 0 0 0 0];


internalField   nonuniform List<vector> 
1900
(
(140431 0.190255 0)
(-133377 0.442713 0)
(-11442.2 -0.0848634 0)
(-3367.99 -0.0728315 0)
(-2252.65 2.12155 0)
(-1235.17 4.1269 0)
(-678.156 3.90783 0)
(-255.469 6.17424 0)
(-118.995 -58.4754 0)
(882.393 -107.838 0)
(140432 0.107377 0)
(-133378 0.730535 0)
(-11442.8 0.0695855 0)
(-3365.79 0.406463 0)
(-2248.46 3.8412 0)
(-1233.38 6.23054 0)
(-676.109 0.747955 0)
(-317.853 -14.9178 0)
(-233.007 -132.946 0)
(-43.3021 -147.061 0)
(140432 -5.69855e-08 0)
(-133377 7.56373e-08 0)
(-11442.6 1.0445e-08 0)
(-3364.22 8.81073e-09 0)
(-2246.83 -9.14824e-09 0)
(-1238.26 -2.3519e-08 0)
(-699.304 -2.2915e-08 0)
(-389.164 -3.39284e-09 0)
(-251.138 7.97584e-09 0)
(-154.451 7.6561e-09 0)
(140432 -0.107377 0)
(-133378 -0.730535 0)
(-11442.8 -0.0695855 0)
(-3365.79 -0.406463 0)
(-2248.46 -3.8412 0)
(-1233.38 -6.23054 0)
(-676.109 -0.747955 0)
(-317.853 14.9178 0)
(-233.007 132.946 0)
(-43.3021 147.061 0)
(140431 -0.190255 0)
(-133377 -0.442713 0)
(-11442.2 0.0848634 0)
(-3367.99 0.0728315 0)
(-2252.65 -2.12155 0)
(-1235.17 -4.1269 0)
(-678.156 -3.90783 0)
(-255.469 -6.17424 0)
(-118.995 58.4754 0)
(882.393 107.838 0)
(18.6965 -870.961 1.27627e-11)
(-2156.52 -631.276 -1.5091e-11)
(-3022.77 -650.289 -1.89613e-11)
(-2631.05 -587.957 0)
(-24899.5 -7903.07 -7.95171e-11)
(-378.773 -1039.51 1.26053e-11)
(-1429.69 -741.133 1.5091e-11)
(-2656.39 -679.822 1.89613e-11)
(-5327.86 -93.0002 0)
(-23431.2 -6549.02 0)
(-746.778 9.3484e-09 0)
(-1437.94 8.90126e-09 0)
(-2435.12 7.62353e-09 0)
(-4952.26 2.89331e-09 0)
(-25903.4 -6.07979e-09 0)
(-378.773 1039.51 1.26053e-11)
(-1429.69 741.133 1.5091e-11)
(-2656.39 679.822 1.89613e-11)
(-5327.86 93.0002 0)
(-23431.2 6549.02 0)
(18.6965 870.961 -3.79733e-11)
(-2156.52 631.276 -1.5091e-11)
(-3022.77 650.289 -1.89613e-11)
(-2631.05 587.957 -5.06447e-11)
(-24899.5 7903.07 7.95171e-11)
(-44629.1 15277.7 1.8692e-11)
(-10894.9 6276.08 -1.0828e-11)
(-303.281 2834.62 0)
(-914.868 1657.25 8.02452e-12)
(-6751.41 2031.23 -3.44108e-12)
(-39981.7 19538.1 -9.57607e-12)
(-13653.5 5256.49 5.50849e-12)
(-1501.22 1248.52 0)
(-1007.59 442.114 -5.04985e-12)
(-5743.35 1082.52 8.83715e-13)
(-41662.1 -6.28005e-10 0)
(-15608.5 -1.02482e-09 0)
(-1876.49 1.15134e-09 0)
(-1017.37 6.3856e-10 2.02527e-12)
(-5418.39 1.86985e-09 -1.76743e-12)
(-39981.7 -19538.1 -9.57607e-12)
(-13653.5 -5256.49 5.50849e-12)
(-1501.22 -1248.52 0)
(-1007.59 -442.114 -5.04985e-12)
(-5743.35 -1082.52 8.83715e-13)
(-44629.1 -15277.7 9.57607e-12)
(-10894.9 -6276.08 -1.89015e-13)
(-303.281 -2834.62 0)
(-914.868 -1657.25 4.99109e-14)
(-6751.41 -2031.23 3.44108e-12)
(-8587.44 6495.41 0)
(-2347.83 -1201.26 0)
(3952.37 -1292.23 0)
(5952.87 883.264 0)
(2694.6 2661.42 0)
(-519.628 2140.21 0)
(-2356.41 1449.03 0)
(-3102.8 721.105 0)
(-2713.69 332.818 0)
(-1859.98 147.659 0)
(-1145.04 65.9272 0)
(-826.272 28.0484 0)
(-736.959 18.6185 0)
(-682.07 29.9187 0)
(-578.669 16.2525 0)
(-415.353 4.44703 0)
(-255.653 -1.31381 0)
(-155.074 -2.55217 0)
(-109.445 -2.31778 0)
(-90.2149 -1.95797 0)
(-78.2617 -1.83665 0)
(-67.2373 -1.92726 0)
(-55.7107 -2.12348 0)
(-44.0418 -2.35011 0)
(-32.5316 -2.5744 0)
(-21.415 -2.80072 0)
(-9.00407 -2.97706 0)
(6.7331 -3.13359 0)
(27.5273 -3.2437 0)
(46.6731 -3.11503 0)
(68.9941 -3.08362 0)
(86.254 -2.52233 0)
(110.864 -3.05306 0)
(133.303 -1.48331 0)
(204.092 -4.65283 0)
(280.753 3.32369 0)
(370.772 3.42491 0)
(488.507 1.69234 0)
(1541.62 -30.5893 0)
(8992.91 -466.057 0)
(-9249.65 4389.13 0)
(-3651.3 -715.139 0)
(4514.22 -652.672 0)
(6536.96 601.067 0)
(2719.94 1253.26 0)
(-812.367 748.695 0)
(-2625.38 451.363 0)
(-3259.29 293.249 0)
(-2778.74 164.45 0)
(-1886.89 67.4229 0)
(-1156.17 28.5906 0)
(-831.219 10.568 0)
(-736.032 4.29982 0)
(-681.838 14.8863 0)
(-581.548 5.49275 0)
(-416.713 0.838026 0)
(-256.131 -0.927798 0)
(-155.122 -1.25813 0)
(-109.382 -1.12053 0)
(-90.1661 -0.949981 0)
(-78.2551 -0.888909 0)
(-67.2611 -0.926726 0)
(-55.7484 -1.01593 0)
(-44.0833 -1.12311 0)
(-32.5743 -1.23376 0)
(-21.4541 -1.34952 0)
(-9.03853 -1.44593 0)
(6.70173 -1.53992 0)
(27.5209 -1.61898 0)
(46.6761 -1.59408 0)
(69.0404 -1.61449 0)
(86.2392 -1.37305 0)
(110.986 -1.63851 0)
(133.112 -0.717224 0)
(204.534 -2.39626 0)
(281.585 1.47179 0)
(369.981 2.12863 0)
(484.617 1.02962 0)
(1516.81 -15.4902 0)
(8946.44 -136.804 0)
(-8882.26 -3.96451e-08 0)
(-3814.54 -2.96329e-09 0)
(4335.26 3.52025e-07 0)
(6507.33 1.37345e-07 0)
(2737.54 -3.128e-08 0)
(-752.909 -5.321e-08 0)
(-2488.91 -5.25156e-08 0)
(-3186.27 -4.54263e-08 0)
(-2779.38 -4.36822e-08 0)
(-1899.5 -3.30079e-08 0)
(-1161.57 -2.55069e-08 0)
(-833.339 -1.33953e-08 0)
(-735.703 -2.59994e-09 0)
(-681.723 8.0582e-09 0)
(-582.756 -1.52686e-08 0)
(-417.221 -1.83045e-08 0)
(-256.263 -5.57938e-09 0)
(-155.131 -1.37264e-10 0)
(-109.355 1.69561e-09 0)
(-90.1475 5.9185e-09 0)
(-78.2549 9.11594e-09 0)
(-67.2742 1.20712e-08 0)
(-55.7678 1.3363e-08 0)
(-44.1052 8.85756e-09 0)
(-32.5975 3.61731e-09 0)
(-21.4767 7.26691e-11 0)
(-9.05946 -2.10741e-09 0)
(6.68276 -5.08684e-09 0)
(27.5115 -1.77636e-09 0)
(46.6744 7.75945e-09 0)
(69.0584 1.91201e-08 0)
(86.2471 2.13728e-08 0)
(111.055 7.04083e-09 0)
(133.083 1.29593e-08 0)
(204.729 4.11711e-08 0)
(282.069 2.15424e-08 0)
(370.643 -3.36458e-08 0)
(483.382 2.78e-08 0)
(1501.52 -1.32379e-07 0)
(8933.82 -5.30541e-07 0)
(-9249.65 -4389.13 0)
(-3651.3 715.139 0)
(4514.22 652.672 0)
(6536.96 -601.067 0)
(2719.94 -1253.26 0)
(-812.367 -748.695 0)
(-2625.38 -451.363 0)
(-3259.29 -293.249 0)
(-2778.74 -164.45 0)
(-1886.89 -67.4229 0)
(-1156.17 -28.5906 0)
(-831.219 -10.568 0)
(-736.032 -4.29982 0)
(-681.838 -14.8863 0)
(-581.548 -5.49275 0)
(-416.713 -0.838026 0)
(-256.131 0.927798 0)
(-155.122 1.25813 0)
(-109.382 1.12053 0)
(-90.1661 0.949981 0)
(-78.2551 0.888909 0)
(-67.2611 0.926726 0)
(-55.7484 1.01593 0)
(-44.0833 1.12311 0)
(-32.5743 1.23376 0)
(-21.4541 1.34952 0)
(-9.03853 1.44593 0)
(6.70173 1.53992 0)
(27.5209 1.61898 0)
(46.6761 1.59408 0)
(69.0404 1.61449 0)
(86.2392 1.37305 0)
(110.986 1.63851 0)
(133.112 0.717224 0)
(204.534 2.39626 0)
(281.585 -1.47179 0)
(369.981 -2.12863 0)
(484.617 -1.02962 0)
(1516.81 15.4902 0)
(8946.44 136.804 0)
(-8587.44 -6495.41 0)
(-2347.83 1201.26 0)
(3952.37 1292.23 0)
(5952.87 -883.264 0)
(2694.6 -2661.42 0)
(-519.628 -2140.21 0)
(-2356.41 -1449.03 0)
(-3102.8 -721.105 0)
(-2713.69 -332.818 0)
(-1859.98 -147.659 0)
(-1145.04 -65.9272 0)
(-826.272 -28.0484 0)
(-736.959 -18.6185 0)
(-682.07 -29.9187 0)
(-578.669 -16.2525 0)
(-415.353 -4.44703 0)
(-255.653 1.31381 0)
(-155.074 2.55217 0)
(-109.445 2.31778 0)
(-90.2149 1.95797 0)
(-78.2617 1.83665 0)
(-67.2373 1.92726 0)
(-55.7107 2.12348 0)
(-44.0418 2.35011 0)
(-32.5316 2.5744 0)
(-21.415 2.80072 0)
(-9.00407 2.97706 0)
(6.7331 3.13359 0)
(27.5273 3.2437 0)
(46.6731 3.11503 0)
(68.9941 3.08362 0)
(86.254 2.52233 0)
(110.864 3.05306 0)
(133.303 1.48331 0)
(204.092 4.65283 0)
(280.753 -3.32369 0)
(370.772 -3.42491 0)
(488.507 -1.69234 0)
(1541.62 30.5893 0)
(8992.91 466.057 0)
(-1020.56 -2053.48 0)
(-273.468 1001.39 0)
(3856.3 2007.9 0)
(4732.29 -476.67 0)
(1960.79 -2406.3 0)
(-390.347 -2126.9 0)
(-2046.2 -1801.04 0)
(-2740.06 -1106.45 0)
(-2494.25 -590.359 0)
(-1750.6 -279.13 0)
(-1094.02 -118.588 0)
(-807.263 -58.2147 0)
(-736.134 -45.7981 0)
(-680.084 -48.1461 0)
(-568.899 -31.2602 0)
(-407.268 -10.1581 0)
(-252.293 1.2676 0)
(-154.547 4.03398 0)
(-109.682 3.70668 0)
(-90.4115 3.093 0)
(-78.2667 2.91507 0)
(-67.1088 3.11061 0)
(-55.5267 3.48155 0)
(-43.8484 3.89743 0)
(-32.3411 4.3024 0)
(-21.2467 4.70574 0)
(-8.86957 5.02256 0)
(6.8327 5.28635 0)
(27.5019 5.4575 0)
(46.5792 5.23444 0)
(68.722 5.06491 0)
(86.2029 4.1983 0)
(110.474 4.73772 0)
(133.894 2.9977 0)
(202.03 6.1462 0)
(277.48 -4.18138 0)
(370.09 -6.09199 0)
(501.455 -14.3968 0)
(1781.53 31.324 0)
(8629.24 104.883 0)
(-590.861 -38.3799 0)
(453.519 419.341 0)
(2579.57 430.515 0)
(2353.71 -1524.83 0)
(1497.86 -2268.08 0)
(-5.6987 -2353.24 0)
(-1539.41 -1970.6 0)
(-2130.66 -1360.62 0)
(-2034.12 -804.281 0)
(-1464.02 -394.12 0)
(-959.51 -173.277 0)
(-766.323 -97.9981 0)
(-727.699 -79.5067 0)
(-669.126 -69.002 0)
(-547.302 -44.771 0)
(-388.344 -15.8865 0)
(-243.779 0.752543 0)
(-153.007 5.45889 0)
(-110.225 5.30816 0)
(-90.8723 4.53597 0)
(-78.242 4.35323 0)
(-66.7603 4.70598 0)
(-55.0512 5.30913 0)
(-43.3545 5.97838 0)
(-31.8549 6.63559 0)
(-20.8113 7.2973 0)
(-8.5167 7.82132 0)
(7.09882 8.26462 0)
(27.4909 8.57395 0)
(46.3452 8.27404 0)
(68.1415 8.00004 0)
(85.9662 6.87114 0)
(109.916 7.47768 0)
(134.344 5.7198 0)
(198.28 8.12746 0)
(270.715 -3.04639 0)
(361.293 -8.30047 0)
(517.62 -23.9127 0)
(1527.91 37.1688 0)
(8919.51 -343.111 0)
(-2540.18 -536.288 0)
(178.376 -163.459 0)
(1982.82 -833.014 0)
(2131.82 -1500.84 0)
(1162.5 -1683.57 0)
(-103.676 -2087.97 0)
(-1089.68 -1818 0)
(-1616.16 -1368.53 0)
(-1562.89 -854.718 0)
(-1142.54 -434.239 0)
(-808.666 -216.985 0)
(-716.903 -138.276 0)
(-708.192 -113.684 0)
(-646.612 -89.1995 0)
(-517.715 -55.6309 0)
(-363.399 -20.7658 0)
(-231.724 -0.330686 0)
(-150.157 6.14209 0)
(-110.571 6.47702 0)
(-91.3317 5.79139 0)
(-78.1028 5.73132 0)
(-66.1876 6.30141 0)
(-54.3006 7.17048 0)
(-42.5702 8.12139 0)
(-31.0701 9.06543 0)
(-20.1041 10.0467 0)
(-7.93743 10.8105 0)
(7.55797 11.4339 0)
(27.511 11.9379 0)
(46.0261 11.5219 0)
(67.3701 11.157 0)
(85.6995 9.78324 0)
(109.365 10.4467 0)
(134.52 8.72914 0)
(193.583 10.3262 0)
(261.649 -1.05459 0)
(349.983 -9.51074 0)
(545.271 -20.8514 0)
(1473.94 59.4739 0)
(8802.15 -96.536 0)
(-3454.66 -220.969 0)
(167.584 -97.3744 0)
(1290.82 -455.714 0)
(1534.08 -1028.95 0)
(932.082 -1435.29 0)
(-135.24 -1674.01 0)
(-846.139 -1563.68 0)
(-1202.41 -1234.87 0)
(-1133.8 -791.895 0)
(-849.475 -422.126 0)
(-674.309 -242.984 0)
(-666.778 -172.38 0)
(-680.407 -141.537 0)
(-613.183 -104.646 0)
(-481.357 -61.6806 0)
(-335.054 -23.2107 0)
(-217.849 -1.03468 0)
(-146.447 6.41745 0)
(-110.563 7.30386 0)
(-91.5908 6.93615 0)
(-77.7506 7.14591 0)
(-65.3735 7.98316 0)
(-53.2974 9.11089 0)
(-41.5285 10.3031 0)
(-29.9996 11.4692 0)
(-19.1297 12.6878 0)
(-7.17988 13.6929 0)
(8.18526 14.4951 0)
(27.5756 15.0231 0)
(45.5927 14.4427 0)
(66.4661 13.8758 0)
(85.2817 12.2611 0)
(108.9 12.573 0)
(134.228 10.9665 0)
(188.852 11.485 0)
(251.6 1.29458 0)
(342.216 -10.3205 0)
(584.096 -11.3267 0)
(1454.98 68.7055 0)
(8660.98 -63.5816 0)
(-3791.03 -150.376 0)
(-47.8324 -333.802 0)
(1085.12 -435.093 0)
(1187.86 -623.724 0)
(540.896 -1164.66 0)
(-227.394 -1380.93 0)
(-666.509 -1310.37 0)
(-872.443 -1030.17 0)
(-779.695 -667.218 0)
(-613.587 -384.016 0)
(-568.002 -248.103 0)
(-619.145 -194.765 0)
(-642.921 -158.299 0)
(-569.659 -112.041 0)
(-439.241 -62.1163 0)
(-304.959 -22.306 0)
(-203.173 -0.221846 0)
(-142.122 7.56206 0)
(-110.071 8.97578 0)
(-91.4839 9.05658 0)
(-77.0939 9.62516 0)
(-64.2941 10.7522 0)
(-52.065 12.122 0)
(-40.2977 13.5185 0)
(-28.772 14.8484 0)
(-17.9613 16.1625 0)
(-6.19583 17.4224 0)
(8.83984 18.5267 0)
(27.4604 18.8364 0)
(44.9206 18.1601 0)
(65.2679 17.3934 0)
(84.4441 15.5868 0)
(108.117 15.4318 0)
(133.471 13.8769 0)
(184.263 13.7535 0)
(240.637 5.6683 0)
(337.82 -6.87642 0)
(621.423 0.347082 0)
(1423.58 66.1216 0)
(8568.29 -66.0271 0)
(-4179.94 -347.755 0)
(-106.78 -372.698 0)
(1011.44 -331.651 0)
(831.049 -586.564 0)
(202.41 -1067.49 0)
(-275.651 -1149.87 0)
(-508.135 -1064.91 0)
(-582.649 -800.518 0)
(-511.142 -524.373 0)
(-445.601 -338.567 0)
(-491.94 -247.741 0)
(-580.239 -210.293 0)
(-600.692 -167.876 0)
(-520.498 -112.986 0)
(-394.885 -58.8995 0)
(-275.411 -18.9873 0)
(-189.068 1.88852 0)
(-137.583 9.76641 0)
(-109.123 11.7912 0)
(-90.9651 12.4772 0)
(-76.1166 13.4876 0)
(-62.9674 14.8974 0)
(-50.6317 16.4359 0)
(-38.9012 17.9276 0)
(-27.4517 19.2883 0)
(-16.6494 20.5332 0)
(-4.90162 21.8467 0)
(9.54788 23.0351 0)
(27.2223 22.8923 0)
(44.2021 21.9051 0)
(63.9864 20.6801 0)
(83.3915 18.4365 0)
(107.252 17.5326 0)
(132.611 15.6722 0)
(180.942 14.854 0)
(231.72 8.36614 0)
(337.089 -3.01757 0)
(654.44 9.05161 0)
(1391.02 58.971 0)
(8482.81 -87.953 0)
(-4749.04 -467.357 0)
(-32.3143 -353.138 0)
(879.035 -322.024 0)
(478.781 -704.081 0)
(-1.92342 -957.47 0)
(-224.909 -945.564 0)
(-329.863 -808.499 0)
(-351.559 -595.293 0)
(-334.543 -405.218 0)
(-347.015 -295.496 0)
(-444.392 -245.413 0)
(-542.183 -216.144 0)
(-549.153 -166.512 0)
(-464.646 -104.367 0)
(-348.66 -49.1207 0)
(-246.381 -11.0773 0)
(-175.465 8.31446 0)
(-132.579 15.9833 0)
(-107.459 18.5936 0)
(-89.8491 19.9086 0)
(-74.7617 21.3456 0)
(-61.4531 22.9509 0)
(-49.145 24.5168 0)
(-37.549 25.9445 0)
(-26.2612 27.1754 0)
(-15.4959 28.2291 0)
(-3.78483 29.3479 0)
(9.84743 30.3296 0)
(26.3715 29.6536 0)
(42.7888 28.0984 0)
(61.9253 26.1812 0)
(81.4109 23.2705 0)
(105.454 21.4175 0)
(130.89 18.8627 0)
(177.222 17.4221 0)
(223.415 11.3026 0)
(338.481 2.62623 0)
(681.158 14.3363 0)
(1330.1 48.6099 0)
(8419.46 -121.188 0)
(-5412.19 -467.764 0)
(33.2688 -348.447 0)
(673.262 -408.161 0)
(218.71 -769.03 0)
(-30.2918 -741.575 0)
(-132.097 -692.36 0)
(-170.6 -564.476 0)
(-194.032 -432.049 0)
(-222.247 -318.179 0)
(-291.607 -261.197 0)
(-415.473 -239.232 0)
(-504.207 -210.341 0)
(-492.979 -154.052 0)
(-407.376 -88.7828 0)
(-304.988 -35.0246 0)
(-220.064 -0.916741 0)
(-162.991 16.8761 0)
(-127.678 24.4195 0)
(-105.34 27.6889 0)
(-88.3131 29.6647 0)
(-73.185 31.5114 0)
(-59.9116 33.2435 0)
(-47.7469 34.7291 0)
(-36.3392 35.9708 0)
(-25.2502 36.9541 0)
(-14.5559 37.7083 0)
(-2.87746 38.4409 0)
(9.84247 38.962 0)
(25.0723 37.6565 0)
(40.856 35.3825 0)
(59.334 32.641 0)
(78.801 28.9925 0)
(103.005 26.1658 0)
(128.76 22.9305 0)
(173.657 20.898 0)
(217.462 15.3239 0)
(340.012 9.23326 0)
(698.751 18.3234 0)
(1260.42 41.7188 0)
(8359.17 -153.146 0)
(-6091.07 -397.347 0)
(25.1213 -302.166 0)
(473.746 -479.58 0)
(157.491 -598.377 0)
(71.9579 -498.621 0)
(-54.2498 -462.846 0)
(-79.0175 -388.722 0)
(-114.218 -318.179 0)
(-169.904 -260.62 0)
(-270.939 -240.767 0)
(-395.385 -232.71 0)
(-460.101 -196.502 0)
(-432.015 -133.053 0)
(-349.947 -68.1655 0)
(-263.989 -17.2799 0)
(-196.368 13.833 0)
(-151.05 30.1449 0)
(-122.16 38.095 0)
(-102.404 42.2384 0)
(-86.1656 44.9379 0)
(-71.313 47.1113 0)
(-58.3524 48.7703 0)
(-46.5169 49.8964 0)
(-35.4049 50.6155 0)
(-24.5869 50.9779 0)
(-14.0631 51.1189 0)
(-2.5767 51.0474 0)
(9.09161 50.5601 0)
(22.9221 48.2983 0)
(37.9557 44.9422 0)
(55.7678 41.0452 0)
(75.1712 36.3005 0)
(99.6121 32.3214 0)
(125.814 28.162 0)
(169.892 25.4888 0)
(212.174 20.1565 0)
(341.371 15.9071 0)
(712.462 22.7573 0)
(1164.87 38.0181 0)
(8308.24 -183.001 0)
(-6571.87 -302.017 0)
(-45.973 -233.984 0)
(387.822 -404.276 0)
(200.361 -363.142 0)
(100.311 -324.495 0)
(-26.1942 -316.036 0)
(-31.194 -278.803 0)
(-70.5882 -243.73 0)
(-147.651 -221.827 0)
(-264.712 -223.848 0)
(-372.817 -215.304 0)
(-408.174 -169.29 0)
(-369.31 -103.093 0)
(-295.813 -42.1787 0)
(-225.971 2.97738 0)
(-174.364 29.7078 0)
(-139.611 44.4646 0)
(-116.024 52.365 0)
(-98.7462 57.0411 0)
(-83.6175 60.2147 0)
(-69.4919 62.587 0)
(-57.2278 64.1949 0)
(-45.9688 65.1414 0)
(-35.2971 65.6317 0)
(-24.7651 65.7592 0)
(-14.4888 65.717 0)
(-3.41593 65.2323 0)
(7.19332 64.2171 0)
(19.6586 61.457 0)
(33.8667 57.5232 0)
(51.0066 52.9446 0)
(70.3944 47.5623 0)
(95.1622 42.8977 0)
(122.176 38.2499 0)
(165.942 35.3188 0)
(208.229 30.2874 0)
(342.518 27.7297 0)
(720.058 32.5908 0)
(1062.14 39.1266 0)
(8248.99 -211.877 0)
(-6943.57 -179.893 0)
(-73.4188 -170.515 0)
(349.285 -294.09 0)
(234.371 -249.323 0)
(117.351 -220.771 0)
(-10.2199 -217.201 0)
(-9.34098 -197.596 0)
(-59.3138 -189.1 0)
(-150.745 -193.633 0)
(-264.653 -203.668 0)
(-342.812 -185.443 0)
(-351.971 -133.272 0)
(-309.525 -67.7729 0)
(-247.734 -11.4499 0)
(-194.717 25.5934 0)
(-156.389 48.2523 0)
(-129.217 61.5484 0)
(-110.041 69.4543 0)
(-94.8402 74.6513 0)
(-80.8214 78.2259 0)
(-67.4776 80.6268 0)
(-55.891 81.9259 0)
(-45.1324 82.4365 0)
(-34.8095 82.5264 0)
(-24.5046 82.3545 0)
(-14.5709 82.195 0)
(-4.0221 81.385 0)
(5.45353 79.9454 0)
(16.4717 76.8735 0)
(29.7529 72.6379 0)
(46.1691 67.7309 0)
(65.4896 62.0672 0)
(90.6383 57.219 0)
(118.511 52.4686 0)
(162.22 49.6311 0)
(204.861 45.0528 0)
(343.591 43.2144 0)
(723.444 48.0528 0)
(929.291 50.229 0)
(8202.27 -209.476 0)
(-7124.18 -76.4594 0)
(-156.017 -95.7977 0)
(311.88 -190.755 0)
(271.014 -148.844 0)
(131.264 -136.145 0)
(-3.86162 -143.283 0)
(-4.1145 -140.585 0)
(-66.7702 -151.494 0)
(-161.69 -169.213 0)
(-256.82 -172.402 0)
(-304.98 -144.283 0)
(-294.783 -89.3084 0)
(-251.918 -30.5816 0)
(-205.842 16.8462 0)
(-168.44 47.0104 0)
(-139.716 66.2413 0)
(-119.18 77.334 0)
(-103.398 84.2928 0)
(-90.2936 89.039 0)
(-77.8593 92.4583 0)
(-65.9265 94.9793 0)
(-55.4839 96.6748 0)
(-45.3901 97.7929 0)
(-35.3761 98.5652 0)
(-25.0845 99.0001 0)
(-15.423 99.3286 0)
(-5.5837 98.5969 0)
(2.84578 97.2074 0)
(12.6168 94.2564 0)
(25.0565 90.1376 0)
(40.8203 85.3693 0)
(60.2647 80.0425 0)
(85.9126 75.8946 0)
(114.864 72.2779 0)
(158.796 70.9864 0)
(202.045 68.6853 0)
(345.409 69.8394 0)
(726.818 77.6741 0)
(813.98 74.3339 0)
(8086.95 -192.105 0)
(-7232.84 32.6573 0)
(-183.558 -20.3193 0)
(298.168 -71.6162 0)
(286.995 -41.9519 0)
(122.71 -52.224 0)
(-14.4984 -71.0236 0)
(-17.254 -86.6783 0)
(-86.9012 -114.892 0)
(-170.892 -137.425 0)
(-240.629 -128.699 0)
(-262.74 -90.5241 0)
(-242.404 -34.4117 0)
(-207.231 14.9164 0)
(-172.963 51.0578 0)
(-147.118 76.4843 0)
(-127.168 92.4219 0)
(-111.822 102.332 0)
(-98.7612 108.996 0)
(-86.9716 113.84 0)
(-75.0971 117.345 0)
(-63.4144 119.618 0)
(-53.1797 120.742 0)
(-43.3107 121.307 0)
(-33.6461 121.775 0)
(-23.7689 122.096 0)
(-14.9595 122.471 0)
(-6.06621 121.557 0)
(1.27086 120.292 0)
(9.659 117.719 0)
(21.189 113.989 0)
(36.4411 109.635 0)
(56.3594 104.881 0)
(83.1561 101.952 0)
(113.781 99.9552 0)
(158.758 100.943 0)
(203.756 101.689 0)
(352.253 105.704 0)
(727.775 118.311 0)
(669.322 112.489 0)
(7951.2 -95.1873 0)
(-7117.97 231.837 0)
(-256.498 71.364 0)
(291.034 33.0138 0)
(289.701 37.5523 0)
(103.25 8.06536 0)
(-37.0631 -14.1724 0)
(-46.3874 -42.8203 0)
(-115.671 -74.309 0)
(-174.995 -90.0177 0)
(-211.625 -69.2073 0)
(-214.121 -24.7839 0)
(-193.176 22.1282 0)
(-169.557 61.6281 0)
(-146.513 90.165 0)
(-128.58 110.27 0)
(-114.808 123.547 0)
(-103.208 132.16 0)
(-92.3085 137.556 0)
(-82.2487 140.563 0)
(-72.2916 142.312 0)
(-62.653 144.386 0)
(-53.8561 146.861 0)
(-44.3941 148.828 0)
(-34.6159 149.907 0)
(-24.4145 150.26 0)
(-15.942 150.498 0)
(-7.68278 149.404 0)
(-0.852431 148.269 0)
(6.54277 146.266 0)
(17.2666 143.371 0)
(32.0435 139.595 0)
(52.8605 135.642 0)
(81.1659 134.037 0)
(113.892 133.739 0)
(160.467 136.851 0)
(206.633 139.82 0)
(361.427 146.061 0)
(733.356 162.558 0)
(608.245 163.326 0)
(7645.39 103.151 0)
(-6770.13 410.066 0)
(-375.151 188.497 0)
(265.585 152.548 0)
(262.954 126.592 0)
(72.8662 71.9266 0)
(-63.5337 51.2085 0)
(-75.2037 19.0919 0)
(-132.382 -0.365878 0)
(-165.976 -1.30632 0)
(-177.768 25.4843 0)
(-174.726 63.0046 0)
(-159.134 100.138 0)
(-141.668 131.15 0)
(-126.09 155.588 0)
(-114.95 173.513 0)
(-106.074 187.583 0)
(-98.3224 199.217 0)
(-90.6634 208.548 0)
(-82.388 215.025 0)
(-71.4134 218.628 0)
(-59.0311 220.467 0)
(-48.899 220.546 0)
(-40.3754 218.563 0)
(-32.2661 215.307 0)
(-23.1999 211.968 0)
(-15.7852 209.795 0)
(-8.21425 206.735 0)
(-1.75277 204.042 0)
(4.93999 200.831 0)
(14.7608 197.619 0)
(28.9931 193.312 0)
(51.0037 189.289 0)
(81.3214 188.305 0)
(116.493 189.048 0)
(164.618 193.539 0)
(212.631 199.423 0)
(374.164 207.53 0)
(744.413 222.888 0)
(612.076 224.584 0)
(7178.63 307.908 0)
(-6224.57 620.647 0)
(-504.652 305.266 0)
(231.38 280.183 0)
(212.011 218.115 0)
(30.6072 141.323 0)
(-87.9765 124.848 0)
(-96.0863 93.6892 0)
(-135.328 84.6124 0)
(-150.085 92.0459 0)
(-149.652 117.4 0)
(-142.182 146.411 0)
(-127.509 177.635 0)
(-116.123 203.35 0)
(-105.69 225.865 0)
(-97.7476 245.263 0)
(-90.039 262.962 0)
(-83.0062 278.043 0)
(-77.0749 289.759 0)
(-72.5356 298.362 0)
(-67.0478 303.663 0)
(-60.8041 305.263 0)
(-55.6908 303.206 0)
(-49.4426 298.467 0)
(-40.9707 291.624 0)
(-29.7264 282.79 0)
(-20.9853 275.291 0)
(-13.2268 267.019 0)
(-6.54167 261.628 0)
(0.35377 256.211 0)
(10.0217 252.49 0)
(24.0165 249.15 0)
(48.0349 247.173 0)
(80.9333 248.913 0)
(118.937 252.176 0)
(170.465 260.339 0)
(220.115 269.006 0)
(384.039 278.872 0)
(749.789 290.892 0)
(690.173 309.845 0)
(6572.4 578.787 0)
(-5439.91 1350.96 0)
(-703.235 459.532 0)
(181.604 511.351 0)
(129.144 376.002 0)
(-17.0096 286.992 0)
(-109.436 261.482 0)
(-113.976 226.112 0)
(-133.966 224.208 0)
(-134.38 238.675 0)
(-125.379 264.116 0)
(-116.682 291.418 0)
(-104.266 313.827 0)
(-95.192 329.031 0)
(-85.7015 339.97 0)
(-79.2017 347.849 0)
(-74.4862 356.499 0)
(-72.5 366.426 0)
(-71.0829 376.542 0)
(-68.9894 384.834 0)
(-64.7631 389.992 0)
(-59.4714 391.941 0)
(-55.4485 390.275 0)
(-51.5363 384.577 0)
(-47.373 379.463 0)
(-38.9389 376.073 0)
(-30.9822 376.656 0)
(-21.3806 379.372 0)
(-12.1681 383.171 0)
(-3.86585 386.338 0)
(7.95629 389.144 0)
(23.8696 393.148 0)
(50.776 398.011 0)
(86.1421 408.109 0)
(127.503 421.475 0)
(180.836 439.6 0)
(230.49 453.428 0)
(395.255 463.64 0)
(774.259 464.488 0)
(889.502 467.502 0)
(5725.78 1318.68 0)
(-4150.58 34886.1 0)
(-1313.73 2943.11 0)
(150.887 1575.9 0)
(-4.18964 1242.62 0)
(-79.748 1111 0)
(-146.642 1028.9 0)
(-132.006 972.571 0)
(-123.223 949.86 0)
(-111.627 945.743 0)
(-98.8272 932.419 0)
(-94.2788 921.036 0)
(-91.2636 895.638 0)
(-90.9306 858.451 0)
(-87.5568 811.196 0)
(-81.8199 752.911 0)
(-72.1377 688.702 0)
(-63.6919 622.752 0)
(-59.3361 565.537 0)
(-59.5754 523.612 0)
(-60.1994 500.586 0)
(-60.531 495.563 0)
(-62.7864 510.27 0)
(-59.8618 535.978 0)
(-49.1653 581.126 0)
(-32.4305 627.215 0)
(-17.8069 670.038 0)
(-6.94928 705.407 0)
(0.170951 732.303 0)
(6.1102 756.397 0)
(16.5844 773.794 0)
(32.5607 786.193 0)
(62.4522 795.416 0)
(103.544 801.322 0)
(149.282 810.525 0)
(201.256 824.259 0)
(243.282 838.5 0)
(394.697 867.201 0)
(753.511 826.468 0)
(1513.31 2551.36 0)
(4311.41 31210 0)
(23907 587033 0)
(-32802.2 34172.8 0)
(-1457.05 4005.16 0)
(-318.848 3080.71 0)
(-222.958 2789.54 0)
(-242.83 2682.8 0)
(-190.139 2648.35 0)
(-159.818 2690.48 0)
(-151.187 2743.75 0)
(-149.188 2750.38 0)
(-152.125 2744.03 0)
(-164.575 2698.25 0)
(-176.564 2618.1 0)
(-187.404 2516.79 0)
(-197.241 2392.14 0)
(-199.913 2255.13 0)
(-191.187 2106.17 0)
(-166.617 1963.33 0)
(-131.579 1834.72 0)
(-91.7929 1724.81 0)
(-50.1389 1640.27 0)
(-16.503 1588.81 0)
(16.7431 1536.05 0)
(40.5464 1520.03 0)
(46.7397 1477.92 0)
(44.3664 1434.69 0)
(38.62 1358.06 0)
(36.9678 1282.36 0)
(36.1169 1183.02 0)
(36.669 1079.9 0)
(44.7055 944.934 0)
(65.3549 817.387 0)
(100.701 647.053 0)
(149.605 551.681 0)
(207.794 523.587 0)
(271.871 594.833 0)
(383.66 782.114 0)
(2397.17 1242.35 0)
(30168.2 29450.1 0)
(-20623.9 517824 0)
(586625 -610020 0)
(-563140 -23946.4 0)
(-29810.5 1270.92 0)
(-1175.61 2627.85 0)
(-463.195 3290.59 0)
(-282.695 3901.36 0)
(-124.599 4368.89 0)
(-31.2937 4670.23 0)
(-53.9086 4912.42 0)
(-98.5513 5168.97 0)
(-144.509 5418.44 0)
(-212.615 5697.95 0)
(-265.794 6010.36 0)
(-305.306 6337.34 0)
(-333.969 6684.88 0)
(-347.71 7029.59 0)
(-344.878 7367.41 0)
(-320.909 7671.05 0)
(-289.421 7927.83 0)
(-247.58 8134.95 0)
(-191.59 8311.82 0)
(-163.214 8435.42 0)
(-126.137 8520.13 0)
(-105.188 8511.42 0)
(-114.671 8496.5 0)
(-133.308 8447.08 0)
(-153.739 8412.61 0)
(-168.502 8366.72 0)
(-188.989 8327.49 0)
(-212.843 8273.56 0)
(-220.402 8232.43 0)
(-224.597 8134.46 0)
(-152.5 8031.63 0)
(30.3056 7737.97 0)
(242.839 7283.68 0)
(492.408 6664.67 0)
(1018.67 5868.24 0)
(28379 4727.97 0)
(499310 -19599.5 0)
(-515821 -537160 0)
(586625 610020 0)
(-563140 23946.4 0)
(-29810.5 -1270.92 0)
(-1175.61 -2627.85 0)
(-463.195 -3290.59 0)
(-282.695 -3901.36 0)
(-124.599 -4368.89 0)
(-31.2937 -4670.23 0)
(-53.9086 -4912.42 0)
(-98.5513 -5168.97 0)
(-144.509 -5418.44 0)
(-212.615 -5697.95 0)
(-265.794 -6010.36 0)
(-305.306 -6337.34 0)
(-333.969 -6684.88 0)
(-347.71 -7029.59 0)
(-344.878 -7367.41 0)
(-320.909 -7671.05 0)
(-289.421 -7927.83 0)
(-247.58 -8134.95 0)
(-191.59 -8311.82 0)
(-163.214 -8435.42 0)
(-126.137 -8520.13 0)
(-105.188 -8511.42 0)
(-114.671 -8496.5 0)
(-133.308 -8447.08 0)
(-153.739 -8412.61 0)
(-168.502 -8366.72 0)
(-188.989 -8327.49 0)
(-212.843 -8273.56 0)
(-220.402 -8232.43 0)
(-224.597 -8134.46 0)
(-152.5 -8031.63 0)
(30.3056 -7737.97 0)
(242.839 -7283.68 0)
(492.408 -6664.67 0)
(1018.67 -5868.24 0)
(28379 -4727.97 0)
(499310 19599.5 0)
(-515821 537160 0)
(23907 -587033 0)
(-32802.2 -34172.8 0)
(-1457.05 -4005.16 0)
(-318.848 -3080.71 0)
(-222.958 -2789.54 0)
(-242.83 -2682.8 0)
(-190.139 -2648.35 0)
(-159.818 -2690.48 0)
(-151.187 -2743.75 0)
(-149.188 -2750.38 0)
(-152.125 -2744.03 0)
(-164.575 -2698.25 0)
(-176.564 -2618.1 0)
(-187.404 -2516.79 0)
(-197.241 -2392.14 0)
(-199.913 -2255.13 0)
(-191.187 -2106.17 0)
(-166.617 -1963.33 0)
(-131.579 -1834.72 0)
(-91.7929 -1724.81 0)
(-50.1389 -1640.27 0)
(-16.503 -1588.81 0)
(16.7431 -1536.05 0)
(40.5464 -1520.03 0)
(46.7397 -1477.92 0)
(44.3664 -1434.69 0)
(38.62 -1358.06 0)
(36.9678 -1282.36 0)
(36.1169 -1183.02 0)
(36.669 -1079.9 0)
(44.7055 -944.934 0)
(65.3549 -817.387 0)
(100.701 -647.053 0)
(149.605 -551.681 0)
(207.794 -523.587 0)
(271.871 -594.833 0)
(383.66 -782.114 0)
(2397.17 -1242.35 0)
(30168.2 -29450.1 0)
(-20623.9 -517824 0)
(-4150.58 -34886.1 0)
(-1313.73 -2943.11 0)
(150.887 -1575.9 0)
(-4.18964 -1242.62 0)
(-79.748 -1111 0)
(-146.642 -1028.9 0)
(-132.006 -972.571 0)
(-123.223 -949.86 0)
(-111.627 -945.743 0)
(-98.8272 -932.419 0)
(-94.2788 -921.036 0)
(-91.2636 -895.638 0)
(-90.9306 -858.451 0)
(-87.5568 -811.196 0)
(-81.8199 -752.911 0)
(-72.1377 -688.702 0)
(-63.6919 -622.752 0)
(-59.3361 -565.537 0)
(-59.5754 -523.612 0)
(-60.1994 -500.586 0)
(-60.531 -495.563 0)
(-62.7864 -510.27 0)
(-59.8618 -535.978 0)
(-49.1653 -581.126 0)
(-32.4305 -627.215 0)
(-17.8069 -670.038 0)
(-6.94928 -705.407 0)
(0.170951 -732.303 0)
(6.1102 -756.397 0)
(16.5844 -773.794 0)
(32.5607 -786.193 0)
(62.4522 -795.416 0)
(103.544 -801.322 0)
(149.282 -810.525 0)
(201.256 -824.259 0)
(243.282 -838.5 0)
(394.697 -867.201 0)
(753.511 -826.468 0)
(1513.31 -2551.36 0)
(4311.41 -31210 0)
(-5439.91 -1350.96 0)
(-703.235 -459.532 0)
(181.604 -511.351 0)
(129.144 -376.002 0)
(-17.0096 -286.992 0)
(-109.436 -261.482 0)
(-113.976 -226.112 0)
(-133.966 -224.208 0)
(-134.38 -238.675 0)
(-125.379 -264.116 0)
(-116.682 -291.418 0)
(-104.266 -313.827 0)
(-95.192 -329.031 0)
(-85.7015 -339.97 0)
(-79.2017 -347.849 0)
(-74.4862 -356.499 0)
(-72.5 -366.426 0)
(-71.0829 -376.542 0)
(-68.9894 -384.834 0)
(-64.7631 -389.992 0)
(-59.4714 -391.941 0)
(-55.4485 -390.275 0)
(-51.5363 -384.577 0)
(-47.373 -379.463 0)
(-38.9389 -376.073 0)
(-30.9822 -376.656 0)
(-21.3806 -379.372 0)
(-12.1681 -383.171 0)
(-3.86585 -386.338 0)
(7.95629 -389.144 0)
(23.8696 -393.148 0)
(50.776 -398.011 0)
(86.1421 -408.109 0)
(127.503 -421.475 0)
(180.836 -439.6 0)
(230.49 -453.428 0)
(395.255 -463.64 0)
(774.259 -464.488 0)
(889.502 -467.502 0)
(5725.78 -1318.68 0)
(-6224.57 -620.647 0)
(-504.652 -305.266 0)
(231.38 -280.183 0)
(212.011 -218.115 0)
(30.6072 -141.323 0)
(-87.9765 -124.848 0)
(-96.0863 -93.6892 0)
(-135.328 -84.6124 0)
(-150.085 -92.0459 0)
(-149.652 -117.4 0)
(-142.182 -146.411 0)
(-127.509 -177.635 0)
(-116.123 -203.35 0)
(-105.69 -225.865 0)
(-97.7476 -245.263 0)
(-90.039 -262.962 0)
(-83.0062 -278.043 0)
(-77.0749 -289.759 0)
(-72.5356 -298.362 0)
(-67.0478 -303.663 0)
(-60.8041 -305.263 0)
(-55.6908 -303.206 0)
(-49.4426 -298.467 0)
(-40.9707 -291.624 0)
(-29.7264 -282.79 0)
(-20.9853 -275.291 0)
(-13.2268 -267.019 0)
(-6.54167 -261.628 0)
(0.35377 -256.211 0)
(10.0217 -252.49 0)
(24.0165 -249.15 0)
(48.0349 -247.173 0)
(80.9333 -248.913 0)
(118.937 -252.176 0)
(170.465 -260.339 0)
(220.115 -269.006 0)
(384.039 -278.872 0)
(749.789 -290.892 0)
(690.173 -309.845 0)
(6572.4 -578.787 0)
(-6770.13 -410.066 0)
(-375.151 -188.497 0)
(265.585 -152.548 0)
(262.954 -126.592 0)
(72.8662 -71.9266 0)
(-63.5337 -51.2085 0)
(-75.2037 -19.0919 0)
(-132.382 0.365879 0)
(-165.976 1.30632 0)
(-177.768 -25.4843 0)
(-174.726 -63.0046 0)
(-159.134 -100.138 0)
(-141.668 -131.15 0)
(-126.09 -155.588 0)
(-114.95 -173.513 0)
(-106.074 -187.583 0)
(-98.3224 -199.217 0)
(-90.6634 -208.548 0)
(-82.388 -215.025 0)
(-71.4134 -218.628 0)
(-59.0311 -220.467 0)
(-48.899 -220.546 0)
(-40.3754 -218.563 0)
(-32.2661 -215.307 0)
(-23.1999 -211.968 0)
(-15.7852 -209.795 0)
(-8.21425 -206.735 0)
(-1.75277 -204.042 0)
(4.93999 -200.831 0)
(14.7608 -197.619 0)
(28.9931 -193.312 0)
(51.0037 -189.289 0)
(81.3214 -188.305 0)
(116.493 -189.048 0)
(164.618 -193.539 0)
(212.631 -199.423 0)
(374.164 -207.53 0)
(744.413 -222.888 0)
(612.076 -224.584 0)
(7178.63 -307.908 0)
(-7117.97 -231.837 0)
(-256.498 -71.364 0)
(291.034 -33.0138 0)
(289.701 -37.5523 0)
(103.25 -8.06536 0)
(-37.0631 14.1724 0)
(-46.3874 42.8203 0)
(-115.671 74.309 0)
(-174.995 90.0177 0)
(-211.625 69.2073 0)
(-214.121 24.7839 0)
(-193.176 -22.1282 0)
(-169.557 -61.6281 0)
(-146.513 -90.165 0)
(-128.58 -110.27 0)
(-114.808 -123.547 0)
(-103.208 -132.16 0)
(-92.3085 -137.556 0)
(-82.2487 -140.563 0)
(-72.2916 -142.312 0)
(-62.653 -144.386 0)
(-53.8561 -146.861 0)
(-44.3941 -148.828 0)
(-34.6159 -149.907 0)
(-24.4145 -150.26 0)
(-15.942 -150.498 0)