/*--------------------------------*- C++ -*----------------------------------*\
| =========                 |                                                 |
| \\      /  F ield         | OpenFOAM: The Open Source CFD Toolbox           |
|  \\    /   O peration     | Version:  v1912                                 |
|   \\  /    A nd           | Website:  www.openfoam.com                      |
|    \\/     M anipulation  |                                                 |
\*---------------------------------------------------------------------------*/
FoamFile
{
    version     2.0;
    format      ascii;
    class       volVectorField;
    location    "3.12";
    object      grad(T);
}
// * * * * * * * * * * * * * * * * * * * * * * * * * * * * * * * * * * * * * //

dimensions      [0 -1 0 1 0 0 0];


internalField   nonuniform List<vector> 
1900
(
(0.839599 -1.74951e-06 0)
(-0.589365 -1.52298e-06 0)
(0.0620794 1.26734e-05 0)
(0.0500307 3.58007e-05 0)
(0.0257724 8.78927e-05 0)
(0.0176385 -1.74502e-05 0)
(0.020596 -0.000654982 0)
(0.0296406 -0.00294434 0)
(0.0342775 -0.00839247 0)
(-0.000553261 -0.0101539 0)
(0.839596 -3.50004e-06 0)
(-0.589351 1.18988e-06 0)
(0.0621168 1.70222e-05 0)
(0.0501059 1.14506e-06 0)
(0.0257192 -1.42166e-05 0)
(0.0168957 -0.000202135 0)
(0.0176691 -0.000832497 0)
(0.0219031 -0.00284674 0)
(0.0270679 -0.00741541 0)
(0.0239445 -0.0114175 0)
(0.839597 1.79978e-13 0)
(-0.589345 1.66967e-13 0)
(0.0620794 3.77302e-13 0)
(0.0499995 -2.05998e-13 0)
(0.0255692 -6.67869e-13 0)
(0.0168203 -2.55872e-13 0)
(0.0179514 1.04083e-13 0)
(0.0230577 1.95156e-13 0)
(0.0257067 2.4503e-13 0)
(0.020036 -1.12757e-13 0)
(0.839596 3.50004e-06 0)
(-0.589351 -1.18988e-06 0)
(0.0621168 -1.70222e-05 0)
(0.0501059 -1.14506e-06 0)
(0.0257192 1.42166e-05 0)
(0.0168957 0.000202135 0)
(0.0176691 0.000832497 0)
(0.0219031 0.00284674 0)
(0.0270679 0.00741541 0)
(0.0239445 0.0114175 0)
(0.839599 1.74951e-06 0)
(-0.589365 1.52298e-06 0)
(0.0620794 -1.26734e-05 0)
(0.0500307 -3.58007e-05 0)
(0.0257724 -8.78927e-05 0)
(0.0176385 1.74502e-05 0)
(0.020596 0.000654982 0)
(0.0296406 0.00294434 0)
(0.0342775 0.00839247 0)
(-0.000553261 0.0101539 0)
(-0.011644 0.011549 1.02812e-15)
(-0.0193021 0.0123631 -1.24867e-15)
(-0.182951 -0.000607247 -1.57487e-15)
(-0.674961 0.0472121 0)
(-0.588315 0.449683 -6.20864e-15)
(0.0145151 0.00874103 1.0302e-15)
(-0.0357889 0.00605493 1.24867e-15)
(-0.166273 -0.0173262 1.57487e-15)
(-0.471533 -0.0222363 0)
(-0.518186 0.319035 0)
(0.0142764 -1.35525e-13 0)
(-0.0420661 -1.21259e-13 0)
(-0.205002 -3.01167e-15 0)
(-0.490543 9.03502e-14 0)
(-0.304909 1.22618e-13 0)
(0.0145151 -0.00874103 1.0302e-15)
(-0.0357889 -0.00605493 1.24867e-15)
(-0.166273 0.0173262 1.57487e-15)
(-0.471533 0.0222363 0)
(-0.518186 -0.319035 0)
(-0.011644 -0.011549 -3.08852e-15)
(-0.0193021 -0.0123631 -1.24867e-15)
(-0.182951 0.000607247 -1.57487e-15)
(-0.674961 -0.0472121 -4.2136e-15)
(-0.588315 -0.449683 6.20864e-15)
(0.00683323 -0.139849 2.7531e-15)
(-0.349417 -0.0235109 -2.23402e-15)
(-0.235047 0.0111561 0)
(-0.29802 0.0542191 1.63535e-15)
(-0.564698 0.189221 -7.0501e-16)
(-0.150208 -0.177847 -1.37444e-15)
(-0.312431 -0.0260841 1.11666e-15)
(-0.207862 -0.00538991 0)
(-0.220328 0.0473823 -1.02347e-15)
(-0.203428 0.220396 1.79337e-16)
(-0.0993018 3.50449e-13 0)
(-0.307828 6.11601e-13 0)
(-0.210472 1.24884e-12 0)
(-0.204915 1.84952e-12 4.0996e-16)
(-0.220687 2.37447e-12 -3.58673e-16)
(-0.150208 0.177847 -1.37444e-15)
(-0.312431 0.0260841 1.11666e-15)
(-0.207862 0.00538991 0)
(-0.220328 -0.0473823 -1.02347e-15)
(-0.203428 -0.220396 1.79337e-16)
(0.00683323 0.139849 1.37444e-15)
(-0.349417 0.0235109 7.08072e-19)
(-0.235047 -0.0111561 0)
(-0.29802 -0.0542191 1.6329e-18)
(-0.564698 -0.189221 7.0501e-16)
(-0.689851 2.11161 0)
(-0.0868344 0.711038 0)
(0.281365 0.230177 0)
(0.013398 0.117723 0)
(-0.097443 0.0592487 0)
(-0.0566527 0.0189341 0)
(-0.0103261 0.00997016 0)
(0.009498 0.00810082 0)
(0.0194765 0.00685267 0)
(0.0313682 0.00547029 0)
(0.0412543 0.00502827 0)
(0.0482123 0.0047251 0)
(0.0513622 0.00453703 0)
(0.0496552 0.00429694 0)
(0.0430696 0.00402609 0)
(0.0331452 0.00377445 0)
(0.0226433 0.00357269 0)
(0.0130878 0.00342189 0)
(0.00601553 0.00333831 0)
(0.000853107 0.00328504 0)
(-0.00460517 0.0032802 0)
(-0.0100954 0.00331795 0)
(-0.0179045 0.00337759 0)
(-0.0287536 0.00348641 0)
(-0.0410722 0.00361532 0)
(-0.0535121 0.00375887 0)
(-0.0633148 0.00389947 0)
(-0.0688235 0.00402111 0)
(-0.0698787 0.00411009 0)
(-0.0676066 0.00417357 0)
(-0.0636422 0.00423947 0)
(-0.059605 0.00430421 0)
(-0.0562641 0.00438337 0)
(-0.0534064 0.00428378 0)
(-0.0471244 0.00405027 0)
(-0.034901 0.00411993 0)
(-0.026741 0.00376126 0)
(-0.231039 0.00340929 0)
(-0.564711 -0.00648033 0)
(-0.346614 0.0164526 0)
(-0.564183 0.981392 0)
(-0.333708 0.729808 0)
(0.167842 0.271597 0)
(-0.0266205 0.0713791 0)
(-0.108055 0.0334108 0)
(-0.0621563 0.00807909 0)
(-0.01122 0.00427676 0)
(0.00924335 0.00342337 0)
(0.0193082 0.00291845 0)
(0.0312297 0.00236248 0)
(0.041199 0.00214774 0)
(0.0481747 0.00198351 0)
(0.0513299 0.00187541 0)
(0.0496136 0.00175157 0)
(0.043025 0.00161522 0)
(0.0331061 0.00149165 0)
(0.0226132 0.00139517 0)
(0.0130684 0.00132636 0)
(0.00600456 0.00128993 0)
(0.000848564 0.00126818 0)
(-0.00460245 0.00126663 0)
(-0.0100876 0.00128251 0)
(-0.0178909 0.00130927 0)
(-0.0287338 0.00136052 0)
(-0.0410494 0.00142653 0)
(-0.0534883 0.00150626 0)
(-0.0632937 0.00159341 0)
(-0.0688081 0.00167951 0)
(-0.06987 0.00175816 0)
(-0.0676011 0.00183272 0)
(-0.0636368 0.00191858 0)
(-0.0595968 0.00202048 0)
(-0.0562692 0.00214918 0)
(-0.0534388 0.00222599 0)
(-0.0471429 0.00225888 0)
(-0.0349558 0.00242899 0)
(-0.0267484 0.00233485 0)
(-0.231685 0.00277275 0)
(-0.562778 0.00144477 0)
(-0.343985 0.0336026 0)
(-0.489664 1.59279e-12 0)
(-0.29332 1.61645e-13 0)
(0.0898218 -1.77415e-13 0)
(-0.0558924 -5.12532e-14 0)
(-0.115858 5.2436e-13 0)
(-0.065128 2.75979e-13 0)
(-0.0116805 -4.33681e-13 0)
(0.00910286 -5.7167e-13 0)
(0.0191679 -1.81357e-12 0)
(0.031144 -1.02901e-12 0)
(0.0411441 2.89778e-12 0)
(0.048133 9.94706e-12 0)
(0.0512948 1.94644e-11 0)
(0.0495795 2.69158e-11 0)
(0.042994 2.196e-11 0)
(0.0330812 -5.3461e-12 0)
(0.0225952 -4.02062e-11 0)
(0.0130572 -5.95759e-11 0)
(0.0059986 -6.13422e-11 0)
(0.00084633 -1.61172e-11 0)
(-0.004601 4.90138e-11 0)
(-0.0100829 7.53264e-11 0)
(-0.0178818 6.10228e-11 0)
(-0.0287194 5.22743e-11 0)
(-0.0410298 3.06455e-11 0)
(-0.0534635 -2.95573e-11 0)
(-0.0632644 -8.18316e-11 0)
(-0.0687756 -8.62197e-11 0)
(-0.0698341 -4.67705e-11 0)
(-0.0675599 1.13033e-11 0)
(-0.0635876 4.96131e-11 0)
(-0.0595379 5.54757e-11 0)
(-0.0562043 7.77472e-12 0)
(-0.0533745 -8.06804e-11 0)
(-0.0470654 -1.97841e-10 0)
(-0.0348789 -2.80678e-10 0)
(-0.026641 -3.17691e-10 0)
(-0.231298 -3.45754e-10 0)
(-0.555742 -4.749e-11 0)
(-0.337259 4.39607e-10 0)
(-0.564183 -0.981392 0)
(-0.333708 -0.729808 0)
(0.167842 -0.271597 0)
(-0.0266205 -0.0713791 0)
(-0.108055 -0.0334108 0)
(-0.0621563 -0.00807909 0)
(-0.01122 -0.00427676 0)
(0.00924335 -0.00342337 0)
(0.0193082 -0.00291845 0)
(0.0312297 -0.00236248 0)
(0.041199 -0.00214774 0)
(0.0481747 -0.00198351 0)
(0.0513299 -0.00187541 0)
(0.0496136 -0.00175157 0)
(0.043025 -0.00161522 0)
(0.0331061 -0.00149165 0)
(0.0226132 -0.00139517 0)
(0.0130684 -0.00132636 0)
(0.00600456 -0.00128993 0)
(0.000848564 -0.00126818 0)
(-0.00460245 -0.00126663 0)
(-0.0100876 -0.00128251 0)
(-0.0178909 -0.00130927 0)
(-0.0287338 -0.00136052 0)
(-0.0410494 -0.00142653 0)
(-0.0534883 -0.00150626 0)
(-0.0632937 -0.00159341 0)
(-0.0688081 -0.00167951 0)
(-0.06987 -0.00175816 0)
(-0.0676011 -0.00183272 0)
(-0.0636368 -0.00191858 0)
(-0.0595968 -0.00202048 0)
(-0.0562692 -0.00214918 0)
(-0.0534388 -0.00222599 0)
(-0.0471429 -0.00225888 0)
(-0.0349558 -0.00242899 0)
(-0.0267484 -0.00233485 0)
(-0.231685 -0.00277275 0)
(-0.562778 -0.00144477 0)
(-0.343985 -0.0336026 0)
(-0.689851 -2.11161 0)
(-0.0868344 -0.711038 0)
(0.281365 -0.230177 0)
(0.013398 -0.117723 0)
(-0.097443 -0.0592487 0)
(-0.0566527 -0.0189341 0)
(-0.0103261 -0.00997016 0)
(0.009498 -0.00810082 0)
(0.0194765 -0.00685267 0)
(0.0313682 -0.00547029 0)
(0.0412543 -0.00502827 0)
(0.0482123 -0.0047251 0)
(0.0513622 -0.00453703 0)
(0.0496552 -0.00429694 0)
(0.0430696 -0.00402609 0)
(0.0331452 -0.00377445 0)
(0.0226433 -0.00357269 0)
(0.0130878 -0.00342189 0)
(0.00601553 -0.00333831 0)
(0.000853107 -0.00328504 0)
(-0.00460517 -0.0032802 0)
(-0.0100954 -0.00331795 0)
(-0.0179045 -0.00337759 0)
(-0.0287536 -0.00348641 0)
(-0.0410722 -0.00361532 0)
(-0.0535121 -0.00375887 0)
(-0.0633148 -0.00389947 0)
(-0.0688235 -0.00402111 0)
(-0.0698787 -0.00411009 0)
(-0.0676066 -0.00417357 0)
(-0.0636422 -0.00423947 0)
(-0.059605 -0.00430421 0)
(-0.0562641 -0.00438337 0)
(-0.0534064 -0.00428378 0)
(-0.0471244 -0.00405027 0)
(-0.034901 -0.00411993 0)
(-0.026741 -0.00376126 0)
(-0.231039 -0.00340929 0)
(-0.564711 0.00648033 0)
(-0.346614 -0.0164526 0)
(0.216454 -1.41206 0)
(0.561017 -0.275846 0)
(0.408753 -0.115339 0)
(0.0343269 -0.155029 0)
(-0.0583577 -0.083226 0)
(-0.0376089 -0.0373807 0)
(-0.00545808 -0.0220018 0)
(0.0109044 -0.0185211 0)
(0.0207637 -0.0142262 0)
(0.032214 -0.0118828 0)
(0.0416024 -0.0108606 0)
(0.0484395 -0.0102481 0)
(0.051561 -0.00976821 0)
(0.0498859 -0.00920708 0)
(0.043301 -0.0086186 0)
(0.0333454 -0.00808671 0)
(0.0227997 -0.00766115 0)
(0.013193 -0.00734381 0)
(0.0060777 -0.00716173 0)
(0.000879761 -0.00704369 0)
(-0.00461996 -0.00703336 0)
(-0.0101398 -0.00712024 0)
(-0.0179807 -0.00725715 0)
(-0.0288601 -0.00749641 0)
(-0.041194 -0.00779162 0)
(-0.0536392 -0.00813165 0)
(-0.0634336 -0.00848661 0)
(-0.0689225 -0.00881821 0)
(-0.0699556 -0.00910752 0)
(-0.067676 -0.00936583 0)
(-0.0637124 -0.00964279 0)
(-0.0596776 -0.00996203 0)
(-0.0562623 -0.0102994 0)
(-0.0532672 -0.0104866 0)
(-0.0470615 -0.0103332 0)
(-0.0348378 -0.0108038 0)
(-0.0263112 -0.0110175 0)
(-0.226007 -0.0104439 0)
(-0.568726 0.000323321 0)
(-0.35533 -0.0259151 0)
(0.516757 -0.354862 0)
(0.815338 0.00750395 0)
(0.329479 -0.100837 0)
(0.0331207 -0.13753 0)
(-0.00503139 -0.0902286 0)
(-0.0078666 -0.0541669 0)
(0.00523737 -0.0368257 0)
(0.0162367 -0.0303928 0)
(0.0251831 -0.0247604 0)
(0.0341578 -0.0213539 0)
(0.0426429 -0.0197515 0)
(0.0491431 -0.0187121 0)
(0.0522588 -0.0178091 0)
(0.0506393 -0.016808 0)
(0.0440252 -0.0158062 0)
(0.0339605 -0.0149077 0)
(0.0232753 -0.0141934 0)
(0.0135127 -0.0136632 0)
(0.00627139 -0.0133587 0)
(0.00096252 -0.0131591 0)
(-0.00467101 -0.0131488 0)
(-0.0102872 -0.0133083 0)
(-0.0182262 -0.0135506 0)
(-0.0292114 -0.0139641 0)
(-0.0416191 -0.0144791 0)
(-0.0541136 -0.0150842 0)
(-0.0639128 -0.0157105 0)
(-0.0693688 -0.0163256 0)
(-0.0703651 -0.0168497 0)
(-0.0680852 -0.0173541 0)
(-0.0641791 -0.0178926 0)
(-0.0601988 -0.0185222 0)
(-0.0567705 -0.0191541 0)
(-0.0535136 -0.0197882 0)
(-0.0474638 -0.0198073 0)
(-0.0355944 -0.0209485 0)
(-0.0266248 -0.0219892 0)
(-0.222808 -0.022055 0)
(-0.577467 -0.0138864 0)
(-0.367225 -0.0419024 0)
(0.565643 -0.0261841 0)
(0.805805 -0.0220867 0)
(0.268992 -0.110721 0)
(0.0445496 -0.108468 0)
(0.0219742 -0.0892555 0)
(0.0138521 -0.0660265 0)
(0.0174514 -0.0518453 0)
(0.0225309 -0.0433528 0)
(0.029474 -0.0381798 0)
(0.0370407 -0.0343063 0)
(0.0441482 -0.0322191 0)
(0.0503113 -0.030706 0)
(0.0533958 -0.0292714 0)
(0.051816 -0.0277952 0)
(0.0451323 -0.0263012 0)
(0.0348995 -0.0249999 0)
(0.0239989 -0.0239537 0)
(0.0139974 -0.0231838 0)
(0.00656347 -0.0227396 0)
(0.00108196 -0.0224495 0)
(-0.00476373 -0.0224447 0)
(-0.0105269 -0.0226912 0)
(-0.0186126 -0.0230599 0)
(-0.0297549 -0.0236708 0)
(-0.0422734 -0.0244421 0)
(-0.0548258 -0.0253181 0)
(-0.0646299 -0.0262804 0)
(-0.0700202 -0.0271235 0)
(-0.0709467 -0.0279583 0)
(-0.068681 -0.0286706 0)
(-0.064838 -0.029466 0)
(-0.0608931 -0.0304496 0)
(-0.0574822 -0.0312638 0)
(-0.0538967 -0.0323094 0)
(-0.0481797 -0.0325664 0)
(-0.0369404 -0.0345838 0)
(-0.0273775 -0.0364135 0)
(-0.218199 -0.0368101 0)
(-0.587851 -0.024563 0)
(-0.382328 -0.0531626 0)
(0.520705 -0.020223 0)
(0.733875 -0.0623899 0)
(0.246239 -0.106125 0)
(0.0538058 -0.100079 0)
(0.0358665 -0.0909156 0)
(0.0281833 -0.0757948 0)
(0.0270866 -0.0659941 0)
(0.0294053 -0.058285 0)
(0.0339007 -0.0530767 0)
(0.0399018 -0.0497904 0)
(0.0461122 -0.0474258 0)
(0.0519835 -0.0455377 0)
(0.0550637 -0.0437141 0)
(0.0535015 -0.0417062 0)
(0.0467189 -0.0398163 0)
(0.0362227 -0.0380883 0)
(0.0250253 -0.0367357 0)
(0.0146827 -0.0357307 0)
(0.00697899 -0.0351475 0)
(0.00124668 -0.0347694 0)
(-0.00490388 -0.0347752 0)
(-0.01088 -0.0351121 0)
(-0.0191702 -0.0356154 0)
(-0.0305434 -0.0364304 0)
(-0.0432065 -0.0374375 0)
(-0.0558851 -0.0386565 0)
(-0.0656525 -0.039828 0)
(-0.0709856 -0.0410903 0)
(-0.071856 -0.0420191 0)
(-0.069538 -0.0430959 0)
(-0.0658934 -0.0441251 0)
(-0.0619312 -0.0453757 0)
(-0.0585627 -0.0463153 0)
(-0.0547688 -0.0477236 0)
(-0.0496555 -0.0483338 0)
(-0.0393016 -0.0509273 0)
(-0.0287702 -0.0535551 0)
(-0.211389 -0.054176 0)
(-0.593224 -0.0376787 0)
(-0.394785 -0.0576916 0)
(0.525009 -0.0577881 0)
(0.723027 -0.0746334 0)
(0.232674 -0.101567 0)
(0.0592055 -0.100691 0)
(0.0453757 -0.0937688 0)
(0.0378674 -0.0846516 0)
(0.0343244 -0.0773856 0)
(0.0349786 -0.071644 0)
(0.0376597 -0.0675619 0)
(0.0424862 -0.0649388 0)
(0.0482463 -0.062705 0)
(0.053888 -0.0608118 0)
(0.057088 -0.0586651 0)
(0.055572 -0.0565993 0)
(0.0486187 -0.0543639 0)
(0.0378681 -0.0524644 0)
(0.0262708 -0.0508894 0)
(0.0155279 -0.0497426 0)
(0.00748977 -0.0490663 0)
(0.0014407 -0.048629 0)
(-0.00509397 -0.0486489 0)
(-0.0113365 -0.0490545 0)
(-0.0198829 -0.0496586 0)
(-0.0315108 -0.0505955 0)
(-0.0444186 -0.051802 0)
(-0.0571294 -0.0531009 0)
(-0.0669752 -0.0545855 0)
(-0.0721317 -0.0556811 0)
(-0.0728794 -0.0568611 0)
(-0.0707104 -0.0577655 0)
(-0.067035 -0.0587284 0)
(-0.0630037 -0.0599652 0)
(-0.0597447 -0.0605614 0)
(-0.0558418 -0.0616045 0)
(-0.0512668 -0.0622824 0)
(-0.0419718 -0.0644223 0)
(-0.030508 -0.0677715 0)
(-0.2029 -0.0689253 0)
(-0.591239 -0.0503453 0)
(-0.401613 -0.0597668 0)
(0.504472 -0.0345513 0)
(0.691689 -0.0777086 0)
(0.221129 -0.0971679 0)
(0.06132 -0.0996242 0)
(0.0513226 -0.094545 0)
(0.0439708 -0.0895517 0)
(0.0396213 -0.084516 0)
(0.0388717 -0.0808632 0)
(0.040362 -0.0783187 0)
(0.044582 -0.0764985 0)
(0.0500892 -0.0746513 0)
(0.0558766 -0.0727978 0)
(0.0591229 -0.0709724 0)
(0.0576463 -0.0688494 0)
(0.0507034 -0.0668482 0)
(0.0395708 -0.0648834 0)
(0.0276481 -0.063336 0)
(0.0164396 -0.062158 0)
(0.00805209 -0.0614652 0)
(0.00164887 -0.0610074 0)
(-0.00531387 -0.0610312 0)
(-0.011853 -0.0614542 0)
(-0.0206552 -0.0620706 0)
(-0.0326089 -0.0630233 0)
(-0.0456208 -0.0641639 0)
(-0.0585674 -0.0655236 0)
(-0.0681388 -0.0666466 0)
(-0.0731784 -0.0677305 0)
(-0.0738646 -0.0682733 0)
(-0.0713374 -0.0689094 0)
(-0.0680131 -0.0693637 0)
(-0.0636975 -0.0699106 0)
(-0.0601425 -0.0698791 0)
(-0.0564273 -0.0700639 0)
(-0.0523708 -0.0703761 0)
(-0.0445911 -0.0715679 0)
(-0.0331094 -0.0753281 0)
(-0.194596 -0.0770187 0)
(-0.584399 -0.0582322 0)
(-0.403863 -0.059184 0)
(0.483421 -0.0413976 0)
(0.662687 -0.0783503 0)
(0.211555 -0.0932491 0)
(0.061733 -0.0967394 0)
(0.055082 -0.0933102 0)
(0.0475317 -0.0903038 0)
(0.042697 -0.0871144 0)
(0.0409505 -0.0853204 0)
(0.0418656 -0.0839421 0)
(0.0460202 -0.082601 0)
(0.0518125 -0.0810558 0)
(0.0574332 -0.0794521 0)
(0.0608927 -0.0777894 0)
(0.0595462 -0.0761498 0)
(0.0524405 -0.0743287 0)
(0.0412526 -0.0726768 0)
(0.028897 -0.07126 0)
(0.0173307 -0.0701954 0)
(0.00859858 -0.0695579 0)
(0.00185888 -0.0691155 0)
(-0.00552455 -0.0691229 0)
(-0.0123381 -0.0694981 0)
(-0.0213949 -0.0700261 0)
(-0.033528 -0.0708221 0)
(-0.0468279 -0.0718059 0)
(-0.0595218 -0.0727955 0)
(-0.0691019 -0.0736926 0)
(-0.0736992 -0.0741135 0)
(-0.0740154 -0.0742216 0)
(-0.0717611 -0.0742926 0)
(-0.0679997 -0.0740586 0)
(-0.0635004 -0.0741262 0)
(-0.0598925 -0.0735134 0)
(-0.0563208 -0.0730797 0)
(-0.0527162 -0.0731333 0)
(-0.0467437 -0.0740703 0)
(-0.0357606 -0.0774457 0)
(-0.186426 -0.0788679 0)
(-0.574053 -0.061777 0)
(-0.40253 -0.0580175 0)
(0.468863 -0.0439184 0)
(0.641723 -0.0739125 0)
(0.203408 -0.0874057 0)
(0.0612612 -0.0912461 0)
(0.0575241 -0.0891933 0)
(0.0499413 -0.0874321 0)
(0.0444235 -0.0855844 0)
(0.0419286 -0.0852891 0)
(0.0429825 -0.0846407 0)
(0.0473634 -0.0837046 0)
(0.0531237 -0.0821673 0)
(0.0590242 -0.0808502 0)
(0.0623051 -0.0793661 0)
(0.0609811 -0.0780452 0)
(0.0540501 -0.0765274 0)
(0.042528 -0.0751091 0)
(0.0300393 -0.0738977 0)
(0.0180797 -0.0729726 0)
(0.00909273 -0.0724171 0)
(0.00206805 -0.0719965 0)
(-0.0056825 -0.0719682 0)
(-0.0127234 -0.07226 0)
(-0.0219311 -0.0726461 0)
(-0.0343239 -0.0732489 0)
(-0.0475224 -0.0739905 0)
(-0.0603855 -0.0747175 0)
(-0.0694089 -0.075295 0)
(-0.0736882 -0.0752858 0)
(-0.0740373 -0.0751067 0)
(-0.0711804 -0.0745718 0)
(-0.0678527 -0.0741138 0)
(-0.0631721 -0.0737041 0)
(-0.059134 -0.0728516 0)
(-0.056061 -0.0721471 0)
(-0.0533253 -0.0720829 0)
(-0.0487467 -0.0730981 0)
(-0.0377325 -0.0756785 0)
(-0.179497 -0.076513 0)
(-0.564307 -0.0600483 0)
(-0.400241 -0.0558805 0)
(0.454518 -0.0395171 0)
(0.620781 -0.0693506 0)
(0.194852 -0.0819802 0)
(0.0600104 -0.0856258 0)
(0.0587573 -0.0850855 0)
(0.0510093 -0.0843464 0)
(0.0447621 -0.0833533 0)
(0.0418599 -0.0836105 0)
(0.0433925 -0.0831177 0)
(0.0484037 -0.0818879 0)
(0.0545632 -0.0806032 0)
(0.0601325 -0.0788924 0)
(0.0635956 -0.077795 0)
(0.0622816 -0.0762826 0)
(0.0552698 -0.0750549 0)
(0.0437867 -0.0736114 0)
(0.0309559 -0.0725198 0)
(0.0187575 -0.0716429 0)
(0.00953915 -0.0711271 0)
(0.00229138 -0.0706932 0)
(-0.00577839 -0.0706208 0)
(-0.0129914 -0.0708543 0)
(-0.0223479 -0.0711366 0)
(-0.0348235 -0.0716551 0)
(-0.0482431 -0.0722529 0)
(-0.0607789 -0.0730561 0)
(-0.0696495 -0.0733236 0)
(-0.0735178 -0.0736317 0)
(-0.0733273 -0.0729539 0)
(-0.0708043 -0.07281 0)
(-0.0671636 -0.0719302 0)
(-0.062284 -0.0716721 0)
(-0.0583921 -0.0708588 0)
(-0.05558 -0.070391 0)
(-0.0536326 -0.0704726 0)
(-0.0502086 -0.0716437 0)
(-0.0390513 -0.0738263 0)
(-0.171364 -0.0744219 0)
(-0.554171 -0.0591126 0)
(-0.398514 -0.0532425 0)
(0.440115 -0.0371232 0)
(0.600804 -0.0649517 0)
(0.187725 -0.0767262 0)
(0.0582688 -0.0792978 0)
(0.058757 -0.0805741 0)
(0.0516105 -0.0803076 0)
(0.0451326 -0.0797252 0)
(0.0421556 -0.0798259 0)
(0.0446425 -0.0790558 0)
(0.0497864 -0.0780456 0)
(0.0560103 -0.0765502 0)
(0.0617304 -0.0753214 0)
(0.0648199 -0.0739447 0)
(0.0636215 -0.0729794 0)
(0.0566242 -0.0715345 0)
(0.0449709 -0.0702715 0)
(0.0319362 -0.0690624 0)
(0.0194218 -0.0681545 0)
(0.0100079 -0.0675873 0)
(0.00255599 -0.0670819 0)
(-0.0058377 -0.0669668 0)
(-0.0132204 -0.0672051 0)
(-0.0227028 -0.0674899 0)
(-0.0353996 -0.0680169 0)
(-0.0488725 -0.068777 0)
(-0.0614173 -0.0694164 0)
(-0.0699635 -0.070081 0)
(-0.0733319 -0.0698578 0)
(-0.0732455 -0.0696842 0)
(-0.0701939 -0.0690982 0)
(-0.0667562 -0.0683154 0)
(-0.0621397 -0.0679928 0)
(-0.0578994 -0.0673876 0)
(-0.0556888 -0.0670206 0)
(-0.0545324 -0.0672631 0)
(-0.0519785 -0.0686237 0)
(-0.0404098 -0.0707311 0)
(-0.165319 -0.0714182 0)
(-0.543897 -0.0562896 0)
(-0.394584 -0.0504194 0)
(0.427701 -0.0349296 0)
(0.582619 -0.0601717 0)
(0.181027 -0.071771 0)
(0.0563024 -0.073495 0)
(0.0577842 -0.076451 0)
(0.0518274 -0.0762935 0)
(0.0452263 -0.0762753 0)
(0.042505 -0.0760923 0)
(0.045108 -0.0750869 0)
(0.0508182 -0.0742243 0)
(0.0571884 -0.0725184 0)
(0.0626433 -0.0714732 0)
(0.0658524 -0.0702986 0)
(0.0646042 -0.06932 0)
(0.0578793 -0.0680366 0)
(0.0461689 -0.0665636 0)
(0.0329959 -0.0652437 0)
(0.020179 -0.0641973 0)
(0.0105727 -0.0635313 0)
(0.00288931 -0.0629132 0)
(-0.00589713 -0.0627605 0)
(-0.0134954 -0.0630548 0)
(-0.0231302 -0.0633992 0)
(-0.0360638 -0.0640731 0)
(-0.0495917 -0.064967 0)
(-0.0620355 -0.0659538 0)
(-0.0700749 -0.0664724 0)
(-0.0731354 -0.0665486 0)
(-0.0725953 -0.0661252 0)
(-0.0694852 -0.0656591 0)
(-0.0660984 -0.065058 0)
(-0.0613899 -0.0644862 0)
(-0.0574554 -0.0640125 0)
(-0.0554601 -0.0637184 0)
(-0.0551774 -0.0640534 0)
(-0.0535506 -0.0655502 0)
(-0.0417442 -0.0675799 0)
(-0.157448 -0.0682308 0)
(-0.533935 -0.0533936 0)
(-0.392857 -0.0466057 0)
(0.415791 -0.0335538 0)
(0.565302 -0.0570851 0)
(0.174886 -0.0691941 0)
(0.053759 -0.0707484 0)
(0.0560603 -0.0731781 0)
(0.0517798 -0.0727695 0)
(0.0453265 -0.0729997 0)
(0.0433008 -0.0721725 0)
(0.0464425 -0.0707309 0)
(0.0522616 -0.069351 0)
(0.0586614 -0.0679287 0)
(0.0638694 -0.0666618 0)
(0.0668948 -0.0660539 0)
(0.0658013 -0.0652043 0)
(0.0592804 -0.0643744 0)
(0.0476622 -0.0630825 0)
(0.0342165 -0.0619128 0)
(0.0210719 -0.0608564 0)
(0.0112453 -0.0601352 0)
(0.0032988 -0.0594034 0)
(-0.00597417 -0.0592174 0)
(-0.0138359 -0.0595778 0)
(-0.023684 -0.0599443 0)
(-0.0369104 -0.0606426 0)
(-0.0506848 -0.0614438 0)
(-0.062868 -0.0623437 0)
(-0.0705367 -0.0625367 0)
(-0.0729973 -0.0626193 0)
(-0.0723883 -0.0617677 0)
(-0.0691655 -0.0616961 0)
(-0.065626 -0.0608297 0)
(-0.0611323 -0.0606162 0)
(-0.0571595 -0.0604011 0)
(-0.0557282 -0.0605186 0)
(-0.0562977 -0.0612433 0)
(-0.0553768 -0.0628986 0)
(-0.0429928 -0.0650132 0)
(-0.151648 -0.06576 0)
(-0.523059 -0.0515893 0)
(-0.388043 -0.0424752 0)
(0.405026 -0.0323933 0)
(0.548274 -0.0535397 0)
(0.167861 -0.0666119 0)
(0.0524633 -0.0687273 0)
(0.0558365 -0.0699182 0)
(0.0519993 -0.0690576 0)
(0.0458016 -0.0695635 0)
(0.0446913 -0.0682207 0)
(0.0478268 -0.0665534 0)
(0.0535185 -0.0652528 0)
(0.0597798 -0.0638098 0)
(0.06445 -0.0630476 0)
(0.0672569 -0.0625346 0)
(0.0662225 -0.06219 0)
(0.0599239 -0.0614498 0)
(0.048541 -0.0602713 0)
(0.035141 -0.0590251 0)
(0.0218919 -0.0579693 0)
(0.0119729 -0.0572613 0)
(0.00377382 -0.0564723 0)
(-0.00606513 -0.0562599 0)
(-0.014196 -0.0566407 0)
(-0.0241563 -0.0569651 0)
(-0.0375088 -0.0576623 0)
(-0.0512309 -0.0585711 0)
(-0.0630886 -0.0593827 0)
(-0.0703405 -0.0595872 0)
(-0.0723943 -0.0592235 0)
(-0.0717056 -0.0584667 0)
(-0.0685814 -0.0580086 0)
(-0.0650578 -0.0573242 0)
(-0.0609769 -0.0571433 0)
(-0.0573613 -0.0573101 0)
(-0.0562717 -0.0576927 0)
(-0.0574708 -0.0587011 0)
(-0.0571833 -0.0603722 0)
(-0.0445016 -0.0624688 0)
(-0.144512 -0.0631691 0)
(-0.511497 -0.048596 0)
(-0.384074 -0.0383221 0)
(0.395413 -0.029136 0)
(0.532328 -0.0522919 0)
(0.160251 -0.066233 0)
(0.0505729 -0.0689998 0)
(0.055742 -0.0697411 0)
(0.0521216 -0.068802 0)
(0.0461329 -0.0686303 0)
(0.0462015 -0.0668952 0)
(0.0493026 -0.06499 0)
(0.0549054 -0.0629926 0)
(0.0607864 -0.0612473 0)
(0.0650982 -0.0603447 0)
(0.0677212 -0.0592843 0)
(0.0668467 -0.0587502 0)
(0.0611293 -0.0575798 0)
(0.0499987 -0.0563357 0)
(0.0364349 -0.0551141 0)
(0.0227716 -0.0543316 0)
(0.0126879 -0.0538677 0)
(0.0042638 -0.0532298 0)
(-0.00613653 -0.0530014 0)
(-0.0145155 -0.0532196 0)
(-0.0246684 -0.0532867 0)
(-0.038458 -0.0537253 0)
(-0.0523427 -0.0545998 0)
(-0.0638472 -0.0555225 0)
(-0.0703834 -0.0561142 0)
(-0.0719175 -0.0561199 0)
(-0.0712176 -0.0559289 0)
(-0.0680646 -0.0558963 0)
(-0.0647921 -0.0556704 0)
(-0.0611187 -0.0560915 0)
(-0.057689 -0.0566069 0)
(-0.0570686 -0.0574574 0)
(-0.0588798 -0.0588718 0)
(-0.0590074 -0.0605361 0)
(-0.045688 -0.0623791 0)
(-0.13828 -0.0627559 0)
(-0.499115 -0.0482014 0)
(-0.378142 -0.033206 0)
(0.382712 -0.0280021 0)
(0.512526 -0.0508529 0)
(0.15176 -0.0668082 0)
(0.0490828 -0.0701801 0)
(0.0560271 -0.0707617 0)
(0.0530697 -0.0704123 0)
(0.0476391 -0.0695659 0)
(0.0481992 -0.0671335 0)
(0.0515875 -0.064377 0)
(0.0571251 -0.0616659 0)
(0.0623314 -0.0587452 0)
(0.0663416 -0.0571854 0)
(0.0687935 -0.0553336 0)
(0.0678651 -0.0542109 0)
(0.0622506 -0.0525494 0)
(0.050917 -0.0505746 0)
(0.0370722 -0.0486591 0)
(0.023093 -0.047327 0)
(0.0130346 -0.0465879 0)
(0.00460866 -0.0458468 0)
(-0.00605523 -0.0456144 0)
(-0.0144709 -0.0459369 0)
(-0.0246436 -0.046264 0)
(-0.0387741 -0.0472423 0)
(-0.0529627 -0.0487664 0)
(-0.0645479 -0.0504547 0)
(-0.0709163 -0.0515447 0)
(-0.0722158 -0.0523471 0)
(-0.07149 -0.0529013 0)
(-0.0683324 -0.0538835 0)
(-0.065246 -0.0547306 0)
(-0.0618793 -0.0560332 0)
(-0.0586775 -0.0573719 0)
(-0.0584543 -0.0590452 0)
(-0.0604376 -0.0607632 0)
(-0.0605631 -0.0621176 0)
(-0.0466407 -0.0634986 0)
(-0.13085 -0.0633431 0)
(-0.483022 -0.0475269 0)
(-0.369624 -0.0317899 0)
(0.373393 -0.0159659 0)
(0.494933 -0.0480838 0)
(0.141626 -0.065292 0)
(0.0467632 -0.0706812 0)
(0.0555183 -0.0712387 0)
(0.0532739 -0.0709084 0)
(0.0492924 -0.0688723 0)
(0.0512017 -0.0653949 0)
(0.0545714 -0.0615381 0)
(0.0603324 -0.0583734 0)
(0.065104 -0.0544989 0)
(0.0683857 -0.0519484 0)
(0.0705876 -0.0487777 0)
(0.0695297 -0.0459811 0)
(0.0646334 -0.0429232 0)
(0.0537475 -0.0400862 0)
(0.0395643 -0.037205 0)
(0.0247675 -0.0350647 0)
(0.0141142 -0.033957 0)
(0.00520196 -0.0331913 0)
(-0.00622338 -0.0329732 0)
(-0.0151415 -0.0333567 0)
(-0.0259262 -0.034062 0)
(-0.0408694 -0.03585 0)
(-0.0554382 -0.0383176 0)
(-0.0665244 -0.0408679 0)
(-0.072207 -0.0433129 0)
(-0.0732249 -0.0458799 0)
(-0.0726981 -0.047792 0)
(-0.0698273 -0.0498346 0)
(-0.0668636 -0.0515639 0)
(-0.0636639 -0.0535468 0)
(-0.0605915 -0.0556685 0)
(-0.0603366 -0.0578983 0)
(-0.0618405 -0.0597444 0)
(-0.0616434 -0.0609505 0)
(-0.0468689 -0.0620676 0)
(-0.122889 -0.0598799 0)
(-0.468709 -0.0432074 0)
(-0.362978 -0.0157842 0)
(0.351762 0.0217411 0)
(0.464994 -0.0278103 0)
(0.129985 -0.0413656 0)
(0.0433524 -0.0528043 0)
(0.0558082 -0.0547143 0)
(0.05535 -0.0547424 0)
(0.0529521 -0.0517902 0)
(0.0552667 -0.0487297 0)
(0.0583537 -0.0456517 0)
(0.0639083 -0.0430211 0)
(0.0685227 -0.0407226 0)
(0.0718547 -0.03859 0)
(0.0745437 -0.0359511 0)
(0.0735067 -0.0328676 0)
(0.0679312 -0.0307878 0)
(0.0564272 -0.0293377 0)
(0.0419111 -0.028071 0)
(0.0262229 -0.0272379 0)
(0.0148399 -0.026854 0)
(0.0055566 -0.0259036 0)
(-0.00621459 -0.0257489 0)
(-0.01552 -0.026439 0)
(-0.0270463 -0.0265541 0)
(-0.042875 -0.0271904 0)
(-0.0577981 -0.0282506 0)
(-0.0693616 -0.0295495 0)
(-0.0757461 -0.0311714 0)
(-0.076532 -0.033823 0)
(-0.0753009 -0.0356899 0)
(-0.0719671 -0.0371589 0)
(-0.0688232 -0.0383783 0)
(-0.0658346 -0.0395755 0)
(-0.0628707 -0.0411839 0)
(-0.062382 -0.0425087 0)
(-0.0633788 -0.0436272 0)
(-0.0628018 -0.043986 0)
(-0.045609 -0.0425621 0)
(-0.112675 -0.034388 0)
(-0.44053 -0.0227611 0)
(-0.343198 0.0231679 0)
(0.325644 -0.0261507 0)
(0.434121 -0.0935828 0)
(0.117541 -0.10253 0)
(0.0338999 -0.116371 0)
(0.0536507 -0.129012 0)
(0.0560917 -0.138563 0)
(0.0550865 -0.146677 0)
(0.057117 -0.152119 0)
(0.0600725 -0.159703 0)
(0.0650822 -0.164846 0)
(0.0693738 -0.173427 0)
(0.0729837 -0.179995 0)
(0.076102 -0.188489 0)
(0.0745053 -0.196888 0)
(0.0680348 -0.207551 0)
(0.0563655 -0.218296 0)
(0.0415878 -0.22809 0)
(0.0259402 -0.235477 0)
(0.0154 -0.240487 0)
(0.00626683 -0.235759 0)
(-0.00673929 -0.235598 0)
(-0.0159174 -0.240094 0)
(-0.0266503 -0.234863 0)
(-0.0425042 -0.227335 0)
(-0.0577115 -0.217454 0)
(-0.069339 -0.206592 0)
(-0.0763251 -0.195722 0)
(-0.077579 -0.18717 0)
(-0.0759127 -0.178391 0)
(-0.072418 -0.17173 0)
(-0.0691923 -0.162996 0)
(-0.0663675 -0.156724 0)
(-0.063418 -0.148725 0)
(-0.062691 -0.142049 0)
(-0.0632641 -0.134002 0)
(-0.0606171 -0.12558 0)
(-0.0376199 -0.114755 0)
(-0.103808 -0.103843 0)
(-0.413246 -0.103262 0)
(-0.318719 -0.0597983 0)
(0.286782 -0.295222 0)
(0.391392 -0.417933 0)
(0.108025 -0.446865 0)
(0.0178336 -0.480443 0)
(0.0344233 -0.509431 0)
(0.0383266 -0.523285 0)
(0.0398887 -0.537994 0)
(0.0427145 -0.547929 0)
(0.0460899 -0.558542 0)
(0.0506833 -0.566802 0)
(0.0539247 -0.577896 0)
(0.0573409 -0.586542 0)
(0.0582647 -0.598341 0)
(0.0551378 -0.607929 0)
(0.0473019 -0.616562 0)
(0.0366349 -0.619061 0)
(0.0253547 -0.616302 0)
(0.0142764 -0.60739 0)
(0.0145685 -0.597747 0)
(0.0102681 -0.58699 0)
(-0.0103919 -0.586836 0)
(-0.0148115 -0.59736 0)
(-0.0147517 -0.606701 0)
(-0.0260997 -0.615181 0)
(-0.037809 -0.617447 0)
(-0.0484197 -0.614114 0)
(-0.0570309 -0.605047 0)
(-0.0598306 -0.5942 0)
(-0.0604223 -0.582344 0)
(-0.0571328 -0.571123 0)
(-0.0543624 -0.560023 0)
(-0.0520818 -0.54817 0)
(-0.0487296 -0.535749 0)
(-0.0481945 -0.522513 0)
(-0.0475086 -0.505492 0)
(-0.0442548 -0.489478 0)
(-0.0246621 -0.459912 0)
(-0.1016 -0.428869 0)
(-0.398087 -0.408625 0)
(-0.301315 -0.295064 0)
(0.207395 -0.246504 0)
(0.287992 -0.328887 0)
(0.0573044 -0.353807 0)
(-0.0263906 -0.381522 0)
(0.012367 -0.3997 0)
(0.0285674 -0.404411 0)
(0.0313383 -0.409827 0)
(0.0373157 -0.413284 0)
(0.0418859 -0.41543 0)
(0.0464323 -0.417646 0)
(0.0503514 -0.419841 0)
(0.0532822 -0.421354 0)
(0.0554925 -0.424053 0)
(0.0569471 -0.424231 0)
(0.0573074 -0.422176 0)
(0.0566156 -0.413848 0)
(0.052835 -0.401441 0)
(0.043821 -0.385331 0)
(0.0350583 -0.370782 0)
(0.0167812 -0.364068 0)
(-0.0167322 -0.364023 0)
(-0.0350607 -0.370647 0)
(-0.0438235 -0.385036 0)
(-0.0528593 -0.400816 0)
(-0.0566837 -0.412805 0)
(-0.0573897 -0.420403 0)
(-0.0571348 -0.422114 0)
(-0.0557018 -0.420511 0)
(-0.0536751 -0.417829 0)
(-0.0509087 -0.413509 0)
(-0.0470739 -0.41137 0)
(-0.0429758 -0.405946 0)
(-0.0386943 -0.401921 0)
(-0.0335342 -0.395532 0)
(-0.0314305 -0.386707 0)
(-0.0166948 -0.378847 0)
(0.0207859 -0.358107 0)
(-0.0543859 -0.331684 0)
(-0.284308 -0.309111 0)
(-0.209288 -0.213611 0)
(0.207395 0.246504 0)
(0.287992 0.328887 0)
(0.0573044 0.353807 0)
(-0.0263906 0.381522 0)
(0.012367 0.3997 0)
(0.0285674 0.404411 0)
(0.0313383 0.409827 0)
(0.0373157 0.413284 0)
(0.0418859 0.41543 0)
(0.0464323 0.417646 0)
(0.0503514 0.419841 0)
(0.0532822 0.421354 0)
(0.0554925 0.424053 0)
(0.0569471 0.424231 0)
(0.0573074 0.422176 0)
(0.0566156 0.413848 0)
(0.052835 0.401441 0)
(0.043821 0.385331 0)
(0.0350583 0.370782 0)
(0.0167812 0.364068 0)
(-0.0167322 0.364023 0)
(-0.0350607 0.370647 0)
(-0.0438235 0.385036 0)
(-0.0528593 0.400816 0)
(-0.0566837 0.412805 0)
(-0.0573897 0.420403 0)
(-0.0571348 0.422114 0)
(-0.0557018 0.420511 0)
(-0.0536751 0.417829 0)
(-0.0509087 0.413509 0)
(-0.0470739 0.41137 0)
(-0.0429758 0.405946 0)
(-0.0386943 0.401921 0)
(-0.0335342 0.395532 0)
(-0.0314305 0.386707 0)
(-0.0166948 0.378847 0)
(0.0207859 0.358107 0)
(-0.0543859 0.331684 0)
(-0.284308 0.309111 0)
(-0.209288 0.213611 0)
(0.286782 0.295222 0)
(0.391392 0.417933 0)
(0.108025 0.446865 0)
(0.0178336 0.480443 0)