/*--------------------------------*- C++ -*----------------------------------*\
| =========                 |                                                 |
| \\      /  F ield         | OpenFOAM: The Open Source CFD Toolbox           |
|  \\    /   O peration     | Version:  v1912                                 |
|   \\  /    A nd           | Website:  www.openfoam.com                      |
|    \\/     M anipulation  |                                                 |
\*---------------------------------------------------------------------------*/
FoamFile
{
    version     2.0;
    format      ascii;
    class       volVectorField;
    location    "3.12";
    object      U;
}
// * * * * * * * * * * * * * * * * * * * * * * * * * * * * * * * * * * * * * //

dimensions      [0 1 -1 0 0 0 0];


internalField   nonuniform List<vector> 
1900
(
(-0.491573 -1.97946e-06 0)
(-0.0771267 -2.09019e-06 0)
(-0.0824797 -2.7238e-06 0)
(-0.086834 9.82626e-06 0)
(-0.0915022 0.000131336 0)
(-0.0966654 0.000399556 0)
(-0.101792 0.000572845 0)
(-0.106314 -0.000849157 0)
(-0.109112 -0.00566505 0)
(-0.0967576 -0.0193403 0)
(-0.491576 -8.98892e-07 0)
(-0.0771337 -1.5977e-06 0)
(-0.0824906 -1.8454e-06 0)
(-0.0868482 1.48076e-05 0)
(-0.0914474 0.000119622 0)
(-0.0963067 0.000373251 0)
(-0.10067 0.000628051 0)
(-0.104329 -0.000309968 0)
(-0.109281 -0.00324974 0)
(-0.111737 -0.0153615 0)
(-0.491577 -2.48431e-14 0)
(-0.0771363 -2.36498e-14 0)
(-0.0824929 -3.10089e-14 0)
(-0.0868288 -5.07692e-15 0)
(-0.0913539 1.23531e-14 0)
(-0.0960398 -1.67131e-16 0)
(-0.100192 -2.24383e-14 0)
(-0.103882 -4.73509e-15 0)
(-0.109393 -4.26167e-14 0)
(-0.11967 -2.6594e-14 0)
(-0.491576 8.98892e-07 0)
(-0.0771337 1.5977e-06 0)
(-0.0824906 1.8454e-06 0)
(-0.0868482 -1.48076e-05 0)
(-0.0914474 -0.000119622 0)
(-0.0963067 -0.000373251 0)
(-0.10067 -0.000628051 0)
(-0.104329 0.000309968 0)
(-0.109281 0.00324974 0)
(-0.111737 0.0153615 0)
(-0.491573 1.97946e-06 0)
(-0.0771267 2.09019e-06 0)
(-0.0824797 2.7238e-06 0)
(-0.086834 -9.82626e-06 0)
(-0.0915022 -0.000131336 0)
(-0.0966654 -0.000399556 0)
(-0.101792 -0.000572845 0)
(-0.106314 0.000849157 0)
(-0.109112 0.00566505 0)
(-0.0967576 0.0193403 0)
(-0.0977492 -0.050651 0)
(-0.125153 -0.0646658 0)
(-0.14667 -0.0872544 0)
(-0.190768 -0.110501 0)
(-0.383805 -0.0810405 0)
(-0.127915 -0.0347261 0)
(-0.156977 -0.043983 0)
(-0.195453 -0.0644436 0)
(-0.280402 -0.0848015 0)
(-0.454064 -0.0754043 0)
(-0.13946 -2.89668e-14 0)
(-0.168987 -1.69313e-14 0)
(-0.218432 2.50209e-14 0)
(-0.313648 -2.18424e-15 0)
(-0.476477 6.0567e-15 0)
(-0.127915 0.0347261 0)
(-0.156977 0.043983 0)
(-0.195453 0.0644436 0)
(-0.280402 0.0848015 0)
(-0.454064 0.0754043 0)
(-0.0977492 0.050651 0)
(-0.125153 0.0646658 0)
(-0.14667 0.0872544 0)
(-0.190768 0.110501 0)
(-0.383805 0.0810405 0)
(-0.432078 0.0267047 0)
(-0.33479 0.0285927 0)
(-0.274506 0.0280935 0)
(-0.238346 0.0420932 0)
(-0.273105 0.0817095 0)
(-0.449869 0.0199567 0)
(-0.347266 0.0176138 0)
(-0.274785 0.0152708 0)
(-0.199678 0.0348905 0)
(-0.122956 0.0968579 0)
(-0.459419 9.88119e-15 0)
(-0.349158 6.63696e-14 0)
(-0.266967 1.14043e-13 0)
(-0.173986 1.38038e-13 0)
(-0.0365158 1.52611e-13 0)
(-0.449869 -0.0199567 0)
(-0.347266 -0.0176138 0)
(-0.274785 -0.0152708 0)
(-0.199678 -0.0348905 0)
(-0.122956 -0.0968579 0)
(-0.432078 -0.0267047 0)
(-0.33479 -0.0285927 0)
(-0.274506 -0.0280935 0)
(-0.238346 -0.0420932 0)
(-0.273105 -0.0817095 0)
(-0.468998 0.0700026 0)
(-0.0454542 -0.162589 0)
(-0.107352 -0.206553 0)
(-0.257297 -0.128779 0)
(-0.329525 -0.0598187 0)
(-0.380579 -0.042135 0)
(-0.3967 -0.0374614 0)
(-0.397023 -0.0354612 0)
(-0.389998 -0.0336297 0)
(-0.37866 -0.0334629 0)
(-0.36315 -0.0330894 0)
(-0.344339 -0.032975 0)
(-0.32213 -0.0329014 0)
(-0.295555 -0.0328599 0)
(-0.263419 -0.0328512 0)
(-0.22501 -0.0328568 0)
(-0.180657 -0.032852 0)
(-0.131239 -0.0328581 0)
(-0.0789381 -0.0327485 0)
(-0.0241117 -0.0329687 0)
(0.0304997 -0.0329216 0)
(0.0858317 -0.0326934 0)
(0.138761 -0.0327655 0)
(0.189341 -0.0327106 0)
(0.235654 -0.0326491 0)
(0.277222 -0.0325514 0)
(0.314127 -0.0324298 0)
(0.347394 -0.0322932 0)
(0.378331 -0.0321508 0)
(0.407934 -0.0320062 0)
(0.436662 -0.0318632 0)
(0.464649 -0.0317199 0)
(0.491996 -0.0316128 0)
(0.518858 -0.031409 0)
(0.544471 -0.0314607 0)
(0.56693 -0.0305781 0)
(0.58486 -0.0314413 0)
(0.596927 -0.0301291 0)
(0.63228 -0.032549 0)
(1.25641 -0.0308425 0)
(0.0596581 0.101045 0)
(0.266802 -0.112373 0)
(0.0550848 -0.14029 0)
(-0.215636 -0.073389 0)
(-0.330594 -0.0300869 0)
(-0.381805 -0.0208395 0)
(-0.397939 -0.0186978 0)
(-0.398408 -0.0177313 0)
(-0.391238 -0.0167803 0)
(-0.379844 -0.0167262 0)
(-0.364316 -0.016536 0)
(-0.345421 -0.0164755 0)
(-0.323119 -0.0164367 0)
(-0.296439 -0.0164127 0)
(-0.264182 -0.0164048 0)
(-0.22564 -0.0164048 0)
(-0.181146 -0.0164005 0)
(-0.131586 -0.0164028 0)
(-0.0791422 -0.0163477 0)
(-0.0241747 -0.0164583 0)
(0.0305777 -0.0164347 0)
(0.0860521 -0.0163204 0)
(0.139124 -0.0163572 0)
(0.189845 -0.0163309 0)
(0.236296 -0.0163025 0)
(0.277996 -0.016257 0)
(0.315027 -0.0162005 0)
(0.34841 -0.0161369 0)
(0.379453 -0.0160703 0)
(0.409154 -0.0160022 0)
(0.437971 -0.0159343 0)
(0.466041 -0.0158664 0)
(0.493462 -0.0158157 0)
(0.5204 -0.0157199 0)
(0.546043 -0.0157434 0)
(0.568636 -0.0153018 0)
(0.586446 -0.0157309 0)
(0.598436 -0.0150641 0)
(0.632566 -0.0164191 0)
(1.25354 -0.0151235 0)
(0.223956 -1.12849e-15 0)
(0.366527 -5.93957e-14 0)
(0.128256 -2.42605e-14 0)
(-0.197455 7.20104e-14 0)
(-0.332854 -2.37554e-14 0)
(-0.384089 -2.94416e-13 0)
(-0.3998 -7.00742e-13 0)
(-0.400208 -9.03204e-13 0)
(-0.392785 -6.96076e-13 0)
(-0.381259 1.92491e-14 0)
(-0.365595 1.2408e-12 0)
(-0.34654 2.29812e-12 0)
(-0.324086 1.34824e-12 0)
(-0.297259 -3.49924e-12 0)
(-0.26486 -1.27664e-11 0)
(-0.22618 -1.965e-11 0)
(-0.181552 -4.30653e-12 0)
(-0.131865 1.79468e-11 0)
(-0.0793021 -8.3657e-12 0)
(-0.0242225 -1.26567e-11 0)
(0.0306391 1.73998e-11 0)
(0.0862262 1.09983e-11 0)
(0.139419 -5.17371e-11 0)
(0.190267 -4.76175e-11 0)
(0.236855 1.48454e-11 0)
(0.278701 2.59805e-11 0)
(0.315883 -2.01603e-12 0)
(0.349423 -2.70814e-11 0)
(0.380627 -3.70475e-11 0)
(0.410495 -3.30398e-11 0)
(0.439488 -3.06534e-11 0)
(0.467742 -1.70021e-11 0)
(0.495357 -1.58664e-11 0)
(0.5225 -8.9989e-12 0)
(0.548344 -3.01627e-11 0)
(0.571174 -2.06893e-11 0)
(0.589207 9.42731e-12 0)
(0.601309 -4.56693e-11 0)
(0.634672 -2.32155e-11 0)
(1.25598 3.61584e-11 0)
(0.0596581 -0.101045 0)
(0.266802 0.112373 0)
(0.0550848 0.14029 0)
(-0.215636 0.073389 0)
(-0.330594 0.0300869 0)
(-0.381805 0.0208395 0)
(-0.397939 0.0186978 0)
(-0.398408 0.0177313 0)
(-0.391238 0.0167803 0)
(-0.379844 0.0167262 0)
(-0.364316 0.016536 0)
(-0.345421 0.0164755 0)
(-0.323119 0.0164367 0)
(-0.296439 0.0164127 0)
(-0.264182 0.0164048 0)
(-0.22564 0.0164048 0)
(-0.181146 0.0164005 0)
(-0.131586 0.0164028 0)
(-0.0791422 0.0163477 0)
(-0.0241747 0.0164583 0)
(0.0305777 0.0164347 0)
(0.0860521 0.0163204 0)
(0.139124 0.0163572 0)
(0.189845 0.0163309 0)
(0.236296 0.0163025 0)
(0.277996 0.016257 0)
(0.315027 0.0162005 0)
(0.34841 0.0161369 0)
(0.379453 0.0160703 0)
(0.409154 0.0160022 0)
(0.437971 0.0159343 0)
(0.466041 0.0158664 0)
(0.493462 0.0158157 0)
(0.5204 0.0157199 0)
(0.546043 0.0157434 0)
(0.568636 0.0153018 0)
(0.586446 0.0157309 0)
(0.598436 0.0150641 0)
(0.632566 0.0164191 0)
(1.25354 0.0151235 0)
(-0.468998 -0.0700026 0)
(-0.0454542 0.162589 0)
(-0.107352 0.206553 0)
(-0.257297 0.128779 0)
(-0.329525 0.0598187 0)
(-0.380579 0.042135 0)
(-0.3967 0.0374614 0)
(-0.397023 0.0354612 0)
(-0.389998 0.0336297 0)
(-0.37866 0.0334629 0)
(-0.36315 0.0330894 0)
(-0.344339 0.032975 0)
(-0.32213 0.0329014 0)
(-0.295555 0.0328599 0)
(-0.263419 0.0328512 0)
(-0.22501 0.0328568 0)
(-0.180657 0.032852 0)
(-0.131239 0.0328581 0)
(-0.0789381 0.0327485 0)
(-0.0241117 0.0329687 0)
(0.0304997 0.0329216 0)
(0.0858317 0.0326934 0)
(0.138761 0.0327655 0)
(0.189341 0.0327106 0)
(0.235654 0.0326491 0)
(0.277222 0.0325514 0)
(0.314127 0.0324298 0)
(0.347394 0.0322932 0)
(0.378331 0.0321508 0)
(0.407934 0.0320062 0)
(0.436662 0.0318632 0)
(0.464649 0.0317199 0)
(0.491996 0.0316128 0)
(0.518858 0.031409 0)
(0.544471 0.0314607 0)
(0.56693 0.0305781 0)
(0.58486 0.0314413 0)
(0.596927 0.0301291 0)
(0.63228 0.032549 0)
(1.25641 0.0308425 0)
(-1.08913 -0.12593 0)
(-0.397469 0.180046 0)
(-0.307676 0.261306 0)
(-0.326612 0.189498 0)
(-0.354058 0.113986 0)
(-0.390637 0.0862533 0)
(-0.402279 0.0773203 0)
(-0.401827 0.0730625 0)
(-0.393671 0.069779 0)
(-0.381727 0.0692598 0)
(-0.365757 0.0685363 0)
(-0.346681 0.0682911 0)
(-0.324204 0.0681233 0)
(-0.297369 0.0680369 0)
(-0.264974 0.0680161 0)
(-0.2263 0.068021 0)
(-0.181674 0.0680023 0)
(-0.131972 0.0680083 0)
(-0.0793839 0.0677769 0)
(-0.0242611 0.0682337 0)
(0.0306341 0.0681376 0)
(0.0862512 0.0676652 0)
(0.139456 0.0678164 0)
(0.190304 0.0677059 0)
(0.236875 0.0675837 0)
(0.278693 0.0673866 0)
(0.315844 0.0671404 0)
(0.349357 0.0668639 0)
(0.380549 0.0665759 0)
(0.410422 0.0662839 0)
(0.439432 0.0659972 0)
(0.467711 0.0657035 0)
(0.495343 0.065504 0)
(0.522427 0.0650423 0)
(0.54834 0.0651817 0)
(0.57076 0.0634502 0)
(0.589284 0.0649034 0)
(0.601737 0.0625757 0)
(0.63844 0.0662787 0)
(1.25655 0.0647378 0)
(-1.2262 -0.0366739 0)
(-0.585377 0.254652 0)
(-0.45922 0.30893 0)
(-0.398843 0.246423 0)
(-0.39974 0.178111 0)
(-0.407564 0.148217 0)
(-0.410183 0.135851 0)
(-0.404519 0.12889 0)
(-0.395197 0.124176 0)
(-0.381987 0.123056 0)
(-0.36563 0.12191 0)
(-0.346433 0.121468 0)
(-0.323896 0.121174 0)
(-0.297052 0.121049 0)
(-0.264685 0.121035 0)
(-0.226067 0.121054 0)
(-0.181509 0.121025 0)
(-0.13187 0.12104 0)
(-0.0793491 0.120628 0)
(-0.024272 0.12146 0)
(0.0305406 0.121291 0)
(0.086083 0.120436 0)
(0.139181 0.120703 0)
(0.1899 0.120499 0)
(0.236309 0.120273 0)
(0.277941 0.11991 0)
(0.314894 0.119455 0)
(0.34822 0.118946 0)
(0.379248 0.118415 0)
(0.408991 0.117877 0)
(0.437894 0.117355 0)
(0.466051 0.116803 0)
(0.493587 0.116471 0)
(0.520333 0.115542 0)
(0.546277 0.115889 0)
(0.567976 0.112907 0)
(0.586881 0.11515 0)
(0.599331 0.111792 0)
(0.641084 0.114433 0)
(1.24766 0.108217 0)
(-1.23288 0.0289185 0)
(-0.634514 0.265181 0)
(-0.518275 0.321183 0)
(-0.451631 0.268992 0)
(-0.431715 0.22585 0)
(-0.423824 0.201774 0)
(-0.418614 0.188256 0)
(-0.408829 0.180381 0)
(-0.397142 0.176227 0)
(-0.382963 0.174144 0)
(-0.366024 0.172815 0)
(-0.346583 0.172223 0)
(-0.323896 0.171897 0)
(-0.296984 0.171831 0)
(-0.264595 0.171907 0)
(-0.225994 0.172015 0)
(-0.181471 0.172034 0)
(-0.131865 0.1721 0)
(-0.0793818 0.17154 0)
(-0.024305 0.172769 0)
(0.0304668 0.172531 0)
(0.0859845 0.171272 0)
(0.139023 0.171623 0)
(0.18966 0.171292 0)
(0.235957 0.170915 0)
(0.277453 0.170323 0)
(0.314275 0.169588 0)
(0.347474 0.168755 0)
(0.378456 0.167891 0)
(0.40819 0.166996 0)
(0.437134 0.166125 0)
(0.465319 0.165153 0)
(0.492974 0.164587 0)
(0.519366 0.162853 0)
(0.545666 0.163175 0)
(0.566747 0.159077 0)
(0.586136 0.161358 0)
(0.598457 0.157711 0)
(0.646107 0.158226 0)
(1.23881 0.150123 0)
(-1.22811 0.100158 0)
(-0.650222 0.282175 0)
(-0.543576 0.333972 0)
(-0.480825 0.293363 0)
(-0.454169 0.265711 0)
(-0.43915 0.246812 0)
(-0.426735 0.234865 0)
(-0.413916 0.227234 0)
(-0.399928 0.223479 0)
(-0.384345 0.220978 0)
(-0.366678 0.219614 0)
(-0.346744 0.218957 0)
(-0.323794 0.218726 0)
(-0.296722 0.21881 0)
(-0.264325 0.219089 0)
(-0.225767 0.219368 0)
(-0.18133 0.219507 0)
(-0.131807 0.219674 0)
(-0.0794065 0.218999 0)
(-0.0243614 0.220648 0)
(0.0303273 0.220336 0)
(0.0857802 0.218638 0)
(0.138707 0.21903 0)
(0.189201 0.218525 0)
(0.23531 0.217933 0)
(0.276604 0.217051 0)
(0.313177 0.215931 0)
(0.346246 0.214718 0)
(0.377056 0.213376 0)
(0.406794 0.212034 0)
(0.435787 0.210707 0)
(0.46383 0.209075 0)
(0.491682 0.208192 0)
(0.517466 0.205333 0)
(0.544125 0.205368 0)
(0.564555 0.200219 0)
(0.584502 0.2021 0)
(0.596526 0.198799 0)
(0.650736 0.194451 0)
(1.22783 0.186468 0)
(-1.21568 0.15745 0)
(-0.657061 0.302523 0)
(-0.55911 0.347997 0)
(-0.501486 0.315982 0)
(-0.471362 0.300422 0)
(-0.451609 0.284805 0)
(-0.43437 0.275061 0)
(-0.41868 0.26826 0)
(-0.402734 0.264955 0)
(-0.385814 0.262317 0)
(-0.367355 0.261039 0)
(-0.346835 0.260472 0)
(-0.323409 0.260372 0)
(-0.29624 0.260788 0)
(-0.263789 0.261326 0)
(-0.225356 0.261892 0)
(-0.181056 0.262215 0)
(-0.131675 0.262533 0)
(-0.0794066 0.261771 0)
(-0.0244316 0.263863 0)
(0.0301345 0.263477 0)
(0.085478 0.261303 0)
(0.138242 0.261696 0)
(0.188525 0.260968 0)
(0.234392 0.260116 0)
(0.275359 0.258831 0)
(0.31174 0.257349 0)
(0.344391 0.255498 0)
(0.375305 0.253822 0)
(0.404805 0.251725 0)
(0.433888 0.249911 0)
(0.461857 0.247549 0)
(0.489879 0.24617 0)
(0.514944 0.242089 0)
(0.541904 0.241687 0)
(0.562127 0.235835 0)
(0.582586 0.236989 0)
(0.595002 0.235094 0)
(0.654564 0.224456 0)
(1.21639 0.226047 0)
(-1.21666 0.213634 0)
(-0.658667 0.321347 0)
(-0.56739 0.361371 0)
(-0.517066 0.335968 0)
(-0.484937 0.330127 0)
(-0.460809 0.316838 0)
(-0.440745 0.309674 0)
(-0.422871 0.303721 0)
(-0.405422 0.300865 0)
(-0.387392 0.298274 0)
(-0.368083 0.297134 0)
(-0.346637 0.296468 0)
(-0.322982 0.296856 0)
(-0.295343 0.29735 0)
(-0.26305 0.298358 0)
(-0.224716 0.299164 0)
(-0.18064 0.299727 0)
(-0.13146 0.30021 0)
(-0.079381 0.299373 0)
(-0.0245234 0.301916 0)
(0.0298772 0.301458 0)
(0.0850609 0.298784 0)
(0.137605 0.299152 0)
(0.187618 0.298189 0)
(0.233133 0.297002 0)
(0.273836 0.295426 0)
(0.30962 0.293248 0)
(0.342456 0.291318 0)
(0.372667 0.288563 0)
(0.402623 0.286426 0)
(0.431668 0.283904 0)
(0.459273 0.280644 0)
(0.487697 0.279165 0)
(0.512158 0.274159 0)
(0.53914 0.273236 0)
(0.559513 0.26723 0)
(0.580353 0.267457 0)
(0.594393 0.267336 0)
(0.656087 0.252193 0)
(1.20259 0.259734 0)
(-1.20426 0.264893 0)
(-0.657631 0.342411 0)
(-0.572117 0.378392 0)
(-0.527971 0.358295 0)
(-0.495598 0.35674 0)
(-0.468199 0.345694 0)
(-0.446494 0.340993 0)
(-0.426882 0.335432 0)
(-0.408299 0.333002 0)
(-0.389128 0.330345 0)
(-0.368704 0.328952 0)
(-0.346897 0.32892 0)
(-0.322023 0.328827 0)
(-0.2946 0.330055 0)
(-0.262022 0.331016 0)
(-0.223988 0.332206 0)
(-0.180127 0.332903 0)
(-0.131201 0.333544 0)
(-0.0793497 0.332613 0)
(-0.0246427 0.335604 0)
(0.0295648 0.335085 0)
(0.0845563 0.331904 0)
(0.13685 0.332268 0)
(0.186538 0.331071 0)
(0.23174 0.329701 0)
(0.27186 0.327594 0)
(0.307748 0.325559 0)
(0.339473 0.322419 0)
(0.370766 0.320527 0)
(0.399644 0.316877 0)
(0.429402 0.314822 0)
(0.456911 0.311205 0)
(0.485332 0.309435 0)
(0.50937 0.304106 0)
(0.536542 0.303341 0)
(0.557464 0.297802 0)
(0.579172 0.297767 0)
(0.594748 0.297981 0)
(0.656269 0.282536 0)
(1.18939 0.301405 0)
(-1.18393 0.305222 0)
(-0.654892 0.361968 0)
(-0.574247 0.395621 0)
(-0.534075 0.380767 0)
(-0.502391 0.380827 0)
(-0.472985 0.371974 0)
(-0.450777 0.369776 0)
(-0.429979 0.364471 0)
(-0.410733 0.362564 0)
(-0.39067 0.359889 0)
(-0.369887 0.359261 0)
(-0.34626 0.358204 0)
(-0.32183 0.359351 0)
(-0.293265 0.359852 0)
(-0.261165 0.361429 0)
(-0.22315 0.36253 0)
(-0.179607 0.363382 0)
(-0.130944 0.36409 0)
(-0.0793395 0.363024 0)
(-0.0247933 0.366449 0)
(0.0292131 0.365889 0)
(0.0840065 0.362219 0)
(0.136039 0.362634 0)
(0.185411 0.361332 0)
(0.230157 0.359727 0)
(0.27013 0.357775 0)
(0.304924 0.354859 0)
(0.337692 0.352874 0)
(0.367112 0.349068 0)
(0.39769 0.347116 0)
(0.426587 0.343906 0)
(0.4538 0.339935 0)
(0.482708 0.338754 0)
(0.505978 0.33298 0)
(0.533087 0.331944 0)
(0.55421 0.326526 0)
(0.577444 0.32682 0)
(0.593479 0.325973 0)
(0.653714 0.310372 0)
(1.1735 0.332821 0)
(-1.17008 0.357918 0)
(-0.653815 0.388625 0)
(-0.575748 0.418552 0)
(-0.539383 0.408082 0)
(-0.508475 0.408102 0)
(-0.478157 0.400492 0)
(-0.455705 0.399473 0)
(-0.433646 0.393503 0)
(-0.413892 0.392031 0)
(-0.393028 0.389611 0)
(-0.370229 0.387646 0)
(-0.347082 0.38822 0)
(-0.320504 0.387886 0)
(-0.292611 0.389381 0)
(-0.259969 0.390415 0)
(-0.222383 0.391751 0)
(-0.179079 0.392524 0)
(-0.130709 0.393258 0)
(-0.079358 0.392 0)
(-0.0249691 0.395848 0)
(0.0288355 0.395274 0)
(0.0834388 0.391138 0)
(0.135212 0.391693 0)
(0.184241 0.39034 0)
(0.228666 0.388831 0)
(0.267897 0.386547 0)
(0.303117 0.384437 0)
(0.334131 0.381043 0)
(0.365788 0.379498 0)
(0.393989 0.375153 0)
(0.424903 0.37409 0)
(0.451406 0.369636 0)
(0.480459 0.368643 0)
(0.503698 0.363303 0)
(0.531274 0.362813 0)
(0.552907 0.357839 0)
(0.577688 0.358575 0)
(0.594484 0.357585 0)
(0.653342 0.343211 0)
(1.15736 0.377108 0)
(-1.1526 0.396289 0)
(-0.649923 0.409537 0)
(-0.574234 0.437096 0)
(-0.541147 0.431643 0)
(-0.510374 0.431101 0)
(-0.47977 0.424695 0)
(-0.457539 0.424881 0)
(-0.434978 0.419331 0)
(-0.415517 0.419137 0)
(-0.393235 0.416203 0)
(-0.371168 0.416382 0)
(-0.345755 0.415598 0)
(-0.319914 0.416723 0)
(-0.291011 0.417598 0)
(-0.258884 0.41902 0)
(-0.221479 0.420258 0)
(-0.178544 0.421019 0)
(-0.130485 0.42173 0)
(-0.0793979 0.420252 0)
(-0.0251585 0.424529 0)
(0.0284406 0.423965 0)
(0.082867 0.419375 0)
(0.134378 0.420124 0)
(0.183059 0.4188 0)
(0.227003 0.417291 0)
(0.265918 0.415191 0)
(0.30008 0.412578 0)
(0.331969 0.410215 0)
(0.361589 0.406882 0)
(0.391824 0.404541 0)
(0.420885 0.401496 0)
(0.447589 0.397172 0)
(0.476677 0.396253 0)
(0.498996 0.390328 0)
(0.526651 0.389457 0)
(0.548428 0.384371 0)
(0.5746 0.3851 0)
(0.591408 0.382958 0)
(0.649089 0.368785 0)
(1.13927 0.406257 0)
(-1.13606 0.448991 0)
(-0.648885 0.438955 0)
(-0.575127 0.46262 0)
(-0.5461 0.461131 0)
(-0.513325 0.458668 0)
(-0.484224 0.453719 0)
(-0.462229 0.453981 0)
(-0.438951 0.448079 0)
(-0.418956 0.447931 0)
(-0.39612 0.445597 0)
(-0.372052 0.444558 0)
(-0.346396 0.444476 0)
(-0.319264 0.445036 0)
(-0.290104 0.445872 0)
(-0.257904 0.447166 0)
(-0.220702 0.44824 0)
(-0.178076 0.448942 0)
(-0.1303 0.449598 0)
(-0.0794629 0.447893 0)
(-0.0253529 0.452616 0)
(0.028041 0.452085 0)
(0.0823151 0.447038 0)
(0.133578 0.448011 0)
(0.181948 0.446761 0)
(0.225494 0.445326 0)
(0.263994 0.443404 0)
(0.297989 0.441036 0)
(0.329408 0.438619 0)
(0.360184 0.436361 0)
(0.389057 0.432838 0)
(0.42036 0.431935 0)
(0.445865 0.426777 0)
(0.475652 0.426701 0)
(0.498144 0.421395 0)
(0.526281 0.420772 0)
(0.548363 0.415941 0)
(0.576093 0.417313 0)
(0.593455 0.415329 0)
(0.649527 0.402598 0)
(1.11948 0.451557 0)
(-1.11748 0.48395 0)
(-0.645013 0.460755 0)
(-0.57405 0.48219 0)
(-0.547206 0.482326 0)
(-0.513176 0.478048 0)
(-0.485258 0.4758 0)
(-0.462933 0.475681 0)
(-0.438949 0.469962 0)
(-0.418995 0.471182 0)
(-0.394719 0.468633 0)
(-0.370535 0.469247 0)
(-0.344319 0.469686 0)
(-0.316744 0.470706 0)
(-0.287926 0.472244 0)
(-0.255975 0.473738 0)
(-0.219486 0.475203 0)
(-0.177396 0.476022 0)
(-0.130048 0.476752 0)
(-0.0795098 0.47486 0)
(-0.0255322 0.480054 0)
(0.0276434 0.479575 0)
(0.0817665 0.474055 0)
(0.132731 0.47524 0)
(0.180643 0.473936 0)
(0.223585 0.472421 0)
(0.26117 0.470102 0)
(0.294725 0.467667 0)
(0.325215 0.464527 0)
(0.356134 0.462172 0)
(0.384373 0.458073 0)
(0.415384 0.456386 0)
(0.440684 0.451073 0)
(0.470226 0.450387 0)
(0.49242 0.444731 0)
(0.521067 0.444056 0)
(0.543314 0.439097 0)
(0.572191 0.440306 0)
(0.589871 0.437686 0)
(0.644838 0.425709 0)
(1.09953 0.478272 0)
(-1.09604 0.534292 0)
(-0.643265 0.490164 0)
(-0.574818 0.507817 0)
(-0.549584 0.508516 0)
(-0.515164 0.502969 0)
(-0.489452 0.502819 0)
(-0.46608 0.501805 0)
(-0.442454 0.49677 0)
(-0.422392 0.498135 0)
(-0.39702 0.495663 0)
(-0.372641 0.496841 0)
(-0.344972 0.497 0)
(-0.317056 0.498223 0)
(-0.287618 0.499571 0)
(-0.255646 0.500888 0)
(-0.219252 0.502102 0)
(-0.177311 0.502672 0)
(-0.130109 0.503306 0)
(-0.0796939 0.50119 0)
(-0.025733 0.506862 0)
(0.0273031 0.506449 0)
(0.0813937 0.500467 0)
(0.132226 0.501929 0)
(0.179962 0.500758 0)
(0.222671 0.499519 0)
(0.260023 0.49749 0)
(0.293338 0.495273 0)
(0.324096 0.492424 0)
(0.355005 0.490114 0)
(0.383734 0.486312 0)
(0.415044 0.484838 0)
(0.440112 0.479471 0)
(0.470202 0.479294 0)
(0.49223 0.473957 0)
(0.52148 0.473731 0)
(0.544032 0.469341 0)
(0.57392 0.470904 0)
(0.591825 0.468468 0)
(0.644894 0.458524 0)
(1.07571 0.523249 0)
(-1.0754 0.563467 0)
(-0.639506 0.511454 0)
(-0.574296 0.527346 0)
(-0.550371 0.528073 0)
(-0.516103 0.521879 0)
(-0.491577 0.523225 0)
(-0.466839 0.521071 0)
(-0.442796 0.516926 0)
(-0.422007 0.518553 0)
(-0.395241 0.516192 0)
(-0.370205 0.51823 0)
(-0.341395 0.518618 0)
(-0.313252 0.520649 0)
(-0.28349 0.522342 0)
(-0.252051 0.524394 0)
(-0.216516 0.526299 0)
(-0.175614 0.527629 0)
(-0.129262 0.528781 0)
(-0.0794339 0.526789 0)
(-0.0257847 0.533056 0)
(0.0268857 0.532719 0)
(0.0806494 0.526167 0)
(0.130864 0.527576 0)
(0.177701 0.525934 0)
(0.219267 0.523984 0)
(0.25556 0.52129 0)
(0.288137 0.518459 0)
(0.318651 0.515178 0)
(0.349604 0.512553 0)
(0.378129 0.508092 0)
(0.409992 0.506761 0)
(0.434722 0.500919 0)
(0.465301 0.500759 0)
(0.487284 0.495391 0)
(0.517284 0.495326 0)
(0.540093 0.49103 0)
(0.571045 0.492592 0)
(0.589219 0.48988 0)
(0.640749 0.480736 0)
(1.05408 0.546703 0)
(-1.04816 0.612428 0)
(-0.636676 0.541298 0)
(-0.574694 0.552939 0)
(-0.552036 0.553894 0)
(-0.518535 0.547774 0)
(-0.495079 0.549406 0)
(-0.468736 0.546029 0)
(-0.445316 0.542968 0)
(-0.423757 0.543977 0)
(-0.396231 0.541521 0)
(-0.371169 0.543697 0)
(-0.341548 0.543877 0)
(-0.313444 0.546132 0)
(-0.283448 0.547757 0)
(-0.252338 0.549916 0)
(-0.217063 0.551503 0)
(-0.176374 0.55253 0)
(-0.130016 0.553342 0)
(-0.0800466 0.550946 0)
(-0.0261018 0.557592 0)
(0.0268032 0.557341 0)
(0.0808557 0.550455 0)
(0.131188 0.552371 0)
(0.178 0.551122 0)
(0.219316 0.549563 0)
(0.255188 0.547209 0)
(0.287494 0.544487 0)
(0.317628 0.541195 0)
(0.348966 0.538916 0)
(0.376979 0.534508 0)
(0.409352 0.533894 0)
(0.433867 0.528508 0)
(0.464858 0.528993 0)
(0.487046 0.524431 0)
(0.517796 0.525116 0)
(0.540934 0.521653 0)
(0.572394 0.52326 0)
(0.590567 0.520545 0)
(0.639849 0.513759 0)
(1.02568 0.591269 0)
(-1.02602 0.634896 0)
(-0.632774 0.562901 0)
(-0.574411 0.574612 0)
(-0.553326 0.575576 0)
(-0.520627 0.569483 0)
(-0.497749 0.570781 0)
(-0.469608 0.565629 0)
(-0.446167 0.563877 0)
(-0.423256 0.564325 0)
(-0.394477 0.561516 0)
(-0.369379 0.564104 0)
(-0.338565 0.563692 0)
(-0.310008 0.565788 0)
(-0.279268 0.566819 0)
(-0.247725 0.568472 0)
(-0.212774 0.570216 0)
(-0.172633 0.571676 0)
(-0.127072 0.573072 0)
(-0.0781781 0.571142 0)
(-0.0255345 0.578605 0)
(0.0259343 0.578424 0)
(0.0786593 0.570747 0)
(0.127826 0.572288 0)
(0.173709 0.57049 0)
(0.214312 0.568578 0)
(0.249599 0.566041 0)
(0.28226 0.564006 0)
(0.31254 0.561127 0)
(0.344527 0.55963 0)
(0.372297 0.555376 0)
(0.404917 0.555105 0)
(0.429222 0.549938 0)
(0.460703 0.550736 0)
(0.482978 0.546476 0)
(0.514587 0.54757 0)
(0.53792 0.544354 0)
(0.57014 0.545999 0)
(0.588131 0.542892 0)
(0.635659 0.535448 0)
(1.00278 0.609411 0)
(-0.992666 0.679946 0)
(-0.62659 0.588045 0)
(-0.573141 0.598247 0)
(-0.554351 0.600605 0)
(-0.523157 0.594614 0)
(-0.500865 0.594979 0)
(-0.472078 0.589182 0)
(-0.450432 0.588867 0)
(-0.424688 0.587418 0)
(-0.397258 0.585146 0)
(-0.3707 0.586311 0)
(-0.339409 0.584224 0)
(-0.310606 0.585365 0)
(-0.279568 0.585411 0)
(-0.249155 0.587136 0)
(-0.214559 0.588284 0)
(-0.174937 0.589318 0)
(-0.129506 0.59041 0)
(-0.0801285 0.588014 0)
(-0.0263388 0.595562 0)
(0.0265077 0.59546 0)
(0.0803899 0.587754 0)
(0.130013 0.589896 0)
(0.175727 0.588485 0)
(0.215789 0.587139 0)
(0.250569 0.585248 0)
(0.282191 0.583409 0)
(0.312257 0.58141 0)
(0.344651 0.581407 0)
(0.372785 0.578839 0)
(0.406098 0.580205 0)
(0.430339 0.576261 0)
(0.462325 0.578203 0)
(0.484586 0.575029 0)
(0.516277 0.576641 0)
(0.539585 0.574221 0)
(0.571521 0.575659 0)
(0.588075 0.570703 0)
(0.632381 0.561902 0)
(0.969723 0.649393 0)
(-0.956273 0.677787 0)
(-0.614357 0.594738 0)
(-0.56637 0.609455 0)
(-0.5526 0.614964 0)
(-0.5242 0.610333 0)
(-0.502742 0.610189 0)
(-0.473166 0.604127 0)
(-0.452436 0.604058 0)
(-0.423739 0.600957 0)
(-0.398339 0.600222 0)
(-0.369737 0.599648 0)
(-0.340443 0.598606 0)
(-0.311267 0.598386 0)
(-0.280352 0.597652 0)
(-0.247432 0.59828 0)
(-0.211535 0.599588 0)
(-0.171436 0.601031 0)
(-0.126194 0.602355 0)
(-0.0776975 0.599848 0)
(-0.0253876 0.607378 0)
(0.0254186 0.607321 0)
(0.0777718 0.599673 0)
(0.126397 0.602016 0)
(0.171803 0.60045 0)
(0.212219 0.5988 0)
(0.248183 0.596859 0)
(0.28213 0.596102 0)
(0.312352 0.595109 0)
(0.344419 0.596003 0)
(0.371143 0.593362 0)
(0.404501 0.595313 0)
(0.427984 0.591565 0)
(0.460203 0.593799 0)
(0.482126 0.590903 0)
(0.513868 0.592558 0)
(0.536776 0.59003 0)
(0.567135 0.59014 0)
(0.579566 0.581739 0)
(0.619679 0.56857 0)
(0.935845 0.640728 0)
(-0.975834 0.600145 0)
(-0.595005 0.613816 0)
(-0.559927 0.637294 0)
(-0.551305 0.648245 0)
(-0.524219 0.648262 0)
(-0.502297 0.651011 0)
(-0.469373 0.64883 0)
(-0.446769 0.651721 0)
(-0.414515 0.651002 0)
(-0.388379 0.653319 0)
(-0.356795 0.654209 0)
(-0.327672 0.655874 0)
(-0.29696 0.656731 0)
(-0.268159 0.65607 0)
(-0.240422 0.6526 0)
(-0.210985 0.647274 0)
(-0.174689 0.640877 0)
(-0.130904 0.634914 0)
(-0.080919 0.628602 0)
(-0.0258961 0.633294 0)
(0.0258806 0.633277 0)
(0.0809469 0.628522 0)
(0.131013 0.634744 0)
(0.174883 0.640522 0)
(0.211403 0.64672 0)
(0.240874 0.651608 0)
(0.269303 0.655041 0)
(0.297076 0.654634 0)
(0.329874 0.654374 0)
(0.356637 0.650231 0)
(0.391447 0.650378 0)
(0.41555 0.645344 0)
(0.44976 0.645453 0)
(0.472468 0.640903 0)
(0.506626 0.640029 0)
(0.529074 0.63558 0)
(0.557928 0.632391 0)
(0.566597 0.619029 0)
(0.597946 0.594565 0)
(0.970672 0.552683 0)
(-1.02149 1.02482 0)
(-0.560414 0.970502 0)
(-0.632582 0.943631 0)
(-0.640692 0.976587 0)
(-0.60017 1.00941 0)
(-0.581858 1.03217 0)
(-0.536284 1.06068 0)
(-0.512417 1.08254 0)
(-0.466005 1.10655 0)
(-0.438055 1.12683 0)
(-0.391588 1.14668 0)
(-0.360816 1.16498 0)
(-0.315848 1.18113 0)
(-0.282337 1.19739 0)
(-0.239635 1.21148 0)
(-0.203763 1.22599 0)
(-0.163101 1.23718 0)
(-0.122894 1.24619 0)
(-0.0773903 1.2515 0)
(-0.0258777 1.26591 0)
(0.0258514 1.26592 0)
(0.0773716 1.2515 0)
(0.122884 1.2462 0)
(0.163098 1.23719 0)
(0.203788 1.22601 0)
(0.239633 1.21148 0)
(0.282468 1.19737 0)
(0.315874 1.18101 0)
(0.361232 1.16482 0)
(0.391768 1.14638 0)
(0.438751 1.12643 0)
(0.466687 1.10593 0)
(0.513562 1.08161 0)
(0.53786 1.05933 0)
(0.584215 1.03012 0)
(0.603408 1.00641 0)
(0.645955 0.971997 0)
(0.637571 0.936806 0)
(0.566539 0.9625 0)
(1.01929 1.02468 0)
(-1.02149 -1.02482 0)
(-0.560414 -0.970502 0)
(-0.632582 -0.943631 0)
(-0.640692 -0.976587 0)
(-0.60017 -1.00941 0)
(-0.581858 -1.03217 0)
(-0.536284 -1.06068 0)
(-0.512417 -1.08254 0)
(-0.466005 -1.10655 0)
(-0.438055 -1.12683 0)
(-0.391588 -1.14668 0)
(-0.360816 -1.16498 0)
(-0.315848 -1.18113 0)
(-0.282337 -1.19739 0)
(-0.239635 -1.21148 0)
(-0.203763 -1.22599 0)
(-0.163101 -1.23718 0)
(-0.122894 -1.24619 0)
(-0.0773903 -1.2515 0)
(-0.0258777 -1.26591 0)
(0.0258514 -1.26592 0)
(0.0773716 -1.2515 0)
(0.122884 -1.2462 0)
(0.163098 -1.23719 0)
(0.203788 -1.22601 0)
(0.239633 -1.21148 0)
(0.282468 -1.19737 0)
(0.315874 -1.18101 0)
(0.361232 -1.16482 0)
(0.391768 -1.14638 0)
(0.438751 -1.12643 0)
(0.466687 -1.10593 0)
(0.513562 -1.08161 0)
(0.53786 -1.05933 0)
(0.584215 -1.03012 0)
(0.603408 -1.00641 0)
(0.645955 -0.971997 0)
(0.637571 -0.936806 0)
(0.566539 -0.9625 0)
(1.01929 -1.02468 0)
(-0.975834 -0.600145 0)
(-0.595005 -0.613816 0)
(-0.559927 -0.637294 0)
(-0.551305 -0.648245 0)
(-0.524219 -0.648262 0)
(-0.502297 -0.651011 0)
(-0.469373 -0.64883 0)
(-0.446769 -0.651721 0)
(-0.414515 -0.651002 0)
(-0.388379 -0.653319 0)
(-0.356795 -0.654209 0)
(-0.327672 -0.655874 0)
(-0.29696 -0.656731 0)
(-0.268159 -0.65607 0)
(-0.240422 -0.6526 0)
(-0.210985 -0.647274 0)
(-0.174689 -0.640877 0)
(-0.130904 -0.634914 0)
(-0.080919 -0.628602 0)
(-0.0258961 -0.633294 0)
(0.0258806 -0.633277 0)
(0.0809469 -0.628522 0)
(0.131013 -0.634744 0)
(0.174883 -0.640522 0)
(0.211403 -0.64672 0)
(0.240874 -0.651608 0)
(0.269303 -0.655041 0)
(0.297076 -0.654634 0)
(0.329874 -0.654374 0)
(0.356637 -0.650231 0)
(0.391447 -0.650378 0)
(0.41555 -0.645344 0)
(0.44976 -0.645453 0)
(0.472468 -0.640903 0)
(0.506626 -0.640029 0)
(0.529074 -0.63558 0)
(0.557928 -0.632391 0)
(0.566597 -0.619029 0)
(0.597946 -0.594565 0)
(0.970672 -0.552683 0)
(-0.956273 -0.677787 0)
(-0.614357 -0.594738 0)
(-0.56637 -0.609455 0)
(-0.5526 -0.614964 0)
(-0.5242 -0.610333 0)
(-0.502742 -0.610189 0)
(-0.473166 -0.604127 0)
(-0.452436 -0.604058 0)
(-0.423739 -0.600957 0)
(-0.398339 -0.600222 0)
(-0.369737 -0.599648 0)
(-0.340443 -0.598606 0)
(-0.311267 -0.598386 0)
(-0.280352 -0.597652 0)
(-0.247432 -0.59828 0)
(-0.211535 -0.599588 0)
(-0.171436 -0.601031 0)
(-0.126194 -0.602355 0)
(-0.0776975 -0.599848 0)
(-0.0253876 -0.607378 0)
(0.0254186 -0.607321 0)
(0.0777718 -0.599673 0)
(0.126397 -0.602016 0)
(0.171803 -0.60045 0)
(0.212219 -0.5988 0)
(0.248183 -0.596859 0)
(0.28213 -0.596102 0)
(0.312352 -0.595109 0)
(0.344419 -0.596003 0)
(0.371143 -0.593362 0)
(0.404501 -0.595313 0)
(0.427984 -0.591565 0)
(0.460203 -0.593799 0)
(0.482126 -0.590903 0)
(0.513868 -0.592558 0)
(0.536776 -0.59003 0)
(0.567135 -0.59014 0)
(0.579566 -0.581739 0)
(0.619679 -0.56857 0)
(0.935845 -0.640728 0)
(-0.992666 -0.679946 0)
(-0.62659 -0.588045 0)
(-0.573141 -0.598247 0)
(-0.554351 -0.600605 0)
(-0.523157 -0.594614 0)
(-0.500865 -0.594979 0)
(-0.472078 -0.589182 0)
(-0.450432 -0.588867 0)
(-0.424688 -0.587418 0)
(-0.397258 -0.585146 0)
(-0.3707 -0.586311 0)
(-0.339409 -0.584224 0)
(-0.310606 -0.585365 0)
(-0.279568 -0.585411 0)
(-0.249155 -0.587136 0)
(-0.214559 -0.588284 0)
(-0.174937 -0.589318 0)
(-0.129506 -0.59041 0)
(-0.0801285 -0.588014 0)
(-0.0263388 -0.595562 0)
(0.0265077 -0.59546 0)
(0.0803899 -0.587754 0)
(0.130013 -0.589896 0)
(0.175727 -0.588485 0)
(0.215789 -0.587139 0)
(0.250569 -0.585248 0)
(0.282191 -0.583409 0)
(0.312257 -0.58141 0)
(0.344651 -0.581407 0)
(0.372785 -0.578839 0)
(0.406098 -0.580205 0)
(0.430339 -0.576261 0)
(0.462325 -0.578203 0)
(0.484586 -0.575029 0)
(0.516277 -0.576641 0)
(0.539585 -0.574221 0)
(0.571521 -0.575659 0)
(0.588075 -0.570703 0)
(0.632381 -0.561902 0)
(0.969723 -0.649393 0)
(-1.02602 -0.634896 0)
(-0.632774 -0.562901 0)
(-0.574411 -0.574612 0)
(-0.553326 -0.575576 0)
(-0.520627 -0.569483 0)
(-0.497749 -0.570781 0)
(-0.469608 -0.565629 0)