/*--------------------------------*- C++ -*----------------------------------*\
| =========                 |                                                 |
| \\      /  F ield         | OpenFOAM: The Open Source CFD Toolbox           |
|  \\    /   O peration     | Version:  v1912                                 |
|   \\  /    A nd           | Website:  www.openfoam.com                      |
|    \\/     M anipulation  |                                                 |
\*---------------------------------------------------------------------------*/
FoamFile
{
    version     2.0;
    format      ascii;
    class       volVectorField;
    location    "0.00013";
    object      momentumMean;
}
// * * * * * * * * * * * * * * * * * * * * * * * * * * * * * * * * * * * * * //

dimensions      [1 -2 -1 0 0 0 0];


internalField   nonuniform List<vector> 
1300
(
(-1.316489398 2.461191421 -0.518903415)
(-0.1474510302 2.085064188 0.4430509714)
(18.87287509 2.539210851 0.3513876787)
(89.9889161 4.274481186 -0.8069452651)
(45.48443521 3.258173255 0.5566677542)
(16.84269964 1.219225755 0.3925388452)
(31.24748371 -0.8987220657 -1.045506835)
(39.32635558 -0.7656665444 -0.2996701938)
(24.75289978 -0.1126230481 -1.71690949)
(25.40920625 -1.501756641 1.514029585)
(-1.743238411 4.731987038 0.1942591287)
(0.6144572774 5.457149189 -0.3254704325)
(34.69609971 10.01273358 -0.1209449059)
(167.974402 26.08061728 -1.226511152)
(81.45842426 14.01161263 0.7920190594)
(31.55612373 7.90947556 -0.9322326186)
(59.93984599 10.37082096 0.09639309207)
(70.1733033 9.241716624 0.1066808939)
(44.22002991 6.690498988 0.5304155167)
(36.18635786 6.10172164 -0.09826902855)
(-1.020617374 2.954212634 -0.1374848365)
(0.5891596253 3.283172421 0.05557836284)
(37.49133848 9.210235874 -0.2149087794)
(189.1475151 27.32020425 -0.838222174)
(94.82567221 14.54558079 -0.3645623464)
(36.38843098 10.11107348 0.6038206377)
(80.49504053 16.32261412 -1.410815206)
(108.2155953 16.58152407 -1.238883803)
(69.10967918 13.07967949 -0.4219292424)
(58.6785462 10.55854701 -1.469526076)
(-0.5368000421 2.12063332 -0.05828400494)
(0.6471510843 2.04067022 -0.03306934986)
(35.42752276 6.625199863 -0.3253782207)
(177.6458225 26.33747902 -1.036036472)
(86.61291027 13.48242485 0.0496089425)
(37.72436849 9.105687485 0.6933191448)
(88.12379212 18.64075957 -0.5685816053)
(131.1951414 25.32557121 0.4760847058)
(83.01754948 15.64481184 -0.4824789914)
(71.83097838 15.18743012 0.01008061199)
(-0.3044259398 1.219489778 -0.1170813352)
(0.5473154422 2.004434218 0.04432711664)
(36.8143375 6.74180108 -0.7366369109)
(175.2974911 25.07472324 0.4503183846)
(92.3128869 11.71023086 0.01931194185)
(35.36510933 7.325333086 0.3933115376)
(82.10167377 14.86858011 -1.106396597)
(123.129783 20.71480903 -0.4388039311)
(94.60806561 16.90313088 -0.006485093882)
(79.2082977 17.89729926 0.4342183993)
(-0.1467959379 1.240949028 -0.09564766069)
(0.3679359356 1.001968734 0.1277196391)
(35.4764552 6.391600339 -0.1361901552)
(182.3070692 26.56790854 -0.5842076616)
(88.56098717 12.04104345 -0.1010154349)
(33.3898301 5.631207781 -0.9020021322)
(84.30057278 14.29278881 0.03906161075)
(113.1532879 17.15175671 0.5176659799)
(92.84216459 15.99636071 0.3900285356)
(76.31307116 14.3411708 -0.007259544503)
(-0.1253251642 0.7777447528 -0.0427319532)
(0.6349570206 0.9347320619 -0.03991898116)
(35.65424309 8.16558682 0.4345152889)
(177.6384105 25.03942502 0.08660731381)
(86.47904713 10.87576315 0.739795451)
(28.04872262 5.05160364 -0.1245969951)
(81.9333161 12.809684 -0.1244357805)
(114.2017634 17.26084845 -1.147373364)
(87.36560817 12.68476994 -0.487231706)
(75.52380501 13.87968062 -0.3022998763)
(-0.1226493679 0.774561262 -0.04131861508)
(0.6661665592 0.7208181712 -0.07243851587)
(39.44266413 7.680899372 -0.1217622268)
(177.3671961 25.24191174 -0.28408033)
(87.39097508 11.69695119 0.4204943284)
(34.04609457 5.790055337 -0.1317530663)
(79.37973396 12.06420003 0.3784492853)
(116.2924495 16.43182877 -0.05074335742)
(81.14144885 11.21949423 -0.4098675203)
(72.19297422 11.52218543 0.1485458781)
(-0.02715956741 0.4353739844 -0.06572969664)
(0.8336242865 0.6086917988 -0.109255292)
(36.83305531 7.273872484 -0.4342544847)
(182.3780821 25.95556325 -0.0939565402)
(90.22020811 11.93001066 0.4894387643)
(34.12333849 6.113767688 -0.09451146279)
(85.67358546 13.25565779 -0.4742692759)
(110.9636942 15.51190029 -0.6555972871)
(87.16168422 12.35156931 0.8827027627)
(69.84755085 10.26470836 0.1869224074)
(-0.04416262628 0.353784788 -0.09637579472)
(0.5737410351 0.5483053888 0.03451485476)
(34.18646546 6.822456094 -0.137499247)
(176.3994871 25.79710352 -0.947963511)
(88.24392357 10.54616875 0.8866032026)
(32.66490726 5.492233119 -0.08141980835)
(75.60630633 13.24706964 0.02036280613)
(118.0481315 17.17450674 0.02598425291)
(89.30246384 12.34901331 0.366512778)
(63.42990387 9.532155885 0.08448166122)
(0.00475889999 0.3660115885 -0.06309298077)
(0.9871092773 0.5060669162 -0.06644508065)
(38.1612657 6.490030769 0.3365620149)
(182.0241145 26.59202396 -0.410269738)
(86.47828851 10.34399172 0.003451110964)
(34.5190061 5.920074068 0.1598822033)
(79.18722999 12.64661369 -0.5942047297)
(120.2531559 16.83199172 0.0593706929)
(83.40713602 11.34479662 -0.2346669313)
(73.66701102 11.83657907 0.2204893626)
(0.04664196505 0.2659523116 -0.0652077869)
(0.6992830102 0.481408172 -0.03026270885)
(37.17830522 7.424277415 0.4732032797)
(174.074613 25.20908163 -0.4065301363)
(89.98288105 10.52329857 -0.2176216514)
(30.27195151 5.739448098 0.1664028802)
(82.36853832 13.3979562 -0.06063371712)
(115.7053181 16.11484094 -0.102796578)
(81.89497132 11.79655171 -0.3558272556)
(74.42909318 11.2522322 -0.4637461131)
(-0.02507347874 0.2126621756 0.006087764957)
(0.7577518621 0.2454457367 0.09803024712)
(34.90167813 6.444630592 -0.6472318066)
(181.5984414 24.78162657 1.171544398)
(89.88373569 11.12690377 0.5070382563)
(33.05580822 6.044425077 -0.10788012)
(80.4119292 11.77663402 0.1371600973)
(120.2875166 16.76842122 -0.2463983447)
(83.07376844 10.67117736 1.403101863)
(73.4561756 10.21666709 -0.005279436346)
(0.001797810159 0.1136736845 0.01541509085)
(0.4098637002 0.3239461973 0.003497009551)
(36.12163075 6.543840972 -0.734379952)
(178.5774628 24.75073545 -0.1137768565)
(86.84072612 9.88643186 -0.9958795946)
(31.62233559 5.943967499 -0.6966155136)
(79.58388624 12.21476558 0.515927367)
(116.0694108 16.4765718 0.311541308)
(82.35915782 11.51613827 0.4311229019)
(69.6572227 10.8832609 -0.05244210839)
(0.001265010826 0.1152922529 0.01524365126)
(0.5027642738 0.2073759105 -0.1161419856)
(36.32495975 6.575866726 0.2090720129)
(172.4665662 25.04337297 -1.25017118)
(88.89323666 11.37261107 0.05110025604)
(30.86153926 4.956397111 0.2284125177)
(77.45925495 12.59759174 -1.389751272)
(114.8825847 16.2627761 -0.0997001747)
(88.05734276 11.81149414 -1.333649554)
(65.15970228 9.444177444 -0.2807452702)
(-0.004777968371 0.2256844417 0.01770156569)
(0.8143636661 0.3360675628 0.01991786957)
(38.01705685 6.703577704 -0.009331715109)
(184.3278164 26.03144388 -1.89181155)
(84.75575361 10.50274934 0.04436782491)
(32.48245391 5.775185565 -0.1403921526)
(83.62893657 12.56764866 -0.1935770727)
(110.7098315 14.51721432 -0.6670044002)
(84.03287652 11.28471189 0.2138529375)
(70.14846823 10.34616011 -0.04452873565)
(-0.03051857434 0.1398206568 0.02713463152)
(0.4726206233 0.1997424554 -0.05280532477)
(37.05355606 6.581389619 -0.3375528645)
(174.8413873 26.81043842 4.690632404e-05)
(84.92624304 9.974527177 -0.003676465733)
(35.80116545 5.845715588 0.1497344346)
(83.81813516 12.84388424 -0.714640401)
(111.0463205 15.60103421 -0.9277150067)
(83.58944883 10.9856197 0.1827368684)
(72.8730154 10.51796558 -0.5369037697)
(0.001265010826 0.1152922529 0.01524365126)
(0.2292019166 0.1764623569 0.02637841665)
(37.49594652 7.209420806 -0.2850507462)
(175.9005387 24.50220231 -0.5272641019)
(89.12322216 9.966119424 -0.8370734824)
(34.26084956 6.573857861 -0.6423213761)
(79.98423649 13.47253458 0.237688137)
(112.3184648 15.92382761 0.04148809702)
(84.73010881 11.75931468 -0.5144678616)
(69.35085292 10.12805918 0.4947597359)
(0.001961977335 0.05976427385 0.006359652476)
(0.6407547759 0.1644323964 -0.0007941709097)
(37.74901692 6.867280216 -0.688439677)
(183.2395828 26.8911918 -1.287014723)
(88.81728473 11.01371312 -0.1700711279)
(35.82648529 6.229835669 -0.0146341104)
(74.44077739 11.81216636 -0.8263223398)
(113.2192005 16.41739635 -0.00401277481)
(87.56737192 11.16665307 -1.232223938)
(68.55223734 10.90129115 -0.9119183608)
(-0.0001641671756 0.05390941065 0.009055438372)
(0.4049512699 0.1942366056 -0.05624313613)
(33.09230582 6.755112578 0.5455296531)
(168.2464426 27.34172428 0.3530808974)
(81.09896422 10.4309848 0.4420138866)
(37.21876318 5.474577054 0.2430793079)
(78.16502879 12.93246328 -0.4554217374)
(113.016976 17.19876565 -0.2621720213)
(85.43004771 12.07669726 0.6304747582)
(73.55722489 10.84625078 -0.5858427362)
(24.53094541 0.1204263111 -0.9321304344)
(21.91076845 0.4606059202 0.2006711854)
(22.04217021 0.6998326295 -0.5341856073)
(19.80821667 1.291767216 0.3481199964)
(20.55766821 1.458043915 0.02508591014)
(17.97226594 1.476987573 0.1124529787)
(19.8330044 2.667040046 -0.2957851777)
(21.68253046 1.42596008 0.7603548806)
(18.02916125 1.829818098 -0.3516936642)
(20.40639942 2.089218911 0.4188433187)
(19.69135097 1.626318532 -0.3903280971)
(22.01229835 3.92921386 0.1320443889)
(20.4739848 2.732052526 0.406416604)
(20.58219518 2.461722512 0.2491541434)
(21.38411663 1.612318145 0.6656104798)
(20.88005474 3.045812663 -0.288467457)
(22.46032765 2.678614021 -0.4751402324)
(19.96451892 3.683643704 0.1047304219)
(21.03572912 3.481456342 0.7622797182)
(17.33222139 3.26844519 0.06733685593)
(19.19926179 2.47741761 -0.4419384069)
(19.71058596 5.1108232 0.212668208)
(19.38988592 3.02574963 -0.09288073285)
(17.85693504 4.533621852 0.8330232848)
(19.46619861 3.496072906 -0.6170484191)
(16.67832317 4.051642979 -0.2515219935)
(18.29924548 4.269402813 0.574121052)
(19.66612226 5.703566024 0.6958300393)
(17.09053362 6.089188749 -0.1110610672)
(19.53866719 4.761942351 -0.05915532664)
(37.94126339 4.151844719 0.7340329555)
(34.10052347 2.255802608 0.0001251512105)
(29.5763728 2.5734573 -0.6694339217)
(29.69402013 2.071892571 -0.04406511966)
(27.68664378 1.103964643 -0.4683681176)
(27.06828616 2.034440748 0.6165893045)
(25.62975178 2.217110599 0.2350042801)
(26.49986155 2.335503366 0.5296454893)
(27.0279717 2.728515652 -0.3889807516)
(24.62906544 2.327663739 -0.5483214283)
(25.47733428 2.100955678 -0.4577590579)
(22.69350645 2.379701107 -0.4564373088)
(27.62755861 3.973635474 -0.3677860209)
(22.62310227 2.717654722 0.06223964563)
(25.93830745 2.610110462 -0.8494399705)
(23.86820799 3.582752401 0.2029955431)
(22.9849494 4.464311463 0.9375844278)
(23.13275087 2.815329687 -0.04678702143)
(23.88573018 3.463954464 0.5530291607)
(25.06605096 3.167051808 0.824192747)
(22.19604867 2.575235313 -0.6945714613)
(22.26217483 3.915550727 0.1209419359)
(22.69393289 5.3357483 0.2617649052)
(21.41457507 3.6256939 0.1601788522)
(20.26013829 3.786181528 0.1836766548)
(21.66169893 4.860718034 -0.06930336041)
(22.05710575 4.52450138 0.3373373107)
(19.38508519 5.490043775 0.9358353631)
(19.61655519 5.220167335 -0.9477674966)
(21.06758026 5.660156253 -0.5656894633)
(60.04214424 7.863037033 0.2131308359)
(56.71232217 6.653246008 -0.4333326445)
(46.17517613 5.575193659 -0.8690775482)
(40.98710867 3.355849127 -0.06136635163)
(42.65154266 4.210155098 1.257854511)
(38.19753715 2.948385841 -0.7157038044)
(34.0987919 3.689661207 -0.0665127784)
(33.67821721 3.173981794 0.8632908591)
(33.34273552 3.403796707 -0.2020043542)
(30.39908945 3.258445549 -0.08192561197)
(30.83554931 3.1363519 0.1340338302)
(31.17131702 3.495666801 -0.7760157209)
(28.52111589 2.712527352 -0.2213021497)
(28.60149855 3.800029542 -0.9002110193)
(30.12934721 3.485523326 -0.5897220683)
(27.93474295 3.80068772 0.07007363238)
(28.20746534 3.987843056 -0.267642263)
(28.72282451 3.678675482 0.2106190898)
(28.29857701 5.284071514 -0.9169653504)
(26.48017163 4.276577616 -0.05514168591)
(26.84033884 5.606354535 -0.2448407579)
(26.41634945 4.990217865 -1.115435732)
(23.43680421 4.678395416 -0.7243317326)
(24.51503178 4.666274844 -0.578763395)
(24.14457758 5.26205009 0.7991609186)
(22.38754613 3.865506149 0.3090645808)
(22.9136899 5.376758037 1.288914711)
(23.09739432 4.487451435 0.2989716354)
(24.81855745 5.537255813 -0.4321454072)
(23.38225841 5.298695358 0.3780773475)
(81.10859675 14.95028115 -1.197590119)
(77.71842681 12.18751618 0.4645033256)
(61.84596097 9.159589018 -0.9068345843)
(59.72217091 7.578111833 0.01147236785)
(59.19974995 5.474823477 -0.8124705739)
(49.03089959 6.287945605 -0.04717682628)
(47.7436223 6.162271706 -0.4204417754)
(47.56442127 4.322399944 -1.046128169)
(41.96112528 5.066877843 -0.2592126388)
(40.60280794 3.884897948 -0.1491667058)
(40.29503599 3.73691276 -0.711240559)
(37.78089291 5.217483549 0.2711439309)
(37.26093804 3.461009948 0.5425485609)
(37.13792011 4.493257123 -0.8499942469)
(33.65304482 5.458776347 -1.055773703)
(33.19452911 3.082172242 0.2290700147)
(33.1307274 4.691667395 -0.1643467932)
(31.08897344 4.855644415 -0.8618193981)
(32.55846458 5.21999206 0.104003908)
(31.60568592 4.222793346 -0.5169402279)
(32.75602255 6.555783561 -1.070337186)
(28.86990413 6.001954 -0.9789835806)
(30.53571662 4.637698592 -0.836675658)
(31.38157627 6.08517404 -1.142325553)
(30.49183567 5.765599156 -0.6253985544)
(26.08078864 3.694336755 -0.1816802517)
(28.03340219 5.241456592 -0.3070762038)
(30.2539036 5.551360081 -0.2439751919)
(26.64214373 5.603387426 -0.2065791745)
(29.58330916 5.151545486 -0.1775349828)
(101.1558408 21.62216566 -0.6797372523)
(95.38441154 18.14608652 -0.9320918972)
(80.80933421 14.4672912 0.1534084857)
(78.06234975 12.84257184 -1.551783554)
(69.21137716 11.24159775 1.004357637)
(66.20567698 8.375012745 -1.134361005)
(61.6488895 9.323942727 -0.746776678)
(58.06597378 8.310672002 0.2699807546)
(56.79613986 7.244690439 -0.4137442269)
(48.64927605 6.471550496 0.4458888713)
(45.31043798 5.456031133 -1.207781449)
(47.5263823 6.094268983 -0.2877806275)
(43.11572831 5.028997485 -0.2187156585)
(39.69669768 5.000501755 0.2855683038)
(39.98250183 4.596953957 0.1408319251)
(40.57218396 5.704215218 0.1551105471)
(40.39946013 5.082586938 -0.6580998838)
(37.55659734 4.988598193 -0.8138419959)
(39.19474731 5.686360845 -0.1369808164)
(35.98585436 4.472495023 -0.975850099)
(36.24110961 5.237569673 0.09635968346)
(37.87244515 6.278068073 -0.3516773281)
(34.11265549 5.255752763 -0.4216878169)
(35.15883397 6.96062065 -0.5210023574)
(33.15451053 5.936916109 0.3122888229)
(34.69248765 5.381714291 -0.2294577952)
(33.71859793 6.356355832 0.2755753672)
(31.40870266 5.653306655 -1.230620838)
(27.85295867 4.26202073 -0.03959086538)
(30.546338 5.850142588 0.5984811154)
(92.22307167 18.79886682 0.3797409813)
(106.9542094 20.84871275 -0.5412612892)
(92.10403099 19.24357353 -0.9040752258)
(91.37578121 18.38464048 0.9775167268)
(86.6244937 15.21313238 -0.2393318677)
(81.01140769 14.05104173 -0.3882376082)
(73.81821792 12.1136508 0.6507039313)
(67.25161439 10.57042247 -0.02418226246)
(64.89331691 9.565987405 -0.1394762085)
(63.12816975 9.600879642 -0.3307377374)
(59.97867263 8.141542148 -0.1618138569)
(56.1522292 8.048493745 -0.6107651829)
(51.9856367 7.374067617 0.149651581)
(53.7959704 6.993258325 -0.1531160874)
(49.66322116 6.723607031 -0.2743700853)
(46.98725168 7.634646771 -0.7967308969)
(50.00575514 6.654013086 0.08043615126)
(43.03446872 5.940726964 -0.6654030971)
(42.8139831 7.623825539 0.313837344)
(44.26940828 6.566489873 0.74738665)
(41.91653823 5.886482891 0.4319161924)
(40.46970535 6.32474842 -0.7878882678)
(40.49235149 6.849405488 -0.4140680077)
(38.76736107 7.343306515 -0.1161985602)
(40.98092476 6.748486931 -0.32847332)
(38.11204908 6.519773501 -0.7669770978)
(38.77809213 6.318304437 -0.3119618317)
(37.25144252 7.378896501 -0.2419631115)
(34.1258356 6.52506412 0.205335358)
(38.96137492 7.29471206 -1.521401581)
(81.87896865 14.84449146 -0.001791820698)
(98.44797829 18.53127178 -1.01215358)
(97.62951338 19.99373033 0.6392804245)
(95.08942007 20.93029126 0.2066956754)
(95.71563672 20.01127054 0.779808616)
(93.23737366 17.44803808 -1.24185101)
(86.07131477 16.25856071 0.3761945477)
(81.75162795 14.50236594 0.01452184929)
(81.24481368 13.21613189 -0.9336042976)
(76.99798156 13.69477091 -0.3379982083)
(71.82136021 10.00206915 0.3933499203)
(66.15153654 10.36959627 -0.2633913045)
(60.8002091 9.690982807 -0.5513633972)
(62.09600734 9.703620862 -0.6291878104)
(57.39209012 8.218279 0.08277984316)
(57.06552731 7.454988373 -1.074130345)
(52.21936356 7.024923739 -0.7045946328)
(58.93095549 8.057590972 -0.5222214177)
(49.41808061 6.857804269 -1.150324924)
(49.31234307 7.075184045 -0.9838161579)
(52.6818951 6.881031067 0.03758173418)
(47.50763851 7.54071089 0.343244877)
(45.39927654 7.799291962 0.4977559294)
(44.34213994 6.516377352 0.227221936)
(44.91585463 6.82290607 0.1479353482)
(43.43568789 7.204864022 -0.7475406048)
(41.6212635 7.44004295 0.2455389581)
(41.89567922 7.497104564 -0.7354140829)
(44.20147417 7.24877644 0.3643222719)
(38.77272203 6.59661662 -0.5057677449)
(87.94056109 13.72718253 -0.3432028609)
(93.71637588 15.34419917 -1.003672869)
(96.91942411 16.78742831 0.6220563768)
(90.62506361 16.81719836 -0.5648462127)
(99.87322894 21.016138 -0.4495583702)
(106.4691814 21.55283648 -0.03856025234)
(99.77354523 19.23809461 -0.6448396467)
(93.58016406 17.36420613 0.4497428935)
(93.99292527 17.85671698 -0.1006626656)
(88.75263347 15.52579971 -0.177526629)
(81.90729899 14.59187385 0.2810833948)
(78.97208332 13.16673899 -0.3202365454)
(79.28668047 12.68564575 -0.4912204219)
(72.18422041 11.29655102 0.3072754965)
(68.31354556 10.75201354 -0.5090147768)
(69.0426221 10.51682683 -0.1683106269)
(61.65807845 9.076879806 -0.9565226452)
(63.81280271 8.954179189 -0.3251519724)
(57.56383691 8.968434911 -1.128139043)
(55.98383452 8.601015099 0.0138250884)
(55.5974681 7.996248306 -0.3561897912)
(60.37595402 9.328810044 -0.7184408991)
(51.95617924 8.513288912 -0.7102630323)
(54.52035489 8.434267702 -0.7584377523)
(51.95325696 9.468172868 -0.5992573202)
(49.63221264 8.52462541 -0.4088948469)
(45.27747105 7.88062119 -0.2276860114)
(48.59068824 8.046584335 -0.5783377771)
(45.71410663 8.112259444 -0.4570858985)
(45.36149719 7.943019342 -0.911516077)
(84.04523727 12.74820467 0.007760813276)
(91.38594985 15.02264859 -0.03710241828)
(83.29569067 14.39382469 0.2242660459)
(91.47645557 15.333366 -0.4499892471)
(87.80094344 16.53256117 0.5898297486)
(97.23038168 18.39595597 -0.4649653284)
(99.8518924 20.24946138 1.029753173)
(97.11436285 20.13591041 -1.001618553)
(98.07549572 18.50976693 0.242412248)
(92.62660392 17.77361254 -0.5959550136)
(89.90668686 16.30402974 1.169849004)
(92.38517437 16.8496663 -0.21466036)
(83.2514954 14.59413938 0.1916421489)
(80.29317131 14.29479919 0.2469309488)
(82.78170851 13.43855212 0.01033603734)
(79.39493634 12.29377833 0.9595060291)
(74.2331042 12.00298067 -0.2195359318)
(69.25513236 10.82878487 0.2978829538)
(72.36286202 10.28486559 0.8452720471)
(65.1903879 9.780455163 -0.4187384478)
(65.97720504 10.8595729 -0.4951058124)
(62.39967889 9.650400842 0.2927301226)
(61.96210127 9.63970238 0.4044396265)
(59.12813575 10.52351822 -0.05571806489)
(62.48971818 9.757073194 -0.2615968825)
(57.15004735 8.781553242 0.04192321277)
(57.67421357 10.27276169 -0.7438200909)
(52.92796368 9.537145965 -0.1351746878)
(58.05102889 8.661071493 0.8738317841)
(48.72825249 8.920461342 0.1706691911)
(77.8424403 11.31974576 -1.070505752)
(95.03367126 14.4018332 0.5347325482)
(82.64147232 12.17735994 0.5035709671)
(80.19198027 13.5483171 -1.029572753)
(89.35238027 15.18378435 0.5820805503)
(90.71587034 16.34971387 0.2201306455)
(96.03930835 16.98009621 -0.8913302744)
(93.38476146 18.19758248 -0.2582662452)
(95.90305571 19.05707054 -0.2033057411)
(107.3165101 21.70260263 1.405793721)
(94.44418801 18.86731543 -0.09771285604)
(95.2227798 18.2373993 0.520399352)
(99.26104357 18.23164274 -0.4471360505)
(88.45795704 15.42903445 0.5393000448)
(87.05387545 16.7719734 1.362675623)
(83.12725573 13.89973916 -0.6230985674)
(83.66839075 13.76906645 1.226493183)
(75.87081844 12.4750543 -0.01660535082)
(81.74467781 13.52665909 0.07338638875)
(74.56070321 11.80792334 0.2338741642)
(71.43552735 11.44465517 0.0488784172)
(69.40315954 11.45158991 0.2936033334)
(70.65451381 11.37738571 -0.2203371181)
(67.08143944 11.07617595 0.1558765163)
(67.55117501 10.599002 0.6373635067)
(61.80109228 10.17255474 0.4630912993)
(61.61838677 10.79467232 -0.7896378698)
(62.27383971 11.03544845 -0.4251960809)
(62.38716488 11.6015375 0.4273434309)
(59.98749217 9.92745259 -0.3061917526)
(83.32809881 13.10439906 0.06803106129)
(93.79061928 12.69245807 -0.1788781687)
(84.57361224 12.06994896 -0.02574099579)
(84.84579387 13.00251444 -0.0788922913)
(86.8776036 13.05312498 0.3702071189)
(90.4364377 13.54168201 0.9871519497)
(88.5433692 14.79377461 -0.5206113585)
(93.91432528 16.67926788 0.9530942055)
(94.76384638 16.63223495 -0.2618238274)
(99.57474346 18.1979458 -0.7568783935)
(95.02406463 18.52856472 -0.5552208797)
(98.59498364 19.7297961 0.4724016739)
(103.4513915 20.11424465 -0.1770452015)
(97.90427949 17.68415403 0.715228338)
(95.60466802 18.86870237 0.7360986598)
(92.40278407 16.51215671 0.03905548711)
(95.26359009 16.97227204 0.2344273096)
(88.85791622 14.80056531 0.8424841557)
(84.9407544 14.9566511 0.1588345132)
(83.1586979 14.00292251 0.1731641122)
(75.79179931 12.15654172 0.7834955393)
(83.25028999 13.39241369 0.6465839174)
(75.90889123 12.48198514 0.4479810512)
(71.10311737 11.41313049 -0.6509519397)
(73.6404999 13.33711054 -0.1248780458)
(74.99326904 12.32206781 -0.477080044)
(71.66368469 11.39553854 0.2300876557)
(67.17261279 12.12266502 0.2462870109)
(65.88085851 11.58975539 -0.1212994885)
(69.71863062 11.82017582 -0.1908857869)
(79.57589425 11.25545598 -0.504059207)
(94.38019881 13.43454207 -0.09738621914)
(84.69090468 12.52920701 0.06946579989)
(84.24361398 12.64903379 -0.9713400155)
(84.5004514 12.76164402 -0.2480657173)
(88.58641967 13.15327291 -0.2879105325)
(84.86924541 12.95029433 -0.174448258)
(84.0067613 13.43298329 -0.1244817837)
(92.77852095 15.969276 0.33749008)
(92.0573834 17.41418522 -0.7753934256)
(94.44978552 17.81480696 -0.4815135167)
(97.38989168 19.26103167 -0.3604349671)
(101.1542465 19.75248436 -0.3110500176)
(95.31688521 17.63499592 -0.3608684707)
(96.10520903 18.88411307 -0.3769629169)
(100.9798621 17.6738659 -0.2743755563)
(95.71606047 17.97860374 0.3409297688)
(90.53536148 16.1457297 1.102221789)
(96.35358703 17.09935446 -1.031383796)
(89.50410566 15.57531907 1.377201718)
(89.83528574 15.71414628 0.4098207487)
(83.59706343 14.41234624 -0.1465509354)
(84.05171396 12.4351553 0.5346470243)
(84.38283096 14.8959012 0.2946079789)
(78.79400273 12.88240302 0.2827365641)
(81.58929461 13.4520593 -0.2815082601)
(76.86375975 13.24290964 0.09096646944)
(74.07676785 11.92581018 -0.7788449997)
(77.21007387 12.71200961 0.398478385)
(72.43813252 13.34874585 -0.549186828)
(83.77288109 12.19480907 0.1516431201)
(89.71183819 12.34843394 0.05669959983)
(82.54230581 12.75183647 -0.5282720131)
(81.86989777 11.91157708 0.2153932034)
(85.9160794 12.4249924 -1.13296609)
(89.01866571 12.94258492 -1.060831245)
(86.31477102 13.52894083 -0.2591451384)
(82.01902078 12.80132554 -0.9993739181)
(95.88449571 14.53295664 -0.5097331492)
(92.88296283 14.81451952 -0.7731391351)
(89.56967934 15.19614844 0.1430557778)
(98.47893613 15.72462677 -0.3692337446)
(93.72370671 16.56724359 -1.389920163)
(100.0125392 19.42748367 0.06778980391)
(98.89971612 19.27564586 0.4806775904)
(102.8432517 20.28855494 -0.2832515152)
(99.21107091 19.72475062 0.6745656402)
(96.64449795 18.91446062 -0.869452116)
(93.16923119 16.75106922 -0.01688465301)
(99.35740211 18.80884172 0.05184078288)
(90.79298825 16.5782113 -0.1257593099)
(92.53254935 16.1612632 0.5657963853)
(89.03499131 14.9191375 -0.4551027574)
(83.69195345 14.76190407 1.149031856)
(86.75584882 14.67640029 -0.533195599)
(80.51662653 13.83070494 0.658556711)
(81.33581688 14.14701182 0.3807718562)
(77.49757147 13.4671167 0.7531183469)
(81.44947772 14.46343349 0.8870793149)
(77.47824506 13.31542765 -0.266588325)
(82.274885 12.39138234 -0.6722079022)
(96.28270552 14.40749045 0.3419804955)
(81.47747027 12.33940431 1.365247162)
(80.96915463 11.14605057 -0.4010157759)
(81.28776042 11.58170448 0.6047191688)
(85.53692669 13.37356055 0.8851304922)
(87.10575195 13.05928732 0.4386479929)
(79.50021468 11.29449041 0.4308554031)
(84.27422445 12.35319717 -0.248218898)
(93.02899994 15.02242891 0.5302618731)
(81.76331672 12.37026863 -0.2126613695)
(86.128604 15.13112688 0.1122776542)
(93.6224721 16.0039214 -0.579867522)
(88.78938477 16.30234225 0.4317950761)
(99.99577598 19.36170938 -0.3160058107)
(92.95545086 17.41591704 -1.084632039)
(98.18774677 19.43116042 0.2201521462)
(102.24341 19.85414629 0.00982056314)
(97.29200256 18.86068675 -0.1812931661)
(95.8350971 17.59031089 0.04877907875)
(98.42655815 18.64084765 -0.3559401409)
(93.44077351 17.37429032 -0.4420019025)
(92.70304654 16.57728262 0.07055563587)
(95.05888762 17.01659512 1.563594733)
(85.52117015 14.95761432 -0.1291515441)
(89.37289851 15.16618931 -0.4680470341)
(90.12772099 15.55047371 0.7702660332)
(87.60276531 16.31834956 -0.5775051863)
(86.98217737 13.8700576 0.1472667839)
(81.72909146 15.49691205 0.4505346214)
(79.60312699 11.63482836 0.06761444161)
(89.78855583 12.50824812 -0.4845060794)
(84.41349571 12.28453015 -0.197394731)
(80.95753767 12.09989879 -0.2787964293)
(85.25284789 11.81035423 0.3211257954)
(86.140883 12.64643701 -0.5273644564)
(84.79329571 11.67465887 -0.5368212877)
(84.1010286 12.86336243 0.5849558173)
(88.33753826 12.80825089 -0.3821611375)
(84.39404946 11.77454585 -0.2339947981)
(83.32673471 13.51427654 -0.5400505422)
(89.65336844 13.09901475 0.3423509953)
(94.88057697 15.95051661 0.05954013457)
(84.43232695 13.63443798 -0.5831276273)
(94.83711581 14.75513795 0.1084714926)
(93.6327039 16.48233281 -0.2986490614)
(92.6738668 16.87265973 0.490289122)
(105.2874853 19.91241578 -0.0669147351)
(97.30583507 18.23317063 -0.4296619758)
(98.06327914 18.1828305 0.1282212394)
(103.6756068 19.27936805 0.2521616344)
(93.37061681 17.3376371 0.1821773145)
(95.93511179 18.47761859 -0.128806595)
(96.48447015 17.35153286 -0.6835019508)
(98.20335018 17.33711206 -0.4658565822)
(88.33097659 15.64248098 0.9418502545)
(84.74660895 15.02502817 -0.3365030603)
(91.14630251 17.01469706 -0.4093285993)
(84.85296263 15.0316572 0.09586960671)
(90.87379633 16.41054512 0.1053982131)
(84.75609368 12.71155649 -1.088618956)
(92.09545597 12.13578642 -0.7311385615)
(84.52491219 12.011316 0.8204507807)
(80.7728269 11.67575281 -0.6914628076)
(87.0019123 12.71072966 -0.2601215596)
(91.37783942 13.12447045 0.281515742)
(77.49091372 11.16875606 0.06245723271)
(83.81021324 12.56421754 0.2586840797)
(89.49275822 13.28218376 -0.2788071905)
(85.52191631 13.37305253 -0.2278240633)
(81.02810729 11.99257692 0.551427694)
(83.17357059 12.13594311 0.4072354101)
(82.55555296 12.22418945 0.3868260067)
(84.37979222 13.5436759 0.2052058803)
(89.44657189 14.73271139 0.635831316)
(90.42930916 16.16355785 -1.049401912)
(88.8121617 14.87209766 -0.7923106608)
(96.28353624 17.20474695 1.024038797)
(93.31944792 16.43524883 -1.262323023)
(96.4067875 18.92289623 0.3409961498)
(100.9682787 19.97439492 0.4072353827)
(103.0714409 19.029394 -1.912189253)
(99.60461978 18.84483671 1.098811253)
(91.4584097 18.57422209 -0.4554431534)
(97.54421969 18.50516742 0.2647797906)
(95.34148565 17.48997031 -0.7403942721)
(88.12335983 16.42943531 0.1501648643)
(93.20080317 17.71609697 0.3013782492)
(90.44029855 16.03713554 0.326466159)
(88.97856601 15.15185739 1.009147789)
(79.39535109 11.5995283 -0.1166571652)
(86.8100682 11.95184006 0.05557575028)
(91.79538607 12.90164412 -0.3194504383)
(77.23651247 11.0976971 0.02316278369)
(86.07728059 11.88125467 -0.1069020895)
(85.10568881 12.12006117 -0.4008751595)
(86.2453139 12.3603646 -0.09905331378)
(83.96466048 12.92534603 -0.8769487186)
(83.31216535 11.46900518 0.6120710462)
(87.66907048 12.33468815 0.2048035527)
(85.97109211 13.00740629 0.228777644)
(87.78999285 13.27660485 -0.2846850302)
(91.59450058 14.62234364 -0.3432796905)
(80.20878366 11.63943026 -0.3510533719)
(90.41175267 13.58892421 0.3086418614)
(87.60319544 13.5156738 0.1286022547)
(89.74944448 14.5035592 -0.3882813397)
(87.90258011 14.1953243 0.06434306228)
(92.06829425 16.08138539 -0.03194135395)
(95.74289957 16.88169238 -1.475816306)
(97.40576062 17.37675059 0.7444718594)
(97.72547452 16.88338109 -1.079668344)
(104.71944 19.47918836 -0.205492505)
(102.8474279 19.24941545 0.1674469782)
(102.5129374 17.80306858 -0.819342685)
(104.7450269 19.79351766 0.7441818975)
(103.0700061 18.19007237 1.421918243)
(97.15713534 17.45935429 0.2153610089)
(95.50877544 16.29726413 -0.3553406671)
(97.1302647 16.66230593 -0.4327270364)
(80.79883297 12.27028 -0.3468246182)
(84.37392223 11.85007321 -0.1586695404)
(81.34275955 11.82842686 -0.6170850593)
(80.91300808 12.43079785 -0.193142431)
(82.34909041 11.79147343 -0.7322347662)
(88.97651507 12.68369194 -0.01164615213)
(79.3358406 11.41657241 -1.272123286)
(80.91358189 11.633778 0.3137688299)
(88.49394544 12.66945185 -0.4296961573)
(80.56595385 11.15928981 -0.8464948407)
(87.92370696 12.64869559 0.4605686583)
(82.07964493 10.89136875 -0.8363588011)
(87.67809743 12.37795665 0.137636516)
(87.36644487 13.12513938 0.5231404241)
(88.32408695 12.6203618 0.1958454207)
(86.52543946 13.70344363 -0.01933107782)
(92.23901207 13.62803518 0.4052940544)
(90.29928834 12.86679051 0.2721440017)
(87.27550658 14.20876681 -0.7885901614)
(88.90900524 14.10655112 1.214728219)
(91.47499933 15.26232164 0.05136370733)
(93.96295415 15.34054503 -0.6302025685)
(94.09417394 17.86922881 0.5009975213)
(99.63141407 18.46911212 0.08764691886)
(101.9354579 18.31399403 -0.2283775422)
(95.06006838 16.88250856 -0.3103416008)
(105.1752459 19.66916379 -1.517728147)
(105.7815343 19.38503483 -0.2066401806)