/*--------------------------------*- C++ -*----------------------------------*\
| =========                 |                                                 |
| \\      /  F ield         | OpenFOAM: The Open Source CFD Toolbox           |
|  \\    /   O peration     | Version:  v1912                                 |
|   \\  /    A nd           | Website:  www.openfoam.com                      |
|    \\/     M anipulation  |                                                 |
\*---------------------------------------------------------------------------*/
FoamFile
{
    version     2.0;
    format      ascii;
    class       volScalarField;
    location    "0.00013";
    object      rhoM;
}
// * * * * * * * * * * * * * * * * * * * * * * * * * * * * * * * * * * * * * //

dimensions      [1 -3 0 0 0 0 0];


internalField   nonuniform List<scalar> 
1300
(
0.00465
0.023912
0.019262
0.055122
0.065762
0.0186
0.029224
0.015274
0.057786
0.005312
0.019262
0.019262
0.0372
0.05911
0.058448
0.043836
0.048486
0.043836
0.028562
0.03255
0.01395
0.00465
0.0465
0.12886
0.048486
0.042512
0.057786
0.085686
0.048486
0.05446
0.005312
1e-277
0.0279
0.104948
0.053798
0.0186
0.047824
0.067086
0.047162
0.043836
0.00465
1e-277
0.02325
0.090998
0.0279
0.01395
0.067748
0.09631
0.088996
0.037862
0.00465
1e-277
0.029224
0.09166
0.053798
0.019924
0.047824
0.065762
0.043836
0.033212
1e-277
1e-277
0.02325
0.099636
0.043174
0.023912
0.03255
0.09166
0.043174
0.053136
1e-277
1e-277
0.029224
0.10561
0.042512
0.023912
0.029224
0.070412
0.079696
0.080374
1e-277
1e-277
0.023912
0.120884
0.02325
0.028562
0.033874
0.077048
0.0372
0.0186
1e-277
1e-277
0.0186
0.097634
0.051812
0.02325
0.052474
0.081036
0.057124
0.051812
1e-277
1e-277
0.059772
0.10695
0.043174
0.043174
0.053798
0.063098
0.042512
0.033874
1e-277
1e-277
0.0186
0.09166
0.033212
0.029224
0.04185
0.072398
0.047162
0.052474
1e-277
1e-277
0.038524
0.087672
0.052474
0.005312
0.057124
0.048486
0.03255
0.024574
1e-277
1e-277
0.04185
0.076386
0.0279
0.033212
0.061112
0.077048
0.053136
0.053136
1e-277
1e-277
0.024574
0.073722
0.072398
0.0279
0.01395
0.078372
0.047162
0.039186
1e-277
1e-277
0.034536
0.086348
0.043836
0.023912
0.028562
0.09631
0.037862
0.024574
1e-277
1e-277
0.033874
0.108274
0.033874
0.034536
0.023912
0.063098
0.043174
0.04516
1e-277
1e-277
0.02325
0.125534
0.051812
0.029224
0.044498
0.071736
0.048486
0.0279
1e-277
1e-277
0.033212
0.11026
0.028562
0.029224
0.062436
0.061774
0.057124
0.019924
1e-277
1e-277
0.033212
0.072398
0.042512
0.019262
0.033874
0.048486
0.052474
0.033212
0.02681151022
0.01969636949
0.02735680114
0.03830215745
0.01258122899
0.01969636965
0.01915107873
0.03173230756
0.03556252356
0.01203593816
0.03993802991
0.01586615391
0.02298129447
0.03447194142
0.028447383
0.028447383
0.02681150999
0.02024166058
0.03118701689
0.02298129428
0.02298129447
0.03173230782
0.01586615378
0.00766043149
0.03118701689
0.03884744806
0.04376824598
0.01586615391
0.04376824562
0.04376824598
0.03501723263
0.04376824562
0.02298129447
0.05088338654
0.04923433411
0.02735680114
0.01532086298
0.02735680092
0.01149064724
0.03173230782
0.02298129428
0.02298129447
0.01586615391
0.01969636949
0.02790209207
0.03173230782
0.03501723235
0.03993803024
0.02407187633
0.01586615378
0.03556252356
0.01149064724
0.01586615378
0.0470531708
0.04868904359
0.01915107857
0.03173230782
0.03556252356
0.03501723235
0.0235265854
0.03610781449
0.03884744806
0.03173230782
0.03556252356
0.02352658521
0.02735680114
0.03610781449
0.03447194142
0.04322295505
0.008751013349
0.03884744806
0.04267766412
0.02790209207
0.03173230756
0.01203593816
0.03665310542
0.02352658521
0.02407187633
0.03830215745
0.04485882747
0.05033809561
0.03118701689
0.03501723235
0.02024166058
0.01969636965
0.02352658521
0.02735680114
0.0470531708
0.04102861176
0.01532086298
0.05088338654
0.02352658521
0.02735680114
0.02790209207
0.04759846134
0.03282288968
0.01695673577
0.03447194142
0.0470531708
0.03993803024
0.04102861176
0.02461716726
0.01915107873
0.03064172571
0.02461716726
0.01915107873
0.02407187613
0.01915107873
0.03173230782
0.02407187613
0.05416831136
0.03173230782
0.02735680092
0.04376824598
0.003830215745
0.02735680092
0.04376824598
0.02407187633
0.03064172571
0.03447194171
0.04814375266
0.05142867705
0.05908910896
0.06620424952
0.02790209184
0.0470531708
0.03227759875
0.03501723235
0.03556252356
0.03830215745
0.02790209184
0.03556252356
0.04322295505
0.0289926737
0.02735680114
0.03993803024
0.0432229547
0.03173230782
0.01586615391
0.02352658521
0.04376824598
0.04048332117
0.0361078142
0.04322295505
0.03118701689
0.003830215713
0.02298129447
0.02735680114
0.02352658521
0.03939273931
0.06237403378
0.0667495399
0.04485882784
0.05142867747
0.03556252327
0.03556252356
0.04431353691
0.02681150999
0.02024166058
0.04376824598
0.0596343994
0.03173230782
0.03556252356
0.02790209184
0.04267766412
0.02790209207
0.03118701663
0.01532086298
0.03064172596
0.05142867705
0.04376824598
0.01532086298
0.03501723235
0.01969636965
0.03501723263
0.0361078142
0.01586615391
0.03884744838
0.03227759848
0.02790209207
0.04759846173
0.07878547797
0.04814375266
0.08316098529
0.0793307689
0.08425156715
0.0705797562
0.04705317041
0.03118701689
0.04322295505
0.0596343994
0.05689476601
0.03282288968
0.02298129428
0.03118701689
0.05580418415
0.03118701663
0.0235265854
0.0235265854
0.03447194142
0.003830215745
0.05088338654
0.06620424898
0.03884744838
0.04376824598
0.02298129428
0.04431353691
0.03118701689
0.01586615378
0.03884744838
0.04376824598
0.05854381755
0.04048332117
0.06400990657
0.08152511183
0.06127027268
0.1017667731
0.05580418369
0.06784012231
0.05416831136
0.05580418369
0.04759846173
0.0410286121
0.03118701663
0.05525889322
0.02735680114
0.04213237285
0.04376824598
0.05525889322
0.03939273899
0.03884744838
0.04923433452
0.03665310512
0.03501723263
0.04814375266
0.0361078142
0.01969636965
0.04759846173
0.02735680092
0.03282288968
0.05580418415
0.04705317041
0.07604584473
0.05471360229
0.05854381755
0.05634947508
0.06291932471
0.05580418369
0.04596258894
0.06291932471
0.04650787949
0.05142867747
0.0705797562
0.04759846134
0.06127027268
0.05580418415
0.06182874234
0.04596258894
0.05963439989
0.06237403327
0.0410286121
0.01915107873
0.03830215713
0.04211919396
0.04759846173
0.0432229547
0.02681151022
0.04267766412
0.02407187613
0.02681151022
0.03064172596
0.0432229547
0.04376824598
0.06784012231
0.07824018705
0.06674954045
0.06784012231
0.0793307689
0.03610781449
0.06346461564
0.03118701663
0.05525889322
0.05908910896
0.06128345142
0.05033809561
0.028447383
0.05525889276
0.05525889322
0.06400990657
0.05197396798
0.0705797562
0.04596258894
0.05142867705
0.02681151022
0.03282288968
0.04868904319
0.0421323732
0.03610781449
0.01969636949
0.05525889322
0.05908910896
0.03993802991
0.01532086298
0.05142867747
0.03774368697
0.03610781449
0.04650787987
0.05634947461
0.08644591011
0.04376824598
0.05580418369
0.05963439989
0.04814375266
0.05306454983
0.05362302043
0.07604584473
0.06072498125
0.03501723263
0.05854381803
0.04705317041
0.05854381803
0.05471360229
0.07221562839
0.06072498175
0.04322295505
0.09245728881
0.03939273931
0.03501723263
0.03118701663
0.04759846173
0.04759846173
0.06291932419
0.0410286121
0.05471360229
0.0503380952
0.03993803024
0.05854381803
0.06729483083
0.06181556361
0.05033809561
0.03939273899
0.09082141678
0.04650787987
0.05142867705
0.05580418415
0.06838541324
0.0432229547
0.02735680114
0.07495526287
0.03884744806
0.06017969082
0.06346461564
0.07112504654
0.07768171752
0.04540411877
0.06346461512
0.06128345192
0.05088338654
0.03993802991
0.03556252356
0.07495526287
0.0596343994
0.07167033806
0.06291932471
0.05689476554
0.02735680114
0.05142867747
0.05088338613
0.04376824598
0.07386468101
0.06784012176
0.06346461564
0.07221562899
0.03830215713
0.06400990657
0.0421323732
0.06729483083
0.05471360229
0.05142867747
0.07386468041
0.07495526287
0.05416831136
0.07878547797
0.05854381803
0.06237403378
0.06784012176
0.07933076955
0.05963439989
0.06893070361
0.04322295505
0.03447194171
0.07331938948
0.06127027268
0.0421323732
0.03665310512
0.05580418415
0.04267766412
0.04431353655
0.05580418415
0.06182874285
0.04759846134
0.03884744838
0.05471360229
0.07495526226
0.07167033806
0.07221562899
0.06237403327
0.05033809561
0.04814375266
0.08316098461
0.06838541324
0.06346461564
0.05088338613
0.08207040343
0.06729483138
0.06784012176
0.03939273931
0.09793655734
0.07221562839
0.06674954045
0.04868904359
0.03118701663
0.03173230782
0.05251925933
0.07057975562
0.0519739684
0.03118701689
0.04759846134
0.03173230782
0.03830215745
0.03939273899
0.05854381803
0.05908910896
0.04213237285
0.05525889322
0.02681151022
0.0503380952
0.06784012231
0.05525889322
0.0596343994
0.05854381803
0.09191199864
0.06017969033
0.05033809561
0.07167033806
0.05142867705
0.04431353691
0.05963439989
0.07221562839
0.05471360229
0.03993803024
0.05471360184
0.0470531708
0.0705797562
0.05416831091
0.04048332117
0.07604584473
0.05580418369
0.0421323732
0.03884744838
0.03556252327
0.0579985271
0.03939273931
0.06072498125
0.0421323732
0.07824018769
0.07878547797
0.08753649197
0.05634947508
0.06620424898
0.05908910896
0.05854381803
0.0432229547
0.0815251125
0.08534214901
0.09027612511
0.05689476601
0.05963439989
0.05525889276
0.06729483138
0.04267766412
0.02790209184
0.05142867747
0.02407187633
0.05088338613
0.05908910896
0.08971765569
0.0432229547
0.03884744838
0.0880817829
0.04376824562
0.05525889322
0.08699120104
0.04376824562
0.04596258894
0.05033809561
0.05634947461
0.06291932471
0.07495526287
0.05525889276
0.1034026459
0.08370627622
0.06182874234
0.06291932471
0.04759846173
0.08316098461
0.0705797562
0.03939273931
0.06346461512
0.07331939009
0.06291932471
0.02844738277
0.04650787987
0.0235265854
0.03556252327
0.0470531708
0.04322295505
0.03227759848
0.03501723263
0.04431353691
0.04102861176
0.03884744838
0.05963439989
0.03118701663
0.0519739684
0.06017969082
0.0525192589
0.02407187633
0.05580418415
0.06237403327
0.03501723263
0.06948917434
0.04267766377
0.08644591011
0.0705797562
0.05306454983
0.08207040343
0.07768171752
0.0596343994
0.03173230782
0.08207040343
0.06729483083
0.04868904359
0.04868904359
0.05088338613
0.06182874285
0.02790209207
0.04267766377
0.05525889322
0.02407187633
0.03501723235
0.05251925933
0.06237403378
0.06017969033
0.03939273931
0.03610781449
0.05088338613
0.05088338654
0.06346461564
0.05525889276
0.08862707383
0.04650787987
0.04814375226
0.03064172596
0.05525889322
0.05854381755
0.0470531708
0.05142867747
0.04650787949
0.08096664234
0.06510048843
0.02352658521
0.02735680114
0.04322295505
0.05908910848
0.05963439989
0.04759846173
0.02298129428
0.0519739684
0.0410286121
0.03227759848
0.04759846173
0.05908910896
0.04213237285
0.03884744838
0.03993803024
0.03064172571
0.05580418415
0.05033809561
0.04814375226
0.08042135141
0.05142867747
0.03118701663
0.06237403378
0.05634947508
0.04213237285
0.03447194171
0.03884744838
0.07495526226
0.05088338654
0.033212
0.048486
0.05446
0.024574
0.0279
0.023912
0.019262
0.028562
0.037862
0.0093
0.024574
0.034536
0.039186
0.043836
0.0186
0.043836
0.023912
0.029886
0.024574
0.009962
0.038524
0.0186
0.042512
0.043836
0.043174
0.033212
0.067086
0.038524
0.019924
0.01395
0.0279
0.030548
0.043174
0.0186
0.047162
0.033212
0.039186
0.0279
0.02325
0.034536
1e-277
0.019262
0.028562
0.0186
0.028562
0.019924
0.039848
0.047824
0.014612
0.0372
0.009962
0.029886
0.037862
0.015274
0.029224
0.029224
0.033212
0.0279
0.037862
0.024574
0.038524
0.035198
0.034536
0.0093
0.01395
0.034536
0.033212
0.025236
0.00465
0.01395
0.029224
0.0186
0.043174
0.009962
0.024574
0.039848
0.034536
0.065762
0.025236
0.0093
0.0372
0.042512
0.047162
0.014612
0.01395
0.028562
0.044498
0.037862
0.0372
0.0372
0.048486
0.052474
0.033874
0.0093
0.037862
0.029224
0.028562
0.030548
0.019262
0.024574
0.037862
0.053136
0.029224
0.038524
0.034536
0.024574
0.052474
0.057124
0.048486
0.047824
0.042512
0.057786
0.070412
0.067748
0.043174
0.024574
0.057786
0.042512
0.029224
0.0186
0.048486
0.052474
0.0558
0.0186
0.063098
0.042512
0.028562
0.037862
0.0372
0.043836
0.075724
0.029886
0.039186
0.03255
0.063098
0.047162
0.043174
0.065762
0.05446
0.06975
0.052474
0.03255
0.047824
0.06975
0.052474
0.098296
0.071074
0.06841
0.063098
0.043836
0.033212
0.085686
0.047824
0.085686
0.069734
0.061774
0.056462
0.038524
0.028562
0.077048
0.035198
0.047162
0.081698
0.043174
0.052474
0.049148
0.063098
0.057786
0.049148
0.066424
0.043836
0.052474
0.071736
0.053136
0.042512
0.090336
0.066424
0.053798
0.057124
0.061774
0.056462
0.057786
0.077048
0.089674
0.083684
0.047824
0.071736
0.081036
0.081698
0.075724
0.057124
0.048486
0.069734
0.057786
0.042512
0.056462
0.0558
0.06841
0.095648
0.070412
0.05126340594
0.04797262171
0.01380229508
0.01905805075
0.03351533613
0.02300382514
0.02300382514
0.04206187547
0.05782914287
0.04862761282
0.05191839606
0.03351533646
0.02431380641
0.04206187547
0.05257338721
0.04731763155
0.01840305993
0.04862761282
0.05651916161
0.01445728558
0.01840306011
0.06768566356
0.04731763108
0.02891457144
0.02365881577
0.05651916105
0.01905805075
0.04271686652
0.03811610112
0.04140688525
0.01479888813
0.05148315518
0.04054821713
0.0476192061
0.01802142966
0.0572713289
0.03346172585
0.03282031765
0.02767355263
0.04118962501
0.05276597093
0.03732567543
0.04633639034
0.05084174731
0.02767355263
0.03732567543
0.06692345105
0.03217891009
0.04183103289
0.03796708294
0.04697779822
0.0508417478
0.05020033944
0.04247244076
0.05598851314
0.06177668576
0.06564063594
0.07979811619
0.04761920564
0.03732567543
0.0321535395
0.05485104847
0.03593898898
0.03089678546
0.03341029322
0.05422267197
0.04035281547
0.01891205984
0.05547942601
0.03782412003
0.04035281509
0.03972443845
0.05106559952
0.04035281509
0.04980884548
0.06746415146
0.06052162895
0.04980884548
0.04035281547
0.04413826453
0.04539501899
0.05296591794
0.0409811921
0.046023396
0.04855209144
0.03656736565
0.008827652989
0.04035281547
0.06430707839
0.02773971301
0.01359368679
0.06179489757
0.04881707644
0.04078106038
0.06117903249
0.04820121135
0.0506646717
0.02595564317
0.04078106038
0.02224556793
0.01730376212
0.0401651953
0.0265715085
0.0179196272
0.06241076323
0.04510700095
0.03522338931
0.05004880661
0.03583925473
0.05066467123
0.03089744907
0.04881707644
0.07229437387
0.09021400191
0.0265715085
0.02657150826
0.05808482266
0.053143017
0.0302815837
0.05375888209
0.03877721747
0.03089808649
0.02665660057
0.05634700396
0.04362254497
0.04301870367
0.01393214198
0.02605275864
0.04665634818
0.03877721747
0.04058874218
0.02665660057
0.01756978648
0.03513957265
0.04422638705
0.03513957297
0.0515016756
0.03029424508
0.03938105917
0.03574341433
0.03453573128
0.03453573128
0.03817337544
0.03089808677
0.02120743099
0.05270935897
0.03393188959
0.01696594479
0.03453573096
0.03453573128
0.016641065
0.04813204338
0.04337949879
0.02673843379
0.05229230959
0.04219494126
0.03803467501
0.0261461548
0.03565124506
0.06120512132
0.02080133106
0.06120512132
0.0249615975
0.03565124474
0.03862695378
0.01248079875
0.02080133106
0.04813204381
0.05110775253
0.04337949841
0.04753976504
0.03328213
0.04219494089
0.02614615503
0.0249615975
0.06893337444
0.016641065
0.05288458882
0.06418082947
0.03921923254
0.05014748161
0.02623604128
0.008164196816
0.01282744558
0.02157279256
0.0250737408
0.02973698957
0.03381908768
0.01282744558
0.02973698957
0.04664653314
0.02449259045
0.03732003603
0.03790118605
0.01749069434
0.04198328479
0.01690954384
0.02857468886
0.03031813992
0.03323793733
0.01224629522
0.02565489116
0.0297369893
0.03323793762
0.04256443514
0.05481072989
0.03381908797
0.0460653832
0.03031813965
0.03381908797
0.02060450145
0.03606132395
0.04464538429
0.04234986773
0.04234986737
0.04464538429
0.02804769665
0.0165976875
0.03205451045
0.02804769665
0.03376580741
0.02518174767
0.0297589939
0.02003406886
0.02461131526
0.07269308094
0.02918856123
0.02060450145
0.04063857048
0.01602725509
0.0412090029
0.02117493387
0.0165976875
0.0412090029
0.03834305393
0.03663175636
0.03262494287
0.04521581671
0.03376580741
0.03720218909
0.03596840495
0.02023138154
0.05675988931
0.02865999598
0.02416563731
0.03147404648
0.04439701922
0.02416563731
0.01685722855
0.03596840495
0.02809989309
0.02865999598
0.02023138171
0.04046276307
0.04046276341
0.04889137769
0.01967127888
0.0162971259
0.02472574017
0.03652850729
0.02809989333
0.03708861026
0.03596840464
0.02809989333
0.04383691657
0.0438369162
0.01573702324
0.03147404648
0.01629712576
0.05394583881
0.01600725607
0.03256465222
0.02373581393
0.02815023321
0.01159283669
0.01159283679
0.05243618749
0.06734316229
0.03532865071
0.008278698212
0.01987153483
0.019871535
0.03201451214
0.01600725594
0.03256465249
0.03587879107
0.03974306966
0.01545711571
0.04747162785
0.02760009262
0.01159283679
0.02097181571
0.02373581373
0.01545711571
0.05243618749
0.01987153483
0.05851432428
0.03642893142
0.03256465222
0.05078576642
)
;

boundaryField
{
    inlet
    {
        type            zeroGradient;
    }
    outlet
    {
        type            zeroGradient;
    }
    wall
    {
        type            calculated;
        value           uniform 1e-300;
    }
    frontAndBack
    {
        type            empty;
    }
}


// ************************************************************************* //
