/*--------------------------------*- C++ -*----------------------------------*\
| =========                 |                                                 |
| \\      /  F ield         | OpenFOAM: The Open Source CFD Toolbox           |
|  \\    /   O peration     | Version:  v1912                                 |
|   \\  /    A nd           | Website:  www.openfoam.com                      |
|    \\/     M anipulation  |                                                 |
\*---------------------------------------------------------------------------*/
FoamFile
{
    version     2.0;
    format      ascii;
    class       volScalarField;
    location    "1.04";
    object      Ma;
}
// * * * * * * * * * * * * * * * * * * * * * * * * * * * * * * * * * * * * * //

dimensions      [0 0 0 0 0 0 0];


internalField   nonuniform List<scalar> 
1900
(
2.61776e-08
1.22489e-07
2.30392e-07
2.60712e-07
2.49632e-06
0.000196077
0.00285724
0.0131573
0.0284616
0.0365204
2.632e-08
1.22114e-07
2.29083e-07
2.58904e-07
2.50423e-06
0.000196907
0.00289126
0.0135825
0.0305383
0.0451471
2.64237e-08
1.21834e-07
2.28105e-07
2.5738e-07
2.59423e-06
0.00020331
0.00298074
0.013946
0.0313498
0.046803
2.632e-08
1.22114e-07
2.29083e-07
2.58904e-07
2.50423e-06
0.000196907
0.00289126
0.0135825
0.0305383
0.0451471
2.61774e-08
1.22489e-07
2.30392e-07
2.60712e-07
2.49632e-06
0.000196077
0.00285724
0.0131573
0.0284616
0.0365204
0.0463926
0.063846
0.0813914
0.10566
0.159733
0.0573405
0.0704
0.0894291
0.123103
0.180055
0.0591462
0.0713239
0.0903156
0.125351
0.18218
0.0573405
0.0704
0.0894291
0.123103
0.180055
0.0463926
0.063846
0.0813914
0.10566
0.159733
0.17622
0.141738
0.12238
0.12091
0.19551
0.180953
0.14861
0.120878
0.0930156
0.0984735
0.18431
0.151371
0.118834
0.0729649
0.017342
0.180953
0.14861
0.120878
0.0930156
0.0984735
0.17622
0.141738
0.12238
0.12091
0.19551
0.384607
0.197088
0.244304
0.263302
0.253554
0.203299
0.144743
0.0855664
0.0373727
0.00952056
0.000980554
2.6418e-05
1.23286e-07
7.0277e-11
3.61678e-15
2.80982e-16
8.75234e-17
1.3425e-16
2.24735e-16
6.36089e-17
7.71699e-17
1.54594e-16
1.53105e-16
6.41857e-16
7.11822e-17
4.83498e-15
8.96534e-11
1.53814e-07
3.21942e-05
0.00116827
0.0111401
0.043331
0.0995669
0.171895
0.253534
0.33994
0.424972
0.506103
0.642112
1.42351
0.106175
0.150923
0.135669
0.236321
0.251399
0.204575
0.145205
0.0854625
0.0372467
0.00947529
0.000974646
2.6241e-05
1.22527e-07
7e-11
3.59687e-15
2.03719e-16
5.68906e-17
6.81839e-17
4.33348e-16
1.88291e-16
1.26824e-16
3.29712e-16
4.06525e-16
8.91494e-16
4.60211e-16
4.88207e-15
8.96373e-11
1.53814e-07
3.21942e-05
0.00116827
0.0111401
0.043331
0.0995669
0.171895
0.253534
0.33994
0.424972
0.506103
0.642112
1.42351
0.206063
0.193946
0.064916
0.227044
0.251354
0.2052
0.14543
0.0854344
0.0372016
0.00945791
0.000972326
2.6172e-05
1.22244e-07
6.99079e-11
3.57725e-15
2.53653e-16
5.38235e-17
4.08619e-17
4.02642e-16
2.95934e-16
2.42245e-16
5.70368e-16
6.12712e-16
6.52511e-16
7.3322e-16
4.66838e-15
8.96287e-11
1.53814e-07
3.21942e-05
0.00116827
0.0111401
0.043331
0.0995669
0.171895
0.253534
0.33994
0.424972
0.506103
0.642112
1.42351
0.106175
0.150923
0.135669
0.236321
0.251399
0.204575
0.145205
0.0854625
0.0372467
0.00947529
0.000974646
2.6241e-05
1.22527e-07
7.0014e-11
3.54371e-15
1.56034e-16
1.47684e-18
2.10078e-17
1.34348e-16
1.14093e-16
1.03935e-16
2.38653e-16
6.69104e-17
3.666e-16
4.96454e-16
4.69316e-15
8.96181e-11
1.53814e-07
3.21942e-05
0.00116827
0.0111401
0.043331
0.0995669
0.171895
0.253534
0.33994
0.424972
0.506103
0.642112
1.42351
0.384607
0.197088
0.244304
0.263302
0.253554
0.203299
0.144743
0.0855664
0.0373727
0.00952056
0.000980554
2.6418e-05
1.23286e-07
7.02956e-11
3.69712e-15
4.67576e-17
7.57431e-17
2.16059e-18
7.63127e-17
7.82089e-17
5.85601e-18
1.05066e-16
4.64621e-16
1.56941e-16
1.90012e-16
4.75027e-15
8.96148e-11
1.53814e-07
3.21942e-05
0.00116827
0.0111401
0.043331
0.0995669
0.171895
0.253534
0.33994
0.424972
0.506103
0.642112
1.42351
1.16554
0.465028
0.360543
0.306339
0.261421
0.205153
0.145603
0.0863423
0.0378941
0.00970261
0.00100383
2.7132e-05
1.26748e-07
7.21108e-11
3.82221e-15
1.08381e-16
3.01203e-17
3.9232e-17
5.64372e-17
4.57727e-17
1.45309e-17
9.78498e-17
2.53784e-16
2.41325e-16
2.51168e-17
4.66058e-15
8.9616e-11
1.53814e-07
3.21942e-05
0.00116827
0.0111401
0.043331
0.0995669
0.171895
0.253534
0.33994
0.424972
0.506103
0.642112
1.42351
1.42637
0.608845
0.442966
0.349431
0.282692
0.216666
0.151052
0.0890415
0.039079
0.0100449
0.00104543
2.84341e-05
1.33534e-07
7.62314e-11
3.96872e-15
2.86909e-16
1.20294e-16
1.0472e-16
1.05789e-16
2.31987e-16
8.93887e-17
3.41053e-19
6.69987e-17
1.14858e-16
4.7149e-17
4.62132e-15
8.96204e-11
1.53814e-07
3.21942e-05
0.00116827
0.0111401
0.043331
0.0995669
0.171895
0.253534
0.33994
0.424972
0.506103
0.642112
1.42351
1.43225
0.630726
0.471868
0.378272
0.303494
0.229591
0.157972
0.0925168
0.0405345
0.0104432
0.00109297
2.99623e-05
1.42038e-07
8.19417e-11
4.38217e-15
1.59777e-16
1.27191e-16
1.20101e-16
9.73173e-17
8.27527e-17
4.06404e-17
1.28478e-17
1.18413e-16
6.43693e-17
4.66096e-17
4.53937e-15
8.96359e-11
1.53814e-07
3.21942e-05
0.00116827
0.0111401
0.043331
0.0995669
0.171895
0.253534
0.33994
0.424972
0.506103
0.642112
1.42351
1.4265
0.635895
0.485627
0.399245
0.319867
0.240203
0.164109
0.0956974
0.0418597
0.0107978
0.00113454
3.12941e-05
1.49526e-07
8.70473e-11
4.69077e-15
1.2384e-16
1.50347e-16
5.37067e-17
3.08616e-17
3.10107e-17
8.92727e-17
8.51569e-18
5.59065e-17
7.32966e-17
1.42863e-17
4.65147e-15
8.9653e-11
1.53814e-07
3.21942e-05
0.00116827
0.0111401
0.043331
0.0995669
0.171895
0.253534
0.33994
0.424972
0.506103
0.642112
1.42351
1.42257
0.637229
0.495284
0.412139
0.330379
0.24736
0.168401
0.0979169
0.0427535
0.0110228
0.00115896
3.20161e-05
1.53294e-07
8.94649e-11
4.93893e-15
2.70194e-16
5.67453e-17
3.80116e-17
3.84927e-17
5.15054e-17
1.55258e-16
4.64987e-17
4.02355e-17
1.00585e-16
9.20754e-17
4.77829e-15
8.96342e-11
1.53814e-07
3.21942e-05
0.00116827
0.0111401
0.043331
0.0995669
0.171895
0.253534
0.33994
0.424972
0.506103
0.642112
1.42351
1.42069
0.638608
0.501687
0.419883
0.33641
0.251391
0.170756
0.0990743
0.0431812
0.0111167
0.00116729
3.22051e-05
1.54033e-07
8.99104e-11
1.20147e-13
1.19734e-13
1.19825e-13
1.21054e-13
1.24144e-13
1.19716e-13
1.24053e-13
1.1907e-13
1.18193e-13
1.23791e-13
1.1912e-13
1.25936e-13
8.96533e-11
1.53814e-07
3.21942e-05
0.00116827
0.0111401
0.043331
0.0995669
0.171895
0.253534
0.33994
0.424972
0.506103
0.642112
1.42351
1.42164
0.640601
0.504963
0.423669
0.339104
0.25307
0.17167
0.0994807
0.0433096
0.0111382
0.00116839
3.22046e-05
1.53889e-07
1.08917e-09
1.08564e-09
1.08563e-09
1.08559e-09
1.08559e-09
1.08557e-09
1.08558e-09
1.08557e-09
1.08559e-09
1.08559e-09
1.08557e-09
1.08558e-09
1.08556e-09
1.08936e-09
1.53818e-07
3.21942e-05
0.00116827
0.0111401
0.043331
0.0995669
0.171895
0.253534
0.33994
0.424972
0.506103
0.642112
1.42351
1.42306
0.641802
0.505946
0.424796
0.339836
0.253483
0.171874
0.099561
0.0433301
0.0111401
0.00116828
3.22086e-05
9.51539e-07
9.39041e-07
9.39041e-07
9.39041e-07
9.39041e-07
9.39041e-07
9.39041e-07
9.39042e-07
9.39042e-07
9.39041e-07
9.39041e-07
9.39041e-07
9.39041e-07
9.39041e-07
9.39041e-07
9.51555e-07
3.22079e-05
0.00116827
0.0111401
0.043331
0.0995669
0.171895
0.253534
0.33994
0.424972
0.506103
0.642112
1.42351
1.42351
0.642096
0.506099
0.424966
0.339937
0.253531
0.171892
0.0995652
0.0433305
0.0111405
0.00117341
0.000114605
0.000109992
0.000109992
0.000109992
0.000109992
0.000109992
0.000109992
0.000109992
0.000109992
0.000109992
0.000109992
0.000109992
0.000109992
0.000109992
0.000109992
0.000109992
0.000109992
0.000114605
0.0011734
0.0111404
0.0433306
0.0995661
0.171894
0.253533
0.33994
0.424971
0.506103
0.642109
1.42351
1.42358
0.642048
0.506135
0.424973
0.339952
0.253537
0.171894
0.0995784
0.0433899
0.0114167
0.00278459
0.00252897
0.00252879
0.00252879
0.00252879
0.00252879
0.00252879
0.00252879
0.00252879
0.00252879
0.00252879
0.00252879
0.00252879
0.00252879
0.00252879
0.00252879
0.00252879
0.00252879
0.00252897
0.00278459
0.0114166
0.0433896
0.0995778
0.171893
0.253533
0.339944
0.424958
0.506114
0.642028
1.42359
1.42477
0.641652
0.506427
0.425157
0.340307
0.253999
0.172587
0.100895
0.0465921
0.0207197
0.0175678
0.0175327
0.0175328
0.0175328
0.0175328
0.0175328
0.0175328
0.0175328
0.0175328
0.0175328
0.0175328
0.0175328
0.0175328
0.0175328
0.0175328
0.0175328
0.0175328
0.0175328
0.0175327
0.0175678
0.0207197
0.0465921
0.100895
0.172586
0.253996
0.340301
0.425146
0.506413
0.641639
1.42477
1.42992
0.642582
0.509048
0.42796
0.34405
0.25901
0.180014
0.113553
0.070518
0.0572087
0.0562198
0.0562151
0.0562153
0.0562153
0.0562153
0.0562153
0.0562153
0.0562153
0.0562153
0.0562153
0.0562153
0.0562153
0.0562153
0.0562153
0.0562153
0.0562153
0.0562153
0.0562153
0.0562151
0.0562198
0.0572087
0.070518
0.113553
0.180014
0.259009
0.344049
0.427959
0.509047
0.642581
1.42992
1.44092
0.650557
0.519201
0.439428
0.358227
0.277446
0.205826
0.15167
0.123402
0.116622
0.116207
0.116211
0.116211
0.116211
0.116211
0.116211
0.116211
0.116211
0.116211
0.116211
0.116211
0.116211
0.116211
0.116211
0.116211
0.116211
0.116211
0.116211
0.116211
0.116207
0.116622
0.123402
0.15167
0.205826
0.277446
0.358227
0.439428
0.519202
0.650557
1.44091
1.45434
0.670441
0.54263
0.464655
0.38848
0.314766
0.253872
0.212592
0.193788
0.189723
0.189504
0.18951
0.18951
0.18951
0.18951
0.18951
0.18951
0.18951
0.18951
0.18951
0.18951
0.18951
0.18951
0.18951
0.18951
0.18951
0.18951
0.18951
0.18951
0.189504
0.189723
0.193788
0.212592
0.253872
0.314766
0.38848
0.464655
0.54263
0.670441
1.45434
1.47317
0.70249
0.580735
0.505354
0.434731
0.36965
0.318817
0.287011
0.273477
0.270658
0.270501
0.270505
0.270505
0.270505
0.270505
0.270505
0.270505
0.270505
0.270505
0.270505
0.270505
0.270505
0.270505
0.270505
0.270505
0.270505
0.270505
0.270505
0.270505
0.270501
0.270658
0.273477
0.287011
0.318817
0.36965
0.434731
0.505354
0.580735
0.70249
1.47317
1.47893
0.7455
0.63603
0.55774
0.49622
0.436686
0.393856
0.367959
0.357425
0.355269
0.355138
0.355139
0.355139
0.355139
0.355139
0.355139
0.355139
0.355139
0.355139
0.355139
0.355139
0.355139
0.355139
0.355139
0.355139
0.355139
0.355139
0.355139
0.355139
0.355138
0.355269
0.357425
0.367959
0.393856
0.436686
0.49622
0.55774
0.63603
0.7455
1.47893
1.50805
0.790634
0.689091
0.61688
0.557667
0.506937
0.469335
0.447622
0.43904
0.437423
0.43737
0.437377
0.437378
0.437378
0.437378
0.437378
0.437378
0.437378
0.437378
0.437378
0.437378
0.437378
0.437378
0.437378
0.437378
0.437378
0.437378
0.437378
0.437377
0.43737
0.437423
0.43904
0.447622
0.469335
0.506937
0.557667
0.61688
0.689091
0.790634
1.50805
1.5044
0.853885
0.774073
0.687119
0.633415
0.580563
0.545616
0.525574
0.517734
0.516008
0.515845
0.51584
0.51584
0.51584
0.51584
0.51584
0.51584
0.51584
0.51584
0.51584
0.51584
0.51584
0.51584
0.51584
0.51584
0.51584
0.51584
0.51584
0.51584
0.515845
0.516008
0.517734
0.525574
0.545616
0.580563
0.633415
0.687119
0.774073
0.853885
1.5044
1.56456
0.943182
0.855923
0.792082
0.746438
0.704415
0.674086
0.656783
0.651158
0.651047
0.651382
0.651421
0.651422
0.651422
0.651422
0.651422
0.651422
0.651422
0.651422
0.651422
0.651422
0.651422
0.651422
0.651422
0.651422
0.651422
0.651422
0.651422
0.651421
0.651382
0.651047
0.651158
0.656783
0.674086
0.704415
0.746438
0.792082
0.855923
0.943182
1.56456
2.07063
1.57164
1.51222
1.51669
1.48835
1.4817
1.46351
1.45036
1.4408
1.43702
1.43637
1.43634
1.43634
1.43634
1.43634
1.43634
1.43634
1.43634
1.43634
1.43634
1.43634
1.43634
1.43634
1.43634
1.43634
1.43634
1.43634
1.43634
1.43634
1.43637
1.43702
1.4408
1.45036
1.46351
1.4817
1.48835
1.51669
1.51222
1.57164
2.07063
2.07063
1.57164
1.51222
1.51669
1.48835
1.4817
1.46351
1.45036
1.4408
1.43702
1.43637
1.43634
1.43634
1.43634
1.43634
1.43634
1.43634
1.43634
1.43634
1.43634
1.43634
1.43634
1.43634
1.43634
1.43634
1.43634
1.43634
1.43634
1.43634
1.43637
1.43702
1.4408
1.45036
1.46351
1.4817
1.48835
1.51669
1.51222
1.57164
2.07063
1.56456
0.943182
0.855923
0.792082
0.746438
0.704415
0.674086
0.656783
0.651158
0.651047
0.651382
0.651421
0.651422
0.651422
0.651422
0.651422
0.651422
0.651422
0.651422
0.651422
0.651422
0.651422
0.651422
0.651422
0.651422
0.651422
0.651422
0.651422
0.651421
0.651382
0.651047
0.651158
0.656783
0.674086
0.704415
0.746438
0.792082
0.855923
0.943182
1.56456
1.5044
0.853885
0.774073
0.687119
0.633415
0.580563
0.545616
0.525574
0.517734
0.516008
0.515845
0.51584
0.51584
0.51584
0.51584
0.51584
0.51584
0.51584
0.51584
0.51584
0.51584
0.51584
0.51584
0.51584
0.51584
0.51584
0.51584
0.51584
0.51584
0.515845
0.516008
0.517734
0.525574
0.545616
0.580563
0.633415
0.687119
0.774073
0.853885
1.5044
1.50805
0.790634
0.689091
0.61688
0.557667
0.506937
0.469335
0.447622
0.43904
0.437423
0.43737
0.437377
0.437378
0.437378
0.437378
0.437378
0.437378
0.437378
0.437378
0.437378
0.437378
0.437378
0.437378
0.437378
0.437378
0.437378
0.437378
0.437378
0.437377
0.43737
0.437423
0.43904
0.447622
0.469335
0.506937
0.557667
0.61688
0.689091
0.790634
1.50805
1.47893
0.7455
0.63603
0.55774
0.49622
0.436686
0.393856
0.367959
0.357425
0.355269
0.355138
0.355139
0.355139
0.355139
0.355139
0.355139
0.355139
0.355139
0.355139
0.355139
0.355139
0.355139
0.355139
0.355139
0.355139
0.355139
0.355139
0.355139
0.355139
0.355138
0.355269
0.357425
0.367959
0.393856
0.436686
0.49622
0.55774
0.63603
0.7455
1.47893
1.47317
0.70249
0.580735
0.505354
0.434731
0.36965
0.318817
0.287011
0.273477
0.270658
0.270501
0.270505
0.270505
0.270505
0.270505
0.270505
0.270505
0.270505
0.270505
0.270505
0.270505
0.270505
0.270505
0.270505
0.270505
0.270505
0.270505
0.270505
0.270505
0.270501
0.270658
0.273477
0.287011
0.318817
0.36965
0.434731
0.505354
0.580735
0.70249
1.47317
1.45434
0.670441
0.54263
0.464655
0.38848
0.314766
0.253872
0.212592
0.193788
0.189723
0.189504
0.18951
0.18951
0.18951
0.18951
0.18951
0.18951
0.18951
0.18951
0.18951
0.18951
0.18951
0.18951
0.18951
0.18951
0.18951
0.18951
0.18951
0.18951
0.189504
0.189723
0.193788
0.212592
0.253872
0.314766
0.38848
0.464655
0.54263
0.670441
1.45434
1.44092
0.650557
0.519201
0.439428
0.358227
0.277446
0.205826
0.15167
0.123402
0.116622
0.116207
0.116211
0.116211
0.116211
0.116211
0.116211
0.116211
0.116211
0.116211
0.116211
0.116211
0.116211
0.116211
0.116211
0.116211
0.116211
0.116211
0.116211
0.116211
0.116207
0.116622
0.123402
0.15167
0.205826
0.277446
0.358227
0.439428
0.519202
0.650557
1.44091
1.42992
0.642582
0.509048
0.42796
0.34405
0.25901
0.180014
0.113553
0.070518
0.0572087
0.0562198
0.0562151
0.0562153
0.0562153
0.0562153
0.0562153
0.0562153
0.0562153
0.0562153
0.0562153
0.0562153
0.0562153
0.0562153
0.0562153
0.0562153
0.0562153
0.0562153
0.0562153
0.0562151
0.0562198
0.0572087
0.070518
0.113553
0.180014
0.259009
0.344049
0.427959
0.509047
0.642581
1.42992
1.42477
0.641652
0.506427
0.425157
0.340307
0.253999
0.172587
0.100895
0.0465921
0.0207197
0.0175678
0.0175327
0.0175328
0.0175328
0.0175328
0.0175328
0.0175328
0.0175328
0.0175328
0.0175328
0.0175328
0.0175328
0.0175328
0.0175328
0.0175328
0.0175328
0.0175328
0.0175328
0.0175327
0.0175678
0.0207197
0.0465921
0.100895
0.172586
0.253996
0.340301
0.425146
0.506413
0.641639
1.42477
1.42358
0.642048
0.506135
0.424973
0.339952
0.253537
0.171894
0.0995784
0.0433899
0.0114167
0.00278459
0.00252897
0.00252879
0.00252879
0.00252879
0.00252879
0.00252879
0.00252879
0.00252879
0.00252879
0.00252879
0.00252879
0.00252879
0.00252879
0.00252879
0.00252879
0.00252879
0.00252879
0.00252897
0.00278459
0.0114166
0.0433896
0.0995778
0.171893
0.253533
0.339944
0.424958
0.506114
0.642028
1.42359
1.42351
0.642096
0.506099
0.424966
0.339937
0.253531
0.171892
0.0995652
0.0433305
0.0111405
0.00117341
0.000114605
0.000109992
0.000109992
0.000109992
0.000109992
0.000109992
0.000109992
0.000109992
0.000109992
0.000109992
0.000109992
0.000109992
0.000109992
0.000109992
0.000109992
0.000109992
0.000109992
0.000114605
0.0011734
0.0111404
0.0433306
0.0995661
0.171894
0.253533
0.33994
0.424971
0.506103
0.642109
1.42351
1.42306
0.641802
0.505946
0.424796
0.339836
0.253483
0.171874
0.099561
0.0433301
0.0111401
0.00116828
3.22086e-05
9.51539e-07
9.39041e-07
9.39041e-07
9.39041e-07
9.39041e-07
9.39041e-07
9.39041e-07
9.39042e-07
9.39042e-07
9.39041e-07
9.39041e-07
9.39041e-07
9.39041e-07
9.39041e-07
9.39042e-07
9.51555e-07
3.22079e-05
0.00116827
0.0111401
0.043331
0.0995669
0.171895
0.253534
0.33994
0.424972
0.506103
0.642112
1.42351
1.42164
0.640601
0.504963
0.423669
0.339104
0.25307
0.17167
0.0994807
0.0433096
0.0111382
0.00116839
3.22046e-05
1.53889e-07
1.0892e-09
1.08564e-09
1.08557e-09
1.08557e-09
1.08559e-09
1.08558e-09
1.08559e-09
1.08558e-09
1.08559e-09
1.08559e-09
1.08558e-09
1.08558e-09
1.08557e-09
1.08925e-09
1.53818e-07
3.21942e-05
0.00116827
0.0111401
0.043331
0.0995669
0.171895
0.253534
0.33994
0.424972
0.506103
0.642112
1.42351
1.42069
0.638608
0.501687
0.419883
0.33641
0.251391
0.170756
0.0990743
0.0431812
0.0111167
0.00116729
3.22051e-05
1.54033e-07
8.98824e-11
1.20172e-13
1.20402e-13
1.18374e-13
1.18234e-13
1.23918e-13
1.19718e-13
1.24053e-13
1.19139e-13
1.18277e-13
1.23893e-13
1.19118e-13
1.26055e-13
8.96527e-11
1.53814e-07
3.21942e-05
0.00116827
0.0111401
0.043331
0.0995669
0.171895
0.253534
0.33994
0.424972
0.506103
0.642112
1.42351
1.42257
0.637229
0.495284
0.412139
0.330379
0.24736
0.168401
0.0979169
0.0427535
0.0110228
0.00115896
3.20161e-05
1.53294e-07
8.9446e-11
4.8089e-15
1.58216e-16
8.54306e-17
9.51196e-17
4.64325e-18
1.50638e-18
1.83667e-19
2.32611e-17
1.61644e-16
4.63841e-17
4.27255e-17
4.84688e-15
8.96618e-11
1.53814e-07
3.21942e-05
0.00116827
0.0111401
0.043331
0.0995669
0.171895
0.253534
0.33994
0.424972
0.506103
0.642112
1.42351
1.4265
0.635895
0.485627
0.399245
0.319867
0.240203
0.164109
0.0956974
0.0418597
0.0107978
0.00113454
3.12941e-05
1.49526e-07
8.70647e-11
4.59518e-15
2.68712e-16
1.6384e-16
1.9808e-16
6.82802e-17
4.1696e-17
8.08685e-19
1.53913e-17
7.36833e-17
1.03857e-18
6.75546e-18
4.7838e-15
8.96317e-11
1.53814e-07
3.21942e-05
0.00116827
0.0111401
0.043331
0.0995669
0.171895
0.253534
0.33994
0.424972
0.506103
0.642112
1.42351
1.43225
0.630726
0.471868
0.378272
0.303494
0.229591
0.157972
0.0925168
0.0405345
0.0104432
0.00109297
2.99623e-05
1.42038e-07
8.19371e-11
4.2456e-15
1.89739e-16
3.16688e-17
5.82328e-17
8.42898e-19
8.58273e-17
1.31998e-18
0
7.36833e-17
1.11176e-17
0
4.71425e-15
8.96221e-11
1.53814e-07
3.21942e-05
0.00116827
0.0111401
0.043331
0.0995669
0.171895
0.253534
0.33994
0.424972
0.506103
0.642112
1.42351
1.42637
0.608845
0.442966
0.349431
0.282692
0.216666
0.151052
0.0890415
0.039079
0.0100449
0.00104543
2.84341e-05
1.33534e-07
7.62314e-11
3.99964e-15
1.13055e-16
6.6869e-17
1.70912e-16
4.68631e-17
1.79332e-16
5.99691e-17
0
0
7.40004e-17
3.54487e-17
4.74434e-15
8.96362e-11
1.53814e-07
3.21942e-05
0.00116827
0.0111401
0.043331
0.0995669
0.171895
0.253534
0.33994
0.424972
0.506103
0.642112
1.42351
1.16554
0.465028
0.360543
0.306339
0.261421
0.205153
0.145603
0.0863423
0.0378941
0.00970261
0.00100383
2.7132e-05
1.26748e-07
7.21046e-11
3.75777e-15
2.97833e-16
2.13105e-16
2.51258e-16
3.94269e-16
2.85269e-16
1.93542e-16
6.53214e-17
2.13484e-18
1.93128e-16
1.55036e-16
4.76654e-15
8.96612e-11
1.53814e-07
3.21942e-05
0.00116827
0.0111401
0.043331
0.0995669
0.171895
0.253534
0.33994
0.424972
0.506103
0.642112
1.42351
)
;

boundaryField
{
    inlet
    {
        type            calculated;
        value           uniform 0;
    }
    outlet
    {
        type            calculated;
        value           nonuniform List<scalar> 
165
(
1.16554
1.42637
1.43225
1.4265
1.42257
1.42069
1.42164
1.42306
1.42351
1.42358
1.42477
1.42992
1.44092
1.45434
1.47317
1.47893
1.50805
1.5044
1.56456
2.07063
2.07063
1.57164
1.51222
1.51669
1.48835
1.4817
1.46351
1.45036
1.4408
1.43702
1.43637
1.43634
1.43634
1.43634
1.43634
1.43634
1.43634
1.43634
1.43634
1.43634
1.43634
1.43634
1.43634
1.43634
1.43634
1.43634
1.43634
1.43634
1.43634
1.43637
1.43702
1.4408
1.45036
1.46351
1.4817
1.48835
1.51669
1.51222
1.57164
2.07063
1.42351
1.42351
1.42351
1.42351
1.42351
1.42351
1.42351
1.42351
1.42351
1.42359
1.42477
1.42992
1.44091
1.45434
1.47317
1.47893
1.50805
1.5044
1.56456
2.07063
1.42351
1.42351
1.42351
1.42351
1.42351
2.07063
1.56456
1.5044
1.50805
1.47893
1.47317
1.45434
1.44091
1.42992
1.42477
1.42359
1.42351
1.42351
1.42351
1.42351
1.42351
1.42351
1.42351
1.42351
1.42351
2.07063
1.57164
1.51222
1.51669
1.48835
1.4817
1.46351
1.45036
1.4408
1.43702
1.43637
1.43634
1.43634
1.43634
1.43634
1.43634
1.43634
1.43634
1.43634
1.43634
1.43634
1.43634
1.43634
1.43634
1.43634
1.43634
1.43634
1.43634
1.43634
1.43637
1.43702
1.4408
1.45036
1.46351
1.4817
1.48835
1.51669
1.51222
1.57164
2.07063
2.07063
1.56456
1.5044
1.50805
1.47893
1.47317
1.45434
1.44092
1.42992
1.42477
1.42358
1.42351
1.42306
1.42164
1.42069
1.42257
1.4265
1.43225
1.42637
1.16554
)
;
    }
    obstacle
    {
        type            calculated;
        value           nonuniform List<scalar> 
40
(
2.61774e-08
1.22489e-07
2.30392e-07
2.60711e-07
2.49631e-06
0.000196076
0.00285719
0.0131553
0.0284379
0.0360875
2.61775e-08
1.22489e-07
2.30392e-07
2.60711e-07
2.49631e-06
0.000196076
0.00285719
0.0131553
0.0284379
0.0360875
0.0453829
0.0627876
0.0810471
0.105356
0.153427
0.0453829
0.0627876
0.0810471
0.105356
0.153427
0.175714
0.141657
0.122378
0.119959
0.189643
0.175714
0.141657
0.122378
0.119959
0.189643
)
;
    }
    empty
    {
        type            empty;
    }
}


// ************************************************************************* //
