/*--------------------------------*- C++ -*----------------------------------*\
| =========                 |                                                 |
| \\      /  F ield         | OpenFOAM: The Open Source CFD Toolbox           |
|  \\    /   O peration     | Version:  v1912                                 |
|   \\  /    A nd           | Website:  www.openfoam.com                      |
|    \\/     M anipulation  |                                                 |
\*---------------------------------------------------------------------------*/
FoamFile
{
    version     2.0;
    format      ascii;
    class       scalarField;
    location    "0.0003/lagrangian/dsmc";
    object      Ei;
}
// * * * * * * * * * * * * * * * * * * * * * * * * * * * * * * * * * * * * * //


12954
(
2.994681059e-20
6.36156639e-21
5.683623968e-21
2.853865256e-20
5.195804904e-21
4.641245814e-20
2.501022093e-21
2.409768513e-20
1.417175483e-20
1.088481063e-20
3.201142067e-21
3.504831998e-21
2.640832995e-20
8.828703941e-21
2.840675591e-21
8.071059026e-21
1.517834528e-20
2.509193511e-20
9.270293773e-22
6.527083646e-21
6.984088419e-21
4.031993646e-21
1.941373297e-20
3.840479855e-21
3.904449823e-22
4.400044548e-21
1.124323482e-21
7.08586e-21
1.59075657e-20
1.194127946e-20
1.744563889e-21
4.877696054e-21
8.299733439e-21
5.135105755e-21
1.656304043e-21
1.220163869e-20
3.077948891e-20
5.998652474e-21
3.12341822e-20
4.45455306e-21
1.72481747e-20
8.892584758e-21
1.485712013e-20
1.1193482e-20
4.180788194e-21
4.652011765e-21
2.433481207e-21
1.146350129e-20
1.870591223e-21
1.038020322e-20
5.388637777e-21
1.140054192e-21
2.44850897e-20
3.009507093e-20
2.335440452e-20
1.169719004e-20
1.070914745e-20
5.125552282e-22
6.243269167e-22
2.187632402e-21
1.660712717e-21
7.258938826e-21
8.575732992e-21
3.193838539e-21
3.277949638e-21
5.327286566e-21
5.682776347e-21
2.498504789e-21
1.808742909e-22
3.872151191e-20
1.126181826e-20
1.899468478e-20
3.809991876e-21
1.737420317e-20
2.871513436e-21
2.076358224e-21
6.69430758e-21
3.488425675e-21
3.430868571e-21
1.102528704e-20
2.529561602e-21
5.401519782e-20
3.066851962e-21
3.736028148e-21
3.965971846e-20
7.271758165e-21
2.595984524e-20
3.277633668e-21
3.740561997e-21
5.935603445e-21
1.332258348e-20
6.375447822e-20
5.513284948e-21
7.615417645e-21
3.288353649e-20
1.456280518e-21
1.457152437e-20
1.073715044e-21
2.518216226e-20
6.36931473e-21
1.434780153e-20
8.682792553e-21
6.226540878e-21
3.057633333e-21
5.1602044e-21
2.352244683e-20
3.131567099e-20
2.455809374e-20
4.886176504e-21
4.369141568e-21
1.149385506e-21
9.18917761e-21
6.775903581e-21
1.229871843e-20
1.162992252e-21
1.753099795e-20
2.091199161e-21
5.753565848e-21
1.669230472e-20
6.96882611e-21
6.606489166e-21
5.53296411e-21
1.028945016e-20
3.121141336e-21
2.068297326e-21
2.638351394e-20
5.428361425e-21
1.263613261e-21
3.0512299e-20
4.375898555e-21
7.898381263e-21
1.588729692e-20
4.96162803e-21
1.12849532e-20
4.052501059e-20
3.603455896e-21
3.25633573e-21
2.489467884e-20
1.219008486e-20
2.074821635e-20
7.516435999e-21
5.862062452e-21
2.268835872e-20
3.163641281e-21
2.570063709e-21
2.145858901e-21
1.84392915e-20
2.888187412e-21
2.286820275e-20
4.478579977e-21
3.379153273e-22
3.891975853e-21
1.317832824e-20
5.895607177e-21
1.132012044e-20
1.107308597e-20
6.947198187e-21
6.873335186e-21
5.601948991e-21
6.404026993e-21
1.431265812e-20
1.201157119e-21
4.716534206e-21
5.536331891e-21
1.08957067e-21
6.445683327e-21
2.383014651e-21
3.54620621e-22
4.639315895e-21
2.247230717e-21
3.267002975e-21
2.005152992e-22
8.141081742e-21
9.463054584e-21
2.006758354e-21
1.905655871e-20
3.217820885e-22
4.109883338e-21
1.421897534e-21
3.556846878e-20
6.041471237e-21
1.421793785e-20
1.288757572e-20
5.034058848e-21
4.587936558e-21
3.414580995e-21
5.942098625e-21
1.939027513e-21
2.956145659e-20
3.727182953e-21
9.235145757e-21
4.942643052e-22
5.776262209e-22
2.609379043e-21
2.036989645e-20
8.744937947e-21
3.80288145e-21
3.472015399e-21
8.497210523e-21
1.937756866e-21
2.674366565e-20
2.072243237e-20
1.330554281e-20
6.999154554e-21
8.604699471e-21
9.66143946e-21
1.300817752e-20
1.600164604e-20
1.667319504e-20
1.81419241e-20
1.342294276e-20
2.44436461e-21
5.152401396e-22
2.249243434e-20
1.656830379e-20
8.38568407e-21
8.335706473e-21
9.527018405e-21
1.117985236e-21
3.817814292e-21
1.324693185e-20
8.234468873e-21
2.366324665e-20
3.427457731e-21
1.237034666e-21
3.719376644e-21
3.171612129e-20
1.391705761e-21
1.134484204e-20
2.368476121e-21
7.748646153e-21
1.464748074e-20
1.481405714e-20
2.358877372e-22
1.370027002e-21
1.084030284e-20
2.165503683e-20
9.320724198e-21
1.276729417e-20
1.958300322e-21
1.209860118e-20
5.191086672e-21
3.422947477e-21
6.351896067e-21
2.488686951e-20
2.94709503e-21
6.791745333e-21
8.639366921e-23
8.171576314e-21
5.691367982e-21
6.060496156e-21
4.820253025e-21
2.907495686e-22
2.383035965e-21
3.762309703e-21
4.263338403e-20
1.865339079e-20
3.675321005e-21
6.520169197e-21
6.145780065e-21
2.934003861e-21
5.735822813e-21
1.334973671e-20
4.275702935e-22
2.780175902e-20
2.715172744e-21
3.562040537e-21
2.136767321e-22
5.981529154e-23
4.224159521e-21
4.56865538e-21
9.500259555e-21
4.282502064e-21
1.082801369e-20
4.11919316e-21
3.224168541e-20
4.177636898e-21
4.712349937e-21
8.66775335e-21
4.918343349e-21
2.258201177e-20
4.62762267e-21
1.225197694e-20
2.461692276e-21
4.818554246e-22
1.249810677e-20
7.456624192e-21
2.503871362e-20
1.331443524e-20
6.84829921e-21
3.700571839e-21
6.15515512e-22
5.099409787e-21
3.142900036e-21
2.705238538e-21
2.615339318e-21
2.116360019e-21
3.527997476e-21
1.218626698e-20
5.28328403e-21
2.020130316e-20
1.017558796e-20
1.7728413e-20
2.637701584e-21
1.055859143e-20
2.876913653e-21
6.87296827e-21
4.900551863e-22
1.655181849e-20
2.739906386e-20
4.135143599e-21
1.015563923e-21
4.241369485e-20
1.665314946e-20
1.161664426e-20
7.465806126e-22
4.351028263e-22
5.752113472e-21
9.77428633e-22
1.378714708e-21
2.615681844e-20
1.595599603e-21
1.747143705e-20
5.487311108e-20
2.055155346e-22
8.624743074e-21
1.11799732e-20
1.735775457e-20
3.416616034e-21
1.57576769e-21
8.88318054e-21
2.869595113e-21
6.429473483e-21
5.403032735e-21
6.5367893e-21
7.012750256e-21
1.887855883e-22
1.554392115e-20
8.497706961e-21
6.136962387e-21
9.190665327e-22
1.553725867e-20
2.582323571e-21
1.140577189e-21
1.143774141e-20
2.76264433e-20
2.085903881e-20
5.15460565e-21
7.192979018e-21
3.922832012e-20
1.581066574e-21
2.546371206e-20
3.319684145e-22
5.528358674e-21
6.37883164e-21
1.167234722e-20
1.354429966e-21
2.513441939e-21
1.195219958e-20
9.981510477e-21
2.667036998e-20
1.625341633e-20
8.381937704e-22
9.461552531e-21
7.314209745e-21
1.408591508e-20
1.44605729e-20
3.042425247e-21
3.454826282e-21
6.337598139e-21
8.269005781e-21
1.094965013e-21
2.319805087e-20
4.061642622e-21
1.836729387e-20
7.462727219e-21
9.474761726e-21
5.533898926e-21
5.23310051e-21
2.298272271e-20
1.731388446e-20
8.917585728e-21
3.137566847e-20
3.450739411e-20
3.823205028e-21
1.455242497e-20
5.514109942e-21
1.952895102e-20
6.036470365e-22
3.043519879e-20
2.648771674e-21
1.750032339e-20
7.019104881e-21
1.039217348e-20
7.88335515e-21
1.321947053e-20
1.260350694e-21
1.24461913e-20
8.461703471e-21
1.779637059e-21
6.986577587e-21
3.631561647e-20
6.226306373e-21
3.080848458e-20
2.389776076e-21
1.927222398e-20
3.718899249e-20
2.547403464e-21
2.901979785e-20
1.655726971e-20
2.901336372e-20
1.619657762e-20
2.929649584e-20
1.749666672e-21
5.272344761e-22
4.981819844e-23
7.465621961e-21
4.399920175e-21
1.099799434e-20
4.303294689e-21
7.257115634e-21
2.517284142e-21
4.605049902e-21
2.00457621e-21
7.910109221e-21
1.677974394e-20
2.920401232e-20
2.439727874e-20
1.773822749e-20
1.313757035e-20
6.800476693e-21
8.821754437e-21
2.299845123e-20
4.002484631e-21
3.002152911e-21
1.921940312e-20
2.560315113e-20
2.4834121e-20
2.855249494e-21
2.484734478e-21
2.680985147e-21
8.864079376e-21
4.282125951e-22
2.395222435e-20
3.658091987e-21
2.161153023e-21
4.864436105e-21
1.402242789e-20
4.197966221e-21
8.769437273e-21
5.378377131e-21
1.845843127e-20
1.50783305e-21
2.414315754e-21
6.123195283e-21
2.694508522e-20
4.118019056e-21
1.591662452e-21
5.977274449e-21
4.613867707e-21
3.797264574e-21
1.713737249e-20
1.882593416e-21
6.420740239e-21
7.074206452e-22
1.01963088e-20
2.487261453e-20
3.878763551e-21
2.303798301e-20
3.092196145e-21
6.128144564e-21
4.860907151e-21
4.518697497e-21
1.623223709e-20
9.196037228e-21
1.558918776e-21
1.142263729e-20
8.355546126e-24
4.475248649e-21
3.500817624e-21
4.503062253e-21
1.571108378e-20
4.545483762e-21
4.453187058e-21
3.590773933e-20
6.248498665e-21
5.743295508e-22
3.715006609e-20
6.922712536e-21
4.087084666e-22
6.089113323e-21
1.530627418e-20
7.450654163e-22
3.385133044e-22
5.402315717e-21
1.940785548e-20
2.214880167e-20
3.957637569e-20
1.7729548e-20
4.453562626e-21
3.448372028e-20
4.370874279e-21
8.641125709e-21
2.056175396e-21
1.436755136e-20
5.977726267e-22
3.040818831e-21
1.223625626e-21
1.99505198e-20
2.180569655e-21
1.894140241e-20
1.091189867e-20
2.05163017e-20
2.1282594e-21
7.224883691e-22
2.700933909e-22
5.727524512e-21
8.274326227e-21
1.692135147e-20
6.826597877e-21
2.68713881e-20
2.5489552e-21
1.074946137e-20
1.918199144e-20
4.067991472e-21
7.498598912e-21
1.625168862e-20
1.160185547e-20
1.120941516e-20
1.469549924e-20
1.024119005e-20
2.16346612e-21
7.015519923e-21
3.678372444e-21
7.463357194e-21
5.88880439e-22
1.904327248e-20
2.551143549e-20
2.084828171e-20
1.709266412e-20
3.704378333e-20
1.006606101e-20
3.949633128e-21
5.548558138e-22
1.01163199e-20
1.902921336e-20
3.560455236e-21
9.268154635e-21
1.666907064e-20
2.846434055e-20
1.325369499e-20
7.580209553e-21
8.257554939e-22
1.563321205e-21
5.517408162e-21
5.712508463e-20
1.684964185e-20
1.115233144e-20
7.876270469e-21
2.825851788e-22
1.837368224e-20
1.990533809e-20
3.683685529e-21
9.275314996e-21
9.057944914e-22
1.32837431e-21
2.835434324e-21
5.697921324e-21
2.015745647e-20
1.452610332e-20
8.330262143e-22
2.976631026e-21
2.724742787e-21
7.021117484e-21
3.89860671e-21
1.812061039e-20
1.707411255e-20
5.721323924e-22
6.627563075e-21
1.658933012e-21
3.590863331e-21
5.626751959e-22
1.317401802e-20
1.952015352e-20
2.609404997e-21
9.81699241e-21
5.376280791e-22
1.237887529e-20
5.201661358e-21
7.074188172e-21
1.269324819e-20
6.917325675e-21
6.747435084e-21
1.557531677e-21
2.805884834e-21
1.808598232e-20
6.90689839e-21
1.76119038e-22
1.60430069e-20
6.095904428e-20
2.369325616e-20
8.053344881e-21
3.422122479e-21
3.729170873e-21
2.461825747e-21
2.286689182e-21
1.6578947e-20
7.436485631e-21
2.6362242e-20
3.298043104e-21
2.40801097e-20
1.200036038e-20
2.700363337e-21
1.445382803e-21
5.166617684e-21
2.844329031e-21
5.318773694e-21
5.173054268e-21
7.776264178e-22
2.388644227e-20
2.262654486e-20
7.570093062e-21
3.28306454e-21
1.439667356e-20
6.37261348e-21
1.375816399e-20
8.392980927e-21
1.829571971e-21
1.021758018e-21
2.113381484e-21
5.663791027e-21
2.981267699e-21
2.275724201e-20
2.412731728e-20
8.571138715e-22
5.368311488e-21
2.577034512e-21
8.726283876e-21
1.495107544e-20
6.069823661e-21
2.343852705e-21
1.182578982e-20
8.459159864e-21
2.144077252e-20
2.964490824e-21
7.517076982e-21
1.792203405e-20
5.495574793e-21
4.796672313e-21
2.082471692e-21
4.959227113e-21
2.962073804e-21
6.612379671e-21
1.828226685e-20
2.508149569e-20
6.333808777e-21
5.532256035e-22
1.514350384e-21
2.038084345e-21
1.739505411e-22
4.242779859e-21
5.84773018e-23
2.462720493e-21
2.554378529e-21
3.284936309e-21
8.018558365e-21
5.263915745e-20
1.756227389e-21
1.475615427e-20
3.944635043e-20
6.545637035e-21
1.858417407e-21
3.155169523e-20
3.079678399e-21
7.074053308e-21
3.671710701e-21
1.549283079e-21
1.332975499e-21
2.30769733e-20
2.318756768e-20
1.641634623e-20
7.89983046e-21
4.597976966e-21
2.707682414e-21
5.388764932e-21
3.961938881e-20
2.24669449e-20
2.015357619e-20
5.697460747e-21
7.838932987e-22
2.568546837e-22
4.078106983e-20
5.251295394e-22
4.110428585e-21
2.639120459e-20
5.639755673e-21
2.378086481e-21
2.165092187e-21
5.675795312e-21
1.882836449e-21
3.926553361e-21
4.028921775e-21
1.291710501e-20
8.499669314e-22
1.049932338e-20
2.161194576e-20
9.770210404e-22
4.100888209e-22
4.006706378e-21
1.230775128e-20
9.540323556e-21
1.343078705e-21
1.828855444e-21
4.119127769e-21
4.026226423e-21
3.204253582e-21
4.723852123e-21
2.0974255e-20
5.695969024e-21
4.304158962e-21
4.777948341e-21
1.273082412e-21
5.659398424e-21
3.015262409e-21
6.463447552e-21
1.8963644e-20
3.495375867e-21
7.893362527e-21
1.999725291e-21
3.748560827e-21
4.904020929e-21
6.262272023e-21
8.936902014e-21
3.331095324e-20
6.090445882e-21
6.006433744e-21
5.849291503e-21
8.960828226e-21
4.36265159e-21
5.803966485e-21
3.204713259e-21
5.368117205e-20
4.240522316e-21
9.162877462e-21
1.213997009e-20
4.12885692e-21
1.998206213e-21
9.915238999e-21
9.005266459e-21
2.52702117e-20
2.010598717e-21
1.406200072e-20
6.07346564e-21
1.751406274e-20
2.127604416e-20
2.986989771e-21
1.593953276e-20
9.073328264e-21
1.746521116e-20
7.857315122e-21
7.425254068e-22
3.202945012e-20
6.592675833e-21
6.166106377e-21
2.343819198e-20
2.078344971e-20
9.505672809e-21
4.26355072e-21
9.341127707e-21
8.737402309e-21
7.535290771e-21
2.837871429e-21
9.751589667e-21
1.102680964e-20
1.010282551e-21
7.333481045e-21
9.772143747e-21
1.235070003e-21
1.562262381e-21
1.855213019e-20
2.901734064e-21
5.292286592e-21
1.099602203e-20
2.334607286e-22
7.311201791e-21
2.247145341e-20
4.390279688e-21
1.610638969e-21
4.560730159e-22
5.748721211e-21
1.141194069e-20
1.075737297e-21
1.016468537e-20
1.165305094e-20
2.619972703e-20
7.49557299e-21
4.102351849e-21
7.187723396e-21
8.565612461e-22
8.608425159e-21
2.144433928e-21
1.621047648e-20
8.579073897e-21
6.289069705e-22
5.256560938e-21
3.040774256e-21
1.554847271e-22
2.289191806e-21
1.842823475e-20
2.78609128e-21
1.418054565e-20
2.001814487e-20
2.478619364e-20
4.203057402e-21
1.812885636e-21
5.748391071e-21
3.069166812e-23
2.821244813e-20
9.657639447e-21
2.774136228e-21
8.663778618e-21
4.444331437e-22
4.228491557e-21
1.639008748e-20
4.036107572e-21
1.838926974e-21
9.951287297e-21
2.070622661e-21
1.906454773e-20
3.566743617e-21
3.417652072e-20
3.169681852e-21
2.442506108e-21
1.789159259e-20
1.349743582e-20
3.193929805e-22
2.612836651e-20
1.725178529e-20
1.07134291e-20
2.293574017e-21
1.609785553e-20
5.13776565e-21
1.877681149e-20
7.323972088e-22
5.805259639e-21
2.346342106e-20
5.458366198e-21
7.812601181e-21
1.056834883e-20
2.729660041e-21
3.790561324e-21
2.503226588e-21
2.50924145e-20
4.02810274e-21
2.336106503e-20
1.0901266e-20
3.530171199e-21
1.070501114e-20
2.177485961e-21
2.756534032e-21
3.099582445e-22
2.108430278e-20
1.199914315e-20
3.295052253e-21
2.578760751e-20
4.979146569e-21
5.272888289e-21
2.633873471e-20
1.610056691e-22
1.560095918e-21
5.803296123e-21
6.976244812e-21
2.138797473e-21
2.278452414e-20
1.286901051e-20
9.219038909e-22
6.131087588e-21
4.346088212e-21
1.31601625e-20
9.990976405e-22
3.092130842e-21
1.238464247e-20
1.03492255e-20
9.680115137e-21
3.301168769e-20
2.08154033e-20
5.383184984e-21
2.967140033e-21
1.007593844e-22
1.006906412e-20
1.416137585e-21
1.556161198e-20
1.307824941e-20
1.017245194e-21
2.60193422e-21
7.675739346e-21
1.021603329e-20
2.246650305e-21
2.246993352e-21
1.157912479e-20
8.992659243e-22
1.369705742e-20
3.006176428e-21
5.422871669e-21
3.266363947e-21
2.407655367e-21
1.399516074e-21
2.310170667e-20
2.184310529e-21
5.397367907e-21
7.716651548e-21
9.750117592e-21
4.609746222e-22
3.780378761e-21
8.341945951e-21
1.78468547e-20
1.722681496e-21
1.584748728e-21
1.142475578e-20
4.787017987e-21
5.16700924e-21
2.001039223e-20
4.21899131e-20
1.02767034e-20
6.880209557e-21
9.710253001e-22
1.174882958e-20
2.016791846e-21
1.837651179e-20
1.307108256e-20
1.630943602e-20
7.319806759e-21
3.439912177e-20
2.4103599e-20
9.999092566e-22
8.617840672e-21
1.285338591e-21
2.379702745e-21
2.384441875e-21
1.337966434e-20
1.001288738e-21
7.207822274e-21
1.236119919e-20
7.240214553e-21
6.213693791e-21
1.697962277e-21
1.050070226e-20
1.866041351e-20
8.017839116e-21
1.682755034e-20
1.031200674e-20
1.362718205e-21
4.427638662e-20
2.604931692e-20
5.496178218e-21
7.255314152e-23
5.928791016e-21
3.511912043e-20
3.881968016e-20
6.501130339e-21
9.703802023e-21
2.149578472e-21
3.860269541e-20
6.924666722e-21
3.898169324e-20
1.934854642e-20
2.483196039e-20
6.123700271e-21
1.597710529e-20
6.957350556e-21
4.32389265e-21
2.167544474e-20
6.497543517e-22
4.38596977e-21
9.82509839e-22
1.641410385e-20
7.161812003e-21
6.037555985e-21
3.953281192e-21
1.067686257e-20
5.241810963e-21
1.029980461e-20
3.260267893e-21
4.454787407e-20
2.324035302e-21
3.261843698e-21
1.871977157e-21
2.672285048e-21
2.842959288e-21
1.533242393e-22
7.098920033e-23
6.026660048e-21
1.539316641e-21
3.749153358e-21
1.062091515e-20
1.438934739e-20
3.007085677e-21
2.177163579e-20
1.832456853e-21
1.400286301e-20
5.93184339e-21
4.37208332e-21
1.52694249e-21
1.464996817e-20
1.085062133e-20
2.186418022e-20
4.056568089e-20
2.119533199e-20
1.704948412e-20
6.431855919e-22
2.292283731e-21
1.351195953e-20
1.423777504e-20
1.120669991e-20
4.698007646e-21
1.365401838e-20
3.861977394e-21
4.212236119e-22
8.065151058e-21
1.139401063e-20
1.090205002e-21
2.929307878e-21
8.634559787e-21
3.448197835e-21
2.923864571e-21
3.756898555e-21
1.391402137e-20
2.577035319e-21
9.491329318e-21
1.456906311e-20
5.267770324e-21
2.470775692e-20
1.449527236e-20
9.444037465e-21
1.101950828e-20
2.837302006e-21
7.992565644e-21
1.882125854e-21
1.152509524e-21
1.768383747e-20
8.116177077e-21
1.968127603e-21
8.140392603e-21
6.173544821e-21
1.147816119e-21
1.103319543e-20
9.709288747e-21
1.650053058e-20
2.979822054e-20
2.181011207e-21
7.409153695e-23
2.802420005e-20
7.440952664e-21
1.31508678e-21
1.231524996e-20
8.796734175e-21
1.325635378e-20
2.110320453e-21
5.648274941e-20
8.39451064e-21
4.151989584e-21
2.102773644e-20
2.775181387e-20
4.522329438e-21
5.859653293e-21
3.985224889e-21
5.60607706e-21
1.126336176e-20
3.262349636e-20
1.196473713e-20
1.462231629e-20
5.570293998e-21
2.623017874e-20
1.909065348e-20
2.11446936e-20
1.629694083e-20
5.719206967e-21
7.851070359e-21
2.909288629e-21
1.08995156e-20
7.725427832e-21
2.568204906e-20
1.062737028e-20
2.433881105e-20
1.065924428e-20
1.472518237e-20
1.845857369e-20
9.537445657e-21
1.617041448e-23
2.071915231e-20
2.711231394e-22
1.623935981e-20
1.995858152e-21
4.607944582e-21
6.005619189e-21
2.445353007e-21
8.957244333e-21
2.740686677e-21
5.248562001e-21
3.795511555e-21
9.129986181e-21
1.890474211e-20
4.438866577e-21
5.939070215e-21
2.820963798e-21
2.813621519e-21
3.685890089e-21
1.906174996e-20
3.763936128e-21
1.959906802e-21
5.404516855e-21
3.177239886e-21
4.008957288e-21
1.408934507e-20
6.24941836e-21
1.995424947e-20
9.959777004e-21
2.04827873e-21
1.520226963e-20
3.281465235e-21
4.55566158e-21
6.842995777e-21
3.580522733e-21
9.924784518e-21
6.190501461e-22
2.320262891e-20
9.326425882e-21
7.779276067e-21
8.794912997e-21
2.445054847e-21
2.382411714e-21
4.029151067e-21
4.013835947e-21
9.761767192e-20
8.529785536e-22
6.613599115e-21
9.422791722e-21
3.175302401e-20
2.209786798e-20
8.188770618e-21
3.061521746e-20
8.625923702e-22
1.194230637e-20
6.060700051e-21
4.405414134e-21
1.132565241e-21
2.42005359e-21
1.267889403e-20
8.030063433e-21
2.61680345e-21
2.307473183e-21
5.488525485e-21
8.086864429e-21
2.343044833e-20
1.475547641e-21
9.760087421e-21
1.639865915e-21
1.100682014e-20
2.949574695e-20
7.354057878e-21
5.855377531e-21
1.310436386e-20
3.143688112e-21
1.888340507e-21
1.618956703e-20
1.629037525e-20
4.441824847e-21
3.763467934e-21
1.032400281e-20
1.520949212e-20
1.800073198e-21
7.077541271e-21
2.170959465e-20
5.669132543e-21
8.426900047e-21
2.96828968e-20
4.63869584e-21
5.714938274e-21
8.023593637e-21
3.349212164e-21
2.337894169e-21
4.279164625e-21
3.004028558e-20
5.094034951e-21
1.684097543e-20
1.389694051e-20
6.934654865e-21
7.519035806e-21
7.977541043e-21
8.869384864e-22
1.150124214e-21
5.688153563e-21
3.840053689e-21
1.057062298e-21
7.806266962e-22
2.855869274e-21
3.927906176e-21
1.778991614e-20
2.140249042e-20
3.211521961e-21
1.558719935e-20
2.968349715e-21
2.863812469e-21
3.196865519e-20
7.73362765e-21
1.909128032e-21
6.154017694e-21
2.842087581e-21
1.12479186e-20
4.937758924e-21
3.27132187e-21
4.569489509e-21
1.880850411e-22
4.742917184e-22
1.466181558e-21
1.15546883e-20
1.540416074e-20
2.712326604e-21
6.828871034e-22
9.999939932e-21
3.253043471e-20
1.099867373e-21
3.602116832e-20
2.848554218e-21
2.314199028e-20
9.16399756e-21
1.906187018e-21
1.14291151e-20
2.85312708e-21
1.007248306e-20
1.247721253e-20
8.085892482e-21
9.287653656e-21
2.91495478e-21
7.22462325e-21
6.604776392e-21
7.212426917e-21
1.444180708e-20
1.093011074e-20
9.356863919e-23
2.395904227e-21
5.727665774e-21
9.099768337e-21
1.358145068e-21
1.836350026e-21
4.280537269e-21
2.780228464e-20
2.448469904e-20
6.106887382e-20
9.693384102e-21
1.136021014e-20
4.696892369e-21
2.271546231e-21
5.85437618e-21
9.207120941e-21
1.085469311e-21
1.745488536e-20
4.194032673e-22
6.502689249e-21
1.163379607e-21
4.784487848e-21
6.541516676e-21
3.531116452e-21
4.784904262e-21
4.066718497e-20
7.191613648e-22
9.61756979e-21
3.483260291e-21
8.73979132e-21
2.799640382e-21
1.820664924e-21
2.69395147e-20
1.910605268e-20
5.978611264e-22
1.064257571e-21
2.294476614e-22
6.925474388e-21
8.614150972e-21
1.416696434e-20
1.710989556e-20
5.0617977e-21
4.214638163e-21
1.407222498e-21
1.133707121e-20
3.429475417e-21
2.516326621e-22
6.354201552e-21
9.428239651e-21
3.863922472e-21
5.09531002e-20
1.004219317e-21
3.968228019e-21
7.806744835e-21
9.646504606e-21
3.045336396e-22
2.337519313e-20
2.464142472e-21
9.474214398e-21
2.367322879e-20
2.644531105e-20
2.958691237e-20
1.070606493e-20
9.870047019e-21
8.110402467e-21
4.730776651e-21
5.560694155e-21
2.710103213e-20
5.332301156e-21
4.997133282e-21
1.597311481e-22
1.623554847e-21
1.017289589e-21
2.919130077e-21
1.273053881e-21
2.68967114e-20
5.822772347e-22
3.214466276e-22
5.890301204e-22
9.676794571e-21
1.66865117e-20
1.621187683e-20
1.052211606e-20
3.725890888e-20
1.337852756e-20
9.731430697e-21
2.050378857e-20
1.585129031e-20
2.923137941e-20
7.010127797e-21
2.414679448e-21
9.019006342e-22
2.41446932e-20
1.878257729e-21
3.336099794e-21
2.578399537e-21
1.473061902e-21
8.55994596e-21
1.306312997e-21
1.508396522e-21
2.076106599e-20
5.430753766e-21
4.40035043e-20
1.481948167e-20
4.580654051e-22
6.04462598e-20
4.38381226e-21
1.639557159e-21
1.738676176e-20
2.970510095e-21
5.461804129e-21
1.28828813e-20
8.919683879e-21
1.632132544e-20
4.837012492e-21
8.808964302e-21
1.334496196e-20
1.30813709e-21
1.406913587e-20
1.289575565e-20
3.815331935e-21
1.819759733e-20
5.327495544e-21
2.655627265e-20
7.37557278e-22
6.296235098e-21
2.910102291e-21
1.890100233e-20
7.043077634e-21
5.578497119e-21
2.198676109e-20
7.379068921e-21
5.059707573e-22
7.259641382e-22
3.175835726e-21
6.279791207e-21
1.326119526e-21
5.510131197e-21
2.256022782e-21
5.187180562e-21
3.910356294e-21
2.95286208e-20
1.13805113e-20
4.010595096e-21
1.018636136e-21
2.940017057e-21
4.267490501e-21
1.140039682e-20
2.019516918e-21
1.384381267e-20
2.933219129e-20
1.655011893e-20
2.737186227e-20
2.032929299e-20
1.562153737e-20
7.156340004e-22
1.110734585e-20
3.714404196e-21
2.287557524e-20
1.462472301e-21
1.668685873e-21
1.389272472e-20
2.990617611e-20
2.422647249e-21
7.898809398e-21
7.630379357e-21
7.949591439e-22
1.13442943e-20
8.703584498e-22
5.01105981e-21
2.707210483e-21
7.541542452e-21
9.368607449e-21
4.682794408e-21
7.619144517e-21
5.900484846e-21
1.170509424e-20
2.033757689e-22
7.499367628e-21
2.867636379e-20
3.816513162e-20
1.696050169e-20
5.426094698e-20
1.447100815e-20
6.299113232e-21
2.972574773e-21
4.594771004e-21
1.561989543e-20
7.308148344e-21
6.820315993e-21
3.59647206e-21
3.557722024e-21
1.982505365e-21
5.523385656e-21
2.826059709e-20
7.743350082e-21
1.035066165e-20
3.001126683e-20
1.032385089e-20
8.710585182e-21
3.714413898e-21
6.238952574e-22
1.446662242e-20
3.319559825e-20
2.229114e-20
3.247389677e-21
2.64151057e-21
8.102616275e-21
1.566482619e-21
8.118239142e-22
2.767713869e-20
2.458270766e-21
1.478363881e-20
2.502677736e-20
4.266327586e-21
2.421751321e-22
1.068443567e-21
7.274930483e-21
1.676230946e-20
1.532504678e-20
5.048089854e-21
5.845969516e-21
2.136121841e-20
4.261863006e-21
3.484620125e-21
1.062534321e-20
9.390325098e-21
1.037038288e-20
1.204354475e-20
4.341266621e-21
5.531632137e-21
9.273159728e-21
1.415698052e-20
4.822626481e-21
3.760389446e-21
6.516315293e-21
5.939393979e-22
2.229220868e-20
1.912781367e-20
6.697566444e-21
2.568762091e-21
1.431452426e-20
1.837934184e-21
1.057983298e-20
1.094542173e-20
7.382050164e-21
2.824726977e-22
6.348831845e-21
1.836616664e-20
7.722721517e-21
5.122083227e-21
1.139643107e-20
3.49337615e-20
5.172151063e-21
7.087329351e-23
2.554821811e-20
1.807268135e-21
2.660235275e-20
1.946537243e-21
2.022436342e-20
8.770714712e-21
3.677961287e-20
1.165241577e-20
5.803623499e-22
7.303104022e-22
2.425419898e-20
1.1476492e-21
2.893535042e-20
2.172854559e-20
2.201331005e-20
9.787057179e-21
1.15975921e-20
9.948687474e-21
6.87572916e-22
2.014141099e-20
7.539661651e-21
1.66217793e-20
1.785561398e-21
1.275820882e-20
5.346619317e-24
4.495692011e-20
7.264652533e-22
7.408530988e-21
1.990648038e-20
5.3823958e-20
3.478105017e-21
2.451484096e-21
6.720706121e-21
5.457180544e-22
1.03726312e-20
4.719245651e-21
1.107780132e-20
1.490773713e-20
1.722671888e-20
8.203531555e-21
1.102864304e-20
4.322079386e-21
2.362771852e-21
1.609228672e-22
2.034860908e-21
2.224075736e-21
1.849536448e-20
5.581548337e-21
6.816626254e-21
5.028635375e-21
2.486989977e-21
1.94378513e-21
7.2861679e-21
3.207523401e-21
4.338071415e-21
3.968920332e-21
4.585582944e-21
4.105611122e-21
4.250446987e-21
4.033963253e-20
1.813731867e-20
3.324079495e-20
1.216730795e-21
7.513823804e-21
1.286676494e-22
1.95965213e-20
5.151180241e-21
5.668687614e-21
1.35068097e-20
3.022449111e-21
6.894112186e-20
5.588333187e-21
9.340557149e-21
1.652893418e-21
1.881991312e-20
5.674993169e-21
6.820903516e-21
5.702456575e-21
1.755774969e-20
4.273358449e-21
2.119162072e-21
8.822193087e-21
3.040906149e-21
8.257586134e-22
6.368324473e-22
4.923335238e-21
1.531094133e-20
3.971543307e-21
8.783168152e-21
1.685757492e-20
3.199119707e-21
2.250987793e-21
3.680926743e-20
8.585701381e-21
1.630065952e-20
5.073060971e-21
1.910661257e-20
1.136148792e-20
7.906604063e-21
9.390462591e-21
9.198527813e-21
1.027592093e-20
1.541419626e-20
7.507836753e-21
1.622038252e-20
1.31674662e-22
1.6717662e-20
1.836853348e-20
2.942158599e-20
9.286683646e-21
3.064479904e-21
3.451658844e-21
3.761481869e-21
6.315280101e-21
1.640243231e-20
2.305534867e-21
1.104964761e-20
4.239547073e-23
8.326279583e-21
2.111569259e-21
4.370690394e-21
5.476450365e-21
4.521441093e-21
2.939014297e-20
1.757337935e-20
2.714297914e-20
2.707203651e-22
1.082160481e-20
5.463091975e-21
6.46600093e-20
1.814362768e-20
1.761449789e-21
1.059167654e-20
2.249662064e-21
5.698249199e-21
2.54431617e-22
3.277009624e-21
1.024661802e-21
7.39810587e-21
5.816376862e-21
8.248351674e-21
2.986765818e-21
2.32762704e-21
3.758308642e-20
3.708554363e-21
1.545730031e-21
1.146080399e-21
6.164657757e-22
2.088587328e-21
6.92739543e-21
5.829663801e-21
4.119655875e-22
1.877620569e-22
4.076145331e-21
4.405939838e-20
2.162253743e-21
9.120856128e-21
4.669518865e-20
5.982930367e-22
5.59073591e-20
2.135557382e-21
1.424033548e-20
1.350446261e-20
3.367185864e-21
7.493185339e-21
1.831012317e-21
1.504820577e-20
1.421951588e-20
4.875031076e-20
1.147659695e-20
4.250655974e-21
1.420312367e-22
9.167699947e-21
5.317056484e-21
4.473997514e-21
1.543624914e-20
2.835135393e-20
1.740978856e-20
5.908636344e-21
1.728360735e-20
3.613575656e-21
3.616647542e-21
1.017298549e-21
4.078992369e-21
6.242351966e-21
3.328648051e-21
2.596632865e-20
1.074838467e-20
2.002867205e-20
5.856246796e-21
3.710178954e-21
8.808518262e-21
1.873744229e-21
6.757347837e-21
1.101537532e-20
5.312069297e-21
1.495827788e-20
1.585919638e-20
2.398400975e-20
1.357648963e-21
1.32509544e-21
3.267454739e-21
1.030672514e-20
3.832601609e-21
6.333219688e-21
7.672753955e-22
1.31292943e-20
3.121176653e-23
1.07466037e-20
1.124845291e-20
7.643116027e-21
2.183924137e-20
3.632824247e-20
8.23981487e-21
7.07405543e-21
1.225333795e-21
1.462749001e-22
1.067762601e-20
6.817444751e-22
2.27918614e-20
8.05806742e-21
6.320969618e-21
8.548578153e-21
7.257021586e-21
8.005008956e-21
1.877787335e-20
4.414474552e-21
9.904684291e-21
1.366610623e-20
9.218422363e-21
1.314023062e-20
8.38377866e-21
8.22018941e-21
1.033986574e-20
1.067598259e-20
2.065365543e-20
7.485018072e-21
2.189368916e-21
3.507392865e-20
1.752486396e-20
3.193194395e-21
2.068684186e-21
7.784846925e-21
1.112026114e-20
2.610566533e-21
9.828135295e-21
1.738441291e-22
2.176288057e-21
1.019241835e-22
4.524274518e-21
2.607148606e-21
2.854885672e-21
7.975335494e-21
1.263791435e-20
1.351470975e-21
1.55018007e-20
1.262513629e-20
2.413356306e-21
1.552029253e-22
2.802222809e-20
1.280495592e-20
8.294141437e-21
6.843862639e-22
3.886105906e-21
2.913416712e-20
1.168314778e-20
1.20274762e-20
5.434645519e-21
2.343738738e-20
1.022287071e-20
5.998780679e-21
2.303289034e-21
2.041229685e-20
8.684491935e-21
1.102073307e-20
1.243425891e-20
4.942326198e-21
2.118022997e-20
9.47698777e-24
1.129173438e-20
2.600940496e-20
1.946496751e-22
2.932099847e-21
3.796782173e-21
7.622914966e-21
9.453029357e-21
7.919205664e-23
4.816431364e-21
1.186572875e-20
6.199679353e-21
3.414007901e-21
1.676193377e-20
9.052402609e-21
2.999897389e-20
5.561421813e-21
1.435359416e-20
3.984281667e-21
6.766519138e-21
3.07209098e-20
1.665616112e-20
5.595430528e-21
8.865414663e-22
1.456962331e-20
2.139789877e-21
2.897025961e-21
1.206014751e-20
4.401261869e-22
1.527435028e-21
3.365405839e-21
6.98482276e-21
1.654191144e-20
7.279403477e-22
2.20028209e-20
1.749123647e-21
1.702008093e-21
1.266052082e-21
2.275438869e-20
2.054167464e-20
5.068805784e-20
2.292775862e-21
1.110810489e-20
1.888835212e-20
4.927833375e-21
2.091379398e-21
1.308997243e-21
6.335799769e-21
3.864248397e-21
1.54929563e-20
9.823264433e-21
8.444992557e-21
3.130278346e-21
1.032045546e-20
7.790798599e-21
7.226239997e-21
1.989396396e-20
5.562824421e-21
9.361526418e-21
2.042422238e-21
1.700901431e-20
8.407382056e-21
1.10573465e-21
3.71012046e-21
2.858817705e-20
9.020119327e-21