/*--------------------------------*- C++ -*----------------------------------*\
| =========                 |                                                 |
| \\      /  F ield         | OpenFOAM: The Open Source CFD Toolbox           |
|  \\    /   O peration     | Version:  v1912                                 |
|   \\  /    A nd           | Website:  www.openfoam.com                      |
|    \\/     M anipulation  |                                                 |
\*---------------------------------------------------------------------------*/
FoamFile
{
    version     2.0;
    format      ascii;
    class       Cloud<dsmcParcel>;
    location    "0.0003/lagrangian/dsmc";
    object      positions;
}
// * * * * * * * * * * * * * * * * * * * * * * * * * * * * * * * * * * * * * //

12954
(
(0.04573348982 0.00878592297 2.5e-05) 1269
(0.0335593255 0.007957946565 2.5e-05) 1229
(0.03820609772 0.004125978492 2.5e-05) 1142
(0.03891377458 0.001613998123 2.5e-05) 1052
(0.04237968177 0.01895740013 2.5e-05) 466
(0.04792129565 0.01469095213 2.5e-05) 841
(0.03908057755 0.005520421744 2.5e-05) 1173
(0.05525530994 0.01254546553 2.5e-05) 828
(0.04191556431 0.009239354035 2.5e-05) 1296
(0.03288302382 0.0120899503 2.5e-05) 278
(0.04911368908 0.01723875767 2.5e-05) 872
(0.04223489597 0.009061081332 2.5e-05) 1296
(0.03354536908 0.002437097439 2.5e-05) 1077
(0.03614523966 0.0009878295972 2.5e-05) 1019
(0.0327609223 0.003064868887 2.5e-05) 1107
(0.03709126927 0.01125893515 2.5e-05) 252
(0.03814277234 0.002740629901 2.5e-05) 1082
(0.04581085501 0.01150921455 2.5e-05) 259
(0.03936237986 0.0121109904 2.5e-05) 284
(0.04226152655 0.01159539751 2.5e-05) 256
(0.03965035848 0.004675096936 2.5e-05) 1143
(0.05173428919 0.01972505976 2.5e-05) 895
(0.03941173647 0.007440888504 2.5e-05) 1233
(0.03484422145 0.006788935808 2.5e-05) 1199
(0.03772008246 0.01063816005 2.5e-05) 222
(0.05416616409 0.02149804097 2.5e-05) 917
(0.03574047652 0.006154705902 2.5e-05) 1200
(0.03705074817 0.005102547316 2.5e-05) 1171
(0.05248069011 0.01025224146 2.5e-05) 806
(0.04501490143 0.007023904111 2.5e-05) 1238
(0.05452297381 0.01354814609 2.5e-05) 838
(0.04623453654 0.005278355591 2.5e-05) 1179
(0.0454295243 0.01175824519 2.5e-05) 259
(0.03961280973 0.007801868466 2.5e-05) 1234
(0.05035269665 0.01163715616 2.5e-05) 813
(0.04868310261 0.01824022448 2.5e-05) 882
(0.05247404281 0.01181658344 2.5e-05) 816
(0.0306753337 0.003855253784 2.5e-05) 1105
(0.04071163074 0.01539950435 2.5e-05) 375
(0.05205928703 0.01725574072 2.5e-05) 875
(0.04460816456 0.0016166924 2.5e-05) 1058
(0.0403014531 0.008971749804 2.5e-05) 1264
(0.03714889428 0.009070964219 2.5e-05) 1292
(0.04519709073 0.01107158533 2.5e-05) 258
(0.04999238796 0.01279144775 2.5e-05) 823
(0.02936366147 0.008946083902 2.5e-05) 1255
(0.04023024976 0.005076685193 2.5e-05) 1174
(0.03291892643 0.001108277646 2.5e-05) 1046
(0.05479731326 0.01715759797 2.5e-05) 878
(0.044058359 0.01197314998 2.5e-05) 258
(0.04205842254 0.007284141232 2.5e-05) 1236
(0.02545758152 0.007078475376 2.5e-05) 1221
(0.04439007773 0.003784967612 2.5e-05) 1118
(0.04654677807 0.01416632575 2.5e-05) 840
(0.03793435367 0.009061811673 2.5e-05) 1292
(0.03664756516 0.004358267084 2.5e-05) 1141
(0.03126309091 0.01134970004 2.5e-05) 247
(0.04151752934 0.007255713768 2.5e-05) 1235
(0.02404178828 0.002590273519 2.5e-05) 1068
(0.04825007833 0.01166423062 2.5e-05) 811
(0.03344788119 0.001651502201 2.5e-05) 1047
(0.04907904314 0.0104450639 2.5e-05) 802
(0.04038988066 0.007745129664 2.5e-05) 1234
(0.04264525451 0.004055320678 2.5e-05) 1146
(0.04139378342 9.328170802e-06 2.5e-05) 1024
(0.04691335948 0.01366615431 2.5e-05) 830
(0.03056934158 0.006199970084 2.5e-05) 1196
(0.0413125312 0.007436350375 2.5e-05) 1235
(0.04230034885 0.005889479936 2.5e-05) 1176
(0.04074119329 0.007026313694 2.5e-05) 1235
(0.04478103757 0.01223603953 2.5e-05) 288
(0.05204566469 0.01589968151 2.5e-05) 855
(0.04061745806 0.001994767324 2.5e-05) 1054
(0.04180084213 0.007603106612 2.5e-05) 1236
(0.04711436417 0.01056929402 2.5e-05) 800
(0.05282121938 0.01940330833 2.5e-05) 896
(0.04363620774 0.008099510199 2.5e-05) 1267
(0.03277834096 0.003046014496 2.5e-05) 1107
(0.02924259319 0.005110358351 2.5e-05) 1164
(0.03465659167 0.008240716263 2.5e-05) 1259
(0.01763411653 0.004554826789 2.5e-05) 1123
(0.04447958969 0.008963374452 2.5e-05) 1268
(0.0428123269 0.004298259654 2.5e-05) 1146
(0.03508888878 0.005697924543 2.5e-05) 1169
(0.04221455746 0.0127688873 2.5e-05) 286
(0.04381387886 0.004700993379 2.5e-05) 1147
(0.04458875895 0.01644139659 2.5e-05) 408
(0.03768451868 0.001870112224 2.5e-05) 1051
(0.05073691861 0.01643148602 2.5e-05) 864
(0.03346896747 0.007989813976 2.5e-05) 1228
(0.03217388296 0.002311019359 2.5e-05) 1076
(0.0363677374 0.01169645571 2.5e-05) 251
(0.03675702436 0.009308920011 2.5e-05) 1291
(0.05470013299 0.01536684389 2.5e-05) 858
(0.05618083987 0.01517760908 2.5e-05) 859
(0.03321803526 0.003956336207 2.5e-05) 1107
(0.05555269814 0.01559844797 2.5e-05) 859
(0.05263364033 0.01720374338 2.5e-05) 876
(0.04869914278 0.01499692661 2.5e-05) 842
(0.04814880381 0.01165542378 2.5e-05) 811
(0.05566061003 0.01236791561 2.5e-05) 829
(0.03789327283 0.004082962907 2.5e-05) 1142
(0.04315078803 0.003732641888 2.5e-05) 1116
(0.03265406538 0.002536740373 2.5e-05) 1076
(0.03239819048 0.003111218975 2.5e-05) 1106
(0.03237808103 0.007991462413 2.5e-05) 1228
(0.04481845016 0.01607426786 2.5e-05) 408
(0.04012616811 0.003922414727 2.5e-05) 1114
(0.04458396228 0.006389610622 2.5e-05) 1208
(0.03318612776 0.007333243814 2.5e-05) 1228
(0.04973981219 0.01454835587 2.5e-05) 843
(0.03459780958 0.004296930221 2.5e-05) 1139
(0.03186306128 0.004898081117 2.5e-05) 1136
(0.05085816333 0.01604923985 2.5e-05) 864
(0.03953935858 0.005929022323 2.5e-05) 1173
(0.03895344873 0.0123599243 2.5e-05) 283
(0.05517038102 0.01339992795 2.5e-05) 838
(0.02350948655 0.002360258163 2.5e-05) 1068
(0.04173427645 0.00348643028 2.5e-05) 1115
(0.04176645799 0.01107555855 2.5e-05) 256
(0.02973553061 0.003446536579 2.5e-05) 1104
(0.05130167054 0.01855331981 2.5e-05) 884
(0.03668758966 0.01096481358 2.5e-05) 221
(0.033060691 0.005696322164 2.5e-05) 1168
(0.03951778148 0.003481517026 2.5e-05) 1113
(0.04672522164 0.01400137289 2.5e-05) 840
(0.03207643805 0.007551485155 2.5e-05) 1227
(0.03016902044 0.01243106295 2.5e-05) 276
(0.0305178955 0.002814489044 2.5e-05) 1075
(0.04037755265 0.009825663011 2.5e-05) 1295
(0.05640311251 0.01429783642 2.5e-05) 849
(0.03058655019 0.003681037863 2.5e-05) 1105
(0.03904035947 0.003168903379 2.5e-05) 1113
(0.0278494607 0.01089428705 2.5e-05) 214
(0.0358330256 0.009983899163 2.5e-05) 1291
(0.03981097762 0.005576646985 2.5e-05) 1174
(0.05185251547 0.01568684818 2.5e-05) 855
(0.04414171926 0.00238208218 2.5e-05) 1087
(0.0341612216 0.003160421354 2.5e-05) 1108
(0.04526111397 0.009680784744 2.5e-05) 1299
(0.04430868848 0.004891755682 2.5e-05) 1148
(0.0385645048 0.01343579082 2.5e-05) 313
(0.04804949968 0.01444423866 2.5e-05) 841
(0.04612558766 0.005710455228 2.5e-05) 1179
(0.01950170957 0.004735710616 2.5e-05) 1125
(0.03909323969 0.006498855225 2.5e-05) 1203
(0.03035158576 0.002449706306 2.5e-05) 1074
(0.05437222124 0.01562558346 2.5e-05) 857
(0.0537051426 0.01524419931 2.5e-05) 857
(0.05161253827 0.01467679487 2.5e-05) 845
(0.04139227069 0.006396141846 2.5e-05) 1205
(0.04624903986 0.01231998731 2.5e-05) 289
(0.03596367222 0.002733731292 2.5e-05) 1080
(0.03850956281 0.00970540087 2.5e-05) 1293
(0.05280477585 0.01647539248 2.5e-05) 866
(0.04136562766 0.01000277872 2.5e-05) 225
(0.02701009596 0.006140454524 2.5e-05) 1192
(0.03652442045 0.01097949089 2.5e-05) 221
(0.03603570831 0.006619055352 2.5e-05) 1200
(0.04403994512 0.01033180654 2.5e-05) 228
(0.03833661275 0.005120847123 2.5e-05) 1172
(0.03959355047 0.005144434918 2.5e-05) 1173
(0.05015532874 0.01282800758 2.5e-05) 823
(0.04919507354 0.01513959969 2.5e-05) 852
(0.04231324182 0.01220611865 2.5e-05) 286
(0.03960989938 0.007232542236 2.5e-05) 1234
(0.03979516964 0.008121455475 2.5e-05) 1264
(0.05375563752 0.02458535459 2.5e-05) 947
(0.02879865758 0.004181349147 2.5e-05) 1133
(0.0485453749 0.0106343256 2.5e-05) 802
(0.0493423797 0.01367614153 2.5e-05) 832
(0.04156518472 0.003649739519 2.5e-05) 1115
(0.0532534688 0.01382184301 2.5e-05) 836
(0.01977868419 0.001295678417 2.5e-05) 1034
(0.03678525132 0.01002897925 2.5e-05) 222
(0.05156222257 0.01847084144 2.5e-05) 885
(0.04939347769 0.01254292487 2.5e-05) 822
(0.03988870849 0.008946998542 2.5e-05) 1264
(0.05333903275 0.01483301182 2.5e-05) 846
(0.04380931458 0.009256016714 2.5e-05) 1297
(0.0383587892 0.007473800668 2.5e-05) 1233
(0.03925492372 0.00555152623 2.5e-05) 1173
(0.03114345123 0.008848050702 2.5e-05) 1257
(0.04565770362 0.008244808664 2.5e-05) 1269
(0.04056770012 0.009318469833 2.5e-05) 1295
(0.04441449121 0.0101003218 2.5e-05) 228
(0.03127305882 0.00716233318 2.5e-05) 1226
(0.05222561238 0.01603130244 2.5e-05) 865
(0.03547087924 0.006034777866 2.5e-05) 1200
(0.04263474969 0.007250529824 2.5e-05) 1236
(0.03181027218 0.0100438215 2.5e-05) 217
(0.04887455378 0.01565851037 2.5e-05) 852
(0.03461164465 0.004682138731 2.5e-05) 1139
(0.04322150843 0.001240860117 2.5e-05) 1056
(0.04406433971 0.01012115111 2.5e-05) 228
(0.05201114925 0.01439212706 2.5e-05) 845
(0.03845599888 0.00922031442 2.5e-05) 1293
(0.03411445323 0.01030149656 2.5e-05) 219
(0.03060863748 0.008089945156 2.5e-05) 1256
(0.05497369351 0.01276910024 2.5e-05) 828
(0.03894237753 0.01228779904 2.5e-05) 283
(0.04400018232 0.01818644501 2.5e-05) 468
(0.0443349254 0.01717551352 2.5e-05) 438
(0.03197989495 0.004594558117 2.5e-05) 1136
(0.03008373097 0.00442594361 2.5e-05) 1135
(0.03930507611 0.006611582009 2.5e-05) 1203
(0.04490747931 0.01140018429 2.5e-05) 258
(0.03898778609 0.006993540853 2.5e-05) 1203
(0.03973869252 0.006984572493 2.5e-05) 1204
(0.0535354085 0.01556156894 2.5e-05) 857
(0.04371187332 0.01067393391 2.5e-05) 227
(0.0363860959 0.01024375605 2.5e-05) 221
(0.04460381571 0.01404676587 2.5e-05) 348
(0.0439224672 0.01361278757 2.5e-05) 317
(0.03817906077 0.00851651423 2.5e-05) 1263
(0.03055616883 0.00758536848 2.5e-05) 1226
(0.02990762475 0.004359299299 2.5e-05) 1134
(0.05558466068 0.02153496295 2.5e-05) 919
(0.0323398254 0.004578178649 2.5e-05) 1137
(0.03140448129 0.006568287714 2.5e-05) 1196
(0.03275290693 0.007975748527 2.5e-05) 1228
(0.0237749331 0.0008360732774 2.5e-05) 1007
(0.04344031757 0.006840700339 2.5e-05) 1207
(0.03840785374 0.006436953197 2.5e-05) 1202
(0.03023750138 0.004921847885 2.5e-05) 1135
(0.02983309658 0.005253325721 2.5e-05) 1165
(0.0247989445 0.005511993804 2.5e-05) 1160
(0.04904943 0.01617908544 2.5e-05) 862
(0.04162173732 0.01206445759 2.5e-05) 286
(0.03873713013 0.005245137432 2.5e-05) 1173
(0.04280442345 0.01011166024 2.5e-05) 227
(0.03592934156 0.005797686023 2.5e-05) 1170
(0.03002849467 0.006540048727 2.5e-05) 1195
(0.04369360494 0.0008892577287 2.5e-05) 1027
(0.03719757747 0.01368480591 2.5e-05) 312
(0.03840785586 0.009114602113 2.5e-05) 1293
(0.04038504927 0.004441667074 2.5e-05) 1144
(0.04184109849 0.01275256292 2.5e-05) 286
(0.03527401855 0.008918956281 2.5e-05) 1260
(0.03939929924 0.006484861261 2.5e-05) 1203
(0.0413363487 0.0129351182 2.5e-05) 285
(0.0562290149 0.01018447663 2.5e-05) 809
(0.05052611419 0.01464391147 2.5e-05) 844
(0.03138308268 0.006021753203 2.5e-05) 1196
(0.04296404389 0.005670690252 2.5e-05) 1176
(0.05238847654 0.01297294209 2.5e-05) 825
(0.0435049727 0.00875627772 2.5e-05) 1267
(0.02610317384 0.007676341049 2.5e-05) 1222
(0.04215743827 0.005353111412 2.5e-05) 1176
(0.04020895678 0.009049272189 2.5e-05) 1294
(0.04029804077 0.006430629619 2.5e-05) 1204
(0.04094314191 0.009352134987 2.5e-05) 1295
(0.03913692055 0.01161392806 2.5e-05) 254
(0.02572707749 0.005728381854 2.5e-05) 1161
(0.03994059283 0.01778266674 2.5e-05) 434
(0.04757907411 0.01344061249 2.5e-05) 831
(0.03793477686 0.009926586608 2.5e-05) 1293
(0.04083451545 0.01156059689 2.5e-05) 255
(0.04680915894 0.01397153188 2.5e-05) 830
(0.04078387717 0.006160294781 2.5e-05) 1205
(0.04491485115 0.004508953363 2.5e-05) 1148
(0.05433840232 0.01268145951 2.5e-05) 827
(0.03787889073 0.006217186802 2.5e-05) 1202
(0.02231913131 0.00668340788 2.5e-05) 1188
(0.03751841187 0.006025289156 2.5e-05) 1202
(0.03690659324 0.007532250586 2.5e-05) 1231
(0.02917658177 0.003897713139 2.5e-05) 1104
(0.035269706 0.007643242163 2.5e-05) 1230
(0.02904192146 0.005077356907 2.5e-05) 1164
(0.02078146068 0.001047127848 2.5e-05) 1034
(0.04700429788 0.01476670526 2.5e-05) 840
(0.04631955341 0.01397572603 2.5e-05) 319
(0.04387906341 0.01520354706 2.5e-05) 377
(0.04567723697 0.007265951047 2.5e-05) 1239
(0.03935375616 0.005736610827 2.5e-05) 1173
(0.04314297338 0.008809648318 2.5e-05) 1267
(0.03674365784 0.004577113906 2.5e-05) 1141
(0.02692936756 0.0043655515 2.5e-05) 1132
(0.03028942124 0.009300472017 2.5e-05) 1286
(0.03254202006 0.003180369333 2.5e-05) 1107
(0.03226671784 0.009563659332 2.5e-05) 1288
(0.03009054278 0.0126584107 2.5e-05) 276
(0.03214988673 0.01132305565 2.5e-05) 248
(0.04447577177 0.01524471702 2.5e-05) 378
(0.02511309699 0.007160310285 2.5e-05) 1221
(0.03181844505 0.002230772171 2.5e-05) 1076
(0.04529450036 0.01490292585 2.5e-05) 349
(0.04493192093 0.0138195149 2.5e-05) 318
(0.03914465631 0.008299528899 2.5e-05) 1263
(0.02783060612 0.008886689532 2.5e-05) 1254
(0.04058005409 0.00882099959 2.5e-05) 1265
(0.05008603301 0.01396859109 2.5e-05) 833
(0.03465513662 0.00510048976 2.5e-05) 1169
(0.0492625684 0.01403955117 2.5e-05) 842
(0.05182192509 0.01145296563 2.5e-05) 815
(0.04072866581 0.005379310259 2.5e-05) 1174
(0.02869642927 0.001355744651 2.5e-05) 1042
(0.04275421929 0.01059764719 2.5e-05) 226
(0.04079687148 0.005682037241 2.5e-05) 1174
(0.04168883757 0.009937146892 2.5e-05) 1296
(0.04433033837 0.01398477654 2.5e-05) 318
(0.02254203638 0.01288749807 2.5e-05) 270
(0.05368583667 0.01227358803 2.5e-05) 827
(0.05625128546 0.0127950488 2.5e-05) 829
(0.04374877663 0.007467915652 2.5e-05) 1237
(0.03877715782 0.00444687952 2.5e-05) 1143
(0.04134959138 0.01570254538 2.5e-05) 375
(0.05459406775 0.01749037492 2.5e-05) 878
(0.03103847012 0.003587941856 2.5e-05) 1105
(0.03325386111 0.005935899358 2.5e-05) 1168
(0.04461620525 0.006755292626 2.5e-05) 1208
(0.03823173472 0.008087536977 2.5e-05) 1263
(0.02410017413 0.009265134127 2.5e-05) 1281
(0.05000899934 0.02042042176 2.5e-05) 903
(0.0418876885 0.01593826264 2.5e-05) 376
(0.02867315978 0.005277069141 2.5e-05) 1164
(0.0471253915 0.01360809506 2.5e-05) 830
(0.03334678893 0.008572209589 2.5e-05) 1258
(0.04214633267 0.01368372047 2.5e-05) 316
(0.04871532274 0.01706123331 2.5e-05) 872
(0.04599591563 0.005651906875 2.5e-05) 1179
(0.0460837137 0.006270529827 2.5e-05) 1209
(0.04538900443 0.01269727123 2.5e-05) 289
(0.04135411797 0.01034721948 2.5e-05) 225
(0.04952597245 0.01505735091 2.5e-05) 853
(0.04522155436 0.008085065797 2.5e-05) 1268
(0.04036031432 0.008039689594 2.5e-05) 1264
(0.04883536 0.0176691175 2.5e-05) 872
(0.04515182317 0.01705430197 2.5e-05) 438
(0.03743811023 0.005651672738 2.5e-05) 1171
(0.04107390205 0.01078485025 2.5e-05) 225
(0.05568532201 0.01604052029 2.5e-05) 869
(0.0476788465 0.01157435793 2.5e-05) 811
(0.02740560938 0.006408089272 2.5e-05) 1193
(0.03899721168 0.006087596038 2.5e-05) 1203
(0.04716291255 0.01918524254 2.5e-05) 890
(0.04438913251 0.01467610119 2.5e-05) 348
(0.04081523931 0.01202279023 2.5e-05) 285
(0.0402543569 0.01076826739 2.5e-05) 224
(0.04206064239 0.009701176545 2.5e-05) 1296
(0.03764126694 0.009315590146 2.5e-05) 1292
(0.02892623795 0.003461617212 2.5e-05) 1103
(0.0294258194 0.005943968128 2.5e-05) 1164
(0.04058838271 0.006864883697 2.5e-05) 1204
(0.03512973137 0.009481172628 2.5e-05) 1290
(0.01949025036 0.001469782056 2.5e-05) 1033
(0.04378726383 0.0114551519 2.5e-05) 257
(0.04007249519 0.001810790017 2.5e-05) 1053
(0.03730867042 0.005964890289 2.5e-05) 1171
(0.05142239279 0.01219245883 2.5e-05) 825
(0.04583408913 0.008484847113 2.5e-05) 1269
(0.04403520303 0.01424929234 2.5e-05) 348
(0.05189371884 0.01358224588 2.5e-05) 835
(0.03012170931 0.004716490631 2.5e-05) 1135
(0.04369251485 0.01046556706 2.5e-05) 227
(0.0462025578 0.01039156455 2.5e-05) 229
(0.04134352845 0.01710947811 2.5e-05) 435
(0.03565053543 0.004959709918 2.5e-05) 1140
(0.0548622183 0.01398396169 2.5e-05) 838
(0.04069770729 0.0057185907 2.5e-05) 1174
(0.03937461501 0.01593809965 2.5e-05) 374
(0.0342506206 0.002556464581 2.5e-05) 1078
(0.02967132183 0.002986332207 2.5e-05) 1074
(0.02957879929 0.009205440218 2.5e-05) 1285
(0.0358613462 0.007998104937 2.5e-05) 1230
(0.04987255153 0.0203059605 2.5e-05) 903
(0.03822054692 0.006968393115 2.5e-05) 1202
(0.04660044101 0.01676166768 2.5e-05) 860
(0.04349018701 0.007869855208 2.5e-05) 1237
(0.03537010831 0.006991286281 2.5e-05) 1200
(0.05183836304 0.0130593718 2.5e-05) 835
(0.04382599564 0.009132727999 2.5e-05) 1297
(0.049411039 0.0154097021 2.5e-05) 852
(0.04744348463 0.01328289396 2.5e-05) 831
(0.0347642125 0.006759143092 2.5e-05) 1199
(0.0415863765 0.002946569503 2.5e-05) 1085
(0.04119610264 0.001223266121 2.5e-05) 1054
(0.02393129906 0.008168925179 2.5e-05) 1250
(0.03229925777 0.007322999622 2.5e-05) 1227
(0.02729267763 0.008297251059 2.5e-05) 1253
(0.04046347971 0.01300068836 2.5e-05) 315
(0.03397483058 0.006655926321 2.5e-05) 1199
(0.04489114193 0.0125614048 2.5e-05) 288
(0.0451377324 0.01267167925 2.5e-05) 288
(0.04191850452 0.008019254589 2.5e-05) 1266
(0.04697136094 0.01592062802 2.5e-05) 850
(0.04279300629 0.01112489181 2.5e-05) 257
(0.04001345856 0.01019982886 2.5e-05) 224
(0.04123426867 0.01027012081 2.5e-05) 225
(0.03978854825 0.0129778343 2.5e-05) 284
(0.04641733327 0.01754582603 2.5e-05) 439
(0.0468436878 0.01585718675 2.5e-05) 850
(0.03615503347 0.01034972682 2.5e-05) 221
(0.05266123122 0.01281083576 2.5e-05) 826
(0.02914400225 0.004514149088 2.5e-05) 1134
(0.04365880924 0.007077539261 2.5e-05) 1237
(0.04089128987 0.006760905985 2.5e-05) 1205
(0.04509500218 0.01140424952 2.5e-05) 258
(0.02483891475 0.0019931069 2.5e-05) 1039
(0.03374973129 0.006275843317 2.5e-05) 1198
(0.03834503587 0.005741056468 2.5e-05) 1172
(0.03329415065 0.001621007218 2.5e-05) 1047
(0.03810719817 0.009638815952 2.5e-05) 1293
(0.03786675195 0.01081084008 2.5e-05) 222
(0.03797995817 0.003537897864 2.5e-05) 1112
(0.04007894129 0.01069664744 2.5e-05) 224
(0.05076621964 0.01151001228 2.5e-05) 814
(0.02712071894 0.004485294399 2.5e-05) 1132
(0.04469677963 0.008586989157 2.5e-05) 1268
(0.04239883928 0.009932302547 2.5e-05) 1296
(0.02231494785 0.00990811223 2.5e-05) 1280
(0.04073652749 0.008897593809 2.5e-05) 1265
(0.02078286886 0.006703823845 2.5e-05) 1187
(0.0234641526 0.004439084866 2.5e-05) 1129
(0.04223185994 0.01218628365 2.5e-05) 286
(0.03994151231 0.01743262355 2.5e-05) 434
(0.02234728306 0.004425057222 2.5e-05) 1128
(0.05396002808 0.02301809418 2.5e-05) 937
(0.03139544225 0.003233090686 2.5e-05) 1105
(0.02977817075 0.0020392037 2.5e-05) 1074
(0.04257753851 0.01425151179 2.5e-05) 346
(0.03930710776 0.01202503207 2.5e-05) 284
(0.0257303861 0.001470346084 2.5e-05) 1039
(0.03606124017 0.008099431775 2.5e-05) 1261
(0.0397182291 0.01073361953 2.5e-05) 224
(0.04723127764 0.01576360859 2.5e-05) 850
(0.04507836297 0.006931245842 2.5e-05) 1208
(0.035196141 0.007574742435 2.5e-05) 1230
(0.03358530955 0.01049834244 2.5e-05) 219
(0.0326063992 0.01271614772 2.5e-05) 278
(0.03586637741 0.006063199482 2.5e-05) 1200
(0.02462853038 0.002810326598 2.5e-05) 1069
(0.03656815626 0.009182311287 2.5e-05) 1291
(0.02806236643 0.003755548761 2.5e-05) 1103
(0.04233537092 0.01410144594 2.5e-05) 346
(0.03913578929 0.0001510162279 2.5e-05) 1022
(0.03935470942 0.01035718823 2.5e-05) 224
(0.04099063004 0.01251439601 2.5e-05) 285
(0.04071143483 0.004250799358 2.5e-05) 1144
(0.05333724742 0.01384747202 2.5e-05) 836
(0.0440097561 0.01458051558 2.5e-05) 348
(0.03518717206 0.0007560661978 2.5e-05) 1018
(0.0513077917 0.02438677402 2.5e-05) 944
(0.02324556465 0.002901176143 2.5e-05) 1068
(0.03661022762 0.006812946493 2.5e-05) 1201
(0.04111910396 0.002138815822 2.5e-05) 1084
(0.03353659861 0.0001632691014 2.5e-05) 1017
(0.03256566996 0.008095987227 2.5e-05) 1258
(0.01686491162 0.002838180917 2.5e-05) 1062
(0.04381901397 0.01626174931 2.5e-05) 407
(0.02354746174 0.006194127507 2.5e-05) 1189
(0.0355218465 0.008097082986 2.5e-05) 1260
(0.05531294533 0.02036360169 2.5e-05) 908
(0.03307973752 0.0007884620549 2.5e-05) 1016
(0.02129301649 0.002299465246 2.5e-05) 1066
(0.02796008734 0.00856706197 2.5e-05) 1254
(0.03088384036 0.01078651775 2.5e-05) 217
(0.04314745296 0.003582673289 2.5e-05) 1116
(0.04028012804 0.004190743462 2.5e-05) 1144
(0.03347405991 0.0007115245825 2.5e-05) 1017
(0.01937084756 0.002022229768 2.5e-05) 1064
(0.04965146693 0.01737896474 2.5e-05) 873
(0.0415896297 0.001138687635 2.5e-05) 1055
(0.03030753779 0.01005093649 2.5e-05) 216
(0.04790184413 0.02070380852 2.5e-05) 901
(0.04460115617 0.01536450606 2.5e-05) 378
(0.0530836896 0.01929596738 2.5e-05) 896
(0.04542498903 0.008355165649 2.5e-05) 1269
(0.04430240935 0.01574910894 2.5e-05) 378
(0.04831317672 0.01130494962 2.5e-05) 811
(0.03503719002 0.0110526517 2.5e-05) 250
(0.04761751007 0.01265003097 2.5e-05) 821
(0.03617985445 0.006295250856 2.5e-05) 1200
(0.03677885536 0.00193484264 2.5e-05) 1050
(0.04006816321 0.004826476728 2.5e-05) 1144
(0.04135405515 0.01415166083 2.5e-05) 345
(0.03693609887 0.003521029079 2.5e-05) 1111
(0.05296167976 0.01334498943 2.5e-05) 836
(0.04171488037 0.003861383653 2.5e-05) 1115
(0.04082255912 0.006245855309 2.5e-05) 1205
(0.03792156037 0.009882148807 2.5e-05) 1292
(0.03224219582 0.004838383715 2.5e-05) 1137
(0.03712222083 0.00414513922 2.5e-05) 1141
(0.03818021301 0.006042236642 2.5e-05) 1202
(0.05278921888 0.01532549208 2.5e-05) 856
(0.03196188138 0.004903341983 2.5e-05) 1136
(0.01860617597 0.005660306177 2.5e-05) 1155
(0.05002274492 0.01920164875 2.5e-05) 893
(0.0346324308 0.0142184504 2.5e-05) 340
(0.03122239345 0.00265210286 2.5e-05) 1075
(0.04020280911 0.01308371355 2.5e-05) 314
(0.03362125479 0.006822900436 2.5e-05) 1198
(0.04008757284 0.004116095382 2.5e-05) 1144
(0.03752676346 0.008313809111 2.5e-05) 1262
(0.05244644391 0.01265798746 2.5e-05) 826
(0.03209562649 0.00235515038 2.5e-05) 1076
(0.04463098355 0.008393743969 2.5e-05) 1268
(0.03854982817 0.003059247746 2.5e-05) 1112
(0.04740671501 0.01423110374 2.5e-05) 840
(0.03908406086 0.001981295853 2.5e-05) 1052
(0.04404707029 0.01235671767 2.5e-05) 288
(0.039658134 0.01019613831 2.5e-05) 224
(0.03831733465 0.01276947539 2.5e-05) 283
(0.03018513967 0.003211694486 2.5e-05) 1104
(0.04278249547 0.01436833368 2.5e-05) 347
(0.03202009491 0.004634769254 2.5e-05) 1136
(0.03889582595 0.002378385498 2.5e-05) 1082
(0.04181384676 0.007938683591 2.5e-05) 1236
(0.03590614311 0.01283018808 2.5e-05) 281
(0.04228883156 0.00805640969 2.5e-05) 1266
(0.03879511408 0.00661781246 2.5e-05) 1203
(0.03946362541 0.002638119563 2.5e-05) 1083
(0.03936708695 0.00522976301 2.5e-05) 1173
(0.04344917529 0.01076134969 2.5e-05) 227
(0.03450437089 0.007511136116 2.5e-05) 1229
(0.04678386516 0.01021536419 2.5e-05) 800
(0.02274138179 0.008703496339 2.5e-05) 1250
(0.03210408079 0.008368031097 2.5e-05) 1257
(0.03787954131 0.01050829973 2.5e-05) 222
(0.04599985379 0.0111995486 2.5e-05) 259
(0.03154612461 0.01082731664 2.5e-05) 217
(0.05106457944 0.02159950514 2.5e-05) 914
(0.041153989 0.01520316958 2.5e-05) 375
(0.02601907826 0.001021693178 2.5e-05) 1040
(0.02262609818 0.007243534298 2.5e-05) 1219
(0.0352358996 0.008897924493 2.5e-05) 1260
(0.04128708674 0.006897124906 2.5e-05) 1205
(0.03194280998 0.005067711912 2.5e-05) 1166
(0.03592763563 0.002297975095 2.5e-05) 1079
(0.04248879249 0.01413474956 2.5e-05) 346
(0.04999590815 0.01701193613 2.5e-05) 873
(0.02952629962 0.002416462229 2.5e-05) 1073
(0.04005773466 0.007863827942 2.5e-05) 1234
(0.05161235264 0.0150288376 2.5e-05) 855
(0.04107137286 0.004619230117 2.5e-05) 1145
(0.04188157712 0.003622011389 2.5e-05) 1115
(0.0346532983 0.007876663155 2.5e-05) 1229
(0.0403384622 0.002448318791 2.5e-05) 1084
(0.03866588524 0.009050381361 2.5e-05) 1293
(0.04034839448 0.01167526156 2.5e-05) 254
(0.0389481301 0.01436370057 2.5e-05) 343
(0.03329530638 0.00824089213 2.5e-05) 1258
(0.04856206432 0.02015016583 2.5e-05) 902
(0.03228950665 0.005633255693 2.5e-05) 1167
(0.04874862449 0.01530832662 2.5e-05) 852
(0.03297279328 0.0115083086 2.5e-05) 248
(0.03301492763 0.009196998987 2.5e-05) 1288
(0.04939874956 0.02117394382 2.5e-05) 912
(0.02591085871 0.008322228956 2.5e-05) 1252
(0.05040099938 0.01585342237 2.5e-05) 853
(0.03584428982 0.01010462338 2.5e-05) 221
(0.0551776231 0.01208598356 2.5e-05) 828
(0.0260997536 0.003823205762 2.5e-05) 1101
(0.03546254036 0.01145688791 2.5e-05) 250
(0.05597384386 0.01734530987 2.5e-05) 879
(0.04976471656 0.01803112124 2.5e-05) 883
(0.04131604525 0.004686709867 2.5e-05) 1145
(0.04080566704 0.01434932416 2.5e-05) 345
(0.04225734066 0.01474732591 2.5e-05) 346
(0.03907493985 0.004404298225 2.5e-05) 1143
(0.04046766315 0.0158733037 2.5e-05) 375
(0.04786434083 0.0129067909 2.5e-05) 821
(0.0265053367 0.0001957171761 2.5e-05) 1010
(0.04044135507 0.01138125157 2.5e-05) 255
(0.05302191283 0.01534429386 2.5e-05) 856
(0.0392366617 0.003620597991 2.5e-05) 1113
(0.0342785017 0.008101681464 2.5e-05) 1259
(0.04566202556 0.02160215756 2.5e-05) 559
(0.04610976182 0.01117519075 2.5e-05) 259
(0.04095859626 0.008636406895 2.5e-05) 1265
(0.04353728249 0.007338671454 2.5e-05) 1237
(0.03307561767 0.01255821561 2.5e-05) 279
(0.04541462882 0.01260811788 2.5e-05) 289
(0.03761567138 0.009723793968 2.5e-05) 1292
(0.0351380277 0.009408137629 2.5e-05) 1290
(0.03243635825 0.00849141578 2.5e-05) 1258
(0.04337184134 0.0138711327 2.5e-05) 317
(0.04983195674 0.0127608646 2.5e-05) 823
(0.03573975292 0.005591558749 2.5e-05) 1170
(0.04474586762 0.01715558752 2.5e-05) 438
(0.03350118615 0.003558840599 2.5e-05) 1107
(0.03391151561 0.009206205575 2.5e-05) 1289
(0.05000761711 0.01782547906 2.5e-05) 873
(0.03236266852 0.01262009943 2.5e-05) 278
(0.02278031119 0.01370146469 2.5e-05) 300
(0.04693747318 0.01544032177 2.5e-05) 850
(0.01998442744 0.007004492436 2.5e-05) 1217
(0.03057116067 0.009478245332 2.5e-05) 1286
(0.03065217062 0.01450938866 2.5e-05) 337
(0.05105473825 0.01656673499 2.5e-05) 864
(0.03968895744 0.008255553006 2.5e-05) 1264
(0.04207224465 0.009652021577 2.5e-05) 1296
(0.03241128035 0.009562391898 2.5e-05) 1288
(0.03940120157 0.01374512914 2.5e-05) 314
(0.04630916096 0.002763668442 2.5e-05) 1089
(0.03101842774 0.009714114686 2.5e-05) 1287
(0.04125309819 0.01005531355 2.5e-05) 225
(0.04485649196 0.01106212737 2.5e-05) 258
(0.03967440434 0.005559088007 2.5e-05) 1173
(0.04359895602 0.01672998421 2.5e-05) 407
(0.04616975691 0.01421596466 2.5e-05) 349
(0.04713966993 0.0119825907 2.5e-05) 810
(0.05276976125 0.01559585431 2.5e-05) 856
(0.03027682921 0.009098618155 2.5e-05) 1286
(0.02703283967 0.003726045608 2.5e-05) 1102
(0.03278176049 0.01053791898 2.5e-05) 218
(0.02787626211 0.0109055455 2.5e-05) 214
(0.0269863925 0.01060063133 2.5e-05) 213
(0.04168991767 0.01248631369 2.5e-05) 286
(0.02867790722 0.008248033604 2.5e-05) 1254
(0.02354566284 0.006055926372 2.5e-05) 1189
(0.03906030088 0.01540336329 2.5e-05) 373
(0.04001991058 0.004720324342 2.5e-05) 1144
(0.04561289038 0.02003969739 2.5e-05) 529
(0.03547567546 0.005542348249 2.5e-05) 1170
(0.03617610996 0.01699461981 2.5e-05) 401
(0.03559107404 0.00266468087 2.5e-05) 1079
(0.03513441851 0.006044195608 2.5e-05) 1200
(0.03768020479 0.01424824402 2.5e-05) 342
(0.03847409789 0.005969934476 2.5e-05) 1172
(0.0341071069 0.00609461177 2.5e-05) 1199
(0.0443533728 0.009794484634 2.5e-05) 1298
(0.03600061495 0.00436126274 2.5e-05) 1140
(0.04787470686 0.01285740016 2.5e-05) 821
(0.02956909447 0.01077912179 2.5e-05) 216
(0.04333516554 0.01203619299 2.5e-05) 287
(0.04505460694 0.01039539498 2.5e-05) 228
(0.02897730071 0.004233309204 2.5e-05) 1134
(0.05471270832 0.01455285937 2.5e-05) 848
(0.04190847859 0.006037254271 2.5e-05) 1206
(0.02475425342 0.009283301994 2.5e-05) 1281
(0.03338189067 0.003035405714 2.5e-05) 1107
(0.02838191574 0.009367584882 2.5e-05) 1284
(0.04348381981 0.01475138757 2.5e-05) 347
(0.05112499901 0.01019819138 2.5e-05) 804
(0.03965963544 0.01824375147 2.5e-05) 464
(0.04790351919 0.01853197061 2.5e-05) 881
(0.02779230863 0.006148512069 2.5e-05) 1193
(0.02763239254 0.005492115237 2.5e-05) 1163
(0.03356699891 0.01040360673 2.5e-05) 219
(0.03009576314 0.002528590633 2.5e-05) 1074
(0.04519744613 0.01092508671 2.5e-05) 228
(0.03032968154 0.009921824288 2.5e-05) 1286
(0.05338411136 0.01617801842 2.5e-05) 866
(0.03025338128 0.002137970336 2.5e-05) 1074
(0.0561447193 0.01402193223 2.5e-05) 849
(0.04716171044 0.01370340956 2.5e-05) 830
(0.02679517561 0.004867781244 2.5e-05) 1132
(0.05304909035 0.01908530239 2.5e-05) 896
(0.02893850032 0.006864140804 2.5e-05) 1194
(0.03307766822 0.001476571832 2.5e-05) 1047
(0.04332327417 0.008605337526 2.5e-05) 1267
(0.04127757093 0.01390525307 2.5e-05) 315
(0.05076719106 0.01159080663 2.5e-05) 814
(0.04363014464 0.002456893737 2.5e-05) 1087
(0.03752388385 0.005182308151 2.5e-05) 1171
(0.04299958276 0.004360602568 2.5e-05) 1146
(0.04304494793 0.01085316523 2.5e-05) 227
(0.02736182789 0.008232592546 2.5e-05) 1253
(0.03893185374 0.004135400559 2.5e-05) 1143
(0.04852447099 0.01106771061 2.5e-05) 812
(0.01995215871 0.005998282091 2.5e-05) 1156
(0.03411328521 0.00723164196 2.5e-05) 1229
(0.03296261156 0.007755103268 2.5e-05) 1228
(0.03257943757 0.01074100568 2.5e-05) 218
(0.0217824457 0.008216280049 2.5e-05) 1249
(0.03045697588 0.006431743614 2.5e-05) 1195
(0.03292769878 0.003512307643 2.5e-05) 1107
(0.03801979494 0.01062048872 2.5e-05) 223
(0.03608479013 0.01345281201 2.5e-05) 311
(0.04564127626 0.02057813502 2.5e-05) 529
(0.03945857931 0.01194337735 2.5e-05) 254
(0.04631678326 0.008389099976 2.5e-05) 1269
(0.03232719526 0.00687159835 2.5e-05) 1197
(0.04169532121 0.0153603063 2.5e-05) 376
(0.04374014623 0.001245441403 2.5e-05) 1057
(0.03664371878 0.003300503709 2.5e-05) 1110
(0.02661342324 0.0002426456081 2.5e-05) 1010
(0.03237656432 0.004442332695 2.5e-05) 1137
(0.03385954287 0.003739213054 2.5e-05) 1108