/*--------------------------------*- C++ -*----------------------------------*\
| =========                 |                                                 |
| \\      /  F ield         | OpenFOAM: The Open Source CFD Toolbox           |
|  \\    /   O peration     | Version:  v1912                                 |
|   \\  /    A nd           | Website:  www.openfoam.com                      |
|    \\/     M anipulation  |                                                 |
\*---------------------------------------------------------------------------*/
FoamFile
{
    version     2.0;
    format      ascii;
    class       vectorField;
    location    "0.0003/lagrangian/dsmc";
    object      U;
}
// * * * * * * * * * * * * * * * * * * * * * * * * * * * * * * * * * * * * * //


12954
(
(810.6027614 277.5620721 -32.77778237)
(763.3592297 -993.7062927 498.551076)
(-403.9127446 -949.4181551 400.9315132)
(678.5546624 -540.7743869 -143.4356537)
(1963.335948 -30.22036021 -465.4464238)
(1134.301861 104.8254516 -226.1116916)
(103.7628852 -210.0542496 -858.6978534)
(32.8518978 -379.2057932 230.8391633)
(492.1872536 720.2897087 105.2981056)
(174.922754 1069.629852 -222.2414973)
(1872.051013 942.143778 320.4516456)
(162.627872 -297.3371828 -979.6911222)
(-328.221356 447.2177556 206.3599098)
(-522.7561549 629.1759943 561.3372257)
(-334.4806872 -206.1332708 106.8422311)
(613.7917799 -10.84577298 314.4008312)
(-257.481979 -44.55143063 388.5797625)
(616.7466148 388.8763847 363.1847026)
(48.21501135 405.282085 567.2863327)
(98.70447883 -248.1322637 32.91838641)
(-319.1963865 524.3016721 -173.3569549)
(425.9224578 458.5359814 -45.00310162)
(-277.3342849 36.43294098 -766.1074306)
(946.4794144 -422.8834477 405.2872131)
(-25.2697455 293.4223683 1119.443969)
(1184.335938 1001.925509 301.9157156)
(407.22364 -263.8475 35.30972579)
(-692.8482479 41.56954323 303.9526657)
(34.8203388 -34.46305667 229.3611656)
(-127.717328 -553.0116187 550.1965513)
(12.76216777 135.5056768 267.0838987)
(-74.04476971 199.3393968 -550.7010186)
(-192.7995809 553.0741638 -69.00749947)
(-240.5661505 -1370.607352 492.2019576)
(39.66447417 -636.8814855 -78.3634942)
(1103.361977 21.29937969 -253.3294807)
(-639.23426 30.82654571 -201.2348136)
(124.5351922 -546.6985126 99.88794077)
(665.5128874 714.0582624 -267.9040804)
(1324.741638 642.2229927 -635.9392074)
(-97.30660098 1.825926546 69.3379618)
(-111.7495844 -179.8248804 945.9923935)
(746.3857631 -44.41095796 -253.4953602)
(232.5496858 1062.72024 -487.1492051)
(-20.03854643 -138.8812151 -101.6929881)
(548.3093858 157.5905178 -203.5185431)
(324.9996459 -384.2518238 67.5446884)
(1030.201613 -366.2722791 247.5581883)
(421.4853486 21.24106123 862.4710467)
(-552.406528 -296.201958 -803.2622515)
(-568.8670228 -181.1081953 -488.239782)
(674.4006199 376.634831 90.17827379)
(316.3972447 -557.9652027 -458.5598515)
(233.753051 -323.9311608 7.550554684)
(512.9569025 -528.0142407 1173.065548)
(-1195.867973 -561.7041638 368.6035797)
(1136.22449 376.2662692 153.8730703)
(928.7829213 -245.7415194 -556.8071615)
(-170.5826901 116.0570472 912.0338693)
(-708.8341992 -264.3290809 -106.6145421)
(992.4551171 380.568106 -2.859034678)
(270.6914229 78.06680254 -106.2122856)
(-124.3040111 -319.5201423 -158.9418678)
(-26.67168897 780.7049982 -312.3897949)
(331.4139296 -578.9987836 69.82801409)
(-24.74853887 813.3107832 -1094.8798)
(301.3662812 -548.3067682 318.7201194)
(254.6175058 644.1055466 137.3551849)
(46.55061204 106.6805652 -1.522044983)
(-160.9492866 280.4268258 199.141555)
(-331.8506508 -313.0201304 -364.2297718)
(-75.81320692 -558.3729086 -301.2383514)
(325.2511294 -1309.850585 -165.7563121)
(-467.9450073 -538.4124211 -840.6494641)
(615.7351935 345.6124879 363.3934391)
(179.0689651 -471.6205741 -417.7384029)
(-422.6117157 -102.9743656 -90.78425131)
(-872.6991037 -170.0723318 195.9911588)
(-221.0630827 -216.0772573 867.5754695)
(-163.7366979 -672.6325167 495.8489816)
(360.355581 797.2845999 474.789388)
(451.6816702 -522.7608723 -279.979541)
(637.1018761 163.6406572 -413.2150134)
(-369.1293886 -357.3381823 663.9271312)
(284.7638135 416.2297299 21.30546894)
(795.7869609 -1077.656769 328.0592342)
(1433.025163 -737.2984126 -259.8712036)
(85.88366309 -271.9670086 402.8988036)
(722.0758789 -99.13998329 -257.3186581)
(-1205.518234 196.5175861 -445.2064979)
(139.4000553 80.43748039 96.5744075)
(105.4439844 556.5304547 164.1828478)
(-114.5989229 94.77914478 494.4285474)
(1058.87365 -125.3982389 645.9244876)
(-230.5432226 26.80227219 -653.4389597)
(361.4147206 77.51086499 -356.0639621)
(1049.224929 359.3047179 -320.7308917)
(210.7232845 520.1394867 238.8926089)
(806.0148792 343.0349284 572.1474166)
(626.6896881 -480.7015963 624.5583718)
(-63.89134538 775.8481629 -457.4135525)
(609.7689601 -258.9171478 50.23727017)
(-656.396765 303.9030808 -130.9505719)
(-223.9962793 -25.74107788 -198.9868608)
(-117.1429165 177.2285147 133.2973484)
(-262.5244261 -400.3783484 260.0156491)
(663.3865231 373.1198005 609.0825332)
(-504.9006229 783.3425518 242.5174815)
(84.7557742 1395.985458 -518.153521)
(-425.4115558 -8.552841725 -119.8422838)
(808.3259109 45.1579814 -262.1947906)
(80.91445114 605.5722342 162.5188708)
(149.9505884 -610.8172458 484.2804157)
(952.1253431 41.50236909 277.5511733)
(-740.3242734 -319.5406838 136.7248888)
(216.5618597 -65.75416029 364.4270176)
(414.5731286 291.039807 -388.2748505)
(374.9836133 -487.3563458 539.2316845)
(774.3523957 53.27418435 -352.8731099)
(142.8734503 -493.2960837 422.988766)
(-462.4986631 -32.02218142 -334.4133847)
(1202.820408 -267.1725156 651.1619297)
(-49.5870773 391.0426866 -257.4479101)
(-14.19846556 644.1934827 558.9197416)
(-239.8041391 -613.5112229 -28.2356177)
(-15.79191353 -124.0216511 303.3887808)
(706.689375 -548.0501054 427.592134)
(597.0299045 218.6769779 102.6324233)
(110.554801 -125.2498992 285.7927019)
(-470.5275633 -285.6302389 -671.2999928)
(744.9333653 -172.4917508 521.0277166)
(210.1900997 202.7639252 -98.13216714)
(1157.31996 -382.7510302 467.6322689)
(1429.214179 -507.45737 -1093.482374)
(259.1961522 -1354.113905 173.5646494)
(927.9106925 425.4829689 96.36754842)
(71.05339988 144.8072898 92.86999902)
(69.09986792 55.16538471 247.9055132)
(-464.3304021 -732.4735195 500.0949695)
(164.4058285 -870.8990298 -414.18395)
(-52.72036389 -363.4058726 -468.2318176)
(684.2287132 -444.0072106 -989.1001953)
(-351.3895076 291.1985337 -59.53277643)
(450.921586 24.76944757 491.6395039)
(-173.1894832 109.9864595 -19.4508694)
(116.0517192 114.0351059 -98.83909346)
(-39.80689992 533.4808051 -254.1004192)
(969.9917925 -1202.024099 -95.12970832)
(669.4580481 -273.6495721 -471.4986674)
(185.2368122 999.5398915 589.7495535)
(437.6299503 56.59476249 -613.1298491)
(640.0466368 818.6196971 684.6820786)
(80.56684067 -766.7673017 290.4785927)
(-103.0456561 674.3170718 -406.4688707)
(582.0403125 1076.653435 478.6384606)
(1249.240516 -259.7289801 -713.1885897)
(-261.2520039 -134.2128034 -596.8332372)
(526.777299 740.2501676 -15.87701343)
(767.4975651 532.8858708 -108.7388922)
(766.8386195 106.4829939 412.5486202)
(277.7547683 455.074373 -296.8350511)
(-609.9824482 262.6617346 -105.9745867)
(844.1558982 23.22739868 -417.9157845)
(1139.879761 -946.4100976 -96.80146185)
(1545.536896 -43.8989797 -325.812829)
(-105.7478478 67.23657293 50.59115321)
(84.15099764 233.3861633 725.4084533)
(1441.312233 390.6250744 307.4349828)
(839.2594296 -27.1652209 -461.1673125)
(7.717616835 -239.5925315 -55.5102955)
(-250.6205932 76.78453986 -451.4942483)
(165.7420909 -389.2371146 113.5009585)
(927.0056469 472.414771 7.114845738)
(-239.0475472 -259.0434157 612.146164)
(279.1233873 -393.8784188 323.9999014)
(872.2712833 240.4076963 -746.956719)
(45.56675884 368.0160526 -25.98188125)
(895.8950693 -351.2135694 -55.73858032)
(855.3385545 -274.1628182 160.9312941)
(251.4911804 277.3937745 651.7572957)
(543.7044755 139.5464528 -111.358249)
(-439.4304743 -755.3525475 447.7151788)
(379.9248553 -92.19155826 379.1515898)
(-46.84099286 338.6952665 -165.0838347)
(42.03691748 509.9873241 132.9282441)
(-20.38607328 424.9299569 -861.8312642)
(529.5886257 -426.8372371 -26.16489871)
(-467.1495049 -52.01214637 367.1208375)
(-292.4951598 -301.5320694 169.402237)
(-2.892296211 266.8111792 457.6359851)
(947.6569002 -523.719485 1270.908488)
(1793.74998 176.4708021 260.326023)
(420.7397895 518.2604535 479.1021633)
(663.0656072 295.1987759 -1040.65843)
(99.36936917 254.1156248 241.6809391)
(343.3091305 462.945446 -695.6486978)
(151.4753712 -311.9621536 -843.4883019)
(742.4174924 -145.0378518 405.9428171)
(-764.2907902 510.2622225 -425.1324923)
(487.0331379 -469.7469027 216.5502094)
(257.1256679 762.6521231 -1167.560733)
(1401.221229 360.1295016 53.88496137)
(792.0679599 -275.5646433 73.05925792)
(-350.2708698 286.8464322 94.34195292)
(166.3157064 -242.9049207 -780.3915234)
(-322.2155491 -115.0135635 506.8653698)
(357.4155527 225.1129146 -146.4262299)
(-175.5232776 551.0351522 350.193066)
(209.4619424 -392.9030557 754.3860962)
(609.3785468 632.5418104 1138.079049)
(395.9100053 72.42738728 -522.3441095)
(299.8084044 -100.8510314 307.5381431)
(389.5330635 637.4010555 -262.7966668)
(-33.30870508 -143.8858179 -382.3624985)
(3.946899208 -71.1353181 33.95285462)
(502.9067003 49.52528672 737.9519554)
(-234.448454 -425.7121795 98.66964533)
(1800.265613 -571.6868857 -72.06199263)
(509.0851226 42.82845698 330.1282647)
(811.3660687 -434.4659222 -294.1965076)
(-203.8462672 565.4510782 270.7227848)
(-106.925497 -556.7192785 1079.892362)
(-118.7133191 -294.1204918 13.28453353)
(-271.6295547 42.23070906 229.4950062)
(-575.7171432 357.2970233 -469.6690986)
(-447.6576338 603.6551589 38.9486574)
(374.7200509 610.6788176 930.5184813)
(933.6580703 -258.8408665 -76.7104779)
(921.8450629 337.9466088 -61.65911448)
(22.90175943 52.58643676 -732.2850793)
(71.16694737 -335.0722596 -61.05044094)
(49.05390694 -304.0045295 -230.1306251)
(1042.213039 817.7758638 801.8154322)
(-320.9394888 -142.0615408 668.3793385)
(834.0298213 -573.4654653 -142.1223044)
(757.1419001 590.6806746 -15.496754)
(-168.0613874 -721.0726197 77.57444279)
(695.120842 829.8634735 861.4307838)
(459.9902051 -380.2334256 -56.98431157)
(4.185301477 481.5617185 274.0583563)
(1015.421249 864.9775153 266.0214501)
(559.8743447 198.6606624 40.25997851)
(302.8390231 17.58052857 -61.38685517)
(110.0360986 -412.5622435 244.3002946)
(381.1530364 -199.7742025 311.8048485)
(249.8334118 -220.3018648 -1092.716731)
(59.61946017 327.8685959 755.9412068)
(283.7004043 428.838914 -606.3612797)
(-181.4817541 153.2656401 -467.6390012)
(1017.467169 28.04733811 -7.199211137)
(-374.6568814 401.6882498 -117.8363169)
(549.1007376 578.0898564 -103.4182601)
(458.5384529 302.3978197 -115.7144081)
(-534.6699897 204.8340525 29.76659801)
(1460.861913 230.4320934 105.8640103)
(978.8368428 66.78659165 -246.663378)
(-402.6843599 176.5843914 12.5575218)
(649.0092733 372.9832724 -189.5331559)
(175.0660752 -794.8432962 -408.1654193)
(-223.4684137 -250.0121394 234.6623082)
(-299.2334801 722.776739 457.6825255)
(360.1754253 -304.7627548 -212.3573144)
(-106.1517837 287.770089 125.9288599)
(-15.048289 389.992607 443.2267145)
(-109.4817442 -61.91875698 -427.9899741)
(618.7852073 -422.6773979 371.4331259)
(-805.5615432 205.0862826 507.6668744)
(379.1526415 110.4838897 57.14455245)
(-205.3428599 12.63168702 -355.7638759)
(-250.5737404 405.0801368 -355.8829711)
(173.8423747 134.8144114 525.386789)
(371.6395202 249.731737 280.9408443)
(1282.48061 -176.6376035 1424.564569)
(31.80355636 604.8136194 -611.0367347)
(-874.3515872 -416.6662894 -30.74976178)
(-300.6810196 239.999368 -261.0670941)
(362.6822278 -191.6520474 -95.64726661)
(116.975277 256.2991864 54.72005231)
(-788.8985301 363.1697669 630.9131338)
(151.3373781 -193.2158985 -131.2896407)
(-509.6666816 119.3622573 67.60100252)
(-753.3467059 -167.6714061 -406.5852876)
(911.711203 844.4553183 684.6589133)
(1072.856474 -107.1232736 -399.546071)
(937.5600691 -535.3462345 242.7997271)
(545.4966536 -170.3886674 -17.65746551)
(642.5467527 -219.1684202 181.7697111)
(1053.088865 -88.99325652 77.13727269)
(524.0533195 -277.1674043 -15.75801007)
(-93.79593695 -659.9368186 -167.6172364)
(-249.2806003 682.6374482 349.8253467)
(-32.75211139 130.0069267 935.629205)
(55.4860979 -218.03604 1186.789266)
(1364.656601 -442.0640746 315.7797602)
(198.3971389 -811.1903495 -187.1174353)
(-354.8528763 26.24582788 -64.23239095)
(-786.3100406 358.8510562 -83.35060305)
(529.4260201 16.56008661 528.4697764)
(641.6949088 153.3080112 121.1922924)
(-290.4229308 -153.731269 -26.00196505)
(994.8402456 436.2235059 -352.6935808)
(400.1094002 -1294.162605 -145.528208)
(1139.821036 -6.351110144 453.3739363)
(422.8025709 -553.9167427 440.8255315)
(108.1137802 -126.6700079 -829.1628001)
(63.62915562 -417.5762939 -79.53063862)
(985.1130913 726.7144819 130.3737022)
(1712.186335 -239.9793162 1157.454171)
(-26.82541341 1017.762264 351.5127895)
(-238.0282443 -381.3853156 249.6358723)
(627.5936661 23.35765685 244.8923477)
(-265.7568805 -796.4158202 -418.0820992)
(489.4658412 -248.9346099 46.77551196)
(1486.164679 365.2429298 -474.2669915)
(1772.90777 129.7414107 -7.183465868)
(-263.9709848 485.7109191 84.26798553)
(969.9165553 762.3709769 -263.0282727)
(1100.362615 -23.91931192 -359.5146472)
(-529.7576784 -305.4233935 257.7241447)
(1731.62355 638.9046287 88.51224066)
(-158.7042042 565.2562381 284.5792991)
(-348.0044184 -445.2062372 -334.400263)
(258.2753219 375.8533588 712.8290289)
(0.5874466263 407.5719534 -144.5057055)
(879.5374462 -93.96629025 988.7374389)
(-458.4095822 244.2412968 192.9888288)
(-100.6436507 820.7674301 -47.83270599)
(336.800633 -617.0222743 684.3495035)
(1177.914975 625.194019 -234.7255491)
(-307.6178944 454.2626303 -130.4278016)
(388.0752946 -269.5271765 -742.6242356)
(1271.284278 554.9697762 685.4178038)
(858.7133266 -988.8962178 -318.3122079)
(682.758705 27.68286099 257.1519149)
(393.6020566 481.3745673 -177.4777294)
(239.0364576 354.9710965 414.768701)
(798.4301322 424.3321822 -706.8147126)
(-176.9468853 94.14788152 292.8824793)
(-379.2511209 -210.0333768 -203.6056337)
(1031.951306 120.0174115 367.704245)
(149.5187742 336.2644293 -787.6242698)
(1006.094077 290.3352413 533.621244)
(229.593492 503.2141668 52.96269447)
(-384.9627382 41.35598228 250.5226467)
(191.3067658 1127.698659 -232.9177622)
(-530.7611148 -301.26017 4.762206723)
(280.3298566 46.5725128 -167.6973211)
(134.6641546 153.8765405 708.119569)
(909.0409625 -821.8342604 -252.4903378)
(791.2655446 120.1549771 53.7008803)
(-200.9703587 100.1029333 849.8429116)
(167.6595957 1396.413931 -653.2207795)
(-138.4899382 -505.9119017 -61.9614671)
(-466.0074642 748.2367212 -395.265532)
(919.0529199 -523.3366442 46.34299435)
(-818.5499967 526.1025548 130.9372128)
(1598.750531 495.8577956 -536.3888782)
(299.4618535 -68.01125811 -676.832484)
(991.6367796 -550.723273 -465.0652079)
(-247.4785988 384.3244868 538.1303955)
(1568.4444 -751.7783676 -150.9147269)
(-560.9918072 562.3112793 -759.7351453)
(-1087.181756 -1081.753175 435.3987648)
(-466.3283245 -35.54011269 -935.9518612)
(44.70689402 -494.2591359 -545.2000469)
(1223.688386 633.8751375 342.2021347)
(493.271792 -199.8610929 859.6582644)
(-439.1494624 -575.5280175 1042.161648)
(-156.9893139 -662.0677423 -467.4626559)
(298.8376379 848.6068601 534.5571645)
(47.99121827 333.8415507 -86.69662934)
(-36.65207248 1169.892906 -594.0146631)
(700.8724875 -187.4369635 355.2677809)
(1056.196027 485.4985834 0.9474054786)
(-441.6366868 281.3394843 -232.342474)
(-278.1494945 -18.9760146 -396.6231016)
(-560.6687062 -116.2390463 93.12533623)
(-577.7330985 949.2358121 -460.5729122)
(-335.993413 -299.2871499 -338.0448297)
(316.3422568 40.56525128 981.2427641)
(746.0740995 643.5329287 840.2933167)
(-526.8373939 401.7333816 158.7245658)
(987.5133166 -208.5032799 436.5995129)
(640.1030265 6.041415539 366.3010817)
(190.1451306 575.9422723 -2.800413357)
(770.7898512 387.8999271 765.8194271)
(323.1396049 38.36905574 -60.10217487)
(398.2241116 -283.4236311 -77.88474284)
(582.7570678 -126.9138832 -475.5660578)
(-917.8708366 172.7630195 319.9319976)
(739.5107946 -115.459594 665.527492)
(451.9197337 209.1424631 -289.4804671)
(275.3736184 -395.5770707 -539.2999258)
(413.428705 147.720153 197.4400679)
(-215.3567738 102.9758022 548.9767636)
(-201.6057966 -177.3912235 36.66330777)
(403.023029 -532.78553 212.7588914)
(306.6274176 997.7628711 -326.6991231)
(-155.1620034 -201.3888714 -201.7980936)
(1122.086993 -679.3030807 513.3893161)
(227.0020389 -162.8929739 -198.6851809)
(35.76116187 725.2569504 -361.0747268)
(794.1066291 260.0496783 119.2724293)
(101.7997752 -127.3682974 102.7752601)
(196.6604599 -701.8003905 -374.3678264)
(751.4449407 -535.2007043 -421.3673075)
(786.5429273 -149.1769621 31.24169598)
(286.6241685 887.9515292 705.146834)
(587.3813435 -57.08370453 257.3785732)
(-209.1400778 -32.01552825 -138.3550881)
(356.7688519 946.6866025 536.3111582)
(-620.5085306 -150.7063344 -89.19767196)
(-8.325458613 341.8046292 -401.1812132)
(-319.0778579 688.0005598 -241.602191)
(-108.1638446 235.4866666 -447.6343548)
(1009.097253 570.6215934 -401.2976008)
(73.76456933 -163.4697829 -133.6224481)
(1748.111458 -202.8618144 -100.6283747)
(-515.7363264 28.09072437 222.4377009)
(-15.8662076 716.5863684 -151.6645632)
(719.5242144 -86.15406379 -254.1754321)
(1050.689624 33.02138559 -139.0804505)
(132.4577834 -239.3411045 -497.5736556)
(-182.3126957 -40.98739815 -85.58869268)
(815.5261981 -694.0085372 927.348529)
(1287.040511 1294.701767 -190.5926372)
(-370.2062322 104.3981349 912.4786337)
(1038.265663 -161.704816 251.510052)
(116.5913795 1010.311091 1360.932887)
(355.0411866 791.0947093 161.5489114)
(1024.985122 -105.5450295 -175.2315944)
(110.176428 488.5243028 -112.5345216)
(154.2642761 22.11760015 -169.3471102)
(169.5330252 -20.67888558 -557.5271167)
(469.9359129 505.4440651 -491.3394559)
(661.2945957 -229.0206249 292.2437292)
(764.7095177 -351.8166391 656.7420683)
(650.2915742 634.7122158 310.8483211)
(-65.07012556 343.8404609 254.0503956)
(988.6391787 280.9107512 1167.325287)
(419.2082083 -629.7372624 -150.7429192)
(678.0599519 -1295.182387 -817.4742956)
(1616.49681 504.8824323 -230.5963025)
(165.9835052 -355.0475313 359.6455688)
(-1189.249771 -22.27162769 -198.0188868)
(-272.5205418 175.1396079 307.5398623)
(-191.7066701 -82.69972621 497.421567)
(582.0840994 241.8746416 -1091.96888)
(365.712805 0.9190351886 -450.6132273)
(703.5943596 67.58598395 -552.7384781)
(168.4440021 -1109.809724 761.7226652)
(120.8886429 749.388792 -34.19065313)
(1578.504421 197.0257537 -277.4027747)
(562.6197686 -185.4150315 -335.510727)
(408.2951259 -411.9514706 239.7871723)
(-775.145034 -908.3361154 321.8632947)
(929.3304664 -434.2811471 730.4506713)
(183.1650493 42.10302277 -378.8473298)
(12.06671819 456.0504209 -118.4202229)
(144.6807669 313.8024033 152.6341624)
(372.0105877 408.245706 251.4629796)
(384.7990782 413.199246 106.6280885)
(61.84981797 207.9234308 -16.71383471)
(1588.569724 -441.0860649 574.5647539)
(1404.480922 384.3056775 613.349246)
(1292.401719 67.09586269 -208.9440132)
(2033.443571 669.5875957 77.79567766)
(996.5352404 -293.3341965 -872.3165726)
(51.69276794 -377.6632761 518.3860706)
(256.2292039 -636.0649152 -312.6663039)
(1129.729351 175.4006054 -642.0833971)
(126.4022107 -310.223167 691.6712478)
(15.87205725 837.3864372 -2.120635761)
(147.8686719 -432.4235008 -178.2808005)
(-361.4897031 94.10770837 -409.3449569)
(789.5998487 156.364157 212.8397286)
(334.7808983 606.0599328 -348.45922)
(826.6733733 539.5986233 525.7492739)
(-321.1189387 -908.1337022 54.03311269)
(168.7121443 -138.4802084 375.5771273)
(114.5959802 -465.3666299 510.3481084)
(-306.407082 917.0830685 65.14271301)
(335.2455675 -138.1381225 936.4152093)
(-370.1787137 -197.0368582 -576.4241656)
(735.2207693 863.5535819 28.88182751)
(321.5649369 -864.3583504 534.8514876)
(152.0164925 -1081.330209 -43.18600605)
(860.8787983 -266.7748915 550.6487509)
(270.1995843 154.7409945 -611.0613759)
(239.4507173 -175.3570699 -199.3681192)
(1293.310348 -537.2435592 680.1961762)
(422.5752909 366.8658951 -688.6603229)
(-185.6770833 162.3854125 286.7639045)
(951.3581795 -435.059185 -166.2301848)
(207.4668065 714.9799732 -423.5835487)
(-524.202126 224.9077506 322.560204)
(-360.7395588 -440.6663548 95.60452585)
(-4.304512289 -219.7958661 66.1467046)
(705.2683802 -522.0884094 -541.8267966)
(463.545455 -71.49443248 -540.9437879)
(843.26233 -625.1121584 731.4169687)
(113.433964 373.9267498 -189.4044626)
(487.6945067 210.1269513 -316.7848983)
(-171.0601235 -289.557936 26.70119578)
(488.082313 -310.8475142 -716.8032158)
(124.1884927 232.5393195 764.4261854)
(-136.1308819 -455.0300093 -198.488979)
(538.9989533 -298.8321991 255.9386288)
(154.2290589 -180.7507462 52.26068773)
(488.4871302 131.212724 120.3396336)
(287.5636265 -570.6455896 -353.7965671)
(-505.9514224 55.74576599 -607.1893555)
(83.21559556 -406.6450778 171.0991231)
(296.6146447 -587.0963802 -25.78562721)
(1319.81305 398.2724847 -898.1378416)
(63.93175836 -5.984931667 565.8971284)
(933.9420267 218.0437436 -831.2006964)
(308.4637459 -365.8403749 196.4943549)
(-229.0494787 -734.9638596 -389.8337929)
(831.2364681 -86.74644213 194.927227)
(312.3222287 700.1311931 -183.9134914)
(1255.294509 -319.1717399 812.1573837)
(1664.451136 33.96814368 -128.4034396)
(95.32731491 -158.0725072 -296.4214134)
(-487.3348564 -583.6558052 579.3114763)
(-57.81072006 -142.401374 -107.5000796)
(-60.93981187 -305.260123 177.9457024)
(413.2933365 1060.286439 384.5108166)
(-585.985851 299.1926072 -408.0445259)
(1861.880161 -117.3428105 -8.608130059)
(1150.436442 140.6596248 -1404.622812)
(-494.5004046 -78.98866818 -119.9722015)
(-738.050613 1015.602202 228.118077)
(742.2147392 660.0620313 -8.151097281)
(-323.3581734 -70.21909194 364.7105101)
(391.9450185 101.8764238 -637.0723376)
(45.49211269 334.4298182 138.7130541)
(42.07637944 -459.9982632 -385.6138096)
(329.3168043 5.956329858 -116.866555)
(450.5377512 547.8075208 543.477657)
(67.20183324 275.1014558 740.5993646)
(346.6773317 358.9749311 -361.5340443)
(988.5172928 -263.1857631 -192.7505765)
(226.7580201 467.0002511 -701.9691408)
(432.4432984 -369.8168593 359.4915389)
(276.9339083 -181.5762646 -152.241039)
(269.9893634 -138.65724 -129.2103101)
(1724.009522 186.9553961 -943.1240436)
(-213.4912908 -328.1068463 133.1152373)
(457.2240595 -534.291152 -1409.311723)
(536.9814437 907.1641462 172.4980665)
(728.5289911 266.4880617 5.084706261)
(402.6072805 119.2140092 429.3537484)
(169.2133307 -239.6029817 242.0411125)
(1223.218515 179.2406128 -99.93488682)
(303.8941693 275.8299516 520.3877999)
(-352.8976774 233.845907 -68.57875639)
(791.0827042 517.4900292 -93.31464995)
(538.2464049 296.8094763 -549.9692619)
(342.1708645 248.6298361 188.0822054)
(791.1333762 713.8045529 1842.285831)
(568.1096328 456.9482893 -253.66583)
(-5.015113779 -451.1769091 158.91165)
(-241.5695746 -403.3258684 159.9278005)
(92.19585631 -654.6358768 428.1065715)
(63.0247896 546.7666559 365.1971227)
(-461.3662582 270.7416076 -61.295814)
(1034.075259 -82.32664897 -46.78304868)
(979.5001636 -205.2663596 560.4311451)
(461.3402052 -717.6599386 80.32758911)
(397.9650297 382.9769547 -809.2993819)
(377.8153597 583.3685683 21.57973634)
(-132.8414586 -1072.238257 -890.3632052)
(-80.87013594 63.61309463 686.1127313)
(688.71499 -403.0516036 -281.2726166)
(415.2032769 -5.686185711 18.35779834)
(1401.632564 215.7262569 -425.4866096)
(35.07476515 477.9783127 393.9206607)
(-698.0776373 -551.5832374 -339.0653839)
(825.1783551 35.63088581 -381.6704503)
(-310.9405689 488.8981126 -165.6694265)
(488.7127825 276.4290691 413.8457781)
(635.6530247 -37.1657899 -1656.072976)
(-11.88274477 -779.6651358 -124.7897708)
(1188.242962 -397.2950247 -35.11294764)
(1338.754368 48.2352477 -248.1599293)
(346.1316156 165.7848703 127.0236798)
(298.2922357 438.3725887 793.3079901)
(142.3392134 -931.3803256 -1055.385041)
(1355.874007 106.3565984 208.5914927)
(240.2108237 -44.32229071 -340.7440914)
(-127.9035436 -212.5660665 -748.7412193)
(507.2301883 -224.6587331 -494.2279971)
(1631.504113 983.135294 346.8849284)
(646.8096273 -512.1548675 42.41132764)
(668.2444243 116.021144 -543.4013072)
(33.97175207 615.0385297 -476.7499396)
(364.8686836 -657.1147193 -343.1678978)
(75.62045511 -630.3783989 207.9292336)
(1090.925498 1087.384982 447.3322548)
(-74.17329354 919.5117871 840.2222132)
(79.07272785 369.0517896 -663.6630001)
(300.3676239 -77.74768412 -54.58639448)
(5.211723822 -519.53672 544.8172352)
(-43.64882814 -1118.300193 -534.3420967)
(760.1741052 -190.6509381 391.8719709)
(-255.08543 322.1320645 -790.8179507)
(448.4479909 677.1076874 597.1342303)
(711.9493157 991.2610177 -783.0881043)
(1.801314442 -149.9285939 866.4587478)
(133.2270168 -320.5761494 -189.3785529)
(1327.716514 -47.38429337 147.2071575)
(-192.0871837 -680.4927194 82.3931514)
(1941.99956 944.6822555 453.9374827)
(177.0603145 -59.70546816 612.202545)
(-143.3678494 84.13153217 -115.0093225)
(265.4186371 514.2863838 -440.9489614)
(16.3218806 -407.9229676 -671.4863706)
(1666.427937 40.50626471 -271.4237605)
(998.5980524 100.6835992 530.2511619)
(383.9015081 -133.8052184 376.8376783)
(675.0129713 -40.27009366 -781.9986754)
(240.2669825 -420.6366897 -777.6808798)
(559.9068424 -588.4308569 196.6544144)
(660.7380724 -286.7624729 -374.3684377)
(905.4311081 625.0060296 37.64786628)
(420.8367209 -333.0563009 412.1377533)
(425.0449578 585.8980464 -381.9368292)
(777.2141961 471.9177718 515.1869956)
(-413.1712138 -14.44448296 -2.320146098)
(336.791258 -296.82383 -536.5063297)
(-139.5856629 -552.9488629 -319.1139566)
(360.6535601 258.3371057 629.1345239)
(1667.663537 620.5842186 -146.0900691)
(312.0147661 525.3777661 -50.88423604)
(759.1772004 -24.83161671 -725.4957016)
(1057.938313 -513.9964151 -841.4842297)
(219.9799537 -141.7653237 140.5185523)
(428.7494593 212.1628499 -126.5134413)
(632.4498663 548.1640541 52.48791618)
(258.7485818 -707.1174016 -399.7797396)
(-312.4911632 -553.8655477 905.643828)
(-426.1378212 -417.299485 761.5125731)
(1336.646119 973.309665 -135.2718757)
(421.5518205 -69.92446196 -139.6286834)
(203.7320665 464.0363413 -728.9654305)
(1175.632623 318.2864938 -238.5965418)
(596.7366214 293.2211231 -588.3861551)
(1401.209507 -164.0534907 -237.5313054)
(-288.94181 459.6004751 -495.869084)
(-700.9873076 -659.9778756 281.251201)
(593.0935586 -421.7097181 214.404809)
(1090.700919 -136.8719214 -318.8628135)
(845.8730853 -742.7165262 268.6864242)
(412.3212558 -377.5537243 -295.8461942)
(-203.9227584 280.2857383 -1070.941516)
(232.7225081 407.1582544 159.7180343)
(125.2317369 418.8315241 783.2842714)
(-463.2383498 470.3611477 488.4065208)
(830.4429372 518.2554037 -67.25669345)
(489.9811969 -527.6539847 -454.3947218)
(390.8218375 186.1922791 61.24056719)
(-41.13247118 59.92075805 -35.37022544)
(-176.6012959 -626.1098043 -337.8634224)
(1192.99443 427.1032156 501.2140408)
(-158.7076691 -122.7701145 -220.7097736)
(676.3273889 -255.3326658 -48.55613378)
(1008.14546 276.4139162 -155.282226)
(418.0025541 -248.6485128 -243.4336084)
(102.6057537 -1074.349233 474.7327513)
(1605.921904 489.5287709 694.6930221)
(63.39630921 576.2763848 517.5760119)
(549.3940538 161.2486401 -103.4268159)
(-22.60752409 309.6744668 349.7588477)
(515.6924644 -523.2032845 -424.6450994)
(233.7770168 -522.8939991 305.5228618)
(201.5775917 35.57866843 124.1591952)
(-107.757352 463.7536073 282.4090835)
(-616.5139963 421.2431715 -438.2604333)
(-241.569196 -272.6084955 -107.9293566)
(1090.786301 38.08573693 -270.8810504)
(105.9300453 -122.9435202 43.19567711)
(335.2789985 25.9135652 373.1973759)
(-3.252206844 688.3889595 94.01738941)
(1041.013452 379.5842657 -130.4801634)
(960.3001993 -213.2771833 -754.5369104)
(-194.7298183 639.3924803 101.1786656)
(-739.5077623 728.143004 -840.9079997)
(-137.3016365 -224.8133271 644.537897)
(161.1689777 180.9225875 287.436168)
(421.2099151 961.5592282 888.408803)
(804.9205286 -171.9588006 61.88987193)
(736.6102762 -64.5265718 380.9544912)
(760.4597115 903.6284625 363.449364)
(1958.6617 405.9201085 -462.5973113)
(-712.7840097 150.2460425 -609.807856)
(-48.91450826 -469.1204008 138.4648135)
(1040.425393 136.1036184 252.1844166)
(279.4356788 -700.6130624 91.8034219)
(60.55562392 155.7287104 -220.7630849)
(-493.3837517 322.5949889 -173.4640378)
(123.3909744 1258.727971 -90.95904635)
(-349.357477 187.9940413 14.02358757)
(714.8788902 667.1663875 98.76903929)
(805.1345826 608.5047378 -204.920138)
(608.3839129 -477.1316504 1230.852456)
(178.961372 251.0063258 -502.2747293)
(-327.6148976 489.070224 161.2493682)
(566.3266999 -285.7122154 412.8772903)
(557.8656885 -251.9555328 582.7469494)
(1560.664839 893.5563616 977.2549561)
(-65.94209299 -94.39568734 0.4231463621)
(488.3355516 -137.3464265 396.7858531)
(770.3164318 -91.41656424 -307.4031268)
(434.9795659 -49.59298297 114.1829496)
(-21.43899404 453.893913 -246.5131307)
(1531.734483 -482.3373784 114.4367961)
(224.1780128 768.6004818 408.3951386)
(522.8715626 -629.5837573 -723.293624)
(-59.30406427 -448.2656536 -86.77489047)
(99.55098593 -426.263294 224.5780265)
(153.1308018 75.24787431 -313.4232608)
(949.197482 271.8400642 182.7327035)
(1508.708425 138.7158702 -95.72642369)
(1132.869914 355.8470677 -201.9611194)
(-341.4276143 906.2944216 350.9533881)
(304.6336072 -536.7557072 -227.3814714)
(-14.86660953 -125.2731936 456.0149939)
(277.3827689 452.9373266 197.1536399)
(1546.005298 802.4471733 -826.6558337)
(1623.047126 522.8003943 -76.43797812)
(1556.836474 -29.04247225 -583.0807365)
(637.5093934 597.3603177 244.0293948)
(153.0788805 29.65599249 -410.1295067)
(1131.284578 948.9140065 361.0888254)
(467.4484525 290.5276157 1336.094011)
(30.45813169 -55.8801889 -229.5081409)
(864.1063315 -45.00607073 440.5810194)
(-1008.364659 -178.6115173 -25.0765788)
(531.5074866 36.18007436 623.8589235)
(-633.2761803 -734.1784816 46.65275763)
(676.189018 -453.6058828 112.7309565)
(450.0599639 667.2336092 273.7312374)
(105.7894556 961.8912789 79.25031423)
(-736.7090592 -724.6127038 562.6314307)
(1094.219619 537.4401734 118.0281704)
(-238.9437957 -510.285547 609.6146905)
(1784.215 -871.1350345 72.91072277)
(812.1731467 -135.5377038 535.6220398)
(563.2577182 151.1657115 180.1989361)