/*--------------------------------*- C++ -*----------------------------------*\
| =========                 |                                                 |
| \\      /  F ield         | OpenFOAM: The Open Source CFD Toolbox           |
|  \\    /   O peration     | Version:  v1912                                 |
|   \\  /    A nd           | Website:  www.openfoam.com                      |
|    \\/     M anipulation  |                                                 |
\*---------------------------------------------------------------------------*/
FoamFile
{
    version     2.0;
    format      ascii;
    class       volVectorField;
    location    "3.92";
    object      U;
}
// * * * * * * * * * * * * * * * * * * * * * * * * * * * * * * * * * * * * * //

dimensions      [0 1 -1 0 0 0 0];


internalField   nonuniform List<vector> 
1900
(
(-0.727697 9.62065e-07 0)
(-0.108416 1.64776e-06 0)
(-0.090937 5.46637e-06 0)
(-0.0929229 1.32518e-05 0)
(-0.0901501 0.000124102 0)
(-0.0833578 0.000298553 0)
(-0.075096 0.000666684 0)
(-0.0654625 0.00119971 0)
(-0.0553531 -0.00250259 0)
(-0.039167 -0.00744116 0)
(-0.727705 1.46697e-07 0)
(-0.108431 1.5026e-06 0)
(-0.0909588 -5.7832e-06 0)
(-0.0929435 2.45401e-06 0)
(-0.0900975 9.26543e-05 0)
(-0.0830551 0.000282392 0)
(-0.0742712 0.000653738 0)
(-0.063427 0.00107751 0)
(-0.0527094 -0.00162532 0)
(-0.0407811 -0.00377805 0)
(-0.727707 -1.30864e-14 0)
(-0.108438 1.69658e-14 0)
(-0.0909587 -4.37138e-15 0)
(-0.092922 -4.31291e-15 0)
(-0.0899798 -1.83339e-16 0)
(-0.0827448 9.62472e-15 0)
(-0.0737129 1.34058e-17 0)
(-0.0626544 8.17816e-16 0)
(-0.0529526 -2.75524e-14 0)
(-0.0438663 -1.90674e-14 0)
(-0.727705 -1.46697e-07 0)
(-0.108431 -1.5026e-06 0)
(-0.0909588 5.7832e-06 0)
(-0.0929435 -2.45401e-06 0)
(-0.0900975 -9.26543e-05 0)
(-0.0830551 -0.000282392 0)
(-0.0742712 -0.000653738 0)
(-0.063427 -0.00107751 0)
(-0.0527094 0.00162532 0)
(-0.0407811 0.00377805 0)
(-0.727697 -9.62065e-07 0)
(-0.108416 -1.64776e-06 0)
(-0.090937 -5.46637e-06 0)
(-0.0929229 -1.32518e-05 0)
(-0.0901501 -0.000124102 0)
(-0.0833578 -0.000298553 0)
(-0.075096 -0.000666684 0)
(-0.0654625 -0.00119971 0)
(-0.0553531 0.00250259 0)
(-0.039167 0.00744116 0)
(-0.0316083 -0.0187633 0)
(-0.0323873 -0.0209579 0)
(-0.0312285 -0.0221962 0)
(-0.0311878 -0.0254364 0)
(-0.0657407 -0.0249844 0)
(-0.0368987 -0.0103059 0)
(-0.037411 -0.0122126 0)
(-0.0396407 -0.0145916 0)
(-0.050581 -0.0186692 0)
(-0.0868585 -0.0170888 0)
(-0.040221 -1.14568e-14 0)
(-0.0417612 -1.10682e-14 0)
(-0.0472243 1.5236e-14 0)
(-0.0621659 -8.99763e-15 0)
(-0.094854 1.93172e-15 0)
(-0.0368987 0.0103059 0)
(-0.037411 0.0122126 0)
(-0.0396407 0.0145916 0)
(-0.050581 0.0186692 0)
(-0.0868585 0.0170888 0)
(-0.0316083 0.0187633 0)
(-0.0323873 0.0209579 0)
(-0.0312285 0.0221962 0)
(-0.0311878 0.0254364 0)
(-0.0657407 0.0249844 0)
(-0.0901016 0.00424393 0)
(-0.0384311 0.00416984 0)
(-0.0114537 0.00405738 0)
(0.0132345 0.0166299 0)
(0.00571262 0.0365004 0)
(-0.0946151 0.00487879 0)
(-0.0442178 0.00317333 0)
(-0.0150109 0.00225782 0)
(0.0314126 0.0138144 0)
(0.10067 0.0526439 0)
(-0.0981948 1.35909e-14 0)
(-0.0474748 4.85639e-14 0)
(-0.0161194 3.73038e-14 0)
(0.042942 4.76808e-14 0)
(0.146919 -2.20871e-14 0)
(-0.0946151 -0.00487879 0)
(-0.0442178 -0.00317333 0)
(-0.0150109 -0.00225782 0)
(0.0314126 -0.0138144 0)
(0.10067 -0.0526439 0)
(-0.0901016 -0.00424393 0)
(-0.0384311 -0.00416984 0)
(-0.0114537 -0.00405738 0)
(0.0132345 -0.0166299 0)
(0.00571262 -0.0365004 0)
(-0.123727 0.00393821 0)
(0.157394 -0.150758 0)
(0.0626799 -0.20283 0)
(-0.115677 -0.160457 0)
(-0.22633 -0.0828362 0)
(-0.293993 -0.0452475 0)
(-0.343466 -0.034918 0)
(-0.376934 -0.0317056 0)
(-0.379813 -0.0292418 0)
(-0.366829 -0.0282023 0)
(-0.346032 -0.027574 0)
(-0.319491 -0.0272369 0)
(-0.288797 -0.0269698 0)
(-0.254813 -0.0267932 0)
(-0.21841 -0.0266594 0)
(-0.180139 -0.0265513 0)
(-0.140359 -0.0264597 0)
(-0.099383 -0.0263858 0)
(-0.0573862 -0.0263087 0)
(-0.0147664 -0.0264013 0)
(0.0282702 -0.0263603 0)
(0.0717952 -0.0262256 0)
(0.115541 -0.0262516 0)
(0.159218 -0.0262637 0)
(0.202763 -0.0262806 0)
(0.245945 -0.0263004 0)
(0.288498 -0.0263257 0)
(0.33007 -0.0263559 0)
(0.37027 -0.0263965 0)
(0.408722 -0.0264257 0)
(0.444996 -0.0265041 0)
(0.478533 -0.0264268 0)
(0.508391 -0.0266316 0)
(0.533341 -0.026226 0)
(0.553136 -0.0267585 0)
(0.567765 -0.0261181 0)
(0.580366 -0.026974 0)
(0.588643 -0.0263929 0)
(0.578078 -0.0291074 0)
(1.18792 -0.0305738 0)
(0.25749 0.0516783 0)
(0.444247 -0.0895814 0)
(0.24299 -0.131933 0)
(-0.0482702 -0.0944562 0)
(-0.215811 -0.0437161 0)
(-0.294255 -0.0224758 0)
(-0.344031 -0.0172422 0)
(-0.378069 -0.0158364 0)
(-0.38083 -0.0145223 0)
(-0.367883 -0.0140943 0)
(-0.347035 -0.0137693 0)
(-0.320407 -0.0136022 0)
(-0.289623 -0.0134702 0)
(-0.255538 -0.0133825 0)
(-0.219026 -0.0133157 0)
(-0.180643 -0.0132615 0)
(-0.140749 -0.0132156 0)
(-0.0996599 -0.0131787 0)
(-0.0575498 -0.0131402 0)
(-0.0148169 -0.0131866 0)
(0.0283327 -0.0131663 0)
(0.07197 -0.0130994 0)
(0.115826 -0.0131128 0)
(0.159612 -0.0131195 0)
(0.203263 -0.0131287 0)
(0.246547 -0.0131394 0)
(0.289197 -0.0131528 0)
(0.330862 -0.0131684 0)
(0.37115 -0.0131885 0)
(0.409681 -0.0132022 0)
(0.446026 -0.0132381 0)
(0.479627 -0.0131937 0)
(0.509514 -0.0132836 0)
(0.534496 -0.0130706 0)
(0.554245 -0.0133081 0)
(0.568819 -0.0129765 0)
(0.581404 -0.0133689 0)
(0.589536 -0.013075 0)
(0.579367 -0.0146122 0)
(1.18783 -0.0127246 0)
(0.358003 -7.89258e-14 0)
(0.530239 -1.41445e-13 0)
(0.322858 -3.72351e-14 0)
(-0.0154457 1.45259e-13 0)
(-0.212517 -5.37924e-13 0)
(-0.297258 -1.29943e-12 0)
(-0.346259 -1.91266e-12 0)
(-0.380027 -2.70295e-12 0)
(-0.382141 -4.24382e-12 0)
(-0.368957 -1.64854e-12 0)
(-0.347943 -1.20667e-13 0)
(-0.321147 1.02102e-13 0)
(-0.290223 -5.06827e-13 0)
(-0.256018 -7.60947e-13 0)
(-0.219405 1.32872e-12 0)
(-0.180934 7.77009e-12 0)
(-0.140963 1.48643e-11 0)
(-0.0998052 9.44177e-12 0)
(-0.0576324 -1.32036e-11 0)
(-0.0148405 -1.61301e-11 0)
(0.0283668 2.53175e-12 0)
(0.0720626 1.66825e-11 0)
(0.11598 -8.89824e-12 0)
(0.159832 -3.54599e-11 0)
(0.203556 -2.63052e-11 0)
(0.246924 -1.17428e-12 0)
(0.28967 1.46416e-11 0)
(0.331448 1.7456e-11 0)
(0.371871 7.74133e-12 0)
(0.410568 6.98111e-12 0)
(0.447116 -9.19214e-14 0)
(0.480972 6.95505e-12 0)
(0.511178 4.61035e-12 0)
(0.536525 -3.49533e-12 0)
(0.556768 1.9788e-11 0)
(0.571795 -1.44314e-13 0)
(0.584986 -1.50691e-11 0)
(0.59344 -4.35465e-12 0)
(0.582872 1.68076e-11 0)
(1.1933 5.30203e-12 0)
(0.25749 -0.0516783 0)
(0.444247 0.0895814 0)
(0.24299 0.131933 0)
(-0.0482702 0.0944562 0)
(-0.215811 0.0437161 0)
(-0.294255 0.0224758 0)
(-0.344031 0.0172422 0)
(-0.378069 0.0158364 0)
(-0.38083 0.0145223 0)
(-0.367883 0.0140943 0)
(-0.347035 0.0137693 0)
(-0.320407 0.0136022 0)
(-0.289623 0.0134702 0)
(-0.255538 0.0133825 0)
(-0.219026 0.0133157 0)
(-0.180643 0.0132615 0)
(-0.140749 0.0132156 0)
(-0.0996599 0.0131787 0)
(-0.0575498 0.0131402 0)
(-0.0148169 0.0131866 0)
(0.0283327 0.0131663 0)
(0.07197 0.0130994 0)
(0.115826 0.0131128 0)
(0.159612 0.0131195 0)
(0.203263 0.0131287 0)
(0.246547 0.0131394 0)
(0.289197 0.0131528 0)
(0.330862 0.0131684 0)
(0.37115 0.0131885 0)
(0.409681 0.0132022 0)
(0.446026 0.0132381 0)
(0.479627 0.0131937 0)
(0.509514 0.0132836 0)
(0.534496 0.0130706 0)
(0.554245 0.0133081 0)
(0.568819 0.0129765 0)
(0.581404 0.0133689 0)
(0.589536 0.013075 0)
(0.579367 0.0146122 0)
(1.18783 0.0127246 0)
(-0.123727 -0.00393821 0)
(0.157394 0.150758 0)
(0.0626799 0.20283 0)
(-0.115677 0.160457 0)
(-0.22633 0.0828362 0)
(-0.293993 0.0452475 0)
(-0.343466 0.034918 0)
(-0.376934 0.0317056 0)
(-0.379813 0.0292418 0)
(-0.366829 0.0282023 0)
(-0.346032 0.027574 0)
(-0.319491 0.0272369 0)
(-0.288797 0.0269698 0)
(-0.254813 0.0267932 0)
(-0.21841 0.0266594 0)
(-0.180139 0.0265513 0)
(-0.140359 0.0264597 0)
(-0.099383 0.0263858 0)
(-0.0573862 0.0263087 0)
(-0.0147664 0.0264013 0)
(0.0282702 0.0263603 0)
(0.0717952 0.0262256 0)
(0.115541 0.0262516 0)
(0.159218 0.0262637 0)
(0.202763 0.0262806 0)
(0.245945 0.0263004 0)
(0.288498 0.0263257 0)
(0.33007 0.0263559 0)
(0.37027 0.0263965 0)
(0.408722 0.0264257 0)
(0.444996 0.0265041 0)
(0.478533 0.0264268 0)
(0.508391 0.0266316 0)
(0.533341 0.026226 0)
(0.553136 0.0267585 0)
(0.567765 0.0261181 0)
(0.580366 0.026974 0)
(0.588643 0.0263929 0)
(0.578078 0.0291074 0)
(1.18792 0.0305738 0)
(-0.86035 -0.0467488 0)
(-0.248819 0.163916 0)
(-0.20247 0.275231 0)
(-0.221207 0.233189 0)
(-0.262356 0.144533 0)
(-0.307422 0.0912595 0)
(-0.352625 0.0724444 0)
(-0.381908 0.0652988 0)
(-0.383341 0.0607077 0)
(-0.369339 0.0584907 0)
(-0.348117 0.0573178 0)
(-0.321253 0.0566014 0)
(-0.290259 0.0560523 0)
(-0.256036 0.055686 0)
(-0.219428 0.0554016 0)
(-0.180967 0.0551706 0)
(-0.141002 0.054975 0)
(-0.0998435 0.0548176 0)
(-0.0576668 0.0546558 0)
(-0.0148716 0.0548485 0)
(0.0283353 0.0547638 0)
(0.0720276 0.0544845 0)
(0.11594 0.0545398 0)
(0.159782 0.0545675 0)
(0.203493 0.0546056 0)
(0.246842 0.0546501 0)
(0.289565 0.054706 0)
(0.331313 0.0547711 0)
(0.371697 0.054858 0)
(0.410339 0.0549142 0)
(0.44681 0.0550852 0)
(0.480535 0.0548996 0)
(0.510648 0.055329 0)
(0.535773 0.0544827 0)
(0.556004 0.0554639 0)
(0.570968 0.0542607 0)
(0.583991 0.055815 0)
(0.593047 0.0544942 0)
(0.58141 0.0629625 0)
(1.19455 0.0608854 0)
(-1.09894 0.027254 0)
(-0.513 0.280356 0)
(-0.404228 0.343565 0)
(-0.324026 0.293143 0)
(-0.32532 0.208523 0)
(-0.337167 0.15434 0)
(-0.370219 0.12793 0)
(-0.389848 0.115136 0)
(-0.386343 0.108128 0)
(-0.371197 0.104608 0)
(-0.349425 0.102717 0)
(-0.322206 0.101428 0)
(-0.290924 0.100496 0)
(-0.256537 0.09986 0)
(-0.21983 0.0993519 0)
(-0.181297 0.0989381 0)
(-0.141267 0.0985887 0)
(-0.100047 0.0983091 0)
(-0.0578137 0.0980235 0)
(-0.0149704 0.0983764 0)
(0.0282747 0.0982281 0)
(0.0719971 0.0977267 0)
(0.115937 0.097827 0)
(0.1598 0.0978783 0)
(0.203526 0.0979481 0)
(0.246887 0.0980289 0)
(0.289615 0.098129 0)
(0.331362 0.0982433 0)
(0.371734 0.0983996 0)
(0.410342 0.0984888 0)
(0.446752 0.0988269 0)
(0.480315 0.0984515 0)
(0.510371 0.0992901 0)
(0.535233 0.097819 0)
(0.555545 0.0994504 0)
(0.570414 0.0976691 0)
(0.583355 0.100138 0)
(0.593067 0.0980456 0)
(0.579817 0.116553 0)
(1.18298 0.110308 0)
(-1.13722 0.0713148 0)
(-0.603372 0.296252 0)
(-0.488161 0.359126 0)
(-0.393194 0.311035 0)
(-0.37582 0.245938 0)
(-0.373101 0.204538 0)
(-0.390909 0.17873 0)
(-0.398282 0.16312 0)
(-0.390328 0.154946 0)
(-0.373717 0.150436 0)
(-0.351029 0.148002 0)
(-0.323299 0.14616 0)
(-0.291663 0.14487 0)
(-0.257087 0.143963 0)
(-0.220266 0.143217 0)
(-0.18165 0.142614 0)
(-0.141549 0.142107 0)
(-0.100263 0.141705 0)
(-0.0579707 0.141299 0)
(-0.015081 0.141819 0)
(0.0281969 0.141609 0)
(0.0719431 0.140883 0)
(0.115907 0.141029 0)
(0.159786 0.141107 0)
(0.203527 0.141212 0)
(0.246899 0.141333 0)
(0.289636 0.141482 0)
(0.331393 0.141649 0)
(0.371765 0.141888 0)
(0.410355 0.141986 0)
(0.446738 0.142541 0)
(0.480161 0.141904 0)
(0.510261 0.143169 0)
(0.534952 0.141201 0)
(0.555521 0.143234 0)
(0.570541 0.141283 0)
(0.583731 0.144235 0)
(0.594458 0.141813 0)
(0.583012 0.168028 0)
(1.19002 0.16813 0)
(-1.1434 0.15978 0)
(-0.627083 0.318521 0)
(-0.521101 0.368596 0)
(-0.439658 0.32675 0)
(-0.409286 0.281362 0)
(-0.407697 0.246627 0)
(-0.408961 0.224361 0)
(-0.407355 0.20945 0)
(-0.395375 0.201086 0)
(-0.377271 0.195689 0)
(-0.353339 0.192895 0)
(-0.324907 0.190625 0)
(-0.292836 0.188978 0)
(-0.257995 0.187806 0)
(-0.220995 0.186817 0)
(-0.182238 0.186023 0)
(-0.142014 0.18536 0)
(-0.100615 0.184838 0)
(-0.0582212 0.184316 0)
(-0.0152469 0.185013 0)
(0.0280974 0.184745 0)
(0.071899 0.18379 0)
(0.115919 0.18398 0)
(0.159847 0.184084 0)
(0.203634 0.184225 0)
(0.247052 0.18439 0)
(0.28983 0.184591 0)
(0.331623 0.184801 0)
(0.372033 0.185143 0)
(0.410612 0.185208 0)
(0.446969 0.186044 0)
(0.480181 0.185038 0)
(0.510355 0.186755 0)
(0.534832 0.184463 0)
(0.555529 0.186707 0)
(0.570519 0.184849 0)
(0.583717 0.187975 0)
(0.594984 0.185575 0)
(0.583439 0.216141 0)
(1.17558 0.215594 0)
(-1.13024 0.222371 0)
(-0.63449 0.344071 0)
(-0.538114 0.383018 0)
(-0.473328 0.344141 0)
(-0.441659 0.313135 0)
(-0.431263 0.286607 0)
(-0.42579 0.267428 0)
(-0.416703 0.254054 0)
(-0.401345 0.245889 0)
(-0.381263 0.240441 0)
(-0.356114 0.237229 0)
(-0.32685 0.234658 0)
(-0.294297 0.23268 0)
(-0.259141 0.231247 0)
(-0.221915 0.230018 0)
(-0.182977 0.229036 0)
(-0.142594 0.22822 0)
(-0.101052 0.227581 0)
(-0.0585303 0.226951 0)
(-0.0154519 0.227839 0)
(0.0279728 0.227513 0)
(0.071841 0.226322 0)
(0.115931 0.226554 0)
(0.159917 0.226686 0)
(0.203763 0.226866 0)
(0.247232 0.22707 0)
(0.290067 0.227333 0)
(0.331915 0.227582 0)
(0.372358 0.228051 0)
(0.410945 0.228014 0)
(0.447343 0.229239 0)
(0.480351 0.227784 0)
(0.510597 0.229892 0)
(0.535091 0.227493 0)
(0.55615 0.229831 0)
(0.571467 0.228241 0)
(0.585021 0.231354 0)
(0.597074 0.229171 0)
(0.586778 0.264717 0)
(1.17006 0.27195 0)
(-1.12675 0.272307 0)
(-0.635641 0.367611 0)
(-0.548021 0.400423 0)
(-0.49533 0.367484 0)
(-0.464719 0.346977 0)
(-0.449689 0.32508 0)
(-0.437828 0.309117 0)
(-0.424545 0.297371 0)
(-0.40703 0.289688 0)
(-0.385231 0.284399 0)
(-0.358984 0.280887 0)
(-0.329025 0.278059 0)
(-0.296007 0.275782 0)
(-0.260517 0.274089 0)
(-0.223035 0.272628 0)
(-0.183875 0.271462 0)
(-0.143297 0.270498 0)
(-0.101579 0.269746 0)
(-0.0588999 0.269015 0)
(-0.015695 0.27011 0)
(0.027827 0.26973 0)
(0.0717756 0.268291 0)
(0.11595 0.268563 0)
(0.160007 0.268726 0)
(0.20392 0.268944 0)
(0.247463 0.269198 0)
(0.290343 0.269523 0)
(0.332253 0.269801 0)
(0.372733 0.270483 0)
(0.411165 0.270209 0)
(0.447522 0.27192 0)
(0.480151 0.26998 0)
(0.510318 0.272472 0)
(0.534231 0.26997 0)
(0.555216 0.272266 0)
(0.569924 0.270985 0)
(0.582869 0.273718 0)
(0.59427 0.271943 0)
(0.58827 0.30805 0)
(1.15496 0.317423 0)
(-1.1345 0.321797 0)
(-0.641375 0.393949 0)
(-0.561523 0.422147 0)
(-0.517546 0.3935 0)
(-0.487492 0.380548 0)
(-0.468121 0.362293 0)
(-0.451296 0.349385 0)
(-0.434039 0.339186 0)
(-0.413937 0.332255 0)
(-0.390165 0.327224 0)
(-0.362584 0.32356 0)
(-0.331721 0.32052 0)
(-0.298086 0.318005 0)
(-0.262184 0.316087 0)
(-0.224366 0.314409 0)
(-0.18493 0.31307 0)
(-0.144112 0.311968 0)
(-0.102185 0.311109 0)
(-0.0593228 0.310283 0)
(-0.0159712 0.311606 0)
(0.0276621 0.311174 0)
(0.0717019 0.309475 0)
(0.115974 0.309786 0)
(0.160114 0.309982 0)
(0.204114 0.310239 0)
(0.247748 0.310531 0)
(0.290753 0.310957 0)
(0.332759 0.311183 0)
(0.373443 0.312138 0)
(0.412013 0.311596 0)
(0.448609 0.313829 0)
(0.481356 0.311389 0)
(0.512012 0.314325 0)
(0.536435 0.312092 0)
(0.558075 0.314342 0)
(0.573936 0.313651 0)
(0.587496 0.316279 0)
(0.599238 0.31495 0)
(0.599128 0.350681 0)
(1.14358 0.369001 0)
(-1.11564 0.36471 0)
(-0.639663 0.417547 0)
(-0.565948 0.444394 0)
(-0.527804 0.422113 0)
(-0.498564 0.414053 0)
(-0.475954 0.39823 0)
(-0.456939 0.388195 0)
(-0.438202 0.379173 0)
(-0.416936 0.373255 0)
(-0.392608 0.368586 0)
(-0.364751 0.364924 0)
(-0.33368 0.361779 0)
(-0.299915 0.35912 0)
(-0.263812 0.35697 0)
(-0.22576 0.355102 0)
(-0.186073 0.353602 0)
(-0.145005 0.35237 0)
(-0.102854 0.351408 0)
(-0.0597899 0.350493 0)
(-0.0162745 0.352069 0)
(0.0274833 0.351586 0)
(0.0716223 0.349611 0)
(0.116 0.349962 0)
(0.160217 0.350192 0)
(0.204289 0.350498 0)
(0.247959 0.350817 0)
(0.290952 0.351332 0)
(0.332888 0.351496 0)
(0.373284 0.352731 0)
(0.411343 0.351572 0)
(0.447576 0.354451 0)
(0.479279 0.351296 0)
(0.509162 0.354189 0)
(0.532554 0.352002 0)
(0.553606 0.3538 0)
(0.568788 0.353202 0)
(0.581921 0.355848 0)
(0.592056 0.354912 0)
(0.606365 0.380241 0)
(1.12762 0.408163 0)
(-1.10513 0.415638 0)
(-0.64449 0.44447 0)
(-0.57553 0.468941 0)
(-0.542775 0.452265 0)
(-0.515317 0.446732 0)
(-0.490322 0.433359 0)
(-0.469675 0.426041 0)
(-0.448608 0.418097 0)
(-0.425404 0.412986 0)
(-0.399113 0.408534 0)
(-0.369978 0.404885 0)
(-0.337836 0.401613 0)
(-0.303143 0.398734 0)
(-0.266307 0.396366 0)
(-0.227684 0.394352 0)
(-0.187529 0.392708 0)
(-0.146084 0.391378 0)
(-0.103638 0.390328 0)
(-0.0603275 0.389338 0)
(-0.0166151 0.391197 0)
(0.0272934 0.390663 0)
(0.0715528 0.388391 0)
(0.116072 0.388779 0)
(0.160425 0.389044 0)
(0.204666 0.38938 0)
(0.248574 0.389746 0)
(0.291828 0.390367 0)
(0.334182 0.390356 0)
(0.375255 0.392239 0)
(0.41366 0.390345 0)
(0.450586 0.393886 0)
(0.482963 0.390586 0)
(0.513342 0.393534 0)
(0.537408 0.391631 0)
(0.55922 0.393169 0)
(0.5753 0.392667 0)
(0.589181 0.395386 0)
(0.598332 0.395099 0)
(0.623374 0.410051 0)
(1.11068 0.454272 0)
(-1.08918 0.453423 0)
(-0.643527 0.468703 0)
(-0.576745 0.492583 0)
(-0.546917 0.482423 0)
(-0.520274 0.477903 0)
(-0.493631 0.466172 0)
(-0.472146 0.461236 0)
(-0.449395 0.453726 0)
(-0.425521 0.449735 0)
(-0.398787 0.445352 0)
(-0.369997 0.442174 0)
(-0.338244 0.438791 0)
(-0.303919 0.436027 0)
(-0.267353 0.433661 0)
(-0.228756 0.43164 0)
(-0.188499 0.429964 0)
(-0.146901 0.428612 0)
(-0.104289 0.427512 0)
(-0.0608076 0.426474 0)
(-0.0169375 0.428654 0)
(0.0270919 0.428065 0)
(0.0714218 0.425469 0)
(0.116004 0.425876 0)
(0.160356 0.426145 0)
(0.204516 0.426449 0)
(0.24825 0.426699 0)
(0.291246 0.427404 0)
(0.332923 0.426844 0)
(0.373403 0.429061 0)
(0.410853 0.426264 0)
(0.446891 0.430189 0)
(0.478332 0.426443 0)
(0.508166 0.429077 0)
(0.531583 0.427185 0)
(0.553707 0.428268 0)
(0.569901 0.427402 0)
(0.584371 0.43016 0)
(0.592399 0.430213 0)
(0.631158 0.431941 0)
(1.09253 0.487333 0)
(-1.07339 0.498072 0)
(-0.644726 0.495198 0)
(-0.580316 0.516428 0)
(-0.555607 0.511926 0)
(-0.52821 0.507205 0)
(-0.502619 0.497456 0)
(-0.481701 0.494032 0)
(-0.457591 0.487264 0)
(-0.433317 0.484528 0)
(-0.40577 0.480266 0)
(-0.376375 0.477589 0)
(-0.34393 0.474053 0)
(-0.308692 0.471346 0)
(-0.271248 0.46879 0)
(-0.23176 0.466687 0)
(-0.190735 0.464972 0)
(-0.1485 0.463604 0)
(-0.105408 0.462465 0)
(-0.0615554 0.461407 0)
(-0.0173798 0.463951 0)
(0.026895 0.4633 0)
(0.071433 0.460355 0)
(0.116286 0.460777 0)
(0.160961 0.461052 0)
(0.205529 0.461377 0)
(0.249735 0.461547 0)
(0.293306 0.462463 0)
(0.335621 0.461628 0)
(0.376728 0.46437 0)
(0.41459 0.460753 0)
(0.451041 0.465091 0)
(0.482315 0.461096 0)
(0.512003 0.463408 0)
(0.534827 0.46165 0)
(0.557749 0.462573 0)
(0.573818 0.461489 0)
(0.588922 0.464093 0)
(0.595988 0.464437 0)
(0.638961 0.458627 0)
(1.07224 0.527379 0)
(-1.05682 0.529418 0)
(-0.643444 0.517397 0)
(-0.581392 0.53739 0)
(-0.559247 0.535978 0)
(-0.530441 0.530434 0)
(-0.506062 0.525011 0)
(-0.484831 0.522731 0)
(-0.459189 0.516489 0)
(-0.434504 0.515637 0)
(-0.406036 0.510595 0)
(-0.375989 0.50905 0)
(-0.343374 0.50492 0)
(-0.308187 0.502566 0)
(-0.270797 0.499974 0)
(-0.231404 0.498074 0)
(-0.190502 0.496545 0)
(-0.148372 0.495355 0)
(-0.105419 0.494326 0)
(-0.0616686 0.493362 0)
(-0.0175797 0.496355 0)
(0.0266054 0.495619 0)
(0.070939 0.492248 0)
(0.115564 0.492579 0)
(0.159885 0.49267 0)
(0.204052 0.492811 0)
(0.247775 0.492616 0)
(0.290874 0.493531 0)
(0.332648 0.491789 0)
(0.373593 0.495085 0)
(0.411 0.490298 0)
(0.447574 0.494784 0)
(0.478645 0.490315 0)
(0.508575 0.491645 0)
(0.530855 0.489001 0)
(0.55481 0.489233 0)
(0.571244 0.487192 0)
(0.587369 0.48898 0)
(0.594132 0.488671 0)
(0.637971 0.479894 0)
(1.05307 0.55308 0)
(-1.03786 0.569673 0)
(-0.642236 0.541044 0)
(-0.582738 0.558512 0)
(-0.562471 0.558367 0)
(-0.533419 0.55243 0)
(-0.51119 0.55103 0)
(-0.488193 0.548697 0)
(-0.463266 0.543604 0)
(-0.439046 0.543737 0)
(-0.410629 0.537952 0)
(-0.380909 0.537283 0)
(-0.34845 0.53308 0)
(-0.312918 0.531072 0)
(-0.27502 0.528242 0)
(-0.235056 0.526418 0)
(-0.193484 0.524778 0)
(-0.150712 0.523546 0)
(-0.107179 0.522412 0)
(-0.0628711 0.521401 0)
(-0.0182241 0.524794 0)
(0.0264523 0.523977 0)
(0.0712453 0.520254 0)
(0.116394 0.52069 0)
(0.161202 0.520875 0)
(0.205796 0.521094 0)
(0.249942 0.520896 0)
(0.293327 0.522091 0)
(0.33505 0.51971 0)
(0.376298 0.523683 0)
(0.413185 0.517962 0)
(0.449286 0.52225 0)
(0.479441 0.517831 0)
(0.509145 0.518854 0)
(0.530804 0.516214 0)
(0.55546 0.516396 0)
(0.572291 0.514228 0)
(0.589055 0.515661 0)
(0.595699 0.515066 0)
(0.636946 0.506803 0)
(1.02984 0.58813 0)
(-1.01971 0.596861 0)
(-0.639922 0.561223 0)
(-0.583236 0.576692 0)
(-0.564514 0.576375 0)
(-0.535848 0.570644 0)
(-0.514852 0.571026 0)
(-0.489815 0.567896 0)
(-0.465673 0.564969 0)
(-0.441349 0.565108 0)
(-0.41289 0.558916 0)
(-0.383081 0.560132 0)
(-0.349745 0.554425 0)
(-0.313605 0.553205 0)
(-0.275073 0.550392 0)
(-0.234481 0.548709 0)
(-0.192509 0.547171 0)
(-0.149552 0.546068 0)
(-0.106126 0.545011 0)
(-0.0621791 0.544106 0)
(-0.018153 0.54804 0)
(0.025899 0.547101 0)
(0.0699649 0.542811 0)
(0.114585 0.543093 0)
(0.159026 0.54309 0)
(0.203484 0.543191 0)
(0.247614 0.542492 0)
(0.291347 0.544155 0)
(0.333022 0.540484 0)
(0.374542 0.545068 0)
(0.411491 0.538699 0)
(0.447764 0.542716 0)
(0.477336 0.537982 0)
(0.507097 0.538476 0)
(0.528364 0.535644 0)
(0.553627 0.535681 0)
(0.570978 0.533598 0)
(0.588285 0.534876 0)
(0.595046 0.534456 0)
(0.6336 0.527232 0)
(1.00852 0.610476 0)
(-0.996984 0.63504 0)
(-0.637079 0.582609 0)
(-0.5834 0.595575 0)
(-0.566299 0.596993 0)
(-0.538275 0.592014 0)
(-0.518072 0.592163 0)
(-0.49159 0.587648 0)
(-0.46932 0.586054 0)
(-0.444794 0.58519 0)
(-0.416854 0.578457 0)
(-0.386903 0.579423 0)
(-0.353531 0.572557 0)
(-0.317678 0.572274 0)
(-0.27876 0.568899 0)
(-0.2379 0.567291 0)
(-0.195633 0.565572 0)
(-0.152296 0.564365 0)
(-0.108432 0.563109 0)
(-0.0638062 0.56204 0)
(-0.0189841 0.566308 0)
(0.0259433 0.565352 0)
(0.0707559 0.560807 0)
(0.115966 0.561305 0)
(0.160735 0.561454 0)
(0.205352 0.561756 0)
(0.249468 0.560964 0)
(0.293218 0.563198 0)
(0.334563 0.559073 0)
(0.375833 0.564292 0)
(0.412494 0.558063 0)
(0.448736 0.562972 0)
(0.47781 0.559435 0)
(0.507417 0.560764 0)
(0.528366 0.558824 0)
(0.554074 0.559462 0)
(0.571669 0.557751 0)
(0.589345 0.559355 0)
(0.596014 0.558821 0)
(0.631608 0.552819 0)
(0.981493 0.643741 0)
(-0.976758 0.660085 0)
(-0.634001 0.603242 0)
(-0.583172 0.613807 0)
(-0.567324 0.613908 0)
(-0.54055 0.609135 0)
(-0.520678 0.608934 0)
(-0.493517 0.603951 0)
(-0.47274 0.603103 0)
(-0.447567 0.599789 0)
(-0.420063 0.59279 0)
(-0.39015 0.593439 0)
(-0.3564 0.586078 0)
(-0.319515 0.585996 0)
(-0.279715 0.581994 0)
(-0.238101 0.580848 0)
(-0.19524 0.579034 0)
(-0.15152 0.577849 0)
(-0.107524 0.576421 0)
(-0.0629547 0.575239 0)
(-0.0191207 0.579915 0)
(0.0250134 0.578769 0)
(0.0691372 0.573723 0)
(0.114085 0.574329 0)
(0.158837 0.574523 0)
(0.203643 0.575044 0)
(0.248024 0.573849 0)
(0.292211 0.576945 0)
(0.333761 0.572115 0)
(0.375346 0.5785 0)
(0.411731 0.572171 0)
(0.447818 0.577188 0)
(0.476132 0.574038 0)
(0.505602 0.575792 0)
(0.526437 0.574503 0)
(0.55245 0.575572 0)
(0.570911 0.574809 0)
(0.588547 0.576542 0)
(0.595405 0.576868 0)
(0.629062 0.571585 0)
(0.958409 0.663082 0)
(-0.951866 0.688935 0)
(-0.630247 0.61311 0)
(-0.582608 0.624525 0)
(-0.567816 0.628229 0)
(-0.541251 0.623312 0)
(-0.521438 0.621796 0)
(-0.494828 0.61567 0)
(-0.475717 0.614312 0)
(-0.450663 0.609585 0)
(-0.424313 0.604609 0)
(-0.394512 0.604783 0)
(-0.360472 0.595999 0)
(-0.323726 0.597358 0)
(-0.283613 0.592979 0)
(-0.241894 0.592438 0)
(-0.198817 0.590578 0)
(-0.154792 0.589425 0)
(-0.110313 0.587752 0)
(-0.0648564 0.586423 0)
(-0.0200358 0.591613 0)
(0.0254994 0.590542 0)
(0.070581 0.585138 0)
(0.116223 0.585957 0)
(0.161297 0.586325 0)
(0.206224 0.58716 0)
(0.250412 0.585543 0)
(0.294591 0.589181 0)
(0.335829 0.583626 0)
(0.377328 0.590564 0)
(0.414023 0.584551 0)
(0.450227 0.589987 0)
(0.478162 0.587553 0)
(0.50724 0.58967 0)
(0.52778 0.588984 0)
(0.553919 0.590322 0)
(0.572405 0.589566 0)
(0.590059 0.591121 0)
(0.595981 0.588683 0)
(0.626335 0.582884 0)
(0.92965 0.684322 0)
(-0.921757 0.696113 0)
(-0.620544 0.616964 0)
(-0.578812 0.626347 0)
(-0.56983 0.630477 0)
(-0.547344 0.627419 0)
(-0.528366 0.626361 0)
(-0.501979 0.62104 0)
(-0.482709 0.619197 0)
(-0.456524 0.613823 0)
(-0.430174 0.610953 0)
(-0.398806 0.610778 0)
(-0.363063 0.60367 0)
(-0.325121 0.606721 0)
(-0.284022 0.602406 0)
(-0.241436 0.602899 0)
(-0.197741 0.600727 0)
(-0.15338 0.5991 0)
(-0.109036 0.596539 0)
(-0.0642295 0.594234 0)
(-0.0200978 0.599193 0)
(0.0243589 0.598206 0)
(0.0687282 0.593133 0)
(0.11381 0.595052 0)
(0.158669 0.596385 0)
(0.203658 0.598248 0)
(0.248175 0.596483 0)
(0.29268 0.600797 0)
(0.334285 0.594049 0)
(0.376106 0.600683 0)
(0.412883 0.593374 0)
(0.449627 0.597536 0)
(0.477467 0.594197 0)
(0.506724 0.595704 0)
(0.527336 0.594837 0)
(0.553516 0.596056 0)
(0.572587 0.595363 0)
(0.588032 0.595898 0)
(0.592715 0.59243 0)
(0.615919 0.588915 0)
(0.897993 0.676856 0)
(-1.03923 0.454041 0)
(-0.593416 0.597511 0)
(-0.579564 0.630051 0)
(-0.568093 0.646001 0)
(-0.547936 0.647371 0)
(-0.528222 0.650333 0)
(-0.500681 0.650295 0)
(-0.48111 0.651985 0)
(-0.45755 0.646682 0)
(-0.439605 0.63904 0)
(-0.419959 0.624894 0)
(-0.397218 0.605933 0)
(-0.368601 0.594102 0)
(-0.328991 0.582827 0)
(-0.285364 0.578568 0)
(-0.236927 0.575356 0)
(-0.184848 0.57427 0)
(-0.132463 0.574505 0)
(-0.0773112 0.57367 0)
(-0.024601 0.581023 0)
(0.0277629 0.580395 0)
(0.0802432 0.572712 0)
(0.135764 0.573156 0)
(0.188602 0.571803 0)
(0.241781 0.573179 0)
(0.29002 0.572945 0)
(0.33763 0.58027 0)
(0.374226 0.583863 0)
(0.410405 0.598975 0)
(0.433285 0.611225 0)
(0.458129 0.624826 0)
(0.476683 0.630416 0)
(0.502216 0.633355 0)
(0.522081 0.631162 0)
(0.549365 0.629262 0)
(0.569249 0.626546 0)
(0.583098 0.624292 0)
(0.5906 0.611759 0)
(0.587894 0.581452 0)
(1.03085 0.425511 0)
(-1.03066 1.03319 0)
(-0.434582 1.04133 0)
(-0.652462 0.926007 0)
(-0.660177 0.953045 0)
(-0.636805 0.979714 0)
(-0.619252 1.00009 0)
(-0.587437 1.0244 0)
(-0.566103 1.0438 0)
(-0.531483 1.06546 0)
(-0.504493 1.08442 0)
(-0.463187 1.10462 0)
(-0.42868 1.12296 0)
(-0.382499 1.1391 0)
(-0.340468 1.15343 0)
(-0.290015 1.1643 0)
(-0.24112 1.1757 0)
(-0.18557 1.17872 0)
(-0.135377 1.19016 0)
(-0.0783499 1.18315 0)
(-0.0277076 1.20371 0)
(0.0289728 1.20372 0)
(0.0793555 1.1826 0)
(0.137022 1.19027 0)
(0.186276 1.1771 0)
(0.243962 1.17604 0)
(0.290656 1.16236 0)
(0.344312 1.15273 0)
(0.385337 1.13722 0)
(0.43337 1.12094 0)
(0.468941 1.10179 0)
(0.512437 1.08037 0)
(0.541112 1.0598 0)
(0.579097 1.03568 0)
(0.602655 1.0138 0)
(0.637755 0.985931 0)
(0.657849 0.962051 0)
(0.682179 0.93158 0)
(0.675515 0.89848 0)
(0.44216 1.02038 0)
(1.02158 1.02876 0)
(-1.03066 -1.03319 0)
(-0.434582 -1.04133 0)
(-0.652462 -0.926007 0)
(-0.660177 -0.953045 0)
(-0.636805 -0.979714 0)
(-0.619252 -1.00009 0)
(-0.587437 -1.0244 0)
(-0.566103 -1.0438 0)
(-0.531483 -1.06546 0)
(-0.504493 -1.08442 0)
(-0.463187 -1.10462 0)
(-0.42868 -1.12296 0)
(-0.382499 -1.1391 0)
(-0.340468 -1.15343 0)
(-0.290015 -1.1643 0)
(-0.24112 -1.1757 0)
(-0.18557 -1.17872 0)
(-0.135377 -1.19016 0)
(-0.0783499 -1.18315 0)
(-0.0277076 -1.20371 0)
(0.0289728 -1.20372 0)
(0.0793555 -1.1826 0)
(0.137022 -1.19027 0)
(0.186276 -1.1771 0)
(0.243962 -1.17604 0)
(0.290656 -1.16236 0)
(0.344312 -1.15273 0)
(0.385337 -1.13722 0)
(0.43337 -1.12094 0)
(0.468941 -1.10179 0)
(0.512437 -1.08037 0)
(0.541112 -1.0598 0)
(0.579097 -1.03568 0)
(0.602655 -1.0138 0)
(0.637755 -0.985931 0)
(0.657849 -0.962051 0)
(0.682179 -0.93158 0)
(0.675515 -0.89848 0)
(0.44216 -1.02038 0)
(1.02158 -1.02876 0)
(-1.03923 -0.454041 0)
(-0.593416 -0.597511 0)
(-0.579564 -0.630051 0)
(-0.568093 -0.646001 0)
(-0.547936 -0.647371 0)
(-0.528222 -0.650333 0)
(-0.500681 -0.650295 0)
(-0.48111 -0.651985 0)
(-0.45755 -0.646682 0)
(-0.439605 -0.63904 0)
(-0.419959 -0.624894 0)
(-0.397218 -0.605933 0)
(-0.368601 -0.594102 0)
(-0.328991 -0.582827 0)
(-0.285364 -0.578568 0)
(-0.236927 -0.575356 0)
(-0.184848 -0.57427 0)
(-0.132463 -0.574505 0)
(-0.0773112 -0.57367 0)
(-0.024601 -0.581023 0)
(0.0277629 -0.580395 0)
(0.0802432 -0.572712 0)
(0.135764 -0.573156 0)
(0.188602 -0.571803 0)
(0.241781 -0.573179 0)
(0.29002 -0.572945 0)
(0.33763 -0.58027 0)
(0.374226 -0.583863 0)
(0.410405 -0.598975 0)
(0.433285 -0.611225 0)
(0.458129 -0.624826 0)
(0.476683 -0.630416 0)
(0.502216 -0.633355 0)
(0.522081 -0.631162 0)
(0.549365 -0.629262 0)
(0.569249 -0.626546 0)
(0.583098 -0.624292 0)
(0.5906 -0.611759 0)
(0.587894 -0.581452 0)
(1.03085 -0.425511 0)
(-0.921757 -0.696113 0)
(-0.620544 -0.616964 0)
(-0.578812 -0.626347 0)
(-0.56983 -0.630477 0)
(-0.547344 -0.627419 0)
(-0.528366 -0.626361 0)
(-0.501979 -0.62104 0)
(-0.482709 -0.619197 0)
(-0.456524 -0.613823 0)
(-0.430174 -0.610953 0)
(-0.398806 -0.610778 0)
(-0.363063 -0.60367 0)
(-0.325121 -0.606721 0)
(-0.284022 -0.602406 0)
(-0.241436 -0.602899 0)
(-0.197741 -0.600727 0)
(-0.15338 -0.5991 0)
(-0.109036 -0.596539 0)
(-0.0642295 -0.594234 0)
(-0.0200978 -0.599193 0)
(0.0243589 -0.598206 0)
(0.0687282 -0.593133 0)
(0.11381 -0.595052 0)
(0.158669 -0.596385 0)
(0.203658 -0.598248 0)
(0.248175 -0.596483 0)
(0.29268 -0.600797 0)
(0.334285 -0.594049 0)
(0.376106 -0.600683 0)
(0.412883 -0.593374 0)
(0.449627 -0.597536 0)
(0.477467 -0.594197 0)
(0.506724 -0.595704 0)
(0.527336 -0.594837 0)
(0.553516 -0.596056 0)
(0.572587 -0.595363 0)
(0.588032 -0.595898 0)
(0.592715 -0.59243 0)
(0.615919 -0.588915 0)
(0.897993 -0.676856 0)
(-0.951866 -0.688935 0)
(-0.630247 -0.61311 0)
(-0.582608 -0.624525 0)
(-0.567816 -0.628229 0)
(-0.541251 -0.623312 0)
(-0.521438 -0.621796 0)
(-0.494828 -0.61567 0)
(-0.475717 -0.614312 0)
(-0.450663 -0.609585 0)
(-0.424313 -0.604609 0)
(-0.394512 -0.604783 0)
(-0.360472 -0.595999 0)
(-0.323726 -0.597358 0)
(-0.283613 -0.592979 0)
(-0.241894 -0.592438 0)
(-0.198817 -0.590578 0)
(-0.154792 -0.589425 0)
(-0.110313 -0.587752 0)
(-0.0648564 -0.586423 0)
(-0.0200358 -0.591613 0)
(0.0254994 -0.590542 0)
(0.070581 -0.585138 0)
(0.116223 -0.585957 0)
(0.161297 -0.586325 0)
(0.206224 -0.58716 0)
(0.250412 -0.585543 0)
(0.294591 -0.589181 0)
(0.335829 -0.583626 0)
(0.377328 -0.590564 0)
(0.414023 -0.584551 0)
(0.450227 -0.589987 0)
(0.478162 -0.587553 0)
(0.50724 -0.58967 0)
(0.52778 -0.588984 0)
(0.553919 -0.590322 0)
(0.572405 -0.589566 0)
(0.590059 -0.591121 0)
(0.595981 -0.588683 0)
(0.626335 -0.582884 0)
(0.92965 -0.684322 0)
(-0.976758 -0.660085 0)
(-0.634001 -0.603242 0)
(-0.583172 -0.613807 0)
(-0.567324 -0.613908 0)