/*--------------------------------*- C++ -*----------------------------------*\
| =========                 |                                                 |
| \\      /  F ield         | OpenFOAM: The Open Source CFD Toolbox           |
|  \\    /   O peration     | Version:  v1912                                 |
|   \\  /    A nd           | Website:  www.openfoam.com                      |
|    \\/     M anipulation  |                                                 |
\*---------------------------------------------------------------------------*/
FoamFile
{
    version     2.0;
    format      ascii;
    class       volVectorField;
    location    "6.94";
    object      grad(p);
}
// * * * * * * * * * * * * * * * * * * * * * * * * * * * * * * * * * * * * * //

dimensions      [1 -2 -2 0 0 0 0];


internalField   nonuniform List<vector> 
1900
(
(78766 0.144185 0)
(-89192.6 0.0827866 0)
(-4172.55 0.143912 0)
(38.121 0.109398 0)
(-28.3215 0.515739 0)
(-23.2815 0.622733 0)
(-53.1011 3.46214 0)
(-92.687 -10.0391 0)
(-115.124 35.3483 0)
(727.33 -19.4574 0)
(78766.3 0.282382 0)
(-89192.6 0.168731 0)
(-4172.53 0.196261 0)
(38.4928 0.162925 0)
(-27.8081 0.855114 0)
(-20.3351 1.21674 0)
(-63.7629 2.96098 0)
(-60.8009 -17.3082 0)
(-124.542 -7.93629 0)
(-193.089 -74.3423 0)
(78766.5 -2.23821e-09 0)
(-89192.7 -1.5401e-08 0)
(-4172.56 1.01252e-09 0)
(38.7798 1.68754e-09 0)
(-27.2676 2.00728e-09 0)
(-21.1756 7.28306e-10 0)
(-71.6261 -1.79412e-09 0)
(-103.584 -4.79616e-10 0)
(-172.158 7.28306e-10 0)
(-327.698 3.41061e-09 0)
(78766.3 -0.282382 0)
(-89192.6 -0.168731 0)
(-4172.53 -0.196261 0)
(38.4928 -0.162925 0)
(-27.8081 -0.855114 0)
(-20.3351 -1.21674 0)
(-63.7629 -2.96098 0)
(-60.8009 17.3082 0)
(-124.542 7.93629 0)
(-193.089 74.3423 0)
(78766 -0.144185 0)
(-89192.6 -0.0827866 0)
(-4172.55 -0.143912 0)
(38.121 -0.109398 0)
(-28.3215 -0.515738 0)
(-23.2815 -0.622733 0)
(-53.1011 -3.46214 0)
(-92.687 10.0391 0)
(-115.124 -35.3483 0)
(727.33 19.4574 0)
(-140.861 -765.675 8.54487e-12)
(-1714.06 -579.879 -1.00164e-11)
(-1629.54 -678.785 -1.25931e-11)
(571.88 -936.512 0)
(-18710.9 -7859.34 -5.47019e-11)
(-618.213 -931.134 8.40651e-12)
(-1175.72 -702.194 1.00164e-11)
(-1560.81 -794.245 1.25931e-11)
(-2103.39 -681.549 0)
(-17857.5 -7262.35 0)
(-939.171 6.32344e-09 0)
(-1248.97 1.10633e-08 0)
(-1497.99 1.19411e-08 0)
(-2092.59 1.26498e-08 0)
(-20592.4 1.58075e-08 0)
(-618.213 931.134 8.40651e-12)
(-1175.72 702.194 1.00164e-11)
(-1560.81 794.245 1.25931e-11)
(-2103.39 681.549 0)
(-17857.5 7262.35 0)
(-140.861 765.675 -2.53579e-11)
(-1714.06 579.879 -1.00164e-11)
(-1629.54 678.785 -1.25931e-11)
(571.88 936.512 -3.38084e-11)
(-18710.9 7859.34 5.47019e-11)
(-37146.7 10533.9 1.00712e-11)
(-11128.7 4124.82 -4.91605e-12)
(-4940.33 1884.52 0)
(-3163.77 1291.83 2.06558e-12)
(-1511.18 932.149 -6.95412e-13)
(-33215.9 13043.1 -5.19423e-12)
(-13050.8 3355.13 2.52014e-12)
(-5643.21 1072.94 0)
(-3408.02 777.024 -1.32115e-12)
(-2172.61 414.128 1.83989e-13)
(-34293.5 2.78116e-09 0)
(-14186.5 2.0876e-10 0)
(-5753.51 -2.69743e-09 0)
(-3457.7 4.02728e-09 5.37821e-13)
(-2188.27 2.20746e-10 -3.67979e-13)
(-33215.9 -13043.1 -5.19423e-12)
(-13050.8 -3355.13 2.52014e-12)
(-5643.21 -1072.94 0)
(-3408.02 -777.024 -1.32115e-12)
(-2172.61 -414.128 1.83989e-13)
(-37146.7 -10533.9 5.19423e-12)
(-11128.7 -4124.82 -1.24226e-13)
(-4940.33 -1884.52 0)
(-3163.77 -1291.83 3.89057e-14)
(-1511.18 -932.149 6.95412e-13)
(-366.056 -1235.38 0)
(-515.945 -730.028 0)
(-745.236 -421.108 0)
(-509.573 -258.446 0)
(346.59 -226.185 0)
(2474.35 -221.606 0)
(2723.52 531.71 0)
(572.553 572.895 0)
(-194.963 403.802 0)
(-351.948 263.092 0)
(-655.33 172.356 0)
(-908.516 201.843 0)
(-988.324 187.48 0)
(-1075.51 129.976 0)
(-1186.61 90.8901 0)
(-1025.56 55.15 0)
(-584.922 19.6025 0)
(-254.992 3.42155 0)
(-147.654 1.12942 0)
(-122.227 2.67728 0)
(-106.279 1.88468 0)
(-80.9842 0.105501 0)
(-49.98 -0.953522 0)
(-24.9165 -1.17288 0)
(-10.3387 -1.07447 0)
(-3.63441 -0.937405 0)
(0.399874 -0.846462 0)
(3.97342 -0.763453 0)
(7.81134 -0.711653 0)
(12.5559 -0.635143 0)
(21.4966 -0.59174 0)
(30.0601 -0.241107 0)
(39.5655 -0.293495 0)
(82.864 -0.0642404 0)
(275.898 -0.737029 0)
(855.965 -2.58416 0)
(1221.49 -2.232 0)
(1056.76 14.9219 0)
(534.91 4.1354 0)
(629.811 -3.18934 0)
(-826.888 -910.211 0)
(-369.024 -534.188 0)
(-637.9 -190.491 0)
(-473.993 -19.7804 0)
(377.756 -97.5108 0)
(2545.95 119.321 0)
(2696.85 299.943 0)
(492.357 71.807 0)
(-211.646 -14.0038 0)
(-351.414 13.1222 0)
(-621.538 56.4594 0)
(-863.068 96.3168 0)
(-988.209 72.9493 0)
(-1096.96 49.9669 0)
(-1203.72 41.8087 0)
(-1036.19 26.997 0)
(-589.844 8.72607 0)
(-256.455 1.18366 0)
(-147.606 0.394444 0)
(-122.146 1.36117 0)
(-106.551 0.758901 0)
(-81.2342 0.0398347 0)
(-50.0909 -0.431607 0)
(-24.9222 -0.503786 0)
(-10.3166 -0.453595 0)
(-3.61379 -0.396309 0)
(0.415407 -0.362253 0)
(3.98495 -0.333428 0)
(7.82242 -0.317669 0)
(12.5644 -0.291933 0)
(21.5319 -0.286292 0)
(30.0811 -0.138796 0)
(39.5671 -0.190992 0)
(82.8284 -0.158929 0)
(275.575 -0.336006 0)
(855.668 -1.71208 0)
(1223.24 -1.63542 0)
(1057.33 6.51492 0)
(533.038 1.33685 0)
(630.08 -0.133837 0)
(-718.291 -1.40494e-09 0)
(-306.572 -3.64759e-08 0)
(-595.59 -4.53011e-08 0)
(-482.524 1.75617e-09 0)
(387.056 4.97582e-09 0)
(2589.98 7.71464e-08 0)
(2709.7 8.688e-08 0)
(481.223 1.30913e-07 0)
(-212.035 1.76041e-07 0)
(-331.45 6.37793e-08 0)
(-631.128 -6.47684e-08 0)
(-903.719 -1.14022e-07 0)
(-1001.81 -6.06384e-08 0)
(-1084.57 -1.66533e-08 0)
(-1193.29 -8.57496e-09 0)
(-1035.19 -3.32542e-08 0)
(-592.432 -2.55816e-08 0)
(-257.415 7.52933e-09 0)
(-147.602 3.06825e-10 0)
(-122.121 -1.50788e-09 0)
(-106.664 -6.41709e-09 0)
(-81.3305 -5.26549e-09 0)
(-50.1382 -1.47256e-09 0)
(-24.9229 -4.37024e-10 0)
(-10.3074 -3.80504e-10 0)
(-3.60784 -2.40212e-10 0)
(0.418167 6.83292e-10 0)
(3.98639 1.47054e-09 0)
(7.82341 6.2879e-10 0)
(12.565 -7.10543e-10 0)
(21.5411 -3.73641e-09 0)
(30.0878 -3.7253e-09 0)
(39.5597 1.38273e-10 0)
(82.8218 -7.25177e-09 0)
(275.446 -1.25516e-08 0)
(855.587 2.73074e-08 0)
(1223.88 4.37226e-09 0)
(1057.63 -3.33753e-08 0)
(532.976 1.84095e-09 0)
(629.461 5.40376e-08 0)
(-826.888 910.211 0)
(-369.024 534.188 0)
(-637.9 190.491 0)
(-473.993 19.7804 0)
(377.756 97.5108 0)
(2545.95 -119.321 0)
(2696.85 -299.943 0)
(492.357 -71.807 0)
(-211.646 14.0038 0)
(-351.414 -13.1222 0)
(-621.538 -56.4594 0)
(-863.068 -96.3168 0)
(-988.209 -72.9493 0)
(-1096.96 -49.9669 0)
(-1203.72 -41.8087 0)
(-1036.19 -26.997 0)
(-589.844 -8.72607 0)
(-256.455 -1.18366 0)
(-147.606 -0.394444 0)
(-122.146 -1.36117 0)
(-106.551 -0.758901 0)
(-81.2342 -0.0398347 0)
(-50.0909 0.431607 0)
(-24.9222 0.503786 0)
(-10.3166 0.453595 0)
(-3.61379 0.396309 0)
(0.415407 0.362253 0)
(3.98495 0.333428 0)
(7.82242 0.317669 0)
(12.5644 0.291933 0)
(21.5319 0.286292 0)
(30.0811 0.138796 0)
(39.5671 0.190992 0)
(82.8284 0.158929 0)
(275.575 0.336006 0)
(855.668 1.71208 0)
(1223.24 1.63542 0)
(1057.33 -6.51492 0)
(533.038 -1.33685 0)
(630.08 0.133837 0)
(-366.056 1235.38 0)
(-515.945 730.028 0)
(-745.236 421.108 0)
(-509.573 258.446 0)
(346.59 226.185 0)
(2474.35 221.606 0)
(2723.52 -531.71 0)
(572.553 -572.895 0)
(-194.963 -403.802 0)
(-351.948 -263.092 0)
(-655.33 -172.356 0)
(-908.516 -201.843 0)
(-988.324 -187.48 0)
(-1075.51 -129.976 0)
(-1186.61 -90.8901 0)
(-1025.56 -55.15 0)
(-584.922 -19.6025 0)
(-254.992 -3.42155 0)
(-147.654 -1.12942 0)
(-122.227 -2.67728 0)
(-106.279 -1.88468 0)
(-80.9842 -0.105501 0)
(-49.98 0.953522 0)
(-24.9165 1.17288 0)
(-10.3387 1.07447 0)
(-3.63441 0.937405 0)
(0.399874 0.846462 0)
(3.97342 0.763453 0)
(7.81134 0.711653 0)
(12.5559 0.635143 0)
(21.4966 0.59174 0)
(30.0601 0.241107 0)
(39.5655 0.293495 0)
(82.864 0.0642404 0)
(275.898 0.737029 0)
(855.965 2.58416 0)
(1221.49 2.232 0)
(1056.76 -14.9219 0)
(534.91 -4.1354 0)
(629.811 3.18934 0)
(-746.203 564.778 0)
(-709.919 318.309 0)
(-809.603 224.092 0)
(-555.124 449.585 0)
(390.682 578.96 0)
(2153.32 741.758 0)
(2167.64 -558.749 0)
(479.863 -963.769 0)
(-36.6043 -698.315 0)
(-205.618 -541.035 0)
(-544.046 -470.369 0)
(-820.004 -358.49 0)
(-942.996 -252.377 0)
(-1061.17 -186.185 0)
(-1176.58 -149.921 0)
(-1003.75 -101.783 0)
(-563.087 -36.5121 0)
(-246.559 -6.95842 0)
(-147.083 -2.70035 0)
(-122.525 -4.30693 0)
(-105.252 -3.29709 0)
(-79.7429 -0.420215 0)
(-49.4172 1.49718 0)
(-24.8528 2.04102 0)
(-10.4387 1.90851 0)
(-3.73296 1.66278 0)
(0.324252 1.49607 0)
(3.91373 1.3516 0)
(7.75474 1.25216 0)
(12.4991 1.13302 0)
(21.3256 1.01986 0)
(29.9184 0.487881 0)
(39.4581 0.367181 0)
(83.0653 -0.0335248 0)
(276.782 1.12025 0)
(856.262 3.32929 0)
(1214.29 2.7202 0)
(1053.99 -18.8459 0)
(542.235 -9.05657 0)
(630.984 0.833618 0)
(-818.393 24.098 0)
(-740.228 51.99 0)
(-584.217 192.761 0)
(-143.183 766.764 0)
(604.495 1019.67 0)
(1550.17 916.055 0)
(1378.09 -393.742 0)
(487.765 -648.904 0)
(127.482 -513.54 0)
(-210.758 -578.819 0)
(-539.097 -601.633 0)
(-745.914 -508.583 0)
(-846.591 -383.387 0)
(-984.472 -295.141 0)
(-1110.65 -242.831 0)
(-927.976 -155.401 0)
(-505.255 -51.0021 0)
(-226.931 -10.1395 0)
(-145.404 -4.99641 0)
(-122.643 -5.89888 0)
(-103.085 -4.18191 0)
(-77.0299 -0.51709 0)
(-47.9101 2.28235 0)
(-24.5543 3.28904 0)
(-10.6496 3.20811 0)
(-3.979 2.86224 0)
(0.14056 2.59509 0)
(3.77038 2.35601 0)
(7.63106 2.19395 0)
(12.3624 2.02424 0)
(20.9666 1.84697 0)
(29.5071 1.12417 0)
(39.1207 0.739814 0)
(83.4818 0.131447 0)
(278.665 1.66651 0)
(857.348 5.13546 0)
(1203.98 4.16733 0)
(1046.9 -17.6027 0)
(549.946 -14.0892 0)
(637.106 -3.38592 0)
(-672.882 69.9026 0)
(-547.389 210.164 0)
(-120.821 523.534 0)
(241.716 871.789 0)
(534.544 1006.11 0)
(791.302 713.128 0)
(659.585 -234.608 0)
(364.421 -473.161 0)
(30.9321 -648.946 0)
(-290.507 -698.221 0)
(-476.365 -661.199 0)
(-609.694 -539.278 0)
(-737.315 -417.258 0)
(-925.723 -355.902 0)
(-1041.92 -315.999 0)
(-818.898 -190.715 0)
(-423.107 -56.7259 0)
(-202.226 -12.3276 0)
(-142.997 -7.29705 0)
(-121.74 -6.99635 0)
(-100.066 -4.28953 0)
(-73.5137 0.138186 0)
(-45.7495 3.61396 0)
(-23.9607 5.02639 0)
(-10.85 5.04493 0)
(-4.32369 4.6312 0)
(-0.163566 4.24921 0)
(3.52718 3.87724 0)
(7.43503 3.64126 0)
(12.1648 3.4061 0)
(20.4583 3.17121 0)
(28.8515 2.25727 0)
(38.5015 1.57531 0)
(83.9583 0.762147 0)
(281.604 2.65942 0)
(858.672 7.85799 0)
(1192.38 5.68353 0)
(1036.4 -16.189 0)
(555.935 -17.7126 0)
(647.823 -5.73818 0)
(-548.51 10.1657 0)
(-303.092 262.102 0)
(53.3483 467.595 0)
(321.842 398.714 0)
(451.604 279.774 0)
(354.568 -30.3241 0)
(234.94 -361.476 0)
(88.4937 -554.461 0)
(-89.3939 -674.426 0)
(-222.566 -686.902 0)
(-385.933 -612.276 0)
(-510.843 -515.322 0)
(-669.883 -440.508 0)
(-886.895 -417.831 0)
(-951.473 -364.015 0)
(-678.131 -190.309 0)
(-333.354 -51.6827 0)
(-179.3 -14.1643 0)
(-140.267 -9.51262 0)
(-119.745 -7.65893 0)
(-96.2098 -3.61322 0)
(-69.4138 1.49352 0)
(-43.1997 5.38577 0)
(-23.1754 7.04606 0)
(-11.0304 7.13818 0)
(-4.74579 6.67696 0)
(-0.585985 6.17788 0)
(3.18455 5.66525 0)
(7.17706 5.35762 0)
(11.9095 5.05556 0)
(19.8595 4.74782 0)
(27.9692 3.71946 0)
(37.6799 2.72656 0)
(84.5264 1.88169 0)
(285.502 3.93213 0)
(860.262 9.9902 0)
(1180.8 6.1364 0)
(1024.36 -14.3039 0)
(560.016 -20.5195 0)
(659.704 -7.94678 0)
(-410.515 -5.93141 0)
(-106.593 214.337 0)
(10.8239 76.1936 0)
(60.7244 -117.166 0)
(121.107 -260.94 0)
(173.37 -387.208 0)
(154.508 -451.338 0)
(62.8514 -610.207 0)
(-96.6921 -616.144 0)
(-230.617 -623.24 0)
(-311.024 -560.716 0)
(-444.172 -493.78 0)
(-643.369 -468.318 0)
(-852.012 -468.663 0)
(-822.672 -367.589 0)
(-517.923 -158.86 0)
(-253.368 -41.6778 0)
(-161.589 -15.1353 0)
(-136.728 -10.8685 0)
(-116.055 -7.39017 0)
(-91.2465 -1.95303 0)
(-64.8419 3.66726 0)
(-40.3989 7.77267 0)
(-22.2721 9.54004 0)
(-11.2057 9.66071 0)
(-5.24907 9.16112 0)
(-1.13848 8.5553 0)
(2.73675 7.92977 0)
(6.84751 7.58739 0)
(11.5771 7.22712 0)
(19.1708 6.86761 0)
(26.9038 5.8183 0)
(36.7305 4.69195 0)
(85.1201 3.9497 0)
(289.418 6.00245 0)
(860.796 13.1826 0)
(1168.97 8.83469 0)
(1010.71 -9.58274 0)
(562.061 -18.8993 0)
(675.254 -7.50897 0)
(-347.683 -183.742 0)
(-223.954 20.3267 0)
(-266.1 -172.25 0)
(-3.03226 -210.837 0)
(191.382 -236.779 0)
(171.093 -353.09 0)
(20.0501 -501.076 0)
(-70.3188 -574.13 0)
(-101.953 -610.834 0)
(-169.154 -557.435 0)
(-261.181 -508.248 0)
(-421.805 -485.318 0)
(-645.679 -501.178 0)
(-789.829 -484.227 0)
(-652.936 -315.64 0)
(-364.071 -114.272 0)
(-194.855 -34.0223 0)
(-149.611 -16.9752 0)
(-132.803 -12.2062 0)
(-111.153 -6.62204 0)
(-85.5544 -0.141303 0)
(-60.0417 5.97254 0)
(-37.5404 10.1673 0)
(-21.356 11.9597 0)
(-11.3955 12.0811 0)
(-5.811 11.5345 0)
(-1.77256 10.8712 0)
(2.25183 10.2344 0)
(6.49996 9.837 0)
(11.2159 9.42908 0)
(18.5019 9.04146 0)
(25.8726 8.06409 0)
(35.8793 7.004 0)
(85.7893 6.32454 0)
(294.4 8.12578 0)
(862.991 14.6263 0)
(1158.87 9.76434 0)
(997.631 -5.74941 0)
(562.015 -17.0319 0)
(685.152 -8.5066 0)
(-567.988 1.36362 0)
(-95.5188 18.5021 0)
(-211.934 11.2764 0)
(-1.45822 -64.9085 0)
(-15.9733 -284.592 0)
(-81.3157 -474.549 0)
(-58.4941 -572.801 0)
(-42.9157 -543.653 0)
(-80.6044 -530.075 0)
(-131.761 -494.383 0)
(-241.53 -476.692 0)
(-437.359 -496.651 0)
(-642.317 -522.591 0)
(-673.221 -442.44 0)
(-466.171 -228.703 0)
(-246.545 -76.445 0)
(-159.609 -29.4167 0)
(-140.567 -18.3886 0)
(-126.751 -12.4026 0)
(-104.429 -4.87706 0)
(-79.1099 2.39005 0)
(-54.9082 8.85136 0)
(-34.6294 12.9746 0)
(-20.4278 14.6757 0)
(-11.6154 14.754 0)
(-6.41496 14.1647 0)
(-2.39137 13.5176 0)
(1.74011 12.9434 0)
(6.07149 12.4366 0)
(10.8105 11.9858 0)
(17.8554 11.5781 0)
(24.9404 10.7113 0)
(35.0542 9.84777 0)
(86.2011 9.39107 0)
(297.418 10.9896 0)
(862.375 16.705 0)
(1149.34 11.7517 0)
(984.888 -1.94373 0)
(559.404 -15.6796 0)
(699.864 -9.06407 0)
(-328.539 210.647 0)
(-214.401 13.3989 0)
(-346.478 -6.48225 0)
(-288.142 -233.588 0)
(-203.363 -451.815 0)
(-106.636 -515.679 0)
(-46.5413 -501.804 0)
(-29.1457 -482.837 0)
(-54.475 -461.298 0)
(-117.712 -441.606 0)
(-263.366 -467.292 0)
(-466.035 -508.948 0)
(-593.44 -497.523 0)
(-506.628 -341.31 0)
(-300.25 -145.135 0)
(-172.031 -53.377 0)
(-138.91 -27.4495 0)
(-133.216 -19.2051 0)
(-119.783 -11.4487 0)
(-96.8985 -2.85268 0)
(-72.3252 5.01641 0)
(-49.8421 11.4637 0)
(-31.9279 15.4408 0)
(-19.6413 17.049 0)
(-11.8879 17.1511 0)
(-7.00241 16.6543 0)
(-2.94941 16.1292 0)
(1.2101 15.6346 0)
(5.5771 15.1129 0)
(10.3886 14.7134 0)
(17.2738 14.3639 0)
(24.2052 13.7169 0)
(34.607 13.232 0)
(86.8896 13.3168 0)
(301.448 14.6626 0)
(863.725 19.677 0)
(1140.89 15.3731 0)
(971.198 3.84186 0)
(555.153 -11.1797 0)
(708.996 -7.79058 0)
(-352.09 68.2385 0)
(-304.752 -35.4174 0)
(-449.939 -112.525 0)
(-430.597 -296.288 0)
(-287.806 -427.714 0)
(-129.487 -469.738 0)
(-26.8462 -438.649 0)
(-3.88178 -415.665 0)
(-40.8732 -400.517 0)
(-137.538 -416.655 0)
(-306.423 -467.964 0)
(-466.491 -491.638 0)
(-480.775 -405.453 0)
(-333.647 -219.018 0)
(-188.708 -87.6543 0)
(-133.139 -39.0332 0)
(-126.679 -24.9429 0)
(-125.148 -18.0042 0)
(-110.994 -8.63224 0)
(-88.5625 0.709415 0)
(-65.3141 9.05402 0)
(-44.8629 15.2895 0)
(-29.2472 18.9455 0)
(-18.7797 20.3648 0)
(-11.9957 20.4461 0)
(-7.39972 20.0225 0)
(-3.37399 19.5567 0)
(0.760766 19.0592 0)
(5.18374 18.5447 0)
(10.0888 18.1998 0)
(16.8952 17.9321 0)
(23.8497 17.5112 0)
(34.6686 17.4352 0)
(87.5796 18.0751 0)
(303.547 19.2423 0)
(863.06 22.9377 0)
(1134.08 18.7624 0)
(959.301 8.65375 0)
(548.195 -7.96259 0)
(718.145 -7.44977 0)
(-296.912 86.3919 0)
(-388.592 24.7121 0)
(-597.862 -117.324 0)
(-591.869 -292.957 0)
(-370.506 -405.82 0)
(-117.173 -404.406 0)
(5.56498 -358.731 0)
(7.59956 -353.664 0)
(-55.4289 -361.28 0)
(-182.706 -407.399 0)
(-335.622 -451.061 0)
(-405.797 -417.2 0)
(-330.733 -272.543 0)
(-200.385 -124.669 0)
(-126.81 -54.2005 0)
(-111.6 -29.1484 0)
(-118.646 -20.9589 0)
(-117.498 -13.4998 0)
(-101.75 -3.29038 0)
(-79.8554 6.40708 0)
(-58.2753 14.832 0)
(-40.3103 20.7816 0)
(-27.0372 24.0591 0)
(-18.1952 25.2603 0)
(-12.2177 25.2815 0)
(-7.85952 24.8521 0)
(-3.87774 24.3445 0)
(0.234898 23.7913 0)
(4.749 23.2332 0)
(9.79831 22.9032 0)
(16.6102 22.6885 0)
(23.7264 22.4665 0)
(35.1505 22.7353 0)
(88.631 23.9089 0)
(306.133 24.8514 0)
(863.263 27.1626 0)
(1127.13 22.0869 0)
(945.444 14.4644 0)
(539.635 -4.66097 0)
(723.848 -8.34017 0)
(-245.026 23.7306 0)
(-501.06 -16.4734 0)
(-756.057 -146.321 0)
(-708.603 -286.273 0)
(-395.203 -340.61 0)
(-84.1108 -309.576 0)
(22.0504 -287.512 0)
(-6.33814 -307.404 0)
(-92.6543 -341.526 0)
(-224.054 -389.014 0)
(-315.867 -386.551 0)
(-294.464 -290.168 0)
(-198.882 -152.96 0)
(-123.244 -66.2495 0)
(-96.6608 -29.3968 0)
(-101.106 -18.4298 0)
(-111.6 -12.835 0)
(-108.122 -3.12069 0)
(-91.8106 7.91388 0)
(-71.0992 17.995 0)
(-51.4623 25.8977 0)
(-35.9713 31.0119 0)
(-24.9314 33.4601 0)
(-17.6018 34.022 0)
(-12.389 33.5663 0)
(-8.30262 32.7522 0)
(-4.39628 31.9125 0)
(-0.310163 31.0943 0)
(4.32799 30.4083 0)
(9.56397 30.0235 0)
(16.4744 29.8725 0)
(23.8947 29.8259 0)
(36.0585 30.3721 0)
(89.6187 32.0895 0)
(306.682 33.3622 0)
(860.396 35.5417 0)
(1121.84 28.8806 0)
(933.526 22.4532 0)
(526.219 1.88297 0)
(730.673 -5.16571 0)
(-289.918 -94.9225 0)
(-552.46 -82.6447 0)
(-857.85 -134.153 0)
(-779.093 -207.608 0)
(-392.961 -236.607 0)
(-66.0059 -221.977 0)
(7.65838 -239.892 0)
(-44.4505 -273.105 0)
(-134.072 -317.844 0)
(-226.094 -332.591 0)
(-240.371 -274.254 0)
(-180.701 -160.54 0)
(-114.957 -72.2163 0)
(-81.3144 -28.8228 0)
(-80.7292 -10.7972 0)
(-95.6408 -5.63046 0)
(-103.893 0.207103 0)
(-97.5037 9.91247 0)
(-81.4021 20.4035 0)
(-62.5255 29.7326 0)
(-45.7318 36.5362 0)
(-33.0229 40.6766 0)
(-24.1365 42.4799 0)
(-18.0929 42.6662 0)
(-13.4413 41.9507 0)
(-9.45318 40.9134 0)
(-5.47532 39.9492 0)
(-1.21459 38.9865 0)
(3.71709 38.3733 0)
(9.28197 38.3426 0)
(16.4198 38.6259 0)
(24.2078 39.0679 0)
(37.3317 40.1482 0)
(91.5124 42.4931 0)
(309.46 44.7106 0)
(858.944 46.2966 0)
(1114.52 36.8574 0)
(919.428 32.0637 0)
(513.021 10.3344 0)
(727.011 -1.45905 0)
(-416.136 -125.777 0)
(-538.864 -87.5045 0)
(-876.475 -76.2278 0)
(-807.332 -94.9105 0)
(-409.05 -137.392 0)
(-87.2759 -168.782 0)
(-27.2186 -213.296 0)
(-81.4551 -245.111 0)
(-149.977 -269.89 0)
(-182.049 -233.34 0)
(-150.072 -149.067 0)
(-99.7734 -69.2673 0)
(-71.9548 -21.5885 0)
(-64.0588 0.369549 0)
(-74.3119 6.60495 0)
(-90.5021 8.53618 0)
(-96.6221 13.5224 0)
(-88.6598 22.2501 0)
(-72.7112 32.1732 0)
(-55.5531 40.6881 0)
(-40.9162 46.9114 0)
(-30.2437 50.7673 0)
(-23.0142 52.6658 0)
(-18.1117 53.2658 0)
(-14.078 53.1729 0)
(-10.2313 52.9979 0)
(-6.2531 52.8492 0)
(-1.82874 52.8247 0)
(3.70741 53.0266 0)
(9.80733 54.3466 0)
(17.1733 55.7617 0)
(25.3617 57.501 0)
(39.3592 59.6655 0)
(94.0152 63.2705 0)
(310.348 67.9057 0)
(852.829 70.1454 0)
(1108.13 57.9062 0)
(907.967 52.2832 0)
(493.916 25.9693 0)
(722.12 8.69438 0)
(-495.444 -72.0063 0)
(-504.713 -36.9015 0)
(-864.987 -1.19001 0)
(-838.033 1.07449 0)
(-464.146 -69.6249 0)
(-139.151 -132.207 0)
(-65.8957 -175.353 0)
(-98.9865 -187.142 0)
(-122.729 -167.096 0)
(-109.665 -101.15 0)
(-82.2637 -33.4551 0)
(-57.8577 7.86881 0)
(-47.8523 31.82 0)
(-54.1462 43.6596 0)
(-72.8595 45.698 0)
(-88.9749 47.0676 0)
(-90.6779 53.4244 0)
(-79.5311 64.1934 0)
(-63.6346 75.5158 0)
(-48.3232 85.1625 0)
(-36.0191 92.7585 0)
(-27.4778 98.3291 0)
(-21.7289 102.331 0)
(-17.6042 105.354 0)
(-13.6995 107.859 0)
(-9.7651 110.295 0)
(-5.64222 112.332 0)
(-1.04359 114.16 0)
(5.18366 115.757 0)
(11.9176 118.093 0)
(19.4594 119.992 0)
(27.9696 122.885 0)
(42.8914 125.923 0)
(99.453 131.491 0)
(316.085 140.368 0)
(849.308 146.731 0)
(1097.3 127.849 0)
(888.653 103.232 0)
(471.017 47.2224 0)
(693.608 17.5831 0)
(-521.083 5.67887 0)
(-470.623 31.7219 0)
(-839.88 70.9318 0)
(-873.278 84.3294 0)
(-537.484 -3.62762 0)
(-189.159 -45.7687 0)
(-80.1558 -53.7248 0)
(-73.4986 -28.0668 0)
(-67.1123 18.9771 0)
(-53.2679 70.7297 0)
(-45.0175 108.317 0)
(-36.872 134.491 0)
(-37.4656 151.392 0)
(-50.6854 162.585 0)
(-71.0277 172.408 0)
(-83.0567 186.467 0)
(-80.1191 205.272 0)
(-67.3716 225.373 0)
(-52.5047 244.11 0)
(-38.9375 260.295 0)
(-28.2284 275.554 0)
(-21.019 290.576 0)
(-16.2443 304.638 0)
(-12.7852 317.593 0)
(-9.31703 329.364 0)
(-5.92103 340.996 0)
(-2.52874 349.457 0)
(1.47172 358.658 0)
(7.49696 365.714 0)
(13.8886 372.587 0)
(21.7913 376.758 0)
(31.0767 382.995 0)
(47.6527 385.428 0)
(107.935 392.305 0)
(325.033 402.079 0)
(840.765 400 0)
(1066.21 341.824 0)
(830.273 249.962 0)
(411.381 112.284 0)
(659.671 32.7163 0)
(-459.403 11.6024 0)
(-441.833 95.1763 0)
(-814.293 246.503 0)
(-909.881 336.714 0)
(-589.513 279.369 0)
(-187.426 274.213 0)
(-48.8376 300.931 0)
(-28.9283 353.736 0)
(-27.5251 407.771 0)
(-23.5735 457.559 0)
(-20.8208 502.489 0)
(-16.349 546.303 0)
(-20.7801 583.393 0)
(-33.8944 613.901 0)
(-49.8464 643.278 0)
(-57.3066 676.249 0)
(-53.1862 711.422 0)
(-42.1053 744.418 0)
(-29.9824 772.938 0)
(-18.0221 796.68 0)
(-6.83937 818.755 0)
(0.548199 840.427 0)
(4.30526 860.322 0)
(6.22233 877.565 0)
(8.85284 891.557 0)
(9.59798 904.225 0)
(11.3778 911.986 0)
(14.6217 921.238 0)
(18.6058 927.23 0)
(22.5604 933.39 0)
(29.4895 935.238 0)
(36.324 937.326 0)
(51.8626 932.727 0)
(115.499 931 0)
(323.5 922.655 0)
(791.244 876.765 0)
(952.723 721.892 0)
(667.46 514.732 0)
(261.671 219.51 0)
(553.881 20.3534 0)
(-418.188 -126.728 0)
(-244.264 117.913 0)
(-607.125 456.108 0)
(-841.608 656.023 0)
(-597.713 736.426 0)
(-168.381 767.544 0)
(-3.52508 805.669 0)
(29.4565 848.335 0)
(32.9353 896.548 0)
(38.0063 944.157 0)
(40.4995 988.676 0)
(41.0898 1026.86 0)
(27.6747 1051.69 0)
(7.02138 1065.97 0)
(-10.9474 1078.02 0)
(-17.3899 1092.85 0)
(-14.4282 1111.2 0)
(-8.09253 1131.31 0)
(-2.14319 1150.83 0)
(5.21346 1168.37 0)
(13.9272 1179.61 0)
(19.036 1180.09 0)
(19.5435 1172.7 0)
(17.3145 1162.97 0)
(16.3734 1153.35 0)
(13.7649 1145.07 0)
(13.8654 1137.51 0)
(16.1607 1130.35 0)
(19.2072 1123.92 0)
(21.6056 1117.75 0)
(25.5847 1112.41 0)
(28.6577 1104.36 0)
(41.5565 1097.98 0)
(98.2295 1088.08 0)
(272.771 1057.67 0)
(647.302 962.65 0)
(717.339 715.404 0)
(346.158 573.727 0)
(-65.0199 270.627 0)
(428.531 -84.2012 0)
(-467.898 537.211 0)
(119.808 -334.626 0)
(-295.75 397.981 0)
(-639.756 648.73 0)
(-482.048 906.089 0)
(-120.7 978.474 0)
(29.0163 1005.39 0)
(58.6453 1011.5 0)
(64.8117 1028.92 0)
(65.2051 1043.95 0)
(58.8718 1056.9 0)
(44.3747 1060.36 0)
(16.913 1052.59 0)
(-8.51881 1041.77 0)
(-23.95 1033.8 0)
(-25.333 1030.69 0)
(-16.1159 1031.04 0)
(-3.92089 1032.95 0)
(5.72176 1034.24 0)
(9.71428 1032.92 0)
(4.45813 1026.73 0)
(-6.11093 1015.25 0)
(-12.1911 1000.17 0)
(-12.4241 983.69 0)
(-8.39746 966.749 0)
(-5.66875 951.449 0)
(-2.80374 937.77 0)
(1.52605 923.257 0)
(6.46097 910.619 0)
(11.4703 896.262 0)
(16.5819 884.21 0)
(22.4157 869.905 0)
(36.1795 859.493 0)
(76.6542 842.871 0)
(202.631 790.891 0)
(461.426 656.202 0)
(577.942 325.345 0)
(238.856 196.553 0)
(-372.332 -369.847 0)
(374.234 256.442 0)
(-222.969 60494.7 0)
(-378.432 -145.744 0)
(340.472 -266.649 0)
(-351.977 49.3396 0)
(-279.96 371.068 0)
(-72.6875 470.174 0)
(28.3017 484.604 0)
(52.1308 478.625 0)
(64.2056 481.519 0)
(64.9686 475.191 0)
(56.3087 467.965 0)
(36.9377 455.585 0)
(9.76449 445.761 0)
(-11.0936 444.636 0)
(-21.627 454.067 0)
(-20.0423 470.761 0)
(-12.2538 486.415 0)
(-5.01109 496.32 0)
(-2.16603 499.283 0)
(-2.02805 496.687 0)
(-3.10654 494.404 0)
(-6.55338 498.635 0)
(-10.8639 507.652 0)
(-14.892 516.397 0)
(-14.6952 522.682 0)
(-14.1604 526.806 0)
(-13.3016 528.352 0)
(-10.0036 529.256 0)
(-6.80597 527.402 0)
(-3.84227 523.13 0)
(0.18562 514.565 0)
(4.83926 506.367 0)
(15.5059 492.044 0)
(32.1222 475.287 0)
(92.889 423.972 0)
(198.684 292.783 0)
(274.405 -31.9746 0)
(-323.754 -367.662 0)
(-7.30845 -84.113 0)
(537.812 46473.2 0)
(57686.5 -60516.1 0)
(-58432 884.108 0)
(-107.76 513.604 0)
(-25.2288 642.615 0)
(-76.5169 905.044 0)
(-11.2935 1012.54 0)
(37.1596 992.194 0)
(55.6729 944.612 0)
(61.5026 880.322 0)
(52.1442 814.16 0)
(39.9794 758.79 0)
(22.9781 714.238 0)
(6.36163 696.613 0)
(-0.51527 697.503 0)
(1.22513 708.66 0)
(5.8389 718.675 0)
(8.51385 723.399 0)
(8.47924 722.556 0)
(6.07531 719.8 0)
(5.0121 718.499 0)
(6.3349 716.703 0)
(6.65527 715.149 0)
(4.92541 716.598 0)
(2.0595 721.312 0)
(1.6328 729.914 0)
(-0.204938 734.867 0)
(-0.442373 744.822 0)
(0.610492 749.13 0)
(0.557521 754.569 0)
(-0.899662 755.614 0)
(0.428297 759.49 0)
(0.714131 754.977 0)
(6.22987 753.727 0)
(11.0572 732.421 0)
(26.7633 708.919 0)
(22.0596 608.253 0)
(-58.4866 479.845 0)
(188.614 384.187 0)
(44765.2 620.085 0)
(-44327.9 -46062.7 0)
(57686.5 60516.1 0)
(-58432 -884.108 0)
(-107.76 -513.604 0)
(-25.2288 -642.615 0)
(-76.5169 -905.044 0)
(-11.2935 -1012.54 0)
(37.1596 -992.194 0)
(55.6729 -944.612 0)
(61.5026 -880.322 0)
(52.1442 -814.16 0)
(39.9794 -758.79 0)
(22.9781 -714.238 0)
(6.36163 -696.613 0)
(-0.51527 -697.503 0)
(1.22513 -708.66 0)
(5.8389 -718.675 0)
(8.51385 -723.399 0)
(8.47924 -722.556 0)
(6.07531 -719.8 0)
(5.0121 -718.499 0)
(6.3349 -716.703 0)
(6.65527 -715.149 0)
(4.92541 -716.598 0)
(2.0595 -721.312 0)
(1.6328 -729.914 0)
(-0.204938 -734.867 0)
(-0.442373 -744.822 0)
(0.610491 -749.13 0)
(0.557521 -754.569 0)
(-0.899662 -755.614 0)
(0.428297 -759.49 0)
(0.714131 -754.977 0)
(6.22987 -753.727 0)
(11.0572 -732.421 0)
(26.7633 -708.919 0)
(22.0596 -608.253 0)
(-58.4866 -479.845 0)
(188.614 -384.187 0)
(44765.2 -620.085 0)
(-44327.9 46062.7 0)
(-222.969 -60494.7 0)
(-378.432 145.744 0)
(340.472 266.649 0)
(-351.977 -49.3396 0)
(-279.96 -371.068 0)
(-72.6875 -470.174 0)
(28.3017 -484.604 0)
(52.1308 -478.625 0)
(64.2056 -481.519 0)
(64.9686 -475.191 0)
(56.3087 -467.965 0)
(36.9377 -455.585 0)
(9.76449 -445.761 0)
(-11.0936 -444.636 0)
(-21.627 -454.067 0)
(-20.0423 -470.761 0)
(-12.2538 -486.415 0)
(-5.01109 -496.32 0)
(-2.16603 -499.283 0)
(-2.02805 -496.687 0)
(-3.10654 -494.404 0)
(-6.55338 -498.635 0)
(-10.8639 -507.652 0)
(-14.892 -516.397 0)
(-14.6952 -522.682 0)
(-14.1604 -526.806 0)
(-13.3016 -528.352 0)
(-10.0036 -529.256 0)
(-6.80597 -527.402 0)
(-3.84227 -523.13 0)
(0.18562 -514.565 0)
(4.83926 -506.367 0)
(15.5059 -492.044 0)
(32.1222 -475.287 0)
(92.889 -423.972 0)
(198.684 -292.783 0)
(274.405 31.9746 0)
(-323.754 367.662 0)
(-7.30845 84.113 0)
(537.812 -46473.2 0)
(-467.898 -537.211 0)
(119.808 334.626 0)
(-295.75 -397.981 0)
(-639.756 -648.73 0)
(-482.048 -906.089 0)
(-120.7 -978.474 0)
(29.0163 -1005.39 0)
(58.6453 -1011.5 0)
(64.8117 -1028.92 0)
(65.2051 -1043.95 0)
(58.8718 -1056.9 0)
(44.3747 -1060.36 0)
(16.913 -1052.59 0)
(-8.51881 -1041.77 0)
(-23.95 -1033.8 0)
(-25.333 -1030.69 0)
(-16.1159 -1031.04 0)
(-3.92089 -1032.95 0)
(5.72176 -1034.24 0)
(9.71428 -1032.92 0)
(4.45813 -1026.73 0)
(-6.11093 -1015.25 0)
(-12.1911 -1000.17 0)
(-12.4241 -983.69 0)
(-8.39746 -966.749 0)
(-5.66875 -951.449 0)
(-2.80374 -937.77 0)
(1.52605 -923.257 0)
(6.46097 -910.619 0)
(11.4703 -896.262 0)
(16.5819 -884.21 0)
(22.4157 -869.905 0)
(36.1795 -859.493 0)
(76.6542 -842.871 0)
(202.631 -790.891 0)
(461.426 -656.202 0)
(577.942 -325.345 0)
(238.856 -196.553 0)
(-372.332 369.847 0)
(374.234 -256.442 0)
(-418.188 126.728 0)
(-244.264 -117.913 0)
(-607.125 -456.108 0)
(-841.608 -656.023 0)
(-597.713 -736.426 0)
(-168.381 -767.544 0)
(-3.52508 -805.669 0)
(29.4565 -848.335 0)
(32.9353 -896.548 0)
(38.0063 -944.157 0)
(40.4995 -988.676 0)
(41.0898 -1026.86 0)
(27.6747 -1051.69 0)
(7.02138 -1065.97 0)
(-10.9474 -1078.02 0)
(-17.3899 -1092.85 0)
(-14.4282 -1111.2 0)
(-8.09253 -1131.31 0)
(-2.14319 -1150.83 0)
(5.21346 -1168.37 0)
(13.9272 -1179.61 0)
(19.036 -1180.09 0)
(19.5435 -1172.7 0)
(17.3145 -1162.97 0)
(16.3734 -1153.35 0)
(13.7649 -1145.07 0)
(13.8654 -1137.51 0)
(16.1607 -1130.35 0)
(19.2072 -1123.92 0)
(21.6056 -1117.75 0)
(25.5847 -1112.41 0)
(28.6577 -1104.36 0)
(41.5565 -1097.98 0)
(98.2295 -1088.08 0)
(272.771 -1057.67 0)
(647.302 -962.65 0)
(717.339 -715.404 0)
(346.158 -573.727 0)
(-65.0199 -270.627 0)
(428.531 84.2012 0)
(-459.403 -11.6024 0)
(-441.833 -95.1763 0)
(-814.293 -246.503 0)
(-909.881 -336.714 0)
(-589.513 -279.369 0)
(-187.426 -274.213 0)
(-48.8376 -300.931 0)
(-28.9283 -353.736 0)
(-27.5251 -407.771 0)
(-23.5735 -457.559 0)
(-20.8208 -502.489 0)
(-16.349 -546.303 0)
(-20.7801 -583.393 0)
(-33.8944 -613.901 0)
(-49.8464 -643.278 0)
(-57.3066 -676.249 0)
(-53.1862 -711.422 0)
(-42.1053 -744.418 0)
(-29.9824 -772.938 0)
(-18.0221 -796.68 0)
(-6.83937 -818.755 0)
(0.548199 -840.427 0)
(4.30526 -860.322 0)
(6.22233 -877.565 0)
(8.85284 -891.557 0)
(9.59798 -904.225 0)
(11.3778 -911.986 0)
(14.6217 -921.238 0)
(18.6058 -927.23 0)
(22.5604 -933.39 0)
(29.4895 -935.238 0)
(36.324 -937.326 0)
(51.8626 -932.727 0)
(115.499 -931 0)
(323.5 -922.655 0)
(791.244 -876.765 0)
(952.723 -721.892 0)
(667.46 -514.732 0)
(261.671 -219.51 0)
(553.881 -20.3534 0)
(-521.083 -5.67887 0)
(-470.623 -31.7219 0)
(-839.88 -70.9318 0)
(-873.278 -84.3294 0)
(-537.484 3.62762 0)
(-189.159 45.7687 0)
(-80.1558 53.7248 0)
(-73.4986 28.0668 0)
(-67.1123 -18.9771 0)
(-53.2679 -70.7297 0)
(-45.0175 -108.317 0)
(-36.872 -134.491 0)
(-37.4656 -151.392 0)
(-50.6854 -162.585 0)
(-71.0277 -172.408 0)
(-83.0567 -186.467 0)
(-80.1191 -205.272 0)
(-67.3716 -225.373 0)
(-52.5047 -244.11 0)
(-38.9375 -260.295 0)
(-28.2284 -275.554 0)
(-21.019 -290.576 0)
(-16.2443 -304.638 0)
(-12.7852 -317.593 0)
(-9.31703 -329.364 0)
(-5.92103 -340.996 0)
(-2.52874 -349.457 0)
(1.47172 -358.658 0)
(7.49696 -365.714 0)
(13.8886 -372.587 0)
(21.7913 -376.758 0)
(31.0767 -382.995 0)
(47.6527 -385.428 0)
(107.935 -392.305 0)
(325.033 -402.079 0)
(840.765 -400 0)
(1066.21 -341.824 0)
(830.273 -249.962 0)
(411.381 -112.284 0)
(659.671 -32.7163 0)
(-495.444 72.0063 0)
(-504.713 36.9015 0)
(-864.987 1.19001 0)
(-838.033 -1.07449 0)
(-464.146 69.6249 0)
(-139.151 132.207 0)
(-65.8957 175.353 0)
(-98.9865 187.142 0)
(-122.729 167.096 0)
(-109.665 101.15 0)
(-82.2637 33.4551 0)
(-57.8577 -7.86881 0)
(-47.8523 -31.82 0)
(-54.1462 -43.6596 0)
(-72.8595 -45.698 0)
(-88.9749 -47.0676 0)
(-90.6779 -53.4244 0)
(-79.5311 -64.1934 0)
(-63.6346 -75.5158 0)
(-48.3232 -85.1625 0)
(-36.0191 -92.7585 0)
(-27.4778 -98.3291 0)
(-21.7289 -102.331 0)