/*--------------------------------*- C++ -*----------------------------------*\
| =========                 |                                                 |
| \\      /  F ield         | OpenFOAM: The Open Source CFD Toolbox           |
|  \\    /   O peration     | Version:  v1912                                 |
|   \\  /    A nd           | Website:  www.openfoam.com                      |
|    \\/     M anipulation  |                                                 |
\*---------------------------------------------------------------------------*/
FoamFile
{
    version     2.0;
    format      ascii;
    class       volScalarField;
    location    "2.32";
    object      p;
}
// * * * * * * * * * * * * * * * * * * * * * * * * * * * * * * * * * * * * * //

dimensions      [1 -1 -2 0 0 0 0];


internalField   nonuniform List<scalar> 
1900
(
14023.5
10859.9
10749.6
10780.9
10825.8
10878.1
10937.4
11005.4
11062.5
11149
14023.4
10859.9
10749.7
10781.1
10825.8
10877.5
10935
10994.8
11048.3
11125.7
14023.4
10859.9
10749.8
10781.2
10825.4
10876.6
10935.1
10998.3
11059.5
11115.7
14023.4
10859.9
10749.7
10781.1
10825.8
10877.5
10935
10994.8
11048.3
11125.7
14023.5
10859.9
10749.6
10780.9
10825.8
10878.1
10937.4
11005.4
11062.5
11149
11071.4
11140.9
11145.6
10992.1
9900.2
11166.8
11234.3
11213
11172.9
10677
11145.9
11194.8
11156.3
11058.4
10526.3
11166.8
11234.3
11213
11172.9
10677
11071.4
11140.9
11145.6
10992.1
9900.2
12361.5
12501.9
12849.3
12943.5
13065.7
12181.3
12465.6
12841
13104.7
13012.3
12172.4
12473.7
12828
12980.4
12483.1
12181.3
12465.6
12841
13104.7
13012.3
12361.5
12501.9
12849.3
12943.5
13065.7
10582.3
4974.15
5367.34
5591.21
5535.53
5566.4
5674.27
5826.47
6031.54
6282.91
6589.25
6940.56
7330.24
7749.17
8188.89
8638.97
9082.67
9486
9785.47
9925.12
9922.71
9772.06
9460.14
9044.41
8588.27
8124.24
7666.92
7223.39
6797.59
6392.05
6008.97
5651.16
5322.65
5027.38
4765.69
4530.01
4315.9
4138.03
3754.31
19205.4
10930.6
5316.07
5570.84
5625.92
5557.43
5579.34
5682.47
5837.61
6043.17
6295.09
6602.71
6955.64
7347.52
7768.72
8210.4
8662.08
9107.24
9511.82
9812.13
9951.98
9949.46
9798.27
9485.26
9067.98
8609.97
8143.85
7684.29
7238.43
6810.26
6402.39
6017.1
5657.26
5326.98
5030.24
4767.49
4531.11
4316.71
4138.43
3754.4
19204.6
10345.7
5747.35
5697.49
5660.25
5567.1
5583.94
5684.97
5840.86
6046.69
6298.83
6606.85
6960.28
7352.85
7774.68
8216.67
8668.52
9113.82
9518.52
9818.85
9958.62
9956.04
9804.7
9491.37
9073.63
8615.05
8148.29
7688.05
7241.5
6812.69
6404.26
6018.5
5658.33
5327.89
5031.1
4768.21
4531.57
4316.95
4138.46
3754.33
19203.6
10930.6
5316.07
5570.84
5625.92
5557.43
5579.34
5682.47
5837.61
6043.17
6295.09
6602.71
6955.64
7347.52
7768.72
8210.4
8662.08
9107.24
9511.82
9812.13
9951.98
9949.46
9798.27
9485.26
9067.98
8609.97
8143.85
7684.29
7238.43
6810.26
6402.39
6017.1
5657.26
5326.98
5030.24
4767.49
4531.11
4316.71
4138.43
3754.4
19204.6
10582.3
4974.15
5367.34
5591.21
5535.53
5566.4
5674.27
5826.47
6031.54
6282.91
6589.25
6940.56
7330.24
7749.17
8188.89
8638.97
9082.67
9486
9785.47
9925.12
9922.71
9772.06
9460.14
9044.41
8588.27
8124.24
7666.92
7223.39
6797.59
6392.05
6008.97
5651.16
5322.65
5027.38
4765.69
4530.01
4315.9
4138.03
3754.31
19205.4
12291.8
4358.29
5115.41
5399.8
5449.81
5509.49
5624.45
5771.96
5974
6222.67
6524.55
6871.21
7255.27
7667.89
8100.67
8543.67
8980.45
9377.64
9672.67
9810.65
9808.37
9659.85
9352.08
8941.89
8492.05
8034.71
7584.27
7147.67
6728.77
6330.02
5953.57
5602.17
5279.79
4990.31
4733.96
4503.31
4293.13
4120.5
3741.62
19193.5
13678.2
3967.11
4795.32
5066.73
5247.82
5365.61
5494.71
5644.88
5842.24
6087.91
6382.85
6721.07
7094.7
7495.61
7915.94
8346.16
8770.63
9157.15
9444.82
9579.84
9577.9
9433.69
9134.21
8735.01
8297.51
7853.15
7415.93
6992.58
6586.73
6200.74
5836.6
5496.95
5185.62
4906.42
4659.37
4437.37
4234.79
4072.06
3703.41
19131.3
15194.4
3829.82
4514.79
4787.16
5003.9
5136.99
5267.78
5420.62
5612.67
5852.13
6136.7
6461.61
6819.4
7202.85
7604.78
8016.37
8422.73
8793
9068.85
9198.77
9197.33
9060.08
8773.73
8391.37
7972.24
7546.72
7128.34
6723.53
6335.8
5967.37
5620.14
5296.64
5000.52
4735.41
4501.18
4291.17
4101.54
3953.41
3602.43
18837.8
16356.1
3711.09
4260.85
4522.15
4695.17
4846.93
4983.53
5141.74
5332.32
5567.32
5843.93
6156.91
6499.76
6866.1
7249.51
7641.87
8029.1
8381.8
8644.3
8767.87
8766.86
8637.74
8366.22
8002.33
7602.87
7197.15
6798.24
6412.34
6042.84
5691.87
5361.27
5053.44
4771.82
4519.77
4297.36
4098.39
3923.17
3785.93
3450.98
18159.8
16214.3
3525.8
4000.08
4211.71
4384.46
4537.9
4677.86
4839.48
5032.19
5264.29
5533.52
5835.1
6163.34
6512.75
6877.71
7250.78
7618.76
7953.58
8202.1
8318.59
8317.97
8197.65
7941.85
7597.14
7217.8
6832.13
6452.79
6085.78
5734.37
5400.62
5086.31
4793.64
4525.83
4285.95
4074.8
3886.64
3725.15
3593.31
3271.42
17132.3
16111
3303.54
3730.17
3924.81
4089
4231.96
4373.19
4537.48
4731.67
4960.85
5222.76
5513.11
5827.06
6159.97
6507
6861.43
7210.78
7528.05
7762.35
7871.16
7870.84
7759.66
7519.87
7194.35
6834.9
6468.92
6108.71
5760.12
5426.3
5109.28
4810.67
4532.58
4277.86
4049.49
3849.51
3672.16
3522.12
3391
3081.32
15904.4
14944.9
3083.89
3472.97
3653.74
3807.39
3939.73
4080.5
4245.57
4439.52
4665.05
4919.14
5198.23
5498.14
5815.16
6145.12
6481.91
6813.54
7113.76
7333.74
7434.42
7434.31
7332.36
7108.6
6801.96
6461.87
6114.97
5773.26
5442.44
5125.61
4824.63
4541.23
4276.91
4034.82
3817.37
3628.57
3461.67
3320.41
3187.29
2890.93
14615.7
13967.2
2879.28
3230.57
3398.42
3542.86
3665.52
3803.73
3967.47
4160.11
4380.57
4626.64
4894.27
5180.67
5482.6
5796.55
6116.77
6431.56
6715.18
6920.76
7012.97
7012.98
6920.24
6712.31
6424.08
6102.69
5774.12
5450.15
5136.38
4835.74
4550.33
4281.08
4030.38
3799.87
3593.08
3415.25
3257.89
3123.26
2987.31
2705.77
13308.2
12867.6
2682.48
3001.73
3160.59
3294.87
3409.13
3543.76
3705.4
3894.62
4110.34
4347.14
4603.97
4877.27
5165.11
5464.07
5768.69
6067.39
6334.79
6525.93
6609.52
6609.57
6525.88
6333.48
6063.08
5759.62
5448.56
5141.52
4843.93
4558.96
4287.8
4033.05
3793.81
3575.87
3378.26
3211.17
3062.13
2932.81
2794.79
2529.4
12076.4
11700.9
2498.17
2787.1
2937.09
3061.54
3169.18
3301.02
3458.7
3646.2
3853.93
4083.41
4328.73
4590.2
4864.71
5149.67
5439.53
5722.75
5974.26
6151
6226
6226.06
6151.16
5973.87
5720.65
5434.3
5139.86
4848.82
4566.72
4296.01
4039.55
3796.25
3570.98
3362.05
3174.85
3017.02
2874.93
2749.99
2611.45
2362.85
10847.9
10566.5
2327.64
2588.58
2727.51
2842.62
2945.52
3075.86
3231.28
3412.62
3616.23
3834.95
4071.33
4320.93
4583.38
4855.13
5130.99
5399.33
5635.31
5797.86
5864.46
5864.51
5798.06
5635.38
5398.58
5128.43
4849.61
4573.66
4305.7
4049.25
3804.36
3575.71
3358.65
3163.03
2983.79
2833.85
2698.76
2577.51
2440.79
2209
9743.11
9378.32
2163.47
2397.92
2525.31
2636.07
2739.04
2868.94
3020.85
3199.46
3393.17
3606.37
3832.06
4072.12
4323.06
4582.7
4845.37
5099.53
5320.51
5469.28
5527.86
5527.88
5469.43
5320.74
5099.49
4844.45
4580.11
4317.85
4063.26
3818.44
3586.84
3366.52
3163.44
2975.21
2804.96
2663.25
2531.5
2413.1
2278.99
2064.04
8651.19
8289.23
2017.19
2227.58
2344.43
2453.18
2555.83
2686.35
2833.44
3005.97
3194.67
3398.06
3616.04
3845.91
4086.73
4335.1
4585.63
4826.55
5033.31
5168.92
5220
5220.01
5169.02
5033.53
4826.79
4585.57
4334.26
4084.48
3841.51
3608.7
3386.75
3178.97
2983.49
2805.98
2645.42
2508.35
2382.39
2266.83
2137.39
1938.41
7713.08
7190.76
1871.49
2060.5
2174.9
2283.42
2393.68
2519.93
2668.26
2833.01
3016.21
3213.04
3422.97
3644.52
3875.81
4114.1
4353.68
4582.57
4776.14
4899.39
4943.53
4943.53
4899.43
4776.29
4582.83
4353.96
4114.14
3875.26
3642.91
3419.75
3207.55
3008.01
2820.64
2652.9
2496.06
2366.76
2241.02
2126.46
2000.14
1816.14
6778.34
6277.93
1748.9
1919.78
2033.1
2142.51
2258.94
2385.03
2530.08
2691.77
2868.4
3058.17
3259.26
3470.82
3691.63
3919.09
4147.77
4365.36
4546.79
4658.69
4696.64
4696.64
4658.7
4546.86
4365.55
4148.1
3919.45
3691.87
3470.71
3258.47
3056.3
2865.16
2686.31
2523
2373.33
2245.48
2120.61
2006.6
1884.42
1714.65
6019.72
5407.64
1633.24
1787.82
1899.41
2009.63
2131.72
2257.06
2403.64
2560.26
2733.85
2917.63
3112.1
3315.47
3526.67
3743.59
3961.43
4168.1
4338.08
4439.25
4471.46
4471.46
4439.25
4338.11
4168.21
3961.67
3743.97
3527.13
3315.93
3112.39
2917.56
2733.19
2558.63
2401.15
2252.41
2125.97
1999.77
1886.33
1769.29
1614.35
5268.4
4791.38
1541.99
1678.85
1783.88
1892.3
2016.15
2140.83
2287.55
2441.02
2612.35
2792.8
2983.73
3182.52
3387.33
3595.07
3800.58
3992.89
4149
4240.05
4267.91
4267.91
4240.05
4149
3992.93
3800.71
3595.33
3387.74
3183.08
2984.39
2793.52
2613.02
2441.54
2287.84
2140.5
2015.44
1890.07
1779.96
1671.86
1533.95
4722.22
4226.39
1469.35
1585.97
1679.19
1779.2
1898.67
2018.62
2162.48
2311.91
2481.87
2662.17
2855.25
3057.55
3266.16
3476.14
3680.01
3864.83
4008.2
4086.44
4108.38
4108.38
4086.43
4008.19
3864.85
3680.07
3476.3
3266.45
3057.99
2855.83
2662.9
2482.66
2312.75
2163.27
2019.24
1899.1
1779.02
1678.14
1583.38
1466.06
4207.47
4061.38
1369.79
1471.46
1544.84
1628.1
1733.27
1839.04
1968.17
2101.81
2254.9
2418.25
2594.33
2780.31
2974.16
3170.88
3361.99
3532.37
3658.81
3723.05
3739.47
3739.47
3723.05
3658.8
3532.36
3362.01
3170.97
2974.34
2780.62
2594.79
2418.86
2255.64
2102.71
1969.13
1840.06
1734.3
1628.96
1545.36
1471.05
1368.75
4047.55
32411.9
4097.35
4274.78
4852.28
5441.11
6257.38
7074.45
8091.71
9112.13
10292.8
11486.7
12808.8
14133.3
15513.7
16847.1
18041.9
18928.3
19395.1
19534.8
19553.1
19553.1
19534.8
19395.1
18928.2
18041.9
16847
15513.7
14133.2
12808.9
11486.9
10293.2
9112.86
8092.74
7075.81
6259.13
5443.17
4854.69
4277.25
4099.45
32410.9
32411.9
4097.35
4274.78
4852.28
5441.11
6257.38
7074.45
8091.71
9112.13
10292.8
11486.7
12808.8
14133.3
15513.7
16847.1
18041.9
18928.3
19395.1
19534.8
19553.1
19553.1
19534.8
19395.1
18928.2
18041.9
16847
15513.7
14133.2
12808.9
11486.9
10293.2
9112.86
8092.74
7075.81
6259.13
5443.17
4854.69
4277.25
4099.45
32410.9
4061.38
1369.79
1471.46
1544.84
1628.1
1733.27
1839.04
1968.17
2101.81
2254.9
2418.25
2594.33
2780.31
2974.16
3170.88
3361.99
3532.37
3658.81
3723.05
3739.47
3739.47
3723.05
3658.8
3532.36
3362.01
3170.97
2974.34
2780.62
2594.79
2418.86
2255.64
2102.71
1969.13
1840.06
1734.3
1628.96
1545.36
1471.05
1368.75
4047.55
4226.39
1469.35
1585.97
1679.19
1779.2
1898.67
2018.62
2162.48
2311.91
2481.87
2662.17
2855.25
3057.55
3266.16
3476.14
3680.01
3864.83
4008.2
4086.44
4108.38
4108.38
4086.43
4008.19
3864.85
3680.07
3476.3
3266.45
3057.99
2855.83
2662.9
2482.66
2312.75
2163.27
2019.24
1899.1
1779.02
1678.14
1583.38
1466.06
4207.47
4791.38
1541.99
1678.85
1783.88
1892.3
2016.15
2140.83
2287.55
2441.02
2612.35
2792.8
2983.73
3182.52
3387.33
3595.07
3800.58
3992.89
4149
4240.05
4267.91
4267.91
4240.05
4149
3992.93
3800.71
3595.33
3387.74
3183.08
2984.39
2793.52
2613.02
2441.54
2287.84
2140.5
2015.44
1890.07
1779.96
1671.86
1533.95
4722.22
5407.64
1633.24
1787.82
1899.41
2009.63
2131.72
2257.06
2403.64
2560.26
2733.85
2917.63
3112.1
3315.47
3526.67
3743.59
3961.43
4168.1
4338.08
4439.25
4471.46
4471.46
4439.25
4338.11
4168.21
3961.67
3743.97
3527.13
3315.93
3112.39
2917.56
2733.19
2558.63
2401.15
2252.41
2125.97
1999.77
1886.33
1769.29
1614.35
5268.4
6277.93
1748.9
1919.78
2033.1
2142.51
2258.94
2385.03
2530.08
2691.77
2868.4
3058.17
3259.26
3470.82
3691.63
3919.09
4147.77
4365.36
4546.79
4658.69
4696.64
4696.64
4658.7
4546.86
4365.55
4148.1
3919.45
3691.87
3470.71
3258.47
3056.3
2865.16
2686.31
2523
2373.33
2245.48
2120.61
2006.6
1884.42
1714.65
6019.72
7190.76
1871.49
2060.5
2174.9
2283.42
2393.68
2519.93
2668.26
2833.01
3016.21
3213.04
3422.97
3644.52
3875.81
4114.1
4353.68
4582.57
4776.14
4899.39
4943.53
4943.53
4899.43
4776.29
4582.83
4353.96
4114.14
3875.26
3642.91
3419.75
3207.55
3008.01
2820.64
2652.9
2496.06
2366.76
2241.02
2126.46
2000.14
1816.14
6778.34
8289.23
2017.19
2227.58
2344.43
2453.18
2555.83
2686.35
2833.44
3005.97
3194.67
3398.06
3616.04
3845.91
4086.73
4335.1
4585.63
4826.55
5033.31
5168.92
5220
5220.01
5169.02
5033.53
4826.79
4585.57
4334.26
4084.48
3841.51
3608.7
3386.75
3178.97
2983.49
2805.98
2645.42
2508.35
2382.39
2266.83
2137.39
1938.41
7713.08
9378.32
2163.47
2397.92
2525.31
2636.07
2739.04
2868.94
3020.85
3199.46
3393.17
3606.37
3832.06
4072.12
4323.06
4582.7
4845.37
5099.53
5320.51
5469.28
5527.86
5527.88
5469.43
5320.74
5099.49
4844.45
4580.11
4317.85
4063.26
3818.44
3586.84
3366.52
3163.44
2975.21
2804.96
2663.25
2531.5
2413.1
2278.99
2064.04
8651.19
10566.5
2327.64
2588.58
2727.51
2842.62
2945.52
3075.86
3231.28
3412.62
3616.23
3834.95
4071.33
4320.93
4583.38
4855.13
5130.99
5399.33
5635.31
5797.86
5864.46
5864.51
5798.06
5635.38
5398.58
5128.43
4849.61
4573.66
4305.7
4049.25
3804.36
3575.71
3358.65
3163.03
2983.79
2833.85
2698.76
2577.51
2440.79
2209
9743.11
11700.9
2498.17
2787.1
2937.09
3061.54
3169.18
3301.02
3458.7
3646.2
3853.93
4083.41
4328.73
4590.2
4864.71
5149.67
5439.53
5722.75
5974.26
6151
6226
6226.06
6151.16
5973.87
5720.65
5434.3
5139.86
4848.82
4566.72
4296.01
4039.55
3796.25
3570.98
3362.05
3174.85
3017.02
2874.93
2749.99
2611.45
2362.85
10847.9
12867.6
2682.48
3001.73
3160.59
3294.87
3409.13
3543.76
3705.4
3894.62
4110.34
4347.14
4603.97
4877.27
5165.11
5464.07
5768.69
6067.39
6334.79
6525.93
6609.52
6609.57
6525.88
6333.48
6063.08
5759.62
5448.56
5141.52
4843.93
4558.96
4287.8
4033.05
3793.81
3575.87
3378.26
3211.17
3062.13
2932.81
2794.79
2529.4
12076.4
13967.2
2879.28
3230.57
3398.42
3542.86
3665.52
3803.73
3967.47
4160.11
4380.57
4626.64
4894.27
5180.67
5482.6
5796.55
6116.77
6431.56
6715.18
6920.76
7012.97
7012.98
6920.24
6712.31
6424.08
6102.69
5774.12
5450.15
5136.38
4835.74
4550.33
4281.08
4030.38
3799.87
3593.08
3415.25
3257.89
3123.26
2987.31
2705.77
13308.2
14944.9
3083.89
3472.97
3653.74
3807.39
3939.73
4080.5
4245.57
4439.52
4665.05
4919.14
5198.23
5498.14
5815.16
6145.12
6481.91
6813.54
7113.76
7333.74
7434.42
7434.31
7332.36
7108.6
6801.96
6461.87
6114.97
5773.26
5442.44
5125.61
4824.63
4541.23
4276.91
4034.82
3817.37
3628.57
3461.67
3320.41
3187.29
2890.93
14615.7
16111
3303.54
3730.17
3924.81
4089
4231.96
4373.19
4537.48
4731.67
4960.85
5222.76
5513.11
5827.06
6159.97
6507
6861.43
7210.78
7528.05
7762.35
7871.16
7870.84
7759.66
7519.87
7194.35
6834.9
6468.92
6108.71
5760.12
5426.3
5109.28
4810.67
4532.58
4277.86
4049.49
3849.51
3672.16
3522.12
3391
3081.32
15904.4
16214.3
3525.8
4000.08
4211.71
4384.46
4537.9
4677.86
4839.48
5032.19
5264.29
5533.52
5835.1
6163.34
6512.75
6877.71
7250.78
7618.76
7953.58
8202.1
8318.59
8317.97
8197.65
7941.85
7597.14
7217.8
6832.13
6452.79
6085.78
5734.37
5400.62
5086.31
4793.64
4525.83
4285.95
4074.8
3886.64
3725.15
3593.31
3271.42
17132.3
16356.1
3711.09
4260.85
4522.15
4695.17
4846.93
4983.53
5141.74
5332.32
5567.32
5843.93
6156.91
6499.76
6866.1
7249.51
7641.87
8029.1
8381.8
8644.3
8767.87
8766.86
8637.74
8366.22
8002.33
7602.87
7197.15
6798.24
6412.34
6042.84
5691.87
5361.27
5053.44
4771.82
4519.77
4297.36
4098.39
3923.17
3785.93
3450.98
18159.8
15194.4
3829.82
4514.79
4787.16
5003.9
5136.99
5267.78
5420.62
5612.67
5852.13
6136.7
6461.61
6819.4
7202.85
7604.78
8016.37
8422.73
8793
9068.85
9198.77
9197.33
9060.08
8773.73
8391.37
7972.24
7546.72
7128.34
6723.53
6335.8
5967.37
5620.14
5296.64
5000.52
4735.41
4501.18
4291.17
4101.54
3953.41
3602.43
18837.8
13678.2
3967.11
4795.32
5066.73
5247.82
5365.61
5494.71
5644.88
5842.24
6087.91
6382.85
6721.07
7094.7
7495.61
7915.94
8346.16
8770.63
9157.15
9444.82
9579.84
9577.9
9433.69
9134.21
8735.01
8297.51
7853.15
7415.93
6992.58
6586.73
6200.74
5836.6
5496.95
5185.62
4906.42
4659.37
4437.37
4234.79
4072.06
3703.41
19131.3
12291.8
4358.29
5115.41
5399.8
5449.81
5509.49
5624.45
5771.96
5974
6222.67
6524.55
6871.21
7255.27
7667.89
8100.67
8543.67
8980.45
9377.64
9672.67
9810.65
9808.37
9659.85
9352.08
8941.89
8492.05
8034.71
7584.27
7147.67
6728.77
6330.02
5953.57
5602.17
5279.79
4990.31
4733.96
4503.31
4293.13
4120.5
3741.62
19193.5
)
;

boundaryField
{
    inlet
    {
        type            fixedValue;
        value           uniform 10000;
    }
    outlet
    {
        type            fixedValue;
        value           uniform 1000;
    }
    obstacle
    {
        type            zeroGradient;
    }
    empty
    {
        type            empty;
    }
}


// ************************************************************************* //
