/*--------------------------------*- C++ -*----------------------------------*\
| =========                 |                                                 |
| \\      /  F ield         | OpenFOAM: The Open Source CFD Toolbox           |
|  \\    /   O peration     | Version:  v1912                                 |
|   \\  /    A nd           | Website:  www.openfoam.com                      |
|    \\/     M anipulation  |                                                 |
\*---------------------------------------------------------------------------*/
FoamFile
{
    version     2.0;
    format      ascii;
    class       volScalarField;
    location    "2.32";
    object      T;
}
// * * * * * * * * * * * * * * * * * * * * * * * * * * * * * * * * * * * * * //

dimensions      [0 0 0 1 0 0 0];


internalField   nonuniform List<scalar> 
1900
(
1.0864
1.01856
1.02
1.02165
1.02307
1.02441
1.02593
1.02783
1.02972
1.03266
1.08639
1.01856
1.02
1.02165
1.02307
1.0244
1.02587
1.02748
1.02909
1.03193
1.08639
1.01856
1.02001
1.02165
1.02306
1.02438
1.02587
1.02754
1.02931
1.03164
1.08639
1.01856
1.02
1.02165
1.02307
1.0244
1.02587
1.02748
1.02909
1.03193
1.0864
1.01856
1.02
1.02165
1.02307
1.02441
1.02593
1.02783
1.02972
1.03266
1.0315
1.0359
1.04019
1.04136
1.01239
1.03451
1.03879
1.0425
1.04612
1.03332
1.03408
1.03786
1.04097
1.04287
1.02839
1.03451
1.03879
1.0425
1.04612
1.03332
1.0315
1.0359
1.04019
1.04136
1.01239
1.06283
1.04558
1.03315
1.0045
0.957954
1.05698
1.04396
1.0323
1.0138
0.987658
1.05574
1.04356
1.03157
1.01459
0.992755
1.05698
1.04396
1.0323
1.0138
0.987658
1.06283
1.04558
1.03315
1.0045
0.957954
0.835113
0.774605
0.836137
0.852217
0.846433
0.845611
0.850136
0.857076
0.865682
0.875769
0.887718
0.900978
0.915145
0.929788
0.944562
0.959108
0.972925
0.985067
0.993838
0.997859
0.99779
0.99345
0.984302
0.971756
0.9575
0.942428
0.926959
0.911313
0.895634
0.880037
0.864647
0.849634
0.835232
0.821645
0.808889
0.797035
0.78755
0.77953
0.710595
0.59928
0.949788
0.818694
0.851351
0.854515
0.847574
0.846232
0.850491
0.857539
0.866162
0.876254
0.888235
0.901537
0.915761
0.930458
0.94527
0.959841
0.973676
0.985833
0.99461
0.998629
0.998557
0.99421
0.985048
0.972478
0.95819
0.943077
0.927558
0.911855
0.896111
0.880444
0.864981
0.849896
0.835426
0.821779
0.808976
0.797091
0.787593
0.779552
0.710593
0.599274
0.954814
0.847128
0.861707
0.856536
0.847871
0.846443
0.850609
0.857674
0.866306
0.876403
0.888394
0.901709
0.915951
0.930662
0.945477
0.960044
0.973877
0.986031
0.994805
0.998819
0.998746
0.994396
0.985229
0.972651
0.958352
0.943224
0.927688
0.911965
0.896202
0.880517
0.865039
0.849942
0.835467
0.821819
0.809011
0.797114
0.787606
0.779553
0.710586
0.599266
0.949788
0.818694
0.851351
0.854515
0.847574
0.846232
0.850491
0.857539
0.866162
0.876254
0.888235
0.901537
0.915761
0.930458
0.94527
0.959841
0.973676
0.985833
0.99461
0.998629
0.998557
0.99421
0.985048
0.972478
0.95819
0.943077
0.927558
0.911855
0.896111
0.880444
0.864981
0.849896
0.835426
0.821779
0.808976
0.797091
0.787593
0.779552
0.710593
0.599274
0.835113
0.774605
0.836137
0.852217
0.846433
0.845611
0.850136
0.857076
0.865682
0.875769
0.887718
0.900978
0.915145
0.929788
0.944562
0.959108
0.972925
0.985067
0.993838
0.997859
0.99779
0.99345
0.984302
0.971756
0.9575
0.942428
0.926959
0.911313
0.895634
0.880037
0.864647
0.849634
0.835232
0.821645
0.808889
0.797035
0.78755
0.77953
0.710595
0.59928
0.643423
0.72817
0.824951
0.841763
0.841371
0.842949
0.848123
0.854786
0.863294
0.87336
0.885224
0.8984
0.912463
0.926993
0.941645
0.956075
0.969786
0.981841
0.990553
0.994559
0.994493
0.990179
0.981078
0.968597
0.954424
0.939451
0.924094
0.908575
0.893035
0.87759
0.862364
0.847525
0.833306
0.819911
0.807348
0.795692
0.786359
0.77857
0.709934
0.599177
0.572999
0.727415
0.812721
0.825057
0.83165
0.83667
0.842637
0.849362
0.857793
0.867929
0.879713
0.89277
0.906669
0.921017
0.935483
0.949732
0.963283
0.975216
0.983856
0.987843
0.987787
0.983526
0.974519
0.962167
0.94815
0.93336
0.918211
0.902921
0.88763
0.872452
0.857508
0.842964
0.82905
0.815965
0.803707
0.792361
0.7833
0.775911
0.707866
0.598654
0.570417
0.726722
0.800002
0.811385
0.820329
0.826402
0.832579
0.839568
0.848017
0.858197
0.869896
0.882796
0.896484
0.910601
0.924835
0.938864
0.952217
0.963983
0.972513
0.976462
0.976419
0.972245
0.963381
0.951205
0.937388
0.922815
0.907902
0.892865
0.877843
0.862951
0.848309
0.834081
0.820496
0.807747
0.795826
0.784827
0.77619
0.769317
0.702278
0.596193
0.575394
0.719193
0.786829
0.798225
0.805518
0.812809
0.819496
0.826999
0.835697
0.846053
0.857836
0.870702
0.884278
0.898235
0.912286
0.926124
0.939291
0.950889
0.959288
0.963176
0.963145
0.959081
0.950385
0.938397
0.924774
0.910401
0.895691
0.880863
0.866056
0.851382
0.836963
0.822962
0.809601
0.797069
0.785364
0.774595
0.766402
0.759772
0.693779
0.590514
0.572291
0.705933
0.7722
0.782096
0.789874
0.797647
0.804835
0.812829
0.821985
0.83263
0.84456
0.85745
0.870955
0.884782
0.898669
0.912332
0.925322
0.936752
0.945008
0.948813
0.948793
0.944862
0.936359
0.924573
0.911146
0.896966
0.882447
0.867809
0.85319
0.838703
0.82447
0.810648
0.797453
0.785066
0.773521
0.762941
0.755138
0.74844
0.683734
0.58186
0.570559
0.690083
0.756445
0.766481
0.774257
0.781895
0.789527
0.798023
0.807654
0.818623
0.830726
0.843656
0.857106
0.870818
0.884558
0.89806
0.910888
0.922153
0.930249
0.933946
0.933935
0.930157
0.921869
0.910297
0.897068
0.883077
0.868741
0.854281
0.839836
0.825521
0.81145
0.797781
0.784719
0.772439
0.761048
0.750657
0.743115
0.736126
0.673156
0.57143
0.55956
0.675887
0.740992
0.750969
0.758609
0.766071
0.774074
0.783019
0.793082
0.804367
0.81663
0.829599
0.842997
0.856605
0.870217
0.883581
0.896262
0.907362
0.915276
0.918839
0.918835
0.915228
0.907175
0.895828
0.882801
0.868995
0.854837
0.840547
0.826268
0.81211
0.798196
0.784656
0.771713
0.759521
0.748298
0.738087
0.730657
0.723273
0.662501
0.560401
0.551995
0.662875
0.725843
0.735579
0.743135
0.750439
0.758706
0.768015
0.778487
0.790034
0.802451
0.81544
0.828794
0.842314
0.85582
0.869067
0.881612
0.892539
0.900246
0.903648
0.903648
0.900227
0.89243
0.88132
0.868496
0.854873
0.840887
0.826762
0.812639
0.798642
0.784855
0.771457
0.758597
0.746493
0.735452
0.725387
0.717943
0.710143
0.65189
0.549073
0.543352
0.650399
0.71086
0.720461
0.727855
0.735051
0.743524
0.753167
0.763955
0.775789
0.788291
0.801319
0.814629
0.828083
0.841501
0.854644
0.867055
0.877794
0.885266
0.888482
0.888484
0.885264
0.877743
0.866879
0.85426
0.840818
0.827
0.813032
0.79907
0.785197
0.771585
0.75824
0.74554
0.73346
0.722617
0.712644
0.705107
0.696931
0.641392
0.538369
0.534098
0.638352
0.696053
0.705477
0.712718
0.719893
0.728612
0.738491
0.749702
0.761645
0.774323
0.787334
0.800636
0.814032
0.827379
0.840423
0.852694
0.863226
0.870431
0.873442
0.873444
0.870438
0.863211
0.852605
0.840192
0.826928
0.813271
0.799462
0.785626
0.771933
0.758364
0.745239
0.732525
0.720561
0.70986
0.699912
0.692217
0.683735
0.630878
0.527441
0.525102
0.627049
0.681609
0.690652
0.697759
0.705016
0.71407
0.72428
0.735663
0.747922
0.760568
0.773672
0.786936
0.800305
0.813584
0.82653
0.83865
0.848952
0.855862
0.858651
0.858653
0.85587
0.848955
0.838617
0.826411
0.813319
0.799819
0.786141
0.772469
0.758826
0.745512
0.732312
0.719865
0.707905
0.697281
0.687387
0.679485
0.67083
0.620737
0.51762
0.515214
0.615766
0.667028
0.675565
0.682885
0.690561
0.700017
0.7105
0.722239
0.73446
0.747346
0.760418
0.773733
0.787066
0.800291
0.813135
0.825094
0.835143
0.841734
0.844292
0.844294
0.841741
0.835154
0.825092
0.813091
0.800161
0.786794
0.77325
0.759643
0.746184
0.732802
0.719898
0.707405
0.695521
0.685039
0.674951
0.666786
0.657993
0.610341
0.507566
0.506034
0.605696
0.653337
0.661284
0.668985
0.677055
0.687008
0.697616
0.7095
0.721929
0.734768
0.747933
0.76122
0.774544
0.78771
0.800454
0.812245
0.822026
0.828279
0.830602
0.830603
0.828283
0.822036
0.812256
0.800451
0.787666
0.774421
0.760969
0.747497
0.734065
0.720909
0.707973
0.695669
0.683998
0.673424
0.663351
0.654933
0.646194
0.601318
0.499122
0.496041
0.594957
0.639256
0.647185
0.655366
0.664464
0.674529
0.685707
0.697537
0.710127
0.723061
0.736252
0.749562
0.762855
0.775971
0.78862
0.800244
0.809748
0.815649
0.817736
0.817736
0.815651
0.809755
0.800257
0.788634
0.775973
0.762824
0.749466
0.736053
0.722705
0.709572
0.69666
0.684569
0.67269
0.662304
0.651823
0.643027
0.634204
0.591423
0.490257
0.487671
0.585526
0.626566
0.634584
0.643315
0.653344
0.663789
0.675135
0.687183
0.699759
0.712675
0.725757
0.738918
0.752058
0.765019
0.777518
0.788956
0.798177
0.803726
0.805586
0.805586
0.803727
0.798181
0.788966
0.777535
0.765039
0.752072
0.738911
0.725707
0.71255
0.699532
0.686783
0.674592
0.662854
0.652222
0.641414
0.632214
0.62345
0.583329
0.483532
0.478671
0.575576
0.613906
0.622065
0.631372
0.642344
0.653146
0.665046
0.677149
0.689948
0.702891
0.715978
0.729059
0.742051
0.754826
0.767127
0.77835
0.787276
0.792462
0.794095
0.794095
0.792462
0.787277
0.778356
0.76714
0.754847
0.742079
0.729088
0.715997
0.702886
0.689901
0.677026
0.66485
0.652761
0.641847
0.630484
0.620846
0.612179
0.574184
0.476048
0.474179
0.567906
0.603681
0.611547
0.621233
0.632872
0.64409
0.65648
0.668824
0.681938
0.695114
0.708417
0.721643
0.734668
0.747308
0.759292
0.770073
0.778542
0.783376
0.784841
0.78484
0.783375
0.778542
0.770075
0.759299
0.747323
0.734693
0.721679
0.708461
0.695165
0.681986
0.668864
0.656503
0.64406
0.632807
0.621026
0.611174
0.603007
0.567322
0.472843
0.475978
0.563085
0.596645
0.603627
0.612842
0.62445
0.635571
0.64808
0.660433
0.673766
0.687205
0.700881
0.714542
0.728028
0.741085
0.753315
0.764027
0.772095
0.776416
0.77762
0.77762
0.776415
0.772095
0.764028
0.753319
0.741096
0.728048
0.714573
0.700924
0.687259
0.673827
0.660501
0.648144
0.635618
0.624479
0.612804
0.603493
0.596332
0.562767
0.475355
0.454883
0.530537
0.563217
0.568097
0.575022
0.584594
0.593017
0.603408
0.612969
0.623744
0.63435
0.645226
0.656104
0.66706
0.677983
0.688602
0.698137
0.705192
0.708699
0.709567
0.709567
0.708699
0.705192
0.698137
0.688602
0.677986
0.66707
0.656124
0.645262
0.634405
0.623819
0.613071
0.60353
0.593162
0.584754
0.57518
0.568233
0.563261
0.530503
0.454364
0.399427
0.453918
0.474988
0.473003
0.476085
0.483967
0.490945
0.500288
0.509155
0.51962
0.529857
0.541216
0.552358
0.563934
0.575005
0.584856
0.592116
0.595934
0.597083
0.597236
0.597236
0.597083
0.595934
0.592116
0.584856
0.575005
0.563934
0.552358
0.541216
0.529859
0.519625
0.509163
0.500302
0.490966
0.483997
0.476126
0.47306
0.475047
0.453975
0.399425
0.399427
0.453918
0.474988
0.473003
0.476085
0.483967
0.490945
0.500288
0.509155
0.51962
0.529857
0.541216
0.552358
0.563934
0.575005
0.584856
0.592116
0.595934
0.597083
0.597236
0.597236
0.597083
0.595934
0.592116
0.584856
0.575005
0.563934
0.552358
0.541216
0.529859
0.519625
0.509163
0.500302
0.490966
0.483997
0.476126
0.47306
0.475047
0.453975
0.399425
0.454883
0.530537
0.563217
0.568097
0.575022
0.584594
0.593017
0.603408
0.612969
0.623744
0.63435
0.645226
0.656104
0.66706
0.677983
0.688602
0.698137
0.705192
0.708699
0.709567
0.709567
0.708699
0.705192
0.698137
0.688602
0.677986
0.66707
0.656124
0.645262
0.634405
0.623819
0.613071
0.60353
0.593162
0.584754
0.57518
0.568233
0.563261
0.530503
0.454364
0.475978
0.563085
0.596645
0.603627
0.612842
0.62445
0.635571
0.64808
0.660433
0.673766
0.687205
0.700881
0.714542
0.728028
0.741085
0.753315
0.764027
0.772095
0.776416
0.77762
0.77762
0.776415
0.772095
0.764028
0.753319
0.741096
0.728048
0.714573
0.700924
0.687259
0.673827
0.660501
0.648144
0.635618
0.624479
0.612804
0.603493
0.596332
0.562767
0.475355
0.474179
0.567906
0.603681
0.611547
0.621233
0.632872
0.64409
0.65648
0.668824
0.681938
0.695114
0.708417
0.721643
0.734668
0.747308
0.759292
0.770073
0.778542
0.783376
0.784841
0.78484
0.783375
0.778542
0.770075
0.759299
0.747323
0.734693
0.721679
0.708461
0.695165
0.681986
0.668864
0.656503
0.64406
0.632807
0.621026
0.611174
0.603007
0.567322
0.472843
0.478671
0.575576
0.613906
0.622065
0.631372
0.642344
0.653146
0.665046
0.677149
0.689948
0.702891
0.715978
0.729059
0.742051
0.754826
0.767127
0.77835
0.787276
0.792462
0.794095
0.794095
0.792462
0.787277
0.778356
0.76714
0.754847
0.742079
0.729088
0.715997
0.702886
0.689901
0.677026
0.66485
0.652761
0.641847
0.630484
0.620846
0.612179
0.574184
0.476048
0.487671
0.585526
0.626566
0.634584
0.643315
0.653344
0.663789
0.675135
0.687183
0.699759
0.712675
0.725757
0.738918
0.752058
0.765019
0.777518
0.788956
0.798177
0.803726
0.805586
0.805586
0.803727
0.798181
0.788966
0.777535
0.765039
0.752072
0.738911
0.725707
0.71255
0.699532
0.686783
0.674592
0.662854
0.652222
0.641414
0.632214
0.62345
0.583329
0.483532
0.496041
0.594957
0.639256
0.647185
0.655366
0.664464
0.674529
0.685707
0.697537
0.710127
0.723061
0.736252
0.749562
0.762855
0.775971
0.78862
0.800244
0.809748
0.815649
0.817736
0.817736
0.815651
0.809755
0.800257
0.788634
0.775973
0.762824
0.749466
0.736053
0.722705
0.709572
0.69666
0.684569
0.67269
0.662304
0.651823
0.643027
0.634204
0.591423
0.490257
0.506034
0.605696
0.653337
0.661284
0.668985
0.677055
0.687008
0.697616
0.7095
0.721929
0.734768
0.747933
0.76122
0.774544
0.78771
0.800454
0.812245
0.822026
0.828279
0.830602
0.830603
0.828283
0.822036
0.812256
0.800451
0.787666
0.774421
0.760969
0.747497
0.734065
0.720909
0.707973
0.695669
0.683998
0.673424
0.663351
0.654933
0.646194
0.601318
0.499122
0.515214
0.615766
0.667028
0.675565
0.682885
0.690561
0.700017
0.7105
0.722239
0.73446
0.747346
0.760418
0.773733
0.787066
0.800291
0.813135
0.825094
0.835143
0.841734
0.844292
0.844294
0.841741
0.835154
0.825092
0.813091
0.800161
0.786794
0.77325
0.759643
0.746184
0.732802
0.719898
0.707405
0.695521
0.685039
0.674951
0.666786
0.657993
0.610341
0.507566
0.525102
0.627049
0.681609
0.690652
0.697759
0.705016
0.71407
0.72428
0.735663
0.747922
0.760568
0.773672
0.786936
0.800305
0.813584
0.82653
0.83865
0.848952
0.855862
0.858651
0.858653
0.85587
0.848955
0.838617
0.826411
0.813319
0.799819
0.786141
0.772469
0.758826
0.745512
0.732312
0.719865
0.707905
0.697281
0.687387
0.679485
0.67083
0.620737
0.51762
0.534098
0.638352
0.696053
0.705477
0.712718
0.719893
0.728612
0.738491
0.749702
0.761645
0.774323
0.787334
0.800636
0.814032
0.827379
0.840423
0.852694
0.863226
0.870431
0.873442
0.873444
0.870438
0.863211
0.852605
0.840192
0.826928
0.813271
0.799462
0.785626
0.771933
0.758364
0.745239
0.732525
0.720561
0.70986
0.699912
0.692217
0.683735
0.630878
0.527441
0.543352
0.650399
0.71086
0.720461
0.727855
0.735051
0.743524
0.753167
0.763955
0.775789
0.788291
0.801319
0.814629
0.828083
0.841501
0.854644
0.867055
0.877794
0.885266
0.888482
0.888484
0.885264
0.877743
0.866879
0.85426
0.840818
0.827
0.813032
0.79907
0.785197
0.771585
0.75824
0.74554
0.73346
0.722617
0.712644
0.705107
0.696931
0.641392
0.538369
0.551995
0.662875
0.725843
0.735579
0.743135
0.750439
0.758706
0.768015
0.778487
0.790034
0.802451
0.81544
0.828794
0.842314
0.85582
0.869067
0.881612
0.892539
0.900246
0.903648
0.903648
0.900227
0.89243
0.88132
0.868496
0.854873
0.840887
0.826762
0.812639
0.798642
0.784855
0.771457
0.758597
0.746493
0.735452
0.725387
0.717943
0.710143
0.65189
0.549073
0.55956
0.675887
0.740992
0.750969
0.758609
0.766071
0.774074
0.783019
0.793082
0.804367
0.81663
0.829599
0.842997
0.856605
0.870217
0.883581
0.896262
0.907362
0.915276
0.918839
0.918835
0.915228
0.907175
0.895828
0.882801
0.868995
0.854837
0.840547
0.826268
0.81211
0.798196
0.784656
0.771713
0.759521
0.748298
0.738087
0.730657
0.723273
0.662501
0.560401
0.570559
0.690083
0.756445
0.766481
0.774257
0.781895
0.789527
0.798023
0.807654
0.818623
0.830726
0.843656
0.857106
0.870818
0.884558
0.89806
0.910888
0.922153
0.930249
0.933946
0.933935
0.930157
0.921869
0.910297
0.897068
0.883077
0.868741
0.854281
0.839836
0.825521
0.81145
0.797781
0.784719
0.772439
0.761048
0.750657
0.743115
0.736126
0.673156
0.57143
0.572291
0.705933
0.7722
0.782096
0.789874
0.797647
0.804835
0.812829
0.821985
0.83263
0.84456
0.85745
0.870955
0.884782
0.898669
0.912332
0.925322
0.936752
0.945008
0.948813
0.948793
0.944862
0.936359
0.924573
0.911146
0.896966
0.882447
0.867809
0.85319
0.838703
0.82447
0.810648
0.797453
0.785066
0.773521
0.762941
0.755138
0.74844
0.683734
0.58186
0.575394
0.719193
0.786829
0.798225
0.805518
0.812809
0.819496
0.826999
0.835697
0.846053
0.857836
0.870702
0.884278
0.898235
0.912286
0.926124
0.939291
0.950889
0.959288
0.963176
0.963145
0.959081
0.950385
0.938397
0.924774
0.910401
0.895691
0.880863
0.866056
0.851382
0.836963
0.822962
0.809601
0.797069
0.785364
0.774595
0.766402
0.759772
0.693779
0.590514
0.570417
0.726722
0.800002
0.811385
0.820329
0.826402
0.832579
0.839568
0.848017
0.858197
0.869896
0.882796
0.896484
0.910601
0.924835
0.938864
0.952217
0.963983
0.972513
0.976462
0.976419
0.972245
0.963381
0.951205
0.937388
0.922815
0.907902
0.892865
0.877843
0.862951
0.848309
0.834081
0.820496
0.807747
0.795826
0.784827
0.77619
0.769317
0.702278
0.596193
0.572999
0.727415
0.812721
0.825057
0.83165
0.83667
0.842637
0.849362
0.857793
0.867929
0.879713
0.89277
0.906669
0.921017
0.935483
0.949732
0.963283
0.975216
0.983856
0.987843
0.987787
0.983526
0.974519
0.962167
0.94815
0.93336
0.918211
0.902921
0.88763
0.872452
0.857508
0.842964
0.82905
0.815965
0.803707
0.792361
0.7833
0.775911
0.707866
0.598654
0.643423
0.72817
0.824951
0.841763
0.841371
0.842949
0.848123
0.854786
0.863294
0.87336
0.885224
0.8984
0.912463
0.926993
0.941645
0.956075
0.969786
0.981841
0.990553
0.994559
0.994493
0.990179
0.981078
0.968597
0.954424
0.939451
0.924094
0.908575
0.893035
0.87759
0.862364
0.847525
0.833306
0.819911
0.807348
0.795692
0.786359
0.77857
0.709934
0.599177
)
;

boundaryField
{
    inlet
    {
        type            fixedValue;
        value           uniform 1;
    }
    outlet
    {
        type            zeroGradient;
    }
    obstacle
    {
        type            zeroGradient;
    }
    empty
    {
        type            empty;
    }
}


// ************************************************************************* //
