/*--------------------------------*- C++ -*----------------------------------*\
| =========                 |                                                 |
| \\      /  F ield         | OpenFOAM: The Open Source CFD Toolbox           |
|  \\    /   O peration     | Version:  v1912                                 |
|   \\  /    A nd           | Website:  www.openfoam.com                      |
|    \\/     M anipulation  |                                                 |
\*---------------------------------------------------------------------------*/
FoamFile
{
    version     2.0;
    format      ascii;
    class       volScalarField;
    location    "2.94";
    object      Ma;
}
// * * * * * * * * * * * * * * * * * * * * * * * * * * * * * * * * * * * * * //

dimensions      [0 0 0 0 0 0 0];


internalField   nonuniform List<scalar> 
1900
(
0.409096
0.0693933
0.0735001
0.0775424
0.0815092
0.0860964
0.0911935
0.0962422
0.100172
0.0916582
0.409101
0.0693996
0.073509
0.0775485
0.0814447
0.085741
0.0901161
0.0946226
0.10071
0.105971
0.409103
0.069401
0.0735103
0.0775315
0.0813652
0.0855051
0.089684
0.0942322
0.100685
0.112635
0.409101
0.0693996
0.073509
0.0775485
0.0814447
0.085741
0.0901161
0.0946226
0.10071
0.105971
0.409096
0.0693933
0.0735001
0.0775424
0.0815092
0.0860964
0.0911935
0.0962422
0.100172
0.0916582
0.105321
0.137172
0.169926
0.223332
0.401245
0.128006
0.15922
0.204294
0.292139
0.461617
0.134098
0.164049
0.214859
0.31046
0.478113
0.128006
0.15922
0.204294
0.292139
0.461617
0.105321
0.137172
0.169926
0.223332
0.401245
0.435146
0.349922
0.300341
0.276428
0.342575
0.453249
0.360989
0.296018
0.230207
0.197326
0.462407
0.361317
0.286548
0.198831
0.0691649
0.453249
0.360989
0.296018
0.230207
0.197326
0.435146
0.349922
0.300341
0.276428
0.342575
0.592952
0.207541
0.274416
0.338848
0.393029
0.437811
0.447032
0.445611
0.433182
0.415826
0.393532
0.367781
0.339243
0.308171
0.274224
0.236392
0.19354
0.145039
0.0934585
0.0444736
0.0479638
0.0990722
0.151485
0.201234
0.246135
0.287262
0.326227
0.364571
0.40309
0.441795
0.480194
0.517722
0.554159
0.589836
0.624845
0.657289
0.683369
0.699844
0.792664
1.66564
0.119733
0.285531
0.153318
0.279064
0.389145
0.437179
0.446692
0.445639
0.433234
0.415689
0.393307
0.367398
0.338684
0.307397
0.273162
0.234932
0.191493
0.141998
0.0883582
0.0317323
0.0365225
0.0943187
0.148622
0.199312
0.244785
0.286315
0.325593
0.364199
0.402947
0.441857
0.480438
0.518125
0.554692
0.590485
0.62556
0.658207
0.684072
0.700589
0.792562
1.66103
0.206643
0.365433
0.0966156
0.248753
0.389527
0.438737
0.448059
0.447013
0.434445
0.416782
0.394251
0.368154
0.339251
0.30777
0.273326
0.234854
0.191113
0.141181
0.0867152
0.0261993
0.0318723
0.092814
0.147878
0.198991
0.244766
0.28655
0.326059
0.364884
0.403847
0.442971
0.481765
0.519665
0.556443
0.592445
0.627714
0.660612
0.686605
0.703217
0.794449
1.66081
0.119733
0.285531
0.153318
0.279064
0.389145
0.437179
0.446692
0.445639
0.433234
0.415689
0.393307
0.367398
0.338684
0.307397
0.273162
0.234932
0.191493
0.141998
0.0883582
0.0317323
0.0365225
0.0943187
0.148622
0.199312
0.244785
0.286315
0.325593
0.364199
0.402947
0.441857
0.480438
0.518125
0.554692
0.590485
0.62556
0.658207
0.684072
0.700589
0.792562
1.66103
0.592952
0.207541
0.274416
0.338848
0.393029
0.437811
0.447032
0.445611
0.433182
0.415826
0.393532
0.367781
0.339243
0.308171
0.274224
0.236392
0.19354
0.145039
0.0934585
0.0444736
0.0479638
0.0990722
0.151485
0.201234
0.246135
0.287262
0.326227
0.364571
0.40309
0.441795
0.480194
0.517722
0.554159
0.589836
0.624845
0.657289
0.683369
0.699844
0.792664
1.66564
1.43305
0.552163
0.469725
0.431667
0.430994
0.455657
0.459785
0.455444
0.442031
0.424385
0.401882
0.376125
0.347668
0.316837
0.283375
0.246402
0.205073
0.159484
0.113866
0.0786513
0.0806074
0.118467
0.165295
0.212262
0.255672
0.295919
0.334333
0.372323
0.410617
0.449188
0.487524
0.525048
0.561528
0.59722
0.632317
0.664277
0.691034
0.707361
0.800366
1.6678
1.68845
0.774775
0.63273
0.533848
0.499102
0.490935
0.485702
0.472784
0.457734
0.439245
0.416828
0.391594
0.363968
0.334373
0.302738
0.268453
0.231177
0.191997
0.156049
0.133192
0.134208
0.159251
0.196555
0.237175
0.276445
0.313776
0.349996
0.386236
0.423069
0.460391
0.497655
0.534249
0.570006
0.604836
0.639637
0.669887
0.697252
0.712717
0.808552
1.67106
1.7131
0.824264
0.694798
0.597145
0.552399
0.52924
0.513537
0.496623
0.479418
0.459828
0.4375
0.412806
0.386126
0.357957
0.328381
0.297014
0.26383
0.230323
0.201117
0.184581
0.185164
0.203426
0.233848
0.268736
0.303789
0.337953
0.371708
0.405941
0.4411
0.476973
0.51302
0.548552
0.583535
0.617238
0.651804
0.680193
0.707937
0.722741
0.821796
1.67824
1.69998
0.851305
0.73009
0.640811
0.59648
0.56707
0.544318
0.523933
0.504501
0.483598
0.461002
0.436482
0.41053
0.383599
0.355912
0.327171
0.297464
0.268303
0.243506
0.230687
0.230985
0.245157
0.270929
0.301308
0.332676
0.363877
0.395204
0.427435
0.460814
0.49522
0.529968
0.564344
0.598625
0.630966
0.665289
0.692029
0.720291
0.735191
0.836616
1.68425
1.70801
0.872506
0.756312
0.677845
0.635441
0.60189
0.575369
0.552285
0.531092
0.508963
0.485817
0.461288
0.435731
0.409832
0.383682
0.357124
0.330179
0.304251
0.28241
0.272064
0.27215
0.283545
0.306108
0.333057
0.361431
0.390089
0.41934
0.449682
0.481644
0.514516
0.548281
0.581582
0.615233
0.646204
0.680235
0.705833
0.734442
0.751176
0.852726
1.69157
1.72927
0.890215
0.779245
0.710251
0.670662
0.633973
0.606262
0.581344
0.558863
0.535667
0.511964
0.486991
0.461892
0.436609
0.411777
0.386939
0.362183
0.338708
0.318952
0.310431
0.310355
0.31966
0.339898
0.364191
0.390124
0.416723
0.444073
0.473114
0.503323
0.535505
0.567931
0.600291
0.63364
0.663009
0.696602
0.721501
0.750568
0.770479
0.869801
1.69703
1.7313
0.907949
0.802408
0.74072
0.703187
0.66496
0.637574
0.611271
0.588062
0.564015
0.539249
0.514625
0.489187
0.464882
0.440926
0.417608
0.394611
0.373093
0.354897
0.347849
0.347656
0.355266
0.373736
0.395877
0.419821
0.444529
0.470591
0.497713
0.527655
0.557518
0.590141
0.621063
0.653831
0.681958
0.715323
0.739796
0.769976
0.791927
0.888808
1.70572
1.72881
0.925451
0.824618
0.769421
0.733329
0.694755
0.66884
0.641712
0.618249
0.593144
0.569013
0.542883
0.518802
0.494402
0.471724
0.449542
0.428114
0.408222
0.391267
0.385492
0.385225
0.391378
0.408435
0.428783
0.450919
0.474223
0.4984
0.52529
0.552297
0.583374
0.613084
0.643697
0.676314
0.702313
0.735298
0.75952
0.791213
0.813715
0.90735
1.70968
1.74006
0.948476
0.84975
0.800633
0.764868
0.726474
0.701812
0.673425
0.649789
0.625084
0.598255
0.574416
0.548697
0.525946
0.503593
0.482739
0.462593
0.444127
0.428193
0.423564
0.423261
0.428118
0.444019
0.462787
0.483455
0.505075
0.528696
0.552903
0.581569
0.607959
0.640581
0.668158
0.700765
0.726065
0.758955
0.783086
0.816348
0.839804
0.930907
1.71896
1.74294
0.966781
0.87066
0.828536
0.792478
0.755036
0.731798
0.703368
0.681355
0.65417
0.630764
0.603969
0.580856
0.557487
0.536492
0.516445
0.497542
0.48029
0.465215
0.461633
0.461326
0.465016
0.479957
0.497386
0.516608
0.537223
0.558949
0.583676
0.608276
0.637704
0.665061
0.693722
0.725193
0.748271
0.780805
0.804615
0.839056
0.861684
0.949783
1.72106
1.75556
0.993976
0.899231
0.86343
0.824519
0.789133
0.766443
0.737314
0.714291
0.688567
0.661744
0.637104
0.612498
0.590206
0.569435
0.550268
0.532304
0.516082
0.501716
0.499091
0.498807
0.501452
0.51562
0.531908
0.550038
0.569508
0.590829
0.613724
0.639955
0.66521
0.696619
0.721263
0.754199
0.776944
0.809276
0.833184
0.869613
0.892979
0.978548
1.73014
1.75868
1.01314
0.921331
0.889252
0.848413
0.816183
0.793335
0.763707
0.74292
0.715372
0.691123
0.666354
0.642922
0.621483
0.601567
0.583346
0.566331
0.55105
0.537298
0.535545
0.535305
0.537019
0.550544
0.565803
0.582854
0.601194
0.621411
0.64315
0.667709
0.692484
0.720817
0.7456
0.776321
0.797855
0.830113
0.853486
0.890582
0.913375
0.996705
1.73005
1.76907
1.04212
0.951841
0.922184
0.880075
0.850928
0.826651
0.797719
0.776454
0.748566
0.724483
0.698767
0.675779
0.654064
0.634488
0.616525
0.600017
0.585334
0.572022
0.571027
0.570843
0.571767
0.584858
0.599463
0.615909
0.633858
0.653543
0.675283
0.699207
0.724047
0.752531
0.775965
0.807728
0.82868
0.861597
0.885503
0.924038
0.947155
1.02828
1.73703
1.76913
1.06219
0.975621
0.947558
0.904693
0.877644
0.851473
0.822237
0.800995
0.772426
0.749261
0.724074
0.702402
0.681892
0.663773
0.647243
0.632166
0.618681
0.606129
0.605911
0.605786
0.605921
0.618276
0.631648
0.646606
0.662994
0.681156
0.701232
0.724016
0.74689
0.77509
0.796927
0.828535
0.848833
0.882191
0.906149
0.945677
0.968598
1.04734
1.73379
1.77516
1.09275
1.00769
0.980989
0.938311
0.912719
0.883356
0.855432
0.833261
0.804195
0.781467
0.756202
0.734741
0.714486
0.696685
0.680392
0.665456
0.652107
0.63959
0.639863
0.639794
0.639443
0.651814
0.665048
0.679873
0.695969
0.713865
0.733415
0.756331
0.778548
0.806939
0.828573
0.860625
0.881395
0.916133
0.941106
0.981171
1.00385
1.08063
1.73722
1.77029
1.11448
1.0353
1.01032
0.967868
0.942613
0.909354
0.882602
0.858312
0.829031
0.806006
0.78034
0.758643
0.73829
0.720631
0.705096
0.69148
0.679799
0.668962
0.67047
0.670446
0.668866
0.679587
0.691133
0.704592
0.719836
0.737531
0.756923
0.780085
0.802053
0.830556
0.851805
0.884293
0.905126
0.941005
0.966251
1.00689
1.02859
1.10125
1.73048
1.76499
1.1398
1.06603
1.04527
1.00477
0.97944
0.94416
0.919931
0.890705
0.86326
0.836969
0.810148
0.78671
0.765
0.747163
0.731223
0.717096
0.705038
0.693559
0.694711
0.694716
0.69351
0.704937
0.716907
0.730941
0.746622
0.76454
0.785324
0.810128
0.833847
0.864382
0.886472
0.920741
0.942579
0.979107
1.00498
1.04477
1.06312
1.12986
1.72323
1.7024
1.13679
1.07584
1.06448
1.02715
1.00241
0.965532
0.942774
0.909999
0.885548
0.856571
0.831485
0.806509
0.783655
0.762461
0.74524
0.73121
0.719706
0.709014
0.710643
0.710659
0.708987
0.719643
0.731076
0.745038
0.762073
0.783251
0.805424
0.831182
0.854074
0.88535
0.906607
0.941357
0.96293
0.999304
1.0243
1.06081
1.06988
1.12616
1.66417
1.6961
1.17165
1.12818
1.12899
1.09808
1.07705
1.04248
1.02238
0.991277
0.970422
0.943376
0.922361
0.899895
0.880352
0.860578
0.842467
0.824591
0.808593
0.795328
0.794221
0.794239
0.795329
0.808579
0.824526
0.842335
0.860322
0.880072
0.899128
0.922088
0.941558
0.970055
0.988675
1.02087
1.0399
1.07401
1.09488
1.12554
1.12303
1.16461
1.67896
2.31618
1.67941
1.66255
1.72151
1.72957
1.73677
1.73358
1.73701
1.72998
1.73002
1.721
1.71867
1.70955
1.70536
1.69752
1.69282
1.68637
1.67923
1.67223
1.67425
1.67424
1.67222
1.67922
1.68637
1.69281
1.6975
1.70534
1.70951
1.71865
1.72093
1.73004
1.72994
1.73709
1.73367
1.73709
1.73001
1.72298
1.66288
1.67814
2.31856
2.31618
1.67941
1.66255
1.72151
1.72957
1.73677
1.73358
1.73701
1.72998
1.73002
1.721
1.71867
1.70955
1.70536
1.69752
1.69282
1.68637
1.67923
1.67223
1.67425
1.67424
1.67222
1.67922
1.68637
1.69281
1.6975
1.70534
1.70951
1.71865
1.72093
1.73004
1.72994
1.73709
1.73367
1.73709
1.73001
1.72298
1.66288
1.67814
2.31856
1.6961
1.17165
1.12818
1.12899
1.09808
1.07705
1.04248
1.02238
0.991277
0.970422
0.943376
0.922361
0.899895
0.880352
0.860578
0.842467
0.824591
0.808593
0.795328
0.794221
0.794239
0.795329
0.808579
0.824526
0.842335
0.860322
0.880072
0.899128
0.922088
0.941558
0.970055
0.988675
1.02087
1.0399
1.07401
1.09488
1.12554
1.12303
1.16461
1.67896
1.7024
1.13679
1.07584
1.06448
1.02715
1.00241
0.965532
0.942774
0.909999
0.885548
0.856571
0.831485
0.806509
0.783655
0.762461
0.74524
0.73121
0.719706
0.709014
0.710643
0.710659
0.708987
0.719643
0.731076
0.745038
0.762073
0.783251
0.805424
0.831182
0.854074
0.88535
0.906607
0.941357
0.96293
0.999304
1.0243
1.06081
1.06988
1.12616
1.66417
1.76499
1.1398
1.06603
1.04527
1.00477
0.97944
0.94416
0.919931
0.890705
0.86326
0.836969
0.810148
0.78671
0.765
0.747163
0.731223
0.717096
0.705038
0.693559
0.694711
0.694716
0.69351
0.704937
0.716907
0.730941
0.746622
0.76454
0.785324
0.810128
0.833847
0.864382
0.886472
0.920741
0.942579
0.979107
1.00498
1.04477
1.06312
1.12986
1.72323
1.77029
1.11448
1.0353
1.01032
0.967868
0.942613
0.909354
0.882602
0.858312
0.829031
0.806006
0.78034
0.758643
0.73829
0.720631
0.705096
0.69148
0.679799
0.668962
0.67047
0.670446
0.668866
0.679587
0.691133
0.704592
0.719836
0.737531
0.756923
0.780085
0.802053
0.830556
0.851805
0.884293
0.905126
0.941005
0.966251
1.00689
1.02859
1.10125
1.73048
1.77516
1.09275
1.00769
0.980989
0.938311
0.912719
0.883356
0.855432
0.833261
0.804195
0.781467
0.756202
0.734741
0.714486
0.696685
0.680392
0.665456
0.652107
0.63959
0.639863
0.639794
0.639443
0.651814
0.665048
0.679873
0.695969
0.713865
0.733415
0.756331
0.778548
0.806939
0.828573
0.860625
0.881395
0.916133
0.941106
0.981171
1.00385
1.08063
1.73722
1.76913
1.06219
0.975621
0.947558
0.904693
0.877644
0.851473
0.822237
0.800995
0.772426
0.749261
0.724074
0.702402
0.681892
0.663773
0.647243
0.632166
0.618681
0.606129
0.605911
0.605786
0.605921
0.618276
0.631648
0.646606
0.662994
0.681156
0.701232
0.724016
0.74689
0.77509
0.796927
0.828535
0.848833
0.882191
0.906149
0.945677
0.968598
1.04734
1.73379
1.76907
1.04212
0.951841
0.922184
0.880075
0.850928
0.826651
0.797719
0.776454
0.748566
0.724483
0.698767
0.675779
0.654064
0.634488
0.616525
0.600017
0.585334
0.572022
0.571027
0.570843
0.571767
0.584858
0.599463
0.615909
0.633858
0.653543
0.675283
0.699207
0.724047
0.752531
0.775965
0.807728
0.82868
0.861597
0.885503
0.924038
0.947155
1.02828
1.73703
1.75868
1.01314
0.921331
0.889252
0.848413
0.816183
0.793335
0.763707
0.74292
0.715372
0.691123
0.666354
0.642922
0.621483
0.601567
0.583346
0.566331
0.55105
0.537298
0.535545
0.535305
0.537019
0.550544
0.565803
0.582854
0.601194
0.621411
0.64315
0.667709
0.692484
0.720817
0.7456
0.776321
0.797855
0.830113
0.853486
0.890582
0.913375
0.996705
1.73005
1.75556
0.993976
0.899231
0.86343
0.824519
0.789133
0.766443
0.737314
0.714291
0.688567
0.661744
0.637104
0.612498
0.590206
0.569435
0.550268
0.532304
0.516082
0.501716
0.499091
0.498807
0.501452
0.51562
0.531908
0.550038
0.569508
0.590829
0.613724
0.639955
0.66521
0.696619
0.721263
0.754199
0.776944
0.809276
0.833184
0.869613
0.892979
0.978548
1.73014
1.74294
0.966781
0.87066
0.828536
0.792478
0.755036
0.731798
0.703368
0.681355
0.65417
0.630764
0.603969
0.580856
0.557487
0.536492
0.516445
0.497542
0.48029
0.465215
0.461633
0.461326
0.465016
0.479957
0.497386
0.516608
0.537223
0.558949
0.583676
0.608276
0.637704
0.665061
0.693722
0.725193
0.748271
0.780805
0.804615
0.839056
0.861684
0.949783
1.72106
1.74006
0.948476
0.84975
0.800633
0.764868
0.726474
0.701812
0.673425
0.649789
0.625084
0.598255
0.574416
0.548697
0.525946
0.503593
0.482739
0.462593
0.444127
0.428193
0.423564
0.423261
0.428118
0.444019
0.462787
0.483455
0.505075
0.528696
0.552903
0.581569
0.607959
0.640581
0.668158
0.700765
0.726065
0.758955
0.783086
0.816348
0.839804
0.930907
1.71896
1.72881
0.925451
0.824618
0.769421
0.733329
0.694755
0.66884
0.641712
0.618249
0.593144
0.569013
0.542883
0.518802
0.494402
0.471724
0.449542
0.428114
0.408222
0.391267
0.385492
0.385225
0.391378
0.408435
0.428783
0.450919
0.474223
0.4984
0.52529
0.552297
0.583374
0.613084
0.643697
0.676314
0.702313
0.735298
0.75952
0.791213
0.813715
0.90735
1.70968
1.7313
0.907949
0.802408
0.74072
0.703187
0.66496
0.637574
0.611271
0.588062
0.564015
0.539249
0.514625
0.489187
0.464882
0.440926
0.417608
0.394611
0.373093
0.354897
0.347849
0.347656
0.355266
0.373736
0.395877
0.419821
0.444529
0.470591
0.497713
0.527655
0.557518
0.590141
0.621063
0.653831
0.681958
0.715323
0.739796
0.769976
0.791927
0.888808
1.70572
1.72927
0.890215
0.779245
0.710251
0.670662
0.633973
0.606262
0.581344
0.558863
0.535667
0.511964
0.486991
0.461892
0.436609
0.411777
0.386939
0.362183
0.338708
0.318952
0.310431
0.310355
0.31966
0.339898
0.364191
0.390124
0.416723
0.444073
0.473114
0.503323
0.535505
0.567931
0.600291
0.63364
0.663009
0.696602
0.721501
0.750568
0.770479
0.869801
1.69703
1.70801
0.872506
0.756312
0.677845
0.635441
0.60189
0.575369
0.552285
0.531092
0.508963
0.485817
0.461288
0.435731
0.409832
0.383682
0.357124
0.330179
0.304251
0.28241
0.272064
0.27215
0.283545
0.306108
0.333057
0.361431
0.390089
0.41934
0.449682
0.481644
0.514516
0.548281
0.581582
0.615233
0.646204
0.680235
0.705833
0.734442
0.751176
0.852726
1.69157
1.69998
0.851305
0.73009
0.640811
0.59648
0.56707
0.544318
0.523933
0.504501
0.483598
0.461002
0.436482
0.41053
0.383599
0.355912
0.327171
0.297464
0.268303
0.243506
0.230687
0.230985
0.245157
0.270929
0.301308
0.332676
0.363877
0.395204
0.427435
0.460814
0.49522
0.529968
0.564344
0.598625
0.630966
0.665289
0.692029
0.720291
0.735191
0.836616
1.68425
1.7131
0.824264
0.694798
0.597145
0.552399
0.52924
0.513537
0.496623
0.479418
0.459828
0.4375
0.412806
0.386126
0.357957
0.328381
0.297014
0.26383
0.230323
0.201117
0.184581
0.185164
0.203426
0.233848
0.268736
0.303789
0.337953
0.371708
0.405941
0.4411
0.476973
0.51302
0.548552
0.583535
0.617238
0.651804
0.680193
0.707937
0.722741
0.821796
1.67824
1.68845
0.774775
0.63273
0.533848
0.499102
0.490935
0.485702
0.472784
0.457734
0.439245
0.416828
0.391594
0.363968
0.334373
0.302738
0.268453
0.231177
0.191997
0.156049
0.133192
0.134208
0.159251
0.196555
0.237175
0.276445
0.313776
0.349996
0.386236
0.423069
0.460391
0.497655
0.534249
0.570006
0.604836
0.639637
0.669887
0.697252
0.712717
0.808552
1.67106
1.43305
0.552163
0.469725
0.431667
0.430994
0.455657
0.459785
0.455444
0.442031
0.424385
0.401882
0.376125
0.347668
0.316837
0.283375
0.246402
0.205073
0.159484
0.113866
0.0786513
0.0806074
0.118467
0.165295
0.212262
0.255672
0.295919
0.334333
0.372323
0.410617
0.449188
0.487524
0.525048
0.561528
0.59722
0.632317
0.664277
0.691034
0.707361
0.800366
1.6678
)
;

boundaryField
{
    inlet
    {
        type            calculated;
        value           uniform 0;
    }
    outlet
    {
        type            calculated;
        value           nonuniform List<scalar> 
165
(
1.43305
1.68845
1.7131
1.69998
1.70801
1.72927
1.7313
1.72881
1.74006
1.74294
1.75556
1.75868
1.76907
1.76913
1.77516
1.77029
1.76499
1.7024
1.6961
2.31618
2.31618
1.67941
1.66255
1.72151
1.72957
1.73677
1.73358
1.73701
1.72998
1.73002
1.721
1.71867
1.70955
1.70536
1.69752
1.69282
1.68637
1.67923
1.67223
1.67425
1.67424
1.67222
1.67922
1.68637
1.69281
1.6975
1.70534
1.70951
1.71865
1.72093
1.73004
1.72994
1.73709
1.73367
1.73709
1.73001
1.72298
1.66288
1.67814
2.31856
1.6678
1.67106
1.67824
1.68425
1.69157
1.69703
1.70572
1.70968
1.71896
1.72106
1.73014
1.73005
1.73703
1.73379
1.73722
1.73048
1.72323
1.66417
1.67896
2.31856
1.66564
1.66103
1.66081
1.66103
1.66564
2.31856
1.67896
1.66417
1.72323
1.73048
1.73722
1.73379
1.73703
1.73005
1.73014
1.72106
1.71896
1.70968
1.70572
1.69703
1.69157
1.68425
1.67824
1.67106
1.6678
2.31618
1.67941
1.66255
1.72151
1.72957
1.73677
1.73358
1.73701
1.72998
1.73002
1.721
1.71867
1.70955
1.70536
1.69752
1.69282
1.68637
1.67923
1.67223
1.67425
1.67424
1.67222
1.67922
1.68637
1.69281
1.6975
1.70534
1.70951
1.71865
1.72093
1.73004
1.72994
1.73709
1.73367
1.73709
1.73001
1.72298
1.66288
1.67814
2.31856
2.31618
1.6961
1.7024
1.76499
1.77029
1.77516
1.76913
1.76907
1.75868
1.75556
1.74294
1.74006
1.72881
1.7313
1.72927
1.70801
1.69998
1.7131
1.68845
1.43305
)
;
    }
    obstacle
    {
        type            calculated;
        value           nonuniform List<scalar> 
40
(
0.409096
0.0693933
0.0735001
0.0775424
0.0815091
0.0860957
0.0911917
0.0962383
0.10005
0.0899308
0.409096
0.0693933
0.0735001
0.0775424
0.0815091
0.0860957
0.0911917
0.0962383
0.10005
0.0899308
0.104541
0.136142
0.169607
0.22275
0.372569
0.104541
0.136142
0.169607
0.22275
0.372569
0.434622
0.349821
0.30033
0.276013
0.337492
0.434622
0.349821
0.30033
0.276013
0.337492
)
;
    }
    empty
    {
        type            empty;
    }
}


// ************************************************************************* //
