/*--------------------------------*- C++ -*----------------------------------*\
| =========                 |                                                 |
| \\      /  F ield         | OpenFOAM: The Open Source CFD Toolbox           |
|  \\    /   O peration     | Version:  v1912                                 |
|   \\  /    A nd           | Website:  www.openfoam.com                      |
|    \\/     M anipulation  |                                                 |
\*---------------------------------------------------------------------------*/
FoamFile
{
    version     2.0;
    format      ascii;
    class       volScalarField;
    location    "2.04";
    object      Ma;
}
// * * * * * * * * * * * * * * * * * * * * * * * * * * * * * * * * * * * * * //

dimensions      [0 0 0 0 0 0 0];


internalField   nonuniform List<scalar> 
1900
(
0.137013
0.0487087
0.0497974
0.0499401
0.0503815
0.0516249
0.0541616
0.0571671
0.0598427
0.0557895
0.13702
0.0487189
0.0498123
0.0499415
0.0503411
0.0514453
0.0536499
0.0563253
0.0599507
0.0647376
0.137023
0.0487256
0.0498196
0.0499345
0.0503029
0.0513374
0.0534737
0.0562091
0.060253
0.0684019
0.13702
0.0487189
0.0498123
0.0499415
0.0503411
0.0514453
0.0536499
0.0563253
0.0599507
0.0647376
0.137013
0.0487087
0.0497974
0.0499401
0.0503815
0.0516249
0.0541616
0.0571671
0.0598427
0.0557895
0.0650846
0.0875297
0.112529
0.150891
0.252282
0.0796817
0.100994
0.131585
0.187607
0.289062
0.0832254
0.102994
0.135285
0.195232
0.295638
0.0796817
0.100994
0.131585
0.187607
0.289062
0.0650846
0.0875297
0.112529
0.150891
0.252282
0.287957
0.245823
0.227638
0.228383
0.328831
0.300563
0.254159
0.22071
0.187713
0.183383
0.307592
0.25701
0.214818
0.157469
0.0524303
0.300563
0.254159
0.22071
0.187713
0.183383
0.287957
0.245823
0.227638
0.228383
0.328831
0.592037
0.197123
0.265709
0.3237
0.365124
0.380969
0.374766
0.352924
0.323187
0.285265
0.243083
0.198781
0.154328
0.111251
0.071282
0.0372251
0.0134109
0.00250683
0.000166289
2.39215e-05
2.39456e-05
0.000197663
0.00282418
0.0145997
0.0398041
0.0756028
0.117734
0.163659
0.212148
0.262532
0.314323
0.367031
0.419983
0.472051
0.521614
0.567071
0.608931
0.648076
0.775899
1.59619
0.123483
0.215693
0.133495
0.280208
0.359263
0.378856
0.374687
0.352891
0.322971
0.285074
0.242968
0.19871
0.15428
0.111217
0.0712588
0.037215
0.0134149
0.00251207
0.000165996
1.13328e-05
1.14533e-05
0.000196543
0.0028241
0.0145996
0.039804
0.0756027
0.117733
0.163659
0.212148
0.262532
0.314323
0.36703
0.419983
0.472051
0.521613
0.567071
0.608931
0.648076
0.775899
1.59619
0.192521
0.291242
0.0238342
0.257571
0.357576
0.378352
0.374791
0.352824
0.322877
0.285008
0.242931
0.19869
0.154269
0.111212
0.0712568
0.0372143
0.0134153
0.00251403
0.00016615
2.0774e-06
2.77169e-06
0.000196229
0.00282407
0.0145996
0.0398039
0.0756025
0.117733
0.163658
0.212147
0.262532
0.314323
0.36703
0.419983
0.472051
0.521613
0.567071
0.608931
0.648076
0.775899
1.59619
0.123483
0.215693
0.133495
0.280208
0.359263
0.378856
0.374687
0.352891
0.322971
0.285074
0.242968
0.19871
0.15428
0.111217
0.0712588
0.037215
0.0134149
0.00251207
0.000165996
1.13328e-05
1.14533e-05
0.000196543
0.0028241
0.0145996
0.039804
0.0756027
0.117733
0.163659
0.212148
0.262532
0.314323
0.36703
0.419983
0.472051
0.521613
0.567071
0.608931
0.648076
0.775899
1.59619
0.592037
0.197123
0.265709
0.3237
0.365124
0.380969
0.374766
0.352924
0.323187
0.285265
0.243083
0.198781
0.154328
0.111251
0.071282
0.0372251
0.0134109
0.00250683
0.000166289
2.39215e-05
2.39456e-05
0.000197663
0.00282418
0.0145997
0.0398041
0.0756028
0.117734
0.163659
0.212148
0.262532
0.314323
0.367031
0.419983
0.472051
0.521614
0.567071
0.608931
0.648076
0.775899
1.59619
1.39615
0.535764
0.439784
0.390112
0.385418
0.388709
0.377765
0.354489
0.324186
0.285954
0.243499
0.199034
0.154486
0.111355
0.0713645
0.0373094
0.0134883
0.00255017
0.000181976
5.60736e-05
5.60092e-05
0.000204052
0.00282461
0.0145997
0.0398039
0.0756024
0.117733
0.163658
0.212148
0.262532
0.314323
0.36703
0.419983
0.472051
0.521614
0.567071
0.608931
0.648076
0.775899
1.59619
1.63621
0.727849
0.566287
0.461966
0.424333
0.405208
0.38764
0.360375
0.327461
0.287955
0.244759
0.199901
0.155134
0.111887
0.0718163
0.0376637
0.0137235
0.00280663
0.00104345
0.00102644
0.00102641
0.00104494
0.00300401
0.0146333
0.039813
0.0756038
0.117731
0.163655
0.212144
0.262529
0.314321
0.367029
0.419983
0.472051
0.521615
0.567074
0.608934
0.64807
0.775896
1.59619
1.64344
0.762119
0.602181
0.502314
0.456907
0.426752
0.400788
0.369442
0.332571
0.291203
0.246852
0.201405
0.156321
0.112922
0.0728375
0.0389001
0.0159947
0.00825498
0.00778323
0.00777847
0.00777843
0.00778065
0.00826988
0.0165165
0.0405127
0.0759456
0.117928
0.163781
0.212232
0.262596
0.314379
0.367083
0.420036
0.472106
0.521674
0.567148
0.609005
0.648009
0.775851
1.59623
1.63851
0.771779
0.618257
0.532234
0.484384
0.449609
0.415971
0.379806
0.339479
0.295941
0.250469
0.20454
0.159476
0.11658
0.0777549
0.0468513
0.0302093
0.0268054
0.0266495
0.0266473
0.0266473
0.0266474
0.0267857
0.0303068
0.0477094
0.0798978
0.120411
0.1655
0.213506
0.263594
0.315197
0.367782
0.420656
0.472679
0.522237
0.567741
0.609563
0.647883
0.775736
1.59677
1.62506
0.773244
0.627242
0.555274
0.507899
0.469215
0.431114
0.391577
0.348804
0.303786
0.257797
0.212217
0.16835
0.127797
0.0932415
0.0692862
0.0591962
0.0575156
0.0574434
0.0574427
0.0574427
0.057442
0.0574966
0.0591556
0.0695247
0.0943424
0.130245
0.172623
0.21895
0.267935
0.318784
0.370839
0.423337
0.475108
0.524554
0.569976
0.611695
0.648417
0.776121
1.59941
1.61624
0.774733
0.633415
0.573733
0.530211
0.489856
0.449167
0.406829
0.362337
0.316656
0.271077
0.226962
0.185768
0.149446
0.120903
0.103432
0.0969639
0.0959693
0.095933
0.0959333
0.0959333
0.0959323
0.0959565
0.0969047
0.1034
0.121249
0.150644
0.188292
0.231352
0.278057
0.327278
0.378147
0.429782
0.480957
0.53009
0.575119
0.616603
0.651299
0.778532
1.60561
1.62894
0.783407
0.646038
0.593905
0.554068
0.512186
0.470135
0.426003
0.380636
0.335159
0.290891
0.249212
0.21166
0.18018
0.15711
0.144082
0.139574
0.138922
0.138906
0.138907
0.138907
0.138905
0.138916
0.13953
0.143984
0.157086
0.180529
0.212776
0.251549
0.294995
0.341756
0.390759
0.441008
0.49118
0.539765
0.583923
0.625039
0.658293
0.78467
1.61497
1.63414
0.795266
0.663022
0.616083
0.57903
0.536536
0.493924
0.44883
0.403493
0.359018
0.316783
0.278088
0.244413
0.217404
0.198614
0.188537
0.185202
0.184749
0.184743
0.184744
0.184744
0.184743
0.184747
0.18518
0.188456
0.198479
0.217334
0.244642
0.278934
0.318639
0.362375
0.409001
0.457376
0.506177
0.553971
0.596764
0.637271
0.670476
0.795541
1.62553
1.64375
0.8126
0.68361
0.639653
0.60505
0.562905
0.520141
0.475076
0.430436
0.387675
0.347867
0.312346
0.282353
0.259144
0.243599
0.235552
0.232976
0.232643
0.232642
0.232644
0.232644
0.232642
0.232644
0.23297
0.235509
0.243481
0.258957
0.28218
0.312349
0.348281
0.388811
0.432654
0.479007
0.525923
0.572702
0.614035
0.653569
0.687822
0.811298
1.63738
1.65206
0.83295
0.707887
0.666028
0.632746
0.591053
0.549047
0.504067
0.461278
0.420329
0.383294
0.350857
0.3242
0.304125
0.291043
0.284437
0.28237
0.28211
0.28211
0.282111
0.282111
0.28211
0.282111
0.282373
0.284425
0.290978
0.303971
0.323951
0.350556
0.383041
0.420268
0.461603
0.505161
0.55074
0.595551
0.635794
0.67468
0.710175
0.830979
1.64629
1.66369
0.857372
0.736555
0.696144
0.661419
0.621821
0.579223
0.537012
0.494828
0.456855
0.422205
0.392776
0.36898
0.35145
0.340239
0.334673
0.332953
0.332734
0.332732
0.332733
0.332733
0.332733
0.332735
0.332958
0.334678
0.34022
0.351368
0.368798
0.392475
0.421787
0.456385
0.4943
0.53685
0.578732
0.623363
0.661114
0.700923
0.737194
0.855214
1.65945
1.66917
0.883821
0.769181
0.728912
0.692189
0.653056
0.614027
0.570423
0.532821
0.495679
0.464202
0.437155
0.415842
0.400319
0.390528
0.385717
0.384235
0.384039
0.384035
0.384035
0.384035
0.384035
0.384039
0.38424
0.385727
0.390535
0.400298
0.415758
0.436969
0.463885
0.495206
0.53222
0.569739
0.613036
0.652947
0.690675
0.730954
0.768199
0.881415
1.66438
1.68117
0.915419
0.804485
0.765667
0.723799
0.690058
0.646432
0.610799
0.570688
0.538149
0.507879
0.483303
0.463804
0.449828
0.441076
0.436804
0.435484
0.435299
0.435293
0.435293
0.435293
0.435293
0.4353
0.435487
0.436813
0.441091
0.44984
0.463793
0.483238
0.507723
0.537881
0.570243
0.610292
0.645498
0.689568
0.722357
0.765924
0.803429
0.913708
1.67853
1.68108
0.942662
0.837569
0.799139
0.756411
0.721536
0.685641
0.645644
0.612843
0.579673
0.5525
0.529382
0.511519
0.498656
0.490634
0.486723
0.485505
0.485324
0.485316
0.485316
0.485316
0.485316
0.485324
0.485506
0.486728
0.490646
0.498677
0.511542
0.529391
0.552477
0.579579
0.612678
0.645314
0.685211
0.721004
0.755506
0.798757
0.836482
0.941375
1.67903
1.69291
0.981668
0.878675
0.840848
0.793478
0.762372
0.720983
0.687999
0.652397
0.622821
0.59635
0.574731
0.557642
0.545419
0.537791
0.534053
0.532868
0.532683
0.532673
0.532673
0.532673
0.532673
0.532683
0.532869
0.534055
0.537799
0.545435
0.55767
0.574769
0.59639
0.622844
0.6524
0.687933
0.720875
0.762171
0.793155
0.840672
0.878328
0.981225
1.69219
1.68568
1.00479
0.908226
0.871219
0.822738
0.792121
0.753603
0.720175
0.688231
0.659199
0.634669
0.614454
0.599152
0.58823
0.581316
0.577826
0.576645
0.576433
0.576418
0.576418
0.576418
0.576418
0.576433
0.576645
0.577826
0.581319
0.588239
0.599172
0.61449
0.634721
0.659264
0.688312
0.720236
0.753684
0.792142
0.822751
0.871246
0.908239
1.00478
1.68548
1.68495
1.0473
0.954455
0.919804
0.870586
0.838569
0.796601
0.762585
0.727994
0.698543
0.673668
0.654191
0.639405
0.628837
0.622171
0.618787
0.617642
0.617435
0.61742
0.617419
0.617419
0.61742
0.617435
0.617642
0.618787
0.622171
0.628839
0.639414
0.654211
0.673703
0.698594
0.728065
0.762659
0.796698
0.838641
0.870666
0.919877
0.954544
1.04738
1.68508
1.64644
1.06338
0.981911
0.952984
0.906261
0.874949
0.833735
0.799269
0.764951
0.734416
0.708572
0.687485
0.671739
0.661571
0.656498
0.654961
0.654935
0.655053
0.655073
0.655073
0.655073
0.655073
0.655053
0.654935
0.65496
0.656497
0.661572
0.671743
0.687496
0.708595
0.734452
0.765002
0.799338
0.833817
0.875048
0.906368
0.953108
0.982073
1.06353
1.64666
1.69185
1.14107
1.06158
1.04439
1.00135
0.976777
0.937577
0.908671
0.877287
0.851244
0.827981
0.809299
0.795108
0.78604
0.781565
0.780261
0.780243
0.780329
0.780342
0.780342
0.780342
0.780342
0.780329
0.780243
0.780261
0.781565
0.78604
0.795109
0.809303
0.827992
0.851268
0.877325
0.908731
0.93766
0.976891
1.00148
1.04454
1.06177
1.14122
1.69188
2.29624
1.695
1.64853
1.68654
1.68725
1.69429
1.68113
1.68033
1.66616
1.66062
1.64763
1.63797
1.62632
1.61612
1.60809
1.60374
1.60243
1.60227
1.60226
1.60226
1.60226
1.60226
1.60227
1.60243
1.60374
1.60809
1.61612
1.62632
1.63797
1.64763
1.66062
1.66616
1.68033
1.68113
1.69429
1.68725
1.68654
1.64853
1.69501
2.29624
2.29624
1.695
1.64853
1.68654
1.68725
1.69429
1.68113
1.68033
1.66616
1.66062
1.64763
1.63797
1.62632
1.61612
1.60809
1.60374
1.60243
1.60227
1.60226
1.60226
1.60226
1.60226
1.60227
1.60243
1.60374
1.60809
1.61612
1.62632
1.63797
1.64763
1.66062
1.66616
1.68033
1.68113
1.69429
1.68725
1.68654
1.64853
1.69501
2.29624
1.69185
1.14107
1.06158
1.04439
1.00135
0.976777
0.937577
0.908671
0.877287
0.851244
0.827981
0.809299
0.795108
0.78604
0.781565
0.780261
0.780243
0.780329
0.780342
0.780342
0.780342
0.780342
0.780329
0.780243
0.780261
0.781565
0.78604
0.795109
0.809303
0.827992
0.851268
0.877325
0.908731
0.93766
0.976891
1.00148
1.04454
1.06177
1.14122
1.69188
1.64644
1.06338
0.981911
0.952984
0.906261
0.874949
0.833735
0.799269
0.764951
0.734416
0.708572
0.687485
0.671739
0.661571
0.656498
0.654961
0.654935
0.655053
0.655073
0.655073
0.655073
0.655073
0.655053
0.654935
0.65496
0.656497
0.661572
0.671743
0.687496
0.708595
0.734452
0.765002
0.799338
0.833817
0.875048
0.906368
0.953108
0.982073
1.06353
1.64666
1.68495
1.0473
0.954455
0.919804
0.870586
0.838569
0.796601
0.762585
0.727994
0.698543
0.673668
0.654191
0.639405
0.628837
0.622171
0.618787
0.617642
0.617435
0.61742
0.617419
0.617419
0.61742
0.617435
0.617642
0.618787
0.622171
0.628839
0.639414
0.654211
0.673703
0.698594
0.728065
0.762659
0.796698
0.838641
0.870666
0.919877
0.954544
1.04738
1.68508
1.68568
1.00479
0.908226
0.871219
0.822738
0.792121
0.753603
0.720175
0.688231
0.659199
0.634669
0.614454
0.599152
0.58823
0.581316
0.577826
0.576645
0.576433
0.576418
0.576418
0.576418
0.576418
0.576433
0.576645
0.577826
0.581319
0.588239
0.599172
0.61449
0.634721
0.659264
0.688312
0.720236
0.753684
0.792142
0.822751
0.871246
0.908239
1.00478
1.68548
1.69291
0.981668
0.878675
0.840848
0.793478
0.762372
0.720983
0.687999
0.652397
0.622821
0.59635
0.574731
0.557642
0.545419
0.537791
0.534053
0.532868
0.532683
0.532673
0.532673
0.532673
0.532673
0.532683
0.532869
0.534055
0.537799
0.545435
0.55767
0.574769
0.59639
0.622844
0.6524
0.687933
0.720875
0.762171
0.793155
0.840672
0.878328
0.981225
1.69219
1.68108
0.942662
0.837569
0.799139
0.756411
0.721536
0.685641
0.645644
0.612843
0.579673
0.5525
0.529382
0.511519
0.498656
0.490634
0.486723
0.485505
0.485324
0.485316
0.485316
0.485316
0.485316
0.485324
0.485506
0.486728
0.490646
0.498677
0.511542
0.529391
0.552477
0.579579
0.612678
0.645314
0.685211
0.721004
0.755506
0.798757
0.836482
0.941375
1.67903
1.68117
0.915419
0.804485
0.765667
0.723799
0.690058
0.646432
0.610799
0.570688
0.538149
0.507879
0.483303
0.463804
0.449828
0.441076
0.436804
0.435484
0.435299
0.435293
0.435293
0.435293
0.435293
0.4353
0.435487
0.436813
0.441091
0.44984
0.463793
0.483238
0.507723
0.537881
0.570243
0.610292
0.645498
0.689568
0.722357
0.765924
0.803429
0.913708
1.67853
1.66917
0.883821
0.769181
0.728912
0.692189
0.653056
0.614027
0.570423
0.532821
0.495679
0.464202
0.437155
0.415842
0.400319
0.390528
0.385717
0.384235
0.384039
0.384035
0.384035
0.384035
0.384035
0.384039
0.38424
0.385727
0.390535
0.400298
0.415758
0.436969
0.463885
0.495206
0.53222
0.569739
0.613036
0.652947
0.690675
0.730954
0.768199
0.881415
1.66438
1.66369
0.857372
0.736555
0.696144
0.661419
0.621821
0.579223
0.537012
0.494828
0.456855
0.422205
0.392776
0.36898
0.35145
0.340239
0.334673
0.332953
0.332734
0.332732
0.332733
0.332733
0.332733
0.332735
0.332958
0.334678
0.34022
0.351368
0.368798
0.392475
0.421787
0.456385
0.4943
0.53685
0.578732
0.623363
0.661114
0.700923
0.737194
0.855214
1.65945
1.65206
0.83295
0.707887
0.666028
0.632746
0.591053
0.549047
0.504067
0.461278
0.420329
0.383294
0.350857
0.3242
0.304125
0.291043
0.284437
0.28237
0.28211
0.28211
0.282111
0.282111
0.28211
0.282111
0.282373
0.284425
0.290978
0.303971
0.323951
0.350556
0.383041
0.420268
0.461603
0.505161
0.55074
0.595551
0.635794
0.67468
0.710175
0.830979
1.64629
1.64375
0.8126
0.68361
0.639653
0.60505
0.562905
0.520141
0.475076
0.430436
0.387675
0.347867
0.312346
0.282353
0.259144
0.243599
0.235552
0.232976
0.232643
0.232642
0.232644
0.232644
0.232642
0.232644
0.23297
0.235509
0.243481
0.258957
0.28218
0.312349
0.348281
0.388811
0.432654
0.479007
0.525923
0.572702
0.614035
0.653569
0.687822
0.811298
1.63738
1.63414
0.795266
0.663022
0.616083
0.57903
0.536536
0.493924
0.44883
0.403493
0.359018
0.316783
0.278088
0.244413
0.217404
0.198614
0.188537
0.185202
0.184749
0.184743
0.184744
0.184744
0.184743
0.184747
0.18518
0.188456
0.198479
0.217334
0.244642
0.278934
0.318639
0.362375
0.409001
0.457376
0.506177
0.553971
0.596764
0.637271
0.670476
0.795541
1.62553
1.62894
0.783407
0.646038
0.593905
0.554068
0.512186
0.470135
0.426003
0.380636
0.335159
0.290891
0.249212
0.21166
0.18018
0.15711
0.144082
0.139574
0.138922
0.138906
0.138907
0.138907
0.138905
0.138916
0.13953
0.143984
0.157086
0.180529
0.212776
0.251549
0.294995
0.341756
0.390759
0.441008
0.49118
0.539765
0.583923
0.625039
0.658293
0.78467
1.61497
1.61624
0.774733
0.633415
0.573733
0.530211
0.489856
0.449167
0.406829
0.362337
0.316656
0.271077
0.226962
0.185768
0.149446
0.120903
0.103432
0.0969639
0.0959693
0.095933
0.0959333
0.0959333
0.0959323
0.0959565
0.0969047
0.1034
0.121249
0.150644
0.188292
0.231352
0.278057
0.327278
0.378147
0.429782
0.480957
0.53009
0.575119
0.616603
0.651299
0.778532
1.60561
1.62506
0.773244
0.627242
0.555274
0.507899
0.469215
0.431114
0.391577
0.348804
0.303786
0.257797
0.212217
0.16835
0.127797
0.0932415
0.0692862
0.0591962
0.0575156
0.0574434
0.0574427
0.0574427
0.057442
0.0574966
0.0591556
0.0695247
0.0943424
0.130245
0.172623
0.21895
0.267935
0.318784
0.370839
0.423337
0.475108
0.524554
0.569976
0.611695
0.648417
0.776121
1.59941
1.63851
0.771779
0.618257
0.532234
0.484384
0.449609
0.415971
0.379806
0.339479
0.295941
0.250469
0.20454
0.159476
0.11658
0.0777549
0.0468513
0.0302093
0.0268054
0.0266495
0.0266473
0.0266473
0.0266474
0.0267857
0.0303068
0.0477094
0.0798978
0.120411
0.1655
0.213506
0.263594
0.315197
0.367782
0.420656
0.472679
0.522237
0.567741
0.609563
0.647883
0.775736
1.59677
1.64344
0.762119
0.602181
0.502314
0.456907
0.426752
0.400788
0.369442
0.332571
0.291203
0.246852
0.201405
0.156321
0.112922
0.0728375
0.0389001
0.0159947
0.00825498
0.00778323
0.00777847
0.00777843
0.00778065
0.00826988
0.0165165
0.0405127
0.0759456
0.117928
0.163781
0.212232
0.262596
0.314379
0.367083
0.420036
0.472106
0.521674
0.567148
0.609005
0.648009
0.775851
1.59623
1.63621
0.727849
0.566287
0.461966
0.424333
0.405208
0.38764
0.360375
0.327461
0.287955
0.244759
0.199901
0.155134
0.111887
0.0718163
0.0376637
0.0137235
0.00280663
0.00104345
0.00102644
0.00102641
0.00104494
0.00300401
0.0146333
0.039813
0.0756038
0.117731
0.163655
0.212144
0.262529
0.314321
0.367029
0.419983
0.472051
0.521615
0.567074
0.608934
0.64807
0.775896
1.59619
1.39615
0.535764
0.439784
0.390112
0.385418
0.388709
0.377765
0.354489
0.324186
0.285954
0.243499
0.199034
0.154486
0.111355
0.0713645
0.0373094
0.0134883
0.00255017
0.000181976
5.60736e-05
5.60093e-05
0.000204051
0.00282461
0.0145997
0.0398039
0.0756024
0.117733
0.163658
0.212148
0.262532
0.314323
0.36703
0.419983
0.472051
0.521614
0.567071
0.608931
0.648076
0.775899
1.59619
)
;

boundaryField
{
    inlet
    {
        type            calculated;
        value           uniform 0;
    }
    outlet
    {
        type            calculated;
        value           nonuniform List<scalar> 
165
(
1.39615
1.63621
1.64344
1.63851
1.62506
1.61624
1.62894
1.63414
1.64375
1.65206
1.66369
1.66917
1.68117
1.68108
1.69291
1.68568
1.68495
1.64644
1.69185
2.29624
2.29624
1.695
1.64853
1.68654
1.68725
1.69429
1.68113
1.68033
1.66616
1.66062
1.64763
1.63797
1.62632
1.61612
1.60809
1.60374
1.60243
1.60227
1.60226
1.60226
1.60226
1.60226
1.60227
1.60243
1.60374
1.60809
1.61612
1.62632
1.63797
1.64763
1.66062
1.66616
1.68033
1.68113
1.69429
1.68725
1.68654
1.64853
1.69501
2.29624
1.59619
1.59619
1.59623
1.59677
1.59941
1.60561
1.61497
1.62553
1.63738
1.64629
1.65945
1.66438
1.67853
1.67903
1.69219
1.68548
1.68508
1.64666
1.69188
2.29624
1.59619
1.59619
1.59619
1.59619
1.59619
2.29624
1.69188
1.64666
1.68508
1.68548
1.69219
1.67903
1.67853
1.66438
1.65945
1.64629
1.63738
1.62553
1.61497
1.60561
1.59941
1.59677
1.59623
1.59619
1.59619
2.29624
1.695
1.64853
1.68654
1.68725
1.69429
1.68113
1.68033
1.66616
1.66062
1.64763
1.63797
1.62632
1.61612
1.60809
1.60374
1.60243
1.60227
1.60226
1.60226
1.60226
1.60226
1.60227
1.60243
1.60374
1.60809
1.61612
1.62632
1.63797
1.64763
1.66062
1.66616
1.68033
1.68113
1.69429
1.68725
1.68654
1.64853
1.69501
2.29624
2.29624
1.69185
1.64644
1.68495
1.68568
1.69291
1.68108
1.68117
1.66917
1.66369
1.65206
1.64375
1.63414
1.62894
1.61624
1.62506
1.63851
1.64344
1.63621
1.39615
)
;
    }
    obstacle
    {
        type            calculated;
        value           nonuniform List<scalar> 
40
(
0.137013
0.0487087
0.0497974
0.0499401
0.0503815
0.0516248
0.0541609
0.0571665
0.0597926
0.0548965
0.137013
0.0487087
0.0497974
0.0499401
0.0503815
0.0516248
0.0541609
0.0571665
0.0597926
0.0548965
0.0644446
0.0866472
0.112148
0.15039
0.238543
0.0644446
0.0866472
0.112148
0.15039
0.238543
0.287367
0.245748
0.22762
0.227701
0.321805
0.287367
0.245748
0.22762
0.227701
0.321805
)
;
    }
    empty
    {
        type            empty;
    }
}


// ************************************************************************* //
