/*--------------------------------*- C++ -*----------------------------------*\
| =========                 |                                                 |
| \\      /  F ield         | OpenFOAM: The Open Source CFD Toolbox           |
|  \\    /   O peration     | Version:  v1912                                 |
|   \\  /    A nd           | Website:  www.openfoam.com                      |
|    \\/     M anipulation  |                                                 |
\*---------------------------------------------------------------------------*/
FoamFile
{
    version     2.0;
    format      ascii;
    class       volScalarField;
    location    "4.66";
    object      p;
}
// * * * * * * * * * * * * * * * * * * * * * * * * * * * * * * * * * * * * * //

dimensions      [1 -1 -2 0 0 0 0];


internalField   nonuniform List<scalar> 
1900
(
34740.1
12448.9
10613.7
10482.6
10327.4
10197.1
10060.2
9902.99
9756.1
9563.66
34740
12448.8
10613.8
10482.7
10327.9
10198.4
10062.8
9907.37
9732.98
9528.89
34739.9
12448.8
10613.8
10482.9
10328.3
10198.7
10062
9903.99
9724.68
9518.66
34740
12448.8
10613.8
10482.7
10327.9
10198.4
10062.8
9907.37
9732.98
9528.89
34740.1
12448.9
10613.7
10482.6
10327.4
10197.1
10060.2
9902.99
9756.1
9563.66
9529.11
9335.41
9173.29
8926.19
8963.54
9374.88
9197.69
9027.95
8800.53
8506.15
9364.92
9187.04
9015.78
8798.09
8569.56
9374.88
9197.69
9027.95
8800.53
8506.15
9529.11
9335.41
9173.29
8926.19
8963.54
6402.63
5826.87
5273.82
4679.48
4067.81
6702.57
5937.17
5334.76
4725.4
4110.38
6726.63
5900.82
5305.43
4697.13
4083.64
6702.57
5937.17
5334.76
4725.4
4110.38
6402.63
5826.87
5273.82
4679.48
4067.81
3088.34
1902.6
2141.7
2343.86
2207.57
2020.62
1876.67
1747.33
1614.63
1494.04
1396.75
1339.36
1305.48
1281.78
1262.34
1245.83
1231.97
1220.5
1211.11
1203.29
1196.99
1192.03
1188.12
1185.31
1183.47
1182.48
1182.13
1182.23
1182.64
1183.81
1185.51
1190.37
1196.47
1208.06
1219.4
1236.78
1252.62
1273.63
1483.07
5226.91
3111.97
1953.14
2160.47
2383.7
2237.68
2031.87
1880.31
1749.51
1615.58
1495.79
1396.96
1339.38
1305.48
1281.79
1262.36
1245.83
1231.97
1220.49
1211.09
1203.27
1196.97
1192
1188.09
1185.28
1183.44
1182.45
1182.1
1182.2
1182.6
1183.77
1185.47
1190.33
1196.44
1208.08
1219.44
1236.92
1252.7
1273.94
1483.12
5229.81
3136.28
2103.88
2317.87
2456.03
2260.61
2036.34
1881.78
1750.68
1615.99
1496.2
1397.08
1339.4
1305.48
1281.8
1262.37
1245.84
1231.97
1220.49
1211.09
1203.27
1196.97
1192
1188.09
1185.28
1183.44
1182.44
1182.09
1182.19
1182.6
1183.76
1185.47
1190.35
1196.48
1208.18
1219.64
1237.31
1253.33
1275.08
1484.25
5293.51
3111.97
1953.14
2160.47
2383.7
2237.68
2031.87
1880.31
1749.51
1615.58
1495.79
1396.96
1339.38
1305.48
1281.79
1262.36
1245.83
1231.97
1220.49
1211.09
1203.27
1196.97
1192
1188.09
1185.28
1183.44
1182.45
1182.1
1182.2
1182.6
1183.77
1185.47
1190.33
1196.44
1208.08
1219.44
1236.92
1252.7
1273.94
1483.12
5229.81
3088.34
1902.6
2141.7
2343.86
2207.57
2020.62
1876.67
1747.33
1614.63
1494.04
1396.75
1339.36
1305.48
1281.78
1262.34
1245.83
1231.97
1220.5
1211.11
1203.29
1196.99
1192.03
1188.12
1185.31
1183.47
1182.48
1182.13
1182.23
1182.64
1183.81
1185.51
1190.37
1196.47
1208.06
1219.4
1236.78
1252.62
1273.63
1483.07
5226.91
2670.01
1683.02
1932.32
2167.83
2121.82
1986.14
1860.77
1735.9
1606.27
1486.96
1394.54
1338.75
1305.14
1281.44
1262.05
1245.61
1231.83
1220.42
1211.06
1203.26
1196.98
1192.03
1188.13
1185.32
1183.48
1182.48
1182.12
1182.22
1182.61
1183.8
1185.49
1190.31
1196.37
1207.76
1219.11
1236.21
1252.55
1272.48
1484.94
5460.38
2733.46
1442.89
1712.45
1938.24
1957.8
1897.3
1811.74
1704.2
1584.88
1473.02
1388.88
1336.99
1304.26
1280.66
1261.39
1245.14
1231.54
1220.24
1210.96
1203.21
1196.97
1192.05
1188.16
1185.37
1183.52
1182.51
1182.14
1182.23
1182.63
1183.85
1185.53
1190.29
1196.25
1207.27
1218.54
1235.15
1251.96
1270.19
1477.03
5175.98
2947.93
1367.78
1613.75
1777.04
1834.46
1809.74
1749.14
1662.5
1554.63
1454.63
1380.85
1333.79
1302.63
1279.43
1260.45
1244.5
1231.16
1220.05
1210.88
1203.22
1197.04
1192.16
1188.3
1185.51
1183.66
1182.63
1182.23
1182.33
1182.71
1184
1185.67
1190.33
1196.16
1206.63
1217.75
1233.68
1250.73
1267.08
1468.59
5106.12
3181.45
1351.4
1542.58
1663.19
1740.51
1732.75
1688.29
1615.55
1519.71
1434.71
1371.12
1329.51
1300.27
1277.8
1259.3
1243.77
1230.76
1219.88
1210.88
1203.31
1197.21
1192.39
1188.57
1185.79
1183.92
1182.87
1182.44
1182.55
1182.93
1184.29
1185.97
1190.5
1196.19
1206.05
1216.97
1232.23
1249.13
1264.86
1466.1
5026.95
3402.15
1344.88
1509.66
1592.33
1671.25
1664.49
1629.05
1565.92
1484.46
1413.92
1361.03
1324.41
1297.34
1275.85
1258.01
1243.01
1230.39
1219.78
1210.97
1203.53
1197.54
1192.79
1189.01
1186.25
1184.36
1183.27
1182.82
1182.95
1183.32
1184.79
1186.47
1190.84
1196.31
1205.57
1216.2
1230.71
1247.02
1262.98
1460.79
4946.84
3572.9
1337.02
1476.61
1544.19
1617.17
1605.63
1574.18
1519.35
1452.63
1395.07
1351.32
1319.17
1294.18
1273.79
1256.71
1242.27
1230.06
1219.75
1211.14
1203.86
1198
1193.35
1189.62
1186.88
1184.99
1183.9
1183.43
1183.63
1184.05
1185.68
1187.44
1191.69
1197
1205.79
1216.29
1230.27
1246.1
1263.12
1459.49
4842.61
3893.92
1329.97
1451.78
1507.95
1568.19
1551.54
1522.35
1476.58
1423.64
1377.83
1341.76
1313.6
1290.68
1271.52
1255.29
1241.46
1229.68
1219.68
1211.32
1204.22
1198.51
1193.98
1190.32
1187.62
1185.72
1184.63
1184.16
1184.45
1184.92
1186.7
1188.47
1192.5
1197.5
1205.61
1215.77
1229.25
1244.32
1262.84
1455.37
4745.29
3799.23
1317.53
1427.62
1472.89
1522
1503.17
1477.37
1441.33
1400.29
1364.14
1333.97
1308.98
1287.79
1269.69
1254.16
1240.81
1229.39
1219.67
1211.53
1204.62
1199.07
1194.69
1191.14
1188.53
1186.72
1185.75
1185.39
1185.91
1186.6
1188.71
1190.68
1194.65
1199.52
1207.04
1216.8
1229.79
1244.36
1263.87
1451.35
4624.3
3803.26
1307.13
1406.7
1442.19
1478.72
1460.87
1439.05
1411.5
1379.88
1351.38
1326.01
1303.9
1284.47
1267.53
1252.78
1239.97
1228.93
1219.49
1211.58
1204.89
1199.55
1195.34
1191.91
1189.39
1187.66
1186.79
1186.48
1187.18
1187.98
1190.26
1192.26
1195.99
1200.47
1207.34
1216.59
1229.23
1243.15
1264.05
1446.05
4518.7
3750.66
1296.66
1385.11
1411.23
1437.33
1423.32
1406.86
1387.19
1363.46
1341.2
1319.8
1300.24
1282.45
1266.61
1252.54
1240.14
1229.34
1220.1
1212.38
1205.87
1200.73
1196.72
1193.47
1191.12
1189.56
1188.89
1188.71
1189.67
1190.58
1192.99
1194.95
1198.38
1202.29
1208.36
1217.03
1229.48
1243.2
1265.33
1436.99
4379.07
3682.84
1286.51
1365.78
1384.25
1401.72
1392.61
1380.95
1367.33
1349.52
1332.06
1313.89
1296.73
1280.6
1265.79
1252.32
1240.33
1229.87
1220.91
1213.46
1207.17
1202.27
1198.47
1195.37
1193.15
1191.67
1191.11
1190.95
1192.09
1192.99
1195.38
1197.14
1200.1
1203.18
1208.13
1215.52
1227.37
1240.59
1264.08
1424.41
4248.42
3583.72
1274.68
1346.23
1359.01
1370.72
1366.95
1360.25
1351.57
1338.61
1325.14
1309.84
1295.12
1280.49
1266.85
1254.26
1242.99
1233.14
1224.71
1217.71
1211.76
1207.12
1203.5
1200.46
1198.22
1196.64
1195.96
1195.6
1196.67
1197.31
1199.42
1200.72
1203.06
1205.09
1208.89
1214.95
1226.44
1239.32
1262.54
1401.36
4076.89
3461.6
1263.59
1329.34
1338.45
1347.23
1347.2
1344.34
1339.21
1330.19
1320.39
1307.8
1295.22
1282.01
1269.46
1257.57
1246.9
1237.56
1229.61
1223.03
1217.41
1213.04
1209.62
1206.67
1204.44
1202.77
1202
1201.43
1202.43
1202.76
1204.44
1205.05
1206.4
1206.84
1208.87
1212.7
1223.12
1235.44
1258.24
1371.84
3898.35
3330.03
1251.9
1311.19
1318.19
1327.65
1330.74
1332.94
1330.67
1325.38
1318.37
1307.98
1297.8
1286.24
1275.08
1264.3
1254.65
1246.26
1239.19
1233.36
1228.25
1224.15
1220.75
1217.57
1214.97
1212.8
1211.56
1210.44
1211.02
1210.75
1211.6
1211.14
1211.44
1210.24
1210.68
1212.45
1221.92
1233.74
1253.38
1334.23
3688.39
3175.9
1244.65
1300.45
1306.45
1318.23
1322.1
1328.45
1327.9
1325.13
1320.59
1312.43
1304.1
1293.35
1282.94
1272.62
1263.5
1255.64
1249.08
1243.72
1238.98
1235.22
1232.08
1229.03
1226.46
1224.19
1222.9
1221.56
1222.08
1221.59
1222.05
1220.63
1220.18
1217.1
1215.42
1214.42
1222.11
1234.46
1251.86
1303.88
3478.85
2999.55
1246.42
1298.74
1304.06
1316.98
1321.13
1330.93
1332.97
1330.99
1328.02
1320.77
1313.9
1303.76
1294.35
1284.98
1276.95
1270.15
1264.61
1260.12
1255.91
1252.32
1249.01
1245.51
1242.41
1239.52
1237.72
1235.78
1235.97
1235.2
1235.41
1233.36
1232.81
1228.96
1226.5
1224.74
1231.29
1244.67
1260.28
1288.74
3251.47
2921.29
1266.15
1313.18
1316.64
1325.75
1329.88
1341.56
1343.22
1343.22
1341.43
1335.02
1328.31
1318.17
1309.33
1300.39
1292.95
1286.57
1281.18
1276.7
1272.59
1269.52
1266.97
1263.93
1260.85
1257.44
1255.15
1252.37
1252.07
1250.65
1250.65
1247.95
1247.18
1242.52
1239.03
1236.69
1243.61
1259.73
1278.43
1297.76
3123.91
2814.97
1302.15
1345.48
1345.62
1347.1
1353.07
1364.31
1365.43
1369.51
1364.91
1357.63
1348.42
1336.77
1326.62
1316.6
1309.15
1303.67
1299.94
1297.37
1294.21
1290.89
1287.39
1283.19
1279.78
1276.55
1275.34
1273.94
1274.62
1274.51
1275.59
1274.12
1273.5
1269.38
1263.83
1260.26
1265.63
1282.25
1304.12
1320.24
2922.56
5454.98
1537.6
1435.93
1427.14
1441.19
1477.33
1516.31
1546.3
1572.37
1580.87
1583.13
1577.36
1568.83
1558.57
1548.37
1538.6
1530.97
1521.37
1516.89
1509.16
1506.11
1507.85
1504.88
1507.77
1503.99
1504.69
1501.12
1498.22
1494.15
1486.62
1476.87
1458.22
1435.5
1397.47
1361.06
1334.45
1332.99
1344.54
1505.22
5314.32
47704.7
5801.68
3441.48
3658.71
3801.33
4038.16
4218.64
4416.42
4573.94
4696.28
4806.22
4890.14
4967.06
5036.46
5103.73
5160.44
5214.53
5261.91
5275.69
5279.7
5273.4
5246.91
5231.7
5137.89
5068.44
4956.42
4856.38
4726.42
4610.46
4453.75
4310.32
4118.33
3929.01
3701.02
3480.48
3239.45
3110.18
2903.17
5165.41
43284.1
47704.7
5801.68
3441.48
3658.71
3801.33
4038.16
4218.64
4416.42
4573.94
4696.28
4806.22
4890.14
4967.06
5036.46
5103.73
5160.44
5214.53
5261.91
5275.69
5279.7
5273.4
5246.91
5231.7
5137.89
5068.44
4956.42
4856.38
4726.42
4610.46
4453.75
4310.32
4118.33
3929.01
3701.02
3480.48
3239.45
3110.18
2903.17
5165.41
43284.1
5454.98
1537.6
1435.93
1427.14
1441.19
1477.33
1516.31
1546.3
1572.37
1580.87
1583.13
1577.36
1568.83
1558.57
1548.37
1538.6
1530.97
1521.37
1516.89
1509.16
1506.11
1507.85
1504.88
1507.77
1503.99
1504.69
1501.12
1498.22
1494.15
1486.62
1476.87
1458.22
1435.5
1397.47
1361.06
1334.45
1332.99
1344.54
1505.22
5314.32
2814.97
1302.15
1345.48
1345.62
1347.1
1353.07
1364.31
1365.43
1369.51
1364.91
1357.63
1348.42
1336.77
1326.62
1316.6
1309.15
1303.67
1299.94
1297.37
1294.21
1290.89
1287.39
1283.19
1279.78
1276.55
1275.34
1273.94
1274.62
1274.51
1275.59
1274.12
1273.5
1269.38
1263.83
1260.26
1265.63
1282.25
1304.12
1320.24
2922.56
2921.29
1266.15
1313.18
1316.64
1325.75
1329.88
1341.56
1343.22
1343.22
1341.43
1335.02
1328.31
1318.17
1309.33
1300.39
1292.95
1286.57
1281.18
1276.7
1272.59
1269.52
1266.97
1263.93
1260.85
1257.44
1255.15
1252.37
1252.07
1250.65
1250.65
1247.95
1247.18
1242.52
1239.03
1236.69
1243.61
1259.73
1278.43
1297.76
3123.91
2999.55
1246.42
1298.74
1304.06
1316.98
1321.13
1330.93
1332.97
1330.99
1328.02
1320.77
1313.9
1303.76
1294.35
1284.98
1276.95
1270.15
1264.61
1260.12
1255.91
1252.32
1249.01
1245.51
1242.41
1239.52
1237.72
1235.78
1235.97
1235.2
1235.41
1233.36
1232.81
1228.96
1226.5
1224.74
1231.29
1244.67
1260.28
1288.74
3251.47
3175.9
1244.65
1300.45
1306.45
1318.23
1322.1
1328.45
1327.9
1325.13
1320.59
1312.43
1304.1
1293.35
1282.94
1272.62
1263.5
1255.64
1249.08
1243.72
1238.98
1235.22
1232.08
1229.03
1226.46
1224.19
1222.9
1221.56
1222.08
1221.59
1222.05
1220.63
1220.18
1217.1
1215.42
1214.42
1222.11
1234.46
1251.86
1303.88
3478.85
3330.03
1251.9
1311.19
1318.19
1327.65
1330.74
1332.94
1330.67
1325.38
1318.37
1307.98
1297.8
1286.24
1275.08
1264.3
1254.65
1246.26
1239.19
1233.36
1228.25
1224.15
1220.75
1217.57
1214.97
1212.8
1211.56
1210.44
1211.02
1210.75
1211.6
1211.14
1211.44
1210.24
1210.68
1212.45
1221.92
1233.74
1253.38
1334.23
3688.39
3461.6
1263.59
1329.34
1338.45
1347.23
1347.2
1344.34
1339.21
1330.19
1320.39
1307.8
1295.22
1282.01
1269.46
1257.57
1246.9
1237.56
1229.61
1223.03
1217.41
1213.04
1209.62
1206.67
1204.44
1202.77
1202
1201.43
1202.43
1202.76
1204.44
1205.05
1206.4
1206.84
1208.87
1212.7
1223.12
1235.44
1258.24
1371.84
3898.35
3583.72
1274.68
1346.23
1359.01
1370.72
1366.95
1360.25
1351.57
1338.61
1325.14
1309.84
1295.12
1280.49
1266.85
1254.26
1242.99
1233.14
1224.71
1217.71
1211.76
1207.12
1203.5
1200.46
1198.22
1196.64
1195.96
1195.6
1196.67
1197.31
1199.42
1200.72
1203.06
1205.09
1208.89
1214.95
1226.44
1239.32
1262.54
1401.36
4076.89
3682.84
1286.51
1365.78
1384.25
1401.72
1392.61
1380.95
1367.33
1349.52
1332.06
1313.89
1296.73
1280.6
1265.79
1252.32
1240.33
1229.87
1220.91
1213.46
1207.17
1202.27
1198.47
1195.37
1193.15
1191.67
1191.11
1190.95
1192.09
1192.99
1195.38
1197.14
1200.1
1203.18
1208.13
1215.52
1227.37
1240.59
1264.08
1424.41
4248.42
3750.66
1296.66
1385.11
1411.23
1437.33
1423.32
1406.86
1387.19
1363.46
1341.2
1319.8
1300.24
1282.45
1266.61
1252.54
1240.14
1229.34
1220.1
1212.38
1205.87
1200.73
1196.72
1193.47
1191.12
1189.56
1188.89
1188.71
1189.67
1190.58
1192.99
1194.95
1198.38
1202.29
1208.36
1217.03
1229.48
1243.2
1265.33
1436.99
4379.07
3803.26
1307.13
1406.7
1442.19
1478.72
1460.87
1439.05
1411.5
1379.88
1351.38
1326.01
1303.9
1284.47
1267.53
1252.78
1239.97
1228.93
1219.49
1211.58
1204.89
1199.55
1195.34
1191.91
1189.39
1187.66
1186.79
1186.48
1187.18
1187.98
1190.26
1192.26
1195.99
1200.47
1207.34
1216.59
1229.23
1243.15
1264.05
1446.05
4518.7
3799.23
1317.53
1427.62
1472.89
1522
1503.17
1477.37
1441.33
1400.29
1364.14
1333.97
1308.98
1287.79
1269.69
1254.16
1240.81
1229.39
1219.67
1211.53
1204.62
1199.07
1194.69
1191.14
1188.53
1186.72
1185.75
1185.39
1185.91
1186.6
1188.71
1190.68
1194.65
1199.52
1207.04
1216.8
1229.79
1244.36
1263.87
1451.35
4624.3
3893.92
1329.97
1451.78
1507.95
1568.19
1551.54
1522.35
1476.58
1423.64
1377.83
1341.76
1313.6
1290.68
1271.52
1255.29
1241.46
1229.68
1219.68
1211.32
1204.22
1198.51
1193.98
1190.32
1187.62
1185.72
1184.63
1184.16
1184.45
1184.92
1186.7
1188.47
1192.5
1197.5
1205.61
1215.77
1229.25
1244.32
1262.84
1455.37
4745.29
3572.9
1337.02
1476.61
1544.19
1617.17
1605.63
1574.18
1519.35
1452.63
1395.07
1351.32
1319.17
1294.18
1273.79
1256.71
1242.27
1230.06
1219.75
1211.14
1203.86
1198
1193.35
1189.62
1186.88
1184.99
1183.9
1183.43
1183.63
1184.05
1185.68
1187.44
1191.69
1197
1205.79
1216.29
1230.27
1246.1
1263.12
1459.49
4842.61
3402.15
1344.88
1509.66
1592.33
1671.25
1664.49
1629.05
1565.92
1484.46
1413.92
1361.03
1324.41
1297.34
1275.85
1258.01
1243.01
1230.39
1219.78
1210.97
1203.53
1197.54
1192.79
1189.01
1186.25
1184.36
1183.27
1182.82
1182.95
1183.32
1184.79
1186.47
1190.84
1196.31
1205.57
1216.2
1230.71
1247.02
1262.98
1460.79
4946.84
3181.45
1351.4
1542.58
1663.19
1740.51
1732.75
1688.29
1615.55
1519.71
1434.71
1371.12
1329.51
1300.27
1277.8
1259.3
1243.77
1230.76
1219.88
1210.88
1203.31
1197.21
1192.39
1188.57
1185.79
1183.92
1182.87
1182.44
1182.55
1182.93
1184.29
1185.97
1190.5
1196.19
1206.05
1216.97
1232.23
1249.13
1264.86
1466.1
5026.95
2947.93
1367.78
1613.75
1777.04
1834.46
1809.74
1749.14
1662.5
1554.63
1454.63
1380.85
1333.79
1302.63
1279.43
1260.45
1244.5
1231.16
1220.05
1210.88
1203.22
1197.04
1192.16
1188.3
1185.51
1183.66
1182.63
1182.23
1182.33
1182.71
1184
1185.67
1190.33
1196.16
1206.63
1217.75
1233.68
1250.73
1267.08
1468.59
5106.12
2733.46
1442.89
1712.45
1938.24
1957.8
1897.3
1811.74
1704.2
1584.88
1473.02
1388.88
1336.99
1304.26
1280.66
1261.39
1245.14
1231.54
1220.24
1210.96
1203.21
1196.97
1192.05
1188.16
1185.37
1183.52
1182.51
1182.14
1182.23
1182.63
1183.85
1185.53
1190.29
1196.25
1207.27
1218.54
1235.15
1251.96
1270.19
1477.03
5175.98
2670.01
1683.02
1932.32
2167.83
2121.82
1986.14
1860.77
1735.9
1606.27
1486.96
1394.54
1338.75
1305.14
1281.44
1262.05
1245.61
1231.83
1220.42
1211.06
1203.26
1196.98
1192.03
1188.13
1185.32
1183.48
1182.48
1182.12
1182.22
1182.61
1183.8
1185.49
1190.31
1196.37
1207.76
1219.11
1236.21
1252.55
1272.48
1484.94
5460.38
)
;

boundaryField
{
    inlet
    {
        type            fixedValue;
        value           uniform 10000;
    }
    outlet
    {
        type            fixedValue;
        value           uniform 1000;
    }
    obstacle
    {
        type            zeroGradient;
    }
    empty
    {
        type            empty;
    }
}


// ************************************************************************* //
