/*--------------------------------*- C++ -*----------------------------------*\
| =========                 |                                                 |
| \\      /  F ield         | OpenFOAM: The Open Source CFD Toolbox           |
|  \\    /   O peration     | Version:  v1912                                 |
|   \\  /    A nd           | Website:  www.openfoam.com                      |
|    \\/     M anipulation  |                                                 |
\*---------------------------------------------------------------------------*/
FoamFile
{
    version     2.0;
    format      ascii;
    class       volScalarField;
    location    "0.1";
    object      Ma;
}
// * * * * * * * * * * * * * * * * * * * * * * * * * * * * * * * * * * * * * //

dimensions      [0 0 0 0 0 0 0];


internalField   nonuniform List<scalar> 
1900
(
0
6.34602e-17
1.81923e-18
0
6.81359e-17
9.0087e-18
7.70177e-17
0
1.21807e-17
1.14829e-16
0
1.01735e-17
6.4338e-17
0
2.52764e-19
2.87111e-19
4.98648e-17
6.33144e-17
0
1.17367e-17
0
4.99465e-17
4.99465e-17
0
1.00475e-17
1.08909e-17
7.71446e-17
0
0
3.48952e-19
0
0
0
0
4.98445e-17
8.05954e-17
0
6.33144e-17
0
1.14321e-17
0
0
1.26756e-16
0
1.26756e-16
1.26882e-19
0
0
0
6.34412e-17
4.97249e-16
5.26181e-14
4.19301e-13
6.55417e-12
7.28653e-10
1.89204e-16
1.81063e-14
1.31657e-13
1.59266e-11
6.39965e-10
2.35727e-17
4.18463e-16
2.62511e-13
2.77045e-11
7.14556e-10
1.1874e-16
1.47272e-14
1.2779e-13
1.59161e-11
6.39967e-10
3.46256e-16
5.19788e-14
4.19947e-13
6.55267e-12
7.28652e-10
9.55614e-09
1.02142e-07
0.000125218
0.00359453
0.0184744
5.27806e-09
5.18651e-07
0.000110899
0.00227393
0.00815983
3.87853e-09
1.16911e-06
0.000110916
0.00081077
0.000563904
5.27808e-09
5.18651e-07
0.000110899
0.00227393
0.00815983
9.55615e-09
1.02142e-07
0.000125218
0.00359453
0.0184744
0.0982507
0.0248731
0.00425835
0.000109608
2.5536e-07
3.49318e-11
9.72326e-16
9.04372e-17
6.15958e-17
2.36283e-17
1.06094e-16
1.19582e-16
5.00653e-17
1.09299e-16
6.48219e-17
1.17969e-16
2.12136e-17
6.77206e-17
1.4427e-16
8.80224e-17
5.76398e-17
1.46212e-16
8.10256e-17
2.84171e-16
5.08577e-17
1.34192e-16
6.20366e-17
9.04819e-17
2.51813e-16
2.61011e-16
1.02363e-16
4.10336e-17
7.5676e-17
2.08935e-15
7.91208e-11
5.4917e-07
0.000226525
0.0087736
0.0527547
0.390655
0.0107453
0.00822301
0.00185687
5.26543e-05
1.26391e-07
1.78897e-11
4.53464e-16
7.71204e-17
1.68639e-16
8.63798e-17
8.62703e-18
1.68936e-16
6.3823e-17
3.01428e-17
4.18619e-18
8.76261e-17
3.66623e-20
2.58672e-17
2.50659e-16
1.03536e-16
9.20136e-19
7.55525e-17
6.69101e-17
2.64339e-16
1.52414e-16
1.45725e-16
2.01083e-16
1.2617e-16
1.21467e-16
3.27588e-17
1.27062e-17
1.68138e-16
1.16339e-16
2.0574e-15
7.91275e-11
5.4917e-07
0.000226525
0.0087736
0.0527547
0.390655
3.06311e-05
0.000113564
0.000282877
2.22257e-05
1.0722e-07
2.3806e-11
5.85769e-16
3.09517e-17
3.86811e-18
9.05945e-17
7.89991e-17
1.77291e-16
5.37574e-17
1.33143e-16
6.74494e-17
9.67628e-17
1.46094e-18
8.4718e-18
2.17679e-16
1.46805e-16
6.5973e-18
2.46488e-16
1.59414e-16
1.0168e-16
2.49253e-16
6.54505e-17
1.39185e-16
2.86474e-16
4.23527e-19
3.02903e-16
1.35279e-17
3.09956e-17
3.00696e-16
2.03104e-15
7.9127e-11
5.4917e-07
0.000226525
0.0087736
0.0527547
0.390655
0.0107453
0.00822301
0.00185687
5.26543e-05
1.26391e-07
1.7894e-11
5.08899e-16
9.10304e-17
1.66146e-16
1.3508e-16
1.52511e-16
5.82862e-17
9.08781e-17
2.3913e-16
8.28972e-17
4.37129e-17
1.31604e-17
1.45865e-17
2.72731e-17
2.36464e-17
1.64384e-17
6.2828e-17
2.84449e-17
9.22863e-17
9.20837e-17
1.73161e-16
9.99185e-17
1.07196e-16
9.80582e-17
1.64279e-16
2.89882e-17
1.32781e-16
1.56419e-16
1.92493e-15
7.91245e-11
5.4917e-07
0.000226525
0.0087736
0.0527547
0.390655
0.0982507
0.0248731
0.00425835
0.000109608
2.5536e-07
3.49363e-11
9.47862e-16
1.56689e-16
8.15554e-17
6.96685e-17
8.25718e-17
3.35325e-18
7.52628e-17
1.05677e-16
1.27072e-16
2.53839e-21
3.28769e-17
1.11794e-20
1.42108e-16
7.88978e-17
2.71694e-28
6.48097e-18
2.0901e-16
1.38581e-16
3.33838e-18
5.83772e-17
2.67001e-17
2.5795e-16
7.12155e-17
9.486e-17
1.33803e-16
2.2096e-17
2.25159e-16
1.97106e-15
7.91188e-11
5.4917e-07
0.000226525
0.0087736
0.0527547
0.390655
0.354426
0.0471107
0.00758714
0.000190032
4.48725e-07
6.34181e-11
1.65036e-15
1.2751e-16
3.14094e-17
1.02193e-16
5.91973e-18
4.72682e-17
2.48292e-17
9.09931e-17
1.50481e-17
2.58061e-20
4.03e-23
7.26537e-20
2.6604e-17
2.20075e-17
3.87557e-27
5.13986e-32
6.72064e-17
2.76934e-17
9.00588e-18
8.4517e-18
7.01211e-17
9.64568e-17
6.95046e-17
3.03955e-17
2.20771e-17
1.07149e-17
1.0962e-16
1.97195e-15
7.91233e-11
5.4917e-07
0.000226525
0.0087736
0.0527547
0.390655
0.390354
0.0526625
0.0087444
0.000225397
5.45512e-07
7.84865e-11
2.03182e-15
1.00071e-16
8.29459e-17
6.3967e-17
1.21582e-29
7.01992e-17
4.28675e-17
1.80849e-17
9.61788e-18
6.95079e-17
1.39288e-19
4.90074e-18
8.03268e-27
6.95743e-17
1.16911e-22
1.45835e-30
3.94215e-22
4.79276e-17
6.6543e-17
4.68641e-17
4.89555e-17
6.96229e-20
2.40619e-41
5.79141e-17
6.61886e-27
6.81491e-17
7.32654e-17
2.02576e-15
7.91306e-11
5.4917e-07
0.000226525
0.0087736
0.0527547
0.390655
0.390655
0.0527546
0.00877354
0.000226522
5.49159e-07
7.91171e-11
2.05488e-15
1.96386e-17
1.14216e-17
8.57714e-33
1.74011e-25
4.28925e-39
4.93942e-17
1.01986e-16
8.26322e-17
2.14609e-17
9.24871e-17
4.51795e-17
2.38975e-22
2.95714e-22
1.2614e-19
7.80948e-26
3.47523e-17
1.63926e-19
4.61739e-17
4.65221e-17
4.95846e-17
4.72138e-18
9.68548e-40
1.7018e-22
2.11932e-22
7.41125e-17
3.08523e-17
2.03335e-15
7.91243e-11
5.4917e-07
0.000226525
0.0087736
0.0527547
0.390655
0.390655
0.0527547
0.0087736
0.000226525
5.4917e-07
7.91197e-11
2.03991e-15
3.51661e-20
8.28595e-19
2.63705e-31
7.69276e-23
3.4465e-37
3.62925e-17
2.04793e-19
1.12442e-17
6.95046e-17
9.24871e-17
3.47644e-17
2.31893e-19
2.38679e-19
7.65587e-18
3.35871e-22
3.00929e-19
9.72861e-18
1.51611e-19
6.67891e-17
3.02328e-17
3.0187e-17
3.44994e-38
1.58262e-19
2.28282e-19
4.61739e-17
9.76408e-17
2.07885e-15
7.91271e-11
5.4917e-07
0.000226525
0.0087736
0.0527547
0.390655
0.390655
0.0527547
0.0087736
0.000226525
5.4917e-07
7.91226e-11
2.04366e-15
8.26865e-20
3.45351e-17
1.66041e-26
4.61739e-17
2.72827e-35
5.79141e-17
9.22462e-18
6.57929e-17
3.4822e-17
2.67879e-19
8.41747e-18
1.14076e-17
1.01189e-17
4.52504e-17
6.00369e-20
3.50528e-17
7.4068e-17
9.19906e-18
9.32203e-17
1.01673e-17
9.80829e-18
1.13089e-36
7.45826e-18
1.26772e-17
4.64117e-19
2.71673e-18
2.05273e-15
7.91193e-11
5.4917e-07
0.000226525
0.0087736
0.0527547
0.390655
0.390655
0.0527547
0.0087736
0.000226525
5.4917e-07
7.91299e-11
2.02541e-15
4.61742e-17
8.30978e-17
3.71782e-22
4.61739e-17
1.02368e-31
3.4822e-17
5.68068e-17
7.5632e-17
3.48226e-17
1.82039e-17
4.31074e-17
5.25419e-17
5.54848e-17
5.25094e-17
3.48282e-17
2.897e-17
4.61739e-17
5.99269e-17
1.03918e-16
4.85146e-17
5.86699e-17
7.21295e-32
3.21724e-17
6.59491e-17
3.59557e-17
9.53894e-18
2.02833e-15
7.91213e-11
5.4917e-07
0.000226525
0.0087736
0.0527547
0.390655
0.390655
0.0527547
0.0087736
0.000226525
5.4917e-07
7.91261e-11
2.02613e-15
4.62024e-17
5.92952e-17
2.82274e-19
2.75067e-19
6.95743e-17
6.37592e-36
6.95046e-17
9.07113e-17
9.91267e-17
1.05462e-16
2.7821e-18
4.65263e-18
3.4822e-17
2.0387e-22
3.52534e-17
3.51264e-17
1.15291e-22
3.4822e-17
4.91574e-18
4.89441e-18
3.47523e-17
4.15987e-27
1.27764e-37
7.89612e-18
5.41173e-17
5.43129e-17
2.0226e-15
7.91243e-11
5.4917e-07
0.000226525
0.0087736
0.0527547
0.390655
0.390655
0.0527547
0.0087736
0.000226525
5.4917e-07
7.9131e-11
1.96084e-15
1.44636e-17
3.50054e-17
1.19689e-17
1.5244e-17
4.30986e-28
8.43775e-32
1.44242e-19
1.90473e-17
4.53409e-20
2.00067e-17
9.24873e-17
5.79728e-17
1.22435e-22
3.69935e-20
3.20043e-17
4.52353e-17
1.38912e-19
8.2182e-38
4.7598e-17
4.82484e-17
3.90006e-18
2.47998e-23
2.99968e-36
1.04022e-16
4.85896e-17
5.75992e-18
2.08111e-15
7.91252e-11
5.4917e-07
0.000226525
0.0087736
0.0527547
0.390655
0.390655
0.0527547
0.0087736
0.000226525
5.4917e-07
7.91255e-11
2.04733e-15
7.69989e-17
4.22734e-17
5.34758e-17
8.65098e-17
6.95743e-17
3.87844e-29
9.41349e-18
9.85569e-17
1.09769e-16
1.01172e-16
8.64144e-17
6.12557e-23
1.45098e-19
3.48245e-17
6.55332e-18
1.30007e-22
9.33685e-18
8.26142e-33
3.5235e-17
3.4822e-17
9.61086e-17
4.17916e-19
3.4822e-17
1.01194e-16
5.75804e-17
4.57439e-17
2.0446e-15
7.91244e-11
5.4917e-07
0.000226525
0.0087736
0.0527547
0.390655
0.390655
0.0527547
0.0087736
0.000226525
5.4917e-07
7.91244e-11
2.04084e-15
1.40497e-26
1.97522e-34
5.30155e-17
1.1569e-16
6.3376e-18
1.39288e-19
5.94593e-17
3.36494e-17
8.42088e-18
1.61083e-17
4.87924e-20
6.96205e-20
8.87119e-18
3.53901e-17
5.91616e-17
1.47642e-19
5.91568e-17
3.37599e-28
4.66083e-17
3.48249e-17
3.07826e-17
3.48221e-17
2.65508e-33
3.14899e-17
6.95046e-17
5.3936e-19
2.01952e-15
7.91244e-11
5.4917e-07
0.000226525
0.0087736
0.0527547
0.390655
0.390655
0.0527547
0.0087736
0.000226525
5.4917e-07
7.91238e-11
2.05156e-15
1.69176e-25
2.42066e-32
9.32443e-29
6.11417e-17
1.84324e-23
1.39288e-19
8.10079e-17
3.98309e-17
1.08202e-16
7.72749e-17
5.00216e-18
4.62282e-18
4.78966e-17
1.04344e-16
1.01907e-17
9.39366e-18
1.02352e-17
3.03009e-25
6.50767e-18
3.49709e-18
6.96439e-17
3.48339e-17
3.4822e-17
2.97582e-18
6.97204e-17
2.01089e-17
2.07297e-15
7.91237e-11
5.4917e-07
0.000226525
0.0087736
0.0527547
0.390655
0.390655
0.0527547
0.0087736
0.000226525
5.4917e-07
7.91309e-11
2.01456e-15
9.20921e-23
1.90829e-29
1.1143e-17
1.16863e-16
1.1143e-17
1.97974e-25
3.16213e-17
4.73793e-17
6.97077e-17
6.60328e-21
3.2601e-17
2.90158e-17
6.83215e-17
2.75108e-17
8.6879e-17
5.86297e-17
5.79728e-17
1.40112e-23
5.79728e-17
1.84704e-17
3.47523e-17
9.5892e-18
2.1015e-30
4.17512e-17
4.10129e-17
5.08917e-18
2.07222e-15
7.91308e-11
5.4917e-07
0.000226525
0.0087736
0.0527547
0.390655
0.390655
0.0527547
0.0087736
0.000226525
5.4917e-07
7.91259e-11
2.03847e-15
5.93214e-21
8.6533e-25
3.31545e-24
3.99794e-17
2.9529e-17
4.17369e-25
6.95046e-17
1.94019e-17
5.44035e-18
7.76134e-19
7.96238e-20
2.12865e-22
7.50202e-17
2.00617e-17
7.50372e-17
6.80467e-17
5.70264e-23
2.59075e-17
9.42763e-24
6.384e-17
2.86318e-22
6.3833e-17
8.04846e-26
8.56376e-17
1.10794e-16
4.47544e-17
2.09856e-15
7.91311e-11
5.4917e-07
0.000226525
0.0087736
0.0527547
0.390655
0.390655
0.0527547
0.0087736
0.000226525
5.4917e-07
7.91232e-11
4.06619e-15
3.36687e-15
3.3966e-15
3.37655e-15
3.47341e-15
3.39709e-15
3.47628e-15
3.44027e-15
3.31848e-15
3.37423e-15
3.4696e-15
3.39152e-15
3.35558e-15
3.35405e-15
3.43336e-15
3.35404e-15
3.44987e-15
3.37265e-15
3.36457e-15
3.35461e-15
3.35433e-15
3.38769e-15
3.35537e-15
3.3709e-15
3.35475e-15
3.34486e-15
3.43034e-15
3.92345e-15
7.91234e-11
5.4917e-07
0.000226525
0.0087736
0.0527547
0.390655
0.390655
0.0527547
0.0087736
0.000226525
5.4917e-07
1.49943e-10
1.27361e-10
1.27356e-10
1.27348e-10
1.27351e-10
1.27347e-10
1.27348e-10
1.27356e-10
1.27354e-10
1.27348e-10
1.27348e-10
1.27351e-10
1.27348e-10
1.27347e-10
1.27347e-10
1.27347e-10
1.27347e-10
1.27352e-10
1.27348e-10
1.27347e-10
1.27347e-10
1.27347e-10
1.27352e-10
1.27348e-10
1.27355e-10
1.27348e-10
1.27348e-10
1.27353e-10
1.27348e-10
1.49946e-10
5.4917e-07
0.000226525
0.0087736
0.0527547
0.390655
0.390655
0.0527547
0.0087736
0.000226527
9.30132e-07
7.50705e-07
7.50705e-07
7.50705e-07
7.50705e-07
7.50705e-07
7.50705e-07
7.50705e-07
7.50705e-07
7.50705e-07
7.50705e-07
7.50705e-07
7.50705e-07
7.50705e-07
7.50705e-07
7.50705e-07
7.50705e-07
7.50705e-07
7.50705e-07
7.50705e-07
7.50705e-07
7.50705e-07
7.50705e-07
7.50705e-07
7.50705e-07
7.50705e-07
7.50705e-07
7.50705e-07
7.50705e-07
7.50705e-07
7.50705e-07
9.30132e-07
0.000226527
0.0087736
0.0527547
0.390655
0.390675
0.0527588
0.00877785
0.000354804
0.000273098
0.000273098
0.000273098
0.000273098
0.000273098
0.000273098
0.000273098
0.000273098
0.000273098
0.000273098
0.000273098
0.000273098
0.000273098
0.000273098
0.000273098
0.000273098
0.000273098
0.000273098
0.000273098
0.000273098
0.000273098
0.000273098
0.000273098
0.000273098
0.000273098
0.000273098
0.000273098
0.000273098
0.000273098
0.000273098
0.000273098
0.000273098
0.000354804
0.00877785
0.0527588
0.390675
0.392786
0.053948
0.0131319
0.00971954
0.0097169
0.0097169
0.0097169
0.0097169
0.0097169
0.0097169
0.0097169
0.0097169
0.0097169
0.0097169
0.0097169
0.0097169
0.0097169
0.0097169
0.0097169
0.0097169
0.0097169
0.0097169
0.0097169
0.0097169
0.0097169
0.0097169
0.0097169
0.0097169
0.0097169
0.0097169
0.0097169
0.0097169
0.0097169
0.0097169
0.0097169
0.0097169
0.00971954
0.0131319
0.053948
0.392786
0.392827
0.0764499
0.0569234
0.0559451
0.0559417
0.0559417
0.0559417
0.0559417
0.0559417
0.0559417
0.0559417
0.0559417
0.0559417
0.0559417
0.0559417
0.0559417
0.0559417
0.0559417
0.0559417
0.0559417
0.0559417
0.0559417
0.0559417
0.0559417
0.0559417
0.0559417
0.0559417
0.0559417
0.0559417
0.0559417
0.0559417
0.0559417
0.0559417
0.0559417
0.0559417
0.0559417
0.0559451
0.0569234
0.0764499
0.392827
0.563506
0.404495
0.404709
0.402748
0.40273
0.40273
0.40273
0.40273
0.40273
0.40273
0.40273
0.40273
0.40273
0.40273
0.40273
0.40273
0.40273
0.40273
0.40273
0.40273
0.40273
0.40273
0.40273
0.40273
0.40273
0.40273
0.40273
0.40273
0.40273
0.40273
0.40273
0.40273
0.40273
0.40273
0.40273
0.40273
0.402748
0.404709
0.404495
0.563506
0.563506
0.404495
0.404709
0.402748
0.40273
0.40273
0.40273
0.40273
0.40273
0.40273
0.40273
0.40273
0.40273
0.40273
0.40273
0.40273
0.40273
0.40273
0.40273
0.40273
0.40273
0.40273
0.40273
0.40273
0.40273
0.40273
0.40273
0.40273
0.40273
0.40273
0.40273
0.40273
0.40273
0.40273
0.40273
0.40273
0.402748
0.404709
0.404495
0.563506
0.392827
0.0764499
0.0569234
0.0559451
0.0559417
0.0559417
0.0559417
0.0559417
0.0559417
0.0559417
0.0559417
0.0559417
0.0559417
0.0559417
0.0559417
0.0559417
0.0559417
0.0559417
0.0559417
0.0559417
0.0559417
0.0559417
0.0559417
0.0559417
0.0559417
0.0559417
0.0559417
0.0559417
0.0559417
0.0559417
0.0559417
0.0559417
0.0559417
0.0559417
0.0559417
0.0559417
0.0559451
0.0569234
0.0764499
0.392827
0.392786
0.053948
0.0131319
0.00971954
0.0097169
0.0097169
0.0097169
0.0097169
0.0097169
0.0097169
0.0097169
0.0097169
0.0097169
0.0097169
0.0097169
0.0097169
0.0097169
0.0097169
0.0097169
0.0097169
0.0097169
0.0097169
0.0097169
0.0097169
0.0097169
0.0097169
0.0097169
0.0097169
0.0097169
0.0097169
0.0097169
0.0097169
0.0097169
0.0097169
0.0097169
0.0097169
0.00971954
0.0131319
0.053948
0.392786
0.390675
0.0527588
0.00877785
0.000354804
0.000273098
0.000273098
0.000273098
0.000273098
0.000273098
0.000273098
0.000273098
0.000273098
0.000273098
0.000273098
0.000273098
0.000273098
0.000273098
0.000273098
0.000273098
0.000273098
0.000273098
0.000273098
0.000273098
0.000273098
0.000273098
0.000273098
0.000273098
0.000273098
0.000273098
0.000273098
0.000273098
0.000273098
0.000273098
0.000273098
0.000273098
0.000273098
0.000354804
0.00877785
0.0527588
0.390675
0.390655
0.0527547
0.0087736
0.000226527
9.30132e-07
7.50705e-07
7.50705e-07
7.50705e-07
7.50705e-07
7.50705e-07
7.50705e-07
7.50705e-07
7.50705e-07
7.50705e-07
7.50705e-07
7.50705e-07
7.50705e-07
7.50705e-07
7.50705e-07
7.50705e-07
7.50705e-07
7.50705e-07
7.50705e-07
7.50705e-07
7.50705e-07
7.50705e-07
7.50705e-07
7.50705e-07
7.50705e-07
7.50705e-07
7.50705e-07
7.50705e-07
7.50705e-07
7.50705e-07
7.50705e-07
9.30132e-07
0.000226527
0.0087736
0.0527547
0.390655
0.390655
0.0527547
0.0087736
0.000226525
5.4917e-07
1.49948e-10
1.2735e-10
1.27348e-10
1.27355e-10
1.2735e-10
1.27351e-10
1.27359e-10
1.27353e-10
1.27347e-10
1.27349e-10
1.27347e-10
1.27348e-10
1.27348e-10
1.27349e-10
1.27347e-10
1.27349e-10
1.2735e-10
1.27354e-10
1.2735e-10
1.27351e-10
1.2736e-10
1.27352e-10
1.27354e-10
1.27352e-10
1.2736e-10
1.27351e-10
1.2735e-10
1.27353e-10
1.27355e-10
1.49951e-10
5.4917e-07
0.000226525
0.0087736
0.0527547
0.390655
0.390655
0.0527547
0.0087736
0.000226525
5.4917e-07
7.91232e-11
3.99241e-15
3.39166e-15
3.41847e-15
3.40496e-15
3.36986e-15
3.4257e-15
3.45464e-15
3.41269e-15
3.36937e-15
3.46215e-15
3.43042e-15
3.33323e-15
3.3794e-15
3.35523e-15
3.37975e-15
3.37603e-15
3.43762e-15
3.38016e-15
3.37634e-15
3.37473e-15
3.43024e-15
3.42822e-15
3.37775e-15
3.4658e-15
3.37989e-15
3.37916e-15
3.45488e-15
3.98683e-15
7.91203e-11
5.4917e-07
0.000226525
0.0087736
0.0527547
0.390655
0.390655
0.0527547
0.0087736
0.000226525
5.4917e-07
7.91253e-11
2.07029e-15
5.87512e-17
7.26404e-39
4.0672e-17
1.51607e-22
2.93061e-19
2.93062e-19
2.69864e-18
4.71026e-18
6.01745e-17
2.93062e-19
1.45283e-31
3.4822e-17
1.55384e-38
3.4822e-17
1.68397e-17
6.55955e-17
3.1598e-17
8.83498e-18
8.89432e-18
2.99872e-18
1.01547e-16
3.62149e-18
1.00368e-20
3.55171e-17
3.55172e-17
4.77675e-17
2.14162e-15
7.91255e-11
5.4917e-07
0.000226525
0.0087736
0.0527547
0.390655
0.390655
0.0527547
0.0087736
0.000226525
5.4917e-07
7.91262e-11
2.02332e-15
6.53375e-35
1.00854e-35
1.6093e-19
1.76579e-19
1.43419e-17
1.43419e-17
5.52148e-17
3.02716e-17
7.03475e-17
1.43419e-17
8.55687e-28
3.4822e-17
9.11401e-34
3.4822e-17
8.12709e-17
5.81474e-17
4.60922e-17
4.7586e-17
4.82572e-17
8.97496e-18
9.34819e-18
1.28876e-19
4.61779e-17
6.07472e-17
5.7844e-17
2.2494e-18
2.00157e-15
7.91298e-11
5.4917e-07
0.000226525
0.0087736
0.0527547
0.390655
0.390655
0.0527547
0.0087736
0.000226525
5.4917e-07
7.91232e-11
2.04363e-15
1.80328e-33
3.67736e-34
9.27935e-18
9.98124e-18
7.6889e-17
7.68891e-17
4.73295e-17
1.03491e-17
1.20435e-16
7.68891e-17
6.61256e-25
1.16729e-22
4.85955e-29
0
1.05687e-17
6.82149e-23
1.02269e-17
1.00039e-28
5.63134e-18
4.87499e-17
4.70183e-17
3.48724e-17
4.64612e-17
5.67158e-18
4.46384e-19
2.03735e-17
2.07881e-15
7.9122e-11
5.4917e-07
0.000226525
0.0087736
0.0527547
0.390655
0.390655
0.0527547
0.0087736
0.000226525
5.4917e-07
7.91244e-11
2.08678e-15
9.63524e-29
2.47669e-32
4.75179e-17
8.46358e-17
0
1.39288e-19
4.80728e-17
5.74855e-17
6.40028e-17
1.39288e-19
2.29825e-18
1.43975e-19
2.32791e-24
0
6.0548e-17
7.79825e-20
5.79255e-17
4.63947e-24
4.7916e-17
3.75985e-17
1.95501e-20
3.81004e-17
4.66173e-17
6.42816e-17
4.00787e-18
3.57447e-18
2.00192e-15
7.9124e-11
5.4917e-07
0.000226525
0.0087736
0.0527547
0.390655
0.390655
0.0527547
0.0087736
0.000226525
5.4917e-07
7.91255e-11
2.02675e-15
4.61991e-24
6.54653e-17
5.69372e-17
6.98464e-17
4.7915e-17
2.30629e-24
4.64642e-17
7.80409e-17
1.39315e-19
4.87507e-19
9.65961e-17
9.89569e-18
5.54628e-21
0
1.1501e-18
5.09874e-18
1.49803e-19
1.10776e-20
3.93043e-17
8.50093e-17
2.25964e-19
9.23946e-17
2.78983e-18
3.91927e-17
3.75264e-17
2.96194e-17
2.02461e-15
7.91245e-11
5.4917e-07
0.000226525
0.0087736
0.0527547
0.390655
0.390655
0.0527547
0.0087736
0.000226525
5.4917e-07
7.9131e-11
1.96097e-15
1.10346e-20
3.0713e-17
3.4822e-17
0
3.4822e-17
4.98279e-21
1.56299e-19
3.59058e-21
1.98209e-19
0
3.08528e-17
6.30228e-17
6.21511e-19
0
1.94118e-17
4.62231e-17
9.23065e-18
1.22642e-18
5.51547e-17
3.35553e-17
1.24822e-17
1.22655e-17
3.49776e-17
5.33982e-17
6.26472e-17
5.26075e-19
2.07673e-15
7.91252e-11
5.4917e-07
0.000226525
0.0087736
0.0527547
0.390655
0.390655
0.0527547
0.0087736
0.000226525
5.4917e-07
7.91252e-11
2.04923e-15
1.23867e-18
3.47523e-17
4.00113e-23
1.02655e-16
3.55184e-18
5.07254e-19
1.01185e-17
4.6174e-17
9.27359e-18
0
7.00201e-17
7.54448e-18
3.51967e-17
0
6.32421e-17
3.48106e-17
5.79141e-17
3.61885e-17
3.57483e-17
0
6.72174e-17
5.42134e-17
3.779e-17
3.53424e-17
6.79618e-17
4.55496e-18
2.00792e-15
7.91242e-11
5.4917e-07
0.000226525
0.0087736
0.0527547
0.390655
0.390655
0.0527547
0.0087736
0.000226525
5.4917e-07
7.91213e-11
2.01777e-15
4.72928e-17
4.65356e-24
4.61739e-17
5.29294e-18
0
3.50367e-17
6.59448e-17
4.61858e-17
5.83924e-17
1.39288e-19
3.35848e-17
6.22146e-17
4.53301e-17
0
4.53264e-17
5.45929e-17
0
5.91813e-17
4.78525e-17
0
6.03212e-17
9.24871e-17
7.67014e-17
4.43987e-17
3.95282e-18
3.33444e-17
2.02497e-15
7.91212e-11
5.4917e-07
0.000226525
0.0087736
0.0527547
0.390655
0.390655
0.0527547
0.0087736
0.000226525
5.4917e-07
7.91192e-11
2.00536e-15
7.4068e-17
1.11186e-20
4.61739e-17
0
0
1.87868e-17
3.02391e-17
9.30283e-18
5.95731e-19
1.39288e-19
4.54177e-19
0
1.2331e-20
0
0
4.62436e-17
0
0
2.80339e-27
0
0
9.25568e-17
0
8.42963e-17
7.46414e-17
4.24596e-17
2.02751e-15
7.91182e-11
5.4917e-07
0.000226525
0.0087736
0.0527547
0.390655
0.390655
0.0527547
0.0087736
0.000226525
5.4917e-07
7.91273e-11
2.0302e-15
0
1.23317e-18
1.66183e-19
0
0
6.7627e-17
3.70506e-17
5.79728e-17
6.96925e-17
0
3.49586e-17
0
1.43679e-19
0
0
3.47523e-17
0
0
1.51392e-25
4.61739e-17
0
1.39288e-19
0
1.75114e-19
1.35831e-18
4.07929e-17
2.10192e-15
7.91195e-11
5.4917e-07
0.000226525
0.0087736
0.0527547
0.390655
0.390655
0.0527546
0.00877354
0.000226522
5.49159e-07
7.91194e-11
2.03715e-15
0
7.02065e-17
9.56929e-18
0
4.61739e-17
0
6.46992e-17
0
2.89689e-17
0
1.78772e-17
0
9.79812e-18
0
0
3.47523e-17
0
0
3.00955e-21
4.61739e-17
0
0
0
9.32601e-18
1.86208e-17
3.1604e-17
1.98189e-15
7.91238e-11
5.4917e-07
0.000226525
0.0087736
0.0527547
0.390655
0.390354
0.0526625
0.0087444
0.000225397
5.45512e-07
7.84936e-11
1.99199e-15
0
4.8581e-17
9.89004e-17
0
4.61739e-17
0
2.76486e-17
0
3.81332e-19
0
7.37092e-17
2.12414e-17
6.21778e-17
0
0
0
1.05859e-17
0
1.22562e-18
0
0
0
0
8.31619e-17
5.01749e-17
3.94822e-18
2.02531e-15
7.91319e-11
5.4917e-07
0.000226525
0.0087736
0.0527547
0.390655
0.354426
0.0471107
0.00758714
0.000190032
4.48725e-07
6.34176e-11
1.6365e-15
1.94764e-17
2.56376e-17
1.17243e-16
6.20101e-18
2.70492e-17
4.84307e-17
5.66762e-18
6.74559e-17
6.25602e-17
8.80948e-18
2.47459e-17
1.38302e-16
8.30887e-17
4.75169e-17
2.88765e-17
1.20809e-17
1.12365e-16
5.42556e-17
5.06624e-17
6.993e-17
5.5551e-18
2.49752e-17
3.16777e-17
8.74301e-18
2.60708e-17
4.37355e-17
2.05871e-15
7.91234e-11
5.4917e-07
0.000226525
0.0087736
0.0527547
0.390655
)
;

boundaryField
{
    inlet
    {
        type            calculated;
        value           uniform 0;
    }
    outlet
    {
        type            calculated;
        value           nonuniform List<scalar> 
165
(
0.354426
0.390354
0.390655
0.390655
0.390655
0.390655
0.390655
0.390655
0.390655
0.390655
0.390655
0.390655
0.390655
0.390655
0.390655
0.390655
0.390675
0.392786
0.392827
0.563506
0.563506
0.404495
0.404709
0.402748
0.40273
0.40273
0.40273
0.40273
0.40273
0.40273
0.40273
0.40273
0.40273
0.40273
0.40273
0.40273
0.40273
0.40273
0.40273
0.40273
0.40273
0.40273
0.40273
0.40273
0.40273
0.40273
0.40273
0.40273
0.40273
0.40273
0.40273
0.40273
0.40273
0.40273
0.40273
0.40273
0.402748
0.404709
0.404495
0.563506
0.390655
0.390655
0.390655
0.390655
0.390655
0.390655
0.390655
0.390655
0.390655
0.390655
0.390655
0.390655
0.390655
0.390655
0.390655
0.390655
0.390675
0.392786
0.392827
0.563506
0.390655
0.390655
0.390655
0.390655
0.390655
0.563506
0.392827
0.392786
0.390675
0.390655
0.390655
0.390655
0.390655
0.390655
0.390655
0.390655
0.390655
0.390655
0.390655
0.390655
0.390655
0.390655
0.390655
0.390655
0.390655
0.563506
0.404495
0.404709
0.402748
0.40273
0.40273
0.40273
0.40273
0.40273
0.40273
0.40273
0.40273
0.40273
0.40273
0.40273
0.40273
0.40273
0.40273
0.40273
0.40273
0.40273
0.40273
0.40273
0.40273
0.40273
0.40273
0.40273
0.40273
0.40273
0.40273
0.40273
0.40273
0.40273
0.40273
0.40273
0.40273
0.402748
0.404709
0.404495
0.563506
0.563506
0.392827
0.392786
0.390675
0.390655
0.390655
0.390655
0.390655
0.390655
0.390655
0.390655
0.390655
0.390655
0.390655
0.390655
0.390655
0.390655
0.390655
0.390354
0.354426
)
;
    }
    obstacle
    {
        type            calculated;
        value           nonuniform List<scalar> 
40
(
0
0
0
0
0
0
0
0
0
0
0
1.54974e-18
1.8148e-18
0
2.57511e-20
2.75029e-20
0
0
0
2.53765e-19
3.92981e-16
4.08002e-14
3.00272e-13
5.87089e-12
5.44986e-10
2.79614e-16
4.04447e-14
2.96428e-13
5.86908e-12
5.44986e-10
8.75221e-09
5.67471e-08
0.000125218
0.00358823
0.0181836
8.7522e-09
5.67471e-08
0.000125218
0.00358823
0.0181836
)
;
    }
    empty
    {
        type            empty;
    }
}


// ************************************************************************* //
