/*--------------------------------*- C++ -*----------------------------------*\
| =========                 |                                                 |
| \\      /  F ield         | OpenFOAM: The Open Source CFD Toolbox           |
|  \\    /   O peration     | Version:  v1912                                 |
|   \\  /    A nd           | Website:  www.openfoam.com                      |
|    \\/     M anipulation  |                                                 |
\*---------------------------------------------------------------------------*/
FoamFile
{
    version     2.0;
    format      ascii;
    class       volVectorField;
    location    "0.1";
    object      U;
}
// * * * * * * * * * * * * * * * * * * * * * * * * * * * * * * * * * * * * * //

dimensions      [0 1 -1 0 0 0 0];


internalField   nonuniform List<vector> 
1900
(
(0 0 0)
(-1.54974e-18 6.34411e-17 0)
(1.8148e-18 -1.26882e-19 0)
(0 0 0)
(2.57511e-20 6.81357e-17 0)
(-2.75028e-20 9.00863e-18 0)
(0 7.70175e-17 0)
(0 0 0)
(0 -1.21807e-17 0)
(-2.53764e-19 1.14828e-16 0)
(0 0 0)
(-1.01734e-17 0 0)
(1.14308e-17 -6.33142e-17 0)
(0 0 0)
(2.52764e-19 0 0)
(-2.87111e-19 0 0)
(0 -4.98647e-17 0)
(0 6.33142e-17 0)
(0 0 0)
(0 1.17367e-17 0)
(0 0 0)
(-4.99464e-17 0 0)
(4.99464e-17 0 0)
(0 0 0)
(1.00474e-17 0 0)
(-1.08908e-17 0 0)
(0 7.71444e-17 0)
(0 0 0)
(0 0 0)
(0 -3.48951e-19 0)
(0 0 0)
(0 0 0)
(0 0 0)
(0 0 0)
(4.98444e-17 0 0)
(-4.98688e-17 6.33142e-17 0)
(0 0 0)
(0 -6.33142e-17 0)
(0 0 0)
(1.14194e-17 -5.37795e-19 0)
(0 0 0)
(0 0 0)
(0 -1.26755e-16 0)
(0 0 0)
(0 -1.26755e-16 0)
(0 1.26882e-19 0)
(0 0 0)
(0 0 0)
(0 0 0)
(0 -6.34411e-17 0)
(-4.95978e-16 3.55132e-17 0)
(-5.23785e-14 5.01435e-15 0)
(-4.12179e-13 7.69465e-14 0)
(6.5011e-12 8.32221e-13 0)
(7.21739e-10 -1.00124e-10 0)
(-1.37484e-16 1.29985e-16 0)
(-1.69925e-14 6.25229e-15 0)
(-2.44731e-14 1.29362e-13 0)
(1.51442e-11 4.93014e-12 0)
(6.37484e-10 -5.62795e-11 0)
(1.632e-17 -1.70096e-17 0)
(-3.39744e-16 -2.44304e-16 0)
(2.6245e-13 5.65066e-15 0)
(2.77044e-11 -6.13264e-16 0)
(7.14554e-10 2.53817e-15 0)
(-1.02402e-16 -6.01081e-17 0)
(-1.324e-14 -6.44929e-15 0)
(-1.78038e-14 -1.26543e-13 0)
(1.51341e-11 -4.92749e-12 0)
(6.37485e-10 5.62821e-11 0)
(-3.45938e-16 -1.48259e-17 0)
(-5.17628e-14 -4.73165e-15 0)
(-4.11647e-13 -8.30777e-14 0)
(6.49974e-12 -8.30987e-13 0)
(7.21739e-10 1.00123e-10 0)
(8.27497e-09 -4.77956e-09 0)
(-6.57786e-08 -7.81421e-08 0)
(-0.000124428 1.40686e-05 0)
(-0.00354516 0.00060802 0)
(-0.017778 0.00527276 0)
(4.46867e-09 -2.80871e-09 0)
(-4.333e-07 -2.8504e-07 0)
(-0.000108136 2.46092e-05 0)
(-0.00179237 0.0014007 0)
(-0.00447293 0.00683747 0)
(3.87852e-09 8.4492e-15 0)
(-1.1691e-06 8.51194e-15 0)
(-0.000110918 -6.73288e-15 0)
(-0.000810967 1.75222e-15 0)
(-0.00056433 -1.45795e-15 0)
(4.46867e-09 2.80873e-09 0)
(-4.333e-07 2.8504e-07 0)
(-0.000108136 -2.46092e-05 0)
(-0.00179237 -0.0014007 0)
(-0.00447293 -0.00683747 0)
(8.27498e-09 4.77957e-09 0)
(-6.57786e-08 7.81421e-08 0)
(-0.000124428 -1.40686e-05 0)
(-0.00354516 -0.00060802 0)
(-0.017778 -0.00527276 0)
(-0.0981129 0.00554376 0)
(-0.0179788 -0.0170324 0)
(-0.00367556 -0.00214426 0)
(-9.80911e-05 -4.89026e-05 0)
(-2.38602e-07 -9.09802e-08 0)
(-3.35557e-11 -9.70755e-12 0)
(-9.20706e-16 -3.12592e-16 0)
(4.42042e-17 7.88976e-17 0)
(1.19475e-19 -6.15955e-17 0)
(-1.20895e-17 2.03011e-17 0)
(1.82905e-17 1.04505e-16 0)
(8.6361e-18 -1.19269e-16 0)
(9.59047e-18 4.9138e-17 0)
(-3.27583e-17 -1.04274e-16 0)
(-2.62054e-17 5.92886e-17 0)
(1.08473e-16 -4.63697e-17 0)
(-2.12136e-17 0 0)
(-6.77205e-17 0 0)
(-5.09952e-17 1.34956e-16 0)
(6.00433e-17 -6.43639e-17 0)
(2.13966e-17 5.35212e-17 0)
(1.09794e-17 -1.45799e-16 0)
(-1.84468e-17 7.88976e-17 0)
(-4.67744e-17 2.80294e-16 0)
(-2.57923e-17 -4.3832e-17 0)
(1.26427e-16 4.49855e-17 0)
(4.72994e-17 -4.01409e-17 0)
(-9.04817e-17 0 0)
(-7.91083e-18 2.51688e-16 0)
(2.77389e-17 2.59532e-16 0)
(5.64998e-17 8.53571e-17 0)
(3.11065e-17 2.67606e-17 0)
(-3.86594e-17 -6.5056e-17 0)
(2.08934e-15 4.15251e-18 0)
(7.91206e-11 9.09768e-15 0)
(5.49168e-07 -3.63183e-15 0)
(0.000226515 2.08376e-14 0)
(0.00875799 8.22963e-15 0)
(0.0521007 2.03493e-14 0)
(0.38619 1.90921e-14 0)
(-0.0106072 0.0017393 0)
(-0.00329148 -0.00752135 0)
(-0.00120061 -0.00141573 0)
(-4.15693e-05 -3.23172e-05 0)
(-1.15933e-07 -5.03414e-08 0)
(-1.75284e-11 -3.5772e-12 0)
(-4.46091e-16 8.14353e-17 0)
(7.71202e-17 0 0)
(5.8955e-19 -1.68638e-16 0)
(-3.51652e-17 -7.88976e-17 0)
(-8.62393e-18 2.30695e-19 0)
(2.68259e-17 1.66792e-16 0)
(3.54684e-17 5.30598e-17 0)
(-3.01427e-17 0 0)
(-4.17982e-18 -2.30695e-19 0)
(7.43515e-17 4.63697e-17 0)
(-3.66622e-20 0 0)
(-2.58672e-17 0 0)
(-9.96402e-17 2.30003e-16 0)
(6.45208e-17 8.09739e-17 0)
(9.20134e-19 0 0)
(5.03948e-17 5.62895e-17 0)
(5.6515e-18 6.66708e-17 0)
(-8.96022e-17 2.48689e-16 0)
(-1.04238e-16 1.11195e-16 0)
(1.17437e-16 -8.62799e-17 0)
(5.11199e-17 -1.94476e-16 0)
(-2.82754e-17 1.2296e-16 0)
(5.09331e-17 1.10272e-16 0)
(-6.74299e-21 3.27587e-17 0)
(-1.27062e-17 0 0)
(8.02431e-18 -1.67946e-16 0)
(3.99189e-18 1.1627e-16 0)
(2.04526e-15 -2.23082e-16 0)
(7.91273e-11 9.67534e-15 0)
(5.49168e-07 -7.72251e-15 0)
(0.000226515 1.16336e-14 0)
(0.00875799 -1.74045e-15 0)
(0.0521007 -4.92273e-15 0)
(0.38619 -3.19663e-15 0)
(3.06347e-05 7.29997e-15 0)
(0.000113488 1.33861e-14 0)
(-0.000282837 3.76711e-15 0)
(-2.22255e-05 -1.93621e-14 0)
(-1.0722e-07 8.13892e-16 0)
(-2.3806e-11 4.22195e-15 0)
(-5.58913e-16 1.75328e-16 0)
(3.09516e-17 0 0)
(3.8681e-18 0 0)
(-9.02738e-17 -7.61293e-18 0)
(6.84443e-17 -3.94488e-17 0)
(6.44142e-18 1.77174e-16 0)
(8.63099e-18 -5.30598e-17 0)
(-8.85479e-17 9.94295e-17 0)
(-1.94151e-17 -6.45946e-17 0)
(9.67626e-17 0 0)
(-1.46093e-18 0 0)
(8.47178e-18 0 0)
(-2.75322e-17 2.1593e-16 0)
(4.91734e-18 1.46722e-16 0)
(6.59728e-18 0 0)
(2.90715e-17 2.44767e-16 0)
(1.0191e-18 1.5941e-16 0)
(-3.29293e-17 9.61998e-17 0)
(-1.68539e-16 1.83633e-16 0)
(2.67149e-17 5.975e-17 0)
(1.26778e-16 -5.7443e-17 0)
(-3.20297e-17 2.84677e-16 0)
(4.23526e-19 0 0)
(-1.0718e-19 -3.02902e-16 0)
(1.35279e-17 0 0)
(1.19335e-17 -2.86062e-17 0)
(7.75755e-18 3.00595e-16 0)
(2.0261e-15 -1.41416e-16 0)
(7.91268e-11 -4.15297e-15 0)
(5.49168e-07 3.73726e-16 0)
(0.000226515 9.55963e-15 0)
(0.00875799 -8.07767e-15 0)
(0.0521007 -9.68564e-15 0)
(0.38619 -2.05674e-14 0)
(-0.0106072 -0.0017393 0)
(-0.00329148 0.00752135 0)
(-0.00120061 0.00141573 0)
(-4.15693e-05 3.23172e-05 0)
(-1.15933e-07 5.03414e-08 0)
(-1.75318e-11 3.58195e-12 0)
(-5.00631e-16 9.13552e-17 0)
(4.54053e-17 -7.88976e-17 0)
(1.99206e-17 1.64947e-16 0)
(-4.63415e-17 1.26882e-16 0)
(4.07978e-17 -1.46953e-16 0)
(-2.4624e-17 5.28291e-17 0)
(4.50994e-17 -7.88976e-17 0)
(-3.56191e-17 2.36462e-16 0)
(-5.13773e-17 6.5056e-17 0)
(4.37128e-17 0 0)
(-1.31604e-17 0 0)
(-1.45864e-17 0 0)
(2.32215e-17 1.43031e-17 0)
(-2.31447e-17 4.84459e-18 0)
(1.64383e-17 0 0)
(5.46966e-17 -3.09131e-17 0)
(1.3724e-17 -2.4915e-17 0)
(-9.21707e-17 -4.6139e-18 0)
(-7.95563e-17 4.63697e-17 0)
(1.91499e-17 1.72098e-16 0)
(9.99183e-17 0 0)
(2.06042e-17 1.05197e-16 0)
(-9.80579e-17 0 0)
(-2.82743e-18 -1.64255e-16 0)
(1.72456e-17 -2.33002e-17 0)
(5.44242e-17 -1.21115e-16 0)
(1.55273e-18 1.56411e-16 0)
(1.92491e-15 -7.15154e-18 0)
(7.91243e-11 -1.27943e-14 0)
(5.49168e-07 8.72488e-15 0)
(0.000226515 8.81293e-15 0)
(0.00875799 -1.33339e-14 0)
(0.0521007 -1.04794e-14 0)
(0.38619 -8.31983e-15 0)
(-0.0981129 -0.00554376 0)
(-0.0179788 0.0170324 0)
(-0.00367556 0.00214426 0)
(-9.80911e-05 4.89026e-05 0)
(-2.38602e-07 9.09802e-08 0)
(-3.35598e-11 9.70956e-12 0)
(-9.41067e-16 1.13271e-16 0)
(-9.31807e-18 -1.56411e-16 0)
(4.88764e-17 6.52866e-17 0)
(-3.62095e-17 -5.95193e-17 0)
(6.99773e-17 -4.3832e-17 0)
(3.35324e-18 0 0)
(-2.90392e-18 -7.52065e-17 0)
(3.24139e-17 1.00583e-16 0)
(-3.46066e-17 1.22268e-16 0)
(2.53838e-21 0 0)
(-3.28768e-17 0 0)
(1.11793e-20 0 0)
(-2.2403e-30 -1.42108e-16 0)
(7.0318e-27 -7.88976e-17 0)
(-2.71693e-28 0 0)
(6.48095e-18 0 0)
(-5.56262e-25 -2.0901e-16 0)
(-2.6053e-17 -1.3611e-16 0)
(-3.33837e-18 0 0)
(-1.14758e-18 5.83658e-17 0)
(2.67001e-17 0 0)
(7.712e-17 -2.46151e-16 0)
(-7.12153e-17 0 0)
(2.8936e-18 -9.48156e-17 0)
(-1.76365e-30 -1.33803e-16 0)
(4.23995e-18 -2.16853e-17 0)
(-2.17338e-26 -2.25158e-16 0)
(1.97105e-15 0 0)
(7.91186e-11 -5.71408e-15 0)
(5.49168e-07 5.0333e-15 0)
(0.000226515 -1.49418e-14 0)
(0.00875799 -1.00687e-14 0)
(0.0521007 -1.77486e-14 0)
(0.38619 -6.53265e-15 0)
(-0.351226 -0.00107114 0)
(-0.0461762 0.00636181 0)
(-0.00754582 0.000673037 0)
(-0.000189279 1.6821e-05 0)
(-4.47573e-07 3.21205e-08 0)
(-6.33177e-11 3.56479e-12 0)
(-1.64986e-15 4.05327e-17 0)
(9.30841e-18 1.27169e-16 0)
(-8.0678e-23 3.14093e-17 0)
(-1.02261e-17 1.0168e-16 0)
(-2.83386e-31 5.91972e-18 0)
(1.01121e-17 4.61738e-17 0)
(-8.86843e-18 2.31914e-17 0)
(-2.63386e-18 -9.09547e-17 0)
(3.87984e-19 1.5043e-17 0)
(-2.5806e-20 0 0)
(-4.02999e-23 0 0)
(-7.26535e-20 0 0)
(-3.08257e-29 -2.66039e-17 0)
(2.31159e-25 -2.20074e-17 0)
(3.87556e-27 0 0)
(5.13985e-32 0 0)
(-3.87739e-24 -6.72062e-17 0)
(-6.06159e-18 -2.70218e-17 0)
(9.00586e-18 0 0)
(-8.45168e-18 0 0)
(8.73995e-18 -6.95741e-17 0)
(-1.49182e-21 -9.64566e-17 0)
(-5.60934e-43 -6.95044e-17 0)
(1.02261e-17 2.86236e-17 0)
(-2.28969e-29 -2.20771e-17 0)
(-9.61146e-18 -4.73577e-18 0)
(-2.18095e-25 -1.09619e-16 0)
(1.97141e-15 -4.61738e-17 0)
(7.91231e-11 7.39672e-15 0)
(5.49168e-07 2.90596e-15 0)
(0.000226515 -1.53853e-14 0)
(0.00875799 -4.212e-15 0)
(0.0521007 -1.83794e-15 0)
(0.38619 -2.49957e-15 0)
(-0.385905 4.15253e-06 0)
(-0.0520116 0.000215065 0)
(-0.00872885 2.99211e-05 0)
(-0.000225384 9.25117e-07 0)
(-5.45506e-07 2.11864e-09 0)
(-7.84858e-11 2.67163e-13 0)
(-2.03181e-15 1.18394e-18 0)
(5.19627e-17 -8.55225e-17 0)
(-1.87134e-21 -8.29457e-17 0)
(-5.7914e-17 -2.71611e-17 0)
(-1.21582e-29 0 0)
(5.28761e-17 -4.61738e-17 0)
(-4.28674e-17 0 0)
(-1.80849e-17 0 0)
(9.61785e-18 0 0)
(-6.71716e-19 6.95044e-17 0)
(3.8759e-22 1.39287e-19 0)
(-4.90073e-18 0 0)
(-8.03266e-27 0 0)
(1.30989e-23 6.95741e-17 0)
(1.16911e-22 0 0)
(-1.45835e-30 0 0)
(3.94214e-22 0 0)
(-4.79274e-17 0 0)
(4.79159e-17 -4.61738e-17 0)
(-4.6864e-17 0 0)
(4.89553e-17 0 0)
(-6.96227e-20 0 0)
(-2.40619e-41 0 0)
(5.7914e-17 0 0)
(-6.61884e-27 0 0)
(-6.8149e-17 0 0)
(1.13043e-23 -7.32652e-17 0)
(2.02522e-15 4.61738e-17 0)
(7.91304e-11 -7.49367e-16 0)
(5.49168e-07 2.70496e-15 0)
(0.000226515 1.43004e-15 0)
(0.00875799 -1.83893e-15 0)
(0.0521007 1.63026e-15 0)
(0.38619 1.26871e-15 0)
(-0.38619 2.89237e-08 0)
(-0.0521006 6.12943e-07 0)
(-0.00875792 1.02049e-07 0)
(-0.000226512 3.63733e-09 0)
(-5.49157e-07 9.40465e-12 0)
(-7.91169e-11 1.0707e-15 0)
(-2.05487e-15 0 0)
(-1.96385e-17 0 0)
(-2.48194e-20 1.14216e-17 0)
(-8.57712e-33 0 0)
(-1.7401e-25 0 0)
(4.28924e-39 0 0)
(4.93941e-17 0 0)
(7.45039e-17 6.96437e-17 0)
(-8.2632e-17 0 0)
(-2.14609e-17 0 0)
(2.39321e-21 9.24869e-17 0)
(-2.88697e-17 3.47522e-17 0)
(-2.38975e-22 0 0)
(2.95714e-22 0 0)
(1.26139e-19 0 0)
(-7.80946e-26 0 0)
(1.44944e-20 3.47522e-17 0)
(-1.63926e-19 0 0)
(1.12048e-20 4.61738e-17 0)
(-2.37669e-20 -4.6522e-17 0)
(5.231e-18 4.93078e-17 0)
(-4.72137e-18 0 0)
(-9.68546e-40 0 0)
(1.7018e-22 0 0)
(-2.11932e-22 0 0)
(-5.79708e-17 -4.61738e-17 0)
(-5.34619e-22 -3.08522e-17 0)
(2.03334e-15 0 0)
(7.91241e-11 -1.38299e-15 0)
(5.49168e-07 5.93435e-16 0)
(0.000226515 1.07051e-14 0)
(0.00875799 8.03101e-15 0)
(0.0521007 8.48182e-16 0)
(0.38619 7.35786e-15 0)
(-0.38619 4.38883e-12 0)
(-0.0521007 1.09776e-10 0)
(-0.00875799 2.043e-11 0)
(-0.000226515 7.79157e-13 0)
(-5.49168e-07 1.70294e-14 0)
(-7.91195e-11 7.72419e-16 0)
(-2.03991e-15 0 0)
(-3.5166e-20 0 0)
(-8.28593e-19 0 0)
(2.63704e-31 0 0)
(-7.69274e-23 0 0)
(-3.4465e-37 0 0)
(1.02261e-17 -3.48219e-17 0)
(1.50129e-19 -1.39287e-19 0)
(-1.12442e-17 0 0)
(-8.0773e-21 -6.95044e-17 0)
(-1.0189e-21 -9.24869e-17 0)
(9.17028e-19 -3.47522e-17 0)
(-2.31892e-19 0 0)
(2.38678e-19 0 0)
(7.65586e-18 0 0)
(-3.3587e-22 0 0)
(3.00928e-19 0 0)
(-9.72859e-18 0 0)
(1.5161e-19 0 0)
(-2.8811e-19 6.67883e-17 0)
(3.02327e-17 0 0)
(-3.0187e-17 0 0)
(3.44993e-38 0 0)
(1.58261e-19 0 0)
(-2.28281e-19 0 0)
(2.56162e-20 4.61738e-17 0)
(-7.49943e-21 9.76405e-17 0)
(2.07884e-15 0 0)
(7.91269e-11 -1.87e-15 0)
(5.49168e-07 -1.2694e-15 0)
(0.000226515 5.35083e-15 0)
(0.00875799 2.55298e-16 0)
(0.0521007 -2.979e-16 0)
(0.38619 -4.88558e-16 0)
(-0.38619 4.82001e-14 0)
(-0.0521007 2.10256e-15 0)
(-0.00875799 1.57564e-14 0)
(-0.000226515 -3.80906e-15 0)
(-5.49168e-07 8.25139e-16 0)
(-7.91224e-11 4.88544e-15 0)
(-2.04365e-15 0 0)
(-8.26863e-20 0 0)
(-1.01457e-17 -3.30111e-17 0)
(1.66041e-26 0 0)
(-1.41125e-21 4.61738e-17 0)
(-2.72826e-35 0 0)
(5.7914e-17 0 0)
(9.2246e-18 0 0)
(-6.57927e-17 0 0)
(-6.7906e-20 -3.48219e-17 0)
(-2.28819e-19 -1.39287e-19 0)
(8.41745e-18 0 0)
(-1.14075e-17 0 0)
(1.01189e-17 0 0)
(4.52503e-17 0 0)
(-6.00367e-20 0 0)
(4.57968e-18 -3.47522e-17 0)
(-5.7914e-17 4.61738e-17 0)
(9.19903e-18 0 0)
(-9.87297e-18 9.26958e-17 0)
(1.01672e-17 0 0)
(-9.80826e-18 0 0)
(-1.13089e-36 0 0)
(7.45824e-18 0 0)
(-1.26772e-17 0 0)
(4.64116e-19 0 0)
(5.8078e-20 2.71611e-18 0)
(2.05273e-15 0 0)
(7.91191e-11 -2.65155e-15 0)
(5.49168e-07 6.35569e-16 0)
(0.000226515 3.43352e-16 0)
(0.00875799 -9.08641e-15 0)
(0.0521007 -3.12426e-15 0)
(0.38619 -5.94411e-15 0)
(-0.38619 1.76396e-15 0)
(-0.0521007 2.36889e-16 0)
(-0.00875799 3.15041e-15 0)
(-0.000226515 -5.64243e-18 0)
(-5.49168e-07 2.44742e-15 0)
(-7.91297e-11 7.91014e-16 0)
(-2.0254e-15 0 0)
(1.64593e-19 4.61738e-17 0)
(-5.81044e-17 5.94061e-17 0)
(3.71781e-22 0 0)
(-2.18419e-20 -4.61738e-17 0)
(-1.02368e-31 0 0)
(-2.20818e-37 3.48219e-17 0)
(5.68066e-17 0 0)
(-3.88218e-17 6.4908e-17 0)
(-2.06019e-19 3.48219e-17 0)
(-1.82038e-17 0 0)
(4.31073e-17 0 0)
(-5.25417e-17 0 0)
(4.3197e-17 -3.48219e-17 0)
(-5.25093e-17 0 0)
(-6.57617e-19 -3.48219e-17 0)
(2.897e-17 0 0)
(-5.56642e-24 -4.61738e-17 0)
(4.87714e-17 -3.48219e-17 0)
(-4.69717e-17 -9.26958e-17 0)
(4.85145e-17 0 0)
(-4.72697e-17 3.47522e-17 0)
(-7.21293e-32 0 0)
(3.21723e-17 0 0)
(-6.59489e-17 0 0)
(8.958e-18 -3.48219e-17 0)
(-9.53892e-18 0 0)
(2.02827e-15 1.58091e-17 0)
(7.91211e-11 2.36879e-15 0)
(5.49168e-07 1.03679e-15 0)
(0.000226515 1.68193e-15 0)
(0.00875799 -1.44222e-15 0)
(0.0521007 1.12956e-15 0)
(0.38619 4.33379e-15 0)
(-0.38619 3.04485e-15 0)
(-0.0521007 1.03107e-15 0)
(-0.00875799 2.26235e-15 0)
(-0.000226515 2.8263e-15 0)
(-5.49168e-07 3.13118e-15 0)
(-7.91259e-11 4.00034e-16 0)
(-2.02583e-15 -3.47522e-17 0)
(1.62287e-18 -4.61738e-17 0)
(-1.82822e-18 -5.92668e-17 0)
(2.82274e-19 0 0)
(-2.75067e-19 0 0)
(-5.23175e-30 -6.95741e-17 0)
(-6.3759e-36 0 0)
(1.10264e-20 -6.95044e-17 0)
(8.65054e-17 -2.73003e-17 0)
(-9.34285e-18 9.86852e-17 0)
(-1.05423e-16 2.85539e-18 0)
(-2.77424e-18 -2.08931e-19 0)
(4.65262e-18 0 0)
(5.70752e-24 3.48219e-17 0)
(-2.03869e-22 0 0)
(-5.49835e-18 3.48219e-17 0)
(-5.11307e-18 3.47522e-17 0)
(-1.15291e-22 0 0)
(-2.15473e-38 3.48219e-17 0)
(4.91573e-18 0 0)
(-4.8944e-18 0 0)
(-3.2657e-30 -3.47522e-17 0)
(-4.15986e-27 0 0)
(1.27763e-37 0 0)
(7.8961e-18 0 0)
(4.1426e-17 3.48219e-17 0)
(-5.43127e-17 0 0)
(2.01883e-15 1.23339e-16 0)
(7.91241e-11 1.83358e-15 0)
(5.49168e-07 5.27621e-16 0)
(0.000226515 1.42537e-15 0)
(0.00875799 5.25392e-15 0)
(0.0521007 1.13026e-14 0)
(0.38619 1.0064e-14 0)
(-0.38619 -8.78763e-15 0)
(-0.0521007 -3.47683e-15 0)
(-0.00875799 1.6326e-15 0)
(-0.000226515 8.2268e-16 0)
(-5.49168e-07 -5.91171e-15 0)
(-7.91308e-11 -2.87629e-17 0)
(-1.96062e-15 -2.88325e-17 0)
(1.44636e-17 0 0)
(-1.20337e-17 3.28718e-17 0)
(1.19689e-17 0 0)
(-1.52439e-17 0 0)
(-4.30985e-28 0 0)
(-8.43773e-32 0 0)
(1.44242e-19 0 0)
(1.90472e-17 0 0)
(-4.53408e-20 0 0)
(-2.00067e-17 0 0)
(-2.10387e-19 -9.24869e-17 0)
(5.79727e-17 0 0)
(1.22435e-22 0 0)
(-3.69934e-20 0 0)
(-3.20042e-17 0 0)
(-2.8957e-17 -3.47522e-17 0)
(-1.38911e-19 0 0)
(-8.21818e-38 0 0)
(4.75979e-17 0 0)
(-4.82483e-17 0 0)
(-8.75403e-29 -3.90005e-18 0)
(-2.47997e-23 0 0)
(-2.99968e-36 0 0)
(4.72026e-17 9.26958e-17 0)
(-4.85895e-17 0 0)
(5.7599e-18 0 0)
(2.0811e-15 0 0)
(7.9125e-11 -3.14302e-16 0)
(5.49168e-07 -1.82905e-15 0)
(0.000226515 -4.10699e-15 0)
(0.00875799 -1.50228e-15 0)
(0.0521007 -2.27984e-15 0)
(0.38619 7.15595e-17 0)
(-0.38619 1.97437e-15 0)
(-0.0521007 2.68235e-15 0)
(-0.00875799 -3.96541e-15 0)
(-0.000226515 2.22904e-15 0)
(-5.49168e-07 5.66831e-16 0)
(-7.91253e-11 -2.92817e-15 0)
(-2.04634e-15 6.35847e-17 0)
(7.69987e-17 0 0)
(-4.22732e-17 0 0)
(5.34757e-17 0 0)
(-8.52644e-17 1.46252e-17 0)
(-2.75862e-26 6.95741e-17 0)
(-3.87843e-29 0 0)
(9.41347e-18 0 0)
(9.76924e-17 -1.30234e-17 0)
(-1.50993e-18 -1.09759e-16 0)
(-1.00681e-16 -9.95905e-18 0)
(-4.65688e-18 8.62886e-17 0)
(6.12556e-23 0 0)
(1.45098e-19 0 0)
(-4.19302e-19 -3.48219e-17 0)
(6.5533e-18 0 0)
(-1.30007e-22 0 0)
(-9.33683e-18 0 0)
(-8.2614e-33 0 0)
(-5.3794e-18 -3.48219e-17 0)
(-4.41717e-20 -3.48219e-17 0)
(-1.96021e-27 -9.61084e-17 0)
(-6.61575e-21 -4.17862e-19 0)
(-6.6679e-35 -3.48219e-17 0)
(4.05915e-17 -9.26958e-17 0)
(-5.75802e-17 0 0)
(4.57204e-17 -1.46252e-18 0)
(2.04111e-15 -1.19369e-16 0)
(7.91242e-11 -3.1075e-16 0)
(5.49168e-07 -3.82762e-15 0)
(0.000226515 -1.23052e-14 0)
(0.00875799 1.66169e-15 0)
(0.0521007 -5.92104e-15 0)
(0.38619 -5.46964e-15 0)
(-0.38619 5.86541e-15 0)
(-0.0521007 3.65603e-15 0)
(-0.00875799 -2.60708e-15 0)
(-0.000226515 -1.21047e-15 0)
(-5.49168e-07 6.87259e-15 0)
(-7.91242e-11 -6.87593e-16 0)
(-2.04083e-15 0 0)
(1.40497e-26 0 0)
(-1.97522e-34 0 0)
(5.18311e-17 1.1143e-17 0)
(-4.38874e-17 1.07042e-16 0)
(-7.12388e-25 6.33758e-18 0)
(-8.29102e-28 1.39287e-19 0)
(5.83519e-17 -1.14216e-17 0)
(-3.36493e-17 0 0)
(8.42085e-18 0 0)
(-1.61083e-17 0 0)
(-4.87923e-20 0 0)
(6.96203e-20 0 0)
(8.87117e-18 0 0)
(-6.31586e-18 3.48219e-17 0)
(5.91614e-17 0 0)
(-1.47642e-19 0 0)
(-5.91567e-17 0 0)
(-3.37598e-28 0 0)
(-3.09799e-17 3.48219e-17 0)
(-4.52428e-19 3.48219e-17 0)
(-4.55219e-26 3.07825e-17 0)
(-8.69437e-20 -3.48219e-17 0)
(-2.65507e-33 0 0)
(3.14898e-17 0 0)
(-3.00267e-20 6.95044e-17 0)
(-5.39359e-19 0 0)
(2.01943e-15 -1.83163e-17 0)
(7.91242e-11 -3.79419e-16 0)
(5.49168e-07 8.87972e-15 0)
(0.000226515 -2.65898e-15 0)
(0.00875799 8.25328e-16 0)
(0.0521007 6.04815e-15 0)
(0.38619 4.88961e-16 0)
(-0.38619 1.18637e-15 0)
(-0.0521007 -2.08648e-15 0)
(-0.00875799 3.60214e-15 0)
(-0.000226515 -1.25756e-15 0)
(-5.49168e-07 -1.24238e-15 0)
(-7.91236e-11 2.72864e-15 0)
(-2.05156e-15 0 0)
(-1.69175e-25 0 0)
(-2.42065e-32 0 0)
(-9.3244e-29 0 0)
(6.11415e-17 0 0)
(1.84323e-23 0 0)
(-1.56774e-26 -1.39287e-19 0)
(3.63767e-18 8.0926e-17 0)
(-3.98308e-17 0 0)
(5.5929e-17 9.26262e-17 0)
(-7.72747e-17 0 0)
(5.00214e-18 0 0)
(4.62281e-18 0 0)
(4.78965e-17 0 0)
(-4.7908e-17 9.26958e-17 0)
(1.01907e-17 0 0)
(-9.39364e-18 0 0)
(-1.02351e-17 0 0)
(-3.03009e-25 0 0)
(6.50766e-18 0 0)
(-3.49708e-18 0 0)
(-2.70516e-24 6.96437e-17 0)
(-9.13675e-19 3.48219e-17 0)
(-1.0359e-31 3.48219e-17 0)
(2.97581e-18 0 0)
(-3.26561e-18 6.96437e-17 0)
(-2.01089e-17 0 0)
(2.07296e-15 2.99468e-18 0)
(7.91235e-11 2.46943e-15 0)
(5.49168e-07 4.85925e-15 0)
(0.000226515 8.08643e-15 0)
(0.00875799 -2.29164e-16 0)
(0.0521007 7.36576e-15 0)
(0.38619 5.56701e-15 0)
(-0.38619 -2.94894e-16 0)
(-0.0521007 -5.55918e-15 0)
(-0.00875799 -9.34009e-16 0)
(-0.000226515 1.05632e-15 0)
(-5.49168e-07 -9.60032e-15 0)
(-7.91307e-11 1.16521e-15 0)
(-2.01455e-15 0 0)
(-9.20918e-23 0 0)
(-1.90829e-29 0 0)
(-3.17708e-27 -1.1143e-17 0)
(1.91179e-19 -1.16862e-16 0)
(2.30427e-22 -1.1143e-17 0)
(-1.97974e-25 0 0)
(3.16212e-17 0 0)
(3.03838e-17 3.6354e-17 0)
(-3.63563e-17 -5.94757e-17 0)
(-6.60326e-21 0 0)
(3.2601e-17 0 0)
(2.90157e-17 0 0)
(3.26049e-19 6.83205e-17 0)
(-2.86262e-19 -2.75093e-17 0)
(5.36678e-17 6.83205e-17 0)
(-5.33541e-17 2.43057e-17 0)
(-5.79727e-17 0 0)
(-1.40112e-23 0 0)
(5.79727e-17 0 0)
(-1.84703e-17 0 0)
(-3.77581e-23 3.47522e-17 0)
(-9.58917e-18 0 0)
(-2.1015e-30 0 0)
(4.17511e-17 0 0)
(-4.10127e-17 0 0)
(5.08916e-18 0 0)
(2.0692e-15 1.11709e-16 0)
(7.91306e-11 2.68588e-15 0)
(5.49168e-07 -2.35612e-15 0)
(0.000226515 1.63115e-15 0)
(0.00875799 -4.96658e-15 0)
(0.0521007 1.11716e-15 0)
(0.38619 4.15733e-15 0)
(-0.38619 -1.02369e-15 0)
(-0.0521007 -2.83728e-15 0)
(-0.00875799 -4.31766e-15 0)
(-0.000226515 -6.8747e-16 0)
(-5.49168e-07 -6.89996e-15 0)
(-7.91257e-11 -4.624e-15 0)
(-2.03846e-15 0 0)
(-5.93212e-21 0 0)
(-8.65328e-25 0 0)
(-3.31544e-24 0 0)
(-5.52503e-19 -3.99755e-17 0)
(1.17907e-21 2.95289e-17 0)
(-4.17368e-25 0 0)
(-7.03811e-21 -6.95044e-17 0)
(-4.49703e-18 -1.88735e-17 0)
(5.44033e-18 0 0)
(-7.76132e-19 0 0)
(7.96236e-20 0 0)
(2.12865e-22 0 0)
(1.43243e-18 -7.50063e-17 0)
(-1.72062e-18 -1.99878e-17 0)
(2.14588e-18 -7.50063e-17 0)
(-7.87101e-19 -6.80419e-17 0)
(-5.70262e-23 0 0)
(-7.96864e-23 2.59075e-17 0)
(-9.42761e-24 0 0)
(6.38398e-17 0 0)
(-2.86318e-22 0 0)
(-6.38328e-17 0 0)
(-8.04844e-26 0 0)
(8.56373e-17 0 0)
(-8.61685e-17 -6.96437e-17 0)
(1.98432e-17 -4.01148e-17 0)
(2.09786e-15 -5.41132e-17 0)
(7.91309e-11 -2.67738e-15 0)
(5.49168e-07 -2.89056e-15 0)
(0.000226515 -1.08289e-14 0)
(0.00875799 -7.835e-15 0)
(0.0521007 -3.72899e-15 0)
(0.38619 -6.62997e-15 0)
(-0.38619 5.28168e-15 0)
(-0.0521007 1.49084e-14 0)
(-0.00875799 2.88661e-15 0)
(-0.000226515 1.67503e-15 0)
(-5.49168e-07 2.13643e-14 0)
(-7.9123e-11 3.71793e-15 0)
(-2.10408e-15 3.47947e-15 0)
(-1.35556e-18 3.36686e-15 0)
(-3.10825e-20 3.39659e-15 0)
(-1.04872e-22 3.37654e-15 0)
(6.92433e-17 3.47272e-15 0)
(1.46044e-19 3.39708e-15 0)
(7.74711e-20 3.47627e-15 0)
(-2.06234e-19 3.44026e-15 0)
(-3.19598e-17 3.31831e-15 0)
(6.4059e-17 3.37361e-15 0)
(-3.18924e-17 3.46944e-15 0)
(-6.89816e-17 3.39081e-15 0)
(5.15744e-21 3.35557e-15 0)
(4.81083e-17 3.35369e-15 0)
(-4.77608e-17 3.43302e-15 0)
(4.78336e-17 3.35369e-15 0)
(-4.80421e-17 3.44952e-15 0)
(-1.43196e-19 3.37264e-15 0)
(-8.86992e-21 3.36456e-15 0)
(4.11895e-21 3.3546e-15 0)
(1.12583e-19 3.35432e-15 0)
(-1.53708e-19 3.38768e-15 0)
(4.86356e-20 3.35537e-15 0)
(-2.56951e-21 3.3709e-15 0)
(-1.13644e-19 3.35474e-15 0)
(4.37213e-17 3.34457e-15 0)
(-6.36512e-17 3.42974e-15 0)
(2.08805e-15 3.32166e-15 0)
(7.91232e-11 3.42438e-16 0)
(5.49168e-07 6.88986e-15 0)
(0.000226515 2.26958e-15 0)
(0.00875799 8.47528e-15 0)
(0.0521007 -6.38663e-16 0)
(0.38619 -2.24818e-15 0)
(-0.38619 1.21202e-10 0)
(-0.0521007 1.20268e-10 0)
(-0.00875799 1.2667e-10 0)
(-0.000226515 1.27323e-10 0)
(-5.49168e-07 1.27328e-10 0)
(-7.91264e-11 1.27365e-10 0)
(-5.50447e-15 1.2736e-10 0)
(-5.0075e-15 1.27356e-10 0)
(-8.76892e-16 1.27348e-10 0)
(-1.58651e-16 1.27351e-10 0)
(-1.43705e-15 1.27347e-10 0)
(3.32214e-15 1.27347e-10 0)
(2.26568e-15 1.27355e-10 0)
(-3.53577e-15 1.27354e-10 0)
(-1.96914e-15 1.27347e-10 0)
(2.02705e-15 1.27348e-10 0)
(-1.20882e-16 1.27351e-10 0)
(-2.34e-15 1.27348e-10 0)
(-1.24411e-16 1.27346e-10 0)
(4.68512e-18 1.27346e-10 0)
(1.79158e-16 1.27346e-10 0)
(2.0846e-15 1.27347e-10 0)
(2.43064e-16 1.27352e-10 0)
(-2.21553e-15 1.27348e-10 0)
(-2.99637e-16 1.27346e-10 0)
(1.7532e-16 1.27346e-10 0)
(2.08525e-15 1.27347e-10 0)
(1.38981e-16 1.27352e-10 0)
(1.15133e-15 1.27348e-10 0)
(-6.48308e-17 1.27355e-10 0)
(-2.80356e-15 1.27348e-10 0)
(1.6794e-15 1.27347e-10 0)
(-1.3398e-16 1.27352e-10 0)
(4.51033e-16 1.27347e-10 0)
(7.91371e-11 1.27362e-10 0)
(5.49168e-07 1.2733e-10 0)
(0.000226515 1.27328e-10 0)
(0.00875799 1.26694e-10 0)
(0.0521007 1.20251e-10 0)
(0.38619 1.21201e-10 0)
(-0.38619 7.2132e-07 0)
(-0.0521007 7.21836e-07 0)
(-0.00875798 7.48695e-07 0)
(-0.000226515 7.50599e-07 0)
(-5.49168e-07 7.50703e-07 0)
(-7.91174e-11 7.50703e-07 0)
(-1.10412e-14 7.50703e-07 0)
(-9.94853e-15 7.50703e-07 0)
(1.58834e-15 7.50703e-07 0)
(1.45102e-16 7.50703e-07 0)
(-8.02032e-15 7.50703e-07 0)
(-5.0335e-16 7.50703e-07 0)
(1.34986e-15 7.50703e-07 0)
(6.81357e-15 7.50703e-07 0)
(3.59704e-15 7.50703e-07 0)
(-3.13959e-15 7.50703e-07 0)
(9.61243e-16 7.50703e-07 0)
(7.45895e-15 7.50703e-07 0)
(2.72208e-15 7.50703e-07 0)
(-2.99576e-15 7.50703e-07 0)
(7.60015e-16 7.50703e-07 0)
(2.13086e-15 7.50703e-07 0)
(1.48564e-15 7.50703e-07 0)
(-2.38395e-16 7.50703e-07 0)
(-4.61798e-15 7.50703e-07 0)
(-7.88785e-16 7.50703e-07 0)
(-3.62536e-15 7.50703e-07 0)
(-1.70434e-15 7.50703e-07 0)
(6.65523e-15 7.50703e-07 0)
(1.04852e-16 7.50703e-07 0)
(-4.03976e-15 7.50703e-07 0)
(-7.22856e-15 7.50703e-07 0)
(-1.18993e-15 7.50703e-07 0)
(1.97954e-14 7.50703e-07 0)
(7.9129e-11 7.50703e-07 0)
(5.49168e-07 7.50703e-07 0)
(0.000226515 7.50599e-07 0)
(0.00875798 7.48695e-07 0)
(0.0521007 7.21836e-07 0)
(0.38619 7.2132e-07 0)
(-0.38619 0.000264763 0)
(-0.0521013 0.000265838 0)
(-0.0087575 0.000272947 0)
(-0.000226492 0.00027306 0)
(-5.49077e-07 0.000273082 0)
(-7.91321e-11 0.000273082 0)
(-7.6175e-16 0.000273082 0)
(8.23062e-15 0.000273082 0)
(1.0018e-14 0.000273082 0)
(-4.67871e-15 0.000273082 0)
(-1.79048e-15 0.000273082 0)
(1.62492e-15 0.000273082 0)
(-1.07992e-15 0.000273082 0)
(5.58389e-15 0.000273082 0)
(-5.26689e-15 0.000273082 0)
(-8.07244e-15 0.000273082 0)
(2.57483e-15 0.000273082 0)
(1.60193e-16 0.000273082 0)
(-4.6073e-15 0.000273082 0)
(-7.81465e-16 0.000273082 0)
(6.17166e-16 0.000273082 0)
(5.3934e-15 0.000273082 0)
(8.50416e-16 0.000273082 0)
(4.65381e-15 0.000273082 0)
(5.8504e-15 0.000273082 0)
(-7.68753e-15 0.000273082 0)
(-3.39441e-15 0.000273082 0)
(-5.34381e-16 0.000273082 0)
(2.55753e-15 0.000273082 0)
(-1.4029e-16 0.000273082 0)
(-6.02552e-15 0.000273082 0)
(4.8302e-15 0.000273082 0)
(4.28953e-15 0.000273082 0)
(2.62879e-15 0.000273082 0)
(7.91179e-11 0.000273082 0)
(5.49077e-07 0.000273082 0)
(0.000226492 0.00027306 0)
(0.0087575 0.000272947 0)
(0.0521013 0.000265838 0)
(0.38619 0.000264763 0)
(-0.387409 0.00978574 0)
(-0.0523238 0.00947635 0)
(-0.00876885 0.00970897 0)
(-0.000226382 0.0096973 0)
(-5.47527e-07 0.00969774 0)
(-7.86743e-11 0.00969774 0)
(-8.04932e-16 0.00969774 0)
(-7.86148e-16 0.00969774 0)
(-1.63523e-15 0.00969774 0)
(6.7117e-15 0.00969774 0)
(-7.9386e-16 0.00969774 0)
(-1.8758e-15 0.00969774 0)
(5.69836e-15 0.00969774 0)
(1.85386e-15 0.00969774 0)
(-6.59479e-15 0.00969774 0)
(-5.99961e-15 0.00969774 0)
(4.03651e-16 0.00969774 0)
(-2.50128e-16 0.00969774 0)
(4.46606e-15 0.00969774 0)
(4.95346e-16 0.00969774 0)
(1.11704e-15 0.00969774 0)
(3.56872e-15 0.00969774 0)
(-3.38136e-15 0.00969774 0)
(1.97894e-15 0.00969774 0)
(-2.39844e-15 0.00969774 0)
(-7.87857e-15 0.00969774 0)
(3.48012e-15 0.00969774 0)
(8.29526e-16 0.00969774 0)
(-4.66282e-16 0.00969774 0)
(-1.00576e-15 0.00969774 0)
(-3.16414e-15 0.00969774 0)
(5.58382e-15 0.00969774 0)
(-1.25468e-15 0.00969774 0)
(-1.56668e-15 0.00969774 0)
(7.86775e-11 0.00969774 0)
(5.47527e-07 0.00969774 0)
(0.000226382 0.0096973 0)
(0.00876885 0.00970897 0)
(0.0523238 0.00947635 0)
(0.387409 0.00978574 0)
(-0.379341 0.0548246 0)
(-0.0511081 0.0542304 0)
(-0.00854323 0.0554179 0)
(-0.000220091 0.0552033 0)
(-5.26674e-07 0.0552028 0)
(-7.44365e-11 0.0552028 0)
(-9.38161e-15 0.0552028 0)
(-6.09494e-15 0.0552028 0)
(-1.31492e-15 0.0552028 0)
(4.4794e-15 0.0552028 0)
(1.02375e-15 0.0552028 0)
(3.26787e-15 0.0552028 0)
(-3.02399e-16 0.0552028 0)
(-3.69512e-15 0.0552028 0)
(7.56865e-15 0.0552028 0)
(2.1077e-15 0.0552028 0)
(-6.79077e-15 0.0552028 0)
(-2.44499e-15 0.0552028 0)
(-6.51952e-16 0.0552028 0)
(-2.70109e-15 0.0552028 0)
(2.80887e-16 0.0552028 0)
(5.04515e-15 0.0552028 0)
(1.84293e-15 0.0552028 0)
(-3.85431e-15 0.0552028 0)
(-1.34146e-15 0.0552028 0)
(-5.97132e-17 0.0552028 0)
(4.9713e-15 0.0552028 0)
(8.1818e-16 0.0552028 0)
(-6.00264e-15 0.0552028 0)
(-1.03171e-15 0.0552028 0)
(1.42461e-15 0.0552028 0)
(8.2789e-15 0.0552028 0)
(-3.12761e-15 0.0552028 0)
(-3.55851e-15 0.0552028 0)
(7.44488e-11 0.0552028 0)
(5.26674e-07 0.0552028 0)
(0.000220091 0.0552033 0)
(0.00854323 0.0554179 0)
(0.0511081 0.0542304 0)
(0.379341 0.0548246 0)
(-0.383233 0.394967 0)
(-0.0517118 0.391303 0)
(-0.00883541 0.398989 0)
(-0.000219147 0.397841 0)
(-5.26225e-07 0.397841 0)
(-7.50919e-11 0.397841 0)
(5.54352e-15 0.397841 0)
(4.94844e-15 0.397841 0)
(-9.63103e-15 0.397841 0)
(-2.89367e-15 0.397841 0)
(7.58183e-15 0.397841 0)
(2.74783e-15 0.397841 0)
(-1.86144e-15 0.397841 0)
(5.16806e-15 0.397841 0)
(3.34279e-15 0.397841 0)
(-6.37492e-15 0.397841 0)
(-7.55598e-15 0.397841 0)
(-1.98904e-15 0.397841 0)
(-2.03489e-15 0.397841 0)
(-4.96712e-16 0.397841 0)
(9.66225e-16 0.397841 0)
(7.33112e-15 0.397841 0)
(4.18161e-16 0.397841 0)
(-6.01425e-15 0.397841 0)
(4.14859e-15 0.397841 0)
(9.67949e-16 0.397841 0)
(4.21045e-16 0.397841 0)
(2.73532e-16 0.397841 0)
(-2.79281e-16 0.397841 0)
(-7.47263e-16 0.397841 0)
(-4.87024e-15 0.397841 0)
(6.16678e-15 0.397841 0)
(2.31233e-15 0.397841 0)
(9.43999e-16 0.397841 0)
(7.50817e-11 0.397841 0)
(5.26225e-07 0.397841 0)
(0.000219147 0.397841 0)
(0.00883541 0.398989 0)
(0.0517118 0.391303 0)
(0.383233 0.394967 0)
(-0.383233 -0.394967 0)
(-0.0517118 -0.391303 0)
(-0.00883541 -0.398989 0)
(-0.000219147 -0.397841 0)
(-5.26225e-07 -0.397841 0)
(-7.50769e-11 -0.397841 0)
(-2.88397e-15 -0.397841 0)
(-3.23546e-17 -0.397841 0)
(-4.64487e-15 -0.397841 0)
(4.09867e-15 -0.397841 0)
(5.91014e-15 -0.397841 0)
(-3.14171e-15 -0.397841 0)
(-4.63106e-15 -0.397841 0)
(5.47154e-16 -0.397841 0)
(-1.01218e-15 -0.397841 0)
(-3.9737e-15 -0.397841 0)
(3.68467e-15 -0.397841 0)
(3.3483e-15 -0.397841 0)
(4.31607e-15 -0.397841 0)
(-7.54075e-16 -0.397841 0)
(1.07883e-16 -0.397841 0)
(2.26698e-15 -0.397841 0)
(-1.06901e-15 -0.397841 0)
(2.04928e-16 -0.397841 0)
(-1.12371e-15 -0.397841 0)
(-2.87602e-15 -0.397841 0)
(5.9764e-16 -0.397841 0)
(-2.58789e-16 -0.397841 0)
(-1.8169e-15 -0.397841 0)
(2.03764e-16 -0.397841 0)
(1.63139e-15 -0.397841 0)
(2.03922e-15 -0.397841 0)
(-5.03727e-16 -0.397841 0)
(5.24893e-16 -0.397841 0)
(7.50809e-11 -0.397841 0)
(5.26225e-07 -0.397841 0)
(0.000219147 -0.397841 0)
(0.00883541 -0.398989 0)
(0.0517118 -0.391303 0)
(0.383233 -0.394967 0)
(-0.379341 -0.0548246 0)
(-0.0511081 -0.0542304 0)
(-0.00854323 -0.0554179 0)
(-0.000220091 -0.0552033 0)
(-5.26674e-07 -0.0552028 0)
(-7.44306e-11 -0.0552028 0)
(-1.33746e-14 -0.0552028 0)
(-7.41555e-15 -0.0552028 0)
(-9.73947e-16 -0.0552028 0)
(9.85165e-15 -0.0552028 0)
(1.08681e-15 -0.0552028 0)