/*--------------------------------*- C++ -*----------------------------------*\
| =========                 |                                                 |
| \\      /  F ield         | OpenFOAM: The Open Source CFD Toolbox           |
|  \\    /   O peration     | Version:  v1912                                 |
|   \\  /    A nd           | Website:  www.openfoam.com                      |
|    \\/     M anipulation  |                                                 |
\*---------------------------------------------------------------------------*/
FoamFile
{
    version     2.0;
    format      ascii;
    class       volScalarField;
    location    "3.06";
    object      T;
}
// * * * * * * * * * * * * * * * * * * * * * * * * * * * * * * * * * * * * * //

dimensions      [0 0 0 1 0 0 0];


internalField   nonuniform List<scalar> 
1900
(
1.14244
1.02181
1.02727
1.03355
1.03659
1.03842
1.04014
1.04267
1.04614
1.05002
1.14244
1.02181
1.02727
1.03356
1.0366
1.03842
1.04002
1.04206
1.04452
1.04824
1.14244
1.02181
1.02727
1.03355
1.03658
1.03838
1.03999
1.04206
1.04476
1.04801
1.14244
1.02181
1.02727
1.03356
1.0366
1.03842
1.04002
1.04206
1.04452
1.04824
1.14244
1.02181
1.02727
1.03355
1.03659
1.03842
1.04014
1.04267
1.04614
1.05002
1.04779
1.04983
1.04804
1.03101
0.969359
1.05053
1.05224
1.04854
1.03595
0.995391
1.04992
1.0512
1.04633
1.0297
0.98792
1.05053
1.05224
1.04854
1.03595
0.995391
1.04779
1.04983
1.04804
1.03101
0.969359
1.01558
0.974982
0.953856
0.931242
0.896185
1.00935
0.973681
0.954483
0.935759
0.912872
1.00765
0.973534
0.953382
0.935424
0.915983
1.00935
0.973681
0.954483
0.935759
0.912872
1.01558
0.974982
0.953856
0.931242
0.896185
0.804362
0.725036
0.784185
0.802036
0.787574
0.776607
0.774
0.775099
0.77716
0.781014
0.786381
0.792991
0.800529
0.808495
0.816156
0.822731
0.827674
0.830963
0.832633
0.833445
0.833202
0.83186
0.829617
0.825621
0.819793
0.812065
0.802861
0.792841
0.782654
0.772772
0.763451
0.754758
0.746593
0.73883
0.731379
0.725147
0.721043
0.717491
0.657175
0.560913
0.889399
0.760014
0.797062
0.805241
0.78924
0.777018
0.774239
0.775287
0.777331
0.781147
0.786507
0.793113
0.800647
0.808609
0.816264
0.822832
0.82777
0.831055
0.832723
0.833534
0.83329
0.83195
0.829709
0.825715
0.819891
0.812166
0.802966
0.792947
0.782761
0.772879
0.763559
0.754867
0.746703
0.738937
0.731482
0.725249
0.721125
0.717595
0.657238
0.561559
0.887799
0.784007
0.806047
0.807551
0.790146
0.777249
0.774371
0.775403
0.777425
0.781223
0.786576
0.793175
0.800705
0.808662
0.816312
0.822876
0.827811
0.831094
0.832761
0.833571
0.833327
0.831987
0.829747
0.825755
0.819934
0.812212
0.803016
0.793001
0.78282
0.772943
0.763628
0.754943
0.746788
0.739031
0.731584
0.725362
0.721242
0.717735
0.657519
0.563534
0.889399
0.760014
0.797062
0.805241
0.78924
0.777018
0.774239
0.775287
0.777331
0.781147
0.786507
0.793113
0.800647
0.808609
0.816264
0.822832
0.82777
0.831055
0.832723
0.833534
0.83329
0.83195
0.829709
0.825715
0.819891
0.812166
0.802966
0.792947
0.782761
0.772879
0.763559
0.754867
0.746703
0.738937
0.731482
0.725249
0.721125
0.717595
0.657238
0.561559
0.804362
0.725036
0.784185
0.802036
0.787574
0.776607
0.774
0.775099
0.77716
0.781014
0.786381
0.792991
0.800529
0.808495
0.816156
0.822731
0.827674
0.830963
0.832633
0.833445
0.833202
0.83186
0.829617
0.825621
0.819793
0.812065
0.802861
0.792841
0.782654
0.772772
0.763451
0.754758
0.746593
0.73883
0.731379
0.725147
0.721043
0.717491
0.657175
0.560913
0.61311
0.677317
0.77211
0.789074
0.781244
0.774216
0.772607
0.773942
0.7762
0.78024
0.785657
0.792301
0.799863
0.80786
0.815554
0.822159
0.827128
0.830437
0.832119
0.83294
0.832697
0.831348
0.829096
0.825084
0.819239
0.811492
0.802272
0.792238
0.782042
0.772152
0.762822
0.754119
0.745942
0.738187
0.73076
0.724529
0.720465
0.716979
0.657809
0.558841
0.533252
0.677894
0.759815
0.768165
0.769071
0.767655
0.768152
0.770168
0.773335
0.777717
0.783308
0.790062
0.797723
0.80583
0.813638
0.820348
0.825404
0.828779
0.830502
0.831349
0.831107
0.829735
0.827449
0.823383
0.817472
0.809651
0.800357
0.790255
0.779996
0.770044
0.760641
0.751848
0.743572
0.735718
0.728264
0.721907
0.717756
0.714224
0.655761
0.553562
0.521017
0.67744
0.743762
0.752114
0.756706
0.758936
0.761515
0.764636
0.768444
0.773355
0.779202
0.786137
0.793961
0.802241
0.810222
0.817092
0.82228
0.825757
0.827539
0.828428
0.828185
0.826775
0.824436
0.820286
0.814276
0.806344
0.796942
0.786739
0.776394
0.766348
0.756839
0.747917
0.739509
0.731504
0.724015
0.717433
0.713088
0.709452
0.652093
0.546191
0.526317
0.669682
0.728973
0.73826
0.744076
0.748643
0.752627
0.756839
0.761368
0.766726
0.772886
0.780055
0.788111
0.796619
0.804838
0.811923
0.817292
0.820906
0.822772
0.823716
0.823471
0.822009
0.819595
0.815332
0.809182
0.801102
0.791544
0.781217
0.770736
0.760573
0.750916
0.741808
0.733248
0.725042
0.71748
0.71058
0.705932
0.702194
0.646813
0.538092
0.515211
0.659388
0.714689
0.724037
0.730978
0.737032
0.742034
0.747058
0.752163
0.757875
0.764333
0.771762
0.780052
0.788828
0.797296
0.804631
0.810204
0.813977
0.815939
0.816948
0.816698
0.815174
0.812672
0.808274
0.801968
0.793706
0.784003
0.773508
0.762939
0.752623
0.742836
0.733572
0.724896
0.71654
0.708931
0.701777
0.696758
0.69294
0.64005
0.529915
0.510478
0.648654
0.700978
0.7102
0.717853
0.724656
0.730388
0.735941
0.741414
0.747387
0.7541
0.761735
0.770285
0.779255
0.787981
0.795534
0.801314
0.805244
0.807305
0.808381
0.808126
0.806538
0.803945
0.799419
0.792953
0.784554
0.774684
0.764152
0.753458
0.74313
0.733274
0.723912
0.715255
0.706887
0.699275
0.691995
0.686523
0.68241
0.63211
0.521528
0.505578
0.637937
0.688039
0.696946
0.705122
0.712313
0.71846
0.72427
0.729934
0.736078
0.74299
0.750861
0.759539
0.768736
0.777605
0.785368
0.791312
0.795384
0.797532
0.798672
0.798415
0.796771
0.794105
0.78947
0.782898
0.77436
0.764479
0.753849
0.743267
0.732894
0.723083
0.71377
0.705184
0.696892
0.689344
0.682004
0.676071
0.671727
0.623905
0.513678
0.499065
0.627399
0.675727
0.684239
0.692785
0.700217
0.706618
0.712507
0.71829
0.724618
0.73174
0.739759
0.748663
0.757925
0.766988
0.774873
0.780972
0.785159
0.787384
0.788585
0.788332
0.786644
0.783925
0.779219
0.772547
0.763981
0.754007
0.743514
0.732898
0.72266
0.712924
0.703594
0.695162
0.686966
0.679429
0.671959
0.665648
0.661141
0.615426
0.505677
0.49381
0.61804
0.664541
0.672555
0.681285
0.6888
0.695295
0.701113
0.706964
0.713401
0.720751
0.728971
0.73796
0.747405
0.756541
0.764599
0.770819
0.775122
0.777417
0.778684
0.778442
0.776716
0.77396
0.769184
0.762456
0.75379
0.743876
0.733338
0.722898
0.712702
0.703028
0.693834
0.685486
0.67739
0.669903
0.662325
0.655713
0.651112
0.607741
0.498431
0.488537
0.608709
0.653652
0.661247
0.669911
0.677457
0.684041
0.689864
0.695832
0.702565
0.710073
0.718547
0.7277
0.737252
0.746549
0.754746
0.761124
0.765548
0.767924
0.769268
0.769042
0.767278
0.76448
0.759633
0.752801
0.744076
0.734094
0.723618
0.713211
0.703022
0.69351
0.684217
0.675997
0.667917
0.66038
0.652617
0.64571
0.641005
0.599432
0.491113
0.483772
0.600516
0.643794
0.651132
0.659479
0.667035
0.673651
0.679467
0.685585
0.692348
0.700151
0.708686
0.718009
0.727627
0.737052
0.7454
0.751946
0.756514
0.758988
0.760427
0.760223
0.75841
0.755558
0.750616
0.743667
0.734851
0.724833
0.714413
0.704032
0.694004
0.684502
0.675374
0.667193
0.65919
0.651655
0.643745
0.636575
0.631763
0.592489
0.484623
0.478892
0.592378
0.634102
0.641227
0.649074
0.656665
0.663273
0.669187
0.675485
0.682497
0.690485
0.69926
0.708669
0.718423
0.727956
0.7365
0.743239
0.74798
0.750569
0.752122
0.751944
0.75007
0.747152
0.742083
0.734989
0.726026
0.715985
0.705527
0.695267
0.685167
0.67581
0.666643
0.658554
0.650546
0.64294
0.634807
0.627368
0.622473
0.584875
0.47833
0.47436
0.584966
0.624906
0.631832
0.639533
0.64723
0.653835
0.659922
0.666469
0.673638
0.681815
0.690682
0.700114
0.709868
0.719423
0.728057
0.734938
0.739833
0.742543
0.744224
0.744076
0.742131
0.739145
0.733967
0.726769
0.717761
0.707757
0.697395
0.687256
0.67725
0.667978
0.658886
0.650775
0.642743
0.63503
0.626697
0.618967
0.613935
0.578459
0.472936
0.469824
0.577813
0.615978
0.622567
0.630097
0.637938
0.644478
0.650782
0.657557
0.664924
0.673295
0.68223
0.69174
0.701485
0.711113
0.71989
0.726981
0.732057
0.734887
0.736698
0.736582
0.734566
0.731514
0.726202
0.718839
0.709732
0.699726
0.689452
0.679403
0.669457
0.660274
0.651163
0.643039
0.634944
0.627076
0.618505
0.610507
0.605407
0.571697
0.467767
0.466219
0.570797
0.606965
0.61317
0.620696
0.628634
0.635358
0.641937
0.649038
0.656706
0.665363
0.674418
0.684083
0.693883
0.703605
0.712472
0.719666
0.724811
0.727689
0.729588
0.729504
0.727455
0.724406
0.719067
0.711645
0.702488
0.69246
0.682182
0.672134
0.662156
0.652953
0.643753
0.635529
0.627273
0.619175
0.610396
0.602178
0.597032
0.565408
0.463727
0.462246
0.56408
0.597883
0.603541
0.610932
0.618876
0.625718
0.632722
0.640296
0.648325
0.65746
0.666764
0.676702
0.686673
0.696593
0.705773
0.713324
0.718775
0.721827
0.723869
0.723815
0.721673
0.718504
0.712908
0.705183
0.695758
0.685602
0.675192
0.665039
0.654854
0.645473
0.636035
0.627579
0.619034
0.610703
0.601772
0.593424
0.588363
0.55883
0.459101
0.461639
0.557765
0.58915
0.593855
0.601238
0.609318
0.61668
0.624245
0.63241
0.640922
0.650544
0.660289
0.67073
0.681241
0.691686
0.70122
0.70913
0.714865
0.718056
0.720163
0.720132
0.717965
0.714703
0.708864
0.700831
0.691095
0.680488
0.669584
0.65905
0.648532
0.638888
0.629173
0.62039
0.611538
0.602949
0.593861
0.585386
0.58083
0.553635
0.459145
0.467549
0.556284
0.5862
0.588789
0.595772
0.60382
0.611477
0.619344
0.627728
0.636507
0.646196
0.656117
0.666703
0.677504
0.688043
0.697602
0.7055
0.711234
0.714441
0.716739
0.716721
0.714382
0.711121
0.705294
0.697278
0.687528
0.676884
0.665745
0.655101
0.644502
0.634792
0.625019
0.616119
0.607211
0.598574
0.589557
0.581587
0.578786
0.552405
0.464704
0.45444
0.532039
0.560711
0.561816
0.565945
0.571678
0.576993
0.583203
0.58931
0.596503
0.603757
0.611775
0.619923
0.628244
0.635954
0.64263
0.647927
0.651822
0.653933
0.657241
0.657247
0.653929
0.651796
0.647839
0.642452
0.635624
0.627814
0.619162
0.610964
0.602257
0.594959
0.586908
0.58027
0.573168
0.566704
0.559821
0.554229
0.552625
0.525697
0.443857
0.388797
0.445961
0.467144
0.461113
0.460591
0.465051
0.468933
0.474223
0.479726
0.486273
0.492984
0.500609
0.50815
0.5164
0.524432
0.532902
0.540982
0.548689
0.554549
0.559728
0.559734
0.554555
0.548697
0.54099
0.532909
0.524432
0.516396
0.508118
0.500567
0.492873
0.486119
0.479482
0.473843
0.468402
0.46421
0.45953
0.459101
0.464737
0.444722
0.387054
0.388797
0.445961
0.467144
0.461113
0.460591
0.465051
0.468933
0.474223
0.479726
0.486273
0.492984
0.500609
0.50815
0.5164
0.524432
0.532902
0.540982
0.548689
0.554549
0.559728
0.559734
0.554555
0.548697
0.54099
0.532909
0.524432
0.516396
0.508118
0.500567
0.492873
0.486119
0.479482
0.473843
0.468402
0.46421
0.45953
0.459101
0.464737
0.444722
0.387054
0.45444
0.532039
0.560711
0.561816
0.565945
0.571678
0.576993
0.583203
0.58931
0.596503
0.603757
0.611775
0.619923
0.628244
0.635954
0.64263
0.647927
0.651822
0.653933
0.657241
0.657247
0.653929
0.651796
0.647839
0.642452
0.635624
0.627814
0.619162
0.610964
0.602257
0.594959
0.586908
0.58027
0.573168
0.566704
0.559821
0.554229
0.552625
0.525697
0.443857
0.467549
0.556284
0.5862
0.588789
0.595772
0.60382
0.611477
0.619344
0.627728
0.636507
0.646196
0.656117
0.666703
0.677504
0.688043
0.697602
0.7055
0.711234
0.714441
0.716739
0.716721
0.714382
0.711121
0.705294
0.697278
0.687528
0.676884
0.665745
0.655101
0.644502
0.634792
0.625019
0.616119
0.607211
0.598574
0.589557
0.581587
0.578786
0.552405
0.464704
0.461639
0.557765
0.58915
0.593855
0.601238
0.609318
0.61668
0.624245
0.63241
0.640922
0.650544
0.660289
0.67073
0.681241
0.691686
0.70122
0.70913
0.714865
0.718056
0.720163
0.720132
0.717965
0.714703
0.708864
0.700831
0.691095
0.680488
0.669584
0.65905
0.648532
0.638888
0.629173
0.62039
0.611538
0.602949
0.593861
0.585386
0.58083
0.553635
0.459145
0.462246
0.56408
0.597883
0.603541
0.610932
0.618876
0.625718
0.632722
0.640296
0.648325
0.65746
0.666764
0.676702
0.686673
0.696593
0.705773
0.713324
0.718775
0.721827
0.723869
0.723815
0.721673
0.718504
0.712908
0.705183
0.695758
0.685602
0.675192
0.665039
0.654854
0.645473
0.636035
0.627579
0.619034
0.610703
0.601772
0.593424
0.588363
0.55883
0.459101
0.466219
0.570797
0.606965
0.61317
0.620696
0.628634
0.635358
0.641937
0.649038
0.656706
0.665363
0.674418
0.684083
0.693883
0.703605
0.712472
0.719666
0.724811
0.727689
0.729588
0.729504
0.727455
0.724406
0.719067
0.711645
0.702488
0.69246
0.682182
0.672134
0.662156
0.652953
0.643753
0.635529
0.627273
0.619175
0.610396
0.602178
0.597032
0.565408
0.463727
0.469824
0.577813
0.615978
0.622567
0.630097
0.637938
0.644478
0.650782
0.657557
0.664924
0.673295
0.68223
0.69174
0.701485
0.711113
0.71989
0.726981
0.732057
0.734887
0.736698
0.736582
0.734566
0.731514
0.726202
0.718839
0.709732
0.699726
0.689452
0.679403
0.669457
0.660274
0.651163
0.643039
0.634944
0.627076
0.618505
0.610507
0.605407
0.571697
0.467767
0.47436
0.584966
0.624906
0.631832
0.639533
0.64723
0.653835
0.659922
0.666469
0.673638
0.681815
0.690682
0.700114
0.709868
0.719423
0.728057
0.734938
0.739833
0.742543
0.744224
0.744076
0.742131
0.739145
0.733967
0.726769
0.717761
0.707757
0.697395
0.687256
0.67725
0.667978
0.658886
0.650775
0.642743
0.63503
0.626697
0.618967
0.613935
0.578459
0.472936
0.478892
0.592378
0.634102
0.641227
0.649074
0.656665
0.663273
0.669187
0.675485
0.682497
0.690485
0.69926
0.708669
0.718423
0.727956
0.7365
0.743239
0.74798
0.750569
0.752122
0.751944
0.75007
0.747152
0.742083
0.734989
0.726026
0.715985
0.705527
0.695267
0.685167
0.67581
0.666643
0.658554
0.650546
0.64294
0.634807
0.627368
0.622473
0.584875
0.47833
0.483772
0.600516
0.643794
0.651132
0.659479
0.667035
0.673651
0.679467
0.685585
0.692348
0.700151
0.708686
0.718009
0.727627
0.737052
0.7454
0.751946
0.756514
0.758988
0.760427
0.760223
0.75841
0.755558
0.750616
0.743667
0.734851
0.724833
0.714413
0.704032
0.694004
0.684502
0.675374
0.667193
0.65919
0.651655
0.643745
0.636575
0.631763
0.592489
0.484623
0.488537
0.608709
0.653652
0.661247
0.669911
0.677457
0.684041
0.689864
0.695832
0.702565
0.710073
0.718547
0.7277
0.737252
0.746549
0.754746
0.761124
0.765548
0.767924
0.769268
0.769042
0.767278
0.76448
0.759633
0.752801
0.744076
0.734094
0.723618
0.713211
0.703022
0.69351
0.684217
0.675997
0.667917
0.66038
0.652617
0.64571
0.641005
0.599432
0.491113
0.49381
0.61804
0.664541
0.672555
0.681285
0.6888
0.695295
0.701113
0.706964
0.713401
0.720751
0.728971
0.73796
0.747405
0.756541
0.764599
0.770819
0.775122
0.777417
0.778684
0.778442
0.776716
0.77396
0.769184
0.762456
0.75379
0.743876
0.733338
0.722898
0.712702
0.703028
0.693834
0.685486
0.67739
0.669903
0.662325
0.655713
0.651112
0.607741
0.498431
0.499065
0.627399
0.675727
0.684239
0.692785
0.700217
0.706618
0.712507
0.71829
0.724618
0.73174
0.739759
0.748663
0.757925
0.766988
0.774873
0.780972
0.785159
0.787384
0.788585
0.788332
0.786644
0.783925
0.779219
0.772547
0.763981
0.754007
0.743514
0.732898
0.72266
0.712924
0.703594
0.695162
0.686966
0.679429
0.671959
0.665648
0.661141
0.615426
0.505677
0.505578
0.637937
0.688039
0.696946
0.705122
0.712313
0.71846
0.72427
0.729934
0.736078
0.74299
0.750861
0.759539
0.768736
0.777605
0.785368
0.791312
0.795384
0.797532
0.798672
0.798415
0.796771
0.794105
0.78947
0.782898
0.77436
0.764479
0.753849
0.743267
0.732894
0.723083
0.71377
0.705184
0.696892
0.689344
0.682004
0.676071
0.671727
0.623905
0.513678
0.510478
0.648654
0.700978
0.7102
0.717853
0.724656
0.730388
0.735941
0.741414
0.747387
0.7541
0.761735
0.770285
0.779255
0.787981
0.795534
0.801314
0.805244
0.807305
0.808381
0.808126
0.806538
0.803945
0.799419
0.792953
0.784554
0.774684
0.764152
0.753458
0.74313
0.733274
0.723912
0.715255
0.706887
0.699275
0.691995
0.686523
0.68241
0.63211
0.521528
0.515211
0.659388
0.714689
0.724037
0.730978
0.737032
0.742034
0.747058
0.752163
0.757875
0.764333
0.771762
0.780052
0.788828
0.797296
0.804631
0.810204
0.813977
0.815939
0.816948
0.816698
0.815174
0.812672
0.808274
0.801968
0.793706
0.784003
0.773508
0.762939
0.752623
0.742836
0.733572
0.724896
0.71654
0.708931
0.701777
0.696758
0.69294
0.64005
0.529915
0.526317
0.669682
0.728973
0.73826
0.744076
0.748643
0.752627
0.756839
0.761368
0.766726
0.772886
0.780055
0.788111
0.796619
0.804838
0.811923
0.817292
0.820906
0.822772
0.823716
0.823471
0.822009
0.819595
0.815332
0.809182
0.801102
0.791544
0.781217
0.770736
0.760573
0.750916
0.741808
0.733248
0.725042
0.71748
0.71058
0.705932
0.702194
0.646813
0.538092
0.521017
0.67744
0.743762
0.752114
0.756706
0.758936
0.761515
0.764636
0.768444
0.773355
0.779202
0.786137
0.793961
0.802241
0.810222
0.817092
0.82228
0.825757
0.827539
0.828428
0.828185
0.826775
0.824436
0.820286
0.814276
0.806344
0.796942
0.786739
0.776394
0.766348
0.756839
0.747917
0.739509
0.731504
0.724015
0.717433
0.713088
0.709452
0.652093
0.546191
0.533252
0.677894
0.759815
0.768165
0.769071
0.767655
0.768152
0.770168
0.773335
0.777717
0.783308
0.790062
0.797723
0.80583
0.813638
0.820348
0.825404
0.828779
0.830502
0.831349
0.831107
0.829735
0.827449
0.823383
0.817472
0.809651
0.800357
0.790255
0.779996
0.770044
0.760641
0.751848
0.743572
0.735718
0.728264
0.721907
0.717756
0.714224
0.655761
0.553562
0.61311
0.677317
0.77211
0.789074
0.781244
0.774216
0.772607
0.773942
0.7762
0.78024
0.785657
0.792301
0.799863
0.80786
0.815554
0.822159
0.827128
0.830437
0.832119
0.83294
0.832697
0.831348
0.829096
0.825084
0.819239
0.811492
0.802272
0.792238
0.782042
0.772152
0.762822
0.754119
0.745942
0.738187
0.73076
0.724529
0.720465
0.716979
0.657809
0.558841
)
;

boundaryField
{
    inlet
    {
        type            fixedValue;
        value           uniform 1;
    }
    outlet
    {
        type            zeroGradient;
    }
    obstacle
    {
        type            zeroGradient;
    }
    empty
    {
        type            empty;
    }
}


// ************************************************************************* //
