/*--------------------------------*- C++ -*----------------------------------*\
| =========                 |                                                 |
| \\      /  F ield         | OpenFOAM: The Open Source CFD Toolbox           |
|  \\    /   O peration     | Version:  v1912                                 |
|   \\  /    A nd           | Website:  www.openfoam.com                      |
|    \\/     M anipulation  |                                                 |
\*---------------------------------------------------------------------------*/
FoamFile
{
    version     2.0;
    format      ascii;
    class       volScalarField;
    location    "2.36";
    object      T;
}
// * * * * * * * * * * * * * * * * * * * * * * * * * * * * * * * * * * * * * //

dimensions      [0 0 0 1 0 0 0];


internalField   nonuniform List<scalar> 
1900
(
1.09031
1.01849
1.02019
1.0221
1.02361
1.02503
1.02663
1.0286
1.03054
1.03349
1.09031
1.01849
1.02019
1.02211
1.02361
1.02502
1.02657
1.02824
1.02984
1.03268
1.09031
1.0185
1.0202
1.02211
1.02359
1.025
1.02657
1.02829
1.03005
1.0324
1.09031
1.01849
1.02019
1.02211
1.02361
1.02502
1.02657
1.02824
1.02984
1.03268
1.09031
1.01849
1.02019
1.0221
1.02361
1.02503
1.02663
1.0286
1.03054
1.03349
1.03229
1.03677
1.04111
1.04221
1.01217
1.03533
1.03971
1.04349
1.04713
1.0337
1.03493
1.03879
1.04193
1.04376
1.02854
1.03533
1.03971
1.04349
1.04713
1.0337
1.03229
1.03677
1.04111
1.04221
1.01217
1.06269
1.04456
1.03136
1.00199
0.955103
1.05677
1.04291
1.03051
1.01144
0.985142
1.0555
1.0425
1.02977
1.01223
0.990258
1.05677
1.04291
1.03051
1.01144
0.985142
1.06269
1.04456
1.03136
1.00199
0.955103
0.83286
0.772838
0.834847
0.851265
0.845081
0.844108
0.848379
0.855139
0.863369
0.873072
0.884588
0.897437
0.911243
0.925584
0.94012
0.954537
0.968428
0.98102
0.990726
0.995795
0.995692
0.990244
0.980154
0.967162
0.952834
0.93788
0.922623
0.907241
0.891859
0.876584
0.861539
0.846899
0.8329
0.819723
0.80732
0.795694
0.786337
0.778712
0.710219
0.598364
0.947747
0.816518
0.849914
0.853568
0.846291
0.844832
0.848855
0.855747
0.864003
0.873722
0.885278
0.898169
0.912029
0.926427
0.941025
0.955495
0.96943
0.982058
0.99179
0.99687
0.996768
0.99131
0.981203
0.968189
0.953832
0.938843
0.923544
0.908113
0.892673
0.877331
0.86221
0.847485
0.833395
0.820123
0.807628
0.795914
0.786503
0.778808
0.710251
0.598358
0.952799
0.844659
0.860276
0.855592
0.84662
0.845079
0.849015
0.855936
0.864205
0.873935
0.885507
0.898415
0.912295
0.926717
0.941338
0.955824
0.969773
0.982411
0.992151
0.997233
0.99713
0.991668
0.981554
0.968531
0.954162
0.939157
0.92384
0.908385
0.892918
0.877543
0.862387
0.847626
0.833501
0.820199
0.807681
0.795952
0.786541
0.778839
0.710265
0.598344
0.947747
0.816518
0.849914
0.853568
0.846291
0.844832
0.848855
0.855747
0.864003
0.873722
0.885278
0.898169
0.912029
0.926427
0.941025
0.955495
0.96943
0.982058
0.99179
0.99687
0.996768
0.99131
0.981203
0.968189
0.953832
0.938843
0.923544
0.908113
0.892673
0.877331
0.86221
0.847485
0.833395
0.820123
0.807628
0.795914
0.786503
0.778808
0.710251
0.598358
0.83286
0.772838
0.834847
0.851265
0.845081
0.844108
0.848379
0.855139
0.863369
0.873072
0.884588
0.897437
0.911243
0.925584
0.94012
0.954537
0.968428
0.98102
0.990726
0.995795
0.995692
0.990244
0.980154
0.967162
0.952834
0.93788
0.922623
0.907241
0.891859
0.876584
0.861539
0.846899
0.8329
0.819723
0.80732
0.795694
0.786337
0.778712
0.710219
0.598364
0.64138
0.726705
0.823718
0.840439
0.839711
0.84102
0.845912
0.852329
0.860455
0.870112
0.881526
0.894279
0.907971
0.922188
0.936597
0.95089
0.964664
0.977159
0.986795
0.991837
0.991739
0.986327
0.976296
0.963381
0.949145
0.934297
0.919159
0.903909
0.88867
0.873548
0.858666
0.844198
0.830379
0.817389
0.805177
0.793753
0.78456
0.777216
0.709129
0.598154
0.571106
0.726174
0.811039
0.82291
0.829184
0.833918
0.839611
0.846023
0.854035
0.863717
0.875027
0.887643
0.901153
0.915172
0.929382
0.943483
0.957083
0.969433
0.978971
0.983978
0.983892
0.978555
0.96864
0.955873
0.94181
0.927159
0.912242
0.897233
0.882254
0.86741
0.852822
0.838661
0.825159
0.812494
0.800602
0.789503
0.780624
0.773721
0.706312
0.59732
0.567653
0.724721
0.797241
0.80843
0.816916
0.82274
0.82877
0.835479
0.843522
0.853246
0.864495
0.876981
0.890307
0.904117
0.91811
0.931998
0.945397
0.957569
0.966972
0.971922
0.971854
0.966625
0.956868
0.944286
0.930423
0.915987
0.901297
0.886528
0.871803
0.857226
0.842917
0.829047
0.815843
0.803481
0.791893
0.781107
0.772667
0.766226
0.699836
0.5941
0.573437
0.716647
0.783382
0.794175
0.801503
0.808838
0.815401
0.822609
0.830909
0.840833
0.852194
0.864677
0.877919
0.891591
0.905417
0.919125
0.932342
0.94434
0.9536
0.958473
0.958422
0.953323
0.943742
0.931349
0.917677
0.903433
0.888937
0.874366
0.85984
0.845464
0.831359
0.817692
0.804686
0.79251
0.78111
0.770531
0.762523
0.756226
0.690899
0.587641
0.568829
0.702796
0.768261
0.778107
0.785964
0.793712
0.80072
0.808407
0.817167
0.827394
0.838925
0.851455
0.864645
0.878203
0.891878
0.905416
0.918457
0.930284
0.939393
0.944172
0.944137
0.93919
0.929803
0.917608
0.904127
0.890068
0.875755
0.861364
0.847016
0.832816
0.818884
0.80538
0.792524
0.780474
0.769227
0.758835
0.75118
0.744727
0.680784
0.57855
0.565995
0.68718
0.752624
0.762656
0.770551
0.778121
0.78553
0.793692
0.802925
0.81349
0.825215
0.837804
0.850957
0.864411
0.877947
0.891328
0.904207
0.915869
0.924817
0.92948
0.929459
0.924681
0.915507
0.903518
0.890228
0.876351
0.862213
0.847991
0.833809
0.819771
0.805992
0.792631
0.779894
0.767942
0.756854
0.746653
0.739205
0.732403
0.670313
0.56802
0.555575
0.673298
0.737398
0.747352
0.755125
0.762501
0.770241
0.778831
0.788499
0.799396
0.8113
0.823948
0.837061
0.850422
0.863833
0.877078
0.889811
0.901312
0.910086
0.914607
0.914598
0.910006
0.901061
0.889287
0.87619
0.86249
0.848522
0.834463
0.82044
0.806551
0.792921
0.779677
0.767053
0.755182
0.744271
0.734246
0.726853
0.719628
0.659823
0.55711
0.548347
0.660522
0.722446
0.732162
0.739865
0.747086
0.755065
0.764005
0.774087
0.785259
0.797338
0.81002
0.8231
0.836378
0.849685
0.862813
0.875414
0.886754
0.895336
0.899688
0.899686
0.895297
0.886597
0.875046
0.862142
0.848618
0.834813
0.820913
0.807037
0.793304
0.779789
0.766683
0.754132
0.742348
0.731625
0.721734
0.714281
0.706634
0.649381
0.545958
0.539978
0.648257
0.707673
0.717238
0.724822
0.731942
0.740105
0.749358
0.759757
0.771238
0.783411
0.796149
0.809188
0.822403
0.835624
0.848652
0.861128
0.872297
0.880663
0.88482
0.884822
0.880651
0.872213
0.860893
0.848182
0.834829
0.821185
0.807434
0.793715
0.780093
0.766755
0.753681
0.741293
0.729534
0.719004
0.709198
0.701619
0.693598
0.639053
0.535489
0.531001
0.636341
0.693091
0.702503
0.709953
0.71705
0.725421
0.734899
0.745723
0.757317
0.769692
0.782412
0.795454
0.808612
0.821766
0.834702
0.847053
0.858038
0.866159
0.870098
0.870101
0.866162
0.858003
0.846921
0.834403
0.82122
0.807727
0.794129
0.780524
0.767086
0.753768
0.740917
0.72851
0.716848
0.706478
0.696678
0.688923
0.680593
0.628688
0.5248
0.522373
0.625214
0.678962
0.688051
0.695311
0.702452
0.711124
0.720896
0.731915
0.743838
0.756179
0.769009
0.782011
0.795151
0.808244
0.821094
0.833313
0.844096
0.851945
0.855645
0.855648
0.851953
0.84409
0.833254
0.820928
0.807904
0.794561
0.781082
0.767639
0.754231
0.741178
0.728241
0.716085
0.704446
0.694131
0.684383
0.676436
0.667932
0.618755
0.51521
0.512923
0.614079
0.664726
0.673348
0.680724
0.688218
0.697263
0.707343
0.718699
0.730613
0.743208
0.756007
0.769074
0.782186
0.795239
0.808004
0.820085
0.830648
0.8382
0.841645
0.841647
0.838208
0.830656
0.82007
0.80793
0.795057
0.781835
0.768482
0.755089
0.741864
0.728732
0.716065
0.703895
0.692276
0.682123
0.672181
0.663971
0.655321
0.608499
0.505378
0.504216
0.604267
0.651438
0.659434
0.667102
0.67492
0.684504
0.694665
0.706246
0.718336
0.730906
0.743797
0.75684
0.769952
0.78296
0.795645
0.807585
0.817914
0.825148
0.828329
0.828331
0.825154
0.817925
0.807592
0.795627
0.782884
0.769776
0.756509
0.74325
0.730052
0.717132
0.704468
0.692427
0.681054
0.670775
0.66083
0.652402
0.643798
0.599705
0.497165
0.494746
0.593821
0.63769
0.645542
0.653658
0.662427
0.672217
0.682976
0.694499
0.706801
0.719452
0.732386
0.745455
0.758545
0.771514
0.784123
0.795924
0.806014
0.812915
0.815825
0.815826
0.812918
0.806023
0.795938
0.784132
0.771501
0.758483
0.745307
0.73211
0.718984
0.706105
0.693417
0.681617
0.670021
0.65987
0.649547
0.640749
0.632074
0.590011
0.48858
0.486661
0.584547
0.625161
0.633005
0.641674
0.651422
0.661606
0.672624
0.684372
0.696661
0.709314
0.722145
0.735075
0.748012
0.760825
0.773287
0.784921
0.794763
0.801328
0.803973
0.803973
0.80133
0.794769
0.784934
0.773305
0.760841
0.748012
0.735041
0.722048
0.709117
0.696339
0.683827
0.67192
0.660409
0.650007
0.63933
0.63012
0.621504
0.582055
0.482042
0.477876
0.574766
0.612578
0.620507
0.629725
0.640448
0.65101
0.662594
0.674415
0.686945
0.699639
0.712499
0.725372
0.738179
0.750813
0.76308
0.774512
0.784091
0.790307
0.792681
0.792681
0.790307
0.784094
0.774521
0.763096
0.750837
0.738204
0.725391
0.712497
0.699596
0.686843
0.674203
0.662294
0.650456
0.639755
0.628542
0.618919
0.610424
0.57309
0.474752
0.473299
0.567032
0.602259
0.609877
0.619472
0.630878
0.641868
0.653955
0.666002
0.678869
0.69181
0.704922
0.717984
0.730883
0.743449
0.755456
0.766478
0.775591
0.781419
0.783582
0.783582
0.781419
0.775591
0.766482
0.755466
0.743468
0.730911
0.718021
0.704963
0.691849
0.678897
0.666004
0.653931
0.641757
0.630713
0.61911
0.609293
0.601311
0.566261
0.471639
0.475489
0.562366
0.595357
0.602078
0.611209
0.622586
0.6335
0.645717
0.657779
0.670879
0.684077
0.697559
0.711052
0.724426
0.737449
0.749776
0.760795
0.769617
0.774941
0.776768
0.776767
0.774941
0.769617
0.760797
0.749783
0.737463
0.72445
0.711087
0.697603
0.684129
0.670932
0.657827
0.645752
0.633496
0.62255
0.611073
0.601805
0.594861
0.561906
0.474712
0.454499
0.530248
0.562412
0.567052
0.573937
0.583309
0.591572
0.601761
0.611068
0.621703
0.632101
0.642823
0.65353
0.664321
0.675106
0.685699
0.69551
0.703284
0.707712
0.709087
0.709087
0.707712
0.703283
0.69551
0.6857
0.675112
0.664336
0.653558
0.642868
0.632167
0.621789
0.611178
0.601888
0.591712
0.583455
0.574065
0.567132
0.562362
0.530108
0.453727
0.39858
0.453401
0.474195
0.471778
0.474789
0.482458
0.489249
0.498325
0.50694
0.517173
0.527176
0.538298
0.549206
0.560637
0.571682
0.581808
0.589723
0.594368
0.596038
0.596325
0.596325
0.596038
0.594368
0.589723
0.581807
0.571681
0.560637
0.549206
0.5383
0.52718
0.517181
0.506952
0.498344
0.489277
0.482498
0.47484
0.471846
0.47426
0.453468
0.398568
0.39858
0.453401
0.474195
0.471778
0.474789
0.482458
0.489249
0.498325
0.50694
0.517173
0.527176
0.538298
0.549206
0.560637
0.571682
0.581808
0.589723
0.594368
0.596038
0.596325
0.596325
0.596038
0.594368
0.589723
0.581807
0.571681
0.560637
0.549206
0.5383
0.52718
0.517181
0.506952
0.498344
0.489277
0.482498
0.47484
0.471846
0.47426
0.453468
0.398568
0.454499
0.530248
0.562412
0.567052
0.573937
0.583309
0.591572
0.601761
0.611068
0.621703
0.632101
0.642823
0.65353
0.664321
0.675106
0.685699
0.69551
0.703284
0.707712
0.709087
0.709087
0.707712
0.703283
0.69551
0.6857
0.675112
0.664336
0.653558
0.642868
0.632167
0.621789
0.611178
0.601888
0.591712
0.583455
0.574065
0.567132
0.562362
0.530108
0.453727
0.475489
0.562366
0.595357
0.602078
0.611209
0.622586
0.6335
0.645717
0.657779
0.670879
0.684077
0.697559
0.711052
0.724426
0.737449
0.749776
0.760795
0.769617
0.774941
0.776768
0.776767
0.774941
0.769617
0.760797
0.749783
0.737463
0.72445
0.711087
0.697603
0.684129
0.670932
0.657827
0.645752
0.633496
0.62255
0.611073
0.601805
0.594861
0.561906
0.474712
0.473299
0.567032
0.602259
0.609877
0.619472
0.630878
0.641868
0.653955
0.666002
0.678869
0.69181
0.704922
0.717984
0.730883
0.743449
0.755456
0.766478
0.775591
0.781419
0.783582
0.783582
0.781419
0.775591
0.766482
0.755466
0.743468
0.730911
0.718021
0.704963
0.691849
0.678897
0.666004
0.653931
0.641757
0.630713
0.61911
0.609293
0.601311
0.566261
0.471639
0.477876
0.574766
0.612578
0.620507
0.629725
0.640448
0.65101
0.662594
0.674415
0.686945
0.699639
0.712499
0.725372
0.738179
0.750813
0.76308
0.774512
0.784091
0.790307
0.792681
0.792681
0.790307
0.784094
0.774521
0.763096
0.750837
0.738204
0.725391
0.712497
0.699596
0.686843
0.674203
0.662294
0.650456
0.639755
0.628542
0.618919
0.610424
0.57309
0.474752
0.486661
0.584547
0.625161
0.633005
0.641674
0.651422
0.661606
0.672624
0.684372
0.696661
0.709314
0.722145
0.735075
0.748012
0.760825
0.773287
0.784921
0.794763
0.801328
0.803973
0.803973
0.80133
0.794769
0.784934
0.773305
0.760841
0.748012
0.735041
0.722048
0.709117
0.696339
0.683827
0.67192
0.660409
0.650007
0.63933
0.63012
0.621504
0.582055
0.482042
0.494746
0.593821
0.63769
0.645542
0.653658
0.662427
0.672217
0.682976
0.694499
0.706801
0.719452
0.732386
0.745455
0.758545
0.771514
0.784123
0.795924
0.806014
0.812915
0.815825
0.815826
0.812918
0.806023
0.795938
0.784132
0.771501
0.758483
0.745307
0.73211
0.718984
0.706105
0.693417
0.681617
0.670021
0.65987
0.649547
0.640749
0.632074
0.590011
0.48858
0.504216
0.604267
0.651438
0.659434
0.667102
0.67492
0.684504
0.694665
0.706246
0.718336
0.730906
0.743797
0.75684
0.769952
0.78296
0.795645
0.807585
0.817914
0.825148
0.828329
0.828331
0.825154
0.817925
0.807592
0.795627
0.782884
0.769776
0.756509
0.74325
0.730052
0.717132
0.704468
0.692427
0.681054
0.670775
0.66083
0.652402
0.643798
0.599705
0.497165
0.512923
0.614079
0.664726
0.673348
0.680724
0.688218
0.697263
0.707343
0.718699
0.730613
0.743208
0.756007
0.769074
0.782186
0.795239
0.808004
0.820085
0.830648
0.8382
0.841645
0.841647
0.838208
0.830656
0.82007
0.80793
0.795057
0.781835
0.768482
0.755089
0.741864
0.728732
0.716065
0.703895
0.692276
0.682123
0.672181
0.663971
0.655321
0.608499
0.505378
0.522373
0.625214
0.678962
0.688051
0.695311
0.702452
0.711124
0.720896
0.731915
0.743838
0.756179
0.769009
0.782011
0.795151
0.808244
0.821094
0.833313
0.844096
0.851945
0.855645
0.855648
0.851953
0.84409
0.833254
0.820928
0.807904
0.794561
0.781082
0.767639
0.754231
0.741178
0.728241
0.716085
0.704446
0.694131
0.684383
0.676436
0.667932
0.618755
0.51521
0.531001
0.636341
0.693091
0.702503
0.709953
0.71705
0.725421
0.734899
0.745723
0.757317
0.769692
0.782412
0.795454
0.808612
0.821766
0.834702
0.847053
0.858038
0.866159
0.870098
0.870101
0.866162
0.858003
0.846921
0.834403
0.82122
0.807727
0.794129
0.780524
0.767086
0.753768
0.740917
0.72851
0.716848
0.706478
0.696678
0.688923
0.680593
0.628688
0.5248
0.539978
0.648257
0.707673
0.717238
0.724822
0.731942
0.740105
0.749358
0.759757
0.771238
0.783411
0.796149
0.809188
0.822403
0.835624
0.848652
0.861128
0.872297
0.880663
0.88482
0.884822
0.880651
0.872213
0.860893
0.848182
0.834829
0.821185
0.807434
0.793715
0.780093
0.766755
0.753681
0.741293
0.729534
0.719004
0.709198
0.701619
0.693598
0.639053
0.535489
0.548347
0.660522
0.722446
0.732162
0.739865
0.747086
0.755065
0.764005
0.774087
0.785259
0.797338
0.81002
0.8231
0.836378
0.849685
0.862813
0.875414
0.886754
0.895336
0.899688
0.899686
0.895297
0.886597
0.875046
0.862142
0.848618
0.834813
0.820913
0.807037
0.793304
0.779789
0.766683
0.754132
0.742348
0.731625
0.721734
0.714281
0.706634
0.649381
0.545958
0.555575
0.673298
0.737398
0.747352
0.755125
0.762501
0.770241
0.778831
0.788499
0.799396
0.8113
0.823948
0.837061
0.850422
0.863833
0.877078
0.889811
0.901312
0.910086
0.914607
0.914598
0.910006
0.901061
0.889287
0.87619
0.86249
0.848522
0.834463
0.82044
0.806551
0.792921
0.779677
0.767053
0.755182
0.744271
0.734246
0.726853
0.719628
0.659823
0.55711
0.565995
0.68718
0.752624
0.762656
0.770551
0.778121
0.78553
0.793692
0.802925
0.81349
0.825215
0.837804
0.850957
0.864411
0.877947
0.891328
0.904207
0.915869
0.924817
0.92948
0.929459
0.924681
0.915507
0.903518
0.890228
0.876351
0.862213
0.847991
0.833809
0.819771
0.805992
0.792631
0.779894
0.767942
0.756854
0.746653
0.739205
0.732403
0.670313
0.56802
0.568829
0.702796
0.768261
0.778107
0.785964
0.793712
0.80072
0.808407
0.817167
0.827394
0.838925
0.851455
0.864645
0.878203
0.891878
0.905416
0.918457
0.930284
0.939393
0.944172
0.944137
0.93919
0.929803
0.917608
0.904127
0.890068
0.875755
0.861364
0.847016
0.832816
0.818884
0.80538
0.792524
0.780474
0.769227
0.758835
0.75118
0.744727
0.680784
0.57855
0.573437
0.716647
0.783382
0.794175
0.801503
0.808838
0.815401
0.822609
0.830909
0.840833
0.852194
0.864677
0.877919
0.891591
0.905417
0.919125
0.932342
0.94434
0.9536
0.958473
0.958422
0.953323
0.943742
0.931349
0.917677
0.903433
0.888937
0.874366
0.85984
0.845464
0.831359
0.817692
0.804686
0.79251
0.78111
0.770531
0.762523
0.756226
0.690899
0.587641
0.567653
0.724721
0.797241
0.80843
0.816916
0.82274
0.82877
0.835479
0.843522
0.853246
0.864495
0.876981
0.890307
0.904117
0.91811
0.931998
0.945397
0.957569
0.966972
0.971922
0.971854
0.966625
0.956868
0.944286
0.930423
0.915987
0.901297
0.886528
0.871803
0.857226
0.842917
0.829047
0.815843
0.803481
0.791893
0.781107
0.772667
0.766226
0.699836
0.5941
0.571106
0.726174
0.811039
0.82291
0.829184
0.833918
0.839611
0.846023
0.854035
0.863717
0.875027
0.887643
0.901153
0.915172
0.929382
0.943483
0.957083
0.969433
0.978971
0.983978
0.983892
0.978555
0.96864
0.955873
0.94181
0.927159
0.912242
0.897233
0.882254
0.86741
0.852822
0.838661
0.825159
0.812494
0.800602
0.789503
0.780624
0.773721
0.706312
0.59732
0.64138
0.726705
0.823718
0.840439
0.839711
0.84102
0.845912
0.852329
0.860455
0.870112
0.881526
0.894279
0.907971
0.922188
0.936597
0.95089
0.964664
0.977159
0.986795
0.991837
0.991739
0.986327
0.976296
0.963381
0.949145
0.934297
0.919159
0.903909
0.88867
0.873548
0.858666
0.844198
0.830379
0.817389
0.805177
0.793753
0.78456
0.777216
0.709129
0.598154
)
;

boundaryField
{
    inlet
    {
        type            fixedValue;
        value           uniform 1;
    }
    outlet
    {
        type            zeroGradient;
    }
    obstacle
    {
        type            zeroGradient;
    }
    empty
    {
        type            empty;
    }
}


// ************************************************************************* //
