/*--------------------------------*- C++ -*----------------------------------*\
| =========                 |                                                 |
| \\      /  F ield         | OpenFOAM: The Open Source CFD Toolbox           |
|  \\    /   O peration     | Version:  v1912                                 |
|   \\  /    A nd           | Website:  www.openfoam.com                      |
|    \\/     M anipulation  |                                                 |
\*---------------------------------------------------------------------------*/
FoamFile
{
    version     2.0;
    format      ascii;
    class       volScalarField;
    location    "1.1";
    object      T;
}
// * * * * * * * * * * * * * * * * * * * * * * * * * * * * * * * * * * * * * //

dimensions      [0 0 0 1 0 0 0];


internalField   nonuniform List<scalar> 
4800
(
10.8757
7.11853
6.74769
7.29001
7.92543
8.72202
9.60971
10.6032
11.6238
12.4743
13.1154
13.6338
14.0814
14.4263
14.6235
13.9873
12.6238
12.4697
12.7077
13.016
13.3179
13.5804
13.8128
14.0401
14.2739
14.5186
14.7731
15.0394
15.3234
15.6318
15.9743
16.3729
16.8441
17.3594
17.9137
18.4977
18.972
19.2061
19.2671
18.5918
10.8793
7.10737
6.74411
7.29672
7.93887
8.7431
9.61552
10.5857
11.577
12.4315
13.0925
13.621
14.0651
14.4131
14.6346
14.0215
12.658
12.4934
12.7152
13.009
13.2979
13.5634
13.8084
14.0438
14.2788
14.5198
14.7729
15.0471
15.3486
15.6824
16.0568
16.4602
16.8791
17.34
17.8533
18.4334
18.9365
19.2005
19.2638
18.5841
10.8836
7.12741
6.74869
7.31299
7.95999
8.76371
9.61815
10.5527
11.5026
12.372
13.0598
13.6026
14.0412
14.3866
14.6364
14.0722
12.7194
12.5241
12.7187
12.9949
13.2775
13.5491
13.8083
14.0536
14.2904
14.5318
14.7938
15.0853
15.4162
15.7941
16.1886
16.5684
16.9412
17.3371
17.8116
18.3925
18.9589
19.3029
19.3381
18.6451
10.8882
7.18486
6.75894
7.33002
7.97594
8.77702
9.6166
10.5232
11.4234
12.2797
12.9902
13.5525
13.995
14.352
14.632
14.1281
12.7962
12.5614
12.7261
12.9871
13.2621
13.5342
13.7998
14.0564
14.3059
14.5611
14.8415
15.1604
15.536
15.9408
16.327
16.6892
17.0374
17.3965
17.8238
18.3823
18.9858
19.4185
19.44
18.7541
10.8936
7.23167
6.77145
7.34197
7.98568
8.7833
9.61612
10.4948
11.3549
12.1713
12.8885
13.4673
13.9335
14.3152
14.6161
14.17
12.8678
12.6003
12.7378
12.9873
13.2531
13.5185
13.7835
14.0507
14.3249
14.6117
14.9284
15.2955
15.6943
16.0836
16.4523
16.8058
17.1448
17.4964
17.9095
18.4441
19.058
19.5271
19.59
18.9498
10.8982
7.22302
6.79053
7.34897
7.98757
8.7806
9.60911
10.4723
11.2989
12.0739
12.7717
13.346
13.8369
14.2643
14.591
14.1898
12.927
12.6284
12.7509
12.9959
13.2519
13.5058
13.7666
14.0484
14.3558
14.6954
15.0721
15.4709
15.8488
16.2089
16.5693
16.923
17.2878
17.6607
18.0708
18.5763
19.1781
19.6523
19.8052
19.2301
10.9025
7.2335
6.79911
7.35158
7.98307
8.7708
9.59173
10.452
11.2609
11.998
12.6616
13.2076
13.7236
14.1943
14.5574
14.1895
12.9705
12.6487
12.7615
13.0088
13.258
13.5012
13.7621
14.067
14.4237
14.8283
15.2561
15.646
15.9911
16.3346
16.6916
17.0785
17.4784
17.8708
18.2732
18.7408
19.3239
19.8042
20.078
19.5799
10.9055
7.2473
6.80903
7.35352
7.98193
8.76496
9.57816
10.4374
11.2405
11.9495
12.576
13.0903
13.5871
14.0936
14.5069
14.1722
12.9921
12.66
12.7664
13.0163
13.264
13.5071
13.7855
14.1271
14.5452
15.008
15.444
15.7966
16.1284
16.4666
16.8491
17.2721
17.6981
18.0997
18.4861
18.913
19.4716
19.9766
20.3776
19.9684
10.9078
7.11061
6.83202
7.36232
7.98789
8.76516
9.56897
10.4305
11.2351
11.9303
12.5231
13.0158
13.4638
13.9797
14.442
14.134
12.9896
12.6624
12.7631
13.0126
13.2648
13.5302
13.8495
14.2501
14.7225
15.2051
15.6014
15.9383
16.2652
16.628
17.0411
17.4901
17.9279
18.3256
18.6908
19.0891
19.6332
20.1696
20.6746
20.3675
10.9094
7.13321
6.86161
7.38051
7.99863
8.77039
9.56843
10.4314
11.2383
11.9293
12.5048
12.981
13.3849
13.8738
14.3559
14.0725
12.9606
12.6576
12.75
13.0013
13.2697
13.5745
13.958
14.4173
14.9201
15.3783
15.7396
16.0725
16.4229
16.8146
17.2561
17.716
18.151
18.5347
18.8874
19.2804
19.8138
20.3818
20.9528
20.7501
10.9097
7.17565
6.89695
7.40849
8.01867
8.77842
9.57384
10.4329
11.2472
11.943
12.5181
12.9786
13.3578
13.7994
14.2597
13.9928
12.9091
12.6459
12.7373
12.9972
13.2918
13.6517
14.0929
14.6012
15.1043
15.5079
15.8645
16.2199
16.6004
17.023
17.479
17.9345
18.354
18.7299
19.0931
19.4928
20.0187
20.6086
21.204
21.0939
10.9095
7.16223
6.93863
7.44396
8.04972
8.79629
9.58428
10.4419
11.2601
11.97
12.5568
13.015
13.3804
13.7671
14.1739
13.8923
12.835
12.6197
12.7422
13.0251
13.3519
13.7621
14.2516
14.7665
15.2262
15.612
15.9859
16.377
16.7952
17.2421
17.6966
18.1339
18.5435
18.9324
19.318
19.7309
20.2511
20.8449
21.4213
21.3858
10.9079
7.11662
6.96319
7.46723
8.08152
8.82297
9.60489
10.4551
11.2749
12.0033
12.6127
13.082
13.4452
13.7838
14.1219
13.789
12.747
12.5855
12.7825
13.0897
13.4695
13.9198
14.4076
14.8777
15.2913
15.6935
16.1054
16.5391
16.9919
17.4537
17.8986
18.3176
18.7321
19.1476
19.5622
19.9945
20.5068
21.0822
21.5977
21.6253
10.9057
7.14194
6.9684
7.47277
8.10715
8.85067
9.63529
10.4762
11.2964
12.0425
12.6787
13.1623
13.5369
13.843
14.1072
13.7004
12.655
12.5649
12.8661
13.2231
13.6502
14.1013
14.5271
14.9252
15.3346
15.7673
16.2222
16.6928
17.1697
17.642
18.0807
18.4943
18.923
19.3702
19.8174
20.2742
20.7759
21.3079
21.7286
21.8234
10.9027
7.16385
6.97087
7.48423
8.131
8.87882
9.66998
10.5089
11.3283
12.0901
12.75
13.2491
13.6394
13.9274
14.1233
13.651
12.5813
12.5772
12.9764
13.42
13.8584
14.2475
14.5945
14.9607
15.3724
15.8287
16.3159
16.8148
17.3118
17.7961
18.2426
18.6659
19.1132
19.5905
20.0711
20.555
21.044
21.5179
21.8252
21.9829
10.8992
7.05151
6.96517
7.51832
8.15775
8.91126
9.71082
10.5532
11.3743
12.1498
12.823
13.3387
13.7411
14.0181
14.1655
13.647
12.5539
12.6086
13.0905
13.6221
14.0371
14.3454
14.6514
15.0016
15.4108
15.8779
16.3805
16.8959
17.4081
17.9091
18.3792
18.8263
19.2952
19.7991
20.3119
20.8211
21.2979
21.7071
21.9212
22.0958
10.8938
7.18475
6.9603
7.55634
8.1781
8.94559
9.75983
10.6077
11.4335
12.2176
12.8925
13.4243
13.8344
14.1024
14.2222
13.6759
12.5754
12.6892
13.2245
13.772
14.1376
14.4055
14.6944
15.0458
15.4594
15.923
16.4237
16.942
17.4615
17.9789
18.4823
18.9676
19.4671
19.9946
20.5302
21.056
21.5281
21.8777
22.0269
22.1569
10.887
7.05986
6.93776
7.57427
8.18947
8.97889
9.8142
10.6713
11.5008
12.2892
12.9595
13.5027
13.9192
14.1814
14.29
13.7357
12.6681
12.8229
13.3497
13.8602
14.1672
14.4273
14.7215
15.0861
15.5093
15.976
16.466
16.969
17.4804
18.0054
18.5421
19.078
19.6158
20.1674
20.7178
21.2506
21.718
22.025
22.1311
22.1778
10.8794
7.17128
6.90849
7.56801
8.18981
9.00818
9.86905
10.7383
11.5732
12.3625
13.0274
13.5771
13.9963
14.2594
14.3844
13.8513
12.8294
12.9633
13.4533
13.8856
14.1617
14.4226
14.7324
15.1166
15.5553
16.0247
16.5081
16.9911
17.4785
18.0007
18.5629
19.1427
19.7284
20.3067
20.8654
21.3916
21.84
22.1273
22.2185
22.1875
10.8729
7.1754
6.87118
7.55002
8.18569
9.03255
9.91632
10.7993
11.6433
12.4304
13.0919
13.6443
14.0671
14.345
14.5146
14.0088
12.9734
13.0533
13.5097
13.8692
14.1302
14.3988
14.7292
15.13
15.585
16.0657
16.5436
17.0075
17.4759
17.9836
18.5536
19.1716
19.7968
20.4038
20.9616
21.4565
21.8793
22.1679
22.2711
22.2005
10.8677
7.19367
6.83878
7.5311
8.18618
9.05055
9.94565
10.8393
11.6971
12.4851
13.1474
13.7027
14.1383
14.4498
14.6907
14.1383
13.0269
13.0919
13.5168
13.8179
14.0824
14.3678
14.7136
15.1262
15.5911
16.0823
16.5685
17.0251
17.4809
17.9751
18.5357
19.1681
19.8276
20.4492
20.9985
21.4577
21.8502
22.1639
22.3018
22.2541
10.8653
7.06638
6.81947
7.51744
8.19161
9.06138
9.95517
10.8514
11.7192
12.5162
13.1912
13.7591
14.2233
14.5796
14.8571
14.1879
12.9989
13.0881
13.4542
13.7543
14.0397
14.342
14.6951
15.1114
15.581
16.0797
16.577
17.0419
17.4938
17.9825
18.5278
19.1489
19.8143
20.4415
20.9751
21.4019
21.7711
22.1416
22.3472
22.37
10.8646
7.20268
6.81203
7.50819
8.19394
9.0549
9.94199
10.8373
11.7078
12.5199
13.217
13.8137
14.3155
14.7091
14.9694
14.1645
12.9208
13.0291
13.3555
13.6941
14.0044
14.319
14.6759
15.0927
15.5635
16.0678
16.5747
17.053
17.5122
18.0002
18.5385
19.1334
19.7663
20.3729
20.8842
21.2878
21.6646
22.1006
22.3872
22.5726
10.8634
7.02705
6.81063
7.49592
8.1839
9.02819
9.89843
10.7887
11.6635
12.5017
13.2251
13.849
14.381
14.7975
15.0116
14.0872
12.806
12.935
13.2644
13.6349
13.971
14.2998
14.6615
15.0794
15.551
16.0557
16.5678
17.0586
17.5305
18.0218
18.5534
19.125
19.7115
20.2635
20.7407
21.1351
21.5364
22.0427
22.4536
22.7236
10.8621
7.28019
6.82063
7.47588
8.15893
8.98104
9.82275
10.6988
11.5814
12.4529
13.2093
13.8535
14.4032
14.8286
14.989
13.9879
12.7082
12.8293
13.1836
13.575
13.9414
14.2901
14.6601
15.0779
15.5445
16.0442
16.5565
17.0575
17.5403
18.0372
18.5644
19.1066
19.6455
20.1477
20.5852
20.9814
21.4318
21.9828
22.4813
22.7603
10.862
7.01826
6.83089
7.42741
8.11546
8.91185
9.72698
10.5862
11.4809
12.3744
13.159
13.8216
14.3885
14.8201
14.9305
13.9098
12.6375
12.7237
13.0971
13.517
13.9166
14.2914
14.6744
15.0923
15.5491
16.0362
16.5409
17.047
17.5448
18.0478
18.5681
19.0809
19.5722
20.0343
20.4428
20.8477
21.3596
21.9388
22.4298
22.6396
10.8636
6.84259
6.84082
7.36882
8.05583
8.82621
9.62048
10.4681
11.3736
12.2772
13.08
13.7648
14.3512
14.7898
14.8587
13.877
12.6088
12.6322
13.0106
13.4625
13.8942
14.2942
14.6916
15.1079
15.5553
16.0278
16.5199
17.0275
17.5381
18.0399
18.5392
19.0222
19.4787
19.9104
20.3246
20.7749
21.3254
21.9123
22.2989
22.3698
10.8667
7.05731
6.8367
7.34219
7.99214
8.73615
9.51819
10.3584
11.2663
12.1636
12.967
13.6692
14.298
14.7448
14.7977
13.8971
12.6298
12.5759
12.9368
13.4089
13.8683
14.2972
14.7033
15.1113
15.5421
15.9989
16.4788
16.9792
17.4898
17.9878
18.46
18.9077
19.3426
19.7706
20.2332
20.7409
21.2974
21.8042
22.1001
22.0218
10.871
7.35636
6.82228
7.33542
7.93647
8.66204
9.43488
10.2693
11.1683
12.0418
12.8307
13.5426
14.2213
14.6853
14.7498
13.9824
12.7019
12.5592
12.8879
13.364
13.8387
14.2894
14.7017
15.1003
15.5055
15.9351
16.3915
16.8731
17.3714
17.8592
18.3094
18.7254
19.146
19.5997
20.1063
20.6697
21.2089
21.6018
21.7465
21.6259
10.8745
7.06971
6.80976
7.32804
7.90078
8.6178
9.38049
10.2082
11.0864
11.9304
12.6944
13.4166
14.1194
14.5952
14.7091
14.1069
12.8312
12.5676
12.8508
13.3161
13.7937
14.2593
14.6733
15.0577
15.4302
15.8211
16.2402
16.6892
17.1604
17.6283
18.0656
18.4727
18.8927
19.3731
19.9233
20.5033
21.0084
21.272
21.2833
21.1946
10.8792
6.87363
6.79945
7.3212
7.88675
8.60349
9.35839
10.1752
11.0215
11.8398
12.5817
13.2951
13.9839
14.4708
14.6634
14.2245
12.9932
12.5922
12.8125
13.2466
13.7138
14.1813
14.5959
14.9595
15.2953
15.6389
16.0101
16.4136
16.8462
17.2905
17.7234
18.1465
18.5853
19.0927
19.6523
20.1911
20.6241
20.8181
20.7893
20.7067
10.8844
7.0397
6.78539
7.31647
7.88814
8.61152
9.36544
10.1687
10.9814
11.7764
12.4898
13.1667
13.806
14.3225
14.617
14.3025
13.1566
12.6325
12.7613
13.1458
13.5905
14.0395
14.4594
14.7958
15.0916
15.3824
15.6991
16.0504
16.4411
16.8682
17.3101
17.7508
18.2271
18.7484
19.2604
19.7198
20.0609
20.2432
20.2349
20.1408
10.8891
7.0822
6.78321
7.31623
7.89559
8.62525
9.38428
10.1785
10.9708
11.7511
12.4294
13.0431
13.6025
14.1376
14.5307
14.3296
13.2916
12.6582
12.7043
13.0217
13.4264
13.8435
14.2476
14.5721
14.829
15.068
15.3329
15.6361
15.9931
16.4042
16.8541
17.3443
17.8428
18.305
18.7294
19.1215
19.4018
19.5916
19.6356
19.4747
10.8937
7.05178
6.77993
7.31753
7.90358
8.64005
9.40282
10.1951
10.9814
11.7528
12.4054
12.9509
13.423
13.9341
14.3716
14.3135
13.3723
12.6565
12.644
12.888
13.2344
13.6078
13.9812
14.3032
14.5377
14.7407
14.9652
15.2286
15.5525
15.971
16.4559
16.9561
17.3967
17.7614
18.1157
18.4522
18.7256
18.9194
19.0204
18.7352
10.8971
7.10223
6.79036
7.32965
7.91326
8.64517
9.41255
10.2148
11.0095
11.7704
12.4047
12.8968
13.2985
13.7275
14.1466
14.2217
13.3923
12.6233
12.5733
12.7559
13.0408
13.3574
13.6924
14.0066
14.2561
14.4558
14.65
14.8843
15.213
15.6426
16.1255
16.5664
16.912
17.2082
17.5088
17.8109
18.0982
18.2938
18.4018
17.9993
10.8985
7.15931
6.8097
7.34121
7.91924
8.64515
9.41699
10.2362
11.0487
11.8038
12.4178
12.8718
13.2188
13.5613
13.9135
14.0363
13.3143
12.5203
12.4977
12.6378
12.8671
13.1285
13.4174
13.7178
13.9915
14.2146
14.4289
14.6792
15.0132
15.4268
15.8526
16.2038
16.4744
16.733
16.9912
17.2654
17.5651
17.7583
17.8429
17.3377
10.8986
7.11407
6.83204
7.34649
7.92132
8.64229
9.4185
10.2556
11.0892
11.839
12.4354
12.8641
13.1798
13.4552
13.7283
13.8035
13.1304
12.3591
12.4025
12.5303
12.7348
12.9595
13.2046
13.4904
13.794
14.0743
14.331
14.6088
14.9321
15.2866
15.627
15.9138
16.1466
16.3661
16.5967
16.8538
17.1562
17.3446
17.4015
16.8238
10.8965
7.07276
6.85323
7.34738
7.91776
8.63282
9.4131
10.2696
11.123
11.8635
12.4473
12.8636
13.1669
13.4065
13.6144
13.5952
12.8998
12.1809
12.2463
12.4193
12.6359
12.8602
13.1016
13.3698
13.6646
13.9793
14.2962
14.614
14.9285
15.2228
15.4902
15.723
15.9277
16.1189
16.3312
16.5817
16.8815
17.0555
17.094
16.4899
10.8942
7.10211
6.86272
7.33581
7.90896
8.62072
9.40568
10.2795
11.148
11.8812
12.4544
12.8668
13.1708
13.3971
13.5645
13.473
12.7194
12.0009
12.091
12.3294
12.5865
12.8469
13.0852
13.3158
13.5849
13.9132
14.2761
14.629
14.9367
15.1897
15.4105
15.6205
15.8069
15.9869
16.1868
16.4252
16.7145
16.881
16.9132
16.3181
10.8937
7.07058
6.87153
7.32601
7.89944
8.60448
9.3912
10.2767
11.1592
11.892
12.4572
12.8624
13.1677
13.3874
13.5402
13.4146
12.6361
11.8819
11.9613
12.2503
12.577
12.8715
13.1112
13.33
13.5828
13.9142
14.296
14.6794
14.9877
15.2263
15.4309
15.6058
15.7726
15.9419
16.1248
16.3482
16.6282
16.7935
16.827
16.2447
17.4776
17.3434
17.5488
17.8584
18.1731
18.4829
18.7814
19.0462
19.2694
19.4551
19.6378
19.8283
20.0506
20.3134
20.5934
20.821
20.9746
21.0731
21.1417
21.2253
21.4391
21.7688
22.1653
22.4993
22.6715
22.7618
22.7953
22.5092
21.8237
20.4718
19.8145
19.8291
19.9577
20.0504
20.0596
20.0101
19.9553
19.9476
19.9961
20.0739
20.1299
20.1389
20.1221
20.126
20.1775
20.2299
20.2273
20.1502
20.0124
19.9146
19.9207
19.9411
19.9923
19.9758
19.7512
19.2205
18.6484
18.4607
18.3668
18.2393
18.122
18.0629
18.0972
18.2486
18.5841
18.9163
19.1562
19.2621
19.2522
19.2182
19.2379
19.3467
19.5144
19.6819
19.8697
20.0925
20.2985
20.3477
20.3191
19.8182
17.4898
17.3758
17.5751
17.9037
18.2378
18.557
18.8582
19.1097
19.3161
19.5047
19.6921
19.8912
20.1194
20.3852
20.6412
20.8476
20.9849
21.0788
21.1714
21.303
21.5734
21.9315
22.2913
22.5712
22.7329
22.7725
22.6913
22.314
21.4846
20.2326
19.8265
19.8921
20.008
20.0772
20.0637
20.0133
19.9718
19.9748
20.0166
20.0757
20.107
20.1074
20.1051
20.1286
20.1935
20.2456
20.2335
20.1514
20.0276
19.9579
19.9682
19.9898
20.0185
19.9655
19.6559
19.0893
18.5737
18.3987
18.2791
18.1953
18.1527
18.1411
18.209
18.3952
18.6074
18.8433
19.0451
19.1349
19.1676
19.1975
19.2523
19.3629
19.505
19.6496
19.8303
20.0455
20.2147
20.2446
20.1694
19.6544
17.5358
17.42
17.626
17.9751
18.3218
18.6392
18.9159
19.1505
19.3597
19.5611
19.7589
19.968
20.2
20.4353
20.6322
20.7977
20.9372
21.0621
21.1975
21.4015
21.6807
21.9751
22.2092
22.4561
22.6745
22.76
22.5904
22.2158
21.2375
20.0759
19.8492
19.9145
19.994
20.0453
20.0426
20.0143
19.9954
20.0027
20.0266
20.0497
20.0678
20.0772
20.091
20.1198
20.1581
20.1809
20.1627
20.1098
20.0452
20.0109
20.0219
20.0325
20.0358
19.9524
19.6005
18.9587
18.4362
18.2533
18.1729
18.1828
18.2314
18.288
18.3859
18.5032
18.6167
18.7069
18.8287
18.9703
19.0978
19.1989
19.2702
19.3338
19.4151
19.5133
19.684
19.8998
20.0837
20.113
20.0276
19.4761
17.638
17.5088
17.7299
18.0921
18.436
18.7365
18.9965
19.2327
19.4605
19.6792
19.887
20.0927
20.2896
20.4571
20.5886
20.7215
20.8787
21.0627
21.2798
21.5212
21.7342
21.9191
22.0696
22.3037
22.5871
22.6965
22.506
22.0779
20.9242
20.0022
19.9007
19.9249
19.9795
20.0129
20.0205
20.0184
20.0186
20.0199
20.0207
20.0212
20.0343
20.0656
20.1076
20.1291
20.1215
20.0934
20.0705
20.0753
20.0819
20.0819
20.1008
20.0903
20.0563
19.9138
19.4816
18.753
18.2695
18.1232
18.1147
18.2049
18.3298
18.4787
18.5796
18.5938
18.5631
18.5566
18.6342
18.8085
19.0067
19.1925
19.2877
19.321
19.3333
19.3963
19.5421
19.7469
19.903
19.9217
19.8126
19.2433
17.8073
17.6575
17.8891
18.2482
18.5754
18.85
19.0976
19.35
19.6017
19.8356
20.0477
20.2209
20.3461
20.4311
20.524
20.6576
20.854
21.1108
21.3779
21.576
21.6954
21.7841
21.8851
22.1254
22.4404
22.5554
22.4214
21.8848
20.6351
19.9774
19.8984
19.906
19.9535
19.9973
20.0405
20.0785
20.0938
20.0861
20.064
20.0512
20.0646
20.1139
20.1551
20.1542
20.1088
20.0336
20.0062
20.0436
20.1019
20.1445
20.1618
20.1264
20.0627
19.8356
19.2974
18.5327
18.1463
18.0478
18.1003
18.2453
18.4759
18.6716
18.7303
18.6483
18.5406
18.4925
18.544
18.7063
18.9666
19.1933
19.3238
19.3564
19.336
19.3536
19.4661
19.6555
19.78
19.7954
19.6718
19.0735
18.0592
17.8669
18.0943
18.4346
18.731
18.9807
19.2278
19.4955
19.7693
20.0183
20.2047
20.3189
20.3733
20.4089
20.4851
20.6397
20.8892
21.1823
21.4228
21.5354
21.577
21.6054
21.6857
21.9312
22.2497
22.3981
22.315
21.6005
20.3404
19.9126
19.8207
19.8406
19.8979
19.9627
20.0432
20.1172
20.1451
20.145
20.1401
20.1545
20.211
20.2918
20.3195
20.2527
20.1282
20.0294
20.0047
20.048
20.1295
20.1771
20.1875
20.1181
19.9798
19.681
19.0782
18.3561
18.1009
18.0674
18.171
18.4239
18.6893
18.8239
18.8173
18.7266
18.6161
18.5754
18.6002
18.734
18.9974
19.2782
19.4393
19.4536
19.4323
19.4305
19.5177
19.647
19.7301
19.7515
19.6088
18.9824
18.3921
18.1245
18.3221
18.6281
18.8976
19.1325
19.3797
19.6604
19.9498
20.1834
20.3163
20.3663
20.3817
20.4094
20.4977
20.6874
20.9536
21.2112
21.3805
21.4273
21.4157
21.4231
21.51
21.7341
22.0206
22.2072
22.1131
21.1789
20.0193
19.7654
19.6926
19.7382
19.8045
19.8883
19.9899
20.0782
20.1255
20.1513
20.1826
20.2479
20.344
20.4257
20.4505
20.4063
20.2612
20.1071
20.0526
20.0868
20.164
20.1661
20.1551
20.0584
19.8285
19.5149
18.8814
18.2718
18.1498
18.2118
18.4509
18.6929
18.8545
18.912
18.8906
18.8361
18.7807
18.7897
18.8844
19.0291
19.2125
19.4214
19.6158
19.7084
19.6888
19.6503
19.7037
19.7828
19.8223
19.8479
19.6904
19.0639
18.7867
18.4055
18.5517
18.8185
19.0729
19.2992
19.5521
19.8289
20.0978
20.2969
20.3767
20.3911
20.4057
20.4513
20.5732
20.7786
20.9945
21.1714
21.2693
21.2915
21.2714
21.273
21.3702
21.5706
21.7921
21.9859
21.751
20.6438
19.7269
19.5464
19.527
19.5987
19.6836
19.7788
19.8813
19.9761
20.0512
20.1135
20.1836
20.269
20.3548
20.4158
20.4459
20.4535
20.4278
20.3631
20.3099
20.2542
20.2091
20.1642
20.0843
19.9425
19.6749
19.3551
18.7118
18.2767
18.3529
18.572
18.7628
18.8745
18.9233
18.9542
18.9737
19.0203
19.0948
19.1814
19.2435
19.2957
19.3743
19.4922
19.6724
19.8549
19.9689
20.0262
20.1358
20.24
20.2665
20.261
20.01
19.3475
19.2169
18.6926
18.7743
19.0029
19.245
19.4733
19.7241
19.9739
20.1797
20.3289
20.3948
20.4225
20.4624
20.5496
20.6991
20.8569
20.9872
21.0839
21.1338
21.1563
21.155
21.1672
21.2624
21.4431
21.5774
21.699
21.2734
20.1107
19.4628
19.3344
19.3519
19.446
19.5477
19.6454
19.7389
19.8339
19.9355
20.041
20.1425
20.2249
20.2849
20.3317
20.3686
20.417
20.51
20.6188
20.698
20.6539
20.432
20.2113
20.0496
19.8548
19.6006
19.2449
18.6757
18.5423
18.7164
18.8706
18.9264
18.9539
18.9554
18.9814
19.077
19.2365
19.3825
19.4517
19.4694
19.4639
19.4608
19.4884
19.5935
19.8252
20.0674
20.2688
20.4584
20.5692
20.5762
20.5434
20.2167
19.4735
19.6493
18.9749
18.9847
19.1762
19.4156
19.648
19.8707
20.0539
20.1974
20.3033
20.386
20.4616
20.5572
20.6917
20.8053
20.871
20.9256
20.9722
21.0237
21.0584
21.072
21.1048
21.1869
21.326
21.3593
21.352
20.7533
19.6375
19.2034
19.1382
19.1806
19.295
19.4082
19.5014
19.5844
19.6823
19.8063
19.9407
20.0552
20.1267
20.1555
20.1859
20.2525
20.3777
20.5608
20.75
20.8851
20.9452
20.8278
20.505
20.1626
19.8737
19.6301
19.2978
18.8744
18.8307
18.9052
18.9917
19.0168
18.9921
18.9854
19.0229
19.1502
19.3314
19.5038
19.5929
19.5858
19.5301
19.4736
19.4721
19.5602
19.727
20.0159
20.3222
20.593
20.7391
20.7093
20.6056
20.2272
19.4817
20.0545
19.2385
19.1793
19.3434
19.5866
19.8013
19.9592
20.0623
20.1503
20.2523
20.372
20.5228
20.6825
20.7971
20.8315
20.8269
20.8303
20.8721
20.9461
21
21.0253
21.0708
21.1195
21.1809
21.1398
20.9799
20.291
19.2827
18.951
18.9468
19.0281
19.161
19.2799
19.3681
19.451
19.5581
19.6938
19.8303
19.9296
19.9751
19.9955
20.032
20.1402
20.3411
20.5891
20.7863
20.8943
20.985
21.0616
21.0114
20.758
20.3096
19.967
19.5447
19.0842
18.9201
18.957
19.0166
19.0252
19.012
19.0156
19.0764
19.1814
19.3177
19.4705
19.5851
19.5963
19.5349
19.4712
19.4458
19.4988
19.6641
19.8978
20.225
20.5049
20.6863
20.6727
20.5469
20.1499
19.3973
20.4191
19.4708
19.3703
19.512
19.7337
19.8856
19.9601
20.0144
20.0876
20.2147
20.3967
20.6088
20.7607
20.8025
20.7854
20.7551
20.7492
20.7846
20.8522
20.9219
20.9664
21.0136
21.0379
21.0259
20.9038
20.6392
19.958
19.0425
18.774
18.8063
18.9106
19.0516
19.1771
19.271
19.3605
19.4709
19.5987
19.7128
19.7822
19.8153
19.8469
19.9216
20.0847
20.3298
20.5876
20.7594
20.8435
20.9357
21.0934
21.3133
21.3597
21.1632
20.5768
19.7269
19.1037
18.9229
18.9267
18.9587
18.9995
19.0286
19.0579
19.1144
19.1983
19.2875
19.3678
19.4412
19.4932
19.497
19.4824
19.4772
19.516
19.6225
19.8077
20.0513
20.3081
20.4648
20.508
20.392
20.0274
19.3393
20.7389
19.6754
19.5605
19.6534
19.8042
19.8898
19.9279
19.9693
20.067
20.2235
20.4545
20.6494
20.7421
20.7447
20.7086
20.6781
20.6684
20.6937
20.7397
20.8096
20.8815
20.9358
20.9479
20.8968
20.6973
20.3883
19.7487
18.9034
18.6861
18.7268
18.8247
18.9682
19.1035
19.2136
19.3135
19.4144
19.5126
19.5881
19.6307
19.6715
19.7431
19.8799
20.091
20.3369
20.555
20.6862
20.7625
20.8673
21.0749
21.3899
21.5167
21.5186
20.9089
19.731
19.0704
18.8912
18.8436
18.9007
18.9937
19.0689
19.1015
19.1387
19.1731
19.1946
19.2128
19.2692
19.3652
19.4694
19.5378
19.5815
19.6078
19.6575
19.7241
19.8546
20.0411
20.2031
20.2866
20.2433
19.9098
19.2598
21.0099
19.8594
19.7158
19.7289
19.8113
19.87
19.9058
19.9675
20.0847
20.2836
20.4876
20.626
20.6737
20.6503
20.6174
20.5932
20.5849
20.5914
20.6192
20.678
20.7733
20.8404
20.8538
20.7734
20.5458
20.2341
19.6376
18.8401
18.6391
18.6753
18.7747
18.9137
19.0576
19.1891
19.2947
19.372
19.4299
19.4625
19.4996
19.574
19.7055
19.8982
20.1233
20.3252
20.479
20.5814
20.6751
20.7952
21.0353
21.3963
21.5327
21.5659
20.9511
19.7024
19.0186
18.8236
18.803
18.8917
19.0131
19.1119
19.15
19.1441
19.1232
19.1026
19.1042
19.1488
19.2543
19.4152
19.5894
19.711
19.7386
19.7149
19.6878
19.7257
19.8446
19.9664
20.0865
20.0941
19.7642
19.1647
21.2332
20.0138
19.7995
19.7446
19.799
19.8629
19.93
20.0201
20.1729
20.3391
20.4653
20.5526
20.5651
20.5464
20.5261
20.5092
20.4936
20.4814
20.4894
20.5375
20.6278
20.7154
20.7161
20.6445
20.4583
20.155
19.6072
18.8271
18.6177
18.6524
18.7556
18.8906
19.0365
19.1737
19.2809
19.3324
19.3446
19.3571
19.4224
19.5476
19.7315
19.9493
20.1396
20.2762
20.3756
20.4703
20.5879
20.7233
20.9514
21.304
21.4546
21.4388
20.8528
19.5863
18.97
18.804
18.8334
18.9276
19.059
19.1585
19.194
19.1369
19.0764
19.0421
19.0436
19.0881
19.2001
19.3859
19.6121
19.7726
19.8329
19.7686
19.6929
19.6921
19.7689
19.8689
19.9633
19.9592
19.6041
19.0391
21.3994
20.117
19.8186
19.7511
19.8093
19.9038
20.0101
20.144
20.2658
20.346
20.4015
20.4283
20.4448
20.4507
20.446
20.4259
20.3905
20.352
20.3596
20.3727
20.4346
20.517
20.5469
20.5193
20.4087
20.132
19.6139
18.8422
18.6274
18.659
18.7747
18.9047
19.0367
19.1572
19.2519
19.2748
19.2664
19.3073
19.4119
19.5819
19.7952
19.9932
20.1198
20.2012
20.2672
20.3606
20.4927
20.6407
20.8511
21.136
21.2667
21.1721
20.6008
19.4084
18.9334
18.8404
18.8945
19.0182
19.1346
19.2119
19.2041
19.1316
19.0459
19.009
19.0254
19.0943
19.2247
19.4188
19.6135
19.7611
19.8137
19.7753
19.7281
19.7373
19.8081
19.9017
19.9654
19.9081
19.4764
18.9191
21.496
20.1691
19.8246
19.8035
19.8797
20.02
20.1634
20.2605
20.292
20.2945
20.2895
20.3077
20.3501
20.3799
20.3728
20.3417
20.2814
20.2246
20.2077
20.1995
20.2396
20.3198
20.3965
20.4109
20.3485
20.131
19.6296
18.8693
18.6526
18.6928
18.8345
18.9578
19.0583
19.1285
19.1659
19.183
19.2254
19.3139
19.454
19.6552
19.8586
19.9976
20.0722
20.1207
20.1708
20.2488
20.3796
20.5375
20.7575
20.9684
21.0512
20.9134
20.3386
19.2673
18.9282
18.8994
18.9837
19.1061
19.1902
19.2311
19.2114
19.1378
19.0412
19.009
19.0607
19.1569
19.3053
19.4718
19.6002
19.6742
19.7143
19.7554
19.7837
19.8495
19.9568
20.0364
20.0716
19.9376
19.4061
18.8832
21.5387
20.2007
19.8357
19.9063
20.0442
20.2062
20.2934
20.2971
20.2498
20.1997
20.1884
20.2258
20.2874
20.3199
20.3045
20.2494
20.1679
20.1009
20.0724
20.0863
20.1371
20.2133
20.2833
20.3213
20.2839
20.1191
19.634
18.8912
18.6764
18.7325
18.8942
19.0267
19.0783
19.0736
19.0566
19.1023
19.2243
19.3721
19.5569
19.7442
19.8902
19.9691
20.0067
20.0358
20.072
20.1343
20.2586
20.4339
20.6828
20.8708
20.8846
20.6986
20.0869
19.1479
18.922
18.9781
19.0629
19.159
19.1961
19.1984
19.1947
19.1426
19.0848
19.0668
19.1335
19.2638
19.3999
19.473
19.5159
19.5519
19.6107
19.7063
19.8217
19.9573
20.1063
20.1824
20.148
19.914
19.307
18.8306
21.5535
20.2331
19.8946
20.0366
20.2635
20.3584
20.3593
20.2812
20.1835
20.1247
20.1265
20.1759
20.2322
20.2562
20.2282
20.1573
20.0707
20.0176
20.0065
20.0566
20.1172
20.1555
20.2089
20.2555
20.2251
20.0984
19.6401
18.9146
18.7097
18.77
18.9255
19.0394
19.0529
18.9976
18.9845
19.0782
19.2353
19.4785
19.6977
19.8397
19.9064
19.9195
19.9321
19.9446
19.9704
20.0311
20.1568
20.346
20.6262
20.8114
20.7625
20.5311
19.8734
19.0472
18.9206
19.0291
19.1057
19.1633
19.1684
19.1463
19.1477
19.1506
19.1433
19.1803
19.2674
19.3701
19.4372
19.4336
19.4378
19.478
19.5474
19.6755
19.866
20.0478
20.2029
20.2389
20.1266
19.8047
19.1759
18.7811
21.5864
20.3155
20.0319
20.1947
20.4183
20.4594
20.3866
20.2623
20.1472
20.0977
20.1041
20.1405
20.1847
20.1881
20.1465
20.0751
20.0163
19.9915
20.0188
20.0799
20.125
20.1318
20.1641
20.2147
20.1819
20.0758
19.631
18.9229
18.7179
18.764
18.9072
18.9804
18.9757
18.9463
18.9796
19.0944
19.3212
19.6002
19.812
19.9139
19.9119
19.8912
19.8797
19.8754
19.894
19.952
20.0733
20.2773
20.5721
20.752
20.6741
20.4189
19.7232
18.9866
18.9225
19.0529
19.1284
19.1432
19.1013
19.0661
19.101
19.17
19.2707
19.3702
19.4195
19.436
19.4181
19.4057
19.4195
19.48
19.5678
19.7057
19.8943
20.0625
20.1735
20.1166
19.9602
19.6153
19.0181
18.6848
21.6753
20.4671
20.1524
20.2702
20.4469
20.4649
20.3828
20.2467
20.1414
20.0971
20.0972
20.1166
20.1236
20.1026
20.0587
20.0207
20.0062
20.0277
20.083
20.1357
20.1447
20.1352
20.1538
20.2007
20.1695
20.0768
19.6516
18.9436
18.702
18.7186
18.8013
18.8679
18.9202
18.9695
19.0359
19.2032
19.4564
19.6781
19.8569
19.9391
19.9378
19.9043
19.866
19.8487
19.8613
19.917
20.0333
20.221
20.4898
20.6636
20.5975
20.3425
19.6392
18.9525
18.8966
19.0161
19.0938
19.0958
19.0372
19.0129
19.0934
19.2181
19.4058
19.5262
19.5345
19.458
19.4046
19.4142
19.4699
19.5617
19.6539
19.7571
19.8493
19.9329
19.9544
19.8596
19.68
19.3596
18.8368
18.5621
21.8751
20.598
20.1661
20.2395
20.3826
20.3968
20.327
20.2249
20.1441
20.1122
20.1009
20.0809
20.0452
20.0089
19.9934
20.0059
20.0475
20.1189
20.1819
20.204
20.1822
20.162
20.1713
20.2141
20.2038
20.1307
19.7205
18.9948
18.6834
18.651
18.6494
18.7384
18.875
19.0082
19.1706
19.3709
19.5574
19.7083
19.8163
19.8972
19.9464
19.9436
19.9019
19.8759
19.88
19.9274
20.0298
20.1963
20.4063
20.5412
20.5052
20.2621
19.5876
18.9303
18.8456
18.893
18.9572
19.0029
19.0135
19.0206
19.1005
19.2615
19.4606
19.5862
19.5812
19.499
19.4469
19.477
19.5564
19.6463
19.7355
19.7576
19.7134
19.6718
19.6318
19.5515
19.4401
19.1825
18.6666
18.4063
22.0323
20.639
20.0716
20.1028
20.1901
20.2532
20.252
20.2022
20.1574
20.1261
20.0889
20.0359
19.9776
19.9507
19.974
20.037
20.1371
20.239
20.2889
20.2694
20.2295
20.2026
20.2158
20.2644
20.2833
20.2343
19.8214
19.0461
18.6459
18.5425
18.549
18.6753
18.8619
19.0927
19.3363
19.505
19.597
19.6645
19.7179
19.8068
19.9161
19.9915
20.0002
19.9754
19.9597
19.9843
20.0574
20.1891
20.3296
20.4046
20.3902
20.1577
19.5417
18.931
18.7777
18.7488
18.8067
18.92
19.0244
19.0837
19.1694
19.3306
19.4953
19.5814
19.5975
19.569
19.5594
19.5684
19.6353
19.7232
19.7231
19.6316
19.4937
19.4293
19.4262
19.3969
19.3375
19.0695
18.5327
18.2992
22.0614
20.5836
19.9382
19.867
19.9432
20.0777
20.1749
20.1928
20.1607
20.1148
20.059
19.9941
19.9445
19.9378
19.9963
20.1066
20.2458
20.3526
20.3711
20.3271
20.2698
20.256
20.2913
20.3588
20.403
20.3528
19.8987
19.052
18.5956
18.4809
18.5278
18.6883
18.9148
19.2112
19.4269
19.5407
19.5694
19.5717
19.6013
19.683
19.8213
19.9779
20.1119
20.1621
20.135
20.1156
20.1422
20.2008
20.2707
20.2916
20.2737
20.0604
19.5261
18.9258
18.7035
18.6283
18.6873
18.8517
19.0634
19.2013
19.286
19.3738
19.4496
19.5256
19.584
19.6271
19.6294
19.6734
19.7075
19.6647
19.5307
19.3764
19.2775
19.3018
19.3437
19.3348
19.281
18.9897
18.4351
18.2282
22.0062
20.468
19.7857
19.6388
19.7306
19.8956
20.0526
20.1495
20.1449
20.0884
20.0214
19.9624
19.9333
19.9594
20.0489
20.1909
20.347
20.4155
20.4037
20.355
20.3115
20.333
20.401
20.485
20.5387
20.4539
19.9468
19.0528
18.5752
18.4863
18.5885
18.791
19.0851
19.3139
19.4475
19.4925
19.4803
19.4738
19.4974
19.5624
19.6961
19.8935
20.0975
20.2905
20.3835
20.3451
20.3268
20.2735
20.2501
20.233
20.1869
19.9842
19.5102
18.9283
18.6604
18.565
18.6384
18.8482
19.1134
19.3234
19.4073
19.4253
19.4287
19.4588
19.5555
19.6481
19.7362
19.7574
19.6464
19.4346
19.2388
19.1357
19.1521
19.2555
19.3521
19.347
19.2812
18.9533
18.4004
18.2303
21.8653
20.3053
19.6399
19.486
19.5882
19.7578
19.9311
20.0682
20.1061
20.049
19.9849
19.9448
19.9473
20.0049
20.117
20.2641
20.3991
20.4296
20.4034
20.3723
20.3655
20.4254
20.523
20.6188
20.6695
20.5158
19.9758
19.0838
18.6162
18.5862
18.7363
19.0097
19.2566
19.4039
19.4343
19.4007
19.3839
19.4006
19.438
19.4885
19.5637
19.7244
20.0008
20.2733
20.4666
20.5387
20.5252
20.4105
20.2955
20.2358
20.1379
19.9323
19.5205
18.9696
18.6696
18.579
18.6698
18.8955
19.1717
19.393
19.4494
19.4247
19.3927
19.4108
19.5117
19.6548
19.7265
19.6496
19.429
19.1808
19.0549
19.0293
19.093
19.2513
19.382
19.3766
19.2995
18.9445
18.41
18.2782
21.613
20.1067
19.5481
19.4327
19.5385
19.7131
19.8667
20.003
20.0574
20.0158
19.9651
19.9455
19.9754
20.0582
20.1843
20.3217
20.4097