/*--------------------------------*- C++ -*----------------------------------*\
| =========                 |                                                 |
| \\      /  F ield         | OpenFOAM: The Open Source CFD Toolbox           |
|  \\    /   O peration     | Version:  v1912                                 |
|   \\  /    A nd           | Website:  www.openfoam.com                      |
|    \\/     M anipulation  |                                                 |
\*---------------------------------------------------------------------------*/
FoamFile
{
    version     2.0;
    format      ascii;
    class       vectorField;
    location    "0.00026/lagrangian/dsmc";
    object      U;
}
// * * * * * * * * * * * * * * * * * * * * * * * * * * * * * * * * * * * * * //


13034
(
(90.01077909 29.43789523 -684.5208056)
(869.8759856 -302.807883 360.6395078)
(336.6293875 -318.9379407 -585.1970205)
(61.8728603 848.1175964 92.51275176)
(762.5897756 -369.2862276 -79.19090447)
(-40.0535469 974.1106822 -298.8911317)
(359.8512451 430.7533428 -336.4844555)
(1254.150454 -145.436959 -214.7083676)
(322.9654551 89.12362568 -328.9103351)
(377.5118719 -55.59860732 -101.7254004)
(297.8653854 510.0450715 -341.3153489)
(-178.3756919 321.7682896 -377.0318107)
(-989.8629591 29.63948897 796.5463466)
(-54.44200459 -870.9065713 562.5692426)
(757.4638548 816.2188777 187.5842313)
(679.8095044 -150.2534538 405.9528615)
(1681.835012 -431.5461964 220.0983841)
(884.9793908 67.30697909 -149.9880976)
(-48.51112841 58.69673385 -679.3153215)
(-519.4022469 506.6586243 -493.5592368)
(755.2182231 66.45432178 366.1603712)
(32.12316313 -27.61112601 -379.5225741)
(321.3481983 31.07828163 -884.8099979)
(204.5414767 345.3509334 599.6461583)
(774.2600321 -427.0942719 -693.8146795)
(683.8106065 -404.4625999 162.631874)
(461.1470985 -327.6456391 -1065.892469)
(496.7988697 -15.47322809 125.1159277)
(578.948124 -647.1313565 -757.0109753)
(765.2080706 -201.1951468 -192.4451001)
(994.218939 -891.945882 -1010.22565)
(-37.18357503 -365.148805 759.7385001)
(476.857751 -802.1777855 160.558547)
(779.0497302 -448.9678139 -893.0740564)
(654.1843238 -273.1004129 196.3130236)
(618.2866263 -49.36754987 432.8064319)
(-794.3991691 -270.57626 167.8036386)
(-97.04056719 -47.96827136 -529.2266363)
(-299.049352 -71.45887889 70.2179104)
(-12.49829318 -434.0236361 -187.3066281)
(657.5922695 -12.86355863 176.117692)
(1235.389652 -484.0066488 373.125809)
(284.8741921 -336.1334236 168.8264114)
(-266.5715818 -99.10626019 262.6309906)
(1066.932596 256.7930867 -140.0651047)
(233.0309744 -353.2033788 389.6939369)
(299.9359476 196.4995272 -523.351553)
(-82.81199838 53.3938694 2.1486935)
(857.2415053 -146.7786802 903.5445089)
(232.8179863 -337.692596 120.6029206)
(157.8448862 -374.6150712 525.5273957)
(273.312041 -78.81979529 173.5039815)
(2455.707998 434.9219344 -300.6988003)
(-54.33602003 626.2690258 -107.7878072)
(487.3674666 370.068534 560.9491372)
(1495.413164 -247.4088193 282.0203075)
(286.110406 -174.85598 -229.027947)
(-46.63169091 218.4936078 -222.4356605)
(493.0607832 171.584979 -482.3589112)
(584.6471807 -321.9023951 624.6844467)
(-53.65835518 204.4152952 330.148023)
(499.6854265 -1177.588006 -340.6207237)
(421.580744 401.3668467 -68.84909364)
(-489.4089928 -577.5998499 216.2689833)
(-157.0231829 -219.3247686 86.99352076)
(191.5456447 -131.1621864 40.60633864)
(-486.2504067 -373.7851454 559.8213322)
(782.3601165 734.7333115 -234.7045479)
(-241.0668999 155.197518 -362.8831787)
(-548.277517 -511.2317951 -367.8127569)
(-376.5827155 1149.832101 -198.5946469)
(179.1166374 -489.140791 -512.5928482)
(1044.020241 175.9472991 59.55622911)
(29.88424473 -0.1587781826 444.7711287)
(714.8117077 1102.683153 -1179.606325)
(1297.25867 -197.3819809 274.2770092)
(1179.044465 -88.23734873 168.9952952)
(-32.82458181 609.3906298 265.4211928)
(353.7755327 272.4265644 -287.4629445)
(-130.3809613 1164.550656 531.4306574)
(869.8029078 735.9798946 63.6031701)
(1293.965315 -357.8025562 383.4180306)
(953.3688897 932.6995834 123.6314255)
(-255.9450555 340.0735646 458.7121117)
(-166.388019 829.7985093 -509.5761868)
(441.1541202 -314.886861 -441.1271305)
(1375.577665 263.5662843 324.6830443)
(817.4414448 -292.3221383 -499.1940606)
(749.0444218 -656.5725326 -549.6775693)
(-406.7888605 -129.5126517 61.96701272)
(-390.8717391 -416.6526459 -855.301529)
(-166.3072978 -654.1260167 -494.333496)
(-296.1306642 -130.0576293 -160.1816177)
(-524.2005823 643.5525855 -832.7233932)
(836.6918496 31.98133328 156.5866473)
(314.2393519 289.015013 561.7981864)
(1498.497051 459.9533926 -778.4206023)
(-508.7134526 -317.4776817 197.1991379)
(1388.900256 -497.8319461 -534.6909697)
(-194.2299967 -713.9629472 392.9885888)
(588.1692307 437.910261 948.6408099)
(1685.920307 403.0296356 70.62100208)
(443.8233229 417.6156742 347.5472724)
(342.3623541 787.9635485 177.3408039)
(-277.3039545 729.1051218 -201.61452)
(536.5639098 -203.1684499 148.7877603)
(464.397022 -610.4797938 707.8022649)
(457.1631216 1109.956238 -679.9841773)
(343.2116668 -211.091673 -36.08663459)
(-509.144461 -105.4183841 -647.2762151)
(-41.28149804 -91.69281967 405.7435284)
(374.3767586 309.7433323 109.5209347)
(572.5940514 665.6963391 -52.58452085)
(46.98626 351.8789698 -283.9988354)
(838.2590889 174.9921471 -834.8758221)
(353.7893926 335.8210975 279.2754986)
(705.5181829 103.8144916 -477.9955589)
(1214.757742 -120.7789151 -129.2180849)
(757.4816738 4.045454273 -609.3323899)
(68.46490492 557.6997321 -519.6401941)
(288.6207034 -258.2811453 -971.4151214)
(275.814844 229.6775977 -584.3121568)
(-420.9927164 249.6723565 -658.7188456)
(15.35999449 393.2738241 -1026.117206)
(-136.540081 795.1915928 -60.14591706)
(1241.651386 -180.7285627 -322.9779484)
(686.1507688 29.68383169 732.8400031)
(-99.76617582 256.0230836 -259.3695623)
(-565.715481 194.3343558 -159.939341)
(2322.130952 121.6625912 674.9071976)
(-51.55120796 -215.1125672 710.0170695)
(1163.990231 276.3775512 56.06314004)
(-505.3741617 -32.87106127 -34.10021693)
(681.2739679 -457.7393348 40.81619967)
(-488.0204885 -209.8012836 -370.6067528)
(-413.9351798 351.2345363 -55.81802302)
(789.4969245 289.4859623 329.1614036)
(-99.46381749 -487.7177576 -317.0233294)
(834.2221604 693.4572966 -466.9424743)
(1104.646076 -547.2031257 -214.8069351)
(-472.9986926 -555.0228614 144.1637742)
(43.89744475 -516.8848189 152.5051197)
(-481.3226546 -689.2233971 -463.9088563)
(799.2015946 -519.1623438 -155.2200067)
(578.21617 -232.055502 -519.3508319)
(1714.247157 294.6791571 684.7019988)
(226.1945368 -417.8592652 -925.5478462)
(-202.5645824 -15.16861621 629.4730164)
(147.474642 312.5650832 172.8045246)
(579.3764281 567.5606146 1469.205897)
(1159.843803 -687.3441819 -411.0660779)
(1385.980237 785.1604201 76.4501603)
(326.8356008 336.2071557 142.5980699)
(148.1011628 807.6063559 19.61032202)
(214.6189979 646.7508926 -253.2437636)
(76.5594661 202.9572025 -221.5493284)
(1377.192387 -99.14431846 -263.2074836)
(927.1884874 -345.6478633 -129.6420625)
(-514.5679201 -46.52805197 -459.8970769)
(-478.7925883 -811.4524463 581.8043591)
(-576.1815423 -406.9325841 -169.6226875)
(-353.7272192 -417.2892858 8.67520584)
(-305.9939473 -256.5136793 63.60646163)
(1695.846343 47.3436842 81.4984411)
(-71.61439324 -45.74628498 437.2655941)
(1605.916842 -61.5024052 -35.90802772)
(305.4809087 -681.9385151 838.0731543)
(861.3299973 750.3117013 -189.0422542)
(110.1352238 -387.4722599 86.38193737)
(-171.7659709 403.2173669 -248.9999959)
(22.84650356 -840.2010283 263.058326)
(957.8124191 -86.10644154 448.8211738)
(13.28045809 -127.570023 -231.5224754)
(1191.811327 1547.491849 -389.129407)
(-508.2011039 183.4838421 -151.2353212)
(-130.8773423 132.9741967 11.34509281)
(274.9163206 -197.9227879 -115.4922041)
(94.74903225 -322.9091064 101.0094193)
(-269.2610252 -0.7073997975 95.30966348)
(98.95481718 449.268247 238.5094659)
(1343.232306 -196.200617 -183.6508615)
(340.3778645 594.0961049 25.73628698)
(1.804568429 -150.4767456 627.2397749)
(-297.6025518 -93.85234682 142.9915427)
(987.8435818 315.9200254 640.2505404)
(792.8430949 343.2872277 239.056024)
(54.21380028 -283.4464609 468.4681828)
(247.6397191 -365.2406349 204.6910285)
(3.121509898 29.46417619 757.8421678)
(-223.3934251 188.2679215 111.2652135)
(510.4356581 526.5210604 -317.897731)
(380.0888029 227.1160297 488.6059225)
(324.5260739 -103.0366296 511.3254703)
(464.3067783 307.5843309 76.26938026)
(840.8122034 58.93101826 180.5548137)
(585.3793866 -127.749192 -142.979765)
(107.1919673 699.4918453 1559.330268)
(165.1698911 -87.70180426 98.18310187)
(353.199209 -328.9816299 135.7029125)
(100.5276502 -815.1924897 22.32014255)
(-228.0702883 207.7963423 -281.8665095)
(148.2988739 279.4032813 18.94368545)
(-899.9618486 43.59294769 -226.440689)
(-802.3052055 513.0452 26.0567887)
(537.7430813 -887.2151366 -365.8741079)
(-186.2164764 391.4428541 114.0877698)
(1117.486756 148.3755299 -162.4577408)
(-307.8918028 -218.3312889 -588.5631022)
(178.7633122 -232.1103207 -423.4836021)
(-579.8541136 -211.1558149 856.069195)
(632.4866763 -52.39132833 -427.5446397)
(52.86999049 -617.7040089 -221.2808397)
(402.4119512 260.5142474 610.6136212)
(-168.8990115 350.5245646 -221.7413995)
(294.7310546 106.4737542 238.3666249)
(331.3659912 759.112621 261.6546373)
(341.2054424 -458.8603175 -7.064261255)
(799.7119153 650.84275 860.6500578)
(42.55489281 -144.6995954 -164.1606592)
(-666.7687095 516.7685236 -190.204153)
(635.5113824 827.199064 52.35989303)
(-10.43360058 44.27086565 -973.8633415)
(-23.00432482 -449.1056501 266.4012737)
(522.2992957 -565.9370539 162.1635445)
(-52.3879451 548.5716732 1051.380841)
(-291.9181321 -508.3755696 580.6360745)
(105.8064134 403.1004543 -672.3036273)
(-116.2340356 -305.5434273 1124.0291)
(-250.2805045 332.9247662 1218.329664)
(1250.595276 -114.7258323 -626.4413125)
(-309.3233924 -91.30289221 226.2390738)
(340.1048575 327.7380578 93.30434333)
(470.0983579 -357.2156264 74.81724764)
(1018.755954 356.6988654 -743.143219)
(843.0854598 505.8200219 -161.443432)
(361.6519157 -693.7909366 257.6413868)
(78.47784342 -86.4414043 645.9481619)
(-693.4419091 594.6533914 65.93881667)
(2016.442361 167.1884395 -5.495857406)
(536.9671145 -482.5815654 -373.6896975)
(1942.668527 104.7339334 -746.5432423)
(-1240.447177 -261.8056067 293.5307447)
(730.2953813 751.0027177 -596.615363)
(824.3426097 915.6366651 208.3372805)
(1142.76302 370.4250392 -198.8598701)
(-423.6586323 -108.8673407 822.9097294)
(-119.4093234 -69.81134708 674.0671693)
(-191.0773826 -366.4794672 -461.4076378)
(293.2215057 -637.8583166 -939.1120979)
(-528.072041 322.5149448 -92.32176979)
(-29.6999787 296.5061848 967.7317892)
(-438.148016 -516.5574686 -619.2564699)
(-486.8836474 659.6754654 546.8345472)
(1427.412902 -211.4991407 -9.82229209)
(-793.7107807 -462.6199208 984.7008513)
(463.8721397 216.5671047 -62.05027057)
(1083.585178 217.9073565 -109.7867123)
(735.5223356 329.7430754 -158.1394915)
(-139.0129518 674.3469655 202.8446364)
(556.5573997 329.8661827 207.1797945)
(-545.3563687 543.3137524 -75.83796421)
(610.1968194 629.9445581 -710.6426114)
(768.2255186 192.7626947 -467.6530972)
(1124.745697 497.5395023 -244.2189381)
(531.7996399 17.90680362 -205.7178791)
(601.8801754 -306.7783226 -400.5511418)
(-326.6018827 246.5609396 -435.3067084)
(775.0375116 317.1453831 43.10338744)
(344.7381162 -515.8720547 -334.3988426)
(340.8923249 -517.4252132 -324.8542912)
(812.6732413 168.8800836 -25.19624978)
(-301.8815305 -712.3573977 1205.175725)
(495.08438 5.608037815 -524.4545393)
(817.4043591 -510.0006804 869.6918594)
(-447.0260041 346.6057778 -437.2559638)
(-339.0657364 202.4075585 -237.5339091)
(-138.6961752 -65.2627179 -225.7900958)
(702.8604964 -332.1527667 -773.0172571)
(726.9852642 -167.7134806 -261.6977057)
(1492.229691 106.6200863 -108.899617)
(684.9511261 306.3055116 -466.1937854)
(186.8779252 374.4806934 226.0523447)
(-187.9966109 379.2785403 589.2288484)
(-11.81696862 -513.3094713 252.1586857)
(-257.3702809 73.13706711 293.0005313)
(69.43199887 469.979288 7.826287616)
(694.9282929 -113.7053676 -438.478636)
(-298.5265604 230.0974487 -98.79247541)
(-890.6820711 717.4573975 316.3749472)
(-0.1373089796 179.0074917 275.0240893)
(-228.8692853 -243.447459 415.6547894)
(219.9143524 -94.94822926 670.0073929)
(-161.7296459 124.7973985 -250.785896)
(882.923029 630.315075 -250.4546989)
(529.8023762 554.9803722 232.5028212)
(1484.221367 278.3024187 -665.1747224)
(-45.54941571 631.9403446 450.5841525)
(-515.5703913 767.479314 -102.4263434)
(1005.81981 -379.4398733 860.1862856)
(367.9173089 953.1556669 -358.364672)
(468.8917633 -46.12505288 -938.6620681)
(108.6747129 -344.1356787 189.9652828)
(238.2025945 647.1034157 -166.7534006)
(566.7053702 283.8333004 126.1759125)
(617.1159695 215.1347106 244.7157498)
(806.9429742 -26.81084939 -578.8050229)
(-92.65044513 -30.64044723 518.8329071)
(678.092478 1096.315356 -62.06006467)
(1254.311123 59.05967578 -120.4799094)
(-398.7363952 414.2965179 252.0766354)
(765.9385987 -47.67719447 10.90822903)
(-140.2528545 -487.2898672 -225.2869316)
(179.5698488 -956.4119456 -680.8687345)
(296.5798255 290.7069939 -574.5043601)
(67.71671762 -396.2750276 139.960297)
(107.0535309 188.255715 -6.960973008)
(547.2145356 -54.99515931 208.6428123)
(893.3795359 -507.4279443 199.3230094)
(-184.3578446 226.6319929 393.1102418)
(638.2618432 544.6151385 184.1309046)
(644.0684764 -13.24325511 40.76369739)
(130.8735424 49.28504562 368.5467324)
(373.7800335 -101.2500522 -576.5758942)
(36.20027299 -572.3758417 251.486195)
(1152.005818 -275.1200256 -93.56952652)
(599.987692 44.95376515 165.1599742)
(1239.580824 429.0154621 -397.6632342)
(1281.714645 782.8891606 -118.8121261)
(114.8170735 267.0749568 -186.3283726)
(572.2160511 -793.3519064 157.1575018)
(-381.4353581 455.152663 615.3728914)
(648.0495805 333.2962551 20.28360483)
(1.329415615 226.6230944 369.4792629)
(-357.8036397 149.7376056 30.86623171)
(1707.139908 -782.9549248 179.4179357)
(462.5954412 -535.4040044 -88.49956256)
(-72.80921472 28.44784889 444.6271844)
(-444.2799238 -260.1316431 -65.31765904)
(8.725420684 247.189312 518.2490787)
(1186.198517 508.920215 -392.7539604)
(-370.7298865 -44.06614965 126.1686625)
(-235.862291 362.2915589 72.59255726)
(797.3781578 -298.2781516 32.11621169)
(542.1559103 631.4064941 689.5722592)
(762.5742617 438.7734685 84.76939647)
(-462.9303237 169.5302973 221.8210821)
(275.2730962 68.18557194 155.4141366)
(-71.67277037 -95.09220723 565.4388719)
(426.1723831 177.5733988 312.3937824)
(496.6904245 338.6670232 144.4807697)
(101.1871525 -382.4280564 -968.6413189)
(1251.743589 961.9687799 -51.79275219)
(-702.5823993 300.1926973 303.6258144)
(1264.842198 -152.947323 588.5305242)
(-705.8234908 -378.6500667 627.7892482)
(573.3590855 321.238719 203.0175948)
(925.8089926 65.92434106 161.2391558)
(-478.3790648 1060.793268 -486.8922646)
(608.0000199 -227.4240352 314.6252772)
(440.9483507 -866.4067293 -165.3503652)
(-144.0515687 561.5259938 411.4745234)
(148.2253087 -137.993949 254.1042075)
(195.0186429 1244.934496 -315.9120846)
(-420.0010866 -507.0425807 -718.8294572)
(595.0162747 38.01162183 204.5756425)
(560.3397193 54.03538192 547.1110613)
(151.3588746 270.892073 -264.5483011)
(538.6907079 776.921613 362.183398)
(5.887032056 517.8117634 65.63669196)
(-127.4230325 426.9643265 -516.309422)
(-293.021519 -838.758428 627.1807554)
(242.2616825 -71.53296004 -378.0853356)
(366.2616322 362.064685 999.3645073)
(399.2210466 254.5640368 740.4180197)
(1068.179391 -125.4097041 -387.2500562)
(-401.3086201 -164.0531652 294.1426999)
(207.2398975 531.7215052 786.889837)
(-333.3261311 -619.4379319 -793.3024613)
(-318.4556499 29.91722934 37.75162874)
(624.4481061 -805.6846055 -381.9383617)
(-179.1924848 -33.06833208 -466.333789)
(326.5652193 732.9364097 440.7122772)
(-137.660906 90.11709284 -184.6676221)
(1438.190849 -665.0856398 81.99744524)
(-35.79864459 519.6389508 637.7889569)
(-275.6905068 -99.54046265 448.6814113)
(-605.5938919 -59.02264617 33.40317618)
(-10.19315921 241.8299529 -170.4693253)
(-250.3843889 -143.5950505 -287.93855)
(-118.0099849 -227.1646132 45.45780766)
(-763.657863 -86.91340555 332.8054417)
(443.6265386 -97.28548604 -51.72051459)
(-126.0705793 307.923028 549.6936373)
(477.4123282 -131.1238633 -351.6021431)
(290.4301109 -322.508988 -5.624469622)
(347.6858715 294.7821749 384.6389078)
(1194.697767 376.0648749 -827.2412128)
(746.9689702 195.5606924 -388.812972)
(26.10400677 7.005807464 342.3007801)
(253.5021299 209.1093689 239.7926109)
(689.3831858 12.09775891 -32.01984816)
(114.1243835 615.3680361 275.4230206)
(1.260425928 307.9260051 207.5059205)
(1064.599225 -147.1166518 195.0912751)
(-471.562831 -138.7344625 -69.97093891)
(1089.841604 -405.0578771 -408.5726108)
(-1.965184858 206.6544082 141.5233095)
(-880.9715233 409.5626728 -498.0440216)
(209.8091814 38.1505424 464.703631)
(794.8138035 366.6995743 706.4763006)
(663.9381786 -334.2660061 -55.65568364)
(175.3650707 326.3878406 -30.98227822)
(578.5332518 132.4199067 393.9850209)
(-546.2361492 -91.85082444 251.0864416)
(110.5642818 555.3975895 573.924768)
(231.8913033 -415.7107696 72.66703238)
(773.4804008 247.8103847 313.2537831)
(463.295724 32.89247041 -332.5785298)
(230.848707 -278.6772067 -570.1577562)
(833.6585096 -45.25808281 -411.9531873)
(861.2896608 -89.80749291 653.1083863)
(658.9009553 -85.23464412 37.81751178)
(1875.08789 357.71438 222.7759389)
(1125.12859 -179.4846519 -354.5057697)
(-477.1571895 -632.4549561 -314.4864777)
(199.0992901 162.0251756 12.57269823)
(-65.00080994 716.604347 40.54835438)
(909.0804245 788.9442254 -75.09462425)
(507.2729811 134.4060162 174.470017)
(-203.4023777 438.863026 -140.4830246)
(591.3016964 360.2866588 231.4765326)
(-510.8678183 -298.1131581 730.8016994)
(374.043786 -136.9751684 -518.7865515)
(197.6152318 416.150487 663.8675022)
(859.9790256 -325.9211578 168.003401)
(298.3907566 -617.1487615 -397.9975013)
(589.9101093 -761.0436673 -177.1835386)
(1343.889106 116.5629131 192.9367709)
(104.0775742 1843.499937 -588.2991407)
(-234.9093505 547.3827564 -303.9970241)
(8.204706762 158.936629 355.3786326)
(1189.951316 121.4614848 -305.374942)
(-214.7727957 615.8682869 -116.5673249)
(994.7385266 994.1313579 41.18896986)
(-472.2607415 -606.1999821 140.049137)
(61.28626051 680.9937416 612.9199502)
(525.7210003 -696.9056294 317.8422049)
(-97.93705622 -104.127691 -304.9802618)
(-327.6330627 79.73065577 -119.1355946)
(264.5039575 443.0779837 -1256.665266)
(110.8664326 -452.3526556 -126.4198823)
(-908.2621023 -166.2963972 -318.0671323)
(317.5567836 -619.2578454 265.6781743)
(-231.7723099 410.4653117 285.3698747)
(723.1476192 95.53026207 122.2309554)
(104.1316221 -229.2738597 -220.9064636)
(1513.231712 731.0073407 598.0590477)
(128.7628445 194.7380433 641.5943077)
(856.0887947 -384.1469832 -14.90463937)
(166.7406714 142.4128477 295.1268109)
(675.6859398 -385.0994558 -240.0302574)
(344.2690386 -91.63001679 19.0341722)
(728.9185074 -290.7619489 802.8533914)
(-721.8474628 -36.20891176 -94.22863188)
(-527.3558452 -98.89341254 -4.69695819)
(-216.4852995 411.6863958 292.1004975)
(195.0050847 183.6395975 690.2286211)
(741.7459556 1391.330723 26.35149132)
(-6.348891412 -638.2587038 147.74784)
(-156.6728836 -1025.511021 -1290.721656)
(1359.506459 681.0983703 367.3460812)
(358.4322434 12.65087046 -373.2059882)
(-134.7825292 332.2669232 -287.5576914)
(-169.5688954 80.89968686 97.38055743)
(934.6595881 -622.4643571 583.0944432)
(-109.7139677 168.6866423 -6.564738438)
(645.0719904 39.30125843 682.7482995)
(440.1437743 132.350575 -78.39475407)
(571.6297333 56.36496254 465.7341868)
(331.8736202 -393.5024901 880.1079043)
(448.6872627 -1328.007082 493.8746229)
(245.8318142 -82.73353977 -579.6092019)
(331.2952491 743.8385523 588.4322273)
(324.9498751 348.1176083 -76.17606537)
(-355.6560055 290.5211719 26.88672653)
(704.9163373 -161.1741175 -838.2581574)
(422.4601612 681.4204633 99.09219194)
(637.1939759 -316.8444272 362.8518231)
(-209.7406111 330.9282311 -141.3138505)
(307.8771589 161.4451344 -297.7636418)
(-185.9733486 201.5652039 -342.798596)
(1045.6692 -759.0536351 -491.0343965)
(1303.401244 -152.8625421 -725.4176334)
(-56.07627533 402.3473447 -140.675825)
(997.7026004 741.7524444 -19.192573)
(418.972195 571.8636077 146.493405)
(-344.0432772 357.06634 1061.311488)
(237.9736869 -107.1121245 122.5657274)
(-302.502587 905.6602645 143.809375)
(-424.4621608 391.7373189 203.2108875)
(1552.923922 394.8249406 -541.7128662)
(1268.976142 470.7205162 479.5409817)
(-559.567335 409.2900436 332.3560941)
(488.7782718 137.6670786 50.18775262)
(-735.3686932 -304.7477847 815.6420394)
(-18.88137994 -591.8889331 51.69093958)
(-982.1503897 -424.0457434 823.8869899)
(86.36251721 -287.1517093 129.095864)
(948.8780052 587.9866877 568.4117466)
(665.2369424 -429.7854504 -122.5815942)
(1321.621921 452.8586604 394.5681087)
(196.5782685 78.05476654 -95.46769057)
(101.966378 -58.89819526 -376.0991748)
(593.686683 -230.3438015 -8.844117637)
(49.20834548 1007.509608 -882.5536849)
(815.184729 -275.2530066 -307.5887133)
(1217.840324 -666.3827381 -78.6494099)
(353.0160127 325.8068154 569.1115525)
(364.6397989 459.163399 9.087440355)
(312.8536329 308.568993 -319.2525137)
(-12.11770131 -400.8728597 405.2684664)
(385.6723469 -546.479139 -47.72838356)
(470.1920572 -143.1524514 591.7137091)
(758.8408771 801.8140117 -564.6581914)
(1270.684303 1127.249316 -238.0446535)
(490.5139752 531.2812263 130.391185)
(865.8928245 69.65840893 -284.2698377)
(126.596239 411.2879364 166.4618816)
(361.4159206 -842.8659663 -516.4964096)
(443.5286539 253.8419799 -739.5344286)
(403.0189522 101.599433 243.2880068)
(-522.5036365 523.7652684 403.1069909)
(-230.3745477 -257.1636489 -493.1101353)
(1435.92887 1109.944745 967.6637552)
(1158.805137 -378.1951257 1143.650177)
(358.9217614 68.59432168 -23.6546803)
(-61.29926339 -187.5694568 -417.696181)
(1425.259043 650.3276404 -917.0880717)
(26.58964436 395.3923407 317.1034715)
(85.79318694 -493.8134972 -609.1203941)
(166.421364 938.0800872 -296.3880632)
(-401.9202043 324.3569441 -533.1118334)
(514.9146243 -57.3082834 573.2353549)
(78.50196058 413.0285717 565.7091152)
(813.8434113 704.1456959 -263.0095015)
(712.6975382 -18.86094116 39.49000136)
(973.6722867 784.3060035 364.9954111)
(474.5874924 -247.4834375 805.1541001)
(14.8202576 190.1680193 -26.96938386)
(-523.9447938 -311.6289319 116.2424605)
(737.9199772 -242.4166682 388.758938)
(643.2249433 -22.16412188 -137.057089)
(884.4169899 -927.1143588 -300.1354723)
(109.2155782 139.0564046 -209.3708709)
(853.9760162 323.018663 305.5161332)
(-119.5536163 218.8134382 -355.5445215)
(626.3168521 -470.0884522 402.0651358)
(1129.81007 596.4557895 -41.77019281)
(88.1738026 -160.982255 762.8449152)
(-1011.298414 -477.3503575 -100.0194453)
(-266.8654971 171.9329525 776.4375742)
(510.1064451 -90.05632919 -317.0744401)
(567.8924769 -366.8407784 -779.6316589)
(184.2230231 -227.482366 284.7472482)
(15.37891902 540.4936974 661.8676124)
(-9.935679234 273.7111321 -78.02841352)
(-566.0317127 518.8526254 1014.894771)
(372.4178321 343.6456328 748.3627433)
(1139.093257 562.7946458 136.7932221)
(-719.7213443 660.3107891 -8.400923705)
(1331.249158 775.3945667 -572.6667354)
(790.4102195 -153.0252272 -335.5488087)
(-688.7572117 -4.830978153 -330.7411809)
(-473.3317078 498.4920797 371.0163304)
(-607.2955375 1109.145168 -87.62047907)
(355.5595926 41.68173646 136.3564013)
(739.9762582 282.9773134 518.7300949)
(531.8404378 163.0873246 32.08764203)
(-456.1857386 -31.29419902 460.1124128)
(477.6217351 -10.58283728 134.1088832)
(1177.552401 183.4903084 -417.9351465)
(-188.2837429 -36.71188214 147.1372238)
(770.978235 1294.857634 -313.0812371)
(-131.4971846 -224.0574683 -461.1435846)
(-200.8663859 395.1848591 -46.7277768)
(182.6283977 72.10603838 295.9039301)
(1262.228248 -151.8751971 -642.094172)
(-572.522492 -188.7904006 -328.5080198)
(1103.337934 334.6344895 -146.903454)
(747.6090988 -131.2902628 -487.079936)
(273.3771773 441.0912155 -60.92142626)
(223.9609658 -465.6927548 -481.4665164)
(-324.6032293 -842.3565145 753.2766855)
(59.37552164 365.9524317 -54.63844323)
(-140.6856269 336.328415 -369.1683716)
(311.5214086 -417.9491737 -613.9228839)
(-8.448065016 455.9047207 832.3506851)
(673.7950591 116.4845294 86.69359868)
(114.6809164 85.5475165 215.3970541)
(571.3292207 485.3628099 -771.1934598)
(387.2940482 -108.9119416 125.204247)
(-460.1203633 -326.3152389 223.3754416)
(994.2965369 217.4961865 105.1572193)
(358.6974533 247.4793278 -350.9867431)
(1220.86907 -134.4080256 328.9607981)
(1027.186026 -598.6007741 107.5715357)
(1319.384102 345.544379 -348.6516983)
(524.6562758 804.5040931 -178.2867313)
(1570.610322 303.860211 -641.2978314)
(261.1817662 214.7254769 419.9290727)
(1285.948807 350.7315191 -665.5520915)
(-135.3266541 684.267406 -22.69725432)
(1254.725726 438.4098124 -152.2073812)
(-318.4815699 368.4706893 668.7988014)
(214.6636016 -495.5675887 268.7581463)
(364.8094909 458.856876 104.0706308)
(150.9105001 -666.5390837 -80.80985411)
(1096.298921 148.79638 501.158282)
(986.8436071 866.2476991 702.784665)
(-832.3877824 630.2696999 -273.2192382)
(-127.3770212 359.4573598 1101.746034)
(-636.1549419 578.2434407 49.68864261)
(815.2739511 -107.7170081 129.4230781)
(285.7998159 195.4001546 -200.8032102)
(229.0146347 -371.4228437 -378.2099053)
(-301.3468616 -81.87523128 359.6749838)
(395.4041964 265.3414386 409.5036779)
(952.1835641 -57.21370914 70.17123617)
(276.0586434 539.5189884 -86.6159035)
(612.8656856 -90.78168529 397.3393423)
(1020.742199 -197.9407562 376.2663344)
(-68.29989933 328.2254945 237.4002167)
(373.0632614 -79.82421464 -106.8680074)
(102.6661662 -489.3712675 -467.0631481)
(66.71220012 -217.7086448 -297.7047865)
(1329.037307 -103.3387517 -819.8520328)
(133.6611366 -665.5278484 -530.5083088)
(412.4358359 -382.0857495 1.286507)
(-189.7577183 -34.64683573 -538.1836264)
(229.2780167 -354.1578029 313.3055783)
(1125.260905 -183.2528546 167.8612151)
(-410.7396659 562.2218931 -301.8644444)
(1070.082537 -112.7705729 -79.77915883)
(71.50074207 -796.6041354 -798.3939258)
(388.0494793 468.9944078 479.080822)
(826.010479 824.8047769 -73.17150577)
(1587.296866 1212.067537 235.967881)
(1198.718699 310.3552521 111.1909303)
(463.428211 -391.923579 -706.6539982)
(537.5098441 195.6519643 -45.88665051)
(-181.6966257 397.7731048 -490.4270942)
(968.5800657 765.627585 -249.6591487)
(615.5415023 -343.0278206 419.0116897)
(227.8894594 131.6088271 -149.3364809)
(399.1950841 157.3805254 -579.617872)
(31.81442524 598.2838576 -368.1110823)
(357.1014328 462.1508387 431.5669762)
(380.0869563 679.4339922 -773.4000591)
(-26.88900431 51.71043051 148.1195138)
(-220.46036 93.00730006 43.55529322)
(-204.656931 -484.4395817 837.3479941)
(618.2644158 -71.99803563 821.4126171)
(1558.758382 101.7912347 188.0092577)
(492.757651 327.8281125 -758.2841402)
(-225.5197145 315.3401182 672.9497434)
(364.9405765 1043.808275 -455.0354359)
(551.7270615 154.3132151 154.0896395)
(1790.106834 156.2713006 -215.9957167)
(106.573391 187.1427967 0.6556200706)
(132.6742594 -258.0579344 -554.3769675)
(1055.20972 302.8699291 188.2229178)
(342.879978 609.6079264 -617.8152771)
(76.78509441 -400.6430707 197.2226337)
(102.1799212 552.8850955 499.3021502)
(-45.66228493 -693.7012129 145.0693195)
(183.3829078 -84.24355767 493.173435)
(937.7392469 841.7191818 -1155.573722)
(154.3808445 492.8896448 405.0202866)
(716.3220712 479.5999464 -747.6498896)
(-92.33544893 787.3401533 -461.5256535)
(250.3837741 -104.3277297 599.6800498)
(34.38552078 -520.0033311 830.1827298)
(1367.979869 421.2802146 1029.007437)
(33.04882644 -125.4025993 23.68153216)
(14.02026727 449.9370996 -460.8693607)
(80.19983888 -133.8026542 -59.9227457)
(523.1643675 613.4845867 184.2766579)
(-398.4858725 180.8748218 1153.772996)
(188.3017285 1251.81721 484.8131387)
(189.1275994 105.4511135 391.8597887)
(320.806889 -221.4795951 1176.041512)
(378.3305082 327.8085712 -187.4113163)
(-143.0590931 -183.0604477 -281.7114044)
(2.197993466 656.1685187 322.7398365)
(-335.7591975 -609.6663436 297.5021665)
(1284.643407 -477.1182854 330.7967315)
(28.80968335 51.01287852 -442.9783091)
(1127.838682 -133.5973185 508.4029063)
(690.805481 134.3038636 329.7755648)
(811.4881977 -384.6147201 118.8955837)
(856.5767626 210.2561271 255.566692)
(1569.590087 839.9692397 305.7812753)
(347.9968694 363.9472743 -11.24966341)
(-553.0493941 -66.09481497 1005.84158)
(-391.3219508 -249.7426674 462.4994667)
(954.8816562 217.1695607 31.38965076)
(-326.3507195 -527.2625093 -20.56911548)
(-220.758565 -144.9294977 634.1897201)
(156.7499316 146.6608948 147.8222845)
(-284.4841367 -435.8027607 356.1819863)
(219.2599819 -180.4317036 263.7635427)
(598.1172497 -97.49843188 303.8106032)
(-29.66954434 -1016.620168 -376.7332184)
(701.9873949 351.8891947 -671.943103)
(-235.811825 519.3886555 -548.2375938)
(569.021373 473.4065363 184.5361743)
(572.6262 244.3300811 -252.7503058)
(70.6566633 -322.9874251 -56.15581279)
(-26.13757991 -346.9657164 -297.0844322)
(958.4883651 753.0255674 226.4877371)
(633.1229604 -251.1899883 -139.3855286)
(815.013373 -275.0818655 84.96850733)
(-60.7299752 730.8696312 427.6231262)
(888.3186235 -170.7114892 668.0657234)
(1066.369955 1293.304386 -804.3319355)
(1879.643688 521.7070044 -55.90989059)
(1500.652103 -519.8785301 -438.3365972)
(314.3177853 239.2445726 -936.3807037)
(442.6347726 487.7864803 -77.89925537)
(619.28021 -173.6222029 423.4954304)
(316.626283 242.5125378 -341.4820739)
(306.0598006 -230.2479433 156.659584)
(-349.918581 -479.7643431 -122.2159239)
(2.379964255 -536.2345248 368.7362614)
(1113.47861 -666.2023929 -1189.677729)
(458.5506245 505.5829401 647.8702857)
(1346.880128 -770.565261 -899.3815431)
(366.3382531 170.5876166 -439.3538743)
(-535.5006469 -387.1448916 -239.1271931)
(569.9391701 806.6864669 -367.1602555)
(-436.6262212 -222.7033337 113.84465)
(1338.782747 -442.4177545 618.4007394)
(1402.35897 653.7298305 535.417276)
(1110.001334 -3.820203932 -362.5524015)
(-223.6120788 227.6498865 -455.2014063)
(26.45632085 240.6031679 -309.3318547)
(422.1420069 390.4047989 -58.08094143)
(249.4467203 171.5288099 -902.655677)
(-363.830441 203.1257543 -267.6811452)
(1920.296516 262.7862303 1018.696446)
(492.9237941 -21.16345464 -1405.887411)