/*--------------------------------*- C++ -*----------------------------------*\
| =========                 |                                                 |
| \\      /  F ield         | OpenFOAM: The Open Source CFD Toolbox           |
|  \\    /   O peration     | Version:  v1912                                 |
|   \\  /    A nd           | Website:  www.openfoam.com                      |
|    \\/     M anipulation  |                                                 |
\*---------------------------------------------------------------------------*/
FoamFile
{
    version     2.0;
    format      ascii;
    class       volVectorField;
    location    "7.72";
    object      grad(T);
}
// * * * * * * * * * * * * * * * * * * * * * * * * * * * * * * * * * * * * * //

dimensions      [0 -1 0 1 0 0 0];


internalField   nonuniform List<vector> 
1900
(
(1.31683 1.19657e-06 0)
(-1.69131 7.0572e-06 0)
(-0.327329 5.02815e-06 0)
(-0.0356005 2.05222e-06 0)
(0.0288304 -1.40061e-05 0)
(0.0681936 7.24061e-05 0)
(0.0767874 0.000192165 0)
(0.0523762 -1.29312e-05 0)
(0.0197993 0.00119465 0)
(0.0254358 0.000448788 0)
(1.31684 2.51014e-06 0)
(-1.69131 9.60467e-06 0)
(-0.327334 8.388e-06 0)
(-0.0356195 6.50959e-06 0)
(0.0289007 -4.35189e-06 0)
(0.0683997 0.000160724 0)
(0.076702 0.000367875 0)
(0.0533787 -0.000327864 0)
(0.020261 -0.00036467 0)
(-0.00311593 -0.00208359 0)
(1.31685 -4.57533e-13 0)
(-1.69131 -4.35849e-13 0)
(-0.327332 -5.07407e-13 0)
(-0.0356132 -2.79724e-13 0)
(0.0289846 -2.51535e-13 0)
(0.0685658 -9.86624e-14 0)
(0.0762988 1.37694e-13 0)
(0.0516437 1.19262e-14 0)
(0.0180436 2.1684e-15 0)
(-0.00673435 -2.1684e-15 0)
(1.31684 -2.51014e-06 0)
(-1.69131 -9.60467e-06 0)
(-0.327334 -8.388e-06 0)
(-0.0356195 -6.50959e-06 0)
(0.0289007 4.35189e-06 0)
(0.0683997 -0.000160724 0)
(0.076702 -0.000367875 0)
(0.0533787 0.000327864 0)
(0.020261 0.00036467 0)
(-0.00311593 0.00208359 0)
(1.31683 -1.19656e-06 0)
(-1.69131 -7.0572e-06 0)
(-0.327329 -5.02815e-06 0)
(-0.0356005 -2.05222e-06 0)
(0.0288304 1.40061e-05 0)
(0.0681936 -7.24061e-05 0)
(0.0767874 -0.000192165 0)
(0.0523762 1.29312e-05 0)
(0.0197993 -0.00119465 0)
(0.0254358 -0.000448788 0)
(-0.000914039 -0.0234284 9.39731e-16)
(-0.0105197 -0.0183775 -1.12813e-15)
(0.0986615 -0.0305058 -1.43244e-15)
(0.386628 -0.0593351 0)
(-0.50757 -0.320401 -6.45509e-15)
(-0.0176746 -0.0284563 9.35497e-16)
(-0.00319133 -0.0223239 1.12813e-15)
(0.0800213 -0.0387043 1.43244e-15)
(0.279188 -0.0648053 0)
(-0.4429 -0.354341 0)
(-0.0266132 1.96413e-15 0)
(-0.0100937 1.66435e-14 0)
(0.0692516 -9.03502e-15 0)
(0.250426 8.21365e-15 0)
(-0.571718 1.03257e-13 0)
(-0.0176746 0.0284563 9.35497e-16)
(-0.00319133 0.0223239 1.12813e-15)
(0.0800213 0.0387043 1.43244e-15)
(0.279188 0.0648053 0)
(-0.4429 0.354341 0)
(-0.000914039 0.0234284 -2.81072e-15)
(-0.0105197 0.0183775 -1.12813e-15)
(0.0986615 0.0305058 -1.43244e-15)
(0.386628 0.0593351 -3.94745e-15)
(-0.50757 0.320401 6.45509e-15)
(-1.86729 0.446674 2.18591e-15)
(-0.957839 0.312371 -1.58224e-15)
(-0.58841 0.213346 0)
(-0.40938 0.199035 1.01509e-15)
(-0.30025 0.0787301 -4.26501e-16)
(-1.66519 0.444064 -1.09968e-15)
(-0.998321 0.204371 7.95825e-16)
(-0.604741 0.109421 0)
(-0.450582 0.130341 -6.3916e-16)
(-0.300011 -0.0430275 1.06894e-16)
(-1.71687 1.20467e-13 0)
(-1.05417 1.251e-13 0)
(-0.615487 9.63735e-14 0)
(-0.483481 7.79492e-14 2.57234e-16)
(-0.285865 4.91378e-14 -2.13788e-16)
(-1.66519 -0.444064 -1.09968e-15)
(-0.998321 -0.204371 7.95825e-16)
(-0.604741 -0.109421 0)
(-0.450582 -0.130341 -6.3916e-16)
(-0.300011 0.0430275 1.06894e-16)
(-1.86729 -0.446674 1.09968e-15)
(-0.957839 -0.312371 -9.4076e-18)
(-0.58841 -0.213346 0)
(-0.40938 -0.199035 5.99429e-18)
(-0.30025 -0.0787301 4.26501e-16)
(-0.18603 0.681612 0)
(-0.0938039 0.776461 0)
(-0.0649659 0.812725 0)
(-0.0437171 0.754923 0)
(-0.056493 0.660086 0)
(-0.0885042 0.529952 0)
(-0.0503583 0.378918 0)
(0.0977239 0.336708 0)
(0.381682 0.289641 0)
(0.445466 0.316048 0)
(0.195535 0.215795 0)
(0.0415046 0.110536 0)
(-0.00893795 0.0709444 0)
(-0.0836569 0.0585041 0)
(-0.187117 0.0425216 0)
(-0.223815 0.0207226 0)
(-0.183682 0.00383568 0)
(-0.164692 0.00887683 0)
(-0.200413 0.0149049 0)
(-0.261637 0.016314 0)
(-0.256597 0.011569 0)
(-0.147375 0.00319973 0)
(-0.0510212 -7.91043e-05 0)
(-0.0243673 -8.44534e-05 0)
(-0.0203595 -4.81523e-05 0)
(-0.016742 -0.000256668 0)
(-0.0105707 -0.000456743 0)
(-0.00361582 -0.000560932 0)
(0.000848996 -0.000534314 0)
(0.00365553 -0.000462646 0)
(0.0192269 -0.000432242 0)
(0.118141 -0.000333791 0)
(0.276305 -0.000157439 0)
(0.269644 0.000409426 0)
(0.146177 0.000255373 0)
(0.113936 -0.000496507 0)
(0.126707 -0.000358049 0)
(0.0966375 -0.00101825 0)
(0.0286285 -0.00152487 0)
(-0.00391798 -0.00196521 0)
(-0.0962297 0.20514 0)
(-0.0241561 0.40272 0)
(-0.049269 0.525274 0)
(-0.0688583 0.552773 0)
(-0.100083 0.500514 0)
(-0.13743 0.377676 0)
(-0.0817041 0.257097 0)
(0.0949667 0.222662 0)
(0.383527 0.209725 0)
(0.42322 0.223148 0)
(0.162088 0.137019 0)
(0.0221371 0.061669 0)
(-0.017147 0.0347243 0)
(-0.0881377 0.0201387 0)
(-0.190194 0.018926 0)
(-0.226602 0.0491432 0)
(-0.18418 0.0378422 0)
(-0.162361 0.0157766 0)
(-0.199351 0.00959994 0)
(-0.262817 0.00660188 0)
(-0.258818 0.00391639 0)
(-0.148741 0.00121821 0)
(-0.0513061 -5.78728e-05 0)
(-0.0243518 -2.71591e-05 0)
(-0.0203768 -9.63552e-06 0)
(-0.0167814 -0.000104307 0)
(-0.0105993 -0.00020426 0)
(-0.0036219 -0.000246467 0)
(0.000858189 -0.000231996 0)
(0.00366133 -0.000201705 0)
(0.0192386 -0.000203613 0)
(0.118145 -0.000147281 0)
(0.276352 -0.000166589 0)
(0.269683 8.31768e-05 0)
(0.146057 -3.06711e-05 0)
(0.113839 -0.000515531 0)
(0.126664 -0.000504769 0)
(0.0965232 -0.000629074 0)
(0.0285356 -0.000951758 0)
(-0.00394685 -0.00129324 0)
(-0.0414364 1.37989e-13 0)
(-0.000674015 1.16305e-13 0)
(-0.0213142 1.57702e-13 0)
(-0.0509199 -1.55731e-13 0)
(-0.10743 -4.15939e-13 0)
(-0.159316 -4.82963e-13 0)
(-0.0954533 -2.28668e-13 0)
(0.083943 -4.53394e-14 0)
(0.381824 -6.11096e-13 0)
(0.424315 -8.00338e-13 0)
(0.148559 0 0)
(0.0117461 6.56435e-13 0)
(-0.0210195 3.94255e-13 0)
(-0.0882527 8.67362e-13 0)
(-0.178679 8.39764e-13 0)
(-0.218312 1.28133e-13 0)
(-0.193388 -1.55928e-12 0)
(-0.172907 -2.18812e-12 0)
(-0.203082 2.16643e-12 0)
(-0.26329 3.91693e-12 0)
(-0.258163 2.74402e-12 0)
(-0.148531 3.94255e-13 0)
(-0.0513835 -1.60265e-12 0)
(-0.0243533 5.32245e-13 0)
(-0.020382 -1.51788e-13 0)
(-0.0167987 1.97128e-15 0)
(-0.0106121 6.59392e-13 0)
(-0.00362389 1.13841e-12 0)
(0.000862018 8.99888e-13 0)
(0.00366378 3.76514e-13 0)
(0.0192427 -7.78654e-14 0)
(0.118151 -2.48381e-13 0)
(0.276372 -8.29907e-13 0)
(0.269683 -9.71839e-13 0)
(0.146002 -1.47846e-13 0)
(0.113798 9.85638e-15 0)
(0.126674 5.32245e-14 0)
(0.0965074 -6.13067e-13 0)
(0.0284353 -6.50521e-13 0)
(-0.00401732 -5.44072e-13 0)
(-0.0962297 -0.20514 0)
(-0.0241561 -0.40272 0)
(-0.049269 -0.525274 0)
(-0.0688583 -0.552773 0)
(-0.100083 -0.500514 0)
(-0.13743 -0.377676 0)
(-0.0817041 -0.257097 0)
(0.0949667 -0.222662 0)
(0.383527 -0.209725 0)
(0.42322 -0.223148 0)
(0.162088 -0.137019 0)
(0.0221371 -0.061669 0)
(-0.017147 -0.0347243 0)
(-0.0881377 -0.0201387 0)
(-0.190194 -0.018926 0)
(-0.226602 -0.0491432 0)
(-0.18418 -0.0378422 0)
(-0.162361 -0.0157766 0)
(-0.199351 -0.00959994 0)
(-0.262817 -0.00660188 0)
(-0.258818 -0.00391639 0)
(-0.148741 -0.00121821 0)
(-0.0513061 5.78728e-05 0)
(-0.0243518 2.71591e-05 0)
(-0.0203768 9.63552e-06 0)
(-0.0167814 0.000104307 0)
(-0.0105993 0.00020426 0)
(-0.0036219 0.000246467 0)
(0.000858189 0.000231996 0)
(0.00366133 0.000201705 0)
(0.0192386 0.000203613 0)
(0.118145 0.000147281 0)
(0.276352 0.000166589 0)
(0.269683 -8.31768e-05 0)
(0.146057 3.06711e-05 0)
(0.113839 0.000515531 0)
(0.126664 0.000504769 0)
(0.0965232 0.000629074 0)
(0.0285356 0.000951758 0)
(-0.00394685 0.00129324 0)
(-0.18603 -0.681612 0)
(-0.0938039 -0.776461 0)
(-0.0649659 -0.812725 0)
(-0.0437171 -0.754923 0)
(-0.056493 -0.660086 0)
(-0.0885042 -0.529952 0)
(-0.0503583 -0.378918 0)
(0.0977239 -0.336708 0)
(0.381682 -0.289641 0)
(0.445466 -0.316048 0)
(0.195535 -0.215795 0)
(0.0415046 -0.110536 0)
(-0.00893795 -0.0709444 0)
(-0.0836569 -0.0585041 0)
(-0.187117 -0.0425216 0)
(-0.223815 -0.0207226 0)
(-0.183682 -0.00383568 0)
(-0.164692 -0.00887683 0)
(-0.200413 -0.0149049 0)
(-0.261637 -0.016314 0)
(-0.256597 -0.011569 0)
(-0.147375 -0.00319973 0)
(-0.0510212 7.91043e-05 0)
(-0.0243673 8.44534e-05 0)
(-0.0203595 4.81523e-05 0)
(-0.016742 0.000256668 0)
(-0.0105707 0.000456743 0)
(-0.00361582 0.000560932 0)
(0.000848996 0.000534314 0)
(0.00365553 0.000462646 0)
(0.0192269 0.000432242 0)
(0.118141 0.000333791 0)
(0.276305 0.000157439 0)
(0.269644 -0.000409426 0)
(0.146177 -0.000255373 0)
(0.113936 0.000496507 0)
(0.126707 0.000358049 0)
(0.0966375 0.00101825 0)
(0.0286285 0.00152487 0)
(-0.00391798 0.00196521 0)
(-0.0101391 -0.683572 0)
(-0.0258698 -0.610356 0)
(-0.017609 -0.565331 0)
(-0.00218141 -0.532167 0)
(-0.0093655 -0.499689 0)
(-0.0176318 -0.435773 0)
(0.0032687 -0.335107 0)
(0.14778 -0.28207 0)
(0.39862 -0.168596 0)
(0.443819 -0.236604 0)
(0.252326 -0.204151 0)
(0.0906042 -0.117274 0)
(0.00599976 -0.0882006 0)
(-0.0754897 -0.0871422 0)
(-0.170054 -0.0836 0)
(-0.205558 -0.0548918 0)
(-0.177327 -0.0291432 0)
(-0.166611 -0.022836 0)
(-0.202787 -0.0224589 0)
(-0.262089 -0.0233235 0)
(-0.253161 -0.0192237 0)
(-0.143015 -0.00586259 0)
(-0.0495754 -3.72525e-05 0)
(-0.0243533 0.000200204 0)
(-0.0202888 0.000122233 0)
(-0.0165705 0.000433655 0)
(-0.0104416 0.000775451 0)
(-0.00358027 0.000986821 0)
(0.000807167 0.000948109 0)
(0.00360402 0.000821967 0)
(0.0191712 0.000714761 0)
(0.117977 0.000603595 0)
(0.275941 5.50566e-05 0)
(0.26947 -0.000830079 0)
(0.146486 -0.000548877 0)
(0.114111 0.000103412 0)
(0.126941 0.000444712 0)
(0.0971229 0.00111364 0)
(0.0290221 0.00135728 0)
(-0.00370403 0.00167804 0)
(-0.00655419 -0.195876 0)
(-0.0162914 -0.179495 0)
(-0.0150149 -0.162012 0)
(-0.00273523 -0.163776 0)
(0.0111247 -0.170176 0)
(0.0320892 -0.154926 0)
(0.0689989 -0.128688 0)
(0.231339 -0.0726068 0)
(0.416413 -0.0297001 0)
(0.412087 -0.0965404 0)
(0.280072 -0.117416 0)
(0.12691 -0.0980455 0)
(0.0120886 -0.0990537 0)
(-0.083603 -0.112345 0)
(-0.165189 -0.118487 0)
(-0.181129 -0.0879453 0)
(-0.156199 -0.0561829 0)
(-0.157221 -0.0430013 0)
(-0.19961 -0.0390292 0)
(-0.258277 -0.0390185 0)
(-0.241613 -0.03004 0)
(-0.131225 -0.00832305 0)
(-0.0459542 -5.9738e-05 0)
(-0.0242212 0.000397722 0)
(-0.0201725 0.000329602 0)
(-0.0162045 0.000713898 0)
(-0.0101069 0.00120391 0)
(-0.0034685 0.00153895 0)
(0.000712567 0.0015075 0)
(0.00345828 0.00132693 0)
(0.0190463 0.00114415 0)
(0.117593 0.00100659 0)
(0.275119 0.000204957 0)
(0.269155 -0.000946324 0)
(0.14691 -0.000576719 0)
(0.114799 -0.000291809 0)
(0.127554 0.000956674 0)
(0.0972565 0.00125568 0)
(0.0289614 0.00133177 0)
(-0.00372361 0.00131621 0)
(0.00564551 0.000900545 0)
(0.00676225 0.00558231 0)
(-0.00246142 0.0123015 0)
(-0.0100484 0.0093433 0)
(-0.000837118 0.00745268 0)
(0.022348 0.0179835 0)
(0.0825945 0.0480715 0)
(0.243168 0.0932158 0)
(0.375556 0.0531334 0)
(0.359293 0.00507187 0)
(0.250876 -0.0506595 0)
(0.108299 -0.0766137 0)
(-0.00777941 -0.106546 0)
(-0.0942167 -0.134575 0)
(-0.146541 -0.131914 0)
(-0.14552 -0.0925594 0)
(-0.134017 -0.0634355 0)
(-0.150081 -0.0534181 0)
(-0.198949 -0.0521714 0)
(-0.253427 -0.0539047 0)
(-0.223581 -0.0385791 0)
(-0.114125 -0.00934315 0)
(-0.0411717 0.000103071 0)
(-0.0239781 0.000608225 0)
(-0.0199841 0.00062498 0)
(-0.015728 0.00111223 0)
(-0.00964654 0.0017272 0)
(-0.00328772 0.00216211 0)
(0.000602855 0.00215312 0)
(0.00325387 0.0019331 0)
(0.0188626 0.00170175 0)
(0.117072 0.00153037 0)
(0.274059 0.00065419 0)
(0.268717 -0.000566639 0)
(0.147117 -0.000167282 0)
(0.115588 -0.000368004 0)
(0.128432 0.00116018 0)
(0.0974844 0.00133923 0)
(0.0290804 0.00159876 0)
(-0.00371903 0.00173751 0)
(-0.00204267 0.0119185 0)
(-0.00530496 0.00412178 0)
(-0.0113906 0.00299091 0)
(-0.00740776 0.00794938 0)
(0.0194507 0.0298944 0)
(0.071231 0.0618238 0)
(0.141495 0.109849 0)
(0.236217 0.146276 0)
(0.331474 0.117546 0)
(0.312068 0.0576452 0)
(0.201357 -0.00794766 0)
(0.0730557 -0.0653351 0)
(-0.0437649 -0.11321 0)
(-0.108049 -0.139804 0)
(-0.124701 -0.121384 0)
(-0.11514 -0.0865452 0)
(-0.118481 -0.0686612 0)
(-0.146367 -0.0637179 0)
(-0.200079 -0.065317 0)
(-0.245179 -0.0667416 0)
(-0.198672 -0.0419324 0)
(-0.0939491 -0.00854972 0)
(-0.0363647 0.000257573 0)
(-0.0237183 0.000709759 0)
(-0.0196869 0.000857582 0)
(-0.0151424 0.00147254 0)
(-0.00909522 0.00220143 0)
(-0.00305807 0.00271001 0)
(0.000491888 0.00272597 0)
(0.00302333 0.00248907 0)
(0.0186582 0.00222014 0)
(0.116583 0.00203125 0)
(0.273098 0.000868788 0)
(0.268363 -0.000450777 0)
(0.147102 5.73053e-05 0)
(0.116078 -0.000404644 0)
(0.1292 0.000865457 0)
(0.0976792 0.00119075 0)
(0.0293452 0.00160001 0)
(-0.00358991 0.00204612 0)
(-0.00186765 0.0498417 0)
(-0.00184065 0.0525288 0)
(0.001227 0.062274 0)
(0.0158768 0.0858817 0)
(0.0510782 0.114654 0)
(0.0993956 0.145628 0)
(0.163976 0.163826 0)
(0.250584 0.181731 0)
(0.290148 0.160922 0)
(0.238363 0.0726965 0)
(0.132367 -0.00206462 0)
(0.00686474 -0.0925671 0)
(-0.07954 -0.132445 0)
(-0.102094 -0.131259 0)
(-0.0952197 -0.102395 0)
(-0.0947142 -0.0808214 0)
(-0.11202 -0.0740028 0)
(-0.146858 -0.0729664 0)
(-0.201863 -0.0771934 0)
(-0.230892 -0.0754283 0)
(-0.167506 -0.0393425 0)
(-0.0734687 -0.00642912 0)
(-0.0322489 0.000472421 0)
(-0.0233999 0.000855817 0)
(-0.019249 0.00118068 0)
(-0.014433 0.00195121 0)
(-0.00845406 0.00278863 0)
(-0.00278225 0.00335146 0)
(0.000389945 0.0033913 0)
(0.00276644 0.00315377 0)
(0.0184214 0.00290516 0)
(0.11577 0.00273306 0)
(0.271667 0.00166224 0)
(0.267935 0.000166669 0)
(0.147161 0.000591011 0)
(0.116367 7.16114e-05 0)
(0.12997 0.000939337 0)
(0.0981922 0.00134303 0)
(0.0299047 0.00164223 0)
(-0.00328914 0.00216445 0)
(0.000546755 0.116709 0)
(0.0066753 0.122204 0)
(0.0207494 0.134532 0)
(0.0430674 0.156018 0)
(0.077024 0.175692 0)
(0.118615 0.188983 0)
(0.176286 0.203219 0)
(0.233418 0.207556 0)
(0.226405 0.136432 0)
(0.155008 0.0389235 0)
(0.0421025 -0.0590657 0)
(-0.0525837 -0.120946 0)
(-0.0810493 -0.128947 0)
(-0.0790917 -0.107371 0)
(-0.0760983 -0.087596 0)
(-0.0877803 -0.081118 0)
(-0.110912 -0.0796113 0)
(-0.149441 -0.0804137 0)
(-0.202451 -0.0870174 0)
(-0.208704 -0.0772529 0)
(-0.132182 -0.0315258 0)
(-0.055582 -0.00392564 0)
(-0.0293447 0.000705544 0)
(-0.0230358 0.00108933 0)
(-0.0186313 0.00162735 0)
(-0.0135929 0.00255329 0)
(-0.00774589 0.00348398 0)
(-0.00247732 0.00407636 0)
(0.000301389 0.00413714 0)
(0.00255487 0.00391231 0)
(0.0182528 0.0036663 0)
(0.115385 0.00349564 0)
(0.270625 0.002062 0)
(0.267331 0.000422956 0)
(0.14701 0.000977267 0)
(0.116414 0.000407844 0)
(0.130425 0.000926511 0)
(0.0983565 0.00135714 0)
(0.0301367 0.00159933 0)
(-0.00308668 0.00204952 0)
(0.00342759 0.195626 0)
(0.0153334 0.199183 0)
(0.0338113 0.209382 0)
(0.0555403 0.217545 0)
(0.0828441 0.218732 0)
(0.125922 0.216567 0)
(0.181874 0.214079 0)
(0.186225 0.158381 0)
(0.127647 0.0560963 0)
(0.0499747 -0.0290799 0)
(-0.0216883 -0.105619 0)
(-0.0604757 -0.124367 0)
(-0.0664586 -0.108767 0)
(-0.062246 -0.0906283 0)
(-0.0699218 -0.0845034 0)
(-0.0870198 -0.0840376 0)
(-0.111341 -0.0827809 0)
(-0.153995 -0.0869472 0)
(-0.198817 -0.0946473 0)
(-0.177419 -0.0699187 0)
(-0.0968447 -0.020843 0)
(-0.0424095 -0.0014721 0)
(-0.0274163 0.00123031 0)
(-0.0225116 0.00168985 0)
(-0.0178383 0.00244936 0)
(-0.0126439 0.00349385 0)
(-0.00698637 0.00445671 0)
(-0.00215284 0.00501318 0)
(0.00023186 0.00506949 0)
(0.00231272 0.00484262 0)
(0.0180199 0.00462014 0)
(0.114224 0.00447973 0)
(0.268706 0.00282648 0)
(0.26689 0.000796718 0)
(0.147146 0.00116934 0)
(0.116318 0.000457419 0)
(0.130884 0.000822708 0)
(0.0988406 0.00134087 0)
(0.0305719 0.00165516 0)
(-0.00285532 0.00211903 0)
(0.00397527 0.249213 0)
(0.0199313 0.249745 0)
(0.0384429 0.245304 0)
(0.052078 0.231199 0)
(0.0760817 0.217874 0)
(0.114131 0.203903 0)
(0.120217 0.147128 0)
(0.0811808 0.0486213 0)
(0.0457602 -0.0234941 0)
(-0.000826046 -0.0910381 0)
(-0.0497192 -0.118202 0)
(-0.0556173 -0.109918 0)
(-0.0485379 -0.0926957 0)
(-0.0557107 -0.0860973 0)
(-0.0697473 -0.0861165 0)
(-0.0861204 -0.0841121 0)
(-0.113715 -0.0842264 0)
(-0.160876 -0.0944125 0)
(-0.186042 -0.0961498 0)
(-0.137584 -0.053182 0)
(-0.0662242 -0.0111506 0)
(-0.0343113 0.000138193 0)
(-0.0262977 0.00155156 0)
(-0.0218611 0.00212167 0)
(-0.0168929 0.00303541 0)
(-0.0116586 0.00414203 0)
(-0.00628181 0.0050907 0)
(-0.00188682 0.00557103 0)
(0.000137035 0.00562774 0)
(0.00212185 0.00543377 0)
(0.0179031 0.0052939 0)
(0.113657 0.00516616 0)
(0.267076 0.0032043 0)
(0.265734 0.000878424 0)
(0.146683 0.00118319 0)
(0.11608 0.000542361 0)
(0.131276 0.00106439 0)
(0.0991587 0.00166957 0)
(0.0308866 0.00204623 0)
(-0.00263968 0.00248698 0)
(0.00394016 0.245043 0)
(0.0115674 0.246805 0)
(0.0159396 0.213113 0)
(0.0291075 0.186754 0)
(0.0565409 0.159471 0)
(0.0577479 0.106632 0)
(0.0322394 0.0313307 0)
(0.0218077 -0.03122 0)
(-0.00693366 -0.0835018 0)
(-0.0412892 -0.115566 0)
(-0.0398814 -0.108501 0)
(-0.035897 -0.0900487 0)
(-0.0435045 -0.0860263 0)
(-0.055906 -0.0873601 0)
(-0.0680088 -0.0856611 0)
(-0.0851986 -0.0829945 0)
(-0.121267 -0.0897246 0)
(-0.165485 -0.102803 0)
(-0.159086 -0.0851736 0)
(-0.0955103 -0.0324106 0)
(-0.0454635 -0.00498292 0)
(-0.0301692 0.000336594 0)
(-0.025505 0.00107209 0)
(-0.0210817 0.0018369 0)
(-0.0158914 0.00287164 0)
(-0.0106634 0.00398971 0)
(-0.00560934 0.00489009 0)
(-0.00163532 0.00528083 0)
(9.95865e-05 0.00534097 0)
(0.00199102 0.00522044 0)
(0.017762 0.00521714 0)
(0.11221 0.00516824 0)
(0.264574 0.00292732 0)
(0.264942 0.000447977 0)
(0.146823 0.000936853 0)
(0.116204 0.000430586 0)
(0.131971 0.00131807 0)
(0.0997867 0.00217801 0)
(0.0313596 0.00283422 0)
(-0.00243061 0.00346403 0)
(0.00567376 0.202984 0)
(-0.0108377 0.187401 0)
(-0.0194251 0.150792 0)
(0.000386602 0.122483 0)
(-0.00112674 0.0742248 0)
(-0.00934992 0.0102235 0)
(-0.0126223 -0.0436731 0)
(-0.029476 -0.078447 0)
(-0.0355187 -0.105061 0)
(-0.0249163 -0.0964536 0)
(-0.0251298 -0.0847507 0)
(-0.0339598 -0.084934 0)
(-0.0459471 -0.0884141 0)
(-0.0553587 -0.0867168 0)
(-0.0655405 -0.0815687 0)
(-0.0900362 -0.0836144 0)
(-0.132803 -0.0984503 0)
(-0.156491 -0.101418 0)
(-0.11821 -0.0590669 0)
(-0.060309 -0.0152571 0)
(-0.0346679 -0.000999098 0)
(-0.0284765 0.00182 0)
(-0.024852 0.00314786 0)
(-0.0201269 0.00475645 0)
(-0.0148184 0.00641235 0)
(-0.00971351 0.00797706 0)
(-0.00503764 0.00912189 0)
(-0.00145233 0.00974615 0)
(7.88366e-05 0.010008 0)
(0.00200252 0.0102228 0)
(0.0178528 0.0103896 0)
(0.11145 0.0106687 0)
(0.262528 0.00901762 0)
(0.263816 0.00800284 0)
(0.146667 0.00910033 0)
(0.116447 0.0069515 0)
(0.13296 0.00467236 0)
(0.10062 0.0037658 0)
(0.0321258 0.00410519 0)
(-0.00203277 0.00471156 0)
(-0.0110756 0.113573 0)
(-0.0387263 0.0759575 0)
(-0.0466176 0.055851 0)
(-0.0446754 0.0257383 0)
(-0.0516368 -0.00796046 0)
(-0.0558628 -0.0356161 0)
(-0.0532068 -0.0658983 0)
(-0.0373479 -0.0833827 0)
(-0.0242854 -0.0766097 0)
(-0.0217175 -0.0756483 0)
(-0.0287806 -0.0803319 0)
(-0.0394272 -0.0854937 0)
(-0.0452224 -0.0837715 0)
(-0.0493096 -0.0767459 0)
(-0.0650192 -0.0751333 0)
(-0.101466 -0.0841837 0)
(-0.138423 -0.093938 0)
(-0.127534 -0.0706831 0)
(-0.0760585 -0.0199927 0)
(-0.0395541 0.00678037 0)
(-0.0290073 0.0144407 0)
(-0.026173 0.0177152 0)
(-0.0226753 0.0209788 0)
(-0.0179359 0.0243032 0)
(-0.0127879 0.0273809 0)
(-0.00805238 0.0301263 0)
(-0.00390458 0.032124 0)
(-0.000781468 0.0335977 0)
(0.000558886 0.0344877 0)
(0.00235878 0.0354176 0)
(0.0181917 0.0358992 0)
(0.110888 0.037189 0)
(0.262005 0.0386207 0)
(0.265022 0.0404885 0)
(0.14581 0.0384131 0)
(0.111937 0.0288797 0)
(0.128901 0.0219194 0)
(0.0992402 0.0151106 0)
(0.032271 0.00895047 0)
(-0.00184629 0.00700772 0)
(-0.0305738 0.0222434 0)
(-0.0664607 -0.000626002 0)
(-0.0678182 -0.0137688 0)
(-0.0611044 -0.0247835 0)
(-0.0602501 -0.0183504 0)
(-0.065181 -0.0260133 0)
(-0.0586519 -0.0377318 0)
(-0.0397978 -0.0500521 0)
(-0.0280656 -0.0599707 0)
(-0.0285032 -0.0672918 0)
(-0.0346171 -0.0719495 0)
(-0.0372742 -0.0667094 0)
(-0.0375174 -0.0516949 0)
(-0.0470346 -0.0385816 0)
(-0.0727077 -0.0386593 0)
(-0.108157 -0.0474519 0)
(-0.119794 -0.0331013 0)
(-0.0852341 0.021088 0)
(-0.043563 0.0683877 0)
(-0.0271277 0.0899683 0)
(-0.0241307 0.101695 0)
(-0.0221762 0.111365 0)
(-0.0185035 0.120409 0)
(-0.0139576 0.12851 0)
(-0.00920705 0.135346 0)
(-0.00514287 0.141212 0)
(-0.0016925 0.145076 0)
(0.000825407 0.148728 0)
(0.00183261 0.15075 0)
(0.00336265 0.152545 0)
(0.0195597 0.153431 0)
(0.114073 0.157127 0)
(0.265707 0.16563 0)
(0.263616 0.156983 0)
(0.13548 0.133997 0)
(0.100554 0.0998809 0)
(0.119692 0.0699768 0)
(0.0881224 0.0425029 0)
(0.0243176 0.0234044 0)
(-0.00390488 0.0132107 0)
(-0.0331133 0.00309484 0)
(-0.0734289 0.000739268 0)
(-0.0698966 -0.000861473 0)
(-0.0490905 0.00538168 0)
(-0.0528219 0.0245099 0)
(-0.0745394 0.0221255 0)
(-0.0763715 0.0117511 0)
(-0.058778 -0.00994939 0)
(-0.0408982 -0.0204588 0)
(-0.0332607 -0.015378 0)
(-0.0282194 0.00322039 0)
(-0.0199091 0.0326525 0)
(-0.0181175 0.0592668 0)
(-0.036748 0.072743 0)
(-0.0735669 0.0759703 0)
(-0.0961104 0.0898281 0)
(-0.0723752 0.136804 0)
(-0.029735 0.191469 0)
(-0.00968295 0.221787 0)
(-0.00745798 0.236146 0)
(-0.00838908 0.245586 0)
(-0.00813993 0.253274 0)
(-0.0061534 0.259685 0)
(-0.00354148 0.265121 0)
(-0.000547566 0.269493 0)
(0.00132351 0.27328 0)
(0.00333837 0.275522 0)
(0.00468621 0.277344 0)
(0.00423619 0.277702 0)
(0.0049426 0.277673 0)
(0.0226078 0.279031 0)
(0.122643 0.281658 0)
(0.261866 0.279819 0)
(0.234539 0.241314 0)
(0.0907841 0.205512 0)
(0.0502445 0.168798 0)
(0.0736093 0.129343 0)
(0.0543613 0.0877185 0)
(0.00404392 0.0551045 0)
(-0.0116693 0.0307531 0)
(-0.0328437 0.0196254 0)
(-0.0702732 0.0293828 0)
(-0.0633446 0.0541832 0)
(-0.0366557 0.0804941 0)
(-0.0441152 0.115452 0)
(-0.0774758 0.146366 0)
(-0.0895604 0.152498 0)
(-0.0708364 0.125604 0)
(-0.0332968 0.119502 0)
(-0.00568508 0.136163 0)
(0.0116668 0.160064 0)
(0.0167342 0.179421 0)
(0.00111526 0.18004 0)
(-0.0309385 0.166845 0)
(-0.0562439 0.159026 0)
(-0.0495354 0.18354 0)
(-0.0218487 0.226278 0)
(-0.00334163 0.248043 0)
(-0.000510372 0.251362 0)
(-0.00419402 0.249889 0)
(-0.00762588 0.247336 0)
(-0.00858956 0.245114 0)
(-0.00708763 0.243252 0)
(-0.00450646 0.241871 0)
(-0.00134437 0.240755 0)
(0.000667073 0.239708 0)
(0.00222388 0.239004 0)
(0.00292562 0.237311 0)
(0.00214988 0.235796 0)
(0.00464358 0.234115 0)
(0.023399 0.235074 0)
(0.114832 0.233984 0)
(0.22683 0.207952 0)
(0.19201 0.161725 0)
(0.0656016 0.145377 0)
(0.0271543 0.13869 0)
(0.04156 0.121231 0)
(0.0165836 0.0983142 0)
(-0.0305763 0.079424 0)
(-0.0273708 0.055949 0)
(-0.0237107 0.0382281 0)
(-0.0401278 0.0715825 0)
(-0.020644 0.121112 0)
(0.0099507 0.163643 0)
(0.0106544 0.202455 0)
(-0.0388408 0.248719 0)
(-0.0963782 0.250923 0)
(-0.0905745 0.213865 0)
(-0.0307234 0.193867 0)
(0.00582613 0.187794 0)
(0.0134658 0.176672 0)
(-0.000659258 0.152635 0)
(-0.0302357 0.11762 0)
(-0.0569981 0.0934854 0)
(-0.0574791 0.0984985 0)
(-0.0313037 0.12423 0)
(-0.0102183 0.142351 0)
(-0.0055628 0.145658 0)
(-0.00790368 0.142603 0)
(-0.011338 0.138426 0)
(-0.0129906 0.135512 0)
(-0.0120757 0.134595 0)
(-0.00927834 0.134936 0)
(-0.00594751 0.135377 0)
(-0.00263186 0.135295 0)
(-0.000363817 0.134624 0)
(0.00102798 0.134079 0)
(0.00159539 0.13273 0)
(0.001157 0.131871 0)
(0.00424623 0.13095 0)
(0.0224814 0.129512 0)
(0.0965078 0.125071 0)
(0.192234 0.0826838 0)
(0.17424 0.0454497 0)
(0.0685868 0.0473674 0)
(0.0269768 0.0522181 0)
(0.0347018 0.0446613 0)
(0.0140744 0.0438963 0)
(-0.0367808 0.0532861 0)
(-0.0342907 0.0591243 0)
(-0.000702183 0.0359191 0)
(0.0095971 0.0704204 0)
(0.0253679 0.109336 0)
(0.041729 0.135808 0)
(0.0378674 0.142069 0)
(-0.0307699 0.145281 0)
(-0.123147 0.13103 0)
(-0.125818 0.114292 0)
(-0.0584191 0.0996449 0)
(-0.0222547 0.0805348 0)
(-0.022214 0.0566958 0)
(-0.0401706 0.0310933 0)
(-0.0558836 0.0183435 0)
(-0.0493647 0.028987 0)
(-0.0266168 0.0601007 0)
(-0.00727752 0.0864794 0)
(-0.0012005 0.0968146 0)
(-0.00309911 0.100165 0)
(-0.00747916 0.101063 0)
(-0.0110266 0.101343 0)
(-0.0113172 0.103164 0)
(-0.00914445 0.106535 0)
(-0.00633458 0.110572 0)
(-0.00416083 0.113738 0)
(-0.0020698 0.115623 0)
(-0.000504489 0.116474 0)
(0.000398535 0.116742 0)
(0.000797425 0.116602 0)
(0.000434531 0.1166 0)
(0.00237095 0.11669 0)
(0.0177343 0.113987 0)
(0.0697066 0.107851 0)
(0.150104 0.0632359 0)
(0.157978 0.0224088 0)
(0.0721239 0.019231 0)
(0.0245466 0.0186385 0)
(0.0335408 0.0050248 0)
(0.0248947 -0.00300604 0)
(-0.015902 -0.000794562 0)
(-0.0217448 0.0194928 0)
(0.00953602 -0.00504979 0)
(0.0306198 0.0181482 0)
(0.042366 0.0252036 0)
(0.0414929 0.0216782 0)
(0.0197832 0.0133822 0)
(-0.0494781 0.00102642 0)
(-0.126241 0.00485267 0)
(-0.120818 0.0295296 0)
(-0.0632527 0.0374003 0)
(-0.0355612 0.0302577 0)
(-0.0341779 0.022603 0)
(-0.0376169 0.025527 0)
(-0.0322655 0.0458911 0)
(-0.0167593 0.0761602 0)
(-0.00207732 0.100739 0)
(0.00407521 0.112536 0)
(0.0029698 0.116421 0)
(-0.00146904 0.118267 0)
(-0.00676822 0.119501 0)
(-0.00931353 0.12137 0)
(-0.00798833 0.12443 0)
(-0.00493697 0.127541 0)
(-0.00233727 0.130168 0)
(-0.00108041 0.13201 0)
(5.24845e-06 0.133272 0)
(0.000714891 0.133898 0)
(0.00115126 0.134169 0)
(0.00145872 0.134299 0)
(0.00124142 0.134639 0)
(0.00172853 0.135321 0)
(0.0139641 0.133965 0)
(0.0476017 0.126143 0)
(0.109899 0.0919287 0)
(0.131835 0.0446606 0)
(0.0649536 0.0312143 0)
(0.0132872 0.0325343 0)
(0.0138444 0.0116482 0)
(0.00846668 -0.0030703 0)
(-0.0151001 -0.0225268 0)
(-0.014741 -0.0463079 0)
(0.0216523 -0.340202 0)
(0.0387503 -0.140043 0)
(0.0287695 -0.0442179 0)
(0.0303374 -0.048693 0)
(0.0179666 -0.0432877 0)
(-0.0389892 -0.0345037 0)
(-0.0956805 -0.00788193 0)
(-0.0944539 0.0288542 0)
(-0.0577175 0.0452394 0)
(-0.036514 0.0499858 0)
(-0.0267726 0.0559201 0)
(-0.0177293 0.0696528 0)
(-0.00709161 0.0871469 0)
(0.00348908 0.1016 0)
(0.00843661 0.107925 0)
(0.00783435 0.107722 0)
(0.00432192 0.105516 0)
(-0.000131319 0.103671 0)
(-0.00448937 0.103503 0)
(-0.00627693 0.105159 0)
(-0.00537087 0.107432 0)
(-0.00361568 0.108451 0)
(-0.00202753 0.108275 0)
(-0.00116949 0.107779 0)
(-0.000250321 0.107361 0)
(0.000360529 0.106615 0)
(0.000784996 0.106006 0)
(0.00125025 0.105246 0)
(0.00141877 0.104874 0)
(0.0017207 0.10494 0)
(0.00888992 0.104866 0)
(0.0291993 0.095536 0)
(0.0715849 0.0715961 0)
(0.0994717 0.0249865 0)
(0.0604385 0.0111101 0)
(0.00569198 0.0225963 0)
(-0.000769111 0.00700477 0)
(-0.00803755 -0.00950352 0)
(-0.0575673 -0.133663 0)
(-0.0446611 -0.371768 0)
(0.202417 -0.78238 0)
(0.315841 -0.477861 0)
(0.130394 -0.0960374 0)
(0.0423893 -0.0505716 0)
(0.0334565 -0.0555265 0)
(-0.0153599 -0.0529921 0)
(-0.0651871 -0.0346994 0)
(-0.0696288 -0.00694307 0)
(-0.0428896 0.0146641 0)
(-0.0252689 0.0295732 0)
(-0.0152261 0.0421444 0)
(-0.00752556 0.0512289 0)
(-0.00148016 0.0574926 0)
(0.00326341 0.0583767 0)
(0.00382178 0.0546358 0)
(0.00175383 0.0487454 0)
(-0.00093307 0.0431046 0)
(-0.00340944 0.0389015 0)
(-0.00533469 0.037084 0)
(-0.00552678 0.0373896 0)
(-0.00481633 0.0378683 0)
(-0.00412464 0.0376707 0)
(-0.00298484 0.0370261 0)
(-0.00196097 0.0364239 0)
(-0.00111565 0.0362246 0)
(-0.000591747 0.0358243 0)
(-0.000168437 0.0356599 0)
(0.000368079 0.035342 0)
(0.0009463 0.0352275 0)
(0.00172154 0.0354687 0)
(0.00490227 0.0359618 0)
(0.0155412 0.0306321 0)
(0.0419152 0.014909 0)
(0.0735486 -0.0199428 0)
(0.0626503 -0.0396218 0)
(0.00933117 -0.0205736 0)
(-0.0170882 -0.0168407 0)
(-0.127086 -0.0577514 0)
(-0.364191 -0.368489 0)
(-0.244187 -0.72759 0)
(0.315098 -0.458993 0)
(0.700135 -0.34206 0)
(0.440521 -0.0601975 0)
(0.0693752 -0.0202301 0)
(0.0156341 -0.0321932 0)
(-0.0189194 -0.038725 0)
(-0.0513059 -0.0358871 0)
(-0.0468855 -0.0243201 0)
(-0.0225291 -0.0122856 0)
(-0.010033 -0.0031913 0)
(-0.00590443 0.00352527 0)
(-0.00293921 0.00648209 0)
(-0.00020365 0.00828469 0)
(0.000736169 0.00780677 0)
(-0.000844523 0.00566208 0)
(-0.0032775 0.00296438 0)
(-0.00516398 0.000440892 0)
(-0.00593298 -0.00142619 0)
(-0.00594636 -0.00217788 0)
(-0.00552118 -0.00206094 0)
(-0.00509992 -0.00217207 0)
(-0.00442725 -0.00235522 0)
(-0.00322899 -0.00248609 0)
(-0.00194181 -0.00260859 0)
(-0.0008282 -0.00246621 0)
(-0.000183707 -0.00231029 0)
(0.000320302 -0.00204277 0)
(0.000833651 -0.00180311 0)
(0.00154087 -0.00155963 0)
(0.00242825 -0.0011861 0)
(0.00422913 -0.000826251 0)
(0.00891209 -0.00188464 0)
(0.022849 -0.00770551 0)
(0.0469238 -0.0216703 0)
(0.0598307 -0.035335 0)
(0.0276447 -0.0245962 0)
(-0.036595 -0.0163304 0)
(-0.346899 -0.0448391 0)
(-0.703048 -0.244438 0)
(-0.390703 -0.396483 0)
(0.315098 0.458993 0)
(0.700135 0.34206 0)
(0.440521 0.0601975 0)
(0.0693752 0.0202301 0)
(0.0156341 0.0321932 0)
(-0.0189194 0.038725 0)
(-0.0513059 0.0358871 0)
(-0.0468855 0.0243201 0)
(-0.0225291 0.0122856 0)
(-0.010033 0.0031913 0)
(-0.00590443 -0.00352527 0)
(-0.00293921 -0.00648209 0)
(-0.00020365 -0.00828469 0)
(0.000736169 -0.00780677 0)
(-0.000844523 -0.00566208 0)
(-0.0032775 -0.00296438 0)
(-0.00516398 -0.000440892 0)
(-0.00593298 0.00142619 0)
(-0.00594636 0.00217788 0)
(-0.00552118 0.00206094 0)
(-0.00509992 0.00217207 0)
(-0.00442725 0.00235522 0)
(-0.00322899 0.00248609 0)
(-0.00194181 0.00260859 0)
(-0.0008282 0.00246621 0)
(-0.000183707 0.00231029 0)
(0.000320302 0.00204277 0)
(0.000833651 0.00180311 0)
(0.00154087 0.00155963 0)
(0.00242825 0.0011861 0)
(0.00422913 0.000826251 0)
(0.00891209 0.00188464 0)
(0.022849 0.00770551 0)
(0.0469238 0.0216703 0)
(0.0598307 0.035335 0)
(0.0276447 0.0245962 0)
(-0.036595 0.0163304 0)
(-0.346899 0.0448391 0)
(-0.703048 0.244438 0)
(-0.390703 0.396483 0)
(0.202417 0.78238 0)
(0.315841 0.477861 0)
(0.130394 0.0960374 0)
(0.0423893 0.0505716 0)
(0.0334565 0.0555265 0)
(-0.0153599 0.0529921 0)
(-0.0651871 0.0346994 0)
(-0.0696288 0.00694307 0)
(-0.0428896 -0.0146641 0)
(-0.0252689 -0.0295732 0)
(-0.0152261 -0.0421444 0)
(-0.00752556 -0.0512289 0)