/*--------------------------------*- C++ -*----------------------------------*\
| =========                 |                                                 |
| \\      /  F ield         | OpenFOAM: The Open Source CFD Toolbox           |
|  \\    /   O peration     | Version:  v1912                                 |
|   \\  /    A nd           | Website:  www.openfoam.com                      |
|    \\/     M anipulation  |                                                 |
\*---------------------------------------------------------------------------*/
FoamFile
{
    version     2.0;
    format      ascii;
    class       volTensorField;
    location    "6.92";
    object      grad(U);
}
// * * * * * * * * * * * * * * * * * * * * * * * * * * * * * * * * * * * * * //

dimensions      [0 0 -1 0 0 0 0];


internalField   nonuniform List<tensor> 
1900
(
(-3.72789 -1.26505e-06 0 4.10427e-06 -1.35869e-06 0 0 0 0)
(4.03159 4.00429e-07 0 -9.20488e-06 3.3609e-06 0 0 0 0)
(0.526306 -1.04045e-05 0 -7.78465e-06 -1.86666e-05 0 0 0 0)
(0.00879218 -2.73949e-05 0 -1.58931e-05 -4.18146e-05 0 0 0 0)
(0.0326458 -0.000194256 0 -4.90696e-05 -0.000108379 0 0 0 0)
(0.037929 -0.000478482 0 -0.000236545 -0.000432182 0 0 0 0)
(0.041635 0.00128892 0 -0.000379233 -0.00098127 0 0 0 0)
(0.0317537 0.016104 0 -0.00232003 0.00228885 0 0 0 0)
(-0.0283143 0.0586716 0 0.00784809 0.0263589 0 0 0 0)
(-0.0289663 0.211314 0 0.0574169 0.116239 0 0 0 0)
(-3.7279 3.26726e-06 0 4.07592e-06 2.29846e-06 0 0 0 0)
(4.03157 -1.77083e-05 0 -1.56614e-05 -1.03342e-06 0 0 0 0)
(0.526299 -3.47709e-05 0 -1.8537e-05 1.89803e-06 0 0 0 0)
(0.00875089 -6.23177e-05 0 -3.53144e-05 9.37112e-06 0 0 0 0)
(0.0324251 -0.000196112 0 -9.87064e-05 2.9293e-05 0 0 0 0)
(0.0375988 -0.000394408 0 -0.00037392 0.000203627 0 0 0 0)
(0.0395515 0.00143211 0 -0.00053162 0.000507775 0 0 0 0)
(0.039981 0.0112362 0 -0.00193999 -0.0010853 0 0 0 0)
(0.0314225 0.0552783 0 0.0103952 -0.0155962 0 0 0 0)
(0.0970627 0.148425 0 0.0917187 -0.0597569 0 0 0 0)
(-3.72791 -8.07301e-13 0 -1.48536e-13 -1.87955e-06 0 0 0 0)
(4.03156 2.35736e-13 0 -6.31006e-13 -4.65496e-06 0 0 0 0)
(0.526286 2.78198e-14 0 2.69966e-13 3.35371e-05 0 0 0 0)
(0.00871201 2.86391e-14 0 5.50233e-14 6.48869e-05 0 0 0 0)
(0.0323072 4.93851e-13 0 1.5992e-14 0.000158172 0 0 0 0)
(0.0374961 5.44249e-13 0 1.86754e-13 0.000457111 0 0 0 0)
(0.0400689 4.03436e-14 0 4.82199e-13 0.000946989 0 0 0 0)
(0.0426805 -7.7508e-14 0 6.82099e-13 -0.00240711 0 0 0 0)
(0.0653443 4.05958e-14 0 8.08002e-13 -0.0215254 0 0 0 0)
(0.155316 3.78921e-13 0 4.74474e-13 -0.112964 0 0 0 0)
(-3.7279 -3.26726e-06 0 -4.07592e-06 2.29846e-06 0 0 0 0)
(4.03157 1.77083e-05 0 1.56614e-05 -1.03341e-06 0 0 0 0)
(0.526299 3.47709e-05 0 1.8537e-05 1.89803e-06 0 0 0 0)
(0.00875089 6.23177e-05 0 3.53144e-05 9.37112e-06 0 0 0 0)
(0.0324251 0.000196112 0 9.87064e-05 2.9293e-05 0 0 0 0)
(0.0375988 0.000394408 0 0.00037392 0.000203627 0 0 0 0)
(0.0395515 -0.00143211 0 0.00053162 0.000507775 0 0 0 0)
(0.039981 -0.0112362 0 0.00193999 -0.0010853 0 0 0 0)
(0.0314225 -0.0552783 0 -0.0103952 -0.0155962 0 0 0 0)
(0.0970627 -0.148425 0 -0.0917187 -0.0597569 0 0 0 0)
(-3.72789 1.26505e-06 0 -4.10427e-06 -1.35869e-06 0 0 0 0)
(4.03159 -4.00429e-07 0 9.20488e-06 3.3609e-06 0 0 0 0)
(0.526306 1.04045e-05 0 7.78465e-06 -1.86666e-05 0 0 0 0)
(0.00879218 2.73949e-05 0 1.58931e-05 -4.18146e-05 0 0 0 0)
(0.0326458 0.000194256 0 4.90696e-05 -0.000108379 0 0 0 0)
(0.037929 0.000478482 0 0.000236545 -0.000432182 0 0 0 0)
(0.041635 -0.00128892 0 0.000379233 -0.00098127 0 0 0 0)
(0.0317537 -0.016104 0 0.00232003 0.00228885 0 0 0 0)
(-0.0283143 -0.0586716 0 -0.00784809 0.0263589 0 0 0 0)
(-0.0289663 -0.211314 0 -0.0574169 0.116239 0 0 0 0)
(0.16323 0.421051 -2.14713e-17 0.246997 -0.237226 3.22069e-17 5.84137e-17 7.52533e-17 -5.8198e-33)
(0.510307 0.573033 0 0.300666 -0.46692 0 -1.61697e-16 -4.75013e-17 0)
(0.800898 0.983139 0 0.297486 -0.798662 0 -2.63086e-16 -8.53128e-17 0)
(1.49503 1.60272 0 0.344679 -1.45756 0 0 0 0)
(2.79525 1.86195 2.71895e-16 1.14001 -3.52976 -4.07842e-16 -2.29232e-15 -1.52821e-15 -7.36972e-32)
(0.237288 0.159364 0 0.188251 -0.208724 0 1.03046e-16 3.23866e-17 0)
(0.423485 0.166732 0 0.150887 -0.338291 0 1.61697e-16 4.75013e-17 0)
(0.747286 0.418562 0 0.0622777 -0.628347 0 2.63086e-16 8.53128e-17 0)
(1.68289 0.867961 0 -0.0673338 -1.3299 0 0 0 0)
(3.70908 0.580612 0 -0.181822 -3.10008 0 0 0 0)
(0.294453 -4.70817e-14 0 2.59511e-13 -0.299464 0 0 0 0)
(0.446296 -2.20665e-13 0 -9.39166e-14 -0.374911 0 0 0 0)
(0.740531 -2.41287e-13 0 -9.03502e-14 -0.631797 0 0 0 0)
(1.58648 -4.92001e-13 0 1.50926e-13 -1.35794 0 0 0 0)
(3.46123 -2.8552e-13 0 3.66241e-13 -3.65466 0 0 0 0)
(0.237288 -0.159364 0 -0.188251 -0.208724 0 1.03046e-16 -3.23866e-17 0)
(0.423485 -0.166732 0 -0.150887 -0.338291 0 1.61697e-16 -4.75013e-17 0)
(0.747286 -0.418562 0 -0.0622777 -0.628347 0 2.63086e-16 -8.53128e-17 0)
(1.68289 -0.867961 0 0.0673338 -1.3299 0 0 0 0)
(3.70908 -0.580612 0 0.181822 -3.10008 0 0 0 0)
(0.16323 -0.421051 2.14713e-17 -0.246997 -0.237226 3.22069e-17 -2.64506e-16 1.40026e-16 -5.8198e-33)
(0.510307 -0.573033 0 -0.300666 -0.46692 0 -1.61697e-16 4.75013e-17 0)
(0.800898 -0.983139 0 -0.297486 -0.798662 0 -2.63086e-16 8.53128e-17 0)
(1.49503 -1.60272 9.71731e-17 -0.344679 -1.45756 1.4576e-16 -9.39578e-16 6.26385e-16 -2.63388e-32)
(2.79525 -1.86195 -2.71895e-16 -1.14001 -3.52976 -4.07842e-16 2.29232e-15 -1.52821e-15 -7.36972e-32)
(4.23879 -0.783481 -1.86319e-17 0.0115348 4.48992 -1.67688e-16 2.28373e-15 -1.18487e-16 5.0502e-33)
(2.30372 -0.312022 9.11277e-18 0.539107 2.78882 8.20149e-17 -2.5707e-15 1.99839e-16 2.47002e-33)
(1.33933 0.00379011 0 0.73487 2.2488 0 0 0 0)
(1.01881 0.0758173 -5.40585e-18 0.667892 2.12256 -4.86527e-17 2.39024e-15 -1.99423e-16 1.46526e-33)
(0.757871 0.443652 4.40011e-18 0.458487 1.72921 3.9601e-17 -1.13129e-15 1.25699e-16 1.19265e-33)
(4.36073 -0.952806 0 -0.694117 -0.677913 0 -1.14204e-15 -8.36735e-18 0)
(2.59156 -0.201863 0 0.312262 0.994461 0 1.29347e-15 -5.79246e-17 0)
(1.42663 -0.00859149 0 0.453407 1.40158 0 0 0 0)
(0.948687 -0.0491556 0 0.361108 1.37832 0 -1.50919e-15 7.43087e-17 0)
(0.664978 0.133163 0 0.142255 1.42941 0 2.87347e-16 -7.64299e-18 0)
(4.36186 -1.96319e-13 0 -5.64004e-13 0.800165 0 0 0 0)
(2.56835 -4.63475e-13 0 -2.68734e-13 1.85775 0 0 0 0)
(1.32069 1.59036e-12 0 -1.60623e-14 1.9813 0 0 0 0)
(0.867161 -2.71902e-12 0 4.11005e-13 1.74246 0 6.08026e-16 1.04759e-28 0)
(0.672205 -1.0896e-12 0 -2.95461e-12 2.03023 0 -5.74693e-16 1.79301e-28 0)
(4.36073 0.952806 0 0.694117 -0.677913 0 -1.14204e-15 8.36735e-18 0)
(2.59156 0.201863 0 -0.312262 0.994461 0 1.29347e-15 5.79246e-17 0)
(1.42663 0.00859149 0 -0.453407 1.40158 0 0 0 0)
(0.948687 0.0491556 0 -0.361108 1.37832 0 -1.50919e-15 -7.43087e-17 0)
(0.664978 -0.133163 0 -0.142255 1.42941 0 2.87347e-16 7.64299e-18 0)
(4.23879 0.783481 0 -0.0115348 4.48992 0 1.14204e-15 -8.36735e-18 0)
(2.30372 0.312022 -9.11277e-18 -0.539107 2.78882 8.20149e-17 -1.62361e-17 8.39902e-17 2.47002e-33)
(1.33933 -0.00379011 0 -0.73487 2.2488 0 0 0 0)
(1.01881 -0.0758173 5.40585e-18 -0.667892 2.12256 -4.86527e-17 2.01147e-17 -6.39246e-17 1.46526e-33)
(0.757871 -0.443652 -4.40011e-18 -0.458487 1.72921 3.9601e-17 1.13129e-15 1.25699e-16 1.19265e-33)
(0.304012 0.454518 0 0.332003 0.0272501 0 0 0 0)
(0.143106 0.113689 0 0.426982 0.292612 0 0 0 0)
(0.263016 -0.121399 0 0.56787 0.384394 0 0 0 0)
(0.123594 0.0663626 0 0.630824 0.516612 0 0 0 0)
(-0.407636 0.288503 0 0.657452 -0.0444242 0 0 0 0)
(-1.63624 -0.10604 0 0.734285 -0.178134 0 0 0 0)
(-1.72476 -0.275032 0 0.321367 0.102991 0 0 0 0)
(-0.690649 -0.179582 0 0.186806 0.417281 0 0 0 0)
(-0.719313 -0.196387 0 0.253935 0.82615 0 0 0 0)
(-0.981078 -0.0867135 0 0.338075 1.12691 0 0 0 0)
(-0.959017 0.0615187 0 0.352248 1.05323 0 0 0 0)
(-0.767675 0.134875 0 0.285188 0.807838 0 0 0 0)
(-0.6074 0.115096 0 0.192037 0.584979 0 0 0 0)
(-0.596053 0.0785288 0 0.117983 0.437619 0 0 0 0)
(-0.701339 0.0577458 0 0.0659448 0.330981 0 0 0 0)
(-0.650287 0.0387912 0 0.0388736 0.244867 0 0 0 0)
(-0.348085 0.0180087 0 0.0149947 0.196938 0 0 0 0)
(-0.090711 0.00594651 0 0.00368065 0.181333 0 0 0 0)
(-0.00458437 0.00293529 0 0.00269112 0.175744 0 0 0 0)
(0.0156134 0.00307762 0 0.003497 0.171106 0 0 0 0)
(0.0313245 0.00289021 0 0.00224419 0.165645 0 0 0 0)
(0.0595289 0.00152401 0 0.000853734 0.162006 0 0 0 0)
(0.093007 0.000399004 0 0.000610077 0.160438 0 0 0 0)
(0.117115 3.33085e-05 0 0.00091096 0.160125 0 0 0 0)
(0.127618 9.75227e-05 0 0.00138893 0.160089 0 0 0 0)
(0.128904 -6.17674e-05 0 0.00187133 0.159757 0 0 0 0)
(0.126925 0.000411145 0 0.00229355 0.160323 0 0 0 0)
(0.124322 6.8025e-05 0 0.0025851 0.158394 0 0 0 0)
(0.121746 4.70266e-05 0 0.00283934 0.160118 0 0 0 0)
(0.118897 -0.000320034 0 0.00306251 0.158285 0 0 0 0)
(0.112047 0.000418361 0 0.00320857 0.161207 0 0 0 0)
(0.104197 -0.000895785 0 0.00306289 0.157018 0 0 0 0)
(0.0954248 -0.000730676 0 0.00309288 0.164109 0 0 0 0)
(0.0635794 -0.000128274 0 0.00252674 0.159523 0 0 0 0)
(-0.138152 -0.00149464 0 0.00426898 0.164778 0 0 0 0)
(-0.636319 0.00120581 0 0.00585571 0.165439 0 0 0 0)
(-0.860066 0.00987069 0 0.00567154 0.162281 0 0 0 0)
(-0.432395 -0.0133496 0 0.00497642 0.132331 0 0 0 0)
(-0.308505 -0.0145882 0 -0.0118535 0.198962 0 0 0 0)
(-0.256801 0.0075141 0 -0.0218141 0.178168 0 0 0 0)
(0.287915 0.322487 0 0.224262 0.402571 0 0 0 0)
(0.176499 0.114433 0 0.309722 0.0030778 0 0 0 0)
(0.286528 -0.0961674 0 0.449448 0.0117652 0 0 0 0)
(0.0804792 0.0449789 0 0.4934 0.420388 0 0 0 0)
(-0.446319 0.185725 0 0.225772 -0.216356 0 0 0 0)
(-1.68242 -0.0436425 0 0.157251 -0.57134 0 0 0 0)
(-1.79605 -0.157639 0 0.0132353 0.148155 0 0 0 0)
(-0.744507 -0.0856915 0 -0.0864867 0.374083 0 0 0 0)
(-0.731255 -0.0842072 0 -0.12876 0.765468 0 0 0 0)
(-0.917426 -0.0439885 0 0.0373233 1.04916 0 0 0 0)
(-0.88356 0.0180265 0 0.135711 1.06355 0 0 0 0)
(-0.744239 0.0632373 0 0.108641 0.837692 0 0 0 0)
(-0.629287 0.0584917 0 0.0802427 0.599913 0 0 0 0)
(-0.630907 0.0411281 0 0.066396 0.442051 0 0 0 0)
(-0.727912 0.0291071 0 0.0494491 0.32997 0 0 0 0)
(-0.661174 0.0193245 0 0.0246142 0.24355 0 0 0 0)
(-0.350909 0.00918484 0 0.00541055 0.196626 0 0 0 0)
(-0.0910909 0.00296131 0 0.000185652 0.181645 0 0 0 0)
(-0.00424756 0.00150001 0 0.000604136 0.176185 0 0 0 0)
(0.0157706 0.0015506 0 0.00118994 0.171554 0 0 0 0)
(0.0312778 0.00142511 0 0.00107085 0.165605 0 0 0 0)
(0.0596057 0.000747012 0 0.000581254 0.161619 0 0 0 0)
(0.0932233 0.000178518 0 0.000796954 0.160367 0 0 0 0)
(0.11737 8.96078e-06 0 0.00127738 0.160248 0 0 0 0)
(0.127887 4.77423e-05 0 0.0018164 0.160252 0 0 0 0)
(0.129163 -3.02889e-05 0 0.00233946 0.159913 0 0 0 0)
(0.127159 0.000207133 0 0.00281786 0.160464 0 0 0 0)
(0.124532 3.5195e-05 0 0.00324985 0.158499 0 0 0 0)
(0.121945 2.55204e-05 0 0.00367224 0.160231 0 0 0 0)
(0.119081 -0.000158943 0 0.00410398 0.158338 0 0 0 0)
(0.112198 0.000218753 0 0.00453977 0.161331 0 0 0 0)
(0.10434 -0.000446281 0 0.00491878 0.156899 0 0 0 0)
(0.0955259 -0.000352779 0 0.00547684 0.16441 0 0 0 0)
(0.0638897 -6.53296e-05 0 0.00592937 0.159411 0 0 0 0)
(-0.137486 -0.000664054 0 0.00786554 0.164851 0 0 0 0)
(-0.635572 0.000759288 0 0.0107029 0.164549 0 0 0 0)
(-0.85975 0.005046 0 0.0143122 0.160706 0 0 0 0)
(-0.434668 -0.00683365 0 0.0175558 0.130618 0 0 0 0)
(-0.31167 -0.00730576 0 0.0122874 0.206595 0 0 0 0)
(-0.257749 0.00396444 0 0.0136597 0.180765 0 0 0 0)
(0.36043 5.5873e-12 0 6.87581e-12 0.951259 0 0 0 0)
(0.208614 7.115e-12 0 8.91017e-12 -0.0760384 0 0 0 0)
(0.31645 1.09221e-11 0 7.04929e-12 0.164531 0 0 0 0)
(0.0585246 -9.51691e-12 0 -2.19994e-11 0.585112 0 0 0 0)
(-0.505424 -5.90618e-12 0 -2.49169e-12 -0.144699 0 0 0 0)
(-1.69807 -2.73683e-11 0 3.05154e-12 -0.691744 0 0 0 0)
(-1.79567 -4.75745e-11 0 -8.11575e-11 0.155344 0 0 0 0)
(-0.731956 1.83513e-13 0 -2.00159e-10 0.392027 0 0 0 0)
(-0.683295 4.91827e-11 0 -3.10125e-10 0.744473 0 0 0 0)
(-0.90414 4.87441e-11 0 -2.52923e-10 0.970952 0 0 0 0)
(-0.93827 5.7332e-13 0 -1.52401e-10 1.04689 0 0 0 0)
(-0.783811 -9.4719e-12 0 -5.26765e-11 0.84702 0 0 0 0)
(-0.619689 1.349e-11 0 -3.6441e-11 0.612137 0 0 0 0)
(-0.605011 2.94221e-11 0 -6.74709e-11 0.444889 0 0 0 0)
(-0.713494 1.50206e-11 0 -6.82693e-11 0.329381 0 0 0 0)
(-0.663098 -2.39121e-11 0 -6.14698e-11 0.244778 0 0 0 0)
(-0.355192 -4.76987e-11 0 -3.59073e-11 0.196525 0 0 0 0)
(-0.0921093 -4.50828e-11 0 5.71547e-12 0.181633 0 0 0 0)
(-0.00429222 -2.72463e-11 0 2.79219e-11 0.176166 0 0 0 0)
(0.0157492 6.69508e-13 0 3.93765e-11 0.17132 0 0 0 0)
(0.0311474 3.66653e-11 0 5.49444e-11 0.165505 0 0 0 0)
(0.0594492 5.10108e-11 0 6.61967e-11 0.161522 0 0 0 0)
(0.0932096 1.7059e-11 0 7.35804e-11 0.16037 0 0 0 0)
(0.117411 -4.22875e-11 0 7.60395e-11 0.160295 0 0 0 0)
(0.127927 -5.56075e-11 0 7.33295e-11 0.160308 0 0 0 0)
(0.129195 -4.02006e-11 0 6.49107e-11 0.159967 0 0 0 0)
(0.12719 -4.14896e-11 0 5.3528e-11 0.160516 0 0 0 0)
(0.12457 2.34999e-11 0 4.02569e-11 0.158543 0 0 0 0)
(0.121995 4.35463e-11 0 3.13256e-11 0.160274 0 0 0 0)
(0.119149 3.9158e-13 0 2.79143e-11 0.158367 0 0 0 0)
(0.112284 5.15682e-11 0 2.31753e-11 0.161367 0 0 0 0)
(0.10447 6.99566e-11 0 1.58116e-11 0.156863 0 0 0 0)
(0.0957188 -6.30257e-12 0 6.38792e-12 0.164435 0 0 0 0)
(0.0642743 -3.18059e-11 0 -1.72477e-11 0.159289 0 0 0 0)
(-0.136763 1.53975e-11 0 -5.758e-11 0.164884 0 0 0 0)
(-0.634443 2.16147e-11 0 -1.23676e-10 0.163854 0 0 0 0)
(-0.858072 -2.12404e-12 0 -2.16863e-10 0.159664 0 0 0 0)
(-0.432984 -2.17326e-11 0 -2.52005e-10 0.129163 0 0 0 0)
(-0.309638 -2.79908e-11 0 -2.31504e-10 0.206646 0 0 0 0)
(-0.256402 -7.36268e-12 0 -2.12495e-10 0.17939 0 0 0 0)
(0.287915 -0.322487 0 -0.224262 0.402571 0 0 0 0)
(0.176499 -0.114433 0 -0.309722 0.0030778 0 0 0 0)
(0.286528 0.0961674 0 -0.449448 0.0117652 0 0 0 0)
(0.0804792 -0.0449789 0 -0.4934 0.420388 0 0 0 0)
(-0.446319 -0.185725 0 -0.225772 -0.216356 0 0 0 0)
(-1.68242 0.0436425 0 -0.157251 -0.57134 0 0 0 0)
(-1.79605 0.157639 0 -0.0132353 0.148155 0 0 0 0)
(-0.744507 0.0856915 0 0.0864867 0.374083 0 0 0 0)
(-0.731255 0.0842072 0 0.12876 0.765468 0 0 0 0)
(-0.917426 0.0439885 0 -0.0373233 1.04916 0 0 0 0)
(-0.88356 -0.0180265 0 -0.135711 1.06355 0 0 0 0)
(-0.744239 -0.0632373 0 -0.108641 0.837692 0 0 0 0)
(-0.629287 -0.0584917 0 -0.0802427 0.599913 0 0 0 0)
(-0.630907 -0.0411281 0 -0.066396 0.442051 0 0 0 0)
(-0.727912 -0.0291071 0 -0.0494491 0.32997 0 0 0 0)
(-0.661174 -0.0193245 0 -0.0246142 0.24355 0 0 0 0)
(-0.350909 -0.00918484 0 -0.00541055 0.196626 0 0 0 0)
(-0.0910909 -0.00296131 0 -0.000185652 0.181645 0 0 0 0)
(-0.00424756 -0.00150001 0 -0.000604136 0.176185 0 0 0 0)
(0.0157706 -0.0015506 0 -0.00118994 0.171554 0 0 0 0)
(0.0312778 -0.00142511 0 -0.00107085 0.165605 0 0 0 0)
(0.0596057 -0.000747012 0 -0.000581254 0.161619 0 0 0 0)
(0.0932233 -0.000178518 0 -0.000796954 0.160367 0 0 0 0)
(0.11737 -8.96086e-06 0 -0.00127738 0.160248 0 0 0 0)
(0.127887 -4.77424e-05 0 -0.0018164 0.160252 0 0 0 0)
(0.129163 3.02888e-05 0 -0.00233946 0.159913 0 0 0 0)
(0.127159 -0.000207133 0 -0.00281785 0.160464 0 0 0 0)
(0.124532 -3.5195e-05 0 -0.00324985 0.158499 0 0 0 0)
(0.121945 -2.55203e-05 0 -0.00367224 0.160231 0 0 0 0)
(0.119081 0.000158943 0 -0.00410398 0.158338 0 0 0 0)
(0.112198 -0.000218753 0 -0.00453977 0.161331 0 0 0 0)
(0.10434 0.000446281 0 -0.00491878 0.156899 0 0 0 0)
(0.0955259 0.000352779 0 -0.00547684 0.16441 0 0 0 0)
(0.0638897 6.53295e-05 0 -0.00592937 0.159411 0 0 0 0)
(-0.137486 0.000664054 0 -0.00786554 0.164851 0 0 0 0)
(-0.635572 -0.000759288 0 -0.0107029 0.164549 0 0 0 0)
(-0.85975 -0.005046 0 -0.0143122 0.160706 0 0 0 0)
(-0.434668 0.00683365 0 -0.0175558 0.130618 0 0 0 0)
(-0.31167 0.00730576 0 -0.0122874 0.206595 0 0 0 0)
(-0.257749 -0.00396444 0 -0.0136597 0.180765 0 0 0 0)
(0.304012 -0.454518 0 -0.332003 0.0272501 0 0 0 0)
(0.143106 -0.113689 0 -0.426982 0.292612 0 0 0 0)
(0.263016 0.121399 0 -0.56787 0.384394 0 0 0 0)
(0.123594 -0.0663626 0 -0.630824 0.516612 0 0 0 0)
(-0.407636 -0.288503 0 -0.657452 -0.0444242 0 0 0 0)
(-1.63624 0.10604 0 -0.734285 -0.178134 0 0 0 0)
(-1.72476 0.275032 0 -0.321367 0.102991 0 0 0 0)
(-0.690649 0.179582 0 -0.186806 0.417281 0 0 0 0)
(-0.719313 0.196387 0 -0.253935 0.82615 0 0 0 0)
(-0.981078 0.0867135 0 -0.338075 1.12691 0 0 0 0)
(-0.959017 -0.0615187 0 -0.352248 1.05323 0 0 0 0)
(-0.767675 -0.134875 0 -0.285188 0.807838 0 0 0 0)
(-0.6074 -0.115096 0 -0.192037 0.584979 0 0 0 0)
(-0.596053 -0.0785288 0 -0.117983 0.437619 0 0 0 0)
(-0.701339 -0.0577458 0 -0.0659448 0.330981 0 0 0 0)
(-0.650287 -0.0387912 0 -0.0388736 0.244867 0 0 0 0)
(-0.348085 -0.0180087 0 -0.0149947 0.196938 0 0 0 0)
(-0.090711 -0.00594651 0 -0.00368065 0.181333 0 0 0 0)
(-0.00458437 -0.00293529 0 -0.00269112 0.175744 0 0 0 0)
(0.0156134 -0.00307762 0 -0.003497 0.171106 0 0 0 0)
(0.0313245 -0.00289021 0 -0.00224419 0.165645 0 0 0 0)
(0.0595289 -0.00152401 0 -0.000853734 0.162006 0 0 0 0)
(0.093007 -0.000399004 0 -0.000610077 0.160438 0 0 0 0)
(0.117115 -3.33086e-05 0 -0.000910961 0.160125 0 0 0 0)
(0.127618 -9.75228e-05 0 -0.00138893 0.160089 0 0 0 0)
(0.128904 6.17673e-05 0 -0.00187133 0.159757 0 0 0 0)
(0.126925 -0.000411145 0 -0.00229355 0.160323 0 0 0 0)
(0.124322 -6.8025e-05 0 -0.0025851 0.158394 0 0 0 0)
(0.121746 -4.70266e-05 0 -0.00283934 0.160118 0 0 0 0)
(0.118897 0.000320034 0 -0.00306251 0.158285 0 0 0 0)
(0.112047 -0.000418361 0 -0.00320857 0.161207 0 0 0 0)
(0.104197 0.000895785 0 -0.00306289 0.157018 0 0 0 0)
(0.0954248 0.000730676 0 -0.00309288 0.164109 0 0 0 0)
(0.0635794 0.000128274 0 -0.00252674 0.159523 0 0 0 0)
(-0.138152 0.00149464 0 -0.00426898 0.164778 0 0 0 0)
(-0.636319 -0.00120581 0 -0.00585571 0.165439 0 0 0 0)
(-0.860066 -0.00987069 0 -0.00567154 0.162281 0 0 0 0)
(-0.432395 0.0133496 0 -0.00497642 0.132331 0 0 0 0)
(-0.308505 0.0145882 0 0.0118535 0.198962 0 0 0 0)
(-0.256801 -0.0075141 0 0.0218141 0.178168 0 0 0 0)
(0.020214 -0.021369 0 -0.330207 0.64181 0 0 0 0)
(0.0671569 0.108733 0 -0.404006 0.751016 0 0 0 0)
(0.185849 0.207502 0 -0.468766 0.893868 0 0 0 0)
(-0.0255643 -0.28924 0 -0.808282 0.735587 0 0 0 0)
(-0.555945 -0.502683 0 -0.989512 0.458833 0 0 0 0)
(-1.525 0.0639653 0 -1.31955 0.304039 0 0 0 0)
(-1.53505 0.395392 0 -0.641184 0.246161 0 0 0 0)
(-0.764482 0.430749 0 -0.685424 0.587114 0 0 0 0)
(-0.839951 0.399628 0 -0.930915 0.944613 0 0 0 0)
(-0.905498 0.137031 0 -0.904412 1.04539 0 0 0 0)
(-0.763139 -0.167881 0 -0.610793 0.889841 0 0 0 0)
(-0.616646 -0.27413 0 -0.33143 0.690741 0 0 0 0)
(-0.549712 -0.225272 0 -0.179078 0.531272 0 0 0 0)
(-0.592112 -0.15721 0 -0.119562 0.414533 0 0 0 0)
(-0.709013 -0.116901 0 -0.108707 0.319055 0 0 0 0)
(-0.641801 -0.0808977 0 -0.0867497 0.238457 0 0 0 0)
(-0.332098 -0.0388355 0 -0.0359882 0.19408 0 0 0 0)
(-0.0838125 -0.0128039 0 -0.0111953 0.180057 0 0 0 0)
(-0.00374293 -0.00625584 0 -0.00717938 0.174273 0 0 0 0)
(0.0162327 -0.00612 0 -0.00770233 0.16954 0 0 0 0)
(0.0328818 -0.00543931 0 -0.00541175 0.165197 0 0 0 0)
(0.0607195 -0.00311446 0 -0.00195565 0.162118 0 0 0 0)
(0.0934375 -0.00110315 0 -2.27687e-05 0.160416 0 0 0 0)
(0.117177 -0.00019989 0 0.000449064 0.159888 0 0 0 0)
(0.127595 -0.000221319 0 0.000379796 0.159769 0 0 0 0)
(0.128896 0.000140733 0 0.000281845 0.159425 0 0 0 0)
(0.126981 -0.000826241 0 0.00028596 0.160003 0 0 0 0)
(0.124433 -0.000126282 0 0.000502011 0.158122 0 0 0 0)
(0.121875 -6.88689e-05 0 0.000759171 0.159817 0 0 0 0)
(0.119063 0.000656311 0 0.00105648 0.158072 0 0 0 0)
(0.112373 -0.000782665 0 0.0014636 0.16084 0 0 0 0)
(0.104578 0.00174641 0 0.00242523 0.156963 0 0 0 0)
(0.0959791 0.00148703 0 0.00304619 0.163303 0 0 0 0)
(0.0635107 0.000412175 0 0.00457234 0.159242 0 0 0 0)
(-0.138805 0.00341462 0 0.00289778 0.164272 0 0 0 0)
(-0.635588 -0.001809 0 0.00205502 0.16515 0 0 0 0)
(-0.858834 -0.0202354 0 0.00471474 0.162517 0 0 0 0)
(-0.426303 0.0223086 0 0.00348203 0.135544 0 0 0 0)
(-0.298525 0.0276379 0 0.0181143 0.186169 0 0 0 0)
(-0.252596 -0.0129039 0 0.0246434 0.173745 0 0 0 0)
(0.0231151 -0.0618417 0 -0.566326 0.968641 0 0 0 0)
(0.0503112 0.00993383 0 -0.565414 0.910317 0 0 0 0)
(-0.0851796 0.0603603 0 -0.628265 0.793104 0 0 0 0)
(-0.298233 -0.366064 0 -1.04879 0.596306 0 0 0 0)
(-0.82078 -0.589508 0 -1.20177 0.71076 0 0 0 0)
(-1.36023 -0.0763368 0 -1.41371 0.733721 0 0 0 0)
(-1.21542 0.483272 0 -0.938899 0.720907 0 0 0 0)
(-0.930252 0.717952 0 -1.08301 0.9585 0 0 0 0)
(-0.865646 0.529011 0 -1.17235 1.0053 0 0 0 0)
(-0.713124 0.00695141 0 -0.987322 0.802372 0 0 0 0)
(-0.511907 -0.346233 0 -0.691155 0.615075 0 0 0 0)
(-0.432645 -0.405732 0 -0.464942 0.49708 0 0 0 0)
(-0.434171 -0.322179 0 -0.314978 0.422624 0 0 0 0)
(-0.530355 -0.240838 0 -0.235248 0.358364 0 0 0 0)
(-0.665604 -0.195698 0 -0.199332 0.282688 0 0 0 0)
(-0.584763 -0.136643 0 -0.137722 0.216109 0 0 0 0)
(-0.283851 -0.0631173 0 -0.0513577 0.187223 0 0 0 0)
(-0.066649 -0.0213559 0 -0.0164505 0.177723 0 0 0 0)
(-0.00166966 -0.0112894 0 -0.0112089 0.17219 0 0 0 0)
(0.0169846 -0.010192 0 -0.0116537 0.167474 0 0 0 0)
(0.0360272 -0.00867572 0 -0.0088485 0.16385 0 0 0 0)
(0.0640835 -0.00527866 0 -0.00409341 0.161254 0 0 0 0)
(0.0950935 -0.00217032 0 -0.000812804 0.159654 0 0 0 0)
(0.117469 -0.000566931 0 0.000226239 0.158998 0 0 0 0)
(0.127469 -0.0004772 0 0.000182963 0.15877 0 0 0 0)
(0.128818 0.000244978 0 -2.10434e-05 0.158395 0 0 0 0)
(0.127108 -0.00144393 0 -8.93013e-05 0.158992 0 0 0 0)
(0.124718 -0.000216073 0 0.000199009 0.157216 0 0 0 0)
(0.122212 -8.38619e-05 0 0.000514107 0.158871 0 0 0 0)
(0.119486 0.00112527 0 0.000891219 0.157298 0 0 0 0)
(0.113191 -0.00129109 0 0.00138385 0.15982 0 0 0 0)
(0.105519 0.00281332 0 0.00266405 0.15651 0 0 0 0)
(0.0971966 0.00252096 0 0.00350586 0.1617 0 0 0 0)
(0.0634733 0.000909248 0 0.00538546 0.158706 0 0 0 0)
(-0.140227 0.00615782 0 0.00317075 0.162874 0 0 0 0)
(-0.63496 -0.00257356 0 0.00140514 0.163885 0 0 0 0)
(-0.859351 -0.0328424 0 0.00394431 0.162356 0 0 0 0)
(-0.42275 0.0313378 0 0.00131293 0.143217 0 0 0 0)
(-0.293464 0.0444033 0 0.0115601 0.176841 0 0 0 0)
(-0.252765 -0.0165957 0 0.0111201 0.172044 0 0 0 0)
(0.0210924 -0.0775722 0 -0.952213 0.608667 0 0 0 0)
(0.00747003 -0.0604215 0 -1.00897 0.62966 0 0 0 0)
(-0.279952 -0.0950901 0 -1.1915 0.533634 0 0 0 0)
(-0.578211 -0.36859 0 -1.29547 0.434377 0 0 0 0)
(-0.90759 -0.370265 0 -1.51356 0.676516 0 0 0 0)
(-1.27169 0.0737436 0 -1.49005 0.957426 0 0 0 0)
(-1.21638 0.611997 0 -1.43191 1.14456 0 0 0 0)
(-0.989447 0.704799 0 -1.43506 1.1604 0 0 0 0)
(-0.747742 0.249177 0 -1.29216 0.803428 0 0 0 0)
(-0.441797 -0.239003 0 -0.940812 0.526972 0 0 0 0)
(-0.259755 -0.462071 0 -0.66148 0.383559 0 0 0 0)
(-0.254148 -0.459582 0 -0.468892 0.333215 0 0 0 0)
(-0.328371 -0.358944 0 -0.348456 0.322569 0 0 0 0)
(-0.480672 -0.292058 0 -0.291644 0.287396 0 0 0 0)
(-0.615034 -0.253983 0 -0.262951 0.228395 0 0 0 0)
(-0.499207 -0.172891 0 -0.169271 0.188737 0 0 0 0)
(-0.215237 -0.0758257 0 -0.0584999 0.180054 0 0 0 0)
(-0.0451237 -0.02729 0 -0.0205772 0.174894 0 0 0 0)
(0.000879418 -0.016132 0 -0.0158977 0.169678 0 0 0 0)
(0.0185073 -0.0141567 0 -0.0154219 0.16476 0 0 0 0)
(0.0401672 -0.0114331 0 -0.0115129 0.161615 0 0 0 0)
(0.068463 -0.00715814 0 -0.0059583 0.159425 0 0 0 0)
(0.0976001 -0.00327712 0 -0.00184367 0.158033 0 0 0 0)
(0.118136 -0.00105176 0 -0.000296215 0.157351 0 0 0 0)
(0.127357 -0.000802575 0 -0.000224828 0.157055 0 0 0 0)
(0.128634 0.00035504 0 -0.000497694 0.156665 0 0 0 0)
(0.127193 -0.00196228 0 -0.000685387 0.157303 0 0 0 0)
(0.125015 -0.000243536 0 -0.000345636 0.155721 0 0 0 0)
(0.122542 1.02723e-05 0 -7.58274e-05 0.157332 0 0 0 0)
(0.119901 0.00157142 0 0.000285166 0.156055 0 0 0 0)
(0.114081 -0.0015425 0 0.000719102 0.15829 0 0 0 0)
(0.106622 0.00355832 0 0.00211156 0.155831 0 0 0 0)
(0.0986016 0.00360351 0 0.00305476 0.159606 0 0 0 0)
(0.0631878 0.0015426 0 0.00505579 0.158066 0 0 0 0)
(-0.142641 0.00840481 0 0.00234139 0.161004 0 0 0 0)
(-0.634843 -0.00230745 0 -0.000767829 0.162477 0 0 0 0)
(-0.858923 -0.040152 0 0.00215639 0.163014 0 0 0 0)
(-0.418964 0.0362668 0 0.00133271 0.151143 0 0 0 0)
(-0.289074 0.0554166 0 0.0102681 0.170464 0 0 0 0)
(-0.25302 -0.0175271 0 0.0105239 0.170673 0 0 0 0)
(-0.0315809 -0.0416124 0 -1.50969 0.476691 0 0 0 0)
(-0.180276 -0.0623703 0 -1.66961 0.477084 0 0 0 0)
(-0.361256 -0.127821 0 -1.83921 0.362983 0 0 0 0)
(-0.608576 -0.228378 0 -1.86153 0.410994 0 0 0 0)
(-1.00829 -0.085479 0 -2.06153 0.731045 0 0 0 0)
(-1.28155 0.374687 0 -2.08747 1.13682 0 0 0 0)
(-1.16244 0.678868 0 -1.87646 1.24778 0 0 0 0)
(-0.795585 0.389225 0 -1.55227 0.870007 0 0 0 0)
(-0.389366 -0.0813869 0 -1.14175 0.474692 0 0 0 0)
(-0.10538 -0.39765 0 -0.765032 0.258587 0 0 0 0)
(-0.0571477 -0.532944 0 -0.55911 0.189873 0 0 0 0)
(-0.131005 -0.464504 0 -0.433744 0.218724 0 0 0 0)
(-0.263368 -0.366332 0 -0.363335 0.238013 0 0 0 0)
(-0.447959 -0.331587 0 -0.338604 0.208233 0 0 0 0)
(-0.547682 -0.290769 0 -0.304472 0.166644 0 0 0 0)
(-0.387746 -0.183226 0 -0.172901 0.163516 0 0 0 0)
(-0.140564 -0.0764568 0 -0.0590065 0.173079 0 0 0 0)
(-0.0255959 -0.0313548 0 -0.0263179 0.171157 0 0 0 0)
(0.00329815 -0.0210549 0 -0.0222503 0.165772 0 0 0 0)
(0.0212099 -0.0179617 0 -0.0195411 0.161046 0 0 0 0)
(0.0451466 -0.0138166 0 -0.0139214 0.15858 0 0 0 0)
(0.0734011 -0.00872973 0 -0.00748998 0.156832 0 0 0 0)
(0.10055 -0.0041694 0 -0.00271744 0.155739 0 0 0 0)
(0.119029 -0.00150934 0 -0.000682915 0.155144 0 0 0 0)
(0.127275 -0.00113805 0 -0.000324365 0.154859 0 0 0 0)
(0.128374 0.00048374 0 -0.000421488 0.154482 0 0 0 0)
(0.127254 -0.00235401 0 -0.000518243 0.155176 0 0 0 0)
(0.125305 -0.000188662 0 0.000107433 0.153823 0 0 0 0)
(0.12282 0.000238839 0 0.00047416 0.155379 0 0 0 0)
(0.120252 0.00204903 0 0.00099281 0.154429 0 0 0 0)
(0.114951 -0.00150747 0 0.00153473 0.156406 0 0 0 0)
(0.107769 0.00408151 0 0.00313918 0.154767 0 0 0 0)
(0.100034 0.00467467 0 0.00436085 0.15737 0 0 0 0)
(0.0627858 0.00225594 0 0.00656865 0.156754 0 0 0 0)
(-0.145839 0.0104085 0 0.00414125 0.158661 0 0 0 0)
(-0.635138 -0.000636618 0 0.000898284 0.1605 0 0 0 0)
(-0.857327 -0.0437639 0 0.00578845 0.162599 0 0 0 0)
(-0.414933 0.0385174 0 0.00792715 0.154533 0 0 0 0)
(-0.284607 0.0632229 0 0.016328 0.164629 0 0 0 0)
(-0.252518 -0.0163947 0 0.0194548 0.168261 0 0 0 0)
(-0.133016 -0.0771929 0 -2.04795 0.414092 0 0 0 0)
(-0.31007 -0.169994 0 -2.28944 0.383111 0 0 0 0)
(-0.464891 -0.158777 0 -2.43069 0.351754 0 0 0 0)
(-0.792441 -0.0139124 0 -2.62328 0.635857 0 0 0 0)
(-1.12531 0.329168 0 -2.65827 1.05911 0 0 0 0)
(-1.09336 0.571685 0 -2.35011 1.22113 0 0 0 0)
(-0.700648 0.354886 0 -1.76931 0.88129 0 0 0 0)
(-0.281451 -0.0401731 0 -1.22555 0.408709 0 0 0 0)
(0.0108707 -0.340009 0 -0.792319 0.139273 0 0 0 0)
(0.119657 -0.513465 0 -0.571714 0.0267714 0 0 0 0)
(0.0594858 -0.500485 0 -0.465166 0.0746229 0 0 0 0)
(-0.0654926 -0.413192 0 -0.40357 0.146928 0 0 0 0)
(-0.23669 -0.369054 0 -0.376163 0.160339 0 0 0 0)
(-0.423949 -0.360832 0 -0.375384 0.132802 0 0 0 0)
(-0.455356 -0.297073 0 -0.308902 0.122343 0 0 0 0)
(-0.262668 -0.16669 0 -0.147988 0.152857 0 0 0 0)
(-0.0739842 -0.0684626 0 -0.0524605 0.168997 0 0 0 0)
(-0.00970412 -0.0343317 0 -0.0300901 0.167245 0 0 0 0)
(0.00740977 -0.0258758 0 -0.0265061 0.161261 0 0 0 0)
(0.0265333 -0.0210868 0 -0.021856 0.157123 0 0 0 0)
(0.0517801 -0.0154939 0 -0.0151302 0.155298 0 0 0 0)
(0.0792596 -0.00989554 0 -0.00828 0.153831 0 0 0 0)
(0.10416 -0.00490335 0 -0.00344861 0.152986 0 0 0 0)
(0.120442 -0.00189968 0 -0.00141798 0.1525 0 0 0 0)
(0.127609 -0.00144105 0 -0.0011057 0.152265 0 0 0 0)
(0.128447 0.000659962 0 -0.00128203 0.151941 0 0 0 0)
(0.127703 -0.00259745 0 -0.00157218 0.152718 0 0 0 0)
(0.125971 -4.80683e-05 0 -0.000898511 0.151602 0 0 0 0)
(0.123395 0.000595064 0 -0.000797264 0.153122 0 0 0 0)
(0.120923 0.00256168 0 -0.0004227 0.152506 0 0 0 0)
(0.11615 -0.00121734 0 -9.91614e-05 0.15426 0 0 0 0)
(0.109346 0.00448731 0 0.00129252 0.153357 0 0 0 0)
(0.101906 0.00551822 0 0.00236045 0.155069 0 0 0 0)
(0.0629762 0.00278596 0 0.00415112 0.154944 0 0 0 0)
(-0.148105 0.0120148 0 0.0015114 0.156079 0 0 0 0)
(-0.633255 0.00148765 0 -0.0025256 0.158124 0 0 0 0)
(-0.85215 -0.045902 0 0.00215834 0.161372 0 0 0 0)
(-0.408808 0.0382233 0 0.00484877 0.155295 0 0 0 0)
(-0.277966 0.0686455 0 0.0112692 0.161263 0 0 0 0)
(-0.250007 -0.0140274 0 0.0132305 0.166709 0 0 0 0)
(-0.26429 -0.0714669 0 -2.63096 0.280944 0 0 0 0)
(-0.549099 -0.122441 0 -2.7644 0.425949 0 0 0 0)
(-0.682952 0.115734 0 -2.84505 0.650375 0 0 0 0)
(-0.827885 0.453254 0 -2.78648 0.945293 0 0 0 0)
(-0.745054 0.478515 0 -2.38952 1.00602 0 0 0 0)
(-0.424911 0.203334 0 -1.72957 0.672038 0 0 0 0)
(-0.0787697 -0.104014 0 -1.12468 0.239299 0 0 0 0)
(0.145878 -0.32581 0 -0.725795 5.66155e-05 0 0 0 0)
(0.240692 -0.449436 0 -0.514545 -0.100273 0 0 0 0)
(0.209876 -0.459949 0 -0.438496 -0.0535171 0 0 0 0)
(0.104881 -0.417157 0 -0.398601 0.0379704 0 0 0 0)
(-0.0452384 -0.381905 0 -0.38446 0.0851982 0 0 0 0)
(-0.236207 -0.379944 0 -0.392048 0.0817454 0 0 0 0)
(-0.383143 -0.368201 0 -0.389804 0.067819 0 0 0 0)
(-0.328555 -0.271443 0 -0.274043 0.100602 0 0 0 0)
(-0.14063 -0.138268 0 -0.117925 0.149836 0 0 0 0)
(-0.0269535 -0.0625925 0 -0.0524785 0.164248 0 0 0 0)
(-0.000585299 -0.0388102 0 -0.0384471 0.161128 0 0 0 0)
(0.0112329 -0.0308089 0 -0.0329786 0.1555 0 0 0 0)
(0.0321722 -0.0237072 0 -0.0251815 0.152606 0 0 0 0)
(0.058229 -0.0169881 0 -0.0168723 0.151667 0 0 0 0)
(0.0846579 -0.010958 0 -0.0091531 0.15062 0 0 0 0)
(0.107162 -0.00545238 0 -0.0037229 0.149998 0 0 0 0)
(0.121287 -0.00220381 0 -0.00111464 0.149605 0 0 0 0)
(0.127406 -0.00167637 0 -0.000210562 0.149439 0 0 0 0)
(0.127925 0.00091942 0 0.000184482 0.149188 0 0 0 0)
(0.127624 -0.00268081 0 0.000508607 0.150013 0 0 0 0)
(0.126052 0.000201228 0 0.00143514 0.149079 0 0 0 0)
(0.123278 0.00110949 0 0.00194756 0.150526 0 0 0 0)
(0.120925 0.00314572 0 0.00268277 0.150204 0 0 0 0)
(0.116604 -0.000687076 0 0.00322947 0.15174 0 0 0 0)
(0.110139 0.00486112 0 0.00469469 0.151384 0 0 0 0)
(0.102788 0.00620383 0 0.00577619 0.15251 0 0 0 0)
(0.0619677 0.00322909 0 0.00730636 0.152641 0 0 0 0)