/*--------------------------------*- C++ -*----------------------------------*\
| =========                 |                                                 |
| \\      /  F ield         | OpenFOAM: The Open Source CFD Toolbox           |
|  \\    /   O peration     | Version:  v1912                                 |
|   \\  /    A nd           | Website:  www.openfoam.com                      |
|    \\/     M anipulation  |                                                 |
\*---------------------------------------------------------------------------*/
FoamFile
{
    version     2.0;
    format      ascii;
    class       volVectorField;
    location    "5.96";
    object      grad(rho);
}
// * * * * * * * * * * * * * * * * * * * * * * * * * * * * * * * * * * * * * //

dimensions      [1 -4 0 0 0 0 0];


internalField   nonuniform List<vector> 
1900
(
(130464 -0.188499 0)
(-126763 0.525731 0)
(-9664.13 -0.371612 0)
(-2977.74 -0.970714 0)
(-2180.64 -2.55327 0)
(-1137.1 -2.77231 0)
(-608.864 -21.7334 0)
(-334.781 9.16252 0)
(-45.7013 43.2901 0)
(1097.61 2.3112 0)
(130464 -0.339871 0)
(-126763 0.789248 0)
(-9665.62 -0.502848 0)
(-2979.93 -1.55035 0)
(-2182.44 -3.34679 0)
(-1156.28 -1.16187 0)
(-596.929 -25.3218 0)
(-269.757 2.0167 0)
(-52.5526 14.0802 0)
(186.607 -33.7258 0)
(130464 -4.26326e-08 0)
(-126763 -3.35731e-09 0)
(-9666.47 1.88471e-08 0)
(-2980.59 2.07656e-08 0)
(-2180.25 1.70886e-08 0)
(-1159.08 6.60805e-09 0)
(-605.685 -5.48894e-09 0)
(-295.379 6.92779e-10 0)
(-81.4438 6.32383e-09 0)
(35.3075 2.25597e-09 0)
(130464 0.339871 0)
(-126763 -0.789248 0)
(-9665.62 0.502848 0)
(-2979.93 1.55035 0)
(-2182.44 3.34679 0)
(-1156.28 1.16187 0)
(-596.929 25.3218 0)
(-269.757 -2.0167 0)
(-52.5526 -14.0802 0)
(186.607 33.7258 0)
(130464 0.188499 0)
(-126763 -0.525731 0)
(-9664.13 0.371612 0)
(-2977.74 0.970714 0)
(-2180.64 2.55327 0)
(-1137.1 2.77231 0)
(-608.864 21.7334 0)
(-334.781 -9.16252 0)
(-45.7013 -43.2901 0)
(1097.61 -2.3112 0)
(166.147 -745.808 1.26831e-11)
(-1949.52 -497.45 -1.50392e-11)
(-3000.45 -467.191 -1.89202e-11)
(-2706.09 -347.77 0)
(-25600.7 -7617.25 -7.92985e-11)
(-246.446 -909.241 1.25483e-11)
(-1234.39 -604.435 1.50392e-11)
(-2626.08 -493.508 1.89202e-11)
(-5440.99 91.2875 0)
(-24311.2 -6488.25 0)
(-567.009 3.90992e-09 0)
(-1194.39 6.01858e-09 0)
(-2372.79 6.34061e-09 0)
(-5067.89 6.79591e-09 0)
(-26627 2.59052e-09 0)
(-246.446 909.241 1.25483e-11)
(-1234.39 604.435 1.50392e-11)
(-2626.08 493.508 1.89202e-11)
(-5440.99 -91.2875 0)
(-24311.2 6488.25 0)
(166.147 745.808 -3.77798e-11)
(-1949.52 497.45 -1.50392e-11)
(-3000.45 467.191 -1.89202e-11)
(-2706.09 347.77 -5.04634e-11)
(-25600.7 7617.25 7.92985e-11)
(-46705.1 14913.3 1.82067e-11)
(-14628.7 6849.31 -9.96102e-12)
(-2316.73 3030.89 0)
(446.731 1810.56 6.66537e-12)
(-3909.66 1887.11 -2.96545e-12)
(-41974.4 19291.5 -9.32791e-12)
(-17247.1 6005.03 5.08365e-12)
(-3614.5 1613.37 0)
(223.149 584.601 -4.20434e-12)
(-3251.07 960.831 7.62805e-13)
(-43499.7 3.5886e-10 0)
(-19209.8 -1.85986e-09 0)
(-4056.76 -6.5791e-11 0)
(159.064 2.00276e-09 1.68878e-12)
(-2958.1 -2.41522e-09 -1.52561e-12)
(-41974.4 -19291.5 -9.32791e-12)
(-17247.1 -6005.03 5.08365e-12)
(-3614.5 -1613.37 0)
(223.149 -584.601 -4.20434e-12)
(-3251.07 -960.831 7.62805e-13)
(-46705.1 -14913.3 9.32791e-12)
(-14628.7 -6849.31 -2.06279e-13)
(-2316.73 -3030.89 0)
(446.731 -1810.56 5.45283e-14)
(-3909.66 -1887.11 2.96545e-12)
(-7340.44 4860.79 0)
(-3480.67 -36.6477 0)
(2054.95 -2177.93 0)
(5885.58 -1825.98 0)
(4954.35 776.338 0)
(1298.2 1497.18 0)
(-769.332 1608.42 0)
(-2273.37 1125.08 0)
(-2978.9 599.406 0)
(-2787.24 300.612 0)
(-1934.73 134.41 0)
(-1115.09 53.4744 0)
(-748.771 21.8026 0)
(-645.476 15.5394 0)
(-591.055 22.6205 0)
(-506.009 14.0597 0)
(-369.932 3.71355 0)
(-229.136 -1.00566 0)
(-135.854 -1.98749 0)
(-91.9152 -1.78098 0)
(-74.084 -1.4624 0)
(-65.0294 -1.34054 0)
(-56.7097 -1.43834 0)
(-46.8364 -1.67273 0)
(-35.173 -1.95264 0)
(-22.7544 -2.23007 0)
(-8.7845 -2.43784 0)
(8.31518 -2.5984 0)
(28.7204 -2.70468 0)
(45.8164 -2.56606 0)
(65.1538 -2.58072 0)
(79.8165 -2.18115 0)
(105.444 -3.04675 0)
(137.836 -1.38094 0)
(224.453 -3.00147 0)
(294.928 4.90454 0)
(277.534 1.61016 0)
(369.652 -1.42864 0)
(-474.665 -10.7308 0)
(9951.33 -2.14523 0)
(-7253.13 3480.12 0)
(-4588.81 764.822 0)
(1395.81 -557.352 0)
(6184.85 -615.582 0)
(5393.21 506.936 0)
(1393.62 786.229 0)
(-909.963 674.723 0)
(-2465.69 410.989 0)
(-3097.88 241.735 0)
(-2844.18 147.072 0)
(-1960.74 62.2912 0)
(-1125.35 22.5689 0)
(-752.07 7.76694 0)
(-644.959 6.14302 0)
(-591.203 10.2451 0)
(-508.022 4.92553 0)
(-371.177 0.765629 0)
(-229.487 -0.744433 0)
(-135.873 -0.952888 0)
(-91.861 -0.825502 0)
(-74.0413 -0.678756 0)
(-65.0255 -0.624527 0)
(-56.7398 -0.673919 0)
(-46.884 -0.786352 0)
(-35.2255 -0.921342 0)
(-22.8008 -1.05904 0)
(-8.82162 -1.16814 0)
(8.28451 -1.2623 0)
(28.7164 -1.33985 0)
(45.8184 -1.30994 0)
(65.1831 -1.34864 0)
(79.7536 -1.1854 0)
(105.532 -1.61966 0)
(137.789 -0.743871 0)
(224.993 -1.76867 0)
(295.455 1.82807 0)
(277.171 1.11472 0)
(367.824 1.59529 0)
(-475.274 -7.13387 0)
(9905.91 -10.5817 0)
(-7221.24 1.46049e-07 0)
(-4655.21 -3.2362e-07 0)
(1653.38 2.26324e-08 0)
(6195.19 8.05005e-07 0)
(5362.15 5.33085e-07 0)
(1347.01 2.85444e-07 0)
(-878.493 1.71822e-08 0)
(-2399.33 -8.09857e-08 0)
(-3055.67 -6.82767e-08 0)
(-2839.44 -5.27659e-08 0)
(-1970.95 -3.58501e-08 0)
(-1130.95 -2.58218e-08 0)
(-753.549 -2.34398e-08 0)
(-644.755 -1.24264e-08 0)
(-591.409 9.9153e-09 0)
(-508.766 -9.72959e-09 0)
(-371.581 -9.23706e-09 0)
(-229.636 -8.47807e-10 0)
(-135.877 2.7695e-09 0)
(-91.8354 7.7756e-09 0)
(-74.0255 1.13364e-08 0)
(-65.028 1.33953e-08 0)
(-56.7568 1.28221e-08 0)
(-46.9084 7.86442e-09 0)
(-35.2524 3.52849e-09 0)
(-22.8262 1.21115e-09 0)
(-8.84363 4.03717e-11 0)
(8.26522 -1.41301e-09 0)
(28.7066 5.04647e-09 0)
(45.8139 1.25637e-08 0)
(65.19 1.54139e-08 0)
(79.7376 8.59918e-09 0)
(105.572 -6.49178e-09 0)
(137.793 1.9879e-08 0)
(225.202 3.64638e-08 0)
(295.766 1.01737e-08 0)
(277.466 -7.02468e-08 0)
(367.252 2.57007e-08 0)
(-478.207 9.166e-08 0)
(9885.2 -1.51313e-08 0)
(-7253.13 -3480.12 0)
(-4588.81 -764.822 0)
(1395.81 557.352 0)
(6184.85 615.582 0)
(5393.21 -506.936 0)
(1393.62 -786.229 0)
(-909.963 -674.723 0)
(-2465.69 -410.989 0)
(-3097.88 -241.735 0)
(-2844.18 -147.072 0)
(-1960.74 -62.2912 0)
(-1125.35 -22.5689 0)
(-752.07 -7.76694 0)
(-644.959 -6.14302 0)
(-591.203 -10.2451 0)
(-508.022 -4.92553 0)
(-371.177 -0.765629 0)
(-229.487 0.744433 0)
(-135.873 0.952888 0)
(-91.861 0.825502 0)
(-74.0413 0.678756 0)
(-65.0255 0.624527 0)
(-56.7398 0.673919 0)
(-46.884 0.786352 0)
(-35.2255 0.921342 0)
(-22.8008 1.05904 0)
(-8.82162 1.16814 0)
(8.28451 1.2623 0)
(28.7164 1.33985 0)
(45.8184 1.30994 0)
(65.1831 1.34864 0)
(79.7536 1.1854 0)
(105.532 1.61966 0)
(137.789 0.743871 0)
(224.993 1.76867 0)
(295.455 -1.82807 0)
(277.171 -1.11472 0)
(367.824 -1.59529 0)
(-475.274 7.13387 0)
(9905.91 10.5817 0)
(-7340.44 -4860.79 0)
(-3480.67 36.6477 0)
(2054.95 2177.93 0)
(5885.58 1825.98 0)
(4954.35 -776.338 0)
(1298.2 -1497.18 0)
(-769.332 -1608.42 0)
(-2273.37 -1125.08 0)
(-2978.9 -599.406 0)
(-2787.24 -300.612 0)
(-1934.73 -134.41 0)
(-1115.09 -53.4744 0)
(-748.771 -21.8026 0)
(-645.476 -15.5394 0)
(-591.055 -22.6205 0)
(-506.009 -14.0597 0)
(-369.932 -3.71355 0)
(-229.136 1.00566 0)
(-135.854 1.98749 0)
(-91.9152 1.78098 0)
(-74.084 1.4624 0)
(-65.0294 1.34054 0)
(-56.7097 1.43834 0)
(-46.8364 1.67273 0)
(-35.173 1.95264 0)
(-22.7544 2.23007 0)
(-8.7845 2.43784 0)
(8.31518 2.5984 0)
(28.7204 2.70468 0)
(45.8164 2.56606 0)
(65.1538 2.58072 0)
(79.8165 2.18115 0)
(105.444 3.04675 0)
(137.836 1.38094 0)
(224.453 3.00147 0)
(294.928 -4.90454 0)
(277.534 -1.61016 0)
(369.652 1.42864 0)
(-474.665 10.7308 0)
(9951.33 2.14523 0)
(-2074.06 -1304.09 0)
(-1454.9 2460.36 0)
(1756.07 3431.98 0)
(4677.76 2314.58 0)
(3816.12 -881.656 0)
(982.006 -1710.79 0)
(-839.154 -1707.27 0)
(-2055.13 -1354.5 0)
(-2718.29 -899.39 0)
(-2618.34 -545.656 0)
(-1835.78 -257.807 0)
(-1066.57 -97.8761 0)
(-732.089 -43.8099 0)
(-644.875 -34.071 0)
(-590.445 -38.1072 0)
(-498.49 -26.1685 0)
(-363.167 -8.93723 0)
(-226.316 0.756379 0)
(-135.409 3.24357 0)
(-92.1276 2.97661 0)
(-74.2682 2.41479 0)
(-65.0362 2.21525 0)
(-56.5663 2.40557 0)
(-46.6164 2.83338 0)
(-34.9366 3.3339 0)
(-22.5502 3.82163 0)
(-8.63351 4.18626 0)
(8.41644 4.45427 0)
(28.6915 4.60629 0)
(45.7429 4.36367 0)
(64.9755 4.28591 0)
(79.9731 3.69061 0)
(105.132 4.70916 0)
(137.706 2.78615 0)
(221.675 3.52749 0)
(293.171 -7.60318 0)
(280.724 -4.09464 0)
(373.453 3.70035 0)
(-475.53 28.3628 0)
(9979.1 11.8371 0)
(-964.746 35.7384 0)
(-3.1033 555.954 0)
(2074.75 1437.95 0)
(2376.47 347.749 0)
(1685.72 -1403.39 0)
(672.158 -2059.94 0)
(-388.563 -1956.05 0)
(-1611.89 -1589.23 0)
(-2339.21 -1207.83 0)
(-2259.56 -775.72 0)
(-1556.3 -360.852 0)
(-934.887 -140.394 0)
(-696.231 -73.4092 0)
(-640.303 -60.2041 0)
(-583.767 -55.1442 0)
(-481.931 -37.2985 0)
(-347.614 -14.201 0)
(-218.911 0.168058 0)
(-133.953 4.56761 0)
(-92.5999 4.51196 0)
(-74.7189 3.78915 0)
(-65.0346 3.55023 0)
(-56.1909 3.88256 0)
(-46.0598 4.56355 0)
(-34.3475 5.3453 0)
(-22.0425 6.10141 0)
(-8.25582 6.65479 0)
(8.66563 7.07145 0)
(28.6486 7.3075 0)
(45.5471 6.94635 0)
(64.6008 6.79316 0)
(80.1403 6.03088 0)
(104.74 7.17566 0)
(136.768 5.17225 0)
(215.932 4.70307 0)
(288.525 -8.38718 0)
(286.715 -6.86692 0)
(398.89 5.91401 0)
(-466.36 50.3937 0)
(9855.88 18.62 0)
(-1896.2 -714.297 0)
(-103.684 32.3726 0)
(1555.44 -645.051 0)
(1939.74 -1165.31 0)
(1495.98 -1539.02 0)
(449.447 -1645.23 0)
(-385.564 -1813.83 0)
(-1334.12 -1680.1 0)
(-1934.36 -1341.94 0)
(-1802.17 -838.164 0)
(-1223.56 -389.273 0)
(-789.584 -173.527 0)
(-654.815 -106.8 0)
(-627.274 -87.1129 0)
(-568.373 -71.8131 0)
(-459.035 -46.4312 0)
(-327.063 -18.3384 0)
(-208.229 -0.464959 0)
(-131.223 5.6589 0)
(-92.8778 6.08309 0)
(-75.195 5.41988 0)
(-64.9462 5.25565 0)
(-55.5898 5.77674 0)
(-45.2069 6.72978 0)
(-33.4547 7.80608 0)
(-21.2883 8.84388 0)
(-7.69874 9.51484 0)
(9.04542 10.0566 0)
(28.5709 10.3933 0)
(45.2473 9.84667 0)
(64.0934 9.60244 0)
(80.3417 8.66998 0)
(104.304 9.84681 0)
(135.323 7.74875 0)
(208.609 6.41305 0)
(282.022 -7.59022 0)
(294.505 -7.31325 0)
(428.631 8.76419 0)
(-463.286 58.0401 0)
(9710.31 18.6791 0)
(-3057.93 -1210.77 0)
(63.6247 42.2076 0)
(920.616 -698.431 0)
(1515 -1047.08 0)
(1223.25 -1315.28 0)
(407.347 -1492.28 0)
(-422.164 -1634.97 0)
(-1157.16 -1585.13 0)
(-1527.89 -1262.49 0)
(-1341.53 -767.301 0)
(-915.832 -375.619 0)
(-662.685 -196.516 0)
(-612.959 -136.046 0)
(-606.589 -110.538 0)
(-544.565 -84.5331 0)
(-430.401 -51.5727 0)
(-303.319 -19.7368 0)
(-195.786 -0.156337 0)
(-127.643 6.98592 0)
(-92.8303 7.92348 0)
(-75.5163 7.53143 0)
(-64.6907 7.57855 0)
(-54.7704 8.31094 0)
(-44.1042 9.48477 0)
(-32.3103 10.7663 0)
(-20.3959 11.9545 0)
(-7.08723 12.7176 0)
(9.51219 13.3094 0)
(28.4464 13.516 0)
(44.785 12.7337 0)
(63.4669 12.2635 0)
(80.3758 11.1189 0)
(103.852 11.8779 0)
(133.459 9.86811 0)
(201.151 7.72942 0)
(275.298 -4.87158 0)
(302.475 -7.00155 0)
(461.867 10.7091 0)
(-456.805 62.6997 0)
(9586.92 30.2782 0)
(-4057.95 -1078.22 0)
(390.027 -303.482 0)
(505.758 -539.197 0)
(1345.32 -833.77 0)
(1066.97 -954.084 0)
(141.385 -1334.91 0)
(-475.029 -1459.61 0)
(-975.183 -1384.51 0)
(-1146.27 -1071.15 0)
(-947.544 -636.979 0)
(-673.528 -341.481 0)
(-558.723 -204.891 0)
(-571.963 -154.568 0)
(-577.634 -125.819 0)
(-511.552 -90.2625 0)
(-396.595 -51.2039 0)
(-277.516 -17.6954 0)
(-182.478 2.28596 0)
(-123.437 9.80961 0)
(-92.3521 11.2095 0)
(-75.5274 11.2172 0)
(-64.1951 11.566 0)
(-53.7529 12.5096 0)
(-42.8408 13.8289 0)
(-31.0747 15.1988 0)
(-19.4079 16.4106 0)
(-6.39315 17.3409 0)
(9.81481 17.9338 0)
(28.0162 17.7824 0)
(44.0403 16.7737 0)
(62.5373 16.0297 0)
(79.9701 14.6737 0)
(103.099 14.8945 0)
(131.325 13.0083 0)
(194.405 10.6426 0)
(267.826 0.731978 0)
(309.519 -3.78021 0)
(495.798 16.3141 0)
(-444.428 64.1479 0)
(9474.08 43.1817 0)
(-4701.56 -599.083 0)
(583.044 -363.67 0)
(409.612 -378.952 0)
(1115.2 -511.964 0)
(740.327 -898.7 0)
(-79.7944 -1188.73 0)
(-469.957 -1259.66 0)
(-782.828 -1143.82 0)
(-807.541 -841.763 0)
(-638.394 -504.434 0)
(-499.457 -298.442 0)
(-482.57 -206.122 0)
(-536.762 -167.675 0)
(-544.621 -134.594 0)
(-472.663 -90.6913 0)
(-360.473 -46.8823 0)
(-251.774 -12.8699 0)
(-169.281 6.63904 0)
(-119.044 14.1802 0)
(-91.4738 16.0748 0)
(-75.1727 16.5903 0)
(-63.4453 17.2908 0)
(-52.5898 18.4013 0)
(-41.5128 19.7395 0)
(-29.8225 21.0323 0)
(-18.3316 22.1322 0)
(-5.61941 23.0515 0)
(9.93756 23.3987 0)
(27.3285 22.714 0)
(43.096 21.2859 0)
(61.4432 20.0061 0)
(79.2819 18.1965 0)
(102.247 17.6397 0)
(129.362 15.6178 0)
(189.321 13.2191 0)
(261.399 5.0985 0)
(317.491 -0.0756691 0)
(527.325 22.0014 0)
(-430.915 61.3458 0)
(9364.75 38.03 0)
(-5018.48 -325.454 0)
(602.154 -321.906 0)
(362.857 -339.441 0)
(844.47 -403.584 0)
(414.807 -905.762 0)
(-206.449 -1032.48 0)
(-431.747 -1058.24 0)
(-572.483 -895.015 0)
(-530.137 -626.583 0)
(-423.98 -395.27 0)
(-386.065 -257.914 0)
(-432.711 -201.619 0)
(-503.036 -172.196 0)
(-503.449 -133.046 0)
(-427.03 -82.7752 0)
(-321.604 -36.9173 0)
(-225.941 -2.85365 0)
(-156.412 15.1899 0)
(-114.344 22.5505 0)
(-90.0296 24.8799 0)
(-74.3555 25.8874 0)
(-62.4499 26.883 0)
(-51.3933 28.048 0)
(-40.3055 29.2547 0)
(-28.769 30.2984 0)
(-17.4622 31.11 0)
(-5.17269 31.7555 0)
(9.48952 31.6741 0)
(25.9803 30.3137 0)
(41.4309 28.2751 0)
(59.5602 26.2318 0)
(77.6897 23.7036 0)
(100.614 22.1688 0)
(127.066 19.6703 0)
(184.268 17.32 0)
(255.015 10.0168 0)
(325.808 5.63362 0)
(554.986 26.6761 0)
(-428.983 57.2965 0)
(9253.77 31.4361 0)
(-5335.34 -277.468 0)
(569.566 -333.441 0)
(330.904 -359.583 0)
(569.475 -446.077 0)
(134.301 -880.643 0)
(-226.732 -890.211 0)
(-337.492 -830.12 0)
(-366.864 -646.097 0)
(-325.968 -447.58 0)
(-283.131 -305.915 0)
(-312.848 -224.276 0)
(-399.969 -193.787 0)
(-470.683 -167.939 0)
(-458.452 -122.699 0)
(-380.03 -68.7946 0)
(-283.458 -23.2533 0)
(-201.562 8.61255 0)
(-144.801 25.1769 0)
(-109.706 32.3257 0)
(-88.2584 35.0754 0)
(-73.2424 36.5578 0)
(-61.3633 37.8156 0)
(-50.3043 38.9982 0)
(-39.3441 40.0417 0)
(-28.0347 40.8072 0)
(-16.9276 41.2887 0)
(-5.07587 41.5603 0)
(8.54816 41.0043 0)
(24.0531 38.974 0)
(39.1626 36.3289 0)
(57.038 33.5489 0)
(75.3667 30.3541 0)
(98.3606 27.9216 0)
(124.689 25.0325 0)
(180.018 22.6539 0)
(250.138 16.3397 0)
(333.544 13.198 0)
(577.11 31.9075 0)
(-426.328 55.7859 0)
(9134.46 27.2124 0)
(-5728.26 -303.935 0)
(523.025 -367.204 0)
(254.317 -399.48 0)
(342.358 -574.501 0)
(-13.1772 -740.944 0)
(-157.764 -697.96 0)
(-196.51 -584.802 0)
(-203.853 -443.652 0)
(-202.325 -319.122 0)
(-208.797 -238.627 0)
(-278.014 -199.822 0)
(-378.423 -186.283 0)
(-434.532 -157.482 0)
(-407.91 -105.913 0)
(-331.201 -50.4172 0)
(-247.011 -5.03041 0)
(-179.272 23.0005 0)
(-133.561 38.5208 0)
(-104.805 45.6223 0)
(-85.9514 48.8747 0)
(-71.715 50.7879 0)
(-60.0983 52.1622 0)
(-49.2481 53.1558 0)
(-38.5622 53.8055 0)
(-27.5674 54.0725 0)
(-16.7364 54.0954 0)
(-5.44672 53.653 0)
(6.99727 52.2656 0)
(21.4749 49.5572 0)
(36.2031 46.125 0)
(53.8027 42.5364 0)
(72.267 38.5763 0)
(95.486 35.3178 0)
(121.989 31.9559 0)
(175.891 29.4978 0)
(245.903 23.6096 0)
(340.809 21.9278 0)
(596.025 37.9313 0)
(-433.507 56.4396 0)
(9005.6 24.2977 0)
(-6186.6 -312.825 0)
(477.495 -347.402 0)
(131.145 -418.371 0)
(240.427 -581.112 0)
(15.3318 -503.605 0)
(-76.2672 -464.132 0)
(-92.4315 -380.619 0)
(-110.845 -304.435 0)
(-128.399 -232.789 0)
(-168.169 -192.299 0)
(-262.407 -181.604 0)
(-359.168 -172.849 0)
(-393.236 -136.433 0)
(-355.281 -81.1829 0)
(-282.816 -27.8047 0)
(-212.71 12.9967 0)
(-159.594 37.5619 0)
(-123.002 51.2061 0)
(-99.729 57.9791 0)
(-83.2806 61.5278 0)
(-70.0744 63.7877 0)
(-59.0816 65.3419 0)
(-48.7208 66.3645 0)
(-38.4608 66.9724 0)
(-27.7553 67.2128 0)
(-17.3318 67.2543 0)
(-6.83914 66.3924 0)
(4.60132 64.7048 0)
(18.1357 61.905 0)
(32.397 58.167 0)
(49.7639 54.2516 0)
(68.4106 50.0598 0)
(91.9809 46.5845 0)
(119.081 43.2933 0)
(171.975 41.2097 0)
(242.843 36.181 0)
(347.345 36.5098 0)
(610.366 49.9306 0)
(-439.466 62.739 0)
(8857.42 30.4419 0)
(-6570.61 -235.954 0)
(421.317 -248.653 0)
(29.1049 -354.056 0)
(260.223 -401.742 0)
(99.5491 -307.526 0)
(-39.2494 -291.767 0)
(-42.6202 -249.119 0)
(-61.3989 -206.059 0)
(-94.2671 -166.859 0)
(-159.473 -156.191 0)
(-259.271 -162.079 0)
(-334.895 -149.744 0)
(-346.199 -108.503 0)
(-303.232 -51.3482 0)
(-240.446 -0.781666 0)
(-184.022 32.8399 0)
(-142.452 54.425 0)
(-113.886 66.2503 0)
(-94.859 72.7251 0)
(-80.354 76.5107 0)
(-68.0397 78.9641 0)
(-57.6153 80.4691 0)
(-47.6768 81.3114 0)
(-37.7447 81.7719 0)
(-27.2958 81.9749 0)
(-17.527 81.9855 0)
(-7.90357 80.8445 0)
(2.67302 79.1557 0)
(15.1749 76.3693 0)
(28.828 72.6595 0)
(45.9903 68.7547 0)
(64.8787 64.6573 0)
(88.9656 61.4965 0)
(116.81 58.6894 0)
(169.038 57.4003 0)
(241.374 53.5725 0)
(354.059 55.6855 0)
(621.301 67.5516 0)
(-452.287 76.4508 0)
(8687.07 44.2599 0)
(-6803.06 -137.977 0)
(363.687 -153.834 0)
(-16.3769 -226.339 0)
(285.266 -222.469 0)
(121.307 -183.181 0)
(-19.9843 -179.696 0)
(-9.83966 -154.35 0)
(-31.5771 -136.305 0)
(-80.3439 -123.03 0)
(-163.562 -130.116 0)
(-256.194 -136.96 0)
(-307.541 -116.974 0)
(-298.418 -72.0882 0)
(-251.476 -18.5839 0)
(-201.689 24.4118 0)
(-159.51 52.8246 0)
(-127.399 70.2489 0)
(-105.367 79.6787 0)
(-89.8417 84.9632 0)
(-77.2684 88.3603 0)
(-66.26 91.0412 0)
(-56.8197 93.246 0)
(-47.4653 95.0343 0)
(-37.8214 96.4213 0)
(-27.5496 97.3325 0)
(-18.4211 97.7329 0)
(-9.56598 96.8048 0)
(0.288839 95.3975 0)
(11.8757 92.6783 0)
(25.0594 89.21 0)
(42.0528 85.5856 0)
(61.4164 81.9366 0)
(86.23 79.598 0)
(115.133 77.9696 0)
(167.045 78.3357 0)
(241.19 76.8652 0)
(360.816 82.0839 0)
(630.377 94.7903 0)
(-461.911 102.03 0)
(8480.18 83.3645 0)
(-6950.26 -48.1291 0)
(336.169 -84.2236 0)
(-37.0346 -122.581 0)
(301.811 -119.236 0)
(140.767 -79.8404 0)
(-11.4668 -79.4765 0)
(-0.80676 -68.0769 0)
(-31.2174 -71.7559 0)
(-88.3036 -83.6694 0)
(-172.897 -103.812 0)
(-246.607 -104.498 0)
(-272.382 -73.0448 0)
(-251.387 -22.0468 0)
(-210.241 23.3986 0)
(-171.634 57.7726 0)
(-139.851 82.3465 0)
(-116.575 97.1438 0)
(-99.7071 105.873 0)
(-86.4931 111.327 0)
(-74.497 115.022 0)
(-63.3317 117.631 0)
(-53.7674 119.277 0)
(-44.6169 120.281 0)
(-35.5301 120.922 0)
(-26.0319 121.18 0)
(-18.0355 121.109 0)
(-10.1541 120.02 0)
(-1.3034 118.705 0)
(9.21235 115.932 0)
(21.9932 112.974 0)
(38.9814 109.828 0)
(59.1089 106.755 0)
(85.1428 105.46 0)
(115.594 105.092 0)
(167.974 107.124 0)
(244.986 108.626 0)
(371.332 116.22 0)
(640.521 130.537 0)
(-463.297 138.055 0)
(8209.63 142.837 0)
(-6994.13 92.7007 0)
(291.943 8.56 0)
(-50.1161 -20.9535 0)
(326.452 -12.4699 0)
(159.621 6.54341 0)
(-8.64858 -0.573416 0)
(-2.39976 -2.20835 0)
(-46.6026 -20.4162 0)
(-111.234 -46.2834 0)
(-183.633 -63.8794 0)
(-226.546 -52.7168 0)
(-228.088 -13.3655 0)
(-205.482 31.7748 0)
(-174.559 69.9719 0)
(-144.885 99.6287 0)
(-121.571 120.596 0)
(-104.727 134.371 0)
(-91.6999 143.31 0)
(-81.0256 148.687 0)
(-71.1936 151.705 0)
(-62.1595 154.001 0)
(-54.2659 155.81 0)
(-45.8805 156.426 0)
(-36.9554 155.811 0)
(-27.3695 154.526 0)
(-19.5385 153.21 0)
(-11.8827 151.263 0)
(-3.65028 149.383 0)
(6.35383 146.719 0)
(19.1772 144.472 0)
(36.0596 141.858 0)
(57.2067 139.677 0)
(84.6272 139.696 0)
(116.737 140.878 0)
(170.45 144.628 0)
(249.956 148.491 0)
(381.93 157.371 0)
(651.417 174.144 0)
(-450.058 184.139 0)
(7887.46 218.318 0)
(-6850.28 287.757 0)
(226.647 135.102 0)
(-57.2998 118.901 0)
(328.308 120.389 0)
(152.23 108.229 0)
(-19.9003 90.6625 0)
(-19.928 72.2889 0)
(-73.6897 43.2559 0)
(-130.186 18.5982 0)
(-179.096 17.5654 0)
(-197.93 39.4672 0)
(-190.963 77.245 0)
(-171.08 115.622 0)
(-144.854 150.243 0)
(-122.851 177.611 0)
(-106.373 198.694 0)
(-94.6858 215.642 0)
(-85.9114 229.264 0)
(-78.4033 239.216 0)
(-69.3759 245.113 0)
(-59.3761 247.513 0)
(-51.4312 246.45 0)
(-44.6165 242.229 0)
(-37.3602 236.338 0)
(-28.5381 230.417 0)
(-21.1802 225.948 0)
(-13.8415 221.466 0)
(-5.6824 217.886 0)
(4.47909 213.964 0)
(17.3095 210.351 0)
(34.3612 206.668 0)
(57.0252 204.323 0)
(86.3003 205.132 0)
(120.346 207.779 0)
(175.309 213.149 0)
(257.266 220.512 0)
(396.053 231.497 0)
(666.316 247 0)
(-420.729 247.086 0)
(7501.68 306.509 0)
(-6495.72 520.354 0)
(129.227 287.981 0)
(-64.2939 271.542 0)
(316.168 260.97 0)
(130.976 218.165 0)
(-43.282 192.605 0)
(-48.0824 160.4 0)
(-98.3409 129.995 0)
(-135.99 111.541 0)
(-163.523 120.298 0)
(-169.037 145.148 0)
(-154.702 178.999 0)
(-135.139 214.175 0)
(-114.825 244.447 0)
(-98.1957 267.699 0)
(-84.9231 285.219 0)
(-75.2686 298.317 0)
(-68.983 308.32 0)
(-65.7538 316.061 0)
(-63.1978 321.365 0)
(-60.8705 323.284 0)
(-59.358 321.859 0)
(-55.625 318.912 0)
(-48.3378 315.77 0)
(-37.3814 311.74 0)
(-28.1645 307.93 0)
(-19.6514 302.906 0)
(-10.8789 299.806 0)
(-0.907316 296.096 0)
(12.1467 292.977 0)
(30.2508 292.02 0)
(55.7263 293.2 0)
(87.9576 298.629 0)
(124.462 305.461 0)
(182.72 315.595 0)
(267.637 327.317 0)
(407.455 340.147 0)
(666.439 349.562 0)
(-392.713 327.764 0)
(7044.86 431.256 0)
(-5852.46 1151.49 0)
(-13.1172 386.787 0)
(-83.3286 537.876 0)
(276.872 508.081 0)
(86.3509 409.391 0)
(-75.5647 372.013 0)
(-80.2614 317.916 0)
(-120.772 280.009 0)
(-139.531 257.412 0)
(-146.711 260.384 0)
(-141.363 275.692 0)
(-124.446 293.499 0)
(-108.013 305.847 0)
(-93.2762 312.362 0)
(-83.5613 312.794 0)
(-76.8691 309.746 0)
(-72.4248 303.905 0)
(-68.8125 296.553 0)
(-65.833 290.165 0)
(-62.4152 287.423 0)
(-58.8995 289.021 0)
(-55.6445 295.261 0)
(-50.4842 304.918 0)
(-44.2709 317.108 0)
(-36.093 328.919 0)
(-29.6932 340.968 0)
(-21.6703 352.2 0)
(-12.245 364.403 0)
(-2.10172 375.732 0)
(13.3821 385.897 0)
(34.576 397.123 0)
(63.3934 408.038 0)
(98.1159 422.387 0)
(136.695 436.944 0)
(196.37 456.05 0)
(280.925 470.29 0)
(417.489 480.316 0)
(654.383 485.948 0)
(-342.006 429.006 0)
(6434.79 871.947 0)
(-5153.69 27840.5 0)
(-462.076 1897.77 0)
(52.5892 1249.05 0)
(192.355 979.1 0)
(-0.144075 806.892 0)
(-131.43 727.885 0)
(-136.741 651.342 0)
(-156.645 602.963 0)
(-154.902 573.369 0)
(-145.908 559.829 0)
(-137.126 554.056 0)
(-125.644 543.102 0)
(-116.962 525.332 0)
(-108.13 499.918 0)
(-100.717 468.297 0)
(-93.4887 434.621 0)
(-87.9815 403.027 0)
(-82.2236 377.663 0)
(-74.5519 360.22 0)
(-64.3002 352.985 0)
(-53.3179 357.805 0)
(-44.0393 376.284 0)
(-34.5723 404.373 0)
(-25.2092 439.703 0)
(-14.3886 478.646 0)
(-5.73009 516.446 0)
(2.93159 551.88 0)
(11.7975 582.307 0)
(19.805 609.658 0)
(32.7599 631.638 0)
(51.5862 648.821 0)
(80.071 662.355 0)
(115.813 674.926 0)
(156.901 689.151 0)
(214.853 708.538 0)
(291.021 714.394 0)
(422.543 705.803 0)
(616.995 654.033 0)
(-20.7499 1502.9 0)
(5959.16 24144.5 0)
(13631.7 531423 0)
(-25637.6 25281.1 0)
(-968.592 1097.69 0)
(-149.204 293.383 0)
(-155.729 -22.945 0)
(-225.458 -147.259 0)
(-200.642 -249.525 0)
(-195.909 -266.946 0)
(-181.096 -279.353 0)
(-165.322 -272.065 0)
(-157.481 -266.449 0)
(-152.126 -271.441 0)
(-149.626 -286.533 0)
(-148.237 -308.398 0)
(-146.484 -337.559 0)
(-139.766 -369.556 0)
(-127.311 -401.244 0)
(-110.063 -428.737 0)
(-89.6141 -456.059 0)
(-64.7422 -481.451 0)
(-36.4476 -493.556 0)
(-10.7694 -488.947 0)
(10.6282 -477.11 0)
(27.3011 -463.427 0)
(37.8594 -449.69 0)
(40.8776 -438.066 0)
(41.7967 -437.019 0)
(43.4322 -433.102 0)
(45.4346 -438.353 0)
(51.1209 -442.507 0)
(64.1763 -456.123 0)
(88.549 -464.618 0)
(123.938 -471.838 0)
(169.085 -459.249 0)
(220.695 -426.781 0)
(278.289 -394.01 0)
(359.323 -357.036 0)
(1422.5 -177.368 0)
(22294.3 21495.1 0)
(-9503.22 461803 0)
(522080 -543917 0)
(-511503 -11795.5 0)
(-24026.5 5409.3 0)
(-887.529 5845.85 0)
(-424.762 6235.91 0)
(-349.771 6733.62 0)
(-252.075 7154.46 0)
(-185.388 7500.21 0)
(-159.834 7813.32 0)
(-133.473 8057.09 0)
(-136.525 8276.2 0)
(-144.997 8467.56 0)
(-152.575 8641.68 0)
(-157.301 8799.34 0)
(-159.651 8947.45 0)
(-154.858 9078.93 0)
(-145.01 9192.43 0)
(-135.046 9284.62 0)
(-125.35 9359.52 0)
(-100.434 9417.48 0)
(-60.5415 9461.79 0)
(-28.1905 9484 0)
(-9.97959 9471.75 0)
(1.21342 9432.87 0)
(10.05 9371.72 0)
(6.48027 9292.23 0)
(7.71534 9199.37 0)
(10.5114 9093.55 0)
(10.7419 8979.5 0)
(15.6366 8846.69 0)
(30.2792 8694.6 0)
(64.927 8497.32 0)
(120.986 8239.73 0)
(200.32 7908.18 0)
(277.72 7506.33 0)
(358.23 7060.64 0)
(631.308 6523.12 0)
(21674.5 6206.15 0)
(445160 -8448.77 0)
(-451087 -469746 0)
(522080 543917 0)
(-511503 11795.5 0)
(-24026.5 -5409.3 0)
(-887.529 -5845.85 0)
(-424.762 -6235.91 0)
(-349.771 -6733.62 0)
(-252.075 -7154.46 0)
(-185.388 -7500.21 0)
(-159.834 -7813.32 0)
(-133.473 -8057.09 0)
(-136.525 -8276.2 0)
(-144.997 -8467.56 0)
(-152.575 -8641.68 0)
(-157.301 -8799.34 0)
(-159.651 -8947.45 0)
(-154.858 -9078.93 0)
(-145.01 -9192.43 0)
(-135.046 -9284.62 0)
(-125.35 -9359.52 0)
(-100.434 -9417.48 0)
(-60.5415 -9461.79 0)
(-28.1905 -9484 0)
(-9.97958 -9471.75 0)
(1.21342 -9432.87 0)
(10.05 -9371.72 0)
(6.48027 -9292.23 0)
(7.71534 -9199.37 0)
(10.5114 -9093.55 0)
(10.7419 -8979.5 0)
(15.6366 -8846.69 0)
(30.2792 -8694.6 0)
(64.927 -8497.32 0)
(120.986 -8239.73 0)
(200.32 -7908.18 0)
(277.72 -7506.33 0)
(358.23 -7060.64 0)
(631.308 -6523.12 0)
(21674.5 -6206.15 0)
(445160 8448.77 0)
(-451087 469746 0)
(13631.7 -531423 0)
(-25637.6 -25281.1 0)
(-968.592 -1097.69 0)
(-149.204 -293.383 0)
(-155.729 22.945 0)
(-225.458 147.259 0)
(-200.642 249.525 0)
(-195.909 266.946 0)
(-181.096 279.353 0)
(-165.322 272.065 0)
(-157.481 266.449 0)
(-152.126 271.441 0)
(-149.626 286.533 0)
(-148.237 308.398 0)
(-146.484 337.559 0)
(-139.766 369.556 0)
(-127.311 401.244 0)
(-110.063 428.737 0)
(-89.6141 456.059 0)
(-64.7422 481.451 0)
(-36.4476 493.556 0)
(-10.7693 488.947 0)
(10.6282 477.11 0)
(27.3011 463.427 0)
(37.8594 449.69 0)
(40.8776 438.066 0)
(41.7967 437.019 0)
(43.4322 433.102 0)
(45.4346 438.353 0)
(51.1209 442.507 0)
(64.1763 456.123 0)
(88.549 464.618 0)
(123.938 471.838 0)
(169.085 459.249 0)
(220.695 426.781 0)
(278.289 394.01 0)
(359.323 357.036 0)
(1422.5 177.368 0)
(22294.3 -21495.1 0)
(-9503.22 -461803 0)
(-5153.69 -27840.5 0)
(-462.076 -1897.77 0)
(52.5892 -1249.05 0)
(192.355 -979.1 0)
(-0.144075 -806.892 0)
(-131.43 -727.885 0)
(-136.741 -651.342 0)
(-156.645 -602.963 0)
(-154.902 -573.369 0)
(-145.908 -559.829 0)
(-137.126 -554.056 0)
(-125.644 -543.102 0)
(-116.962 -525.332 0)
(-108.13 -499.918 0)
(-100.717 -468.297 0)
(-93.4887 -434.621 0)
(-87.9815 -403.027 0)
(-82.2236 -377.663 0)
(-74.5519 -360.22 0)
(-64.3002 -352.985 0)
(-53.318 -357.805 0)
(-44.0393 -376.284 0)
(-34.5723 -404.373 0)
(-25.2092 -439.703 0)
(-14.3886 -478.646 0)
(-5.73009 -516.446 0)
(2.93159 -551.88 0)
(11.7975 -582.307 0)
(19.805 -609.658 0)
(32.7599 -631.638 0)
(51.5862 -648.821 0)
(80.071 -662.355 0)
(115.813 -674.926 0)
(156.901 -689.151 0)
(214.853 -708.538 0)
(291.021 -714.394 0)
(422.543 -705.803 0)
(616.995 -654.033 0)
(-20.7499 -1502.9 0)
(5959.16 -24144.5 0)
(-5852.46 -1151.49 0)
(-13.1172 -386.787 0)
(-83.3286 -537.876 0)
(276.872 -508.081 0)
(86.3509 -409.391 0)
(-75.5647 -372.013 0)
(-80.2614 -317.916 0)
(-120.772 -280.009 0)
(-139.531 -257.412 0)
(-146.711 -260.384 0)
(-141.363 -275.692 0)
(-124.446 -293.499 0)
(-108.013 -305.847 0)
(-93.2762 -312.362 0)
(-83.5613 -312.794 0)
(-76.8691 -309.746 0)
(-72.4248 -303.905 0)
(-68.8125 -296.553 0)
(-65.833 -290.165 0)
(-62.4152 -287.423 0)
(-58.8995 -289.021 0)
(-55.6445 -295.261 0)
(-50.4842 -304.918 0)
(-44.2709 -317.108 0)
(-36.093 -328.919 0)
(-29.6932 -340.968 0)
(-21.6703 -352.2 0)
(-12.245 -364.403 0)
(-2.10172 -375.732 0)
(13.3821 -385.897 0)
(34.576 -397.123 0)
(63.3934 -408.038 0)
(98.1159 -422.387 0)
(136.695 -436.944 0)
(196.37 -456.05 0)
(280.925 -470.29 0)
(417.489 -480.316 0)
(654.383 -485.948 0)
(-342.006 -429.006 0)
(6434.79 -871.947 0)
(-6495.72 -520.354 0)
(129.227 -287.981 0)
(-64.2939 -271.542 0)
(316.168 -260.97 0)
(130.976 -218.165 0)
(-43.282 -192.605 0)
(-48.0824 -160.4 0)
(-98.3409 -129.995 0)
(-135.99 -111.541 0)
(-163.523 -120.298 0)
(-169.037 -145.148 0)
(-154.702 -178.999 0)
(-135.139 -214.175 0)
(-114.825 -244.447 0)
(-98.1957 -267.699 0)
(-84.9231 -285.219 0)
(-75.2686 -298.317 0)
(-68.983 -308.32 0)
(-65.7538 -316.061 0)
(-63.1978 -321.365 0)
(-60.8705 -323.284 0)
(-59.358 -321.859 0)
(-55.625 -318.912 0)
(-48.3378 -315.77 0)
(-37.3814 -311.74 0)
(-28.1645 -307.93 0)
(-19.6514 -302.906 0)
(-10.8789 -299.806 0)
(-0.907316 -296.096 0)
(12.1467 -292.977 0)
(30.2508 -292.02 0)
(55.7263 -293.2 0)
(87.9576 -298.629 0)
(124.462 -305.461 0)
(182.72 -315.595 0)
(267.637 -327.317 0)
(407.455 -340.147 0)
(666.439 -349.562 0)
(-392.713 -327.764 0)
(7044.86 -431.256 0)
(-6850.28 -287.757 0)
(226.647 -135.102 0)
(-57.2998 -118.901 0)
(328.308 -120.389 0)
(152.23 -108.229 0)
(-19.9003 -90.6625 0)
(-19.928 -72.2889 0)
(-73.6897 -43.2559 0)
(-130.186 -18.5982 0)
(-179.096 -17.5654 0)
(-197.93 -39.4672 0)
(-190.963 -77.245 0)
(-171.08 -115.622 0)
(-144.854 -150.243 0)
(-122.851 -177.611 0)
(-106.373 -198.694 0)
(-94.6858 -215.642 0)
(-85.9114 -229.264 0)
(-78.4033 -239.216 0)
(-69.3759 -245.113 0)
(-59.3761 -247.513 0)
(-51.4312 -246.45 0)
(-44.6165 -242.229 0)
(-37.3602 -236.338 0)
(-28.5381 -230.417 0)
(-21.1802 -225.948 0)
(-13.8415 -221.466 0)
(-5.6824 -217.886 0)
(4.47909 -213.964 0)
(17.3095 -210.351 0)
(34.3612 -206.668 0)
(57.0252 -204.323 0)
(86.3003 -205.132 0)
(120.346 -207.779 0)
(175.309 -213.149 0)
(257.266 -220.512 0)
(396.053 -231.497 0)
(666.316 -247 0)
(-420.729 -247.086 0)
(7501.68 -306.509 0)
(-6994.13 -92.7007 0)
(291.943 -8.56 0)
(-50.1161 20.9535 0)
(326.452 12.4699 0)
(159.621 -6.54341 0)
(-8.64858 0.573416 0)
(-2.39976 2.20835 0)
(-46.6026 20.4162 0)
(-111.234 46.2834 0)
(-183.633 63.8794 0)
(-226.546 52.7168 0)
(-228.088 13.3655 0)
(-205.482 -31.7748 0)
(-174.559 -69.9719 0)
(-144.885 -99.6287 0)
(-121.571 -120.596 0)
(-104.727 -134.371 0)
(-91.6999 -143.31 0)
(-81.0256 -148.687 0)
(-71.1936 -151.705 0)
(-62.1595 -154.001 0)
(-54.2659 -155.81 0)
(-45.8805 -156.426 0)
(-36.9554 -155.811 0)
(-27.3695 -154.526 0)
(-19.5385 -153.21 0)
(-11.8827 -151.263 0)