/*--------------------------------*- C++ -*----------------------------------*\
| =========                 |                                                 |
| \\      /  F ield         | OpenFOAM: The Open Source CFD Toolbox           |
|  \\    /   O peration     | Version:  v1912                                 |
|   \\  /    A nd           | Website:  www.openfoam.com                      |
|    \\/     M anipulation  |                                                 |
\*---------------------------------------------------------------------------*/
FoamFile
{
    version     2.0;
    format      ascii;
    class       volScalarField;
    location    "1.9";
    object      Ma;
}
// * * * * * * * * * * * * * * * * * * * * * * * * * * * * * * * * * * * * * //

dimensions      [0 0 0 0 0 0 0];


internalField   nonuniform List<scalar> 
1900
(
0.0835996
0.0436342
0.049056
0.0493814
0.0500491
0.0504746
0.0511978
0.0530911
0.0554707
0.0515731
0.0836021
0.0436364
0.0490773
0.0494061
0.0500675
0.0503982
0.0507519
0.0522358
0.0554484
0.0593789
0.0836035
0.0436382
0.0490864
0.0494159
0.0500553
0.0503155
0.0505866
0.0521276
0.0557532
0.062664
0.0836021
0.0436364
0.0490773
0.0494061
0.0500675
0.0503982
0.0507519
0.0522358
0.0554484
0.0593789
0.0835996
0.0436342
0.049056
0.0493814
0.0500491
0.0504746
0.0511978
0.0530911
0.0554707
0.0515731
0.059456
0.0796396
0.10278
0.138442
0.231439
0.0723282
0.0916882
0.119943
0.171666
0.265207
0.0755334
0.0935623
0.123373
0.178569
0.271002
0.0723282
0.0916882
0.119943
0.171666
0.265207
0.059456
0.0796396
0.10278
0.138442
0.231439
0.267771
0.230315
0.213789
0.215606
0.314281
0.279254
0.238384
0.207761
0.176755
0.173291
0.285819
0.241102
0.202371
0.148
0.0438216
0.279254
0.238384
0.207761
0.176755
0.173291
0.267771
0.230315
0.213789
0.215606
0.314281
0.567471
0.19319
0.261961
0.314958
0.354575
0.36798
0.358181
0.331233
0.296107
0.253632
0.207894
0.161313
0.115905
0.0737426
0.0379905
0.0133451
0.00239124
0.000147266
2.03919e-06
8.4683e-08
8.46844e-08
2.57337e-06
0.0001737
0.00269206
0.0145832
0.0408266
0.0786585
0.123471
0.172465
0.224268
0.278108
0.333374
0.389411
0.445251
0.499233
0.5487
0.59263
0.633624
0.766166
1.58374
0.120722
0.213044
0.131489
0.272148
0.348432
0.365756
0.358313
0.331255
0.295951
0.253441
0.207763
0.161228
0.115846
0.0736988
0.0379609
0.0133312
0.00238808
0.000147292
2.05081e-06
3.22873e-08
3.24755e-08
2.57219e-06
0.0001737
0.00269206
0.0145832
0.0408266
0.0786585
0.123471
0.172465
0.224268
0.278108
0.333374
0.389411
0.445251
0.499233
0.5487
0.59263
0.633624
0.766166
1.58374
0.195346
0.283507
0.0206038
0.250462
0.346714
0.365186
0.358409
0.331195
0.295881
0.253379
0.207723
0.161203
0.115829
0.0736866
0.0379517
0.0133261
0.00238676
0.000147236
2.05402e-06
3.85935e-09
5.44401e-09
2.572e-06
0.0001737
0.00269206
0.0145832
0.0408266
0.0786585
0.123471
0.172465
0.224268
0.278108
0.333374
0.389411
0.445251
0.499233
0.5487
0.59263
0.633624
0.766166
1.58374
0.120722
0.213044
0.131489
0.272148
0.348432
0.365756
0.358313
0.331255
0.295951
0.253441
0.207763
0.161228
0.115846
0.0736988
0.0379609
0.0133312
0.00238808
0.000147292
2.05082e-06
3.22876e-08
3.24717e-08
2.57219e-06
0.0001737
0.00269206
0.0145832
0.0408266
0.0786585
0.123471
0.172465
0.224268
0.278108
0.333374
0.389411
0.445251
0.499233
0.5487
0.59263
0.633624
0.766166
1.58374
0.567471
0.19319
0.261961
0.314958
0.354575
0.36798
0.358181
0.331233
0.296107
0.253632
0.207894
0.161313
0.115905
0.0737426
0.0379905
0.0133451
0.00239124
0.000147266
2.03921e-06
8.46836e-08
8.46792e-08
2.57337e-06
0.0001737
0.00269206
0.0145832
0.0408266
0.0786585
0.123471
0.172465
0.224268
0.278108
0.333374
0.389411
0.445251
0.499233
0.5487
0.59263
0.633624
0.766166
1.58374
1.37195
0.527699
0.431663
0.379703
0.374907
0.375595
0.360413
0.332685
0.296971
0.254251
0.208296
0.161572
0.116078
0.0738694
0.0380921
0.0134109
0.00241231
0.000150016
2.14414e-06
2.41494e-07
2.41396e-07
2.58333e-06
0.0001737
0.00269206
0.0145832
0.0408266
0.0786585
0.123471
0.172465
0.224268
0.278108
0.333374
0.389411
0.445251
0.499233
0.5487
0.59263
0.633624
0.766166
1.58374
1.61721
0.718409
0.554294
0.449783
0.41329
0.391147
0.369869
0.338028
0.299792
0.255889
0.209312
0.162261
0.11659
0.074274
0.0383935
0.0135829
0.00246687
0.000158495
2.99717e-05
2.98542e-05
2.98541e-05
2.99646e-05
0.000176246
0.00269221
0.0145832
0.0408265
0.0786583
0.123471
0.172464
0.224268
0.278108
0.333374
0.389411
0.445251
0.499233
0.5487
0.59263
0.633624
0.766165
1.58374
1.62658
0.751769
0.587939
0.488386
0.444194
0.412179
0.382012
0.345708
0.303965
0.258412
0.210942
0.163443
0.117516
0.0750022
0.0389108
0.0138792
0.00269241
0.000880372
0.000862497
0.00086245
0.00086245
0.000862454
0.000879726
0.0028262
0.0146068
0.0408321
0.0786583
0.123468
0.172461
0.224265
0.278105
0.333372
0.38941
0.445251
0.499234
0.548703
0.592632
0.633619
0.766162
1.58374
1.62137
0.761261
0.602974
0.518045
0.470209
0.433028
0.395465
0.354631
0.309651
0.262063
0.213438
0.165269
0.118943
0.0762114
0.0401327
0.0158772
0.00766206
0.00718289
0.00717908
0.00717905
0.00717905
0.00717905
0.00718094
0.00766233
0.0162304
0.0414117
0.0789329
0.123621
0.172556
0.22433
0.278156
0.333417
0.389454
0.445297
0.499288
0.548775
0.592696
0.633556
0.76611
1.58378
1.60808
0.762543
0.609739
0.538916
0.491222
0.450994
0.408507
0.363636
0.315937
0.266671
0.217173
0.168738
0.122666
0.0809392
0.047665
0.0297593
0.0262169
0.0260746
0.0260735
0.0260735
0.0260735
0.0260735
0.0260735
0.0262018
0.0297966
0.0482493
0.0826026
0.125894
0.174115
0.225479
0.279054
0.334157
0.390092
0.445875
0.499858
0.549385
0.593251
0.633418
0.765937
1.5844
1.59687
0.760865
0.614982
0.555257
0.509868
0.466919
0.421635
0.37415
0.324721
0.274641
0.225215
0.177738
0.133847
0.0964012
0.0704776
0.0597704
0.0581019
0.0580443
0.0580444
0.0580444
0.0580444
0.0580444
0.0580438
0.0580917
0.0597324
0.0705859
0.0971187
0.135647
0.18112
0.230806
0.283293
0.33766
0.393085
0.448529
0.502358
0.551838
0.595556
0.63398
0.76618
1.5874
1.6032
0.764128
0.622255
0.572325
0.530177
0.48517
0.437957
0.388599
0.338316
0.288468
0.240386
0.195557
0.15606
0.125091
0.106337
0.0996279
0.0986813
0.0986573
0.0986581
0.0986581
0.0986581
0.0986581
0.0986572
0.0986768
0.0995936
0.106283
0.125223
0.156743
0.197204
0.243475
0.293608
0.346312
0.400543
0.455147
0.508531
0.557689
0.60117
0.637172
0.768545
1.59435
1.60761
0.771914
0.635997
0.592146
0.552213
0.505982
0.45762
0.407447
0.357418
0.308915
0.263372
0.222424
0.188202
0.163305
0.149502
0.144922
0.144323
0.144315
0.144316
0.144316
0.144316
0.144316
0.144315
0.144322
0.144906
0.149439
0.163227
0.188264
0.22289
0.264582
0.311269
0.361403
0.413701
0.466903
0.519449
0.567898
0.610814
0.645137
0.775217
1.60444
1.61804
0.78617
0.65396
0.613879
0.575719
0.529072
0.480364
0.430573
0.381849
0.335654
0.293408
0.256771
0.227558
0.207462
0.19692
0.193583
0.193173
0.193173
0.193174
0.193174
0.193174
0.193174
0.193173
0.193174
0.193582
0.196889
0.207371
0.227423
0.256689
0.293548
0.33624
0.383161
0.432997
0.484225
0.53552
0.582947
0.62478
0.658935
0.787569
1.61638
1.62856
0.804794
0.675753
0.638318
0.600901
0.554476
0.506502
0.457758
0.411305
0.367935
0.329355
0.296906
0.271988
0.255507
0.247165
0.244605
0.244302
0.244304
0.244305
0.244305
0.244305
0.244305
0.244304
0.244304
0.24461
0.247161
0.255463
0.271873
0.296715
0.329126
0.367751
0.411303
0.458142
0.507357
0.556715
0.60287
0.643936
0.678681
0.805138
1.62679
1.64092
0.827929
0.702859
0.666402
0.627417
0.58321
0.535626
0.489602
0.445188
0.405201
0.37013
0.341467
0.320033
0.306235
0.299411
0.297355
0.297114
0.297114
0.297115
0.297115
0.297115
0.297115
0.297114
0.297115
0.297361
0.29942
0.306231
0.319985
0.34134
0.369901
0.404879
0.444795
0.489251
0.535238
0.583451
0.627053
0.66854
0.704091
0.827824
1.64007
1.6478
0.854816
0.735588
0.697508
0.657302
0.614026
0.570038
0.524365
0.483905
0.446349
0.414765
0.389233
0.37057
0.358758
0.353002
0.351281
0.351073
0.351071
0.351071
0.351071
0.351071
0.351071
0.351071
0.351073
0.351285
0.353012
0.358771
0.370571
0.389195
0.414658
0.446142
0.483591
0.523909
0.569509
0.613496
0.656446
0.697823
0.735242
0.854217
1.64624
1.66198
0.886251
0.77054
0.732503
0.688474
0.650957
0.604459
0.565244
0.52481
0.491196
0.461978
0.439142
0.422569
0.41222
0.407218
0.405722
0.405531
0.405527
0.405527
0.405527
0.405527
0.405527
0.405527
0.405531
0.405724
0.407225
0.412235
0.42259
0.439158
0.461972
0.491139
0.524677
0.565019
0.604108
0.650538
0.687815
0.732308
0.769983
0.885667
1.66136
1.66352
0.916969
0.807336
0.767201
0.72463
0.684457
0.646724
0.604221
0.569925
0.537107
0.510756
0.489771
0.474804
0.465476
0.460981
0.459625
0.459439
0.459433
0.459433
0.459433
0.459433
0.459433
0.459433
0.459439
0.459625
0.460983
0.465486
0.474824
0.489803
0.510794
0.537137
0.569941
0.604176
0.646661
0.684241
0.724423
0.767041
0.807036
0.916688
1.66314
1.67771
0.955693
0.848186
0.809061
0.761044
0.727662
0.684195
0.649505
0.613646
0.58425
0.559174
0.539719
0.525642
0.516866
0.512617
0.511305
0.51111
0.5111
0.5111
0.5111
0.5111
0.5111
0.5111
0.51111
0.511305
0.512617
0.516869
0.525654
0.539744
0.559214
0.584306
0.613717
0.64957
0.684269
0.727681
0.761094
0.809088
0.848208
0.955683
1.67767
1.67128
0.982294
0.88222
0.842398
0.795007
0.759814
0.722407
0.686067
0.654751
0.626379
0.603281
0.585023
0.572078
0.563961
0.559925
0.558606
0.558378
0.558362
0.558362
0.558362
0.558362
0.558362
0.558362
0.558378
0.558606
0.559924
0.563961
0.572083
0.585035
0.603307
0.626422
0.654814
0.686148
0.722511
0.759924
0.795146
0.842533
0.882418
0.982468
1.6714
1.67227
1.02578
0.92894
0.891293
0.84235
0.806773
0.765014
0.72905
0.695081
0.666493
0.643461
0.626309
0.614124
0.606373
0.602559
0.601332
0.601125
0.601111
0.60111
0.60111
0.60111
0.60111
0.601111
0.601125
0.601332
0.602559
0.606373
0.614124
0.626312
0.64347
0.666513
0.695113
0.729096
0.765079
0.806844
0.842437
0.891375
0.929057
1.02589
1.67238
1.63793
1.04482
0.959539
0.927307
0.88091
0.844678
0.804299
0.766288
0.732367
0.702205
0.678355
0.660421
0.648797
0.642968
0.641197
0.641145
0.641271
0.641292
0.641293
0.641293
0.641293
0.641293
0.641292
0.641271
0.641145
0.641197
0.642967
0.648796
0.660421
0.678358
0.702214
0.732383
0.766316
0.804335
0.84473
0.880965
0.927377
0.95963
1.04491
1.63799
1.69212
1.12883
1.04326
1.02324
0.979966
0.951531
0.91332
0.881525
0.85099
0.825343
0.803972
0.787958
0.777631
0.772677
0.771297
0.771314
0.771421
0.771436
0.771437
0.771437
0.771437
0.771437
0.771436
0.771421
0.771314
0.771297
0.772677
0.77763
0.787957
0.803972
0.825346
0.850997
0.881542
0.913347
0.951574
0.980023
1.02331
1.04335
1.12891
1.69214
2.28624
1.69547
1.64072
1.67484
1.67395
1.68028
1.6657
1.66374
1.64872
1.64173
1.62854
1.61751
1.60604
1.59716
1.59214
1.59057
1.59037
1.59036
1.59036
1.59036
1.59036
1.59036
1.59036
1.59037
1.59057
1.59214
1.59716
1.60604
1.61751
1.62854
1.64173
1.64872
1.66374
1.6657
1.68028
1.67395
1.67484
1.64072
1.69547
2.28624
2.28624
1.69547
1.64072
1.67484
1.67395
1.68028
1.6657
1.66374
1.64872
1.64173
1.62854
1.61751
1.60604
1.59716
1.59214
1.59057
1.59037
1.59036
1.59036
1.59036
1.59036
1.59036
1.59036
1.59037
1.59057
1.59214
1.59716
1.60604
1.61751
1.62854
1.64173
1.64872
1.66374
1.6657
1.68028
1.67395
1.67484
1.64072
1.69547
2.28624
1.69212
1.12883
1.04326
1.02324
0.979966
0.951531
0.91332
0.881525
0.85099
0.825343
0.803972
0.787958
0.777631
0.772677
0.771297
0.771314
0.771421
0.771436
0.771437
0.771437
0.771437
0.771437
0.771436
0.771421
0.771314
0.771297
0.772677
0.77763
0.787957
0.803972
0.825346
0.850997
0.881542
0.913347
0.951574
0.980023
1.02331
1.04335
1.12891
1.69214
1.63793
1.04482
0.959539
0.927307
0.88091
0.844678
0.804299
0.766288
0.732367
0.702205
0.678355
0.660421
0.648797
0.642968
0.641197
0.641145
0.641271
0.641292
0.641293
0.641293
0.641293
0.641293
0.641292
0.641271
0.641145
0.641197
0.642967
0.648796
0.660421
0.678358
0.702214
0.732383
0.766316
0.804335
0.84473
0.880965
0.927377
0.95963
1.04491
1.63799
1.67227
1.02578
0.92894
0.891293
0.84235
0.806773
0.765014
0.72905
0.695081
0.666493
0.643461
0.626309
0.614124
0.606373
0.602559
0.601332
0.601125
0.601111
0.60111
0.60111
0.60111
0.60111
0.601111
0.601125
0.601332
0.602559
0.606373
0.614124
0.626312
0.64347
0.666513
0.695113
0.729096
0.765079
0.806844
0.842437
0.891375
0.929057
1.02589
1.67238
1.67128
0.982294
0.88222
0.842398
0.795007
0.759814
0.722407
0.686067
0.654751
0.626379
0.603281
0.585023
0.572078
0.563961
0.559925
0.558606
0.558378
0.558362
0.558362
0.558362
0.558362
0.558362
0.558362
0.558378
0.558606
0.559924
0.563961
0.572083
0.585035
0.603307
0.626422
0.654814
0.686148
0.722511
0.759924
0.795146
0.842533
0.882418
0.982468
1.6714
1.67771
0.955693
0.848186
0.809061
0.761044
0.727662
0.684195
0.649505
0.613646
0.58425
0.559174
0.539719
0.525642
0.516866
0.512617
0.511305
0.51111
0.5111
0.5111
0.5111
0.5111
0.5111
0.5111
0.51111
0.511305
0.512617
0.516869
0.525654
0.539744
0.559214
0.584306
0.613717
0.64957
0.684269
0.727681
0.761094
0.809088
0.848208
0.955683
1.67767
1.66352
0.916969
0.807336
0.767201
0.72463
0.684457
0.646724
0.604221
0.569925
0.537107
0.510756
0.489771
0.474804
0.465476
0.460981
0.459625
0.459439
0.459433
0.459433
0.459433
0.459433
0.459433
0.459433
0.459439
0.459625
0.460983
0.465486
0.474824
0.489803
0.510794
0.537137
0.569941
0.604176
0.646661
0.684241
0.724423
0.767041
0.807036
0.916688
1.66314
1.66198
0.886251
0.77054
0.732503
0.688474
0.650957
0.604459
0.565244
0.52481
0.491196
0.461978
0.439142
0.422569
0.41222
0.407218
0.405722
0.405531
0.405527
0.405527
0.405527
0.405527
0.405527
0.405527
0.405531
0.405724
0.407225
0.412235
0.42259
0.439158
0.461972
0.491139
0.524677
0.565019
0.604108
0.650538
0.687815
0.732308
0.769983
0.885667
1.66136
1.6478
0.854816
0.735588
0.697508
0.657302
0.614026
0.570038
0.524365
0.483905
0.446349
0.414765
0.389233
0.37057
0.358758
0.353002
0.351281
0.351073
0.351071
0.351071
0.351071
0.351071
0.351071
0.351071
0.351073
0.351285
0.353012
0.358771
0.370571
0.389195
0.414658
0.446142
0.483591
0.523909
0.569509
0.613496
0.656446
0.697823
0.735242
0.854217
1.64624
1.64092
0.827929
0.702859
0.666402
0.627417
0.58321
0.535626
0.489602
0.445188
0.405201
0.37013
0.341467
0.320033
0.306235
0.299411
0.297355
0.297114
0.297114
0.297115
0.297115
0.297115
0.297115
0.297114
0.297115
0.297361
0.29942
0.306231
0.319985
0.34134
0.369901
0.404879
0.444795
0.489251
0.535238
0.583451
0.627053
0.66854
0.704091
0.827824
1.64007
1.62856
0.804794
0.675753
0.638318
0.600901
0.554476
0.506502
0.457758
0.411305
0.367935
0.329355
0.296906
0.271988
0.255507
0.247165
0.244605
0.244302
0.244304
0.244305
0.244305
0.244305
0.244305
0.244304
0.244304
0.24461
0.247161
0.255463
0.271873
0.296715
0.329126
0.367751
0.411303
0.458142
0.507357
0.556715
0.60287
0.643936
0.678681
0.805138
1.62679
1.61804
0.78617
0.65396
0.613879
0.575719
0.529072
0.480364
0.430573
0.381849
0.335654
0.293408
0.256771
0.227558
0.207462
0.19692
0.193583
0.193173
0.193173
0.193174
0.193174
0.193174
0.193174
0.193173
0.193174
0.193582
0.196889
0.207371
0.227423
0.256689
0.293548
0.33624
0.383161
0.432997
0.484225
0.53552
0.582947
0.62478
0.658935
0.787569
1.61638
1.60761
0.771914
0.635997
0.592146
0.552213
0.505982
0.45762
0.407447
0.357418
0.308915
0.263372
0.222424
0.188202
0.163305
0.149502
0.144922
0.144323
0.144315
0.144316
0.144316
0.144316
0.144316
0.144315
0.144322
0.144906
0.149439
0.163227
0.188264
0.22289
0.264582
0.311269
0.361403
0.413701
0.466903
0.519449
0.567898
0.610814
0.645137
0.775217
1.60444
1.6032
0.764128
0.622255
0.572325
0.530177
0.48517
0.437957
0.388599
0.338316
0.288468
0.240386
0.195557
0.15606
0.125091
0.106337
0.0996279
0.0986813
0.0986573
0.0986581
0.0986581
0.0986581
0.0986581
0.0986572
0.0986768
0.0995936
0.106283
0.125223
0.156743
0.197204
0.243475
0.293608
0.346312
0.400543
0.455147
0.508531
0.557689
0.60117
0.637172
0.768545
1.59435
1.59687
0.760865
0.614982
0.555257
0.509868
0.466919
0.421635
0.37415
0.324721
0.274641
0.225215
0.177738
0.133847
0.0964012
0.0704776
0.0597704
0.0581019
0.0580443
0.0580444
0.0580444
0.0580444
0.0580444
0.0580438
0.0580917
0.0597324
0.0705859
0.0971187
0.135647
0.18112
0.230806
0.283293
0.33766
0.393085
0.448529
0.502358
0.551838
0.595556
0.63398
0.76618
1.5874
1.60808
0.762543
0.609739
0.538916
0.491222
0.450994
0.408507
0.363636
0.315937
0.266671
0.217173
0.168738
0.122666
0.0809392
0.047665
0.0297593
0.0262169
0.0260746
0.0260735
0.0260735
0.0260735
0.0260735
0.0260735
0.0262018
0.0297966
0.0482493
0.0826026
0.125894
0.174115
0.225479
0.279054
0.334157
0.390092
0.445875
0.499858
0.549385
0.593251
0.633418
0.765937
1.5844
1.62137
0.761261
0.602974
0.518045
0.470209
0.433028
0.395465
0.354631
0.309651
0.262063
0.213438
0.165269
0.118943
0.0762114
0.0401327
0.0158772
0.00766206
0.00718289
0.00717908
0.00717905
0.00717905
0.00717905
0.00718094
0.00766233
0.0162304
0.0414117
0.0789329
0.123621
0.172556
0.22433
0.278156
0.333417
0.389454
0.445297
0.499288
0.548775
0.592696
0.633556
0.76611
1.58378
1.62658
0.751769
0.587939
0.488386
0.444194
0.412179
0.382012
0.345708
0.303965
0.258412
0.210942
0.163443
0.117516
0.0750022
0.0389108
0.0138792
0.00269241
0.000880372
0.000862497
0.00086245
0.00086245
0.000862454
0.000879726
0.0028262
0.0146068
0.0408321
0.0786583
0.123468
0.172461
0.224265
0.278105
0.333372
0.38941
0.445251
0.499234
0.548703
0.592632
0.633619
0.766162
1.58374
1.61721
0.718409
0.554294
0.449783
0.41329
0.391147
0.369869
0.338028
0.299792
0.255889
0.209312
0.162261
0.11659
0.074274
0.0383935
0.0135829
0.00246687
0.000158495
2.99716e-05
2.98542e-05
2.98541e-05
2.99646e-05
0.000176246
0.00269221
0.0145832
0.0408265
0.0786583
0.123471
0.172464
0.224268
0.278108
0.333374
0.389411
0.445251
0.499233
0.5487
0.59263
0.633624
0.766165
1.58374
1.37195
0.527699
0.431663
0.379703
0.374907
0.375595
0.360413
0.332685
0.296971
0.254251
0.208296
0.161572
0.116078
0.0738694
0.0380921
0.0134109
0.00241231
0.000150016
2.14415e-06
2.41494e-07
2.414e-07
2.58333e-06
0.0001737
0.00269206
0.0145832
0.0408266
0.0786585
0.123471
0.172465
0.224268
0.278108
0.333374
0.389411
0.445251
0.499233
0.5487
0.59263
0.633624
0.766166
1.58374
)
;

boundaryField
{
    inlet
    {
        type            calculated;
        value           uniform 0;
    }
    outlet
    {
        type            calculated;
        value           nonuniform List<scalar> 
165
(
1.37195
1.61721
1.62658
1.62137
1.60808
1.59687
1.6032
1.60761
1.61804
1.62856
1.64092
1.6478
1.66198
1.66352
1.67771
1.67128
1.67227
1.63793
1.69212
2.28624
2.28624
1.69547
1.64072
1.67484
1.67395
1.68028
1.6657
1.66374
1.64872
1.64173
1.62854
1.61751
1.60604
1.59716
1.59214
1.59057
1.59037
1.59036
1.59036
1.59036
1.59036
1.59036
1.59036
1.59037
1.59057
1.59214
1.59716
1.60604
1.61751
1.62854
1.64173
1.64872
1.66374
1.6657
1.68028
1.67395
1.67484
1.64072
1.69547
2.28624
1.58374
1.58374
1.58374
1.58378
1.5844
1.5874
1.59435
1.60444
1.61638
1.62679
1.64007
1.64624
1.66136
1.66314
1.67767
1.6714
1.67238
1.63799
1.69214
2.28624
1.58374
1.58374
1.58374
1.58374
1.58374
2.28624
1.69214
1.63799
1.67238
1.6714
1.67767
1.66314
1.66136
1.64624
1.64007
1.62679
1.61638
1.60444
1.59435
1.5874
1.5844
1.58378
1.58374
1.58374
1.58374
2.28624
1.69547
1.64072
1.67484
1.67395
1.68028
1.6657
1.66374
1.64872
1.64173
1.62854
1.61751
1.60604
1.59716
1.59214
1.59057
1.59037
1.59036
1.59036
1.59036
1.59036
1.59036
1.59036
1.59037
1.59057
1.59214
1.59716
1.60604
1.61751
1.62854
1.64173
1.64872
1.66374
1.6657
1.68028
1.67395
1.67484
1.64072
1.69547
2.28624
2.28624
1.69212
1.63793
1.67227
1.67128
1.67771
1.66352
1.66198
1.6478
1.64092
1.62856
1.61804
1.60761
1.6032
1.59687
1.60808
1.62137
1.62658
1.61721
1.37195
)
;
    }
    obstacle
    {
        type            calculated;
        value           nonuniform List<scalar> 
40
(
0.0835996
0.0436342
0.049056
0.0493814
0.0500491
0.0504745
0.0511975
0.0530905
0.0554284
0.0507606
0.0835996
0.0436342
0.049056
0.0493814
0.0500491
0.0504745
0.0511975
0.0530905
0.0554284
0.0507606
0.0588857
0.0788534
0.102415
0.137975
0.21928
0.0588857
0.0788534
0.102415
0.137975
0.21928
0.267199
0.230241
0.213774
0.214887
0.307319
0.267199
0.230241
0.213774
0.214887
0.307319
)
;
    }
    empty
    {
        type            empty;
    }
}


// ************************************************************************* //
