/*--------------------------------*- C++ -*----------------------------------*\
| =========                 |                                                 |
| \\      /  F ield         | OpenFOAM: The Open Source CFD Toolbox           |
|  \\    /   O peration     | Version:  v1912                                 |
|   \\  /    A nd           | Website:  www.openfoam.com                      |
|    \\/     M anipulation  |                                                 |
\*---------------------------------------------------------------------------*/
FoamFile
{
    version     2.0;
    format      ascii;
    class       volTensorField;
    location    "4.76";
    object      grad(U);
}
// * * * * * * * * * * * * * * * * * * * * * * * * * * * * * * * * * * * * * //

dimensions      [0 0 -1 0 0 0 0];


internalField   nonuniform List<tensor> 
1900
(
(-4.7552 8.83739e-06 0 4.79222e-06 1.85723e-05 0 0 0 0)
(4.27123 -4.88392e-05 0 -1.23398e-05 1.28793e-05 0 0 0 0)
(0.417895 -8.89533e-05 0 -3.18246e-05 -0.000119154 0 0 0 0)
(0.0721714 -0.000130453 0 -0.000172479 -0.000220122 0 0 0 0)
(0.112779 -0.000310041 0 -0.000361728 -0.000455244 0 0 0 0)
(0.132843 -0.000177759 0 -0.000988388 -0.000918277 0 0 0 0)
(0.136646 0.00148968 0 -0.00220664 -0.000746262 0 0 0 0)
(0.120944 0.00826266 0 -0.000754463 0.00149668 0 0 0 0)
(0.0577053 0.0353623 0 0.00761781 0.0188443 0 0 0 0)
(0.0467444 0.122565 0 0.0582174 0.0764704 0 0 0 0)
(-4.75521 2.26142e-05 0 7.36194e-06 -4.4814e-06 0 0 0 0)
(4.27119 -8.88869e-05 0 -2.3658e-05 -4.35599e-06 0 0 0 0)
(0.417735 -0.000144048 0 -7.71061e-05 4.43578e-05 0 0 0 0)
(0.0718415 -0.000205636 0 -0.000287234 8.45973e-05 0 0 0 0)
(0.111963 -0.000388114 0 -0.000561704 0.000174811 0 0 0 0)
(0.130998 -0.000113259 0 -0.00135499 0.000394638 0 0 0 0)
(0.13688 0.000925276 0 -0.0025304 0.000352571 0 0 0 0)
(0.130768 0.0113279 0 0.000200807 -0.00109505 0 0 0 0)
(0.116677 0.0396114 0 0.0128223 -0.00791009 0 0 0 0)
(0.141006 0.0960954 0 0.0810566 -0.0364574 0 0 0 0)
(-4.75522 -6.17369e-13 0 -3.46945e-13 -2.81817e-05 0 0 0 0)
(4.27114 -2.04658e-13 0 -7.46744e-14 -1.70466e-05 0 0 0 0)
(0.417632 8.52423e-13 0 -1.52669e-13 0.000149592 0 0 0 0)
(0.0716868 4.28044e-13 0 -3.00434e-13 0.00027105 0 0 0 0)
(0.111712 -6.82439e-13 0 8.88029e-14 0.000560865 0 0 0 0)
(0.130874 1.30436e-13 0 1.26581e-13 0.00104728 0 0 0 0)
(0.138202 1.99612e-13 0 1.04693e-13 0.000787382 0 0 0 0)
(0.136297 -1.76718e-14 0 1.11808e-14 -0.000803273 0 0 0 0)
(0.138561 -5.67187e-14 0 5.27193e-14 -0.0218684 0 0 0 0)
(0.176708 1.24121e-13 0 -5.01444e-14 -0.0800262 0 0 0 0)
(-4.75521 -2.26142e-05 0 -7.36194e-06 -4.4814e-06 0 0 0 0)
(4.27119 8.88869e-05 0 2.3658e-05 -4.35599e-06 0 0 0 0)
(0.417735 0.000144048 0 7.71061e-05 4.43578e-05 0 0 0 0)
(0.0718415 0.000205636 0 0.000287234 8.45973e-05 0 0 0 0)
(0.111963 0.000388114 0 0.000561704 0.000174811 0 0 0 0)
(0.130998 0.000113259 0 0.00135499 0.000394638 0 0 0 0)
(0.13688 -0.000925276 0 0.0025304 0.000352571 0 0 0 0)
(0.130768 -0.0113279 0 -0.000200807 -0.00109505 0 0 0 0)
(0.116677 -0.0396114 0 -0.0128223 -0.00791009 0 0 0 0)
(0.141006 -0.0960954 0 -0.0810566 -0.0364574 0 0 0 0)
(-4.7552 -8.83739e-06 0 -4.79222e-06 1.85723e-05 0 0 0 0)
(4.27123 4.88392e-05 0 1.23398e-05 1.28793e-05 0 0 0 0)
(0.417895 8.89533e-05 0 3.18246e-05 -0.000119154 0 0 0 0)
(0.0721714 0.000130453 0 0.000172479 -0.000220122 0 0 0 0)
(0.112779 0.000310041 0 0.000361728 -0.000455244 0 0 0 0)
(0.132843 0.000177759 0 0.000988388 -0.000918277 0 0 0 0)
(0.136646 -0.00148968 0 0.00220664 -0.000746262 0 0 0 0)
(0.120944 -0.00826266 0 0.000754463 0.00149668 0 0 0 0)
(0.0577053 -0.0353623 0 -0.00761781 0.0188443 0 0 0 0)
(0.0467444 -0.122565 0 -0.0582174 0.0764704 0 0 0 0)
(0.163507 0.275503 -1.85497e-17 0.203488 -0.173341 2.78245e-17 3.51431e-17 5.1347e-17 -5.02791e-33)
(0.404613 0.424061 0 0.256423 -0.359767 0 -1.16215e-16 -2.95261e-17 0)
(0.546717 0.80678 0 0.259133 -0.63828 0 -1.93433e-16 -5.56784e-17 0)
(1.06224 1.16201 0 0.268983 -1.04407 0 0 0 0)
(1.36151 1.36667 2.29387e-16 0.90997 -2.70375 -3.44081e-16 -1.65154e-15 -1.10103e-15 -6.21755e-32)
(0.206648 0.0959303 0 0.141199 -0.120494 0 7.19135e-17 2.00241e-17 0)
(0.322868 0.110116 0 0.112502 -0.201045 0 1.16215e-16 2.95261e-17 0)
(0.558077 0.296077 0 0.0306864 -0.393853 0 1.93433e-16 5.56784e-17 0)
(1.19501 0.617824 0 0.0140259 -0.948796 0 0 0 0)
(2.15733 0.365165 0 -0.128476 -2.09448 0 0 0 0)
(0.256926 -5.42669e-14 0 -1.04345e-14 -0.202269 0 0 0 0)
(0.362353 1.34492e-13 0 7.93536e-14 -0.251502 0 0 0 0)
(0.57101 1.17502e-13 0 2.43193e-13 -0.444796 0 0 0 0)
(1.15296 -2.30841e-13 0 6.51959e-14 -0.992581 0 0 0 0)
(1.94897 -1.46947e-14 0 2.90411e-14 -2.58974 0 0 0 0)
(0.206648 -0.0959303 0 -0.141199 -0.120494 0 7.19135e-17 -2.00241e-17 0)
(0.322868 -0.110116 0 -0.112502 -0.201045 0 1.16215e-16 -2.95261e-17 0)
(0.558077 -0.296077 0 -0.0306864 -0.393853 0 1.93433e-16 -5.56784e-17 0)
(1.19501 -0.617824 0 -0.0140259 -0.948796 0 0 0 0)
(2.15733 -0.365165 0 0.128476 -2.09448 0 0 0 0)
(0.163507 -0.275503 1.85497e-17 -0.203488 -0.173341 2.78245e-17 -1.7897e-16 9.13952e-17 -5.02791e-33)
(0.404613 -0.424061 0 -0.256423 -0.359767 0 -1.16215e-16 2.95261e-17 0)
(0.546717 -0.80678 0 -0.259133 -0.63828 0 -1.93433e-16 5.56784e-17 0)
(1.06224 -1.16201 7.12635e-17 -0.268983 -1.04407 1.06895e-16 -6.74686e-16 4.49791e-16 -1.9316e-32)
(1.36151 -1.36667 -2.29387e-16 -0.90997 -2.70375 -3.44081e-16 1.65154e-15 -1.10103e-15 -6.21755e-32)
(1.13894 -0.605399 -8.88535e-18 0.159988 2.30126 -7.99682e-17 1.32881e-15 -7.7804e-17 2.40838e-33)
(0.00771959 -0.129118 2.81983e-18 0.456617 0.983609 2.53784e-17 -1.12025e-15 9.33212e-17 7.64316e-34)
(0.155924 0.0193819 0 0.332146 0.739473 0 0 0 0)
(0.293147 0.102206 -1.46787e-18 0.243534 0.698549 -1.32108e-17 8.95615e-16 -7.76599e-17 3.97866e-34)
(0.0287395 -0.132773 2.33251e-18 0.308546 0.869451 2.09926e-17 -4.20479e-16 4.67199e-17 6.32228e-34)
(1.33863 -0.587374 0 -0.0267555 -0.10647 0 -6.66815e-16 4.24884e-18 0)
(0.116386 -0.0517909 0 0.438053 0.59923 0 5.67001e-16 -3.1849e-17 0)
(0.117156 0.0291465 0 0.229923 0.642549 0 0 0 0)
(0.293037 0.0532828 0 0.111571 0.599968 0 -5.65184e-16 3.08714e-17 0)
(0.599777 -0.0261033 0 0.19745 0.427127 0 1.0893e-16 -1.91781e-18 0)
(1.29666 -5.32096e-14 0 -7.39229e-14 0.495098 0 0 0 0)
(0.0502908 -7.98053e-14 0 -2.2935e-13 0.91658 0 0 0 0)
(0.0455197 9.53912e-14 0 -5.42101e-14 0.812392 0 0 0 0)
(0.280735 1.09875e-12 0 4.09233e-13 0.680146 0 2.27418e-16 1.03931e-29 0)
(0.665754 7.0087e-13 0 2.05745e-12 0.509435 0 -2.17859e-16 -6.278e-29 0)
(1.33863 0.587374 0 0.0267555 -0.10647 0 -6.66815e-16 -4.24884e-18 0)
(0.116386 0.0517909 0 -0.438053 0.59923 0 5.67001e-16 3.1849e-17 0)
(0.117156 -0.0291465 0 -0.229923 0.642549 0 0 0 0)
(0.293037 -0.0532828 0 -0.111571 0.599968 0 -5.65184e-16 -3.08714e-17 0)
(0.599777 0.0261033 0 -0.19745 0.427127 0 1.0893e-16 1.91781e-18 0)
(1.13894 0.605399 0 -0.159988 2.30126 0 6.66815e-16 4.24884e-18 0)
(0.00771959 0.129118 -2.81983e-18 -0.456617 0.983609 2.53784e-17 -1.37518e-17 2.96231e-17 7.64316e-34)
(0.155924 -0.0193819 0 -0.332146 0.739473 0 0 0 0)
(0.293147 -0.102206 1.46787e-18 -0.243534 0.698549 -1.32108e-17 7.33444e-18 -2.1038e-17 3.97866e-34)
(0.0287395 0.132773 -2.33251e-18 -0.308546 0.869451 2.09926e-17 4.20479e-16 4.67199e-17 6.32228e-34)
(0.0922971 -0.451952 0 6.16952 1.39925 0 0 0 0)
(-0.557803 -0.330036 0 5.55819 1.39421 0 0 0 0)
(-1.68174 -0.13879 0 4.22936 1.55176 0 0 0 0)
(-1.47373 0.238455 0 2.31601 1.45474 0 0 0 0)
(-0.886474 0.454893 0 0.869433 1.02844 0 0 0 0)
(-0.433608 0.284613 0 0.163607 0.638181 0 0 0 0)
(-0.208497 0.0945175 0 0.0551888 0.469118 0 0 0 0)
(-0.118676 0.0364273 0 0.0325185 0.390518 0 0 0 0)
(-0.0963867 0.0232178 0 0.0247888 0.343515 0 0 0 0)
(-0.0624085 0.0189294 0 0.0136838 0.305977 0 0 0 0)
(0.00853642 0.0112618 0 0.00111711 0.282491 0 0 0 0)
(0.0948611 0.00271117 0 -0.00344918 0.272922 0 0 0 0)
(0.155834 0.000885298 0 -0.00344022 0.270547 0 0 0 0)
(0.184838 0.00106003 0 -0.00275498 0.268397 0 0 0 0)
(0.198472 0.000989115 0 -0.00217393 0.266521 0 0 0 0)
(0.207633 0.000836456 0 -0.00175069 0.264877 0 0 0 0)
(0.215822 0.000663229 0 -0.00137337 0.263565 0 0 0 0)
(0.223304 0.000502519 0 -0.000973823 0.262523 0 0 0 0)
(0.229357 8.51169e-05 0 -0.000527307 0.26178 0 0 0 0)
(0.233802 2.45372e-05 0 -4.72248e-05 0.262189 0 0 0 0)
(0.237709 0.000504016 0 0.000450103 0.261683 0 0 0 0)
(0.241047 0.00041199 0 0.000939078 0.260463 0 0 0 0)
(0.243003 5.65818e-05 0 0.00140067 0.260279 0 0 0 0)
(0.243816 -1.58573e-05 0 0.00183836 0.260282 0 0 0 0)
(0.243939 -5.60386e-05 0 0.00224861 0.260344 0 0 0 0)
(0.243622 -0.000114471 0 0.00262995 0.260475 0 0 0 0)
(0.243228 -8.65177e-05 0 0.00300277 0.260735 0 0 0 0)
(0.242222 -0.00026463 0 0.00332889 0.260764 0 0 0 0)
(0.240032 4.27896e-05 0 0.00359646 0.261655 0 0 0 0)
(0.23657 -0.000438424 0 0.00381653 0.260635 0 0 0 0)
(0.229068 0.000145449 0 0.00379846 0.263153 0 0 0 0)
(0.219525 -0.000445826 0 0.00358119 0.260221 0 0 0 0)
(0.206554 -0.000144609 0 0.00312911 0.264721 0 0 0 0)
(0.193825 -0.00133925 0 0.00210472 0.261099 0 0 0 0)
(0.179023 0.000754738 0 0.00103258 0.269357 0 0 0 0)
(0.165337 -0.00428594 0 -0.00183034 0.25875 0 0 0 0)
(0.127105 0.00183947 0 -0.00320754 0.28331 0 0 0 0)
(-0.0245231 -0.00834661 0 -0.0131513 0.252591 0 0 0 0)
(1.7931 -0.0225963 0 -0.00227288 0.318902 0 0 0 0)
(1.86346 -0.00484881 0 -0.0247125 0.329825 0 0 0 0)
(0.888151 -0.246553 0 1.88812 1.13325 0 0 0 0)
(-0.400827 -0.275347 0 3.14374 1.80132 0 0 0 0)
(-2.05323 -0.0956929 0 3.07713 2.26775 0 0 0 0)
(-1.9934 0.152748 0 2.04288 2.27841 0 0 0 0)
(-1.25832 0.293937 0 0.770281 1.44806 0 0 0 0)
(-0.577473 0.175806 0 0.0775249 0.714715 0 0 0 0)
(-0.229747 0.0515298 0 -0.0238038 0.469704 0 0 0 0)
(-0.119445 0.018086 0 -0.020296 0.389811 0 0 0 0)
(-0.0971531 0.0112095 0 -0.0129425 0.344485 0 0 0 0)
(-0.0644808 0.00901643 0 -0.0119228 0.31 0 0 0 0)
(0.00758331 0.00560674 0 -0.0144566 0.279415 0 0 0 0)
(0.0953756 0.00123863 0 -0.0143615 0.271287 0 0 0 0)
(0.156597 0.00041887 0 -0.0121147 0.270096 0 0 0 0)
(0.185518 0.000520557 0 -0.00995058 0.268244 0 0 0 0)
(0.199106 0.000492427 0 -0.00809563 0.266452 0 0 0 0)
(0.208247 0.00041711 0 -0.00645562 0.264844 0 0 0 0)
(0.216428 0.000333452 0 -0.00492851 0.263576 0 0 0 0)
(0.223907 0.000250373 0 -0.00346709 0.262564 0 0 0 0)
(0.229958 3.59261e-05 0 -0.00203878 0.261849 0 0 0 0)
(0.234399 7.19129e-06 0 -0.000633806 0.262271 0 0 0 0)
(0.238297 0.000249549 0 0.000749595 0.261765 0 0 0 0)
(0.241619 0.000204993 0 0.00211004 0.260539 0 0 0 0)
(0.243558 2.75052e-05 0 0.00345111 0.260348 0 0 0 0)
(0.244352 -9.0581e-06 0 0.00478639 0.260344 0 0 0 0)
(0.244454 -3.00546e-05 0 0.0061278 0.260403 0 0 0 0)
(0.244115 -5.97681e-05 0 0.00748963 0.260537 0 0 0 0)
(0.243694 -4.5044e-05 0 0.00888759 0.260796 0 0 0 0)
(0.242653 -0.000132036 0 0.0103415 0.260834 0 0 0 0)
(0.240418 2.35684e-05 0 0.0118627 0.261706 0 0 0 0)
(0.23689 -0.000212622 0 0.0135012 0.260687 0 0 0 0)
(0.229308 9.5992e-05 0 0.0152685 0.263213 0 0 0 0)
(0.219705 -0.000175704 0 0.0173557 0.260187 0 0 0 0)
(0.206655 -1.4048e-06 0 0.020074 0.264746 0 0 0 0)
(0.193834 -0.000582432 0 0.0233915 0.260684 0 0 0 0)
(0.178674 0.000472857 0 0.0279443 0.269349 0 0 0 0)
(0.164938 -0.00195229 0 0.0318477 0.25809 0 0 0 0)
(0.12627 0.00116967 0 0.0391788 0.284082 0 0 0 0)
(-0.0238299 -0.00513721 0 0.041227 0.251767 0 0 0 0)
(1.79229 -0.00829061 0 0.0446134 0.312774 0 0 0 0)
(1.86118 0.00165625 0 0.0562928 0.329442 0 0 0 0)
(1.05974 -1.35742e-12 0 6.21938e-12 0.830489 0 0 0 0)
(-0.211911 -5.1194e-12 0 -5.58266e-12 2.10374 0 0 0 0)
(-2.00199 -5.7208e-12 0 -3.31569e-11 2.7235 0 0 0 0)
(-2.14482 -3.59374e-12 0 -6.12397e-11 2.76162 0 0 0 0)
(-1.45821 -2.9908e-12 0 -3.87983e-11 1.67336 0 0 0 0)
(-0.664615 9.49673e-12 0 -6.60969e-12 0.740811 0 0 0 0)
(-0.236954 1.76628e-11 0 -2.8963e-11 0.464695 0 0 0 0)
(-0.115516 6.48572e-12 0 -6.06118e-11 0.386544 0 0 0 0)
(-0.0939509 -5.2366e-13 0 -5.92231e-11 0.340354 0 0 0 0)
(-0.062849 -4.7059e-12 0 -4.82352e-11 0.309479 0 0 0 0)
(0.00782697 -8.64975e-12 0 -3.84931e-11 0.278366 0 0 0 0)
(0.0955424 -1.79194e-12 0 -4.6464e-11 0.270932 0 0 0 0)
(0.157117 9.67026e-12 0 -6.59688e-11 0.26985 0 0 0 0)
(0.186007 2.11916e-11 0 -9.35184e-11 0.268053 0 0 0 0)
(0.199489 2.77066e-11 0 -1.09769e-10 0.266272 0 0 0 0)
(0.208554 1.31419e-11 0 -1.03186e-10 0.264667 0 0 0 0)
(0.216692 -3.37046e-11 0 -7.30294e-11 0.263404 0 0 0 0)
(0.224145 -8.73119e-11 0 -3.09835e-11 0.262375 0 0 0 0)
(0.230181 -5.31798e-11 0 5.79703e-12 0.261683 0 0 0 0)
(0.234613 4.5204e-11 0 3.47585e-11 0.262128 0 0 0 0)
(0.238508 9.45742e-11 0 5.98331e-11 0.261633 0 0 0 0)
(0.241832 2.07291e-11 0 8.24573e-11 0.260412 0 0 0 0)
(0.243782 -1.06539e-10 0 9.21922e-11 0.260224 0 0 0 0)
(0.244595 -1.14053e-10 0 7.55314e-11 0.260223 0 0 0 0)
(0.244725 -1.48775e-11 0 3.78239e-11 0.260286 0 0 0 0)
(0.244425 6.17596e-11 0 2.2857e-12 0.26043 0 0 0 0)
(0.244057 9.71392e-11 0 -1.70998e-11 0.260697 0 0 0 0)
(0.243088 6.06847e-11 0 -3.10318e-11 0.260739 0 0 0 0)
(0.240952 1.53868e-11 0 -6.10021e-11 0.261605 0 0 0 0)
(0.237561 1.40249e-11 0 -1.29627e-10 0.260577 0 0 0 0)
(0.23019 -5.0628e-11 0 -2.42112e-10 0.263067 0 0 0 0)
(0.220923 5.61351e-12 0 -3.81476e-10 0.259917 0 0 0 0)
(0.20831 4.95118e-11 0 -4.981e-10 0.264275 0 0 0 0)
(0.196115 -7.15543e-11 0 -5.78568e-10 0.259927 0 0 0 0)
(0.181483 -2.49045e-11 0 -5.85455e-10 0.268279 0 0 0 0)
(0.168605 6.96962e-11 0 -4.73974e-10 0.256676 0 0 0 0)
(0.129834 -9.69913e-12 0 -3.09441e-10 0.281701 0 0 0 0)
(-0.0229421 -6.99302e-11 0 -2.31842e-10 0.248634 0 0 0 0)
(1.79748 -5.28752e-11 0 -1.11194e-10 0.317019 0 0 0 0)
(1.86686 -2.37605e-11 0 1.73472e-11 0.305632 0 0 0 0)
(0.888151 0.246553 0 -1.88812 1.13325 0 0 0 0)
(-0.400827 0.275347 0 -3.14374 1.80132 0 0 0 0)
(-2.05323 0.0956929 0 -3.07713 2.26775 0 0 0 0)
(-1.9934 -0.152748 0 -2.04288 2.27841 0 0 0 0)
(-1.25832 -0.293937 0 -0.770281 1.44806 0 0 0 0)
(-0.577473 -0.175806 0 -0.0775249 0.714715 0 0 0 0)
(-0.229747 -0.0515298 0 0.0238038 0.469704 0 0 0 0)
(-0.119445 -0.018086 0 0.020296 0.389811 0 0 0 0)
(-0.0971531 -0.0112095 0 0.0129425 0.344485 0 0 0 0)
(-0.0644808 -0.00901643 0 0.0119228 0.31 0 0 0 0)
(0.00758331 -0.00560674 0 0.0144566 0.279415 0 0 0 0)
(0.0953756 -0.00123863 0 0.0143615 0.271287 0 0 0 0)
(0.156597 -0.00041887 0 0.0121147 0.270096 0 0 0 0)
(0.185518 -0.000520557 0 0.00995058 0.268244 0 0 0 0)
(0.199106 -0.000492427 0 0.00809563 0.266452 0 0 0 0)
(0.208247 -0.00041711 0 0.00645562 0.264844 0 0 0 0)
(0.216428 -0.000333452 0 0.00492851 0.263576 0 0 0 0)
(0.223907 -0.000250373 0 0.00346709 0.262564 0 0 0 0)
(0.229958 -3.59262e-05 0 0.00203878 0.261849 0 0 0 0)
(0.234399 -7.1912e-06 0 0.000633806 0.262271 0 0 0 0)
(0.238297 -0.000249549 0 -0.000749595 0.261765 0 0 0 0)
(0.241619 -0.000204993 0 -0.00211004 0.260539 0 0 0 0)
(0.243558 -2.75054e-05 0 -0.00345111 0.260348 0 0 0 0)
(0.244352 9.05787e-06 0 -0.00478638 0.260344 0 0 0 0)
(0.244454 3.00546e-05 0 -0.0061278 0.260403 0 0 0 0)
(0.244115 5.97682e-05 0 -0.00748963 0.260537 0 0 0 0)
(0.243694 4.50442e-05 0 -0.00888759 0.260796 0 0 0 0)
(0.242653 0.000132036 0 -0.0103415 0.260834 0 0 0 0)
(0.240418 -2.35684e-05 0 -0.0118627 0.261706 0 0 0 0)
(0.23689 0.000212622 0 -0.0135012 0.260687 0 0 0 0)
(0.229308 -9.59921e-05 0 -0.0152685 0.263213 0 0 0 0)
(0.219705 0.000175704 0 -0.0173557 0.260187 0 0 0 0)
(0.206655 1.40489e-06 0 -0.020074 0.264746 0 0 0 0)
(0.193834 0.000582432 0 -0.0233915 0.260684 0 0 0 0)
(0.178674 -0.000472857 0 -0.0279443 0.269349 0 0 0 0)
(0.164938 0.00195229 0 -0.0318477 0.25809 0 0 0 0)
(0.12627 -0.00116967 0 -0.0391788 0.284082 0 0 0 0)
(-0.0238299 0.00513721 0 -0.041227 0.251767 0 0 0 0)
(1.79229 0.00829061 0 -0.0446134 0.312774 0 0 0 0)
(1.86118 -0.00165625 0 -0.0562928 0.329442 0 0 0 0)
(0.0922971 0.451952 0 -6.16952 1.39925 0 0 0 0)
(-0.557803 0.330036 0 -5.55819 1.39421 0 0 0 0)
(-1.68174 0.13879 0 -4.22936 1.55176 0 0 0 0)
(-1.47373 -0.238455 0 -2.31601 1.45474 0 0 0 0)
(-0.886474 -0.454893 0 -0.869433 1.02844 0 0 0 0)
(-0.433608 -0.284613 0 -0.163607 0.638181 0 0 0 0)
(-0.208497 -0.0945175 0 -0.0551888 0.469118 0 0 0 0)
(-0.118676 -0.0364273 0 -0.0325185 0.390518 0 0 0 0)
(-0.0963867 -0.0232178 0 -0.0247888 0.343515 0 0 0 0)
(-0.0624085 -0.0189294 0 -0.0136838 0.305977 0 0 0 0)
(0.00853642 -0.0112618 0 -0.00111711 0.282491 0 0 0 0)
(0.0948611 -0.00271117 0 0.00344918 0.272922 0 0 0 0)
(0.155834 -0.000885298 0 0.00344022 0.270547 0 0 0 0)
(0.184838 -0.00106003 0 0.00275498 0.268397 0 0 0 0)
(0.198472 -0.000989115 0 0.00217393 0.266521 0 0 0 0)
(0.207633 -0.000836456 0 0.00175069 0.264877 0 0 0 0)
(0.215822 -0.000663229 0 0.00137337 0.263565 0 0 0 0)
(0.223304 -0.00050252 0 0.000973823 0.262523 0 0 0 0)
(0.229357 -8.5117e-05 0 0.000527307 0.26178 0 0 0 0)
(0.233802 -2.45371e-05 0 4.72246e-05 0.262189 0 0 0 0)
(0.237709 -0.000504016 0 -0.000450103 0.261683 0 0 0 0)
(0.241047 -0.00041199 0 -0.000939078 0.260463 0 0 0 0)
(0.243003 -5.6582e-05 0 -0.00140067 0.260279 0 0 0 0)
(0.243816 1.58571e-05 0 -0.00183836 0.260282 0 0 0 0)
(0.243939 5.60385e-05 0 -0.00224861 0.260344 0 0 0 0)
(0.243622 0.000114471 0 -0.00262995 0.260475 0 0 0 0)
(0.243228 8.65179e-05 0 -0.00300277 0.260735 0 0 0 0)
(0.242222 0.000264631 0 -0.00332889 0.260764 0 0 0 0)
(0.240032 -4.27895e-05 0 -0.00359646 0.261655 0 0 0 0)
(0.23657 0.000438424 0 -0.00381653 0.260635 0 0 0 0)
(0.229068 -0.000145449 0 -0.00379846 0.263153 0 0 0 0)
(0.219525 0.000445826 0 -0.00358119 0.260221 0 0 0 0)
(0.206554 0.000144609 0 -0.00312911 0.264721 0 0 0 0)
(0.193825 0.00133925 0 -0.00210472 0.261099 0 0 0 0)
(0.179023 -0.000754738 0 -0.00103258 0.269357 0 0 0 0)
(0.165337 0.00428594 0 0.00183034 0.25875 0 0 0 0)
(0.127105 -0.00183947 0 0.00320754 0.28331 0 0 0 0)
(-0.0245231 0.00834661 0 0.0131513 0.252591 0 0 0 0)
(1.7931 0.0225963 0 0.00227288 0.318902 0 0 0 0)
(1.86346 0.00484881 0 0.0247125 0.329825 0 0 0 0)
(1.18309 0.171465 0 -6.56146 0.349659 0 0 0 0)
(0.997686 0.307778 0 -4.59267 0.858451 0 0 0 0)
(-0.449034 0.0838258 0 -3.14451 0.969765 0 0 0 0)
(-0.486676 -0.381912 0 -1.60021 0.809661 0 0 0 0)
(-0.33813 -0.620034 0 -0.715811 0.644944 0 0 0 0)
(-0.233063 -0.400846 0 -0.264034 0.533775 0 0 0 0)
(-0.17209 -0.157177 0 -0.145473 0.444267 0 0 0 0)
(-0.101265 -0.0756659 0 -0.0818147 0.379369 0 0 0 0)
(-0.0862248 -0.050355 0 -0.0600973 0.331833 0 0 0 0)
(-0.0520284 -0.0358333 0 -0.0442965 0.298238 0 0 0 0)
(0.0172283 -0.019803 0 -0.0237255 0.283357 0 0 0 0)
(0.098829 -0.00702816 0 -0.0111904 0.273869 0 0 0 0)
(0.157044 -0.00271817 0 -0.00737007 0.270205 0 0 0 0)
(0.185509 -0.00242224 0 -0.00642217 0.267717 0 0 0 0)
(0.19921 -0.00212608 0 -0.00565283 0.265773 0 0 0 0)
(0.208454 -0.00178653 0 -0.00464038 0.264162 0 0 0 0)
(0.216641 -0.00142857 0 -0.0035631 0.262877 0 0 0 0)
(0.224073 -0.00107832 0 -0.00257811 0.261833 0 0 0 0)
(0.230071 -0.000188382 0 -0.00172166 0.26111 0 0 0 0)
(0.234476 -4.79652e-05 0 -0.000955531 0.261549 0 0 0 0)
(0.238357 -0.00103784 0 -0.00025354 0.261061 0 0 0 0)
(0.241684 -0.000846459 0 0.000420735 0.25985 0 0 0 0)
(0.243636 -0.000107454 0 0.00109746 0.259675 0 0 0 0)
(0.24444 4.15975e-05 0 0.00176505 0.259692 0 0 0 0)
(0.244553 0.000120601 0 0.00242309 0.259767 0 0 0 0)
(0.244211 0.000241765 0 0.00306406 0.25991 0 0 0 0)
(0.243794 0.000178586 0 0.0036377 0.260191 0 0 0 0)
(0.242778 0.000555832 0 0.00419416 0.260209 0 0 0 0)
(0.240558 -8.21179e-05 0 0.0047131 0.261137 0 0 0 0)
(0.237133 0.000891141 0 0.0051408 0.26009 0 0 0 0)
(0.229734 -0.000298328 0 0.0057334 0.262555 0 0 0 0)
(0.220334 0.000846993 0 0.00645296 0.259724 0 0 0 0)
(0.207699 0.000386383 0 0.00738588 0.263764 0 0 0 0)
(0.195159 0.00261536 0 0.0091059 0.260423 0 0 0 0)
(0.180739 -0.00162068 0 0.0102308 0.26757 0 0 0 0)
(0.167137 0.00800659 0 0.012953 0.258261 0 0 0 0)
(0.132405 -0.00425819 0 0.0131942 0.278606 0 0 0 0)
(-0.0236146 0.0237523 0 0.0294432 0.251742 0 0 0 0)
(1.79861 0.0401965 0 0.0116613 0.332308 0 0 0 0)
(1.87263 -0.00232586 0 -0.00800624 0.313796 0 0 0 0)
(1.63982 0.696908 0 -2.50869 -0.316917 0 0 0 0)
(1.90079 0.939528 0 -2.2553 0.238117 0 0 0 0)
(0.54088 0.121248 0 -1.70756 0.360214 0 0 0 0)
(0.337363 -0.474537 0 -0.993828 0.252113 0 0 0 0)
(0.107077 -0.632193 0 -0.570522 0.292418 0 0 0 0)
(0.00845128 -0.415666 0 -0.34882 0.401509 0 0 0 0)
(-0.0524259 -0.209709 0 -0.18214 0.393759 0 0 0 0)
(-0.0457415 -0.123732 0 -0.111722 0.352877 0 0 0 0)
(-0.065682 -0.0868468 0 -0.0762445 0.317585 0 0 0 0)
(-0.0329255 -0.0565773 0 -0.0540474 0.29252 0 0 0 0)
(0.0357778 -0.030165 0 -0.0286816 0.281191 0 0 0 0)
(0.108494 -0.0130704 0 -0.011797 0.273461 0 0 0 0)
(0.15978 -0.00582994 0 -0.00593464 0.269273 0 0 0 0)
(0.186134 -0.00460018 0 -0.00470569 0.266506 0 0 0 0)
(0.199793 -0.00380521 0 -0.00415904 0.264483 0 0 0 0)
(0.209206 -0.00311797 0 -0.00341284 0.262945 0 0 0 0)
(0.21737 -0.00249767 0 -0.00261128 0.261737 0 0 0 0)
(0.224666 -0.00189654 0 -0.00194684 0.260738 0 0 0 0)
(0.230537 -0.000303345 0 -0.00145845 0.260045 0 0 0 0)
(0.234855 -5.91567e-05 0 -0.00108685 0.260495 0 0 0 0)
(0.238688 -0.00185498 0 -0.000796684 0.260007 0 0 0 0)
(0.242006 -0.00151446 0 -0.000534895 0.258791 0 0 0 0)
(0.24396 -0.00018127 0 -0.000256117 0.25862 0 0 0 0)
(0.244759 9.01341e-05 0 1.78199e-05 0.258653 0 0 0 0)
(0.244861 0.000231284 0 0.000282549 0.258748 0 0 0 0)
(0.244477 0.00045532 0 0.000522525 0.258913 0 0 0 0)
(0.244013 0.00032517 0 0.000669015 0.259234 0 0 0 0)
(0.24296 0.00102025 0 0.000774829 0.259229 0 0 0 0)
(0.240663 -0.000136323 0 0.000819296 0.260243 0 0 0 0)
(0.237252 0.00156172 0 0.000719184 0.25915 0 0 0 0)
(0.229976 -0.000416044 0 0.000799252 0.261587 0 0 0 0)
(0.220684 0.00139552 0 0.00103133 0.259102 0 0 0 0)
(0.208496 0.000688286 0 0.00139286 0.262636 0 0 0 0)
(0.195851 0.00432258 0 0.00267646 0.259912 0 0 0 0)
(0.181809 -0.00237348 0 0.00279409 0.265885 0 0 0 0)
(0.167227 0.0129256 0 0.0048922 0.259241 0 0 0 0)
(0.140154 -0.00682479 0 0.00332259 0.274234 0 0 0 0)
(-0.0264874 0.0518352 0 0.0212252 0.255812 0 0 0 0)
(1.75406 0.0729559 0 0.00674879 0.322545 0 0 0 0)
(1.83959 -0.00914325 0 -0.00463037 0.332253 0 0 0 0)
(1.42726 0.706315 0 -0.420441 0.204682 0 0 0 0)
(1.76968 0.960286 0 -0.753297 0.0478128 0 0 0 0)
(0.766566 0.0973127 0 -0.668747 0.000529344 0 0 0 0)
(0.609015 -0.447243 0 -0.56902 -0.0350408 0 0 0 0)
(0.283423 -0.47607 0 -0.376178 0.158407 0 0 0 0)
(0.141196 -0.30319 0 -0.326103 0.290327 0 0 0 0)
(0.0563856 -0.204041 0 -0.180914 0.338139 0 0 0 0)
(0.00077936 -0.14907 0 -0.143987 0.315633 0 0 0 0)
(-0.0306471 -0.108517 0 -0.0946472 0.300213 0 0 0 0)
(-0.00619502 -0.0709041 0 -0.0661946 0.284642 0 0 0 0)
(0.0579423 -0.0381695 0 -0.0350884 0.27814 0 0 0 0)
(0.120749 -0.0185129 0 -0.0160726 0.272143 0 0 0 0)
(0.163877 -0.00941994 0 -0.00835774 0.267976 0 0 0 0)
(0.18722 -0.00703846 0 -0.0061115 0.265069 0 0 0 0)
(0.200456 -0.00555758 0 -0.00509198 0.262966 0 0 0 0)
(0.209946 -0.00443252 0 -0.00409678 0.261462 0 0 0 0)
(0.218054 -0.00355579 0 -0.00314346 0.260288 0 0 0 0)
(0.225184 -0.00270866 0 -0.00238175 0.259305 0 0 0 0)
(0.2309 -0.000422347 0 -0.00183656 0.258622 0 0 0 0)
(0.235113 -8.46964e-05 0 -0.00143066 0.259076 0 0 0 0)
(0.238889 -0.00267942 0 -0.00112285 0.258586 0 0 0 0)
(0.242205 -0.00218323 0 -0.000845852 0.257365 0 0 0 0)
(0.244168 -0.000241252 0 -0.000538322 0.257199 0 0 0 0)
(0.244959 0.000164844 0 -0.000235163 0.257257 0 0 0 0)
(0.24504 0.000371299 0 5.36265e-05 0.257381 0 0 0 0)
(0.244583 0.000710331 0 0.000306071 0.257572 0 0 0 0)
(0.244037 0.000483795 0 0.0004267 0.257949 0 0 0 0)
(0.242923 0.00152795 0 0.00048445 0.257891 0 0 0 0)
(0.240504 -0.000158599 0 0.000473642 0.259029 0 0 0 0)
(0.237114 0.0021869 0 0.000259833 0.257864 0 0 0 0)
(0.230035 -0.000344503 0 0.000296869 0.260237 0 0 0 0)
(0.220906 0.00185713 0 0.000581564 0.258224 0 0 0 0)
(0.209284 0.00116631 0 0.00100364 0.26105 0 0 0 0)
(0.196509 0.00574648 0 0.00260806 0.259247 0 0 0 0)
(0.182874 -0.00226634 0 0.00280254 0.263692 0 0 0 0)
(0.167646 0.0160525 0 0.00530076 0.259979 0 0 0 0)
(0.148144 -0.00756321 0 0.00376407 0.268933 0 0 0 0)
(-0.020313 0.0703066 0 0.0200716 0.2593 0 0 0 0)
(1.77369 0.113858 0 0.00321195 0.302461 0 0 0 0)
(1.86166 0.00702841 0 -0.0107951 0.307234 0 0 0 0)
(1.31907 0.545743 0 -0.0984622 0.315318 0 0 0 0)
(1.66151 0.742799 0 -0.192538 0.0617644 0 0 0 0)
(0.718456 0.0414067 0 -0.211386 -0.0388949 0 0 0 0)
(0.619293 -0.322401 0 -0.332158 -0.0432849 0 0 0 0)
(0.34116 -0.318657 0 -0.266645 0.186362 0 0 0 0)
(0.196615 -0.242469 0 -0.262186 0.24159 0 0 0 0)
(0.123068 -0.185322 0 -0.182766 0.289328 0 0 0 0)
(0.0373888 -0.160279 0 -0.154953 0.281441 0 0 0 0)
(0.00928136 -0.116711 0 -0.109954 0.278843 0 0 0 0)
(0.0244674 -0.0778481 0 -0.0735318 0.274828 0 0 0 0)
(0.0840772 -0.0422093 0 -0.0404531 0.272588 0 0 0 0)
(0.134253 -0.0228649 0 -0.0207488 0.269126 0 0 0 0)
(0.169379 -0.0126474 0 -0.0120488 0.265639 0 0 0 0)
(0.189281 -0.00942753 0 -0.00870418 0.26302 0 0 0 0)
(0.201735 -0.00728048 0 -0.00692409 0.26103 0 0 0 0)
(0.211084 -0.00569858 0 -0.00545191 0.259624 0 0 0 0)
(0.219023 -0.00457615 0 -0.00419289 0.258513 0 0 0 0)
(0.225926 -0.00350168 0 -0.00320895 0.25756 0 0 0 0)
(0.231453 -0.000524726 0 -0.00248094 0.256894 0 0 0 0)
(0.235543 -9.41593e-05 0 -0.00190907 0.25737 0 0 0 0)
(0.239252 -0.00350358 0 -0.00144854 0.256884 0 0 0 0)
(0.24257 -0.0028515 0 -0.00102256 0.255653 0 0 0 0)
(0.244548 -0.000285227 0 -0.00055457 0.255487 0 0 0 0)
(0.245329 0.000266177 0 -9.24219e-05 0.255568 0 0 0 0)
(0.245383 0.000534518 0 0.000347812 0.25571 0 0 0 0)
(0.244837 0.00100188 0 0.000742086 0.255903 0 0 0 0)
(0.244185 0.000633251 0 0.000977337 0.256325 0 0 0 0)
(0.243005 0.00206128 0 0.00112648 0.256154 0 0 0 0)
(0.240446 -0.000162519 0 0.00122391 0.257411 0 0 0 0)
(0.237082 0.00272641 0 0.00107975 0.256118 0 0 0 0)
(0.230286 -6.91029e-05 0 0.0012662 0.258346 0 0 0 0)
(0.221365 0.00217865 0 0.00184794 0.256849 0 0 0 0)
(0.210449 0.00167365 0 0.00261198 0.258886 0 0 0 0)
(0.197585 0.00686806 0 0.004674 0.257656 0 0 0 0)
(0.184404 -0.00166797 0 0.00542906 0.260401 0 0 0 0)
(0.168154 0.0179766 0 0.00864931 0.258618 0 0 0 0)
(0.154388 -0.00747852 0 0.00752844 0.263292 0 0 0 0)
(-0.0270195 0.0841441 0 0.0224564 0.258846 0 0 0 0)
(1.72432 0.119146 0 -0.00270539 0.297493 0 0 0 0)
(1.82609 -0.00454434 0 -0.038385 0.302912 0 0 0 0)
(1.33661 0.461982 0 -0.0386036 0.281029 0 0 0 0)
(1.66087 0.618954 0 -0.0303723 0.0863545 0 0 0 0)
(0.632024 -0.00391671 0 -0.0706254 0.0266916 0 0 0 0)
(0.555766 -0.230177 0 -0.194486 0.0410974 0 0 0 0)
(0.35085 -0.201555 0 -0.20875 0.195571 0 0 0 0)
(0.222025 -0.203968 0 -0.196167 0.225212 0 0 0 0)
(0.159719 -0.165638 0 -0.175631 0.250622 0 0 0 0)
(0.0709435 -0.159174 0 -0.142846 0.258359 0 0 0 0)
(0.0478133 -0.11489 0 -0.113456 0.260603 0 0 0 0)
(0.0607784 -0.0769314 0 -0.0706859 0.266543 0 0 0 0)
(0.108806 -0.0436634 0 -0.0412214 0.266721 0 0 0 0)
(0.14812 -0.0252091 0 -0.0228725 0.265407 0 0 0 0)
(0.175484 -0.0153039 0 -0.0144349 0.262711 0 0 0 0)
(0.192158 -0.0114802 0 -0.0105559 0.260578 0 0 0 0)
(0.20359 -0.00883011 0 -0.00826582 0.258857 0 0 0 0)
(0.212578 -0.00685784 0 -0.0064716 0.257611 0 0 0 0)
(0.220216 -0.00554465 0 -0.00502738 0.25658 0 0 0 0)
(0.226834 -0.004269 0 -0.0039134 0.255651 0 0 0 0)
(0.232153 -0.00060567 0 -0.00306245 0.255004 0 0 0 0)
(0.236108 -9.40338e-05 0 -0.00236391 0.255503 0 0 0 0)
(0.239743 -0.00433412 0 -0.0017823 0.255019 0 0 0 0)
(0.243067 -0.00352917 0 -0.00123928 0.25377 0 0 0 0)
(0.245065 -0.000323559 0 -0.000649221 0.253593 0 0 0 0)
(0.245829 0.000379299 0 -8.05838e-05 0.253684 0 0 0 0)
(0.245844 0.000694078 0 0.000433308 0.253824 0 0 0 0)
(0.24519 0.00130325 0 0.000866214 0.253984 0 0 0 0)
(0.244407 0.000726405 0 0.00110843 0.254437 0 0 0 0)
(0.243161 0.00257401 0 0.00116161 0.254087 0 0 0 0)
(0.240459 -0.000193117 0 0.00113826 0.255461 0 0 0 0)
(0.237154 0.0030885 0 0.000794561 0.254016 0 0 0 0)
(0.230775 0.000359208 0 0.000707156 0.256046 0 0 0 0)
(0.222202 0.00237744 0 0.00104727 0.255066 0 0 0 0)
(0.212008 0.00194437 0 0.00138444 0.256342 0 0 0 0)
(0.199224 0.0072056 0 0.00262331 0.255973 0 0 0 0)
(0.186705 -0.00133979 0 0.00248145 0.257392 0 0 0 0)
(0.169669 0.0188388 0 0.00439194 0.257323 0 0 0 0)
(0.161449 -0.00734295 0 0.00184856 0.25866 0 0 0 0)
(-0.0301747 0.103264 0 0.0111733 0.259017 0 0 0 0)
(1.71506 0.156321 0 -0.0122212 0.294146 0 0 0 0)
(1.82728 0.0122499 0 -0.0435852 0.299663 0 0 0 0)
(1.327 0.358147 0 -0.0267836 0.330097 0 0 0 0)
(1.63065 0.49771 0 -0.00386416 0.109341 0 0 0 0)
(0.560309 -0.00220458 0 -0.0406053 0.0749796 0 0 0 0)
(0.486191 -0.159662 0 -0.13602 0.115777 0 0 0 0)
(0.33954 -0.141238 0 -0.176931 0.194261 0 0 0 0)
(0.228529 -0.18942 0 -0.162679 0.210368 0 0 0 0)
(0.17445 -0.15338 0 -0.167252 0.219665 0 0 0 0)
(0.0973031 -0.150661 0 -0.137603 0.238647 0 0 0 0)
(0.0788178 -0.108825 0 -0.11086 0.24778 0 0 0 0)
(0.0940755 -0.0719527 0 -0.070559 0.257827 0 0 0 0)
(0.130152 -0.0433039 0 -0.0430885 0.260877 0 0 0 0)
(0.160065 -0.0267286 0 -0.0263337 0.260761 0 0 0 0)
(0.181248 -0.0173003 0 -0.01777 0.25911 0 0 0 0)
(0.195225 -0.013141 0 -0.0131391 0.257662 0 0 0 0)
(0.205671 -0.0101399 0 -0.0101478 0.256403 0 0 0 0)
(0.214205 -0.00789354 0 -0.00789667 0.255413 0 0 0 0)
(0.221488 -0.00646512 0 -0.00616856 0.254507 0 0 0 0)
(0.227819 -0.00501967 0 -0.0048425 0.253647 0 0 0 0)
(0.232947 -0.000667217 0 -0.0037881 0.253059 0 0 0 0)
(0.236777 -7.97227e-05 0 -0.0028898 0.253619 0 0 0 0)
(0.240335 -0.00517337 0 -0.00212279 0.253151 0 0 0 0)
(0.243662 -0.00422571 0 -0.00140067 0.25187 0 0 0 0)
(0.245665 -0.000367853 0 -0.000618315 0.251657 0 0 0 0)
(0.246373 0.000488401 0 0.000143868 0.251724 0 0 0 0)
(0.246295 0.000823314 0 0.000845534 0.25181 0 0 0 0)
(0.245487 0.00159254 0 0.00148873 0.251867 0 0 0 0)
(0.24447 0.000732653 0 0.00198738 0.252308 0 0 0 0)
(0.243034 0.00304822 0 0.00229647 0.251674 0 0 0 0)
(0.240092 -0.000230825 0 0.00265156 0.25313 0 0 0 0)
(0.236666 0.00329009 0 0.00281833 0.251487 0 0 0 0)
(0.230529 0.00094284 0 0.00337926 0.253249 0 0 0 0)
(0.222018 0.00246429 0 0.00460174 0.252765 0 0 0 0)