/*--------------------------------*- C++ -*----------------------------------*\
| =========                 |                                                 |
| \\      /  F ield         | OpenFOAM: The Open Source CFD Toolbox           |
|  \\    /   O peration     | Version:  v1912                                 |
|   \\  /    A nd           | Website:  www.openfoam.com                      |
|    \\/     M anipulation  |                                                 |
\*---------------------------------------------------------------------------*/
FoamFile
{
    version     2.0;
    format      ascii;
    class       volScalarField;
    location    "4.76";
    object      p;
}
// * * * * * * * * * * * * * * * * * * * * * * * * * * * * * * * * * * * * * //

dimensions      [1 -1 -2 0 0 0 0];


internalField   nonuniform List<scalar> 
1900
(
35111.1
12276.7
10484.3
10325.1
10146.5
10005
9869.01
9731.03
9632.24
9467.53
35111
12276.7
10484.5
10325.2
10146.8
10006.5
9873.42
9737.88
9603.16
9432.92
35110.9
12276.7
10484.6
10325.4
10147
10006.9
9873.7
9735.54
9592.51
9423.4
35111
12276.7
10484.5
10325.2
10146.8
10006.5
9873.42
9737.88
9603.16
9432.92
35111.1
12276.7
10484.3
10325.1
10146.5
10005
9869.01
9731.03
9632.24
9467.53
9459.94
9268.38
9140.26
8892.49
8946.61
9307.92
9139.97
8984.82
8764.66
8470.67
9297.02
9126.07
8977.57
8767.93
8537.02
9307.92
9139.97
8984.82
8764.66
8470.67
9459.94
9268.38
9140.26
8892.49
8946.61
6040.57
5484.76
4982.59
4418.25
3810.82
6389.43
5603.65
5051.47
4472.69
3894.23
6426.66
5564.94
5012.54
4445.71
3853.14
6389.43
5603.65
5051.47
4472.69
3894.23
6040.57
5484.76
4982.59
4418.25
3810.82
2819.6
1799.47
2044.15
2263.65
2137.19
1937.09
1780.42
1659.68
1539.84
1426.14
1325.96
1260.45
1222.41
1198.25
1179.44
1163.45
1149.83
1138.43
1129.05
1121.27
1115
1110.07
1106.22
1103.48
1101.73
1100.81
1100.49
1100.63
1101.12
1102.53
1104.62
1109.98
1116.58
1128.36
1139.95
1157.94
1174.28
1200.18
1395.67
4652.21
2917.28
1841.17
2057.12
2302.94
2168.97
1950.35
1784.23
1661.49
1541.03
1428.01
1326.34
1260.51
1222.39
1198.24
1179.44
1163.44
1149.81
1138.41
1129.02
1121.23
1114.96
1110.03
1106.18
1103.44
1101.68
1100.77
1100.44
1100.58
1101.08
1102.47
1104.57
1109.94
1116.55
1128.37
1139.97
1158.05
1174.29
1200.51
1395.69
4655.17
3005.3
1984.92
2214.39
2380.62
2195.77
1955.71
1785.74
1662.35
1541.39
1428.72
1326.46
1260.55
1222.39
1198.25
1179.44
1163.45
1149.82
1138.41
1129.02
1121.23
1114.96
1110.02
1106.17
1103.43
1101.67
1100.75
1100.43
1100.57
1101.07
1102.46
1104.56
1109.94
1116.58
1128.45
1140.13
1158.36
1174.78
1201.49
1396.66
4710.78
2917.28
1841.17
2057.12
2302.94
2168.97
1950.35
1784.23
1661.49
1541.03
1428.01
1326.34
1260.51
1222.39
1198.24
1179.44
1163.44
1149.81
1138.41
1129.02
1121.23
1114.96
1110.03
1106.18
1103.44
1101.68
1100.77
1100.44
1100.58
1101.08
1102.47
1104.57
1109.94
1116.55
1128.37
1139.97
1158.05
1174.29
1200.51
1395.69
4655.17
2819.6
1799.47
2044.15
2263.65
2137.19
1937.09
1780.42
1659.68
1539.84
1426.14
1325.96
1260.45
1222.41
1198.25
1179.44
1163.45
1149.83
1138.43
1129.05
1121.27
1115
1110.07
1106.22
1103.48
1101.73
1100.81
1100.49
1100.63
1101.12
1102.53
1104.62
1109.98
1116.58
1128.36
1139.95
1157.94
1174.28
1200.18
1395.67
4652.21
2416.9
1599.78
1865.57
2091.73
2045.36
1897.9
1764.61
1649.09
1532.21
1418.74
1322.85
1259.58
1222.17
1198.04
1179.23
1163.29
1149.74
1138.4
1129.06
1121.3
1115.05
1110.13
1106.28
1103.55
1101.78
1100.86
1100.53
1100.67
1101.16
1102.57
1104.65
1109.97
1116.53
1128.12
1139.73
1157.45
1174.38
1198.95
1397.53
4859.24
2442.58
1383.88
1643.31
1861.04
1870.99
1802.67
1715.97
1619.47
1512.15
1403.81
1315.54
1257.25
1221.45
1197.53
1178.78
1162.96
1149.55
1138.34
1129.09
1121.38
1115.16
1110.26
1106.43
1103.7
1101.93
1101
1100.67
1100.81
1101.3
1102.74
1104.81
1110.03
1116.51
1127.74
1139.31
1156.6
1174.11
1196.62
1391.07
4610.15
2591.13
1309.97
1543.03
1696.29
1739.26
1711.89
1655.54
1580.41
1482.77
1384.46
1305.7
1253.46
1220.01
1196.65
1178.1
1162.51
1149.34
1138.32
1129.19
1121.56
1115.4
1110.54
1106.73
1104.01
1102.23
1101.29
1100.94
1101.09
1101.58
1103.07
1105.13
1110.22
1116.57
1127.32
1138.8
1155.49
1173.34
1193.71
1384.45
4550.62
2811.38
1287.3
1471.28
1577.42
1641.85
1635.24
1598.13
1536.48
1448.52
1362.98
1294.27
1248.69
1217.88
1195.39
1177.24
1161.99
1149.14
1138.35
1129.38
1121.85
1115.77
1110.96
1107.18
1104.46
1102.68
1101.72
1101.35
1101.52
1102.02
1103.59
1105.64
1110.59
1116.78
1127.04
1138.4
1154.51
1172.24
1191.89
1383.32
4484.06
3017.21
1277.67
1430.5
1499.46
1573.55
1570.28
1543.63
1489.61
1412.85
1340.28
1282.76
1243.26
1215.21
1193.78
1176.23
1161.44
1148.96
1138.45
1129.67
1122.27
1116.28
1111.54
1107.79
1105.09
1103.29
1102.32
1101.95
1102.16
1102.67
1104.34
1106.39
1111.15
1117.15
1126.89
1138.05
1153.56
1170.72
1190.55
1379.59
4415
3172.68
1268.21
1398.98
1453.42
1523.75
1516.56
1493.58
1444.92
1379.79
1319.4
1271.96
1237.86
1212.31
1192.03
1175.16
1160.9
1148.81
1138.59
1130.02
1122.77
1116.9
1112.24
1108.55
1105.87
1104.08
1103.13
1102.78
1103.07
1103.66
1105.5
1107.61
1112.22
1118.08
1127.38
1138.43
1153.56
1170.28
1191.1
1379.46
4325.81
3413.01
1259.63
1374.44
1420.9
1480.98
1468.12
1445.24
1402.49
1349.07
1300.37
1261.61
1232.25
1209.06
1190.01
1173.93
1160.25
1148.6
1138.7
1130.35
1123.26
1117.52
1112.97
1109.34
1106.71
1104.94
1104.04
1103.72
1104.12
1104.79
1106.78
1108.92
1113.29
1118.86
1127.55
1138.3
1153
1169.04
1191.27
1376.75
4240.45
3387.34
1248.88
1352.31
1391.14
1441.25
1424.51
1401.84
1366.2
1323.66
1285.09
1253.23
1227.62
1206.37
1188.4
1173.03
1159.85
1148.56
1138.9
1130.74
1123.8
1118.22
1113.81
1110.28
1107.74
1106.09
1105.32
1105.13
1105.78
1106.65
1108.92
1111.23
1115.51
1120.95
1129.19
1139.68
1153.92
1169.45
1192.65
1374.64
4136.95
3409.62
1240.2
1334.48
1365.61
1403.38
1385.15
1363.63
1335.01
1301.62
1271.32
1244.99
1222.63
1203.28
1186.55
1172.01
1159.35
1148.39
1138.98
1131.04
1124.3
1118.89
1114.63
1111.22
1108.78
1107.23
1106.58
1106.46
1107.3
1108.27
1110.67
1112.99
1117.01
1122.05
1129.69
1139.81
1153.79
1168.8
1193.41
1371.45
4044.8
3374
1231.63
1315.9
1338.94
1365.98
1348.91
1330.59
1309.21
1283.81
1260.35
1238.55
1219.04
1201.5
1185.95
1172.12
1159.87
1149.18
1139.98
1132.22
1125.65
1120.42
1116.34
1113.08
1110.8
1109.41
1108.94
1108.95
1110.02
1111.06
1113.52
1115.76
1119.44
1123.92
1130.81
1140.36
1154.11
1168.96
1194.9
1366.12
3928.24
3329.22
1223.28
1298.92
1314.64
1332.28
1318.41
1303.9
1288.49
1269.24
1251.07
1232.91
1216
1200.15
1185.57
1172.38
1160.62
1150.27
1141.35
1133.84
1127.48
1122.47
1118.58
1115.47
1113.31
1112.01
1111.63
1111.67
1112.92
1113.93
1116.33
1118.36
1121.56
1125.25
1131.18
1139.74
1152.84
1167.01
1194.1
1357.83
3821.87
3249.36
1213.03
1281.12
1291.01
1301.73
1292.4
1282.55
1272.11
1258.01
1244.25
1229.21
1214.66
1200.36
1187.17
1174.98
1163.99
1154.25
1145.83
1138.72
1132.66
1127.88
1124.12
1121.04
1118.84
1117.42
1116.91
1116.76
1117.94
1118.68
1120.76
1122.32
1124.88
1127.6
1132.38
1139.95
1152.73
1166.62
1194
1343.27
3681.06
3148.1
1203.36
1265.54
1271.19
1277.3
1272.17
1266.4
1259.95
1250.14
1240.11
1227.65
1215.21
1202.55
1190.41
1178.92
1168.51
1159.28
1151.31
1144.59
1138.83
1134.3
1130.73
1127.73
1125.54
1124.06
1123.49
1123.18
1124.3
1124.71
1126.39
1127.31
1128.95
1130.26
1133.41
1139.28
1151.28
1164.37
1191.39
1322.52
3539.68
3037.53
1193.34
1249.57
1253.09
1257.81
1257.04
1255.88
1252.56
1246.1
1238.61
1228.55
1218.65
1207.53
1196.78
1186.3
1176.78
1168.37
1161.17
1155.11
1149.81
1145.52
1141.96
1138.77
1136.27
1134.36
1133.44
1132.7
1133.47
1133.36
1134.3
1134.33
1134.89
1134.64
1136.36
1140.47
1152.15
1164.82
1190.16
1295.26
3367.2
2918.42
1189.13
1241.16
1243.29
1248.64
1249.79
1252.06
1250.22
1246.84
1242.02
1233.83
1225.48
1215.36
1205.37
1195.34
1186.24
1178.23
1171.41
1165.72
1160.73
1156.76
1153.49
1150.45
1148
1146.04
1145.14
1144.28
1145.03
1144.75
1145.33
1144.69
1144.63
1143.03
1143.38
1145.13
1155.55
1168.06
1191.52
1269.74
3204.89
2772
1193.81
1242.49
1243.1
1250.24
1251.49
1257
1257.02
1254.76
1250.87
1243.64
1236.87
1227.46
1218.34
1209.08
1200.87
1193.73
1187.75
1182.78
1178.25
1174.43
1171
1167.59
1164.71
1162.23
1160.92
1159.6
1160.07
1159.57
1159.84
1158.62
1158.45
1156.03
1155.9
1157.04
1167.49
1181.76
1203.69
1255.35
3027.67
2730.75
1214.26
1255.57
1253.29
1259.79
1259.98
1267.98
1268.83
1267.52
1265.04
1258.57
1252.27
1242.99
1234.45
1225.6
1217.89
1211.06
1205.08
1199.91
1195.29
1191.97
1189.43
1186.66
1183.92
1181
1179.2
1177.08
1177.11
1176.08
1176.03
1174.03
1173.8
1170.39
1169.47
1169.71
1180.32
1197.4
1222.07
1262.76
2948.11
2673.42
1252.98
1289.94
1284.66
1285.7
1286.22
1295
1295.11
1295.92
1291.99
1284.96
1276.53
1265.67
1255.81
1245.9
1238.08
1232.13
1227.93
1224.93
1221.49
1217.94
1214.22
1210
1206.76
1203.95
1203.23
1202.45
1203.49
1203.88
1205.02
1204
1204.44
1201.35
1199.37
1198.87
1208.66
1227.34
1253.81
1283.84
2805.62
5381.43
1506.56
1402.51
1393.49
1408.77
1437.06
1469.1
1489.24
1505.37
1508.77
1507.07
1499.15
1489.29
1477.7
1466.17
1455.05
1445.6
1434.84
1429.23
1421.52
1418.39
1419.84
1417.28
1420.5
1417.89
1419.77
1417.8
1416.74
1414.51
1410.13
1403.58
1391.8
1375.43
1350.42
1323.79
1301.26
1302.85
1313.25
1486.75
5257.52
47752.4
5729.58
3317.2
3469.4
3562.23
3754.39
3896.18
4057.75
4186.12
4276.53
4360.47
4422.48
4479.49
4529.93
4579.92
4620.7
4659.96
4692.35
4701.44
4700.96
4694.22
4672.07
4659.9
4578.74
4518.13
4423.59
4337.64
4227.32
4128.62
3998.55
3880.98
3721.86
3569.07
3377.72
3200.68
3005.09
2921.07
2774.53
5095.94
43298.1
47752.4
5729.58
3317.2
3469.4
3562.23
3754.39
3896.18
4057.75
4186.12
4276.53
4360.47
4422.48
4479.49
4529.93
4579.92
4620.7
4659.96
4692.35
4701.44
4700.96
4694.22
4672.07
4659.9
4578.74
4518.13
4423.59
4337.64
4227.32
4128.62
3998.55
3880.98
3721.86
3569.07
3377.72
3200.68
3005.09
2921.07
2774.53
5095.94
43298.1
5381.43
1506.56
1402.51
1393.49
1408.77
1437.06
1469.1
1489.24
1505.37
1508.77
1507.07
1499.15
1489.29
1477.7
1466.17
1455.05
1445.6
1434.84
1429.23
1421.52
1418.39
1419.84
1417.28
1420.5
1417.89
1419.77
1417.8
1416.74
1414.51
1410.13
1403.58
1391.8
1375.43
1350.42
1323.79
1301.26
1302.85
1313.25
1486.75
5257.52
2673.42
1252.98
1289.94
1284.66
1285.7
1286.22
1295
1295.11
1295.92
1291.99
1284.96
1276.53
1265.67
1255.81
1245.9
1238.08
1232.13
1227.93
1224.93
1221.49
1217.94
1214.22
1210
1206.76
1203.95
1203.23
1202.45
1203.49
1203.88
1205.02
1204
1204.44
1201.35
1199.37
1198.87
1208.66
1227.34
1253.81
1283.84
2805.62
2730.75
1214.26
1255.57
1253.29
1259.79
1259.98
1267.98
1268.83
1267.52
1265.04
1258.57
1252.27
1242.99
1234.45
1225.6
1217.89
1211.06
1205.08
1199.91
1195.29
1191.97
1189.43
1186.66
1183.92
1181
1179.2
1177.08
1177.11
1176.08
1176.03
1174.03
1173.8
1170.39
1169.47
1169.71
1180.32
1197.4
1222.07
1262.76
2948.11
2772
1193.81
1242.49
1243.1
1250.24
1251.49
1257
1257.02
1254.76
1250.87
1243.64
1236.87
1227.46
1218.34
1209.08
1200.87
1193.73
1187.75
1182.78
1178.25
1174.43
1171
1167.59
1164.71
1162.23
1160.92
1159.6
1160.07
1159.57
1159.84
1158.62
1158.45
1156.03
1155.9
1157.04
1167.49
1181.76
1203.69
1255.35
3027.67
2918.42
1189.13
1241.16
1243.29
1248.64
1249.79
1252.06
1250.22
1246.84
1242.02
1233.83
1225.48
1215.36
1205.37
1195.34
1186.24
1178.23
1171.41
1165.72
1160.73
1156.76
1153.49
1150.45
1148
1146.04
1145.14
1144.28
1145.03
1144.75
1145.33
1144.69
1144.63
1143.03
1143.38
1145.13
1155.55
1168.06
1191.52
1269.74
3204.89
3037.53
1193.34
1249.57
1253.09
1257.81
1257.04
1255.88
1252.56
1246.1
1238.61
1228.55
1218.65
1207.53
1196.78
1186.3
1176.78
1168.37
1161.17
1155.11
1149.81
1145.52
1141.96
1138.77
1136.27
1134.36
1133.44
1132.7
1133.47
1133.36
1134.3
1134.33
1134.89
1134.64
1136.36
1140.47
1152.15
1164.82
1190.16
1295.26
3367.2
3148.1
1203.36
1265.54
1271.19
1277.3
1272.17
1266.4
1259.95
1250.14
1240.11
1227.65
1215.21
1202.55
1190.41
1178.92
1168.51
1159.28
1151.31
1144.59
1138.83
1134.3
1130.73
1127.73
1125.54
1124.06
1123.49
1123.18
1124.3
1124.71
1126.39
1127.31
1128.95
1130.26
1133.41
1139.28
1151.28
1164.37
1191.39
1322.52
3539.68
3249.36
1213.03
1281.12
1291.01
1301.73
1292.4
1282.55
1272.11
1258.01
1244.25
1229.21
1214.66
1200.36
1187.17
1174.98
1163.99
1154.25
1145.83
1138.72
1132.66
1127.88
1124.12
1121.04
1118.84
1117.42
1116.91
1116.76
1117.94
1118.68
1120.76
1122.32
1124.88
1127.6
1132.38
1139.95
1152.73
1166.62
1194
1343.27
3681.06
3329.22
1223.28
1298.92
1314.64
1332.28
1318.41
1303.9
1288.49
1269.24
1251.07
1232.91
1216
1200.15
1185.57
1172.38
1160.62
1150.27
1141.35
1133.84
1127.48
1122.47
1118.58
1115.47
1113.31
1112.01
1111.63
1111.67
1112.92
1113.93
1116.33
1118.36
1121.56
1125.25
1131.18
1139.74
1152.84
1167.01
1194.1
1357.83
3821.87
3374
1231.63
1315.9
1338.94
1365.98
1348.91
1330.59
1309.21
1283.81
1260.35
1238.55
1219.04
1201.5
1185.95
1172.12
1159.87
1149.18
1139.98
1132.22
1125.65
1120.42
1116.34
1113.08
1110.8
1109.41
1108.94
1108.95
1110.02
1111.06
1113.52
1115.76
1119.44
1123.92
1130.81
1140.36
1154.11
1168.96
1194.9
1366.12
3928.24
3409.62
1240.2
1334.48
1365.61
1403.38
1385.15
1363.63
1335.01
1301.62
1271.32
1244.99
1222.63
1203.28
1186.55
1172.01
1159.35
1148.39
1138.98
1131.04
1124.3
1118.89
1114.63
1111.22
1108.78
1107.23
1106.58
1106.46
1107.3
1108.27
1110.67
1112.99
1117.01
1122.05
1129.69
1139.81
1153.79
1168.8
1193.41
1371.45
4044.8
3387.34
1248.88
1352.31
1391.14
1441.25
1424.51
1401.84
1366.2
1323.66
1285.09
1253.23
1227.62
1206.37
1188.4
1173.03
1159.85
1148.56
1138.9
1130.74
1123.8
1118.22
1113.81
1110.28
1107.74
1106.09
1105.32
1105.13
1105.78
1106.65
1108.92
1111.23
1115.51
1120.95
1129.19
1139.68
1153.92
1169.45
1192.65
1374.64
4136.95
3413.01
1259.63
1374.44
1420.9
1480.98
1468.12
1445.24
1402.49
1349.07
1300.37
1261.61
1232.25
1209.06
1190.01
1173.93
1160.25
1148.6
1138.7
1130.35
1123.26
1117.52
1112.97
1109.34
1106.71
1104.94
1104.04
1103.72
1104.12
1104.79
1106.78
1108.92
1113.29
1118.86
1127.55
1138.3
1153
1169.04
1191.27
1376.75
4240.45
3172.68
1268.21
1398.98
1453.42
1523.75
1516.56
1493.58
1444.92
1379.79
1319.4
1271.96
1237.86
1212.31
1192.03
1175.16
1160.9
1148.81
1138.59
1130.02
1122.77
1116.9
1112.24
1108.55
1105.87
1104.08
1103.13
1102.78
1103.07
1103.66
1105.5
1107.61
1112.22
1118.08
1127.38
1138.43
1153.56
1170.28
1191.1
1379.46
4325.81
3017.21
1277.67
1430.5
1499.46
1573.55
1570.28
1543.63
1489.61
1412.85
1340.28
1282.76
1243.26
1215.21
1193.78
1176.23
1161.44
1148.96
1138.45
1129.67
1122.27
1116.28
1111.54
1107.79
1105.09
1103.29
1102.32
1101.95
1102.16
1102.67
1104.34
1106.39
1111.15
1117.15
1126.89
1138.05
1153.56
1170.72
1190.55
1379.59
4415
2811.38
1287.3
1471.28
1577.42
1641.85
1635.24
1598.13
1536.48
1448.52
1362.98
1294.27
1248.69
1217.88
1195.39
1177.24
1161.99
1149.14
1138.35
1129.38
1121.85
1115.77
1110.96
1107.18
1104.46
1102.68
1101.72
1101.35
1101.52
1102.02
1103.59
1105.64
1110.59
1116.78
1127.04
1138.4
1154.51
1172.24
1191.89
1383.32
4484.06
2591.13
1309.97
1543.03
1696.29
1739.26
1711.89
1655.54
1580.41
1482.77
1384.46
1305.7
1253.46
1220.01
1196.65
1178.1
1162.51
1149.34
1138.32
1129.19
1121.56
1115.4
1110.54
1106.73
1104.01
1102.23
1101.29
1100.94
1101.09
1101.58
1103.07
1105.13
1110.22
1116.57
1127.32
1138.8
1155.49
1173.34
1193.71
1384.45
4550.62
2442.58
1383.88
1643.31
1861.04
1870.99
1802.67
1715.97
1619.47
1512.15
1403.81
1315.54
1257.25
1221.45
1197.53
1178.78
1162.96
1149.55
1138.34
1129.09
1121.38
1115.16
1110.26
1106.43
1103.7
1101.93
1101
1100.67
1100.81
1101.3
1102.74
1104.81
1110.03
1116.51
1127.74
1139.31
1156.6
1174.11
1196.62
1391.07
4610.15
2416.9
1599.78
1865.57
2091.73
2045.36
1897.9
1764.61
1649.09
1532.21
1418.74
1322.85
1259.58
1222.17
1198.04
1179.23
1163.29
1149.74
1138.4
1129.06
1121.3
1115.05
1110.13
1106.28
1103.55
1101.78
1100.86
1100.53
1100.67
1101.16
1102.57
1104.65
1109.97
1116.53
1128.12
1139.73
1157.45
1174.38
1198.95
1397.53
4859.24
)
;

boundaryField
{
    inlet
    {
        type            fixedValue;
        value           uniform 10000;
    }
    outlet
    {
        type            fixedValue;
        value           uniform 1000;
    }
    obstacle
    {
        type            zeroGradient;
    }
    empty
    {
        type            empty;
    }
}


// ************************************************************************* //
