/*--------------------------------*- C++ -*----------------------------------*\
| =========                 |                                                 |
| \\      /  F ield         | OpenFOAM: The Open Source CFD Toolbox           |
|  \\    /   O peration     | Version:  v1912                                 |
|   \\  /    A nd           | Website:  www.openfoam.com                      |
|    \\/     M anipulation  |                                                 |
\*---------------------------------------------------------------------------*/
FoamFile
{
    version     2.0;
    format      ascii;
    class       volVectorField;
    location    "0.0001";
    object      momentum;
}
// * * * * * * * * * * * * * * * * * * * * * * * * * * * * * * * * * * * * * //

dimensions      [1 -2 -1 0 0 0 0];


internalField   nonuniform List<vector> 
1300
(
(-2.340615375 3.115854816 4.183943687)
(-0.9790998023 2.899122343 -4.044801216)
(39.63976275 0.180906575 4.675865816)
(95.10368735 8.832865907 -3.323296288)
(6.058406436 1.041137633 -3.174511578)
(14.19616841 0.5833178004 -4.603326804)
(46.74170135 -2.497379728 -0.7128915459)
(57.96998194 0.06307597074 -6.686077098)
(49.39715291 -6.552095059 -3.918881642)
(29.70399283 1.445087215 3.689671601)
(0 0 0)
(-0.4081357214 1.180604574 2.344048951)
(44.22271906 15.17728736 -0.1894802916)
(123.1781155 22.12186772 18.24813676)
(119.4625484 5.088110968 3.04185749)
(12.24198653 3.172108564 3.960275669)
(88.06831404 12.46357155 1.036512293)
(37.32576925 12.00857623 -0.7697387893)
(57.22076342 13.27185651 -1.145964961)
(27.21513433 4.823681761 -7.018288634)
(-1.922987301 3.199771776 -1.735379738)
(4.576405521 6.931855935 4.467361387)
(62.1346161 3.515794227 3.571704562)
(164.1204592 15.95087203 7.674611764)
(157.9655715 17.8888883 1.484984416)
(38.29547625 11.17993914 -3.479770458)
(83.2544907 20.93673922 -11.72999232)
(106.3484482 19.07175421 -4.342488206)
(82.28834033 9.836415439 10.07409173)
(79.31410403 7.218249795 -11.86816283)
(-1.346308058 4.178022486 -1.487510398)
(0 0 0)
(33.27287028 10.62567166 3.66187722)
(135.1682807 10.48100745 0.5442160868)
(52.42297364 0.2958489551 -2.39333876)
(55.07264776 3.420159957 -1.801545602)
(45.59372907 10.51609716 4.623496054)
(181.271181 27.45896848 5.873589978)
(26.94979102 2.41661197 2.259444788)
(48.20764142 15.76146407 -4.247960704)
(0 0 0)
(0 0 0)
(11.03972185 -1.346856945 -1.145045709)
(151.0518232 31.51253959 8.234946254)
(109.3827363 5.876293852 0.567858545)
(5.730591368 -0.2494675967 2.090012225)
(130.2356801 19.42276364 -10.91142277)
(124.0523947 32.18373362 -5.499033293)
(101.5612427 12.42557198 -8.05313822)
(47.74163594 3.008914598 -4.422912356)
(0 0 0)
(4.554773559 4.757594245 5.609386735)
(37.45037719 5.441957821 3.365076923)
(217.3394875 37.38583868 7.192956292)
(107.6502358 18.18219702 -1.649309279)
(49.42519376 0.3495921609 -1.896203297)
(51.62115921 7.077756613 2.804606528)
(137.0748636 19.68988069 -0.8124283236)
(56.56690521 10.44116469 2.490721441)
(73.97897807 25.04456245 5.230519821)
(0 0 0)
(3.319656381 2.387311209 -3.438996519)
(39.63201668 9.798689988 -3.263513345)
(141.7507116 13.97838197 6.722677875)
(65.48913382 11.87099806 0.5003284901)
(26.93472176 5.314087698 -0.2259825485)
(53.88618485 7.991493196 1.53759496)
(148.2385559 26.90457097 1.840681538)
(79.19756601 9.199055727 -0.3400437106)
(91.274205 11.99999734 3.415143718)
(0 0 0)
(0 0 0)
(38.04585451 4.196548396 0.9704294254)
(194.3114955 33.11226449 1.39749083)
(93.26487763 19.17218268 10.30000576)
(25.03718984 -0.7719447272 0.7601010944)
(74.62319883 6.666903789 -0.914950211)
(130.2496013 18.1645958 2.419221354)
(81.02315001 14.88505744 -6.358244774)
(77.3571978 16.51305417 -1.904565635)
(0.3251268249 2.944465776 -3.185070052)
(0 0 0)
(31.64536056 5.734047755 -3.150974039)
(178.580898 24.53644779 -5.402444532)
(81.63059424 16.1291671 2.566472843)
(26.29081206 5.020310642 2.190089382)
(67.04526438 16.3586623 5.659046987)
(106.013864 14.89265455 -7.55012155)
(47.44748089 2.675703212 5.274511672)
(86.45881748 20.50145754 2.482932363)
(0 0 0)
(0 0 0)
(40.14872802 4.642450946 7.202077328)
(205.8197781 25.18545567 -4.977303498)
(90.75360294 7.021339488 0.01664149687)
(13.43832111 0.4448978417 4.881172227)
(128.0943101 31.57697073 -3.050972403)
(120.6168249 21.16046443 -0.9001300969)
(120.3644152 16.85658614 -13.06051756)
(86.25782996 7.049440137 3.869126153)
(0 0 0)
(0 0 0)
(51.73307366 2.647192179 5.463632083)
(208.5972028 29.08271634 -6.332217407)
(104.1210669 17.56686772 2.940871125)
(23.52639036 2.858385283 -2.491241774)
(64.30843612 8.08097086 -3.052864636)
(141.0157867 20.56856945 -1.959939864)
(59.30547363 14.04361785 0.254557449)
(80.88077424 15.99245248 3.913774716)
(0 0 0)
(0 0 0)
(47.07224432 9.52592454 -0.01994039121)
(158.2107377 27.46905137 6.395943654)
(83.67101079 14.3071517 1.665469588)
(47.84016361 7.428865458 2.907399975)
(64.0734163 15.2046398 1.087507704)
(93.39871087 9.956882367 -0.5327728572)
(47.48064102 6.517171189 -0.6183046673)
(41.43915616 10.34410963 2.950618821)
(0 0 0)
(0 0 0)
(52.97427371 11.9090558 4.878328933)
(137.8610703 25.08100074 4.942248278)
(78.01786285 10.34626092 -3.364967355)
(58.39532131 5.748889738 -7.147353037)
(79.35720612 7.915369318 -4.917135749)
(83.29860441 7.78708598 6.472640066)
(65.70264982 13.76287361 -0.5360392753)
(62.52324357 7.704809989 -3.523473018)
(0 0 0)
(0 0 0)
(32.35609954 1.035294023 -0.8132061598)
(170.8418047 15.82885508 8.606534776)
(144.2503868 12.21997801 -3.21327695)
(33.13818188 8.967660891 -1.238306167)
(46.84989085 10.24878181 -3.017530243)
(187.2207703 21.94014801 2.335724853)
(66.21014679 11.20290266 -5.903711635)
(121.0316301 19.17314582 -5.367213691)
(0 0 0)
(0 0 0)
(22.43467989 0.8943008623 -2.308320986)
(168.6132074 22.59624532 1.350856117)
(88.89958028 9.372438721 -2.712936032)
(29.32735334 10.45558549 -2.054306532)
(90.1922336 15.51987245 -14.2685607)
(94.65564707 19.56930226 -3.508944947)
(77.22437808 13.17377097 4.497993557)
(54.39514585 5.999914459 -3.557369781)
(0 0 0)
(0 0 0)
(38.08361405 8.479796183 -2.50183353)
(230.6922917 38.86905785 -2.416449551)
(30.34367068 3.477883024 -2.687028811)
(17.25571774 -0.741752634 0.7897364602)
(110.955381 18.46098609 7.947625384)
(112.3216595 10.32990361 -1.273427371)
(111.1096257 6.799962091 -2.4985193)
(103.4781853 15.88415479 2.375657881)
(0 0 0)
(0 0 0)
(66.58646496 10.7923836 -5.886224872)
(212.6918823 30.40241574 -0.08598735033)
(66.64506839 12.36201963 2.065444414)
(38.71346626 6.947077215 0.7669001381)
(59.05006519 9.068394119 0.05275333166)
(139.7108708 33.47683624 -5.193494291)
(74.5534324 14.95428282 5.952340746)
(45.8567652 -2.462984799 -1.476235631)
(0.09289657011 3.989884748 0.4022338377)
(0 0 0)
(46.25359741 9.672355709 6.782269918)
(166.6854661 19.14272529 -8.243245751)
(68.17949669 11.29296993 -3.734544993)
(5.789089138 1.230305718 -0.9832982962)
(83.88243435 16.3683442 -0.1524249838)
(89.15602152 10.63979893 1.511589744)
(49.71603591 2.914338057 3.686287815)
(72.80519172 17.22838913 -2.20601588)
(0 0 0)
(0 0 0)
(57.90747847 6.525241927 0.4396803266)
(139.9637583 19.11471418 6.649134078)
(33.61719141 1.924535961 3.320679809)
(31.92349601 3.781999752 0.9319600791)
(74.56966494 10.24666975 -8.346745013)
(83.81683262 11.27139957 -0.7492112851)
(131.6853941 15.78699548 -5.730449537)
(38.77222627 11.07111984 -2.200702741)
(0 0 0)
(0 0 0)
(32.24093232 4.962686346 0.3271498891)
(202.8206495 47.0418682 -3.995378043)
(110.1046339 5.797145186 -8.539861787)
(42.48883908 11.55254487 2.129593178)
(74.86624881 3.897459712 1.738164077)
(160.6374131 18.41977973 0.6886953295)
(90.80018415 10.77394765 13.5912347)
(43.31992056 10.78083956 -5.883566638)
(10.97890648 11.40947616 -2.310259057)
(8.136947013 4.83065526 -0.1935202578)
(12.99686855 1.293086772 -0.6933893942)
(10.76446503 0.9440967435 4.314796534)
(4.251814971 9.608034564 -0.6892833695)
(20.35209794 -0.4510507246 -6.330696744)
(10.24132665 -0.3597710929 -3.639630163)
(12.39851822 0.5483263279 8.801105454)
(6.38622659 4.024867954 2.315863559)
(21.73627312 -3.48736298 0.03525185863)
(10.28987425 -1.838446417 4.272021524)
(10.61526365 -3.117687624 -2.889512449)
(13.13425337 -1.727385674 3.245370108)
(24.75119307 -9.958700471 -4.522527472)
(9.020468241 1.529255481 -3.996599012)
(16.73142181 -1.297386006 1.857898683)
(17.67969246 -1.489653265 2.45436154)
(-2.319778293 5.080594801 -3.011530035)
(23.78152051 -6.585632926 0.5110235581)
(15.61064497 1.38670986 -3.138084508)
(8.750766952 2.51609965 6.026605673)
(18.2765096 3.406231331 -5.397677218)
(7.071874655 0.6883724974 1.903205132)
(-0.7216149214 2.661633793 2.334836978)
(6.888555213 3.351865077 -0.7905894641)
(10.23521973 -0.2046806409 -7.804620985)
(8.758499945 8.425855491 6.490535301)
(-5.325061807 2.227848326 7.170222333)
(3.404286283 -6.28462742 2.514518129)
(1.920644819 -2.030684724 2.32633271)
(44.08028367 5.349286541 6.568645779)
(11.70341364 5.796010792 -4.64065965)
(24.52317349 -1.096800911 1.627796514)
(45.42864997 2.150489481 2.463607491)
(15.89523327 0.9782513989 -0.2283715863)
(16.51940714 -6.688237482 -0.9844949544)
(47.11537587 7.911920933 8.731886506)
(19.50692252 4.82379906 0.6866031621)
(41.41062135 -1.855548694 4.902323878)
(20.39064021 5.762889039 -5.433930044)
(29.96805988 -0.2618126018 -4.426571556)
(30.12146738 -0.1128681412 3.275336739)
(36.98028881 6.409836776 -3.508024981)
(19.49762423 8.289903815 5.299306461)
(21.15465954 10.2529271 3.680437828)
(8.558006673 5.074989141 -1.504423929)
(18.90994311 11.23353926 11.85226591)
(11.11653626 8.783516689 6.19056629)
(21.75087824 7.418759043 -3.035877057)
(24.11500766 2.94149227 -3.965931723)
(19.8120753 -0.7091402878 4.386683816)
(13.29953773 -0.7168585113 3.196763153)
(6.696338264 1.749200023 6.032263395)
(10.02467078 1.679872809 -1.209029796)
(16.50826103 4.195234145 0.9715957373)
(16.36382567 2.332348036 0.3601544385)
(17.04497087 -8.8526079 0.9020686182)
(0.4583710616 12.07348644 7.509859648)
(18.87584973 19.00188272 -8.28396569)
(8.418640228 5.246010822 4.821918613)
(84.85317656 13.74237362 -6.423048498)
(36.74656571 1.82791416 -2.962196097)
(51.3734657 5.390942058 -0.8810038642)
(48.6795444 6.026079351 0.9037286549)
(35.22172616 5.822268954 2.928378928)
(31.17459951 1.2726863 -10.70236459)
(33.23592681 3.19251251 -1.920735672)
(26.64852112 3.623946016 -10.64020302)
(2.459566306 1.782181922 2.996781223)
(26.17229091 3.936237238 1.178543512)
(15.07289773 6.646787627 3.243365534)
(37.91296851 1.674469189 -4.984853956)
(17.07283374 -0.7321151151 -3.278692135)
(25.75231764 -0.8493629531 4.4598007)
(26.17106571 9.115541057 -20.80039436)
(19.26778504 3.454700478 1.296101139)
(22.87499124 9.815492782 -1.67790342)
(18.39032242 -1.686959626 7.984353249)
(5.38823337 5.920613133 7.796958031)
(19.32305748 2.903071781 -4.613934707)
(15.7069141 5.800379144 -4.005629944)
(26.30612916 11.24823992 -12.11286093)
(20.03112805 3.198807087 -12.08764889)
(8.409861176 -0.5658396561 -2.19334429)
(19.23915279 -1.385338936 3.085430698)
(12.08011041 -0.2792022779 -4.714820147)
(12.31687063 0.3129059255 2.477467896)
(12.1897327 8.352730816 -3.34835917)
(18.68729348 -0.06851655102 4.498585487)
(19.95300647 -3.223670386 -0.4637029915)
(99.90444687 17.8829361 6.7138794)
(51.88509386 7.33618292 -10.97777557)
(38.51100519 5.318858183 0.9920539747)
(26.23970794 3.934146233 5.029509262)
(74.76370065 8.354794394 -12.93222396)
(38.93779434 2.654638801 -1.669955136)
(41.51725869 4.855763081 -4.056009952)
(62.30998493 7.23872519 -4.655737124)
(47.69431874 12.6563446 1.112747047)
(6.934213744 -1.525230429 -1.423842122)
(28.25574204 -1.052428598 1.970814872)
(66.59592137 -6.235089017 7.758328205)
(29.86979079 4.212935932 5.616955464)
(53.32246446 5.338199822 0.00243277321)
(31.99688112 16.72705427 -1.184761426)
(20.62168703 0.05523768023 -1.146853834)
(32.28844926 14.04191723 6.213802322)
(15.87600839 4.12599303 2.001644665)
(17.56612923 12.56654101 5.270337797)
(34.0271184 -5.98567659 -5.818533369)
(29.01870514 3.874760436 -0.9170797004)
(15.50093349 7.504932522 -0.176665307)
(7.800311508 1.603051876 0.4054318609)
(29.15023764 3.374322136 -20.65437795)
(10.7880814 10.11874892 4.955887388)
(1.611884572 -1.04453278 1.979722906)
(19.7828291 5.30443765 -4.678200437)
(31.34320214 8.145809633 12.08663896)
(9.542076846 1.008924581 -6.556439848)
(22.08523894 11.69382133 -0.2512551699)
(90.67714847 25.62245469 1.740699954)
(137.7296514 21.09914841 -16.03258372)
(96.12311779 16.57646404 -1.700794162)
(70.88723761 17.18327954 10.33357546)
(83.83617871 3.249505808 2.803071601)
(64.40137907 7.844294975 -1.668764633)
(70.06536777 8.613253601 -6.756612402)
(62.96818749 11.77186773 -1.007761254)
(72.50497008 12.52268676 -0.8034002234)
(47.2793388 -1.157261774 -4.914463998)
(37.76796911 21.32938209 1.827772191)
(56.40608135 6.786658103 0.271794878)
(62.00805961 6.272096465 -0.5668003771)
(57.59392893 4.143659694 12.80401132)
(21.70600126 0.3215759988 -4.353103068)
(47.99419065 9.975392539 18.18536795)
(30.01769514 8.197243212 4.123298937)
(39.83416826 10.58682438 2.743608235)
(38.81407472 12.25867685 -7.949840403)
(51.47413877 5.273215945 -6.284999954)
(21.34072525 5.13709533 -3.513423504)
(24.99155748 -2.555575073 0.3704966959)
(24.28044528 -0.2339065783 -1.592856467)
(35.07689182 12.59838691 -11.75424501)
(7.480518853 4.533143822 1.530429482)
(34.33064564 8.624166446 -0.2073939699)
(32.62240053 -14.64763482 -4.745868821)
(39.89229549 -3.04327611 3.619197567)
(17.36745753 -0.8313633887 -7.591506067)
(35.6228591 14.9507815 -1.607989407)
(107.683102 17.78232213 8.524989459)
(103.7723912 24.38417848 -5.666403735)
(112.3952574 26.2588965 1.14017007)
(97.03135476 19.23034509 0.2025785085)
(90.74225619 14.36417884 -1.761070535)
(67.91226582 18.52246393 8.140165644)
(77.23232676 9.980247186 -11.44760846)
(57.49457353 12.96715768 0.3908338926)
(57.70774261 15.73448574 0.2261459388)
(46.55410851 7.796023212 0.3157179698)
(100.1597518 -0.03501939943 16.01910887)
(37.26464221 14.02300143 -8.873848638)
(57.42055964 17.74267678 1.464841539)
(62.00651904 5.268081606 3.928023157)
(27.73760764 6.920669777 -1.191154098)
(28.96716695 5.015169934 1.712961056)
(32.07688056 -5.303882552 -0.6074636146)
(23.13629073 1.949207062 -3.872916136)
(30.56385256 6.805190172 -5.068215259)
(28.91438385 1.798398211 3.349521462)
(38.88174315 5.783483124 3.761823498)
(26.34981461 8.319343395 -1.363558404)
(31.86901011 3.84506995 -8.796717666)
(33.96904451 18.89396124 -0.02821457587)
(17.72896567 9.389499992 9.110844632)
(33.93493505 8.67423791 -2.074175708)
(29.77126928 17.52281226 -1.150352027)
(27.42433076 12.12516888 6.527864626)
(13.79589559 1.874161503 5.244632608)
(22.20104389 18.02073829 -8.99079711)
(56.39140738 8.379334236 -2.948722926)
(61.53718491 10.87647553 1.573648418)
(98.15723892 11.89869853 2.26418934)
(74.70005692 9.652915892 3.359440852)
(128.0452095 34.00031119 2.680433474)
(193.2436969 37.60311186 11.03772573)
(95.52252052 8.552406297 2.011154722)
(70.61771923 13.11240311 2.674816689)
(63.86091298 4.073723945 -6.033661809)
(57.80957444 10.38374702 -0.4073708721)
(58.47379093 5.025552919 5.571277113)
(112.5199559 10.71159392 -6.502151375)
(98.46987399 24.1865848 -7.514412274)
(64.86295069 17.48237685 -3.146732236)
(81.01152679 15.03046848 7.677113183)
(33.92894955 4.244363458 -6.160954363)
(24.81600591 1.583026283 -3.688717886)
(67.61227942 23.82930545 -4.629807919)
(38.82260269 4.93969335 -5.132235731)
(35.98734882 1.976479589 -1.698740007)
(38.46799691 5.363809198 6.104003864)
(54.47698977 0.9086737523 -0.6152046453)
(43.73733012 3.762600106 -4.541839597)
(58.64553379 4.975535306 3.230746805)
(21.37071936 4.039749649 -3.656416564)
(21.43228565 5.688305884 -3.355847081)
(22.01115598 14.13306018 1.022543916)
(19.13449887 2.989402939 7.251980009)
(7.033523215 4.316462407 -3.383692506)
(39.18926521 7.730869235 10.36328582)
(122.2741399 17.03305458 5.56434866)
(78.32045762 17.43877286 -0.251260067)
(94.26484678 11.95760998 -7.584654532)
(60.13512188 10.2444859 -5.122813652)
(79.62045955 26.55724264 -0.7398445343)
(119.9388118 19.32926161 1.590448745)
(70.00412927 18.73292161 -0.1430522681)
(56.6740264 12.51156023 -2.385782137)
(76.9112681 13.53055433 7.013699059)
(117.9682065 17.53694434 0.363072671)
(47.6959269 0.5400996725 -0.747138925)
(125.4385884 30.16155548 -7.379448993)
(79.7701586 5.184923848 -2.670522591)
(67.44955058 13.45721836 -1.191855696)
(21.21473628 7.367536521 -3.465081358)
(95.83764133 26.13210512 -1.612271165)
(76.27252666 13.98917329 -7.352404716)
(54.51329817 15.64476263 -0.6787041287)
(78.47162596 21.66056651 1.480229986)
(57.49545644 19.06617754 2.972617868)
(31.71583091 7.111852398 -2.586964064)
(40.20359699 12.42980844 1.332929283)
(43.31083617 5.852793638 2.154722478)
(86.5887647 30.0253433 4.502762278)
(26.89192187 17.65118524 0.6877939342)
(48.94730698 17.77664367 2.237042246)
(15.86880295 0.2239980103 0.7762514336)
(28.76546172 11.28904473 -1.685666758)
(27.8486263 9.9101436 -6.739049284)
(15.38422074 7.094994233 3.326290047)
(63.09731619 8.07265151 5.963244861)
(94.5791598 15.43351945 2.090370371)
(55.93802116 5.307726738 4.920279592)
(112.5914033 21.95959752 8.809213706)
(81.21530622 14.71384715 -0.2016798753)
(115.8728775 28.28279268 0.7286360827)
(100.0979626 23.93458674 -2.174038639)
(132.714311 35.56274648 3.689905197)
(115.7028086 24.79528131 -3.240928195)
(52.24153776 16.06918008 0.1173077059)
(93.52664575 22.83127637 -1.167774932)
(87.55292749 18.12818962 -8.545381045)
(106.4200112 26.59317005 3.045811446)
(42.45269752 14.26430553 -0.9894624157)
(77.9476531 13.68425765 4.729406625)
(86.36310144 10.26263697 3.259313491)
(75.27710577 13.82768663 -6.545044016)
(70.46418854 18.27616426 -3.05390678)
(88.0763178 14.37981442 4.825932314)
(64.07808952 10.98273848 1.837546777)
(61.42446387 15.22104224 0.3007879593)
(42.22466156 5.900741632 0.4687470707)
(26.68466637 6.184805011 -5.693587686)
(67.50933564 6.294480241 -1.117218202)
(46.24305525 10.28499492 -4.525187901)
(46.01384952 11.5283056 1.155230738)
(75.18020468 12.97886287 -5.907874846)
(75.66713768 5.076614151 -11.35775891)
(42.52884623 9.778200967 -4.855828179)
(61.94727703 9.351754572 4.283348146)
(53.45332701 11.28592441 -6.285373955)
(154.110634 19.82576796 5.09339188)
(55.45069736 8.149629432 -1.163598139)
(104.7227573 13.88822112 -8.631732133)
(95.53919661 15.85444035 -1.557567034)
(83.36083646 18.44918071 -3.271535829)
(101.0067311 15.05323428 -0.9609432507)
(92.39589637 24.38946232 7.812199718)
(81.66375118 10.70411584 -4.139695853)
(67.4643377 8.977690317 -1.967389067)
(39.83180282 6.928693875 -4.466521094)
(119.1909256 21.3976758 16.66816427)
(107.9004891 20.87812705 5.682884347)
(98.49494557 24.36994376 3.998284522)
(94.59640807 19.65703193 1.56401776)
(114.3866675 21.65738989 -6.236741114)
(54.18792029 11.99084352 3.496804142)
(53.75374198 4.466225385 -4.071801002)
(57.32343484 11.37265429 4.751536117)
(83.50992838 14.27899838 5.108713419)
(50.57855782 8.718925325 -4.825042806)
(31.32889274 7.899003458 -6.346594433)
(73.9655701 10.94865597 -1.519796402)
(45.73763302 7.375601957 -2.633718697)
(77.69291323 20.49754056 10.05350963)
(51.21287363 15.33535038 0.3522792993)
(66.16492923 11.9892375 -1.051051498)
(49.16269431 12.79496763 0.4721902027)
(75.74218384 6.309062368 6.695839456)
(36.68968011 7.637933913 3.005661922)
(126.3848011 14.37215309 -1.271461742)
(36.60457538 4.380502382 -1.977909986)
(56.91908645 11.20335209 -5.18105899)
(57.76462003 10.11182667 2.723058608)
(85.66036287 17.291792 -3.663779919)
(99.17893156 11.07628978 -5.930635428)
(77.57857435 21.36763948 7.122283664)
(80.35694994 10.56667175 0.2223654695)
(105.6787907 12.64377793 5.702059731)
(69.37973564 15.4528827 2.589281683)
(80.09917449 16.00752804 -3.847547909)
(56.51361983 14.30156884 -2.21019408)
(120.9422615 24.53864528 -0.3061232973)
(104.0354509 23.8357741 -7.498637473)
(133.767249 25.02495625 2.478644069)
(151.356847 23.20233107 -3.990247131)
(123.4151768 9.756515341 3.190299276)
(65.97217018 9.032770294 -1.375393257)
(96.7663807 17.53767792 -8.26305357)
(48.17158223 14.06960722 1.483613494)
(103.4903574 17.20292645 13.3071253)
(46.02114428 12.5093616 -0.4410508595)
(34.31241857 9.806862685 1.112788262)
(68.74369375 12.12227683 -6.844071747)
(71.68010035 11.11823799 2.543217468)
(83.86669202 21.39981603 -0.5538239956)
(55.47887554 4.588525148 -4.981289263)
(112.1288002 11.94664415 0.5157101869)
(74.30176955 16.56042035 -18.62979317)
(80.56151757 18.62775896 0.7740872273)
(91.8188377 12.38213736 -4.963714244)
(88.74649452 12.24725673 -3.191756708)
(70.4946355 11.8109382 -6.356544619)
(59.50364476 4.78538209 4.400347965)
(100.9769996 20.54677961 1.732263528)
(78.95475507 8.870125291 2.287711355)
(54.20131492 12.91318567 1.112356246)
(80.59332741 12.81630409 0.8222552908)
(120.6734473 25.27718098 7.035899407)
(77.9891967 19.88389191 -7.079050077)
(72.32158138 19.14789538 4.147446606)
(87.23165906 22.97225761 2.455460723)
(138.0334231 17.222963 13.55262798)
(58.16838422 12.9264124 -2.309075812)
(48.20191961 5.799934885 0.8081922631)
(117.9036388 19.82198467 3.408144268)
(103.9282656 18.06552876 4.466349776)
(120.0187239 21.68958476 7.223619218)
(128.5280971 16.97856236 -3.890292867)
(127.7168013 39.78980449 -3.112318159)
(93.8813945 8.752323692 4.865958007)
(76.27858124 25.15802256 -8.910163857)
(133.6395679 9.736515478 -6.526394248)
(64.62219821 16.54026367 3.731277933)
(50.07015842 13.58554023 -4.117778687)
(73.24628311 14.7898408 0.6186174667)
(105.0678627 21.97247223 -2.684559568)
(70.61752124 9.199086069 -6.387159269)
(58.87409916 10.52072906 3.611135755)
(68.36391757 8.963915415 6.89619071)
(76.78869921 8.567162676 -5.806193732)
(105.774898 13.54253152 9.24365515)
(72.57310994 9.377591226 -3.37419444)
(102.3336268 15.93975433 4.82508199)
(92.30175641 16.81290431 1.996052288)
(133.6761696 23.8373715 -6.873215822)
(93.95416828 19.64884263 -4.676585397)
(90.41152258 13.01406698 -0.9683749391)
(94.45132846 14.05784436 -5.029329113)
(120.3180401 14.05022493 -7.240765)
(97.68614144 12.09538485 3.675605876)
(65.45909657 9.704613117 3.087117966)
(128.2764866 14.32300357 8.388956405)
(102.2150512 25.94386332 6.489636383)
(103.0625956 26.67016119 -1.13781288)
(94.81067563 25.39058907 -9.426968988)
(129.7914878 40.69010696 -2.674005586)
(72.45506975 16.32429919 -0.7322797927)
(174.2610094 35.83187605 0.2639795948)
(136.4175796 34.28522031 3.672049758)
(135.1583345 22.48659426 -2.027645964)
(118.9501321 25.15490798 -2.751129137)
(118.7718345 17.92073503 3.635352019)
(103.4110105 23.6120306 3.465786335)
(121.8139466 16.47436379 -3.092766815)
(88.30667884 18.83099143 12.78387303)
(68.82255746 11.66650742 -0.9286395318)
(88.40777058 15.79433475 -7.040347871)
(50.26911863 14.35178185 13.68434954)
(90.82887286 12.42136531 3.468627699)
(79.62136931 5.529468595 -1.082602923)
(67.1377909 6.763402173 -0.3038364737)
(93.09725344 17.48901639 1.699688468)
(131.8801514 7.055826999 2.797767338)
(83.72458694 7.595890254 9.62012973)
(74.06817145 15.05481929 0.6638002448)
(69.16684771 13.9602663 -2.928250867)
(80.71904633 9.684898248 4.022503927)
(49.16517703 2.188336285 -1.421634068)
(54.63920588 5.629727604 10.3599934)
(78.50142762 17.10407722 1.936206951)
(80.14985206 12.57117035 -9.075053405)
(133.9367872 25.23565784 -4.460211515)
(76.68441112 25.34848523 -2.71929947)
(118.2120172 19.06495785 1.981000233)
(140.3915246 22.65012955 1.081565026)
(90.46899228 21.4123602 5.409229532)
(125.0766982 24.90896872 -4.920464059)
(72.26884433 15.03919277 2.81375125)
(79.02852704 12.0479356 -2.217003387)
(130.1950871 28.3847686 -1.691346644)
(73.06611739 18.4251532 0.0795899884)
(70.32960571 22.36297659 1.138492472)
(124.2870196 13.78772363 4.926582395)
(98.25519983 18.83097634 7.095307882)
(87.46014814 13.19278488 -5.015459676)
(129.8300719 18.33783586 -1.034305892)
(94.0235881 23.53613113 -5.721946292)
(111.5813086 18.23547938 3.009886578)
(59.66317917 6.452463755 -5.866908314)
(56.97069792 5.378176852 -5.849836698)
(82.63601769 11.63844361 -2.618256059)
(62.3493315 17.07759265 -2.553841135)
(81.96520713 10.76762556 -1.781556853)
(92.14579655 13.67077487 6.22407156)
(88.37778303 14.67959626 1.775882773)
(119.6907861 19.44262697 -3.841628435)
(108.1952839 23.37981702 3.326341786)
(92.14683779 12.42918583 5.39726093)
(92.8220451 10.06886667 -8.868456149)
(78.76594294 11.96396674 2.268847181)
(105.6462927 18.36524129 -2.333641002)
(120.0212471 23.58007537 6.563931919)
(69.13755637 13.15914135 0.3348076619)
(141.6504102 31.74414989 -0.4306517586)
(114.5351363 18.17152564 5.27891909)
(56.88510083 9.402615326 2.147052159)
(89.3502395 15.39488036 5.65136828)
(65.89390422 10.04182914 2.426470161)
(80.17983815 14.56517179 -5.344640093)
(106.9207566 23.60467313 2.535680053)
(93.46286208 17.37140972 5.59142584)
(166.9489064 32.89781957 5.449403012)
(134.7862397 36.65968909 -4.390170323)
(147.4995124 26.36858923 -2.208742285)
(64.42109803 10.81102012 2.797085078)
(51.82988033 11.35564672 1.343110707)
(62.29138728 9.838578577 -2.218661613)
(88.27555028 13.80034061 2.156618211)
(87.05470551 16.53429072 4.120050146)
(115.4752898 29.08238739 -5.038488866)
(84.82566415 11.68290658 0.1902885777)
(27.29611983 6.815841457 1.8942025)
(77.7295096 5.340565953 -2.948199413)
(75.76736282 14.8067144 -6.19921147)
(86.32385653 12.79392891 -2.228737705)
(95.89331673 12.86436229 -1.232552317)
(54.77200139 13.54707066 2.756463994)
(31.72078376 0.7952351589 -4.21618813)
(84.13486021 17.79641093 -5.308083393)
(81.66141759 6.442353061 -1.722531344)
(50.39294422 12.56542511 5.149806385)
(86.12548042 15.87589527 4.227085794)
(77.24316583 13.87103091 0.8141396473)
(92.07249232 6.138884339 0.3727739289)
(71.756868 13.20674286 -0.999476546)
(29.37230925 4.32743338 -0.1175628528)
(71.37951396 17.31451483 0.3818536543)
(123.6600385 24.84042081 3.944964513)
(75.57721716 16.50911401 -2.304758071)
(97.3174603 21.23231883 10.0673154)
(90.9083633 21.46871109 -1.113732405)
(88.05135358 13.08216632 -4.354340424)
(87.6378521 18.2470141 -6.521797974)
(130.8971426 20.10656666 0.8721638067)
(63.81866228 6.35666833 1.719880425)
(98.84191228 11.71287819 -14.7841486)
(49.28486229 10.15162799 -2.551428513)
(117.111607 17.28970031 -3.498157619)
(71.5911969 19.01405344 5.538682981)
(64.50028976 11.32980086 3.018329296)
(117.6227013 12.46504967 12.6434855)
(62.66346377 6.3524409 -4.338905882)
(103.9114947 18.33635741 -6.055561382)
(82.77188432 9.938925959 -0.3078312205)
(65.86611688 5.97306488 2.074481283)
(108.3284415 11.14852219 1.893497734)
(76.48114922 10.97984097 -1.02480047)
(67.22408295 6.313679078 2.672719205)
(46.49472952 6.856526327 4.046685939)
(109.1574707 24.04412287 3.692089995)
(71.31092679 12.86763496 -0.1627884092)
(72.67079372 10.65158104 -6.0348641)
(104.9442673 9.139711848 4.555429481)
(72.23612703 12.19536711 -6.827425733)
(74.61551177 12.16560352 -6.998005305)
(71.92561889 14.74664515 5.218738885)
(92.77241747 19.18500004 1.371541439)
(84.14637961 26.15773396 3.468979635)
(100.6434788 28.69063357 -5.905423824)
(91.03019787 19.62770004 -3.751100474)
(72.81270983 5.570373812 3.975164658)
(106.386903 34.96968255 -2.43048348)
(145.5518038 30.29376071 -1.249988701)
(122.4437332 27.55864311 1.582468923)
(173.0524276 41.03673709 -4.751892052)
(111.5045244 21.38486819 2.152326335)
(109.4454496 25.57040984 11.52712781)
(101.373966 24.4453871 2.478452969)
(129.8107785 20.66517809 1.141957626)
(83.96759491 12.77124034 -5.233546565)
(119.9635558 5.383012064 3.737618295)
(95.13181273 18.09571638 2.100203481)
(50.88734067 10.10310644 -1.988166283)
(83.35262959 6.768133336 -1.74395962)
(57.14990539 6.641735596 1.613489081)
(84.00528664 8.825716098 -1.943360435)
(91.99121754 5.6267045 -5.250931543)
(136.7393504 16.65987868 6.125231383)
(65.53291877 6.044562306 -6.517083614)
(58.09502471 5.245774284 -1.630045008)
(103.7212199 5.817835554 -7.878314314)
(92.02693228 5.286564288 -4.802544031)
(142.5178248 18.59497834 -0.8426191698)
(102.6967836 5.718797365 8.465593242)
(63.30861797 16.13688315 5.417887586)
(112.0930217 17.4835719 6.405950412)
(69.01839163 9.561146193 -1.077451893)
(94.26339965 10.87340225 2.575546594)
(98.40648681 14.0186196 1.464774448)
(59.54400852 16.07661482 -2.700910893)
(81.30388087 17.7144121 -1.521134507)
(61.6589813 8.333688642 7.570087207)
(93.03674716 17.05558413 1.707382326)
(151.3828308 32.34257728 2.159545344)
(82.32933492 6.617727614 -3.303634549)
(118.2421957 20.87115847 -5.125142955)
(59.36574452 8.170162221 -3.167830725)
(79.05370062 8.322126757 4.657813867)
(65.97917031 10.63563478 5.844536808)
(41.69459062 7.291979492 -0.2087762672)
(115.9967313 20.40413018 -3.541997331)
(87.71624545 11.62051289 2.699944235)
(86.34749976 12.97545184 -4.002415924)
(40.96918328 8.504106053 -0.725872669)
(56.08044325 11.37881612 4.034121184)
(129.3938958 18.29165633 -8.12465901)
(92.75256484 3.825352646 -2.547960137)
(100.6878592 13.88527495 4.543215915)
(53.23186666 3.828514447 5.342575065)
(88.68378412 14.37380292 1.962007897)
(141.1841523 27.47042903 -3.23494044)
(80.27023738 8.927960835 -7.093819534)
(80.149911 6.661258701 0.9417444675)
(73.50297037 6.109283258 -2.844699542)
(118.2195603 15.92541847 1.637588255)
(59.33205263 13.64039585 0.3730807844)
(81.92818543 7.636965263 -2.062352096)
(80.3080407 9.14453983 3.100970675)
(101.5819331 13.13452807 0.02694585581)
(82.31020783 13.23889128 -8.927677965)
(99.60270145 13.79729462 1.025255778)
(108.3889051 11.7803631 2.956704404)
(108.256609 18.33870648 -2.460041493)
(109.0896629 23.93601705 3.222079749)
(76.78894997 16.74172626 -0.3946518169)
(121.3993922 19.78029745 -8.638839029)
(100.6739797 25.9743212 -1.477286725)
(82.87990058 15.71459021 4.580775972)
(103.3757959 18.02708121 6.119155178)
(96.25703418 15.66028638 -0.6171701938)
(105.1266978 16.37163751 -3.268503349)
(63.73061162 6.264861864 0.3713786183)
(70.49109095 17.09037793 0.9865535018)
(82.80762436 5.381107812 -0.003224286274)
(80.30180864 15.89690878 -0.8862655082)
(64.52383265 6.577132359 1.555930694)
(99.33759584 23.6385615 -1.660690095)
(142.6901941 27.71782495 -1.200903066)
(65.60905251 10.38912211 -2.663558518)