/*--------------------------------*- C++ -*----------------------------------*\
| =========                 |                                                 |
| \\      /  F ield         | OpenFOAM: The Open Source CFD Toolbox           |
|  \\    /   O peration     | Version:  v1912                                 |
|   \\  /    A nd           | Website:  www.openfoam.com                      |
|    \\/     M anipulation  |                                                 |
\*---------------------------------------------------------------------------*/
FoamFile
{
    version     2.0;
    format      ascii;
    class       volVectorField;
    location    "8.62";
    object      U;
}
// * * * * * * * * * * * * * * * * * * * * * * * * * * * * * * * * * * * * * //

dimensions      [0 1 -1 0 0 0 0];


internalField   nonuniform List<vector> 
1900
(
(-0.00678186 -1.37841e-06 0)
(0.127386 -2.71848e-06 0)
(0.112587 -4.32934e-06 0)
(0.113045 -7.90978e-06 0)
(0.112423 -2.01358e-05 0)
(0.111518 -5.9912e-05 0)
(0.109164 -9.17356e-05 0)
(0.106208 -5.29091e-05 0)
(0.102913 0.00387847 0)
(0.0902484 0.0123525 0)
(-0.00678151 -1.48844e-06 0)
(0.127389 -1.49802e-06 0)
(0.112591 -8.72236e-07 0)
(0.113027 -4.77354e-06 0)
(0.112382 -3.16638e-05 0)
(0.11143 -9.79258e-05 0)
(0.109055 -0.000100711 0)
(0.106025 0.000116216 0)
(0.103534 0.00252277 0)
(0.103414 0.0112684 0)
(-0.00678107 -1.40545e-14 0)
(0.127391 -2.43954e-14 0)
(0.112593 -1.85487e-14 0)
(0.113009 -1.62199e-14 0)
(0.112347 -6.15434e-15 0)
(0.111347 1.97319e-15 0)
(0.108949 4.2334e-15 0)
(0.106211 6.11621e-15 0)
(0.105205 -8.20755e-16 0)
(0.11089 -1.04058e-14 0)
(-0.00678151 1.48844e-06 0)
(0.127389 1.49802e-06 0)
(0.112591 8.72236e-07 0)
(0.113027 4.77354e-06 0)
(0.112382 3.16638e-05 0)
(0.11143 9.79258e-05 0)
(0.109055 0.000100711 0)
(0.106025 -0.000116216 0)
(0.103534 -0.00252277 0)
(0.103414 -0.0112684 0)
(-0.00678186 1.37841e-06 0)
(0.127386 2.71848e-06 0)
(0.112587 4.32934e-06 0)
(0.113045 7.90978e-06 0)
(0.112423 2.01358e-05 0)
(0.111518 5.9912e-05 0)
(0.109164 9.17356e-05 0)
(0.106208 5.29091e-05 0)
(0.102913 -0.00387847 0)
(0.0902484 -0.0123525 0)
(0.0938727 0.0385825 0)
(0.129702 0.0530487 0)
(0.176384 0.0768093 0)
(0.251585 0.118211 0)
(0.395967 0.174154 0)
(0.117054 0.026923 0)
(0.141592 0.0286763 0)
(0.171647 0.0383131 0)
(0.234708 0.0603036 0)
(0.376391 0.102341 0)
(0.127221 -1.14983e-14 0)
(0.150225 -2.83201e-14 0)
(0.181347 2.95568e-15 0)
(0.245221 -2.0265e-14 0)
(0.386049 -2.85856e-15 0)
(0.117054 -0.026923 0)
(0.141592 -0.0286763 0)
(0.171647 -0.0383131 0)
(0.234708 -0.0603036 0)
(0.376391 -0.102341 0)
(0.0938727 -0.0385825 0)
(0.129702 -0.0530487 0)
(0.176384 -0.0768093 0)
(0.251585 -0.118211 0)
(0.395967 -0.174154 0)
(0.848381 0.0300952 0)
(1.11133 -0.0520618 0)
(1.26855 -0.0833919 0)
(1.35367 -0.0959752 0)
(1.44911 -0.106587 0)
(0.821773 -0.017789 0)
(1.12395 -0.048458 0)
(1.30022 -0.0597459 0)
(1.38694 -0.0602188 0)
(1.47907 -0.0811384 0)
(0.817944 5.63833e-16 0)
(1.12802 5.4643e-15 0)
(1.29562 -2.39075e-15 0)
(1.37832 -2.72874e-16 0)
(1.46802 7.15109e-15 0)
(0.821773 0.017789 0)
(1.12395 0.048458 0)
(1.30022 0.0597459 0)
(1.38694 0.0602188 0)
(1.47907 0.0811384 0)
(0.848381 -0.0300952 0)
(1.11133 0.0520618 0)
(1.26855 0.0833919 0)
(1.35367 0.0959752 0)
(1.44911 0.106587 0)
(1.47315 -0.0137826 0)
(1.49268 0.0495243 0)
(1.50728 0.018041 0)
(1.52077 -0.0113551 0)
(1.53321 -0.0193362 0)
(1.54678 -0.0187088 0)
(1.56282 -0.01721 0)
(1.58028 -0.0166126 0)
(1.59759 -0.00635935 0)
(1.62768 -0.00843264 0)
(1.66381 -0.0106376 0)
(1.65063 -0.00436466 0)
(1.59097 -0.00398888 0)
(1.3892 -0.00392013 0)
(1.2421 -0.00652318 0)
(1.23114 -0.00331211 0)
(1.22866 -0.00623496 0)
(1.21984 -0.0139681 0)
(1.18617 -0.0262563 0)
(1.12644 -0.0459433 0)
(1.05354 -0.0525724 0)
(0.982215 -0.0480228 0)
(0.913511 -0.0423368 0)
(0.845622 -0.0376762 0)
(0.773217 -0.031573 0)
(0.667549 -0.0249636 0)
(0.457752 -0.0170945 0)
(0.212207 -0.00998898 0)
(0.00919365 -0.00938858 0)
(-0.193791 -0.00944293 0)
(-0.269068 -0.00939803 0)
(-0.301523 -0.00919361 0)
(-0.323249 -0.0092198 0)
(-0.340768 -0.00943969 0)
(-0.353902 -0.00996187 0)
(-0.363494 -0.0109653 0)
(-0.373098 -0.0122654 0)
(-0.383356 -0.0122273 0)
(-0.390266 -0.0112491 0)
(-0.39615 -0.00924987 0)
(1.4795 -0.0127438 0)
(1.45882 0.0369759 0)
(1.45578 0.0392833 0)
(1.4813 0.0119237 0)
(1.49766 -0.00630604 0)
(1.51582 -0.0207285 0)
(1.53888 -0.0254461 0)
(1.56125 -0.0266149 0)
(1.58215 -0.0198918 0)
(1.61802 -0.0216542 0)
(1.65489 -0.0201976 0)
(1.64616 -0.0144162 0)
(1.58094 -0.0139385 0)
(1.3712 -0.011497 0)
(1.23879 -0.00863181 0)
(1.23009 -0.00563051 0)
(1.23277 -0.00446427 0)
(1.23361 -0.00570929 0)
(1.20919 -0.0139283 0)
(1.14632 -0.0246581 0)
(1.06051 -0.0256753 0)
(0.978638 -0.0225409 0)
(0.91116 -0.0189439 0)
(0.850127 -0.0168599 0)
(0.78135 -0.0166204 0)
(0.674125 -0.0146055 0)
(0.462611 -0.00802847 0)
(0.213581 -0.00471898 0)
(0.00942261 -0.00467162 0)
(-0.193589 -0.00473205 0)
(-0.268612 -0.00468739 0)
(-0.300848 -0.00458632 0)
(-0.322338 -0.00460941 0)
(-0.339687 -0.00473661 0)
(-0.352887 -0.00501071 0)
(-0.362994 -0.00552054 0)
(-0.373662 -0.006173 0)
(-0.384863 -0.00616524 0)
(-0.392104 -0.00566097 0)
(-0.397933 -0.00465235 0)
(1.47621 -1.00637e-14 0)
(1.45896 -1.40477e-14 0)
(1.43553 -4.99134e-14 0)
(1.47004 -5.69278e-14 0)
(1.48334 -5.16054e-14 0)
(1.5052 -3.79056e-14 0)
(1.53231 -2.64304e-14 0)
(1.5559 -3.96767e-14 0)
(1.5781 -3.81232e-14 0)
(1.61528 -4.65576e-14 0)
(1.65165 -4.1786e-14 0)
(1.64423 -1.95221e-16 0)
(1.5767 4.26582e-14 0)
(1.36462 9.02948e-14 0)
(1.23805 -2.55383e-14 0)
(1.23044 -4.6441e-14 0)
(1.23484 -1.77831e-13 0)
(1.2376 -8.55425e-13 0)
(1.21218 -1.10586e-12 0)
(1.14482 -7.262e-13 0)
(1.06044 1.9012e-13 0)
(0.985355 6.1908e-13 0)
(0.918622 3.37957e-13 0)
(0.858343 4.81972e-14 0)
(0.790197 2.34324e-13 0)
(0.676854 5.7582e-13 0)
(0.460618 4.01077e-13 0)
(0.212719 -4.93084e-13 0)
(0.00930623 -1.37614e-12 0)
(-0.193651 -1.17406e-12 0)
(-0.268621 -3.94531e-13 0)
(-0.300718 2.79327e-13 0)
(-0.322051 7.65737e-13 0)
(-0.339251 5.46675e-13 0)
(-0.352308 3.82879e-13 0)
(-0.362261 3.86407e-13 0)
(-0.372799 -2.45212e-14 0)
(-0.384012 -3.63136e-13 0)
(-0.391394 -8.86317e-14 0)
(-0.397465 4.10402e-14 0)
(1.4795 0.0127438 0)
(1.45882 -0.0369759 0)
(1.45578 -0.0392833 0)
(1.4813 -0.0119237 0)
(1.49766 0.00630604 0)
(1.51582 0.0207285 0)
(1.53888 0.0254461 0)
(1.56125 0.0266149 0)
(1.58215 0.0198918 0)
(1.61802 0.0216542 0)
(1.65489 0.0201976 0)
(1.64616 0.0144162 0)
(1.58094 0.0139385 0)
(1.3712 0.011497 0)
(1.23879 0.00863181 0)
(1.23009 0.00563051 0)
(1.23277 0.00446427 0)
(1.23361 0.00570929 0)
(1.20919 0.0139283 0)
(1.14632 0.0246581 0)
(1.06051 0.0256753 0)
(0.978638 0.0225409 0)
(0.91116 0.0189439 0)
(0.850127 0.0168599 0)
(0.78135 0.0166204 0)
(0.674125 0.0146055 0)
(0.462611 0.00802847 0)
(0.213581 0.00471898 0)
(0.00942261 0.00467162 0)
(-0.193589 0.00473205 0)
(-0.268612 0.00468739 0)
(-0.300848 0.00458632 0)
(-0.322338 0.00460941 0)
(-0.339687 0.00473661 0)
(-0.352887 0.00501071 0)
(-0.362994 0.00552054 0)
(-0.373662 0.006173 0)
(-0.384863 0.00616524 0)
(-0.392104 0.00566097 0)
(-0.397933 0.00465235 0)
(1.47315 0.0137826 0)
(1.49268 -0.0495243 0)
(1.50728 -0.018041 0)
(1.52077 0.0113551 0)
(1.53321 0.0193362 0)
(1.54678 0.0187088 0)
(1.56282 0.01721 0)
(1.58028 0.0166126 0)
(1.59759 0.00635935 0)
(1.62768 0.00843264 0)
(1.66381 0.0106376 0)
(1.65063 0.00436466 0)
(1.59097 0.00398888 0)
(1.3892 0.00392013 0)
(1.2421 0.00652318 0)
(1.23114 0.00331211 0)
(1.22866 0.00623496 0)
(1.21984 0.0139681 0)
(1.18617 0.0262563 0)
(1.12644 0.0459433 0)
(1.05354 0.0525724 0)
(0.982215 0.0480228 0)
(0.913511 0.0423368 0)
(0.845622 0.0376762 0)
(0.773217 0.031573 0)
(0.667549 0.0249636 0)
(0.457752 0.0170945 0)
(0.212207 0.00998898 0)
(0.00919365 0.00938858 0)
(-0.193791 0.00944293 0)
(-0.269068 0.00939803 0)
(-0.301523 0.00919361 0)
(-0.323249 0.0092198 0)
(-0.340768 0.00943969 0)
(-0.353902 0.00996187 0)
(-0.363494 0.0109653 0)
(-0.373098 0.0122654 0)
(-0.383356 0.0122273 0)
(-0.390266 0.0112491 0)
(-0.39615 0.00924987 0)
(1.57245 -0.0833253 0)
(1.5836 -0.0710741 0)
(1.59595 -0.0462777 0)
(1.59776 -0.030595 0)
(1.60646 0.00594429 0)
(1.60982 0.0359693 0)
(1.61314 0.0576605 0)
(1.61612 0.0742471 0)
(1.62237 0.0678766 0)
(1.63884 0.0758149 0)
(1.6657 0.0798097 0)
(1.65155 0.0466915 0)
(1.60142 0.033424 0)
(1.4058 0.0281851 0)
(1.25136 0.0254133 0)
(1.23202 0.0207124 0)
(1.21903 0.022218 0)
(1.21091 0.042059 0)
(1.18162 0.0733453 0)
(1.12305 0.0964686 0)
(1.05828 0.10177 0)
(0.994574 0.0938766 0)
(0.927695 0.0827682 0)
(0.860037 0.0725709 0)
(0.78272 0.0634578 0)
(0.664413 0.0518085 0)
(0.44682 0.0353033 0)
(0.208814 0.0205834 0)
(0.00879536 0.0195072 0)
(-0.193511 0.0196343 0)
(-0.268973 0.0195677 0)
(-0.301315 0.0192334 0)
(-0.322933 0.0193647 0)
(-0.340403 0.0197786 0)
(-0.35344 0.0205794 0)
(-0.362602 0.0220271 0)
(-0.371076 0.0241136 0)
(-0.37986 0.0241612 0)
(-0.385954 0.0226836 0)
(-0.391674 0.0187678 0)
(1.65871 0.0280125 0)
(1.66218 0.0250334 0)
(1.6678 0.00955055 0)
(1.67161 0.0178185 0)
(1.67157 0.0177235 0)
(1.66823 0.0151782 0)
(1.66586 0.0364391 0)
(1.65869 0.0472195 0)
(1.65378 0.0404986 0)
(1.65959 0.0610352 0)
(1.67323 0.0769289 0)
(1.65215 0.0449177 0)
(1.60559 0.0216543 0)
(1.40233 0.0269001 0)
(1.26517 0.0329438 0)
(1.22992 0.038522 0)
(1.20919 0.0467457 0)
(1.19564 0.0807 0)
(1.15994 0.134992 0)
(1.09803 0.173528 0)
(1.0295 0.183789 0)
(0.964923 0.171818 0)
(0.900287 0.151034 0)
(0.834951 0.130224 0)
(0.760511 0.110855 0)
(0.642993 0.0882042 0)
(0.422493 0.0594428 0)
(0.201456 0.0359768 0)
(0.00817601 0.0348458 0)
(-0.192567 0.0351424 0)
(-0.268653 0.0350688 0)
(-0.300851 0.0345611 0)
(-0.322155 0.0348148 0)
(-0.339339 0.0354531 0)
(-0.352137 0.0365562 0)
(-0.361024 0.0385262 0)
(-0.368879 0.0415134 0)
(-0.376868 0.0419855 0)
(-0.382678 0.0406311 0)
(-0.388906 0.0343864 0)
(1.68471 0.100426 0)
(1.6788 0.106212 0)
(1.67637 0.103091 0)
(1.67626 0.111941 0)
(1.67682 0.109078 0)
(1.67569 0.0996744 0)
(1.67105 0.117184 0)
(1.66616 0.115373 0)
(1.66297 0.103538 0)
(1.66265 0.132112 0)
(1.6649 0.135199 0)
(1.64046 0.0808297 0)
(1.5829 0.0524725 0)
(1.36761 0.0729914 0)
(1.2577 0.0782041 0)
(1.22141 0.080002 0)
(1.19935 0.0841656 0)
(1.17267 0.131011 0)
(1.11724 0.207952 0)
(1.0396 0.256317 0)
(0.971437 0.262315 0)
(0.915671 0.242452 0)
(0.861899 0.212635 0)
(0.804988 0.181618 0)
(0.733102 0.152608 0)
(0.610409 0.120003 0)
(0.385912 0.0794561 0)
(0.192102 0.0503442 0)
(0.00803509 0.0497551 0)
(-0.190669 0.0502824 0)
(-0.267527 0.0504356 0)
(-0.299476 0.0499435 0)
(-0.320395 0.0503887 0)
(-0.337413 0.0512592 0)
(-0.350293 0.0526445 0)
(-0.359371 0.0548825 0)
(-0.367195 0.058237 0)
(-0.374928 0.0587672 0)
(-0.380304 0.057989 0)
(-0.386638 0.0499417 0)
(1.66103 0.182645 0)
(1.66307 0.169502 0)
(1.66036 0.156133 0)
(1.65489 0.163123 0)
(1.65239 0.158886 0)
(1.65152 0.151496 0)
(1.64715 0.166067 0)
(1.64726 0.156508 0)
(1.65332 0.139011 0)
(1.65249 0.166506 0)
(1.61927 0.161227 0)
(1.59116 0.127584 0)
(1.50514 0.102784 0)
(1.32108 0.0984794 0)
(1.24661 0.102536 0)
(1.20698 0.108016 0)
(1.16736 0.124195 0)
(1.11388 0.198927 0)
(1.03978 0.29294 0)
(0.962666 0.334001 0)
(0.907956 0.327596 0)
(0.863902 0.299587 0)
(0.819724 0.263013 0)
(0.769258 0.225472 0)
(0.697965 0.188865 0)
(0.566777 0.145534 0)
(0.340879 0.0944861 0)
(0.182645 0.0643644 0)
(0.00805063 0.0648576 0)
(-0.189385 0.0659691 0)
(-0.267736 0.0666542 0)
(-0.299854 0.0664592 0)
(-0.320659 0.0671217 0)
(-0.33766 0.068153 0)
(-0.350615 0.0697193 0)
(-0.359751 0.0718786 0)
(-0.367435 0.0752298 0)
(-0.375073 0.0752155 0)
(-0.379843 0.0751181 0)
(-0.38592 0.0659096 0)
(1.60967 0.227396 0)
(1.61265 0.221172 0)
(1.61524 0.214957 0)
(1.61517 0.222668 0)
(1.61767 0.218149 0)
(1.61915 0.215347 0)
(1.61775 0.222892 0)
(1.62544 0.208701 0)
(1.64232 0.214931 0)
(1.60584 0.210877 0)
(1.58084 0.176355 0)
(1.54168 0.154309 0)
(1.43398 0.141544 0)
(1.30238 0.136434 0)
(1.24542 0.151357 0)
(1.1876 0.159982 0)
(1.12449 0.19661 0)
(1.04424 0.300391 0)
(0.953103 0.382777 0)
(0.886246 0.398894 0)
(0.845522 0.379092 0)
(0.811959 0.344326 0)
(0.77568 0.302602 0)
(0.729026 0.260537 0)
(0.655178 0.217611 0)
(0.511681 0.163791 0)
(0.292641 0.106139 0)
(0.175081 0.0796152 0)
(0.0104314 0.0810075 0)
(-0.18551 0.082653 0)
(-0.264866 0.0835851 0)
(-0.296725 0.0835995 0)
(-0.31709 0.0845104 0)
(-0.333822 0.0856506 0)
(-0.346668 0.0874887 0)
(-0.355682 0.0892079 0)
(-0.363048 0.092099 0)
(-0.37079 0.0909618 0)
(-0.37531 0.091249 0)
(-0.381298 0.0813309 0)
(1.55526 0.273532 0)
(1.55655 0.267759 0)
(1.55831 0.264957 0)
(1.56009 0.26845 0)
(1.56447 0.26449 0)
(1.5672 0.271406 0)
(1.56907 0.272519 0)
(1.58288 0.258689 0)
(1.59596 0.258854 0)
(1.56451 0.248026 0)
(1.51808 0.203356 0)
(1.47567 0.18445 0)
(1.37209 0.175717 0)
(1.27136 0.179281 0)
(1.21223 0.203685 0)
(1.13822 0.220596 0)
(1.04816 0.300163 0)
(0.946418 0.41632 0)
(0.861808 0.461978 0)
(0.8164 0.453198 0)
(0.788442 0.42215 0)
(0.762373 0.380522 0)
(0.73073 0.335393 0)
(0.684947 0.289546 0)
(0.604445 0.23946 0)
(0.445877 0.175598 0)
(0.247737 0.11493 0)
(0.168433 0.0941746 0)
(0.0118605 0.0972032 0)
(-0.184581 0.0986047 0)
(-0.265385 0.0988436 0)
(-0.297087 0.0983901 0)
(-0.317027 0.0998631 0)
(-0.333602 0.102196 0)
(-0.346674 0.105253 0)
(-0.356091 0.106981 0)
(-0.363491 0.109734 0)
(-0.371391 0.10728 0)
(-0.375618 0.107772 0)
(-0.381445 0.0973736 0)
(1.49658 0.314017 0)
(1.49768 0.310282 0)
(1.49829 0.311875 0)
(1.49934 0.313698 0)
(1.50226 0.31192 0)
(1.50414 0.315918 0)
(1.50798 0.309482 0)
(1.51869 0.300059 0)
(1.52189 0.292826 0)
(1.48369 0.276791 0)
(1.44553 0.245204 0)
(1.37908 0.21516 0)
(1.29128 0.21724 0)
(1.21665 0.242697 0)
(1.13699 0.256993 0)
(1.03874 0.314601 0)
(0.930141 0.444223 0)
(0.831868 0.518926 0)
(0.77747 0.52031 0)
(0.75187 0.493816 0)
(0.734403 0.455175 0)
(0.71442 0.408544 0)
(0.684954 0.357747 0)
(0.635925 0.308137 0)
(0.543686 0.249487 0)
(0.373635 0.169333 0)
(0.213928 0.118007 0)
(0.165047 0.105639 0)
(0.0132831 0.105229 0)
(-0.185031 0.10083 0)
(-0.265993 0.0961987 0)
(-0.296003 0.0947404 0)
(-0.314162 0.0985826 0)
(-0.329526 0.105107 0)
(-0.3415 0.112835 0)
(-0.350692 0.118945 0)
(-0.358616 0.12573 0)
(-0.367846 0.122749 0)
(-0.372082 0.123462 0)
(-0.377908 0.112884 0)
(1.42795 0.355696 0)
(1.42879 0.353219 0)
(1.4285 0.354856 0)
(1.42875 0.355929 0)
(1.42962 0.356667 0)
(1.42983 0.356903 0)
(1.43324 0.34706 0)
(1.43569 0.337705 0)
(1.42322 0.33325 0)
(1.39392 0.306354 0)
(1.35257 0.271172 0)
(1.27963 0.262314 0)
(1.19556 0.283662 0)
(1.10974 0.303522 0)
(1.00829 0.355976 0)
(0.893524 0.475417 0)
(0.787834 0.565264 0)
(0.72449 0.581364 0)
(0.701382 0.5628 0)
(0.692357 0.523983 0)
(0.682563 0.469426 0)
(0.662335 0.411616 0)
(0.627133 0.355182 0)
(0.571183 0.288135 0)
(0.465142 0.204618 0)
(0.296081 0.127842 0)
(0.188773 0.0798606 0)
(0.160433 0.0635702 0)
(-0.00276073 0.0411183 0)
(-0.1969 0.0177654 0)
(-0.265435 0.0150904 0)
(-0.287585 0.0249212 0)
(-0.300857 0.0465511 0)
(-0.315955 0.0717373 0)
(-0.330308 0.0954052 0)
(-0.342391 0.114316 0)
(-0.351027 0.130536 0)
(-0.363881 0.134897 0)
(-0.369793 0.13892 0)
(-0.376474 0.128639 0)
(1.34015 0.391418 0)
(1.34083 0.389993 0)
(1.34019 0.392896 0)
(1.34001 0.395578 0)
(1.34044 0.396794 0)
(1.34124 0.394353 0)
(1.3407 0.386727 0)
(1.33123 0.378835 0)
(1.31042 0.36172 0)
(1.27661 0.334421 0)
(1.21993 0.320205 0)
(1.1433 0.336797 0)
(1.05462 0.352601 0)
(0.949599 0.398054 0)
(0.824795 0.505452 0)
(0.718339 0.607979 0)
(0.656008 0.635277 0)
(0.64104 0.620885 0)
(0.637171 0.578604 0)
(0.630034 0.517287 0)
(0.607933 0.448124 0)
(0.576081 0.365024 0)
(0.537416 0.267973 0)
(0.46898 0.167621 0)
(0.34875 0.0555612 0)
(0.223237 -0.0500868 0)
(0.171514 -0.0882184 0)
(0.142198 -0.108812 0)
(-0.0378969 -0.143445 0)
(-0.202045 -0.14719 0)
(-0.251283 -0.123975 0)
(-0.264939 -0.0923049 0)
(-0.269892 -0.0525967 0)
(-0.282762 -0.00942484 0)
(-0.296652 0.0346069 0)
(-0.313593 0.0769513 0)
(-0.328523 0.11477 0)
(-0.350043 0.136381 0)
(-0.360787 0.149815 0)
(-0.371818 0.143762 0)
(1.22531 0.423636 0)
(1.22501 0.425007 0)
(1.22488 0.42838 0)
(1.22773 0.429165 0)
(1.23149 0.426182 0)
(1.23225 0.417765 0)
(1.22199 0.410646 0)
(1.19808 0.405174 0)
(1.16703 0.393876 0)
(1.12347 0.383137 0)
(1.06066 0.397221 0)
(0.974659 0.431995 0)
(0.865611 0.466897 0)
(0.732855 0.536855 0)
(0.631 0.635844 0)
(0.579485 0.683193 0)
(0.555014 0.665374 0)
(0.548198 0.610677 0)
(0.542973 0.518069 0)
(0.524958 0.409409 0)
(0.507259 0.29558 0)
(0.483961 0.188444 0)
(0.443473 0.0896817 0)
(0.370224 -0.0200284 0)
(0.258821 -0.137626 0)
(0.178196 -0.203484 0)
(0.159856 -0.219827 0)
(0.124872 -0.233496 0)
(-0.0427391 -0.244453 0)
(-0.179125 -0.226529 0)
(-0.223445 -0.19294 0)
(-0.234879 -0.153177 0)
(-0.233088 -0.111438 0)
(-0.244571 -0.0677585 0)
(-0.254807 -0.0227356 0)
(-0.270071 0.023853 0)
(-0.289176 0.074895 0)
(-0.318362 0.120767 0)
(-0.34131 0.152629 0)
(-0.364816 0.159979 0)
(1.07357 0.450625 0)
(1.07336 0.453558 0)
(1.0775 0.457801 0)
(1.08512 0.461993 0)
(1.08871 0.46926 0)
(1.08214 0.478262 0)
(1.06401 0.485364 0)
(1.04083 0.480484 0)
(1.00741 0.464861 0)
(0.949746 0.448335 0)
(0.864034 0.452729 0)
(0.745472 0.492448 0)
(0.612108 0.590145 0)
(0.509143 0.696025 0)
(0.454001 0.706132 0)
(0.436552 0.642995 0)
(0.438678 0.546324 0)
(0.443317 0.431489 0)
(0.446677 0.319587 0)
(0.441818 0.221068 0)
(0.426449 0.137014 0)
(0.403215 0.0517182 0)
(0.361999 -0.0496828 0)
(0.274685 -0.151644 0)
(0.184465 -0.227828 0)
(0.154693 -0.258573 0)
(0.152369 -0.266397 0)
(0.118357 -0.273213 0)
(-0.027809 -0.268982 0)
(-0.145547 -0.245965 0)
(-0.187754 -0.212717 0)
(-0.201226 -0.171782 0)
(-0.19577 -0.129428 0)
(-0.205855 -0.0861592 0)
(-0.213238 -0.0430785 0)
(-0.223054 0.00039163 0)
(-0.239749 0.0484895 0)
(-0.270504 0.0987836 0)
(-0.301866 0.146987 0)
(-0.339786 0.171962 0)
(0.869264 0.489187 0)
(0.880891 0.487788 0)
(0.892684 0.485038 0)
(0.90312 0.48018 0)
(0.908923 0.47275 0)
(0.903773 0.467744 0)
(0.887643 0.459675 0)
(0.852494 0.459709 0)
(0.787337 0.482506 0)
(0.692969 0.538038 0)
(0.572906 0.610117 0)
(0.445951 0.656062 0)
(0.338499 0.647746 0)
(0.306373 0.59809 0)
(0.315411 0.5151 0)
(0.338499 0.4201 0)
(0.360924 0.331061 0)
(0.36994 0.257188 0)
(0.366252 0.189874 0)
(0.367905 0.113975 0)
(0.366483 0.0280834 0)
(0.331042 -0.0492418 0)
(0.261896 -0.127917 0)
(0.183023 -0.216033 0)
(0.145145 -0.264472 0)
(0.143829 -0.280758 0)
(0.146013 -0.285664 0)
(0.11818 -0.288804 0)
(-0.00295378 -0.276555 0)
(-0.106891 -0.246771 0)
(-0.146522 -0.215406 0)
(-0.162546 -0.178071 0)
(-0.156779 -0.137457 0)
(-0.166822 -0.0949022 0)
(-0.17246 -0.0496682 0)
(-0.181263 -0.00205974 0)
(-0.190804 0.0508838 0)
(-0.218012 0.103015 0)
(-0.245864 0.152936 0)
(-0.289418 0.173732 0)
(0.628043 0.477731 0)
(0.642343 0.464019 0)
(0.635655 0.453865 0)
(0.617485 0.446771 0)
(0.596384 0.440317 0)
(0.567743 0.434068 0)
(0.523916 0.432548 0)
(0.460165 0.435022 0)
(0.381485 0.451108 0)
(0.30104 0.476838 0)
(0.236901 0.483404 0)
(0.203959 0.459385 0)
(0.207481 0.426806 0)
(0.225023 0.381947 0)
(0.252673 0.333722 0)
(0.274154 0.289437 0)
(0.290866 0.232396 0)
(0.309491 0.163923 0)
(0.320815 0.0933318 0)
(0.308747 0.0315895 0)
(0.281513 -0.0288606 0)
(0.234234 -0.111626 0)
(0.169573 -0.207027 0)
(0.131089 -0.264304 0)
(0.129919 -0.286887 0)
(0.136421 -0.296315 0)
(0.140853 -0.30006 0)
(0.122559 -0.301403 0)
(0.0284717 -0.283424 0)
(-0.0661991 -0.24866 0)
(-0.105593 -0.210702 0)
(-0.122486 -0.172888 0)
(-0.115057 -0.131198 0)
(-0.124949 -0.0864162 0)
(-0.12676 -0.038569 0)
(-0.137119 0.00966295 0)
(-0.138273 0.0638358 0)
(-0.163451 0.118422 0)
(-0.181236 0.161215 0)
(-0.219455 0.176671 0)
(0.320206 0.472194 0)
(0.309656 0.4449 0)
(0.287465 0.400391 0)
(0.25854 0.360338 0)
(0.227253 0.330654 0)
(0.198844 0.310595 0)
(0.177566 0.296913 0)
(0.159566 0.289773 0)
(0.146244 0.292479 0)
(0.139021 0.303859 0)
(0.136642 0.313535 0)
(0.143309 0.314511 0)
(0.164175 0.311272 0)
(0.180387 0.286776 0)
(0.209097 0.251303 0)
(0.232441 0.19954 0)
(0.247675 0.146791 0)
(0.252559 0.0914972 0)
(0.24829 0.0349738 0)
(0.230423 -0.0290081 0)
(0.196868 -0.111662 0)
(0.148263 -0.203505 0)
(0.11284 -0.26456 0)
(0.111233 -0.292173 0)
(0.12064 -0.301014 0)
(0.130475 -0.309951 0)
(0.13725 -0.312802 0)
(0.128126 -0.313959 0)
(0.0606623 -0.29587 0)
(-0.0246341 -0.259312 0)
(-0.0650202 -0.22116 0)
(-0.0814636 -0.18149 0)
(-0.0711921 -0.138781 0)
(-0.0800505 -0.0937513 0)
(-0.0767915 -0.0429594 0)
(-0.0878483 0.0132795 0)
(-0.0821058 0.0778924 0)
(-0.103493 0.140153 0)
(-0.112045 0.183588 0)
(-0.141447 0.197 0)
(0.0222846 0.44329 0)
(0.0282319 0.404463 0)
(0.0148178 0.360391 0)
(0.0060089 0.327887 0)
(0.000864936 0.306743 0)
(0.00335132 0.29439 0)
(0.0151221 0.290511 0)
(0.0349878 0.284973 0)
(0.0587157 0.274803 0)
(0.0837451 0.266993 0)
(0.105291 0.261782 0)
(0.119858 0.254446 0)
(0.136708 0.244499 0)
(0.15186 0.21392 0)
(0.170326 0.173635 0)
(0.180267 0.130874 0)
(0.186611 0.0809309 0)
(0.184832 0.0244066 0)
(0.178313 -0.0431889 0)
(0.156421 -0.123064 0)
(0.118681 -0.205468 0)
(0.0912412 -0.263639 0)
(0.0903863 -0.292439 0)
(0.100394 -0.305705 0)
(0.113966 -0.312599 0)
(0.125846 -0.321563 0)
(0.135034 -0.324061 0)
(0.133397 -0.324887 0)
(0.0910151 -0.308677 0)
(0.0181231 -0.270246 0)
(-0.023129 -0.22684 0)
(-0.0387447 -0.186099 0)
(-0.0266765 -0.140872 0)
(-0.0309881 -0.0910213 0)
(-0.0238676 -0.0376376 0)
(-0.0346902 0.0209058 0)
(-0.0225303 0.0846616 0)
(-0.0345929 0.146229 0)
(-0.0367154 0.18672 0)
(-0.0601661 0.200145 0)
(-0.157692 0.448062 0)
(-0.12427 0.417508 0)
(-0.113648 0.380145 0)
(-0.0958211 0.354529 0)
(-0.0799968 0.333874 0)
(-0.0612493 0.314442 0)
(-0.0370015 0.295156 0)
(-0.00385496 0.274996 0)
(0.0358557 0.254761 0)
(0.0752158 0.238722 0)
(0.0994035 0.219972 0)
(0.114539 0.198606 0)
(0.120033 0.173699 0)
(0.119659 0.144642 0)
(0.123322 0.106193 0)
(0.127364 0.0568909 0)
(0.130242 -0.000411645 0)
(0.125001 -0.0650141 0)
(0.107052 -0.138097 0)
(0.0800758 -0.212468 0)
(0.0629732 -0.264505 0)
(0.0665254 -0.289973 0)
(0.0784934 -0.304772 0)
(0.0923887 -0.315434 0)
(0.107484 -0.321527 0)
(0.120512 -0.33049 0)
(0.132033 -0.333026 0)
(0.137205 -0.333499 0)
(0.116804 -0.321011 0)
(0.0616127 -0.286771 0)
(0.0198359 -0.239224 0)
(0.00616448 -0.194385 0)
(0.0177994 -0.149235 0)
(0.0238262 -0.100245 0)
(0.0325806 -0.0460158 0)
(0.0250456 0.0150206 0)
(0.0384076 0.0846753 0)
(0.0348008 0.157472 0)
(0.0365885 0.207926 0)
(0.016532 0.224629 0)
(-0.217244 0.457558 0)
(-0.180381 0.424259 0)
(-0.165125 0.390617 0)
(-0.139716 0.369126 0)
(-0.116377 0.343476 0)
(-0.0896824 0.316849 0)
(-0.0596499 0.28927 0)
(-0.0240184 0.261193 0)
(0.0172405 0.234182 0)
(0.0555303 0.209235 0)
(0.0736554 0.183679 0)
(0.082028 0.157937 0)
(0.0780845 0.125771 0)
(0.072531 0.0818297 0)
(0.0728824 0.029725 0)
(0.0744616 -0.0274598 0)
(0.0714867 -0.0902505 0)
(0.0572857 -0.159179 0)
(0.0376888 -0.224404 0)
(0.0290368 -0.266541 0)
(0.0369012 -0.289071 0)
(0.0527106 -0.304286 0)
(0.0702437 -0.314765 0)
(0.086329 -0.324747 0)
(0.102194 -0.330144 0)
(0.116426 -0.3386 0)
(0.130495 -0.340938 0)
(0.141672 -0.341099 0)
(0.136736 -0.332455 0)
(0.104241 -0.304236 0)
(0.0670275 -0.257631 0)
(0.054841 -0.209179 0)
(0.0674957 -0.156381 0)
(0.0856046 -0.0999219 0)
(0.0934989 -0.0382933 0)
(0.094458 0.0253647 0)
(0.102439 0.0916766 0)
(0.107686 0.160638 0)
(0.11128 0.213812 0)
(0.0858096 0.230048 0)
(-0.215038 0.467454 0)
(-0.194618 0.448677 0)
(-0.188812 0.422201 0)
(-0.168232 0.398539 0)
(-0.144714 0.371644 0)
(-0.117331 0.342113 0)
(-0.0877716 0.312428 0)
(-0.0546902 0.280483 0)
(-0.0160619 0.248135 0)
(0.016499 0.209822 0)
(0.0343789 0.165305 0)
(0.0433551 0.116134 0)
(0.037899 0.0605181 0)
(0.0288283 -0.000572002 0)
(0.0263495 -0.0617031 0)
(0.0225423 -0.122579 0)
(0.0125851 -0.183448 0)
(-0.000171028 -0.235683 0)
(-0.00244902 -0.269141 0)
(0.00730108 -0.291462 0)
(0.0242919 -0.306768 0)
(0.0438619 -0.317182 0)
(0.0631983 -0.326377 0)
(0.0802759 -0.335299 0)
(0.0962239 -0.33953 0)
(0.110258 -0.34685 0)
(0.124602 -0.348989 0)
(0.138405 -0.351283 0)
(0.143976 -0.346625 0)
(0.136433 -0.327199 0)
(0.114344 -0.28735 0)
(0.104826 -0.234305 0)
(0.119151 -0.180449 0)
(0.142925 -0.122404 0)
(0.151188 -0.0530423 0)
(0.164625 0.0181976 0)
(0.167887 0.0939969 0)
(0.181304 0.171168 0)
(0.187513 0.238462 0)
(0.140657 0.269716 0)
(-0.234899 0.485236 0)
(-0.228314 0.479136 0)
(-0.223169 0.445004 0)
(-0.194519 0.422578 0)
(-0.174836 0.391685 0)
(-0.150119 0.365869 0)
(-0.123477 0.337911 0)
(-0.0937094 0.304604 0)
(-0.0595818 0.266244 0)
(-0.0353823 0.219007 0)
(-0.0274343 0.155188 0)
(-0.0273816 0.0798274 0)
(-0.0360361 0.000117514 0)
(-0.0404856 -0.0750979 0)
(-0.0374263 -0.140471 0)
(-0.0343365 -0.197485 0)
(-0.0321882 -0.243072 0)
(-0.0264469 -0.272673 0)
(-0.0150811 -0.293579 0)
(0.00134485 -0.306853 0)
(0.0196669 -0.318291 0)
(0.0394525 -0.328595 0)
(0.058371 -0.337063 0)
(0.0755448 -0.344293 0)
(0.092052 -0.34696 0)
(0.107169 -0.352849 0)
(0.122629 -0.354232 0)
(0.13753 -0.356811 0)
(0.150704 -0.353343 0)
(0.157456 -0.34431 0)
(0.154646 -0.314824 0)
(0.154686 -0.264017 0)
(0.162906 -0.201868 0)
(0.183232 -0.13312 0)
(0.189063 -0.0567469 0)
(0.211494 0.0185356 0)
(0.2167 0.0953996 0)
(0.244287 0.173289 0)
(0.267461 0.256827 0)
(0.224051 0.306101 0)
(-0.353262 0.546961 0)
(-0.296921 0.454735 0)
(-0.24857 0.424202 0)
(-0.212549 0.42248 0)
(-0.193785 0.426343 0)
(-0.169838 0.417753 0)
(-0.14115 0.407949 0)
(-0.110026 0.381363 0)
(-0.0851223 0.328747 0)
(-0.0680888 0.23915 0)
(-0.0629212 0.128386 0)
(-0.070658 0.0123467 0)
(-0.0741365 -0.0879439 0)
(-0.0705986 -0.163348 0)
(-0.0639948 -0.219941 0)
(-0.0560693 -0.259836 0)
(-0.0430004 -0.284837 0)
(-0.0274435 -0.300847 0)
(-0.0110639 -0.310255 0)
(0.00537178 -0.318966 0)
(0.0208536 -0.329675 0)
(0.0360243 -0.339828 0)
(0.0511342 -0.347323 0)
(0.0657923 -0.353031 0)
(0.0809289 -0.35449 0)
(0.0956301 -0.35923 0)
(0.111077 -0.359982 0)
(0.126442 -0.362151 0)
(0.141866 -0.361351 0)
(0.157519 -0.359764 0)
(0.172721 -0.345125 0)
(0.178362 -0.306385 0)
(0.178737 -0.24194 0)
(0.196441 -0.163382 0)
(0.200885 -0.0801715 0)
(0.227388 -0.000870029 0)
(0.231015 0.0712731 0)
(0.272026 0.127114 0)
(0.311768 0.214249 0)
(0.267798 0.260897 0)
(-0.353262 -0.546961 0)
(-0.296921 -0.454735 0)
(-0.24857 -0.424202 0)
(-0.212549 -0.42248 0)
(-0.193785 -0.426343 0)
(-0.169838 -0.417753 0)
(-0.14115 -0.407949 0)
(-0.110026 -0.381363 0)
(-0.0851223 -0.328747 0)
(-0.0680888 -0.23915 0)
(-0.0629212 -0.128386 0)
(-0.070658 -0.0123467 0)
(-0.0741365 0.0879439 0)
(-0.0705986 0.163348 0)
(-0.0639948 0.219941 0)
(-0.0560693 0.259836 0)
(-0.0430004 0.284837 0)
(-0.0274435 0.300847 0)
(-0.0110639 0.310255 0)
(0.00537178 0.318966 0)
(0.0208536 0.329675 0)
(0.0360243 0.339828 0)
(0.0511342 0.347323 0)
(0.0657923 0.353031 0)
(0.0809289 0.35449 0)
(0.0956301 0.35923 0)
(0.111077 0.359982 0)
(0.126442 0.362151 0)
(0.141866 0.361351 0)
(0.157519 0.359764 0)
(0.172721 0.345125 0)
(0.178362 0.306385 0)
(0.178737 0.24194 0)
(0.196441 0.163382 0)
(0.200885 0.0801715 0)
(0.227388 0.000870029 0)
(0.231015 -0.0712731 0)
(0.272026 -0.127114 0)
(0.311768 -0.214249 0)
(0.267798 -0.260897 0)
(-0.234899 -0.485236 0)
(-0.228314 -0.479136 0)
(-0.223169 -0.445004 0)
(-0.194519 -0.422578 0)
(-0.174836 -0.391685 0)
(-0.150119 -0.365869 0)
(-0.123477 -0.337911 0)
(-0.0937094 -0.304604 0)
(-0.0595818 -0.266244 0)
(-0.0353823 -0.219007 0)
(-0.0274343 -0.155188 0)
(-0.0273816 -0.0798274 0)
(-0.0360361 -0.000117514 0)
(-0.0404856 0.0750979 0)
(-0.0374263 0.140471 0)
(-0.0343365 0.197485 0)
(-0.0321882 0.243072 0)
(-0.0264469 0.272673 0)
(-0.0150811 0.293579 0)
(0.00134485 0.306853 0)
(0.0196669 0.318291 0)
(0.0394525 0.328595 0)
(0.058371 0.337063 0)
(0.0755448 0.344293 0)
(0.092052 0.34696 0)
(0.107169 0.352849 0)
(0.122629 0.354232 0)
(0.13753 0.356811 0)
(0.150704 0.353343 0)
(0.157456 0.34431 0)
(0.154646 0.314824 0)
(0.154686 0.264017 0)
(0.162906 0.201868 0)
(0.183232 0.13312 0)
(0.189063 0.0567469 0)
(0.211494 -0.0185356 0)
(0.2167 -0.0953996 0)
(0.244287 -0.173289 0)
(0.267461 -0.256827 0)
(0.224051 -0.306101 0)
(-0.215038 -0.467454 0)
(-0.194618 -0.448677 0)
(-0.188812 -0.422201 0)
(-0.168232 -0.398539 0)
(-0.144714 -0.371644 0)
(-0.117331 -0.342113 0)
(-0.0877716 -0.312428 0)
(-0.0546902 -0.280483 0)
(-0.0160619 -0.248135 0)
(0.016499 -0.209822 0)
(0.0343789 -0.165305 0)
(0.0433551 -0.116134 0)
(0.037899 -0.0605181 0)
(0.0288283 0.000572002 0)
(0.0263495 0.0617031 0)
(0.0225423 0.122579 0)
(0.0125851 0.183448 0)
(-0.000171028 0.235683 0)
(-0.00244902 0.269141 0)
(0.00730108 0.291462 0)
(0.0242919 0.306768 0)
(0.0438619 0.317182 0)
(0.0631983 0.326377 0)
(0.0802759 0.335299 0)
(0.0962239 0.33953 0)
(0.110258 0.34685 0)
(0.124602 0.348989 0)
(0.138405 0.351283 0)
(0.143976 0.346625 0)
(0.136433 0.327199 0)
(0.114344 0.28735 0)
(0.104826 0.234305 0)
(0.119151 0.180449 0)
(0.142925 0.122404 0)
(0.151188 0.0530423 0)
(0.164625 -0.0181976 0)
(0.167887 -0.0939969 0)
(0.181304 -0.171168 0)
(0.187513 -0.238462 0)
(0.140657 -0.269716 0)
(-0.217244 -0.457558 0)
(-0.180381 -0.424259 0)
(-0.165125 -0.390617 0)
(-0.139716 -0.369126 0)
(-0.116377 -0.343476 0)
(-0.0896824 -0.316849 0)
(-0.0596499 -0.28927 0)
(-0.0240184 -0.261193 0)
(0.0172405 -0.234182 0)
(0.0555303 -0.209235 0)
(0.0736554 -0.183679 0)
(0.082028 -0.157937 0)
(0.0780845 -0.125771 0)
(0.072531 -0.0818297 0)
(0.0728824 -0.029725 0)
(0.0744616 0.0274598 0)
(0.0714867 0.0902505 0)
(0.0572857 0.159179 0)
(0.0376888 0.224404 0)
(0.0290368 0.266541 0)
(0.0369012 0.289071 0)
(0.0527106 0.304286 0)
(0.0702437 0.314765 0)
(0.086329 0.324747 0)
(0.102194 0.330144 0)
(0.116426 0.3386 0)
(0.130495 0.340938 0)
(0.141672 0.341099 0)
(0.136736 0.332455 0)
(0.104241 0.304236 0)
(0.0670275 0.257631 0)
(0.054841 0.209179 0)
(0.0674957 0.156381 0)
(0.0856046 0.0999219 0)
(0.0934989 0.0382933 0)
(0.094458 -0.0253647 0)
(0.102439 -0.0916766 0)
(0.107686 -0.160638 0)
(0.11128 -0.213812 0)
(0.0858096 -0.230048 0)
(-0.157692 -0.448062 0)
(-0.12427 -0.417508 0)
(-0.113648 -0.380145 0)
(-0.0958211 -0.354529 0)