/*--------------------------------*- C++ -*----------------------------------*\
| =========                 |                                                 |
| \\      /  F ield         | OpenFOAM: The Open Source CFD Toolbox           |
|  \\    /   O peration     | Version:  v1912                                 |
|   \\  /    A nd           | Website:  www.openfoam.com                      |
|    \\/     M anipulation  |                                                 |
\*---------------------------------------------------------------------------*/
FoamFile
{
    version     2.0;
    format      ascii;
    class       volScalarField;
    location    "7.3";
    object      rho;
}
// * * * * * * * * * * * * * * * * * * * * * * * * * * * * * * * * * * * * * //

dimensions      [1 -3 0 0 0 0 0];


internalField   nonuniform List<scalar> 
1900
(
26276.2
13554.8
12952.1
12903.5
12789.1
12621.5
12462.6
12367.9
12340.3
12339.4
26276.2
13554.8
12952.1
12903.5
12789.1
12621.8
12463.1
12370.7
12342.5
12332.1
26276.2
13554.8
12952.1
12903.6
12789.1
12622.2
12463.6
12369.2
12332.9
12321.2
26276.2
13554.8
12952.1
12903.5
12789.1
12621.8
12463.1
12370.7
12342.5
12332.1
26276.2
13554.8
12952.1
12903.5
12789.1
12621.5
12462.6
12367.9
12340.3
12339.4
12473.4
12308.8
12186
11844.4
11731.9
12332.7
12219.6
12116.4
11791.2
11327.1
12299.2
12200.9
12110.4
11829.4
11396.1
12332.7
12219.6
12116.4
11791.2
11327.1
12473.4
12308.8
12186
11844.4
11731.9
6213.07
4223.02
3277.59
2742.58
2238.71
6854.1
4551.08
3461.08
2887.58
2379.99
7043.99
4508.05
3387.97
2828.61
2311.05
6854.1
4551.08
3461.08
2887.58
2379.99
6213.07
4223.02
3277.59
2742.58
2238.71
2348.49
2321.37
2267.63
2160.33
1915.39
1803.81
1929.35
2772.37
3196.27
3161.72
3139.61
3162.12
3131.79
2963.01
2686.97
2398.81
2088.37
1730.31
1439.17
1309.91
1259.52
1225.35
1194.45
1168.62
1151.4
1143.26
1141.17
1142.55
1144.91
1149.51
1155.09
1162.34
1177.15
1230.69
1493.98
1929.24
2191.71
2285.34
2394.19
2520.4
2143.25
2151.09
2162.51
2096.57
1879.08
1749.84
1864.57
2690.68
3155.03
3142.86
3130.28
3163.1
3141.24
2967.67
2695.98
2408.81
2095.67
1734.1
1440.3
1310.02
1259.48
1225.43
1194.49
1168.57
1151.3
1143.15
1141.07
1142.46
1144.84
1149.45
1155.03
1162.3
1177.08
1230.61
1493.71
1929.4
2191.61
2286.76
2393.88
2520.72
2117.22
2103.83
2117.52
2074.19
1870.88
1741.58
1844.38
2666.92
3144.58
3137.88
3127.27
3168.55
3176.05
2994.97
2701.98
2405.66
2093.42
1734.48
1440.98
1310.13
1259.48
1225.47
1194.51
1168.56
1151.26
1143.12
1141.03
1142.44
1144.81
1149.42
1155.01
1162.29
1177.05
1230.58
1493.61
1929.46
2191.56
2287.37
2393.93
2520.71
2143.25
2151.09
2162.51
2096.57
1879.08
1749.84
1864.57
2690.68
3155.03
3142.86
3130.28
3163.1
3141.24
2967.67
2695.98
2408.81
2095.67
1734.1
1440.3
1310.02
1259.48
1225.43
1194.49
1168.57
1151.3
1143.15
1141.07
1142.46
1144.84
1149.45
1155.03
1162.3
1177.08
1230.61
1493.71
1929.4
2191.61
2286.76
2393.88
2520.72
2348.49
2321.37
2267.63
2160.33
1915.39
1803.81
1929.35
2772.37
3196.27
3161.72
3139.61
3162.12
3131.79
2963.01
2686.97
2398.81
2088.37
1730.31
1439.17
1309.91
1259.52
1225.35
1194.45
1168.62
1151.4
1143.26
1141.17
1142.55
1144.91
1149.51
1155.09
1162.34
1177.15
1230.69
1493.98
1929.24
2191.71
2285.34
2394.19
2520.4
2995.43
2695.32
2487.38
2311.76
2057.31
1953.72
2091.53
2856.43
3139.86
3100.14
3089.79
3120.84
3093.43
2921.11
2657.27
2382.78
2076.59
1718.26
1432.97
1308.99
1259.58
1225.08
1194.3
1168.82
1151.83
1143.76
1141.63
1142.95
1145.27
1149.81
1155.35
1162.52
1177.38
1230.99
1494.81
1928.69
2191.33
2279.03
2393.94
2521.12
3340.19
3003.97
2684.85
2406.87
2190.59
2165.02
2368.15
2901.89
3027.86
3015.52
3039.33
3046.61
2991.94
2821.2
2582.94
2326.87
2028.15
1680.96
1417.97
1306.8
1259.44
1224.51
1193.95
1169.19
1152.8
1144.92
1142.74
1143.91
1146.13
1150.52
1155.95
1162.95
1177.83
1231.65
1496.26
1927.97
2190.44
2271.74
2392.04
2521.63
3362.89
3141.12
2865.89
2614.39
2519.87
2554.27
2715.54
2917.72
2881.69
2892.63
2939.64
2939.93
2870.54
2703.2
2486.73
2248.94
1958.59
1628.6
1398.28
1303.96
1259.04
1223.93
1193.76
1169.9
1154.3
1146.75
1144.52
1145.48
1147.54
1151.74
1156.99
1163.72
1178.62
1232.73
1497.92
1927.04
2188.71
2267.81
2390.62
2522.36
3320.99
3088.74
2840.42
2653.34
2618.69
2617.99
2690.74
2769.24
2763.98
2838.7
2845.36
2824.52
2732.98
2569.65
2376.08
2155.81
1872.83
1567.48
1377.95
1301.2
1258.52
1223.44
1193.88
1171.08
1156.37
1149.21
1146.95
1147.68
1149.56
1153.52
1158.54
1164.93
1179.87
1234.38
1500.14
1926.6
2187.4
2266.21
2390.07
2522.95
3220.66
2985.29
2810.32
2716.61
2683.79
2653.76
2646.81
2619.84
2683.08
2724.83
2737.51
2693.22
2581.84
2429.58
2260.59
2051.49
1773.42
1504.37
1360.04
1298.45
1257.64
1222.97
1194.29
1172.72
1159.01
1152.28
1150
1150.47
1152.16
1155.86
1160.62
1166.62
1181.55
1236.5
1502.25
1925.54
2185.42
2264.99
2389.53
2523.08
3070.06
2919.08
2829.71
2730.96
2628.82
2540.7
2471.26
2507.5
2592.85
2638.41
2611.05
2538.31
2426.49
2297.96
2146.6
1936.46
1666.37
1448.91
1347.15
1296.32
1256.81
1222.8
1195.27
1175.06
1162.37
1156.1
1153.8
1154.04
1155.55
1159
1163.49
1169.12
1184.17
1239.74
1506.22
1926.65
2185.21
2265.62
2390.65
2523.94
2897.71
2818.29
2707.36
2543.12
2399.97
2335.42
2378.26
2476.98
2523.52
2505.34
2460.75
2378.93
2284.66
2176.54
2027.75
1809.13
1564.16
1408.31
1337.9
1293.49
1255.27
1222.47
1196.46
1177.77
1166.15
1160.36
1158.07
1158.08
1159.45
1162.66
1166.92
1172.24
1187.27
1243.3
1509.08
1926.71
2184.47
2265.69
2391.07
2523.85
2647.91
2597.77
2443.97
2338.41
2292.31
2322.18
2382.36
2397.47
2395.41
2363.33
2303.68
2235.03
2161.01
2058.32
1897.67
1676.43
1482.35
1383.25
1332.05
1291.25
1254.17
1222.94
1198.74
1181.63
1171.04
1165.68
1163.39
1163.21
1164.4
1167.4
1171.47
1176.53
1191.75
1248.47
1514.46
1929.13
2185.28
2267.11
2392.45
2524.25
2520.35
2522.47
2418.3
2358.57
2321.5
2305.09
2299.3
2287.18
2258.51
2213.6
2163.06
2113.43
2046.29
1934.05
1758.02
1559.31
1430.7
1368.66
1326.96
1288.51
1253.27
1224.13
1201.86
1186.38
1176.82
1171.85
1169.57
1169.23
1170.23
1173.08
1177.04
1182.01
1197.38
1254.5
1519.35
1931.51
2186.77
2269.2
2393.99
2524.05
2591.81
2527.16
2454.75
2386.75
2307.58
2250.17
2200.69
2158.68
2119.72
2080.08
2045.89
2005.1
1929.7
1799.3
1623.8
1478.58
1404.46
1361.95
1324.7
1287.94
1254.93
1228.09
1207.81
1193.78
1184.98
1180.22
1177.82
1177.24
1178
1180.7
1184.57
1189.53
1205.22
1262.99
1527.42
1936.68
2190.42
2272.98
2396.67
2524.56
2600.11
2535.89
2493.41
2428.8
2294.93
2172.48
2082.67
2031.08
1996.04
1969.24
1945.67
1899.39
1806.25
1664.66
1521.7
1437
1392.21
1357.97
1323.16
1288.5
1257.75
1233.15
1214.75
1202.1
1194.02
1189.41
1186.88
1186.06
1186.63
1189.27
1193.21
1198.39
1214.36
1272.31
1534.28
1941.49
2195.3
2278.1
2399.6
2523.75
2611.3
2568.26
2544.59
2450.01
2265.35
2076.87
1962.84
1917.61
1893.13
1877.05
1851.08
1789.08
1681.57
1555.32
1465.1
1418.42
1387.43
1357.56
1324.5
1291.6
1263.11
1240.61
1223.86
1212.22
1204.54
1199.92
1197.23
1196.16
1196.62
1199.4
1203.67
1209.38
1226.21
1285.05
1546.22
1951.13
2205.3
2287.72
2406.24
2524.86
2618.13
2580.36
2569.5
2440.03
2220.55
1979.32
1858.77
1825.28
1811.03
1796.98
1757.23
1678.17
1574.86
1491.59
1444.28
1414.9
1390.22
1362.28
1331.17
1301.28
1276.34
1257.23
1243.4
1233.98
1227.79
1224.23
1222.2
1221.66
1222.57
1226.05
1230.81
1237.37
1254.97
1315.36
1577.69
1983.09
2232.38
2306.18
2415.02
2523.35
2614.87
2577.94
2557.37
2425.84
2177.31
1908.31
1792.06
1762.57
1750.08
1728.43
1677.31
1600.72
1529.5
1484.63
1460.23
1442.34
1422.54
1397.87
1371.22
1347.05
1327.9
1314.04
1304.75
1299.14
1296.14
1295.5
1295.56
1297.35
1300.29
1305.78
1311.54
1319.82
1338.94
1402.95
1671.83
2074.82
2311.84
2365.24
2443.99
2524.52
2603.75
2567.41
2541.75
2434.14
2179.56
1899.77
1789.4
1764.12
1753.07
1728.16
1682.72
1639.81
1614.07
1607
1607.4
1609.64
1607.49
1598.46
1585.59
1573.74
1566.61
1565.36
1567.22
1570.99
1575.31
1580.93
1584.92
1591.04
1596.59
1604.6
1610.48
1619.66
1640.54
1710.65
1986.81
2360.54
2541.1
2513.1
2513.82
2524.1
2580.29
2589.25
2612.92
2584.52
2373.54
2092.06
1980.05
1961.08
1959.89
1955.72
1944.11
1943.2
1952.04
1969.07
1986.4
1997.21
1997.45
1990.51
1980.17
1970.88
1965.52
1964.31
1963.05
1963.44
1964.26
1966.86
1968.37
1971.69
1974.58
1979.83
1983.68
1989.89
2010.1
2077.62
2323.23
2641.72
2804.29
2743.31
2644.84
2557.14
2569.12
2657.5
2792.37
2866.46
2718.92
2460.11
2317.11
2275.78
2261.99
2257.55
2253.74
2262.13
2272.4
2283.24
2288.7
2284.44
2271.28
2254.75
2238.86
2226.07
2216.61
2210.49
2204.66
2200.66
2197.63
2196.84
2195.98
2196.78
2197.89
2201.14
2204.42
2210.71
2226.44
2288.94
2477.21
2763.51
2937.15
2886.85
2741.35
2583.35
2559.07
2713.75
2900.23
2953.42
2819.26
2585.79
2439.65
2388.74
2366.53
2360.34
2355.92
2358.97
2362.82
2366.51
2363.92
2353.99
2339.43
2324.43
2312.79
2307.27
2307.6
2299.23
2287.67
2281.33
2278.47
2278.28
2278.09
2279.38
2281.13
2284.49
2288.21
2295.01
2306.47
2353.59
2471.34
2703.12
2873.69
2900.39
2775.12
2567.86
3590.36
2555.99
2831.02
2849.39
2752.87
2587.62
2487.6
2454.56
2438.92
2435.25
2434.43
2439.67
2446.68
2450.88
2448.95
2441.46
2430.35
2419.29
2410.67
2404.82
2401.87
2397.73
2395.99
2394.74
2394.14
2395.28
2395.94
2397.57
2399.26
2401.96
2404.4
2409.47
2415.23
2438.06
2494.35
2621.77
2731.89
2776.35
2561.52
3257.74
52493.3
3179.77
2604.23
2616.11
2564.91
2474.79
2420.94
2410.2
2410.08
2418.71
2429.86
2444.14
2459.12
2471.32
2480.54
2487.57
2492.41
2495.33
2496.7
2497.49
2498.36
2501.09
2504.9
2508.98
2512.56
2516.18
2518.24
2520.62
2522.18
2524.07
2524.44
2526.39
2525.74
2527.55
2528.21
2554.06
2583.44
2578.47
3213.39
37407
52493.3
3179.77
2604.23
2616.11
2564.91
2474.79
2420.94
2410.2
2410.08
2418.71
2429.86
2444.14
2459.12
2471.32
2480.54
2487.57
2492.41
2495.33
2496.7
2497.49
2498.36
2501.09
2504.9
2508.98
2512.56
2516.18
2518.24
2520.62
2522.18
2524.07
2524.44
2526.39
2525.74
2527.55
2528.21
2554.06
2583.44
2578.47
3213.39
37407
3590.36
2555.99
2831.02
2849.39
2752.87
2587.62
2487.6
2454.56
2438.92
2435.25
2434.43
2439.67
2446.68
2450.88
2448.95
2441.46
2430.35
2419.29
2410.67
2404.82
2401.87
2397.73
2395.99
2394.74
2394.14
2395.28
2395.94
2397.57
2399.26
2401.96
2404.4
2409.47
2415.23
2438.06
2494.35
2621.77
2731.89
2776.35
2561.52
3257.74
2559.07
2713.75
2900.23
2953.42
2819.26
2585.79
2439.65
2388.74
2366.53
2360.34
2355.92
2358.97
2362.82
2366.51
2363.92
2353.99
2339.43
2324.43
2312.79
2307.27
2307.6
2299.23
2287.67
2281.33
2278.47
2278.28
2278.09
2279.38
2281.13
2284.49
2288.21
2295.01
2306.47
2353.59
2471.34
2703.12
2873.69
2900.39
2775.12
2567.86
2569.12
2657.5
2792.37
2866.46
2718.92
2460.11
2317.11
2275.78
2261.99
2257.55
2253.74
2262.13
2272.4
2283.24
2288.7
2284.44
2271.28
2254.75
2238.86
2226.07
2216.61
2210.49
2204.66
2200.66
2197.63
2196.84
2195.98
2196.78
2197.89
2201.14
2204.42
2210.71
2226.44
2288.94
2477.21
2763.51
2937.15
2886.85
2741.35
2583.35
2580.29
2589.25
2612.92
2584.52
2373.54
2092.06
1980.05
1961.08
1959.89
1955.72
1944.11
1943.2
1952.04
1969.07
1986.4
1997.21
1997.45
1990.51
1980.17
1970.88
1965.52
1964.31
1963.05
1963.44
1964.26
1966.86
1968.37
1971.69
1974.58
1979.83
1983.68
1989.89
2010.1
2077.62
2323.23
2641.72
2804.29
2743.31
2644.84
2557.14
2603.75
2567.41
2541.75
2434.14
2179.56
1899.77
1789.4
1764.12
1753.07
1728.16
1682.72
1639.81
1614.07
1607
1607.4
1609.64
1607.49
1598.46
1585.59
1573.74
1566.61
1565.36
1567.22
1570.99
1575.31
1580.93
1584.92
1591.04
1596.59
1604.6
1610.48
1619.66
1640.54
1710.65
1986.81
2360.54
2541.1
2513.1
2513.82
2524.1
2614.87
2577.94
2557.37
2425.84
2177.31
1908.31
1792.06
1762.57
1750.08
1728.43
1677.31
1600.72
1529.5
1484.63
1460.23
1442.34
1422.54
1397.87
1371.22
1347.05
1327.9
1314.04
1304.75
1299.14
1296.14
1295.5
1295.56
1297.35
1300.29
1305.78
1311.54
1319.82
1338.94
1402.95
1671.83
2074.82
2311.84
2365.24
2443.99
2524.52
2618.13
2580.36
2569.5
2440.03
2220.55
1979.32
1858.77
1825.28
1811.03
1796.98
1757.23
1678.17
1574.86
1491.59
1444.28
1414.9
1390.22
1362.28
1331.17
1301.28
1276.34
1257.23
1243.4
1233.98
1227.79
1224.23
1222.2
1221.66
1222.57
1226.05
1230.81
1237.37
1254.97
1315.36
1577.69
1983.09
2232.38
2306.18
2415.02
2523.35
2611.3
2568.26
2544.59
2450.01
2265.35
2076.87
1962.84
1917.61
1893.13
1877.05
1851.08
1789.08
1681.57
1555.32
1465.1
1418.42
1387.43
1357.56
1324.5
1291.6
1263.11
1240.61
1223.86
1212.22
1204.54
1199.92
1197.23
1196.16
1196.62
1199.4
1203.67
1209.38
1226.21
1285.05
1546.22
1951.13
2205.3
2287.72
2406.24
2524.86
2600.11
2535.89
2493.41
2428.8
2294.93
2172.48
2082.67
2031.08
1996.04
1969.24
1945.67
1899.39
1806.25
1664.66
1521.7
1437
1392.21
1357.97
1323.16
1288.5
1257.75
1233.15
1214.75
1202.1
1194.02
1189.41
1186.88
1186.06
1186.63
1189.27
1193.21
1198.39
1214.36
1272.31
1534.28
1941.49
2195.3
2278.1
2399.6
2523.75
2591.81
2527.16
2454.75
2386.75
2307.58
2250.17
2200.69
2158.68
2119.72
2080.08
2045.89
2005.1
1929.7
1799.3
1623.8
1478.58
1404.46
1361.95
1324.7
1287.94
1254.93
1228.09
1207.81
1193.78
1184.98
1180.22
1177.82
1177.24
1178
1180.7
1184.57
1189.53
1205.22
1262.99
1527.42
1936.68
2190.42
2272.98
2396.67
2524.56
2520.35
2522.47
2418.3
2358.57
2321.5
2305.09
2299.3
2287.18
2258.51
2213.6
2163.06
2113.43
2046.29
1934.05
1758.02
1559.31
1430.7
1368.66
1326.96
1288.51
1253.27
1224.13
1201.86
1186.38
1176.82
1171.85
1169.57
1169.23
1170.23
1173.08
1177.04
1182.01
1197.38
1254.5
1519.35
1931.51
2186.77
2269.2
2393.99
2524.05
2647.91
2597.77
2443.97
2338.41
2292.31
2322.18
2382.36
2397.47
2395.41
2363.33
2303.68
2235.03
2161.01
2058.32
1897.67
1676.43
1482.35
1383.25
1332.05
1291.25
1254.17
1222.94
1198.74
1181.63
1171.04
1165.68
1163.39
1163.21
1164.4
1167.4
1171.47
1176.53
1191.75
1248.47
1514.46
1929.13
2185.28
2267.11
2392.45
2524.25
2897.71
2818.29
2707.36
2543.12
2399.97
2335.42
2378.26
2476.98
2523.52
2505.34
2460.75
2378.93
2284.66
2176.54
2027.75
1809.13
1564.16
1408.31
1337.9
1293.49
1255.27
1222.47
1196.46
1177.77
1166.15
1160.36
1158.07
1158.08
1159.45
1162.66
1166.92
1172.24
1187.27
1243.3
1509.08
1926.71
2184.47
2265.69
2391.07
2523.85
3070.06
2919.08
2829.71
2730.96
2628.82
2540.7
2471.26
2507.5
2592.85
2638.41
2611.05
2538.31
2426.49
2297.96
2146.6
1936.46
1666.37
1448.91
1347.15
1296.32
1256.81
1222.8
1195.27
1175.06
1162.37
1156.1
1153.8
1154.04
1155.55
1159
1163.49
1169.12
1184.17
1239.74
1506.22
1926.65
2185.21
2265.62
2390.65
2523.94
3220.66
2985.29
2810.32
2716.61
2683.79
2653.76
2646.81
2619.84
2683.08
2724.83
2737.51
2693.22
2581.84
2429.58
2260.59
2051.49
1773.42
1504.37
1360.04
1298.45
1257.64
1222.97
1194.29
1172.72
1159.01
1152.28
1150
1150.47
1152.16
1155.86
1160.62
1166.62
1181.55
1236.5
1502.25
1925.54
2185.42
2264.99
2389.53
2523.08
3320.99
3088.74
2840.42
2653.34
2618.69
2617.99
2690.74
2769.24
2763.98
2838.7
2845.36
2824.52
2732.98
2569.65
2376.08
2155.81
1872.83
1567.48
1377.95
1301.2
1258.52
1223.44
1193.88
1171.08
1156.37
1149.21
1146.95
1147.68
1149.56
1153.52
1158.54
1164.93
1179.87
1234.38
1500.14
1926.6
2187.4
2266.21
2390.07
2522.95
3362.89
3141.12
2865.89
2614.39
2519.87
2554.27
2715.54
2917.72
2881.69
2892.63
2939.64
2939.93
2870.54
2703.2
2486.73
2248.94
1958.59
1628.6
1398.28
1303.96
1259.04
1223.93
1193.76
1169.9
1154.3
1146.75
1144.52
1145.48
1147.54
1151.74
1156.99
1163.72
1178.62
1232.73
1497.92
1927.04
2188.71
2267.81
2390.62
2522.36
3340.19
3003.97
2684.85
2406.87
2190.59
2165.02
2368.15
2901.89
3027.86
3015.52
3039.33
3046.61
2991.94
2821.2
2582.94
2326.87
2028.15
1680.96
1417.97
1306.8
1259.44
1224.51
1193.95
1169.19
1152.8
1144.92
1142.74
1143.91
1146.13
1150.52
1155.95
1162.95
1177.83
1231.65
1496.26
1927.97
2190.44
2271.74
2392.04
2521.63
2995.43
2695.32
2487.38
2311.76
2057.31
1953.72
2091.53
2856.43
3139.86
3100.14
3089.79
3120.84
3093.43
2921.11
2657.27
2382.78
2076.59
1718.26
1432.97
1308.99
1259.58
1225.08
1194.3
1168.82
1151.83
1143.76
1141.63
1142.95
1145.27
1149.81
1155.35
1162.52
1177.38
1230.99
1494.81
1928.69
2191.33
2279.03
2393.94
2521.12
)
;

boundaryField
{
    inlet
    {
        type            calculated;
        value           uniform 14000.1;
    }
    outlet
    {
        type            calculated;
        value           nonuniform List<scalar> 
165
(
3149.01
3490.03
3482.75
3436.16
3349.24
3178.42
2976.02
2812.04
2676.39
2614.53
2621.25
2616.39
2603.17
2593.17
2587.68
2589.56
2592.43
2619.64
3186.51
4295.44
4295.44
3337.5
2632.7
2586.47
2601.38
2632.38
2654.43
2661.17
2663.01
2662.44
2660.31
2656.91
2653.49
2651.47
2651.01
2652.07
2654.31
2656.55
2658.27
2659.85
2661.79
2663.77
2665.67
2667.13
2668.17
2668.68
2668.92
2668.64
2668.3
2667.32
2665.96
2663.15
2660.12
2654.12
2643.8
2621.35
2606.84
2638.27
3228.51
4267.42
2669.46
2668.96
2668.54
2668.08
2667.72
2667.39
2667.22
2666.67
2665.86
2664.16
2662.04
2658.23
2654.04
2646.46
2634.56
2611.86
2600.67
2638.61
3252.1
4267.42
2670.31
2670.43
2670.47
2670.43
2670.31
4267.42
3252.1
2638.61
2600.67
2611.86
2634.56
2646.46
2654.04
2658.23
2662.04
2664.16
2665.86
2666.67
2667.22
2667.39
2667.72
2668.08
2668.54
2668.96
2669.46
4295.44
3337.5
2632.7
2586.47
2601.38
2632.38
2654.43
2661.17
2663.01
2662.44
2660.31
2656.91
2653.49
2651.47
2651.01
2652.07
2654.31
2656.55
2658.27
2659.85
2661.79
2663.77
2665.67
2667.13
2668.17
2668.68
2668.92
2668.64
2668.3
2667.32
2665.96
2663.15
2660.12
2654.12
2643.8
2621.35
2606.84
2638.27
3228.51
4267.42
4295.44
3186.51
2619.64
2592.43
2589.56
2587.68
2593.17
2603.17
2616.39
2621.25
2614.53
2676.39
2812.04
2976.02
3178.42
3349.24
3436.16
3482.75
3490.03
3149.01
)
;
    }
    obstacle
    {
        type            calculated;
        value           nonuniform List<scalar> 
40
(
26276.2
13554.8
12952.1
12903.5
12789.1
12621.5
12462.6
12367.9
12340.3
12339.4
26276.2
13554.8
12952.1
12903.5
12789.1
12621.5
12462.6
12367.9
12340.3
12339.4
12473.4
12308.8
12186
11844.4
11731.9
12473.4
12308.8
12186
11844.4
11731.9
6213.07
4223.02
3277.59
2742.58
2238.71
6213.07
4223.02
3277.59
2742.58
2238.71
)
;
    }
    empty
    {
        type            empty;
    }
}


// ************************************************************************* //
