/*--------------------------------*- C++ -*----------------------------------*\
| =========                 |                                                 |
| \\      /  F ield         | OpenFOAM: The Open Source CFD Toolbox           |
|  \\    /   O peration     | Version:  v1912                                 |
|   \\  /    A nd           | Website:  www.openfoam.com                      |
|    \\/     M anipulation  |                                                 |
\*---------------------------------------------------------------------------*/
FoamFile
{
    version     2.0;
    format      ascii;
    class       volVectorField;
    location    "6.98";
    object      grad(T);
}
// * * * * * * * * * * * * * * * * * * * * * * * * * * * * * * * * * * * * * //

dimensions      [0 -1 0 1 0 0 0];


internalField   nonuniform List<vector> 
1900
(
(0.952028 3.58146e-07 0)
(-1.59755 1.81846e-06 0)
(-0.154382 1.90943e-06 0)
(0.0562165 3.49414e-06 0)
(0.0998571 1.92581e-05 0)
(0.106985 -2.27357e-05 0)
(0.073387 -3.8411e-05 0)
(0.0330856 -0.000422311 0)
(0.00798486 0.00134649 0)
(0.0231666 0.000208558 0)
(0.95203 1.30294e-06 0)
(-1.59755 4.22565e-06 0)
(-0.15438 1.6207e-06 0)
(0.0562339 4.38306e-06 0)
(0.0998308 3.52781e-05 0)
(0.106928 -6.65891e-06 0)
(0.0729874 -0.000100556 0)
(0.0344705 -0.000743214 0)
(0.00861573 -0.000175984 0)
(-0.00549584 -0.00110748 0)
(0.952033 -2.60209e-13 0)
(-1.59755 -9.79035e-13 0)
(-0.154382 -7.90383e-13 0)
(0.0562502 -5.14996e-13 0)
(0.099846 -2.33103e-13 0)
(0.10685 4.11997e-14 0)
(0.0726504 1.59378e-13 0)
(0.0330102 -1.47451e-13 0)
(0.00762059 -3.03577e-13 0)
(-0.00851189 -1.30104e-13 0)
(0.95203 -1.30294e-06 0)
(-1.59755 -4.22565e-06 0)
(-0.15438 -1.62071e-06 0)
(0.0562339 -4.38306e-06 0)
(0.0998308 -3.52781e-05 0)
(0.106928 6.65891e-06 0)
(0.0729874 0.000100556 0)
(0.0344705 0.000743214 0)
(0.00861573 0.000175984 0)
(-0.00549584 0.00110748 0)
(0.952028 -3.58147e-07 0)
(-1.59755 -1.81846e-06 0)
(-0.154382 -1.90943e-06 0)
(0.0562165 -3.49414e-06 0)
(0.0998571 -1.92581e-05 0)
(0.106985 2.27357e-05 0)
(0.073387 3.8411e-05 0)
(0.0330856 0.000422311 0)
(0.00798486 -0.00134649 0)
(0.0231666 -0.000208558 0)
(-0.0013685 -0.0234475 9.46279e-16)
(-0.00983136 -0.0194033 -1.13592e-15)
(0.10007 -0.0307152 -1.44252e-15)
(0.389895 -0.0599003 0)
(-0.513973 -0.322501 -6.5009e-15)
(-0.0191391 -0.0276497 9.42042e-16)
(-0.0028282 -0.0234947 1.13592e-15)
(0.0824817 -0.0393118 1.44252e-15)
(0.281704 -0.0652057 0)
(-0.448353 -0.357037 0)
(-0.0301706 -3.14261e-14 0)
(-0.011872 -3.80422e-14 0)
(0.0719215 -9.63735e-14 0)
(0.252922 -8.21365e-14 0)
(-0.578101 1.74247e-13 0)
(-0.0191391 0.0276497 9.42042e-16)
(-0.0028282 0.0234947 1.13592e-15)
(0.0824817 0.0393118 1.44252e-15)
(0.281704 0.0652057 0)
(-0.448353 0.357037 0)
(-0.0013685 0.0234475 -2.83036e-15)
(-0.00983136 0.0194033 -1.13592e-15)
(0.10007 0.0307152 -1.44252e-15)
(0.389895 0.0599003 -3.97533e-15)
(-0.513973 0.322501 6.5009e-15)
(-1.88667 0.451095 2.19977e-15)
(-0.961435 0.316849 -1.5911e-15)
(-0.580375 0.213382 0)
(-0.409321 0.197753 1.02425e-15)
(-0.27762 0.100888 -4.29927e-16)
(-1.68248 0.44912 -1.10668e-15)
(-1.00308 0.208117 8.00324e-16)
(-0.598472 0.108439 0)
(-0.440815 0.127225 -6.44835e-16)
(-0.316857 -0.00584142 1.08197e-16)
(-1.73447 2.73788e-14 0)
(-1.05972 -1.39e-14 0)
(-0.609735 -4.93914e-13 0)
(-0.466696 4.00375e-13 2.59467e-16)
(-0.317628 5.95994e-13 -2.16395e-16)
(-1.68248 -0.44912 -1.10668e-15)
(-1.00308 -0.208117 8.00324e-16)
(-0.598472 -0.108439 0)
(-0.440815 -0.127225 -6.44835e-16)
(-0.316857 0.00584142 1.08197e-16)
(-1.88667 -0.451095 1.10668e-15)
(-0.961435 -0.316849 -9.54244e-18)
(-0.580375 -0.213382 0)
(-0.409321 -0.197753 5.95568e-18)
(-0.27762 -0.100888 4.29927e-16)
(-0.179111 0.376844 0)
(-0.130309 0.388323 0)
(-0.151799 0.356607 0)
(-0.0935972 0.235303 0)
(0.0691673 0.147054 0)
(0.485371 0.114193 0)
(0.552283 0.24507 0)
(0.112337 0.174044 0)
(-0.103385 0.125524 0)
(-0.179493 0.0791856 0)
(-0.192546 0.0425618 0)
(-0.159655 0.0280419 0)
(-0.133855 0.023978 0)
(-0.154642 0.0198122 0)
(-0.20639 0.0168564 0)
(-0.229097 0.0136775 0)
(-0.167367 0.00676213 0)
(-0.082094 0.00143572 0)
(-0.0440192 0.000319887 0)
(-0.0354887 0.000640571 0)
(-0.0320909 0.000675876 0)
(-0.0260801 0.00015983 0)
(-0.0171697 -0.000223688 0)
(-0.00893602 -0.000339068 0)
(-0.003698 -0.000321806 0)
(-0.00120164 -0.000277304 0)
(0.000199831 -0.000243684 0)
(0.00129975 -0.000212508 0)
(0.00248521 -0.000194302 0)
(0.00403498 -0.00016555 0)
(0.00682979 -0.000146426 0)
(0.00927007 -3.58509e-05 0)
(0.0123835 -5.43047e-05 0)
(0.0281296 -2.44972e-05 0)
(0.0989851 -0.000224915 0)
(0.236641 -0.000844585 0)
(0.274969 -0.000522064 0)
(0.228671 0.00413403 0)
(0.141161 0.000858518 0)
(0.0292187 -0.00130233 0)
(-0.153362 0.0496687 0)
(-0.0906784 0.207671 0)
(-0.155903 0.270166 0)
(-0.127234 0.250091 0)
(0.0482702 0.131155 0)
(0.495302 0.148885 0)
(0.539452 0.179306 0)
(0.0779549 0.0791787 0)
(-0.120032 0.0284749 0)
(-0.185366 0.00733853 0)
(-0.190806 0.0109616 0)
(-0.154237 0.0153442 0)
(-0.132069 0.0103153 0)
(-0.156461 0.00729613 0)
(-0.208671 0.00725262 0)
(-0.231046 0.00676053 0)
(-0.168682 0.00308572 0)
(-0.0826013 0.000527377 0)
(-0.0440535 0.000130922 0)
(-0.0354551 0.000327134 0)
(-0.0321421 0.000269503 0)
(-0.026161 6.92848e-05 0)
(-0.0172137 -0.000105431 0)
(-0.00894339 -0.000150219 0)
(-0.00369206 -0.000139627 0)
(-0.00119452 -0.000120474 0)
(0.000205683 -0.000107432 0)
(0.00130406 -9.60761e-05 0)
(0.0024893 -9.02457e-05 0)
(0.00403849 -8.01952e-05 0)
(0.00684036 -7.65757e-05 0)
(0.00927663 -3.47449e-05 0)
(0.0123815 -4.82972e-05 0)
(0.0281133 -4.97617e-05 0)
(0.0988766 -0.00012142 0)
(0.236571 -0.000563324 0)
(0.275518 -0.000427305 0)
(0.22882 0.00194721 0)
(0.140569 0.000306635 0)
(0.029004 -0.000335216 0)
(-0.113594 -2.14278e-12 0)
(-0.0661646 -4.63841e-12 0)
(-0.139458 -6.81076e-12 0)
(-0.134037 2.05801e-12 0)
(0.0397255 1.22022e-12 0)
(0.499379 1.20149e-11 0)
(0.532005 1.19854e-11 0)
(0.068459 6.32977e-12 0)
(-0.124284 1.29434e-11 0)
(-0.184588 2.11124e-12 0)
(-0.190217 -1.3454e-11 0)
(-0.159843 -1.8463e-11 0)
(-0.136196 -1.01284e-11 0)
(-0.155533 -3.89721e-12 0)
(-0.206546 -5.12532e-13 0)
(-0.23031 -5.70882e-12 0)
(-0.169181 -7.80626e-12 0)
(-0.0829536 7.11631e-13 0)
(-0.0440775 8.96931e-13 0)
(-0.0354484 1.22219e-13 0)
(-0.0321659 -1.79189e-12 0)
(-0.0261891 -2.24528e-12 0)
(-0.0172336 -1.41143e-12 0)
(-0.00894596 -5.34216e-13 0)
(-0.00368935 -3.33146e-13 0)
(-0.00119228 -4.51422e-13 0)
(0.000206929 -3.84399e-13 0)
(0.00130475 -5.12532e-14 0)
(0.00248983 -3.58772e-13 0)
(0.00403896 -1.09603e-12 0)
(0.00684301 -2.3537e-12 0)
(0.00927829 -3.99972e-12 0)
(0.0123792 -3.67643e-12 0)
(0.0281083 -3.69417e-12 0)
(0.0988357 -5.10364e-12 0)
(0.236552 6.40665e-12 0)
(0.275699 -1.27936e-12 0)
(0.228884 -1.24979e-12 0)
(0.140497 1.8254e-12 0)
(0.029032 -8.00338e-13 0)
(-0.153362 -0.0496687 0)
(-0.0906784 -0.207671 0)
(-0.155903 -0.270166 0)
(-0.127234 -0.250091 0)
(0.0482702 -0.131155 0)
(0.495302 -0.148885 0)
(0.539452 -0.179306 0)
(0.0779549 -0.0791787 0)
(-0.120032 -0.0284749 0)
(-0.185366 -0.00733853 0)
(-0.190806 -0.0109616 0)
(-0.154237 -0.0153442 0)
(-0.132069 -0.0103153 0)
(-0.156461 -0.00729613 0)
(-0.208671 -0.00725262 0)
(-0.231046 -0.00676053 0)
(-0.168682 -0.00308572 0)
(-0.0826013 -0.000527377 0)
(-0.0440535 -0.000130922 0)
(-0.0354551 -0.000327134 0)
(-0.0321421 -0.000269503 0)
(-0.026161 -6.92848e-05 0)
(-0.0172137 0.000105431 0)
(-0.00894339 0.000150219 0)
(-0.00369206 0.000139627 0)
(-0.00119452 0.000120474 0)
(0.000205683 0.000107432 0)
(0.00130406 9.60761e-05 0)
(0.0024893 9.02457e-05 0)
(0.00403849 8.01952e-05 0)
(0.00684036 7.65757e-05 0)
(0.00927663 3.47449e-05 0)
(0.0123815 4.82972e-05 0)
(0.0281133 4.97617e-05 0)
(0.0988766 0.00012142 0)
(0.236571 0.000563324 0)
(0.275518 0.000427305 0)
(0.22882 -0.00194721 0)
(0.140569 -0.000306635 0)
(0.029004 0.000335216 0)
(-0.179111 -0.376844 0)
(-0.130309 -0.388323 0)
(-0.151799 -0.356607 0)
(-0.0935972 -0.235303 0)
(0.0691673 -0.147054 0)
(0.485371 -0.114193 0)
(0.552283 -0.24507 0)
(0.112337 -0.174044 0)
(-0.103385 -0.125524 0)
(-0.179493 -0.0791856 0)
(-0.192546 -0.0425618 0)
(-0.159655 -0.0280419 0)
(-0.133855 -0.023978 0)
(-0.154642 -0.0198122 0)
(-0.20639 -0.0168564 0)
(-0.229097 -0.0136775 0)
(-0.167367 -0.00676213 0)
(-0.082094 -0.00143572 0)
(-0.0440192 -0.000319887 0)
(-0.0354887 -0.000640571 0)
(-0.0320909 -0.000675876 0)
(-0.0260801 -0.00015983 0)
(-0.0171697 0.000223688 0)
(-0.00893602 0.000339068 0)
(-0.003698 0.000321806 0)
(-0.00120164 0.000277304 0)
(0.000199831 0.000243684 0)
(0.00129975 0.000212508 0)
(0.00248521 0.000194302 0)
(0.00403498 0.00016555 0)
(0.00682979 0.000146426 0)
(0.00927007 3.58509e-05 0)
(0.0123835 5.43047e-05 0)
(0.0281296 2.44972e-05 0)
(0.0989851 0.000224915 0)
(0.236641 0.000844585 0)
(0.274969 0.000522064 0)
(0.228671 -0.00413403 0)
(0.141161 -0.000858518 0)
(0.0292187 0.00130233 0)
(-0.0111847 -0.437815 0)
(-0.0321608 -0.330842 0)
(-0.0646617 -0.245896 0)
(-0.03468 -0.0969728 0)
(0.100077 -0.0527307 0)
(0.445302 0.0275864 0)
(0.487073 -0.166558 0)
(0.113189 -0.20966 0)
(-0.0797769 -0.194511 0)
(-0.140117 -0.148666 0)
(-0.156714 -0.0978624 0)
(-0.136315 -0.0539447 0)
(-0.124842 -0.033695 0)
(-0.154097 -0.028522 0)
(-0.207461 -0.027687 0)
(-0.226966 -0.0249223 0)
(-0.162523 -0.0127088 0)
(-0.0791467 -0.0028152 0)
(-0.0435944 -0.000710198 0)
(-0.0356396 -0.00110302 0)
(-0.0318997 -0.00111989 0)
(-0.0256903 -0.000326758 0)
(-0.0169516 0.000345929 0)
(-0.00889037 0.000597581 0)
(-0.00372393 0.000584767 0)
(-0.00123528 0.000506431 0)
(0.000171803 0.000445347 0)
(0.00127806 0.000391177 0)
(0.00246457 0.000356672 0)
(0.00401252 0.00031128 0)
(0.00677123 0.000264872 0)
(0.00922644 8.94072e-05 0)
(0.012372 6.22868e-05 0)
(0.0282016 4.98251e-06 0)
(0.0992655 0.000338543 0)
(0.236678 0.00102046 0)
(0.27303 0.000503158 0)
(0.228127 -0.00483997 0)
(0.143294 -0.00159694 0)
(0.0301112 0.00110231 0)
(-0.00116807 -0.127675 0)
(0.00200034 -0.11525 0)
(0.0268404 -0.0718769 0)
(0.0609505 0.0342046 0)
(0.172622 0.110491 0)
(0.397169 0.153028 0)
(0.358631 -0.0564266 0)
(0.0849451 -0.160988 0)
(-0.0572694 -0.156659 0)
(-0.107474 -0.142146 0)
(-0.120483 -0.110207 0)
(-0.110336 -0.0715479 0)
(-0.114189 -0.0549709 0)
(-0.149145 -0.0488065 0)
(-0.202347 -0.046682 0)
(-0.215807 -0.0397308 0)
(-0.148662 -0.0181928 0)
(-0.0721121 -0.0039204 0)
(-0.0425971 -0.00129271 0)
(-0.0358025 -0.00158467 0)
(-0.0314453 -0.00136866 0)
(-0.0248765 -0.000374625 0)
(-0.016396 0.000567607 0)
(-0.00873034 0.000996144 0)
(-0.00377193 0.00102026 0)
(-0.00131795 0.000914514 0)
(0.000103798 0.000818933 0)
(0.00122593 0.000730918 0)
(0.00241929 0.00067517 0)
(0.00395857 0.000610788 0)
(0.00664738 0.000538686 0)
(0.00909824 0.000300441 0)
(0.0123084 0.000188272 0)
(0.0283571 9.34313e-05 0)
(0.0998133 0.000546587 0)
(0.236779 0.00147919 0)
(0.270361 0.000588376 0)
(0.226938 -0.00420057 0)
(0.145744 -0.00215189 0)
(0.0313413 0.000438048 0)
(0.00078853 0.0541622 0)
(0.0216083 0.0626752 0)
(0.0793582 0.0958475 0)
(0.141057 0.145146 0)
(0.214579 0.218412 0)
(0.284454 0.211091 0)
(0.184476 -0.00885094 0)
(0.0166008 -0.121494 0)
(-0.0616202 -0.155008 0)
(-0.0953537 -0.141917 0)
(-0.0886828 -0.107634 0)
(-0.0830873 -0.0771701 0)
(-0.102927 -0.0646375 0)
(-0.146109 -0.0608218 0)
(-0.198715 -0.0623575 0)
(-0.199513 -0.0515958 0)
(-0.128015 -0.0208723 0)
(-0.0628612 -0.00444806 0)
(-0.0413436 -0.00188395 0)
(-0.0357128 -0.00192153 0)
(-0.0307337 -0.00139942 0)
(-0.0238244 -0.000170303 0)
(-0.0156306 0.000982981 0)
(-0.00845418 0.00155977 0)
(-0.0038026 0.00163293 0)
(-0.00142929 0.00151243 0)
(-5.1171e-06 0.00137966 0)
(0.00113953 0.00124679 0)
(0.00234881 0.00116666 0)
(0.003881 0.00107912 0)
(0.00647217 0.000983967 0)
(0.00888877 0.000681271 0)
(0.0121726 0.000472432 0)
(0.0285469 0.000344458 0)
(0.100601 0.00090137 0)
(0.236718 0.00218876 0)
(0.267557 0.000649407 0)
(0.225486 -0.00365896 0)
(0.147764 -0.00248119 0)
(0.0326069 0.00017568 0)
(0.00703537 0.105507 0)
(0.0421698 0.125832 0)
(0.106312 0.157991 0)
(0.179058 0.173485 0)
(0.236169 0.171531 0)
(0.17817 0.0868057 0)
(0.0381403 -0.0706423 0)
(-0.0558967 -0.136866 0)
(-0.0769498 -0.147521 0)
(-0.0618234 -0.124106 0)
(-0.0580909 -0.0917939 0)
(-0.0689026 -0.0769297 0)
(-0.0984356 -0.0716417 0)
(-0.146948 -0.0731773 0)
(-0.193456 -0.0766699 0)
(-0.17583 -0.0559613 0)
(-0.103229 -0.019297 0)
(-0.0538143 -0.00460112 0)
(-0.0401624 -0.00249051 0)
(-0.0353356 -0.00216864 0)
(-0.0297578 -0.00123008 0)
(-0.0225808 0.000229983 0)
(-0.0147289 0.00154254 0)
(-0.00810402 0.0022096 0)
(-0.00381755 0.00231655 0)
(-0.00156201 0.00218665 0)
(-0.000152174 0.00201785 0)
(0.00102068 0.00184049 0)
(0.00225772 0.00173758 0)
(0.00378252 0.00162801 0)
(0.006264 0.00150716 0)
(0.00860531 0.0011639 0)
(0.0119838 0.000856615 0)
(0.0287705 0.000723699 0)
(0.101591 0.0013195 0)
(0.236537 0.00269494 0)
(0.264726 0.000552626 0)
(0.223922 -0.0033086 0)
(0.149439 -0.00296939 0)
(0.0339015 -0.000174241 0)
(0.0203751 0.151959 0)
(0.072184 0.179075 0)
(0.125278 0.172247 0)
(0.154104 0.138532 0)
(0.131052 0.0652987 0)
(0.0510865 -0.0564 0)
(-0.0310613 -0.13177 0)
(-0.0574823 -0.150201 0)
(-0.0493249 -0.122217 0)
(-0.041653 -0.0995697 0)
(-0.0432217 -0.084036 0)
(-0.063668 -0.0784388 0)
(-0.0993115 -0.0785116 0)
(-0.150954 -0.0858431 0)
(-0.182125 -0.0857293 0)
(-0.144227 -0.051047 0)
(-0.0785224 -0.0152277 0)
(-0.0466658 -0.00449806 0)
(-0.0389996 -0.00289501 0)
(-0.0344982 -0.00217003 0)
(-0.0284223 -0.000780087 0)
(-0.0211526 0.000881704 0)
(-0.013723 0.00228625 0)
(-0.00770831 0.00299385 0)
(-0.00382471 0.00311519 0)
(-0.00171712 0.00297812 0)
(-0.000338687 0.00277921 0)
(0.000869449 0.00256867 0)
(0.00214405 0.00245556 0)
(0.00365895 0.00232797 0)
(0.00602494 0.00219051 0)
(0.00826188 0.00183658 0)
(0.0117484 0.00148111 0)
(0.0289929 0.00138588 0)
(0.1025 0.00196254 0)
(0.235979 0.00352725 0)
(0.261772 0.00104207 0)
(0.222092 -0.00247881 0)
(0.150784 -0.00288742 0)
(0.0353004 -0.000541903 0)
(0.0331645 0.168041 0)
(0.0617197 0.185701 0)
(0.0672442 0.121811 0)
(0.0759983 0.0490496 0)
(0.0483256 -0.0328595 0)
(-0.0117321 -0.112776 0)
(-0.0522495 -0.147333 0)
(-0.0466916 -0.124854 0)
(-0.0281599 -0.103501 0)
(-0.0250305 -0.0875733 0)
(-0.0377284 -0.0814925 0)
(-0.0635791 -0.0806846 0)
(-0.105571 -0.0868805 0)
(-0.153903 -0.0967392 0)
(-0.159925 -0.0835476 0)
(-0.107892 -0.0390487 0)
(-0.0583724 -0.0114729 0)
(-0.0419301 -0.00475605 0)
(-0.037919 -0.00339301 0)
(-0.0332976 -0.00207824 0)
(-0.026817 -0.000295675 0)
(-0.0196259 0.00156811 0)
(-0.0126935 0.00301206 0)
(-0.00730522 0.00373009 0)
(-0.00383271 0.00385382 0)
(-0.00188578 0.00370774 0)
(-0.000546732 0.00349919 0)
(0.000708794 0.00328748 0)
(0.00202577 0.00315861 0)
(0.00352711 0.00301823 0)
(0.00579047 0.00287503 0)
(0.00792171 0.00254385 0)
(0.0115495 0.00220243 0)
(0.0292344 0.00210831 0)
(0.103654 0.0025887 0)
(0.23565 0.00383304 0)
(0.258939 0.00124401 0)
(0.220135 -0.00184456 0)
(0.151305 -0.00279205 0)
(0.0361617 -0.000872143 0)
(0.0373928 0.166624 0)
(0.0276351 0.122101 0)
(-0.00640469 0.0512377 0)
(0.005058 -0.0194483 0)
(-0.0248892 -0.101638 0)
(-0.0592243 -0.141204 0)
(-0.0427003 -0.128782 0)
(-0.0152443 -0.100608 0)
(-0.0133994 -0.086795 0)
(-0.0204448 -0.0821712 0)
(-0.0365835 -0.0806072 0)
(-0.06886 -0.0854113 0)
(-0.114782 -0.0970525 0)
(-0.147743 -0.100611 0)
(-0.126533 -0.0685025 0)
(-0.0747728 -0.0262091 0)
(-0.0454767 -0.00901593 0)
(-0.0388797 -0.00505108 0)
(-0.0364192 -0.00361297 0)
(-0.0315135 -0.0017206 0)
(-0.0249085 0.000381204 0)
(-0.0179652 0.002414 0)
(-0.0116397 0.0038553 0)
(-0.00689716 0.00454361 0)
(-0.00384624 0.00465479 0)
(-0.00205886 0.00450177 0)
(-0.000743666 0.00430521 0)
(0.000541257 0.00411563 0)
(0.00188459 0.00395432 0)
(0.00338569 0.0038051 0)
(0.00556781 0.00365958 0)
(0.00761373 0.00336476 0)
(0.0113287 0.0030801 0)
(0.0293652 0.00302034 0)
(0.104162 0.0034153 0)
(0.234683 0.00430664 0)
(0.256301 0.00163728 0)
(0.218203 -0.00117156 0)
(0.151721 -0.00263358 0)
(0.0371505 -0.000784478 0)
(-0.00974002 0.103922 0)
(-0.0494711 0.0196719 0)
(-0.0691577 -0.026355 0)
(-0.0713181 -0.0823276 0)
(-0.0690026 -0.125352 0)
(-0.0378889 -0.119278 0)
(-0.01313 -0.0929809 0)
(-0.00623167 -0.0828592 0)
(-0.0103932 -0.0804175 0)
(-0.0190678 -0.0777672 0)
(-0.0408507 -0.0816859 0)
(-0.0794264 -0.0924635 0)
(-0.120218 -0.103547 0)
(-0.126391 -0.0899666 0)
(-0.0882286 -0.046897 0)
(-0.0505687 -0.0172546 0)
(-0.0379838 -0.00785333 0)
(-0.0367236 -0.00534564 0)
(-0.0347097 -0.00350154 0)
(-0.0294487 -0.00119021 0)
(-0.0228328 0.00112497 0)
(-0.0162782 0.00319599 0)
(-0.0106413 0.00460264 0)
(-0.00653481 0.00525649 0)
(-0.00387302 0.00537402 0)
(-0.00222264 0.00525312 0)
(-0.000918832 0.00509615 0)
(0.000370663 0.00493502 0)
(0.00172653 0.00477038 0)
(0.00324309 0.00464145 0)
(0.00536615 0.00451729 0)
(0.00736331 0.00429378 0)
(0.0112176 0.00412476 0)
(0.0295574 0.00418854 0)
(0.104894 0.00445469 0)
(0.233936 0.00502656 0)
(0.25366 0.00237494 0)
(0.216019 -0.000191253 0)
(0.151678 -0.00189769 0)
(0.0379436 -0.000364399 0)
(-0.0437935 0.0254994 0)
(-0.0979044 -0.0262355 0)
(-0.104695 -0.0546008 0)
(-0.0903391 -0.0838595 0)
(-0.0604958 -0.0890273 0)
(-0.0280303 -0.0859819 0)
(-0.007606 -0.0805086 0)
(-0.00313776 -0.076987 0)
(-0.00849259 -0.0746397 0)
(-0.021667 -0.0756869 0)
(-0.0507454 -0.0859157 0)
(-0.0899262 -0.0986748 0)
(-0.112376 -0.0976963 0)
(-0.0931527 -0.0653794 0)
(-0.0564646 -0.0283742 0)
(-0.0371489 -0.0117097 0)
(-0.0340009 -0.00682733 0)
(-0.0346862 -0.00507643 0)
(-0.0324148 -0.00279162 0)
(-0.0270552 -0.000135108 0)
(-0.0206818 0.00236855 0)
(-0.014614 0.0044068 0)
(-0.00965409 0.00571703 0)
(-0.00615382 0.00630135 0)
(-0.00384949 0.00640507 0)
(-0.00232663 0.00630345 0)
(-0.0010502 0.00616349 0)
(0.000227336 0.00600301 0)
(0.00160169 0.00584039 0)
(0.0031418 0.00572729 0)
(0.00523279 0.00562778 0)
(0.00723547 0.00547538 0)
(0.0112273 0.00543281 0)
(0.0296831 0.00563556 0)
(0.10497 0.00577907 0)
(0.232679 0.00575825 0)
(0.251273 0.0029674 0)
(0.214086 0.000444588 0)
(0.151555 -0.00138705 0)
(0.0386281 0.000203639 0)
(-0.0595936 0.0232384 0)
(-0.126659 -0.00615486 0)
(-0.124686 -0.0368301 0)
(-0.104493 -0.0530336 0)
(-0.0710478 -0.0727964 0)
(-0.02968 -0.0783185 0)
(-0.00446221 -0.0721334 0)
(-0.000576239 -0.0704428 0)
(-0.00914044 -0.0697307 0)
(-0.0299337 -0.0769473 0)
(-0.0630027 -0.0902771 0)
(-0.0907785 -0.0958166 0)
(-0.0881331 -0.0758874 0)
(-0.0595901 -0.039349 0)
(-0.0365105 -0.0167872 0)
(-0.0298053 -0.00819608 0)
(-0.0315917 -0.00560348 0)
(-0.0328346 -0.0038628 0)
(-0.029948 -0.00123806 0)
(-0.0244762 0.0015838 0)
(-0.018456 0.00418624 0)
(-0.0130515 0.00616704 0)
(-0.00881569 0.00735882 0)
(-0.00587179 0.00786117 0)
(-0.003871 0.00793386 0)
(-0.00245544 0.00782208 0)
(-0.00120835 0.00766463 0)
(5.93133e-05 0.00748521 0)
(0.00146084 0.00730705 0)
(0.00303821 0.00719287 0)
(0.00512339 0.00710352 0)
(0.00717543 0.00700688 0)
(0.011372 0.00707495 0)
(0.0298911 0.00738271 0)
(0.105012 0.0073943 0)
(0.231227 0.00664459 0)
(0.248539 0.00343864 0)
(0.211823 0.00126718 0)
(0.151446 -0.000901441 0)
(0.0394764 0.000730636 0)
(-0.0721179 0.0229826 0)
(-0.155789 0.00511565 0)
(-0.149869 -0.0264093 0)
(-0.124997 -0.0468269 0)
(-0.0848613 -0.0681815 0)
(-0.0273914 -0.0681236 0)
(-1.66384e-05 -0.0614435 0)
(-0.000822484 -0.0632948 0)
(-0.0147606 -0.0677297 0)
(-0.0414662 -0.0792517 0)
(-0.0689285 -0.0874276 0)
(-0.0760598 -0.0769184 0)
(-0.057962 -0.0468432 0)
(-0.0362016 -0.0209799 0)
(-0.0264445 -0.00878796 0)
(-0.0263719 -0.00483025 0)
(-0.0298252 -0.0033626 0)
(-0.0304795 -0.00103253 0)
(-0.0271663 0.00199928 0)
(-0.0218282 0.00497211 0)
(-0.0162652 0.00748836 0)
(-0.0115568 0.00923948 0)
(-0.00802156 0.0101768 0)
(-0.0055997 0.0104777 0)
(-0.00388716 0.0104031 0)
(-0.00258607 0.0101759 0)
(-0.00137483 0.00992395 0)
(-0.000117242 0.00966833 0)
(0.00131999 0.0094563 0)
(0.00294567 0.00933012 0)
(0.00505356 0.00926525 0)
(0.00720794 0.00921944 0)
(0.0115894 0.00937547 0)
(0.0299908 0.00976949 0)
(0.104259 0.00982668 0)
(0.228867 0.00861897 0)
(0.246091 0.00459705 0)
(0.209904 0.00249491 0)
(0.151038 0.000148228 0)
(0.0402008 0.0016847 0)
(-0.0768109 0.00370437 0)
(-0.174254 -0.00038918 0)
(-0.17474 -0.0219571 0)
(-0.144746 -0.0403623 0)
(-0.0915701 -0.0538607 0)
(-0.0231871 -0.0516402 0)
(0.000191005 -0.0521087 0)
(-0.00663384 -0.0575359 0)
(-0.0245171 -0.0668045 0)
(-0.0489154 -0.0754451 0)
(-0.0607543 -0.0711851 0)
(-0.0516699 -0.0481634 0)
(-0.0342287 -0.023016 0)
(-0.0229187 -0.00926237 0)
(-0.0209481 -0.00311241 0)
(-0.0245772 -0.0012666 0)
(-0.0279321 5.64437e-05 0)
(-0.0276677 0.00243327 0)
(-0.0241617 0.00536067 0)
(-0.0191867 0.00815633 0)
(-0.0143438 0.0103755 0)
(-0.0104608 0.0118509 0)
(-0.0076225 0.0125984 0)
(-0.0056537 0.012794 0)
(-0.00416185 0.0126586 0)
(-0.00291719 0.0123861 0)
(-0.00169744 0.0121192 0)
(-0.000391331 0.0118338 0)
(0.00113492 0.0116666 0)
(0.00285411 0.0116741 0)
(0.00501674 0.0117736 0)
(0.00728164 0.0118927 0)
(0.011902 0.0122137 0)
(0.0303259 0.0127498 0)
(0.103903 0.0129919 0)
(0.226187 0.0110949 0)
(0.242638 0.00603787 0)
(0.207536 0.00386657 0)
(0.150665 0.00132316 0)
(0.040957 0.00294896 0)
(-0.0760626 -0.0108235 0)
(-0.180517 -0.00599365 0)
(-0.188389 -0.0133638 0)
(-0.155741 -0.0223502 0)
(-0.0957291 -0.0323754 0)
(-0.0257031 -0.0377688 0)
(-0.00569791 -0.0463653 0)
(-0.0149839 -0.053618 0)
(-0.0320186 -0.0623575 0)
(-0.0456875 -0.060314 0)
(-0.0426388 -0.0439377 0)
(-0.0296423 -0.0224456 0)
(-0.0204756 -0.00774719 0)
(-0.0170218 -0.00050357 0)
(-0.0187395 0.00191076 0)
(-0.0233183 0.00248245 0)
(-0.0262598 0.00360193 0)
(-0.0253681 0.00585432 0)
(-0.0216513 0.0087142 0)
(-0.0169957 0.0113959 0)
(-0.012705 0.013526 0)
(-0.0094147 0.0150137 0)
(-0.00711275 0.0159049 0)
(-0.00554176 0.0163611 0)
(-0.0042802 0.0165651 0)
(-0.00310577 0.0167208 0)
(-0.00190707 0.01683 0)
(-0.000553413 0.0169632 0)
(0.00116607 0.017149 0)
(0.00304877 0.0175884 0)
(0.00526423 0.0179437 0)
(0.00763205 0.0183879 0)
(0.0124153 0.0189191 0)
(0.0307407 0.0197395 0)
(0.102664 0.0204242 0)
(0.222166 0.0176464 0)
(0.239125 0.0106203 0)
(0.20536 0.00729015 0)
(0.150153 0.00346485 0)
(0.0417675 0.00501794 0)
(-0.0721566 -0.0109682 0)
(-0.176702 -0.00252389 0)
(-0.190502 0.00011468 0)
(-0.163066 -0.000825639 0)
(-0.106428 -0.0139451 0)
(-0.0366683 -0.0277724 0)
(-0.0150818 -0.0386554 0)
(-0.0220445 -0.0438003 0)
(-0.0309697 -0.0436992 0)
(-0.0311654 -0.0304939 0)
(-0.0242628 -0.0121655 0)
(-0.0167955 0.000940545 0)
(-0.0130846 0.00843687 0)
(-0.0136119 0.012556 0)
(-0.0180707 0.0137211 0)
(-0.0229476 0.0142453 0)
(-0.0246828 0.0161234 0)
(-0.0227413 0.0194323 0)
(-0.0188217 0.0231484 0)
(-0.0145499 0.0265043 0)
(-0.0108576 0.0292687 0)
(-0.00816835 0.0313967 0)
(-0.0063241 0.0330016 0)
(-0.00501753 0.0342597 0)
(-0.00381518 0.035316 0)
(-0.00266189 0.0363089 0)
(-0.00146389 0.0371149 0)
(-8.39201e-05 0.0378458 0)
(0.00173742 0.0384607 0)
(0.00361993 0.0392373 0)
(0.00578719 0.0397416 0)
(0.00822153 0.040476 0)
(0.0132045 0.0410816 0)
(0.0317763 0.0422177 0)
(0.101886 0.0432638 0)
(0.21674 0.038662 0)
(0.232658 0.0260163 0)
(0.200641 0.0174974 0)
(0.148476 0.0066687 0)
(0.0424537 0.00529175 0)
(-0.0679253 -0.000430319 0)
(-0.169837 0.00730658 0)
(-0.186752 0.0144977 0)
(-0.169289 0.0196413 0)
(-0.121696 0.00455013 0)
(-0.0495149 -0.00702375 0)
(-0.021143 -0.0107952 0)
(-0.0198442 -0.00632998 0)
(-0.0191961 0.00381059 0)
(-0.0153005 0.0185577 0)
(-0.0123474 0.0306539 0)
(-0.00978913 0.0393916 0)
(-0.00928247 0.0456844 0)
(-0.0119297 0.0505812 0)
(-0.0171117 0.0550121 0)
(-0.0210033 0.0603508 0)
(-0.0212614 0.0668496 0)
(-0.0185985 0.0739445 0)
(-0.0148365 0.08066 0)
(-0.011098 0.0865338 0)
(-0.0079905 0.092034 0)
(-0.00581758 0.0973154 0)
(-0.00435382 0.102181 0)
(-0.00331151 0.106557 0)
(-0.00230557 0.110378 0)
(-0.00137228 0.113936 0)
(-0.000426027 0.116432 0)
(0.000743519 0.118982 0)
(0.00250692 0.120691 0)
(0.00428301 0.122216 0)
(0.00645793 0.122824 0)
(0.00892335 0.123612 0)
(0.0140937 0.122983 0)
(0.0328436 0.122774 0)
(0.0992375 0.120419 0)
(0.205546 0.104314 0)
(0.21873 0.0709298 0)
(0.186716 0.0454199 0)
(0.138392 0.0171699 0)
(0.0404406 0.00597166 0)
(-0.0647011 -3.31632e-05 0)
(-0.162317 0.0167786 0)
(-0.178616 0.0454065 0)
(-0.172652 0.0692621 0)
(-0.132123 0.0695001 0)
(-0.0514555 0.0693114 0)
(-0.0144132 0.0745442 0)
(-0.00796982 0.0876406 0)
(-0.00698696 0.102493 0)
(-0.00529818 0.116585 0)
(-0.00418657 0.128749 0)
(-0.00231151 0.140278 0)
(-0.0023019 0.150254 0)
(-0.00462344 0.158662 0)
(-0.00865628 0.166931 0)
(-0.0115405 0.176335 0)
(-0.0115834 0.186249 0)
(-0.00943306 0.195645 0)
(-0.00669019 0.203737 0)
(-0.00358956 0.21032 0)
(-0.000468075 0.216143 0)
(0.00160965 0.221745 0)
(0.00258094 0.226769 0)
(0.00288108 0.230876 0)
(0.00329599 0.233996 0)
(0.00317203 0.23659 0)
(0.00339879 0.238019 0)
(0.00402031 0.239507 0)
(0.00485371 0.240092 0)
(0.00567533 0.240208 0)
(0.00713197 0.239222 0)
(0.00837483 0.237645 0)
(0.0123972 0.234486 0)
(0.0293052 0.230383 0)
(0.0840975 0.220697 0)
(0.169051 0.186416 0)
(0.175906 0.126769 0)
(0.148836 0.0858194 0)
(0.110462 0.0342604 0)
(0.0316626 0.00229614 0)
(-0.0517248 -0.0379186 0)
(-0.12605 0.0206281 0)
(-0.136177 0.0846542 0)
(-0.146072 0.119608 0)
(-0.121648 0.150107 0)
(-0.0446543 0.163542 0)
(-0.00348036 0.172005 0)
(0.00708854 0.18134 0)
(0.00869618 0.192404 0)
(0.0100009 0.202961 0)
(0.0104833 0.21303 0)
(0.0109334 0.221633 0)
(0.0084331 0.227489 0)
(0.00414097 0.230573 0)
(-8.12286e-05 0.233202 0)
(-0.00238811 0.236913 0)
(-0.00265354 0.241757 0)
(-0.00174582 0.246857 0)
(-0.000695297 0.251707 0)
(0.000856435 0.25601 0)
(0.00301878 0.258454 0)
(0.00442206 0.257985 0)
(0.00444571 0.255483 0)
(0.00365285 0.252493 0)
(0.00320015 0.249693 0)
(0.00250458 0.247235 0)
(0.00238532 0.245126 0)
(0.00274061 0.242991 0)
(0.00318244 0.241042 0)
(0.00344523 0.238742 0)
(0.00398796 0.236528 0)
(0.00435924 0.233326 0)
(0.00709575 0.230438 0)
(0.0195564 0.225289 0)
(0.0568699 0.213331 0)
(0.115033 0.176502 0)
(0.121791 0.119447 0)
(0.097572 0.0974012 0)
(0.0579055 0.0429477 0)
(0.00963866 -0.0322942 0)
(-0.00828331 -0.424963 0)
(-0.0442014 -0.0996285 0)
(-0.0832348 0.108857 0)
(-0.109579 0.146132 0)
(-0.0897875 0.197966 0)
(-0.0303539 0.219869 0)
(0.00273793 0.226374 0)
(0.0116867 0.226445 0)
(0.0138472 0.228177 0)
(0.0145783 0.229462 0)
(0.013807 0.230874 0)
(0.0116219 0.23081 0)
(0.00631269 0.228872 0)
(0.000881152 0.226261 0)
(-0.00254708 0.224569 0)
(-0.00329616 0.224298 0)
(-0.00200079 0.225087 0)
(0.000154978 0.226285 0)
(0.00213007 0.227391 0)
(0.00291241 0.2278 0)
(0.00143516 0.226798 0)
(-0.0012536 0.224231 0)
(-0.00271153 0.220739 0)
(-0.00269881 0.217099 0)
(-0.001771 0.213695 0)
(-0.00122875 0.210864 0)
(-0.00069032 0.208585 0)
(8.54143e-05 0.206288 0)
(0.000758866 0.204335 0)
(0.00132554 0.202076 0)
(0.00191307 0.20022 0)
(0.00250556 0.198007 0)
(0.0046524 0.196321 0)
(0.0128203 0.192724 0)
(0.0370848 0.180661 0)
(0.0785813 0.148669 0)
(0.0996811 0.0944505 0)
(0.0751183 0.068408 0)
(-0.014517 -0.107309 0)
(-0.0408433 -0.419604 0)
(0.261779 -0.780034 0)
(0.388358 -0.436489 0)
(0.100647 0.0230291 0)
(-0.0602028 0.102463 0)
(-0.050593 0.158621 0)
(-0.0172793 0.179805 0)
(0.00285705 0.18237 0)
(0.00882615 0.177114 0)
(0.0116033 0.173709 0)
(0.0125994 0.167815 0)
(0.0117818 0.16234 0)
(0.00900401 0.156122 0)
(0.00405031 0.150787 0)
(-5.19224e-06 0.147884 0)
(-0.00197341 0.147882 0)
(-0.00188896 0.149507 0)
(-0.00073905 0.151073 0)
(0.00047427 0.151881 0)
(0.000765354 0.151649 0)
(0.000285169 0.150164 0)
(-0.000420955 0.148378 0)
(-0.00141648 0.147929 0)
(-0.00242717 0.148762 0)
(-0.00313485 0.149856 0)
(-0.00280802 0.150684 0)
(-0.00241976 0.150944 0)
(-0.00202413 0.151276 0)
(-0.00135498 0.151313 0)
(-0.000875969 0.151198 0)
(-0.000520205 0.150865 0)
(6.65306e-05 0.150496 0)
(0.000601706 0.150399 0)
(0.0020054 0.15026 0)
(0.00446632 0.149424 0)
(0.0144166 0.141061 0)
(0.0319567 0.116547 0)
(0.0444488 0.0623189 0)
(-0.0968507 -0.0139008 0)
(-0.412361 -0.412484 0)
(-0.2913 -0.755142 0)
(0.322769 -0.389509 0)
(0.729659 -0.326217 0)
(0.436119 -0.0353285 0)
(0.0210826 0.0219143 0)
(-0.0152574 0.0490243 0)
(-0.00746843 0.0585833 0)
(0.000144762 0.0592053 0)
(0.00334035 0.0557687 0)
(0.00488603 0.0535125 0)
(0.00362267 0.048798 0)
(0.00253923 0.044197 0)
(0.000488873 0.0392066 0)
(-0.0016259 0.0353606 0)
(-0.00191839 0.0333162 0)
(-0.000983436 0.0333752 0)
(-0.000221212 0.0343436 0)
(0.000287457 0.0351059 0)
(0.000710597 0.0354088 0)
(0.0004757 0.0353511 0)
(-0.000239824 0.0351082 0)
(-0.000718649 0.0348063 0)
(-0.000883384 0.0347993 0)
(-0.00085449 0.0353595 0)
(-0.000846679 0.0364313 0)
(-0.000722921 0.037734 0)
(-0.000658018 0.0385951 0)
(-0.000334526 0.0395623 0)
(9.73945e-06 0.0403485 0)
(0.000327236 0.0409785 0)
(0.000649084 0.0415971 0)
(0.00146373 0.0421919 0)
(0.00227842 0.043047 0)
(0.00371253 0.0439319 0)
(0.0039557 0.0448185 0)
(0.00540311 0.043402 0)
(0.00270239 0.0354649 0)
(-0.0260227 0.0130437 0)
(-0.382419 -0.0376658 0)
(-0.728804 -0.283301 0)
(-0.371041 -0.36605 0)
(0.322769 0.389509 0)
(0.729659 0.326217 0)
(0.436119 0.0353285 0)
(0.0210826 -0.0219143 0)
(-0.0152574 -0.0490243 0)
(-0.00746843 -0.0585833 0)
(0.000144762 -0.0592053 0)
(0.00334035 -0.0557687 0)
(0.00488603 -0.0535125 0)
(0.00362267 -0.048798 0)
(0.00253923 -0.044197 0)
(0.000488873 -0.0392066 0)
(-0.0016259 -0.0353606 0)
(-0.00191839 -0.0333162 0)
(-0.000983436 -0.0333752 0)
(-0.000221212 -0.0343436 0)
(0.000287457 -0.0351059 0)
(0.000710597 -0.0354088 0)
(0.0004757 -0.0353511 0)
(-0.000239824 -0.0351082 0)
(-0.000718649 -0.0348063 0)
(-0.000883384 -0.0347993 0)
(-0.00085449 -0.0353595 0)
(-0.000846679 -0.0364313 0)
(-0.000722921 -0.037734 0)
(-0.000658018 -0.0385951 0)
(-0.000334526 -0.0395623 0)
(9.73945e-06 -0.0403485 0)
(0.000327236 -0.0409785 0)
(0.000649084 -0.0415971 0)
(0.00146373 -0.0421919 0)
(0.00227842 -0.043047 0)
(0.00371253 -0.0439319 0)
(0.0039557 -0.0448185 0)
(0.00540311 -0.043402 0)
(0.00270239 -0.0354649 0)
(-0.0260227 -0.0130437 0)