/*--------------------------------*- C++ -*----------------------------------*\
| =========                 |                                                 |
| \\      /  F ield         | OpenFOAM: The Open Source CFD Toolbox           |
|  \\    /   O peration     | Version:  v1912                                 |
|   \\  /    A nd           | Website:  www.openfoam.com                      |
|    \\/     M anipulation  |                                                 |
\*---------------------------------------------------------------------------*/
FoamFile
{
    version     2.0;
    format      ascii;
    class       volScalarField;
    location    "6.98";
    object      rho;
}
// * * * * * * * * * * * * * * * * * * * * * * * * * * * * * * * * * * * * * //

dimensions      [1 -3 0 0 0 0 0];


internalField   nonuniform List<scalar> 
1900
(
29468.3
13826
13005
12972.5
12837.7
12672.1
12535.6
12466.4
12434.8
12426.4
29468.3
13826.1
13005
12972.5
12837.8
12672.3
12536.8
12464.8
12441.6
12419.9
29468.3
13826.1
13005
12972.5
12837.9
12672.5
12537
12464
12432.5
12407.2
29468.3
13826.1
13005
12972.5
12837.8
12672.3
12536.8
12464.8
12441.6
12419.9
29468.3
13826
13005
12972.5
12837.7
12672.1
12535.6
12466.4
12434.8
12426.4
12560.6
12382.1
12248.2
11895.5
11767.5
12409.9
12290
12175.1
11839.5
11359.4
12374.8
12270.5
12167.7
11877.8
11429.2
12409.9
12290
12175.1
11839.5
11359.4
12560.6
12382.1
12248.2
11895.5
11767.5
6238.28
4236.71
3302.19
2776.94
2265.13
6879.15
4565.69
3485.87
2921.88
2414.95
7068.71
4522.31
3412.32
2861.98
2350.24
6879.15
4565.69
3485.87
2921.88
2414.95
6238.28
4236.71
3302.19
2776.94
2265.13
2305.47
2227.58
2093.64
1820.67
1745.39
1895.19
2781.56
3176.1
3181.32
3218.89
3226.8
3095.71
2849.79
2579.03
2273.14
1913.13
1616.55
1476.08
1413.49
1368.88
1328.73
1293.69
1268.58
1254.57
1248.42
1246.34
1245.83
1246.85
1248.79
1252.49
1257.92
1267.96
1278.98
1296.26
1343.67
1527.63
1955.05
2244.36
2437.79
2459.11
2129.99
2088.43
2009.51
1781.01
1717.95
1892.95
2786.26
3170.24
3158.14
3208.49
3219.95
3101.2
2866.22
2592.25
2281.05
1917.05
1617.87
1476.32
1413.55
1369.02
1328.85
1293.7
1268.51
1254.49
1248.34
1246.27
1245.76
1246.79
1248.73
1252.44
1257.88
1267.94
1278.95
1296.22
1343.6
1527.36
1954.83
2245.43
2437.71
2458.77
2080.6
2039.34
1969.36
1760.87
1698.05
1886.44
2782.24
3170.93
3156.63
3211.18
3234.4
3109.81
2861.54
2586.96
2280.01
1918.59
1618.76
1476.45
1413.58
1369.1
1328.9
1293.72
1268.49
1254.46
1248.32
1246.25
1245.74
1246.78
1248.71
1252.42
1257.86
1267.93
1278.93
1296.2
1343.57
1527.26
1954.78
2245.83
2437.76
2458.91
2129.99
2088.43
2009.51
1781.01
1717.95
1892.95
2786.26
3170.24
3158.14
3208.49
3219.95
3101.2
2866.22
2592.25
2281.05
1917.05
1617.87
1476.32
1413.55
1369.02
1328.85
1293.7
1268.51
1254.49
1248.34
1246.27
1245.76
1246.79
1248.73
1252.44
1257.88
1267.94
1278.95
1296.22
1343.6
1527.36
1954.83
2245.43
2437.71
2458.77
2305.47
2227.58
2093.64
1820.67
1745.39
1895.19
2781.56
3176.1
3181.32
3218.89
3226.8
3095.71
2849.79
2579.03
2273.14
1913.13
1616.55
1476.08
1413.49
1368.88
1328.73
1293.69
1268.58
1254.57
1248.42
1246.34
1245.83
1246.85
1248.79
1252.49
1257.92
1267.96
1278.98
1296.26
1343.67
1527.63
1955.05
2244.36
2437.79
2459.11
2842.72
2562.6
2309.01
1981.37
1861.49
2050.82
2800.64
3071.58
3090.18
3155.68
3172.08
3052.55
2823.05
2560.51
2256.31
1897.76
1608.9
1474.44
1413.17
1368.29
1328.1
1293.59
1268.85
1254.96
1248.79
1246.67
1246.12
1247.12
1249.03
1252.7
1258.12
1268.05
1279.07
1296.32
1343.93
1528.32
1955.42
2240.06
2437.01
2459.8
3072.93
2720.91
2398.54
2152.07
2100.74
2317.16
2758.28
2921.66
3023.9
3098.64
3081.84
2942.15
2726.19
2487.06
2198.66
1855.25
1590.43
1470.48
1412.11
1366.82
1326.75
1293.23
1269.39
1255.87
1249.69
1247.46
1246.83
1247.75
1249.62
1253.24
1258.59
1268.31
1279.26
1296.42
1344.46
1529.75
1956.37
2234.33
2434.18
2459.8
3089.94
2790.01
2547.71
2508
2525.19
2591.63
2713.24
2828.71
2964.78
2992.84
2936.69
2796.39
2612.67
2399.04
2119.37
1793.79
1565.72
1465.32
1410.23
1364.8
1325.19
1292.94
1270.28
1257.31
1251.18
1248.82
1248.07
1248.87
1250.67
1254.2
1259.46
1268.88
1279.66
1296.66
1345.27
1531.96
1957.35
2228.81
2429.6
2458.67
3028.35
2786.19
2652.17
2612.82
2617.95
2642.87
2682.25
2786.47
2838.85
2844.8
2776.07
2651.11
2496.02
2296.86
2019.74
1722.53
1540.93
1460.02
1407.73
1362.49
1323.71
1292.97
1271.67
1259.39
1253.35
1250.85
1249.93
1250.57
1252.26
1255.69
1260.84
1269.9
1280.39
1297.25
1346.52
1535.12
1958.76
2224.5
2424.56
2456.91
2906.64
2766.35
2686.22
2597.82
2538.29
2520.41
2582.92
2677.74
2727.91
2687.02
2614.36
2512.33
2376.68
2177.87
1904.01
1652.67
1519.86
1454.38
1404.38
1359.86
1322.47
1293.51
1273.72
1262.18
1256.27
1253.62
1252.49
1252.91
1254.48
1257.78
1262.78
1271.45
1281.56
1298.27
1348.22
1538.62
1959.87
2220.62
2418.61
2454.31
2781.57
2703.29
2535.74
2400.89
2381.96
2456.5
2545.05
2583.01
2567.61
2527.81
2467.92
2383.06
2250.49
2042.56
1785.83
1596.18
1504.53
1449.24
1400.93
1357.53
1321.96
1294.93
1276.69
1265.92
1260.13
1257.32
1255.96
1256.14
1257.59
1260.74
1265.59
1273.89
1283.61
1300.28
1350.87
1543.81
1962.83
2219.15
2414.72
2453.07
2530.56
2530.59
2393.17
2365.82
2396.3
2434.95
2436.5
2434.74
2415.8
2380.21
2335.8
2255.09
2111.85
1898.69
1684.04
1557.21
1492.24
1442.99
1396.44
1355.1
1321.79
1296.95
1280.31
1270.31
1264.64
1261.65
1260.07
1260.03
1261.31
1264.31
1269.01
1276.97
1286.35
1302.87
1353.98
1548.11
1964.65
2217.61
2410.11
2450.09
2516.84
2533.71
2445.48
2385.23
2343.67
2323.15
2303.54
2291
2274.03
2251.52
2211.18
2120.27
1962.25
1763.82
1611.48
1532.35
1482.72
1437.19
1392.5
1353.59
1322.79
1300.25
1285.14
1275.84
1270.27
1267.1
1265.3
1265.07
1266.17
1269
1273.55
1281.22
1290.35
1306.92
1358.52
1554.56
1968.91
2218.29
2406.96
2448.16
2541.97
2530.02
2450.23
2345.1
2252.76
2193.44
2165.02
2160.48
2151.92
2135.59
2085.59
1977.9
1816.46
1660.56
1567.42
1515.14
1473.25
1430.3
1388.31
1352.38
1324.28
1304.02
1290.43
1281.83
1276.38
1273.11
1271.17
1270.78
1271.71
1274.43
1278.88
1286.38
1295.42
1312.15
1364.04
1560.7
1973
2219.96
2404.51
2445.29
2554.43
2550.17
2464.26
2293.52
2139.68
2062.04
2044.65
2048.72
2045.25
2023.1
1954.98
1835.83
1696.92
1597.15
1541.56
1503.75
1466.27
1425.2
1386.04
1353.27
1328.09
1310.04
1297.77
1289.71
1284.32
1280.9
1278.79
1278.2
1278.94
1281.55
1285.9
1293.28
1302.36
1319.48
1371.67
1569.1
1979.38
2223.55
2403.09
2442.92
2574.57
2559.29
2441.56
2220.82
2025.56
1949.37
1947.86
1953.43
1947.58
1910.03
1826.24
1714.74
1619.28
1562.48
1526.15
1495.17
1459.8
1421.23
1385.47
1355.99
1333.71
1317.79
1306.77
1299.21
1293.88
1290.33
1288.02
1287.23
1287.77
1290.26
1294.54
1301.88
1311.15
1328.7
1380.96
1577.73
1985.59
2228.93
2402.51
2438.66
2567.2
2548.15
2401.56
2148.59
1933.43
1866.32
1870.4
1869.38
1852.48
1799
1715.16
1633.86
1578.72
1545.21
1519.95
1492.01
1458.23
1422.79
1390.68
1364.64
1345.02
1330.78
1320.49
1313.01
1307.38
1303.41
1300.71
1299.55
1299.83
1302.18
1306.42
1313.77
1323.3
1341.48
1394.27
1591.39
1996.22
2237.66
2404.76
2437.03
2527.39
2514.39
2363.98
2099.97
1874.87
1808.75
1804.77
1794.04
1762.95
1705.12
1639.05
1592.34
1562.05
1539.61
1518.49
1492.06
1459.91
1426.93
1397.88
1374.67
1357.26
1344.51
1335.04
1327.81
1322.1
1317.87
1314.93
1313.5
1313.68
1316.22
1320.78
1328.48
1338.6
1357.61
1411.07
1606.71
2007.77
2249.76
2409.22
2433.21
2492.47
2488.81
2348.39
2085.75
1846.16
1764.97
1745.33
1724.06
1685.24
1640.91
1603.05
1577.69
1559.46
1543.91
1524.57
1497.94
1466.74
1436.51
1410.91
1390.84
1375.9
1364.86
1356.44
1349.86
1344.59
1340.88
1338.37
1337.49
1338.2
1341.59
1346.73
1355.23
1366.17
1386.61
1442.07
1637.67
2033.21
2272.34
2420.87
2434.81
2474.62
2480.03
2354.99
2098.69
1836.8
1734.3
1701.72
1678.1
1649.1
1627.25
1608.62
1594.8
1582.98
1570.54
1551.97
1526.4
1498.33
1472.74
1451.92
1436.05
1424.62
1416.41
1410.31
1405.69
1402.14
1399.98
1398.73
1398.86
1400.41
1404.77
1410.61
1420.26
1432.22
1454.7
1513.03
1707.39
2091.21
2318.55
2440.12
2435.71
2482.7
2494.88
2387.14
2144.64
1857.68
1746
1716.83
1707.68
1695.36
1688.4
1680.44
1676.52
1673.51
1669.44
1660.03
1645.16
1628.24
1613.59
1602.68
1595.44
1592.59
1593.23
1595.59
1598.76
1602.09
1606.59
1609.9
1615.2
1620.27
1627.92
1635.4
1647.25
1658.54
1681.8
1739.35
1919.9
2260.77
2435.17
2493.98
2450.8
2476.21
2528.53
2502.88
2322.84
2039.23
1929.02
1908.69
1919.6
1928.84
1943.57
1956.23
1972.43
1986.55
1995.45
1996.78
1993.03
1987.59
1983.47
1981.37
1980.97
1983.39
1988.39
1994.03
1999.19
2003.3
2007.87
2010.65
2015.4
2019.53
2026.06
2031.72
2040.81
2048.84
2067.62
2114.95
2257.78
2521.97
2625.7
2577.11
2452.78
2444.22
2568.39
2639.56
2523.35
2305.5
2216.85
2207.25
2220.78
2235.77
2253.47
2268.01
2282.52
2290.2
2289.91
2282.34
2271.55
2262.3
2257.11
2255.93
2257.81
2259.97
2257.72
2251.83
2246.24
2241.94
2239.89
2237.92
2237.88
2238.52
2241.53
2245.44
2252
2260.48
2276.9
2314.36
2414.94
2602.93
2725.75
2647.54
2439.45
3595.21
2429
2644.3
2577.18
2458.63
2402.52
2399.22
2406.85
2419.52
2434.9
2448.5
2460.72
2465.57
2463.64
2456.23
2447.72
2441.12
2437.13
2434.72
2432.71
2431.24
2429.77
2427.26
2423.54
2418.61
2414.97
2410.64
2407.58
2405.05
2403.95
2403.24
2404.59
2406.97
2415.14
2430.16
2478.86
2559.52
2641.27
2448.51
3320.15
71398.7
3146.01
2399.01
2380.74
2344.82
2324.42
2330.39
2343.97
2362.81
2381.11
2396.63
2408.82
2414.85
2417.33
2418.83
2420.61
2422.85
2425.08
2426.42
2427
2428.41
2431.27
2434.56
2437.24
2438.77
2440.62
2440.38
2441.42
2441.25
2441.65
2439.78
2439.97
2436.99
2438.7
2437.22
2451.52
2455.82
2450.19
3234.51
55144.1
71398.7
3146.01
2399.01
2380.74
2344.82
2324.42
2330.39
2343.97
2362.81
2381.11
2396.63
2408.82
2414.85
2417.33
2418.83
2420.61
2422.85
2425.08
2426.42
2427
2428.41
2431.27
2434.56
2437.24
2438.77
2440.62
2440.38
2441.42
2441.25
2441.65
2439.78
2439.97
2436.99
2438.7
2437.22
2451.52
2455.82
2450.19
3234.51
55144.1
3595.21
2429
2644.3
2577.18
2458.63
2402.52
2399.22
2406.85
2419.52
2434.9
2448.5
2460.72
2465.57
2463.64
2456.23
2447.72
2441.12
2437.13
2434.72
2432.71
2431.24
2429.77
2427.26
2423.54
2418.61
2414.97
2410.64
2407.58
2405.05
2403.95
2403.24
2404.59
2406.97
2415.14
2430.16
2478.86
2559.52
2641.27
2448.51
3320.15
2444.22
2568.39
2639.56
2523.35
2305.5
2216.85
2207.25
2220.78
2235.77
2253.47
2268.01
2282.52
2290.2
2289.91
2282.34
2271.55
2262.3
2257.11
2255.93
2257.81
2259.97
2257.72
2251.83
2246.24
2241.94
2239.89
2237.92
2237.88
2238.52
2241.53
2245.44
2252
2260.48
2276.9
2314.36
2414.94
2602.93
2725.75
2647.54
2439.45
2476.21
2528.53
2502.88
2322.84
2039.23
1929.02
1908.69
1919.6
1928.84
1943.57
1956.23
1972.43
1986.55
1995.45
1996.78
1993.03
1987.59
1983.47
1981.37
1980.97
1983.39
1988.39
1994.03
1999.19
2003.3
2007.87
2010.65
2015.4
2019.53
2026.06
2031.72
2040.81
2048.84
2067.62
2114.95
2257.78
2521.97
2625.7
2577.11
2452.78
2482.7
2494.88
2387.14
2144.64
1857.68
1746
1716.83
1707.68
1695.36
1688.4
1680.44
1676.52
1673.51
1669.44
1660.03
1645.16
1628.24
1613.59
1602.68
1595.44
1592.59
1593.23
1595.59
1598.76
1602.09
1606.59
1609.9
1615.2
1620.27
1627.92
1635.4
1647.25
1658.54
1681.8
1739.35
1919.9
2260.77
2435.17
2493.98
2450.8
2474.62
2480.03
2354.99
2098.69
1836.8
1734.3
1701.72
1678.1
1649.1
1627.25
1608.62
1594.8
1582.98
1570.54
1551.97
1526.4
1498.33
1472.74
1451.92
1436.05
1424.62
1416.41
1410.31
1405.69
1402.14
1399.98
1398.73
1398.86
1400.41
1404.77
1410.61
1420.26
1432.22
1454.7
1513.03
1707.39
2091.21
2318.55
2440.12
2435.71
2492.47
2488.81
2348.39
2085.75
1846.16
1764.97
1745.33
1724.06
1685.24
1640.91
1603.05
1577.69
1559.46
1543.91
1524.57
1497.94
1466.74
1436.51
1410.91
1390.84
1375.9
1364.86
1356.44
1349.86
1344.59
1340.88
1338.37
1337.49
1338.2
1341.59
1346.73
1355.23
1366.17
1386.61
1442.07
1637.67
2033.21
2272.34
2420.87
2434.81
2527.39
2514.39
2363.98
2099.97
1874.87
1808.75
1804.77
1794.04
1762.95
1705.12
1639.05
1592.34
1562.05
1539.61
1518.49
1492.06
1459.91
1426.93
1397.88
1374.67
1357.26
1344.51
1335.04
1327.81
1322.1
1317.87
1314.93
1313.5
1313.68
1316.22
1320.78
1328.48
1338.6
1357.61
1411.07
1606.71
2007.77
2249.76
2409.22
2433.21
2567.2
2548.15
2401.56
2148.59
1933.43
1866.32
1870.4
1869.38
1852.48
1799
1715.16
1633.86
1578.72
1545.21
1519.95
1492.01
1458.23
1422.79
1390.68
1364.64
1345.02
1330.78
1320.49
1313.01
1307.38
1303.41
1300.71
1299.55
1299.83
1302.18
1306.42
1313.77
1323.3
1341.48
1394.27
1591.39
1996.22
2237.66
2404.76
2437.03
2574.57
2559.29
2441.56
2220.82
2025.56
1949.37
1947.86
1953.43
1947.58
1910.03
1826.24
1714.74
1619.28
1562.48
1526.15
1495.17
1459.8
1421.23
1385.47
1355.99
1333.71
1317.79
1306.77
1299.21
1293.88
1290.33
1288.02
1287.23
1287.77
1290.26
1294.54
1301.88
1311.15
1328.7
1380.96
1577.73
1985.59
2228.93
2402.51
2438.66
2554.43
2550.17
2464.26
2293.52
2139.68
2062.04
2044.65
2048.72
2045.25
2023.1
1954.98
1835.83
1696.92
1597.15
1541.56
1503.75
1466.27
1425.2
1386.04
1353.27
1328.09
1310.04
1297.77
1289.71
1284.32
1280.9
1278.79
1278.2
1278.94
1281.55
1285.9
1293.28
1302.36
1319.48
1371.67
1569.1
1979.38
2223.55
2403.09
2442.92
2541.97
2530.02
2450.23
2345.1
2252.76
2193.44
2165.02
2160.48
2151.92
2135.59
2085.59
1977.9
1816.46
1660.56
1567.42
1515.14
1473.25
1430.3
1388.31
1352.38
1324.28
1304.02
1290.43
1281.83
1276.38
1273.11
1271.17
1270.78
1271.71
1274.43
1278.88
1286.38
1295.42
1312.15
1364.04
1560.7
1973
2219.96
2404.51
2445.29
2516.84
2533.71
2445.48
2385.23
2343.67
2323.15
2303.54
2291
2274.03
2251.52
2211.18
2120.27
1962.25
1763.82
1611.48
1532.35
1482.72
1437.19
1392.5
1353.59
1322.79
1300.25
1285.14
1275.84
1270.27
1267.1
1265.3
1265.07
1266.17
1269
1273.55
1281.22
1290.35
1306.92
1358.52
1554.56
1968.91
2218.29
2406.96
2448.16
2530.56
2530.59
2393.17
2365.82
2396.3
2434.95
2436.5
2434.74
2415.8
2380.21
2335.8
2255.09
2111.85
1898.69
1684.04
1557.21
1492.24
1442.99
1396.44
1355.1
1321.79
1296.95
1280.31
1270.31
1264.64
1261.65
1260.07
1260.03
1261.31
1264.31
1269.01
1276.97
1286.35
1302.87
1353.98
1548.11
1964.65
2217.61
2410.11
2450.09
2781.57
2703.29
2535.74
2400.89
2381.96
2456.5
2545.05
2583.01
2567.61
2527.81
2467.92
2383.06
2250.49
2042.56
1785.83
1596.18
1504.53
1449.24
1400.93
1357.53
1321.96
1294.93
1276.69
1265.92
1260.13
1257.32
1255.96
1256.14
1257.59
1260.74
1265.59
1273.89
1283.61
1300.28
1350.87
1543.81
1962.83
2219.15
2414.72
2453.07
2906.64
2766.35
2686.22
2597.82
2538.29
2520.41
2582.92
2677.74
2727.91
2687.02
2614.36
2512.33
2376.68
2177.87
1904.01
1652.67
1519.86
1454.38
1404.38
1359.86
1322.47
1293.51
1273.72
1262.18
1256.27
1253.62
1252.49
1252.91
1254.48
1257.78
1262.78
1271.45
1281.56
1298.27
1348.22
1538.62
1959.87
2220.62
2418.61
2454.31
3028.35
2786.19
2652.17
2612.82
2617.95
2642.87
2682.25
2786.47
2838.85
2844.8
2776.07
2651.11
2496.02
2296.86
2019.74
1722.53
1540.93
1460.02
1407.73
1362.49
1323.71
1292.97
1271.67
1259.39
1253.35
1250.85
1249.93
1250.57
1252.26
1255.69
1260.84
1269.9
1280.39
1297.25
1346.52
1535.12
1958.76
2224.5
2424.56
2456.91
3089.94
2790.01
2547.71
2508
2525.19
2591.63
2713.24
2828.71
2964.78
2992.84
2936.69
2796.39
2612.67
2399.04
2119.37
1793.79
1565.72
1465.32
1410.23
1364.8
1325.19
1292.94
1270.28
1257.31
1251.18
1248.82
1248.07
1248.87
1250.67
1254.2
1259.46
1268.88
1279.66
1296.66
1345.27
1531.96
1957.35
2228.81
2429.6
2458.67
3072.93
2720.91
2398.54
2152.07
2100.74
2317.16
2758.28
2921.66
3023.9
3098.64
3081.84
2942.15
2726.19
2487.06
2198.66
1855.25
1590.43
1470.48
1412.11
1366.82
1326.75
1293.23
1269.39
1255.87
1249.69
1247.46
1246.83
1247.75
1249.62
1253.24
1258.59
1268.31
1279.26
1296.42
1344.46
1529.75
1956.37
2234.33
2434.18
2459.8
2842.72
2562.6
2309.01
1981.37
1861.49
2050.82
2800.64
3071.58
3090.18
3155.68
3172.08
3052.55
2823.05
2560.51
2256.31
1897.76
1608.9
1474.44
1413.17
1368.29
1328.1
1293.59
1268.85
1254.96
1248.79
1246.67
1246.12
1247.12
1249.03
1252.7
1258.12
1268.05
1279.07
1296.32
1343.93
1528.32
1955.42
2240.06
2437.01
2459.8
)
;

boundaryField
{
    inlet
    {
        type            calculated;
        value           uniform 14000.1;
    }
    outlet
    {
        type            calculated;
        value           nonuniform List<scalar> 
165
(
2998.06
3258.33
3232.25
3153.01
3036.26
2890.83
2768.85
2649.28
2625.84
2615.83
2595.85
2586.4
2591.14
2600.18
2605.15
2600.73
2605.19
2650.2
3295.88
4353.86
4353.86
3412.01
2680.92
2640.28
2651.48
2661.34
2661.83
2661.14
2657.19
2654.36
2652.18
2650.85
2651.5
2653.09
2654.15
2654.45
2654.46
2654.06
2653.48
2653.4
2653.81
2654.39
2655.03
2655.57
2656.21
2656.58
2657.12
2657.04
2657.1
2656.59
2656.2
2654.56
2653.05
2649.43
2647.59
2642
2643.88
2678.17
3299.08
4343.44
2652.55
2652.08
2651.97
2651.85
2652.2
2652.57
2653.36
2653.62
2653.84
2653.34
2652.87
2651.1
2648.95
2644.44
2641.94
2636.56
2638.91
2679.75
3338.68
4343.44
2653.2
2653.42
2653.34
2653.42
2653.2
4343.44
3338.68
2679.75
2638.91
2636.56
2641.94
2644.44
2648.95
2651.1
2652.87
2653.34
2653.84
2653.62
2653.36
2652.57
2652.2
2651.85
2651.97
2652.08
2652.55
4353.86
3412.01
2680.92
2640.28
2651.48
2661.34
2661.83
2661.14
2657.19
2654.36
2652.18
2650.85
2651.5
2653.09
2654.15
2654.45
2654.46
2654.06
2653.48
2653.4
2653.81
2654.39
2655.03
2655.57
2656.21
2656.58
2657.12
2657.04
2657.1
2656.59
2656.2
2654.56
2653.05
2649.43
2647.59
2642
2643.88
2678.17
3299.08
4343.44
4353.86
3295.88
2650.2
2605.19
2600.73
2605.15
2600.18
2591.14
2586.4
2595.85
2615.83
2625.84
2649.28
2768.85
2890.83
3036.26
3153.01
3232.25
3258.33
2998.06
)
;
    }
    obstacle
    {
        type            calculated;
        value           nonuniform List<scalar> 
40
(
29468.3
13826
13005
12972.5
12837.7
12672.1
12535.6
12466.4
12434.8
12426.4
29468.3
13826
13005
12972.5
12837.7
12672.1
12535.6
12466.4
12434.8
12426.4
12560.6
12382.1
12248.2
11895.5
11767.5
12560.6
12382.1
12248.2
11895.5
11767.5
6238.28
4236.71
3302.19
2776.94
2265.13
6238.28
4236.71
3302.19
2776.94
2265.13
)
;
    }
    empty
    {
        type            empty;
    }
}


// ************************************************************************* //
