/*--------------------------------*- C++ -*----------------------------------*\
| =========                 |                                                 |
| \\      /  F ield         | OpenFOAM: The Open Source CFD Toolbox           |
|  \\    /   O peration     | Version:  v1912                                 |
|   \\  /    A nd           | Website:  www.openfoam.com                      |
|    \\/     M anipulation  |                                                 |
\*---------------------------------------------------------------------------*/
FoamFile
{
    version     2.0;
    format      ascii;
    class       volScalarField;
    location    "4.94";
    object      Ma;
}
// * * * * * * * * * * * * * * * * * * * * * * * * * * * * * * * * * * * * * //

dimensions      [0 0 0 0 0 0 0];


internalField   nonuniform List<scalar> 
1900
(
0.807984
0.0875172
0.0131101
0.0179264
0.0266756
0.0368991
0.0485326
0.0593543
0.0698512
0.0707751
0.807984
0.0875145
0.0131157
0.0178695
0.0265409
0.0365899
0.0479598
0.0592435
0.0714597
0.0829971
0.807983
0.0875131
0.0131092
0.0178286
0.0264624
0.0364444
0.0477838
0.0593023
0.0723663
0.0880662
0.807984
0.0875145
0.0131157
0.0178695
0.0265409
0.0365899
0.0479598
0.0592435
0.0714597
0.0829971
0.807984
0.0875172
0.0131101
0.0179264
0.0266756
0.0368991
0.0485326
0.0593543
0.0698512
0.0707751
0.080929
0.115234
0.163763
0.240125
0.371893
0.100607
0.124459
0.152469
0.208775
0.333993
0.107627
0.130976
0.160055
0.214593
0.33648
0.100607
0.124459
0.152469
0.208775
0.333993
0.080929
0.115234
0.163763
0.240125
0.371893
0.651185
0.669179
0.681699
0.722607
0.791362
0.63533
0.692125
0.702717
0.73918
0.807354
0.639639
0.698319
0.700319
0.730979
0.800441
0.63533
0.692125
0.702717
0.73918
0.807354
0.651185
0.669179
0.681699
0.722607
0.791362
0.895767
0.997548
0.64112
0.352341
0.168675
0.131086
0.183801
0.216263
0.234137
0.249931
0.263528
0.267091
0.254013
0.227538
0.19461
0.159038
0.122108
0.0844602
0.0480558
0.0279234
0.052734
0.0923221
0.134776
0.178199
0.222074
0.266191
0.310423
0.354733
0.398729
0.442035
0.484389
0.524358
0.562856
0.598005
0.631957
0.661429
0.689806
0.701059
0.699346
1.52201
0.982483
1.20932
0.851684
0.441603
0.13603
0.0973024
0.176679
0.213376
0.232394
0.248768
0.26304
0.266889
0.253673
0.226941
0.19368
0.157661
0.120064
0.0812137
0.041759
0.0140961
0.0469667
0.0893051
0.13288
0.176929
0.221218
0.265641
0.310111
0.354619
0.398772
0.442221
0.484669
0.524729
0.563268
0.598465
0.632409
0.661838
0.690193
0.701078
0.699587
1.51935
0.97124
1.24492
0.91025
0.49097
0.130654
0.0813186
0.176994
0.213986
0.232562
0.248758
0.263001
0.266936
0.253668
0.226808
0.193401
0.157212
0.119378
0.0800991
0.0394335
0.00230802
0.0448899
0.0882852
0.132252
0.176519
0.220959
0.265501
0.310077
0.354689
0.398948
0.442519
0.485101
0.52534
0.564114
0.59963
0.634007
0.663934
0.693049
0.704366
0.702757
1.52432
0.982483
1.20932
0.851684
0.441603
0.13603
0.0973024
0.176679
0.213376
0.232394
0.248768
0.26304
0.266889
0.253673
0.226941
0.19368
0.157661
0.120064
0.0812137
0.041759
0.0140961
0.0469667
0.0893051
0.13288
0.176929
0.221218
0.265641
0.310111
0.354619
0.398772
0.442221
0.484669
0.524729
0.563268
0.598465
0.632409
0.661838
0.690193
0.701078
0.699587
1.51935
0.895767
0.997548
0.64112
0.352341
0.168675
0.131086
0.183801
0.216263
0.234137
0.249931
0.263528
0.267091
0.254013
0.227538
0.19461
0.159038
0.122108
0.0844602
0.0480558
0.0279234
0.052734
0.0923221
0.134776
0.178199
0.222074
0.266191
0.310423
0.354733
0.398729
0.442035
0.484389
0.524358
0.562856
0.598005
0.631957
0.661429
0.689806
0.701059
0.699346
1.52201
0.341751
0.475626
0.414551
0.372443
0.280292
0.201983
0.21875
0.236794
0.248776
0.26133
0.272818
0.274145
0.260275
0.234063
0.201922
0.167593
0.132699
0.0987712
0.0698786
0.0578478
0.0730926
0.105282
0.144089
0.185499
0.22814
0.271445
0.315114
0.359007
0.402727
0.445772
0.488034
0.527873
0.566423
0.601615
0.635811
0.665364
0.694168
0.70712
0.705129
1.52309
1.0175
0.616907
0.618174
0.530518
0.418773
0.31364
0.292755
0.281856
0.282341
0.288344
0.29466
0.291556
0.275989
0.250528
0.220452
0.189168
0.158685
0.131245
0.110846
0.103739
0.112836
0.135708
0.16763
0.20439
0.243828
0.284841
0.326816
0.369369
0.412121
0.454232
0.495998
0.535209
0.573579
0.608453
0.642756
0.671975
0.701103
0.716956
0.71326
1.52093
1.29464
0.83319
0.766447
0.614377
0.484907
0.402256
0.362073
0.336769
0.324833
0.323887
0.323844
0.316016
0.298641
0.274015
0.246296
0.218347
0.192145
0.169818
0.15434
0.149415
0.155737
0.17274
0.198776
0.230653
0.266269
0.304312
0.343966
0.384596
0.425922
0.466614
0.507584
0.545821
0.583822
0.618118
0.652396
0.681061
0.710629
0.72892
0.727004
1.5363
1.35728
0.89095
0.808709
0.658816
0.543901
0.47464
0.424744
0.392501
0.371674
0.365009
0.358226
0.345996
0.326973
0.303111
0.27754
0.252527
0.229781
0.211061
0.198551
0.194849
0.199598
0.212817
0.234422
0.26205
0.293951
0.328874
0.365964
0.404363
0.444017
0.482986
0.522977
0.560047
0.597541
0.631141
0.665302
0.69345
0.723438
0.743175
0.740194
1.52784
1.38971
0.904798
0.817119
0.687868
0.597694
0.533901
0.482517
0.445389
0.420423
0.407865
0.395595
0.379604
0.35931
0.336154
0.312398
0.289781
0.269681
0.253504
0.242915
0.240004
0.243731
0.254335
0.272648
0.296801
0.325389
0.35733
0.391855
0.427893
0.465765
0.502825
0.541718
0.57753
0.614436
0.647317
0.681326
0.708949
0.739358
0.760308
0.759097
1.53979
1.40843
0.914054
0.827309
0.718854
0.646422
0.583111
0.533652
0.494195
0.467614
0.450335
0.433913
0.415211
0.394172
0.371756
0.349553
0.328879
0.310812
0.296488
0.287232
0.284892
0.287889
0.296566
0.312379
0.333721
0.359444
0.38864
0.420709
0.454327
0.490338
0.525305
0.562884
0.597227
0.633206
0.665021
0.698323
0.724877
0.754741
0.775215
0.775654
1.53478
1.44899
0.929486
0.844191
0.750568
0.690725
0.628146
0.581329
0.5422
0.514449
0.493413
0.473612
0.452804
0.43121
0.409372
0.38836
0.369165
0.352661
0.339691
0.331388
0.329486
0.331929
0.339121
0.353003
0.372098
0.395426
0.422236
0.452141
0.483536
0.517923
0.551012
0.587532
0.620804
0.656253
0.687604
0.720888
0.747304
0.777474
0.798852
0.80182
1.55021
1.45964
0.943903
0.861478
0.780322
0.72935
0.667809
0.623851
0.58592
0.557087
0.533361
0.511465
0.489675
0.46822
0.447274
0.427521
0.409734
0.394586
0.382778
0.37527
0.373764
0.375768
0.381725
0.394001
0.411157
0.432308
0.456815
0.484565
0.513532
0.546028
0.576839
0.611757
0.643406
0.677608
0.707777
0.740042
0.765292
0.794359
0.814863
0.822212
1.54935
1.49618
0.966067
0.885869
0.813477
0.767699
0.707843
0.666684
0.63025
0.600891
0.575355
0.551918
0.529235
0.507602
0.486976
0.467915
0.451115
0.4369
0.425794
0.418766
0.417532
0.419168
0.424152
0.435238
0.450985
0.470548
0.493359
0.519592
0.546768
0.578091
0.607347
0.641349
0.672159
0.705814
0.735554
0.767428
0.792368
0.820988
0.84143
0.851782
1.56527
1.50665
0.983954
0.90738
0.84245
0.801976
0.744762
0.706287
0.670464
0.640378
0.613358
0.588942
0.565931
0.544614
0.524743
0.506766
0.491006
0.477815
0.46758
0.461168
0.460313
0.46165
0.465687
0.475562
0.489819
0.507638
0.528539
0.552953
0.57795
0.60775
0.635088
0.667757
0.697396
0.730161
0.759205
0.790336
0.814642
0.842242
0.861816
0.877035
1.56864
1.52572
1.00615
0.932905
0.873977
0.83706
0.782564
0.746435
0.710969
0.680854
0.653077
0.628229
0.605009
0.583803
0.564582
0.547021
0.531691
0.518873
0.508893
0.502654
0.501966
0.503031
0.506396
0.515569
0.529033
0.545903
0.56567
0.589082
0.612573
0.641484
0.667461
0.699183
0.728007
0.760175
0.788903
0.819541
0.843664
0.870577
0.890307
0.908972
1.58292
1.53756
1.02756
0.95738
0.903449
0.869612
0.818208
0.784024
0.748407
0.718302
0.689784
0.664503
0.641097
0.620269
0.601105
0.584042
0.569257
0.556947
0.547362
0.541437
0.541019
0.541825
0.544438
0.552774
0.565297
0.581078
0.599547
0.621948
0.643903
0.672046
0.696847
0.727806
0.756014
0.787778
0.8163
0.846329
0.870142
0.896039
0.914867
0.938619
1.59002
1.55213
1.05063
0.983209
0.933768
0.902054
0.854034
0.821268
0.785396
0.755627
0.726579
0.70132
0.677959
0.657059
0.638087
0.621218
0.606599
0.594383
0.584793
0.578889
0.578628
0.579253
0.581388
0.58933
0.601458
0.616701
0.634391
0.656266
0.676964
0.704637
0.728491
0.758792
0.786441
0.817896
0.846403
0.876026
0.899965
0.925448
0.944201
0.97219
1.60237
1.56125
1.07359
1.00931
0.963043
0.932885
0.888004
0.855829
0.81937
0.78967
0.760427
0.735112
0.711254
0.690407
0.671503
0.654856
0.640478
0.628452
0.618949
0.61313
0.613037
0.613397
0.614905
0.622287
0.633876
0.648454
0.665256
0.686601
0.706049
0.733484
0.756677
0.786701
0.814146
0.845854
0.874897
0.904679
0.928987
0.954188
0.972517
1.00491
1.60945
1.57736
1.09703
1.03481
0.991054
0.96149
0.919236
0.887694
0.851334
0.822201
0.792647
0.768011
0.744185
0.723632
0.704802
0.688277
0.673887
0.661733
0.651992
0.64604
0.646087
0.646372
0.647636
0.654954
0.666533
0.68094
0.697208
0.718468
0.736651
0.763708
0.785991
0.815355
0.842018
0.873223
0.901958
0.931243
0.955226
0.980007
0.997855
1.03495
1.61748
1.58079
1.11349
1.05343
1.01266
0.984318
0.944793
0.913956
0.87821
0.849412
0.819756
0.795616
0.771506
0.751329
0.732557
0.716199
0.701908
0.689803
0.680052
0.674161
0.674419
0.674442
0.675089
0.681932
0.693151
0.707131
0.722678
0.743856
0.76084
0.787786
0.809436
0.838591
0.864922
0.896219
0.925127
0.954535
0.978333
1.00233
1.01799
1.05864
1.61519
1.5775
1.12448
1.06947
1.03251
1.00458
0.96794
0.937221
0.902763
0.874149
0.844574
0.821918
0.798065
0.778812
0.760113
0.743877
0.729402
0.716952
0.706777
0.700745
0.701279
0.701288
0.701744
0.708792
0.720453
0.734811
0.750059
0.771538
0.787393
0.814106
0.83474
0.863212
0.888587
0.91942
0.947917
0.9772
1.00044
1.0239
1.03725
1.07333
1.60218
1.55989
1.12588
1.07879
1.04452
1.01864
0.986349
0.9554
0.922888
0.89397
0.864299
0.842715
0.8188
0.800507
0.781333
0.764607
0.748749
0.734067
0.721156
0.712602
0.711968
0.711979
0.713523
0.722595
0.736302
0.752409
0.767711
0.790463
0.805718
0.83286
0.852826
0.881533
0.906149
0.937125
0.965332
0.994413
1.0159
1.03734
1.04732
1.08344
1.57344
1.77057
1.0828
1.07501
1.05887
1.0325
0.999402
0.9644
0.929613
0.896951
0.865341
0.839664
0.813174
0.791597
0.77043
0.752166
0.735863
0.722209
0.712605
0.705401
0.70644
0.706322
0.705315
0.714332
0.724349
0.742194
0.758322
0.783898
0.803689
0.833958
0.859275
0.891732
0.921672
0.956572
0.98975
1.02223
1.0493
1.06515
1.07671
1.06186
1.73581
2.44903
1.75596
1.5893
1.61373
1.61549
1.61385
1.60098
1.59533
1.5815
1.57256
1.56347
1.55415
1.54694
1.53932
1.53359
1.52735
1.5217
1.52452
1.51534
1.52464
1.52556
1.51088
1.52706
1.51331
1.53191
1.52661
1.54284
1.54068
1.55694
1.55897
1.57326
1.57927
1.59146
1.59884
1.60755
1.60715
1.59505
1.56713
1.72868
2.42734
2.44903
1.75596
1.5893
1.61373
1.61549
1.61385
1.60098
1.59533
1.5815
1.57256
1.56347
1.55415
1.54694
1.53932
1.53359
1.52735
1.5217
1.52452
1.51534
1.52464
1.52556
1.51088
1.52706
1.51331
1.53191
1.52661
1.54284
1.54068
1.55694
1.55897
1.57326
1.57927
1.59146
1.59884
1.60755
1.60715
1.59505
1.56713
1.72868
2.42734
1.77057
1.0828
1.07501
1.05887
1.0325
0.999402
0.9644
0.929613
0.896951
0.865341
0.839664
0.813174
0.791597
0.77043
0.752166
0.735863
0.722209
0.712605
0.705401
0.70644
0.706322
0.705315
0.714332
0.724349
0.742194
0.758322
0.783898
0.803689
0.833958
0.859275
0.891732
0.921672
0.956572
0.98975
1.02223
1.0493
1.06515
1.07671
1.06186
1.73581
1.55989
1.12588
1.07879
1.04452
1.01864
0.986349
0.9554
0.922888
0.89397
0.864299
0.842715
0.8188
0.800507
0.781333
0.764607
0.748749
0.734067
0.721156
0.712602
0.711968
0.711979
0.713523
0.722595
0.736302
0.752409
0.767711
0.790463
0.805718
0.83286
0.852826
0.881533
0.906149
0.937125
0.965332
0.994413
1.0159
1.03734
1.04732
1.08344
1.57344
1.5775
1.12448
1.06947
1.03251
1.00458
0.96794
0.937221
0.902763
0.874149
0.844574
0.821918
0.798065
0.778812
0.760113
0.743877
0.729402
0.716952
0.706777
0.700745
0.701279
0.701288
0.701744
0.708792
0.720453
0.734811
0.750059
0.771538
0.787393
0.814106
0.83474
0.863212
0.888587
0.91942
0.947917
0.9772
1.00044
1.0239
1.03725
1.07333
1.60218
1.58079
1.11349
1.05343
1.01266
0.984318
0.944793
0.913956
0.87821
0.849412
0.819756
0.795616
0.771506
0.751329
0.732557
0.716199
0.701908
0.689803
0.680052
0.674161
0.674419
0.674442
0.675089
0.681932
0.693151
0.707131
0.722678
0.743856
0.76084
0.787786
0.809436
0.838591
0.864922
0.896219
0.925127
0.954535
0.978333
1.00233
1.01799
1.05864
1.61519
1.57736
1.09703
1.03481
0.991054
0.96149
0.919236
0.887694
0.851334
0.822201
0.792647
0.768011
0.744185
0.723632
0.704802
0.688277
0.673887
0.661733
0.651992
0.64604
0.646087
0.646372
0.647636
0.654954
0.666533
0.68094
0.697208
0.718468
0.736651
0.763708
0.785991
0.815355
0.842018
0.873223
0.901958
0.931243
0.955226
0.980007
0.997855
1.03495
1.61748
1.56125
1.07359
1.00931
0.963043
0.932885
0.888004
0.855829
0.81937
0.78967
0.760427
0.735112
0.711254
0.690407
0.671503
0.654856
0.640478
0.628452
0.618949
0.61313
0.613037
0.613397
0.614905
0.622287
0.633876
0.648454
0.665256
0.686601
0.706049
0.733484
0.756677
0.786701
0.814146
0.845854
0.874897
0.904679
0.928987
0.954188
0.972517
1.00491
1.60945
1.55213
1.05063
0.983209
0.933768
0.902054
0.854034
0.821268
0.785396
0.755627
0.726579
0.70132
0.677959
0.657059
0.638087
0.621218
0.606599
0.594383
0.584793
0.578889
0.578628
0.579253
0.581388
0.58933
0.601458
0.616701
0.634391
0.656266
0.676964
0.704637
0.728491
0.758792
0.786441
0.817896
0.846403
0.876026
0.899965
0.925448
0.944201
0.97219
1.60237
1.53756
1.02756
0.95738
0.903449
0.869612
0.818208
0.784024
0.748407
0.718302
0.689784
0.664503
0.641097
0.620269
0.601105
0.584042
0.569257
0.556947
0.547362
0.541437
0.541019
0.541825
0.544438
0.552774
0.565297
0.581078
0.599547
0.621948
0.643903
0.672046
0.696847
0.727806
0.756014
0.787778
0.8163
0.846329
0.870142
0.896039
0.914867
0.938619
1.59002
1.52572
1.00615
0.932905
0.873977
0.83706
0.782564
0.746435
0.710969
0.680854
0.653077
0.628229
0.605009
0.583803
0.564582
0.547021
0.531691
0.518873
0.508893
0.502654
0.501966
0.503031
0.506396
0.515569
0.529033
0.545903
0.56567
0.589082
0.612573
0.641484
0.667461
0.699183
0.728007
0.760175
0.788903
0.819541
0.843664
0.870577
0.890307
0.908972
1.58292
1.50665
0.983954
0.90738
0.84245
0.801976
0.744762
0.706287
0.670464
0.640378
0.613358
0.588942
0.565931
0.544614
0.524743
0.506766
0.491006
0.477815
0.46758
0.461168
0.460313
0.46165
0.465687
0.475562
0.489819
0.507638
0.528539
0.552953
0.57795
0.60775
0.635088
0.667757
0.697396
0.730161
0.759205
0.790336
0.814642
0.842242
0.861816
0.877035
1.56864
1.49618
0.966067
0.885869
0.813477
0.767699
0.707843
0.666684
0.63025
0.600891
0.575355
0.551918
0.529235
0.507602
0.486976
0.467915
0.451115
0.4369
0.425794
0.418766
0.417532
0.419168
0.424152
0.435238
0.450985
0.470548
0.493359
0.519592
0.546768
0.578091
0.607347
0.641349
0.672159
0.705814
0.735554
0.767428
0.792368
0.820988
0.84143
0.851782
1.56527
1.45964
0.943903
0.861478
0.780322
0.72935
0.667809
0.623851
0.58592
0.557087
0.533361
0.511465
0.489675
0.46822
0.447274
0.427521
0.409734
0.394586
0.382778
0.37527
0.373764
0.375768
0.381725
0.394001
0.411157
0.432308
0.456815
0.484565
0.513532
0.546028
0.576839
0.611757
0.643406
0.677608
0.707777
0.740042
0.765292
0.794359
0.814863
0.822212
1.54935
1.44899
0.929486
0.844191
0.750568
0.690725
0.628146
0.581329
0.5422
0.514449
0.493413
0.473612
0.452804
0.43121
0.409372
0.38836
0.369165
0.352661
0.339691
0.331388
0.329486
0.331929
0.339121
0.353003
0.372098
0.395426
0.422236
0.452141
0.483536
0.517923
0.551012
0.587532
0.620804
0.656253
0.687604
0.720888
0.747304
0.777474
0.798852
0.80182
1.55021
1.40843
0.914054
0.827309
0.718854
0.646422
0.583111
0.533652
0.494195
0.467614
0.450335
0.433913
0.415211
0.394172
0.371756
0.349553
0.328879
0.310812
0.296488
0.287232
0.284892
0.287889
0.296566
0.312379
0.333721
0.359444
0.38864
0.420709
0.454327
0.490338
0.525305
0.562884
0.597227
0.633206
0.665021
0.698323
0.724877
0.754741
0.775215
0.775654
1.53478
1.38971
0.904798
0.817119
0.687868
0.597694
0.533901
0.482517
0.445389
0.420423
0.407865
0.395595
0.379604
0.35931
0.336154
0.312398
0.289781
0.269681
0.253504
0.242915
0.240004
0.243731
0.254335
0.272648
0.296801
0.325389
0.35733
0.391855
0.427893
0.465765
0.502825
0.541718
0.57753
0.614436
0.647317
0.681326
0.708949
0.739358
0.760308
0.759097
1.53979
1.35728
0.89095
0.808709
0.658816
0.543901
0.47464
0.424744
0.392501
0.371674
0.365009
0.358226
0.345996
0.326973
0.303111
0.27754
0.252527
0.229781
0.211061
0.198551
0.194849
0.199598
0.212817
0.234422
0.26205
0.293951
0.328874
0.365964
0.404363
0.444017
0.482986
0.522977
0.560047
0.597541
0.631141
0.665302
0.69345
0.723438
0.743175
0.740194
1.52784
1.29464
0.83319
0.766447
0.614377
0.484907
0.402256
0.362073
0.336769
0.324833
0.323887
0.323844
0.316016
0.298641
0.274015
0.246296
0.218347
0.192145
0.169818
0.15434
0.149415
0.155737
0.17274
0.198776
0.230653
0.266269
0.304312
0.343966
0.384596
0.425922
0.466614
0.507584
0.545821
0.583822
0.618118
0.652396
0.681061
0.710629
0.72892
0.727004
1.5363
1.0175
0.616907
0.618174
0.530518
0.418773
0.31364
0.292755
0.281856
0.282341
0.288344
0.29466
0.291556
0.275989
0.250528
0.220452
0.189168
0.158685
0.131245
0.110846
0.103739
0.112836
0.135708
0.16763
0.20439
0.243828
0.284841
0.326816
0.369369
0.412121
0.454232
0.495998
0.535209
0.573579
0.608453
0.642756
0.671975
0.701103
0.716956
0.71326
1.52093
0.341751
0.475626
0.414551
0.372443
0.280292
0.201983
0.21875
0.236794
0.248776
0.26133
0.272818
0.274145
0.260275
0.234063
0.201922
0.167593
0.132699
0.0987712
0.0698786
0.0578478
0.0730926
0.105282
0.144089
0.185499
0.22814
0.271445
0.315114
0.359007
0.402727
0.445772
0.488034
0.527873
0.566423
0.601615
0.635811
0.665364
0.694168
0.70712
0.705129
1.52309
)
;

boundaryField
{
    inlet
    {
        type            calculated;
        value           uniform 0;
    }
    outlet
    {
        type            calculated;
        value           nonuniform List<scalar> 
165
(
0.341751
1.0175
1.29464
1.35728
1.38971
1.40843
1.44899
1.45964
1.49618
1.50665
1.52572
1.53756
1.55213
1.56125
1.57736
1.58079
1.5775
1.55989
1.77057
2.44903
2.44903
1.75596
1.5893
1.61373
1.61549
1.61385
1.60098
1.59533
1.5815
1.57256
1.56347
1.55415
1.54694
1.53932
1.53359
1.52735
1.5217
1.52452
1.51534
1.52464
1.52556
1.51088
1.52706
1.51331
1.53191
1.52661
1.54284
1.54068
1.55694
1.55897
1.57326
1.57927
1.59146
1.59884
1.60755
1.60715
1.59505
1.56713
1.72868
2.42734
1.52309
1.52093
1.5363
1.52784
1.53979
1.53478
1.55021
1.54935
1.56527
1.56864
1.58292
1.59002
1.60237
1.60945
1.61748
1.61519
1.60218
1.57344
1.73581
2.42734
1.52201
1.51935
1.52432
1.51935
1.52201
2.42734
1.73581
1.57344
1.60218
1.61519
1.61748
1.60945
1.60237
1.59002
1.58292
1.56864
1.56527
1.54935
1.55021
1.53478
1.53979
1.52784
1.5363
1.52093
1.52309
2.44903
1.75596
1.5893
1.61373
1.61549
1.61385
1.60098
1.59533
1.5815
1.57256
1.56347
1.55415
1.54694
1.53932
1.53359
1.52735
1.5217
1.52452
1.51534
1.52464
1.52556
1.51088
1.52706
1.51331
1.53191
1.52661
1.54284
1.54068
1.55694
1.55897
1.57326
1.57927
1.59146
1.59884
1.60755
1.60715
1.59505
1.56713
1.72868
2.42734
2.44903
1.77057
1.55989
1.5775
1.58079
1.57736
1.56125
1.55213
1.53756
1.52572
1.50665
1.49618
1.45964
1.44899
1.40843
1.38971
1.35728
1.29464
1.0175
0.341751
)
;
    }
    obstacle
    {
        type            calculated;
        value           nonuniform List<scalar> 
40
(
0.807984
0.0875172
0.0131101
0.0179264
0.0266755
0.0368986
0.0485316
0.0593538
0.0698067
0.0700869
0.807984
0.0875172
0.0131101
0.0179264
0.0266755
0.0368986
0.0485316
0.0593538
0.0698067
0.0700869
0.0790042
0.111911
0.160029
0.236728
0.364516
0.0790042
0.111911
0.160029
0.236728
0.364516
0.645715
0.668494
0.681336
0.722276
0.790826
0.645715
0.668494
0.681336
0.722276
0.790826
)
;
    }
    empty
    {
        type            empty;
    }
}


// ************************************************************************* //
