/*--------------------------------*- C++ -*----------------------------------*\
| =========                 |                                                 |
| \\      /  F ield         | OpenFOAM: The Open Source CFD Toolbox           |
|  \\    /   O peration     | Version:  v1912                                 |
|   \\  /    A nd           | Website:  www.openfoam.com                      |
|    \\/     M anipulation  |                                                 |
\*---------------------------------------------------------------------------*/
FoamFile
{
    version     2.0;
    format      ascii;
    class       volVectorField;
    location    "5.98";
    object      grad(rho);
}
// * * * * * * * * * * * * * * * * * * * * * * * * * * * * * * * * * * * * * //

dimensions      [1 -4 0 0 0 0 0];


internalField   nonuniform List<vector> 
1900
(
(129513 -0.184551 0)
(-126100 0.519794 0)
(-9512.23 -0.474463 0)
(-2944.22 -1.23116 0)
(-2174.23 -3.09687 0)
(-1126.9 -3.28464 0)
(-585.36 -20.0845 0)
(-320.227 9.12455 0)
(-43.5787 50.9391 0)
(1088.7 12.6554 0)
(129514 -0.31394 0)
(-126100 0.763442 0)
(-9513.98 -0.716571 0)
(-2946.84 -2.03817 0)
(-2176.28 -3.91882 0)
(-1143.89 -1.28939 0)
(-572.951 -22.3158 0)
(-249.203 3.90916 0)
(-40.0479 22.741 0)
(180.206 -26.4648 0)
(129514 -4.32721e-08 0)
(-126100 -8.43769e-09 0)
(-9515.03 1.62537e-08 0)
(-2947.42 1.84919e-08 0)
(-2173.48 1.65024e-08 0)
(-1145.3 8.01137e-09 0)
(-580.161 -2.45137e-09 0)
(-275.17 2.2915e-09 0)
(-73.9527 7.21201e-09 0)
(27.2405 2.18492e-09 0)
(129514 0.313939 0)
(-126100 -0.763442 0)
(-9513.98 0.716571 0)
(-2946.84 2.03817 0)
(-2176.28 3.91882 0)
(-1143.89 1.28939 0)
(-572.951 22.3158 0)
(-249.203 -3.90916 0)
(-40.0479 -22.741 0)
(180.206 26.4648 0)
(129513 0.184551 0)
(-126100 -0.519794 0)
(-9512.23 0.474463 0)
(-2944.22 1.23116 0)
(-2174.23 3.09687 0)
(-1126.9 3.28464 0)
(-585.36 20.0845 0)
(-320.227 -9.12455 0)
(-43.5787 -50.9391 0)
(1088.7 -12.6554 0)
(150.934 -734.726 1.26762e-11)
(-1960.62 -492.289 -1.50326e-11)
(-3035.57 -463.998 -1.89096e-11)
(-2761.3 -333.415 0)
(-25635 -7587.43 -7.92136e-11)
(-271.542 -899.422 1.25434e-11)
(-1259.51 -601.362 1.50326e-11)
(-2657.87 -492.353 1.89096e-11)
(-5484.68 103.273 0)
(-24357.9 -6473.87 0)
(-585.608 3.16977e-09 0)
(-1217.36 4.94731e-09 0)
(-2402.1 5.35374e-09 0)
(-5110.01 6.25762e-09 0)
(-26661.4 1.95611e-09 0)
(-271.542 899.422 1.25434e-11)
(-1259.51 601.362 1.50326e-11)
(-2657.87 492.353 1.89096e-11)
(-5484.68 -103.273 0)
(-24357.9 6473.87 0)
(150.934 734.726 -3.7763e-11)
(-1960.62 492.289 -1.50326e-11)
(-3035.57 463.998 -1.89096e-11)
(-2761.3 333.415 -5.04217e-11)
(-25635 7587.43 7.92136e-11)
(-46688 14865.6 1.81733e-11)
(-14964.1 6853.47 -9.93861e-12)
(-2646.38 3070.78 0)
(500.689 1816.67 6.53794e-12)
(-3646.25 1864.6 -2.91794e-12)
(-41965.9 19246.6 -9.31048e-12)
(-17557.4 6015.43 5.07251e-12)
(-3943.58 1675.07 0)
(254.631 606.805 -4.12498e-12)
(-3001.07 942.974 7.50625e-13)
(-43480.9 -3.14002e-10 0)
(-19513.5 -2.01169e-09 0)
(-4384.03 -5.75671e-10 0)
(185.078 2.1624e-09 1.6573e-12)
(-2736.93 -1.94776e-09 -1.50125e-12)
(-41965.9 -19246.6 -9.31048e-12)
(-17557.4 -6015.43 5.07251e-12)
(-3943.58 -1675.07 0)
(254.631 -606.805 -4.12498e-12)
(-3001.07 -942.974 7.50625e-13)
(-46688 -14865.6 9.31048e-12)
(-14964.1 -6853.47 -2.06404e-13)
(-2646.38 -3070.78 0)
(500.689 -1816.67 5.47121e-14)
(-3646.25 -1864.6 2.91794e-12)
(-7089.44 4727.6 0)
(-3532.18 -162.811 0)
(1764.46 -2263.79 0)
(5773.82 -1964.18 0)
(5129.85 606.572 0)
(1480.26 1385.82 0)
(-617.906 1570.01 0)
(-2152.97 1148.05 0)
(-2935.61 626.868 0)
(-2842.91 319.071 0)
(-2033.68 145.002 0)
(-1173.12 57.2501 0)
(-761.156 22.9397 0)
(-643.506 15.7392 0)
(-588.984 21.1611 0)
(-509.723 15.0888 0)
(-379.799 4.45773 0)
(-238.274 -0.756612 0)
(-140.542 -1.93243 0)
(-93.1176 -1.77374 0)
(-73.9082 -1.45189 0)
(-64.6904 -1.31142 0)
(-56.6065 -1.39391 0)
(-46.9437 -1.62161 0)
(-35.318 -1.90097 0)
(-22.8205 -2.1796 0)
(-8.74468 -2.38849 0)
(8.44633 -2.54811 0)
(28.7707 -2.65203 0)
(45.6469 -2.51222 0)
(64.7309 -2.5323 0)
(79.2371 -2.14672 0)
(105.165 -3.02946 0)
(138.865 -1.32047 0)
(226.389 -2.80509 0)
(293.86 4.99886 0)
(270.472 1.38421 0)
(380.448 -1.37979 0)
(-473.783 -10.128 0)
(9783.83 9.48332 0)
(-7031 3385.13 0)
(-4626.51 706.679 0)
(1130.38 -559.137 0)
(6050.81 -606.159 0)
(5557.75 431.778 0)
(1588.88 724.148 0)
(-731.829 670.52 0)
(-2338.03 426.741 0)
(-3058.28 248.652 0)
(-2902.85 154.85 0)
(-2061.81 68.115 0)
(-1184.35 23.9536 0)
(-764.574 8.31263 0)
(-643.353 6.87003 0)
(-589.149 9.22928 0)
(-511.428 5.35049 0)
(-381.149 1.10869 0)
(-238.69 -0.679429 0)
(-140.571 -0.935721 0)
(-93.0656 -0.818699 0)
(-73.8636 -0.669857 0)
(-64.6836 -0.607334 0)
(-56.6348 -0.650381 0)
(-46.9907 -0.760361 0)
(-35.3705 -0.895284 0)
(-22.8672 -1.03343 0)
(-8.7818 -1.14303 0)
(8.41608 -1.23666 0)
(28.7672 -1.31292 0)
(45.6486 -1.2823 0)
(64.7587 -1.32328 0)
(79.1713 -1.16648 0)
(105.255 -1.6097 0)
(138.832 -0.71847 0)
(226.931 -1.69476 0)
(294.36 1.86808 0)
(270.164 1.041 0)
(378.699 1.8185 0)
(-473.425 -6.64926 0)
(9743.2 -3.19808 0)
(-6987.14 1.59194e-07 0)
(-4679.6 -4.0136e-07 0)
(1382.55 3.63749e-08 0)
(6062.09 1.06399e-06 0)
(5516.85 5.7097e-07 0)
(1549.71 3.56079e-07 0)
(-704.424 5.21764e-08 0)
(-2275.7 -7.56082e-08 0)
(-3014.71 -7.37834e-08 0)
(-2895.43 -5.43727e-08 0)
(-2071.76 -3.86196e-08 0)
(-1190.52 -2.77596e-08 0)
(-766.125 -2.46833e-08 0)
(-643.239 -1.01091e-08 0)
(-589.426 8.84141e-09 0)
(-512.086 -1.12314e-08 0)
(-381.553 -9.02712e-09 0)
(-238.869 -1.93784e-10 0)
(-140.582 2.93099e-09 0)
(-93.0402 7.86442e-09 0)
(-73.8467 1.15705e-08 0)
(-64.6847 1.36214e-08 0)
(-56.651 1.29513e-08 0)
(-47.0149 7.96131e-09 0)
(-35.3974 3.60116e-09 0)
(-22.8926 1.2919e-09 0)
(-8.8038 1.69561e-10 0)
(8.39691 -1.01737e-09 0)
(28.7574 5.61975e-09 0)
(45.6438 1.27817e-08 0)
(64.7646 1.50264e-08 0)
(79.1538 7.67063e-09 0)
(105.295 -7.27499e-09 0)
(138.84 2.02182e-08 0)
(227.141 3.58178e-08 0)
(294.656 7.73523e-09 0)
(270.458 -7.04891e-08 0)
(378.211 1.93623e-08 0)
(-475.242 1.10829e-07 0)
(9723.39 4.02991e-08 0)
(-7031 -3385.13 0)
(-4626.51 -706.679 0)
(1130.38 559.137 0)
(6050.81 606.159 0)
(5557.75 -431.778 0)
(1588.88 -724.148 0)
(-731.829 -670.52 0)
(-2338.03 -426.741 0)
(-3058.28 -248.652 0)
(-2902.85 -154.85 0)
(-2061.81 -68.115 0)
(-1184.35 -23.9536 0)
(-764.574 -8.31263 0)
(-643.353 -6.87003 0)
(-589.149 -9.22928 0)
(-511.428 -5.35049 0)
(-381.149 -1.10869 0)
(-238.69 0.679429 0)
(-140.571 0.935721 0)
(-93.0656 0.818699 0)
(-73.8636 0.669857 0)
(-64.6836 0.607334 0)
(-56.6348 0.650381 0)
(-46.9907 0.760361 0)
(-35.3705 0.895284 0)
(-22.8672 1.03343 0)
(-8.7818 1.14303 0)
(8.41608 1.23666 0)
(28.7672 1.31292 0)
(45.6486 1.2823 0)
(64.7587 1.32328 0)
(79.1713 1.16648 0)
(105.255 1.6097 0)
(138.832 0.71847 0)
(226.931 1.69476 0)
(294.36 -1.86809 0)
(270.164 -1.041 0)
(378.699 -1.8185 0)
(-473.425 6.64927 0)
(9743.2 3.19808 0)
(-7089.44 -4727.6 0)
(-3532.18 162.811 0)
(1764.46 2263.79 0)
(5773.82 1964.18 0)
(5129.85 -606.572 0)
(1480.26 -1385.82 0)
(-617.906 -1570.01 0)
(-2152.97 -1148.05 0)
(-2935.61 -626.868 0)
(-2842.91 -319.071 0)
(-2033.68 -145.002 0)
(-1173.12 -57.2501 0)
(-761.156 -22.9397 0)
(-643.506 -15.7392 0)
(-588.984 -21.1611 0)
(-509.723 -15.0888 0)
(-379.799 -4.45773 0)
(-238.274 0.756612 0)
(-140.542 1.93243 0)
(-93.1176 1.77374 0)
(-73.9082 1.45189 0)
(-64.6904 1.31142 0)
(-56.6065 1.39391 0)
(-46.9437 1.62161 0)
(-35.318 1.90097 0)
(-22.8205 2.1796 0)
(-8.74468 2.38849 0)
(8.44633 2.54811 0)
(28.7707 2.65203 0)
(45.6469 2.51222 0)
(64.7309 2.5323 0)
(79.2371 2.14672 0)
(105.165 3.02946 0)
(138.865 1.32047 0)
(226.389 2.80509 0)
(293.86 -4.99886 0)
(270.472 -1.38421 0)
(380.448 1.37979 0)
(-473.783 10.128 0)
(9783.83 -9.48332 0)
(-2105.33 -1201.88 0)
(-1506.32 2439.59 0)
(1527.17 3505.77 0)
(4570.58 2554.76 0)
(3951.13 -679.129 0)
(1110.13 -1634.15 0)
(-714.402 -1677.23 0)
(-1960.39 -1366.51 0)
(-2680.12 -918.87 0)
(-2669.89 -571.558 0)
(-1930.1 -278.437 0)
(-1120.75 -106.011 0)
(-742.488 -45.109 0)
(-642.062 -33.1863 0)
(-588.932 -37.1659 0)
(-502.923 -27.499 0)
(-372.771 -10.1924 0)
(-235.163 0.188444 0)
(-139.967 3.12415 0)
(-93.3069 2.97789 0)
(-74.1021 2.40923 0)
(-64.712 2.17389 0)
(-56.4728 2.33598 0)
(-46.727 2.75165 0)
(-35.0813 3.25132 0)
(-22.6153 3.74157 0)
(-8.59357 4.10739 0)
(8.54643 4.3738 0)
(28.7406 4.52225 0)
(45.5755 4.27793 0)
(64.5615 4.2096 0)
(79.4071 3.63858 0)
(104.841 4.68356 0)
(138.653 2.69751 0)
(223.595 3.18379 0)
(292.31 -7.82654 0)
(273.808 -3.48732 0)
(383.898 5.03929 0)
(-479.826 27.8275 0)
(9816.47 10.7328 0)
(-987.152 21.7767 0)
(-82.0515 550.229 0)
(2002.7 1472.65 0)
(2386.32 529.655 0)
(1725.33 -1321.06 0)
(716.926 -2002.89 0)
(-308.253 -1942.64 0)
(-1525.46 -1595.27 0)
(-2306.57 -1226.68 0)
(-2318.55 -815.446 0)
(-1640.6 -391.099 0)
(-976.364 -150.42 0)
(-700.99 -74.4468 0)
(-636.625 -59.0638 0)
(-583.531 -54.8637 0)
(-487.377 -38.8538 0)
(-356.887 -15.9258 0)
(-227.11 -0.70852 0)
(-138.162 4.35858 0)
(-93.705 4.5201 0)
(-74.579 3.79666 0)
(-64.7494 3.50381 0)
(-56.1215 3.79333 0)
(-46.1778 4.45603 0)
(-34.491 5.23615 0)
(-22.1056 5.99626 0)
(-8.21648 6.54345 0)
(8.79243 6.95481 0)
(28.6945 7.18752 0)
(45.3838 6.82119 0)
(64.2057 6.67939 0)
(79.6027 5.94903 0)
(104.431 7.12491 0)
(137.534 5.04573 0)
(217.746 4.22965 0)
(288.263 -8.78483 0)
(281.082 -5.9825 0)
(408.774 8.43706 0)
(-465.056 49.5476 0)
(9691.82 29.5328 0)
(-1871.02 -685.446 0)
(-108.21 69.5751 0)
(1507.34 -578.962 0)
(1878.46 -1079.96 0)
(1510.68 -1533.41 0)
(511.147 -1624.41 0)
(-321.599 -1793.62 0)
(-1270.46 -1676.01 0)
(-1928.65 -1375.13 0)
(-1864.69 -887.838 0)
(-1289.26 -419.805 0)
(-815.616 -181.951 0)
(-654.454 -107.42 0)
(-623.191 -86.2669 0)
(-569.457 -72.1829 0)
(-465.401 -48.3151 0)
(-336.013 -20.3871 0)
(-215.616 -1.54743 0)
(-134.928 5.39556 0)
(-93.8484 6.11885 0)
(-75.0815 5.46876 0)
(-64.7152 5.23843 0)
(-55.5552 5.70454 0)
(-45.3367 6.63364 0)
(-33.597 7.70651 0)
(-21.3555 8.74021 0)
(-7.66987 9.39634 0)
(9.16707 9.93135 0)
(28.6118 10.2496 0)
(45.0859 9.69893 0)
(63.721 9.46612 0)
(79.8364 8.56994 0)
(103.971 9.77551 0)
(135.863 7.58848 0)
(210.267 5.87712 0)
(282.469 -8.09222 0)
(290.403 -6.38969 0)
(437.409 11.2669 0)
(-459.497 56.313 0)
(9550.6 24.0696 0)
(-2923.26 -1179.19 0)
(20.5607 46.3372 0)
(894.966 -721.269 0)
(1466.58 -1031 0)
(1200.68 -1294.11 0)
(466.176 -1477.04 0)
(-357.968 -1622.66 0)
(-1122.19 -1596.18 0)
(-1547.07 -1305.76 0)
(-1397.96 -814.6 0)
(-960.385 -399.538 0)
(-675.339 -202.751 0)
(-608.785 -136.239 0)
(-602.67 -110.169 0)
(-546.96 -85.6012 0)
(-437.465 -53.8258 0)
(-311.82 -21.9362 0)
(-202.265 -1.27231 0)
(-130.775 6.75456 0)
(-93.6344 8.0275 0)
(-75.4274 7.65704 0)
(-64.5222 7.63218 0)
(-54.777 8.30298 0)
(-44.2486 9.44938 0)
(-32.461 10.722 0)
(-20.4772 11.8918 0)
(-7.06865 12.6395 0)
(9.61467 13.2196 0)
(28.4705 13.383 0)
(44.6288 12.5926 0)
(63.1178 12.1348 0)
(79.9009 11.0304 0)
(103.486 11.8127 0)
(133.777 9.71377 0)
(202.635 7.23473 0)
(276.442 -5.33434 0)
(299.737 -6.03456 0)
(469.197 12.7467 0)
(-452.719 60.6535 0)
(9432.28 32.2217 0)
(-3930.28 -1132.94 0)
(333.056 -328.967 0)
(469.174 -578.163 0)
(1326.46 -873.599 0)
(1080.86 -928.336 0)
(194.545 -1313.41 0)
(-436.402 -1459.68 0)
(-965.093 -1410.02 0)
(-1175.49 -1114.66 0)
(-991.417 -674.289 0)
(-699.658 -358.248 0)
(-561.892 -209.065 0)
(-565.239 -154.282 0)
(-574.395 -125.915 0)
(-515.162 -91.9303 0)
(-404.051 -53.7418 0)
(-285.37 -19.8888 0)
(-187.969 1.28048 0)
(-125.967 9.69446 0)
(-92.9787 11.4284 0)
(-75.4624 11.4583 0)
(-64.0928 11.733 0)
(-53.8041 12.6113 0)
(-43.0056 13.8994 0)
(-31.2434 15.2534 0)
(-19.5078 16.4414 0)
(-6.39037 17.3469 0)
(9.88352 17.9044 0)
(28.0076 17.705 0)
(43.8831 16.6725 0)
(62.2157 15.9365 0)
(79.526 14.6209 0)
(102.702 14.86 0)
(131.452 12.8943 0)
(195.766 10.2442 0)
(269.682 0.391078 0)
(307.827 -2.8275 0)
(501.672 17.7891 0)
(-440.731 62.3952 0)
(9325.38 44.6646 0)
(-4642.62 -658.275 0)
(555.166 -379.978 0)
(370.139 -394.844 0)
(1129.14 -538.133 0)
(776.858 -868.357 0)
(-45.849 -1182.26 0)
(-451.066 -1268.78 0)
(-789.71 -1173.16 0)
(-838.09 -879.492 0)
(-669.055 -529.935 0)
(-512.079 -309.298 0)
(-478.79 -208.008 0)
(-528.658 -166.972 0)
(-542.585 -135.288 0)
(-477.411 -92.9003 0)
(-368.043 -49.5905 0)
(-258.799 -14.8188 0)
(-173.758 5.8575 0)
(-120.996 14.2238 0)
(-91.9348 16.4225 0)
(-75.1339 16.9555 0)
(-63.4111 17.5838 0)
(-52.6893 18.6291 0)
(-41.7026 19.9336 0)
(-30.0115 21.2078 0)
(-18.4598 22.2847 0)
(-5.6588 23.1639 0)
(9.95966 23.4454 0)
(27.2834 22.7185 0)
(42.9247 21.2592 0)
(61.1408 19.9818 0)
(78.8635 18.2102 0)
(101.822 17.6712 0)
(129.329 15.591 0)
(190.587 12.9766 0)
(263.846 4.88483 0)
(316.502 0.741757 0)
(532.048 22.9576 0)
(-426.82 59.9689 0)
(9220.47 41.2565 0)
(-4972.07 -331.705 0)
(586.908 -321.382 0)
(316.771 -333.845 0)
(870.163 -406.9 0)
(460.156 -885.779 0)
(-191.318 -1032.66 0)
(-427.635 -1073.88 0)
(-589.958 -925.445 0)
(-555.658 -655.97 0)
(-441.958 -411.76 0)
(-389.437 -263.766 0)
(-424.741 -201.353 0)
(-495.163 -171.365 0)
(-503.016 -134.458 0)
(-432.581 -85.4891 0)
(-328.809 -39.6776 0)
(-231.938 -4.49642 0)
(-159.982 14.6622 0)
(-115.786 22.7379 0)
(-90.3464 25.3229 0)
(-74.3433 26.3392 0)
(-62.4801 27.2679 0)
(-51.5397 28.3728 0)
(-40.5207 29.5459 0)
(-28.9778 30.5688 0)
(-17.6229 31.3575 0)
(-5.27192 31.9559 0)
(9.45437 31.7858 0)
(25.9009 30.3815 0)
(41.2459 28.3117 0)
(59.2776 26.2696 0)
(77.2994 23.778 0)
(100.178 22.2631 0)
(126.928 19.7354 0)
(185.45 17.2471 0)
(257.892 9.93375 0)
(325.243 6.29822 0)
(558.745 27.439 0)
(-423.097 56.4839 0)
(9112.74 36.4348 0)
(-5274.75 -260.88 0)
(553.104 -325.057 0)
(287.73 -354.174 0)
(597.273 -421.883 0)
(173.856 -877.64 0)
(-227.112 -897.165 0)
(-347.754 -853.602 0)
(-386.995 -673.258 0)
(-343.084 -467.021 0)
(-291.113 -315.599 0)
(-309.322 -226.095 0)
(-389.749 -192.072 0)
(-464.196 -167.488 0)
(-459.832 -124.792 0)
(-386.078 -71.8323 0)
(-289.996 -25.8421 0)
(-206.435 7.16289 0)
(-147.514 24.8053 0)
(-110.723 32.5601 0)
(-88.4644 35.5129 0)
(-73.2596 36.995 0)
(-61.4514 38.1961 0)
(-50.4942 39.3314 0)
(-39.5865 40.3483 0)
(-28.2658 41.0973 0)
(-17.1232 41.5639 0)
(-5.24604 41.7936 0)
(8.44252 41.1443 0)
(23.9356 39.0754 0)
(38.9624 36.4127 0)
(56.772 33.6459 0)
(75.0027 30.5002 0)
(97.9263 28.1031 0)
(124.496 25.2225 0)
(181.141 22.7782 0)
(253.295 16.4493 0)
(333.371 13.8388 0)
(580.408 32.7912 0)
(-418.152 55.5375 0)
(8995.65 33.7103 0)
(-5635.97 -285.065 0)
(497.007 -356.943 0)
(223.466 -391.936 0)
(365.732 -542.919 0)
(2.15691 -758.47 0)
(-168.155 -717.853 0)
(-211.87 -609.317 0)
(-217.435 -462.035 0)
(-211.005 -330.091 0)
(-209.792 -242.813 0)
(-270.402 -198.435 0)
(-368.267 -183.923 0)
(-430.33 -157.914 0)
(-410.838 -108.714 0)
(-337.229 -53.7373 0)
(-252.686 -7.48347 0)
(-183.133 21.6747 0)
(-135.508 38.1502 0)
(-105.468 45.7385 0)
(-86.0728 49.1433 0)
(-71.7576 51.0525 0)
(-60.2286 52.3873 0)
(-49.4658 53.3537 0)
(-38.8189 53.9938 0)
(-27.8064 54.2649 0)
(-16.9519 54.2972 0)
(-5.67624 53.7966 0)
(6.83503 52.3361 0)
(21.3414 49.6356 0)
(36.0138 46.2116 0)
(53.5801 42.6612 0)
(71.9581 38.7819 0)
(95.0919 35.5961 0)
(121.797 32.2941 0)
(176.995 29.8368 0)
(249.278 23.9443 0)
(340.99 22.6787 0)
(598.927 39.0606 0)
(-422.211 56.6764 0)
(8868.78 31.9216 0)
(-6072.41 -305.744 0)
(450.119 -347.191 0)
(108.517 -410.035 0)
(244.067 -580.946 0)
(5.28375 -528.267 0)
(-83.3822 -485.288 0)
(-101.238 -395.985 0)
(-117.923 -314.227 0)
(-131.834 -238.038 0)
(-164.245 -192.648 0)
(-252.573 -178.449 0)
(-350.701 -171.05 0)
(-391.722 -138.073 0)
(-359.444 -84.6259 0)
(-288.528 -31.1977 0)
(-217.326 10.7052 0)
(-162.46 36.3345 0)
(-124.325 50.7608 0)
(-100.129 57.8944 0)
(-83.3436 61.5491 0)
(-70.1336 63.8078 0)
(-59.2339 65.3454 0)
(-48.9461 66.3669 0)
(-38.7085 66.9907 0)
(-27.9735 67.2591 0)
(-17.5744 67.3107 0)
(-7.13582 66.3904 0)
(4.43285 64.6669 0)
(18.0339 61.8935 0)
(32.2416 58.1957 0)
(49.6125 54.3424 0)
(68.1945 50.2578 0)
(91.6744 46.8935 0)
(118.946 43.7142 0)
(173.095 41.6971 0)
(246.397 36.6888 0)
(347.938 37.3997 0)
(613.17 51.3808 0)
(-425.031 63.7185 0)
(8723.05 39.8543 0)
(-6458.75 -240.376 0)
(396.508 -255.931 0)
(-1.78809 -355.873 0)
(251.799 -422.01 0)
(94.3361 -321.263 0)
(-40.6826 -302.8 0)
(-47.0294 -256.874 0)
(-65.2321 -211.05 0)
(-93.8468 -168.17 0)
(-152.37 -153.472 0)
(-249.589 -158.281 0)
(-329.359 -149.082 0)
(-347.049 -111.227 0)
(-307.849 -55.1495 0)
(-245.365 -3.85967 0)
(-187.61 30.8154 0)
(-144.534 53.3147 0)
(-114.732 65.7238 0)
(-95.0718 72.4437 0)
(-80.3746 76.2934 0)
(-68.0994 78.7523 0)
(-57.7625 80.2677 0)
(-47.8804 81.1399 0)
(-37.9592 81.6451 0)
(-27.498 81.8877 0)
(-17.789 81.8841 0)
(-8.22392 80.7368 0)
(2.50171 79.0611 0)
(15.1056 76.2716 0)
(28.7373 72.6324 0)
(45.9309 68.8242 0)
(64.7801 64.8549 0)
(88.7863 61.8304 0)
(116.789 59.1735 0)
(170.225 58.008 0)
(245.137 54.248 0)
(355.148 56.7598 0)
(624.289 69.1991 0)
(-433.319 77.7834 0)
(8553.89 54.1403 0)
(-6695.06 -141.618 0)
(338.821 -157.569 0)
(-51.5229 -229.871 0)
(277.419 -231.882 0)
(120.159 -188.698 0)
(-21.3345 -184.94 0)
(-12.8246 -158.285 0)
(-32.4441 -137.846 0)
(-76.3504 -121.286 0)
(-154.715 -125.987 0)
(-248.343 -133.98 0)
(-305.358 -117.703 0)
(-301.205 -75.1709 0)
(-255.981 -22.2704 0)
(-205.689 21.7771 0)
(-162.231 51.0772 0)
(-128.821 69.3197 0)
(-105.892 79.1674 0)
(-89.9442 84.6011 0)
(-77.2643 88.0235 0)
(-66.3038 90.7111 0)
(-56.9331 92.9483 0)
(-47.6188 94.7903 0)
(-37.9879 96.234 0)
(-27.7432 97.178 0)
(-18.6836 97.5551 0)
(-9.8562 96.6459 0)
(0.130035 95.2594 0)
(11.8389 92.5222 0)
(25.065 89.1239 0)
(42.1178 85.6145 0)
(61.455 82.1028 0)
(86.1996 79.8976 0)
(115.262 78.4103 0)
(168.349 78.8979 0)
(245.195 77.4763 0)
(362.345 83.0435 0)
(633.429 96.2796 0)
(-439.542 103.413 0)
(8350.38 91.5386 0)
(-6839.66 -50.8076 0)
(311.464 -86.4293 0)
(-73.3995 -124.001 0)
(291.475 -125.411 0)
(139.571 -84.9059 0)
(-11.3755 -83.2338 0)
(-1.64826 -69.5905 0)
(-29.5786 -70.3733 0)
(-82.4189 -79.1949 0)
(-164.602 -99.5266 0)
(-241.607 -103.513 0)
(-272.688 -75.2897 0)
(-255.086 -25.5301 0)
(-214.427 20.3965 0)
(-174.684 55.6033 0)
(-141.796 81.1002 0)
(-117.465 96.6119 0)
(-100.007 105.714 0)
(-86.5377 111.322 0)
(-74.4867 115.066 0)
(-63.3536 117.698 0)
(-53.8317 119.369 0)
(-44.7141 120.383 0)
(-35.6583 121.008 0)
(-26.2249 121.224 0)
(-18.3018 121.087 0)
(-10.4362 119.985 0)
(-1.47208 118.639 0)
(9.19318 115.827 0)
(22.0808 112.937 0)
(39.1651 109.9 0)
(59.271 106.965 0)
(85.228 105.786 0)
(115.826 105.529 0)
(169.326 107.634 0)
(249.132 109.165 0)
(373.267 117.039 0)
(643.918 131.618 0)
(-437.887 138.996 0)
(8084.87 147.892 0)
(-6889.08 79.167 0)
(268.29 3.98989 0)
(-89.0871 -24.7731 0)
(315.092 -19.3127 0)
(160.803 3.60318 0)
(-6.57603 -2.05932 0)
(-0.431742 -1.45735 0)
(-41.6992 -16.9601 0)
(-104.444 -41.0329 0)
(-178.149 -60.8527 0)
(-224.987 -53.4763 0)
(-230.211 -16.1511 0)
(-208.999 28.6483 0)
(-177.797 67.9093 0)
(-147.193 98.4433 0)
(-122.713 120.419 0)
(-105.103 134.929 0)
(-91.7166 144.376 0)
(-80.9327 150.079 0)
(-71.1199 153.266 0)
(-62.1567 155.59 0)
(-54.3458 157.309 0)
(-46.0392 157.749 0)
(-37.178 156.911 0)
(-27.6677 155.396 0)
(-19.877 153.874 0)
(-12.2146 151.799 0)
(-3.87677 149.81 0)
(6.34351 147.061 0)
(19.353 144.837 0)
(36.3634 142.316 0)
(57.491 140.29 0)
(84.8158 140.437 0)
(117.043 141.734 0)
(171.853 145.543 0)
(254.257 149.506 0)
(383.981 158.699 0)
(654.588 175.233 0)
(-423.86 183.996 0)
(7771.11 216.043 0)
(-6763.75 262.873 0)
(211.304 128.886 0)
(-95.8547 114.894 0)
(318.819 116.476 0)
(156.197 108.665 0)
(-16.252 92.4235 0)
(-16.0072 76.3336 0)
(-67.715 48.1242 0)
(-124.715 22.7417 0)
(-176.593 19.01 0)
(-198.53 38.6079 0)
(-193.55 75.4671 0)
(-174.082 114.262 0)
(-147.17 149.698 0)
(-124.084 178.114 0)
(-106.637 199.984 0)
(-94.3789 217.43 0)
(-85.4073 231.376 0)
(-77.971 241.562 0)
(-69.1767 247.62 0)
(-59.4578 250.056 0)
(-51.7507 248.912 0)
(-45.0979 244.567 0)
(-37.9262 238.553 0)
(-29.1519 232.495 0)
(-21.7682 227.889 0)
(-14.3521 223.333 0)
(-6.03751 219.721 0)
(4.40087 215.789 0)
(17.5083 212.146 0)
(34.7837 208.531 0)
(57.4602 206.344 0)
(86.619 207.288 0)
(120.747 210.103 0)
(176.815 215.593 0)
(261.809 223.153 0)
(398.059 234.543 0)
(668.295 249.401 0)
(-398.562 247.259 0)
(7400.18 296.328 0)
(-6435.99 491.372 0)
(125.693 284.874 0)
(-101.046 272.313 0)
(309.089 262.989 0)
(137.625 224.953 0)
(-37.7317 199.363 0)
(-43.1201 168.273 0)
(-93.3423 136.872 0)
(-132.499 116.431 0)
(-162.86 122.854 0)
(-170.583 146.332 0)
(-157.308 179.782 0)
(-137.467 215.258 0)
(-116.266 245.827 0)
(-98.7357 269.07 0)
(-84.8271 286.147 0)
(-74.8527 298.575 0)
(-68.4624 307.887 0)
(-65.2797 315.078 0)
(-62.9351 320.122 0)
(-60.9113 322.078 0)
(-59.6344 320.98 0)
(-56.0214 318.625 0)
(-48.8119 316.25 0)
(-37.9438 313.071 0)
(-28.7057 310.031 0)
(-20.0856 305.653 0)
(-11.1465 303.004 0)
(-0.95604 299.643 0)
(12.3595 296.753 0)
(30.7728 296.087 0)
(56.2925 297.561 0)
(88.4373 303.241 0)
(125.047 310.332 0)
(184.429 320.713 0)
(272.518 332.799 0)
(409.274 345.915 0)
(666.842 353.786 0)
(-378.639 328.448 0)
(6958.17 412.977 0)
(-5820.41 1118.75 0)
(0.211294 383.458 0)
(-116.944 540.378 0)
(273.181 514.989 0)
(94.8853 419.522 0)
(-70.8704 379.632 0)
(-76.226 324.382 0)
(-117.672 283.667 0)
(-138.223 257.621 0)
(-147.78 257.702 0)
(-143.673 271.148 0)
(-127.131 288.245 0)
(-110.439 300.573 0)
(-95.3139 307.181 0)
(-85.2297 307.488 0)
(-78.2046 303.828 0)
(-73.4302 297.031 0)
(-69.5045 288.742 0)
(-66.1809 281.684 0)
(-62.4313 278.675 0)
(-58.6305 280.553 0)
(-55.0786 287.674 0)
(-49.6563 298.695 0)
(-43.278 312.336 0)
(-35.1449 325.529 0)
(-28.9162 338.576 0)
(-21.1229 350.408 0)
(-11.8289 363.128 0)
(-1.62262 374.915 0)
(14.0814 385.603 0)
(35.5622 397.396 0)
(64.3544 408.814 0)
(98.9251 423.654 0)
(137.583 438.405 0)
(198.466 457.494 0)
(286.094 471.411 0)
(418.283 480.438 0)
(651.463 482.346 0)
(-341.523 422.908 0)
(6367.4 818.524 0)
(-5162.94 27140.5 0)
(-431.644 1799.18 0)
(25.7024 1213.15 0)
(192.627 960.923 0)
(7.18949 788.016 0)
(-129.413 710.638 0)
(-135.596 633.736 0)
(-157.675 584.16 0)
(-157.52 553.293 0)
(-149.825 540.333 0)
(-141.152 535.926 0)
(-128.954 527.305 0)
(-119.219 512.337 0)
(-109.603 490.063 0)
(-101.966 461.951 0)
(-94.9033 432.005 0)
(-89.3907 404.099 0)
(-83.2516 381.921 0)
(-74.9802 366.835 0)
(-64.0256 361.015 0)
(-52.2402 366.75 0)
(-42.152 385.607 0)
(-32.2559 413.384 0)
(-22.9538 447.423 0)
(-12.6577 484.852 0)
(-4.7305 521.198 0)
(3.57379 555.369 0)
(12.4688 585.229 0)
(20.7017 612.022 0)
(34.0236 633.763 0)
(53.1396 650.922 0)
(81.5955 664.46 0)
(116.952 677.471 0)
(157.656 691.56 0)
(216.234 709.812 0)
(294.628 713.809 0)
(419.812 700.902 0)
(611.403 644.975 0)
(-54.6861 1404.29 0)
(5969.42 23407.2 0)
(12770.1 525977 0)
(-24984.3 24473.6 0)
(-924.721 906.894 0)
(-136.492 158.057 0)
(-146.299 -150.001 0)
(-219.541 -264.986 0)
(-198.105 -362.376 0)
(-195.189 -379.693 0)
(-180.456 -390.483 0)
(-164.516 -379.092 0)
(-156.228 -368.156 0)
(-149.861 -365.342 0)
(-146.326 -371.191 0)
(-143.868 -383.167 0)
(-141.177 -401.536 0)
(-133.953 -422.175 0)
(-121.693 -442.166 0)
(-105.414 -458.968 0)
(-86.3263 -477.033 0)
(-62.5134 -494.683 0)
(-34.9335 -500.367 0)
(-10.1403 -491.254 0)
(9.91232 -476.273 0)
(25.5918 -461.518 0)
(35.9472 -446.475 0)
(39.036 -433.068 0)
(40.5794 -429.107 0)
(42.7644 -421.94 0)
(45.1466 -423.387 0)
(51.5667 -423.922 0)
(65.1429 -432.773 0)
(89.9382 -437.638 0)
(125.04 -440.26 0)
(168.748 -426.086 0)
(219.905 -397.255 0)
(277.508 -371.412 0)
(351.951 -347.679 0)
(1329.28 -195.055 0)
(21593 20786.7 0)
(-8574.88 456322 0)
(515919 -537597 0)
(-506408 -10743 0)
(-23405.7 5629.89 0)
(-825.835 5973.48 0)
(-400.47 6327.23 0)
(-334.065 6796.02 0)
(-246.131 7194.44 0)
(-184.76 7531 0)
(-156.94 7835.51 0)
(-128.31 8070.52 0)
(-127.902 8280.38 0)
(-131.878 8458.82 0)
(-136.396 8617.49 0)
(-138.844 8758.68 0)
(-139.555 8888.62 0)
(-134.056 9001.2 0)
(-124.846 9096.16 0)
(-116.851 9171.94 0)
(-109.397 9233.07 0)
(-86.5108 9280.01 0)
(-48.935 9314.77 0)
(-18.9339 9330.4 0)
(-3.60116 9315.14 0)
(5.76109 9277.3 0)
(14.7573 9218.65 0)
(12.005 9142.35 0)
(14.2976 9052.18 0)
(17.9808 8947.85 0)
(18.7917 8835.58 0)
(24.979 8705.03 0)
(39.9225 8554.4 0)
(74.3815 8360.84 0)
(128.084 8106.61 0)
(199.097 7783.86 0)
(268.92 7399.38 0)
(342.402 6970.23 0)
(589.756 6453.46 0)
(20977.3 6201.2 0)
(439862 -7527.59 0)
(-444960 -463366 0)
(515919 537597 0)
(-506408 10743 0)
(-23405.7 -5629.89 0)
(-825.835 -5973.48 0)
(-400.47 -6327.23 0)
(-334.065 -6796.02 0)
(-246.131 -7194.44 0)
(-184.76 -7531 0)
(-156.94 -7835.51 0)
(-128.31 -8070.52 0)
(-127.902 -8280.38 0)
(-131.878 -8458.82 0)
(-136.396 -8617.49 0)
(-138.844 -8758.68 0)
(-139.555 -8888.62 0)
(-134.056 -9001.2 0)
(-124.846 -9096.16 0)
(-116.851 -9171.94 0)
(-109.397 -9233.07 0)
(-86.5108 -9280.01 0)
(-48.935 -9314.77 0)
(-18.9339 -9330.4 0)
(-3.60116 -9315.14 0)
(5.76109 -9277.3 0)
(14.7573 -9218.65 0)
(12.005 -9142.35 0)
(14.2976 -9052.18 0)
(17.9808 -8947.85 0)
(18.7917 -8835.58 0)
(24.979 -8705.03 0)
(39.9225 -8554.4 0)
(74.3815 -8360.84 0)
(128.084 -8106.61 0)
(199.097 -7783.86 0)
(268.92 -7399.38 0)
(342.402 -6970.23 0)
(589.756 -6453.46 0)
(20977.3 -6201.2 0)
(439862 7527.59 0)
(-444960 463366 0)
(12770.1 -525977 0)
(-24984.3 -24473.6 0)
(-924.721 -906.894 0)
(-136.492 -158.057 0)
(-146.299 150.001 0)
(-219.541 264.986 0)
(-198.105 362.376 0)
(-195.189 379.693 0)
(-180.456 390.483 0)
(-164.516 379.092 0)
(-156.228 368.156 0)
(-149.861 365.342 0)
(-146.326 371.191 0)
(-143.868 383.167 0)
(-141.177 401.536 0)
(-133.953 422.175 0)
(-121.693 442.166 0)
(-105.414 458.968 0)
(-86.3263 477.033 0)
(-62.5134 494.683 0)
(-34.9335 500.367 0)
(-10.1403 491.254 0)
(9.91232 476.273 0)
(25.5918 461.518 0)
(35.9472 446.475 0)
(39.036 433.068 0)
(40.5794 429.107 0)
(42.7644 421.94 0)
(45.1466 423.387 0)
(51.5667 423.922 0)
(65.1429 432.773 0)
(89.9382 437.638 0)
(125.04 440.26 0)
(168.748 426.086 0)
(219.905 397.255 0)
(277.508 371.412 0)
(351.951 347.679 0)
(1329.28 195.055 0)
(21593 -20786.7 0)
(-8574.88 -456322 0)
(-5162.94 -27140.5 0)
(-431.644 -1799.18 0)
(25.7024 -1213.15 0)
(192.627 -960.923 0)
(7.18949 -788.016 0)
(-129.413 -710.638 0)
(-135.596 -633.736 0)
(-157.675 -584.16 0)
(-157.52 -553.293 0)
(-149.825 -540.333 0)
(-141.152 -535.926 0)
(-128.954 -527.305 0)
(-119.219 -512.337 0)
(-109.603 -490.063 0)
(-101.966 -461.951 0)
(-94.9033 -432.005 0)
(-89.3907 -404.099 0)
(-83.2516 -381.921 0)
(-74.9802 -366.835 0)
(-64.0256 -361.015 0)
(-52.2402 -366.75 0)
(-42.152 -385.607 0)
(-32.2559 -413.384 0)
(-22.9538 -447.423 0)
(-12.6577 -484.852 0)
(-4.7305 -521.198 0)
(3.57379 -555.369 0)
(12.4688 -585.229 0)
(20.7017 -612.022 0)
(34.0236 -633.763 0)
(53.1396 -650.922 0)
(81.5955 -664.46 0)
(116.952 -677.471 0)
(157.656 -691.56 0)
(216.234 -709.812 0)
(294.628 -713.809 0)
(419.812 -700.902 0)
(611.403 -644.975 0)
(-54.6861 -1404.29 0)
(5969.42 -23407.2 0)
(-5820.41 -1118.75 0)
(0.211294 -383.458 0)
(-116.944 -540.378 0)
(273.181 -514.989 0)
(94.8853 -419.522 0)
(-70.8704 -379.632 0)
(-76.226 -324.382 0)
(-117.672 -283.667 0)
(-138.223 -257.621 0)
(-147.78 -257.702 0)
(-143.673 -271.148 0)
(-127.131 -288.245 0)
(-110.439 -300.573 0)
(-95.3139 -307.181 0)
(-85.2297 -307.488 0)
(-78.2046 -303.828 0)
(-73.4302 -297.031 0)
(-69.5045 -288.742 0)
(-66.1809 -281.684 0)
(-62.4313 -278.675 0)
(-58.6305 -280.553 0)
(-55.0786 -287.674 0)
(-49.6563 -298.695 0)
(-43.278 -312.336 0)
(-35.1449 -325.529 0)
(-28.9162 -338.576 0)
(-21.1229 -350.408 0)
(-11.8289 -363.128 0)
(-1.62262 -374.915 0)
(14.0814 -385.603 0)
(35.5622 -397.396 0)
(64.3544 -408.814 0)
(98.9251 -423.654 0)
(137.583 -438.405 0)
(198.466 -457.494 0)
(286.094 -471.411 0)
(418.283 -480.438 0)
(651.463 -482.346 0)
(-341.523 -422.908 0)
(6367.4 -818.524 0)
(-6435.99 -491.372 0)
(125.693 -284.874 0)
(-101.046 -272.313 0)
(309.089 -262.989 0)
(137.625 -224.953 0)
(-37.7317 -199.363 0)
(-43.1201 -168.273 0)
(-93.3423 -136.872 0)
(-132.499 -116.431 0)
(-162.86 -122.854 0)
(-170.583 -146.332 0)
(-157.308 -179.782 0)
(-137.467 -215.258 0)
(-116.266 -245.827 0)
(-98.7357 -269.07 0)
(-84.8271 -286.147 0)
(-74.8527 -298.575 0)
(-68.4624 -307.887 0)
(-65.2797 -315.078 0)
(-62.9351 -320.122 0)
(-60.9113 -322.078 0)
(-59.6344 -320.98 0)
(-56.0214 -318.625 0)
(-48.8119 -316.25 0)
(-37.9438 -313.071 0)
(-28.7057 -310.031 0)
(-20.0856 -305.653 0)
(-11.1465 -303.004 0)
(-0.95604 -299.643 0)
(12.3595 -296.753 0)
(30.7728 -296.087 0)
(56.2925 -297.561 0)
(88.4373 -303.241 0)
(125.047 -310.332 0)
(184.429 -320.713 0)
(272.518 -332.799 0)
(409.274 -345.915 0)
(666.842 -353.786 0)
(-378.639 -328.448 0)
(6958.17 -412.977 0)
(-6763.75 -262.873 0)
(211.304 -128.886 0)
(-95.8547 -114.894 0)
(318.819 -116.476 0)
(156.197 -108.665 0)
(-16.252 -92.4235 0)
(-16.0072 -76.3336 0)
(-67.715 -48.1242 0)
(-124.715 -22.7417 0)
(-176.593 -19.01 0)
(-198.53 -38.6079 0)
(-193.55 -75.4671 0)
(-174.082 -114.262 0)
(-147.17 -149.698 0)
(-124.084 -178.114 0)
(-106.637 -199.984 0)
(-94.3789 -217.43 0)
(-85.4073 -231.376 0)
(-77.971 -241.562 0)
(-69.1767 -247.62 0)
(-59.4578 -250.056 0)
(-51.7507 -248.912 0)
(-45.0979 -244.567 0)
(-37.9262 -238.553 0)
(-29.1519 -232.495 0)
(-21.7682 -227.889 0)
(-14.3521 -223.333 0)
(-6.03751 -219.721 0)
(4.40087 -215.789 0)
(17.5083 -212.146 0)
(34.7837 -208.531 0)
(57.4602 -206.344 0)
(86.619 -207.288 0)
(120.747 -210.103 0)
(176.815 -215.593 0)
(261.809 -223.153 0)
(398.059 -234.543 0)
(668.295 -249.401 0)
(-398.562 -247.259 0)
(7400.18 -296.328 0)
(-6889.08 -79.167 0)
(268.29 -3.98989 0)
(-89.0871 24.7731 0)
(315.092 19.3127 0)
(160.803 -3.60318 0)
(-6.57603 2.05932 0)
(-0.431742 1.45735 0)
(-41.6992 16.9601 0)
(-104.444 41.0329 0)
(-178.149 60.8527 0)
(-224.987 53.4763 0)
(-230.211 16.1511 0)
(-208.999 -28.6483 0)
(-177.797 -67.9093 0)
(-147.193 -98.4433 0)
(-122.713 -120.419 0)
(-105.103 -134.929 0)
(-91.7166 -144.376 0)
(-80.9327 -150.079 0)
(-71.1199 -153.266 0)
(-62.1567 -155.59 0)
(-54.3458 -157.309 0)
(-46.0392 -157.749 0)
(-37.178 -156.911 0)
(-27.6677 -155.396 0)
(-19.877 -153.874 0)
(-12.2146 -151.799 0)