/*--------------------------------*- C++ -*----------------------------------*\
| =========                 |                                                 |
| \\      /  F ield         | OpenFOAM: The Open Source CFD Toolbox           |
|  \\    /   O peration     | Version:  v1912                                 |
|   \\  /    A nd           | Website:  www.openfoam.com                      |
|    \\/     M anipulation  |                                                 |
\*---------------------------------------------------------------------------*/
FoamFile
{
    version     2.0;
    format      ascii;
    class       volVectorField;
    location    "8.66";
    object      grad(T);
}
// * * * * * * * * * * * * * * * * * * * * * * * * * * * * * * * * * * * * * //

dimensions      [0 -1 0 1 0 0 0];


internalField   nonuniform List<vector> 
1900
(
(1.1292 -3.32173e-06 0)
(-0.765836 -8.69853e-06 0)
(-0.657429 -1.57299e-05 0)
(-0.333467 7.51388e-06 0)
(-0.0891546 1.00868e-05 0)
(0.00445052 8.80114e-06 0)
(0.0447186 2.24826e-05 0)
(0.0689232 0.00054527 0)
(0.0660466 0.0024321 0)
(0.0722843 0.002048 0)
(1.12919 -5.19671e-06 0)
(-0.765848 -1.29839e-05 0)
(-0.657413 -2.41026e-05 0)
(-0.333441 2.15511e-05 0)
(-0.0891533 5.20157e-05 0)
(0.00446291 0.000100415 0)
(0.045255 0.00017627 0)
(0.0713328 0.000384712 0)
(0.0675493 0.00101599 0)
(0.042333 -0.000631715 0)
(1.12918 -4.92228e-13 0)
(-0.765855 -5.05238e-13 0)
(-0.657395 -3.90313e-13 0)
(-0.333391 -4.40186e-13 0)
(-0.0890757 -4.75965e-13 0)
(0.00457477 -3.1984e-13 0)
(0.0450029 4.55365e-14 0)
(0.0697629 6.72205e-14 0)
(0.0650301 1.51788e-14 0)
(0.0378582 -2.38524e-14 0)
(1.12919 5.19671e-06 0)
(-0.765848 1.29839e-05 0)
(-0.657413 2.41026e-05 0)
(-0.333441 -2.15511e-05 0)
(-0.0891533 -5.20157e-05 0)
(0.00446291 -0.000100415 0)
(0.045255 -0.00017627 0)
(0.0713328 -0.000384712 0)
(0.0675493 -0.00101599 0)
(0.042333 0.000631715 0)
(1.1292 3.32173e-06 0)
(-0.765836 8.69853e-06 0)
(-0.657429 1.57299e-05 0)
(-0.333467 -7.51388e-06 0)
(-0.0891546 -1.00868e-05 0)
(0.00445052 -8.80114e-06 0)
(0.0447186 -2.24826e-05 0)
(0.0689232 -0.00054527 0)
(0.0660466 -0.0024321 0)
(0.0722843 -0.002048 0)
(0.0283998 -0.0232051 9.41486e-16)
(0.000935699 -0.0161114 -1.13155e-15)
(0.109747 -0.0270929 -1.43767e-15)
(0.404931 -0.0545993 0)
(-0.502347 -0.314286 -6.49224e-15)
(0.0122488 -0.0288798 9.37293e-16)
(0.0114996 -0.0202564 1.13155e-15)
(0.0916656 -0.0346457 1.43767e-15)
(0.296998 -0.0599616 0)
(-0.438524 -0.350289 0)
(0.0035862 -3.53544e-14 0)
(0.00715684 -6.41962e-14 0)
(0.0826342 -6.02335e-14 0)
(0.268561 -4.10683e-15 0)
(-0.565339 1.16165e-13 0)
(0.0122488 0.0288798 9.37293e-16)
(0.0114996 0.0202564 1.13155e-15)
(0.0916656 0.0346457 1.43767e-15)
(0.296998 0.0599616 0)
(-0.438524 0.350289 0)
(0.0283998 0.0232051 -2.81607e-15)
(0.000935699 0.0161114 -1.13155e-15)
(0.109747 0.0270929 -1.43767e-15)
(0.404931 0.0545993 -3.96481e-15)
(-0.502347 0.314286 6.49224e-15)
(-1.88393 0.452668 2.19774e-15)
(-0.969299 0.31518 -1.58898e-15)
(-0.593035 0.218139 0)
(-0.416849 0.196092 1.01847e-15)
(-0.304074 0.0826754 -4.27178e-16)
(-1.68299 0.449803 -1.10569e-15)
(-1.00961 0.205756 7.99235e-16)
(-0.611459 0.113568 0)
(-0.457812 0.125372 -6.41177e-16)
(-0.28975 -0.0431986 1.07092e-16)
(-1.73483 2.19031e-13 0)
(-1.06579 1.57534e-13 0)
(-0.622925 5.62179e-14 0)
(-0.492099 6.02335e-14 2.57981e-16)
(-0.274175 3.17018e-15 -2.14183e-16)
(-1.68299 -0.449803 -1.10569e-15)
(-1.00961 -0.205756 7.99235e-16)
(-0.611459 -0.113568 0)
(-0.457812 -0.125372 -6.41177e-16)
(-0.28975 0.0431986 1.07092e-16)
(-1.88393 -0.452668 1.10569e-15)
(-0.969299 -0.31518 -9.49218e-18)
(-0.593035 -0.218139 0)
(-0.416849 -0.196092 5.90564e-18)
(-0.304074 -0.0826754 4.27178e-16)
(-0.192884 0.851067 0)
(-0.110301 1.05923 0)
(-0.0754 1.11679 0)
(-0.0541831 1.05341 0)
(-0.0514675 0.947413 0)
(-0.0519125 0.825324 0)
(-0.0564511 0.712233 0)
(-0.0535275 0.610468 0)
(-0.0572932 0.541384 0)
(-0.072045 0.470294 0)
(-0.0381871 0.401551 0)
(0.0394222 0.369814 0)
(0.234 0.372148 0)
(0.35553 0.3944 0)
(0.229442 0.378476 0)
(0.0960668 0.296389 0)
(0.0530133 0.236589 0)
(0.0680714 0.170185 0)
(0.0591741 0.0763274 0)
(-0.000265819 -0.0114458 0)
(-0.0763334 -0.0349096 0)
(-0.150077 -0.0597428 0)
(-0.167259 -0.0676116 0)
(-0.124168 -0.0539227 0)
(-0.114949 -0.026908 0)
(-0.225992 0.00665588 0)
(-0.364319 0.0326099 0)
(-0.143477 0.0204669 0)
(0.203357 0.00305986 0)
(0.203222 -0.00114411 0)
(0.0882395 -0.000680122 0)
(0.0574662 -0.000588207 0)
(0.0729925 -0.000566556 0)
(0.0896198 -0.000422455 0)
(0.0831893 -0.000260209 0)
(0.0503453 -0.000632314 0)
(0.0153988 -0.00147421 0)
(-0.00238361 -0.00204159 0)
(-0.00704853 -0.00192952 0)
(-0.00366009 -0.00151717 0)
(-0.0589047 0.243803 0)
(0.0027818 0.543914 0)
(-0.0541155 0.761486 0)
(-0.08467 0.781532 0)
(-0.0940061 0.727252 0)
(-0.0947549 0.634357 0)
(-0.0919234 0.534538 0)
(-0.0785439 0.449226 0)
(-0.0771392 0.400252 0)
(-0.0936216 0.347266 0)
(-0.0575909 0.288349 0)
(0.0307826 0.246413 0)
(0.236638 0.244973 0)
(0.35586 0.262107 0)
(0.215003 0.243455 0)
(0.0767689 0.188847 0)
(0.0366778 0.150247 0)
(0.0467352 0.107995 0)
(0.038138 0.0446271 0)
(-0.00792209 0.00573307 0)
(-0.0777424 0.0137698 0)
(-0.154593 0.00484291 0)
(-0.170527 0.0105623 0)
(-0.125094 0.0206102 0)
(-0.111303 0.0159319 0)
(-0.218964 0.0126306 0)
(-0.363101 0.018646 0)
(-0.147801 0.00726222 0)
(0.200835 0.000917503 0)
(0.202838 -0.000504226 0)
(0.0882864 -0.000413184 0)
(0.0574505 -0.000455178 0)
(0.0729882 -0.000519659 0)
(0.0896659 -0.000478699 0)
(0.0832076 -0.000284451 0)
(0.0502549 -0.000330315 0)
(0.0152694 -0.00076273 0)
(-0.0024454 -0.00124095 0)
(-0.00704895 -0.0013575 0)
(-0.00365614 -0.00148363 0)
(-0.00471503 1.57702e-13 0)
(0.0402981 2.83864e-13 0)
(-0.00627474 1.00535e-13 0)
(-0.0641423 -1.5376e-13 0)
(-0.094282 -3.78485e-13 0)
(-0.107975 -3.92284e-13 0)
(-0.110308 -2.91749e-13 0)
(-0.0925925 -3.03577e-13 0)
(-0.0869544 -4.69164e-13 0)
(-0.104599 -3.82428e-13 0)
(-0.0675261 -3.46945e-13 0)
(0.0268036 -2.52323e-13 0)
(0.238566 -3.90313e-13 0)
(0.355089 -2.66122e-13 0)
(0.20813 -7.0966e-14 0)
(0.0689518 5.7167e-14 0)
(0.0294927 -4.33681e-13 0)
(0.0373455 -6.05182e-13 0)
(0.029425 3.20135e-12 0)
(-0.0092425 6.10899e-12 0)
(-0.0765924 2.42467e-12 0)
(-0.15101 6.3278e-13 0)
(-0.162672 1.63419e-12 0)
(-0.122606 1.10194e-12 0)
(-0.11727 2.87806e-13 0)
(-0.225202 5.10561e-13 0)
(-0.36588 4.96762e-13 0)
(-0.148634 1.36215e-12 0)
(0.201098 1.89243e-12 0)
(0.202834 -6.22923e-13 0)
(0.0882538 -1.19854e-12 0)
(0.0574352 -7.31344e-13 0)
(0.0729856 -1.0842e-13 0)
(0.0896882 -1.18277e-13 0)
(0.0832324 -1.75444e-13 0)
(0.0502061 -1.34047e-13 0)
(0.0151339 -3.21318e-13 0)
(-0.00255663 -4.41566e-13 0)
(-0.00711913 -2.74007e-13 0)
(-0.00369678 -2.03041e-13 0)
(-0.0589047 -0.243803 0)
(0.0027818 -0.543914 0)
(-0.0541155 -0.761486 0)
(-0.08467 -0.781532 0)
(-0.0940061 -0.727252 0)
(-0.0947549 -0.634357 0)
(-0.0919234 -0.534538 0)
(-0.0785439 -0.449226 0)
(-0.0771392 -0.400252 0)
(-0.0936216 -0.347266 0)
(-0.0575909 -0.288349 0)
(0.0307826 -0.246413 0)
(0.236638 -0.244973 0)
(0.35586 -0.262107 0)
(0.215003 -0.243455 0)
(0.0767689 -0.188847 0)
(0.0366778 -0.150247 0)
(0.0467352 -0.107995 0)
(0.038138 -0.0446271 0)
(-0.00792209 -0.00573307 0)
(-0.0777424 -0.0137698 0)
(-0.154593 -0.00484291 0)
(-0.170527 -0.0105623 0)
(-0.125094 -0.0206102 0)
(-0.111303 -0.0159319 0)
(-0.218964 -0.0126306 0)
(-0.363101 -0.018646 0)
(-0.147801 -0.00726222 0)
(0.200835 -0.000917503 0)
(0.202838 0.000504226 0)
(0.0882864 0.000413184 0)
(0.0574505 0.000455178 0)
(0.0729882 0.000519659 0)
(0.0896659 0.000478699 0)
(0.0832076 0.000284451 0)
(0.0502549 0.000330315 0)
(0.0152694 0.00076273 0)
(-0.0024454 0.00124095 0)
(-0.00704895 0.0013575 0)
(-0.00365614 0.00148363 0)
(-0.192884 -0.851067 0)
(-0.110301 -1.05923 0)
(-0.0754 -1.11679 0)
(-0.0541831 -1.05341 0)
(-0.0514675 -0.947413 0)
(-0.0519125 -0.825324 0)
(-0.0564511 -0.712233 0)
(-0.0535275 -0.610468 0)
(-0.0572932 -0.541384 0)
(-0.072045 -0.470294 0)
(-0.0381871 -0.401551 0)
(0.0394222 -0.369814 0)
(0.234 -0.372148 0)
(0.35553 -0.3944 0)
(0.229442 -0.378476 0)
(0.0960668 -0.296389 0)
(0.0530133 -0.236589 0)
(0.0680714 -0.170185 0)
(0.0591741 -0.0763274 0)
(-0.000265819 0.0114458 0)
(-0.0763334 0.0349096 0)
(-0.150077 0.0597428 0)
(-0.167259 0.0676116 0)
(-0.124168 0.0539227 0)
(-0.114949 0.026908 0)
(-0.225992 -0.00665588 0)
(-0.364319 -0.0326099 0)
(-0.143477 -0.0204669 0)
(0.203357 -0.00305986 0)
(0.203222 0.00114411 0)
(0.0882395 0.000680122 0)
(0.0574662 0.000588207 0)
(0.0729925 0.000566556 0)
(0.0896198 0.000422455 0)
(0.0831893 0.000260209 0)
(0.0503453 0.000632314 0)
(0.0153988 0.00147421 0)
(-0.00238361 0.00204159 0)
(-0.00704853 0.00192952 0)
(-0.00366009 0.00151717 0)
(-0.01854 -0.914592 0)
(-0.0331463 -0.828644 0)
(-0.0258552 -0.763811 0)
(-0.0136757 -0.731193 0)
(-0.00011902 -0.68655 0)
(0.00323057 -0.635201 0)
(0.00183501 -0.577163 0)
(-0.00029993 -0.511421 0)
(-0.0121587 -0.454161 0)
(-0.0308563 -0.402698 0)
(-0.016998 -0.348307 0)
(0.0392371 -0.336621 0)
(0.224266 -0.332891 0)
(0.352272 -0.35243 0)
(0.259788 -0.348479 0)
(0.143457 -0.283906 0)
(0.0969544 -0.225896 0)
(0.122593 -0.15896 0)
(0.127747 -0.0772683 0)
(0.0530013 -0.0290232 0)
(-0.0490761 -0.0141309 0)
(-0.139302 0.00012449 0)
(-0.177955 0.011422 0)
(-0.151697 0.0113241 0)
(-0.145088 -0.00117447 0)
(-0.248173 -0.0187484 0)
(-0.370356 -0.0384058 0)
(-0.134266 -0.0267224 0)
(0.211475 -0.00469227 0)
(0.204741 0.00170592 0)
(0.087992 0.00105935 0)
(0.0573611 0.000790911 0)
(0.0728792 0.000566827 0)
(0.089527 0.000251241 0)
(0.0833605 0.000137816 0)
(0.0509119 0.000673069 0)
(0.0160037 0.00172357 0)
(-0.00223125 0.00237655 0)
(-0.00737839 0.00200781 0)
(-0.00391024 0.000939508 0)
(-0.00301582 -0.328291 0)
(-0.0063752 -0.302623 0)
(-0.00806012 -0.281094 0)
(-0.00145324 -0.265478 0)
(0.0134996 -0.260017 0)
(0.0239273 -0.259649 0)
(0.0315732 -0.256429 0)
(0.0364595 -0.250686 0)
(0.0232729 -0.244748 0)
(0.00787329 -0.229854 0)
(0.0141254 -0.205137 0)
(0.0543768 -0.198015 0)
(0.223985 -0.182974 0)
(0.342257 -0.188377 0)
(0.279202 -0.204553 0)
(0.18878 -0.183586 0)
(0.149853 -0.151017 0)
(0.182058 -0.105645 0)
(0.147615 -0.0600025 0)
(0.0320122 -0.0768116 0)
(-0.0628619 -0.0927128 0)
(-0.131231 -0.0994987 0)
(-0.150731 -0.0787626 0)
(-0.121545 -0.0489908 0)
(-0.127766 -0.0331271 0)
(-0.249975 -0.0380251 0)
(-0.368765 -0.0565426 0)
(-0.115929 -0.0341253 0)
(0.226398 -0.00603386 0)
(0.207949 0.00210969 0)
(0.0874905 0.0011607 0)
(0.0570479 0.00070432 0)
(0.0725332 0.000378788 0)
(0.0892562 3.30791e-05 0)
(0.083504 1.81776e-06 0)
(0.0515695 0.000553393 0)
(0.016716 0.00144313 0)
(-0.00219141 0.00194146 0)
(-0.00825644 0.0014921 0)
(-0.0045554 0.000471907 0)
(0.00619531 -0.04474 0)
(0.0123352 -0.0440683 0)
(0.00993836 -0.0396571 0)
(0.00663459 -0.0316182 0)
(0.00549863 -0.0307139 0)
(0.00668818 -0.0407381 0)
(0.0104718 -0.0530515 0)
(0.0109566 -0.0698683 0)
(0.00791557 -0.0921277 0)
(0.00731366 -0.0925549 0)
(0.013683 -0.0766981 0)
(0.0605948 -0.0645622 0)
(0.233554 -0.0339056 0)
(0.331477 -0.0646773 0)
(0.264405 -0.102551 0)
(0.195047 -0.111264 0)
(0.172061 -0.0919745 0)
(0.210298 -0.0541514 0)
(0.155532 -0.0377178 0)
(0.0214804 -0.0596246 0)
(-0.0709383 -0.0694319 0)
(-0.125859 -0.0742531 0)
(-0.129284 -0.055413 0)
(-0.107721 -0.0337845 0)
(-0.134521 -0.0330428 0)
(-0.270737 -0.0541361 0)
(-0.366598 -0.0818085 0)
(-0.0855935 -0.041111 0)
(0.246393 -0.00678815 0)
(0.211674 0.00191573 0)
(0.0866377 0.000565993 0)
(0.0566076 -8.61759e-05 0)
(0.0722324 -0.000468136 0)
(0.0891637 -0.000723263 0)
(0.0838619 -0.000563448 0)
(0.0523008 0.000277603 0)
(0.0173413 0.00124832 0)
(-0.00218407 0.00175518 0)
(-0.0087945 0.00151369 0)
(-0.00489333 0.00115531 0)
(-0.00236848 0.00368164 0)
(-0.00147707 -0.0031863 0)
(0.00393719 -0.0107437 0)
(0.00716472 -0.0139049 0)
(0.00471131 -0.015328 0)
(0.00240198 -0.019166 0)
(0.00350227 -0.0227161 0)
(-0.00119573 -0.0312051 0)
(0.00141123 -0.0397086 0)
(0.0227418 -0.0326067 0)
(0.0411003 -0.0157635 0)
(0.0956131 0.0138961 0)
(0.223874 0.0633852 0)
(0.276108 -0.00994846 0)
(0.234309 -0.0450675 0)
(0.198972 -0.0511486 0)
(0.204889 -0.0326638 0)
(0.234341 0.00539148 0)
(0.142341 -0.019053 0)
(0.00145131 -0.0590363 0)
(-0.0769585 -0.0763072 0)
(-0.117722 -0.0766369 0)
(-0.111734 -0.056276 0)
(-0.0999883 -0.0413229 0)
(-0.147378 -0.0472689 0)
(-0.296968 -0.077605 0)
(-0.356214 -0.104013 0)
(-0.0436362 -0.0425069 0)
(0.26786 -0.0080343 0)
(0.215036 -0.000349445 0)
(0.0855614 -0.00130475 0)
(0.0560514 -0.00162757 0)
(0.0719193 -0.00201302 0)
(0.0891643 -0.00235814 0)
(0.0844684 -0.00221123 0)
(0.0533154 -0.001008 0)
(0.0181398 0.000545945 0)
(-0.00193569 0.00142205 0)
(-0.00883449 0.00170595 0)
(-0.00490074 0.00185519 0)
(-0.000422887 0.0316205 0)
(-0.00156558 0.0337107 0)
(-0.000390478 0.0310302 0)
(0.00221698 0.0275415 0)
(0.00042886 0.0226767 0)
(-0.000431249 0.0205978 0)
(-0.00112958 0.0191589 0)
(-0.00541795 0.0124188 0)
(0.00656502 0.0204269 0)
(0.030388 0.034896 0)
(0.0584948 0.0397857 0)
(0.136865 0.0663682 0)
(0.210576 0.0834098 0)
(0.226968 0.0314157 0)
(0.224703 0.0200601 0)
(0.207 0.0164977 0)
(0.226545 0.0390134 0)
(0.223414 0.0588019 0)
(0.0934468 -0.0212919 0)
(-0.0336919 -0.0614043 0)
(-0.0878989 -0.082646 0)
(-0.106557 -0.0776615 0)
(-0.0952542 -0.058082 0)
(-0.0990411 -0.0511039 0)
(-0.169484 -0.0661105 0)
(-0.325417 -0.104397 0)
(-0.332777 -0.116052 0)
(0.00689497 -0.0368015 0)
(0.287017 -0.00591624 0)
(0.218159 0.00261557 0)
(0.0854061 0.00396239 0)
(0.0559251 0.00483918 0)
(0.0715284 0.00421393 0)
(0.0889727 0.00177912 0)
(0.0851629 -0.000728178 0)
(0.0549577 -0.00136398 0)
(0.019683 -0.000178803 0)
(-0.00106625 0.000909086 0)
(-0.00837711 0.00162952 0)
(-0.00474952 0.00201424 0)
(-0.000354294 0.0426664 0)
(-0.00204587 0.0427556 0)
(-0.0020076 0.0427396 0)
(-0.000884992 0.0408316 0)
(-0.00197995 0.0365988 0)
(-0.00098794 0.0362274 0)
(-0.00437929 0.0355894 0)
(2.61399e-05 0.0361163 0)
(0.023071 0.0465162 0)
(0.0413967 0.0563073 0)
(0.071428 0.0775364 0)
(0.137651 0.0995901 0)
(0.190193 0.0830263 0)
(0.215062 0.0706709 0)
(0.219933 0.0637757 0)
(0.217236 0.0518636 0)
(0.245655 0.0915954 0)
(0.176229 0.0521392 0)
(0.0265062 -0.0470831 0)
(-0.0576717 -0.0762871 0)
(-0.0926245 -0.088065 0)
(-0.0940514 -0.0738611 0)
(-0.0861425 -0.0572796 0)
(-0.107725 -0.0566043 0)
(-0.198733 -0.0779867 0)
(-0.345094 -0.118813 0)
(-0.291076 -0.0997619 0)
(0.0624951 -0.016062 0)
(0.305844 0.0143163 0)
(0.224555 0.0276827 0)
(0.0877041 0.0321168 0)
(0.0562938 0.0319167 0)
(0.0689705 0.0272067 0)
(0.0844019 0.0203615 0)
(0.0814396 0.0143632 0)
(0.0538448 0.00886819 0)
(0.0203302 0.00362461 0)
(-0.000193126 0.00172656 0)
(-0.00776953 0.0016704 0)
(-0.00453001 0.00205577 0)
(-0.000336887 0.0520369 0)
(-0.00149502 0.0520838 0)
(-0.00224453 0.0532199 0)
(-0.00370055 0.0524209 0)
(-0.00400794 0.0508524 0)
(-0.00140397 0.0523634 0)
(-0.00123664 0.0532059 0)
(0.00511152 0.0631457 0)
(0.0260218 0.0740347 0)
(0.0602802 0.0848245 0)
(0.100204 0.109071 0)
(0.142156 0.124975 0)
(0.182709 0.120267 0)
(0.208417 0.120045 0)
(0.206579 0.0976802 0)
(0.233808 0.113529 0)
(0.226811 0.113942 0)
(0.0897781 -0.00891494 0)
(-0.0303095 -0.0706914 0)
(-0.0731835 -0.0888949 0)
(-0.085561 -0.0809526 0)
(-0.0768906 -0.0521533 0)
(-0.078625 -0.0324648 0)
(-0.118995 -0.028027 0)
(-0.22943 -0.0450135 0)
(-0.346401 -0.0775362 0)
(-0.233762 -0.00782116 0)
(0.116825 0.0816937 0)
(0.329171 0.152202 0)
(0.235312 0.170257 0)
(0.0894861 0.157038 0)
(0.0511936 0.137137 0)
(0.0603933 0.111091 0)
(0.0765963 0.0821296 0)
(0.0740876 0.0560717 0)
(0.0446097 0.0342191 0)
(0.012801 0.0207502 0)
(-0.00294939 0.0107409 0)
(-0.00805987 0.0038849 0)
(-0.00437816 0.00274432 0)
(-0.000309052 0.0744926 0)
(-0.000905831 0.0744784 0)
(-0.00168277 0.0752959 0)
(-0.00316644 0.076194 0)
(-0.00203533 0.0793323 0)
(0.00128 0.0832019 0)
(0.00601091 0.087685 0)
(0.0200975 0.0982376 0)
(0.0439616 0.113323 0)
(0.0751586 0.128488 0)
(0.110118 0.135325 0)
(0.14844 0.144885 0)
(0.185442 0.155379 0)
(0.193296 0.14534 0)
(0.213654 0.147197 0)
(0.232907 0.152713 0)
(0.127664 0.0411724 0)
(-0.00169077 -0.0638553 0)
(-0.0505654 -0.0815689 0)
(-0.0675598 -0.0629846 0)
(-0.057219 -0.0171573 0)
(-0.0473268 0.0304485 0)
(-0.0628935 0.0739525 0)
(-0.119817 0.0960187 0)
(-0.246442 0.0811554 0)
(-0.309254 0.082536 0)
(-0.137636 0.202884 0)
(0.2167 0.291793 0)
(0.391186 0.357832 0)
(0.229215 0.321448 0)
(0.0557888 0.277472 0)
(0.0120172 0.242289 0)
(0.0159634 0.207767 0)
(0.0313835 0.170218 0)
(0.0352714 0.13106 0)
(0.0198076 0.0937698 0)
(-0.00229426 0.0617956 0)
(-0.0164451 0.0321786 0)
(-0.0154753 0.0122764 0)
(-0.00562912 0.00500282 0)
(-0.00035061 0.1176 0)
(-0.000720969 0.117602 0)
(-0.000591318 0.117496 0)
(0.00018909 0.116546 0)
(0.0027451 0.114947 0)
(0.00664502 0.11483 0)
(0.0132524 0.117608 0)
(0.0298176 0.126733 0)
(0.0551726 0.138761 0)
(0.0814818 0.153484 0)
(0.116004 0.167879 0)
(0.161481 0.192682 0)
(0.183148 0.194948 0)
(0.200532 0.163113 0)
(0.213684 0.140718 0)
(0.131639 0.0807147 0)
(0.018118 -0.0295009 0)
(-0.0284999 -0.0376154 0)
(-0.0294704 0.00750682 0)
(-0.0111142 0.0847118 0)
(0.00447456 0.163566 0)
(0.0109061 0.20588 0)
(-0.0154392 0.213121 0)
(-0.112054 0.187424 0)
(-0.242423 0.132725 0)
(-0.229098 0.168543 0)
(-0.0321143 0.285213 0)
(0.266138 0.336936 0)
(0.357748 0.312565 0)
(0.157874 0.236414 0)
(0.0132055 0.207941 0)
(-0.0159764 0.193072 0)
(-0.0090572 0.183517 0)
(0.00267856 0.172522 0)
(0.000419582 0.157873 0)
(-0.022136 0.143639 0)
(-0.0465504 0.115421 0)
(-0.0506679 0.0701332 0)
(-0.0342474 0.0335417 0)
(-0.0113872 0.013703 0)
(-0.000307194 0.169618 0)
(-0.00100631 0.169597 0)
(-0.00270076 0.167604 0)
(-0.00562293 0.162194 0)
(-0.00368852 0.16161 0)
(0.00384481 0.163887 0)
(0.0174815 0.172356 0)
(0.0404808 0.183618 0)
(0.0697394 0.19089 0)
(0.103218 0.192166 0)
(0.147891 0.196669 0)
(0.174524 0.195856 0)
(0.156948 0.167936 0)
(0.141038 0.1601 0)
(0.134252 0.115147 0)
(0.0688783 0.0545066 0)
(0.0136364 0.0854059 0)
(0.0339713 0.164316 0)
(0.0673136 0.231801 0)
(0.0828243 0.266533 0)
(0.0595431 0.264642 0)
(0.000426336 0.233433 0)
(-0.0806779 0.158648 0)
(-0.19729 0.059498 0)
(-0.264637 0.0056996 0)
(-0.162311 0.0890763 0)
(0.0246334 0.160027 0)
(0.243057 0.170921 0)
(0.29432 0.10526 0)
(0.128395 0.0671658 0)
(0.0140224 0.0742537 0)
(-0.0115183 0.0827193 0)
(-0.00383955 0.0915521 0)
(0.0066715 0.0985552 0)
(0.00743898 0.103181 0)
(-0.0211004 0.113534 0)
(-0.0731272 0.123269 0)
(-0.095347 0.102338 0)
(-0.0698535 0.0627728 0)
(-0.0247464 0.0318847 0)
(-0.000370834 0.232271 0)
(-0.0026619 0.228557 0)
(-0.00772513 0.224478 0)
(-0.00558642 0.225111 0)
(0.00437649 0.232358 0)
(0.0169995 0.241729 0)
(0.0322657 0.251945 0)
(0.0476783 0.254995 0)
(0.0634096 0.248153 0)
(0.087051 0.239805 0)
(0.11956 0.247584 0)
(0.133792 0.250296 0)
(0.148692 0.233452 0)
(0.149663 0.256628 0)
(0.11193 0.258265 0)
(0.10298 0.253221 0)
(0.123934 0.286004 0)
(0.112571 0.301942 0)
(0.0690298 0.277504 0)
(0.0205327 0.211972 0)
(-0.0274217 0.124175 0)
(-0.0912333 0.0462173 0)
(-0.18305 -0.0371776 0)
(-0.259441 -0.112035 0)
(-0.21392 -0.0688544 0)
(-0.0803822 0.041335 0)
(0.0467538 0.0720238 0)
(0.213362 0.0620959 0)
(0.257766 0.00760808 0)
(0.127996 -0.00619994 0)
(0.0281935 0.0077919 0)
(0.000692961 0.0196724 0)
(0.00620285 0.0282465 0)
(0.0138848 0.0341917 0)
(0.0148541 0.0365683 0)
(-0.00277873 0.0433378 0)
(-0.0573394 0.0687604 0)
(-0.108964 0.0885419 0)
(-0.102139 0.0771788 0)
(-0.0411521 0.0555426 0)
(-0.00388533 0.289766 0)
(-0.00851548 0.294022 0)
(-0.00602141 0.316625 0)
(0.00197086 0.349758 0)
(0.0123246 0.378743 0)
(0.0227189 0.408261 0)
(0.0302651 0.445614 0)
(0.0368267 0.484218 0)
(0.0551018 0.507574 0)
(0.102671 0.519834 0)
(0.158 0.508564 0)
(0.160906 0.470443 0)
(0.16305 0.434573 0)
(0.164949 0.38604 0)
(0.130969 0.335759 0)
(0.095609 0.30344 0)
(0.0605861 0.241432 0)
(0.0257807 0.155811 0)
(-0.0193847 0.0810716 0)
(-0.0649296 0.0217047 0)
(-0.100184 -0.0360053 0)
(-0.155059 -0.102416 0)
(-0.233175 -0.154395 0)
(-0.227815 -0.130685 0)
(-0.116844 -0.0187237 0)
(-0.0265554 0.047306 0)
(0.0446393 0.056255 0)
(0.180984 0.0336187 0)
(0.228508 -0.0142499 0)
(0.128572 -0.0213379 0)
(0.0389539 -0.00679689 0)
(0.00819256 0.000525938 0)
(0.0101518 0.00472206 0)
(0.0146907 0.00476325 0)
(0.0162525 0.00140658 0)
(0.0099211 -3.22796e-05 0)
(-0.0295669 0.0120924 0)
(-0.0872348 0.0434405 0)
(-0.101653 0.064618 0)
(-0.0455958 0.0666321 0)
(0.00373038 0.32998 0)
(0.0232199 0.36177 0)
(0.0459834 0.430073 0)
(0.0542732 0.48939 0)
(0.0607519 0.524065 0)
(0.0814387 0.547908 0)
(0.105462 0.572097 0)
(0.107385 0.595028 0)
(0.0977301 0.609852 0)
(0.088005 0.59854 0)
(0.0719652 0.53348 0)
(0.0624912 0.428867 0)
(0.0673577 0.347761 0)
(0.0544426 0.246882 0)
(0.0323338 0.163943 0)
(0.0120827 0.101014 0)
(-0.0183265 0.0497525 0)
(-0.041958 -0.00273462 0)
(-0.0601998 -0.0481653 0)
(-0.0922869 -0.0796896 0)
(-0.147029 -0.111514 0)
(-0.205318 -0.156381 0)
(-0.21029 -0.146074 0)
(-0.128703 -0.0422234 0)
(-0.0424016 0.0421812 0)
(-0.00813002 0.0628447 0)
(0.0335642 0.0656027 0)
(0.145421 0.0391636 0)
(0.204808 -0.0080954 0)
(0.135178 -0.0114555 0)
(0.0492622 0.00135309 0)
(0.011793 0.00755349 0)
(0.0102861 0.00816225 0)
(0.0106899 0.00387311 0)
(0.010233 -0.00241634 0)
(0.00751848 -0.00969928 0)
(-0.0154475 -0.00933692 0)
(-0.0583487 0.0126557 0)
(-0.0797909 0.0419324 0)
(-0.0392112 0.0596847 0)
(0.026748 0.284078 0)
(0.0879373 0.305224 0)
(0.116958 0.326011 0)
(0.0925451 0.321765 0)
(0.0687145 0.313552 0)
(0.0690042 0.306059 0)
(0.0756716 0.286899 0)
(0.0732083 0.261764 0)
(0.0584861 0.239834 0)
(0.0290762 0.213323 0)
(-0.00550295 0.184325 0)
(-0.0180603 0.150644 0)
(-0.0123172 0.110471 0)
(-0.0121848 0.0577012 0)
(-0.00959439 0.022312 0)
(-0.014429 -0.012924 0)
(-0.0393903 -0.038719 0)
(-0.0685765 -0.057806 0)
(-0.0935413 -0.0807104 0)
(-0.125975 -0.114544 0)
(-0.174087 -0.145154 0)
(-0.188362 -0.132144 0)
(-0.123169 -0.0443984 0)
(-0.0464047 0.0444745 0)
(-0.0155967 0.0749338 0)
(-0.00398559 0.0789211 0)
(0.0218193 0.0784453 0)
(0.109966 0.0570297 0)
(0.179729 0.007995 0)
(0.137677 -0.000508605 0)
(0.0572717 0.00774076 0)
(0.0147541 0.0131629 0)
(0.00660524 0.00906025 0)
(0.00449675 0.00218789 0)
(0.00317369 -0.00364225 0)
(0.00325217 -0.0117783 0)
(-0.00802485 -0.015316 0)
(-0.0378298 -0.00255164 0)
(-0.0563339 0.0199805 0)
(-0.028489 0.0396998 0)
(0.0241075 0.102828 0)
(0.0636288 0.0898684 0)
(0.0619232 0.0581896 0)
(0.0422664 0.0229004 0)
(0.0456165 0.0131759 0)
(0.055755 0.0127346 0)
(0.0627779 0.00832325 0)
(0.0620313 0.00154354 0)
(0.0510502 -0.000767944 0)
(0.0345144 0.00711058 0)
(0.0115658 0.0198926 0)
(-0.00867679 0.0316662 0)
(-0.0222053 0.0294144 0)
(-0.0305108 0.0114192 0)
(-0.0357232 -0.00953725 0)
(-0.046729 -0.0388208 0)
(-0.0615764 -0.062752 0)
(-0.0824224 -0.0800903 0)
(-0.114874 -0.102628 0)
(-0.154387 -0.130071 0)
(-0.163989 -0.12097 0)
(-0.108226 -0.0439674 0)
(-0.0400944 0.0388414 0)
(-0.0137105 0.0726467 0)
(-0.00920759 0.0800234 0)
(-0.00474618 0.0798524 0)
(0.0124688 0.0764989 0)
(0.0775325 0.0636044 0)
(0.149362 0.0124532 0)
(0.134933 -0.00224585 0)
(0.0624366 0.00905341 0)
(0.0130645 0.0139182 0)
(-0.000289839 0.00808259 0)
(-0.00155072 0.00091612 0)
(-0.00322532 -0.00688453 0)
(-0.00373078 -0.0177963 0)
(-0.00655636 -0.027754 0)
(-0.0243357 -0.0197163 0)
(-0.0390758 0.000260989 0)
(-0.0202089 0.0159909 0)
(0.0142595 -0.0301596 0)
(0.044922 -0.0582274 0)
(0.0524253 -0.0748542 0)
(0.0491683 -0.0717764 0)
(0.0589184 -0.0577016 0)
(0.064328 -0.0479449 0)
(0.0648875 -0.0418287 0)
(0.0644477 -0.0358024 0)
(0.0638507 -0.0219262 0)
(0.0489854 -0.00189963 0)
(0.0181597 0.00567188 0)
(-0.00888469 0.00626692 0)
(-0.0318279 -0.0030029 0)
(-0.04972 -0.0180571 0)
(-0.0580075 -0.0375608 0)
(-0.0657086 -0.0564958 0)
(-0.0791592 -0.0781417 0)
(-0.107003 -0.107234 0)
(-0.141704 -0.132113 0)
(-0.14365 -0.117476 0)
(-0.0911149 -0.0504376 0)
(-0.0343619 0.0193995 0)
(-0.010795 0.0488015 0)
(-0.00672025 0.0549243 0)
(-0.0086531 0.0556832 0)
(-0.00738193 0.0550576 0)
(0.00616219 0.051591 0)
(0.0482488 0.0437726 0)
(0.116274 -0.000129867 0)
(0.134401 -0.0273116 0)
(0.072848 -0.0124299 0)
(0.0138186 0.00636085 0)
(-0.00592405 0.00630648 0)
(-0.00992611 0.00350294 0)
(-0.0148582 -0.00499519 0)
(-0.0168584 -0.0185576 0)
(-0.00987506 -0.0339854 0)
(-0.0108335 -0.0351258 0)
(-0.0219252 -0.0175183 0)
(-0.0133311 -0.00420643 0)
(-0.00293962 -0.0454988 0)
(0.0205594 -0.0720565 0)
(0.0488668 -0.0918672 0)
(0.0587953 -0.0934763 0)
(0.0685815 -0.0864989 0)
(0.0710508 -0.0848494 0)
(0.0744788 -0.0812172 0)
(0.08121 -0.07052 0)
(0.0837202 -0.0544204 0)
(0.061109 -0.0422222 0)
(0.0194354 -0.0357872 0)
(-0.0170361 -0.0337976 0)
(-0.0456448 -0.0456895 0)
(-0.0638121 -0.064835 0)
(-0.0727641 -0.0843629 0)
(-0.0858341 -0.104608 0)
(-0.110469 -0.129006 0)
(-0.134431 -0.145747 0)
(-0.124744 -0.12302 0)
(-0.0756818 -0.0631277 0)
(-0.0320909 -0.00615075 0)
(-0.0125959 0.016824 0)
(-0.00586143 0.0222234 0)
(-0.00707903 0.021134 0)
(-0.0090791 0.0208367 0)
(-0.00868964 0.0209017 0)
(0.00159414 0.0200069 0)
(0.0276924 0.0118541 0)
(0.0808627 -0.0157141 0)
(0.12308 -0.061999 0)
(0.0948846 -0.0675866 0)
(0.0311196 -0.0386267 0)
(-0.00304383 -0.020047 0)
(-0.0124414 -0.0103305 0)
(-0.0244837 -0.00896293 0)
(-0.0316668 -0.0113031 0)
(-0.0225221 -0.0221369 0)
(-0.00846749 -0.0354426 0)
(-0.00928083 -0.0282765 0)
(-0.00738108 -0.0284827 0)
(-0.0113325 -0.10384 0)
(0.000239688 -0.0696679 0)
(0.0317844 -0.0725919 0)
(0.0543413 -0.0912228 0)
(0.0672316 -0.102306 0)
(0.0694177 -0.110508 0)
(0.0786959 -0.113316 0)
(0.0902701 -0.111329 0)
(0.0911196 -0.106045 0)
(0.0669411 -0.102542 0)
(0.026278 -0.0998649 0)
(-0.0184269 -0.10349 0)
(-0.0617366 -0.123182 0)
(-0.0869871 -0.144311 0)
(-0.0963343 -0.158073 0)
(-0.108728 -0.168284 0)
(-0.118803 -0.163669 0)
(-0.101234 -0.128004 0)
(-0.0620888 -0.0706252 0)
(-0.031031 -0.0242109 0)
(-0.0140704 -0.00534915 0)
(-0.00701957 0.000282829 0)
(-0.00664172 -0.00133469 0)
(-0.00805647 -0.00347879 0)
(-0.00887702 -0.00343519 0)
(-0.00818156 -0.00219402 0)
(-0.00255634 -0.000969883 0)
(0.0138267 -0.00757969 0)
(0.045106 -0.0269946 0)
(0.0844148 -0.072606 0)
(0.0953704 -0.108263 0)
(0.0596296 -0.0976961 0)
(0.0213432 -0.0679145 0)
(0.000754866 -0.0446472 0)
(-0.0157954 -0.0304042 0)
(-0.0295534 -0.0148433 0)
(-0.0331369 -0.00957219 0)
(-0.0167499 -0.01751 0)
(-0.0152183 -0.00860986 0)
(-0.0135298 -0.029996 0)
(0.0299902 -0.359348 0)
(0.0506716 -0.145165 0)
(0.0280957 -0.0576126 0)
(0.0301614 -0.0647145 0)
(0.0499976 -0.0946449 0)
(0.0604411 -0.114678 0)
(0.0736872 -0.1216 0)
(0.0882164 -0.123636 0)
(0.0921882 -0.125629 0)
(0.0670648 -0.136367 0)
(0.0185214 -0.149797 0)
(-0.0395051 -0.178717 0)
(-0.0849808 -0.204498 0)
(-0.0974341 -0.206184 0)
(-0.0958656 -0.193244 0)
(-0.0912276 -0.166725 0)
(-0.071654 -0.123151 0)
(-0.0447698 -0.0720616 0)
(-0.0247256 -0.0360297 0)
(-0.0127794 -0.0174546 0)
(-0.00848785 -0.0100864 0)
(-0.00872746 -0.0104792 0)
(-0.00948626 -0.0129294 0)
(-0.00910315 -0.0141513 0)
(-0.00784104 -0.0135858 0)
(-0.00631398 -0.0116838 0)
(-0.00359569 -0.00976967 0)
(0.00261402 -0.0115664 0)
(0.018201 -0.0239995 0)
(0.0447668 -0.0521538 0)
(0.0707068 -0.0906171 0)
(0.0700008 -0.107518 0)
(0.048076 -0.0885064 0)
(0.0237049 -0.0637211 0)
(0.0042365 -0.043949 0)
(-0.0115923 -0.0251205 0)
(-0.0250918 -0.0123991 0)
(-0.00754016 -0.017414 0)
(-0.0213128 -0.0230896 0)
(-0.0279895 -0.0573733 0)
(0.195063 -0.277303 0)
(0.291003 -0.106001 0)
(0.109309 -0.027902 0)
(0.0186557 -0.0217231 0)
(0.019085 -0.0398419 0)
(0.0434426 -0.0538022 0)
(0.0700634 -0.0574818 0)
(0.0863877 -0.0575627 0)
(0.0788513 -0.0593795 0)
(0.0436515 -0.071403 0)
(-0.0145312 -0.0836763 0)
(-0.071138 -0.105703 0)
(-0.0882052 -0.116503 0)
(-0.076143 -0.109049 0)
(-0.0583105 -0.0944083 0)
(-0.0411837 -0.0700766 0)
(-0.0275812 -0.042476 0)
(-0.0172809 -0.0243407 0)
(-0.00946748 -0.0139497 0)
(-0.00603105 -0.00850679 0)
(-0.0073487 -0.00694669 0)
(-0.00975916 -0.00732465 0)
(-0.0101803 -0.00801731 0)
(-0.00868899 -0.00804488 0)
(-0.00649924 -0.00758752 0)
(-0.00450423 -0.00665244 0)
(-0.00244315 -0.00570947 0)
(0.000114256 -0.00545641 0)
(0.00599449 -0.00830357 0)
(0.0202198 -0.0181235 0)
(0.0420197 -0.0337769 0)
(0.0616635 -0.0478932 0)
(0.0635471 -0.0424288 0)
(0.043692 -0.0318383 0)
(0.0214016 -0.0216874 0)
(0.000849278 -0.0140254 0)
(-0.0257106 -0.00877638 0)
(-0.0270517 -0.0146676 0)
(-0.0537245 -0.0290242 0)
(-0.0465667 -0.0483024 0)
(0.195063 0.277303 0)
(0.291003 0.106001 0)
(0.109309 0.027902 0)
(0.0186557 0.0217231 0)
(0.019085 0.0398419 0)
(0.0434426 0.0538022 0)
(0.0700634 0.0574818 0)
(0.0863877 0.0575627 0)
(0.0788513 0.0593795 0)
(0.0436515 0.071403 0)
(-0.0145312 0.0836763 0)
(-0.071138 0.105703 0)
(-0.0882052 0.116503 0)
(-0.076143 0.109049 0)
(-0.0583105 0.0944083 0)
(-0.0411837 0.0700766 0)
(-0.0275812 0.042476 0)
(-0.0172809 0.0243407 0)
(-0.00946748 0.0139497 0)
(-0.00603105 0.00850679 0)
(-0.0073487 0.00694669 0)
(-0.00975916 0.00732465 0)
(-0.0101803 0.00801731 0)
(-0.00868899 0.00804488 0)
(-0.00649924 0.00758752 0)
(-0.00450423 0.00665244 0)
(-0.00244315 0.00570947 0)
(0.000114256 0.00545641 0)
(0.00599449 0.00830357 0)
(0.0202198 0.0181235 0)
(0.0420197 0.0337769 0)
(0.0616635 0.0478932 0)
(0.0635471 0.0424288 0)
(0.043692 0.0318383 0)
(0.0214016 0.0216874 0)
(0.000849278 0.0140254 0)
(-0.0257106 0.00877638 0)
(-0.0270517 0.0146676 0)
(-0.0537245 0.0290242 0)
(-0.0465667 0.0483024 0)
(0.0299902 0.359348 0)
(0.0506716 0.145165 0)
(0.0280957 0.0576126 0)
(0.0301614 0.0647145 0)
(0.0499976 0.0946449 0)
(0.0604411 0.114678 0)
(0.0736872 0.1216 0)
(0.0882164 0.123636 0)
(0.0921882 0.125629 0)
(0.0670648 0.136367 0)
(0.0185214 0.149797 0)
(-0.0395051 0.178717 0)
(-0.0849808 0.204498 0)
(-0.0974341 0.206184 0)
(-0.0958656 0.193244 0)
(-0.0912276 0.166725 0)
(-0.071654 0.123151 0)
(-0.0447698 0.0720616 0)
(-0.0247256 0.0360297 0)
(-0.0127794 0.0174546 0)
(-0.00848785 0.0100864 0)
(-0.00872746 0.0104792 0)
(-0.00948626 0.0129294 0)