/*--------------------------------*- C++ -*----------------------------------*\
| =========                 |                                                 |
| \\      /  F ield         | OpenFOAM: The Open Source CFD Toolbox           |
|  \\    /   O peration     | Version:  v1912                                 |
|   \\  /    A nd           | Website:  www.openfoam.com                      |
|    \\/     M anipulation  |                                                 |
\*---------------------------------------------------------------------------*/
FoamFile
{
    version     2.0;
    format      ascii;
    class       volVectorField;
    location    "8.66";
    object      grad(p);
}
// * * * * * * * * * * * * * * * * * * * * * * * * * * * * * * * * * * * * * //

dimensions      [1 -2 -2 0 0 0 0];


internalField   nonuniform List<vector> 
1900
(
(-6990.4 -0.166414 0)
(-7895.77 -0.315618 0)
(-704.726 -0.286061 0)
(-285.811 0.632254 0)
(-148.282 0.301687 0)
(-44.159 -0.124225 0)
(-4.19865 -2.28757 0)
(5.12968 3.26059 0)
(-47.778 53.5904 0)
(772.825 83.0567 0)
(-6990.88 -0.275517 0)
(-7895.89 -0.490299 0)
(-703.778 -0.339089 0)
(-285.223 1.49935 0)
(-149.038 1.52919 0)
(-46.7482 2.21564 0)
(-0.813832 0.71612 0)
(61.0076 -9.58219 0)
(32.0181 0.72078 0)
(-103.732 12.2018 0)
(-6991.17 1.75859e-09 0)
(-7895.83 -3.73035e-10 0)
(-702.736 8.34888e-10 0)
(-283.943 2.07834e-09 0)
(-147.565 6.21725e-10 0)
(-44.9721 -2.41585e-09 0)
(-15.9965 -7.10543e-10 0)
(5.13434 -3.55271e-10 0)
(-25.994 -1.77636e-11 0)
(-203.826 1.77636e-11 0)
(-6990.88 0.275517 0)
(-7895.89 0.490299 0)
(-703.778 0.339089 0)
(-285.223 -1.49935 0)
(-149.038 -1.52919 0)
(-46.7482 -2.21564 0)
(-0.813832 -0.71612 0)
(61.0076 9.58219 0)
(32.0181 -0.72078 0)
(-103.732 -12.2018 0)
(-6990.4 0.166414 0)
(-7895.77 0.315618 0)
(-704.726 0.286061 0)
(-285.811 -0.632254 0)
(-148.282 -0.301687 0)
(-44.159 0.124225 0)
(-4.19865 2.28757 0)
(5.12968 -3.26059 0)
(-47.778 -53.5904 0)
(772.825 -83.0567 0)
(83.2205 -689.004 8.4243e-12)
(-1414.67 -470.984 -9.91626e-12)
(-1362.84 -553.118 -1.24916e-11)
(951.324 -766.387 0)
(-18403.4 -7635.84 -5.45747e-11)
(-419.961 -836.644 8.2998e-12)
(-867.93 -578.446 9.91626e-12)
(-1314.56 -621.505 1.24916e-11)
(-1743.7 -506.368 0)
(-17625.8 -7071.66 0)
(-677.478 -1.12631e-10 0)
(-882.414 2.72686e-10 0)
(-1216.58 -5.92119e-10 0)
(-1730.85 3.70074e-10 0)
(-20282.4 -2.16758e-09 0)
(-419.961 836.644 8.2998e-12)
(-867.93 578.446 9.91626e-12)
(-1314.56 621.505 1.24916e-11)
(-1743.7 506.368 0)
(-17625.8 7071.66 0)
(83.2205 689.004 -2.50239e-11)
(-1414.67 470.984 -9.91626e-12)
(-1362.84 553.118 -1.24916e-11)
(951.324 766.387 -3.3586e-11)
(-18403.4 7635.84 5.45747e-11)
(-37053.4 10560.8 1.00497e-11)
(-11215.3 4103.91 -4.90565e-12)
(-5024.53 1908.13 0)
(-3219.06 1283.49 2.02894e-12)
(-1216.76 664.343 -6.70271e-13)
(-33203.2 13060.5 -5.18387e-12)
(-13134.8 3330.79 2.51462e-12)
(-5725.41 1106.44 0)
(-3587.95 776.833 -1.29809e-12)
(-1912.06 62.8771 1.73043e-13)
(-34273 3.14002e-10 0)
(-14263.5 3.41607e-10 0)
(-5833.18 7.31925e-10 0)
(-3676.9 1.23358e-10 5.28596e-13)
(-1883.36 3.50597e-10 -3.46086e-13)
(-33203.2 -13060.5 -5.18387e-12)
(-13134.8 -3330.79 2.51462e-12)
(-5725.41 -1106.44 0)
(-3587.95 -776.833 -1.29809e-12)
(-1912.06 -62.8771 1.73043e-13)
(-37053.4 -10560.8 5.18387e-12)
(-11215.3 -4103.91 -1.23596e-13)
(-5024.53 -1908.13 0)
(-3219.06 -1283.49 3.86545e-14)
(-1216.76 -664.343 6.70271e-13)
(404.252 -1219.89 0)
(156.08 -267.233 0)
(-84.9223 699.89 0)
(-169.076 642.342 0)
(-259.856 459.443 0)
(-335.29 184.482 0)
(-404.398 -21.7671 0)
(-392.122 -155.414 0)
(-385.014 -179.927 0)
(-469.764 -217.047 0)
(-321.828 -180.634 0)
(94.3359 -108.898 0)
(1156.18 -70.8367 0)
(2057.37 -98.1856 0)
(1262.63 47.9767 0)
(195.894 -59.1883 0)
(-95.3557 -38.5307 0)
(-116.317 92.7677 0)
(-86.2685 41.2384 0)
(-186.957 -239.835 0)
(-301.669 -378.903 0)
(-415.982 -419.395 0)
(-530.746 -411.093 0)
(-605.779 -321.986 0)
(-823.84 -145.973 0)
(-1338.53 39.5123 0)
(-1442.2 111.805 0)
(-445.978 45.44 0)
(674.097 8.29065 0)
(807.673 -4.60115 0)
(453.807 -3.82 0)
(316.537 -3.84385 0)
(325.783 -3.6918 0)
(331.249 -2.50101 0)
(319.507 -0.539073 0)
(310.405 0.728799 0)
(313.518 1.07039 0)
(327.235 0.990135 0)
(332.595 2.95861 0)
(353.084 3.62441 0)
(32.7289 -863.247 0)
(485.662 -879.165 0)
(105.533 218.926 0)
(-258.771 346.086 0)
(-357.307 308.661 0)
(-412.252 181.48 0)
(-433.892 33.7804 0)
(-382.399 -37.0839 0)
(-371.425 -6.61371 0)
(-455.847 -28.305 0)
(-307.954 -10.3528 0)
(99.171 -6.5323 0)
(1153.39 12.9412 0)
(2063.01 27.4976 0)
(1263.25 44.5788 0)
(191.254 -14.1675 0)
(-70.3955 -11.8506 0)
(-107.09 47.7033 0)
(-115.934 -40.5664 0)
(-191.461 -135.232 0)
(-280.32 -22.5686 0)
(-414.696 9.62389 0)
(-542.444 88.0838 0)
(-613.86 148.487 0)
(-806.931 111.31 0)
(-1311.37 66.5045 0)
(-1443.18 63.6481 0)
(-461.183 16.798 0)
(668.16 2.49779 0)
(806.4 -2.04576 0)
(453.835 -2.14934 0)
(316.447 -2.54299 0)
(325.877 -2.68312 0)
(331.671 -2.0218 0)
(320.021 -0.60514 0)
(310.797 0.391236 0)
(313.823 0.391214 0)
(327.699 -0.426501 0)
(332.968 0.303323 0)
(351.564 0.174031 0)
(72.7882 3.63346e-10 0)
(470.894 7.91286e-10 0)
(271.514 5.16758e-10 0)
(-142.971 2.94714e-10 0)
(-307.741 -3.47197e-10 0)
(-415.256 -5.61167e-10 0)
(-467.98 1.49375e-10 0)
(-403.873 7.34766e-10 0)
(-382.46 -1.31208e-10 0)
(-470.851 -2.36175e-10 0)
(-315.494 9.08364e-11 0)
(101.112 8.07435e-11 0)
(1166.08 -9.2855e-11 0)
(2066.57 -3.91606e-10 0)
(1250.51 3.47197e-10 0)
(179.478 5.2887e-10 0)
(-77.357 -9.24513e-10 0)
(-124.671 -4.67101e-09 0)
(-139.486 1.80381e-08 0)
(-181.722 4.22288e-08 0)
(-259.529 1.32177e-08 0)
(-383.792 3.69401e-09 0)
(-490.349 1.05653e-08 0)
(-599.023 6.75823e-09 0)
(-847.69 -4.60238e-10 0)
(-1352.4 1.82278e-09 0)
(-1456.66 2.98549e-09 0)
(-463.768 3.53556e-09 0)
(668.615 3.15707e-09 0)
(806.321 -3.02586e-09 0)
(453.663 -5.42193e-09 0)
(316.382 -3.5507e-09 0)
(325.935 -9.40662e-10 0)
(331.854 -2.92695e-10 0)
(320.209 -6.33836e-10 0)
(310.695 -9.20476e-10 0)
(313.28 -1.8571e-09 0)
(327.21 -1.88536e-09 0)
(332.769 -4.40052e-10 0)
(352.945 4.68312e-10 0)
(32.7289 863.247 0)
(485.662 879.165 0)
(105.533 -218.926 0)
(-258.771 -346.086 0)
(-357.307 -308.661 0)
(-412.252 -181.48 0)
(-433.892 -33.7804 0)
(-382.399 37.0839 0)
(-371.425 6.61371 0)
(-455.847 28.305 0)
(-307.954 10.3528 0)
(99.171 6.5323 0)
(1153.39 -12.9412 0)
(2063.01 -27.4976 0)
(1263.25 -44.5788 0)
(191.254 14.1675 0)
(-70.3955 11.8506 0)
(-107.09 -47.7033 0)
(-115.934 40.5664 0)
(-191.461 135.232 0)
(-280.32 22.5686 0)
(-414.696 -9.62389 0)
(-542.444 -88.0838 0)
(-613.86 -148.487 0)
(-806.931 -111.31 0)
(-1311.37 -66.5045 0)
(-1443.18 -63.6481 0)
(-461.183 -16.798 0)
(668.16 -2.49779 0)
(806.4 2.04576 0)
(453.835 2.14934 0)
(316.447 2.54299 0)
(325.877 2.68312 0)
(331.671 2.0218 0)
(320.021 0.60514 0)
(310.797 -0.391236 0)
(313.823 -0.391214 0)
(327.699 0.426501 0)
(332.968 -0.303323 0)
(351.564 -0.174031 0)
(404.252 1219.89 0)
(156.08 267.233 0)
(-84.9223 -699.89 0)
(-169.076 -642.342 0)
(-259.856 -459.443 0)
(-335.29 -184.482 0)
(-404.398 21.7671 0)
(-392.122 155.414 0)
(-385.014 179.927 0)
(-469.764 217.047 0)
(-321.828 180.634 0)
(94.3359 108.898 0)
(1156.18 70.8367 0)
(2057.37 98.1856 0)
(1262.63 -47.9767 0)
(195.894 59.1883 0)
(-95.3557 38.5307 0)
(-116.317 -92.7677 0)
(-86.2685 -41.2384 0)
(-186.957 239.835 0)
(-301.669 378.903 0)
(-415.982 419.395 0)
(-530.746 411.093 0)
(-605.779 321.986 0)
(-823.84 145.973 0)
(-1338.53 -39.5123 0)
(-1442.2 -111.805 0)
(-445.978 -45.44 0)
(674.097 -8.29065 0)
(807.673 4.60115 0)
(453.807 3.82 0)
(316.537 3.84385 0)
(325.783 3.6918 0)
(331.249 2.50101 0)
(319.507 0.539073 0)
(310.405 -0.728799 0)
(313.518 -1.07039 0)
(327.235 -0.990135 0)
(332.595 -2.95861 0)
(353.084 -3.62441 0)
(-302.473 455.004 0)
(-337.486 -220.735 0)
(-244.804 -481.386 0)
(-211.655 -664.555 0)
(-182.781 -687.47 0)
(-199.388 -584.673 0)
(-254.787 -430.954 0)
(-271.948 -221.683 0)
(-317.052 -78.3749 0)
(-439.312 29.4014 0)
(-359.75 125.267 0)
(35.8884 92.2874 0)
(1143.45 81.5269 0)
(1994.99 79.5593 0)
(1239.49 -144.528 0)
(240.154 -22.4473 0)
(-136.853 -25.6754 0)
(-146.457 -112.101 0)
(58.399 -125.552 0)
(66.8753 -68.6551 0)
(-143.003 12.5675 0)
(-393.018 69.0538 0)
(-617.072 102.777 0)
(-789.505 71.9637 0)
(-1014.14 -19.5173 0)
(-1441.67 -107.314 0)
(-1448.03 -133.958 0)
(-413.832 -60.0502 0)
(692.685 -12.7414 0)
(812.524 7.02545 0)
(453.392 5.88459 0)
(316.262 5.34484 0)
(325.144 4.53775 0)
(330.18 2.72267 0)
(318.59 0.524615 0)
(310.24 -1.00731 0)
(314.011 -1.14657 0)
(327.052 -0.359903 0)
(331.747 -2.22944 0)
(353.936 -4.12203 0)
(-497.047 -55.9324 0)
(-481.595 42.8309 0)
(-426.87 51.6888 0)
(-344.833 2.88264 0)
(-224.209 -69.2643 0)
(-160.978 -152.704 0)
(-134.835 -180.847 0)
(-116.805 -155.285 0)
(-179.502 -137.265 0)
(-289.856 -69.985 0)
(-240.894 49.1526 0)
(83.5277 74.3852 0)
(1150.74 134.715 0)
(1872.98 202.363 0)
(1176.74 -22.3882 0)
(286.691 13.2456 0)
(-159.497 -24.7187 0)
(-196.401 -102.304 0)
(-121.977 -128.097 0)
(-189.973 -298.878 0)
(-254.05 -429.737 0)
(-341.366 -454.015 0)
(-481.651 -397.236 0)
(-625.107 -302.307 0)
(-894.555 -222.183 0)
(-1393.5 -208.411 0)
(-1393.53 -193.077 0)
(-346.407 -78.0003 0)
(728.766 -16.4888 0)
(823.02 8.94044 0)
(452.411 6.504 0)
(315.387 5.11903 0)
(323.599 3.95974 0)
(327.956 2.13596 0)
(316.404 0.325229 0)
(308.883 -0.994722 0)
(313.877 -1.44987 0)
(326.29 -1.28047 0)
(329.424 -3.39769 0)
(358.748 -5.16258 0)
(-315.099 28.1499 0)
(-233.778 79.1198 0)
(-283.299 128.472 0)
(-328.21 180.572 0)
(-332.71 172.319 0)
(-306.914 89.4413 0)
(-257.274 20.5546 0)
(-229.951 -48.1017 0)
(-234.854 -157.244 0)
(-259.673 -142.225 0)
(-220.629 33.9859 0)
(118.339 138.094 0)
(1266.77 299.738 0)
(1843.6 189.192 0)
(1057.25 -160.494 0)
(237.908 -229.202 0)
(-248.201 -255.545 0)
(-246.076 -223.829 0)
(-131.027 -158.973 0)
(-223.796 -176.31 0)
(-292.498 -189.042 0)
(-361.699 -212.068 0)
(-470.882 -216.761 0)
(-620.817 -209.498 0)
(-923.656 -227.074 0)
(-1413.62 -279.634 0)
(-1322.36 -259.296 0)
(-243.666 -93.915 0)
(776.465 -18.586 0)
(834.681 8.34856 0)
(449.709 3.82515 0)
(313.81 1.32995 0)
(322.269 -0.229441 0)
(326.678 -1.58846 0)
(315.573 -2.3531 0)
(308.53 -1.59994 0)
(313.736 -0.775197 0)
(325.175 -0.882923 0)
(328.006 -2.77296 0)
(362.185 -2.62639 0)
(-393.678 26.0956 0)
(-384.92 -34.8644 0)
(-329.107 -92.0913 0)
(-302.581 -96.3142 0)
(-312.026 -80.0002 0)
(-307.224 -87.6512 0)
(-267.376 -87.2113 0)
(-288.138 -124.39 0)
(-270.202 -204.344 0)
(-105.58 -139.248 0)
(29.2312 47.7981 0)
(339.616 266.824 0)
(1199.98 598.377 0)
(1429.49 123.717 0)
(773.559 -301.833 0)
(195.096 -391.245 0)
(-154.32 -441.621 0)
(-103.34 -276.573 0)
(-76.186 -202.33 0)
(-218.949 -240.309 0)
(-288.508 -245.425 0)
(-368.077 -252.1 0)
(-479.174 -260.839 0)
(-635.045 -270.403 0)
(-962.141 -301.799 0)
(-1424.55 -367.166 0)
(-1214.57 -301.866 0)
(-114.451 -98.258 0)
(827.311 -22.145 0)
(844.616 -0.51734 0)
(445.647 -4.8891 0)
(311.48 -6.40252 0)
(320.787 -8.09556 0)
(325.909 -9.56721 0)
(316.393 -10.1222 0)
(310.403 -7.96723 0)
(314.568 -4.75706 0)
(324.365 -3.12605 0)
(327.744 -3.13217 0)
(363.951 -1.31466 0)
(-323.548 18.1164 0)
(-347.667 77.33 0)
(-342.515 84.4346 0)
(-316.559 83.6659 0)
(-324.362 77.8963 0)
(-313.862 86.0776 0)
(-292.677 103.267 0)
(-342.824 42.7071 0)
(-249.172 85.055 0)
(-16.6994 198.077 0)
(170.676 238.377 0)
(648.897 384.289 0)
(1128.87 490.075 0)
(976.128 50.7121 0)
(561.019 -188.577 0)
(103.203 -314.376 0)
(-137.7 -379.762 0)
(-15.4861 -179.386 0)
(-96.0809 -226.113 0)
(-265.324 -269.16 0)
(-303.86 -279.625 0)
(-376.553 -297.697 0)
(-488.519 -315.625 0)
(-660.288 -335.095 0)
(-1016.9 -383.586 0)
(-1413.69 -445.861 0)
(-1063.23 -305.048 0)
(25.8832 -86.4799 0)
(870.651 -16.0276 0)
(851.309 11.8173 0)
(444.038 18.9829 0)
(310.721 24.3375 0)
(319.22 22.8376 0)
(324.725 12.279 0)
(317.115 -1.10486 0)
(313.7 -9.37692 0)
(318.401 -9.47818 0)
(326.741 -6.1872 0)
(329.751 -4.19204 0)
(366.47 -1.08851 0)
(-301.702 8.14403 0)
(-321.014 31.9494 0)
(-323.001 60.2684 0)
(-308.881 74.9365 0)
(-309.702 70.731 0)
(-282.775 94.3258 0)
(-309.169 106.891 0)
(-305.688 98.8739 0)
(-120.482 175.611 0)
(42.1664 253.849 0)
(208.672 343.606 0)
(582.162 422.654 0)
(878.532 220.563 0)
(775.514 -89.9544 0)
(421.747 -259.809 0)
(10.8629 -520.569 0)
(-24.238 -341.493 0)
(44.7225 -179.683 0)
(-162.696 -314.099 0)
(-270.515 -316.666 0)
(-316.008 -318.536 0)
(-402.769 -336.211 0)
(-515.211 -348.75 0)
(-700.536 -359.238 0)
(-1068.88 -411.916 0)
(-1348.87 -455.327 0)
(-868.255 -236.572 0)
(164.059 -38.9565 0)
(922.033 41.2323 0)
(878.353 107.092 0)
(457.712 142.086 0)
(315.194 151.784 0)
(309.167 137.445 0)
(302.837 109.525 0)
(295.525 81.0147 0)
(302.334 49.6313 0)
(317.642 13.837 0)
(329.459 -1.31213 0)
(332.657 -3.26555 0)
(369.039 -0.362248 0)
(-284.913 5.4166 0)
(-297.438 15.9541 0)
(-301.091 41.2499 0)
(-306.477 51.967 0)
(-305.678 55.3245 0)
(-279.017 77.4394 0)
(-288.295 77.8376 0)
(-276.604 145.319 0)
(-99.8323 212.675 0)
(145.187 263.272 0)
(333.343 339.905 0)
(530.329 344.186 0)
(634.904 170.512 0)
(513.223 -112.054 0)
(146.062 -444.07 0)
(24.4899 -504.146 0)
(190.79 -204.319 0)
(10.9117 -322.818 0)
(-228.083 -381.599 0)
(-269.6 -338.917 0)
(-322.695 -317.736 0)
(-405.668 -276.318 0)
(-510.709 -228.785 0)
(-721.157 -195.904 0)
(-1109.5 -237.785 0)
(-1244.72 -280.972 0)
(-662.004 -7.28546 0)
(293.586 184.06 0)
(1011.39 452.519 0)
(948.496 690.716 0)
(487.104 735.416 0)
(306.248 688.126 0)
(278.498 582.312 0)
(270.347 448.429 0)
(259.4 316.518 0)
(248.965 195.599 0)
(269.31 113.539 0)
(310.26 50.6579 0)
(330.667 10.3964 0)
(369.966 1.86443 0)
(-281.109 3.76855 0)
(-286.483 8.76505 0)
(-288.298 22.1178 0)
(-295.318 32.9463 0)
(-285.156 58.6518 0)
(-261.081 87.5326 0)
(-243.758 105.349 0)
(-175.754 171.078 0)
(-6.81847 269.606 0)
(164.769 289.359 0)
(286.643 228.786 0)
(418.93 150.231 0)
(438.884 -7.74841 0)
(183.28 -304.559 0)
(43.9122 -459.773 0)
(241.895 -230.867 0)
(150.496 -295.744 0)
(-126.111 -434.432 0)
(-178.21 -329.186 0)
(-208.975 -182.496 0)
(-255.685 -36.3014 0)
(-317.052 138.967 0)
(-437.721 355.859 0)
(-709.208 448.703 0)
(-1150.85 316.735 0)
(-1126.75 295.806 0)
(-420.133 603.685 0)
(607.144 836.176 0)
(1410.27 1348.19 0)
(1150.96 1535.1 0)
(455.216 1475.23 0)
(167.658 1354.05 0)
(78.1867 1195.34 0)
(46.7083 1012.23 0)
(51.889 796.212 0)
(106.737 563.988 0)
(177.971 356.99 0)
(230.067 177.155 0)
(285.638 60.1107 0)
(357.225 5.64997 0)
(-272.835 4.43163 0)
(-279.756 10.2667 0)
(-277.789 13.1295 0)
(-271.271 7.11251 0)
(-253.077 -1.04774 0)
(-234.018 -10.396 0)
(-207.787 0.783671 0)
(-118.32 62.2139 0)
(14.1474 124.776 0)
(105.851 117.507 0)
(199.274 86.2618 0)
(302.396 55.4241 0)
(196.651 -152.738 0)
(77.6359 -465.951 0)
(217.074 -383.448 0)
(182.554 -193.936 0)
(-5.37218 -261.306 0)
(-21.3142 -121.582 0)
(14.6914 214.742 0)
(12.6341 616.68 0)
(-12.9212 1008.07 0)
(-27.7682 1233.7 0)
(-212.235 1249.17 0)
(-758.858 1003.58 0)
(-1256.83 615.075 0)
(-968.204 690.826 0)
(-141.283 996.591 0)
(1011.02 1215.11 0)
(1684.9 1530.61 0)
(1070.91 1403.75 0)
(312.637 1286.82 0)
(36.5386 1209.58 0)
(-50.8985 1163.64 0)
(-114.27 1128.53 0)
(-172.539 1053.08 0)
(-174.286 923.462 0)
(-103.456 701.67 0)
(24.1765 424.573 0)
(165.398 194.901 0)
(306.597 22.5314 0)
(-266.945 -13.7182 0)
(-278.102 -26.048 0)
(-291.337 -43.9302 0)
(-308.98 -74.4364 0)
(-302.027 -80.0306 0)
(-259.316 -62.5358 0)
(-173.789 -4.24812 0)
(-56.2702 60.9003 0)
(46.4637 70.772 0)
(127.656 7.62607 0)
(226.818 -76.6365 0)
(188.621 -228.972 0)
(-63.5322 -407.814 0)
(-39.0401 -198.568 0)
(306.036 42.5718 0)
(359.596 172.767 0)
(220.219 648.323 0)
(332.626 1289.04 0)
(533.206 1695.44 0)
(555.51 1838.76 0)
(338.897 1797.76 0)
(-84.7233 1554.83 0)
(-659.468 1004.31 0)
(-1320.25 355.493 0)
(-1452.24 104.041 0)
(-759.11 467.263 0)
(85.0845 709.702 0)
(1121.74 828.775 0)
(1592.05 792.445 0)
(916.039 622.139 0)
(268.111 593.432 0)
(48.9537 598.251 0)
(0.0832407 648.652 0)
(-59.827 721.514 0)
(-145.724 777.706 0)
(-231.896 819.085 0)
(-302.777 798.375 0)
(-258.275 640.372 0)
(-101.784 372.751 0)
(147.699 62.725 0)
(-311.155 1.86305 0)
(-308.87 -28.1493 0)
(-324.418 -46.2629 0)
(-306.059 -37.5248 0)
(-241.609 14.043 0)
(-160.991 95.4497 0)
(-88.8394 168.827 0)
(-46.0274 170.681 0)
(-37.1895 98.8396 0)
(-36.1975 42.0131 0)
(-28.7203 96.2611 0)
(-16.7387 160.968 0)
(225.949 326.337 0)
(511.644 960.913 0)
(574.907 1540.76 0)
(766.278 1928.21 0)
(1070.3 2227.17 0)
(987.722 2376.37 0)
(544.429 2142.49 0)
(111.238 1604.88 0)
(-286.525 931.815 0)
(-792.364 347.848 0)
(-1367.97 -238.761 0)
(-1626.39 -606.442 0)
(-1149.13 -255.712 0)
(-384.567 270.966 0)
(207.083 398.119 0)
(1090.75 405.263 0)
(1485.78 242.577 0)
(879.137 160.58 0)
(289.618 190.256 0)
(89.7512 211.448 0)
(67.8814 255.115 0)
(10.091 307.778 0)
(-78.5156 353.904 0)
(-154.368 412.44 0)
(-275.671 493.105 0)
(-385.97 526.054 0)
(-391.243 401.876 0)
(-113.044 116.086 0)
(-292.275 57.5976 0)
(-324.478 114.705 0)
(-300.372 269.914 0)
(-250.867 477.163 0)
(-173.888 649.206 0)
(-110.161 817.367 0)
(-101.293 1010.01 0)
(-123.712 1220.25 0)
(-77.5258 1399.04 0)
(125.171 1597.64 0)
(341.447 1807.07 0)
(410.33 2080.22 0)
(707.324 2434.75 0)
(1131.23 2653.4 0)
(1238.16 2694.46 0)
(1021.05 2614.13 0)
(652.081 2114.33 0)
(251.02 1334.55 0)
(-210.226 674.693 0)
(-611.139 190.888 0)
(-872.428 -273.864 0)
(-1212.73 -731.538 0)
(-1579.06 -974.199 0)
(-1336.58 -681.044 0)
(-606.738 -32.7437 0)
(-129.055 278.994 0)
(214.498 319.395 0)
(971.858 239.02 0)
(1356.26 21.6303 0)
(865.621 -13.97 0)
(317.13 51.1671 0)
(111.454 74.9561 0)
(92.9107 101.549 0)
(35.3693 114.621 0)
(-44.8683 125.144 0)
(-97.7566 125.758 0)
(-193.294 148.333 0)
(-346.186 206.995 0)
(-496.844 220.208 0)
(-351.428 96.8422 0)
(-145.118 187.397 0)
(-104.274 522.267 0)
(24.8596 916.887 0)
(59.4414 1279.82 0)
(86.2249 1576.51 0)
(186.693 1836.15 0)
(299.396 2132.83 0)
(328.851 2484.77 0)
(326.478 2856.62 0)
(356.999 3139.87 0)
(436.308 3175.29 0)
(588.117 3028.07 0)
(778.29 2884.94 0)
(761.905 2388.42 0)
(537.061 1705.04 0)
(207.246 1061.52 0)
(-162.749 509.499 0)
(-399.561 -13.0139 0)
(-557.641 -411.965 0)
(-802.826 -651.221 0)
(-1175.41 -860.765 0)
(-1467.23 -1107.68 0)
(-1319.31 -907.118 0)
(-719.173 -237.933 0)
(-223.998 198.1 0)
(-45.233 289.94 0)
(168.562 301.35 0)
(803.817 183.852 0)
(1241.99 -59.5787 0)
(907.6 -65.9007 0)
(375.311 26.6049 0)
(138.301 73.9945 0)
(106.104 94.1724 0)
(32.828 89.4151 0)
(-67.7831 85.96 0)
(-132.022 59.7662 0)
(-197.388 31.7692 0)
(-316.709 28.6194 0)
(-497.391 38.9199 0)
(-418.565 32.9822 0)
(391.583 303.876 0)
(378.485 636.995 0)
(429.636 895.471 0)
(384.774 1042.88 0)
(362.214 1218.63 0)
(425.925 1419.86 0)
(523.742 1591.96 0)
(573.763 1762.66 0)
(553.743 1941.91 0)
(432.25 2052.23 0)
(233.721 2049.59 0)
(130.534 1831.04 0)
(90.9355 1440.86 0)
(-5.76421 844.988 0)
(-40.499 340.837 0)
(-131.023 -88.2194 0)
(-383.374 -355.157 0)
(-636.937 -545.017 0)
(-825.226 -749.85 0)
(-1043.62 -1012.3 0)
(-1312.29 -1177.77 0)
(-1257.4 -978.374 0)
(-740.937 -374.746 0)
(-271.553 117.481 0)
(-98.0611 266.203 0)
(-29.56 281.469 0)
(112.268 277.507 0)
(624.054 173.496 0)
(1115.59 -94.4447 0)
(948.671 -142.218 0)
(451.938 -53.8669 0)
(176.565 7.34307 0)
(107.77 10.9952 0)
(27.4555 7.86492 0)
(-73.439 30.859 0)
(-149.977 35.9198 0)
(-223.308 13.486 0)
(-339.295 -17.1061 0)
(-492.64 -42.7416 0)
(-420.715 -2.56078 0)
(761.54 142.067 0)
(465.809 165.511 0)
(415.988 201.76 0)
(370.846 210.366 0)
(449.498 306.449 0)
(546.453 418.339 0)
(629.727 482.425 0)
(666.077 516.535 0)
(605.519 570.649 0)
(460.762 645.185 0)
(223.16 663.221 0)
(1.52404 600.958 0)
(-171.906 419.103 0)
(-298.121 146.021 0)
(-362.212 -130.194 0)
(-463.439 -464.393 0)
(-602.936 -720.875 0)
(-779.902 -892.485 0)
(-1007.94 -1060.58 0)
(-1215.18 -1197.78 0)
(-1142.71 -1019.55 0)
(-693.409 -454.059 0)
(-263.302 41.2919 0)
(-101.531 229.854 0)
(-65.9734 272.689 0)
(-34.3406 273.053 0)
(64.5147 255.301 0)
(445.391 190.709 0)
(937.754 -97.8904 0)
(946.702 -221.134 0)
(519.434 -143.716 0)
(200.805 -76.9861 0)
(106.607 -98.1271 0)
(51.9695 -102.512 0)
(-40.7484 -74.7322 0)
(-148.763 -58.7595 0)
(-248.486 -69.3986 0)
(-370.892 -68.6787 0)
(-483.375 -69.2396 0)
(-374.91 -19.8761 0)
(687.976 -112.876 0)
(436.007 -239.678 0)
(472.86 -239.096 0)
(485.657 -183.567 0)
(562.624 -100.869 0)
(595.501 -72.6794 0)
(618.366 -71.6031 0)
(658.778 -69.2357 0)
(677.716 -1.9766 0)
(521.457 121.569 0)
(191.101 130.3 0)
(-104.708 57.5146 0)
(-347.458 -128.798 0)
(-535.086 -350.907 0)
(-628.717 -585.543 0)
(-700.224 -795.456 0)
(-795.898 -984.61 0)
(-964.293 -1157.58 0)
(-1119.42 -1214.65 0)
(-1004.08 -973.234 0)
(-595.612 -449.325 0)
(-235.13 8.08 0)
(-81.8933 204.055 0)
(-48.5709 259.757 0)
(-56.4323 274.21 0)
(-46.3156 275.902 0)
(32.9189 257.631 0)
(283.706 220.475 0)
(718.722 -36.1274 0)
(904.512 -243.244 0)
(590.844 -210.196 0)
(220.495 -115.88 0)
(83.1725 -142.04 0)
(49.9997 -160.437 0)
(-31.2772 -172.794 0)
(-144.837 -172.162 0)
(-232.867 -169.094 0)
(-339.142 -140.727 0)
(-445.612 -108.29 0)
(-334.84 -50.6904 0)
(421.805 -219.46 0)
(344.179 -348.678 0)
(470.059 -426.561 0)
(504.046 -456.832 0)
(556.353 -479.077 0)
(574.655 -546.89 0)
(633.045 -587.591 0)
(733.172 -569.268 0)
(789.386 -511.22 0)
(588.228 -479.981 0)
(161.435 -482.834 0)
(-248.153 -528.744 0)
(-565.476 -706.294 0)
(-738.257 -900.777 0)
(-790.595 -1035.48 0)
(-847.994 -1117.52 0)
(-951.896 -1183.49 0)
(-1001.58 -1152.45 0)
(-830.29 -860.197 0)
(-477.69 -375.376 0)
(-197.082 20.0132 0)
(-63.7886 198.077 0)
(-20.7765 260.079 0)
(-33.9262 271.684 0)
(-50.4156 281.248 0)
(-50.3175 289.697 0)
(11.1031 288.185 0)
(162.315 243.276 0)
(490.897 77.902 0)
(778.963 -217.242 0)
(642.166 -304.341 0)
(266.482 -213.481 0)
(63.67 -193.576 0)
(22.334 -220.381 0)
(-52.0469 -260.198 0)
(-145.197 -250.346 0)
(-218.194 -230.549 0)
(-312.3 -212.943 0)
(-396.612 -152.279 0)
(-221.711 -147.692 0)
(140.498 -334.737 0)
(236.437 -351.129 0)
(368.638 -447.783 0)
(435.05 -573.845 0)
(475.841 -687.876 0)
(490.933 -800.35 0)
(596.802 -880.952 0)
(732.372 -941.04 0)
(763.756 -993.775 0)
(548.811 -1075.43 0)
(144.112 -1140.08 0)
(-320.042 -1208.96 0)
(-705.962 -1333.98 0)
(-852.302 -1376.1 0)
(-837.583 -1322.46 0)
(-842.851 -1218.26 0)
(-829.555 -1023.06 0)
(-652.758 -678.155 0)
(-370.602 -257.808 0)
(-155.878 57.8424 0)
(-43.0117 207.745 0)
(-3.79393 267.648 0)
(-10.9626 274.899 0)
(-28.1714 276.242 0)
(-39.074 287.56 0)
(-39.6309 302.97 0)
(-11.8144 315.299 0)
(81.0696 276.7 0)
(274.951 166.307 0)
(536.168 -113.889 0)
(594.468 -347.625 0)
(327.233 -363.525 0)
(76.5228 -312.131 0)
(-14.1997 -332.033 0)
(-60.1523 -376.633 0)
(-116.267 -350.001 0)
(-196.824 -322.761 0)
(-263.718 -275.24 0)
(-382.733 -23.3526 0)
(-45.7775 -18.4044 0)
(-239.12 -308.152 0)
(235.243 -577.088 0)
(255.441 -431.344 0)
(272.685 -497.367 0)
(338.085 -677.993 0)
(388.6 -799.889 0)
(497.471 -881.073 0)
(624.451 -1019.21 0)
(659.886 -1244.78 0)
(447.241 -1565.14 0)
(32.7596 -1841.78 0)
(-435.004 -2022.98 0)
(-726.539 -1951.94 0)
(-727.153 -1662.6 0)
(-638.501 -1322.86 0)
(-559.485 -973.161 0)
(-431.428 -571.944 0)
(-264.148 -177.959 0)
(-121.056 82.7793 0)
(-29.0666 208.289 0)
(5.09478 256.715 0)
(0.92322 261.89 0)
(-12.4948 261.677 0)
(-21.7253 269.224 0)
(-24.6601 284.622 0)
(-23.587 304.289 0)
(-14.2108 321.736 0)
(18.7405 315.008 0)
(114.511 240.971 0)
(283.719 45.512 0)
(401.609 -273.949 0)
(300.686 -477.087 0)
(94.017 -499.638 0)
(-39.8226 -493.455 0)
(-69.3623 -485.395 0)
(-93.2839 -452.209 0)
(-146.151 -409.002 0)
(-23.7791 -393.755 0)
(-149.116 -149.432 0)
(-181.472 -129.932 0)
(-712.552 432.375 0)
(117.725 555.209 0)
(445.46 66.0871 0)
(197.37 -172.141 0)
(184.32 -421.706 0)
(295.238 -714.259 0)
(385.455 -1131.35 0)
(381.89 -1630.5 0)
(237.681 -2175.67 0)
(-26.4746 -2561.94 0)
(-297.084 -2612.31 0)
(-426.204 -2287.64 0)
(-358.687 -1718.6 0)
(-246.095 -1161.46 0)
(-173.211 -708.629 0)
(-119.239 -319.122 0)
(-63.2694 -4.29287 0)
(-21.8431 194.243 0)
(1.60104 292.49 0)
(11.7328 318.206 0)
(8.6403 310.478 0)
(0.987268 303.953 0)
(-3.89509 308.495 0)
(-6.0601 320.961 0)
(-5.28458 337.329 0)
(-3.8666 352.036 0)
(-1.48498 365.819 0)
(3.24113 368.324 0)
(15.2548 343.008 0)
(39.9731 233.662 0)
(90.8726 7.1003 0)
(109.751 -277.404 0)
(60.7504 -418.825 0)
(-0.474935 -438.011 0)
(-20.4064 -377.007 0)
(-42.6521 -344.855 0)
(-140.496 -235.941 0)
(-13.587 -47.3915 0)
(-128.504 -197.165 0)
(223.428 240.704 0)
(-712.552 -432.375 0)
(117.725 -555.209 0)
(445.46 -66.0871 0)
(197.37 172.141 0)
(184.32 421.706 0)
(295.238 714.259 0)
(385.455 1131.35 0)
(381.89 1630.5 0)
(237.681 2175.67 0)
(-26.4746 2561.94 0)
(-297.084 2612.31 0)
(-426.204 2287.64 0)
(-358.687 1718.6 0)
(-246.095 1161.46 0)
(-173.211 708.629 0)
(-119.239 319.122 0)
(-63.2694 4.29287 0)
(-21.8431 -194.243 0)
(1.60104 -292.49 0)
(11.7328 -318.206 0)
(8.6403 -310.478 0)
(0.987268 -303.953 0)
(-3.89509 -308.495 0)
(-6.0601 -320.961 0)
(-5.28458 -337.329 0)
(-3.8666 -352.036 0)
(-1.48498 -365.819 0)
(3.24113 -368.324 0)
(15.2548 -343.008 0)
(39.9731 -233.662 0)
(90.8726 -7.1003 0)
(109.751 277.404 0)
(60.7504 418.825 0)
(-0.474935 438.011 0)
(-20.4064 377.007 0)
(-42.6521 344.855 0)
(-140.496 235.941 0)
(-13.587 47.3915 0)
(-128.504 197.165 0)
(223.428 -240.704 0)
(-239.12 308.152 0)
(235.243 577.088 0)
(255.441 431.344 0)
(272.685 497.367 0)
(338.085 677.993 0)
(388.6 799.889 0)
(497.471 881.073 0)
(624.451 1019.21 0)
(659.886 1244.78 0)
(447.241 1565.14 0)
(32.7596 1841.78 0)
(-435.004 2022.98 0)
(-726.539 1951.94 0)
(-727.153 1662.6 0)
(-638.501 1322.86 0)
(-559.485 973.161 0)
(-431.428 571.944 0)
(-264.148 177.959 0)
(-121.056 -82.7793 0)
(-29.0666 -208.289 0)
(5.09478 -256.715 0)
(0.92322 -261.89 0)
(-12.4948 -261.677 0)
(-21.7253 -269.224 0)
(-24.6601 -284.622 0)
(-23.587 -304.289 0)
(-14.2108 -321.736 0)
(18.7405 -315.008 0)
(114.511 -240.971 0)
(283.719 -45.512 0)
(401.609 273.949 0)
(300.686 477.087 0)
(94.017 499.638 0)
(-39.8226 493.455 0)
(-69.3623 485.395 0)
(-93.2839 452.209 0)
(-146.151 409.002 0)
(-23.7791 393.755 0)
(-149.116 149.432 0)
(-181.472 129.932 0)
(140.498 334.737 0)
(236.437 351.129 0)
(368.638 447.783 0)
(435.05 573.845 0)
(475.841 687.876 0)
(490.933 800.35 0)
(596.802 880.952 0)
(732.372 941.04 0)
(763.756 993.775 0)
(548.811 1075.43 0)
(144.112 1140.08 0)
(-320.042 1208.96 0)
(-705.962 1333.98 0)
(-852.302 1376.1 0)
(-837.583 1322.46 0)
(-842.851 1218.26 0)
(-829.555 1023.06 0)
(-652.758 678.155 0)
(-370.602 257.808 0)
(-155.878 -57.8424 0)
(-43.0117 -207.745 0)
(-3.79393 -267.648 0)
(-10.9626 -274.899 0)
(-28.1714 -276.242 0)
(-39.074 -287.56 0)
(-39.6309 -302.97 0)
(-11.8144 -315.299 0)
(81.0696 -276.7 0)
(274.951 -166.307 0)
(536.168 113.889 0)
(594.468 347.625 0)
(327.233 363.525 0)
(76.5228 312.131 0)
(-14.1997 332.033 0)
(-60.1523 376.633 0)
(-116.267 350.001 0)
(-196.824 322.761 0)
(-263.718 275.24 0)
(-382.733 23.3526 0)
(-45.7775 18.4044 0)
(421.805 219.46 0)
(344.179 348.678 0)
(470.059 426.561 0)
(504.046 456.832 0)
(556.353 479.077 0)
(574.655 546.89 0)
(633.045 587.591 0)
(733.172 569.268 0)
(789.386 511.22 0)
(588.228 479.981 0)
(161.435 482.834 0)
(-248.153 528.744 0)
(-565.476 706.294 0)
(-738.257 900.777 0)
(-790.595 1035.48 0)
(-847.994 1117.52 0)
(-951.896 1183.49 0)
(-1001.58 1152.45 0)
(-830.29 860.197 0)
(-477.69 375.376 0)
(-197.082 -20.0132 0)
(-63.7886 -198.077 0)
(-20.7765 -260.079 0)
(-33.9262 -271.684 0)
(-50.4156 -281.248 0)
(-50.3175 -289.697 0)
(11.1031 -288.185 0)
(162.315 -243.276 0)
(490.897 -77.902 0)
(778.963 217.242 0)
(642.166 304.341 0)
(266.482 213.481 0)
(63.67 193.576 0)
(22.334 220.381 0)
(-52.0469 260.198 0)
(-145.197 250.346 0)
(-218.194 230.549 0)
(-312.3 212.943 0)
(-396.612 152.279 0)
(-221.711 147.692 0)
(687.976 112.876 0)
(436.007 239.678 0)
(472.86 239.096 0)
(485.657 183.567 0)
(562.624 100.869 0)
(595.501 72.6794 0)
(618.366 71.6031 0)
(658.778 69.2357 0)
(677.716 1.9766 0)
(521.457 -121.569 0)
(191.101 -130.3 0)
(-104.708 -57.5146 0)
(-347.458 128.798 0)
(-535.086 350.907 0)
(-628.717 585.543 0)
(-700.224 795.456 0)
(-795.898 984.61 0)
(-964.293 1157.58 0)
(-1119.42 1214.65 0)
(-1004.08 973.234 0)
(-595.612 449.325 0)
(-235.13 -8.08 0)
(-81.8933 -204.055 0)
(-48.5709 -259.757 0)
(-56.4323 -274.21 0)
(-46.3156 -275.902 0)
(32.9189 -257.631 0)
(283.706 -220.475 0)
(718.722 36.1274 0)
(904.512 243.244 0)
(590.844 210.196 0)
(220.495 115.88 0)
(83.1725 142.04 0)
(49.9997 160.437 0)
(-31.2772 172.794 0)
(-144.837 172.162 0)
(-232.867 169.094 0)
(-339.142 140.727 0)
(-445.612 108.29 0)
(-334.84 50.6904 0)
(761.54 -142.067 0)
(465.809 -165.511 0)
(415.988 -201.76 0)
(370.846 -210.366 0)
(449.498 -306.449 0)
(546.453 -418.339 0)
(629.727 -482.425 0)
(666.077 -516.535 0)
(605.519 -570.649 0)
(460.762 -645.185 0)
(223.16 -663.221 0)
(1.52404 -600.958 0)
(-171.906 -419.103 0)
(-298.121 -146.021 0)
(-362.212 130.194 0)
(-463.439 464.393 0)
(-602.936 720.875 0)
(-779.902 892.485 0)
(-1007.94 1060.58 0)
(-1215.18 1197.78 0)
(-1142.71 1019.55 0)
(-693.409 454.059 0)
(-263.302 -41.2919 0)
(-101.531 -229.854 0)
(-65.9734 -272.689 0)
(-34.3406 -273.053 0)
(64.5147 -255.301 0)
(445.391 -190.709 0)
(937.754 97.8904 0)
(946.702 221.134 0)
(519.434 143.716 0)
(200.805 76.9861 0)
(106.607 98.1271 0)
(51.9695 102.512 0)
(-40.7484 74.7322 0)
(-148.763 58.7595 0)
(-248.486 69.3986 0)
(-370.892 68.6787 0)
(-483.375 69.2396 0)
(-374.91 19.8761 0)
(391.583 -303.876 0)
(378.485 -636.995 0)
(429.636 -895.471 0)
(384.774 -1042.88 0)
(362.214 -1218.63 0)
(425.925 -1419.86 0)
(523.742 -1591.96 0)
(573.763 -1762.66 0)
(553.743 -1941.91 0)
(432.25 -2052.23 0)
(233.721 -2049.59 0)
(130.534 -1831.04 0)
(90.9355 -1440.86 0)
(-5.76421 -844.988 0)
(-40.499 -340.837 0)
(-131.023 88.2194 0)
(-383.374 355.157 0)
(-636.937 545.017 0)
(-825.226 749.85 0)
(-1043.62 1012.3 0)
(-1312.29 1177.77 0)
(-1257.4 978.374 0)
(-740.937 374.746 0)
(-271.553 -117.481 0)
(-98.0611 -266.203 0)
(-29.56 -281.469 0)
(112.268 -277.507 0)
(624.054 -173.496 0)
(1115.59 94.4447 0)
(948.671 142.218 0)
(451.938 53.8669 0)