/*--------------------------------*- C++ -*----------------------------------*\
| =========                 |                                                 |
| \\      /  F ield         | OpenFOAM: The Open Source CFD Toolbox           |
|  \\    /   O peration     | Version:  v1912                                 |
|   \\  /    A nd           | Website:  www.openfoam.com                      |
|    \\/     M anipulation  |                                                 |
\*---------------------------------------------------------------------------*/
FoamFile
{
    version     2.0;
    format      ascii;
    class       volVectorField;
    location    "4.56";
    object      grad(p);
}
// * * * * * * * * * * * * * * * * * * * * * * * * * * * * * * * * * * * * * //

dimensions      [1 -2 -2 0 0 0 0];


internalField   nonuniform List<vector> 
1900
(
(134207 -0.417314 0)
(-117490 -0.226768 0)
(-9566.47 0.0787182 0)
(-1194.54 -0.43343 0)
(-1410.28 1.72105 0)
(-1467.44 7.1408 0)
(-1639.25 14.324 0)
(-1763.52 16.758 0)
(-1920.06 -84.072 0)
(-1490.4 -181.349 0)
(134206 -0.673113 0)
(-117489 -0.354888 0)
(-9566.68 0.153743 0)
(-1192.9 -0.364132 0)
(-1402.71 1.92376 0)
(-1454.83 7.12219 0)
(-1629.63 11.2186 0)
(-1861.91 -1.63853 0)
(-2118.16 -128.065 0)
(-2251.33 -228.569 0)
(134206 5.47118e-09 0)
(-117489 -1.93623e-09 0)
(-9566.48 -4.81393e-09 0)
(-1192.77 -2.4869e-10 0)
(-1402.8 1.52767e-09 0)
(-1458.14 1.33227e-09 0)
(-1648.01 -1.82965e-09 0)
(-1902.8 -1.38556e-09 0)
(-2146.99 -2.82441e-09 0)
(-2233.6 -1.68754e-09 0)
(134206 0.673113 0)
(-117489 0.354888 0)
(-9566.68 -0.153743 0)
(-1192.9 0.364132 0)
(-1402.71 -1.92376 0)
(-1454.83 -7.12219 0)
(-1629.63 -11.2186 0)
(-1861.91 1.63853 0)
(-2118.16 128.065 0)
(-2251.33 228.569 0)
(134207 0.417314 0)
(-117490 0.226768 0)
(-9566.47 -0.0787182 0)
(-1194.54 0.43343 0)
(-1410.28 -1.72105 0)
(-1467.44 -7.1408 0)
(-1639.25 -14.324 0)
(-1763.52 -16.758 0)
(-1920.06 84.072 0)
(-1490.4 181.349 0)
(-1609.74 -767.939 9.49695e-12)
(-2607.71 -900.85 -1.11143e-11)
(-2942.56 -1144.47 -1.38169e-11)
(-1636.3 -1400.66 0)
(-7941.79 -7505.94 -5.81472e-11)
(-2271.43 -801.234 9.35819e-12)
(-2565.11 -951.698 1.11143e-11)
(-2819.24 -1294.08 1.38169e-11)
(-3678.45 -1495.62 0)
(-7704.89 -6534.15 0)
(-2564.63 -1.52857e-09 0)
(-3012.24 -4.67462e-10 0)
(-3276.8 -7.6482e-10 0)
(-3674.58 -5.04647e-10 0)
(-10421.6 -1.74464e-09 0)
(-2271.43 801.234 9.35819e-12)
(-2565.11 951.698 1.11143e-11)
(-2819.24 1294.08 1.38169e-11)
(-3678.45 1495.62 0)
(-7704.89 6534.15 0)
(-1609.74 767.939 -2.82133e-11)
(-2607.71 900.85 -1.11143e-11)
(-2942.56 1144.47 -1.38169e-11)
(-1636.3 1400.66 -3.69765e-11)
(-7941.79 7505.94 5.81472e-11)
(-16391.5 5623.01 1.87343e-11)
(-6637.13 1972.42 -1.43572e-11)
(-6760.18 960.968 0)
(-6931.54 623.991 8.77707e-12)
(-8139.48 343.287 -3.41427e-12)
(-13290.7 5920.47 -9.45182e-12)
(-7676.54 1362.99 7.20832e-12)
(-7095.1 595.015 0)
(-7112.18 398.399 -5.50042e-12)
(-8440.82 293.565 8.58362e-13)
(-14167.1 4.93432e-10 0)
(-8000.81 2.65694e-10 0)
(-7077.22 -2.96059e-10 0)
(-7056.73 1.16102e-09 2.20497e-12)
(-8287.57 -2.64895e-09 -1.71672e-12)
(-13290.7 -5920.47 -9.45182e-12)
(-7676.54 -1362.99 7.20832e-12)
(-7095.1 -595.015 0)
(-7112.18 -398.399 -5.50042e-12)
(-8440.82 -293.565 8.58362e-13)
(-16391.5 -5623.01 9.45182e-12)
(-6637.13 -1972.42 -5.9403e-14)
(-6760.18 -960.968 0)
(-6931.54 -623.991 1.87926e-14)
(-8139.48 -343.287 3.41427e-12)
(-9265.62 1441.08 0)
(-3777.21 2078.97 0)
(1615.1 1661.81 0)
(221.088 1539.54 0)
(-1126.11 812.914 0)
(-1124.1 311.431 0)
(-1023.41 152.018 0)
(-1046.57 107.05 0)
(-980.555 62.0423 0)
(-781.925 45.0712 0)
(-506.965 10.7431 0)
(-296.944 3.49936 0)
(-202.331 3.10659 0)
(-160.773 3.13593 0)
(-134.741 2.53283 0)
(-112.31 1.79039 0)
(-92.6428 1.2151 0)
(-75.9611 0.844107 0)
(-62.6125 0.610206 0)
(-51.3632 0.455003 0)
(-41.0179 0.325299 0)
(-32.6063 0.219342 0)
(-25.0725 0.146017 0)
(-17.809 0.0949092 0)
(-11.4387 0.0778067 0)
(-5.97135 0.0969661 0)
(-1.72529 0.150286 0)
(0.983369 0.144836 0)
(4.21672 0.187041 0)
(7.64059 0.00776768 0)
(19.2859 0.0431203 0)
(34.033 0.229886 0)
(58.7989 0.451349 0)
(77.6346 2.38876 0)
(96.3532 2.72871 0)
(110.847 5.786 0)
(106.974 3.17752 0)
(857.118 10.6865 0)
(16262.8 -9.50803 0)
(-19617.1 -1473.18 0)
(-9178.47 13.0075 0)
(-3614.03 2762.37 0)
(1547.45 2218.15 0)
(234.712 1342.84 0)
(-1241.14 615.36 0)
(-1212.21 176.406 0)
(-1049.23 71.4834 0)
(-1057.99 50.6219 0)
(-987.317 16.943 0)
(-784.567 15.01 0)
(-510.353 3.16286 0)
(-297.476 0.508573 0)
(-202.272 0.443837 0)
(-160.746 0.669698 0)
(-134.814 0.541891 0)
(-112.391 0.316481 0)
(-92.6962 0.166126 0)
(-75.9933 0.083978 0)
(-62.634 0.0322465 0)
(-51.3824 -0.00732996 0)
(-41.0392 -0.0554786 0)
(-32.628 -0.110884 0)
(-25.0945 -0.166983 0)
(-17.8305 -0.229571 0)
(-11.4565 -0.283597 0)
(-5.9839 -0.321306 0)
(-1.74002 -0.34147 0)
(0.967617 -0.373868 0)
(4.18539 -0.380262 0)
(7.61007 -0.432803 0)
(19.2901 -0.351193 0)
(34.0571 -0.118859 0)
(59.0244 0.345455 0)
(77.9301 2.03395 0)
(96.8231 3.82863 0)
(111.145 7.95731 0)
(107.59 11.5058 0)
(856.95 20.4781 0)
(16272.2 17.4636 0)
(-19628.1 939.917 0)
(-8559.95 8.84949e-09 0)
(-3135.71 1.90474e-08 0)
(1202.14 2.21237e-08 0)
(-245.177 1.39363e-08 0)
(-1465.44 5.89427e-10 0)
(-1282.32 6.5483e-09 0)
(-1060 -1.05532e-08 0)
(-1062.43 -2.58218e-08 0)
(-990.915 -6.11228e-09 0)
(-785.934 -2.54261e-08 0)
(-511.184 -1.33792e-08 0)
(-297.735 2.93503e-09 0)
(-202.284 2.59994e-09 0)
(-160.744 1.48972e-09 0)
(-134.844 2.01859e-09 0)
(-112.419 2.85428e-09 0)
(-92.7104 1.8894e-09 0)
(-76.0001 -6.37874e-10 0)
(-62.6391 -1.06985e-09 0)
(-51.3887 3.54464e-09 0)
(-41.048 1.20025e-08 0)
(-32.6387 2.21964e-08 0)
(-25.107 2.54302e-08 0)
(-17.8429 2.01172e-08 0)
(-11.4654 1.15907e-08 0)
(-5.98819 7.52933e-09 0)
(-1.74058 2.7695e-09 0)
(0.972084 9.52773e-10 0)
(4.19958 -9.92338e-09 0)
(7.64905 5.35329e-09 0)
(19.3772 1.2709e-08 0)
(34.2356 2.40575e-08 0)
(59.4252 6.73522e-08 0)
(78.6479 6.39206e-08 0)
(98.0764 8.22453e-08 0)
(113.081 1.02342e-07 0)
(110.616 9.29438e-08 0)
(858.852 1.18939e-07 0)
(16530.3 2.39162e-08 0)
(-19895.6 3.01464e-07 0)
(-9178.47 -13.0075 0)
(-3614.03 -2762.37 0)
(1547.45 -2218.15 0)
(234.712 -1342.84 0)
(-1241.14 -615.36 0)
(-1212.21 -176.406 0)
(-1049.23 -71.4834 0)
(-1057.99 -50.6219 0)
(-987.317 -16.943 0)
(-784.567 -15.01 0)
(-510.353 -3.16286 0)
(-297.476 -0.508573 0)
(-202.272 -0.443837 0)
(-160.746 -0.669698 0)
(-134.814 -0.541891 0)
(-112.391 -0.316481 0)
(-92.6962 -0.166126 0)
(-75.9933 -0.083978 0)
(-62.634 -0.0322465 0)
(-51.3824 0.00732994 0)
(-41.0392 0.0554786 0)
(-32.628 0.110884 0)
(-25.0945 0.166983 0)
(-17.8305 0.229571 0)
(-11.4565 0.283597 0)
(-5.9839 0.321306 0)
(-1.74002 0.34147 0)
(0.967617 0.373868 0)
(4.18539 0.380262 0)
(7.61007 0.432803 0)
(19.2901 0.351193 0)
(34.0571 0.118859 0)
(59.0244 -0.345456 0)
(77.9301 -2.03395 0)
(96.8231 -3.82863 0)
(111.145 -7.95731 0)
(107.59 -11.5058 0)
(856.95 -20.4781 0)
(16272.2 -17.4636 0)
(-19628.1 -939.917 0)
(-9265.62 -1441.08 0)
(-3777.21 -2078.97 0)
(1615.1 -1661.81 0)
(221.088 -1539.54 0)
(-1126.11 -812.914 0)
(-1124.1 -311.431 0)
(-1023.41 -152.018 0)
(-1046.57 -107.05 0)
(-980.555 -62.0423 0)
(-781.925 -45.0712 0)
(-506.965 -10.7431 0)
(-296.944 -3.49936 0)
(-202.331 -3.10659 0)
(-160.773 -3.13593 0)
(-134.741 -2.53283 0)
(-112.31 -1.79039 0)
(-92.6428 -1.2151 0)
(-75.9611 -0.844107 0)
(-62.6125 -0.610206 0)
(-51.3632 -0.455003 0)
(-41.0179 -0.325299 0)
(-32.6063 -0.219342 0)
(-25.0725 -0.146017 0)
(-17.809 -0.0949093 0)
(-11.4387 -0.0778067 0)
(-5.97135 -0.0969661 0)
(-1.72529 -0.150286 0)
(0.983369 -0.144836 0)
(4.21672 -0.187041 0)
(7.64059 -0.00776783 0)
(19.2859 -0.0431205 0)
(34.033 -0.229887 0)
(58.7989 -0.451349 0)
(77.6346 -2.38876 0)
(96.3532 -2.72871 0)
(110.847 -5.786 0)
(106.974 -3.17752 0)
(857.118 -10.6865 0)
(16262.8 9.50803 0)
(-19617.1 1473.18 0)
(9940.36 -1296.89 0)
(-3563.82 -2285.17 0)
(1807.6 -2143.64 0)
(782.956 -1876.77 0)
(-603.785 -1044.1 0)
(-899.521 -508.661 0)
(-950.881 -293.196 0)
(-1014.75 -199.255 0)
(-956.257 -135.654 0)
(-755.442 -78.4152 0)
(-488.193 -24.9497 0)
(-293.302 -9.4504 0)
(-201.976 -7.44645 0)
(-160.356 -6.77997 0)
(-134.054 -5.42656 0)
(-111.658 -3.95564 0)
(-92.1645 -2.81163 0)
(-75.6511 -2.067 0)
(-62.4147 -1.59634 0)
(-51.226 -1.28659 0)
(-40.916 -1.04392 0)
(-32.5406 -0.860124 0)
(-25.0419 -0.747002 0)
(-17.8125 -0.691267 0)
(-11.4784 -0.712483 0)
(-6.04388 -0.801857 0)
(-1.78709 -0.942292 0)
(0.926348 -0.985113 0)
(4.23514 -1.08201 0)
(7.66505 -0.831829 0)
(19.1557 -0.886863 0)
(33.8289 -1.17128 0)
(57.9308 -1.65269 0)
(76.8432 -4.34332 0)
(95.2355 -4.86085 0)
(111.208 -8.75341 0)
(105.228 -5.33474 0)
(864.712 -15.5697 0)
(17214 -25.3081 0)
(-20570.8 293.124 0)
(9401.36 1379.4 0)
(-4707.59 -1232.35 0)
(1905.42 -1153.67 0)
(979.361 -1457.25 0)
(-87.8443 -1030.33 0)
(-520.932 -647.222 0)
(-764.151 -440.488 0)
(-911.817 -295.161 0)
(-877.139 -199.188 0)
(-689.447 -108.281 0)
(-450.574 -41.3271 0)
(-282.03 -17.7926 0)
(-199.948 -12.201 0)
(-159.05 -10.117 0)
(-132.388 -7.80532 0)
(-110.139 -5.57502 0)
(-91.0793 -3.88968 0)
(-74.9563 -2.78924 0)
(-61.9666 -2.07836 0)
(-50.9044 -1.59834 0)
(-40.6615 -1.20333 0)
(-32.3554 -0.880539 0)
(-24.9262 -0.673414 0)
(-17.7739 -0.566717 0)
(-11.5241 -0.591986 0)
(-6.15391 -0.730431 0)
(-1.86874 -0.947019 0)
(0.879308 -0.992318 0)
(4.35456 -1.10844 0)
(7.81552 -0.699438 0)
(19.0286 -0.702092 0)
(33.4044 -1.10868 0)
(56.2078 -1.95422 0)
(74.9675 -5.58883 0)
(92.7028 -6.79797 0)
(110.198 -12.0087 0)
(101.342 -10.5631 0)
(833.8 -21.8412 0)
(16050.2 -74.9089 0)
(-19363.8 -1523.19 0)
(10082.1 1866.89 0)
(-6004.78 -313.883 0)
(1590.88 -622.231 0)
(901.814 -1003.68 0)
(176.783 -796.036 0)
(-331.126 -627.499 0)
(-611.622 -498.46 0)
(-782.225 -354.373 0)
(-776.173 -244.65 0)
(-603.322 -130.67 0)
(-400.996 -57.1424 0)
(-265.235 -27.7331 0)
(-194.579 -18.0947 0)
(-156.12 -13.7525 0)
(-129.677 -10.0966 0)
(-107.884 -6.99715 0)
(-89.48 -4.73176 0)
(-73.9057 -3.22887 0)
(-61.2671 -2.22131 0)
(-50.3828 -1.51176 0)
(-40.2243 -0.899689 0)
(-32.0299 -0.425822 0)
(-24.7395 -0.14329 0)
(-17.7341 -0.0170004 0)
(-11.6361 -0.0836902 0)
(-6.386 -0.307998 0)
(-2.03945 -0.645074 0)
(0.7708 -0.702249 0)
(4.51737 -0.879357 0)
(8.05662 -0.302801 0)
(18.7614 -0.257527 0)
(32.6223 -0.855468 0)
(53.6136 -2.10294 0)
(72.1756 -6.76538 0)
(89.0491 -8.45253 0)
(107.579 -14.5993 0)
(95.7535 -15.2283 0)
(802.706 -23.3092 0)
(15767.2 -53.8557 0)
(-19030.8 -652.426 0)
(10897.9 1772.09 0)
(-7106.21 -57.9598 0)
(1240.7 -372.743 0)
(811.876 -662.391 0)
(274.659 -626.035 0)
(-234.177 -579.604 0)
(-500.958 -493.801 0)
(-667.236 -380.005 0)
(-661.57 -257.952 0)
(-508.758 -138.177 0)
(-351.381 -66.8815 0)
(-244.403 -35.6634 0)
(-186.476 -23.1726 0)
(-151.343 -16.5803 0)
(-125.878 -11.5614 0)
(-104.97 -7.68752 0)
(-87.448 -4.94798 0)
(-72.5371 -3.09572 0)
(-60.3119 -1.79495 0)
(-49.6308 -0.8364 0)
(-39.6151 -0.0402498 0)
(-31.6265 0.542401 0)
(-24.5323 0.870876 0)
(-17.7164 0.99803 0)
(-11.8045 0.877073 0)
(-6.69488 0.57704 0)
(-2.24865 0.154641 0)
(0.653545 0.125627 0)
(4.73948 -0.0777733 0)
(8.41474 0.589301 0)
(18.496 0.664921 0)
(31.6261 -0.12236 0)
(50.5128 -1.66744 0)
(68.8488 -7.01301 0)
(85.1538 -9.31025 0)
(103.668 -15.7122 0)
(92.9485 -19.1521 0)
(796.577 -20.3282 0)
(15444 -41.6984 0)
(-18683.2 -690.667 0)
(11733.9 1611.56 0)
(-8071.62 -46.2344 0)
(1008.43 -245.736 0)
(657.733 -457.515 0)
(256.559 -505.889 0)
(-203.701 -524.637 0)
(-419.28 -466.53 0)
(-554.953 -370.912 0)
(-543.139 -240.999 0)
(-419.199 -134.878 0)
(-302.21 -69.3602 0)
(-223.115 -40.1241 0)
(-176.19 -26.2465 0)
(-144.931 -18.0887 0)
(-121.108 -12.1212 0)
(-101.511 -7.76386 0)
(-85.0551 -4.7262 0)
(-70.8673 -2.60536 0)
(-59.09 -1.03977 0)
(-48.6919 0.138275 0)
(-38.8956 1.09623 0)
(-31.152 1.82095 0)
(-24.3004 2.2295 0)
(-17.7281 2.38449 0)
(-12.0418 2.24139 0)
(-7.08217 1.9302 0)
(-2.47445 1.54081 0)
(0.546837 1.7011 0)
(4.96419 1.67063 0)
(8.77231 2.64542 0)
(18.0756 2.97724 0)
(30.3747 2.24833 0)
(46.9735 0.875048 0)
(64.8107 -4.21767 0)
(80.6662 -6.38918 0)
(98.0954 -12.0732 0)
(91.3054 -16.301 0)
(780.979 -11.7542 0)
(15121.3 -38.2415 0)
(-18325.1 -800.887 0)
(12406.3 2125.63 0)
(-8895.97 -53.8727 0)
(844.38 -230.329 0)
(561.184 -358.491 0)
(209.978 -443.078 0)
(-196.249 -471.521 0)
(-352.824 -425.579 0)
(-449.907 -335.867 0)
(-434.118 -215.789 0)
(-343.36 -124.364 0)
(-260.073 -69.739 0)
(-202.857 -42.6552 0)
(-165.242 -28.1791 0)
(-137.731 -18.9866 0)
(-115.929 -12.4784 0)
(-97.8436 -7.88187 0)
(-82.4771 -4.66229 0)
(-68.9847 -2.31878 0)
(-57.668 -0.506637 0)
(-47.5725 0.910203 0)
(-37.9936 2.09309 0)
(-30.5344 2.97869 0)
(-23.9892 3.47765 0)
(-17.705 3.67629 0)
(-12.2422 3.53398 0)
(-7.36998 3.2458 0)
(-2.46942 2.89678 0)
(0.77864 3.2843 0)
(5.64946 3.375 0)
(9.67383 4.48621 0)
(18.1134 4.81975 0)
(29.6004 3.79312 0)
(44.2819 1.96689 0)
(61.8487 -3.045 0)
(77.5839 -5.45526 0)
(94.1169 -10.251 0)
(93.2559 -14.9305 0)
(775.434 -5.22494 0)
(14683.5 -33.8904 0)
(-17874.6 -868.508 0)
(13730.3 817.384 0)
(-10341.9 -80.6433 0)
(714.891 -205.505 0)
(452.721 -318.783 0)
(147.64 -413.904 0)
(-186.839 -422.254 0)
(-288.56 -373.675 0)
(-352.792 -285.458 0)
(-339.327 -183.646 0)
(-278.46 -107.899 0)
(-223.472 -63.9917 0)
(-183.066 -40.3945 0)
(-153.382 -26.706 0)
(-129.801 -17.8218 0)
(-110.407 -11.7779 0)
(-93.9795 -7.59283 0)
(-79.6944 -4.59265 0)
(-66.8628 -2.2663 0)
(-55.9784 -0.306228 0)
(-46.1867 1.30924 0)
(-36.9023 2.68994 0)
(-29.8177 3.77155 0)
(-23.6282 4.46874 0)
(-17.6738 4.89066 0)
(-12.4567 5.01676 0)
(-7.69619 5.17941 0)
(-2.43735 5.29438 0)
(1.00766 6.37084 0)
(6.12239 7.14651 0)
(10.1645 8.93362 0)
(17.4077 9.73683 0)
(27.6256 8.91239 0)
(40.384 6.95975 0)
(57.6584 1.60205 0)
(73.7222 -1.84179 0)
(88.9648 -6.19569 0)
(96.1487 -11.1041 0)
(762.709 -1.52272 0)
(14289.4 -48.2531 0)
(-17455.5 -943.553 0)
(13116.3 -647.447 0)
(-9881.66 -102.768 0)
(614.9 -198.595 0)
(360.363 -294.328 0)
(110.269 -382.816 0)
(-157.483 -363.73 0)
(-221.002 -312.552 0)
(-266.788 -234.22 0)
(-263.016 -153.301 0)
(-228.057 -93.9639 0)
(-195.023 -59.078 0)
(-166.927 -38.5427 0)
(-143.49 -25.8885 0)
(-123.346 -17.6401 0)
(-106.072 -12.1942 0)
(-90.9196 -8.3787 0)
(-77.3443 -5.49797 0)
(-64.8542 -3.08874 0)
(-54.2225 -0.97822 0)
(-44.6853 0.740796 0)
(-35.6208 2.31582 0)
(-28.8203 3.64074 0)
(-22.9108 4.54834 0)
(-17.1769 5.16986 0)
(-11.964 5.52004 0)
(-7.10246 6.06985 0)
(-1.32131 6.50101 0)
(2.56341 8.02373 0)
(8.11905 9.27498 0)
(12.17 11.338 0)
(18.0929 12.1967 0)
(26.9243 11.3873 0)
(37.2374 9.33987 0)
(53.3672 3.77756 0)
(70.0698 -0.931917 0)
(85.1914 -4.84627 0)
(97.7589 -9.70923 0)
(739.636 -0.874436 0)
(13775.7 -58.0252 0)
(-16918.9 -996.443 0)
(13007.4 -364.587 0)
(-9909.38 -96.8028 0)
(530.297 -186.026 0)
(275.199 -265.306 0)
(80.7609 -348.006 0)
(-119.129 -309.065 0)
(-163.759 -259.411 0)
(-199.332 -193.783 0)
(-204.17 -130.15 0)
(-187.663 -82.965 0)
(-170.066 -53.7277 0)
(-151.084 -34.6774 0)
(-133.24 -22.6186 0)
(-116.605 -14.846 0)
(-101.482 -9.84264 0)
(-87.5267 -6.38553 0)
(-74.5968 -3.76766 0)
(-62.5074 -1.52527 0)
(-52.2881 0.416698 0)
(-43.0125 2.07726 0)
(-34.1078 3.78294 0)
(-27.6664 5.35569 0)
(-22.1547 6.56926 0)
(-16.7375 7.55945 0)
(-11.5894 8.33883 0)
(-6.7509 9.37578 0)
(-0.554519 10.0136 0)
(3.68076 11.7155 0)
(9.31614 12.8334 0)
(12.98 14.3845 0)
(17.4552 14.4781 0)
(24.8727 12.7625 0)
(33.051 9.38317 0)
(47.7602 3.36162 0)
(65.412 -2.3183 0)
(80.5067 -5.35073 0)
(99.9761 -9.28965 0)
(716.15 -0.6086 0)
(13330 -89.3275 0)
(-16439.4 -1102.58 0)
(12671.6 -643.936 0)
(-9709.59 -93.3337 0)
(452.524 -172.289 0)
(204.274 -237.697 0)
(68.1018 -301.537 0)
(-72.1099 -256.441 0)
(-109.912 -212.998 0)
(-142.228 -159.393 0)
(-156.228 -109.922 0)
(-154.414 -72.2621 0)
(-148.491 -47.606 0)
(-136.949 -29.9997 0)
(-124.38 -18.7316 0)
(-111.035 -11.1601 0)
(-97.9193 -6.58754 0)
(-85.0656 -3.4634 0)
(-72.6608 -1.11162 0)
(-60.822 0.934401 0)
(-50.751 2.86141 0)
(-41.4414 4.61379 0)
(-32.4616 6.39585 0)
(-26.1353 8.08263 0)
(-20.7872 9.41919 0)
(-15.4716 10.5696 0)
(-10.2137 11.5026 0)
(-5.48863 12.6739 0)
(0.933339 13.1957 0)
(5.28073 14.8403 0)
(10.691 15.4621 0)
(13.7548 16.3685 0)
(16.5299 15.5286 0)
(22.0146 12.7694 0)
(28.1784 7.38399 0)
(42.0913 -0.253467 0)
(61.6742 -8.75038 0)
(78.4735 -11.4087 0)
(102.329 -13.6085 0)
(662.509 -5.07605 0)
(12713.8 -127.57 0)
(-15770.3 -1256.32 0)
(12296.9 -792.524 0)
(-9454.88 -95.2496 0)
(391.184 -159.683 0)
(150.65 -208.69 0)
(62.6982 -248.976 0)
(-33.8098 -210.177 0)
(-70.2406 -173.561 0)
(-100.004 -131.46 0)
(-120.208 -93.578 0)
(-127.612 -62.9724 0)
(-129.341 -41.5448 0)
(-123.259 -24.1079 0)
(-115.085 -12.657 0)
(-104.902 -4.50199 0)
(-94.0652 0.814852 0)
(-82.2499 4.96148 0)
(-70.3589 8.36685 0)
(-58.6788 11.3956 0)
(-48.7425 14.2317 0)
(-39.6065 16.5745 0)
(-30.7651 18.6504 0)
(-24.753 20.321 0)
(-19.7581 21.303 0)
(-14.7299 21.8566 0)
(-9.56163 21.8601 0)
(-5.11936 21.8802 0)
(1.53304 21.0982 0)
(5.8648 21.5095 0)
(10.7888 20.5878 0)
(13.0441 19.7093 0)
(13.987 17.0921 0)
(17.0242 13.0057 0)
(20.5017 5.53534 0)
(32.2125 -3.64018 0)
(54.6624 -16.0474 0)
(75.8252 -20.2376 0)
(106.078 -22.8838 0)
(606.332 -21.7571 0)
(12124.3 -203.402 0)
(-15105.8 -1406.89 0)
(11816.2 -997.879 0)
(-9099.76 -100.682 0)
(343.209 -150.924 0)
(118.228 -182.382 0)
(66.6689 -196.293 0)
(0.562228 -172.274 0)
(-34.0576 -136.945 0)
(-65.1531 -107.252 0)
(-90.2308 -76.8456 0)
(-104.273 -49.4069 0)
(-111.04 -28.993 0)
(-109.112 -11.3425 0)
(-105.487 -0.845897 0)
(-98.0526 7.11094 0)
(-88.7999 12.986 0)
(-77.7882 18.0472 0)
(-66.4606 22.4194 0)
(-55.1704 26.3179 0)
(-45.7604 29.7482 0)
(-37.1834 32.3699 0)
(-28.8513 34.5599 0)
(-23.5791 36.1894 0)
(-19.3074 36.9025 0)
(-14.9348 37 0)
(-10.1909 36.2556 0)
(-6.22283 35.4426 0)
(0.576127 33.6941 0)
(4.78891 33.1165 0)
(8.95623 31.11 0)
(10.3862 28.5555 0)
(10.07 23.6978 0)
(10.8782 17.631 0)
(12.1378 7.05821 0)
(21.2934 -5.25485 0)
(45.6803 -21.9108 0)
(71.8857 -29.2617 0)
(100.864 -30.3094 0)
(488.555 -37.6457 0)
(11379.1 -278.946 0)
(-14218.6 -1629.92 0)
(11238.3 -1158.94 0)
(-8638.73 -98.3255 0)
(312.455 -144.097 0)
(106.931 -165.217 0)
(72.4393 -159.412 0)
(23.3798 -146.766 0)
(-7.58377 -109.339 0)
(-42.0905 -87.3586 0)
(-64.4657 -59.5661 0)
(-81.4999 -34.104 0)
(-92.6607 -15.0945 0)
(-96.1358 2.21028 0)
(-97.3028 12.6091 0)
(-91.5735 22.0442 0)
(-83.5266 29.5341 0)
(-73.1596 36.5659 0)
(-62.3889 42.9807 0)
(-51.6166 48.8489 0)
(-42.9106 53.8604 0)
(-34.9698 57.3146 0)
(-27.0846 59.4751 0)
(-22.4956 60.3072 0)
(-18.977 59.6148 0)
(-15.3533 58.0403 0)
(-11.0624 55.4196 0)
(-7.58768 52.7366 0)
(-0.70846 49.0093 0)
(3.37465 46.7372 0)
(6.39368 43.0081 0)
(5.90148 38.2059 0)
(3.45969 30.5313 0)
(0.989651 22.9241 0)
(-1.55191 9.57425 0)
(4.29691 -5.82939 0)
(31.5285 -24.6704 0)
(67.732 -37.3334 0)
(97.9993 -39.8346 0)
(366.736 -58.3543 0)
(10589.9 -313.673 0)
(-13266.3 -1803.22 0)
(10604.6 -1337.86 0)
(-8121.83 -91.8592 0)
(278.75 -125.215 0)
(103.47 -133.784 0)
(84.4487 -121.516 0)
(48.8145 -112.224 0)
(23.1893 -76.3566 0)
(-17.1905 -54.4815 0)
(-38.9128 -32.4523 0)
(-61.4182 -10.4918 0)
(-76.046 7.4287 0)
(-82.4154 23.4568 0)
(-86.3742 31.9726 0)
(-81.7431 40.6395 0)
(-74.8063 47.2537 0)
(-64.8306 54.196 0)
(-54.6243 60.8542 0)
(-44.6863 67.1763 0)
(-37.6025 72.6374 0)
(-31.773 76.387 0)
(-25.9676 78.834 0)
(-23.4445 79.9136 0)
(-21.492 79.2699 0)
(-18.9775 77.6485 0)
(-15.3017 74.9308 0)
(-12.4 72.3102 0)
(-5.20512 68.2724 0)
(-0.994067 65.8061 0)
(0.735141 61.6114 0)
(-1.63692 56.5963 0)
(-4.65604 47.4227 0)
(-9.31676 38.8694 0)
(-15.5701 23.6491 0)
(-11.7059 5.36327 0)
(15.322 -14.8333 0)
(57.2728 -29.4869 0)
(80.6078 -30.8045 0)
(224.674 -54.82 0)
(9697.67 -287.648 0)
(-12178.6 -1966.05 0)
(9860.54 -1528.25 0)
(-7470.17 -54.147 0)
(272.055 -75.1153 0)
(110.496 -65.8807 0)
(93.2149 -68.7909 0)
(66.8971 -57.1999 0)
(48.0591 -29.0437 0)
(0.217341 -11.4258 0)
(-22.0757 3.13877 0)
(-43.0692 21.0684 0)
(-59.9465 33.1739 0)
(-72.4844 45.2607 0)
(-80.745 50.6625 0)
(-76.8481 58.5076 0)
(-70.463 64.9689 0)
(-60.0536 72.3535 0)
(-49.8806 79.6409 0)
(-40.2619 86.6362 0)
(-34.0348 92.6696 0)
(-28.9985 96.4955 0)
(-23.6862 98.5076 0)
(-22.0756 98.8111 0)
(-21.1597 97.1313 0)
(-19.5345 94.5821 0)
(-16.2066 91.1874 0)
(-14.004 88.5828 0)
(-6.97603 84.6541 0)
(-3.04408 82.39 0)
(-2.48123 79.1033 0)
(-7.77128 76.5736 0)
(-13.6225 70.0922 0)
(-21.9195 64.1637 0)
(-33.8397 53.3266 0)
(-32.7861 38.5461 0)
(-2.05441 22.0416 0)
(52.3416 7.42185 0)
(73.5875 7.67923 0)
(119.232 -6.33187 0)
(8748.15 -174.945 0)
(-11094.6 -2079.53 0)
(9079.76 -1253.69 0)
(-6721.54 49.2641 0)
(267.443 27.1617 0)
(109.564 38.0017 0)
(92.8139 7.08224 0)
(87.1164 20.1754 0)
(67.2989 32.6755 0)
(13.8217 32.9178 0)
(-7.60024 55.8177 0)
(-32.4752 62.0153 0)
(-52.7334 67.8945 0)
(-65.5628 72.7927 0)
(-73.609 74.9416 0)
(-67.9569 81.574 0)
(-61.464 87.7746 0)
(-50.6921 95.6959 0)
(-40.8609 103.143 0)
(-32.1313 109.147 0)
(-28.1017 113.809 0)
(-26.1473 117.066 0)
(-23.7362 119.861 0)
(-24.7707 121.409 0)
(-25.5672 120.205 0)
(-24.7052 117.031 0)
(-21.0829 111.691 0)
(-18.6957 107.555 0)
(-11.1727 101.822 0)
(-6.34303 98.4088 0)
(-4.86975 93.8621 0)
(-10.3204 92.3107 0)
(-16.6147 88.6417 0)
(-25.4727 85.5717 0)
(-40.2562 81.3081 0)
(-41.8533 72.3146 0)
(-14.6705 66.3436 0)
(43.4327 58.5306 0)
(67.3542 62.0369 0)
(48.6906 69.0688 0)
(7699.86 -20.3635 0)
(-10006.2 -1753.51 0)
(8699.91 -1045.24 0)
(-6235.9 169.052 0)
(261.202 142.533 0)
(91.1464 125.814 0)
(76.0369 84.0029 0)
(91.5597 98.3284 0)
(60.3382 90.8179 0)
(22.518 91.3549 0)
(5.96372 123.646 0)
(-31.4316 107.779 0)
(-49.5611 107.91 0)
(-65.6936 98.5512 0)
(-72.283 93.1304 0)
(-64.4817 90.6568 0)
(-56.8546 88.847 0)
(-45.2443 92.7782 0)
(-36.9186 98.9461 0)
(-29.9831 106.332 0)
(-26.4036 113.599 0)
(-23.1665 117.657 0)
(-19.5015 118.873 0)
(-21.7449 117.996 0)
(-25.3785 115.161 0)
(-27.7389 113.59 0)
(-25.3384 111.731 0)
(-23.5139 113.615 0)
(-15.7893 115.722 0)
(-10.7145 117.043 0)
(-8.35752 118.674 0)
(-12.8019 120.543 0)
(-20.1165 124.082 0)
(-28.9864 119.91 0)
(-46.6147 119.498 0)
(-47.2064 103.519 0)
(-15.3372 94.7531 0)
(48.1914 86.8163 0)
(83.7425 91.7947 0)
(39.8283 115.457 0)
(6991.84 107.523 0)
(-9385.22 -1639.91 0)
(8235.44 9056.08 0)
(-5576.96 932.057 0)
(225.777 359.195 0)
(53.1623 270.299 0)
(66.3278 282.57 0)
(93.6835 394.244 0)
(60.579 505.025 0)
(45.456 658.152 0)
(8.22639 779.731 0)
(-47.6394 846.768 0)
(-61.6254 902.209 0)
(-79.8046 922.746 0)
(-81.2164 942.71 0)
(-72.0845 945.759 0)
(-59.4197 948.505 0)
(-40.9602 944.831 0)
(-27.7996 945.412 0)
(-18.011 931.625 0)
(-17.1886 933.278 0)
(-21.0653 918.039 0)
(-23.4104 917.379 0)
(-28.3482 934.259 0)
(-29.8128 933.705 0)
(-28.0099 956.161 0)
(-21.0581 951.695 0)
(-14.85 958.591 0)
(-7.86942 951.214 0)
(-3.49856 933.388 0)
(-1.49698 915.349 0)
(-5.10892 868.284 0)
(-17.2245 828.032 0)
(-29.8904 725.943 0)
(-56.0519 627.092 0)
(-65.6979 459.347 0)
(-30.7655 320.637 0)
(40.5818 203.598 0)
(94.9534 141.755 0)
(63.8469 140.556 0)
(6008.32 699.758 0)
(-8529.49 7807.39 0)
(18324.8 168427 0)
(-14616.5 16891.8 0)
(-376.492 8028.9 0)
(17.3076 9029.93 0)
(195.475 9757.84 0)
(305.926 10802.3 0)
(314.649 11629.2 0)
(287.235 12516.2 0)
(187.721 13203.7 0)
(86.5922 13839.9 0)
(23.654 14410.1 0)
(-26.665 14870.2 0)
(-50.1066 15305.4 0)
(-58.8973 15691.9 0)
(-57.7492 16054.6 0)
(-48.2255 16361.3 0)
(-49.6442 16642.7 0)
(-41.6759 16891.5 0)
(-39.4957 16973 0)
(-38.487 17021.2 0)
(-3.87063 17009.3 0)
(-6.01248 16901.3 0)
(-4.2728 16842.2 0)
(-10.4029 16453.8 0)
(-22.9968 16169 0)
(-23.9776 15680.8 0)
(-40.0763 15255.6 0)
(-45.2755 14680.7 0)
(-71.094 14165.4 0)
(-96.9438 13449.6 0)
(-157.281 12788 0)
(-222.619 11930.5 0)
(-303.517 11071.8 0)
(-342.518 10097.9 0)
(-261.786 9106.95 0)
(-124.186 7998.78 0)
(22.9923 7271.18 0)
(577.541 6211.69 0)
(14379.9 14474.8 0)
(-17583 151671 0)
(186816 -192605 0)
(-160143 -20276.3 0)
(-7350.22 -11251.5 0)
(1719.23 -12258 0)
(1774.2 -13053.6 0)
(1896.98 -14302 0)
(1712.23 -15339.6 0)
(1562.74 -16405.4 0)
(1283.73 -17259.4 0)
(1114.9 -17932.3 0)
(931.275 -18506.2 0)
(782.916 -18923.3 0)
(710.523 -19291 0)
(649.829 -19608.6 0)
(585.719 -19904.2 0)
(525.811 -20156.5 0)
(483.101 -20399.8 0)
(300.231 -20606.4 0)
(107.762 -20668.1 0)
(13.9596 -20677.2 0)
(-138.933 -20642.7 0)
(-189.356 -20529 0)
(-461.007 -20440 0)
(-676.767 -20046.2 0)
(-765.976 -19726.9 0)
(-895.026 -19227.4 0)
(-971.626 -18773.2 0)
(-1054.07 -18177.5 0)
(-1187.84 -17632.3 0)
(-1332.4 -16871.1 0)
(-1481.05 -16149.1 0)
(-1683.71 -15170.9 0)
(-1822.05 -14170.8 0)
(-1959.08 -12965.2 0)
(-2053.54 -11782.3 0)
(-1728.43 -10562.5 0)
(-1627.15 -9859.81 0)
(7005.56 -8897.78 0)
(146178 -17729.1 0)
(-168633 -175514 0)
(186816 192605 0)
(-160143 20276.3 0)
(-7350.22 11251.5 0)
(1719.23 12258 0)
(1774.2 13053.6 0)
(1896.98 14302 0)
(1712.23 15339.6 0)
(1562.74 16405.4 0)
(1283.73 17259.4 0)
(1114.9 17932.3 0)
(931.275 18506.2 0)
(782.916 18923.3 0)
(710.523 19291 0)
(649.829 19608.6 0)
(585.719 19904.2 0)
(525.811 20156.5 0)
(483.101 20399.8 0)
(300.231 20606.4 0)
(107.762 20668.1 0)
(13.9597 20677.2 0)
(-138.933 20642.7 0)
(-189.356 20529 0)
(-461.007 20440 0)
(-676.767 20046.2 0)
(-765.976 19726.9 0)
(-895.026 19227.4 0)
(-971.626 18773.2 0)
(-1054.07 18177.5 0)
(-1187.84 17632.3 0)
(-1332.4 16871.1 0)
(-1481.05 16149.1 0)
(-1683.71 15170.9 0)
(-1822.05 14170.8 0)
(-1959.08 12965.2 0)
(-2053.54 11782.3 0)
(-1728.43 10562.5 0)
(-1627.15 9859.81 0)
(7005.56 8897.78 0)
(146178 17729.1 0)
(-168633 175514 0)
(18324.8 -168427 0)
(-14616.5 -16891.8 0)
(-376.492 -8028.9 0)
(17.3076 -9029.93 0)
(195.475 -9757.84 0)
(305.926 -10802.3 0)
(314.649 -11629.2 0)
(287.235 -12516.2 0)
(187.721 -13203.7 0)
(86.5922 -13839.9 0)
(23.654 -14410.1 0)
(-26.665 -14870.2 0)
(-50.1066 -15305.4 0)
(-58.8973 -15691.9 0)
(-57.7492 -16054.6 0)
(-48.2255 -16361.3 0)
(-49.6442 -16642.7 0)
(-41.6759 -16891.5 0)
(-39.4957 -16973 0)
(-38.487 -17021.2 0)
(-3.87063 -17009.3 0)
(-6.01248 -16901.3 0)
(-4.2728 -16842.2 0)
(-10.4029 -16453.8 0)
(-22.9968 -16169 0)
(-23.9776 -15680.8 0)
(-40.0763 -15255.6 0)
(-45.2755 -14680.7 0)
(-71.094 -14165.4 0)
(-96.9438 -13449.6 0)
(-157.281 -12788 0)
(-222.619 -11930.5 0)
(-303.517 -11071.8 0)
(-342.518 -10097.9 0)
(-261.786 -9106.95 0)
(-124.186 -7998.78 0)
(22.9923 -7271.18 0)
(577.541 -6211.69 0)
(14379.9 -14474.8 0)
(-17583 -151671 0)
(8235.44 -9056.08 0)
(-5576.96 -932.057 0)
(225.777 -359.195 0)
(53.1623 -270.299 0)
(66.3278 -282.57 0)
(93.6835 -394.244 0)
(60.579 -505.025 0)
(45.456 -658.152 0)
(8.22639 -779.731 0)
(-47.6394 -846.768 0)
(-61.6254 -902.209 0)
(-79.8046 -922.746 0)
(-81.2164 -942.71 0)
(-72.0845 -945.759 0)
(-59.4197 -948.505 0)
(-40.9602 -944.831 0)
(-27.7996 -945.412 0)
(-18.011 -931.625 0)
(-17.1886 -933.278 0)
(-21.0653 -918.039 0)
(-23.4104 -917.379 0)
(-28.3482 -934.259 0)
(-29.8128 -933.705 0)
(-28.0099 -956.161 0)
(-21.0581 -951.695 0)
(-14.85 -958.591 0)
(-7.86942 -951.214 0)
(-3.49856 -933.388 0)
(-1.49698 -915.349 0)
(-5.10892 -868.284 0)
(-17.2245 -828.032 0)
(-29.8904 -725.943 0)
(-56.0519 -627.092 0)
(-65.6979 -459.347 0)
(-30.7655 -320.637 0)
(40.5818 -203.598 0)
(94.9534 -141.755 0)
(63.8469 -140.556 0)
(6008.32 -699.758 0)
(-8529.49 -7807.39 0)
(8699.91 1045.24 0)
(-6235.9 -169.052 0)
(261.202 -142.533 0)
(91.1464 -125.814 0)
(76.0369 -84.0029 0)
(91.5597 -98.3284 0)
(60.3382 -90.8179 0)
(22.518 -91.3549 0)
(5.96372 -123.646 0)
(-31.4316 -107.779 0)
(-49.5611 -107.91 0)
(-65.6936 -98.5512 0)
(-72.283 -93.1304 0)
(-64.4817 -90.6568 0)
(-56.8546 -88.847 0)
(-45.2443 -92.7782 0)
(-36.9186 -98.9461 0)
(-29.9831 -106.332 0)
(-26.4036 -113.599 0)
(-23.1665 -117.657 0)
(-19.5015 -118.873 0)
(-21.7449 -117.996 0)
(-25.3785 -115.161 0)
(-27.7389 -113.59 0)
(-25.3384 -111.731 0)
(-23.5139 -113.615 0)
(-15.7893 -115.722 0)
(-10.7145 -117.043 0)
(-8.35752 -118.674 0)
(-12.8019 -120.543 0)
(-20.1165 -124.082 0)
(-28.9864 -119.91 0)
(-46.6147 -119.498 0)
(-47.2064 -103.519 0)
(-15.3372 -94.7531 0)
(48.1914 -86.8163 0)
(83.7425 -91.7947 0)
(39.8283 -115.457 0)
(6991.84 -107.523 0)
(-9385.22 1639.91 0)
(9079.76 1253.69 0)
(-6721.54 -49.2641 0)
(267.443 -27.1617 0)
(109.564 -38.0017 0)
(92.8139 -7.08224 0)
(87.1164 -20.1754 0)
(67.2989 -32.6755 0)
(13.8217 -32.9178 0)
(-7.60024 -55.8177 0)
(-32.4752 -62.0153 0)
(-52.7334 -67.8945 0)
(-65.5628 -72.7927 0)
(-73.609 -74.9416 0)
(-67.9569 -81.574 0)
(-61.464 -87.7746 0)
(-50.6921 -95.6959 0)
(-40.8609 -103.143 0)
(-32.1313 -109.147 0)
(-28.1017 -113.809 0)
(-26.1473 -117.066 0)
(-23.7362 -119.861 0)
(-24.7707 -121.409 0)
(-25.5672 -120.205 0)
(-24.7052 -117.031 0)
(-21.0829 -111.691 0)
(-18.6957 -107.555 0)
(-11.1727 -101.822 0)
(-6.34303 -98.4088 0)
(-4.86975 -93.8621 0)
(-10.3204 -92.3107 0)
(-16.6147 -88.6417 0)
(-25.4727 -85.5717 0)
(-40.2562 -81.3081 0)
(-41.8533 -72.3146 0)
(-14.6705 -66.3436 0)
(43.4327 -58.5306 0)
(67.3542 -62.0369 0)
(48.6906 -69.0688 0)
(7699.86 20.3635 0)
(-10006.2 1753.51 0)
(9860.54 1528.25 0)
(-7470.17 54.147 0)
(272.055 75.1153 0)
(110.496 65.8807 0)
(93.2149 68.7909 0)
(66.8971 57.1999 0)
(48.0591 29.0437 0)
(0.217341 11.4258 0)
(-22.0757 -3.13877 0)
(-43.0692 -21.0684 0)
(-59.9465 -33.1739 0)
(-72.4844 -45.2607 0)
(-80.745 -50.6625 0)
(-76.8481 -58.5076 0)
(-70.463 -64.9689 0)
(-60.0536 -72.3535 0)
(-49.8806 -79.6409 0)
(-40.2619 -86.6362 0)
(-34.0348 -92.6696 0)
(-28.9985 -96.4955 0)
(-23.6862 -98.5076 0)
(-22.0756 -98.8111 0)
(-21.1597 -97.1313 0)
(-19.5345 -94.5821 0)
(-16.2066 -91.1874 0)
(-14.004 -88.5828 0)
(-6.97603 -84.6541 0)
(-3.04408 -82.39 0)
(-2.48123 -79.1033 0)
(-7.77128 -76.5736 0)
(-13.6225 -70.0922 0)
(-21.9195 -64.1637 0)
(-33.8397 -53.3266 0)
(-32.7861 -38.5461 0)
(-2.05441 -22.0416 0)
(52.3416 -7.42185 0)
(73.5875 -7.67923 0)
(119.232 6.33187 0)
(8748.15 174.945 0)
(-11094.6 2079.53 0)
(10604.6 1337.86 0)
(-8121.83 91.8592 0)
(278.75 125.215 0)
(103.47 133.784 0)
(84.4487 121.516 0)
(48.8145 112.224 0)
(23.1893 76.3566 0)
(-17.1905 54.4815 0)
(-38.9128 32.4523 0)
(-61.4182 10.4918 0)
(-76.046 -7.4287 0)
(-82.4154 -23.4568 0)