/*--------------------------------*- C++ -*----------------------------------*\
| =========                 |                                                 |
| \\      /  F ield         | OpenFOAM: The Open Source CFD Toolbox           |
|  \\    /   O peration     | Version:  v1912                                 |
|   \\  /    A nd           | Website:  www.openfoam.com                      |
|    \\/     M anipulation  |                                                 |
\*---------------------------------------------------------------------------*/
FoamFile
{
    version     2.0;
    format      ascii;
    class       volVectorField;
    location    "7.78";
    object      grad(rho);
}
// * * * * * * * * * * * * * * * * * * * * * * * * * * * * * * * * * * * * * //

dimensions      [1 -4 0 0 0 0 0];


internalField   nonuniform List<vector> 
1900
(
(29371.3 -0.075373 0)
(-43110.3 -0.057685 0)
(1854.33 0.0273154 0)
(573.209 -0.264682 0)
(-586.725 -0.132346 0)
(-1312.44 2.34972 0)
(-1678.41 1.15235 0)
(-1368.36 -10.9276 0)
(-873.988 49.4676 0)
(343.019 22.0013 0)
(29371.2 -0.123886 0)
(-43110.2 -0.162819 0)
(1854.12 0.0307474 0)
(573.049 -0.0955465 0)
(-584.111 0.841218 0)
(-1311.16 6.64871 0)
(-1691.69 5.87971 0)
(-1320.04 -33.9815 0)
(-841.059 8.8822 0)
(-694.203 -54.9858 0)
(29371 8.59757e-09 0)
(-43110.1 8.08242e-09 0)
(1854.4 5.86198e-09 0)
(574.019 2.71783e-09 0)
(-579.981 3.19744e-09 0)
(-1307.4 7.10543e-10 0)
(-1719.04 -3.55271e-09 0)
(-1365.36 -1.29674e-09 0)
(-894.992 -1.77636e-10 0)
(-864.94 2.13163e-10 0)
(29371.2 0.123886 0)
(-43110.2 0.162819 0)
(1854.12 -0.0307474 0)
(573.049 0.0955465 0)
(-584.111 -0.841218 0)
(-1311.16 -6.64871 0)
(-1691.69 -5.87971 0)
(-1320.04 33.9815 0)
(-841.059 -8.8822 0)
(-694.203 54.9858 0)
(29371.3 0.075373 0)
(-43110.3 0.057685 0)
(1854.33 -0.0273154 0)
(573.209 0.264682 0)
(-586.725 0.132346 0)
(-1312.44 -2.34972 0)
(-1678.41 -1.15235 0)
(-1368.36 10.9276 0)
(-873.988 -49.4676 0)
(343.019 -22.0013 0)
(-439.87 -844.59 1.22154e-11)
(-2562.73 -642.357 -1.44105e-11)
(-3755.85 -659.53 -1.8049e-11)
(-4083.68 -671.091 0)
(-25216.6 -7160.13 -7.44056e-11)
(-1025.4 -1043.82 1.20628e-11)
(-1886.03 -779.839 1.44105e-11)
(-3427.12 -721.626 1.8049e-11)
(-6470.42 -235.846 0)
(-23682.1 -5898.23 0)
(-1354.69 -4.98796e-10 0)
(-1879.89 9.7388e-10 0)
(-3212.8 -3.20731e-10 0)
(-6131.98 1.11022e-09 0)
(-25831.8 -2.16758e-09 0)
(-1025.4 1043.82 1.20628e-11)
(-1886.03 779.839 1.44105e-11)
(-3427.12 721.626 1.8049e-11)
(-6470.42 235.846 0)
(-23682.1 5898.23 0)
(-439.87 844.59 -3.6341e-11)
(-2562.73 642.357 -1.44105e-11)
(-3755.85 659.53 -1.8049e-11)
(-4083.68 671.091 -4.79258e-11)
(-25216.6 7160.13 7.44056e-11)
(-42507.3 14250 1.71926e-11)
(-15326.5 6166.99 -9.8491e-12)
(-7774.03 3023.34 0)
(-5616.57 2114.99 4.87773e-12)
(-1831.37 1594.16 -1.74483e-12)
(-38141.5 18448.9 -8.8109e-12)
(-17773.1 5340.74 5.01742e-12)
(-8758.23 1824.64 0)
(-5966.99 1261.58 -3.09789e-12)
(-3519.38 625.323 4.52917e-13)
(-39665.1 -7.1772e-10 0)
(-19572.2 -7.97083e-10 0)
(-9059.58 1.26648e-09 0)
(-6142.86 -3.91843e-10 1.25435e-12)
(-3532.82 5.19403e-10 -9.05835e-13)
(-38141.5 -18448.9 -8.8109e-12)
(-17773.1 -5340.74 5.01742e-12)
(-8758.23 -1824.64 0)
(-5966.99 -1261.58 -3.09789e-12)
(-3519.38 -625.323 4.52917e-13)
(-42507.3 -14250 8.8109e-12)
(-15326.5 -6166.99 -1.85729e-13)
(-7774.03 -3023.34 0)
(-5616.57 -2114.99 6.36965e-14)
(-1831.37 -1594.16 1.74483e-12)
(1207.5 -7335.98 0)
(263.182 -5571.69 0)
(-446.956 -3431.13 0)
(-605.086 -2446.73 0)
(-809.619 -2206.32 0)
(-1380 -2182.89 0)
(-1124.35 -2185.82 0)
(279.676 -1934 0)
(3531.74 -2086.51 0)
(4235.37 -2296.84 0)
(1086.41 -1131.54 0)
(-411.435 -501.891 0)
(-324.499 -38.2113 0)
(-49.6598 59.2431 0)
(-51.5027 112.739 0)
(-538.646 92.0357 0)
(-1400.47 8.89324 0)
(-2073.06 65.1934 0)
(-2418.62 154.005 0)
(-2704.8 173.954 0)
(-2581.75 127.696 0)
(-1600.17 45.719 0)
(-583.362 2.61527 0)
(-211.435 -1.56394 0)
(-151.529 -0.790319 0)
(-128.175 -1.91887 0)
(-88.7841 -3.29678 0)
(-40.4405 -4.32972 0)
(-6.043 -4.37473 0)
(38.1175 -3.97783 0)
(206.385 -3.65845 0)
(1172.8 -3.06599 0)
(2512.58 -0.978346 0)
(2365.55 0.45344 0)
(1296.12 -2.69341 0)
(802.77 -5.67792 0)
(743.899 4.17149 0)
(870.815 -0.458682 0)
(998.114 0.116332 0)
(1330.83 5.022 0)
(-370.3 -3084.17 0)
(531.66 -4048.63 0)
(58.3181 -2760.09 0)
(-443.941 -1794.91 0)
(-818.267 -1337.82 0)
(-1366.88 -1417.28 0)
(-1036.85 -1407.79 0)
(361.222 -1108.55 0)
(3495.97 -1263.29 0)
(4306.36 -1655.06 0)
(1299.86 -735.975 0)
(-239.341 -481.129 0)
(-214.836 -103.031 0)
(-16.2784 -9.20018 0)
(-37.3393 76.7453 0)
(-551.128 376.897 0)
(-1409.45 614.699 0)
(-2050.27 308.692 0)
(-2395.77 135.087 0)
(-2711.82 88.3346 0)
(-2606.06 49.5473 0)
(-1617.34 17.0165 0)
(-588.071 0.842917 0)
(-211.606 -0.506742 0)
(-151.577 -0.246475 0)
(-128.423 -0.762243 0)
(-89.0043 -1.43459 0)
(-40.532 -1.8831 0)
(-6.01203 -1.87399 0)
(38.1752 -1.71955 0)
(206.421 -1.59432 0)
(1172.91 -1.51787 0)
(2512.79 -0.819622 0)
(2365.33 -0.635932 0)
(1295.53 -2.37353 0)
(803.76 -3.26648 0)
(744.297 2.75474 0)
(870.295 -0.933439 0)
(999.915 -0.763935 0)
(1331.98 3.57123 0)
(-375.555 2.64839e-09 0)
(357.46 2.23659e-09 0)
(208.673 2.80987e-09 0)
(-191.333 2.51112e-09 0)
(-699.765 1.02544e-09 0)
(-1400.35 -4.60238e-10 0)
(-1034.54 1.04967e-10 0)
(321.713 1.42916e-09 0)
(3372.75 -4.10177e-09 0)
(4388.77 -1.10699e-08 0)
(1427.92 4.48934e-09 0)
(-227.306 7.63833e-09 0)
(-187.21 4.76387e-09 0)
(2.6387 2.37386e-09 0)
(60.8165 -3.22974e-11 0)
(-382.15 -7.41225e-09 0)
(-1420.31 -1.36214e-08 0)
(-2212.58 -2.41665e-08 0)
(-2482.73 3.39123e-10 0)
(-2729.68 3.13527e-08 0)
(-2602.5 1.74729e-08 0)
(-1614.33 3.33874e-09 0)
(-588.46 -9.43488e-09 0)
(-211.752 4.76387e-10 0)
(-151.604 -3.75457e-10 0)
(-128.52 -3.18937e-10 0)
(-89.1102 5.44211e-09 0)
(-40.5683 7.94516e-09 0)
(-5.99542 7.16195e-09 0)
(38.1989 5.36137e-09 0)
(206.444 2.4546e-09 0)
(1173.02 -1.81673e-10 0)
(2512.84 -4.40052e-09 0)
(2365.1 -4.27133e-09 0)
(1295.35 -2.77758e-09 0)
(804.262 -3.24589e-09 0)
(744.578 -2.26889e-09 0)
(869.792 -2.19622e-09 0)
(999.424 -3.10862e-09 0)
(1334.32 -1.98629e-09 0)
(-370.3 3084.17 0)
(531.66 4048.63 0)
(58.3181 2760.09 0)
(-443.941 1794.91 0)
(-818.267 1337.82 0)
(-1366.88 1417.28 0)
(-1036.85 1407.79 0)
(361.222 1108.55 0)
(3495.97 1263.29 0)
(4306.36 1655.06 0)
(1299.86 735.975 0)
(-239.341 481.129 0)
(-214.836 103.031 0)
(-16.2784 9.20018 0)
(-37.3393 -76.7453 0)
(-551.128 -376.897 0)
(-1409.45 -614.699 0)
(-2050.27 -308.692 0)
(-2395.77 -135.087 0)
(-2711.82 -88.3346 0)
(-2606.06 -49.5473 0)
(-1617.34 -17.0165 0)
(-588.071 -0.842917 0)
(-211.606 0.506742 0)
(-151.577 0.246475 0)
(-128.423 0.762243 0)
(-89.0043 1.43459 0)
(-40.532 1.8831 0)
(-6.01203 1.87399 0)
(38.1752 1.71955 0)
(206.421 1.59432 0)
(1172.91 1.51787 0)
(2512.79 0.819622 0)
(2365.33 0.635932 0)
(1295.53 2.37353 0)
(803.76 3.26648 0)
(744.297 -2.75474 0)
(870.295 0.933439 0)
(999.915 0.763935 0)
(1331.98 -3.57123 0)
(1207.5 7335.98 0)
(263.182 5571.69 0)
(-446.956 3431.13 0)
(-605.086 2446.73 0)
(-809.619 2206.32 0)
(-1380 2182.89 0)
(-1124.35 2185.82 0)
(279.676 1934 0)
(3531.74 2086.51 0)
(4235.37 2296.84 0)
(1086.41 1131.54 0)
(-411.435 501.891 0)
(-324.499 38.2113 0)
(-49.6598 -59.2431 0)
(-51.5027 -112.739 0)
(-538.646 -92.0357 0)
(-1400.47 -8.89324 0)
(-2073.06 -65.1934 0)
(-2418.62 -154.005 0)
(-2704.8 -173.954 0)
(-2581.75 -127.696 0)
(-1600.17 -45.719 0)
(-583.362 -2.61527 0)
(-211.435 1.56394 0)
(-151.529 0.790319 0)
(-128.175 1.91887 0)
(-88.7841 3.29678 0)
(-40.4405 4.32972 0)
(-6.043 4.37473 0)
(38.1175 3.97783 0)
(206.385 3.65845 0)
(1172.8 3.06599 0)
(2512.58 0.978346 0)
(2365.55 -0.45344 0)
(1296.12 2.69341 0)
(802.77 5.67792 0)
(743.899 -4.17149 0)
(870.815 0.458682 0)
(998.114 -0.116332 0)
(1330.83 -5.022 0)
(-1905.29 6418.59 0)
(-1607.32 4046 0)
(-1317.66 2739.56 0)
(-1025.91 1943.44 0)
(-993.764 1446.32 0)
(-1364.57 1268.93 0)
(-1091.8 1629.51 0)
(393.214 1790.26 0)
(3682.22 2521.26 0)
(3789.41 1878.41 0)
(420.723 613.152 0)
(-726.17 119.087 0)
(-440.023 -64.591 0)
(-72.3681 -106.254 0)
(-41.5328 -181.904 0)
(-500.421 -263.103 0)
(-1403 -323.429 0)
(-2114.95 -351.653 0)
(-2437.58 -296.844 0)
(-2703.44 -243.792 0)
(-2553.73 -193.121 0)
(-1558.73 -78.723 0)
(-563.857 -6.45781 0)
(-209.668 2.8783 0)
(-151.411 1.66416 0)
(-127.138 3.14697 0)
(-87.7465 5.4637 0)
(-39.9617 7.43839 0)
(-6.19695 7.63445 0)
(37.7926 6.88846 0)
(205.89 6.16046 0)
(1171.36 4.94017 0)
(2510.82 0.376217 0)
(2366.16 -2.32767 0)
(1298.69 3.17534 0)
(800.598 7.04106 0)
(741.484 0.339662 0)
(872.237 0.458258 0)
(998.559 -0.352295 0)
(1322.66 -1.73406 0)
(-2245.22 1943.04 0)
(-2279.04 2300.01 0)
(-2006.16 2330.1 0)
(-1625.64 2055.96 0)
(-1360.86 1492.12 0)
(-1211.74 1219.61 0)
(-639.427 1376.21 0)
(1078.12 1781.14 0)
(3535.99 2654.48 0)
(2635.79 874.112 0)
(-251.971 -2.57377 0)
(-895.762 -306.206 0)
(-479.698 -264.398 0)
(-150.53 -294.949 0)
(-207.994 -397.821 0)
(-695.522 -571.66 0)
(-1484.44 -728.879 0)
(-2024.98 -674.627 0)
(-2304.52 -512.915 0)
(-2605.57 -408.156 0)
(-2437.71 -306.362 0)
(-1442.51 -115.045 0)
(-515.188 -9.53882 0)
(-204.555 4.47766 0)
(-151.334 3.28862 0)
(-125.069 5.00362 0)
(-85.2052 8.19137 0)
(-38.6054 11.1859 0)
(-6.49038 11.6854 0)
(36.8713 10.6258 0)
(204.774 9.4178 0)
(1167.99 7.95584 0)
(2506.52 1.22021 0)
(2367.92 -3.08179 0)
(1303.77 4.24649 0)
(801.202 6.42382 0)
(738.851 8.08521 0)
(869.386 4.41753 0)
(995.762 3.63797 0)
(1318.09 -0.320107 0)
(-1293.82 157.433 0)
(-1234.33 561.482 0)
(-1552.84 858.122 0)
(-1833.42 923.349 0)
(-1799.69 641.865 0)
(-1476.27 745.489 0)
(-550.694 1408.41 0)
(1625 2041.88 0)
(2808.18 1750.19 0)
(1228.98 -124.505 0)
(-716.675 -752.9 0)
(-978.474 -822.327 0)
(-429.175 -490.76 0)
(-200.939 -524.956 0)
(-308.182 -598.178 0)
(-819.441 -786.518 0)
(-1502.22 -894.43 0)
(-1906.83 -783.924 0)
(-2180.8 -623.524 0)
(-2504.4 -540.089 0)
(-2271.28 -402.118 0)
(-1272.7 -136.921 0)
(-448.68 -9.57276 0)
(-197.307 5.93126 0)
(-150.904 5.26852 0)
(-122.413 7.53842 0)
(-81.7891 11.556 0)
(-36.5947 15.3628 0)
(-6.73663 16.1926 0)
(35.6075 14.9226 0)
(203.317 13.4407 0)
(1163.46 11.9739 0)
(2500.18 4.73141 0)
(2369.08 0.253206 0)
(1307.85 8.28109 0)
(804.297 6.86133 0)
(739.55 14.1493 0)
(867.951 8.51599 0)
(993.994 8.95784 0)
(1304.33 3.50005 0)
(-1537.23 -112.651 0)
(-1603.83 -459.437 0)
(-1657.45 -604.052 0)
(-1834.03 -497.449 0)
(-1532.25 -224.317 0)
(-473.071 479.226 0)
(609.822 1243.6 0)
(1407.47 1409.82 0)
(1448.38 354.725 0)
(223.719 -991.646 0)
(-924.418 -1533.32 0)
(-643.154 -935.417 0)
(-193.141 -646.011 0)
(-254.042 -658.968 0)
(-460.044 -737.158 0)
(-981.001 -942.847 0)
(-1481.94 -993.032 0)
(-1763.92 -852.731 0)
(-2069.55 -719.112 0)
(-2392.21 -657.274 0)
(-2049.21 -457.599 0)
(-1064.24 -134.758 0)
(-377.53 -7.20339 0)
(-190.254 6.44348 0)
(-149.785 6.62515 0)
(-119.011 9.74992 0)
(-77.6653 14.6425 0)
(-34.1374 19.0762 0)
(-6.91454 20.1792 0)
(34.2195 18.7996 0)
(201.932 17.1519 0)
(1159.6 15.5333 0)
(2495.23 6.28271 0)
(2371.34 1.18486 0)
(1310.13 10.2732 0)
(806.857 6.5209 0)
(740.446 15.7852 0)
(864.384 10.0252 0)
(990.929 7.97334 0)
(1287.59 2.47588 0)
(-1673.48 -441.147 0)
(-1707.87 -479.158 0)
(-1589.47 -386.292 0)
(-1467.49 -70.9643 0)
(-858.536 470.293 0)
(-61.7346 872.778 0)
(346.061 717.471 0)
(768.452 190.684 0)
(494.034 -715.736 0)
(-590.404 -1767.04 0)
(-662.491 -1538.22 0)
(-123.434 -854.664 0)
(-162.779 -853.5 0)
(-288.771 -766.127 0)
(-581.737 -879.603 0)
(-1066.01 -1038.67 0)
(-1415.38 -1017.75 0)
(-1642.87 -881.747 0)
(-1992.45 -799.501 0)
(-2252.4 -745.255 0)
(-1767.76 -458.817 0)
(-838.681 -111.436 0)
(-312.614 -2.62618 0)
(-183.982 7.51194 0)
(-147.717 8.72929 0)
(-114.687 13.0268 0)
(-72.802 18.839 0)
(-31.2594 23.7624 0)
(-7.00315 25.0504 0)
(32.6903 23.6526 0)
(200.169 22.2023 0)
(1152.99 21.2061 0)
(2486.36 12.828 0)
(2372.92 6.97944 0)
(1312.99 15.6414 0)
(809.609 10.854 0)
(742.927 18.6186 0)
(860.423 14.6546 0)
(986.719 9.50381 0)
(1273.27 2.74549 0)
(-1621.38 -958.961 0)
(-1550.97 -801.038 0)
(-1264.1 -493.866 0)
(-1008.6 -153.753 0)
(-622.825 179.161 0)
(-234.882 12.3132 0)
(-47.4685 -298.948 0)
(26.3827 -713.858 0)
(-438.156 -1593.89 0)
(-568.86 -1868.06 0)
(-45.2164 -1111 0)
(16.6708 -899.431 0)
(-107.823 -796.696 0)
(-279.195 -807.606 0)
(-722.677 -985.206 0)
(-1114.12 -1083.84 0)
(-1330.72 -1009.43 0)
(-1553.61 -896.785 0)
(-1938.02 -865.556 0)
(-2063.92 -781.584 0)
(-1438.43 -400.717 0)
(-624.637 -76.5001 0)
(-262.907 2.59855 0)
(-179.311 9.53045 0)
(-144.471 11.9658 0)
(-109.269 17.4636 0)
(-67.3201 24.101 0)
(-28.1518 29.3293 0)
(-7.02039 30.7294 0)
(31.4749 29.3625 0)
(199.575 27.9846 0)
(1150.56 26.8577 0)
(2481.52 16.2711 0)
(2374.05 10.8264 0)
(1313.87 20.0657 0)
(809.726 15.6686 0)
(744.108 21.0731 0)
(855.601 18.8634 0)
(979.453 11.1996 0)
(1253.68 2.06049 0)
(-1478.36 -1468.65 0)
(-1259.68 -1164.26 0)
(-965.72 -832.764 0)
(-818.935 -639.877 0)
(-698.508 -560.037 0)
(-522.458 -809.91 0)
(-353.704 -1097.47 0)
(-479.403 -1505.35 0)
(-618.2 -1833.01 0)
(-125.076 -1177.58 0)
(270.919 -724.908 0)
(179.445 -742.935 0)
(-74.293 -726.724 0)
(-470.426 -915.644 0)
(-847.926 -1085.99 0)
(-1089.36 -1083.57 0)
(-1235.13 -972.893 0)
(-1504.23 -906.205 0)
(-1881.44 -918.941 0)
(-1804.46 -748.887 0)
(-1088.32 -297.535 0)
(-450.032 -39.7161 0)
(-229.712 8.92453 0)
(-174.955 13.5281 0)
(-140.073 17.2506 0)
(-102.994 23.7223 0)
(-61.3677 30.7456 0)
(-24.872 35.7515 0)
(-6.9712 37.0512 0)
(30.0453 35.6182 0)
(197.755 34.4835 0)
(1141.7 33.686 0)
(2470.91 21.583 0)
(2376.58 13.1463 0)
(1317.66 20.7732 0)
(810.579 17.0189 0)
(746.006 22.4014 0)
(850.909 21.5324 0)
(970.527 11.7713 0)
(1239.24 0.814837 0)
(-1145.13 -1681.36 0)
(-938.207 -1434.59 0)
(-758.786 -1272.44 0)
(-745.788 -1273.44 0)
(-786.675 -1346.24 0)
(-752.77 -1459.41 0)
(-717.618 -1539.13 0)
(-682.41 -1564.54 0)
(-122.307 -1024.03 0)
(498.946 -449.03 0)
(373.624 -547.128 0)
(14.9211 -662.567 0)
(-274.251 -865.591 0)
(-625.398 -1050 0)
(-884.5 -1108.72 0)
(-1005.14 -1020.74 0)
(-1159.8 -923.384 0)
(-1501.62 -927.708 0)
(-1786.42 -943.89 0)
(-1465.11 -631.566 0)
(-755.052 -184.809 0)
(-329.322 -14.8894 0)
(-211.599 10.5012 0)
(-171.288 13.7609 0)
(-134.648 18.6134 0)
(-96.2643 25.7585 0)
(-55.7283 32.9047 0)
(-22.0756 37.4295 0)
(-7.14888 38.736 0)
(29.0006 37.5751 0)
(197.713 37.0039 0)
(1138.13 36.2103 0)
(2461.73 20.8105 0)
(2373.27 8.98343 0)
(1317.6 16.8512 0)
(811.295 16.2806 0)
(748.457 25.2273 0)
(845.357 25.5288 0)
(959.488 14.1836 0)
(1219.48 -0.233437 0)
(-886.17 -1824.04 0)
(-865.625 -1792.41 0)
(-810.43 -1857.76 0)
(-890.058 -1831.16 0)
(-877.714 -1694.15 0)
(-708.335 -1422.62 0)
(-455.005 -1100.66 0)
(16.9713 -634.835 0)
(456.744 -228.024 0)
(334.482 -347.822 0)
(65.1468 -637.929 0)
(-127.438 -803.435 0)
(-447.638 -997.884 0)
(-704.709 -1107.05 0)
(-819.733 -1055.57 0)
(-910.764 -946.831 0)
(-1145.48 -914.377 0)
(-1523.99 -978.089 0)
(-1596.06 -893.851 0)
(-1072.99 -441.928 0)
(-494.064 -97.5638 0)
(-261.824 -8.61525 0)
(-202.103 3.23182 0)
(-167.138 7.82366 0)
(-128.511 14.6753 0)
(-89.2219 22.8849 0)
(-50.1211 30.2427 0)
(-19.2527 34.5371 0)
(-6.83094 36.0894 0)
(28.3762 35.7602 0)
(196.44 36.173 0)
(1126.1 35.9553 0)
(2444.67 18.5858 0)
(2372.77 8.43764 0)
(1324.69 21.1999 0)
(818.651 22.3127 0)
(754.918 32.5703 0)
(840.267 32.711 0)
(945.701 19.0811 0)
(1200.07 -0.19055 0)
(-1405.34 -1553.93 0)
(-970.693 -1335.42 0)
(-796.127 -1247.29 0)
(-588.133 -925.185 0)
(-392.993 -605.258 0)
(-180.863 -377.923 0)
(41.5206 -194.772 0)
(158.497 -101.766 0)
(154.269 -275.066 0)
(103.946 -586.03 0)
(-65.421 -740.88 0)
(-331.945 -955.144 0)
(-566.824 -1093.63 0)
(-680.985 -1067.4 0)
(-730.109 -950.594 0)
(-869.081 -879.246 0)
(-1189.92 -933.301 0)
(-1481.84 -984.872 0)
(-1269.76 -692.717 0)
(-697.778 -225.906 0)
(-337.496 -14.441 0)
(-232.191 30.6142 0)
(-195.757 41.98 0)
(-160.261 53.1195 0)
(-120.134 65.3901 0)
(-81.263 77.5524 0)
(-44.4998 87.3746 0)
(-16.4414 93.4868 0)
(-5.97034 96.5848 0)
(29.0812 98.3822 0)
(197.901 100.432 0)
(1121.18 105.087 0)
(2435.21 107.261 0)
(2375.79 127.055 0)
(1330.97 154.254 0)
(822.252 140.569 0)
(758.478 113.979 0)
(832.358 66.9518 0)
(927.783 29.2189 0)
(1165.64 -3.19587 0)
(-1256.74 -417.954 0)
(-570.136 -156.762 0)
(-415.117 111.364 0)
(-271.375 256.155 0)
(-350.352 274.56 0)
(-312.775 207.193 0)
(-188.891 16.4653 0)
(-60.4026 -254.642 0)
(-9.91036 -466.859 0)
(-114.394 -681.007 0)
(-290.545 -887.962 0)
(-467.36 -1017.54 0)
(-555.81 -1000.57 0)
(-566.875 -874.978 0)
(-638.422 -768.032 0)
(-894.099 -755.285 0)
(-1247.26 -818.426 0)
(-1292.16 -726.91 0)
(-864.697 -294.566 0)
(-419.374 52.9979 0)
(-246.872 174.194 0)
(-207.455 216.912 0)
(-180.416 247.502 0)
(-144.579 277.555 0)
(-104.967 305.579 0)
(-68.0369 331.525 0)
(-34.7662 350.817 0)
(-10.3774 367.318 0)
(-2.11355 377.652 0)
(32.0836 387.322 0)
(202.901 395.687 0)
(1132.68 423.302 0)
(2465.84 524.883 0)
(2418.05 636.041 0)
(1337.71 626.783 0)
(779.84 488.113 0)
(683.977 368.24 0)
(758.589 250.218 0)
(878.105 99.6011 0)
(1126.28 -4.27639 0)
(-501.496 208.834 0)
(-460.623 255.423 0)
(-398.225 413.613 0)
(-430.872 350.956 0)
(-440.175 340.783 0)
(-429.573 312.095 0)
(-403.52 29.5983 0)
(-307.251 -264.281 0)
(-256.593 -543.007 0)
(-301.845 -715.453 0)
(-389.718 -789.652 0)
(-440.461 -728.993 0)
(-429.444 -530.059 0)
(-456.899 -300.22 0)
(-614.769 -189.081 0)
(-917.643 -226.208 0)
(-1162.58 -196.283 0)
(-977.032 217.378 0)
(-518.21 730.071 0)
(-246.064 992.379 0)
(-179.542 1106.33 0)
(-161.55 1182.31 0)
(-137.32 1247.4 0)
(-104.295 1305.27 0)
(-68.1267 1355.05 0)
(-37.6705 1400.45 0)
(-10.0083 1430.68 0)
(9.41811 1461.82 0)
(13.3067 1478.18 0)
(46.4606 1493.36 0)
(232.572 1516.65 0)
(1245.68 1610.56 0)
(2640.21 1896.86 0)
(2473.98 1992.44 0)
(1188.42 1830.3 0)
(573.11 1436.04 0)
(529.234 1059.98 0)
(573.488 679.077 0)
(682.543 311.263 0)
(996.358 3.27117 0)
(-379.164 126.143 0)
(-372.804 274.393 0)
(-323.058 443.351 0)
(-341.556 561.171 0)
(-387.8 738.754 0)
(-612.644 657.719 0)
(-744.307 397.448 0)
(-612.186 93.4047 0)
(-444.676 -56.5805 0)
(-352.069 -9.90745 0)
(-303.593 183.887 0)
(-217.208 513.65 0)
(-142.629 855.165 0)
(-238.295 1061.97 0)
(-567.101 1096.72 0)
(-901.04 1078.81 0)
(-819.809 1324.47 0)
(-399.487 1836.09 0)
(-117.877 2200.87 0)
(-56.8013 2339.46 0)
(-63.851 2395.14 0)
(-71.5101 2425.78 0)
(-61.9241 2449.06 0)
(-40.8439 2470.51 0)
(-13.252 2489.41 0)
(4.84415 2510.07 0)
(24.3786 2522.84 0)
(35.3893 2533.45 0)
(28.2744 2532.54 0)
(69.1612 2530.62 0)
(315.847 2563.76 0)
(1499.06 2672.98 0)
(2833.83 2858.51 0)
(2353.91 2672.88 0)
(801.541 2469.04 0)
(37.5345 2144.55 0)
(-45.4603 1777.94 0)
(37.0993 1306.63 0)
(226.873 730.195 0)
(664.053 60.7901 0)
(-84.3044 207.39 0)
(-154.95 541.232 0)
(-121.875 1031.08 0)
(-146.21 1500.48 0)
(-347.137 2001.36 0)
(-758.468 2200.55 0)
(-947.314 2251.34 0)
(-744.769 1895.25 0)
(-356.148 1693.43 0)
(-70.1215 1757.94 0)
(114.801 1941.74 0)
(206.407 2130.09 0)
(98.939 2145.33 0)
(-224.128 1944.64 0)
(-598.542 1684.13 0)
(-698.174 1697.68 0)
(-432.838 2050.44 0)
(-132.506 2313.49 0)
(-33.1483 2366.04 0)
(-58.8508 2337.95 0)
(-96.3556 2287.82 0)
(-109.597 2242.49 0)
(-94.2223 2209.54 0)
(-65.4077 2188.06 0)
(-30.0035 2172.52 0)
(-5.45371 2161.88 0)
(12.5191 2156.81 0)
(18.7581 2143.68 0)
(10.5863 2132.29 0)
(76.5455 2120.67 0)
(369.754 2146.23 0)
(1529.72 2166.08 0)
(2640.11 2006.34 0)
(2098.67 1721.73 0)
(679.301 1685.66 0)
(-92.8565 1698.93 0)
(-278.213 1637.89 0)
(-436.159 1459.73 0)
(-517.993 974.729 0)
(-120.883 153.769 0)
(508.665 300.892 0)
(420.938 944.283 0)
(601.307 1700.18 0)
(593.439 2355.07 0)
(286.809 2955.97 0)
(-371.754 3420.56 0)
(-1038.5 3456.37 0)
(-1149.82 2899.93 0)
(-576.999 2381.18 0)
(-112.782 2140.44 0)
(55.0254 1963.36 0)
(-21.0278 1689.15 0)
(-321.333 1258.47 0)
(-682.717 868.456 0)
(-805.086 759.226 0)
(-548.057 999.692 0)
(-226.388 1282.39 0)
(-95.3645 1382.66 0)
(-94.31 1361.55 0)
(-132.171 1315.64 0)
(-155.838 1276.74 0)
(-146.947 1257.82 0)
(-114.37 1254.12 0)
(-76.5175 1255.12 0)
(-38.4854 1253.91 0)
(-10.2925 1248.8 0)
(6.84285 1245.6 0)
(11.7571 1236.25 0)
(6.104 1231.97 0)
(82.5993 1227.05 0)
(359.601 1216.45 0)
(1364.25 1143.39 0)
(2405.65 709.224 0)
(2044.89 471.823 0)
(779.565 570.681 0)
(-8.50093 722.054 0)
(-275.956 781.113 0)
(-601.946 825.902 0)
(-1031.6 657.641 0)
(-1004.73 151.255 0)
(1480.92 177.524 0)
(1193.46 890.856 0)
(1237.61 1431.67 0)
(1063.91 1751.39 0)
(679.604 1851.77 0)
(-276.269 1928.28 0)
(-1449.01 1668.36 0)
(-1780.86 1278.15 0)
(-1088.02 959.455 0)
(-472.75 708.141 0)
(-320.078 450.347 0)
(-472.848 149.343 0)
(-691.914 -91.2084 0)
(-705.219 -87.1872 0)
(-472.078 214.489 0)
(-194.032 569.761 0)
(-63.7998 735.629 0)
(-56.2294 773.272 0)
(-97.7303 765.789 0)
(-140.572 756.357 0)
(-152.072 764.048 0)
(-131.398 782.572 0)
(-96.8258 805.235 0)
(-65.6122 824.013 0)
(-36.0912 838.221 0)
(-13.4626 844.776 0)
(0.42894 845.567 0)
(5.6318 842.72 0)
(1.71876 843.95 0)
(61.5908 846.962 0)
(289.134 801.228 0)
(1040.93 714.276 0)
(1992.97 158.73 0)
(1965.17 -171.217 0)
(920.433 -96.2626 0)
(109.923 56.3475 0)
(-178.141 115.143 0)
(-555.141 169.136 0)
(-1168.11 73.0801 0)
(-1438.25 -18.9076 0)
(1898.01 -0.223771 0)
(1629.48 193.459 0)
(1430.55 230.167 0)
(998.27 98.1011 0)
(457.267 -113.246 0)
(-548.499 -330.092 0)
(-1664.99 -443.735 0)
(-1832.94 -302.176 0)
(-1126.28 -135.549 0)
(-603.377 -156.4 0)
(-483.452 -262.43 0)
(-542.891 -318.941 0)
(-549.263 -197.004 0)
(-388.136 96.5636 0)
(-172.027 402.655 0)
(-45.8671 561.805 0)
(-30.2775 605.449 0)
(-66.3014 608.876 0)
(-110.61 606.17 0)
(-133.85 618.867 0)
(-130.576 650.459 0)
(-107.257 681.131 0)
(-74.4359 705.205 0)
(-44.7308 723.388 0)
(-18.4774 739.123 0)
(-3.2141 749.419 0)
(4.86154 753.765 0)
(10.1994 755.728 0)
(10.192 760.698 0)
(41.4302 769.392 0)
(231.739 724.654 0)
(745.119 630.586 0)
(1552.35 130.224 0)
(1799.17 -314.687 0)
(998.855 -374.549 0)
(195.217 -223.541 0)
(-167.269 -204.104 0)
(-642.479 -137.098 0)
(-1212.81 -277.784 0)
(-1190.73 -168.527 0)
(1626.61 2644.36 0)
(1415.47 -1055.16 0)
(1145.72 -1034.28 0)
(732.987 -1267.29 0)
(266.982 -1388.63 0)
(-594.74 -1457.11 0)
(-1422.11 -1245.04 0)
(-1483.88 -773.34 0)
(-947.544 -403.286 0)
(-595.018 -269.309 0)
(-476.708 -209.386 0)
(-409.801 -94.3397 0)
(-291.518 111.9 0)
(-127.366 353.776 0)
(-23.7539 507.407 0)
(1.3874 566.893 0)
(-18.4408 587.697 0)
(-55.5346 603.937 0)
(-88.1026 631.209 0)
(-97.8931 670.703 0)
(-92.0715 722.79 0)
(-78.6436 770.932 0)
(-56.1055 809.109 0)
(-32.9275 836.934 0)
(-11.0068 852.679 0)
(0.647362 859.192 0)
(6.50864 860.897 0)
(12.3124 858.925 0)
(14.8858 857.024 0)
(26.8574 857.181 0)
(155.375 826.437 0)
(468.119 675.5 0)
(1082.07 273.979 0)
(1478.75 -336.361 0)
(1008.26 -644.443 0)
(274.17 -590.437 0)
(-94.8415 -668.136 0)
(-626.142 -651.232 0)
(-1198.39 -1041.41 0)
(-561.122 1198.01 0)
(-131.295 94228.7 0)
(-1915.4 1075.46 0)
(1226.13 -1627.56 0)
(656.813 -1899.91 0)
(274.353 -2139.26 0)
(-410.136 -2150.5 0)
(-1006.09 -1756.42 0)
(-1021.8 -1109.09 0)
(-640.574 -667.873 0)
(-416.528 -403.452 0)
(-314.846 -178.479 0)
(-233.288 57.9932 0)
(-117.442 300.107 0)
(-7.01068 456.804 0)
(33.3407 525.044 0)
(31.5031 557.498 0)
(5.41882 587.81 0)
(-24.3717 627.274 0)
(-46.2722 679.253 0)
(-45.5985 739.214 0)
(-33.9914 798.083 0)
(-24.0777 854.802 0)
(-10.8342 903.759 0)
(-2.74506 939.186 0)
(2.97159 960.795 0)
(4.70559 969.785 0)
(4.60357 973.985 0)
(6.46724 973.078 0)
(8.51213 968.815 0)
(11.9553 963.365 0)
(56.6639 942.915 0)
(212.75 803.72 0)
(577.288 465.064 0)
(914.146 -285.389 0)
(754.018 -943.533 0)
(172.386 -1160.5 0)
(-225.854 -1220.64 0)
(-1002.18 -1202.38 0)
(569.192 511.242 0)
(2641.73 48983.5 0)
(81979.6 -85937.6 0)
(-90955.1 3011.77 0)
(-1721.45 -897.3 0)
(239.894 -1996.19 0)
(25.5024 -2553.32 0)
(-225.813 -2538.42 0)
(-418.566 -1823.14 0)
(-434.918 -609.32 0)
(-267.569 208.749 0)
(-123.42 638.779 0)
(-32.0427 927.292 0)
(51.382 1095.15 0)
(92.7898 1173.84 0)
(89.3917 1140.14 0)
(73.2785 1086.4 0)
(61.8711 1040.78 0)
(48.7979 1024.52 0)
(32.5837 1038.2 0)
(19.7668 1079.54 0)
(16.6152 1133.33 0)
(19.3133 1174.93 0)
(23.1902 1208.88 0)
(25.2104 1227.14 0)
(22.0339 1230.95 0)
(18.4799 1229.76 0)
(13.3577 1219.28 0)
(9.68173 1214.51 0)
(7.33031 1202.25 0)
(5.52581 1192.1 0)
(1.89973 1171.69 0)
(1.53602 1151.62 0)
(7.64432 1061.23 0)
(32.5617 806.904 0)
(121.374 138.275 0)
(164.978 -812.411 0)
(7.14005 -1424.24 0)
(-135.198 -1225.43 0)
(1042.76 -653.091 0)
(47162.5 2721.32 0)
(-37662.8 -39179.9 0)
(81979.6 85937.6 0)
(-90955.1 -3011.77 0)
(-1721.45 897.3 0)
(239.894 1996.19 0)
(25.5024 2553.32 0)
(-225.813 2538.42 0)
(-418.566 1823.14 0)
(-434.918 609.32 0)
(-267.569 -208.749 0)
(-123.42 -638.779 0)
(-32.0427 -927.292 0)
(51.382 -1095.15 0)
(92.7898 -1173.84 0)
(89.3917 -1140.14 0)
(73.2785 -1086.4 0)
(61.8711 -1040.78 0)
(48.7979 -1024.52 0)
(32.5837 -1038.2 0)
(19.7668 -1079.54 0)
(16.6152 -1133.33 0)
(19.3133 -1174.93 0)
(23.1902 -1208.88 0)
(25.2104 -1227.14 0)
(22.0339 -1230.95 0)
(18.4799 -1229.76 0)
(13.3577 -1219.28 0)
(9.68173 -1214.51 0)
(7.33031 -1202.25 0)
(5.52581 -1192.1 0)
(1.89973 -1171.69 0)
(1.53602 -1151.62 0)
(7.64432 -1061.23 0)
(32.5617 -806.904 0)
(121.374 -138.275 0)
(164.978 812.411 0)
(7.14005 1424.24 0)
(-135.198 1225.43 0)
(1042.76 653.091 0)
(47162.5 -2721.32 0)
(-37662.8 39179.9 0)
(-131.295 -94228.7 0)
(-1915.4 -1075.46 0)
(1226.13 1627.56 0)
(656.813 1899.91 0)
(274.353 2139.26 0)
(-410.136 2150.5 0)
(-1006.09 1756.42 0)
(-1021.8 1109.09 0)
(-640.574 667.873 0)
(-416.528 403.452 0)
(-314.846 178.479 0)
(-233.288 -57.9932 0)
(-117.442 -300.107 0)
(-7.01068 -456.804 0)
(33.3407 -525.044 0)
(31.5031 -557.498 0)
(5.41882 -587.81 0)
(-24.3717 -627.274 0)
(-46.2722 -679.253 0)
(-45.5985 -739.214 0)
(-33.9914 -798.083 0)
(-24.0777 -854.802 0)
(-10.8342 -903.759 0)
(-2.74506 -939.186 0)
(2.97159 -960.795 0)
(4.70559 -969.785 0)
(4.60357 -973.985 0)
(6.46724 -973.078 0)
(8.51213 -968.815 0)
(11.9553 -963.365 0)
(56.6639 -942.915 0)
(212.75 -803.72 0)
(577.288 -465.064 0)
(914.146 285.389 0)
(754.018 943.533 0)
(172.386 1160.5 0)
(-225.854 1220.64 0)
(-1002.18 1202.38 0)
(569.192 -511.242 0)
(2641.73 -48983.5 0)
(1626.61 -2644.36 0)
(1415.47 1055.16 0)
(1145.72 1034.28 0)
(732.987 1267.29 0)
(266.982 1388.63 0)
(-594.74 1457.11 0)
(-1422.11 1245.04 0)
(-1483.88 773.34 0)
(-947.544 403.286 0)
(-595.018 269.309 0)
(-476.708 209.386 0)
(-409.801 94.3397 0)
(-291.518 -111.9 0)
(-127.366 -353.776 0)
(-23.7539 -507.407 0)
(1.3874 -566.893 0)
(-18.4408 -587.697 0)
(-55.5346 -603.937 0)
(-88.1026 -631.209 0)
(-97.8931 -670.703 0)
(-92.0715 -722.79 0)
(-78.6436 -770.932 0)
(-56.1055 -809.109 0)
(-32.9275 -836.934 0)
(-11.0068 -852.679 0)
(0.647362 -859.192 0)
(6.50864 -860.897 0)
(12.3124 -858.925 0)
(14.8858 -857.024 0)
(26.8574 -857.181 0)
(155.375 -826.437 0)
(468.119 -675.5 0)
(1082.07 -273.979 0)
(1478.75 336.361 0)
(1008.26 644.443 0)
(274.17 590.437 0)
(-94.8415 668.136 0)
(-626.142 651.232 0)
(-1198.39 1041.41 0)
(-561.122 -1198.01 0)
(1898.01 0.223771 0)
(1629.48 -193.459 0)
(1430.55 -230.167 0)
(998.27 -98.1011 0)
(457.267 113.246 0)
(-548.499 330.092 0)
(-1664.99 443.735 0)
(-1832.94 302.176 0)
(-1126.28 135.549 0)
(-603.377 156.4 0)
(-483.452 262.43 0)
(-542.891 318.941 0)
(-549.263 197.004 0)
(-388.136 -96.5636 0)
(-172.027 -402.655 0)
(-45.8671 -561.805 0)
(-30.2775 -605.449 0)
(-66.3014 -608.876 0)
(-110.61 -606.17 0)
(-133.85 -618.867 0)
(-130.576 -650.459 0)
(-107.257 -681.131 0)
(-74.4359 -705.205 0)
(-44.7308 -723.388 0)
(-18.4774 -739.123 0)
(-3.2141 -749.419 0)
(4.86154 -753.765 0)
(10.1994 -755.728 0)
(10.192 -760.698 0)
(41.4302 -769.392 0)
(231.739 -724.654 0)
(745.119 -630.586 0)
(1552.35 -130.224 0)
(1799.17 314.687 0)
(998.855 374.549 0)
(195.217 223.541 0)
(-167.269 204.104 0)
(-642.479 137.098 0)
(-1212.81 277.784 0)
(-1190.73 168.527 0)
(1480.92 -177.524 0)
(1193.46 -890.856 0)
(1237.61 -1431.67 0)
(1063.91 -1751.39 0)
(679.604 -1851.77 0)
(-276.269 -1928.28 0)
(-1449.01 -1668.36 0)
(-1780.86 -1278.15 0)
(-1088.02 -959.455 0)
(-472.75 -708.141 0)
(-320.078 -450.347 0)
(-472.848 -149.343 0)
(-691.914 91.2084 0)
(-705.219 87.1872 0)
(-472.078 -214.489 0)
(-194.032 -569.761 0)
(-63.7998 -735.629 0)
(-56.2294 -773.272 0)
(-97.7303 -765.789 0)
(-140.572 -756.357 0)
(-152.072 -764.048 0)
(-131.398 -782.572 0)
(-96.8258 -805.235 0)
(-65.6122 -824.013 0)
(-36.0912 -838.221 0)
(-13.4626 -844.776 0)
(0.42894 -845.567 0)
(5.6318 -842.72 0)
(1.71876 -843.95 0)
(61.5908 -846.962 0)
(289.134 -801.228 0)
(1040.93 -714.276 0)
(1992.97 -158.73 0)
(1965.17 171.217 0)
(920.433 96.2626 0)
(109.923 -56.3475 0)
(-178.141 -115.143 0)
(-555.141 -169.136 0)
(-1168.11 -73.0801 0)
(-1438.25 18.9076 0)
(508.665 -300.892 0)
(420.938 -944.283 0)
(601.307 -1700.18 0)
(593.439 -2355.07 0)
(286.809 -2955.97 0)
(-371.754 -3420.56 0)
(-1038.5 -3456.37 0)
(-1149.82 -2899.93 0)
(-576.999 -2381.18 0)
(-112.782 -2140.44 0)
(55.0254 -1963.36 0)
(-21.0278 -1689.15 0)
(-321.333 -1258.47 0)
(-682.717 -868.456 0)
(-805.086 -759.226 0)
(-548.057 -999.692 0)
(-226.388 -1282.39 0)
(-95.3645 -1382.66 0)
(-94.31 -1361.55 0)
(-132.171 -1315.64 0)
(-155.838 -1276.74 0)
(-146.947 -1257.82 0)
(-114.37 -1254.12 0)
(-76.5175 -1255.12 0)
(-38.4854 -1253.91 0)
(-10.2925 -1248.8 0)
(6.84285 -1245.6 0)
(11.7571 -1236.25 0)
(6.104 -1231.97 0)
(82.5993 -1227.05 0)
(359.601 -1216.45 0)
(1364.25 -1143.39 0)
(2405.65 -709.224 0)
(2044.89 -471.823 0)
(779.565 -570.681 0)
(-8.50093 -722.054 0)
(-275.956 -781.113 0)
(-601.946 -825.902 0)
(-1031.6 -657.641 0)
(-1004.73 -151.255 0)
(-84.3044 -207.39 0)
(-154.95 -541.232 0)
(-121.875 -1031.08 0)
(-146.21 -1500.48 0)
(-347.137 -2001.36 0)
(-758.468 -2200.55 0)
(-947.314 -2251.34 0)
(-744.769 -1895.25 0)
(-356.148 -1693.43 0)
(-70.1215 -1757.94 0)
(114.801 -1941.74 0)
(206.407 -2130.09 0)
(98.939 -2145.33 0)
(-224.128 -1944.64 0)
(-598.542 -1684.13 0)
(-698.174 -1697.68 0)
(-432.838 -2050.44 0)
(-132.506 -2313.49 0)
(-33.1483 -2366.04 0)
(-58.8508 -2337.95 0)
(-96.3556 -2287.82 0)
(-109.597 -2242.49 0)
(-94.2223 -2209.54 0)
(-65.4077 -2188.06 0)
(-30.0035 -2172.52 0)