/*--------------------------------*- C++ -*----------------------------------*\
| =========                 |                                                 |
| \\      /  F ield         | OpenFOAM: The Open Source CFD Toolbox           |
|  \\    /   O peration     | Version:  v1912                                 |
|   \\  /    A nd           | Website:  www.openfoam.com                      |
|    \\/     M anipulation  |                                                 |
\*---------------------------------------------------------------------------*/
FoamFile
{
    version     2.0;
    format      ascii;
    class       volVectorField;
    location    "7.78";
    object      U;
}
// * * * * * * * * * * * * * * * * * * * * * * * * * * * * * * * * * * * * * //

dimensions      [0 1 -1 0 0 0 0];


internalField   nonuniform List<vector> 
1900
(
(-0.517781 -1.66428e-06 0)
(0.0326255 -3.47543e-06 0)
(0.101976 -1.70427e-06 0)
(0.103956 -1.25882e-05 0)
(0.106316 -2.67723e-05 0)
(0.105738 -6.14757e-05 0)
(0.105678 -0.000119734 0)
(0.104235 -0.000112509 0)
(0.102906 0.00318243 0)
(0.0915148 0.0116533 0)
(-0.517778 -2.0455e-07 0)
(0.0326265 -3.83104e-06 0)
(0.101976 -3.85228e-06 0)
(0.103946 -1.11741e-05 0)
(0.106278 -2.93329e-05 0)
(0.105618 -0.000100024 0)
(0.105514 -0.000115466 0)
(0.103923 4.12149e-05 0)
(0.10378 0.00212551 0)
(0.103744 0.0107246 0)
(-0.517778 -2.05792e-14 0)
(0.0326267 -3.03844e-14 0)
(0.101974 2.32743e-15 0)
(0.103936 -1.19429e-14 0)
(0.106244 -1.61798e-14 0)
(0.105518 -1.38589e-14 0)
(0.105405 2.21878e-14 0)
(0.10415 1.03168e-14 0)
(0.105146 6.23717e-15 0)
(0.110642 -4.73572e-15 0)
(-0.517778 2.0455e-07 0)
(0.0326265 3.83104e-06 0)
(0.101976 3.85228e-06 0)
(0.103946 1.11741e-05 0)
(0.106278 2.93329e-05 0)
(0.105618 0.000100024 0)
(0.105514 0.000115466 0)
(0.103923 -4.12149e-05 0)
(0.10378 -0.00212551 0)
(0.103744 -0.0107246 0)
(-0.517781 1.66428e-06 0)
(0.0326255 3.47543e-06 0)
(0.101976 1.70427e-06 0)
(0.103956 1.25882e-05 0)
(0.106316 2.67723e-05 0)
(0.105738 6.14757e-05 0)
(0.105678 0.000119734 0)
(0.104235 0.000112509 0)
(0.102906 -0.00318243 0)
(0.0915148 -0.0116533 0)
(0.0933866 0.0376587 0)
(0.129472 0.0510608 0)
(0.176182 0.075058 0)
(0.251716 0.116404 0)
(0.396 0.172702 0)
(0.116954 0.0267868 0)
(0.141848 0.0283122 0)
(0.172037 0.03805 0)
(0.234147 0.0597223 0)
(0.375276 0.101975 0)
(0.127272 2.20624e-16 0)
(0.15041 -2.39256e-14 0)
(0.182304 1.21847e-14 0)
(0.245053 -6.63127e-15 0)
(0.385642 2.53456e-15 0)
(0.116954 -0.0267868 0)
(0.141848 -0.0283122 0)
(0.172037 -0.03805 0)
(0.234147 -0.0597223 0)
(0.375276 -0.101975 0)
(0.0933866 -0.0376587 0)
(0.129472 -0.0510608 0)
(0.176182 -0.075058 0)
(0.251716 -0.116404 0)
(0.396 -0.172702 0)
(0.843792 0.0296081 0)
(1.10271 -0.0517488 0)
(1.25573 -0.0831753 0)
(1.34244 -0.0943015 0)
(1.43296 -0.107159 0)
(0.817252 -0.0174922 0)
(1.11542 -0.0479694 0)
(1.28713 -0.0591198 0)
(1.37566 -0.0593717 0)
(1.45758 -0.0796379 0)
(0.813392 8.31549e-16 0)
(1.11933 7.37206e-15 0)
(1.28241 2.38183e-15 0)
(1.36715 -8.31965e-15 0)
(1.44456 3.80644e-14 0)
(0.817252 0.0174922 0)
(1.11542 0.0479694 0)
(1.28713 0.0591198 0)
(1.37566 0.0593717 0)
(1.45758 0.0796379 0)
(0.843792 -0.0296081 0)
(1.10271 0.0517488 0)
(1.25573 0.0831753 0)
(1.34244 0.0943015 0)
(1.43296 0.107159 0)
(1.47787 -0.0182298 0)
(1.51601 0.0267483 0)
(1.53286 0.0115369 0)
(1.55035 -0.0112325 0)
(1.56681 -0.0220995 0)
(1.59073 -0.0346408 0)
(1.63213 -0.0427558 0)
(1.63839 -0.00982495 0)
(1.59879 0.0145132 0)
(1.34882 0.0037627 0)
(1.19585 -0.0111428 0)
(1.17653 -0.0233792 0)
(1.1432 -0.0424685 0)
(1.0634 -0.0611514 0)
(0.957802 -0.0700225 0)
(0.847379 -0.0629518 0)
(0.742242 -0.051511 0)
(0.648266 -0.0411079 0)
(0.560794 -0.0310207 0)
(0.460337 -0.023471 0)
(0.325415 -0.0175182 0)
(0.195334 -0.0130662 0)
(0.145691 -0.0115186 0)
(0.141054 -0.0111757 0)
(0.143694 -0.0109667 0)
(0.147024 -0.0106893 0)
(0.151626 -0.010609 0)
(0.159206 -0.0105027 0)
(0.170712 -0.0106628 0)
(0.184458 -0.0106096 0)
(0.196292 -0.0108409 0)
(0.181428 -0.0108845 0)
(0.0514326 -0.0110047 0)
(-0.104334 -0.0111668 0)
(-0.164413 -0.0112905 0)
(-0.18868 -0.0110948 0)
(-0.205401 -0.0115352 0)
(-0.221253 -0.0126037 0)
(-0.239347 -0.0154517 0)
(-0.266391 -0.012131 0)
(1.48291 -0.0209677 0)
(1.48127 0.0182622 0)
(1.49708 0.0228137 0)
(1.51432 0.00891333 0)
(1.53399 -0.0143887 0)
(1.56423 -0.0301157 0)
(1.61152 -0.0377141 0)
(1.62411 -0.0141463 0)
(1.58125 0.00609347 0)
(1.35737 0.00516272 0)
(1.19628 -0.00624947 0)
(1.17697 -0.0120299 0)
(1.13658 -0.021169 0)
(1.05473 -0.0300468 0)
(0.951186 -0.0338684 0)
(0.849578 -0.0298934 0)
(0.754701 -0.023972 0)
(0.660319 -0.0221194 0)
(0.569072 -0.0176998 0)
(0.466069 -0.0119178 0)
(0.328676 -0.00836463 0)
(0.196186 -0.00641793 0)
(0.145822 -0.00576349 0)
(0.141148 -0.00559068 0)
(0.143819 -0.00549084 0)
(0.147131 -0.00534911 0)
(0.151744 -0.00530523 0)
(0.15934 -0.00525463 0)
(0.170866 -0.00533616 0)
(0.184633 -0.00530918 0)
(0.196503 -0.00542278 0)
(0.18168 -0.00544413 0)
(0.0517758 -0.00548763 0)
(-0.103832 -0.00555916 0)
(-0.163649 -0.00561821 0)
(-0.187657 -0.00553418 0)
(-0.204165 -0.0057733 0)
(-0.220581 -0.00637165 0)
(-0.240197 -0.00781366 0)
(-0.267918 -0.006084 0)
(1.48016 -4.7383e-14 0)
(1.47724 -6.23639e-14 0)
(1.47932 -4.26791e-14 0)
(1.50186 -6.06197e-14 0)
(1.5175 -4.88203e-14 0)
(1.55062 -1.65801e-14 0)
(1.60109 -6.30415e-14 0)
(1.61375 -7.7986e-14 0)
(1.57069 -1.37875e-13 0)
(1.35098 3.34057e-13 0)
(1.19259 2.93006e-13 0)
(1.17652 -1.24737e-13 0)
(1.13769 -8.54534e-13 0)
(1.05807 -5.28366e-13 0)
(0.959393 -4.71445e-14 0)
(0.861775 7.06727e-14 0)
(0.766241 4.96139e-13 0)
(0.672048 6.13871e-13 0)
(0.571488 -4.53563e-14 0)
(0.463351 -9.57515e-13 0)
(0.32701 -1.40068e-12 0)
(0.196244 -5.17649e-14 0)
(0.145926 7.2245e-13 0)
(0.141186 8.4931e-13 0)
(0.143852 7.58923e-13 0)
(0.147137 2.32959e-13 0)
(0.15173 -2.38284e-13 0)
(0.159326 -8.8678e-13 0)
(0.170856 -5.11436e-13 0)
(0.184626 1.96723e-13 0)
(0.196503 -1.86116e-13 0)
(0.181686 -5.39723e-14 0)
(0.0517869 2.82855e-13 0)
(-0.103764 5.03605e-13 0)
(-0.163414 4.04307e-14 0)
(-0.187184 7.69507e-14 0)
(-0.203415 4.88117e-13 0)
(-0.21965 1.70036e-14 0)
(-0.23932 -5.32204e-13 0)
(-0.267152 -1.14325e-13 0)
(1.48291 0.0209677 0)
(1.48127 -0.0182622 0)
(1.49708 -0.0228137 0)
(1.51432 -0.00891333 0)
(1.53399 0.0143887 0)
(1.56423 0.0301157 0)
(1.61152 0.0377141 0)
(1.62411 0.0141463 0)
(1.58125 -0.00609347 0)
(1.35737 -0.00516272 0)
(1.19628 0.00624947 0)
(1.17697 0.0120299 0)
(1.13658 0.021169 0)
(1.05473 0.0300468 0)
(0.951186 0.0338684 0)
(0.849578 0.0298934 0)
(0.754701 0.023972 0)
(0.660319 0.0221194 0)
(0.569072 0.0176998 0)
(0.466069 0.0119178 0)
(0.328676 0.00836463 0)
(0.196186 0.00641793 0)
(0.145822 0.00576349 0)
(0.141148 0.00559068 0)
(0.143819 0.00549084 0)
(0.147131 0.00534911 0)
(0.151744 0.00530523 0)
(0.15934 0.00525463 0)
(0.170866 0.00533616 0)
(0.184633 0.00530918 0)
(0.196503 0.00542278 0)
(0.18168 0.00544413 0)
(0.0517758 0.00548763 0)
(-0.103832 0.00555916 0)
(-0.163649 0.00561821 0)
(-0.187657 0.00553418 0)
(-0.204165 0.0057733 0)
(-0.220581 0.00637165 0)
(-0.240197 0.00781366 0)
(-0.267918 0.006084 0)
(1.47787 0.0182298 0)
(1.51601 -0.0267483 0)
(1.53286 -0.0115369 0)
(1.55035 0.0112325 0)
(1.56681 0.0220995 0)
(1.59073 0.0346408 0)
(1.63213 0.0427558 0)
(1.63839 0.00982495 0)
(1.59879 -0.0145132 0)
(1.34882 -0.0037627 0)
(1.19585 0.0111428 0)
(1.17653 0.0233792 0)
(1.1432 0.0424685 0)
(1.0634 0.0611514 0)
(0.957802 0.0700225 0)
(0.847379 0.0629518 0)
(0.742242 0.051511 0)
(0.648266 0.0411079 0)
(0.560794 0.0310207 0)
(0.460337 0.023471 0)
(0.325415 0.0175182 0)
(0.195334 0.0130662 0)
(0.145691 0.0115186 0)
(0.141054 0.0111757 0)
(0.143694 0.0109667 0)
(0.147024 0.0106893 0)
(0.151626 0.010609 0)
(0.159206 0.0105027 0)
(0.170712 0.0106628 0)
(0.184458 0.0106096 0)
(0.196292 0.0108409 0)
(0.181428 0.0108845 0)
(0.0514326 0.0110047 0)
(-0.104334 0.0111668 0)
(-0.164413 0.0112905 0)
(-0.18868 0.0110948 0)
(-0.205401 0.0115352 0)
(-0.221253 0.0126037 0)
(-0.239347 0.0154517 0)
(-0.266391 0.012131 0)
(1.55802 -0.0385321 0)
(1.56766 -0.0355398 0)
(1.57988 -0.0215998 0)
(1.58936 0.00197502 0)
(1.59157 0.0184764 0)
(1.60436 0.0498353 0)
(1.62568 0.0749102 0)
(1.61295 0.0246019 0)
(1.55222 -0.0282622 0)
(1.27851 0.00458624 0)
(1.17343 0.0275712 0)
(1.1523 0.0546474 0)
(1.11932 0.0941167 0)
(1.03671 0.133965 0)
(0.9346 0.150583 0)
(0.836275 0.135686 0)
(0.743486 0.10924 0)
(0.654116 0.0849381 0)
(0.563062 0.0653059 0)
(0.458012 0.0501585 0)
(0.320704 0.036932 0)
(0.192338 0.0271882 0)
(0.145044 0.0238978 0)
(0.14078 0.023148 0)
(0.143461 0.0227139 0)
(0.146886 0.0222184 0)
(0.151594 0.0220761 0)
(0.159243 0.0218263 0)
(0.170773 0.0221389 0)
(0.18454 0.0220292 0)
(0.19638 0.0225164 0)
(0.181558 0.0226293 0)
(0.051762 0.0229827 0)
(-0.103951 0.0233706 0)
(-0.164189 0.0236097 0)
(-0.188511 0.0232648 0)
(-0.205431 0.0241564 0)
(-0.220764 0.0249734 0)
(-0.236157 0.029995 0)
(-0.261714 0.0244762 0)
(1.58344 0.104426 0)
(1.5879 0.0870587 0)
(1.59078 0.0768897 0)
(1.59042 0.0858356 0)
(1.58271 0.0685733 0)
(1.58447 0.106972 0)
(1.57819 0.11889 0)
(1.53976 0.0608203 0)
(1.43918 0.0201805 0)
(1.1807 0.026188 0)
(1.11755 0.0367942 0)
(1.08394 0.0777893 0)
(1.03931 0.160201 0)
(0.949743 0.234822 0)
(0.857246 0.255807 0)
(0.777317 0.23147 0)
(0.701173 0.189298 0)
(0.62266 0.147151 0)
(0.53878 0.113884 0)
(0.438222 0.0877818 0)
(0.304208 0.0643907 0)
(0.184346 0.0479933 0)
(0.143397 0.0427068 0)
(0.140104 0.0414033 0)
(0.142865 0.0406596 0)
(0.146483 0.0399038 0)
(0.151525 0.0396898 0)
(0.15942 0.0392199 0)
(0.171029 0.039745 0)
(0.184849 0.0395384 0)
(0.196719 0.0403813 0)
(0.181988 0.0406261 0)
(0.0527334 0.0412415 0)
(-0.102779 0.0418845 0)
(-0.163165 0.0422707 0)
(-0.1878 0.0416205 0)
(-0.204863 0.0437497 0)
(-0.220516 0.0431708 0)
(-0.234016 0.0510657 0)
(-0.259165 0.0439369 0)
(1.56356 0.194755 0)
(1.55662 0.187846 0)
(1.55486 0.183021 0)
(1.55775 0.185763 0)
(1.56423 0.170686 0)
(1.56941 0.184299 0)
(1.54727 0.154314 0)
(1.49839 0.0890378 0)
(1.35156 0.0708606 0)
(1.17692 0.0694806 0)
(1.10094 0.0959199 0)
(1.02588 0.15651 0)
(0.936516 0.263521 0)
(0.834441 0.337585 0)
(0.760251 0.338369 0)
(0.703962 0.299177 0)
(0.646094 0.245695 0)
(0.580342 0.195179 0)
(0.506036 0.1546 0)
(0.410073 0.120343 0)
(0.280104 0.0885027 0)
(0.173328 0.0674702 0)
(0.141056 0.0611081 0)
(0.139139 0.0593765 0)
(0.142004 0.0583585 0)
(0.145878 0.0573786 0)
(0.151359 0.057128 0)
(0.159617 0.056442 0)
(0.171368 0.0571485 0)
(0.185274 0.0568456 0)
(0.197192 0.0579857 0)
(0.18256 0.0584116 0)
(0.0540127 0.0591864 0)
(-0.101175 0.0599532 0)
(-0.161649 0.0605482 0)
(-0.186907 0.0595252 0)
(-0.203912 0.063647 0)
(-0.22042 0.061027 0)
(-0.233069 0.0705346 0)
(-0.257807 0.0628077 0)
(1.50532 0.245522 0)
(1.51066 0.235144 0)
(1.51531 0.236493 0)
(1.51823 0.247506 0)
(1.54021 0.24031 0)
(1.51074 0.234232 0)
(1.4759 0.202272 0)
(1.41716 0.154024 0)
(1.28291 0.127941 0)
(1.14954 0.136573 0)
(1.03674 0.168826 0)
(0.927834 0.2664 0)
(0.809949 0.385691 0)
(0.720089 0.422408 0)
(0.670029 0.397985 0)
(0.631454 0.34659 0)
(0.587301 0.287367 0)
(0.533598 0.233428 0)
(0.46787 0.188341 0)
(0.374732 0.147253 0)
(0.250476 0.108766 0)
(0.161435 0.0857219 0)
(0.138516 0.0791689 0)
(0.137946 0.0771406 0)
(0.14088 0.075849 0)
(0.145056 0.0746626 0)
(0.151019 0.0744082 0)
(0.159685 0.073519 0)
(0.1716 0.0743864 0)
(0.185605 0.0739918 0)
(0.197566 0.0753697 0)
(0.182992 0.0760026 0)
(0.0550296 0.0769386 0)
(-0.100094 0.0779165 0)
(-0.160857 0.0787936 0)
(-0.18704 0.0774543 0)
(-0.203744 0.0835725 0)
(-0.220929 0.079117 0)
(-0.23306 0.0895764 0)
(-0.257395 0.0815501 0)
(1.43332 0.307966 0)
(1.43772 0.298775 0)
(1.44094 0.301464 0)
(1.43535 0.312895 0)
(1.45859 0.300352 0)
(1.42587 0.282547 0)
(1.37999 0.247648 0)
(1.30869 0.192705 0)
(1.18338 0.181457 0)
(1.05656 0.205084 0)
(0.91757 0.279321 0)
(0.784867 0.417191 0)
(0.672901 0.487676 0)
(0.614959 0.479145 0)
(0.5873 0.436492 0)
(0.562993 0.376547 0)
(0.52939 0.315321 0)
(0.485023 0.261069 0)
(0.424811 0.213545 0)
(0.33256 0.167047 0)
(0.217695 0.12467 0)
(0.149814 0.102774 0)
(0.135682 0.0968512 0)
(0.136414 0.0946514 0)
(0.139551 0.0930744 0)
(0.144192 0.0916906 0)
(0.150779 0.0914494 0)
(0.15997 0.0903538 0)
(0.172135 0.0913588 0)
(0.186312 0.0908738 0)
(0.198409 0.0924118 0)
(0.184037 0.0932451 0)
(0.0572744 0.0942319 0)
(-0.0972404 0.0953181 0)
(-0.157818 0.0965925 0)
(-0.184548 0.0950598 0)
(-0.200542 0.102723 0)
(-0.217995 0.0970861 0)
(-0.22941 0.10802 0)
(-0.253452 0.0997485 0)
(1.33522 0.361197 0)
(1.33809 0.357999 0)
(1.33518 0.364005 0)
(1.32598 0.358431 0)
(1.32129 0.332126 0)
(1.29443 0.298861 0)
(1.24798 0.263171 0)
(1.15874 0.251815 0)
(1.03376 0.274232 0)
(0.886665 0.327235 0)
(0.737194 0.44572 0)
(0.612996 0.540666 0)
(0.545567 0.55002 0)
(0.524166 0.518168 0)
(0.515571 0.459823 0)
(0.500225 0.394666 0)
(0.473561 0.334612 0)
(0.435665 0.281592 0)
(0.377823 0.232163 0)
(0.285685 0.181194 0)
(0.186264 0.138341 0)
(0.140615 0.119565 0)
(0.13316 0.114237 0)
(0.134592 0.111835 0)
(0.137858 0.109936 0)
(0.142916 0.10838 0)
(0.150033 0.108191 0)
(0.159646 0.106914 0)
(0.171964 0.108055 0)
(0.186213 0.107497 0)
(0.198311 0.109145 0)
(0.183856 0.110169 0)
(0.0574856 0.111232 0)
(-0.0970141 0.112467 0)
(-0.15788 0.114208 0)
(-0.185651 0.112626 0)
(-0.201473 0.121551 0)
(-0.219318 0.115166 0)
(-0.230105 0.126524 0)
(-0.253881 0.118076 0)
(1.20303 0.412273 0)
(1.2034 0.407439 0)
(1.19431 0.398726 0)
(1.17822 0.382528 0)
(1.15779 0.361968 0)
(1.12099 0.34469 0)
(1.05378 0.338536 0)
(0.949351 0.359862 0)
(0.809404 0.398495 0)
(0.648321 0.485147 0)
(0.524949 0.585304 0)
(0.46141 0.606936 0)
(0.447489 0.587301 0)
(0.452556 0.53167 0)
(0.453373 0.464265 0)
(0.441801 0.401678 0)
(0.419999 0.345209 0)
(0.38594 0.293883 0)
(0.327172 0.242239 0)
(0.236589 0.188193 0)
(0.15889 0.149543 0)
(0.13279 0.135574 0)
(0.130277 0.131112 0)
(0.132472 0.12847 0)
(0.136324 0.126279 0)
(0.142167 0.124573 0)
(0.150124 0.124438 0)
(0.160401 0.122964 0)
(0.173065 0.124227 0)
(0.187532 0.123597 0)
(0.199846 0.125303 0)
(0.185716 0.12651 0)
(0.0610936 0.127652 0)
(-0.0927137 0.12898 0)
(-0.153559 0.131302 0)
(-0.182081 0.12991 0)
(-0.197616 0.139779 0)
(-0.21582 0.133058 0)
(-0.226006 0.144587 0)
(-0.24983 0.135853 0)
(1.02505 0.451763 0)
(1.02329 0.443466 0)
(1.00619 0.445097 0)
(0.98343 0.439979 0)
(0.951344 0.427578 0)
(0.895662 0.418969 0)
(0.801289 0.434939 0)
(0.668029 0.474663 0)
(0.51303 0.545676 0)
(0.404466 0.635504 0)
(0.362365 0.659274 0)
(0.359383 0.638845 0)
(0.376982 0.588639 0)
(0.392565 0.524978 0)
(0.394474 0.462885 0)
(0.385859 0.404694 0)
(0.368241 0.351914 0)
(0.335091 0.301573 0)
(0.272753 0.246697 0)
(0.190029 0.192617 0)
(0.139269 0.161817 0)
(0.127395 0.151568 0)
(0.127334 0.147278 0)
(0.12976 0.144284 0)
(0.134032 0.141924 0)
(0.14044 0.140191 0)
(0.148978 0.140231 0)
(0.159655 0.138677 0)
(0.172463 0.140089 0)
(0.187002 0.139431 0)
(0.199343 0.14116 0)
(0.185171 0.142507 0)
(0.0613369 0.143726 0)
(-0.0919404 0.145347 0)
(-0.152556 0.148439 0)
(-0.1817 0.147177 0)
(-0.196809 0.157828 0)
(-0.215212 0.150994 0)
(-0.22457 0.162776 0)
(-0.248349 0.153818 0)
(0.793868 0.479377 0)
(0.787021 0.484669 0)
(0.766212 0.490626 0)
(0.738402 0.481983 0)
(0.684462 0.477182 0)
(0.594711 0.50214 0)
(0.472396 0.555081 0)
(0.344382 0.622003 0)
(0.266437 0.683383 0)
(0.252671 0.696085 0)
(0.26796 0.6726 0)
(0.297563 0.626319 0)
(0.323868 0.569752 0)
(0.337063 0.511775 0)
(0.339328 0.454732 0)
(0.33424 0.401795 0)
(0.319122 0.352339 0)
(0.283031 0.300237 0)
(0.217133 0.2421 0)
(0.151481 0.194777 0)
(0.125561 0.174604 0)
(0.122481 0.167342 0)
(0.124168 0.163264 0)
(0.127486 0.160031 0)
(0.132788 0.157692 0)
(0.140206 0.155974 0)
(0.149679 0.156172 0)
(0.160975 0.154556 0)
(0.17408 0.156048 0)
(0.18876 0.155339 0)
(0.20122 0.157021 0)
(0.187397 0.158485 0)
(0.0656833 0.159713 0)
(-0.0868897 0.161394 0)
(-0.147734 0.165254 0)
(-0.177896 0.164114 0)
(-0.19289 0.17532 0)
(-0.211676 0.168511 0)
(-0.220376 0.180425 0)
(-0.244354 0.171311 0)
(0.497474 0.487063 0)
(0.478553 0.509368 0)
(0.459274 0.510329 0)
(0.414917 0.528499 0)
(0.346933 0.570153 0)
(0.258252 0.625824 0)
(0.18162 0.680187 0)
(0.144805 0.712314 0)
(0.151063 0.711554 0)
(0.181873 0.688259 0)
(0.217385 0.649364 0)
(0.249506 0.602759 0)
(0.27056 0.551644 0)
(0.282209 0.497842 0)
(0.288234 0.445295 0)
(0.286698 0.396683 0)
(0.269806 0.348951 0)
(0.226498 0.294392 0)
(0.164838 0.237975 0)
(0.125863 0.202119 0)
(0.117138 0.189171 0)
(0.117705 0.183577 0)
(0.119952 0.179323 0)
(0.12386 0.175957 0)
(0.129906 0.173745 0)
(0.138041 0.172108 0)
(0.148153 0.172557 0)
(0.159828 0.17099 0)
(0.173085 0.17253 0)
(0.187816 0.171801 0)
(0.200225 0.173405 0)
(0.186453 0.174872 0)
(0.0661096 0.175954 0)
(-0.0855783 0.177721 0)
(-0.146127 0.182362 0)
(-0.177104 0.181277 0)
(-0.191921 0.192877 0)
(-0.210723 0.186059 0)
(-0.218145 0.198142 0)
(-0.241714 0.189074 0)
(0.158143 0.519231 0)
(0.152434 0.549703 0)
(0.142619 0.573603 0)
(0.118557 0.613047 0)
(0.0863024 0.657703 0)
(0.0599048 0.693655 0)
(0.0543753 0.712412 0)
(0.0717663 0.710512 0)
(0.104282 0.691871 0)
(0.141143 0.66188 0)
(0.176261 0.623481 0)
(0.203758 0.577717 0)
(0.222785 0.527507 0)
(0.235754 0.4785 0)
(0.242819 0.434234 0)
(0.238996 0.390987 0)
(0.216394 0.339845 0)
(0.170291 0.275842 0)
(0.124171 0.22674 0)
(0.109372 0.210607 0)
(0.109766 0.202538 0)
(0.11269 0.19637 0)
(0.116328 0.191097 0)
(0.121647 0.187088 0)
(0.128975 0.184478 0)
(0.138228 0.182378 0)
(0.149204 0.182662 0)
(0.161432 0.180783 0)
(0.174908 0.182079 0)
(0.189667 0.181037 0)
(0.202125 0.182484 0)
(0.188505 0.183722 0)
(0.069724 0.183976 0)
(-0.0812929 0.183931 0)
(-0.140459 0.188716 0)
(-0.171009 0.189666 0)
(-0.184638 0.204701 0)
(-0.203625 0.20055 0)
(-0.210567 0.213801 0)
(-0.234405 0.205518 0)
(-0.0340667 0.537032 0)
(-0.019499 0.559038 0)
(-0.0125448 0.590766 0)
(-0.0050453 0.622824 0)
(0.00333363 0.650108 0)
(0.0138938 0.675705 0)
(0.0279225 0.690058 0)
(0.0500797 0.684932 0)
(0.0794033 0.664185 0)
(0.110484 0.63256 0)
(0.137802 0.593123 0)
(0.157637 0.547967 0)
(0.174076 0.501812 0)
(0.188677 0.457218 0)
(0.198576 0.411451 0)
(0.193138 0.356399 0)
(0.162939 0.295116 0)
(0.117702 0.252505 0)
(0.0979376 0.221908 0)
(0.0982588 0.202114 0)
(0.1024 0.190449 0)
(0.106296 0.180938 0)
(0.110994 0.172521 0)
(0.11774 0.165872 0)
(0.126404 0.16102 0)
(0.136858 0.15684 0)
(0.148761 0.155905 0)
(0.161781 0.152516 0)
(0.17551 0.152878 0)
(0.190379 0.150811 0)
(0.20298 0.151927 0)
(0.188291 0.151451 0)
(0.0691951 0.146614 0)
(-0.0770342 0.145061 0)
(-0.131228 0.158329 0)
(-0.161936 0.172213 0)
(-0.173307 0.197816 0)
(-0.194662 0.205623 0)
(-0.202376 0.226705 0)
(-0.228118 0.222586 0)
(-0.0730835 0.522251 0)
(-0.0538325 0.535424 0)
(-0.0418436 0.565903 0)
(-0.0207539 0.594783 0)
(-0.000468773 0.623641 0)
(0.0182286 0.649888 0)
(0.0249227 0.660869 0)
(0.0335202 0.652381 0)
(0.0516376 0.626918 0)
(0.0726405 0.589179 0)
(0.0929197 0.546003 0)
(0.110958 0.499653 0)
(0.13012 0.450928 0)
(0.145077 0.398255 0)
(0.14734 0.342157 0)
(0.124996 0.283887 0)
(0.0896603 0.217965 0)
(0.0734104 0.157651 0)
(0.0771526 0.123886 0)
(0.0828684 0.101756 0)
(0.0886112 0.0830434 0)
(0.0942173 0.066426 0)
(0.10105 0.0524993 0)
(0.109887 0.0416955 0)
(0.120263 0.0337205 0)
(0.132381 0.0265684 0)
(0.146067 0.024382 0)
(0.159073 0.0189042 0)
(0.173782 0.0184004 0)
(0.189334 0.0154994 0)
(0.201707 0.0167081 0)
(0.183467 0.0147015 0)
(0.0667756 0.0131404 0)
(-0.061504 0.0271498 0)
(-0.101832 0.064697 0)
(-0.132113 0.105873 0)
(-0.142099 0.155467 0)
(-0.16831 0.189646 0)
(-0.181274 0.228704 0)
(-0.213415 0.237891 0)
(-0.0761783 0.503285 0)
(-0.0543551 0.507722 0)
(-0.04025 0.53241 0)
(-0.0144482 0.555265 0)
(0.00880446 0.577937 0)
(0.0303698 0.596299 0)
(0.0255692 0.603374 0)
(0.0144889 0.585633 0)
(0.0114081 0.545265 0)
(0.0203705 0.488364 0)
(0.0388484 0.424425 0)
(0.0573677 0.359202 0)
(0.0747682 0.297 0)
(0.0783259 0.235096 0)
(0.0707844 0.166657 0)
(0.0548798 0.0936189 0)
(0.0449967 0.034076 0)
(0.0466047 -0.00151526 0)
(0.0557822 -0.0219938 0)
(0.0653788 -0.0390943 0)
(0.0737566 -0.0547513 0)
(0.0817596 -0.0684429 0)
(0.091051 -0.0793263 0)
(0.102027 -0.0874869 0)
(0.114398 -0.0927415 0)
(0.127673 -0.0982663 0)
(0.142359 -0.0988624 0)
(0.156192 -0.102928 0)
(0.171594 -0.102416 0)
(0.187827 -0.104336 0)
(0.199184 -0.10207 0)
(0.180368 -0.101738 0)
(0.0778327 -0.088966 0)
(-0.0317956 -0.0602784 0)
(-0.0622323 -0.0119148 0)
(-0.0909133 0.0361652 0)
(-0.0960125 0.0941381 0)
(-0.120386 0.149454 0)
(-0.13766 0.213693 0)
(-0.179111 0.246177 0)
(-0.0671962 0.479679 0)
(-0.0468161 0.468711 0)
(-0.0395614 0.466337 0)
(-0.0154938 0.459708 0)
(0.00866749 0.453647 0)
(0.0238532 0.43567 0)
(0.0127562 0.41407 0)
(-0.0223992 0.383971 0)
(-0.0410793 0.334408 0)
(-0.0336075 0.279815 0)
(-0.0163137 0.231535 0)
(-4.96151e-05 0.186003 0)
(0.0155948 0.139483 0)
(0.0225164 0.0827815 0)
(0.0168373 0.0212693 0)
(0.00888999 -0.0278311 0)
(0.0153997 -0.0566106 0)
(0.0276312 -0.0745488 0)
(0.0411002 -0.0889152 0)
(0.0531867 -0.101516 0)
(0.0630446 -0.113265 0)
(0.072736 -0.123939 0)
(0.0838867 -0.132385 0)
(0.0965042 -0.138612 0)
(0.110246 -0.141898 0)
(0.124897 -0.146128 0)
(0.140701 -0.145483 0)
(0.156021 -0.148207 0)
(0.172398 -0.147058 0)
(0.18975 -0.148217 0)
(0.201754 -0.144276 0)
(0.188625 -0.141232 0)
(0.110735 -0.117489 0)
(0.0170223 -0.0764775 0)
(-0.0102398 -0.0232987 0)
(-0.0348869 0.0240534 0)
(-0.0365748 0.0793563 0)
(-0.0593205 0.133665 0)
(-0.0746931 0.200577 0)
(-0.115745 0.237617 0)
(-0.0800816 0.457842 0)
(-0.0621107 0.416979 0)
(-0.052213 0.378376 0)
(-0.0279776 0.348534 0)
(-0.000617964 0.323426 0)
(0.00558137 0.28946 0)
(0.000123707 0.254902 0)
(-0.0461282 0.22264 0)
(-0.073969 0.185162 0)
(-0.0685641 0.152005 0)
(-0.0474797 0.120037 0)
(-0.03147 0.0781093 0)
(-0.0210701 0.0311621 0)
(-0.0220822 -0.0142943 0)
(-0.0225494 -0.051634 0)
(-0.0143256 -0.0776269 0)
(7.3122e-05 -0.0938875 0)
(0.0155852 -0.106969 0)
(0.0298624 -0.11864 0)
(0.0424823 -0.128712 0)
(0.0534279 -0.138423 0)
(0.0641572 -0.148071 0)
(0.076408 -0.156065 0)
(0.0901467 -0.162093 0)
(0.104823 -0.165208 0)
(0.120068 -0.169974 0)
(0.136402 -0.169653 0)
(0.152471 -0.172595 0)
(0.169153 -0.172128 0)
(0.18649 -0.174041 0)
(0.200019 -0.170194 0)
(0.194719 -0.167151 0)
(0.143983 -0.143627 0)
(0.0637882 -0.102968 0)
(0.0366255 -0.0470552 0)
(0.0163162 0.00555308 0)
(0.0209647 0.069404 0)
(0.000622411 0.143746 0)
(-0.00487233 0.218348 0)
(-0.0313119 0.255135 0)
(-0.10276 0.438313 0)
(-0.0959348 0.38808 0)
(-0.0924917 0.345386 0)
(-0.0725172 0.307172 0)
(-0.0455093 0.26673 0)
(-0.0450524 0.220547 0)
(-0.0474422 0.173967 0)
(-0.0952741 0.139837 0)
(-0.117599 0.107868 0)
(-0.11108 0.0790248 0)
(-0.0936545 0.0508824 0)
(-0.0826512 0.01684 0)
(-0.0749272 -0.0198613 0)
(-0.0686699 -0.0533826 0)
(-0.0559879 -0.0782585 0)
(-0.0389052 -0.0960747 0)
(-0.0203049 -0.111367 0)
(-0.00200159 -0.125497 0)
(0.0151827 -0.138049 0)
(0.030718 -0.148252 0)
(0.0444909 -0.157357 0)
(0.0575652 -0.166695 0)
(0.0722449 -0.174925 0)
(0.0888884 -0.180833 0)
(0.1063 -0.183115 0)
(0.123672 -0.187519 0)
(0.141528 -0.186697 0)
(0.158806 -0.189034 0)
(0.176352 -0.188222 0)
(0.19411 -0.189873 0)
(0.209848 -0.185839 0)
(0.211703 -0.18043 0)
(0.182977 -0.15739 0)
(0.119379 -0.113045 0)
(0.0912611 -0.0525552 0)
(0.0790147 0.00445552 0)
(0.0867206 0.0724767 0)
(0.0760163 0.148294 0)
(0.0775726 0.220231 0)
(0.0495952 0.25152 0)
(-0.125471 0.445501 0)
(-0.144101 0.402165 0)
(-0.141998 0.331209 0)
(-0.111681 0.276922 0)
(-0.0852516 0.221504 0)
(-0.0730059 0.167295 0)
(-0.076203 0.113176 0)
(-0.110892 0.0715432 0)
(-0.126086 0.0392293 0)
(-0.122527 0.0109003 0)
(-0.110938 -0.0157805 0)
(-0.103107 -0.0442206 0)
(-0.0932095 -0.0686525 0)
(-0.0808174 -0.0904769 0)
(-0.0637308 -0.106151 0)
(-0.0453797 -0.120605 0)
(-0.0271899 -0.134602 0)
(-0.0100049 -0.14759 0)
(0.00567276 -0.158733 0)
(0.0204701 -0.167111 0)
(0.0350848 -0.174589 0)
(0.0499203 -0.182855 0)
(0.0651444 -0.191084 0)
(0.0813361 -0.197253 0)
(0.0982205 -0.199452 0)
(0.115139 -0.204017 0)
(0.132846 -0.203378 0)
(0.150313 -0.205697 0)
(0.168105 -0.205047 0)
(0.185914 -0.206567 0)
(0.202667 -0.202829 0)
(0.212386 -0.198808 0)
(0.205483 -0.179856 0)
(0.169564 -0.13824 0)
(0.143804 -0.0780818 0)
(0.151259 -0.016435 0)
(0.156923 0.0603371 0)
(0.171718 0.158074 0)
(0.167274 0.280916 0)
(0.0901912 0.32191 0)
(-0.4386 0.38814 0)
(-0.269074 0.434695 0)
(-0.238246 0.337932 0)
(-0.177546 0.274191 0)
(-0.155864 0.206021 0)
(-0.140686 0.140493 0)
(-0.146297 0.0760534 0)
(-0.16729 0.0267223 0)
(-0.170754 -0.00745123 0)
(-0.163024 -0.0344073 0)
(-0.148023 -0.0544214 0)
(-0.13565 -0.075611 0)
(-0.120063 -0.0911084 0)
(-0.10293 -0.104899 0)
(-0.0844159 -0.117513 0)
(-0.0655742 -0.13106 0)
(-0.0475577 -0.145088 0)
(-0.0298868 -0.158645 0)
(-0.0125456 -0.170706 0)
(0.00532122 -0.180713 0)
(0.0251986 -0.19027 0)
(0.0471676 -0.198138 0)
(0.0683099 -0.203887 0)
(0.0877043 -0.207946 0)
(0.106174 -0.208568 0)
(0.123934 -0.212252 0)
(0.141999 -0.210916 0)
(0.15987 -0.212306 0)
(0.177742 -0.210963 0)
(0.19555 -0.21139 0)
(0.212472 -0.206914 0)
(0.227194 -0.203173 0)
(0.233945 -0.187961 0)
(0.223811 -0.152364 0)
(0.208258 -0.092778 0)
(0.222733 -0.0225745 0)
(0.223224 0.0606257 0)
(0.287009 0.149995 0)
(0.308596 0.299797 0)
(0.390742 0.314783 0)
(-0.827657 0.889462 0)
(-0.311179 0.557225 0)
(-0.291476 0.272578 0)
(-0.2136 0.253439 0)
(-0.196592 0.186276 0)
(-0.177312 0.106229 0)
(-0.179513 0.0248348 0)
(-0.186026 -0.0367855 0)
(-0.182954 -0.072204 0)
(-0.17296 -0.0961741 0)
(-0.156818 -0.110059 0)
(-0.14163 -0.123768 0)
(-0.122219 -0.131809 0)
(-0.103149 -0.140876 0)
(-0.0843271 -0.151234 0)
(-0.0660777 -0.163649 0)
(-0.0482017 -0.176977 0)
(-0.0304712 -0.189856 0)
(-0.0126269 -0.201062 0)
(0.00561332 -0.210169 0)
(0.0236607 -0.219177 0)
(0.0422188 -0.225663 0)
(0.0607078 -0.229347 0)
(0.0788824 -0.231841 0)
(0.0969938 -0.231456 0)
(0.114757 -0.234453 0)
(0.132632 -0.23285 0)
(0.15031 -0.233886 0)
(0.167943 -0.232502 0)
(0.185674 -0.232517 0)
(0.202757 -0.228084 0)
(0.220015 -0.225124 0)
(0.236069 -0.214636 0)
(0.248528 -0.188171 0)
(0.242903 -0.132738 0)
(0.257463 -0.0491436 0)
(0.252138 0.0338154 0)
(0.323095 0.0773022 0)
(0.32045 0.375712 0)
(0.771097 0.774686 0)
(-0.827657 -0.889462 0)
(-0.311179 -0.557225 0)
(-0.291476 -0.272578 0)
(-0.2136 -0.253439 0)
(-0.196592 -0.186276 0)
(-0.177312 -0.106229 0)
(-0.179513 -0.0248348 0)
(-0.186026 0.0367855 0)
(-0.182954 0.072204 0)
(-0.17296 0.0961741 0)
(-0.156818 0.110059 0)
(-0.14163 0.123768 0)
(-0.122219 0.131809 0)
(-0.103149 0.140876 0)
(-0.0843271 0.151234 0)
(-0.0660777 0.163649 0)
(-0.0482017 0.176977 0)
(-0.0304712 0.189856 0)
(-0.0126269 0.201062 0)
(0.00561332 0.210169 0)
(0.0236607 0.219177 0)
(0.0422188 0.225663 0)
(0.0607078 0.229347 0)
(0.0788824 0.231841 0)
(0.0969938 0.231456 0)
(0.114757 0.234453 0)
(0.132632 0.23285 0)
(0.15031 0.233886 0)
(0.167943 0.232502 0)
(0.185674 0.232517 0)
(0.202757 0.228084 0)
(0.220015 0.225124 0)
(0.236069 0.214636 0)
(0.248528 0.188171 0)
(0.242903 0.132738 0)
(0.257463 0.0491436 0)
(0.252138 -0.0338154 0)
(0.323095 -0.0773022 0)
(0.32045 -0.375712 0)
(0.771097 -0.774686 0)
(-0.4386 -0.38814 0)
(-0.269074 -0.434695 0)
(-0.238246 -0.337932 0)
(-0.177546 -0.274191 0)
(-0.155864 -0.206021 0)
(-0.140686 -0.140493 0)
(-0.146297 -0.0760534 0)
(-0.16729 -0.0267223 0)
(-0.170754 0.00745123 0)
(-0.163024 0.0344073 0)
(-0.148023 0.0544214 0)
(-0.13565 0.075611 0)
(-0.120063 0.0911084 0)
(-0.10293 0.104899 0)
(-0.0844159 0.117513 0)
(-0.0655742 0.13106 0)
(-0.0475577 0.145088 0)
(-0.0298868 0.158645 0)
(-0.0125456 0.170706 0)
(0.00532122 0.180713 0)
(0.0251986 0.19027 0)
(0.0471676 0.198138 0)
(0.0683099 0.203887 0)
(0.0877043 0.207946 0)
(0.106174 0.208568 0)
(0.123934 0.212252 0)
(0.141999 0.210916 0)
(0.15987 0.212306 0)
(0.177742 0.210963 0)
(0.19555 0.21139 0)
(0.212472 0.206914 0)
(0.227194 0.203173 0)
(0.233945 0.187961 0)
(0.223811 0.152364 0)
(0.208258 0.092778 0)
(0.222733 0.0225745 0)
(0.223224 -0.0606257 0)
(0.287009 -0.149995 0)
(0.308596 -0.299797 0)
(0.390742 -0.314783 0)
(-0.125471 -0.445501 0)
(-0.144101 -0.402165 0)
(-0.141998 -0.331209 0)
(-0.111681 -0.276922 0)
(-0.0852516 -0.221504 0)
(-0.0730059 -0.167295 0)
(-0.076203 -0.113176 0)
(-0.110892 -0.0715432 0)
(-0.126086 -0.0392293 0)
(-0.122527 -0.0109003 0)
(-0.110938 0.0157805 0)
(-0.103107 0.0442206 0)
(-0.0932095 0.0686525 0)
(-0.0808174 0.0904769 0)
(-0.0637308 0.106151 0)
(-0.0453797 0.120605 0)
(-0.0271899 0.134602 0)
(-0.0100049 0.14759 0)
(0.00567276 0.158733 0)
(0.0204701 0.167111 0)
(0.0350848 0.174589 0)
(0.0499203 0.182855 0)
(0.0651444 0.191084 0)
(0.0813361 0.197253 0)
(0.0982205 0.199452 0)
(0.115139 0.204017 0)
(0.132846 0.203378 0)
(0.150313 0.205697 0)
(0.168105 0.205047 0)
(0.185914 0.206567 0)
(0.202667 0.202829 0)
(0.212386 0.198808 0)
(0.205483 0.179856 0)
(0.169564 0.13824 0)
(0.143804 0.0780818 0)
(0.151259 0.016435 0)
(0.156923 -0.0603371 0)
(0.171718 -0.158074 0)
(0.167274 -0.280916 0)
(0.0901912 -0.32191 0)
(-0.10276 -0.438313 0)
(-0.0959348 -0.38808 0)
(-0.0924917 -0.345386 0)
(-0.0725172 -0.307172 0)
(-0.0455093 -0.26673 0)
(-0.0450524 -0.220547 0)
(-0.0474422 -0.173967 0)
(-0.0952741 -0.139837 0)
(-0.117599 -0.107868 0)
(-0.11108 -0.0790248 0)
(-0.0936545 -0.0508824 0)
(-0.0826512 -0.01684 0)
(-0.0749272 0.0198613 0)
(-0.0686699 0.0533826 0)
(-0.0559879 0.0782585 0)
(-0.0389052 0.0960747 0)
(-0.0203049 0.111367 0)
(-0.00200159 0.125497 0)
(0.0151827 0.138049 0)
(0.030718 0.148252 0)
(0.0444909 0.157357 0)
(0.0575652 0.166695 0)
(0.0722449 0.174925 0)
(0.0888884 0.180833 0)
(0.1063 0.183115 0)
(0.123672 0.187519 0)
(0.141528 0.186697 0)
(0.158806 0.189034 0)
(0.176352 0.188222 0)
(0.19411 0.189873 0)
(0.209848 0.185839 0)
(0.211703 0.18043 0)
(0.182977 0.15739 0)
(0.119379 0.113045 0)
(0.0912611 0.0525552 0)
(0.0790147 -0.00445552 0)
(0.0867206 -0.0724767 0)
(0.0760163 -0.148294 0)
(0.0775726 -0.220231 0)
(0.0495952 -0.25152 0)
(-0.0800816 -0.457842 0)
(-0.0621107 -0.416979 0)