/*--------------------------------*- C++ -*----------------------------------*\
| =========                 |                                                 |
| \\      /  F ield         | OpenFOAM: The Open Source CFD Toolbox           |
|  \\    /   O peration     | Version:  v1912                                 |
|   \\  /    A nd           | Website:  www.openfoam.com                      |
|    \\/     M anipulation  |                                                 |
\*---------------------------------------------------------------------------*/
FoamFile
{
    version     2.0;
    format      ascii;
    class       volScalarField;
    location    "2.7";
    object      p;
}
// * * * * * * * * * * * * * * * * * * * * * * * * * * * * * * * * * * * * * //

dimensions      [0 2 -2 0 0 0 0];


internalField   nonuniform List<scalar> 
10000
(
7.10185e-06
0.000108088
-0.000114681
-0.00070433
-0.00161042
-0.00277654
-0.00414548
-0.00566233
-0.00727731
-0.00894641
-0.010631
-0.0122973
-0.013916
-0.0154617
-0.0169123
-0.0182488
-0.019455
-0.0205171
-0.0214236
-0.0221647
-0.0227327
-0.0231213
-0.0233259
-0.0233431
-0.0231707
-0.0228079
-0.0222546
-0.0215121
-0.0205821
-0.0194674
-0.0181717
-0.0166991
-0.0150546
-0.0132437
-0.0112725
-0.00914767
-0.00687633
-0.00446609
-0.001925
0.000738474
0.0035155
0.00639687
0.00937306
0.0124342
0.0155703
0.0187709
0.0220255
0.0253232
0.0286531
0.0320039
0.0353646
0.0387236
0.0420697
0.0453913
0.0486769
0.0519152
0.0550948
0.0582044
0.0612329
0.0641694
0.0670032
0.0697239
0.0723214
0.074786
0.0771084
0.0792798
0.0812919
0.083137
0.0848081
0.0862988
0.0876036
0.0887177
0.0896373
0.0903595
0.0908825
0.0912055
0.091329
0.0912547
0.0909857
0.0905264
0.089883
0.089063
0.088076
0.0869333
0.0856484
0.0842368
0.0827166
0.0811086
0.0794364
0.0777268
0.0760105
0.074322
0.0727001
0.0711889
0.069837
0.0686973
0.067824
0.0672684
0.0670732
0.0671843
-8.33963e-05
1.36303e-05
-0.000203687
-0.000730635
-0.00151606
-0.00252038
-0.00370169
-0.00501658
-0.0064238
-0.00788554
-0.00936759
-0.0108394
-0.012274
-0.0136474
-0.0149387
-0.0161298
-0.0172048
-0.0181504
-0.0189549
-0.0196088
-0.0201041
-0.0204345
-0.020595
-0.020582
-0.0203931
-0.0200268
-0.0194829
-0.0187621
-0.0178658
-0.0167963
-0.0155569
-0.0141511
-0.0125836
-0.0108593
-0.00898386
-0.00696344
-0.00480469
-0.00251472
-0.000101073
0.00242831
0.0050651
0.00780061
0.0106258
0.0135315
0.016508
0.0195455
0.022634
0.0257633
0.0289229
0.0321022
0.0352907
0.0384774
0.0416516
0.0448024
0.047919
0.0509905
0.0540063
0.0569556
0.059828
0.0626132
0.0653012
0.0678821
0.0703466
0.0726854
0.0748901
0.0769523
0.0788645
0.0806194
0.0822107
0.0836326
0.08488
0.0859488
0.0868356
0.087538
0.0880546
0.088385
0.08853
0.0884917
0.0882733
0.0878796
0.0873167
0.0865922
0.0857157
0.0846981
0.0835527
0.0822946
0.0809409
0.0795116
0.0780289
0.0765177
0.0750062
0.0735254
0.0721098
0.0707968
0.0696268
0.0686414
0.06788
0.0673786
0.0671838
0.0672954
0.000140959
0.000232164
1.49203e-05
-0.000479795
-0.00119664
-0.00210263
-0.00316381
-0.00434403
-0.00560822
-0.00692347
-0.00825946
-0.00958862
-0.0108861
-0.0121298
-0.0133
-0.0143795
-0.0153532
-0.016208
-0.0169328
-0.0175182
-0.0179562
-0.0182405
-0.018366
-0.018329
-0.0181268
-0.0177578
-0.0172215
-0.0165183
-0.0156493
-0.0146166
-0.0134228
-0.0120714
-0.0105666
-0.00891284
-0.00711549
-0.00518029
-0.00311348
-0.000921778
0.0013877
0.00380742
0.00632948
0.00894565
0.0116474
0.0144257
0.0172716
0.0201757
0.0231284
0.0261198
0.0291401
0.0321792
0.0352269
0.0382728
0.0413067
0.0443181
0.0472968
0.0502323
0.0531146
0.0559334
0.0586788
0.0613409
0.0639104
0.0663778
0.0687343
0.0709713
0.0730806
0.0750546
0.0768859
0.078568
0.0800949
0.0814613
0.0826626
0.0836948
0.0845552
0.0852415
0.0857528
0.0860888
0.0862507
0.0862407
0.0860621
0.0857197
0.0852197
0.0845696
0.0837787
0.0828577
0.0818194
0.0806782
0.0794506
0.0781553
0.076813
0.075447
0.074083
0.0727489
0.0714754
0.0702949
0.0692419
0.0683511
0.0676544
0.0671823
0.0669882
0.0671011
0.000729782
0.000760178
0.000510656
1.50933e-05
-0.000675329
-0.00153073
-0.0025215
-0.00361646
-0.00478515
-0.00599872
-0.00723021
-0.00845478
-0.00964984
-0.010795
-0.0118719
-0.0128645
-0.0137585
-0.0145415
-0.0152027
-0.015733
-0.0161248
-0.0163717
-0.0164689
-0.0164124
-0.0161996
-0.0158289
-0.0152993
-0.0146112
-0.0137654
-0.0127638
-0.0116088
-0.0103036
-0.00885194
-0.00725819
-0.00552724
-0.00366454
-0.001676
0.000432018
0.00265274
0.00497899
0.00740325
0.00991765
0.012514
0.0151838
0.0179184
0.0207087
0.0235455
0.0264195
0.0293212
0.0322408
0.0351686
0.0380948
0.0410093
0.0439022
0.0467637
0.0495839
0.0523529
0.055061
0.0576988
0.0602569
0.0627262
0.0650978
0.0673632
0.0695142
0.0715432
0.0734428
0.0752062
0.0768271
0.0782999
0.0796197
0.0807822
0.0817837
0.0826218
0.0832944
0.0838008
0.084141
0.0843162
0.0843287
0.0841819
0.0838805
0.0834306
0.0828395
0.0821163
0.0812712
0.0803163
0.0792655
0.0781343
0.0769402
0.0757025
0.0744426
0.0731838
0.0719516
0.070773
0.0696768
0.0686929
0.0678515
0.0671807
0.0667085
0.0664862
0.0665479
0.00163624
0.00154845
0.00122979
0.000704736
1.17925e-05
-0.00082241
-0.00177184
-0.00280968
-0.00390963
-0.00504648
-0.00619644
-0.00733734
-0.0084488
-0.00951222
-0.0105108
-0.0114296
-0.0122553
-0.0129762
-0.0135822
-0.0140645
-0.0144158
-0.01463
-0.0147023
-0.014629
-0.0144073
-0.0140354
-0.0135125
-0.0128387
-0.0120148
-0.0110423
-0.00992346
-0.00866123
-0.0072591
-0.00572117
-0.00405204
-0.00225685
-0.000341188
0.00168889
0.00382695
0.00606613
0.00839926
0.0108188
0.013317
0.0158857
0.0185165
0.0212007
0.0239297
0.0266944
0.0294856
0.0322941
0.0351104
0.0379251
0.0407287
0.0435117
0.0462644
0.0489774
0.0516414
0.0542471
0.0567852
0.059247
0.0616235
0.0639065
0.0660878
0.0681596
0.0701144
0.0719455
0.0736462
0.0752108
0.0766339
0.0779107
0.0790374
0.0800105
0.0808278
0.0814874
0.0819888
0.0823321
0.0825185
0.0825504
0.0824312
0.0821654
0.0817589
0.0812189
0.0805539
0.0797737
0.0788899
0.0779153
0.0768646
0.0757539
0.0746011
0.0734258
0.072249
0.0710936
0.0699835
0.068944
0.068001
0.0671808
0.0665084
0.0660091
0.0657233
0.0656772
0.00280715
0.00255997
0.00214155
0.00156133
0.000840148
1.25577e-06
-0.000932465
-0.00193821
-0.00299344
-0.00407628
-0.00516589
-0.00624264
-0.0072883
-0.0082861
-0.00922078
-0.0100786
-0.0108472
-0.0115158
-0.0120749
-0.0125163
-0.012833
-0.0130193
-0.0130705
-0.0129829
-0.012754
-0.0123819
-0.0118659
-0.0112058
-0.0104024
-0.00945694
-0.00837164
-0.00714917
-0.00579284
-0.00430648
-0.00269447
-0.000961653
0.000886666
0.00284474
0.0049064
0.00706514
0.00931407
0.011646
0.0140535
0.0165287
0.0190636
0.02165
0.0242794
0.0269431
0.0296324
0.0323383
0.0350519
0.0377639
0.0404653
0.0431469
0.0457996
0.0484142
0.0509816
0.0534931
0.0559398
0.0583132
0.0606049
0.0628067
0.064911
0.0669102
0.0687974
0.0705658
0.0722093
0.0737224
0.0751
0.0763376
0.0774314
0.0783785
0.0791764
0.0798237
0.0803199
0.0806651
0.0808606
0.0809087
0.0808127
0.0805771
0.0802074
0.0797104
0.0790943
0.0783683
0.0775433
0.0766312
0.0756457
0.0746016
0.0735153
0.0724045
0.0712882
0.0701866
0.0691211
0.0681136
0.0671866
0.0663626
0.0656637
0.0651125
0.0647331
0.0645379
0.00418948
0.00375615
0.00321479
0.00255777
0.00178606
0.000919693
-2.11793e-05
-0.0010174
-0.00204983
-0.00309964
-0.00414869
-0.00517973
-0.00617661
-0.00712433
-0.00800912
-0.00881849
-0.0095412
-0.0101673
-0.010688
-0.0110956
-0.0113838
-0.011547
-0.0115808
-0.0114819
-0.0112477
-0.0108764
-0.0103674
-0.00972035
-0.008936
-0.00801563
-0.00696116
-0.00577515
-0.00446072
-0.00302152
-0.00146169
0.000214155
0.00200096
0.00389326
0.00588517
0.00797044
0.0101425
0.0123944
0.0147191
0.017109
0.0195564
0.0220535
0.024592
0.0271637
0.0297601
0.0323726
0.0349926
0.0376112
0.0402196
0.0428092
0.0453709
0.0478961
0.050376
0.0528021
0.055166
0.0574594
0.0596742
0.0618028
0.0638375
0.0657712
0.0675973
0.0693092
0.0709012
0.0723679
0.0737044
0.0749066
0.0759707
0.0768939
0.0776741
0.0783098
0.0788004
0.0791464
0.0793488
0.0794099
0.0793329
0.0791218
0.0787822
0.0783203
0.0777438
0.0770614
0.0762831
0.0754201
0.0744849
0.0734911
0.0724536
0.0713884
0.0703124
0.0692436
0.0682007
0.0672028
0.0662692
0.065419
0.064672
0.0640477
0.0635516
0.0631799
0.00573323
0.0050975
0.00441663
0.00366575
0.00282536
0.00191261
0.000945354
-6.05498e-05
-0.00108905
-0.00212407
-0.00314994
-0.00415163
-0.00511495
-0.00602658
-0.00687425
-0.00764672
-0.0083338
-0.00892643
-0.00941658
-0.00979727
-0.0100625
-0.0102073
-0.0102275
-0.0101199
-0.00988218
-0.00951276
-0.00901085
-0.00837637
-0.0076099
-0.00671267
-0.00568652
-0.00453387
-0.00325768
-0.00186145
-0.00034913
0.00127487
0.00300572
0.00483819
0.00676665
0.00878513
0.0108873
0.0130665
0.0153159
0.0176283
0.0199963
0.0224122
0.0248683
0.0273565
0.0298686
0.0323965
0.0349316
0.0374656
0.03999
0.0424962
0.0449758
0.0474202
0.0498212
0.0521704
0.0544596
0.056681
0.0588268
0.0608894
0.0628617
0.0647367
0.0665079
0.0681693
0.0697151
0.0711402
0.0724399
0.0736102
0.0746475
0.0755492
0.076313
0.0769377
0.0774227
0.0777683
0.0779756
0.0780466
0.0779844
0.0777928
0.0774769
0.0770427
0.0764972
0.0758486
0.0751061
0.0742799
0.0733816
0.0724235
0.0714189
0.0703824
0.0693289
0.0682744
0.0672351
0.0662276
0.0652684
0.0643733
0.0635602
0.0628458
0.0622162
0.0616511
0.00739385
0.00654697
0.00571548
0.00485787
0.00393444
0.00295996
0.0019504
0.000918661
-0.000121983
-0.00115792
-0.00217573
-0.00316244
-0.00410568
-0.00499375
-0.00581578
-0.00656177
-0.0072226
-0.00779009
-0.00825699
-0.00861696
-0.00886457
-0.00899523
-0.0090052
-0.00889155
-0.00865211
-0.00828549
-0.00779097
-0.00716853
-0.00641878
-0.00554291
-0.00454271
-0.00342049
-0.0021791
-0.000821872
0.000647381
0.00222442
0.00390461
0.00568292
0.00755397
0.009512
0.011551
0.0136645
0.0158458
0.0180882
0.0203844
0.022727
0.0251086
0.0275215
0.0299577
0.0324092
0.034868
0.0373258
0.0397745
0.0422059
0.0446117
0.0469837
0.0493139
0.0515942
0.0538167
0.0559737
0.0580577
0.0600616
0.0619782
0.0638009
0.0655234
0.0671398
0.0686445
0.0700326
0.0712995
0.0724413
0.0734547
0.0743369
0.0750858
0.0757002
0.0761794
0.0765236
0.0767338
0.076812
0.0767609
0.0765841
0.0762863
0.0758729
0.0753506
0.0747268
0.07401
0.0732096
0.072336
0.0714004
0.0704149
0.0693922
0.0683458
0.0672895
0.0662375
0.0652041
0.0642032
0.0632479
0.0623542
0.0615367
0.0607623
0.0599943
0.0091327
0.00807103
0.00708201
0.00610831
0.00509076
0.00404228
0.00297734
0.00190626
0.000839855
-0.000210482
-0.00123337
-0.0022177
-0.00315278
-0.00402843
-0.00483514
-0.00556407
-0.00620716
-0.00675711
-0.00720745
-0.00755248
-0.00778734
-0.00790791
-0.00791084
-0.00779351
-0.00755399
-0.00719106
-0.00670413
-0.00609326
-0.00535912
-0.0045029
-0.00352636
-0.00243176
-0.00122183
0.000100192
0.00153064
0.00306542
0.00470005
0.00642969
0.00824914
0.0101529
0.0121351
0.0141895
0.0163099
0.0184894
0.0207212
0.0229982
0.0253131
0.0276585
0.0300267
0.03241
0.0348005
0.0371904
0.0395717
0.0419363
0.0442764
0.0465841
0.0488513
0.0510705
0.0532338
0.0553339
0.0573634
0.0593153
0.0611828
0.0629594
0.0646389
0.0662157
0.0676843
0.0690398
0.0702779
0.0713947
0.0723868
0.0732516
0.0739871
0.0745918
0.0750651
0.0754071
0.0756187
0.0757015
0.075658
0.0754917
0.0752066
0.074808
0.0743017
0.0736946
0.0729945
0.0722099
0.0713501
0.0704254
0.0694464
0.0684245
0.0673715
0.0662996
0.0652211
0.0641481
0.0630921
0.0620641
0.0610786
0.0601485
0.0592218
0.0582468
0.0109163
0.00963969
0.00848934
0.00739303
0.00627304
0.0051409
0.00401
0.0028884
0.00178477
0.000708533
-0.00033075
-0.00132366
-0.00226105
-0.00313415
-0.00393471
-0.00465503
-0.00528804
-0.00582733
-0.00626717
-0.00660254
-0.00682911
-0.00694328
-0.00694209
-0.00682326
-0.00658513
-0.00622668
-0.00574749
-0.00514771
-0.00442807
-0.00358982
-0.00263471
-0.00156498
-0.000383297
0.000907202
0.00230296
0.00380002
0.00539403
0.0070803
0.0088538
0.0107092
0.0126408
0.0146428
0.0167088
0.0188325
0.0210072
0.0232259
0.0254816
0.0277672
0.0300751
0.032398
0.0347282
0.037058
0.0393797
0.0416856
0.0439679
0.0462188
0.0484309
0.0505964
0.0527079
0.0547582
0.05674
0.0586466
0.0604714
0.0622079
0.0638502
0.0653926
0.0668299
0.0681572
0.0693703
0.0704653
0.0714389
0.0722885
0.0730119
0.0736077
0.0740753
0.0744144
0.0746258
0.074711
0.0746722
0.0745124
0.0742355
0.0738459
0.0733492
0.0727516
0.07206
0.0712822
0.0704267
0.0695024
0.0685189
0.0674864
0.0664152
0.0653158
0.0641988
0.0630746
0.0619527
0.060842
0.059756
0.0587064
0.0576233
0.0564405
0.012716
0.0112264
0.00991311
0.0086899
0.00746138
0.00623811
0.00503277
0.00385151
0.00270109
0.00158925
0.000523902
-0.000487056
-0.00143588
-0.00231509
-0.00311761
-0.00383681
-0.00446658
-0.00500136
-0.00543616
-0.00576661
-0.00598895
-0.00610004
-0.00609736
-0.00597897
-0.00574352
-0.00539021
-0.0049188
-0.00432956
-0.00362331
-0.00280137
-0.00186551
-0.000817956
0.000338633
0.0016012
0.00296627
0.00443001
0.00598818
0.00763623
0.00936925
0.0111821
0.0130692
0.015025
0.0170433
0.0191179
0.0212423
0.0234099
0.0256138
0.0278469
0.0301021
0.0323722
0.0346497
0.0369272
0.039197
0.0414518
0.0436838
0.0458857
0.0480499
0.0501691
0.0522359
0.0542433
0.0561843
0.0580521
0.0598402
0.0615425
0.063153
0.0646662
0.0660769
0.0673804
0.0685722
0.0696487
0.0706066
0.071443
0.072156
0.0727439
0.0732058
0.0735417
0.0737518
0.0738375
0.0738007
0.0736441
0.0733709
0.0729855
0.0724926
0.0718979
0.0712077
0.0704288
0.0695689
0.0686359
0.0676385
0.0665854
0.0654857
0.0643486
0.0631832
0.0619983
0.0608017
0.0596004
0.0584075
0.0572337
0.0559921
0.054603
0.0145069
0.0128075
0.0113313
0.00997862
0.00863726
0.00731722
0.00603075
0.0047824
0.00357731
0.00242171
0.0013221
0.000284988
-0.000683142
-0.00157601
-0.0023876
-0.00311229
-0.00374487
-0.00428059
-0.0047152
-0.00504496
-0.00526665
-0.00537763
-0.00537579
-0.00525954
-0.00502785
-0.00468017
-0.00421646
-0.00363714
-0.00294313
-0.00213582
-0.00121703
-0.00018901
0.00094559
0.00218374
0.00352206
0.00495676
0.00648375
0.00809857
0.00979646
0.0115723
0.0134209
0.0153366
0.0173135
0.0193457
0.0214267
0.0235501
0.0257092
0.0278971
0.0301069
0.0323316
0.0345638
0.0367963
0.0390218
0.0412329
0.0434222
0.0455823
0.0477059
0.0497858
0.051815
0.0537862
0.0556929
0.0575282
0.0592858
0.0609596
0.0625438
0.0640328
0.0654216
0.0667053
0.0678798
0.0689411
0.0698859
0.0707115
0.0714156
0.0719966
0.0724535
0.0727858
0.0729938
0.0730784
0.0730414
0.0728848
0.0726119
0.0722262
0.0717321
0.0711346
0.0704393
0.0696524
0.0687805
0.067831
0.0668111
0.0657289
0.0645921
0.0634087
0.0621865
0.060933
0.0596545
0.0583566
0.0570519
0.0557509
0.0543504
0.0527578
0.0162673
0.0143622
0.0127242
0.0112407
0.00978354
0.00836254
0.00698975
0.00566836
0.00440213
0.00319601
0.00205521
0.000985062
-9.13044e-06
-0.000922151
-0.001749
-0.00248495
-0.00312564
-0.0036671
-0.00410577
-0.00443854
-0.00466273
-0.00477618
-0.00477718
-0.00466451
-0.00443745
-0.00409572
-0.00363948
-0.00306935
-0.00238636
-0.00159197
-0.000688075
0.000323044
0.00143873
0.00265595
0.00397136
0.00538126
0.00688162
0.0084681
0.010136
0.0118805
0.0136962
0.0155779
0.0175196
0.0195157
0.0215599
0.0236459
0.0257671
0.0279169
0.0300885
0.0322749
0.0344691
0.036664
0.0388524
0.0410271
0.0431808
0.0453063
0.0473964
0.0494441
0.0514423
0.0533841
0.0552628
0.0570719
0.0588049
0.0604559
0.0620191
0.0634889
0.0648603
0.0661286
0.0672894
0.0683388
0.0692735
0.0700906
0.0707876
0.071363
0.0718153
0.0721442
0.0723494
0.0724318
0.0723926
0.0722338
0.0719579
0.0715681
0.0710684
0.0704631
0.0697571
0.0689561
0.0680658
0.0670927
0.0660433
0.0649245
0.0637432
0.0625062
0.0612202
0.0598916
0.0585255
0.0571263
0.0557065
0.0542764
0.0527176
0.050925
0.0179784
0.0158722
0.014074
0.0124591
0.0108844
0.00935941
0.00789632
0.00649717
0.00516456
0.00390232
0.00271458
0.00160557
0.000579582
-0.00035916
-0.00120656
-0.00195876
-0.00261217
-0.00316354
-0.00360996
-0.00394893
-0.00417833
-0.00429644
-0.00430196
-0.00419404
-0.00397226
-0.00363659
-0.00318746
-0.00262565
-0.00195235
-0.00116912
-0.00027792
0.000718931
0.00181874
0.00301848
0.00431481
0.00570406
0.00718228
0.00874521
0.0103883
0.0121067
0.0138953
0.0157487
0.0176614
0.0196277
0.0216415
0.0236967
0.0257868
0.0279053
0.0300456
0.0322009
0.0343642
0.0365286
0.038687
0.0408324
0.0429577
0.0450556
0.0471192
0.0491414
0.0511153
0.0530342
0.0548913
0.0566802
0.0583945
0.0600283
0.0615757
0.0630313
0.06439
0.0656471
0.066798
0.067839
0.0687665
0.0695774
0.0702694
0.0708405
0.0712893
0.0716149
0.0718172
0.0718964
0.0718537
0.0716905
0.071409
0.071012
0.0705028
0.0698853
0.0691639
0.0683434
0.0674291
0.0664265
0.0653414
0.0641797
0.0629476
0.0616509
0.0602954
0.0588865
0.0574282
0.0559241
0.0543868
0.0528267
0.0511108
0.0491221
0.0196238
0.0173207
0.0153645
0.0136186
0.0119252
0.0102941
0.00873771
0.00725712
0.00585392
0.004531
0.00329153
0.00213881
0.00107619
0.000107021
-0.000765455
-0.00153815
-0.00220821
-0.00277305
-0.00323039
-0.00357829
-0.00381516
-0.00393973
-0.00395113
-0.00384884
-0.00363274
-0.00330309
-0.00286053
-0.00230605
-0.001641
-0.000867075
1.36973e-05
0.000998936
0.00208592
0.00327161
0.00455264
0.00592537
0.00738589
0.00893
0.0105532
0.0122508
0.0140178
0.0158488
0.0177385
0.0196811
0.0216709
0.0237017
0.0257673
0.0278614
0.0299772
0.0321082
0.0342476
0.0363885
0.0385239
0.040647
0.0427507
0.044828
0.0468718
0.0488753
0.0508316
0.0527339
0.0545756
0.0563504
0.0580518
0.0596739
0.0612109
0.0626573
0.0640079
0.065258
0.066403
0.0674389
0.0683622
0.0691697
0.0698588
0.0704272
0.0708735
0.0711965
0.0713958
0.0714715
0.0714241
0.0712549
0.0709657
0.0705588
0.070037
0.0694038
0.0686628
0.0678184
0.0668752
0.065838
0.0647119
0.0635021
0.0622139
0.0608524
0.0594226
0.057929
0.056375
0.0547633
0.0531069
0.0514164
0.0495449
0.0473641
0.0211886
0.0186932
0.0165812
0.0147048
0.0128923
0.0111537
0.00950186
0.00793699
0.00645988
0.00507259
0.00377748
0.00257702
0.00147374
0.000470192
-0.000431147
-0.00122792
-0.00191794
-0.00249925
-0.00297016
-0.00332926
-0.00357545
-0.00370793
-0.00372621
-0.00363014
-0.00341989
-0.00309599
-0.0026593
-0.00211102
-0.00145267
-0.00068609
0.000186589
0.00116292
0.00224015
0.00341519
0.0046847
0.00604502
0.00749225
0.00902223
0.0106305
0.0123125
0.0140633
0.0158776
0.0177501
0.0196752
0.0216472
0.02366
0.0257076
0.0277837
0.0298818
0.0319954
0.0341177
0.0362419
0.0383613
0.040469
0.042558
0.0446213
0.0466522
0.0486435
0.0505887
0.0524808
0.0543134
0.0560799
0.0577743
0.0593902
0.0609221
0.0623642
0.0637115
0.0649589
0.0661019
0.0671364
0.0680587
0.0688655
0.0695539
0.0701216
0.0705668
0.0708881
0.0710848
0.0711567
0.0711041
0.0709278
0.0706292
0.0702103
0.0696733
0.0690212
0.0682573
0.0673852
0.066409
0.0653329
0.0641613
0.0628989
0.0615502
0.0601197
0.0586116
0.05703
0.0553774
0.053656
0.0518794
0.0500585
0.0480332
0.0456641
0.0226599
0.0199762
0.0177108
0.0157048
0.0137732
0.0119263
0.0101773
0.00852603
0.00697239
0.0055178
0.00416388
0.0029124
0.00176514
0.000723954
-0.000209386
-0.00103319
-0.00174591
-0.00234616
-0.00283281
-0.00320494
-0.00346191
-0.00360337
-0.00362923
-0.00353967
-0.00333519
-0.00301655
-0.00258485
-0.00204149
-0.00138818
-0.000626882
0.000240131
0.00121033
0.00228091
0.00344875
0.0047105
0.00606248
0.0075008
0.00902131
0.0106196
0.0122912
0.0140311
0.0158342
0.0176953
0.0196089
0.0215692
0.0235704
0.0256064
0.0276711
0.0297581
0.0318608
0.0339728
0.0360872
0.0381973
0.0402964
0.0423774
0.0444336
0.046458
0.0484439
0.0503843
0.0522726
0.0541022
0.0558666
0.0575595
0.0591749
0.0607069
0.0621499
0.0634984
0.0647476
0.0658928
0.0669296
0.0678543
0.0686632
0.0693535
0.0699225
0.0703682
0.070689
0.0708839
0.0709523
0.0708942
0.0707101
0.0704009
0.0699683
0.0694141
0.0687407
0.067951
0.0670481
0.0660355
0.064917
0.0636963
0.0623775
0.0609646
0.0594615
0.0578719
0.0561994
0.054446
0.0526135
0.0507159
0.048765
0.0465874
0.0440333
0.0240258
0.0211576
0.018741
0.0166066
0.014556
0.0126003
0.0107532
0.0090139
0.00738174
0.00585754
0.00444231
0.00313715
0.00194323
0.000861749
-0.000106149
-0.000959386
-0.001697
-0.00231817
-0.00282225
-0.00320882
-0.00347767
-0.00362886
-0.00366267
-0.00357964
-0.00338056
-0.00306648
-0.00263871
-0.00209884
-0.00144875
-0.000690579
0.000173291
0.00114022
0.00220731
0.00337144
0.00462919
0.00597691
0.00741069
0.00892637
0.0105196
0.0121858
0.0139202
0.0157177
0.0175732
0.0194811
0.0214358
0.0234315
0.0254623
0.027522
0.0296044
0.0317029
0.0338112
0.0359225
0.0380301
0.0401272
0.042207
0.0442627
0.0462873
0.0482741
0.0502163
0.052107
0.0539398
0.055708
0.0574054
0.0590258
0.0605633
0.0620121
0.0633669
0.0646224
0.0657739
0.066817
0.0677475
0.0685618
0.0692567
0.0698293
0.0702775
0.0705993
0.0707933
0.0708588
0.0707953
0.0706031
0.0702827
0.0698353
0.0692623
0.0685658
0.0677481
0.0668118
0.0657601
0.0645961
0.0633232
0.061945
0.0604648
0.0588862
0.0572126
0.0554469
0.0535909
0.051646
0.049627
0.0475463
0.0452181
0.042482
0.0252755
0.0222263
0.0196607
0.0173988
0.0152298
0.0131651
0.0112192
0.00939066
0.00767849
0.00608291
0.0046044
0.00324349
0.00200078
0.000876886
-0.000127603
-0.00101217
-0.00177639
-0.00241998
-0.00294277
-0.00334479
-0.00362624
-0.00378756
-0.00382941
-0.00375264
-0.00355837
-0.00324791
-0.0028228
-0.00228483
-0.00163603
-0.000878697
-1.53559e-05
0.000951237
0.0020181
0.00318205
0.00443963
0.00578717
0.00722075
0.00873623
0.0103292
0.0119952
0.0137294
0.0155268
0.0173822
0.0192903
0.0212455
0.0232419
0.0252737
0.0273348
0.029419
0.03152
0.0336311
0.0357459
0.0378577
0.0399596
0.0420448
0.0441065
0.046138
0.0481322
0.0500825
0.051982
0.0538241
0.0556022
0.0573099
0.0589409
0.0604893
0.0619493
0.0633151
0.0645817
0.0657439
0.0667971
0.0677372
0.0685602
0.0692627
0.0698416
0.0702944
0.070619
0.0708136
0.0708771
0.0708089
0.0706087
0.0702768
0.0698138
0.0692211
0.0685
0.0676526
0.0666811
0.065588
0.0643762
0.0630486
0.0616083
0.0600585
0.0584021
0.0566421
0.0547814
0.0528214
0.0507631
0.0486224
0.0464123
0.0439346
0.041019
0.0263991
0.0231718
0.0204591
0.018071
0.015784
0.0136104
0.0115652
0.00964672
0.00785343
0.00618515
0.00464187
0.00322362
0.00193048
0.000762553
-0.000280085
-0.00119742
-0.00198954
-0.00265663
-0.00319899
-0.00361708
-0.0039115
-0.00408305
-0.00413272
-0.00406171
-0.0038714
-0.00356339
-0.00313946
-0.0026016
-0.00195201
-0.00119312
-0.000327588
0.0006417
0.00171167
0.00287903
0.00414031
0.0054918
0.00692956
0.00844945
0.0100471
0.0117179
0.0134572
0.0152599
0.017121
0.0190351
0.0209966
0.0229999
0.025039
0.0271078
0.0292003
0.0313101
0.0334307
0.0355556
0.0376781
0.0397914
0.0418887
0.0439632
0.0460079
0.0480161
0.0499809
0.0518955
0.0537531
0.0555472
0.0572711
0.0589185
0.0604834
0.0619597
0.0633417
0.064624
0.0658015
0.0668692
0.0678228
0.0686581
0.0693714
0.0699594
0.0704194
0.0707488
0.0709457
0.0710086
0.0709365
0.0707289
0.0703856
0.069907
0.0692939
0.0685474
0.067669
0.0666607
0.0655247
0.0642632
0.0628789
0.0613746
0.059753
0.0580168
0.0561688
0.0542116
0.0521463
0.0499739
0.0477111
0.0453717
0.0427457
0.0396526
0.0273873
0.0239845
0.0211264
0.018613
0.0162087
0.0139264
0.0117817
0.00977277
0.00789758
0.00615563
0.00454649
0.00306973
0.00172497
0.000511822
-0.000570092
-0.00152123
-0.00234212
-0.0030334
-0.00359582
-0.00403024
-0.00433766
-0.00451921
-0.00457622
-0.00451019
-0.00432277
-0.00401584
-0.00359141
-0.00305169
-0.00239904
-0.00163606
-0.000765522
0.000209577
0.00128605
0.00246052
0.00372943
0.00508904
0.00653539
0.00806432
0.00967146
0.0113522
0.0131019
0.0149154
0.0167878
0.0187136
0.0206874
0.0227036
0.0247561
0.0268391
0.0289462
0.0310713
0.0332079
0.0353495
0.0374893
0.0396206
0.0417366
0.0438304
0.0458952
0.0479238
0.0499096
0.0518456
0.053725
0.0555411
0.0572872
0.0589569
0.0605438
0.0620419
0.0634453
0.0647484
0.0659458
0.0670324
0.0680036
0.068855
0.0695827
0.070183
0.0706529
0.0709896
0.0711909
0.0712549
0.0711803
0.0709662
0.0706121
0.070118
0.0694844
0.068712
0.067802
0.066756
0.0655757
0.0642631
0.0628207
0.0612507
0.0595557
0.0577381
0.0558006
0.0537456
0.051574
0.0492868
0.0469015
0.0444331
0.0416594
0.0383902
0.0282313
0.0246552
0.0216532
0.0190155
0.0164944
0.0141036
0.0118595
0.00975972
0.00780214
0.00598586
0.0043101
0.00277402
0.0013768
0.000117649
-0.00100428
-0.00198985
-0.00284002
-0.00355584
-0.00413846
-0.00458915
-0.00490926
-0.0051003
-0.00516388
-0.00510178
-0.00491596
-0.00460852
-0.00418172
-0.00363797
-0.00297985
-0.00221009
-0.00133159
-0.000347469
0.000738994
0.00192432
0.00320488
0.00457684
0.00603624
0.00757888
0.00920038
0.0108962
0.0126615
0.0144913
0.0163806
0.018324
0.020316
0.022351
0.0244232
0.0265265
0.0286547
0.0308016
0.0329607
0.0351255
0.0372892
0.0394452
0.0415866
0.0437063
0.0457976
0.0478533
0.0498666
0.0518304
0.0537379
0.0555823
0.0573566
0.0590545
0.0606693
0.0621948
0.063625
0.0649539
0.0661761
0.0672863
0.0682795
0.0691511
0.0698969
0.0705129
0.0709959
0.0713426
0.0715507
0.0716178
0.0715424
0.0713232
0.0709593
0.0704504
0.0697966
0.0689983
0.0680564
0.066972
0.0657467
0.0643821
0.0628803
0.0612435
0.0594738
0.0575736
0.0555454
0.0533914
0.0511126
0.0487099
0.0462018
0.0436041
0.040683
0.0372386
0.0289228
0.0251751
0.0220305
0.0192692
0.0166319
0.0141329
0.0117893
0.00959866
0.00755841
0.0056674
0.00392455
0.00232864
0.000878489
-0.000427127
-0.00158944
-0.00260974
-0.00348935
-0.00422973
-0.00483239
-0.00529896
-0.00563117
-0.00583086
-0.00589996
-0.00584053
-0.00565476
-0.00534502
-0.00491378
-0.00436369
-0.00369749
-0.0029181
-0.00202856
-0.00103207
6.79556e-05
0.00126797
0.00256424
0.00395288
0.00542984
0.00699091
0.00863169
0.0103476
0.0121338
0.0139854
0.0158972
0.017864
0.0198802
0.0219402
0.0240381
0.026168
0.0283237
0.0304988
0.0326869
0.0348815
0.0370758
0.0392631
0.0414364
0.0435888
0.0457132
0.0478026
0.0498499
0.0518481
0.0537901
0.055669
0.0574779
0.0592099
0.0608585
0.0624172
0.0638797
0.0652399
0.066492
0.0676306
0.0686504
0.0695466
0.0703145
0.07095
0.0714494
0.0718094
0.072027
0.0720997
0.0720255
0.0718028
0.0714306
0.0709079
0.0702347
0.0694109
0.0684372
0.0673143
0.0660436
0.0646264
0.0630645
0.0613599
0.0595145
0.0575307
0.0554107
0.0531568
0.0507699
0.048251
0.0456195
0.0428923
0.0398238
0.0362044
0.0294537
0.0255357
0.0222494
0.0193652
0.0166122
0.0140053
0.0115624
0.00928084
0.00715781
0.00519189
0.00338171
0.00172575
0.00022244
-0.00112979
-0.00233256
-0.00338754
-0.00429644
-0.00506106
-0.00568328
-0.00616508
-0.00650852
-0.00671576
-0.00678906
-0.00673075
-0.00654328
-0.00622923
-0.00579131
-0.00523235
-0.00455533
-0.0037633
-0.00285947
-0.00184717
-0.000729886
0.000488727
0.00180486
0.00321454
0.00471365
0.00629793
0.00796295
0.00970409
0.0115166
0.0133954
0.0153354
0.0173313
0.0193776
0.0214686
0.0235985
0.0257612
0.0279507
0.0301605
0.0323843
0.0346152
0.0368467
0.039072
0.0412839
0.0434756
0.0456399
0.0477697
0.0498577
0.0518968
0.0538799
0.0557997
0.0576494
0.0594219
0.0611103
0.0627081
0.0642086
0.0656057
0.0668931
0.0680653
0.0691166
0.0700419
0.0708363
0.0714954
0.072015
0.0723916
0.0726218
0.0727029
0.0726324
0.0724085
0.0720296
0.0714946
0.070803
0.0699546
0.0689496
0.0677885
0.0664723
0.0650023
0.0633798
0.0616068
0.0596851
0.0576167
0.0554041
0.0530495
0.0505537
0.0479177
0.0451622
0.0423049
0.0390886
0.0352938
0.0298161
0.0257288
0.0223015
0.0192949
0.0164265
0.0137119
0.0111699
0.00879755
0.00659177
0.00455095
0.00267344
0.000957405
-0.000599011
-0.00199773
-0.00324074
-0.00433007
-0.0052678
-0.00605607
-0.00669709
-0.00719317
-0.0075467
-0.00776015
-0.00783607
-0.00777708
-0.00758591
-0.00726533
-0.00681829
-0.0062478
-0.00555701
-0.00474919
-0.00382768
-0.00279596
-0.00165762
-0.000416398
0.000923819
0.00235898
0.0038849
0.00549723
0.00719151
0.00896309
0.0108072
0.0127187
0.0146926
0.0167235
0.0188058
0.0209339
0.0231019
0.0253038
0.0275335
0.0297845
0.0320503
0.0343244
0.0365998
0.0388697
0.041127
0.0433648
0.0455757
0.0477526
0.049888
0.0519748
0.0540055
0.0559729
0.0578699
0.0596892
0.0614237
0.0630667
0.0646113
0.0660509
0.0673793
0.0685904
0.0696783
0.0706377
0.0714633
0.0721503
0.0726943
0.0730913
0.0733377
0.0734302
0.0733663
0.0731436
0.0727602
0.0722148
0.0715064
0.0706345
0.0695991
0.0684004
0.0670391
0.0655162
0.0638331
0.0619913
0.0599927
0.0578392
0.0555332
0.053077
0.0504714
0.0477176
0.0448372
0.0418489
0.0384841
0.0345131
0.0300022
0.0257461
0.0221782
0.0190496
0.0160661
0.0132441
0.0106031
0.00814013
0.00585176
0.00373619
0.00179151
1.56256e-05
-0.00159363
-0.00303849
-0.00432128
-0.00544436
-0.00641017
-0.0072212
-0.00787999
-0.00838915
-0.00875137
-0.00896942
-0.00904615
-0.00898447
-0.00878734
-0.00845781
-0.00799899
-0.0074141
-0.00670648
-0.00587955
-0.00493684
-0.00388196
-0.00271861
-0.00145064
-8.20225e-05
0.00138314
0.00294057
0.00458587
0.00631449
0.00812176
0.0100028
0.0119527
0.0139661
0.0160378
0.0181622
0.0203335
0.0225458
0.0247933
0.0270695
0.0293682
0.0316827
0.0340064
0.0363325
0.0386538
0.0409634
0.0432541
0.0455185
0.0477492
0.049939
0.0520802
0.0541654
0.0561871
0.058138
0.0600106
0.0617977
0.0634922
0.065087
0.0665753
0.0679505
0.0692062
0.0703362
0.0713349
0.0721966
0.0729163
0.0734891
0.0739107
0.074177
0.0742847
0.0742305
0.0740119
0.0736266
0.0730729
0.0723496
0.0714559
0.0703913
0.0691559
0.0677501
0.0661748
0.0644311
0.0625205
0.0604447
0.0582056
0.0558056
0.053247
0.0505307
0.0476581
0.0446518
0.0415315
0.0380168
0.0338684
0.0300043
0.0255796
0.0218713
0.0186208
0.0155224
0.0125931
0.00985338
0.00729992
0.00492919
0.00273915
0.000727639
-0.00110769
-0.00276931
-0.00425973
-0.00558159
-0.00673759
-0.0077305
-0.00856314
-0.00923838
-0.00975914
-0.0101284
-0.0103492
-0.0104247
-0.0103581
-0.0101526
-0.00981139
-0.00933795
-0.00873562
-0.00800791
-0.00715842
-0.00619082
-0.00510889
-0.00391647
-0.0026175
-0.00121604
0.000283724
0.00187746
0.00356069
0.00532882
0.00717708
0.00910061
0.0110944
0.0131531
0.0152715
0.0174438
0.0196645
0.0219275
0.0242268
0.0265561
0.028909
0.0312788
0.033659
0.0360424
0.0384221
0.0407908
0.0431412
0.0454661
0.0477577
0.0500087
0.0522113
0.0543579
0.0564408
0.0584524
0.0603851
0.0622315
0.063984
0.0656354
0.0671787
0.0686068
0.069913
0.071091
0.0721345
0.0730377
0.0737951
0.0744015
0.0748522
0.0751428
0.0752694
0.0752286
0.0750174
0.0746331