/*--------------------------------*- C++ -*----------------------------------*\
| =========                 |                                                 |
| \\      /  F ield         | OpenFOAM: The Open Source CFD Toolbox           |
|  \\    /   O peration     | Version:  v1912                                 |
|   \\  /    A nd           | Website:  www.openfoam.com                      |
|    \\/     M anipulation  |                                                 |
\*---------------------------------------------------------------------------*/
FoamFile
{
    version     2.0;
    format      ascii;
    class       volVectorField;
    location    "7.02";
    object      U;
}
// * * * * * * * * * * * * * * * * * * * * * * * * * * * * * * * * * * * * * //

dimensions      [0 1 -1 0 0 0 0];


internalField   nonuniform List<vector> 
1900
(
(-0.705303 -5.09907e-07 0)
(-0.0129544 -3.98664e-07 0)
(0.0835593 -1.91115e-06 0)
(0.08243 -2.94476e-06 0)
(0.0854775 -6.59313e-06 0)
(0.0888611 -4.17114e-05 0)
(0.0929477 -0.000113222 0)
(0.0971516 0.000296763 0)
(0.0994494 0.00319048 0)
(0.0917936 0.0119196 0)
(-0.705303 -6.38937e-07 0)
(-0.0129546 -9.18931e-07 0)
(0.0835586 -3.14726e-06 0)
(0.0824276 -4.5332e-06 0)
(0.0854646 -1.35445e-05 0)
(0.0888057 -5.01295e-05 0)
(0.0928581 -0.000126075 0)
(0.096642 0.000299653 0)
(0.101223 0.002211 0)
(0.103179 0.0112966 0)
(-0.705303 -4.77908e-14 0)
(-0.0129544 -2.90891e-15 0)
(0.0835574 -4.49438e-14 0)
(0.0824248 -5.01466e-14 0)
(0.0854516 -5.38688e-14 0)
(0.0887653 2.98482e-14 0)
(0.0927866 4.28028e-14 0)
(0.0967355 3.84046e-14 0)
(0.101738 2.32102e-14 0)
(0.110036 3.20426e-14 0)
(-0.705303 6.38937e-07 0)
(-0.0129546 9.18931e-07 0)
(0.0835586 3.14726e-06 0)
(0.0824276 4.5332e-06 0)
(0.0854646 1.35445e-05 0)
(0.0888057 5.01295e-05 0)
(0.0928581 0.000126075 0)
(0.096642 -0.000299653 0)
(0.101223 -0.002211 0)
(0.103179 -0.0112966 0)
(-0.705303 5.09907e-07 0)
(-0.0129544 3.98664e-07 0)
(0.0835593 1.91115e-06 0)
(0.08243 2.94476e-06 0)
(0.0854775 6.59313e-06 0)
(0.0888611 4.17114e-05 0)
(0.0929477 0.000113222 0)
(0.0971516 -0.000296763 0)
(0.0994494 -0.00319048 0)
(0.0917936 -0.0119196 0)
(0.0933509 0.038401 0)
(0.129554 0.0514343 0)
(0.176776 0.0755388 0)
(0.253028 0.117146 0)
(0.397877 0.17371 0)
(0.116956 0.0275648 0)
(0.143321 0.0285453 0)
(0.17366 0.0380548 0)
(0.235997 0.0598626 0)
(0.377291 0.102401 0)
(0.128132 5.71132e-14 0)
(0.152603 1.96896e-14 0)
(0.184398 2.1282e-14 0)
(0.247145 4.08562e-15 0)
(0.387567 6.14985e-15 0)
(0.116956 -0.0275648 0)
(0.143321 -0.0285453 0)
(0.17366 -0.0380548 0)
(0.235997 -0.0598626 0)
(0.377291 -0.102401 0)
(0.0933509 -0.038401 0)
(0.129554 -0.0514343 0)
(0.176776 -0.0755388 0)
(0.253028 -0.117146 0)
(0.397877 -0.17371 0)
(0.84775 0.0300252 0)
(1.10967 -0.0517381 0)
(1.26067 -0.0840074 0)
(1.34496 -0.093624 0)
(1.43079 -0.108894 0)
(0.820817 -0.0175139 0)
(1.1221 -0.0482406 0)
(1.29241 -0.0595015 0)
(1.37832 -0.0592953 0)
(1.4558 -0.0769154 0)
(0.816964 -3.30146e-15 0)
(1.12606 1.07692e-14 0)
(1.28777 -6.42224e-14 0)
(1.3697 9.45294e-14 0)
(1.44312 6.92382e-14 0)
(0.820817 0.0175139 0)
(1.1221 0.0482406 0)
(1.29241 0.0595015 0)
(1.37832 0.0592953 0)
(1.4558 0.0769154 0)
(0.84775 -0.0300252 0)
(1.10967 0.0517381 0)
(1.26067 0.0840074 0)
(1.34496 0.093624 0)
(1.43079 0.108894 0)
(1.48393 -0.0288038 0)
(1.50482 0.00384056 0)
(1.52653 0.00964967 0)
(1.58035 -0.0359014 0)
(1.58167 -0.00313177 0)
(1.54343 0.0255289 0)
(1.24172 -0.00650343 0)
(1.03907 -0.0258174 0)
(0.984816 -0.049332 0)
(0.885625 -0.0743402 0)
(0.745504 -0.085291 0)
(0.610157 -0.0740239 0)
(0.504473 -0.0550009 0)
(0.423111 -0.0399879 0)
(0.345207 -0.0303618 0)
(0.247229 -0.0226944 0)
(0.144375 -0.0171014 0)
(0.0919977 -0.014626 0)
(0.0808467 -0.0139588 0)
(0.0810559 -0.0136339 0)
(0.0834213 -0.0131951 0)
(0.0874093 -0.0127818 0)
(0.0950423 -0.0125865 0)
(0.107366 -0.0125498 0)
(0.123037 -0.0125555 0)
(0.140143 -0.0125362 0)
(0.15736 -0.0125911 0)
(0.174199 -0.0124392 0)
(0.190693 -0.0125774 0)
(0.206767 -0.0124267 0)
(0.222133 -0.0126777 0)
(0.236231 -0.0123292 0)
(0.250006 -0.0129085 0)
(0.260976 -0.0125473 0)
(0.25587 -0.0129688 0)
(0.172422 -0.0127375 0)
(0.0307473 -0.0124277 0)
(-0.0470023 -0.00985597 0)
(-0.0517469 -0.0172784 0)
(-0.105765 -0.0143349 0)
(1.49067 -0.0377063 0)
(1.51165 0.0112559 0)
(1.53767 0.0113822 0)
(1.60334 -0.0148969 0)
(1.59787 -0.00201665 0)
(1.55076 0.0126232 0)
(1.25263 -0.00389017 0)
(1.03952 -0.0119028 0)
(0.979573 -0.0257702 0)
(0.873846 -0.036062 0)
(0.740609 -0.0396157 0)
(0.617553 -0.0373399 0)
(0.517247 -0.0281881 0)
(0.433757 -0.0204736 0)
(0.351416 -0.0151848 0)
(0.249236 -0.0113613 0)
(0.14477 -0.00857986 0)
(0.0920196 -0.00730474 0)
(0.0808201 -0.00697553 0)
(0.0811117 -0.00682188 0)
(0.0834909 -0.0065924 0)
(0.0874463 -0.00638853 0)
(0.0950983 -0.00629213 0)
(0.10745 -0.00627692 0)
(0.123155 -0.00628047 0)
(0.140297 -0.00627073 0)
(0.157548 -0.00629814 0)
(0.174418 -0.00622189 0)
(0.19094 -0.00629097 0)
(0.207039 -0.0062148 0)
(0.222428 -0.00634076 0)
(0.236544 -0.00616351 0)
(0.250344 -0.00645585 0)
(0.261326 -0.0062664 0)
(0.256324 -0.00648458 0)
(0.173045 -0.00633597 0)
(0.0314332 -0.0061709 0)
(-0.0461701 -0.00477739 0)
(-0.0518104 -0.00873349 0)
(-0.106167 -0.00714935 0)
(1.48855 -4.33696e-13 0)
(1.51464 8.59109e-13 0)
(1.54222 1.73359e-12 0)
(1.60703 3.71874e-12 0)
(1.60344 1.12451e-12 0)
(1.54969 1.22443e-12 0)
(1.25201 -4.21085e-12 0)
(1.0375 -7.68733e-12 0)
(0.979061 -1.04017e-11 0)
(0.88025 -3.66297e-12 0)
(0.754008 3.57945e-12 0)
(0.622554 3.37058e-12 0)
(0.512637 2.20677e-12 0)
(0.428722 3.76995e-12 0)
(0.349868 7.45732e-12 0)
(0.250378 9.04012e-12 0)
(0.145649 4.77038e-12 0)
(0.0921995 -1.81213e-12 0)
(0.0808736 -6.10077e-12 0)
(0.081158 -7.54525e-12 0)
(0.0835598 -5.86047e-12 0)
(0.087473 -1.92663e-13 0)
(0.0951055 4.63216e-12 0)
(0.107457 4.12967e-12 0)
(0.123169 -3.64983e-12 0)
(0.140316 -7.73382e-12 0)
(0.157571 -1.2464e-11 0)
(0.174444 -1.76444e-11 0)
(0.190972 -8.60443e-12 0)
(0.207078 -7.81239e-12 0)
(0.222476 -8.63349e-12 0)
(0.236603 2.11495e-12 0)
(0.250425 7.20684e-12 0)
(0.26144 2.81061e-12 0)
(0.256519 1.11723e-12 0)
(0.173375 3.7808e-12 0)
(0.0319234 5.25986e-12 0)
(-0.0453184 6.30954e-12 0)
(-0.0508528 -1.76193e-13 0)
(-0.1049 -9.67523e-13 0)
(1.49067 0.0377063 0)
(1.51165 -0.0112559 0)
(1.53767 -0.0113822 0)
(1.60334 0.0148969 0)
(1.59787 0.00201665 0)
(1.55076 -0.0126232 0)
(1.25263 0.00389017 0)
(1.03952 0.0119028 0)
(0.979573 0.0257702 0)
(0.873846 0.036062 0)
(0.740609 0.0396157 0)
(0.617553 0.0373399 0)
(0.517247 0.0281881 0)
(0.433757 0.0204736 0)
(0.351416 0.0151848 0)
(0.249236 0.0113613 0)
(0.14477 0.00857986 0)
(0.0920196 0.00730474 0)
(0.0808201 0.00697553 0)
(0.0811117 0.00682188 0)
(0.0834909 0.0065924 0)
(0.0874463 0.00638853 0)
(0.0950983 0.00629213 0)
(0.10745 0.00627692 0)
(0.123155 0.00628047 0)
(0.140297 0.00627073 0)
(0.157548 0.00629814 0)
(0.174418 0.00622189 0)
(0.19094 0.00629097 0)
(0.207039 0.0062148 0)
(0.222428 0.00634076 0)
(0.236544 0.00616351 0)
(0.250344 0.00645585 0)
(0.261326 0.0062664 0)
(0.256324 0.00648458 0)
(0.173045 0.00633597 0)
(0.0314332 0.0061709 0)
(-0.0461701 0.00477739 0)
(-0.0518104 0.00873349 0)
(-0.106167 0.00714935 0)
(1.48393 0.0288038 0)
(1.50482 -0.00384056 0)
(1.52653 -0.00964967 0)
(1.58035 0.0359014 0)
(1.58167 0.00313177 0)
(1.54343 -0.0255289 0)
(1.24172 0.00650343 0)
(1.03907 0.0258174 0)
(0.984816 0.049332 0)
(0.885625 0.0743402 0)
(0.745504 0.085291 0)
(0.610157 0.0740239 0)
(0.504473 0.0550009 0)
(0.423111 0.0399879 0)
(0.345207 0.0303618 0)
(0.247229 0.0226944 0)
(0.144375 0.0171014 0)
(0.0919977 0.014626 0)
(0.0808467 0.0139588 0)
(0.0810559 0.0136339 0)
(0.0834213 0.0131951 0)
(0.0874093 0.0127818 0)
(0.0950423 0.0125865 0)
(0.107366 0.0125498 0)
(0.123037 0.0125555 0)
(0.140143 0.0125362 0)
(0.15736 0.0125911 0)
(0.174199 0.0124392 0)
(0.190693 0.0125774 0)
(0.206767 0.0124267 0)
(0.222133 0.0126777 0)
(0.236231 0.0123292 0)
(0.250006 0.0129085 0)
(0.260976 0.0125473 0)
(0.25587 0.0129688 0)
(0.172422 0.0127375 0)
(0.0307473 0.0124277 0)
(-0.0470023 0.00985597 0)
(-0.0517469 0.0172784 0)
(-0.105765 0.0143349 0)
(1.48951 0.0394003 0)
(1.49565 0.0277861 0)
(1.50881 0.0404007 0)
(1.54373 0.0878472 0)
(1.52713 0.0263553 0)
(1.46326 -0.0296997 0)
(1.16989 0.00555987 0)
(1.00918 0.0513981 0)
(0.932949 0.107362 0)
(0.815674 0.16258 0)
(0.685485 0.178487 0)
(0.580129 0.150772 0)
(0.495484 0.112733 0)
(0.42095 0.0831271 0)
(0.342631 0.0631105 0)
(0.242197 0.0474692 0)
(0.140217 0.0356939 0)
(0.0905787 0.0304102 0)
(0.0803556 0.0289439 0)
(0.0806023 0.0281893 0)
(0.083011 0.0273649 0)
(0.087227 0.026596 0)
(0.0950237 0.0261885 0)
(0.107402 0.0260704 0)
(0.123079 0.0260656 0)
(0.140179 0.026024 0)
(0.15739 0.0261412 0)
(0.174244 0.0258314 0)
(0.19075 0.0261171 0)
(0.206843 0.0258134 0)
(0.22224 0.026322 0)
(0.2364 0.0256328 0)
(0.250202 0.0267759 0)
(0.261273 0.0260913 0)
(0.255986 0.0269572 0)
(0.172432 0.026665 0)
(0.0312339 0.026145 0)
(-0.0468987 0.021477 0)
(-0.0496071 0.0334826 0)
(-0.10218 0.0293453 0)
(1.43867 0.185062 0)
(1.44182 0.162185 0)
(1.44666 0.157844 0)
(1.43524 0.190049 0)
(1.37431 0.128563 0)
(1.27035 0.0239164 0)
(1.0468 0.040437 0)
(0.911493 0.107302 0)
(0.798892 0.212323 0)
(0.678283 0.291743 0)
(0.580875 0.289887 0)
(0.51246 0.239889 0)
(0.450669 0.184158 0)
(0.389876 0.14104 0)
(0.318952 0.109425 0)
(0.223074 0.0826209 0)
(0.129272 0.0626164 0)
(0.0871814 0.0541978 0)
(0.07909 0.051702 0)
(0.079491 0.0503291 0)
(0.0818968 0.0489539 0)
(0.0865652 0.0477469 0)
(0.0948488 0.0470527 0)
(0.107451 0.0468041 0)
(0.123157 0.0467658 0)
(0.140234 0.0466815 0)
(0.157425 0.0468919 0)
(0.174313 0.0463445 0)
(0.190853 0.0468515 0)
(0.206998 0.0463236 0)
(0.222471 0.0472004 0)
(0.236793 0.0460279 0)
(0.250669 0.0479381 0)
(0.261958 0.0468311 0)
(0.256299 0.0483387 0)
(0.172617 0.0479108 0)
(0.0322073 0.047278 0)
(-0.0467989 0.0406711 0)
(-0.0482436 0.0563827 0)
(-0.100221 0.0521684 0)
(1.36204 0.295135 0)
(1.3641 0.277216 0)
(1.37633 0.269524 0)
(1.31833 0.250691 0)
(1.2453 0.184102 0)
(1.11486 0.127626 0)
(0.926819 0.151599 0)
(0.767843 0.246069 0)
(0.638667 0.364217 0)
(0.532203 0.399391 0)
(0.474377 0.363625 0)
(0.436012 0.298256 0)
(0.396868 0.234401 0)
(0.350886 0.186604 0)
(0.286799 0.148302 0)
(0.195517 0.112871 0)
(0.114196 0.0873621 0)
(0.0826355 0.0773868 0)
(0.0772377 0.0741155 0)
(0.0777765 0.0721525 0)
(0.080308 0.0702422 0)
(0.0855426 0.068648 0)
(0.094458 0.0677146 0)
(0.107409 0.0673344 0)
(0.123197 0.0672444 0)
(0.140251 0.0671084 0)
(0.157403 0.0674144 0)
(0.17433 0.0666522 0)
(0.190898 0.0673756 0)
(0.207096 0.0666592 0)
(0.222648 0.0678588 0)
(0.237159 0.0663172 0)
(0.251134 0.0688057 0)
(0.262666 0.0674722 0)
(0.256454 0.0694753 0)
(0.172576 0.068905 0)
(0.0332797 0.0685704 0)
(-0.0462387 0.060895 0)
(-0.0472949 0.078205 0)
(-0.0989321 0.0744817 0)
(1.22076 0.342901 0)
(1.22385 0.326999 0)
(1.20131 0.318532 0)
(1.14803 0.298541 0)
(1.06031 0.256684 0)
(0.914303 0.243082 0)
(0.728617 0.299939 0)
(0.5687 0.416086 0)
(0.454394 0.478332 0)
(0.39358 0.467211 0)
(0.378729 0.411028 0)
(0.365954 0.334753 0)
(0.343792 0.271016 0)
(0.308017 0.22281 0)
(0.247499 0.178926 0)
(0.162176 0.137019 0)
(0.0982562 0.109933 0)
(0.0779022 0.0999825 0)
(0.074937 0.0961735 0)
(0.0755649 0.093577 0)
(0.0783886 0.0911494 0)
(0.0842842 0.0892508 0)
(0.0939033 0.0880939 0)
(0.107267 0.0876064 0)
(0.123169 0.0874677 0)
(0.140205 0.0872779 0)
(0.157302 0.0876833 0)
(0.174274 0.0867328 0)
(0.190857 0.0876663 0)
(0.207099 0.0868041 0)
(0.222718 0.088287 0)
(0.237431 0.0864893 0)
(0.251514 0.0893862 0)
(0.263279 0.0879826 0)
(0.256411 0.0903507 0)
(0.172241 0.0897519 0)
(0.0342328 0.0900317 0)
(-0.0455499 0.0815709 0)
(-0.0465621 0.0997002 0)
(-0.097994 0.0965614 0)
(1.02326 0.417577 0)
(1.00056 0.399562 0)
(0.95375 0.378195 0)
(0.895981 0.357061 0)
(0.785297 0.349514 0)
(0.617665 0.384483 0)
(0.450655 0.479991 0)
(0.341934 0.546317 0)
(0.29175 0.541547 0)
(0.289837 0.500297 0)
(0.300904 0.424476 0)
(0.304306 0.352771 0)
(0.292671 0.296958 0)
(0.261895 0.248614 0)
(0.201871 0.199449 0)
(0.126648 0.154911 0)
(0.0831738 0.130658 0)
(0.0725802 0.121842 0)
(0.0715275 0.11766 0)
(0.0725009 0.114396 0)
(0.075995 0.111523 0)
(0.0827715 0.109403 0)
(0.0932133 0.108099 0)
(0.107085 0.107529 0)
(0.123177 0.107351 0)
(0.140256 0.107112 0)
(0.157341 0.107623 0)
(0.174426 0.106511 0)
(0.191058 0.107646 0)
(0.207391 0.10668 0)
(0.22312 0.108409 0)
(0.238089 0.106454 0)
(0.252354 0.109619 0)
(0.264401 0.108228 0)
(0.257003 0.110847 0)
(0.172825 0.110242 0)
(0.0365969 0.111218 0)
(-0.0428456 0.101973 0)
(-0.0437612 0.120408 0)
(-0.0947393 0.117961 0)
(0.750788 0.462314 0)
(0.696043 0.44099 0)
(0.634252 0.414651 0)
(0.536771 0.424814 0)
(0.406852 0.480682 0)
(0.274803 0.56318 0)
(0.198398 0.608564 0)
(0.174244 0.599907 0)
(0.185132 0.558851 0)
(0.21553 0.492813 0)
(0.23861 0.425166 0)
(0.24983 0.366628 0)
(0.24313 0.315747 0)
(0.212149 0.265411 0)
(0.152919 0.212675 0)
(0.0953724 0.171071 0)
(0.0721331 0.151485 0)
(0.0682038 0.143483 0)
(0.0681009 0.138691 0)
(0.0694097 0.134722 0)
(0.0736146 0.131498 0)
(0.0812533 0.129135 0)
(0.0924454 0.127727 0)
(0.106734 0.1271 0)
(0.122938 0.126896 0)
(0.139985 0.12662 0)
(0.156964 0.127242 0)
(0.174102 0.125991 0)
(0.190673 0.12733 0)
(0.20701 0.126303 0)
(0.222745 0.128247 0)
(0.237865 0.126222 0)
(0.252215 0.129543 0)
(0.264371 0.128236 0)
(0.256202 0.131023 0)
(0.171561 0.130531 0)
(0.0366412 0.132312 0)
(-0.0429526 0.122357 0)
(-0.0441435 0.141369 0)
(-0.0956095 0.139486 0)
(0.400401 0.486151 0)
(0.319911 0.494574 0)
(0.243933 0.503369 0)
(0.151365 0.568117 0)
(0.0788573 0.631098 0)
(0.0479568 0.650938 0)
(0.0540852 0.632618 0)
(0.08489 0.591193 0)
(0.122844 0.536264 0)
(0.158872 0.478527 0)
(0.186596 0.423898 0)
(0.200634 0.373331 0)
(0.19364 0.324052 0)
(0.159003 0.271047 0)
(0.105715 0.218988 0)
(0.0700917 0.185836 0)
(0.061623 0.171409 0)
(0.061696 0.164109 0)
(0.062672 0.158706 0)
(0.0651334 0.154242 0)
(0.0706196 0.150941 0)
(0.0794482 0.148444 0)
(0.0916666 0.146958 0)
(0.106621 0.146289 0)
(0.123176 0.146069 0)
(0.140422 0.145761 0)
(0.15754 0.146488 0)
(0.174878 0.145103 0)
(0.191593 0.14663 0)
(0.20811 0.145573 0)
(0.224009 0.147697 0)
(0.239395 0.145644 0)
(0.253937 0.14906 0)
(0.266313 0.147799 0)
(0.257884 0.15077 0)
(0.173587 0.150457 0)
(0.0404817 0.153092 0)
(-0.038954 0.142487 0)
(-0.0401733 0.161671 0)
(-0.0915004 0.160387 0)
(0.0220521 0.544503 0)
(-0.0162333 0.571609 0)
(-0.0424114 0.609038 0)
(-0.0700781 0.649574 0)
(-0.0702205 0.65877 0)
(-0.0459838 0.640304 0)
(-0.0105844 0.605828 0)
(0.0325862 0.563283 0)
(0.0732256 0.5148 0)
(0.111039 0.467316 0)
(0.140643 0.421706 0)
(0.152858 0.375508 0)
(0.141443 0.325757 0)
(0.105137 0.272006 0)
(0.0678625 0.227395 0)
(0.054194 0.20355 0)
(0.0545126 0.19198 0)
(0.0565215 0.184392 0)
(0.0581811 0.178251 0)
(0.0615836 0.173401 0)
(0.0680996 0.169888 0)
(0.0778447 0.167338 0)
(0.0907051 0.165815 0)
(0.105955 0.165126 0)
(0.122549 0.164904 0)
(0.139716 0.164559 0)
(0.156789 0.165378 0)
(0.174013 0.163903 0)
(0.19075 0.165579 0)
(0.207294 0.164545 0)
(0.223214 0.16682 0)
(0.238739 0.164792 0)
(0.253362 0.168255 0)
(0.265797 0.166988 0)
(0.257007 0.170089 0)
(0.172531 0.169843 0)
(0.0410578 0.173292 0)
(-0.0381454 0.162419 0)
(-0.0393681 0.181998 0)
(-0.0911327 0.181324 0)
(-0.143219 0.552618 0)
(-0.150692 0.57548 0)
(-0.140955 0.6086 0)
(-0.132327 0.634667 0)
(-0.118272 0.63095 0)
(-0.0910272 0.607554 0)
(-0.0525647 0.573871 0)
(-0.00772396 0.535334 0)
(0.033778 0.494473 0)
(0.0718595 0.454933 0)
(0.0996406 0.413914 0)
(0.105811 0.368923 0)
(0.0888584 0.318096 0)
(0.0580177 0.268937 0)
(0.0404481 0.236703 0)
(0.0405467 0.220468 0)
(0.0451147 0.210719 0)
(0.0487135 0.203 0)
(0.0518413 0.196574 0)
(0.0569767 0.191837 0)
(0.065019 0.188461 0)
(0.0761398 0.185896 0)
(0.0900967 0.184341 0)
(0.106066 0.183616 0)
(0.123088 0.183378 0)
(0.140517 0.182963 0)
(0.157831 0.183836 0)
(0.175187 0.182292 0)
(0.192139 0.184036 0)
(0.208832 0.183023 0)
(0.224851 0.185398 0)
(0.240508 0.183388 0)
(0.255145 0.186844 0)
(0.267552 0.185547 0)
(0.258729 0.188774 0)
(0.174607 0.188775 0)
(0.0446761 0.193057 0)
(-0.0346535 0.181983 0)
(-0.0359081 0.201917 0)
(-0.0879564 0.201922 0)
(-0.161316 0.531715 0)
(-0.158494 0.550874 0)
(-0.144793 0.582288 0)
(-0.14653 0.602533 0)
(-0.146831 0.595409 0)
(-0.125444 0.571382 0)
(-0.0846829 0.543046 0)
(-0.0410771 0.50999 0)
(0.000156153 0.477145 0)
(0.0360609 0.442726 0)
(0.0576721 0.40362 0)
(0.0564316 0.358719 0)
(0.0392781 0.310955 0)
(0.0242316 0.273465 0)
(0.0246646 0.251907 0)
(0.0316853 0.239074 0)
(0.0384865 0.229567 0)
(0.0427342 0.221267 0)
(0.0468124 0.214353 0)
(0.0532315 0.209645 0)
(0.0623432 0.206219 0)
(0.0742586 0.203654 0)
(0.088681 0.202117 0)
(0.104821 0.20141 0)
(0.121842 0.201204 0)
(0.139216 0.200757 0)
(0.156533 0.201723 0)
(0.173857 0.20019 0)
(0.190927 0.202 0)
(0.20772 0.201081 0)
(0.223825 0.203553 0)
(0.239623 0.201605 0)
(0.254287 0.205041 0)
(0.266657 0.203714 0)
(0.257936 0.207009 0)
(0.174124 0.207243 0)
(0.0461088 0.212443 0)
(-0.0326861 0.20145 0)
(-0.0336258 0.221745 0)
(-0.0856769 0.222481 0)
(-0.152324 0.514085 0)
(-0.143438 0.525625 0)
(-0.131459 0.551542 0)
(-0.151017 0.568053 0)
(-0.171329 0.558828 0)
(-0.153426 0.53607 0)
(-0.109545 0.516228 0)
(-0.0684785 0.487526 0)
(-0.0284404 0.46008 0)
(0.00224563 0.426963 0)
(0.0155551 0.387529 0)
(0.0100889 0.343762 0)
(0.000601126 0.304531 0)
(0.000555474 0.279193 0)
(0.00962343 0.264397 0)
(0.0201791 0.254 0)
(0.0281614 0.244699 0)
(0.0340137 0.236768 0)
(0.0401334 0.230731 0)
(0.0484229 0.226092 0)
(0.0594712 0.222848 0)
(0.0730693 0.220329 0)
(0.0887658 0.218811 0)
(0.105759 0.218112 0)
(0.123326 0.217942 0)
(0.141061 0.217448 0)
(0.158677 0.218487 0)
(0.176167 0.216972 0)
(0.193487 0.218745 0)
(0.210407 0.217912 0)
(0.226589 0.22043 0)
(0.24244 0.21852 0)
(0.256989 0.221904 0)
(0.269172 0.220569 0)
(0.260921 0.223848 0)
(0.178131 0.22433 0)
(0.0519228 0.230412 0)
(-0.0269723 0.219776 0)
(-0.0279305 0.240568 0)
(-0.0800224 0.241969 0)
(-0.12696 0.497723 0)
(-0.120379 0.499613 0)
(-0.111003 0.516195 0)
(-0.149579 0.532867 0)
(-0.187221 0.5247 0)
(-0.170649 0.505194 0)
(-0.127753 0.492445 0)
(-0.0906229 0.466504 0)
(-0.0549996 0.441866 0)
(-0.0334595 0.409141 0)
(-0.0264183 0.371432 0)
(-0.0277964 0.334945 0)
(-0.0233686 0.308649 0)
(-0.0119208 0.291682 0)
(0.00149959 0.279495 0)
(0.013183 0.26922 0)
(0.0221983 0.260288 0)
(0.0288168 0.251992 0)
(0.0360685 0.245204 0)
(0.0455147 0.240662 0)
(0.0571781 0.237592 0)
(0.0709847 0.235231 0)
(0.0866206 0.233906 0)
(0.103436 0.233405 0)
(0.120836 0.233464 0)
(0.138479 0.233101 0)
(0.156109 0.234373 0)
(0.173578 0.23302 0)
(0.191104 0.234815 0)
(0.208146 0.234163 0)
(0.224434 0.236726 0)
(0.240421 0.234886 0)
(0.25498 0.238197 0)
(0.267066 0.236842 0)
(0.259151 0.239993 0)
(0.177178 0.240603 0)
(0.0535197 0.24791 0)
(-0.0245841 0.238155 0)
(-0.0249975 0.259314 0)
(-0.0764528 0.261601 0)
(-0.0961074 0.47663 0)
(-0.102153 0.475162 0)
(-0.0968659 0.482514 0)
(-0.147494 0.501776 0)
(-0.196076 0.497325 0)
(-0.185298 0.481204 0)
(-0.147109 0.472749 0)
(-0.114471 0.448015 0)
(-0.0847008 0.423115 0)
(-0.0696348 0.390308 0)
(-0.0616351 0.356751 0)
(-0.054447 0.32923 0)
(-0.0413691 0.311622 0)
(-0.025641 0.299769 0)
(-0.0101846 0.290262 0)
(0.00240426 0.280915 0)
(0.0114201 0.271653 0)
(0.0194908 0.263858 0)
(0.0288789 0.257968 0)
(0.0406145 0.254299 0)
(0.0545166 0.251746 0)
(0.0702948 0.249576 0)
(0.0874454 0.248295 0)
(0.105294 0.247797 0)
(0.123346 0.247908 0)
(0.141363 0.247499 0)
(0.159241 0.248842 0)
(0.176755 0.247549 0)
(0.194452 0.249072 0)
(0.211461 0.248442 0)
(0.227717 0.250799 0)
(0.243637 0.248853 0)
(0.257981 0.25192 0)
(0.269776 0.250486 0)
(0.262277 0.25337 0)
(0.182294 0.254197 0)
(0.0613471 0.26236 0)
(-0.0163229 0.253713 0)
(-0.0164443 0.275448 0)
(-0.0667902 0.278672 0)
(-0.0713023 0.459502 0)
(-0.0866351 0.457559 0)
(-0.0858008 0.459038 0)
(-0.143521 0.47926 0)
(-0.198488 0.475484 0)
(-0.196955 0.46092 0)
(-0.164107 0.452679 0)
(-0.136789 0.426456 0)
(-0.111844 0.399703 0)
(-0.0985915 0.369908 0)
(-0.0848144 0.348203 0)
(-0.0689922 0.333588 0)
(-0.0509694 0.321633 0)
(-0.0337913 0.310299 0)
(-0.018068 0.300474 0)
(-0.00542596 0.291354 0)
(0.0046217 0.282696 0)
(0.0142259 0.275015 0)
(0.0251747 0.269152 0)
(0.0380413 0.265494 0)
(0.0525469 0.262895 0)
(0.0684829 0.260641 0)
(0.0855694 0.259344 0)
(0.103354 0.258891 0)
(0.121439 0.259084 0)
(0.139565 0.258554 0)
(0.157538 0.259897 0)
(0.17527 0.258534 0)
(0.193034 0.259706 0)
(0.210074 0.258965 0)
(0.226428 0.261064 0)
(0.24241 0.258909 0)
(0.256785 0.26169 0)
(0.268389 0.259984 0)
(0.261062 0.262232 0)
(0.183787 0.262598 0)
(0.0675197 0.272394 0)
(-0.00901707 0.266978 0)
(-0.0087301 0.290624 0)
(-0.0568131 0.295621 0)
(-0.0583551 0.44624 0)
(-0.0769499 0.445891 0)
(-0.0784271 0.443248 0)
(-0.139891 0.459234 0)
(-0.199409 0.451643 0)
(-0.206907 0.433799 0)
(-0.180004 0.423042 0)
(-0.1581 0.398865 0)
(-0.135964 0.3799 0)
(-0.119077 0.360729 0)
(-0.100004 0.345439 0)
(-0.0815368 0.331148 0)
(-0.0624521 0.320174 0)
(-0.0443074 0.310326 0)
(-0.0282748 0.300505 0)
(-0.0155262 0.290273 0)
(-0.00476939 0.280626 0)
(0.00641968 0.272544 0)
(0.0193124 0.266573 0)
(0.0340037 0.262681 0)
(0.0500815 0.259348 0)
(0.0673539 0.255778 0)
(0.0855665 0.252864 0)
(0.104198 0.25072 0)
(0.122819 0.249357 0)
(0.141325 0.247237 0)
(0.159669 0.247653 0)
(0.177773 0.245382 0)
(0.19561 0.245925 0)
(0.212804 0.244875 0)
(0.229289 0.24708 0)
(0.245208 0.244758 0)
(0.259491 0.247733 0)
(0.270592 0.245924 0)
(0.263227 0.248029 0)
(0.190412 0.249903 0)
(0.0817378 0.266285 0)
(0.0065532 0.271207 0)
(0.00568097 0.30107 0)
(-0.0402871 0.308194 0)
(-0.060914 0.436473 0)
(-0.0782008 0.431203 0)
(-0.0775932 0.419156 0)
(-0.137604 0.426096 0)
(-0.203775 0.415919 0)
(-0.220881 0.397615 0)
(-0.199226 0.385819 0)
(-0.179077 0.361903 0)
(-0.155611 0.346075 0)
(-0.136062 0.326942 0)
(-0.115252 0.312266 0)
(-0.0959024 0.297095 0)
(-0.0762194 0.283309 0)
(-0.0578431 0.269266 0)
(-0.041627 0.254366 0)
(-0.0278673 0.239059 0)
(-0.015213 0.224634 0)
(-0.00199893 0.212298 0)
(0.0126954 0.20272 0)
(0.0285898 0.195811 0)
(0.0452787 0.189301 0)
(0.0629283 0.182154 0)
(0.081409 0.175791 0)
(0.100363 0.170697 0)
(0.119298 0.167 0)
(0.138108 0.162462 0)
(0.157009 0.161493 0)
(0.175237 0.157355 0)
(0.193493 0.156641 0)
(0.211128 0.154472 0)
(0.228089 0.15652 0)
(0.24435 0.154017 0)
(0.259066 0.158373 0)
(0.269828 0.158356 0)
(0.263976 0.164153 0)
(0.202455 0.176666 0)
(0.11055 0.212642 0)
(0.0402949 0.248438 0)
(0.0322372 0.305187 0)
(-0.0185651 0.322574 0)
(-0.070472 0.434466 0)
(-0.095635 0.417314 0)
(-0.101596 0.374293 0)
(-0.158118 0.351814 0)
(-0.224741 0.323603 0)
(-0.245403 0.299795 0)
(-0.223896 0.287642 0)
(-0.202762 0.262638 0)
(-0.176882 0.247383 0)
(-0.156291 0.225296 0)
(-0.133478 0.208175 0)
(-0.112964 0.18945 0)
(-0.0925073 0.171859 0)
(-0.0741137 0.153553 0)
(-0.0579608 0.135002 0)
(-0.0429865 0.117276 0)
(-0.0280607 0.101593 0)
(-0.0122934 0.0885328 0)
(0.00447852 0.0784228 0)
(0.0219745 0.071304 0)
(0.0390606 0.0645972 0)
(0.0567154 0.0572065 0)
(0.0759108 0.051194 0)
(0.0960023 0.0470667 0)
(0.116208 0.044773 0)
(0.136337 0.0413638 0)
(0.156547 0.0419822 0)
(0.175905 0.0393649 0)
(0.195274 0.0401616 0)
(0.214121 0.0395838 0)
(0.232375 0.0432784 0)
(0.250267 0.0432208 0)
(0.266031 0.0499551 0)
(0.278499 0.0537507 0)
(0.278691 0.0654196 0)
(0.23578 0.0913431 0)
(0.166942 0.147026 0)
(0.105486 0.208007 0)
(0.0858766 0.293293 0)
(0.0176646 0.325238 0)
(-0.0812862 0.461362 0)
(-0.149116 0.426775 0)
(-0.164034 0.327778 0)
(-0.19223 0.255088 0)
(-0.237539 0.202453 0)
(-0.247387 0.175578 0)
(-0.225649 0.167526 0)
(-0.20584 0.147061 0)
(-0.180405 0.136159 0)
(-0.160233 0.117093 0)
(-0.137273 0.103407 0)
(-0.116334 0.0876592 0)
(-0.0955329 0.0727624 0)
(-0.0777591 0.0568951 0)
(-0.0609737 0.0417993 0)
(-0.0456934 0.0279425 0)
(-0.0304097 0.0162114 0)
(-0.0144026 0.00679284 0)
(0.00237499 0.000111441 0)
(0.0188235 -0.0036464 0)
(0.0333684 -0.0074756 0)
(0.0471586 -0.0139092 0)
(0.0652472 -0.019597 0)
(0.0850537 -0.0231949 0)
(0.105017 -0.0245927 0)
(0.124619 -0.0276663 0)
(0.144473 -0.0266181 0)
(0.163811 -0.0287339 0)
(0.183084 -0.0278267 0)
(0.20205 -0.0280576 0)
(0.220708 -0.0244914 0)
(0.239466 -0.0238033 0)
(0.256176 -0.0168323 0)
(0.271327 -0.0122183 0)
(0.279239 -1.27296e-05 0)
(0.263196 0.0282967 0)
(0.222613 0.0886207 0)
(0.201936 0.185336 0)
(0.170476 0.32897 0)
(0.0526831 0.379987 0)
(-0.555789 0.383903 0)
(-0.31981 0.423382 0)
(-0.299267 0.271921 0)
(-0.268941 0.196812 0)
(-0.286505 0.151175 0)
(-0.280608 0.133326 0)
(-0.258943 0.132443 0)
(-0.238937 0.117111 0)
(-0.213954 0.111845 0)
(-0.193281 0.0966955 0)
(-0.170148 0.0861528 0)
(-0.149018 0.0725453 0)
(-0.128416 0.0590123 0)
(-0.109556 0.0450965 0)
(-0.0909465 0.0324685 0)
(-0.0731114 0.0208783 0)
(-0.0550504 0.0109134 0)
(-0.0362947 0.00265368 0)
(-0.0165679 -0.00361727 0)
(0.00456742 -0.00789982 0)
(0.0282394 -0.0127394 0)
(0.0531676 -0.0177435 0)
(0.0755372 -0.0215538 0)
(0.0965187 -0.0242002 0)
(0.116879 -0.0252141 0)
(0.137255 -0.0284408 0)
(0.157606 -0.0274743 0)
(0.177687 -0.0296575 0)
(0.197737 -0.0289065 0)
(0.2177 -0.0291351 0)
(0.237243 -0.0256837 0)
(0.256716 -0.0246051 0)
(0.274287 -0.0174766 0)
(0.29114 -0.0123849 0)
(0.303871 -0.000490234 0)
(0.310841 0.0221464 0)
(0.3007 0.0715094 0)
(0.337323 0.153213 0)
(0.345887 0.335989 0)
(0.525998 0.344642 0)
(-0.952207 0.974246 0)
(-0.354237 0.575227 0)
(-0.347935 0.137755 0)
(-0.294468 0.100872 0)
(-0.294905 0.0666969 0)
(-0.281888 0.0543071 0)
(-0.261619 0.0577552 0)
(-0.241128 0.0469105 0)
(-0.21708 0.0472826 0)
(-0.195682 0.0359632 0)
(-0.172602 0.0278602 0)
(-0.151491 0.0155206 0)
(-0.131126 0.0024589 0)
(-0.112194 -0.0110219 0)
(-0.093711 -0.0232927 0)
(-0.0753251 -0.0341399 0)
(-0.0563169 -0.0433294 0)
(-0.0365347 -0.0510357 0)
(-0.015834 -0.056941 0)
(0.0055005 -0.0608043 0)
(0.0270875 -0.0650762 0)
(0.0489772 -0.0694421 0)
(0.0711514 -0.0720491 0)
(0.0931031 -0.0732927 0)
(0.114466 -0.0730154 0)
(0.135573 -0.0761659 0)
(0.156474 -0.0747019 0)
(0.177021 -0.0769962 0)
(0.197633 -0.0764138 0)
(0.218113 -0.0767304 0)
(0.23823 -0.0734632 0)
(0.258328 -0.0718905 0)
(0.276701 -0.0642294 0)
(0.295094 -0.0578009 0)
(0.310211 -0.0447772 0)
(0.325869 -0.0265218 0)
(0.330097 0.00647974 0)
(0.382573 0.0404239 0)
(0.354253 0.500538 0)
(0.92964 0.93594 0)
(-0.952207 -0.974246 0)
(-0.354237 -0.575227 0)
(-0.347935 -0.137755 0)
(-0.294468 -0.100872 0)
(-0.294905 -0.0666969 0)
(-0.281888 -0.0543071 0)
(-0.261619 -0.0577552 0)
(-0.241128 -0.0469105 0)
(-0.21708 -0.0472826 0)
(-0.195682 -0.0359632 0)
(-0.172602 -0.0278602 0)
(-0.151491 -0.0155206 0)
(-0.131126 -0.0024589 0)
(-0.112194 0.0110219 0)
(-0.093711 0.0232927 0)
(-0.0753251 0.0341399 0)
(-0.0563169 0.0433294 0)
(-0.0365347 0.0510357 0)
(-0.015834 0.056941 0)
(0.0055005 0.0608043 0)
(0.0270875 0.0650762 0)
(0.0489772 0.0694421 0)
(0.0711514 0.0720491 0)
(0.0931031 0.0732927 0)
(0.114466 0.0730154 0)
(0.135573 0.0761659 0)
(0.156474 0.0747019 0)
(0.177021 0.0769962 0)
(0.197633 0.0764138 0)
(0.218113 0.0767304 0)
(0.23823 0.0734632 0)
(0.258328 0.0718905 0)
(0.276701 0.0642294 0)
(0.295094 0.0578009 0)
(0.310211 0.0447772 0)
(0.325869 0.0265218 0)
(0.330097 -0.00647974 0)
(0.382573 -0.0404239 0)
(0.354253 -0.500538 0)
(0.92964 -0.93594 0)
(-0.555789 -0.383903 0)
(-0.31981 -0.423382 0)
(-0.299267 -0.271921 0)
(-0.268941 -0.196812 0)
(-0.286505 -0.151175 0)
(-0.280608 -0.133326 0)
(-0.258943 -0.132443 0)
(-0.238937 -0.117111 0)
(-0.213954 -0.111845 0)
(-0.193281 -0.0966955 0)
(-0.170148 -0.0861528 0)
(-0.149018 -0.0725453 0)
(-0.128416 -0.0590123 0)
(-0.109556 -0.0450965 0)
(-0.0909465 -0.0324685 0)
(-0.0731114 -0.0208783 0)
(-0.0550504 -0.0109134 0)
(-0.0362947 -0.00265368 0)
(-0.0165679 0.00361727 0)
(0.00456742 0.00789982 0)
(0.0282394 0.0127394 0)
(0.0531676 0.0177435 0)
(0.0755372 0.0215538 0)
(0.0965187 0.0242002 0)
(0.116879 0.0252141 0)
(0.137255 0.0284408 0)
(0.157606 0.0274743 0)
(0.177687 0.0296575 0)
(0.197737 0.0289065 0)
(0.2177 0.0291351 0)
(0.237243 0.0256837 0)
(0.256716 0.0246051 0)
(0.274287 0.0174766 0)
(0.29114 0.0123849 0)
(0.303871 0.000490234 0)
(0.310841 -0.0221464 0)
(0.3007 -0.0715094 0)
(0.337323 -0.153213 0)
(0.345887 -0.335989 0)
(0.525998 -0.344642 0)
(-0.0812862 -0.461362 0)
(-0.149116 -0.426775 0)
(-0.164034 -0.327778 0)
(-0.19223 -0.255088 0)
(-0.237539 -0.202453 0)
(-0.247387 -0.175578 0)
(-0.225649 -0.167526 0)
(-0.20584 -0.147061 0)
(-0.180405 -0.136159 0)
(-0.160233 -0.117093 0)
(-0.137273 -0.103407 0)
(-0.116334 -0.0876592 0)
(-0.0955329 -0.0727624 0)
(-0.0777591 -0.0568951 0)
(-0.0609737 -0.0417993 0)
(-0.0456934 -0.0279425 0)
(-0.0304097 -0.0162114 0)
(-0.0144026 -0.00679284 0)
(0.00237499 -0.000111441 0)
(0.0188235 0.0036464 0)
(0.0333684 0.0074756 0)
(0.0471586 0.0139092 0)
(0.0652472 0.019597 0)
(0.0850537 0.0231949 0)
(0.105017 0.0245927 0)
(0.124619 0.0276663 0)
(0.144473 0.0266181 0)
(0.163811 0.0287339 0)
(0.183084 0.0278267 0)
(0.20205 0.0280576 0)
(0.220708 0.0244914 0)
(0.239466 0.0238033 0)
(0.256176 0.0168323 0)
(0.271327 0.0122183 0)
(0.279239 1.27296e-05 0)
(0.263196 -0.0282967 0)
(0.222613 -0.0886207 0)
(0.201936 -0.185336 0)
(0.170476 -0.32897 0)
(0.0526831 -0.379987 0)
(-0.070472 -0.434466 0)
(-0.095635 -0.417314 0)
(-0.101596 -0.374293 0)
(-0.158118 -0.351814 0)
(-0.224741 -0.323603 0)
(-0.245403 -0.299795 0)
(-0.223896 -0.287642 0)
(-0.202762 -0.262638 0)
(-0.176882 -0.247383 0)
(-0.156291 -0.225296 0)
(-0.133478 -0.208175 0)
(-0.112964 -0.18945 0)
(-0.0925073 -0.171859 0)
(-0.0741137 -0.153553 0)
(-0.0579608 -0.135002 0)
(-0.0429865 -0.117276 0)
(-0.0280607 -0.101593 0)
(-0.0122934 -0.0885328 0)
(0.00447852 -0.0784228 0)
(0.0219745 -0.071304 0)
(0.0390606 -0.0645972 0)
(0.0567154 -0.0572065 0)
(0.0759108 -0.051194 0)
(0.0960023 -0.0470667 0)
(0.116208 -0.044773 0)
(0.136337 -0.0413638 0)
(0.156547 -0.0419822 0)
(0.175905 -0.0393649 0)
(0.195274 -0.0401616 0)
(0.214121 -0.0395838 0)