/*--------------------------------*- C++ -*----------------------------------*\
| =========                 |                                                 |
| \\      /  F ield         | OpenFOAM: The Open Source CFD Toolbox           |
|  \\    /   O peration     | Version:  v1912                                 |
|   \\  /    A nd           | Website:  www.openfoam.com                      |
|    \\/     M anipulation  |                                                 |
\*---------------------------------------------------------------------------*/
FoamFile
{
    version     2.0;
    format      ascii;
    class       volScalarField;
    location    "0.18";
    object      lambda;
}
// * * * * * * * * * * * * * * * * * * * * * * * * * * * * * * * * * * * * * //

dimensions      [0 1 0 0 0 0 0];


internalField   nonuniform List<scalar> 
4800
(
1.79159e-05
1.79159e-05
1.79159e-05
1.79159e-05
1.79159e-05
1.79159e-05
1.79159e-05
1.79159e-05
1.79159e-05
1.79159e-05
1.79159e-05
1.79159e-05
1.79159e-05
1.79159e-05
1.79159e-05
1.79159e-05
1.79159e-05
1.79159e-05
1.79159e-05
1.79159e-05
1.79159e-05
1.79159e-05
1.79159e-05
1.79159e-05
1.79159e-05
1.79159e-05
1.79159e-05
1.79159e-05
1.79159e-05
1.79159e-05
1.79159e-05
1.79159e-05
1.79159e-05
1.79159e-05
1.79159e-05
1.79159e-05
1.79159e-05
1.79159e-05
1.79159e-05
1.79159e-05
1.79159e-05
1.79159e-05
1.79159e-05
1.79159e-05
1.79159e-05
1.79159e-05
1.79159e-05
1.79159e-05
1.79159e-05
1.79159e-05
1.79159e-05
1.79159e-05
1.79159e-05
1.79159e-05
1.79159e-05
1.79159e-05
1.79159e-05
1.79159e-05
1.79159e-05
1.79159e-05
1.79159e-05
1.79159e-05
1.79159e-05
1.79159e-05
1.79159e-05
1.79159e-05
1.79159e-05
1.79159e-05
1.79159e-05
1.79159e-05
1.79159e-05
1.79159e-05
1.79159e-05
1.79159e-05
1.79159e-05
1.79159e-05
1.79159e-05
1.79159e-05
1.79159e-05
1.79159e-05
1.79159e-05
1.79159e-05
1.79159e-05
1.79159e-05
1.79159e-05
1.79159e-05
1.79159e-05
1.79159e-05
1.79159e-05
1.79159e-05
1.79159e-05
1.79159e-05
1.79159e-05
1.79159e-05
1.79159e-05
1.79159e-05
1.79159e-05
1.79159e-05
1.79159e-05
1.79159e-05
1.79159e-05
1.79159e-05
1.79159e-05
1.79159e-05
1.79159e-05
1.79159e-05
1.79159e-05
1.79159e-05
1.79159e-05
1.79159e-05
1.79159e-05
1.79159e-05
1.79159e-05
1.79159e-05
1.79159e-05
1.79159e-05
1.79159e-05
1.79159e-05
1.79159e-05
1.79159e-05
1.79159e-05
1.79159e-05
1.79159e-05
1.79159e-05
1.79159e-05
1.79159e-05
1.79159e-05
1.79159e-05
1.79159e-05
1.79159e-05
1.79159e-05
1.79159e-05
1.79159e-05
1.79159e-05
1.79159e-05
1.79159e-05
1.79159e-05
1.79159e-05
1.79159e-05
1.79159e-05
1.79159e-05
1.79159e-05
1.79159e-05
1.79159e-05
1.79159e-05
1.79159e-05
1.79159e-05
1.79159e-05
1.79159e-05
1.79159e-05
1.79159e-05
1.79159e-05
1.79159e-05
1.79159e-05
1.79159e-05
1.79159e-05
1.79159e-05
1.79159e-05
1.79159e-05
1.79159e-05
1.79159e-05
1.79159e-05
1.79159e-05
1.79159e-05
1.79159e-05
1.79159e-05
1.79159e-05
1.79159e-05
1.79159e-05
1.79159e-05
1.79159e-05
1.79159e-05
1.79159e-05
1.79159e-05
1.79159e-05
1.79159e-05
1.79159e-05
1.79159e-05
1.79159e-05
1.79159e-05
1.79159e-05
1.79159e-05
1.79159e-05
1.79159e-05
1.79159e-05
1.79159e-05
1.79159e-05
1.79159e-05
1.79159e-05
1.79159e-05
1.79159e-05
1.79159e-05
1.79159e-05
1.79159e-05
1.79159e-05
1.79159e-05
1.79159e-05
1.79159e-05
1.79159e-05
1.79159e-05
1.79159e-05
1.79159e-05
1.79159e-05
1.79159e-05
1.79159e-05
1.79159e-05
1.79159e-05
1.79159e-05
1.79159e-05
1.79159e-05
1.79159e-05
1.79159e-05
1.79159e-05
1.79159e-05
1.79159e-05
1.79159e-05
1.79159e-05
1.79159e-05
1.79159e-05
1.79159e-05
1.79159e-05
1.79159e-05
1.79159e-05
1.79159e-05
1.79159e-05
1.79159e-05
1.79159e-05
1.79159e-05
1.79159e-05
1.79159e-05
1.79159e-05
1.79159e-05
1.79159e-05
1.79159e-05
1.79159e-05
1.79159e-05
1.79159e-05
1.79159e-05
1.79159e-05
1.79159e-05
1.79159e-05
1.79159e-05
1.79159e-05
1.79159e-05
1.79159e-05
1.79159e-05
1.79159e-05
1.79159e-05
1.79159e-05
1.79159e-05
1.79159e-05
1.79159e-05
1.79159e-05
1.79159e-05
1.79159e-05
1.79159e-05
1.79159e-05
1.79159e-05
1.79159e-05
1.79159e-05
1.79159e-05
1.79159e-05
1.79159e-05
1.79159e-05
1.79159e-05
1.79159e-05
1.79159e-05
1.79159e-05
1.79159e-05
1.79159e-05
1.79159e-05
1.79159e-05
1.79159e-05
1.79159e-05
1.79159e-05
1.79159e-05
1.79159e-05
1.79159e-05
1.79159e-05
1.79159e-05
1.79159e-05
1.79159e-05
1.79159e-05
1.79159e-05
1.79159e-05
1.79159e-05
1.79159e-05
1.79159e-05
1.79159e-05
1.79159e-05
1.79159e-05
1.79159e-05
1.79159e-05
1.79159e-05
1.79159e-05
1.79159e-05
1.79159e-05
1.79159e-05
1.79159e-05
1.79159e-05
1.79159e-05
1.79159e-05
1.79159e-05
1.79159e-05
1.79159e-05
1.79159e-05
1.79159e-05
1.79159e-05
1.79159e-05
1.79159e-05
1.79159e-05
1.79159e-05
1.79159e-05
1.79159e-05
1.79159e-05
1.79159e-05
1.79159e-05
1.79159e-05
1.79159e-05
1.79159e-05
1.79159e-05
1.79159e-05
1.79159e-05
1.79159e-05
1.79159e-05
1.79159e-05
1.79159e-05
1.79159e-05
1.79159e-05
1.79159e-05
1.79159e-05
1.79159e-05
1.79159e-05
1.79159e-05
1.79159e-05
1.79159e-05
1.79159e-05
1.79159e-05
1.79159e-05
1.79159e-05
1.79159e-05
1.79159e-05
1.79159e-05
1.79159e-05
1.79159e-05
1.79159e-05
1.79159e-05
1.79159e-05
1.79159e-05
1.79159e-05
1.79159e-05
1.79159e-05
1.79159e-05
1.79159e-05
1.79159e-05
1.79159e-05
1.79159e-05
1.79159e-05
1.79159e-05
1.79159e-05
1.79159e-05
1.79159e-05
1.79159e-05
1.79159e-05
1.79159e-05
1.79159e-05
1.79159e-05
1.79159e-05
1.79159e-05
1.79159e-05
1.79159e-05
1.79159e-05
1.79159e-05
1.79159e-05
1.79159e-05
1.79159e-05
1.79159e-05
1.79159e-05
1.79159e-05
1.79159e-05
1.79159e-05
1.79159e-05
1.79159e-05
1.79159e-05
1.79159e-05
1.79159e-05
1.79159e-05
1.79159e-05
1.79159e-05
1.79159e-05
1.79159e-05
1.79159e-05
1.79159e-05
1.79159e-05
1.79159e-05
1.79159e-05
1.79159e-05
1.79159e-05
1.79159e-05
1.79159e-05
1.79159e-05
1.79159e-05
1.79159e-05
1.79159e-05
1.79159e-05
1.79159e-05
1.79159e-05
1.79159e-05
1.79159e-05
1.79159e-05
1.79159e-05
1.79159e-05
1.79159e-05
1.79159e-05
1.79159e-05
1.79159e-05
1.79159e-05
1.79159e-05
1.79159e-05
1.79159e-05
1.79159e-05
1.79159e-05
1.79159e-05
1.79159e-05
1.79159e-05
1.79159e-05
1.79159e-05
1.79159e-05
1.79159e-05
1.79159e-05
1.79159e-05
1.79159e-05
1.79159e-05
1.79159e-05
1.79159e-05
1.79159e-05
1.79159e-05
1.79159e-05
1.79159e-05
1.79159e-05
1.79159e-05
1.79159e-05
1.79159e-05
1.79159e-05
1.79159e-05
1.79159e-05
1.79159e-05
1.79159e-05
1.79159e-05
1.79159e-05
1.79159e-05
1.79159e-05
1.79159e-05
1.79159e-05
1.79159e-05
1.79159e-05
1.79159e-05
1.79159e-05
1.79159e-05
1.79159e-05
1.79159e-05
1.79159e-05
1.79159e-05
1.79159e-05
1.79159e-05
1.79159e-05
1.79159e-05
1.79159e-05
1.79159e-05
1.79159e-05
1.79159e-05
1.79159e-05
1.79159e-05
1.79159e-05
1.79159e-05
1.79159e-05
1.79159e-05
1.79159e-05
1.79159e-05
1.79159e-05
1.79159e-05
1.79159e-05
1.79159e-05
1.79159e-05
1.79159e-05
1.79159e-05
1.79159e-05
1.79159e-05
1.79159e-05
1.79159e-05
1.79159e-05
1.79159e-05
1.79159e-05
1.79159e-05
1.79159e-05
1.79159e-05
1.79159e-05
1.79159e-05
1.79159e-05
1.79159e-05
1.79159e-05
1.79159e-05
1.79159e-05
1.79159e-05
1.79159e-05
1.79159e-05
1.79159e-05
1.79159e-05
1.79159e-05
1.79159e-05
1.79159e-05
1.79159e-05
1.79159e-05
1.79159e-05
1.79159e-05
1.79159e-05
1.79159e-05
1.79159e-05
1.79159e-05
1.79159e-05
1.79159e-05
1.79159e-05
1.79159e-05
1.79159e-05
1.79159e-05
1.79159e-05
1.79159e-05
1.79159e-05
1.79159e-05
1.79159e-05
1.79159e-05
1.79159e-05
1.79159e-05
1.79159e-05
1.79159e-05
1.79159e-05
1.79159e-05
1.79159e-05
1.79159e-05
1.79159e-05
1.79159e-05
1.79159e-05
1.79159e-05
1.79159e-05
1.79159e-05
1.79159e-05
1.79159e-05
1.79159e-05
1.79159e-05
1.79159e-05
1.79159e-05
1.79159e-05
1.79159e-05
1.79159e-05
1.79159e-05
1.79159e-05
1.79159e-05
1.79159e-05
1.79159e-05
1.79159e-05
1.79159e-05
1.79159e-05
1.79159e-05
1.79159e-05
1.79159e-05
1.79159e-05
1.79159e-05
1.79159e-05
1.79159e-05
1.79159e-05
1.79159e-05
1.79159e-05
1.79159e-05
1.79159e-05
1.79159e-05
1.79159e-05
1.79159e-05
1.79159e-05
1.79159e-05
1.79159e-05
1.79159e-05
1.79159e-05
1.79159e-05
1.79159e-05
1.79159e-05
1.79159e-05
1.79159e-05
1.79159e-05
1.79159e-05
1.79159e-05
1.79159e-05
1.79159e-05
1.79159e-05
1.79159e-05
1.79159e-05
1.79159e-05
1.79159e-05
1.79159e-05
1.79159e-05
1.79159e-05
1.79159e-05
1.79159e-05
1.79159e-05
1.79159e-05
1.79159e-05
1.79159e-05
1.79159e-05
1.79159e-05
1.79159e-05
1.79159e-05
1.79159e-05
1.79159e-05
1.79159e-05
1.79159e-05
1.79159e-05
1.79159e-05
1.79159e-05
1.79159e-05
1.79159e-05
1.79159e-05
1.79159e-05
1.79159e-05
1.79159e-05
1.79159e-05
1.79159e-05
1.79159e-05
1.79159e-05
1.79159e-05
1.79159e-05
1.79159e-05
1.79159e-05
1.79159e-05
1.79159e-05
1.79159e-05
1.79159e-05
1.79159e-05
1.79159e-05
1.79159e-05
1.79159e-05
1.79159e-05
1.79159e-05
1.79159e-05
1.79159e-05
1.79159e-05
1.79159e-05
1.79159e-05
1.79159e-05
1.79159e-05
1.79159e-05
1.79159e-05
1.79159e-05
1.79159e-05
1.79159e-05
1.79159e-05
1.79159e-05
1.79159e-05
1.79159e-05
1.79159e-05
1.79159e-05
1.79159e-05
1.79159e-05
1.79159e-05
1.79159e-05
1.79159e-05
1.79159e-05
1.79159e-05
1.79159e-05
1.79159e-05
1.79159e-05
1.79159e-05
1.79159e-05
1.79159e-05
1.79159e-05
1.79159e-05
1.79159e-05
1.79159e-05
1.79159e-05
1.79159e-05
1.79159e-05
1.79159e-05
1.79159e-05
1.79159e-05
1.79159e-05
1.79159e-05
1.79159e-05
1.79159e-05
1.79159e-05
1.79159e-05
1.79159e-05
1.79159e-05
1.79159e-05
1.79159e-05
1.79159e-05
1.79159e-05
1.79159e-05
1.79159e-05
1.79159e-05
1.79159e-05
1.79159e-05
1.79159e-05
1.79159e-05
1.79159e-05
1.79159e-05
1.79159e-05
1.79159e-05
1.79159e-05
1.79159e-05
1.79159e-05
1.79159e-05
1.79159e-05
1.79159e-05
1.79159e-05
1.79159e-05
1.79159e-05
1.79159e-05
1.79159e-05
1.79159e-05
1.79159e-05
1.79159e-05
1.79159e-05
1.79159e-05
1.79159e-05
1.79159e-05
1.79159e-05
1.79159e-05
1.79159e-05
1.79159e-05
1.79159e-05
1.79159e-05
1.79159e-05
1.79159e-05
1.79159e-05
1.79159e-05
1.79159e-05
1.79159e-05
1.79159e-05
1.79159e-05
1.79159e-05
1.79159e-05
1.79159e-05
1.79159e-05
1.79159e-05
1.79159e-05
1.79159e-05
1.79159e-05
1.79159e-05
1.79159e-05
1.79159e-05
1.79159e-05
1.79159e-05
1.79159e-05
1.79159e-05
1.79159e-05
1.79159e-05
1.79159e-05
1.79159e-05
1.79159e-05
1.79159e-05
1.79159e-05
1.79159e-05
1.79159e-05
1.79159e-05
1.79159e-05
1.79159e-05
1.79159e-05
1.79159e-05
1.79159e-05
1.79159e-05
1.79159e-05
1.79159e-05
1.79159e-05
1.79159e-05
1.79159e-05
1.79159e-05
1.79159e-05
1.79159e-05
1.79159e-05
1.79159e-05
1.79159e-05
1.79159e-05
1.79159e-05
1.79159e-05
1.79159e-05
1.79159e-05
1.79159e-05
1.79159e-05
1.79159e-05
1.79159e-05
1.79159e-05
1.79159e-05
1.79159e-05
1.79159e-05
1.79159e-05
1.79159e-05
1.79159e-05
1.79159e-05
1.79159e-05
1.79159e-05
1.79159e-05
1.79159e-05
1.79159e-05
1.79159e-05
1.79159e-05
1.79159e-05
1.79159e-05
1.79159e-05
1.79159e-05
1.79159e-05
1.79159e-05
1.79159e-05
1.79159e-05
1.79159e-05
1.79159e-05
1.79159e-05
1.79159e-05
1.79159e-05
1.79159e-05
1.79159e-05
1.79159e-05
1.79159e-05
1.79159e-05
1.79159e-05
1.79159e-05
1.79159e-05
1.79159e-05
1.79159e-05
1.79159e-05
1.79159e-05
1.79159e-05
1.79159e-05
1.79159e-05
1.79159e-05
1.79159e-05
1.79159e-05
1.79159e-05
1.79159e-05
1.79159e-05
1.79159e-05
1.79159e-05
1.79159e-05
1.79159e-05
1.79159e-05
1.79159e-05
1.79159e-05
1.79159e-05
1.79159e-05
1.79159e-05
1.79159e-05
1.79159e-05
1.79159e-05
1.79159e-05
1.79159e-05
1.79159e-05
1.79159e-05
1.79159e-05
1.79159e-05
1.79159e-05
1.79159e-05
1.79159e-05
1.79159e-05
1.79159e-05
1.79159e-05
1.79159e-05
1.79159e-05
1.79159e-05
1.79159e-05
1.79159e-05
1.79159e-05
1.79159e-05
1.79159e-05
1.79159e-05
1.79159e-05
1.79159e-05
1.79159e-05
1.79159e-05
1.79159e-05
1.79159e-05
1.79159e-05
1.79159e-05
1.79159e-05
1.79159e-05
1.79159e-05
1.79159e-05
1.79159e-05
1.79159e-05
1.79159e-05
1.79159e-05
1.79159e-05
1.79159e-05
1.79159e-05
1.79159e-05
1.79159e-05
1.79159e-05
1.79159e-05
1.79159e-05
1.79159e-05
1.79159e-05
1.79159e-05
1.79159e-05
1.79159e-05
1.79159e-05
1.79159e-05
1.79159e-05
1.79159e-05
1.79159e-05
1.79159e-05
1.79159e-05
1.79159e-05
1.79159e-05
1.79159e-05
1.79159e-05
1.79159e-05
1.79159e-05
1.79159e-05
1.79159e-05
1.79159e-05
1.79159e-05
1.79159e-05
1.79159e-05
1.79159e-05
1.79159e-05
1.79159e-05
1.79159e-05
1.79159e-05
1.79159e-05
1.79159e-05
1.79159e-05
1.79159e-05
1.79159e-05
1.79159e-05
1.79159e-05
1.79159e-05
1.79159e-05
1.79159e-05
1.79159e-05
1.79159e-05
1.79159e-05
1.79159e-05
1.79159e-05
1.79159e-05
1.79159e-05
1.79159e-05
1.79159e-05
1.79159e-05
1.79159e-05
1.79159e-05
1.79159e-05
1.79159e-05
1.79159e-05
1.79159e-05
1.79159e-05
1.79159e-05
1.79159e-05
1.79159e-05
1.79159e-05
1.79159e-05
1.79159e-05
1.79159e-05
1.79159e-05
1.79159e-05
1.79159e-05
1.79159e-05
1.79159e-05
1.79159e-05
1.79159e-05
1.79159e-05
1.79159e-05
1.79159e-05
1.79159e-05
1.79159e-05
1.79159e-05
1.79159e-05
1.79159e-05
1.79159e-05
1.79159e-05
1.79159e-05
1.79159e-05
1.79159e-05
1.79159e-05
1.79159e-05
1.79159e-05
1.79159e-05
1.79159e-05
1.79159e-05
1.79159e-05
1.79159e-05
1.79159e-05
1.79159e-05
1.79159e-05
1.79159e-05
1.79159e-05
1.79159e-05
1.79159e-05
1.79159e-05
1.79159e-05
1.79159e-05
1.79159e-05
1.79159e-05
1.79159e-05
1.79159e-05
1.79159e-05
1.79159e-05
1.79159e-05
1.79159e-05
1.79159e-05
1.79159e-05
1.79159e-05
1.79159e-05
1.79159e-05
1.79159e-05
1.79159e-05
1.79159e-05
1.79159e-05
1.79159e-05
1.79159e-05
1.79159e-05
1.79159e-05
1.79159e-05
1.79159e-05
1.79159e-05
1.79159e-05
1.79159e-05
1.79159e-05
1.79159e-05
1.79159e-05
1.79159e-05
1.79159e-05
1.79159e-05
1.79159e-05
1.79159e-05
1.79159e-05
1.79159e-05
1.79159e-05
1.79159e-05
1.79159e-05
1.79159e-05
1.79159e-05
1.79159e-05
1.79159e-05
1.79159e-05
1.79159e-05
1.79159e-05
1.79159e-05
1.79159e-05
1.79159e-05
1.79159e-05
1.79159e-05
1.79159e-05
1.79159e-05
1.79159e-05
1.79159e-05
1.79159e-05
1.79159e-05
1.79159e-05
1.79159e-05
1.79159e-05
1.79159e-05
1.79159e-05
1.79159e-05
1.79159e-05
1.79159e-05
1.79159e-05
1.79159e-05
1.79159e-05
1.79159e-05
1.79159e-05
1.79159e-05
1.79159e-05
1.79159e-05
1.79159e-05
1.79159e-05
1.79159e-05
1.79159e-05
1.79159e-05
1.79159e-05
1.79159e-05
1.79159e-05
1.79159e-05
1.79159e-05
1.79159e-05
1.79159e-05
1.79159e-05
1.79159e-05
1.79159e-05
1.79159e-05
1.79159e-05
1.79159e-05
1.79159e-05
1.79159e-05
1.79159e-05
1.79159e-05
1.79159e-05
1.79159e-05
1.79159e-05
1.79159e-05
1.79159e-05
1.79159e-05
1.79159e-05
1.79159e-05
1.79159e-05
1.79159e-05
1.79159e-05
1.79159e-05
1.79159e-05
1.79159e-05
1.79159e-05
1.79159e-05
1.79159e-05
1.79159e-05
1.79159e-05
1.79159e-05
1.79159e-05
1.79159e-05
1.79159e-05
1.79159e-05
1.79159e-05
1.79159e-05
1.79159e-05
1.79159e-05
1.79159e-05
1.79159e-05
1.79159e-05
1.79159e-05
1.79159e-05
1.79159e-05
1.79159e-05
1.79159e-05
1.79159e-05
1.79159e-05
1.79159e-05
1.79159e-05
1.79159e-05
1.79159e-05
1.79159e-05
1.79159e-05
1.79159e-05
1.79159e-05
1.79159e-05
1.79159e-05
1.79159e-05
1.79159e-05
1.79159e-05
1.79159e-05
1.79159e-05
1.79159e-05
1.79159e-05
1.79159e-05
1.79159e-05
1.79159e-05
1.79159e-05
1.79159e-05
1.79159e-05
1.79159e-05
1.79159e-05
1.79159e-05
1.79159e-05
1.79159e-05
1.79159e-05
1.79159e-05
1.79159e-05
1.79159e-05
1.79159e-05
1.79159e-05
1.79159e-05
1.79159e-05
1.79159e-05
1.79159e-05
1.79159e-05
1.79159e-05
1.79159e-05
1.79159e-05
1.79159e-05
1.79159e-05
1.79159e-05
1.79159e-05
1.79159e-05
1.79159e-05
1.79159e-05
1.79159e-05
1.79159e-05
1.79159e-05
1.79159e-05
1.79159e-05
1.79159e-05
1.79159e-05
1.79159e-05
1.79159e-05
1.79159e-05
1.79159e-05
1.79159e-05
1.79159e-05
1.79159e-05
1.79159e-05
1.79159e-05
1.79159e-05
1.79159e-05
1.79159e-05
1.79159e-05
1.79159e-05
1.79159e-05
1.79159e-05
1.79159e-05
1.79159e-05
1.79159e-05
1.79159e-05
1.79159e-05
1.79159e-05
1.79159e-05
1.79159e-05
1.79159e-05
1.79159e-05
1.79159e-05
1.79159e-05
1.79159e-05
1.79159e-05
1.79159e-05
1.79159e-05
1.79159e-05
1.79159e-05
1.79159e-05
1.79159e-05
1.79159e-05
1.79159e-05
1.79159e-05
1.79159e-05
1.79159e-05
1.79159e-05
1.79159e-05
1.79159e-05
1.79159e-05
1.79159e-05
1.79159e-05
1.79159e-05
1.79159e-05
1.79159e-05
1.79159e-05
1.79159e-05
1.79159e-05
1.79159e-05
1.79159e-05
1.79159e-05
1.79159e-05
1.79159e-05
1.79159e-05
1.79159e-05
1.79159e-05
1.79159e-05
1.79159e-05
1.79159e-05
1.79159e-05
1.79159e-05
1.79159e-05
1.79159e-05
1.79159e-05
1.79159e-05
1.79159e-05
1.79159e-05
1.79159e-05
1.79159e-05
1.79159e-05
1.79159e-05
1.79159e-05
1.79159e-05
1.79159e-05
1.79159e-05
1.79159e-05
1.79159e-05
1.79159e-05
1.79159e-05
1.79159e-05
1.79159e-05
1.79159e-05
1.79159e-05
1.79159e-05
1.79159e-05
1.79159e-05
1.79159e-05
1.79159e-05
1.79159e-05
1.79159e-05
1.79159e-05
1.79159e-05
1.79159e-05
1.79159e-05
1.79159e-05
1.79159e-05
1.79159e-05
1.79159e-05
1.79159e-05
1.79159e-05
1.79159e-05
1.79159e-05
1.79159e-05
1.79159e-05
1.79159e-05
1.79159e-05
1.79159e-05
1.79159e-05
1.79159e-05
1.79159e-05
1.79159e-05
1.79159e-05
1.79159e-05
1.79159e-05
1.79159e-05
1.79159e-05
1.79159e-05
1.79159e-05
1.79159e-05
1.79159e-05
1.79159e-05
1.79159e-05
1.79159e-05
1.79159e-05
1.79159e-05
1.79159e-05
1.79159e-05
1.79159e-05
1.79159e-05
1.79159e-05
1.79159e-05
1.79159e-05
1.79159e-05
1.79159e-05
1.79159e-05
1.79159e-05
1.79159e-05
1.79159e-05
1.79159e-05
1.79159e-05
1.79159e-05
1.79159e-05
1.79159e-05
1.79159e-05
1.79159e-05
1.79159e-05
1.79159e-05
1.79159e-05
1.79159e-05
1.79159e-05
1.79159e-05
1.79159e-05
1.79159e-05
1.79159e-05
1.79159e-05
1.79159e-05
1.79159e-05
1.79159e-05
1.79159e-05
1.79159e-05
1.79159e-05
1.79159e-05
1.79159e-05
1.79159e-05
1.79159e-05
1.79159e-05
1.79159e-05
1.79159e-05
1.79159e-05
1.79159e-05
1.79159e-05
1.79159e-05
1.79159e-05
1.79159e-05
1.79159e-05
1.79159e-05
1.79159e-05
1.79159e-05
1.79159e-05
1.79159e-05
1.79159e-05
1.79159e-05
1.79159e-05
1.79159e-05
1.79159e-05
1.79159e-05
1.79159e-05
1.79159e-05
1.79159e-05
1.79159e-05
1.79159e-05
1.79159e-05
1.79159e-05
1.79159e-05
1.79159e-05
1.79159e-05
1.79159e-05
1.79159e-05
1.79159e-05
1.79159e-05
1.79159e-05
1.79159e-05
1.79159e-05
1.79159e-05
1.79159e-05
1.79159e-05
1.79159e-05
1.79159e-05
1.79159e-05
1.79159e-05
1.79159e-05
1.79159e-05
1.79159e-05
1.79159e-05
1.79159e-05
1.79159e-05
1.79159e-05
1.79159e-05
1.79159e-05
1.79159e-05
1.79159e-05
1.79159e-05
1.79159e-05
1.79159e-05
1.79159e-05
1.79159e-05
1.79159e-05
1.79159e-05
1.79159e-05
1.79159e-05
1.79159e-05
1.79159e-05
1.79159e-05
1.79159e-05
1.79159e-05
1.79159e-05
1.79159e-05
1.79159e-05
1.79159e-05
1.79159e-05
1.79159e-05
1.79159e-05
1.79159e-05
1.79159e-05
1.79159e-05
1.79159e-05
1.79159e-05
1.79159e-05
1.79159e-05
1.79159e-05
1.79159e-05
1.79159e-05
1.79159e-05
1.79159e-05
1.79159e-05
1.79159e-05
1.79159e-05
1.79159e-05
1.79159e-05
1.79159e-05
1.79159e-05
1.79159e-05
1.79159e-05
1.79159e-05
1.79159e-05
1.79159e-05
1.79159e-05
1.79159e-05
1.79159e-05
1.79159e-05
1.79159e-05
1.79159e-05
1.79159e-05
1.79159e-05
1.79159e-05
1.79159e-05
1.79159e-05
1.79159e-05
1.79159e-05
1.79159e-05
1.79159e-05
1.79159e-05
1.79159e-05
1.79159e-05
1.79159e-05
1.79159e-05
1.79159e-05
1.79159e-05
1.79159e-05
1.79159e-05
1.79159e-05
1.79159e-05
1.79159e-05
1.79159e-05
1.79159e-05
1.79159e-05
1.79159e-05
1.79159e-05
1.79159e-05
1.79159e-05
1.79159e-05
1.79159e-05
1.79159e-05
1.79159e-05
1.79159e-05
1.79159e-05
1.79159e-05
1.79159e-05
1.79159e-05
1.79159e-05
1.79159e-05
1.79159e-05
1.79159e-05
1.79159e-05
1.79159e-05
1.79159e-05
1.79159e-05
1.79159e-05
1.79159e-05
1.79159e-05
1.79159e-05
1.79159e-05
1.79159e-05
1.79159e-05
1.79159e-05
1.79159e-05
1.79159e-05
1.79159e-05
1.79159e-05
1.79159e-05
1.79159e-05
1.79159e-05
1.79159e-05
1.79159e-05
1.79159e-05
1.79159e-05
1.79159e-05
1.79159e-05
1.79159e-05
1.79159e-05
1.79159e-05
1.79159e-05
1.79159e-05
1.79159e-05
1.79159e-05
1.79159e-05
1.79159e-05
1.79159e-05
1.79159e-05
1.79159e-05
1.79159e-05
1.79159e-05
1.79159e-05
1.79159e-05
1.79159e-05
1.79159e-05
1.79159e-05
1.79159e-05
1.79159e-05
1.79159e-05
1.79159e-05
1.79159e-05
1.79159e-05
1.79159e-05
1.79159e-05
1.79159e-05
1.79159e-05
1.79159e-05
1.79159e-05
1.79159e-05
1.79159e-05
1.79159e-05
1.79159e-05
1.79159e-05
1.79159e-05
1.79159e-05
1.79159e-05
1.79159e-05
1.79159e-05
1.79159e-05
1.79159e-05
1.79159e-05
1.79159e-05
1.79159e-05
1.79159e-05
1.79159e-05
1.79159e-05
1.79159e-05
1.79159e-05
1.79159e-05
1.79159e-05
1.79159e-05
1.79159e-05
1.79159e-05
1.79159e-05
1.79159e-05
1.79159e-05
1.79159e-05
1.79159e-05
1.79159e-05
1.79159e-05
1.79159e-05
1.79159e-05
1.79159e-05
1.79159e-05
1.79159e-05
1.79159e-05
1.79159e-05
1.79159e-05
1.79159e-05
1.52099e-05
1.2418e-05
1.03857e-05
8.86668e-06
7.60849e-06
6.91627e-06
6.45514e-06
5.93511e-06
5.37417e-06
5.24342e-06
5.19096e-06
5.00843e-06
4.8837e-06
4.91794e-06
5.03496e-06
5.22369e-06
5.47644e-06
5.76037e-06
6.08161e-06
6.35514e-06
6.57662e-06
6.70204e-06
6.8118e-06
6.84222e-06
6.83443e-06
6.76799e-06
6.66061e-06
6.55019e-06
6.50006e-06
6.50531e-06
6.53002e-06
6.54648e-06
6.53876e-06
6.50679e-06
6.47952e-06
6.47294e-06
6.47034e-06
6.46421e-06
6.44443e-06
6.42551e-06
6.42228e-06
6.42747e-06
6.44535e-06
6.46423e-06
6.48222e-06
6.49697e-06
6.50089e-06
6.50071e-06
6.49788e-06
6.47778e-06
6.441e-06
6.41441e-06
6.40552e-06
6.40664e-06
6.41834e-06
6.4405e-06
6.4674e-06
6.4934e-06
6.50856e-06
6.51479e-06
6.51552e-06
6.50773e-06
6.48781e-06
6.45804e-06
6.43213e-06
6.41781e-06
6.41222e-06
6.41113e-06
6.41238e-06
6.41637e-06
6.42352e-06
6.4364e-06
6.45417e-06
6.47403e-06
6.49316e-06
6.50277e-06
6.50323e-06
6.49904e-06
6.48403e-06
6.45097e-06
1.79159e-05
1.79245e-05
1.78178e-05
1.77893e-05
1.74239e-05
1.5993e-05
1.44859e-05
1.3372e-05
1.18994e-05
1.01424e-05
8.98781e-06
8.2223e-06
7.19916e-06
6.76287e-06
6.54016e-06
6.26398e-06
6.21896e-06
6.04946e-06
6.03373e-06
6.13971e-06
6.15184e-06
6.16487e-06
6.26097e-06
6.40434e-06
6.49885e-06
6.51919e-06
6.56433e-06
6.61113e-06
6.61056e-06
6.6134e-06
6.60188e-06
6.59542e-06
6.58155e-06
6.54638e-06
6.51938e-06
6.51451e-06
6.51715e-06
6.51942e-06
6.51075e-06
6.4944e-06
6.47834e-06
6.46841e-06
6.46921e-06
6.47294e-06
6.47307e-06
6.47166e-06
6.47341e-06
6.48286e-06
6.49445e-06
6.49659e-06
6.49446e-06
6.4825e-06
6.46624e-06
6.45628e-06
6.45521e-06
6.46066e-06
6.46551e-06
6.4653e-06
6.46608e-06
6.46702e-06
6.46927e-06
6.47225e-06
6.47442e-06
6.47725e-06
6.47985e-06
6.48326e-06
6.48294e-06
6.4784e-06
6.466e-06
6.44808e-06
6.44248e-06
6.4445e-06
6.44586e-06
6.4479e-06
6.45382e-06
6.46292e-06
6.4672e-06
6.4652e-06
6.45817e-06
6.45006e-06
1.79159e-05
1.79159e-05
1.79159e-05
1.79159e-05
1.79159e-05
1.79159e-05
1.79159e-05
1.7917e-05
1.79302e-05
1.7757e-05
1.70708e-05
1.60422e-05
1.42784e-05
1.17205e-05
9.88345e-06
8.15955e-06
6.9231e-06
6.37193e-06
5.96794e-06
5.94142e-06
5.95329e-06
5.94455e-06
5.97399e-06
6.07368e-06
6.223e-06
6.4498e-06
6.63298e-06
6.71979e-06
6.69668e-06
6.67156e-06
6.66972e-06
6.66081e-06
6.63285e-06
6.5992e-06
6.56194e-06
6.55799e-06
6.56786e-06
6.58899e-06
6.59251e-06
6.58588e-06
6.57332e-06
6.54542e-06
6.51111e-06
6.49658e-06
6.49073e-06
6.48957e-06
6.49271e-06
6.50105e-06
6.51058e-06
6.52622e-06
6.53835e-06
6.54116e-06
6.54324e-06
6.5432e-06
6.53298e-06
6.50992e-06
6.4873e-06
6.47484e-06
6.46687e-06
6.46233e-06
6.45984e-06
6.46026e-06
6.46689e-06
6.48209e-06
6.50302e-06
6.5233e-06
6.53756e-06
6.54074e-06
6.53732e-06
6.51793e-06
6.48171e-06
6.45579e-06
6.44757e-06
6.44499e-06
6.44519e-06
6.45102e-06
6.45384e-06
6.45285e-06
6.44964e-06
6.45191e-06
1.79159e-05
1.79159e-05
1.79159e-05
1.79159e-05
1.79159e-05
1.79159e-05
1.79159e-05
1.79159e-05
1.79159e-05
1.79159e-05
1.79159e-05
1.79159e-05
1.79225e-05
1.78934e-05
1.76453e-05
1.66592e-05
1.39025e-05
1.13974e-05
8.96925e-06
7.73244e-06
7.04137e-06
6.44774e-06
6.37012e-06
6.36256e-06
6.37105e-06
6.3789e-06
6.42799e-06
6.4964e-06
6.52133e-06
6.54117e-06
6.59972e-06
6.63954e-06
6.67542e-06
6.68546e-06
6.68274e-06
6.69583e-06
6.69509e-06
6.69215e-06
6.68722e-06
6.67901e-06
6.67174e-06
6.65622e-06
6.6222e-06
6.58299e-06
6.55227e-06
6.5366e-06
6.53342e-06
6.53512e-06
6.54463e-06
6.56232e-06
6.57501e-06
6.58231e-06
6.59092e-06
6.60244e-06
6.6075e-06
6.5987e-06
6.57214e-06
6.53815e-06
6.50691e-06
6.48532e-06
6.47787e-06
6.47948e-06
6.48756e-06
6.50442e-06
6.53108e-06
6.55956e-06
6.5752e-06
6.57647e-06
6.56991e-06
6.55666e-06
6.53693e-06
6.51261e-06
6.49381e-06
6.48024e-06
6.47012e-06
6.46472e-06
6.4636e-06
6.46254e-06
6.46054e-06
6.46628e-06
1.79159e-05
1.79159e-05
1.79159e-05
1.79159e-05
1.79159e-05
1.79159e-05
1.79159e-05
1.79159e-05
1.79159e-05
1.79159e-05
1.79159e-05
1.79159e-05
1.79159e-05
1.79159e-05
1.79159e-05
1.79159e-05
1.79249e-05
1.78419e-05
1.71063e-05
1.46865e-05
1.23383e-05
9.90479e-06
8.30028e-06
7.34365e-06
6.55088e-06
6.41051e-06
6.29982e-06
6.28723e-06
6.32044e-06
6.38116e-06
6.49352e-06
6.677e-06
6.7921e-06
6.7662e-06
6.72469e-06
6.71997e-06
6.72798e-06
6.7374e-06
6.74204e-06
6.7437e-06
6.743e-06
6.74586e-06
6.72436e-06
6.68631e-06
6.64917e-06
6.62589e-06
6.60861e-06
6.59262e-06
6.58816e-06
6.59364e-06
6.608e-06
6.6172e-06
6.62468e-06
6.63406e-06
6.64421e-06
6.64807e-06
6.64041e-06
6.623e-06
6.60384e-06
6.58364e-06
6.56214e-06
6.54382e-06
6.53747e-06
6.54072e-06
6.55337e-06
6.56204e-06
6.57282e-06
6.58076e-06
6.57795e-06
6.56851e-06
6.559e-06
6.55305e-06
6.54751e-06
6.54032e-06
6.5331e-06
6.52719e-06
6.52242e-06
6.51799e-06
6.51289e-06
6.50959e-06
1.79159e-05
1.79159e-05
1.79159e-05
1.79159e-05
1.79159e-05
1.79159e-05
1.79159e-05
1.79159e-05
1.79159e-05
1.79159e-05
1.79159e-05
1.79159e-05
1.79159e-05
1.79159e-05
1.79159e-05
1.79159e-05
1.79159e-05
1.79159e-05
1.79159e-05
1.79216e-05
1.79018e-05
1.74728e-05
1.54821e-05
1.33259e-05
1.06837e-05
8.78257e-06
7.60605e-06
6.81324e-06
6.72945e-06
6.62751e-06
6.69869e-06
6.75422e-06
6.73289e-06
6.66984e-06
6.60347e-06
6.59735e-06
6.62134e-06
6.65631e-06
6.68727e-06
6.7112e-06
6.74856e-06
6.78036e-06
6.77816e-06
6.75266e-06
6.72771e-06
6.70762e-06
6.68746e-06
6.66696e-06
6.64416e-06
6.62407e-06
6.60979e-06
6.60564e-06
6.60741e-06
6.61285e-06
6.62597e-06
6.65026e-06
6.65838e-06
6.6593e-06
6.66282e-06
6.66506e-06
6.65997e-06
6.64215e-06
6.61208e-06
6.58657e-06
6.57697e-06
6.57555e-06
6.57677e-06
6.57725e-06
6.57293e-06
6.56661e-06
6.56543e-06
6.56961e-06
6.57709e-06
6.58409e-06
6.58781e-06
6.59206e-06
6.59575e-06
6.59614e-06
6.59057e-06
6.56783e-06
1.79159e-05
1.79159e-05
1.79159e-05
1.79159e-05
1.79159e-05
1.79159e-05
1.79159e-05
1.79159e-05
1.79159e-05
1.79159e-05
1.79159e-05
1.79159e-05
1.79159e-05
1.79159e-05
1.79159e-05
1.79159e-05
1.79159e-05
1.79159e-05
1.79159e-05
1.79159e-05
1.79159e-05
1.79159e-05
1.79161e-05
1.79198e-05
1.76379e-05
1.60539e-05
1.40414e-05
1.13032e-05
9.24994e-06
7.76445e-06
6.97428e-06
6.76638e-06
6.54084e-06
6.52072e-06
6.53834e-06
6.53979e-06
6.55783e-06
6.59892e-06
6.65335e-06
6.70538e-06
6.73491e-06
6.7443e-06
6.7454e-06
6.75145e-06
6.75653e-06
6.75822e-06
6.75231e-06
6.74584e-06
6.72953e-06
6.697e-06
6.64416e-06
6.60106e-06
6.59209e-06
6.59293e-06
6.59606e-06
6.60929e-06
6.65037e-06
6.68275e-06
6.69941e-06
6.70568e-06
6.70373e-06
6.69113e-06
6.66923e-06
6.6398e-06
6.61372e-06
6.60002e-06
6.59117e-06
6.58327e-06
6.57601e-06
6.57048e-06
6.57476e-06
6.58968e-06
6.60882e-06
6.62425e-06
6.63212e-06
6.6359e-06
6.63805e-06
6.637e-06
6.62858e-06
6.60631e-06
1.79159e-05
1.79159e-05
1.79159e-05
1.79159e-05
1.79159e-05
1.79159e-05
1.79159e-05
1.79159e-05
1.79159e-05
1.79159e-05
1.79159e-05
1.79159e-05
1.79159e-05
1.79159e-05
1.79159e-05
1.79159e-05
1.79159e-05
1.79159e-05
1.79159e-05
1.79159e-05
1.79159e-05
1.79159e-05
1.79159e-05
1.79159e-05
1.79159e-05
1.7916e-05
1.79233e-05
1.77197e-05
1.6541e-05
1.47905e-05
1.17348e-05
9.48199e-06
7.81922e-06
7.20355e-06
7.0226e-06
6.80072e-06
6.79448e-06
6.76938e-06
6.72296e-06
6.67302e-06
6.61869e-06
6.5852e-06
6.58846e-06
6.61034e-06
6.64285e-06
6.68594e-06
6.74712e-06
6.77231e-06
6.77102e-06
6.75646e-06
6.71623e-06
6.65305e-06
6.60217e-06
6.58997e-06
6.59091e-06
6.59579e-06
6.59917e-06
6.61318e-06
6.63964e-06
6.66892e-06
6.68627e-06
6.68523e-06
6.67318e-06
6.66408e-06
6.65676e-06
6.6482e-06
6.63664e-06
6.62122e-06
6.6043e-06
6.59594e-06
6.59808e-06
6.60411e-06
6.60923e-06
6.61631e-06
6.62671e-06
6.63595e-06
6.63945e-06
6.63924e-06
6.63189e-06
6.6119e-06
1.79159e-05
1.79159e-05
1.79159e-05
1.79159e-05
1.79159e-05
1.79159e-05
1.79159e-05
1.79159e-05
1.79159e-05
1.79159e-05
1.79159e-05
1.79159e-05
1.79159e-05
1.79159e-05
1.79159e-05
1.79159e-05
1.79159e-05
1.79159e-05
1.79159e-05
1.79159e-05
1.79159e-05
1.79159e-05
1.79159e-05
1.79159e-05
1.79159e-05
1.79159e-05
1.79159e-05
1.79159e-05
1.7916e-05
1.79224e-05
1.77432e-05
1.67347e-05
1.48671e-05
1.17973e-05
9.62823e-06
7.97968e-06
7.33901e-06
6.94688e-06
6.68822e-06
6.66601e-06
6.61209e-06
6.52682e-06
6.51821e-06
6.53061e-06
6.57018e-06
6.62163e-06
6.67689e-06
6.7298e-06
6.75183e-06
6.74758e-06
6.72651e-06
6.69701e-06
6.67745e-06
6.66236e-06
6.64373e-06
6.6151e-06
6.59507e-06
6.58861e-06
6.58817e-06
6.59018e-06
6.60047e-06
6.61795e-06
6.63399e-06
6.64812e-06
6.66298e-06
6.67219e-06
6.67311e-06
6.6697e-06
6.65906e-06
6.64304e-06
6.63087e-06
6.62419e-06
6.61783e-06
6.61261e-06
6.61188e-06
6.61241e-06
6.61406e-06
6.61306e-06
6.60521e-06
6.60342e-06
1.79159e-05
1.79159e-05
1.79159e-05
1.79159e-05
1.79159e-05
1.79159e-05
1.79159e-05
1.79159e-05
1.79159e-05
1.79159e-05
1.79159e-05
1.79159e-05
1.79159e-05
1.79159e-05
1.79159e-05
1.79159e-05
1.79159e-05
1.79159e-05
1.79159e-05
1.79159e-05
1.79159e-05
1.79159e-05
1.79159e-05
1.79159e-05
1.79159e-05
1.79159e-05
1.79159e-05
1.79159e-05
1.79159e-05
1.79159e-05
1.79159e-05
1.79161e-05
1.792e-05
1.7697e-05
1.68663e-05
1.51537e-05
1.19335e-05
9.5772e-06
7.88569e-06
7.46179e-06
7.08242e-06
6.7561e-06
6.69334e-06
6.65224e-06
6.62645e-06
6.58101e-06
6.5442e-06
6.55724e-06
6.58706e-06
6.61003e-06
6.63174e-06
6.66996e-06
6.69842e-06
6.70494e-06
6.7038e-06
6.69133e-06
6.65804e-06
6.60675e-06
6.56529e-06
6.55685e-06
6.55741e-06
6.55654e-06
6.55412e-06
6.56364e-06
6.59632e-06
6.64117e-06
6.66653e-06
6.66928e-06
6.66419e-06
6.65393e-06
6.64858e-06
6.64813e-06
6.64265e-06
6.62579e-06
6.60582e-06
6.59843e-06
6.59882e-06
6.59884e-06
6.59426e-06
6.59426e-06
1.79159e-05
1.79159e-05
1.79159e-05
1.79159e-05
1.79159e-05
1.79159e-05
1.79159e-05
1.79159e-05
1.79159e-05
1.79159e-05
1.79159e-05
1.79159e-05
1.79159e-05
1.79159e-05
1.79159e-05
1.79159e-05
1.79159e-05
1.79159e-05
1.79159e-05
1.79159e-05
1.79159e-05
1.79159e-05
1.79159e-05
1.79159e-05
1.79159e-05
1.79159e-05
1.79159e-05
1.79159e-05
1.79159e-05
1.79159e-05
1.79159e-05
1.79159e-05
1.79159e-05
1.79159e-05
1.79162e-05