/*--------------------------------*- C++ -*----------------------------------*\
| =========                 |                                                 |
| \\      /  F ield         | OpenFOAM: The Open Source CFD Toolbox           |
|  \\    /   O peration     | Version:  v1912                                 |
|   \\  /    A nd           | Website:  www.openfoam.com                      |
|    \\/     M anipulation  |                                                 |
\*---------------------------------------------------------------------------*/
FoamFile
{
    version     2.0;
    format      ascii;
    class       volVectorField;
    location    "4.9";
    object      grad(p);
}
// * * * * * * * * * * * * * * * * * * * * * * * * * * * * * * * * * * * * * //

dimensions      [1 -2 -2 0 0 0 0];


internalField   nonuniform List<vector> 
1900
(
(137202 0.204324 0)
(-125819 -0.329201 0)
(-9237.91 0.740778 0)
(-1848.05 0.1991 0)
(-1863.83 3.8975 0)
(-1555.41 9.90594 0)
(-1272.02 12.8345 0)
(-862.051 15.4251 0)
(-886.26 -136.552 0)
(-268.738 -133.034 0)
(137202 0.34314 0)
(-125818 -0.408522 0)
(-9237.38 1.0485 0)
(-1844.89 1.19779 0)
(-1854.12 7.39983 0)
(-1546.47 14.2032 0)
(-1266.51 11.8787 0)
(-1011.44 -0.481273 0)
(-1034.72 -175.874 0)
(-1067.24 -169.356 0)
(137202 2.77112e-09 0)
(-125818 1.10134e-09 0)
(-9236.31 -3.09086e-09 0)
(-1841.69 -1.77636e-11 0)
(-1850.82 -1.40332e-09 0)
(-1550.93 1.06581e-10 0)
(-1286.71 9.23706e-10 0)
(-1049.8 1.19016e-09 0)
(-1055.14 3.73035e-09 0)
(-1125.96 2.25597e-09 0)
(137202 -0.34314 0)
(-125818 0.408522 0)
(-9237.38 -1.0485 0)
(-1844.89 -1.19779 0)
(-1854.12 -7.39983 0)
(-1546.47 -14.2032 0)
(-1266.51 -11.8787 0)
(-1011.44 0.481273 0)
(-1034.72 175.874 0)
(-1067.24 169.356 0)
(137202 -0.204324 0)
(-125819 0.329201 0)
(-9237.91 -0.740778 0)
(-1848.05 -0.1991 0)
(-1863.83 -3.8975 0)
(-1555.41 -9.90594 0)
(-1272.02 -12.8345 0)
(-862.051 -15.4251 0)
(-886.26 136.552 0)
(-268.738 133.034 0)
(-682.794 -834.429 9.28497e-12)
(-2043.33 -804.151 -1.08703e-11)
(-2336.72 -1194.71 -1.35931e-11)
(-952.579 -1417.25 0)
(-12128.1 -8857.33 -5.78062e-11)
(-1271.11 -926.996 9.13418e-12)
(-1910.84 -933.944 1.08703e-11)
(-2372.8 -1297.79 1.35931e-11)
(-3544.58 -1164.91 0)
(-11526.5 -7397.13 0)
(-1678.85 1.78601e-09 0)
(-2182.17 2.06463e-09 0)
(-2507.27 2.41782e-09 0)
(-3384.31 3.93625e-09 0)
(-14833.4 3.75361e-09 0)
(-1271.11 926.996 9.13418e-12)
(-1910.84 933.944 1.08703e-11)
(-2372.8 1297.79 1.35931e-11)
(-3544.58 1164.91 0)
(-11526.5 7397.13 0)
(-682.794 834.429 -2.75533e-11)
(-2043.33 804.151 -1.08703e-11)
(-2336.72 1194.71 -1.35931e-11)
(-952.579 1417.25 -3.63669e-11)
(-12128.1 8857.33 5.78062e-11)
(-22663.7 9251.39 1.55549e-11)
(-5299.67 2528.66 -1.16992e-11)
(-5141.31 1387.95 0)
(-6083.74 916.217 7.2532e-12)
(-7827.42 1164.88 -2.76257e-12)
(-18923.2 10387.7 -7.91676e-12)
(-7052.08 1716.06 5.88766e-12)
(-5538.04 530.702 0)
(-6055.46 413.619 -4.55361e-12)
(-7552.72 761.446 7.05147e-13)
(-20246 1.03172e-09 0)
(-7778.66 4.1752e-10 0)
(-5598.23 2.00663e-09 0)
(-6015.29 -4.60053e-09 1.82643e-12)
(-7488.69 -7.01193e-10 -1.41029e-12)
(-18923.2 -10387.7 -7.91676e-12)
(-7052.08 -1716.06 5.88766e-12)
(-5538.04 -530.702 0)
(-6055.46 -413.619 -4.55361e-12)
(-7552.72 -761.446 7.05147e-13)
(-22663.7 -9251.39 7.91676e-12)
(-5299.67 -2528.66 -7.61551e-14)
(-5141.31 -1387.95 0)
(-6083.74 -916.217 2.75935e-14)
(-7827.42 -1164.88 2.76257e-12)
(-7515.19 3455.46 0)
(-2013.91 1062.82 0)
(1854.18 605.353 0)
(585.218 1364.31 0)
(-1100.25 1029.58 0)
(-1425.71 503.687 0)
(-1107.24 173.652 0)
(-824.899 81.9015 0)
(-754.458 51.6354 0)
(-722.382 45.314 0)
(-621.174 36.1962 0)
(-441.453 11.8104 0)
(-267.219 1.64281 0)
(-165.642 0.0734424 0)
(-122.755 0.17058 0)
(-102.784 0.154238 0)
(-88.2427 -0.147216 0)
(-74.4383 -0.556197 0)
(-61.88 -0.843781 0)
(-50.6375 -1.00884 0)
(-40.2829 -1.11081 0)
(-31.4528 -1.16759 0)
(-23.4847 -1.18794 0)
(-16.0442 -1.18389 0)
(-9.72053 -1.16419 0)
(-4.80961 -1.15448 0)
(-0.918983 -1.14395 0)
(2.54178 -1.17438 0)
(8.1742 -1.16514 0)
(15.3611 -1.20678 0)
(30.2806 -1.12335 0)
(46.2406 -0.648813 0)
(67.2958 -0.527626 0)
(83.1228 0.961846 0)
(106.809 0.678443 0)
(125.627 3.2453 0)
(172.88 -1.67518 0)
(738.416 12.5207 0)
(10110.7 -10.6423 0)
(-11498.7 -948.572 0)
(-7767.07 1473.93 0)
(-2492.84 881.772 0)
(1931.9 1268.4 0)
(757.154 1427.16 0)
(-1160.45 832.632 0)
(-1535.06 311.158 0)
(-1163.19 90.3104 0)
(-840.21 33.0392 0)
(-758.297 19.571 0)
(-722.985 14.503 0)
(-623.577 14.6508 0)
(-444.821 3.5283 0)
(-268.014 -0.192507 0)
(-165.656 -0.436118 0)
(-122.717 -0.273783 0)
(-102.792 -0.216002 0)
(-88.2946 -0.276627 0)
(-74.4982 -0.446901 0)
(-61.9109 -0.56882 0)
(-50.6487 -0.599903 0)
(-40.2904 -0.622168 0)
(-31.458 -0.640841 0)
(-23.4882 -0.655709 0)
(-16.0474 -0.668774 0)
(-9.72596 -0.681782 0)
(-4.81779 -0.703269 0)
(-0.932455 -0.726268 0)
(2.52825 -0.765826 0)
(8.16154 -0.779521 0)
(15.3563 -0.801579 0)
(30.3214 -0.753832 0)
(46.2701 -0.5283 0)
(67.4476 -0.390158 0)
(83.2921 0.656454 0)
(107.101 1.37658 0)
(125.537 3.70556 0)
(173.889 4.35675 0)
(738.44 14.4472 0)
(10121.3 8.20377 0)
(-11510.7 517.028 0)
(-7421.68 -8.42155e-09 0)
(-2073.7 1.76586e-08 0)
(2012.84 5.38398e-08 0)
(458.449 2.38597e-08 0)
(-1424.91 -6.56445e-09 0)
(-1641.66 5.30485e-09 0)
(-1188.15 -5.80546e-09 0)
(-845.478 -1.4881e-08 0)
(-759.85 -2.23659e-09 0)
(-723.813 -4.15022e-09 0)
(-624.366 -1.72831e-08 0)
(-445.771 -7.58585e-09 0)
(-268.372 -8.55881e-09 0)
(-165.665 -5.62378e-09 0)
(-122.691 -3.54868e-09 0)
(-102.785 -2.24063e-09 0)
(-88.3099 -1.72387e-09 0)
(-74.5233 9.36625e-09 0)
(-61.9245 1.03352e-09 0)
(-50.653 -2.22448e-09 0)
(-40.2948 -9.68922e-10 0)
(-31.4626 2.90677e-09 0)
(-23.4928 5.48248e-09 0)
(-16.0518 4.9092e-09 0)
(-9.73057 5.53093e-09 0)
(-4.82255 9.60444e-09 0)
(-0.937182 1.22044e-08 0)
(2.52629 7.93305e-09 0)
(8.1638 2.12355e-09 0)
(15.3686 -6.39488e-09 0)
(30.3601 -6.2657e-09 0)
(46.3464 -3.35085e-09 0)
(67.6405 1.81108e-08 0)
(83.6368 3.27213e-08 0)
(107.696 4.39487e-08 0)
(126.494 5.30121e-08 0)
(176.005 7.00732e-08 0)
(739.535 5.00448e-08 0)
(10256.9 -2.18896e-08 0)
(-11651.5 1.35956e-07 0)
(-7767.07 -1473.93 0)
(-2492.84 -881.772 0)
(1931.9 -1268.4 0)
(757.154 -1427.16 0)
(-1160.45 -832.632 0)
(-1535.06 -311.158 0)
(-1163.19 -90.3104 0)
(-840.21 -33.0392 0)
(-758.297 -19.571 0)
(-722.985 -14.503 0)
(-623.577 -14.6508 0)
(-444.821 -3.5283 0)
(-268.014 0.192507 0)
(-165.656 0.436118 0)
(-122.717 0.273783 0)
(-102.792 0.216002 0)
(-88.2946 0.276627 0)
(-74.4982 0.446901 0)
(-61.9109 0.56882 0)
(-50.6487 0.599903 0)
(-40.2904 0.622168 0)
(-31.458 0.640841 0)
(-23.4882 0.655709 0)
(-16.0474 0.668774 0)
(-9.72596 0.681782 0)
(-4.81779 0.703269 0)
(-0.932455 0.726268 0)
(2.52825 0.765826 0)
(8.16154 0.77952 0)
(15.3563 0.801579 0)
(30.3214 0.753832 0)
(46.2701 0.5283 0)
(67.4476 0.390158 0)
(83.2921 -0.656454 0)
(107.101 -1.37658 0)
(125.537 -3.70556 0)
(173.889 -4.35675 0)
(738.44 -14.4472 0)
(10121.3 -8.20377 0)
(-11510.7 -517.028 0)
(-7515.19 -3455.46 0)
(-2013.91 -1062.82 0)
(1854.18 -605.353 0)
(585.218 -1364.31 0)
(-1100.25 -1029.58 0)
(-1425.71 -503.687 0)
(-1107.24 -173.652 0)
(-824.899 -81.9015 0)
(-754.458 -51.6355 0)
(-722.382 -45.314 0)
(-621.174 -36.1962 0)
(-441.453 -11.8104 0)
(-267.219 -1.64281 0)
(-165.642 -0.0734423 0)
(-122.755 -0.17058 0)
(-102.784 -0.154238 0)
(-88.2427 0.147216 0)
(-74.4383 0.556197 0)
(-61.88 0.843781 0)
(-50.6375 1.00884 0)
(-40.2829 1.11081 0)
(-31.4528 1.16759 0)
(-23.4847 1.18794 0)
(-16.0442 1.18389 0)
(-9.72053 1.16419 0)
(-4.80961 1.15448 0)
(-0.918983 1.14395 0)
(2.54178 1.17438 0)
(8.1742 1.16514 0)
(15.3611 1.20678 0)
(30.2806 1.12335 0)
(46.2406 0.648813 0)
(67.2958 0.527625 0)
(83.1228 -0.961847 0)
(106.809 -0.678443 0)
(125.627 -3.2453 0)
(172.88 1.67518 0)
(738.416 -12.5207 0)
(10110.7 10.6423 0)
(-11498.7 948.572 0)
(5826.54 -1923.34 0)
(-1258.82 -1576.53 0)
(1832.66 -1581.09 0)
(689.852 -1767.17 0)
(-690.213 -1293.4 0)
(-1124.6 -699.605 0)
(-963.314 -305.912 0)
(-781.377 -164.078 0)
(-739.786 -106.125 0)
(-713.999 -89.0071 0)
(-605.34 -60.2553 0)
(-427.041 -23.713 0)
(-261.572 -5.31052 0)
(-164.748 -1.27132 0)
(-122.724 -1.09584 0)
(-102.602 -0.950224 0)
(-87.909 -0.338641 0)
(-74.1305 0.37664 0)
(-61.6628 0.924441 0)
(-50.4942 1.29079 0)
(-40.1995 1.52073 0)
(-31.4155 1.65014 0)
(-23.482 1.69956 0)
(-16.0659 1.69554 0)
(-9.75068 1.65213 0)
(-4.83994 1.61439 0)
(-0.935554 1.57394 0)
(2.5259 1.60218 0)
(8.16723 1.58447 0)
(15.3245 1.66973 0)
(30.0185 1.52796 0)
(45.9305 0.776141 0)
(66.6128 0.270938 0)
(82.7313 -1.78852 0)
(106.006 -1.37624 0)
(126.909 -4.44395 0)
(169.237 1.72865 0)
(744.092 -17.4022 0)
(10736.5 -7.31513 0)
(-12126.1 219.998 0)
(5214.81 211.978 0)
(-2089.02 -951.035 0)
(1682.03 -1202.06 0)
(806.34 -1473.54 0)
(-291.387 -1253.57 0)
(-635.601 -784.531 0)
(-668.366 -427.72 0)
(-655.714 -245.036 0)
(-689.984 -170.593 0)
(-682.676 -128.038 0)
(-566.744 -81.6593 0)
(-396.234 -34.4677 0)
(-248.621 -9.78902 0)
(-162.06 -2.91066 0)
(-122.463 -1.87045 0)
(-102.152 -1.3211 0)
(-87.143 -0.32642 0)
(-73.3863 0.741911 0)
(-61.1155 1.58864 0)
(-50.1398 2.13779 0)
(-39.9814 2.4904 0)
(-31.3005 2.69767 0)
(-23.4423 2.78729 0)
(-16.0783 2.80126 0)
(-9.78256 2.76098 0)
(-4.86869 2.73492 0)
(-0.921862 2.711 0)
(2.56043 2.80894 0)
(8.24303 2.85079 0)
(15.3262 3.06113 0)
(29.56 2.92281 0)
(45.1955 1.95291 0)
(65.1907 1.14286 0)
(81.7455 -1.38815 0)
(104.681 -1.23711 0)
(127.931 -4.66699 0)
(162.346 -0.762027 0)
(726.658 -19.9008 0)
(10003.8 -34.2516 0)
(-11367.2 -947.503 0)
(5114.36 823.268 0)
(-2621.43 -387.696 0)
(1329.15 -627.942 0)
(640.207 -1114.41 0)
(-26.2563 -947.128 0)
(-328.779 -676.448 0)
(-443.437 -442.402 0)
(-533.601 -290.927 0)
(-627.043 -222.984 0)
(-628.299 -158.749 0)
(-515.172 -98.6659 0)
(-357.784 -43.6891 0)
(-231.162 -15.0728 0)
(-157.118 -5.55127 0)
(-121.192 -3.08126 0)
(-101.114 -1.72759 0)
(-85.921 -0.184609 0)
(-72.2851 1.29461 0)
(-60.3177 2.42444 0)
(-49.6252 3.1601 0)
(-39.66 3.6427 0)
(-31.1294 3.93193 0)
(-23.3822 4.05982 0)
(-16.0913 4.0875 0)
(-9.8146 4.05205 0)
(-4.88811 4.05217 0)
(-0.86423 4.05689 0)
(2.6606 4.2576 0)
(8.41024 4.38207 0)
(15.3939 4.75036 0)
(28.9506 4.63881 0)
(44.2153 3.41705 0)
(63.3933 2.4152 0)
(80.4379 -0.481174 0)
(102.846 -0.479952 0)
(127.367 -4.09825 0)
(154.557 -3.20697 0)
(711.82 -16.0796 0)
(9842.68 -14.5049 0)
(-11180.1 -366.609 0)
(5634.55 1307.67 0)
(-3487.46 -166.508 0)
(981.734 -448.49 0)
(498.761 -806.256 0)
(130.652 -669.521 0)
(-149.229 -546.83 0)
(-296.864 -403.91 0)
(-444.275 -312.095 0)
(-562.613 -250.143 0)
(-562.879 -177.233 0)
(-455.869 -105.209 0)
(-315.681 -48.8398 0)
(-211.87 -19.2022 0)
(-150.504 -8.31775 0)
(-118.778 -4.49879 0)
(-99.3608 -2.22922 0)
(-84.2307 -0.116671 0)
(-70.8721 1.73353 0)
(-59.3179 3.09744 0)
(-48.9658 3.99717 0)
(-39.2376 4.60709 0)
(-30.8986 4.98753 0)
(-23.2924 5.17041 0)
(-16.0858 5.2378 0)
(-9.81661 5.24676 0)
(-4.86402 5.32321 0)
(-0.723899 5.40092 0)
(2.87379 5.75536 0)
(8.71787 6.01126 0)
(15.5736 6.56307 0)
(28.2752 6.49053 0)
(43.0528 5.07028 0)
(61.4342 3.87046 0)
(78.9556 0.665169 0)
(101.196 0.204797 0)
(125.303 -3.06731 0)
(150.8 -5.5556 0)
(715.771 -8.81196 0)
(9666.03 -4.90679 0)
(-11000 -394.014 0)
(6214.02 1157.23 0)
(-4313.73 -110.388 0)
(712.664 -313.427 0)
(427.214 -521.018 0)
(223.736 -454.915 0)
(-72.8268 -431.05 0)
(-217.237 -356.825 0)
(-385.425 -312.439 0)
(-497.085 -254.98 0)
(-488.635 -180.268 0)
(-391.448 -101.978 0)
(-274.904 -49.3541 0)
(-192.114 -21.3954 0)
(-142.949 -10.3402 0)
(-115.325 -5.62795 0)
(-96.8912 -2.60536 0)
(-82.1024 -0.0240551 0)
(-69.1878 2.04943 0)
(-58.1364 3.55886 0)
(-48.1704 4.57219 0)
(-38.7056 5.29934 0)
(-30.5866 5.79113 0)
(-23.141 6.07376 0)
(-16.0177 6.25287 0)
(-9.73229 6.40758 0)
(-4.73954 6.67326 0)
(-0.447793 6.93418 0)
(3.24874 7.59679 0)
(9.18858 8.12329 0)
(15.8558 8.99688 0)
(27.5121 9.15241 0)
(41.6905 7.78821 0)
(59.1483 6.69303 0)
(76.9055 3.56465 0)
(99.2494 2.81945 0)
(121.816 0.0587617 0)
(149.021 -3.48045 0)
(712.445 -0.169519 0)
(9471.48 -2.80118 0)
(-10795.7 -469.861 0)
(6643.32 1018.44 0)
(-4904.63 -98.3937 0)
(586.036 -219.98 0)
(362.418 -298.646 0)
(217.349 -325.69 0)
(-54.7054 -347.106 0)
(-182.566 -325.297 0)
(-346.134 -302.519 0)
(-435.249 -246.533 0)
(-415.44 -170.349 0)
(-329.715 -95.5421 0)
(-238.029 -47.8194 0)
(-174.275 -23.0561 0)
(-135.31 -12.2092 0)
(-111.324 -6.78831 0)
(-93.9607 -3.06872 0)
(-79.7452 -0.147662 0)
(-67.4195 2.02154 0)
(-56.8869 3.56748 0)
(-47.2886 4.64773 0)
(-38.063 5.48831 0)
(-30.1523 6.10913 0)
(-22.8475 6.52273 0)
(-15.7641 6.85794 0)
(-9.41151 7.20747 0)
(-4.35657 7.70389 0)
(0.166052 8.15891 0)
(4.01966 9.10254 0)
(10.067 9.8307 0)
(16.5653 10.8755 0)
(27.1105 11.1189 0)
(40.6828 9.67949 0)
(57.3642 8.36356 0)
(75.2229 5.11141 0)
(97.8171 3.68861 0)
(119.232 1.02264 0)
(150.581 -2.96668 0)
(716.426 5.08789 0)
(9213.42 -0.372359 0)
(-10544.5 -525.163 0)
(7100.62 641.38 0)
(-5507.12 -86.6307 0)
(519.693 -187.312 0)
(325.348 -215.644 0)
(177.038 -264.593 0)
(-72.448 -298.558 0)
(-174.271 -306.416 0)
(-309.525 -285.736 0)
(-369.721 -226.68 0)
(-343.135 -150.444 0)
(-273.374 -84.0979 0)
(-205.054 -43.2318 0)
(-157.798 -22.0282 0)
(-127.273 -11.8171 0)
(-106.517 -6.10369 0)
(-90.492 -2.24546 0)
(-77.1972 0.490008 0)
(-65.6078 2.44912 0)
(-55.6057 3.85749 0)
(-46.3195 4.93825 0)
(-37.2974 5.88221 0)
(-29.5898 6.66333 0)
(-22.4195 7.28178 0)
(-15.3579 7.89245 0)
(-8.91711 8.58278 0)
(-3.8227 9.43542 0)
(0.899996 10.219 0)
(4.85974 11.6468 0)
(10.897 12.675 0)
(17.0971 13.9167 0)
(26.3596 14.3508 0)
(39.0354 12.9722 0)
(54.7464 11.4934 0)
(72.4005 8.38918 0)
(95.3093 6.92996 0)
(115.403 4.25166 0)
(152.939 -0.0749196 0)
(714.945 8.44506 0)
(8960.51 -5.76495 0)
(-10289.2 -568.814 0)
(7177.89 304.925 0)
(-5703.19 -66.3229 0)
(461.715 -144.597 0)
(287.948 -176.02 0)
(137.45 -238.896 0)
(-95.0083 -268.049 0)
(-170.211 -283.238 0)
(-269.297 -256.773 0)
(-304.876 -197.619 0)
(-278.042 -128.102 0)
(-226.402 -72.7664 0)
(-178.216 -39.0064 0)
(-144.003 -20.7312 0)
(-119.965 -10.7927 0)
(-102.101 -4.95539 0)
(-87.6068 -1.35221 0)
(-75.2213 1.11841 0)
(-64.1744 2.97646 0)
(-54.4883 4.39368 0)
(-45.3375 5.52892 0)
(-36.4006 6.5728 0)
(-28.8036 7.48816 0)
(-21.663 8.26956 0)
(-14.5104 9.09036 0)
(-7.92465 10.0093 0)
(-2.77982 11.0489 0)
(2.29702 11.9602 0)
(6.3863 13.6362 0)
(12.2544 14.6101 0)
(18.1802 15.6333 0)
(26.2002 15.8577 0)
(37.9294 14.2201 0)
(52.9479 12.2168 0)
(70.8254 8.87439 0)
(93.8301 7.49327 0)
(112.482 5.36448 0)
(154.621 1.75372 0)
(710.942 10.7512 0)
(8657.15 -6.93417 0)
(-9990.83 -595.226 0)
(7330.54 120.4 0)
(-5940.29 -52.4488 0)
(413.985 -116.408 0)
(234.477 -156.342 0)
(88.3556 -231.827 0)
(-115.177 -251.357 0)
(-163.406 -259.797 0)
(-227.02 -225.316 0)
(-245.729 -168.254 0)
(-222.822 -107.639 0)
(-187.518 -62.0003 0)
(-154.911 -33.3841 0)
(-130.611 -16.8025 0)
(-112.071 -7.11991 0)
(-97.4195 -1.31986 0)
(-84.6391 2.54247 0)
(-73.0259 5.18049 0)
(-62.4516 7.1064 0)
(-53.146 8.55401 0)
(-44.2196 9.70486 0)
(-35.4094 10.8046 0)
(-27.9547 11.8161 0)
(-20.8755 12.7118 0)
(-13.6814 13.6627 0)
(-7.02974 14.6464 0)
(-1.94273 15.587 0)
(3.39317 16.3797 0)
(7.41324 17.9306 0)
(12.8215 18.3838 0)
(18.2993 18.579 0)
(24.9978 17.8949 0)
(35.5269 15.3418 0)
(49.595 12.0277 0)
(67.8488 7.4572 0)
(91.9271 4.64116 0)
(109.872 2.21323 0)
(158.13 -0.403138 0)
(706.573 9.54478 0)
(8376.57 -15.2818 0)
(-9708.98 -630.776 0)
(7243.37 -139.5 0)
(-5931.39 -46.7091 0)
(361.6 -106.445 0)
(176.726 -152.639 0)
(45.89 -226.971 0)
(-121.961 -231.279 0)
(-145.116 -226.773 0)
(-181.082 -187.839 0)
(-191.478 -136.334 0)
(-175.653 -85.5372 0)
(-154.847 -48.4446 0)
(-134.662 -24.3726 0)
(-118.694 -10.1307 0)
(-105.045 -1.60542 0)
(-92.7898 4.22528 0)
(-81.3428 8.34022 0)
(-70.8233 11.1627 0)
(-60.9236 13.2207 0)
(-51.9843 14.8265 0)
(-43.1688 16.1313 0)
(-34.3662 17.3824 0)
(-26.9658 18.5241 0)
(-19.8835 19.49 0)
(-12.6462 20.4432 0)
(-6.07039 21.2816 0)
(-1.10957 21.9797 0)
(4.55546 22.5507 0)
(8.31753 23.8804 0)
(12.8793 23.8392 0)
(17.7091 23.324 0)
(23.0807 21.8373 0)
(32.2756 18.4887 0)
(45.35 13.8475 0)
(63.7074 8.33982 0)
(88.7768 3.94992 0)
(107.621 0.619034 0)
(161.686 -2.9011 0)
(696.605 4.65214 0)
(8040.12 -26.4759 0)
(-9368.27 -657.366 0)
(7151.11 -279.589 0)
(-5908.44 -51.6225 0)
(311.907 -104.863 0)
(118.334 -149.805 0)
(12.5746 -216.067 0)
(-114.987 -204.751 0)
(-121.546 -187.885 0)
(-139.87 -150.064 0)
(-147.147 -106.095 0)
(-138.128 -64.9064 0)
(-128.577 -35.3203 0)
(-117.991 -15.2836 0)
(-108.671 -2.00821 0)
(-98.2366 8.13977 0)
(-87.8355 15.1777 0)
(-77.9539 20.1187 0)
(-68.3229 23.7928 0)
(-58.921 26.6698 0)
(-50.3413 28.9803 0)
(-41.7567 30.7361 0)
(-33.1035 32.1427 0)
(-25.9237 33.1173 0)
(-19.0263 33.5885 0)
(-11.9549 33.7535 0)
(-5.54908 33.5715 0)
(-0.719846 33.4051 0)
(5.22474 32.8846 0)
(8.6549 33.0387 0)
(12.2854 31.7941 0)
(16.3703 30.0753 0)
(20.3384 27.2651 0)
(27.8277 22.822 0)
(39.8151 16.6506 0)
(58.3111 9.88306 0)
(84.487 4.55498 0)
(103.27 1.33828 0)
(162.016 -2.19086 0)
(683.856 2.8044 0)
(7738.63 -44.4424 0)
(-9050 -719.71 0)
(6924.21 -477.664 0)
(-5763.02 -59.0811 0)
(266.987 -105.891 0)
(69.566 -144.093 0)
(-7.05754 -196.017 0)
(-94.8044 -173.839 0)
(-92.4182 -147.344 0)
(-102.267 -112.644 0)
(-109.417 -75.2657 0)
(-107.451 -42.4874 0)
(-107.029 -19.1678 0)
(-102.561 -1.34099 0)
(-96.1219 12.1827 0)
(-88.4839 22.1824 0)
(-81.2465 29.2181 0)
(-73.041 34.4331 0)
(-64.5105 38.4433 0)
(-55.9248 41.6723 0)
(-48.0658 44.2896 0)
(-40.1214 46.2606 0)
(-32.0715 47.7922 0)
(-25.5726 48.7603 0)
(-19.2705 49.0434 0)
(-12.6625 48.8653 0)
(-6.40608 48.2459 0)
(-1.77153 47.7313 0)
(4.20232 46.6195 0)
(7.26668 46.1161 0)
(10.0236 43.9327 0)
(13.3448 41.2336 0)
(16.0912 37.0774 0)
(22.047 31.427 0)
(32.8816 23.5956 0)
(52.0516 14.6852 0)
(80.5427 7.43644 0)
(101.121 3.59479 0)
(163.099 -0.0840874 0)
(655.89 1.87251 0)
(7343.88 -69.3714 0)
(-8631.91 -788.345 0)
(6633.88 -612.114 0)
(-5550.19 -56.7606 0)
(229.987 -97.2171 0)
(31.4852 -124.85 0)
(-16.0891 -160.158 0)
(-68.0839 -131.587 0)
(-62.577 -101.973 0)
(-70.4124 -73.8156 0)
(-79.5412 -44.8127 0)
(-84.07 -19.7938 0)
(-88.9272 0.676782 0)
(-87.78 18.4068 0)
(-86.0034 30.5232 0)
(-81.8207 39.4964 0)
(-76.0303 46.2072 0)
(-69.0642 51.6524 0)
(-61.347 56.1805 0)
(-53.2873 60.1137 0)
(-45.9199 63.3831 0)
(-38.3814 65.7394 0)
(-30.6947 67.2931 0)
(-24.7181 67.9144 0)
(-18.9251 67.5792 0)
(-12.7234 66.6961 0)
(-6.64182 65.4039 0)
(-2.28706 64.4938 0)
(3.66827 62.9201 0)
(6.06582 61.693 0)
(7.58043 58.7942 0)
(9.76427 55.2742 0)
(10.8885 50.3342 0)
(14.836 43.5962 0)
(23.6821 34.058 0)
(42.7395 23.9671 0)
(73.7999 14.6413 0)
(96.0231 11.3242 0)
(160.356 6.894 0)
(617.088 5.32395 0)
(6977.14 -96.8827 0)
(-8223.47 -868.356 0)
(6279.66 -635.787 0)
(-5266.84 -32.3171 0)
(201.374 -69.1557 0)
(8.91391 -87.3224 0)
(-13.5493 -108.04 0)
(-38.735 -82.4924 0)
(-36.7479 -55.9185 0)
(-47.1853 -34.4227 0)
(-57.3601 -9.40707 0)
(-63.616 10.9843 0)
(-70.2175 26.843 0)
(-73.7999 41.1974 0)
(-75.7992 50.8091 0)
(-73.3702 59.0978 0)
(-69.5325 64.4727 0)
(-63.4304 68.8777 0)
(-56.3569 72.6229 0)
(-48.9841 75.9803 0)
(-42.6447 78.9209 0)
(-36.3535 81.2266 0)
(-29.9756 83.0792 0)
(-25.297 84.2005 0)
(-20.4445 84.3162 0)
(-14.7587 83.7705 0)
(-8.52826 82.725 0)
(-4.16493 82.2361 0)
(1.50332 80.8954 0)
(3.29075 79.8378 0)
(3.83821 77.5617 0)
(5.19249 74.2807 0)
(4.83787 70.0791 0)
(6.36268 64.4542 0)
(13.9663 55.8468 0)
(33.341 47.5905 0)
(68.3595 38.1303 0)
(93.6553 36.2995 0)
(157.317 32.1365 0)
(555.887 26.1068 0)
(6501.97 -105.75 0)
(-7701.77 -898.23 0)
(5990.07 -713.176 0)
(-5004.16 22.728 0)
(176.981 -6.49001 0)
(-5.98557 -21.1452 0)
(-11.4348 -29.6733 0)
(-17.8573 -13.7248 0)
(-16.2553 8.18588 0)
(-25.5923 21.4683 0)
(-35.7853 39.6531 0)
(-49.1381 52.8071 0)
(-59.8127 62.4965 0)
(-64.6855 73.0798 0)
(-68.754 80.3848 0)
(-68.6539 86.8046 0)
(-66.606 90.9132 0)
(-61.2104 94.6814 0)
(-54.5027 98.1141 0)
(-47.2183 101.449 0)
(-40.8643 104.581 0)
(-34.3743 106.963 0)
(-27.829 108.494 0)
(-23.5261 108.986 0)
(-19.3395 108.522 0)
(-14.2567 107.659 0)
(-8.12041 106.292 0)
(-4.05021 105.619 0)
(1.35724 104.218 0)
(2.85339 103.336 0)
(2.22534 101.898 0)
(2.55372 99.3193 0)
(1.41931 96.2388 0)
(1.12134 93.1369 0)
(7.43155 87.2699 0)
(25.6673 82.146 0)
(62.9196 75.5039 0)
(90.2471 79.0154 0)
(150.534 83.2964 0)
(484.215 79.1036 0)
(6086.42 -85.4939 0)
(-7256 -868.48 0)
(5614.31 -432.971 0)
(-4585.85 104.637 0)
(159.096 62.1407 0)
(-13.4263 44.3946 0)
(-6.3987 44.1692 0)
(-2.25254 47.4547 0)
(-2.83453 66.1493 0)
(-16.8624 73.5551 0)
(-27.1608 84.1512 0)
(-41.6032 91.3996 0)
(-50.682 97.2881 0)
(-56.5621 105.64 0)
(-62.5734 110.469 0)
(-63.2247 116.245 0)
(-61.9422 120.391 0)
(-56.4914 124.747 0)
(-49.8357 128.222 0)
(-42.7526 130.166 0)
(-37.3304 130.566 0)
(-32.5827 130.626 0)
(-28.0271 132.739 0)
(-25.2693 136.208 0)
(-21.7224 138.145 0)
(-16.9084 137.536 0)
(-10.4943 134.407 0)
(-6.16325 131.687 0)
(-0.697147 127.779 0)
(1.05477 125.204 0)
(-0.0321212 122.283 0)
(-0.260537 119.554 0)
(-1.11971 115.379 0)
(-2.28004 113.545 0)
(3.37511 108.003 0)
(22.0028 104.112 0)
(65.3428 97.9818 0)
(101.164 104.011 0)
(157.402 117.989 0)
(393.234 125.731 0)
(5588.84 -10.1651 0)
(-6782.48 -557.456 0)
(5673.67 -10.2294 0)
(-4527.05 224.134 0)
(118.93 173.526 0)
(-23.3036 152.742 0)
(-8.48589 145.978 0)
(3.32352 138.318 0)
(8.89599 152.127 0)
(-8.245 155.089 0)
(-18.5898 161.876 0)
(-36.479 163.289 0)
(-46.0897 164.669 0)
(-51.9842 162.751 0)
(-58.5347 159.331 0)
(-59.0926 157.235 0)
(-58.4134 155.446 0)
(-53.6636 157.028 0)
(-49.2804 161.616 0)
(-44.9595 168.67 0)
(-40.4217 176.51 0)
(-32.2803 181.126 0)
(-22.45 182.168 0)
(-18.3176 180.214 0)
(-18.06 175.993 0)
(-17.858 173.538 0)
(-13.7566 171.692 0)
(-10.437 173.691 0)
(-4.89005 175.961 0)
(-2.44349 178.228 0)
(-3.21919 181.572 0)
(-4.09925 184.294 0)
(-4.37049 184.48 0)
(-5.98577 186.877 0)
(-1.65914 184.1 0)
(16.0102 181.718 0)
(62.8228 176.108 0)
(109.527 179.339 0)
(171.465 196.646 0)
(360.722 204.474 0)
(5428.08 94.5328 0)
(-6709.02 -346.864 0)
(5820.44 10460.6 0)
(-4408.78 1201.92 0)
(90.3 659.12 0)
(-39.9729 633.901 0)
(-20.298 685.066 0)
(3.67251 753.111 0)
(13.3263 817.751 0)
(-7.46767 857.14 0)
(-19.2587 885.698 0)
(-38.912 891.725 0)
(-51.2009 898.38 0)
(-61.7057 887.993 0)
(-67.888 878.17 0)
(-66.9683 861.782 0)
(-62.1423 846.045 0)
(-50.5457 828.622 0)
(-38.6173 812.62 0)
(-28.4008 792.186 0)
(-25.3267 788.408 0)
(-27.1296 779.62 0)
(-28.9064 780.804 0)
(-31.2199 793.841 0)
(-28.1557 795.16 0)
(-21.0531 817.702 0)
(-10.3464 821.664 0)
(-2.04961 836.784 0)
(3.67487 841.532 0)
(6.46167 843.642 0)
(5.8134 844.209 0)
(2.54169 837.084 0)
(1.36873 828.036 0)
(-2.64647 805.247 0)
(-1.59565 774.512 0)
(14.3023 720.985 0)
(63.0505 661.53 0)
(120.955 566.036 0)
(181.623 525.376 0)
(294.834 446.78 0)
(5057.55 923.508 0)
(-6539.33 9231.44 0)
(16912.1 170344 0)
(-13972.1 16381.9 0)
(-428.431 6988.95 0)
(1.69924 7261.85 0)
(106.389 7436.69 0)
(131.184 7984.91 0)
(109.143 8352.85 0)
(57.2306 8803.2 0)
(14.7372 9148.77 0)
(-24.2577 9389.59 0)
(-49.686 9632.07 0)
(-71.4591 9807.29 0)
(-83.7922 9980.36 0)
(-90.0498 10124.6 0)
(-90.3677 10269 0)
(-85.8729 10379.5 0)
(-84.392 10480.1 0)
(-68.2913 10549.6 0)
(-52.5305 10577 0)
(-39.6073 10572.4 0)
(-8.74621 10556.3 0)
(-4.48369 10504.6 0)
(4.9331 10482.2 0)
(7.6824 10252.6 0)
(4.63167 10073.9 0)
(8.7078 9800.33 0)
(1.71874 9545.98 0)
(0.136281 9216.1 0)
(-9.53811 8917.16 0)
(-19.684 8535.57 0)
(-35.0506 8193.29 0)
(-57.5636 7732.84 0)
(-82.8567 7311.73 0)
(-92.8628 6754.47 0)
(-86.492 6272 0)
(-21.6766 5684.56 0)
(56.5453 5477.7 0)
(744.376 5089.48 0)
(13893.3 13871.7 0)
(-16494.7 152891 0)
(185757 -191542 0)
(-161824 -18774.3 0)
(-8698.1 -9112.38 0)
(391.488 -9303.38 0)
(676.471 -9520.41 0)
(886.518 -10115.8 0)
(801.864 -10576.5 0)
(759.507 -11061.2 0)
(545.809 -11424.1 0)
(426.812 -11642.9 0)
(351.303 -11841.8 0)
(273.92 -11955.9 0)
(237.927 -12051.9 0)
(211.14 -12115.8 0)
(183.43 -12177.6 0)
(152.927 -12212.4 0)
(125.346 -12247.2 0)
(65.0088 -12254.9 0)
(-3.34065 -12243.8 0)
(-47.082 -12196.9 0)
(-94.3187 -12153.8 0)
(-102.681 -12090 0)
(-270.915 -12042.6 0)
(-414.504 -11813.9 0)
(-446.212 -11620.4 0)
(-510.761 -11355.7 0)
(-559.317 -11099.4 0)
(-599.486 -10777.1 0)
(-649.962 -10477.4 0)
(-695.008 -10092.7 0)
(-772.179 -9735.79 0)
(-852.15 -9254.97 0)
(-944.389 -8791.74 0)
(-987.619 -8188.96 0)
(-967.947 -7670.49 0)
(-644.458 -7094.73 0)
(-391.818 -6979.22 0)
(8383.6 -6746.81 0)
(147484 -16451.6 0)
(-167238 -174214 0)
(185757 191542 0)
(-161824 18774.3 0)
(-8698.1 9112.38 0)
(391.488 9303.38 0)
(676.471 9520.41 0)
(886.518 10115.8 0)
(801.864 10576.5 0)
(759.507 11061.2 0)
(545.809 11424.1 0)
(426.812 11642.9 0)
(351.303 11841.8 0)
(273.92 11955.9 0)
(237.927 12051.9 0)
(211.14 12115.8 0)
(183.43 12177.6 0)
(152.927 12212.4 0)
(125.346 12247.2 0)
(65.0088 12254.9 0)
(-3.34065 12243.8 0)
(-47.082 12196.9 0)
(-94.3187 12153.8 0)
(-102.681 12090 0)
(-270.915 12042.6 0)
(-414.504 11813.9 0)
(-446.212 11620.4 0)
(-510.761 11355.7 0)
(-559.317 11099.4 0)
(-599.486 10777.1 0)
(-649.962 10477.4 0)
(-695.008 10092.7 0)
(-772.179 9735.79 0)
(-852.15 9254.97 0)
(-944.389 8791.74 0)
(-987.619 8188.96 0)
(-967.947 7670.49 0)
(-644.458 7094.73 0)
(-391.818 6979.22 0)
(8383.6 6746.81 0)
(147484 16451.6 0)
(-167238 174214 0)
(16912.1 -170344 0)
(-13972.1 -16381.9 0)
(-428.431 -6988.95 0)
(1.69924 -7261.85 0)
(106.389 -7436.69 0)
(131.184 -7984.91 0)
(109.143 -8352.85 0)
(57.2306 -8803.2 0)
(14.7372 -9148.77 0)
(-24.2577 -9389.59 0)
(-49.686 -9632.07 0)
(-71.4591 -9807.29 0)
(-83.7922 -9980.36 0)
(-90.0498 -10124.6 0)
(-90.3677 -10269 0)
(-85.8729 -10379.5 0)
(-84.392 -10480.1 0)
(-68.2913 -10549.6 0)
(-52.5305 -10577 0)
(-39.6073 -10572.4 0)
(-8.74621 -10556.3 0)
(-4.48369 -10504.6 0)
(4.9331 -10482.2 0)
(7.6824 -10252.6 0)
(4.63167 -10073.9 0)
(8.70779 -9800.33 0)
(1.71874 -9545.98 0)
(0.136281 -9216.1 0)
(-9.53811 -8917.16 0)
(-19.684 -8535.57 0)
(-35.0506 -8193.29 0)
(-57.5636 -7732.84 0)
(-82.8567 -7311.73 0)
(-92.8628 -6754.47 0)
(-86.492 -6272 0)
(-21.6766 -5684.56 0)
(56.5453 -5477.7 0)
(744.376 -5089.48 0)
(13893.3 -13871.7 0)
(-16494.7 -152891 0)
(5820.44 -10460.6 0)
(-4408.78 -1201.92 0)
(90.3 -659.12 0)
(-39.9729 -633.901 0)
(-20.298 -685.066 0)
(3.67251 -753.111 0)
(13.3263 -817.751 0)
(-7.46767 -857.14 0)
(-19.2587 -885.698 0)
(-38.912 -891.725 0)
(-51.2009 -898.38 0)
(-61.7057 -887.993 0)
(-67.888 -878.17 0)
(-66.9683 -861.782 0)
(-62.1423 -846.045 0)
(-50.5457 -828.622 0)
(-38.6173 -812.62 0)
(-28.4008 -792.186 0)
(-25.3267 -788.408 0)
(-27.1296 -779.62 0)
(-28.9064 -780.804 0)
(-31.2199 -793.841 0)
(-28.1557 -795.16 0)
(-21.0531 -817.702 0)
(-10.3464 -821.664 0)
(-2.04961 -836.784 0)
(3.67487 -841.532 0)
(6.46167 -843.642 0)
(5.8134 -844.209 0)
(2.54169 -837.084 0)
(1.36873 -828.036 0)
(-2.64647 -805.247 0)
(-1.59565 -774.512 0)
(14.3023 -720.985 0)
(63.0505 -661.53 0)
(120.955 -566.036 0)
(181.623 -525.376 0)
(294.834 -446.78 0)
(5057.55 -923.508 0)
(-6539.33 -9231.44 0)
(5673.67 10.2294 0)
(-4527.05 -224.134 0)
(118.93 -173.526 0)
(-23.3036 -152.742 0)
(-8.48589 -145.978 0)
(3.32352 -138.318 0)
(8.89599 -152.127 0)
(-8.245 -155.089 0)
(-18.5898 -161.876 0)
(-36.479 -163.289 0)
(-46.0897 -164.669 0)
(-51.9842 -162.751 0)
(-58.5347 -159.331 0)
(-59.0926 -157.235 0)
(-58.4134 -155.446 0)
(-53.6636 -157.028 0)
(-49.2804 -161.616 0)
(-44.9595 -168.67 0)
(-40.4217 -176.51 0)
(-32.2803 -181.126 0)
(-22.45 -182.168 0)
(-18.3176 -180.214 0)
(-18.06 -175.993 0)
(-17.858 -173.538 0)
(-13.7566 -171.692 0)
(-10.437 -173.691 0)
(-4.89005 -175.961 0)
(-2.44349 -178.228 0)
(-3.21919 -181.572 0)
(-4.09925 -184.294 0)
(-4.37049 -184.48 0)
(-5.98577 -186.877 0)
(-1.65914 -184.1 0)
(16.0102 -181.718 0)
(62.8228 -176.108 0)
(109.527 -179.339 0)
(171.465 -196.646 0)
(360.722 -204.474 0)
(5428.08 -94.5328 0)
(-6709.02 346.864 0)
(5614.31 432.971 0)
(-4585.85 -104.637 0)
(159.096 -62.1407 0)
(-13.4263 -44.3946 0)
(-6.3987 -44.1692 0)
(-2.25254 -47.4547 0)
(-2.83453 -66.1493 0)
(-16.8624 -73.5551 0)
(-27.1608 -84.1512 0)
(-41.6032 -91.3996 0)
(-50.682 -97.2881 0)
(-56.5621 -105.64 0)
(-62.5734 -110.469 0)
(-63.2247 -116.245 0)
(-61.9422 -120.391 0)
(-56.4914 -124.747 0)
(-49.8357 -128.222 0)
(-42.7526 -130.166 0)
(-37.3304 -130.566 0)
(-32.5827 -130.626 0)
(-28.0271 -132.739 0)
(-25.2693 -136.208 0)
(-21.7224 -138.145 0)
(-16.9084 -137.536 0)
(-10.4943 -134.407 0)
(-6.16325 -131.687 0)
(-0.697147 -127.779 0)
(1.05477 -125.204 0)
(-0.0321212 -122.283 0)
(-0.260537 -119.554 0)
(-1.11971 -115.379 0)
(-2.28004 -113.545 0)
(3.37511 -108.003 0)
(22.0028 -104.112 0)
(65.3428 -97.9818 0)
(101.164 -104.011 0)
(157.402 -117.989 0)
(393.234 -125.731 0)
(5588.84 10.1651 0)
(-6782.48 557.456 0)
(5990.07 713.176 0)
(-5004.16 -22.728 0)
(176.981 6.49001 0)
(-5.98557 21.1452 0)
(-11.4348 29.6733 0)
(-17.8573 13.7248 0)
(-16.2553 -8.18588 0)
(-25.5923 -21.4683 0)
(-35.7853 -39.6531 0)
(-49.1381 -52.8071 0)
(-59.8127 -62.4965 0)
(-64.6855 -73.0798 0)
(-68.754 -80.3848 0)
(-68.6539 -86.8046 0)
(-66.606 -90.9132 0)
(-61.2104 -94.6814 0)
(-54.5027 -98.1141 0)
(-47.2183 -101.449 0)
(-40.8643 -104.581 0)
(-34.3743 -106.963 0)
(-27.829 -108.494 0)
(-23.5261 -108.986 0)
(-19.3395 -108.522 0)
(-14.2567 -107.659 0)
(-8.12041 -106.292 0)
(-4.05021 -105.619 0)
(1.35724 -104.218 0)
(2.85339 -103.336 0)
(2.22534 -101.898 0)
(2.55372 -99.3193 0)
(1.41931 -96.2388 0)
(1.12134 -93.1369 0)
(7.43155 -87.2699 0)
(25.6673 -82.146 0)
(62.9196 -75.5039 0)
(90.2471 -79.0154 0)
(150.534 -83.2964 0)
(484.215 -79.1036 0)
(6086.42 85.4939 0)
(-7256 868.48 0)
(6279.66 635.787 0)
(-5266.84 32.3171 0)
(201.374 69.1557 0)
(8.91391 87.3224 0)
(-13.5493 108.04 0)
(-38.735 82.4924 0)
(-36.7479 55.9185 0)
(-47.1853 34.4227 0)
(-57.3601 9.40707 0)
(-63.616 -10.9843 0)
(-70.2175 -26.843 0)
(-73.7999 -41.1974 0)
(-75.7992 -50.8091 0)
(-73.3702 -59.0978 0)
(-69.5325 -64.4727 0)
(-63.4304 -68.8777 0)
(-56.3569 -72.6229 0)
(-48.9841 -75.9803 0)
(-42.6447 -78.9209 0)
(-36.3535 -81.2266 0)
(-29.9756 -83.0792 0)