/*--------------------------------*- C++ -*----------------------------------*\
| =========                 |                                                 |
| \\      /  F ield         | OpenFOAM: The Open Source CFD Toolbox           |
|  \\    /   O peration     | Version:  v1912                                 |
|   \\  /    A nd           | Website:  www.openfoam.com                      |
|    \\/     M anipulation  |                                                 |
\*---------------------------------------------------------------------------*/
FoamFile
{
    version     2.0;
    format      ascii;
    class       volScalarField;
    location    "4.9";
    object      rho;
}
// * * * * * * * * * * * * * * * * * * * * * * * * * * * * * * * * * * * * * //

dimensions      [1 -3 0 0 0 0 0];


internalField   nonuniform List<scalar> 
1900
(
42529.4
17642.6
14801.4
14275.7
13950.1
13732.1
13572.5
13447.4
13377.1
13263.1
42529.4
17642.5
14801.6
14275.7
13950.8
13733.9
13574.6
13450.6
13351
13235.5
42529.3
17642.5
14801.6
14275.8
13951.5
13734.7
13574.2
13447.7
13344.8
13228.7
42529.4
17642.5
14801.6
14275.7
13950.8
13733.9
13574.6
13450.6
13351
13235.5
42529.4
17642.6
14801.4
14275.7
13950.1
13732.1
13572.5
13447.4
13377.1
13263.1
13336.6
13206.3
13184.3
12960
12907.7
13179.2
13080.9
13033.1
12840.6
12403.3
13158.7
13055.9
13016.8
12867.1
12507.9
13179.2
13080.9
13033.1
12840.6
12403.3
13336.6
13206.3
13184.3
12960
12907.7
9224.84
8835.12
8535.95
8066.17
7368.5
9741.28
8992.87
8641.01
8149.51
7496.74
9824.31
8939.64
8571.96
8100.34
7450.08
9741.28
8992.87
8641.01
8149.51
7496.74
9224.84
8835.12
8535.95
8066.17
7368.5
5633.63
4137.58
4487.37
4725.47
4522.72
4180.21
3894.08
3690.42
3509.23
3328.63
3156.64
3019.73
2933.39
2882.86
2847.82
2819.07
2794.16
2772.82
2755.01
2740.2
2728.28
2718.91
2711.65
2706.5
2703.19
2701.4
2700.67
2700.92
2702.01
2705.22
2710.12
2721.23
2734.56
2756.71
2778.37
2812.87
2841.96
2898.66
3559.41
13203.8
5960.59
4252.38
4538.18
4810.88
4583
4205.75
3902.51
3693.8
3511.18
3330.16
3158.29
3020.07
2933.35
2882.8
2847.77
2819.03
2794.11
2772.75
2754.93
2740.11
2728.19
2718.81
2711.56
2706.41
2703.1
2701.3
2700.58
2700.81
2701.91
2705.12
2710.02
2721.15
2734.47
2756.69
2778.33
2812.99
2841.88
2899.02
3556.29
13186.7
5994.35
4391.93
4761.65
4946.66
4633.85
4216.84
3905.65
3695.1
3512.05
3330.72
3158.77
3020.23
2933.34
2882.78
2847.76
2819.02
2794.1
2772.74
2754.91
2740.09
2728.17
2718.79
2711.54
2706.39
2703.08
2701.28
2700.55
2700.79
2701.88
2705.09
2710
2721.14
2734.49
2756.77
2778.51
2813.37
2842.55
2900.32
3555.77
13266.2
5960.59
4252.38
4538.18
4810.88
4583
4205.75
3902.51
3693.8
3511.18
3330.16
3158.29
3020.07
2933.35
2882.8
2847.77
2819.03
2794.11
2772.75
2754.93
2740.11
2728.19
2718.81
2711.56
2706.41
2703.1
2701.3
2700.58
2700.81
2701.91
2705.12
2710.02
2721.15
2734.47
2756.69
2778.33
2812.99
2841.88
2899.02
3556.29
13186.7
5633.63
4137.58
4487.37
4725.47
4522.72
4180.21
3894.08
3690.42
3509.23
3328.63
3156.64
3019.73
2933.39
2882.86
2847.82
2819.07
2794.16
2772.82
2755.01
2740.2
2728.28
2718.91
2711.65
2706.5
2703.19
2701.4
2700.67
2700.92
2702.01
2705.22
2710.12
2721.23
2734.56
2756.71
2778.37
2812.87
2841.96
2898.66
3559.41
13203.8
5068.67
3818.58
4184.05
4430.93
4355.74
4104.74
3864
3673.04
3497.64
3318.01
3148.91
3016.78
2932.84
2882.77
2847.73
2818.99
2794.16
2772.91
2755.17
2740.41
2728.51
2719.16
2711.9
2706.76
2703.44
2701.64
2700.9
2701.15
2702.23
2705.45
2710.32
2721.31
2734.58
2756.44
2778.21
2812.16
2842.5
2896.51
3566.52
13641.8
5970.07
3478.28
3716.58
4047.97
4053.98
3931.87
3776.75
3624.71
3466.17
3292.41
3131.91
3009.83
2931.17
2882.39
2847.43
2818.74
2794.09
2773.05
2755.49
2740.84
2729.02
2719.71
2712.48
2707.33
2704.01
2702.19
2701.46
2701.71
2702.8
2706.06
2710.89
2721.67
2734.75
2756.04
2777.85
2811.02
2842.73
2892.2
3549.76
13084.4
6782.53
3239.34
3504.42
3763.48
3818.41
3768.57
3673.94
3561.16
3418.56
3257.57
3109.62
2999.96
2928.06
2881.37
2846.84
2818.37
2794.03
2773.32
2756.02
2741.54
2729.82
2720.57
2713.37
2708.23
2704.89
2703.08
2702.33
2702.63
2703.73
2707.06
2711.86
2722.35
2735.21
2755.77
2777.59
2809.74
2842.26
2887.21
3530.66
12874.9
7469.8
3140.96
3383.03
3559.93
3642.42
3632.21
3577.06
3491.21
3362.45
3217.15
3084.24
2988.41
2923.71
2879.62
2845.88
2817.86
2793.98
2773.7
2756.71
2742.44
2730.86
2721.7
2714.54
2709.41
2706.07
2704.26
2703.52
2703.88
2705.04
2708.48
2713.26
2723.41
2735.99
2755.79
2777.58
2808.87
2841.25
2884.42
3528.4
12683.9
8053.03
3111.44
3298.11
3409.2
3520.99
3521.28
3489
3416.9
3301.48
3173.12
3058.61
2975.94
2918.51
2877.19
2844.55
2817.21
2793.93
2774.16
2757.55
2743.52
2732.12
2723.07
2715.97
2710.86
2707.54
2705.76
2705.06
2705.53
2706.78
2710.38
2715.15
2724.91
2737.15
2756.08
2777.65
2808.14
2839.61
2882.56
3519.18
12484.9
8530.19
3101.63
3248.9
3326.92
3436.58
3434.06
3411.62
3345.72
3242.24
3130.81
3034.62
2964.1
2913.06
2874.42
2843.02
2816.5
2793.92
2774.69
2758.47
2744.71
2733.51
2724.61
2717.59
2712.56
2709.3
2707.63
2707.03
2707.73
2709.15
2713.04
2717.89
2727.35
2739.36
2757.57
2778.96
2808.88
2839.63
2883.81
3519.57
12249.8
9025.73
3092.2
3203.95
3272.14
3370.99
3359.76
3336.84
3274.87
3184.36
3091.06
3011.97
2952.36
2907.04
2871.07
2841.12
2815.63
2793.82
2775.14
2759.32
2745.85
2734.88
2726.15
2719.26
2714.33
2711.19
2709.67
2709.21
2710.16
2711.77
2715.91
2720.8
2729.82
2741.38
2758.66
2779.5
2808.66
2838.23
2884.1
3509.56
12005.3
9165.42
3084.19
3165.67
3225.29
3312.88
3294.06
3267.4
3210.47
3133.77
3057.95
2993.44
2942.75
2902.11
2868.51
2839.94
2815.35
2794.14
2775.9
2760.39
2747.19
2736.48
2727.97
2721.28
2716.56
2713.66
2712.43
2712.23
2713.66
2715.61
2720.13
2725.2
2733.94
2745.18
2761.81
2782.44
2811.02
2839.64
2886.78
3504.15
11720
9296.95
3071.85
3138.48
3188.34
3258.38
3233.2
3202.55
3152.31
3089.13
3028.72
2976.24
2933.07
2896.73
2865.68
2838.62
2814.94
2794.37
2776.63
2761.53
2748.64
2738.21
2729.95
2723.46
2718.96
2716.28
2715.3
2715.31
2717.12
2719.22
2723.88
2728.87
2737.04
2747.57
2763.12
2783.24
2811.35
2839.1
2888.21
3491.77
11439
9244.86
3061.67
3112.57
3150.66
3203.02
3174.49
3143.24
3102.12
3052.22
3005.37
2962.93
2926.22
2893.74
2864.94
2839.27
2816.62
2796.74
2779.47
2764.71
2752.1
2741.96
2733.97
2727.74
2723.52
2721.12
2720.38
2720.58
2722.81
2724.98
2729.59
2734.3
2741.73
2751.27
2765.55
2784.74
2812.13
2839.4
2890.21
3478.67
11107.5
9165.6
3050.75
3089.78
3115.36
3150.26
3122.4
3093.37
3061.4
3022.73
2986.79
2952.34
2920.98
2891.67
2864.85
2840.72
2819.12
2799.98
2783.3
2769.02
2756.81
2747.03
2739.36
2733.37
2729.36
2727.13
2726.5
2726.79
2729.28
2731.36
2735.74
2739.96
2746.42
2754.57
2767.32
2785.2
2811.66
2837.61
2889.34
3457.81
10783.9
8986.97
3035.94
3064.19
3078.74
3099.45
3075.71
3052.16
3029.08
3000.33
2973.46
2945.48
2918.63
2892.73
2868.99
2846.85
2826.71
2808.71
2792.92
2779.36
2767.67
2758.26
2750.79
2744.81
2740.69
2738.21
2737.38
2737.33
2739.61
2741.15
2744.86
2748.13
2753.29
2759.68
2770.52
2787.01
2812.79
2838.28
2890.59
3429.99
10385.1
8746.6
3020.35
3040.29
3045.82
3055.72
3038.02
3021.55
3006.34
2985.8
2965.85
2942.85
2920.3
2897.72
2875.91
2855.34
2836.39
2819.31
2804.3
2791.38
2780.21
2771.24
2764.09
2758.27
2754.19
2751.64
2750.76
2750.5
2752.71
2753.67
2756.65
2758.75
2762.32
2766.49
2774.71
2788.92
2813.43
2837.56
2889.54
3390.03
9989.06
8446.8
3004.6
3018.15
3018.17
3021.75
3011.49
3002.23
2992.89
2978.28
2963.67
2945.79
2927.72
2907.88
2888.66
2869.93
2852.58
2836.91
2823.16
2811.3
2800.85
2792.27
2785.15
2779.04
2774.49
2771.37
2770.09
2769.24
2770.88
2770.94
2772.85
2773.6
2775.33
2776.89
2782.62
2794.36
2818.44
2841.81
2892.97
3339.14
9512.16
8161.21
2998.3
3007.39
3003.52
3003.12
2997.61
2994.08
2989.45
2981.16
2971.25
2956.11
2940.69
2922.95
2905.34
2887.53
2870.87
2855.76
2842.51
2831.15
2821.2
2813.21
2806.67
2800.94
2796.61
2793.55
2792.42
2791.47
2793.13
2792.93
2794.24
2794.21
2794.93
2794.74
2798.77
2808.14
2831.65
2853.84
2902.88
3288.7
9074.69
7764.46
3009.52
3015.35
3008.19
3007.33
3004.74
3006.21
3003.45
2997.79
2989.68
2976.63
2963.85
2947.72
2931.77
2915.18
2899.81
2885.98
2874.04
2863.87
2854.73
2846.97
2840.1
2833.76
2828.79
2825.01
2823.41
2821.88
2823.07
2822.41
2823.03
2822.26
2822.41
2821
2824.12
2832.45
2858.13
2883.76
2933.07
3243.7
8587.53
7647.59
3043.43
3036.18
3024.26
3023.76
3019.74
3025.28
3024.24
3021.09
3014.78
3002.61
2991.36
2976.1
2961.39
2945.67
2931.2
2917.84
2905.6
2894.49
2884.64
2877.75
2872.97
2868.28
2863.73
2859.24
2856.83
2854.01
2854.35
2852.71
2852.61
2850.51
2850.27
2847.31
2849.42
2855.74
2882.14
2911.39
2964
3237.81
8355.41
7469.42
3107.7
3088.88
3074.08
3071.1
3064.87
3072.99
3071.91
3069.67
3063.18
3051.54
3038.8
3021.82
3005.64
2988.82
2974.58
2963.01
2954.19
2947.34
2940
2932.91
2925.77
2917.89
2911.87
2906.94
2905.82
2904.79
2906.71
2906.91
2908.24
2907.03
2907.91
2904.74
2906.44
2911.81
2938.8
2972.45
3024.55
3251.22
7930.57
17848
3979.73
3519.4
3508.8
3557.69
3614.06
3675.7
3716.09
3744.68
3755.98
3757.04
3749.96
3735.63
3718.37
3698.97
3678.84
3658.87
3634.51
3620.07
3598.83
3593.4
3603.49
3599.92
3609.53
3602.34
3605.95
3597.74
3595.18
3583.87
3572.04
3553.04
3527.93
3491.34
3444.7
3396.05
3344.43
3331.72
3326.98
3994.31
17250.4
186088
18560.1
9308.41
9730.27
10013.4
10544.7
10963.7
11413.7
11780.6
12057.4
12316
12513.1
12692.2
12842.7
12984.2
13097.9
13195.8
13257.7
13280.7
13262.8
13241.1
13197.4
13150.6
12958.3
12769.9
12521.5
12271.5
11965.9
11669
11306.7
10954.7
10513.2
10079.1
9548.88
9064.32
8518.8
8259.12
7817.61
16702.3
169340
186088
18560.1
9308.41
9730.27
10013.4
10544.7
10963.7
11413.7
11780.6
12057.4
12316
12513.1
12692.2
12842.7
12984.2
13097.9
13195.8
13257.7
13280.7
13262.8
13241.1
13197.4
13150.6
12958.3
12769.9
12521.5
12271.5
11965.9
11669
11306.7
10954.7
10513.2
10079.1
9548.88
9064.32
8518.8
8259.12
7817.61
16702.3
169340
17848
3979.73
3519.4
3508.8
3557.69
3614.06
3675.7
3716.09
3744.68
3755.98
3757.04
3749.96
3735.63
3718.37
3698.97
3678.84
3658.87
3634.51
3620.07
3598.83
3593.4
3603.49
3599.92
3609.53
3602.34
3605.95
3597.74
3595.18
3583.87
3572.04
3553.04
3527.93
3491.34
3444.7
3396.05
3344.43
3331.72
3326.98
3994.31
17250.4
7469.42
3107.7
3088.88
3074.08
3071.1
3064.87
3072.99
3071.91
3069.67
3063.18
3051.54
3038.8
3021.82
3005.64
2988.82
2974.58
2963.01
2954.19
2947.34
2940
2932.91
2925.77
2917.89
2911.87
2906.94
2905.82
2904.79
2906.71
2906.91
2908.24
2907.03
2907.91
2904.74
2906.44
2911.81
2938.8
2972.45
3024.55
3251.22
7930.57
7647.59
3043.43
3036.18
3024.26
3023.76
3019.74
3025.28
3024.24
3021.09
3014.78
3002.61
2991.36
2976.1
2961.39
2945.67
2931.2
2917.84
2905.6
2894.49
2884.64
2877.75
2872.97
2868.28
2863.73
2859.24
2856.83
2854.01
2854.35
2852.71
2852.61
2850.51
2850.27
2847.31
2849.42
2855.74
2882.14
2911.39
2964
3237.81
8355.41
7764.46
3009.52
3015.35
3008.19
3007.33
3004.74
3006.21
3003.45
2997.79
2989.68
2976.63
2963.85
2947.72
2931.77
2915.18
2899.81
2885.98
2874.04
2863.87
2854.73
2846.97
2840.1
2833.76
2828.79
2825.01
2823.41
2821.88
2823.07
2822.41
2823.03
2822.26
2822.41
2821
2824.12
2832.45
2858.13
2883.76
2933.07
3243.7
8587.53
8161.21
2998.3
3007.39
3003.52
3003.12
2997.61
2994.08
2989.45
2981.16
2971.25
2956.11
2940.69
2922.95
2905.34
2887.53
2870.87
2855.76
2842.51
2831.15
2821.2
2813.21
2806.67
2800.94
2796.61
2793.55
2792.42
2791.47
2793.13
2792.93
2794.24
2794.21
2794.93
2794.74
2798.77
2808.14
2831.65
2853.84
2902.88
3288.7
9074.69
8446.8
3004.6
3018.15
3018.17
3021.75
3011.49
3002.23
2992.89
2978.28
2963.67
2945.79
2927.72
2907.88
2888.66
2869.93
2852.58
2836.91
2823.16
2811.3
2800.85
2792.27
2785.15
2779.04
2774.49
2771.37
2770.09
2769.24
2770.88
2770.94
2772.85
2773.6
2775.33
2776.89
2782.62
2794.36
2818.44
2841.81
2892.97
3339.14
9512.16
8746.6
3020.35
3040.29
3045.82
3055.72
3038.02
3021.55
3006.34
2985.8
2965.85
2942.85
2920.3
2897.72
2875.91
2855.34
2836.39
2819.31
2804.3
2791.38
2780.21
2771.24
2764.09
2758.27
2754.19
2751.64
2750.76
2750.5
2752.71
2753.67
2756.65
2758.75
2762.32
2766.49
2774.71
2788.92
2813.43
2837.56
2889.54
3390.03
9989.06
8986.97
3035.94
3064.19
3078.74
3099.45
3075.71
3052.16
3029.08
3000.33
2973.46
2945.48
2918.63
2892.73
2868.99
2846.85
2826.71
2808.71
2792.92
2779.36
2767.67
2758.26
2750.79
2744.81
2740.69
2738.21
2737.38
2737.33
2739.61
2741.15
2744.86
2748.13
2753.29
2759.68
2770.52
2787.01
2812.79
2838.28
2890.59
3429.99
10385.1
9165.6
3050.75
3089.78
3115.36
3150.26
3122.4
3093.37
3061.4
3022.73
2986.79
2952.34
2920.98
2891.67
2864.85
2840.72
2819.12
2799.98
2783.3
2769.02
2756.81
2747.03
2739.36
2733.37
2729.36
2727.13
2726.5
2726.79
2729.28
2731.36
2735.74
2739.96
2746.42
2754.57
2767.32
2785.2
2811.66
2837.61
2889.34
3457.81
10783.9
9244.86
3061.67
3112.57
3150.66
3203.02
3174.49
3143.24
3102.12
3052.22
3005.37
2962.93
2926.22
2893.74
2864.94
2839.27
2816.62
2796.74
2779.47
2764.71
2752.1
2741.96
2733.97
2727.74
2723.52
2721.12
2720.38
2720.58
2722.81
2724.98
2729.59
2734.3
2741.73
2751.27
2765.55
2784.74
2812.13
2839.4
2890.21
3478.67
11107.5
9296.95
3071.85
3138.48
3188.34
3258.38
3233.2
3202.55
3152.31
3089.13
3028.72
2976.24
2933.07
2896.73
2865.68
2838.62
2814.94
2794.37
2776.63
2761.53
2748.64
2738.21
2729.95
2723.46
2718.96
2716.28
2715.3
2715.31
2717.12
2719.22
2723.88
2728.87
2737.04
2747.57
2763.12
2783.24
2811.35
2839.1
2888.21
3491.77
11439
9165.42
3084.19
3165.67
3225.29
3312.88
3294.06
3267.4
3210.47
3133.77
3057.95
2993.44
2942.75
2902.11
2868.51
2839.94
2815.35
2794.14
2775.9
2760.39
2747.19
2736.48
2727.97
2721.28
2716.56
2713.66
2712.43
2712.23
2713.66
2715.61
2720.13
2725.2
2733.94
2745.18
2761.81
2782.44
2811.02
2839.64
2886.78
3504.15
11720
9025.73
3092.2
3203.95
3272.14
3370.99
3359.76
3336.84
3274.87
3184.36
3091.06
3011.97
2952.36
2907.04
2871.07
2841.12
2815.63
2793.82
2775.14
2759.32
2745.85
2734.88
2726.15
2719.26
2714.33
2711.19
2709.67
2709.21
2710.16
2711.77
2715.91
2720.8
2729.82
2741.38
2758.66
2779.5
2808.66
2838.23
2884.1
3509.56
12005.3
8530.19
3101.63
3248.9
3326.92
3436.58
3434.06
3411.62
3345.72
3242.24
3130.81
3034.62
2964.1
2913.06
2874.42
2843.02
2816.5
2793.92
2774.69
2758.47
2744.71
2733.51
2724.61
2717.59
2712.56
2709.3
2707.63
2707.03
2707.73
2709.15
2713.04
2717.89
2727.35
2739.36
2757.57
2778.96
2808.88
2839.63
2883.81
3519.57
12249.8
8053.03
3111.44
3298.11
3409.2
3520.99
3521.28
3489
3416.9
3301.48
3173.12
3058.61
2975.94
2918.51
2877.19
2844.55
2817.21
2793.93
2774.16
2757.55
2743.52
2732.12
2723.07
2715.97
2710.86
2707.54
2705.76
2705.06
2705.53
2706.78
2710.38
2715.15
2724.91
2737.15
2756.08
2777.65
2808.14
2839.61
2882.56
3519.18
12484.9
7469.8
3140.96
3383.03
3559.93
3642.42
3632.21
3577.06
3491.21
3362.45
3217.15
3084.24
2988.41
2923.71
2879.62
2845.88
2817.86
2793.98
2773.7
2756.71
2742.44
2730.86
2721.7
2714.54
2709.41
2706.07
2704.26
2703.52
2703.88
2705.04
2708.48
2713.26
2723.41
2735.99
2755.79
2777.58
2808.87
2841.25
2884.42
3528.4
12683.9
6782.53
3239.34
3504.42
3763.48
3818.41
3768.57
3673.94
3561.16
3418.56
3257.57
3109.62
2999.96
2928.06
2881.37
2846.84
2818.37
2794.03
2773.32
2756.02
2741.54
2729.82
2720.57
2713.37
2708.23
2704.89
2703.08
2702.33
2702.63
2703.73
2707.06
2711.86
2722.35
2735.21
2755.77
2777.59
2809.74
2842.26
2887.21
3530.66
12874.9
5970.07
3478.28
3716.58
4047.97
4053.98
3931.87
3776.75
3624.71
3466.17
3292.41
3131.91
3009.83
2931.17
2882.39
2847.43
2818.74
2794.09
2773.05
2755.49
2740.84
2729.02
2719.71
2712.48
2707.33
2704.01
2702.19
2701.46
2701.71
2702.8
2706.06
2710.89
2721.67
2734.75
2756.04
2777.85
2811.02
2842.73
2892.2
3549.76
13084.4
5068.67
3818.58
4184.05
4430.93
4355.74
4104.74
3864
3673.04
3497.64
3318.01
3148.91
3016.78
2932.84
2882.77
2847.73
2818.99
2794.16
2772.91
2755.17
2740.41
2728.51
2719.16
2711.9
2706.76
2703.44
2701.64
2700.9
2701.15
2702.23
2705.45
2710.32
2721.31
2734.58
2756.44
2778.21
2812.16
2842.5
2896.51
3566.52
13641.8
)
;

boundaryField
{
    inlet
    {
        type            calculated;
        value           uniform 14000.1;
    }
    outlet
    {
        type            calculated;
        value           nonuniform List<scalar> 
165
(
2396.06
2809.91
3123.3
3188.38
3198.03
3219.57
3237.34
3250.79
3240.69
3242.27
3236.61
3235.91
3233.17
3230.07
3217.15
3200.44
3157.49
3082.27
3436.21
3912.32
3912.32
3363.27
3038.98
3112.2
3158.12
3183.29
3210.95
3230.55
3251.32
3273.69
3292.42
3310.57
3326.02
3339.95
3351.55
3362.23
3369.58
3373.39
3375.86
3375.48
3376.91
3381.14
3378.16
3384.48
3379.3
3378.68
3372.79
3368.59
3359.4
3351.66
3337.41
3325.79
3306.73
3291.12
3264.7
3232.67
3177.51
3093.05
3405.35
3930.3
3363.34
3396.73
3383.73
3377.97
3373.82
3374.24
3371
3368.16
3360.82
3353.23
3339.26
3326.66
3307.08
3289.52
3261.37
3226.57
3171.23
3086.32
3395.02
3930.3
3398.41
3391.12
3378.5
3391.12
3398.41
3930.3
3395.02
3086.32
3171.23
3226.57
3261.37
3289.52
3307.08
3326.66
3339.26
3353.23
3360.82
3368.16
3371
3374.24
3373.82
3377.97
3383.73
3396.73
3363.34
3912.32
3363.27
3038.98
3112.2
3158.12
3183.29
3210.95
3230.55
3251.32
3273.69
3292.42
3310.57
3326.02
3339.95
3351.55
3362.23
3369.58
3373.39
3375.86
3375.48
3376.91
3381.14
3378.16
3384.48
3379.3
3378.68
3372.79
3368.59
3359.4
3351.66
3337.41
3325.79
3306.73
3291.12
3264.7
3232.67
3177.51
3093.05
3405.35
3930.3
3912.32
3436.21
3082.27
3157.49
3200.44
3217.15
3230.07
3233.17
3235.91
3236.61
3242.27
3240.69
3250.79
3237.34
3219.57
3198.03
3188.38
3123.3
2809.91
2396.06
)
;
    }
    obstacle
    {
        type            calculated;
        value           nonuniform List<scalar> 
40
(
42529.4
17642.6
14801.4
14275.7
13950.1
13732.1
13572.5
13447.4
13377.1
13263.1
42529.4
17642.6
14801.4
14275.7
13950.1
13732.1
13572.5
13447.4
13377.1
13263.1
13336.6
13206.3
13184.3
12960
12907.7
13336.6
13206.3
13184.3
12960
12907.7
9224.84
8835.12
8535.95
8066.17
7368.5
9224.84
8835.12
8535.95
8066.17
7368.5
)
;
    }
    empty
    {
        type            empty;
    }
}


// ************************************************************************* //
