/*--------------------------------*- C++ -*----------------------------------*\
| =========                 |                                                 |
| \\      /  F ield         | OpenFOAM: The Open Source CFD Toolbox           |
|  \\    /   O peration     | Version:  v1912                                 |
|   \\  /    A nd           | Website:  www.openfoam.com                      |
|    \\/     M anipulation  |                                                 |
\*---------------------------------------------------------------------------*/
FoamFile
{
    version     2.0;
    format      ascii;
    class       volVectorField;
    location    "8.8";
    object      grad(p);
}
// * * * * * * * * * * * * * * * * * * * * * * * * * * * * * * * * * * * * * //

dimensions      [1 -2 -2 0 0 0 0];


internalField   nonuniform List<vector> 
1900
(
(-18830 -0.0942446 0)
(5591.49 0.110811 0)
(-457.796 0.176592 0)
(-1399.47 -0.218772 0)
(-608.18 -0.465167 0)
(7.54962 -1.38708 0)
(62.5905 0.910589 0)
(-20.5813 10.026 0)
(-157.713 60.6128 0)
(641.613 55.1537 0)
(-18829.9 -0.121472 0)
(5591.76 0.216751 0)
(-458.126 0.290788 0)
(-1400.11 -0.343956 0)
(-609.348 0.236606 0)
(8.92537 0.549068 0)
(74.0036 4.64607 0)
(39.1209 -0.917795 0)
(-112.585 -3.22985 0)
(-318.288 -28.2089 0)
(-18829.9 3.45501e-09 0)
(5591.9 -1.95399e-10 0)
(-458.357 -2.66454e-10 0)
(-1399.53 -9.76996e-10 0)
(-607.287 -5.68434e-10 0)
(11.9591 2.84217e-10 0)
(61.1236 -1.10134e-09 0)
(-28.4572 -6.57252e-10 0)
(-185.004 -1.95399e-10 0)
(-426.837 -3.01981e-10 0)
(-18829.9 0.121472 0)
(5591.76 -0.216751 0)
(-458.126 -0.290788 0)
(-1400.11 0.343956 0)
(-609.348 -0.236606 0)
(8.92537 -0.549068 0)
(74.0036 -4.64607 0)
(39.1209 0.917795 0)
(-112.585 3.22985 0)
(-318.288 28.2089 0)
(-18830 0.0942446 0)
(5591.49 -0.110811 0)
(-457.796 -0.176592 0)
(-1399.47 0.218772 0)
(-608.18 0.465167 0)
(7.54962 1.38708 0)
(62.5905 -0.910589 0)
(-20.5813 -10.026 0)
(-157.713 -60.6128 0)
(641.613 -55.1537 0)
(-113.554 -760.978 8.44412e-12)
(-1724.35 -558.956 -9.90047e-12)
(-1682.69 -681.368 -1.24379e-11)
(444.525 -908.154 0)
(-18503.8 -7696.57 -5.39408e-11)
(-666.241 -928.165 8.30661e-12)
(-1191.92 -685.117 9.90047e-12)
(-1628.64 -763.976 1.24379e-11)
(-2158.28 -635.041 0)
(-17666.6 -7083.11 0)
(-951.32 -7.40149e-10 0)
(-1223.57 -2.92164e-10 0)
(-1548.03 -1.57898e-09 0)
(-2165.39 -3.36431e-10 0)
(-20363.2 -2.90773e-09 0)
(-666.241 928.165 8.30661e-12)
(-1191.92 685.117 9.90047e-12)
(-1628.64 763.976 1.24379e-11)
(-2158.28 635.041 0)
(-17666.6 7083.11 0)
(-113.554 760.978 -2.50573e-11)
(-1724.35 558.956 -9.90047e-12)
(-1682.69 681.368 -1.24379e-11)
(444.525 908.154 -3.33753e-11)
(-18503.8 7696.57 5.39408e-11)
(-36554.1 10376.3 9.96274e-12)
(-11095.3 4043.92 -4.87689e-12)
(-4981.82 1892.38 0)
(-3196.43 1274.92 2.02217e-12)
(-1211.03 661.939 -6.68303e-13)
(-32703.6 12823.4 -5.13762e-12)
(-12975.7 3275.38 2.49934e-12)
(-5668.85 1099.59 0)
(-3561.04 769.919 -1.29365e-12)
(-1899.53 67.7681 1.7257e-13)
(-33777.2 -4.71004e-10 0)
(-14085.1 -2.0876e-10 0)
(-5776.25 5.67447e-10 0)
(-3649.09 4.35382e-11 5.26735e-13)
(-1864.54 3.63582e-10 -3.4514e-13)
(-32703.6 -12823.4 -5.13762e-12)
(-12975.7 -3275.38 2.49934e-12)
(-5668.85 -1099.59 0)
(-3561.04 -769.919 -1.29365e-12)
(-1899.53 -67.7681 1.7257e-13)
(-36554.1 -10376.3 5.13762e-12)
(-11095.3 -4043.92 -1.2179e-13)
(-4981.82 -1892.38 0)
(-3196.43 -1274.92 3.83963e-14)
(-1211.03 -661.939 6.68303e-13)
(443.063 -1252.66 0)
(207.092 -319.203 0)
(-59.5902 764.597 0)
(-123.882 620.535 0)
(-231.804 423.289 0)
(-336.698 172.093 0)
(-401.283 -32.9349 0)
(-411.083 -176.722 0)
(-349.159 -224.435 0)
(-375.233 -213.906 0)
(-431.666 -212.66 0)
(-223.275 -140.828 0)
(268.2 -82.6337 0)
(1471.79 -6.59772 0)
(1935.72 -73.6455 0)
(881.883 34.6384 0)
(109.062 -99.4709 0)
(-117.404 -63.0353 0)
(-116.225 58.7241 0)
(-42.2771 161.896 0)
(-113.439 77.8359 0)
(-271.612 -191.69 0)
(-410.148 -315.361 0)
(-522.372 -345.217 0)
(-621.799 -333.198 0)
(-795.693 -259.337 0)
(-676.202 -97.6384 0)
(-483.434 68.4243 0)
(-374.884 85.5756 0)
(62.8563 3.85186 0)
(330.659 -7.02589 0)
(306.27 -3.08496 0)
(293.989 -1.63979 0)
(294.158 -0.902478 0)
(293.602 -0.162115 0)
(297.998 0.495073 0)
(305.077 0.960261 0)
(317.143 0.929173 0)
(327.157 2.67209 0)
(342.15 3.32954 0)
(61.0547 -836.502 0)
(541.307 -951.843 0)
(145.699 271.639 0)
(-233.779 376.339 0)
(-340.915 250.346 0)
(-401.263 139.978 0)
(-423.37 48.7493 0)
(-405.827 -23.0208 0)
(-333.614 -23.8926 0)
(-363.832 -13.6044 0)
(-417.083 -20.5657 0)
(-211.458 -1.66798 0)
(277.895 4.41938 0)
(1461.23 41.6844 0)
(1941.83 -3.3538 0)
(886.603 72.8985 0)
(92.0552 -20.4249 0)
(-95.6736 -26.2892 0)
(-82.3672 26.2675 0)
(-31.3831 75.5928 0)
(-138.733 -26.3876 0)
(-282.299 -64.7669 0)
(-398.741 30.2644 0)
(-530.014 83.7214 0)
(-637.812 96.6482 0)
(-800.166 94.1506 0)
(-657.444 29.4998 0)
(-467.627 53.7002 0)
(-384.124 34.7564 0)
(52.4567 0.221536 0)
(329.781 -4.49376 0)
(306.795 -2.96558 0)
(294.312 -2.14439 0)
(294.499 -1.37083 0)
(293.991 -0.465097 0)
(298.424 0.194895 0)
(305.484 0.0654102 0)
(317.584 -0.565037 0)
(327.391 0.0754539 0)
(340.577 -0.1112 0)
(90.5016 3.27011e-10 0)
(529.46 8.55881e-10 0)
(326.79 4.56201e-10 0)
(-130.077 9.40662e-10 0)
(-300.563 2.34156e-10 0)
(-395.344 -2.50305e-10 0)
(-448.701 9.68922e-11 0)
(-432.215 5.81353e-10 0)
(-346.42 -6.45948e-11 0)
(-374.266 -2.26082e-10 0)
(-428.194 2.09933e-10 0)
(-216.006 2.74528e-10 0)
(280.812 4.80424e-10 0)
(1469.53 -3.0077e-10 0)
(1944.8 7.10543e-10 0)
(876.917 4.68312e-10 0)
(80.2071 1.43723e-09 0)
(-103.821 1.31208e-09 0)
(-86.5865 -2.22852e-09 0)
(-57.5949 -2.85792e-08 0)
(-154.271 1.24022e-08 0)
(-255.131 3.2253e-08 0)
(-366.952 1.03352e-09 0)
(-503.061 -2.87851e-09 0)
(-618.765 7.51722e-09 0)
(-815.227 9.3178e-09 0)
(-687.97 3.62942e-09 0)
(-481.905 4.4308e-09 0)
(-390.441 -8.71828e-09 0)
(51.4381 -6.37066e-09 0)
(329.732 -3.94432e-09 0)
(306.953 -2.05088e-09 0)
(294.453 -4.68312e-10 0)
(294.647 -1.81673e-10 0)
(294.058 -8.31658e-10 0)
(298.152 -1.27575e-09 0)
(304.856 -1.86114e-09 0)
(317.146 -1.53009e-09 0)
(327.289 -2.74528e-10 0)
(342.161 5.5713e-10 0)
(61.0547 836.502 0)
(541.307 951.843 0)
(145.699 -271.639 0)
(-233.779 -376.339 0)
(-340.915 -250.346 0)
(-401.263 -139.978 0)
(-423.37 -48.7493 0)
(-405.827 23.0208 0)
(-333.614 23.8926 0)
(-363.832 13.6044 0)
(-417.083 20.5657 0)
(-211.458 1.66798 0)
(277.895 -4.41938 0)
(1461.23 -41.6844 0)
(1941.83 3.3538 0)
(886.603 -72.8985 0)
(92.0552 20.4249 0)
(-95.6736 26.2892 0)
(-82.3672 -26.2675 0)
(-31.3831 -75.5928 0)
(-138.733 26.3876 0)
(-282.299 64.7669 0)
(-398.741 -30.2644 0)
(-530.014 -83.7214 0)
(-637.812 -96.6482 0)
(-800.166 -94.1506 0)
(-657.444 -29.4998 0)
(-467.627 -53.7002 0)
(-384.124 -34.7564 0)
(52.4567 -0.221536 0)
(329.781 4.49376 0)
(306.795 2.96558 0)
(294.312 2.14439 0)
(294.499 1.37083 0)
(293.991 0.465097 0)
(298.424 -0.194895 0)
(305.484 -0.0654102 0)
(317.584 0.565037 0)
(327.391 -0.0754539 0)
(340.577 0.1112 0)
(443.063 1252.66 0)
(207.092 319.203 0)
(-59.5902 -764.597 0)
(-123.882 -620.535 0)
(-231.804 -423.289 0)
(-336.698 -172.093 0)
(-401.283 32.9349 0)
(-411.083 176.722 0)
(-349.159 224.435 0)
(-375.233 213.906 0)
(-431.666 212.66 0)
(-223.275 140.828 0)
(268.2 82.6337 0)
(1471.79 6.59772 0)
(1935.72 73.6455 0)
(881.883 -34.6384 0)
(109.062 99.4709 0)
(-117.404 63.0353 0)
(-116.225 -58.7241 0)
(-42.2771 -161.896 0)
(-113.439 -77.8359 0)
(-271.612 191.69 0)
(-410.148 315.361 0)
(-522.372 345.217 0)
(-621.799 333.198 0)
(-795.693 259.337 0)
(-676.202 97.6384 0)
(-483.434 -68.4243 0)
(-374.884 -85.5756 0)
(62.8563 -3.85186 0)
(330.659 7.02589 0)
(306.27 3.08496 0)
(293.989 1.63979 0)
(294.158 0.902478 0)
(293.602 0.162115 0)
(297.998 -0.495073 0)
(305.077 -0.960261 0)
(317.143 -0.929173 0)
(327.157 -2.67209 0)
(342.15 -3.32954 0)
(-248.324 487.326 0)
(-337.63 -231.535 0)
(-206.409 -531.677 0)
(-146.754 -660.942 0)
(-185.779 -728.952 0)
(-189.74 -624.597 0)
(-230.107 -446.081 0)
(-279.627 -244.873 0)
(-292.315 -74.1946 0)
(-358.036 11.2444 0)
(-446.061 95.3832 0)
(-279.357 115.84 0)
(204.905 78.987 0)
(1443.38 34.1393 0)
(1923.03 -23.234 0)
(908.259 -73.1597 0)
(133.659 30.2583 0)
(-169.779 -4.84735 0)
(-184.312 -84.4439 0)
(-30.7752 -121.948 0)
(53.8148 -130.235 0)
(-48.0138 -98.2771 0)
(-289.249 -8.11101 0)
(-527.661 57.4437 0)
(-710.197 83.1293 0)
(-953.098 53.1276 0)
(-841.35 -32.032 0)
(-564.274 -132.316 0)
(-354.304 -110.917 0)
(98.5186 -4.55832 0)
(333.117 8.56173 0)
(304.023 2.10143 0)
(293.316 0.163261 0)
(293.966 -0.31563 0)
(293.563 -0.736159 0)
(298.213 -0.892434 0)
(305.684 -0.344666 0)
(317.021 1.00036 0)
(326.156 -0.957543 0)
(342.523 -3.52076 0)
(-473.94 -70.6028 0)
(-482.759 -39.2591 0)
(-394.653 14.6397 0)
(-301.72 -65.7576 0)
(-221.46 -129.875 0)
(-142.916 -188.872 0)
(-127.158 -234.399 0)
(-123.21 -220.89 0)
(-132.837 -162.946 0)
(-221.044 -122.744 0)
(-323.156 -18.1354 0)
(-209.002 72.8102 0)
(223.411 70.5795 0)
(1388.52 122.585 0)
(1839.12 87.8308 0)
(919.287 -3.56465 0)
(161.7 40.1991 0)
(-199.851 15.3821 0)
(-192.556 -64.9062 0)
(-92.5709 -50.3564 0)
(-180.317 -155.103 0)
(-273.829 -331.75 0)
(-324.921 -420.776 0)
(-431.614 -400.058 0)
(-578.557 -327.313 0)
(-822.26 -258.077 0)
(-766.345 -212.575 0)
(-516.102 -238.156 0)
(-262.808 -141.432 0)
(158.867 -6.70895 0)
(335.758 6.44399 0)
(299.382 -2.64642 0)
(292.02 -4.59132 0)
(293.395 -4.23758 0)
(293.067 -3.69502 0)
(298.26 -2.68921 0)
(306.575 -1.43171 0)
(316.619 0.3423 0)
(323.337 -1.70975 0)
(346.266 -4.79509 0)
(-354.19 19.812 0)
(-255.487 84.5507 0)
(-231.944 137.195 0)
(-286.013 142.786 0)
(-304.416 136.655 0)
(-290.464 73.71 0)
(-260.961 -21.5521 0)
(-210.771 -77.6449 0)
(-197.738 -135.095 0)
(-218.492 -210.364 0)
(-257.617 -140.753 0)
(-193.868 43.5481 0)
(252.87 133.375 0)
(1460 297.748 0)
(1801.47 69.6744 0)
(862.359 -184.188 0)
(151.917 -206.909 0)
(-271.062 -216.597 0)
(-247.66 -191.68 0)
(-117.692 -133.628 0)
(-217.346 -168.403 0)
(-304.026 -169.655 0)
(-355.073 -184.306 0)
(-437.596 -194.93 0)
(-573.378 -192.961 0)
(-842.532 -206.19 0)
(-822.154 -251.986 0)
(-495.718 -327.723 0)
(-131.274 -177.669 0)
(241.018 -11.2231 0)
(337.032 -0.25767 0)
(293.389 -10.8713 0)
(291.783 -12.4523 0)
(294.83 -11.2957 0)
(295.055 -9.95766 0)
(300.394 -6.42817 0)
(308.605 -3.20391 0)
(316.753 -0.0482041 0)
(321.206 -1.25458 0)
(348.791 -2.82328 0)
(-373.372 25.678 0)
(-369.644 29.2442 0)
(-338.535 -37.6718 0)
(-302.241 -80.3563 0)
(-288.024 -75.7162 0)
(-295.37 -81.8274 0)
(-273.009 -105.097 0)
(-232.624 -115.399 0)
(-260.73 -177.772 0)
(-226.495 -231.262 0)
(-78.4767 -137.286 0)
(55.1573 48.3626 0)
(468.368 240.605 0)
(1327.14 559.389 0)
(1374.71 -6.60464 0)
(652.76 -332.386 0)
(130.469 -387.612 0)
(-185.175 -420.465 0)
(-112.604 -283.293 0)
(-70.1409 -198.45 0)
(-215.033 -241.581 0)
(-289.153 -238.286 0)
(-349.277 -242.399 0)
(-439.955 -246.42 0)
(-589.407 -254.499 0)
(-879.139 -285.754 0)
(-883.458 -338.998 0)
(-444.487 -402.592 0)
(42.1836 -176.224 0)
(329.826 9.73345 0)
(336.097 19.899 0)
(287.631 10.9706 0)
(291.611 3.50121 0)
(295.798 -4.93275 0)
(297.758 -12.3021 0)
(304.768 -12.4364 0)
(312.723 -8.72811 0)
(318.497 -3.38828 0)
(320.663 -2.48235 0)
(350.195 -1.95714 0)
(-301.265 20.7612 0)
(-316.533 68.8677 0)
(-337.559 94.3287 0)
(-322.674 85.7645 0)
(-305.834 85.1889 0)
(-318.777 70.6051 0)
(-293.312 82.7385 0)
(-280.804 69.9437 0)
(-309.387 -0.990597 0)
(-179.477 75.3071 0)
(11.8394 173.464 0)
(170.281 234.483 0)
(745.313 403.951 0)
(1221.78 467.899 0)
(942.125 -29.1577 0)
(495.207 -212.417 0)
(67.0416 -302.712 0)
(-170.537 -357.532 0)
(-33.7184 -185.848 0)
(-77.4962 -210.622 0)
(-255.734 -270.495 0)
(-304.815 -279.905 0)
(-362.911 -288.276 0)
(-449.256 -289.118 0)
(-611.282 -293.79 0)
(-923.959 -329.692 0)
(-934.742 -388.296 0)
(-338.863 -385.811 0)
(266.058 -94.9693 0)
(430.009 96.9372 0)
(338.224 108.571 0)
(277.588 98.8446 0)
(276.458 84.5638 0)
(279.601 66.1902 0)
(287.824 43.9536 0)
(303.838 14.8524 0)
(317.324 -4.32911 0)
(322.771 -5.53312 0)
(322.585 -4.10498 0)
(353.069 -1.91603 0)
(-287.003 6.45977 0)
(-298.751 23.4308 0)
(-322.253 41.933 0)
(-311.048 65.0505 0)
(-302.633 68.0977 0)
(-297.731 64.1916 0)
(-273.646 95.7778 0)
(-313.309 99.6148 0)
(-255.562 89.0082 0)
(-58.3848 166.767 0)
(74.9107 213.544 0)
(277.263 299.45 0)
(693.296 432.974 0)
(909.779 190.775 0)
(719.129 -129.648 0)
(389.154 -252.014 0)
(-9.3694 -473.423 0)
(-72.5609 -380.496 0)
(28.9639 -180.467 0)
(-151.71 -302.711 0)
(-281.797 -309.269 0)
(-306.287 -292.232 0)
(-358.155 -261.389 0)
(-445.269 -215.065 0)
(-628.505 -188.429 0)
(-970.208 -218.484 0)
(-937.537 -271.802 0)
(-161.826 -122.508 0)
(507.378 347.735 0)
(525.965 583.056 0)
(337.935 572.74 0)
(264.496 500.704 0)
(260.144 401.273 0)
(256.665 293.803 0)
(248.287 194.665 0)
(258.241 116.65 0)
(293.079 63.5568 0)
(318.713 15.1555 0)
(324.148 -0.925891 0)
(355.997 -0.965289 0)
(-272.462 6.20312 0)
(-282.35 14.8432 0)
(-297.453 32.4823 0)
(-297.461 60.7322 0)
(-306.661 60.2904 0)
(-292.103 69.6253 0)
(-259.177 75.5578 0)
(-287.327 83.6324 0)
(-244.677 133.507 0)
(-59.4695 178.362 0)
(139.698 232.641 0)
(381.731 324.471 0)
(640.589 327.31 0)
(679.618 107.359 0)
(515.438 -131.395 0)
(163.933 -428.747 0)
(-56.7681 -558.388 0)
(111.767 -230.192 0)
(41.2375 -285.448 0)
(-201.615 -368.201 0)
(-245.636 -258.006 0)
(-258.676 -132.408 0)
(-288.55 -15.1753 0)
(-378.949 164.545 0)
(-614.578 332.821 0)
(-1004.3 289.982 0)
(-842.256 275.174 0)
(258.145 754.799 0)
(945.964 1326.98 0)
(646.832 1442.82 0)
(258.867 1345.75 0)
(112.356 1187.3 0)
(77.0813 1012.67 0)
(80.5056 814.289 0)
(117.113 595.213 0)
(177.497 392.199 0)
(219.52 226.138 0)
(260.634 106.814 0)
(307.05 28.5941 0)
(354.892 2.54152 0)
(-266.722 5.97886 0)
(-273.428 10.7472 0)
(-278.032 23.1545 0)
(-284.251 36.725 0)
(-294.063 42.4261 0)
(-283.019 72.5899 0)
(-260.148 92.0392 0)
(-257.467 103.834 0)
(-164.277 180.284 0)
(37.1443 277.187 0)
(215.707 317.68 0)
(368.49 288.437 0)
(484.079 158.736 0)
(467.754 -38.1487 0)
(202.518 -268.928 0)
(-22.3113 -517.29 0)
(181.965 -370.677 0)
(190.454 -232.849 0)
(-104.026 -275.348 0)
(-125.266 -116.169 0)
(-54.579 170.744 0)
(-72.2865 596.005 0)
(-72.0005 1021.16 0)
(-109.927 1251.93 0)
(-507.629 1180.83 0)
(-1025.76 818.899 0)
(-489.624 768.399 0)
(851.734 1328.77 0)
(1170.38 1602.47 0)
(544.054 1494.71 0)
(91.7037 1381.5 0)
(-56.4767 1280.01 0)
(-99.3004 1220.65 0)
(-145.609 1144.95 0)
(-158.455 1005.6 0)
(-97.4131 799.565 0)
(18.0714 544.327 0)
(128.352 298.109 0)
(223.668 115.027 0)
(325.994 8.60563 0)
(-256.344 8.82383 0)
(-265.799 16.1192 0)
(-272.419 18.5214 0)
(-278.89 12.3337 0)
(-272.101 5.58297 0)
(-244.294 7.85276 0)
(-229.068 11.5885 0)
(-202.292 33.2151 0)
(-77.6281 120.307 0)
(72.9304 169.18 0)
(150.538 154.749 0)
(228.567 130.055 0)
(325.879 47.3319 0)
(267.506 -196.617 0)
(53.7206 -552.718 0)
(65.8833 -316.738 0)
(217.329 26.3561 0)
(203.629 28.207 0)
(153.675 404.164 0)
(228.256 1137.94 0)
(440.64 1658.94 0)
(560.818 1879.18 0)
(343.524 1913.62 0)
(-225.092 1624.88 0)
(-1031.86 953.199 0)
(-1401.73 324.629 0)
(-350.927 450.148 0)
(1061.88 833.026 0)
(1105.87 869.657 0)
(433.897 747.199 0)
(51.9734 718.066 0)
(-42.6397 719.897 0)
(-53.068 777.235 0)
(-126.724 843.27 0)
(-215.713 882.228 0)
(-267.006 882.135 0)
(-263.701 783.125 0)
(-153.055 548.081 0)
(28.0737 281.069 0)
(235.754 33.9184 0)
(-242.686 -8.57789 0)
(-264.083 -27.4721 0)
(-281.68 -46.2661 0)
(-296.719 -66.032 0)
(-298.381 -64.1886 0)
(-277.231 -53.1937 0)
(-235.708 -25.8783 0)
(-152.702 43.6012 0)
(-33.2568 114.356 0)
(70.3336 93.1183 0)
(178.005 29.397 0)
(264.979 -13.0974 0)
(169.286 -118.291 0)
(-110.476 -204.141 0)
(86.7648 30.107 0)
(535.705 522.149 0)
(514.367 1099.78 0)
(554.523 1692.98 0)
(965.353 2164.53 0)
(1083.88 2408.67 0)
(659.702 2328.01 0)
(173.136 1828.43 0)
(-317.045 1092.44 0)
(-1035.42 378.399 0)
(-1760.6 -326.74 0)
(-1510.52 -501.997 0)
(0.28598 5.20279 0)
(1255.99 294.454 0)
(1087.68 292.689 0)
(397.975 242.546 0)
(65.3946 271.55 0)
(0.541101 302 0)
(19.5861 354.666 0)
(-44.4345 426.806 0)
(-121.003 487.617 0)
(-192.912 563.308 0)
(-303.835 630.337 0)
(-355.447 597.316 0)
(-271.799 404.951 0)
(22.4604 85.6061 0)
(-291.083 -8.95367 0)
(-302.117 -33.5885 0)
(-309.577 -35.7804 0)
(-296.161 -12.0463 0)
(-259.729 60.8601 0)
(-207.377 167.924 0)
(-135.793 304.464 0)
(-67.1573 452.737 0)
(-29.9116 546.225 0)
(-8.93889 543.191 0)
(48.1851 534.675 0)
(86.2501 603.159 0)
(141.783 835.524 0)
(410.507 1198.69 0)
(753.6 1969.81 0)
(1096.66 2358.5 0)
(1345.58 2567.41 0)
(1229.66 2749.94 0)
(843.341 2503.39 0)
(385.786 1692.76 0)
(-118.498 908.116 0)
(-629.821 359.125 0)
(-1053.78 -232.041 0)
(-1592.66 -845.329 0)
(-1880.24 -1071.93 0)
(-1081.86 -501.975 0)
(416.563 13.2346 0)
(1338.92 102.211 0)
(1055.85 33.9128 0)
(413.527 38.9485 0)
(109.266 84.7785 0)
(37.4537 118.217 0)
(67.1997 143.6 0)
(1.3929 181.446 0)
(-84.1749 202.377 0)
(-129.477 224.199 0)
(-230.93 280.624 0)
(-370.245 344.703 0)
(-465.028 322.399 0)
(-236.964 116.221 0)
(-283.681 52.8563 0)
(-289.934 138.632 0)
(-260.921 356.176 0)
(-203.593 624.403 0)
(-124.955 865.343 0)
(-42.4857 1121.72 0)
(38.7473 1396.01 0)
(80.2681 1685.72 0)
(53.9085 1947.92 0)
(59.2031 2180.66 0)
(235.792 2424.9 0)
(554.888 2631.12 0)
(743.161 2770.14 0)
(982.565 2977 0)
(1204.4 2927.11 0)
(1111.58 2743.35 0)
(891.577 2165.6 0)
(492.831 1450.71 0)
(-53.384 796.984 0)
(-453.389 220.676 0)
(-625.438 -287.613 0)
(-925.56 -645.565 0)
(-1477.7 -983.128 0)
(-1844.77 -1295.8 0)
(-1429.73 -894.456 0)
(-464.815 -101.682 0)
(582.501 129.405 0)
(1275.91 6.11918 0)
(1026.71 -70.8728 0)
(446.992 -11.6867 0)
(141.78 43.568 0)
(57.2241 59.5848 0)
(80.5158 65.3007 0)
(12.2048 70.3415 0)
(-79.8042 76.4256 0)
(-117.51 63.9107 0)
(-187.713 61.4805 0)
(-315.191 89.33 0)
(-491.972 112.004 0)
(-400.21 61.7314 0)
(-106.557 182.278 0)
(-9.82656 547.279 0)
(158.529 994.523 0)
(194.49 1423.3 0)
(219.507 1734.07 0)
(303.992 1966.66 0)
(407.69 2167.95 0)
(464.681 2357.36 0)
(447.036 2576.83 0)
(450.699 2870.36 0)
(482.264 3073.19 0)
(418.941 3000.24 0)
(475.088 2643.73 0)
(561.762 2326.87 0)
(528.44 1753.39 0)
(362.846 1207.69 0)
(99.9499 647.497 0)
(-89.1866 99.9972 0)
(-341.962 -291.312 0)
(-659.371 -495.5 0)
(-953.24 -721.006 0)
(-1300.04 -1108.01 0)
(-1680.37 -1380.94 0)
(-1507.22 -1078.34 0)
(-729.549 -297.7 0)
(-95.2258 161.515 0)
(520.445 192.431 0)
(1145.92 -41.8259 0)
(1038.69 -137.283 0)
(523.807 -44.1875 0)
(177.945 33.6909 0)
(58.3961 55.3171 0)
(77.5652 55.0973 0)
(12.1133 48.8655 0)
(-90.3719 56.844 0)
(-143.878 39.4886 0)
(-206.435 14.4467 0)
(-321.559 -2.60213 0)
(-491.623 -15.831 0)
(-404.382 11.1462 0)
(419.346 300.56 0)
(492.775 642.131 0)
(583.248 877.308 0)
(509.058 940.138 0)
(398.646 976.288 0)
(375.619 989.074 0)
(415.235 1039.44 0)
(474.278 1107.95 0)
(548.26 1233.95 0)
(537.513 1384.85 0)
(360.941 1420.83 0)
(141.051 1331.19 0)
(94.2846 1246.82 0)
(124.595 938.134 0)
(125.913 604.986 0)
(45.8999 226.437 0)
(-175.837 -57.0135 0)
(-411.84 -359.447 0)
(-627.227 -656.31 0)
(-867.456 -902.159 0)
(-1215.68 -1166.42 0)
(-1561.5 -1407.85 0)
(-1449.11 -1194.54 0)
(-800.918 -444.58 0)
(-234.966 89.4378 0)
(7.49323 227.169 0)
(386.555 210.125 0)
(958.189 -54.9322 0)
(1024.44 -217.037 0)
(611.748 -132.622 0)
(237.667 -52.3961 0)
(77.852 -13.6419 0)
(74.2987 -17.3853 0)
(13.888 -22.9117 0)
(-88.84 5.47006 0)
(-158.366 11.8446 0)
(-228.273 -6.599 0)
(-344.367 -26.3002 0)
(-478.723 -48.4843 0)
(-395.696 0.929697 0)
(801.854 87.6613 0)
(545.949 80.8873 0)
(445.7 20.6841 0)
(289.871 -111.524 0)
(266.664 -120.538 0)
(364.852 -57.4689 0)
(522.244 36.3947 0)
(652.116 134.268 0)
(713.865 218.528 0)
(630.781 278.853 0)
(430.557 381.032 0)
(251.261 480.488 0)
(96.3244 559.118 0)
(-56.7349 405.93 0)
(-157.377 148.861 0)
(-275.08 -189.58 0)
(-464.629 -477.909 0)
(-666.691 -726.267 0)
(-864.938 -987.672 0)
(-1150.93 -1285.29 0)
(-1440.54 -1472.49 0)
(-1327.14 -1217.55 0)
(-752.129 -518.081 0)
(-269.933 37.525 0)
(-82.2269 218.288 0)
(21.0729 239.504 0)
(248.601 216.231 0)
(734.291 -23.066 0)
(963.828 -251.166 0)
(682.461 -205.219 0)
(292.599 -120.086 0)
(92.1337 -78.6159 0)
(68.6326 -101.183 0)
(34.1376 -111.469 0)
(-56.8795 -81.6188 0)
(-155.508 -66.3689 0)
(-243.192 -79.2281 0)
(-361.921 -76.2338 0)
(-465.384 -75.8625 0)
(-358.557 -24.5477 0)
(581.766 -170.834 0)
(428.234 -361.119 0)
(397.834 -449.469 0)
(372.971 -425.371 0)
(450.735 -307.481 0)
(526.846 -186.167 0)
(600 -128.918 0)
(649.789 -120.409 0)
(687.588 -132.301 0)
(694.108 -89.6212 0)
(555.243 42.4022 0)
(312.661 121.761 0)
(22.4384 68.4615 0)
(-270.744 -95.4899 0)
(-447.943 -340.788 0)
(-558.078 -622.429 0)
(-693.008 -879.826 0)
(-903.067 -1118.22 0)
(-1165.92 -1361.41 0)
(-1334.64 -1469.16 0)
(-1150.4 -1158.81 0)
(-641.799 -505.354 0)
(-239.67 14.0068 0)
(-91.327 207.845 0)
(-40.3313 264.468 0)
(5.51166 257.163 0)
(133.532 221.482 0)
(507.788 66.1609 0)
(848.909 -215.401 0)
(738.062 -262.05 0)
(359.666 -176.314 0)
(96.0672 -117.799 0)
(42.6403 -147.169 0)
(32.7409 -163.285 0)
(-45.3799 -163.282 0)
(-156.062 -161.148 0)
(-237.78 -162.607 0)
(-341.124 -138.736 0)
(-428.917 -99.4351 0)
(-298.937 -41.7979 0)
(289.244 -222.685 0)
(277.446 -368.892 0)
(383.785 -449.55 0)
(426.696 -466.194 0)
(497.169 -465.322 0)
(536.921 -498.228 0)
(585.61 -554.09 0)
(648.856 -601.217 0)
(743.533 -600.073 0)
(799.131 -535.35 0)
(634.253 -491.462 0)
(276.373 -487.868 0)
(-113.026 -567.685 0)
(-451.102 -695.406 0)
(-665.155 -889.66 0)
(-794.517 -1097.85 0)
(-942.393 -1299.58 0)
(-1130.77 -1448.35 0)
(-1203.11 -1401.1 0)
(-955.689 -1011.36 0)
(-511.787 -421.077 0)
(-196.975 23.5868 0)
(-64.8647 202.99 0)
(-28.5793 266.755 0)
(-34.7015 281.483 0)
(-20.3497 277.117 0)
(64.5445 241.823 0)
(313.295 163.242 0)
(647.552 -127.028 0)
(720.127 -310.804 0)
(431.605 -282.862 0)
(120.218 -207.704 0)
(24.7999 -208.774 0)
(18.6107 -232.073 0)
(-54.8202 -259.372 0)
(-154.858 -249.171 0)
(-221.595 -222.814 0)
(-301.046 -202.016 0)
(-371.97 -117.194 0)
(-222.46 -88.5428 0)
(11.7013 -283.766 0)
(209.618 -288.52 0)
(304.07 -397.247 0)
(357.772 -493.982 0)
(419.865 -602.609 0)
(441.306 -717.703 0)
(500.757 -827.441 0)
(605.478 -917.182 0)
(751.059 -970.595 0)
(798.769 -1014.9 0)
(600.999 -1082.44 0)
(239.211 -1159.64 0)
(-177.553 -1254.22 0)
(-581.011 -1383.64 0)
(-835.755 -1488.22 0)
(-953.088 -1523.68 0)
(-1030.75 -1475.8 0)
(-1000.9 -1257.42 0)
(-744.832 -810.274 0)
(-390.255 -293.595 0)
(-153.083 59.1093 0)
(-40.4248 208.862 0)
(-5.34453 266.921 0)
(-15.6884 275.631 0)
(-30.3454 282.005 0)
(-32.7065 288.251 0)
(23.798 278.438 0)
(152.35 215.413 0)
(392.101 4.89856 0)
(587.894 -266.3 0)
(459.016 -380.988 0)
(167.461 -336.656 0)
(19.1578 -310.84 0)
(-16.017 -343.244 0)
(-61.8565 -385.411 0)
(-120.834 -363.177 0)
(-192.339 -314.077 0)
(-239.345 -253.737 0)
(-319.57 3.51863 0)
(-100.681 57.3234 0)
(-262.231 -423.182 0)
(168.091 -421.232 0)
(185.793 -416.868 0)
(228.802 -417.193 0)
(281.584 -565.916 0)
(320.264 -706.248 0)
(393.385 -808.787 0)
(510.908 -894.183 0)
(649.365 -1009.66 0)
(691.349 -1244.73 0)
(494.777 -1571.41 0)
(110.841 -1883.95 0)
(-328.875 -2131.39 0)
(-676.592 -2156.11 0)
(-800.106 -1940.14 0)
(-782.545 -1598.3 0)
(-685.817 -1169.39 0)
(-489.445 -664.978 0)
(-274.333 -195.401 0)
(-117.919 88.8743 0)
(-27.6017 213.775 0)
(3.27963 257.735 0)
(-0.52287 260.792 0)
(-14.0433 262.333 0)
(-22.5406 271.98 0)
(-23.7873 287.846 0)
(-5.64461 300.699 0)
(49.702 261.144 0)
(183.356 146.809 0)
(348.272 -122.521 0)
(363.807 -403.404 0)
(187.816 -491.343 0)
(18.4516 -488.386 0)
(-53.2481 -481.848 0)
(-74.0282 -476.482 0)
(-86.1178 -443.211 0)
(-116.135 -386.435 0)
(5.00049 -335.86 0)
(-72.2217 -82.3495 0)
(-281.089 45.9626 0)
(-802.007 620.283 0)
(215.702 484.115 0)
(307.961 222.007 0)
(214.144 -28.2723 0)
(141.322 -237.654 0)
(207.266 -467.137 0)
(319.656 -785.092 0)
(411.912 -1207.09 0)
(413.258 -1742.73 0)
(257.44 -2309.81 0)
(-14.972 -2727.33 0)
(-300.401 -2807.72 0)
(-439.818 -2530.61 0)
(-396.713 -2010.02 0)
(-298.23 -1416.81 0)
(-210.371 -870.234 0)
(-131.372 -386.421 0)
(-62.3258 -22.2074 0)
(-18.3923 186.172 0)
(4.0419 281.564 0)
(9.63736 304.346 0)
(4.88295 300.206 0)
(-0.913385 295.876 0)
(-4.90709 301.697 0)
(-5.76052 315.541 0)
(-5.0315 331.066 0)
(-1.93266 345.447 0)
(4.05605 338.929 0)
(22.3872 289.661 0)
(57.6891 125.422 0)
(103.606 -131.62 0)
(85.5682 -359.629 0)
(28.3079 -415.32 0)
(-4.54527 -408.153 0)
(-24.6254 -355.346 0)
(-34.0614 -305.777 0)
(-88.8916 -230.632 0)
(53.6831 -93.014 0)
(48.3682 -291.53 0)
(-65.6174 -68.2604 0)
(-802.007 -620.283 0)
(215.702 -484.115 0)
(307.961 -222.007 0)
(214.144 28.2723 0)
(141.322 237.654 0)
(207.266 467.137 0)
(319.656 785.092 0)
(411.912 1207.09 0)
(413.258 1742.73 0)
(257.44 2309.81 0)
(-14.972 2727.33 0)
(-300.401 2807.72 0)
(-439.818 2530.61 0)
(-396.713 2010.02 0)
(-298.23 1416.81 0)
(-210.371 870.234 0)
(-131.372 386.421 0)
(-62.3258 22.2074 0)
(-18.3923 -186.172 0)
(4.0419 -281.564 0)
(9.63736 -304.346 0)
(4.88295 -300.206 0)
(-0.913385 -295.876 0)
(-4.90709 -301.697 0)
(-5.76052 -315.541 0)
(-5.0315 -331.066 0)
(-1.93266 -345.447 0)
(4.05605 -338.929 0)
(22.3872 -289.661 0)
(57.6891 -125.422 0)
(103.606 131.62 0)
(85.5682 359.629 0)
(28.3079 415.32 0)
(-4.54527 408.153 0)
(-24.6254 355.346 0)
(-34.0614 305.777 0)
(-88.8916 230.632 0)
(53.6831 93.014 0)
(48.3682 291.53 0)
(-65.6174 68.2604 0)
(-262.231 423.182 0)
(168.091 421.232 0)
(185.793 416.868 0)
(228.802 417.193 0)
(281.584 565.916 0)
(320.264 706.248 0)
(393.385 808.787 0)
(510.908 894.183 0)
(649.365 1009.66 0)
(691.349 1244.73 0)
(494.777 1571.41 0)
(110.841 1883.95 0)
(-328.875 2131.39 0)
(-676.592 2156.11 0)
(-800.106 1940.14 0)
(-782.545 1598.3 0)
(-685.817 1169.39 0)
(-489.445 664.978 0)
(-274.333 195.401 0)
(-117.919 -88.8743 0)
(-27.6017 -213.775 0)
(3.27963 -257.735 0)
(-0.52287 -260.792 0)
(-14.0433 -262.333 0)
(-22.5406 -271.98 0)
(-23.7873 -287.846 0)
(-5.64461 -300.699 0)
(49.702 -261.144 0)
(183.356 -146.809 0)
(348.272 122.521 0)
(363.807 403.404 0)
(187.816 491.343 0)
(18.4516 488.386 0)
(-53.2481 481.848 0)
(-74.0282 476.482 0)
(-86.1178 443.211 0)
(-116.135 386.435 0)
(5.00049 335.86 0)
(-72.2217 82.3495 0)
(-281.089 -45.9626 0)
(11.7013 283.766 0)
(209.618 288.52 0)
(304.07 397.247 0)
(357.772 493.982 0)
(419.865 602.609 0)
(441.306 717.703 0)
(500.757 827.441 0)
(605.478 917.182 0)
(751.059 970.595 0)
(798.769 1014.9 0)
(600.999 1082.44 0)
(239.211 1159.64 0)
(-177.553 1254.22 0)
(-581.011 1383.64 0)
(-835.755 1488.22 0)
(-953.088 1523.68 0)
(-1030.75 1475.8 0)
(-1000.9 1257.42 0)
(-744.832 810.274 0)
(-390.255 293.595 0)
(-153.083 -59.1093 0)
(-40.4248 -208.862 0)
(-5.34453 -266.921 0)
(-15.6884 -275.631 0)
(-30.3454 -282.005 0)
(-32.7065 -288.251 0)
(23.798 -278.438 0)
(152.35 -215.413 0)
(392.101 -4.89856 0)
(587.894 266.3 0)
(459.016 380.988 0)
(167.461 336.656 0)
(19.1578 310.84 0)
(-16.017 343.244 0)
(-61.8565 385.411 0)
(-120.834 363.177 0)
(-192.339 314.077 0)
(-239.345 253.737 0)
(-319.57 -3.51863 0)
(-100.681 -57.3234 0)
(289.244 222.685 0)
(277.446 368.892 0)
(383.785 449.55 0)
(426.696 466.194 0)
(497.169 465.322 0)
(536.921 498.228 0)
(585.61 554.09 0)
(648.856 601.217 0)
(743.533 600.073 0)
(799.131 535.35 0)
(634.253 491.462 0)
(276.373 487.868 0)
(-113.026 567.685 0)
(-451.102 695.406 0)
(-665.155 889.66 0)
(-794.517 1097.85 0)
(-942.393 1299.58 0)
(-1130.77 1448.35 0)
(-1203.11 1401.1 0)
(-955.689 1011.36 0)
(-511.787 421.077 0)
(-196.975 -23.5868 0)
(-64.8647 -202.99 0)
(-28.5793 -266.755 0)
(-34.7015 -281.483 0)
(-20.3497 -277.117 0)
(64.5445 -241.823 0)
(313.295 -163.242 0)
(647.552 127.028 0)
(720.127 310.804 0)
(431.605 282.862 0)
(120.218 207.704 0)
(24.7999 208.774 0)
(18.6107 232.073 0)
(-54.8202 259.372 0)
(-154.858 249.171 0)
(-221.595 222.814 0)
(-301.046 202.016 0)
(-371.97 117.194 0)
(-222.46 88.5428 0)
(581.766 170.834 0)
(428.234 361.119 0)
(397.834 449.469 0)
(372.971 425.371 0)
(450.735 307.481 0)
(526.846 186.167 0)
(600 128.918 0)
(649.789 120.409 0)
(687.588 132.301 0)
(694.108 89.6212 0)
(555.243 -42.4022 0)
(312.661 -121.761 0)
(22.4384 -68.4615 0)
(-270.744 95.4899 0)
(-447.943 340.788 0)
(-558.078 622.429 0)
(-693.008 879.826 0)
(-903.067 1118.22 0)
(-1165.92 1361.41 0)
(-1334.64 1469.16 0)
(-1150.4 1158.81 0)
(-641.799 505.354 0)
(-239.67 -14.0068 0)
(-91.327 -207.845 0)
(-40.3313 -264.468 0)
(5.51166 -257.163 0)
(133.532 -221.482 0)
(507.788 -66.1609 0)
(848.909 215.401 0)
(738.062 262.05 0)
(359.666 176.314 0)
(96.0672 117.799 0)
(42.6403 147.169 0)
(32.7409 163.285 0)
(-45.3799 163.282 0)
(-156.062 161.148 0)
(-237.78 162.607 0)
(-341.124 138.736 0)
(-428.917 99.4351 0)
(-298.937 41.7979 0)
(801.854 -87.6613 0)
(545.949 -80.8873 0)
(445.7 -20.6841 0)
(289.871 111.524 0)
(266.664 120.538 0)
(364.852 57.4689 0)
(522.244 -36.3947 0)
(652.116 -134.268 0)
(713.865 -218.528 0)
(630.781 -278.853 0)
(430.557 -381.032 0)
(251.261 -480.488 0)
(96.3244 -559.118 0)
(-56.7349 -405.93 0)
(-157.377 -148.861 0)
(-275.08 189.58 0)
(-464.629 477.909 0)
(-666.691 726.267 0)
(-864.938 987.672 0)
(-1150.93 1285.29 0)
(-1440.54 1472.49 0)
(-1327.14 1217.55 0)
(-752.129 518.081 0)
(-269.933 -37.525 0)
(-82.2269 -218.288 0)
(21.0729 -239.504 0)
(248.601 -216.231 0)
(734.291 23.066 0)
(963.828 251.166 0)
(682.461 205.219 0)
(292.599 120.086 0)
(92.1337 78.6159 0)
(68.6326 101.183 0)
(34.1376 111.469 0)
(-56.8795 81.6188 0)
(-155.508 66.3689 0)
(-243.192 79.2281 0)
(-361.921 76.2338 0)
(-465.384 75.8625 0)
(-358.557 24.5477 0)
(419.346 -300.56 0)
(492.775 -642.131 0)
(583.248 -877.308 0)
(509.058 -940.138 0)
(398.646 -976.288 0)
(375.619 -989.074 0)
(415.235 -1039.44 0)
(474.278 -1107.95 0)
(548.26 -1233.95 0)
(537.513 -1384.85 0)
(360.941 -1420.83 0)
(141.051 -1331.19 0)
(94.2846 -1246.82 0)
(124.595 -938.134 0)
(125.913 -604.986 0)
(45.8999 -226.437 0)
(-175.837 57.0135 0)
(-411.84 359.447 0)
(-627.227 656.31 0)
(-867.456 902.159 0)
(-1215.68 1166.42 0)
(-1561.5 1407.85 0)
(-1449.11 1194.54 0)
(-800.918 444.58 0)
(-234.966 -89.4378 0)
(7.49323 -227.169 0)
(386.555 -210.125 0)
(958.189 54.9322 0)
(1024.44 217.037 0)