/*--------------------------------*- C++ -*----------------------------------*\
| =========                 |                                                 |
| \\      /  F ield         | OpenFOAM: The Open Source CFD Toolbox           |
|  \\    /   O peration     | Version:  v1912                                 |
|   \\  /    A nd           | Website:  www.openfoam.com                      |
|    \\/     M anipulation  |                                                 |
\*---------------------------------------------------------------------------*/
FoamFile
{
    version     2.0;
    format      ascii;
    class       volScalarField;
    location    "8.8";
    object      p;
}
// * * * * * * * * * * * * * * * * * * * * * * * * * * * * * * * * * * * * * //

dimensions      [1 -1 -2 0 0 0 0];


internalField   nonuniform List<scalar> 
1900
(
7596.67
8637.34
8714.96
8545.78
8435.07
8424.15
8436.58
8436.66
8432.46
8405.12
7596.65
8637.36
8715
8545.74
8434.98
8423.87
8436.76
8438.67
8444.59
8416.15
7596.64
8637.38
8715.02
8545.71
8435.12
8424.25
8437.51
8436.48
8431.82
8399.48
7596.65
8637.36
8715
8545.74
8434.98
8423.87
8436.76
8438.67
8444.59
8416.15
7596.67
8637.34
8714.96
8545.78
8435.07
8424.15
8436.58
8436.66
8432.46
8405.12
8528.3
8370.47
8300.7
8126.78
8358.26
8388.28
8285.51
8218.94
8046.86
7927.26
8357.52
8266.34
8209.03
8070.9
7961.61
8388.28
8285.51
8218.94
8046.86
7927.26
8528.3
8370.47
8300.7
8126.78
8358.26
3524.71
2052.56
1435.42
1119.78
843.236
3981.26
2262.84
1548.96
1206.47
893.543
4088.94
2222.88
1501.39
1172.13
848.386
3981.26
2262.84
1548.96
1206.47
893.543
3524.71
2052.56
1435.42
1119.78
843.236
892.913
954.286
949.864
937.899
915.796
874.153
823.204
763.8
710.156
667.781
606.967
549.073
545.567
622.828
950.309
1155.15
1192.83
1185.14
1160.54
1153.18
1148.91
1121.98
1074.22
1009.19
930.569
838.199
711.753
652.243
578.809
549.15
596.094
640.081
680.319
720.928
761.212
801.669
843.162
885.565
930.376
975.533
838.312
922.332
987.172
962.399
922.883
868.647
812.535
752.22
700.933
660.477
600.879
545.779
542.728
622.2
944.566
1156.2
1188.38
1181.52
1162.07
1158.87
1153.44
1120.72
1075.81
1011.06
930.055
835.663
710.009
654.866
581.412
549.232
595.837
639.922
680.206
720.858
761.193
801.705
843.26
885.713
930.596
975.746
825.993
878.139
971.595
968.006
935.824
885.351
827.104
761.959
708.245
666.693
605.322
548.94
545.92
626.163
950.041
1160.98
1191.19
1183.04
1162.64
1159.23
1146.8
1116.8
1076.64
1015.89
938.301
845.731
714.113
656.539
581.589
549.168
595.735
639.844
680.147
720.818
761.175
801.684
843.167
885.519
930.382
975.524
838.312
922.332
987.172
962.399
922.883
868.647
812.535
752.22
700.933
660.477
600.879
545.779
542.728
622.2
944.566
1156.2
1188.38
1181.52
1162.07
1158.87
1153.44
1120.72
1075.81
1011.06
930.055
835.663
710.009
654.866
581.412
549.232
595.837
639.922
680.206
720.858
761.193
801.705
843.26
885.713
930.596
975.746
892.913
954.286
949.864
937.899
915.796
874.153
823.204
763.8
710.156
667.781
606.967
549.073
545.567
622.828
950.309
1155.15
1192.83
1185.14
1160.54
1153.18
1148.91
1121.98
1074.22
1009.19
930.569
838.199
711.753
652.243
578.809
549.15
596.094
640.081
680.319
720.928
761.212
801.669
843.162
885.565
930.376
975.533
991.264
940.447
898.416
883.684
858.059
832.595
805.88
769.316
728.983
688.929
630.523
566.262
553.7
622.611
950.629
1151.45
1200.4
1188.2
1153.71
1137.52
1145.25
1152.32
1132.04
1072.77
986.937
877.468
724.835
646.097
569.66
548.663
596.752
640.27
680.359
720.932
761.199
801.662
843.208
885.725
930.388
975.418
969.316
900.351
836.557
791.821
753.584
730.92
714.282
695.951
680.4
659.421
619.613
570.553
562.137
631.991
943.981
1137.75
1196.78
1182.22
1141.83
1129.26
1116.37
1079.68
1041.07
990.323
922.372
831.22
696.25
620.475
554.322
548.203
598.01
640.537
680.34
720.842
761.024
801.436
843.045
885.744
930.115
974.661
972.555
930.043
902.296
866.258
823.642
782.544
743.764
710.78
685.802
656.402
625.717
585.557
572.403
655.096
973.904
1150.5
1211.05
1192.28
1136.51
1124.17
1104.15
1064.4
1020.54
966.757
900.199
809.078
668.503
582.985
532.18
546.885
598.46
639.569
679.142
719.809
760.22
800.949
842.828
885.816
929.935
974.147
974.566
922.757
872.914
829.66
789.798
750.453
708.571
675.375
644.599
603.675
582.313
582.094
597.481
710.895
962.444
1088.94
1141.95
1124.82
1091.03
1093.85
1071.74
1034.72
992.225
938.666
871.237
776.579
629.474
533.628
507.24
545.229
597.942
637.656
677.041
717.849
758.385
799.732
842.196
885.731
929.783
973.913
979.359
937.793
892.313
844.964
803.577
760.86
715.914
680.199
638.693
595.117
589.336
598.373
636.164
803.334
972.154
1062.42
1108.34
1080.86
1061.44
1071.58
1040.13
1001.26
956.302
901.455
832.757
733.353
578.668
476.298
485.481
549.464
603.733
642.476
680.07
718.502
756.96
797.654
840.515
884.918
929.278
973.628
980.068
941.007
897.911
852.387
812.373
769.163
730.497
693.91
644.337
623.631
628.281
644.231
704.528
834.888
954.718
1032.65
1061.73
1030.07
1041.78
1038.04
1000.06
960.543
915.832
862.05
793.383
689.211
526.575
431.388
482.073
570.917
626.714
663.85
699.45
735.389
770.033
803.668
841.049
884.265
928.695
973.406
981.071
944.002
903.425
862.202
821.623
777.871
741.295
706.597
662.28
639.311
645.926
677.728
750.902
853.89
937.797
995.635
982.878
980.024
1013.61
991.364
958.17
923.814
887.034
844.463
782.823
675.454
506.641
443.834
577.631
703.974
755.509
775.162
786.407
796.36
808.546
828.566
857.358
888.934
929.032
973.373
981.711
944.94
906.519
868.481
828.35
787.614
750.52
716.073
679.716
670.897
689.931
730.216
791.266
863.338
919.898
919.031
913.762
969.071
966.137
940.464
931.689
925.455
911.81
905.654
881.58
766.056
599.496
631.41
833.723
953.265
983.338
978.483
967.807
951.176
927.764
907.601
900.976
912.57
936.273
974.079
982.656
946.85
909.561
871.935
832.866
797.107
765.685
734.113
710.055
712.765
730.111
754.163
792.967
843.78
866.531
858.553
884.649
918.319
940.647
960.579
1003.42
1081.76
1157.64
1176.22
1095.74
892.463
710.266
795.958
1002.28
1100.07
1121.61
1114.37
1109.88
1099.77
1075.03
1040.45
1001.6
967.933
959.514
975.653
984.05
949.212
911.427
871.75
829.829
789.695
753.591
724.875
711.598
715.729
730.939
764.681
803.809
811.235
773.428
835.095
920.747
976.546
1073.24
1242.02
1371.31
1423.44
1418.92
1336.25
1134.18
852.083
718.786
852.162
1064.18
1151.27
1173.63
1169.26
1173.77
1174.64
1161.55
1141.37
1108.5
1057.81
1010.76
983.067
980.382
939.57
897.3
854.436
815.856
783.011
758.827
745.667
740.359
737.442
737.901
750.693
761.62
789.683
874.509
996.923
1176.09
1366.96
1514.25
1598.88
1620.34
1566.29
1447.14
1276.5
1009.16
759.433
711.645
873.988
1079.85
1164.35
1193.57
1194.4
1203.87
1212.88
1204.25
1189.73
1168.64
1126.22
1066.83
998.339
981.677
940.311
901.945
868.557
845.957
834.195
834.274
844.85
856.347
859.675
872.628
924.518
1025.22
1128.89
1295.43
1460.1
1601.11
1705.28
1736.64
1690.6
1611.96
1518.6
1357.43
1112.24
850.117
719.06
722.293
879.248
1073.17
1161.59
1196.09
1200.58
1211.83
1222.73
1215.18
1200.78
1182.87
1149.16
1096.19
1013.87
994.389
976.307
991.687
1019.9
1045.17
1080.27
1128.77
1192.38
1256.56
1315.32
1380.5
1447.94
1495.71
1578.59
1650.19
1723.91
1749.98
1751.4
1725.45
1657.36
1544.12
1395.22
1186.61
933.113
772.125
732.487
745.938
875.61
1061.07
1161.25
1205.11
1210.19
1221.17
1231.52
1224.5
1206.66
1184.94
1149.89
1096.51
1014.7
1029.98
1085.34
1165.49
1245.73
1305.48
1355.36
1408.78
1469.55
1539.21
1620.32
1687.02
1719.58
1725.81
1745.51
1760.08
1780.13
1772.7
1731.78
1659.44
1559.29
1420.89
1224.98
991.479
826.477
771.226
761.861
773.287
868.164
1036.79
1149.88
1205.02
1215.24
1226.43
1235.67
1230.25
1211.24
1186.7
1148.47
1092
1016.82
1074.04
1146.47
1224.17
1269.04
1303.89
1342.37
1404.22
1485.99
1583.55
1682.3
1757.02
1800.71
1826.12
1827.19
1810.51
1783.92
1734.87
1656.14
1551.53
1418.28
1235.02
1022.14
870.057
815.3
795.826
792.687
801.621
861.053
1003.55
1126.11
1191.23
1206.57
1216.56
1225.44
1225.95
1209.8
1183.19
1142.92
1083.66
1014.94
1053.21
1106.77
1170.98
1216.18
1273.54
1340.13
1418.42
1505.13
1597.12
1694.22
1788
1846.91
1873.98
1853.08
1799.52
1729.9
1646.05
1539.32
1397.71
1218.69
1030.68
902.33
854.188
836.421
829.073
825.33
830.588
862.051
970.23
1095.5
1173.2
1194.41
1199.62
1206.14
1208.62
1193.66
1165.7
1128.27
1071.89
1010.31
1028.77
1050.78
1105.06
1156.32
1222.41
1293.04
1370.06
1454.08
1548.49
1658.55
1768.26
1832.97
1844.26
1801.89
1720.2
1618.97
1501.71
1359.81
1190.75
1028.96
927.937
888.216
873.769
870.379
865.91
860.836
860.314
878.585
946.47
1056.66
1144.5
1175.35
1177.56
1182.17
1182.68
1167.1
1140.1
1106.16
1057.31
1003.87
994.199
1009.02
1051.84
1092.64
1150.23
1208.1
1271.59
1345.81
1438.1
1552.35
1657.76
1717.62
1723.54
1668.8
1563.76
1438.96
1301.66
1155.51
1026.42
950.679
919.097
908.581
907.98
907.111
903.666
898.766
894.671
905.311
936.568
1013.14
1098.24
1139.37
1144.29
1144.64
1139.89
1127.63
1106.66
1074.73
1040.84
986.851
953.569
974.318
999.794
1025.41
1062.71
1102.85
1150.79
1211.03
1291.29
1389.6
1481.41
1525.67
1511.89
1435.23
1325.83
1215.2
1110.63
1026.6
976.029
951.155
943.601
943.565
944.503
943.421
940.641
937.222
934.1
935.67
947.768
986.093
1043.54
1086.14
1095.19
1091.21
1080.55
1070.86
1056.87
1038.92
1058.24
1019.06
882.056
897.392
941.374
982.081
1000.26
1020.94
1057.26
1108.85
1170.54
1222.5
1241.33
1218.38
1158.72
1097.43
1049.63
1015.42
991.775
979.288
974.636
974.23
975.747
976.881
977.09
976.629
975.74
975.045
974.357
974.514
975.472
980.67
991.337
1009.16
1014.87
1016.95
1013.62
1010.17
1004.25
985.73
1019.01
999.031
882.056
897.392
941.374
982.081
1000.26
1020.94
1057.26
1108.85
1170.54
1222.5
1241.33
1218.38
1158.72
1097.43
1049.63
1015.42
991.775
979.288
974.636
974.23
975.747
976.881
977.09
976.629
975.74
975.045
974.357
974.514
975.472
980.67
991.337
1009.16
1014.87
1016.95
1013.62
1010.17
1004.25
985.73
1019.01
999.031
953.569
974.318
999.794
1025.41
1062.71
1102.85
1150.79
1211.03
1291.29
1389.6
1481.41
1525.67
1511.89
1435.23
1325.83
1215.2
1110.63
1026.6
976.029
951.155
943.601
943.565
944.503
943.421
940.641
937.222
934.1
935.67
947.768
986.093
1043.54
1086.14
1095.19
1091.21
1080.55
1070.86
1056.87
1038.92
1058.24
1019.06
994.199
1009.02
1051.84
1092.64
1150.23
1208.1
1271.59
1345.81
1438.1
1552.35
1657.76
1717.62
1723.54
1668.8
1563.76
1438.96
1301.66
1155.51
1026.42
950.679
919.097
908.581
907.98
907.111
903.666
898.766
894.671
905.311
936.568
1013.14
1098.24
1139.37
1144.29
1144.64
1139.89
1127.63
1106.66
1074.73
1040.84
986.851
1028.77
1050.78
1105.06
1156.32
1222.41
1293.04
1370.06
1454.08
1548.49
1658.55
1768.26
1832.97
1844.26
1801.89
1720.2
1618.97
1501.71
1359.81
1190.75
1028.96
927.937
888.216
873.769
870.379
865.91
860.836
860.314
878.585
946.47
1056.66
1144.5
1175.35
1177.56
1182.17
1182.68
1167.1
1140.1
1106.16
1057.31
1003.87
1053.21
1106.77
1170.98
1216.18
1273.54
1340.13
1418.42
1505.13
1597.12
1694.22
1788
1846.91
1873.98
1853.08
1799.52
1729.9
1646.05
1539.32
1397.71
1218.69
1030.68
902.33
854.188
836.421
829.073
825.33
830.588
862.051
970.23
1095.5
1173.2
1194.41
1199.62
1206.14
1208.62
1193.66
1165.7
1128.27
1071.89
1010.31
1074.04
1146.47
1224.17
1269.04
1303.89
1342.37
1404.22
1485.99
1583.55
1682.3
1757.02
1800.71
1826.12
1827.19
1810.51
1783.92
1734.87
1656.14
1551.53
1418.28
1235.02
1022.14
870.057
815.3
795.826
792.687
801.621
861.053
1003.55
1126.11
1191.23
1206.57
1216.56
1225.44
1225.95
1209.8
1183.19
1142.92
1083.66
1014.94
1029.98
1085.34
1165.49
1245.73
1305.48
1355.36
1408.78
1469.55
1539.21
1620.32
1687.02
1719.58
1725.81
1745.51
1760.08
1780.13
1772.7
1731.78
1659.44
1559.29
1420.89
1224.98
991.479
826.477
771.226
761.861
773.287
868.164
1036.79
1149.88
1205.02
1215.24
1226.43
1235.67
1230.25
1211.24
1186.7
1148.47
1092
1016.82
994.389
976.307
991.687
1019.9
1045.17
1080.27
1128.77
1192.38
1256.56
1315.32
1380.5
1447.94
1495.71
1578.59
1650.19
1723.91
1749.98
1751.4
1725.45
1657.36
1544.12
1395.22
1186.61
933.113
772.125
732.487
745.938
875.61
1061.07
1161.25
1205.11
1210.19
1221.17
1231.52
1224.5
1206.66
1184.94
1149.89
1096.51
1014.7
981.677
940.311
901.945
868.557
845.957
834.195
834.274
844.85
856.347
859.675
872.628
924.518
1025.22
1128.89
1295.43
1460.1
1601.11
1705.28
1736.64
1690.6
1611.96
1518.6
1357.43
1112.24
850.117
719.06
722.293
879.248
1073.17
1161.59
1196.09
1200.58
1211.83
1222.73
1215.18
1200.78
1182.87
1149.16
1096.19
1013.87
980.382
939.57
897.3
854.436
815.856
783.011
758.827
745.667
740.359
737.442
737.901
750.693
761.62
789.683
874.509
996.923
1176.09
1366.96
1514.25
1598.88
1620.34
1566.29
1447.14
1276.5
1009.16
759.433
711.645
873.988
1079.85
1164.35
1193.57
1194.4
1203.87
1212.88
1204.25
1189.73
1168.64
1126.22
1066.83
998.339
984.05
949.212
911.427
871.75
829.829
789.695
753.591
724.875
711.598
715.729
730.939
764.681
803.809
811.235
773.428
835.095
920.747
976.546
1073.24
1242.02
1371.31
1423.44
1418.92
1336.25
1134.18
852.083
718.786
852.162
1064.18
1151.27
1173.63
1169.26
1173.77
1174.64
1161.55
1141.37
1108.5
1057.81
1010.76
983.067
982.656
946.85
909.561
871.935
832.866
797.107
765.685
734.113
710.055
712.765
730.111
754.163
792.967
843.78
866.531
858.553
884.649
918.319
940.647
960.579
1003.42
1081.76
1157.64
1176.22
1095.74
892.463
710.266
795.958
1002.28
1100.07
1121.61
1114.37
1109.88
1099.77
1075.03
1040.45
1001.6
967.933
959.514
975.653
981.711
944.94
906.519
868.481
828.35
787.614
750.52
716.073
679.716
670.897
689.931
730.216
791.266
863.338
919.898
919.031
913.762
969.071
966.137
940.464
931.689
925.455
911.81
905.654
881.58
766.056
599.496
631.41
833.723
953.265
983.338
978.483
967.807
951.176
927.764
907.601
900.976
912.57
936.273
974.079
981.071
944.002
903.425
862.202
821.623
777.871
741.295
706.597
662.28
639.311
645.926
677.728
750.902
853.89
937.797
995.635
982.878
980.024
1013.61
991.364
958.17
923.814
887.034
844.463
782.823
675.454
506.641
443.834
577.631
703.974
755.509
775.162
786.407
796.36
808.546
828.566
857.358
888.934
929.032
973.373
980.068
941.007
897.911
852.387
812.373
769.163
730.497
693.91
644.337
623.631
628.281
644.231
704.528
834.888
954.718
1032.65
1061.73
1030.07
1041.78
1038.04
1000.06
960.543
915.832
862.05
793.383
689.211
526.575
431.388
482.073
570.917
626.714
663.85
699.45
735.389
770.033
803.668
841.049
884.265
928.695
973.406
979.359
937.793
892.313
844.964
803.577
760.86
715.914
680.199
638.693
595.117
589.336
598.373
636.164
803.334
972.154
1062.42
1108.34
1080.86
1061.44
1071.58
1040.13
1001.26
956.302
901.455
832.757
733.353
578.668
476.298
485.481
549.464
603.733
642.476
680.07
718.502
756.96
797.654
840.515
884.918
929.278
973.628
974.566
922.757
872.914
829.66
789.798
750.453
708.571
675.375
644.599
603.675
582.313
582.094
597.481
710.895
962.444
1088.94
1141.95
1124.82
1091.03
1093.85
1071.74
1034.72
992.225
938.666
871.237
776.579
629.474
533.628
507.24
545.229
597.942
637.656
677.041
717.849
758.385
799.732
842.196
885.731
929.783
973.913
972.555
930.043
902.296
866.258
823.642
782.544
743.764
710.78
685.802
656.402
625.717
585.557
572.403
655.096
973.904
1150.5
1211.05
1192.28
1136.51
1124.17
1104.15
1064.4
1020.54
966.757
900.199
809.078
668.503
582.985
532.18
546.885
598.46
639.569
679.142
719.809
760.22
800.949
842.828
885.816
929.935
974.147
969.316
900.351
836.557
791.821
753.584
730.92
714.282
695.951
680.4
659.421
619.613
570.553
562.137
631.991
943.981
1137.75
1196.78
1182.22
1141.83
1129.26
1116.37
1079.68
1041.07
990.323
922.372
831.22
696.25
620.475
554.322
548.203
598.01
640.537
680.34
720.842
761.024
801.436
843.045
885.744
930.115
974.661
991.264
940.447
898.416
883.684
858.059
832.595
805.88
769.316
728.983
688.929
630.523
566.262
553.7
622.611
950.629
1151.45
1200.4
1188.2
1153.71
1137.52
1145.25
1152.32
1132.04
1072.77
986.937
877.468
724.835
646.097
569.66
548.663
596.752
640.27
680.359
720.932
761.199
801.662
843.208
885.725
930.388
975.418
)
;

boundaryField
{
    inlet
    {
        type            fixedValue;
        value           uniform 10000;
    }
    outlet
    {
        type            fixedValue;
        value           uniform 1000;
    }
    obstacle
    {
        type            zeroGradient;
    }
    empty
    {
        type            empty;
    }
}


// ************************************************************************* //
