/*--------------------------------*- C++ -*----------------------------------*\
| =========                 |                                                 |
| \\      /  F ield         | OpenFOAM: The Open Source CFD Toolbox           |
|  \\    /   O peration     | Version:  v1912                                 |
|   \\  /    A nd           | Website:  www.openfoam.com                      |
|    \\/     M anipulation  |                                                 |
\*---------------------------------------------------------------------------*/
FoamFile
{
    version     2.0;
    format      ascii;
    class       volVectorField;
    location    "6.28";
    object      grad(rho);
}
// * * * * * * * * * * * * * * * * * * * * * * * * * * * * * * * * * * * * * //

dimensions      [1 -4 0 0 0 0 0];


internalField   nonuniform List<vector> 
1900
(
(114339 -0.314988 0)
(-115108 -0.39163 0)
(-7060.61 0.0586985 0)
(-2272.14 1.23785 0)
(-2006.75 4.79 0)
(-1130.27 4.47779 0)
(-404.57 5.4011 0)
(-36.7763 -0.792001 0)
(81.1969 49.7694 0)
(906.147 11.3556 0)
(114338 -0.63127 0)
(-115108 -0.507804 0)
(-7058.98 0.464303 0)
(-2267.41 2.4463 0)
(-2003.51 7.78566 0)
(-1129.65 5.1512 0)
(-409.84 0.436131 0)
(7.59203 -11.9201 0)
(93.3445 4.00858 0)
(-59.0583 -58.5907 0)
(114338 -2.65743e-08 0)
(-115107 1.01252e-09 0)
(-7057.65 -5.86198e-10 0)
(-2264.82 -4.26326e-09 0)
(-2004.05 -1.09068e-08 0)
(-1137.61 -1.42286e-08 0)
(-421.642 -9.3614e-09 0)
(-33.2038 1.18128e-08 0)
(34.5262 1.59694e-08 0)
(-220.943 1.45661e-08 0)
(114338 0.63127 0)
(-115108 0.507804 0)
(-7058.98 -0.464303 0)
(-2267.41 -2.4463 0)
(-2003.51 -7.78566 0)
(-1129.65 -5.1512 0)
(-409.84 -0.436131 0)
(7.59203 11.9201 0)
(93.3445 -4.00858 0)
(-59.0583 58.5907 0)
(114339 0.314988 0)
(-115108 0.39163 0)
(-7060.61 -0.0586984 0)
(-2272.14 -1.23785 0)
(-2006.75 -4.79 0)
(-1130.27 -4.47779 0)
(-404.57 -5.4011 0)
(-36.7763 0.792001 0)
(81.1969 -49.7694 0)
(906.147 -11.3556 0)
(-185.221 -784.803 1.26219e-11)
(-2418.49 -577.936 -1.49299e-11)
(-3737.18 -599.754 -1.87161e-11)
(-4047.5 -604.501 0)
(-26096.7 -7388.35 -7.73019e-11)
(-693.319 -979.268 1.248e-11)
(-1774.84 -700.664 1.49299e-11)
(-3440.82 -672.022 1.87161e-11)
(-6581.93 -182.235 0)
(-24599.7 -6144.07 0)
(-992.144 1.44329e-08 0)
(-1759.57 1.06932e-08 0)
(-3232.04 1.13983e-08 0)
(-6213.25 1.48366e-08 0)
(-26801.2 1.78164e-08 0)
(-693.319 979.268 1.248e-11)
(-1774.84 700.664 1.49299e-11)
(-3440.82 672.022 1.87161e-11)
(-6581.93 182.235 0)
(-24599.7 6144.07 0)
(-185.221 784.803 -3.75819e-11)
(-2418.49 577.936 -1.49299e-11)
(-3737.18 599.754 -1.87161e-11)
(-4047.5 604.501 -4.97173e-11)
(-26096.7 7388.35 7.73019e-11)
(-44330.9 14622.1 1.78252e-11)
(-17050.4 6390.33 -1.01704e-11)
(-8525.95 3450.35 0)
(-2252.08 1833.62 4.83912e-12)
(-1009.15 1705.28 -2.14989e-12)
(-39817.6 18962.8 -9.1328e-12)
(-19440.7 5549.25 5.18142e-12)
(-9694.74 2282.74 0)
(-2685.22 844.173 -3.06532e-12)
(-815.058 916.944 5.57215e-13)
(-41361.5 5.24833e-09 0)
(-21276.6 1.17665e-09 0)
(-10074.4 -2.63164e-10 0)
(-2772.1 2.08983e-09 1.2363e-12)
(-855.185 1.24657e-09 -1.11443e-12)
(-39817.6 -18962.8 -9.1328e-12)
(-19440.7 -5549.25 5.18142e-12)
(-9694.74 -2282.74 0)
(-2685.22 -844.173 -3.06532e-12)
(-815.058 -916.944 5.57215e-13)
(-44330.9 -14622.1 9.1328e-12)
(-17050.4 -6390.33 -1.92456e-13)
(-8525.95 -3450.35 0)
(-2252.08 -1833.62 5.52225e-14)
(-1009.15 -1705.28 2.14989e-12)
(-2981.28 1127.34 0)
(-3243.93 -1171.54 0)
(-790.003 -3486.97 0)
(3666.44 -4018.01 0)
(5726.68 -1457.12 0)
(3523.84 1056.57 0)
(1004.68 1178.32 0)
(-359.836 1171.26 0)
(-1523.67 864.227 0)
(-2327.48 535.271 0)
(-2798.38 346.103 0)
(-2547.98 201.449 0)
(-1616.72 82.716 0)
(-858.199 27.4529 0)
(-583.82 12.2355 0)
(-505.979 10.7147 0)
(-452.945 16.2814 0)
(-371.294 7.27251 0)
(-254.998 0.640549 0)
(-151.27 -1.49258 0)
(-89.6578 -1.66525 0)
(-62.9517 -1.42062 0)
(-52.0346 -1.25206 0)
(-44.3292 -1.26171 0)
(-34.3293 -1.41677 0)
(-22.3052 -1.62798 0)
(-7.97265 -1.72246 0)
(9.67928 -1.83996 0)
(28.0605 -1.93467 0)
(41.4983 -1.80537 0)
(57.7779 -1.91349 0)
(72.9453 -1.62334 0)
(108.907 -2.341 0)
(159.99 0.193801 0)
(227.419 -0.265292 0)
(269.011 3.61675 0)
(487.157 -0.656117 0)
(1165.44 -10.84 0)
(548.449 -14.7498 0)
(6379.23 -35.9683 0)
(-3260.27 1517.81 0)
(-4010.67 166.216 0)
(-1319.12 -527.611 0)
(3614.33 -1571.28 0)
(6277.39 -1005.61 0)
(3957.62 716.102 0)
(1044.38 743.28 0)
(-456.872 604.13 0)
(-1676.57 370.868 0)
(-2426.26 211.635 0)
(-2847.85 153.796 0)
(-2578.42 98.8452 0)
(-1633.57 37.1003 0)
(-864.282 11.6973 0)
(-585.487 5.31124 0)
(-505.498 3.29922 0)
(-453.086 7.07973 0)
(-372.86 2.78621 0)
(-255.733 -0.0079108 0)
(-151.406 -0.758758 0)
(-89.6296 -0.733278 0)
(-62.9113 -0.607074 0)
(-52.0196 -0.535063 0)
(-44.3452 -0.550661 0)
(-34.3657 -0.634503 0)
(-22.3343 -0.749141 0)
(-7.99222 -0.800347 0)
(9.65409 -0.869615 0)
(28.0576 -0.947507 0)
(41.4943 -0.914833 0)
(57.7934 -0.988847 0)
(72.8862 -0.871128 0)
(109.06 -1.26927 0)
(160.149 -0.171305 0)
(227.731 -0.423472 0)
(269.116 1.50511 0)
(485.674 -0.455684 0)
(1163.15 -3.9226 0)
(543.926 -10.291 0)
(6388.76 -27.1911 0)
(-3145.46 1.52363e-08 0)
(-3838.97 -4.27456e-08 0)
(-1295.46 -1.72613e-07 0)
(3527.39 -8.50713e-08 0)
(6392.11 3.26091e-07 0)
(4032.61 2.55795e-08 0)
(972.11 8.71513e-07 0)
(-468.174 1.41981e-06 0)
(-1637.85 5.64478e-07 0)
(-2390.63 9.01097e-09 0)
(-2831.2 -9.4478e-08 0)
(-2581.92 -7.45505e-08 0)
(-1642.07 -4.17605e-08 0)
(-867.446 -3.50911e-08 0)
(-586.263 -1.53574e-08 0)
(-505.465 1.2596e-09 0)
(-453.094 -4.96572e-09 0)
(-373.356 -2.25274e-09 0)
(-256.029 1.03109e-08 0)
(-151.481 1.09811e-08 0)
(-89.6137 1.12153e-08 0)
(-62.894 1.41866e-08 0)
(-52.0182 1.54139e-08 0)
(-44.3581 9.93952e-09 0)
(-34.3871 4.5943e-09 0)
(-22.3534 2.77758e-09 0)
(-8.00769 2.72106e-09 0)
(9.63647 4.01295e-09 0)
(28.0474 1.14091e-08 0)
(41.4863 1.31854e-08 0)
(57.7906 7.48492e-09 0)
(72.8637 -3.43967e-09 0)
(109.11 -8.42962e-09 0)
(160.237 1.22246e-08 0)
(227.907 -1.15463e-09 0)
(269.002 -2.81633e-08 0)
(485.578 -2.94552e-08 0)
(1162.58 3.29999e-08 0)
(541.68 1.10352e-07 0)
(6390.32 1.79444e-07 0)
(-3260.27 -1517.81 0)
(-4010.67 -166.216 0)
(-1319.12 527.611 0)
(3614.33 1571.28 0)
(6277.39 1005.61 0)
(3957.62 -716.102 0)
(1044.38 -743.28 0)
(-456.872 -604.13 0)
(-1676.57 -370.868 0)
(-2426.26 -211.635 0)
(-2847.85 -153.796 0)
(-2578.42 -98.8452 0)
(-1633.57 -37.1003 0)
(-864.282 -11.6973 0)
(-585.487 -5.31124 0)
(-505.498 -3.29922 0)
(-453.086 -7.07973 0)
(-372.86 -2.78621 0)
(-255.733 0.00791081 0)
(-151.406 0.758758 0)
(-89.6296 0.733278 0)
(-62.9113 0.607074 0)
(-52.0196 0.535063 0)
(-44.3452 0.550661 0)
(-34.3657 0.634503 0)
(-22.3343 0.749141 0)
(-7.99222 0.800347 0)
(9.65409 0.869615 0)
(28.0576 0.947507 0)
(41.4943 0.914833 0)
(57.7934 0.988847 0)
(72.8862 0.871128 0)
(109.06 1.26927 0)
(160.149 0.171305 0)
(227.731 0.423472 0)
(269.116 -1.50511 0)
(485.674 0.455684 0)
(1163.15 3.9226 0)
(543.926 10.291 0)
(6388.76 27.1911 0)
(-2981.28 -1127.34 0)
(-3243.93 1171.54 0)
(-790.003 3486.97 0)
(3666.44 4018.01 0)
(5726.68 1457.12 0)
(3523.84 -1056.57 0)
(1004.68 -1178.32 0)
(-359.836 -1171.26 0)
(-1523.67 -864.227 0)
(-2327.48 -535.271 0)
(-2798.38 -346.103 0)
(-2547.98 -201.449 0)
(-1616.72 -82.716 0)
(-858.199 -27.4529 0)
(-583.82 -12.2355 0)
(-505.979 -10.7147 0)
(-452.945 -16.2814 0)
(-371.294 -7.27251 0)
(-254.998 -0.640549 0)
(-151.27 1.49258 0)
(-89.6578 1.66525 0)
(-62.9517 1.42062 0)
(-52.0346 1.25206 0)
(-44.3292 1.26171 0)
(-34.3293 1.41677 0)
(-22.3052 1.62798 0)
(-7.97265 1.72246 0)
(9.67928 1.83996 0)
(28.0605 1.93467 0)
(41.4983 1.80537 0)
(57.7779 1.91349 0)
(72.9453 1.62334 0)
(108.907 2.341 0)
(159.99 -0.193801 0)
(227.419 0.265292 0)
(269.011 -3.61675 0)
(487.157 0.656117 0)
(1165.44 10.84 0)
(548.449 14.7498 0)
(6379.23 35.9683 0)
(-2252.74 1119.99 0)
(-2002.77 2475.73 0)
(-145.399 4238.32 0)
(2280.81 3896.11 0)
(3731 1254.58 0)
(2806.05 -732.228 0)
(1018.34 -1017.96 0)
(-372.048 -1181.04 0)
(-1454.43 -1023.94 0)
(-2215.46 -766.188 0)
(-2695.65 -582.213 0)
(-2448.4 -374.426 0)
(-1543.92 -156.571 0)
(-827.105 -49.7177 0)
(-576.916 -23.9763 0)
(-507.479 -23.9021 0)
(-451.089 -26.4973 0)
(-364.859 -13.9723 0)
(-251.086 -2.60105 0)
(-150.118 2.1441 0)
(-89.642 2.8621 0)
(-63.1239 2.47151 0)
(-52.1021 2.16765 0)
(-44.2604 2.1915 0)
(-34.1779 2.46999 0)
(-22.1763 2.8257 0)
(-7.88189 3.03067 0)
(9.75809 3.25361 0)
(28.0324 3.34641 0)
(41.4765 3.13774 0)
(57.6973 3.23446 0)
(73.086 2.87803 0)
(108.096 3.63926 0)
(159.031 0.0534996 0)
(225.944 -1.06927 0)
(269.482 -6.30423 0)
(493.027 3.64138 0)
(1169.34 17.9307 0)
(554.458 20.0177 0)
(6353.73 25.6911 0)
(-1142.43 -20.601 0)
(-904.548 764.377 0)
(233.074 1614.51 0)
(1534.21 1441.82 0)
(2336.8 306.521 0)
(1718.84 -851.869 0)
(564.87 -1247.57 0)
(-359.047 -1466.46 0)
(-1161.03 -1290.87 0)
(-1961.89 -1069.88 0)
(-2475.96 -869.656 0)
(-2191.21 -550.503 0)
(-1342.85 -218.977 0)
(-747.099 -72.9291 0)
(-562.646 -42.0095 0)
(-507.604 -40.3366 0)
(-444.371 -36.2553 0)
(-351.718 -20.5144 0)
(-241.566 -4.90273 0)
(-146.623 2.81526 0)
(-89.3507 4.51925 0)
(-63.5286 4.15542 0)
(-52.2682 3.75348 0)
(-44.0748 3.81815 0)
(-33.7994 4.24556 0)
(-21.834 4.752 0)
(-7.60896 5.11497 0)
(9.94127 5.48456 0)
(27.964 5.50762 0)
(41.4021 5.19147 0)
(57.5708 5.2806 0)
(73.2599 4.87762 0)
(106.619 5.69727 0)
(155.968 1.43751 0)
(222.084 -2.17622 0)
(273.298 -7.83666 0)
(507.363 7.32976 0)
(1179.13 25.2865 0)
(552.705 24.8711 0)
(6320.11 12.2557 0)
(-1673 -217.537 0)
(-427.124 46.9367 0)
(507.404 195.792 0)
(1020.39 136.242 0)
(1520.72 -406.076 0)
(1308.47 -1099.2 0)
(426.099 -1425.51 0)
(-413.779 -1421.63 0)
(-1072.28 -1347.39 0)
(-1809.56 -1265.24 0)
(-2195.16 -1055.5 0)
(-1821.38 -622.901 0)
(-1083.71 -238.242 0)
(-656.573 -94.1397 0)
(-545.508 -63.6121 0)
(-501.934 -56.6623 0)
(-431.988 -45.0104 0)
(-334.647 -25.0334 0)
(-228.604 -6.10558 0)
(-141.038 4.00933 0)
(-88.3506 6.80521 0)
(-63.8618 6.68615 0)
(-52.4271 6.30308 0)
(-43.7862 6.43529 0)
(-33.278 6.98024 0)
(-21.3385 7.58904 0)
(-7.17597 8.10653 0)
(10.1365 8.5678 0)
(27.75 8.40106 0)
(41.2577 7.88493 0)
(57.3948 7.92279 0)
(73.4876 7.43426 0)
(104.781 8.23426 0)
(151.444 3.4781 0)
(217.007 -1.89455 0)
(278.642 -7.20354 0)
(524.945 9.30788 0)
(1186.25 30.0033 0)
(541.901 27.5669 0)
(6291.39 11.5023 0)
(-1615.87 -460.537 0)
(-506.249 179.459 0)
(319.132 -201.35 0)
(954.232 -360.253 0)
(1146.28 -858.475 0)
(736.473 -1229.88 0)
(254.162 -1466.91 0)
(-283.763 -1420.36 0)
(-1010.32 -1406.95 0)
(-1680.61 -1349.06 0)
(-1856.98 -1071.75 0)
(-1403.67 -577.707 0)
(-833.32 -229.625 0)
(-578.819 -113.27 0)
(-526.532 -84.312 0)
(-489.679 -70.0661 0)
(-413.892 -50.5607 0)
(-314.228 -26.1277 0)
(-213.579 -4.94041 0)
(-134.182 6.54889 0)
(-86.7713 10.1081 0)
(-64.0124 10.3033 0)
(-52.5099 10.0354 0)
(-43.4223 10.2409 0)
(-32.6876 10.8337 0)
(-20.7487 11.4735 0)
(-6.66579 12.0503 0)
(10.2251 12.3998 0)
(27.3059 11.944 0)
(40.9412 11.1159 0)
(57.1365 10.8997 0)
(73.56 10.2406 0)
(102.807 10.6161 0)
(146.207 5.95187 0)
(211.791 -0.312244 0)
(284.093 -4.5075 0)
(543.217 9.70908 0)
(1196.72 30.613 0)
(534.877 30.6358 0)
(6248.2 18.595 0)
(-1686.9 -928.913 0)
(-177.361 -216.503 0)
(-12.6822 -532.109 0)
(387.156 -701.714 0)
(682.717 -1134.61 0)
(722.155 -1179.06 0)
(242.54 -1241.44 0)
(-355.994 -1360.84 0)
(-1003.56 -1426.55 0)
(-1486.55 -1317.98 0)
(-1451.86 -945.444 0)
(-1009.88 -471.777 0)
(-636.161 -211.912 0)
(-516.544 -125.143 0)
(-503.876 -97.9679 0)
(-469.41 -77.0452 0)
(-389.647 -50.6432 0)
(-290.685 -23.0019 0)
(-197.116 -0.47887 0)
(-126.537 11.5287 0)
(-84.7327 15.5004 0)
(-63.9319 15.9843 0)
(-52.4872 15.8657 0)
(-43.0169 16.1388 0)
(-32.0903 16.7327 0)
(-20.1661 17.3502 0)
(-6.28329 17.8603 0)
(10.034 17.9106 0)
(26.5127 17.1513 0)
(40.2515 15.9713 0)
(56.5514 15.3902 0)
(73.2142 14.4876 0)
(100.649 14.3472 0)
(140.913 10.1002 0)
(206.928 4.0916 0)
(288.299 0.952723 0)
(558.789 13.7418 0)
(1206.41 31.2233 0)
(530.32 32.7426 0)
(6210.42 25.2533 0)
(-2567.17 -1045.42 0)
(-123.874 -733.67 0)
(-148.436 -902.84 0)
(373.642 -905.017 0)
(686.293 -832.511 0)
(633.521 -947.899 0)
(78.9971 -1158.73 0)
(-462.136 -1293.17 0)
(-969.027 -1339.83 0)
(-1217.01 -1147.09 0)
(-1041.55 -738.401 0)
(-696.815 -367.332 0)
(-499.291 -194.333 0)
(-469.018 -133.214 0)
(-480.183 -107.022 0)
(-444.075 -79.418 0)
(-361.814 -46.9055 0)
(-265.887 -16.4567 0)
(-180.304 6.32861 0)
(-118.784 18.2662 0)
(-82.4777 22.4147 0)
(-63.6604 23.1605 0)
(-52.3611 23.2067 0)
(-42.5867 23.5289 0)
(-31.5202 24.0666 0)
(-19.6621 24.573 0)
(-6.12577 24.8453 0)
(9.54189 24.3702 0)
(25.4371 23.1941 0)
(39.2442 21.5377 0)
(55.7068 20.4094 0)
(72.5549 19.0688 0)
(98.5791 18.2719 0)
(136.324 14.3818 0)
(202.976 9.03764 0)
(293.392 6.56895 0)
(572.387 19.2319 0)
(1215.03 31.9842 0)
(529.124 28.7162 0)
(6170.73 23.9372 0)
(-3403.83 -791.754 0)
(-39.9643 -612.022 0)
(-177.798 -694.602 0)
(454.927 -725.62 0)
(641.394 -564.52 0)
(407.799 -904.595 0)
(-90.1763 -1092.65 0)
(-530.512 -1193.77 0)
(-862.792 -1164.98 0)
(-906.984 -899.016 0)
(-700.457 -537.937 0)
(-485.596 -288.376 0)
(-410.557 -175.752 0)
(-432.408 -134.412 0)
(-452.036 -108.138 0)
(-411.48 -74.6245 0)
(-328.976 -38.1601 0)
(-239.387 -5.11703 0)
(-163.656 16.8648 0)
(-111.036 28.2195 0)
(-80.0164 32.3055 0)
(-63.1687 33.2196 0)
(-52.1322 33.38 0)
(-42.1882 33.6863 0)
(-31.0842 34.0928 0)
(-19.4158 34.4126 0)
(-6.47868 34.2337 0)
(8.44283 33.0676 0)
(23.7832 31.4408 0)
(37.568 29.1951 0)
(54.1723 27.3723 0)
(71.1545 25.4137 0)
(96.1321 23.8917 0)
(132.015 20.1561 0)
(199.399 15.6648 0)
(298.123 13.4388 0)
(583.28 26.8573 0)
(1215.55 35.6694 0)
(522.565 27.4216 0)
(6139.59 24.2861 0)
(-3923.83 -424.953 0)
(-30.2543 -375.861 0)
(-257.903 -458.153 0)
(498.993 -579.191 0)
(513.827 -495.381 0)
(124.597 -873.839 0)
(-199.666 -1003.65 0)
(-531.834 -1048.66 0)
(-684.988 -927.013 0)
(-612.767 -643.957 0)
(-453.112 -381.187 0)
(-347.8 -227.05 0)
(-350.925 -157.916 0)
(-403.862 -130.604 0)
(-422.57 -102.898 0)
(-376.642 -64.5347 0)
(-294.834 -25.616 0)
(-212.863 6.62723 0)
(-148.18 27.5093 0)
(-103.904 38.0131 0)
(-77.6595 41.9842 0)
(-62.625 43.0888 0)
(-51.9113 43.4255 0)
(-41.8999 43.8071 0)
(-30.8204 44.2075 0)
(-19.5263 44.3815 0)
(-7.42181 43.6841 0)
(6.8505 42.1097 0)
(21.7054 40.1784 0)
(35.3236 37.5795 0)
(52.063 35.2356 0)
(69.2009 32.872 0)
(93.5127 30.9036 0)
(128.397 27.5751 0)
(196.503 24.1305 0)
(304.178 21.6086 0)
(593.809 35.2173 0)
(1215.57 42.2967 0)
(518.155 33.1825 0)
(6092.91 29.5698 0)
(-4228.95 -185.677 0)
(-71.9575 -221.701 0)
(-373.734 -301.38 0)
(419.053 -461.618 0)
(357.46 -580.834 0)
(-81.9878 -788.217 0)
(-258.64 -885.043 0)
(-456.662 -849.531 0)
(-472.804 -666.843 0)
(-381.006 -437.896 0)
(-298.711 -269.002 0)
(-270.443 -178.461 0)
(-317.618 -142.765 0)
(-379.391 -124.062 0)
(-388.369 -93.5947 0)
(-337.008 -51.3548 0)
(-260.401 -9.61531 0)
(-188.194 20.272 0)
(-133.411 39.7483 0)
(-97.0876 49.3378 0)
(-75.1253 53.1837 0)
(-61.7798 54.4481 0)
(-51.44 54.9101 0)
(-41.4346 55.2938 0)
(-30.5306 55.5476 0)
(-19.9201 55.3148 0)
(-8.6679 54.1594 0)
(5.06456 52.378 0)
(19.4177 49.8967 0)
(32.8049 47.025 0)
(49.6359 44.3283 0)
(66.98 41.6656 0)
(91.0279 39.498 0)
(125.488 36.6303 0)
(193.649 34.2344 0)
(308.806 30.9731 0)
(603.216 43.5899 0)
(1213.59 52.1267 0)
(510.301 39.8574 0)
(6038.01 35.523 0)
(-4389.3 -87.15 0)
(-141.75 -152.661 0)
(-489.096 -240.25 0)
(229.701 -391.4 0)
(199.104 -664.656 0)
(-168.55 -698.527 0)
(-258.75 -725.446 0)
(-321.568 -610.364 0)
(-288.322 -436.051 0)
(-229.393 -291.552 0)
(-203.11 -192.269 0)
(-226.153 -144.886 0)
(-298.505 -129.901 0)
(-356.48 -112.671 0)
(-352.506 -77.6711 0)
(-295.716 -33.7953 0)
(-225.812 5.58148 0)
(-165.295 33.3291 0)
(-120.171 50.3234 0)
(-90.9576 58.7842 0)
(-72.7351 62.5055 0)
(-60.9614 64.1332 0)
(-51.0963 65.0827 0)
(-41.2856 65.8739 0)
(-30.8001 66.3352 0)
(-20.864 66.108 0)
(-10.2518 65.1397 0)
(2.74274 63.5819 0)
(16.5469 60.8311 0)
(29.9578 57.9925 0)
(46.8985 55.3532 0)
(64.5462 52.8364 0)
(88.6605 50.9396 0)
(123.324 48.8664 0)
(191.052 47.7801 0)
(313.193 44.7593 0)
(614.193 57.4982 0)
(1211.98 68.9618 0)
(502.155 54.0624 0)
(5958.85 48.8974 0)
(-4490.68 -101.259 0)
(-219.491 -144.781 0)
(-603.792 -242.883 0)
(10.0812 -380.424 0)
(61.5012 -624.832 0)
(-140.567 -571.895 0)
(-173.683 -504.425 0)
(-177.791 -385.16 0)
(-165.585 -271.315 0)
(-146.089 -187.379 0)
(-157.378 -132.95 0)
(-210.343 -115.278 0)
(-286.574 -112.271 0)
(-329.061 -95.3791 0)
(-312.362 -54.7828 0)
(-256.783 -9.42989 0)
(-195.718 24.9388 0)
(-145.079 49.8478 0)
(-108.882 64.2433 0)
(-85.3484 71.6379 0)
(-69.9709 75.1964 0)
(-59.2963 77.0055 0)
(-49.7626 78.1903 0)
(-40.2276 79.1347 0)
(-30.3051 79.6334 0)
(-21.0722 79.4714 0)
(-11.1021 78.6925 0)
(0.912587 77.3519 0)
(14.0316 74.6252 0)
(27.5262 71.9508 0)
(44.6673 69.5993 0)
(62.7269 67.4599 0)
(87.2022 66.1578 0)
(122.443 64.9942 0)
(189.692 65.2719 0)
(318.171 63.5196 0)
(626.538 75.9673 0)
(1210.28 89.1422 0)
(490.966 69.2105 0)
(5856.87 65.2487 0)
(-4632.06 -133.917 0)
(-278.225 -139.645 0)
(-716.17 -247.809 0)
(-138.359 -370.647 0)
(14.5959 -431.055 0)
(-52.5205 -367.055 0)
(-78.8055 -284.748 0)
(-96.9351 -218.042 0)
(-97.7341 -158.67 0)
(-96.0589 -114.463 0)
(-133.63 -90.155 0)
(-206.226 -89.4568 0)
(-279.33 -89.3627 0)
(-301.083 -66.7874 0)
(-269.682 -25.3826 0)
(-218.894 15.9147 0)
(-168.69 46.9813 0)
(-127.42 67.9366 0)
(-99.1733 79.5639 0)
(-80.4028 85.5894 0)
(-67.5627 88.982 0)
(-58.0764 91.3966 0)
(-49.0445 93.3938 0)
(-39.8949 94.939 0)
(-30.4756 95.7595 0)
(-21.7708 95.7989 0)
(-12.2943 95.099 0)
(-1.17662 93.7196 0)
(11.3423 90.9779 0)
(25.1146 88.5549 0)
(42.5709 86.5396 0)
(61.2299 84.9163 0)
(86.2845 84.3914 0)
(122.471 84.3043 0)
(189.631 86.0688 0)
(323.499 86.1378 0)
(638.884 98.6689 0)
(1205.47 111.566 0)
(479.13 84.6532 0)
(5725.91 79.9043 0)
(-4771.81 -77.4206 0)
(-329.242 -72.0833 0)
(-826.394 -185.123 0)
(-166.501 -262.021 0)
(64.9622 -215.491 0)
(0.419304 -184.102 0)
(-30.0891 -142.785 0)
(-56.2974 -107.721 0)
(-65.7728 -71.4331 0)
(-80.0659 -52.6995 0)
(-133.281 -53.5767 0)
(-209.579 -65.1962 0)
(-264.729 -58.3704 0)
(-267.407 -22.477 0)
(-232.667 19.7633 0)
(-187.05 56.9022 0)
(-145.588 86.9783 0)
(-113.681 106.794 0)
(-91.8708 118.577 0)
(-76.2728 125.014 0)
(-64.3749 128.351 0)
(-55.0449 129.783 0)
(-46.3489 129.905 0)
(-37.9479 129.139 0)
(-29.4764 127.738 0)
(-21.7087 126.078 0)
(-13.1058 123.995 0)
(-3.05861 121.563 0)
(9.05466 118.256 0)
(23.2493 116.008 0)
(41.1611 114.084 0)
(60.6569 112.807 0)
(86.6124 113 0)
(124.06 113.987 0)
(191.458 117.036 0)
(330.313 119.603 0)
(651.041 132.772 0)
(1196.77 142.224 0)
(460.456 104.759 0)
(5577.78 102.37 0)
(-4791.41 3.54534 0)
(-382.011 -3.03256 0)
(-899.201 -76.165 0)
(-167.623 -98.7982 0)
(89.6819 -66.9635 0)
(17.5425 -57.8351 0)
(-5.20177 -35.5882 0)
(-28.1783 -18.7159 0)
(-44.7137 0.837522 0)
(-78.8518 1.04629 0)
(-145.673 -13.5497 0)
(-210.846 -20.8469 0)
(-238.164 -0.526358 0)
(-225.791 38.6617 0)
(-193.189 81.0736 0)
(-154.123 117.901 0)
(-120.613 146.553 0)
(-96.9697 165.745 0)
(-81.6157 177.304 0)
(-70.9849 183.302 0)
(-62.9672 186.036 0)
(-56.5784 186.54 0)
(-49.6644 184.937 0)
(-41.9828 181.524 0)
(-33.426 177.111 0)
(-25.3785 172.791 0)
(-16.6451 168.524 0)
(-6.70692 164.817 0)
(5.98965 161.228 0)
(21.0953 159.111 0)
(39.4863 157.535 0)
(60.1848 157.335 0)
(87.4214 159.119 0)
(126.36 162.1 0)
(195.042 167.533 0)
(338.663 174.088 0)
(660.683 188.553 0)
(1178.47 190.628 0)
(440.726 137.131 0)
(5398.58 135.823 0)
(-4772.08 72.6484 0)
(-406.053 68.1768 0)
(-918.678 49.9993 0)
(-157.634 49.3173 0)
(104.436 71.4057 0)
(30.6537 77.892 0)
(7.6076 92.6517 0)
(-21.1963 94.972 0)
(-46.7292 96.7275 0)
(-93.9299 80.7827 0)
(-154.378 65.0178 0)
(-197.029 70.3087 0)
(-207.384 96.4666 0)
(-188.774 132.373 0)
(-156.309 168.803 0)
(-123.952 199.585 0)
(-99.4832 221.856 0)
(-84.0487 237.026 0)
(-74.9521 246.888 0)
(-67.8582 252.642 0)
(-61.2555 255.096 0)
(-56.1034 254.767 0)
(-51.1819 252.612 0)
(-45.4897 249.683 0)
(-37.892 246.65 0)
(-29.9832 244.371 0)
(-20.7904 242.153 0)
(-10.0892 240.975 0)
(3.55662 239.364 0)
(19.6904 237.161 0)
(39.4501 236.023 0)
(62.1831 236.719 0)
(91.2034 239.879 0)
(132.168 245.308 0)
(203.011 254.064 0)
(350.568 265.92 0)
(666.98 281.518 0)
(1147.22 270.016 0)
(407.644 187.308 0)
(5184.94 180.752 0)
(-4637.38 168.898 0)
(-403.837 196.472 0)
(-917.375 260.521 0)
(-146.995 259.735 0)
(117.218 270.731 0)
(38.016 260.809 0)
(11.2571 256.58 0)
(-24.2507 241.288 0)
(-58.3869 222.025 0)
(-109.408 196.201 0)
(-155.766 182.017 0)
(-180.541 187.973 0)
(-178.357 206.796 0)
(-156.085 231.159 0)
(-128.421 251.483 0)
(-102.999 265.222 0)
(-84.5337 272.097 0)
(-72.848 275.229 0)
(-66.5674 277.506 0)
(-63.0754 280.616 0)
(-60.9188 285.257 0)
(-58.9721 291.521 0)
(-54.5635 299.485 0)
(-47.7279 308.789 0)
(-38.5455 318.076 0)
(-29.7123 328.106 0)
(-19.9169 336.861 0)
(-9.39386 347.338 0)
(2.31411 355.804 0)
(17.8754 363.537 0)
(39.0601 371.634 0)
(63.9006 380.104 0)
(95.6986 390.275 0)
(140.029 401.761 0)
(214.904 415.716 0)
(365.119 431.906 0)
(664.63 436.225 0)
(1087.69 381.694 0)
(354.708 236.807 0)
(4900.23 192.145 0)
(-4385.79 417.626 0)
(-317.762 291.323 0)
(-857.715 509.766 0)
(-147.795 513.345 0)
(105.471 509.613 0)
(17.0173 473.734 0)
(-11.203 445.245 0)
(-54.4951 405.594 0)
(-90.1771 364.541 0)
(-132.483 334.922 0)
(-162.307 324.484 0)
(-173.151 337.241 0)
(-165.768 364.056 0)
(-145.712 393.585 0)
(-123.485 417.252 0)
(-104.087 432.491 0)
(-89.8409 441.159 0)
(-78.837 446.674 0)
(-69.7606 452.162 0)
(-60.3886 460.891 0)
(-50.7474 476.03 0)
(-42.3926 497.916 0)
(-34.5414 523.878 0)
(-27.5756 550.335 0)
(-19.278 574.628 0)
(-11.8808 596.363 0)
(-2.25745 614.202 0)
(8.16453 631.901 0)
(19.1663 647.061 0)
(34.9451 664.05 0)
(55.4151 681.968 0)
(80.1457 699.791 0)
(112.073 717.799 0)
(156.684 732.645 0)
(232.06 742.332 0)
(370.332 741.86 0)
(618.593 695.92 0)
(955.055 528.588 0)
(224.988 238.359 0)
(4649.47 175.972 0)
(-4464.15 16342.8 0)
(-315.046 348.233 0)
(-703.426 644.652 0)
(-147.143 792.787 0)
(79.0463 757.965 0)
(-24.0109 714.251 0)
(-54.4044 677.458 0)
(-102.02 649.155 0)
(-126.489 631.349 0)
(-148.009 639.28 0)
(-153.532 666.184 0)
(-142.407 711.336 0)
(-124.061 764.956 0)
(-104.823 819.352 0)
(-90.9299 868.664 0)
(-79.9613 912.153 0)
(-70.8662 951.895 0)
(-62.2454 988.79 0)
(-52.8671 1022.61 0)
(-40.0755 1054.31 0)
(-25.2403 1087.41 0)
(-12.8635 1121.69 0)
(-4.05094 1153.08 0)
(1.17666 1179.89 0)
(5.80855 1203.92 0)
(8.42267 1225.57 0)
(14.3287 1238.04 0)
(22.2697 1248.9 0)
(33.2943 1254.99 0)
(51.5134 1260.64 0)
(73.5012 1264.06 0)
(98.429 1263.58 0)
(127.358 1259.43 0)
(163.67 1245.21 0)
(223.784 1215.65 0)
(320.395 1159.13 0)
(459.114 1022.17 0)
(646.764 713.25 0)
(14.914 99.7603 0)
(5143.87 12625.7 0)
(2057.9 441324 0)
(-15445.1 13084.7 0)
(-429.327 -355.001 0)
(-38.6025 -150.063 0)
(29.7913 -215.604 0)
(-60.5616 -223.9 0)
(-73.9322 -241.208 0)
(-98.9276 -211.623 0)
(-99.6927 -184.29 0)
(-98.9149 -126.327 0)
(-92.8715 -60.1581 0)
(-77.9711 11.9524 0)
(-61.68 81.2952 0)
(-45.7758 145.074 0)
(-34.0586 203.738 0)
(-23.883 258.249 0)
(-15.9903 307.916 0)
(-10.6915 350.757 0)
(-6.62745 385.572 0)
(2.05389 413.451 0)
(14.1826 440.902 0)
(20.889 467.868 0)
(21.5501 487.978 0)
(21.4157 500.869 0)
(24.7324 510.124 0)
(20.9992 519.219 0)
(20.2336 522.384 0)
(24.4958 526.928 0)
(30.4716 526.222 0)
(43.6915 524.329 0)
(58.2494 517.112 0)
(75.6763 508.131 0)
(94.3703 492.399 0)
(114.499 476.481 0)
(149.115 445.399 0)
(183.884 399.239 0)
(188.925 266.855 0)
(66.1917 19.0535 0)
(11704.2 10880.7 0)
(2023.61 372536 0)
(422490 -441228 0)
(-425933 1932.44 0)
(-13457 6623.95 0)
(-12.8149 6048.2 0)
(7.89473 5856.22 0)
(-48.6844 5921.37 0)
(-42.5739 5961.87 0)
(-47.1715 6048.97 0)
(-44.295 6160.8 0)
(-28.3912 6247.64 0)
(-20.2807 6331.64 0)
(-6.09784 6383.33 0)
(4.21935 6412.78 0)
(13.1674 6413.42 0)
(18.1298 6395.65 0)
(20.4288 6364.47 0)
(18.2776 6327.37 0)
(12.5864 6288.66 0)
(7.54688 6249.7 0)
(13.2429 6214.15 0)
(27.1981 6181.74 0)
(32.5006 6153.82 0)
(27.7506 6129.37 0)
(22.5169 6106.42 0)
(23.4905 6084.5 0)
(20.2372 6055.28 0)
(21.758 6029.91 0)
(25.9675 5986.85 0)
(30.7902 5943.87 0)
(42.7355 5874.91 0)
(57.892 5785.24 0)
(74.614 5661.62 0)
(96.858 5515.66 0)
(118.379 5337.3 0)
(149.351 5148.96 0)
(148.344 4899.7 0)
(92.7539 4707.84 0)
(10874.7 5211.05 0)
(358986 2892.4 0)
(-353689 -368317 0)
(422490 441228 0)
(-425933 -1932.44 0)
(-13457 -6623.95 0)
(-12.8149 -6048.2 0)
(7.89473 -5856.22 0)
(-48.6844 -5921.37 0)
(-42.5739 -5961.87 0)
(-47.1715 -6048.97 0)
(-44.295 -6160.8 0)
(-28.3912 -6247.64 0)
(-20.2807 -6331.64 0)
(-6.09784 -6383.33 0)
(4.21935 -6412.78 0)
(13.1674 -6413.42 0)
(18.1298 -6395.65 0)
(20.4288 -6364.47 0)
(18.2776 -6327.37 0)
(12.5864 -6288.66 0)
(7.54688 -6249.7 0)
(13.2429 -6214.15 0)
(27.1981 -6181.74 0)
(32.5006 -6153.82 0)
(27.7506 -6129.37 0)
(22.5169 -6106.42 0)
(23.4905 -6084.5 0)
(20.2372 -6055.28 0)
(21.758 -6029.91 0)
(25.9675 -5986.85 0)
(30.7902 -5943.87 0)
(42.7355 -5874.91 0)
(57.892 -5785.24 0)
(74.614 -5661.62 0)
(96.858 -5515.66 0)
(118.379 -5337.3 0)
(149.351 -5148.96 0)
(148.344 -4899.7 0)
(92.7539 -4707.84 0)
(10874.7 -5211.05 0)
(358986 -2892.4 0)
(-353689 368317 0)
(2057.9 -441324 0)
(-15445.1 -13084.7 0)
(-429.327 355.001 0)
(-38.6025 150.063 0)
(29.7913 215.604 0)
(-60.5616 223.9 0)
(-73.9322 241.208 0)
(-98.9276 211.623 0)
(-99.6927 184.29 0)
(-98.9149 126.327 0)
(-92.8715 60.1581 0)
(-77.9711 -11.9524 0)
(-61.68 -81.2952 0)
(-45.7758 -145.074 0)
(-34.0586 -203.738 0)
(-23.883 -258.249 0)
(-15.9903 -307.916 0)
(-10.6915 -350.757 0)
(-6.62745 -385.572 0)
(2.05389 -413.451 0)
(14.1826 -440.902 0)
(20.889 -467.868 0)
(21.5501 -487.978 0)
(21.4157 -500.869 0)
(24.7324 -510.124 0)
(20.9992 -519.219 0)
(20.2336 -522.384 0)
(24.4958 -526.928 0)
(30.4716 -526.222 0)
(43.6915 -524.329 0)
(58.2494 -517.112 0)
(75.6763 -508.131 0)
(94.3703 -492.399 0)
(114.499 -476.481 0)
(149.115 -445.399 0)
(183.884 -399.239 0)
(188.925 -266.855 0)
(66.1917 -19.0535 0)
(11704.2 -10880.7 0)
(2023.61 -372536 0)
(-4464.15 -16342.8 0)
(-315.046 -348.233 0)
(-703.426 -644.652 0)
(-147.143 -792.787 0)
(79.0463 -757.965 0)
(-24.0109 -714.251 0)
(-54.4044 -677.458 0)
(-102.02 -649.155 0)
(-126.489 -631.349 0)
(-148.009 -639.28 0)
(-153.532 -666.184 0)
(-142.407 -711.336 0)
(-124.061 -764.956 0)
(-104.823 -819.352 0)
(-90.9299 -868.664 0)
(-79.9613 -912.153 0)
(-70.8662 -951.895 0)
(-62.2454 -988.79 0)
(-52.8671 -1022.61 0)
(-40.0755 -1054.31 0)
(-25.2403 -1087.41 0)
(-12.8635 -1121.69 0)
(-4.05094 -1153.08 0)
(1.17666 -1179.89 0)
(5.80855 -1203.92 0)
(8.42267 -1225.57 0)
(14.3287 -1238.04 0)
(22.2697 -1248.9 0)
(33.2943 -1254.99 0)
(51.5134 -1260.64 0)
(73.5012 -1264.06 0)
(98.429 -1263.58 0)
(127.358 -1259.43 0)
(163.67 -1245.21 0)
(223.784 -1215.65 0)
(320.395 -1159.13 0)
(459.114 -1022.17 0)
(646.764 -713.25 0)
(14.914 -99.7603 0)
(5143.87 -12625.7 0)
(-4385.79 -417.626 0)
(-317.762 -291.323 0)
(-857.715 -509.766 0)
(-147.795 -513.345 0)
(105.471 -509.613 0)
(17.0173 -473.734 0)
(-11.203 -445.245 0)
(-54.4951 -405.594 0)
(-90.1771 -364.541 0)
(-132.483 -334.922 0)
(-162.307 -324.484 0)
(-173.151 -337.241 0)
(-165.768 -364.056 0)
(-145.712 -393.585 0)
(-123.485 -417.252 0)
(-104.087 -432.491 0)
(-89.8409 -441.159 0)
(-78.837 -446.674 0)
(-69.7606 -452.162 0)
(-60.3886 -460.891 0)
(-50.7474 -476.03 0)
(-42.3926 -497.916 0)
(-34.5414 -523.878 0)
(-27.5756 -550.335 0)
(-19.278 -574.628 0)
(-11.8808 -596.363 0)
(-2.25745 -614.202 0)
(8.16453 -631.901 0)
(19.1663 -647.061 0)
(34.9451 -664.05 0)
(55.4151 -681.968 0)
(80.1457 -699.791 0)
(112.073 -717.799 0)
(156.684 -732.645 0)
(232.06 -742.332 0)
(370.332 -741.86 0)
(618.593 -695.92 0)
(955.055 -528.588 0)
(224.988 -238.359 0)
(4649.47 -175.972 0)
(-4637.38 -168.898 0)
(-403.837 -196.472 0)
(-917.375 -260.521 0)
(-146.995 -259.735 0)
(117.218 -270.731 0)
(38.016 -260.809 0)
(11.2571 -256.58 0)
(-24.2507 -241.288 0)
(-58.3869 -222.025 0)
(-109.408 -196.201 0)
(-155.766 -182.017 0)
(-180.541 -187.973 0)
(-178.357 -206.796 0)
(-156.085 -231.159 0)
(-128.421 -251.483 0)
(-102.999 -265.222 0)
(-84.5337 -272.097 0)
(-72.848 -275.229 0)
(-66.5674 -277.506 0)
(-63.0754 -280.616 0)
(-60.9188 -285.257 0)
(-58.9721 -291.521 0)
(-54.5635 -299.485 0)
(-47.7279 -308.789 0)
(-38.5455 -318.076 0)
(-29.7123 -328.106 0)
(-19.9169 -336.861 0)
(-9.39386 -347.338 0)
(2.31411 -355.804 0)
(17.8754 -363.537 0)
(39.0601 -371.634 0)
(63.9006 -380.104 0)
(95.6986 -390.275 0)
(140.029 -401.761 0)
(214.904 -415.716 0)
(365.119 -431.906 0)
(664.63 -436.225 0)
(1087.69 -381.694 0)
(354.708 -236.807 0)
(4900.23 -192.145 0)
(-4772.08 -72.6484 0)
(-406.053 -68.1768 0)
(-918.678 -49.9993 0)
(-157.634 -49.3173 0)
(104.436 -71.4057 0)
(30.6537 -77.892 0)
(7.6076 -92.6517 0)
(-21.1963 -94.972 0)
(-46.7292 -96.7275 0)
(-93.9299 -80.7827 0)
(-154.378 -65.0178 0)
(-197.029 -70.3087 0)
(-207.384 -96.4666 0)
(-188.774 -132.373 0)
(-156.309 -168.803 0)
(-123.952 -199.585 0)
(-99.4832 -221.856 0)
(-84.0487 -237.026 0)
(-74.9521 -246.888 0)
(-67.8582 -252.642 0)
(-61.2555 -255.096 0)
(-56.1034 -254.767 0)
(-51.1819 -252.612 0)
(-45.4897 -249.683 0)
(-37.892 -246.65 0)
(-29.9832 -244.371 0)
(-20.7904 -242.153 0)
(-10.0892 -240.975 0)
(3.55662 -239.364 0)
(19.6904 -237.161 0)
(39.4501 -236.023 0)
(62.1831 -236.719 0)
(91.2034 -239.879 0)
(132.168 -245.308 0)
(203.011 -254.064 0)
(350.568 -265.92 0)
(666.98 -281.518 0)
(1147.22 -270.016 0)
(407.644 -187.308 0)
(5184.94 -180.752 0)
(-4791.41 -3.54534 0)
(-382.011 3.03256 0)
(-899.201 76.165 0)
(-167.623 98.7982 0)
(89.6819 66.9635 0)
(17.5425 57.8351 0)
(-5.20177 35.5882 0)
(-28.1783 18.7159 0)
(-44.7137 -0.837522 0)
(-78.8518 -1.04629 0)
(-145.673 13.5497 0)
(-210.846 20.8469 0)
(-238.164 0.526358 0)
(-225.791 -38.6617 0)
(-193.189 -81.0736 0)
(-154.123 -117.901 0)
(-120.613 -146.553 0)
(-96.9697 -165.745 0)
(-81.6157 -177.304 0)
(-70.9849 -183.302 0)
(-62.9672 -186.036 0)
(-56.5784 -186.54 0)
(-49.6644 -184.937 0)
(-41.9828 -181.524 0)
(-33.426 -177.111 0)
(-25.3785 -172.791 0)
(-16.6451 -168.524 0)