/*--------------------------------*- C++ -*----------------------------------*\
| =========                 |                                                 |
| \\      /  F ield         | OpenFOAM: The Open Source CFD Toolbox           |
|  \\    /   O peration     | Version:  v1912                                 |
|   \\  /    A nd           | Website:  www.openfoam.com                      |
|    \\/     M anipulation  |                                                 |
\*---------------------------------------------------------------------------*/
FoamFile
{
    version     2.0;
    format      ascii;
    class       volTensorField;
    location    "5.48";
    object      grad(U);
}
// * * * * * * * * * * * * * * * * * * * * * * * * * * * * * * * * * * * * * //

dimensions      [0 0 -1 0 0 0 0];


internalField   nonuniform List<tensor> 
1900
(
(-4.73598 5.77993e-05 0 -2.64615e-06 1.92434e-05 0 0 0 0)
(4.66947 -5.72966e-05 0 1.63604e-05 9.1266e-05 0 0 0 0)
(0.672199 -0.000123816 0 0.000107322 -9.77255e-05 0 0 0 0)
(0.0423745 -5.2875e-05 0 3.08552e-05 -0.000123195 0 0 0 0)
(0.0783132 -0.000680007 0 -0.000185742 -0.000221658 0 0 0 0)
(0.0806779 -0.00185994 0 -0.000886632 -0.00159017 0 0 0 0)
(0.0702942 0.00309332 0 -0.00288103 -0.00398285 0 0 0 0)
(0.0489694 0.0181212 0 -0.00513518 0.00291041 0 0 0 0)
(-0.0184094 0.0545919 0 0.00676207 0.0263749 0 0 0 0)
(-0.0146802 0.198137 0 0.0648516 0.114482 0 0 0 0)
(-4.73596 5.271e-05 0 -1.65934e-06 -1.23596e-05 0 0 0 0)
(4.66958 -5.96722e-05 0 2.87087e-05 -4.54397e-05 0 0 0 0)
(0.672214 -9.06451e-05 0 0.000125447 4.4937e-05 0 0 0 0)
(0.0420814 -7.10578e-05 0 -2.47543e-05 7.8376e-05 0 0 0 0)
(0.0773957 -0.00078697 0 -0.000433919 9.7812e-05 0 0 0 0)
(0.0779826 -0.00190125 0 -0.00149311 0.000758383 0 0 0 0)
(0.0660456 0.00140726 0 -0.00409568 0.00195775 0 0 0 0)
(0.0586125 0.0122365 0 -0.00611646 -0.00233494 0 0 0 0)
(0.0515773 0.0569798 0 0.00932861 -0.0161635 0 0 0 0)
(0.120213 0.148783 0 0.0999756 -0.0569268 0 0 0 0)
(-4.73595 -3.47362e-12 0 4.6187e-13 -1.37675e-05 0 0 0 0)
(4.6696 -4.12839e-12 0 2.84156e-12 -9.16526e-05 0 0 0 0)
(0.672146 9.14109e-12 0 -6.27197e-12 0.000105577 0 0 0 0)
(0.0418151 7.04247e-12 0 -4.24248e-12 8.96377e-05 0 0 0 0)
(0.0768448 -6.25962e-12 0 -3.74998e-13 0.000247693 0 0 0 0)
(0.0770161 -3.39515e-12 0 8.3592e-13 0.00166358 0 0 0 0)
(0.0656709 6.73407e-14 0 5.07949e-13 0.00405019 0 0 0 0)
(0.0623937 1.6493e-13 0 3.79471e-13 -0.00115094 0 0 0 0)
(0.0876826 1.11752e-13 0 2.32968e-13 -0.0204228 0 0 0 0)
(0.180016 3.39382e-13 0 3.13605e-13 -0.11511 0 0 0 0)
(-4.73596 -5.271e-05 0 1.65934e-06 -1.23596e-05 0 0 0 0)
(4.66958 5.96722e-05 0 -2.87087e-05 -4.54397e-05 0 0 0 0)
(0.672214 9.06451e-05 0 -0.000125447 4.4937e-05 0 0 0 0)
(0.0420814 7.10578e-05 0 2.47543e-05 7.8376e-05 0 0 0 0)
(0.0773957 0.00078697 0 0.000433919 9.7812e-05 0 0 0 0)
(0.0779826 0.00190125 0 0.00149311 0.000758383 0 0 0 0)
(0.0660456 -0.00140726 0 0.00409568 0.00195775 0 0 0 0)
(0.0586125 -0.0122365 0 0.00611646 -0.00233494 0 0 0 0)
(0.0515773 -0.0569798 0 -0.00932861 -0.0161635 0 0 0 0)
(0.120213 -0.148783 0 -0.0999756 -0.0569268 0 0 0 0)
(-4.73598 -5.77993e-05 0 2.64615e-06 1.92434e-05 0 0 0 0)
(4.66947 5.72966e-05 0 -1.63604e-05 9.1266e-05 0 0 0 0)
(0.672199 0.000123816 0 -0.000107322 -9.77255e-05 0 0 0 0)
(0.0423745 5.2875e-05 0 -3.08552e-05 -0.000123195 0 0 0 0)
(0.0783132 0.000680007 0 0.000185742 -0.000221658 0 0 0 0)
(0.0806779 0.00185994 0 0.000886632 -0.00159017 0 0 0 0)
(0.0702942 -0.00309332 0 0.00288103 -0.00398285 0 0 0 0)
(0.0489694 -0.0181212 0 0.00513518 0.00291041 0 0 0 0)
(-0.0184094 -0.0545919 0 -0.00676207 0.0263749 0 0 0 0)
(-0.0146802 -0.198137 0 -0.0648516 0.114482 0 0 0 0)
(0.177155 0.403601 -2.18389e-17 0.257408 -0.228712 3.27584e-17 5.47728e-17 7.26839e-17 -5.91945e-33)
(0.50781 0.579019 0 0.316002 -0.464538 0 -1.60193e-16 -4.57904e-17 0)
(0.795172 0.983415 0 0.31107 -0.792423 0 -2.61212e-16 -8.38088e-17 0)
(1.45656 1.58679 0 0.375103 -1.47763 0 0 0 0)
(2.53008 1.86587 2.78467e-16 1.09098 -3.51805 -4.177e-16 -2.25388e-15 -1.50259e-15 -7.54785e-32)
(0.247713 0.151832 0 0.198164 -0.197236 0 1.01286e-16 3.13556e-17 0)
(0.423874 0.156684 0 0.162831 -0.320584 0 1.60193e-16 4.57904e-17 0)
(0.74523 0.398145 0 0.0809301 -0.614871 0 2.61212e-16 8.38088e-17 0)
(1.61014 0.848563 0 -0.0503477 -1.29948 0 0 0 0)
(3.45909 0.573375 0 -0.257051 -3.00189 0 0 0 0)
(0.313761 8.9418e-14 0 1.39208e-13 -0.299619 0 0 0 0)
(0.45404 4.26758e-13 0 3.03149e-14 -0.372451 0 0 0 0)
(0.737066 3.10132e-13 0 2.22487e-13 -0.625458 0 0 0 0)
(1.51483 -1.02141e-13 0 5.54422e-14 -1.30711 0 0 0 0)
(3.18536 1.0407e-13 0 1.6134e-13 -3.5908 0 0 0 0)
(0.247713 -0.151832 0 -0.198164 -0.197236 0 1.01286e-16 -3.13556e-17 0)
(0.423874 -0.156684 0 -0.162831 -0.320584 0 1.60193e-16 -4.57904e-17 0)
(0.74523 -0.398145 0 -0.0809301 -0.614871 0 2.61212e-16 -8.38088e-17 0)
(1.61014 -0.848563 0 0.0503477 -1.29948 0 0 0 0)
(3.45909 -0.573375 0 0.257051 -3.00189 0 0 0 0)
(0.177155 -0.403601 2.18389e-17 -0.257408 -0.228712 3.27584e-17 -2.57346e-16 1.35395e-16 -5.91945e-33)
(0.50781 -0.579019 0 -0.316002 -0.464538 0 -1.60193e-16 4.57904e-17 0)
(0.795172 -0.983415 0 -0.31107 -0.792423 0 -2.61212e-16 8.38088e-17 0)
(1.45656 -1.58679 1.00193e-16 -0.375103 -1.47763 1.5029e-16 -9.29886e-16 6.19924e-16 -2.71574e-32)
(2.53008 -1.86587 -2.78467e-16 -1.09098 -3.51805 -4.177e-16 2.25388e-15 -1.50259e-15 -7.54785e-32)
(3.26527 -0.797282 -1.75701e-17 0.104032 4.24405 -1.58131e-16 2.14071e-15 -1.09691e-16 4.76239e-33)
(0.557157 -0.299739 6.35914e-18 0.752296 2.11318 5.72323e-17 -2.18692e-15 1.76832e-16 1.72365e-33)
(-0.253059 0.0435754 0 0.601865 1.40869 0 0 0 0)
(0.0817094 0.146344 -2.56383e-18 0.444057 1.20581 -2.30745e-17 1.57496e-15 -1.37195e-16 6.94928e-34)
(1.00981 -0.554906 3.14634e-18 0.381444 1.27104 2.8317e-17 -7.10709e-16 7.89676e-17 8.52817e-34)
(3.51382 -0.909168 0 -0.521805 -0.653741 0 -1.07192e-15 -9.06279e-18 0)
(0.804385 -0.117536 0 0.677164 1.04601 0 1.10479e-15 -5.65949e-17 0)
(-0.288428 0.052391 0 0.454404 1.15392 0 0 0 0)
(0.0224591 0.0721196 0 0.220996 1.05723 0 -9.94374e-16 5.50899e-17 0)
(0.888568 -0.203317 0 0.199052 0.840905 0 1.82048e-16 -3.84071e-18 0)
(3.52256 -6.8157e-14 0 3.28546e-14 0.705638 0 0 0 0)
(0.763932 -5.89846e-14 0 0 1.66635 0 0 0 0)
(-0.412933 -5.29298e-14 0 -1.52591e-13 1.46514 0 0 0 0)
(-0.0225511 1.78771e-13 0 0 1.23518 0 4.00412e-16 -6.61504e-31 0)
(0.765681 -2.11878e-12 0 6.9744e-14 1.02022 0 -3.64096e-16 -8.60654e-30 0)
(3.51382 0.909168 0 0.521805 -0.653741 0 -1.07192e-15 9.06279e-18 0)
(0.804385 0.117536 0 -0.677164 1.04601 0 1.10479e-15 5.65949e-17 0)
(-0.288428 -0.052391 0 -0.454404 1.15392 0 0 0 0)
(0.0224591 -0.0721196 0 -0.220996 1.05723 0 -9.94374e-16 -5.50899e-17 0)
(0.888568 0.203317 0 -0.199052 0.840905 0 1.82048e-16 3.84071e-18 0)
(3.26527 0.797282 0 -0.104032 4.24405 0 1.07192e-15 -9.06279e-18 0)
(0.557157 0.299739 -6.35914e-18 -0.752296 2.11318 5.72323e-17 -2.26567e-17 6.3642e-17 1.72365e-33)
(-0.253059 -0.0435754 0 -0.601865 1.40869 0 0 0 0)
(0.0817094 -0.146344 2.56383e-18 -0.444057 1.20581 -2.30745e-17 1.33735e-17 -3.6315e-17 6.94928e-34)
(1.00981 0.554906 -3.14634e-18 -0.381444 1.27104 2.8317e-17 7.10709e-16 7.89676e-17 8.52817e-34)
(1.21723 -0.580745 0 2.17354 2.33768 0 0 0 0)
(-0.406996 0.481822 0 2.34895 1.69448 0 0 0 0)
(-1.93689 0.253469 0 3.09381 1.32384 0 0 0 0)
(-2.02968 -0.262622 0 2.30428 1.64097 0 0 0 0)
(-1.61924 -0.032441 0 2.10328 1.70403 0 0 0 0)
(-1.231 0.327423 0 1.09942 1.24391 0 0 0 0)
(-0.788552 0.316107 0 0.353322 0.758929 0 0 0 0)
(-0.529256 0.15186 0 0.110929 0.493319 0 0 0 0)
(-0.302347 0.0608598 0 0.0464245 0.372852 0 0 0 0)
(-0.130612 0.0286457 0 0.0186853 0.309906 0 0 0 0)
(-0.0552593 0.014183 0 0.00510644 0.278226 0 0 0 0)
(-0.0370724 0.00993382 0 0.0043201 0.259828 0 0 0 0)
(-0.0200907 0.00946654 0 0.00657067 0.243562 0 0 0 0)
(0.0224288 0.00593734 0 0.0020267 0.229787 0 0 0 0)
(0.0833629 0.00236788 0 -0.00130314 0.223282 0 0 0 0)
(0.135483 0.000794486 0 -0.00209161 0.220848 0 0 0 0)
(0.163873 0.000454364 0 -0.00172033 0.219907 0 0 0 0)
(0.175483 0.000442229 0 -0.0010752 0.219074 0 0 0 0)
(0.180124 0.00022776 0 -0.000480711 0.218334 0 0 0 0)
(0.182944 0.000187039 0 4.17998e-06 0.218276 0 0 0 0)
(0.186175 0.000469884 0 0.000426617 0.217684 0 0 0 0)
(0.189817 0.000401347 0 0.000830056 0.216652 0 0 0 0)
(0.192974 0.000126678 0 0.00123121 0.216293 0 0 0 0)
(0.195437 2.45438e-05 0 0.00164091 0.216204 0 0 0 0)
(0.197374 1.84445e-06 0 0.0020549 0.216194 0 0 0 0)
(0.198405 -7.60183e-05 0 0.00245965 0.216181 0 0 0 0)
(0.199397 0.000117691 0 0.00286718 0.216444 0 0 0 0)
(0.198356 -0.000211716 0 0.00319963 0.215756 0 0 0 0)
(0.194068 0.000100097 0 0.00351002 0.217146 0 0 0 0)
(0.189297 -0.000279181 0 0.00371934 0.215424 0 0 0 0)
(0.182661 -8.47206e-05 0 0.00382341 0.218057 0 0 0 0)
(0.176 -0.000799176 0 0.00368695 0.215722 0 0 0 0)
(0.169302 0.000460407 0 0.00347592 0.220678 0 0 0 0)
(0.162309 -0.00229391 0 0.00290923 0.214388 0 0 0 0)
(0.146458 0.00154881 0 0.00248082 0.227773 0 0 0 0)
(0.125641 -0.00251296 0 -0.000981148 0.210086 0 0 0 0)
(0.0717039 -0.00289489 0 0.00138106 0.237389 0 0 0 0)
(0.0195602 -0.00267524 0 -0.00944791 0.217265 0 0 0 0)
(1.00459 -0.0102343 0 0.0057945 0.25737 0 0 0 0)
(0.997725 -0.00213739 0 -0.0536234 0.263803 0 0 0 0)
(1.1607 -0.243118 0 -0.387445 2.77652 0 0 0 0)
(-0.162563 0.175524 0 0.107353 2.36555 0 0 0 0)
(-1.73989 0.141019 0 0.828794 1.12026 0 0 0 0)
(-1.98162 -0.129156 0 0.662795 1.49424 0 0 0 0)
(-1.67058 -0.0491782 0 1.04704 2.02302 0 0 0 0)
(-1.47668 0.157032 0 0.788377 1.60576 0 0 0 0)
(-0.959503 0.17167 0 0.258611 0.897506 0 0 0 0)
(-0.579761 0.085207 0 0.0447 0.519141 0 0 0 0)
(-0.31363 0.0319591 0 -0.000234873 0.375488 0 0 0 0)
(-0.134166 0.0139454 0 -0.00655783 0.309936 0 0 0 0)
(-0.056164 0.0067423 0 -0.00929066 0.277019 0 0 0 0)
(-0.0361577 0.00509468 0 -0.00875531 0.261182 0 0 0 0)
(-0.019479 0.00492543 0 -0.00635048 0.242871 0 0 0 0)
(0.0223649 0.00280263 0 -0.00648188 0.22864 0 0 0 0)
(0.0835952 0.0010669 0 -0.00566683 0.222462 0 0 0 0)
(0.135891 0.000358502 0 -0.00475888 0.220501 0 0 0 0)
(0.164353 0.000222029 0 -0.00372028 0.219731 0 0 0 0)
(0.175979 0.000222819 0 -0.00259685 0.218939 0 0 0 0)
(0.180603 0.000113342 0 -0.00151196 0.21821 0 0 0 0)
(0.183399 9.15296e-05 0 -0.000505954 0.218156 0 0 0 0)
(0.186612 0.000232528 0 0.00044283 0.217568 0 0 0 0)
(0.190241 0.000198295 0 0.0013613 0.216541 0 0 0 0)
(0.193387 6.10813e-05 0 0.00226541 0.216188 0 0 0 0)
(0.195839 9.94723e-06 0 0.00316769 0.216105 0 0 0 0)
(0.197761 -1.67984e-06 0 0.00407279 0.216104 0 0 0 0)
(0.198777 -4.06831e-05 0 0.00497984 0.216099 0 0 0 0)
(0.199743 5.61874e-05 0 0.00590411 0.216365 0 0 0 0)
(0.198676 -0.000107631 0 0.00681073 0.215694 0 0 0 0)
(0.194359 5.06411e-05 0 0.00776839 0.217093 0 0 0 0)
(0.18955 -0.000137901 0 0.00874524 0.21535 0 0 0 0)
(0.182863 -3.47729e-05 0 0.0097898 0.218052 0 0 0 0)
(0.176146 -0.000389923 0 0.0109022 0.215642 0 0 0 0)
(0.169376 0.000259001 0 0.0122246 0.220799 0 0 0 0)
(0.16232 -0.00115237 0 0.0138568 0.214059 0 0 0 0)
(0.146075 0.000872858 0 0.0160444 0.228685 0 0 0 0)
(0.125734 -0.00108955 0 0.0174887 0.208735 0 0 0 0)
(0.0714409 -0.00135632 0 0.0243321 0.237323 0 0 0 0)
(0.0205953 -0.00176483 0 0.0265237 0.218686 0 0 0 0)
(0.996368 -0.00554675 0 0.0322381 0.246519 0 0 0 0)
(0.987731 -0.00101698 0 -0.0138984 0.253867 0 0 0 0)
(1.15701 -5.48642e-13 0 -1.75444e-12 2.35646 0 0 0 0)
(-0.0531806 -3.47905e-12 0 7.68404e-12 2.33928 0 0 0 0)
(-1.77531 -1.49176e-11 0 -2.08364e-11 1.14973 0 0 0 0)
(-1.96619 -9.28862e-12 0 -2.89383e-11 1.36978 0 0 0 0)
(-1.5827 6.06389e-12 0 -9.72726e-11 2.03768 0 0 0 0)
(-1.46036 1.46717e-11 0 -7.75293e-11 1.70787 0 0 0 0)
(-1.00489 2.10714e-11 0 -4.04373e-11 0.95808 0 0 0 0)
(-0.604556 1.14243e-11 0 -4.75313e-11 0.527642 0 0 0 0)
(-0.317258 -5.64959e-12 0 -5.20673e-11 0.372282 0 0 0 0)
(-0.133246 -8.63542e-12 0 -4.26875e-11 0.307924 0 0 0 0)
(-0.0558986 -1.66822e-12 0 -2.87856e-11 0.276407 0 0 0 0)
(-0.0362171 5.99435e-12 0 -3.43751e-11 0.26157 0 0 0 0)
(-0.0194294 1.27199e-11 0 -5.59981e-11 0.241381 0 0 0 0)
(0.0226277 1.79839e-11 0 -7.64348e-11 0.227708 0 0 0 0)
(0.0838642 1.39204e-11 0 -7.69212e-11 0.222113 0 0 0 0)
(0.13605 -5.03405e-12 0 -6.0323e-11 0.220373 0 0 0 0)
(0.164502 -4.00801e-11 0 -3.33996e-11 0.219648 0 0 0 0)
(0.176125 -7.08078e-11 0 -3.58809e-12 0.218846 0 0 0 0)
(0.180732 -3.67361e-11 0 2.18357e-11 0.218116 0 0 0 0)
(0.183513 3.44333e-11 0 4.2424e-11 0.218067 0 0 0 0)
(0.186718 7.61231e-11 0 5.98669e-11 0.217487 0 0 0 0)
(0.190347 4.16757e-11 0 7.5805e-11 0.216469 0 0 0 0)
(0.1935 -5.44335e-11 0 8.66016e-11 0.216124 0 0 0 0)
(0.195963 -1.00699e-10 0 8.58018e-11 0.216049 0 0 0 0)
(0.197901 -5.74622e-11 0 7.15647e-11 0.216055 0 0 0 0)
(0.198938 -4.19003e-12 0 5.1916e-11 0.21606 0 0 0 0)
(0.199929 5.28912e-11 0 3.59275e-11 0.216335 0 0 0 0)
(0.198898 7.97228e-11 0 2.63895e-11 0.215674 0 0 0 0)
(0.19463 3.15647e-11 0 1.93057e-11 0.217075 0 0 0 0)
(0.189885 5.40475e-11 0 2.24134e-12 0.215326 0 0 0 0)
(0.183289 1.80411e-11 0 -3.72975e-11 0.218023 0 0 0 0)
(0.176708 -6.86312e-11 0 -9.55153e-11 0.215565 0 0 0 0)
(0.170161 1.52845e-11 0 -1.69002e-10 0.220704 0 0 0 0)
(0.16342 5.4042e-11 0 -2.36845e-10 0.213784 0 0 0 0)
(0.147515 -3.96216e-11 0 -3.07227e-10 0.228626 0 0 0 0)
(0.128052 -4.98412e-11 0 -3.50562e-10 0.207783 0 0 0 0)
(0.0743323 4.72273e-11 0 -3.36714e-10 0.236117 0 0 0 0)
(0.0218601 5.03121e-11 0 -2.51612e-10 0.217108 0 0 0 0)
(0.992828 -1.48195e-11 0 -1.42048e-10 0.24825 0 0 0 0)
(0.984303 -1.24932e-11 0 -1.45409e-10 0.255242 0 0 0 0)
(1.1607 0.243118 0 0.387445 2.77652 0 0 0 0)
(-0.162563 -0.175524 0 -0.107353 2.36555 0 0 0 0)
(-1.73989 -0.141019 0 -0.828794 1.12026 0 0 0 0)
(-1.98162 0.129156 0 -0.662795 1.49424 0 0 0 0)
(-1.67058 0.0491782 0 -1.04704 2.02302 0 0 0 0)
(-1.47668 -0.157032 0 -0.788377 1.60576 0 0 0 0)
(-0.959503 -0.17167 0 -0.258611 0.897506 0 0 0 0)
(-0.579761 -0.085207 0 -0.0447 0.519141 0 0 0 0)
(-0.31363 -0.0319591 0 0.000234873 0.375488 0 0 0 0)
(-0.134166 -0.0139454 0 0.00655783 0.309936 0 0 0 0)
(-0.056164 -0.0067423 0 0.00929066 0.277019 0 0 0 0)
(-0.0361577 -0.00509468 0 0.00875531 0.261182 0 0 0 0)
(-0.019479 -0.00492543 0 0.00635048 0.242871 0 0 0 0)
(0.0223649 -0.00280263 0 0.00648188 0.22864 0 0 0 0)
(0.0835952 -0.0010669 0 0.00566683 0.222462 0 0 0 0)
(0.135891 -0.000358502 0 0.00475888 0.220501 0 0 0 0)
(0.164353 -0.000222029 0 0.00372028 0.219731 0 0 0 0)
(0.175979 -0.000222819 0 0.00259685 0.218939 0 0 0 0)
(0.180603 -0.000113342 0 0.00151196 0.21821 0 0 0 0)
(0.183399 -9.15296e-05 0 0.000505954 0.218156 0 0 0 0)
(0.186612 -0.000232527 0 -0.00044283 0.217568 0 0 0 0)
(0.190241 -0.000198294 0 -0.0013613 0.216541 0 0 0 0)
(0.193387 -6.10814e-05 0 -0.00226541 0.216188 0 0 0 0)
(0.195839 -9.94743e-06 0 -0.00316769 0.216105 0 0 0 0)
(0.197761 1.67973e-06 0 -0.00407279 0.216104 0 0 0 0)
(0.198777 4.0683e-05 0 -0.00497984 0.216099 0 0 0 0)
(0.199743 -5.61873e-05 0 -0.00590411 0.216365 0 0 0 0)
(0.198676 0.000107631 0 -0.00681073 0.215694 0 0 0 0)
(0.194359 -5.0641e-05 0 -0.00776839 0.217093 0 0 0 0)
(0.18955 0.000137901 0 -0.00874524 0.21535 0 0 0 0)
(0.182863 3.47729e-05 0 -0.0097898 0.218052 0 0 0 0)
(0.176146 0.000389923 0 -0.0109022 0.215642 0 0 0 0)
(0.169376 -0.000259001 0 -0.0122246 0.220799 0 0 0 0)
(0.16232 0.00115237 0 -0.0138568 0.214059 0 0 0 0)
(0.146075 -0.000872858 0 -0.0160444 0.228685 0 0 0 0)
(0.125734 0.00108955 0 -0.0174887 0.208735 0 0 0 0)
(0.0714409 0.00135632 0 -0.0243321 0.237323 0 0 0 0)
(0.0205953 0.00176483 0 -0.0265237 0.218686 0 0 0 0)
(0.996368 0.00554675 0 -0.0322381 0.246519 0 0 0 0)
(0.987731 0.00101698 0 0.0138984 0.253867 0 0 0 0)
(1.21723 0.580745 0 -2.17354 2.33768 0 0 0 0)
(-0.406996 -0.481822 0 -2.34895 1.69448 0 0 0 0)
(-1.93689 -0.253469 0 -3.09381 1.32384 0 0 0 0)
(-2.02968 0.262622 0 -2.30428 1.64097 0 0 0 0)
(-1.61924 0.032441 0 -2.10328 1.70403 0 0 0 0)
(-1.231 -0.327423 0 -1.09942 1.24391 0 0 0 0)
(-0.788552 -0.316107 0 -0.353322 0.758929 0 0 0 0)
(-0.529256 -0.15186 0 -0.110929 0.493319 0 0 0 0)
(-0.302347 -0.0608598 0 -0.0464245 0.372852 0 0 0 0)
(-0.130612 -0.0286457 0 -0.0186853 0.309906 0 0 0 0)
(-0.0552593 -0.014183 0 -0.00510644 0.278226 0 0 0 0)
(-0.0370724 -0.00993382 0 -0.0043201 0.259828 0 0 0 0)
(-0.0200907 -0.00946654 0 -0.00657067 0.243562 0 0 0 0)
(0.0224288 -0.00593734 0 -0.0020267 0.229787 0 0 0 0)
(0.0833629 -0.00236788 0 0.00130314 0.223282 0 0 0 0)
(0.135483 -0.000794486 0 0.00209161 0.220848 0 0 0 0)
(0.163873 -0.000454364 0 0.00172033 0.219907 0 0 0 0)
(0.175483 -0.000442229 0 0.0010752 0.219074 0 0 0 0)
(0.180124 -0.00022776 0 0.000480711 0.218334 0 0 0 0)
(0.182944 -0.000187039 0 -4.18022e-06 0.218276 0 0 0 0)
(0.186175 -0.000469884 0 -0.000426617 0.217684 0 0 0 0)
(0.189817 -0.000401347 0 -0.000830056 0.216652 0 0 0 0)
(0.192974 -0.000126678 0 -0.00123121 0.216293 0 0 0 0)
(0.195437 -2.4544e-05 0 -0.00164091 0.216204 0 0 0 0)
(0.197374 -1.84456e-06 0 -0.0020549 0.216194 0 0 0 0)
(0.198405 7.60183e-05 0 -0.00245965 0.216181 0 0 0 0)
(0.199397 -0.000117691 0 -0.00286718 0.216444 0 0 0 0)
(0.198356 0.000211717 0 -0.00319963 0.215756 0 0 0 0)
(0.194068 -0.000100097 0 -0.00351002 0.217146 0 0 0 0)
(0.189297 0.000279181 0 -0.00371934 0.215424 0 0 0 0)
(0.182661 8.47206e-05 0 -0.00382341 0.218057 0 0 0 0)
(0.176 0.000799176 0 -0.00368695 0.215722 0 0 0 0)
(0.169302 -0.000460407 0 -0.00347592 0.220678 0 0 0 0)
(0.162309 0.00229391 0 -0.00290923 0.214388 0 0 0 0)
(0.146458 -0.00154881 0 -0.00248082 0.227773 0 0 0 0)
(0.125641 0.00251296 0 0.000981148 0.210086 0 0 0 0)
(0.0717039 0.00289489 0 -0.00138105 0.237389 0 0 0 0)
(0.0195602 0.00267524 0 0.00944791 0.217265 0 0 0 0)
(1.00459 0.0102343 0 -0.00579449 0.25737 0 0 0 0)
(0.997725 0.00213739 0 0.0536234 0.263803 0 0 0 0)
(0.310134 -0.270616 0 -4.94707 0.485141 0 0 0 0)
(-0.457196 -0.457321 0 -4.82947 0.635748 0 0 0 0)
(-1.48409 -0.0445598 0 -4.27739 1.3617 0 0 0 0)
(-1.30471 0.213318 0 -2.89596 1.3969 0 0 0 0)
(-0.974159 -0.180533 0 -1.91453 1.09505 0 0 0 0)
(-0.66306 -0.552855 0 -0.891508 0.806565 0 0 0 0)
(-0.537111 -0.475492 0 -0.423599 0.590065 0 0 0 0)
(-0.445649 -0.250315 0 -0.207669 0.441129 0 0 0 0)
(-0.268815 -0.113593 0 -0.112182 0.353295 0 0 0 0)
(-0.112357 -0.0563043 0 -0.0537984 0.303006 0 0 0 0)
(-0.0481992 -0.0295518 0 -0.032272 0.276151 0 0 0 0)
(-0.0360185 -0.0212433 0 -0.0273584 0.255909 0 0 0 0)
(-0.0173331 -0.0185185 0 -0.0247616 0.240573 0 0 0 0)
(0.02723 -0.0118994 0 -0.0152226 0.229192 0 0 0 0)
(0.0864471 -0.0051698 0 -0.00658676 0.22355 0 0 0 0)
(0.136624 -0.00197117 0 -0.00304927 0.221037 0 0 0 0)
(0.164271 -0.00106633 0 -0.00221332 0.219872 0 0 0 0)
(0.175776 -0.000956202 0 -0.00197668 0.21894 0 0 0 0)
(0.18048 -0.000481858 0 -0.00165269 0.218187 0 0 0 0)
(0.183356 -0.000388663 0 -0.00115297 0.218148 0 0 0 0)
(0.1866 -0.000976394 0 -0.000582295 0.217581 0 0 0 0)
(0.190227 -0.000836384 0 -2.49455e-05 0.216562 0 0 0 0)
(0.193356 -0.000266419 0 0.000490603 0.216205 0 0 0 0)
(0.195787 -5.47124e-05 0 0.000946438 0.216114 0 0 0 0)
(0.197696 -8.83644e-06 0 0.00134818 0.216098 0 0 0 0)
(0.198697 0.000156143 0 0.00170964 0.216073 0 0 0 0)
(0.199679 -0.000251631 0 0.00201115 0.216336 0 0 0 0)
(0.198643 0.000427978 0 0.00237185 0.215618 0 0 0 0)
(0.194371 -0.000201697 0 0.00270177 0.216983 0 0 0 0)
(0.189647 0.000546204 0 0.00313217 0.215274 0 0 0 0)
(0.183116 0.000164035 0 0.00365216 0.217746 0 0 0 0)
(0.176534 0.00156022 0 0.00445808 0.215468 0 0 0 0)
(0.169949 -0.000862821 0 0.00516307 0.219994 0 0 0 0)
(0.162958 0.00428298 0 0.00632708 0.21427 0 0 0 0)
(0.148072 -0.00278964 0 0.00678285 0.22567 0 0 0 0)
(0.126531 0.00547578 0 0.01118 0.211427 0 0 0 0)
(0.0764479 0.00408052 0 0.00967752 0.234612 0 0 0 0)
(0.0190237 0.0132456 0 0.0292908 0.212577 0 0 0 0)
(1.01457 0.0293183 0 0.00644265 0.266569 0 0 0 0)
(1.01345 0.00375666 0 -0.00371951 0.278165 0 0 0 0)
(0.491755 0.106577 0 -4.42527 -0.15434 0 0 0 0)
(0.265248 0.349722 0 -4.16385 0.418316 0 0 0 0)
(-0.316493 0.367983 0 -3.25522 0.919845 0 0 0 0)
(-0.14148 0.0321089 0 -2.19176 0.765661 0 0 0 0)
(-0.0335892 -0.422226 0 -1.32458 0.449383 0 0 0 0)
(-0.0988343 -0.69316 0 -0.768242 0.353181 0 0 0 0)
(-0.26441 -0.582788 0 -0.491266 0.373229 0 0 0 0)
(-0.273996 -0.327225 0 -0.282369 0.358948 0 0 0 0)
(-0.172053 -0.165683 0 -0.150657 0.319585 0 0 0 0)
(-0.063396 -0.0881526 0 -0.0736665 0.291433 0 0 0 0)
(-0.0335666 -0.0513255 0 -0.0469156 0.269657 0 0 0 0)
(-0.0304003 -0.0381537 0 -0.0393734 0.24991 0 0 0 0)
(-0.00987495 -0.0303585 0 -0.0315514 0.236533 0 0 0 0)
(0.0373683 -0.0191445 0 -0.0193981 0.227887 0 0 0 0)
(0.0934397 -0.00872379 0 -0.00810324 0.223364 0 0 0 0)
(0.139086 -0.00370814 0 -0.00306596 0.221034 0 0 0 0)
(0.164693 -0.00214728 0 -0.00197117 0.219594 0 0 0 0)
(0.175865 -0.00179009 0 -0.00193416 0.218531 0 0 0 0)
(0.180727 -0.000853955 0 -0.00184713 0.217767 0 0 0 0)
(0.183754 -0.000663192 0 -0.00151544 0.217761 0 0 0 0)
(0.187034 -0.00172699 0 -0.00108066 0.217226 0 0 0 0)
(0.190631 -0.00149337 0 -0.000663407 0.21622 0 0 0 0)
(0.193705 -0.000482973 0 -0.000301855 0.215856 0 0 0 0)
(0.196076 -0.000112172 0 -2.15708e-05 0.215747 0 0 0 0)
(0.197937 -3.75332e-05 0 0.000187602 0.215701 0 0 0 0)
(0.198887 0.000262841 0 0.000342542 0.215641 0 0 0 0)
(0.199883 -0.000485107 0 0.00040371 0.215883 0 0 0 0)
(0.198867 0.000719433 0 0.000596448 0.215092 0 0 0 0)
(0.194638 -0.0003769 0 0.000703043 0.216406 0 0 0 0)
(0.190025 0.000871114 0 0.000976998 0.214725 0 0 0 0)
(0.183695 0.000229211 0 0.00136419 0.216941 0 0 0 0)
(0.177169 0.00255694 0 0.00211348 0.214856 0 0 0 0)
(0.170756 -0.00139947 0 0.00256945 0.218754 0 0 0 0)
(0.163522 0.00669748 0 0.00360566 0.214006 0 0 0 0)
(0.150269 -0.00362265 0 0.00340016 0.22278 0 0 0 0)
(0.127953 0.00954123 0 0.00783949 0.213563 0 0 0 0)
(0.0866123 0.00336735 0 0.00716658 0.230115 0 0 0 0)
(0.0167306 0.0278013 0 0.0299795 0.211144 0 0 0 0)
(0.967422 0.0632034 0 0.00135976 0.25619 0 0 0 0)
(0.979502 0.0124433 0 -0.0338381 0.267959 0 0 0 0)
(0.562047 0.281216 0 -2.24255 0.13686 0 0 0 0)
(0.670303 0.577802 0 -2.15913 0.352305 0 0 0 0)
(0.416282 0.290155 0 -1.67121 0.356967 0 0 0 0)
(0.555725 -0.240037 0 -1.11114 0.163958 0 0 0 0)
(0.397599 -0.578014 0 -0.772211 -0.0240022 0 0 0 0)
(0.139949 -0.626239 0 -0.617894 0.0608509 0 0 0 0)
(-0.0689069 -0.469935 0 -0.443342 0.217683 0 0 0 0)
(-0.117425 -0.302009 0 -0.296859 0.277705 0 0 0 0)
(-0.067701 -0.178653 0 -0.153601 0.285282 0 0 0 0)
(-0.0123884 -0.104418 0 -0.0936316 0.27427 0 0 0 0)
(-0.0151531 -0.0695652 0 -0.0611496 0.259677 0 0 0 0)
(-0.021213 -0.0531627 0 -0.052737 0.24283 0 0 0 0)
(0.00191578 -0.0397404 0 -0.038724 0.232306 0 0 0 0)
(0.0498255 -0.0245895 0 -0.0235379 0.226447 0 0 0 0)
(0.102185 -0.0117735 0 -0.0105554 0.22305 0 0 0 0)
(0.142534 -0.00560359 0 -0.00429413 0.220865 0 0 0 0)
(0.165362 -0.00347875 0 -0.00262507 0.219269 0 0 0 0)
(0.175896 -0.00271704 0 -0.00243348 0.218098 0 0 0 0)
(0.180883 -0.0012234 0 -0.00231565 0.217331 0 0 0 0)
(0.184095 -0.000910205 0 -0.00195221 0.217363 0 0 0 0)
(0.187421 -0.00246188 0 -0.00148569 0.216861 0 0 0 0)
(0.190977 -0.00215662 0 -0.00105178 0.215861 0 0 0 0)
(0.193975 -0.000722024 0 -0.000691054 0.215476 0 0 0 0)
(0.196259 -0.000203742 0 -0.000436364 0.215334 0 0 0 0)
(0.198047 -0.000110877 0 -0.000267968 0.21524 0 0 0 0)
(0.198905 0.000331878 0 -0.000168789 0.215116 0 0 0 0)
(0.199924 -0.000780663 0 -0.000221126 0.215343 0 0 0 0)
(0.198931 0.000931334 0 -8.07062e-05 0.214452 0 0 0 0)
(0.194738 -0.000555427 0 -7.16478e-05 0.215683 0 0 0 0)
(0.190284 0.00106223 0 0.000176872 0.214077 0 0 0 0)
(0.184211 0.000290264 0 0.0005727 0.215935 0 0 0 0)
(0.177695 0.00330675 0 0.00141364 0.214193 0 0 0 0)
(0.171387 -0.00168147 0 0.00179039 0.217263 0 0 0 0)
(0.163758 0.00816338 0 0.00283381 0.213822 0 0 0 0)
(0.152152 -0.00321711 0 0.00226434 0.2197 0 0 0 0)
(0.13016 0.0125432 0 0.00661338 0.215033 0 0 0 0)
(0.0977828 0.00175002 0 0.00733881 0.224753 0 0 0 0)
(0.0134281 0.0383726 0 0.0282699 0.21248 0 0 0 0)
(0.953077 0.084067 0 -0.00593279 0.245572 0 0 0 0)
(0.979529 0.0150979 0 -0.0224454 0.245216 0 0 0 0)
(0.572142 0.314187 0 -0.748235 0.0234351 0 0 0 0)
(0.815813 0.561825 0 -0.771436 0.0128434 0 0 0 0)
(0.693386 0.186485 0 -0.580983 -0.0739129 0 0 0 0)
(0.724829 -0.335007 0 -0.436229 -0.13808 0 0 0 0)
(0.441724 -0.521584 0 -0.46133 -0.138373 0 0 0 0)
(0.218076 -0.460264 0 -0.473422 0.0244724 0 0 0 0)
(0.044951 -0.37382 0 -0.365226 0.165545 0 0 0 0)
(0.00520953 -0.262085 0 -0.271533 0.221124 0 0 0 0)
(0.0237839 -0.168993 0 -0.149792 0.255612 0 0 0 0)
(0.0256932 -0.112826 0 -0.106034 0.253844 0 0 0 0)
(0.00584092 -0.0816221 0 -0.0772331 0.245345 0 0 0 0)
(-0.00879012 -0.06453 0 -0.0639805 0.234101 0 0 0 0)
(0.0182624 -0.0461463 0 -0.0454282 0.227124 0 0 0 0)
(0.0645125 -0.0280635 0 -0.0270348 0.224148 0 0 0 0)
(0.111984 -0.0141027 0 -0.013139 0.221954 0 0 0 0)
(0.146728 -0.00735202 0 -0.00619419 0.220124 0 0 0 0)
(0.166486 -0.00481296 0 -0.00395463 0.218658 0 0 0 0)
(0.176163 -0.00365756 0 -0.00339756 0.217514 0 0 0 0)
(0.18119 -0.00156244 0 -0.00303752 0.216801 0 0 0 0)
(0.184554 -0.00111579 0 -0.00249481 0.216893 0 0 0 0)
(0.187901 -0.00317454 0 -0.00189217 0.216433 0 0 0 0)
(0.191397 -0.00282779 0 -0.00135284 0.215438 0 0 0 0)
(0.194298 -0.000990698 0 -0.000903442 0.215024 0 0 0 0)
(0.196484 -0.000340493 0 -0.0005796 0.214839 0 0 0 0)
(0.198194 -0.000247807 0 -0.000350137 0.214686 0 0 0 0)
(0.198932 0.000362304 0 -0.000183008 0.214463 0 0 0 0)
(0.199968 -0.00112491 0 -5.39483e-05 0.214678 0 0 0 0)
(0.199011 0.00104749 0 -7.93428e-05 0.213725 0 0 0 0)
(0.194886 -0.00073801 0 0.000123409 0.214796 0 0 0 0)
(0.190646 0.0011137 0 0.000538845 0.213307 0 0 0 0)
(0.184887 0.000341172 0 0.00114036 0.214755 0 0 0 0)
(0.178343 0.00383631 0 0.00225905 0.21338 0 0 0 0)
(0.172124 -0.00175769 0 0.0028485 0.215644 0 0 0 0)
(0.163978 0.00904593 0 0.00417994 0.213357 0 0 0 0)
(0.153911 -0.00245572 0 0.00383181 0.217021 0 0 0 0)
(0.132843 0.0144108 0 0.00796476 0.214902 0 0 0 0)
(0.107481 0.000907344 0 0.00984461 0.219233 0 0 0 0)
(0.00394165 0.047863 0 0.0272907 0.214185 0 0 0 0)
(0.918551 0.0947494 0 -0.00803677 0.24356 0 0 0 0)
(0.963589 0.0121007 0 -0.0314195 0.244888 0 0 0 0)
(0.53969 0.271009 0 -0.142894 0.0165481 0 0 0 0)
(0.831473 0.483994 0 -0.209435 -0.0882395 0 0 0 0)
(0.7393 0.14472 0 -0.144526 -0.178474 0 0 0 0)
(0.671027 -0.302153 0 -0.239203 -0.203627 0 0 0 0)
(0.361758 -0.421372 0 -0.316545 -0.0729818 0 0 0 0)
(0.232558 -0.333372 0 -0.3693 0.0260625 0 0 0 0)
(0.125641 -0.280435 0 -0.292378 0.14534 0 0 0 0)
(0.0901746 -0.215217 0 -0.214701 0.197494 0 0 0 0)
(0.0917801 -0.147122 0 -0.142043 0.232192 0 0 0 0)
(0.0575325 -0.114311 0 -0.102829 0.238038 0 0 0 0)
(0.0253707 -0.0885899 0 -0.0865344 0.231785 0 0 0 0)
(0.00943527 -0.0707209 0 -0.0682159 0.225886 0 0 0 0)
(0.037518 -0.0493318 0 -0.0476177 0.222429 0 0 0 0)
(0.0809406 -0.0295718 0 -0.0278054 0.221631 0 0 0 0)
(0.122268 -0.0156515 0 -0.0140984 0.220391 0 0 0 0)
(0.151384 -0.00877958 0 -0.00722227 0.218916 0 0 0 0)
(0.168057 -0.00599336 0 -0.0047902 0.217679 0 0 0 0)
(0.17678 -0.00450674 0 -0.00402404 0.216619 0 0 0 0)
(0.181753 -0.00182147 0 -0.00350274 0.215997 0 0 0 0)
(0.185199 -0.00126446 0 -0.00286702 0.21616 0 0 0 0)
(0.188521 -0.00386487 0 -0.00222712 0.215739 0 0 0 0)
(0.19193 -0.00351441 0 -0.00168705 0.214741 0 0 0 0)
(0.19472 -0.00129845 0 -0.00125339 0.214294 0 0 0 0)
(0.196792 -0.000530034 0 -0.000966343 0.214071 0 0 0 0)
(0.198429 -0.000473259 0 -0.000793812 0.213877 0 0 0 0)
(0.199191 0.000324366 0 -0.000695808 0.21355 0 0 0 0)
(0.200024 -0.00149191 0 -0.000442676 0.213741 0 0 0 0)
(0.199102 0.00104478 0 -0.000881992 0.212816 0 0 0 0)
(0.195333 -0.000958279 0 -0.000674401 0.213724 0 0 0 0)
(0.191264 0.00102281 0 -0.00036796 0.212441 0 0 0 0)
(0.185869 0.000360913 0 8.03347e-05 0.213523 0 0 0 0)
(0.179341 0.00416378 0 0.00101684 0.212598 0 0 0 0)
(0.173238 -0.00170441 0 0.00132211 0.214222 0 0 0 0)
(0.164706 0.00948979 0 0.00231044 0.212957 0 0 0 0)
(0.155799 -0.00172816 0 0.00157423 0.215066 0 0 0 0)
(0.135955 0.0146752 0 0.00439598 0.214476 0 0 0 0)
(0.116406 0.00105891 0 0.00506848 0.214915 0 0 0 0)
(-0.00380309 0.0618154 0 0.0163817 0.216408 0 0 0 0)
(0.896502 0.113654 0 -0.0135416 0.243415 0 0 0 0)
(0.956997 0.0163777 0 -0.0369286 0.243032 0 0 0 0)
(0.508021 0.21321 0 0.000767742 0.0635405 0 0 0 0)
(0.81424 0.373895 0 -0.0382184 -0.040158 0 0 0 0)
(0.6647 0.0752936 0 -0.0232923 -0.12933 0 0 0 0)
(0.559065 -0.233351 0 -0.231723 -0.186553 0 0 0 0)
(0.316358 -0.300247 0 -0.25522 0.00457417 0 0 0 0)
(0.241365 -0.249881 0 -0.276798 0.0593122 0 0 0 0)
(0.193928 -0.208622 0 -0.23095 0.139551 0 0 0 0)
(0.150077 -0.178391 0 -0.167363 0.187795 0 0 0 0)
(0.131587 -0.129924 0 -0.133486 0.212879 0 0 0 0)
(0.0791834 -0.113218 0 -0.105314 0.221874 0 0 0 0)
(0.0391958 -0.0933324 0 -0.0948857 0.218699 0 0 0 0)
(0.0287114 -0.0735452 0 -0.0738722 0.217066 0 0 0 0)
(0.0572033 -0.0502469 0 -0.0505232 0.217435 0 0 0 0)
(0.096813 -0.0300282 0 -0.0301419 0.218364 0 0 0 0)
(0.131818 -0.0167186 0 -0.0166675 0.217945 0 0 0 0)
(0.155697 -0.00996519 0 -0.00969982 0.217122 0 0 0 0)
(0.169568 -0.00702651 0 -0.00681807 0.216098 0 0 0 0)
(0.177404 -0.00527846 0 -0.0055225 0.215144 0 0 0 0)
(0.182305 -0.00200477 0 -0.00455352 0.214624 0 0 0 0)
(0.185783 -0.00136404 0 -0.00357474 0.214864 0 0 0 0)
(0.189039 -0.00454205 0 -0.00266772 0.214477 0 0 0 0)
(0.192335 -0.00421982 0 -0.0019002 0.213469 0 0 0 0)
(0.194993 -0.0016361 0 -0.00124143 0.212989 0 0 0 0)
(0.196927 -0.000743138 0 -0.000720362 0.212738 0 0 0 0)
(0.198455 -0.00074972 0 -0.000297976 0.212529 0 0 0 0)
(0.199271 0.000231818 0 6.59854e-05 0.212121 0 0 0 0)
(0.199788 -0.00183263 0 0.000683495 0.212289 0 0 0 0)
(0.198788 0.00103114 0 0.000537662 0.211437 0 0 0 0)
(0.195381 -0.00109927 0 0.00114292 0.212256 0 0 0 0)
(0.191373 0.000920115 0 0.00192008 0.211223 0 0 0 0)
(0.186222 0.000492672 0 0.00290436 0.212011 0 0 0 0)
(0.179539 0.00450986 0 0.00439804 0.211577 0 0 0 0)