/*--------------------------------*- C++ -*----------------------------------*\
| =========                 |                                                 |
| \\      /  F ield         | OpenFOAM: The Open Source CFD Toolbox           |
|  \\    /   O peration     | Version:  v1912                                 |
|   \\  /    A nd           | Website:  www.openfoam.com                      |
|    \\/     M anipulation  |                                                 |
\*---------------------------------------------------------------------------*/
FoamFile
{
    version     2.0;
    format      ascii;
    class       volScalarField;
    location    "6.2";
    object      p;
}
// * * * * * * * * * * * * * * * * * * * * * * * * * * * * * * * * * * * * * //

dimensions      [1 -1 -2 0 0 0 0];


internalField   nonuniform List<scalar> 
1900
(
31628.6
9621.31
8782.57
8748.36
8705.87
8694.3
8697.02
8712.69
8720.47
8726.77
31628.5
9621.24
8782.45
8748.22
8706.16
8695.01
8698.46
8712.29
8730.36
8734.46
31628.5
9621.2
8782.44
8748.32
8706.66
8695.84
8698.51
8710.08
8722.98
8722.49
31628.5
9621.24
8782.45
8748.22
8706.16
8695.01
8698.46
8712.29
8730.36
8734.46
31628.6
9621.31
8782.57
8748.36
8705.87
8694.3
8697.02
8712.69
8720.47
8726.77
8855.2
8699.2
8637.88
8462.05
8714.65
8724.96
8618.86
8560.28
8385.93
8266.61
8690.89
8599.28
8544.28
8404.76
8293.78
8724.96
8618.86
8560.28
8385.93
8266.61
8855.2
8699.2
8637.88
8462.05
8714.65
3641.19
2062.58
1353.19
1214.44
1246.25
4105.53
2281.92
1477.16
1288.17
1324.83
4217.54
2242.31
1431.5
1245.58
1286.52
4105.53
2281.92
1477.16
1288.17
1324.83
3641.19
2062.58
1353.19
1214.44
1246.25
1006.18
685.479
540.961
654.902
1167.97
1431.7
1493.73
1492.86
1393.89
1218.72
998.066
805.798
697.841
644.537
607.112
574.142
544.733
520.447
504.135
494.753
489.272
485.386
482.086
479.188
476.787
475.11
474.151
474.155
475.241
477.442
480.189
484.342
488.764
496.721
506.769
524.039
539.039
568.454
646.889
640.327
1144.84
733.803
520.011
602.122
1166.12
1467.85
1533.7
1523.79
1410.82
1227.44
1002.68
807.648
698.413
644.722
607.262
574.294
544.873
520.48
504.122
494.734
489.256
485.372
482.073
479.175
476.771
475.092
474.131
474.133
475.218
477.421
480.166
484.322
488.733
496.716
506.751
524.083
539.028
568.426
646.618
639.551
1113.83
713.047
516.879
585.232
1149.93
1464.28
1527.1
1517.06
1407.81
1227.26
1004.23
808.627
698.69
644.791
607.327
574.366
544.915
520.498
504.12
494.728
489.251
485.369
482.071
479.171
476.767
475.086
474.124
474.125
475.209
477.412
480.156
484.312
488.72
496.712
506.746
524.101
539.025
568.46
646.517
639.368
1144.84
733.803
520.011
602.122
1166.12
1467.85
1533.7
1523.79
1410.82
1227.44
1002.68
807.648
698.413
644.722
607.262
574.294
544.873
520.48
504.122
494.734
489.256
485.372
482.073
479.175
476.771
475.092
474.131
474.133
475.218
477.421
480.166
484.322
488.733
496.716
506.751
524.083
539.028
568.426
646.618
639.551
1006.18
685.479
540.961
654.902
1167.97
1431.7
1493.73
1492.86
1393.89
1218.72
998.066
805.798
697.841
644.537
607.112
574.142
544.733
520.447
504.135
494.753
489.272
485.386
482.086
479.188
476.787
475.11
474.151
474.155
475.241
477.442
480.189
484.342
488.764
496.721
506.769
524.039
539.039
568.454
646.889
640.327
955.74
796.148
775.059
841.015
1192.31
1380.75
1457.7
1449.16
1353.56
1188.93
979.979
797.229
694.731
643.437
606.441
573.31
543.985
520.177
504.13
494.817
489.334
485.435
482.13
479.236
476.845
475.18
474.228
474.238
475.328
477.522
480.272
484.411
488.87
496.714
506.771
523.8
539.107
568.619
647.277
641.31
991.859
899.106
920.203
1031.07
1195.13
1299.8
1337.72
1333.27
1264.17
1121.27
933.171
774.014
686.899
640.693
604.487
571.219
542.325
519.479
504.086
494.985
489.508
485.576
482.258
479.375
477.011
475.376
474.442
474.468
475.567
477.746
480.497
484.615
489.128
496.794
506.706
523.306
539.313
569.904
649.155
643
947.42
894.54
959.227
1017.05
1098.49
1191.67
1248.05
1227.72
1163.28
1033.46
872.365
745.444
677.181
636.331
601.117
568.184
540.118
518.483
503.98
495.226
489.793
485.831
482.497
479.633
477.307
475.713
474.805
474.858
475.962
478.118
480.87
484.96
489.543
496.987
506.652
522.737
539.582
571.672
651.219
644.578
932.715
903.962
932.822
961.708
1028.55
1090.88
1134.11
1124.13
1059.28
941.588
811.37
718.233
666.855
630.625
596.522
564.44
537.597
517.384
503.904
495.578
490.225
486.24
482.897
480.058
477.779
476.23
475.356
475.438
476.535
478.655
481.403
485.461
490.1
497.33
506.669
522.29
539.905
573.566
653.719
646.651
892.1
894.885
876.606
889.965
935.793
1010.51
1039.98
1021.23
956.233
855.869
758.748
694.847
655.807
623.495
590.804
560.134
534.932
516.342
503.957
496.109
490.864
486.872
483.528
480.72
478.489
476.985
476.148
476.25
477.319
479.383
482.105
486.117
490.779
497.802
506.81
522.048
540.197
575.273
655.968
648.355
822.129
832.926
794.847
832.148
884.461
941.133
951.522
925.547
863.82
784.997
718.301
675.743
645.309
615.953
584.77
555.844
532.56
515.657
504.358
496.987
491.865
487.881
484.544
481.771
479.587
478.127
477.322
477.426
478.453
480.444
483.124
487.08
491.737
498.584
507.306
522.267
540.886
577.233
658.579
650.347
779.905
794.582
751.697
785.027
847.327
873.14
871.5
841.759
787.905
731.73
688.509
659.478
634.715
607.567
578.221
551.529
530.474
515.341
505.133
498.231
493.25
489.293
485.97
483.232
481.088
479.659
478.87
478.938
479.887
481.769
484.364
488.223
492.822
499.487
507.944
522.65
541.708
578.96
660.677
652.153
758.484
772.237
723.838
746.851
809.771
810.1
801.649
771.547
729.626
693.737
666.582
646.277
625.235
599.723
572.334
548.066
529.27
515.881
506.673
500.205
495.362
491.438
488.133
485.42
483.302
481.89
481.091
481.088
481.932
483.675
486.147
489.877
494.38
500.867
509.123
523.591
543.206
581.143
663.448
654.902
748.478
755.991
702.469
717.412
765.424
756.476
742.171
716.898
689.219
668.031
650.609
635.084
615.916
591.811
566.716
545.161
528.691
516.899
508.621
502.567
497.875
494.005
490.731
488.049
485.959
484.562
483.721
483.626
484.353
485.939
488.26
491.841
496.221
502.549
510.642
524.859
544.971
583.54
666.269
657.793
742.419
742.304
682.877
693.981
718.133
709.299
694.66
678.51
662.511
650.159
638.75
625.891
607.613
584.932
562.28
543.476
529.322
519.011
511.559
505.88
501.338
497.522
494.268
491.599
489.509
488.084
487.161
486.951
487.517
488.923
491.069
494.474
498.718
504.895
512.885
526.849
547.503
586.771
669.908
661.67
734.964
729.066
664.551
668.897
675.236
670.852
662.643
654.975
645.803
638.209
629.623
617.474
599.682
578.789
558.892
542.721
530.491
521.48
514.724
509.381
505.001
501.28
498.099
495.494
493.449
492.031
491.065
490.782
491.201
492.451
494.444
497.707
501.848
507.942
515.905
529.703
550.972
591.049
674.535
666.512
724.34
715.586
646.685
641.577
648.025
647.186
644.217
640.295
635.024
630.419
623.209
611.001
593.537
574.385
557.396
543.79
533.281
525.376
519.216
514.174
509.946
506.298
503.157
500.576
498.532
497.083
496.052
495.682
495.935
497.019
498.869
501.996
506.064
512.105
520.121
533.838
555.742
596.637
680.22
672.787
717.806
707.225
633.845
623.052
635.213
635.553
634.622
632.628
629.24
625.385
618.041
605.361
588.731
571.868
557.435
545.785
536.755
529.677
523.933
519.105
515.042
511.571
508.611
506.184
504.239
502.83
501.781
501.349
501.456
502.41
504.149
507.194
511.252
517.337
525.513
539.304
561.993
603.797
687.214
680.118
717.019
704.688
628.453
614.979
629.026
629.733
630.402
629.721
627.644
623.598
614.941
601.976
586.917
572.896
560.825
551.196
543.638
537.533
532.405
527.927
524.012
520.516
517.412
514.789
512.638
511.048
509.821
509.216
509.111
509.936
511.56
514.523
518.606
524.77
533.161
547.197
570.703
613.158
695.814
689.358
718.896
705.36
627.859
613.654
629.834
630.672
632.171
631.429
629.161
623.803
614.178
601.965
588.976
577.175
567.356
559.578
553.345
548.103
543.444
539.164
535.356
531.934
528.797
525.996
523.578
521.719
520.222
519.4
519.107
519.821
521.37
524.375
528.631
535.066
543.876
558.438
582.97
625.835
706.698
699.863
726.208
712.463
636.392
621.904
639.519
640.362
641.97
640.614
637.308
630.723
620.998
609.907
598.831
589.268
581.366
575.055
569.891
565.469
561.461
557.62
553.927
550.279
546.742
543.556
540.825
538.783
537.133
536.229
535.799
536.284
537.681
540.655
545.072
551.857
561.247
576.711
602.462
645.146
722.279
713.261
740.993
730.748
661.349
645.94
663.314
662.255
662.239
658.621
653.044
645.071
635.014
624.712
614.816
606.25
598.838
592.463
586.825
581.758
577.181
573.066
569.514
566.432
563.811
561.695
559.941
558.754
557.759
557.617
557.851
559.065
561.32
565.172
570.614
578.42
589.012
605.827
632.257
672.69
742.494
727.217
765.448
751.232
703.072
685.998
701.05
696.004
692.083
684.288
675.203
665.308
654.631
644.884
636.026
628.509
621.844
615.911
610.574
605.875
601.846
598.514
596.162
594.735
593.984
593.792
593.916
594.463
594.863
595.905
597.097
599.335
602.676
607.617
614.278
623.055
634.302
650.921
675.157
708.564
756.07
722.816
1728.21
738.082
747.83
739.982
746.527
739.416
733.042
724.479
715.561
707.637
699.848
693.354
687.766
683.32
679.629
676.64
674.18
672.127
670.361
669.015
668.594
668.91
669.608
670.585
671.821
673.614
675.032
677.362
679.51
682.584
686.483
691.671
698.341
706.568
716.118
729.395
746.07
757.571
717.195
1462.32
29140.3
1501
675.253
682.817
681.692
675.958
669.787
664.62
658.83
655.434
652.449
650.963
650.283
650.622
651.574
653.058
654.742
656.323
657.594
658.607
659.865
661.287
662.606
663.703
664.738
666.186
667.609
670.102
672.55
676.002
680.216
686.041
693.195
702.463
712.081
724.116
734.614
725.395
1394.92
24724
29140.3
1501
675.253
682.817
681.692
675.958
669.787
664.62
658.83
655.434
652.449
650.963
650.283
650.622
651.574
653.058
654.742
656.323
657.594
658.607
659.865
661.287
662.606
663.703
664.738
666.186
667.609
670.102
672.55
676.002
680.216
686.041
693.195
702.463
712.081
724.116
734.614
725.395
1394.92
24724
1728.21
738.082
747.83
739.982
746.527
739.416
733.042
724.479
715.561
707.637
699.848
693.354
687.766
683.32
679.629
676.64
674.18
672.127
670.361
669.015
668.594
668.91
669.608
670.585
671.821
673.614
675.032
677.362
679.51
682.584
686.483
691.671
698.341
706.568
716.118
729.395
746.07
757.571
717.195
1462.32
765.448
751.232
703.072
685.998
701.05
696.004
692.083
684.288
675.203
665.308
654.631
644.884
636.026
628.509
621.844
615.911
610.574
605.875
601.846
598.514
596.162
594.735
593.984
593.792
593.916
594.463
594.863
595.905
597.097
599.335
602.676
607.617
614.278
623.055
634.302
650.921
675.157
708.564
756.07
722.816
740.993
730.748
661.349
645.94
663.314
662.255
662.239
658.621
653.044
645.071
635.014
624.712
614.816
606.25
598.838
592.463
586.825
581.758
577.181
573.066
569.514
566.432
563.811
561.695
559.941
558.754
557.759
557.617
557.851
559.065
561.32
565.172
570.614
578.42
589.012
605.827
632.257
672.69
742.494
727.217
726.208
712.463
636.392
621.904
639.519
640.362
641.97
640.614
637.308
630.723
620.998
609.907
598.831
589.268
581.366
575.055
569.891
565.469
561.461
557.62
553.927
550.279
546.742
543.556
540.825
538.783
537.133
536.229
535.799
536.284
537.681
540.655
545.072
551.857
561.247
576.711
602.462
645.146
722.279
713.261
718.896
705.36
627.859
613.654
629.834
630.672
632.171
631.429
629.161
623.803
614.178
601.965
588.976
577.175
567.356
559.578
553.345
548.103
543.444
539.164
535.356
531.934
528.797
525.996
523.578
521.719
520.222
519.4
519.107
519.821
521.37
524.375
528.631
535.066
543.876
558.438
582.97
625.835
706.698
699.863
717.019
704.688
628.453
614.979
629.026
629.733
630.402
629.721
627.644
623.598
614.941
601.976
586.917
572.896
560.825
551.196
543.638
537.533
532.405
527.927
524.012
520.516
517.412
514.789
512.638
511.048
509.821
509.216
509.111
509.936
511.56
514.523
518.606
524.77
533.161
547.197
570.703
613.158
695.814
689.358
717.806
707.225
633.845
623.052
635.213
635.553
634.622
632.628
629.24
625.385
618.041
605.361
588.731
571.868
557.435
545.785
536.755
529.677
523.933
519.105
515.042
511.571
508.611
506.184
504.239
502.83
501.781
501.349
501.456
502.41
504.149
507.194
511.252
517.337
525.513
539.304
561.993
603.797
687.214
680.118
724.34
715.586
646.685
641.577
648.025
647.186
644.217
640.295
635.024
630.419
623.209
611.001
593.537
574.385
557.396
543.79
533.281
525.376
519.216
514.174
509.946
506.298
503.157
500.576
498.532
497.083
496.052
495.682
495.935
497.019
498.869
501.996
506.064
512.105
520.121
533.838
555.742
596.637
680.22
672.787
734.964
729.066
664.551
668.897
675.236
670.852
662.643
654.975
645.803
638.209
629.623
617.474
599.682
578.789
558.892
542.721
530.491
521.48
514.724
509.381
505.001
501.28
498.099
495.494
493.449
492.031
491.065
490.782
491.201
492.451
494.444
497.707
501.848
507.942
515.905
529.703
550.972
591.049
674.535
666.512
742.419
742.304
682.877
693.981
718.133
709.299
694.66
678.51
662.511
650.159
638.75
625.891
607.613
584.932
562.28
543.476
529.322
519.011
511.559
505.88
501.338
497.522
494.268
491.599
489.509
488.084
487.161
486.951
487.517
488.923
491.069
494.474
498.718
504.895
512.885
526.849
547.503
586.771
669.908
661.67
748.478
755.991
702.469
717.412
765.424
756.476
742.171
716.898
689.219
668.031
650.609
635.084
615.916
591.811
566.716
545.161
528.691
516.899
508.621
502.567
497.875
494.005
490.731
488.049
485.959
484.562
483.721
483.626
484.353
485.939
488.26
491.841
496.221
502.549
510.642
524.859
544.971
583.54
666.269
657.793
758.484
772.237
723.838
746.851
809.771
810.1
801.649
771.547
729.626
693.737
666.582
646.277
625.235
599.723
572.334
548.066
529.27
515.881
506.673
500.205
495.362
491.438
488.133
485.42
483.302
481.89
481.091
481.088
481.932
483.675
486.147
489.877
494.38
500.867
509.123
523.591
543.206
581.143
663.448
654.902
779.905
794.582
751.697
785.027
847.327
873.14
871.5
841.759
787.905
731.73
688.509
659.478
634.715
607.567
578.221
551.529
530.474
515.341
505.133
498.231
493.25
489.293
485.97
483.232
481.088
479.659
478.87
478.938
479.887
481.769
484.364
488.223
492.822
499.487
507.944
522.65
541.708
578.96
660.677
652.153
822.129
832.926
794.847
832.148
884.461
941.133
951.522
925.547
863.82
784.997
718.301
675.743
645.309
615.953
584.77
555.844
532.56
515.657
504.358
496.987
491.865
487.881
484.544
481.771
479.587
478.127
477.322
477.426
478.453
480.444
483.124
487.08
491.737
498.584
507.306
522.267
540.886
577.233
658.579
650.347
892.1
894.885
876.606
889.965
935.793
1010.51
1039.98
1021.23
956.233
855.869
758.748
694.847
655.807
623.495
590.804
560.134
534.932
516.342
503.957
496.109
490.864
486.872
483.528
480.72
478.489
476.985
476.148
476.25
477.319
479.383
482.105
486.117
490.779
497.802
506.81
522.048
540.197
575.273
655.968
648.355
932.715
903.962
932.822
961.708
1028.55
1090.88
1134.11
1124.13
1059.28
941.588
811.37
718.233
666.855
630.625
596.522
564.44
537.597
517.384
503.904
495.578
490.225
486.24
482.897
480.058
477.779
476.23
475.356
475.438
476.535
478.655
481.403
485.461
490.1
497.33
506.669
522.29
539.905
573.566
653.719
646.651
947.42
894.54
959.227
1017.05
1098.49
1191.67
1248.05
1227.72
1163.28
1033.46
872.365
745.444
677.181
636.331
601.117
568.184
540.118
518.483
503.98
495.226
489.793
485.831
482.497
479.633
477.307
475.713
474.805
474.858
475.962
478.118
480.87
484.96
489.543
496.987
506.652
522.737
539.582
571.672
651.219
644.578
991.859
899.106
920.203
1031.07
1195.13
1299.8
1337.72
1333.27
1264.17
1121.27
933.171
774.014
686.899
640.693
604.487
571.219
542.325
519.479
504.086
494.985
489.508
485.576
482.258
479.375
477.011
475.376
474.442
474.468
475.567
477.746
480.497
484.615
489.128
496.794
506.706
523.306
539.313
569.904
649.155
643
955.74
796.148
775.059
841.015
1192.31
1380.75
1457.7
1449.16
1353.56
1188.93
979.979
797.229
694.731
643.437
606.441
573.31
543.985
520.177
504.13
494.817
489.334
485.435
482.13
479.236
476.845
475.18
474.228
474.238
475.328
477.522
480.272
484.411
488.87
496.714
506.771
523.8
539.107
568.619
647.277
641.31
)
;

boundaryField
{
    inlet
    {
        type            fixedValue;
        value           uniform 10000;
    }
    outlet
    {
        type            fixedValue;
        value           uniform 1000;
    }
    obstacle
    {
        type            zeroGradient;
    }
    empty
    {
        type            empty;
    }
}


// ************************************************************************* //
