/*--------------------------------*- C++ -*----------------------------------*\
| =========                 |                                                 |
| \\      /  F ield         | OpenFOAM: The Open Source CFD Toolbox           |
|  \\    /   O peration     | Version:  v1912                                 |
|   \\  /    A nd           | Website:  www.openfoam.com                      |
|    \\/     M anipulation  |                                                 |
\*---------------------------------------------------------------------------*/
FoamFile
{
    version     2.0;
    format      ascii;
    class       volScalarField;
    location    "4.14";
    object      p;
}
// * * * * * * * * * * * * * * * * * * * * * * * * * * * * * * * * * * * * * //

dimensions      [1 -1 -2 0 0 0 0];


internalField   nonuniform List<scalar> 
1900
(
30982.4
12960.2
11576.2
11427.9
11223
11011.5
10803.9
10610.8
10438.1
10301.7
30982.3
12960.2
11576.1
11428.3
11224.1
11013.5
10806.4
10611.5
10416.6
10251.9
30982.2
12960.1
11576
11428.2
11223.7
11012.4
10804.6
10609.8
10418.2
10241.7
30982.3
12960.2
11576.1
11428.3
11224.1
11013.5
10806.4
10611.5
10416.6
10251.9
30982.4
12960.2
11576.2
11427.9
11223
11011.5
10803.9
10610.8
10438.1
10301.7
10166.3
10040
9890.51
9679.92
9348.01
10083.3
9937.81
9780.47
9554.8
9187.18
10065.5
9924.98
9764.25
9552.29
9205.16
10083.3
9937.81
9780.47
9554.8
9187.18
10166.3
10040
9890.51
9679.92
9348.01
8293.66
7448.11
6746.8
6087.74
5517.16
8341.01
7485.98
6791.59
6133.28
5443.1
8342.6
7480.12
6777.58
6107.26
5374.18
8341.01
7485.98
6791.59
6133.28
5443.1
8293.66
7448.11
6746.8
6087.74
5517.16
4344.01
2307.99
2582.95
2869.24
2778.26
2635.51
2455.95
2249.72
2125.72
2030.6
1979.67
1940.03
1907.65
1881.12
1859.83
1842.74
1829.05
1818.02
1809.27
1801.91
1795.96
1791
1786.39
1782.3
1778.54
1775.29
1772.6
1770.37
1768.09
1765.09
1760.13
1754.04
1745.58
1739.94
1730.71
1724.69
1711.24
1701.04
1940.44
8590.62
4336.08
2425.39
2629.82
2907.47
2800.78
2645.96
2461.38
2250.38
2126.95
2030.82
1979.92
1940.2
1907.79
1881.23
1859.91
1842.81
1829.11
1818.08
1809.33
1801.96
1796.01
1791.04
1786.43
1782.33
1778.57
1775.32
1772.63
1770.39
1768.11
1765.1
1760.13
1754.04
1745.59
1740.01
1730.8
1724.98
1711.59
1701.54
1941.07
8596.04
4263.48
2634.68
2774.57
2959.53
2817.15
2650.94
2463.89
2251.23
2127.26
2031.06
1980.1
1940.3
1907.87
1881.28
1859.95
1842.85
1829.15
1818.11
1809.36
1801.99
1796.03
1791.07
1786.46
1782.35
1778.59
1775.34
1772.65
1770.41
1768.14
1765.15
1760.21
1754.16
1745.79
1740.36
1731.41
1725.97
1713.15
1703.6
1943.29
8706.92
4336.08
2425.39
2629.82
2907.47
2800.78
2645.96
2461.38
2250.38
2126.95
2030.82
1979.92
1940.2
1907.79
1881.23
1859.91
1842.81
1829.11
1818.08
1809.33
1801.96
1796.01
1791.04
1786.43
1782.33
1778.57
1775.32
1772.63
1770.39
1768.11
1765.1
1760.13
1754.04
1745.59
1740.01
1730.8
1724.98
1711.59
1701.54
1941.07
8596.04
4344.01
2307.99
2582.95
2869.24
2778.26
2635.51
2455.95
2249.72
2125.72
2030.6
1979.67
1940.03
1907.65
1881.12
1859.83
1842.74
1829.05
1818.02
1809.27
1801.91
1795.96
1791
1786.39
1782.3
1778.54
1775.29
1772.6
1770.37
1768.09
1765.09
1760.13
1754.04
1745.58
1739.94
1730.71
1724.69
1711.24
1701.04
1940.44
8590.62
4478.28
2029.57
2363.96
2707.5
2703.05
2594.44
2430.61
2242.47
2117.69
2028.27
1977.75
1938.5
1906.4
1880.13
1859.02
1842.04
1828.42
1817.44
1808.73
1801.4
1795.48
1790.54
1785.94
1781.84
1778.08
1774.82
1772.1
1769.84
1767.53
1764.53
1759.54
1753.5
1745.03
1739.18
1730.01
1723.41
1710.07
1699.19
1941.78
8979.61
4845.66
1803.69
2194.2
2480.47
2551.72
2490.88
2367.79
2215.43
2098.36
2022.54
1973.2
1934.9
1903.5
1877.87
1857.18
1840.44
1826.96
1816.1
1807.49
1800.23
1794.38
1789.49
1784.92
1780.84
1777.08
1773.79
1771.05
1768.74
1766.37
1763.38
1758.37
1752.42
1743.97
1737.64
1728.35
1720.55
1706.88
1694.76
1925.85
8481.28
5312.77
1744.83
2093.4
2333.52
2410.84
2379.75
2289.59
2171.85
2075.8
2011.73
1965.87
1929.33
1899.17
1874.47
1854.36
1837.97
1824.73
1814.05
1805.59
1798.46
1792.7
1787.9
1783.38
1779.32
1775.55
1772.24
1769.43
1767.05
1764.57
1761.58
1756.53
1750.69
1742.25
1735.17
1725.64
1716.28
1701.99
1688.55
1906.78
8350.24
5721.7
1735.45
2015.58
2210.35
2290.55
2274.09
2208.47
2124.49
2050.35
1997.68
1956.18
1922.17
1893.73
1870.18
1850.79
1834.85
1821.93
1811.5
1803.26
1796.3
1790.69
1785.99
1781.52
1777.49
1773.71
1770.35
1767.45
1764.97
1762.33
1759.36
1754.27
1748.5
1740.03
1732.02
1722.02
1711.14
1695.99
1681.82
1893.67
8203.18
5954.57
1722.5
1964.62
2104.71
2181.21
2178.46
2135.44
2077.81
2024.17
1981.23
1944.83
1913.8
1887.43
1865.18
1846.62
1831.24
1818.73
1808.64
1800.68
1793.94
1788.5
1783.93
1779.53
1775.52
1771.71
1768.27
1765.24
1762.62
1759.75
1756.77
1751.56
1745.79
1737.1
1727.92
1717.03
1704.51
1688.37
1673.93
1874.38
8066.53
6078.85
1700.27
1904.28
2016.59
2085.69
2097.08
2073.53
2036.86
1998.91
1964.32
1932.83
1904.93
1880.62
1859.7
1842.03
1827.3
1815.3
1805.63
1798.02
1791.54
1786.31
1781.89
1777.56
1773.56
1769.7
1766.17
1762.95
1760.19
1757.1
1754.18
1748.89
1743.07
1734.19
1723.86
1712.02
1698.16
1681.05
1666.67
1852.27
7851.71
6316.66
1676.39
1852.41
1945.89
2007.5
2028.43
2019.87
2000.13
1973.92
1946.65
1920.05
1895.37
1873.17
1853.69
1837.03
1823.07
1811.69
1802.53
1795.36
1789.18
1784.2
1779.94
1775.66
1771.66
1767.71
1764.02
1760.54
1757.55
1754.09
1751.19
1745.71
1739.64
1730.39
1718.76
1705.63
1690.33
1672.34
1658.88
1826.25
7649.32
5999
1647.62
1801.89
1881.34
1942.61
1972.19
1977.36
1969.87
1952.68
1931.28
1908.61
1886.49
1865.92
1847.59
1831.79
1818.59
1807.86
1799.26
1792.57
1786.75
1782.03
1777.96
1773.74
1769.74
1765.71
1761.91
1758.27
1755.25
1751.63
1749.05
1743.69
1737.48
1728.12
1715.3
1700.75
1684.06
1664.85
1651.51
1782.66
7347.97
5882.92
1623.65
1761.87
1830.96
1891.46
1925.53
1940.04
1941.41
1930.84
1914.8
1895.76
1876.17
1857.26
1840.24
1825.49
1813.2
1803.26
1795.34
1789.2
1783.77
1779.35
1775.46
1771.29
1767.24
1763.09
1759.11
1755.13
1751.94
1747.98
1745.55
1740.1
1733.33
1723.61
1709.37
1693
1675.05
1654.97
1642.96
1737.79
7028.6
5708.6
1597.53
1721.93
1783.2
1845.96
1885.13
1908.1
1917.02
1912.14
1901.39
1885.23
1867.5
1849.52
1833.19
1819
1807.3
1797.94
1790.56
1784.9
1779.82
1775.71
1772.07
1768.05
1764.14
1760.07
1756.22
1752.32
1749.44
1745.66
1743.57
1738.23
1730.52
1719.97
1703.43
1684.22
1662.96
1641.1
1628.8
1664.81
6646.03
5486.04
1574.57
1692.03
1747.16
1811.39
1851.95
1880.09
1893.03
1892.57
1885.51
1871.38
1855.28
1838.34
1823.07
1809.75
1798.91
1790.35
1783.66
1778.55
1773.85
1770.08
1766.68
1762.75
1758.91
1754.81
1750.98
1746.95
1744.16
1740.29
1738.4
1733.32
1725.17
1714.41
1696.45
1674.75
1650.71
1628.32
1616.5
1608.3
6231.15
5212.63
1548.35
1659.16
1711.68
1772
1815.81
1848.32
1865.21
1869.65
1866.69
1855.43
1841.77
1826.29
1812.38
1800.1
1790.23
1782.47
1776.4
1771.73
1767.35
1763.93
1760.84
1757.1
1753.39
1749.3
1745.37
1741.02
1737.92
1733.4
1730.67
1724.73
1714.47
1702.18
1681.46
1656.12
1627.55
1603.59
1592.3
1552.4
5767.43
4890.35
1517.81
1624.42
1680.39
1736.37
1781.52
1818.47
1838.22
1847.27
1847.14
1837.44
1825.49
1811.12
1798.66
1787.64
1779.03
1772.28
1766.95
1762.78
1758.73
1755.66
1752.88
1749.29
1745.68
1741.5
1737.46
1732.73
1729.4
1724.26
1720.82
1714.57
1702.74
1689.6
1665.98
1637.29
1602.82
1576.48
1564.86
1507.2
5270.33
4540.36
1481.92
1582.02
1635.29
1691.57
1744.68
1783.13
1804.91
1818.69
1821.36
1813.94
1805.2
1792.83
1782.99
1774.22
1767.82
1763.06
1759.37
1756.43
1753.11
1750.34
1747.45
1743.25
1738.8
1733.54
1728.38
1722.31
1717.89
1711.49
1705.95
1698.35
1682.83
1666.48
1637.06
1601.84
1562.44
1532.81
1520.86
1461.52
4755.38
4177.85
1436.18
1529.4
1579.69
1633.82
1693.3
1735.85
1766.08
1787.9
1792.67
1788.5
1782.94
1772.67
1765.26
1758.63
1754.19
1750.97
1748.37
1746.04
1743.1
1740.81
1738.26
1734.08
1729.44
1723.58
1717.64
1710.41
1704.63
1696.41
1687.68
1677.27
1657.58
1638.09
1602.37
1560.99
1515.79
1482.17
1468.49
1413.5
4263.11
3796.48
1397.39
1483.35
1529.33
1585.33
1647.22
1694.02
1730.09
1754.73
1761.09
1761.38
1757.81
1749.96
1745.63
1741.31
1739.38
1738.28
1737.82
1737.37
1735.5
1733.22
1729.95
1724.53
1718.54
1711.13
1703.84
1695.29
1688.18
1678.83
1667.45
1655.17
1631.49
1607.41
1567.17
1520.5
1474.13
1437.93
1425.99
1375.98
3793.55
3539.29
1373.19
1448.49
1488.73
1542.72
1605.04
1656.37
1700.75
1720.03
1729.9
1734.43
1731.34
1724.57
1722.26
1719.9
1720.13
1720.88
1721.82
1722.51
1721.3
1719.14
1715.84
1709.8
1702.9
1694.34
1685.94
1676.68
1668.56
1658.4
1645.05
1631.9
1607.42
1582.76
1541.22
1491.49
1442.87
1405.65
1396.49
1354.65
3483.98
3245.27
1379.32
1450.42
1480.61
1528.67
1588.3
1639.58
1684.13
1700.81
1710.14
1714.41
1711.11
1705.82
1704.4
1702.91
1704.31
1706.6
1709.19
1711.56
1711.44
1709.16
1704.85
1697.53
1689.71
1680.47
1671.93
1663.25
1655.25
1646.42
1633.1
1621.01
1597.13
1572.37
1530.93
1480.35
1433.11
1398.64
1391.36
1360.1
3134.83
5350.56
1524.57
1471.13
1474.41
1506.89
1553.97
1601.71
1658.19
1711.76
1770.86
1837.82
1878.25
1914.54
1937.11
1954.87
1965.02
1973.68
1973.63
1977.89
1971.83
1968.99
1971.26
1962.4
1957.43
1942.03
1924.32
1900.82
1863.57
1828.48
1756.69
1695.06
1617.73
1556.63
1495.63
1439.12
1393.85
1365.69
1370
1463.92
5133.11
46461.4
5577.68
3617.74
3992.15
4330.52
4818
5298.05
5787.43
6227.26
6640.21
7014.68
7353.66
7668.15
7934.01
8151.39
8333.68
8472.42
8611.46
8671.96
8722.76
8717.63
8649.5
8586.67
8415.21
8283.35
8048.23
7830.33
7512.18
7182.93
6784.4
6368.05
5912.88
5425.44
4907.04
4397.54
3892.58
3551.74
3162.94
5014.8
42538.6
46461.4
5577.68
3617.74
3992.15
4330.52
4818
5298.05
5787.43
6227.26
6640.21
7014.68
7353.66
7668.15
7934.01
8151.39
8333.68
8472.42
8611.46
8671.96
8722.76
8717.63
8649.5
8586.67
8415.21
8283.35
8048.23
7830.33
7512.18
7182.93
6784.4
6368.05
5912.88
5425.44
4907.04
4397.54
3892.58
3551.74
3162.94
5014.8
42538.6
5350.56
1524.57
1471.13
1474.41
1506.89
1553.97
1601.71
1658.19
1711.76
1770.86
1837.82
1878.25
1914.54
1937.11
1954.87
1965.02
1973.68
1973.63
1977.89
1971.83
1968.99
1971.26
1962.4
1957.43
1942.03
1924.32
1900.82
1863.57
1828.48
1756.69
1695.06
1617.73
1556.63
1495.63
1439.12
1393.85
1365.69
1370
1463.92
5133.11
3245.27
1379.32
1450.42
1480.61
1528.67
1588.3
1639.58
1684.13
1700.81
1710.14
1714.41
1711.11
1705.82
1704.4
1702.91
1704.31
1706.6
1709.19
1711.56
1711.44
1709.16
1704.85
1697.53
1689.71
1680.47
1671.93
1663.25
1655.25
1646.42
1633.1
1621.01
1597.13
1572.37
1530.93
1480.35
1433.11
1398.64
1391.36
1360.1
3134.83
3539.29
1373.19
1448.49
1488.73
1542.72
1605.04
1656.37
1700.75
1720.03
1729.9
1734.43
1731.34
1724.57
1722.26
1719.9
1720.13
1720.88
1721.82
1722.51
1721.3
1719.14
1715.84
1709.8
1702.9
1694.34
1685.94
1676.68
1668.56
1658.4
1645.05
1631.9
1607.42
1582.76
1541.22
1491.49
1442.87
1405.65
1396.49
1354.65
3483.98
3796.48
1397.39
1483.35
1529.33
1585.33
1647.22
1694.02
1730.09
1754.73
1761.09
1761.38
1757.81
1749.96
1745.63
1741.31
1739.38
1738.28
1737.82
1737.37
1735.5
1733.22
1729.95
1724.53
1718.54
1711.13
1703.84
1695.29
1688.18
1678.83
1667.45
1655.17
1631.49
1607.41
1567.17
1520.5
1474.13
1437.93
1425.99
1375.98
3793.55
4177.85
1436.18
1529.4
1579.69
1633.82
1693.3
1735.85
1766.08
1787.9
1792.67
1788.5
1782.94
1772.67
1765.26
1758.63
1754.19
1750.97
1748.37
1746.04
1743.1
1740.81
1738.26
1734.08
1729.44
1723.58
1717.64
1710.41
1704.63
1696.41
1687.68
1677.27
1657.58
1638.09
1602.37
1560.99
1515.79
1482.17
1468.49
1413.5
4263.11
4540.36
1481.92
1582.02
1635.29
1691.57
1744.68
1783.13
1804.91
1818.69
1821.36
1813.94
1805.2
1792.83
1782.99
1774.22
1767.82
1763.06
1759.37
1756.43
1753.11
1750.34
1747.45
1743.25
1738.8
1733.54
1728.38
1722.31
1717.89
1711.49
1705.95
1698.35
1682.83
1666.48
1637.06
1601.84
1562.44
1532.81
1520.86
1461.52
4755.38
4890.35
1517.81
1624.42
1680.39
1736.37
1781.52
1818.47
1838.22
1847.27
1847.14
1837.44
1825.49
1811.12
1798.66
1787.64
1779.03
1772.28
1766.95
1762.78
1758.73
1755.66
1752.88
1749.29
1745.68
1741.5
1737.46
1732.73
1729.4
1724.26
1720.82
1714.57
1702.74
1689.6
1665.98
1637.29
1602.82
1576.48
1564.86
1507.2
5270.33
5212.63
1548.35
1659.16
1711.68
1772
1815.81
1848.32
1865.21
1869.65
1866.69
1855.43
1841.77
1826.29
1812.38
1800.1
1790.23
1782.47
1776.4
1771.73
1767.35
1763.93
1760.84
1757.1
1753.39
1749.3
1745.37
1741.02
1737.92
1733.4
1730.67
1724.73
1714.47
1702.18
1681.46
1656.12
1627.55
1603.59
1592.3
1552.4
5767.43
5486.04
1574.57
1692.03
1747.16
1811.39
1851.95
1880.09
1893.03
1892.57
1885.51
1871.38
1855.28
1838.34
1823.07
1809.75
1798.91
1790.35
1783.66
1778.55
1773.85
1770.08
1766.68
1762.75
1758.91
1754.81
1750.98
1746.95
1744.16
1740.29
1738.4
1733.32
1725.17
1714.41
1696.45
1674.75
1650.71
1628.32
1616.5
1608.3
6231.15
5708.6
1597.53
1721.93
1783.2
1845.96
1885.13
1908.1
1917.02
1912.14
1901.39
1885.23
1867.5
1849.52
1833.19
1819
1807.3
1797.94
1790.56
1784.9
1779.82
1775.71
1772.07
1768.05
1764.14
1760.07
1756.22
1752.32
1749.44
1745.66
1743.57
1738.23
1730.52
1719.97
1703.43
1684.22
1662.96
1641.1
1628.8
1664.81
6646.03
5882.92
1623.65
1761.87
1830.96
1891.46
1925.53
1940.04
1941.41
1930.84
1914.8
1895.76
1876.17
1857.26
1840.24
1825.49
1813.2
1803.26
1795.34
1789.2
1783.77
1779.35
1775.46
1771.29
1767.24
1763.09
1759.11
1755.13
1751.94
1747.98
1745.55
1740.1
1733.33
1723.61
1709.37
1693
1675.05
1654.97
1642.96
1737.79
7028.6
5999
1647.62
1801.89
1881.34
1942.61
1972.19
1977.36
1969.87
1952.68
1931.28
1908.61
1886.49
1865.92
1847.59
1831.79
1818.59
1807.86
1799.26
1792.57
1786.75
1782.03
1777.96
1773.74
1769.74
1765.71
1761.91
1758.27
1755.25
1751.63
1749.05
1743.69
1737.48
1728.12
1715.3
1700.75
1684.06
1664.85
1651.51
1782.66
7347.97
6316.66
1676.39
1852.41
1945.89
2007.5
2028.43
2019.87
2000.13
1973.92
1946.65
1920.05
1895.37
1873.17
1853.69
1837.03
1823.07
1811.69
1802.53
1795.36
1789.18
1784.2
1779.94
1775.66
1771.66
1767.71
1764.02
1760.54
1757.55
1754.09
1751.19
1745.71
1739.64
1730.39
1718.76
1705.63
1690.33
1672.34
1658.88
1826.25
7649.32
6078.85
1700.27
1904.28
2016.59
2085.69
2097.08
2073.53
2036.86
1998.91
1964.32
1932.83
1904.93
1880.62
1859.7
1842.03
1827.3
1815.3
1805.63
1798.02
1791.54
1786.31
1781.89
1777.56
1773.56
1769.7
1766.17
1762.95
1760.19
1757.1
1754.18
1748.89
1743.07
1734.19
1723.86
1712.02
1698.16
1681.05
1666.67
1852.27
7851.71
5954.57
1722.5
1964.62
2104.71
2181.21
2178.46
2135.44
2077.81
2024.17
1981.23
1944.83
1913.8
1887.43
1865.18
1846.62
1831.24
1818.73
1808.64
1800.68
1793.94
1788.5
1783.93
1779.53
1775.52
1771.71
1768.27
1765.24
1762.62
1759.75
1756.77
1751.56
1745.79
1737.1
1727.92
1717.03
1704.51
1688.37
1673.93
1874.38
8066.53
5721.7
1735.45
2015.58
2210.35
2290.55
2274.09
2208.47
2124.49
2050.35
1997.68
1956.18
1922.17
1893.73
1870.18
1850.79
1834.85
1821.93
1811.5
1803.26
1796.3
1790.69
1785.99
1781.52
1777.49
1773.71
1770.35
1767.45
1764.97
1762.33
1759.36
1754.27
1748.5
1740.03
1732.02
1722.02
1711.14
1695.99
1681.82
1893.67
8203.18
5312.77
1744.83
2093.4
2333.52
2410.84
2379.75
2289.59
2171.85
2075.8
2011.73
1965.87
1929.33
1899.17
1874.47
1854.36
1837.97
1824.73
1814.05
1805.59
1798.46
1792.7
1787.9
1783.38
1779.32
1775.55
1772.24
1769.43
1767.05
1764.57
1761.58
1756.53
1750.69
1742.25
1735.17
1725.64
1716.28
1701.99
1688.55
1906.78
8350.24
4845.66
1803.69
2194.2
2480.47
2551.72
2490.88
2367.79
2215.43
2098.36
2022.54
1973.2
1934.9
1903.5
1877.87
1857.18
1840.44
1826.96
1816.1
1807.49
1800.23
1794.38
1789.49
1784.92
1780.84
1777.08
1773.79
1771.05
1768.74
1766.37
1763.38
1758.37
1752.42
1743.97
1737.64
1728.35
1720.55
1706.88
1694.76
1925.85
8481.28
4478.28
2029.57
2363.96
2707.5
2703.05
2594.44
2430.61
2242.47
2117.69
2028.27
1977.75
1938.5
1906.4
1880.13
1859.02
1842.04
1828.42
1817.44
1808.73
1801.4
1795.48
1790.54
1785.94
1781.84
1778.08
1774.82
1772.1
1769.84
1767.53
1764.53
1759.54
1753.5
1745.03
1739.18
1730.01
1723.41
1710.07
1699.19
1941.78
8979.61
)
;

boundaryField
{
    inlet
    {
        type            fixedValue;
        value           uniform 10000;
    }
    outlet
    {
        type            fixedValue;
        value           uniform 1000;
    }
    obstacle
    {
        type            zeroGradient;
    }
    empty
    {
        type            empty;
    }
}


// ************************************************************************* //
