/*--------------------------------*- C++ -*----------------------------------*\
| =========                 |                                                 |
| \\      /  F ield         | OpenFOAM: The Open Source CFD Toolbox           |
|  \\    /   O peration     | Version:  v1912                                 |
|   \\  /    A nd           | Website:  www.openfoam.com                      |
|    \\/     M anipulation  |                                                 |
\*---------------------------------------------------------------------------*/
FoamFile
{
    version     2.0;
    format      ascii;
    class       volScalarField;
    location    "8.98";
    object      rho;
}
// * * * * * * * * * * * * * * * * * * * * * * * * * * * * * * * * * * * * * //

dimensions      [1 -3 0 0 0 0 0];


internalField   nonuniform List<scalar> 
1900
(
7575.79
11143.4
11701.9
12420.8
12819.8
12871.7
12776.7
12666
12556.3
12444.8
7575.78
11143.4
11701.9
12420.8
12819.8
12872
12776.8
12664.8
12570.1
12447.4
7575.78
11143.4
11701.8
12420.8
12820.1
12873
12777.1
12658.7
12558.1
12429.7
7575.78
11143.4
11701.9
12420.8
12819.8
12872
12776.8
12664.8
12570.1
12447.4
7575.79
11143.4
11701.9
12420.8
12819.8
12871.7
12776.7
12666
12556.3
12444.8
12534.2
12332.2
12170
11795.3
11624.5
12367.4
12220.5
12075
11717.9
11211.6
12335.3
12198.6
12072.3
11760.1
11286
12367.4
12220.5
12075
11717.9
11211.6
12534.2
12332.2
12170
11795.3
11624.5
6165.87
4203.03
3250.57
2736.14
2184.98
6798.89
4526.13
3435.09
2879.99
2290.74
6985.59
4483.29
3363.08
2820.73
2215.3
6798.89
4526.13
3435.09
2879.99
2290.74
6165.87
4203.03
3250.57
2736.14
2184.98
2435.16
2694.71
2780.1
2798.6
2781.55
2729.17
2628.64
2510.19
2376.46
2261.62
2167.42
2027.55
1877.54
1858.97
2027.84
2692.69
3053.41
3070.34
3031.46
2938.19
2847.78
2783.4
2745.74
2707.87
2668.15
2591.52
2434.27
2962.92
3063.59
2218.11
1928.23
1987.57
2062.5
2119.27
2185.53
2278.29
2390.39
2511.66
2639.88
2767.69
2206.76
2412.04
2617.76
2611.87
2574.73
2512.5
2424.3
2327.95
2215.9
2125.86
2049.89
1929.86
1805.09
1793
1966.37
2606.24
2980.18
3001.33
2973.27
2901.01
2828.06
2790.56
2760.06
2707.53
2674.29
2600
2435.95
2955.35
3064.73
2223
1929.01
1987.63
2062.58
2119.44
2185.8
2278.73
2391
2512.52
2640.83
2768.59
2172.41
2287.05
2518.99
2550.32
2525.97
2472.57
2393.02
2300.18
2188.86
2102.97
2028.57
1912.12
1791.74
1780.87
1954.93
2591.67
2966.11
2988.09
2961.43
2890.45
2823.56
2787.37
2746.27
2699.18
2674.5
2607.43
2446.44
2962.04
3067.29
2224.7
1929.16
1987.61
2062.54
2119.44
2185.83
2278.67
2390.74
2512.15
2640.44
2768.3
2206.76
2412.04
2617.76
2611.87
2574.73
2512.5
2424.3
2327.95
2215.9
2125.86
2049.89
1929.86
1805.09
1793
1966.37
2606.24
2980.18
3001.33
2973.27
2901.01
2828.06
2790.56
2760.06
2707.53
2674.29
2600
2435.95
2955.35
3064.73
2223
1929.01
1987.63
2062.58
2119.44
2185.8
2278.73
2391
2512.52
2640.83
2768.59
2435.16
2694.71
2780.1
2798.6
2781.55
2729.17
2628.64
2510.19
2376.46
2261.62
2167.42
2027.55
1877.54
1858.97
2027.84
2692.69
3053.41
3070.34
3031.46
2938.19
2847.78
2783.4
2745.74
2707.87
2668.15
2591.52
2434.27
2962.92
3063.59
2218.11
1928.23
1987.57
2062.5
2119.27
2185.53
2278.29
2390.39
2511.66
2639.88
2767.69
3467.64
3370.42
3270.48
3209.52
3164.27
3086.97
2996
2892.8
2760.17
2617.32
2480.02
2299.94
2095.29
2045.01
2202.04
2915.09
3267.02
3269.78
3186.16
3039.38
2893.1
2783.19
2741.3
2751.06
2750.34
2685.17
2522.8
3031.19
3066.93
2195.8
1924.23
1986.39
2061.26
2118.16
2184.59
2277.24
2389.49
2510.79
2639.12
2766.95
4336.22
4083.1
3808.79
3590.95
3434.83
3301.5
3207.52
3114.7
3002.08
2886.92
2757.05
2583
2366.19
2307.34
2463.21
3192.93
3537.34
3520
3382.37
3157
2939.77
2797.86
2711.73
2645.71
2612.12
2548.83
2418.16
2959.79
2978.12
2143.62
1917.47
1983.83
2058.25
2115.26
2182.03
2274.88
2387.61
2509.31
2637.84
2765.32
4583.34
4344.6
4180.2
4005.4
3818.14
3629.5
3461.16
3303.32
3159.08
3038.01
2904.72
2757
2571.87
2473.17
2640
3417.34
3745.01
3718.64
3548.49
3251.37
2980.34
2820.99
2718.71
2649.18
2602.99
2517.48
2388.97
2924.78
2851.07
2067.88
1907.54
1979.39
2053.29
2110.19
2177.23
2271.03
2385.18
2508.06
2636.79
2763.87
4617.06
4383.1
4138.3
3936.65
3751.29
3574.41
3402.06
3223.62
3073.15
2939.5
2773.93
2651.36
2588.18
2588.11
2821.44
3470.05
3674.35
3635.92
3450.43
3152.85
2915.61
2774.87
2679.62
2616.78
2564.2
2463.96
2343.14
2868.06
2702.34
2004.42
1915.55
1990.32
2057.97
2110.09
2173.66
2266.77
2381.53
2506.09
2635.33
2762.4
4579.35
4390.09
4202.69
4007.29
3807.35
3626.82
3439.32
3236.29
3075.01
2904.3
2716.55
2656.41
2638.49
2685.89
3056.78
3519.21
3605.41
3560.35
3346.71
3039.08
2837.16
2719
2628.64
2571.49
2513.8
2403.6
2307.34
2841.33
2595.89
1994.48
1963.28
2037.43
2096.46
2140.61
2193.57
2270.97
2378.36
2502.95
2632.76
2760.28
4511.09
4336.74
4162.65
3973.18
3783.05
3606.88
3422.74
3250.3
3089.27
2872.84
2742.39
2748.81
2756.26
2859.92
3210.51
3475.71
3506.37
3437.22
3178.36
2898.37
2748.17
2644.32
2574.17
2533.19
2488.68
2390.9
2378.99
3011.72
2685.08
2224.56
2222.16
2251.43
2249.99
2239.98
2252.24
2310.8
2399.95
2505.76
2631.06
2758.32
4428.86
4266.77
4106.7
3930.75
3756.75
3582
3398.94
3240.05
3087.76
2894.54
2791.71
2772
2787.2
2919.87
3198.54
3341.52
3347.59
3205.92
2909.89
2744.7
2650.25
2577.4
2578.55
2577.8
2565.55
2546.26
2859.72
3496.13
2964.62
2633.62
2641.15
2629.65
2584.13
2512.61
2451.13
2428.9
2458.27
2535.79
2635.9
2756.11
4338.96
4185.19
4030.76
3870.59
3710.41
3545.35
3373.61
3218.54
3061.34
2886.84
2812.39
2802.58
2866.49
3009.18
3131.34
3156.48
3081.44
2868.1
2678.15
2618.56
2623.94
2647.29
2742.62
2943.51
3073.64
3113.6
3514.44
3618.81
3033.82
2870.59
2885.15
2882.26
2855.54
2796.34
2721.88
2658.6
2620.03
2617.36
2666.49
2753.05
4228.15
4084.42
3936.84
3786.57
3633.65
3469.95
3311.79
3173.81
3022.38
2893.64
2862.22
2862.05
2877.23
2921.03
2954.86
2920.05
2728.17
2580.1
2650.82
2694.61
2852.33
3185.61
3453.03
3556.65
3528
3450.17
3636.69
3377.62
2982.74
2969.21
2987.74
2992.92
2990.81
2960.71
2909.78
2859.47
2816.32
2771.75
2743.36
2748.88
4075.45
3948.51
3809.83
3660.7
3499.15
3332.88
3179.43
3041.7
2912.41
2825.69
2798.46
2800.73
2814.72
2810.25
2762.07
2623.32
2639.97
2751.97
2996.34
3342.45
3656.98
3840.7
3905.81
3816.31
3598.14
3405.66
3324.44
3084.01
2971.23
3012.93
3034.34
3034.34
3041.72
3028.55
2993.84
2962.63
2939.33
2910.96
2843.49
2749.23
3876.16
3738.18
3584.19
3428.05
3279.54
3146.02
3031.2
2944.53
2892.37
2839.73
2799.97
2793.77
2799.38
2796.48
2851.02
2940.21
3145.67
3450.15
3753.81
3993.06
4103.3
4060.7
3936.03
3767.83
3476.16
3112.38
2885.68
2894.95
2973.1
3034.6
3061.05
3067.16
3077.58
3067.73
3032.39
2996.67
2970.7
2952.16
2893.73
2747.09
3625.68
3483.4
3349.16
3247.14
3194.51
3171.24
3153.7
3161.68
3200.76
3245.85
3243.28
3227.85
3272.83
3319.91
3411.69
3553.32
3809.05
3994.42
4124.39
4151.96
4131.52
4047.8
3862.65
3588.29
3182.11
2707.12
2580.95
2807.74
2988.18
3053.46
3081.47
3091.8
3102.49
3097.93
3064.4
3024.78
2981.88
2945.69
2886.28
2722.51
3338.81
3274.66
3292.92
3345.22
3378.24
3426.73
3495.73
3577.71
3651.2
3693.55
3716.55
3767.21
3829.32
3822.37
3853.95
3946.82
4054.6
4152.05
4202.75
4178.11
4083.46
3924.02
3681.39
3289.24
2746.2
2389.87
2436.31
2752
2976.08
3054.81
3090.38
3100.62
3112.1
3113.45
3088.17
3046.6
2988.53
2925.07
2841.04
2681.58
3024.57
3156.65
3308.04
3417.66
3455.06
3471.57
3498.56
3543.87
3596.78
3656.8
3769.99
3917.87
4011.04
4056.15
4081.44
4135.79
4186.65
4216.67
4201.69
4108.91
3941.87
3709.21
3339.19
2821.34
2396.14
2279.93
2381
2680.9
2923.43
3022.19
3069.74
3085.48
3103.25
3111.83
3096.39
3055.38
2991.84
2910.32
2802.77
2651.93
2805.48
3007.34
3170.63
3251.76
3297.39
3334.06
3381.03
3448.7
3557.98
3714.2
3888.21
4033.76
4122.5
4191.99
4239.99
4265.5
4249.14
4189.98
4087.66
3931.84
3688.25
3322.9
2847.58
2453.12
2296.88
2282.85
2356.22
2600.37
2848.99
2975.54
3031.22
3051.36
3074.35
3089
3086.98
3054.41
2990.95
2898.06
2773.34
2631.75
2718.52
2867.72
2991.88
3054.09
3111.72
3172.86
3273.63
3401.89
3559.5
3732.61
3912.29
4072.89
4191.82
4265.01
4291.46
4266.01
4187.2
4060.52
3878.96
3624.75
3270.01
2843.91
2509.5
2371.12
2328.33
2337.17
2380.62
2548.31
2777.93
2927.39
2994.25
3017.11
3036.46
3050.07
3054.02
3031.36
2974.4
2880.65
2749.47
2619.7
2642.61
2724.9
2814.32
2881.58
2965.29
3056.93
3174.82
3313.76
3468.56
3638.14
3828.67
4017.45
4166.41
4228.87
4214.56
4136.19
4001.11
3808.55
3541.97
3196.17
2824.9
2563.21
2458.71
2423.47
2417.25
2420.95
2447.97
2536.69
2722.22
2888.9
2963.28
2976.17
2979.82
2986.27
2990.83
2975.75
2937.94
2864.85
2749.66
2625.95
2605.32
2648.67
2722.89
2779.79
2850.81
2940.58
3042.97
3152.48
3275.77
3432.58
3627.84
3824.65
3971.25
4033.02
4004.83
3885.77
3693.1
3436.32
3120.36
2811.33
2618.84
2544.41
2521.72
2523.08
2525.03
2524.42
2533.39
2576.11
2691.25
2849.35
2937.96
2946.01
2924.49
2908.08
2898.6
2882.04
2864.79
2812.85
2732.95
2624.28
2595.16
2624.24
2653.67
2693.5
2748.33
2804.68
2873.45
2951.82
3047.99
3179.95
3347.07
3515.78
3642.57
3679.22
3626.32
3474.3
3256.13
3014.8
2810.13
2688.08
2634.6
2620.67
2627.39
2635.08
2638.13
2637.7
2636.71
2651.43
2701.91
2796.84
2875.85
2893
2852.49
2809.38
2777.22
2753.76
2749.07
2728.35
2739.9
2662.05
2545.71
2539.67
2545.24
2599.2
2663.29
2707.17
2753.51
2825.07
2925.07
3028.69
3100.8
3124.42
3071.6
2969.87
2868.06
2796.3
2746.1
2712.72
2698.1
2701.12
2709.46
2719.13
2728.21
2735.68
2741.2
2745.46
2747.35
2748.63
2747.74
2746.6
2750.04
2736.63
2696.64
2663.19
2638.24
2623.99
2628.5
2621.98
2659.83
2673.75
2545.71
2539.67
2545.24
2599.2
2663.29
2707.17
2753.51
2825.07
2925.07
3028.69
3100.8
3124.42
3071.6
2969.87
2868.06
2796.3
2746.1
2712.72
2698.1
2701.12
2709.46
2719.13
2728.21
2735.68
2741.2
2745.46
2747.35
2748.63
2747.74
2746.6
2750.04
2736.63
2696.64
2663.19
2638.24
2623.99
2628.5
2621.98
2659.83
2673.75
2595.16
2624.24
2653.67
2693.5
2748.33
2804.68
2873.45
2951.82
3047.99
3179.95
3347.07
3515.78
3642.57
3679.22
3626.32
3474.3
3256.13
3014.8
2810.13
2688.08
2634.6
2620.67
2627.39
2635.08
2638.13
2637.7
2636.71
2651.43
2701.91
2796.84
2875.85
2893
2852.49
2809.38
2777.22
2753.76
2749.07
2728.35
2739.9
2662.05
2605.32
2648.67
2722.89
2779.79
2850.81
2940.58
3042.97
3152.48
3275.77
3432.58
3627.84
3824.65
3971.25
4033.02
4004.83
3885.77
3693.1
3436.32
3120.36
2811.33
2618.84
2544.41
2521.72
2523.08
2525.03
2524.42
2533.39
2576.11
2691.25
2849.35
2937.96
2946.01
2924.49
2908.08
2898.6
2882.04
2864.79
2812.85
2732.95
2624.28
2642.61
2724.9
2814.32
2881.58
2965.29
3056.93
3174.82
3313.76
3468.56
3638.14
3828.67
4017.45
4166.41
4228.87
4214.56
4136.19
4001.11
3808.55
3541.97
3196.17
2824.9
2563.21
2458.71
2423.47
2417.25
2420.95
2447.97
2536.69
2722.22
2888.9
2963.28
2976.17
2979.82
2986.27
2990.83
2975.75
2937.94
2864.85
2749.66
2625.95
2718.52
2867.72
2991.88
3054.09
3111.72
3172.86
3273.63
3401.89
3559.5
3732.61
3912.29
4072.89
4191.82
4265.01
4291.46
4266.01
4187.2
4060.52
3878.96
3624.75
3270.01
2843.91
2509.5
2371.12
2328.33
2337.17
2380.62
2548.31
2777.93
2927.39
2994.25
3017.11
3036.46
3050.07
3054.02
3031.36
2974.4
2880.65
2749.47
2619.7
2805.48
3007.34
3170.63
3251.76
3297.39
3334.06
3381.03
3448.7
3557.98
3714.2
3888.21
4033.76
4122.5
4191.99
4239.99
4265.5
4249.14
4189.98
4087.66
3931.84
3688.25
3322.9
2847.58
2453.12
2296.88
2282.85
2356.22
2600.37
2848.99
2975.54
3031.22
3051.36
3074.35
3089
3086.98
3054.41
2990.95
2898.06
2773.34
2631.75
3024.57
3156.65
3308.04
3417.66
3455.06
3471.57
3498.56
3543.87
3596.78
3656.8
3769.99
3917.87
4011.04
4056.15
4081.44
4135.79
4186.65
4216.67
4201.69
4108.91
3941.87
3709.21
3339.19
2821.34
2396.14
2279.93
2381
2680.9
2923.43
3022.19
3069.74
3085.48
3103.25
3111.83
3096.39
3055.38
2991.84
2910.32
2802.77
2651.93
3338.81
3274.66
3292.92
3345.22
3378.24
3426.73
3495.73
3577.71
3651.2
3693.55
3716.55
3767.21
3829.32
3822.37
3853.95
3946.82
4054.6
4152.05
4202.75
4178.11
4083.46
3924.02
3681.39
3289.24
2746.2
2389.87
2436.31
2752
2976.08
3054.81
3090.38
3100.62
3112.1
3113.45
3088.17
3046.6
2988.53
2925.07
2841.04
2681.58
3625.68
3483.4
3349.16
3247.14
3194.51
3171.24
3153.7
3161.68
3200.76
3245.85
3243.28
3227.85
3272.83
3319.91
3411.69
3553.32
3809.05
3994.42
4124.39
4151.96
4131.52
4047.8
3862.65
3588.29
3182.11
2707.12
2580.95
2807.74
2988.18
3053.46
3081.47
3091.8
3102.49
3097.93
3064.4
3024.78
2981.88
2945.69
2886.28
2722.51
3876.16
3738.18
3584.19
3428.05
3279.54
3146.02
3031.2
2944.53
2892.37
2839.73
2799.97
2793.77
2799.38
2796.48
2851.02
2940.21
3145.67
3450.15
3753.81
3993.06
4103.3
4060.7
3936.03
3767.83
3476.16
3112.38
2885.68
2894.95
2973.1
3034.6
3061.05
3067.16
3077.58
3067.73
3032.39
2996.67
2970.7
2952.16
2893.73
2747.09
4075.45
3948.51
3809.83
3660.7
3499.15
3332.88
3179.43
3041.7
2912.41
2825.69
2798.46
2800.73
2814.72
2810.25
2762.07
2623.32
2639.97
2751.97
2996.34
3342.45
3656.98
3840.7
3905.81
3816.31
3598.14
3405.66
3324.44
3084.01
2971.23
3012.93
3034.34
3034.34
3041.72
3028.55
2993.84
2962.63
2939.33
2910.96
2843.49
2749.23
4228.15
4084.42
3936.84
3786.57
3633.65
3469.95
3311.79
3173.81
3022.38
2893.64
2862.22
2862.05
2877.23
2921.03
2954.86
2920.05
2728.17
2580.1
2650.82
2694.61
2852.33
3185.61
3453.03
3556.65
3528
3450.17
3636.69
3377.62
2982.74
2969.21
2987.74
2992.92
2990.81
2960.71
2909.78
2859.47
2816.32
2771.75
2743.36
2748.88
4338.96
4185.19
4030.76
3870.59
3710.41
3545.35
3373.61
3218.54
3061.34
2886.84
2812.39
2802.58
2866.49
3009.18
3131.34
3156.48
3081.44
2868.1
2678.15
2618.56
2623.94
2647.29
2742.62
2943.51
3073.64
3113.6
3514.44
3618.81
3033.82
2870.59
2885.15
2882.26
2855.54
2796.34
2721.88
2658.6
2620.03
2617.36
2666.49
2753.05
4428.86
4266.77
4106.7
3930.75
3756.75
3582
3398.94
3240.05
3087.76
2894.54
2791.71
2772
2787.2
2919.87
3198.54
3341.52
3347.59
3205.92
2909.89
2744.7
2650.25
2577.4
2578.55
2577.8
2565.55
2546.26
2859.72
3496.13
2964.62
2633.62
2641.15
2629.65
2584.13
2512.61
2451.13
2428.9
2458.27
2535.79
2635.9
2756.11
4511.09
4336.74
4162.65
3973.18
3783.05
3606.88
3422.74
3250.3
3089.27
2872.84
2742.39
2748.81
2756.26
2859.92
3210.51
3475.71
3506.37
3437.22
3178.36
2898.37
2748.17
2644.32
2574.17
2533.19
2488.68
2390.9
2378.99
3011.72
2685.08
2224.56
2222.16
2251.43
2249.99
2239.98
2252.24
2310.8
2399.95
2505.76
2631.06
2758.32
4579.35
4390.09
4202.69
4007.29
3807.35
3626.82
3439.32
3236.29
3075.01
2904.3
2716.55
2656.41
2638.49
2685.89
3056.78
3519.21
3605.41
3560.35
3346.71
3039.08
2837.16
2719
2628.64
2571.49
2513.8
2403.6
2307.34
2841.33
2595.89
1994.48
1963.28
2037.43
2096.46
2140.61
2193.57
2270.97
2378.36
2502.95
2632.76
2760.28
4617.06
4383.1
4138.3
3936.65
3751.29
3574.41
3402.06
3223.62
3073.15
2939.5
2773.93
2651.36
2588.18
2588.11
2821.44
3470.05
3674.35
3635.92
3450.43
3152.85
2915.61
2774.87
2679.62
2616.78
2564.2
2463.96
2343.14
2868.06
2702.34
2004.42
1915.55
1990.32
2057.97
2110.09
2173.66
2266.77
2381.53
2506.09
2635.33
2762.4
4583.34
4344.6
4180.2
4005.4
3818.14
3629.5
3461.16
3303.32
3159.08
3038.01
2904.72
2757
2571.87
2473.17
2640
3417.34
3745.01
3718.64
3548.49
3251.37
2980.34
2820.99
2718.71
2649.18
2602.99
2517.48
2388.97
2924.78
2851.07
2067.88
1907.54
1979.39
2053.29
2110.19
2177.23
2271.03
2385.18
2508.06
2636.79
2763.87
4336.22
4083.1
3808.79
3590.95
3434.83
3301.5
3207.52
3114.7
3002.08
2886.92
2757.05
2583
2366.19
2307.34
2463.21
3192.93
3537.34
3520
3382.37
3157
2939.77
2797.86
2711.73
2645.71
2612.12
2548.83
2418.16
2959.79
2978.12
2143.62
1917.47
1983.83
2058.25
2115.26
2182.03
2274.88
2387.61
2509.31
2637.84
2765.32
3467.64
3370.42
3270.48
3209.52
3164.27
3086.97
2996
2892.8
2760.17
2617.32
2480.02
2299.94
2095.29
2045.01
2202.04
2915.09
3267.02
3269.78
3186.16
3039.38
2893.1
2783.19
2741.3
2751.06
2750.34
2685.17
2522.8
3031.19
3066.93
2195.8
1924.23
1986.39
2061.26
2118.16
2184.59
2277.24
2389.49
2510.79
2639.12
2766.95
)
;

boundaryField
{
    inlet
    {
        type            calculated;
        value           uniform 14000.1;
    }
    outlet
    {
        type            calculated;
        value           nonuniform List<scalar> 
165
(
3488.19
4472.08
4693.5
4723.86
4679.55
4603.35
4515.4
4420.07
4301.49
4136.92
3941.93
3694.59
3360.92
2966.53
2652.32
2601.09
2626.19
2657.66
2687.6
2731.98
2731.98
2714.51
2718.4
2726.69
2721.13
2713.69
2704.06
2684.99
2648.39
2594.2
2532.43
2477.15
2446.87
2452.96
2501.45
2576.99
2656.05
2714.66
2745.27
2763.15
2774.13
2781.24
2788.03
2795.54
2802.85
2809.21
2813.62
2813.85
2807.75
2785.66
2749.09
2701.15
2664.6
2628.59
2607.4
2602.67
2603.19
2614.41
2613.82
2615.71
2831.61
2831.64
2831.36
2830.48
2829.33
2828.29
2826.47
2821.07
2804.97
2774.19
2729.88
2684.19
2648.82
2614.92
2597.49
2597.49
2599.42
2611.36
2612.11
2615.71
2832.24
2832.53
2832.96
2832.53
2832.24
2615.71
2612.11
2611.36
2599.42
2597.49
2597.49
2614.92
2648.82
2684.19
2729.88
2774.19
2804.97
2821.07
2826.47
2828.29
2829.33
2830.48
2831.36
2831.64
2831.61
2731.98
2714.51
2718.4
2726.69
2721.13
2713.69
2704.06
2684.99
2648.39
2594.2
2532.43
2477.15
2446.87
2452.96
2501.45
2576.99
2656.05
2714.66
2745.27
2763.15
2774.13
2781.24
2788.03
2795.54
2802.85
2809.21
2813.62
2813.85
2807.75
2785.66
2749.09
2701.15
2664.6
2628.59
2607.4
2602.67
2603.19
2614.41
2613.82
2615.71
2731.98
2687.6
2657.66
2626.19
2601.09
2652.32
2966.53
3360.92
3694.59
3941.93
4136.92
4301.49
4420.07
4515.4
4603.35
4679.55
4723.86
4693.5
4472.08
3488.19
)
;
    }
    obstacle
    {
        type            calculated;
        value           nonuniform List<scalar> 
40
(
7575.79
11143.4
11701.9
12420.8
12819.8
12871.7
12776.7
12666
12556.3
12444.8
7575.79
11143.4
11701.9
12420.8
12819.8
12871.7
12776.7
12666
12556.3
12444.8
12534.2
12332.2
12170
11795.3
11624.5
12534.2
12332.2
12170
11795.3
11624.5
6165.87
4203.03
3250.57
2736.14
2184.98
6165.87
4203.03
3250.57
2736.14
2184.98
)
;
    }
    empty
    {
        type            empty;
    }
}


// ************************************************************************* //
