/*--------------------------------*- C++ -*----------------------------------*\
| =========                 |                                                 |
| \\      /  F ield         | OpenFOAM: The Open Source CFD Toolbox           |
|  \\    /   O peration     | Version:  v1912                                 |
|   \\  /    A nd           | Website:  www.openfoam.com                      |
|    \\/     M anipulation  |                                                 |
\*---------------------------------------------------------------------------*/
FoamFile
{
    version     2.0;
    format      ascii;
    class       volScalarField;
    location    "8.3";
    object      p;
}
// * * * * * * * * * * * * * * * * * * * * * * * * * * * * * * * * * * * * * //

dimensions      [0 2 -2 0 0 0 0];


internalField   nonuniform List<scalar> 
10000
(
3.04993e-06
0.00010106
-0.000122375
-0.000712136
-0.00161828
-0.00278443
-0.00415338
-0.00567023
-0.00728521
-0.00895432
-0.0106389
-0.0123052
-0.0139239
-0.0154696
-0.0169202
-0.0182567
-0.0194629
-0.0205251
-0.0214315
-0.0221726
-0.0227406
-0.0231292
-0.0233338
-0.023351
-0.0231786
-0.0228158
-0.0222626
-0.02152
-0.02059
-0.0194753
-0.0181796
-0.016707
-0.0150625
-0.0132516
-0.0112804
-0.00915558
-0.00688422
-0.00447398
-0.0019329
0.00073056
0.00350757
0.00638894
0.00936515
0.0124263
0.0155624
0.0187631
0.0220176
0.0253153
0.0286451
0.031996
0.0353567
0.0387157
0.0420618
0.0453834
0.048669
0.0519073
0.0550869
0.0581965
0.061225
0.0641615
0.0669953
0.069716
0.0723135
0.0747781
0.0771005
0.0792719
0.081284
0.0831291
0.0848002
0.0862909
0.0875956
0.0887098
0.0896294
0.0903516
0.0908746
0.0911976
0.0913211
0.0912468
0.0909778
0.0905185
0.0898751
0.0890551
0.0880681
0.0869254
0.0856405
0.0842289
0.0827087
0.0811007
0.0794284
0.0777189
0.0760026
0.0743141
0.0726922
0.071181
0.069829
0.0686894
0.0678161
0.0672605
0.0670653
0.0671764
-9.04238e-05
6.13347e-06
-0.000211362
-0.000738393
-0.00152388
-0.00252824
-0.00370956
-0.00502446
-0.00643169
-0.00789343
-0.00937549
-0.0108473
-0.0122819
-0.0136553
-0.0149466
-0.0161377
-0.0172127
-0.0181583
-0.0189628
-0.0196167
-0.020112
-0.0204424
-0.020603
-0.0205899
-0.020401
-0.0200347
-0.0194908
-0.01877
-0.0178737
-0.0168042
-0.0155648
-0.014159
-0.0125915
-0.0108672
-0.00899178
-0.00697136
-0.0048126
-0.00252262
-0.000108964
0.00242041
0.00505719
0.00779269
0.0106179
0.0135236
0.0165001
0.0195376
0.0226262
0.0257554
0.028915
0.0320943
0.0352827
0.0384695
0.0416437
0.0447945
0.0479111
0.0509826
0.0539984
0.0569477
0.0598201
0.0626053
0.0652933
0.0678742
0.0703387
0.0726775
0.0748822
0.0769444
0.0788566
0.0806115
0.0822028
0.0836247
0.0848721
0.0859409
0.0868277
0.0875301
0.0880467
0.0883771
0.0885221
0.0884838
0.0882654
0.0878717
0.0873088
0.0865843
0.0857078
0.0846902
0.0835448
0.0822866
0.080933
0.0795037
0.0780209
0.0765098
0.0749983
0.0735175
0.0721019
0.0707889
0.0696189
0.0686335
0.0678721
0.0673707
0.0671759
0.0672875
0.000133264
0.000224488
7.20456e-06
-0.000487564
-0.00120445
-0.00211048
-0.00317168
-0.00435191
-0.0056161
-0.00693136
-0.00826735
-0.00959651
-0.010894
-0.0121377
-0.0133079
-0.0143874
-0.0153611
-0.0162159
-0.0169407
-0.0175261
-0.0179641
-0.0182484
-0.0183739
-0.0183369
-0.0181347
-0.0177657
-0.0172294
-0.0165262
-0.0156572
-0.0146245
-0.0134307
-0.0120793
-0.0105745
-0.00892074
-0.00712341
-0.00518821
-0.00312141
-0.000929689
0.0013798
0.00379953
0.00632159
0.00893774
0.0116394
0.0144178
0.0172637
0.0201678
0.0231205
0.0261119
0.0291322
0.0321713
0.035219
0.0382649
0.0412988
0.0443102
0.0472889
0.0502244
0.0531067
0.0559255
0.0586708
0.061333
0.0639025
0.06637
0.0687265
0.0709634
0.0730727
0.0750466
0.076878
0.0785601
0.080087
0.0814534
0.0826547
0.0836869
0.0845473
0.0852336
0.0857449
0.0860809
0.0862428
0.0862328
0.0860542
0.0857118
0.0852117
0.0845617
0.0837707
0.0828498
0.0818115
0.0806703
0.0794427
0.0781474
0.0768051
0.0754391
0.074075
0.072741
0.0714675
0.070287
0.069234
0.0683432
0.0676465
0.0671744
0.0669803
0.0670932
0.000721976
0.000752419
0.000502886
7.29461e-06
-0.000683155
-0.00153858
-0.00252937
-0.00362434
-0.00479304
-0.00600661
-0.00723809
-0.00846267
-0.00965773
-0.0108029
-0.0118798
-0.0128724
-0.0137664
-0.0145494
-0.0152106
-0.0157409
-0.0161327
-0.0163796
-0.0164768
-0.0164203
-0.0162075
-0.0158367
-0.0153072
-0.0146191
-0.0137733
-0.0127717
-0.0116167
-0.0103115
-0.00885983
-0.00726607
-0.00553514
-0.00367246
-0.00168393
0.000424091
0.00264483
0.0049711
0.00739537
0.00990976
0.0125061
0.0151759
0.0179104
0.0207007
0.0235376
0.0264116
0.0293133
0.0322329
0.0351607
0.0380868
0.0410014
0.0438943
0.0467558
0.049576
0.052345
0.0550531
0.0576909
0.060249
0.0627183
0.0650899
0.0673553
0.0695063
0.0715353
0.0734349
0.0751982
0.0768192
0.078292
0.0796118
0.0807743
0.0817758
0.0826139
0.0832865
0.0837929
0.0841331
0.0843083
0.0843208
0.084174
0.0838726
0.0834227
0.0828316
0.0821083
0.0812633
0.0803084
0.0792576
0.0781265
0.0769323
0.0756946
0.0744346
0.0731759
0.0719437
0.0707651
0.0696689
0.068685
0.0678436
0.0671728
0.0667006
0.0664783
0.06654
0.00162837
0.00154063
0.00122197
0.00069691
3.95411e-06
-0.000830262
-0.0017797
-0.00281756
-0.00391751
-0.00505437
-0.00620433
-0.00734523
-0.00845669
-0.00952012
-0.0105187
-0.0114375
-0.0122632
-0.0129841
-0.0135901
-0.0140724
-0.0144237
-0.0146379
-0.0147103
-0.0146369
-0.0144152
-0.0140433
-0.0135204
-0.0128466
-0.0120227
-0.0110502
-0.00993139
-0.00866915
-0.007267
-0.00572905
-0.00405992
-0.00226475
-0.000349107
0.00168096
0.00381902
0.00605822
0.00839137
0.0108109
0.0133091
0.0158778
0.0185085
0.0211928
0.0239218
0.0266865
0.0294777
0.0322862
0.0351025
0.0379172
0.0407208
0.0435037
0.0462565
0.0489695
0.0516335
0.0542392
0.0567773
0.059239
0.0616156
0.0638986
0.0660799
0.0681517
0.0701065
0.0719376
0.0736383
0.0752029
0.076626
0.0779028
0.0790295
0.0800026
0.0808199
0.0814795
0.0819809
0.0823242
0.0825106
0.0825425
0.0824233
0.0821575
0.081751
0.081211
0.0805459
0.0797658
0.078882
0.0779074
0.0768567
0.075746
0.0745932
0.0734179
0.0722411
0.0710857
0.0699756
0.068936
0.0679931
0.0671729
0.0665005
0.0660012
0.0657154
0.0656693
0.00279926
0.00255211
0.0021337
0.00155348
0.000832295
-6.60212e-06
-0.000940331
-0.00194609
-0.00300132
-0.00408417
-0.00517378
-0.00625053
-0.00729619
-0.00829399
-0.00922868
-0.0100865
-0.0108551
-0.0115237
-0.0120828
-0.0125242
-0.0128409
-0.0130272
-0.0130784
-0.0129908
-0.0127619
-0.0123899
-0.0118738
-0.0112137
-0.0104102
-0.00946485
-0.00837956
-0.0071571
-0.00580076
-0.00431439
-0.00270236
-0.000969533
0.00087877
0.00283682
0.00489847
0.00705721
0.00930616
0.0116381
0.0140456
0.0165208
0.0190557
0.0216421
0.0242714
0.0269352
0.0296245
0.0323304
0.035044
0.037756
0.0404574
0.043139
0.0457917
0.0484063
0.0509738
0.0534852
0.055932
0.0583053
0.060597
0.0627988
0.0649031
0.0669023
0.0687895
0.0705579
0.0722015
0.0737145
0.0750921
0.0763297
0.0774235
0.0783706
0.0791685
0.0798158
0.080312
0.0806572
0.0808527
0.0809008
0.0808048
0.0805692
0.0801995
0.0797025
0.0790864
0.0783604
0.0775354
0.0766233
0.0756378
0.0745937
0.0735074
0.0723966
0.0712803
0.0701787
0.0691132
0.0681057
0.0671787
0.0663547
0.0656558
0.0651046
0.0647252
0.0645299
0.00418159
0.00374827
0.00320692
0.0025499
0.00177819
0.000911825
-2.9048e-05
-0.00102527
-0.00205771
-0.00310754
-0.00415659
-0.00518763
-0.0061845
-0.00713221
-0.008017
-0.00882638
-0.00954911
-0.0101752
-0.0106959
-0.0111035
-0.0113917
-0.0115549
-0.0115887
-0.0114898
-0.0112556
-0.0108844
-0.0103753
-0.00972824
-0.00894388
-0.00802351
-0.00696906
-0.00578308
-0.00446866
-0.00302944
-0.00146959
0.000206276
0.00199309
0.00388536
0.00587725
0.0079625
0.0101346
0.0123865
0.0147112
0.0171011
0.0195485
0.0220456
0.0245841
0.0271558
0.0297522
0.0323647
0.0349847
0.0376033
0.0402117
0.0428012
0.045363
0.0478881
0.0503681
0.0527942
0.0551581
0.0574515
0.0596663
0.0617948
0.0638295
0.0657633
0.0675894
0.0693013
0.0708934
0.07236
0.0736965
0.0748986
0.0759628
0.076886
0.0776662
0.0783019
0.0787926
0.0791385
0.0793409
0.079402
0.0793249
0.0791139
0.0787743
0.0783124
0.0777359
0.0770535
0.0762752
0.0754122
0.074477
0.0734832
0.0724457
0.0713805
0.0703045
0.0692357
0.0681928
0.0671949
0.0662613
0.0654111
0.0646641
0.0640398
0.0635437
0.063172
0.00572533
0.00508961
0.00440875
0.00365787
0.00281748
0.00190473
0.000937478
-6.84244e-05
-0.00109693
-0.00213196
-0.00315784
-0.00415954
-0.00512285
-0.00603448
-0.00688214
-0.0076546
-0.0083417
-0.00893434
-0.0094245
-0.00980519
-0.0100704
-0.0102152
-0.0102354
-0.0101278
-0.00989009
-0.00952069
-0.00901878
-0.00838428
-0.00761779
-0.00672054
-0.0056944
-0.00454177
-0.00326562
-0.00186939
-0.000357056
0.00126697
0.00299785
0.00483031
0.00675875
0.0087772
0.0108794
0.0130586
0.015308
0.0176204
0.0199884
0.0224043
0.0248604
0.0273486
0.0298607
0.0323885
0.0349237
0.0374577
0.0399821
0.0424883
0.0449678
0.0474123
0.0498133
0.0521625
0.0544517
0.0566731
0.0588189
0.0608815
0.0628537
0.0647288
0.0665
0.0681614
0.0697072
0.0711323
0.072432
0.0736022
0.0746396
0.0755412
0.0763051
0.0769298
0.0774148
0.0777604
0.0779677
0.0780387
0.0779765
0.0777849
0.077469
0.0770348
0.0764893
0.0758407
0.0750982
0.074272
0.0733737
0.0724155
0.071411
0.0703745
0.069321
0.0682665
0.0672272
0.0662197
0.0652604
0.0643654
0.0635523
0.0628379
0.0622083
0.0616432
0.00738595
0.00653908
0.0057076
0.00484999
0.00392655
0.00295207
0.00194251
0.00091078
-0.000129861
-0.0011658
-0.00218362
-0.00317035
-0.00411359
-0.00500165
-0.00582368
-0.00656965
-0.00723048
-0.00779799
-0.00826491
-0.00862489
-0.00887249
-0.00900313
-0.00901308
-0.00889943
-0.00866
-0.0082934
-0.0077989
-0.00717646
-0.00642669
-0.0055508
-0.00455058
-0.00342837
-0.00218701
-0.000829806
0.000639438
0.0022165
0.00389671
0.00567505
0.0075461
0.00950411
0.011543
0.0136565
0.0158379
0.0180803
0.0203765
0.0227192
0.0251008
0.0275136
0.0299497
0.0324013
0.03486
0.0373179
0.0397666
0.042198
0.0446038
0.0469758
0.049306
0.0515862
0.0538088
0.0559658
0.0580499
0.0600537
0.0619703
0.063793
0.0655155
0.0671319
0.0686366
0.0700247
0.0712916
0.0724334
0.0734468
0.074329
0.0750779
0.0756923
0.0761715
0.0765157
0.0767259
0.0768041
0.076753
0.0765762
0.0762783
0.075865
0.0753427
0.0747189
0.0740021
0.0732017
0.0723281
0.0713925
0.070407
0.0693843
0.0683379
0.0672816
0.0662296
0.0651962
0.0641953
0.06324
0.0623463
0.0615288
0.0607544
0.0599864
0.00912479
0.00806314
0.00707412
0.00610042
0.00508287
0.00403438
0.00296945
0.00189837
0.000831971
-0.000218362
-0.00124126
-0.0022256
-0.00316069
-0.00403635
-0.00484305
-0.00557197
-0.00621504
-0.006765
-0.00721534
-0.0075604
-0.00779527
-0.00791583
-0.00791874
-0.00780139
-0.00756187
-0.00719895
-0.00671205
-0.0061012
-0.00536705
-0.00451081
-0.00353425
-0.00243962
-0.00122971
9.22842e-05
0.0015227
0.00305748
0.00469213
0.0064218
0.00824127
0.010145
0.0121272
0.0141816
0.0163019
0.0184814
0.0207133
0.0229903
0.0253053
0.0276506
0.0300188
0.0324021
0.0347926
0.0371825
0.0395638
0.0419284
0.0442686
0.0465762
0.0488434
0.0510625
0.0532259
0.055326
0.0573555
0.0593074
0.0611749
0.0629515
0.064631
0.0662078
0.0676764
0.0690319
0.07027
0.0713868
0.0723789
0.0732437
0.0739792
0.0745839
0.0750572
0.0753992
0.0756108
0.0756936
0.0756501
0.0754837
0.0751987
0.0748
0.0742938
0.0736867
0.0729866
0.072202
0.0713422
0.0704175
0.0694385
0.0684166
0.0673636
0.0662917
0.0652132
0.0641402
0.0630842
0.0620562
0.0610706
0.0601405
0.0592139
0.0582389
0.0109084
0.00963179
0.00848145
0.00738515
0.00626516
0.00513301
0.0040021
0.0028805
0.00177687
0.000700647
-0.000338629
-0.00133155
-0.00226895
-0.00314207
-0.00394263
-0.00466294
-0.00529593
-0.00583521
-0.00627505
-0.00661043
-0.00683703
-0.00695121
-0.00695002
-0.00683116
-0.00659301
-0.00623456
-0.00575538
-0.00515563
-0.00443601
-0.00359776
-0.00264263
-0.00157286
-0.000391163
0.000899324
0.00229505
0.00379208
0.00538609
0.00707238
0.00884591
0.0107013
0.012633
0.0146349
0.0167009
0.0188246
0.0209992
0.023218
0.0254737
0.0277593
0.0300672
0.0323901
0.0347203
0.0370501
0.0393718
0.0416777
0.04396
0.046211
0.048423
0.0505885
0.0527
0.0547502
0.0567321
0.0586387
0.0604635
0.0622
0.0638423
0.0653847
0.0668219
0.0681493
0.0693624
0.0704574
0.071431
0.0722806
0.073004
0.0735998
0.0740673
0.0744065
0.0746179
0.0747032
0.0746644
0.0745045
0.0742275
0.073838
0.0733413
0.0727437
0.0720521
0.0712743
0.0704188
0.0694945
0.068511
0.0674785
0.0664073
0.0653079
0.0641909
0.0630667
0.0619448
0.0608341
0.0597481
0.0586985
0.0576154
0.0564326
0.0127081
0.0112184
0.00990521
0.00868201
0.00745349
0.00623022
0.00502487
0.0038436
0.00269318
0.00158135
0.000516015
-0.000494934
-0.00144376
-0.00232299
-0.00312553
-0.00384474
-0.0044745
-0.00500925
-0.00544403
-0.00577449
-0.00599685
-0.00610796
-0.0061053
-0.0059869
-0.00575142
-0.00539809
-0.00492667
-0.00433745
-0.00363124
-0.00280931
-0.00187345
-0.000825869
0.000330754
0.00159333
0.0029584
0.0044221
0.00598024
0.00762828
0.00936132
0.0111742
0.0130614
0.0150171
0.0170354
0.01911
0.0212344
0.023402
0.0256059
0.027839
0.0300943
0.0323643
0.0346418
0.0369192
0.0391891
0.0414438
0.0436759
0.0458778
0.048042
0.0501612
0.052228
0.0542354
0.0561763
0.0580442
0.0598323
0.0615346
0.0631452
0.0646583
0.066069
0.0673724
0.0685643
0.0696408
0.0705987
0.0714351
0.0721481
0.072736
0.0731979
0.0735337
0.0737439
0.0738296
0.0737928
0.0736362
0.073363
0.0729776
0.0724847
0.07189
0.0711998
0.0704209
0.069561
0.068628
0.0676306
0.0665775
0.0654778
0.0643407
0.0631753
0.0619904
0.0607938
0.0595925
0.0583996
0.0572258
0.0559842
0.0545951
0.014499
0.0127996
0.0113234
0.00997073
0.00862937
0.00730933
0.00602286
0.00477449
0.0035694
0.0024138
0.0013142
0.000277103
-0.00069102
-0.00158389
-0.0023955
-0.00312022
-0.0037528
-0.00428851
-0.00472309
-0.00505283
-0.00527453
-0.00538553
-0.00538371
-0.00526748
-0.00503578
-0.00468807
-0.00422433
-0.003645
-0.00295102
-0.00214374
-0.00122498
-0.000196953
0.000937678
0.00217587
0.0035142
0.00494889
0.00647584
0.00809063
0.0097885
0.0115644
0.013413
0.0153287
0.0173057
0.0193378
0.0214187
0.0235421
0.0257012
0.0278892
0.0300991
0.0323237
0.0345559
0.0367884
0.0390139
0.041225
0.0434142
0.0455744
0.047698
0.049778
0.0518071
0.0537783
0.0556849
0.0575203
0.0592779
0.0609518
0.0625359
0.0640249
0.0654137
0.0666974
0.0678718
0.0689331
0.069878
0.0707036
0.0714077
0.0719887
0.0724455
0.0727778
0.0729858
0.0730705
0.0730334
0.072877
0.072604
0.0722183
0.0717242
0.0711267
0.0704314
0.0696445
0.0687726
0.0678231
0.0668032
0.065721
0.0645842
0.0634008
0.0621786
0.0609251
0.0596466
0.0583487
0.057044
0.055743
0.0543425
0.0527499
0.0162594
0.0143543
0.0127163
0.0112328
0.00977564
0.00835465
0.00698186
0.00566046
0.00439423
0.00318809
0.0020473
0.00097716
-1.70152e-05
-0.000930027
-0.00175688
-0.00249286
-0.00313357
-0.00367504
-0.00411369
-0.00444643
-0.0046706
-0.00478406
-0.00478508
-0.00467245
-0.0044454
-0.00410365
-0.00364738
-0.00307721
-0.00239422
-0.00159986
-0.000696002
0.000315094
0.00143078
0.00264804
0.00396348
0.0053734
0.00687374
0.00846018
0.0101281
0.0118725
0.0136883
0.01557
0.0175118
0.0195078
0.021552
0.0236379
0.0257591
0.027909
0.0300806
0.032267
0.0344612
0.0366561
0.0388445
0.0410192
0.0431729
0.0452984
0.0473886
0.0494362
0.0514344
0.0533762
0.0552549
0.0570639
0.058797
0.060448
0.0620112
0.063481
0.0648524
0.0661207
0.0672815
0.0683309
0.0692656
0.0700827
0.0707798
0.0713551
0.0718074
0.0721362
0.0723415
0.0724239
0.0723847
0.0722259
0.07195
0.0715603
0.0710605
0.0704552
0.0697492
0.0689481
0.0680579
0.0670848
0.0660354
0.0649166
0.0637353
0.0624983
0.0612123
0.0598837
0.0585176
0.0571184
0.0556986
0.0542685
0.0527097
0.0509171
0.0179705
0.0158643
0.0140661
0.0124512
0.0108765
0.00935151
0.00788843
0.00648928
0.00515667
0.00389441
0.00270666
0.00159765
0.000571679
-0.000367043
-0.00121444
-0.00196665
-0.00262008
-0.00317147
-0.0036179
-0.00395685
-0.00418622
-0.0043043
-0.00430983
-0.00420195
-0.00398019
-0.00364454
-0.00319539
-0.00263355
-0.00196022
-0.00117699
-0.00028581
0.000711002
0.00181079
0.00301054
0.0043069
0.00569619
0.00717443
0.00873734
0.0103804
0.0120987
0.0138873
0.0157408
0.0176536
0.0196199
0.0216337
0.0236888
0.0257789
0.0278974
0.0300377
0.032193
0.0343563
0.0365207
0.0386792
0.0408245
0.0429497
0.0450477
0.0471113
0.0491335
0.0511075
0.0530263
0.0548834
0.0566722
0.0583866
0.0600203
0.0615678
0.0630235
0.0643822
0.0656392
0.0667901
0.0678311
0.0687585
0.0695695
0.0702615
0.0708326
0.0712814
0.071607
0.0718093
0.0718885
0.0718458
0.0716825
0.0714011
0.0710041
0.0704949
0.0698774
0.069156
0.0683355
0.0674212
0.0664186
0.0653334
0.0641718
0.0629397
0.061643
0.0602875
0.0588786
0.0574203
0.0559162
0.0543789
0.0528188
0.0511029
0.0491142
0.0196159
0.0173128
0.0153566
0.0136107
0.0119172
0.0102862
0.00872981
0.00724924
0.00584604
0.00452311
0.00328362
0.00213089
0.00106827
9.91178e-05
-0.000773336
-0.00154602
-0.00221609
-0.00278096
-0.00323832
-0.00358623
-0.00382307
-0.00394762
-0.00395899
-0.00385671
-0.00364064
-0.00331103
-0.00286848
-0.00231398
-0.00164889
-0.000874937
5.83694e-06
0.000991046
0.00207799
0.00326365
0.00454469
0.00591747
0.00737803
0.00892215
0.0105453
0.0122429
0.0140098
0.0158408
0.0177306
0.0196733
0.021663
0.0236939
0.0257594
0.0278534
0.0299692
0.0321003
0.0342397
0.0363806
0.0385161
0.0406392
0.0427428
0.04482
0.0468639
0.0488674
0.0508237
0.052726
0.0545678
0.0563425
0.0580439
0.059666
0.061203
0.0626494
0.064
0.0652501
0.0663951
0.067431
0.0683543
0.0691618
0.0698508
0.0704193
0.0708656
0.0711886
0.071388
0.0714636
0.0714162
0.071247
0.0709578
0.0705509
0.0700291
0.0693959
0.0686549
0.0678105
0.0668673
0.0658301
0.064704
0.0634942
0.062206
0.0608445
0.0594147
0.0579211
0.0563671
0.0547554
0.053099
0.0514085
0.049537
0.0473562
0.0211807
0.0186853
0.0165733
0.0146969
0.0128844
0.0111458
0.00949395
0.0079291
0.00645199
0.0050647
0.00376958
0.0025691
0.00146581
0.000462268
-0.00043905
-0.0012358
-0.00192581
-0.00250714
-0.00297808
-0.0033372
-0.00358339
-0.00371584
-0.00373409
-0.003638
-0.00342776
-0.00310389
-0.00266724
-0.00211897
-0.0014606
-0.000693981
0.00017873
0.00115506
0.00223225
0.00340726
0.00467674
0.00603707
0.00748434
0.00901436
0.0106227
0.0123047
0.0140553
0.0158696
0.0177421
0.0196673
0.0216393
0.0236521
0.0256998
0.0277758
0.0298739
0.0319874
0.0341097
0.036234
0.0383535
0.0404611
0.0425501
0.0446134
0.0466442
0.0486356
0.0505807
0.0524729
0.0543055
0.0560721
0.0577664
0.0593823
0.0609141
0.0623563
0.0637035
0.064951
0.066094
0.0671286
0.0680508
0.0688576
0.069546
0.0701137
0.0705589
0.0708802
0.0710769
0.0711488
0.0710962
0.0709199
0.0706213
0.0702023
0.0696654
0.0690133
0.0682494
0.0673773
0.0664011
0.065325
0.0641534
0.062891
0.0615423
0.0601118
0.0586037
0.0570221
0.0553695
0.0536481
0.0518715
0.0500506
0.0480253
0.0456562
0.022652
0.0199683
0.0177029
0.0156969
0.0137653
0.0119184
0.0101694
0.00851812
0.00696449
0.00550991
0.00415601
0.0029045
0.00175723
0.000716022
-0.000217312
-0.00104109
-0.00175378
-0.00235403
-0.00284069
-0.00321286
-0.00346986
-0.00361132
-0.00363714
-0.00354755
-0.00334304
-0.00302442
-0.00259276
-0.00204944
-0.00139613
-0.000634812
0.000232244
0.00120248
0.00227305
0.00344086
0.00470256
0.00605452
0.00749285
0.0090134
0.0106118
0.0122833
0.0140232
0.0158263
0.0176874
0.0196009
0.0215613
0.0235625
0.0255986
0.0276632
0.0297502
0.0318529
0.0339648
0.0360793
0.0381894
0.0402885
0.0423695
0.0444257
0.0464501
0.0484359
0.0503763
0.0522646
0.0540943
0.0558587
0.0575516
0.059167
0.060699
0.0621419
0.0634905
0.0647397
0.0658849
0.0669218
0.0678464
0.0686553
0.0693456
0.0699146
0.0703603
0.0706811
0.070876
0.0709444
0.0708863
0.0707022
0.070393
0.0699604
0.0694062
0.0687328
0.0679431
0.0670402
0.0660276
0.0649091
0.0636884
0.0623696
0.0609567
0.0594536
0.057864
0.0561915
0.0544381
0.0526056
0.050708
0.0487571
0.0465795
0.0440254
0.0240179
0.0211497
0.0187331
0.0165987
0.0145481
0.0125924
0.0107453
0.00900598
0.00737383
0.00584965
0.00443443
0.00312928
0.00193534
0.000853829
-0.000114084
-0.000967313
-0.0017049
-0.00232604
-0.00283012
-0.00321671
-0.00348559
-0.0036368
-0.00367061
-0.00358755
-0.00338843
-0.00307433
-0.00264658
-0.00210675
-0.0014567
-0.000698536
0.000165361
0.00113233
0.00219946
0.00336358
0.0046213
0.00596897
0.00740272
0.00891842
0.0105117
0.0121779
0.0139123
0.0157098
0.0175652
0.0194731
0.0214278
0.0234236
0.0254544
0.0275142
0.0295965
0.031695
0.0338033
0.0359145
0.0380222
0.0401193
0.0421991
0.0442548
0.0462794
0.0482662
0.0502083
0.0520991
0.0539318
0.0557001
0.0573975
0.0590179
0.0605554
0.0620042
0.0633589
0.0646145
0.065766
0.0668091
0.0677396
0.0685539
0.0692488
0.0698214
0.0702696
0.0705913
0.0707854
0.0708509
0.0707874
0.0705952
0.0702748
0.0698273
0.0692544
0.0685579
0.0677401
0.0668039
0.0657522
0.0645882
0.0633153
0.061937
0.0604569
0.0588783
0.0572047
0.055439
0.053583
0.0516381
0.0496191
0.0475384
0.0452101
0.0424741
0.0252676
0.0222183
0.0196527
0.0173909
0.0152219
0.0131572
0.0112113
0.00938274
0.00767056
0.006075
0.00459651
0.00323562
0.0019929
0.00086899
-0.000135527
-0.00102011
-0.00178432
-0.00242788
-0.00295064
-0.00335265
-0.00363413
-0.00379549
-0.00383735
-0.00376059
-0.00356629
-0.00325578
-0.00283066
-0.0022927
-0.00164394
-0.000886649
-2.33142e-05
0.000943308
0.00201022
0.0031742
0.00443177
0.00577927
0.00721281
0.00872827
0.0103213
0.0119873
0.0137215
0.0155189
0.0173743
0.0192824
0.0212375
0.023234
0.0252658
0.027327
0.0294112
0.0315121
0.0336232
0.035738
0.0378497
0.0399516
0.0420369
0.0440987
0.0461301
0.0481243
0.0500746
0.0519741
0.0538161
0.0555942
0.057302
0.0589331
0.0604815
0.0619414
0.0633072
0.0645737
0.0657359
0.0667892
0.0677293
0.0685523
0.0692548
0.0698337
0.0702865
0.070611
0.0708057
0.0708692
0.070801
0.0706008
0.0702689
0.0698059
0.0692132
0.0684921
0.0676447
0.0666731
0.0655801
0.0643683
0.0630407
0.0616004
0.0600505
0.0583941
0.0566342
0.0547735
0.0528135
0.0507552
0.0486145
0.0464043
0.0439267
0.0410111
0.0263912
0.0231639
0.0204512
0.0180631
0.0157761
0.0136025
0.0115573
0.00963882
0.00784551
0.00617722
0.00463395
0.00321573
0.00192261
0.000754678
-0.000287983
-0.00120535
-0.00199748
-0.00266456
-0.00320689
-0.00362494
-0.00391936
-0.00409093
-0.00414064
-0.00406966
-0.00387935
-0.0035713
-0.00314733
-0.00260945
-0.00195988
-0.00120103
-0.000335543
0.00063374
0.00170374
0.00287115
0.00413246
0.00548394
0.00692166
0.0084415
0.0100391
0.01171
0.0134493
0.0152521
0.0171131
0.0190272
0.0209887
0.0229919
0.025031
0.0270999
0.0291924
0.0313022
0.0334228
0.0355477
0.0376701
0.0397834
0.0418807
0.0439553
0.0460001
0.0480083
0.0499731
0.0518876
0.0537452
0.0555392
0.0572631
0.0589106
0.0604755
0.0619518
0.0633338
0.0646161
0.0657935
0.0668613
0.0678149
0.0686502
0.0693635
0.0699515
0.0704115
0.0707409
0.0709378
0.0710007
0.0709286
0.070721
0.0703777
0.0698991
0.069286
0.0685395
0.0676611
0.0666528
0.0655167
0.0642553
0.062871
0.0613667
0.0597451
0.0580089
0.0561609
0.0542037
0.0521384
0.049966
0.0477032
0.0453638
0.0427378
0.0396447
0.0273794
0.0239766
0.0211185
0.0186051
0.0162008
0.0139185
0.0117738
0.00976488
0.00788968
0.0061477
0.00453856
0.00306182
0.00171708
0.000503951
-0.000577966
-0.00152913
-0.00235005
-0.00304134
-0.00360375
-0.00403813
-0.00434552
-0.00452707
-0.00458411
-0.00451812
-0.00433073
-0.00402379
-0.00359932
-0.00305955
-0.00240689
-0.00164393
-0.000773441
0.00020162
0.00127809
0.00245259
0.00372155
0.00508119
0.00652753
0.00805642
0.00966351
0.0113443
0.0130939
0.0149075
0.0167799
0.0187058
0.0206796
0.0226956
0.0247482
0.0268311
0.0289383
0.0310635
0.0332001
0.0353416
0.0374814
0.0396127
0.0417287
0.0438225
0.0458872
0.047916
0.0499018
0.0518377
0.0537171
0.0555332
0.0572793
0.058949
0.0605359
0.0620341
0.0634375
0.0647405
0.0659379
0.0670245
0.0679957
0.0688471
0.0695748
0.0701751
0.070645
0.0709817
0.0711829
0.0712469
0.0711724
0.0709582
0.0706042
0.0701101
0.0694765
0.0687041
0.0677941
0.0667481
0.0655677
0.0642552
0.0628128
0.0612428
0.0595478
0.0577302
0.0557927
0.0537377
0.0515661
0.0492789
0.0468936
0.0444252
0.0416515
0.0383823
0.0282234
0.0246473
0.0216453
0.0190076
0.0164865
0.0140957
0.0118516
0.00975183
0.00779425
0.00597795
0.00430217
0.00276608
0.00136889
0.000109762
-0.00101214
-0.00199772
-0.00284792
-0.00356378
-0.00414641
-0.00459708
-0.00491716
-0.00510816
-0.00517174
-0.00510968
-0.0049239
-0.00461648
-0.00418966
-0.00364588
-0.00298772
-0.00221794
-0.00133947
-0.000355391
0.000731034
0.00191636
0.00319695
0.00456897
0.00602839
0.00757102
0.00919248
0.0108882
0.0126535
0.0144834
0.0163727
0.0183161
0.0203082
0.0223432
0.0244153
0.0265185
0.0286468
0.0307937
0.0329528
0.0351176
0.0372814
0.0394373
0.0415786
0.0436984
0.0457897
0.0478454
0.0498587
0.0518226
0.0537301
0.0555743
0.0573487
0.0590465
0.0606614
0.0621869
0.0636171
0.0649461
0.0661683
0.0672784
0.0682716
0.0691432
0.069889
0.070505
0.070988
0.0713347
0.0715428
0.0716099
0.0715345
0.0713152
0.0709514
0.0704425
0.0697887
0.0689904
0.0680485
0.0669641
0.0657388
0.0643742
0.0628724
0.0612356
0.0594659
0.0575657
0.0555375
0.0533835
0.0511047
0.048702
0.0461939
0.0435962
0.0406751
0.0372307
0.0289149
0.0251672
0.0220226
0.0192613
0.016624
0.014125
0.0117814
0.00959078
0.00755053
0.00565952
0.00391664
0.00232071
0.000870553
-0.000435042
-0.00159733
-0.0026176
-0.00349723
-0.00423763
-0.00484032
-0.00530691
-0.0056391
-0.00583875
-0.00590782
-0.00584839
-0.00566266
-0.00535295
-0.00492174
-0.00437163
-0.00370539
-0.00292596
-0.0020364
-0.00103995
6.00302e-05
0.00126001
0.00255628
0.00394496
0.00542197
0.00698306
0.00862383
0.0103397
0.0121259
0.0139775
0.0158893
0.0178561
0.0198723
0.0219323
0.0240302
0.0261601
0.0283157
0.0304908
0.032679
0.0348736
0.0370679
0.0392552
0.0414285
0.0435808
0.0457053
0.0477947
0.049842
0.0518402
0.0537822
0.0556611
0.05747
0.059202
0.0608506
0.0624093
0.0638717
0.065232
0.0664842
0.0676227
0.0686425
0.0695386
0.0703066
0.0709421
0.0714415
0.0718015
0.0720191
0.0720918
0.0720176
0.0717949
0.0714226
0.0709
0.0702268
0.069403
0.0684293
0.0673064
0.0660357
0.0646185
0.0630566
0.0613519
0.0595066
0.0575228
0.0554028
0.0531489
0.050762
0.0482431
0.0456116
0.0428844
0.0398159
0.0361965
0.0294458
0.0255278
0.0222415
0.0193573
0.0166043
0.0139974
0.0115545
0.00927293
0.00714992
0.00518402
0.00337382
0.00171783
0.000214503
-0.00113773
-0.00234047
-0.00339542
-0.0043043
-0.00506893
-0.00569119
-0.00617302
-0.00651647
-0.00672369
-0.00679695
-0.0067386
-0.00655114
-0.00623712
-0.00579925
-0.00524032
-0.00456327
-0.0037712
-0.00286732
-0.00185502
-0.000737765
0.000480799
0.0017969
0.00320658
0.00470573
0.00629006
0.0079551
0.00969623
0.0115087
0.0133875
0.0153275
0.0173234
0.0193697
0.0214607
0.0235906
0.0257534
0.0279428
0.0301526
0.0323763
0.0346073
0.0368389
0.0390641
0.0412761
0.0434677
0.045632
0.0477617
0.0498498
0.0518889
0.053872
0.0557919
0.0576415
0.059414
0.0611024
0.0627002
0.0642007
0.0655978
0.0668853
0.0680574
0.0691087
0.070034
0.0708284
0.0714874
0.0720071
0.0723837
0.0726139
0.072695
0.0726245
0.0724006
0.0720216
0.0714867
0.0707951
0.0699467
0.0689417
0.0677806
0.0664644
0.0649943
0.0633719
0.0615989
0.0596772
0.0576088
0.0553962
0.0530416
0.0505458
0.0479098
0.0451543
0.042297
0.0390807
0.0352859
0.0298082
0.0257209
0.0222936
0.019287
0.0164186
0.013704
0.011162
0.00878962
0.00658387
0.00454307
0.00266556
0.000949517
-0.000606928
-0.00200567
-0.00324868
-0.00433798
-0.00527568
-0.00606393
-0.00670497
-0.00720109
-0.00755465
-0.0077681
-0.007844
-0.00778497
-0.00759376
-0.00727319
-0.00682619
-0.00625574
-0.00556498
-0.00475713
-0.00383558
-0.00280382
-0.00166547
-0.000424279
0.000915889
0.00235102
0.00387694
0.00548931
0.00718364
0.00895524
0.0107993
0.0127108
0.0146847
0.0167155
0.0187979
0.020926
0.0230941
0.025296
0.0275256
0.0297766
0.0320424
0.0343164
0.0365918
0.0388618
0.0411192
0.0433569
0.0455678
0.0477446
0.0498801
0.0519668
0.0539976
0.0559651
0.057862
0.0596813
0.0614158
0.0630587
0.0646033
0.066043
0.0673714
0.0685825
0.0696704
0.0706298
0.0714554
0.0721424
0.0726864
0.0730834
0.0733298
0.0734224
0.0733584
0.0731357
0.0727523
0.0722068
0.0714985
0.0706266
0.0695912
0.0683925
0.0670312
0.0655083
0.0638251
0.0619834
0.0599847
0.0578313
0.0555253
0.0530691
0.0504635
0.0477097
0.0448293
0.041841
0.0384761
0.0345052
0.0299943
0.0257382
0.0221703
0.0190417
0.0160582
0.0132362
0.0105952
0.0081322
0.00584384
0.00372829
0.00178363
7.75377e-06
-0.00160152
-0.00304641
-0.00432922
-0.0054523
-0.00641808
-0.00722908
-0.00788785
-0.00839702
-0.00875928
-0.00897737
-0.00905411
-0.00899239
-0.00879522
-0.00846566
-0.00800685
-0.007422
-0.00671443
-0.00588752
-0.00494478
-0.00388985
-0.00272647
-0.00145849
-8.99055e-05
0.0013752
0.0029326
0.00457791
0.00630658
0.00811389
0.00999498
0.0119448
0.0139582
0.0160299
0.0181542
0.0203255
0.0225379
0.0247854
0.0270616
0.0293603
0.0316748
0.0339985
0.0363245
0.0386459
0.0409555
0.0432462
0.0455106
0.0477413
0.049931
0.0520722
0.0541574
0.0561792
0.0581301
0.0600027
0.0617898
0.0634843
0.0650791
0.0665674
0.0679425
0.0691982
0.0703283
0.071327
0.0721887
0.0729084
0.0734812
0.0739027
0.0741691
0.0742768
0.0742226
0.074004
0.0736187
0.073065
0.0723417
0.0714479
0.0703833
0.069148
0.0677422
0.0661669
0.0644232
0.0625126
0.0604367
0.0581977
0.0557977
0.0532391
0.0505228
0.0476502
0.0446439
0.0415236
0.0380089
0.0338605
0.0299964
0.0255717
0.0218633
0.0186129
0.0155145
0.0125853
0.00984548
0.007292
0.00492126
0.00273122
0.000719737
-0.00111557
-0.00277718
-0.00426762
-0.00558952
-0.00674554
-0.00773845
-0.00857105
-0.00924625
-0.00976699
-0.0101363
-0.0103571
-0.0104327
-0.010366
-0.0101605
-0.00981927
-0.00934579
-0.00874348
-0.00801582
-0.00716637
-0.00619879
-0.00511683
-0.00392436
-0.00262535
-0.00122389
0.000275839
0.00186952
0.00355273
0.00532086
0.00716917
0.00909274
0.0110865
0.0131452
0.0152635
0.0174359
0.0196565
0.0219196
0.0242189
0.0265482
0.0289011
0.031271
0.033651
0.0360344
0.0384141
0.0407829
0.0431334
0.0454582
0.0477498
0.0500008
0.0522033
0.0543499
0.0564328
0.0584445
0.0603772
0.0622236
0.0639761
0.0656275
0.0671708
0.0685989
0.0699051
0.0710831
0.0721266
0.0730298
0.0737872
0.0743936
0.0748443
0.0751349
0.0752615
0.0752207
0.0750095
0.0746252
0.0740659
0.07333
0.0724163
0.0713241