/*--------------------------------*- C++ -*----------------------------------*\
| =========                 |                                                 |
| \\      /  F ield         | OpenFOAM: The Open Source CFD Toolbox           |
|  \\    /   O peration     | Version:  v1912                                 |
|   \\  /    A nd           | Website:  www.openfoam.com                      |
|    \\/     M anipulation  |                                                 |
\*---------------------------------------------------------------------------*/
FoamFile
{
    version     2.0;
    format      ascii;
    class       volScalarField;
    location    "8.3";
    object      s;
}
// * * * * * * * * * * * * * * * * * * * * * * * * * * * * * * * * * * * * * //

dimensions      [0 2 -2 0 0 0 0];


internalField   nonuniform List<scalar> 
10000
(
-1.44545e-15
3.73739e-13
-8.62191e-12
-2.95929e-10
8.6761e-09
-1.33799e-07
4.7465e-06
6.17223e-06
-2.61365e-05
4.77779e-05
-5.48597e-05
3.80109e-05
4.12618e-06
-6.94058e-05
0.000144281
-0.000216592
0.000324221
-0.000346565
0.000376887
-0.000533093
0.000377032
-0.000470314
0.000446726
-0.00031129
0.000425817
-0.000171087
0.000267563
-7.58462e-05
4.65228e-05
1.68059e-05
-0.000147604
0.000130203
-0.000283053
0.000247788
-0.000364653
0.000341376
-0.000403226
0.000392985
-0.000404247
0.000398137
-0.00037161
0.000360466
-0.000311383
0.000288814
-0.000231522
0.000196431
-0.000141195
9.91982e-05
-5.13611e-05
1.29394e-05
2.47894e-05
-4.86638e-05
7.30705e-05
-7.51605e-05
8.13139e-05
-6.03557e-05
4.31518e-05
-4.43105e-06
-3.85771e-05
8.24641e-05
-0.000149012
0.000175946
-0.000258046
0.000234804
-0.000316953
0.000205389
-0.000262358
4.27815e-05
-4.65979e-05
-0.000242121
0.000290256
-0.000526904
0.000549775
-0.000588886
0.000450076
-0.000259023
-5.99848e-05
0.000343587
-0.000494112
0.000627603
-0.000276909
-7.05143e-05
0.000305346
-7.97869e-05
2.16695e-05
2.74105e-05
-9.54126e-06
-1.66285e-06
-7.12332e-06
-8.52464e-06
-5.35086e-06
-2.21405e-06
-1.70731e-07
2.25352e-07
8.04082e-09
-2.8133e-11
-9.35213e-11
-1.09029e-11
-3.34201e-13
-1.24638e-15
-3.56445e-13
5.76643e-11
-1.95135e-09
-2.17641e-08
1.52079e-06
-3.51714e-05
-0.000607983
0.000290307
0.000438788
-0.00137652
0.00214068
-0.0024902
0.0024201
-0.00187334
0.000718529
-0.00032324
-0.00168973
0.0046629
-0.000728404
0.00657531
-0.00847485
0.00374724
-0.0109547
0.00518495
-0.0104581
0.00863655
-0.00780302
0.0111388
-0.00590925
0.0105643
-0.00557668
0.0082047
-0.00564873
0.00563981
-0.00508036
0.00354725
-0.00375633
0.00169779
-0.00212094
-0.000121388
-0.000372584
-0.00177084
0.00150861
-0.00308638
0.00342299
-0.00410694
0.00510282
-0.00497402
0.00628726
-0.00574584
0.00685478
-0.00632106
0.00680932
-0.00649268
0.00617694
-0.00607256
0.00491086
-0.00498951
0.00286418
-0.00325403
-0.000146432
-0.000791641
-0.00415041
0.0026166
-0.00864624
0.00687688
-0.012084
0.0104747
-0.0117115
0.00981199
-0.00514998
0.00167064
0.00567749
-0.0106705
0.0138012
-0.0169562
0.0164529
-0.0113991
0.00971539
0.00625581
-0.0205014
0.0188494
-0.000249562
-0.00642867
0.00336469
-0.00092679
-0.000644554
4.20067e-05
-0.000494568
-0.000298753
-0.000120332
-2.5846e-05
4.08857e-05
3.94915e-05
-1.1238e-07
6.2063e-08
1.51054e-08
1.45466e-09
4.93817e-11
3.46302e-13
-5.74166e-12
1.52295e-09
-1.38279e-07
2.64315e-06
-2.57856e-05
0.00391175
0.00824539
-0.00963794
0.00553976
0.00112917
-0.00777622
0.0122263
-0.0145359
0.0169462
-0.0144124
0.0110586
-0.019865
-0.00736781
0.00223288
0.0259209
0.0228794
-0.00595681
0.0136976
-0.00612723
0.00709354
-0.0263361
-0.000465897
-0.0316268
0.00930457
-0.0262607
0.0191949
-0.0171825
0.0238823
-0.014081
0.019822
-0.0166773
0.0164355
-0.0149728
0.0189367
-0.0094706
0.0222286
-0.00658572
0.0210817
-0.0084827
0.0157614
-0.012368
0.00935041
-0.0146657
0.00427283
-0.0138437
0.00123002
-0.0106239
-0.000712168
-0.00683383
-0.00352694
-0.00422801
-0.00859552
-0.00366149
-0.0148609
-0.00426322
-0.01915
-0.0026627
-0.0194615
0.00646469
-0.0187485
0.0268504
-0.0246316
0.0536922
-0.0392537
0.0645051
-0.0427301
0.0255844
-0.00360544
-0.0437134
0.0421888
-0.0171525
0.00749336
0.0386883
0.0498312
-0.149255
0.099952
0.0797854
-0.117109
0.0314949
0.016228
-0.0225561
0.00766488
-0.00122452
-0.00604217
0.000500743
0.00049933
0.000752276
0.00112898
0.000690292
-0.000229927
-8.97186e-06
-7.51214e-07
-5.17953e-08
-1.5847e-09
-1.24672e-11
3.61374e-10
-4.02687e-08
-1.83799e-06
9.08792e-05
-0.00759179
-0.045704
-0.00723484
0.0315428
-0.0298116
0.0166623
0.000351921
-0.0127944
0.0139917
-0.015531
0.0332062
-0.0214442
0.0105479
-0.0380796
-0.000139304
0.00954779
0.0307786
-0.037775
-0.0577562
0.00590181
0.0419374
0.036356
-0.00263352
0.0215973
0.0281979
0.0163863
-0.0208998
-0.0168431
-0.0360806
0.0127321
0.0105151
0.0429333
0.0251313
0.019627
0.00403421
-0.0228448
-0.0120415
-0.0461952
-0.00920084
-0.0488245
0.00222012
-0.0405199
0.00995156
-0.0249867
0.00964928
-0.00637841
0.00372702
0.00634279
-0.00409055
0.00778473
-0.0113471
0.00294254
-0.0142271
-0.000117785
-0.00641455
-0.00164467
0.0141888
-0.00602499
0.0355254
-0.00813588
0.0330237
0.00691725
-0.00743693
0.0515272
-0.0725079
0.107526
-0.109527
0.0963323
-0.0118057
-0.0967319
0.25082
-0.251071
0.175488
0.149712
-0.400775
0.263671
0.238363
-0.371727
0.0729237
0.155987
-0.145367
0.000947182
0.056672
-0.048106
-0.00626578
0.0199366
-1.12522e-05
0.00458438
0.0052338
0.00123647
-0.0039868
0.000389457
1.47506e-05
7.77905e-07
1.85214e-08
1.27918e-10
7.78689e-09
-1.8e-06
-1.07183e-06
0.00659991
0.0698163
0.101307
-0.0624715
0.0204123
-0.0102047
0.0125314
-0.0216845
0.0356686
-0.030683
0.00553126
0.00845938
0.0450771
-0.0194011
-0.0475863
-0.0596203
0.0426254
0.0662938
0.0764495
-0.0291445
-0.0575963
0.00518302
0.0607756
-0.0583607
-0.182574
0.00106051
0.0393729
0.140084
0.0616229
0.0675137
-0.0715645
-0.0117585
-0.144115
0.0164005
-0.124999
0.0594768
-0.0751693
0.0509993
-0.0342487
0.0286689
-0.000686039
0.0268633
0.0425652
0.025633
0.096376
-0.00123545
0.137272
-0.0417699
0.142112
-0.061174
0.111853
-0.0448481
0.063056
-0.0145568
0.00371449
0.00253596
-0.0662039
0.0118389
-0.129135
0.0273568
-0.1336
0.0231089
-0.0181039
-0.0355238
0.186563
-0.14485
0.318528
-0.203753
0.177942
-0.0721207
-0.200833
0.286683
-0.493824
0.389959
-0.0292099
-0.264688
0.64819
-0.503166
-0.13337
0.530362
-0.3757
-0.278839
0.294777
0.0276151
-0.148479
0.0814667
0.0141319
-0.0303514
0.0131842
0.00285983
-0.00665305
-0.0135689
0.00607964
-0.000359138
-8.85846e-06
-1.01402e-07
-2.8512e-10
6.72011e-08
-4.07965e-05
-0.00224729
-0.0283936
-0.104552
0.018773
0.00406315
-0.0107896
0.0158502
-0.0169818
0.0081815
-0.0124239
0.00955654
-0.0437285
-0.00707046
0.0847821
0.0851352
-0.0099243
-0.107839
-0.195604
0.103214
0.0102823
0.184232
-0.134859
0.0517173
-0.064607
0.077495
-0.133692
0.275203
0.0247329
0.0779809
0.000395391
-0.0598622
-0.084719
-0.0764512
-0.0453032
-0.119483
0.032086
-0.175502
0.112947
-0.158929
0.183114
-0.0839686
0.218459
-0.0264686
0.216995
-0.0148281
0.198847
-0.01634
0.169978
-0.000180634
0.112329
0.0290421
0.00401378
0.0552158
-0.148995
0.0764061
-0.284752
0.0947439
-0.313549
0.100131
-0.213957
0.0708233
-0.0565785
-0.0266007
0.0982942
-0.211266
0.221348
-0.383415
0.278652
-0.319873
0.205338
0.185809
-0.194243
0.624659
-0.606795
0.211562
-0.0927608
-0.256411
0.416758
-0.225337
0.304759
-0.302274
-0.711438
0.649919
0.627376
-0.401217
-0.2062
0.144546
-0.0908876
-0.00614709
0.0318262
-0.0123741
-0.00472399
-0.00736995
0.0115695
-0.00281002
0.000191593
9.93818e-08
-8.47326e-09
2.42345e-06
-0.00025577
-0.0142516
-0.0448017
0.00136422
-0.0651324
0.0817063
-0.0709234
0.07825
-0.0821189
0.0841416
-0.0742701
0.15487
-0.100894
-0.118038
-0.20403
0.23201
0.214955
0.209903
-0.191744
-0.326931
0.0987034
0.0461735
0.0319089
-0.076874
0.455452
-0.178059
0.0486117
-0.242598
-0.019893
-0.290994
0.305236
-0.140093
0.277221
-0.111947
0.0751527
-0.122774
0.0187632
-0.0869623
0.0924341
-0.0475446
0.15922
0.0103369
0.153862
0.0904407
0.0887321
0.141642
-0.01175
0.122752
-0.124428
0.0529682
-0.201888
0.0105963
-0.204371
0.0670754
-0.162602
0.177732
-0.135734
0.18322
-0.106803
-4.6337e-05
-0.0127326
-0.239169
0.119329
-0.351476
0.230546
-0.285777
0.333962
-0.103895
0.29603
0.0314728
-0.059007
0.219058
-0.339967
0.561284
-0.341072
0.349367
0.221875
-0.233281
0.0271728
-0.38052
0.494677
0.0581981
0.239094
0.813311
-0.42783
-1.01924
0.00678944
0.328166
0.00199166
0.0485049
-0.0185403
0.00783972
0.0238158
-0.00428715
-0.00709427
0.00795466
-0.000777604
-2.10106e-05
2.62716e-07
0.000116441
0.0103593
0.0981064
0.0626848
-0.052798
0.0437769
-0.0131529
-0.0568661
0.0709615
-0.0452268
0.0113029
-0.0566908
0.0138787
0.3393
-0.13409
-0.240795
-0.556023
0.400799
0.142347
0.492967
-0.394748
0.177205
-0.0049567
0.101574
-0.0847274
0.0407552
-0.365726
-0.0347193
0.0166026
0.104147
0.0820162
0.0787563
-0.0677508
-0.0321528
-0.0810791
0.014127
0.0492004
0.0810841
0.176771
0.120287
0.201088
0.0857495
0.128261
-0.00262638
0.0351308
-0.0948734
-0.000637193
-0.163161
0.0443818
-0.197053
0.132693
-0.182998
0.188545
-0.134562
0.161369
-0.0824447
0.0806022
-0.0167215
-0.0102818
0.0881188
-0.106331
0.189233
-0.172538
0.182769
-0.174249
0.0657238
-0.154238
-0.0248842
-0.100537
0.0552062
0.0291826
0.16154
0.338259
-0.106951
0.257442
-0.352884
0.183622
0.0198041
0.152137
0.24929
-0.3862
0.506993
-0.381073
-0.509426
0.127059
-0.974383
-0.648841
0.836957
0.589263
-0.117223
-0.11176
-0.00786316
0.0964305
0.00104767
-0.0191674
0.00266757
0.0216234
-0.0108518
0.000720793
-4.64726e-06
-0.000956307
-0.0344111
-0.089824
0.148221
-0.096637
0.0135563
0.0164982
0.0798864
-0.130676
0.0948401
-0.0920169
0.0734663
-0.243116
0.227829
0.479823
0.0695513
-0.632998
-0.589923
0.376672
-0.236225
0.13154
-0.00177067
0.44496
0.0993953
0.17259
0.00781669
-0.06045
-0.0579652
-0.148372
-0.240297
-0.247331
-0.217756
-0.114959
-0.0374616
0.153388
0.128272
0.323229
0.146071
0.36071
0.0360603
0.308848
-0.09104
0.206012
-0.15842
0.113377
-0.165213
0.0739464
-0.124996
0.0949053
-0.0488233
0.149124
0.0223486
0.190195
0.0579642
0.173385
0.0589837
0.0677072
0.0365156
-0.108355
0.0170293
-0.268777
0.0131695
-0.331871
0.0129402
-0.271869
0.020106
-0.166124
0.0368453
-0.121641
-0.00787581
-0.165992
-0.132764
0.204479
-0.209354
0.507262
-0.174049
0.164936
-0.351556
-0.421293
0.178787
-0.556784
0.242023
-0.309043
-0.335866
0.332457
-0.578742
0.195951
1.15676
0.193523
-0.321674
-0.0944126
0.0612655
0.0324867
-0.0975301
-0.0104724
0.00582359
-0.0175636
-0.00868654
0.00274476
-6.404e-05
0.00224869
0.0289923
-0.102678
-0.141013
0.0808102
0.00571337
-0.0425935
-0.0283392
0.138584
-0.0586538
0.121999
-0.275646
0.120064
-0.509334
0.884708
0.415235
0.389574
-0.70478
0.0378287
-0.216758
-0.306069
0.081583
0.0093962
-0.213544
0.042403
-0.220755
0.0465159
-0.28491
0.012592
-0.375373
0.102068
-0.305699
0.230384
-0.160151
0.240301
-0.0673873
0.176632
-0.0398092
0.106053
-0.0346579
0.0688325
-0.0216809
0.0670316
-0.000438317
0.0796691
0.0132037
0.0970404
0.0172885
0.0999989
0.0191277
0.0754663
0.0273243
0.0396523
0.060327
0.00531961
0.123934
-0.0452588
0.188201
-0.115912
0.196567
-0.179102
0.118619
-0.228592
-0.0258079
-0.256461
-0.156488
-0.20591
-0.13101
-0.0712153
-0.0220638
0.134681
-0.129258
0.429606
-0.319947
0.372704
-0.122844
0.144092
0.290981
-0.17467
0.532362
-0.323222
0.120953
-0.188495
-0.0240333
0.519519
-0.387685
0.339432
0.981574
-0.0950144
-0.564739
-0.202886
0.0236051
-0.0658133
-0.0802326
0.0503757
-0.0057799
-0.0110202
0.0145523
0.000773817
-0.000124234
-0.00157846
0.0282428
0.229064
0.106156
0.0822517
-0.0989544
0.126166
-0.181901
0.0481103
-0.0351928
0.144688
0.0855063
-0.313155
-0.298856
-0.218933
0.79086
0.248941
0.0189985
0.544727
-0.060186
0.209772
0.165229
0.393138
-0.176296
0.350494
-0.255429
0.020169
-0.334215
-0.219963
-0.383858
-0.211705
-0.357728
-0.144948
-0.305626
-0.05838
-0.220731
0.0366535
-0.138521
0.101468
-0.0834779
0.117094
-0.0691153
0.0934527
-0.0780584
0.0435006
-0.0817912
-0.009843
-0.0735509
-0.0416207
-0.0507652
-0.0410756
-0.00912021
-0.0230453
0.0559631
-0.0125439
0.145184
-0.0183988
0.236396
-0.0264104
0.283632
-0.0228704
0.265178
-0.0214424
0.176725
-0.058614
0.0216168
-0.148998
-0.127872
-0.167142
-0.220496
0.0464556
-0.249378
0.339677
0.0379792
0.405707
0.210917
0.113927
-0.00342998
-0.366177
0.0734455
-0.393664
0.280336
-0.0630148
-0.200666
0.489995
-0.301685
0.0869969
0.725041
-0.389296
-0.801672
-0.0851605
0.287863
0.0525814
0.0169947
0.0860044
-0.00390318
0.00807712
0.00769762
-0.00283378
-1.20677e-05
-0.00116557
-0.0565169
-0.115838
-0.0514802
0.0460147
-0.052384
-0.0329749
0.198032
-0.345254
0.308655
-0.443585
0.469431
-0.29937
-0.499388
-0.622296
0.241248
0.161722
-0.323936
0.175159
0.285414
-0.0485429
0.505499
0.0595929
0.128961
0.236044
-0.0158372
0.10093
-0.0299799
-0.0281698
0.0303989
-0.00453712
0.0397595
0.074287
0.0326349
0.136223
0.00205774
0.143247
-0.0614118
0.0910008
-0.129922
0.0065845
-0.175617
-0.0740034
-0.189848
-0.12829
-0.167001
-0.153298
-0.107809
-0.152944
-0.0227549
-0.131811
0.073361
-0.099534
0.163378
-0.0719858
0.226182
-0.0529283
0.24093
-0.0248469
0.198469
0.0182566
0.11277
0.0604557
0.0251734
0.0812701
-0.0216448
0.0707071
-0.067551
0.07695
-0.223046
0.092849
-0.396082
0.00992202
-0.365402
0.0794104
-0.0474912
0.11138
0.409504
-0.141252
0.401272
-0.41091
0.0673094
-0.00761561
-0.412539
0.381549
-0.325759
-0.0314838
0.681225
-0.457807
-0.615874
0.148117
0.362876
0.0253811
-0.0441853
-0.0169856
-0.0404922
-0.00238136
-0.00283144
-0.00192494
0.000101093
0.00209795
0.0396578
0.084099
0.0269309
-0.0797259
0.0806632
-0.0549419
0.122104
0.00146688
-0.0241376
0.345839
0.076545
0.126765
-0.274747
-0.841335
0.111824
-0.465036
-0.155576
-0.267737
0.00782656
-0.327981
0.359524
-0.293364
0.192507
-0.111262
-0.0872381
-0.208317
-0.14853
-0.267115
-0.17767
-0.239095
-0.166198
-0.167427
-0.107426
-0.107437
-0.0386788
-0.0905487
0.0218999
-0.0952252
0.0835162
-0.103579
0.141746
-0.105095
0.187348
-0.095691
0.21067
-0.0795441
0.208992
-0.0626411
0.191141
-0.0487305
0.171809
-0.0395352
0.159684
-0.0325358
0.148672
-0.0221065
0.122587
-0.00748067
0.0717853
-0.00193927
-0.000842297
-0.0291358
-0.0779589
-0.0871047
-0.135725
-0.102987
-0.172488
0.0102656
-0.144478
0.188889
-0.0469262
0.235836
-0.000893221
0.0795457
0.207169
-0.16156
0.266786
-0.284843
0.192447
-0.197284
-0.177837
-0.0867861
-0.406375
0.388358
-0.220047
0.0809321
0.615629
-0.418335
-0.506541
0.312917
0.356669
-0.0301453
-0.0388635
-0.0286728
-0.0107611
0.0159029
-0.00279174
-0.000204339
0.000101969
-0.0029422
-0.046426
-0.0636568
0.0336775
0.00110278
-0.133317
0.179883
-0.313777
0.385151
-0.358284
0.273096
0.280016
0.506323
-0.000442519
-0.387812
0.162336
-0.0939999
-0.340705
-0.24884
-0.0159236
-0.366084
0.0478692
-0.227907
-0.00539764
-0.039494
-0.139225
-0.0204858
-0.103718
-0.17423
0.0214885
-0.161103
0.0884384
-0.0473168
0.0797148
0.0229893
0.0348755
0.0198453
0.00331205
-0.0232943
-0.0072922
-0.0829614
-0.00120335
-0.141512
0.0115578
-0.189064
0.0239179
-0.220126
0.0367449
-0.231235
0.0537588
-0.221292
0.0753637
-0.190008
0.0968827
-0.13581
0.111012
-0.0580946
0.114258
0.0367813
0.111454
0.132253
0.108802
0.202349
0.0962582
0.226858
0.0424779
0.209533
-0.0714472
0.145395
-0.206893
0.0710146
-0.245053
0.0116755
-0.157574
-0.150806
-0.00971207
-0.118024
0.301174
-0.159559
0.212586
-0.24475
0.0713198
0.0508363
-0.531144
0.443566
0.060717
-0.122665
0.595499
-0.404509
-0.38175
0.415577
0.343359
-0.132619
-0.0925831
0.00348351
0.0384752
0.0126014
0.00705324
-0.000348562
9.74732e-05
0.00287122
0.0215907
0.0305972
0.025652
0.0168456
0.0349675
0.169496
-0.21183
0.0864193
-0.302098
0.0789109
-0.0955411
0.674385
0.110494
-0.0240262
0.000577996
0.134148
-0.263352
0.224622
-0.0022082
-0.190184
0.411278
-0.249753
0.386141
-0.194178
0.0393441
-0.15974
-0.177333
-0.0763328
-0.0536244
-0.0876125
0.0875793
-0.129573
0.114298
-0.130007
0.0889089
-0.0923959
0.0801248
-0.0530783
0.0944477
-0.023655
0.116975
-0.00494819
0.13488
0.00580767
0.144551
0.012374
0.148392
0.0185016
0.148764
0.0280076
0.143882
0.0426268
0.127104
0.0580602
0.0909107
0.0632514
0.0339159
0.047388
-0.0348093
0.0119234
-0.0991755
-0.0234041
-0.148374
-0.0282313
-0.18046
0.0210602
-0.18131
0.114312
-0.143342
0.176091
-0.0418744
0.16892
0.120644
0.0536438
0.168774
-0.247529
0.291437
-0.0890337
0.202671
-0.0431823
-0.248394
0.398558
-0.517133
0.310503
0.0225354
-0.0431673
0.449066
-0.417067
-0.382446
0.334197
0.171812
-0.261143
-0.16662
0.0610518
0.0544732
-0.0323077
0.0139495
-0.00278573
0.000110401
-0.00264775
-0.0375326
-0.101368
0.0757552
-0.0584058
-0.283817
-0.0384887
0.243641
-0.000351033
-0.241094
-0.178019
0.0610932
0.73757
0.0813256
0.156522
0.0901521
0.315544
-0.172527
0.183544
-0.134366
0.15617
0.121621
0.0795933
0.200807
-0.113899
0.0959613
-0.120322
0.169348
-0.0353648
0.137634
-0.0600518
0.120634
-0.112988
0.147696
-0.113097
0.162282
-0.0744042
0.139939
-0.0509356
0.098132
-0.0657113
0.0493567
-0.109696
-0.00235044
-0.163595
-0.0536673
-0.211037
-0.0981792
-0.240783
-0.126888
-0.245212
-0.130714
-0.220109
-0.103769
-0.166067
-0.0477185
-0.0893442
0.0239363
-0.000245594
0.0866302
0.0900533
0.114468
0.169161
0.0934975
0.213839
0.029943
0.186566
-0.0449965
0.0755446
-0.0866038
-0.0815135
-0.0805591
-0.197903
0.0301569
-0.2409
0.201155
-0.315658
0.0526584
-0.189112
0.156614
0.0335999
-0.217014
0.238014
-0.251198
0.292453
-0.00645849
-0.0797635
0.314437
-0.0894687
-0.310467
0.296397
0.131036
-0.227359
-0.120241
0.152912
-0.0714069
-0.0508308
0.017484
-0.00549623
0.00018896
0.00303801
0.0271951
-0.0687554
0.00764944
0.328023
0.112868
-0.330641
-0.0900163
-0.0365474
-0.026976
-0.189516
-0.173495
0.426831
0.242995
0.0952387
0.126401
0.346167
-0.347845
0.34997
0.0204804
0.177277
0.300503
0.0884775
0.069042
-0.0635239
-0.0477742
0.0505069
-0.111276
-0.0401736
-0.0827685
-0.0863923
0.0544161
-0.0888824
0.205647
-0.0855968
0.292946
-0.0750269
0.296866
-0.0501093
0.249644
-0.0238689
0.192869
-0.00670692
0.149119
0.00270736
0.12153
0.0108995
0.103705
0.021431
0.08698
0.032307
0.0631441
0.0390084
0.025225
0.0399421
-0.0315191
0.0398459
-0.106839
0.0472726
-0.189699
0.0667271
-0.251369
0.0924185
-0.248159
0.110742
-0.153135
0.112266
-0.0071056
0.104163
0.0993792
0.0788731
0.125999
-0.0393651
0.152969
-0.167015
0.202475
-0.152271
0.164723
-0.283636
0.0466064
0.0465255
-0.15319
0.139783
-0.395676
-0.011185
0.118609
-0.517699
0.53464
-0.0176242
-0.293374
0.353432
-0.0478311
-0.207909
-0.0308222
0.0583248
-0.111108
0.0601954
0.00479266
-0.00794762
0.000300659
-0.00255874
-0.0158639
0.00593129
-0.210902
-0.126937
0.553036
0.149965
0.324406
0.0839294
-0.00789455
-0.630825
0.0718849
0.208936
0.119587
0.0809246
0.160453
0.101626
-0.0629812
0.292139
-0.0480386
0.273237
0.153912
-0.0691791
-0.0166875
-0.0723819
0.0616768
-0.0544675
-0.0805675
0.0771438
-0.0842074
0.199224
-0.0383213
0.214921
0.0183991
0.14748
0.0673348
0.0477713
0.0919032
-0.0366785
0.0788253
-0.0829694
0.0386379
-0.09757
-0.00555542
-0.0968719
-0.0359635
-0.0899616
-0.0466173
-0.074935
-0.0403992
-0.0439879
-0.0240977
0.00937585
-0.00540939
0.0838719
0.00872632
0.165362
0.0147007
0.225004
0.0155973
0.226381
0.0209492
0.149362
0.0380493
0.0257092
0.0593457
-0.0580598
0.0709358
-0.0494881
0.100478
-0.0262207
0.191176
-0.102183
0.216428
-0.197758
0.150835
-0.235691
0.137039
-0.0653929
-0.0734104
0.0856765
-0.149023
0.309105
-0.0494202
0.00419342
0.247502
-0.368992
0.405949
-0.203439
-0.0544703
0.161737
-0.0912338
-0.292513
0.245996
-0.0482955
0.127316
0.0473345
-0.0281099
-0.00728279
0.000532294
0.00280248
0.00883916
0.00928902
-0.131443
-0.328133
-0.119316
-0.34243
-0.0690922
-0.470528
0.4439
-0.335455
-0.084043
-0.143262
0.47509
-0.0999896
0.221269
0.27407
-0.328095
0.34047
-0.0711567
0.320362
-0.0494269
-0.084752
-0.00601515
0.0703666
-0.0875353
-3.61577e-05
0.00584556
0.0458564
0.0824423
0.0602559
0.0814648
0.0772776
0.0538014
0.0940254
0.0232682
0.0905499
0.00569762
0.0576319
-0.00021275
0.0167996
-0.0136132
-0.00602489
-0.0475683
-0.000599569
-0.0996759
0.02816
-0.159136
0.0690619
-0.214954
0.111444
-0.258233
0.147453
-0.280375
0.171124
-0.271731
0.176336
-0.224759
0.156553
-0.144028
0.109794
-0.0593768
0.0480045
-0.02426
-0.00195645
-0.0696433
-0.0239982
-0.126583
-0.0411481
-0.0527145
-0.0591604
0.151137
-0.0171614
0.259191
-0.0347722
0.227769
-0.124773
-0.0223447
-0.0604786
-0.0383579
0.14473
-0.280295
0.287262
-0.273855
0.0725609
0.119421
-0.288879
0.377982
0.117856
-0.401644
-0.0259684
0.223293
-0.27219
0.344901
0.050156
0.120841
-0.0950414
-0.0237609
0.00359843
0.000650638
-0.00196629
-0.00464825
0.0572478
0.0265261
-0.185168
0.0566455
0.0671519
0.220654
0.140386
0.115186
-0.512335
-0.0790425
0.150776
0.175234
-0.085272
0.438478
-0.247262
0.072976
0.277688
0.0282546
0.168183
-0.229404
0.0462126
0.111981
0.0436765
-0.0339528
0.225546
-0.080581
0.275803
-0.139621
0.195519
-0.112351
0.0946199
-0.0656386
0.00823056
-0.0741231
-0.0422024
-0.144641
-0.0642206
-0.22707
-0.0814213
-0.279595
-0.102093
-0.291673
-0.120124
-0.272037
-0.128706
-0.232872
-0.126449
-0.182414
-0.115891
-0.124319
-0.100054
-0.0597778
-0.0795758
0.009473
-0.0505413
0.0772631
-0.00380899
0.129183
0.0699818
0.144338
0.162512
0.110957
0.219581
0.0500728
0.146657
0.00840341
-0.0776117
0.00432497
-0.26529
0.0465376
-0.20324
0.199927
-0.0512039
0.227365
0.109432
-0.0177303
-0.0246803
-0.261642
0.249919
-0.310748
0.268587
-0.000327076
-0.18913
0.164439
-0.382351
0.252353
0.274937
-0.523947
0.19314
0.230762
-0.231527
0.0494137
-0.0526372
-0.150546
-0.0472845
0.01333
0.00712849
0.000221737
0.00234114
-0.0153536
-0.0136154
0.369127
-0.161412
-0.028431
0.0584586
-0.149925
0.220891
0.158645
-0.0987187
-0.207721
-0.237848
0.277494
0.0663035
0.0418144
-0.0114203
-0.0841492
0.10474
-0.116101
-0.061344
-0.00341256
0.273359
0.108372
0.00606245
0.0932938
0.0227076
-0.0455564
0.0327891
-0.210146
0.110341
-0.269723
0.119587
-0.252593
0.0207639
-0.192031
-0.109492
-0.132763
-0.18225
-0.103679
-0.176432
-0.100315
-0.121195
-0.107945
-0.0538588
-0.119054
0.00177161
-0.133673
0.0373166
-0.154324
0.0544842
-0.182777
0.0600995
-0.218713
0.0633351
-0.258549
0.073965
-0.293405
0.0990028
-0.306026
0.135307
-0.268355
0.161279
-0.149209
0.142467
0.0470824
0.0632025
0.217565
-0.0533678
0.197911
-0.188876
0.0187033
-0.287551
-0.0194321
-0.103228
0.0582459
0.158742
0.146533
0.123814
-0.190739
0.15753
-0.210012
0.126637
0.0169569
0.100989
0.0513968
-0.356002
0.0473703
0.353851
-0.0671225
-0.145049
-0.0367485
0.126355
-0.0423045
0.0214914
-0.0205651
0.0329216
0.030288
-0.000802127
0.000209736
-0.000565258
0.0213162
-0.113509
0.159487
0.372829
-0.234838
0.196445
-0.151538
0.00307678
-0.171666
-0.163223
-0.300736
0.112432
0.36811
-0.330748
0.263079
-0.293228
0.0532951
0.159075
0.00486495
0.251311
0.301324
0.192221
-0.0662478
0.0218963
0.0105412
-0.00251386
-0.0800075
-0.0479262
-0.130152
0.0181956
-0.233078
0.0984747
-0.354603
0.147038
-0.403813
0.145865
-0.354821
0.110219
-0.258371
0.0731724
-0.17192
0.0530337
-0.120581
0.050497
-0.101085
0.0602194
-0.0993452
0.0774983
-0.102714
0.0982787
-0.103954
0.117024
-0.100192
0.125567
-0.089933
0.114003
-0.0697874
0.0736636
-0.0328645
0.00235565
0.027085
-0.0863347
0.103534
-0.150124
0.170533
-0.12575
0.208217
-0.0110839
0.223768
0.0368329
0.157596
-0.1106
-0.0859855
-0.191809
-0.138885
0.00429554
0.0117329
0.223353
-0.222111
0.174503
-0.28782
0.0781182
-0.0161142
-0.0326001
0.379319
-0.355835
-0.0119283
0.157616
-0.192993
-0.0157744
-0.0643336
0.0630226
0.0378761
0.120109
-0.0592285
-0.00930096
-0.0104446
0.00341106
0.000251142
0.000843124
-0.0060783
-0.0119471
-0.223298
0.13201
-0.0822248
0.194119
-0.172785
0.506777
0.284557
0.133979
-0.409695
0.0618211
-0.116617
-0.0620018
0.0945873
-0.215539
0.189746
0.0696888
0.1556
0.232282
0.128006
-0.148905
-0.0380107
0.0711064
-0.0466641
-0.106842
-0.206283
-0.143944
-0.143412
-0.161752
-0.0765041
-0.158934
-0.0630069
-0.0996972
-0.0858994
-0.00759977
-0.110026
0.0632918
-0.114408
0.0902124
-0.104493
0.0846011
-0.0933835
0.0665285
-0.0876282
0.0478683
-0.086422
0.0306241
-0.0855102
0.0120806
-0.0801778
-0.0104463
-0.0669184
-0.0375225
-0.0447587
-0.0672772
-0.0164782
-0.0950789
0.0106488
-0.112786
0.0249595
-0.111595
0.0141647
-0.0955273
-0.0168833
-0.0937406
-0.0149831
-0.117387
0.0903946
-0.0791329
0.217232
0.0423531
0.119485
-0.0569203
-0.169684
-0.0774472
-0.0306552
0.199458
-0.0864844
0.179009
-0.109631
-0.0808066
0.00495103
-0.165989
0.280249
-0.214151
0.0197064
0.103082
-0.0067349
0.243577
-0.196799
0.0344552
0.0182955
0.00839109
-0.143983
0.00116487
0.00321824
0.0177117
-4.21839e-05
0.000495882
0.000472426
0.0461325
0.229601
0.125908
-0.0778172
0.125904
-0.0580454
-0.112371
-0.25545
-0.286514
-0.280334
0.0305647
0.15923
-0.121539
0.0166927
-0.139603
0.269895
0.177794
0.246536
0.122804
-0.00162948
-0.155329
0.231122
-0.180213
-0.183692
-0.226501
-0.222691
0.0787548
-0.218575
0.191808
-0.212703
0.145606
-0.164662
0.0610174
-0.0965725
-0.00212323
-0.0515566
-0.0358098
-0.0355082
-0.054751
-0.0299329
-0.0691703
-0.0196317
-0.0804428
-0.00136273
-0.0869643
0.0209715
-0.088079
0.0422155
-0.0845773
0.0583055
-0.077838
0.0661429
-0.0690562
0.0631752
-0.059101
0.0482054
-0.0490554
0.0245565
-0.0413991
0.00569389
-0.0427713
0.0169206
-0.0687778
0.0731409
-0.137684
0.124808
-0.221409
0.0699839
-0.198797
-0.0282812
-0.00393493
0.058566
0.151186
-0.05928
-0.167467
-0.194343
0.188829
-0.203106
0.111411
-0.0272179
-0.0104439
0.0552642
-0.18817
0.32926
-0.232033
-0.0598993
0.225198
-0.281506
0.0151928
-0.0714269
-0.019831
0.111189
0.00105967
0.0747949
-1.59874e-05
0.0804164
-0.00433186
-0.000460702
0.000828438
0.0100506
-0.0478915
-0.0384132
0.280997
-0.363233
-0.0829824
-0.219587
0.293891
0.366009
0.371237
-0.416712
0.0990825
-0.116659
-0.173156
0.0755745
0.0827973
0.306934
0.0645616
0.107053
-0.0396787
-0.114923
0.0416619
-0.0615122
-0.434998
0.0145917
-0.256707
0.252742
-0.148422
0.0689612
-0.0796036
-0.167608
0.0229234
-0.277207
0.110206
-0.275342
0.13588
-0.220537
0.116811
-0.156522
0.0895638
-0.101872
0.0736365
-0.0608131
0.0699205
-0.03277
0.0724627
-0.0159959
0.0766016
-0.0083298
0.0809169
-0.00718945
0.085797
-0.00938396
0.0907898
-0.0109044
0.091572
-0.0068847
0.0775319
0.00811015
0.0333586
0.0392126
-0.0482042
0.0873571
-0.138988
0.135458
-0.163287
0.130202
-0.0809267
0.0210262
-0.0325874
-0.109793
-0.133617
-0.0710425
0.0177448
0.206158
0.0430544
-0.274642
0.176567
0.0179408
-0.0490547
-0.057064
-0.0581732
0.064123
-0.233838
0.257906
-0.0493868
-0.117081
0.0876988
-0.0272901
0.0487967
0.0132263
-0.0357427
-0.042062
0.0462159
-0.069909
-0.0269403
0.00272181
-0.0206505
0.000580299
0.000231547
0.0185507
-0.0328221
-0.237152
0.114698
-0.0709593
0.0978287
-0.0174269
0.114835
-0.058565
-0.529623
-0.37186
0.160968
-0.0538677
0.00893531
0.184127
0.0577449
0.109864
0.0879812
0.146457
-0.161202
0.117621
-0.198949
-0.226441
-0.0699047
0.0124774
0.0468252
0.00368353
-0.182329
-0.00149569
-0.247224
0.0325346
-0.13814
0.0200392
0.00564617
-0.0487572
0.106823
-0.116855
0.152232
-0.144407
0.158427
-0.131909
0.146127
-0.0992361
0.129887
-0.0646169
0.116423
-0.0374115
0.106308
-0.0193079
0.0964392
-0.00708784
0.0821005
0.00579379
0.0584796
0.0283481
0.0220431
0.0695974
-0.0277338
0.131321
-0.0857574
0.195075
-0.1372
0.214228
-0.154495
0.143273
-0.11192
0.0242164
-0.0393964
0.00898374
-0.0463719
0.07755
-0.159709
-0.11824
-0.221267
-0.11604
0.23832
-0.244488
-0.0617969
0.0792779
0.188355
-0.091277
-0.100111
0.165471
-0.249978
0.211283
-0.0400642
-0.0513674
0.180478
-0.0582418
-0.0211737
-0.169278
0.0919872
0.0808764
-0.0231602
-0.123663
0.0350254
-0.0183002
0.0130046
0.00106614
0.000210061
-0.0217779
0.027585
-0.0490122
0.0679929
0.0460892
0.0577515
0.0132441
0.062704
-0.144251
0.300234
-0.111471
0.077352
-0.119641
0.0313597
0.0893752
-0.0206641
0.207679
0.171008
-0.220205
-0.036169
-0.119038
-0.3138
0.185548
-0.192481
0.179176
-0.194674
-0.0440579
-0.112937
-0.077124
-0.0550426
0.00420501
-0.0603083
0.0616947
-0.0788386
0.0640184
-0.0562453
0.0413736
0.0115612
0.0262101
0.0951716
0.0329241
0.165866
0.0599568
0.21052
0.0982948
0.228661
0.139115
0.224616
0.177478
0.202104
0.212124
0.162608
0.24312
0.106899
0.269042
0.0393537
0.28474
-0.0258191
0.280506
-0.0612813
0.244245
-0.038887
0.170682
0.0299413
0.0813969
0.0557648
0.0366566
-0.047982
0.0714747
-0.131149
0.079229
0.0549237
-0.0392005
0.0113612
-0.272732
0.0582803
-0.0172285
-0.134599
-0.179135
0.185143
0.155028
-0.177756
0.0855214
-0.136451
0.0909924
0.0552006
-0.0997834
0.0857822
-0.0860398
0.112012
-0.0628199
-0.160731
0.164748
-0.111514
-0.0787172
0.130331
-0.0173513
0.0111729
0.000669414
0.00134096
0.00642241
0.00971511
-0.216635
-0.134657
0.0376981
-0.0358669
-0.202497
-0.0737886
0.182401
-0.17781
-0.420362
0.158346
-0.0548322
0.0893343
0.0460138
0.119646
0.220593
-0.226629
-0.0711807
-0.0026705
-0.1652
0.134226
-0.0507204
-0.111001
0.0818903
-0.273481
0.112037
-0.250664
0.0511205
-0.0821599
0.023154
0.0281714
0.0415601
0.0563024
0.0936758
0.0646873
0.157436
0.0869332
0.207828
0.121549
0.233001
0.153637
0.23744
0.170942
0.233156
0.169949
0.231081
0.154578
0.237456
0.1323
0.253363
0.111142
0.274622
0.0982533
0.290985
0.0988545
0.286497
0.113943
0.246242
0.135795
0.174845
0.142887
0.118041
0.102948
0.14274
0.0032623
0.2234
-0.0915923
0.153182
-0.0696267
-0.129059
-0.00376679
-0.0980899
-0.0133566
-0.100776
-0.0401839
-0.0981765
0.0668281
-0.230689
-0.0479618
0.17101
0.000725702
0.0846926
-0.190772
0.1748
-0.0222944
-0.115875
0.217439
0.00463123
0.0560997
0.0726946
0.0146972
0.0554572
-0.00789941
0.0379629
0.0866521
-0.0460222
-0.0413671
0.000290213
0.00021946
0.00496994
-0.0974604
0.00705242
0.13362
0.16187
-0.0586829
0.0437275
0.110229
-0.17155
0.00315292
-0.0737903
0.0747474
-0.10497
0.12286
0.111316
0.110699
-0.160884
-0.0481401
-0.025741
-0.0849193
0.0383815
-0.11405
-0.070898
-0.0295552
-0.0394582
-0.169931
0.0150569
-0.192449
0.207093
-0.0527801
0.217092
0.0488689
0.138038
0.0875678
0.105302
0.100318
0.128996
0.097526
0.173128
0.0802594
0.208677
0.0556771
0.224916
0.0320384
0.224291
0.0131917
0.213794
-0.000737676
0.199215