/*--------------------------------*- C++ -*----------------------------------*\
| =========                 |                                                 |
| \\      /  F ield         | OpenFOAM: The Open Source CFD Toolbox           |
|  \\    /   O peration     | Version:  v1912                                 |
|   \\  /    A nd           | Website:  www.openfoam.com                      |
|    \\/     M anipulation  |                                                 |
\*---------------------------------------------------------------------------*/
FoamFile
{
    version     2.0;
    format      ascii;
    class       volScalarField;
    location    "0.00029";
    object      linearKEMean;
}
// * * * * * * * * * * * * * * * * * * * * * * * * * * * * * * * * * * * * * //

dimensions      [1 -1 -2 0 0 0 0];


internalField   nonuniform List<scalar> 
1300
(
1684.388825
1958.079909
13967.13914
80360.46334
44977.46792
13857.25505
26773.70672
34726.74747
22596.8608
19921.64102
3102.043798
3317.164832
26371.49726
156769.1448
83656.29122
22988.91993
50477.71248
62503.31805
40914.88994
33025.28064
1605.239065
2091.541133
29274.64694
177275.975
97589.78554
29263.96179
68863.82241
100573.2828
62228.11924
53013.94535
1236.551476
1260.559897
26287.93099
172597.2531
93922.78631
31093.24607
77611.12856
125669.1711
79204.0979
65795.67341
780.77253
1210.135766
28754.18238
170384.9048
98126.36008
26779.63527
75185.21306
119049.565
95285.83594
72954.68161
544.0988193
751.219361
27744.73481
171809.7688
96025.24942
27425.9503
72817.56796
115811.0763
89185.82764
74701.57363
444.4831188
847.714885
28625.87691
171250.8888
95406.97298
24869.06288
70202.24169
111645.7687
89962.56866
71301.77895
452.2854815
606.9756058
28109.13409
169910.008
93809.25159
27203.74262
71618.49982
115611.7945
80955.43796
68584.92052
256.5648668
609.3058101
29129.56528
176841.6944
90942.52059
26985.0707
73593.89329
111289.4119
82422.48891
67245.86029
208.5801745
538.7754324
28412.90028
168176.4564
98495.39211
27551.84432
68310.40561
113936.3938
86078.22053
62541.5953
215.2977987
466.2637072
28546.14081
172860.9981
95048.49425
27618.89021
70794.03182
115516.8207
85996.85786
67083.92792
118.2011778
493.5016338
28425.20355
168460.3486
90419.21029
25429.31425
70733.37957
112652.243
81787.04431
66749.74343
83.69925203
508.8841427
26610.62332
171994.0834
97786.30056
26145.24845
68344.6739
114268.8282
80575.3141
67653.74444
112.8696429
418.9046911
28718.36512
173150.1741
97926.23457
25082.97286
69475.95467
112169.6131
87152.95405
67172.34164
49.53274238
444.763965
27724.07262
166551.6219
95740.83363
26173.12677
68679.95794
115143.6644
86392.32819
63704.6907
90.75643585
508.8949135
30093.32095
170861.9364
91712.8493
28763.21812
71549.79087
110664.6562
83627.20137
68376.16424
97.46498187
482.0134882
28649.85838
168961.9349
92452.76996
28912.46262
71843.02395
107225.3307
85980.56175
65508.73182
58.56171873
233.594626
29329.14488
171435.6844
93793.04428
27666.80039
69171.26952
113547.5434
86414.82115
64573.48025
49.33307301
481.3837396
27796.42687
171790.4356
92674.13117
26601.31141
67912.64537
109412.9849
85209.47727
63871.80613
35.8781111
317.6556145
25211.26967
158781.0698
92448.14827
29229.02857
67499.81006
107081.0118
82945.5558
65936.24236
20602.33443
18573.84165
18002.38833
17259.14087
16861.22982
15857.32803
16960.00086
17580.94006
16136.3398
15967.03489
16076.24405
16749.35538
15618.86521
16953.585
17212.64535
16315.4151
16700.32611
15588.65278
16671.20353
15846.83692
16140.66732
16068.73666
15449.18861
16362.70064
16022.67741
16280.83521
16975.82494
17424.71142
17097.24391
17196.47125
33245.19015
29731.90333
25566.1426
24606.52548
24117.39548
22646.0959
20800.83884
22177.6711
20701.88439
20091.48806
20547.92155
18913.31224
21482.2999
19308.95505
19233.88858
18497.7255
17381.8115
17964.57174
18280.53338
18762.7236
17170.89826
17540.0822
18535.36965
17753.63547
17422.32371
18164.15234
17852.33032
16812.76201
16863.56332
17592.13952
52962.20099
49237.19051
39414.37725
35543.15479
35270.55749
31472.1496
29205.97304
27103.98231
27901.10363
24771.68859
24667.33525
23983.81851
23304.96091
23563.09172
23210.46037
23363.57395
21813.10169
21857.73044
21302.35276
20380.30003
21240.00082
21033.77681
18496.94304
19210.46829
18765.44019
18777.68676
18638.20752
19153.7085
19776.86975
18702.71153
70897.16223
72331.10165
57507.55999
51973.036
50758.09565
42872.97676
41443.56384
38671.73573
35685.32027
33851.41554
34315.41779
30555.94671
30552.21333
28523.75366
27194.90519
26647.85731
25528.83731
25709.51212
24755.51967
24739.55815
24554.72678
23890.06049
23528.49042
23398.60852
23645.23122
20905.68201
21968.5043
22577.08261
20329.88866
20492.93002
89931.33096
91248.02141
73933.26911
70285.94913
66210.45915
59651.53543
55209.69288
50883.71871
49111.70109
41229.35798
40553.92207
40671.80957
36980.98201
36644.35106
33093.70488
33578.85887
33054.80204
30296.28553
30671.86549
29109.37483
27930.65827
27255.26805
26131.92154
26608.71702
24595.71941
25729.14308
25855.03853
24084.62685
22072.55565
22725.40516
85959.45767
98808.85035
87756.58669
82564.0284
80649.08765
75901.57865
68717.49933
65249.43418
59340.72412
57479.00351
52014.00877
50157.40508
47582.96634
45888.00368
43540.3071
40280.95643
40596.20218
36995.33477
35425.78739
37008.67015
34261.41954
32224.28925
32148.99443
29882.63652
30797.53825
28982.95416
29057.00563
28065.12712
25720.13309
27936.88915
80475.8703
100405.9191
95065.4381
91686.10304
91443.65757
90031.78655
84490.8819
75509.77328
76198.67219
72110.48774
65216.00236
60714.0023
54351.65301
54734.27925
53146.90689
50178.47394
47565.34832
48729.22281
43598.24005
41983.45712
40573.22744
41125.35643
38421.30603
35841.02079
34562.08361
34965.22468
32880.80805
31786.77618
33385.78728
30386.04265
78535.02618
93248.53162
93699.97246
85804.16732
96267.40961
101071.614
93644.58369
86587.43497
85996.78986
84833.65988
75764.50529
73749.59459
72084.22624
66379.48365
62545.55358
61069.27759
56769.2283
57274.87478
51865.40165
51433.39461
49466.36567
48908.34012
47312.91504
44898.36059
43622.73143
40891.51209
37220.52012
38362.65312
36397.90207
35382.04302
79290.34763
91294.0341
83104.42384
81624.61706
88887.05507
98993.61129
93755.61327
93952.85739
98589.46396
91890.30137
87600.4676
88522.70807
79712.95648
78362.31982
74497.06619
71189.28519
67940.86069
62265.82506
64924.02917
57778.60377
58850.73481
55090.87019
54265.20832
51079.67928
52437.97129
49531.39336
47510.08295
44454.7218
45589.02352
40754.09455
77003.31468
90953.51404
79974.6528
78892.11669
89575.19056
92999.54935
91532.6853
92535.82024
97240.42394
101467.5138
90835.78944
95968.02386
93370.86193
87765.69621
83939.85793
83867.54504
78435.08865
75456.62664
73868.28364
70636.58001
70215.01934
66854.59966
63858.91792
61590.49253
60597.18642
55694.34919
55480.4573
54420.74372
51578.59079
49551.60772
75985.07481
90447.1663
85573.14455
78973.21048
80739.26438
88783.72698
84738.7538
87275.91621
95995.34376
96013.55983
92371.21043
97330.84032
98133.43177
94084.94818
92253.11989
90504.78551
89742.46388
85001.32209
81583.46402
79041.5728
70756.23307
75076.61373
71877.27384
68582.04076
68705.89102
66500.06957
63788.07706
61309.07844
59118.44126
57369.04356
74981.26071
88673.97086
79102.62459
79192.61348
81202.04779
86945.32376
83840.39264
84100.82966
92378.4836
91184.98295
92647.30365
98570.44794
99457.53961
93984.48495
95244.70803
100627.4725
91941.2011
88424.89418
93243.20305
87102.50595
84322.97669
82694.02565
81932.57506
79995.9762
76044.1354
76506.96267
70840.04247
70083.13843
71653.16483
66782.88749
76924.74928
86194.68519
81825.17645
74031.38284
83316.01424
86237.01438
82551.42445
79603.90923
90969.69895
89060.65657
87029.37651
97580.61103
95668.48839
98919.42778
101664.7306
102210.2528
95597.48391
97097.80333
95483.71639
96918.31123
89007.88362
89494.14564
89066.35932
82237.46907
82340.55703
81538.6334
82584.51045
77210.51192
77552.51647
75408.17194
73691.48913
89811.49736
82731.30562
76743.25637
79549.67093
84290.80901
79802.0492
77215.90596
85033.43366
86386.80258
80449.94947
85291.64234
95433.21526
88074.05766
98884.03592
95834.90721
100367.304
101903.34
97774.11351
97450.52492
99176.54533
93969.79518
96508.69449
96116.49987
86430.04954
90856.15756
85512.39145
83610.8179
87993.01803
82483.01781
75931.00065
88610.28106
80096.60437
77727.61653
78593.93577
84215.83232
80607.10359
77589.65058
83242.98672
81268.7807
78996.30984
84793.49218
90896.64745
81434.9862
91285.02759
95170.20116
94186.34896
98333.80149
99062.09692
101515.1832
101998.2472
97227.09998
95259.43174
95574.35286
98332.93501
93390.04
90392.3746
91630.90756
87300.5949
88672.59844
76118.23071
88904.23471
81129.46076
77494.56728
82077.49929
90462.99444
76968.49211
78091.37884
85819.61836
85264.27865
76441.54493
82712.81522
82083.12636
81184.66172
86285.76109
88416.44727
91035.69081
93010.84564
95813.77944
97309.06458
99733.17455
101060.4928
102977.9184
96870.53604
98354.41243
101006.2359
93668.07451
95558.27195
96556.62224
94441.06463
77239.54263
86004.63319
86117.66257
74786.54384
80543.17907
81828.26954
80080.75591
78466.91738
82875.49196
84738.91343
79659.53373
82562.30768
87692.69433
80182.01278
85526.48964
84876.22395
85984.85661
85010.26031
89974.39511
96730.34361
95983.87556
97190.09439
102120.2632
101024.8618
100893.1804
101956.5774
103981.0379
97756.631
97329.74148
100927.7535
74571.94681
85640.98447
81308.02359
77019.49391
78337.72047
87081.4064
79882.80466
76951.56296
82718.49564
80898.67675
83839.28944
79226.73636
85878.85179
82432.57505
84716.18789
85772.35951
88678.20612
87829.35872
86320.82762
89197.38741
92685.00062
91545.07086
95582.7773
97494.76158
100710.1809
97229.41959
102842.8246
102191.3911
101809.6807
99861.64859
74698.9061
89679.54106
79273.86627
73793.28524
78468.56823
85767.59154
80259.98465
77841.96152
81909.50125
80558.2231
81330.5442
80009.82613
84170.10847
80727.32062
80046.73097
85496.18994
81799.08938
87041.24204
86741.96717
89318.43596
90665.71442
89705.83366
95425.25086
92200.02842
98587.59387
100130.1135
98465.3513
100493.9896
98536.72598
106610.7514
75312.43247
83684.76207
77269.99045
77374.72249
78574.43238
79781.77031
78415.39435
77107.41
81879.54123
76657.93386
78275.57212
79429.13487
80510.54257
79338.69162
79383.51764
80251.67767
81465.20709
80721.60257
81620.22794
83260.5201
86261.41139
85259.89624
85762.07567
90321.27396
92488.70632
93345.04137
91534.04446
99891.46027
97827.14309
100331.0153
14268.58609
12116.92567
10567.11362
9887.58278
9863.126526
8888.358205
8995.019578
7912.944117
7263.856107
6852.86453
18831.58867
17776.57028
16096.83161
15300.56006
15224.88581
14865.71894
13968.90732
12840.16594
11473.83866
11089.97864
18541.30102
18713.72567
18874.30917
17906.24945
16179.85767
17240.65394
16493.01817
15937.26598
13956.02644
12865.5568
19807.36754
20583.97807
21107.56821
19863.94929
18957.20411
19631.38747
18499.21141
17497.55672
16594.56855
16745.42461
21283.8814
22581.7851
21542.61995
21861.69314
21510.39398
21649.49418
23160.73953
20632.24082
18421.79664
19406.89259
26780.189
25389.77636
23939.72396
24524.81805
23379.58394
23366.47388
23360.5282
22643.33727
23200.89791
23371.79553
29039.96249
28229.53186
29707.43179
27901.38914
25765.6507
26787.26504
25909.69268
27436.85712
24811.97119
25776.4747
34680.44455
34598.04411
33511.63072
30277.34065
32081.61043
30500.79677
28188.37941
29307.91807
28132.09628
27822.49682
39185.98128
38199.82456
37120.66922
34593.8935
36511.28327
33444.27699
33447.83633
30481.73142
30652.44983
32182.34457
47071.08884
44808.60615
45496.04194
43240.67286
40601.77277
41230.02706
36536.10276
35372.17014
36804.35659
34301.3844
55189.37131
53229.06821
54669.3463
48928.23091
46974.97409
44568.54633
46129.65165
43990.023
43435.8617
40735.72179
60596.17801
63019.57495
62299.10596
59238.30896
57678.9058
57167.18966
53238.99191
52319.5394
44951.50108
48128.40469
74482.73736
74959.25679
68632.11405
67981.76308
67322.24617
63259.77512
58851.09931
61165.96476
56802.51624
55256.56303
80824.0546
80152.23014
80408.31359
76381.19116
75944.06349
73978.1641
69790.9542
70603.70937
67767.33239
64669.15736
84552.33577
81939.04724
83458.02816
82896.82217
82252.38021
80649.57189
74587.17886
76724.92929
74052.48814
73141.29572
91800.4172
92859.30012
92243.54886
89325.82904
88999.25746
87348.13144
87626.80068
81334.69531
82039.96215
82265.70309
96516.49078
99844.28424
98300.22055
98458.02616
90064.15772
97250.41687
92081.35408
94605.28722
89559.3792
89575.28162
101822.9913
90367.61363
96274.92039
102520.2845
99901.04667
98787.47311
97127.13097
96823.446
95655.7018
94693.46671
101162.5892
100839.3822
100966.1561
99383.52699
101600.1732
98289.50109
99512.31366
100594.7533
102964.1386
101180.2441
98301.64541
98349.3426
102723.2855
100058.4525
98223.04829
100764.2231
100168.9758
101255.7576
102488.4081
103420.1075
5214.455978
6745.650473
6488.032787
6948.207994
6643.722762
6646.10319
6613.361837
6448.58794
6651.933085
7252.222873
7243.494743
7663.471003
7074.308465
7960.337832
7261.812453
7992.100582
8154.246498
7232.268131
8219.969592
7801.782369
8541.991589
8534.044451
8402.726766
8766.243922
8557.227208
9033.143682
8983.373556
8727.833139
8357.169057
7685.228999
5679.552009
9610.746249
9577.799596
9346.15967
9562.600179
9061.13541
8805.230949
10132.58311
10052.62166
10198.88761
10630.98474
10490.40962
10474.94103
9906.470577
10445.72895
11212.33071
10883.84948
11019.77246
11744.4533
11286.64035
11744.52355
11421.54646
11399.91827
12099.22883
11860.73932
12824.22347
12095.74869
12545.50685
12587.75176
10516.71494
5926.905869
9017.333535
8909.72143
9120.409606
9645.124944
9577.498593
10136.12018
9778.819281
9916.722285
10173.07146
10469.88081
11085.02291
10762.03881
11205.49388
11104.94545
10913.3848
11493.57142
11703.75197
11850.63035
11219.37819
12304.36082
12160.85608
12593.52348
11432.54401
11273.42516
12625.89633
12509.02984
12487.37171
12751.76809
9988.539603
5804.437182
8461.431644
9236.207938
8811.584795
10092.61277
9248.270863
9883.485791
10187.37454
9877.442417
10099.08864
10952.12501
9983.644663
10872.67527
9946.71206
11400.29432
11856.02319
11510.46384
11353.50981
11514.77069
12216.36723
12555.19197
12743.99004
13207.62745
13108.17984
12499.67737
12855.70261
13267.94091
13664.86103
13693.28952
10817.82425
5821.273584
8365.155296
8745.543579
8572.444126
9144.666785
9619.010918
9270.391264
9565.932856
9714.125095
11067.4561
10657.91464
9964.266884
11438.16094
10616.0434
11395.71122
12237.74512
11961.63612
10918.47632
12411.421
12069.27608
12228.50546
12518.14222
12803.34918
13335.87117
13136.67293
13026.37177
13556.00023
13497.14862
14188.65031
12015.99537
5738.226641
8731.541991
8327.296813
8996.821855
9420.57467
9600.452277
9115.511192
10675.07633
10853.43995
10859.29132
10380.82416
10873.9863
10920.48472
10600.57894
11823.89292
11978.3049
11938.3767
12822.26552
12695.49808
12435.35036
13449.25885
12921.45578
13671.02704
13188.81639
13945.25008
14487.95187
13405.42008
14458.93171
15011.82377
12517.84357
5350.64239
8194.629755
8344.395348
8959.419011
9463.859724
9994.38437
9652.771191
9758.159208
10260.93373
9475.15161
10579.21114
11353.40553
11211.36364
11587.49352
11557.57917
12654.48832
11546.2626
13397.45781
11827.8938
13197.76628
14001.8689
13476.31562
13851.75725
14400.76405
14393.6491
13762.4963
14916.04317
14659.28449
15313.27353
12567.37243
5173.039795
8025.48295
8504.326136
9339.945206
10114.34438
10189.31537
10834.87001
9998.271204
11117.90486
11376.38653
11202.67515
10966.73885
11891.44141
11427.10456
12751.42238
11464.679
12418.04619
12545.71141
12136.6931
14311.81537
13177.82851
14175.51386
14010.08588
14902.20165
15042.92756
14994.92095
14427.46287
15764.94449
15672.97227
13328.09205
5098.227488
8933.280836
9116.564721
10002.19
10452.86054
11586.64101
11340.79802
11582.77128
11976.8021
12653.30568
12254.63355
11889.89091
12991.69295
12628.41141
13058.15227
13603.39672
13412.69209
13768.56712
14444.51998
13525.87089
14652.11617
14426.23497
14077.23434
15453.26358
14137.8575
16058.37243
15269.66945
15679.16222
16766.81183
14592.41183
6063.742963
11018.80757
10904.16043
11534.66984
12522.78191
13785.46454
12822.80567
12759.56155
13354.47743
12947.12019
14114.65226
12985.16218
13579.27896
14894.1871
14064.21378
13385.61081
14197.91738
14472.30502
14673.4355
15440.07661
15537.45102
15112.65053
14992.81069
15247.61528
16222.08937
15606.07964
15386.00131
17019.4935
16501.81558
14394.6006
)
;

boundaryField
{
    inlet
    {
        type            calculated;
        value           nonuniform List<scalar> 
20
(
1684.388825
3102.043798
1605.239065
1236.551476
780.77253
544.0988193
444.4831188
452.2854815
256.5648668
208.5801745
215.2977987
118.2011778
83.69925203
112.8696429
49.53274238
90.75643585
97.46498187
58.56171873
49.33307301
35.8781111
)
;
    }
    outlet
    {
        type            calculated;
        value           nonuniform List<scalar> 
70
(
6852.86453
11089.97864
12865.5568
16745.42461
19406.89259
23371.79553
25776.4747
27822.49682
32182.34457
34301.3844
40735.72179
48128.40469
55256.56303
64669.15736
73141.29572
82265.70309
89575.28162
94693.46671
101180.2441
103420.1075
35.8781111
317.6556145
25211.26967
158781.0698
92448.14827
29229.02857
67499.81006
107081.0118
82945.5558
65936.24236
75312.43247
83684.76207
77269.99045
77374.72249
78574.43238
79781.77031
78415.39435
77107.41
81879.54123
76657.93386
78275.57212
79429.13487
80510.54257
79338.69162
79383.51764
80251.67767
81465.20709
80721.60257
81620.22794
83260.5201
86261.41139
85259.89624
85762.07567
90321.27396
92488.70632
93345.04137
91534.04446
99891.46027
97827.14309
100331.0153
98301.64541
98349.3426
102723.2855
100058.4525
98223.04829
100764.2231
100168.9758
101255.7576
102488.4081
103420.1075
)
;
    }
    wall
    {
        type            calculated;
        value           uniform 0;
    }
    frontAndBack
    {
        type            empty;
    }
}


// ************************************************************************* //
