/*--------------------------------*- C++ -*----------------------------------*\
| =========                 |                                                 |
| \\      /  F ield         | OpenFOAM: The Open Source CFD Toolbox           |
|  \\    /   O peration     | Version:  v1912                                 |
|   \\  /    A nd           | Website:  www.openfoam.com                      |
|    \\/     M anipulation  |                                                 |
\*---------------------------------------------------------------------------*/
FoamFile
{
    version     2.0;
    format      ascii;
    class       volVectorField;
    location    "0.00029";
    object      momentum;
}
// * * * * * * * * * * * * * * * * * * * * * * * * * * * * * * * * * * * * * //

dimensions      [1 -2 -1 0 0 0 0];


internalField   nonuniform List<vector> 
1300
(
(-4.044983601 4.52868776 -3.685949713)
(3.233898976 5.321481864 -0.8251691225)
(8.647851843 4.021071404 -1.559789992)
(104.9657191 2.230859081 9.453742713)
(125.2113208 4.242538466 -8.618305245)
(12.13715925 7.49968914 -5.442334285)
(23.32059346 -0.01656218726 6.955910209)
(20.52311091 -0.3479158423 -0.1232575119)
(13.57303132 1.856643884 5.152844459)
(20.50238826 -3.41567401 -5.090410494)
(-1.368549867 5.00318087 -1.948770406)
(-0.6807338186 8.848820321 -2.813621341)
(35.06327718 5.921104844 3.448865464)
(144.7837745 23.73942462 3.928852104)
(70.81372991 3.986351689 5.071444753)
(35.52324759 13.9887381 12.64576415)
(51.54524574 7.62069602 8.333191465)
(98.09016365 7.55458735 8.283205024)
(89.1795414 12.58053991 -1.37090068)
(35.52396482 5.316051438 -0.6198772275)
(1.285940942 2.053376874 -1.991230558)
(0.7827095825 5.158961195 -2.135457294)
(26.82044641 7.144139935 -4.70651894)
(199.2319234 24.46613053 -23.24268974)
(109.8547849 29.58985762 -20.67829807)
(41.06280361 5.218650259 3.865742769)
(89.31396199 15.4836733 -4.040714051)
(66.61285928 14.05048391 -8.224747298)
(74.24574758 11.87513354 7.671622784)
(96.13969815 14.46225172 5.103024969)
(0 0 0)
(0 0 0)
(21.73040004 9.677341503 0.2511590689)
(165.7416104 14.50105404 -4.492073633)
(100.1130413 7.674133848 1.947392095)
(36.12010531 6.294055895 -2.932523481)
(61.71129613 11.93346275 5.669157399)
(205.6349352 30.38427503 -4.620144516)
(57.3167867 5.485477822 6.150048084)
(74.28053474 17.25055025 -4.329351423)
(0 0 0)
(4.517072403 2.694254217 0.6958508031)
(72.92129752 7.095307024 -1.941480128)
(204.4867675 31.77636715 2.748086501)
(77.8473676 10.51486464 -3.213732341)
(31.261289 6.665227361 1.141687989)
(62.3269768 17.3965968 -0.3462941476)
(92.20466703 19.77260053 0.3483263375)
(84.34438918 18.92421019 4.472888268)
(101.5672566 15.85015457 -3.086295627)
(0 0 0)
(0 0 0)
(14.15735675 4.456796969 0.4025342776)
(190.1246086 29.14205519 4.048452461)
(147.0046453 20.22966541 2.79722442)
(18.97698176 -0.1392954089 4.449816134)
(75.22959074 5.352332066 1.736463568)
(120.5916056 20.62630697 -12.96464211)
(146.581122 14.33956234 -6.393088319)
(77.76096917 19.45116753 -4.016805207)
(0 0 0)
(0 0 0)
(43.34946857 9.944338877 -2.731542635)
(114.3314181 8.907925006 2.682108323)
(69.85530624 7.838420435 5.303363185)
(32.45525654 7.544198803 0.296669476)
(106.8063844 11.7818443 1.287315412)
(93.73880221 11.81802223 0.5428781025)
(96.2106465 9.165021049 -5.368498924)
(57.26818276 15.27502083 9.989875616)
(-0.6810211751 5.48193647 0.5858484297)
(0 0 0)
(40.78985159 8.134144351 -1.164371905)
(196.4896863 26.63867013 7.76239828)
(67.40811043 12.79594336 6.84905544)
(23.79294677 9.569725207 -2.54152348)
(49.05831552 4.560526155 1.818168852)
(117.73524 24.42467866 1.186680315)
(122.4928111 16.05668517 0.5613655538)
(57.80379545 15.54178171 -1.50117163)
(0 0 0)
(0 0 0)
(29.87221516 6.707125557 2.185326376)
(209.6229878 25.90251276 2.126710665)
(45.68697649 8.361665444 -0.03389939317)
(64.75658518 4.816957393 0.4477342669)
(60.78245607 7.687341704 4.453821123)
(128.1304689 14.5265189 2.258492469)
(60.50574274 8.670207274 6.096860554)
(63.82482317 5.672305751 1.489165038)
(0 0 0)
(0 0 0)
(20.55230788 4.371542487 1.099492281)
(160.5392057 29.73046584 -0.1373250101)
(104.8980724 18.09076934 -2.414929312)
(14.18167009 2.665966859 -0.2508076737)
(78.5055062 12.75830921 -3.35984236)
(85.20713261 12.83931057 -1.658487176)
(98.20098212 8.100640545 -2.785810314)
(54.95340744 11.30084997 -5.85502829)
(0 0 0)
(0 0 0)
(13.78904052 2.919076635 0.4002608054)
(266.8076022 37.46763612 3.320010314)
(103.6777904 15.30617471 4.760337073)
(5.34117652 2.038732562 1.194956135)
(69.8741882 8.993190763 5.557893206)
(68.68524925 11.96312175 1.524874056)
(57.09591318 10.96121045 -1.389690405)
(50.16338196 10.25177267 -6.363699444)
(0 0 0)
(0 0 0)
(52.42848976 8.231018439 -0.1250974912)
(126.4064223 22.65143198 10.11856754)
(121.7516969 14.06587852 -9.12496134)
(31.08419752 4.226223285 1.761490914)
(102.7006973 14.64266098 -7.46048528)
(108.7139135 14.5285594 4.030870527)
(60.74644368 6.380711548 -1.429222682)
(72.51330836 14.81064529 -5.246110197)
(0 0 0)
(0 0 0)
(18.02013929 1.107763701 5.624158527)
(178.6311877 20.68854772 2.894861472)
(98.69069444 13.93658073 5.163125292)
(68.93870491 6.520951508 1.235557769)
(52.29731373 13.38582876 -2.220346789)
(103.1032702 23.37375068 4.779558991)
(105.4960145 12.10505355 -4.67752152)
(102.4634035 10.66886427 -5.670425015)
(0 0 0)
(0 0 0)
(53.26826426 10.40309936 -1.140521689)
(158.2400606 17.0929964 7.941627656)
(49.41880308 3.211324849 -1.033490969)
(24.82894182 8.203015357 -4.81129615)
(93.3343716 8.350341333 -0.4724960503)
(134.1108711 21.79879275 14.70773493)
(90.84111832 16.08271767 1.211475687)
(74.89232275 9.24662092 -5.045929113)
(0 0 0)
(4.569691769 2.568890784 -1.121737013)
(25.2208173 7.063468497 -2.802400819)
(185.5865575 35.33727262 -0.4886132951)
(85.52191669 8.576891037 -0.9038897346)
(52.46847391 8.379374953 9.399228132)
(100.3848157 11.19554524 -0.6337495174)
(120.3864961 18.09636484 12.92332697)
(54.39648486 9.528530395 1.202971485)
(71.10283722 9.754255963 -1.728018363)
(0 0 0)
(0 0 0)
(61.27927981 9.133646945 1.743152088)
(125.0299551 15.49705549 -1.202940617)
(115.4270892 18.76554444 4.342802168)
(23.77878126 1.61448822 4.640142186)
(43.25282393 7.214095617 2.48634548)
(96.20371335 6.388761612 -3.72447682)
(116.2409286 15.27461348 -3.628632222)
(100.7521758 12.58596585 -1.914601875)
(0 0 0)
(0 0 0)
(51.55063163 9.019960665 1.486475074)
(215.0245053 15.6720071 -2.697066402)
(71.10196713 1.342298745 3.01600347)
(52.10416757 8.703484876 2.685374476)
(86.29514715 15.29712854 -1.018606542)
(120.0656343 15.90730023 -1.452068274)
(90.16629364 10.18580697 6.603832349)
(39.40006635 4.368234506 1.931034407)
(0 0 0)
(0 0 0)
(38.59805473 10.57193441 3.279455434)
(158.4283064 29.64321775 -5.267361951)
(61.48052683 4.470239921 -2.921828915)
(25.08636996 0.7766766701 -3.761922771)
(98.86749762 20.60790831 6.745285888)
(144.1726555 14.21186105 1.831602848)
(74.80575742 9.310926031 -1.207464326)
(22.88439143 4.710089234 1.229067712)
(0 0 0)
(0 0 0)
(27.86671819 7.256688739 -3.996792911)
(182.3565037 28.23132509 0.9306587654)
(104.6045206 13.72482585 -4.223929115)
(29.18078915 8.571096405 1.830037098)
(101.8277139 1.826130609 3.074090617)
(124.7117898 20.48274379 -5.067116254)
(85.35969109 8.844187086 4.758961703)
(83.28330896 11.55844909 3.474700188)
(0 0 0)
(0 0 0)
(24.45587798 5.204652787 1.110430286)
(90.14424004 15.70041235 1.439997274)
(91.54150775 13.7592328 0.7751661345)
(36.15448367 8.08761334 4.321818409)
(75.52429861 13.07591918 2.993044682)
(155.2786849 23.58114215 -7.136014817)
(49.56841333 3.298549657 0.6440651272)
(71.05794875 15.02039236 1.607470278)
(30.36455088 -2.037520435 13.17746245)
(16.80097573 6.221407181 5.032550132)
(30.83566762 -8.804958185 3.516633448)
(17.40402416 2.042125551 3.414344845)
(23.96874052 2.803771026 -7.72677964)
(37.95648226 2.493229454 1.155450639)
(20.99149552 2.276003381 -0.8491259966)
(17.72518013 6.016373248 8.723218017)
(2.107725096 3.98709946 2.014523767)
(26.19673572 -7.977240033 -0.8191485243)
(9.978971546 5.205354197 -1.694734598)
(9.466218282 3.853618573 4.931307233)
(9.103277752 -3.954283632 0.03760124983)
(27.43867712 15.12288827 -0.8918262196)
(21.2350498 9.066716016 1.023599735)
(12.02558749 6.23284446 8.426807862)
(17.11589759 5.690166707 15.91949748)
(4.325895998 -3.19892491 5.523854076)
(5.10059369 1.998888727 0.6188493808)
(10.39391635 3.971850522 2.738116963)
(16.86750107 2.671891915 7.051026384)
(20.0213148 -0.4207303771 -2.844041499)
(8.843336057 1.697992439 3.437805165)
(-0.08692337539 -2.97341975 14.51622087)
(9.893379448 -4.423224543 -6.93313583)
(0.2864620278 7.177836689 -4.577210916)
(18.66351215 0.2532362522 0.1461396075)
(13.33869604 -3.931250472 2.231248841)
(12.39396922 1.181581355 -1.797503618)
(6.84492642 4.181548927 5.856579673)
(23.12414684 2.135171439 -8.353140229)
(63.31446124 1.910657517 -4.962990613)
(28.93529008 -0.3823882398 4.228507157)
(21.48686094 4.070919239 0.8838264992)
(8.470250868 0.5315025238 -4.054850396)
(35.23210911 0.5000999625 -18.09012226)
(25.49818368 7.586058935 -5.749827174)
(29.5201582 0.01464108993 -9.364016646)
(28.10924845 6.311027811 -2.143158524)
(38.78384588 -0.3451783768 6.914914927)
(22.27864787 6.428963381 0.9943518272)
(17.134687 10.82774174 3.597882091)
(25.25729998 -4.225061761 -2.84081626)
(16.4581005 6.42385752 -10.74002045)
(15.24248381 5.381106457 2.400001754)
(3.013494908 5.036794364 -2.695983305)
(24.13157774 11.06808829 -12.58056464)
(12.36212154 3.347382976 5.815225073)
(12.36870838 -2.39759308 -8.708496032)
(20.98072053 -2.436190419 -10.06757916)
(15.10457345 1.08636053 0.8106622208)
(18.31512108 6.626803302 10.25355885)
(2.053783572 3.599440069 1.957246421)
(10.70994846 7.113818477 -3.92555789)
(19.43257017 4.782484638 -8.735129694)
(3.84496093 -6.594453094 -1.119947974)
(15.22191685 4.384396271 -7.68713825)
(5.778770302 17.87157568 -7.659063152)
(10.66714123 7.2249572 2.988514736)
(10.33376851 8.899537707 -1.476879606)
(79.30653213 12.77138343 6.420645651)
(66.64124613 11.48381948 2.664361387)
(57.14827851 12.89165782 -8.185991723)
(39.65743357 4.882768966 -1.682131142)
(34.0218093 -6.525691112 2.502001411)
(37.21491195 2.044099361 -8.216688979)
(40.54725208 1.905181097 3.336876758)
(-0.6002047792 0.9637202019 0.2719382908)
(48.31552665 0.05508189211 3.048452983)
(42.87768214 7.981269471 -2.852357442)
(30.07475476 5.266134233 2.32083509)
(19.58499945 -4.173312023 1.741977423)
(16.99590399 6.258892562 -1.646499945)
(27.58929718 3.901205782 8.139612731)
(14.97507723 0.308207095 5.021577628)
(23.93182153 -0.5561640354 -2.528576509)
(25.94690458 5.899339529 2.513083319)
(17.51735768 0.6621490996 -4.32958808)
(25.97887218 3.688079962 2.285052493)
(26.02295463 7.076168219 -3.53637074)
(16.90408173 -6.905139959 0.5663753995)
(6.263298253 6.37009245 -4.013646668)
(20.33165092 3.032128942 1.207630361)
(10.64772672 4.173141972 -0.2366724994)
(20.34307555 10.00480359 4.913965482)
(25.97875222 7.612305063 0.4501068807)
(13.74994064 -0.3189143272 0.9944443369)
(21.02236768 5.200430988 -2.108230646)
(3.822140978 0.5158836185 0.1868969067)
(16.21448165 1.927104108 -4.825337688)
(55.7866747 11.89538385 4.366930194)
(97.68140401 15.49057751 2.070239172)
(47.49349059 16.29711535 13.04754654)
(39.18580519 3.338479123 -0.8127977655)
(79.5552258 10.62339259 1.703678971)
(39.02806612 13.83387091 5.627922322)
(24.64423681 6.499223393 1.650614743)
(54.30384872 6.170077797 3.276904325)
(65.00711127 10.46905177 -10.3504091)
(28.21903992 4.270967224 0.3714577542)
(49.76582948 8.95337086 6.197164868)
(40.4936013 10.38990302 14.10905715)
(21.89199205 3.20836947 -0.7876460931)
(37.51910694 2.414794924 -4.30836537)
(27.49122565 7.282632329 -9.632240486)
(21.86703008 11.49747259 -0.3219369229)
(28.47401488 -3.599823648 -6.462560823)
(34.6548519 6.263015915 4.905243768)
(18.48772364 10.35945304 2.671587158)
(25.27098506 -0.8600298046 -2.625082473)
(18.60006716 5.707755952 0.03844576973)
(22.95271485 10.29155332 -4.189140686)
(22.6269368 0.9166860955 -3.768128886)
(21.86838135 5.296920847 3.78070303)
(26.81738019 5.868932417 2.107317719)
(9.815062345 11.25845001 9.377862286)
(11.17938999 7.181249546 9.106980068)
(15.02666973 4.932879009 5.497207105)
(2.434700822 4.75873375 -4.511312172)
(13.33595798 14.87017104 -7.724660895)
(100.5616783 20.29381479 4.557209969)
(128.9774385 14.82388297 -7.046290942)
(97.18447049 15.79127824 -8.289192757)
(66.47976568 7.384906817 -1.221332267)
(37.22526715 9.897469565 -0.2005890388)
(61.11579226 6.772950478 3.214074646)
(34.60984694 4.532819429 1.533958676)
(41.60680168 8.193662095 -2.036643098)
(30.28333378 3.534256467 -5.155115526)
(49.72098112 8.32329269 0.7921082956)
(29.68529002 2.848411113 -4.844305138)
(31.8002822 12.5968444 2.25162039)
(45.54177489 5.321267316 1.183926407)
(49.22127404 5.121261858 4.511955272)
(25.5019962 6.567271595 -0.7080970641)
(70.1775214 10.99187154 12.22063832)
(34.50667778 -3.697073543 -4.053537154)
(2.684080333 2.181927617 -1.445426365)
(31.27760472 0.4687500207 2.281312517)
(17.86660388 0.03192202832 0.7149508926)
(22.55885562 6.893682043 3.433773502)
(24.77086844 -2.992161467 5.516143173)
(44.83633313 5.747659681 1.8663016)
(31.29911859 7.747282935 -6.222161733)
(24.81518303 17.80016867 12.19226736)
(22.98068079 6.226182866 9.667084664)
(26.0694859 1.490637736 -3.216236448)
(21.7895191 -9.473904667 -1.297858977)
(4.607066378 8.018878341 6.420978167)
(18.203879 5.89534573 -2.328135736)
(56.66614863 7.391198339 4.533488289)
(86.9416206 23.8538441 -1.855892288)
(68.04278 16.16126994 -6.621107029)
(91.70417447 24.81162255 2.697164075)
(79.34821287 12.55684227 6.347006885)
(76.99463448 14.53115693 -2.293010718)
(85.82236005 12.36117327 -1.755837322)
(56.32633723 9.231897707 9.14985761)
(40.38266949 -0.5235148602 1.991758729)
(87.91175341 -1.052660621 4.768796134)
(54.95528926 9.719053815 -3.940498349)
(43.46130739 7.024141093 -1.055963685)
(66.33215454 9.755952399 3.691716008)
(39.48625976 8.879416403 -11.81698756)
(60.95809275 7.984068834 -1.611058627)
(50.23586163 19.60128568 -1.168884005)
(55.5176673 -0.7624334958 -4.920571882)
(46.78174563 5.851817898 -0.07213556361)
(35.76717439 -0.0827724839 -1.900936202)
(51.97332507 7.835280694 2.677577027)
(12.94531302 5.786324518 5.353501942)
(21.79581396 3.063618412 -10.28416297)
(25.83390044 -2.870796681 -4.268574495)
(3.112849845 6.99107436 2.103562687)
(47.12759354 -4.251727088 -12.00192817)
(41.67958499 4.929377458 0.17724465)
(7.649046627 4.336185443 -0.08383103827)
(6.851216369 7.616762999 -2.098967461)
(28.18330141 4.568692468 8.093610955)
(31.85213533 -4.881230433 1.380595051)
(65.48670965 7.174897595 -1.264969737)
(110.5311792 16.37226715 0.6745131436)
(125.1353599 25.30914979 -2.589566035)
(71.44845032 18.25308933 4.959510505)
(119.6927305 30.45007129 1.588458207)
(151.7044459 36.26794053 8.961781931)
(56.93690597 3.77651578 7.573175548)
(94.75678235 16.66798767 6.249355044)
(80.62828918 9.256149775 -3.54710114)
(104.0070723 18.86263998 3.450730622)
(54.4477279 8.353307642 3.890616742)
(64.28854289 7.720922415 -8.78281039)
(25.36788018 1.223093554 1.024485555)
(44.85768562 17.43871677 2.907777935)
(90.38032498 25.69066765 2.984848791)
(52.757361 8.902321029 1.615156654)
(36.59757207 5.434816072 -0.6142421327)
(59.20113133 2.640841117 2.861896489)
(78.93242061 17.00493269 -11.04995919)
(63.92310243 0.3821419404 5.681199374)
(47.84827235 17.67966815 -3.939755808)
(45.37616222 11.70710721 2.924663735)
(40.03937448 8.32037786 19.33354524)
(22.38139766 19.32436003 -12.84027033)
(52.33607302 0.148072795 8.576540958)
(61.73336748 22.09941055 -1.082349488)
(22.73711505 12.95602925 2.671905261)
(32.17116452 -4.72074889 -2.47819458)
(15.46203961 7.441909857 1.186125519)
(73.47336977 13.74665229 14.02768701)
(75.24685758 16.56652079 0.7055277683)
(30.17715462 3.285089351 -0.1324052788)
(126.4621601 23.9778293 1.990232947)
(97.63149314 23.03878355 -3.125611812)
(101.7536113 15.65471498 -6.980755002)
(90.53102768 14.5865932 5.706712859)
(108.2837974 22.87397443 -3.101425779)
(113.0675189 13.71348886 -4.213691356)
(81.41119822 15.48517029 -1.508570871)
(163.1103939 38.4130876 3.854744479)
(51.24219561 13.29766161 -3.460648875)
(75.37466699 6.789462483 -1.840361159)
(56.24704769 13.17844868 -7.209565428)
(84.48734552 13.04179579 -7.184568587)
(94.43135462 16.57086557 5.639324393)
(112.7514026 12.43471201 0.5556526646)
(85.53142143 11.19831379 -12.34390824)
(51.46874318 12.03557904 -5.252944492)
(54.73857203 6.758196886 8.849946735)
(50.69809199 14.92233411 1.497674554)
(30.31673977 6.440206319 -1.303996241)
(69.96779258 17.39079422 -0.8805148517)
(43.51071373 12.28043928 2.210079775)
(31.77439643 0.3722415776 -3.408071108)
(19.95903318 6.660444305 -1.938076338)
(41.57639159 4.464845191 -10.15002737)
(22.6512064 8.723261223 1.54561585)
(54.54764124 4.071996983 11.76065249)
(29.59968929 4.16303572 10.3850537)
(25.21346905 10.57720206 4.206099788)
(143.7385698 21.11367221 3.413358413)
(124.0588689 14.76172005 -0.4219899516)
(43.40424706 11.23904185 0.1961543701)
(60.78580584 21.35935975 3.520661377)
(135.8165413 32.8411086 10.46016322)
(107.6663137 21.99251297 -8.722755045)
(45.24451435 6.186256714 6.601257076)
(51.54173116 11.43541021 4.796819218)
(100.1037624 3.507738887 -4.107598091)
(98.03294362 21.06177173 7.574222855)
(73.6225348 21.91847384 -0.1073670163)
(119.6428276 16.67660883 1.298885784)
(106.0576738 22.46674911 9.767706716)
(81.29243157 9.380408263 -5.194982035)
(69.11030128 13.75201163 2.971366178)
(65.5684338 16.8236699 4.86798092)
(95.61816308 18.4428989 6.208667557)
(92.52482877 21.14165007 10.79332295)
(42.66869529 3.3275187 2.406476118)
(46.03824841 11.81982668 0.5551309246)
(71.00371185 8.872207841 -4.185516388)
(60.27110086 5.898050386 -5.243188979)
(72.00102033 22.12177644 1.51978531)
(87.46390667 11.76591455 -7.610810735)
(44.71940575 6.65269256 5.078615648)
(88.25339845 18.24281982 -3.501599025)
(51.02590706 16.67082453 3.92493071)
(82.17320467 7.90332556 -0.7018932212)
(38.89499458 12.84629694 -3.53415081)
(39.70909309 10.52580841 8.618126953)
(78.88360785 8.982157005 3.443008629)
(116.6698221 11.23128245 -0.7395700352)
(94.12945104 19.97724149 -0.405771315)
(71.85278166 18.8195484 -1.250942298)
(80.58695691 9.033084054 -3.033259314)
(63.13413173 15.62477826 -0.1063258624)
(88.68423571 30.2340534 -2.06177068)
(129.2879353 23.2057188 -0.8208247979)
(97.20290501 25.1393662 -1.334452353)
(103.8308457 17.15814728 3.16584507)
(130.2372974 31.9243885 1.833139015)
(139.1588994 24.37364145 -16.98873843)
(104.7345102 24.60889606 -11.5095859)
(64.47624455 11.41266434 6.10519202)
(107.771248 17.11078591 1.816646318)
(124.6182118 26.58555149 -13.73473607)
(128.0505807 29.22934661 2.883392785)
(83.68408329 21.79724292 -2.383292376)
(85.09699996 16.13090128 -3.113613789)
(81.96193991 8.065595751 1.154688145)
(94.34870455 9.754719211 5.118239322)
(58.03232209 6.84902421 0.1115815596)
(94.12132512 19.01829888 5.548729069)
(69.82192528 12.03249155 1.167618621)
(34.52074158 11.80677814 -2.96586555)
(59.41295442 16.40946701 -2.901026485)
(63.87981736 5.524833507 3.335113731)
(78.65996812 13.63636844 11.5758093)
(82.54406614 26.69740935 -0.8933537627)
(53.95840175 5.588998981 -9.297818242)
(67.76931678 5.75785722 -5.537320638)
(95.85062649 9.817233766 -8.184701356)
(122.881328 21.12933413 3.655664763)
(106.5776285 14.14755018 6.532270994)
(40.40896655 5.457991901 -0.7243206178)
(94.07780547 17.85907521 9.998334866)
(181.7791243 30.82031752 -0.6884788499)
(92.78592512 14.32653331 0.948473785)
(105.9436158 23.34945453 2.555776277)
(83.61118458 30.59685141 10.34528626)
(56.84989154 7.06581657 2.101730776)
(127.057639 32.08214965 -6.337586966)
(119.4758789 29.15172333 -0.528192377)
(47.05942213 9.111697361 1.200868973)
(85.84281125 14.48260537 0.7838040061)
(109.2386521 30.10796773 -6.342336242)
(68.45182961 5.209816674 8.207546607)
(143.3329165 29.49765335 11.17372055)
(145.7999221 29.61631372 11.06676896)
(52.33883736 6.188428813 0.09007435685)
(58.1883116 12.90393975 -7.533056653)
(64.81482015 2.808088911 -1.323347786)
(97.75381082 16.73989036 4.539495641)
(114.5367682 28.89729302 -1.876879647)
(92.62218936 25.51166762 5.341169716)
(84.46905978 8.818054128 2.81114712)
(82.88114686 21.37280124 0.4024009041)
(48.39165443 10.59064097 -0.198721369)
(63.62149 18.68779421 10.30890583)
(47.04964134 7.603480754 5.746323068)
(93.78323075 11.509657 5.641682344)
(89.49405255 17.86439395 0.306213129)
(97.60142268 12.95628096 2.642320508)
(84.25927464 13.55924296 -1.320074621)
(115.5635345 6.400068852 2.032889193)
(100.3543533 27.02360018 -2.478176001)
(116.5537925 19.96336739 -2.386093526)
(78.82216761 13.76737464 -0.3772957329)
(88.83655595 19.83820816 0.5302017917)
(86.02614585 13.76140077 -7.503367529)
(48.13596031 12.22680126 2.843874261)
(100.9358304 32.99986272 3.44494307)
(97.81765019 23.29510289 -5.044095187)
(98.95299524 32.05482884 -6.666114569)
(106.8141055 19.15598836 -1.538979637)
(123.2975142 27.83722232 -3.292520406)
(134.7244226 27.03618024 9.370204236)
(92.88505002 13.57319698 -5.910583302)
(123.5552197 26.79237328 -1.927269682)
(68.30334416 15.13935711 -2.885560469)
(68.52344078 22.06476138 5.673898694)
(106.8670862 14.77943586 0.9591537933)
(86.06546078 15.71734765 -1.311304639)
(103.6304968 14.5305717 -3.999996946)
(74.0444224 14.05975694 -0.4337873745)
(74.25327356 8.853946035 0.1213271677)
(61.65462305 7.824238472 8.102026818)
(98.84973623 26.12055446 -1.115532933)
(48.9673983 16.36484187 -2.037364097)
(101.6289883 24.14821336 5.333082284)
(79.32919709 13.10458178 1.186457925)
(35.56348396 4.294576001 2.603755951)
(62.37386343 8.783235581 -0.1061217467)
(58.95203168 6.578172458 0.4497355742)
(64.13225769 2.051022626 -2.691455605)
(86.68205198 17.14025584 -0.7550079602)
(173.6057477 30.55962894 3.218220015)
(80.24509578 18.39192604 1.363761134)
(151.8553131 14.9307878 1.068355282)
(83.5104051 17.76786859 2.039890986)
(73.36127981 11.3459041 -6.010055786)
(135.3632033 31.26106713 5.38177766)
(151.9691738 33.38016021 1.794584396)
(81.74198886 14.78211627 -4.010231405)
(86.8069252 19.68067135 -5.737886603)
(93.74584795 10.38029979 -5.296951592)
(126.8859394 27.02489054 -0.9627055798)
(110.5034588 18.59569289 13.12230645)
(107.1381118 24.05155761 -1.526125123)
(94.10670142 18.69228109 2.988416545)
(98.87167515 21.34263205 -4.766585131)
(74.27401086 15.07176529 -0.1219428318)
(74.90988217 21.06755218 2.067134074)
(123.9558886 31.21769978 13.7507177)
(102.615609 16.74349142 2.289444254)
(92.15045273 16.81963956 4.229021899)
(132.0903832 27.18238363 -1.140580149)
(100.0001043 21.50815775 9.996660839)
(73.05907113 13.72623533 -7.865270835)
(89.96874033 16.59837767 5.091644139)
(66.06851095 12.57563259 -0.2269584931)
(86.25968786 12.24605924 -4.868387005)
(99.14424022 16.82109767 1.176889713)
(91.98866525 11.878913 1.788988135)
(96.29509359 10.08817273 -4.623793186)
(59.30792925 4.164509269 -6.641466451)
(64.26097415 12.92084371 -1.008604672)
(94.65034094 22.61012198 5.480660143)
(83.41110795 5.932200798 7.327613155)
(64.11026613 9.272345415 4.145842147)
(91.56255122 4.646263295 4.684141935)
(89.26743205 8.532512966 8.248782102)
(140.2916472 14.60668336 9.574829984)
(85.48666658 13.29045253 -5.138087576)
(66.59058575 12.08740639 1.321232131)
(92.85810249 15.62381841 -4.001440989)
(92.54929153 18.63834439 -3.396801367)
(72.93769135 14.7049844 -0.6818859164)
(131.8720498 26.75495563 -3.362546019)
(99.58816112 17.3888995 -4.624343659)
(110.2167847 20.94077223 -1.10966789)
(86.64098219 12.49055095 -2.647453261)
(99.97509124 17.54260932 -1.179790218)
(74.70053647 19.86990602 8.073454204)
(114.890242 26.36630037 -1.059491716)
(67.44182721 19.93125677 4.300201672)
(68.92368719 17.55289453 3.504772831)
(55.42068555 18.34009708 3.483189874)
(77.66243332 19.26195642 1.60502865)
(83.34806952 18.7009924 0.08761051213)
(93.78662852 9.381032726 1.514316029)
(90.05409546 18.22686784 -6.600692719)
(88.1131371 13.52024093 -2.902636177)
(59.2144584 11.8894861 -2.263874368)
(130.013161 16.70191183 1.972078027)
(110.1809472 22.61454416 -1.589489)
(119.6327774 22.36078888 -2.632004334)
(73.19645008 7.056682564 -0.02769435627)
(73.8057342 13.9222782 0.2728071971)
(41.44479004 4.837359331 1.823609437)
(64.89723734 8.828520399 0.9887141958)
(95.01164242 20.48254418 1.846933867)
(93.40749903 9.991268095 -2.377766012)
(61.90095406 12.1541163 -0.5990115643)
(94.06070923 12.33534108 -2.081842333)
(77.01857702 17.75000303 1.566788251)
(94.3104869 10.77065552 -5.073946196)
(91.1936781 17.58766231 -4.605062578)
(85.05698208 20.24100777 -0.4163079868)
(81.79653687 18.72359181 6.400877221)
(106.0461346 22.56593976 -6.121024544)
(70.72910034 18.6339957 -9.276523876)
(65.78657254 13.25005183 13.91649239)
(64.50363172 15.02144875 1.011308249)
(72.53098055 6.433429154 -1.898755331)
(64.28044008 18.25916752 1.582337568)
(113.2224912 24.9179569 -2.557559974)
(117.1933976 21.05522067 10.05839558)
(107.3670451 15.95734823 -10.12522276)
(57.43918859 21.48177694 3.417204667)
(81.66846914 15.9246679 -2.552721123)
(98.07272893 12.35563639 -2.141863986)
(98.59228166 12.39879978 1.481090187)
(66.12900928 12.52530977 0.9105777217)
(90.54450332 16.08355292 1.083295085)
(75.62000562 13.49345507 1.340600869)
(48.95475158 5.690619965 2.626377898)
(79.68908447 14.44036163 0.1467278813)
(68.28173279 12.99280125 5.991707314)
(78.86486562 15.49187785 2.725230648)
(89.31838996 14.42320235 -4.24162096)
(85.1132129 10.71520082 6.449738115)
(87.56090509 10.68754309 1.534456004)
(84.12487242 11.94996001 4.84051666)
(102.3661233 20.17407659 6.817187253)
(68.78643956 16.08658654 0.3060004061)
(82.36820797 27.23177433 8.16729362)
(94.64704878 19.91929155 2.076528356)
(96.4592616 24.87965784 -4.88875526)
(77.18579693 20.73142803 1.529866824)
(100.7214528 20.69914628 1.775712179)
(113.5516681 24.10075688 -1.892617426)
(120.9205074 28.619546 -4.524907945)
(128.7486477 24.67367022 3.104223569)
(67.40432642 11.30577719 -0.7708716254)
(106.915284 22.05027047 -5.875703011)
(148.9628695 30.5495585 -0.6589927204)
(83.74738476 12.62762981 -2.231873117)
(59.50389343 5.965150043 -4.780519911)
(87.231229 27.87263713 -6.950443825)
(90.1442804 11.84516308 -1.898717934)
(70.68203619 11.90350155 6.448183423)
(110.2484594 13.32479289 -8.886780452)
(132.4722415 27.42693956 0.4061994912)
(75.75647448 13.64027396 2.805194678)
(88.98399935 9.59094709 4.382912844)
(78.65780345 22.16076513 -0.1115583447)
(94.45538654 6.709901058 -0.06986213691)
(99.07697058 13.8824362 -6.742926101)
(123.4476796 18.99653375 -4.724194332)
(64.08936667 12.15941602 2.531270297)
(50.48547294 10.27624337 -0.1773264494)
(58.0745859 10.38256912 -2.991482575)
(38.12019319 7.179219078 -4.104903796)
(37.39187423 6.226117695 -2.226016651)
(66.13089751 8.0981767 1.274456938)
(58.07871041 7.757639014 2.734102044)
(65.37768352 10.64253204 2.535633048)
(95.20132502 17.6076096 -1.945799675)
(101.3625194 21.20221017 3.822034448)
(82.16679059 15.37892362 -4.83741311)
(104.2195729 16.91459478 -2.41164605)
(77.87518868 18.0982637 2.507576985)
(73.66914073 13.13597688 -4.001155923)
(83.031868 28.04016212 -2.705841347)
(95.36323555 16.81406434 3.93446775)
(84.74267365 17.59979186 7.498544187)
(123.0306978 27.233038 9.171573934)
(97.88287008 19.10311764 -2.964828974)
(127.1011852 36.32160494 -2.148487119)
(70.40346245 18.41676123 -2.721050645)
(102.3146154 10.14936062 -7.001378685)
(111.0634412 10.56728337 -7.970984127)
(47.66857223 4.864566819 -5.681470845)
(59.50033643 2.920121911 -3.525018807)
(99.1416334 10.66863194 -5.477841058)
(74.03754779 8.697614374 -0.6672877807)
(110.62012 14.88820355 9.244838292)
(131.1329831 13.33921347 -1.718756152)
(83.02690805 12.73423179 1.036481228)
(98.89840147 21.94375911 -1.108402202)
(111.0228531 15.36495314 1.460571416)
(75.95140842 13.62041097 -0.5010360662)
(67.77139233 12.18502624 2.18939017)
(72.83657956 16.79741695 5.617325235)
(68.8405867 8.830892255 -1.131291391)
(82.86176604 6.863386997 -7.517614292)
(153.034735 28.08653093 -10.00868551)
(73.4944725 8.014591799 -2.717886295)
(99.62718345 20.59974581 -3.16637584)
(79.28842629 22.27455061 -0.4415786718)
(66.45245963 17.43644677 -1.925765831)
(62.67684414 7.025945044 4.558181703)
(115.6628628 21.82909435 0.822602479)
(112.9049871 20.15873394 4.011361274)
(131.9391137 42.77877752 3.97821042)
(148.1448201 33.07984379 -2.39700407)
(128.1016401 21.58910657 -0.8510426048)
(143.3037473 38.26745927 -6.863672719)
(110.1058209 26.63332306 0.2340472908)
(106.5220063 18.45882113 -0.3458623278)
(63.30292735 9.353143661 -0.6476827121)
(100.821576 14.81118941 7.541589056)
(61.19911996 7.285473911 3.524490753)
(100.5188936 16.70974067 -1.134573579)
(70.11553342 11.498467 0.6327498304)
(80.83059824 10.8979255 -2.300957227)
(109.687455 15.70942909 -6.137038605)
(117.2095878 17.96022284 3.225359536)
(66.51002637 5.826615547 3.805340137)
(63.44623963 16.12874855 1.664437815)
(97.45467576 14.89355486 -7.111712439)
(126.4135643 26.17909498 -2.204674152)
(72.71504594 10.99496856 3.656674371)
(54.30059562 4.30196811 0.4782829311)
(69.32482653 12.79217178 0.8314310494)
(49.54510218 7.377197245 -9.220508787)
(85.25882726 12.56380246 1.643291035)
(118.2411513 21.00568421 2.136540652)
(71.90857485 12.31542552 -1.234266021)
(92.18454381 12.78760727 0.1143164712)
(108.7626167 15.76266493 -6.913083049)
(139.438293 28.92568009 1.402634118)
(123.270546 19.43088137 1.366505274)
(84.61397499 20.54198869 4.237161381)
(83.60924094 22.26639502 -2.605474703)
(79.84991153 10.68059294 3.383982049)
(101.9557611 17.27318708 0.3636010554)
(88.93419446 25.27265941 6.578261269)
(136.7283287 11.68808116 -6.240869048)
(72.81020109 12.36152429 -3.254488409)
(61.36367207 6.745850828 3.967534228)
(92.22111865 11.56643923 -10.4999527)
(30.19319524 3.737519867 2.104393667)
(82.83601167 19.98932645 -3.922351763)
(59.99409614 4.8625347 -1.832825957)
(33.49569023 4.488149096 -0.306074478)
(52.83998899 13.07900911 -2.473083097)
(76.95776026 10.46891637 -0.3682906924)
(96.38541687 11.73978326 -6.947452775)
(102.4967179 13.60958594 -0.7126959837)
(86.80251597 11.36455402 -0.6847217545)