/*--------------------------------*- C++ -*----------------------------------*\
| =========                 |                                                 |
| \\      /  F ield         | OpenFOAM: The Open Source CFD Toolbox           |
|  \\    /   O peration     | Version:  v1912                                 |
|   \\  /    A nd           | Website:  www.openfoam.com                      |
|    \\/     M anipulation  |                                                 |
\*---------------------------------------------------------------------------*/
FoamFile
{
    version     2.0;
    format      ascii;
    class       volScalarField;
    location    "0.00014";
    object      internalEMean;
}
// * * * * * * * * * * * * * * * * * * * * * * * * * * * * * * * * * * * * * //

dimensions      [1 -1 -2 0 0 0 0];


internalField   nonuniform List<scalar> 
1300
(
1133.451172
1191.089053
3570.712173
9384.486644
9557.657103
5393.591121
6608.801099
8743.808847
7349.787751
6914.440505
1185.400463
1381.120469
5358.625851
13773.04591
12435.88773
6546.278825
10502.17899
12396.95829
8982.917494
8497.374346
588.2395685
672.3341628
3307.450071
9879.977538
7959.016937
4236.983621
7560.845676
10593.4789
9514.029282
8008.021144
308.3373086
285.6203806
2477.253959
7773.580697
5963.996907
3396.918068
5976.745252
9876.595891
7597.830828
7284.978361
99.07942186
300.7582326
2265.98757
7463.838925
5272.897891
2609.862047
4205.687167
7697.174699
6722.513361
6224.481804
141.034886
145.6991555
2192.554806
7903.71628
4925.111851
1995.938425
4016.600347
5479.769835
6256.623407
5256.713546
58.21278916
190.0171052
2233.301095
7559.011198
4718.98111
1931.875039
3493.701359
5338.36002
4812.775511
4855.883385
72.6465789
106.4851541
2385.91959
8036.38894
4548.178474
2150.490502
3687.78048
5386.004566
4647.547622
4168.149649
41.43006121
134.2944177
2255.204991
7557.211217
4898.586788
1985.619705
3760.879438
5256.369471
5214.446226
3875.924634
21.10833941
95.02310279
2077.328346
7353.338476
4583.208448
1887.454976
3080.808206
5626.986068
5243.1344
3487.436248
18.124002
113.4797601
2160.95678
7663.295263
4437.63714
2031.289902
3620.681564
5366.565984
4848.982853
4016.163472
22.26737331
106.5302638
1945.004788
7177.615165
4385.21514
1736.79508
3540.127502
5213.855192
4494.184086
4293.398182
11.45526774
56.73905543
2039.395618
7384.464534
4531.622931
1867.774871
3272.300919
5283.042141
4620.402297
4067.051177
8.549484346
77.02575404
1996.030287
7779.906616
4452.233203
1811.338754
3388.553745
5400.043123
4641.995722
3928.919687
10.81919933
38.26194225
1922.709837
7547.02544
4333.371571
1712.673461
3350.949501
5184.816934
4643.538763
3784.579514
10.09420895
60.84292266
1962.792485
7955.767423
3916.601927
1790.623566
3384.29893
4861.505346
4406.30776
4118.735562
15.49239507
41.76554699
1748.057547
7271.067106
4180.235499
1922.263806
3428.799896
5007.143863
4543.769836
3907.215236
10.81919933
39.22928618
1945.764464
7648.785936
4153.461906
1863.615593
3459.587136
5297.735544
4739.466179
3518.725956
2.476595454
52.77222686
2030.158989
7880.717629
4612.779343
1810.851038
3257.88621
5149.87133
4791.844445
3597.27041
6.072888891
25.18367514
1756.02802
6826.405108
4168.572288
1951.378934
3373.240238
5053.239588
4415.360539
3790.466574
7340.812906
6331.895858
6629.007823
5426.366665
5701.694512
4982.227656
6258.635381
6626.20791
5742.798141
5578.228698
5034.334443
6308.607691
5920.484791
5910.657463
6316.784289
5456.113485
6018.681938
5822.264584
6591.045081
5497.374717
6228.780712
6461.59114
6043.466384
5654.625393
6281.416187
6469.584944
7508.343497
7006.653217
8664.45696
7934.503785
7400.296378
6375.175792
5802.779591
5653.819722
5926.332334
5548.111037
5930.829693
5520.285014
5893.322712
5136.216236
5487.254734
5612.323097
6448.18703
5760.497011
6186.72178
5755.547537
5515.638961
5737.38478
5756.554596
6634.625699
6343.93575
5741.865298
6619.106647
6348.352207
6714.808161
7120.41436
6597.848352
7462.100451
6899.109491
6847.792899
7750.673652
7633.17479
6521.579987
5671.809423
6137.781676
5668.050899
5967.442848
5160.930085
5133.362381
5659.097059
5759.727759
5797.289306
5342.697947
6136.61255
5450.969334
6041.497484
6113.484685
5352.518709
6185.167699
5922.290551
6242.250797
6258.973602
6162.423987
5868.243502
6321.138412
5916.975889
5983.316707
7084.279989
7480.809568
6097.00528
7608.50817
7774.042144
6729.539663
6285.700501
6391.999677
5641.42237
5584.574644
5670.508538
6001.895507
5193.779283
5596.208478
5633.747399
5578.941135
5951.550605
5447.471248
5245.201386
5314.816972
6008.043426
5484.977947
6120.974553
6543.228473
6411.923958
6190.963989
6812.837143
7396.214444
5938.073165
6830.237537
6367.061374
6599.065542
7002.086685
7269.33865
7968.210254
7865.915053
6641.127261
6430.109894
5945.823538
6341.42724
5641.507757
6059.968329
5431.180276
5517.871359
5002.749625
5014.655018
5468.820816
5627.67024
5390.61629
5884.058506
5373.655909
5920.399066
5998.362419
6295.252079
6557.062354
5822.776925
6444.479363
6107.409693
6752.17999
7066.440006
6903.966022
5942.166844
6334.610168
5851.168881
7539.588182
7243.39954
6757.903336
6183.940552
6599.576178
5846.483583
5292.606533
5688.962879
5906.957188
5498.010528
4912.709586
5518.698704
5125.824325
5538.997762
5364.296431
5871.330063
5379.951471
5201.739783
5463.599965
5739.672137
6016.26235
5961.760151
5736.555193
6385.412181
6963.853611
6322.928695
6639.497485
6635.471542
6899.655637
4443.441044
6188.866175
6404.284723
6512.707087
6555.430506
6495.657678
6192.232663
5789.104192
6047.97263
5772.139574
5469.997919
5126.277479
5283.480939
5657.65876
5334.82423
5272.333117
5012.917537
5610.279614
5272.747744
5479.486569
5532.214905
5911.07022
6268.648123
6175.520525
6298.241333
6048.449131
6850.616148
6778.253519
7432.363897
6282.752222
4199.652239
5647.512701
5868.010827
5561.416407
6460.030624
7327.410819
6564.224482
6342.985855
6158.843427
6030.671352
5950.85142
5673.542393
5584.376693
5643.056581
5347.005718
5375.502681
5123.002561
5548.13043
5142.656726
5423.098202
5326.1302
6300.077971
5464.634345
6451.304809
6119.757129
7234.069525
6323.020775
6821.628151
6421.077538
6870.39825
4297.04212
5220.381801
4748.364026
5119.676612
4911.607209
5986.355141
6212.224299
6336.113522
6051.038187
6023.150968
5794.18648
6226.634868
5722.628709
5824.122214
5696.596095
5488.533915
5344.882713
5099.750848
5457.164426
5072.534325
5146.305016
5104.510032
5770.966988
5938.115865
5884.4589
5943.623929
6758.824058
6805.727474
7034.099795
6736.480189
3340.605204
5086.384096
4468.143542
4279.632661
5236.446617
5302.956863
5427.748073
5436.531904
6357.016255
6750.02428
5834.442459
6151.755637
6195.095319
5511.425252
5904.834784
5555.995217
5293.53735
5287.786759
5753.146966
5527.122102
5366.317581
5121.401722
5609.451354
5607.195826
5660.098544
5664.37405
5683.65268
5778.399183
6453.603441
6494.50625
3818.617805
4816.284723
4588.910564
4265.520635
4617.938931
5043.5453
5111.092077
5196.042252
5478.12265
5893.631567
5733.407172
5861.7501
6367.837003
6271.950166
5807.965673
5857.450449
5954.960077
5565.806417
5675.806061
5580.96376
5209.468709
5543.433368
5552.599584
5201.89697
5923.658254
6004.52135
5784.172321
6380.726272
5839.802275
6770.053908
3303.025663
5094.643723
4377.798291
4117.647198
4066.315156
4719.751684
4351.828195
4653.703965
5287.87154
5322.521348
5414.63748
5933.001336
5814.720774
5900.967561
5660.078584
5975.868256
5819.555536
5500.849581
5558.617436
5588.802215
5688.223483
5158.466352
5278.977999
5860.310334
5195.569936
6167.214703
5412.30359
5493.557111
6032.429635
5673.485129
3883.281522
4683.104326
4298.619304
3931.174388
4393.714449
4607.831176
4326.25769
4368.005665
5085.314056
4996.839668
4992.683141
5422.484204
5390.209107
5563.845075
6080.477906
6342.918034
5857.340198
5784.35072
5285.020015
6090.374746
5392.492739
5568.021947
5538.197159
5386.505832
5293.823754
5099.28264
5461.690506
4943.40823
5555.564974
5859.039242
3871.734551
4814.186363
4506.668041
3978.226202
4178.747309
4338.703679
4334.508104
3953.26173
4575.261613
4910.668804
4364.963153
4639.383996
5168.186524
5005.367736
5735.399069
5182.540729
5651.500853
6335.05003
5766.841199
5654.082721
5888.275116
5297.10501
5387.250773
5648.944114
5295.519193
5530.084211
5612.892019
5813.567135
5621.773264
5854.64853
3486.379545
4594.585992
4286.666201
3958.65394
4020.06035
4656.283909
4326.033554
4270.301422
4551.818135
4079.123051
4116.250661
4758.316981
4849.544083
4629.004573
5022.8609
5230.505192
5049.18532
6178.987622
5537.812524
5784.942804
6068.824577
5545.196142
5774.768831
5901.104099
5563.286753
5178.932186
5198.421588
5297.449774
5332.645202
5567.874136
3780.088446
4571.791126
4332.00768
3802.178044
4596.026192
4686.638207
3938.224288
4275.626862
4705.329359
4425.390612
4076.890003
4106.299039
4264.365547
4502.695793
4818.735808
4611.904675
4841.189371
4980.913286
5609.821592
5174.102725
5651.924426
6173.132967
5875.626751
5272.000936
6013.441877
5858.359389
5317.758908
5425.50916
5179.907527
5514.762551
3388.47801
4617.00305
4929.224285
3648.149056
4217.62967
4179.028671
4346.537507
4367.511663
4080.653333
4310.455102
4425.685217
4243.774269
4732.766671
4013.859669
4823.598275
4620.270399
4772.588174
4925.059076
4859.273006
4990.84843
5609.541661
5518.849268
5970.257381
5574.774861
6220.425912
5937.615379
6211.861951
5957.53345
5405.831913
5963.518272
3843.28038
4274.934637
4027.55332
4066.719588
4203.103802
4420.4512
3811.921055
4260.054066
4545.778395
4113.50226
4277.896234
4270.934067
4477.282453
4390.064248
4504.378572
4284.145519
4668.319749
4738.965973
4748.237783
4915.560766
4973.606775
5116.921649
4858.320518
5304.470294
5899.535261
5320.58028
5846.99491
5844.186126
6057.989475
5538.044577
3305.622293
4637.786392
4452.905592
3597.676097
3960.16599
4811.758069
4122.994368
4069.308108
4376.286946
4241.004906
4063.446873
4291.253599
4431.651848
4052.784964
4224.065481
4533.224462
4151.759621
4405.533134
4729.225849
4778.124141
4722.169936
5172.229518
5039.74426
4568.503669
4926.923177
5445.525996
5732.08245
5551.161936
5311.425546
5857.858855
3947.722884
4426.888081
4487.664253
4026.275376
4299.102286
4064.702396
4282.436202
3849.885721
4304.684644
3600.649417
3938.70593
4122.275345
4114.444687
4326.063506
4128.773167
4136.908057
4240.158098
4319.913528
4327.161569
4218.54972
4667.869869
4514.245476
4688.338009
4865.683355
4918.487526
4726.035576
4923.254051
5072.582158
5296.328733
5363.283916
6183.113922
6322.036421
5672.361813
5369.424706
5726.330724
5277.318396
5276.198117
5250.373877
4423.160468
3741.307585
8371.121267
7454.06792
6635.850283
7016.558034
7243.937556
7475.472304
7044.602637
6871.683347
5096.666634
5299.508031
7315.350694
5952.981639
7312.140734
7026.701303
6423.230456
6651.602064
6636.933345
6641.826746
5916.730486
4334.385974
6048.270551
7234.603768
7786.428867
7042.641904
7254.489514
6756.956691
6945.696967
6380.9308
5881.974498
4918.895569
5281.917572
6653.457995
6340.102284
6865.33488
7056.122924
6322.928555
6411.399515
5836.526017
5461.28314
5465.786412
7002.477774
6158.057746
5800.24754
6972.040733
6435.32812
6098.369197
6627.643048
5514.602036
5520.691301
6046.573349
6902.829005
6072.890493
6820.261743
6462.636374
6073.993814
5517.239912
4906.431511
5166.419444
4758.6042
5275.98576
6116.164785
6041.976834
5963.157214
5338.508714
6800.871551
6249.40633
5531.039718
5851.598401
5504.11821
5224.310043
7002.841898
6901.91983
5616.883655
6518.418671
6166.796939
6045.118494
6114.4253
5481.59605
6103.840081
5048.848607
6360.870122
5813.315874
6173.091451
6516.49326
6287.947058
5950.795692
6399.07347
5739.015206
5710.142777
5619.665419
6102.543889
6678.429333
7104.486516
5775.726052
6205.106456
5935.20919
6329.156754
6170.573373
5864.840928
5987.276256
6228.184719
5841.349415
6645.441102
6120.367563
6765.636672
6548.626609
5789.709328
6363.304094
5637.537953
6261.130602
5894.147886
6403.836743
5987.143268
6085.375964
6451.63324
6175.787133
5325.847666
6369.852971
5972.691981
5906.305174
5756.420073
5575.197662
5943.97321
6296.303826
6190.307343
5911.831242
6264.417628
6440.498092
6521.79549
6228.486693
5059.619657
5820.601039
5121.97081
5729.246183
5580.718759
6043.023531
5884.55482
5760.851388
5679.83997
6686.128705
5778.976944
5195.540162
6232.723554
5375.690441
5853.004598
5613.346829
5976.338029
5697.430173
6316.862552
5615.49064
5699.788441
5721.069052
5678.179266
5484.020845
5529.575244
5616.863347
5748.345704
5851.579064
5598.305762
6118.684083
6028.124661
5521.347054
5592.758516
5634.563588
5664.800181
5682.575199
5767.701104
5713.081215
5955.591412
5659.573145
5623.058513
5371.038357
5330.446367
5656.805379
5628.001029
5781.769446
5803.482371
5340.221361
5922.94809
5895.122539
5539.540843
5336.514917
5585.671676
4998.582349
4977.987165
5429.851504
5097.43659
5593.315721
5150.704607
5893.232691
3267.349337
4146.754796
4004.930293
3884.482312
3794.533985
3800.45981
4258.252176
3722.862271
3693.26118
4204.026859
4357.453705
4174.993851
3836.060894
4575.900933
4385.266588
4462.088374
4531.595179
4541.671879
4440.368
4624.63998
5069.636279
5275.873073
4764.115584
4894.008094
4996.341015
5378.224931
5132.710112
5072.069251
5193.264811
4596.103105
3972.528977
5435.773076
5647.030981
5561.428534
5267.104476
4708.519216
5096.789288
5279.190514
5593.991663
5605.829078
6097.148743
5894.728335
5772.782097
5515.563613
5325.171127
5762.647405
5676.793646
6513.272776
6573.409342
5717.693759
7151.28492
6597.156804
5865.43799
6555.588033
6007.565033
7281.892869
7172.284753
7365.793219
8199.930386
6406.107793
3227.604275
5248.031603
5230.547596
5222.79454
5929.318537
4794.517714
5079.888563
5663.861255
4882.202911
5558.421904
5834.437286
4889.570638
5224.305268
5410.151034
5589.401287
5976.443735
5815.338144
5695.009544
6353.062364
6060.928706
6233.653617
5911.327044
6344.760861
6533.875419
6285.153056
6669.16941
7147.657644
6720.651844
7572.829534
6265.455863
3271.700791
4574.613282
5345.747448
5356.289836
5331.687737
4573.402731
5246.525826
6024.020517
5659.885217
4659.523421
5698.208214
5327.380178
5253.453709
5208.972622
6372.699805
5401.143247
5488.070389
6165.172883
6019.816709
5537.144229
6489.873489
6483.907772
6764.607235
6445.219513
5809.712046
5956.325411
6714.78017
7087.477348
8037.266404
6134.016725
3162.877798
4692.963638
5045.347834
5538.31709
5314.524295
5324.811144
4620.991569
5913.360189
5369.695988
5752.288722
4831.215626
4925.284081
5249.085684
4941.839393
5549.879886
5317.135265
5702.203731
5250.042019
6121.051165
5539.458098
5865.373378
5817.457955
6285.977973
6464.167713
6875.098099
6803.992721
6588.171012
6810.715044
7664.815734
6529.043377
3479.627706
4218.262354
4440.714576
5238.088435
4596.655594
5239.588422
5410.756563
5248.137178
5024.770939
5295.64902
5239.132002
5288.937769
5179.321734
5647.873288
5669.957964
5896.46012
5835.361516
5999.029377
5898.815986
6181.678485
5948.658681
5752.682032
5889.09938
5885.781018
6643.766395
6901.979502
5821.605205
7003.157741
8156.634246
7547.024973
3079.62065
4795.947331
4756.593009
5211.822519
4732.438488
5253.706449
4973.461828
5346.108891
5349.839447
5310.212321
5143.603401
5584.394013
5329.978058
5392.49699
5647.83155
5570.402247
5597.618776
5943.146653
6113.26103
6513.483372
7097.679833
6005.305886
6163.902824
6604.676117
6620.421721
7444.043331
5794.341613
7337.420949
7643.449412
7305.773189
3194.023768
5102.707027
4580.735716
5185.490541
5054.57715
4796.844094
5280.325941
4870.698959
5782.851536
5476.303967
5446.112081
5615.680676
6160.723603
5396.399495
5858.036558
5527.048514
5447.987998
5643.927849
5505.794934
5999.874972
5545.719344
6136.111814
6300.157529
6332.485939
5531.207229
6279.605494
6830.195802
7000.222502
7837.251976
7147.458375
3465.51947
4658.565506
4706.816302
4559.851407
4990.673126
5722.327987
5528.510095
6035.267882
5219.198662
5885.9685
5640.027695
5336.605545
5530.267552
5334.064818
5877.572037
5532.104661
5842.081775
5070.8103
6627.403783
6137.880516
6608.753863
6103.457636
6514.942895
6390.018894
5832.876125
7085.239353
6319.120922
6551.283274
8880.496216
8001.286177
3461.336884
5363.224072
5166.479514
5049.223179
5420.595562
5540.340058
5468.719206
5375.523297
5605.120612
5966.143464
5644.718356
5828.893762
6211.102686
6207.744302
5416.655305
6019.105605
5560.900146
5037.282665
5782.049088
6124.478994
6426.905271
6052.790335
6149.976105
5859.79632
6290.231863
6618.759294
6798.913655
6898.472077
8694.484844
7454.190145
)
;

boundaryField
{
    inlet
    {
        type            calculated;
        value           nonuniform List<scalar> 
20
(
1133.451172
1185.400463
588.2395685
308.3373086
99.07942186
141.034886
58.21278916
72.6465789
41.43006121
21.10833941
18.124002
22.26737331
11.45526774
8.549484346
10.81919933
10.09420895
15.49239507
10.81919933
2.476595454
6.072888891
)
;
    }
    outlet
    {
        type            calculated;
        value           nonuniform List<scalar> 
70
(
3741.307585
5299.508031
4334.385974
4918.895569
5465.786412
6046.573349
5275.98576
5224.310043
5048.848607
5619.665419
5987.276256
6261.130602
5906.305174
6228.486693
6686.128705
5615.49064
6118.684083
5659.573145
5895.122539
5893.232691
6.072888891
25.18367514
1756.02802
6826.405108
4168.572288
1951.378934
3373.240238
5053.239588
4415.360539
3790.466574
3947.722884
4426.888081
4487.664253
4026.275376
4299.102286
4064.702396
4282.436202
3849.885721
4304.684644
3600.649417
3938.70593
4122.275345
4114.444687
4326.063506
4128.773167
4136.908057
4240.158098
4319.913528
4327.161569
4218.54972
4667.869869
4514.245476
4688.338009
4865.683355
4918.487526
4726.035576
4923.254051
5072.582158
5296.328733
5363.283916
5539.540843
5336.514917
5585.671676
4998.582349
4977.987165
5429.851504
5097.43659
5593.315721
5150.704607
5893.232691
)
;
    }
    wall
    {
        type            calculated;
        value           uniform 0;
    }
    frontAndBack
    {
        type            empty;
    }
}


// ************************************************************************* //
