/*--------------------------------*- C++ -*----------------------------------*\
| =========                 |                                                 |
| \\      /  F ield         | OpenFOAM: The Open Source CFD Toolbox           |
|  \\    /   O peration     | Version:  v1912                                 |
|   \\  /    A nd           | Website:  www.openfoam.com                      |
|    \\/     M anipulation  |                                                 |
\*---------------------------------------------------------------------------*/
FoamFile
{
    version     2.0;
    format      ascii;
    class       volVectorField;
    location    "0.00014";
    object      momentum;
}
// * * * * * * * * * * * * * * * * * * * * * * * * * * * * * * * * * * * * * //

dimensions      [1 -2 -1 0 0 0 0];


internalField   nonuniform List<vector> 
1300
(
(-0.0404565981 4.843973262 3.007352805)
(-1.533790738 1.670106262 0.9162725889)
(-2.983203447 1.501585919 -0.859738622)
(77.28053048 3.623532288 -0.5842262952)
(69.69244186 -4.983030976 -1.29047516)
(31.73775713 4.186696918 6.817511431)
(19.21077351 -4.903495835 -6.631233476)
(48.90663931 0.3285264885 -2.262527125)
(24.14715935 0.8149908363 -3.332758944)
(14.31435282 -3.776733348 -0.253667711)
(-1.595953798 9.008038815 -4.471008603)
(-0.3616982557 12.29847049 -0.5378338387)
(34.23467752 9.407596942 -0.1920616372)
(196.2996377 41.1726546 1.044759165)
(54.35331482 7.619734318 3.609463729)
(35.03507302 5.410699762 -0.3295707841)
(48.25278726 12.07062104 4.251970187)
(97.76789595 24.35422752 0.004181429732)
(46.1460528 4.229300195 6.932189367)
(34.31617837 -3.823125324 5.174717862)
(-0.3269284619 3.339533722 0.4609563282)
(0 0 0)
(54.19349923 7.090824069 -4.364644063)
(202.9964683 35.39768798 7.813535173)
(59.2567634 11.17473541 -3.302272689)
(29.26566092 8.042996723 -5.138670779)
(70.68711349 7.60073913 -3.961920279)
(98.5909824 16.65594708 -3.681678996)
(76.30099974 4.519125253 1.504607854)
(92.7574023 16.42660772 2.808152607)
(0 0 0)
(-0.9299445625 6.119162059 -1.968314153)
(24.57190135 4.413601471 -0.4531904414)
(166.5290455 25.26989215 1.176879996)
(99.79381291 12.80906526 -2.6312033)
(33.61026691 17.34688934 -3.856701653)
(101.1586147 22.42169783 6.314057398)
(97.92360396 18.48505981 0.1522118315)
(63.53904405 13.55619337 -1.304886479)
(76.67730701 22.3979407 12.06933134)
(0 0 0)
(0 0 0)
(47.41131576 9.214042967 1.378760386)
(193.4323604 18.51100502 -4.084449241)
(83.59406684 12.48310172 -2.88355772)
(44.41730659 6.192613747 -5.98387114)
(100.0279645 17.64050982 -3.045667516)
(158.4076446 23.02368105 0.5181547271)
(67.94945442 15.85427977 3.306217513)
(91.5881658 24.70397646 5.758797384)
(0 0 0)
(4.261025585 3.266115673 -0.2924179335)
(70.31347447 13.31257433 0.004703647025)
(165.5848918 21.15423344 5.248639278)
(70.13659879 10.7883525 -5.258246816)
(32.84855119 3.527262944 -1.87495927)
(65.79899807 13.6436822 -1.04429767)
(194.7330557 29.12361233 13.52897603)
(89.30815579 20.19746368 1.608623697)
(105.1694003 18.4845811 -0.4711914674)
(0 0 0)
(0.2439126754 4.83816452 1.313935889)
(29.99028881 5.032039299 1.829989172)
(193.7211461 28.26960809 4.556307549)
(60.99748333 2.954446453 -2.360793678)
(29.70755705 8.095217362 7.148567309)
(107.0241352 12.23127356 -1.501125677)
(122.783228 21.60338221 -2.765258677)
(92.52243313 8.057869674 -6.322269681)
(58.27888894 10.48462393 0.2340604243)
(0 0 0)
(0.4143863511 4.545882348 -1.61169901)
(26.54709279 5.826396656 3.761577186)
(124.3691366 17.91627761 -5.049416346)
(129.9632853 19.09610633 -1.508199773)
(27.18590036 4.318631553 -2.960711916)
(88.09916247 14.67569801 -9.618899132)
(60.60660074 4.125877819 -0.004287644856)
(66.45949297 11.87203438 -0.03684378941)
(43.76008452 7.814274943 6.3038059)
(0 0 0)
(4.41001098 0.1975852848 -0.3891395745)
(39.99142018 4.265681298 5.48261712)
(192.8647508 22.59453434 6.783325657)
(73.49966168 13.93232151 7.519218689)
(39.10600893 4.316501512 -3.363303808)
(145.7221221 29.01425296 0.6014449694)
(58.6571285 15.31127539 -10.29344722)
(38.52498512 8.484398112 -3.55022786)
(46.36106155 10.0519517 -0.3906952062)
(0 0 0)
(0 0 0)
(6.512169522 -0.6653650209 0.6512872352)
(172.1325124 10.23071806 2.7053518)
(105.4359997 15.77064444 -0.3897378919)
(33.85321542 6.062788444 1.767315697)
(64.28940152 9.462039948 0.5321809178)
(96.7192632 1.443915023 -7.265002022)
(134.8662769 25.30055427 4.727901603)
(44.48721508 4.033684357 1.933041215)
(0 0 0)
(0 0 0)
(50.84018723 10.75980669 0.8928380061)
(153.2396428 22.2520576 3.728394057)
(103.1385647 15.94447146 -1.101549515)
(40.76487128 9.213237903 2.869806199)
(85.01304232 15.89252791 2.592585897)
(110.9449164 11.95346568 -6.950549123)
(159.4620586 25.45071051 5.028993715)
(54.25115136 14.77766315 0.8494604737)
(-0.01056595475 3.970865619 1.614430144)
(0 0 0)
(38.31755129 8.151943432 -0.6582213172)
(194.413048 24.72302129 -12.85132899)
(97.14083632 14.66776933 -0.7832971288)
(19.78614901 4.437268105 0.03344151225)
(78.9829289 17.51138336 4.684494406)
(92.18522399 19.73601587 2.834186257)
(56.80623357 10.09564709 5.497960301)
(85.58962053 9.827641141 5.470527648)
(0 0 0)
(0 0 0)
(32.80190296 1.148471062 3.07516166)
(197.4550629 33.29327384 9.634994551)
(33.80357807 -1.26799192 -0.6303016242)
(13.83734094 2.291574822 0.542299386)
(55.42707218 12.84932166 2.629742063)
(74.50614631 10.23267344 4.741047476)
(89.56257127 6.289327982 4.693019987)
(50.29491856 2.71933641 -1.942976623)
(0 0 0)
(0 0 0)
(39.72789624 4.79096543 -0.8410164566)
(232.0520824 41.90608203 -4.813363467)
(55.06807962 6.618543285 -0.623322847)
(47.78795178 8.392225574 -0.3003392967)
(100.4692902 15.42981055 4.570743373)
(152.030615 29.36458128 1.594365391)
(142.2851685 19.0797175 0.7707952954)
(90.65160627 18.70368464 -0.6600832739)
(0 0 0)
(0 0 0)
(46.52091696 12.27569819 -0.668498908)
(155.9285898 23.70058778 -1.623175309)
(77.15933502 6.503730499 -3.524505242)
(50.51399479 5.319920929 1.014588361)
(44.67589957 7.906425432 6.000897217)
(144.7580302 22.86928046 -0.1770734568)
(32.47463619 6.678250681 -5.053389622)
(69.33410588 5.979603354 9.333269613)
(0 0 0)
(0.4845538473 4.668714112 2.234878361)
(58.29807561 9.220098809 8.603032641)
(176.1079098 25.73325833 -1.143224763)
(71.73588473 7.583883175 0.7492024019)
(50.65336028 8.11346779 -3.849182461)
(95.63144252 11.26664923 -7.362594122)
(120.6226804 16.7374405 -5.509892893)
(133.0489378 18.19597975 3.260806265)
(77.59115591 10.00687002 -2.196785051)
(0 0 0)
(0 0 0)
(40.10512646 -1.698960336 -3.25140209)
(168.88728 19.45026965 -2.522745913)
(130.5456729 16.82226606 -11.287483)
(24.04327302 3.6253278 -1.040447302)
(54.78469873 15.66174831 2.605654527)
(33.34364577 4.464728801 -5.573824736)
(128.4059592 14.83440165 -8.861546853)
(87.01427135 19.07907782 1.220600629)
(0 0 0)
(0 0 0)
(32.82548494 -0.5036880823 0.2437780765)
(167.2645973 9.450283984 2.611306674)
(55.27759357 14.43222619 1.817642425)
(58.25449664 7.615715831 -0.5879856409)
(87.57886252 15.33308546 -5.713384943)
(117.3464522 16.38887866 -9.87292662)
(75.77760427 10.08889716 1.116486634)
(52.28530699 4.603588987 2.20554049)
(0 0 0)
(0 0 0)
(48.88004648 7.248001699 0.8691177786)
(182.118372 19.15154232 10.7933681)
(60.50351552 9.209739292 0.5141990098)
(28.31123117 6.481894514 -2.556988087)
(97.28067507 7.386882295 2.711879481)
(145.1004502 14.19983095 -3.953029852)
(47.37626704 8.713049043 -1.125324652)
(109.3453861 15.76441244 -5.885182743)
(0 0 0)
(0 0 0)
(49.36126254 14.32919551 -5.14565069)
(120.307503 21.98063035 2.375723474)
(76.43768344 9.83652979 -1.415130637)
(22.36992529 2.015519075 0.3097002517)
(90.09153518 20.9497243 3.731849637)
(102.1879761 13.2359021 -0.4146295917)
(36.12473799 2.665183763 1.35550237)
(55.35008444 1.914374386 -2.825537677)
(31.35194673 -0.6849219219 -2.540873807)
(8.929738363 2.918012037 1.522573301)
(25.6308654 -3.244037647 4.171256268)
(23.1124523 -4.128201472 -3.728596904)
(8.455442746 5.673357555 6.327216859)
(38.46224164 4.730868312 -9.954258304)
(8.211883022 -0.695924211 -1.142580214)
(12.96410877 -0.6189109959 2.322947722)
(3.818905587 8.872185029 -6.954899255)
(16.1981152 -2.647459273 -8.240825354)
(17.29987411 -0.6803738915 5.624410376)
(11.35335041 6.70101344 2.19546148)
(18.81193167 12.92064442 4.846564985)
(4.843982363 2.683862322 -1.680537421)
(33.17933798 10.61430237 -9.674639308)
(12.40894157 0.787348591 -13.91018817)
(5.429031701 1.626835269 -0.388972693)
(10.29851922 6.105917991 2.445709115)
(14.91558672 8.401669511 6.314041802)
(8.647831627 10.28067195 -3.993191605)
(8.818662957 -5.222708072 -1.555615291)
(26.51344558 -5.563822094 0.3482585194)
(10.99854789 7.680815939 -4.829113175)
(9.11612907 -0.9766374283 2.549473613)
(7.102666176 0.7501478941 -4.948863018)
(8.736451131 11.59030582 0.661214334)
(6.55631874 11.40405616 5.269295533)
(6.937945558 15.51649743 -3.687669901)
(5.918012299 2.515278191 -0.09227265501)
(27.51714976 -0.2999699688 -0.4160211923)
(15.90139472 4.731521469 1.340236687)
(53.9182532 0.8498993709 -7.129542602)
(4.555688969 3.516507286 -6.756707219)
(47.25408618 2.373776553 0.1102641329)
(36.82866897 8.538813552 -4.771966863)
(21.56898058 2.847986106 1.379328867)
(15.54762698 -2.867148433 -2.962278575)
(29.17194894 -0.4257821121 4.083215164)
(12.78336386 -0.2142146504 1.850893916)
(18.34360136 -0.6064472954 3.239827744)
(34.34198014 -5.266803949 -0.7073178251)
(28.35503008 9.835897223 0.1699991319)
(25.70428987 12.96218462 1.49910912)
(22.37753379 -2.409626279 5.724269502)
(5.610160519 2.68106358 -0.3544362483)
(21.87997384 -3.921930574 1.716342934)
(23.62989309 -3.594623068 5.124174036)
(2.84016033 1.220317956 1.440000802)
(5.384410623 1.592965372 -3.440048784)
(22.08298911 9.867127895 -3.725264109)
(22.29618487 -7.579408783 5.575346699)
(6.418646583 1.911421906 3.773469493)
(7.141178415 10.11007041 -0.8679133966)
(17.71571539 4.120694708 -2.88764184)
(23.07882381 -4.692045539 1.497290464)
(6.661544795 9.36517196 -4.595533333)
(16.75088153 4.6752895 3.184536806)
(10.18069171 -1.532003493 1.332188721)
(26.09145228 8.393136053 -13.49414515)
(20.46404644 5.273184014 2.499181183)
(50.11998357 9.714327698 1.625504425)
(35.76128381 -1.493095525 -8.271233846)
(69.12072513 4.452657055 6.370240343)
(13.31464403 4.657947898 1.084453274)
(34.83775632 0.3791366901 3.161530502)
(45.87469244 15.07454937 -9.633535057)
(29.30336299 8.19154194 -3.711075843)
(21.21864872 4.144543595 5.553518078)
(51.76461971 -0.3773132243 -5.593161653)
(35.54388391 -0.782447643 3.492292072)
(11.50632365 4.339180799 -3.977445741)
(18.29770622 4.938489945 5.669505415)
(15.27664133 13.93997936 -1.459867964)
(25.61406403 -4.210546691 -0.2164710827)
(16.3226611 2.514398885 -0.3848666561)
(35.49986861 4.566289545 2.143651246)
(26.84455919 0.8480418537 10.83538239)
(34.20626831 -3.170656767 4.424033196)
(10.04380233 3.626956168 -2.459589145)
(29.45928765 7.031368083 1.403989197)
(17.93762546 11.90370398 10.16812026)
(25.62164675 -1.948806391 7.451856924)
(31.55110556 0.4669281924 -9.636262373)
(19.46541136 10.79331357 -3.482352849)
(16.79294604 1.484063326 -2.117605809)
(5.288217659 -0.9547659487 0.7027584389)
(15.4438775 -1.857933745 -8.097459177)
(3.701522467 -1.657844487 -1.757112658)
(15.211755 8.068560201 -5.82341385)
(10.16599602 -5.931609332 -6.476380574)
(67.23168121 21.37375589 -0.4582048478)
(70.1639354 9.634323658 11.40554894)
(104.8524212 25.06496397 -1.008545998)
(55.64170488 12.77276359 5.869011683)
(27.14163953 6.841514951 -6.477521611)
(63.09484991 -4.245888888 -9.16382269)
(53.72775056 5.839326144 -0.7256189333)
(37.20445748 6.786736263 -10.61881551)
(77.87810146 -3.036293517 5.530581339)
(50.19583536 7.223205343 3.188465737)
(33.12982143 2.430799141 -3.150391889)
(29.22680876 9.229939798 2.349236424)
(44.42612077 -2.855938268 -3.261836334)
(28.7256308 2.920155531 1.102237016)
(6.674262699 2.507541273 4.93815084)
(17.09118176 3.93901408 -4.15080208)
(38.60245358 6.701301289 -0.6356541984)
(27.85618014 3.647569083 5.156826766)
(9.186985344 0.2168524288 -5.146288552)
(13.7979117 5.814087274 -1.500343793)
(22.48244875 -1.493400811 0.6231086013)
(20.11427538 -7.571367587 -5.99869906)
(-0.5418790459 5.24999156 -1.933699195)
(19.79016178 1.693759647 4.178884584)
(3.591953763 4.50343544 0.194467399)
(6.774065731 1.057958019 1.056796963)
(27.03779817 4.127366702 2.903324952)
(8.487301446 2.068751041 1.863726549)
(15.41345824 4.144034252 12.24216683)
(7.704181067 0.469217118 -4.613599205)
(73.61719079 11.94101895 -2.263931168)
(79.78009787 18.13750028 0.5739229932)
(54.02756776 3.78747496 1.75024707)
(52.28284355 18.24306838 7.498900759)
(56.68257241 16.88487632 -5.897112914)
(39.45498041 11.04376601 2.218064654)
(52.63377511 11.25868916 1.707365866)
(73.67279537 11.59642136 -3.522335464)
(45.14416441 3.870453918 1.622656066)
(64.2844292 9.429493378 -1.348624937)
(82.52776505 18.57120155 -16.43280136)
(13.15644033 7.475504959 -1.026774583)
(33.89594509 8.56707071 -4.332643003)
(42.89068874 12.08305514 5.549675705)
(22.33987972 0.5817556149 -2.096767581)
(23.25291195 7.462979358 5.264898128)
(26.10751248 3.947825266 -3.620275825)
(58.67284307 9.04439943 7.197570341)
(26.39208025 -0.7527263029 4.763704214)
(41.13866905 -6.710370001 -8.079927964)
(45.20852787 8.865257356 -3.650007625)
(25.37388593 12.14073738 -3.058780407)
(25.75768408 -0.9603507586 1.162443025)
(25.05567118 3.88464218 8.452667802)
(34.48958045 17.20159266 -10.11410936)
(6.740587049 3.532936808 0.4007061855)
(18.94665295 -0.5889516795 3.804645261)
(10.80521549 7.198886644 -3.734688907)
(34.29681116 15.27382064 0.4325430595)
(2.374719121 6.529468413 -9.685442224)
(111.7259126 26.47362893 2.025556593)
(152.8996003 41.44552182 -10.57866456)
(133.0122071 28.10902475 1.24797331)
(68.66933419 18.63170073 -1.679430658)
(92.05597651 16.09438637 0.2775975581)
(91.57798468 19.36655909 0.5170382061)
(66.35519454 20.20404305 5.171739404)
(73.04097399 12.00052157 12.24286031)
(100.5699135 15.65584377 -3.413612209)
(65.6830033 11.94616079 2.416079676)
(18.05535034 6.54548651 -0.755861848)
(42.23558877 16.08364913 1.319205538)
(51.49946501 8.780264583 -0.04836517651)
(34.95682897 2.144753355 2.329281056)
(71.7626206 20.84217375 -4.35312564)
(53.19649902 9.2477293 8.383963162)
(58.4015499 1.396330324 -6.109682724)
(39.09043236 4.147602288 -1.140818812)
(22.22975332 3.508727024 -1.437549344)
(27.36701707 4.1704556 8.244967481)
(41.76297632 3.477662495 -3.494798742)
(45.40834435 0.7056074824 -5.525242508)
(35.18949537 -2.179986774 -13.97277913)
(44.01632169 5.791876673 -1.601434768)
(22.98342642 -3.430555127 -13.4085427)
(25.73865247 1.719860097 -0.867533008)
(27.42853958 4.962903425 4.502778893)
(11.8485312 13.34301373 -4.527984075)
(12.03834928 11.15825369 -6.03208409)
(17.440389 3.518566658 -5.600915426)
(95.562147 18.10548654 2.480790131)
(38.50897848 13.2586941 -1.82071004)
(87.21824955 17.39525525 0.4681732608)
(63.93016726 14.15587753 3.322163474)
(58.18678771 4.689432493 -1.856071871)
(82.86776521 11.70610131 4.60619324)
(66.29737821 13.54954516 0.06486443173)
(81.16845086 19.27206232 -9.389174423)
(105.0673204 20.9909999 6.040191216)
(63.41783168 16.69723736 -3.14370584)
(47.14854609 12.6004307 1.485250274)
(21.85894798 4.896118329 -1.000729284)
(43.35008352 10.67117465 2.760328945)
(43.26356011 3.603158047 -3.072707898)
(38.7455888 12.23877983 3.933691937)
(73.44157564 10.45157267 5.748941188)
(61.46040349 14.08854214 0.1189144092)
(24.17041352 2.537887346 -0.05664341523)
(57.42524582 13.23392853 2.163246132)
(28.59329798 2.460215781 -1.739618163)
(47.93690388 8.564963806 -0.1624108631)
(36.58674826 4.50527012 -8.66027198)
(35.66558753 8.824078189 7.218507036)
(51.86072858 18.0170464 0.22992297)
(10.44420046 1.775794754 2.780307476)
(51.03675469 2.216066044 -1.408484369)
(22.39430491 -0.9957690297 6.203598649)
(29.30358132 7.664840144 5.809572878)
(40.79994352 9.336933284 -1.944067778)
(26.02117944 2.48142284 -2.520006699)
(95.01142362 14.11383539 -3.131644825)
(150.4257614 33.19752558 4.728001565)
(72.42650886 14.10443761 -0.3065231164)
(58.34099537 16.21471624 -5.785187279)
(129.6918026 20.52061899 0.5667728654)
(130.6266917 23.57987562 -3.709191335)
(74.73144529 24.73483704 2.698221015)
(74.19535952 20.81820589 3.863071982)
(93.77688523 17.50334095 8.641007129)
(110.9983985 29.37629426 -2.452174914)
(77.96225503 13.22192443 4.887074665)
(89.85612335 12.87571066 1.060479553)
(67.23470835 7.800187881 3.002637171)
(51.41606333 9.290521927 -8.618593907)
(44.62328593 1.297528806 -1.925319024)
(53.07370294 11.27631953 -0.7213731605)
(61.38864516 10.65575636 -7.935885731)
(97.59801189 24.87689098 -0.4000913694)
(56.94182703 5.548096745 0.1176475852)
(32.29014404 3.901605467 2.478091921)
(33.32673649 8.567705971 -7.417782825)
(49.64043803 6.784320518 4.163164786)
(49.00835873 8.648791173 3.364482518)
(32.82292987 11.42340804 6.376988849)
(40.24919115 4.152439806 6.308375781)
(29.66357587 3.836898819 -1.342057361)
(44.11299106 -0.5507961127 -6.283264458)
(33.95764578 9.991895895 -0.6953756045)
(17.37018635 0.002165166888 -4.597997159)
(48.70156446 12.03718008 -15.49780353)
(85.01718594 14.61485518 2.975271297)
(60.28702007 11.90750198 -0.149657424)
(77.01042675 18.19396645 -7.427024404)
(75.02848282 19.76343227 6.315484626)
(64.14955625 11.19364487 -5.590969461)
(102.9593588 20.73116407 -1.040843028)
(62.27301314 12.21786669 -2.610508034)
(117.2559523 22.72358501 4.41557228)
(55.93313343 13.94543675 -0.4535730736)
(53.37695491 10.68447476 2.043630942)
(49.06035811 11.98151918 -8.072509371)
(82.68495592 19.76349921 3.546653244)
(85.23664521 12.58163883 4.627489493)
(100.7583491 12.11269356 -5.763459224)
(54.9171371 8.159607633 5.063971845)
(43.07764916 8.086332592 -2.267420269)
(51.01683132 14.87005805 4.418287324)
(54.74624734 10.05659874 3.616996354)
(59.4452686 7.546413479 3.186271063)
(65.91428795 23.72904712 5.58904092)
(85.31123359 15.59502234 -2.384181829)
(41.49805709 6.099595157 4.183855638)
(28.60705612 3.173389121 1.808531673)
(38.80896077 11.86382879 6.941843891)
(56.20525322 11.95650238 -4.372901076)
(23.7278073 2.957817933 0.5922790963)
(32.14620395 4.754170634 -5.080923506)
(71.9907626 19.05230584 3.934037944)
(37.27405328 11.53478253 -3.987861192)
(37.64551229 16.27826327 -1.08775666)
(87.34114818 10.1831751 -1.230509073)
(126.8522592 9.690042844 6.928136)
(40.58936847 8.681055405 -0.05061821112)
(151.402927 24.35452908 2.328058927)
(149.6863798 43.51011979 2.352079869)
(80.75773432 8.069888346 0.009995219636)
(79.63908389 15.62307455 4.441614327)
(35.99381077 2.470582463 6.510457185)
(99.54141371 15.35922254 0.6196769393)
(68.30489354 17.61227849 -7.404762305)
(66.27871501 16.12028079 -5.412744154)
(129.8640155 31.89255271 -6.849602144)
(125.3384154 14.99770556 2.221146841)
(100.2705952 18.5281747 -11.82917234)
(63.55603436 14.09665228 -2.991972392)
(101.4424498 20.28764614 -0.5499674059)
(97.54945949 4.094406982 -1.534791153)
(73.89192732 13.06489542 0.4573038574)
(93.35142721 4.49768845 -2.688730587)
(98.38897402 16.85947675 -3.470080389)
(60.46183949 7.892493055 9.655791174)
(79.61932027 23.19184919 -1.612716854)
(82.00407819 15.03608978 -14.73961429)
(75.77556145 24.11819328 13.45540067)
(77.92849171 23.53176059 3.848715566)
(29.5045835 1.38178256 -3.348432445)
(76.36523573 2.058872047 -7.637431166)
(45.62017283 15.10622396 -4.544350038)
(27.29207682 3.761855809 -0.4799974937)
(94.00831169 29.43105561 6.570779573)
(79.33743117 14.61728431 -1.372215867)
(88.93884998 15.64643908 2.230913997)
(81.20304886 16.43604855 2.450159777)
(92.17284932 22.31314681 -1.03255008)
(73.12149121 11.42672791 9.557762137)
(104.5791478 13.19329064 2.598684144)
(134.795149 26.69169481 -8.519245144)
(120.3793678 21.34826919 -7.45608639)
(115.0492931 26.20825559 5.445924381)
(88.61941572 9.736745004 -2.813927183)
(96.67784832 21.32707252 3.991370544)
(68.2402999 13.05391891 -3.783509936)
(111.5903795 23.75855101 8.76066432)
(107.0203752 27.51154476 -2.992836135)
(129.3833542 21.24424011 -0.4272484326)
(49.83999391 11.42042057 4.11901932)
(93.07765212 24.66934859 -1.329578773)
(88.32791486 15.03732121 9.130272695)
(90.94053146 23.16118705 -5.002551393)
(72.16489534 17.67105173 -3.157010068)
(50.13091441 13.57074061 2.180134647)
(72.94869204 14.82994117 -0.6257986668)
(77.69327902 14.02495063 9.273383198)
(79.45468174 20.90692058 1.14762168)
(36.96898906 8.253921482 -3.941006901)
(92.43970944 11.23363123 -7.02827189)
(92.70200352 13.59292418 12.40752261)
(69.84051592 22.45387254 -2.447008909)
(49.43661796 14.55086491 -4.083035913)
(41.99630811 11.43872149 4.376941729)
(132.3961666 30.26750625 1.311670227)
(114.5215425 15.19781293 1.078366365)
(48.59323823 12.20267276 0.3559595085)
(86.8099133 18.74181321 0.7601433557)
(93.87380468 15.32348026 -5.089057733)
(105.7676849 18.84195766 0.03186829647)
(94.46810208 13.40126665 -2.883837876)
(87.49563072 17.42022703 3.031431163)
(91.82221924 20.66068226 -1.175826871)
(105.0292674 25.72547715 2.817583741)
(112.1342406 21.20580183 7.732823259)
(93.09218825 12.01660877 2.974681345)
(56.11990931 12.09342666 -0.772257086)
(96.80987703 13.64733369 -1.550346854)
(84.75064987 16.97953195 1.219870974)
(108.8002692 22.61056994 -1.050956893)
(101.6070182 21.79035505 -0.8944658533)
(110.0949915 16.62333769 -1.982148487)
(98.03066625 20.81048375 -2.089808591)
(88.37903929 30.46771941 7.443521679)
(74.61069248 24.54602694 6.661352238)
(115.9910468 26.92672025 -5.717931244)
(69.8838409 11.0033036 -3.576935245)
(87.85209022 19.44631363 1.697580473)
(78.14164641 13.45757964 -3.190085839)
(72.83142333 18.63563402 -3.026502362)
(73.49687533 19.55467088 7.353543343)
(64.34246936 14.53626303 6.82083789)
(96.34683441 7.137456651 -3.381829745)
(83.78035389 9.433835294 -7.014496473)
(67.79205575 8.799749373 -0.4618766656)
(67.35990319 14.50689524 -0.2722452812)
(87.45067977 17.43333191 1.727515568)
(58.55221152 3.917560699 1.094300148)
(100.8231523 16.13147273 -0.473969242)
(115.3661421 18.46446388 2.110411394)
(102.2242363 20.58281588 2.808970816)
(84.41940329 10.73177661 3.090862386)
(144.3373629 23.79237434 -0.8989098369)
(95.41830558 17.35639035 2.511487597)
(116.8969385 11.19796368 -1.143104243)
(95.90989671 8.838822006 1.693892994)
(136.0007221 24.16711594 0.285382644)
(161.8506098 37.82150679 4.864212041)
(153.0208454 34.70607491 5.373778084)
(115.8455291 20.95274273 -2.20883957)
(78.99245016 17.48990001 -0.7926365303)
(124.151443 28.8327625 1.712595884)
(78.16956163 14.42130175 0.7904761352)
(110.1263571 19.97490157 -7.225638722)
(68.67339188 17.95963452 -4.611371556)
(75.99715949 22.07603672 -2.960582705)
(141.1856719 31.61526106 -7.813350075)
(94.1970076 18.77122647 -0.9208448244)
(66.14269823 12.88762792 -2.001554745)
(110.5114897 18.36891364 -0.6932847175)
(68.07095781 9.145728461 -5.774356803)
(80.35452169 20.00702268 -8.510369369)
(60.19679694 18.92055651 -2.440233026)
(46.69108003 7.766562488 0.5563943394)
(51.57371658 8.038882632 2.046165776)
(70.6357107 14.6041782 -3.360081477)
(127.1305179 17.82805448 5.447874854)
(125.4440408 16.40451991 -3.012049448)
(53.12972021 7.542722238 7.254372775)
(79.03221442 8.046040588 0.1336118438)
(55.0256654 10.90168247 -4.463238723)
(104.2505514 8.419154685 -1.340344895)
(68.39020312 17.12630706 0.5614816955)
(71.01451617 17.8931602 1.241028727)
(89.88723507 15.77104039 5.099648)
(92.33662004 18.02464198 -4.964460709)
(76.97052088 14.23464093 -0.8085368277)
(41.8519072 4.882818114 -3.08980843)
(99.15749831 26.96216055 5.486488142)
(105.918022 8.785586782 0.6136875701)
(83.33028605 14.92294712 8.918205763)
(163.7973008 37.04484748 7.069367044)
(132.5977309 23.35811574 0.6883837012)
(104.3304948 21.59807624 -3.776176148)
(117.8647224 23.93579481 1.331250483)
(51.17386881 11.67260489 -4.238928429)
(92.12758621 20.28357268 1.080096214)
(87.82225106 15.7109632 -2.146827383)
(100.0970637 24.10493056 4.781229492)
(93.0676873 17.75552087 -3.877915284)
(116.9301213 22.93285922 -0.3154578719)
(138.7467607 30.18757492 7.028546831)
(102.998746 13.68901484 -6.775592051)
(82.78823392 16.02230167 9.971421747)
(85.40784493 23.04274975 6.373052171)
(132.0854688 13.09704402 -6.767198635)
(114.1574427 13.39020952 -1.065750795)
(76.66211707 9.628092593 3.814853668)
(34.96235142 3.000815212 -0.536732987)
(79.58907789 11.26339767 2.556104264)
(98.2414442 15.13210767 0.9161704343)
(85.19748412 12.75629702 -4.75916906)
(106.8343187 27.54705064 7.157487453)
(42.14634174 3.525343672 1.796404022)
(70.68550126 16.28684046 -2.081787044)
(97.67041213 12.95141285 -2.077702727)
(98.09563713 12.85113534 -4.871969397)
(74.41990841 18.9978755 -5.552701028)
(105.433251 10.06396972 5.875121391)
(136.5695302 21.34719448 4.367803788)
(136.8481091 28.48211365 -3.61408264)
(95.31820662 21.47046705 4.033584281)
(89.8213478 18.80040102 0.03002135766)
(113.7089111 23.38900576 -0.8250338103)
(110.7609017 25.87592356 -4.112870084)
(99.2016459 16.18709724 0.5443839976)
(81.58926256 18.51563359 7.288002821)
(112.1745797 24.3782745 -5.245541481)
(61.47383729 10.06472587 7.977694109)
(71.05753755 11.20814553 -4.252709766)
(151.0136207 36.42196806 2.052967894)
(103.0948284 29.2509499 -2.963649514)
(77.81185241 15.32470913 2.334517877)
(94.73558478 17.66367141 -4.836679353)
(92.72782729 14.0848315 3.801126807)
(123.3585616 14.37526407 0.3682988043)
(71.98273966 7.244291028 2.759671086)
(103.8234638 11.97507877 8.401252731)
(124.7129603 17.87823944 0.3480741541)
(119.3278524 23.30419414 2.508015928)
(91.67447561 13.59424348 1.961539925)
(45.95211049 3.840612522 -5.034133843)
(117.7956155 20.28947884 -0.7811815016)
(130.8606976 25.48377617 -6.322832397)
(91.2120886 12.83648209 -5.598529493)
(79.01671388 11.86113658 5.214362771)
(45.64543953 14.53342141 0.3907603903)
(141.9009349 26.71631959 -4.101510914)
(105.1250786 25.2903865 1.659901631)
(92.5583794 22.93647942 -1.180168969)
(63.67233811 15.32819018 2.61752277)
(128.2626576 29.58250622 1.592624446)
(125.6483072 25.27052906 -5.482642828)
(113.2015533 25.09485336 3.222055575)
(88.17616666 25.11976927 -1.89799851)
(93.85873567 19.17959021 7.69541315)
(105.6662237 21.41907105 -5.025472138)
(130.5645034 31.9511566 -17.70918188)
(76.41457624 16.10039061 1.826412948)
(118.5251363 17.47890577 -7.995875175)
(133.2645426 25.66322725 -4.972162325)
(116.8790924 28.43154079 -5.317956066)
(105.1803136 19.69972655 -2.680359776)
(157.35488 29.18032784 2.63898163)
(70.52520967 7.3884245 -2.554568002)
(67.41590119 20.18522858 -1.318322431)
(115.5942111 17.14646464 -0.132760921)
(79.35123265 12.84707506 4.399949174)
(44.10806551 2.425916506 3.955235646)
(68.43193003 10.87705923 3.349458622)
(28.31178249 1.439362975 3.319978497)
(100.5946403 14.37684108 2.836268012)
(99.27000443 12.1701925 -5.176343422)
(48.06480264 6.482667466 -7.920033354)
(81.37758026 23.19576483 5.407745621)
(86.26305283 9.212256348 -3.82295778)
(123.7636124 31.35395998 3.274209616)
(61.55141484 12.47549075 -4.341607891)
(97.71452796 15.32296325 9.462769804)
(115.4361679 22.49477522 -0.7223869372)
(104.2312578 18.95770991 0.3079818424)
(83.45823104 14.46441117 2.678871)
(80.02035712 18.69557536 2.183157532)
(93.75168175 12.50053203 -0.3156229051)
(93.4642703 18.66594778 -4.302230915)
(129.8074504 27.41288064 -5.457741296)
(122.0425308 22.0105529 -1.670660449)
(105.2185014 26.74151601 -2.621639165)
(118.071273 27.64468124 -2.862237833)
(92.02272348 21.05769643 -0.2846848423)
(124.6055689 18.59300461 1.913400326)
(108.3118808 23.84430193 2.117271408)
(120.4063246 27.93884785 2.805488146)
(118.8110657 20.70688316 -7.632553268)
(105.2048582 6.717456437 2.433048495)
(128.8248634 24.35084694 -1.858997475)
(62.03732405 8.797410834 -0.2680529096)
(119.8048993 16.09689388 0.2880102989)
(104.1398015 18.59991372 -3.395848947)
(90.25155932 22.99478144 5.226712301)
(71.58424081 9.116910138 4.636109446)
(77.27504539 12.45872141 4.133720563)
(134.0370164 15.79514804 4.3623207)
(91.98393407 20.42795069 5.806422659)
(55.47007863 8.304320306 -6.051576906)
(86.76238793 8.814622346 -6.9523706)
(110.0911239 9.630447613 0.5473641411)
(59.26317521 9.157183458 -1.989809384)
(95.78904488 8.9095197 6.063293349)
(121.3617296 17.26292942 -1.78874968)
(84.84178604 15.61938209 1.182196693)
(101.5437768 18.10996192 -1.183294745)
(71.17191702 17.44308027 -6.826221649)
(85.21532428 17.41466663 -0.7001952031)
(87.66617459 12.47309021 7.006719323)
(114.1761284 17.06927928 -10.0367305)
(90.34715225 15.13359159 4.376853897)
(95.06932053 17.7429146 -6.702565794)
(105.2076652 20.98715424 3.54779136)
(110.5433798 16.78096736 -0.5869386324)
(95.23099241 15.13542791 -1.503263527)
(117.3955747 7.158042792 -4.982689643)
(111.590786 18.28637199 4.741702113)
(135.4486616 29.41754443 0.9154659256)
(87.27567794 15.53383943 0.4478872602)
(104.985945 8.418482604 2.110191078)
(62.53993903 9.654962877 0.165503383)
(70.04142696 9.792322098 -7.54852455)
(126.6119108 17.70478834 -7.431426169)
(165.8296726 21.96861096 -4.373959391)
(56.32714781 1.398374977 -3.0725612)
(52.72693931 10.99727305 -4.023107254)
(63.7768301 10.28269902 8.395364856)
(48.09183993 4.362030395 5.501447181)
(52.65964792 10.39030188 -5.186889219)
(107.0630987 15.07372841 -4.935408326)
(95.09558202 7.682875276 0.859907898)
(84.50609284 13.81283618 -8.520546604)
(63.01513871 8.783375201 -0.5951774812)
(60.08629088 4.71978562 -3.935774151)
(108.462841 26.02579973 -0.8062994562)
(110.0967481 9.007937757 -6.494396232)
(45.99549 2.974596431 -0.2125341049)
(98.04840941 15.99626228 -2.487148947)
(95.60171725 10.89161028 -1.248650277)
(76.84338364 5.267764245 -1.148866652)
(139.9656398 27.72660041 -5.317870189)
(98.77253001 10.8116547 -4.275213682)
(56.3971727 8.546422332 2.410783043)
(67.24402318 9.897653715 9.062862526)
(60.65621833 11.48516767 0.7395556069)
(102.5312695 28.98768749 -4.987830794)
(75.09850107 14.93710687 1.24144406)
(89.61162207 17.46944905 -2.743960596)
(26.48453721 6.064043121 -0.4166116035)
(70.18994536 6.572881155 0.7431216417)
(107.476001 8.790155783 1.431723746)
(67.98827944 6.464128963 0.2810434381)
(104.4771994 13.13215085 -5.530983076)
(103.8488147 15.19625762 -2.76114708)
(70.65503577 14.7729656 7.439479617)
(61.75037996 14.84365816 -1.833918782)