/*--------------------------------*- C++ -*----------------------------------*\
| =========                 |                                                 |
| \\      /  F ield         | OpenFOAM: The Open Source CFD Toolbox           |
|  \\    /   O peration     | Version:  v1912                                 |
|   \\  /    A nd           | Website:  www.openfoam.com                      |
|    \\/     M anipulation  |                                                 |
\*---------------------------------------------------------------------------*/
FoamFile
{
    version     2.0;
    format      ascii;
    class       volScalarField;
    location    "1.12";
    object      T;
}
// * * * * * * * * * * * * * * * * * * * * * * * * * * * * * * * * * * * * * //

dimensions      [0 0 0 1 0 0 0];


internalField   nonuniform List<scalar> 
1900
(
1
1
1
1
1.00005
1.00087
1.00457
1.01089
1.01568
1.01979
1
1
1
1
1.00005
1.00086
1.00454
1.0109
1.01635
1.01995
1
1
1
1
1.00005
1.00086
1.00457
1.01093
1.01637
1.0196
1
1
1
1
1.00005
1.00086
1.00454
1.0109
1.01635
1.01995
1
1
1
1
1.00005
1.00087
1.00457
1.01089
1.01568
1.01979
1.01848
1.01992
1.021
1.0209
1.00709
1.02063
1.02178
1.02214
1.02281
1.01665
1.01986
1.02102
1.02145
1.02155
1.0154
1.02063
1.02178
1.02214
1.02281
1.01665
1.01848
1.01992
1.021
1.0209
1.00709
1.0463
1.04183
1.04395
1.03911
1.03179
1.04274
1.04109
1.04339
1.04312
1.03743
1.04271
1.04111
1.04306
1.0433
1.03743
1.04274
1.04109
1.04339
1.04312
1.03743
1.0463
1.04183
1.04395
1.03911
1.03179
0.935645
0.84828
0.880503
0.88663
0.896253
0.911316
0.932427
0.954807
0.975608
0.990985
0.99829
0.999888
0.999998
1
1
1
1
1
1
1
1
1
1
1
1
1
1
0.999998
0.999866
0.998008
0.989693
0.972338
0.94858
0.921814
0.894601
0.869806
0.847996
0.811025
0.700713
0.677191
1.00513
0.891759
0.895339
0.888222
0.895621
0.911359
0.932547
0.954893
0.975655
0.991007
0.998296
0.999889
0.999998
1
1
1
1
1
1
1
1
1
1
1
1
1
1
0.999998
0.999866
0.998008
0.989693
0.972338
0.94858
0.921814
0.894601
0.869806
0.847996
0.811025
0.700713
0.677191
1.00322
0.923181
0.899394
0.888448
0.89541
0.911363
0.932602
0.954922
0.975672
0.991016
0.998299
0.999889
0.999998
1
1
1
1
1
1
1
1
1
1
1
1
1
1
0.999998
0.999866
0.998008
0.989693
0.972338
0.94858
0.921814
0.894601
0.869806
0.847996
0.811025
0.700713
0.677191
1.00513
0.891759
0.895339
0.888222
0.895621
0.911359
0.932547
0.954893
0.975655
0.991007
0.998296
0.999889
0.999998
1
1
1
1
1
1
1
1
1
1
1
1
1
1
0.999998
0.999866
0.998008
0.989693
0.972338
0.94858
0.921814
0.894601
0.869806
0.847996
0.811025
0.700713
0.677191
0.935645
0.84828
0.880503
0.88663
0.896253
0.911316
0.932427
0.954807
0.975608
0.990985
0.99829
0.999888
0.999998
1
1
1
1
1
1
1
1
1
1
1
1
1
1
0.999998
0.999866
0.998008
0.989693
0.972338
0.94858
0.921814
0.894601
0.869806
0.847996
0.811025
0.700713
0.677191
0.756267
0.780623
0.859693
0.882635
0.895654
0.911044
0.932017
0.954492
0.97539
0.99087
0.998259
0.999886
0.999998
1
1
1
1
1
1
1
1
1
1
1
1
1
1
0.999998
0.999866
0.998008
0.989693
0.972338
0.94858
0.921814
0.894601
0.869806
0.847996
0.811025
0.700713
0.677191
0.671206
0.737721
0.843255
0.874922
0.891412
0.908832
0.930594
0.953597
0.974854
0.990625
0.998199
0.999881
0.999998
1
1
1
1
1
1
1
1
1
1
1
1
1
1
0.999998
0.999866
0.998008
0.989693
0.972338
0.94858
0.921814
0.894601
0.869806
0.847996
0.811025
0.700713
0.677191
0.676994
0.723252
0.834925
0.8692
0.886643
0.905819
0.928639
0.952386
0.974165
0.990335
0.998132
0.999875
0.999998
1
1
1
1
1
1
1
1
1
1
1
1
1
1
0.999998
0.999866
0.998008
0.989693
0.972338
0.94858
0.921814
0.894601
0.869806
0.847996
0.811025
0.700713
0.677191
0.683034
0.714749
0.828665
0.863799
0.881819
0.902512
0.926531
0.951117
0.973484
0.990064
0.998073
0.99987
0.999998
1
1
1
1
1
1
1
1
1
1
1
1
1
1
0.999998
0.999866
0.998008
0.989693
0.972338
0.94858
0.921814
0.894601
0.869806
0.847996
0.811025
0.700713
0.677191
0.684143
0.710083
0.823025
0.858492
0.877468
0.899467
0.924595
0.94999
0.972922
0.98986
0.998033
0.999868
0.999998
1
1
1
1
1
1
1
1
1
1
1
1
1
1
0.999998
0.999866
0.998008
0.989693
0.972338
0.94858
0.921814
0.894601
0.869806
0.847996
0.811025
0.700713
0.677191
0.683817
0.706438
0.817739
0.853711
0.873802
0.897008
0.923104
0.949182
0.972559
0.989746
0.998014
0.999867
0.999998
1
1
1
1
1
1
1
1
1
1
1
1
1
1
0.999998
0.999866
0.998008
0.989693
0.972338
0.94858
0.921814
0.894601
0.869806
0.847996
0.811025
0.700713
0.677191
0.681246
0.70332
0.813735
0.850247
0.871283
0.89543
0.922219
0.948746
0.972388
0.989701
0.998008
0.999866
0.999998
1
1
1
1
1
1
1
1
1
1
1
1
1
1
0.999998
0.999866
0.998008
0.989693
0.972338
0.94858
0.921814
0.894601
0.869806
0.847996
0.811025
0.700713
0.677191
0.678488
0.701369
0.811587
0.848442
0.870046
0.894709
0.921856
0.94859
0.972335
0.989686
0.997999
0.999857
0.999989
0.999991
0.999991
0.999991
0.999991
0.999991
0.999991
0.999991
0.999991
0.999991
0.999991
0.999991
0.999991
0.999991
0.999991
0.999989
0.999857
0.997999
0.989684
0.97233
0.948573
0.921808
0.894596
0.869802
0.847994
0.811023
0.700713
0.677191
0.677306
0.700716
0.81097
0.84791
0.869676
0.894411
0.92156
0.948279
0.972005
0.989342
0.99765
0.999507
0.999638
0.99964
0.99964
0.99964
0.99964
0.99964
0.99964
0.99964
0.99964
0.99964
0.99964
0.99964
0.99964
0.99964
0.99964
0.999638
0.999507
0.99765
0.989342
0.972003
0.948272
0.921541
0.894368
0.869612
0.847841
0.810908
0.700663
0.677172
0.676681
0.699778
0.809319
0.845948
0.867434
0.891923
0.918841
0.945354
0.968919
0.986149
0.994407
0.996252
0.996383
0.996385
0.996385
0.996385
0.996385
0.996385
0.996385
0.996385
0.996385
0.996385
0.996385
0.996385
0.996385
0.996385
0.996385
0.996383
0.996252
0.994407
0.98615
0.968922
0.945362
0.918851
0.891932
0.867442
0.845946
0.809306
0.699757
0.676651
0.672848
0.694784
0.802192
0.838144
0.859035
0.882945
0.909313
0.935338
0.9585
0.975441
0.983548
0.985353
0.98548
0.985482
0.985482
0.985482
0.985482
0.985482
0.985482
0.985482
0.985482
0.985482
0.985482
0.985482
0.985482
0.985482
0.985482
0.98548
0.985353
0.983548
0.975441
0.958501
0.935341
0.909319
0.882957
0.859056
0.838174
0.802224
0.694806
0.672853
0.662024
0.683139
0.787598
0.822742
0.843004
0.866266
0.891997
0.917435
0.940068
0.956577
0.964425
0.966152
0.966272
0.966273
0.966273
0.966273
0.966273
0.966273
0.966273
0.966273
0.966273
0.966273
0.966273
0.966273
0.966273
0.966273
0.966273
0.966272
0.966152
0.964425
0.956577
0.940068
0.917435
0.891999
0.866271
0.84301
0.822752
0.787608
0.683146
0.662026
0.644886
0.666493
0.76784
0.802154
0.82194
0.844686
0.869843
0.89471
0.91678
0.932769
0.940266
0.94188
0.941988
0.94199
0.94199
0.94199
0.94199
0.94199
0.94199
0.94199
0.94199
0.94199
0.94199
0.94199
0.94199
0.94199
0.94199
0.941988
0.94188
0.940266
0.932769
0.91678
0.89471
0.869843
0.844686
0.821941
0.802156
0.767841
0.666494
0.644886
0.624445
0.647945
0.74587
0.779173
0.798643
0.820954
0.845632
0.869947
0.891436
0.90684
0.913914
0.915387
0.915481
0.915482
0.915482
0.915482
0.915482
0.915482
0.915482
0.915482
0.915482
0.915482
0.915482
0.915482
0.915482
0.915482
0.915482
0.915481
0.915387
0.913914
0.90684
0.891436
0.869947
0.845632
0.820954
0.798643
0.779172
0.745869
0.647945
0.624445
0.605181
0.629506
0.723594
0.7559
0.775031
0.797199
0.821435
0.845259
0.866153
0.88092
0.887516
0.888829
0.888908
0.888909
0.888909
0.888909
0.888909
0.888909
0.888909
0.888909
0.888909
0.888909
0.888909
0.888909
0.888909
0.888909
0.888909
0.888908
0.888829
0.887516
0.88092
0.866153
0.845259
0.821435
0.797199
0.77503
0.7559
0.723594
0.629506
0.605181
0.585621
0.614035
0.703885
0.734835
0.754022
0.77579
0.799853
0.823232
0.843589
0.857714
0.863814
0.864966
0.865031
0.865032
0.865032
0.865032
0.865032
0.865032
0.865032
0.865032
0.865032
0.865032
0.865032
0.865032
0.865032
0.865032
0.865032
0.865031
0.864966
0.863814
0.857714
0.843589
0.823232
0.799853
0.77579
0.754022
0.734835
0.703885
0.614035
0.585621
0.575249
0.599579
0.686258
0.716587
0.735915
0.757674
0.781382
0.80444
0.824322
0.837829
0.843421
0.84441
0.844461
0.844461
0.844461
0.844461
0.844461
0.844461
0.844461
0.844461
0.844461
0.844461
0.844461
0.844461
0.844461
0.844461
0.844461
0.844461
0.84441
0.843421
0.837829
0.824322
0.80444
0.781382
0.757674
0.735915
0.716587
0.686258
0.599579
0.575249
0.555825
0.579712
0.660373
0.687975
0.70665
0.727136
0.749886
0.771991
0.791065
0.803802
0.808845
0.80967
0.809708
0.809709
0.809709
0.809709
0.809709
0.809709
0.809709
0.809709
0.809709
0.809709
0.809709
0.809709
0.809709
0.809709
0.809709
0.809708
0.80967
0.808845
0.803802
0.791065
0.771991
0.749886
0.727136
0.70665
0.687975
0.660373
0.579712
0.555825
0.489554
0.509358
0.580772
0.60174
0.617267
0.633633
0.652563
0.671256
0.687179
0.697058
0.700418
0.700857
0.700873
0.700873
0.700873
0.700873
0.700873
0.700873
0.700873
0.700873
0.700873
0.700873
0.700873
0.700873
0.700873
0.700873
0.700873
0.700873
0.700857
0.700418
0.697058
0.687179
0.671256
0.652563
0.633633
0.617267
0.60174
0.580772
0.509358
0.489554
0.489282
0.487209
0.552267
0.572752
0.583662
0.603714
0.62352
0.64374
0.659676
0.668376
0.67075
0.670975
0.67098
0.67098
0.67098
0.67098
0.67098
0.67098
0.67098
0.67098
0.67098
0.67098
0.67098
0.67098
0.67098
0.67098
0.67098
0.67098
0.670975
0.67075
0.668376
0.659676
0.64374
0.62352
0.603714
0.583662
0.572752
0.552267
0.487209
0.489282
0.489282
0.487209
0.552267
0.572752
0.583662
0.603714
0.62352
0.64374
0.659676
0.668376
0.67075
0.670975
0.67098
0.67098
0.67098
0.67098
0.67098
0.67098
0.67098
0.67098
0.67098
0.67098
0.67098
0.67098
0.67098
0.67098
0.67098
0.67098
0.670975
0.67075
0.668376
0.659676
0.64374
0.62352
0.603714
0.583662
0.572752
0.552267
0.487209
0.489282
0.489554
0.509358
0.580772
0.60174
0.617267
0.633633
0.652563
0.671256
0.687179
0.697058
0.700418
0.700857
0.700873
0.700873
0.700873
0.700873
0.700873
0.700873
0.700873
0.700873
0.700873
0.700873
0.700873
0.700873
0.700873
0.700873
0.700873
0.700873
0.700857
0.700418
0.697058
0.687179
0.671256
0.652563
0.633633
0.617267
0.60174
0.580772
0.509358
0.489554
0.555825
0.579712
0.660373
0.687975
0.70665
0.727136
0.749886
0.771991
0.791065
0.803802
0.808845
0.80967
0.809708
0.809709
0.809709
0.809709
0.809709
0.809709
0.809709
0.809709
0.809709
0.809709
0.809709
0.809709
0.809709
0.809709
0.809709
0.809708
0.80967
0.808845
0.803802
0.791065
0.771991
0.749886
0.727136
0.70665
0.687975
0.660373
0.579712
0.555825
0.575249
0.599579
0.686258
0.716587
0.735915
0.757674
0.781382
0.80444
0.824322
0.837829
0.843421
0.84441
0.844461
0.844461
0.844461
0.844461
0.844461
0.844461
0.844461
0.844461
0.844461
0.844461
0.844461
0.844461
0.844461
0.844461
0.844461
0.844461
0.84441
0.843421
0.837829
0.824322
0.80444
0.781382
0.757674
0.735915
0.716587
0.686258
0.599579
0.575249
0.585621
0.614035
0.703885
0.734835
0.754022
0.77579
0.799853
0.823232
0.843589
0.857714
0.863814
0.864966
0.865031
0.865032
0.865032
0.865032
0.865032
0.865032
0.865032
0.865032
0.865032
0.865032
0.865032
0.865032
0.865032
0.865032
0.865032
0.865031
0.864966
0.863814
0.857714
0.843589
0.823232
0.799853
0.77579
0.754022
0.734835
0.703885
0.614035
0.585621
0.605181
0.629506
0.723594
0.7559
0.775031
0.797199
0.821435
0.845259
0.866153
0.88092
0.887516
0.888829
0.888908
0.888909
0.888909
0.888909
0.888909
0.888909
0.888909
0.888909
0.888909
0.888909
0.888909
0.888909
0.888909
0.888909
0.888909
0.888908
0.888829
0.887516
0.88092
0.866153
0.845259
0.821435
0.797199
0.77503
0.7559
0.723594
0.629506
0.605181
0.624445
0.647945
0.74587
0.779173
0.798643
0.820954
0.845632
0.869947
0.891436
0.90684
0.913914
0.915387
0.915481
0.915482
0.915482
0.915482
0.915482
0.915482
0.915482
0.915482
0.915482
0.915482
0.915482
0.915482
0.915482
0.915482
0.915482
0.915481
0.915387
0.913914
0.90684
0.891436
0.869947
0.845632
0.820954
0.798643
0.779172
0.745869
0.647945
0.624445
0.644886
0.666493
0.76784
0.802154
0.82194
0.844686
0.869843
0.89471
0.91678
0.932769
0.940266
0.94188
0.941988
0.94199
0.94199
0.94199
0.94199
0.94199
0.94199
0.94199
0.94199
0.94199
0.94199
0.94199
0.94199
0.94199
0.94199
0.941988
0.94188
0.940266
0.932769
0.91678
0.89471
0.869843
0.844686
0.821941
0.802156
0.767841
0.666494
0.644886
0.662024
0.683139
0.787598
0.822742
0.843004
0.866266
0.891997
0.917435
0.940068
0.956577
0.964425
0.966152
0.966272
0.966273
0.966273
0.966273
0.966273
0.966273
0.966273
0.966273
0.966273
0.966273
0.966273
0.966273
0.966273
0.966273
0.966273
0.966272
0.966152
0.964425
0.956577
0.940068
0.917435
0.891999
0.866271
0.84301
0.822752
0.787608
0.683146
0.662026
0.672848
0.694784
0.802192
0.838144
0.859035
0.882945
0.909313
0.935338
0.9585
0.975441
0.983548
0.985353
0.98548
0.985482
0.985482
0.985482
0.985482
0.985482
0.985482
0.985482
0.985482
0.985482
0.985482
0.985482
0.985482
0.985482
0.985482
0.98548
0.985353
0.983548
0.975441
0.958501
0.935341
0.909319
0.882957
0.859056
0.838174
0.802224
0.694806
0.672853
0.676681
0.699778
0.809319
0.845948
0.867434
0.891923
0.918841
0.945354
0.968919
0.986149
0.994407
0.996252
0.996383
0.996385
0.996385
0.996385
0.996385
0.996385
0.996385
0.996385
0.996385
0.996385
0.996385
0.996385
0.996385
0.996385
0.996385
0.996383
0.996252
0.994407
0.98615
0.968922
0.945362
0.918851
0.891932
0.867442
0.845946
0.809306
0.699757
0.676651
0.677306
0.700716
0.81097
0.84791
0.869676
0.894411
0.92156
0.948279
0.972005
0.989342
0.99765
0.999507
0.999638
0.99964
0.99964
0.99964
0.99964
0.99964
0.99964
0.99964
0.99964
0.99964
0.99964
0.99964
0.99964
0.99964
0.99964
0.999638
0.999507
0.99765
0.989342
0.972003
0.948272
0.921541
0.894368
0.869612
0.847841
0.810908
0.700663
0.677172
0.678488
0.701369
0.811587
0.848442
0.870046
0.894709
0.921856
0.94859
0.972335
0.989686
0.997999
0.999857
0.999989
0.999991
0.999991
0.999991
0.999991
0.999991
0.999991
0.999991
0.999991
0.999991
0.999991
0.999991
0.999991
0.999991
0.999991
0.999989
0.999857
0.997999
0.989684
0.97233
0.948573
0.921808
0.894596
0.869802
0.847994
0.811023
0.700713
0.677191
0.681246
0.70332
0.813735
0.850247
0.871283
0.89543
0.922219
0.948746
0.972388
0.989701
0.998008
0.999866
0.999998
1
1
1
1
1
1
1
1
1
1
1
1
1
1
0.999998
0.999866
0.998008
0.989693
0.972338
0.94858
0.921814
0.894601
0.869806
0.847996
0.811025
0.700713
0.677191
0.683817
0.706438
0.817739
0.853711
0.873802
0.897008
0.923104
0.949182
0.972559
0.989746
0.998014
0.999867
0.999998
1
1
1
1
1
1
1
1
1
1
1
1
1
1
0.999998
0.999866
0.998008
0.989693
0.972338
0.94858
0.921814
0.894601
0.869806
0.847996
0.811025
0.700713
0.677191
0.684143
0.710083
0.823025
0.858492
0.877468
0.899467
0.924595
0.94999
0.972922
0.98986
0.998033
0.999868
0.999998
1
1
1
1
1
1
1
1
1
1
1
1
1
1
0.999998
0.999866
0.998008
0.989693
0.972338
0.94858
0.921814
0.894601
0.869806
0.847996
0.811025
0.700713
0.677191
0.683034
0.714749
0.828665
0.863799
0.881819
0.902512
0.926531
0.951117
0.973484
0.990064
0.998073
0.99987
0.999998
1
1
1
1
1
1
1
1
1
1
1
1
1
1
0.999998
0.999866
0.998008
0.989693
0.972338
0.94858
0.921814
0.894601
0.869806
0.847996
0.811025
0.700713
0.677191
0.676994
0.723252
0.834925
0.8692
0.886643
0.905819
0.928639
0.952386
0.974165
0.990335
0.998132
0.999875
0.999998
1
1
1
1
1
1
1
1
1
1
1
1
1
1
0.999998
0.999866
0.998008
0.989693
0.972338
0.94858
0.921814
0.894601
0.869806
0.847996
0.811025
0.700713
0.677191
0.671206
0.737721
0.843255
0.874922
0.891412
0.908832
0.930594
0.953597
0.974854
0.990625
0.998199
0.999881
0.999998
1
1
1
1
1
1
1
1
1
1
1
1
1
1
0.999998
0.999866
0.998008
0.989693
0.972338
0.94858
0.921814
0.894601
0.869806
0.847996
0.811025
0.700713
0.677191
0.756267
0.780623
0.859693
0.882635
0.895654
0.911044
0.932017
0.954492
0.97539
0.99087
0.998259
0.999886
0.999998
1
1
1
1
1
1
1
1
1
1
1
1
1
1
0.999998
0.999866
0.998008
0.989693
0.972338
0.94858
0.921814
0.894601
0.869806
0.847996
0.811025
0.700713
0.677191
)
;

boundaryField
{
    inlet
    {
        type            fixedValue;
        value           uniform 1;
    }
    outlet
    {
        type            zeroGradient;
    }
    obstacle
    {
        type            zeroGradient;
    }
    empty
    {
        type            empty;
    }
}


// ************************************************************************* //
