/*--------------------------------*- C++ -*----------------------------------*\
| =========                 |                                                 |
| \\      /  F ield         | OpenFOAM: The Open Source CFD Toolbox           |
|  \\    /   O peration     | Version:  v1912                                 |
|   \\  /    A nd           | Website:  www.openfoam.com                      |
|    \\/     M anipulation  |                                                 |
\*---------------------------------------------------------------------------*/
FoamFile
{
    version     2.0;
    format      ascii;
    class       volVectorField;
    location    "1.12";
    object      U;
}
// * * * * * * * * * * * * * * * * * * * * * * * * * * * * * * * * * * * * * //

dimensions      [0 1 -1 0 0 0 0];


internalField   nonuniform List<vector> 
1900
(
(1.30453e-07 4.28281e-11 0)
(2.0389e-07 -1.79965e-10 0)
(2.35501e-07 -5.9154e-10 0)
(-1.10675e-06 -1.49473e-09 0)
(-0.000122782 -3.48124e-08 0)
(-0.00215586 -1.62692e-06 0)
(-0.0113722 -3.82421e-05 0)
(-0.0267567 -0.000408851 0)
(-0.0399812 -0.00139495 0)
(-0.0412892 -0.00748829 0)
(1.30235e-07 2.58649e-11 0)
(2.03268e-07 -6.07403e-10 0)
(2.34639e-07 -1.28907e-09 0)
(-1.1077e-06 -4.65211e-09 0)
(-0.000122216 -2.65259e-07 0)
(-0.00214038 -6.76971e-06 0)
(-0.0113261 -7.94463e-05 0)
(-0.027156 -0.000560679 0)
(-0.0416294 -0.00194252 0)
(-0.0495481 -0.00652012 0)
(1.30072e-07 -7.4054e-14 0)
(2.02858e-07 -1.55012e-14 0)
(2.34017e-07 -4.77679e-14 0)
(-1.1238e-06 -2.25086e-14 0)
(-0.000123387 -4.77384e-14 0)
(-0.00215702 1.63046e-14 0)
(-0.0114017 -6.46189e-15 0)
(-0.0274309 -3.00819e-14 0)
(-0.0423697 -2.8951e-14 0)
(-0.0519086 -2.27596e-14 0)
(1.30235e-07 -2.60495e-11 0)
(2.03268e-07 6.07381e-10 0)
(2.34639e-07 1.28896e-09 0)
(-1.1077e-06 4.65209e-09 0)
(-0.000122216 2.65259e-07 0)
(-0.00214038 6.76971e-06 0)
(-0.0113261 7.94463e-05 0)
(-0.027156 0.000560679 0)
(-0.0416294 0.00194252 0)
(-0.0495481 0.00652012 0)
(1.30453e-07 -4.29175e-11 0)
(2.0389e-07 1.79946e-10 0)
(2.35501e-07 5.91472e-10 0)
(-1.10675e-06 1.49471e-09 0)
(-0.000122782 3.48123e-08 0)
(-0.00215586 1.62692e-06 0)
(-0.0113722 3.82421e-05 0)
(-0.0267567 0.000408851 0)
(-0.0399812 0.00139495 0)
(-0.0412892 0.00748829 0)
(-0.0450865 -0.0207755 0)
(-0.0608324 -0.0286988 0)
(-0.0738777 -0.0417539 0)
(-0.0943952 -0.0536974 0)
(-0.158864 -0.0490653 0)
(-0.0584141 -0.0153438 0)
(-0.071599 -0.0185366 0)
(-0.0893311 -0.0272948 0)
(-0.123559 -0.0367905 0)
(-0.18704 -0.0348608 0)
(-0.0627192 -1.11993e-14 0)
(-0.0751049 -2.03117e-14 0)
(-0.095048 1.77215e-14 0)
(-0.132164 -1.66407e-15 0)
(-0.192972 2.55518e-15 0)
(-0.0584141 0.0153438 0)
(-0.071599 0.0185366 0)
(-0.0893311 0.0272948 0)
(-0.123559 0.0367905 0)
(-0.18704 0.0348608 0)
(-0.0450865 0.0207755 0)
(-0.0608324 0.0286988 0)
(-0.0738777 0.0417539 0)
(-0.0943952 0.0536974 0)
(-0.158864 0.0490653 0)
(-0.188096 0.00694214 0)
(-0.151814 0.0117868 0)
(-0.133627 0.0138701 0)
(-0.12937 0.0302241 0)
(-0.19565 0.0726873 0)
(-0.193417 0.00706376 0)
(-0.159301 0.00803215 0)
(-0.132294 0.00894674 0)
(-0.10019 0.0259393 0)
(-0.0612399 0.0866386 0)
(-0.197257 5.94097e-15 0)
(-0.162385 8.61108e-15 0)
(-0.13016 8.02074e-15 0)
(-0.0821134 4.53969e-14 0)
(0.0130873 6.08698e-14 0)
(-0.193417 -0.00706376 0)
(-0.159301 -0.00803215 0)
(-0.132294 -0.00894674 0)
(-0.10019 -0.0259393 0)
(-0.0612399 -0.0866386 0)
(-0.188096 -0.00694214 0)
(-0.151814 -0.0117868 0)
(-0.133627 -0.0138701 0)
(-0.12937 -0.0302241 0)
(-0.19565 -0.0726873 0)
(-0.38032 0.055302 0)
(-0.110741 -0.138644 0)
(-0.185064 -0.136473 0)
(-0.250667 -0.0555206 0)
(-0.257395 -0.0181561 0)
(-0.220058 -0.0053062 0)
(-0.1692 -0.00224274 0)
(-0.113055 -0.00126802 0)
(-0.0610233 -0.000647352 0)
(-0.0225636 -0.000236483 0)
(-0.00428149 -4.38762e-05 0)
(-0.00027922 -2.71826e-06 0)
(-4.0667e-06 -3.60708e-08 0)
(-8.97761e-09 -6.89336e-11 0)
(-2.15933e-12 -4.60305e-15 0)
(1.85502e-17 -1.77404e-16 0)
(4.66121e-17 -9.75839e-17 0)
(-6.448e-17 -1.16732e-16 0)
(-1.24767e-16 1.85709e-16 0)
(3.37837e-17 -5.49054e-17 0)
(4.46282e-17 6.22876e-17 0)
(7.06515e-17 -1.38186e-16 0)
(-4.16339e-17 1.59179e-16 0)
(-2.03431e-16 6.29336e-16 0)
(5.05997e-17 -8.25888e-17 0)
(2.83154e-12 -1.69099e-16 0)
(1.14306e-08 -6.05985e-14 0)
(5.02009e-06 3.44198e-14 0)
(0.000334706 1.1483e-13 0)
(0.00500629 -1.40103e-13 0)
(0.0259446 8.3331e-14 0)
(0.0697412 -8.28296e-14 0)
(0.130089 1.45626e-13 0)
(0.199044 -1.15382e-13 0)
(0.271824 5.07917e-14 0)
(0.345154 -1.13381e-14 0)
(0.413977 3.28551e-14 0)
(0.473011 1.89494e-14 0)
(0.55284 3.35776e-14 0)
(1.19224 -4.45837e-16 0)
(0.0766734 0.0798576 0)
(0.122051 -0.0978493 0)
(-0.0859027 -0.0892279 0)
(-0.227631 -0.0313603 0)
(-0.25503 -0.00932104 0)
(-0.221132 -0.00275281 0)
(-0.169658 -0.00103833 0)
(-0.112947 -0.000584507 0)
(-0.0608624 -0.000318013 0)
(-0.0224869 -0.000117552 0)
(-0.00426211 -2.1783e-05 0)
(-0.000277519 -1.3635e-06 0)
(-4.03567e-06 -1.82785e-08 0)
(-8.90004e-09 -3.47278e-11 0)
(-2.14514e-12 -6.96422e-15 0)
(9.10423e-17 -3.04517e-17 0)
(5.8051e-17 0 0)
(-6.38985e-17 2.79141e-17 0)
(-1.73304e-16 3.95642e-16 0)
(2.91275e-17 1.87094e-16 0)
(6.40947e-17 1.09349e-16 0)
(1.43041e-16 2.98058e-16 0)
(-1.23416e-17 4.17558e-16 0)
(-3.34155e-16 8.46189e-16 0)
(-1.28795e-16 3.9495e-16 0)
(2.83188e-12 2.00958e-15 0)
(1.14306e-08 -7.28015e-14 0)
(5.02009e-06 3.66241e-14 0)
(0.000334706 1.13694e-13 0)
(0.00500629 -1.23887e-13 0)
(0.0259446 5.92492e-14 0)
(0.0697412 -7.1229e-14 0)
(0.130089 1.26127e-13 0)
(0.199044 -9.74452e-14 0)
(0.271824 4.7621e-14 0)
(0.345154 -1.23458e-14 0)
(0.413977 2.56211e-14 0)
(0.473011 8.24948e-15 0)
(0.55284 -1.44112e-14 0)
(1.19224 -2.07132e-14 0)
(0.210512 8.78382e-14 0)
(0.205494 2.99026e-14 0)
(-0.0466934 2.74314e-15 0)
(-0.2202 6.44597e-15 0)
(-0.254939 1.06907e-14 0)
(-0.221605 -2.4961e-15 0)
(-0.169895 2.00724e-14 0)
(-0.112922 -2.07507e-15 0)
(-0.0608074 -1.70057e-14 0)
(-0.0224574 6.21398e-14 0)
(-0.00425434 -2.7485e-14 0)
(-0.000276845 4.36711e-14 0)
(-4.02364e-06 -2.19477e-14 0)
(-8.87078e-09 2.82283e-14 0)
(-2.13334e-12 -4.11029e-15 0)
(9.12702e-17 0 0)
(4.58448e-17 0 0)
(7.98716e-19 4.0833e-17 0)
(-8.94772e-17 3.92643e-16 0)
(-5.77662e-17 2.90214e-16 0)
(6.39583e-17 2.33694e-16 0)
(1.48836e-16 5.5113e-16 0)
(-3.18286e-17 6.23338e-16 0)
(-2.82448e-16 6.06727e-16 0)
(-1.71665e-16 6.59557e-16 0)
(2.83269e-12 3.09177e-15 0)
(1.14306e-08 -5.48163e-14 0)
(5.02009e-06 6.35941e-14 0)
(0.000334706 9.0753e-14 0)
(0.00500629 -9.7725e-14 0)
(0.0259446 2.37939e-14 0)
(0.0697412 -5.21215e-14 0)
(0.130089 1.14307e-13 0)
(0.199044 -8.17541e-14 0)
(0.271824 2.20223e-14 0)
(0.345154 3.17813e-15 0)
(0.413977 1.95441e-14 0)
(0.473011 -3.10635e-15 0)
(0.55284 -1.67892e-14 0)
(1.19224 -4.15171e-14 0)
(0.0766734 -0.0798576 0)
(0.122051 0.0978493 0)
(-0.0859027 0.0892279 0)
(-0.227631 0.0313603 0)
(-0.25503 0.00932104 0)
(-0.221132 0.00275281 0)
(-0.169658 0.00103833 0)
(-0.112947 0.000584507 0)
(-0.0608624 0.000318013 0)
(-0.0224869 0.000117552 0)
(-0.00426211 2.1783e-05 0)
(-0.000277519 1.3635e-06 0)
(-4.03567e-06 1.82785e-08 0)
(-8.90005e-09 3.47751e-11 0)
(-2.14129e-12 2.15492e-14 0)
(3.12178e-17 0 0)
(-5.56988e-18 0 0)
(-2.21696e-17 0 0)
(4.41467e-18 1.34264e-16 0)
(-4.59872e-17 1.04505e-16 0)
(5.85505e-17 8.65106e-17 0)
(1.85099e-16 1.48106e-16 0)
(4.3891e-19 7.15154e-17 0)
(-3.2465e-16 2.00935e-16 0)
(-1.18571e-16 4.44549e-16 0)
(2.83419e-12 9.2098e-15 0)
(1.14306e-08 -4.41591e-14 0)
(5.02009e-06 4.80122e-14 0)
(0.000334706 6.19201e-14 0)
(0.00500629 -5.35303e-14 0)
(0.0259446 -1.98272e-14 0)
(0.0697412 -4.27863e-14 0)
(0.130089 1.01451e-13 0)
(0.199044 -7.36496e-14 0)
(0.271824 9.4232e-15 0)
(0.345154 1.48624e-14 0)
(0.413977 1.73034e-14 0)
(0.473011 -1.49222e-14 0)
(0.55284 -1.60263e-14 0)
(1.19224 -1.5831e-14 0)
(-0.38032 -0.055302 0)
(-0.110741 0.138644 0)
(-0.185064 0.136473 0)
(-0.250667 0.0555206 0)
(-0.257395 0.0181561 0)
(-0.220058 0.0053062 0)
(-0.1692 0.00224274 0)
(-0.113055 0.00126802 0)
(-0.0610233 0.000647352 0)
(-0.0225636 0.000236483 0)
(-0.00428149 4.38762e-05 0)
(-0.00027922 2.71826e-06 0)
(-4.0667e-06 3.60709e-08 0)
(-8.97762e-09 6.89286e-11 0)
(-2.16939e-12 2.44207e-14 0)
(-6.55574e-17 0 0)
(-7.73656e-17 0 0)
(-1.02188e-17 0 0)
(2.36516e-18 -7.61293e-17 0)
(-8.21997e-19 -7.82056e-17 0)
(8.45184e-18 0 0)
(6.35068e-17 -9.43542e-17 0)
(-6.20524e-19 -4.79615e-16 0)
(-1.65029e-16 -9.96602e-17 0)
(1.2053e-17 1.7279e-16 0)
(2.83816e-12 3.42282e-15 0)
(1.14305e-08 -2.22521e-14 0)
(5.02009e-06 1.18096e-14 0)
(0.000334706 4.64653e-14 0)
(0.00500629 -7.99766e-15 0)
(0.0259446 -6.97174e-14 0)
(0.0697412 -2.88556e-14 0)
(0.130089 7.47946e-14 0)
(0.199044 -4.35742e-14 0)
(0.271824 9.01659e-15 0)
(0.345154 2.0097e-14 0)
(0.413977 -9.9126e-15 0)
(0.473011 -1.76819e-14 0)
(0.55284 -3.68168e-14 0)
(1.19224 -1.85565e-14 0)
(-1.02686 -0.0958995 0)
(-0.385833 0.15989 0)
(-0.304397 0.15858 0)
(-0.288748 0.0786446 0)
(-0.265753 0.0302078 0)
(-0.221242 0.01166 0)
(-0.169808 0.00589953 0)
(-0.11378 0.00302458 0)
(-0.0616346 0.00136273 0)
(-0.0228934 0.000436283 0)
(-0.00436656 7.38675e-05 0)
(-0.000286353 4.37401e-06 0)
(-4.19251e-06 5.77465e-08 0)
(-9.29407e-09 1.14e-10 0)
(-2.24563e-12 1.57298e-14 0)
(-7.95599e-17 1.34621e-16 0)
(-2.84414e-17 1.9361e-17 0)
(-4.82501e-17 -5.5715e-19 0)
(-3.75544e-17 -4.05327e-17 0)
(-1.22932e-18 5.42525e-17 0)
(1.80486e-17 2.08931e-19 0)
(2.12305e-19 -1.05301e-16 0)
(-9.28763e-19 -2.64507e-16 0)
(-6.67403e-17 -2.46957e-16 0)
(1.26359e-16 -3.41254e-18 0)
(2.83669e-12 -1.37324e-15 0)
(1.14305e-08 1.44023e-15 0)
(5.02009e-06 -6.4879e-15 0)
(0.000334706 -1.84441e-14 0)
(0.00500629 9.27049e-14 0)
(0.0259446 -1.23906e-13 0)
(0.0697412 5.80177e-15 0)
(0.130089 4.03952e-14 0)
(0.199044 1.69918e-14 0)
(0.271824 1.96855e-14 0)
(0.345154 3.00249e-14 0)
(0.413977 -4.92501e-15 0)
(0.473011 -2.77619e-14 0)
(0.55284 1.76865e-15 0)
(1.19224 3.67414e-15 0)
(-1.19254 -0.0465381 0)
(-0.524109 0.11864 0)
(-0.397856 0.138036 0)
(-0.333579 0.0754094 0)
(-0.285505 0.0374924 0)
(-0.231725 0.0197119 0)
(-0.17501 0.0103403 0)
(-0.116632 0.00490587 0)
(-0.0631857 0.00196522 0)
(-0.0235601 0.000571429 0)
(-0.00452378 9.13379e-05 0)
(-0.000299192 5.29854e-06 0)
(-4.42021e-06 7.0511e-08 0)
(-9.88232e-09 1.43519e-10 0)
(-2.40024e-12 3.83135e-14 0)
(-2.62569e-16 2.84355e-16 0)
(-9.912e-18 1.0551e-16 0)
(-1.04698e-16 9.75012e-18 0)
(-7.44235e-17 9.63173e-17 0)
(-1.33277e-18 2.44798e-16 0)
(3.00489e-17 9.45762e-17 0)
(4.64758e-19 -9.05369e-19 0)
(3.57749e-18 -6.90169e-17 0)
(-8.18877e-17 -8.99101e-17 0)
(1.13866e-16 -4.61738e-17 0)
(2.83542e-12 -1.47011e-15 0)
(1.14306e-08 2.20126e-14 0)
(5.02009e-06 -2.99201e-14 0)
(0.000334706 -1.13364e-13 0)
(0.00500629 1.87594e-13 0)
(0.0259446 -1.42872e-13 0)
(0.0697412 -9.72407e-15 0)
(0.130089 -1.68115e-14 0)
(0.199044 6.37404e-14 0)
(0.271824 -3.14447e-14 0)
(0.345154 2.97013e-14 0)
(0.413977 4.02637e-14 0)
(0.473011 -1.96961e-14 0)
(0.55284 8.95605e-15 0)
(1.19224 3.77331e-14 0)
(-1.20289 0.0125817 0)
(-0.54787 0.0735271 0)
(-0.434377 0.0987159 0)
(-0.363824 0.0595326 0)
(-0.305734 0.0348398 0)
(-0.244674 0.0205993 0)
(-0.182181 0.011124 0)
(-0.12056 0.00532936 0)
(-0.0651721 0.0021081 0)
(-0.0243438 0.000598288 0)
(-0.00469776 9.36142e-05 0)
(-0.000313078 5.38605e-06 0)
(-4.66909e-06 7.22246e-08 0)
(-1.05489e-08 1.50123e-10 0)
(-2.60538e-12 3.44575e-14 0)
(-2.75026e-16 1.00217e-16 0)
(1.2869e-17 1.27169e-16 0)
(-9.95781e-17 4.61042e-17 0)
(-9.90522e-17 4.10898e-18 0)
(-3.33883e-18 8.27368e-17 0)
(4.26722e-17 0 0)
(4.51799e-18 1.28841e-17 0)
(7.32889e-18 1.19091e-16 0)
(-6.36566e-17 2.34699e-17 0)
(1.0899e-16 4.61738e-17 0)
(2.833e-12 1.67939e-15 0)
(1.14306e-08 3.73454e-14 0)
(5.02009e-06 -1.10272e-14 0)
(0.000334706 -1.73784e-13 0)
(0.00500629 1.98173e-13 0)
(0.0259446 -2.41983e-13 0)
(0.0697412 5.3255e-15 0)
(0.130089 -3.90949e-14 0)
(0.199044 9.60093e-14 0)
(0.271824 -6.00564e-14 0)
(0.345154 2.65988e-14 0)
(0.413977 7.95205e-14 0)
(0.473011 -7.6041e-15 0)
(0.55284 7.66574e-15 0)
(1.19224 7.47033e-14 0)
(-1.20064 0.0276999 0)
(-0.551473 0.0492365 0)
(-0.450888 0.067744 0)
(-0.385693 0.0435256 0)
(-0.322479 0.0279501 0)
(-0.255847 0.0169855 0)
(-0.188918 0.00917053 0)
(-0.124401 0.00435558 0)
(-0.0670972 0.00168618 0)
(-0.0250711 0.000463511 0)
(-0.00485193 6.98111e-05 0)
(-0.000324999 3.8667e-06 0)
(-4.87995e-06 4.99283e-08 0)
(-1.11143e-08 9.94819e-11 0)
(-2.75482e-12 1.22504e-14 0)
(-2.77316e-16 -8.41993e-17 0)
(1.35577e-17 -1.49734e-16 0)
(-2.60062e-17 -4.61042e-17 0)
(-3.08639e-17 0 0)
(2.67238e-17 -7.14545e-17 0)
(8.6634e-17 0 0)
(8.52285e-18 0 0)
(1.17931e-17 5.46703e-17 0)
(-7.32977e-17 0 0)
(1.08192e-16 1.1143e-17 0)
(2.84317e-12 8.02386e-15 0)
(1.14306e-08 -2.86403e-15 0)
(5.02009e-06 4.32329e-14 0)
(0.000334706 -1.78171e-13 0)
(0.00500629 2.34593e-13 0)
(0.0259446 -2.32024e-13 0)
(0.0697412 6.37516e-14 0)
(0.130089 -6.55419e-14 0)
(0.199044 9.4311e-14 0)
(0.271824 -7.78387e-14 0)
(0.345154 1.18748e-14 0)
(0.413977 7.96538e-14 0)
(0.473011 -3.43886e-14 0)
(0.55284 1.23195e-14 0)
(1.19224 3.8088e-14 0)
(-1.19813 0.0279804 0)
(-0.55135 0.0332933 0)
(-0.461359 0.0431483 0)
(-0.39947 0.0281633 0)
(-0.333639 0.0186176 0)
(-0.263739 0.0112755 0)
(-0.193986 0.00599021 0)
(-0.127337 0.00275536 0)
(-0.0685338 0.00101157 0)
(-0.0255837 0.00025736 0)
(-0.00495232 3.48979e-05 0)
(-0.000332115 1.70196e-06 0)
(-4.99564e-06 1.74363e-08 0)
(-1.13994e-08 3.0531e-11 0)
(-2.83636e-12 1.31368e-14 0)
(-1.59034e-16 2.48336e-15 0)
(4.91978e-17 2.79849e-15 0)
(3.79566e-17 2.76799e-15 0)
(-2.98806e-17 2.79376e-15 0)
(6.71984e-17 2.8907e-15 0)
(1.66465e-16 2.79376e-15 0)
(6.13717e-17 2.83979e-15 0)
(1.38486e-17 2.76089e-15 0)
(-8.18825e-17 2.85672e-15 0)
(7.32342e-17 2.82398e-15 0)
(2.85884e-12 1.65336e-14 0)
(1.14306e-08 -1.52203e-14 0)
(5.02009e-06 5.34327e-14 0)
(0.000334706 -3.3254e-14 0)
(0.00500629 2.36355e-13 0)
(0.0259446 -1.0995e-13 0)
(0.0697412 9.55129e-14 0)
(0.130089 -9.18867e-14 0)
(0.199044 7.37877e-14 0)
(0.271824 -8.52771e-14 0)
(0.345154 1.01274e-15 0)
(0.413977 7.68251e-14 0)
(0.473011 -6.59641e-14 0)
(0.55284 -1.21412e-15 0)
(1.19224 1.71341e-14 0)
(-1.19557 0.021124 0)
(-0.550796 0.0205262 0)
(-0.468259 0.02298 0)
(-0.407685 0.0152855 0)
(-0.34035 0.00989798 0)
(-0.26856 0.00577756 0)
(-0.197086 0.00292313 0)
(-0.129087 0.00125374 0)
(-0.0693421 0.000416097 0)
(-0.025844 9.07594e-05 0)
(-0.00499564 9.22787e-06 0)
(-0.000334565 3.08893e-07 0)
(-5.02656e-06 6.22312e-09 0)
(-1.14673e-08 6.88083e-11 0)
(-2.85977e-12 5.4939e-11 0)
(-2.67972e-16 5.49256e-11 0)
(2.85619e-15 5.49269e-11 0)
(6.56215e-15 5.49334e-11 0)
(-4.00886e-15 5.49392e-11 0)
(-1.21019e-15 5.49241e-11 0)
(-1.30282e-15 5.49357e-11 0)
(-1.41438e-14 5.49162e-11 0)
(8.06702e-15 5.49089e-11 0)
(2.46887e-15 5.49315e-11 0)
(-7.40819e-15 5.49165e-11 0)
(2.88927e-12 5.49442e-11 0)
(1.14306e-08 5.50082e-11 0)
(5.02009e-06 5.48842e-11 0)
(0.000334706 5.50592e-11 0)
(0.00500629 5.47264e-11 0)
(0.0259446 5.2932e-11 0)
(0.0697412 4.80787e-11 0)
(0.130089 3.94198e-11 0)
(0.199044 2.92872e-11 0)
(0.271824 1.94004e-11 0)
(0.345154 1.1965e-11 0)
(0.413977 6.62671e-12 0)
(0.473011 2.81163e-12 0)
(0.55284 5.35535e-13 0)
(1.19224 1.32413e-13 0)
(-1.19335 0.0121568 0)
(-0.551411 0.0095653 0)
(-0.471656 0.00873592 0)
(-0.412004 0.00595459 0)
(-0.343707 0.00362871 0)
(-0.270899 0.00198824 0)
(-0.198519 0.000915007 0)
(-0.12984 0.000340917 0)
(-0.0696539 9.35242e-05 0)
(-0.025927 1.74397e-05 0)
(-0.00500598 2.88437e-06 0)
(-0.000334848 1.9354e-07 0)
(-5.024e-06 1.00471e-07 0)
(-1.1443e-08 1.02364e-07 0)
(-2.88441e-12 1.02373e-07 0)
(-6.97955e-14 1.02373e-07 0)
(-2.14573e-14 1.02373e-07 0)
(-9.80802e-15 1.02373e-07 0)
(-7.98776e-15 1.02373e-07 0)
(-1.63898e-15 1.02373e-07 0)
(2.01006e-15 1.02373e-07 0)
(1.31612e-14 1.02373e-07 0)
(-8.57618e-15 1.02373e-07 0)
(-1.19868e-14 1.02373e-07 0)
(3.8862e-15 1.02373e-07 0)
(2.83349e-12 1.02373e-07 0)
(1.14308e-08 1.02373e-07 0)
(5.02009e-06 1.02373e-07 0)
(0.000334706 1.02348e-07 0)
(0.00500629 1.01919e-07 0)
(0.0259446 9.9412e-08 0)
(0.0697412 9.23595e-08 0)
(0.130089 7.98555e-08 0)
(0.199044 6.36094e-08 0)
(0.271824 4.68281e-08 0)
(0.345154 3.24853e-08 0)
(0.413977 2.0784e-08 0)
(0.473011 1.12533e-08 0)
(0.55284 2.76596e-09 0)
(1.19224 3.99239e-10 0)
(-1.19244 0.00375669 0)
(-0.552295 0.00245229 0)
(-0.472712 0.00182986 0)
(-0.413552 0.00131594 0)
(-0.344861 0.00078658 0)
(-0.271664 0.000457892 0)
(-0.198971 0.000258778 0)
(-0.130061 0.000142073 0)
(-0.0697339 6.46424e-05 0)
(-0.0259444 2.89596e-05 0)
(-0.00500623 2.26055e-05 0)
(-0.000334718 2.31127e-05 0)
(-5.02063e-06 2.31836e-05 0)
(-1.14339e-08 2.31851e-05 0)
(-2.80241e-12 2.31851e-05 0)
(-2.17895e-14 2.31851e-05 0)
(-7.64524e-16 2.31851e-05 0)
(9.26997e-14 2.31851e-05 0)
(1.2099e-13 2.31851e-05 0)
(4.67745e-14 2.31851e-05 0)
(-2.35599e-14 2.31851e-05 0)
(-1.24987e-13 2.31851e-05 0)
(-1.29318e-13 2.31851e-05 0)
(-1.55725e-14 2.31851e-05 0)
(1.13624e-13 2.31851e-05 0)
(3.04309e-12 2.31851e-05 0)
(1.14304e-08 2.31851e-05 0)
(5.02002e-06 2.3185e-05 0)
(0.000334702 2.31806e-05 0)
(0.00500625 2.31056e-05 0)
(0.0259444 2.26805e-05 0)
(0.0697407 2.14969e-05 0)
(0.130088 1.9366e-05 0)
(0.199043 1.6475e-05 0)
(0.271823 1.32644e-05 0)
(0.345153 1.02484e-05 0)
(0.413976 7.45481e-06 0)
(0.473011 4.82238e-06 0)
(0.552839 1.57841e-06 0)
(1.19224 4.2848e-07 0)
(-1.19233 0.000621578 0)
(-0.552757 0.000749851 0)
(-0.472972 0.00088049 0)
(-0.413917 0.00084841 0)
(-0.345097 0.000747363 0)
(-0.271768 0.00070154 0)
(-0.198997 0.000725061 0)
(-0.130056 0.00078584 0)
(-0.0697223 0.000847931 0)
(-0.0259369 0.000886618 0)
(-0.00500466 0.00089995 0)
(-0.000334578 0.000902459 0)
(-5.01756e-06 0.000902606 0)
(-1.14225e-08 0.000902608 0)
(-2.89315e-12 0.000902608 0)
(-7.39263e-14 0.000902608 0)
(-8.85424e-14 0.000902608 0)
(-7.45062e-14 0.000902608 0)
(-8.4486e-14 0.000902608 0)
(-5.85264e-14 0.000902608 0)
(1.57365e-14 0.000902608 0)
(1.11833e-13 0.000902608 0)
(1.02136e-13 0.000902608 0)
(-2.28921e-14 0.000902608 0)
(-1.25958e-13 0.000902608 0)
(2.68913e-12 0.000902608 0)
(1.14225e-08 0.000902608 0)
(5.01723e-06 0.000902606 0)
(0.000334555 0.000902468 0)
(0.00500448 0.000900248 0)
(0.0259368 0.000888213 0)
(0.0697235 0.000855607 0)
(0.130061 0.000796918 0)
(0.199009 0.000715114 0)
(0.271786 0.000619104 0)
(0.345115 0.000522203 0)
(0.413935 0.000422221 0)
(0.472981 0.000316963 0)
(0.552796 0.000137754 0)
(1.19224 6.25244e-05 0)
(-1.19211 0.00175995 0)
(-0.552244 0.0025609 0)
(-0.472677 0.0046059 0)
(-0.413517 0.00552948 0)
(-0.344738 0.00636309 0)
(-0.271428 0.00710246 0)
(-0.19869 0.00778536 0)
(-0.129814 0.00834792 0)
(-0.0695668 0.00875362 0)
(-0.025865 0.00898431 0)
(-0.0049865 0.00907311 0)
(-0.000332952 0.00909044 0)
(-4.98531e-06 0.00909158 0)
(-1.13281e-08 0.0090916 0)
(-2.8835e-12 0.0090916 0)
(6.3094e-14 0.0090916 0)
(1.77033e-13 0.0090916 0)
(1.68704e-13 0.0090916 0)
(1.08547e-13 0.0090916 0)
(5.84193e-14 0.0090916 0)
(1.75191e-14 0.0090916 0)
(-5.79605e-14 0.0090916 0)
(-1.62489e-13 0.0090916 0)
(-1.38334e-13 0.0090916 0)
(-9.2625e-14 0.0090916 0)
(2.80447e-12 0.0090916 0)
(1.13289e-08 0.0090916 0)
(4.98549e-06 0.00909158 0)
(0.000332953 0.00909045 0)
(0.00498638 0.00907324 0)
(0.0258639 0.00898555 0)
(0.0695636 0.0087591 0)
(0.129809 0.00836014 0)
(0.198682 0.00780112 0)
(0.271412 0.0071232 0)
(0.344705 0.00641141 0)
(0.413464 0.00561104 0)
(0.472601 0.00471174 0)
(0.552165 0.00264741 0)
(1.19212 0.0017509 0)
(-1.19109 0.0141065 0)
(-0.549669 0.0167249 0)
(-0.471119 0.0243291 0)
(-0.411759 0.0269464 0)
(-0.343239 0.0292499 0)
(-0.270127 0.0311722 0)
(-0.197584 0.0330044 0)
(-0.128958 0.0345011 0)
(-0.0690037 0.0355881 0)
(-0.0255931 0.0362316 0)
(-0.00491454 0.0364965 0)
(-0.000326229 0.0365518 0)
(-4.84715e-06 0.0365556 0)
(-1.09125e-08 0.0365557 0)
(-2.68776e-12 0.0365557 0)
(-6.63994e-14 0.0365557 0)
(-1.26254e-13 0.0365557 0)
(-1.26505e-13 0.0365557 0)
(-5.49739e-14 0.0365557 0)
(-5.72172e-14 0.0365557 0)
(-1.0505e-13 0.0365557 0)
(-1.35452e-13 0.0365557 0)
(-7.10653e-14 0.0365557 0)
(3.27704e-14 0.0365557 0)
(9.3056e-14 0.0365557 0)
(2.78108e-12 0.0365557 0)
(1.09126e-08 0.0365557 0)
(4.84724e-06 0.0365556 0)
(0.000326232 0.0365518 0)
(0.00491453 0.0364965 0)
(0.0255928 0.0362322 0)
(0.0690026 0.0355913 0)
(0.128955 0.0345091 0)
(0.197578 0.0330193 0)
(0.270113 0.0312001 0)
(0.343212 0.0292948 0)
(0.411718 0.0270087 0)
(0.471071 0.0244002 0)
(0.549625 0.0167783 0)
(1.19107 0.0141115 0)
(-1.18701 0.0494936 0)
(-0.545592 0.0516253 0)
(-0.468021 0.0657139 0)
(-0.408523 0.0697414 0)
(-0.340421 0.0734034 0)
(-0.267693 0.0762958 0)
(-0.195527 0.0791894 0)
(-0.127329 0.0815898 0)
(-0.067881 0.0833877 0)
(-0.0250162 0.0845077 0)
(-0.0047529 0.0849982 0)
(-0.000310559 0.0851056 0)
(-4.51965e-06 0.0851132 0)
(-9.92406e-09 0.0851133 0)
(-2.2647e-12 0.0851133 0)
(1.22042e-13 0.0851133 0)
(1.71286e-13 0.0851133 0)
(1.61351e-13 0.0851133 0)
(9.4245e-14 0.0851133 0)
(6.38143e-14 0.0851133 0)
(6.32608e-14 0.0851133 0)
(7.73448e-14 0.0851133 0)
(1.04713e-14 0.0851133 0)
(-2.56491e-14 0.0851133 0)
(-1.36585e-14 0.0851133 0)
(2.39367e-12 0.0851133 0)
(9.92421e-09 0.0851133 0)
(4.51967e-06 0.0851132 0)
(0.00031056 0.0851056 0)
(0.00475291 0.0849982 0)
(0.0250162 0.0845078 0)
(0.0678809 0.0833881 0)
(0.127329 0.0815912 0)
(0.195525 0.0791939 0)
(0.267689 0.0763068 0)
(0.340415 0.0734221 0)
(0.408515 0.0697699 0)
(0.468013 0.0657468 0)
(0.545588 0.0516486 0)
(1.187 0.0495028 0)
(-1.17821 0.107696 0)
(-0.541957 0.104028 0)
(-0.463675 0.123217 0)
(-0.404393 0.127616 0)
(-0.336616 0.132032 0)
(-0.264335 0.135449 0)
(-0.192637 0.139064 0)
(-0.124973 0.142157 0)
(-0.0661855 0.144547 0)
(-0.0241047 0.146101 0)
(-0.00448947 0.146809 0)
(-0.000284793 0.146967 0)
(-3.98675e-06 0.146979 0)
(-8.35469e-09 0.146979 0)
(-1.97828e-12 0.146979 0)
(-2.72041e-14 0.146979 0)
(-2.00793e-14 0.146979 0)
(-3.49055e-14 0.146979 0)
(-3.68166e-14 0.146979 0)
(-3.00707e-14 0.146979 0)
(-3.00747e-14 0.146979 0)
(-4.55917e-14 0.146979 0)
(-4.71303e-14 0.146979 0)
(-4.87875e-14 0.146979 0)
(-8.15194e-14 0.146979 0)
(1.77676e-12 0.146979 0)
(8.35442e-09 0.146979 0)
(3.98675e-06 0.146979 0)
(0.000284793 0.146967 0)
(0.00448948 0.146809 0)
(0.0241047 0.146101 0)
(0.0661856 0.144547 0)
(0.124973 0.142157 0)
(0.192637 0.139065 0)
(0.264335 0.13545 0)
(0.336616 0.132034 0)
(0.404393 0.127619 0)
(0.463675 0.12322 0)
(0.541959 0.104029 0)
(1.17821 0.107697 0)
(-1.16151 0.173675 0)
(-0.539301 0.164964 0)
(-0.458962 0.190254 0)
(-0.399718 0.19318 0)
(-0.33246 0.19833 0)
(-0.260271 0.201772 0)
(-0.189109 0.20595 0)
(-0.122009 0.209566 0)
(-0.0639924 0.212448 0)
(-0.0228969 0.214371 0)
(-0.00413814 0.215261 0)
(-0.000250992 0.215457 0)
(-3.31249e-06 0.215471 0)
(-6.46666e-09 0.215471 0)
(-1.36846e-12 0.215471 0)
(-8.79197e-15 0.215471 0)
(-1.07599e-14 0.215471 0)
(-4.66466e-14 0.215471 0)
(-3.09295e-14 0.215471 0)
(1.71636e-15 0.215471 0)
(-1.23812e-14 0.215471 0)
(-2.61442e-14 0.215471 0)
(-5.33161e-14 0.215471 0)
(-6.29363e-14 0.215471 0)
(-2.4688e-14 0.215471 0)
(1.36528e-12 0.215471 0)
(6.46664e-09 0.215471 0)
(3.31249e-06 0.215471 0)
(0.000250992 0.215457 0)
(0.00413814 0.215261 0)
(0.0228969 0.214371 0)
(0.0639925 0.212448 0)
(0.122009 0.209566 0)
(0.189109 0.20595 0)
(0.260271 0.201772 0)
(0.332461 0.19833 0)
(0.399719 0.193179 0)
(0.458963 0.190252 0)
(0.539301 0.164963 0)
(1.16151 0.173675 0)
(-1.14276 0.257115 0)
(-0.536999 0.229309 0)
(-0.453543 0.261003 0)
(-0.395176 0.262488 0)
(-0.327554 0.267262 0)
(-0.256036 0.271439 0)
(-0.185057 0.27579 0)
(-0.11857 0.279924 0)
(-0.0613862 0.283243 0)
(-0.0214546 0.285482 0)
(-0.00372623 0.286504 0)
(-0.000213031 0.286722 0)
(-2.60157e-06 0.286736 0)
(-4.62613e-09 0.286736 0)
(-8.61698e-13 0.286736 0)
(4.24019e-14 0.286736 0)
(3.40016e-14 0.286736 0)
(9.84314e-15 0.286736 0)
(1.02666e-14 0.286736 0)
(2.5749e-14 0.286736 0)
(2.8889e-14 0.286736 0)
(3.63312e-14 0.286736 0)
(1.69475e-14 0.286736 0)
(-1.54986e-14 0.286736 0)
(-5.87641e-15 0.286736 0)
(8.59827e-13 0.286736 0)
(4.62597e-09 0.286736 0)
(2.60157e-06 0.286736 0)
(0.000213031 0.286722 0)
(0.00372623 0.286504 0)
(0.0214546 0.285482 0)
(0.0613862 0.283243 0)
(0.11857 0.279924 0)
(0.185057 0.27579 0)
(0.256037 0.271439 0)
(0.327554 0.267262 0)
(0.395177 0.262488 0)
(0.453543 0.261002 0)
(0.536999 0.229308 0)
(1.14276 0.257115 0)
(-1.11226 0.310254 0)
(-0.536017 0.293064 0)
(-0.450598 0.336843 0)
(-0.39034 0.331386 0)
(-0.325369 0.338479 0)
(-0.252131 0.340991 0)
(-0.181812 0.345945 0)
(-0.115389 0.350191 0)
(-0.0588157 0.353913 0)
(-0.0199726 0.356457 0)
(-0.00330611 0.357602 0)
(-0.000176134 0.357834 0)
(-1.96217e-06 0.357847 0)
(-3.12512e-09 0.357847 0)
(-5.00326e-13 0.357847 0)
(6.1716e-14 0.357847 0)
(7.92436e-14 0.357847 0)
(8.59384e-14 0.357847 0)
(6.80587e-14 0.357847 0)
(3.36483e-14 0.357847 0)
(1.10389e-14 0.357847 0)
(-6.54834e-15 0.357847 0)
(-3.91081e-14 0.357847 0)
(-7.46836e-14 0.357847 0)
(-8.38235e-14 0.357847 0)
(4.40398e-13 0.357847 0)
(3.12512e-09 0.357847 0)
(1.96217e-06 0.357847 0)
(0.000176134 0.357834 0)
(0.00330611 0.357602 0)
(0.0199726 0.356457 0)
(0.0588157 0.353913 0)
(0.115389 0.350191 0)
(0.181812 0.345945 0)
(0.252131 0.340991 0)
(0.325369 0.338479 0)
(0.39034 0.331386 0)
(0.450598 0.336843 0)
(0.536017 0.293064 0)
(1.11226 0.310254 0)
(-1.09257 0.403342 0)
(-0.531671 0.352539 0)
(-0.443164 0.400122 0)
(-0.384957 0.395711 0)
(-0.318333 0.40115 0)
(-0.247381 0.406154 0)
(-0.176901 0.410909 0)
(-0.111246 0.415605 0)
(-0.0556078 0.419648 0)
(-0.0182323 0.422524 0)
(-0.0028463 0.423827 0)
(-0.000139249 0.424082 0)
(-1.39013e-06 0.424096 0)
(-1.94432e-09 0.424096 0)
(-3.68363e-13 0.424096 0)
(-3.14748e-14 0.424096 0)
(-2.72264e-14 0.424096 0)
(-4.87231e-14 0.424096 0)
(-5.57021e-14 0.424096 0)
(-3.91614e-14 0.424096 0)
(-6.92877e-15 0.424096 0)
(2.91118e-14 0.424096 0)
(3.52542e-14 0.424096 0)
(4.38192e-14 0.424096 0)
(4.54476e-14 0.424096 0)
(2.88745e-13 0.424096 0)
(1.94431e-09 0.424096 0)
(1.39013e-06 0.424096 0)
(0.000139249 0.424082 0)
(0.0028463 0.423827 0)
(0.0182323 0.422524 0)
(0.0556078 0.419648 0)
(0.111246 0.415605 0)
(0.176901 0.410909 0)
(0.247381 0.406154 0)
(0.318333 0.40115 0)
(0.384957 0.395711 0)
(0.443164 0.400122 0)
(0.53167 0.352539 0)
(1.09257 0.403342 0)
(-1.06296 0.41401 0)
(-0.536213 0.404541 0)
(-0.455419 0.463457 0)
(-0.389057 0.451429 0)
(-0.322692 0.458717 0)
(-0.245213 0.462253 0)
(-0.173549 0.467885 0)
(-0.107108 0.472691 0)
(-0.0522225 0.476781 0)
(-0.0163685 0.479419 0)
(-0.00236611 0.480527 0)
(-0.000103321 0.480727 0)
(-8.90899e-07 0.480737 0)
(-1.04896e-09 0.480737 0)
(-2.51563e-13 0.480737 0)
(4.41002e-15 0.480737 0)
(2.75593e-14 0.480737 0)
(1.76394e-14 0.480737 0)
(2.87408e-14 0.480737 0)
(2.19394e-14 0.480737 0)
(1.29465e-14 0.480737 0)
(4.84057e-15 0.480737 0)
(-2.85025e-14 0.480737 0)
(-3.52436e-14 0.480737 0)
(-5.64301e-14 0.480737 0)
(3.76563e-14 0.480737 0)
(1.04902e-09 0.480737 0)
(8.90899e-07 0.480737 0)
(0.000103321 0.480727 0)
(0.00236611 0.480527 0)
(0.0163685 0.479419 0)
(0.0522225 0.476781 0)
(0.107108 0.472691 0)
(0.173549 0.467885 0)
(0.245213 0.462253 0)
(0.322692 0.458717 0)
(0.389057 0.451429 0)
(0.455419 0.463457 0)
(0.536213 0.404541 0)
(1.06296 0.41401 0)
(-0.981795 0.528694 0)
(-0.488278 0.49471 0)
(-0.397487 0.543917 0)
(-0.343642 0.539728 0)
(-0.282122 0.543719 0)
(-0.216813 0.544752 0)
(-0.151025 0.547069 0)
(-0.0897241 0.549987 0)
(-0.039984 0.553957 0)
(-0.0107434 0.557885 0)
(-0.00124961 0.559829 0)
(-4.21073e-05 0.560166 0)
(-2.76518e-07 0.56018 0)
(-2.4931e-10 0.560181 0)
(-2.71383e-14 0.560181 0)
(-1.62445e-16 0.560181 0)
(-2.09834e-14 0.560181 0)
(-2.21447e-14 0.560181 0)
(-1.53349e-14 0.560181 0)
(-1.39133e-14 0.560181 0)
(9.27453e-16 0.560181 0)
(1.38802e-14 0.560181 0)
(2.5327e-15 0.560181 0)
(-1.60259e-14 0.560181 0)
(-2.66972e-14 0.560181 0)
(-6.19891e-16 0.560181 0)
(2.49312e-10 0.560181 0)
(2.76518e-07 0.56018 0)
(4.21073e-05 0.560166 0)
(0.00124961 0.559829 0)
(0.0107434 0.557885 0)
(0.039984 0.553957 0)
(0.0897241 0.549987 0)
(0.151025 0.547069 0)
(0.216813 0.544752 0)
(0.282122 0.543719 0)
(0.343642 0.539728 0)
(0.397487 0.543917 0)
(0.488278 0.49471 0)
(0.981795 0.528694 0)
(-1.03817 1.0471 0)
(-0.521329 0.987936 0)
(-0.404688 1.06841 0)
(-0.393257 1.10003 0)
(-0.297172 1.12042 0)
(-0.240825 1.15096 0)
(-0.157388 1.16962 0)
(-0.0910352 1.1851 0)
(-0.0371069 1.19286 0)
(-0.00851131 1.19597 0)
(-0.000748751 1.19661 0)
(-1.66032e-05 1.19666 0)
(-6.30843e-08 1.19666 0)
(-2.97598e-11 1.19666 0)
(-2.18548e-14 1.19666 0)
(-7.45412e-14 1.19666 0)
(-6.93808e-14 1.19666 0)
(-6.3209e-14 1.19666 0)
(-6.03556e-14 1.19666 0)
(-2.65507e-14 1.19666 0)
(-2.68106e-15 1.19666 0)
(2.49727e-14 1.19666 0)
(1.74265e-14 1.19666 0)
(2.94252e-15 1.19666 0)
(2.31629e-14 1.19666 0)
(2.52822e-14 1.19666 0)
(2.9725e-11 1.19666 0)
(6.30846e-08 1.19666 0)
(1.66032e-05 1.19666 0)
(0.000748751 1.19661 0)
(0.00851131 1.19597 0)
(0.0371069 1.19286 0)
(0.0910352 1.1851 0)
(0.157388 1.16962 0)
(0.240825 1.15096 0)
(0.297172 1.12042 0)
(0.393257 1.10003 0)
(0.404688 1.06841 0)
(0.521329 0.987936 0)
(1.03817 1.0471 0)
(-1.03817 -1.0471 0)
(-0.521329 -0.987936 0)
(-0.404688 -1.06841 0)
(-0.393257 -1.10003 0)
(-0.297172 -1.12042 0)
(-0.240825 -1.15096 0)
(-0.157388 -1.16962 0)
(-0.0910352 -1.1851 0)
(-0.0371069 -1.19286 0)
(-0.00851131 -1.19597 0)
(-0.000748751 -1.19661 0)
(-1.66032e-05 -1.19666 0)
(-6.30847e-08 -1.19666 0)
(-2.97139e-11 -1.19666 0)
(-2.01773e-14 -1.19666 0)
(2.67538e-14 -1.19666 0)
(7.43466e-14 -1.19666 0)
(6.64472e-14 -1.19666 0)
(8.72438e-14 -1.19666 0)
(4.85649e-14 -1.19666 0)
(3.57552e-14 -1.19666 0)
(2.44935e-14 -1.19666 0)
(-1.62867e-15 -1.19666 0)
(-1.98535e-14 -1.19666 0)
(-3.9611e-14 -1.19666 0)
(-5.18738e-14 -1.19666 0)
(2.97466e-11 -1.19666 0)
(6.30843e-08 -1.19666 0)
(1.66032e-05 -1.19666 0)
(0.000748751 -1.19661 0)
(0.00851131 -1.19597 0)
(0.0371069 -1.19286 0)
(0.0910352 -1.1851 0)
(0.157388 -1.16962 0)
(0.240825 -1.15096 0)
(0.297172 -1.12042 0)
(0.393257 -1.10003 0)
(0.404688 -1.06841 0)
(0.521329 -0.987936 0)
(1.03817 -1.0471 0)
(-0.981795 -0.528694 0)
(-0.488278 -0.49471 0)