/*--------------------------------*- C++ -*----------------------------------*\
| =========                 |                                                 |
| \\      /  F ield         | OpenFOAM: The Open Source CFD Toolbox           |
|  \\    /   O peration     | Version:  v1912                                 |
|   \\  /    A nd           | Website:  www.openfoam.com                      |
|    \\/     M anipulation  |                                                 |
\*---------------------------------------------------------------------------*/
FoamFile
{
    version     2.0;
    format      ascii;
    class       volVectorField;
    location    "1.04";
    object      grad(rho);
}
// * * * * * * * * * * * * * * * * * * * * * * * * * * * * * * * * * * * * * //

dimensions      [1 -4 0 0 0 0 0];


internalField   nonuniform List<vector> 
1900
(
(-0.0104145 -8.25802e-06 0)
(-0.0143045 3.53331e-05 0)
(-0.00964192 0.000105832 0)
(0.19107 9.71811e-05 0)
(13.7528 0.000305119 0)
(200.411 0.0353768 0)
(920.561 1.49972 0)
(1826.39 17.8033 0)
(2067.49 115.769 0)
(927.237 207.575 0)
(-0.0103874 -1.54366e-05 0)
(-0.0141905 6.12987e-05 0)
(-0.00958007 0.000185279 0)
(0.191269 0.000159982 0)
(13.7881 0.00642024 0)
(201.911 0.466948 0)
(938.329 7.43334 0)
(1940.66 40.3736 0)
(2257.26 136.842 0)
(1574.88 169.25 0)
(-0.0103686 5.41789e-09 0)
(-0.0141038 2.96652e-09 0)
(-0.00954323 8.73968e-09 0)
(0.197305 1.59872e-10 0)
(14.2196 -1.09246e-08 0)
(207.838 -1.89893e-08 0)
(960.468 -2.0961e-09 0)
(1955.8 6.8745e-09 0)
(2196.36 1.01252e-08 0)
(1415.25 4.40536e-09 0)
(-0.0103874 1.54494e-05 0)
(-0.0141905 -6.12957e-05 0)
(-0.00958007 -0.000185271 0)
(0.191269 -0.000159983 0)
(13.7881 -0.00642025 0)
(201.911 -0.466948 0)
(938.329 -7.43334 0)
(1940.66 -40.3736 0)
(2257.26 -136.842 0)
(1574.88 -169.25 0)
(-0.0104145 8.26539e-06 0)
(-0.0143046 -3.53329e-05 0)
(-0.00964192 -0.000105832 0)
(0.19107 -9.7183e-05 0)
(13.7528 -0.00030512 0)
(200.411 -0.0353768 0)
(920.561 -1.49972 0)
(1826.39 -17.8033 0)
(2067.49 -115.769 0)
(927.237 -207.575 0)
(180.52 703.705 1.42676e-11)
(546.592 739.616 -1.74926e-11)
(-119.976 655.627 -2.21826e-11)
(-4174.97 945.378 0)
(15.7757 6175.22 -9.15218e-11)
(650.248 575.836 1.43948e-11)
(159.709 538.075 1.74926e-11)
(-363.779 446.977 2.21826e-11)
(-2142.1 509.184 0)
(293.843 5704.5 0)
(787.182 1.28722e-09 0)
(462.473 1.55821e-09 0)
(-124.468 -4.39155e-09 0)
(-1741.79 -2.15316e-09 0)
(3050.55 -4.54663e-09 0)
(650.248 -575.836 1.43948e-11)
(159.709 -538.075 1.74926e-11)
(-363.779 -446.977 2.21826e-11)
(-2142.1 -509.184 0)
(293.843 -5704.5 0)
(180.52 -703.705 -4.30571e-11)
(546.592 -739.616 -1.74926e-11)
(-119.976 -655.627 -2.21826e-11)
(-4174.97 -945.378 -6.02485e-11)
(15.7757 -6175.22 9.15218e-11)
(8056.22 -3074.25 4.2787e-11)
(813.088 -365.988 -3.60797e-11)
(2042.02 -35.0219 0)
(4027.56 270.537 2.8264e-11)
(-2039.8 -6687.17 -1.30793e-11)
(5894.45 -3188.95 -2.13472e-11)
(1527.42 -245.579 1.80343e-11)
(2249.44 -97.8197 0)
(1082.86 -357.115 -1.76674e-11)
(-7004.86 -11562.5 3.13243e-12)
(6289.45 -4.84461e-09 0)
(1555.54 -1.2146e-09 0)
(1971.37 1.57898e-09 0)
(-1049.49 -2.26398e-09 7.06266e-12)
(-9331.31 -3.63582e-09 -6.26486e-12)
(5894.45 3188.95 -2.13472e-11)
(1527.42 245.579 1.80343e-11)
(2249.44 97.8197 0)
(1082.86 357.115 -1.76674e-11)
(-7004.86 11562.5 3.13243e-12)
(8056.22 3074.25 2.13472e-11)
(813.088 365.988 1.10224e-14)
(2042.02 35.0219 0)
(4027.56 -270.537 8.14768e-15)
(-2039.8 6687.17 1.30793e-11)
(-24005.9 -46562.6 0)
(-18849.7 2106.26 0)
(1066.92 2403.9 0)
(1900.39 1154.12 0)
(3541.83 658.895 0)
(4584.81 214.337 0)
(5314.12 82.7051 0)
(5007.79 67.4358 0)
(3709.32 52.0335 0)
(1828.08 20.3855 0)
(483.774 2.79113 0)
(50.0769 0.0873799 0)
(1.34738 0.000413604 0)
(0.00628047 1.98241e-07 0)
(3.57794e-06 -6.45948e-11 0)
(-1.61487e-11 0 0)
(0 0 0)
(0 0 0)
(0 -6.45948e-11 0)
(0 0 0)
(0 -6.45948e-11 0)
(0 0 0)
(0 0 0)
(0 -6.45948e-11 0)
(0 0 0)
(-4.56189e-06 -6.45948e-11 0)
(-0.00782777 8.7203e-09 0)
(-1.63965 3.87569e-10 0)
(-59.5375 -6.00732e-09 0)
(-563.729 4.52164e-09 0)
(-2099.53 -6.45948e-09 0)
(-4232.42 1.48568e-09 0)
(-5782.31 -1.93784e-09 0)
(-6415.89 4.26326e-09 0)
(-6503.11 -3.10055e-09 0)
(-6185.84 3.55271e-10 0)
(-4740.86 -4.13407e-09 0)
(-1421.13 -2.84217e-09 0)
(72086.2 -7.36381e-09 0)
(-121140 -1.9766e-08 0)
(-22318.7 -19012.2 0)
(-15074.9 6456.24 0)
(1005.59 1348.14 0)
(1636.65 606.404 0)
(3437.92 231.721 0)
(4543.11 136.609 0)
(5294.58 32.7428 0)
(5006.43 23.8664 0)
(3706.03 21.0954 0)
(1823.85 9.38307 0)
(481.832 1.384 0)
(49.7945 0.0440574 0)
(1.3385 0.000193881 0)
(0.0062413 7.254e-08 0)
(3.56337e-06 -6.45948e-11 0)
(0 0 0)
(0 0 0)
(0 0 0)
(0 0 0)
(0 0 0)
(0 0 0)
(-1.61487e-11 0 0)
(0 0 0)
(1.61487e-11 0 0)
(0 0 0)
(-4.55981e-06 0 0)
(-0.00782777 9.43084e-09 0)
(-1.63965 5.81353e-10 0)
(-59.5375 -9.883e-09 0)
(-563.729 2.39001e-09 0)
(-2099.53 -4.9092e-09 0)
(-4232.42 3.87569e-10 0)
(-5782.31 3.87569e-10 0)
(-6415.89 4.71542e-09 0)
(-6503.11 -2.00244e-09 0)
(-6185.84 2.4223e-09 0)
(-4740.86 -6.78245e-10 0)
(-1421.13 -1.2273e-09 0)
(72086.2 -5.49056e-10 0)
(-121140 1.93784e-09 0)
(-19439.6 -8.20354e-09 0)
(-12926.7 -3.29433e-09 0)
(-634.846 5.49056e-10 0)
(1575.62 5.23218e-09 0)
(3405.16 2.06703e-09 0)
(4526.92 1.58257e-09 0)
(5281.32 3.94028e-09 0)
(5004.4 -6.45948e-11 0)
(3705.11 -8.39732e-10 0)
(1822.35 -8.7203e-09 0)
(481.057 7.10543e-10 0)
(49.6743 -1.74406e-09 0)
(1.33456 6.84705e-09 0)
(0.00622407 -4.78001e-09 0)
(3.55683e-06 6.45948e-11 0)
(0 0 0)
(0 0 0)
(-1.61487e-11 0 0)
(0 0 0)
(0 0 0)
(0 0 0)
(0 0 0)
(0 0 0)
(0 0 0)
(1.61487e-11 0 0)
(-4.55915e-06 0 0)
(-0.00782777 4.9092e-09 0)
(-1.63965 -7.75138e-09 0)
(-59.5375 -8.84949e-09 0)
(-563.729 6.33029e-09 0)
(-2099.53 -1.55028e-09 0)
(-4232.42 -1.80865e-09 0)
(-5782.31 -1.55028e-09 0)
(-6415.89 8.59111e-09 0)
(-6503.11 4.65083e-09 0)
(-6185.84 2.00244e-09 0)
(-4740.86 -9.68922e-11 0)
(-1421.13 -9.68922e-11 0)
(72086.2 1.42109e-09 0)
(-121140 2.76466e-08 0)
(-22318.7 19012.2 0)
(-15074.9 -6456.24 0)
(1005.59 -1348.14 0)
(1636.65 -606.404 0)
(3437.92 -231.721 0)
(4543.11 -136.609 0)
(5294.58 -32.7428 0)
(5006.43 -23.8664 0)
(3706.03 -21.0954 0)
(1823.85 -9.38307 0)
(481.832 -1.384 0)
(49.7945 -0.0440574 0)
(1.3385 -0.00019388 0)
(0.0062413 -7.72554e-08 0)
(3.56474e-06 -6.45948e-11 0)
(-1.61487e-11 0 0)
(0 0 0)
(0 0 0)
(-1.61487e-11 0 0)
(1.61487e-11 0 0)
(-1.61487e-11 0 0)
(0 0 0)
(0 0 0)
(0 0 0)
(1.61487e-11 0 0)
(-4.55839e-06 0 0)
(-0.00782777 4.13407e-09 0)
(-1.63965 -7.10543e-09 0)
(-59.5375 -2.71298e-09 0)
(-563.729 4.9092e-09 0)
(-2099.53 -3.87569e-10 0)
(-4232.42 2.71298e-09 0)
(-5782.31 -6.45948e-10 0)
(-6415.89 1.27252e-08 0)
(-6503.11 7.52529e-09 0)
(-6185.84 9.68922e-11 0)
(-4740.86 -3.84339e-09 0)
(-1421.13 1.93784e-09 0)
(72086.2 5.42596e-09 0)
(-121140 1.71822e-08 0)
(-24005.9 46562.6 0)
(-18849.7 -2106.26 0)
(1066.92 -2403.9 0)
(1900.39 -1154.12 0)
(3541.83 -658.895 0)
(4584.81 -214.337 0)
(5314.12 -82.7051 0)
(5007.79 -67.4358 0)
(3709.32 -52.0335 0)
(1828.08 -20.3855 0)
(483.774 -2.79113 0)
(50.0769 -0.0873799 0)
(1.34738 -0.00041361 0)
(0.00628047 -1.96433e-07 0)
(3.57931e-06 0 0)
(0 0 0)
(0 0 0)
(0 0 0)
(0 0 0)
(0 0 0)
(0 0 0)
(0 0 0)
(0 0 0)
(0 0 0)
(0 0 0)
(-4.55792e-06 0 0)
(-0.00782777 1.2273e-09 0)
(-1.63965 6.45948e-10 0)
(-59.5375 -1.35649e-09 0)
(-563.729 5.03839e-09 0)
(-2099.53 3.87569e-10 0)
(-4232.42 -1.2919e-09 0)
(-5782.31 2.39001e-09 0)
(-6415.89 6.71786e-09 0)
(-6503.11 2.97136e-09 0)
(-6185.84 -5.49056e-10 0)
(-4740.86 1.93784e-09 0)
(-1421.13 2.87447e-09 0)
(72086.2 8.30043e-09 0)
(-121140 1.00768e-08 0)
(100724 54760.8 0)
(-41425.7 -3357.23 0)
(1531.93 -2897.8 0)
(2426.29 -1710.25 0)
(3907.27 -1112.84 0)
(4856.33 -416.342 0)
(5364.14 -233.52 0)
(5024.1 -152.961 0)
(3731.74 -90.9262 0)
(1849.85 -30.8931 0)
(492.319 -3.97782 0)
(51.2185 -0.124927 0)
(1.38305 -0.000634605 0)
(0.00645545 -3.63271e-07 0)
(3.67109e-06 0 0)
(0 0 0)
(0 0 0)
(0 0 0)
(0 0 0)
(0 0 0)
(0 0 0)
(0 0 0)
(0 0 0)
(0 0 0)
(0 0 0)
(-4.55816e-06 0 0)
(-0.00782777 -7.21512e-10 0)
(-1.63965 8.77514e-10 0)
(-59.5375 1.22852e-09 0)
(-563.729 -5.9086e-09 0)
(-2099.53 2.53504e-09 0)
(-4232.42 -8.83364e-09 0)
(-5782.31 1.67703e-09 0)
(-6415.89 3.45156e-09 0)
(-6503.11 -3.29555e-09 0)
(-6185.84 -1.13102e-09 0)
(-4740.86 1.99878e-09 0)
(-1421.13 5.65509e-10 0)
(72086.2 -9.84766e-10 0)
(-121140 2.80805e-09 0)
(116728 29737.3 0)
(-62305.7 -2178.62 0)
(2404.67 -2533.35 0)
(3338.44 -1826.61 0)
(4592.73 -1169.94 0)
(5286.55 -625.225 0)
(5541.1 -399.18 0)
(5136.45 -242.294 0)
(3814.93 -121.619 0)
(1900.2 -37.1132 0)
(508.841 -4.60503 0)
(53.2973 -0.147512 0)
(1.44864 -0.000799752 0)
(0.00679817 -5.16992e-07 0)
(3.88015e-06 0 0)
(0 0 0)
(0 0 0)
(0 0 0)
(0 0 0)
(0 0 0)
(0 0 0)
(0 0 0)
(0 0 0)
(0 0 0)
(0 0 0)
(-4.55849e-06 0 0)
(-0.00782777 -2.28154e-09 0)
(-1.63965 3.29555e-09 0)
(-59.5375 8.17063e-09 0)
(-563.729 -1.16612e-08 0)
(-2099.53 1.07642e-08 0)
(-4232.42 -6.1231e-09 0)
(-5782.31 4.05607e-09 0)
(-6415.89 2.84705e-09 0)
(-6503.11 -6.0451e-10 0)
(-6185.84 -1.48202e-09 0)
(-4740.86 -1.98903e-09 0)
(-1421.13 -6.92261e-10 0)
(72086.2 -6.82511e-10 0)
(-121140 -6.78611e-09 0)
(125868 10693.3 0)
(-72522.8 -606.139 0)
(1871.13 -1748.93 0)
(3740.12 -1562.59 0)
(5064.98 -1076.65 0)
(5599.06 -689.623 0)
(5733.15 -461.432 0)
(5291.57 -275.71 0)
(3929.46 -130.254 0)
(1962.61 -37.7873 0)
(527.941 -4.59373 0)
(55.6553 -0.148738 0)
(1.5252 -0.000835171 0)
(0.00722612 -5.65451e-07 0)
(4.16928e-06 0 0)
(0 0 0)
(0 0 0)
(0 0 0)
(0 0 0)
(0 0 0)
(0 0 0)
(0 0 0)
(0 0 0)
(0 0 0)
(0 0 0)
(-4.56034e-06 0 0)
(-0.00782777 -4.01706e-09 0)
(-1.63965 2.92505e-10 0)
(-59.5375 1.19147e-08 0)
(-563.729 -1.30847e-08 0)
(-2099.53 1.70628e-08 0)
(-4232.42 -1.89153e-09 0)
(-5782.31 2.37904e-09 0)
(-6415.89 -1.95003e-11 0)
(-6503.11 -1.75503e-10 0)
(-6185.84 -8.09263e-10 0)
(-4740.86 -3.0713e-09 0)
(-1421.13 -2.57404e-09 0)
(72086.2 -2.24254e-10 0)
(-121140 -1.46642e-08 0)
(126637 415.114 0)
(-74295.5 -704.419 0)
(1483 -1496.16 0)
(3986.27 -1338.61 0)
(5433.95 -973.458 0)
(5879.4 -664.846 0)
(5939.96 -433.404 0)
(5455.59 -247.329 0)
(4044.2 -109.875 0)
(2021.29 -30.0025 0)
(545.111 -3.46487 0)
(57.7232 -0.108089 0)
(1.59197 -0.000592354 0)
(0.00760297 -3.96324e-07 0)
(4.42505e-06 0 0)
(0 0 0)
(0 1.95003e-11 0)
(0 0 0)
(0 0 0)
(0 1.95003e-11 0)
(0 0 0)
(0 0 0)
(0 0 0)
(0 0 0)
(0 0 0)
(-4.56237e-06 0 0)
(-0.00782777 5.85009e-10 0)
(-1.63965 -5.9281e-09 0)
(-59.5375 1.11932e-08 0)
(-563.729 -1.70433e-08 0)
(-2099.53 1.41377e-08 0)
(-4232.42 -4.36807e-09 0)
(-5782.31 -1.32602e-09 0)
(-6415.89 -8.97015e-10 0)
(-6503.11 1.75503e-09 0)
(-6185.84 5.9476e-10 0)
(-4740.86 -1.32602e-09 0)
(-1421.13 -3.31505e-10 0)
(72086.2 -1.24802e-09 0)
(-121140 -1.48202e-09 0)
(125665 -1840.61 0)
(-74364.6 -811.562 0)
(1260 -1308.59 0)
(4243.81 -1078.63 0)
(5714.24 -795.383 0)
(6119.47 -544.505 0)
(6135.48 -337.297 0)
(5603.33 -178.961 0)
(4138.88 -72.4843 0)
(2065.15 -17.7387 0)
(556.748 -1.81089 0)
(58.9936 -0.0498651 0)
(1.62935 -0.000244637 0)
(0.00779693 -1.61385e-07 0)
(4.5512e-06 -5.79159e-09 0)
(0 -5.55759e-09 0)
(0 -5.55759e-09 0)
(0 -5.73309e-09 0)
(0 -5.86959e-09 0)
(0 -5.26509e-09 0)
(-1.95003e-11 -5.86959e-09 0)
(0 -5.20658e-09 0)
(0 -4.36807e-09 0)
(0 -5.83059e-09 0)
(0 -5.20658e-09 0)
(-4.5598e-06 -6.2401e-09 0)
(-0.00782777 -7.17612e-09 0)
(-1.63965 -7.85863e-09 0)
(-59.5375 -7.80013e-09 0)
(-563.729 -2.04753e-08 0)
(-2099.53 -2.98355e-09 0)
(-4232.42 -1.03547e-08 0)
(-5782.31 -3.10055e-09 0)
(-6415.89 -9.94516e-10 0)
(-6503.11 -4.48507e-10 0)
(-6185.84 -1.48202e-09 0)
(-4740.86 -6.82511e-11 0)
(-1421.13 2.48629e-09 0)
(72086.2 -3.70506e-10 0)
(-121140 3.35405e-09 0)
(124066 -2539.37 0)
(-73782.8 -826.558 0)
(1225.64 -969.177 0)
(4480.82 -762.962 0)
(5948.65 -544.399 0)
(6320.83 -353.504 0)
(6292.21 -202.621 0)
(5710.77 -97.2998 0)
(4199.56 -34.5975 0)
(2089.39 -7.10796 0)
(562.157 -0.57026 0)
(59.468 -0.0112667 0)
(1.64002 -9.35899e-05 0)
(0.0078387 -5.73351e-05 0)
(4.5752e-06 -5.73291e-05 0)
(2.34004e-10 -5.73275e-05 0)
(-1.75503e-10 -5.73238e-05 0)
(-3.12005e-10 -5.73246e-05 0)
(4.68008e-10 -5.73229e-05 0)
(-1.95003e-11 -5.73236e-05 0)
(7.80013e-11 -5.73226e-05 0)
(1.44302e-09 -5.7324e-05 0)
(-5.85009e-10 -5.73245e-05 0)
(-8.19013e-10 -5.73229e-05 0)
(-4.09507e-10 -5.73235e-05 0)
(-4.56426e-06 -5.73225e-05 0)
(-0.00782777 -5.73328e-05 0)
(-1.63965 -5.73325e-05 0)
(-59.5375 -5.73177e-05 0)
(-563.729 -5.7209e-05 0)
(-2099.53 -5.60481e-05 0)
(-4232.42 -5.18171e-05 0)
(-5782.31 -4.35957e-05 0)
(-6415.89 -3.28713e-05 0)
(-6503.11 -2.22479e-05 0)
(-6185.84 -1.37519e-05 0)
(-4740.86 -7.66706e-06 0)
(-1421.13 -3.58525e-06 0)
(72086.2 -9.60868e-07 0)
(-121140 -2.63644e-07 0)
(122337 -2107.65 0)
(-72851.5 -574.256 0)
(1321.28 -520.405 0)
(4653.14 -393.802 0)
(6108.81 -265.043 0)
(6448.82 -160.034 0)
(6382.37 -83.3673 0)
(5765.24 -35.3309 0)
(4225.8 -10.5646 0)
(2097.94 -1.6736 0)
(563.587 -0.12258 0)
(59.543 -0.049254 0)
(1.64016 -0.0495888 0)
(0.00783187 -0.0495995 0)
(4.55849e-06 -0.0495995 0)
(5.10908e-09 -0.0495995 0)
(2.78855e-09 -0.0495995 0)
(8.19013e-10 -0.0495995 0)
(9.94516e-10 -0.0495995 0)
(3.51006e-10 -0.0495995 0)
(-3.70506e-10 -0.0495995 0)
(-1.91103e-09 -0.0495995 0)
(1.11152e-09 -0.0495995 0)
(9.75016e-10 -0.0495995 0)
(3.70506e-10 -0.0495995 0)
(-4.56883e-06 -0.0495995 0)
(-0.00782778 -0.0495995 0)
(-1.63965 -0.0495994 0)
(-59.5375 -0.049597 0)
(-563.729 -0.0495034 0)
(-2099.53 -0.0486238 0)
(-4232.42 -0.0455022 0)
(-5782.31 -0.0395373 0)
(-6415.89 -0.0316316 0)
(-6503.11 -0.0233661 0)
(-6185.84 -0.0161362 0)
(-4740.86 -0.0102636 0)
(-1421.13 -0.00580927 0)
(72086.2 -0.00203007 0)
(-121140 -0.00130178 0)
(121378 -950.509 0)
(-72253.3 -224.19 0)
(1399.54 -166.881 0)
(4726.89 -122.577 0)
(6173.91 -77.3361 0)
(6495.9 -44.2433 0)
(6412.38 -22.999 0)
(5780.93 -11.7418 0)
(4232 -7.03932 0)
(2099.46 -5.86576 0)
(563.722 -5.79998 0)
(59.5383 -5.81403 0)
(1.63969 -5.81482 0)
(0.00782842 -5.81482 0)
(4.56984e-06 -5.81482 0)
(5.85009e-10 -5.81482 0)
(1.63803e-09 -5.81482 0)
(-7.39062e-09 -5.81482 0)
(-8.98965e-09 -5.81482 0)
(-3.82206e-09 -5.81482 0)
(2.04753e-09 -5.81482 0)
(8.69714e-09 -5.81482 0)
(9.82816e-09 -5.81482 0)
(-5.26509e-10 -5.81482 0)
(-1.09787e-08 -5.81482 0)
(-4.56795e-06 -5.81482 0)
(-0.00782774 -5.81482 0)
(-1.63964 -5.81482 0)
(-59.5374 -5.81453 0)
(-563.728 -5.80434 0)
(-2099.53 -5.71272 0)
(-4232.41 -5.40137 0)
(-5782.3 -4.82339 0)
(-6415.87 -4.05774 0)
(-6503.09 -3.22772 0)
(-6185.82 -2.44717 0)
(-4740.85 -1.74286 0)
(-1421.13 -1.16762 0)
(72086.2 -0.532497 0)
(-121140 -0.640156 0)
(121152 -240.7 0)
(-72096.3 -63.0147 0)
(1419.2 -64.6791 0)
(4739.43 -70.1824 0)
(6184.3 -77.9416 0)
(6501.19 -88.6171 0)
(6413.69 -101.739 0)
(5780.62 -114.918 0)
(4231.46 -125.471 0)
(2099.13 -131.524 0)
(563.637 -133.421 0)
(59.5287 -133.647 0)
(1.63939 -133.653 0)
(0.00782629 -133.653 0)
(4.55598e-06 -133.653 0)
(5.9086e-09 -133.653 0)
(7.00061e-09 -133.653 0)
(5.81109e-09 -133.653 0)
(5.05058e-09 -133.653 0)
(4.71908e-09 -133.653 0)
(-1.63803e-09 -133.653 0)
(-7.48812e-09 -133.653 0)
(-7.52712e-09 -133.653 0)
(-2.14503e-10 -133.653 0)
(1.00622e-08 -133.653 0)
(-4.55621e-06 -133.653 0)
(-0.00782636 -133.653 0)
(-1.63936 -133.653 0)
(-59.5274 -133.647 0)
(-563.631 -133.422 0)
(-2099.14 -131.507 0)
(-4231.56 -125.328 0)
(-5781.01 -114.339 0)
(-6414.35 -100.063 0)
(-6501.56 -84.3581 0)
(-6184.41 -68.8219 0)
(-4739.62 -53.6925 0)
(-1419.97 -41.2272 0)
(72086.7 -24.2054 0)
(-121139 -45.7589 0)
(121072 -729.38 0)
(-72083.7 -282.781 0)
(1392.63 -385.747 0)
(4714.11 -454.741 0)
(6156.15 -544.27 0)
(6472.97 -632.847 0)
(6387.04 -719.685 0)
(5758.06 -799.182 0)
(4215.99 -862.734 0)
(2091.79 -900.402 0)
(561.676 -912.759 0)
(59.3148 -914.287 0)
(1.63313 -914.335 0)
(0.00779385 -914.336 0)
(4.54589e-06 -914.336 0)
(-3.12005e-10 -914.336 0)
(-1.02767e-08 -914.336 0)
(-1.13297e-08 -914.336 0)
(-8.42414e-09 -914.336 0)
(-4.01706e-09 -914.336 0)
(6.4351e-10 -914.336 0)
(5.69409e-09 -914.336 0)
(1.04522e-08 -914.336 0)
(7.09811e-09 -914.336 0)
(-7.80013e-11 -914.336 0)
(-4.54147e-06 -914.336 0)
(-0.00779407 -914.336 0)
(-1.63315 -914.335 0)
(-59.3147 -914.287 0)
(-561.666 -912.761 0)
(-2091.73 -900.406 0)
(-4215.86 -862.709 0)
(-5757.95 -799.025 0)
(-6386.98 -719.123 0)
(-6472.99 -631.735 0)
(-6156.27 -542.926 0)
(-4714.26 -453.058 0)
(-1392.71 -383.882 0)
(72081.9 -280.386 0)
(-121070 -718.002 0)
(120140 -3780.89 0)
(-71765.2 -1226.71 0)
(1253.49 -1417 0)
(4586.67 -1568.03 0)
(6012.67 -1793.17 0)
(6332.15 -2015.77 0)
(6253.4 -2233.2 0)
(5642.78 -2435.85 0)
(4133.92 -2604.29 0)
(2050.93 -2709.54 0)
(550.256 -2746.01 0)
(58.0099 -2750.76 0)
(1.593 -2750.91 0)
(0.00757609 -2750.91 0)
(4.40619e-06 -2750.91 0)
(9.16515e-10 -2750.91 0)
(6.3766e-09 -2750.91 0)
(7.95613e-09 -2750.91 0)
(4.19257e-09 -2750.91 0)
(3.68556e-09 -2750.91 0)
(3.15905e-09 -2750.91 0)
(1.09202e-09 -2750.91 0)
(-2.24254e-09 -2750.91 0)
(-4.85558e-09 -2750.91 0)
(-3.84156e-09 -2750.91 0)
(-4.40138e-06 -2750.91 0)
(-0.00757615 -2750.91 0)
(-1.59301 -2750.91 0)
(-58.01 -2750.76 0)
(-550.254 -2746.01 0)
(-2050.91 -2709.55 0)
(-4133.87 -2604.36 0)
(-5642.65 -2435.98 0)
(-6253.15 -2233.35 0)
(-6331.77 -2015.89 0)
(-6012.23 -1793.18 0)
(-4586.36 -1567.9 0)
(-1253.57 -1416.8 0)
(71764.8 -1226.55 0)
(-120141 -3778.81 0)
(116056 -9578.32 0)
(-69805.7 -2784.44 0)
(1063.72 -2840.9 0)
(4351.62 -3019.03 0)
(5724.69 -3343.31 0)
(6048.93 -3674.31 0)
(5982.23 -4000.26 0)
(5400.47 -4311.49 0)
(3952.26 -4581.26 0)
(1955.23 -4759.17 0)
(521.955 -4824.39 0)
(54.5917 -4833.3 0)
(1.48256 -4833.61 0)
(0.00695315 -4833.61 0)
(3.96796e-06 -4833.61 0)
(1.24802e-09 -4833.61 0)
(-2.88605e-09 -4833.61 0)
(-5.67459e-09 -4833.61 0)
(-5.42109e-09 -4833.61 0)
(-5.77209e-09 -4833.61 0)
(-3.62706e-09 -4833.61 0)
(4.87508e-10 -4833.61 0)
(3.78306e-09 -4833.61 0)
(1.67703e-09 -4833.61 0)
(-1.44302e-09 -4833.61 0)
(-3.96547e-06 -4833.61 0)
(-0.00695315 -4833.61 0)
(-1.48256 -4833.61 0)
(-54.5917 -4833.3 0)
(-521.955 -4824.39 0)
(-1955.23 -4759.17 0)
(-3952.25 -4581.28 0)
(-5400.43 -4311.55 0)
(-5982.16 -4000.41 0)
(-6048.83 -3674.63 0)
(-5724.58 -3343.85 0)
(-4351.56 -3019.81 0)
(-1063.77 -2841.76 0)
(69805.7 -2785.14 0)
(-116057 -9578.7 0)
(107730 -15158.9 0)
(-65272.8 -4095.14 0)
(1027.43 -3867.48 0)
(4102.53 -4023.58 0)
(5381.22 -4361.62 0)
(5699.09 -4731.06 0)
(5639.39 -5099.2 0)
(5082.91 -5460.22 0)
(3702.52 -5784.26 0)
(1816.63 -6008.48 0)
(478.816 -6094.81 0)
(49.1318 -6107.04 0)
(1.29983 -6107.46 0)
(0.00590144 -6107.46 0)
(3.25113e-06 -6107.46 0)
(6.3571e-09 -6107.46 0)
(-1.56003e-10 -6107.46 0)
(-2.98355e-09 -6107.46 0)
(-2.34004e-09 -6107.46 0)
(-9.75016e-11 -6107.46 0)
(2.84705e-09 -6107.46 0)
(6.82511e-09 -6107.46 0)
(5.9671e-09 -6107.46 0)
(4.87508e-10 -6107.46 0)
(-2.45704e-09 -6107.46 0)
(-3.24591e-06 -6107.46 0)
(-0.00590143 -6107.46 0)
(-1.29983 -6107.46 0)
(-49.1318 -6107.04 0)
(-478.816 -6094.81 0)
(-1816.64 -6008.48 0)
(-3702.52 -5784.26 0)
(-5082.91 -5460.23 0)
(-5639.39 -5099.24 0)
(-5699.09 -4731.15 0)
(-5381.22 -4361.77 0)
(-4102.53 -4023.78 0)
(-1027.44 -3867.7 0)
(65272.8 -4095.29 0)
(-107730 -15159.1 0)
(96678 -17745.1 0)
(-58924.9 -4647.17 0)
(1132.68 -4280.02 0)
(3875.45 -4406.93 0)
(5042.93 -4733.23 0)
(5338.17 -5093.21 0)
(5279.59 -5467.51 0)
(4740.32 -5839.4 0)
(3423.93 -6182.71 0)
(1655.97 -6428.52 0)
(426.985 -6525.96 0)
(42.3989 -6539.91 0)
(1.07256 -6540.39 0)
(0.00460683 -6540.4 0)
(2.37559e-06 -6540.4 0)
(-2.8568e-09 -6540.4 0)
(-3.98781e-09 -6540.4 0)
(-6.1426e-10 -6540.4 0)
(4.38757e-10 -6540.4 0)
(-1.67703e-09 -6540.4 0)
(1.46252e-10 -6540.4 0)
(2.34004e-10 -6540.4 0)
(1.59903e-09 -6540.4 0)
(2.32054e-09 -6540.4 0)
(8.77514e-11 -6540.4 0)
(-2.37299e-06 -6540.4 0)
(-0.00460683 -6540.4 0)
(-1.07256 -6540.39 0)
(-42.3989 -6539.91 0)
(-426.985 -6525.96 0)
(-1655.97 -6428.52 0)
(-3423.94 -6182.71 0)
(-4740.32 -5839.4 0)
(-5279.59 -5467.51 0)
(-5338.18 -5093.21 0)
(-5042.94 -4733.24 0)
(-3875.45 -4406.94 0)
(-1132.68 -4280.02 0)
(58925 -4647.17 0)
(-96678 -17745.2 0)
(85143.9 -18723 0)
(-52297.3 -4628.99 0)
(1258.94 -4281.12 0)
(3665.79 -4424.78 0)
(4719.9 -4719.25 0)
(4991.52 -5082.62 0)
(4920.34 -5442.86 0)
(4393.71 -5813.71 0)
(3134.82 -6162.12 0)
(1485.87 -6416.28 0)
(371.474 -6517.2 0)
(35.2202 -6531.36 0)
(0.836421 -6531.82 0)
(0.00332187 -6531.82 0)
(1.56715e-06 -6531.82 0)
(-1.03352e-09 -6531.82 0)
(-8.28763e-10 -6531.82 0)
(1.58928e-09 -6531.82 0)
(1.76478e-09 -6531.82 0)
(1.26752e-10 -6531.82 0)
(-3.90006e-10 -6531.82 0)
(-1.19927e-09 -6531.82 0)
(1.29677e-09 -6531.82 0)
(3.78306e-09 -6531.82 0)
(1.77453e-09 -6531.82 0)
(-1.56123e-06 -6531.82 0)
(-0.00332187 -6531.82 0)
(-0.836421 -6531.82 0)
(-35.2202 -6531.36 0)
(-371.474 -6517.2 0)
(-1485.87 -6416.28 0)
(-3134.82 -6162.12 0)
(-4393.71 -5813.71 0)
(-4920.34 -5442.85 0)
(-4991.52 -5082.62 0)
(-4719.9 -4719.24 0)
(-3665.79 -4424.77 0)
(-1258.94 -4281.1 0)
(52297.3 -4628.98 0)
(-85143.9 -18723 0)
(73084.2 -17353.2 0)
(-45008.2 -4251.94 0)
(1329.47 -4042.31 0)
(3453.25 -4183.97 0)
(4409.01 -4445.84 0)
(4640.88 -4773.61 0)
(4575.08 -5110.42 0)
(4047.21 -5459.4 0)
(2843.28 -5800.73 0)
(1313.81 -6056.62 0)
(316.091 -6157.54 0)
(28.3054 -6171.11 0)
(0.621937 -6171.53 0)
(0.00224323 -6171.53 0)
(9.43181e-07 -6171.53 0)
(6.92261e-10 -6171.53 0)
(-9.36015e-10 -6171.53 0)
(-6.2401e-10 -6171.53 0)
(4.87508e-10 -6171.53 0)
(8.77514e-10 -6171.53 0)
(-6.63011e-10 -6171.53 0)
(-1.25777e-09 -6171.53 0)
(-3.90006e-11 -6171.53 0)
(1.19927e-09 -6171.53 0)
(1.57953e-09 -6171.53 0)
(-9.41924e-07 -6171.53 0)
(-0.00224323 -6171.53 0)
(-0.621937 -6171.53 0)
(-28.3054 -6171.11 0)
(-316.091 -6157.54 0)
(-1313.81 -6056.62 0)
(-2843.28 -5800.73 0)
(-4047.21 -5459.4 0)
(-4575.08 -5110.42 0)
(-4640.88 -4773.6 0)
(-4409.01 -4445.84 0)
(-3453.25 -4183.97 0)
(-1329.47 -4042.31 0)
(45008.2 -4251.93 0)
(-73084.2 -17353.2 0)
(63416.3 -14209.5 0)
(-39470.4 -3287.16 0)
(1324.43 -3269.82 0)
(3276.93 -3276.72 0)
(4151.7 -3467.45 0)
(4351.11 -3697.14 0)
(4259.48 -3918.94 0)
(3728.51 -4155.36 0)
(2559.31 -4407.6 0)
(1142.03 -4618.08 0)
(261.146 -4706.33 0)
(21.7463 -4718.18 0)
(0.434277 -4718.53 0)
(0.00139545 -4718.53 0)
(5.15403e-07 -4718.53 0)
(2.63254e-09 -4718.53 0)
(-1.44302e-09 -4718.53 0)
(0 -4718.53 0)
(1.02377e-09 -4718.53 0)
(-1.56003e-10 -4718.53 0)
(-6.63011e-10 -4718.53 0)
(-1.63803e-09 -4718.53 0)
(-2.34004e-10 -4718.53 0)
(6.82511e-11 -4718.53 0)
(-3.80256e-10 -4718.53 0)
(-5.10811e-07 -4718.53 0)
(-0.00139545 -4718.53 0)
(-0.434277 -4718.53 0)
(-21.7463 -4718.18 0)
(-261.146 -4706.33 0)
(-1142.03 -4618.08 0)
(-2559.31 -4407.6 0)
(-3728.51 -4155.36 0)
(-4259.48 -3918.94 0)
(-4351.11 -3697.14 0)
(-4151.7 -3467.45 0)
(-3276.93 -3276.72 0)
(-1324.43 -3269.82 0)
(39470.4 -3287.16 0)
(-63416.3 -14209.5 0)
(55195.6 -7150.61 0)
(-34466.3 -1511.52 0)
(1339.53 -1323.68 0)
(3262.81 -1295.57 0)
(4003.88 -1289.87 0)
(4205.81 -1177.49 0)
(4133.52 -1012.07 0)
(3576.31 -909.065 0)
(2397.39 -993.66 0)
(1025.94 -1195.89 0)
(219.626 -1297.32 0)
(16.5563 -1310.16 0)
(0.289095 -1310.48 0)
(0.000789187 -1310.49 0)
(2.43881e-07 -1310.49 0)
(3.59781e-09 -1310.49 0)
(-7.41012e-10 -1310.49 0)
(3.90006e-10 -1310.49 0)
(-7.41012e-10 -1310.49 0)
(2.14503e-10 -1310.49 0)
(-3.02255e-10 -1310.49 0)
(-1.57953e-09 -1310.49 0)
(6.0451e-10 -1310.49 0)
(-6.63011e-10 -1310.49 0)
(1.21877e-09 -1310.49 0)
(-2.39464e-07 -1310.49 0)
(-0.000789193 -1310.49 0)
(-0.289095 -1310.48 0)
(-16.5563 -1310.16 0)
(-219.626 -1297.32 0)
(-1025.94 -1195.89 0)
(-2397.39 -993.66 0)
(-3576.31 -909.065 0)
(-4133.52 -1012.07 0)
(-4205.81 -1177.49 0)
(-4003.88 -1289.87 0)
(-3262.81 -1295.57 0)
(-1339.53 -1323.68 0)
(34466.3 -1511.52 0)
(-55195.6 -7150.61 0)
(51968.1 146989 0)
(-33855.4 36585.9 0)
(1532.53 37368.5 0)
(3309.51 43125.6 0)
(4265.49 49334.2 0)
(4618.8 57397.9 0)
(4518.15 64720 0)
(3746.25 71363.7 0)
(2282.92 75643.9 0)
(849.416 77133.5 0)
(151.028 77297.3 0)
(9.05904 77296.9 0)
(0.122962 77296.8 0)
(0.000259932 77296.8 0)
(5.96027e-08 77296.8 0)
(-1.90128e-09 77296.8 0)
(1.53077e-09 77296.8 0)
(7.02011e-10 77296.8 0)
(1.75503e-10 77296.8 0)
(1.44302e-09 77296.8 0)
(-2.24254e-10 77296.8 0)
(-1.61853e-09 77296.8 0)
(-1.16027e-09 77296.8 0)
(9.26265e-10 77296.8 0)
(1.21877e-09 77296.8 0)
(-5.97685e-08 77296.8 0)
(-0.000259933 77296.8 0)
(-0.122962 77296.8 0)
(-9.05904 77296.9 0)
(-151.028 77297.3 0)
(-849.416 77133.5 0)
(-2282.92 75643.9 0)
(-3746.25 71363.7 0)
(-4518.15 64720 0)
(-4618.8 57397.9 0)
(-4265.49 49334.2 0)
(-3309.51 43125.6 0)
(-1532.53 37368.5 0)
(33855.4 36585.9 0)
(-51968.1 146989 0)
(229786 -237015 0)
(-140100 -55283.6 0)
(7641.44 -58769.8 0)
(14793.4 -68030 0)
(17757.2 -78686.6 0)
(19032.1 -91863.7 0)
(17591.5 -104391 0)
(14103 -115853 0)
(7957.32 -123715 0)
(2619.16 -126912 0)
(377.158 -127453 0)
(16.0891 -127480 0)
(0.133217 -127480 0)
(0.00014329 -127480 0)
(1.25192e-08 -127480 0)
(1.48202e-08 -127480 0)
(1.29092e-08 -127480 0)
(6.90311e-09 -127480 0)
(6.2791e-09 -127480 0)
(1.71603e-09 -127480 0)
(0 -127480 0)
(-8.07313e-09 -127480 0)
(-9.75016e-10 -127480 0)
(5.30409e-09 -127480 0)
(-8.34613e-09 -127480 0)
(-8.97015e-09 -127480 0)
(-0.000143324 -127480 0)
(-0.133217 -127480 0)
(-16.0891 -127480 0)
(-377.158 -127453 0)
(-2619.16 -126912 0)
(-7957.32 -123715 0)
(-14103 -115853 0)
(-17591.5 -104391 0)
(-19032.1 -91863.7 0)
(-17757.2 -78686.6 0)
(-14793.4 -68030 0)
(-7641.44 -58769.8 0)
(140100 -55283.6 0)
(-229786 -237015 0)
(229786 237015 0)
(-140100 55283.6 0)
(7641.44 58769.8 0)
(14793.4 68030 0)
(17757.2 78686.6 0)
(19032.1 91863.7 0)
(17591.5 104391 0)
(14103 115853 0)
(7957.32 123715 0)
(2619.16 126912 0)
(377.158 127453 0)
(16.0891 127480 0)
(0.133217 127480 0)
(0.000143322 127480 0)
(1.15832e-08 127480 0)
(3.12005e-09 127480 0)
(-1.21292e-08 127480 0)
(-1.08422e-08 127480 0)
(-1.17392e-08 127480 0)
(-5.73309e-09 127480 0)
(-3.08105e-09 127480 0)
(-3.19805e-09 127480 0)
(1.52102e-09 127480 0)
(1.56003e-10 127480 0)
(4.29007e-09 127480 0)
(-5.81109e-09 127480 0)
(-0.000143297 127480 0)
(-0.133217 127480 0)
(-16.0891 127480 0)
(-377.158 127453 0)
(-2619.16 126912 0)
(-7957.32 123715 0)
(-14103 115853 0)
(-17591.5 104391 0)
(-19032.1 91863.7 0)
(-17757.2 78686.6 0)
(-14793.4 68030 0)
(-7641.44 58769.8 0)
(140100 55283.6 0)
(-229786 237015 0)
(51968.1 -146989 0)
(-33855.4 -36585.9 0)
(1532.53 -37368.5 0)
(3309.51 -43125.6 0)
(4265.49 -49334.2 0)
(4618.8 -57397.9 0)
(4518.15 -64720 0)
(3746.25 -71363.7 0)
(2282.92 -75643.9 0)
(849.416 -77133.5 0)
(151.028 -77297.3 0)
(9.05904 -77296.9 0)
(0.122962 -77296.8 0)
(0.000259936 -77296.8 0)
(5.68727e-08 -77296.8 0)
(-4.24132e-09 -77296.8 0)
(3.31505e-10 -77296.8 0)
(1.72578e-09 -77296.8 0)
(-1.07252e-10 -77296.8 0)
(6.4351e-10 -77296.8 0)
(-1.02377e-09 -77296.8 0)
(-2.39854e-09 -77296.8 0)
(-3.41256e-10 -77296.8 0)
(1.16027e-09 -77296.8 0)
(2.13528e-09 -77296.8 0)
(-6.0061e-08 -77296.8 0)
(-0.000259931 -77296.8 0)
(-0.122962 -77296.8 0)
(-9.05904 -77296.9 0)
(-151.028 -77297.3 0)
(-849.416 -77133.5 0)
(-2282.92 -75643.9 0)
(-3746.25 -71363.7 0)
(-4518.15 -64720 0)
(-4618.8 -57397.9 0)
(-4265.49 -49334.2 0)
(-3309.51 -43125.6 0)
(-1532.53 -37368.5 0)
(33855.4 -36585.9 0)
(-51968.1 -146989 0)
(55195.6 7150.61 0)
(-34466.3 1511.52 0)
(1339.53 1323.68 0)
(3262.81 1295.57 0)
(4003.88 1289.87 0)
(4205.81 1177.49 0)
(4133.52 1012.07 0)
(3576.31 909.065 0)
(2397.39 993.66 0)
(1025.94 1195.89 0)
(219.626 1297.32 0)
(16.5563 1310.16 0)
(0.289095 1310.48 0)
(0.000789194 1310.49 0)
(2.39669e-07 1310.49 0)
(1.17002e-10 1310.49 0)
(-2.41804e-09 1310.49 0)
(7.80013e-10 1310.49 0)
(-1.56978e-09 1310.49 0)
(-4.38757e-10 1310.49 0)
(-1.85253e-10 1310.49 0)
(-8.09263e-10 1310.49 0)
(1.95978e-09 1310.49 0)
(-4.09507e-10 1310.49 0)
(-2.14503e-10 1310.49 0)
(-2.38489e-07 1310.49 0)
(-0.000789192 1310.49 0)
(-0.289095 1310.48 0)
(-16.5563 1310.16 0)
(-219.626 1297.32 0)
(-1025.94 1195.89 0)
(-2397.39 993.66 0)
(-3576.31 909.065 0)
(-4133.52 1012.07 0)
(-4205.81 1177.49 0)
(-4003.88 1289.87 0)
(-3262.81 1295.57 0)
(-1339.53 1323.68 0)
(34466.3 1511.52 0)
(-55195.6 7150.61 0)
(63416.3 14209.5 0)
(-39470.4 3287.16 0)
(1324.43 3269.82 0)
(3276.93 3276.72 0)
(4151.7 3467.45 0)
(4351.11 3697.14 0)
(4259.48 3918.94 0)
(3728.51 4155.36 0)
(2559.31 4407.6 0)
(1142.03 4618.08 0)
(261.146 4706.33 0)
(21.7463 4718.18 0)
(0.434277 4718.53 0)
(0.00139546 4718.53 0)
(5.1122e-07 4718.53 0)
(8.09263e-10 4718.53 0)
(-2.73979e-09 4718.53 0)
(-2.14503e-10 4718.53 0)
(-7.50762e-10 4718.53 0)
(2.63254e-10 4718.53 0)
(-2.92505e-10 4718.53 0)
(-1.51127e-09 4718.53 0)
(1.46252e-09 4718.53 0)
(4.77758e-10 4718.53 0)
(1.18952e-09 4718.53 0)
(-5.12088e-07 4718.53 0)
(-0.00139545 4718.53 0)
(-0.434277 4718.53 0)
(-21.7463 4718.18 0)
(-261.146 4706.33 0)
(-1142.03 4618.08 0)
(-2559.31 4407.6 0)
(-3728.51 4155.36 0)
(-4259.48 3918.94 0)
(-4351.11 3697.14 0)
(-4151.7 3467.45 0)
(-3276.93 3276.72 0)
(-1324.43 3269.82 0)
(39470.4 3287.16 0)
(-63416.3 14209.5 0)
(73084.2 17353.2 0)
(-45008.2 4251.94 0)
(1329.47 4042.31 0)
(3453.25 4183.97 0)
(4409.01 4445.84 0)
(4640.88 4773.61 0)
(4575.08 5110.42 0)
(4047.21 5459.4 0)
(2843.28 5800.73 0)
(1313.81 6056.62 0)
(316.091 6157.54 0)
(28.3054 6171.11 0)
(0.621937 6171.53 0)
(0.00224324 6171.53 0)
(9.40988e-07 6171.53 0)
(7.31262e-10 6171.53 0)
(-2.92505e-09 6171.53 0)
(-1.86228e-09 6171.53 0)
(1.26752e-10 6171.53 0)
(8.48264e-10 6171.53 0)
(2.14503e-10 6171.53 0)
(2.34004e-10 6171.53 0)
(-7.11762e-10 6171.53 0)
(2.53504e-10 6171.53 0)
(3.70506e-10 6171.53 0)
(-9.42314e-07 6171.53 0)
(-0.00224323 6171.53 0)
(-0.621937 6171.53 0)
(-28.3054 6171.11 0)
(-316.091 6157.54 0)
(-1313.81 6056.62 0)
(-2843.28 5800.73 0)
(-4047.21 5459.4 0)
(-4575.08 5110.42 0)
(-4640.88 4773.6 0)
(-4409.01 4445.84 0)
(-3453.25 4183.97 0)
(-1329.47 4042.31 0)
(45008.2 4251.93 0)
(-73084.2 17353.2 0)
(85143.9 18723 0)
(-52297.3 4628.99 0)
(1258.94 4281.12 0)
(3665.79 4424.78 0)
(4719.9 4719.25 0)
(4991.52 5082.62 0)
(4920.34 5442.86 0)
(4393.71 5813.71 0)
(3134.82 6162.12 0)
(1485.87 6416.28 0)
(371.474 6517.2 0)
(35.2202 6531.36 0)
(0.836421 6531.82 0)
(0.00332187 6531.82 0)
(1.56239e-06 6531.82 0)
(9.26265e-10 6531.82 0)