/*--------------------------------*- C++ -*----------------------------------*\
| =========                 |                                                 |
| \\      /  F ield         | OpenFOAM: The Open Source CFD Toolbox           |
|  \\    /   O peration     | Version:  v1912                                 |
|   \\  /    A nd           | Website:  www.openfoam.com                      |
|    \\/     M anipulation  |                                                 |
\*---------------------------------------------------------------------------*/
FoamFile
{
    version     2.0;
    format      ascii;
    class       volScalarField;
    location    "1.04";
    object      p;
}
// * * * * * * * * * * * * * * * * * * * * * * * * * * * * * * * * * * * * * //

dimensions      [1 -1 -2 0 0 0 0];


internalField   nonuniform List<scalar> 
1900
(
10000
10000
10000
10000
10000
10002.7
10040.2
10187.6
10408.1
10605.3
10000
10000
10000
10000
10000
10002.8
10040.5
10191.2
10431.5
10647
10000
10000
10000
10000
10000
10002.8
10041.7
10195.8
10435.8
10639.3
10000
10000
10000
10000
10000
10002.8
10040.5
10191.2
10431.5
10647
10000
10000
10000
10000
10000
10002.7
10040.2
10187.6
10408.1
10605.3
10596.9
10666.6
10714.7
10709.1
10230.1
10728.6
10783.1
10795.7
10794.1
10575.8
10704.4
10751.1
10769.8
10754.5
10546.1
10728.6
10783.1
10795.7
10794.1
10575.8
10596.9
10666.6
10714.7
10709.1
10230.1
11728.8
11614.2
11805.4
11870.6
12208.6
11588.5
11592.8
11798.5
11929
11885.7
11584.3
11597.7
11794
11901.2
11605.2
11588.5
11592.8
11798.5
11929
11885.7
11728.8
11614.2
11805.4
11870.6
12208.6
10424.4
6163.39
6508.81
6621.22
7005.74
7491.66
8161.69
8867.52
9488.33
9867.13
9986.25
9999.63
10000
10000
10000
10000
10000
10000
10000
10000
10000
10000
10000
10000
10000
10000
10000
10000
9999.55
9983.66
9845.26
9412.53
8707.2
7887.68
7066.32
6300.52
5629.43
5074.17
4426.72
14067.7
10455.4
6501.71
6669.92
6652.38
7009.34
7496.51
8163.85
8869.22
9489.58
9867.66
9986.33
9999.63
10000
10000
10000
10000
10000
10000
10000
10000
10000
10000
10000
10000
10000
10000
10000
10000
9999.55
9983.66
9845.26
9412.53
8707.2
7887.68
7066.32
6300.52
5629.43
5074.17
4426.72
14067.7
10025.8
7029.83
6710.83
6662.47
7011.37
7499.71
8165.02
8869.77
9490.03
9867.87
9986.36
9999.63
10000
10000
10000
10000
10000
10000
10000
10000
10000
10000
10000
10000
10000
10000
10000
10000
9999.55
9983.66
9845.26
9412.53
8707.2
7887.68
7066.32
6300.52
5629.43
5074.17
4426.72
14067.7
10455.4
6501.71
6669.92
6652.38
7009.34
7496.51
8163.85
8869.22
9489.58
9867.66
9986.33
9999.63
10000
10000
10000
10000
10000
10000
10000
10000
10000
10000
10000
10000
10000
10000
10000
10000
9999.55
9983.66
9845.26
9412.53
8707.2
7887.68
7066.32
6300.52
5629.43
5074.17
4426.72
14067.7
10424.4
6163.39
6508.81
6621.22
7005.74
7491.66
8161.69
8867.52
9488.33
9867.13
9986.25
9999.63
10000
10000
10000
10000
10000
10000
10000
10000
10000
10000
10000
10000
10000
10000
10000
10000
9999.55
9983.66
9845.26
9412.53
8707.2
7887.68
7066.32
6300.52
5629.43
5074.17
4426.72
14067.7
11763.2
5531.19
6211.23
6520.34
6943.18
7474.64
8150.49
8858.65
9482.05
9864.79
9985.94
9999.62
10000
10000
10000
10000
10000
10000
10000
10000
10000
10000
10000
10000
10000
10000
10000
10000
9999.55
9983.66
9845.26
9412.53
8707.2
7887.68
7066.32
6300.52
5629.43
5074.17
4426.72
14067.7
13160.5
4943.76
5840.74
6301.46
6804.96
7406.95
8107.38
8831.79
9467.83
9860.27
9985.37
9999.6
10000
10000
10000
10000
10000
10000
10000
10000
10000
10000
10000
10000
10000
10000
10000
10000
9999.55
9983.66
9845.26
9412.53
8707.2
7887.68
7066.32
6300.52
5629.43
5074.17
4426.72
14067.7
14532.6
4804.71
5628.1
6123.51
6675.8
7324.11
8050.4
8796.45
9450.38
9855.04
9984.72
9999.58
10000
10000
10000
10000
10000
10000
10000
10000
10000
10000
10000
10000
10000
10000
10000
10000
9999.55
9983.66
9845.26
9412.53
8707.2
7887.68
7066.32
6300.52
5629.43
5074.17
4426.72
14067.7
14738.1
4703.67
5462.84
5963.84
6552.23
7237.88
7992.28
8761.68
9434.06
9850.35
9984.15
9999.56
10000
10000
10000
10000
10000
10000
10000
10000
10000
10000
10000
10000
10000
10000
10000
10000
9999.55
9983.66
9845.26
9412.53
8707.2
7887.68
7066.32
6300.52
5629.43
5074.17
4426.72
14067.7
14661.8
4620.49
5312.54
5828.9
6446.17
7161.68
7942.6
8733.68
9421.93
9847.16
9983.81
9999.55
10000
10000
10000
10000
10000
10000
10000
10000
10000
10000
10000
10000
10000
10000
10000
10000
9999.55
9983.66
9845.26
9412.53
8707.2
7887.68
7066.32
6300.52
5629.43
5074.17
4426.72
14067.7
14480.7
4535.58
5188.1
5721.92
6364.73
7105.81
7908.65
8716.27
9415.28
9845.69
9983.68
9999.55
10000
10000
10000
10000
10000
10000
10000
10000
10000
10000
10000
10000
10000
10000
10000
10000
9999.55
9983.66
9845.26
9412.53
8707.2
7887.68
7066.32
6300.52
5629.43
5074.17
4426.72
14067.7
14244.7
4465.73
5109
5656.86
6318.23
7076.37
7892.46
8708.98
9412.96
9845.3
9983.65
9999.55
10000
10000
10000
10000
10000
10000
10000
10000
10000
10000
10000
10000
10000
10000
10000
10000
9999.55
9983.66
9845.26
9412.53
8707.2
7887.68
7066.32
6300.52
5629.43
5074.17
4426.72
14067.7
14104.1
4433.3
5079.04
5633.12
6302.62
7067.29
7888.04
8707.3
9412.54
9845.25
9983.64
9999.54
9999.98
9999.99
9999.99
9999.99
9999.99
9999.99
9999.99
9999.99
9999.99
9999.99
9999.99
9999.99
9999.99
9999.99
9999.99
9999.98
9999.54
9983.64
9845.25
9412.52
8707.19
7887.67
7066.31
6300.52
5629.43
5074.17
4426.72
14067.7
14069.6
4426.9
5074.12
5629.24
6300.14
7065.73
7886.77
8705.99
9411.13
9843.75
9982.12
9998.01
9998.46
9998.46
9998.46
9998.46
9998.46
9998.46
9998.46
9998.46
9998.46
9998.46
9998.46
9998.46
9998.46
9998.46
9998.46
9998.46
9998.01
9982.12
9843.75
9411.13
8705.97
7886.67
7065.55
6299.95
5629.03
5073.92
4426.62
14067.6
14059.9
4422.19
5065.24
5617.24
6284.48
7046.05
7862.9
8678.09
9379.94
9810.63
9948.39
9964.21
9964.65
9964.66
9964.66
9964.66
9964.66
9964.66
9964.66
9964.66
9964.66
9964.66
9964.66
9964.66
9964.66
9964.66
9964.66
9964.65
9964.21
9948.39
9810.64
9379.96
8678.13
7862.95
7046.1
6284.52
5617.25
5065.24
4422.17
14059.5
13939.8
4374.03
4990.94
5526.51
6173.98
6914.61
7709.56
8503.59
9187.74
9607.62
9741.8
9757.18
9757.62
9757.62
9757.62
9757.62
9757.62
9757.62
9757.62
9757.62
9757.62
9757.62
9757.62
9757.62
9757.62
9757.62
9757.62
9757.62
9757.18
9741.8
9607.62
9187.74
8503.61
7709.6
6914.69
6174.1
5526.69
4991.12
4374.15
13939.9
13393.3
4195.87
4762.23
5265.61
5871.62
6568.04
7316.91
8065.63
8710.5
9105.26
9230.72
9244.98
9245.38
9245.38
9245.38
9245.38
9245.38
9245.38
9245.38
9245.38
9245.38
9245.38
9245.38
9245.38
9245.38
9245.38
9245.38
9245.38
9244.98
9230.72
9105.26
8710.5
8065.63
7316.92
6568.06
5871.65
5265.65
4762.28
4195.89
13393.3
12279.5
3872.21
4392.4
4858.16
5413.65
6054.24
6744.01
7433.46
8025.36
8384.83
8497.47
8510.01
8510.35
8510.35
8510.35
8510.35
8510.35
8510.35
8510.35
8510.35
8510.35
8510.35
8510.35
8510.35
8510.35
8510.35
8510.35
8510.35
8510.01
8497.47
8384.83
8025.36
7433.46
6744.01
6054.24
5413.65
4858.17
4392.4
3872.21
12279.5
10841.5
3481.11
3966
4392.99
4899.41
5482.54
6111.06
6737.94
7272.87
7593.22
7691.19
7701.72
7702
7702
7702
7702
7702
7702
7702
7702
7702
7702
7702
7702
7702
7702
7702
7702
7701.72
7691.19
7593.22
7272.87
6737.94
6111.06
5482.54
4899.41
4392.99
3966
3481.11
10841.5
9422.13
3092.94
3540.29
3931.39
4390.48
4921.22
5490.55
6056.92
6535.7
6816.81
6899.88
6908.38
6908.58
6908.59
6908.59
6908.59
6908.59
6908.59
6908.59
6908.59
6908.59
6908.59
6908.59
6908.59
6908.59
6908.59
6908.59
6908.58
6908.38
6899.88
6816.81
6535.7
6056.92
5490.55
4921.22
4390.48
3931.39
3540.29
3092.94
9422.13
8000.92
2746.12
3153.56
3504.4
3925.64
4403.78
4920.8
5430.78
5856.85
6100.7
6169.75
6176.4
6176.55
6176.55
6176.55
6176.55
6176.55
6176.55
6176.55
6176.55
6176.55
6176.55
6176.55
6176.55
6176.55
6176.55
6176.55
6176.55
6176.4
6169.75
6100.7
5856.85
5430.78
4920.8
4403.78
3925.64
3504.4
3153.56
2746.12
8000.92
6981.3
2446.42
2810.83
3133.32
3519.52
3958.83
4428.61
4890.26
5268.9
5478.2
5534.25
5539.25
5539.35
5539.35
5539.35
5539.35
5539.35
5539.35
5539.35
5539.35
5539.35
5539.35
5539.35
5539.35
5539.35
5539.35
5539.35
5539.35
5539.25
5534.25
5478.2
5268.9
4890.26
4428.61
3958.83
3519.52
3133.32
2810.83
2446.42
6981.3
6010.84
2211.14
2524.88
2824.76
3181.01
3579.76
4013.65
4437.6
4780.63
4962.93
5008.39
5012.04
5012.1
5012.1
5012.1
5012.1
5012.1
5012.1
5012.1
5012.1
5012.1
5012.1
5012.1
5012.1
5012.1
5012.1
5012.1
5012.1
5012.04
5008.39
4962.93
4780.63
4437.6
4013.65
3579.76
3181.01
2824.76
2524.88
2211.14
6010.84
5236.69
1916.9
2213.58
2460.37
2774.78
3138.71
3539.65
3928.25
4221.85
4357.52
4385.18
4386.92
4386.94
4386.94
4386.94
4386.94
4386.94
4386.94
4386.94
4386.94
4386.94
4386.94
4386.94
4386.94
4386.94
4386.94
4386.94
4386.94
4386.92
4385.18
4357.52
4221.85
3928.25
3539.65
3138.71
2774.78
2460.37
2213.58
1916.9
5236.69
19345.7
5351.3
6143.28
7198.05
8287.28
9787.59
11282.4
12725
13738.6
14147.8
14213.7
14216.7
14216.7
14216.7
14216.7
14216.7
14216.7
14216.7
14216.7
14216.7
14216.7
14216.7
14216.7
14216.7
14216.7
14216.7
14216.7
14216.7
14216.7
14213.7
14147.8
13738.6
12725
11282.4
9787.59
8287.28
7198.05
6143.28
5351.3
19345.7
19345.7
5351.3
6143.28
7198.05
8287.28
9787.59
11282.4
12725
13738.6
14147.8
14213.7
14216.7
14216.7
14216.7
14216.7
14216.7
14216.7
14216.7
14216.7
14216.7
14216.7
14216.7
14216.7
14216.7
14216.7
14216.7
14216.7
14216.7
14216.7
14213.7
14147.8
13738.6
12725
11282.4
9787.59
8287.28
7198.05
6143.28
5351.3
19345.7
5236.69
1916.9
2213.58
2460.37
2774.78
3138.71
3539.65
3928.25
4221.85
4357.52
4385.18
4386.92
4386.94
4386.94
4386.94
4386.94
4386.94
4386.94
4386.94
4386.94
4386.94
4386.94
4386.94
4386.94
4386.94
4386.94
4386.94
4386.94
4386.92
4385.18
4357.52
4221.85
3928.25
3539.65
3138.71
2774.78
2460.37
2213.58
1916.9
5236.69
6010.84
2211.14
2524.88
2824.76
3181.01
3579.76
4013.65
4437.6
4780.63
4962.93
5008.39
5012.04
5012.1
5012.1
5012.1
5012.1
5012.1
5012.1
5012.1
5012.1
5012.1
5012.1
5012.1
5012.1
5012.1
5012.1
5012.1
5012.1
5012.04
5008.39
4962.93
4780.63
4437.6
4013.65
3579.76
3181.01
2824.76
2524.88
2211.14
6010.84
6981.3
2446.42
2810.83
3133.32
3519.52
3958.83
4428.61
4890.26
5268.9
5478.2
5534.25
5539.25
5539.35
5539.35
5539.35
5539.35
5539.35
5539.35
5539.35
5539.35
5539.35
5539.35
5539.35
5539.35
5539.35
5539.35
5539.35
5539.35
5539.25
5534.25
5478.2
5268.9
4890.26
4428.61
3958.83
3519.52
3133.32
2810.83
2446.42
6981.3
8000.92
2746.12
3153.56
3504.4
3925.64
4403.78
4920.8
5430.78
5856.85
6100.7
6169.75
6176.4
6176.55
6176.55
6176.55
6176.55
6176.55
6176.55
6176.55
6176.55
6176.55
6176.55
6176.55
6176.55
6176.55
6176.55
6176.55
6176.55
6176.4
6169.75
6100.7
5856.85
5430.78
4920.8
4403.78
3925.64
3504.4
3153.56
2746.12
8000.92
9422.13
3092.94
3540.29
3931.39
4390.48
4921.22
5490.55
6056.92
6535.7
6816.81
6899.88
6908.38
6908.58
6908.59
6908.59
6908.59
6908.59
6908.59
6908.59
6908.59
6908.59
6908.59
6908.59
6908.59
6908.59
6908.59
6908.59
6908.58
6908.38
6899.88
6816.81
6535.7
6056.92
5490.55
4921.22
4390.48
3931.39
3540.29
3092.94
9422.13
10841.5
3481.11
3966
4392.99
4899.41
5482.54
6111.06
6737.94
7272.87
7593.22
7691.19
7701.72
7702
7702
7702
7702
7702
7702
7702
7702
7702
7702
7702
7702
7702
7702
7702
7702
7701.72
7691.19
7593.22
7272.87
6737.94
6111.06
5482.54
4899.41
4392.99
3966
3481.11
10841.5
12279.5
3872.21
4392.4
4858.16
5413.65
6054.24
6744.01
7433.46
8025.36
8384.83
8497.47
8510.01
8510.35
8510.35
8510.35
8510.35
8510.35
8510.35
8510.35
8510.35
8510.35
8510.35
8510.35
8510.35
8510.35
8510.35
8510.35
8510.35
8510.01
8497.47
8384.83
8025.36
7433.46
6744.01
6054.24
5413.65
4858.17
4392.4
3872.21
12279.5
13393.3
4195.87
4762.23
5265.61
5871.62
6568.04
7316.91
8065.63
8710.5
9105.26
9230.72
9244.98
9245.38
9245.38
9245.38
9245.38
9245.38
9245.38
9245.38
9245.38
9245.38
9245.38
9245.38
9245.38
9245.38
9245.38
9245.38
9245.38
9244.98
9230.72
9105.26
8710.5
8065.63
7316.92
6568.06
5871.65
5265.65
4762.28
4195.89
13393.3
13939.8
4374.03
4990.94
5526.51
6173.98
6914.61
7709.56
8503.59
9187.74
9607.62
9741.8
9757.18
9757.62
9757.62
9757.62
9757.62
9757.62
9757.62
9757.62
9757.62
9757.62
9757.62
9757.62
9757.62
9757.62
9757.62
9757.62
9757.62
9757.18
9741.8
9607.62
9187.74
8503.61
7709.6
6914.69
6174.1
5526.69
4991.12
4374.15
13939.9
14059.9
4422.19
5065.24
5617.24
6284.48
7046.05
7862.9
8678.09
9379.94
9810.63
9948.39
9964.21
9964.65
9964.66
9964.66
9964.66
9964.66
9964.66
9964.66
9964.66
9964.66
9964.66
9964.66
9964.66
9964.66
9964.66
9964.66
9964.65
9964.21
9948.39
9810.64
9379.96
8678.13
7862.95
7046.1
6284.52
5617.25
5065.24
4422.17
14059.5
14069.6
4426.9
5074.12
5629.24
6300.14
7065.73
7886.77
8705.99
9411.13
9843.75
9982.12
9998.01
9998.46
9998.46
9998.46
9998.46
9998.46
9998.46
9998.46
9998.46
9998.46
9998.46
9998.46
9998.46
9998.46
9998.46
9998.46
9998.46
9998.01
9982.12
9843.75
9411.13
8705.97
7886.67
7065.55
6299.95
5629.03
5073.92
4426.62
14067.6
14104.1
4433.3
5079.04
5633.12
6302.62
7067.29
7888.04
8707.3
9412.54
9845.25
9983.64
9999.54
9999.98
9999.99
9999.99
9999.99
9999.99
9999.99
9999.99
9999.99
9999.99
9999.99
9999.99
9999.99
9999.99
9999.99
9999.99
9999.98
9999.54
9983.64
9845.25
9412.52
8707.19
7887.67
7066.31
6300.52
5629.43
5074.17
4426.72
14067.7
14244.7
4465.73
5109
5656.86
6318.23
7076.37
7892.46
8708.98
9412.96
9845.3
9983.65
9999.55
10000
10000
10000
10000
10000
10000
10000
10000
10000
10000
10000
10000
10000
10000
10000
10000
9999.55
9983.66
9845.26
9412.53
8707.2
7887.68
7066.32
6300.52
5629.43
5074.17
4426.72
14067.7
14480.7
4535.58
5188.1
5721.92
6364.73
7105.81
7908.65
8716.27
9415.28
9845.69
9983.68
9999.55
10000
10000
10000
10000
10000
10000
10000
10000
10000
10000
10000
10000
10000
10000
10000
10000
9999.55
9983.66
9845.26
9412.53
8707.2
7887.68
7066.32
6300.52
5629.43
5074.17
4426.72
14067.7
14661.8
4620.49
5312.54
5828.9
6446.17
7161.68
7942.6
8733.68
9421.93
9847.16
9983.81
9999.55
10000
10000
10000
10000
10000
10000
10000
10000
10000
10000
10000
10000
10000
10000
10000
10000
9999.55
9983.66
9845.26
9412.53
8707.2
7887.68
7066.32
6300.52
5629.43
5074.17
4426.72
14067.7
14738.1
4703.67
5462.84
5963.84
6552.23
7237.88
7992.28
8761.68
9434.06
9850.35
9984.15
9999.56
10000
10000
10000
10000
10000
10000
10000
10000
10000
10000
10000
10000
10000
10000
10000
10000
9999.55
9983.66
9845.26
9412.53
8707.2
7887.68
7066.32
6300.52
5629.43
5074.17
4426.72
14067.7
14532.6
4804.71
5628.1
6123.51
6675.8
7324.11
8050.4
8796.45
9450.38
9855.04
9984.72
9999.58
10000
10000
10000
10000
10000
10000
10000
10000
10000
10000
10000
10000
10000
10000
10000
10000
9999.55
9983.66
9845.26
9412.53
8707.2
7887.68
7066.32
6300.52
5629.43
5074.17
4426.72
14067.7
13160.5
4943.76
5840.74
6301.46
6804.96
7406.95
8107.38
8831.79
9467.83
9860.27
9985.37
9999.6
10000
10000
10000
10000
10000
10000
10000
10000
10000
10000
10000
10000
10000
10000
10000
10000
9999.55
9983.66
9845.26
9412.53
8707.2
7887.68
7066.32
6300.52
5629.43
5074.17
4426.72
14067.7
11763.2
5531.19
6211.23
6520.34
6943.18
7474.64
8150.49
8858.65
9482.05
9864.79
9985.94
9999.62
10000
10000
10000
10000
10000
10000
10000
10000
10000
10000
10000
10000
10000
10000
10000
10000
9999.55
9983.66
9845.26
9412.53
8707.2
7887.68
7066.32
6300.52
5629.43
5074.17
4426.72
14067.7
)
;

boundaryField
{
    inlet
    {
        type            fixedValue;
        value           uniform 10000;
    }
    outlet
    {
        type            fixedValue;
        value           uniform 1000;
    }
    obstacle
    {
        type            zeroGradient;
    }
    empty
    {
        type            empty;
    }
}


// ************************************************************************* //
