/*--------------------------------*- C++ -*----------------------------------*\
| =========                 |                                                 |
| \\      /  F ield         | OpenFOAM: The Open Source CFD Toolbox           |
|  \\    /   O peration     | Version:  v1912                                 |
|   \\  /    A nd           | Website:  www.openfoam.com                      |
|    \\/     M anipulation  |                                                 |
\*---------------------------------------------------------------------------*/
FoamFile
{
    version     2.0;
    format      ascii;
    class       volVectorField;
    location    "1.04";
    object      U;
}
// * * * * * * * * * * * * * * * * * * * * * * * * * * * * * * * * * * * * * //

dimensions      [0 1 -1 0 0 0 0];


internalField   nonuniform List<vector> 
1900
(
(2.61775e-08 4.30541e-11 0)
(1.22489e-07 1.09818e-10 0)
(2.30391e-07 -1.5227e-10 0)
(2.6071e-07 -8.79536e-10 0)
(-2.49631e-06 -5.18028e-09 0)
(-0.000196083 -4.93335e-07 0)
(-0.00285882 -1.71141e-05 0)
(-0.0131904 -0.000227281 0)
(-0.0286012 -0.00116931 0)
(-0.0363914 -0.0056535 0)
(2.63197e-08 1.16306e-10 0)
(1.22114e-07 7.2545e-11 0)
(2.2908e-07 -9.56832e-10 0)
(2.58891e-07 -2.4853e-09 0)
(-2.50409e-06 -2.58911e-08 0)
(-0.0001969 -2.31126e-06 0)
(-0.00289238 -5.64122e-05 0)
(-0.0136109 -0.000481095 0)
(-0.0306594 -0.00198266 0)
(-0.0451987 -0.00566342 0)
(2.64236e-08 -3.68182e-14 0)
(1.21833e-07 -1.22526e-14 0)
(2.28105e-07 -4.40824e-14 0)
(2.5738e-07 -1.94269e-14 0)
(-2.59422e-06 -3.77329e-14 0)
(-0.000203317 -5.091e-15 0)
(-0.00298251 1.14596e-14 0)
(-0.0139848 -2.71263e-14 0)
(-0.0315418 -8.66417e-15 0)
(-0.0472182 -1.40784e-14 0)
(2.63196e-08 -1.16438e-10 0)
(1.22114e-07 -7.25664e-11 0)
(2.2908e-07 9.56724e-10 0)
(2.58891e-07 2.48526e-09 0)
(-2.50409e-06 2.5891e-08 0)
(-0.0001969 2.31126e-06 0)
(-0.00289238 5.64122e-05 0)
(-0.0136109 0.000481095 0)
(-0.0306594 0.00198266 0)
(-0.0451987 0.00566342 0)
(2.61773e-08 -4.31153e-11 0)
(1.22489e-07 -1.0983e-10 0)
(2.30391e-07 1.522e-10 0)
(2.6071e-07 8.79511e-10 0)
(-2.49631e-06 5.18023e-09 0)
(-0.000196083 4.93335e-07 0)
(-0.00285882 1.71141e-05 0)
(-0.0131904 0.000227281 0)
(-0.0286012 0.00116931 0)
(-0.0363914 0.0056535 0)
(-0.0434575 -0.0173065 0)
(-0.0592123 -0.025431 0)
(-0.0723317 -0.0391394 0)
(-0.0931111 -0.0523433 0)
(-0.153061 -0.0483703 0)
(-0.0561594 -0.0141607 0)
(-0.0689038 -0.0178255 0)
(-0.086736 -0.0256985 0)
(-0.119452 -0.0354034 0)
(-0.178639 -0.0336128 0)
(-0.0597213 -3.30532e-15 0)
(-0.072074 -1.46406e-14 0)
(-0.0913278 1.97158e-14 0)
(-0.126796 1.4806e-15 0)
(-0.183828 4.89638e-15 0)
(-0.0561594 0.0141607 0)
(-0.0689038 0.0178255 0)
(-0.086736 0.0256985 0)
(-0.119452 0.0354034 0)
(-0.178639 0.0336128 0)
(-0.0434575 0.0173065 0)
(-0.0592123 0.025431 0)
(-0.0723317 0.0391394 0)
(-0.0931111 0.0523433 0)
(-0.153061 0.0483703 0)
(-0.180329 0.00629266 0)
(-0.144376 0.0111206 0)
(-0.124491 0.0131042 0)
(-0.119995 0.0288772 0)
(-0.186475 0.0693954 0)
(-0.18486 0.00648178 0)
(-0.151587 0.00759362 0)
(-0.123313 0.00861961 0)
(-0.0918039 0.0249181 0)
(-0.055014 0.0840338 0)
(-0.188401 1.00985e-14 0)
(-0.154599 1.16688e-14 0)
(-0.121515 6.09619e-15 0)
(-0.0746326 3.69065e-14 0)
(0.0176844 5.31268e-14 0)
(-0.18486 -0.00648178 0)
(-0.151587 -0.00759362 0)
(-0.123313 -0.00861961 0)
(-0.0918039 -0.0249181 0)
(-0.055014 -0.0840338 0)
(-0.180329 -0.00629266 0)
(-0.144376 -0.0111206 0)
(-0.124491 -0.0131042 0)
(-0.119995 -0.0288772 0)
(-0.186475 -0.0693954 0)
(-0.369727 0.0501911 0)
(-0.118599 -0.138062 0)
(-0.18981 -0.129062 0)
(-0.243132 -0.0511211 0)
(-0.240498 -0.0173201 0)
(-0.195079 -0.00432209 0)
(-0.140608 -0.00176784 0)
(-0.0841099 -0.000939142 0)
(-0.0370923 -0.000412144 0)
(-0.00950189 -0.000103747 0)
(-0.000980312 -9.624e-06 0)
(-2.64169e-05 -2.11887e-07 0)
(-1.23284e-07 -7.08974e-10 0)
(-7.02765e-11 -2.11407e-13 0)
(-3.61676e-15 -7.84363e-18 0)
(2.23878e-16 -1.69791e-16 0)
(1.93514e-17 -8.53571e-17 0)
(-6.33812e-17 -1.18346e-16 0)
(-1.24851e-16 1.86863e-16 0)
(3.36445e-17 -5.39826e-17 0)
(4.49191e-17 6.2749e-17 0)
(6.93098e-17 -1.38186e-16 0)
(-3.30727e-17 1.4949e-16 0)
(-2.03314e-16 6.08804e-16 0)
(-7.01639e-17 -1.19961e-17 0)
(4.83491e-15 -2.30695e-17 0)
(8.96532e-11 -3.22235e-14 0)
(1.53813e-07 9.12352e-15 0)
(3.21939e-05 1.15339e-13 0)
(0.001168 -1.10551e-13 0)
(0.0111155 6.95394e-14 0)
(0.0429597 -9.55891e-14 0)
(0.0976219 1.38982e-13 0)
(0.166174 -1.05553e-13 0)
(0.241357 5.53074e-14 0)
(0.318824 -1.39437e-14 0)
(0.393011 3.97096e-14 0)
(0.456694 2.17432e-14 0)
(0.538113 3.00504e-14 0)
(1.18236 5.73753e-16 0)
(0.0762354 0.0743356 0)
(0.104621 -0.0971654 0)
(-0.0975034 -0.0837001 0)
(-0.221263 -0.0288408 0)
(-0.238823 -0.00891308 0)
(-0.196345 -0.0021915 0)
(-0.141075 -0.000763663 0)
(-0.0840153 -0.000420364 0)
(-0.0369697 -0.000204702 0)
(-0.0094572 -5.26755e-05 0)
(-0.000974442 -4.91241e-06 0)
(-2.62406e-05 -1.06253e-07 0)
(-1.22526e-07 -3.29027e-10 0)
(-6.99998e-11 -8.8471e-14 0)
(-3.59687e-15 -2.30695e-19 0)
(2.01797e-16 -2.79141e-17 0)
(5.68904e-17 0 0)
(-6.18927e-17 2.86062e-17 0)
(-1.74192e-16 3.96795e-16 0)
(2.81728e-17 1.86171e-16 0)
(6.42412e-17 1.09349e-16 0)
(1.40964e-16 2.98058e-16 0)
(-5.64015e-18 4.06484e-16 0)
(-3.29348e-16 8.28425e-16 0)
(-2.45256e-16 3.89413e-16 0)
(4.88068e-15 -1.15809e-16 0)
(8.9637e-11 -4.06071e-14 0)
(1.53814e-07 1.15126e-14 0)
(3.21939e-05 1.22123e-13 0)
(0.001168 -1.00303e-13 0)
(0.0111155 4.22632e-14 0)
(0.0429597 -8.78086e-14 0)
(0.0976219 1.19779e-13 0)
(0.166174 -8.45326e-14 0)
(0.241357 4.93812e-14 0)
(0.318824 -1.38732e-14 0)
(0.393011 2.7461e-14 0)
(0.456694 9.19268e-15 0)
(0.538113 -1.30077e-14 0)
(1.18236 -1.96693e-14 0)
(0.206434 8.88019e-14 0)
(0.186579 4.2274e-14 0)
(-0.061609 1.25027e-14 0)
(-0.214403 1.09472e-14 0)
(-0.238921 2.14622e-14 0)
(-0.196963 6.53706e-15 0)
(-0.1413 2.9453e-14 0)
(-0.0839898 -1.95944e-14 0)
(-0.0369258 -1.33745e-14 0)
(-0.00944003 4.32207e-14 0)
(-0.000972134 -2.92412e-14 0)
(-2.61718e-05 3.64983e-14 0)
(-1.22244e-07 -2.83056e-14 0)
(-6.99077e-11 1.93795e-14 0)
(-3.57654e-15 -7.08233e-17 0)
(2.53653e-16 0 0)
(5.38234e-17 0 0)
(1.53463e-18 4.0833e-17 0)
(-8.91706e-17 3.92643e-16 0)
(-5.78968e-17 2.90214e-16 0)
(6.37928e-17 2.33694e-16 0)
(1.46879e-16 5.5113e-16 0)
(-2.33832e-17 6.12264e-16 0)
(-2.74497e-16 5.91963e-16 0)
(-3.7738e-16 6.28644e-16 0)
(4.65944e-15 2.88599e-16 0)
(8.96284e-11 -2.63167e-14 0)
(1.53814e-07 3.09537e-14 0)
(3.21939e-05 9.57198e-14 0)
(0.001168 -7.01674e-14 0)
(0.0111155 6.45455e-15 0)
(0.0429597 -6.74257e-14 0)
(0.0976219 1.08134e-13 0)
(0.166174 -6.6739e-14 0)
(0.241357 2.19271e-14 0)
(0.318824 1.77465e-16 0)
(0.393011 1.83955e-14 0)
(0.456694 -3.37668e-15 0)
(0.538113 -1.37954e-14 0)
(1.18236 -3.76946e-14 0)
(0.0762354 -0.0743356 0)
(0.104621 0.0971654 0)
(-0.0975034 0.0837001 0)
(-0.221263 0.0288408 0)
(-0.238823 0.00891308 0)
(-0.196345 0.0021915 0)
(-0.141075 0.000763663 0)
(-0.0840153 0.000420364 0)
(-0.0369697 0.000204702 0)
(-0.0094572 5.26755e-05 0)
(-0.000974442 4.91241e-06 0)
(-2.62406e-05 1.06253e-07 0)
(-1.22526e-07 3.28993e-10 0)
(-7.00137e-11 1.20281e-13 0)
(-3.53966e-15 1.69099e-16 0)
(1.56034e-16 0 0)
(1.47683e-18 0 0)
(-2.10077e-17 0 0)
(4.73156e-18 1.34264e-16 0)
(-4.57809e-17 1.04505e-16 0)
(5.76059e-17 8.65106e-17 0)
(1.83004e-16 1.53181e-16 0)
(1.08267e-18 6.69015e-17 0)
(-3.09308e-16 1.96783e-16 0)
(-2.72441e-16 4.1502e-16 0)
(4.66285e-15 5.32444e-16 0)
(8.96179e-11 -1.45875e-14 0)
(1.53814e-07 2.19395e-14 0)
(3.21939e-05 5.65327e-14 0)
(0.001168 -1.63763e-14 0)
(0.0111155 -3.34179e-14 0)
(0.0429597 -5.72985e-14 0)
(0.0976219 9.39102e-14 0)
(0.166174 -6.31403e-14 0)
(0.241357 7.30696e-15 0)
(0.318824 1.46323e-14 0)
(0.393011 1.50859e-14 0)
(0.456694 -1.64917e-14 0)
(0.538113 -1.22157e-14 0)
(1.18236 -1.53973e-14 0)
(-0.369727 -0.0501911 0)
(-0.118599 0.138062 0)
(-0.18981 0.129062 0)
(-0.243132 0.0511211 0)
(-0.240498 0.0173201 0)
(-0.195079 0.00432209 0)
(-0.140608 0.00176784 0)
(-0.0841099 0.000939142 0)
(-0.0370923 0.000412144 0)
(-0.00950189 0.000103747 0)
(-0.000980312 9.624e-06 0)
(-2.64169e-05 2.11887e-07 0)
(-1.23284e-07 7.09037e-10 0)
(-7.02951e-11 2.07602e-13 0)
(-3.68251e-15 3.28279e-16 0)
(4.67575e-17 0 0)
(-7.57429e-17 0 0)
(-2.16058e-18 0 0)
(5.28456e-18 -7.61293e-17 0)
(-7.06796e-19 -7.82056e-17 0)
(5.85599e-18 0 0)
(6.12619e-17 -8.53571e-17 0)
(-4.93363e-19 -4.64619e-16 0)
(-1.32145e-16 -8.4665e-17 0)
(-1.31147e-16 1.37494e-16 0)
(4.73425e-15 3.89644e-16 0)
(8.96146e-11 -3.15268e-15 0)
(1.53814e-07 -2.59993e-16 0)
(3.21939e-05 4.11912e-14 0)
(0.001168 3.3877e-14 0)
(0.0111155 -7.68508e-14 0)
(0.0429597 -4.80441e-14 0)
(0.0976219 7.54469e-14 0)
(0.166174 -3.23374e-14 0)
(0.241357 3.60984e-15 0)
(0.318824 2.05669e-14 0)
(0.393011 -1.28938e-14 0)
(0.456694 -2.0135e-14 0)
(0.538113 -3.31183e-14 0)
(1.18236 -1.70353e-14 0)
(-1.01586 -0.0965757 0)
(-0.381361 0.15581 0)
(-0.299498 0.149323 0)
(-0.279644 0.0711539 0)
(-0.246842 0.0284022 0)
(-0.196581 0.0107581 0)
(-0.141328 0.00509198 0)
(-0.0848321 0.00231064 0)
(-0.0375995 0.000822121 0)
(-0.00968224 0.000175927 0)
(-0.00100351 1.54899e-05 0)
(-2.71294e-05 3.54948e-07 0)
(-1.2674e-07 1.37614e-09 0)
(-7.21081e-11 6.03283e-13 0)
(-3.81641e-15 2.10394e-16 0)
(1.90465e-17 1.06694e-16 0)
(-2.91297e-17 7.66081e-18 0)
(-3.92279e-17 -5.5715e-19 0)
(-2.99329e-17 -4.78452e-17 0)
(-1.23312e-18 4.57559e-17 0)
(1.45309e-17 0 0)
(1.54173e-19 -9.78494e-17 0)
(-7.71492e-19 -2.53782e-16 0)
(-6.37603e-17 -2.32749e-16 0)
(1.21048e-17 -2.20074e-17 0)
(4.6585e-15 1.39009e-16 0)
(8.96157e-11 1.73796e-15 0)
(1.53814e-07 -3.93007e-15 0)
(3.21939e-05 -2.18906e-14 0)
(0.001168 1.00818e-13 0)
(0.0111155 -1.1994e-13 0)
(0.0429597 -1.80803e-14 0)
(0.0976219 4.49662e-14 0)
(0.166174 2.79076e-14 0)
(0.241357 1.41081e-14 0)
(0.318824 3.08973e-14 0)
(0.393011 -1.04578e-14 0)
(0.456694 -2.86982e-14 0)
(0.538113 -6.30794e-16 0)
(1.18236 2.59499e-15 0)
(-1.18199 -0.0312341 0)
(-0.510964 0.113794 0)
(-0.387222 0.125852 0)
(-0.320501 0.0688596 0)
(-0.265871 0.0340765 0)
(-0.206932 0.0175808 0)
(-0.146348 0.00858038 0)
(-0.0874039 0.00358617 0)
(-0.0387588 0.00115765 0)
(-0.0100222 0.000231923 0)
(-0.00104502 1.99866e-05 0)
(-2.843e-05 4.6858e-07 0)
(-1.33519e-07 1.93607e-09 0)
(-7.62248e-11 9.93601e-13 0)
(-3.9641e-15 1.91102e-16 0)
(-7.68793e-17 2.76416e-16 0)
(-3.44321e-17 1.1526e-16 0)
(-1.0472e-16 0 0)
(-6.60111e-17 8.26671e-17 0)
(-1.10988e-18 2.31983e-16 0)
(2.62318e-17 8.54529e-17 0)
(3.41052e-19 0 0)
(3.08212e-18 -6.69276e-17 0)
(-8.185e-17 -8.05778e-17 0)
(9.53949e-18 -4.61738e-17 0)
(4.62131e-15 0 0)
(8.96202e-11 6.7085e-15 0)
(1.53814e-07 -1.43824e-14 0)
(3.21939e-05 -1.01729e-13 0)
(0.001168 1.28464e-13 0)
(0.0111155 -1.01439e-13 0)
(0.0429597 -4.23742e-14 0)
(0.0976219 -1.98991e-15 0)
(0.166174 7.07563e-14 0)
(0.241357 -3.61112e-14 0)
(0.318824 3.69854e-14 0)
(0.393011 2.96679e-14 0)
(0.456694 -2.10649e-14 0)
(0.538113 1.00849e-14 0)
(1.18236 3.43122e-14 0)
(-1.19198 0.0209949 0)
(-0.532237 0.069101 0)
(-0.422528 0.0876472 0)
(-0.349583 0.0539315 0)
(-0.285347 0.0309082 0)
(-0.219004 0.0175465 0)
(-0.152906 0.00881449 0)
(-0.0907623 0.00375693 0)
(-0.0401914 0.00121848 0)
(-0.0104187 0.000244481 0)
(-0.00109252 2.12837e-05 0)
(-2.99577e-05 5.11484e-07 0)
(-1.42021e-07 2.20077e-09 0)
(-8.19331e-11 1.16865e-12 0)
(-4.38067e-15 1.14564e-16 0)
(-1.25657e-16 9.86852e-17 0)
(-2.33721e-18 1.27169e-16 0)
(-1.10519e-16 4.70095e-17 0)
(-9.73171e-17 0 0)
(-1.61305e-18 8.27368e-17 0)
(4.06403e-17 0 0)
(3.10762e-18 1.24662e-17 0)
(6.10903e-18 1.18255e-16 0)
(-6.02584e-17 2.26342e-17 0)
(-6.35778e-18 4.61738e-17 0)
(4.53916e-15 -4.26916e-17 0)
(8.96357e-11 1.76271e-14 0)
(1.53813e-07 -2.25158e-16 0)
(3.21939e-05 -1.27017e-13 0)
(0.001168 1.21862e-13 0)
(0.0111155 -1.57053e-13 0)
(0.0429597 -9.79539e-15 0)
(0.0976219 -2.3151e-14 0)
(0.166174 9.88538e-14 0)
(0.241357 -6.31152e-14 0)
(0.318824 3.94985e-14 0)
(0.393011 6.75395e-14 0)
(0.456694 -6.65657e-15 0)
(0.538113 1.50402e-14 0)
(1.18236 7.53308e-14 0)
(-1.18978 0.0262656 0)
(-0.536062 0.0448283 0)
(-0.43865 0.0575842 0)
(-0.370225 0.0377438 0)
(-0.300788 0.0234219 0)
(-0.229059 0.0135563 0)
(-0.158799 0.0067955 0)
(-0.0938669 0.00286444 0)
(-0.0415044 0.000910928 0)
(-0.0107732 0.000178056 0)
(-0.00113418 1.50516e-05 0)
(-3.12918e-05 3.5148e-07 0)
(-1.49518e-07 1.47142e-09 0)
(-8.70438e-11 7.6071e-13 0)
(-4.69073e-15 1.54609e-17 0)
(-8.52344e-17 -8.98404e-17 0)
(1.35542e-17 -1.49734e-16 0)
(-2.59712e-17 -4.70095e-17 0)
(-3.08615e-17 0 0)
(2.67194e-17 -1.57395e-17 0)
(8.92724e-17 0 0)
(8.51567e-18 0 0)
(1.16906e-17 5.46703e-17 0)
(-7.32964e-17 0 0)
(-8.94036e-18 1.1143e-17 0)
(4.64972e-15 1.27309e-16 0)
(8.96528e-11 -2.86556e-15 0)
(1.53814e-07 3.51204e-14 0)
(3.21939e-05 -9.94395e-14 0)
(0.001168 1.81076e-13 0)
(0.0111155 -1.58674e-13 0)
(0.0429597 6.25468e-14 0)
(0.0976219 -5.90524e-14 0)
(0.166174 9.81363e-14 0)
(0.241357 -7.49242e-14 0)
(0.318824 3.05598e-14 0)
(0.393011 6.78778e-14 0)
(0.456694 -3.22645e-14 0)
(0.538113 1.89321e-14 0)
(1.18236 4.13946e-14 0)
(-1.18688 0.024994 0)
(-0.536408 0.0285134 0)
(-0.44834 0.0338738 0)
(-0.382334 0.0224923 0)
(-0.310556 0.014223 0)
(-0.235793 0.00812245 0)
(-0.162909 0.00396192 0)
(-0.096032 0.00159867 0)
(-0.0423905 0.000475708 0)
(-0.0109984 8.47175e-05 0)
(-0.00115868 6.34969e-06 0)
(-3.20156e-05 1.28737e-07 0)
(-1.53293e-07 4.34691e-10 0)
(-8.94645e-11 2.07254e-13 0)
(-4.93831e-15 -7.7792e-17 0)
(-4.9201e-18 -2.70148e-16 0)
(2.80849e-17 -4.93078e-17 0)
(3.74189e-17 6.6858e-18 0)
(-3.84926e-17 0 0)
(5.14476e-17 2.43753e-18 0)
(1.55258e-16 0 0)
(4.27391e-17 1.83163e-17 0)
(1.33508e-17 -3.79558e-17 0)
(-8.23156e-17 5.78043e-17 0)
(-7.07562e-17 5.89186e-17 0)
(4.77163e-15 2.51832e-16 0)
(8.9634e-11 -1.07639e-14 0)
(1.53814e-07 5.7734e-15 0)
(3.21939e-05 -1.37217e-14 0)
(0.001168 1.30326e-13 0)
(0.0111155 -9.43293e-14 0)
(0.0429597 6.30035e-14 0)
(0.0976219 -1.18949e-13 0)
(0.166174 6.99559e-14 0)
(0.241357 -8.20529e-14 0)
(0.318824 1.91635e-14 0)
(0.393011 5.9144e-14 0)
(0.456694 -7.11683e-14 0)
(0.538113 2.18496e-16 0)
(1.18236 2.69339e-14 0)
(-1.18449 0.0166237 0)
(-0.536586 0.0150971 0)
(-0.453756 0.0157474 0)
(-0.389051 0.0104974 0)
(-0.31591 0.00642165 0)
(-0.239482 0.00350064 0)
(-0.165128 0.00160294 0)
(-0.0971514 0.00059107 0)
(-0.0428127 0.000153883 0)
(-0.0110921 2.24203e-05 0)
(-0.00116702 1.19317e-06 0)
(-3.22048e-05 1.38702e-08 0)
(-1.54032e-07 8.67012e-11 0)
(-8.99099e-11 2.231e-13 0)
(-5.19468e-15 1.20034e-13 0)
(8.5019e-17 1.19733e-13 0)
(2.03635e-16 1.19825e-13 0)
(1.94067e-15 1.21038e-13 0)
(-6.92706e-16 1.24141e-13 0)
(7.77926e-19 1.19715e-13 0)
(-5.40359e-17 1.24053e-13 0)
(-2.52859e-15 1.19043e-13 0)
(2.25005e-15 1.18172e-13 0)
(1.33169e-16 1.2379e-13 0)
(-1.72317e-15 1.19107e-13 0)
(1.09524e-14 1.25458e-13 0)
(8.96529e-11 1.48783e-13 0)
(1.53814e-07 1.08207e-13 0)
(3.21939e-05 1.79166e-13 0)
(0.001168 2.15992e-13 0)
(0.0111155 1.55376e-13 0)
(0.0429597 1.6564e-13 0)
(0.0976219 -4.63527e-14 0)
(0.166174 1.5087e-13 0)
(0.241357 2.67048e-14 0)
(0.318824 8.14652e-14 0)
(0.393011 6.4472e-14 0)
(0.456694 -6.70171e-14 0)
(0.538113 5.63572e-15 0)
(1.18236 7.7714e-14 0)
(-1.18292 0.00735191 0)
(-0.537366 0.00527268 0)
(-0.45605 0.0046711 0)
(-0.392061 0.00311072 0)
(-0.318163 0.00177036 0)
(-0.240963 0.000896764 0)
(-0.165971 0.000369812 0)
(-0.0975401 0.000115615 0)
(-0.0429388 2.29639e-05 0)
(-0.0111135 2.31244e-06 0)
(-0.00116812 1.44951e-07 0)
(-3.22043e-05 1.9231e-09 0)
(-1.53885e-07 1.03791e-09 0)
(-8.96245e-11 1.08547e-09 0)
(-1.42358e-14 1.08564e-09 0)
(-2.35803e-14 1.08563e-09 0)
(-1.36912e-14 1.08559e-09 0)
(-4.35294e-15 1.08558e-09 0)
(-3.45654e-15 1.08557e-09 0)
(-8.41094e-16 1.08558e-09 0)
(5.4961e-16 1.08557e-09 0)
(7.09287e-15 1.08558e-09 0)
(-3.7824e-15 1.08559e-09 0)
(-4.1307e-15 1.08557e-09 0)
(-2.74986e-15 1.08558e-09 0)
(4.08878e-15 1.08556e-09 0)
(8.97401e-11 1.08565e-09 0)
(1.53814e-07 1.08573e-09 0)
(3.21939e-05 1.08548e-09 0)
(0.001168 1.08442e-09 0)
(0.0111155 1.07189e-09 0)
(0.0429597 1.01808e-09 0)
(0.0976219 8.95922e-10 0)
(0.166174 7.14139e-10 0)
(0.241357 5.13905e-10 0)
(0.318824 3.40797e-10 0)
(0.393011 2.05797e-10 0)
(0.456694 9.55428e-11 0)
(0.538113 2.10594e-11 0)
(1.18236 2.77658e-12 0)
(-1.18243 0.00150086 0)
(-0.537939 0.000852807 0)
(-0.456608 0.000618918 0)
(-0.392884 0.000413732 0)
(-0.318741 0.000217726 0)
(-0.241312 0.000108881 0)
(-0.166155 4.89611e-05 0)
(-0.0976162 2.26141e-05 0)
(-0.0429588 8.40337e-06 0)
(-0.0111155 1.62089e-06 0)
(-0.00116801 8.79479e-07 0)
(-3.21947e-05 9.3644e-07 0)
(-1.53819e-07 9.39022e-07 0)
(-8.97667e-11 9.39039e-07 0)
(9.52676e-15 9.39039e-07 0)
(-7.04767e-15 9.39039e-07 0)
(-1.6028e-14 9.39039e-07 0)
(4.78265e-14 9.39039e-07 0)
(7.82291e-14 9.39039e-07 0)
(2.56132e-14 9.39039e-07 0)
(-1.03972e-14 9.39039e-07 0)
(-6.93302e-14 9.39039e-07 0)
(-8.90863e-14 9.39039e-07 0)
(-1.96075e-15 9.39039e-07 0)
(7.8054e-14 9.39039e-07 0)
(9.63127e-14 9.39039e-07 0)
(8.96675e-11 9.39039e-07 0)
(1.53813e-07 9.39038e-07 0)
(3.21939e-05 9.39021e-07 0)
(0.00116799 9.38245e-07 0)
(0.0111154 9.29788e-07 0)
(0.0429597 8.94192e-07 0)
(0.0976219 8.1295e-07 0)
(0.166174 6.87582e-07 0)
(0.241356 5.40249e-07 0)
(0.318824 4.00304e-07 0)
(0.393011 2.75952e-07 0)
(0.456694 1.55754e-07 0)
(0.538113 4.60748e-08 0)
(1.18236 1.09552e-08 0)
(-1.18238 0.000126223 0)
(-0.538101 0.000145398 0)
(-0.456689 0.000174813 0)
(-0.393003 0.000161857 0)
(-0.318818 0.00012465 0)
(-0.241351 0.000102473 0)
(-0.166169 9.39623e-05 0)
(-0.0976182 9.73366e-05 0)
(-0.0429582 0.000104411 0)
(-0.0111151 0.000108933 0)
(-0.00116795 0.000109904 0)
(-3.21924e-05 0.000109987 0)
(-1.53803e-07 0.000109989 0)
(-8.95493e-11 0.000109989 0)
(-8.99575e-15 0.000109989 0)
(-3.60536e-14 0.000109989 0)
(-8.78544e-14 0.000109989 0)
(-4.07825e-14 0.000109989 0)
(-2.37138e-14 0.000109989 0)
(-2.90621e-14 0.000109989 0)
(1.93998e-15 0.000109989 0)
(4.47949e-14 0.000109989 0)
(5.81821e-14 0.000109989 0)
(8.74796e-15 0.000109989 0)
(-9.07101e-14 0.000109989 0)
(-4.01884e-14 0.000109989 0)
(8.96566e-11 0.000109989 0)
(1.53802e-07 0.000109989 0)
(3.21921e-05 0.000109987 0)
(0.00116794 0.000109916 0)
(0.011115 0.000109168 0)
(0.0429582 0.000106112 0)
(0.0976191 9.91755e-05 0)
(0.16617 8.82254e-05 0)
(0.241352 7.46582e-05 0)
(0.31882 6.07577e-05 0)
(0.393006 4.68992e-05 0)
(0.456691 3.15075e-05 0)
(0.538109 1.24875e-05 0)
(1.18236 4.9824e-06 0)
(-1.18233 0.000346654 0)
(-0.537979 0.000555489 0)
(-0.456606 0.00108569 0)
(-0.392887 0.00141709 0)
(-0.318715 0.00169481 0)
(-0.241253 0.00194514 0)
(-0.166085 0.00217464 0)
(-0.0975583 0.00235093 0)
(-0.0429263 0.00246257 0)
(-0.0111049 0.00251328 0)
(-0.00116658 0.00252618 0)
(-3.21436e-05 0.00252747 0)
(-1.53506e-07 0.00252751 0)
(-8.94577e-11 0.00252751 0)
(-4.97674e-14 0.00252751 0)
(3.64322e-14 0.00252751 0)
(1.41784e-13 0.00252751 0)
(1.17407e-13 0.00252751 0)
(6.32124e-14 0.00252751 0)
(4.87734e-14 0.00252751 0)
(3.20312e-14 0.00252751 0)
(5.40588e-15 0.00252751 0)
(-9.10366e-14 0.00252751 0)
(-1.33856e-13 0.00252751 0)
(-1.048e-13 0.00252751 0)
(-7.9434e-14 0.00252751 0)
(8.93765e-11 0.00252751 0)
(1.53508e-07 0.00252751 0)
(3.21438e-05 0.00252747 0)
(0.00116658 0.00252618 0)
(0.0111048 0.0025134 0)
(0.0429259 0.00246354 0)
(0.0975577 0.0023531 0)
(0.166083 0.002178 0)
(0.24125 0.00195355 0)
(0.318708 0.00171163 0)
(0.392873 0.00144552 0)
(0.456587 0.00112014 0)
(0.537961 0.000580626 0)
(1.18234 0.000345887 0)
(-1.18196 0.00536917 0)
(-0.536749 0.00680795 0)
(-0.455781 0.0105511 0)
(-0.391956 0.0122755 0)
(-0.317959 0.0136388 0)
(-0.240602 0.0147835 0)
(-0.165548 0.0158283 0)
(-0.0971791 0.0166347 0)
(-0.0427197 0.0171526 0)
(-0.0110354 0.0173975 0)
(-0.00115674 0.0174644 0)
(-3.17773e-05 0.0174716 0)
(-1.51194e-07 0.0174718 0)
(-8.79835e-11 0.0174718 0)
(-1.22573e-14 0.0174718 0)
(-4.57712e-14 0.0174718 0)
(-1.39762e-13 0.0174718 0)
(-1.15797e-13 0.0174718 0)
(-1.65935e-14 0.0174718 0)
(-2.43992e-14 0.0174718 0)
(-1.10996e-13 0.0174718 0)
(-1.71664e-13 0.0174718 0)
(-1.03424e-13 0.0174718 0)
(2.73339e-14 0.0174718 0)
(8.7103e-14 0.0174718 0)
(8.71133e-14 0.0174718 0)
(8.7851e-11 0.0174718 0)
(1.51194e-07 0.0174718 0)
(3.17774e-05 0.0174716 0)
(0.00115674 0.0174644 0)
(0.0110354 0.0173975 0)
(0.0427196 0.017153 0)
(0.0971787 0.0166359 0)
(0.165547 0.0158311 0)
(0.240599 0.0147895 0)
(0.317953 0.013649 0)
(0.391947 0.0122913 0)
(0.45577 0.010569 0)
(0.53674 0.0068202 0)
(1.18195 0.00537092 0)
(-1.17966 0.0285841 0)
(-0.53353 0.0306712 0)
(-0.453369 0.0408377 0)
(-0.389494 0.0444438 0)
(-0.315925 0.0474074 0)
(-0.238893 0.0497557 0)
(-0.164148 0.0519544 0)
(-0.0961631 0.0536772 0)
(-0.0421354 0.0548267 0)
(-0.0108253 0.0554037 0)
(-0.0011252 0.055572 0)
(-3.05564e-05 0.0555909 0)
(-1.43323e-07 0.0555915 0)
(-8.16073e-11 0.0555915 0)
(1.18666e-13 0.0555915 0)
(1.30929e-13 0.0555915 0)
(1.69161e-13 0.0555915 0)
(1.48497e-13 0.0555915 0)
(6.80518e-14 0.0555915 0)
(3.88702e-14 0.0555915 0)
(5.73138e-14 0.0555915 0)
(9.23036e-14 0.0555915 0)
(2.62519e-14 0.0555915 0)
(-2.52184e-14 0.0555915 0)
(-2.55223e-14 0.0555915 0)
(1.83426e-14 0.0555915 0)
(8.17726e-11 0.0555915 0)
(1.43324e-07 0.0555915 0)
(3.05564e-05 0.0555909 0)
(0.0011252 0.055572 0)
(0.0108253 0.0554037 0)
(0.0421354 0.0548267 0)
(0.096163 0.0536774 0)
(0.164148 0.0519552 0)
(0.238892 0.0497578 0)
(0.315923 0.0474113 0)
(0.389493 0.0444498 0)
(0.453367 0.0408442 0)
(0.53353 0.0306751 0)
(1.17966 0.0285859 0)
(-1.17316 0.0783734 0)
(-0.529655 0.0763673 0)
(-0.449401 0.0932713 0)
(-0.385764 0.0976002 0)
(-0.312654 0.101724 0)
(-0.236105 0.104907 0)
(-0.161833 0.108036 0)
(-0.0944169 0.110563 0)
(-0.0410744 0.11232 0)
(-0.0104229 0.113252 0)
(-0.00106266 0.113536 0)
(-2.81042e-05 0.113568 0)
(-1.27577e-07 0.113569 0)
(-7.01655e-11 0.113569 0)
(-4.92681e-14 0.113569 0)
(-2.1991e-14 0.113569 0)
(-2.73829e-14 0.113569 0)
(-5.92318e-14 0.113569 0)
(-4.65275e-14 0.113569 0)
(-2.11875e-14 0.113569 0)
(-1.75641e-14 0.113569 0)
(-3.4919e-14 0.113569 0)
(-3.21539e-14 0.113569 0)
(-3.43357e-14 0.113569 0)
(-9.89534e-14 0.113569 0)
(-1.35221e-13 0.113569 0)
(6.99415e-11 0.113569 0)
(1.27576e-07 0.113569 0)
(2.81042e-05 0.113568 0)
(0.00106266 0.113536 0)
(0.0104229 0.113252 0)
(0.0410744 0.11232 0)
(0.0944169 0.110563 0)
(0.161833 0.108036 0)
(0.236105 0.104907 0)
(0.312654 0.101724 0)
(0.385764 0.0976003 0)
(0.449401 0.0932713 0)
(0.529656 0.0763672 0)
(1.17316 0.0783736 0)
(-1.15942 0.14438 0)
(-0.526492 0.136122 0)
(-0.444872 0.160174 0)
(-0.381294 0.163201 0)
(-0.308666 0.168152 0)
(-0.232448 0.171703 0)
(-0.158746 0.1755 0)
(-0.0920106 0.178647 0)
(-0.0395573 0.18091 0)
(-0.00983123 0.182149 0)
(-0.000970056 0.182533 0)
(-2.45262e-05 0.182577 0)
(-1.05299e-07 0.182578 0)
(-5.42643e-11 0.182578 0)
(-2.45232e-14 0.182578 0)
(-1.0164e-14 0.182578 0)
(-2.14821e-14 0.182578 0)
(-5.27618e-14 0.182578 0)
(-2.84596e-14 0.182578 0)
(8.95077e-15 0.182578 0)
(-7.25364e-15 0.182578 0)
(-2.67916e-14 0.182578 0)
(-5.32804e-14 0.182578 0)
(-5.36998e-14 0.182578 0)
(-1.62464e-14 0.182578 0)
(3.10492e-14 0.182578 0)
(5.42908e-11 0.182578 0)
(1.053e-07 0.182578 0)
(2.45261e-05 0.182577 0)
(0.000970056 0.182533 0)
(0.00983123 0.182149 0)
(0.0395573 0.18091 0)
(0.0920106 0.178647 0)
(0.158746 0.1755 0)
(0.232448 0.171703 0)
(0.308666 0.168152 0)
(0.381294 0.163201 0)
(0.444872 0.160174 0)
(0.526492 0.136122 0)
(1.15942 0.14438 0)
(-1.14196 0.227207 0)
(-0.52375 0.202094 0)
(-0.439942 0.233773 0)
(-0.376846 0.234995 0)
(-0.304037 0.239982 0)
(-0.228357 0.244131 0)
(-0.155081 0.248319 0)
(-0.0890845 0.252 0)
(-0.0376672 0.254691 0)
(-0.00909116 0.256175 0)
(-0.000856653 0.256627 0)
(-2.03302e-05 0.256677 0)
(-8.06968e-08 0.256678 0)
(-3.79862e-11 0.256678 0)
(2.32904e-14 0.256678 0)
(5.14393e-14 0.256678 0)
(3.89689e-14 0.256678 0)
(1.73478e-14 0.256678 0)
(2.03793e-14 0.256678 0)
(3.13089e-14 0.256678 0)
(3.31996e-14 0.256678 0)
(3.99704e-14 0.256678 0)
(2.52329e-14 0.256678 0)
(-7.27383e-15 0.256678 0)
(-1.52389e-14 0.256678 0)
(-1.85945e-14 0.256678 0)
(3.7881e-11 0.256678 0)
(8.06971e-08 0.256678 0)
(2.03302e-05 0.256677 0)
(0.000856653 0.256627 0)
(0.00909116 0.256175 0)
(0.0376672 0.254691 0)
(0.0890845 0.252 0)
(0.155081 0.248319 0)
(0.228357 0.24413 0)
(0.304037 0.239982 0)
(0.376846 0.234994 0)
(0.439942 0.233773 0)
(0.52375 0.202094 0)
(1.14196 0.227207 0)
(-1.11276 0.286539 0)
(-0.522371 0.269846 0)
(-0.437141 0.313029 0)
(-0.371901 0.30792 0)
(-0.30116 0.314894 0)
(-0.224475 0.318018 0)
(-0.151757 0.322689 0)
(-0.0861662 0.326704 0)
(-0.035682 0.329838 0)
(-0.00830022 0.331575 0)
(-0.000738524 0.332086 0)
(-1.62078e-05 0.332138 0)
(-5.84081e-08 0.332139 0)
(-2.44683e-11 0.332139 0)
(3.18996e-14 0.332139 0)
(4.69782e-14 0.332139 0)
(6.25004e-14 0.332139 0)
(7.23033e-14 0.332139 0)
(5.85746e-14 0.332139 0)
(2.75832e-14 0.332139 0)
(9.75437e-15 0.332139 0)
(-4.90984e-15 0.332139 0)
(-3.28494e-14 0.332139 0)
(-6.30882e-14 0.332139 0)
(-8.18946e-14 0.332139 0)
(-6.95065e-14 0.332139 0)
(2.44561e-11 0.332139 0)
(5.84081e-08 0.332139 0)
(1.62078e-05 0.332138 0)
(0.000738524 0.332086 0)
(0.00830022 0.331575 0)
(0.035682 0.329838 0)
(0.0861662 0.326704 0)
(0.151757 0.322689 0)
(0.224475 0.318018 0)
(0.30116 0.314894 0)
(0.371901 0.30792 0)
(0.437141 0.313029 0)
(0.522371 0.269846 0)
(1.11276 0.286539 0)
(-1.09487 0.383326 0)
(-0.517247 0.333383 0)
(-0.429441 0.381462 0)
(-0.366694 0.378058 0)
(-0.294249 0.383199 0)
(-0.219562 0.38824 0)
(-0.147044 0.392867 0)
(-0.0823727 0.397336 0)
(-0.0332213 0.400896 0)
(-0.00738428 0.402953 0)
(-0.000612619 0.403558 0)
(-1.22326e-05 0.403617 0)
(-3.92681e-08 0.403618 0)
(-1.44137e-11 0.403618 0)
(-5.34871e-14 0.403618 0)
(-3.81497e-14 0.403618 0)
(-3.64284e-14 0.403618 0)
(-5.30544e-14 0.403618 0)
(-5.40399e-14 0.403618 0)
(-3.54585e-14 0.403618 0)
(-4.50518e-15 0.403618 0)
(3.2063e-14 0.403618 0)
(3.76618e-14 0.403618 0)
(4.72377e-14 0.403618 0)
(3.26032e-14 0.403618 0)
(3.90085e-16 0.403618 0)
(1.43975e-11 0.403618 0)
(3.92682e-08 0.403618 0)
(1.22326e-05 0.403617 0)
(0.000612619 0.403558 0)
(0.00738428 0.402953 0)
(0.0332213 0.400896 0)
(0.0823727 0.397336 0)
(0.147044 0.392867 0)
(0.219562 0.38824 0)
(0.294249 0.383199 0)
(0.366694 0.378058 0)
(0.429441 0.381462 0)
(0.517247 0.333383 0)
(1.09487 0.383326 0)
(-1.06263 0.398163 0)
(-0.522299 0.390218 0)
(-0.442369 0.450615 0)
(-0.370008 0.43808 0)
(-0.298559 0.445681 0)
(-0.217793 0.449149 0)
(-0.143688 0.45438 0)
(-0.0783694 0.458961 0)
(-0.0303508 0.462551 0)
(-0.00629827 0.464434 0)
(-0.000470364 0.464937 0)
(-8.16226e-06 0.464982 0)
(-2.21433e-08 0.464983 0)
(-6.73034e-12 0.464983 0)
(-5.91342e-14 0.464983 0)
(-2.56651e-15 0.464983 0)
(1.7938e-14 0.464983 0)
(1.71428e-14 0.464983 0)
(3.40273e-14 0.464983 0)
(2.72824e-14 0.464983 0)
(1.66828e-14 0.464983 0)
(9.32797e-15 0.464983 0)
(-2.51278e-14 0.464983 0)
(-3.40248e-14 0.464983 0)
(-6.18412e-14 0.464983 0)
(-8.24588e-14 0.464983 0)
(6.71251e-12 0.464983 0)
(2.21434e-08 0.464983 0)
(8.16226e-06 0.464982 0)
(0.000470364 0.464937 0)
(0.00629827 0.464434 0)
(0.0303508 0.462551 0)
(0.0783694 0.458961 0)
(0.143688 0.45438 0)
(0.217793 0.449149 0)
(0.298559 0.445681 0)
(0.370008 0.43808 0)
(0.442369 0.450615 0)
(0.522299 0.390218 0)
(1.06263 0.398163 0)
(-0.979283 0.517923 0)
(-0.473342 0.480021 0)
(-0.382644 0.530019 0)
(-0.323709 0.525406 0)
(-0.258236 0.530218 0)
(-0.18914 0.531647 0)
(-0.122248 0.534383 0)
(-0.0634273 0.537788 0)
(-0.0220783 0.541798 0)
(-0.00384668 0.544605 0)
(-0.000226929 0.545404 0)
(-2.99974e-06 0.545469 0)
(-6.12958e-09 0.54547 0)
(-1.39406e-12 0.54547 0)
(1.91905e-15 0.54547 0)
(-5.62145e-15 0.54547 0)
(-3.03192e-14 0.54547 0)
(-2.73576e-14 0.54547 0)
(-1.67484e-14 0.54547 0)
(-1.17293e-14 0.54547 0)
(3.47605e-15 0.54547 0)
(1.82867e-14 0.54547 0)
(9.08158e-15 0.54547 0)
(-8.13304e-15 0.54547 0)
(-2.2739e-14 0.54547 0)
(-2.47925e-14 0.54547 0)
(1.38889e-12 0.54547 0)
(6.12964e-09 0.54547 0)
(2.99974e-06 0.545469 0)
(0.000226929 0.545404 0)
(0.00384668 0.544605 0)
(0.0220783 0.541798 0)
(0.0634273 0.537788 0)
(0.122248 0.534383 0)
(0.18914 0.531647 0)
(0.258236 0.530218 0)
(0.323709 0.525406 0)
(0.382644 0.530019 0)
(0.473342 0.480021 0)
(0.979283 0.517923 0)
(-1.03456 1.04423 0)
(-0.510004 0.98648 0)
(-0.388245 1.06863 0)
(-0.372527 1.10287 0)
(-0.273385 1.12166 0)
(-0.210585 1.15053 0)
(-0.128214 1.16769 0)
(-0.0636581 1.18018 0)
(-0.0198304 1.18565 0)
(-0.00284705 1.18728 0)
(-0.000123208 1.18748 0)
(-1.05727e-06 1.18749 0)
(-1.2532e-09 1.18749 0)
(-1.41533e-13 1.18749 0)
(-7.21256e-15 1.18749 0)
(-6.49454e-14 1.18749 0)
(-7.97195e-14 1.18749 0)
(-6.70572e-14 1.18749 0)
(-5.7969e-14 1.18749 0)
(-2.33262e-14 1.18749 0)
(5.36471e-16 1.18749 0)
(2.87738e-14 1.18749 0)
(2.27735e-14 1.18749 0)
(9.93305e-15 1.18749 0)
(2.85699e-14 1.18749 0)
(1.72631e-15 1.18749 0)
(1.27931e-13 1.18749 0)
(1.25338e-09 1.18749 0)
(1.05727e-06 1.18749 0)
(0.000123208 1.18748 0)
(0.00284705 1.18728 0)
(0.0198304 1.18565 0)
(0.0636581 1.18018 0)
(0.128214 1.16769 0)
(0.210585 1.15053 0)
(0.273385 1.12166 0)
(0.372527 1.10287 0)
(0.388245 1.06863 0)
(0.510004 0.98648 0)
(1.03456 1.04423 0)
(-1.03456 -1.04423 0)
(-0.510004 -0.98648 0)
(-0.388245 -1.06863 0)
(-0.372527 -1.10287 0)
(-0.273385 -1.12166 0)
(-0.210585 -1.15053 0)
(-0.128214 -1.16769 0)
(-0.0636581 -1.18018 0)
(-0.0198304 -1.18565 0)
(-0.00284705 -1.18728 0)
(-0.000123208 -1.18748 0)
(-1.05727e-06 -1.18749 0)
(-1.25342e-09 -1.18749 0)
(-1.23629e-13 -1.18749 0)
(6.59956e-15 -1.18749 0)
(1.05222e-14 -1.18749 0)
(6.22342e-14 -1.18749 0)
(6.2292e-14 -1.18749 0)
(8.38753e-14 -1.18749 0)
(4.56572e-14 -1.18749 0)
(3.36333e-14 -1.18749 0)
(2.37656e-14 -1.18749 0)
(-1.58156e-15 -1.18749 0)
(-1.73022e-14 -1.18749 0)
(-3.4778e-14 -1.18749 0)
(-5.7965e-14 -1.18749 0)
(1.17039e-13 -1.18749 0)
(1.2532e-09 -1.18749 0)
(1.05727e-06 -1.18749 0)
(0.000123208 -1.18748 0)
(0.00284705 -1.18728 0)
(0.0198304 -1.18565 0)
(0.0636581 -1.18018 0)
(0.128214 -1.16769 0)
(0.210585 -1.15053 0)
(0.273385 -1.12166 0)
(0.372527 -1.10287 0)
(0.388245 -1.06863 0)
(0.510004 -0.98648 0)
(1.03456 -1.04423 0)