/*--------------------------------*- C++ -*----------------------------------*\
| =========                 |                                                 |
| \\      /  F ield         | OpenFOAM: The Open Source CFD Toolbox           |
|  \\    /   O peration     | Version:  v1912                                 |
|   \\  /    A nd           | Website:  www.openfoam.com                      |
|    \\/     M anipulation  |                                                 |
\*---------------------------------------------------------------------------*/
FoamFile
{
    version     2.0;
    format      ascii;
    class       volTensorField;
    location    "7.94";
    object      grad(U);
}
// * * * * * * * * * * * * * * * * * * * * * * * * * * * * * * * * * * * * * //

dimensions      [0 0 -1 0 0 0 0];


internalField   nonuniform List<tensor> 
1900
(
(-2.02898 -9.20781e-06 0 2.30243e-05 6.13743e-06 0 0 0 0)
(2.78948 8.18765e-06 0 1.25426e-05 5.1255e-06 0 0 0 0)
(0.241505 -7.96598e-05 0 7.40724e-06 -1.33068e-05 0 0 0 0)
(0.0266417 -0.000153844 0 -9.4569e-05 -0.000170238 0 0 0 0)
(0.0352579 -0.000201975 0 -0.000216477 -0.000383295 0 0 0 0)
(0.0234233 -0.000278112 0 -0.000333215 -0.000652794 0 0 0 0)
(0.00955041 -4.0938e-05 0 -0.000399219 -0.000718225 0 0 0 0)
(-0.00436989 0.0172689 0 -0.00142514 0.000221834 0 0 0 0)
(-0.0684366 0.0583243 0 0.00474439 0.0281986 0 0 0 0)
(-0.0574902 0.208943 0 0.0643436 0.112813 0 0 0 0)
(-2.02894 2.04707e-05 0 2.86029e-05 5.85883e-06 0 0 0 0)
(2.78947 -2.76318e-05 0 2.12092e-05 3.34899e-06 0 0 0 0)
(0.241398 -9.57039e-05 0 1.5806e-06 -2.32883e-06 0 0 0 0)
(0.0264178 -0.000216145 0 -0.000189177 8.30088e-05 0 0 0 0)
(0.0350193 -0.000280581 0 -0.000406798 0.000151515 0 0 0 0)
(0.0232405 -5.68179e-05 0 -0.000666843 0.000284984 0 0 0 0)
(0.00845848 0.000915566 0 -0.00060612 0.000429627 0 0 0 0)
(0.000773713 0.0116479 0 -0.000190469 0.000325922 0 0 0 0)
(-0.00266785 0.0542668 0 0.011408 -0.0168393 0 0 0 0)
(0.075294 0.146661 0 0.100761 -0.0579984 0 0 0 0)
(-2.02893 -5.60612e-13 0 -6.61363e-14 -2.39925e-05 0 0 0 0)
(2.78946 3.34996e-13 0 7.87402e-14 -1.6949e-05 0 0 0 0)
(0.241295 2.6023e-13 0 -9.69006e-14 3.12712e-05 0 0 0 0)
(0.0262333 -8.53468e-14 0 -1.01779e-13 0.000174459 0 0 0 0)
(0.0347803 2.80554e-14 0 -2.45301e-14 0.00046356 0 0 0 0)
(0.0232239 1.56166e-13 0 4.16063e-14 0.00073562 0 0 0 0)
(0.0100268 7.81795e-14 0 -3.79471e-15 0.000577196 0 0 0 0)
(0.00764421 -9.14283e-14 0 -6.6814e-14 -0.00109551 0 0 0 0)
(0.0325152 -1.13888e-13 0 7.72494e-15 -0.0227186 0 0 0 0)
(0.125675 -4.85634e-14 0 3.37458e-14 -0.109629 0 0 0 0)
(-2.02894 -2.04707e-05 0 -2.86029e-05 5.85883e-06 0 0 0 0)
(2.78947 2.76318e-05 0 -2.12092e-05 3.34899e-06 0 0 0 0)
(0.241398 9.57039e-05 0 -1.5806e-06 -2.32883e-06 0 0 0 0)
(0.0264178 0.000216145 0 0.000189177 8.30088e-05 0 0 0 0)
(0.0350193 0.000280581 0 0.000406798 0.000151515 0 0 0 0)
(0.0232405 5.68179e-05 0 0.000666843 0.000284984 0 0 0 0)
(0.00845848 -0.000915566 0 0.00060612 0.000429627 0 0 0 0)
(0.000773713 -0.0116479 0 0.000190469 0.000325922 0 0 0 0)
(-0.00266785 -0.0542668 0 -0.011408 -0.0168393 0 0 0 0)
(0.075294 -0.146661 0 -0.100761 -0.0579984 0 0 0 0)
(-2.02898 9.20781e-06 0 -2.30243e-05 6.13743e-06 0 0 0 0)
(2.78948 -8.18765e-06 0 -1.25426e-05 5.1255e-06 0 0 0 0)
(0.241505 7.96598e-05 0 -7.40724e-06 -1.33068e-05 0 0 0 0)
(0.0266417 0.000153844 0 9.4569e-05 -0.000170238 0 0 0 0)
(0.0352579 0.000201975 0 0.000216477 -0.000383295 0 0 0 0)
(0.0234233 0.000278112 0 0.000333215 -0.000652794 0 0 0 0)
(0.00955041 4.0938e-05 0 0.000399219 -0.000718225 0 0 0 0)
(-0.00436989 -0.0172689 0 0.00142514 0.000221834 0 0 0 0)
(-0.0684366 -0.0583243 0 -0.00474439 0.0281986 0 0 0 0)
(-0.0574902 -0.208943 0 -0.0643436 0.112813 0 0 0 0)
(0.152744 0.440125 -2.40634e-17 0.266053 -0.258756 3.60951e-17 5.9237e-17 7.88953e-17 -6.52239e-33)
(0.504194 0.598608 0 0.307038 -0.491586 0 -1.66118e-16 -4.78364e-17 0)
(0.784968 0.998889 0 0.295634 -0.81788 0 -2.67605e-16 -8.67005e-17 0)
(1.47418 1.60898 0 0.339834 -1.47592 0 0 0 0)
(2.76139 1.87768 2.75288e-16 1.1375 -3.55452 -4.12931e-16 -2.29965e-15 -1.5331e-15 -7.46169e-32)
(0.214266 0.164057 0 0.190212 -0.207355 0 1.07313e-16 3.2138e-17 0)
(0.405013 0.177293 0 0.136219 -0.340034 0 1.66118e-16 4.78364e-17 0)
(0.738716 0.424465 0 0.0453577 -0.635352 0 2.67605e-16 8.67005e-17 0)
(1.6769 0.861105 0 -0.0844582 -1.3355 0 0 0 0)
(3.69454 0.57415 0 -0.197612 -3.09952 0 0 0 0)
(0.266152 -1.80812e-13 0 8.44578e-14 -0.296699 0 0 0 0)
(0.426794 2.87127e-14 0 7.93536e-14 -0.378843 0 0 0 0)
(0.733664 9.48912e-14 0 2.9025e-13 -0.648506 0 0 0 0)
(1.57643 -1.13451e-13 0 1.40659e-13 -1.37759 0 0 0 0)
(3.43569 1.02708e-13 0 3.5172e-13 -3.66034 0 0 0 0)
(0.214266 -0.164057 0 -0.190212 -0.207355 0 1.07313e-16 -3.2138e-17 0)
(0.405013 -0.177293 0 -0.136219 -0.340034 0 1.66118e-16 -4.78364e-17 0)
(0.738716 -0.424465 0 -0.0453577 -0.635352 0 2.67605e-16 -8.67005e-17 0)
(1.6769 -0.861105 0 0.0844582 -1.3355 0 0 0 0)
(3.69454 -0.57415 0 0.197612 -3.09952 0 0 0 0)
(0.152744 -0.440125 2.40634e-17 -0.266053 -0.258756 3.60951e-17 -2.73863e-16 1.43171e-16 -6.52239e-33)
(0.504194 -0.598608 0 -0.307038 -0.491586 0 -1.66118e-16 4.78364e-17 0)
(0.784968 -0.998889 0 -0.295634 -0.81788 0 -2.67605e-16 8.67005e-17 0)
(1.47418 -1.60898 9.98937e-17 -0.339834 -1.47592 1.49841e-16 -9.48736e-16 6.32491e-16 -2.70762e-32)
(2.76139 -1.87768 -2.75288e-16 -1.1375 -3.55452 -4.12931e-16 2.29965e-15 -1.5331e-15 -7.46169e-32)
(4.18421 -0.781718 -1.87013e-17 -0.00396773 4.50572 -1.68312e-16 2.27785e-15 -1.1741e-16 5.069e-33)
(2.2943 -0.313026 8.99889e-18 0.545964 2.76357 8.099e-17 -2.55392e-15 1.98712e-16 2.43915e-33)
(1.36083 0.000491806 0 0.732836 2.25466 0 0 0 0)
(1.02584 0.0794187 -5.29598e-18 0.665845 2.09789 -4.76638e-17 2.38431e-15 -1.99513e-16 1.43548e-33)
(0.710676 0.545391 4.54789e-18 0.470135 1.70941 4.0931e-17 -1.12893e-15 1.25436e-16 1.23271e-33)
(4.3161 -0.952019 0 -0.715844 -0.69327 0 -1.13886e-15 -9.14367e-18 0)
(2.58501 -0.202314 0 0.323333 0.995805 0 1.28518e-15 -5.7741e-17 0)
(1.44573 -0.0127769 0 0.449815 1.38527 0 0 0 0)
(0.960377 -0.0665369 0 0.36651 1.38932 0 -1.50548e-15 7.47468e-17 0)
(0.555788 0.224116 0 0.145081 1.40296 0 2.86864e-16 -7.92544e-18 0)
(4.31664 4.47941e-14 0 4.92819e-14 0.779325 0 0 0 0)
(2.56212 3.05647e-14 0 1.01934e-13 1.84287 0 0 0 0)
(1.34143 -8.73699e-14 0 1.60623e-14 1.97123 0 0 0 0)
(0.876889 2.28972e-13 0 2.55106e-13 1.74813 0 6.06609e-16 -3.95212e-30 0)
(0.554965 -9.66872e-14 0 -5.95994e-13 2.10526 0 -5.73727e-16 -1.32412e-29 0)
(4.3161 0.952019 0 0.715844 -0.69327 0 -1.13886e-15 9.14367e-18 0)
(2.58501 0.202314 0 -0.323333 0.995805 0 1.28518e-15 5.7741e-17 0)
(1.44573 0.0127769 0 -0.449815 1.38527 0 0 0 0)
(0.960377 0.0665369 0 -0.36651 1.38932 0 -1.50548e-15 -7.47468e-17 0)
(0.555788 -0.224116 0 -0.145081 1.40296 0 2.86864e-16 7.92544e-18 0)
(4.18421 0.781718 0 0.00396773 4.50572 0 1.13886e-15 -9.14367e-18 0)
(2.2943 0.313026 -8.99889e-18 -0.545964 2.76357 8.099e-17 -1.64427e-17 8.32298e-17 2.43915e-33)
(1.36083 -0.000491806 0 -0.732836 2.25466 0 0 0 0)
(1.02584 -0.0794187 5.29598e-18 -0.665845 2.09789 -4.76638e-17 2.00531e-17 -6.31816e-17 1.43548e-33)
(0.710676 -0.545391 -4.54789e-18 -0.470135 1.70941 4.0931e-17 1.12893e-15 1.25436e-16 1.23271e-33)
(0.329636 0.565361 0 -0.460372 -0.429295 0 0 0 0)
(0.196996 0.0842615 0 -0.823187 -0.147212 0 0 0 0)
(0.113213 -0.133128 0 -0.819769 0.0839914 0 0 0 0)
(0.125342 -0.127726 0 -0.733751 0.151434 0 0 0 0)
(0.133375 -0.0639263 0 -0.608462 0.0950496 0 0 0 0)
(0.185494 -0.0460846 0 -0.463463 0.0422484 0 0 0 0)
(0.243303 0.00844379 0 -0.275443 0.216788 0 0 0 0)
(0.0923536 0.103401 0 -0.147816 0.238255 0 0 0 0)
(-0.347602 0.157254 0 -0.0317076 -0.017591 0 0 0 0)
(-1.28027 0.0220674 0 0.0355975 -0.122774 0 0 0 0)
(-1.25068 -0.10947 0 0.377115 0.0560544 0 0 0 0)
(-0.367848 -0.0809967 0 0.16308 0.120142 0 0 0 0)
(-0.183119 -0.111587 0 0.175437 0.291901 0 0 0 0)
(-0.355898 -0.127589 0 0.0701874 0.529084 0 0 0 0)
(-0.609251 -0.0935455 0 0.0369896 0.763464 0 0 0 0)
(-0.72855 -0.00120004 0 0.0313717 0.866818 0 0 0 0)
(-0.734588 0.0675975 0 0.0775744 0.79451 0 0 0 0)
(-0.687452 0.0694328 0 0.144904 0.646219 0 0 0 0)
(-0.648494 0.0628242 0 0.119248 0.49679 0 0 0 0)
(-0.699142 0.0605885 0 0.0748428 0.358488 0 0 0 0)
(-0.9093 0.0498077 0 0.0781095 0.295669 0 0 0 0)
(-1.06395 0.0388672 0 0.0749924 0.226615 0 0 0 0)
(-0.737202 0.0233147 0 0.0338761 0.160737 0 0 0 0)
(-0.221208 0.00744047 0 0.00595534 0.137366 0 0 0 0)
(-0.00833927 0.00188451 0 0.00266902 0.132879 0 0 0 0)
(0.0205144 0.0012774 0 0.0027163 0.130836 0 0 0 0)
(0.0281152 0.00128309 0 0.00212054 0.128935 0 0 0 0)
(0.046952 0.000253092 0 0.00172835 0.126918 0 0 0 0)
(0.0739418 -0.000206114 0 0.00149813 0.127996 0 0 0 0)
(0.0373365 -0.000894784 0 0.00157208 0.127486 0 0 0 0)
(-0.349522 -0.00138894 0 0.00182855 0.130965 0 0 0 0)
(-0.988419 -0.0012168 0 0.00107656 0.132759 0 0 0 0)
(-0.953035 -0.00101905 0 0.00269739 0.136244 0 0 0 0)
(-0.410625 -0.000248593 0 0.00662568 0.137105 0 0 0 0)
(-0.173884 0.000608483 0 0.0105046 0.13755 0 0 0 0)
(-0.138055 -0.00225666 0 0.0131121 0.13546 0 0 0 0)
(-0.121808 -0.00719155 0 0.0133106 0.142746 0 0 0 0)
(-0.110445 -0.0114312 0 -0.00216845 0.149187 0 0 0 0)
(-0.134406 0.00425669 0 -0.0347353 0.171763 0 0 0 0)
(-0.0785031 0.0114668 0 -0.0490778 0.139837 0 0 0 0)
(0.0925806 0.422019 0 0.0410985 0.141756 0 0 0 0)
(0.0316399 0.157632 0 -0.506313 -0.35187 0 0 0 0)
(0.114117 -0.0395259 0 -0.752915 -0.147893 0 0 0 0)
(0.152345 -0.141997 0 -0.575836 0.105759 0 0 0 0)
(0.168546 -0.137529 0 -0.607364 0.291165 0 0 0 0)
(0.234964 -0.0749298 0 -0.510788 0.325505 0 0 0 0)
(0.28009 0.00664293 0 -0.358912 0.44958 0 0 0 0)
(0.113949 0.0684999 0 -0.329997 0.29648 0 0 0 0)
(-0.349394 0.134958 0 -0.269067 0.0941389 0 0 0 0)
(-1.20566 0.0490788 0 -0.339514 -0.244082 0 0 0 0)
(-1.18005 -0.0735445 0 0.0687434 0.018282 0 0 0 0)
(-0.37053 -0.0397128 0 -0.00569263 0.132222 0 0 0 0)
(-0.192475 -0.0475 0 0.0872103 0.296708 0 0 0 0)
(-0.401877 -0.0614051 0 -0.014065 0.515802 0 0 0 0)
(-0.629468 -0.0435189 0 -0.0521079 0.735295 0 0 0 0)
(-0.699524 0.00309226 0 0.00834837 0.837364 0 0 0 0)
(-0.667682 0.0357473 0 0.162316 0.73942 0 0 0 0)
(-0.648784 0.0294601 0 0.291829 0.604998 0 0 0 0)
(-0.663033 0.0169972 0 0.30106 0.500744 0 0 0 0)
(-0.724323 0.0280464 0 0.174255 0.38904 0 0 0 0)
(-0.926617 0.0357124 0 0.0484786 0.292471 0 0 0 0)
(-1.08129 0.022334 0 0.0162278 0.217826 0 0 0 0)
(-0.749735 0.010056 0 0.0106069 0.158865 0 0 0 0)
(-0.224828 0.0029279 0 0.00286669 0.137681 0 0 0 0)
(-0.00844275 0.000925245 0 0.0016095 0.133289 0 0 0 0)
(0.0205833 0.000646969 0 0.00181453 0.131203 0 0 0 0)
(0.0281242 0.000653914 0 0.00143218 0.128898 0 0 0 0)
(0.0470262 0.000126246 0 0.00135034 0.126793 0 0 0 0)
(0.0740592 -0.000108147 0 0.00149595 0.128028 0 0 0 0)
(0.0375364 -0.000451915 0 0.00180531 0.127501 0 0 0 0)
(-0.349218 -0.000655356 0 0.00228503 0.131103 0 0 0 0)
(-0.987712 -0.000528329 0 0.00274034 0.132276 0 0 0 0)
(-0.951651 -0.000442928 0 0.00482441 0.135286 0 0 0 0)
(-0.408796 -0.000125078 0 0.0093295 0.135779 0 0 0 0)
(-0.172112 0.000226916 0 0.0151191 0.136141 0 0 0 0)
(-0.137219 -0.00128075 0 0.0206637 0.133687 0 0 0 0)
(-0.124696 -0.00386762 0 0.0236923 0.143898 0 0 0 0)
(-0.118579 -0.00586261 0 0.015389 0.158408 0 0 0 0)
(-0.141627 0.00233223 0 -0.00321821 0.183193 0 0 0 0)
(-0.0805159 0.00591959 0 -0.0119687 0.143776 0 0 0 0)
(0.136137 -5.22704e-13 0 1.18277e-13 0.429236 0 0 0 0)
(-0.0339897 -2.15806e-13 0 1.81357e-13 -0.560155 0 0 0 0)
(0.0929886 -4.18946e-14 0 4.0214e-13 -0.654484 0 0 0 0)
(0.167684 9.30835e-14 0 4.88877e-13 -0.288414 0 0 0 0)
(0.152298 1.85328e-13 0 7.412e-13 0.321742 0 0 0 0)
(0.257771 2.69896e-13 0 8.04281e-13 0.657097 0 0 0 0)
(0.295897 -4.97681e-14 0 6.07153e-13 0.836885 0 0 0 0)
(0.11849 -3.07788e-13 0 3.94255e-13 0.611427 0 0 0 0)
(-0.35037 5.48829e-13 0 5.75613e-13 0.365948 0 0 0 0)
(-1.18199 1.17844e-12 0 2.64151e-12 -0.316409 0 0 0 0)
(-1.15357 3.80665e-13 0 1.31287e-12 0.0285308 0 0 0 0)
(-0.362475 -1.3494e-12 0 2.60209e-13 0.18921 0 0 0 0)
(-0.185555 -3.06539e-12 0 1.9082e-12 0.301556 0 0 0 0)
(-0.396426 -1.6707e-12 0 -2.44438e-13 0.515772 0 0 0 0)
(-0.602731 2.06682e-12 0 -2.49169e-12 0.723716 0 0 0 0)
(-0.666172 4.88862e-12 0 -2.39313e-12 0.814964 0 0 0 0)
(-0.652121 4.17126e-12 0 1.93185e-13 0.702457 0 0 0 0)
(-0.64709 -3.71254e-14 0 1.93579e-12 0.569201 0 0 0 0)
(-0.682697 -6.0579e-12 0 9.98255e-12 0.499919 0 0 0 0)
(-0.77262 -7.41439e-12 0 2.24903e-11 0.452345 0 0 0 0)
(-0.955271 -1.19972e-12 0 1.93264e-11 0.3071 0 0 0 0)
(-1.07496 6.91588e-12 0 -3.46353e-12 0.206823 0 0 0 0)
(-0.741089 6.74723e-12 0 -1.83782e-11 0.153554 0 0 0 0)
(-0.223826 -1.1482e-14 0 -2.01218e-12 0.137688 0 0 0 0)
(-0.00864536 -2.1696e-12 0 1.33367e-11 0.133424 0 0 0 0)
(0.0204628 -2.90783e-12 0 1.63769e-11 0.131327 0 0 0 0)
(0.0279802 -4.85596e-12 0 1.13501e-11 0.128976 0 0 0 0)
(0.0469705 -2.55952e-12 0 -7.92158e-12 0.126831 0 0 0 0)
(0.0740741 2.69288e-12 0 -3.25364e-11 0.128109 0 0 0 0)
(0.037566 1.92332e-12 0 -4.77e-11 0.127575 0 0 0 0)
(-0.34925 -2.05612e-13 0 -5.09358e-11 0.131215 0 0 0 0)
(-0.98768 2.28577e-12 0 -5.22512e-11 0.13208 0 0 0 0)
(-0.951119 2.99525e-12 0 -2.87087e-11 0.134848 0 0 0 0)
(-0.40763 -3.39759e-13 0 -3.64735e-12 0.135125 0 0 0 0)
(-0.170587 -9.9154e-13 0 5.1746e-13 0.135708 0 0 0 0)
(-0.135561 1.11651e-12 0 -2.35765e-12 0.133565 0 0 0 0)
(-0.123342 -1.16773e-12 0 1.77908e-12 0.144513 0 0 0 0)
(-0.118274 -3.42658e-12 0 7.44157e-12 0.160155 0 0 0 0)
(-0.142365 1.88387e-14 0 6.47367e-12 0.184818 0 0 0 0)
(-0.0810487 1.43309e-12 0 2.93129e-12 0.144121 0 0 0 0)
(0.0925806 -0.422019 0 -0.0410985 0.141756 0 0 0 0)
(0.0316399 -0.157632 0 0.506313 -0.35187 0 0 0 0)
(0.114117 0.0395259 0 0.752915 -0.147893 0 0 0 0)
(0.152345 0.141997 0 0.575836 0.105759 0 0 0 0)
(0.168546 0.137529 0 0.607364 0.291165 0 0 0 0)
(0.234964 0.0749298 0 0.510788 0.325505 0 0 0 0)
(0.28009 -0.00664293 0 0.358912 0.44958 0 0 0 0)
(0.113949 -0.0684999 0 0.329997 0.29648 0 0 0 0)
(-0.349394 -0.134958 0 0.269067 0.0941389 0 0 0 0)
(-1.20566 -0.0490788 0 0.339514 -0.244082 0 0 0 0)
(-1.18005 0.0735445 0 -0.0687434 0.018282 0 0 0 0)
(-0.37053 0.0397128 0 0.00569263 0.132222 0 0 0 0)
(-0.192475 0.0475 0 -0.0872103 0.296708 0 0 0 0)
(-0.401877 0.0614051 0 0.014065 0.515802 0 0 0 0)
(-0.629468 0.0435189 0 0.0521079 0.735295 0 0 0 0)
(-0.699524 -0.00309226 0 -0.00834837 0.837364 0 0 0 0)
(-0.667682 -0.0357473 0 -0.162316 0.73942 0 0 0 0)
(-0.648784 -0.0294601 0 -0.291829 0.604998 0 0 0 0)
(-0.663033 -0.0169972 0 -0.30106 0.500744 0 0 0 0)
(-0.724323 -0.0280464 0 -0.174255 0.38904 0 0 0 0)
(-0.926617 -0.0357124 0 -0.0484786 0.292471 0 0 0 0)
(-1.08129 -0.022334 0 -0.0162278 0.217826 0 0 0 0)
(-0.749735 -0.010056 0 -0.0106069 0.158865 0 0 0 0)
(-0.224828 -0.0029279 0 -0.00286669 0.137681 0 0 0 0)
(-0.00844275 -0.000925245 0 -0.0016095 0.133289 0 0 0 0)
(0.0205833 -0.000646969 0 -0.00181453 0.131203 0 0 0 0)
(0.0281242 -0.000653914 0 -0.00143218 0.128898 0 0 0 0)
(0.0470262 -0.000126246 0 -0.00135034 0.126793 0 0 0 0)
(0.0740592 0.000108147 0 -0.00149595 0.128028 0 0 0 0)
(0.0375364 0.000451915 0 -0.00180531 0.127501 0 0 0 0)
(-0.349218 0.000655356 0 -0.00228503 0.131103 0 0 0 0)
(-0.987712 0.000528329 0 -0.00274034 0.132276 0 0 0 0)
(-0.951651 0.000442928 0 -0.00482441 0.135286 0 0 0 0)
(-0.408796 0.000125078 0 -0.0093295 0.135779 0 0 0 0)
(-0.172112 -0.000226916 0 -0.0151191 0.136141 0 0 0 0)
(-0.137219 0.00128075 0 -0.0206637 0.133687 0 0 0 0)
(-0.124696 0.00386762 0 -0.0236923 0.143898 0 0 0 0)
(-0.118579 0.00586261 0 -0.015389 0.158408 0 0 0 0)
(-0.141627 -0.00233223 0 0.00321821 0.183193 0 0 0 0)
(-0.0805159 -0.00591959 0 0.0119687 0.143776 0 0 0 0)
(0.329636 -0.565361 0 0.460372 -0.429295 0 0 0 0)
(0.196996 -0.0842615 0 0.823187 -0.147212 0 0 0 0)
(0.113213 0.133128 0 0.819769 0.0839914 0 0 0 0)
(0.125342 0.127726 0 0.733751 0.151434 0 0 0 0)
(0.133375 0.0639263 0 0.608462 0.0950496 0 0 0 0)
(0.185494 0.0460846 0 0.463463 0.0422484 0 0 0 0)
(0.243303 -0.00844379 0 0.275443 0.216788 0 0 0 0)
(0.0923536 -0.103401 0 0.147816 0.238255 0 0 0 0)
(-0.347602 -0.157254 0 0.0317076 -0.017591 0 0 0 0)
(-1.28027 -0.0220674 0 -0.0355975 -0.122774 0 0 0 0)
(-1.25068 0.10947 0 -0.377115 0.0560544 0 0 0 0)
(-0.367848 0.0809967 0 -0.16308 0.120142 0 0 0 0)
(-0.183119 0.111587 0 -0.175437 0.291901 0 0 0 0)
(-0.355898 0.127589 0 -0.0701874 0.529084 0 0 0 0)
(-0.609251 0.0935455 0 -0.0369896 0.763464 0 0 0 0)
(-0.72855 0.00120004 0 -0.0313717 0.866818 0 0 0 0)
(-0.734588 -0.0675975 0 -0.0775744 0.79451 0 0 0 0)
(-0.687452 -0.0694328 0 -0.144904 0.646219 0 0 0 0)
(-0.648494 -0.0628242 0 -0.119248 0.49679 0 0 0 0)
(-0.699142 -0.0605885 0 -0.0748428 0.358488 0 0 0 0)
(-0.9093 -0.0498077 0 -0.0781095 0.295669 0 0 0 0)
(-1.06395 -0.0388672 0 -0.0749924 0.226615 0 0 0 0)
(-0.737202 -0.0233147 0 -0.0338761 0.160737 0 0 0 0)
(-0.221208 -0.00744047 0 -0.00595534 0.137366 0 0 0 0)
(-0.00833927 -0.00188451 0 -0.00266902 0.132879 0 0 0 0)
(0.0205144 -0.0012774 0 -0.0027163 0.130836 0 0 0 0)
(0.0281152 -0.00128309 0 -0.00212054 0.128935 0 0 0 0)
(0.046952 -0.000253092 0 -0.00172835 0.126918 0 0 0 0)
(0.0739418 0.000206114 0 -0.00149813 0.127996 0 0 0 0)
(0.0373365 0.000894784 0 -0.00157208 0.127486 0 0 0 0)
(-0.349522 0.00138894 0 -0.00182855 0.130965 0 0 0 0)
(-0.988419 0.0012168 0 -0.00107656 0.132759 0 0 0 0)
(-0.953035 0.00101905 0 -0.00269739 0.136244 0 0 0 0)
(-0.410625 0.000248593 0 -0.00662568 0.137105 0 0 0 0)
(-0.173884 -0.000608483 0 -0.0105046 0.13755 0 0 0 0)
(-0.138055 0.00225666 0 -0.0131121 0.13546 0 0 0 0)
(-0.121808 0.00719155 0 -0.0133106 0.142746 0 0 0 0)
(-0.110445 0.0114312 0 0.00216845 0.149187 0 0 0 0)
(-0.134406 -0.00425669 0 0.0347353 0.171763 0 0 0 0)
(-0.0785031 -0.0114668 0 0.0490778 0.139837 0 0 0 0)
(0.0389076 0.0326716 0 0.685128 0.16973 0 0 0 0)
(0.0658874 0.0795039 0 0.485091 0.398722 0 0 0 0)
(0.0590601 0.118631 0 0.42094 0.236596 0 0 0 0)
(0.0510205 0.165433 0 0.335853 0.198238 0 0 0 0)
(0.0396684 0.154143 0 0.234351 0.139823 0 0 0 0)
(0.0832705 0.184645 0 0.122126 0.150518 0 0 0 0)
(0.124628 0.118389 0 -0.0153129 0.346202 0 0 0 0)
(-0.0139691 -0.175165 0 -0.231897 0.347186 0 0 0 0)
(-0.466516 -0.335641 0 -0.328319 0.175051 0 0 0 0)
(-1.37585 -0.034115 0 -0.629851 0.139759 0 0 0 0)
(-1.17835 0.18438 0 -0.498906 0.117625 0 0 0 0)
(-0.247124 0.139919 0 -0.311168 0.130905 0 0 0 0)
(-0.145025 0.229918 0 -0.306679 0.231961 0 0 0 0)
(-0.368197 0.280679 0 -0.340332 0.501294 0 0 0 0)
(-0.628496 0.197527 0 -0.396501 0.747694 0 0 0 0)
(-0.691422 0.0114192 0 -0.361982 0.820071 0 0 0 0)
(-0.661538 -0.137296 0 -0.245768 0.763599 0 0 0 0)
(-0.630216 -0.169993 0 -0.134406 0.635715 0 0 0 0)
(-0.635897 -0.144496 0 -0.0729832 0.493624 0 0 0 0)
(-0.727634 -0.116577 0 -0.0656333 0.387065 0 0 0 0)
(-0.946734 -0.102135 0 -0.086022 0.300633 0 0 0 0)
(-1.07359 -0.0878567 0 -0.0971694 0.213945 0 0 0 0)
(-0.720921 -0.0507089 0 -0.0519899 0.153973 0 0 0 0)
(-0.209439 -0.0151852 0 -0.0100737 0.136358 0 0 0 0)
(-0.00653063 -0.00391206 0 -0.0037464 0.132306 0 0 0 0)
(0.021007 -0.00239166 0 -0.0028995 0.13026 0 0 0 0)
(0.0287543 -0.00238403 0 -0.00162256 0.129037 0 0 0 0)
(0.0475023 -0.000568963 0 -8.89921e-05 0.127126 0 0 0 0)
(0.0742929 0.000350917 0 0.00115594 0.128062 0 0 0 0)
(0.0375603 0.00180251 0 0.00170152 0.127513 0 0 0 0)
(-0.348556 0.00311477 0 0.00218194 0.130783 0 0 0 0)
(-0.98744 0.00304359 0 0.0057181 0.132597 0 0 0 0)
(-0.95353 0.00250305 0 0.0065759 0.136007 0 0 0 0)
(-0.411579 0.000801273 0 0.00447558 0.13701 0 0 0 0)
(-0.174132 -0.000817536 0 0.00342043 0.137799 0 0 0 0)
(-0.138012 0.00341225 0 0.00315041 0.136624 0 0 0 0)
(-0.11845 0.00863471 0 0.00258085 0.142239 0 0 0 0)
(-0.0978453 0.0176255 0 0.00835434 0.13862 0 0 0 0)
(-0.120552 -0.00597198 0 0.0306192 0.158656 0 0 0 0)
(-0.0738467 -0.0195321 0 0.0395935 0.138907 0 0 0 0)
(0.0074619 -0.017458 0 0.104862 0.875884 0 0 0 0)
(0.0127192 -0.107643 0 0.0272376 0.852524 0 0 0 0)
(-0.00155834 -0.0522909 0 -0.0082193 0.742331 0 0 0 0)
(-0.0146081 0.0142518 0 -0.0371869 0.66471 0 0 0 0)
(-0.0223321 -0.0304351 0 -0.0297552 0.517531 0 0 0 0)
(-0.00027511 0.170658 0 -0.0358401 0.437864 0 0 0 0)
(-0.0342085 0.11306 0 -0.110336 0.415564 0 0 0 0)
(-0.152257 -0.229847 0 -0.273371 0.236767 0 0 0 0)
(-0.667319 -0.261482 0 -0.359842 0.218549 0 0 0 0)
(-1.3934 -0.0709448 0 -0.642282 0.338417 0 0 0 0)
(-0.982374 0.0607698 0 -0.19191 0.207337 0 0 0 0)
(-0.247347 0.159579 0 -0.238728 0.229615 0 0 0 0)
(-0.23165 0.405054 0 -0.406081 0.351997 0 0 0 0)
(-0.435858 0.542476 0 -0.599161 0.595273 0 0 0 0)
(-0.619794 0.344973 0 -0.676904 0.731898 0 0 0 0)
(-0.603207 0.0110472 0 -0.594541 0.69655 0 0 0 0)
(-0.554461 -0.207876 0 -0.457191 0.623129 0 0 0 0)
(-0.551643 -0.275667 0 -0.340695 0.533808 0 0 0 0)
(-0.588976 -0.258637 0 -0.268895 0.433926 0 0 0 0)
(-0.696428 -0.216539 0 -0.222557 0.345067 0 0 0 0)
(-0.919616 -0.188573 0 -0.193323 0.265313 0 0 0 0)
(-1.02598 -0.153925 0 -0.163513 0.191012 0 0 0 0)
(-0.662004 -0.0833908 0 -0.075762 0.146122 0 0 0 0)
(-0.18103 -0.024166 0 -0.0144898 0.134385 0 0 0 0)
(-0.00239581 -0.00667392 0 -0.00546938 0.131139 0 0 0 0)
(0.0222969 -0.00383026 0 -0.00430364 0.129222 0 0 0 0)
(0.0304808 -0.00371252 0 -0.00258807 0.128449 0 0 0 0)
(0.0493343 -0.00102271 0 -0.00011964 0.126628 0 0 0 0)
(0.0754789 0.000501455 0 0.00206264 0.127498 0 0 0 0)
(0.0382051 0.00302914 0 0.00304978 0.12688 0 0 0 0)
(-0.34617 0.00536206 0 0.00378439 0.129759 0 0 0 0)
(-0.984709 0.0052714 0 0.00884976 0.131098 0 0 0 0)
(-0.953968 0.00447605 0 0.0108453 0.133588 0 0 0 0)
(-0.413154 0.00167921 0 0.00850674 0.134476 0 0 0 0)
(-0.175029 -0.0008687 0 0.00746853 0.135901 0 0 0 0)
(-0.138888 0.00591571 0 0.00538002 0.135376 0 0 0 0)
(-0.118593 0.00834104 0 0.00454846 0.143391 0 0 0 0)
(-0.0901827 0.0239296 0 0.00296755 0.133802 0 0 0 0)
(-0.111732 -0.00306002 0 0.0152211 0.150245 0 0 0 0)
(-0.072352 -0.0261728 0 0.0183391 0.140022 0 0 0 0)
(-0.0358942 0.0101618 0 -0.256044 0.560076 0 0 0 0)
(-0.0430821 -0.0491926 0 -0.247533 0.552476 0 0 0 0)
(-0.00302175 -0.062354 0 -0.234757 0.599275 0 0 0 0)
(0.0302677 -0.0511917 0 -0.212483 0.585159 0 0 0 0)
(0.0409662 -0.0644538 0 -0.164499 0.580431 0 0 0 0)
(0.00561979 0.0863868 0 -0.107327 0.60732 0 0 0 0)
(-0.104265 -0.0753957 0 -0.253632 0.409569 0 0 0 0)
(-0.254402 -0.365016 0 -0.385404 0.293881 0 0 0 0)
(-0.822012 -0.237687 0 -0.484823 0.340844 0 0 0 0)
(-1.21402 -0.0449196 0 -0.503818 0.373934 0 0 0 0)
(-0.789473 0.0795337 0 -0.032653 0.382325 0 0 0 0)
(-0.453507 0.279319 0 -0.222967 0.44886 0 0 0 0)
(-0.492352 0.582279 0 -0.488882 0.654106 0 0 0 0)
(-0.629172 0.646765 0 -0.762816 0.808345 0 0 0 0)
(-0.624043 0.295121 0 -0.797554 0.708181 0 0 0 0)
(-0.479698 -0.0933949 0 -0.66512 0.556086 0 0 0 0)
(-0.416923 -0.294121 0 -0.524354 0.460484 0 0 0 0)
(-0.448766 -0.352316 0 -0.412272 0.389764 0 0 0 0)
(-0.522055 -0.326374 0 -0.333378 0.332389 0 0 0 0)
(-0.654811 -0.279059 0 -0.27663 0.280175 0 0 0 0)
(-0.889838 -0.250588 0 -0.250533 0.222509 0 0 0 0)
(-0.960309 -0.202714 0 -0.214525 0.164301 0 0 0 0)
(-0.577316 -0.105277 0 -0.0920301 0.136823 0 0 0 0)
(-0.141702 -0.0296235 0 -0.0176861 0.131964 0 0 0 0)
(0.00328517 -0.00888654 0 -0.00706804 0.129626 0 0 0 0)
(0.0237835 -0.00498317 0 -0.00606418 0.127887 0 0 0 0)
(0.0327862 -0.00488429 0 -0.00401803 0.127307 0 0 0 0)
(0.0519839 -0.00148553 0 -0.00100255 0.125572 0 0 0 0)
(0.0773471 0.000594074 0 0.00181548 0.126391 0 0 0 0)
(0.0392195 0.00398118 0 0.00314292 0.125791 0 0 0 0)
(-0.342967 0.00717919 0 0.00394987 0.128138 0 0 0 0)
(-0.980636 0.00673291 0 0.00939791 0.129373 0 0 0 0)
(-0.953861 0.00575792 0 0.0111723 0.131479 0 0 0 0)
(-0.414833 0.00303072 0 0.00755884 0.132097 0 0 0 0)
(-0.177145 4.97838e-05 0 0.00591964 0.134602 0 0 0 0)
(-0.140826 0.0106299 0 0.00135017 0.13458 0 0 0 0)
(-0.120775 0.00711825 0 0.00207135 0.145336 0 0 0 0)
(-0.0875608 0.0242301 0 -0.00116047 0.132999 0 0 0 0)
(-0.105739 2.20798e-05 0 0.00639216 0.143369 0 0 0 0)
(-0.0708421 -0.0293832 0 0.00940621 0.138065 0 0 0 0)
(0.0156629 -0.024782 0 -0.436048 0.428241 0 0 0 0)
(0.0332323 -0.069869 0 -0.385162 0.404954 0 0 0 0)
(0.0322175 -0.0207962 0 -0.353674 0.418911 0 0 0 0)
(0.0530943 -0.00390741 0 -0.353381 0.441017 0 0 0 0)
(0.0790004 -0.00907954 0 -0.37298 0.484196 0 0 0 0)
(-0.0861663 0.00600934 0 -0.328876 0.481097 0 0 0 0)
(-0.302175 -0.188981 0 -0.498785 0.290201 0 0 0 0)
(-0.375041 -0.296073 0 -0.545888 0.333288 0 0 0 0)
(-0.781426 -0.18434 0 -0.700422 0.370938 0 0 0 0)
(-0.95767 -0.0309722 0 -0.491812 0.404499 0 0 0 0)
(-0.711736 0.132971 0 -0.311106 0.481266 0 0 0 0)
(-0.686986 0.421477 0 -0.524116 0.626649 0 0 0 0)
(-0.751868 0.751467 0 -0.769453 0.923139 0 0 0 0)
(-0.733306 0.594585 0 -0.917913 0.849186 0 0 0 0)
(-0.52565 0.101887 0 -0.790765 0.568844 0 0 0 0)
(-0.339941 -0.227643 0 -0.630009 0.403272 0 0 0 0)
(-0.310807 -0.36815 0 -0.516953 0.31789 0 0 0 0)
(-0.367611 -0.399103 0 -0.434863 0.275175 0 0 0 0)
(-0.458267 -0.36424 0 -0.365934 0.250546 0 0 0 0)
(-0.616596 -0.322424 0 -0.316551 0.221832 0 0 0 0)
(-0.859768 -0.300234 0 -0.302519 0.176106 0 0 0 0)
(-0.873237 -0.236495 0 -0.250513 0.13298 0 0 0 0)
(-0.472323 -0.114552 0 -0.0949917 0.127232 0 0 0 0)
(-0.0991576 -0.0311016 0 -0.0190456 0.129511 0 0 0 0)
(0.00880354 -0.0106021 0 -0.00864424 0.128002 0 0 0 0)
(0.025236 -0.00606469 0 -0.00747116 0.126213 0 0 0 0)
(0.0353584 -0.00594328 0 -0.00473855 0.125729 0 0 0 0)
(0.0549557 -0.00190532 0 -0.00104039 0.124023 0 0 0 0)
(0.0794736 0.000712054 0 0.00243243 0.124772 0 0 0 0)
(0.0402619 0.0047123 0 0.00418502 0.124191 0 0 0 0)
(-0.340142 0.00881368 0 0.00542961 0.12598 0 0 0 0)
(-0.977749 0.00849103 0 0.012483 0.127063 0 0 0 0)
(-0.95574 0.00710118 0 0.0159173 0.128951 0 0 0 0)
(-0.418216 0.00468893 0 0.0128052 0.129314 0 0 0 0)
(-0.181012 0.00152449 0 0.0125884 0.132778 0 0 0 0)
(-0.142596 0.0162587 0 0.00817435 0.132899 0 0 0 0)
(-0.121013 0.00681717 0 0.012024 0.143639 0 0 0 0)
(-0.086019 0.0220346 0 0.0106517 0.133132 0 0 0 0)
(-0.10155 0.00182228 0 0.016381 0.138582 0 0 0 0)
(-0.0694476 -0.0312836 0 0.018688 0.135257 0 0 0 0)
(0.013141 -0.0122787 0 -0.542409 0.403416 0 0 0 0)
(0.036296 -0.0581839 0 -0.547313 0.411555 0 0 0 0)
(0.0276042 -0.0276019 0 -0.546125 0.436819 0 0 0 0)
(0.0116638 0.0117194 0 -0.578765 0.437493 0 0 0 0)
(0.0645796 -0.0258316 0 -0.62968 0.452372 0 0 0 0)
(-0.11561 -0.100553 0 -0.700605 0.362223 0 0 0 0)
(-0.313385 -0.21783 0 -0.696369 0.236867 0 0 0 0)
(-0.448707 -0.287215 0 -0.690202 0.253593 0 0 0 0)
(-0.769903 -0.169066 0 -0.827603 0.339569 0 0 0 0)
(-0.838863 0.061397 0 -0.662561 0.481832 0 0 0 0)
(-0.820602 0.293606 0 -0.778012 0.610487 0 0 0 0)
(-0.895186 0.705123 0 -0.950204 0.968285 0 0 0 0)
(-0.871829 0.796725 0 -1.0754 1.04485 0 0 0 0)
(-0.649709 0.305353 0 -0.954126 0.662354 0 0 0 0)
(-0.346608 -0.134578 0 -0.725412 0.390332 0 0 0 0)
(-0.215843 -0.335223 0 -0.576929 0.261754 0 0 0 0)
(-0.228873 -0.417559 0 -0.492262 0.200083 0 0 0 0)
(-0.303239 -0.417211 0 -0.43282 0.184648 0 0 0 0)
(-0.408045 -0.377778 0 -0.378817 0.182268 0 0 0 0)
(-0.593702 -0.350792 0 -0.348917 0.165906 0 0 0 0)
(-0.826201 -0.336209 0 -0.34814 0.127359 0 0 0 0)
(-0.760328 -0.24981 0 -0.262455 0.105181 0 0 0 0)
(-0.354266 -0.10862 0 -0.0847942 0.120619 0 0 0 0)
(-0.0584946 -0.0288816 0 -0.0188428 0.12644 0 0 0 0)
(0.0144387 -0.012065 0 -0.0108617 0.125437 0 0 0 0)
(0.0275472 -0.0071739 0 -0.00972756 0.123498 0 0 0 0)
(0.0389831 -0.00699391 0 -0.00668448 0.123177 0 0 0 0)
(0.0588942 -0.00240747 0 -0.00276367 0.121598 0 0 0 0)
(0.0823825 0.000755537 0 0.000793788 0.122367 0 0 0 0)
(0.0421076 0.00514484 0 0.00247955 0.121871 0 0 0 0)
(-0.33497 0.0099464 0 0.00339911 0.123223 0 0 0 0)
(-0.97053 0.00959678 0 0.00969392 0.124177 0 0 0 0)
(-0.95355 0.00792743 0 0.0127471 0.125907 0 0 0 0)
(-0.418041 0.00671797 0 0.00922875 0.126041 0 0 0 0)
(-0.181607 0.00350479 0 0.0094367 0.130579 0 0 0 0)
(-0.14137 0.0210963 0 0.00476376 0.130585 0 0 0 0)
(-0.118388 0.00734217 0 0.00881694 0.13986 0 0 0 0)
(-0.0833621 0.0193566 0 0.00832176 0.132941 0 0 0 0)
(-0.0979951 0.00206976 0 0.0138023 0.13603 0 0 0 0)
(-0.068619 -0.0325874 0 0.0156309 0.133772 0 0 0 0)
(0.0109377 -0.0169391 0 -0.717244 0.366302 0 0 0 0)
(0.0296522 -0.0376804 0 -0.724369 0.370977 0 0 0 0)
(0.00190878 0.00419873 0 -0.749046 0.398648 0 0 0 0)
(-0.0274226 0.0110795 0 -0.797311 0.35393 0 0 0 0)
(-0.0384089 -0.0816123 0 -0.837213 0.288209 0 0 0 0)
(-0.150431 -0.201659 0 -0.967062 0.224292 0 0 0 0)
(-0.29215 -0.293661 0 -0.923914 0.21364 0 0 0 0)
(-0.501502 -0.197107 0 -1.044 0.314665 0 0 0 0)
(-0.754791 0.0355994 0 -1.11019 0.554547 0 0 0 0)
(-0.909883 0.230095 0 -1.1135 0.71056 0 0 0 0)
(-0.988919 0.601734 0 -1.29525 0.959043 0 0 0 0)
(-0.973564 0.840048 0 -1.34004 1.15828 0 0 0 0)
(-0.755647 0.456661 0 -1.18369 0.788443 0 0 0 0)
(-0.39604 -0.0361345 0 -0.8504 0.413318 0 0 0 0)
(-0.162169 -0.284146 0 -0.621016 0.236286 0 0 0 0)
(-0.115269 -0.410974 0 -0.50985 0.135024 0 0 0 0)
(-0.171939 -0.442451 0 -0.459599 0.108845 0 0 0 0)
(-0.258292 -0.416271 0 -0.419865 0.11625 0 0 0 0)
(-0.377415 -0.382301 0 -0.384 0.123881 0 0 0 0)
(-0.587034 -0.375336 0 -0.377904 0.108605 0 0 0 0)
(-0.77645 -0.358751 0 -0.379857 0.0766398 0 0 0 0)
(-0.619467 -0.24299 0 -0.245049 0.0844005 0 0 0 0)
(-0.23757 -0.0940665 0 -0.0682626 0.116675 0 0 0 0)
(-0.0279137 -0.0264587 0 -0.0180144 0.122875 0 0 0 0)
(0.0175873 -0.0134365 0 -0.0121356 0.121985 0 0 0 0)
(0.0292614 -0.00824242 0 -0.00993556 0.120076 0 0 0 0)
(0.0420691 -0.00777438 0 -0.00585271 0.120074 0 0 0 0)
(0.062162 -0.00268519 0 -0.00116283 0.118626 0 0 0 0)
(0.0845262 0.000974747 0 0.00284158 0.119416 0 0 0 0)
(0.0427725 0.00553665 0 0.00477841 0.11899 0 0 0 0)
(-0.33319 0.0110361 0 0.00610166 0.119969 0 0 0 0)
(-0.968741 0.0110775 0 0.0143112 0.120888 0 0 0 0)
(-0.956188 0.00889732 0 0.018724 0.122879 0 0 0 0)
(-0.421406 0.00919074 0 0.0142803 0.123292 0 0 0 0)
(-0.185314 0.00590316 0 0.0138064 0.129028 0 0 0 0)