/*--------------------------------*- C++ -*----------------------------------*\
| =========                 |                                                 |
| \\      /  F ield         | OpenFOAM: The Open Source CFD Toolbox           |
|  \\    /   O peration     | Version:  v1912                                 |
|   \\  /    A nd           | Website:  www.openfoam.com                      |
|    \\/     M anipulation  |                                                 |
\*---------------------------------------------------------------------------*/
FoamFile
{
    version     2.0;
    format      ascii;
    class       volScalarField;
    location    "7.94";
    object      p;
}
// * * * * * * * * * * * * * * * * * * * * * * * * * * * * * * * * * * * * * //

dimensions      [1 -1 -2 0 0 0 0];


internalField   nonuniform List<scalar> 
1900
(
17885.4
8936.63
8414.35
8442.82
8470.36
8477.16
8459.37
8432.68
8395
8351.19
17885.3
8936.6
8414.44
8442.84
8470.48
8476.76
8458.63
8431.29
8402.68
8350.08
17885.3
8936.58
8414.51
8442.98
8470.83
8476.96
8458.84
8426.67
8393.15
8334.64
17885.3
8936.6
8414.44
8442.84
8470.48
8476.76
8458.63
8431.29
8402.68
8350.08
17885.4
8936.63
8414.35
8442.82
8470.36
8477.16
8459.37
8432.68
8395
8351.19
8460.26
8276.98
8192.08
8008.96
8218.45
8299.92
8175.18
8096.66
7914.58
7785.61
8265.35
8155.94
8084.71
7940.41
7822.75
8299.92
8175.18
8096.66
7914.58
7785.61
8460.26
8276.98
8192.08
8008.96
8218.45
3452.98
2011.28
1412.54
1098.61
839.214
3903.29
2218.7
1523.21
1184.19
892.447
4010.8
2180.09
1476.37
1150.78
848.904
3903.29
2218.7
1523.21
1184.19
892.447
3452.98
2011.28
1412.54
1098.61
839.214
866.192
881.553
860.253
824.852
786.61
745.52
666.934
581.342
583.458
723.84
1155.84
1296.69
1295.07
1281.94
1277.92
1260.18
1199.97
1091.39
956.64
809.052
643.596
460.602
322.756
274.211
262.481
255.846
250.074
245.493
242.471
242.102
251.294
321.867
492.047
613.698
680.253
735.583
795.011
858.273
919.664
964.379
810.75
847.693
873.624
847.906
799.97
743.542
654.418
572.423
574.247
722.603
1152.11
1295.51
1299.55
1287.89
1283.17
1264.08
1203.94
1091.51
956.197
811.006
646.904
462.855
323.341
274.234
262.461
255.839
250.059
245.464
242.436
242.064
251.262
321.844
492.032
613.63
680.136
735.46
795.023
858.23
919.677
964.473
798.592
820.172
855.155
850.204
818.01
757.468
659.353
576.381
578.408
716.45
1149.7
1299.16
1301.28
1289.02
1283.68
1265.2
1219.62
1116.97
973.576
814.64
646.915
462.412
323.303
274.243
262.456
255.838
250.055
245.453
242.423
242.05
251.251
321.845
492.033
613.594
680.081
735.411
795.032
858.231
919.612
964.324
810.75
847.693
873.624
847.906
799.97
743.542
654.418
572.423
574.247
722.603
1152.11
1295.51
1299.55
1287.89
1283.17
1264.08
1203.94
1091.51
956.197
811.006
646.904
462.855
323.341
274.234
262.461
255.839
250.059
245.464
242.436
242.064
251.262
321.844
492.032
613.63
680.136
735.46
795.023
858.23
919.677
964.473
866.192
881.553
860.253
824.852
786.61
745.52
666.934
581.342
583.458
723.84
1155.84
1296.69
1295.07
1281.94
1277.92
1260.18
1199.97
1091.39
956.64
809.052
643.596
460.602
322.756
274.211
262.481
255.846
250.074
245.493
242.471
242.102
251.294
321.867
492.047
613.698
680.253
735.583
795.011
858.273
919.664
964.379
960.209
880.716
826.643
777.697
744.319
709.532
652.01
588.431
590.988
759.595
1163.76
1295.58
1294.45
1275.36
1263.95
1242.02
1185.05
1086.64
956.742
806.837
639.088
455.374
320.477
274.034
262.551
255.901
250.15
245.626
242.632
242.27
251.438
321.873
491.994
613.848
680.551
735.901
794.895
858.22
919.715
964.664
962.698
872.623
795.202
731.764
687.687
649.228
609.558
585.206
613.37
843.271
1140.9
1249.25
1246.15
1244.45
1234.23
1205.43
1143.71
1044.56
918.494
777.058
616.647
440.25
315.233
273.632
262.723
256.045
250.334
245.932
243.014
242.671
251.786
321.883
491.844
614.134
681.268
736.776
795.307
858.268
919.675
964.706
970.634
939.636
894.35
837.95
772.942
709.27
663.541
635.284
680.57
918.955
1126.48
1211.51
1200.86
1202.59
1186.43
1149.38
1088.08
994.344
874.856
740.376
586.045
419.015
308.182
273.136
263.009
256.293
250.637
246.395
243.586
243.277
252.329
321.989
491.643
614.367
682.133
737.731
796.189
858.666
920.085
965.174
973.963
918.125
863.588
805.498
734.479
677.199
664.51
674.905
780.824
966.21
1120.87
1172.4
1157.94
1162.89
1134.7
1090.63
1025.52
933.356
821.514
696.353
548.926
393.871
300.652
272.75
263.37
256.642
251.067
247.017
244.34
244.077
253.069
322.369
491.826
614.997
683.439
738.849
797.493
859.277
920.564
965.747
974.496
918.23
858.381
802.798
737.332
706.329
721.143
767.722
855.267
994.186
1092.83
1092.99
1114.8
1106.48
1069.1
1022.51
956.266
867.88
764.818
647.889
506.522
367.111
293.827
272.56
263.797
257.088
251.631
247.806
245.279
245.059
253.996
322.736
491.751
615.387
684.585
739.683
798.544
859.611
920.676
966.108
974.583
918.863
859.668
816.117
778.563
762.928
782.702
823.666
899.494
988.283
1009.35
1036.79
1059.36
1029.93
997.544
953.092
886.722
802.66
707.761
596.543
461.166
342.16
288.869
272.799
264.418
257.764
252.474
248.901
246.535
246.379
255.281
323.865
492.744
616.743
686.591
741.237
800.067
860.362
920.99
966.594
973.571
918.842
870.954
841.181
818.114
809.414
816.187
843.491
900.884
936.238
949.918
982.156
974.735
961.019
932.345
884.696
817.799
739.112
650.946
542.883
415.986
321.938
285.91
273.314
265.154
258.579
253.482
250.177
247.982
247.86
256.722
324.578
492.817
617.35
687.939
742.326
801.18
860.905
921.108
966.848
973.927
925.687
885.508
857.994
838.894
831.111
833.861
856.929
877.172
869.238
893.408
918.56
920.47
899.763
867.501
815.778
750.855
678.559
594.718
487.73
374.654
307.996
284.631
273.899
265.813
259.365
254.496
251.444
249.409
249.34
258.187
325.716
493.254
617.739
688.894
743.287
802.346
861.72
921.512
967.307
980.501
934.429
901.538
876.984
856.167
835.689
824.069
824.565
811.697
826.484
867.258
868.337
858.552
839.565
801.434
748.463
687.598
620.497
537.428
433.127
341.8
299.631
283.63
273.744
265.722
259.471
254.888
252.128
250.296
250.277
259.069
325.429
492.076
617.403
689.375
743.806
803.198
862.55
922.027
967.682
980.361
921.546
882.564
847.231
812.091
790.68
786.592
783.669
793.163
817.443
816.701
815.143
803.711
774.95
731.596
680.598
626.462
564.264
480.273
384.939
322.101
296.79
284.879
275.83
268.344
262.702
258.663
256.386
254.877
255.085
264.104
331.184
500.271
628.448
702.225
754.407
809.947
866.176
923.862
968.78
949.187
896.453
845.895
817.764
804.344
799.187
788.099
781.922
774.95
771.194
770.147
762.153
741.854
709.442
670.136
628.731
581.653
518.781
436.949
360.029
321.405
306.406
296.68
288.461
281.892
277.279
274.158
272.769
271.791
272.51
282.557
355.416
538.302
673.229
743.403
786.301
835.603
882.299
929.336
969.829
960.371
925.587
887.974
866.987
845.787
813.8
783.254
756.981
742.908
734.772
726.806
714.431
694.456
668.56
642.335
617.707
582.786
518.821
441.22
397.565
385.022
379.807
375.347
371.11
367.835
366.192
365.066
365.93
365.906
368.234
384.004
487.65
709.725
843.553
893.442
898.759
910.651
926.469
951.989
973.731
993.269
955.501
918.926
884.704
853.878
826.469
793.524
755.167
732.206
725.77
726.053
726.996
727.197
730.491
736.73
728.351
686.181
620.383
569.601
550.777
546.256
542.039
536.27
530.651
526.203
524.126
522.912
523.693
522.923
526.51
549.256
680.714
909.998
1027.59
1073.67
1063.92
1048.12
1025.93
1007.24
983.739
1007.59
982.849
965.309
951.06
942.863
942.54
917.487
884.193
867.699
873.033
888.889
904.538
915.866
921.214
908.714
863.696
785.784
714.442
683.435
672.936
665.27
656.153
646.369
638.107
631.806
628.587
626.732
626.315
624.761
629.231
653.984
780.979
991.01
1096.41
1150.31
1152.34
1145.06
1124.25
1083.3
1009.96
1032.37
1058.64
1107.34
1154.74
1218.1
1282.94
1296.03
1250.7
1168.03
1102.41
1065.68
1044.68
1026.31
997.362
941.771
862.898
793.623
758.488
745.58
737.924
729.057
718.742
708.908
701.333
696.013
693.686
692.487
692.379
691.34
695.708
720.981
825.988
1019.89
1133.82
1191.32
1195.18
1187.1
1164.59
1120.37
1027.28
1067.23
1133.85
1223.68
1304
1402.2
1474.38
1482.43
1407.16
1259.76
1138.39
1074.82
1040.58
1008.09
960.685
895.543
837.017
807.089
797.711
793.649
788.084
779.931
770.678
762.466
756.437
752.31
750.69
749.709
749.66
748.866
751.744
773.809
847.855
1013.86
1137.01
1198.86
1204.59
1196.62
1171.02
1122.39
1032.94
1069.89
1156.01
1257.37
1339.95
1436.97
1490.4
1482.02
1389.16
1225.41
1112.11
1056.2
1016.77
970.144
919.772
876.298
852.41
846.306
845.643
843.568
838.597
831.5
823.561
816.815
812.15
809.131
808.164
807.55
807.659
807.167
808.453
825.44
874.209
1000.15
1123.5
1186.74
1196.43
1190.41
1160.53
1098.13
1018.36
1053.78
1125.08
1216.89
1283.04
1365.63
1402.76
1389.49
1299.09
1166.06
1079.57
1031.13
992.283
950.366
916.023
896.614
892.187
893.881
895.057
893.805
889.955
884.644
878.272
872.339
868.041
865.094
863.95
863.047
862.851
862.536
863.07
871.259
904.68
983.8
1094.33
1155.94
1166.5
1156.73
1141.17
1076.07
992.623
1089.84
969.418
1111.88
1172.92
1246.23
1276.86
1271.04
1201.91
1112.33
1053.9
1016.81
987.965
961.254
943.108
937.134
938.715
941.089
941.916
940.78
938.077
934.968
931.362
928.073
925.836
924.172
923.371
922.43
921.965
921.607
921.97
924.314
940.271
981.214
1055.99
1107.97
1118.12
1096.09
1075.97
943.697
920.232
5053.79
950.189
1008.41
1055.24
1083.69
1091.35
1080.42
1045.5
1010.15
984.773
970.11
962.195
958.288
960.549
964.293
967.194
968.891
969.602
969.39
968.701
968.012
967.377
967.117
967.27
967.526
967.957
968.051
968.417
968.614
969.313
969.869
973.037
980.128
1000.58
1021.97
1032.39
1019.15
995.773
917.519
2557.83
5053.79
950.189
1008.41
1055.24
1083.69
1091.35
1080.42
1045.5
1010.15
984.773
970.11
962.195
958.288
960.549
964.293
967.194
968.891
969.602
969.39
968.701
968.012
967.377
967.117
967.27
967.526
967.957
968.051
968.417
968.614
969.313
969.869
973.037
980.128
1000.58
1021.97
1032.39
1019.15
995.773
917.519
2557.83
1089.84
969.418
1111.88
1172.92
1246.23
1276.86
1271.04
1201.91
1112.33
1053.9
1016.81
987.965
961.254
943.108
937.134
938.715
941.089
941.916
940.78
938.077
934.968
931.362
928.073
925.836
924.172
923.371
922.43
921.965
921.607
921.97
924.314
940.271
981.214
1055.99
1107.97
1118.12
1096.09
1075.97
943.697
920.232
1053.78
1125.08
1216.89
1283.04
1365.63
1402.76
1389.49
1299.09
1166.06
1079.57
1031.13
992.283
950.366
916.023
896.614
892.187
893.881
895.057
893.805
889.955
884.644
878.272
872.339
868.041
865.094
863.95
863.047
862.851
862.536
863.07
871.259
904.68
983.8
1094.33
1155.94
1166.5
1156.73
1141.17
1076.07
992.623
1069.89
1156.01
1257.37
1339.95
1436.97
1490.4
1482.02
1389.16
1225.41
1112.11
1056.2
1016.77
970.144
919.772
876.298
852.41
846.306
845.643
843.568
838.597
831.5
823.561
816.815
812.15
809.131
808.164
807.55
807.659
807.167
808.453
825.44
874.209
1000.15
1123.5
1186.74
1196.43
1190.41
1160.53
1098.13
1018.36
1067.23
1133.85
1223.68
1304
1402.2
1474.38
1482.43
1407.16
1259.76
1138.39
1074.82
1040.58
1008.09
960.685
895.543
837.017
807.089
797.711
793.649
788.084
779.931
770.678
762.466
756.437
752.31
750.69
749.709
749.66
748.866
751.744
773.809
847.855
1013.86
1137.01
1198.86
1204.59
1196.62
1171.02
1122.39
1032.94
1032.37
1058.64
1107.34
1154.74
1218.1
1282.94
1296.03
1250.7
1168.03
1102.41
1065.68
1044.68
1026.31
997.362
941.771
862.898
793.623
758.488
745.58
737.924
729.057
718.742
708.908
701.333
696.013
693.686
692.487
692.379
691.34
695.708
720.981
825.988
1019.89
1133.82
1191.32
1195.18
1187.1
1164.59
1120.37
1027.28
1007.59
982.849
965.309
951.06
942.863
942.54
917.487
884.193
867.699
873.033
888.889
904.538
915.866
921.214
908.714
863.696
785.784
714.442
683.435
672.936
665.27
656.153
646.369
638.107
631.806
628.587
626.732
626.315
624.761
629.231
653.984
780.979
991.01
1096.41
1150.31
1152.34
1145.06
1124.25
1083.3
1009.96
993.269
955.501
918.926
884.704
853.878
826.469
793.524
755.167
732.206
725.77
726.053
726.996
727.197
730.491
736.73
728.351
686.181
620.383
569.601
550.777
546.256
542.039
536.27
530.651
526.203
524.126
522.912
523.693
522.923
526.51
549.256
680.714
909.998
1027.59
1073.67
1063.92
1048.12
1025.93
1007.24
983.739
960.371
925.587
887.974
866.987
845.787
813.8
783.254
756.981
742.908
734.772
726.806
714.431
694.456
668.56
642.335
617.707
582.786
518.821
441.22
397.565
385.022
379.807
375.347
371.11
367.835
366.192
365.066
365.93
365.906
368.234
384.004
487.65
709.725
843.553
893.442
898.759
910.651
926.469
951.989
973.731
949.187
896.453
845.895
817.764
804.344
799.187
788.099
781.922
774.95
771.194
770.147
762.153
741.854
709.442
670.136
628.731
581.653
518.781
436.949
360.029
321.405
306.406
296.68
288.461
281.892
277.279
274.158
272.769
271.791
272.51
282.557
355.416
538.302
673.229
743.403
786.301
835.603
882.299
929.336
969.829
980.361
921.546
882.564
847.231
812.091
790.68
786.592
783.669
793.163
817.443
816.701
815.143
803.711
774.95
731.596
680.598
626.462
564.264
480.273
384.939
322.101
296.79
284.879
275.83
268.344
262.702
258.663
256.386
254.877
255.085
264.104
331.184
500.271
628.448
702.225
754.407
809.947
866.176
923.862
968.78
980.501
934.429
901.538
876.984
856.167
835.689
824.069
824.565
811.697
826.484
867.258
868.337
858.552
839.565
801.434
748.463
687.598
620.497
537.428
433.127
341.8
299.631
283.63
273.744
265.722
259.471
254.888
252.128
250.296
250.277
259.069
325.429
492.076
617.403
689.375
743.806
803.198
862.55
922.027
967.682
973.927
925.687
885.508
857.994
838.894
831.111
833.861
856.929
877.172
869.238
893.408
918.56
920.47
899.763
867.501
815.778
750.855
678.559
594.718
487.73
374.654
307.996
284.631
273.899
265.813
259.365
254.496
251.444
249.409
249.34
258.187
325.716
493.254
617.739
688.894
743.287
802.346
861.72
921.512
967.307
973.571
918.842
870.954
841.181
818.114
809.414
816.187
843.491
900.884
936.238
949.918
982.156
974.735
961.019
932.345
884.696
817.799
739.112
650.946
542.883
415.986
321.938
285.91
273.314
265.154
258.579
253.482
250.177
247.982
247.86
256.722
324.578
492.817
617.35
687.939
742.326
801.18
860.905
921.108
966.848
974.583
918.863
859.668
816.117
778.563
762.928
782.702
823.666
899.494
988.283
1009.35
1036.79
1059.36
1029.93
997.544
953.092
886.722
802.66
707.761
596.543
461.166
342.16
288.869
272.799
264.418
257.764
252.474
248.901
246.535
246.379
255.281
323.865
492.744
616.743
686.591
741.237
800.067
860.362
920.99
966.594
974.496
918.23
858.381
802.798
737.332
706.329
721.143
767.722
855.267
994.186
1092.83
1092.99
1114.8
1106.48
1069.1
1022.51
956.266
867.88
764.818
647.889
506.522
367.111
293.827
272.56
263.797
257.088
251.631
247.806
245.279
245.059
253.996
322.736
491.751
615.387
684.585
739.683
798.544
859.611
920.676
966.108
973.963
918.125
863.588
805.498
734.479
677.199
664.51
674.905
780.824
966.21
1120.87
1172.4
1157.94
1162.89
1134.7
1090.63
1025.52
933.356
821.514
696.353
548.926
393.871
300.652
272.75
263.37
256.642
251.067
247.017
244.34
244.077
253.069
322.369
491.826
614.997
683.439
738.849
797.493
859.277
920.564
965.747
970.634
939.636
894.35
837.95
772.942
709.27
663.541
635.284
680.57
918.955
1126.48
1211.51
1200.86
1202.59
1186.43
1149.38
1088.08
994.344
874.856
740.376
586.045
419.015
308.182
273.136
263.009
256.293
250.637
246.395
243.586
243.277
252.329
321.989
491.643
614.367
682.133
737.731
796.189
858.666
920.085
965.174
962.698
872.623
795.202
731.764
687.687
649.228
609.558
585.206
613.37
843.271
1140.9
1249.25
1246.15
1244.45
1234.23
1205.43
1143.71
1044.56
918.494
777.058
616.647
440.25
315.233
273.632
262.723
256.045
250.334
245.932
243.014
242.671
251.786
321.883
491.844
614.134
681.268
736.776
795.307
858.268
919.675
964.706
960.209
880.716
826.643
777.697
744.319
709.532
652.01
588.431
590.988
759.595
1163.76
1295.58
1294.45
1275.36
1263.95
1242.02
1185.05
1086.64
956.742
806.837
639.088
455.374
320.477
274.034
262.551
255.901
250.15
245.626
242.632
242.27
251.438
321.873
491.994
613.848
680.551
735.901
794.895
858.22
919.715
964.664
)
;

boundaryField
{
    inlet
    {
        type            fixedValue;
        value           uniform 10000;
    }
    outlet
    {
        type            fixedValue;
        value           uniform 1000;
    }
    obstacle
    {
        type            zeroGradient;
    }
    empty
    {
        type            empty;
    }
}


// ************************************************************************* //
