/*--------------------------------*- C++ -*----------------------------------*\
| =========                 |                                                 |
| \\      /  F ield         | OpenFOAM: The Open Source CFD Toolbox           |
|  \\    /   O peration     | Version:  v1912                                 |
|   \\  /    A nd           | Website:  www.openfoam.com                      |
|    \\/     M anipulation  |                                                 |
\*---------------------------------------------------------------------------*/
FoamFile
{
    version     2.0;
    format      ascii;
    class       volScalarField;
    location    "7.74";
    object      rho;
}
// * * * * * * * * * * * * * * * * * * * * * * * * * * * * * * * * * * * * * //

dimensions      [1 -3 0 0 0 0 0];


internalField   nonuniform List<scalar> 
1900
(
21785.3
12564.7
12791.3
12901.1
12857.2
12755.8
12580.7
12414.4
12311.6
12249.7
21785.3
12564.8
12791.3
12901
12857.2
12756.4
12581.3
12412.6
12321.4
12254.4
21785.3
12564.8
12791.3
12901
12857.3
12757.1
12582.2
12409.2
12313.1
12238.9
21785.3
12564.8
12791.3
12901
12857.2
12756.4
12581.3
12412.6
12321.4
12254.4
21785.3
12564.7
12791.3
12901.1
12857.2
12755.8
12580.7
12414.4
12311.6
12249.7
12357.7
12172.1
12031.1
11677.9
11543.1
12206.5
12077.8
11955.2
11622.2
11143.5
12170.6
12057.4
11947.8
11660
11213.6
12206.5
12077.8
11955.2
11622.2
11143.5
12357.7
12172.1
12031.1
11677.9
11543.1
6131.64
4176.99
3242.84
2720.75
2205.3
6759.29
4498.05
3424.45
2864.67
2328.54
6944.1
4454.92
3352.42
2806.54
2255.2
6759.29
4498.05
3424.45
2864.67
2328.54
6131.64
4176.99
3242.84
2720.75
2205.3
2380.21
2485.64
2438.84
2354.82
2268.92
2113.82
1876.42
1845.54
2067.83
2952.96
3164.69
3094.43
3035.95
3029.02
3035.72
2995.82
2824.62
2544.13
2222.02
1864.3
1476.9
1212.08
1122
1091.75
1069.53
1049.91
1035
1027.51
1026.53
1028.2
1034.73
1070.6
1290.14
1716
1985.39
2116.5
2218.83
2321.23
2451.65
2593.18
2164.71
2248.32
2298.26
2257.54
2176.28
2015.88
1792.1
1764.91
1995.09
2859.77
3107.91
3072.58
3031.79
3028.82
3039.2
2998.72
2824.68
2548.15
2229.83
1871.71
1480.49
1212.81
1121.96
1091.72
1069.52
1049.86
1034.91
1027.4
1026.42
1028.1
1034.63
1070.52
1290.05
1715.98
1985.32
2116.34
2219
2321.11
2451.61
2593.56
2135.43
2166.03
2222.03
2216.32
2168.64
2004.62
1777.84
1754.87
1960.46
2826
3097.93
3066.99
3029.47
3027.16
3044.25
3033.19
2868.91
2562.44
2231.52
1870.44
1480.05
1212.98
1121.97
1091.71
1069.52
1049.84
1034.88
1027.36
1026.38
1028.07
1034.59
1070.5
1290.03
1715.98
1985.27
2116.29
2219.07
2321.12
2451.55
2593.45
2164.71
2248.32
2298.26
2257.54
2176.28
2015.88
1792.1
1764.91
1995.09
2859.77
3107.91
3072.58
3031.79
3028.82
3039.2
2998.72
2824.68
2548.15
2229.83
1871.71
1480.49
1212.81
1121.96
1091.72
1069.52
1049.86
1034.91
1027.4
1026.42
1028.1
1034.63
1070.52
1290.05
1715.98
1985.32
2116.34
2219
2321.11
2451.61
2593.56
2380.21
2485.64
2438.84
2354.82
2268.92
2113.82
1876.42
1845.54
2067.83
2952.96
3164.69
3094.43
3035.95
3029.02
3035.72
2995.82
2824.62
2544.13
2222.02
1864.3
1476.9
1212.08
1122
1091.75
1069.53
1049.91
1035
1027.51
1026.53
1028.2
1034.73
1070.6
1290.14
1716
1985.39
2116.5
2218.83
2321.23
2451.65
2593.18
3167.32
2924.16
2715.07
2554.39
2431.76
2266.76
2045.04
2007.54
2300.32
3107.57
3206.89
3103.54
3028.98
3018.79
3025.05
2991.1
2820.9
2532.07
2208.35
1851.22
1466.52
1208.67
1121.97
1091.89
1069.63
1050.16
1035.42
1028.04
1027.04
1028.65
1035.14
1070.93
1290.3
1715.77
1985.4
2116.92
2218.41
2321.18
2451.69
2593.21
3629.5
3304.18
3000.72
2747.11
2548.84
2364.48
2224.16
2237.7
2675.15
3230.57
3235.84
3091.38
3019.23
3001.2
2985.4
2919.9
2731.25
2455.93
2154.29
1809.62
1438.02
1200.13
1121.71
1092.29
1069.89
1050.72
1036.37
1029.28
1028.26
1029.73
1036.08
1071.76
1290.63
1715.25
1985.56
2117.55
2219.07
2321.51
2451.62
2592.75
3672.76
3519.8
3324.36
3083.4
2812.07
2588.89
2434.09
2520.11
2984.77
3244.22
3184.51
3009.84
2955.21
2928.07
2903.28
2816.37
2620.39
2364.37
2083.59
1749.13
1396.97
1188.77
1121.43
1092.92
1070.44
1051.63
1037.81
1031.12
1030.12
1031.41
1037.55
1073.08
1291.28
1714.75
1985.77
2117.81
2220.37
2322.3
2452.76
2593.23
3668.84
3445.35
3221.43
2983.02
2712.87
2600.12
2658.55
2797.52
3024.77
3127.07
2997.8
2892.19
2883.39
2850.11
2806.75
2690.16
2494.07
2261.44
1998.18
1672.25
1348.63
1177.18
1121.4
1093.69
1071.24
1052.9
1039.71
1033.51
1032.55
1033.63
1039.55
1074.91
1292.6
1715.17
1987.03
2118.65
2222.46
2323.62
2454.29
2593.92
3632.41
3388.35
3162.22
2958.69
2778.36
2757.65
2782.3
2860.38
2970.62
2913.6
2783.04
2797.13
2776
2746.73
2686.51
2552.47
2364.12
2151.4
1898.76
1582.37
1299.01
1167.05
1121.47
1094.47
1072.19
1054.45
1042.01
1036.37
1035.48
1036.34
1041.99
1077.18
1293.75
1714.89
1987.75
2118.93
2224.09
2325.01
2455.41
2594.25
3538.63
3309.18
3121.11
2974.4
2861.98
2820.25
2792.71
2798.07
2765.94
2647.56
2657.57
2669.78
2661.97
2641.26
2556.21
2409.75
2233.78
2036.98
1788.81
1486.92
1255.28
1160.13
1122.02
1095.5
1073.57
1056.61
1045.02
1039.98
1039.17
1039.82
1045.31
1080.39
1296.78
1716.84
1990.36
2120.89
2226.96
2327.8
2457.53
2595.08
3364.95
3173.35
3033.63
2920.76
2817.02
2732.99
2671.96
2620.62
2510.06
2477.79
2532.38
2570.94
2569.39
2519.31
2411.04
2265.92
2106.2
1919.04
1670.62
1395.16
1222.38
1156.1
1122.77
1096.74
1075.37
1059.32
1048.68
1044.26
1043.56
1044.01
1049.23
1084.18
1298.9
1717.51
1992.26
2122.43
2229.27
2330.37
2459.14
2595.2
3145.29
3004.8
2905.29
2804.41
2691.51
2573.88
2473.27
2367.46
2324.49
2407.9
2477.54
2479.87
2456.12
2378.7
2261.39
2129.56
1984.49
1797.56
1548.5
1318.04
1202.64
1155.37
1124.52
1098.93
1078.32
1063.28
1053.56
1049.67
1049.06
1049.28
1054.39
1089.33
1303.62
1720.49
1995.41
2124.88
2232.56
2333.92
2461.41
2595.65
2922.27
2793.16
2683.95
2560.12
2431.55
2328.72
2261.72
2249.85
2320.12
2370.38
2382.49
2374.94
2321.21
2228.25
2120.42
2005.75
1866.13
1669.78
1432.49
1264.54
1192.6
1155.4
1125.82
1100.78
1081.03
1067.04
1058.26
1054.86
1054.35
1054.44
1059.44
1094.3
1306.33
1720.85
1996.89
2126.66
2235.94
2337.69
2463.69
2595.47
2657.58
2536.03
2410.32
2332.9
2276.24
2241.84
2237.53
2259.91
2272.75
2291.25
2287.92
2248.89
2175.41
2085.85
1993.25
1887.78
1740.51
1536.12
1338.97
1235.48
1188.31
1155.18
1126.16
1101.96
1083.29
1070.42
1062.51
1059.51
1059.1
1059.12
1064.29
1099.32
1310.29
1722.64
1999.61
2129.55
2240.89
2343.05
2467.21
2595.91
2558.5
2491.75
2416.02
2380.68
2326.36
2273.25
2234.19
2219.13
2215.96
2201.6
2165.74
2104.59
2030.07
1957.42
1880.56
1774.43
1610.88
1417.94
1285.26
1224.8
1190.14
1160.51
1133.73
1111.8
1095.26
1084.35
1077.9
1075.82
1075.91
1076.43
1081.88
1117.77
1329.44
1746.24
2028.47
2155.41
2258.89
2353.39
2471.62
2594.93
2600
2527.81
2475.24
2416.99
2353.92
2298.88
2228.18
2172.81
2131.4
2088.55
2035.67
1974.93
1918.33
1862.66
1786.78
1670.01
1508.83
1361.61
1285.17
1249.57
1222.08
1196.24
1173.74
1156.17
1143.65
1136.36
1132.58
1132.79
1134.4
1136.46
1143.01
1182.65
1408.3
1844.18
2125.73
2231.65
2322.83
2399.89
2489.99
2595.02
2609.04
2549.59
2513.31
2467.21
2426.81
2344.42
2228.64
2123.22
2047.01
1991.43
1942.96
1905.91
1882.93
1856.06
1789.02
1663.34
1528.79
1461.14
1442.61
1433.01
1422.68
1411.25
1401.13
1394.23
1390.65
1391.3
1392.51
1398.27
1402.91
1407.49
1416.94
1468.67
1739.75
2196.66
2450.19
2487.02
2504.26
2508.99
2542.74
2595.66
2627.05
2595.7
2588.39
2564.17
2544.89
2435.45
2288.97
2146.46
2067.35
2041.05
2043.84
2068.15
2089.12
2071.35
1999.42
1904.1
1842.77
1826.69
1826.55
1822.85
1812.78
1799.45
1786.98
1778.18
1773.13
1773.26
1774.04
1778.75
1781.48
1783.86
1797.23
1857.62
2142.54
2560.25
2784.59
2791.96
2775.71
2726.49
2667.87
2607.88
2661.82
2676.89
2758.82
2824.31
2890.52
2852.39
2719.56
2517.63
2415.11
2401.63
2418.35
2436.74
2415.84
2340.68
2231.29
2150.85
2121.78
2112.32
2102.83
2087.54
2066.98
2046.21
2028.87
2017.1
2009.87
2008.09
2008.05
2010.76
2012.38
2013.57
2028.45
2089.33
2343.01
2726.62
2956
2980.8
2968.49
2911.41
2802.93
2637.06
2699.7
2830.5
3017.69
3162.44
3280.24
3302.89
3145.44
2855.75
2683.88
2622.67
2588.68
2542.5
2455.27
2355.41
2283.29
2254.46
2247.57
2242.15
2231.53
2213.53
2191.91
2172.14
2157.01
2146.84
2139.95
2137.48
2136.59
2137.81
2138.48
2138.88
2149.19
2202.89
2389.87
2720.48
2962.61
3012.26
3012.54
2975.02
2864.85
2656.64
2703.04
2916.18
3150.22
3307.8
3402.97
3391.91
3196.43
2899.74
2724.18
2639.97
2577.09
2510.08
2434.17
2377.65
2350.71
2344.69
2342.08
2335.2
2321.08
2302.2
2282.98
2266.5
2254.63
2247.24
2243.15
2242.62
2242.56
2244.2
2245.78
2247.59
2254.07
2300.85
2427.21
2698.69
2937.7
3007.2
3011.3
2971.13
2840.43
2638.93
2703.06
2895.43
3094
3199.83
3272.11
3240.67
3064.29
2826.69
2680.2
2598.61
2533.8
2478.31
2435.4
2416.92
2413.64
2415.01
2414.13
2407.95
2396.21
2381.75
2368.51
2356.81
2348.05
2342.63
2339.98
2340.4
2340.91
2342.99
2345.13
2347.96
2352.28
2383.17
2462.78
2657.32
2870.75
2964.35
2968.04
2945.94
2798.8
2613.5
3443.78
2646.55
2885.84
2975.75
3048.42
3027.68
2900.81
2736.89
2636.87
2579.93
2535.38
2503.23
2484.19
2482.87
2487.62
2493.28
2495.22
2492.75
2486.3
2478.4
2473.32
2469.45
2467.44
2467.31
2467.57
2469.09
2469.79
2471.22
2472.37
2474.3
2476.18
2487.64
2526.25
2630.72
2772.92
2857.05
2841.12
2804.86
2564.13
2988.32
29545.4
3192.43
2663.97
2706.13
2725.09
2704.11
2651.91
2578.21
2532.19
2514.26
2505.36
2512.12
2525.24
2538.89
2549.97
2559.28
2566.95
2572.41
2575.48
2577.39
2579.78
2582.65
2586.24
2589.78
2592.61
2595.28
2596.7
2598.3
2599.04
2600.13
2599.82
2600.68
2601.75
2608.22
2635.26
2659.47
2644.07
2625.3
2961.88
17127.3
29545.4
3192.43
2663.97
2706.13
2725.09
2704.11
2651.91
2578.21
2532.19
2514.26
2505.36
2512.12
2525.24
2538.89
2549.97
2559.28
2566.95
2572.41
2575.48
2577.39
2579.78
2582.65
2586.24
2589.78
2592.61
2595.28
2596.7
2598.3
2599.04
2600.13
2599.82
2600.68
2601.75
2608.22
2635.26
2659.47
2644.07
2625.3
2961.88
17127.3
3443.78
2646.55
2885.84
2975.75
3048.42
3027.68
2900.81
2736.89
2636.87
2579.93
2535.38
2503.23
2484.19
2482.87
2487.62
2493.28
2495.22
2492.75
2486.3
2478.4
2473.32
2469.45
2467.44
2467.31
2467.57
2469.09
2469.79
2471.22
2472.37
2474.3
2476.18
2487.64
2526.25
2630.72
2772.92
2857.05
2841.12
2804.86
2564.13
2988.32
2703.06
2895.43
3094
3199.83
3272.11
3240.67
3064.29
2826.69
2680.2
2598.61
2533.8
2478.31
2435.4
2416.92
2413.64
2415.01
2414.13
2407.95
2396.21
2381.75
2368.51
2356.81
2348.05
2342.63
2339.98
2340.4
2340.91
2342.99
2345.13
2347.96
2352.28
2383.17
2462.78
2657.32
2870.75
2964.35
2968.04
2945.94
2798.8
2613.5
2703.04
2916.18
3150.22
3307.8
3402.97
3391.91
3196.43
2899.74
2724.18
2639.97
2577.09
2510.08
2434.17
2377.65
2350.71
2344.69
2342.08
2335.2
2321.08
2302.2
2282.98
2266.5
2254.63
2247.24
2243.15
2242.62
2242.56
2244.2
2245.78
2247.59
2254.07
2300.85
2427.21
2698.69
2937.7
3007.2
3011.3
2971.13
2840.43
2638.93
2699.7
2830.5
3017.69
3162.44
3280.24
3302.89
3145.44
2855.75
2683.88
2622.67
2588.68
2542.5
2455.27
2355.41
2283.29
2254.46
2247.57
2242.15
2231.53
2213.53
2191.91
2172.14
2157.01
2146.84
2139.95
2137.48
2136.59
2137.81
2138.48
2138.88
2149.19
2202.89
2389.87
2720.48
2962.61
3012.26
3012.54
2975.02
2864.85
2656.64
2661.82
2676.89
2758.82
2824.31
2890.52
2852.39
2719.56
2517.63
2415.11
2401.63
2418.35
2436.74
2415.84
2340.68
2231.29
2150.85
2121.78
2112.32
2102.83
2087.54
2066.98
2046.21
2028.87
2017.1
2009.87
2008.09
2008.05
2010.76
2012.38
2013.57
2028.45
2089.33
2343.01
2726.62
2956
2980.8
2968.49
2911.41
2802.93
2637.06
2627.05
2595.7
2588.39
2564.17
2544.89
2435.45
2288.97
2146.46
2067.35
2041.05
2043.84
2068.15
2089.12
2071.35
1999.42
1904.1
1842.77
1826.69
1826.55
1822.85
1812.78
1799.45
1786.98
1778.18
1773.13
1773.26
1774.04
1778.75
1781.48
1783.86
1797.23
1857.62
2142.54
2560.25
2784.59
2791.96
2775.71
2726.49
2667.87
2607.88
2609.04
2549.59
2513.31
2467.21
2426.81
2344.42
2228.64
2123.22
2047.01
1991.43
1942.96
1905.91
1882.93
1856.06
1789.02
1663.34
1528.79
1461.14
1442.61
1433.01
1422.68
1411.25
1401.13
1394.23
1390.65
1391.3
1392.51
1398.27
1402.91
1407.49
1416.94
1468.67
1739.75
2196.66
2450.19
2487.02
2504.26
2508.99
2542.74
2595.66
2600
2527.81
2475.24
2416.99
2353.92
2298.88
2228.18
2172.81
2131.4
2088.55
2035.67
1974.93
1918.33
1862.66
1786.78
1670.01
1508.83
1361.61
1285.17
1249.57
1222.08
1196.24
1173.74
1156.17
1143.65
1136.36
1132.58
1132.79
1134.4
1136.46
1143.01
1182.65
1408.3
1844.18
2125.73
2231.65
2322.83
2399.89
2489.99
2595.02
2558.5
2491.75
2416.02
2380.68
2326.36
2273.25
2234.19
2219.13
2215.96
2201.6
2165.74
2104.59
2030.07
1957.42
1880.56
1774.43
1610.88
1417.94
1285.26
1224.8
1190.14
1160.51
1133.73
1111.8
1095.26
1084.35
1077.9
1075.82
1075.91
1076.43
1081.88
1117.77
1329.44
1746.24
2028.47
2155.41
2258.89
2353.39
2471.62
2594.93
2657.58
2536.03
2410.32
2332.9
2276.24
2241.84
2237.53
2259.91
2272.75
2291.25
2287.92
2248.89
2175.41
2085.85
1993.25
1887.78
1740.51
1536.12
1338.97
1235.48
1188.31
1155.18
1126.16
1101.96
1083.29
1070.42
1062.51
1059.51
1059.1
1059.12
1064.29
1099.32
1310.29
1722.64
1999.61
2129.55
2240.89
2343.05
2467.21
2595.91
2922.27
2793.16
2683.95
2560.12
2431.55
2328.72
2261.72
2249.85
2320.12
2370.38
2382.49
2374.94
2321.21
2228.25
2120.42
2005.75
1866.13
1669.78
1432.49
1264.54
1192.6
1155.4
1125.82
1100.78
1081.03
1067.04
1058.26
1054.86
1054.35
1054.44
1059.44
1094.3
1306.33
1720.85
1996.89
2126.66
2235.94
2337.69
2463.69
2595.47
3145.29
3004.8
2905.29
2804.41
2691.51
2573.88
2473.27
2367.46
2324.49
2407.9
2477.54
2479.87
2456.12
2378.7
2261.39
2129.56
1984.49
1797.56
1548.5
1318.04
1202.64
1155.37
1124.52
1098.93
1078.32
1063.28
1053.56
1049.67
1049.06
1049.28
1054.39
1089.33
1303.62
1720.49
1995.41
2124.88
2232.56
2333.92
2461.41
2595.65
3364.95
3173.35
3033.63
2920.76
2817.02
2732.99
2671.96
2620.62
2510.06
2477.79
2532.38
2570.94
2569.39
2519.31
2411.04
2265.92
2106.2
1919.04
1670.62
1395.16
1222.38
1156.1
1122.77
1096.74
1075.37
1059.32
1048.68
1044.26
1043.56
1044.01
1049.23
1084.18
1298.9
1717.51
1992.26
2122.43
2229.27
2330.37
2459.14
2595.2
3538.63
3309.18
3121.11
2974.4
2861.98
2820.25
2792.71
2798.07
2765.94
2647.56
2657.57
2669.78
2661.97
2641.26
2556.21
2409.75
2233.78
2036.98
1788.81
1486.92
1255.28
1160.13
1122.02
1095.5
1073.57
1056.61
1045.02
1039.98
1039.17
1039.82
1045.31
1080.39
1296.78
1716.84
1990.36
2120.89
2226.96
2327.8
2457.53
2595.08
3632.41
3388.35
3162.22
2958.69
2778.36
2757.65
2782.3
2860.38
2970.62
2913.6
2783.04
2797.13
2776
2746.73
2686.51
2552.47
2364.12
2151.4
1898.76
1582.37
1299.01
1167.05
1121.47
1094.47
1072.19
1054.45
1042.01
1036.37
1035.48
1036.34
1041.99
1077.18
1293.75
1714.89
1987.75
2118.93
2224.09
2325.01
2455.41
2594.25
3668.84
3445.35
3221.43
2983.02
2712.87
2600.12
2658.55
2797.52
3024.77
3127.07
2997.8
2892.19
2883.39
2850.11
2806.75
2690.16
2494.07
2261.44
1998.18
1672.25
1348.63
1177.18
1121.4
1093.69
1071.24
1052.9
1039.71
1033.51
1032.55
1033.63
1039.55
1074.91
1292.6
1715.17
1987.03
2118.65
2222.46
2323.62
2454.29
2593.92
3672.76
3519.8
3324.36
3083.4
2812.07
2588.89
2434.09
2520.11
2984.77
3244.22
3184.51
3009.84
2955.21
2928.07
2903.28
2816.37
2620.39
2364.37
2083.59
1749.13
1396.97
1188.77
1121.43
1092.92
1070.44
1051.63
1037.81
1031.12
1030.12
1031.41
1037.55
1073.08
1291.28
1714.75
1985.77
2117.81
2220.37
2322.3
2452.76
2593.23
3629.5
3304.18
3000.72
2747.11
2548.84
2364.48
2224.16
2237.7
2675.15
3230.57
3235.84
3091.38
3019.23
3001.2
2985.4
2919.9
2731.25
2455.93
2154.29
1809.62
1438.02
1200.13
1121.71
1092.29
1069.89
1050.72
1036.37
1029.28
1028.26
1029.73
1036.08
1071.76
1290.63
1715.25
1985.56
2117.55
2219.07
2321.51
2451.62
2592.75
3167.32
2924.16
2715.07
2554.39
2431.76
2266.76
2045.04
2007.54
2300.32
3107.57
3206.89
3103.54
3028.98
3018.79
3025.05
2991.1
2820.9
2532.07
2208.35
1851.22
1466.52
1208.67
1121.97
1091.89
1069.63
1050.16
1035.42
1028.04
1027.04
1028.65
1035.14
1070.93
1290.3
1715.77
1985.4
2116.92
2218.41
2321.18
2451.69
2593.21
)
;

boundaryField
{
    inlet
    {
        type            calculated;
        value           uniform 14000.1;
    }
    outlet
    {
        type            calculated;
        value           nonuniform List<scalar> 
165
(
3308.49
3773.92
3774.78
3771.68
3746.22
3649.31
3470.1
3223.9
2983.3
2800.4
2670.32
2628.51
2631.82
2624.96
2607.29
2575.41
2560.22
2581.41
3060.78
4173.93
4173.93
3319.6
2655.71
2581.02
2561.93
2557.18
2581.08
2622.68
2646.67
2656.76
2662.78
2666.33
2667.96
2667.32
2667.17
2668.59
2671.8
2675.82
2680.16
2684.4
2688.26
2691.88
2694.7
2696.57
2697.54
2697.82
2697.86
2697.41
2696.71
2695.23
2693.25
2689.04
2679.77
2654.83
2612.53
2574.2
2578.11
2624.24
3120.86
4105.07
2709.79
2708.98
2707.88
2706.53
2705.03
2703.52
2702.16
2700.55
2698.69
2695.74
2692.14
2685.83
2672.95
2642.03
2597.02
2566.51
2574.43
2626.57
3137.16
4105.07
2710.85
2711.21
2711.41
2711.21
2710.85
4105.07
3137.16
2626.57
2574.43
2566.51
2597.02
2642.03
2672.95
2685.83
2692.14
2695.74
2698.69
2700.55
2702.16
2703.52
2705.03
2706.53
2707.88
2708.98
2709.79
4173.93
3319.6
2655.71
2581.02
2561.93
2557.18
2581.08
2622.68
2646.67
2656.76
2662.78
2666.33
2667.96
2667.32
2667.17
2668.59
2671.8
2675.82
2680.16
2684.4
2688.26
2691.88
2694.7
2696.57
2697.54
2697.82
2697.86
2697.41
2696.71
2695.23
2693.25
2689.04
2679.77
2654.83
2612.53
2574.2
2578.11
2624.24
3120.86
4105.07
4173.93
3060.78
2581.41
2560.22
2575.41
2607.29
2624.96
2631.82
2628.51
2670.32
2800.4
2983.3
3223.9
3470.1
3649.31
3746.22
3771.68
3774.78
3773.92
3308.49
)
;
    }
    obstacle
    {
        type            calculated;
        value           nonuniform List<scalar> 
40
(
21785.3
12564.7
12791.3
12901.1
12857.2
12755.8
12580.7
12414.4
12311.6
12249.7
21785.3
12564.7
12791.3
12901.1
12857.2
12755.8
12580.7
12414.4
12311.6
12249.7
12357.7
12172.1
12031.1
11677.9
11543.1
12357.7
12172.1
12031.1
11677.9
11543.1
6131.64
4176.99
3242.84
2720.75
2205.3
6131.64
4176.99
3242.84
2720.75
2205.3
)
;
    }
    empty
    {
        type            empty;
    }
}


// ************************************************************************* //
