/*--------------------------------*- C++ -*----------------------------------*\
| =========                 |                                                 |
| \\      /  F ield         | OpenFOAM: The Open Source CFD Toolbox           |
|  \\    /   O peration     | Version:  v1912                                 |
|   \\  /    A nd           | Website:  www.openfoam.com                      |
|    \\/     M anipulation  |                                                 |
\*---------------------------------------------------------------------------*/
FoamFile
{
    version     2.0;
    format      ascii;
    class       volScalarField;
    location    "0.2";
    object      p;
}
// * * * * * * * * * * * * * * * * * * * * * * * * * * * * * * * * * * * * * //

dimensions      [1 -1 -2 0 0 0 0];


internalField   nonuniform List<scalar> 
4800
(
1
1
1
1
1
1
1
1
1
1
1
1
1
1
1
1
1
1
1
1
1
1
1
1
1
1
1
1
1
1
1
1
1
1
1
1
1
1
1
1
1
1
1
1
1
1
1
1
1
1
1
1
1
1
1
1
1
1
1
1
1
1
1
1
1
1
1
1
1
1
1
1
1
1
1
1
1
1
1
1
1
1
1
1
1
1
1
1
1
1
1
1
1
1
1
1
1
1
1
1
1
1
1
1
1
1
1
1
1
1
1
1
1
1
1
1
1
1
1
1
1
1
1
1
1
1
1
1
1
1
1
1
1
1
1
1
1
1
1
1
1
1
1
1
1
1
1
1
1
1
1
1
1
1
1
1
1
1
1
1
1
1
1
1
1
1
1
1
1
1
1
1
1
1
1
1
1
1
1
1
1
1
1
1
1
1
1
1
1
1
1
1
1
1
1
1
1
1
1
1
1
1
1
1
1
1
1
1
1
1
1
1
1
1
1
1
1
1
1
1
1
1
1
1
1
1
1
1
1
1
1
1
1
1
1
1
1
1
1
1
1
1
1
1
1
1
1
1
1
1
1
1
1
1
1
1
1
1
1
1
1
1
1
1
1
1
1
1
1
1
1
1
1
1
1
1
1
1
1
1
1
1
1
1
1
1
1
1
1
1
1
1
1
1
1
1
1
1
1
1
1
1
1
1
1
1
1
1
1
1
1
1
1
1
1
1
1
1
1
1
1
1
1
1
1
1
1
1
1
1
1
1
1
1
1
1
1
1
1
1
1
1
1
1
1
1
1
1
1
1
1
1
1
1
1
1
1
1
1
1
1
1
1
1
1
1
1
1
1
1
1
1
1
1
1
1
1
1
1
1
1
1
1
1
1
1
1
1
1
1
1
1
1
1
1
1
1
1
1
1
1
1
1
1
1
1
1
1
1
1
1
1
1
1
1
1
1
1
1
1
1
1
1
1
1
1
1
1
1
1
1
1
1
1
1
1
1
1
1
1
1
1
1
1
1
1
1
1
1
1
1
1
1
1
1
1
1
1
1
1
1
1
1
1
1
1
1
1
1
1
1
1
1
1
1
1
1
1
1
1
1
1
1
1
1
1
1
1
1
1
1
1
1
1
1
1
1
1
1
1
1
1
1
1
1
1
1
1
1
1
1
1
1
1
1
1
1
1
1
1
1
1
1
1
1
1
1
1
1
1
1
1
1
1
1
1
1
1
1
1
1
1
1
1
1
1
1
1
1
1
1
1
1
1
1
1
1
1
1
1
1
1
1
1
1
1
1
1
1
1
1
1
1
1
1
1
1
1
1
1
1
1
1
1
1
1
1
1
1
1
1
1
1
1
1
1
1
1
1
1
1
1
1
1
1
1
1
1
1
1
1
1
1
1
1
1
1
1
1
1
1
1
1
1
1
1
1
1
1
1
1
1
1
1
1
1
1
1
1
1
1
1
1
1
1
1
1
1
1
1
1
1
1
1
1
1
1
1
1
1
1
1
1
1
1
1
1
1
1
1
1
1
1
1
1
1
1
1
1
1
1
1
1
1
1
1
1
1
1
1
1
1
1
1
1
1
1
1
1
1
1
1
1
1
1
1
1
1
1
1
1
1
1
1
1
1
1
1
1
1
1
1
1
1
1
1
1
1
1
1
1
1
1
1
1
1
1
1
1
1
1
1
1
1
1
1
1
1
1
1
1
1
1
1
1
1
1
1
1
1
1
1
1
1
1
1
1
1
1
1
1
1
1
1
1
1
1
1
1
1
1
1
1
1
1
1
1
1
1
1
1
1
1
1
1
1
1
1
1
1
1
1
1
1
1
1
1
1
1
1
1
1
1
1
1
1
1
1
1
1
1
1
1
1
1
1
1
1
1
1
1
1
1
1
1
1
1
1
1
1
1
1
1
1
1
1
1
1
1
1
1
1
1
1
1
1
1
1
1
1
1
1
1
1
1
1
1
1
1
1
1
1
1
1
1
1
1
1
1
1
1
1
1
1
1
1
1
1
1
1
1
1
1
1
1
1
1
1
1
1
1
1
1
1
1
1
1
1
1
1
1
1
1
1
1
1
1
1
1
1
1
1
1
1
1
1
1
1
1
1
1
1
1
1
1
1
1
1
1
1
1
1
1
1
1
1
1
1
1
1
1
1
1
1
1
1
1
1
1
1
1
1
1
1
1
1
1
1
1
1
1
1
1
1
1
1
1
1
1
1
1
1
1
1
1
1
1
1
1
1
1
1
1
1
1
1
1
1
1
1
1
1
1
1
1
1
1
1
1
1
1
1
1
1
1
1
1
1
1
1
1
1
1
1
1
1
1
1
1
1
1
1
1
1
1
1
1
1
1
1
1
1
1
1
1
1
1
1
1
1
1
1
1
1
1
1
1
1
1
1
1
1
1
1
1
1
1
1
1
1
1
1
1
1
1
1
1
1
1
1
1
1
1
1
1
1
1
1
1
1
1
1
1
1
1
1
1
1
1
1
1
1
1
1
1
1
1
1
1
1
1
1
1
1
1
1
1
1
1
1
1
1
1
1
1
1
1
1
1
1
1
1
1
1
1
1
1
1
1
1
1
1
1
1
1
1
1
1
1
1
1
1
1
1
1
1
1
1
1
1
1
1
1
1
1
1
1
1
1
1
1
1
1
1
1
1
1
1
1
1
1
1
1
1
1
1
1
1
1
1
1
1
1
1
1
1
1
1
1
1
1
1
1
1
1
1
1
1
1
1
1
1
1
1
1
1
1
1
1
1
1
1
1
1
1
1
1
1
1
1
1
1
1
1
1
1
1
1
1
1
1
1
1
1
1
1
1
1
1
1
1
1
1
1
1
1
1
1
1
1
1
1
1
1
1
1
1
1
1
1
1
1
1
1
1
1
1
1
1
1
1
1
1
1
1
1
1
1
1
1
1
1
1
1
1
1
1
1
1
1
1
1
1
1
1
1
1
1
1
1
1
1
1
1
1
1
1
1
1
1
1
1
1
1
1
1
1
1
1
1
1
1
1
1
1
1
1
1
1
1
1
1
1
1
1
1
1
1
1
1
1
1
1
1
1
1
1
1
1
1
1
1
1
1
1
1
1
1
1
1
1
1
1
1
1
1
1
1
1
1
1
1
1
1
1
1
1
1
1
1
1
1
1
1
1
1
1
1
1
1
1
1
1
1
1
1
1
1
1
1
1
1
1
1
1
1
1
1
1
1
1
1
1
1
1
1
1
1
1
1
1
1
1
1
1
1
1
1
1
1
1
1
1
1
1
1
1
1
1
1
1
1
1
1
1
1
1
1
1
1
1
1
1
1
1
1
1
1
1
1
1
1
1
1
1
1
1
1
1
1
1
1
1
1
1
1
1
1
1
1
1
1
1
1
1
1
1
1
1
1
1
1
1
1
1
1
1
1
1
1
1
1
1
1
1
1
1
1
1
1
1
1
1
1
1
1
1
1
1
1
1
1
1
1
1
1
1
1
1
1
1
1
1
1
1
1
1
1
1
1
1
1
1
1
1
1
1
1
1
1
1
1
1
1
1
1
1
1
1
1
1
1
1
1
1
1
1
1
1
1
1
1
1
1
1
1
1
1
1
1
1
1
1
1
1
1
1
1
1
1
1.26194
1.67806
2.17128
2.76103
3.42012
3.94005
4.42068
5.15665
5.96009
6.12608
6.33456
6.79164
6.93157
6.83469
6.61565
6.38146
6.03554
5.56563
4.96241
4.72596
4.64816
4.50896
4.35918
4.36115
4.40017
4.47205
4.5431
4.56178
4.58225
4.63264
4.68572
4.72312
4.73293
4.72666
4.72767
4.73901
4.74769
4.74553
4.72358
4.70664
4.70789
4.73762
4.78171
4.79904
4.80135
4.79517
4.78267
4.77406
4.76546
4.75268
4.73276
4.70998
4.70229
4.70833
4.73188
4.76869
4.80055
4.82187
4.82897
4.82755
4.81363
4.78732
4.75798
4.73732
4.72772
4.72533
4.72816
4.73459
4.74277
4.75471
4.7759
4.80152
4.82755
4.84471
4.84831
4.84394
4.82805
4.80633
4.78526
4.76743
1
0.999786
1.0027
1.0076
1.0603
1.23137
1.42116
1.59422
1.94836
2.4647
2.82779
3.34305
3.82923
4.17455
4.49982
4.79994
4.92634
5.00636
5.06652
5.07289
5.12503
5.10402
4.95276
4.84336
4.78252
4.74457
4.69482
4.60419
4.57279
4.58123
4.60857
4.65448
4.67469
4.6819
4.70019
4.7397
4.75203
4.74748
4.73464
4.72584
4.72558
4.73312
4.73649
4.73842
4.74448
4.75848
4.77519
4.78061
4.78132
4.77755
4.76934
4.75489
4.73887
4.73581
4.74151
4.74648
4.75036
4.76028
4.77503
4.78431
4.78593
4.7801
4.77865
4.78026
4.78374
4.7869
4.78728
4.78138
4.77041
4.76515
4.76444
4.76696
4.77391
4.78485
4.7961
4.80091
4.80048
4.79281
4.78477
4.78478
1
1
1
1
0.999998
1
1
0.999722
0.998692
1.02139
1.07237
1.20809
1.50703
1.9294
2.55239
3.37235
4.44543
4.93253
5.28968
5.54173
5.5223
5.48561
5.40084
5.2651
5.13914
4.92518
4.74682
4.60539
4.56484
4.57694
4.61109
4.64015
4.65314
4.66219
4.68019
4.71457
4.73825
4.74488
4.74521
4.75029
4.7568
4.75694
4.73982
4.71945
4.71168
4.71554
4.73454
4.76935
4.79497
4.799
4.79299
4.78556
4.78032
4.77283
4.7635
4.75077
4.74107
4.73097
4.72244
4.72349
4.73491
4.75593
4.78118
4.80357
4.81935
4.82648
4.82761
4.82274
4.80569
4.78456
4.77124
4.76272
4.75738
4.75293
4.75042
4.75284
4.76003
4.77023
4.78198
4.79882
1
1
1
1
1
1
1
1
1
1
1
1
0.999939
0.999444
1.0266
1.16789
1.527
2.27218
3.03736
3.97769
4.50363
4.7916
5.02466
4.95883
4.9562
5.04612
5.04368
4.99448
4.88043
4.8367
4.8054
4.76531
4.68206
4.59822
4.57664
4.58514
4.62066
4.67714
4.73899
4.76916
4.77798
4.77792
4.76199
4.729
4.70228
4.69324
4.69885
4.72075
4.75197
4.77813
4.79814
4.81087
4.81083
4.80003
4.78608
4.77595
4.76323
4.74333
4.72224
4.71326
4.71417
4.72133
4.74028
4.77795
4.82173
4.84621
4.84959
4.84336
4.82547
4.79658
4.77081
4.75803
4.74906
4.74404
4.74303
4.74592
4.75036
4.75621
4.76359
4.7827
1
1
1
1
1
1
1
1
1
1
1
1
1
1
1
1
0.999163
1.01485
1.10249
1.33795
1.9927
2.73785
3.58874
4.16472
4.61267
5.12295
5.1629
5.172
5.15699
5.10695
5.03803
4.88218
4.71411
4.60617
4.5926
4.60062
4.62707
4.66789
4.71189
4.74814
4.75724
4.7565
4.75011
4.73092
4.71226
4.70841
4.72138
4.73823
4.74616
4.7521
4.76364
4.77431
4.78123
4.78953
4.79417
4.78974
4.77893
4.76848
4.7575
4.73971
4.73017
4.72998
4.73272
4.74486
4.7692
4.79577
4.81048
4.81373
4.80796
4.7902
4.77879
4.77633
4.77576
4.77291
4.76942
4.76864
4.77088
4.77424
4.77634
4.78199
1
1
1
1
1
1
1
1
1
1
1
1
1
1
1
1
1
1
1
0.999422
1.00656
1.05895
1.22102
1.75165
2.40188
3.24639
3.85732
4.32657
4.76677
4.84542
4.86915
4.8899
4.85287
4.78243
4.75142
4.74782
4.73206
4.72704
4.70789
4.68803
4.67642
4.67622
4.68767
4.69906
4.70878
4.73954
4.7723
4.77704
4.76981
4.74822
4.72671
4.72006
4.72239
4.73855
4.77184
4.79481
4.80167
4.80511
4.80704
4.80337
4.78483
4.75876
4.75157
4.74838
4.74889
4.75156
4.75443
4.75649
4.76023
4.76889
4.78191
4.79542
4.80287
4.8049
4.80493
4.80393
4.80205
4.79905
4.79648
4.79189
1
1
1
1
1
1
1
1
1
1
1
1
1
1
1
1
1
1
1
1
1
1
0.999637
1.00149
1.0265
1.15402
1.60748
2.17461
2.97996
3.64982
4.26447
4.80865
4.87913
4.93446
4.93548
4.90963
4.86011
4.75522
4.64834
4.61325
4.6138
4.6358
4.66886
4.7085
4.75894
4.78649
4.79196
4.78097
4.75968
4.72518
4.69188
4.68093
4.68253
4.69177
4.72165
4.76697
4.80283
4.821
4.82743
4.828
4.82369
4.80837
4.77228
4.74678
4.73821
4.73854
4.74052
4.74044
4.7399
4.74568
4.76012
4.78194
4.80312
4.81561
4.82187
4.824
4.82196
4.81595
4.80648
4.7916
1
1
1
1
1
1
1
1
1
1
1
1
1
1
1
1
1
1
1
1
1
1
1
1
1
0.999852
1.00057
1.01403
1.1203
1.50842
2.01222
2.80708
3.45682
4.14771
4.63081
4.67903
4.72319
4.72688
4.6889
4.65307
4.65403
4.66656
4.68541
4.71963
4.75357
4.76958
4.77795
4.786
4.78926
4.77261
4.72397
4.6884
4.68448
4.69387
4.70845
4.72474
4.74888
4.77857
4.80592
4.82389
4.8257
4.81294
4.8025
4.79388
4.78248
4.77417
4.76706
4.75724
4.7494
4.74939
4.75641
4.76716
4.78037
4.79142
4.79661
4.79982
4.80259
4.80022
4.7902
4.7783
1
1
1
1
1
1
1
1
1
1
1
1
1
1
1
1
1
1
1
1
1
1
1
1
1
1
1
1
0.999989
1.00012
1.0092
1.10928
1.43489
1.94388
2.75439
3.45102
4.22523
4.59446
4.73639
4.79448
4.78236
4.7412
4.69423
4.65713
4.63773
4.64937
4.70349
4.75356
4.77076
4.78013
4.78911
4.78627
4.77464
4.76095
4.73772
4.71932
4.71583
4.72245
4.7348
4.74781
4.76167
4.77462
4.78579
4.79504
4.80834
4.82065
4.82019
4.80999
4.78881
4.76778
4.76183
4.76469
4.76587
4.76134
4.75833
4.75982
4.76384
4.76729
4.77092
4.77501
1
1
1
1
1
1
1
1
1
1
1
1
1
1
1
1
1
1
1
1
1
1
1
1
1
1
1
1
1
1
1
0.999984
1.00012
1.00905
1.12647
1.45063
1.93359
2.69801
3.42457
4.27877
4.55446
4.54713
4.62244
4.64046
4.59527
4.58739
4.62043
4.66794
4.71289
4.76148
4.78003
4.79297
4.81418
4.83512
4.83373
4.79676
4.74543
4.71907
4.71546
4.71493
4.71324
4.71536
4.72325
4.75102
4.8
4.82877
4.83531
4.83095
4.82005
4.809
4.79434
4.77578
4.75921
4.74979
4.74543
4.74695
4.75053
4.75298
4.75473
4.76507
1
1
1
1
1
1
1
1
1
1
1
1
1
1
1
1
1
1
1
1
1
1
1
1
1
1
1
1
1
1
1
1
1
0.999987
0.999934
1.00071
1.0108
1.13502
1.43153
2.0338
2.81447
3.54606
4.28553
4.5943
4.66181
4.66111
4.61537
4.59903
4.61373
4.64839
4.71543
4.76104
4.80034
4.82967
4.83709
4.83427
4.82751
4.80395
4.76833
4.73543
4.71024
4.70166
4.70794
4.7271
4.75281
4.77162
4.79332
4.8033
4.8041
4.80347
4.80799
4.80909
4.80043
4.787
4.76888
4.75385
4.74926
4.75155
4.75455
4.76571
1
1
1
1
1
1
1
1
1
1
1
1
1
1
1
1
1
1
1
1
1
1
1
1
1
1
1
1
1
1
1
1
1
1
1
0.999999
1
0.999913
1.00092
1.01973
1.19171
1.51689
2.13296
2.93554
3.85881
4.51105
4.57105
4.53811
4.60571
4.59816
4.58832
4.59884
4.62194
4.69139
4.78368
4.81238
4.81382
4.82208
4.82698
4.83072
4.81267
4.77324
4.74169
4.73404
4.74157
4.74901
4.74683
4.74378
4.74674
4.75939
4.78466
4.799
4.79739
4.79359
4.79373
4.79319
4.78696
4.7777
4.76939
4.76975
1
1
1
1
1
1
1
1
1
1
1
1
1
1
1
1
1
1
1
1
1
1
1
1
1
1
1
1
1
1
1
1
1
1
1
1
1
0.999998
0.999998
0.999981
1.00011
1.00242
1.03796
1.24305
1.68228
2.47375
3.22226
4.01616
4.55243
4.64381
4.64069
4.61041
4.55734
4.57194
4.6383
4.70794
4.72826
4.76046
4.799
4.83143
4.8395
4.83395
4.83224
4.82474
4.81267
4.78863
4.74587
4.71862
4.71633
4.72406
4.74397
4.76557
4.78106
4.78984
4.79605
4.79999
4.80253
4.8005
4.79638
4.79068
1
1
1
1
1
1
1
1
1
1
1
1
1
1
1
1
1
1
1
1
1
1
1
1
1
1
1
1
1
1
1
1
1
1
1
1
1
1
1
1
1
0.999999
0.99995
1.00037
1.00705
1.10268
1.37105
1.89401
2.75014
3.66474
4.44632
4.61254
4.59711
4.68529
4.67635
4.65278
4.61321
4.60278
4.63259
4.69718
4.77553
4.80911
4.82801
4.84882
4.86125
4.85933
4.82157
4.76173
4.72856
4.72098
4.72911
4.74923
4.75794
4.76066
4.76715
4.78138
4.79867
4.80134
4.79896
4.79702
1
1
1
1
1
1
1
1
1
1
1
1
1
1
1
1
1
1
1
1
1
1
1
1
1
1
1
1
1
1
1
1
1
1
1
1
1
1
1
1
1
1
0.999998
0.999999
0.999991
1.00003
1.00161
1.02214
1.19457
1.61876
2.49366
3.35133
4.07697
4.54686
4.75924
4.75558
4.68437
4.58118
4.58498
4.60362
4.66469
4.70339
4.72247
4.779
4.83333
4.84761
4.82776
4.80088
4.79687
4.79477
4.78909
4.77773
4.76326
4.75069
4.75229
4.76321
4.77561
4.77884
4.7778
4.7853
1
1
1
1
1
1
1
1
1
1
1
1
1
1
1
1
1
1
1
1
1
1
1
1
1
1
1
1
1
1
1
1
1
1
1
1
1
1
1
1
1
1
1
1
1
1
1
0.999966
1.00044
1.00844
1.12466
1.50813
2.08646
2.90539
3.86559
4.58491
4.68338
4.66732
4.76151
4.76296
4.72321
4.69056
4.66031
4.68097
4.71118
4.73697
4.75333
4.76438
4.78667
4.81468
4.82558
4.82929
4.81721
4.79131
4.77662
4.77188
4.76884
4.76387
4.75848
4.76305
1
1
1
1
1
1
1
1
1
1
1
1
1
1
1
1
1
1
1
1
1
1
1
1
1
1
1
1
1
1
1
1
1
1
1
1
1
1
1
1
1
1
1
1
1
1
1
0.999998
0.999998
0.999983
1.00023
1.00494
1.04497
1.29184
1.82663
2.82668
3.72219
4.31256
4.63419
4.81754
4.83527
4.81907
4.73379
4.68082
4.66905
4.66049
4.67663
4.68196
4.69483
4.75135
4.8201
4.82992
4.81335
4.79582
4.79358
4.79624
4.79606
4.78238
4.76364
4.7573
1
1
1
1
1
1
1
1
1
1
1
1
1
1
1
1
1
1
1
1
1
1
1
1
1
1
1
1
1
1
1
1
1
1
1
1
1
1
1
1
1
1
1
1
1
1
1
1
1
0.999999
0.999999
1
0.999986
1.00189
1.0218
1.26777
1.95073
2.76395
3.46842
4.29265
4.7581
4.80609
4.78201
4.82513
4.84796
4.80512
4.74447
4.69604
4.69462
4.73319
4.76418
4.77255
4.75874
4.75626
4.76836
4.78607
4.79405
4.78516
4.77417
4.78084
1
1
1
1
1
1
1
1
1
1
1
1
1
1
1
1
1
1
1
1
1
1
1
1
1
1
1
1
1
1
1
1
1
1
1
1
1
1
1
1
1
1
1
1
1
1
1
1
1
1
1
1
0.999999
0.999999
0.999979
1.00275
1.03185
1.22514
1.74382
2.62498
3.63158
4.19585
4.49047
4.72492
4.84343
4.85388
4.84134
4.81198
4.79903
4.79535
4.7728
4.74754
4.72147
4.71073
4.72013
4.73668
4.74967
4.76062
4.77041
4.78142
1
1
1
1
1
1
1
1
1
1
1
1
1
1
1
1
1
1
1
1
1
1
1
1
1
1
1
1
1
1
1
1
1
1
1
1
1
1
1
1
1
1
1
1
1
1
1
1
1
1
1
1
1
1
0.999998
1
0.999986
1.00179
1.02043
1.16197
1.80152
3.00133
3.68462
4.10091
4.58416
4.76117
4.74278
4.77492
4.83586
4.88586
4.89357
4.8592
4.79364
4.7377
4.72795
4.74048
4.74204
4.73812
4.73793
4.75786
1
1
1
1
1
1
1
1
1
1
1
1
1
1
1
1
1
1
1
1
1
1
1
1
1
1
1
1
1
1
1
1
1
1
1
1
1
1
1
1
1
1
1
1
1
1
1
1
1
1
1
1
1
1
1
1
0.999998
0.999999
0.999985
1.00133
1.03285
1.27407
2.00038
2.87849
3.97331
4.40114
4.42232
4.46332
4.60097
4.78824
4.84608
4.82242
4.80286
4.80389
4.81309
4.82207
4.79154
4.76056
4.74498
4.75406
1
1
1
1
1
1
1
1
1
1
1
1
1
1
1
1
1
1
1
1
1
1
1
1
1
1
1
1
1
1
1
1
1
1
1
1
1
1
1
1
1
1
1
1
1
1
1
1
1
1
1
1
1
1
1
1
1
1
0.999999
0.999996
1.00002
1.00348
1.05831
1.26982
1.96279
3.33729
4.35997
4.39066
4.49015
4.63879
4.70937
4.6752
4.64053
4.68786
4.78493
4.84021
4.83248
4.79771
4.7796
4.7879
1
1
1
1
1
1
1
1
1
1
1
1
1
1
1
1
1
1
1
1
1
1
1
1
1
1
1
1
1
1
1
1
1
1
1
1
1
1
1
1
1
1
1
1
1
1
1
1
1
1
1
1
1
1
1
1
1
1
1
1
1
0.999995
1.0001
1.00357
1.06179
1.44267
2.56424
3.69208
4.39903
4.73307
4.75444
4.68643
4.58152
4.59684
4.66724
4.75918
4.79114
4.77222
4.77445
4.80401
1
1
1
1
1
1
1
1
1
1
1
1
1
1
1
1
1
1
1
1
1
1
1
1
1
1
1
1
1
1
1
1
1
1
1
1
1
1
1
1
1
1
1
1
1
1
1
1
1
1
1
1
1
1
1
1
1
1
1
1
1
0.999999
0.999999
0.999994
1.00024
1.01213
1.22081
1.84955
2.80106
3.96326
4.66491
4.76168
4.71142
4.7383
4.74506
4.73226
4.74523
4.71903
4.70445
4.74374
1
1
1
1
1
1
1
1
1
1
1
1
1
1
1
1
1
1
1
1
1
1
1
1
1
1
1
1
1
1
1
1
1
1
1
1
1
1
1
1
1
1
1
1
1
1
1
1
1
1
1
1
1
1
1
1
1
1
1
1
1
1
1
0.999999
0.999999
1.00001
1.00307
1.04175
1.32724
2.05221
3.35082
4.22396
4.54797
4.71646
4.8374
4.85721
4.83417
4.78689
4.74978
4.74669
1
1
1
1
1
1
1
1
1
1
1
1
1
1
1
1
1
1
1
1
1
1
1
1
1
1
1
1
1
1
1
1
1
1
1
1
1
1
1
1
1
1
1
1
1
1
1
1
1
1
1
1
1
1
1
1
1
1
1
1
1
1
1
1
1
1
0.999996
1.00012
1.00596
1.07864
1.63078
2.98017
3.80673
4.28333
4.72136
4.82882
4.79997
4.81011
4.82673
4.81128
1
1
1
1
1
1
1
1
1
1
1
1
1
1
1
1
1
1
1
1
1
1
1
1
1
1
1
1
1
1
1
1
1
1
1
1
1
1
1
1
1
1
1
1
1
1
1
1
1
1
1
1
1
1
1
1
1
1
1
1
1
1
1
1
1
1
0.999999
1
0.999996
1.00084
1.03157
1.35149
2.39664
3.47077
4.44078
4.61033
4.55056
4.57825
4.70487
4.7864
1
1
1
1
1
1
1
1
1
1
1
1
1
1
1
1
1
1
1
1
1
1
1
1
1
1
1
1
1
1
1
1
1
1
1
1
1
1
1
1
1
1
1
1
1
1
1
1
1
1
1
1
1
1
1
1
1
1
1
1
1
1
1
1
1
1
1
1
1
0.999998
1.00017
1.01133
1.18248
1.78726
2.96009
4.27716
4.59115
4.61561
4.67569
4.68552
1
1
1
1
1
1
1
1
1
1
1
1
1
1
1
1
1
1
1
1
1
1
1
1
1
1
1
1
1
1
1
1
1
1
1
1
1
1
1
1
1
1
1
1
1
1
1
1
1
1
1
1
1
1
1
1
1
1
1
1
1
1
1
1
1
1
1
1
1
1
0.999999
1.00003
1.00269
1.05961
1.3476
2.49079
3.81587
4.55143
4.80353
4.80868
1
1
1
1
1
1
1
1
1
1
1
1
1
1
1
1
1
1
1
1
1
1
1
1
1
1
1
1
1
1
1
1
1
1
1
1
1
1
1
1
1
1
1
1
1
1
1
1
1
1
1
1
1
1
1
1
1
1
1
1
1
1
1
1
1
1
1
1
1
1
1
1
0.999998
1.00046
1.0102
1.21648
2.2677
3.48705
4.25559
4.71617
1
1
1
1
1
1
1
1
1
1
1
1
1
1
1
1
1
1
1
1
1
1
1
1
1
1
1
1
1
1
1
1
1
1
1
1
1
1
1
1
1
1
1
1
1
1
1
1
1
1
1
1
1
1
1
1
1
1
1
1
1
1
1
1
1
1
1
1
1
1
1
1
1
0.999999
1.00005
1.00636
1.15677
2.00526
3.1434
4.2811
1
1
1
1
1
1
1
1
1
1
1
1
1
1
1
1
1
1
1
1
1
1
1
1
1
1
1
1
1
1
1
1
1
1
1
1
1
1
1
1
1
1
1
1
1
1
1
1
1
1
1
1
1
1
1
1
1
1
1
1
1
1
1
1
1
1
1
1
1
1
1
1
1
1
1
1.00003
1.00408
1.10899
1.54643
3.2395
1
1
1
1
1
1
1
1
1
1
1
1
1
1
1
1
1
1
1
1
1
1
1
1
1
1
1
1
1
1
1
1
1
1
1
1
1
1
1
1
1
1
1
1
1
1
1
1
1
1
1
1
1
1
1
1
1
1
1
1
1
1
1
1
1
1
1
1
1
1
1
1
1
1
1
1
1.00001
1.00202
1.02656
1.95192
1
1
1
1
1
1
1
1
1
1
1
1
1
1
1
1
1
1
1
1
1
1
1
1
1
1
1
1
1
1
1
1
1
1
1
1
1
1
1
1
1
1
1
1
1
1
1
1
1
1
1
1
1
1
1
1
1
1
1
1
1
1
1
1
1
1
1
1
1
1
1
1
1
1
1
1
1
1
1.00054
1.22515
1
1
1
1
1
1
1
1
1
1
1
1
1
1
1
1
1
1
1
1
1
1
1
1
1
1
1
1
1
1
1
1
1
1
1
1
1
1
1
1
1
1
1
1
1
1
1
1
1
1
1
1
1
1
1
1
1
1
1
1
1
1
1
1
1
1
1
1
1
1
1
1
1
1
1
1
1
1
1.00001
1.02943
1
1
1
1
1
1
1
1
1
1
1
1
1
1
1
1
1
1
1
1
1
1
1
1
1
1
1
1
1
1
1
1
1
1
1
1
1
1
1
1
1
1
1
1
1
1
1
1
1
1
1
1
1
1
1
1
1
1
1
1
1
1
1
1
1
1
1
1
1
1
1
1
1
1
1
1
1
1
1
1.00207
1
1
1
1
1
1
1
1
1
1
1
1
1
1
1
1
1
1
1
1
1
1
1
1
1
1
1
1
1
1
1
1
1
1
1
1
1
1
1
1
1
1
1
1
1
1
1
1
1
1
1
1
1
1
1
1
1
1
1
1
1
1
1
1
1
1
1
1
1
1
1
1
1
1
1
1
1
1
1
1.00007
1
1
1
1
1
1
1
1
1
1
1
1
1
1
1
1
1
1
1
1
1
1
1
1
1
1
1
1
1
1
1
1
1
1
1
1
1
1
1
1
1
1
1
1
1
1
1
1
1
1
1
1
1
1
1
1
1
1
1
1
1
1
1
1
1
1
1
1
1
1
1
1
1
1
1
1
1
1
1
1
1
1
1
1
1
1
1
1
1
1
1
1
1
1
1
1
1
1
1
1
1
1
1
1
1
1
1
1
1
1
1
1
1
1
1
1
1
1
1
1
1
1
1
1
1
1
1
1
1
1
1
1
1
1
1
1
1
1
1
1
1
1
1
1
1
1
1
1
1
1
1
1
1
1
1
1
1
1
1
1
1
1
1
1
1
1
1
1
1
1
1
1
1
1
1
1
1
1
1
1
1
1
1
1
1
1
1
1
1
1
1
1
1
1
1
1
1
1
1
1
1
1
1
1
1
1
1
1
1
1
1
1
1
1
1
1
1
1
1
1
1
1
1
1
1
1
1
1
1
1
1
1
1
1
1
1
1
1
1
1
)
;

boundaryField
{
    inlet
    {
        type            fixedValue;
        value           uniform 1;
    }
    outlet
    {
        type            zeroGradient;
    }
    bottom
    {
        type            symmetryPlane;
    }
    top
    {
        type            symmetryPlane;
    }
    obstacle
    {
        type            zeroGradient;
    }
    defaultFaces
    {
        type            empty;
    }
}


// ************************************************************************* //
