/*--------------------------------*- C++ -*----------------------------------*\
| =========                 |                                                 |
| \\      /  F ield         | OpenFOAM: The Open Source CFD Toolbox           |
|  \\    /   O peration     | Version:  v1912                                 |
|   \\  /    A nd           | Website:  www.openfoam.com                      |
|    \\/     M anipulation  |                                                 |
\*---------------------------------------------------------------------------*/
FoamFile
{
    version     2.0;
    format      ascii;
    class       surfaceScalarField;
    location    "1.2";
    object      phi;
}
// * * * * * * * * * * * * * * * * * * * * * * * * * * * * * * * * * * * * * //

dimensions      [0 3 -1 0 0 0 0];
oriented        oriented;


internalField   nonuniform List<scalar> 
19800
(
7.03591e-11
-7.34631e-11
2.4701e-10
-1.76651e-10
4.41482e-10
-1.94472e-10
5.94564e-10
-1.53082e-10
6.72226e-10
-7.76621e-11
6.55648e-10
1.65782e-11
5.35383e-10
1.20266e-10
3.07915e-10
2.27468e-10
-2.64905e-11
3.34406e-10
-4.65128e-10
4.38638e-10
-1.0037e-09
5.38568e-10
-1.63682e-09
6.33127e-10
-2.35843e-09
7.21606e-10
-3.16197e-09
8.03542e-10
-4.04061e-09
8.78645e-10
-4.98736e-09
9.46749e-10
-5.99514e-09
1.00778e-09
-7.05687e-09
1.06173e-09
-8.16552e-09
1.10864e-09
-9.31413e-09
1.14861e-09
-1.04959e-08
1.18174e-09
-1.1704e-08
1.20818e-09
-1.29321e-08
1.22808e-09
-1.41737e-08
1.24161e-09
-1.54227e-08
1.24896e-09
-1.6673e-08
1.25033e-09
-1.79189e-08
1.2459e-09
-1.91548e-08
1.2359e-09
-2.03753e-08
1.22051e-09
-2.15753e-08
1.19997e-09
-2.27498e-08
1.17448e-09
-2.3894e-08
1.14426e-09
-2.50036e-08
1.10953e-09
-2.60741e-08
1.07051e-09
-2.71015e-08
1.02742e-09
-2.8082e-08
9.8047e-10
-2.90119e-08
9.29894e-10
-2.98878e-08
8.7591e-10
-3.07065e-08
8.18743e-10
-3.14651e-08
7.58618e-10
-3.21609e-08
6.95763e-10
-3.27913e-08
6.30405e-10
-3.33541e-08
5.62773e-10
-3.38472e-08
4.931e-10
-3.42688e-08
4.2162e-10
-3.46174e-08
3.4857e-10
-3.48916e-08
2.74193e-10
-3.50903e-08
1.98733e-10
-3.52127e-08
1.22435e-10
-3.52583e-08
4.55514e-11
-3.52266e-08
-3.16652e-11
-3.51177e-08
-1.08957e-10
-3.49316e-08
-1.86061e-10
-3.46689e-08
-2.62711e-10
-3.43302e-08
-3.38638e-10
-3.39167e-08
-4.13567e-10
-3.34295e-08
-4.87224e-10
-3.28701e-08
-5.59328e-10
-3.22405e-08
-6.296e-10
-3.15428e-08
-6.97755e-10
-3.07793e-08
-7.63506e-10
-2.99527e-08
-8.26566e-10
-2.90661e-08
-8.86649e-10
-2.81226e-08
-9.43465e-10
-2.71259e-08
-9.96732e-10
-2.60797e-08
-1.04617e-09
-2.49882e-08
-1.09149e-09
-2.38558e-08
-1.13242e-09
-2.26871e-08
-1.16869e-09
-2.14871e-08
-1.20003e-09
-2.02609e-08
-1.22619e-09
-1.9014e-08
-1.24692e-09
-1.7752e-08
-1.26198e-09
-1.64808e-08
-1.27114e-09
-1.52066e-08
-1.2742e-09
-1.39357e-08
-1.27095e-09
-1.26745e-08
-1.26122e-09
-1.14296e-08
-1.24483e-09
-1.0208e-08
-1.22164e-09
-9.01645e-09
-1.19155e-09
-7.862e-09
-1.15445e-09
-6.75171e-09
-1.11028e-09
-5.69269e-09
-1.05902e-09
-4.69201e-09
-1.00068e-09
-3.7567e-09
-9.35316e-10
-2.89364e-09
-8.63057e-10
-2.10954e-09
-7.84099e-10
-1.41081e-09
-6.98738e-10
-8.03407e-10
-6.07398e-10
-2.92726e-10
-5.1068e-10
1.16704e-10
-4.09429e-10
4.21551e-10
-3.04846e-10
6.20213e-10
-1.98664e-10
7.13653e-10
-9.34401e-11
7.067e-10
6.95189e-12
6.10174e-10
9.6526e-11
4.44186e-10
1.65989e-10
2.43749e-10
2.00438e-10
6.82123e-11
1.75537e-10
6.82125e-11
1.7507e-10
-2.48533e-10
4.83306e-10
-4.84886e-10
7.80148e-10
-4.91314e-10
9.60938e-10
-3.33872e-10
9.53021e-10
-6.97447e-11
7.09799e-10
2.598e-10
2.04064e-10
6.26001e-10
-5.7748e-10
1.00901e-09
-1.63825e-09
1.39518e-09
-2.97467e-09
1.77505e-09
-4.57816e-09
2.14206e-09
-6.43662e-09
2.49159e-09
-8.53545e-09
2.82044e-09
-1.08583e-08
3.12639e-09
-1.33876e-08
3.40795e-09
-1.6105e-08
3.66416e-09
-1.89917e-08
3.89445e-09
-2.20285e-08
4.09857e-09
-2.51964e-08
4.2765e-09
-2.84762e-08
4.42839e-09
-3.1849e-08
4.55456e-09
-3.52962e-08
4.65541e-09
-3.87996e-08
4.73146e-09
-4.23413e-08
4.78329e-09
-4.59039e-08
4.81152e-09
-4.94704e-08
4.81685e-09
-5.30245e-08
4.79998e-09
-5.65502e-08
4.76168e-09
-6.00324e-08
4.70271e-09
-6.34563e-08
4.62386e-09
-6.68078e-08
4.52593e-09
-7.00732e-08
4.40974e-09
-7.32398e-08
4.27613e-09
-7.62952e-08
4.12591e-09
-7.92278e-08
3.95995e-09
-8.20264e-08
3.77908e-09
-8.46806e-08
3.58416e-09
-8.71808e-08
3.37605e-09
-8.95176e-08
3.15561e-09
-9.16827e-08
2.92372e-09
-9.36682e-08
2.68126e-09
-9.5467e-08
2.42911e-09
-9.70724e-08
2.16818e-09
-9.84786e-08
1.89935e-09
-9.96805e-08
1.62356e-09
-1.00674e-07
1.34171e-09
-1.01454e-07
1.05476e-09
-1.02019e-07
7.63638e-10
-1.02366e-07
4.69323e-10
-1.02493e-07
1.72783e-10
-1.024e-07
-1.24993e-10
-1.02086e-07
-4.23002e-10
-1.01552e-07
-7.20228e-10
-1.00799e-07
-1.01564e-09
-9.98292e-08
-1.3082e-09
-9.8646e-08
-1.59684e-09
-9.72527e-08
-1.8805e-09
-9.56539e-08
-2.1581e-09
-9.3855e-08
-2.42856e-09
-9.1862e-08
-2.69077e-09
-8.96818e-08
-2.94366e-09
-8.73223e-08
-3.18611e-09
-8.47919e-08
-3.41702e-09
-8.21001e-08
-3.63529e-09
-7.9257e-08
-3.83984e-09
-7.62735e-08
-4.02959e-09
-7.31616e-08
-4.20346e-09
-6.99336e-08
-4.36042e-09
-6.66028e-08
-4.49944e-09
-6.31833e-08
-4.61951e-09
-5.96899e-08
-4.71967e-09
-5.61378e-08
-4.79899e-09
-5.25432e-08
-4.8566e-09
-4.89227e-08
-4.89164e-09
-4.52935e-08
-4.90334e-09
-4.16735e-08
-4.89099e-09
-3.80808e-08
-4.85393e-09
-3.4534e-08
-4.7916e-09
-3.10521e-08
-4.70351e-09
-2.76544e-08
-4.58928e-09
-2.43602e-08
-4.44865e-09
-2.1189e-08
-4.28149e-09
-1.81602e-08
-4.08781e-09
-1.52931e-08
-3.86781e-09
-1.26065e-08
-3.6219e-09
-1.01188e-08
-3.35077e-09
-7.84748e-09
-3.0554e-09
-5.80899e-09
-2.73723e-09
-4.01816e-09
-2.39823e-09
-2.48777e-09
-2.04107e-09
-1.22775e-09
-1.66944e-09
-2.44214e-10
-1.28838e-09
4.61987e-10
-9.04863e-10
8.97197e-10
-5.28651e-10
1.07774e-09
-1.7359e-10
1.03374e-09
1.40526e-10
8.14275e-10
3.85451e-10
4.93481e-10
5.21233e-10
1.75438e-10
4.9358e-10
2.43651e-10
1.94505e-10
-4.43038e-10
4.92477e-10
-7.82858e-10
7.16732e-10
-7.15569e-10
7.41338e-10
-3.58476e-10
4.75001e-10
1.96592e-10
-1.44605e-10
8.79406e-10
-1.15654e-09
1.63793e-09
-2.58187e-09
2.43435e-09
-4.42798e-09
3.24129e-09
-6.69191e-09
4.03899e-09
-9.36301e-09
4.81315e-09
-1.24248e-08
5.55343e-09
-1.58568e-08
6.25238e-09
-1.96351e-08
6.90467e-09
-2.37337e-08
7.50657e-09
-2.81251e-08
8.05556e-09
-3.27806e-08
8.55002e-09
-3.76711e-08
8.98907e-09
-4.2767e-08
9.37236e-09
-4.80386e-08
9.7e-09
-5.34565e-08
9.97242e-09
-5.89914e-08
1.01903e-08
-6.46146e-08
1.03547e-08
-7.0298e-08
1.04667e-08
-7.6014e-08
1.05275e-08
-8.17357e-08
1.05385e-08
-8.7437e-08
1.05013e-08
-9.30926e-08
1.04173e-08
-9.86782e-08
1.02883e-08
-1.0417e-07
1.01159e-08
-1.09546e-07
9.90174e-09
-1.14784e-07
9.64767e-09
-1.19863e-07
9.35544e-09
-1.24764e-07
9.02688e-09
-1.29468e-07
8.66379e-09
-1.33957e-07
8.26804e-09
-1.38214e-07
7.84149e-09
-1.42224e-07
7.38601e-09
-1.45972e-07
6.90351e-09
-1.49444e-07
6.39589e-09
-1.52628e-07
5.86509e-09
-1.55512e-07
5.31306e-09
-1.58086e-07
4.74177e-09
-1.6034e-07
4.15321e-09
-1.62265e-07
3.5494e-09
-1.63856e-07
2.93236e-09
-1.65106e-07
2.30416e-09
-1.66009e-07
1.66689e-09
-1.66562e-07
1.02267e-09
-1.66763e-07
3.73646e-10
-1.6661e-07
-2.78012e-10
-1.66103e-07
-9.30099e-10
-1.65243e-07
-1.58038e-09
-1.64032e-07
-2.2266e-09
-1.62474e-07
-2.86647e-09
-1.60573e-07
-3.49766e-09
-1.58335e-07
-4.11785e-09
-1.55769e-07
-4.72468e-09
-1.52882e-07
-5.31578e-09
-1.49684e-07
-5.88875e-09
-1.46186e-07
-6.4412e-09
-1.42401e-07
-6.97074e-09
-1.38343e-07
-7.47497e-09
-1.34027e-07
-7.95151e-09
-1.29469e-07
-8.39799e-09
-1.24687e-07
-8.81206e-09
-1.19699e-07
-9.19143e-09
-1.14525e-07
-9.53383e-09
-1.09188e-07
-9.83705e-09
-1.03708e-07
-1.00989e-08
-9.81104e-08
-1.03174e-08
-9.24188e-08
-1.04906e-08
-8.6659e-08
-1.06164e-08
-8.08574e-08
-1.06932e-08
-7.50414e-08
-1.07194e-08
-6.92391e-08
-1.06933e-08
-6.34792e-08
-1.06138e-08
-5.77912e-08
-1.04796e-08
-5.22048e-08
-1.02899e-08
-4.67503e-08
-1.00438e-08
-4.14579e-08
-9.74104e-09
-3.6358e-08
-9.38141e-09
-3.14807e-08
-8.96515e-09
-2.68556e-08
-8.49293e-09
-2.25116e-08
-7.9659e-09
-1.84765e-08
-7.38582e-09
-1.47767e-08
-6.75523e-09
-1.14363e-08
-6.07758e-09
-8.47697e-09
-5.35758e-09
-5.91655e-09
-4.60149e-09
-3.76831e-09
-3.81769e-09
-2.03933e-09
-3.01736e-09
-7.28648e-10
-2.21554e-09
1.75228e-10
-1.43253e-09
6.97528e-10
-6.9589e-10
8.81238e-10
-4.31843e-11
7.91978e-10
4.7471e-10
5.23153e-10
7.90058e-10
2.00899e-10
8.15834e-10
4.44551e-10
1.55121e-10
-5.9816e-10
3.40385e-10
-9.68122e-10
3.68681e-10
-7.43864e-10
1.05793e-10
-9.55881e-11
-5.46924e-10
8.49309e-10
-1.65885e-09
1.99133e-09
-3.27515e-09
3.25423e-09
-5.42138e-09
4.58058e-09
-8.10748e-09
5.92738e-09
-1.1331e-08
7.26252e-09
-1.50799e-08
8.56208e-09
-1.93348e-08
9.80827e-09
-2.40703e-08
1.09879e-08
-2.92571e-08
1.20914e-08
-3.48623e-08
1.31118e-08
-4.08508e-08
1.40441e-08
-4.7186e-08
1.48852e-08
-5.383e-08
1.5633e-08
-6.07442e-08
1.62866e-08
-6.789e-08
1.68458e-08
-7.52285e-08
1.73109e-08
-8.27213e-08
1.76831e-08
-9.03301e-08
1.79636e-08
-9.80177e-08
1.81542e-08
-1.05747e-07
1.8257e-08
-1.13483e-07
1.82742e-08
-1.2119e-07
1.82082e-08
-1.28834e-07
1.80616e-08
-1.36383e-07
1.78372e-08
-1.43805e-07
1.75377e-08
-1.51069e-07
1.71661e-08
-1.58147e-07
1.67253e-08
-1.6501e-07
1.62185e-08
-1.71632e-07
1.56487e-08
-1.77987e-07
1.5019e-08
-1.84051e-07
1.43327e-08
-1.89803e-07
1.35929e-08
-1.9522e-07
1.28029e-08
-2.00282e-07
1.19661e-08
-2.04972e-07
1.10856e-08
-2.09272e-07
1.01649e-08
-2.13166e-07
9.20745e-09
-2.16641e-07
8.21656e-09
-2.19684e-07
7.19572e-09
-2.22283e-07
6.14845e-09
-2.24429e-07
5.07829e-09
-2.26113e-07
3.98883e-09
-2.2733e-07
2.88371e-09
-2.28074e-07
1.76662e-09
-2.28342e-07
6.41289e-10
-2.28131e-07
-4.88498e-10
-2.27442e-07
-1.61891e-09
-2.26277e-07
-2.74607e-09
-2.24637e-07
-3.86604e-09
-2.22529e-07
-4.97486e-09
-2.19958e-07
-6.06852e-09
-2.16933e-07
-7.14295e-09
-2.13463e-07
-8.19409e-09
-2.09561e-07
-9.21782e-09
-2.0524e-07
-1.021e-08
-2.00515e-07
-1.11665e-08
-1.95402e-07
-1.20833e-08
-1.89921e-07
-1.29561e-08
-1.84092e-07
-1.37808e-08
-1.77936e-07
-1.45535e-08
-1.71478e-07
-1.527e-08
-1.64743e-07
-1.59264e-08
-1.57758e-07
-1.65189e-08
-1.50552e-07
-1.70436e-08
-1.43154e-07
-1.7497e-08
-1.35596e-07
-1.78754e-08
-1.27911e-07
-1.81756e-08
-1.20133e-07
-1.83943e-08
-1.12298e-07
-1.85285e-08
-1.04441e-07
-1.85756e-08
-9.66017e-08
-1.85331e-08
-8.88167e-08
-1.83987e-08
-8.11256e-08
-1.81707e-08
-7.35679e-08
-1.78476e-08
-6.61833e-08
-1.74284e-08
-5.90119e-08
-1.69124e-08
-5.20934e-08
-1.62999e-08
-4.54673e-08
-1.55913e-08
-3.9172e-08
-1.47882e-08
-3.32451e-08
-1.38929e-08
-2.77221e-08
-1.29088e-08
-2.26367e-08
-1.18407e-08
-1.80192e-08
-1.0695e-08
-1.38964e-08
-9.48034e-09
-1.02902e-08
-8.20775e-09
-7.21597e-09
-6.89189e-09
-4.68146e-09
-5.55187e-09
-2.68429e-09
-4.21272e-09
-1.20952e-09
-2.90729e-09
-2.26596e-10
-1.67882e-09
3.14402e-10
-5.84182e-10
4.86993e-10
3.02118e-10
3.92928e-10
8.84122e-10
1.68143e-10
1.04062e-09
6.12695e-10
8.23187e-11
-6.80478e-10
8.35845e-11
-9.69388e-10
-1.73877e-10
-4.86402e-10
-8.21541e-10
5.52076e-10
-1.95746e-09
1.98522e-09
-3.6518e-09
3.68568e-09
-5.95117e-09
5.55361e-09
-8.88247e-09
7.51188e-09
-1.24563e-08
9.50119e-09
-1.66699e-08
1.14761e-08
-2.15097e-08
1.34019e-08
-2.69536e-08
1.52522e-08
-3.29728e-08
1.70071e-08
-3.95329e-08
1.86515e-08
-4.65957e-08
2.01745e-08
-5.41198e-08
2.15682e-08
-6.20615e-08
2.2827e-08
-7.03758e-08
2.39473e-08
-7.90165e-08
2.49273e-08
-8.79367e-08
2.5766e-08
-9.70895e-08
2.64638e-08
-1.06428e-07
2.70218e-08
-1.15907e-07
2.74419e-08
-1.25479e-07
2.77263e-08
-1.35099e-07
2.78779e-08
-1.44725e-07
2.78999e-08
-1.54313e-07
2.77959e-08
-1.63821e-07
2.75696e-08
-1.73209e-07
2.7225e-08
-1.82437e-07
2.67663e-08
-1.91469e-07
2.61979e-08
-2.00268e-07
2.55243e-08
-2.088e-07
2.47499e-08
-2.1703e-07
2.38796e-08
-2.24929e-07
2.2918e-08
-2.32467e-07
2.18699e-08
-2.39614e-07
2.07404e-08
-2.46345e-07
1.95342e-08
-2.52636e-07
1.82565e-08
-2.58463e-07
1.69123e-08
-2.63804e-07
1.55067e-08
-2.68642e-07
1.40449e-08
-2.72957e-07
1.25322e-08
-2.76736e-07
1.09738e-08
-2.79962e-07
9.37514e-09
-2.82626e-07
7.74161e-09
-2.84715e-07
6.07872e-09
-2.86224e-07
4.39204e-09
-2.87144e-07
2.68721e-09
-2.87473e-07
9.69933e-10
-2.87207e-07
-7.53997e-10
-2.86348e-07
-2.47872e-09
-2.84895e-07
-4.19831e-09
-2.82855e-07
-5.90678e-09
-2.80232e-07
-7.59805e-09
-2.77034e-07
-9.26601e-09
-2.73272e-07
-1.09045e-08
-2.68959e-07
-1.25073e-08
-2.64109e-07
-1.40681e-08
-2.58738e-07
-1.55807e-08
-2.52866e-07
-1.70387e-08
-2.46514e-07
-1.8436e-08
-2.39703e-07
-1.97662e-08
-2.32461e-07
-2.10231e-08
-2.24814e-07
-2.22006e-08
-2.16791e-07
-2.32926e-08
-2.08425e-07
-2.42931e-08
-1.99747e-07
-2.51963e-08
-1.90794e-07
-2.59965e-08
-1.81603e-07
-2.66881e-08
-1.72213e-07
-2.7266e-08
-1.62663e-07
-2.77251e-08
-1.52997e-07
-2.80607e-08
-1.43257e-07
-2.82683e-08
-1.33488e-07
-2.8344e-08
-1.23737e-07
-2.82842e-08
-1.1405e-07
-2.80856e-08
-1.04475e-07
-2.77458e-08
-9.50601e-08
-2.72627e-08
-8.58534e-08
-2.66351e-08
-7.69035e-08
-2.58623e-08
-6.82587e-08
-2.49447e-08
-5.99663e-08
-2.38837e-08
-5.20726e-08
-2.26819e-08
-4.46222e-08
-2.13432e-08
-3.76576e-08
-1.98734e-08
-3.12183e-08
-1.828e-08
-2.534e-08
-1.65734e-08
-2.00536e-08
-1.47667e-08
-1.53842e-08
-1.28772e-08
-1.13494e-08
-1.09267e-08
-7.95761e-09
-8.94363e-09
-5.20621e-09
-6.96411e-09
-3.07889e-09
-5.03461e-09
-1.543e-09
-3.21471e-09
-5.4639e-10
-1.58079e-09
-1.38008e-11
-2.3047e-10
1.57199e-10
7.13122e-10
1.01586e-10
1.09623e-09
7.14281e-10
-8.96523e-12
-6.71513e-10
-2.37929e-10
-7.40424e-10
-8.43563e-10
1.19232e-10
-1.9462e-09
1.65471e-09
-3.63711e-09
3.67614e-09
-5.98247e-09
6.03103e-09
-9.02651e-09
8.59765e-09
-1.27946e-08
1.128e-08
-1.72961e-08
1.40027e-08
-2.25267e-08
1.67067e-08
-2.84708e-08
1.9346e-08
-3.51036e-08
2.1885e-08
-4.23927e-08
2.42962e-08
-5.02998e-08
2.65587e-08
-5.87819e-08
2.86566e-08
-6.7792e-08
3.05783e-08
-7.72807e-08
3.23157e-08
-8.71965e-08
3.38631e-08
-9.74864e-08
3.52172e-08
-1.08097e-07
3.63763e-08
-1.18973e-07
3.73405e-08
-1.30062e-07
3.81108e-08
-1.4131e-07
3.86893e-08
-1.52663e-07
3.90791e-08
-1.64068e-07
3.92837e-08
-1.75476e-07
3.93074e-08
-1.86835e-07
3.91549e-08
-1.98097e-07
3.88313e-08
-2.09214e-07
3.83421e-08
-2.2014e-07
3.7693e-08
-2.30832e-07
3.68899e-08
-2.41247e-07
3.59391e-08
-2.51344e-07
3.48469e-08
-2.61085e-07
3.36199e-08
-2.70431e-07
3.22645e-08
-2.79349e-07
3.07877e-08
-2.87805e-07
2.91962e-08
-2.95767e-07
2.7497e-08
-3.03208e-07
2.56971e-08
-3.10099e-07
2.38037e-08
-3.16417e-07
2.18239e-08
-3.22137e-07
1.97651e-08
-3.27239e-07
1.76346e-08
-3.31705e-07
1.544e-08
-3.35519e-07
1.31887e-08
-3.38666e-07
1.08885e-08
-3.41134e-07
8.54714e-09
-3.42915e-07
6.17241e-09
-3.44e-07
3.77228e-09
-3.44385e-07
1.35482e-09
-3.44067e-07
-1.07183e-09
-3.43046e-07
-3.4994e-09
-3.41325e-07
-5.91955e-09
-3.38908e-07
-8.32384e-09
-3.35802e-07
-1.07037e-08
-3.32018e-07
-1.30506e-08
-3.27566e-07
-1.53558e-08
-3.22463e-07
-1.76106e-08
-3.16725e-07
-1.98063e-08
-3.10371e-07
-2.19339e-08
-3.03425e-07
-2.39847e-08
-2.95911e-07
-2.595e-08
-2.87857e-07
-2.78209e-08
-2.79291e-07
-2.95888e-08
-2.70246e-07
-3.12451e-08
-2.60758e-07
-3.27812e-08
-2.50862e-07
-3.41889e-08
-2.40598e-07
-3.54601e-08
-2.30008e-07
-3.65868e-08
-2.19135e-07
-3.75615e-08
-2.08024e-07
-3.83769e-08
-1.96723e-07
-3.90259e-08
-1.85281e-07
-3.95023e-08
-1.7375e-07
-3.97999e-08
-1.62181e-07
-3.99132e-08
-1.50627e-07
-3.98375e-08
-1.39144e-07
-3.95685e-08
-1.27787e-07
-3.91028e-08
-1.16612e-07
-3.8438e-08
-1.05675e-07
-3.75725e-08
-9.50311e-08
-3.65059e-08
-8.47366e-08
-3.52391e-08
-7.48459e-08
-3.37744e-08
-6.5412e-08
-3.21158e-08
-5.64857e-08
-3.02695e-08
-4.81155e-08
-2.82437e-08
-4.03458e-08
-2.60497e-08
-3.32171e-08
-2.37021e-08
-2.67641e-08
-2.12197e-08
-2.10148e-08
-1.86264e-08
-1.59892e-08
-1.59524e-08
-1.16972e-08
-1.32356e-08
-8.13709e-09
-1.05242e-08
-5.29327e-09
-7.87843e-09
-3.1339e-09
-5.37407e-09
-1.60834e-09
-3.10635e-09
-6.44317e-10
-1.19449e-09
-1.44799e-10
2.13604e-10
1.59388e-11
9.35494e-10
7.30219e-10
-1.09809e-10
-5.61704e-10
-5.97081e-10
-2.53151e-10
-1.59194e-09
1.1141e-09
-3.19807e-09
3.26083e-09
-5.49543e-09
5.97351e-09
-8.54241e-09
9.07801e-09
-1.23778e-08
1.2433e-08
-1.7023e-08
1.59252e-08
-2.24842e-08
1.94639e-08
-2.87543e-08
2.29767e-08
-3.58147e-08
2.64065e-08
-4.36377e-08
2.9708e-08
-5.21875e-08
3.28459e-08
-6.14216e-08
3.57928e-08
-7.12926e-08
3.85276e-08
-8.1749e-08
4.10347e-08
-9.27359e-08
4.33026e-08
-1.04196e-07
4.53234e-08
-1.16071e-07
4.7092e-08
-1.28301e-07
4.86059e-08
-1.40824e-07
4.98642e-08
-1.53582e-07
5.08681e-08
-1.66512e-07
5.16199e-08
-1.79556e-07
5.2123e-08
-1.92655e-07
5.2382e-08
-2.05749e-07
5.24022e-08
-2.18784e-07
5.21895e-08
-2.31703e-07
5.17504e-08
-2.44453e-07
5.10919e-08
-2.56982e-07
5.02216e-08
-2.69239e-07
4.91471e-08
-2.81176e-07
4.78766e-08
-2.92748e-07
4.64184e-08
-3.03909e-07
4.4781e-08
-3.14618e-07
4.29732e-08
-3.24834e-07
4.10039e-08
-3.3452e-07
3.88822e-08
-3.4364e-07
3.66172e-08
-3.52161e-07
3.42184e-08
-3.60053e-07
3.16952e-08
-3.67286e-07
2.90571e-08
-3.73835e-07
2.6314e-08
-3.79676e-07
2.34756e-08
-3.84788e-07
2.05519e-08
-3.89152e-07
1.7553e-08
-3.92753e-07
1.44891e-08
-3.95576e-07
1.13705e-08
-3.97611e-07
8.20773e-09
-3.9885e-07
5.01136e-09
-3.99288e-07
1.79213e-09
-3.9892e-07
-1.43911e-09
-3.97748e-07
-4.67135e-09
-3.95775e-07
-7.89349e-09
-3.93004e-07
-1.10943e-08
-3.89445e-07
-1.42624e-08
-3.8511e-07
-1.73864e-08
-3.80011e-07
-2.04547e-08
-3.74166e-07
-2.34558e-08
-3.67594e-07
-2.6378e-08
-3.60318e-07
-2.92096e-08
-3.52364e-07
-3.1939e-08
-3.43759e-07
-3.45546e-08
-3.34536e-07
-3.70446e-08
-3.24727e-07
-3.93978e-08
-3.14369e-07
-4.16026e-08
-3.03502e-07
-4.36479e-08
-2.92169e-07
-4.55228e-08
-2.80412e-07
-4.72165e-08
-2.6828e-07
-4.87187e-08
-2.55822e-07
-5.00195e-08
-2.4309e-07
-5.11092e-08
-2.30137e-07
-5.19789e-08
-2.17019e-07
-5.26201e-08
-2.03794e-07
-5.30251e-08
-1.9052e-07
-5.31867e-08
-1.77259e-07
-5.30988e-08
-1.64071e-07
-5.27562e-08
-1.5102e-07
-5.21546e-08
-1.38167e-07
-5.1291e-08
-1.25575e-07
-5.01638e-08
-1.13309e-07
-4.87727e-08
-1.01428e-07
-4.71195e-08
-8.99951e-08
-4.52076e-08
-7.90681e-08
-4.30428e-08
-6.87039e-08
-4.06337e-08
-5.89558e-08
-3.79917e-08
-4.98734e-08
-3.51321e-08
-4.15011e-08
-3.20744e-08
-3.38774e-08
-2.88435e-08
-2.70334e-08
-2.54704e-08
-2.09918e-08
-2.1994e-08
-1.5765e-08
-1.84624e-08
-1.13536e-08
-1.49356e-08
-7.74458e-09
-1.14874e-08
-4.90936e-09
-8.20929e-09
-2.80188e-09
-5.21383e-09
-1.35652e-09
-2.63985e-09
-4.86131e-10
-6.56781e-10
-7.98682e-11
5.29232e-10
6.5035e-10
-2.14806e-10
-3.46897e-10
-9.75934e-10
5.07977e-10
-2.3852e-09
2.52337e-09
-4.52651e-09
5.40213e-09
-7.46546e-09
8.91246e-09
-1.12498e-08
1.28624e-08
-1.59105e-08
1.70938e-08
-2.1463e-08
2.14776e-08
-2.79084e-08
2.59093e-08
-3.52355e-08
3.03039e-08
-4.34223e-08
3.45933e-08
-5.24371e-08
3.87228e-08
-6.22403e-08
4.26492e-08
-7.27858e-08
4.63382e-08
-8.40217e-08
4.97636e-08
-9.5892e-08
5.2905e-08
-1.08337e-07
5.57477e-08
-1.21295e-07
5.8281e-08
-1.34701e-07
6.0498e-08
-1.4849e-07
6.23948e-08
-1.62595e-07
6.39699e-08
-1.76951e-07
6.52241e-08
-1.91491e-07
6.61598e-08
-2.06149e-07
6.67811e-08
-2.2086e-07
6.70932e-08
-2.35561e-07
6.71025e-08
-2.50188e-07
6.68163e-08
-2.6468e-07
6.62426e-08
-2.78978e-07
6.53901e-08
-2.93024e-07
6.4268e-08
-3.06763e-07
6.28861e-08
-3.20141e-07
6.12545e-08
-3.33106e-07
5.93838e-08
-3.4561e-07
5.72846e-08
-3.57605e-07
5.49682e-08
-3.69047e-07
5.24458e-08
-3.79894e-07
4.97289e-08
-3.90106e-07
4.68292e-08
-3.99646e-07
4.37587e-08
-4.0848e-07
4.05294e-08
-4.16577e-07
3.71536e-08
-4.23906e-07
3.36437e-08
-4.30443e-07
3.00123e-08
-4.36163e-07
2.6272e-08
-4.41046e-07
2.24358e-08
-4.45074e-07
1.85168e-08
-4.48231e-07
1.45281e-08
-4.50507e-07
1.04832e-08
-4.51891e-07
6.39554e-09
-4.52378e-07
2.27895e-09
-4.51964e-07
-1.85272e-09
-4.5065e-07
-5.98544e-09
-4.48438e-07
-1.0105e-08
-4.45336e-07
-1.41971e-08
-4.41351e-07
-1.82471e-08
-4.36497e-07
-2.22406e-08
-4.30789e-07
-2.61628e-08
-4.24245e-07
-2.9999e-08
-4.16889e-07
-3.37343e-08
-4.08745e-07
-3.73538e-08
-3.99841e-07
-4.08428e-08
-3.90209e-07
-4.41864e-08
-3.79884e-07
-4.73698e-08
-3.68903e-07
-5.03786e-08
-3.57308e-07
-5.31983e-08
-3.45141e-07
-5.58147e-08
-3.32449e-07
-5.8214e-08
-3.19283e-07
-6.03827e-08
-3.05694e-07
-6.23077e-08
-2.91737e-07
-6.39764e-08
-2.7747e-07
-6.53768e-08
-2.62951e-07
-6.64976e-08
-2.48243e-07
-6.73283e-08
-2.33409e-07
-6.78591e-08
-2.18514e-07
-6.80814e-08
-2.03625e-07
-6.79875e-08
-1.88811e-07
-6.75711e-08
-1.74138e-07
-6.6827e-08
-1.59677e-07
-6.5752e-08
-1.45497e-07
-6.43441e-08
-1.31666e-07
-6.26037e-08
-1.18252e-07
-6.05332e-08
-1.05322e-07
-5.81376e-08
-9.29403e-08
-5.54247e-08
-8.11683e-08
-5.24057e-08
-7.00645e-08
-4.90956e-08
-5.96825e-08
-4.5514e-08
-5.00712e-08
-4.16858e-08
-4.12726e-08
-3.7642e-08
-3.33215e-08
-3.34214e-08
-2.6244e-08
-2.90715e-08
-2.00557e-08
-2.46507e-08
-1.47609e-08
-2.02304e-08
-1.03509e-08
-1.58975e-08
-6.80235e-09
-1.17578e-08
-4.07626e-09
-7.93993e-09
-2.11644e-09
-4.59967e-09
-8.48712e-10
-1.92451e-09
-1.80333e-10
-1.39147e-10
4.70017e-10
-3.20731e-10
-2.61666e-11
-1.36283e-09
1.55007e-09
-3.20018e-09
4.36072e-09
-5.89556e-09
8.09752e-09
-9.49838e-09
1.25153e-08
-1.40439e-08
1.74079e-08
-1.95532e-08
2.26031e-08
-2.6034e-08
2.79584e-08
-3.34812e-08
3.33565e-08
-4.18784e-08
3.8701e-08
-5.11987e-08
4.39135e-08
-6.14062e-08
4.89303e-08
-7.24571e-08
5.37001e-08
-8.43012e-08
5.81823e-08
-9.68824e-08
6.23448e-08
-1.1014e-07
6.61629e-08
-1.24011e-07
6.9618e-08
-1.38426e-07
7.26969e-08
-1.53319e-07
7.53903e-08
-1.68617e-07
7.76929e-08
-1.84249e-07
7.96025e-08
-2.00145e-07
8.11193e-08
-2.16231e-07
8.2246e-08
-2.32437e-07
8.2987e-08
-2.48692e-07
8.33483e-08
-2.64927e-07
8.33375e-08
-2.81074e-07
8.2963e-08
-2.97066e-07
8.22346e-08
-3.12838e-07
8.11627e-08
-3.28328e-07
7.97583e-08
-3.43476e-07
7.80335e-08
-3.58222e-07
7.60005e-08
-3.7251e-07
7.36721e-08
-3.86287e-07
7.10616e-08
-3.99501e-07
6.81825e-08
-4.12104e-07
6.50489e-08
-4.2405e-07
6.16748e-08
-4.35296e-07
5.80747e-08
-4.458e-07
5.42633e-08
-4.55527e-07
5.02556e-08
-4.6444e-07
4.60666e-08
-4.72508e-07
4.17118e-08
-4.79702e-07
3.72068e-08
-4.85997e-07
3.25671e-08
-4.91371e-07
2.7809e-08
-4.95802e-07
2.29484e-08
-4.99276e-07
1.80019e-08
-5.01779e-07
1.29859e-08
-5.03301e-07
7.91739e-09
-5.03835e-07
2.81323e-09
-5.03378e-07
-2.30935e-09
-5.01931e-07
-7.43295e-09
-4.99496e-07
-1.254e-08
-4.9608e-07
-1.76128e-08
-4.91694e-07
-2.26333e-08
-4.86351e-07
-2.75836e-08
-4.80068e-07
-3.24455e-08
-4.72866e-07
-3.72007e-08
-4.6477e-07
-4.1831e-08
-4.55806e-07
-4.6318e-08
-4.46005e-07
-5.06433e-08
-4.35403e-07
-5.47888e-08
-4.24036e-07
-5.87363e-08
-4.11947e-07
-6.2468e-08
-3.99179e-07
-6.59659e-08
-3.85781e-07
-6.92129e-08
-3.71803e-07
-7.21917e-08
-3.573e-07
-7.4886e-08
-3.42328e-07
-7.72797e-08
-3.26947e-07
-7.93573e-08
-3.1122e-07
-8.11043e-08
-2.9521e-07
-8.2507e-08
-2.78986e-07
-8.35524e-08
-2.62616e-07
-8.42289e-08
-2.46172e-07
-8.4526e-08
-2.29725e-07
-8.44345e-08
-2.13349e-07
-8.3947e-08
-1.97118e-07
-8.30576e-08
-1.81108e-07
-8.17623e-08
-1.65392e-07
-8.00596e-08
-1.50046e-07
-7.79499e-08
-1.35142e-07
-7.54369e-08
-1.20753e-07
-7.25271e-08
-1.06947e-07
-6.92304e-08
-9.37917e-08
-6.55612e-08
-8.13492e-08
-6.15381e-08
-6.9678e-08
-5.71852e-08
-5.88309e-08
-5.25329e-08
-4.88542e-08
-4.76188e-08
-3.97865e-08
-4.24891e-08
-3.16578e-08
-3.72002e-08
-2.44883e-08
-3.18203e-08
-1.8287e-08
-2.64317e-08
-1.30509e-08
-2.11336e-08
-8.76369e-09
-1.6045e-08
-5.39518e-09
-1.13084e-08
-2.9006e-09
-7.09425e-09
-1.22065e-09
-3.60446e-09
-2.82126e-10
-1.07767e-09
1.87892e-10
-4.25689e-10
3.99522e-10
-1.75029e-09
2.87467e-09
-4.02126e-09
6.63169e-09
-7.28012e-09
1.13564e-08
-1.15592e-08
1.67943e-08
-1.68799e-08
2.27286e-08
-2.32524e-08
2.89756e-08
-3.06752e-08
3.53812e-08
-3.91358e-08
4.18171e-08
-4.86114e-08
4.81766e-08
-5.90696e-08
5.43717e-08
-7.04696e-08
6.03303e-08
-8.2763e-08
6.59935e-08
-9.58949e-08
7.13142e-08
-1.09805e-07
7.62549e-08
-1.24429e-07
8.07864e-08
-1.39697e-07
8.48862e-08
-1.55538e-07
8.85382e-08
-1.71879e-07
9.17311e-08
-1.88644e-07
9.44579e-08
-2.05757e-07
9.67154e-08
-2.23141e-07
9.85035e-08
-2.4072e-07
9.98248e-08
-2.58417e-07
1.00684e-07
-2.76157e-07
1.01088e-07
-2.93866e-07
1.01046e-07
-3.1147e-07
1.00567e-07
-3.28898e-07
9.96628e-08
-3.46081e-07
9.83455e-08
-3.62951e-07
9.66283e-08
-3.79442e-07
9.45253e-08
-3.95493e-07
9.20511e-08
-4.11042e-07
8.92211e-08
-4.26032e-07
8.60511e-08
-4.40406e-07
8.25573e-08
-4.54114e-07
7.87565e-08
-4.67105e-07
7.46657e-08
-4.79333e-07
7.03023e-08
-4.90754e-07
6.5684e-08
-5.01327e-07
6.08288e-08
-5.11015e-07
5.5755e-08
-5.19784e-07
5.04811e-08
-5.27603e-07
4.50258e-08
-5.34445e-07
3.94083e-08
-5.40283e-07
3.36478e-08
-5.45099e-07
2.77639e-08
-5.48873e-07
2.17763e-08
-5.51593e-07
1.57052e-08
-5.53246e-07
9.57083e-09
-5.53827e-07
3.39369e-09
-5.5333e-07
-2.80543e-09
-5.51758e-07
-9.00553e-09
-5.49113e-07
-1.51854e-08
-5.45402e-07
-2.13236e-08
-5.40636e-07
-2.73985e-08
-5.34832e-07
-3.33884e-08
-5.28006e-07
-3.92714e-08
-5.20181e-07
-4.50255e-08
-5.11384e-07
-5.06285e-08
-5.01643e-07
-5.60586e-08
-4.90993e-07
-6.12936e-08
-4.7947e-07
-6.63115e-08
-4.67116e-07
-7.10907e-08
-4.53974e-07
-7.56095e-08
-4.40093e-07
-7.98468e-08
-4.25525e-07
-8.37815e-08
-4.10323e-07
-8.73934e-08
-3.94546e-07
-9.06626e-08
-3.78256e-07
-9.35699e-08
-3.61516e-07
-9.6097e-08
-3.44394e-07
-9.82266e-08
-3.26959e-07
-9.99421e-08
-3.09283e-07
-1.01228e-07
-2.9144e-07
-1.02072e-07
-2.73507e-07
-1.02459e-07
-2.5556e-07
-1.02381e-07
-2.37679e-07
-1.01828e-07
-2.19943e-07
-1.00794e-07
-2.02432e-07
-9.92731e-08
-1.85227e-07
-9.72652e-08
-1.68406e-07
-9.47709e-08
-1.52048e-07
-9.1795e-08
-1.36229e-07
-8.83456e-08
-1.21024e-07
-8.44352e-08
-1.06505e-07
-8.00809e-08
-9.27372e-08
-7.53054e-08
-7.9785e-08
-7.01374e-08
-6.77049e-08
-6.46129e-08
-5.65477e-08
-5.8776e-08
-4.63565e-08
-5.26803e-08
-3.7166e-08
-4.63907e-08
-2.90016e-08
-3.99847e-08
-2.18782e-08
-3.35551e-08
-1.57996e-08
-2.72122e-08
-1.0758e-08
-2.10867e-08
-6.73315e-09
-1.53332e-08
-3.69309e-09
-1.01343e-08
-1.59426e-09
-5.70329e-09
-3.83267e-10
-2.28866e-09
-1.95374e-10
-5.28606e-10
9.28128e-10
-2.13367e-09
4.47973e-09
-4.83819e-09
9.33621e-09
-8.66304e-09
1.51812e-08
-1.36232e-08
2.17545e-08
-1.97259e-08
2.88313e-08
-2.6969e-08
3.62187e-08
-3.53413e-08
4.37535e-08
-4.48217e-08
5.12975e-08
-5.53801e-08
5.87351e-08
-6.69781e-08
6.59697e-08
-7.9569e-08
7.29212e-08
-9.30994e-08
7.95239e-08
-1.0751e-07
8.57245e-08
-1.22735e-07
9.14801e-08
-1.38705e-07
9.6757e-08
-1.55349e-07
1.01529e-07
-1.72588e-07
1.05778e-07
-1.90346e-07
1.09489e-07
-2.08542e-07
1.12654e-07
-2.27096e-07
1.15269e-07
-2.45927e-07
1.17334e-07
-2.64952e-07
1.18851e-07
-2.84093e-07
1.19824e-07
-3.03267e-07
1.20263e-07
-3.22396e-07
1.20176e-07
-3.41404e-07
1.19575e-07
-3.60213e-07
1.18472e-07
-3.78751e-07
1.16883e-07
-3.96944e-07
1.14822e-07
-4.14725e-07
1.12306e-07
-4.32025e-07
1.09351e-07
-4.4878e-07
1.05976e-07
-4.64929e-07
1.022e-07
-4.80413e-07
9.80411e-08
-4.95176e-07
9.35191e-08
-5.09164e-07
8.86543e-08
-5.22329e-07
8.34672e-08
-5.34624e-07
7.79786e-08
-5.46005e-07
7.22099e-08
-5.56432e-07
6.61826e-08
-5.6587e-07
5.99187e-08
-5.74284e-07
5.34403e-08
-5.81646e-07
4.67701e-08
-5.87929e-07
3.99309e-08
-5.93111e-07
3.29458e-08
-5.97173e-07
2.58382e-08
-6.001e-07
1.8632e-08
-6.0188e-07
1.13511e-08
-6.02506e-07
4.01981e-09
-6.01974e-07
-3.3372e-09
-6.00285e-07
-1.06951e-08
-5.97441e-07
-1.80288e-08
-5.93452e-07
-2.5313e-08
-5.88328e-07
-3.25221e-08
-5.82086e-07
-3.96304e-08
-5.74746e-07
-4.66121e-08
-5.6633e-07
-5.3441e-08
-5.56867e-07
-6.00913e-08
-5.46389e-07
-6.65367e-08
-5.34931e-07
-7.27515e-08
-5.22533e-07
-7.87096e-08
-5.09238e-07
-8.43855e-08
-4.95094e-07
-8.97536e-08
-4.80152e-07
-9.4789e-08
-4.64466e-07
-9.94672e-08
-4.48096e-07
-1.03764e-07
-4.31102e-07
-1.07657e-07
-4.13549e-07
-1.11122e-07
-3.95508e-07
-1.14139e-07
-3.77047e-07
-1.16687e-07
-3.58242e-07
-1.18747e-07
-3.39169e-07
-1.20301e-07
-3.19907e-07
-1.21334e-07
-3.00537e-07
-1.2183e-07
-2.8114e-07
-1.21778e-07
-2.61801e-07
-1.21167e-07
-2.42603e-07
-1.19991e-07
-2.23633e-07
-1.18243e-07
-2.04974e-07
-1.15924e-07
-1.86712e-07
-1.13034e-07
-1.68928e-07
-1.09578e-07
-1.51705e-07
-1.05569e-07
-1.35122e-07
-1.01019e-07
-1.19253e-07
-9.59492e-08
-1.04172e-07
-9.03865e-08
-8.99456e-08
-8.43641e-08
-7.66352e-08
-7.79234e-08
-6.42963e-08
-7.11149e-08
-5.29772e-08
-6.39994e-08
-4.27181e-08
-5.66498e-08
-3.35501e-08
-4.91526e-08
-2.54951e-08
-4.16101e-08
-1.85647e-08
-3.41426e-08
-1.27602e-08
-2.68911e-08
-8.0727e-09
-2.00208e-08
-4.48335e-09
-1.37237e-08
-1.96469e-09
-8.22195e-09
-4.82609e-10
-3.77074e-09
-6.77982e-10
-6.289e-10
1.55703e-09
-2.51015e-09
6.36098e-09
-5.64442e-09
1.24705e-08
-1.0033e-08
1.95698e-08
-1.56737e-08
2.73953e-08
-2.25593e-08
3.57168e-08
-3.06751e-08
4.43346e-08
-3.99992e-08
5.30776e-08
-5.05015e-08
6.17998e-08
-6.2144e-08
7.03776e-08
-7.4881e-08
7.87067e-08
-8.86599e-08
8.67001e-08
-1.03422e-07
9.42857e-08
-1.19101e-07
1.01404e-07
-1.35629e-07
1.08008e-07
-1.52932e-07
1.14059e-07
-1.7093e-07
1.19528e-07
-1.89545e-07
1.24393e-07
-2.08693e-07
1.28637e-07
-2.28291e-07
1.32252e-07
-2.48253e-07
1.35231e-07
-2.68494e-07
1.37575e-07
-2.88927e-07
1.39284e-07
-3.09469e-07
1.40366e-07
-3.30035e-07
1.40828e-07
-3.5054e-07
1.40681e-07
-3.70905e-07
1.39939e-07
-3.91048e-07
1.38615e-07
-4.10892e-07
1.36727e-07
-4.30361e-07
1.34291e-07
-4.49382e-07
1.31326e-07
-4.67883e-07
1.27853e-07
-4.85797e-07
1.23891e-07
-5.0306e-07
1.19462e-07
-5.19607e-07
1.14589e-07
-5.35381e-07
1.09293e-07
-5.50326e-07
1.03599e-07
-5.64389e-07
9.75298e-08
-5.7752e-07
9.11101e-08
-5.89675e-07
8.43644e-08
-6.0081e-07
7.7318e-08
-6.10887e-07
6.99962e-08
-6.19872e-07
6.2425e-08
-6.27733e-07
5.46307e-08
-6.34442e-07
4.66397e-08
-6.39975e-07
3.84792e-08
-6.44313e-07
3.01763e-08
-6.4744e-07
2.17587e-08
-6.49343e-07
1.32545e-08
-6.50015e-07
4.6918e-09
-6.49452e-07
-3.90063e-09
-6.47653e-07
-1.24939e-08
-6.44623e-07
-2.10588e-08
-6.4037e-07
-2.95658e-08
-6.34907e-07
-3.79853e-08
-6.2825e-07
-4.62873e-08
-6.20421e-07
-5.44418e-08
-6.11443e-07
-6.24184e-08
-6.01347e-07
-7.01871e-08
-5.90166e-07
-7.77176e-08
-5.77938e-07