/*--------------------------------*- C++ -*----------------------------------*\
| =========                 |                                                 |
| \\      /  F ield         | OpenFOAM: The Open Source CFD Toolbox           |
|  \\    /   O peration     | Version:  v1912                                 |
|   \\  /    A nd           | Website:  www.openfoam.com                      |
|    \\/     M anipulation  |                                                 |
\*---------------------------------------------------------------------------*/
FoamFile
{
    version     2.0;
    format      ascii;
    class       volVectorField;
    location    "0.26";
    object      grad(T);
}
// * * * * * * * * * * * * * * * * * * * * * * * * * * * * * * * * * * * * * //

dimensions      [0 -1 0 1 0 0 0];


internalField   nonuniform List<vector> 
1900
(
(0 0 0)
(0 0 0)
(0 0 0)
(0 0 0)
(0 -2.1684e-15 0)
(0 0 0)
(0 -2.1684e-15 0)
(-3.68629e-14 0 0)
(-2.82543e-12 -3.46945e-14 0)
(-6.2231e-11 -1.37911e-12 0)
(0 0 0)
(0 0 0)
(0 0 0)
(0 0 0)
(0 0 0)
(2.1684e-15 0 0)
(0 2.1684e-15 0)
(-7.15573e-14 0 0)
(-4.20454e-12 3.90313e-14 0)
(-1.00514e-10 -2.15539e-12 0)
(0 0 0)
(0 0 0)
(0 0 0)
(0 0 0)
(0 0 0)
(2.1684e-15 0 0)
(0 0 0)
(-2.1684e-15 0 0)
(-4.98082e-12 2.1684e-15 0)
(-1.25284e-10 2.38524e-14 0)
(0 0 0)
(0 0 0)
(0 2.1684e-15 0)
(0 0 0)
(0 0 0)
(0 0 0)
(0 -2.1684e-15 0)
(-6.50521e-14 0 0)
(-4.17852e-12 -3.25261e-14 0)
(-1.00529e-10 2.21828e-12 0)
(0 0 0)
(2.1684e-15 0 0)
(-2.1684e-15 0 0)
(2.1684e-15 0 0)
(-2.1684e-15 2.1684e-15 0)
(0 0 0)
(0 0 0)
(-3.25261e-14 0 0)
(-2.76255e-12 3.46945e-14 0)
(-6.22614e-11 1.41597e-12 0)
(-3.91964e-09 -3.32705e-11 9.82067e-16)
(-1.29965e-07 -2.03181e-09 -1.18882e-15)
(-1.91756e-06 -7.02799e-08 -1.50584e-15)
(-8.14785e-06 -1.09234e-06 0)
(0.000277262 -6.86158e-06 -6.45358e-15)
(-6.33305e-09 -5.46894e-11 9.82067e-16)
(-1.95478e-07 -3.41796e-09 1.18882e-15)
(-2.6523e-06 -1.13773e-07 1.50584e-15)
(-1.10217e-05 -1.57473e-06 0)
(0.000286911 -8.7542e-06 0)
(-7.99242e-09 -1.96413e-15 0)
(-2.36785e-07 2.37764e-14 0)
(-3.00316e-06 3.01167e-15 0)
(-1.22091e-05 2.91585e-13 0)
(0.000304646 1.87154e-13 0)
(-6.33306e-09 5.46815e-11 9.82067e-16)
(-1.95478e-07 3.41794e-09 1.18882e-15)
(-2.6523e-06 1.13773e-07 1.50584e-15)
(-1.10217e-05 1.57473e-06 0)
(0.000286911 8.7542e-06 0)
(-3.91975e-09 3.32646e-11 -2.9462e-15)
(-1.29965e-07 2.03178e-09 -1.18882e-15)
(-1.91756e-06 7.02799e-08 -1.50584e-15)
(-8.14785e-06 1.09234e-06 -4.10683e-15)
(0.000277262 6.86158e-06 6.45358e-15)
(0.00737535 4.76022e-05 2.73804e-15)
(0.0398552 0.000138626 -2.31957e-15)
(0.0910948 -0.00236032 0)
(0.130904 -0.0207089 1.80189e-15)
(-0.103768 -0.0672724 -8.16875e-16)
(0.00742221 0.000141184 -1.36902e-15)
(0.0390456 0.00160308 1.15979e-15)
(0.0829953 -0.000597248 0)
(0.102776 -0.0198334 -1.12564e-15)
(-0.0451155 -0.102428 2.02941e-16)
(0.00787041 4.05207e-13 0)
(0.0396217 3.38234e-13 0)
(0.0830808 8.03113e-14 0)
(0.0881609 -9.21218e-14 4.50018e-16)
(-0.0522069 -1.48999e-13 -4.05882e-16)
(0.00742221 -0.000141184 -1.36902e-15)
(0.0390456 -0.00160308 1.15979e-15)
(0.0829953 0.000597248 0)
(0.102776 0.0198334 -1.12564e-15)
(-0.0451155 0.102428 2.02941e-16)
(0.00737535 -4.76022e-05 1.36902e-15)
(0.0398552 -0.000138626 -4.17495e-21)
(0.0910948 0.00236032 0)
(0.130904 0.0207089 -6.23684e-19)
(-0.103768 0.0672724 8.16875e-16)
(-0.302417 0.496352 0)
(-0.046967 0.325396 0)
(0.145196 0.0832437 0)
(0.0694743 0.00796082 0)
(0.0162003 0.00011413 0)
(0.00108559 -2.10133e-06 0)
(1.32388e-05 -6.44533e-09 0)
(1.86402e-08 -1.00535e-12 0)
(2.10138e-12 0 0)
(0 -3.94255e-15 0)
(0 0 0)
(0 3.94255e-15 0)
(0 -3.94255e-15 0)
(0 0 0)
(1.97128e-15 -3.94255e-15 0)
(-1.97128e-15 0 0)
(0 0 0)
(1.97128e-15 0 0)
(9.85638e-16 -1.18277e-14 0)
(-2.95692e-15 7.88511e-15 0)
(0 -3.94255e-15 0)
(0 3.94255e-15 0)
(1.97128e-15 0 0)
(9.85638e-16 -1.18277e-14 0)
(-2.95692e-15 7.88511e-15 0)
(0 -3.94255e-15 0)
(0 0 0)
(0 0 0)
(0 -3.94255e-15 0)
(0 -3.94255e-15 0)
(0 -3.94255e-15 0)
(-3.70403e-12 0 0)
(-3.26578e-08 4.73106e-14 0)
(-2.30147e-05 7.88511e-15 0)
(-0.00187233 0 0)
(-0.0284757 -9.85638e-14 0)
(-0.138812 2.28668e-13 0)
(-0.34864 2.87806e-13 0)
(-0.187376 2.56266e-13 0)
(0.049078 3.07519e-13 0)
(-0.231062 0.129729 0)
(-0.0822165 0.198041 0)
(0.106394 0.0416877 0)
(0.0602456 0.00125998 0)
(0.0159219 -0.000534606 0)
(0.00116549 -1.37456e-05 0)
(1.51232e-05 -2.57946e-08 0)
(2.22156e-08 -3.24472e-12 0)
(2.57054e-12 0 0)
(0 3.94255e-15 0)
(1.97128e-15 0 0)
(0 0 0)
(-1.97128e-15 0 0)
(0 0 0)
(0 3.94255e-15 0)
(0 0 0)
(0 0 0)
(0 0 0)
(1.97128e-15 -3.94255e-15 0)
(0 -7.88511e-15 0)
(0 0 0)
(0 0 0)
(-1.97128e-15 0 0)
(1.97128e-15 -3.94255e-15 0)
(0 -7.88511e-15 0)
(-1.97128e-15 3.94255e-15 0)
(0 0 0)
(0 0 0)
(0 0 0)
(0 0 0)
(0 0 0)
(-3.70107e-12 0 0)
(-3.26578e-08 -2.75979e-14 0)
(-2.30147e-05 -3.94255e-14 0)
(-0.00187233 0 0)
(-0.0284757 -4.33681e-14 0)
(-0.138812 2.64151e-13 0)
(-0.34864 2.36553e-13 0)
(-0.187376 3.5483e-14 0)
(0.049078 -3.94255e-15 0)
(-0.20215 1.57702e-13 0)
(-0.072579 3.706e-13 0)
(0.0879508 1.18277e-14 0)
(0.0571915 -2.99634e-13 0)
(0.0158298 -3.15404e-14 0)
(0.00124111 -3.94255e-14 0)
(1.72376e-05 3.94255e-14 0)
(2.61441e-08 0 0)
(3.04464e-12 0 0)
(1.97128e-15 0 0)
(-1.97128e-15 0 0)
(0 -3.94255e-15 0)
(0 0 0)
(0 0 0)
(1.97128e-15 0 0)
(-1.97128e-15 0 0)
(0 0 0)
(0 0 0)
(0 0 0)
(0 -3.94255e-15 0)
(0 0 0)
(0 -3.94255e-15 0)
(0 -3.94255e-15 0)
(0 0 0)
(1.97128e-15 -3.94255e-15 0)
(0 0 0)
(-1.97128e-15 0 0)
(0 -3.94255e-15 0)
(0 0 0)
(0 0 0)
(0 0 0)
(-3.71191e-12 0 0)
(-3.26578e-08 -2.75979e-14 0)
(-2.30147e-05 -7.88511e-15 0)
(-0.00187233 -2.83864e-13 0)
(-0.0284757 2.36553e-14 0)
(-0.138812 1.37989e-13 0)
(-0.34864 -3.94255e-15 0)
(-0.187376 -1.97128e-13 0)
(0.049078 -3.66657e-13 0)
(-0.231062 -0.129729 0)
(-0.0822165 -0.198041 0)
(0.106394 -0.0416877 0)
(0.0602456 -0.00125998 0)
(0.0159219 0.000534606 0)
(0.00116549 1.37456e-05 0)
(1.51232e-05 2.57946e-08 0)
(2.22156e-08 3.22501e-12 0)
(2.57054e-12 0 0)
(0 -3.94255e-15 0)
(0 0 0)
(0 0 0)
(0 0 0)
(0 0 0)
(0 -3.94255e-15 0)
(0 0 0)
(0 0 0)
(0 0 0)
(0 0 0)
(0 0 0)
(0 0 0)
(-1.97128e-15 0 0)
(0 -3.94255e-15 0)
(1.97128e-15 0 0)
(0 0 0)
(0 -3.94255e-15 0)
(-1.97128e-15 0 0)
(0 -3.94255e-15 0)
(1.97128e-15 0 0)
(0 0 0)
(0 0 0)
(-3.70896e-12 0 0)
(-3.26578e-08 2.75979e-14 0)
(-2.30147e-05 0 0)
(-0.00187233 -4.29738e-13 0)
(-0.0284757 2.75979e-14 0)
(-0.138812 -1.18277e-14 0)
(-0.34864 -2.36553e-13 0)
(-0.187376 -2.79921e-13 0)
(0.049078 -2.08955e-13 0)
(-0.302417 -0.496352 0)
(-0.046967 -0.325396 0)
(0.145196 -0.0832437 0)
(0.0694743 -0.00796082 0)
(0.0162003 -0.00011413 0)
(0.00108559 2.10133e-06 0)
(1.32388e-05 6.4453e-09 0)
(1.86402e-08 9.65926e-13 0)
(2.10631e-12 0 0)
(0 3.94255e-15 0)
(0 0 0)
(0 0 0)
(0 3.94255e-15 0)
(0 0 0)
(0 0 0)
(0 0 0)
(0 0 0)
(0 0 0)
(0 0 0)
(1.97128e-15 3.94255e-15 0)
(-1.97128e-15 0 0)
(0 0 0)
(0 7.88511e-15 0)
(0 0 0)
(1.97128e-15 3.94255e-15 0)
(-1.97128e-15 0 0)
(0 0 0)
(0 7.88511e-15 0)
(0 0 0)
(0 3.94255e-15 0)
(0 0 0)
(-3.70304e-12 0 0)
(-3.26578e-08 -1.18277e-14 0)
(-2.30147e-05 7.88511e-15 0)
(-0.00187233 -1.02506e-13 0)
(-0.0284757 3.15404e-14 0)
(-0.138812 -1.5376e-13 0)
(-0.34864 -2.52323e-13 0)
(-0.187376 -2.44438e-13 0)
(0.049078 -3.94255e-14 0)
(-0.04205 -0.43042 0)
(0.136158 -0.274067 0)
(0.260646 -0.0839124 0)
(0.10172 -0.0134659 0)
(0.020595 -0.000821967 0)
(0.00132948 -9.88786e-06 0)
(1.59839e-05 -1.38527e-08 0)
(2.23067e-08 -1.5675e-12 0)
(2.49943e-12 0 0)
(0 -1.1902e-15 0)
(0 0 0)
(0 0 0)
(0 -1.1902e-15 0)
(0 0 0)
(0 0 0)
(0 1.1902e-15 0)
(0 0 0)
(0 0 0)
(0 0 0)
(0 -1.1902e-15 0)
(0 0 0)
(0 0 0)
(0 0 0)
(0 0 0)
(0 -1.1902e-15 0)
(0 0 0)
(0 1.1902e-15 0)
(0 0 0)
(0 0 0)
(0 -1.1902e-15 0)
(0 0 0)
(-3.72653e-12 0 0)
(-3.26578e-08 -2.38041e-15 0)
(-2.30147e-05 5.59396e-14 0)
(-0.00187233 1.29732e-13 0)
(-0.0284757 1.29732e-13 0)
(-0.138812 -9.8787e-14 0)
(-0.34864 -1.42825e-13 0)
(-0.187376 -4.0467e-14 0)
(0.049078 1.30923e-14 0)
(-0.0385028 -0.0921055 0)
(0.188743 -0.0986629 0)
(0.334413 -0.0386684 0)
(0.132252 -0.00807846 0)
(0.0268104 -0.000555151 0)
(0.00174688 -7.18411e-06 0)
(2.12952e-05 -1.05707e-08 0)
(3.00231e-08 -1.22591e-12 0)
(3.40756e-12 0 0)
(0 0 0)
(0 0 0)
(0 0 0)
(0 0 0)
(0 0 0)
(0 0 0)
(0 -1.1902e-15 0)
(0 0 0)
(0 0 0)
(0 0 0)
(0 0 0)
(0 0 0)
(0 0 0)
(0 0 0)
(0 0 0)
(0 1.1902e-15 0)
(1.1902e-15 0 0)
(-1.1902e-15 0 0)
(0 0 0)
(0 0 0)
(0 0 0)
(0 0 0)
(-3.69202e-12 0 0)
(-3.26578e-08 5.11788e-14 0)
(-2.30147e-05 4.76082e-15 0)
(-0.00187233 5.11788e-14 0)
(-0.0284757 2.97551e-14 0)
(-0.138812 5.832e-14 0)
(-0.34864 2.73747e-14 0)
(-0.187376 2.49943e-14 0)
(0.049078 2.49943e-14 0)
(-0.0483689 -0.00550618 0)
(0.187652 -0.0164844 0)
(0.347937 -0.00693325 0)
(0.138447 -0.0017287 0)
(0.0283728 -0.000130104 0)
(0.00186443 -1.78332e-06 0)
(2.29068e-05 -2.73243e-09 0)
(3.2493e-08 -3.28497e-13 0)
(3.68249e-12 0 0)
(0 0 0)
(0 0 0)
(0 0 0)
(0 0 0)
(0 0 0)
(0 0 0)
(0 0 0)
(0 0 0)
(0 0 0)
(0 0 0)
(0 0 0)
(0 0 0)
(0 0 0)
(0 0 0)
(0 0 0)
(0 -1.1902e-15 0)
(1.1902e-15 1.1902e-15 0)
(0 -1.1902e-15 0)
(0 1.1902e-15 0)
(-1.1902e-15 0 0)
(0 0 0)
(0 0 0)
(-3.67654e-12 1.1902e-15 0)
(-3.26578e-08 7.14123e-15 0)
(-2.30147e-05 -1.78531e-14 0)
(-0.00187233 7.02221e-14 0)
(-0.0284757 -9.99772e-14 0)
(-0.138812 1.09499e-13 0)
(-0.34864 1.05928e-13 0)
(-0.187376 2.38041e-14 0)
(0.049078 1.66629e-14 0)
(-0.0490818 -0.000100115 0)
(0.187368 -0.000836295 0)
(0.348633 -0.000386772 0)
(0.138808 -0.000106914 0)
(0.0284746 -8.19832e-06 0)
(0.00187225 -1.12065e-07 0)
(2.30136e-05 -1.71018e-10 0)
(3.26562e-08 -2.73747e-14 0)
(3.72177e-12 0 0)
(0 0 0)
(0 1.1902e-15 0)
(0 0 0)
(0 0 0)
(0 0 0)
(0 0 0)
(0 0 0)
(0 -1.1902e-15 0)
(0 0 0)
(0 0 0)
(0 -1.1902e-15 0)
(0 0 0)
(0 0 0)
(0 0 0)
(0 0 0)
(0 0 0)
(0 -1.1902e-15 0)
(0 0 0)
(0 -1.1902e-15 0)
(0 0 0)
(0 0 0)
(1.1902e-15 0 0)
(-3.68606e-12 -1.1902e-15 0)
(-3.26578e-08 -3.57061e-15 0)
(-2.30147e-05 4.76082e-15 0)
(-0.00187233 5.11788e-14 0)
(-0.0284757 -1.39254e-13 0)
(-0.138812 7.14123e-14 0)
(-0.34864 5.2369e-14 0)
(-0.187376 -4.52278e-14 0)
(0.049078 -3.33257e-14 0)
(-0.0490783 -1.24756e-05 0)
(0.187376 -8.49574e-06 0)
(0.34864 -4.16614e-06 0)
(0.138812 -1.18374e-06 0)
(0.0284757 -8.82626e-08 0)
(0.00187233 -1.15515e-09 0)
(2.30147e-05 -1.72342e-12 0)
(3.26578e-08 9.52164e-15 0)
(3.70868e-12 1.1902e-15 0)
(-1.1902e-15 0 0)
(1.1902e-15 -1.1902e-15 0)
(-1.1902e-15 0 0)
(0 0 0)
(0 0 0)
(0 0 0)
(-1.1902e-15 0 0)
(0 0 0)
(1.1902e-15 0 0)
(-1.1902e-15 0 0)
(0 0 0)
(1.1902e-15 0 0)
(0 0 0)
(0 0 0)
(0 0 0)
(0 0 0)
(0 0 0)
(0 0 0)
(0 0 0)
(0 0 0)
(0 0 0)
(0 0 0)
(-3.68011e-12 0 0)
(-3.26578e-08 -1.66629e-14 0)
(-2.30147e-05 -4.76082e-15 0)
(-0.00187233 -4.52278e-14 0)
(-0.0284757 -5.35592e-14 0)
(-0.138812 3.68963e-14 0)
(-0.34864 -9.52164e-15 0)
(-0.187376 -9.75968e-14 0)
(0.049078 -3.45159e-14 0)
(-0.049078 -3.64215e-07 0)
(0.187376 -2.13865e-08 0)
(0.34864 -6.28755e-09 0)
(0.138812 -1.56634e-09 0)
(0.0284757 -1.03704e-10 0)
(0.00187233 -1.35564e-12 0)
(2.30147e-05 3.57061e-14 0)
(3.26578e-08 4.76082e-15 0)
(3.71225e-12 -1.1902e-15 0)
(0 0 0)
(0 -1.1902e-15 0)
(0 1.1902e-15 0)
(0 0 0)
(0 0 0)
(0 0 0)
(0 0 0)
(0 1.1902e-15 0)
(0 0 0)
(0 0 0)
(0 1.1902e-15 0)
(0 0 0)
(0 0 0)
(0 0 0)
(0 0 0)
(0 0 0)
(0 0 0)
(0 0 0)
(0 0 0)
(0 0 0)
(0 0 0)
(0 0 0)
(-3.70154e-12 0 0)
(-3.26578e-08 1.1902e-15 0)
(-2.30147e-05 2.38041e-15 0)
(-0.00187233 -2.49943e-14 0)
(-0.0284757 5.47494e-14 0)
(-0.138812 -2.49943e-14 0)
(-0.34864 -1.1902e-15 0)
(-0.187376 -1.54727e-14 0)
(0.049078 1.1902e-14 0)
(-0.049078 -1.30921e-09 0)
(0.187376 -3.46897e-11 0)
(0.34864 -2.14475e-12 0)
(0.138812 -1.07118e-13 0)
(0.0284757 2.97551e-14 0)
(0.00187233 -6.78417e-14 0)
(2.30147e-05 3.80866e-14 0)
(3.26578e-08 1.42825e-14 0)
(3.70392e-12 1.1902e-15 0)
(-1.1902e-15 0 0)
(1.1902e-15 0 0)
(1.1902e-15 0 0)
(-1.1902e-15 0 0)
(0 0 0)
(0 0 0)
(0 0 0)
(0 0 0)
(0 1.1902e-15 0)
(0 0 0)
(0 0 0)
(0 0 0)
(0 0 0)
(0 0 0)
(0 0 0)
(0 0 0)
(0 0 0)
(-1.1902e-15 0 0)
(1.1902e-15 0 0)
(0 0 0)
(0 0 0)
(0 0 0)
(-3.67892e-12 0 0)
(-3.26578e-08 2.02335e-14 0)
(-2.30147e-05 -2.38041e-15 0)
(-0.00187233 5.95102e-14 0)
(-0.0284757 2.97551e-14 0)
(-0.138812 -4.0467e-14 0)
(-0.34864 1.07118e-14 0)
(-0.187376 8.21241e-14 0)
(0.049078 4.76082e-14 0)
(-0.049078 -3.82056e-13 0)
(0.187376 -4.99886e-14 0)
(0.34864 1.07118e-14 0)
(0.138812 -4.87984e-14 0)
(0.0284757 -4.76082e-15 0)
(0.00187233 -6.42711e-14 0)
(2.30147e-05 0 0)
(3.26578e-08 -2.38041e-14 0)
(3.70035e-12 -1.1902e-15 0)
(-1.1902e-15 0 0)
(1.1902e-15 1.1902e-15 0)
(0 0 0)
(-1.1902e-15 0 0)
(0 0 0)
(0 0 0)
(0 0 0)
(1.1902e-15 0 0)
(-1.1902e-15 0 0)
(0 0 0)
(0 0 0)
(0 0 0)
(0 0 0)
(0 0 0)
(0 0 0)
(0 0 0)
(0 0 0)
(0 0 0)
(0 0 0)
(0 0 0)
(0 0 0)
(0 0 0)
(-3.68249e-12 0 0)
(-3.26578e-08 -3.45159e-14 0)
(-2.30147e-05 -4.0467e-14 0)
(-0.00187233 3.57061e-14 0)
(-0.0284757 -3.57061e-15 0)
(-0.138812 -6.54613e-14 0)
(-0.34864 -5.95102e-14 0)
(-0.187376 4.76082e-14 0)
(0.049078 1.1902e-15 0)
(-0.049078 1.07118e-14 0)
(0.187376 7.14123e-15 0)
(0.34864 -8.33143e-15 0)
(0.138812 2.26139e-14 0)
(0.0284757 -7.61731e-14 0)
(0.00187233 4.76082e-15 0)
(2.30147e-05 1.07118e-14 0)
(3.26578e-08 1.07118e-14 0)
(3.72534e-12 0 0)
(1.1902e-15 0 0)
(0 0 0)
(0 -1.1902e-15 0)
(0 -1.1902e-15 0)
(0 0 0)
(0 0 0)
(0 -1.1902e-15 0)
(0 -1.1902e-15 0)
(0 -1.1902e-15 0)
(0 0 0)
(0 0 0)
(0 0 0)
(0 0 0)
(0 0 0)
(0 0 0)
(0 0 0)
(0 0 0)
(0 0 0)
(0 1.1902e-15 0)
(0 0 0)
(0 0 0)
(0 0 0)
(-3.71344e-12 0 0)
(-3.26578e-08 -4.16572e-14 0)
(-2.30147e-05 -7.14123e-15 0)
(-0.00187233 -4.76082e-14 0)
(-0.0284757 3.57061e-14 0)
(-0.138812 -6.07004e-14 0)
(-0.34864 -6.42711e-14 0)
(-0.187376 -3.57061e-15 0)
(0.049078 -2.14237e-14 0)
(-0.049078 2.26139e-14 0)
(0.187376 1.90433e-14 0)
(0.34864 -7.14123e-15 0)
(0.138812 9.04556e-14 0)
(0.0284757 -2.26139e-14 0)
(0.00187233 8.92654e-14 0)
(2.30147e-05 -7.14123e-15 0)
(3.26578e-08 5.35592e-14 0)
(3.68963e-12 0 0)
(0 0 0)
(0 0 0)
(-1.1902e-15 0 0)
(0 0 0)
(1.1902e-15 0 0)
(-1.1902e-15 0 0)
(-1.1902e-15 0 0)
(1.1902e-15 0 0)
(1.1902e-15 0 0)
(0 0 0)
(0 0 0)
(0 0 0)
(0 0 0)
(0 0 0)
(0 0 0)
(0 0 0)
(0 0 0)
(1.1902e-15 0 0)
(0 -1.1902e-15 0)
(-1.1902e-15 0 0)
(0 0 0)
(1.1902e-15 0 0)
(-3.72177e-12 0 0)
(-3.26578e-08 1.1902e-15 0)
(-2.30147e-05 4.76082e-15 0)
(-0.00187233 -5.35592e-14 0)
(-0.0284757 6.42711e-14 0)
(-0.138812 1.1664e-13 0)
(-0.34864 -1.90433e-14 0)
(-0.187376 4.40376e-14 0)
(0.049078 3.21355e-14 0)
(-0.049078 -2.38041e-15 0)
(0.187376 -4.76082e-15 0)
(0.34864 1.66629e-14 0)
(0.138812 -1.07118e-14 0)
(0.0284757 7.49829e-14 0)
(0.00187233 2.38041e-14 0)
(2.30147e-05 -1.1902e-15 0)
(3.26578e-08 5.95102e-15 0)
(3.67535e-12 0 0)
(0 0 0)
(0 0 0)
(0 0 0)
(0 1.1902e-15 0)
(0 0 0)
(0 0 0)
(0 1.1902e-15 0)
(0 1.1902e-15 0)
(0 0 0)
(0 0 0)
(0 0 0)
(0 0 0)
(0 0 0)
(0 0 0)
(0 0 0)
(0 0 0)
(0 0 0)
(0 0 0)
(0 0 0)
(0 0 0)
(0 0 0)
(0 0 0)
(-3.71225e-12 0 0)
(-3.26578e-08 -2.85649e-14 0)
(-2.30147e-05 -2.97551e-14 0)
(-0.00187233 -2.38041e-15 0)
(-0.0284757 2.61845e-14 0)
(-0.138812 1.1426e-13 0)
(-0.34864 3.45159e-14 0)
(-0.187376 3.33257e-14 0)
(0.049078 2.02335e-14 0)
(-0.049078 -5.59396e-12 0)
(0.187376 -5.54873e-12 0)
(0.34864 -8.25407e-12 0)
(0.138812 -9.64304e-12 0)
(0.0284757 -9.61328e-12 0)
(0.00187233 -9.77515e-12 0)
(2.30147e-05 -9.72159e-12 0)
(3.26578e-08 -9.75373e-12 0)
(3.68487e-12 -9.74183e-12 0)
(0 -9.74659e-12 0)
(0 -9.75611e-12 0)
(0 -9.74064e-12 0)
(0 -9.76087e-12 0)
(0 -9.75611e-12 0)
(0 -9.78467e-12 0)
(0 -9.77158e-12 0)
(0 -9.76087e-12 0)
(0 -9.74778e-12 0)
(0 -9.76444e-12 0)
(0 -9.77634e-12 0)
(0 -9.75968e-12 0)
(0 -9.78705e-12 0)
(-1.1902e-15 -9.78705e-12 0)
(1.1902e-15 -9.76444e-12 0)
(0 -9.77634e-12 0)
(0 -9.75492e-12 0)
(0 -9.74778e-12 0)
(0 -9.74183e-12 0)
(0 -9.75016e-12 0)
(0 -9.75373e-12 0)
(0 -9.76206e-12 0)
(-3.74915e-12 -9.80372e-12 0)
(-3.26578e-08 -9.75849e-12 0)
(-2.30147e-05 -9.79062e-12 0)
(-0.00187233 -9.68827e-12 0)
(-0.0284757 -9.67517e-12 0)
(-0.138812 -9.42523e-12 0)
(-0.34864 -8.25288e-12 0)
(-0.187376 -5.54873e-12 0)
(0.049078 -5.56897e-12 0)
(-0.049078 -4.38088e-08 0)
(0.187376 -4.31967e-08 0)
(0.34864 -5.86343e-08 0)
(0.138812 -6.46018e-08 0)
(0.0284757 -6.62018e-08 0)
(0.00187233 -6.63078e-08 0)
(2.30147e-05 -6.63092e-08 0)
(3.26578e-08 -6.63091e-08 0)
(3.6813e-12 -6.63092e-08 0)
(-1.30923e-14 -6.63092e-08 0)
(7.14123e-15 -6.63092e-08 0)
(-5.95102e-15 -6.63092e-08 0)
(-1.66629e-14 -6.63092e-08 0)
(-2.14237e-14 -6.63092e-08 0)
(-1.30923e-14 -6.63091e-08 0)
(2.14237e-14 -6.63092e-08 0)
(2.26139e-14 -6.63092e-08 0)
(-4.76082e-15 -6.63092e-08 0)
(-2.73747e-14 -6.63092e-08 0)
(4.76082e-15 -6.63091e-08 0)
(-9.52164e-15 -6.63092e-08 0)
(-2.49943e-14 -6.63091e-08 0)
(2.02335e-14 -6.63092e-08 0)
(1.07118e-14 -6.63091e-08 0)
(9.52164e-15 -6.63091e-08 0)
(2.73747e-14 -6.63091e-08 0)
(1.1902e-14 -6.63091e-08 0)
(-2.38041e-15 -6.63091e-08 0)
(-1.07118e-14 -6.63091e-08 0)
(-1.07118e-14 -6.63091e-08 0)
(-4.87984e-14 -6.63091e-08 0)
(-3.70868e-12 -6.63092e-08 0)
(-3.26578e-08 -6.63091e-08 0)
(-2.30147e-05 -6.6309e-08 0)
(-0.00187233 -6.63079e-08 0)
(-0.0284757 -6.62016e-08 0)
(-0.138812 -6.46018e-08 0)
(-0.34864 -5.86344e-08 0)
(-0.187376 -4.31967e-08 0)
(0.049078 -4.38088e-08 0)
(-0.049078 -2.78867e-05 0)
(0.187376 -2.72829e-05 0)
(0.34864 -3.41459e-05 0)
(0.138812 -3.65673e-05 0)
(0.0284757 -3.72693e-05 0)
(0.00187233 -3.73198e-05 0)
(2.30147e-05 -3.73205e-05 0)
(3.26578e-08 -3.73205e-05 0)
(3.66107e-12 -3.73205e-05 0)
(-2.14237e-14 -3.73205e-05 0)
(5.95102e-15 -3.73205e-05 0)
(1.78531e-14 -3.73205e-05 0)
(-2.38041e-15 -3.73205e-05 0)
(3.33257e-14 -3.73205e-05 0)
(9.52164e-15 -3.73205e-05 0)
(-6.18906e-14 -3.73205e-05 0)
(-3.21355e-14 -3.73205e-05 0)
(3.33257e-14 -3.73205e-05 0)
(4.28474e-14 -3.73205e-05 0)
(1.1902e-14 -3.73205e-05 0)
(-2.38041e-15 -3.73205e-05 0)
(-2.02335e-14 -3.73205e-05 0)
(5.95102e-15 -3.73205e-05 0)
(5.11788e-14 -3.73205e-05 0)
(1.30923e-14 -3.73205e-05 0)
(-1.90433e-14 -3.73205e-05 0)
(-2.26139e-14 -3.73205e-05 0)
(1.07118e-14 -3.73205e-05 0)
(8.33143e-15 -3.73205e-05 0)
(-1.07118e-14 -3.73205e-05 0)
(-4.99886e-14 -3.73205e-05 0)
(-3.75034e-12 -3.73205e-05 0)
(-3.26577e-08 -3.73205e-05 0)
(-2.30147e-05 -3.73205e-05 0)
(-0.00187233 -3.73198e-05 0)
(-0.0284757 -3.72693e-05 0)
(-0.138812 -3.65673e-05 0)
(-0.34864 -3.41459e-05 0)
(-0.187376 -2.72829e-05 0)
(0.049078 -2.78867e-05 0)
(-0.0490774 -0.00209418 0)
(0.18737 -0.00202253 0)
(0.348631 -0.00238397 0)
(0.138809 -0.00250269 0)
(0.028475 -0.00253994 0)
(0.00187228 -0.00254289 0)
(2.30141e-05 -0.00254293 0)
(3.26568e-08 -0.00254293 0)
(3.80866e-12 -0.00254293 0)
(-1.78531e-14 -0.00254293 0)
(2.61845e-14 -0.00254293 0)
(3.57061e-15 -0.00254293 0)
(-1.90433e-14 -0.00254293 0)
(-6.30809e-14 -0.00254293 0)
(-1.07118e-14 -0.00254293 0)
(8.80752e-14 -0.00254293 0)
(2.49943e-14 -0.00254293 0)
(-6.42711e-14 -0.00254293 0)
(-3.68963e-14 -0.00254293 0)
(3.57061e-14 -0.00254293 0)
(2.02335e-14 -0.00254293 0)
(7.14123e-15 -0.00254293 0)
(-2.61845e-14 -0.00254293 0)
(-4.87984e-14 -0.00254293 0)
(-1.42825e-14 -0.00254293 0)
(-9.52164e-15 -0.00254293 0)
(2.97551e-14 -0.00254293 0)
(-3.09453e-14 -0.00254293 0)
(-5.47494e-14 -0.00254293 0)
(2.49943e-14 -0.00254293 0)
(7.73633e-14 -0.00254293 0)
(-3.66226e-12 -0.00254293 0)
(-3.26568e-08 -0.00254293 0)
(-2.30141e-05 -0.00254293 0)
(-0.00187228 -0.00254289 0)
(-0.028475 -0.00253994 0)
(-0.138809 -0.00250269 0)
(-0.348631 -0.00238397 0)
(-0.18737 -0.00202253 0)
(0.0490774 -0.00209418 0)
(-0.049009 -0.0302126 0)
(0.187097 -0.0286133 0)
(0.348177 -0.0324686 0)
(0.138662 -0.0337413 0)
(0.028437 -0.0341498 0)
(0.00186945 -0.0341849 0)
(2.29734e-05 -0.0341855 0)
(3.25882e-08 -0.0341855 0)
(3.69678e-12 -0.0341855 0)
(-3.33257e-14 -0.0341855 0)
(-5.832e-14 -0.0341855 0)
(1.05928e-13 -0.0341855 0)
(1.03548e-13 -0.0341855 0)
(-5.2369e-14 -0.0341855 0)
(-6.78417e-14 -0.0341855 0)
(-1.42825e-14 -0.0341855 0)
(-3.33257e-14 -0.0341855 0)
(-4.87984e-14 -0.0341855 0)
(-4.0467e-14 -0.0341855 0)
(-5.95102e-14 -0.0341855 0)
(1.1902e-14 -0.0341855 0)
(8.21241e-14 -0.0341855 0)
(4.16572e-14 -0.0341855 0)
(-4.99886e-14 -0.0341855 0)
(-4.99886e-14 -0.0341855 0)
(4.0467e-14 -0.0341855 0)
(7.14123e-14 -0.0341855 0)
(4.99886e-14 -0.0341855 0)
(7.61731e-14 -0.0341855 0)
(-4.76082e-15 -0.0341855 0)
(-1.09499e-13 -0.0341855 0)
(-3.67892e-12 -0.0341855 0)
(-3.25886e-08 -0.0341855 0)
(-2.29734e-05 -0.0341855 0)
(-0.00186945 -0.0341849 0)
(-0.028437 -0.0341498 0)
(-0.138662 -0.0337413 0)
(-0.348177 -0.0324686 0)
(-0.187097 -0.0286133 0)
(0.049009 -0.0302126 0)
(-0.0475363 -0.140848 0)
(0.185196 -0.133471 0)
(0.343689 -0.14827 0)
(0.137189 -0.1534 0)
(0.0280474 -0.154843 0)
(0.00183793 -0.154969 0)
(2.24756e-05 -0.154972 0)
(3.16837e-08 -0.154972 0)
(3.60989e-12 -0.154972 0)
(-5.47494e-14 -0.154972 0)
(-9.40262e-14 -0.154972 0)
(-9.16458e-14 -0.154972 0)
(2.38041e-15 -0.154972 0)
(1.82101e-13 -0.154972 0)
(9.64066e-14 -0.154972 0)
(-4.76082e-14 -0.154972 0)
(5.832e-14 -0.154972 0)
(1.59487e-13 -0.154972 0)
(8.09339e-14 -0.154972 0)
(-3.80866e-14 -0.154972 0)
(-1.1902e-14 -0.154972 0)
(1.90433e-14 -0.154972 0)
(4.6418e-14 -0.154972 0)
(3.57061e-14 -0.154972 0)
(-4.16572e-14 -0.154972 0)
(-8.68849e-14 -0.154972 0)
(-1.22591e-13 -0.154972 0)
(-1.30923e-14 -0.154972 0)
(9.2836e-14 -0.154972 0)
(4.40376e-14 -0.154972 0)
(-6.54613e-14 -0.154972 0)
(-3.83246e-12 -0.154972 0)
(-3.16836e-08 -0.154972 0)
(-2.24756e-05 -0.154972 0)
(-0.00183793 -0.154969 0)
(-0.0280474 -0.154843 0)
(-0.137189 -0.1534 0)
(-0.343689 -0.14827 0)
(-0.185196 -0.133471 0)
(0.0475363 -0.140848 0)
(-0.0419003 -0.305495 0)
(0.179944 -0.316014 0)
(0.328972 -0.355489 0)
(0.132328 -0.37055 0)
(0.0269251 -0.374784 0)
(0.00174521 -0.375159 0)
(2.08942e-05 -0.375165 0)
(2.85801e-08 -0.375165 0)
(3.21236e-12 -0.375165 0)
(1.66629e-14 -0.375165 0)
(2.38041e-15 -0.375165 0)
(-4.16572e-14 -0.375165 0)
(-1.78531e-14 -0.375165 0)
(2.26139e-14 -0.375165 0)
(-7.97437e-14 -0.375165 0)
(-9.8787e-14 -0.375165 0)
(-1.30923e-14 -0.375165 0)
(-1.90433e-14 -0.375165 0)
(-9.52164e-15 -0.375165 0)
(7.14123e-15 -0.375165 0)
(2.14237e-14 -0.375165 0)
(5.59396e-14 -0.375165 0)
(3.80866e-14 -0.375165 0)
(4.16572e-14 -0.375165 0)
(2.97551e-14 -0.375165 0)
(-3.80866e-14 -0.375165 0)
(-4.0467e-14 -0.375165 0)
(1.1902e-14 -0.375165 0)
(2.14237e-14 -0.375165 0)
(-3.21355e-14 -0.375165 0)
(-3.21355e-14 -0.375165 0)
(-3.06597e-12 -0.375165 0)
(-2.85798e-08 -0.375165 0)
(-2.08942e-05 -0.375165 0)
(-0.00174521 -0.375159 0)
(-0.0269251 -0.374784 0)
(-0.132328 -0.37055 0)
(-0.328972 -0.355489 0)
(-0.179944 -0.316014 0)
(0.0419003 -0.305495 0)
(-0.0576729 -0.171152 0)
(0.13702 -0.147788 0)
(0.291136 -0.1916 0)
(0.118595 -0.196801 0)
(0.0236065 -0.198585 0)
(0.00147058 -0.198811 0)
(1.65441e-05 -0.198815 0)
(2.08049e-08 -0.198815 0)
(2.01978e-12 -0.198815 0)
(7.14123e-15 -0.198815 0)
(3.45159e-14 -0.198815 0)
(3.21355e-14 -0.198815 0)
(1.30923e-14 -0.198815 0)
(-3.09453e-14 -0.198815 0)
(-4.76082e-15 -0.198815 0)
(-4.76082e-15 -0.198815 0)
(-6.90319e-14 -0.198815 0)
(-3.33257e-14 -0.198815 0)
(3.45159e-14 -0.198815 0)
(9.52164e-15 -0.198815 0)
(1.42825e-14 -0.198815 0)
(4.16572e-14 -0.198815 0)
(-1.54727e-14 -0.198815 0)
(-4.16572e-14 -0.198815 0)
(-3.80866e-14 -0.198815 0)
(9.52164e-15 -0.198815 0)
(8.09339e-14 -0.198815 0)
(2.38041e-15 -0.198815 0)
(-6.18906e-14 -0.198815 0)
(-2.61845e-14 -0.198815 0)
(-7.14123e-15 -0.198815 0)
(-1.9686e-12 -0.198815 0)
(-2.08048e-08 -0.198815 0)
(-1.65441e-05 -0.198815 0)
(-0.00147058 -0.198811 0)
(-0.0236065 -0.198585 0)
(-0.118595 -0.196801 0)
(-0.291136 -0.1916 0)
(-0.13702 -0.147788 0)
(0.0576729 -0.171152 0)
(-0.0193854 0.0216411 0)
(0.16024 0.0613735 0)
(0.281741 0.0457371 0)
(0.125597 0.0516235 0)
(0.0249887 0.0530034 0)
(0.00152343 0.0530578 0)
(1.68904e-05 0.0530582 0)
(2.10573e-08 0.0530582 0)
(2.0531e-12 0.0530582 0)
(4.0467e-14 0.0530582 0)
(-1.30923e-14 0.0530582 0)
(-1.07118e-14 0.0530582 0)
(8.33143e-15 0.0530582 0)
(-3.57061e-15 0.0530582 0)
(2.14237e-14 0.0530582 0)
(7.14123e-15 0.0530582 0)
(-3.57061e-14 0.0530582 0)
(-7.14123e-15 0.0530582 0)
(8.33143e-15 0.0530582 0)
(-1.07118e-14 0.0530582 0)
(2.97551e-14 0.0530582 0)
(3.09453e-14 0.0530582 0)
(9.52164e-15 0.0530582 0)
(-1.1902e-15 0.0530582 0)
(-3.45159e-14 0.0530582 0)
(2.38041e-15 0.0530582 0)
(2.38041e-15 0.0530582 0)
(-2.14237e-14 0.0530582 0)
(2.38041e-15 0.0530582 0)
(1.30923e-14 0.0530582 0)
(-1.78531e-14 0.0530582 0)
(-2.09952e-12 0.0530582 0)
(-2.10574e-08 0.0530582 0)
(-1.68904e-05 0.0530582 0)
(-0.00152343 0.0530578 0)
(-0.0249887 0.0530034 0)
(-0.125597 0.0516235 0)
(-0.281741 0.0457371 0)
(-0.16024 0.0613735 0)
(0.0193854 0.0216411 0)
(-0.0193854 -0.0216411 0)
(0.16024 -0.0613735 0)
(0.281741 -0.0457371 0)
(0.125597 -0.0516235 0)
(0.0249887 -0.0530034 0)
(0.00152343 -0.0530578 0)
(1.68904e-05 -0.0530582 0)
(2.10574e-08 -0.0530582 0)
(2.03168e-12 -0.0530582 0)
(5.95102e-14 -0.0530582 0)
(1.66629e-14 -0.0530582 0)
(-1.66629e-14 -0.0530582 0)
(-7.14123e-15 -0.0530582 0)
(-2.38041e-15 -0.0530582 0)
(0 -0.0530582 0)
(1.30923e-14 -0.0530582 0)
(-9.52164e-15 -0.0530582 0)
(-1.42825e-14 -0.0530582 0)
(-1.66629e-14 -0.0530582 0)
(-3.21355e-14 -0.0530582 0)
(4.76082e-15 -0.0530582 0)
(4.0467e-14 -0.0530582 0)
(1.1902e-14 -0.0530582 0)
(-1.07118e-14 -0.0530582 0)
(1.1902e-15 -0.0530582 0)
(4.76082e-15 -0.0530582 0)
(0 -0.0530582 0)
(-1.07118e-14 -0.0530582 0)
(-1.42825e-14 -0.0530582 0)
(2.38041e-15 -0.0530582 0)
(4.76082e-15 -0.0530582 0)
(-2.05191e-12 -0.0530582 0)
(-2.10574e-08 -0.0530582 0)
(-1.68904e-05 -0.0530582 0)
(-0.00152343 -0.0530578 0)
(-0.0249887 -0.0530034 0)
(-0.125597 -0.0516235 0)
(-0.281741 -0.0457371 0)
(-0.16024 -0.0613735 0)
(0.0193854 -0.0216411 0)
(-0.0576729 0.171152 0)
(0.13702 0.147788 0)
(0.291136 0.1916 0)
(0.118595 0.196801 0)
(0.0236065 0.198585 0)
(0.00147058 0.198811 0)
(1.65441e-05 0.198815 0)
(2.08049e-08 0.198815 0)
(2.01264e-12 0.198815 0)
(6.30809e-14 0.198815 0)
(4.28474e-14 0.198815 0)
(1.42825e-14 0.198815 0)
(2.38041e-15 0.198815 0)
(-2.97551e-14 0.198815 0)
(9.52164e-15 0.198815 0)
(2.49943e-14 0.198815 0)
(-5.35592e-14 0.198815 0)
(-5.47494e-14 0.198815 0)
(-7.14123e-15 0.198815 0)
(2.38041e-15 0.198815 0)
(2.49943e-14 0.198815 0)
(2.02335e-14 0.198815 0)
(-1.1902e-14 0.198815 0)
(-4.76082e-15 0.198815 0)
(2.38041e-14 0.198815 0)
(2.73747e-14 0.198815 0)
(1.42825e-14 0.198815 0)
(-2.49943e-14 0.198815 0)
(-4.52278e-14 0.198815 0)
(-2.49943e-14 0.198815 0)
(0 0.198815 0)
(-1.98645e-12 0.198815 0)
(-2.08048e-08 0.198815 0)
(-1.65441e-05 0.198815 0)
(-0.00147058 0.198811 0)
(-0.0236065 0.198585 0)
(-0.118595 0.196801 0)
(-0.291136 0.1916 0)
(-0.13702 0.147788 0)
(0.0576729 0.171152 0)
(-0.0419003 0.305495 0)
(0.179944 0.316014 0)
(0.328972 0.355489 0)
(0.132328 0.37055 0)
(0.0269251 0.374784 0)
(0.00174521 0.375159 0)
(2.08942e-05 0.375165 0)
(2.85799e-08 0.375165 0)
(3.14095e-12 0.375165 0)
(8.33143e-14 0.375165 0)
(2.85649e-14 0.375165 0)
(-5.2369e-14 0.375165 0)
(-3.45159e-14 0.375165 0)
(-1.78531e-14 0.375165 0)
(-4.99886e-14 0.375165 0)
(-2.49943e-14 0.375165 0)
(0 0.375165 0)
(-1.42825e-14 0.375165 0)
(1.1902e-15 0.375165 0)
(3.57061e-14 0.375165 0)
(6.18906e-14 0.375165 0)
(5.59396e-14 0.375165 0)
(-1.30923e-14 0.375165 0)
(-2.02335e-14 0.375165 0)
(-4.87984e-14 0.375165 0)
(-6.42711e-14 0.375165 0)
(2.02335e-14 0.375165 0)
(-4.76082e-15 0.375165 0)
(-3.80866e-14 0.375165 0)
(-3.68963e-14 0.375165 0)
(-9.52164e-15 0.375165 0)
(-3.03383e-12 0.375165 0)
(-2.85799e-08 0.375165 0)
(-2.08942e-05 0.375165 0)
(-0.00174521 0.375159 0)
(-0.0269251 0.374784 0)
(-0.132328 0.37055 0)
(-0.328972 0.355489 0)
(-0.179944 0.316014 0)
(0.0419003 0.305495 0)
(-0.0475363 0.140848 0)
(0.185196 0.133471 0)
(0.343689 0.14827 0)
(0.137189 0.1534 0)
(0.0280474 0.154843 0)
(0.00183793 0.154969 0)
(2.24756e-05 0.154972 0)
(3.16835e-08 0.154972 0)
(3.53491e-12 0.154972 0)
(-1.78531e-14 0.154972 0)
(-1.13069e-13 0.154972 0)
(-3.68963e-14 0.154972 0)
(7.02221e-14 0.154972 0)
(1.53536e-13 0.154972 0)
(7.14123e-14 0.154972 0)
(2.38041e-15 0.154972 0)
(9.64066e-14 0.154972 0)
(1.42825e-13 0.154972 0)
(2.02335e-14 0.154972 0)
(-9.2836e-14 0.154972 0)
(-9.04556e-14 0.154972 0)
(-6.90319e-14 0.154972 0)
(3.57061e-15 0.154972 0)
(2.02335e-14 0.154972 0)
(-9.75968e-14 0.154972 0)
(-8.56947e-14 0.154972 0)
(0 0.154972 0)
(5.71298e-14 0.154972 0)
(8.56947e-14 0.154972 0)
(7.37927e-14 0.154972 0)
(4.0467e-14 0.154972 0)
(-3.70035e-12 0.154972 0)
(-3.16838e-08 0.154972 0)
(-2.24756e-05 0.154972 0)
(-0.00183793 0.154969 0)
(-0.0280474 0.154843 0)
(-0.137189 0.1534 0)
(-0.343689 0.14827 0)
(-0.185196 0.133471 0)
(0.0475363 0.140848 0)
(-0.049009 0.0302126 0)
(0.187097 0.0286133 0)
(0.348177 0.0324686 0)
(0.138662 0.0337413 0)
(0.028437 0.0341498 0)
(0.00186945 0.0341849 0)
(2.29734e-05 0.0341855 0)
(3.25885e-08 0.0341855 0)
(3.85983e-12 0.0341855 0)
(-5.11788e-14 0.0341855 0)
(6.07004e-14 0.0341855 0)
(-2.38041e-15 0.0341855 0)
(-1.20211e-13 0.0341855 0)
(-1.13069e-13 0.0341855 0)
(-1.05928e-13 0.0341855 0)
(-2.73747e-14 0.0341855 0)
(4.6418e-14 0.0341855 0)
(6.66515e-14 0.0341855 0)
(-4.76082e-15 0.0341855 0)
(-1.78531e-14 0.0341855 0)
(5.47494e-14 0.0341855 0)
(4.76082e-14 0.0341855 0)
(2.85649e-14 0.0341855 0)
(4.87984e-14 0.0341855 0)
(1.1664e-13 0.0341855 0)
(-1.1902e-15 0.0341855 0)
(-7.85535e-14 0.0341855 0)
(2.38041e-15 0.0341855 0)
(2.85649e-14 0.0341855 0)
(5.95102e-15 0.0341855 0)
(-4.76082e-14 0.0341855 0)
(-3.70273e-12 0.0341855 0)
(-3.25883e-08 0.0341855 0)
(-2.29734e-05 0.0341855 0)
(-0.00186945 0.0341849 0)
(-0.028437 0.0341498 0)
(-0.138662 0.0337413 0)
(-0.348177 0.0324686 0)
(-0.187097 0.0286133 0)
(0.049009 0.0302126 0)
(-0.0490774 0.00209418 0)
(0.18737 0.00202253 0)
(0.348631 0.00238397 0)
(0.138809 0.00250269 0)
(0.028475 0.00253994 0)
(0.00187228 0.00254289 0)
(2.30141e-05 0.00254293 0)
(3.26569e-08 0.00254293 0)
(3.63131e-12 0.00254293 0)
(5.11788e-14 0.00254293 0)
(6.42711e-14 0.00254293 0)
(4.52278e-14 0.00254293 0)
(-2.02335e-14 0.00254293 0)
(0 0.00254293 0)
(7.85535e-14 0.00254293 0)
(6.30809e-14 0.00254293 0)
(-3.33257e-14 0.00254293 0)
(-9.99772e-14 0.00254293 0)
(-7.14123e-14 0.00254293 0)