/*--------------------------------*- C++ -*----------------------------------*\
| =========                 |                                                 |
| \\      /  F ield         | OpenFOAM: The Open Source CFD Toolbox           |
|  \\    /   O peration     | Version:  v1912                                 |
|   \\  /    A nd           | Website:  www.openfoam.com                      |
|    \\/     M anipulation  |                                                 |
\*---------------------------------------------------------------------------*/
FoamFile
{
    version     2.0;
    format      ascii;
    class       volTensorField;
    location    "6.46";
    object      grad(U);
}
// * * * * * * * * * * * * * * * * * * * * * * * * * * * * * * * * * * * * * //

dimensions      [0 0 -1 0 0 0 0];


internalField   nonuniform List<tensor> 
1900
(
(-4.23344 -6.66226e-06 0 7.31068e-06 -1.90658e-06 0 0 0 0)
(4.41374 -1.5125e-05 0 -3.02332e-05 -2.52215e-05 0 0 0 0)
(0.729 -7.57815e-06 0 -5.41387e-05 -7.14413e-05 0 0 0 0)
(-0.0104586 -0.000136471 0 -3.50692e-05 -7.30135e-05 0 0 0 0)
(0.00868668 -0.000296039 0 9.03514e-05 -0.000279208 0 0 0 0)
(0.00634752 -0.000534849 0 -9.48693e-05 -0.000525528 0 0 0 0)
(0.00948906 0.00178349 0 -0.000786748 -0.00124126 0 0 0 0)
(0.0138035 0.0158013 0 -0.0019433 0.002598 0 0 0 0)
(-0.026563 0.0567241 0 0.00619952 0.0252771 0 0 0 0)
(-0.0138071 0.205422 0 0.0571607 0.113227 0 0 0 0)
(-4.23346 -2.04658e-05 0 5.20102e-06 5.70841e-07 0 0 0 0)
(4.41368 -5.44097e-05 0 -4.3692e-05 6.09142e-06 0 0 0 0)
(0.728995 -4.02139e-05 0 -8.53945e-05 1.56959e-05 0 0 0 0)
(-0.0103141 -7.12958e-05 0 -4.83401e-05 1.36696e-05 0 0 0 0)
(0.00862688 -0.000156476 0 0.000129568 0.000152167 0 0 0 0)
(0.00547042 -0.000427204 0 -0.000239541 0.000309708 0 0 0 0)
(0.00764063 0.00134004 0 -0.00129569 0.000687017 0 0 0 0)
(0.0207898 0.0107171 0 -0.00125349 -0.00147379 0 0 0 0)
(0.032541 0.0539045 0 0.00955498 -0.0151143 0 0 0 0)
(0.114173 0.146503 0 0.0904566 -0.0581979 0 0 0 0)
(-4.23347 7.82092e-13 0 5.84385e-13 2.67149e-06 0 0 0 0)
(4.41365 -6.13487e-13 0 9.26654e-13 3.82601e-05 0 0 0 0)
(0.728995 -2.13051e-13 0 1.38778e-13 0.000111491 0 0 0 0)
(-0.0102437 5.59715e-13 0 -1.39591e-13 0.000118688 0 0 0 0)
(0.00849548 5.50005e-13 0 -4.13894e-13 0.000254082 0 0 0 0)
(0.00492226 -3.46159e-13 0 -3.19162e-13 0.00043164 0 0 0 0)
(0.00847511 -7.49524e-13 0 -1.2265e-13 0.00110849 0 0 0 0)
(0.0246542 -7.64631e-13 0 2.06812e-13 -0.00224843 0 0 0 0)
(0.0651471 -3.46879e-13 0 5.45625e-13 -0.0203256 0 0 0 0)
(0.171313 -8.1225e-15 0 1.03135e-13 -0.110057 0 0 0 0)
(-4.23346 2.04658e-05 0 -5.20102e-06 5.7084e-07 0 0 0 0)
(4.41368 5.44097e-05 0 4.3692e-05 6.09142e-06 0 0 0 0)
(0.728995 4.02139e-05 0 8.53945e-05 1.56959e-05 0 0 0 0)
(-0.0103141 7.12958e-05 0 4.83401e-05 1.36696e-05 0 0 0 0)
(0.00862688 0.000156476 0 -0.000129568 0.000152167 0 0 0 0)
(0.00547042 0.000427204 0 0.000239541 0.000309708 0 0 0 0)
(0.00764063 -0.00134004 0 0.00129569 0.000687017 0 0 0 0)
(0.0207898 -0.0107171 0 0.00125349 -0.00147379 0 0 0 0)
(0.032541 -0.0539045 0 -0.00955498 -0.0151143 0 0 0 0)
(0.114173 -0.146503 0 -0.0904566 -0.0581979 0 0 0 0)
(-4.23344 6.66226e-06 0 -7.31068e-06 -1.90658e-06 0 0 0 0)
(4.41374 1.5125e-05 0 3.02332e-05 -2.52215e-05 0 0 0 0)
(0.729 7.57815e-06 0 5.41387e-05 -7.14413e-05 0 0 0 0)
(-0.0104586 0.000136471 0 3.50692e-05 -7.30135e-05 0 0 0 0)
(0.00868668 0.000296039 0 -9.03514e-05 -0.000279208 0 0 0 0)
(0.00634752 0.000534849 0 9.48693e-05 -0.000525528 0 0 0 0)
(0.00948906 -0.00178349 0 0.000786748 -0.00124126 0 0 0 0)
(0.0138035 -0.0158013 0 0.0019433 0.002598 0 0 0 0)
(-0.026563 -0.0567241 0 -0.00619952 0.0252771 0 0 0 0)
(-0.0138071 -0.205422 0 -0.0571607 0.113227 0 0 0 0)
(0.183349 0.414875 -2.10907e-17 0.245092 -0.230729 3.1636e-17 5.65758e-17 7.33263e-17 -5.71664e-33)
(0.528108 0.576809 0 0.301089 -0.461824 0 -1.60246e-16 -4.6969e-17 0)
(0.818432 0.989363 0 0.303087 -0.797517 0 -2.63268e-16 -8.52003e-17 0)
(1.50652 1.61519 0 0.352076 -1.46767 0 0 0 0)
(2.79581 1.88301 2.74892e-16 1.14393 -3.55247 -4.12337e-16 -2.30144e-15 -1.5343e-15 -7.45095e-32)
(0.2575 0.159232 0 0.187962 -0.202888 0 1.00864e-16 3.16335e-17 0)
(0.444042 0.170352 0 0.151029 -0.333193 0 1.60246e-16 4.6969e-17 0)
(0.764348 0.419975 0 0.0665346 -0.625501 0 2.63268e-16 8.52003e-17 0)
(1.69072 0.868211 0 -0.066139 -1.32881 0 0 0 0)
(3.71546 0.581427 0 -0.186256 -3.10447 0 0 0 0)
(0.315296 -2.33855e-14 0 7.46371e-14 -0.294467 0 0 0 0)
(0.4688 3.15924e-13 0 4.09548e-13 -0.373325 0 0 0 0)
(0.762015 2.2294e-13 0 2.15711e-13 -0.634999 0 0 0 0)
(1.5962 3.53364e-13 0 2.18689e-13 -1.36274 0 0 0 0)
(3.46101 4.84753e-13 0 5.77596e-13 -3.66776 0 0 0 0)
(0.2575 -0.159232 0 -0.187962 -0.202888 0 1.00864e-16 -3.16335e-17 0)
(0.444042 -0.170352 0 -0.151029 -0.333193 0 1.60246e-16 -4.6969e-17 0)
(0.764348 -0.419975 0 -0.0665346 -0.625501 0 2.63268e-16 -8.52003e-17 0)
(1.69072 -0.868211 0 0.066139 -1.32881 0 0 0 0)
(3.71546 -0.581427 0 0.186256 -3.10447 0 0 0 0)
(0.183349 -0.414875 2.10907e-17 -0.245092 -0.230729 3.1636e-17 -2.58304e-16 1.36593e-16 -5.71664e-33)
(0.528108 -0.576809 0 -0.301089 -0.461824 0 -1.60246e-16 4.6969e-17 0)
(0.818432 -0.989363 0 -0.303087 -0.797517 0 -2.63268e-16 8.52003e-17 0)
(1.50652 -1.61519 9.88103e-17 -0.352076 -1.46767 1.48215e-16 -9.42673e-16 6.28448e-16 -2.67826e-32)
(2.79581 -1.88301 -2.74892e-16 -1.14393 -3.55247 -4.12337e-16 2.30144e-15 -1.5343e-15 -7.45095e-32)
(4.19609 -0.789887 -1.87582e-17 0.00614193 4.51796 -1.68824e-16 2.28811e-15 -1.18148e-16 5.08442e-33)
(2.31282 -0.299599 8.85359e-18 0.565073 2.74202 7.96823e-17 -2.55963e-15 1.99931e-16 2.39977e-33)
(1.76937 -0.0469752 0 0.715459 2.32489 0 0 0 0)
(1.05551 0.153103 -5.02627e-18 0.697791 2.09045 -4.52364e-17 2.51511e-15 -2.14164e-16 1.36237e-33)
(0.0377195 0.0933818 6.02481e-18 0.605988 2.17774 5.42233e-17 -1.14042e-15 1.26713e-16 1.63303e-33)
(4.33231 -0.954851 0 -0.704756 -0.692582 0 -1.14415e-15 -8.95909e-18 0)
(2.59102 -0.198572 0 0.350374 1.02225 0 1.28832e-15 -5.86754e-17 0)
(1.86331 -0.0487776 0 0.420751 1.34002 0 0 0 0)
(1.03728 0.0414799 0 0.396518 1.54938 0 -1.58806e-15 8.28384e-17 0)
(0.0700202 0.0134594 0 0.282036 1.20348 0 2.9179e-16 -6.22039e-18 0)
(4.33242 1.19182e-13 0 3.66876e-13 0.790207 0 0 0 0)
(2.56616 -3.33972e-14 0 2.224e-13 1.85203 0 0 0 0)
(1.75585 4.39892e-13 0 1.92747e-13 1.96675 0 0 0 0)
(0.972855 -8.41345e-13 0 -2.76365e-13 1.92192 0 6.40002e-16 3.13296e-29 0)
(0.000456154 1.18921e-12 0 5.07229e-14 1.65234 0 -5.8358e-16 6.62951e-29 0)
(4.33231 0.954851 0 0.704756 -0.692582 0 -1.14415e-15 8.95909e-18 0)
(2.59102 0.198572 0 -0.350374 1.02225 0 1.28832e-15 5.86754e-17 0)
(1.86331 0.0487776 0 -0.420751 1.34002 0 0 0 0)
(1.03728 -0.0414799 0 -0.396518 1.54938 0 -1.58806e-15 -8.28384e-17 0)
(0.0700202 -0.0134594 0 -0.282036 1.20348 0 2.9179e-16 6.22039e-18 0)
(4.19609 0.789887 0 -0.00614193 4.51796 0 1.14415e-15 -8.95909e-18 0)
(2.31282 0.299599 -8.85359e-18 -0.565073 2.74202 7.96823e-17 -1.70181e-17 8.25807e-17 2.39977e-33)
(1.76937 0.0469752 0 -0.715459 2.32489 0 0 0 0)
(1.05551 -0.153103 5.02627e-18 -0.697791 2.09045 -4.52364e-17 2.10152e-17 -6.29576e-17 1.36237e-33)
(0.0377195 -0.0933818 -6.02481e-18 -0.605988 2.17774 5.42233e-17 1.14042e-15 1.26713e-16 1.63303e-33)
(-0.192853 -0.247068 0 1.0643 1.37078 0 0 0 0)
(0.268639 0.0186083 0 1.17097 1.48095 0 0 0 0)
(0.231322 0.453566 0 0.862674 0.965522 0 0 0 0)
(-0.705672 0.705244 0 0.680033 0.314752 0 0 0 0)
(-1.89533 0.0106131 0 1.08676 0.23609 0 0 0 0)
(-1.67631 -0.463079 0 0.322327 0.418145 0 0 0 0)
(-0.964757 -0.283387 0 0.523997 0.966277 0 0 0 0)
(-1.06761 -0.136587 0 0.831592 1.27321 0 0 0 0)
(-0.958517 0.0867534 0 0.710895 1.16883 0 0 0 0)
(-0.736826 0.185338 0 0.405176 0.874303 0 0 0 0)
(-0.640025 0.148542 0 0.192307 0.618586 0 0 0 0)
(-0.68688 0.0967715 0 0.0912243 0.437035 0 0 0 0)
(-0.648531 0.0583908 0 0.0521715 0.311168 0 0 0 0)
(-0.388706 0.0287978 0 0.0236186 0.239577 0 0 0 0)
(-0.131786 0.0112251 0 0.00682008 0.211432 0 0 0 0)
(-0.0298699 0.00484531 0 0.00251728 0.200434 0 0 0 0)
(-0.00374472 0.0041388 0 0.0036053 0.193963 0 0 0 0)
(0.0122862 0.00433145 0 0.00329393 0.186461 0 0 0 0)
(0.0409074 0.00272027 0 0.000652231 0.180121 0 0 0 0)
(0.0816994 0.00083335 0 -0.00033082 0.177561 0 0 0 0)
(0.11816 0.000236866 0 -0.000156528 0.176782 0 0 0 0)
(0.139199 0.000214718 0 0.000353545 0.176255 0 0 0 0)
(0.147201 0.000197293 0 0.000932697 0.175898 0 0 0 0)
(0.14857 0.000214753 0 0.00147389 0.175559 0 0 0 0)
(0.147741 0.000274712 0 0.00193216 0.175165 0 0 0 0)
(0.145705 8.83825e-05 0 0.00229671 0.17463 0 0 0 0)
(0.145535 0.000445804 0 0.00259261 0.174876 0 0 0 0)
(0.143556 3.84028e-05 0 0.00292365 0.173101 0 0 0 0)
(0.139709 5.48093e-05 0 0.00313765 0.174753 0 0 0 0)
(0.13851 -0.000244036 0 0.00333018 0.172968 0 0 0 0)
(0.135668 0.000370515 0 0.00354247 0.175578 0 0 0 0)
(0.129854 -0.000945004 0 0.00362245 0.171788 0 0 0 0)
(0.115141 0.000443025 0 0.00355056 0.178591 0 0 0 0)
(0.098152 -0.00123497 0 0.00239771 0.170588 0 0 0 0)
(0.0804652 -0.00202029 0 0.0028314 0.182654 0 0 0 0)
(0.033882 0.000279467 0 0.00128817 0.177121 0 0 0 0)
(-0.226305 0.000864255 0 0.00467581 0.182038 0 0 0 0)
(-0.541397 -0.00194963 0 0.00396514 0.174455 0 0 0 0)
(-0.924019 -0.00194711 0 -0.00946167 0.18436 0 0 0 0)
(-0.608474 0.00233744 0 -0.0250453 0.179138 0 0 0 0)
(-0.0695161 -0.0594729 0 0.396747 1.70666 0 0 0 0)
(0.172744 -0.0258022 0 0.489319 1.87022 0 0 0 0)
(0.00226466 0.202768 0 0.0308014 1.64269 0 0 0 0)
(-0.727559 0.455403 0 -0.146444 0.311083 0 0 0 0)
(-1.89779 0.031755 0 0.0954913 -0.781583 0 0 0 0)
(-1.73055 -0.275376 0 -0.0391523 0.2746 0 0 0 0)
(-0.862069 -0.130818 0 -0.0601621 0.810252 0 0 0 0)
(-0.972575 -0.0772557 0 0.165282 1.24874 0 0 0 0)
(-0.983819 0.0399675 0 0.165778 1.27977 0 0 0 0)
(-0.806582 0.0949955 0 0.0896396 0.950528 0 0 0 0)
(-0.694052 0.0731406 0 0.0670983 0.642673 0 0 0 0)
(-0.716217 0.0457887 0 0.0571601 0.439915 0 0 0 0)
(-0.660406 0.0286648 0 0.0319328 0.310021 0 0 0 0)
(-0.393115 0.0147314 0 0.00749131 0.239197 0 0 0 0)
(-0.133103 0.00559933 0 -0.00113572 0.211029 0 0 0 0)
(-0.0297072 0.00234274 0 -0.00190423 0.200611 0 0 0 0)
(-0.00340435 0.00213466 0 -0.000499499 0.194373 0 0 0 0)
(0.012245 0.00218589 0 -0.000224024 0.186383 0 0 0 0)
(0.0409379 0.00131008 0 -0.000765302 0.179483 0 0 0 0)
(0.0819792 0.000389161 0 -0.000664379 0.177033 0 0 0 0)
(0.118493 9.48586e-05 0 -7.70112e-05 0.176619 0 0 0 0)
(0.139533 0.000102608 0 0.000595223 0.176218 0 0 0 0)
(0.147533 9.75076e-05 0 0.00127491 0.175881 0 0 0 0)
(0.148883 0.000106364 0 0.00192073 0.17554 0 0 0 0)
(0.148027 0.000136333 0 0.00251559 0.175143 0 0 0 0)
(0.145965 4.29844e-05 0 0.00305916 0.174596 0 0 0 0)
(0.145782 0.00022136 0 0.00356835 0.174839 0 0 0 0)
(0.143788 1.88514e-05 0 0.00410461 0.173063 0 0 0 0)
(0.139922 2.9419e-05 0 0.00461248 0.174707 0 0 0 0)
(0.138715 -0.000121817 0 0.00514664 0.172875 0 0 0 0)
(0.135854 0.000189197 0 0.00573815 0.175546 0 0 0 0)
(0.130001 -0.000475016 0 0.00633807 0.171601 0 0 0 0)
(0.115163 0.000245983 0 0.00696628 0.178794 0 0 0 0)
(0.0982541 -0.000594031 0 0.00731657 0.170078 0 0 0 0)
(0.0805241 -0.000992338 0 0.00883889 0.183039 0 0 0 0)
(0.0342153 0.000129869 0 0.00965592 0.177023 0 0 0 0)
(-0.225838 0.000560957 0 0.0135955 0.182079 0 0 0 0)
(-0.543176 -0.000802284 0 0.0170798 0.174052 0 0 0 0)
(-0.927814 -0.00105788 0 0.0140091 0.18878 0 0 0 0)
(-0.61044 0.00107723 0 0.00873953 0.180745 0 0 0 0)
(-0.12031 -2.72698e-12 0 -1.75838e-12 1.80871 0 0 0 0)
(0.162182 -2.55807e-12 0 5.76401e-12 1.92669 0 0 0 0)
(0.0463734 6.09336e-12 0 -6.95466e-12 1.9861 0 0 0 0)
(-0.686853 -8.84374e-11 0 -8.08697e-11 0.532656 0 0 0 0)
(-1.86412 -1.16945e-10 0 -4.7423e-10 -1.1448 0 0 0 0)
(-1.72159 5.2193e-11 0 -5.14929e-10 0.31434 0 0 0 0)
(-0.905285 1.19594e-10 0 -2.19222e-10 0.748412 0 0 0 0)
(-1.00188 3.66333e-11 0 -1.04738e-10 1.21371 0 0 0 0)
(-0.980522 -7.73462e-12 0 4.70011e-11 1.27955 0 0 0 0)
(-0.765533 7.6594e-12 0 7.87288e-11 0.938936 0 0 0 0)
(-0.649473 2.15468e-11 0 -1.54223e-11 0.626452 0 0 0 0)
(-0.69711 1.59673e-11 0 -7.29057e-11 0.436094 0 0 0 0)
(-0.66298 7.10122e-12 0 -6.96625e-11 0.311654 0 0 0 0)
(-0.398326 5.20189e-12 0 -6.15775e-11 0.239023 0 0 0 0)
(-0.13452 -7.76803e-13 0 -5.15546e-11 0.210376 0 0 0 0)
(-0.0296848 -1.43482e-11 0 -3.82003e-11 0.200528 0 0 0 0)
(-0.00325593 -3.47221e-11 0 -2.22196e-11 0.19427 0 0 0 0)
(0.0122089 -5.33864e-11 0 -2.58139e-12 0.185852 0 0 0 0)
(0.0407793 -3.40157e-11 0 2.81283e-11 0.179242 0 0 0 0)
(0.0818996 1.38713e-11 0 5.11949e-11 0.176845 0 0 0 0)
(0.118527 5.4678e-11 0 5.87386e-11 0.176566 0 0 0 0)
(0.139593 5.30519e-11 0 6.74019e-11 0.176193 0 0 0 0)
(0.147587 -2.77705e-12 0 7.69234e-11 0.175861 0 0 0 0)
(0.148931 -6.21026e-11 0 8.1809e-11 0.175523 0 0 0 0)
(0.148072 -6.02777e-11 0 7.80281e-11 0.175129 0 0 0 0)
(0.146011 -3.74901e-11 0 6.72205e-11 0.174586 0 0 0 0)
(0.145839 -1.78761e-11 0 5.23827e-11 0.174834 0 0 0 0)
(0.14386 4.97034e-11 0 3.7743e-11 0.173064 0 0 0 0)
(0.140012 3.60427e-11 0 2.69838e-11 0.174704 0 0 0 0)
(0.138838 1.03032e-11 0 2.44537e-11 0.172862 0 0 0 0)
(0.136014 7.19838e-11 0 1.9009e-11 0.175542 0 0 0 0)
(0.130211 3.69528e-11 0 5.97395e-12 0.171561 0 0 0 0)
(0.115426 -4.57278e-11 0 -2.03189e-11 0.178808 0 0 0 0)
(0.0986967 -1.79087e-11 0 -5.50114e-11 0.16987 0 0 0 0)
(0.0811458 4.96407e-11 0 -8.65903e-11 0.182891 0 0 0 0)
(0.0352658 2.75899e-11 0 -1.53291e-10 0.176692 0 0 0 0)
(-0.224146 -2.40252e-11 0 -2.3391e-10 0.181999 0 0 0 0)
(-0.541277 -2.75377e-11 0 -2.84365e-10 0.172835 0 0 0 0)
(-0.926445 -1.9335e-11 0 -2.31267e-10 0.187514 0 0 0 0)
(-0.610007 -7.91503e-12 0 -1.67649e-10 0.180108 0 0 0 0)
(-0.0695161 0.0594729 0 -0.396747 1.70666 0 0 0 0)
(0.172744 0.0258022 0 -0.489319 1.87022 0 0 0 0)
(0.00226466 -0.202768 0 -0.0308014 1.64269 0 0 0 0)
(-0.727559 -0.455403 0 0.146444 0.311083 0 0 0 0)
(-1.89779 -0.031755 0 -0.0954913 -0.781583 0 0 0 0)
(-1.73055 0.275376 0 0.0391523 0.2746 0 0 0 0)
(-0.862069 0.130818 0 0.0601621 0.810252 0 0 0 0)
(-0.972575 0.0772557 0 -0.165282 1.24874 0 0 0 0)
(-0.983819 -0.0399675 0 -0.165778 1.27977 0 0 0 0)
(-0.806582 -0.0949955 0 -0.0896396 0.950528 0 0 0 0)
(-0.694052 -0.0731406 0 -0.0670983 0.642673 0 0 0 0)
(-0.716217 -0.0457887 0 -0.0571601 0.439915 0 0 0 0)
(-0.660406 -0.0286648 0 -0.0319328 0.310021 0 0 0 0)
(-0.393115 -0.0147314 0 -0.00749131 0.239197 0 0 0 0)
(-0.133103 -0.00559933 0 0.00113572 0.211029 0 0 0 0)
(-0.0297072 -0.00234274 0 0.00190423 0.200611 0 0 0 0)
(-0.00340435 -0.00213466 0 0.000499499 0.194373 0 0 0 0)
(0.012245 -0.00218589 0 0.000224023 0.186383 0 0 0 0)
(0.0409379 -0.00131008 0 0.000765302 0.179483 0 0 0 0)
(0.0819792 -0.000389161 0 0.000664379 0.177033 0 0 0 0)
(0.118493 -9.48585e-05 0 7.70112e-05 0.176619 0 0 0 0)
(0.139533 -0.000102608 0 -0.000595223 0.176218 0 0 0 0)
(0.147533 -9.75076e-05 0 -0.00127491 0.175881 0 0 0 0)
(0.148883 -0.000106364 0 -0.00192073 0.17554 0 0 0 0)
(0.148027 -0.000136334 0 -0.00251559 0.175143 0 0 0 0)
(0.145965 -4.29844e-05 0 -0.00305916 0.174596 0 0 0 0)
(0.145782 -0.00022136 0 -0.00356835 0.174839 0 0 0 0)
(0.143788 -1.88513e-05 0 -0.00410461 0.173063 0 0 0 0)
(0.139922 -2.94189e-05 0 -0.00461248 0.174707 0 0 0 0)
(0.138715 0.000121817 0 -0.00514664 0.172875 0 0 0 0)
(0.135854 -0.000189196 0 -0.00573815 0.175546 0 0 0 0)
(0.130001 0.000475016 0 -0.00633807 0.171601 0 0 0 0)
(0.115163 -0.000245983 0 -0.00696628 0.178794 0 0 0 0)
(0.0982541 0.000594031 0 -0.00731656 0.170078 0 0 0 0)
(0.0805241 0.000992338 0 -0.00883889 0.183039 0 0 0 0)
(0.0342153 -0.000129869 0 -0.00965592 0.177023 0 0 0 0)
(-0.225838 -0.000560957 0 -0.0135955 0.182079 0 0 0 0)
(-0.543176 0.000802284 0 -0.0170798 0.174052 0 0 0 0)
(-0.927814 0.00105788 0 -0.0140091 0.18878 0 0 0 0)
(-0.61044 -0.00107723 0 -0.00873953 0.180745 0 0 0 0)
(-0.192853 0.247068 0 -1.0643 1.37078 0 0 0 0)
(0.268639 -0.0186083 0 -1.17097 1.48095 0 0 0 0)
(0.231322 -0.453566 0 -0.862674 0.965522 0 0 0 0)
(-0.705672 -0.705244 0 -0.680033 0.314752 0 0 0 0)
(-1.89533 -0.0106131 0 -1.08676 0.23609 0 0 0 0)
(-1.67631 0.463079 0 -0.322327 0.418145 0 0 0 0)
(-0.964757 0.283387 0 -0.523997 0.966277 0 0 0 0)
(-1.06761 0.136587 0 -0.831592 1.27321 0 0 0 0)
(-0.958517 -0.0867534 0 -0.710895 1.16883 0 0 0 0)
(-0.736826 -0.185338 0 -0.405176 0.874303 0 0 0 0)
(-0.640025 -0.148542 0 -0.192307 0.618586 0 0 0 0)
(-0.68688 -0.0967715 0 -0.0912243 0.437035 0 0 0 0)
(-0.648531 -0.0583908 0 -0.0521715 0.311168 0 0 0 0)
(-0.388706 -0.0287978 0 -0.0236186 0.239577 0 0 0 0)
(-0.131786 -0.0112251 0 -0.00682008 0.211432 0 0 0 0)
(-0.0298699 -0.00484531 0 -0.00251728 0.200434 0 0 0 0)
(-0.00374472 -0.0041388 0 -0.0036053 0.193963 0 0 0 0)
(0.0122862 -0.00433145 0 -0.00329393 0.186461 0 0 0 0)
(0.0409074 -0.00272027 0 -0.000652231 0.180121 0 0 0 0)
(0.0816994 -0.00083335 0 0.000330819 0.177561 0 0 0 0)
(0.11816 -0.000236865 0 0.000156527 0.176782 0 0 0 0)
(0.139199 -0.000214718 0 -0.000353546 0.176255 0 0 0 0)
(0.147201 -0.000197293 0 -0.000932698 0.175898 0 0 0 0)
(0.14857 -0.000214753 0 -0.00147389 0.175559 0 0 0 0)
(0.147741 -0.000274712 0 -0.00193216 0.175165 0 0 0 0)
(0.145705 -8.83826e-05 0 -0.00229671 0.17463 0 0 0 0)
(0.145535 -0.000445804 0 -0.00259261 0.174876 0 0 0 0)
(0.143556 -3.84027e-05 0 -0.00292365 0.173101 0 0 0 0)
(0.139709 -5.48093e-05 0 -0.00313765 0.174753 0 0 0 0)
(0.13851 0.000244036 0 -0.00333018 0.172968 0 0 0 0)
(0.135668 -0.000370515 0 -0.00354248 0.175578 0 0 0 0)
(0.129854 0.000945004 0 -0.00362245 0.171788 0 0 0 0)
(0.115141 -0.000443025 0 -0.00355056 0.178591 0 0 0 0)
(0.098152 0.00123497 0 -0.00239771 0.170588 0 0 0 0)
(0.0804652 0.00202029 0 -0.0028314 0.182654 0 0 0 0)
(0.033882 -0.000279467 0 -0.00128817 0.177121 0 0 0 0)
(-0.226305 -0.000864255 0 -0.00467581 0.182038 0 0 0 0)
(-0.541397 0.00194963 0 -0.00396514 0.174455 0 0 0 0)
(-0.924019 0.00194711 0 0.00946167 0.18436 0 0 0 0)
(-0.608474 -0.00233744 0 0.0250453 0.179138 0 0 0 0)
(0.0103906 0.0510972 0 -0.906572 0.818081 0 0 0 0)
(0.188336 -0.177054 0 -0.890842 0.839228 0 0 0 0)
(0.0453654 -0.644308 0 -1.35934 0.685108 0 0 0 0)
(-0.893426 -0.624077 0 -1.65736 0.654619 0 0 0 0)
(-1.67626 0.00865535 0 -1.80211 0.968284 0 0 0 0)
(-1.44025 0.516371 0 -1.08584 0.885176 0 0 0 0)
(-1.06278 0.490771 0 -1.22619 1.14884 0 0 0 0)
(-0.979928 0.135707 0 -1.14453 1.12721 0 0 0 0)
(-0.745595 -0.236097 0 -0.765276 0.912763 0 0 0 0)
(-0.56194 -0.335688 0 -0.412833 0.701232 0 0 0 0)
(-0.559588 -0.260245 0 -0.228726 0.533042 0 0 0 0)
(-0.662234 -0.179675 0 -0.163128 0.404444 0 0 0 0)
(-0.63173 -0.118154 0 -0.12022 0.29846 0 0 0 0)
(-0.369765 -0.0610289 0 -0.0580863 0.234161 0 0 0 0)
(-0.12139 -0.023648 0 -0.0213954 0.20965 0 0 0 0)
(-0.0275025 -0.0104069 0 -0.0113838 0.199367 0 0 0 0)
(-0.00349798 -0.00858251 0 -0.0114069 0.192276 0 0 0 0)
(0.0140497 -0.00838784 0 -0.010396 0.185177 0 0 0 0)
(0.0432469 -0.0052624 0 -0.00524028 0.180297 0 0 0 0)
(0.0828101 -0.00197032 0 -0.00139138 0.177919 0 0 0 0)
(0.118448 -0.000749653 0 -2.5689e-05 0.176874 0 0 0 0)
(0.139236 -0.000527306 0 0.00012076 0.176175 0 0 0 0)
(0.147214 -0.000418852 0 1.36828e-05 0.175769 0 0 0 0)
(0.148619 -0.000440687 0 -3.45091e-05 0.175426 0 0 0 0)
(0.147841 -0.000558819 0 4.46676e-05 0.175046 0 0 0 0)
(0.145851 -0.000171971 0 0.00024846 0.174536 0 0 0 0)
(0.145674 -0.000920859 0 0.000552901 0.174796 0 0 0 0)
(0.143714 -7.31952e-05 0 0.000741908 0.17303 0 0 0 0)
(0.139912 -8.383e-05 0 0.00113604 0.174675 0 0 0 0)
(0.138697 0.000497891 0 0.00153005 0.172947 0 0 0 0)
(0.135885 -0.000719426 0 0.00184384 0.175437 0 0 0 0)
(0.130167 0.00182144 0 0.00236823 0.171877 0 0 0 0)
(0.115957 -0.00077076 0 0.00300193 0.177984 0 0 0 0)
(0.0988233 0.0024016 0 0.00546905 0.171009 0 0 0 0)
(0.0812882 0.00390137 0 0.00570028 0.181341 0 0 0 0)
(0.0334438 -0.000343521 0 0.00816939 0.176262 0 0 0 0)
(-0.226976 -0.00188267 0 0.00296229 0.181741 0 0 0 0)
(-0.536364 0.000932187 0 0.00322648 0.173148 0 0 0 0)
(-0.914005 0.0029672 0 0.0124022 0.178835 0 0 0 0)
(-0.602939 -0.00289578 0 0.0232958 0.178375 0 0 0 0)
(-0.00658932 0.0660715 0 -1.32425 0.629395 0 0 0 0)
(-0.124603 -0.0617818 0 -1.33771 0.522872 0 0 0 0)
(-0.40761 -0.52918 0 -1.71753 0.541434 0 0 0 0)
(-1.03166 -0.47589 0 -2.12796 0.755553 0 0 0 0)
(-1.46206 0.201228 0 -2.10523 1.09979 0 0 0 0)
(-1.24792 0.608489 0 -1.76054 1.22498 0 0 0 0)
(-0.968753 0.405417 0 -1.59037 1.07094 0 0 0 0)
(-0.670477 -0.0904283 0 -1.21067 0.80018 0 0 0 0)
(-0.367599 -0.417162 0 -0.763835 0.623766 0 0 0 0)
(-0.313568 -0.470628 0 -0.48109 0.498706 0 0 0 0)
(-0.442532 -0.374639 0 -0.347152 0.416704 0 0 0 0)
(-0.595536 -0.278368 0 -0.277627 0.333949 0 0 0 0)
(-0.556318 -0.190434 0 -0.190692 0.259424 0 0 0 0)
(-0.303632 -0.0970951 0 -0.0827271 0.22177 0 0 0 0)
(-0.092357 -0.0380924 0 -0.0297898 0.206711 0 0 0 0)
(-0.0215141 -0.0186054 0 -0.0173036 0.197888 0 0 0 0)
(-0.00292517 -0.0154294 0 -0.016919 0.189991 0 0 0 0)
(0.017283 -0.013699 0 -0.0147832 0.183544 0 0 0 0)
(0.0483301 -0.0083518 0 -0.00861594 0.179699 0 0 0 0)
(0.0861287 -0.00352282 0 -0.00296087 0.177736 0 0 0 0)
(0.119463 -0.00164207 0 -0.000480301 0.176661 0 0 0 0)
(0.139218 -0.00111201 0 -0.000132652 0.175782 0 0 0 0)
(0.147045 -0.000800075 0 -0.000398615 0.175275 0 0 0 0)
(0.148574 -0.000789595 0 -0.000629694 0.17491 0 0 0 0)
(0.14796 -0.000980461 0 -0.000656587 0.174543 0 0 0 0)
(0.146117 -0.000284493 0 -0.000492517 0.174061 0 0 0 0)
(0.145937 -0.00164232 0 -0.000146224 0.17434 0 0 0 0)
(0.144034 -0.000137006 0 1.83025e-05 0.172599 0 0 0 0)
(0.140359 -0.000118995 0 0.000517493 0.174211 0 0 0 0)
(0.139092 0.000842852 0 0.000984382 0.172607 0 0 0 0)
(0.136359 -0.00121432 0 0.00130358 0.174885 0 0 0 0)
(0.130802 0.00292949 0 0.00189763 0.171747 0 0 0 0)
(0.117692 -0.00110388 0 0.00252166 0.176819 0 0 0 0)
(0.100392 0.00384349 0 0.00560666 0.171559 0 0 0 0)
(0.0826261 0.00607303 0 0.00616287 0.179149 0 0 0 0)
(0.0314786 0.000141003 0 0.00847548 0.175038 0 0 0 0)
(-0.230709 -0.00331891 0 0.000714827 0.181287 0 0 0 0)
(-0.535 -0.000305272 0 7.64856e-05 0.172961 0 0 0 0)
(-0.91005 0.00643718 0 0.00531372 0.18031 0 0 0 0)
(-0.600944 -0.00248156 0 0.00950224 0.180093 0 0 0 0)
(-0.00258256 -0.0515523 0 -2.11973 0.428937 0 0 0 0)
(-0.190649 -0.261816 0 -2.27282 0.21159 0 0 0 0)
(-0.716149 -0.420088 0 -2.46324 0.325285 0 0 0 0)
(-1.26703 -0.0860262 0 -2.72318 0.928639 0 0 0 0)
(-1.32221 0.461013 0 -2.53079 1.29001 0 0 0 0)
(-0.944109 0.488568 0 -2.03502 1.13182 0 0 0 0)
(-0.532901 0.0814173 0 -1.52366 0.712314 0 0 0 0)
(-0.183449 -0.295203 0 -1.00144 0.437449 0 0 0 0)
(-0.0425483 -0.526608 0 -0.650622 0.307049 0 0 0 0)
(-0.16041 -0.535221 0 -0.482786 0.289326 0 0 0 0)
(-0.363524 -0.41901 0 -0.40837 0.286016 0 0 0 0)
(-0.511463 -0.331235 0 -0.342811 0.24643 0 0 0 0)
(-0.443918 -0.226254 0 -0.221579 0.216505 0 0 0 0)
(-0.214715 -0.111825 0 -0.0911212 0.209878 0 0 0 0)
(-0.0583456 -0.0466617 0 -0.0357303 0.203692 0 0 0 0)
(-0.0150997 -0.0265187 0 -0.024757 0.195617 0 0 0 0)
(-0.00106923 -0.0224049 0 -0.0230162 0.187223 0 0 0 0)
(0.0220509 -0.0183056 0 -0.018619 0.181543 0 0 0 0)
(0.0546393 -0.0108586 0 -0.0112593 0.178516 0 0 0 0)
(0.0906499 -0.00489821 0 -0.0045204 0.177052 0 0 0 0)
(0.121173 -0.00263282 0 -0.00118619 0.176015 0 0 0 0)
(0.139315 -0.0018627 0 -0.000533972 0.174998 0 0 0 0)
(0.146735 -0.0012593 0 -0.000843235 0.174382 0 0 0 0)
(0.14837 -0.0011458 0 -0.00120739 0.17399 0 0 0 0)
(0.147973 -0.00137724 0 -0.00133684 0.173648 0 0 0 0)
(0.146343 -0.00036792 0 -0.00123906 0.173206 0 0 0 0)
(0.146166 -0.00232903 0 -0.000890923 0.173524 0 0 0 0)
(0.144353 -0.000197275 0 -0.000755805 0.171877 0 0 0 0)
(0.140843 -7.6603e-05 0 -0.000195757 0.173438 0 0 0 0)
(0.139455 0.00114753 0 0.000294567 0.172072 0 0 0 0)
(0.136765 -0.00154783 0 0.000549583 0.174082 0 0 0 0)
(0.131341 0.00368496 0 0.00110931 0.171605 0 0 0 0)
(0.119531 -0.000951772 0 0.00157777 0.175469 0 0 0 0)
(0.102332 0.00464665 0 0.00483275 0.172165 0 0 0 0)
(0.0840527 0.0072535 0 0.0056923 0.176491 0 0 0 0)
(0.0281939 0.00171657 0 0.00769641 0.174141 0 0 0 0)
(-0.23507 -0.00388367 0 -0.0013436 0.180261 0 0 0 0)
(-0.531933 -8.53736e-06 0 -0.0012314 0.173313 0 0 0 0)
(-0.904922 0.00983969 0 0.00591089 0.182318 0 0 0 0)
(-0.598902 -0.00310502 0 0.0111357 0.180885 0 0 0 0)
(-0.154114 -0.143372 0 -2.75907 0.276584 0 0 0 0)
(-0.455623 -0.161664 0 -3.10923 0.281702 0 0 0 0)
(-0.841596 0.161795 0 -3.21762 0.72788 0 0 0 0)
(-1.09675 0.453751 0 -2.97089 1.13561 0 0 0 0)
(-0.79893 0.397016 0 -2.33193 1.03348 0 0 0 0)
(-0.277413 0.0518031 0 -1.62598 0.597664 0 0 0 0)
(0.0272481 -0.263699 0 -1.04663 0.262545 0 0 0 0)
(0.170815 -0.480956 0 -0.684454 0.0952687 0 0 0 0)
(0.132194 -0.5599 0 -0.529486 0.0801525 0 0 0 0)
(-0.0801246 -0.490897 0 -0.468049 0.153903 0 0 0 0)
(-0.307647 -0.415974 0 -0.428306 0.175933 0 0 0 0)
(-0.415538 -0.345352 0 -0.360763 0.169036 0 0 0 0)
(-0.313781 -0.225657 0 -0.215273 0.183976 0 0 0 0)
(-0.124542 -0.109442 0 -0.0900232 0.199679 0 0 0 0)
(-0.028406 -0.0518353 0 -0.043711 0.198811 0 0 0 0)
(-0.00926232 -0.0344759 0 -0.0344242 0.19083 0 0 0 0)
(0.00298965 -0.0289914 0 -0.0297306 0.183011 0 0 0 0)
(0.0286124 -0.0220889 0 -0.0224468 0.17855 0 0 0 0)
(0.061916 -0.0126797 0 -0.0135989 0.176323 0 0 0 0)
(0.0958355 -0.00593319 0 -0.00600581 0.175564 0 0 0 0)
(0.123305 -0.00362148 0 -0.00209114 0.174662 0 0 0 0)
(0.139548 -0.00268528 0 -0.00108904 0.173607 0 0 0 0)
(0.146396 -0.00177109 0 -0.00123852 0.172929 0 0 0 0)
(0.148098 -0.00149678 0 -0.00151847 0.172529 0 0 0 0)
(0.147929 -0.00173593 0 -0.00156974 0.172235 0 0 0 0)
(0.146546 -0.000404641 0 -0.00138097 0.171839 0 0 0 0)
(0.146402 -0.0029236 0 -0.000901935 0.172214 0 0 0 0)
(0.144704 -0.000220044 0 -0.000568963 0.170748 0 0 0 0)
(0.141371 6.96606e-05 0 0.000158078 0.172231 0 0 0 0)
(0.13981 0.00146369 0 0.000837249 0.171158 0 0 0 0)
(0.137144 -0.00166482 0 0.00122414 0.172913 0 0 0 0)
(0.131793 0.00426613 0 0.00195203 0.171138 0 0 0 0)
(0.12128 -0.00056365 0 0.00248834 0.174032 0 0 0 0)
(0.104357 0.00482806 0 0.00578735 0.172172 0 0 0 0)
(0.0853856 0.0079765 0 0.00711222 0.174414 0 0 0 0)
(0.0246985 0.00377406 0 0.00880868 0.173402 0 0 0 0)
(-0.239312 -0.00411662 0 0.000848077 0.17771 0 0 0 0)
(-0.528009 0.00167737 0 0.00193309 0.172366 0 0 0 0)
(-0.898132 0.0137343 0 0.0106709 0.182681 0 0 0 0)
(-0.59591 -0.0038624 0 0.0176789 0.181646 0 0 0 0)
(-0.340002 -0.0466202 0 -2.84055 0.478941 0 0 0 0)
(-0.632524 0.17307 0 -2.91914 0.689973 0 0 0 0)
(-0.582847 0.402771 0 -2.70703 0.837568 0 0 0 0)
(-0.413543 0.208459 0 -2.12369 0.617774 0 0 0 0)
(-0.0261967 -0.0573735 0 -1.38062 0.241831 0 0 0 0)
(0.294448 -0.254332 0 -0.896655 0.00354002 0 0 0 0)
(0.374387 -0.402709 0 -0.588605 -0.0779395 0 0 0 0)
(0.314894 -0.470962 0 -0.469411 -0.0792342 0 0 0 0)
(0.165987 -0.470107 0 -0.443081 0.0109783 0 0 0 0)
(-0.0629084 -0.442923 0 -0.451184 0.0793987 0 0 0 0)
(-0.260139 -0.404426 0 -0.424854 0.0988155 0 0 0 0)
(-0.306177 -0.323484 0 -0.33641 0.12648 0 0 0 0)
(-0.183023 -0.196725 0 -0.180319 0.17146 0 0 0 0)
(-0.0493916 -0.0975298 0 -0.0807982 0.193546 0 0 0 0)
(-0.00476831 -0.0551888 0 -0.048857 0.192842 0 0 0 0)
(-0.00162764 -0.0417446 0 -0.0403133 0.185024 0 0 0 0)
(0.0104726 -0.0342383 0 -0.03325 0.178448 0 0 0 0)
(0.037596 -0.0247507 0 -0.0240151 0.175183 0 0 0 0)
(0.0704824 -0.013736 0 -0.0143394 0.173633 0 0 0 0)
(0.101739 -0.00649875 0 -0.00655216 0.173151 0 0 0 0)
(0.125911 -0.00451858 0 -0.00261253 0.172473 0 0 0 0)
(0.140136 -0.00353215 0 -0.00160641 0.171419 0 0 0 0)
(0.146321 -0.00229847 0 -0.00180502 0.170718 0 0 0 0)
(0.148051 -0.00181496 0 -0.00218177 0.170338 0 0 0 0)
(0.148106 -0.00204198 0 -0.0023572 0.170127 0 0 0 0)
(0.146987 -0.000387707 0 -0.00229249 0.169791 0 0 0 0)
(0.146948 -0.00338022 0 -0.00193886 0.170255 0 0 0 0)
(0.145375 -0.000180785 0 -0.00159749 0.169083 0 0 0 0)
(0.142198 0.000317947 0 -0.0010362 0.170501 0 0 0 0)
(0.140482 0.00180452 0 -0.000466896 0.16977 0 0 0 0)
(0.137839 -0.00156666 0 -0.000255706 0.171324 0 0 0 0)
(0.132559 0.00476318 0 0.00030378 0.170264 0 0 0 0)
(0.123227 4.49279e-05 0 0.000531284 0.172451 0 0 0 0)
(0.106788 0.00501443 0 0.00319844 0.171758 0 0 0 0)
(0.0869641 0.00843856 0 0.0044433 0.172374 0 0 0 0)
(0.0221575 0.00489294 0 0.00499299 0.172399 0 0 0 0)
(-0.241695 -0.00488257 0 -0.00270305 0.174335 0 0 0 0)
(-0.522467 0.00478178 0 -0.00254569 0.170747 0 0 0 0)
(-0.889748 0.0187824 0 0.00528533 0.182946 0 0 0 0)
(-0.592149 -0.00410265 0 0.0116043 0.182835 0 0 0 0)
(-0.229849 0.0599866 0 -1.77979 0.206673 0 0 0 0)
(-0.32696 0.183922 0 -1.64238 0.322731 0 0 0 0)
(-0.0750719 0.0922214 0 -1.34439 0.144964 0 0 0 0)
(0.181419 -0.120323 0 -0.917069 -0.116819 0 0 0 0)
(0.383484 -0.194882 0 -0.563613 -0.21962 0 0 0 0)
(0.485803 -0.256339 0 -0.411393 -0.199074 0 0 0 0)
(0.438956 -0.343464 0 -0.355953 -0.157015 0 0 0 0)
(0.311048 -0.395272 0 -0.372305 -0.0901961 0 0 0 0)
(0.149758 -0.407035 0 -0.399884 -0.0259685 0 0 0 0)
(-0.0625605 -0.406254 0 -0.42829 0.0192258 0 0 0 0)
(-0.197046 -0.370605 0 -0.393846 0.0532384 0 0 0 0)
(-0.179895 -0.275348 0 -0.281066 0.111928 0 0 0 0)
(-0.0674639 -0.16103 0 -0.145522 0.166274 0 0 0 0)
(0.0021394 -0.0888378 0 -0.0793376 0.18521 0 0 0 0)
(0.0106067 -0.0600475 0 -0.0584366 0.183233 0 0 0 0)
(0.00577715 -0.0483459 0 -0.0490255 0.177015 0 0 0 0)
(0.0186952 -0.0384746 0 -0.0389752 0.172527 0 0 0 0)
(0.0468353 -0.0267292 0 -0.0272598 0.17062 0 0 0 0)
(0.0787439 -0.0146376 0 -0.0163479 0.170484 0 0 0 0)
(0.107136 -0.00705112 0 -0.00815873 0.169927 0 0 0 0)
(0.128071 -0.00529038 0 -0.00376552 0.169384 0 0 0 0)
(0.140327 -0.0043766 0 -0.00221835 0.16836 0 0 0 0)
(0.145841 -0.00281226 0 -0.00185976 0.167681 0 0 0 0)
(0.147566 -0.00206641 0 -0.00171911 0.167359 0 0 0 0)
(0.147822 -0.00226316 0 -0.00142609 0.167263 0 0 0 0)
(0.146949 -0.000280747 0 -0.000910954 0.166996 0 0 0 0)
(0.147072 -0.00360577 0 -0.000190422 0.167576 0 0 0 0)
(0.145574 1.65491e-05 0 0.000776506 0.166753 0 0 0 0)
(0.142461 0.000731188 0 0.00163843 0.168113 0 0 0 0)
(0.140562 0.00225679 0 0.00259183 0.16772 0 0 0 0)
(0.137887 -0.0011887 0 0.00314042 0.169119 0 0 0 0)