/*--------------------------------*- C++ -*----------------------------------*\
| =========                 |                                                 |
| \\      /  F ield         | OpenFOAM: The Open Source CFD Toolbox           |
|  \\    /   O peration     | Version:  v1912                                 |
|   \\  /    A nd           | Website:  www.openfoam.com                      |
|    \\/     M anipulation  |                                                 |
\*---------------------------------------------------------------------------*/
FoamFile
{
    version     2.0;
    format      ascii;
    class       volScalarField;
    location    "9.16";
    object      rho;
}
// * * * * * * * * * * * * * * * * * * * * * * * * * * * * * * * * * * * * * //

dimensions      [1 -3 0 0 0 0 0];


internalField   nonuniform List<scalar> 
1900
(
4680.99
11352
11798.1
12128.1
12709.1
12970.1
12972.2
12841
12666.3
12478.1
4680.96
11352
11798.1
12128.2
12709.2
12969.8
12972.7
12841.1
12665.5
12491.6
4680.93
11352.1
11798.1
12128.3
12709.5
12970.1
12973.5
12839.6
12643.9
12481.1
4680.96
11352
11798.1
12128.2
12709.2
12969.8
12972.7
12841.1
12665.5
12491.6
4680.99
11352
11798.1
12128.1
12709.1
12970.1
12972.2
12841
12666.3
12478.1
12564.8
12359.8
12206.7
11841.9
11688.8
12389.6
12243.4
12110.6
11762.7
11272.8
12355.6
12220.1
12109.4
11807.7
11347.3
12389.6
12243.4
12110.6
11762.7
11272.8
12564.8
12359.8
12206.7
11841.9
11688.8
6178.95
4205.38
3252.47
2735.48
2188.23
6819.97
4531.92
3437.35
2879.73
2295.34
7009.75
4489.68
3364.88
2820.71
2219.46
6819.97
4531.92
3437.35
2879.73
2295.34
6178.95
4205.38
3252.47
2735.48
2188.23
2433.31
2684.07
2792.35
2833.56
2811.82
2763.35
2677.44
2568.01
2456.44
2336.09
2236.8
2153.23
2027.81
1890.71
1867.83
2025.77
2661.23
3021.96
3043.48
3016.6
2937.72
2842.41
2763.28
2708.43
2676.11
2633.6
2570.47
3509.61
4279.89
3569.56
2361.12
2037.26
2069.56
2131.42
2209.34
2309.75
2422.93
2543.59
2667.52
2791.67
2202.97
2408.35
2634.3
2639.19
2603.92
2546.59
2471.4
2383.58
2292.82
2190.06
2113.06
2045.46
1938.32
1821.92
1804.91
1967.44
2582.95
2946.02
2975.17
2957.27
2895.53
2818.52
2752.68
2716.96
2686.69
2635.9
2575.8
3523.54
4283.03
3573.73
2366.04
2039.03
2070.77
2132.31
2210.15
2310.59
2423.85
2544.62
2668.51
2792.53
2163.53
2280.87
2529.99
2571.96
2550.31
2504.89
2438.04
2355.53
2266.94
2164.75
2091.86
2024.99
1922.44
1809.51
1793
1955.59
2568.72
2931.6
2963.48
2944.91
2886.4
2810.95
2751.89
2713.02
2674.47
2630.8
2575.58
3527.62
4291.4
3579.04
2367.74
2039.61
2071.16
2132.55
2210.25
2310.46
2423.5
2544.12
2668
2792.17
2202.97
2408.35
2634.3
2639.19
2603.92
2546.59
2471.4
2383.58
2292.82
2190.06
2113.06
2045.46
1938.32
1821.92
1804.91
1967.44
2582.95
2946.02
2975.17
2957.27
2895.53
2818.52
2752.68
2716.96
2686.69
2635.9
2575.8
3523.54
4283.03
3573.73
2366.04
2039.03
2070.77
2132.31
2210.15
2310.59
2423.85
2544.62
2668.51
2792.53
2433.31
2684.07
2792.35
2833.56
2811.82
2763.35
2677.44
2568.01
2456.44
2336.09
2236.8
2153.23
2027.81
1890.71
1867.83
2025.77
2661.23
3021.96
3043.48
3016.6
2937.72
2842.41
2763.28
2708.43
2676.11
2633.6
2570.47
3509.61
4279.89
3569.56
2361.12
2037.26
2069.56
2131.42
2209.34
2309.75
2422.93
2543.59
2667.52
2791.67
3485.31
3390.91
3333.45
3275.08
3219.61
3158.62
3068.63
2965.65
2853.73
2719.64
2581.15
2451.77
2284.46
2097.5
2049.06
2196.01
2878.57
3245.89
3256.2
3190.67
3057.12
2914.89
2791.2
2708.95
2680.92
2680.81
2640.06
3596.86
4320.7
3571.6
2342.46
2031.32
2065.84
2128.29
2206.54
2307.63
2421.5
2542.66
2667.01
2791.15
4418.72
4168.32
3946.73
3721.2
3553.53
3430.72
3320.53
3233.03
3140.65
3025.77
2904.69
2772.72
2594.97
2374.88
2309.46
2450.06
3154.9
3538.1
3534.63
3419.36
3215.59
2999.51
2824.63
2717.13
2647.29
2575.05
2523.69
3495.31
4194.14
3453.88
2286.93
2021.86
2060.4
2122.65
2200.84
2303.09
2418.6
2541.02
2666.16
2789.98
4719.38
4464.05
4242.81
4107.18
3953.46
3779
3605.51
3455.43
3316.43
3187.49
3074.59
2949.59
2799.37
2606.73
2489.81
2620.72
3367.91
3765.95
3760.14
3619.78
3358.89
3070.08
2863.84
2740.69
2655.85
2578.72
2530.09
3524.15
4117.84
3320.54
2228.43
2027.21
2064.08
2120.73
2195.59
2297.71
2414.75
2539.28
2665.38
2788.95
4752.93
4579.31
4354.38
4101.51
3895.26
3716.24
3552.92
3400.19
3243.16
3101.55
2977.84
2828.76
2700.71
2616.19
2597.6
2780.48
3446.57
3718.49
3697.16
3544.93
3266.16
2990.57
2806.37
2690.49
2611.83
2542.06
2540.75
3584.77
4114.14
3240.36
2213
2064.51
2099.77
2147.29
2208.57
2298.8
2411.92
2536.96
2664
2787.8
4723.43
4530.71
4331.16
4144.24
3960.48
3776.49
3620.78
3448.11
3245.9
3086.81
2927.12
2745.36
2680.92
2653.67
2681.13
2958.5
3515.8
3658.92
3630.81
3466.53
3166.41
2898.1
2738.08
2640.08
2577.28
2513.82
2683.35
3897.22
4347.63
3333.95
2391.3
2253.9
2233.98
2226.35
2256.16
2329.48
2422.61
2535.48
2661.96
2785.93
4655.28
4470.38
4294.95
4117.98
3927.96
3741.73
3572.72
3404.11
3239.52
3094.28
2885.34
2722.71
2710.69
2734.84
2827.27
3189.44
3520.8
3578.41
3536.51
3329.31
3008.08
2794.97
2671.81
2595.29
2606.97
2589.32
3288.22
4697.15
4702.13
3498.32
2718.99
2611.48
2544.52
2468.11
2419.54
2417.64
2468.66
2555.67
2664.03
2783.63
4567.97
4393.98
4235.24
4074.82
3900.5
3730.47
3558.77
3381.37
3226.82
3070.73
2866.3
2777
2766.83
2767.35
2871.82
3188.3
3399.38
3414.75
3341.51
3090.23
2824.41
2698.9
2692.56
2712.66
2799.37
3132.68
4349.6
5298.39
4598.99
3366.11
2923.19
2871.55
2822.79
2749.64
2677.53
2624.15
2596.41
2614.8
2680.67
2780.04
4474.71
4311.66
4162.08
4012.59
3854.6
3696.51
3532.71
3360.02
3206.28
3045.03
2863.05
2790.4
2781.27
2809.46
2955.16
3130.57
3195.96
3198.95
3063.31
2808.44
2808.79
2801.3
2947.51
3292.61
3527.27
3900.83
4919.64
5195.66
4237.03
3193.73
3010.64
2993.62
2965.91
2918.91
2870.54
2830.83
2788.45
2749.42
2740.16
2775.24
4367.74
4219.14
4077.22
3931.69
3783.61
3631.97
3466.58
3298.17
3152
2991.79
2856.11
2827.33
2824.77
2855.95
2924.91
3026.83
3046.24
2977.46
2895.6
2962.98
3102.5
3434.03
3738.93
3896.86
3963.91
4287.17
4961.9
4820.12
3769.57
3095.51
3043.64
3048.86
3037.22
3005.87
2975.31
2952.32
2934.27
2901.75
2834.39
2770.51
4229.23
4103.1
3972.75
3832.4
3679.67
3517.73
3352.11
3195.39
3057.18
2927.18
2853.6
2871.16
2883.55
2911.31
2956.72
3035.37
3080.14
3155.42
3317.89
3546.57
3821.7
4058.37
4167.51
4113.72
4042.43
4295.27
4755.8
4274.91
3363.81
3065.66
3061.28
3070.81
3063.38
3036.92
3010.42
2990.97
2981.15
2971.97
2904.48
2771.77
4055.4
3930.59
3790.54
3638.97
3484.47
3334.88
3222.77
3164.75
3098.82
3085.51
3109.88
3162.38
3199.79
3292.31
3389.11
3500.89
3582.59
3688.67
3861.88
4071.87
4215.2
4255.45
4214.7
4119.46
4029.59
4169.69
4302.83
3686.37
3145.27
3076.69
3090.16
3102.43
3097.15
3069.59
3036.34
3007.74
2984.38
2970.23
2913.63
2753.6
3839.42
3696.44
3554.71
3452.37
3430.15
3442.11
3457.27
3498.31
3590.82
3697.24
3771.09
3821.41
3910.64
3962.56
3942.12
3919.28
3914.36
3998.39
4131.28
4229.28
4300.64
4299.53
4214.95
4064.7
3926.5
3884.77
3636.79
3208.36
3075.73
3088
3110.67
3123.19
3120.79
3098.94
3065.21
3033.24
2990.58
2951.32
2881.89
2718.35
3565.88
3486.27
3480.44
3557.07
3655.33
3778.42
3889.05
3955.62
4018.38
4042.97
4034.18
4025.65
4033.38
4017.46
4017.44
4024.86
4103.05
4161.85
4247.83
4315.22
4340.86
4284.13
4137.74
3937.57
3643.29
3292.92
3025.71
2976.09
3037.8
3080.32
3105.26
3121.27
3125.7
3112.8
3085.18
3051.1
2991.82
2922.9
2830.42
2678.78
3210.1
3325.22
3491.46
3642.21
3685.73
3670.93
3663.33
3674.52
3703.69
3729.82
3763.83
3856.22
4008.49
4115.65
4166.87
4180.51
4228.44
4302.76
4354.77
4359.06
4298.26
4181.36
3974.1
3619.14
3099.05
2692.9
2689.97
2862.88
3006.34
3054.73
3076.76
3097.71
3110.81
3107.22
3089.07
3054.62
2989.09
2904.24
2792.86
2648.95
2864.21
3091.28
3285.82
3384.01
3419.6
3430.43
3455.62
3495.16
3541.73
3607.2
3742.56
3909.59
4072.42
4183.97
4259.64
4316.15
4355.09
4382.42
4368.67
4303.63
4175.91
3960.71
3606.04
3083.23
2584.13
2426.69
2564.78
2803.3
2966.01
3026.51
3043.36
3063.05
3081.34
3085.42
3078.66
3048.95
2984.5
2891.47
2768.23
2632.61
2718.64
2904.61
3059.85
3154.07
3201.72
3221.71
3250.8
3311.23
3412.63
3545.24
3712
3893.06
4064.24
4205.42
4309.44
4372.39
4385.63
4358.87
4287.19
4150.16
3918.94
3560.07
3062.91
2608.79
2410.82
2410.82
2523.33
2745.7
2921.29
2997.12
3009.55
3028.24
3046.23
3051.47
3047.72
3024.08
2969.09
2877.79
2752.2
2624.92
2656.42
2758.07
2844.47
2900.57
2945.24
2980.74
3049.82
3146.01
3269.9
3421.79
3596.38
3783.53
3974.1
4147.2
4268.2
4320.01
4307.21
4231.33
4085.68
3849.42
3483.74
3020.22
2645.5
2490.4
2447.74
2469.97
2533.31
2699.53
2879.22
2975.2
2986.49
2989.01
2988.32
2985.84
2981.96
2966.58
2936.84
2871.74
2763.12
2636.51
2591.88
2638.95
2695.86
2730.76
2763.93
2809.77
2886.21
2982.91
3094.98
3223.24
3378.82
3563.52
3766.44
3948.81
4076.17
4134.02
4106.57
3977.32
3733.09
3372.17
2965.56
2684.68
2578.7
2546.59
2546.55
2558.15
2595.93
2681.04
2830.27
2948.02
2972.47
2956.59
2926.19
2905.66
2892.74
2876.97
2871.12
2831.38
2753.83
2642.51
2610.53
2630.94
2638.92
2647.53
2671.3
2711.57
2756.77
2821.39
2901.14
2996.77
3121.98
3279.86
3459.17
3626.18
3734.86
3772.36
3707.31
3504.58
3198.4
2907.71
2735
2667.66
2647.77
2652.65
2660.41
2665.77
2675.04
2710.65
2786.82
2874.59
2910.14
2892.61
2841.7
2801.65
2774.74
2756.82
2763.82
2751.41
2722.13
2634.63
2596.7
2594.07
2554.02
2556.53
2597.16
2643
2684.06
2733.18
2805.48
2905.63
3021.94
3109.73
3159.03
3145.43
3065.65
2960.84
2876.06
2804.25
2750.45
2725.91
2727.69
2735.44
2746.2
2755.03
2762.24
2767.97
2769.86
2769.63
2768.39
2769.34
2762.79
2734.05
2692.63
2660.53
2640.24
2629.59
2639.22
2641.22
2633.19
2666.63
2596.7
2594.07
2554.02
2556.53
2597.16
2643
2684.06
2733.18
2805.48
2905.63
3021.94
3109.73
3159.03
3145.43
3065.65
2960.84
2876.06
2804.25
2750.45
2725.91
2727.69
2735.44
2746.2
2755.03
2762.24
2767.97
2769.86
2769.63
2768.39
2769.34
2762.79
2734.05
2692.63
2660.53
2640.24
2629.59
2639.22
2641.22
2633.19
2666.63
2610.53
2630.94
2638.92
2647.53
2671.3
2711.57
2756.77
2821.39
2901.14
2996.77
3121.98
3279.86
3459.17
3626.18
3734.86
3772.36
3707.31
3504.58
3198.4
2907.71
2735
2667.66
2647.77
2652.65
2660.41
2665.77
2675.04
2710.65
2786.82
2874.59
2910.14
2892.61
2841.7
2801.65
2774.74
2756.82
2763.82
2751.41
2722.13
2634.63
2591.88
2638.95
2695.86
2730.76
2763.93
2809.77
2886.21
2982.91
3094.98
3223.24
3378.82
3563.52
3766.44
3948.81
4076.17
4134.02
4106.57
3977.32
3733.09
3372.17
2965.56
2684.68
2578.7
2546.59
2546.55
2558.15
2595.93
2681.04
2830.27
2948.02
2972.47
2956.59
2926.19
2905.66
2892.74
2876.97
2871.12
2831.38
2753.83
2642.51
2656.42
2758.07
2844.47
2900.57
2945.24
2980.74
3049.82
3146.01
3269.9
3421.79
3596.38
3783.53
3974.1
4147.2
4268.2
4320.01
4307.21
4231.33
4085.68
3849.42
3483.74
3020.22
2645.5
2490.4
2447.74
2469.97
2533.31
2699.53
2879.22
2975.2
2986.49
2989.01
2988.32
2985.84
2981.96
2966.58
2936.84
2871.74
2763.12
2636.51
2718.64
2904.61
3059.85
3154.07
3201.72
3221.71
3250.8
3311.23
3412.63
3545.24
3712
3893.06
4064.24
4205.42
4309.44
4372.39
4385.63
4358.87
4287.19
4150.16
3918.94
3560.07
3062.91
2608.79
2410.82
2410.82
2523.33
2745.7
2921.29
2997.12
3009.55
3028.24
3046.23
3051.47
3047.72
3024.08
2969.09
2877.79
2752.2
2624.92
2864.21
3091.28
3285.82
3384.01
3419.6
3430.43
3455.62
3495.16
3541.73
3607.2
3742.56
3909.59
4072.42
4183.97
4259.64
4316.15
4355.09
4382.42
4368.67
4303.63
4175.91
3960.71
3606.04
3083.23
2584.13
2426.69
2564.78
2803.3
2966.01
3026.51
3043.36
3063.05
3081.34
3085.42
3078.66
3048.95
2984.5
2891.47
2768.23
2632.61
3210.1
3325.22
3491.46
3642.21
3685.73
3670.93
3663.33
3674.52
3703.69
3729.82
3763.83
3856.22
4008.49
4115.65
4166.87
4180.51
4228.44
4302.76
4354.77
4359.06
4298.26
4181.36
3974.1
3619.14
3099.05
2692.9
2689.97
2862.88
3006.34
3054.73
3076.76
3097.71
3110.81
3107.22
3089.07
3054.62
2989.09
2904.24
2792.86
2648.95
3565.88
3486.27
3480.44
3557.07
3655.33
3778.42
3889.05
3955.62
4018.38
4042.97
4034.18
4025.65
4033.38
4017.46
4017.44
4024.86
4103.05
4161.85
4247.83
4315.22
4340.86
4284.13
4137.74
3937.57
3643.29
3292.92
3025.71
2976.09
3037.8
3080.32
3105.26
3121.27
3125.7
3112.8
3085.18
3051.1
2991.82
2922.9
2830.42
2678.78
3839.42
3696.44
3554.71
3452.37
3430.15
3442.11
3457.27
3498.31
3590.82
3697.24
3771.09
3821.41
3910.64
3962.56
3942.12
3919.28
3914.36
3998.39
4131.28
4229.28
4300.64
4299.53
4214.95
4064.7
3926.5
3884.77
3636.79
3208.36
3075.73
3088
3110.67
3123.19
3120.79
3098.94
3065.21
3033.24
2990.58
2951.32
2881.89
2718.35
4055.4
3930.59
3790.54
3638.97
3484.47
3334.88
3222.77
3164.75
3098.82
3085.51
3109.88
3162.38
3199.79
3292.31
3389.11
3500.89
3582.59
3688.67
3861.88
4071.87
4215.2
4255.45
4214.7
4119.46
4029.59
4169.69
4302.83
3686.37
3145.27
3076.69
3090.16
3102.43
3097.15
3069.59
3036.34
3007.74
2984.38
2970.23
2913.63
2753.6
4229.23
4103.1
3972.75
3832.4
3679.67
3517.73
3352.11
3195.39
3057.18
2927.18
2853.6
2871.16
2883.55
2911.31
2956.72
3035.37
3080.14
3155.42
3317.89
3546.57
3821.7
4058.37
4167.51
4113.72
4042.43
4295.27
4755.8
4274.91
3363.81
3065.66
3061.28
3070.81
3063.38
3036.92
3010.42
2990.97
2981.15
2971.97
2904.48
2771.77
4367.74
4219.14
4077.22
3931.69
3783.61
3631.97
3466.58
3298.17
3152
2991.79
2856.11
2827.33
2824.77
2855.95
2924.91
3026.83
3046.24
2977.46
2895.6
2962.98
3102.5
3434.03
3738.93
3896.86
3963.91
4287.17
4961.9
4820.12
3769.57
3095.51
3043.64
3048.86
3037.22
3005.87
2975.31
2952.32
2934.27
2901.75
2834.39
2770.51
4474.71
4311.66
4162.08
4012.59
3854.6
3696.51
3532.71
3360.02
3206.28
3045.03
2863.05
2790.4
2781.27
2809.46
2955.16
3130.57
3195.96
3198.95
3063.31
2808.44
2808.79
2801.3
2947.51
3292.61
3527.27
3900.83
4919.64
5195.66
4237.03
3193.73
3010.64
2993.62
2965.91
2918.91
2870.54
2830.83
2788.45
2749.42
2740.16
2775.24
4567.97
4393.98
4235.24
4074.82
3900.5
3730.47
3558.77
3381.37
3226.82
3070.73
2866.3
2777
2766.83
2767.35
2871.82
3188.3
3399.38
3414.75
3341.51
3090.23
2824.41
2698.9
2692.56
2712.66
2799.37
3132.68
4349.6
5298.39
4598.99
3366.11
2923.19
2871.55
2822.79
2749.64
2677.53
2624.15
2596.41
2614.8
2680.67
2780.04
4655.28
4470.38
4294.95
4117.98
3927.96
3741.73
3572.72
3404.11
3239.52
3094.28
2885.34
2722.71
2710.69
2734.84
2827.27
3189.44
3520.8
3578.41
3536.51
3329.31
3008.08
2794.97
2671.81
2595.29
2606.97
2589.32
3288.22
4697.15
4702.13
3498.32
2718.99
2611.48
2544.52
2468.11
2419.54
2417.64
2468.66
2555.67
2664.03
2783.63
4723.43
4530.71
4331.16
4144.24
3960.48
3776.49
3620.78
3448.11
3245.9
3086.81
2927.12
2745.36
2680.92
2653.67
2681.13
2958.5
3515.8
3658.92
3630.81
3466.53
3166.41
2898.1
2738.08
2640.08
2577.28
2513.82
2683.35
3897.22
4347.63
3333.95
2391.3
2253.9
2233.98
2226.35
2256.16
2329.48
2422.61
2535.48
2661.96
2785.93
4752.93
4579.31
4354.38
4101.51
3895.26
3716.24
3552.92
3400.19
3243.16
3101.55
2977.84
2828.76
2700.71
2616.19
2597.6
2780.48
3446.57
3718.49
3697.16
3544.93
3266.16
2990.57
2806.37
2690.49
2611.83
2542.06
2540.75
3584.77
4114.14
3240.36
2213
2064.51
2099.77
2147.29
2208.57
2298.8
2411.92
2536.96
2664
2787.8
4719.38
4464.05
4242.81
4107.18
3953.46
3779
3605.51
3455.43
3316.43
3187.49
3074.59
2949.59
2799.37
2606.73
2489.81
2620.72
3367.91
3765.95
3760.14
3619.78
3358.89
3070.08
2863.84
2740.69
2655.85
2578.72
2530.09
3524.15
4117.84
3320.54
2228.43
2027.21
2064.08
2120.73
2195.59
2297.71
2414.75
2539.28
2665.38
2788.95
4418.72
4168.32
3946.73
3721.2
3553.53
3430.72
3320.53
3233.03
3140.65
3025.77
2904.69
2772.72
2594.97
2374.88
2309.46
2450.06
3154.9
3538.1
3534.63
3419.36
3215.59
2999.51
2824.63
2717.13
2647.29
2575.05
2523.69
3495.31
4194.14
3453.88
2286.93
2021.86
2060.4
2122.65
2200.84
2303.09
2418.6
2541.02
2666.16
2789.98
3485.31
3390.91
3333.45
3275.08
3219.61
3158.62
3068.63
2965.65
2853.73
2719.64
2581.15
2451.77
2284.46
2097.5
2049.06
2196.01
2878.57
3245.89
3256.2
3190.67
3057.12
2914.89
2791.2
2708.95
2680.92
2680.81
2640.06
3596.86
4320.7
3571.6
2342.46
2031.32
2065.84
2128.29
2206.54
2307.63
2421.5
2542.66
2667.01
2791.15
)
;

boundaryField
{
    inlet
    {
        type            calculated;
        value           uniform 14000.1;
    }
    outlet
    {
        type            calculated;
        value           nonuniform List<scalar> 
165
(
3502.82
4572.14
4829.94
4835.3
4813.69
4744.91
4654.92
4558.7
4445
4292.73
4117.65
3911.6
3600.05
3185.05
2790.49
2617.78
2619.23
2649.11
2667.82
2665.52
2665.52
2677.96
2705.38
2724.46
2729.92
2726.82
2722.76
2716.94
2703.11
2672.71
2621.44
2560.48
2499.05
2453.68
2437.52
2463.05
2533
2632.61
2719.99
2762.52
2783.1
2796.92
2805.02
2812.02
2819.25
2826.31
2830.92
2829.26
2815.09
2787.45
2746.15
2703.88
2669.78
2634.34
2610.13
2604.37
2602.19
2609.86
2626.66
2623.76
2852
2852.04
2851.78
2851.02
2850.1
2849.3
2846.88
2836.07
2811.02
2773.45
2728.34
2688.03
2653.42
2620.19
2600.34
2599.19
2598.83
2607.28
2625.58
2623.76
2852.58
2852.83
2853.28
2852.83
2852.58
2623.76
2625.58
2607.28
2598.83
2599.19
2600.34
2620.19
2653.42
2688.03
2728.34
2773.45
2811.02
2836.07
2846.88
2849.3
2850.1
2851.02
2851.78
2852.04
2852
2665.52
2677.96
2705.38
2724.46
2729.92
2726.82
2722.76
2716.94
2703.11
2672.71
2621.44
2560.48
2499.05
2453.68
2437.52
2463.05
2533
2632.61
2719.99
2762.52
2783.1
2796.92
2805.02
2812.02
2819.25
2826.31
2830.92
2829.26
2815.09
2787.45
2746.15
2703.88
2669.78
2634.34
2610.13
2604.37
2602.19
2609.86
2626.66
2623.76
2665.52
2667.82
2649.11
2619.23
2617.78
2790.49
3185.05
3600.05
3911.6
4117.65
4292.73
4445
4558.7
4654.92
4744.91
4813.69
4835.3
4829.94
4572.14
3502.82
)
;
    }
    obstacle
    {
        type            calculated;
        value           nonuniform List<scalar> 
40
(
4680.99
11352
11798.1
12128.1
12709.1
12970.1
12972.2
12841
12666.3
12478.1
4680.99
11352
11798.1
12128.1
12709.1
12970.1
12972.2
12841
12666.3
12478.1
12564.8
12359.8
12206.7
11841.9
11688.8
12564.8
12359.8
12206.7
11841.9
11688.8
6178.95
4205.38
3252.47
2735.48
2188.23
6178.95
4205.38
3252.47
2735.48
2188.23
)
;
    }
    empty
    {
        type            empty;
    }
}


// ************************************************************************* //
