/*--------------------------------*- C++ -*----------------------------------*\
| =========                 |                                                 |
| \\      /  F ield         | OpenFOAM: The Open Source CFD Toolbox           |
|  \\    /   O peration     | Version:  v1912                                 |
|   \\  /    A nd           | Website:  www.openfoam.com                      |
|    \\/     M anipulation  |                                                 |
\*---------------------------------------------------------------------------*/
FoamFile
{
    version     2.0;
    format      ascii;
    class       volScalarField;
    location    "9.16";
    object      T;
}
// * * * * * * * * * * * * * * * * * * * * * * * * * * * * * * * * * * * * * //

dimensions      [0 0 0 1 0 0 0];


internalField   nonuniform List<scalar> 
1900
(
0.406096
0.978708
1.01843
0.991104
0.959358
0.942828
0.939702
0.940374
0.944198
0.948189
0.406084
0.978708
1.01843
0.991103
0.959354
0.94283
0.939752
0.940385
0.94385
0.94803
0.406075
0.978708
1.01843
0.991103
0.959357
0.942841
0.939787
0.94036
0.943061
0.947379
0.406084
0.978708
1.01843
0.991103
0.959354
0.94283
0.939752
0.940385
0.94385
0.94803
0.406096
0.978708
1.01843
0.991104
0.959358
0.942828
0.939702
0.940374
0.944198
0.948189
0.955266
0.951541
0.954883
0.963455
1.00291
0.950211
0.948479
0.950936
0.958015
0.985006
0.949115
0.947924
0.950307
0.958175
0.983715
0.950211
0.948479
0.950936
0.958015
0.985006
0.955266
0.951541
0.954883
0.963455
1.00291
0.794862
0.679774
0.614935
0.569927
0.536392
0.814933
0.696231
0.628006
0.583136
0.54268
0.814937
0.690645
0.621785
0.578311
0.533412
0.814933
0.696231
0.628006
0.583136
0.54268
0.794862
0.679774
0.614935
0.569927
0.536392
0.509353
0.495679
0.483699
0.478404
0.472682
0.466055
0.457642
0.448135
0.438496
0.429211
0.422621
0.417695
0.408842
0.404129
0.405154
0.423199
0.479555
0.510797
0.524805
0.530111
0.533662
0.5406
0.552482
0.558044
0.555679
0.54392
0.518732
0.593235
0.665469
0.623174
0.512913
0.469579
0.477584
0.487514
0.492906
0.494191
0.493477
0.491852
0.490955
0.490786
0.525175
0.534841
0.53363
0.526068
0.514775
0.502713
0.490014
0.477051
0.464519
0.452161
0.44339
0.436502
0.426119
0.418092
0.418211
0.436317
0.493048
0.523042
0.534857
0.538569
0.540583
0.545492
0.554309
0.559194
0.556858
0.543535
0.518
0.593462
0.665191
0.623187
0.513397
0.469749
0.47769
0.487582
0.492934
0.494184
0.493445
0.49183
0.490925
0.490743
0.525859
0.534226
0.54608
0.541148
0.531103
0.518468
0.504443
0.48993
0.475923
0.46201
0.452199
0.444218
0.433225
0.423561
0.423156
0.440948
0.497886
0.527334
0.538533
0.541458
0.542968
0.546969
0.555024
0.558806
0.555941
0.542825
0.517591
0.593313
0.665616
0.623571
0.513608
0.469803
0.477723
0.4876
0.492933
0.494159
0.493387
0.491762
0.490855
0.490665
0.525175
0.534841
0.53363
0.526068
0.514775
0.502713
0.490014
0.477051
0.464519
0.452161
0.44339
0.436502
0.426119
0.418092
0.418211
0.436317
0.493048
0.523042
0.534857
0.538569
0.540583
0.545492
0.554309
0.559194
0.556858
0.543535
0.518
0.593462
0.665191
0.623187
0.513397
0.469749
0.47769
0.487582
0.492934
0.494184
0.493445
0.49183
0.490925
0.490743
0.509353
0.495679
0.483699
0.478404
0.472682
0.466055
0.457642
0.448135
0.438496
0.429211
0.422621
0.417695
0.408842
0.404129
0.405154
0.423199
0.479555
0.510797
0.524805
0.530111
0.533662
0.5406
0.552482
0.558044
0.555679
0.54392
0.518732
0.593235
0.665469
0.623174
0.512913
0.469579
0.477584
0.487514
0.492906
0.494191
0.493477
0.491852
0.490955
0.490786
0.399679
0.394186
0.390018
0.388551
0.389008
0.389475
0.389013
0.387845
0.385709
0.382804
0.380193
0.377697
0.371734
0.370335
0.371937
0.387971
0.441808
0.476362
0.496262
0.505433
0.513507
0.526826
0.545785
0.555971
0.555188
0.548454
0.525652
0.59936
0.668603
0.624239
0.511253
0.468971
0.477214
0.487289
0.49287
0.494286
0.49372
0.492094
0.49112
0.490885
0.306203
0.306523
0.306667
0.306811
0.308202
0.311121
0.314938
0.319373
0.323209
0.326125
0.329501
0.331332
0.330107
0.33038
0.333083
0.347413
0.395709
0.432952
0.458538
0.473083
0.48704
0.508272
0.53657
0.551146
0.549629
0.537321
0.514515
0.592467
0.661038
0.615491
0.504427
0.467965
0.476641
0.48686
0.492707
0.494329
0.493998
0.492397
0.491277
0.490879
0.28986
0.289239
0.289408
0.291657
0.294073
0.295832
0.297475
0.299371
0.301332
0.303769
0.307107
0.309702
0.311021
0.312187
0.314623
0.327881
0.375028
0.412302
0.43953
0.456412
0.472945
0.498242
0.532017
0.547299
0.54486
0.530453
0.512352
0.594163
0.656662
0.604272
0.495877
0.46832
0.476892
0.486731
0.492509
0.494253
0.494111
0.492632
0.49144
0.490923
0.289538
0.289579
0.288756
0.287208
0.287316
0.287887
0.288905
0.290149
0.291161
0.292659
0.294761
0.29573
0.297694
0.302083
0.307512
0.325553
0.367093
0.398255
0.423322
0.441576
0.460903
0.491284
0.527093
0.538757
0.535541
0.518942
0.513066
0.600646
0.657
0.596306
0.491432
0.471753
0.480134
0.489154
0.493818
0.494728
0.494195
0.492816
0.491628
0.491055
0.290838
0.290685
0.290352
0.290445
0.290703
0.290967
0.292059
0.292238
0.291746
0.292455
0.293032
0.29345
0.297009
0.302379
0.309686
0.33093
0.365868
0.392915
0.417572
0.437997
0.461062
0.495014
0.526663
0.532008
0.527519
0.510421
0.525776
0.629342
0.67357
0.600621
0.50489
0.48958
0.492398
0.496446
0.498192
0.497947
0.495479
0.49313
0.491847
0.491213
0.295054
0.294963
0.295002
0.294965
0.294589
0.29414
0.294275
0.294262
0.294302
0.294603
0.29385
0.294914
0.299102
0.306273
0.317807
0.343302
0.368991
0.393491
0.417754
0.43863
0.465306
0.503611
0.526185
0.527061
0.524097
0.513619
0.58427
0.692156
0.695091
0.60687
0.52954
0.52014
0.518998
0.51753
0.512793
0.506192
0.499868
0.495146
0.492378
0.49135
0.300758
0.300735
0.300912
0.300881
0.300497
0.300077
0.299567
0.29876
0.298717
0.298238
0.297516
0.299953
0.305054
0.311643
0.325484
0.350499
0.373159
0.396755
0.419949
0.443132
0.476075
0.513958
0.53011
0.533963
0.537005
0.558138
0.657936
0.729365
0.687105
0.590807
0.544985
0.540251
0.540002
0.539778
0.53513
0.524044
0.510888
0.500323
0.494181
0.491768
0.307106
0.307137
0.307362
0.307385
0.307188
0.306862
0.306314
0.305356
0.304811
0.303799
0.303717
0.306449
0.311848
0.320723
0.338016
0.3584
0.379466
0.404834
0.42713
0.455903
0.501332
0.531812
0.554002
0.575222
0.58513
0.61225
0.68794
0.720048
0.66041
0.573828
0.552385
0.549873
0.549899
0.551117
0.550625
0.542273
0.526968
0.510744
0.499213
0.493643
0.314962
0.315012
0.315135
0.315073
0.314893
0.314524
0.313613
0.31243
0.311992
0.311511
0.312639
0.317024
0.323634
0.334752
0.350385
0.371175
0.395023
0.420327
0.452551
0.503631
0.553245
0.59053
0.606667
0.609732
0.613034
0.638908
0.688273
0.687512
0.621176
0.562262
0.554777
0.554127
0.554194
0.555976
0.557433
0.553355
0.54007
0.522959
0.507375
0.498041
0.326134
0.326167
0.326114
0.325838
0.325192
0.324193
0.322811
0.32144
0.321434
0.322196
0.325488
0.33273
0.342198
0.355859
0.373949
0.400323
0.433617
0.479383
0.539656
0.590022
0.617931
0.626183
0.626035
0.621888
0.619187
0.639316
0.672151
0.644958
0.582329
0.556716
0.554766
0.554743
0.554807
0.55622
0.557918
0.557108
0.547175
0.531591
0.516605
0.504789
0.340001
0.33992
0.339397
0.338441
0.337269
0.336612
0.337423
0.33986
0.342998
0.350373
0.362177
0.377303
0.393747
0.416986
0.448073
0.491133
0.5426
0.586935
0.618393
0.632406
0.632623
0.631341
0.627277
0.621991
0.618252
0.629586
0.639381
0.599897
0.560705
0.555261
0.555111
0.555265
0.555257
0.556089
0.557694
0.557941
0.550841
0.537248
0.523746
0.513135
0.357911
0.357651
0.357703
0.359296
0.363442
0.370348
0.380269
0.394154
0.412427
0.433014
0.455912
0.480731
0.508749
0.539957
0.572284
0.60126
0.621713
0.630035
0.631029
0.630672
0.631844
0.631517
0.626712
0.618557
0.611293
0.610838
0.595409
0.564205
0.554533
0.555121
0.555639
0.555604
0.555291
0.555571
0.557153
0.558384
0.553584
0.542101
0.529895
0.520829
0.388885
0.389944
0.394149
0.405895
0.423266
0.445154
0.470102
0.49617
0.523395
0.548391
0.57138
0.591533
0.608679
0.621738
0.630373
0.630727
0.630766
0.628465
0.629324
0.631611
0.633046
0.630248
0.622502
0.612236
0.596386
0.575133
0.555594
0.550478
0.553621
0.555486
0.555885
0.555506
0.55497
0.55464
0.555729
0.557328
0.554644
0.546057
0.535416
0.527622
0.439555
0.445658
0.459749
0.481811
0.507487
0.531651
0.553264
0.572978
0.589649
0.602482
0.611853
0.620458
0.628343
0.631458
0.631752
0.629772
0.628949
0.63038
0.632802
0.633891
0.631458
0.626495
0.617078
0.598502
0.565894
0.534654
0.534165
0.546964
0.555921
0.557674
0.557143
0.556063
0.55479
0.553762
0.553545
0.554498
0.553746
0.548611
0.540575
0.534313
0.501706
0.508408
0.521616
0.540457
0.558825
0.573053
0.58317
0.590924
0.597192
0.602908
0.610796
0.618868
0.624995
0.62767
0.629371
0.631036
0.632932
0.63518
0.635648
0.633816
0.629425
0.620192
0.601337
0.566925
0.526988
0.512627
0.524782
0.544842
0.557022
0.559697
0.558706
0.557564
0.555962
0.553717
0.551894
0.551159
0.550788
0.548276
0.543069
0.538393
0.534805
0.537523
0.547354
0.559363
0.567092
0.571406
0.575012
0.579349
0.585455
0.5925
0.600986
0.609796
0.617722
0.624593
0.630389
0.635084
0.63754
0.63789
0.636631
0.63205
0.620863
0.59903
0.563166
0.524719
0.507394
0.507282
0.516423
0.535165
0.55011
0.556798
0.557766
0.558076
0.557328
0.554793
0.551551
0.548391
0.546523
0.545353
0.542252
0.538631
0.534511
0.536759
0.543271
0.549641
0.552919
0.553419
0.556109
0.561049
0.567768
0.576338
0.586729
0.598253
0.610476
0.622066
0.63086
0.635839
0.63747
0.636266
0.629977
0.615649
0.589852
0.553337
0.520056
0.506182
0.501899
0.503107
0.507819
0.520618
0.53523
0.544673
0.548931
0.551912
0.553384
0.553094
0.550846
0.546698
0.543381
0.54178
0.540744
0.538706
0.528481
0.528034
0.529199
0.530395
0.531585
0.533687
0.538363
0.544522
0.551754
0.560397
0.571314
0.584479
0.599149
0.612614
0.622472
0.627587
0.626888
0.618712
0.600669
0.572659
0.539678
0.514708
0.504935
0.500646
0.499119
0.499032
0.501308
0.507483
0.518217
0.528221
0.534547
0.539429
0.543415
0.546794
0.547544
0.545156
0.541829
0.538581
0.538417
0.536961
0.524775
0.520613
0.51686
0.515762
0.517513
0.521044
0.524548
0.529095
0.535012
0.54256
0.552458
0.564742
0.578666
0.591411
0.599236
0.600609
0.593264
0.575797
0.551151
0.525965
0.510303
0.503887
0.50047
0.49882
0.497671
0.496717
0.496624
0.49889
0.504269
0.512953
0.520695
0.527065
0.532293
0.538154
0.541639
0.541511
0.540398
0.538123
0.536966
0.533218
0.525228
0.522788
0.517488
0.513865
0.512838
0.513421
0.514186
0.515287
0.517924
0.523815
0.53406
0.546775
0.560215
0.570573
0.574357
0.568402
0.552706
0.531794
0.51471
0.506785
0.503038
0.500553
0.499107
0.497864
0.496588
0.495347
0.49454
0.494831
0.497321
0.502253
0.509807
0.517776
0.524389
0.531444
0.536373
0.53756
0.538011
0.536429
0.532998
0.533588
0.525228
0.522788
0.517488
0.513865
0.512838
0.513421
0.514186
0.515287
0.517924
0.523815
0.53406
0.546775
0.560215
0.570573
0.574357
0.568402
0.552706
0.531794
0.51471
0.506785
0.503038
0.500553
0.499107
0.497864
0.496588
0.495347
0.49454
0.494831
0.497321
0.502253
0.509807
0.517776
0.524389
0.531444
0.536373
0.53756
0.538011
0.536429
0.532998
0.533588
0.524775
0.520613
0.51686
0.515762
0.517513
0.521044
0.524548
0.529095
0.535012
0.54256
0.552458
0.564742
0.578666
0.591411
0.599236
0.600609
0.593264
0.575797
0.551151
0.525965
0.510303
0.503887
0.50047
0.49882
0.497671
0.496717
0.496624
0.49889
0.504269
0.512953
0.520695
0.527065
0.532293
0.538154
0.541639
0.541511
0.540398
0.538123
0.536966
0.533218
0.528481
0.528034
0.529199
0.530395
0.531585
0.533687
0.538363
0.544522
0.551754
0.560397
0.571314
0.584479
0.599149
0.612614
0.622472
0.627587
0.626888
0.618712
0.600669
0.572659
0.539678
0.514708
0.504935
0.500646
0.499119
0.499032
0.501308
0.507483
0.518217
0.528221
0.534547
0.539429
0.543415
0.546794
0.547544
0.545156
0.541829
0.538581
0.538417
0.536961
0.534511
0.536759
0.543271
0.549641
0.552919
0.553419
0.556109
0.561049
0.567768
0.576338
0.586729
0.598253
0.610476
0.622066
0.63086
0.635839
0.63747
0.636266
0.629977
0.615649
0.589852
0.553337
0.520056
0.506182
0.501899
0.503107
0.507819
0.520618
0.53523
0.544673
0.548931
0.551912
0.553384
0.553094
0.550846
0.546698
0.543381
0.54178
0.540744
0.538706
0.534805
0.537523
0.547354
0.559363
0.567092
0.571406
0.575012
0.579349
0.585455
0.5925
0.600986
0.609796
0.617722
0.624593
0.630389
0.635084
0.63754
0.63789
0.636631
0.63205
0.620863
0.59903
0.563166
0.524719
0.507394
0.507282
0.516423
0.535165
0.55011
0.556798
0.557766
0.558076
0.557328
0.554793
0.551551
0.548391
0.546523
0.545353
0.542252
0.538631
0.501706
0.508408
0.521616
0.540457
0.558825
0.573053
0.58317
0.590924
0.597192
0.602908
0.610796
0.618868
0.624995
0.62767
0.629371
0.631036
0.632932
0.63518
0.635648
0.633816
0.629425
0.620192
0.601337
0.566925
0.526988
0.512627
0.524782
0.544842
0.557022
0.559697
0.558706
0.557564
0.555962
0.553717
0.551894
0.551159
0.550788
0.548276
0.543069
0.538393
0.439555
0.445658
0.459749
0.481811
0.507487
0.531651
0.553264
0.572978
0.589649
0.602482
0.611853
0.620458
0.628343
0.631458
0.631752
0.629772
0.628949
0.63038
0.632802
0.633891
0.631458
0.626495
0.617078
0.598502
0.565894
0.534654
0.534165
0.546964
0.555921
0.557674
0.557143
0.556063
0.55479
0.553762
0.553545
0.554498
0.553746
0.548611
0.540575
0.534313
0.388885
0.389944
0.394149
0.405895
0.423266
0.445154
0.470102
0.49617
0.523395
0.548391
0.57138
0.591533
0.608679
0.621738
0.630373
0.630727
0.630766
0.628465
0.629324
0.631611
0.633046
0.630248
0.622502
0.612236
0.596386
0.575133
0.555594
0.550478
0.553621
0.555486
0.555885
0.555506
0.55497
0.55464
0.555729
0.557328
0.554644
0.546057
0.535416
0.527622
0.357911
0.357651
0.357703
0.359296
0.363442
0.370348
0.380269
0.394154
0.412427
0.433014
0.455912
0.480731
0.508749
0.539957
0.572284
0.60126
0.621713
0.630035
0.631029
0.630672
0.631844
0.631517
0.626712
0.618557
0.611293
0.610838
0.595409
0.564205
0.554533
0.555121
0.555639
0.555604
0.555291
0.555571
0.557153
0.558384
0.553584
0.542101
0.529895
0.520829
0.340001
0.33992
0.339397
0.338441
0.337269
0.336612
0.337423
0.33986
0.342998
0.350373
0.362177
0.377303
0.393747
0.416986
0.448073
0.491133
0.5426
0.586935
0.618393
0.632406
0.632623
0.631341
0.627277
0.621991
0.618252
0.629586
0.639381
0.599897
0.560705
0.555261
0.555111
0.555265
0.555257
0.556089
0.557694
0.557941
0.550841
0.537248
0.523746
0.513135
0.326134
0.326167
0.326114
0.325838
0.325192
0.324193
0.322811
0.32144
0.321434
0.322196
0.325488
0.33273
0.342198
0.355859
0.373949
0.400323
0.433617
0.479383
0.539656
0.590022
0.617931
0.626183
0.626035
0.621888
0.619187
0.639316
0.672151
0.644958
0.582329
0.556716
0.554766
0.554743
0.554807
0.55622
0.557918
0.557108
0.547175
0.531591
0.516605
0.504789
0.314962
0.315012
0.315135
0.315073
0.314893
0.314524
0.313613
0.31243
0.311992
0.311511
0.312639
0.317024
0.323634
0.334752
0.350385
0.371175
0.395023
0.420327
0.452551
0.503631
0.553245
0.59053
0.606667
0.609732
0.613034
0.638908
0.688273
0.687512
0.621176
0.562262
0.554777
0.554127
0.554194
0.555976
0.557433
0.553355
0.54007
0.522959
0.507375
0.498041
0.307106
0.307137
0.307362
0.307385
0.307188
0.306862
0.306314
0.305356
0.304811
0.303799
0.303717
0.306449
0.311848
0.320723
0.338016
0.3584
0.379466
0.404834
0.42713
0.455903
0.501332
0.531812
0.554002
0.575222
0.58513
0.61225
0.68794
0.720048
0.66041
0.573828
0.552385
0.549873
0.549899
0.551117
0.550625
0.542273
0.526968
0.510744
0.499213
0.493643
0.300758
0.300735
0.300912
0.300881
0.300497
0.300077
0.299567
0.29876
0.298717
0.298238
0.297516
0.299953
0.305054
0.311643
0.325484
0.350499
0.373159
0.396755
0.419949
0.443132
0.476075
0.513958
0.53011
0.533963
0.537005
0.558138
0.657936
0.729365
0.687105
0.590807
0.544985
0.540251
0.540002
0.539778
0.53513
0.524044
0.510888
0.500323
0.494181
0.491768
0.295054
0.294963
0.295002
0.294965
0.294589
0.29414
0.294275
0.294262
0.294302
0.294603
0.29385
0.294914
0.299102
0.306273
0.317807
0.343302
0.368991
0.393491
0.417754
0.43863
0.465306
0.503611
0.526185
0.527061
0.524097
0.513619
0.58427
0.692156
0.695091
0.60687
0.52954
0.52014
0.518998
0.51753
0.512793
0.506192
0.499868
0.495146
0.492378
0.49135
0.290838
0.290685
0.290352
0.290445
0.290703
0.290967
0.292059
0.292238
0.291746
0.292455
0.293032
0.29345
0.297009
0.302379
0.309686
0.33093
0.365868
0.392915
0.417572
0.437997
0.461062
0.495014
0.526663
0.532008
0.527519
0.510421
0.525776
0.629342
0.67357
0.600621
0.50489
0.48958
0.492398
0.496446
0.498192
0.497947
0.495479
0.49313
0.491847
0.491213
0.289538
0.289579
0.288756
0.287208
0.287316
0.287887
0.288905
0.290149
0.291161
0.292659
0.294761
0.29573
0.297694
0.302083
0.307512
0.325553
0.367093
0.398255
0.423322
0.441576
0.460903
0.491284
0.527093
0.538757
0.535541
0.518942
0.513066
0.600646
0.657
0.596306
0.491432
0.471753
0.480134
0.489154
0.493818
0.494728
0.494195
0.492816
0.491628
0.491055
0.28986
0.289239
0.289408
0.291657
0.294073
0.295832
0.297475
0.299371
0.301332
0.303769
0.307107
0.309702
0.311021
0.312187
0.314623
0.327881
0.375028
0.412302
0.43953
0.456412
0.472945
0.498242
0.532017
0.547299
0.54486
0.530453
0.512352
0.594163
0.656662
0.604272
0.495877
0.46832
0.476892
0.486731
0.492509
0.494253
0.494111
0.492632
0.49144
0.490923
0.306203
0.306523
0.306667
0.306811
0.308202
0.311121
0.314938
0.319373
0.323209
0.326125
0.329501
0.331332
0.330107
0.33038
0.333083
0.347413
0.395709
0.432952
0.458538
0.473083
0.48704
0.508272
0.53657
0.551146
0.549629
0.537321
0.514515
0.592467
0.661038
0.615491
0.504427
0.467965
0.476641
0.48686
0.492707
0.494329
0.493998
0.492397
0.491277
0.490879
0.399679
0.394186
0.390018
0.388551
0.389008
0.389475
0.389013
0.387845
0.385709
0.382804
0.380193
0.377697
0.371734
0.370335
0.371937
0.387971
0.441808
0.476362
0.496262
0.505433
0.513507
0.526826
0.545785
0.555971
0.555188
0.548454
0.525652
0.59936
0.668603
0.624239
0.511253
0.468971
0.477214
0.487289
0.49287
0.494286
0.49372
0.492094
0.49112
0.490885
)
;

boundaryField
{
    inlet
    {
        type            fixedValue;
        value           uniform 1;
    }
    outlet
    {
        type            zeroGradient;
    }
    obstacle
    {
        type            zeroGradient;
    }
    empty
    {
        type            empty;
    }
}


// ************************************************************************* //
