/*--------------------------------*- C++ -*----------------------------------*\
| =========                 |                                                 |
| \\      /  F ield         | OpenFOAM: The Open Source CFD Toolbox           |
|  \\    /   O peration     | Version:  v1912                                 |
|   \\  /    A nd           | Website:  www.openfoam.com                      |
|    \\/     M anipulation  |                                                 |
\*---------------------------------------------------------------------------*/
FoamFile
{
    version     2.0;
    format      ascii;
    class       volScalarField;
    location    "1.48";
    object      T;
}
// * * * * * * * * * * * * * * * * * * * * * * * * * * * * * * * * * * * * * //

dimensions      [0 0 0 1 0 0 0];


internalField   nonuniform List<scalar> 
1900
(
1.00003
1.00061
1.00359
1.00932
1.0149
1.01842
1.01975
1.02062
1.02084
1.02087
1.00003
1.00061
1.0036
1.00933
1.0149
1.01839
1.01968
1.02041
1.02029
1.02008
1.00003
1.00061
1.0036
1.00932
1.01488
1.01836
1.01967
1.02043
1.02042
1.02024
1.00003
1.00061
1.0036
1.00933
1.0149
1.01839
1.01968
1.02041
1.02029
1.02008
1.00003
1.00061
1.00359
1.00932
1.0149
1.01842
1.01975
1.02062
1.02084
1.02087
1.01877
1.02066
1.02249
1.02375
1.00731
1.0202
1.02189
1.02359
1.02593
1.01888
1.02031
1.02158
1.02292
1.02444
1.0168
1.0202
1.02189
1.02359
1.02593
1.01888
1.01877
1.02066
1.02249
1.02375
1.00731
1.04557
1.0395
1.03922
1.02999
1.01149
1.04198
1.03846
1.03844
1.03506
1.02464
1.04179
1.03846
1.03781
1.03513
1.02618
1.04198
1.03846
1.03844
1.03506
1.02464
1.04557
1.0395
1.03922
1.02999
1.01149
0.90223
0.824006
0.868651
0.875386
0.872843
0.880921
0.892763
0.909779
0.928818
0.948627
0.967687
0.98399
0.99485
0.999215
0.999962
1
1
1
1
1
1
1
1
1
1
0.999955
0.999099
0.994256
0.98245
0.964862
0.944158
0.922029
0.899305
0.876566
0.854777
0.83611
0.822479
0.803357
0.708778
0.635775
0.991963
0.87031
0.884449
0.87759
0.87329
0.880879
0.892907
0.909877
0.928853
0.948649
0.967709
0.984008
0.99486
0.999218
0.999963
1
1
1
1
1
1
1
1
1
1
0.999955
0.999099
0.994256
0.98245
0.964862
0.944158
0.922029
0.899305
0.876566
0.854777
0.83611
0.822479
0.803357
0.708778
0.635775
0.991856
0.90197
0.891152
0.87863
0.873545
0.880914
0.89295
0.909909
0.928865
0.948655
0.967716
0.984015
0.994864
0.999219
0.999963
1
1
1
1
1
1
1
1
1
1
0.999955
0.999099
0.994256
0.98245
0.964862
0.944158
0.922029
0.899305
0.876566
0.854777
0.83611
0.822479
0.803357
0.708778
0.635775
0.991963
0.87031
0.884449
0.87759
0.87329
0.880879
0.892907
0.909877
0.928853
0.948649
0.967709
0.984008
0.99486
0.999218
0.999963
1
1
1
1
1
1
1
1
1
1
0.999955
0.999099
0.994256
0.98245
0.964862
0.944158
0.922029
0.899305
0.876566
0.854777
0.83611
0.822479
0.803357
0.708778
0.635775
0.90223
0.824006
0.868651
0.875386
0.872843
0.880921
0.892763
0.909779
0.928818
0.948627
0.967687
0.98399
0.99485
0.999215
0.999962
1
1
1
1
1
1
1
1
1
1
0.999955
0.999099
0.994256
0.98245
0.964862
0.944158
0.922029
0.899305
0.876566
0.854777
0.83611
0.822479
0.803357
0.708778
0.635775
0.714474
0.762958
0.851601
0.86881
0.871366
0.879746
0.892269
0.909441
0.928662
0.948526
0.967592
0.983906
0.994803
0.999203
0.999961
1
1
1
1
1
1
1
1
1
1
0.999955
0.999099
0.994256
0.98245
0.964862
0.944158
0.922029
0.899305
0.876566
0.854777
0.83611
0.822479
0.803357
0.708778
0.635775
0.625948
0.738568
0.838251
0.858375
0.866853
0.876334
0.890724
0.908602
0.928215
0.948196
0.96731
0.983699
0.994701
0.99918
0.99996
1
1
1
1
1
1
1
1
1
1
0.999955
0.999099
0.994256
0.98245
0.964862
0.944158
0.922029
0.899305
0.876566
0.854777
0.83611
0.822479
0.803357
0.708778
0.635775
0.622045
0.735073
0.831937
0.851743
0.861621
0.872977
0.888866
0.907492
0.927473
0.947638
0.96689
0.983427
0.994581
0.999153
0.999958
1
1
1
1
1
1
1
1
1
1
0.999955
0.999099
0.994256
0.98245
0.964862
0.944158
0.922029
0.899305
0.876566
0.854777
0.83611
0.822479
0.803357
0.708778
0.635775
0.630601
0.728097
0.825758
0.846231
0.856633
0.869704
0.886786
0.906152
0.926521
0.946938
0.966401
0.98314
0.994465
0.99913
0.999956
1
1
1
1
1
1
1
1
1
1
0.999955
0.999099
0.994256
0.98245
0.964862
0.944158
0.922029
0.899305
0.876566
0.854777
0.83611
0.822479
0.803357
0.708778
0.635775
0.641075
0.722168
0.821164
0.841728
0.852254
0.866423
0.884514
0.904588
0.925402
0.946143
0.96587
0.982851
0.99436
0.999109
0.999952
0.999996
0.999996
0.999996
0.999996
0.999996
0.999996
0.999996
0.999996
0.999996
0.999996
0.999951
0.999095
0.994252
0.982446
0.964859
0.944155
0.922027
0.899303
0.876565
0.854776
0.836109
0.822479
0.803357
0.708778
0.635775
0.643777
0.718329
0.81749
0.836895
0.84757
0.862763
0.881818
0.902556
0.923923
0.945152
0.965271
0.98249
0.994119
0.998919
0.999771
0.999816
0.999816
0.999816
0.999816
0.999816
0.999816
0.999816
0.999816
0.999816
0.999816
0.999771
0.998916
0.994075
0.982274
0.964697
0.944008
0.921897
0.899192
0.876473
0.854703
0.836052
0.822436
0.803324
0.708765
0.635773
0.643765
0.714932
0.812473
0.830417
0.841785
0.858294
0.878486
0.899991
0.92165
0.942986
0.963181
0.980481
0.992153
0.996959
0.997812
0.997856
0.997856
0.997856
0.997856
0.997856
0.997856
0.997856
0.997856
0.997856
0.997856
0.997812
0.99696
0.992137
0.980382
0.962884
0.942304
0.920327
0.897776
0.875223
0.85362
0.835125
0.821655
0.802659
0.708428
0.635678
0.641381
0.710534
0.804838
0.823137
0.835096
0.851716
0.871712
0.893027
0.914648
0.935923
0.956017
0.973214
0.984805
0.989566
0.990406
0.99045
0.99045
0.99045
0.99045
0.99045
0.99045
0.99045
0.99045
0.99045
0.99045
0.990406
0.989567
0.984806
0.973192
0.955909
0.93561
0.913971
0.891805
0.869672
0.848516
0.830457
0.817404
0.798764
0.705947
0.634497
0.634081
0.702424
0.792922
0.810317
0.821987
0.838743
0.858786
0.880036
0.901528
0.922639
0.942511
0.959462
0.970846
0.975493
0.976305
0.976347
0.976347
0.976347
0.976347
0.976347
0.976347
0.976347
0.976347
0.976347
0.976347
0.976305
0.975494
0.970852
0.959474
0.94251
0.922587
0.901371
0.87967
0.858039
0.837416
0.819871
0.807266
0.789079
0.698641
0.629414
0.620988
0.688303
0.775642
0.793075
0.805094
0.822051
0.842109
0.863221
0.884459
0.905266
0.924808
0.941415
0.952494
0.956965
0.957734
0.957772
0.957772
0.957772
0.957772
0.957772
0.957772
0.957772
0.957772
0.957772
0.957772
0.957734
0.956965
0.952497
0.941427
0.924831
0.905299
0.884488
0.863207
0.842011
0.821827
0.804676
0.792327
0.774566
0.686553
0.618809
0.605072
0.672381
0.757732
0.77491
0.787014
0.803863
0.823697
0.844541
0.865465
0.885919
0.905084
0.921295
0.932006
0.936254
0.936965
0.936999
0.937
0.937
0.937
0.937
0.937
0.937
0.937
0.937
0.936999
0.936965
0.936254
0.932007
0.921302
0.905103
0.885958
0.865526
0.84462
0.823794
0.803964
0.78708
0.774856
0.757525
0.671866
0.604413
0.588337
0.656255
0.739298
0.756133
0.76827
0.784948
0.804549
0.82506
0.845652
0.865741
0.884514
0.900299
0.910592
0.914577
0.915219
0.915249
0.915249
0.915249
0.915249
0.915249
0.915249
0.915249
0.915249
0.915249
0.915249
0.915219
0.914577
0.910592
0.900301
0.884523
0.865763
0.845695
0.825132
0.804658
0.78509
0.768436
0.756292
0.739428
0.656272
0.588195
0.572521
0.640373
0.720682
0.737222
0.74922
0.765821
0.785102
0.805332
0.825567
0.8453
0.863677
0.879015
0.888848
0.892537
0.893105
0.893129
0.893129
0.893129
0.893129
0.893129
0.893129
0.893129
0.893129
0.893129
0.893129
0.893105
0.892537
0.888848
0.879015
0.86368
0.845308
0.825586
0.805368
0.785159
0.765902
0.749326
0.737353
0.720822
0.640485
0.572524
0.555777
0.625614
0.701902
0.718562
0.730439
0.746674
0.76587
0.785712
0.805665
0.825038
0.843024
0.857895
0.867233
0.870605
0.871094
0.871114
0.871114
0.871114
0.871114
0.871114
0.871114
0.871114
0.871114
0.871114
0.871114
0.871094
0.870605
0.867233
0.857895
0.843024
0.825039
0.80567
0.785722
0.765888
0.746703
0.730482
0.718623
0.70197
0.625675
0.555792
0.541815
0.611131
0.683513
0.700594
0.712337
0.728527
0.747294
0.767042
0.786686
0.805776
0.823385
0.837778
0.846591
0.849634
0.850047
0.850062
0.850062
0.850062
0.850062
0.850062
0.850062
0.850062
0.850062
0.850062
0.850062
0.850047
0.849634
0.846591
0.837778
0.823385
0.805775
0.786686
0.767043
0.747296
0.728531
0.712347
0.700609
0.683532
0.61115
0.541821
0.52828
0.60002
0.667932
0.685139
0.697023
0.712851
0.731589
0.751001
0.770542
0.789399
0.80671
0.820663
0.828968
0.831696
0.832039
0.832051
0.832051
0.832051
0.832051
0.832051
0.832051
0.832051
0.832051
0.832051
0.832051
0.832039
0.831696
0.828968
0.820663
0.806709
0.789399
0.770541
0.750999
0.731587
0.712849
0.697022
0.685139
0.667932
0.600022
0.528281
0.522688
0.591057
0.655944
0.673244
0.685794
0.701793
0.720478
0.739792
0.759158
0.777921
0.795081
0.808717
0.816565
0.818996
0.819278
0.819286
0.819286
0.819286
0.819286
0.819286
0.819286
0.819286
0.819286
0.819286
0.819286
0.819278
0.818996
0.816565
0.808717
0.795081
0.777921
0.759158
0.739792
0.720477
0.701792
0.685792
0.673242
0.655942
0.591056
0.522688
0.514793
0.580022
0.640779
0.657239
0.669996
0.686215
0.705399
0.724973
0.7441
0.762419
0.779172
0.7924
0.799841
0.802034
0.802266
0.802273
0.802273
0.802273
0.802273
0.802273
0.802273
0.802273
0.802273
0.802273
0.802273
0.802266
0.802034
0.799841
0.7924
0.779172
0.762419
0.7441
0.724973
0.705398
0.686214
0.669995
0.657238
0.640778
0.580021
0.514793
0.465545
0.52494
0.582484
0.594384
0.60408
0.615763
0.630822
0.64609
0.662185
0.677976
0.692325
0.7031
0.708489
0.709814
0.709928
0.709931
0.709931
0.709931
0.709931
0.709931
0.709931
0.709931
0.709931
0.709931
0.709931
0.709928
0.709814
0.708489
0.7031
0.692325
0.677976
0.662185
0.64609
0.630822
0.615763
0.60408
0.594384
0.582484
0.524939
0.465545
0.440838
0.461662
0.512736
0.521487
0.527487
0.541552
0.555862
0.573018
0.589143
0.605297
0.618891
0.627633
0.630909
0.63143
0.631455
0.631455
0.631455
0.631455
0.631455
0.631455
0.631455
0.631455
0.631455
0.631455
0.631455
0.631455
0.63143
0.630909
0.627633
0.618891
0.605297
0.589143
0.573018
0.555862
0.541552
0.527487
0.521487
0.512736
0.461662
0.440838
0.440838
0.461662
0.512736
0.521487
0.527487
0.541552
0.555862
0.573018
0.589143
0.605297
0.618891
0.627633
0.630909
0.63143
0.631455
0.631455
0.631455
0.631455
0.631455
0.631455
0.631455
0.631455
0.631455
0.631455
0.631455
0.631455
0.63143
0.630909
0.627633
0.618891
0.605297
0.589143
0.573018
0.555862
0.541552
0.527487
0.521487
0.512736
0.461662
0.440838
0.465545
0.52494
0.582484
0.594384
0.60408
0.615763
0.630822
0.64609
0.662185
0.677976
0.692325
0.7031
0.708489
0.709814
0.709928
0.709931
0.709931
0.709931
0.709931
0.709931
0.709931
0.709931
0.709931
0.709931
0.709931
0.709928
0.709814
0.708489
0.7031
0.692325
0.677976
0.662185
0.64609
0.630822
0.615763
0.60408
0.594384
0.582484
0.524939
0.465545
0.514793
0.580022
0.640779
0.657239
0.669996
0.686215
0.705399
0.724973
0.7441
0.762419
0.779172
0.7924
0.799841
0.802034
0.802266
0.802273
0.802273
0.802273
0.802273
0.802273
0.802273
0.802273
0.802273
0.802273
0.802273
0.802266
0.802034
0.799841
0.7924
0.779172
0.762419
0.7441
0.724973
0.705398
0.686214
0.669995
0.657238
0.640778
0.580021
0.514793
0.522688
0.591057
0.655944
0.673244
0.685794
0.701793
0.720478
0.739792
0.759158
0.777921
0.795081
0.808717
0.816565
0.818996
0.819278
0.819286
0.819286
0.819286
0.819286
0.819286
0.819286
0.819286
0.819286
0.819286
0.819286
0.819278
0.818996
0.816565
0.808717
0.795081
0.777921
0.759158
0.739792
0.720477
0.701792
0.685792
0.673242
0.655942
0.591056
0.522688
0.52828
0.60002
0.667932
0.685139
0.697023
0.712851
0.731589
0.751001
0.770542
0.789399
0.80671
0.820663
0.828968
0.831696
0.832039
0.832051
0.832051
0.832051
0.832051
0.832051
0.832051
0.832051
0.832051
0.832051
0.832051
0.832039
0.831696
0.828968
0.820663
0.806709
0.789399
0.770541
0.750999
0.731587
0.712849
0.697022
0.685139
0.667932
0.600022
0.528281
0.541815
0.611131
0.683513
0.700594
0.712337
0.728527
0.747294
0.767042
0.786686
0.805776
0.823385
0.837778
0.846591
0.849634
0.850047
0.850062
0.850062
0.850062
0.850062
0.850062
0.850062
0.850062
0.850062
0.850062
0.850062
0.850047
0.849634
0.846591
0.837778
0.823385
0.805775
0.786686
0.767043
0.747296
0.728531
0.712347
0.700609
0.683532
0.61115
0.541821
0.555777
0.625614
0.701902
0.718562
0.730439
0.746674
0.76587
0.785712
0.805665
0.825038
0.843024
0.857895
0.867233
0.870605
0.871094
0.871114
0.871114
0.871114
0.871114
0.871114
0.871114
0.871114
0.871114
0.871114
0.871114
0.871094
0.870605
0.867233
0.857895
0.843024
0.825039
0.80567
0.785722
0.765888
0.746703
0.730482
0.718623
0.70197
0.625675
0.555792
0.572521
0.640373
0.720682
0.737222
0.74922
0.765821
0.785102
0.805332
0.825567
0.8453
0.863677
0.879015
0.888848
0.892537
0.893105
0.893129
0.893129
0.893129
0.893129
0.893129
0.893129
0.893129
0.893129
0.893129
0.893129
0.893105
0.892537
0.888848
0.879015
0.86368
0.845308
0.825586
0.805368
0.785159
0.765902
0.749326
0.737353
0.720822
0.640485
0.572524
0.588337
0.656255
0.739298
0.756133
0.76827
0.784948
0.804549
0.82506
0.845652
0.865741
0.884514
0.900299
0.910592
0.914577
0.915219
0.915249
0.915249
0.915249
0.915249
0.915249
0.915249
0.915249
0.915249
0.915249
0.915249
0.915219
0.914577
0.910592
0.900301
0.884523
0.865763
0.845695
0.825132
0.804658
0.78509
0.768436
0.756292
0.739428
0.656272
0.588195
0.605072
0.672381
0.757732
0.77491
0.787014
0.803863
0.823697
0.844541
0.865465
0.885919
0.905084
0.921295
0.932006
0.936254
0.936965
0.936999
0.937
0.937
0.937
0.937
0.937
0.937
0.937
0.937
0.936999
0.936965
0.936254
0.932007
0.921302
0.905103
0.885958
0.865526
0.84462
0.823794
0.803964
0.78708
0.774856
0.757525
0.671866
0.604413
0.620988
0.688303
0.775642
0.793075
0.805094
0.822051
0.842109
0.863221
0.884459
0.905266
0.924808
0.941415
0.952494
0.956965
0.957734
0.957772
0.957772
0.957772
0.957772
0.957772
0.957772
0.957772
0.957772
0.957772
0.957772
0.957734
0.956965
0.952497
0.941427
0.924831
0.905299
0.884488
0.863207
0.842011
0.821827
0.804676
0.792327
0.774566
0.686553
0.618809
0.634081
0.702424
0.792922
0.810317
0.821987
0.838743
0.858786
0.880036
0.901528
0.922639
0.942511
0.959462
0.970846
0.975493
0.976305
0.976347
0.976347
0.976347
0.976347
0.976347
0.976347
0.976347
0.976347
0.976347
0.976347
0.976305
0.975494
0.970852
0.959474
0.94251
0.922587
0.901371
0.87967
0.858039
0.837416
0.819871
0.807266
0.789079
0.698641
0.629414
0.641381
0.710534
0.804838
0.823137
0.835096
0.851716
0.871712
0.893027
0.914648
0.935923
0.956017
0.973214
0.984805
0.989566
0.990406
0.99045
0.99045
0.99045
0.99045
0.99045
0.99045
0.99045
0.99045
0.99045
0.99045
0.990406
0.989567
0.984806
0.973192
0.955909
0.93561
0.913971
0.891805
0.869672
0.848516
0.830457
0.817404
0.798764
0.705947
0.634497
0.643765
0.714932
0.812473
0.830417
0.841785
0.858294
0.878486
0.899991
0.92165
0.942986
0.963181
0.980481
0.992153
0.996959
0.997812
0.997856
0.997856
0.997856
0.997856
0.997856
0.997856
0.997856
0.997856
0.997856
0.997856
0.997812
0.99696
0.992137
0.980382
0.962884
0.942304
0.920327
0.897776
0.875223
0.85362
0.835125
0.821655
0.802659
0.708428
0.635678
0.643777
0.718329
0.81749
0.836895
0.84757
0.862763
0.881818
0.902556
0.923923
0.945152
0.965271
0.98249
0.994119
0.998919
0.999771
0.999816
0.999816
0.999816
0.999816
0.999816
0.999816
0.999816
0.999816
0.999816
0.999816
0.999771
0.998916
0.994075
0.982274
0.964697
0.944008
0.921897
0.899192
0.876473
0.854703
0.836052
0.822436
0.803324
0.708765
0.635773
0.641075
0.722168
0.821164
0.841728
0.852254
0.866423
0.884514
0.904588
0.925402
0.946143
0.96587
0.982851
0.99436
0.999109
0.999952
0.999996
0.999996
0.999996
0.999996
0.999996
0.999996
0.999996
0.999996
0.999996
0.999996
0.999951
0.999095
0.994252
0.982446
0.964859
0.944155
0.922027
0.899303
0.876565
0.854776
0.836109
0.822479
0.803357
0.708778
0.635775
0.630601
0.728097
0.825758
0.846231
0.856633
0.869704
0.886786
0.906152
0.926521
0.946938
0.966401
0.98314
0.994465
0.99913
0.999956
1
1
1
1
1
1
1
1
1
1
0.999955
0.999099
0.994256
0.98245
0.964862
0.944158
0.922029
0.899305
0.876566
0.854777
0.83611
0.822479
0.803357
0.708778
0.635775
0.622045
0.735073
0.831937
0.851743
0.861621
0.872977
0.888866
0.907492
0.927473
0.947638
0.96689
0.983427
0.994581
0.999153
0.999958
1
1
1
1
1
1
1
1
1
1
0.999955
0.999099
0.994256
0.98245
0.964862
0.944158
0.922029
0.899305
0.876566
0.854777
0.83611
0.822479
0.803357
0.708778
0.635775
0.625948
0.738568
0.838251
0.858375
0.866853
0.876334
0.890724
0.908602
0.928215
0.948196
0.96731
0.983699
0.994701
0.99918
0.99996
1
1
1
1
1
1
1
1
1
1
0.999955
0.999099
0.994256
0.98245
0.964862
0.944158
0.922029
0.899305
0.876566
0.854777
0.83611
0.822479
0.803357
0.708778
0.635775
0.714474
0.762958
0.851601
0.86881
0.871366
0.879746
0.892269
0.909441
0.928662
0.948526
0.967592
0.983906
0.994803
0.999203
0.999961
1
1
1
1
1
1
1
1
1
1
0.999955
0.999099
0.994256
0.98245
0.964862
0.944158
0.922029
0.899305
0.876566
0.854777
0.83611
0.822479
0.803357
0.708778
0.635775
)
;

boundaryField
{
    inlet
    {
        type            fixedValue;
        value           uniform 1;
    }
    outlet
    {
        type            zeroGradient;
    }
    obstacle
    {
        type            zeroGradient;
    }
    empty
    {
        type            empty;
    }
}


// ************************************************************************* //
