/*--------------------------------*- C++ -*----------------------------------*\
| =========                 |                                                 |
| \\      /  F ield         | OpenFOAM: The Open Source CFD Toolbox           |
|  \\    /   O peration     | Version:  v1912                                 |
|   \\  /    A nd           | Website:  www.openfoam.com                      |
|    \\/     M anipulation  |                                                 |
\*---------------------------------------------------------------------------*/
FoamFile
{
    version     2.0;
    format      ascii;
    class       volVectorField;
    location    "4.32";
    object      grad(rho);
}
// * * * * * * * * * * * * * * * * * * * * * * * * * * * * * * * * * * * * * //

dimensions      [1 -4 0 0 0 0 0];


internalField   nonuniform List<vector> 
1900
(
(146024 -0.5204 0)
(-117231 0.841325 0)
(-14940.6 0.282549 0)
(-3079.61 1.36388 0)
(-2286.49 2.67849 0)
(-2102.85 3.39925 0)
(-2136.66 6.83903 0)
(-2192.86 14.1681 0)
(-2000.78 -40.1333 0)
(-1314.81 -106.415 0)
(146024 -0.666809 0)
(-117231 1.47817 0)
(-14940.1 0.533206 0)
(-3077.21 1.71772 0)
(-2284.46 1.92041 0)
(-2098.68 -1.99644 0)
(-2125.89 -4.94243 0)
(-2239.83 -8.91398 0)
(-2121.37 -76.9108 0)
(-1790.88 -149.001 0)
(146025 2.25953e-08 0)
(-117230 2.84217e-10 0)
(-14940.4 5.24025e-09 0)
(-3078.22 7.58504e-09 0)
(-2290.21 9.91207e-09 0)
(-2109.71 5.7554e-09 0)
(-2143.58 -1.61648e-09 0)
(-2264.82 -1.63425e-09 0)
(-2140.87 -4.08562e-10 0)
(-1837.28 7.99361e-10 0)
(146024 0.666809 0)
(-117231 -1.47817 0)
(-14940.1 -0.533206 0)
(-3077.21 -1.71772 0)
(-2284.46 -1.92041 0)
(-2098.68 1.99644 0)
(-2125.89 4.94243 0)
(-2239.83 8.91398 0)
(-2121.37 76.9108 0)
(-1790.88 149.001 0)
(146024 0.5204 0)
(-117231 -0.841325 0)
(-14940.6 -0.282549 0)
(-3079.61 -1.36388 0)
(-2286.49 -2.67849 0)
(-2102.85 -3.39925 0)
(-2136.66 -6.83903 0)
(-2192.86 -14.1681 0)
(-2000.78 40.1333 0)
(-1314.81 106.415 0)
(-545.589 -468.138 1.36446e-11)
(34.4851 -782.071 -1.63478e-11)
(458.109 -1236.07 -2.07001e-11)
(1533.08 -1737.29 0)
(-3145.96 -6273 -8.99573e-11)
(-1224.37 -549.337 1.356e-11)
(-483.299 -800.33 1.63478e-11)
(172.229 -1354.61 2.07001e-11)
(60.6806 -1963.15 0)
(-2678.94 -5631.92 0)
(-1348.1 1.99518e-09 0)
(-774.028 1.59716e-09 0)
(-453.173 -3.79943e-09 0)
(-246.374 -6.05576e-09 0)
(-4898.32 -8.0359e-09 0)
(-1224.37 549.337 1.356e-11)
(-483.299 800.33 1.63478e-11)
(172.229 1354.61 2.07001e-11)
(60.6806 1963.15 0)
(-2678.94 5631.92 0)
(-545.589 468.138 -4.07646e-11)
(34.4851 782.071 -1.63478e-11)
(458.109 1236.07 -2.07001e-11)
(1533.08 1737.29 -5.66908e-11)
(-3145.96 6273 8.99573e-11)
(-11503.7 3568.29 3.43965e-11)
(-6714 1087.47 -2.7719e-11)
(-7985.23 800.943 0)
(-9606.28 848.607 1.86459e-11)
(-13614.5 306.099 -7.58653e-12)
(-9090.4 3579.09 -1.7252e-11)
(-7293.82 1059.2 1.38759e-11)
(-7974.33 801.057 0)
(-9757.07 692.688 -1.16749e-11)
(-13796.5 -682.589 1.8938e-12)
(-9548.93 -3.76803e-09 0)
(-7368.58 -3.26425e-09 0)
(-8081.44 2.76322e-09 0)
(-10246.3 -1.91568e-09 4.6783e-12)
(-13921.4 -8.15462e-09 -3.78759e-12)
(-9090.4 -3579.09 -1.7252e-11)
(-7293.82 -1059.2 1.38759e-11)
(-7974.33 -801.057 0)
(-9757.07 -692.688 -1.16749e-11)
(-13796.5 682.589 1.8938e-12)
(-11503.7 -3568.29 1.7252e-11)
(-6714 -1087.47 -3.27509e-14)
(-7985.23 -800.943 0)
(-9606.28 -848.607 2.55573e-14)
(-13614.5 -306.099 7.58653e-12)
(-18352.4 -6886.99 0)
(-9145.41 3169.23 0)
(1714.03 2557.29 0)
(272.95 1904.43 0)
(-1259.42 966.458 0)
(-1536.6 462.164 0)
(-1898.4 295.679 0)
(-1909.77 148.78 0)
(-1554.29 112.878 0)
(-1089.15 22.6855 0)
(-623.316 14.0202 0)
(-435.234 11.4838 0)
(-347.806 10.7275 0)
(-287.866 8.51778 0)
(-235.861 6.46096 0)
(-191.866 5.05231 0)
(-156.299 4.18814 0)
(-127.211 3.64421 0)
(-104.538 3.24414 0)
(-85.8673 2.92901 0)
(-68.9884 2.64189 0)
(-56.9151 2.39955 0)
(-47.1169 2.23263 0)
(-37.6948 2.14001 0)
(-29.1764 2.13582 0)
(-20.7269 2.20281 0)
(-13.0157 2.3362 0)
(-7.94175 2.43509 0)
(-6.00433 2.60819 0)
(-8.85754 2.24124 0)
(-3.59345 2.24047 0)
(5.58016 1.92174 0)
(35.6672 2.17175 0)
(55.0053 5.35272 0)
(69.2004 6.66784 0)
(58.0078 13.6681 0)
(25.1449 13.6105 0)
(3191.38 20.9735 0)
(70611.4 -61.437 0)
(-77789 -4601.7 0)
(-17964.6 138.373 0)
(-9128.32 5249.87 0)
(1407.04 2984.83 0)
(261.76 1455.1 0)
(-1372.11 672.203 0)
(-1617.58 245.901 0)
(-1933.07 146.514 0)
(-1932.23 63.6411 0)
(-1567.54 37.6125 0)
(-1095.05 1.74501 0)
(-623.345 4.54085 0)
(-435.406 2.9477 0)
(-347.902 2.89007 0)
(-288.131 2.17801 0)
(-236.081 1.50798 0)
(-192.001 1.0807 0)
(-156.373 0.851722 0)
(-127.258 0.728477 0)
(-104.577 0.635798 0)
(-85.9095 0.546699 0)
(-69.0372 0.434891 0)
(-56.966 0.307168 0)
(-47.1626 0.177132 0)
(-37.7301 0.0696157 0)
(-29.2038 -0.00286216 0)
(-20.7512 -0.0520957 0)
(-13.0475 -0.0787613 0)
(-7.97616 -0.11001 0)
(-6.08459 -0.0737791 0)
(-8.94843 -0.167179 0)
(-3.66362 0.052962 0)
(5.53574 0.461169 0)
(36.0051 1.65532 0)
(55.6479 5.23383 0)
(70.4096 10.4542 0)
(59.2523 20.6593 0)
(25.9432 31.6601 0)
(3180.38 43.4079 0)
(70546.8 -25.4838 0)
(-77746.3 2258.41 0)
(-16586.8 -3.15546e-08 0)
(-8317.35 -1.6181e-08 0)
(610.097 -1.42754e-08 0)
(-399.815 4.5717e-08 0)
(-1611.19 6.18495e-09 0)
(-1689.53 -6.55637e-09 0)
(-1951.42 -3.40576e-08 0)
(-1941.45 -6.54668e-08 0)
(-1572.3 -2.07834e-08 0)
(-1098.77 -4.07916e-08 0)
(-622.966 -7.60604e-09 0)
(-435.715 -3.16514e-09 0)
(-348.03 -8.41347e-09 0)
(-288.268 -1.46469e-08 0)
(-236.18 -9.9799e-09 0)
(-192.057 -8.07435e-11 0)
(-156.401 1.29028e-08 0)
(-127.274 9.56003e-09 0)
(-104.591 -6.45948e-09 0)
(-85.9258 -1.04805e-08 0)
(-69.0581 -2.63224e-09 0)
(-56.9901 1.31612e-08 0)
(-47.186 -4.26326e-09 0)
(-37.7472 -5.94757e-08 0)
(-29.2118 -5.99924e-08 0)
(-20.7489 -1.73437e-08 0)
(-13.0326 3.39769e-08 0)
(-7.9403 7.12965e-08 0)
(-6.02096 7.85957e-08 0)
(-8.82067 3.128e-08 0)
(-3.41066 -1.79412e-08 0)
(6.0463 -5.21441e-08 0)
(37.0556 1.933e-08 0)
(57.565 8.32142e-08 0)
(73.6878 1.22649e-07 0)
(64.1768 1.5598e-07 0)
(31.7627 -3.60116e-09 0)
(3174.76 9.50351e-08 0)
(71255.8 -4.45413e-07 0)
(-78564.1 -6.05059e-07 0)
(-17964.6 -138.373 0)
(-9128.32 -5249.87 0)
(1407.04 -2984.83 0)
(261.76 -1455.1 0)
(-1372.11 -672.203 0)
(-1617.58 -245.901 0)
(-1933.07 -146.514 0)
(-1932.23 -63.6411 0)
(-1567.54 -37.6125 0)
(-1095.05 -1.74501 0)
(-623.345 -4.54085 0)
(-435.406 -2.9477 0)
(-347.902 -2.89007 0)
(-288.131 -2.17801 0)
(-236.081 -1.50798 0)
(-192.001 -1.0807 0)
(-156.373 -0.851722 0)
(-127.258 -0.728477 0)
(-104.577 -0.635798 0)
(-85.9095 -0.546699 0)
(-69.0372 -0.434891 0)
(-56.966 -0.307168 0)
(-47.1626 -0.177132 0)
(-37.7301 -0.069616 0)
(-29.2038 0.00286187 0)
(-20.7512 0.0520954 0)
(-13.0475 0.0787611 0)
(-7.97616 0.11001 0)
(-6.08459 0.0737789 0)
(-8.94843 0.167179 0)
(-3.66362 -0.0529623 0)
(5.53574 -0.461169 0)
(36.0051 -1.65532 0)
(55.6479 -5.23383 0)
(70.4096 -10.4542 0)
(59.2523 -20.6593 0)
(25.9432 -31.6601 0)
(3180.38 -43.4079 0)
(70546.8 25.4838 0)
(-77746.3 -2258.41 0)
(-18352.4 6886.99 0)
(-9145.41 -3169.23 0)
(1714.03 -2557.29 0)
(272.95 -1904.43 0)
(-1259.42 -966.458 0)
(-1536.6 -462.164 0)
(-1898.4 -295.679 0)
(-1909.77 -148.78 0)
(-1554.29 -112.878 0)
(-1089.15 -22.6855 0)
(-623.316 -14.0202 0)
(-435.234 -11.4838 0)
(-347.806 -10.7275 0)
(-287.866 -8.51778 0)
(-235.861 -6.46096 0)
(-191.866 -5.05231 0)
(-156.299 -4.18814 0)
(-127.211 -3.64421 0)
(-104.538 -3.24414 0)
(-85.8673 -2.92901 0)
(-68.9884 -2.64189 0)
(-56.9151 -2.39955 0)
(-47.1169 -2.23263 0)
(-37.6948 -2.14001 0)
(-29.1764 -2.13582 0)
(-20.7269 -2.20281 0)
(-13.0157 -2.3362 0)
(-7.94175 -2.43509 0)
(-6.00433 -2.60819 0)
(-8.85754 -2.24124 0)
(-3.59345 -2.24047 0)
(5.58016 -1.92174 0)
(35.6672 -2.17175 0)
(55.0053 -5.35272 0)
(69.2004 -6.66784 0)
(58.0078 -13.6681 0)
(25.1449 -13.6105 0)
(3191.38 -20.9735 0)
(70611.4 61.437 0)
(-77789 4601.7 0)
(32181.9 18050.4 0)
(-15032.7 -3405.22 0)
(1845.45 -3503.55 0)
(1246.7 -2619.19 0)
(-597.707 -1374.55 0)
(-1290.46 -808.369 0)
(-1776.58 -532.651 0)
(-1843.52 -296.231 0)
(-1503.76 -228.443 0)
(-1039.86 -61.46 0)
(-616.353 -32.8582 0)
(-433.538 -25.5578 0)
(-346.153 -22.5389 0)
(-285.762 -17.9918 0)
(-234.162 -13.9596 0)
(-190.731 -11.2052 0)
(-155.576 -9.50108 0)
(-126.72 -8.40136 0)
(-104.174 -7.57962 0)
(-85.5804 -6.94014 0)
(-68.7615 -6.38684 0)
(-56.7682 -5.95341 0)
(-47.0528 -5.69362 0)
(-37.7103 -5.56597 0)
(-29.2749 -5.60508 0)
(-20.905 -5.79892 0)
(-13.2299 -6.14578 0)
(-8.18657 -6.47563 0)
(-6.0558 -6.90366 0)
(-8.82285 -6.49561 0)
(-3.54434 -6.49822 0)
(5.52748 -6.0036 0)
(34.2436 -6.64818 0)
(53.5707 -11.3307 0)
(66.5918 -12.7482 0)
(56.3363 -22.2863 0)
(22.2837 -21.8619 0)
(3214.73 -35.4726 0)
(73371.9 -105.923 0)
(-80817.8 518.481 0)
(36798.5 18031.5 0)
(-26758.6 -2773.98 0)
(2401.01 -2064.37 0)
(1802.37 -2106.25 0)
(130.713 -1479.48 0)
(-857.301 -1065.89 0)
(-1470.21 -777.834 0)
(-1652.16 -478.659 0)
(-1355.15 -300.011 0)
(-927.108 -114.956 0)
(-592.454 -57.9978 0)
(-426.2 -41.975 0)
(-341.402 -34.4507 0)
(-280.726 -27.1174 0)
(-230.232 -21.0775 0)
(-188.179 -17.0507 0)
(-153.984 -14.5524 0)
(-125.623 -12.8949 0)
(-103.325 -11.6145 0)
(-84.8717 -10.601 0)
(-68.1593 -9.7091 0)
(-56.3258 -8.99428 0)
(-46.7779 -8.54302 0)
(-37.6012 -8.28897 0)
(-29.348 -8.29392 0)
(-21.1524 -8.54113 0)
(-13.5529 -9.04312 0)
(-8.54078 -9.50214 0)
(-5.99598 -10.0954 0)
(-8.48545 -9.434 0)
(-3.14567 -9.33193 0)
(5.4639 -8.71156 0)
(31.2972 -9.79534 0)
(49.8964 -16.6182 0)
(60.0419 -19.5583 0)
(50.1219 -33.127 0)
(13.9724 -36.0927 0)
(3097.86 -53.4993 0)
(69664.9 -307.693 0)
(-76669.3 -5321.27 0)
(41591.1 10760.3 0)
(-34397.8 -1168.42 0)
(2488.9 -1122.31 0)
(1810.33 -1421 0)
(404.82 -1286.47 0)
(-614.331 -1107.56 0)
(-1210.7 -912.122 0)
(-1383.07 -588.188 0)
(-1153.28 -342.345 0)
(-806.644 -161.658 0)
(-546.025 -87.1246 0)
(-410.847 -61.2558 0)
(-331.836 -47.3067 0)
(-272.875 -36.4142 0)
(-224.462 -28.2195 0)
(-184.443 -22.8604 0)
(-151.571 -19.4326 0)
(-123.889 -17.0415 0)
(-101.963 -15.1432 0)
(-83.7443 -13.648 0)
(-67.2132 -12.352 0)
(-55.6445 -11.3304 0)
(-46.3731 -10.7092 0)
(-37.4702 -10.3866 0)
(-29.5179 -10.4582 0)
(-21.6269 -10.8956 0)
(-14.156 -11.7327 0)
(-9.20059 -12.4594 0)
(-5.99014 -13.3919 0)
(-8.08714 -12.4771 0)
(-2.84817 -12.4453 0)
(5.08092 -11.9609 0)
(26.6246 -13.7631 0)
(44.1627 -22.9769 0)
(50.6833 -27.3997 0)
(40.4031 -43.2609 0)
(2.65219 -48.7925 0)
(2953 -63.23 0)
(68295.7 -250.077 0)
(-75141.8 -2847.66 0)
(44550 6529.61 0)
(-38209.1 -273.458 0)
(2157.61 -624.712 0)
(1644.17 -1076 0)
(432.755 -1128.36 0)
(-496.561 -1082.79 0)
(-969.724 -917.016 0)
(-1103.1 -607.207 0)
(-944.135 -356.401 0)
(-681.168 -184.129 0)
(-495.702 -109.742 0)
(-387.83 -76.8221 0)
(-317.464 -57.0409 0)
(-262.333 -42.8871 0)
(-217.171 -32.9716 0)
(-179.711 -26.5203 0)
(-148.377 -22.217 0)
(-121.489 -19.0522 0)
(-100.055 -16.4807 0)
(-82.1821 -14.4703 0)
(-65.926 -12.7604 0)
(-54.7428 -11.4425 0)
(-45.8684 -10.6852 0)
(-37.3593 -10.3467 0)
(-29.8385 -10.5557 0)
(-22.3806 -11.258 0)
(-15.0599 -12.5049 0)
(-10.1396 -13.4996 0)
(-6.01298 -14.8192 0)
(-7.57335 -13.8103 0)
(-2.64827 -14.0721 0)
(4.194 -14.1192 0)
(20.6817 -17.0735 0)
(36.7557 -28.2373 0)
(40.4955 -34.9293 0)
(29.507 -51.1358 0)
(-5.2706 -59.9257 0)
(2903.89 -67.1562 0)
(66981.8 -206.404 0)
(-73713.4 -2813.97 0)
(47486.2 5256.43 0)
(-41292 -47.9482 0)
(1715.55 -446.751 0)
(1325 -926.501 0)
(398.272 -1033.99 0)
(-410.675 -1002.59 0)
(-752.413 -820.912 0)
(-842.843 -570.33 0)
(-745.585 -335.739 0)
(-568.954 -191.717 0)
(-442.621 -121.643 0)
(-360.062 -85.7378 0)
(-299.135 -62.474 0)
(-249.681 -46.4077 0)
(-208.69 -35.5332 0)
(-174.08 -28.2885 0)
(-144.375 -23.182 0)
(-118.362 -19.2294 0)
(-97.5481 -15.9531 0)
(-80.1593 -13.4089 0)
(-64.2956 -11.2831 0)
(-53.6447 -9.68258 0)
(-45.3171 -8.82064 0)
(-37.3455 -8.50942 0)
(-30.396 -8.88987 0)
(-23.5052 -9.83191 0)
(-16.3161 -11.418 0)
(-11.4308 -12.46 0)
(-6.28947 -13.8629 0)
(-7.36714 -12.3392 0)
(-3.14588 -12.4213 0)
(2.18867 -12.582 0)
(13.0199 -15.7327 0)
(26.9562 -27.2063 0)
(28.6175 -34.6409 0)
(16.3157 -48.5577 0)
(-12.7857 -57.3936 0)
(2811.85 -58.6547 0)
(65648.7 -227.126 0)
(-72227.8 -3351.78 0)
(49776 5477.48 0)
(-43704.9 -61.3608 0)
(1311.01 -470.499 0)
(1078.29 -799.636 0)
(359.428 -950.861 0)
(-291.23 -886.386 0)
(-553.178 -703.491 0)
(-635.568 -503.525 0)
(-579.29 -310.24 0)
(-474.857 -191.405 0)
(-393.577 -128.251 0)
(-330.813 -90.6988 0)
(-279.564 -65.7006 0)
(-236.372 -48.7099 0)
(-199.711 -37.2567 0)
(-167.809 -29.2827 0)
(-139.647 -23.351 0)
(-114.523 -18.5758 0)
(-94.4458 -14.5646 0)
(-77.6819 -11.4757 0)
(-62.3352 -8.94583 0)
(-52.3698 -7.09406 0)
(-44.7379 -6.17746 0)
(-37.426 -5.94867 0)
(-31.1128 -6.56685 0)
(-24.8168 -7.80145 0)
(-17.5924 -9.8341 0)
(-12.4956 -11.0151 0)
(-5.89658 -12.6952 0)
(-6.18412 -10.7586 0)
(-2.88228 -11.059 0)
(1.00301 -11.9284 0)
(6.5892 -15.6348 0)
(18.5351 -27.7878 0)
(19.9205 -36.2969 0)
(7.58166 -47.8077 0)
(-15.0005 -55.0724 0)
(2740.33 -49.1639 0)
(63808.4 -260.682 0)
(-70252.8 -3773.3 0)
(53125 961.868 0)
(-47023.7 -179.242 0)
(1004.12 -476.007 0)
(862.106 -713.77 0)
(314.677 -848.039 0)
(-172.3 -751.919 0)
(-383.474 -598.096 0)
(-463.892 -422.623 0)
(-444.815 -271.151 0)
(-393.584 -176.902 0)
(-345.577 -121.887 0)
(-299.786 -86.728 0)
(-258.673 -63.5722 0)
(-222.271 -48.099 0)
(-189.969 -37.5131 0)
(-160.68 -29.6829 0)
(-134.057 -23.4782 0)
(-109.895 -18.2154 0)
(-90.7062 -13.6553 0)
(-74.7448 -10.1174 0)
(-60.0733 -7.21397 0)
(-50.977 -5.07252 0)
(-44.2134 -3.98107 0)
(-37.7207 -3.5959 0)
(-32.1814 -4.06152 0)
(-26.6537 -5.02164 0)
(-19.4129 -6.70453 0)
(-14.1879 -6.69323 0)
(-6.04231 -7.17036 0)
(-5.79045 -3.53785 0)
(-4.27308 -2.96894 0)
(-2.22066 -3.77226 0)
(-2.26282 -7.59277 0)
(7.04537 -20.4723 0)
(9.32555 -31.1185 0)
(-1.77702 -41.4232 0)
(-14.0926 -48.5297 0)
(2613.72 -42.9013 0)
(62060 -372.831 0)
(-68362 -4389.85 0)
(50545.3 -3389.37 0)
(-45090.5 -279.623 0)
(795.917 -461.195 0)
(719.782 -631.248 0)
(322.666 -715.533 0)
(-50.3761 -621.41 0)
(-235.857 -498.527 0)
(-320.512 -350.679 0)
(-342.503 -237.255 0)
(-331.021 -163.305 0)
(-306.683 -116.28 0)
(-274.619 -84.6631 0)
(-242.34 -64.3814 0)
(-211.26 -50.6286 0)
(-181.965 -40.844 0)
(-154.285 -33.0567 0)
(-128.596 -26.5146 0)
(-105.058 -20.7299 0)
(-86.6423 -15.6151 0)
(-71.4748 -11.6461 0)
(-57.4737 -8.40276 0)
(-49.2545 -6.00618 0)
(-43.315 -4.76616 0)
(-37.5036 -4.24319 0)
(-32.4867 -4.57369 0)
(-27.3637 -5.22275 0)
(-19.2032 -6.5984 0)
(-12.9445 -5.37435 0)
(-2.85595 -4.7778 0)
(-2.13548 -0.374614 0)
(-3.10816 0.385457 0)
(-3.45269 -1.20232 0)
(-9.5036 -5.89392 0)
(-4.13516 -20.1135 0)
(-0.268437 -35.5151 0)
(-9.19636 -45.3336 0)
(-16.4248 -52.8449 0)
(2427.83 -46.8384 0)
(59619.5 -490.003 0)
(-65722.6 -5189.68 0)
(49287.6 -2545.18 0)
(-44202 -270.342 0)
(665.28 -412.956 0)
(617.016 -538.513 0)
(324.157 -584.605 0)
(36.8148 -516.908 0)
(-122.588 -412.182 0)
(-212.12 -297.306 0)
(-264.255 -209.997 0)
(-277.008 -147.823 0)
(-269.795 -106.201 0)
(-249.775 -77.5827 0)
(-225.876 -60.6145 0)
(-199.59 -49.2186 0)
(-173.036 -41.2947 0)
(-146.872 -34.7425 0)
(-122.179 -28.9833 0)
(-99.3916 -23.6318 0)
(-81.9527 -18.6971 0)
(-67.7947 -14.7412 0)
(-54.6385 -11.2346 0)
(-47.4727 -8.28456 0)
(-42.5145 -6.28763 0)
(-37.5353 -4.79074 0)
(-33.1254 -4.01003 0)
(-28.6048 -3.15941 0)
(-19.559 -3.03336 0)
(-12.4335 0.0405176 0)
(-1.22439 1.71813 0)
(-0.814945 5.99768 0)
(-5.07069 6.48439 0)
(-8.2717 3.46137 0)
(-20.4864 -2.90895 0)
(-21.4986 -19.6291 0)
(-14.9774 -41.5349 0)
(-18.4767 -52.8758 0)
(-15.5426 -63.9139 0)
(2192.46 -64.2787 0)
(57104.2 -721.45 0)
(-62972.5 -5953.38 0)
(47755.6 -3024.83 0)
(-43035.8 -235.078 0)
(537.497 -354.146 0)
(554.375 -452.993 0)
(343.486 -469.384 0)
(115.777 -428.253 0)
(-24.241 -339.319 0)
(-125.679 -257.467 0)
(-198.456 -191.134 0)
(-230.999 -138.852 0)
(-238.996 -103.141 0)
(-230.69 -77.6747 0)
(-215.007 -63.522 0)
(-192.643 -53.2725 0)
(-168.015 -46.099 0)
(-142.421 -39.8514 0)
(-117.89 -34.2116 0)
(-95.1455 -28.8684 0)
(-78.0749 -23.8596 0)
(-64.2837 -19.8007 0)
(-51.2519 -16.0019 0)
(-44.4874 -12.6132 0)
(-39.9482 -10.1652 0)
(-35.3088 -8.13019 0)
(-30.9147 -6.89494 0)
(-26.4226 -5.39395 0)
(-16.1196 -4.8663 0)
(-8.36577 -1.47495 0)
(2.88459 -0.239939 0)
(2.45746 2.91245 0)
(-5.55224 2.2549 0)
(-12.5044 -2.07071 0)
(-31.7544 -8.70453 0)
(-41.3565 -25.282 0)
(-32.3062 -48.77 0)
(-30.7617 -60.5103 0)
(-27.4131 -69.0923 0)
(1794.2 -74.9729 0)
(53944.5 -929.262 0)
(-59385.8 -6819.26 0)
(46060.6 -3741.55 0)
(-41628.4 -253.827 0)
(455.288 -325.693 0)
(505.969 -394.958 0)
(347.998 -391.054 0)
(162.151 -370.811 0)
(41.9877 -303.348 0)
(-69.3242 -242.064 0)
(-149.954 -191.846 0)
(-192.215 -140.968 0)
(-210.842 -107.501 0)
(-211.597 -81.3711 0)
(-202.361 -66.5912 0)
(-182.8 -53.8806 0)
(-160.103 -44.3886 0)
(-135.416 -36.0104 0)
(-111.595 -28.6592 0)
(-89.416 -22.0762 0)
(-73.2147 -16.2476 0)
(-60.2228 -11.7859 0)
(-47.7124 -7.62505 0)
(-41.8482 -3.98563 0)
(-38.1944 -1.70479 0)
(-34.3839 -0.189978 0)
(-30.4886 -0.0318911 0)
(-26.6499 -0.0749733 0)
(-15.7825 -2.082 0)
(-7.97533 -1.9261 0)
(3.00347 -4.48926 0)
(1.58918 -5.17745 0)
(-9.87265 -10.5582 0)
(-18.8326 -20.8103 0)
(-42.8536 -34.0153 0)
(-60.1071 -56.2643 0)
(-48.9246 -86.9499 0)
(-38.06 -107.015 0)
(-29.4794 -116.1 0)
(1363.57 -128.332 0)
(50605.2 -1045.24 0)
(-55588.9 -7479.83 0)
(43849.7 -4823.1 0)
(-39744.2 -293.073 0)
(401.499 -333.034 0)
(491.391 -363.518 0)
(366.754 -355.386 0)
(200.293 -330.899 0)
(99.8248 -275.272 0)
(-18.231 -225.955 0)
(-101.036 -182.629 0)
(-149.722 -132.521 0)
(-181.567 -102.445 0)
(-191.268 -76.5684 0)
(-188.516 -62.6362 0)
(-171.248 -48.3278 0)
(-150.795 -36.7366 0)
(-127.264 -25.812 0)
(-104.462 -16.4992 0)
(-83.1853 -8.64957 0)
(-68.1589 -2.16201 0)
(-55.9747 2.38499 0)
(-43.7353 6.51783 0)
(-38.7824 10.105 0)
(-36.2906 11.9314 0)
(-33.6967 12.6069 0)
(-30.8039 11.5106 0)
(-28.3981 10.1471 0)
(-17.9035 6.18806 0)
(-10.6855 4.32124 0)
(-0.248536 -0.825627 0)
(-3.3908 -4.51514 0)
(-20.6166 -13.8241 0)
(-35.1086 -30.5595 0)
(-65.9192 -50.1026 0)
(-92.3661 -78.6426 0)
(-81.211 -112.784 0)
(-58.8514 -140.704 0)
(-47.9559 -153.382 0)
(898.845 -175.3 0)
(46860.4 -998.902 0)
(-51253.3 -8326.18 0)
(41079.4 -5790.38 0)
(-37301.6 -305.307 0)
(387.405 -320.929 0)
(484.43 -296.746 0)
(379.431 -327.057 0)
(239.351 -313.823 0)
(143.116 -268.337 0)
(19.9499 -232.025 0)
(-59.9179 -177.367 0)
(-114.946 -134.522 0)
(-156.923 -106.779 0)
(-173.236 -79.1683 0)
(-175.147 -62.7786 0)
(-157.842 -42.9326 0)
(-138.406 -26.1914 0)
(-115.915 -9.05902 0)
(-95.0567 6.08 0)
(-75.6002 18.9576 0)
(-62.5814 29.1706 0)
(-51.8586 35.7835 0)
(-40.2731 40.0491 0)
(-36.6315 41.7185 0)
(-35.7835 39.7831 0)
(-34.7894 35.7312 0)
(-32.859 29.3252 0)
(-31.7789 23.1561 0)
(-21.3966 14.111 0)
(-14.734 7.71639 0)
(-5.51159 -3.05726 0)
(-10.9366 -12.8479 0)
(-34.97 -25.8729 0)
(-53.7919 -46.7082 0)
(-89.1882 -70.0209 0)
(-120.509 -105.687 0)
(-108.729 -145.394 0)
(-77.1813 -190.824 0)
(-62.8169 -211.788 0)
(548.792 -225.513 0)
(42750.7 -808.923 0)
(-46652.7 -9093.9 0)
(37935 -6500.51 0)
(-34473.6 -357.888 0)
(409.749 -375.142 0)
(485.487 -335.4 0)
(350.298 -349.111 0)
(256.878 -301.446 0)
(178.648 -262.131 0)
(69.4313 -233.25 0)
(-7.07825 -175.998 0)
(-81.7008 -132.32 0)
(-128.226 -100.383 0)
(-148.868 -71.1625 0)
(-153.598 -54.0457 0)
(-135.991 -32.2059 0)
(-118.153 -14.2704 0)
(-96.1657 4.80743 0)
(-77.4643 21.9181 0)
(-60.9343 36.1924 0)
(-51.9449 47.368 0)
(-45.4918 54.5651 0)
(-38.0161 59.3569 0)
(-39.0387 61.4211 0)
(-42.0601 59.1899 0)
(-43.7743 54.2796 0)
(-42.9217 46.3287 0)
(-43.059 38.8671 0)
(-32.7818 28.0856 0)
(-27.2295 19.1949 0)
(-20.065 3.74346 0)
(-25.3767 -13.3193 0)
(-53.2456 -32.2853 0)
(-77.6512 -63.3066 0)
(-122.754 -92.5692 0)
(-164.998 -137.879 0)
(-163.251 -178.249 0)
(-122.832 -247.599 0)
(-81.384 -293.984 0)
(323.424 -310.423 0)
(38314.5 -660.544 0)
(-41731.5 -9629.92 0)
(34438.1 -7121.21 0)
(-31399 -371.725 0)
(409.076 -381.58 0)
(509.514 -371.585 0)
(412.149 -354.016 0)
(323.169 -245.381 0)
(208.833 -230.494 0)
(102.95 -203.376 0)
(37.3422 -128.484 0)
(-42.081 -111.913 0)
(-97.9902 -92.2451 0)
(-128.583 -67.7941 0)
(-137.607 -51.1299 0)
(-119.514 -30.2712 0)
(-102.739 -12.3206 0)
(-81.0423 8.02916 0)
(-64.8129 27.1298 0)
(-51.0758 44.3445 0)
(-44.8769 58.1183 0)
(-40.3057 66.0527 0)
(-33.6664 69.9234 0)
(-36.7925 69.4805 0)
(-42.6654 63.9505 0)
(-47.1829 56.2015 0)
(-47.711 46.1482 0)
(-49.3586 38.484 0)
(-40.3535 28.6976 0)
(-38.1909 21.4528 0)
(-36.8434 8.90919 0)
(-45.6552 -6.04176 0)
(-83.1396 -19.6848 0)
(-111.884 -50.0314 0)
(-161.049 -73.5546 0)
(-203.074 -125.434 0)
(-214.46 -174.472 0)
(-188.707 -252.864 0)
(-123.356 -303.236 0)
(195.561 -319.333 0)
(33770.1 -489.238 0)
(-36727.6 -9838.71 0)
(30706.4 -6443.13 0)
(-27979.1 -246.919 0)
(409.884 -270.975 0)
(512.049 -299.636 0)
(471.913 -269.52 0)
(375.908 -178.725 0)
(219.126 -167.16 0)
(167.732 -124.38 0)
(81.0592 -65.5409 0)
(-46.7793 -88.8282 0)
(-85.7122 -69.5991 0)
(-109.248 -62.5919 0)
(-117.44 -58.5255 0)
(-98.593 -43.4169 0)
(-81.2452 -27.8321 0)
(-58.1498 -5.16509 0)
(-42.4695 16.1496 0)
(-31.0728 35.8476 0)
(-31.0261 49.4481 0)
(-34.116 58.2416 0)
(-34.7129 63.4754 0)
(-44.7944 61.1768 0)
(-54.8563 52.4957 0)
(-60.9293 41.6322 0)
(-59.9949 28.2316 0)
(-59.875 18.6708 0)
(-49.1936 9.15924 0)
(-46.2983 2.26594 0)
(-46.5598 -6.96825 0)
(-52.9309 -20.8532 0)
(-95.6356 -27.2149 0)
(-129.562 -51.7465 0)
(-195.414 -65.9427 0)
(-262.246 -107.537 0)
(-286.048 -160.643 0)
(-246.913 -216.436 0)
(-145.436 -258.57 0)
(144.185 -253.559 0)
(29141.2 -297.433 0)
(-31812.4 -8475.26 0)
(28116.9 -6279.63 0)
(-25451.3 -11.8406 0)
(358.276 -73.3656 0)
(510.916 -167.05 0)
(528.663 -176.887 0)
(421.806 -155.587 0)
(261.202 -134.711 0)
(200.874 -74.1766 0)
(71.6008 -94.7777 0)
(-45.9916 -93.3853 0)
(-72.708 -67.2367 0)
(-117.912 -72.5643 0)
(-119.129 -72.6936 0)
(-89.9363 -62.4839 0)
(-65.878 -51.8722 0)
(-38.6599 -31.665 0)
(-25.2916 -12.8229 0)
(-18.9881 5.65684 0)
(-23.2972 20.3823 0)
(-26.7885 28.9405 0)
(-30.8379 31.1676 0)
(-47.373 27.5698 0)
(-61.4993 18.4979 0)
(-70.5646 9.721 0)
(-69.8374 -0.252538 0)
(-67.7374 -4.92375 0)
(-56.1618 -6.59236 0)
(-53.7319 -11.6391 0)
(-59.1219 -12.9477 0)
(-65.1657 -27.6447 0)
(-112.909 -30.0931 0)
(-149.203 -53.4188 0)
(-214.811 -66.4626 0)
(-294.33 -87.5791 0)
(-319.399 -122.533 0)
(-283.073 -137.891 0)
(-159.129 -148.962 0)
(158.111 -125.065 0)
(25847.3 -65.6437 0)
(-28487.9 -8008.72 0)
(25109.6 27998.1 0)
(-21998.5 2313.92 0)
(260.319 774.435 0)
(412.292 493.031 0)
(482.958 406.095 0)
(416.55 445.242 0)
(297.576 672.809 0)
(206.213 1107.61 0)
(62.5491 1553.18 0)
(-20.2399 2065.5 0)
(-65.6483 2504.43 0)
(-114.506 2814.26 0)
(-107.726 3064.21 0)
(-78.5287 3227.28 0)
(-51.547 3342.07 0)
(-20.5205 3407.79 0)
(-6.50482 3463.46 0)
(0.924881 3445.72 0)
(-8.58908 3469.16 0)
(-23.7228 3391.01 0)
(-36.0338 3388.9 0)
(-57.0034 3473.37 0)
(-72.0561 3454.91 0)
(-78.9978 3491.44 0)
(-74.1072 3427.19 0)
(-65.9843 3379.86 0)
(-55.6648 3266.88 0)
(-52.4225 3110.95 0)
(-61.9833 2908.39 0)
(-69.4529 2565.3 0)
(-120.472 2203.1 0)
(-164.609 1643.15 0)
(-228.332 1179.17 0)
(-316.277 772.62 0)
(-334.53 491.757 0)
(-272.38 335.997 0)
(-133.077 299.342 0)
(224.473 357.569 0)
(21544.3 1904.39 0)
(-24604.3 25083.7 0)
(55989 639130 0)
(-51685 56770.9 0)
(-1396.4 27036.6 0)
(155.97 31584.8 0)
(482.612 35151.7 0)
(678.822 39888.2 0)
(899.48 44327.4 0)
(1049.23 48629.9 0)
(994.666 52420.4 0)
(870.669 56039.1 0)
(648.823 59369.2 0)
(421.513 62281.1 0)
(278.871 64981.4 0)
(177.822 67255.8 0)
(108.065 69177.5 0)
(78.317 70797.7 0)
(11.2616 72167.2 0)
(-13.501 73326.1 0)
(-76.0202 73840.6 0)
(-104.128 74127.6 0)
(48.526 74089.1 0)
(16.2425 73656.3 0)
(-44.086 73154.4 0)
(-97.2814 71699.3 0)
(-177.352 70372.8 0)
(-222.215 68295.7 0)
(-315.301 66317.8 0)
(-399.189 63607.3 0)
(-584.93 60837.2 0)
(-744.808 57323.1 0)
(-1001.52 53706.8 0)
(-1135.9 49701.1 0)
(-1053.69 45422.8 0)
(-956.742 40834.2 0)
(-740.145 36090.9 0)
(-468.491 31116.7 0)
(-138.341 27463.2 0)
(1704.79 22612.6 0)
(49674.4 50136.4 0)
(-53048.2 585414 0)
(690321 -714051 0)
(-611834 -60837.7 0)
(-24009.9 -31825.6 0)
(8232.33 -36178.4 0)
(8484.39 -39982.2 0)
(9258.54 -45241.8 0)
(8721.4 -50159.9 0)
(8004.94 -55099.3 0)
(7202.38 -59394.7 0)
(6675.92 -63407.8 0)
(5949.35 -67040.4 0)
(5293.59 -70068.3 0)
(4686.05 -72798 0)
(3964.98 -75083.8 0)
(3361.57 -76988.9 0)
(2860.49 -78607.6 0)
(2430.01 -79992.5 0)
(1613.51 -81141.7 0)
(763.758 -81658.3 0)
(215.719 -81867.3 0)
(-490.224 -81793.6 0)
(-957.736 -81363.8 0)
(-1957.84 -80793.5 0)
(-2759.47 -79255.6 0)
(-3353.94 -77808.4 0)
(-3973.55 -75594.8 0)
(-4573.63 -73469.7 0)
(-5333.72 -70569.7 0)
(-6117.71 -67583.9 0)
(-6940.53 -63686.1 0)
(-7465.27 -59676.8 0)
(-8147.39 -54980.8 0)
(-8772.83 -50109.2 0)
(-9308.87 -44838.8 0)
(-9698.67 -39488.5 0)
(-8586.32 -34063.5 0)
(-8327.92 -30310.3 0)
(22073.2 -25876.8 0)
(563880 -53534.2 0)
(-631149 -656495 0)
(690321 714051 0)
(-611834 60837.7 0)
(-24009.9 31825.6 0)
(8232.33 36178.4 0)
(8484.39 39982.2 0)
(9258.54 45241.8 0)
(8721.4 50159.9 0)
(8004.94 55099.3 0)
(7202.38 59394.7 0)
(6675.92 63407.8 0)
(5949.35 67040.4 0)
(5293.59 70068.3 0)
(4686.05 72798 0)
(3964.98 75083.8 0)
(3361.57 76988.9 0)
(2860.49 78607.6 0)
(2430.01 79992.5 0)
(1613.51 81141.7 0)
(763.758 81658.3 0)
(215.719 81867.3 0)
(-490.224 81793.6 0)
(-957.736 81363.8 0)
(-1957.84 80793.5 0)
(-2759.47 79255.6 0)
(-3353.94 77808.4 0)
(-3973.55 75594.8 0)
(-4573.63 73469.7 0)
(-5333.72 70569.7 0)
(-6117.71 67583.9 0)
(-6940.53 63686.1 0)
(-7465.27 59676.8 0)
(-8147.39 54980.8 0)
(-8772.83 50109.2 0)
(-9308.87 44838.8 0)
(-9698.67 39488.5 0)
(-8586.32 34063.5 0)
(-8327.92 30310.3 0)
(22073.2 25876.8 0)
(563880 53534.2 0)
(-631149 656495 0)
(55989 -639130 0)
(-51685 -56770.9 0)
(-1396.4 -27036.6 0)
(155.97 -31584.8 0)
(482.612 -35151.7 0)
(678.822 -39888.2 0)
(899.48 -44327.4 0)
(1049.23 -48629.9 0)
(994.666 -52420.4 0)
(870.669 -56039.1 0)
(648.823 -59369.2 0)
(421.513 -62281.1 0)
(278.871 -64981.4 0)
(177.822 -67255.8 0)
(108.065 -69177.5 0)
(78.317 -70797.7 0)
(11.2616 -72167.2 0)
(-13.501 -73326.1 0)
(-76.0202 -73840.6 0)
(-104.128 -74127.6 0)
(48.526 -74089.1 0)
(16.2426 -73656.3 0)
(-44.086 -73154.4 0)
(-97.2814 -71699.3 0)
(-177.352 -70372.8 0)
(-222.215 -68295.7 0)
(-315.301 -66317.8 0)
(-399.189 -63607.3 0)
(-584.93 -60837.2 0)
(-744.808 -57323.1 0)
(-1001.52 -53706.8 0)
(-1135.9 -49701.1 0)
(-1053.69 -45422.8 0)
(-956.742 -40834.2 0)
(-740.145 -36090.9 0)
(-468.491 -31116.7 0)
(-138.341 -27463.2 0)
(1704.79 -22612.6 0)
(49674.4 -50136.4 0)
(-53048.2 -585414 0)
(25109.6 -27998.1 0)
(-21998.5 -2313.92 0)
(260.319 -774.435 0)
(412.292 -493.031 0)
(482.958 -406.095 0)
(416.55 -445.242 0)
(297.576 -672.809 0)
(206.213 -1107.61 0)
(62.5491 -1553.18 0)
(-20.2399 -2065.5 0)
(-65.6483 -2504.43 0)
(-114.506 -2814.26 0)
(-107.726 -3064.21 0)
(-78.5287 -3227.28 0)
(-51.547 -3342.07 0)
(-20.5205 -3407.79 0)
(-6.50482 -3463.46 0)
(0.924881 -3445.72 0)
(-8.58908 -3469.16 0)
(-23.7228 -3391.01 0)
(-36.0338 -3388.9 0)
(-57.0034 -3473.37 0)
(-72.0561 -3454.91 0)
(-78.9978 -3491.44 0)
(-74.1072 -3427.19 0)
(-65.9843 -3379.86 0)
(-55.6648 -3266.88 0)
(-52.4225 -3110.95 0)
(-61.9833 -2908.39 0)
(-69.4529 -2565.3 0)
(-120.472 -2203.1 0)
(-164.609 -1643.15 0)
(-228.332 -1179.17 0)
(-316.277 -772.62 0)
(-334.53 -491.757 0)
(-272.38 -335.997 0)
(-133.077 -299.342 0)
(224.473 -357.569 0)
(21544.3 -1904.39 0)
(-24604.3 -25083.7 0)
(28116.9 6279.63 0)
(-25451.3 11.8406 0)
(358.276 73.3656 0)
(510.916 167.05 0)
(528.663 176.887 0)
(421.806 155.587 0)
(261.202 134.711 0)
(200.874 74.1766 0)
(71.6008 94.7777 0)
(-45.9916 93.3853 0)
(-72.708 67.2367 0)
(-117.912 72.5643 0)
(-119.129 72.6936 0)
(-89.9363 62.4839 0)
(-65.878 51.8722 0)
(-38.6599 31.665 0)
(-25.2916 12.8229 0)
(-18.9881 -5.65684 0)
(-23.2972 -20.3823 0)
(-26.7885 -28.9405 0)
(-30.8379 -31.1676 0)
(-47.373 -27.5698 0)
(-61.4993 -18.4979 0)
(-70.5646 -9.721 0)
(-69.8374 0.252538 0)
(-67.7374 4.92375 0)
(-56.1618 6.59236 0)
(-53.7319 11.6391 0)
(-59.1219 12.9477 0)
(-65.1657 27.6447 0)
(-112.909 30.0931 0)
(-149.203 53.4188 0)
(-214.811 66.4626 0)
(-294.33 87.5791 0)
(-319.399 122.533 0)
(-283.073 137.891 0)
(-159.129 148.962 0)
(158.111 125.065 0)
(25847.3 65.6437 0)
(-28487.9 8008.72 0)
(30706.4 6443.13 0)
(-27979.1 246.919 0)
(409.884 270.975 0)
(512.049 299.636 0)
(471.913 269.52 0)
(375.908 178.725 0)
(219.126 167.16 0)
(167.732 124.38 0)
(81.0592 65.5409 0)
(-46.7793 88.8282 0)
(-85.7122 69.5991 0)
(-109.248 62.5919 0)
(-117.44 58.5255 0)
(-98.593 43.4169 0)
(-81.2452 27.8321 0)
(-58.1498 5.16509 0)
(-42.4695 -16.1496 0)
(-31.0728 -35.8476 0)
(-31.0261 -49.4481 0)
(-34.116 -58.2416 0)
(-34.7129 -63.4754 0)
(-44.7944 -61.1768 0)
(-54.8563 -52.4957 0)
(-60.9293 -41.6322 0)
(-59.9949 -28.2316 0)
(-59.875 -18.6708 0)
(-49.1936 -9.15924 0)
(-46.2983 -2.26594 0)
(-46.5598 6.96825 0)
(-52.9309 20.8532 0)
(-95.6356 27.2149 0)
(-129.562 51.7465 0)
(-195.414 65.9427 0)
(-262.246 107.537 0)
(-286.048 160.643 0)
(-246.913 216.436 0)
(-145.436 258.57 0)
(144.185 253.559 0)
(29141.2 297.433 0)
(-31812.4 8475.26 0)
(34438.1 7121.21 0)
(-31399 371.725 0)
(409.076 381.58 0)
(509.514 371.585 0)
(412.149 354.016 0)
(323.169 245.381 0)
(208.833 230.494 0)
(102.95 203.376 0)
(37.3422 128.484 0)
(-42.081 111.913 0)
(-97.9902 92.2451 0)
(-128.583 67.7941 0)
(-137.607 51.1299 0)
(-119.514 30.2712 0)
(-102.739 12.3206 0)
(-81.0423 -8.02916 0)
(-64.8129 -27.1298 0)
(-51.0758 -44.3445 0)
(-44.8769 -58.1183 0)
(-40.3057 -66.0527 0)
(-33.6664 -69.9234 0)
(-36.7925 -69.4805 0)
(-42.6654 -63.9505 0)
(-47.1829 -56.2015 0)
(-47.711 -46.1482 0)
(-49.3586 -38.484 0)
(-40.3535 -28.6976 0)
(-38.1909 -21.4528 0)
(-36.8434 -8.90919 0)
(-45.6552 6.04176 0)
(-83.1396 19.6848 0)
(-111.884 50.0314 0)
(-161.049 73.5546 0)
(-203.074 125.434 0)
(-214.46 174.472 0)
(-188.707 252.864 0)
(-123.356 303.236 0)
(195.561 319.333 0)
(33770.1 489.238 0)
(-36727.6 9838.71 0)
(37935 6500.51 0)
(-34473.6 357.888 0)
(409.749 375.142 0)
(485.487 335.4 0)
(350.298 349.111 0)
(256.878 301.446 0)
(178.648 262.131 0)