/*--------------------------------*- C++ -*----------------------------------*\
| =========                 |                                                 |
| \\      /  F ield         | OpenFOAM: The Open Source CFD Toolbox           |
|  \\    /   O peration     | Version:  v1912                                 |
|   \\  /    A nd           | Website:  www.openfoam.com                      |
|    \\/     M anipulation  |                                                 |
\*---------------------------------------------------------------------------*/
FoamFile
{
    version     2.0;
    format      ascii;
    class       volTensorField;
    location    "4.32";
    object      grad(U);
}
// * * * * * * * * * * * * * * * * * * * * * * * * * * * * * * * * * * * * * //

dimensions      [0 0 -1 0 0 0 0];


internalField   nonuniform List<tensor> 
1900
(
(-4.60236 -2.12642e-05 0 2.98724e-06 7.79266e-06 0 0 0 0)
(3.78881 -3.13692e-05 0 -2.27283e-05 -6.01848e-05 0 0 0 0)
(0.29669 -5.17241e-06 0 -0.000136918 -3.59355e-05 0 0 0 0)
(0.0906976 8.52725e-05 0 -0.000175815 -8.10415e-05 0 0 0 0)
(0.0912098 0.000490864 0 -0.000158579 8.19066e-05 0 0 0 0)
(0.0913092 0.00198832 0 5.12023e-05 0.000807107 0 0 0 0)
(0.0814655 0.00389881 0 0.00138824 0.00378673 0 0 0 0)
(0.0803382 -0.00115882 0 0.00562237 0.008147 0 0 0 0)
(0.0837968 0.00088682 0 0.00965958 0.00478935 0 0 0 0)
(0.103228 0.000926008 0 0.0186587 0.0168843 0 0 0 0)
(-4.60238 -3.11279e-05 0 4.03106e-06 -4.46237e-07 0 0 0 0)
(3.78867 -1.2359e-05 0 -4.23338e-05 2.17104e-05 0 0 0 0)
(0.296537 -1.56843e-05 0 -0.000218861 3.09229e-05 0 0 0 0)
(0.0906759 3.25696e-05 0 -0.000230778 2.68828e-05 0 0 0 0)
(0.0914368 0.000397285 0 -0.000111493 -5.43495e-05 0 0 0 0)
(0.0928561 0.00171651 0 0.000439193 -0.000463981 0 0 0 0)
(0.0870366 0.00344109 0 0.00286488 -0.00204267 0 0 0 0)
(0.0886096 0.00216143 0 0.00925181 -0.00436279 0 0 0 0)
(0.0968331 0.00785052 0 0.0156435 -0.000883851 0 0 0 0)
(0.11537 0.0115735 0 0.0279248 -0.00524961 0 0 0 0)
(-4.6024 1.1577e-13 0 -4.22839e-14 -1.46928e-05 0 0 0 0)
(3.78859 -2.99708e-13 0 -2.28225e-13 7.69487e-05 0 0 0 0)
(0.296501 -1.32139e-14 0 4.47233e-14 1.00251e-05 0 0 0 0)
(0.090805 3.39041e-13 0 1.93666e-13 0.000108317 0 0 0 0)
(0.0918798 -9.86012e-14 0 6.15285e-14 -5.51141e-05 0 0 0 0)
(0.0942856 -1.05945e-13 0 -1.58971e-13 -0.000686253 0 0 0 0)
(0.0902781 -2.57906e-14 0 -1.0632e-13 -0.00348813 0 0 0 0)
(0.0931169 -1.67743e-13 0 -1.61732e-13 -0.00756843 0 0 0 0)
(0.10247 -1.78985e-13 0 1.25403e-14 -0.00781099 0 0 0 0)
(0.120555 1.61574e-13 0 1.4447e-13 -0.0232695 0 0 0 0)
(-4.60238 3.11279e-05 0 -4.03106e-06 -4.46237e-07 0 0 0 0)
(3.78867 1.2359e-05 0 4.23338e-05 2.17104e-05 0 0 0 0)
(0.296537 1.56843e-05 0 0.000218861 3.09229e-05 0 0 0 0)
(0.0906759 -3.25696e-05 0 0.000230778 2.68828e-05 0 0 0 0)
(0.0914368 -0.000397285 0 0.000111493 -5.43495e-05 0 0 0 0)
(0.0928561 -0.00171651 0 -0.000439193 -0.000463981 0 0 0 0)
(0.0870366 -0.00344109 0 -0.00286488 -0.00204267 0 0 0 0)
(0.0886096 -0.00216143 0 -0.00925181 -0.00436279 0 0 0 0)
(0.0968331 -0.00785052 0 -0.0156435 -0.000883851 0 0 0 0)
(0.11537 -0.0115735 0 -0.0279248 -0.00524961 0 0 0 0)
(-4.60236 2.12642e-05 0 -2.98724e-06 7.79266e-06 0 0 0 0)
(3.78881 3.13692e-05 0 2.27283e-05 -6.01848e-05 0 0 0 0)
(0.29669 5.17241e-06 0 0.000136918 -3.59355e-05 0 0 0 0)
(0.0906976 -8.52725e-05 0 0.000175815 -8.10415e-05 0 0 0 0)
(0.0912098 -0.000490864 0 0.000158579 8.19066e-05 0 0 0 0)
(0.0913092 -0.00198832 0 -5.12023e-05 0.000807107 0 0 0 0)
(0.0814655 -0.00389881 0 -0.00138824 0.00378673 0 0 0 0)
(0.0803382 0.00115882 0 -0.00562237 0.008147 0 0 0 0)
(0.0837968 -0.00088682 0 -0.00965958 0.00478935 0 0 0 0)
(0.103228 -0.000926008 0 -0.0186587 0.0168843 0 0 0 0)
(0.129235 0.0623503 -8.02403e-18 0.0673896 -0.0534024 1.2036e-17 3.68309e-18 1.13394e-17 -2.17492e-33)
(0.195728 0.185254 0 0.107381 -0.124242 0 -3.43399e-17 -5.20005e-18 0)
(0.285793 0.354037 0 0.151349 -0.230121 0 -7.04693e-17 -1.70718e-17 0)
(0.539717 0.510019 0 0.204178 -0.443666 0 0 0 0)
(0.504223 0.731751 1.32133e-16 0.578578 -1.34765 -1.98199e-16 -7.08386e-16 -4.72257e-16 -3.58146e-32)
(0.151993 0.0157246 0 0.0346937 -0.00274752 0 1.58604e-17 1.68959e-18 0)
(0.233056 0.056313 0 0.0335285 -0.0258258 0 3.43399e-17 5.20005e-18 0)
(0.344033 0.128677 0 0.0439068 -0.108333 0 7.04693e-17 1.70718e-17 0)
(0.587807 0.2341 0 0.0608131 -0.335612 0 0 0 0)
(0.926766 0.105683 0 -0.0279156 -0.758322 0 0 0 0)
(0.160126 1.00969e-13 0 4.89806e-14 -0.0319058 0 0 0 0)
(0.248236 2.04054e-13 0 1.34857e-13 -0.0634573 0 0 0 0)
(0.377177 8.01828e-14 0 7.71741e-14 -0.161237 0 0 0 0)
(0.609505 -4.021e-14 0 -6.41692e-15 -0.407711 0 0 0 0)
(0.833115 1.59556e-13 0 7.66363e-14 -1.01501 0 0 0 0)
(0.151993 -0.0157246 0 -0.0346937 -0.00274752 0 1.58604e-17 -1.68959e-18 0)
(0.233056 -0.056313 0 -0.0335285 -0.0258258 0 3.43399e-17 -5.20005e-18 0)
(0.344033 -0.128677 0 -0.0439068 -0.108333 0 7.04693e-17 -1.70718e-17 0)
(0.587807 -0.2341 0 -0.0608131 -0.335612 0 0 0 0)
(0.926766 -0.105683 0 0.0279156 -0.758322 0 0 0 0)
(0.129235 -0.0623503 8.02403e-18 -0.0673896 -0.0534024 1.2036e-17 -3.54039e-17 1.47186e-17 -2.17492e-33)
(0.195728 -0.185254 0 -0.107381 -0.124242 0 -3.43399e-17 5.20005e-18 0)
(0.285793 -0.354037 0 -0.151349 -0.230121 0 -7.04693e-17 1.70718e-17 0)
(0.539717 -0.510019 3.75747e-17 -0.204178 -0.443666 5.63621e-17 -2.66479e-16 1.77653e-16 -1.01847e-32)
(0.504223 -0.731751 -1.32133e-16 -0.578578 -1.34765 -1.98199e-16 7.08386e-16 -4.72257e-16 -3.58146e-32)
(0.463458 -0.251524 -2.90784e-18 0.0530253 0.833612 -2.61706e-17 5.60973e-16 -3.70473e-17 7.88173e-34)
(0.107458 -0.0377572 8.86834e-19 0.116526 0.394115 7.98151e-18 -4.82024e-16 4.12988e-17 2.40377e-34)
(0.169976 0.0678196 0 0.00357201 0.365964 0 0 0 0)
(0.0944191 0.204142 -1.54758e-18 0.174505 0.516133 -1.39282e-17 4.23332e-16 -3.09087e-17 4.19472e-34)
(-0.405896 0.0485005 3.05315e-18 0.771318 1.02312 2.74783e-17 -1.85885e-16 2.06539e-17 8.27557e-34)
(0.530478 -0.222937 0 -0.0173883 0.0814476 0 -2.81285e-16 5.97079e-18 0)
(0.10357 -0.0118127 0 0.0704019 0.308842 0 2.42767e-16 -1.47147e-17 0)
(0.191916 0.0272309 0 -0.0394807 0.296308 0 0 0 0)
(0.387028 0.159019 0 0.164462 0.15437 0 -2.69105e-16 8.4405e-18 0)
(0.863837 0.140413 0 0.963205 -0.113299 0 5.95308e-17 1.68672e-18 0)
(0.487584 5.48676e-14 0 -8.21365e-15 0.233615 0 0 0 0)
(0.0857623 -2.11928e-15 0 2.33984e-13 0.359493 0 0 0 0)
(0.214437 -1.71132e-14 0 9.08521e-13 0.324305 0 0 0 0)
(0.512725 -2.17601e-14 0 1.49698e-12 0.201423 0 1.09623e-16 4.56061e-30 0)
(1.11583 5.05176e-13 0 1.61204e-12 -0.448049 0 -1.19062e-16 -7.0485e-30 0)
(0.530478 0.222937 0 0.0173883 0.0814476 0 -2.81285e-16 -5.97079e-18 0)
(0.10357 0.0118127 0 -0.0704019 0.308842 0 2.42767e-16 1.47147e-17 0)
(0.191916 -0.0272309 0 0.0394807 0.296308 0 0 0 0)
(0.387028 -0.159019 0 -0.164462 0.15437 0 -2.69105e-16 -8.4405e-18 0)
(0.863837 -0.140413 0 -0.963205 -0.113299 0 5.95308e-17 -1.68672e-18 0)
(0.463458 0.251524 0 -0.0530253 0.833612 0 2.81285e-16 5.97079e-18 0)
(0.107458 0.0377572 -8.86834e-19 -0.116526 0.394115 7.98151e-18 -3.50938e-18 1.18694e-17 2.40377e-34)
(0.169976 -0.0678196 0 -0.00357201 0.365964 0 0 0 0)
(0.0944191 -0.204142 1.54758e-18 -0.174505 0.516133 -1.39282e-17 5.25551e-18 -1.55442e-17 4.19472e-34)
(-0.405896 -0.0485005 -3.05315e-18 -0.771318 1.02312 2.74783e-17 1.85885e-16 2.06539e-17 8.27557e-34)
(0.133197 -0.564152 0 8.07302 0.508653 0 0 0 0)
(0.0376291 -0.594684 0 5.87774 0.88936 0 0 0 0)
(-1.28927 -0.0916376 0 3.89418 1.40928 0 0 0 0)
(-1.19382 0.355765 0 1.6962 1.29362 0 0 0 0)
(-0.646315 0.42084 0 0.506065 0.884219 0 0 0 0)
(-0.307917 0.208084 0 0.0690056 0.571896 0 0 0 0)
(-0.218312 0.0647284 0 0.0459306 0.449286 0 0 0 0)
(-0.170805 0.0271659 0 0.0348084 0.387529 0 0 0 0)
(-0.0625346 0.0198503 0 0.0154555 0.343695 0 0 0 0)
(0.0588837 0.0112045 0 0.000476671 0.31464 0 0 0 0)
(0.143378 0.00191184 0 -0.00293517 0.311031 0 0 0 0)
(0.18483 0.00222154 0 -0.00235897 0.306455 0 0 0 0)
(0.205576 0.00165583 0 -0.00224314 0.303283 0 0 0 0)
(0.220671 0.0013196 0 -0.00218226 0.300656 0 0 0 0)
(0.233608 0.000972035 0 -0.00206659 0.298706 0 0 0 0)
(0.24464 0.000730709 0 -0.00180345 0.297264 0 0 0 0)
(0.253766 0.000584525 0 -0.0014207 0.296147 0 0 0 0)
(0.261439 0.00049282 0 -0.000977365 0.295207 0 0 0 0)
(0.267444 9.14418e-06 0 -0.000509008 0.294418 0 0 0 0)
(0.27172 -6.63544e-05 0 -2.93918e-05 0.295159 0 0 0 0)
(0.275606 0.000567772 0 0.000461205 0.29464 0 0 0 0)
(0.278898 0.000413064 0 0.000947598 0.293204 0 0 0 0)
(0.28038 -2.68721e-05 0 0.001413 0.293224 0 0 0 0)
(0.280323 -5.67514e-05 0 0.00186184 0.293311 0 0 0 0)
(0.279195 -8.92957e-05 0 0.00228201 0.293437 0 0 0 0)
(0.277171 -0.00013587 0 0.00266094 0.293634 0 0 0 0)
(0.274628 -0.000169716 0 0.00299019 0.293921 0 0 0 0)
(0.271705 -0.000275095 0 0.00324279 0.294225 0 0 0 0)
(0.268421 -0.000162282 0 0.00344185 0.294895 0 0 0 0)
(0.263946 -0.000498525 0 0.00353344 0.294759 0 0 0 0)
(0.256429 0.000170707 0 0.00347914 0.296628 0 0 0 0)
(0.243855 -0.000601194 0 0.00327971 0.294257 0 0 0 0)
(0.223366 0.000221751 0 0.0024034 0.298689 0 0 0 0)
(0.200082 -0.000635374 0 0.00112109 0.293875 0 0 0 0)
(0.171984 -0.00028264 0 -0.000840757 0.300791 0 0 0 0)
(0.144762 -0.00215568 0 -0.00460884 0.294784 0 0 0 0)
(0.1067 -0.000366689 0 -0.00670843 0.307988 0 0 0 0)
(-0.0378507 -0.0109189 0 -0.0129047 0.295383 0 0 0 0)
(1.98577 -0.0200911 0 -0.00715204 0.349795 0 0 0 0)
(2.06281 -0.00551439 0 -0.0263717 0.36413 0 0 0 0)
(1.07399 -0.358633 0 4.27963 0.336644 0 0 0 0)
(-0.342307 -0.494203 0 4.0718 1.73512 0 0 0 0)
(-1.94681 -0.0588567 0 3.12808 2.38087 0 0 0 0)
(-1.75585 0.239247 0 1.52064 2.05013 0 0 0 0)
(-0.932378 0.268431 0 0.384997 1.15793 0 0 0 0)
(-0.38492 0.121691 0 -0.0209587 0.603493 0 0 0 0)
(-0.221804 0.0344841 0 -0.041144 0.442639 0 0 0 0)
(-0.170828 0.0127002 0 -0.0248289 0.380989 0 0 0 0)
(-0.0638472 0.00898084 0 -0.021075 0.349256 0 0 0 0)
(0.0581814 0.00549782 0 -0.0194173 0.312753 0 0 0 0)
(0.143486 0.000922452 0 -0.0199729 0.310741 0 0 0 0)
(0.185532 0.00115314 0 -0.0171179 0.306181 0 0 0 0)
(0.206251 0.000821203 0 -0.014457 0.303104 0 0 0 0)
(0.221338 0.000651235 0 -0.0121282 0.300489 0 0 0 0)
(0.234285 0.000481097 0 -0.0100413 0.298568 0 0 0 0)
(0.245338 0.000363557 0 -0.00806508 0.297148 0 0 0 0)
(0.254478 0.000291605 0 -0.00615568 0.296056 0 0 0 0)
(0.262155 0.000245942 0 -0.00430593 0.295139 0 0 0 0)
(0.268159 3.88266e-06 0 -0.0025096 0.294362 0 0 0 0)
(0.27243 -3.4462e-05 0 -0.000754406 0.295107 0 0 0 0)
(0.276308 0.000281785 0 0.000977212 0.29459 0 0 0 0)
(0.279589 0.000204075 0 0.00269463 0.293156 0 0 0 0)
(0.281055 -1.57874e-05 0 0.00440735 0.29317 0 0 0 0)
(0.28098 -3.09382e-05 0 0.00613169 0.293248 0 0 0 0)
(0.279828 -4.76736e-05 0 0.00787921 0.293366 0 0 0 0)
(0.277777 -7.08428e-05 0 0.00966594 0.293555 0 0 0 0)
(0.2752 -8.68441e-05 0 0.0115163 0.293833 0 0 0 0)
(0.27224 -0.000136381 0 0.0134607 0.294138 0 0 0 0)
(0.268909 -7.57566e-05 0 0.0155665 0.294778 0 0 0 0)
(0.264373 -0.000233765 0 0.0178897 0.294696 0 0 0 0)
(0.256782 0.000120558 0 0.0205158 0.296492 0 0 0 0)
(0.244086 -0.000237293 0 0.0236424 0.294109 0 0 0 0)
(0.223439 0.000203438 0 0.0274557 0.298559 0 0 0 0)
(0.199973 -0.000200439 0 0.0317567 0.293347 0 0 0 0)
(0.171505 7.18067e-07 0 0.037354 0.300743 0 0 0 0)
(0.144341 -0.000909646 0 0.0421751 0.294319 0 0 0 0)
(0.106201 4.17056e-05 0 0.0500787 0.308153 0 0 0 0)
(-0.0376694 -0.00627057 0 0.0532532 0.295579 0 0 0 0)
(1.98482 -0.00466351 0 0.0521825 0.345686 0 0 0 0)
(2.06122 0.0035701 0 0.0683638 0.364642 0 0 0 0)
(1.26416 8.99343e-13 0 2.14869e-12 -0.480367 0 0 0 0)
(-0.297369 4.72222e-13 0 2.15658e-12 2.05184 0 0 0 0)
(-2.03143 -4.78938e-12 0 -9.98649e-12 2.91728 0 0 0 0)
(-1.9918 -1.1217e-11 0 -3.22735e-11 2.45648 0 0 0 0)
(-1.09478 -9.72499e-12 0 -3.16277e-11 1.27245 0 0 0 0)
(-0.431885 4.70509e-12 0 -1.67312e-11 0.611017 0 0 0 0)
(-0.219438 1.35358e-11 0 -2.8965e-11 0.435828 0 0 0 0)
(-0.164967 8.20123e-12 0 -6.17571e-11 0.373939 0 0 0 0)
(-0.0609603 1.58803e-12 0 -8.34027e-11 0.348514 0 0 0 0)
(0.0592043 -1.14946e-12 0 -6.99921e-11 0.312196 0 0 0 0)
(0.144047 -2.65746e-12 0 -4.63664e-11 0.310717 0 0 0 0)
(0.186435 -3.08032e-12 0 -4.07483e-11 0.305854 0 0 0 0)
(0.207028 4.87307e-12 0 -5.79339e-11 0.302789 0 0 0 0)
(0.221956 1.91532e-11 0 -9.42093e-11 0.300208 0 0 0 0)
(0.23479 3.47713e-11 0 -1.31322e-10 0.298312 0 0 0 0)
(0.245771 3.07692e-11 0 -1.44044e-10 0.296901 0 0 0 0)
(0.254859 -2.07549e-11 0 -1.18271e-10 0.295812 0 0 0 0)
(0.262499 -9.98797e-11 0 -6.6143e-11 0.294896 0 0 0 0)
(0.268478 -7.33889e-11 0 -1.47782e-11 0.294121 0 0 0 0)
(0.272735 5.04821e-11 0 2.53131e-11 0.294869 0 0 0 0)
(0.276609 1.07525e-10 0 5.81419e-11 0.294358 0 0 0 0)
(0.279896 -3.316e-12 0 8.56426e-11 0.292932 0 0 0 0)
(0.28138 -1.45632e-10 0 8.73966e-11 0.292955 0 0 0 0)
(0.281333 -1.00692e-10 0 4.38934e-11 0.29304 0 0 0 0)
(0.280223 4.4443e-11 0 -2.18841e-11 0.293168 0 0 0 0)
(0.278229 1.13698e-10 0 -6.6637e-11 0.293368 0 0 0 0)
(0.275732 1.00266e-10 0 -8.79702e-11 0.293655 0 0 0 0)
(0.272884 2.34363e-11 0 -1.23115e-10 0.293965 0 0 0 0)
(0.26971 -1.69815e-11 0 -2.15791e-10 0.294592 0 0 0 0)
(0.265386 -2.67712e-11 0 -3.66608e-10 0.294486 0 0 0 0)
(0.258102 -3.07675e-11 0 -5.39465e-10 0.2962 0 0 0 0)
(0.245874 5.07846e-11 0 -6.78502e-10 0.293657 0 0 0 0)
(0.225726 -2.23173e-11 0 -7.26136e-10 0.297831 0 0 0 0)
(0.202962 -5.13169e-11 0 -6.8523e-10 0.292259 0 0 0 0)
(0.175015 7.91558e-11 0 -5.33023e-10 0.299209 0 0 0 0)
(0.148464 -1.93039e-11 0 -3.5236e-10 0.292254 0 0 0 0)
(0.109923 -8.36044e-11 0 -3.00304e-10 0.305463 0 0 0 0)
(-0.0372387 -2.77206e-11 0 -3.93863e-10 0.291967 0 0 0 0)
(1.99017 -2.39875e-11 0 -2.14165e-10 0.348573 0 0 0 0)
(2.06751 -5.32987e-12 0 2.74441e-11 0.324029 0 0 0 0)
(1.07399 0.358633 0 -4.27963 0.336644 0 0 0 0)
(-0.342307 0.494203 0 -4.0718 1.73512 0 0 0 0)
(-1.94681 0.0588567 0 -3.12808 2.38087 0 0 0 0)
(-1.75585 -0.239247 0 -1.52064 2.05013 0 0 0 0)
(-0.932378 -0.268431 0 -0.384997 1.15793 0 0 0 0)
(-0.38492 -0.121691 0 0.0209587 0.603493 0 0 0 0)
(-0.221804 -0.0344841 0 0.041144 0.442639 0 0 0 0)
(-0.170828 -0.0127002 0 0.0248289 0.380989 0 0 0 0)
(-0.0638472 -0.00898084 0 0.021075 0.349256 0 0 0 0)
(0.0581814 -0.00549782 0 0.0194173 0.312753 0 0 0 0)
(0.143486 -0.000922452 0 0.0199729 0.310741 0 0 0 0)
(0.185532 -0.00115314 0 0.0171179 0.306181 0 0 0 0)
(0.206251 -0.000821203 0 0.014457 0.303104 0 0 0 0)
(0.221338 -0.000651235 0 0.0121282 0.300489 0 0 0 0)
(0.234285 -0.000481097 0 0.0100413 0.298568 0 0 0 0)
(0.245338 -0.000363557 0 0.00806508 0.297148 0 0 0 0)
(0.254478 -0.000291605 0 0.00615568 0.296056 0 0 0 0)
(0.262155 -0.000245942 0 0.00430593 0.295139 0 0 0 0)
(0.268159 -3.88281e-06 0 0.0025096 0.294362 0 0 0 0)
(0.27243 3.44621e-05 0 0.000754406 0.295107 0 0 0 0)
(0.276308 -0.000281785 0 -0.000977212 0.29459 0 0 0 0)
(0.279589 -0.000204075 0 -0.00269463 0.293156 0 0 0 0)
(0.281055 1.57871e-05 0 -0.00440735 0.29317 0 0 0 0)
(0.28098 3.0938e-05 0 -0.00613169 0.293248 0 0 0 0)
(0.279828 4.76736e-05 0 -0.00787921 0.293366 0 0 0 0)
(0.277777 7.0843e-05 0 -0.00966594 0.293555 0 0 0 0)
(0.2752 8.68443e-05 0 -0.0115163 0.293833 0 0 0 0)
(0.27224 0.000136381 0 -0.0134607 0.294138 0 0 0 0)
(0.268909 7.57566e-05 0 -0.0155665 0.294778 0 0 0 0)
(0.264373 0.000233765 0 -0.0178897 0.294696 0 0 0 0)
(0.256782 -0.000120558 0 -0.0205158 0.296492 0 0 0 0)
(0.244086 0.000237293 0 -0.0236424 0.294109 0 0 0 0)
(0.223439 -0.000203438 0 -0.0274557 0.298559 0 0 0 0)
(0.199973 0.000200439 0 -0.0317567 0.293347 0 0 0 0)
(0.171505 -7.17918e-07 0 -0.037354 0.300743 0 0 0 0)
(0.144341 0.000909646 0 -0.0421751 0.294319 0 0 0 0)
(0.106201 -4.17058e-05 0 -0.0500787 0.308153 0 0 0 0)
(-0.0376694 0.00627057 0 -0.0532532 0.295579 0 0 0 0)
(1.98482 0.00466351 0 -0.0521825 0.345686 0 0 0 0)
(2.06122 -0.0035701 0 -0.0683638 0.364642 0 0 0 0)
(0.133197 0.564152 0 -8.07302 0.508653 0 0 0 0)
(0.0376291 0.594684 0 -5.87774 0.88936 0 0 0 0)
(-1.28927 0.0916376 0 -3.89418 1.40928 0 0 0 0)
(-1.19382 -0.355765 0 -1.6962 1.29362 0 0 0 0)
(-0.646315 -0.42084 0 -0.506065 0.884219 0 0 0 0)
(-0.307917 -0.208084 0 -0.0690056 0.571896 0 0 0 0)
(-0.218312 -0.0647284 0 -0.0459306 0.449286 0 0 0 0)
(-0.170805 -0.0271659 0 -0.0348084 0.387529 0 0 0 0)
(-0.0625346 -0.0198503 0 -0.0154555 0.343695 0 0 0 0)
(0.0588837 -0.0112045 0 -0.000476671 0.31464 0 0 0 0)
(0.143378 -0.00191184 0 0.00293517 0.311031 0 0 0 0)
(0.18483 -0.00222154 0 0.00235897 0.306455 0 0 0 0)
(0.205576 -0.00165583 0 0.00224314 0.303283 0 0 0 0)
(0.220671 -0.0013196 0 0.00218226 0.300656 0 0 0 0)
(0.233608 -0.000972035 0 0.00206659 0.298706 0 0 0 0)
(0.24464 -0.000730709 0 0.00180345 0.297264 0 0 0 0)
(0.253766 -0.000584525 0 0.0014207 0.296147 0 0 0 0)
(0.261439 -0.00049282 0 0.000977365 0.295207 0 0 0 0)
(0.267444 -9.14432e-06 0 0.000509008 0.294418 0 0 0 0)
(0.27172 6.63545e-05 0 2.93916e-05 0.295159 0 0 0 0)
(0.275606 -0.000567772 0 -0.000461205 0.29464 0 0 0 0)
(0.278898 -0.000413064 0 -0.000947599 0.293204 0 0 0 0)
(0.28038 2.68718e-05 0 -0.001413 0.293224 0 0 0 0)
(0.280323 5.67512e-05 0 -0.00186184 0.293311 0 0 0 0)
(0.279195 8.92957e-05 0 -0.00228201 0.293437 0 0 0 0)
(0.277171 0.00013587 0 -0.00266094 0.293634 0 0 0 0)
(0.274628 0.000169717 0 -0.00299019 0.293921 0 0 0 0)
(0.271705 0.000275095 0 -0.00324279 0.294225 0 0 0 0)
(0.268421 0.000162282 0 -0.00344185 0.294895 0 0 0 0)
(0.263946 0.000498525 0 -0.00353344 0.294759 0 0 0 0)
(0.256429 -0.000170707 0 -0.00347914 0.296628 0 0 0 0)
(0.243855 0.000601194 0 -0.00327971 0.294257 0 0 0 0)
(0.223366 -0.000221751 0 -0.0024034 0.298689 0 0 0 0)
(0.200082 0.000635374 0 -0.00112109 0.293875 0 0 0 0)
(0.171984 0.00028264 0 0.000840758 0.300791 0 0 0 0)
(0.144762 0.00215568 0 0.00460884 0.294784 0 0 0 0)
(0.1067 0.000366688 0 0.00670843 0.307988 0 0 0 0)
(-0.0378507 0.0109189 0 0.0129047 0.295383 0 0 0 0)
(1.98577 0.0200911 0 0.00715204 0.349795 0 0 0 0)
(2.06281 0.00551439 0 0.0263717 0.36413 0 0 0 0)
(1.80702 0.562601 0 -5.87314 0.0782678 0 0 0 0)
(1.83966 0.942961 0 -3.81504 0.604763 0 0 0 0)
(-0.0841289 0.274534 0 -2.60129 0.754805 0 0 0 0)
(-0.280434 -0.43388 0 -1.1725 0.691128 0 0 0 0)
(-0.242444 -0.544925 0 -0.473358 0.601652 0 0 0 0)
(-0.185324 -0.294621 0 -0.192717 0.515807 0 0 0 0)
(-0.20439 -0.115163 0 -0.139945 0.435939 0 0 0 0)
(-0.151737 -0.0622081 0 -0.0882161 0.376539 0 0 0 0)
(-0.0438296 -0.0421344 0 -0.0452223 0.33354 0 0 0 0)
(0.0689053 -0.0193892 0 -0.0203443 0.315726 0 0 0 0)
(0.145389 -0.00491267 0 -0.0131163 0.310559 0 0 0 0)
(0.18591 -0.00477769 0 -0.0116497 0.305458 0 0 0 0)
(0.20692 -0.0034936 0 -0.00989585 0.302258 0 0 0 0)
(0.221997 -0.00274933 0 -0.0081087 0.299778 0 0 0 0)
(0.23483 -0.00204167 0 -0.00646086 0.297902 0 0 0 0)
(0.245739 -0.00154459 0 -0.00509043 0.296496 0 0 0 0)
(0.254782 -0.00124304 0 -0.00393743 0.295384 0 0 0 0)
(0.262411 -0.00104511 0 -0.00290103 0.294443 0 0 0 0)
(0.26839 -2.81194e-05 0 -0.00192343 0.293661 0 0 0 0)
(0.272642 0.00013695 0 -0.00098263 0.294419 0 0 0 0)
(0.276507 -0.00117723 0 -8.3772e-05 0.293915 0 0 0 0)
(0.27979 -0.000850375 0 0.000786234 0.292489 0 0 0 0)
(0.281262 7.01057e-05 0 0.00165065 0.292523 0 0 0 0)
(0.281194 0.000134466 0 0.00248994 0.292627 0 0 0 0)
(0.28006 0.000201913 0 0.00331304 0.292769 0 0 0 0)
(0.278034 0.000299669 0 0.00412637 0.292979 0 0 0 0)
(0.275496 0.000362256 0 0.00492666 0.293282 0 0 0 0)
(0.272576 0.00058674 0 0.00572835 0.293578 0 0 0 0)
(0.269291 0.000310221 0 0.00647216 0.294281 0 0 0 0)
(0.264843 0.00101483 0 0.00715645 0.294035 0 0 0 0)
(0.25735 -0.000377239 0 0.00783633 0.295972 0 0 0 0)
(0.245027 0.00110925 0 0.0083729 0.293472 0 0 0 0)
(0.224877 -0.000421688 0 0.00958412 0.297571 0 0 0 0)
(0.201882 0.00101605 0 0.0109851 0.293082 0 0 0 0)
(0.174546 0.000241945 0 0.0125356 0.298828 0 0 0 0)
(0.147535 0.0039832 0 0.0158008 0.29336 0 0 0 0)
(0.110828 -0.000138324 0 0.0170459 0.304617 0 0 0 0)
(-0.0371814 0.0271207 0 0.0253363 0.292461 0 0 0 0)
(1.99216 0.0299482 0 0.0147717 0.364259 0 0 0 0)
(2.07145 -0.00508249 0 -0.00754916 0.334618 0 0 0 0)
(1.91014 0.830652 0 -1.52419 0.257041 0 0 0 0)
(2.22419 1.05986 0 -1.60799 0.476737 0 0 0 0)
(0.61094 0.0767862 0 -1.26223 0.332278 0 0 0 0)
(0.366953 -0.461461 0 -0.744187 0.267504 0 0 0 0)
(0.0812696 -0.523246 0 -0.411682 0.368946 0 0 0 0)
(-0.0523662 -0.321367 0 -0.280038 0.427877 0 0 0 0)
(-0.125077 -0.171888 0 -0.180159 0.395861 0 0 0 0)
(-0.0897512 -0.10705 0 -0.0998263 0.353437 0 0 0 0)
(-0.00716105 -0.0665023 0 -0.0501125 0.324755 0 0 0 0)
(0.0844482 -0.0289605 0 -0.0219954 0.316804 0 0 0 0)
(0.150679 -0.0101968 0 -0.0111073 0.309278 0 0 0 0)
(0.187354 -0.00885025 0 -0.00824646 0.304022 0 0 0 0)
(0.208268 -0.00614438 0 -0.00650531 0.300802 0 0 0 0)
(0.22327 -0.00475092 0 -0.00494771 0.298509 0 0 0 0)
(0.235862 -0.00356091 0 -0.00365646 0.296727 0 0 0 0)
(0.246483 -0.00271992 0 -0.00275568 0.295371 0 0 0 0)
(0.25533 -0.0022098 0 -0.00215095 0.294271 0 0 0 0)
(0.262858 -0.00185728 0 -0.00169954 0.293335 0 0 0 0)
(0.268786 -2.22876e-05 0 -0.00132059 0.29257 0 0 0 0)
(0.272999 0.000272812 0 -0.000983093 0.293355 0 0 0 0)
(0.276827 -0.00210018 0 -0.000697231 0.292865 0 0 0 0)
(0.280092 -0.00151937 0 -0.000445555 0.291439 0 0 0 0)
(0.281549 0.000136257 0 -0.000192573 0.291476 0 0 0 0)
(0.281458 0.000251372 0 2.8284e-05 0.29159 0 0 0 0)
(0.280308 0.000368188 0 0.000229868 0.291742 0 0 0 0)
(0.278264 0.000543209 0 0.000419648 0.291964 0 0 0 0)
(0.275706 0.000643615 0 0.000582641 0.292291 0 0 0 0)
(0.272728 0.00107053 0 0.000732196 0.292577 0 0 0 0)
(0.269331 0.000523289 0 0.000752705 0.293378 0 0 0 0)
(0.26478 0.00185082 0 0.000627182 0.293004 0 0 0 0)
(0.257107 -0.0006029 0 0.000438665 0.295173 0 0 0 0)
(0.244911 0.00186979 0 -6.67275e-05 0.292707 0 0 0 0)
(0.225072 -0.000489551 0 0.000196331 0.296584 0 0 0 0)
(0.201961 0.00164241 0 0.000719256 0.293077 0 0 0 0)
(0.175251 0.000572312 0 0.000921026 0.297841 0 0 0 0)
(0.147622 0.00675456 0 0.00294283 0.294127 0 0 0 0)
(0.113675 -0.000228753 0 0.00224609 0.30267 0 0 0 0)
(-0.0404012 0.0597036 0 0.0106113 0.29449 0 0 0 0)
(1.95066 0.0554285 0 0.00741274 0.360097 0 0 0 0)
(2.03667 -0.0173666 0 -0.00371204 0.368006 0 0 0 0)
(1.72627 0.774308 0 -0.263167 0.37841 0 0 0 0)
(2.0921 1.01546 0 -0.539475 0.136003 0 0 0 0)
(0.748262 0.0729102 0 -0.499184 0.0944922 0 0 0 0)
(0.539187 -0.398545 0 -0.440995 0.107516 0 0 0 0)
(0.204827 -0.390384 0 -0.327199 0.252434 0 0 0 0)
(0.03778 -0.268685 0 -0.2927 0.332065 0 0 0 0)
(-0.0307312 -0.186896 0 -0.178772 0.346432 0 0 0 0)
(-0.0264203 -0.130728 0 -0.115376 0.326274 0 0 0 0)
(0.0311712 -0.0774348 0 -0.0617476 0.316973 0 0 0 0)
(0.106492 -0.0343035 0 -0.0301684 0.315009 0 0 0 0)
(0.158638 -0.0172297 0 -0.0162147 0.307258 0 0 0 0)
(0.190345 -0.012946 0 -0.0110796 0.302382 0 0 0 0)
(0.210098 -0.00880666 0 -0.00827484 0.299205 0 0 0 0)
(0.224743 -0.00667567 0 -0.00612747 0.297075 0 0 0 0)
(0.236942 -0.00506519 0 -0.0045249 0.295337 0 0 0 0)
(0.24719 -0.0039113 0 -0.00344041 0.293982 0 0 0 0)
(0.2558 -0.00320557 0 -0.00271237 0.292854 0 0 0 0)
(0.263211 -0.0026844 0 -0.0021626 0.291894 0 0 0 0)
(0.26908 -8.9562e-06 0 -0.00169869 0.291133 0 0 0 0)
(0.273243 0.000420886 0 -0.00129074 0.291944 0 0 0 0)
(0.277025 -0.00302279 0 -0.000952884 0.291464 0 0 0 0)
(0.280276 -0.00218859 0 -0.000656225 0.29003 0 0 0 0)
(0.281719 0.000215294 0 -0.000348967 0.290071 0 0 0 0)
(0.281601 0.000390688 0 -8.01119e-05 0.290209 0 0 0 0)
(0.280437 0.00056216 0 0.00016986 0.290389 0 0 0 0)
(0.278374 0.000828551 0 0.000417331 0.290645 0 0 0 0)
(0.275797 0.000953521 0 0.000635699 0.291033 0 0 0 0)
(0.27274 0.00163466 0 0.00084837 0.291307 0 0 0 0)
(0.26919 0.000721402 0 0.000878289 0.292291 0 0 0 0)
(0.26454 0.00274447 0 0.000727118 0.291685 0 0 0 0)
(0.256681 -0.00066375 0 0.000562416 0.294199 0 0 0 0)
(0.244794 0.00246905 0 -3.18239e-05 0.291805 0 0 0 0)
(0.225635 -6.53591e-05 0 0.000398918 0.295237 0 0 0 0)
(0.202581 0.00222718 0 0.00144172 0.293109 0 0 0 0)
(0.176689 0.00125428 0 0.00192201 0.296524 0 0 0 0)
(0.148812 0.0086364 0 0.00419116 0.294942 0 0 0 0)
(0.118218 0.000211626 0 0.00360482 0.299787 0 0 0 0)
(-0.0322026 0.0824592 0 0.0114626 0.296045 0 0 0 0)
(1.97836 0.100791 0 0.0054567 0.339504 0 0 0 0)
(2.06073 0.00253932 0 -0.0146127 0.347951 0 0 0 0)
(1.64388 0.59706 0 -0.0343033 0.499423 0 0 0 0)
(1.99676 0.786269 0 -0.152725 0.161913 0 0 0 0)
(0.705838 0.0493349 0 -0.185033 0.0680163 0 0 0 0)
(0.532684 -0.309263 0 -0.278514 0.105697 0 0 0 0)
(0.224172 -0.306862 0 -0.255512 0.23931 0 0 0 0)
(0.090664 -0.230787 0 -0.259007 0.274308 0 0 0 0)
(0.0457986 -0.177469 0 -0.1715 0.301466 0 0 0 0)
(0.0230174 -0.135438 0 -0.120964 0.303587 0 0 0 0)
(0.0749478 -0.0773577 0 -0.0670156 0.309087 0 0 0 0)
(0.128325 -0.038323 0 -0.0371692 0.308779 0 0 0 0)
(0.169073 -0.022365 0 -0.0220385 0.303369 0 0 0 0)
(0.195005 -0.0166099 0 -0.0151553 0.299599 0 0 0 0)
(0.21304 -0.0112584 0 -0.0111232 0.296799 0 0 0 0)
(0.226884 -0.00847878 0 -0.00822716 0.294891 0 0 0 0)
(0.238451 -0.00654116 0 -0.00620247 0.293216 0 0 0 0)
(0.248229 -0.00511197 0 -0.00481672 0.291863 0 0 0 0)
(0.256562 -0.00422217 0 -0.00382489 0.290714 0 0 0 0)
(0.263835 -0.00351609 0 -0.00302983 0.289733 0 0 0 0)
(0.269626 2.64414e-05 0 -0.00233705 0.288986 0 0 0 0)
(0.273718 0.000591849 0 -0.00172483 0.289839 0 0 0 0)
(0.277438 -0.00394493 0 -0.00120841 0.289371 0 0 0 0)
(0.280674 -0.0028613 0 -0.000745135 0.28792 0 0 0 0)
(0.282104 0.000309083 0 -0.000264609 0.287965 0 0 0 0)
(0.281958 0.000557333 0 0.000169428 0.288133 0 0 0 0)
(0.280787 0.000787801 0 0.000586616 0.288347 0 0 0 0)
(0.278713 0.00116431 0 0.00101166 0.288638 0 0 0 0)
(0.276122 0.00128171 0 0.00140308 0.289101 0 0 0 0)
(0.272962 0.00228209 0 0.00180057 0.289319 0 0 0 0)
(0.269214 0.000888146 0 0.00195129 0.290526 0 0 0 0)
(0.264476 0.00368967 0 0.00189425 0.289573 0 0 0 0)
(0.256375 -0.000487331 0 0.00196376 0.292414 0 0 0 0)
(0.244753 0.00286984 0 0.0015434 0.290192 0 0 0 0)
(0.226492 0.000766574 0 0.00225242 0.292978 0 0 0 0)
(0.203429 0.00288279 0 0.00399724 0.292038 0 0 0 0)
(0.1779 0.00233907 0 0.00514157 0.294234 0 0 0 0)
(0.149244 0.00989872 0 0.00774877 0.294496 0 0 0 0)
(0.120682 0.000834325 0 0.00774895 0.296346 0 0 0 0)
(-0.0386166 0.0979765 0 0.0156109 0.295521 0 0 0 0)
(1.92553 0.105447 0 -0.00133649 0.336572 0 0 0 0)
(2.01733 -0.00922669 0 -0.0485113 0.346911 0 0 0 0)
(1.61215 0.449072 0 0.0418585 0.440194 0 0 0 0)
(1.94685 0.599743 0 -0.0289604 0.157592 0 0 0 0)
(0.627048 0.0187382 0 -0.0754066 0.0896332 0 0 0 0)
(0.471271 -0.23348 0 -0.20043 0.115471 0 0 0 0)
(0.223625 -0.227904 0 -0.213182 0.231276 0 0 0 0)
(0.118737 -0.208789 0 -0.195797 0.253524 0 0 0 0)
(0.102292 -0.158681 0 -0.161753 0.269871 0 0 0 0)
(0.0742647 -0.123384 0 -0.105937 0.290914 0 0 0 0)
(0.111918 -0.0724322 0 -0.0650787 0.30103 0 0 0 0)
(0.149834 -0.0398127 0 -0.0387402 0.302362 0 0 0 0)
(0.179852 -0.0260759 0 -0.025038 0.298626 0 0 0 0)
(0.200863 -0.0192773 0 -0.0176208 0.29611 0 0 0 0)
(0.216775 -0.0133431 0 -0.0130064 0.29383 0 0 0 0)
(0.229484 -0.0101284 0 -0.00976294 0.29212 0 0 0 0)
(0.240228 -0.00798276 0 -0.00754104 0.2905 0 0 0 0)
(0.249481 -0.00632255 0 -0.00597465 0.28914 0 0 0 0)
(0.257522 -0.0052581 0 -0.00478453 0.28797 0 0 0 0)
(0.264645 -0.00434921 0 -0.00378763 0.286971 0 0 0 0)
(0.270338 9.25284e-05 0 -0.0029004 0.286245 0 0 0 0)
(0.274331 0.000791503 0 -0.00212139 0.287154 0 0 0 0)
(0.277969 -0.00487152 0 -0.00146698 0.286701 0 0 0 0)
(0.281185 -0.00354312 0 -0.000881376 0.285226 0 0 0 0)
(0.2826 0.000420141 0 -0.000275175 0.285277 0 0 0 0)
(0.282421 0.000758711 0 0.000268477 0.285486 0 0 0 0)
(0.281249 0.00104885 0 0.000786916 0.285746 0 0 0 0)
(0.27916 0.00155509 0 0.00130879 0.286082 0 0 0 0)
(0.276557 0.00160943 0 0.00174914 0.286649 0 0 0 0)
(0.273268 0.00300783 0 0.00217923 0.286775 0 0 0 0)
(0.26928 0.00096665 0 0.00223393 0.288329 0 0 0 0)
(0.264552 0.0045633 0 0.00192716 0.286976 0 0 0 0)
(0.256343 -6.7281e-05 0 0.00177174 0.290092 0 0 0 0)
(0.245072 0.00301298 0 0.00097074 0.288139 0 0 0 0)
(0.227999 0.00171382 0 0.00113973 0.290272 0 0 0 0)
(0.205365 0.00343768 0 0.00208404 0.290263 0 0 0 0)
(0.180304 0.00362246 0 0.00227402 0.291245 0 0 0 0)
(0.151324 0.0106712 0 0.00279546 0.293148 0 0 0 0)
(0.125794 0.00119933 0 0.000593312 0.292356 0 0 0 0)
(-0.0409577 0.121223 0 0.00385594 0.29408 0 0 0 0)
(1.91657 0.150312 0 -0.0100856 0.333552 0 0 0 0)
(2.01527 0.0125025 0 -0.0528699 0.34912 0 0 0 0)
(1.57564 0.324734 0 0.0167529 0.397755 0 0 0 0)
(1.88376 0.448456 0 -0.00938086 0.165785 0 0 0 0)
(0.540604 0.00874613 0 -0.0631278 0.113794 0 0 0 0)
(0.399919 -0.172771 0 -0.168933 0.142962 0 0 0 0)
(0.228637 -0.17383 0 -0.197162 0.210867 0 0 0 0)
(0.140223 -0.193595 0 -0.159278 0.240586 0 0 0 0)
(0.13239 -0.141439 0 -0.147043 0.256161 0 0 0 0)
(0.116176 -0.105412 0 -0.0999859 0.280241 0 0 0 0)
(0.139701 -0.0663266 0 -0.0651809 0.293045 0 0 0 0)
(0.16691 -0.0406397 0 -0.0424735 0.294741 0 0 0 0)
(0.189425 -0.0283889 0 -0.0290557 0.293004 0 0 0 0)
(0.2066 -0.0212313 0 -0.0208188 0.291657 0 0 0 0)
(0.220612 -0.015104 0 -0.0154277 0.290045 0 0 0 0)
(0.23215 -0.0116881 0 -0.0117206 0.288614 0 0 0 0)
(0.242102 -0.00941302 0 -0.00917658 0.287131 0 0 0 0)
(0.250886 -0.00754973 0 -0.00732549 0.285825 0 0 0 0)
(0.258669 -0.00631178 0 -0.00586209 0.284682 0 0 0 0)
(0.265651 -0.0051784 0 -0.00461115 0.283692 0 0 0 0)
(0.271232 0.000202969 0 -0.00349029 0.283012 0 0 0 0)
(0.275099 0.00103144 0 -0.00251838 0.284006 0 0 0 0)
(0.278633 -0.00580292 0 -0.00170425 0.283574 0 0 0 0)
(0.281822 -0.00423404 0 -0.000975322 0.282064 0 0 0 0)
(0.283212 0.000559051 0 -0.00021554 0.28211 0 0 0 0)
(0.282981 0.00100932 0 0.000479402 0.28235 0 0 0 0)
(0.28179 0.00136221 0 0.00116149 0.282623 0 0 0 0)
(0.27964 0.00203441 0 0.0018927 0.282949 0 0 0 0)
(0.27696 0.0019501 0 0.00257457 0.283588 0 0 0 0)
(0.273429 0.00390125 0 0.00333291 0.283435 0 0 0 0)
(0.268971 0.00108181 0 0.00378957 0.285288 0 0 0 0)
(0.26403 0.00538844 0 0.00401195 0.283321 0 0 0 0)
(0.255454 0.000633152 0 0.00477353 0.286463 0 0 0 0)