/*--------------------------------*- C++ -*----------------------------------*\
| =========                 |                                                 |
| \\      /  F ield         | OpenFOAM: The Open Source CFD Toolbox           |
|  \\    /   O peration     | Version:  v1912                                 |
|   \\  /    A nd           | Website:  www.openfoam.com                      |
|    \\/     M anipulation  |                                                 |
\*---------------------------------------------------------------------------*/
FoamFile
{
    version     2.0;
    format      ascii;
    class       volScalarField;
    location    "4.32";
    object      T;
}
// * * * * * * * * * * * * * * * * * * * * * * * * * * * * * * * * * * * * * //

dimensions      [0 0 0 1 0 0 0];


internalField   nonuniform List<scalar> 
1900
(
1.17139
0.98522
1.00979
1.02623
1.0268
1.02329
1.01793
1.0131
1.00929
1.00463
1.17139
0.985226
1.00979
1.02624
1.02682
1.02332
1.018
1.01318
1.00892
1.00398
1.17139
0.98523
1.00979
1.02623
1.02681
1.0233
1.01795
1.01305
1.00867
1.00367
1.17139
0.985226
1.00979
1.02624
1.02682
1.02332
1.018
1.01318
1.00892
1.00398
1.17139
0.98522
1.00979
1.02623
1.0268
1.02329
1.01793
1.0131
1.00929
1.00463
0.999282
0.988482
0.970977
0.948285
0.927074
0.996815
0.984791
0.966662
0.943862
0.917639
0.99623
0.984459
0.966181
0.943413
0.918651
0.996815
0.984791
0.966662
0.943862
0.917639
0.999282
0.988482
0.970977
0.948285
0.927074
0.858821
0.812983
0.773434
0.741418
0.722019
0.862446
0.814598
0.775047
0.743033
0.720668
0.862092
0.814553
0.775279
0.742701
0.71683
0.862446
0.814598
0.775047
0.743033
0.720668
0.858821
0.812983
0.773434
0.741418
0.722019
0.693671
0.611963
0.65478
0.689696
0.679776
0.66589
0.653033
0.637255
0.624056
0.612492
0.606229
0.602109
0.598888
0.596192
0.593962
0.592141
0.590661
0.58945
0.588467
0.58764
0.586972
0.586431
0.585964
0.585587
0.585284
0.585061
0.584915
0.584837
0.584787
0.584746
0.584646
0.584698
0.584756
0.585336
0.585724
0.58656
0.587007
0.586368
0.546592
0.445116
0.687926
0.623178
0.659565
0.693747
0.682089
0.666645
0.653419
0.637449
0.624159
0.612503
0.606245
0.602121
0.5989
0.596202
0.59397
0.592148
0.590667
0.589456
0.588473
0.587645
0.586977
0.586435
0.585968
0.58559
0.585288
0.585064
0.584919
0.58484
0.58479
0.584748
0.584648
0.584699
0.584758
0.585347
0.585736
0.586584
0.587042
0.586428
0.546997
0.445684
0.682578
0.636731
0.67128
0.698828
0.683759
0.666988
0.653605
0.637516
0.624228
0.612503
0.606256
0.602128
0.598906
0.596207
0.593973
0.592151
0.59067
0.589458
0.588475
0.587647
0.586979
0.586437
0.58597
0.585592
0.585289
0.585066
0.584921
0.584842
0.584793
0.584752
0.584654
0.584708
0.584774
0.585376
0.585785
0.586667
0.587181
0.586629
0.547487
0.447573
0.687926
0.623178
0.659565
0.693747
0.682089
0.666645
0.653419
0.637449
0.624159
0.612503
0.606245
0.602121
0.5989
0.596202
0.59397
0.592148
0.590667
0.589456
0.588473
0.587645
0.586977
0.586435
0.585968
0.58559
0.585288
0.585064
0.584919
0.58484
0.58479
0.584748
0.584648
0.584699
0.584758
0.585347
0.585736
0.586584
0.587042
0.586428
0.546997
0.445684
0.693671
0.611963
0.65478
0.689696
0.679776
0.66589
0.653033
0.637255
0.624056
0.612492
0.606229
0.602109
0.598888
0.596192
0.593962
0.592141
0.590661
0.58945
0.588467
0.58764
0.586972
0.586431
0.585964
0.585587
0.585284
0.585061
0.584915
0.584837
0.584787
0.584746
0.584646
0.584698
0.584756
0.585336
0.585724
0.58656
0.587007
0.586368
0.546592
0.445116
0.588605
0.568608
0.635168
0.676744
0.673324
0.662974
0.651322
0.636313
0.623146
0.612265
0.606096
0.601995
0.598783
0.596105
0.593892
0.592083
0.590611
0.589405
0.588425
0.5876
0.586935
0.586396
0.58593
0.585552
0.585249
0.585024
0.584877
0.584796
0.584744
0.584704
0.584603
0.584657
0.584713
0.585271
0.58566
0.586451
0.586899
0.586228
0.546436
0.450204
0.477661
0.556444
0.630408
0.657757
0.661051
0.655748
0.6466
0.633407
0.620984
0.611614
0.605747
0.601733
0.598554
0.59592
0.593747
0.591965
0.59051
0.589314
0.588343
0.587524
0.586865
0.58633
0.585867
0.585492
0.585188
0.584962
0.584811
0.584728
0.584672
0.584637
0.584538
0.584597
0.584646
0.585161
0.585532
0.586221
0.586631
0.585956
0.54654
0.4445
0.450688
0.570083
0.626294
0.644393
0.650412
0.64776
0.640206
0.629091
0.618454
0.610432
0.605157
0.60131
0.598216
0.595656
0.593541
0.591798
0.590367
0.589189
0.588231
0.587422
0.586772
0.586244
0.585786
0.585412
0.585108
0.584879
0.584723
0.584634
0.584571
0.584543
0.584444
0.584507
0.584546
0.584989
0.585331
0.58588
0.586239
0.585548
0.547361
0.445249
0.446422
0.577303
0.62058
0.634652
0.641295
0.639616
0.633193
0.624424
0.615618
0.609046
0.60435
0.600745
0.597788
0.59533
0.59329
0.591596
0.590197
0.589042
0.588102
0.587308
0.58667
0.586152
0.585699
0.585328
0.585023
0.584789
0.584623
0.584527
0.584454
0.584435
0.584335
0.584402
0.584421
0.584778
0.585077
0.585487
0.58578
0.585102
0.547356
0.445067
0.44804
0.576363
0.61595
0.626378
0.633086
0.631725
0.626439
0.619725
0.612844
0.607502
0.603396
0.600069
0.597292
0.59496
0.593007
0.591371
0.590011
0.588885
0.58797
0.587195
0.586573
0.586067
0.585621
0.585252
0.584944
0.584702
0.584523
0.584417
0.58433
0.584319
0.584215
0.584276
0.584265
0.584517
0.584748
0.585016
0.585207
0.58456
0.54751
0.445183
0.450509
0.57274
0.610817
0.61927
0.625402
0.624489
0.620673
0.615538
0.610308
0.605983
0.602389
0.599353
0.596769
0.594572
0.59271
0.591135
0.589821
0.588732
0.587847
0.587095
0.586492
0.586001
0.585562
0.585195
0.584883
0.584631
0.584438
0.584323
0.584225
0.584232
0.584131
0.584194
0.584161
0.584323
0.584497
0.584671
0.584798
0.584188
0.547327
0.444837
0.456468
0.569715
0.606452
0.613389
0.618392
0.618101
0.615553
0.611811
0.607908
0.604427
0.601317
0.598588
0.596213
0.594158
0.592393
0.590888
0.589627
0.588581
0.587734
0.58701
0.58643
0.585955
0.585523
0.585157
0.584837
0.584574
0.584359
0.584233
0.584115
0.584138
0.584028
0.584074
0.584001
0.584048
0.584137
0.584212
0.584266
0.583774
0.548283
0.445602
0.450812
0.566645
0.602065
0.607758
0.61214
0.612753
0.611297
0.60885
0.605975
0.603132
0.600409
0.597934
0.595723
0.593777
0.592088
0.590643
0.589432
0.588431
0.587623
0.586931
0.586376
0.585921
0.585499
0.585138
0.584816
0.584548
0.584325
0.584212
0.584105
0.584174
0.584084
0.584134
0.584038
0.583982
0.583979
0.58398
0.583969
0.583496
0.548461
0.445992
0.450374
0.565033
0.598409
0.603131
0.607052
0.608286
0.607662
0.606232
0.604104
0.601788
0.599424
0.5972
0.595152
0.593319
0.591714
0.590338
0.589186
0.588238
0.587476
0.586819
0.586294
0.585859
0.585447
0.585089
0.584762
0.584486
0.584247
0.584144
0.584037
0.584135
0.584041
0.584063
0.583913
0.583721
0.583553
0.583464
0.583364
0.583037
0.550443
0.447237
0.449289
0.56268
0.594962
0.598897
0.602761
0.604507
0.604721
0.604093
0.602595
0.600738
0.598679
0.596664
0.594726
0.592964
0.591404
0.590068
0.588953
0.588041
0.587316
0.58669
0.586195
0.585789
0.5854
0.585062
0.584753
0.584499
0.584277
0.584218
0.58414
0.584282
0.584202
0.584203
0.584001
0.583663
0.583291
0.583098
0.582853
0.582515
0.550897
0.447862
0.448675
0.561156
0.592254
0.595568
0.599442
0.601395
0.60221
0.602093
0.601022
0.599542
0.597747
0.595932
0.594109
0.592442
0.590952
0.589679
0.588621
0.587761
0.587084
0.586495
0.586033
0.585655
0.585283
0.584958
0.584651
0.584401
0.584172
0.584128
0.584045
0.584197
0.584093
0.584044
0.583783
0.583309
0.582743
0.582447
0.582136
0.581903
0.552708
0.448878
0.448184
0.55927
0.589272
0.592226
0.596361
0.598496
0.599816
0.600178
0.599489
0.598451
0.596926
0.595333
0.593631
0.592076
0.590671
0.589473
0.588482
0.587682
0.587056
0.586505
0.586079
0.585733
0.585381
0.585068
0.58476
0.584504
0.584249
0.584195
0.584077
0.584209
0.58404
0.583868
0.58344
0.582718
0.581823
0.581276
0.580799
0.580462
0.552324
0.449494
0.447668
0.557634
0.586598
0.589445
0.59356
0.595983
0.59773
0.598414
0.598051
0.597383
0.596071
0.59468
0.593081
0.591647
0.590348
0.589256
0.588355
0.587628
0.587061
0.586548
0.586156
0.585838
0.585496
0.585182
0.584856
0.584583
0.584286
0.584215
0.584046
0.584137
0.583877
0.583542
0.582945
0.581976
0.580829
0.580047
0.579427
0.579005
0.552221
0.449865
0.447385
0.555879
0.58403
0.587291
0.590927
0.593335
0.595423
0.596381
0.596595
0.596253
0.595176
0.594037
0.5926
0.591373
0.590245
0.589334
0.588596
0.588013
0.587561
0.587122
0.586768
0.586451
0.586066
0.585684
0.585268
0.584909
0.584499
0.584339
0.584041
0.584009
0.583621
0.583088
0.582259
0.580919
0.579342
0.578009
0.577042
0.576634
0.550826
0.44991
0.447032
0.553112
0.580421
0.583845
0.587752
0.591018
0.593424
0.594596
0.595174
0.59522
0.594425
0.593511
0.592188
0.591117
0.590116
0.589345
0.58873
0.588244
0.587866
0.587475
0.587163
0.586881
0.586502
0.586104
0.585645
0.585248
0.58477
0.584549
0.584123
0.583926
0.583347
0.582476
0.581379
0.579623
0.577782
0.575792
0.574211
0.573748
0.548517
0.44969
0.447224
0.551553
0.577613
0.580999
0.584995
0.589264
0.591607
0.593029
0.594478
0.594387
0.593626
0.592887
0.591726
0.590852
0.590028
0.589465
0.589053
0.588762
0.588547
0.588242
0.587952
0.587626
0.587144
0.586628
0.586041
0.585557
0.584986
0.584708
0.584205
0.583919
0.583299
0.582239
0.581005
0.578762
0.57634
0.573639
0.571595
0.571272
0.547604
0.450572
0.449512
0.550523
0.575045
0.577743
0.582546
0.587626
0.590395
0.592404
0.594062
0.593772
0.593367
0.592608
0.591377
0.590579
0.589844
0.589452
0.589204
0.58907
0.588942
0.588707
0.588481
0.588152
0.587609
0.587014
0.586316
0.585753
0.58511
0.584773
0.584191
0.583744
0.583026
0.581689
0.5803
0.577775
0.57496
0.571894
0.569003
0.568974
0.547339
0.453979
0.456568
0.552176
0.575732
0.577952
0.582304
0.587053
0.589748
0.592175
0.593359
0.593244
0.592824
0.591874
0.59059
0.58976
0.58901
0.588666
0.588458
0.588361
0.588305
0.588165
0.587916
0.587502
0.586919
0.586329
0.58565
0.585122
0.584575
0.584222
0.583751
0.583256
0.582664
0.581267
0.579881
0.577316
0.574361
0.571406
0.56873
0.568599
0.548759
0.462288
0.424445
0.531823
0.559731
0.560029
0.561807
0.564444
0.565824
0.567073
0.565492
0.563462
0.560902
0.557469
0.555142
0.552886
0.551422
0.550203
0.549396
0.548876
0.548591
0.549493
0.549159
0.547713
0.547415
0.547181
0.54734
0.547302
0.548155
0.548172
0.549836
0.550107
0.552291
0.551817
0.552433
0.551223
0.549244
0.547781
0.547112
0.548662
0.524898
0.426475
0.367765
0.43167
0.471737
0.464005
0.460467
0.459126
0.45778
0.456617
0.45461
0.452746
0.451007
0.449153
0.447698
0.446558
0.445654
0.445113
0.444789
0.445126
0.444891
0.44535
0.445256
0.444505
0.444824
0.44393
0.444439
0.444001
0.444726
0.444903
0.445918
0.446255
0.447206
0.447789
0.448458
0.44884
0.449074
0.449938
0.453279
0.461716
0.426711
0.364682
0.367765
0.43167
0.471737
0.464005
0.460467
0.459126
0.45778
0.456617
0.45461
0.452746
0.451007
0.449153
0.447698
0.446558
0.445654
0.445113
0.444789
0.445126
0.444891
0.44535
0.445256
0.444505
0.444824
0.44393
0.444439
0.444001
0.444726
0.444903
0.445918
0.446255
0.447206
0.447789
0.448458
0.44884
0.449074
0.449938
0.453279
0.461716
0.426711
0.364682
0.424445
0.531823
0.559731
0.560029
0.561807
0.564444
0.565824
0.567073
0.565492
0.563462
0.560902
0.557469
0.555142
0.552886
0.551422
0.550203
0.549396
0.548876
0.548591
0.549493
0.549159
0.547713
0.547415
0.547181
0.54734
0.547302
0.548155
0.548172
0.549836
0.550107
0.552291
0.551817
0.552433
0.551223
0.549244
0.547781
0.547112
0.548662
0.524898
0.426475
0.456568
0.552176
0.575732
0.577952
0.582304
0.587053
0.589748
0.592175
0.593359
0.593244
0.592824
0.591874
0.59059
0.58976
0.58901
0.588666
0.588458
0.588361
0.588305
0.588165
0.587916
0.587502
0.586919
0.586329
0.58565
0.585122
0.584575
0.584222
0.583751
0.583256
0.582664
0.581267
0.579881
0.577316
0.574361
0.571406
0.56873
0.568599
0.548759
0.462288
0.449512
0.550523
0.575045
0.577743
0.582546
0.587626
0.590395
0.592404
0.594062
0.593772
0.593367
0.592608
0.591377
0.590579
0.589844
0.589452
0.589204
0.58907
0.588942
0.588707
0.588481
0.588152
0.587609
0.587014
0.586316
0.585753
0.58511
0.584773
0.584191
0.583744
0.583026
0.581689
0.5803
0.577775
0.57496
0.571894
0.569003
0.568974
0.547339
0.453979
0.447224
0.551553
0.577613
0.580999
0.584995
0.589264
0.591607
0.593029
0.594478
0.594387
0.593626
0.592887
0.591726
0.590852
0.590028
0.589465
0.589053
0.588762
0.588547
0.588242
0.587952
0.587626
0.587144
0.586628
0.586041
0.585557
0.584986
0.584708
0.584205
0.583919
0.583299
0.582239
0.581005
0.578762
0.57634
0.573639
0.571595
0.571272
0.547604
0.450572
0.447032
0.553112
0.580421
0.583845
0.587752
0.591018
0.593424
0.594596
0.595174
0.59522
0.594425
0.593511
0.592188
0.591117
0.590116
0.589345
0.58873
0.588244
0.587866
0.587475
0.587163
0.586881
0.586502
0.586104
0.585645
0.585248
0.58477
0.584549
0.584123
0.583926
0.583347
0.582476
0.581379
0.579623
0.577782
0.575792
0.574211
0.573748
0.548517
0.44969
0.447385
0.555879
0.58403
0.587291
0.590927
0.593335
0.595423
0.596381
0.596595
0.596253
0.595176
0.594037
0.5926
0.591373
0.590245
0.589334
0.588596
0.588013
0.587561
0.587122
0.586768
0.586451
0.586066
0.585684
0.585268
0.584909
0.584499
0.584339
0.584041
0.584009
0.583621
0.583088
0.582259
0.580919
0.579342
0.578009
0.577042
0.576634
0.550826
0.44991
0.447668
0.557634
0.586598
0.589445
0.59356
0.595983
0.59773
0.598414
0.598051
0.597383
0.596071
0.59468
0.593081
0.591647
0.590348
0.589256
0.588355
0.587628
0.587061
0.586548
0.586156
0.585838
0.585496
0.585182
0.584856
0.584583
0.584286
0.584215
0.584046
0.584137
0.583877
0.583542
0.582945
0.581976
0.580829
0.580047
0.579427
0.579005
0.552221
0.449865
0.448184
0.55927
0.589272
0.592226
0.596361
0.598496
0.599816
0.600178
0.599489
0.598451
0.596926
0.595333
0.593631
0.592076
0.590671
0.589473
0.588482
0.587682
0.587056
0.586505
0.586079
0.585733
0.585381
0.585068
0.58476
0.584504
0.584249
0.584195
0.584077
0.584209
0.58404
0.583868
0.58344
0.582718
0.581823
0.581276
0.580799
0.580462
0.552324
0.449494
0.448675
0.561156
0.592254
0.595568
0.599442
0.601395
0.60221
0.602093
0.601022
0.599542
0.597747
0.595932
0.594109
0.592442
0.590952
0.589679
0.588621
0.587761
0.587084
0.586495
0.586033
0.585655
0.585283
0.584958
0.584651
0.584401
0.584172
0.584128
0.584045
0.584197
0.584093
0.584044
0.583783
0.583309
0.582743
0.582447
0.582136
0.581903
0.552708
0.448878
0.449289
0.56268
0.594962
0.598897
0.602761
0.604507
0.604721
0.604093
0.602595
0.600738
0.598679
0.596664
0.594726
0.592964
0.591404
0.590068
0.588953
0.588041
0.587316
0.58669
0.586195
0.585789
0.5854
0.585062
0.584753
0.584499
0.584277
0.584218
0.58414
0.584282
0.584202
0.584203
0.584001
0.583663
0.583291
0.583098
0.582853
0.582515
0.550897
0.447862
0.450374
0.565033
0.598409
0.603131
0.607052
0.608286
0.607662
0.606232
0.604104
0.601788
0.599424
0.5972
0.595152
0.593319
0.591714
0.590338
0.589186
0.588238
0.587476
0.586819
0.586294
0.585859
0.585447
0.585089
0.584762
0.584486
0.584247
0.584144
0.584037
0.584135
0.584041
0.584063
0.583913
0.583721
0.583553
0.583464
0.583364
0.583037
0.550443
0.447237
0.450812
0.566645
0.602065
0.607758
0.61214
0.612753
0.611297
0.60885
0.605975
0.603132
0.600409
0.597934
0.595723
0.593777
0.592088
0.590643
0.589432
0.588431
0.587623
0.586931
0.586376
0.585921
0.585499
0.585138
0.584816
0.584548
0.584325
0.584212
0.584105
0.584174
0.584084
0.584134
0.584038
0.583982
0.583979
0.58398
0.583969
0.583496
0.548461
0.445992
0.456468
0.569715
0.606452
0.613389
0.618392
0.618101
0.615553
0.611811
0.607908
0.604427
0.601317
0.598588
0.596213
0.594158
0.592393
0.590888
0.589627
0.588581
0.587734
0.58701
0.58643
0.585955
0.585523
0.585157
0.584837
0.584574
0.584359
0.584233
0.584115
0.584138
0.584028
0.584074
0.584001
0.584048
0.584137
0.584212
0.584266
0.583774
0.548283
0.445602
0.450509
0.57274
0.610817
0.61927
0.625402
0.624489
0.620673
0.615538
0.610308
0.605983
0.602389
0.599353
0.596769
0.594572
0.59271
0.591135
0.589821
0.588732
0.587847
0.587095
0.586492
0.586001
0.585562
0.585195
0.584883
0.584631
0.584438
0.584323
0.584225
0.584232
0.584131
0.584194
0.584161
0.584323
0.584497
0.584671
0.584798
0.584188
0.547327
0.444837
0.44804
0.576363
0.61595
0.626378
0.633086
0.631725
0.626439
0.619725
0.612844
0.607502
0.603396
0.600069
0.597292
0.59496
0.593007
0.591371
0.590011
0.588885
0.58797
0.587195
0.586573
0.586067
0.585621
0.585252
0.584944
0.584702
0.584523
0.584417
0.58433
0.584319
0.584215
0.584276
0.584265
0.584517
0.584748
0.585016
0.585207
0.58456
0.54751
0.445183
0.446422
0.577303
0.62058
0.634652
0.641295
0.639616
0.633193
0.624424
0.615618
0.609046
0.60435
0.600745
0.597788
0.59533
0.59329
0.591596
0.590197
0.589042
0.588102
0.587308
0.58667
0.586152
0.585699
0.585328
0.585023
0.584789
0.584623
0.584527
0.584454
0.584435
0.584335
0.584402
0.584421
0.584778
0.585077
0.585487
0.58578
0.585102
0.547356
0.445067
0.450688
0.570083
0.626294
0.644393
0.650412
0.64776
0.640206
0.629091
0.618454
0.610432
0.605157
0.60131
0.598216
0.595656
0.593541
0.591798
0.590367
0.589189
0.588231
0.587422
0.586772
0.586244
0.585786
0.585412
0.585108
0.584879
0.584723
0.584634
0.584571
0.584543
0.584444
0.584507
0.584546
0.584989
0.585331
0.58588
0.586239
0.585548
0.547361
0.445249
0.477661
0.556444
0.630408
0.657757
0.661051
0.655748
0.6466
0.633407
0.620984
0.611614
0.605747
0.601733
0.598554
0.59592
0.593747
0.591965
0.59051
0.589314
0.588343
0.587524
0.586865
0.58633
0.585867
0.585492
0.585188
0.584962
0.584811
0.584728
0.584672
0.584637
0.584538
0.584597
0.584646
0.585161
0.585532
0.586221
0.586631
0.585956
0.54654
0.4445
0.588605
0.568608
0.635168
0.676744
0.673324
0.662974
0.651322
0.636313
0.623146
0.612265
0.606096
0.601995
0.598783
0.596105
0.593892
0.592083
0.590611
0.589405
0.588425
0.5876
0.586935
0.586396
0.58593
0.585552
0.585249
0.585024
0.584877
0.584796
0.584744
0.584704
0.584603
0.584657
0.584713
0.585271
0.58566
0.586451
0.586899
0.586228
0.546436
0.450204
)
;

boundaryField
{
    inlet
    {
        type            fixedValue;
        value           uniform 1;
    }
    outlet
    {
        type            zeroGradient;
    }
    obstacle
    {
        type            zeroGradient;
    }
    empty
    {
        type            empty;
    }
}


// ************************************************************************* //
