/*--------------------------------*- C++ -*----------------------------------*\
| =========                 |                                                 |
| \\      /  F ield         | OpenFOAM: The Open Source CFD Toolbox           |
|  \\    /   O peration     | Version:  v1912                                 |
|   \\  /    A nd           | Website:  www.openfoam.com                      |
|    \\/     M anipulation  |                                                 |
\*---------------------------------------------------------------------------*/
FoamFile
{
    version     2.0;
    format      ascii;
    class       volScalarField;
    location    "3.36";
    object      T;
}
// * * * * * * * * * * * * * * * * * * * * * * * * * * * * * * * * * * * * * //

dimensions      [0 0 0 1 0 0 0];


internalField   nonuniform List<scalar> 
1900
(
1.15702
1.0236
1.03059
1.03915
1.04278
1.0441
1.04509
1.04645
1.0478
1.04908
1.15702
1.0236
1.03061
1.03917
1.04278
1.04408
1.04503
1.04592
1.04605
1.04608
1.15702
1.0236
1.03061
1.03916
1.04275
1.04401
1.04495
1.04585
1.04613
1.0463
1.15702
1.0236
1.03061
1.03917
1.04278
1.04408
1.04503
1.04592
1.04605
1.04608
1.15702
1.0236
1.03059
1.03915
1.04278
1.0441
1.04509
1.04645
1.0478
1.04908
1.04453
1.04305
1.0329
1.00152
0.935622
1.04474
1.04253
1.02951
1.00188
0.954388
1.04532
1.04228
1.02807
0.997108
0.948362
1.04474
1.04253
1.02951
1.00188
0.954388
1.04453
1.04305
1.0329
1.00152
0.935622
0.9708
0.922713
0.898877
0.881543
0.858915
0.965841
0.922143
0.899665
0.882786
0.864697
0.964792
0.922127
0.899199
0.881972
0.86432
0.965841
0.922143
0.899665
0.882786
0.864697
0.9708
0.922713
0.898877
0.881543
0.858915
0.787951
0.693954
0.751687
0.775088
0.759038
0.744168
0.735626
0.734927
0.736216
0.738514
0.742116
0.746064
0.749773
0.75276
0.754895
0.756273
0.757067
0.75748
0.75765
0.757511
0.757208
0.756748
0.755918
0.754622
0.752677
0.749789
0.745729
0.740378
0.733866
0.726565
0.71894
0.711371
0.704035
0.697222
0.691108
0.686698
0.683742
0.680401
0.622494
0.527572
0.850923
0.727731
0.763882
0.77884
0.761101
0.744655
0.735788
0.734985
0.736318
0.738579
0.74217
0.746108
0.749812
0.752796
0.754928
0.756304
0.757096
0.757509
0.757678
0.757539
0.757235
0.756775
0.755944
0.754648
0.752704
0.749817
0.745757
0.740407
0.733897
0.726597
0.718974
0.711405
0.704069
0.697252
0.691133
0.686742
0.683784
0.680443
0.622192
0.527644
0.847043
0.75074
0.773104
0.781602
0.762195
0.744928
0.735898
0.735058
0.736373
0.738627
0.742207
0.746136
0.749836
0.752816
0.754945
0.756319
0.75711
0.757521
0.75769
0.75755
0.757246
0.756786
0.755956
0.75466
0.752717
0.749831
0.745774
0.740428
0.733921
0.726627
0.71901
0.711449
0.704122
0.697317
0.691211
0.686845
0.683911
0.680594
0.622398
0.529852
0.850923
0.727731
0.763882
0.77884
0.761101
0.744655
0.735788
0.734985
0.736318
0.738579
0.74217
0.746108
0.749812
0.752796
0.754928
0.756304
0.757096
0.757509
0.757678
0.757539
0.757235
0.756775
0.755944
0.754648
0.752704
0.749817
0.745757
0.740407
0.733897
0.726597
0.718974
0.711405
0.704069
0.697252
0.691133
0.686742
0.683784
0.680443
0.622192
0.527644
0.787951
0.693954
0.751687
0.775088
0.759038
0.744168
0.735626
0.734927
0.736216
0.738514
0.742116
0.746064
0.749773
0.75276
0.754895
0.756273
0.757067
0.75748
0.75765
0.757511
0.757208
0.756748
0.755918
0.754622
0.752677
0.749789
0.745729
0.740378
0.733866
0.726565
0.71894
0.711371
0.704035
0.697222
0.691108
0.686698
0.683742
0.680401
0.622494
0.527572
0.604559
0.644485
0.739079
0.761225
0.751885
0.741555
0.734652
0.734215
0.735541
0.738058
0.741731
0.745737
0.749476
0.752488
0.754645
0.756043
0.756852
0.757277
0.757453
0.757317
0.757015
0.756555
0.755722
0.754422
0.75247
0.749572
0.7455
0.740136
0.73361
0.726294
0.718656
0.711079
0.703742
0.696943
0.690852
0.686377
0.683416
0.680142
0.62365
0.528494
0.514422
0.645437
0.728692
0.73966
0.739082
0.734883
0.731801
0.732079
0.733872
0.736786
0.740695
0.744841
0.748663
0.751745
0.753963
0.755414
0.756265
0.756718
0.756911
0.756785
0.756488
0.756027
0.755188
0.753874
0.751902
0.748978
0.74487
0.739465
0.732891
0.725523
0.717836
0.710224
0.702872
0.696075
0.69001
0.685428
0.682367
0.679139
0.623545
0.525958
0.501746
0.652258
0.716927
0.724704
0.728024
0.727562
0.727551
0.728863
0.731361
0.734835
0.738996
0.743343
0.747291
0.750483
0.752796
0.754329
0.755241
0.755738
0.755956
0.755843
0.755554
0.755091
0.754241
0.752905
0.750904
0.747935
0.743778
0.738309
0.731665
0.724227
0.716475
0.708819
0.701464
0.694679
0.688641
0.683919
0.680737
0.677614
0.623706
0.523119
0.508292
0.648207
0.705088
0.712562
0.717847
0.720312
0.722284
0.724814
0.727981
0.732
0.736492
0.741085
0.745219
0.748569
0.751028
0.752673
0.753673
0.754231
0.754483
0.754389
0.754109
0.753642
0.752775
0.751409
0.749359
0.746337
0.742089
0.736542
0.729788
0.722238
0.714404
0.706682
0.699314
0.69251
0.686452
0.681522
0.678133
0.675128
0.623432
0.518634
0.499358
0.641652
0.693233
0.702153
0.708383
0.712748
0.716102
0.719687
0.723572
0.7281
0.732945
0.737823
0.742188
0.745785
0.748412
0.750224
0.751333
0.751972
0.752268
0.752199
0.751929
0.751453
0.750563
0.749149
0.747045
0.74391
0.739602
0.733869
0.72701
0.71931
0.711346
0.703528
0.696168
0.689283
0.68315
0.677898
0.674279
0.671348
0.622188
0.513418
0.495791
0.634358
0.682491
0.691886
0.698794
0.704386
0.708847
0.713316
0.717856
0.722835
0.728039
0.733223
0.737957
0.741768
0.744699
0.746675
0.747939
0.748675
0.749027
0.748989
0.748729
0.748238
0.747313
0.745844
0.743633
0.74044
0.735881
0.730114
0.722968
0.715063
0.707005
0.699007
0.691579
0.684502
0.678208
0.672457
0.668411
0.665417
0.618479
0.507222
0.492403
0.626264
0.672416
0.681568
0.6893
0.695425
0.700603
0.70572
0.710715
0.716028
0.721566
0.727124
0.732136
0.736412
0.739546
0.741806
0.743224
0.744081
0.744499
0.744499
0.744245
0.743732
0.742763
0.74121
0.738919
0.735496
0.730924
0.724738
0.717505
0.709314
0.701041
0.692901
0.685428
0.67816
0.671594
0.66553
0.660828
0.657854
0.61299
0.500933
0.486862
0.617357
0.662014
0.670223
0.678278
0.685088
0.690991
0.696643
0.702013
0.707625
0.713476
0.719363
0.724907
0.729463
0.733034
0.735519
0.737143
0.738129
0.738622
0.738664
0.738412
0.737872
0.736848
0.735206
0.732761
0.72924
0.724303
0.71803
0.710387
0.701934
0.69356
0.685201
0.677604
0.670214
0.663406
0.657004
0.651723
0.648541
0.605468
0.494211
0.481888
0.608911
0.652009
0.659454
0.667685
0.674939
0.681333
0.687185
0.692675
0.698369
0.704427
0.710613
0.716486
0.721482
0.725362
0.72813
0.729952
0.731073
0.731644
0.73173
0.73148
0.730909
0.729825
0.728087
0.725511
0.721789
0.716702
0.71011
0.702339
0.693734
0.685263
0.676922
0.669351
0.661976
0.655053
0.648424
0.64281
0.639523
0.598549
0.487944
0.477006
0.600503
0.642119
0.648998
0.657158
0.664561
0.671243
0.677159
0.682734
0.688556
0.694766
0.701281
0.70751
0.712936
0.717126
0.720169
0.722168
0.72342
0.724063
0.72419
0.723944
0.723346
0.72221
0.720381
0.717699
0.713802
0.708565
0.701701
0.693813
0.685052
0.67666
0.668309
0.660788
0.653431
0.646434
0.639575
0.633695
0.630399
0.591012
0.481778
0.472591
0.592891
0.633063
0.639628
0.647592
0.655099
0.661939
0.667867
0.673473
0.679275
0.685665
0.692319
0.698862
0.704511
0.70895
0.712167
0.714312
0.715669
0.716374
0.716538
0.716299
0.715684
0.714512
0.712627
0.709867
0.705914
0.700558
0.693663
0.685674
0.676972
0.668604
0.660376
0.652925
0.645631
0.63858
0.631506
0.625368
0.622025
0.584778
0.476254
0.468528
0.58572
0.624557
0.630979
0.638498
0.646046
0.652815
0.658696
0.664333
0.670178
0.676704
0.68358
0.690417
0.696361
0.701075
0.704458
0.706722
0.708155
0.708903
0.709095
0.708868
0.70825
0.707063
0.705153
0.702347
0.698322
0.692853
0.685798
0.677786
0.669039
0.660776
0.652655
0.645271
0.637998
0.630874
0.623562
0.61717
0.613809
0.578231
0.471049
0.465038
0.579058
0.616368
0.622577
0.629967
0.637568
0.644243
0.65015
0.655872
0.661847
0.668535
0.675621
0.682711
0.688895
0.693737
0.697202
0.699518
0.700988
0.70176
0.701972
0.701761
0.701154
0.699979
0.69808
0.69529
0.691256
0.685812
0.678621
0.670604
0.661828
0.653628
0.64556
0.638177
0.630865
0.623614
0.616072
0.609413
0.605982
0.572408
0.466586
0.461506
0.572776
0.60848
0.614306
0.621526
0.629237
0.6357
0.641716
0.647571
0.653694
0.660613
0.667856
0.675223
0.681699
0.68684
0.690523
0.692931
0.694455
0.695241
0.695474
0.695282
0.694691
0.693538
0.691634
0.688821
0.684644
0.679033
0.671647
0.663583
0.654791
0.646624
0.638536
0.631113
0.623708
0.616292
0.608509
0.601595
0.598144
0.566372
0.462304
0.458919
0.566314
0.60025
0.605669
0.612797
0.620623
0.627168
0.633388
0.63944
0.645895
0.653102
0.660667
0.668452
0.675301
0.680763
0.684612
0.687141
0.688721
0.689508
0.689728
0.68956
0.689025
0.687911
0.686002
0.683126
0.678836
0.673026
0.665348
0.657052
0.648103
0.639838
0.631657
0.624103
0.616529
0.608895
0.600897
0.593733
0.590272
0.560553
0.459214
0.455158
0.56031
0.592158
0.597113
0.60419
0.612055
0.618657
0.62513
0.631466
0.638332
0.646031
0.654046
0.662219
0.669485
0.675473
0.679742
0.682568
0.684375
0.685313
0.685624
0.685481
0.684906
0.68369
0.681611
0.678506
0.673845
0.667618
0.659552
0.651036
0.641808
0.633291
0.624847
0.617028
0.60918
0.601316
0.593129
0.585721
0.58237
0.554846
0.45533
0.455573
0.554691
0.584523
0.588869
0.59605
0.604014
0.610891
0.617782
0.62455
0.631879
0.640081
0.648574
0.657497
0.66531
0.671785
0.676322
0.679431
0.681415
0.682438
0.682781
0.682667
0.682107
0.680855
0.678639
0.675321
0.670363
0.663837
0.655241
0.646198
0.636604
0.62781
0.619109
0.611004
0.602885
0.594762
0.586343
0.578702
0.575809
0.550423
0.456257
0.461708
0.554208
0.583629
0.586221
0.592481
0.600067
0.607114
0.614208
0.621181
0.628687
0.637022
0.645659
0.654784
0.662509
0.668984
0.67337
0.676301
0.678141
0.67911
0.67963
0.679527
0.678817
0.677641
0.675576
0.672457
0.667612
0.661125
0.652583
0.643595
0.633935
0.625092
0.61641
0.608262
0.60015
0.59204
0.583713
0.576667
0.574898
0.550179
0.462777
0.44759
0.532681
0.561778
0.562457
0.566012
0.570885
0.575282
0.58034
0.584974
0.590789
0.597091
0.603781
0.610738
0.616004
0.619708
0.621305
0.621671
0.621572
0.621183
0.623015
0.622927
0.620949
0.621193
0.621046
0.620534
0.61834
0.614655
0.608489
0.601758
0.593774
0.587111
0.580089
0.574066
0.567809
0.561861
0.555792
0.550948
0.550452
0.525066
0.438062
0.385029
0.441741
0.468289
0.460874
0.459349
0.462348
0.46483
0.468802
0.473021
0.478284
0.483888
0.49011
0.496375
0.502817
0.508741
0.51442
0.518978
0.522834
0.524616
0.527133
0.527142
0.524604
0.522814
0.518928
0.514351
0.508593
0.50265
0.496064
0.489764
0.483337
0.477545
0.472039
0.467366
0.462925
0.459696
0.45557
0.456403
0.462905
0.439259
0.3819
0.385029
0.441741
0.468289
0.460874
0.459349
0.462348
0.46483
0.468802
0.473021
0.478284
0.483888
0.49011
0.496375
0.502817
0.508741
0.51442
0.518978
0.522834
0.524616
0.527133
0.527142
0.524604
0.522814
0.518928
0.514351
0.508593
0.50265
0.496064
0.489764
0.483337
0.477545
0.472039
0.467366
0.462925
0.459696
0.45557
0.456403
0.462905
0.439259
0.3819
0.44759
0.532681
0.561778
0.562457
0.566012
0.570885
0.575282
0.58034
0.584974
0.590789
0.597091
0.603781
0.610738
0.616004
0.619708
0.621305
0.621671
0.621572
0.621183
0.623015
0.622927
0.620949
0.621193
0.621046
0.620534
0.61834
0.614655
0.608489
0.601758
0.593774
0.587111
0.580089
0.574066
0.567809
0.561861
0.555792
0.550948
0.550452
0.525066
0.438062
0.461708
0.554208
0.583629
0.586221
0.592481
0.600067
0.607114
0.614208
0.621181
0.628687
0.637022
0.645659
0.654784
0.662509
0.668984
0.67337
0.676301
0.678141
0.67911
0.67963
0.679527
0.678817
0.677641
0.675576
0.672457
0.667612
0.661125
0.652583
0.643595
0.633935
0.625092
0.61641
0.608262
0.60015
0.59204
0.583713
0.576667
0.574898
0.550179
0.462777
0.455573
0.554691
0.584523
0.588869
0.59605
0.604014
0.610891
0.617782
0.62455
0.631879
0.640081
0.648574
0.657497
0.66531
0.671785
0.676322
0.679431
0.681415
0.682438
0.682781
0.682667
0.682107
0.680855
0.678639
0.675321
0.670363
0.663837
0.655241
0.646198
0.636604
0.62781
0.619109
0.611004
0.602885
0.594762
0.586343
0.578702
0.575809
0.550423
0.456257
0.455158
0.56031
0.592158
0.597113
0.60419
0.612055
0.618657
0.62513
0.631466
0.638332
0.646031
0.654046
0.662219
0.669485
0.675473
0.679742
0.682568
0.684375
0.685313
0.685624
0.685481
0.684906
0.68369
0.681611
0.678506
0.673845
0.667618
0.659552
0.651036
0.641808
0.633291
0.624847
0.617028
0.60918
0.601316
0.593129
0.585721
0.58237
0.554846
0.45533
0.458919
0.566314
0.60025
0.605669
0.612797
0.620623
0.627168
0.633388
0.63944
0.645895
0.653102
0.660667
0.668452
0.675301
0.680763
0.684612
0.687141
0.688721
0.689508
0.689728
0.68956
0.689025
0.687911
0.686002
0.683126
0.678836
0.673026
0.665348
0.657052
0.648103
0.639838
0.631657
0.624103
0.616529
0.608895
0.600897
0.593733
0.590272
0.560553
0.459214
0.461506
0.572776
0.60848
0.614306
0.621526
0.629237
0.6357
0.641716
0.647571
0.653694
0.660613
0.667856
0.675223
0.681699
0.68684
0.690523
0.692931
0.694455
0.695241
0.695474
0.695282
0.694691
0.693538
0.691634
0.688821
0.684644
0.679033
0.671647
0.663583
0.654791
0.646624
0.638536
0.631113
0.623708
0.616292
0.608509
0.601595
0.598144
0.566372
0.462304
0.465038
0.579058
0.616368
0.622577
0.629967
0.637568
0.644243
0.65015
0.655872
0.661847
0.668535
0.675621
0.682711
0.688895
0.693737
0.697202
0.699518
0.700988
0.70176
0.701972
0.701761
0.701154
0.699979
0.69808
0.69529
0.691256
0.685812
0.678621
0.670604
0.661828
0.653628
0.64556
0.638177
0.630865
0.623614
0.616072
0.609413
0.605982
0.572408
0.466586
0.468528
0.58572
0.624557
0.630979
0.638498
0.646046
0.652815
0.658696
0.664333
0.670178
0.676704
0.68358
0.690417
0.696361
0.701075
0.704458
0.706722
0.708155
0.708903
0.709095
0.708868
0.70825
0.707063
0.705153
0.702347
0.698322
0.692853
0.685798
0.677786
0.669039
0.660776
0.652655
0.645271
0.637998
0.630874
0.623562
0.61717
0.613809
0.578231
0.471049
0.472591
0.592891
0.633063
0.639628
0.647592
0.655099
0.661939
0.667867
0.673473
0.679275
0.685665
0.692319
0.698862
0.704511
0.70895
0.712167
0.714312
0.715669
0.716374
0.716538
0.716299
0.715684
0.714512
0.712627
0.709867
0.705914
0.700558
0.693663
0.685674
0.676972
0.668604
0.660376
0.652925
0.645631
0.63858
0.631506
0.625368
0.622025
0.584778
0.476254
0.477006
0.600503
0.642119
0.648998
0.657158
0.664561
0.671243
0.677159
0.682734
0.688556
0.694766
0.701281
0.70751
0.712936
0.717126
0.720169
0.722168
0.72342
0.724063
0.72419
0.723944
0.723346
0.72221
0.720381
0.717699
0.713802
0.708565
0.701701
0.693813
0.685052
0.67666
0.668309
0.660788
0.653431
0.646434
0.639575
0.633695
0.630399
0.591012
0.481778
0.481888
0.608911
0.652009
0.659454
0.667685
0.674939
0.681333
0.687185
0.692675
0.698369
0.704427
0.710613
0.716486
0.721482
0.725362
0.72813
0.729952
0.731073
0.731644
0.73173
0.73148
0.730909
0.729825
0.728087
0.725511
0.721789
0.716702
0.71011
0.702339
0.693734
0.685263
0.676922
0.669351
0.661976
0.655053
0.648424
0.64281
0.639523
0.598549
0.487944
0.486862
0.617357
0.662014
0.670223
0.678278
0.685088
0.690991
0.696643
0.702013
0.707625
0.713476
0.719363
0.724907
0.729463
0.733034
0.735519
0.737143
0.738129
0.738622
0.738664
0.738412
0.737872
0.736848
0.735206
0.732761
0.72924
0.724303
0.71803
0.710387
0.701934
0.69356
0.685201
0.677604
0.670214
0.663406
0.657004
0.651723
0.648541
0.605468
0.494211
0.492403
0.626264
0.672416
0.681568
0.6893
0.695425
0.700603
0.70572
0.710715
0.716028
0.721566
0.727124
0.732136
0.736412
0.739546
0.741806
0.743224
0.744081
0.744499
0.744499
0.744245
0.743732
0.742763
0.74121
0.738919
0.735496
0.730924
0.724738
0.717505
0.709314
0.701041
0.692901
0.685428
0.67816
0.671594
0.66553
0.660828
0.657854
0.61299
0.500933
0.495791
0.634358
0.682491
0.691886
0.698794
0.704386
0.708847
0.713316
0.717856
0.722835
0.728039
0.733223
0.737957
0.741768
0.744699
0.746675
0.747939
0.748675
0.749027
0.748989
0.748729
0.748238
0.747313
0.745844
0.743633
0.74044
0.735881
0.730114
0.722968
0.715063
0.707005
0.699007
0.691579
0.684502
0.678208
0.672457
0.668411
0.665417
0.618479
0.507222
0.499358
0.641652
0.693233
0.702153
0.708383
0.712748
0.716102
0.719687
0.723572
0.7281
0.732945
0.737823
0.742188
0.745785
0.748412
0.750224
0.751333
0.751972
0.752268
0.752199
0.751929
0.751453
0.750563
0.749149
0.747045
0.74391
0.739602
0.733869
0.72701
0.71931
0.711346
0.703528
0.696168
0.689283
0.68315
0.677898
0.674279
0.671348
0.622188
0.513418
0.508292
0.648207
0.705088
0.712562
0.717847
0.720312
0.722284
0.724814
0.727981
0.732
0.736492
0.741085
0.745219
0.748569
0.751028
0.752673
0.753673
0.754231
0.754483
0.754389
0.754109
0.753642
0.752775
0.751409
0.749359
0.746337
0.742089
0.736542
0.729788
0.722238
0.714404
0.706682
0.699314
0.69251
0.686452
0.681522
0.678133
0.675128
0.623432
0.518634
0.501746
0.652258
0.716927
0.724704
0.728024
0.727562
0.727551
0.728863
0.731361
0.734835
0.738996
0.743343
0.747291
0.750483
0.752796
0.754329
0.755241
0.755738
0.755956
0.755843
0.755554
0.755091
0.754241
0.752905
0.750904
0.747935
0.743778
0.738309
0.731665
0.724227
0.716475
0.708819
0.701464
0.694679
0.688641
0.683919
0.680737
0.677614
0.623706
0.523119
0.514422
0.645437
0.728692
0.73966
0.739082
0.734883
0.731801
0.732079
0.733872
0.736786
0.740695
0.744841
0.748663
0.751745
0.753963
0.755414
0.756265
0.756718
0.756911
0.756785
0.756488
0.756027
0.755188
0.753874
0.751902
0.748978
0.74487
0.739465
0.732891
0.725523
0.717836
0.710224
0.702872
0.696075
0.69001
0.685428
0.682367
0.679139
0.623545
0.525958
0.604559
0.644485
0.739079
0.761225
0.751885
0.741555
0.734652
0.734215
0.735541
0.738058
0.741731
0.745737
0.749476
0.752488
0.754645
0.756043
0.756852
0.757277
0.757453
0.757317
0.757015
0.756555
0.755722
0.754422
0.75247
0.749572
0.7455
0.740136
0.73361
0.726294
0.718656
0.711079
0.703742
0.696943
0.690852
0.686377
0.683416
0.680142
0.62365
0.528494
)
;

boundaryField
{
    inlet
    {
        type            fixedValue;
        value           uniform 1;
    }
    outlet
    {
        type            zeroGradient;
    }
    obstacle
    {
        type            zeroGradient;
    }
    empty
    {
        type            empty;
    }
}


// ************************************************************************* //
