/*--------------------------------*- C++ -*----------------------------------*\
| =========                 |                                                 |
| \\      /  F ield         | OpenFOAM: The Open Source CFD Toolbox           |
|  \\    /   O peration     | Version:  v1912                                 |
|   \\  /    A nd           | Website:  www.openfoam.com                      |
|    \\/     M anipulation  |                                                 |
\*---------------------------------------------------------------------------*/
FoamFile
{
    version     2.0;
    format      ascii;
    class       volScalarField;
    location    "7.08";
    object      p;
}
// * * * * * * * * * * * * * * * * * * * * * * * * * * * * * * * * * * * * * //

dimensions      [1 -1 -2 0 0 0 0];


internalField   nonuniform List<scalar> 
1900
(
25273.6
9451.56
8534.77
8521.36
8489.69
8476.22
8468.7
8472.52
8477.72
8482.51
25273.6
9451.56
8534.75
8521.33
8489.79
8476.36
8469.52
8472.01
8484.3
8477.69
25273.6
9451.57
8534.73
8521.33
8489.96
8476.75
8469.74
8471.28
8474.57
8466.95
25273.6
9451.56
8534.75
8521.33
8489.79
8476.36
8469.52
8472.01
8484.3
8477.69
25273.6
9451.56
8534.77
8521.36
8489.69
8476.22
8468.7
8472.52
8477.72
8482.51
8610.33
8448.95
8381.5
8209.41
8451.09
8466.78
8358.12
8298.16
8124.88
8011.16
8435.35
8339.32
8283.96
8147.27
8044.72
8466.78
8358.12
8298.16
8124.88
8011.16
8610.33
8448.95
8381.5
8209.41
8451.09
3549.11
2061.49
1451.92
1130.74
874.913
4011.68
2275.23
1564.77
1218.19
944.907
4122.12
2235.51
1516.41
1183.66
904.927
4011.68
2275.23
1564.77
1218.19
944.907
3549.11
2061.49
1451.92
1130.74
874.913
858.772
808.373
753.451
640.06
578.35
606.488
981.83
1400.89
1417.8
1399.55
1352.31
1258.72
1127.58
990.339
852.199
694.637
533.964
434.509
395.761
376.585
361.332
347.549
336.54
329.584
326.283
325.2
325.039
325.516
326.253
327.704
329.841
333.493
337.163
346.229
373.032
497.577
691.03
798.447
898.955
936.988
803.504
787.103
758.236
655.796
586.449
614.985
986.144
1407.49
1415.85
1392.51
1349.16
1256.31
1131.74
997.484
857.345
697.543
535.127
434.802
395.794
376.591
361.395
347.569
336.523
329.552
326.249
325.17
325.012
325.492
326.231
327.685
329.824
333.485
337.151
346.203
372.974
497.419
690.931
799.784
898.571
936.669
786.943
769.832
749.035
663.748
590.603
617.768
987.733
1412.67
1418.02
1391.44
1354.13
1266.55
1135.34
995.024
855.359
697.42
535.72
435.005
395.819
376.597
361.418
347.581
336.519
329.541
326.238
325.161
325.004
325.484
326.223
327.678
329.817
333.481
337.147
346.192
372.949
497.362
690.896
800.322
898.452
936.642
803.504
787.103
758.236
655.796
586.449
614.985
986.144
1407.49
1415.85
1392.51
1349.16
1256.31
1131.74
997.484
857.345
697.543
535.127
434.802
395.794
376.591
361.395
347.569
336.523
329.552
326.249
325.17
325.012
325.492
326.231
327.685
329.824
333.485
337.151
346.203
372.974
497.419
690.931
799.784
898.571
936.669
858.772
808.373
753.451
640.06
578.35
606.488
981.83
1400.89
1417.8
1399.55
1352.31
1258.72
1127.58
990.339
852.199
694.637
533.964
434.509
395.761
376.585
361.332
347.549
336.54
329.584
326.283
325.2
325.039
325.516
326.253
327.704
329.841
333.493
337.163
346.229
373.032
497.577
691.03
798.447
898.955
936.988
946.627
850.06
769.87
659.706
590.431
634.656
989.667
1328.29
1338.83
1331.71
1302.95
1223.56
1107.58
980.327
845.143
687.475
528.551
432.71
395.518
376.499
361.091
347.431
336.592
329.724
326.435
325.338
325.161
325.622
326.351
327.788
329.913
333.525
337.196
346.297
373.204
497.957
691.094
794.943
898.9
937.91
951.32
844.087
736.137
669.455
638.595
718.83
997.977
1210.62
1241.74
1258.07
1231.26
1160.8
1057.41
941.036
814.455
663.676
514.512
428.557
394.878
376.167
360.602
347.155
336.677
330.041
326.805
325.677
325.459
325.884
326.59
327.999
330.09
333.623
337.261
346.435
373.556
498.584
691.103
791.029
897.583
938.545
958.454
874.965
792.651
785.966
824.408
901.202
1050.06
1118
1168.54
1181.77
1149.18
1082.58
992.96
891.889
775.029
630.563
495.053
423.168
393.97
375.614
360.029
346.884
336.862
330.547
327.408
326.251
325.976
326.343
327.016
328.381
330.425
333.84
337.414
346.665
374.109
499.344
690.746
788.085
895.548
938.532
963.092
887.382
839.924
845.419
891.278
972.218
1053.46
1088.07
1111.04
1091.01
1059.12
1001.89
926.301
838.89
728.536
590.334
473.745
417.92
392.941
374.934
359.463
346.731
337.228
331.284
328.269
327.085
326.741
327.031
327.661
328.975
330.958
334.232
337.701
347.051
374.913
500.399
690.467
785.986
893.551
938.216
957.397
904.374
899.034
910.934
940.943
971.949
991.348
1020.63
1022.57
1011.59
974.27
923.937
861.919
783.505
674.932
546.208
454.2
413.424
391.671
374.049
358.896
346.713
337.812
332.276
329.399
328.188
327.763
327.961
328.541
329.794
331.705
334.825
338.159
347.599
375.896
501.458
689.933
784.049
891.116
937.415
968.577
955.307
933.364
899.418
887.656
907.79
940.755
959.608
948.422
925.619
894.715
854.22
801.587
724.891
615.967
504.467
439.44
410.11
390.448
373.192
358.508
346.979
338.729
333.607
330.867
329.631
329.119
329.22
329.749
330.94
332.781
335.755
338.956
348.524
377.368
503.319
690.337
783.277
889.69
937.029
941.107
938.914
877.219
852.617
863.716
887.417
892.803
878.977
869.005
848.743
823.962
791.941
741.487
661.426
556.864
471.662
429.522
407.074
388.741
372.084
358.172
347.421
339.85
335.151
332.548
331.284
330.697
330.709
331.178
332.302
334.079
336.928
340.012
349.654
378.861
504.674
690.303
782.325
887.845
936.02
926.891
943.983
890.74
863.414
851.477
829.791
818.385
808.662
796.627
780.452
763.173
733.2
678.499
595.049
505.809
450.167
423.201
404.602
387.159
371.198
358.197
348.307
341.422
337.116
334.633
333.339
332.68
332.614
333.013
334.08
335.799
338.545
341.555
351.324
381.02
507.063
691.352
782.411
886.705
935.435
974.87
950.413
893.713
845.313
800.366
771.068
752.589
742.925
733.239
722.935
708.244
674.262
613.139
534.008
470.429
437.596
418.428
401.805
385.291
370.392
358.365
349.391
343.197
339.282
336.93
335.625
334.912
334.782
335.119
336.149
337.833
340.529
343.542
353.425
383.4
509.241
692.464
782.805
885.784
934.573
979.202
944.647
894.536
825.145
757.61
712.781
691.431
685.789
679.894
672.903
654.52
613.323
550.372
488.254
450.53
430.416
415.4
399.879
384.185
370.42
359.499
351.454
345.884
342.281
340.007
338.661
337.873
337.661
337.925
338.912
340.564
343.234
346.305
356.341
386.692
512.57
694.587
784.062
885.492
934.191
994.979
953.357
896.991
805.335
710.901
656.684
639.333
638.184
635.146
626.609
600.719
554.509
500.347
461.389
440.16
426.235
412.979
398.29
383.725
371.217
361.427
354.268
349.288
345.968
343.753
342.353
341.477
341.174
341.36
342.308
343.939
346.625
349.833
359.952
390.411
515.744
696.857
786.042
885.398
933.194
1005.31
957.28
887.422
782.618
665.253
610.328
598.965
598.907
595.732
581.065
548.79
506.342
469.948
448.5
435.601
424.806
412.508
398.741
385.385
374.071
365.33
358.896
354.296
351.072
348.774
347.217
346.188
345.744
345.845
346.772
348.438
351.19
354.607
364.947
395.854
521.175
701.181
789.799
887.009
933.544
1000.35
950.451
866.732
758.125
631.02
578.271
568.033
565.984
559.07
538.59
506.017
475.548
455.951
443.772
434.546
424.931
413.01
399.771
387.352
377.075
369.231
363.473
359.294
356.251
353.968
352.359
351.274
350.766
350.885
351.951
353.806
356.802
360.614
371.273
402.534
527.148
706.672
795.357
889.42
933.062
984.129
938.673
851.175
744.332
614.771
558.478
544.024
537.465
524.641
503.188
479.734
463.046
452.28
444.976
437.876
428.772
417.222
404.999
394.022
385.18
378.639
374.035
370.732
368.302
366.457
365.23
364.442
364.191
364.515
365.89
367.91
371.186
375.285
386.658
419.149
544.358
722.758
808.531
896.175
934.697
968.074
933.406
852.093
748.656
613.606
548.906
529.455
519.194
505.059
490.968
479.089
471.202
465.309
460.31
454.386
446.071
435.841
425.614
416.936
410.291
405.672
402.696
400.932
399.995
399.582
399.814
400.083
401.02
402.327
404.655
407.241
411.44
416.008
428.871
463.359
589.419
763.468
840.828
910.329
934.233
964.278
938.305
873.039
782.61
640.279
566.183
546.082
541.255
534.786
531.634
529.211
529.81
531.751
534.637
535.998
534.284
530.211
525.821
522.307
520.111
519.776
521.268
523.601
525.98
528.107
530.557
532.191
534.734
537.047
540.493
543.483
548.227
552.213
565.865
600.824
721.387
875.228
920.734
948.514
944.527
960.046
961.008
947.094
896.636
760.241
678.059
657.176
660.561
664.506
673.018
680.488
690.15
699.185
706.723
709.978
709.307
706.359
703.138
700.773
699.479
699.405
700.895
702.37
703.556
704.266
705.364
705.795
707.061
708.188
710.393
712.349
715.763
719.204
731.147
763.164
863.51
990.613
1022.12
1001.16
949.248
936.107
990.715
1026.75
989.825
878.702
805.316
784.777
787.812
792.543
800.505
807.012
814.499
819.698
820.974
817.915
812.523
806.843
802.686
800.902
801.698
803.39
800.673
795.566
792.26
790.119
789.216
788.298
788.382
788.687
789.954
791.418
794.246
797.94
807.373
833.256
903.605
1008.37
1069.9
1037.74
932.745
1101.05
888.691
1047.03
1019.03
949.175
901.539
887.645
888.459
891.834
898.197
904.383
911.22
915.142
914.908
911.861
907.686
903.727
900.928
899.247
897.742
896.391
894.99
893.5
891.129
888.469
886.903
885.185
884.269
883.569
883.593
883.541
884.746
886.136
891.181
902.295
937.343
990.246
1033.81
897.822
1002.44
15054.4
936.187
930.98
939.748
914.769
893.392
888.928
891.4
897.623
904.542
911.074
916.816
920.228
922.304
923.278
923.648
924.066
924.828
925.32
925.241
925.086
926.359
927.934
929.131
929.774
930.505
930.529
931.052
931.166
931.635
931.335
932.185
931.818
933.498
933.126
942.021
948.12
936.709
993.113
11423
15054.4
936.187
930.98
939.748
914.769
893.392
888.928
891.4
897.623
904.542
911.074
916.816
920.228
922.304
923.278
923.648
924.066
924.828
925.32
925.241
925.086
926.359
927.934
929.131
929.774
930.505
930.529
931.052
931.166
931.635
931.335
932.185
931.818
933.498
933.126
942.021
948.12
936.709
993.113
11423
1101.05
888.691
1047.03
1019.03
949.175
901.539
887.645
888.459
891.834
898.197
904.383
911.22
915.142
914.908
911.861
907.686
903.727
900.928
899.247
897.742
896.391
894.99
893.5
891.129
888.469
886.903
885.185
884.269
883.569
883.593
883.541
884.746
886.136
891.181
902.295
937.343
990.246
1033.81
897.822
1002.44
936.107
990.715
1026.75
989.825
878.702
805.316
784.777
787.812
792.543
800.505
807.012
814.499
819.698
820.974
817.915
812.523
806.843
802.686
800.902
801.698
803.39
800.673
795.566
792.26
790.119
789.216
788.298
788.382
788.687
789.954
791.418
794.246
797.94
807.373
833.256
903.605
1008.37
1069.9
1037.74
932.745
960.046
961.008
947.094
896.636
760.241
678.059
657.176
660.561
664.506
673.018
680.488
690.15
699.185
706.723
709.978
709.307
706.359
703.138
700.773
699.479
699.405
700.895
702.37
703.556
704.266
705.364
705.795
707.061
708.188
710.393
712.349
715.763
719.204
731.147
763.164
863.51
990.613
1022.12
1001.16
949.248
964.278
938.305
873.039
782.61
640.279
566.183
546.082
541.255
534.786
531.634
529.211
529.81
531.751
534.637
535.998
534.284
530.211
525.821
522.307
520.111
519.776
521.268
523.601
525.98
528.107
530.557
532.191
534.734
537.047
540.493
543.483
548.227
552.213
565.865
600.824
721.387
875.228
920.734
948.514
944.527
968.074
933.406
852.093
748.656
613.606
548.906
529.455
519.194
505.059
490.968
479.089
471.202
465.309
460.31
454.386
446.071
435.841
425.614
416.936
410.291
405.672
402.696
400.932
399.995
399.582
399.814
400.083
401.02
402.327
404.655
407.241
411.44
416.008
428.871
463.359
589.419
763.468
840.828
910.329
934.233
984.129
938.673
851.175
744.332
614.771
558.478
544.024
537.465
524.641
503.188
479.734
463.046
452.28
444.976
437.876
428.772
417.222
404.999
394.022
385.18
378.639
374.035
370.732
368.302
366.457
365.23
364.442
364.191
364.515
365.89
367.91
371.186
375.285
386.658
419.149
544.358
722.758
808.531
896.175
934.697
1000.35
950.451
866.732
758.125
631.02
578.271
568.033
565.984
559.07
538.59
506.017
475.548
455.951
443.772
434.546
424.931
413.01
399.771
387.352
377.075
369.231
363.473
359.294
356.251
353.968
352.359
351.274
350.766
350.885
351.951
353.806
356.802
360.614
371.273
402.534
527.148
706.672
795.357
889.42
933.062
1005.31
957.28
887.422
782.618
665.253
610.328
598.965
598.907
595.732
581.065
548.79
506.342
469.948
448.5
435.601
424.806
412.508
398.741
385.385
374.071
365.33
358.896
354.296
351.072
348.774
347.217
346.188
345.744
345.845
346.772
348.438
351.19
354.607
364.947
395.854
521.175
701.181
789.799
887.009
933.544
994.979
953.357
896.991
805.335
710.901
656.684
639.333
638.184
635.146
626.609
600.719
554.509
500.347
461.389
440.16
426.235
412.979
398.29
383.725
371.217
361.427
354.268
349.288
345.968
343.753
342.353
341.477
341.174
341.36
342.308
343.939
346.625
349.833
359.952
390.411
515.744
696.857
786.042
885.398
933.194
979.202
944.647
894.536
825.145
757.61
712.781
691.431
685.789
679.894
672.903
654.52
613.323
550.372
488.254
450.53
430.416
415.4
399.879
384.185
370.42
359.499
351.454
345.884
342.281
340.007
338.661
337.873
337.661
337.925
338.912
340.564
343.234
346.305
356.341
386.692
512.57
694.587
784.062
885.492
934.191
974.87
950.413
893.713
845.313
800.366
771.068
752.589
742.925
733.239
722.935
708.244
674.262
613.139
534.008
470.429
437.596
418.428
401.805
385.291
370.392
358.365
349.391
343.197
339.282
336.93
335.625
334.912
334.782
335.119
336.149
337.833
340.529
343.542
353.425
383.4
509.241
692.464
782.805
885.784
934.573
926.891
943.983
890.74
863.414
851.477
829.791
818.385
808.662
796.627
780.452
763.173
733.2
678.499
595.049
505.809
450.167
423.201
404.602
387.159
371.198
358.197
348.307
341.422
337.116
334.633
333.339
332.68
332.614
333.013
334.08
335.799
338.545
341.555
351.324
381.02
507.063
691.352
782.411
886.705
935.435
941.107
938.914
877.219
852.617
863.716
887.417
892.803
878.977
869.005
848.743
823.962
791.941
741.487
661.426
556.864
471.662
429.522
407.074
388.741
372.084
358.172
347.421
339.85
335.151
332.548
331.284
330.697
330.709
331.178
332.302
334.079
336.928
340.012
349.654
378.861
504.674
690.303
782.325
887.845
936.02
968.577
955.307
933.364
899.418
887.656
907.79
940.755
959.608
948.422
925.619
894.715
854.22
801.587
724.891
615.967
504.467
439.44
410.11
390.448
373.192
358.508
346.979
338.729
333.607
330.867
329.631
329.119
329.22
329.749
330.94
332.781
335.755
338.956
348.524
377.368
503.319
690.337
783.277
889.69
937.029
957.397
904.374
899.034
910.934
940.943
971.949
991.348
1020.63
1022.57
1011.59
974.27
923.937
861.919
783.505
674.932
546.208
454.2
413.424
391.671
374.049
358.896
346.713
337.812
332.276
329.399
328.188
327.763
327.961
328.541
329.794
331.705
334.825
338.159
347.599
375.896
501.458
689.933
784.049
891.116
937.415
963.092
887.382
839.924
845.419
891.278
972.218
1053.46
1088.07
1111.04
1091.01
1059.12
1001.89
926.301
838.89
728.536
590.334
473.745
417.92
392.941
374.934
359.463
346.731
337.228
331.284
328.269
327.085
326.741
327.031
327.661
328.975
330.958
334.232
337.701
347.051
374.913
500.399
690.467
785.986
893.551
938.216
958.454
874.965
792.651
785.966
824.408
901.202
1050.06
1118
1168.54
1181.77
1149.18
1082.58
992.96
891.889
775.029
630.563
495.053
423.168
393.97
375.614
360.029
346.884
336.862
330.547
327.408
326.251
325.976
326.343
327.016
328.381
330.425
333.84
337.414
346.665
374.109
499.344
690.746
788.085
895.548
938.532
951.32
844.087
736.137
669.455
638.595
718.83
997.977
1210.62
1241.74
1258.07
1231.26
1160.8
1057.41
941.036
814.455
663.676
514.512
428.557
394.878
376.167
360.602
347.155
336.677
330.041
326.805
325.677
325.459
325.884
326.59
327.999
330.09
333.623
337.261
346.435
373.556
498.584
691.103
791.029
897.583
938.545
946.627
850.06
769.87
659.706
590.431
634.656
989.667
1328.29
1338.83
1331.71
1302.95
1223.56
1107.58
980.327
845.143
687.475
528.551
432.71
395.518
376.499
361.091
347.431
336.592
329.724
326.435
325.338
325.161
325.622
326.351
327.788
329.913
333.525
337.196
346.297
373.204
497.957
691.094
794.943
898.9
937.91
)
;

boundaryField
{
    inlet
    {
        type            fixedValue;
        value           uniform 10000;
    }
    outlet
    {
        type            fixedValue;
        value           uniform 1000;
    }
    obstacle
    {
        type            zeroGradient;
    }
    empty
    {
        type            empty;
    }
}


// ************************************************************************* //
