/*--------------------------------*- C++ -*----------------------------------*\
| =========                 |                                                 |
| \\      /  F ield         | OpenFOAM: The Open Source CFD Toolbox           |
|  \\    /   O peration     | Version:  v1912                                 |
|   \\  /    A nd           | Website:  www.openfoam.com                      |
|    \\/     M anipulation  |                                                 |
\*---------------------------------------------------------------------------*/
FoamFile
{
    version     2.0;
    format      ascii;
    class       volVectorField;
    location    "7.08";
    object      U;
}
// * * * * * * * * * * * * * * * * * * * * * * * * * * * * * * * * * * * * * //

dimensions      [0 1 -1 0 0 0 0];


internalField   nonuniform List<vector> 
1900
(
(-0.694257 -5.02614e-07 0)
(-0.00722518 -5.28861e-07 0)
(0.0843117 -1.95116e-06 0)
(0.0833505 -2.74795e-06 0)
(0.0861041 -6.11519e-06 0)
(0.0890859 -4.25892e-05 0)
(0.0928039 -0.000121521 0)
(0.0966754 0.000343042 0)
(0.0990031 0.00319803 0)
(0.09165 0.0119361 0)
(-0.694257 -3.86789e-07 0)
(-0.00722446 -9.13359e-07 0)
(0.0843112 -1.57692e-06 0)
(0.0833476 -3.12954e-06 0)
(0.0860888 -1.38374e-05 0)
(0.0890245 -5.56081e-05 0)
(0.092681 -0.000153236 0)
(0.0961582 0.00031683 0)
(0.100877 0.00222315 0)
(0.103049 0.0113284 0)
(-0.694257 -2.82036e-14 0)
(-0.00722362 -1.02507e-14 0)
(0.0843102 -2.79694e-14 0)
(0.0833444 -3.00804e-14 0)
(0.0860728 -3.42603e-14 0)
(0.0889759 1.83141e-14 0)
(0.0925853 2.90679e-14 0)
(0.096286 2.25346e-14 0)
(0.101406 1.29172e-14 0)
(0.109889 1.7312e-14 0)
(-0.694257 3.86789e-07 0)
(-0.00722446 9.13359e-07 0)
(0.0843112 1.57692e-06 0)
(0.0833476 3.12954e-06 0)
(0.0860888 1.38374e-05 0)
(0.0890245 5.56081e-05 0)
(0.092681 0.000153236 0)
(0.0961582 -0.00031683 0)
(0.100877 -0.00222315 0)
(0.103049 -0.0113284 0)
(-0.694257 5.02614e-07 0)
(-0.00722518 5.28861e-07 0)
(0.0843117 1.95116e-06 0)
(0.0833505 2.74795e-06 0)
(0.0861041 6.11519e-06 0)
(0.0890859 4.25892e-05 0)
(0.0928039 0.000121521 0)
(0.0966754 -0.000343042 0)
(0.0990031 -0.00319803 0)
(0.09165 -0.0119361 0)
(0.0934119 0.038434 0)
(0.129777 0.0514888 0)
(0.177095 0.0756665 0)
(0.253368 0.117288 0)
(0.398174 0.173822 0)
(0.117009 0.0276381 0)
(0.143596 0.028606 0)
(0.173996 0.0381546 0)
(0.236328 0.059948 0)
(0.377542 0.102446 0)
(0.12826 3.20274e-14 0)
(0.152919 1.25483e-14 0)
(0.184784 1.79537e-14 0)
(0.247533 2.84564e-15 0)
(0.387825 8.64258e-15 0)
(0.117009 -0.0276381 0)
(0.143596 -0.028606 0)
(0.173996 -0.0381546 0)
(0.236328 -0.059948 0)
(0.377542 -0.102446 0)
(0.0934119 -0.038434 0)
(0.129777 -0.0514888 0)
(0.177095 -0.0756665 0)
(0.253368 -0.117288 0)
(0.398174 -0.173822 0)
(0.84792 0.0301556 0)
(1.10934 -0.0517297 0)
(1.26113 -0.0840502 0)
(1.34593 -0.0935233 0)
(1.43065 -0.108978 0)
(0.82086 -0.0174716 0)
(1.12181 -0.0482153 0)
(1.29288 -0.0595616 0)
(1.37929 -0.0591823 0)
(1.45612 -0.0777102 0)
(0.816995 2.14528e-15 0)
(1.1258 1.0729e-14 0)
(1.28826 -2.028e-14 0)
(1.37064 -7.60218e-15 0)
(1.4439 1.41861e-13 0)
(0.82086 0.0174716 0)
(1.12181 0.0482153 0)
(1.29288 0.0595616 0)
(1.37929 0.0591823 0)
(1.45612 0.0777102 0)
(0.84792 -0.0301556 0)
(1.10934 0.0517297 0)
(1.26113 0.0840502 0)
(1.34593 0.0935233 0)
(1.43065 0.108978 0)
(1.48567 -0.0316782 0)
(1.50364 0.00502715 0)
(1.52508 0.0096229 0)
(1.57708 -0.0310592 0)
(1.59456 -0.0167741 0)
(1.57296 0.00664813 0)
(1.33474 -0.00126535 0)
(1.06776 -0.0229386 0)
(1.0179 -0.0434479 0)
(0.935902 -0.0675901 0)
(0.805679 -0.08278 0)
(0.66508 -0.0773203 0)
(0.548642 -0.0596352 0)
(0.460549 -0.0431937 0)
(0.38423 -0.0326117 0)
(0.294597 -0.024915 0)
(0.185688 -0.0184889 0)
(0.109844 -0.0149476 0)
(0.0879019 -0.0138973 0)
(0.0860926 -0.0135453 0)
(0.0882178 -0.0131644 0)
(0.0915855 -0.0127164 0)
(0.0977024 -0.0124577 0)
(0.108259 -0.0123908 0)
(0.122699 -0.0123941 0)
(0.139182 -0.0123793 0)
(0.156151 -0.0124416 0)
(0.172725 -0.0122947 0)
(0.189006 -0.0124328 0)
(0.204753 -0.0122831 0)
(0.219703 -0.0125423 0)
(0.233548 -0.0122005 0)
(0.247377 -0.0127592 0)
(0.25657 -0.0123978 0)
(0.240299 -0.0128391 0)
(0.129176 -0.0124515 0)
(-0.00328822 -0.0121653 0)
(-0.0660572 -0.0100412 0)
(-0.0693565 -0.0175283 0)
(-0.114828 -0.0141925 0)
(1.48826 -0.0330251 0)
(1.50543 0.00802392 0)
(1.52421 0.0133843 0)
(1.58736 -0.0107068 0)
(1.60906 -0.00855125 0)
(1.58012 0.000468249 0)
(1.34854 -0.00284869 0)
(1.06798 -0.0118847 0)
(1.01524 -0.0215175 0)
(0.925807 -0.032941 0)
(0.796362 -0.0384182 0)
(0.666366 -0.0370334 0)
(0.559384 -0.0308531 0)
(0.471906 -0.022257 0)
(0.392236 -0.0165566 0)
(0.298065 -0.0123522 0)
(0.186481 -0.00927804 0)
(0.109947 -0.00747312 0)
(0.087888 -0.00694846 0)
(0.0861387 -0.00677662 0)
(0.0883079 -0.00657627 0)
(0.0916322 -0.00635865 0)
(0.0977557 -0.00622685 0)
(0.10834 -0.00619696 0)
(0.122811 -0.00620002 0)
(0.139329 -0.00619278 0)
(0.156333 -0.00622373 0)
(0.172937 -0.0061499 0)
(0.189246 -0.00621892 0)
(0.205018 -0.00614324 0)
(0.219991 -0.00627325 0)
(0.233854 -0.00609964 0)
(0.247709 -0.00638159 0)
(0.25692 -0.00618779 0)
(0.240775 -0.00641834 0)
(0.129876 -0.00618978 0)
(-0.00261512 -0.00602937 0)
(-0.0650203 -0.00482729 0)
(-0.0694555 -0.00890786 0)
(-0.115401 -0.00708642 0)
(1.48372 -2.5545e-13 0)
(1.50567 1.55582e-13 0)
(1.52717 4.33299e-13 0)
(1.58764 2.03806e-12 0)
(1.61311 1.08288e-12 0)
(1.58201 3.93861e-13 0)
(1.3509 -1.03535e-12 0)
(1.06628 -1.49096e-12 0)
(1.01659 -1.45733e-12 0)
(0.930019 -2.795e-13 0)
(0.808844 9.91134e-13 0)
(0.679011 6.94029e-13 0)
(0.559281 8.48807e-13 0)
(0.46687 1.40078e-12 0)
(0.388962 2.85826e-12 0)
(0.298336 3.78753e-12 0)
(0.187635 1.94805e-12 0)
(0.110309 -6.12121e-13 0)
(0.0879573 -2.34404e-12 0)
(0.0861914 -2.93435e-12 0)
(0.0883698 -2.58005e-12 0)
(0.0916734 -2.08378e-13 0)
(0.0977657 2.09134e-12 0)
(0.108345 1.98605e-12 0)
(0.122822 -1.53814e-12 0)
(0.139345 -3.3863e-12 0)
(0.156354 -5.54e-12 0)
(0.172961 -8.26752e-12 0)
(0.189275 -3.99143e-12 0)
(0.205053 -3.53879e-12 0)
(0.220034 -4.23741e-12 0)
(0.233907 6.84978e-13 0)
(0.247783 3.25264e-12 0)
(0.257027 1.39522e-12 0)
(0.240971 5.61867e-13 0)
(0.130222 1.55603e-12 0)
(-0.00215275 2.23527e-12 0)
(-0.0640813 2.95389e-12 0)
(-0.0685069 -5.79669e-13 0)
(-0.114208 -4.13277e-13 0)
(1.48826 0.0330251 0)
(1.50543 -0.00802392 0)
(1.52421 -0.0133843 0)
(1.58736 0.0107068 0)
(1.60906 0.00855125 0)
(1.58012 -0.000468249 0)
(1.34854 0.00284869 0)
(1.06798 0.0118847 0)
(1.01524 0.0215175 0)
(0.925807 0.032941 0)
(0.796362 0.0384182 0)
(0.666366 0.0370334 0)
(0.559384 0.0308531 0)
(0.471906 0.022257 0)
(0.392236 0.0165566 0)
(0.298065 0.0123522 0)
(0.186481 0.00927804 0)
(0.109947 0.00747312 0)
(0.087888 0.00694846 0)
(0.0861387 0.00677662 0)
(0.0883079 0.00657627 0)
(0.0916322 0.00635865 0)
(0.0977557 0.00622685 0)
(0.10834 0.00619696 0)
(0.122811 0.00620002 0)
(0.139329 0.00619278 0)
(0.156333 0.00622373 0)
(0.172937 0.0061499 0)
(0.189246 0.00621892 0)
(0.205018 0.00614324 0)
(0.219991 0.00627325 0)
(0.233854 0.00609964 0)
(0.247709 0.00638159 0)
(0.25692 0.00618779 0)
(0.240775 0.00641834 0)
(0.129876 0.00618978 0)
(-0.00261512 0.00602937 0)
(-0.0650203 0.00482729 0)
(-0.0694555 0.00890786 0)
(-0.115401 0.00708642 0)
(1.48567 0.0316782 0)
(1.50364 -0.00502715 0)
(1.52508 -0.0096229 0)
(1.57708 0.0310592 0)
(1.59456 0.0167741 0)
(1.57296 -0.00664813 0)
(1.33474 0.00126535 0)
(1.06776 0.0229386 0)
(1.0179 0.0434479 0)
(0.935902 0.0675901 0)
(0.805679 0.08278 0)
(0.66508 0.0773203 0)
(0.548642 0.0596352 0)
(0.460549 0.0431937 0)
(0.38423 0.0326117 0)
(0.294597 0.024915 0)
(0.185688 0.0184889 0)
(0.109844 0.0149476 0)
(0.0879019 0.0138973 0)
(0.0860926 0.0135453 0)
(0.0882178 0.0131644 0)
(0.0915855 0.0127164 0)
(0.0977024 0.0124577 0)
(0.108259 0.0123908 0)
(0.122699 0.0123941 0)
(0.139182 0.0123793 0)
(0.156151 0.0124416 0)
(0.172725 0.0122947 0)
(0.189006 0.0124328 0)
(0.204753 0.0122831 0)
(0.219703 0.0125423 0)
(0.233548 0.0122005 0)
(0.247377 0.0127592 0)
(0.25657 0.0123978 0)
(0.240299 0.0128391 0)
(0.129176 0.0124515 0)
(-0.00328822 0.0121653 0)
(-0.0660572 0.0100412 0)
(-0.0693565 0.0175283 0)
(-0.114828 0.0141925 0)
(1.49961 0.0335781 0)
(1.50575 0.024116 0)
(1.51611 0.0274187 0)
(1.54978 0.0725069 0)
(1.54999 0.0387451 0)
(1.5029 -0.010952 0)
(1.25137 -0.000896763 0)
(1.03875 0.0413677 0)
(0.974097 0.0945124 0)
(0.872753 0.149709 0)
(0.74206 0.177286 0)
(0.626464 0.15932 0)
(0.535233 0.122265 0)
(0.457906 0.090003 0)
(0.382893 0.0681609 0)
(0.290666 0.0519624 0)
(0.180747 0.0386654 0)
(0.10761 0.0311034 0)
(0.0872807 0.0288295 0)
(0.0856739 0.0280146 0)
(0.0877966 0.0272627 0)
(0.0913337 0.0264345 0)
(0.0976452 0.0259314 0)
(0.108286 0.0257485 0)
(0.122744 0.0257307 0)
(0.139222 0.0256954 0)
(0.156181 0.0258279 0)
(0.172768 0.0255289 0)
(0.189059 0.0258141 0)
(0.204827 0.0255129 0)
(0.219809 0.0260373 0)
(0.233716 0.0253614 0)
(0.247566 0.0264652 0)
(0.256846 0.0258296 0)
(0.240362 0.026689 0)
(0.129103 0.0261656 0)
(-0.00265567 0.0257503 0)
(-0.0661913 0.0220222 0)
(-0.0672626 0.033285 0)
(-0.110996 0.0290744 0)
(1.45521 0.181426 0)
(1.45939 0.161507 0)
(1.46097 0.140073 0)
(1.45557 0.17544 0)
(1.40015 0.138917 0)
(1.3196 0.0368335 0)
(1.10093 0.0305411 0)
(0.956466 0.0823878 0)
(0.85018 0.174638 0)
(0.733702 0.271214 0)
(0.625815 0.293143 0)
(0.550771 0.253956 0)
(0.486629 0.198902 0)
(0.424466 0.152109 0)
(0.357778 0.118079 0)
(0.270012 0.0904421 0)
(0.166434 0.0674667 0)
(0.102277 0.0551795 0)
(0.085711 0.0515126 0)
(0.0846393 0.0500069 0)
(0.086679 0.0487135 0)
(0.0905229 0.0474139 0)
(0.0973478 0.0465864 0)
(0.108301 0.0462351 0)
(0.122835 0.0461677 0)
(0.139298 0.0460897 0)
(0.156225 0.0463257 0)
(0.172844 0.0457967 0)
(0.189164 0.0463032 0)
(0.204985 0.0457793 0)
(0.220048 0.0466816 0)
(0.234114 0.0455334 0)
(0.248029 0.0473808 0)
(0.257495 0.0464305 0)
(0.240616 0.0478243 0)
(0.129263 0.0470898 0)
(-0.00131037 0.0467755 0)
(-0.0660372 0.0416391 0)
(-0.0661967 0.055668 0)
(-0.108944 0.051733 0)
(1.38637 0.287656 0)
(1.38544 0.275029 0)
(1.40144 0.25767 0)
(1.35828 0.247352 0)
(1.28741 0.18661 0)
(1.1752 0.116273 0)
(0.994851 0.125516 0)
(0.830772 0.19843 0)
(0.698508 0.325451 0)
(0.582873 0.392956 0)
(0.510662 0.375669 0)
(0.468024 0.317304 0)
(0.427099 0.251594 0)
(0.381723 0.199081 0)
(0.324446 0.159163 0)
(0.240819 0.123348 0)
(0.146308 0.0932179 0)
(0.095144 0.0783377 0)
(0.0834656 0.073787 0)
(0.0830357 0.0716843 0)
(0.0850533 0.0698421 0)
(0.0893231 0.0681161 0)
(0.0967927 0.0670187 0)
(0.108196 0.0665114 0)
(0.122886 0.0663789 0)
(0.139349 0.0662456 0)
(0.156224 0.0665849 0)
(0.172879 0.0658481 0)
(0.18922 0.0665707 0)
(0.205096 0.0658601 0)
(0.220245 0.0670919 0)
(0.234502 0.0655865 0)
(0.248503 0.068 0)
(0.258154 0.0669266 0)
(0.240727 0.0686852 0)
(0.129319 0.0677572 0)
(0.000228372 0.0679838 0)
(-0.0652809 0.0618723 0)
(-0.0655394 0.0771863 0)
(-0.107878 0.0737609 0)
(1.25455 0.337266 0)
(1.26017 0.322827 0)
(1.24983 0.307882 0)
(1.20469 0.293162 0)
(1.12484 0.250134 0)
(0.994859 0.222366 0)
(0.814276 0.259582 0)
(0.644048 0.368549 0)
(0.515398 0.462403 0)
(0.432725 0.472473 0)
(0.406061 0.429707 0)
(0.39115 0.357139 0)
(0.36909 0.287929 0)
(0.336527 0.235829 0)
(0.285211 0.192165 0)
(0.204628 0.149444 0)
(0.123681 0.115548 0)
(0.0878455 0.100608 0)
(0.080896 0.0956546 0)
(0.0809359 0.0929923 0)
(0.0830585 0.0905774 0)
(0.0878669 0.088485 0)
(0.0960515 0.0871505 0)
(0.107973 0.0865201 0)
(0.122862 0.0863314 0)
(0.139337 0.0861415 0)
(0.156145 0.0865865 0)
(0.172843 0.0856658 0)
(0.189188 0.086598 0)
(0.205109 0.0857427 0)
(0.220335 0.087261 0)
(0.234797 0.0855095 0)
(0.248893 0.0883243 0)
(0.258687 0.0872671 0)
(0.240641 0.0892861 0)
(0.129104 0.0882872 0)
(0.00161045 0.0893326 0)
(-0.0644328 0.082393 0)
(-0.0650574 0.098501 0)
(-0.107333 0.0955168 0)
(1.07651 0.408671 0)
(1.06371 0.39166 0)
(1.02013 0.370401 0)
(0.96732 0.348787 0)
(0.875677 0.33628 0)
(0.720986 0.35156 0)
(0.543178 0.432413 0)
(0.40805 0.525491 0)
(0.334593 0.543645 0)
(0.314738 0.517514 0)
(0.32138 0.449452 0)
(0.324296 0.373077 0)
(0.31466 0.312054 0)
(0.290025 0.262778 0)
(0.240297 0.215216 0)
(0.163648 0.167576 0)
(0.101465 0.13476 0)
(0.0804326 0.121933 0)
(0.0773624 0.116965 0)
(0.0778884 0.113716 0)
(0.0805054 0.11076 0)
(0.0861146 0.108432 0)
(0.0951516 0.106897 0)
(0.107698 0.106175 0)
(0.122871 0.105944 0)
(0.139427 0.105703 0)
(0.156215 0.106258 0)
(0.173021 0.105176 0)
(0.189407 0.10631 0)
(0.20542 0.105351 0)
(0.220765 0.107115 0)
(0.235487 0.105213 0)
(0.249756 0.108287 0)
(0.259734 0.107296 0)
(0.24124 0.109514 0)
(0.129942 0.108469 0)
(0.0044929 0.110354 0)
(-0.0614336 0.102531 0)
(-0.0623121 0.119062 0)
(-0.104445 0.116578 0)
(0.824909 0.458686 0)
(0.781146 0.438509 0)
(0.7262 0.413213 0)
(0.643694 0.407594 0)
(0.51666 0.441627 0)
(0.370811 0.51907 0)
(0.261102 0.591465 0)
(0.214114 0.605644 0)
(0.208013 0.57733 0)
(0.232162 0.517456 0)
(0.254298 0.44655 0)
(0.266594 0.383458 0)
(0.264095 0.330624 0)
(0.241827 0.281644 0)
(0.190563 0.229939 0)
(0.123534 0.181606 0)
(0.0842897 0.153917 0)
(0.0748469 0.14314 0)
(0.0739935 0.137927 0)
(0.074778 0.133957 0)
(0.0779426 0.130535 0)
(0.0843457 0.127905 0)
(0.0941792 0.126266 0)
(0.107258 0.125486 0)
(0.122631 0.12523 0)
(0.139189 0.124952 0)
(0.155864 0.125618 0)
(0.172713 0.124391 0)
(0.189029 0.125729 0)
(0.205043 0.124709 0)
(0.220403 0.126683 0)
(0.235281 0.124712 0)
(0.249628 0.127932 0)
(0.259595 0.127053 0)
(0.240434 0.129425 0)
(0.128762 0.128496 0)
(0.00490188 0.131295 0)
(-0.0614038 0.122674 0)
(-0.0628254 0.13986 0)
(-0.105691 0.137704 0)
(0.501089 0.479759 0)
(0.424092 0.482242 0)
(0.352695 0.47507 0)
(0.250072 0.530038 0)
(0.155151 0.602607 0)
(0.0972643 0.647041 0)
(0.0855046 0.644161 0)
(0.102777 0.6122 0)
(0.137289 0.559134 0)
(0.172262 0.499384 0)
(0.199321 0.441411 0)
(0.216159 0.388904 0)
(0.215811 0.340097 0)
(0.19074 0.28945 0)
(0.138837 0.235207 0)
(0.0888901 0.192497 0)
(0.0699337 0.17223 0)
(0.0677818 0.163462 0)
(0.0685144 0.157931 0)
(0.070288 0.153369 0)
(0.0746652 0.149723 0)
(0.082247 0.146976 0)
(0.0931751 0.14525 0)
(0.107046 0.144429 0)
(0.122866 0.144157 0)
(0.139657 0.143846 0)
(0.156456 0.144611 0)
(0.173521 0.143241 0)
(0.18996 0.144771 0)
(0.206151 0.143715 0)
(0.221679 0.145864 0)
(0.236824 0.143862 0)
(0.251358 0.147156 0)
(0.261481 0.146361 0)
(0.242181 0.1489 0)
(0.131092 0.148177 0)
(0.00914357 0.151874 0)
(-0.057168 0.142472 0)
(-0.0588531 0.160006 0)
(-0.10199 0.158281 0)
(0.109661 0.531181 0)
(0.0612512 0.558041 0)
(0.0234007 0.592265 0)
(-0.0218595 0.640947 0)
(-0.0393793 0.666899 0)
(-0.0254185 0.656811 0)
(0.00589232 0.626232 0)
(0.0457856 0.58425 0)
(0.0850771 0.534968 0)
(0.121574 0.484763 0)
(0.151861 0.437387 0)
(0.169325 0.391272 0)
(0.166196 0.343594 0)
(0.13628 0.290795 0)
(0.0917095 0.239321 0)
(0.0652203 0.206916 0)
(0.0609511 0.191949 0)
(0.0624351 0.183711 0)
(0.0639657 0.177464 0)
(0.0665011 0.172374 0)
(0.0718366 0.168485 0)
(0.0803586 0.165625 0)
(0.0920203 0.163858 0)
(0.106304 0.163025 0)
(0.122242 0.162756 0)
(0.138982 0.162403 0)
(0.155737 0.163259 0)
(0.172679 0.161791 0)
(0.18913 0.163464 0)
(0.205346 0.162426 0)
(0.220901 0.164721 0)
(0.236186 0.162737 0)
(0.250796 0.166059 0)
(0.260915 0.165294 0)
(0.2413 0.167907 0)
(0.130245 0.167297 0)
(0.0101156 0.171917 0)
(-0.056107 0.162176 0)
(-0.0580015 0.180184 0)
(-0.101906 0.178874 0)
(-0.116069 0.555186 0)
(-0.125608 0.58022 0)
(-0.118382 0.614246 0)
(-0.114376 0.644857 0)
(-0.0998422 0.647501 0)
(-0.0743698 0.627364 0)
(-0.0395194 0.594179 0)
(0.00308642 0.554729 0)
(0.0431738 0.511598 0)
(0.0807302 0.470077 0)
(0.111347 0.429344 0)
(0.124823 0.385832 0)
(0.115441 0.336975 0)
(0.083974 0.284478 0)
(0.0550877 0.243025 0)
(0.0476774 0.221415 0)
(0.0507662 0.210176 0)
(0.0544519 0.202226 0)
(0.0573577 0.195631 0)
(0.0615395 0.190458 0)
(0.0684302 0.186778 0)
(0.0783444 0.183907 0)
(0.091206 0.182115 0)
(0.10633 0.181253 0)
(0.122771 0.180969 0)
(0.139801 0.180542 0)
(0.156799 0.181451 0)
(0.173862 0.17991 0)
(0.19052 0.181645 0)
(0.206879 0.180626 0)
(0.222537 0.183014 0)
(0.237947 0.181039 0)
(0.252557 0.184335 0)
(0.262654 0.183564 0)
(0.243102 0.186299 0)
(0.13266 0.18598 0)
(0.0140702 0.191506 0)
(-0.0523761 0.181463 0)
(-0.0544565 0.199905 0)
(-0.0990602 0.199164 0)
(-0.154316 0.534444 0)
(-0.149207 0.556872 0)
(-0.134706 0.588105 0)
(-0.128764 0.615482 0)
(-0.127524 0.614365 0)
(-0.109504 0.592205 0)
(-0.0745256 0.561356 0)
(-0.0324168 0.526619 0)
(0.00795704 0.491589 0)
(0.0448242 0.456958 0)
(0.0718091 0.419462 0)
(0.0777766 0.376455 0)
(0.0632912 0.327642 0)
(0.0407649 0.282771 0)
(0.0327774 0.254436 0)
(0.0372056 0.238951 0)
(0.0438531 0.228855 0)
(0.0484331 0.220372 0)
(0.0520326 0.213161 0)
(0.057449 0.208022 0)
(0.0654056 0.204145 0)
(0.0761839 0.201278 0)
(0.0896156 0.199522 0)
(0.105007 0.198703 0)
(0.121504 0.198468 0)
(0.138498 0.198016 0)
(0.155498 0.199025 0)
(0.172516 0.197496 0)
(0.189283 0.199294 0)
(0.205735 0.198371 0)
(0.221478 0.200858 0)
(0.237016 0.19894 0)
(0.25163 0.2022 0)
(0.261705 0.20141 0)
(0.242265 0.204243 0)
(0.132413 0.204207 0)
(0.0157915 0.210784 0)
(-0.0502216 0.200697 0)
(-0.0521108 0.219559 0)
(-0.097136 0.219444 0)
(-0.150578 0.51575 0)
(-0.13705 0.533259 0)
(-0.123625 0.561651 0)
(-0.131 0.582112 0)
(-0.149921 0.578541 0)
(-0.140358 0.555031 0)
(-0.10221 0.531291 0)
(-0.0616256 0.501511 0)
(-0.021337 0.473114 0)
(0.0127192 0.441353 0)
(0.0324492 0.403805 0)
(0.0311412 0.360137 0)
(0.0181375 0.315659 0)
(0.0101368 0.282966 0)
(0.0152423 0.264579 0)
(0.0249844 0.253091 0)
(0.0333032 0.243561 0)
(0.0393772 0.235405 0)
(0.0449514 0.229021 0)
(0.0521812 0.223955 0)
(0.0621278 0.220303 0)
(0.074692 0.217512 0)
(0.0895368 0.215804 0)
(0.105899 0.215014 0)
(0.123009 0.214829 0)
(0.140388 0.214342 0)
(0.157688 0.215433 0)
(0.174861 0.21393 0)
(0.191871 0.21569 0)
(0.208444 0.214855 0)
(0.224262 0.217387 0)
(0.239833 0.215501 0)
(0.254287 0.218701 0)
(0.264304 0.217867 0)
(0.245421 0.220811 0)
(0.13702 0.221009 0)
(0.0219654 0.228561 0)
(-0.0442004 0.218728 0)
(-0.0461182 0.238136 0)
(-0.0916736 0.238698 0)
(-0.130742 0.501737 0)
(-0.113211 0.506971 0)
(-0.101803 0.529074 0)
(-0.126951 0.547318 0)
(-0.165393 0.542101 0)
(-0.161061 0.519531 0)
(-0.121485 0.504564 0)
(-0.0842132 0.478406 0)
(-0.0469035 0.454346 0)
(-0.0202186 0.423378 0)
(-0.00912353 0.386198 0)
(-0.0119732 0.346265 0)
(-0.0136688 0.313374 0)
(-0.00636831 0.292421 0)
(0.00579955 0.278506 0)
(0.0175678 0.267853 0)
(0.0272104 0.258853 0)
(0.0338984 0.250361 0)
(0.0404556 0.243216 0)
(0.0488972 0.238199 0)
(0.0595537 0.234758 0)
(0.0724446 0.23216 0)
(0.0873422 0.230686 0)
(0.103607 0.230125 0)
(0.120593 0.230186 0)
(0.137892 0.229834 0)
(0.1552 0.231152 0)
(0.17234 0.229805 0)
(0.189544 0.231568 0)
(0.206227 0.230893 0)
(0.222143 0.23344 0)
(0.23783 0.231596 0)
(0.252242 0.2347 0)
(0.262239 0.233773 0)
(0.243689 0.236682 0)
(0.136565 0.237028 0)
(0.0238749 0.245895 0)
(-0.0416174 0.23679 0)
(-0.0429483 0.25657 0)
(-0.0883638 0.258133 0)
(-0.100059 0.48348 0)
(-0.0926055 0.481639 0)
(-0.0844587 0.494297 0)
(-0.123604 0.51361 0)
(-0.175417 0.509308 0)
(-0.17704 0.49105 0)
(-0.140743 0.482908 0)
(-0.107533 0.458807 0)
(-0.0749659 0.43558 0)
(-0.0558315 0.403556 0)
(-0.047609 0.367767 0)
(-0.0444836 0.334512 0)
(-0.0354736 0.312278 0)
(-0.0212774 0.298662 0)
(-0.00617552 0.288758 0)
(0.00685104 0.279371 0)
(0.0164271 0.270057 0)
(0.0243129 0.262079 0)
(0.0328806 0.255854 0)
(0.0436081 0.251778 0)
(0.0565255 0.248933 0)
(0.0714504 0.246575 0)
(0.0879411 0.245157 0)
(0.105299 0.244577 0)
(0.122965 0.244654 0)
(0.140639 0.24421 0)
(0.158185 0.245566 0)
(0.175366 0.244259 0)
(0.192708 0.245732 0)
(0.209353 0.245049 0)
(0.225242 0.247362 0)
(0.240861 0.245361 0)
(0.255006 0.248159 0)
(0.264854 0.24704 0)
(0.246919 0.249823 0)
(0.142313 0.250358 0)
(0.0317469 0.260044 0)
(-0.0332547 0.251943 0)
(-0.0340416 0.272276 0)
(-0.0789186 0.275024 0)
(-0.0705736 0.465753 0)
(-0.0769458 0.462202 0)
(-0.0718137 0.465544 0)
(-0.1195 0.485375 0)
(-0.178141 0.482067 0)
(-0.188445 0.46831 0)
(-0.157372 0.461918 0)
(-0.128763 0.436868 0)
(-0.100881 0.410896 0)
(-0.0865523 0.3785 0)
(-0.0757382 0.350798 0)
(-0.0632744 0.333369 0)
(-0.0467712 0.320415 0)
(-0.0303134 0.308324 0)
(-0.0144853 0.298208 0)
(-0.00109553 0.289083 0)
(0.00930018 0.28026 0)
(0.0184974 0.272174 0)
(0.0286334 0.265728 0)
(0.040605 0.261459 0)
(0.054204 0.258369 0)
(0.0694024 0.255771 0)
(0.0860641 0.25418 0)
(0.103584 0.253449 0)
(0.121415 0.253394 0)
(0.139311 0.252617 0)
(0.157052 0.253818 0)
(0.17456 0.25229 0)
(0.191997 0.253347 0)
(0.208721 0.252492 0)
(0.224723 0.254629 0)
(0.24036 0.252452 0)
(0.254444 0.255158 0)
(0.264055 0.253734 0)
(0.246488 0.255914 0)
(0.145493 0.256183 0)
(0.0389182 0.268644 0)
(-0.025374 0.264106 0)
(-0.0254592 0.286783 0)
(-0.0689514 0.292114 0)
(-0.0541216 0.449553 0)
(-0.0656207 0.44777 0)
(-0.0634844 0.446058 0)
(-0.115005 0.462063 0)
(-0.176741 0.455876 0)
(-0.196443 0.43985 0)
(-0.171383 0.429917 0)
(-0.148881 0.405344 0)
(-0.126543 0.384307 0)
(-0.111792 0.362241 0)
(-0.094848 0.344768 0)
(-0.0778058 0.327772 0)
(-0.0594317 0.314922 0)
(-0.0416971 0.303686 0)
(-0.0253089 0.292953 0)
(-0.0119019 0.281917 0)
(-0.000957685 0.27113 0)
(0.00976758 0.26165 0)
(0.0218809 0.254315 0)
(0.0357818 0.249251 0)
(0.0512148 0.244894 0)
(0.0679439 0.240368 0)
(0.085634 0.236622 0)
(0.103818 0.233856 0)
(0.122036 0.232048 0)
(0.140175 0.229494 0)
(0.158255 0.229651 0)
(0.175928 0.226997 0)
(0.19343 0.227224 0)
(0.210314 0.225818 0)
(0.226507 0.227949 0)
(0.242149 0.225437 0)
(0.256342 0.228418 0)
(0.265431 0.22699 0)
(0.248443 0.229634 0)
(0.154156 0.233345 0)
(0.0556669 0.255412 0)
(-0.00806868 0.264301 0)
(-0.00895135 0.295467 0)
(-0.0519329 0.304767 0)
(-0.0545311 0.43695 0)
(-0.0674282 0.430596 0)
(-0.0642289 0.417751 0)
(-0.113283 0.42205 0)
(-0.178666 0.41151 0)
(-0.2096 0.395328 0)
(-0.191859 0.382034 0)
(-0.172845 0.355583 0)
(-0.150558 0.335415 0)
(-0.132415 0.312192 0)
(-0.112453 0.294026 0)
(-0.0936549 0.27597 0)
(-0.0744795 0.259633 0)
(-0.0559378 0.243401 0)
(-0.03938 0.226425 0)
(-0.02512 0.208925 0)
(-0.0125812 0.19241 0)
(6.64678e-05 0.17818 0)
(0.0140477 0.167015 0)
(0.0291191 0.158797 0)
(0.04521 0.151235 0)
(0.0620994 0.142989 0)
(0.0801694 0.135612 0)
(0.0988718 0.129767 0)
(0.117606 0.125582 0)
(0.136231 0.120633 0)
(0.154953 0.119584 0)
(0.172871 0.115338 0)
(0.190864 0.114681 0)
(0.208251 0.112543 0)
(0.224992 0.114969 0)
(0.241113 0.11276 0)
(0.255763 0.117555 0)
(0.264659 0.118704 0)
(0.250857 0.126518 0)
(0.172327 0.144603 0)
(0.0905073 0.190381 0)
(0.0298542 0.234474 0)
(0.0215226 0.296352 0)
(-0.0278293 0.317952 0)
(-0.063767 0.43427 0)
(-0.0880384 0.412856 0)
(-0.0913183 0.366707 0)
(-0.138234 0.339972 0)
(-0.200565 0.306747 0)
(-0.236142 0.281826 0)
(-0.220603 0.265843 0)
(-0.201055 0.23858 0)
(-0.175785 0.220414 0)
(-0.155881 0.196412 0)
(-0.133307 0.177792 0)
(-0.113204 0.158054 0)
(-0.0927069 0.140071 0)
(-0.0737946 0.121997 0)
(-0.0568742 0.10384 0)
(-0.0416962 0.0862019 0)
(-0.0266981 0.0702881 0)
(-0.0112945 0.0568841 0)
(0.00510262 0.0464708 0)
(0.0221257 0.0391404 0)
(0.0388575 0.0325746 0)
(0.0559109 0.0254898 0)
(0.0749706 0.0202542 0)
(0.0950436 0.0168478 0)
(0.115209 0.0152145 0)
(0.135263 0.0122321 0)
(0.155353 0.0132746 0)
(0.174607 0.0110316 0)
(0.193821 0.0121213 0)
(0.212561 0.0118108 0)
(0.230683 0.0158553 0)
(0.248508 0.0160558 0)
(0.264118 0.0227875 0)
(0.275527 0.0272756 0)
(0.270255 0.0410875 0)
(0.215578 0.0723895 0)
(0.154152 0.135565 0)
(0.0969659 0.195819 0)
(0.0819145 0.281973 0)
(0.012033 0.318719 0)
(-0.0768008 0.459595 0)
(-0.144129 0.422162 0)
(-0.155352 0.3225 0)
(-0.176294 0.248054 0)
(-0.217822 0.188759 0)
(-0.238847 0.158051 0)
(-0.22232 0.146669 0)
(-0.203965 0.126244 0)
(-0.179452 0.115273 0)
(-0.160037 0.0963905 0)
(-0.137572 0.0828628 0)
(-0.117074 0.0672915 0)
(-0.0959924 0.0529699 0)
(-0.0778788 0.0377282 0)
(-0.060718 0.0231339 0)
(-0.0454896 0.00932326 0)
(-0.0305804 -0.00254686 0)
(-0.0150552 -0.0121 0)
(0.00146348 -0.0189106 0)
(0.0182791 -0.0226264 0)
(0.0334787 -0.0258949 0)
(0.0473742 -0.0322725 0)
(0.0659641 -0.0376653 0)
(0.0856723 -0.0408676 0)
(0.105319 -0.0417912 0)
(0.124645 -0.0446084 0)
(0.144163 -0.0432808 0)
(0.16329 -0.0451686 0)
(0.182321 -0.0440979 0)
(0.201098 -0.044216 0)
(0.219545 -0.0404355 0)
(0.23808 -0.0396732 0)
(0.254533 -0.0326804 0)
(0.268845 -0.0276662 0)
(0.273645 -0.0140777 0)
(0.25055 0.0175909 0)
(0.209369 0.0803277 0)
(0.195319 0.179292 0)
(0.167639 0.322002 0)
(0.051554 0.373855 0)
(-0.544487 0.384171 0)
(-0.314119 0.418789 0)
(-0.29074 0.269971 0)
(-0.257187 0.192244 0)
(-0.274871 0.140712 0)
(-0.275171 0.118845 0)
(-0.255995 0.116317 0)
(-0.236516 0.101264 0)
(-0.211924 0.0962819 0)
(-0.191398 0.0813204 0)
(-0.168222 0.0711271 0)
(-0.146995 0.0577893 0)
(-0.125918 0.0447647 0)
(-0.106924 0.0309455 0)
(-0.0882117 0.0180249 0)
(-0.0705685 0.00584944 0)
(-0.052874 -0.00472174 0)
(-0.0346028 -0.0134824 0)
(-0.0154254 -0.0199619 0)
(0.00485951 -0.0242217 0)
(0.0278356 -0.0292246 0)
(0.0528236 -0.034401 0)
(0.0746208 -0.0387146 0)
(0.0954167 -0.0417815 0)
(0.115722 -0.0429709 0)
(0.135985 -0.0463626 0)
(0.156209 -0.0454182 0)
(0.176152 -0.0475998 0)
(0.196009 -0.0468224 0)
(0.21579 -0.0470231 0)
(0.235133 -0.0433816 0)
(0.254344 -0.0422085 0)
(0.271577 -0.0348428 0)
(0.287882 -0.0292033 0)
(0.299203 -0.0157863 0)
(0.302701 0.0106427 0)
(0.289198 0.0668224 0)
(0.330008 0.150474 0)
(0.340354 0.33125 0)
(0.517769 0.341735 0)
(-0.945539 0.969906 0)
(-0.35218 0.569975 0)
(-0.339142 0.143905 0)
(-0.284283 0.102944 0)
(-0.286926 0.0627613 0)
(-0.277865 0.0460392 0)
(-0.258783 0.0479752 0)
(-0.239306 0.0371725 0)
(-0.215824 0.037873 0)
(-0.1946 0.0271058 0)
(-0.171568 0.0199348 0)
(-0.150305 0.00834893 0)
(-0.129826 -0.00445027 0)
(-0.110955 -0.0182784 0)
(-0.0925611 -0.031046 0)
(-0.0743762 -0.0424091 0)
(-0.0556624 -0.0519747 0)
(-0.0361708 -0.0598964 0)
(-0.0157371 -0.065963 0)
(0.00538481 -0.0701785 0)
(0.0268305 -0.0750014 0)
(0.0485661 -0.0792578 0)
(0.0704498 -0.0819021 0)
(0.0920461 -0.0835562 0)
(0.113075 -0.0837248 0)
(0.133804 -0.0872936 0)
(0.154361 -0.0862271 0)
(0.174564 -0.088783 0)
(0.194864 -0.0885025 0)
(0.215075 -0.0891136 0)
(0.234942 -0.0860478 0)
(0.25481 -0.0847461 0)
(0.272999 -0.0772984 0)
(0.291367 -0.0708887 0)
(0.306549 -0.0575604 0)
(0.32144 -0.0369449 0)
(0.323605 -0.000167365 0)
(0.376334 0.0388359 0)
(0.350026 0.494899 0)
(0.922432 0.928592 0)
(-0.945539 -0.969906 0)
(-0.35218 -0.569975 0)
(-0.339142 -0.143905 0)
(-0.284283 -0.102944 0)
(-0.286926 -0.0627613 0)
(-0.277865 -0.0460392 0)
(-0.258783 -0.0479752 0)
(-0.239306 -0.0371725 0)
(-0.215824 -0.037873 0)
(-0.1946 -0.0271058 0)
(-0.171568 -0.0199348 0)
(-0.150305 -0.00834893 0)
(-0.129826 0.00445027 0)
(-0.110955 0.0182784 0)
(-0.0925611 0.031046 0)
(-0.0743762 0.0424091 0)
(-0.0556624 0.0519747 0)
(-0.0361708 0.0598964 0)
(-0.0157371 0.065963 0)
(0.00538481 0.0701785 0)
(0.0268305 0.0750014 0)
(0.0485661 0.0792578 0)
(0.0704498 0.0819021 0)
(0.0920461 0.0835562 0)
(0.113075 0.0837248 0)
(0.133804 0.0872936 0)
(0.154361 0.0862271 0)
(0.174564 0.088783 0)
(0.194864 0.0885025 0)
(0.215075 0.0891136 0)
(0.234942 0.0860478 0)
(0.25481 0.0847461 0)
(0.272999 0.0772984 0)
(0.291367 0.0708887 0)
(0.306549 0.0575604 0)
(0.32144 0.0369449 0)
(0.323605 0.000167365 0)
(0.376334 -0.0388359 0)
(0.350026 -0.494899 0)
(0.922432 -0.928592 0)
(-0.544487 -0.384171 0)
(-0.314119 -0.418789 0)
(-0.29074 -0.269971 0)
(-0.257187 -0.192244 0)
(-0.274871 -0.140712 0)
(-0.275171 -0.118845 0)
(-0.255995 -0.116317 0)
(-0.236516 -0.101264 0)
(-0.211924 -0.0962819 0)
(-0.191398 -0.0813204 0)
(-0.168222 -0.0711271 0)
(-0.146995 -0.0577893 0)
(-0.125918 -0.0447647 0)
(-0.106924 -0.0309455 0)
(-0.0882117 -0.0180249 0)
(-0.0705685 -0.00584944 0)
(-0.052874 0.00472174 0)
(-0.0346028 0.0134824 0)
(-0.0154254 0.0199619 0)
(0.00485951 0.0242217 0)
(0.0278356 0.0292246 0)
(0.0528236 0.034401 0)
(0.0746208 0.0387146 0)
(0.0954167 0.0417815 0)
(0.115722 0.0429709 0)
(0.135985 0.0463626 0)
(0.156209 0.0454182 0)
(0.176152 0.0475998 0)
(0.196009 0.0468224 0)
(0.21579 0.0470231 0)
(0.235133 0.0433816 0)
(0.254344 0.0422085 0)
(0.271577 0.0348428 0)
(0.287882 0.0292033 0)
(0.299203 0.0157863 0)
(0.302701 -0.0106427 0)
(0.289198 -0.0668224 0)
(0.330008 -0.150474 0)
(0.340354 -0.33125 0)
(0.517769 -0.341735 0)
(-0.0768008 -0.459595 0)
(-0.144129 -0.422162 0)
(-0.155352 -0.3225 0)
(-0.176294 -0.248054 0)
(-0.217822 -0.188759 0)
(-0.238847 -0.158051 0)
(-0.22232 -0.146669 0)
(-0.203965 -0.126244 0)
(-0.179452 -0.115273 0)
(-0.160037 -0.0963905 0)
(-0.137572 -0.0828628 0)
(-0.117074 -0.0672915 0)
(-0.0959924 -0.0529699 0)
(-0.0778788 -0.0377282 0)
(-0.060718 -0.0231339 0)
(-0.0454896 -0.00932326 0)
(-0.0305804 0.00254686 0)
(-0.0150552 0.0121 0)
(0.00146348 0.0189106 0)
(0.0182791 0.0226264 0)
(0.0334787 0.0258949 0)
(0.0473742 0.0322725 0)
(0.0659641 0.0376653 0)
(0.0856723 0.0408676 0)
(0.105319 0.0417912 0)
(0.124645 0.0446084 0)
(0.144163 0.0432808 0)
(0.16329 0.0451686 0)
(0.182321 0.0440979 0)
(0.201098 0.044216 0)
(0.219545 0.0404355 0)
(0.23808 0.0396732 0)
(0.254533 0.0326804 0)
(0.268845 0.0276662 0)
(0.273645 0.0140777 0)
(0.25055 -0.0175909 0)
(0.209369 -0.0803277 0)
(0.195319 -0.179292 0)
(0.167639 -0.322002 0)
(0.051554 -0.373855 0)
(-0.063767 -0.43427 0)
(-0.0880384 -0.412856 0)
(-0.0913183 -0.366707 0)
(-0.138234 -0.339972 0)
(-0.200565 -0.306747 0)
(-0.236142 -0.281826 0)
(-0.220603 -0.265843 0)
(-0.201055 -0.23858 0)
(-0.175785 -0.220414 0)
(-0.155881 -0.196412 0)
(-0.133307 -0.177792 0)
(-0.113204 -0.158054 0)
(-0.0927069 -0.140071 0)
(-0.0737946 -0.121997 0)
(-0.0568742 -0.10384 0)
(-0.0416962 -0.0862019 0)
(-0.0266981 -0.0702881 0)
(-0.0112945 -0.0568841 0)
(0.00510262 -0.0464708 0)
(0.0221257 -0.0391404 0)
(0.0388575 -0.0325746 0)
(0.0559109 -0.0254898 0)
(0.0749706 -0.0202542 0)
(0.0950436 -0.0168478 0)
(0.115209 -0.0152145 0)
(0.135263 -0.0122321 0)
(0.155353 -0.0132746 0)
(0.174607 -0.0110316 0)
(0.193821 -0.0121213 0)
(0.212561 -0.0118108 0)