/*--------------------------------*- C++ -*----------------------------------*\
| =========                 |                                                 |
| \\      /  F ield         | OpenFOAM: The Open Source CFD Toolbox           |
|  \\    /   O peration     | Version:  v1912                                 |
|   \\  /    A nd           | Website:  www.openfoam.com                      |
|    \\/     M anipulation  |                                                 |
\*---------------------------------------------------------------------------*/
FoamFile
{
    version     2.0;
    format      ascii;
    class       volVectorField;
    location    "4.44";
    object      grad(p);
}
// * * * * * * * * * * * * * * * * * * * * * * * * * * * * * * * * * * * * * //

dimensions      [1 -2 -2 0 0 0 0];


internalField   nonuniform List<vector> 
1900
(
(131176 -0.0649225 0)
(-112786 0.606161 0)
(-8936.2 0.340787 0)
(-1108.78 -0.036906 0)
(-1584.52 1.10827 0)
(-1757.14 3.09586 0)
(-1902.35 11.4648 0)
(-1962.8 24.376 0)
(-1968.42 -36.6599 0)
(-1592.12 -135.52 0)
(131176 -0.0821762 0)
(-112786 1.04214 0)
(-8936.84 0.756022 0)
(-1108.01 -0.0713086 0)
(-1581.38 0.348302 0)
(-1746.78 -0.944211 0)
(-1881.07 2.11147 0)
(-2010.93 7.61884 0)
(-2128.32 -70.2319 0)
(-2263.93 -179.83 0)
(131177 1.0445e-08 0)
(-112785 -2.52243e-09 0)
(-8937.31 -8.88178e-11 0)
(-1109.18 2.54019e-09 0)
(-1585.39 3.32179e-09 0)
(-1755.38 1.26121e-09 0)
(-1893.79 -2.38032e-09 0)
(-2035.15 -1.15463e-09 0)
(-2155.87 -2.20268e-09 0)
(-2273.37 -8.88178e-10 0)
(131176 0.0821762 0)
(-112786 -1.04214 0)
(-8936.84 -0.756022 0)
(-1108.01 0.0713086 0)
(-1581.38 -0.348302 0)
(-1746.78 0.944211 0)
(-1881.07 -2.11147 0)
(-2010.93 -7.61884 0)
(-2128.32 70.2319 0)
(-2263.93 179.83 0)
(131176 0.0649225 0)
(-112786 -0.606162 0)
(-8936.2 -0.340787 0)
(-1108.78 0.036906 0)
(-1584.52 -1.10827 0)
(-1757.14 -3.09586 0)
(-1902.35 -11.4648 0)
(-1962.8 -24.376 0)
(-1968.42 36.6599 0)
(-1592.12 135.52 0)
(-1645.08 -640.108 9.60645e-12)
(-2455.1 -888.073 -1.1286e-11)
(-2926.25 -1135.22 -1.40294e-11)
(-1898.8 -1398.58 0)
(-6999.68 -6583.86 -5.88143e-11)
(-2378.66 -687.156 9.49079e-12)
(-2617.29 -894.13 1.1286e-11)
(-2824.38 -1233.45 1.40294e-11)
(-3566.99 -1523.23 0)
(-6790.91 -5858.5 0)
(-2566.31 -1.44812e-10 0)
(-2987.01 1.75298e-10 0)
(-3357.68 -4.68761e-10 0)
(-3722.53 -1.44665e-09 0)
(-9194.78 -2.59052e-09 0)
(-2378.66 687.156 9.49079e-12)
(-2617.29 894.13 1.1286e-11)
(-2824.38 1233.45 1.40294e-11)
(-3566.99 1523.23 0)
(-6790.91 5858.5 0)
(-1645.08 640.108 -2.8588e-11)
(-2455.1 888.073 -1.1286e-11)
(-2926.25 1135.22 -1.40294e-11)
(-1898.8 1398.58 -3.7579e-11)
(-6999.68 6583.86 5.88143e-11)
(-14708.3 4179.49 1.99378e-11)
(-7273.08 1578.88 -1.52818e-11)
(-7291.97 696.148 0)
(-7200.44 693.96 9.32953e-12)
(-8476.11 309.667 -3.64887e-12)
(-12039.4 4262.52 -1.00318e-11)
(-8055.61 1113.86 7.66468e-12)
(-7477.71 559.233 0)
(-7311.73 528.634 -5.848e-12)
(-8780.78 -222.88 9.12871e-13)
(-12698.7 -1.34572e-10 0)
(-8224.71 -3.41607e-10 0)
(-7459.96 4.93432e-10 0)
(-7546.58 -1.19004e-09 2.34557e-12)
(-8815.14 -8.49223e-09 -1.82574e-12)
(-12039.4 -4262.52 -1.00318e-11)
(-8055.61 -1113.86 7.66468e-12)
(-7477.71 -559.233 0)
(-7311.73 -528.634 -5.848e-12)
(-8780.78 222.88 9.12871e-13)
(-14708.3 -4179.49 1.00318e-11)
(-7273.08 -1578.88 -4.75508e-14)
(-7291.97 -696.148 0)
(-7200.44 -693.96 2.08998e-14)
(-8476.11 -309.667 3.64887e-12)
(-10078.1 719.341 0)
(-4293.49 2500.01 0)
(1713.29 1792.73 0)
(299.851 1448.89 0)
(-1035.83 743.067 0)
(-1072.25 303.93 0)
(-1111.77 175.657 0)
(-1150.55 111.759 0)
(-1010.75 60.9765 0)
(-739.158 28.4545 0)
(-436.16 7.7927 0)
(-271.756 4.75374 0)
(-203.116 4.94471 0)
(-166.845 4.31395 0)
(-138.322 3.29906 0)
(-113.434 2.45125 0)
(-92.7144 1.88404 0)
(-75.6952 1.533 0)
(-62.3069 1.30736 0)
(-51.1232 1.15012 0)
(-40.9007 1.01539 0)
(-33.0128 0.905034 0)
(-26.183 0.831904 0)
(-19.563 0.786662 0)
(-13.6806 0.777409 0)
(-8.37336 0.801188 0)
(-3.89259 0.864165 0)
(-0.911744 0.888853 0)
(1.51539 0.947477 0)
(2.81994 0.709754 0)
(11.1034 0.715969 0)
(22.72 0.7267 0)
(45.6271 0.905153 0)
(62.0033 2.88406 0)
(76.7269 3.41345 0)
(84.6155 6.93957 0)
(62.9383 5.94478 0)
(864.565 11.0689 0)
(18621.1 -7.90228 0)
(-22714.7 -1659.78 0)
(-9880.79 -242.3 0)
(-4145.51 3178.79 0)
(1540.05 2159.63 0)
(289.088 1226.85 0)
(-1140.69 551.507 0)
(-1145.76 166.855 0)
(-1134.63 86.6662 0)
(-1165.35 50.4326 0)
(-1019.34 14.9356 0)
(-741.387 9.03067 0)
(-438.051 2.12237 0)
(-271.909 0.913545 0)
(-203.044 1.19237 0)
(-166.918 1.10408 0)
(-138.44 0.789876 0)
(-113.525 0.523963 0)
(-92.7699 0.358777 0)
(-75.7263 0.266236 0)
(-62.3246 0.218232 0)
(-51.1375 0.188319 0)
(-40.9163 0.155571 0)
(-33.0295 0.116775 0)
(-26.2008 0.0743335 0)
(-19.5816 0.0261031 0)
(-13.699 -0.0216138 0)
(-8.39016 -0.0651929 0)
(-3.91369 -0.0951733 0)
(-0.932817 -0.134241 0)
(1.46996 -0.13288 0)
(2.77186 -0.219687 0)
(11.0865 -0.120016 0)
(22.7241 0.120851 0)
(45.8559 0.700944 0)
(62.3408 2.65113 0)
(77.2936 5.00962 0)
(85.1442 9.93897 0)
(63.5254 15.2164 0)
(864.368 23.4947 0)
(18631.5 21.0476 0)
(-22726.9 1079.26 0)
(-9093.73 -1.27252e-08 0)
(-3594.75 6.56445e-09 0)
(1145.45 7.08928e-09 0)
(-167.966 2.61447e-08 0)
(-1344.19 -2.47883e-09 0)
(-1207.47 3.84339e-09 0)
(-1145.64 -1.43723e-09 0)
(-1171.41 -3.13446e-08 0)
(-1022.8 -2.51677e-08 0)
(-742.885 -2.88981e-08 0)
(-438.521 -6.62904e-09 0)
(-272.026 1.61487e-11 0)
(-203.06 -1.96207e-09 0)
(-166.962 -2.50305e-09 0)
(-138.491 -1.77636e-10 0)
(-113.56 3.68998e-09 0)
(-92.7894 6.66941e-09 0)
(-75.7361 2.24063e-09 0)
(-62.3295 -8.14298e-09 0)
(-51.1414 -1.04038e-08 0)
(-40.9215 -1.1183e-09 0)
(-33.0364 1.73881e-08 0)
(-26.2094 3.0622e-08 0)
(-19.5909 3.61004e-08 0)
(-13.7071 4.2467e-08 0)
(-8.39476 4.97097e-08 0)
(-3.91268 4.97784e-08 0)
(-0.922714 3.67383e-08 0)
(1.49053 1.86881e-08 0)
(2.82368 -2.02222e-08 0)
(11.2025 -4.24186e-08 0)
(22.9589 -1.14656e-08 0)
(46.3632 2.35367e-09 0)
(63.2567 3.67141e-08 0)
(78.847 7.77358e-08 0)
(87.5848 1.11757e-07 0)
(66.8818 6.75985e-08 0)
(866.261 1.25706e-07 0)
(18928.2 3.28222e-08 0)
(-23034.8 4.26907e-07 0)
(-9880.79 242.3 0)
(-4145.51 -3178.79 0)
(1540.05 -2159.63 0)
(289.088 -1226.85 0)
(-1140.69 -551.507 0)
(-1145.76 -166.855 0)
(-1134.63 -86.6662 0)
(-1165.35 -50.4326 0)
(-1019.34 -14.9356 0)
(-741.387 -9.03067 0)
(-438.051 -2.12237 0)
(-271.909 -0.913545 0)
(-203.044 -1.19237 0)
(-166.918 -1.10408 0)
(-138.44 -0.789876 0)
(-113.525 -0.523963 0)
(-92.7699 -0.358777 0)
(-75.7263 -0.266236 0)
(-62.3246 -0.218232 0)
(-51.1375 -0.188319 0)
(-40.9163 -0.155571 0)
(-33.0295 -0.116776 0)
(-26.2008 -0.0743335 0)
(-19.5816 -0.0261032 0)
(-13.699 0.0216137 0)
(-8.39016 0.0651928 0)
(-3.91369 0.0951732 0)
(-0.932817 0.13424 0)
(1.46996 0.13288 0)
(2.77186 0.219687 0)
(11.0865 0.120016 0)
(22.7241 -0.120851 0)
(45.8559 -0.700944 0)
(62.3408 -2.65113 0)
(77.2936 -5.00962 0)
(85.1442 -9.93897 0)
(63.5254 -15.2164 0)
(864.368 -23.4947 0)
(18631.5 -21.0476 0)
(-22726.9 -1079.26 0)
(-10078.1 -719.341 0)
(-4293.49 -2500.01 0)
(1713.29 -1792.73 0)
(299.851 -1448.89 0)
(-1035.83 -743.067 0)
(-1072.25 -303.93 0)
(-1111.77 -175.657 0)
(-1150.55 -111.759 0)
(-1010.75 -60.9765 0)
(-739.158 -28.4545 0)
(-436.16 -7.79271 0)
(-271.756 -4.75374 0)
(-203.116 -4.94471 0)
(-166.845 -4.31395 0)
(-138.322 -3.29906 0)
(-113.434 -2.45125 0)
(-92.7144 -1.88404 0)
(-75.6952 -1.533 0)
(-62.3069 -1.30736 0)
(-51.1232 -1.15012 0)
(-40.9007 -1.01539 0)
(-33.0128 -0.905034 0)
(-26.183 -0.831904 0)
(-19.563 -0.786662 0)
(-13.6806 -0.777409 0)
(-8.37336 -0.801188 0)
(-3.89259 -0.864165 0)
(-0.911744 -0.888853 0)
(1.51539 -0.947477 0)
(2.81994 -0.709754 0)
(11.1034 -0.715969 0)
(22.72 -0.726701 0)
(45.6271 -0.905153 0)
(62.0033 -2.88406 0)
(76.7269 -3.41345 0)
(84.6155 -6.93957 0)
(62.9383 -5.94478 0)
(864.565 -11.0689 0)
(18621.1 7.90228 0)
(-22714.7 1659.78 0)
(11570.2 -220.546 0)
(-4647.71 -2361.73 0)
(1999.07 -2157.85 0)
(935.07 -1839.3 0)
(-543.727 -983.192 0)
(-874.829 -507.584 0)
(-1040.51 -318.545 0)
(-1110.53 -205.93 0)
(-977.02 -139.972 0)
(-710.605 -55.3867 0)
(-425.372 -19.4849 0)
(-270.3 -11.6161 0)
(-202.685 -10.5862 0)
(-165.97 -8.92047 0)
(-137.408 -6.89302 0)
(-112.741 -5.24259 0)
(-92.258 -4.14084 0)
(-75.4004 -3.45099 0)
(-62.105 -2.9852 0)
(-50.9708 -2.64715 0)
(-40.7805 -2.35949 0)
(-32.9337 -2.13341 0)
(-26.1472 -1.99572 0)
(-19.569 -1.92824 0)
(-13.7294 -1.94783 0)
(-8.46401 -2.04735 0)
(-3.99307 -2.22766 0)
(-1.00944 -2.36018 0)
(1.52978 -2.50946 0)
(2.86149 -2.22104 0)
(11.0563 -2.23203 0)
(22.61 -2.24166 0)
(44.7672 -2.66227 0)
(61.1577 -5.42114 0)
(75.4049 -6.14396 0)
(84.1676 -10.8317 0)
(61.614 -9.43955 0)
(872.827 -16.5159 0)
(19691.6 -33.8309 0)
(-23787.1 298.262 0)
(11305.4 1889.69 0)
(-5970.41 -1177.8 0)
(2063.48 -1079.58 0)
(1091.17 -1449.59 0)
(-16.4256 -995.161 0)
(-537.633 -653.7 0)
(-859.299 -469.199 0)
(-999.924 -307.7 0)
(-883.771 -198.12 0)
(-638.363 -87.4765 0)
(-399.766 -34.899 0)
(-263.961 -20.3348 0)
(-200.749 -16.2973 0)
(-163.755 -13.1467 0)
(-135.268 -10.0093 0)
(-111.154 -7.56709 0)
(-91.2328 -5.95074 0)
(-74.7397 -4.92421 0)
(-61.6405 -4.21101 0)
(-50.6019 -3.6804 0)
(-40.47 -3.22046 0)
(-32.7046 -2.85216 0)
(-26.0045 -2.6172 0)
(-19.5136 -2.4859 0)
(-13.7691 -2.49073 0)
(-8.5944 -2.62191 0)
(-4.14017 -2.88024 0)
(-1.13091 -3.05054 0)
(1.64175 -3.24325 0)
(3.06499 -2.80532 0)
(11.1088 -2.76555 0)
(22.3644 -2.81343 0)
(43.0244 -3.58021 0)
(59.1017 -7.42346 0)
(72.222 -8.96257 0)
(81.6799 -15.4727 0)
(58.1709 -15.9869 0)
(836.63 -24.4326 0)
(18350.4 -91.7183 0)
(-22394.4 -1762.93 0)
(12256.2 2120.35 0)
(-7509.01 -269.84 0)
(1737.17 -613.091 0)
(1016.42 -962.157 0)
(223.218 -802.857 0)
(-367.993 -660.911 0)
(-707.091 -543.911 0)
(-849.31 -369.083 0)
(-764.805 -233.166 0)
(-553.319 -112.389 0)
(-360.671 -51.5235 0)
(-252.375 -30.8783 0)
(-195.759 -22.8645 0)
(-159.911 -17.5328 0)
(-132.032 -13.0539 0)
(-108.83 -9.76702 0)
(-89.7112 -7.59095 0)
(-73.724 -6.15759 0)
(-60.9064 -5.12155 0)
(-50.0163 -4.34066 0)
(-39.9824 -3.67085 0)
(-32.3524 -3.14586 0)
(-25.7942 -2.82398 0)
(-19.4471 -2.6611 0)
(-13.8605 -2.70883 0)
(-8.83935 -2.94349 0)
(-4.40611 -3.36547 0)
(-1.35926 -3.62472 0)
(1.76609 -3.93582 0)
(3.32181 -3.35979 0)
(11.0485 -3.3222 0)
(21.825 -3.53736 0)
(40.3248 -4.73439 0)
(55.9711 -9.72915 0)
(67.6484 -11.8835 0)
(77.3987 -19.6308 0)
(52.9799 -21.7764 0)
(799.849 -28.2009 0)
(18016.3 -70.0241 0)
(-21999.9 -761.131 0)
(13088.6 1841.83 0)
(-8604.45 -42.1813 0)
(1396.34 -371.788 0)
(908.306 -655.209 0)
(273.866 -665.398 0)
(-288.103 -634.281 0)
(-578.083 -544.595 0)
(-700.479 -386.217 0)
(-636.411 -241.141 0)
(-463.325 -121.591 0)
(-321.22 -63.4235 0)
(-236.344 -39.5351 0)
(-187.889 -28.1964 0)
(-154.301 -20.6725 0)
(-127.785 -14.9792 0)
(-105.89 -11.0013 0)
(-87.7546 -8.35104 0)
(-72.3601 -6.52456 0)
(-59.8897 -5.14762 0)
(-49.204 -4.0974 0)
(-39.3187 -3.20836 0)
(-31.8885 -2.51901 0)
(-25.5374 -2.11068 0)
(-19.4026 -1.93992 0)
(-14.0412 -2.07284 0)
(-9.22716 -2.45779 0)
(-4.79663 -3.0811 0)
(-1.68052 -3.4166 0)
(1.89705 -3.85427 0)
(3.6563 -3.16356 0)
(10.9377 -3.14215 0)
(21.0036 -3.62603 0)
(37.0577 -5.39752 0)
(52.2125 -11.2788 0)
(62.6804 -14.1695 0)
(72.1468 -22.2084 0)
(49.9124 -26.5317 0)
(790.137 -28.1522 0)
(17644.1 -58.5865 0)
(-21593.5 -795.368 0)
(13990.4 1776.12 0)
(-9642.13 -48.2864 0)
(1146.43 -261.633 0)
(733.484 -509.223 0)
(243.385 -575.033 0)
(-251.582 -584.089 0)
(-468.047 -499.791 0)
(-556.891 -367.311 0)
(-509.802 -222.757 0)
(-382.064 -121.65 0)
(-281.599 -68.6364 0)
(-218.429 -44.584 0)
(-177.582 -31.243 0)
(-147.174 -22.2425 0)
(-122.712 -15.8077 0)
(-102.443 -11.4059 0)
(-85.3973 -8.39834 0)
(-70.637 -6.2111 0)
(-58.5675 -4.49281 0)
(-48.1476 -3.16664 0)
(-38.4614 -2.0504 0)
(-31.2946 -1.19093 0)
(-25.2362 -0.713835 0)
(-19.4107 -0.540089 0)
(-14.3595 -0.729145 0)
(-9.81096 -1.19428 0)
(-5.33005 -1.93667 0)
(-2.1043 -2.14301 0)
(2.00993 -2.49333 0)
(4.00803 -1.41958 0)
(10.6029 -1.10335 0)
(19.6516 -1.51154 0)
(32.9503 -3.29853 0)
(47.5181 -9.3484 0)
(57.1162 -12.1818 0)
(65.4861 -19.0469 0)
(47.2522 -23.4417 0)
(768.96 -21.1268 0)
(17277 -59.5892 0)
(-21177 -936.003 0)
(14753.6 2264.13 0)
(-10568.1 -63.9761 0)
(952.163 -256.951 0)
(606.303 -428.011 0)
(201.723 -519.92 0)
(-215.598 -521.089 0)
(-369.188 -437.765 0)
(-433.519 -324.95 0)
(-399.683 -200.193 0)
(-314.809 -116.247 0)
(-246.957 -71.2096 0)
(-200.311 -47.434 0)
(-166.36 -32.9539 0)
(-139.427 -23.1047 0)
(-117.343 -16.3031 0)
(-98.7496 -11.6322 0)
(-82.7487 -8.31221 0)
(-68.5966 -5.77041 0)
(-56.9559 -3.70782 0)
(-46.8504 -2.10579 0)
(-37.4148 -0.769219 0)
(-30.6006 0.235985 0)
(-24.9102 0.750631 0)
(-19.4174 0.91383 0)
(-14.6716 0.666312 0)
(-10.3908 0.1433 0)
(-5.71086 -0.682232 0)
(-2.21693 -0.756519 0)
(2.59418 -1.08033 0)
(4.99574 0.0433575 0)
(10.849 0.298721 0)
(18.8882 -0.353089 0)
(29.5058 -2.30403 0)
(43.6523 -8.56966 0)
(53.3346 -11.9574 0)
(61.2963 -17.6384 0)
(47.908 -21.618 0)
(755.304 -14.6325 0)
(16762.5 -57.2929 0)
(-20634.1 -1009.09 0)
(16110.6 663.181 0)
(-12071.5 -100.934 0)
(795.637 -246.778 0)
(480.078 -383.891 0)
(153.692 -480.519 0)
(-172.415 -452.96 0)
(-279.041 -371.883 0)
(-327.957 -271.562 0)
(-308.688 -170.878 0)
(-257.772 -103.75 0)
(-215.288 -66.5976 0)
(-181.564 -44.948 0)
(-154.137 -31.2004 0)
(-131.129 -22.0186 0)
(-111.657 -15.8293 0)
(-94.7429 -11.4765 0)
(-79.7486 -8.20917 0)
(-66.2001 -5.54249 0)
(-55.0361 -3.26904 0)
(-45.3158 -1.45499 0)
(-36.2048 0.0848139 0)
(-29.83 1.26078 0)
(-24.583 1.93448 0)
(-19.4919 2.26905 0)
(-15.102 2.20707 0)
(-11.1105 1.97731 0)
(-6.19715 1.62311 0)
(-2.48793 2.39136 0)
(2.78072 2.73458 0)
(5.33694 4.40191 0)
(10.2208 5.05673 0)
(17.1435 4.54015 0)
(25.0325 2.54197 0)
(38.2157 -3.80675 0)
(48.3772 -8.4544 0)
(56.1768 -13.5989 0)
(50.1488 -17.6649 0)
(734.583 -10.5492 0)
(16318.7 -80.7066 0)
(-20149.4 -1109.2 0)
(15295.4 -1012.75 0)
(-11445 -130.237 0)
(679.495 -239.735 0)
(381.062 -343.804 0)
(135.165 -426.229 0)
(-110.913 -376.923 0)
(-194.385 -306.388 0)
(-239.823 -222.054 0)
(-237.973 -144.4 0)
(-214.321 -92.8056 0)
(-190.293 -62.3928 0)
(-166.201 -43.027 0)
(-144.264 -30.5837 0)
(-124.615 -22.3608 0)
(-107.184 -16.8521 0)
(-91.4065 -12.803 0)
(-77.0304 -9.56802 0)
(-63.8361 -6.75607 0)
(-53.017 -4.25118 0)
(-43.6185 -2.20801 0)
(-34.7978 -0.440675 0)
(-28.8182 0.922194 0)
(-23.9386 1.7768 0)
(-19.1547 2.29825 0)
(-14.9528 2.41506 0)
(-10.9535 2.45537 0)
(-5.31188 2.48182 0)
(-1.14589 4.04823 0)
(4.53162 4.98342 0)
(7.23345 7.06222 0)
(10.9822 7.85343 0)
(16.4649 7.22027 0)
(21.4625 4.67177 0)
(33.0558 -1.89671 0)
(43.8986 -8.74442 0)
(52.4207 -13.6847 0)
(50.8468 -18.3936 0)
(694.555 -11.0799 0)
(15703.8 -101.148 0)
(-19487.5 -1227.21 0)
(15009.1 -652.329 0)
(-11326.6 -123.39 0)
(589.836 -218.172 0)
(300.366 -296.928 0)
(121.778 -361.31 0)
(-56.9327 -309.375 0)
(-129.804 -254.429 0)
(-171.859 -183.699 0)
(-184.139 -124.517 0)
(-178.747 -83.1802 0)
(-167.319 -56.7894 0)
(-150.912 -38.7062 0)
(-134.223 -27.4521 0)
(-117.897 -20.2488 0)
(-102.447 -15.689 0)
(-87.7236 -12.3366 0)
(-73.9216 -9.51252 0)
(-61.0766 -6.89624 0)
(-50.6535 -4.42616 0)
(-41.6439 -2.30914 0)
(-33.1884 -0.302732 0)
(-27.6932 1.42395 0)
(-23.257 2.69219 0)
(-18.8769 3.6923 0)
(-14.9506 4.30535 0)
(-11.0461 4.97593 0)
(-4.66221 5.45067 0)
(-0.0772942 7.45301 0)
(5.68511 8.57367 0)
(8.10258 10.5323 0)
(10.3731 10.7957 0)
(14.0776 9.49996 0)
(16.2471 6.05877 0)
(25.2874 -0.902656 0)
(37.0179 -10.2456 0)
(46.8785 -14.7212 0)
(52.6589 -19.4283 0)
(654.838 -14.0075 0)
(15146.8 -155.75 0)
(-18869.4 -1395.89 0)
(14547.9 -854.36 0)
(-11026.6 -112.117 0)
(512.268 -192.266 0)
(243.129 -255.745 0)
(123.171 -294.3 0)
(-7.91777 -254.535 0)
(-73.2797 -208.689 0)
(-114.636 -153.182 0)
(-141.109 -109.183 0)
(-149.056 -75.4092 0)
(-147.436 -52.5395 0)
(-137.93 -35.8247 0)
(-126.478 -25.8859 0)
(-113.28 -19.3182 0)
(-99.5593 -15.0905 0)
(-85.4547 -11.7662 0)
(-71.7879 -8.98873 0)
(-58.9347 -6.41367 0)
(-48.5967 -3.96778 0)
(-39.645 -1.88512 0)
(-31.2004 0.147831 0)
(-25.9322 2.01504 0)
(-21.7528 3.4364 0)
(-17.6002 4.62802 0)
(-13.7158 5.41533 0)
(-9.84983 6.39572 0)
(-2.92487 6.84616 0)
(1.86355 8.62003 0)
(7.49895 9.31715 0)
(9.3747 10.5872 0)
(9.98743 9.71338 0)
(11.9002 7.42759 0)
(11.4381 2.66143 0)
(17.3443 -5.31646 0)
(30.5825 -16.2806 0)
(43.5719 -19.5577 0)
(51.5345 -21.9795 0)
(563.19 -18.2509 0)
(14372.2 -214.773 0)
(-17992.3 -1630.35 0)
(14077.8 -988.27 0)
(-10688.6 -111.621 0)
(451.432 -174.606 0)
(202.043 -221.266 0)
(122.943 -236.863 0)
(25.565 -215.306 0)
(-32.1369 -172.559 0)
(-75.9722 -134.077 0)
(-109.195 -99.5048 0)
(-124.163 -70.2824 0)
(-129.174 -49.5066 0)
(-125.227 -32.8755 0)
(-118.316 -23.0128 0)
(-107.494 -15.3334 0)
(-95.1692 -9.68249 0)
(-81.8438 -4.96833 0)
(-68.7637 -1.15018 0)
(-56.2382 2.17583 0)
(-46.2896 5.1312 0)
(-37.6779 7.45068 0)
(-29.4301 9.54576 0)
(-24.5242 11.3676 0)
(-20.739 12.5244 0)
(-16.9699 13.2652 0)
(-13.2472 13.317 0)
(-9.66733 13.3544 0)
(-2.51879 12.4353 0)
(2.30384 12.7769 0)
(7.58078 11.8676 0)
(8.4844 11.2657 0)
(7.32837 8.19022 0)
(7.28206 4.19781 0)
(3.96645 -3.38811 0)
(7.03414 -14.765 0)
(23.2945 -29.742 0)
(41.3869 -36.1474 0)
(53.9183 -39.0083 0)
(469.055 -43.024 0)
(13593.3 -308.723 0)
(-17091.3 -1811.38 0)
(13488 -1243.56 0)
(-10242.5 -123.211 0)
(406.61 -171.984 0)
(183.135 -199.131 0)
(128.914 -191.53 0)
(54.0484 -181.216 0)
(4.99542 -142.996 0)
(-44.2385 -115.222 0)
(-79.6341 -87.731 0)
(-100.875 -60.0722 0)
(-111.39 -40.4519 0)
(-112.4 -23.8439 0)
(-109.574 -14.3859 0)
(-100.434 -6.13313 0)
(-89.5712 0.1278 0)
(-77.2326 5.70253 0)
(-64.9036 10.5149 0)
(-52.8818 14.727 0)
(-43.5137 18.3636 0)
(-35.391 21.0134 0)
(-27.426 23.2502 0)
(-23.0618 25.0664 0)
(-19.9241 25.946 0)
(-16.8365 26.1916 0)
(-13.6299 25.5014 0)
(-10.6994 24.6452 0)
(-3.48136 22.5297 0)
(1.3165 21.8732 0)
(6.04269 19.8375 0)
(5.83099 17.8624 0)
(3.17654 12.4747 0)
(0.742931 5.49799 0)
(-6.83516 -5.83907 0)
(-8.05134 -21.6023 0)
(9.97773 -40.0217 0)
(34.6426 -50.2319 0)
(44.9079 -50.8953 0)
(303.283 -64.7362 0)
(12668.1 -366.884 0)
(-15949.3 -2075.74 0)
(12760.7 -1483.33 0)
(-9656 -118.23 0)
(378.273 -156.573 0)
(183.207 -170.994 0)
(140.207 -170.249 0)
(72.3348 -163.064 0)
(31.457 -129.05 0)
(-22.717 -103.566 0)
(-56.0501 -78.2259 0)
(-78.6031 -51.2623 0)
(-94.2636 -32.5752 0)
(-100.109 -15.3601 0)
(-101.25 -5.45065 0)
(-93.5079 4.69927 0)
(-83.764 12.867 0)
(-71.8344 20.9697 0)
(-60.0674 28.4987 0)
(-48.6749 35.3615 0)
(-40.2317 41.1622 0)
(-32.9691 45.0438 0)
(-25.5245 47.4823 0)
(-21.9264 48.4436 0)
(-19.6547 47.5553 0)
(-17.3983 45.5828 0)
(-14.7374 42.4595 0)
(-12.531 39.3867 0)
(-5.19004 34.6277 0)
(-0.290463 31.3661 0)
(3.71584 26.6514 0)
(1.38934 22.2636 0)
(-4.58641 14.1534 0)
(-10.3658 4.49106 0)
(-22.1484 -9.64795 0)
(-25.9055 -28.2327 0)
(-4.29402 -49.8777 0)
(30.9087 -67.1525 0)
(39.9414 -71.4665 0)
(164.557 -88.9646 0)
(11655.4 -341.466 0)
(-14737.5 -2302.76 0)
(11944.7 -1702.77 0)
(-8964.02 -130.979 0)
(355.764 -156.682 0)
(169.956 -142.386 0)
(136.556 -153.238 0)
(93.7499 -140.068 0)
(62.3294 -108.464 0)
(4.73722 -86.5207 0)
(-29.2321 -60.2362 0)
(-56.8847 -34.8694 0)
(-76.793 -15.8245 0)
(-86.2617 0.542058 0)
(-90.2436 8.85734 0)
(-82.7826 19.1252 0)
(-73.8924 27.2973 0)
(-62.1693 35.9373 0)
(-51.0351 43.9699 0)
(-40.6788 51.3043 0)
(-34.1835 57.4905 0)
(-29.3007 61.5996 0)
(-24.1498 64.2584 0)
(-22.9914 65.4458 0)
(-22.6809 64.5392 0)
(-21.7469 62.3588 0)
(-19.6006 58.8347 0)
(-18.2465 55.6697 0)
(-11.2103 50.501 0)
(-6.36969 46.5131 0)
(-2.7288 39.9337 0)
(-6.21259 33.5967 0)
(-13.9497 23.3378 0)
(-22.1929 10.4686 0)
(-38.369 -6.05339 0)
(-46.8182 -27.0146 0)
(-27.5268 -51.7274 0)
(13.8389 -70.9944 0)
(23.8891 -84.8226 0)
(43.1025 -101.656 0)
(10534.8 -291.958 0)
(-13401.2 -2514.19 0)
(10993.6 -1896.34 0)
(-8166.14 -114.75 0)
(367.281 -135.032 0)
(186.525 -104.119 0)
(142.441 -117.77 0)
(115.481 -89.9411 0)
(83.0573 -69.0764 0)
(23.757 -56.8351 0)
(-6.27704 -28.283 0)
(-35.8063 -10.7123 0)
(-60.1398 0.738341 0)
(-76.3251 12.7295 0)
(-83.3424 19.6531 0)
(-75.7385 29.8181 0)
(-67.5632 38.2941 0)
(-55.768 47.8439 0)
(-45.2592 57.0083 0)
(-35.646 65.454 0)
(-30.3108 72.61 0)
(-26.4472 76.8252 0)
(-21.8182 78.8424 0)
(-21.6559 78.9383 0)
(-22.6294 76.541 0)
(-22.8954 73.0004 0)
(-21.1833 68.3803 0)
(-20.5616 65.0248 0)
(-14.0137 60.3866 0)
(-10.4735 57.3849 0)
(-8.7309 51.8162 0)
(-14.6031 47.3695 0)
(-26.8734 40.6795 0)
(-38.6882 30.0779 0)
(-58.2686 18.6071 0)
(-69.9186 -0.648793 0)
(-46.6745 -20.0422 0)
(-0.982988 -45.1011 0)
(10.395 -63.2147 0)
(-35.0461 -69.4581 0)
(9330.63 -180.585 0)
(-12033.4 -2639.35 0)
(10006.7 -1627.32 0)
(-7266.76 -19.5806 0)
(366.008 -43.0155 0)
(186.59 -34.524 0)
(150.218 -43.3979 0)
(140.673 -4.47003 0)
(94.2316 -8.804 0)
(44.0472 -8.51136 0)
(15.2135 31.756 0)
(-28.9186 22.5001 0)
(-54.2036 28.1936 0)
(-68.0347 32.6809 0)
(-73.7765 34.7995 0)
(-64.8195 41.7652 0)
(-56.5221 48.9467 0)
(-44.1356 59.5648 0)
(-34.0654 69.9593 0)
(-25.6444 78.883 0)
(-23.2257 85.4018 0)
(-23.2949 89.6965 0)
(-22.1136 92.7789 0)
(-25.2091 92.9698 0)
(-28.4029 89.6659 0)
(-29.6109 84.7267 0)
(-27.2862 78.0459 0)
(-25.9495 73.511 0)
(-18.5724 68.0544 0)
(-14.6284 64.9261 0)
(-12.38 59.6023 0)
(-16.9444 56.4725 0)
(-30.6126 53.9871 0)
(-43.4626 46.9362 0)
(-67.9783 43.6485 0)
(-84.0621 27.9054 0)
(-70.3627 17.7401 0)
(-27.7636 -7.58683 0)
(0.417757 -23.4212 0)
(-70 -15.9887 0)
(8058.39 -52.8415 0)
(-10683.8 -2232.54 0)
(9406.63 -1441.34 0)
(-6639.44 85.4002 0)
(352.881 50.5585 0)
(186.157 17.3818 0)
(171.402 11.2657 0)
(148.817 33.1242 0)
(79.1629 19.4897 0)
(62.842 38.2506 0)
(23.6067 61.3241 0)
(-39.2391 42.5476 0)
(-50.3292 47.6433 0)
(-69.9594 40.0633 0)
(-74.5885 35.8835 0)
(-62.1058 35.6096 0)
(-50.4108 36.3817 0)
(-35.5195 43.4821 0)
(-26.6435 51.3865 0)
(-20.765 59.6689 0)
(-19.8905 66.5724 0)
(-19.3384 71.0023 0)
(-18.664 72.5982 0)
(-24.6557 71.2682 0)
(-30.5727 67.7923 0)
(-34.0928 65.0029 0)
(-31.9911 61.6858 0)
(-30.1897 61.9057 0)
(-22.2864 63.2163 0)
(-18.6183 63.0311 0)
(-16.8771 63.9961 0)
(-20.0141 61.525 0)
(-36.063 64.5505 0)
(-48.6509 54.451 0)
(-76.6074 51.4545 0)
(-94.8848 32.9936 0)
(-80.8761 19.2319 0)
(-40.6475 7.06025 0)
(2.29867 3.72033 0)
(-63.3966 15.9326 0)
(7194.68 48.3454 0)
(-9831.16 -2028.47 0)
(8700.1 8415.08 0)
(-5829.11 808.48 0)
(300.463 240.445 0)
(148.726 107.599 0)
(165.388 91.476 0)
(148.598 149.993 0)
(99.1717 262.773 0)
(84.3604 457.288 0)
(19.3542 590.649 0)
(-42.102 717.493 0)
(-56.5975 813.067 0)
(-79.3669 863.838 0)
(-78.0682 910.361 0)
(-64.3395 931.11 0)
(-48.9359 947.298 0)
(-29.6764 951.523 0)
(-18.4672 958.315 0)
(-11.0107 945.631 0)
(-12.3045 949.482 0)
(-17.4882 933.037 0)
(-21.8573 931.457 0)
(-29.8403 949.27 0)
(-34.4403 947.372 0)
(-35.4954 968.909 0)
(-30.2708 959.75 0)
(-24.4746 958.305 0)
(-17.488 942.965 0)
(-13.8769 909.614 0)
(-13.8313 877.078 0)
(-16.4102 796.569 0)
(-37.4293 731.591 0)
(-56.0824 570.332 0)
(-88.6555 426.057 0)
(-115.113 252.123 0)
(-95.353 121.717 0)
(-42.7111 29.7626 0)
(8.96745 1.45067 0)
(-26.9977 21.2079 0)
(6088.33 587.319 0)
(-8775.67 7305.59 0)
(18294.8 167084 0)
(-14516.8 16666.6 0)
(-322.514 8090.72 0)
(42.6046 9243.57 0)
(212.254 10139.8 0)
(313.885 11399.4 0)
(375.283 12499.8 0)
(378.795 13580.1 0)
(274.35 14447.4 0)
(175.091 15300.1 0)
(90.6935 16061.7 0)
(23.7962 16691.9 0)
(-9.76183 17286.7 0)
(-26.5115 17799.5 0)
(-30.7408 18256.4 0)
(-24.9032 18648.1 0)
(-32.3209 18999.1 0)
(-29.277 19317 0)
(-32.0265 19429.1 0)
(-36.7076 19510.7 0)
(-3.02147 19497.1 0)
(-9.31964 19356.9 0)
(-11.6475 19267.5 0)
(-22.1649 18821.6 0)
(-42.2098 18491.4 0)
(-46.364 17912.7 0)
(-69.2067 17419.6 0)
(-82.11 16726.7 0)
(-125.811 16085.1 0)
(-160.21 15196 0)
(-254.073 14338.3 0)
(-343.075 13303.4 0)
(-383.246 12230.5 0)
(-388.158 11061.3 0)
(-295.15 9833.9 0)
(-156.54 8501.82 0)
(-5.94501 7584.98 0)
(501.168 6348.85 0)
(14214.2 14326.3 0)
(-17437.1 150863 0)
(185769 -191607 0)
(-159041 -20157.5 0)
(-6852.62 -11499.6 0)
(2123.31 -12711.7 0)
(2242.8 -13747.3 0)
(2422.73 -15259.4 0)
(2200.63 -16587.2 0)
(1961.18 -17932.5 0)
(1676.73 -19015.4 0)
(1513.53 -19957.2 0)
(1284.66 -20767.8 0)
(1101.05 -21384.4 0)
(989.251 -21935.1 0)
(870.103 -22400.9 0)
(768.747 -22810.5 0)
(686.043 -23166.7 0)
(626.199 -23496.6 0)
(403.326 -23783 0)
(174.328 -23884.7 0)
(48.0769 -23930.7 0)
(-170.081 -23896.5 0)
(-251.167 -23751.1 0)
(-550.249 -23626.2 0)
(-783.38 -23168 0)
(-906.181 -22790.3 0)
(-1057.31 -22183.8 0)
(-1160.35 -21645 0)
(-1299.81 -20907.8 0)
(-1488.9 -20210.9 0)
(-1699.69 -19232.2 0)
(-1861.19 -18280.8 0)
(-2087.28 -17037.1 0)
(-2249.23 -15758.7 0)
(-2424.51 -14305.3 0)
(-2561.73 -12839.9 0)
(-2209.85 -11340.6 0)
(-2065.71 -10384.2 0)
(6469.21 -9190.77 0)
(145348 -17617.7 0)
(-167958 -174774 0)
(185769 191607 0)
(-159041 20157.5 0)
(-6852.62 11499.6 0)
(2123.31 12711.7 0)
(2242.8 13747.3 0)
(2422.73 15259.4 0)
(2200.63 16587.2 0)
(1961.18 17932.5 0)
(1676.73 19015.4 0)
(1513.53 19957.2 0)
(1284.66 20767.8 0)
(1101.05 21384.4 0)
(989.251 21935.1 0)
(870.103 22400.9 0)
(768.747 22810.5 0)
(686.043 23166.7 0)
(626.199 23496.6 0)
(403.326 23783 0)
(174.328 23884.7 0)
(48.0769 23930.7 0)
(-170.08 23896.5 0)
(-251.167 23751.1 0)
(-550.249 23626.2 0)
(-783.38 23168 0)
(-906.181 22790.3 0)
(-1057.31 22183.8 0)
(-1160.35 21645 0)
(-1299.81 20907.8 0)
(-1488.9 20210.9 0)
(-1699.69 19232.2 0)
(-1861.19 18280.8 0)
(-2087.28 17037.1 0)
(-2249.23 15758.7 0)
(-2424.51 14305.3 0)
(-2561.73 12839.9 0)
(-2209.85 11340.6 0)
(-2065.71 10384.2 0)
(6469.21 9190.77 0)
(145348 17617.7 0)
(-167958 174774 0)
(18294.8 -167084 0)
(-14516.8 -16666.6 0)
(-322.514 -8090.72 0)
(42.6046 -9243.57 0)
(212.254 -10139.8 0)
(313.885 -11399.4 0)
(375.283 -12499.8 0)
(378.795 -13580.1 0)
(274.35 -14447.4 0)
(175.091 -15300.1 0)
(90.6935 -16061.7 0)
(23.7962 -16691.9 0)
(-9.76183 -17286.7 0)
(-26.5115 -17799.5 0)
(-30.7408 -18256.4 0)
(-24.9032 -18648.1 0)
(-32.3209 -18999.1 0)
(-29.277 -19317 0)
(-32.0265 -19429.1 0)
(-36.7076 -19510.7 0)
(-3.02147 -19497.1 0)
(-9.31964 -19356.9 0)
(-11.6475 -19267.5 0)
(-22.1649 -18821.6 0)
(-42.2098 -18491.4 0)
(-46.364 -17912.7 0)
(-69.2067 -17419.6 0)
(-82.11 -16726.7 0)
(-125.811 -16085.1 0)
(-160.21 -15196 0)
(-254.073 -14338.3 0)
(-343.075 -13303.4 0)
(-383.246 -12230.5 0)
(-388.158 -11061.3 0)
(-295.15 -9833.9 0)
(-156.54 -8501.82 0)
(-5.94501 -7584.98 0)
(501.168 -6348.85 0)
(14214.2 -14326.3 0)
(-17437.1 -150863 0)
(8700.1 -8415.08 0)
(-5829.11 -808.48 0)
(300.463 -240.445 0)
(148.726 -107.599 0)
(165.388 -91.476 0)
(148.598 -149.993 0)
(99.1717 -262.773 0)
(84.3604 -457.288 0)
(19.3542 -590.649 0)
(-42.102 -717.493 0)
(-56.5975 -813.067 0)
(-79.3669 -863.838 0)
(-78.0682 -910.361 0)
(-64.3395 -931.11 0)
(-48.9359 -947.298 0)
(-29.6764 -951.523 0)
(-18.4672 -958.315 0)
(-11.0107 -945.631 0)
(-12.3045 -949.482 0)
(-17.4882 -933.037 0)
(-21.8573 -931.457 0)
(-29.8403 -949.27 0)
(-34.4403 -947.372 0)
(-35.4954 -968.909 0)
(-30.2708 -959.75 0)
(-24.4746 -958.305 0)
(-17.488 -942.965 0)
(-13.8769 -909.614 0)
(-13.8313 -877.078 0)
(-16.4102 -796.569 0)
(-37.4293 -731.591 0)
(-56.0824 -570.332 0)
(-88.6555 -426.057 0)
(-115.113 -252.123 0)
(-95.353 -121.717 0)
(-42.7111 -29.7626 0)
(8.96745 -1.45067 0)
(-26.9977 -21.2079 0)
(6088.33 -587.319 0)
(-8775.67 -7305.59 0)
(9406.63 1441.34 0)
(-6639.44 -85.4002 0)
(352.881 -50.5585 0)
(186.157 -17.3818 0)
(171.402 -11.2657 0)
(148.817 -33.1242 0)
(79.1629 -19.4897 0)
(62.842 -38.2506 0)
(23.6067 -61.3241 0)
(-39.2391 -42.5476 0)
(-50.3292 -47.6433 0)
(-69.9594 -40.0633 0)
(-74.5885 -35.8835 0)
(-62.1058 -35.6096 0)
(-50.4108 -36.3817 0)
(-35.5195 -43.4821 0)
(-26.6435 -51.3865 0)
(-20.765 -59.6689 0)
(-19.8905 -66.5724 0)
(-19.3384 -71.0023 0)
(-18.664 -72.5982 0)
(-24.6557 -71.2682 0)
(-30.5727 -67.7923 0)
(-34.0928 -65.0029 0)
(-31.9911 -61.6858 0)
(-30.1897 -61.9057 0)
(-22.2864 -63.2163 0)
(-18.6183 -63.0311 0)
(-16.8771 -63.9961 0)
(-20.0141 -61.525 0)
(-36.063 -64.5505 0)
(-48.6509 -54.451 0)
(-76.6074 -51.4545 0)
(-94.8848 -32.9936 0)
(-80.8761 -19.2319 0)
(-40.6475 -7.06025 0)
(2.29867 -3.72033 0)
(-63.3966 -15.9326 0)
(7194.68 -48.3454 0)
(-9831.16 2028.47 0)
(10006.7 1627.32 0)
(-7266.76 19.5806 0)
(366.008 43.0155 0)
(186.59 34.524 0)
(150.218 43.3979 0)
(140.673 4.47003 0)
(94.2316 8.804 0)
(44.0472 8.51136 0)
(15.2135 -31.756 0)
(-28.9186 -22.5001 0)
(-54.2036 -28.1936 0)
(-68.0347 -32.6809 0)
(-73.7765 -34.7995 0)
(-64.8195 -41.7652 0)
(-56.5221 -48.9467 0)
(-44.1356 -59.5648 0)
(-34.0654 -69.9593 0)
(-25.6444 -78.883 0)
(-23.2257 -85.4018 0)
(-23.2949 -89.6965 0)
(-22.1136 -92.7789 0)
(-25.2091 -92.9698 0)
(-28.4029 -89.6659 0)
(-29.6109 -84.7267 0)
(-27.2862 -78.0459 0)
(-25.9495 -73.511 0)
(-18.5724 -68.0544 0)
(-14.6284 -64.9261 0)
(-12.38 -59.6023 0)
(-16.9444 -56.4725 0)
(-30.6126 -53.9871 0)
(-43.4626 -46.9362 0)
(-67.9783 -43.6485 0)
(-84.0621 -27.9054 0)
(-70.3627 -17.7401 0)
(-27.7636 7.58683 0)
(0.417758 23.4212 0)
(-70 15.9887 0)
(8058.39 52.8415 0)
(-10683.8 2232.54 0)
(10993.6 1896.34 0)
(-8166.14 114.75 0)
(367.281 135.032 0)
(186.525 104.119 0)
(142.441 117.77 0)
(115.481 89.9411 0)
(83.0573 69.0764 0)
(23.757 56.8351 0)
(-6.27704 28.283 0)
(-35.8063 10.7123 0)
(-60.1398 -0.738341 0)
(-76.3251 -12.7295 0)
(-83.3424 -19.6531 0)
(-75.7385 -29.8181 0)
(-67.5632 -38.2941 0)
(-55.768 -47.8439 0)
(-45.2592 -57.0083 0)
(-35.646 -65.454 0)
(-30.3108 -72.61 0)
(-26.4472 -76.8252 0)
(-21.8182 -78.8424 0)
(-21.6559 -78.9383 0)
(-22.6294 -76.541 0)
(-22.8954 -73.0004 0)
(-21.1833 -68.3803 0)
(-20.5616 -65.0248 0)
(-14.0137 -60.3866 0)
(-10.4735 -57.3849 0)
(-8.7309 -51.8162 0)
(-14.6031 -47.3695 0)
(-26.8734 -40.6795 0)
(-38.6882 -30.0779 0)
(-58.2686 -18.6071 0)
(-69.9186 0.648794 0)
(-46.6745 20.0422 0)
(-0.982987 45.1011 0)
(10.395 63.2147 0)
(-35.0461 69.4581 0)
(9330.63 180.585 0)
(-12033.4 2639.35 0)
(11944.7 1702.77 0)
(-8964.02 130.979 0)
(355.764 156.682 0)
(169.956 142.386 0)
(136.556 153.238 0)
(93.7499 140.068 0)
(62.3294 108.464 0)
(4.73722 86.5207 0)
(-29.2321 60.2362 0)
(-56.8847 34.8694 0)
(-76.793 15.8245 0)