/*--------------------------------*- C++ -*----------------------------------*\
| =========                 |                                                 |
| \\      /  F ield         | OpenFOAM: The Open Source CFD Toolbox           |
|  \\    /   O peration     | Version:  v1912                                 |
|   \\  /    A nd           | Website:  www.openfoam.com                      |
|    \\/     M anipulation  |                                                 |
\*---------------------------------------------------------------------------*/
FoamFile
{
    version     2.0;
    format      ascii;
    class       volVectorField;
    location    "4.24";
    object      grad(p);
}
// * * * * * * * * * * * * * * * * * * * * * * * * * * * * * * * * * * * * * //

dimensions      [1 -2 -2 0 0 0 0];


internalField   nonuniform List<vector> 
1900
(
(124118 -0.960365 0)
(-102786 0.578273 0)
(-7953.71 0.115527 0)
(-1531.04 2.02637 0)
(-1976.19 4.2395 0)
(-2097.8 6.37386 0)
(-2102.29 9.29494 0)
(-1976.29 8.87173 0)
(-1729.54 -68.6662 0)
(-1475.1 -163.724 0)
(124118 -1.51915 0)
(-102785 0.928185 0)
(-7952.26 0.015838 0)
(-1526.92 2.09334 0)
(-1971.85 3.35044 0)
(-2092.74 0.985474 0)
(-2099.79 -0.509973 0)
(-2054.25 -7.69507 0)
(-1902.13 -92.2561 0)
(-1879.53 -229.117 0)
(124118 8.41993e-09 0)
(-102785 -3.30402e-09 0)
(-7952.55 1.68754e-09 0)
(-1527.71 9.41469e-10 0)
(-1977.3 -1.15463e-09 0)
(-2101.66 1.1724e-09 0)
(-2110.97 1.22569e-09 0)
(-2068.04 1.77636e-10 0)
(-1950.96 1.35003e-09 0)
(-1976.97 1.59872e-10 0)
(124118 1.51915 0)
(-102785 -0.928185 0)
(-7952.26 -0.015838 0)
(-1526.92 -2.09334 0)
(-1971.85 -3.35044 0)
(-2092.74 -0.985474 0)
(-2099.79 0.509973 0)
(-2054.25 7.69507 0)
(-1902.13 92.2561 0)
(-1879.53 229.117 0)
(124118 0.960365 0)
(-102786 -0.578273 0)
(-7953.71 -0.115527 0)
(-1531.04 -2.02637 0)
(-1976.19 -4.2395 0)
(-2097.8 -6.37386 0)
(-2102.29 -9.29494 0)
(-1976.29 -8.87173 0)
(-1729.54 68.6662 0)
(-1475.1 163.724 0)
(-1562.87 -444.052 9.8698e-12)
(-2145.82 -670.284 -1.16843e-11)
(-2774.29 -974.129 -1.45446e-11)
(-2880.64 -1663.4 0)
(-6632.76 -5023.73 -5.99858e-11)
(-2032 -562.986 9.78956e-12)
(-2434.56 -726.853 1.16843e-11)
(-3141.42 -923.109 1.45446e-11)
(-4148.48 -1665.14 0)
(-6170.24 -4501.2 0)
(-2148.15 8.8496e-10 0)
(-2462.55 1.26604e-09 0)
(-3452.13 -1.08555e-09 0)
(-4655.68 3.36431e-11 0)
(-8100.86 -8.98752e-10 0)
(-2032 562.986 9.78956e-12)
(-2434.56 726.853 1.16843e-11)
(-3141.42 923.109 1.45446e-11)
(-4148.48 1665.14 0)
(-6170.24 4501.2 0)
(-1562.87 444.052 -2.94489e-11)
(-2145.82 670.284 -1.16843e-11)
(-2774.29 974.129 -1.45446e-11)
(-2880.64 1663.4 -3.89927e-11)
(-6632.76 5023.73 5.99858e-11)
(-12367.2 2183.41 2.18141e-11)
(-8136.49 618.127 -1.66421e-11)
(-7678.88 649.179 0)
(-7063.12 672.408 1.02681e-11)
(-8532.23 -384.287 -4.10992e-12)
(-10512.5 2196.52 -1.094e-11)
(-8434.23 596.862 8.33034e-12)
(-7604.92 582.59 0)
(-7460.73 618.267 -6.43485e-12)
(-8889.97 -1260.27 1.0151e-12)
(-10837.3 -7.1772e-10 0)
(-8501.65 2.46716e-09 0)
(-7663.2 3.98036e-09 0)
(-7868.17 8.41738e-10 2.58139e-12)
(-9137.45 -1.01284e-09 -2.03019e-12)
(-10512.5 -2196.52 -1.094e-11)
(-8434.23 -596.862 8.33034e-12)
(-7604.92 -582.59 0)
(-7460.73 -618.267 -6.43485e-12)
(-8889.97 1260.27 1.0151e-12)
(-12367.2 -2183.41 1.094e-11)
(-8136.49 -618.127 -1.8616e-14)
(-7678.88 -649.179 0)
(-7063.12 -672.408 2.02507e-14)
(-8532.23 384.287 4.10992e-12)
(-11705.5 -377.462 0)
(-5602.01 2875.74 0)
(1939.37 1820.99 0)
(589.822 1408.34 0)
(-881.734 716.325 0)
(-1114.91 338.674 0)
(-1325.54 197.645 0)
(-1227 60.5068 0)
(-908.775 78.0939 0)
(-613.56 10.7433 0)
(-352.131 11.1037 0)
(-261.856 8.94803 0)
(-212.251 7.7357 0)
(-173.737 6.06184 0)
(-140.445 4.75093 0)
(-113.175 3.92719 0)
(-91.4726 3.43391 0)
(-73.8521 3.10905 0)
(-60.4379 2.85474 0)
(-49.7088 2.65184 0)
(-40.1807 2.4671 0)
(-33.9395 2.31263 0)
(-29.2489 2.21229 0)
(-24.6884 2.15329 0)
(-20.3939 2.14454 0)
(-15.7118 2.17933 0)
(-11.2481 2.26143 0)
(-8.51162 2.34946 0)
(-8.54457 2.50009 0)
(-13.1672 2.35389 0)
(-15.7495 2.42498 0)
(-16.7927 2.06598 0)
(-4.23188 2.30703 0)
(1.03253 4.17402 0)
(4.64497 4.57208 0)
(-6.47855 9.34088 0)
(-32.6994 10.0011 0)
(847.839 14.6778 0)
(22816.1 -1.69975 0)
(-28157.5 -1984.88 0)
(-11204.9 -795.944 0)
(-5405.31 3738.19 0)
(1693.29 2265.92 0)
(532.884 1145.18 0)
(-983.273 503.247 0)
(-1179.9 182.279 0)
(-1358.51 99.8758 0)
(-1239.88 13.3209 0)
(-911.663 28.3221 0)
(-618.96 0.866242 0)
(-351.615 4.11953 0)
(-262.109 2.59358 0)
(-212.405 2.21177 0)
(-173.924 1.65543 0)
(-140.574 1.23412 0)
(-113.246 0.995323 0)
(-91.5108 0.876678 0)
(-73.878 0.810766 0)
(-60.4614 0.755403 0)
(-49.7345 0.700802 0)
(-40.2103 0.632166 0)
(-33.9693 0.555424 0)
(-29.2772 0.482963 0)
(-24.7152 0.412592 0)
(-20.4192 0.351103 0)
(-15.7344 0.298855 0)
(-11.2674 0.271837 0)
(-8.52301 0.280473 0)
(-8.57514 0.356873 0)
(-13.1988 0.396191 0)
(-15.7951 0.635579 0)
(-16.8046 0.914412 0)
(-3.99631 1.92711 0)
(1.3698 4.24379 0)
(5.3489 7.46132 0)
(-5.62353 13.757 0)
(-31.9574 21.2786 0)
(848.426 29.1947 0)
(22831.2 31.2973 0)
(-28176 1331.74 0)
(-10244.4 -1.36134e-08 0)
(-4711.29 -1.34276e-08 0)
(1185.04 -1.05612e-08 0)
(77.0446 3.47116e-08 0)
(-1161.85 2.48609e-08 0)
(-1232.25 2.23337e-08 0)
(-1374.69 -8.77682e-09 0)
(-1247.82 -4.73076e-08 0)
(-912.398 -1.57046e-08 0)
(-620.601 -5.93465e-09 0)
(-351.629 -5.45019e-09 0)
(-262.411 7.26691e-11 0)
(-212.524 -6.22532e-09 0)
(-174.022 -1.24829e-08 0)
(-140.637 -1.29997e-08 0)
(-113.279 -6.92779e-09 0)
(-91.5263 4.38437e-09 0)
(-73.8874 6.65326e-09 0)
(-60.4699 -1.45338e-10 0)
(-49.7447 -1.8571e-09 0)
(-40.223 3.98873e-09 0)
(-33.9829 1.38152e-08 0)
(-29.2904 4.83654e-09 0)
(-24.7267 -1.62617e-08 0)
(-20.427 -2.28504e-08 0)
(-15.7349 -2.16312e-08 0)
(-11.2535 -3.91283e-08 0)
(-8.48688 -1.1191e-08 0)
(-8.51091 2.03716e-08 0)
(-13.0861 4.2899e-08 0)
(-15.5987 2.58702e-08 0)
(-16.4169 -4.33593e-09 0)
(-3.26333 8.0582e-09 0)
(2.64248 3.70532e-08 0)
(7.41246 6.31899e-08 0)
(-2.45898 8.08565e-08 0)
(-28.2085 1.94673e-08 0)
(850.753 7.87491e-08 0)
(23195.1 2.3653e-07 0)
(-28554 1.04392e-06 0)
(-11204.9 795.944 0)
(-5405.31 -3738.19 0)
(1693.29 -2265.92 0)
(532.884 -1145.18 0)
(-983.273 -503.247 0)
(-1179.9 -182.279 0)
(-1358.51 -99.8758 0)
(-1239.88 -13.3209 0)
(-911.663 -28.3221 0)
(-618.96 -0.866242 0)
(-351.615 -4.11953 0)
(-262.109 -2.59358 0)
(-212.405 -2.21177 0)
(-173.924 -1.65543 0)
(-140.574 -1.23412 0)
(-113.246 -0.995323 0)
(-91.5108 -0.876678 0)
(-73.878 -0.810765 0)
(-60.4614 -0.755404 0)
(-49.7345 -0.700802 0)
(-40.2103 -0.632166 0)
(-33.9693 -0.555424 0)
(-29.2772 -0.482963 0)
(-24.7152 -0.412592 0)
(-20.4192 -0.351103 0)
(-15.7344 -0.298855 0)
(-11.2674 -0.271837 0)
(-8.52301 -0.280473 0)
(-8.57514 -0.356873 0)
(-13.1988 -0.396192 0)
(-15.7951 -0.635579 0)
(-16.8046 -0.914412 0)
(-3.99631 -1.92711 0)
(1.3698 -4.24379 0)
(5.3489 -7.46132 0)
(-5.62353 -13.757 0)
(-31.9574 -21.2786 0)
(848.426 -29.1947 0)
(22831.2 -31.2973 0)
(-28176 -1331.74 0)
(-11705.5 377.462 0)
(-5602.01 -2875.74 0)
(1939.37 -1820.99 0)
(589.822 -1408.34 0)
(-881.734 -716.325 0)
(-1114.91 -338.674 0)
(-1325.54 -197.645 0)
(-1227 -60.5068 0)
(-908.775 -78.0939 0)
(-613.56 -10.7433 0)
(-352.131 -11.1037 0)
(-261.856 -8.94803 0)
(-212.251 -7.7357 0)
(-173.737 -6.06184 0)
(-140.445 -4.75093 0)
(-113.175 -3.92719 0)
(-91.4726 -3.43391 0)
(-73.8521 -3.10905 0)
(-60.4379 -2.85474 0)
(-49.7088 -2.65184 0)
(-40.1807 -2.4671 0)
(-33.9395 -2.31263 0)
(-29.2489 -2.21229 0)
(-24.6884 -2.15329 0)
(-20.3939 -2.14454 0)
(-15.7118 -2.17933 0)
(-11.2481 -2.26143 0)
(-8.51162 -2.34946 0)
(-8.54457 -2.50009 0)
(-13.1672 -2.35389 0)
(-15.7495 -2.42498 0)
(-16.7927 -2.06598 0)
(-4.23188 -2.30703 0)
(1.03253 -4.17402 0)
(4.64497 -4.57208 0)
(-6.47855 -9.34088 0)
(-32.6994 -10.0011 0)
(847.839 -14.6778 0)
(22816.1 1.69975 0)
(-28157.5 1984.88 0)
(14582.2 1397.87 0)
(-6556.91 -2419.8 0)
(2329.22 -1992.98 0)
(1159.98 -1793.07 0)
(-429.708 -975.564 0)
(-929.687 -575.089 0)
(-1222.15 -359.231 0)
(-1179.77 -166.251 0)
(-883.787 -138.198 0)
(-583.182 -32.8508 0)
(-349.892 -23.1906 0)
(-260.289 -18.6504 0)
(-210.773 -15.7259 0)
(-172.268 -12.3454 0)
(-139.385 -9.7686 0)
(-112.503 -8.14875 0)
(-91.0417 -7.15949 0)
(-73.5447 -6.48717 0)
(-60.2016 -5.95359 0)
(-49.521 -5.53235 0)
(-40.0319 -5.16936 0)
(-33.844 -4.88667 0)
(-29.2101 -4.72201 0)
(-24.7038 -4.64703 0)
(-20.4649 -4.68156 0)
(-15.8339 -4.816 0)
(-11.3964 -5.0458 0)
(-8.68589 -5.28247 0)
(-8.61327 -5.59961 0)
(-13.1882 -5.43723 0)
(-15.6671 -5.49355 0)
(-16.7443 -4.94182 0)
(-5.04626 -5.24557 0)
(0.338961 -8.0431 0)
(2.92178 -8.5477 0)
(-8.04041 -15.3582 0)
(-34.4471 -16.0812 0)
(856.444 -23.0057 0)
(24103 -48.2645 0)
(-29443.5 317.583 0)
(14919.6 2815.95 0)
(-8357.51 -1082.01 0)
(2334.27 -1022.27 0)
(1264.51 -1406.8 0)
(49.5662 -1037.6 0)
(-620.31 -744.731 0)
(-987.007 -517.158 0)
(-1039.33 -291.587 0)
(-793.625 -173.791 0)
(-519.024 -64.0794 0)
(-339.648 -38.4305 0)
(-255.503 -29.2905 0)
(-206.968 -23.5746 0)
(-168.785 -18.3418 0)
(-136.969 -14.5466 0)
(-111.021 -12.1999 0)
(-90.1024 -10.7454 0)
(-72.8549 -9.72252 0)
(-59.6445 -8.88666 0)
(-49.0538 -8.21865 0)
(-39.6383 -7.6368 0)
(-33.5596 -7.17611 0)
(-29.0387 -6.89402 0)
(-24.6411 -6.74119 0)
(-20.5187 -6.752 0)
(-15.9974 -6.91335 0)
(-11.6182 -7.23687 0)
(-8.95184 -7.56878 0)
(-8.65687 -8.03083 0)
(-13.0537 -7.75985 0)
(-15.3163 -7.78253 0)
(-16.5796 -7.05512 0)
(-6.78368 -7.5127 0)
(-1.77761 -11.7723 0)
(-1.48005 -13.2594 0)
(-12.9005 -22.6666 0)
(-39.1317 -25.576 0)
(812.211 -33.9065 0)
(22454.3 -119.617 0)
(-27727.4 -2175.71 0)
(16253.1 2743.46 0)
(-10255.6 -246.029 0)
(2016.24 -630.744 0)
(1145.21 -961.953 0)
(208.282 -905.638 0)
(-428.17 -762.606 0)
(-785.479 -597.37 0)
(-848.894 -362.977 0)
(-664.553 -196.614 0)
(-452.743 -93.9764 0)
(-316.368 -56.5929 0)
(-245.974 -41.5518 0)
(-200.223 -31.9442 0)
(-163.568 -24.6148 0)
(-133.467 -19.5843 0)
(-108.84 -16.4552 0)
(-88.6545 -14.4201 0)
(-71.7535 -12.9216 0)
(-58.7525 -11.6814 0)
(-48.3166 -10.7033 0)
(-39.0272 -9.86593 0)
(-33.1283 -9.21477 0)
(-28.791 -8.8326 0)
(-24.567 -8.64003 0)
(-20.6308 -8.69029 0)
(-16.3011 -8.9633 0)
(-12.028 -9.49597 0)
(-9.45099 -10.0219 0)
(-8.79739 -10.7597 0)
(-12.9489 -10.3788 0)
(-14.988 -10.4947 0)
(-16.4843 -9.75164 0)
(-9.59186 -10.5886 0)
(-5.19879 -16.5297 0)
(-7.5764 -19.0058 0)
(-19.9091 -29.6027 0)
(-45.2783 -34.0285 0)
(765.823 -40.9236 0)
(22039.1 -101.023 0)
(-27231.7 -945.802 0)
(17326.2 2166.52 0)
(-11609 -57.9453 0)
(1644.38 -424.698 0)
(999.607 -768.273 0)
(241.664 -789.804 0)
(-323.252 -727.15 0)
(-601.91 -589.102 0)
(-653.15 -370.062 0)
(-534.406 -206.471 0)
(-384.095 -110.807 0)
(-289.13 -70.9983 0)
(-231.751 -51.3159 0)
(-190.647 -38.246 0)
(-156.874 -29.1945 0)
(-129.106 -23.2293 0)
(-106.044 -19.4215 0)
(-86.6973 -16.8041 0)
(-70.2158 -14.794 0)
(-57.5069 -13.1164 0)
(-47.3044 -11.8131 0)
(-38.2039 -10.7193 0)
(-32.5638 -9.88797 0)
(-28.4849 -9.42902 0)
(-24.504 -9.22948 0)
(-20.8302 -9.36231 0)
(-16.7737 -9.79854 0)
(-12.6383 -10.5974 0)
(-10.1696 -11.3192 0)
(-9.00075 -12.3748 0)
(-12.7984 -11.9685 0)
(-14.712 -12.3148 0)
(-16.67 -11.9474 0)
(-13.3153 -13.5497 0)
(-9.88874 -20.932 0)
(-14.0776 -25.1946 0)
(-27.377 -35.8752 0)
(-50.041 -41.9256 0)
(747.652 -45.3873 0)
(21582.3 -95.4303 0)
(-26718.7 -970.281 0)
(18285 1755.58 0)
(-12752.5 -90.7041 0)
(1331.74 -348.894 0)
(793.376 -657.4 0)
(247.909 -716.034 0)
(-234.767 -655.452 0)
(-441.375 -514.897 0)
(-480.177 -343.335 0)
(-414.725 -198.001 0)
(-322.197 -118.111 0)
(-259.04 -78.9277 0)
(-214.412 -56.9141 0)
(-178.906 -42.0283 0)
(-149.098 -32.0961 0)
(-124.049 -25.5864 0)
(-102.648 -21.2098 0)
(-84.1952 -18.0185 0)
(-68.1999 -15.4741 0)
(-55.8799 -13.3354 0)
(-46.0067 -11.6978 0)
(-37.1721 -10.3514 0)
(-31.8849 -9.35417 0)
(-28.1564 -8.84435 0)
(-24.5027 -8.67364 0)
(-21.1791 -8.92613 0)
(-17.4912 -9.53386 0)
(-13.4933 -10.5823 0)
(-11.1637 -11.3689 0)
(-9.42314 -12.5487 0)
(-12.8911 -11.8725 0)
(-14.9677 -12.2012 0)
(-17.6743 -12.139 0)
(-18.2497 -13.9472 0)
(-16.4202 -21.7113 0)
(-21.9762 -27.02 0)
(-36.0318 -36.4089 0)
(-54.4445 -42.6228 0)
(714.264 -43.535 0)
(21147.8 -114.859 0)
(-26204.7 -1179.85 0)
(18930.6 1863.16 0)
(-13637 -126.241 0)
(1098.29 -356.55 0)
(645.817 -547.576 0)
(243.541 -632.708 0)
(-129.429 -563.366 0)
(-301.142 -436.318 0)
(-347.778 -301.204 0)
(-317.372 -186.609 0)
(-269.351 -120.344 0)
(-230.158 -83.4236 0)
(-196.193 -60.2087 0)
(-166.731 -44.6579 0)
(-141.03 -34.3016 0)
(-118.615 -27.3495 0)
(-98.7517 -22.3808 0)
(-81.1701 -18.5763 0)
(-65.7029 -15.4621 0)
(-53.868 -12.8369 0)
(-44.4289 -10.8586 0)
(-35.9455 -9.2701 0)
(-31.1115 -8.13173 0)
(-27.8291 -7.61385 0)
(-24.5828 -7.52533 0)
(-21.6591 -7.97029 0)
(-18.3697 -8.81162 0)
(-14.4066 -10.198 0)
(-12.0644 -11.1543 0)
(-9.48604 -12.6695 0)
(-12.4636 -11.8285 0)
(-14.9688 -12.3622 0)
(-18.3525 -12.9483 0)
(-22.5395 -15.0858 0)
(-22.4862 -23.1558 0)
(-28.2407 -29.3688 0)
(-42.4124 -37.4363 0)
(-56.9079 -42.9455 0)
(678.042 -39.8327 0)
(20487.3 -126.087 0)
(-25471.1 -1321.41 0)
(19958.7 31.1381 0)
(-14891.5 -163.876 0)
(925.73 -338.164 0)
(527.26 -474.257 0)
(232.693 -535.529 0)
(-45.5174 -469.118 0)
(-188.747 -367.416 0)
(-239.548 -252.341 0)
(-240.442 -166.109 0)
(-222.764 -113 0)
(-201.092 -79.9649 0)
(-177.056 -58.38 0)
(-153.941 -44.3011 0)
(-132.419 -34.8643 0)
(-112.562 -28.2615 0)
(-94.1942 -23.186 0)
(-77.528 -19.0644 0)
(-62.6691 -15.5488 0)
(-51.4439 -12.5286 0)
(-42.5697 -10.2606 0)
(-34.5444 -8.45046 0)
(-30.2888 -7.15878 0)
(-27.5721 -6.58359 0)
(-24.8461 -6.46411 0)
(-22.4186 -6.89021 0)
(-19.6379 -7.63623 0)
(-15.7509 -8.88818 0)
(-13.5454 -9.30258 0)
(-10.0728 -10.3619 0)
(-12.595 -8.54795 0)
(-16.0468 -8.47484 0)
(-20.2988 -9.14196 0)
(-28.086 -11.0852 0)
(-30.1838 -19.2622 0)
(-35.7374 -26.8751 0)
(-49.1147 -34.3122 0)
(-56.7537 -40.2358 0)
(634.146 -37.2133 0)
(19912.8 -181.703 0)
(-24809.8 -1541.25 0)
(18802.7 -1533.42 0)
(-13992.8 -179.521 0)
(799.193 -309.948 0)
(455.63 -409.298 0)
(248.493 -437.92 0)
(32.5703 -385.773 0)
(-92.2483 -301.83 0)
(-153.791 -213.101 0)
(-183.098 -148.878 0)
(-186.339 -106.055 0)
(-177.524 -77.5539 0)
(-161.826 -58.3385 0)
(-144.071 -46.1451 0)
(-125.574 -37.5839 0)
(-107.362 -31.2106 0)
(-89.8891 -25.9303 0)
(-73.8106 -21.4298 0)
(-59.4047 -17.4807 0)
(-48.7721 -14.061 0)
(-40.4991 -11.5131 0)
(-32.9565 -9.50036 0)
(-29.3126 -8.08176 0)
(-27.1597 -7.47507 0)
(-24.8782 -7.35121 0)
(-22.7886 -7.79028 0)
(-20.295 -8.46501 0)
(-16.0123 -9.74612 0)
(-13.4845 -9.71288 0)
(-8.75885 -10.3067 0)
(-10.6452 -7.89481 0)
(-15.5412 -7.61712 0)
(-20.868 -9.1646 0)
(-32.2918 -11.5545 0)
(-37.7019 -20.4562 0)
(-42.7434 -30.8745 0)
(-55.2872 -37.5298 0)
(-59.7036 -43.796 0)
(541.72 -39.7729 0)
(19038 -229.238 0)
(-23810.8 -1870.86 0)
(18308.1 -981.112 0)
(-13712.6 -165.63 0)
(704.308 -271.851 0)
(403.941 -345.473 0)
(255.363 -354.769 0)
(85.6235 -319.118 0)
(-22.3547 -250.748 0)
(-92.1575 -185.284 0)
(-137.288 -134.221 0)
(-154.033 -96.7345 0)
(-155.11 -71.6423 0)
(-146.79 -54.7993 0)
(-133.941 -45.043 0)
(-118.027 -38.0879 0)
(-101.332 -32.9126 0)
(-84.7691 -28.3569 0)
(-69.3857 -24.258 0)
(-55.5684 -20.4994 0)
(-45.6933 -17.1407 0)
(-38.1748 -14.5756 0)
(-31.2378 -12.3999 0)
(-28.3372 -10.6823 0)
(-26.8681 -9.6731 0)
(-25.1499 -9.01129 0)
(-23.4919 -8.81131 0)
(-21.5226 -8.58169 0)
(-16.9534 -8.93221 0)
(-14.0855 -7.63194 0)
(-8.32082 -7.0752 0)
(-10.0033 -4.11694 0)
(-17.2704 -3.79666 0)
(-24.093 -7.13844 0)
(-38.967 -11.4067 0)
(-48.8013 -22.923 0)
(-52.1901 -37.6975 0)
(-61.5664 -47.5795 0)
(-58.9153 -57.1903 0)
(455.447 -55.8683 0)
(18148.3 -339.773 0)
(-22786.1 -2143.89 0)
(17697.6 -1202.18 0)
(-13309.4 -153.317 0)
(625.889 -233.181 0)
(375.727 -288.857 0)
(273.89 -283.941 0)
(132.809 -262.658 0)
(36.7188 -210.405 0)
(-41.5018 -162.299 0)
(-97.7686 -124.968 0)
(-126.036 -92.044 0)
(-137.114 -71.6251 0)
(-136.194 -57.3819 0)
(-127.967 -49.5756 0)
(-113.885 -43.37 0)
(-97.9847 -38.729 0)
(-81.5493 -34.3458 0)
(-66.2388 -30.2624 0)
(-52.5463 -26.4952 0)
(-43.0637 -23.1357 0)
(-35.9307 -20.5702 0)
(-29.2047 -18.263 0)
(-26.6849 -16.3072 0)
(-25.5495 -15.0354 0)
(-24.0478 -14.0219 0)
(-22.3747 -13.502 0)
(-20.4115 -12.7553 0)
(-15.0971 -12.6405 0)
(-11.695 -10.7954 0)
(-5.37167 -10.0432 0)
(-7.48586 -7.42141 0)
(-18.4528 -7.02078 0)
(-28.2012 -10.5385 0)
(-47.5024 -14.2732 0)
(-63.0367 -25.5885 0)
(-66.5033 -41.3645 0)
(-74.0712 -54.0674 0)
(-67.691 -62.4897 0)
(269.413 -64.4316 0)
(17025.9 -423.432 0)
(-21417.4 -2470.52 0)
(17001.9 -1486.12 0)
(-12778.8 -156.126 0)
(573.696 -213.025 0)
(355.026 -251.164 0)
(280.609 -247.046 0)
(156.486 -232.905 0)
(74.3549 -196.554 0)
(-9.82727 -162.084 0)
(-69.5874 -131.996 0)
(-102.63 -99.4405 0)
(-121.709 -80.487 0)
(-125.542 -65.1188 0)
(-120.439 -56.3564 0)
(-107.575 -48.2916 0)
(-92.6357 -42.1014 0)
(-76.6103 -36.348 0)
(-61.8206 -31.4092 0)
(-48.7008 -27.2893 0)
(-39.9838 -23.9006 0)
(-33.4793 -21.3631 0)
(-27.1297 -18.8772 0)
(-25.227 -16.6536 0)
(-24.6659 -15.2813 0)
(-23.6723 -14.3116 0)
(-22.2714 -14.1561 0)
(-20.6924 -14.1708 0)
(-15.0648 -15.4936 0)
(-11.5828 -15.682 0)
(-5.06951 -17.7894 0)
(-7.09072 -18.743 0)
(-20.2742 -21.6442 0)
(-31.0817 -29.0959 0)
(-53.4697 -36.4342 0)
(-74.9075 -50.6214 0)
(-79.6334 -70.0959 0)
(-81.9234 -88.5213 0)
(-68.9026 -96.3976 0)
(107.629 -98.5337 0)
(15829.7 -423.51 0)
(-19997.4 -2728.14 0)
(16115.1 -1862.56 0)
(-12082.6 -175.057 0)
(534.307 -216.798 0)
(342.943 -224.969 0)
(291.485 -239.03 0)
(181.465 -221.196 0)
(104.965 -188.531 0)
(20.7094 -161.989 0)
(-37.4033 -129.834 0)
(-76.4001 -101.101 0)
(-104.041 -83.981 0)
(-112.941 -68.6422 0)
(-111.752 -60.1746 0)
(-100.148 -50.98 0)
(-86.4754 -43.4645 0)
(-71.2459 -36.2385 0)
(-57.5095 -30.243 0)
(-45.3107 -25.4719 0)
(-37.353 -21.7884 0)
(-31.09 -19.2111 0)
(-24.6665 -16.6299 0)
(-23.2197 -14.3167 0)
(-23.2926 -13.1124 0)
(-22.9635 -12.5168 0)
(-22.239 -12.9841 0)
(-21.7004 -13.679 0)
(-16.5533 -16.0588 0)
(-13.9074 -17.3015 0)
(-8.32139 -21.1915 0)
(-11.2004 -24.8318 0)
(-28.4292 -30.086 0)
(-42.4534 -41.45 0)
(-68.2452 -51.8088 0)
(-95.4744 -69.2934 0)
(-103.025 -88.8794 0)
(-99.4165 -115.411 0)
(-77.3394 -128.517 0)
(-45.8046 -132.959 0)
(14491.9 -393.275 0)
(-18380.4 -3056.55 0)
(15038.3 -2171.03 0)
(-11192.9 -188.228 0)
(525.599 -221.842 0)
(333.603 -206.709 0)
(284.245 -223.862 0)
(205.148 -209.181 0)
(131.409 -188.755 0)
(46.7347 -172.15 0)
(-10.914 -135.91 0)
(-58.4442 -112.128 0)
(-90.43 -95.8726 0)
(-102.601 -79.5217 0)
(-103.419 -69.0498 0)
(-91.4725 -55.8336 0)
(-78.4303 -44.7275 0)
(-63.8696 -33.3374 0)
(-51.4455 -23.2074 0)
(-40.5537 -14.734 0)
(-33.9506 -8.28671 0)
(-28.5084 -4.27189 0)
(-22.4133 -1.67922 0)
(-21.8374 -0.75924 0)
(-22.9314 -2.21608 0)
(-23.5486 -5.00124 0)
(-23.3915 -9.32897 0)
(-23.6553 -13.474 0)
(-18.5555 -19.2857 0)
(-16.5288 -23.3011 0)
(-12.326 -30.2099 0)
(-15.6618 -37.6063 0)
(-36.2881 -44.2505 0)
(-52.0146 -58.8235 0)
(-80.3006 -72.1434 0)
(-110.63 -96.1739 0)
(-124.074 -121.327 0)
(-120.119 -158.125 0)
(-85.8128 -175.662 0)
(-147.501 -176.502 0)
(13012.4 -328.918 0)
(-16673 -3328.62 0)
(13841.6 -2368.24 0)
(-10204.3 -234.39 0)
(516.497 -273.127 0)
(340.996 -270.951 0)
(289.103 -273.628 0)
(215.295 -224.699 0)
(140.65 -207.32 0)
(71.633 -185.413 0)
(20.4357 -148.733 0)
(-37.8186 -124.051 0)
(-72.62 -105.13 0)
(-87.0934 -85.2297 0)
(-88.9249 -73.1058 0)
(-76.7101 -57.9126 0)
(-64.7972 -45.0192 0)
(-50.5083 -31.7305 0)
(-39.5827 -20.1282 0)
(-30.9325 -10.9212 0)
(-27.2713 -4.20411 0)
(-24.7228 0.0147532 0)
(-21.2816 2.94141 0)
(-23.7371 4.0469 0)
(-27.3804 2.35473 0)
(-29.8178 -1.01382 0)
(-30.4037 -6.47666 0)
(-31.295 -11.9019 0)
(-26.0231 -19.3414 0)
(-24.4343 -25.8789 0)
(-22.1064 -35.9956 0)
(-24.7304 -49.2963 0)
(-48.8748 -61.3786 0)
(-69.3321 -84.2366 0)
(-104.237 -101.466 0)
(-142.869 -134.293 0)
(-162.724 -166.755 0)
(-151.776 -219.824 0)
(-95.0482 -249.131 0)
(-193.487 -256.763 0)
(11454.4 -314.386 0)
(-14855.8 -3455.83 0)
(12530.3 -2531.72 0)
(-9173.95 -249.692 0)
(490.368 -291.536 0)
(333.121 -307.606 0)
(328.814 -299.118 0)
(269.045 -228.355 0)
(169.267 -209.776 0)
(103.191 -180.694 0)
(48.2164 -128.145 0)
(-16.4262 -123.665 0)
(-53.0205 -109.16 0)
(-71.7418 -91.5572 0)
(-77.0949 -79.2925 0)
(-64.4073 -64.3931 0)
(-53.2003 -51.5819 0)
(-39.8837 -37.614 0)
(-31.393 -25.1622 0)
(-25.2086 -13.9458 0)
(-23.4123 -5.33814 0)
(-21.6227 -0.363191 0)
(-18.5278 1.95955 0)
(-22.4028 1.09307 0)
(-27.8081 -2.9523 0)
(-32.0588 -8.10843 0)
(-33.8836 -14.7959 0)
(-36.0522 -20.4055 0)
(-32.0242 -27.3601 0)
(-32.5775 -33.3895 0)
(-34.8919 -41.8446 0)
(-40.1218 -55.6033 0)
(-69.9577 -66.734 0)
(-90.6445 -91.3569 0)
(-128.537 -110.386 0)
(-173.544 -148.73 0)
(-206.495 -190.849 0)
(-199.5 -233.083 0)
(-121.409 -266.672 0)
(-210.383 -271.638 0)
(9929.71 -267.98 0)
(-13039.9 -3396.54 0)
(11161.3 -2196.59 0)
(-8045.53 -182.553 0)
(460.689 -238.343 0)
(333.689 -270.211 0)
(365.472 -255.433 0)
(301.388 -221.044 0)
(186.578 -191.776 0)
(150.295 -144.304 0)
(75.3917 -129.425 0)
(-19.5242 -126.672 0)
(-41.6801 -105.791 0)
(-58.3116 -99.9358 0)
(-62.7487 -94.5409 0)
(-50.0072 -81.4383 0)
(-38.9919 -69.4276 0)
(-25.0493 -53.9988 0)
(-16.7752 -40.2172 0)
(-11.8293 -27.1875 0)
(-14.1826 -17.4329 0)
(-17.6905 -11.4375 0)
(-19.8783 -9.33535 0)
(-28.4703 -11.8038 0)
(-36.2473 -18.1546 0)
(-41.2307 -25.6784 0)
(-42.2536 -34.6659 0)
(-43.4024 -41.8427 0)
(-38.5349 -48.3643 0)
(-38.3921 -54.41 0)
(-43.5124 -60.7635 0)
(-48.7148 -74.1745 0)
(-83.3283 -81.5314 0)
(-111.396 -100.445 0)
(-159.524 -115.734 0)
(-220.407 -142.037 0)
(-244.009 -181.873 0)
(-224.842 -204.207 0)
(-132.201 -229.935 0)
(-194.747 -216.752 0)
(8443.12 -175.48 0)
(-11324.6 -2777.1 0)
(10237.7 -1926.01 0)
(-7286.92 -37.3712 0)
(405.897 -89.9757 0)
(316.652 -143.922 0)
(376.194 -162.469 0)
(330.387 -164.728 0)
(243.217 -142.59 0)
(163.275 -101.644 0)
(65.2069 -135.015 0)
(6.34822 -123.59 0)
(-27.2564 -102.984 0)
(-60.901 -104.943 0)
(-59.27 -101.699 0)
(-40.2072 -92.7065 0)
(-26.7586 -83.988 0)
(-11.7354 -71.4706 0)
(-5.55665 -60.1734 0)
(-3.25286 -49.2616 0)
(-8.235 -40.0073 0)
(-13.8197 -34.099 0)
(-18.8808 -33.3887 0)
(-30.9013 -36.4874 0)
(-41.1782 -42.4372 0)
(-47.9698 -48.2062 0)
(-49.4602 -54.6076 0)
(-49.2524 -58.7481 0)
(-44.1344 -59.8434 0)
(-44.5257 -64.1038 0)
(-53.9378 -64.3071 0)
(-60.1346 -74.3039 0)
(-95.2732 -76.2142 0)
(-123.603 -85.4733 0)
(-168.616 -91.0187 0)
(-237.278 -96.2992 0)
(-266.403 -113.957 0)
(-245.814 -121.034 0)
(-133.497 -122.59 0)
(-157.909 -107.498 0)
(7462.47 -40.9336 0)
(-10194.7 -2395.1 0)
(9269.36 7362.39 0)
(-6276.26 641.649 0)
(358.013 126.869 0)
(263.833 -9.17016 0)
(345.422 -89.7759 0)
(320.544 -130.152 0)
(247.368 -98.8392 0)
(157.595 16.7293 0)
(54.2436 166.45 0)
(11.3422 360.255 0)
(-23.7118 555.267 0)
(-57.0735 676.353 0)
(-50.9569 793.945 0)
(-32.9403 859.767 0)
(-18.5282 911.405 0)
(-2.10071 935.204 0)
(4.62628 955.931 0)
(7.60353 946.052 0)
(0.428632 955.876 0)
(-11.3126 938.821 0)
(-22.1798 936.161 0)
(-37.1897 956.328 0)
(-47.54 949.253 0)
(-52.9585 963.196 0)
(-52.4122 943.747 0)
(-48.4479 922.685 0)
(-43.6958 886.365 0)
(-42.6935 808.845 0)
(-53.3416 740.423 0)
(-60.1889 575.631 0)
(-94.0916 427.979 0)
(-125.663 211.423 0)
(-169.956 54.7065 0)
(-242.511 -62.8426 0)
(-267.845 -131.224 0)
(-233.162 -143.121 0)
(-119.158 -118.379 0)
(-116.06 -74.4433 0)
(6238.7 460.162 0)
(-8977.1 6579.62 0)
(17950.7 164535 0)
(-14259.3 16151 0)
(-221.255 8150.15 0)
(107.885 9429.15 0)
(259.611 10478.8 0)
(321.653 12006.5 0)
(384.757 13500.2 0)
(418.917 14985.1 0)
(396.24 16312.2 0)
(381.026 17574.3 0)
(277.348 18734.9 0)
(169.099 19765.3 0)
(117.474 20735.9 0)
(72.9807 21542.2 0)
(45.9352 22209.5 0)
(31.1718 22773.4 0)
(4.89643 23234.4 0)
(-3.30591 23676.3 0)
(-15.203 23854.1 0)
(-32.8177 24006.7 0)
(-2.01055 23993.4 0)
(-18.2856 23787.8 0)
(-34.5591 23625.3 0)
(-53.2753 23072.7 0)
(-88.4986 22659.6 0)
(-104.548 21911.4 0)
(-153.835 21257.8 0)
(-185.161 20283.8 0)
(-278.671 19311.8 0)
(-361.217 18065.1 0)
(-446.237 16789.6 0)
(-483.302 15399.3 0)
(-432.908 13894.6 0)
(-416.448 12300.7 0)
(-343.763 10694.8 0)
(-233.436 9070.12 0)
(-67.3166 7964.82 0)
(399.595 6562.82 0)
(13874.6 13991.4 0)
(-16978.5 149459 0)
(183385 -189327 0)
(-156975 -19606.6 0)
(-6119.37 -11631.2 0)
(2507.79 -13026.7 0)
(2829.03 -14345.6 0)
(3232.08 -16231.9 0)
(3117.7 -18033.5 0)
(2867.36 -19866.5 0)
(2549.26 -21443.7 0)
(2345.95 -22923.2 0)
(2087.67 -24273.6 0)
(1871.12 -25377.4 0)
(1661.31 -26390.8 0)
(1387.09 -27223.3 0)
(1167.86 -27906 0)
(985.503 -28482.9 0)
(874.685 -28961 0)
(604.837 -29395.7 0)
(318.847 -29585.3 0)
(122.921 -29710.8 0)
(-233.152 -29678.8 0)
(-391.927 -29466.8 0)
(-736.621 -29253.1 0)
(-983.533 -28666.5 0)
(-1171.51 -28177.1 0)
(-1399.27 -27358.9 0)
(-1612.11 -26616.6 0)
(-1917.98 -25526.3 0)
(-2191.35 -24434.1 0)
(-2490.66 -22963.1 0)
(-2662.96 -21474.6 0)
(-2915.32 -19736.6 0)
(-3155.86 -17947.7 0)
(-3325.99 -16012.4 0)
(-3380.94 -14064 0)
(-2863.87 -12147.1 0)
(-2535.28 -10849.9 0)
(5691.36 -9446.32 0)
(143939 -17170.7 0)
(-166484 -173215 0)
(183385 189327 0)
(-156975 19606.6 0)
(-6119.37 11631.2 0)
(2507.79 13026.7 0)
(2829.03 14345.6 0)
(3232.08 16231.9 0)
(3117.7 18033.5 0)
(2867.36 19866.5 0)
(2549.26 21443.7 0)
(2345.95 22923.2 0)
(2087.67 24273.6 0)
(1871.12 25377.4 0)
(1661.31 26390.8 0)
(1387.09 27223.3 0)
(1167.86 27906 0)
(985.503 28482.9 0)
(874.685 28961 0)
(604.837 29395.7 0)
(318.847 29585.3 0)
(122.921 29710.8 0)
(-233.152 29678.8 0)
(-391.927 29466.8 0)
(-736.621 29253.1 0)
(-983.533 28666.5 0)
(-1171.51 28177.1 0)
(-1399.27 27358.9 0)
(-1612.11 26616.6 0)
(-1917.98 25526.3 0)
(-2191.35 24434.1 0)
(-2490.66 22963.1 0)
(-2662.96 21474.6 0)
(-2915.32 19736.6 0)
(-3155.86 17947.7 0)
(-3325.99 16012.4 0)
(-3380.94 14064 0)
(-2863.87 12147.1 0)
(-2535.28 10849.9 0)
(5691.36 9446.32 0)
(143939 17170.7 0)
(-166484 173215 0)
(17950.7 -164535 0)
(-14259.3 -16151 0)
(-221.255 -8150.15 0)
(107.885 -9429.15 0)
(259.611 -10478.8 0)
(321.653 -12006.5 0)
(384.757 -13500.2 0)
(418.917 -14985.1 0)
(396.24 -16312.2 0)
(381.026 -17574.3 0)
(277.348 -18734.9 0)
(169.099 -19765.3 0)
(117.474 -20735.9 0)
(72.9807 -21542.2 0)
(45.9352 -22209.5 0)
(31.1718 -22773.4 0)
(4.89643 -23234.4 0)
(-3.30591 -23676.3 0)
(-15.203 -23854.1 0)
(-32.8177 -24006.7 0)
(-2.01054 -23993.4 0)
(-18.2856 -23787.8 0)
(-34.5591 -23625.3 0)
(-53.2753 -23072.7 0)
(-88.4986 -22659.6 0)
(-104.548 -21911.4 0)
(-153.835 -21257.8 0)
(-185.161 -20283.8 0)
(-278.671 -19311.8 0)
(-361.217 -18065.1 0)
(-446.237 -16789.6 0)
(-483.302 -15399.3 0)
(-432.908 -13894.6 0)
(-416.448 -12300.7 0)
(-343.763 -10694.8 0)
(-233.436 -9070.12 0)
(-67.3166 -7964.82 0)
(399.595 -6562.82 0)
(13874.6 -13991.4 0)
(-16978.5 -149459 0)
(9269.36 -7362.39 0)
(-6276.26 -641.649 0)
(358.013 -126.869 0)
(263.833 9.17016 0)
(345.422 89.7759 0)
(320.544 130.152 0)
(247.368 98.8392 0)
(157.595 -16.7293 0)
(54.2436 -166.45 0)
(11.3422 -360.255 0)
(-23.7118 -555.267 0)
(-57.0735 -676.353 0)
(-50.9569 -793.945 0)
(-32.9403 -859.767 0)
(-18.5282 -911.405 0)
(-2.10071 -935.204 0)
(4.62628 -955.931 0)
(7.60353 -946.052 0)
(0.428633 -955.876 0)
(-11.3126 -938.821 0)
(-22.1798 -936.161 0)
(-37.1897 -956.328 0)
(-47.54 -949.253 0)
(-52.9585 -963.196 0)
(-52.4122 -943.747 0)
(-48.4479 -922.685 0)
(-43.6958 -886.365 0)
(-42.6935 -808.845 0)
(-53.3416 -740.423 0)
(-60.1889 -575.631 0)
(-94.0916 -427.979 0)
(-125.663 -211.423 0)
(-169.956 -54.7065 0)
(-242.511 62.8426 0)
(-267.845 131.224 0)
(-233.162 143.121 0)
(-119.158 118.379 0)
(-116.06 74.4433 0)
(6238.7 -460.162 0)
(-8977.1 -6579.62 0)
(10237.7 1926.01 0)
(-7286.92 37.3712 0)
(405.897 89.9757 0)
(316.652 143.922 0)
(376.194 162.469 0)
(330.387 164.728 0)
(243.217 142.59 0)
(163.275 101.644 0)
(65.2069 135.015 0)
(6.34822 123.59 0)
(-27.2564 102.984 0)
(-60.901 104.943 0)
(-59.27 101.699 0)
(-40.2072 92.7065 0)
(-26.7586 83.988 0)
(-11.7354 71.4706 0)
(-5.55665 60.1734 0)
(-3.25286 49.2616 0)
(-8.235 40.0073 0)
(-13.8197 34.099 0)
(-18.8808 33.3887 0)
(-30.9013 36.4874 0)
(-41.1782 42.4372 0)
(-47.9698 48.2062 0)
(-49.4602 54.6076 0)
(-49.2524 58.7481 0)
(-44.1344 59.8434 0)
(-44.5257 64.1038 0)
(-53.9378 64.3071 0)
(-60.1346 74.3039 0)
(-95.2732 76.2142 0)
(-123.603 85.4733 0)
(-168.616 91.0187 0)
(-237.278 96.2992 0)
(-266.403 113.957 0)
(-245.814 121.034 0)
(-133.497 122.59 0)
(-157.909 107.498 0)
(7462.47 40.9336 0)
(-10194.7 2395.1 0)
(11161.3 2196.59 0)
(-8045.53 182.553 0)
(460.689 238.343 0)
(333.689 270.211 0)
(365.472 255.433 0)
(301.388 221.044 0)
(186.578 191.776 0)
(150.295 144.304 0)
(75.3917 129.425 0)
(-19.5242 126.672 0)
(-41.6801 105.791 0)
(-58.3116 99.9358 0)
(-62.7487 94.5409 0)
(-50.0072 81.4383 0)
(-38.9919 69.4276 0)
(-25.0493 53.9988 0)
(-16.7752 40.2172 0)
(-11.8293 27.1875 0)
(-14.1826 17.4329 0)
(-17.6905 11.4375 0)
(-19.8783 9.33535 0)
(-28.4703 11.8038 0)
(-36.2473 18.1546 0)
(-41.2307 25.6784 0)
(-42.2536 34.6659 0)
(-43.4024 41.8427 0)
(-38.5349 48.3643 0)
(-38.3921 54.41 0)
(-43.5124 60.7635 0)
(-48.7148 74.1745 0)
(-83.3283 81.5314 0)
(-111.396 100.445 0)
(-159.524 115.734 0)
(-220.407 142.037 0)
(-244.009 181.873 0)
(-224.842 204.207 0)
(-132.201 229.935 0)
(-194.747 216.752 0)
(8443.12 175.48 0)
(-11324.6 2777.1 0)
(12530.3 2531.72 0)
(-9173.95 249.692 0)
(490.368 291.536 0)
(333.121 307.606 0)
(328.814 299.118 0)
(269.045 228.355 0)
(169.267 209.776 0)
(103.191 180.694 0)
(48.2164 128.145 0)
(-16.4262 123.665 0)
(-53.0205 109.16 0)
(-71.7418 91.5572 0)
(-77.0949 79.2925 0)
(-64.4073 64.3931 0)
(-53.2003 51.5819 0)
(-39.8837 37.614 0)
(-31.393 25.1622 0)
(-25.2086 13.9458 0)
(-23.4123 5.33814 0)
(-21.6227 0.36319 0)
(-18.5278 -1.95955 0)
(-22.4028 -1.09307 0)
(-27.8081 2.9523 0)
(-32.0588 8.10843 0)
(-33.8836 14.7959 0)
(-36.0522 20.4055 0)
(-32.0242 27.3601 0)
(-32.5775 33.3895 0)
(-34.8919 41.8446 0)
(-40.1218 55.6033 0)
(-69.9577 66.734 0)
(-90.6445 91.3569 0)
(-128.537 110.386 0)
(-173.544 148.73 0)
(-206.495 190.849 0)
(-199.5 233.083 0)
(-121.409 266.672 0)
(-210.383 271.638 0)
(9929.71 267.98 0)
(-13039.9 3396.54 0)
(13841.6 2368.24 0)