/*--------------------------------*- C++ -*----------------------------------*\
| =========                 |                                                 |
| \\      /  F ield         | OpenFOAM: The Open Source CFD Toolbox           |
|  \\    /   O peration     | Version:  v1912                                 |
|   \\  /    A nd           | Website:  www.openfoam.com                      |
|    \\/     M anipulation  |                                                 |
\*---------------------------------------------------------------------------*/
FoamFile
{
    version     2.0;
    format      ascii;
    class       volVectorField;
    location    "4.58";
    object      grad(T);
}
// * * * * * * * * * * * * * * * * * * * * * * * * * * * * * * * * * * * * * //

dimensions      [0 -1 0 1 0 0 0];


internalField   nonuniform List<vector> 
1900
(
(0.699173 -5.22385e-06 0)
(-0.88519 -1.08073e-05 0)
(0.196472 -7.91622e-07 0)
(0.105648 7.79402e-06 0)
(0.00817599 7.2088e-05 0)
(-0.023604 0.000231987 0)
(-0.0370926 0.000411136 0)
(-0.0391372 0.000199721 0)
(-0.0502396 -0.00365499 0)
(-0.0590619 -0.00516293 0)
(0.699157 -7.9414e-06 0)
(-0.885186 -1.60371e-05 0)
(0.196491 -1.67478e-06 0)
(0.10572 1.57843e-05 0)
(0.00840018 9.48739e-05 0)
(-0.0232649 0.000258566 0)
(-0.0371248 0.00033257 0)
(-0.0432034 -0.000441296 0)
(-0.0556022 -0.00529314 0)
(-0.079354 -0.00675855 0)
(0.699149 -2.88398e-13 0)
(-0.885184 -9.75782e-14 0)
(0.196504 -3.03577e-13 0)
(0.105744 -3.14419e-13 0)
(0.00841877 -2.1684e-13 0)
(-0.0233663 -1.01915e-13 0)
(-0.0377924 -3.07913e-13 0)
(-0.0447629 -5.85469e-14 0)
(-0.0565568 -9.54098e-14 0)
(-0.0781496 -1.04083e-13 0)
(0.699157 7.94141e-06 0)
(-0.885186 1.60371e-05 0)
(0.196491 1.67478e-06 0)
(0.10572 -1.57843e-05 0)
(0.00840018 -9.48739e-05 0)
(-0.0232649 -0.000258566 0)
(-0.0371248 -0.00033257 0)
(-0.0432034 0.000441296 0)
(-0.0556022 0.00529314 0)
(-0.079354 0.00675855 0)
(0.699173 5.22385e-06 0)
(-0.88519 1.08073e-05 0)
(0.196472 7.91622e-07 0)
(0.105648 -7.79402e-06 0)
(0.00817599 -7.2088e-05 0)
(-0.023604 -0.000231987 0)
(-0.0370926 -0.000411136 0)
(-0.0391372 -0.000199721 0)
(-0.0502396 0.00365499 0)
(-0.0590619 0.00516293 0)
(-0.102765 -0.0217683 9.74116e-16)
(-0.195638 -0.0266098 -1.16196e-15)
(-0.254723 -0.0314249 -1.45009e-15)
(-0.20519 -0.0388348 0)
(-0.41743 -0.255661 -6.06396e-15)
(-0.122802 -0.0225034 9.70182e-16)
(-0.193761 -0.0274011 1.16196e-15)
(-0.249295 -0.0333592 1.45009e-15)
(-0.282306 -0.0372924 0)
(-0.420758 -0.227193 0)
(-0.130067 -9.82067e-14 0)
(-0.205033 -8.79725e-14 0)
(-0.259824 1.2649e-13 0)
(-0.283882 2.05341e-13 0)
(-0.524112 1.41979e-13 0)
(-0.122802 0.0225034 9.70182e-16)
(-0.193761 0.0274011 1.16196e-15)
(-0.249295 0.0333592 1.45009e-15)
(-0.282306 0.0372924 0)
(-0.420758 0.227193 0)
(-0.102765 0.0217683 -2.91448e-15)
(-0.195638 0.0266098 -1.16196e-15)
(-0.254723 0.0314249 -1.45009e-15)
(-0.20519 0.0388348 -3.8895e-15)
(-0.41743 0.255661 6.06396e-15)
(-0.809528 0.171675 2.33036e-15)
(-0.499495 0.0796774 -1.85708e-15)
(-0.442229 0.042369 0)
(-0.373808 0.0307959 1.27693e-15)
(-0.289132 0.00936917 -5.46961e-16)
(-0.700717 0.154139 -1.16777e-15)
(-0.52737 0.0551345 9.29739e-16)
(-0.453638 0.0284548 0)
(-0.384382 0.0216067 -7.98822e-16)
(-0.35486 0.0053783 1.36851e-16)
(-0.72951 1.807e-13 0)
(-0.533311 1.20467e-13 0)
(-0.453211 -6.02335e-14 0)
(-0.383662 1.09837e-13 3.19789e-16)
(-0.372393 -2.88487e-13 -2.73703e-16)
(-0.700717 -0.154139 -1.16777e-15)
(-0.52737 -0.0551345 9.29739e-16)
(-0.453638 -0.0284548 0)
(-0.384382 -0.0216067 -7.98822e-16)
(-0.35486 -0.0053783 1.36851e-16)
(-0.809528 -0.171675 1.16777e-15)
(-0.499495 -0.0796774 -2.39962e-18)
(-0.442229 -0.042369 0)
(-0.373808 -0.0307959 9.27472e-19)
(-0.289132 -0.00936917 5.46961e-16)
(-0.361845 0.288849 0)
(-0.10175 0.135217 0)
(0.261086 0.0395341 0)
(0.0869227 0.113416 0)
(-0.100571 0.0765057 0)
(-0.110645 0.0305243 0)
(-0.0954279 0.0129753 0)
(-0.0981908 0.00955275 0)
(-0.098763 0.00620992 0)
(-0.0846275 0.00529537 0)
(-0.0581695 0.00138902 0)
(-0.0349884 0.000488994 0)
(-0.0239074 0.00041739 0)
(-0.0190589 0.000431152 0)
(-0.0161272 0.000372584 0)
(-0.013582 0.000291815 0)
(-0.0112973 0.000223611 0)
(-0.00932585 0.00017503 0)
(-0.00773689 0.000144128 0)
(-0.00638485 0.000123965 0)
(-0.00512708 0.000106517 0)
(-0.00409873 9.13736e-05 0)
(-0.00316887 7.99958e-05 0)
(-0.00225739 7.13507e-05 0)
(-0.00144332 6.79034e-05 0)
(-0.000735051 6.92317e-05 0)
(-0.000183245 7.48919e-05 0)
(0.000170004 7.32682e-05 0)
(0.000604075 7.81133e-05 0)
(0.00107549 5.42486e-05 0)
(0.00259632 5.81372e-05 0)
(0.00447952 8.26891e-05 0)
(0.00755586 0.000113637 0)
(0.00984313 0.000426449 0)
(0.0121998 0.000478073 0)
(0.0150414 0.00076177 0)
(0.0122148 0.000379428 0)
(-0.121386 0.00208129 0)
(-0.48185 0.00636966 0)
(-0.35588 -0.0185275 0)
(-0.388963 -0.204536 0)
(-0.0723596 0.0538858 0)
(0.285538 0.0681865 0)
(0.111056 0.102931 0)
(-0.106908 0.059426 0)
(-0.119271 0.0175233 0)
(-0.0981943 0.00599225 0)
(-0.099111 0.0043956 0)
(-0.0992131 0.00163715 0)
(-0.0848572 0.00180398 0)
(-0.0585726 0.000415609 0)
(-0.0350527 0.000103882 0)
(-0.0239027 8.14293e-05 0)
(-0.0190538 0.000111413 0)
(-0.0161331 0.000103097 0)
(-0.01359 8.29254e-05 0)
(-0.011304 6.91114e-05 0)
(-0.00933102 5.71248e-05 0)
(-0.00774038 4.91452e-05 0)
(-0.00638798 4.31871e-05 0)
(-0.00513062 3.56474e-05 0)
(-0.00410242 2.67304e-05 0)
(-0.00317256 1.76075e-05 0)
(-0.00226067 8.5017e-06 0)
(-0.00144587 1.91102e-06 0)
(-0.000736842 -2.9609e-06 0)
(-0.000185249 -5.64344e-06 0)
(0.000167673 -1.04059e-05 0)
(0.000599424 -1.32491e-05 0)
(0.00107102 -2.47182e-05 0)
(0.00259661 -1.64264e-05 0)
(0.00448302 1.10127e-05 0)
(0.00760336 6.97191e-05 0)
(0.00990362 0.000374158 0)
(0.0122451 0.000621605 0)
(0.0150465 0.00102353 0)
(0.012434 0.00136898 0)
(-0.119948 0.00337656 0)
(-0.479504 0.0102884 0)
(-0.354727 0.032177 0)
(-0.360905 -6.15038e-13 0)
(-0.0224126 -5.91383e-15 0)
(0.275353 2.48381e-12 0)
(0.0843741 1.46466e-12 0)
(-0.125417 1.28133e-13 0)
(-0.126189 5.02676e-13 0)
(-0.0992469 -5.93354e-13 0)
(-0.0994577 -1.8668e-12 0)
(-0.0995169 -3.33146e-13 0)
(-0.0849829 -2.57054e-12 0)
(-0.058664 -1.54351e-12 0)
(-0.0350856 4.82963e-13 0)
(-0.0239052 3.05548e-13 0)
(-0.0190525 2.99634e-13 0)
(-0.0161355 1.97128e-13 0)
(-0.0135919 3.74543e-13 0)
(-0.0113048 -1.2419e-13 0)
(-0.00933166 2.48381e-13 0)
(-0.00774095 1.12954e-12 0)
(-0.00638878 2.17038e-12 0)
(-0.00513187 3.94058e-12 0)
(-0.00410398 5.95917e-12 0)
(-0.00317418 7.31935e-12 0)
(-0.00226196 7.00789e-12 0)
(-0.00144666 5.72459e-12 0)
(-0.000737249 4.94593e-12 0)
(-0.00018541 3.87553e-12 0)
(0.000167791 3.08505e-12 0)
(0.000599912 7.29372e-13 0)
(0.00107456 -9.02845e-13 0)
(0.00260672 -3.06928e-12 0)
(0.00450458 -4.55168e-12 0)
(0.0076615 -6.8009e-13 0)
(0.0100037 -1.03295e-12 0)
(0.0123887 4.2895e-12 0)
(0.0152589 1.16167e-11 0)
(0.0128993 1.49876e-11 0)
(-0.118791 2.54472e-11 0)
(-0.473472 1.43568e-11 0)
(-0.349512 2.75013e-11 0)
(-0.388963 0.204536 0)
(-0.0723596 -0.0538858 0)
(0.285538 -0.0681865 0)
(0.111056 -0.102931 0)
(-0.106908 -0.059426 0)
(-0.119271 -0.0175233 0)
(-0.0981943 -0.00599225 0)
(-0.099111 -0.0043956 0)
(-0.0992131 -0.00163715 0)
(-0.0848572 -0.00180398 0)
(-0.0585726 -0.000415609 0)
(-0.0350527 -0.000103882 0)
(-0.0239027 -8.14293e-05 0)
(-0.0190538 -0.000111413 0)
(-0.0161331 -0.000103097 0)
(-0.01359 -8.29254e-05 0)
(-0.011304 -6.91114e-05 0)
(-0.00933102 -5.71248e-05 0)
(-0.00774038 -4.91452e-05 0)
(-0.00638798 -4.31871e-05 0)
(-0.00513062 -3.56474e-05 0)
(-0.00410242 -2.67304e-05 0)
(-0.00317256 -1.76075e-05 0)
(-0.00226067 -8.5017e-06 0)
(-0.00144587 -1.91102e-06 0)
(-0.000736842 2.9609e-06 0)
(-0.000185249 5.64343e-06 0)
(0.000167673 1.04059e-05 0)
(0.000599424 1.32491e-05 0)
(0.00107102 2.47182e-05 0)
(0.00259661 1.64264e-05 0)
(0.00448302 -1.10128e-05 0)
(0.00760336 -6.97191e-05 0)
(0.00990362 -0.000374158 0)
(0.0122451 -0.000621605 0)
(0.0150465 -0.00102353 0)
(0.012434 -0.00136898 0)
(-0.119948 -0.00337656 0)
(-0.479504 -0.0102884 0)
(-0.354727 -0.032177 0)
(-0.361845 -0.288849 0)
(-0.10175 -0.135217 0)
(0.261086 -0.0395341 0)
(0.0869227 -0.113416 0)
(-0.100571 -0.0765057 0)
(-0.110645 -0.0305243 0)
(-0.0954279 -0.0129753 0)
(-0.0981908 -0.00955275 0)
(-0.098763 -0.00620992 0)
(-0.0846275 -0.00529537 0)
(-0.0581695 -0.00138902 0)
(-0.0349884 -0.000488994 0)
(-0.0239074 -0.00041739 0)
(-0.0190589 -0.000431152 0)
(-0.0161272 -0.000372584 0)
(-0.013582 -0.000291815 0)
(-0.0112973 -0.000223611 0)
(-0.00932585 -0.00017503 0)
(-0.00773689 -0.000144128 0)
(-0.00638485 -0.000123965 0)
(-0.00512708 -0.000106517 0)
(-0.00409873 -9.13736e-05 0)
(-0.00316887 -7.99958e-05 0)
(-0.00225739 -7.13507e-05 0)
(-0.00144332 -6.79034e-05 0)
(-0.000735051 -6.92317e-05 0)
(-0.000183245 -7.48919e-05 0)
(0.000170004 -7.32682e-05 0)
(0.000604075 -7.81133e-05 0)
(0.00107549 -5.42487e-05 0)
(0.00259632 -5.81372e-05 0)
(0.00447952 -8.26891e-05 0)
(0.00755586 -0.000113637 0)
(0.00984313 -0.000426449 0)
(0.0121998 -0.000478073 0)
(0.0150414 -0.00076177 0)
(0.0122148 -0.000379428 0)
(-0.121386 -0.00208129 0)
(-0.48185 -0.00636966 0)
(-0.35588 0.0185275 0)
(-0.0785533 -0.841855 0)
(0.118012 -0.269166 0)
(0.327487 -0.126236 0)
(0.115769 -0.153057 0)
(-0.0622383 -0.0976134 0)
(-0.0893942 -0.047715 0)
(-0.088238 -0.0261389 0)
(-0.0959313 -0.0187498 0)
(-0.097063 -0.0138591 0)
(-0.0820988 -0.00898685 0)
(-0.0560238 -0.00308764 0)
(-0.0345176 -0.00116656 0)
(-0.023861 -0.0008946 0)
(-0.0190198 -0.000835641 0)
(-0.0160525 -0.000694231 0)
(-0.0135057 -0.000525643 0)
(-0.0112386 -0.000387405 0)
(-0.00928713 -0.000295329 0)
(-0.00771238 -0.000237205 0)
(-0.006368 -0.000199808 0)
(-0.00511426 -0.00017043 0)
(-0.00409004 -0.000146687 0)
(-0.00316427 -0.000131502 0)
(-0.00225687 -0.000123882 0)
(-0.00144748 -0.000126508 0)
(-0.000743297 -0.000138496 0)
(-0.0001901 -0.000156001 0)
(0.000162958 -0.000160469 0)
(0.000605976 -0.000173353 0)
(0.00107838 -0.000141623 0)
(0.00257911 -0.000149329 0)
(0.00445224 -0.000190685 0)
(0.00744265 -0.000252284 0)
(0.00974497 -0.00058727 0)
(0.0120872 -0.000630346 0)
(0.0151142 -0.00105124 0)
(0.0118597 -0.000650082 0)
(-0.122042 -0.00214559 0)
(-0.463863 6.13608e-05 0)
(-0.337777 0.00911814 0)
(0.228578 -0.53397 0)
(0.470003 -0.0461097 0)
(0.337366 -0.0569263 0)
(0.0990361 -0.132611 0)
(-0.0196153 -0.0979532 0)
(-0.053165 -0.060243 0)
(-0.0713714 -0.0406808 0)
(-0.0875691 -0.0286478 0)
(-0.0902667 -0.0207432 0)
(-0.0756038 -0.0122388 0)
(-0.0517842 -0.00491886 0)
(-0.0331276 -0.00208498 0)
(-0.0236134 -0.00139069 0)
(-0.0188867 -0.00116812 0)
(-0.0158685 -0.000917451 0)
(-0.0133273 -0.000659605 0)
(-0.0111068 -0.000456216 0)
(-0.00920188 -0.000320712 0)
(-0.00765799 -0.000233324 0)
(-0.00632955 -0.000174998 0)
(-0.00508277 -0.000124903 0)
(-0.00406588 -8.46702e-05 0)
(-0.00314936 -5.9716e-05 0)
(-0.00225286 -4.76241e-05 0)
(-0.00145518 -5.23289e-05 0)
(-0.00075905 -7.11792e-05 0)
(-0.000200743 -9.84727e-05 0)
(0.00015706 -0.000102938 0)
(0.000621217 -0.000118106 0)
(0.00109709 -6.69278e-05 0)
(0.00255827 -6.9323e-05 0)
(0.00439494 -0.000128331 0)
(0.00723441 -0.000234909 0)
(0.00953145 -0.000676074 0)
(0.011813 -0.000797146 0)
(0.0149834 -0.00138994 0)
(0.0113507 -0.00130012 0)
(-0.120348 -0.00261184 0)
(-0.480641 0.00482671 0)
(-0.356859 -0.0142217 0)
(0.391566 -0.149415 0)
(0.577708 0.0630686 0)
(0.244131 -0.0437043 0)
(0.0762341 -0.101853 0)
(0.00749819 -0.0774619 0)
(-0.0342044 -0.0591101 0)
(-0.0577918 -0.0470952 0)
(-0.0767187 -0.0351552 0)
(-0.0812507 -0.0259623 0)
(-0.0668499 -0.0147517 0)
(-0.0462391 -0.00667684 0)
(-0.0311177 -0.00319369 0)
(-0.0229775 -0.00203958 0)
(-0.0185638 -0.00155296 0)
(-0.0155625 -0.00114408 0)
(-0.0130612 -0.000782506 0)
(-0.010912 -0.000508443 0)
(-0.00907234 -0.000323106 0)
(-0.00757196 -0.00019886 0)
(-0.00626352 -0.00011004 0)
(-0.00502722 -3.45517e-05 0)
(-0.00402723 2.12997e-05 0)
(-0.00312857 5.31836e-05 0)
(-0.00224975 6.64065e-05 0)
(-0.00147018 5.67532e-05 0)
(-0.000787763 2.89386e-05 0)
(-0.000220704 -1.03681e-05 0)
(0.000144039 -1.48143e-05 0)
(0.000640677 -3.61041e-05 0)
(0.00112539 3.35135e-05 0)
(0.00251994 3.62233e-05 0)
(0.00429268 -4.45796e-05 0)
(0.00691483 -0.000196675 0)
(0.00920318 -0.00077142 0)
(0.0113993 -0.000954183 0)
(0.0146295 -0.00167335 0)
(0.0106822 -0.00187391 0)
(-0.116138 -0.00263109 0)
(-0.475051 0.00443059 0)
(-0.356133 0.0044356 0)
(0.433334 -0.0157699 0)
(0.57187 0.0230534 0)
(0.178441 -0.0404708 0)
(0.0665061 -0.0718715 0)
(0.0215735 -0.0619537 0)
(-0.0239025 -0.0553402 0)
(-0.0482876 -0.0476929 0)
(-0.0672047 -0.0386307 0)
(-0.0706051 -0.0278618 0)
(-0.0570196 -0.0156945 0)
(-0.0406465 -0.00775488 0)
(-0.0286589 -0.00409288 0)
(-0.0220323 -0.00262413 0)
(-0.0180238 -0.00187528 0)
(-0.015126 -0.00130218 0)
(-0.0127148 -0.000845378 0)
(-0.0106641 -0.000512891 0)
(-0.00890355 -0.00028477 0)
(-0.00745267 -0.000124334 0)
(-0.00617121 -6.47944e-06 0)
(-0.00495621 8.64994e-05 0)
(-0.00398133 0.000156643 0)
(-0.0031059 0.000195936 0)
(-0.00224942 0.000209937 0)
(-0.00149128 0.000193488 0)
(-0.000823731 0.000155844 0)
(-0.000242905 0.000105758 0)
(0.00013226 0.000106363 0)
(0.000667788 8.31461e-05 0)
(0.00116679 0.00016664 0)
(0.00248302 0.000173813 0)
(0.00417051 6.59413e-05 0)
(0.006534 -0.000118314 0)
(0.00880149 -0.000772079 0)
(0.0109439 -0.00103555 0)
(0.0140971 -0.00180561 0)
(0.0104278 -0.00236317 0)
(-0.114273 -0.00204734 0)
(-0.473831 0.00225178 0)
(-0.356854 0.000801372 0)
(0.428978 0.0018102 0)
(0.553905 -0.0141751 0)
(0.152658 -0.0333654 0)
(0.0555323 -0.0500505 0)
(0.0234283 -0.0503677 0)
(-0.0204621 -0.0511089 0)
(-0.0416898 -0.0463524 0)
(-0.0576088 -0.0387131 0)
(-0.0591485 -0.0264732 0)
(-0.0474741 -0.0154075 0)
(-0.0350594 -0.00801458 0)
(-0.0261735 -0.00461091 0)
(-0.0208405 -0.00299667 0)
(-0.0172899 -0.00206452 0)
(-0.01457 -0.00137406 0)
(-0.0123007 -0.000856162 0)
(-0.0103718 -0.000487112 0)
(-0.00869792 -0.000227029 0)
(-0.00730379 -3.51851e-05 0)
(-0.00606035 0.000105383 0)
(-0.00487002 0.000222846 0)
(-0.00392177 0.000312521 0)
(-0.00307722 0.000362734 0)
(-0.00225211 0.000380963 0)
(-0.00152231 0.000362347 0)
(-0.000872303 0.000324935 0)
(-0.000268386 0.000277952 0)
(0.00012225 0.000302652 0)
(0.000698762 0.000302631 0)
(0.00121276 0.000426061 0)
(0.00242291 0.000466504 0)
(0.00401117 0.000361924 0)
(0.00610728 0.000191747 0)
(0.00831929 -0.000413257 0)
(0.0104033 -0.000660278 0)
(0.0133501 -0.00136203 0)
(0.0104493 -0.0020102 0)
(-0.111691 -0.0008122 0)
(-0.472306 0.00167886 0)
(-0.357531 -0.00040616 0)
(0.41793 0.0185572 0)
(0.537973 -0.0245092 0)
(0.143871 -0.0304189 0)
(0.050122 -0.0382055 0)
(0.0205536 -0.0443105 0)
(-0.0200333 -0.0472386 0)
(-0.0363426 -0.0436996 0)
(-0.0480483 -0.035958 0)
(-0.048147 -0.0240549 0)
(-0.0392323 -0.014268 0)
(-0.0302424 -0.00805901 0)
(-0.0238235 -0.00492204 0)
(-0.0195785 -0.00325023 0)
(-0.0164601 -0.0021928 0)
(-0.0139616 -0.00143218 0)
(-0.0118601 -0.000883333 0)
(-0.0100578 -0.000493097 0)
(-0.00846806 -0.000207497 0)
(-0.00713235 1.32007e-05 0)
(-0.00592256 0.000186781 0)
(-0.0047566 0.000333098 0)
(-0.00384653 0.000441913 0)
(-0.00303994 0.000502902 0)
(-0.00224979 0.000526952 0)
(-0.00154527 0.000510106 0)
(-0.000905056 0.00047959 0)
(-0.000264378 0.000440055 0)
(0.000156042 0.000493949 0)
(0.000786709 0.000512512 0)
(0.0013247 0.000651269 0)
(0.00242121 0.000692181 0)
(0.00390575 0.000553381 0)
(0.005787 0.000323107 0)
(0.00798045 -0.000273883 0)
(0.0100296 -0.000547246 0)
(0.0127963 -0.00114822 0)
(0.0109576 -0.00185656 0)
(-0.110718 0.000205736 0)
(-0.47344 0.00364402 0)
(-0.358863 0.000499747 0)
(0.387477 0.00242489 0)
(0.50671 -0.0233648 0)
(0.13946 -0.0259383 0)
(0.0421459 -0.0336369 0)
(0.0147236 -0.0420684 0)
(-0.0198734 -0.0436182 0)
(-0.0308194 -0.0395851 0)
(-0.0386785 -0.0312421 0)
(-0.0382472 -0.0207352 0)
(-0.0320599 -0.0124219 0)
(-0.0260533 -0.00740141 0)
(-0.0215396 -0.00467502 0)
(-0.0182105 -0.00309585 0)
(-0.015538 -0.00206674 0)
(-0.0133082 -0.00135565 0)
(-0.0113957 -0.000855809 0)
(-0.00972052 -0.000494661 0)
(-0.00821003 -0.000210496 0)
(-0.00692385 2.89585e-05 0)
(-0.00575209 0.000226763 0)
(-0.00462417 0.00039375 0)
(-0.00375814 0.000527475 0)
(-0.00299527 0.000614372 0)
(-0.00224517 0.00066754 0)
(-0.00156795 0.000686899 0)
(-0.000939806 0.000715963 0)
(-0.000254549 0.000735357 0)
(0.000192073 0.000875035 0)
(0.000850361 0.000981209 0)
(0.00138589 0.00120685 0)
(0.00232858 0.00130923 0)
(0.00365552 0.00119843 0)
(0.0053101 0.000960627 0)
(0.00748059 0.000306714 0)
(0.00956078 -9.67966e-05 0)
(0.0120884 -0.000637539 0)
(0.011754 -0.00136566 0)
(-0.10639 0.000597316 0)
(-0.472023 0.0047113 0)
(-0.360561 0.00283109 0)
(0.393078 -0.0125712 0)
(0.510642 -0.0148667 0)
(0.133972 -0.0239519 0)
(0.0345785 -0.03149 0)
(0.0109353 -0.0399499 0)
(-0.0176403 -0.0386706 0)
(-0.0244165 -0.033972 0)
(-0.0298839 -0.0260802 0)
(-0.0300112 -0.0174747 0)
(-0.0263833 -0.0108429 0)
(-0.0227772 -0.00684194 0)
(-0.0196745 -0.0044748 0)
(-0.0170651 -0.00301184 0)
(-0.0147832 -0.0020481 0)
(-0.0127947 -0.00140101 0)
(-0.0110304 -0.000943273 0)
(-0.00943598 -0.000596354 0)
(-0.00796348 -0.000304742 0)
(-0.00671099 -5.06434e-05 0)
(-0.00557104 0.000154104 0)
(-0.00446683 0.000348461 0)
(-0.00363393 0.000512337 0)
(-0.00290497 0.00062497 0)
(-0.0021799 0.000702872 0)
(-0.00149861 0.000751401 0)
(-0.000858361 0.000828734 0)
(-0.00011109 0.000885282 0)
(0.000392954 0.00107742 0)
(0.00110646 0.00123775 0)
(0.00164079 0.00149755 0)
(0.0024131 0.00160994 0)
(0.00356982 0.00150151 0)
(0.00492771 0.00125487 0)
(0.00696148 0.000580122 0)
(0.00911972 3.99453e-05 0)
(0.0115736 -0.000434685 0)
(0.0121476 -0.00113659 0)
(-0.104862 0.000703867 0)
(-0.471288 0.00640206 0)
(-0.360675 0.00625097 0)
(0.385265 0.00301328 0)
(0.495743 -0.00957914 0)
(0.123441 -0.0221824 0)
(0.0267296 -0.0290999 0)
(0.00780411 -0.0374893 0)
(-0.0141129 -0.0337507 0)
(-0.0186868 -0.0287649 0)
(-0.0227811 -0.0218642 0)
(-0.023564 -0.0149334 0)
(-0.0218138 -0.00959335 0)
(-0.0199168 -0.00623372 0)
(-0.0178488 -0.00403234 0)
(-0.015872 -0.00262165 0)
(-0.0139858 -0.0016907 0)
(-0.0122435 -0.00108238 0)
(-0.0106203 -0.000661002 0)
(-0.00910521 -0.000342447 0)
(-0.00768416 -8.10878e-05 0)
(-0.00648169 0.000145918 0)
(-0.0053675 0.000345671 0)
(-0.00427896 0.000557564 0)
(-0.00349169 0.000751689 0)
(-0.00281167 0.000901111 0)
(-0.00212334 0.00102375 0)
(-0.00144666 0.00112439 0)
(-0.000810794 0.00125782 0)
(-1.49102e-05 0.00133765 0)
(0.000531723 0.00155013 0)
(0.00125522 0.00168489 0)
(0.00174455 0.00187184 0)
(0.00233239 0.00188536 0)
(0.00331336 0.0016617 0)
(0.00442222 0.00123936 0)
(0.00630984 0.000497183 0)
(0.00858287 -0.000144919 0)
(0.0109547 -0.000506742 0)
(0.0128511 -0.00108593 0)
(-0.099126 0.000820304 0)
(-0.466677 0.00836234 0)
(-0.360706 0.0092226 0)
(0.380944 -0.00194041 0)
(0.486362 -0.0102563 0)
(0.115161 -0.0207192 0)
(0.0198282 -0.0266885 0)
(0.00645364 -0.0334834 0)
(-0.0092332 -0.0286392 0)
(-0.0129623 -0.0239586 0)
(-0.0165553 -0.0181489 0)
(-0.0181866 -0.0126344 0)
(-0.018 -0.00832943 0)
(-0.0174184 -0.00549107 0)
(-0.0161938 -0.00344628 0)
(-0.0148086 -0.00210726 0)
(-0.0132999 -0.00119754 0)
(-0.0118025 -0.000646032 0)
(-0.0103174 -0.000269152 0)
(-0.00887715 1.41579e-05 0)
(-0.00749287 0.000258298 0)
(-0.00629975 0.000489687 0)
(-0.00517436 0.000703799 0)
(-0.00407557 0.000923166 0)
(-0.00330288 0.00113242 0)
(-0.0026428 0.00129791 0)
(-0.00196474 0.00144107 0)
(-0.00127305 0.00156077 0)
(-0.000652861 0.0017095 0)
(0.000170588 0.00177693 0)
(0.00072757 0.0019873 0)
(0.00141647 0.00206313 0)
(0.00183398 0.00216906 0)
(0.00221059 0.00206719 0)
(0.0029473 0.0017166 0)
(0.00380555 0.00103798 0)
(0.00562754 8.61348e-05 0)
(0.0081523 -0.000917222 0)
(0.0106668 -0.00125433 0)
(0.0134264 -0.00162652 0)
(-0.0957572 0.000236864 0)
(-0.463191 0.0107802 0)
(-0.359846 0.0117244 0)
(0.377252 -0.00199229 0)
(0.477647 -0.0102236 0)
(0.107606 -0.0193328 0)
(0.0144295 -0.0238637 0)
(0.00592437 -0.0283631 0)
(-0.00493447 -0.0237745 0)
(-0.00857799 -0.0196807 0)
(-0.0118686 -0.0150211 0)
(-0.0141017 -0.0107196 0)
(-0.0149302 -0.00721107 0)
(-0.0152112 -0.00474436 0)
(-0.014588 -0.00270225 0)
(-0.0137051 -0.00134212 0)
(-0.0125777 -0.000373037 0)
(-0.0113489 0.000270472 0)
(-0.00998414 0.000778162 0)
(-0.00859694 0.00120003 0)
(-0.00722593 0.00158922 0)
(-0.00605239 0.00195049 0)
(-0.00494978 0.00224563 0)
(-0.00386592 0.00250394 0)
(-0.00313057 0.00271157 0)
(-0.00251424 0.00283193 0)
(-0.00187003 0.00289803 0)
(-0.00118799 0.00289826 0)
(-0.000602494 0.00290127 0)
(0.000252787 0.00280548 0)
(0.000807518 0.0028624 0)
(0.00143038 0.00274922 0)
(0.00174846 0.00263698 0)
(0.00189638 0.00231386 0)
(0.00232157 0.00180057 0)
(0.00285104 0.000866319 0)
(0.00442574 -0.000255971 0)
(0.00729115 -0.00172097 0)
(0.0102712 -0.00221869 0)
(0.0142881 -0.00265151 0)
(-0.0871704 -0.00176975 0)
(-0.455607 0.0101531 0)
(-0.359797 0.0132877 0)
(0.373012 -0.00141623 0)
(0.469652 -0.0105792 0)
(0.102017 -0.0180895 0)
(0.0111262 -0.0211324 0)
(0.00653958 -0.0227917 0)
(-0.000866512 -0.0196083 0)
(-0.00452718 -0.0156669 0)
(-0.00792006 -0.0122577 0)
(-0.0106606 -0.00875421 0)
(-0.012242 -0.00558579 0)
(-0.0130736 -0.00321906 0)
(-0.0129153 -0.00115181 0)
(-0.0125641 0.000100184 0)
(-0.011746 0.0010701 0)
(-0.0106931 0.00178769 0)
(-0.00942162 0.00241176 0)
(-0.00809559 0.00295737 0)
(-0.0067697 0.0034504 0)
(-0.00566721 0.00388725 0)
(-0.00464103 0.00422428 0)
(-0.00362658 0.00450448 0)
(-0.00298681 0.00471166 0)
(-0.00246312 0.00480276 0)
(-0.00190082 0.00481517 0)
(-0.00126993 0.00472451 0)
(-0.000742272 0.00462769 0)
(0.000133135 0.00441404 0)
(0.000673354 0.00434768 0)
(0.00119924 0.00410198 0)
(0.00141445 0.00377744 0)
(0.0014046 0.00317733 0)
(0.0015524 0.00241313 0)
(0.00182378 0.00110765 0)
(0.00313433 -0.00036529 0)
(0.00626095 -0.00237223 0)
(0.00977008 -0.00322323 0)
(0.013859 -0.0035172 0)
(-0.0834182 -0.00400952 0)
(-0.448681 0.00764704 0)
(-0.356826 0.0129775 0)
(0.368422 0.00228123 0)
(0.46158 -0.00690745 0)
(0.0974369 -0.0170858 0)
(0.00989836 -0.0193959 0)
(0.00739297 -0.0185614 0)
(0.00193127 -0.016689 0)
(-0.00149461 -0.0124084 0)
(-0.00520735 -0.009881 0)
(-0.00767239 -0.00662616 0)
(-0.00959636 -0.00370876 0)
(-0.0109385 -0.00152013 0)
(-0.0113894 0.000515609 0)
(-0.011564 0.00178705 0)
(-0.0109515 0.00293607 0)
(-0.0100561 0.00384624 0)
(-0.008857 0.00470297 0)
(-0.00759608 0.00549087 0)
(-0.00632986 0.0062133 0)
(-0.00530664 0.00683624 0)
(-0.00435499 0.00727459 0)
(-0.00339627 0.00755527 0)
(-0.00284314 0.0076715 0)
(-0.0024145 0.00760075 0)
(-0.00194543 0.00741954 0)
(-0.00136865 0.0071078 0)
(-0.000901675 0.00679081 0)
(-1.70414e-05 0.00635123 0)
(0.000506807 0.00609171 0)
(0.000880866 0.00564557 0)
(0.000857433 0.00503403 0)
(0.000581691 0.00409147 0)
(0.000327146 0.0031546 0)
(0.000173649 0.00151866 0)
(0.00107241 -0.000310187 0)
(0.00453713 -0.00260526 0)
(0.00916785 -0.00404826 0)
(0.0135304 -0.00451532 0)
(-0.0764121 -0.00688399 0)
(-0.439238 0.00544651 0)
(-0.35466 0.0139506 0)
(0.364157 0.00534814 0)
(0.450989 -0.00482675 0)
(0.0899826 -0.0141654 0)
(0.00970429 -0.0156665 0)
(0.00914806 -0.0138238 0)
(0.00506272 -0.0126027 0)
(0.00203329 -0.00836132 0)
(-0.00234809 -0.00594127 0)
(-0.00471279 -0.00334839 0)
(-0.00732168 -0.000871524 0)
(-0.0090028 0.00118725 0)
(-0.00972835 0.00310032 0)
(-0.0102317 0.00414505 0)
(-0.00976166 0.00518818 0)
(-0.00899047 0.0059959 0)
(-0.0078368 0.00684097 0)
(-0.00664018 0.00765526 0)
(-0.00547325 0.00843141 0)
(-0.00464451 0.00910582 0)
(-0.00394815 0.00957922 0)
(-0.0032441 0.00989615 0)
(-0.00294299 0.0100469 0)
(-0.00270592 0.00999037 0)
(-0.00237584 0.00981341 0)
(-0.00187579 0.00949933 0)
(-0.00147133 0.00919466 0)
(-0.000540549 0.00872901 0)
(-6.643e-06 0.00846214 0)
(0.000180029 0.00798438 0)
(-8.31352e-05 0.00736472 0)
(-0.00040649 0.00626363 0)
(-0.000926857 0.00527481 0)
(-0.00151501 0.00343473 0)
(-0.000839628 0.001236 0)
(0.00265881 -0.00120371 0)
(0.00792948 -0.0029265 0)
(0.0111264 -0.00314767 0)
(-0.0738186 -0.00656805 0)
(-0.428604 0.00283945 0)
(-0.348631 0.0152019 0)
(0.358617 0.00937314 0)
(0.442777 -0.000182634 0)
(0.0869913 -0.0069595 0)
(0.0102275 -0.00713949 0)
(0.0103453 -0.0072243 0)
(0.00719514 -0.0060979 0)
(0.00492461 -0.00276286 0)
(-0.000376713 -0.000670444 0)
(-0.00278701 0.000887399 0)
(-0.00522566 0.00290795 0)
(-0.00711106 0.00434815 0)
(-0.0085392 0.00583753 0)
(-0.00955203 0.00650322 0)
(-0.00916796 0.00745597 0)
(-0.00846337 0.00825154 0)
(-0.00725798 0.0091581 0)
(-0.00606347 0.0100474 0)
(-0.00493205 0.0108919 0)
(-0.00420057 0.0116143 0)
(-0.0035934 0.0120842 0)
(-0.00294559 0.0123626 0)
(-0.00275234 0.0124521 0)
(-0.00263951 0.012297 0)
(-0.00241862 0.0120192 0)
(-0.0019649 0.0116266 0)
(-0.00164398 0.0113129 0)
(-0.000722925 0.010838 0)
(-0.000210751 0.0105865 0)
(-0.000176649 0.0102187 0)
(-0.000800736 0.00991744 0)
(-0.00143222 0.00913879 0)
(-0.00239889 0.00847979 0)
(-0.0037183 0.00716693 0)
(-0.00339736 0.00540551 0)
(0.000526 0.00346105 0)
(0.00729459 0.00173799 0)
(0.0100213 0.00178201 0)
(-0.0706427 -0.00023783 0)
(-0.41826 0.00868506 0)
(-0.342747 0.0199868 0)
(0.354949 0.0228221 0)
(0.435251 0.0115289 0)
(0.0832787 0.00458246 0)
(0.00944912 0.00482768 0)
(0.0101518 0.001303 0)
(0.00936193 0.00265414 0)
(0.00726338 0.00440044 0)
(0.00116943 0.00473943 0)
(-0.00126452 0.00713218 0)
(-0.00398677 0.00800768 0)
(-0.00617975 0.00883256 0)
(-0.00765165 0.00955507 0)
(-0.00867207 0.00993983 0)
(-0.00807691 0.010878 0)
(-0.00735024 0.011772 0)
(-0.00610629 0.0128541 0)
(-0.00496938 0.0138554 0)
(-0.00396328 0.0146415 0)
(-0.00349565 0.0152278 0)
(-0.00322704 0.0156298 0)
(-0.00288957 0.0160213 0)
(-0.00300622 0.0163061 0)
(-0.00312306 0.0162171 0)
(-0.00302187 0.0158132 0)
(-0.00255636 0.0151035 0)
(-0.00223127 0.0145216 0)
(-0.00124059 0.0137311 0)
(-0.000603407 0.0132662 0)
(-0.000464683 0.0126691 0)
(-0.00112378 0.0124525 0)
(-0.00179186 0.0119432 0)
(-0.00282701 0.0115591 0)
(-0.0044775 0.0109454 0)
(-0.00441075 0.00982591 0)
(-0.000875346 0.00906925 0)
(0.00631149 0.00819215 0)
(0.0092224 0.00849114 0)
(-0.0671666 0.00945114 0)
(-0.409115 0.0163956 0)
(-0.33774 0.0327518 0)
(0.347735 0.0513791 0)
(0.4252 0.0256972 0)
(0.0805338 0.0186185 0)
(0.00706726 0.01653 0)
(0.00825084 0.0112921 0)
(0.01018 0.0130717 0)
(0.00693407 0.0123147 0)
(0.00225569 0.0124787 0)
(0.000362402 0.0161965 0)
(-0.00358711 0.0139214 0)
(-0.00561993 0.0135926 0)
(-0.0074722 0.0119308 0)
(-0.00827717 0.0109894 0)
(-0.00740244 0.0103694 0)
(-0.00655911 0.00987931 0)
(-0.00525033 0.0101762 0)
(-0.00434107 0.0108821 0)
(-0.00360952 0.0119108 0)
(-0.0032482 0.0130529 0)
(-0.00282875 0.0138545 0)
(-0.00229395 0.0139585 0)
(-0.00256372 0.0135313 0)
(-0.00311443 0.0130483 0)
(-0.00349172 0.0129401 0)
(-0.00320958 0.0129636 0)
(-0.00296642 0.0135279 0)
(-0.00193268 0.0142697 0)
(-0.00123412 0.0146349 0)
(-0.000960748 0.0152875 0)
(-0.00150033 0.0157522 0)
(-0.00229313 0.0166163 0)
(-0.00336035 0.0163977 0)
(-0.00538846 0.0166228 0)
(-0.0052053 0.0146372 0)
(-0.00104835 0.0134772 0)
(0.0067375 0.0124565 0)
(0.0112345 0.0127187 0)
(-0.0630257 0.0160309 0)
(-0.395806 0.024298 0)
(-0.326986 0.0602858 0)
(0.330201 -0.108036 0)
(0.403681 -0.0567098 0)
(0.0744448 -0.0401284 0)
(0.00238909 -0.0479185 0)
(0.00681924 -0.0552534 0)
(0.0103474 -0.0591562 0)
(0.00669196 -0.0690219 0)
(0.00491008 -0.0740008 0)
(0.000125678 -0.0806606 0)
(-0.00649599 -0.0903576 0)
(-0.00809789 -0.096826 0)
(-0.0101602 -0.104693 0)
(-0.0101767 -0.108761 0)
(-0.00914666 -0.113741 0)
(-0.00753644 -0.117112 0)
(-0.00513995 -0.120186 0)
(-0.00329785 -0.122432 0)
(-0.00187143 -0.12349 0)
(-0.00162257 -0.123555 0)
(-0.00235439 -0.120094 0)
(-0.00320105 -0.120254 0)
(-0.00388333 -0.123689 0)
(-0.00369273 -0.12323 0)
(-0.00310347 -0.122079 0)
(-0.00198996 -0.118882 0)
(-0.000972631 -0.116433 0)
(-0.000173888 -0.111327 0)
(0.000377355 -0.109615 0)
(0.000612066 -0.103438 0)
(0.000156697 -0.100358 0)
(-0.00116986 -0.0917267 0)
(-0.00282074 -0.0878171 0)
(-0.006174 -0.0781836 0)
(-0.00744196 -0.0753477 0)
(-0.00297675 -0.0703701 0)
(0.00558059 -0.0660216 0)
(0.0126669 -0.0624952 0)
(-0.0560084 -0.0560543 0)
(-0.366469 -0.0678734 0)
(-0.303061 -0.104023 0)
(0.397195 -0.357414 0)
(0.490639 -0.453252 0)
(0.0890054 -0.372584 0)
(-0.00750767 -0.408259 0)
(-0.00257821 -0.429528 0)
(-0.00308787 -0.445984 0)
(-0.00737064 -0.463426 0)
(-0.0089598 -0.474051 0)
(-0.0153996 -0.488148 0)
(-0.0191647 -0.495707 0)
(-0.0194342 -0.501815 0)
(-0.0189734 -0.506206 0)
(-0.0169961 -0.508004 0)
(-0.0154497 -0.508808 0)
(-0.0127695 -0.508267 0)
(-0.0103765 -0.508351 0)
(-0.00752509 -0.508058 0)
(-0.00469183 -0.506464 0)
(2.45736e-05 -0.506905 0)
(0.000352465 -0.505108 0)
(-0.00575818 -0.504086 0)
(-0.00543189 -0.504409 0)
(-0.00156272 -0.500667 0)
(0.000698223 -0.502451 0)
(0.0022307 -0.498765 0)
(0.00431356 -0.49929 0)
(0.0046373 -0.496459 0)
(0.00636776 -0.495444 0)
(0.00795982 -0.490926 0)
(0.00978553 -0.4882 0)
(0.00979154 -0.480844 0)
(0.00969029 -0.475329 0)
(0.00662759 -0.466135 0)
(0.00232405 -0.455845 0)
(0.00793859 -0.443977 0)
(0.014326 -0.433066 0)
(0.0208393 -0.416767 0)
(-0.0682083 -0.384551 0)
(-0.442031 -0.45939 0)
(-0.361821 -0.382082 0)
(0.237848 -0.214461 0)
(0.389063 -0.379821 0)
(0.117801 -0.319869 0)
(-0.0524844 -0.349938 0)
(-0.029534 -0.366543 0)
(-0.0223177 -0.377911 0)
(-0.0203543 -0.386499 0)
(-0.0189132 -0.391385 0)
(-0.0207424 -0.396828 0)
(-0.0196662 -0.396929 0)
(-0.0182151 -0.397348 0)
(-0.0161239 -0.395664 0)
(-0.0126846 -0.394391 0)
(-0.00940043 -0.39119 0)
(-0.00709602 -0.388114 0)
(-0.00493815 -0.385302 0)
(-0.0014789 -0.38247 0)
(-0.000760607 -0.379028 0)
(-0.000316498 -0.37839 0)
(0.000361572 -0.379382 0)
(-0.00252746 -0.378381 0)
(-0.000588215 -0.376029 0)
(-0.00180606 -0.373355 0)
(-0.00127014 -0.376282 0)
(0.00105699 -0.375397 0)
(0.00124925 -0.3775 0)
(0.00353149 -0.378577 0)
(0.00570926 -0.378647 0)
(0.00759259 -0.379261 0)
(0.00987208 -0.379028 0)
(0.0112332 -0.379171 0)
(0.0113527 -0.377532 0)
(0.0126017 -0.377446 0)
(0.0139107 -0.371333 0)
(0.0189739 -0.365422 0)