/*--------------------------------*- C++ -*----------------------------------*\
| =========                 |                                                 |
| \\      /  F ield         | OpenFOAM: The Open Source CFD Toolbox           |
|  \\    /   O peration     | Version:  v1912                                 |
|   \\  /    A nd           | Website:  www.openfoam.com                      |
|    \\/     M anipulation  |                                                 |
\*---------------------------------------------------------------------------*/
FoamFile
{
    version     2.0;
    format      ascii;
    class       volVectorField;
    location    "4.58";
    object      grad(rho);
}
// * * * * * * * * * * * * * * * * * * * * * * * * * * * * * * * * * * * * * //

dimensions      [1 -4 0 0 0 0 0];


internalField   nonuniform List<vector> 
1900
(
(156322 -0.418163 0)
(-130056 -0.305824 0)
(-16889.2 0.103346 0)
(-3284.5 -0.51959 0)
(-2056.26 1.85209 0)
(-1643.63 7.13945 0)
(-1699.42 13.217 0)
(-1855.8 18.5865 0)
(-1957.14 -77.9693 0)
(-1214.12 -185.742 0)
(156321 -0.616948 0)
(-130055 -0.456738 0)
(-16889.4 0.15666 0)
(-3282.75 -0.37352 0)
(-2048.6 2.37859 0)
(-1632.26 7.20863 0)
(-1687.97 9.82817 0)
(-1946.99 1.06726 0)
(-2161.47 -115.997 0)
(-2036.42 -229.9 0)
(156321 1.7053e-08 0)
(-130055 -2.84217e-10 0)
(-16889.1 -2.77112e-09 0)
(-3282.28 3.4639e-09 0)
(-2048.68 4.583e-09 0)
(-1636.18 3.23297e-09 0)
(-1705.56 1.72307e-09 0)
(-1981.63 -8.17124e-10 0)
(-2188.11 -2.30926e-09 0)
(-2039.39 -9.23706e-10 0)
(156321 0.616948 0)
(-130055 0.456738 0)
(-16889.4 -0.15666 0)
(-3282.75 0.37352 0)
(-2048.6 -2.37859 0)
(-1632.26 -7.20863 0)
(-1687.97 -9.82817 0)
(-1946.99 -1.06726 0)
(-2161.47 115.997 0)
(-2036.42 229.9 0)
(156322 0.418163 0)
(-130056 0.305824 0)
(-16889.2 -0.103346 0)
(-3284.5 0.51959 0)
(-2056.26 -1.85209 0)
(-1643.63 -7.13945 0)
(-1699.42 -13.217 0)
(-1855.8 -18.5865 0)
(-1957.14 77.9693 0)
(-1214.12 185.742 0)
(-830.169 -816.468 1.33853e-11)
(-1059.02 -933.13 -1.58877e-11)
(-741.428 -1246.66 -2.00472e-11)
(540.243 -1542 0)
(-7240.09 -7880.05 -8.6516e-11)
(-1512.36 -861.749 1.32378e-11)
(-1034.51 -1007.18 1.58877e-11)
(-681.9 -1428.07 2.00472e-11)
(-1560.17 -1682.08 0)
(-6618.6 -6722 0)
(-1852.54 -9.65411e-10 0)
(-1505.48 5.06418e-10 0)
(-1179.9 -2.73855e-09 0)
(-1502.28 -3.46524e-09 0)
(-9313.57 -4.81097e-09 0)
(-1512.36 861.749 1.32378e-11)
(-1034.51 1007.18 1.58877e-11)
(-681.9 1428.07 2.00472e-11)
(-1560.17 1682.08 0)
(-6618.6 6722 0)
(-830.169 816.468 -3.98609e-11)
(-1059.02 933.13 -1.58877e-11)
(-741.428 1246.66 -2.00472e-11)
(540.243 1542 -5.45436e-11)
(-7240.09 7880.05 8.6516e-11)
(-15658.5 7417.98 3.04827e-11)
(-4790.47 2425.22 -2.47968e-11)
(-6427.45 1215.39 0)
(-8477.47 797.577 1.68672e-11)
(-12820 600.454 -6.8474e-12)
(-12282.7 8201.92 -1.53531e-11)
(-6174.13 1651.49 1.24349e-11)
(-6830.11 682.762 0)
(-8635.57 406.602 -1.056e-11)
(-12688.8 634.497 1.72115e-12)
(-13379.4 -2.33259e-09 0)
(-6698.64 -1.36643e-09 0)
(-6847.86 1.31582e-10 0)
(-8500.34 8.70763e-10 4.22892e-12)
(-12159.2 2.2594e-09 -3.44229e-12)
(-12282.7 -8201.92 -1.53531e-11)
(-6174.13 -1651.49 1.24349e-11)
(-6830.11 -682.762 0)
(-8635.57 -406.602 -1.056e-11)
(-12688.8 -634.497 1.72115e-12)
(-15658.5 -7417.98 1.53531e-11)
(-4790.47 -2425.22 -7.30397e-14)
(-6427.45 -1215.39 0)
(-8477.47 -797.577 2.40204e-14)
(-12820 -600.454 6.8474e-12)
(-16027.9 412.478 0)
(-7126.64 3800.66 0)
(1563.06 3335.87 0)
(-180.254 2406.07 0)
(-1694.73 1200.85 0)
(-1685.66 471.217 0)
(-1597.88 240.792 0)
(-1680.12 174.534 0)
(-1615.76 104.257 0)
(-1332.49 82.3275 0)
(-894.245 19.4053 0)
(-528.617 5.48779 0)
(-357.018 4.47793 0)
(-282.63 4.6938 0)
(-238.114 3.77843 0)
(-199.899 2.50936 0)
(-165.807 1.49911 0)
(-136.432 0.837055 0)
(-112.672 0.42024 0)
(-92.5218 0.14606 0)
(-73.9159 -0.0732009 0)
(-58.6028 -0.243042 0)
(-44.8015 -0.358145 0)
(-31.5485 -0.433203 0)
(-19.9775 -0.445622 0)
(-10.176 -0.399908 0)
(-2.73514 -0.304238 0)
(2.04368 -0.315255 0)
(8.07191 -0.241032 0)
(14.7556 -0.542754 0)
(36.5405 -0.463576 0)
(63.7625 -0.0682817 0)
(108.391 0.32598 0)
(142.65 3.34541 0)
(176.429 3.77771 0)
(196.447 9.6486 0)
(210.67 4.79003 0)
(3025.02 14.0584 0)
(55474.3 -75.4604 0)
(-58863.1 -3857.2 0)
(-15564.2 2211.1 0)
(-7133.94 5874.61 0)
(1203.98 4342.37 0)
(-329.871 2042.57 0)
(-1880.63 883.924 0)
(-1811.62 265.742 0)
(-1635.52 113.141 0)
(-1697.66 82.7979 0)
(-1625.73 29.5356 0)
(-1337.2 28.7168 0)
(-900.858 5.51915 0)
(-529.623 0.584149 0)
(-356.931 0.337931 0)
(-282.561 0.799448 0)
(-238.233 0.627928 0)
(-200.043 0.226243 0)
(-165.902 -0.0435982 0)
(-136.491 -0.202473 0)
(-112.71 -0.300762 0)
(-92.5545 -0.373834 0)
(-73.9489 -0.454741 0)
(-58.6351 -0.539578 0)
(-44.834 -0.629971 0)
(-31.579 -0.726016 0)
(-20.0029 -0.802927 0)
(-10.1938 -0.859764 0)
(-2.75831 -0.886677 0)
(2.01739 -0.940354 0)
(8.02064 -0.94605 0)
(14.7074 -1.02785 0)
(36.5564 -0.875566 0)
(63.8089 -0.451853 0)
(108.678 0.332266 0)
(143.021 2.70403 0)
(177.315 5.53208 0)
(197.096 13.2321 0)
(210.868 19.4368 0)
(3013.31 29.579 0)
(55393.3 -35.4899 0)
(-58812.4 1589.7 0)
(-14392.7 3.37185e-08 0)
(-6506.63 5.18858e-08 0)
(448.283 3.39607e-08 0)
(-1186.35 1.4227e-08 0)
(-2211.62 -2.76143e-09 0)
(-1909.89 9.81841e-09 0)
(-1651.1 -1.76021e-08 0)
(-1704.44 -3.81594e-08 0)
(-1631.49 -1.14979e-08 0)
(-1339.48 -4.49418e-08 0)
(-902.429 -2.47883e-08 0)
(-530.124 4.05332e-09 0)
(-356.956 6.33029e-09 0)
(-282.546 2.90677e-09 0)
(-238.281 3.85954e-09 0)
(-200.095 4.02103e-09 0)
(-165.932 2.32541e-09 0)
(-136.507 -3.35893e-09 0)
(-112.722 -8.80104e-09 0)
(-92.5666 -4.19866e-09 0)
(-73.9641 4.03717e-09 0)
(-58.6538 1.46307e-08 0)
(-44.8558 1.33873e-08 0)
(-31.5988 -7.05698e-09 0)
(-20.0164 -1.73921e-08 0)
(-10.2004 -1.44692e-08 0)
(-2.75858 -1.02221e-08 0)
(2.02641 7.4284e-10 0)
(8.04645 -5.539e-09 0)
(14.7761 2.89869e-08 0)
(36.708 5.40497e-08 0)
(64.1139 8.3731e-08 0)
(109.309 1.70207e-07 0)
(144.163 1.64652e-07 0)
(179.492 1.80688e-07 0)
(200.492 1.88035e-07 0)
(215.426 1.56804e-07 0)
(3009.04 1.33211e-07 0)
(55928.2 -7.20232e-08 0)
(-59456.4 -2.88222e-07 0)
(-15564.2 -2211.1 0)
(-7133.94 -5874.61 0)
(1203.98 -4342.37 0)
(-329.871 -2042.57 0)
(-1880.63 -883.924 0)
(-1811.62 -265.742 0)
(-1635.52 -113.141 0)
(-1697.66 -82.7979 0)
(-1625.73 -29.5356 0)
(-1337.2 -28.7168 0)
(-900.858 -5.51915 0)
(-529.623 -0.584149 0)
(-356.931 -0.337931 0)
(-282.561 -0.799447 0)
(-238.233 -0.627928 0)
(-200.043 -0.226243 0)
(-165.902 0.0435982 0)
(-136.491 0.202473 0)
(-112.71 0.300761 0)
(-92.5545 0.373834 0)
(-73.9489 0.454741 0)
(-58.6351 0.539578 0)
(-44.834 0.629971 0)
(-31.579 0.726016 0)
(-20.0029 0.802927 0)
(-10.1938 0.859764 0)
(-2.75831 0.886677 0)
(2.01739 0.940354 0)
(8.02064 0.94605 0)
(14.7074 1.02785 0)
(36.5564 0.875565 0)
(63.8089 0.451852 0)
(108.678 -0.332266 0)
(143.021 -2.70403 0)
(177.315 -5.53208 0)
(197.096 -13.2321 0)
(210.868 -19.4368 0)
(3013.31 -29.579 0)
(55393.3 35.4899 0)
(-58812.4 -1589.7 0)
(-16027.9 -412.478 0)
(-7126.64 -3800.66 0)
(1563.06 -3335.87 0)
(-180.254 -2406.07 0)
(-1694.73 -1200.85 0)
(-1685.66 -471.217 0)
(-1597.88 -240.792 0)
(-1680.12 -174.534 0)
(-1615.76 -104.257 0)
(-1332.49 -82.3275 0)
(-894.245 -19.4053 0)
(-528.617 -5.48779 0)
(-357.018 -4.47793 0)
(-282.63 -4.6938 0)
(-238.114 -3.77843 0)
(-199.899 -2.50936 0)
(-165.807 -1.49911 0)
(-136.432 -0.837055 0)
(-112.672 -0.42024 0)
(-92.5218 -0.14606 0)
(-73.9159 0.0732009 0)
(-58.6028 0.243042 0)
(-44.8015 0.358145 0)
(-31.5485 0.433203 0)
(-19.9775 0.445622 0)
(-10.176 0.399907 0)
(-2.73514 0.304238 0)
(2.04368 0.315255 0)
(8.07191 0.241032 0)
(14.7556 0.542754 0)
(36.5405 0.463576 0)
(63.7625 0.0682815 0)
(108.391 -0.32598 0)
(142.65 -3.34541 0)
(176.429 -3.77771 0)
(196.447 -9.6486 0)
(210.67 -4.79003 0)
(3025.02 -14.0584 0)
(55474.3 75.4604 0)
(-58863.1 3857.2 0)
(23648.8 7546.61 0)
(-8976.15 -3529.24 0)
(1663.58 -3869.85 0)
(836.376 -2912.87 0)
(-881.896 -1579.96 0)
(-1355.05 -789.231 0)
(-1492.95 -467.171 0)
(-1632.3 -323.965 0)
(-1579.42 -224.6 0)
(-1289.42 -139.273 0)
(-860.304 -45.3815 0)
(-521.422 -15.9257 0)
(-356.332 -11.8197 0)
(-282.043 -10.9205 0)
(-237 -8.80312 0)
(-198.779 -6.31324 0)
(-164.964 -4.29894 0)
(-135.882 -2.9685 0)
(-112.321 -2.12794 0)
(-92.2828 -1.58152 0)
(-73.743 -1.1612 0)
(-58.4936 -0.84437 0)
(-44.7523 -0.645487 0)
(-31.5594 -0.549031 0)
(-20.0532 -0.5934 0)
(-10.3032 -0.760841 0)
(-2.8382 -0.997486 0)
(1.94733 -1.06081 0)
(8.10407 -1.22276 0)
(14.7913 -0.778654 0)
(36.2773 -0.891074 0)
(63.3673 -1.49419 0)
(106.869 -2.38035 0)
(141.284 -7.14651 0)
(174.385 -8.04179 0)
(197.211 -15.0287 0)
(208.33 -8.01356 0)
(3050.12 -25.8401 0)
(57728 -64.1506 0)
(-61394.1 540.561 0)
(24715.7 12471.5 0)
(-17136.2 -2757.81 0)
(2103.11 -2280.46 0)
(1481.21 -2273.75 0)
(-84.1822 -1589.36 0)
(-790.623 -1022.89 0)
(-1205.8 -705.026 0)
(-1472.01 -479.219 0)
(-1457.27 -331.985 0)
(-1182.89 -189.967 0)
(-793.583 -74.4574 0)
(-500.134 -30.847 0)
(-352.563 -20.2641 0)
(-280.038 -16.8831 0)
(-234.272 -13.1358 0)
(-196.159 -9.32636 0)
(-163.036 -6.34622 0)
(-134.636 -4.37085 0)
(-111.524 -3.09913 0)
(-91.7183 -2.25072 0)
(-73.2982 -1.54607 0)
(-58.1644 -0.97512 0)
(-44.5434 -0.616268 0)
(-31.4924 -0.431473 0)
(-20.141 -0.477499 0)
(-10.4972 -0.71708 0)
(-2.96894 -1.07583 0)
(1.87827 -1.13007 0)
(8.32656 -1.31946 0)
(15.056 -0.579578 0)
(35.9921 -0.596913 0)
(62.5393 -1.42235 0)
(103.759 -2.97884 0)
(137.928 -9.48291 0)
(169.93 -11.6044 0)
(196.064 -20.677 0)
(201.507 -16.7068 0)
(2957.47 -38.1407 0)
(54811.7 -229.002 0)
(-58096.7 -4193.02 0)
(27486.8 8812.42 0)
(-23191.6 -1238.49 0)
(2130.03 -1167.78 0)
(1502.34 -1585.18 0)
(323.476 -1252.88 0)
(-502.865 -1000.21 0)
(-969.041 -799.591 0)
(-1272.83 -579.101 0)
(-1300.68 -412.289 0)
(-1041.25 -228.772 0)
(-706.97 -102.059 0)
(-469.199 -48.3645 0)
(-342.876 -30.7403 0)
(-275.174 -23.3724 0)
(-229.718 -17.2587 0)
(-192.237 -11.9063 0)
(-160.188 -7.88769 0)
(-132.753 -5.19193 0)
(-110.278 -3.39265 0)
(-90.7862 -2.12051 0)
(-72.5138 -1.04575 0)
(-57.5976 -0.219185 0)
(-44.2284 0.268508 0)
(-31.4257 0.487089 0)
(-20.3284 0.371249 0)
(-10.8797 -0.00773245 0)
(-3.23617 -0.55072 0)
(1.71257 -0.604773 0)
(8.63455 -0.878565 0)
(15.4876 0.157091 0)
(35.4651 0.220887 0)
(61.072 -0.932889 0)
(99.102 -3.14877 0)
(132.972 -11.4576 0)
(163.598 -14.3956 0)
(192.294 -24.9307 0)
(191.501 -24.5722 0)
(2845.54 -40.8393 0)
(53724.2 -170.173 0)
(-56927.7 -2251.45 0)
(30104.1 5963.88 0)
(-26753.5 -305.285 0)
(1769.03 -620.894 0)
(1399.2 -1056.96 0)
(479.52 -994.699 0)
(-353.816 -930.278 0)
(-800.006 -797.995 0)
(-1098.79 -628.154 0)
(-1119.68 -439.197 0)
(-883.938 -242.784 0)
(-619.736 -118.575 0)
(-431.409 -62.1441 0)
(-328.48 -39.7347 0)
(-267.047 -28.4257 0)
(-223.223 -19.8702 0)
(-187.129 -13.1158 0)
(-156.566 -8.24551 0)
(-130.304 -4.93146 0)
(-108.564 -2.61404 0)
(-89.4568 -0.912272 0)
(-71.4661 0.473624 0)
(-56.898 1.49083 0)
(-43.8628 2.08147 0)
(-31.3934 2.31361 0)
(-20.6179 2.10455 0)
(-11.3856 1.59084 0)
(-3.54427 0.914533 0)
(1.56235 0.935776 0)
(9.06072 0.639383 0)
(16.1155 1.86038 0)
(34.9417 1.98533 0)
(59.2922 0.47191 0)
(93.6174 -2.21486 0)
(127.09 -11.5916 0)
(156.947 -15.5851 0)
(186.258 -26.4697 0)
(186.177 -31.2498 0)
(2817.17 -35.9516 0)
(52681.4 -120.851 0)
(-55827.9 -2220.2 0)
(32722.6 4985.04 0)
(-29537 -29.0117 0)
(1405.68 -369.439 0)
(1142.13 -729.592 0)
(445.555 -806.751 0)
(-313.314 -848.161 0)
(-677.902 -763.691 0)
(-927.075 -620.625 0)
(-929.325 -414.698 0)
(-732.29 -237.431 0)
(-532.899 -122.208 0)
(-393.226 -69.7554 0)
(-310.383 -45.1656 0)
(-256.032 -31.1188 0)
(-214.965 -20.8277 0)
(-181.035 -13.1819 0)
(-152.302 -7.784 0)
(-127.326 -4.01016 0)
(-106.405 -1.23903 0)
(-87.8108 0.827329 0)
(-70.1981 2.52858 0)
(-56.0483 3.81642 0)
(-43.4355 4.55515 0)
(-31.4034 4.84614 0)
(-21.0249 4.61283 0)
(-12.0265 4.1123 0)
(-3.86741 3.49884 0)
(1.44742 3.87259 0)
(9.52553 3.90339 0)
(16.7846 5.68685 0)
(34.1271 6.26884 0)
(57.0246 4.8183 0)
(87.4772 2.35962 0)
(120.088 -6.4051 0)
(149.261 -10.1424 0)
(177.199 -19.8376 0)
(182.364 -26.3896 0)
(2759.2 -21.5554 0)
(51619.4 -106.177 0)
(-54683.5 -2516.98 0)
(34905.1 6052.08 0)
(-31913.2 19.9033 0)
(1093.93 -351.007 0)
(977.793 -575.188 0)
(365.263 -712.628 0)
(-312.322 -769.627 0)
(-580.745 -707.334 0)
(-762.488 -569.416 0)
(-750.423 -374.172 0)
(-602.085 -218.798 0)
(-458.157 -122.242 0)
(-357.168 -74.0135 0)
(-291.249 -48.6155 0)
(-243.594 -32.7293 0)
(-205.938 -21.4195 0)
(-174.56 -13.336 0)
(-147.728 -7.64196 0)
(-123.997 -3.50503 0)
(-103.902 -0.312835 0)
(-85.8262 2.20432 0)
(-68.5857 4.29149 0)
(-54.9451 5.86922 0)
(-42.8705 6.77412 0)
(-31.3379 7.15629 0)
(-21.325 6.95173 0)
(-12.4591 6.54871 0)
(-3.77526 6.04022 0)
(1.95218 6.83734 0)
(10.809 7.14401 0)
(18.3949 9.17306 0)
(34.1048 9.75989 0)
(55.5251 7.8048 0)
(82.8021 4.47808 0)
(115.042 -4.22101 0)
(144.003 -8.35134 0)
(170.602 -16.4072 0)
(184.521 -23.966 0)
(2740.28 -11.5143 0)
(50276.8 -109.118 0)
(-53294.2 -2769.59 0)
(38828.7 2562.48 0)
(-35707.2 -51.1785 0)
(832.231 -318.819 0)
(793.657 -516.909 0)
(258.186 -673.433 0)
(-308.213 -698.2 0)
(-484.971 -630.411 0)
(-606.028 -489.989 0)
(-591.456 -320.521 0)
(-489.522 -189.767 0)
(-393.38 -111.933 0)
(-322.277 -70.1172 0)
(-270.6 -46.1594 0)
(-229.825 -30.7034 0)
(-196.277 -20.126 0)
(-167.758 -12.7632 0)
(-142.828 -7.49447 0)
(-120.263 -3.39129 0)
(-100.904 0.0650471 0)
(-83.3739 2.90401 0)
(-66.6665 5.32404 0)
(-53.6559 7.25544 0)
(-42.1953 8.53099 0)
(-31.2323 9.32872 0)
(-21.6104 9.63865 0)
(-12.9049 10.0809 0)
(-3.58928 10.4052 0)
(2.51108 12.4091 0)
(11.7763 13.9543 0)
(19.3054 17.1909 0)
(32.8086 18.6294 0)
(51.9348 17.0451 0)
(75.8886 13.5566 0)
(107.725 4.08115 0)
(137.518 -1.93484 0)
(162.152 -9.32171 0)
(187.079 -17.3536 0)
(2677.14 -4.81366 0)
(48961.6 -152.463 0)
(-51916.7 -3094.4 0)
(37358.8 -1485.79 0)
(-34689.8 -157.699 0)
(645.133 -315.184 0)
(636.074 -483.11 0)
(190.564 -631.435 0)
(-270.865 -610.39 0)
(-380.105 -534.277 0)
(-463.867 -405.878 0)
(-461.118 -268.765 0)
(-401.082 -165.1 0)
(-342.859 -103.207 0)
(-293.786 -66.9531 0)
(-253.268 -44.7618 0)
(-218.507 -30.2853 0)
(-188.65 -20.6592 0)
(-162.388 -13.9226 0)
(-138.697 -8.86809 0)
(-116.712 -4.67534 0)
(-97.8358 -1.02556 0)
(-80.7584 1.94587 0)
(-64.3925 4.75117 0)
(-51.8547 7.11844 0)
(-40.8726 8.77135 0)
(-30.2705 9.93349 0)
(-20.6002 10.6718 0)
(-11.7205 11.8147 0)
(-1.53174 12.6759 0)
(5.37231 15.4068 0)
(15.4169 17.6937 0)
(22.9 21.3731 0)
(33.9643 22.9035 0)
(50.6368 21.2776 0)
(70.3096 17.6072 0)
(100.114 7.8029 0)
(131.087 -0.182126 0)
(155.743 -6.79644 0)
(188.866 -14.6644 0)
(2610.08 -3.16135 0)
(47299.5 -186.897 0)
(-50206.5 -3366.06 0)
(37072.9 -1105.74 0)
(-34579.2 -176.294 0)
(518.653 -301.695 0)
(488.906 -442.855 0)
(135.535 -584.4 0)
(-214.587 -526.792 0)
(-287.896 -447.914 0)
(-350.171 -337.928 0)
(-359.434 -228.588 0)
(-329.984 -145.631 0)
(-298.801 -93.8995 0)
(-265.957 -60.3682 0)
(-235.266 -39.058 0)
(-206.598 -25.1401 0)
(-180.509 -16.1286 0)
(-156.396 -9.95643 0)
(-133.917 -5.33927 0)
(-112.706 -1.53467 0)
(-94.5232 1.75773 0)
(-77.8072 4.65681 0)
(-61.682 7.70059 0)
(-49.7819 10.4968 0)
(-39.4826 12.6773 0)
(-29.401 14.4829 0)
(-19.7976 15.971 0)
(-10.9736 17.9195 0)
(-0.127828 19.1191 0)
(7.3464 22.1276 0)
(17.5257 24.0334 0)
(24.3257 26.6574 0)
(32.7165 26.7607 0)
(46.831 23.4618 0)
(62.904 17.2706 0)
(90.5824 6.52889 0)
(123.449 -2.88733 0)
(148.196 -7.75845 0)
(190.582 -13.8713 0)
(2511.17 -2.48664 0)
(45721 -275.538 0)
(-48583.4 -3777.7 0)
(36165.1 -1859.88 0)
(-33915 -166.043 0)
(388.265 -284.289 0)
(363.65 -402.833 0)
(109.679 -515.723 0)
(-139.343 -442.698 0)
(-198.109 -369.879 0)
(-252.516 -278.798 0)
(-275.813 -192.711 0)
(-271.291 -126.332 0)
(-260.697 -82.8263 0)
(-240.939 -51.8065 0)
(-219.321 -31.6016 0)
(-196.411 -18.0066 0)
(-174.019 -9.83956 0)
(-151.991 -4.32419 0)
(-130.581 -0.227829 0)
(-109.873 3.31686 0)
(-91.8695 6.6717 0)
(-75.0317 9.76883 0)
(-58.7648 12.929 0)
(-47.059 15.9408 0)
(-37.0314 18.3454 0)
(-27.0965 20.4333 0)
(-17.2886 22.1723 0)
(-8.68688 24.2941 0)
(2.5233 25.2762 0)
(10.1079 28.2253 0)
(19.782 29.2351 0)
(25.5281 30.6578 0)
(30.8849 29.1231 0)
(41.4918 24.0453 0)
(53.9924 14.2969 0)
(80.6895 0.623907 0)
(117.32 -14.1072 0)
(145.159 -18.8447 0)
(193.946 -22.248 0)
(2357.93 -10.6951 0)
(43661.6 -385.753 0)
(-46433.7 -4294.6 0)
(35093.9 -2354.5 0)
(-33060.9 -173.985 0)
(290.474 -267.036 0)
(265.888 -357.046 0)
(97.1192 -432.949 0)
(-74.046 -364.642 0)
(-129.957 -301.941 0)
(-179.445 -229.585 0)
(-212.512 -163.043 0)
(-224.095 -109.267 0)
(-226.986 -71.5228 0)
(-216.595 -40.6803 0)
(-202.695 -20.2557 0)
(-185.628 -5.82045 0)
(-167.324 3.66866 0)
(-147.134 11.0549 0)
(-126.554 17.1246 0)
(-106.057 22.6317 0)
(-88.3059 27.7514 0)
(-71.7775 31.962 0)
(-55.7345 35.6561 0)
(-44.5625 38.6254 0)
(-35.1534 40.373 0)
(-25.7132 41.3517 0)
(-16.0772 41.3714 0)
(-7.9826 41.3854 0)
(3.66047 40.0232 0)
(11.1613 40.7571 0)
(19.8698 39.0131 0)
(24.2179 37.296 0)
(26.3445 32.6288 0)
(32.5439 25.2357 0)
(40.3343 11.8539 0)
(63.2112 -4.3858 0)
(104.689 -25.7838 0)
(140.351 -32.8783 0)
(198.435 -37.0429 0)
(2160.89 -37.2837 0)
(41592.9 -565.414 0)
(-44241 -4782.61 0)
(33701 -3015.31 0)
(-31903.4 -184.712 0)
(211.861 -254.138 0)
(203.77 -312.728 0)
(102.36 -345.035 0)
(-13.0985 -298.606 0)
(-67.9626 -239.078 0)
(-118.67 -186.341 0)
(-159.871 -132.769 0)
(-183.098 -84.6381 0)
(-194.604 -48.6365 0)
(-191.536 -17.6809 0)
(-185.729 1.0715 0)
(-173.357 15.3363 0)
(-157.757 25.8237 0)
(-139.024 34.8384 0)
(-119.425 42.6549 0)
(-99.6331 49.6551 0)
(-82.8784 55.8437 0)
(-67.4144 60.6207 0)
(-52.3437 64.5871 0)
(-42.5137 67.5076 0)
(-34.4043 68.7939 0)
(-26.1344 68.9685 0)
(-17.2561 67.6577 0)
(-9.98606 66.2233 0)
(1.9178 63.1642 0)
(9.13455 62.0866 0)
(16.4467 58.3749 0)
(19.3759 53.6169 0)
(19.2632 45.0629 0)
(21.4724 34.0671 0)
(25.4481 15.286 0)
(44.4203 -6.09923 0)
(89.8631 -35.241 0)
(134.309 -47.4903 0)
(189.7 -49.4526 0)
(1848.77 -61.5906 0)
(39088.8 -738.643 0)
(-41469.2 -5420.7 0)
(31990.6 -3590.79 0)
(-30400.1 -203.941 0)
(167.113 -247.431 0)
(178.297 -284.239 0)
(110.728 -278.599 0)
(28.0577 -252.632 0)
(-21.775 -188.311 0)
(-77.0016 -149.635 0)
(-114.507 -100.51 0)
(-143.022 -56.3491 0)
(-162.464 -23.2416 0)
(-168.695 7.14502 0)
(-170.879 26.0618 0)
(-161.776 42.8344 0)
(-148.531 56.0095 0)
(-130.914 68.3112 0)
(-112.276 79.5652 0)
(-93.3482 89.8625 0)
(-77.739 98.7199 0)
(-63.352 104.935 0)
(-49.098 108.884 0)
(-40.5086 110.463 0)
(-33.7456 109.374 0)
(-26.8081 106.718 0)
(-18.7226 102.191 0)
(-12.3128 97.5867 0)
(-0.325792 91.2298 0)
(6.54626 87.2262 0)
(11.7081 80.6274 0)
(11.39 71.8836 0)
(7.50553 58.4549 0)
(3.84974 44.86 0)
(1.62853 21.1074 0)
(14.5216 -5.279 0)
(64.8026 -38.5222 0)
(126.657 -59.3987 0)
(184.848 -63.2575 0)
(1496.76 -93.2691 0)
(36428.6 -830.519 0)
(-38488.7 -5938.46 0)
(30075.8 -4195.11 0)
(-28681.6 -195.521 0)
(134.483 -216.789 0)
(173.736 -231.429 0)
(132.817 -206.827 0)
(73.9059 -190.383 0)
(31.2884 -126.494 0)
(-34.061 -90.219 0)
(-69.9773 -51.4723 0)
(-108.64 -13.7973 0)
(-133.418 17.3347 0)
(-144.025 45.7577 0)
(-151.337 61.2219 0)
(-144.498 76.4259 0)
(-133.207 88.1075 0)
(-116.325 100.267 0)
(-98.6578 111.96 0)
(-81.1749 123.085 0)
(-68.3541 132.724 0)
(-57.6196 139.441 0)
(-47.0162 143.882 0)
(-42.0415 145.904 0)
(-38.0136 144.933 0)
(-33.0562 142.242 0)
(-26.0551 137.595 0)
(-20.549 133.115 0)
(-8.06601 126.307 0)
(-1.08232 122.086 0)
(1.66203 115.011 0)
(-1.99032 106.139 0)
(-6.77771 90.1263 0)
(-14.517 75.6732 0)
(-22.8676 48.8159 0)
(-13.0409 17.2098 0)
(37.7114 -18.1017 0)
(110.473 -43.168 0)
(157.062 -42.9376 0)
(1109.41 -82.0924 0)
(33456.2 -758.947 0)
(-35141.5 -6406.56 0)
(27833.5 -4865.87 0)
(-26566.5 -117.795 0)
(132.511 -127.879 0)
(187.896 -114.384 0)
(150.281 -109.679 0)
(105.47 -92.7252 0)
(74.7466 -42.2321 0)
(-4.70805 -10.8236 0)
(-40.8644 12.475 0)
(-76.7174 43.3152 0)
(-105.074 64.8818 0)
(-126.403 86.3622 0)
(-141.326 95.8506 0)
(-135.868 109.289 0)
(-125.557 120.452 0)
(-107.929 133.261 0)
(-90.2877 145.966 0)
(-73.3391 158.272 0)
(-61.9783 168.971 0)
(-52.6003 175.92 0)
(-42.8698 179.575 0)
(-39.4962 180.107 0)
(-37.274 177.312 0)
(-33.8792 173.138 0)
(-27.5183 167.536 0)
(-23.1899 163.183 0)
(-10.9532 156.606 0)
(-4.33921 152.807 0)
(-3.65922 147.606 0)
(-12.5897 143.207 0)
(-21.8525 131.67 0)
(-35.9584 122.253 0)
(-54.7089 103.224 0)
(-49.9627 77.8815 0)
(6.62039 49.5597 0)
(102.724 24.3465 0)
(147.339 29.1302 0)
(806.784 4.13969 0)
(30334.2 -511.601 0)
(-31794.4 -6798.09 0)
(25402 -4262.11 0)
(-24115.9 77.4745 0)
(137.769 55.8754 0)
(191.274 70.6257 0)
(153.689 21.4475 0)
(138.9 38.6502 0)
(110.212 63.602 0)
(18.6569 66.5185 0)
(-17.8072 100.826 0)
(-58.1389 114.574 0)
(-91.9369 124.951 0)
(-114.183 133.415 0)
(-129.243 137.103 0)
(-120.792 148.201 0)
(-110.107 158.418 0)
(-91.7385 171.321 0)
(-74.5572 183.39 0)
(-59.006 193.214 0)
(-51.3478 201.079 0)
(-47.4016 206.826 0)
(-42.9808 211.709 0)
(-44.2221 214.538 0)
(-44.73 213.079 0)
(-42.4766 208.51 0)
(-35.6472 200.204 0)
(-31.0821 193.631 0)
(-18.0656 184.153 0)
(-9.75474 178.365 0)
(-7.58832 171.105 0)
(-17.3467 168.588 0)
(-26.9703 161.904 0)
(-41.9291 157.676 0)
(-65.6252 149.977 0)
(-64.7533 135.606 0)
(-13.8769 125.964 0)
(90.7866 114.806 0)
(137.59 128.349 0)
(588.344 138.299 0)
(26901.3 -155.582 0)
(-28371.7 -6012.49 0)
(24110.8 -4098.47 0)
(-22405.5 303.073 0)
(125.911 266.679 0)
(154.72 238.022 0)
(119.468 157.456 0)
(146.091 177.841 0)
(101.601 169.847 0)
(31.162 165.477 0)
(5.44396 219.306 0)
(-53.4694 199.185 0)
(-86.9184 201.454 0)
(-114.693 189.034 0)
(-127.077 181.965 0)
(-115.328 180.036 0)
(-103.278 178.647 0)
(-83.8648 186.031 0)
(-69.1903 196.868 0)
(-56.2937 209.055 0)
(-48.862 220.586 0)
(-42.3569 226.094 0)
(-35.4381 228.694 0)
(-38.1754 229.519 0)
(-43.0828 225.89 0)
(-46.2862 223.251 0)
(-41.8564 219.169 0)
(-38.6571 221.003 0)
(-25.6636 222.118 0)
(-16.9128 223.617 0)
(-13.0811 224.292 0)
(-21.4561 227.251 0)
(-32.3679 230.753 0)
(-47.4516 224.002 0)
(-75.9762 222.191 0)
(-73.1027 196.366 0)
(-13.4233 183.295 0)
(105.021 171.322 0)
(169.978 184.947 0)
(533.178 225.736 0)
(24407 137.244 0)
(-26291.9 -6126.39 0)
(22425.4 32963.8 0)
(-19909.5 2875.55 0)
(75.0843 1202.55 0)
(86.0233 1053.62 0)
(95.6957 1136.77 0)
(150.84 1455.7 0)
(98.2978 1799.77 0)
(66.3177 2198.39 0)
(14.675 2547.53 0)
(-75.3417 2774.81 0)
(-101.718 2955.13 0)
(-132.963 3061.18 0)
(-137.914 3139.43 0)
(-123.989 3184.13 0)
(-104.329 3215.93 0)
(-74.18 3229.68 0)
(-52.3709 3247.78 0)
(-36.15 3220.22 0)
(-34.9284 3225.4 0)
(-39.5889 3159.88 0)
(-39.6803 3160.64 0)
(-46.9235 3232.57 0)
(-50.7696 3229.08 0)
(-48.9532 3280.87 0)
(-37.8139 3247.28 0)
(-28.2406 3250.26 0)
(-15.5462 3194.99 0)
(-7.65977 3139.96 0)
(-4.0863 3050.48 0)
(-11.1206 2914.77 0)
(-30.102 2753.48 0)
(-50.1796 2479.24 0)
(-92.2559 2172.49 0)
(-102.235 1732.46 0)
(-38.0099 1339.83 0)
(92.3781 1001.14 0)
(190.025 812.144 0)
(542.376 755.814 0)
(20780.2 2362.17 0)
(-23388.8 28509.2 0)
(57101.6 658363 0)
(-53011.8 58830.3 0)
(-1629.77 26542.2 0)
(91.3361 30290.7 0)
(506.931 32926.9 0)
(784.983 36395.6 0)
(817.283 39259 0)
(751.725 42234.3 0)
(560.904 44720.1 0)
(339.309 46966.6 0)
(189.034 49004.3 0)
(62.905 50692.6 0)
(-8.59366 52244.5 0)
(-41.6102 53599.8 0)
(-59.3862 54838.1 0)
(-53.1708 55886.9 0)
(-78.3054 56815.7 0)
(-77.859 57556.2 0)
(-107.012 57845.5 0)
(-104.762 57938.2 0)
(34.6147 57901 0)
(27.7798 57639 0)
(3.45621 57366 0)
(-28.7542 56260 0)
(-71.356 55245.7 0)
(-89.0454 53738.9 0)
(-131.949 52287.1 0)
(-156.164 50425.4 0)
(-230.086 48632.3 0)
(-307.659 46284.2 0)
(-452.052 43986.8 0)
(-607.316 41152.6 0)
(-795.602 38258.9 0)
(-875.48 35015.2 0)
(-718.156 31711.6 0)
(-403.475 28049.9 0)
(-66.4236 25443.2 0)
(2026.84 21546.5 0)
(51151.2 51600.6 0)
(-54576.9 598275 0)
(707747 -731679 0)
(-628755 -62534.5 0)
(-27426.7 -30797.7 0)
(6238.53 -34112.2 0)
(5978.54 -36655.5 0)
(6252.66 -40431.8 0)
(5724.77 -43642.5 0)
(5328.86 -46929 0)
(4574.83 -49677.8 0)
(4053.1 -51953.7 0)
(3488.84 -53943.4 0)
(2989.4 -55496.1 0)
(2663.51 -56865.6 0)
(2375.32 -58056.5 0)
(2099.61 -59142 0)
(1831.46 -60063.4 0)
(1556.26 -60910.3 0)
(956.214 -61574 0)
(333.125 -61809.9 0)
(13.8709 -61803.7 0)
(-327.921 -61721.3 0)
(-562.488 -61459.7 0)
(-1379.64 -61157.2 0)
(-2092.1 -60003.2 0)
(-2467.22 -58936.4 0)
(-2879.29 -57385.4 0)
(-3208.63 -55875.6 0)
(-3529.52 -53974.2 0)
(-3994.66 -52140 0)
(-4487.77 -49708.2 0)
(-4975.09 -47316.3 0)
(-5569.75 -44249.1 0)
(-6006.51 -41079.3 0)
(-6411.49 -37381.3 0)
(-6749.97 -33726.2 0)
(-5948.05 -29913.4 0)
(-6076.93 -27599.2 0)
(25748.6 -24380 0)
(576536 -54945.7 0)
(-643454 -669399 0)
(707747 731679 0)
(-628755 62534.5 0)
(-27426.7 30797.7 0)
(6238.53 34112.2 0)
(5978.54 36655.5 0)
(6252.66 40431.8 0)
(5724.77 43642.5 0)
(5328.86 46929 0)
(4574.83 49677.8 0)
(4053.1 51953.7 0)
(3488.84 53943.4 0)
(2989.4 55496.1 0)
(2663.51 56865.6 0)
(2375.32 58056.5 0)
(2099.61 59142 0)
(1831.46 60063.4 0)
(1556.26 60910.3 0)
(956.214 61574 0)
(333.125 61809.9 0)
(13.8709 61803.7 0)
(-327.921 61721.3 0)
(-562.488 61459.7 0)
(-1379.64 61157.2 0)
(-2092.1 60003.2 0)
(-2467.22 58936.4 0)
(-2879.29 57385.4 0)
(-3208.63 55875.6 0)
(-3529.52 53974.2 0)
(-3994.66 52140 0)
(-4487.77 49708.2 0)
(-4975.09 47316.3 0)
(-5569.75 44249.1 0)
(-6006.51 41079.3 0)
(-6411.49 37381.3 0)
(-6749.97 33726.2 0)
(-5948.05 29913.4 0)
(-6076.93 27599.2 0)
(25748.6 24380 0)
(576536 54945.7 0)
(-643454 669399 0)
(57101.6 -658363 0)
(-53011.8 -58830.3 0)
(-1629.77 -26542.2 0)
(91.3361 -30290.7 0)
(506.931 -32926.9 0)
(784.983 -36395.6 0)
(817.283 -39259 0)
(751.725 -42234.3 0)
(560.904 -44720.1 0)
(339.309 -46966.6 0)
(189.034 -49004.3 0)
(62.905 -50692.6 0)
(-8.59366 -52244.5 0)
(-41.6102 -53599.8 0)
(-59.3862 -54838.1 0)
(-53.1708 -55886.9 0)
(-78.3054 -56815.7 0)
(-77.859 -57556.2 0)
(-107.012 -57845.5 0)
(-104.762 -57938.2 0)
(34.6147 -57901 0)
(27.7798 -57639 0)
(3.45621 -57366 0)
(-28.7542 -56260 0)
(-71.356 -55245.7 0)
(-89.0454 -53738.9 0)
(-131.949 -52287.1 0)
(-156.164 -50425.4 0)
(-230.086 -48632.3 0)
(-307.659 -46284.2 0)
(-452.052 -43986.8 0)
(-607.316 -41152.6 0)
(-795.602 -38258.9 0)
(-875.48 -35015.2 0)
(-718.156 -31711.6 0)
(-403.475 -28049.9 0)
(-66.4236 -25443.2 0)
(2026.84 -21546.5 0)
(51151.2 -51600.6 0)
(-54576.9 -598275 0)
(22425.4 -32963.8 0)
(-19909.5 -2875.55 0)
(75.0843 -1202.55 0)
(86.0233 -1053.62 0)
(95.6957 -1136.77 0)
(150.84 -1455.7 0)
(98.2978 -1799.77 0)
(66.3177 -2198.39 0)
(14.675 -2547.53 0)
(-75.3417 -2774.81 0)
(-101.718 -2955.13 0)
(-132.963 -3061.18 0)
(-137.914 -3139.43 0)
(-123.989 -3184.13 0)
(-104.329 -3215.93 0)
(-74.18 -3229.68 0)
(-52.3709 -3247.78 0)
(-36.15 -3220.22 0)
(-34.9284 -3225.4 0)
(-39.5889 -3159.88 0)
(-39.6803 -3160.64 0)
(-46.9235 -3232.57 0)
(-50.7696 -3229.08 0)
(-48.9532 -3280.87 0)
(-37.8139 -3247.28 0)
(-28.2406 -3250.26 0)
(-15.5462 -3194.99 0)
(-7.65977 -3139.96 0)
(-4.0863 -3050.48 0)
(-11.1206 -2914.77 0)
(-30.102 -2753.48 0)
(-50.1796 -2479.24 0)
(-92.2559 -2172.49 0)
(-102.235 -1732.46 0)
(-38.0099 -1339.83 0)
(92.3781 -1001.14 0)
(190.025 -812.144 0)
(542.376 -755.814 0)
(20780.2 -2362.17 0)
(-23388.8 -28509.2 0)
(24110.8 4098.47 0)
(-22405.5 -303.073 0)
(125.911 -266.679 0)
(154.72 -238.022 0)
(119.468 -157.456 0)
(146.091 -177.841 0)
(101.601 -169.847 0)
(31.162 -165.477 0)
(5.44396 -219.306 0)
(-53.4694 -199.185 0)
(-86.9184 -201.454 0)
(-114.693 -189.034 0)
(-127.077 -181.965 0)
(-115.328 -180.036 0)
(-103.278 -178.647 0)
(-83.8648 -186.031 0)
(-69.1903 -196.868 0)
(-56.2937 -209.055 0)
(-48.862 -220.586 0)
(-42.3569 -226.094 0)
(-35.4381 -228.694 0)
(-38.1754 -229.519 0)
(-43.0828 -225.89 0)
(-46.2862 -223.251 0)
(-41.8564 -219.169 0)
(-38.6571 -221.003 0)
(-25.6636 -222.118 0)
(-16.9128 -223.617 0)
(-13.0811 -224.292 0)
(-21.4561 -227.251 0)
(-32.3679 -230.753 0)
(-47.4516 -224.002 0)
(-75.9762 -222.191 0)
(-73.1027 -196.366 0)
(-13.4233 -183.295 0)
(105.021 -171.322 0)
(169.978 -184.947 0)
(533.178 -225.736 0)
(24407 -137.244 0)
(-26291.9 6126.39 0)
(25402 4262.11 0)
(-24115.9 -77.4745 0)
(137.769 -55.8754 0)
(191.274 -70.6257 0)
(153.689 -21.4475 0)
(138.9 -38.6502 0)
(110.212 -63.602 0)
(18.6569 -66.5185 0)
(-17.8072 -100.826 0)
(-58.1389 -114.574 0)
(-91.9369 -124.951 0)
(-114.183 -133.415 0)
(-129.243 -137.103 0)
(-120.792 -148.201 0)
(-110.107 -158.418 0)
(-91.7385 -171.321 0)
(-74.5572 -183.39 0)
(-59.006 -193.214 0)
(-51.3478 -201.079 0)
(-47.4016 -206.826 0)
(-42.9808 -211.709 0)
(-44.2221 -214.538 0)
(-44.73 -213.079 0)
(-42.4766 -208.51 0)
(-35.6472 -200.204 0)
(-31.0821 -193.631 0)
(-18.0656 -184.153 0)
(-9.75474 -178.365 0)
(-7.58832 -171.105 0)
(-17.3467 -168.588 0)
(-26.9703 -161.904 0)
(-41.9291 -157.676 0)
(-65.6252 -149.977 0)
(-64.7533 -135.606 0)
(-13.8769 -125.964 0)
(90.7866 -114.806 0)
(137.59 -128.349 0)
(588.344 -138.299 0)
(26901.3 155.582 0)
(-28371.7 6012.49 0)
(27833.5 4865.87 0)
(-26566.5 117.795 0)
(132.511 127.879 0)
(187.896 114.384 0)
(150.281 109.679 0)
(105.47 92.7252 0)
(74.7466 42.2321 0)
(-4.70805 10.8236 0)
(-40.8644 -12.475 0)
(-76.7174 -43.3152 0)
(-105.074 -64.8818 0)
(-126.403 -86.3621 0)
(-141.326 -95.8506 0)
(-135.868 -109.289 0)
(-125.557 -120.452 0)
(-107.929 -133.261 0)
(-90.2877 -145.966 0)
(-73.3391 -158.272 0)
(-61.9783 -168.971 0)
(-52.6003 -175.92 0)
(-42.8698 -179.575 0)
(-39.4962 -180.107 0)
(-37.274 -177.312 0)
(-33.8792 -173.138 0)
(-27.5183 -167.536 0)
(-23.1899 -163.183 0)
(-10.9532 -156.606 0)
(-4.33921 -152.807 0)
(-3.65922 -147.606 0)
(-12.5897 -143.207 0)
(-21.8525 -131.67 0)
(-35.9584 -122.253 0)
(-54.7089 -103.224 0)
(-49.9627 -77.8815 0)
(6.62039 -49.5597 0)
(102.724 -24.3465 0)
(147.339 -29.1301 0)
(806.784 -4.13969 0)
(30334.2 511.601 0)
(-31794.4 6798.09 0)
(30075.8 4195.11 0)
(-28681.6 195.521 0)
(134.483 216.789 0)
(173.736 231.429 0)
(132.817 206.827 0)
(73.9059 190.383 0)
(31.2884 126.494 0)
(-34.061 90.219 0)
(-69.9773 51.4723 0)
(-108.64 13.7973 0)
(-133.418 -17.3347 0)
(-144.025 -45.7577 0)
(-151.337 -61.2219 0)
(-144.498 -76.4259 0)
(-133.207 -88.1075 0)
(-116.325 -100.267 0)
(-98.6578 -111.96 0)