/*--------------------------------*- C++ -*----------------------------------*\
| =========                 |                                                 |
| \\      /  F ield         | OpenFOAM: The Open Source CFD Toolbox           |
|  \\    /   O peration     | Version:  v1912                                 |
|   \\  /    A nd           | Website:  www.openfoam.com                      |
|    \\/     M anipulation  |                                                 |
\*---------------------------------------------------------------------------*/
FoamFile
{
    version     2.0;
    format      ascii;
    class       volVectorField;
    location    "8.42";
    object      grad(p);
}
// * * * * * * * * * * * * * * * * * * * * * * * * * * * * * * * * * * * * * //

dimensions      [1 -2 -2 0 0 0 0];


internalField   nonuniform List<vector> 
1900
(
(8113.3 -0.118405 0)
(-21503.4 0.463757 0)
(-2092.32 0.321456 0)
(-445.912 0.11609 0)
(-364.235 -0.654251 0)
(-261.062 -1.11261 0)
(-101.835 6.4411 0)
(123.303 8.94669 0)
(326.383 15.8017 0)
(1226.23 -22.0638 0)
(8113.65 -0.201717 0)
(-21502.9 0.780817 0)
(-2092.67 0.575497 0)
(-446.888 0.0572982 0)
(-365.464 -0.790066 0)
(-253.966 -0.730791 0)
(-91.7754 4.96899 0)
(132.664 9.34954 0)
(295.373 -26.2388 0)
(295.173 -96.8731 0)
(8113.88 9.9476e-10 0)
(-21502.6 1.74083e-09 0)
(-2093.04 2.30926e-10 0)
(-447.277 -1.06581e-10 0)
(-365.023 4.79616e-10 0)
(-255.303 2.66454e-10 0)
(-91.7543 -9.76996e-10 0)
(92.0952 4.44089e-10 0)
(220.161 2.84217e-10 0)
(163.499 1.24345e-10 0)
(8113.65 0.201717 0)
(-21502.9 -0.780817 0)
(-2092.67 -0.575497 0)
(-446.888 -0.0572982 0)
(-365.464 0.790066 0)
(-253.966 0.730791 0)
(-91.7754 -4.96899 0)
(132.664 -9.34954 0)
(295.373 26.2388 0)
(295.173 96.8731 0)
(8113.3 0.118405 0)
(-21503.4 -0.463757 0)
(-2092.32 -0.321456 0)
(-445.912 -0.11609 0)
(-364.235 0.654251 0)
(-261.062 1.11261 0)
(-101.835 -6.4411 0)
(123.303 -8.94669 0)
(326.383 -15.8017 0)
(1226.23 22.0638 0)
(345.369 -792.231 8.48032e-12)
(-1323.5 -590.592 -9.96475e-12)
(-1310.68 -670.272 -1.25605e-11)
(899.738 -981.665 0)
(-18708.3 -7826.92 -5.47993e-11)
(-135.386 -958.615 8.33717e-12)
(-734.345 -722.086 9.96475e-12)
(-1263.54 -728.451 1.25605e-11)
(-1787.97 -663.283 0)
(-17774.5 -7237.63 0)
(-451.023 1.12631e-10 0)
(-757.464 8.37537e-10 0)
(-1139.81 -9.86865e-11 0)
(-1859.99 1.00929e-09 0)
(-20539.3 -1.42743e-09 0)
(-135.386 958.615 8.33717e-12)
(-734.345 722.086 9.96475e-12)
(-1263.54 728.451 1.25605e-11)
(-1787.97 663.283 0)
(-17774.5 7237.63 0)
(345.369 792.231 -2.51547e-11)
(-1323.5 590.592 -9.96475e-12)
(-1310.68 670.272 -1.25605e-11)
(899.738 981.665 -3.37914e-11)
(-18708.3 7826.92 5.47993e-11)
(-37329.5 10677.8 1.00203e-11)
(-11201.8 4137.05 -4.87602e-12)
(-5007.06 1904.67 0)
(-3198.62 1273.45 2.01107e-12)
(-1209.1 646.801 -6.651e-13)
(-33404.2 13247.6 -5.17093e-12)
(-13150.2 3384.78 2.50031e-12)
(-5720.87 1106.16 0)
(-3573.75 768.934 -1.28668e-12)
(-1886.23 55.725 1.71564e-13)
(-34482.1 -1.12144e-10 0)
(-14296.4 -1.70804e-10 0)
(-5833.35 5.92119e-10 0)
(-3658.52 8.70763e-11 5.23935e-13)
(-1868.02 3.96044e-10 -3.43129e-13)
(-33404.2 -13247.6 -5.17093e-12)
(-13150.2 -3384.78 2.50031e-12)
(-5720.87 -1106.16 0)
(-3573.75 -768.934 -1.28668e-12)
(-1886.23 -55.725 1.71564e-13)
(-37329.5 -10677.8 5.17093e-12)
(-11201.8 -4137.05 -1.24594e-13)
(-5007.06 -1904.67 0)
(-3198.62 -1273.45 3.83522e-14)
(-1209.1 -646.801 6.651e-13)
(344.695 -1188.32 0)
(80.2335 -276.599 0)
(-142.436 585.988 0)
(-200.667 627.279 0)
(-261.348 441.012 0)
(-347.939 185.744 0)
(-385.775 -36.3943 0)
(-439.92 -113.835 0)
(-525.443 -200.108 0)
(-294.119 -179.392 0)
(253.219 -126.251 0)
(1567.25 -89.5153 0)
(2117.35 -99.4213 0)
(953.199 79.8746 0)
(60.1803 -21.126 0)
(-177.627 -67.8604 0)
(-182.211 -252.124 0)
(-165.058 -465.333 0)
(-220.622 -527.932 0)
(-324.05 -460.695 0)
(-487.432 -234.971 0)
(-676.701 -41.6871 0)
(-914.63 65.3595 0)
(-1299.46 104.536 0)
(-1529.3 84.1386 0)
(-1046.12 33.4767 0)
(-321.774 3.56944 0)
(-13.7818 -0.174908 0)
(364.038 -0.110236 0)
(925.67 0.706867 0)
(913.428 -0.657264 0)
(524.248 -2.818 0)
(378.896 -3.08978 0)
(376.093 -2.39969 0)
(375.942 -0.968704 0)
(353.592 0.88135 0)
(340.504 1.80538 0)
(351.953 1.69262 0)
(343.004 3.38347 0)
(366.499 3.52755 0)
(-0.63188 -853.465 0)
(361.638 -788.687 0)
(32.6236 89.084 0)
(-247.182 337.738 0)
(-365.63 327.793 0)
(-436.012 165.875 0)
(-403.676 -18.5735 0)
(-429.771 -15.5376 0)
(-508.278 -51.5406 0)
(-279.597 -18.2124 0)
(259.397 -18.0949 0)
(1570.96 19.6196 0)
(2132.31 -33.2661 0)
(958.232 77.2773 0)
(42.7872 0.0359493 0)
(-189.01 -47.3399 0)
(-195.678 -83.4818 0)
(-169.767 -106.034 0)
(-215.819 -81.8006 0)
(-310.031 -82.3947 0)
(-468.066 78.6535 0)
(-660.399 236.918 0)
(-899.166 195.781 0)
(-1291.77 90.0275 0)
(-1538.43 45.3888 0)
(-1058.64 10.0919 0)
(-325.987 0.782341 0)
(-14.1489 -0.10705 0)
(364.088 -0.0310505 0)
(925.602 0.320829 0)
(913.087 -0.33399 0)
(523.975 -1.57239 0)
(378.858 -1.84574 0)
(376.228 -1.7402 0)
(376.314 -1.09753 0)
(354.026 0.180062 0)
(340.804 0.861203 0)
(352.367 0.397254 0)
(343.44 0.563467 0)
(365.111 0.412184 0)
(42.5768 6.8632e-11 0)
(354.429 6.21725e-10 0)
(185.251 6.25762e-10 0)
(-131.224 2.4223e-11 0)
(-311.345 -8.47807e-10 0)
(-448.7 -1.23941e-09 0)
(-438.549 -6.41911e-10 0)
(-449.511 -1.23134e-10 0)
(-526.221 -3.83532e-10 0)
(-284.389 -2.72509e-10 0)
(264.225 -1.55431e-10 0)
(1562.83 -1.27171e-10 0)
(2134.13 2.57168e-09 0)
(962.887 -1.05774e-09 0)
(23.928 6.70171e-10 0)
(-201.923 3.52849e-09 0)
(-199.285 8.08242e-09 0)
(-164.568 5.89427e-09 0)
(-213.745 8.4054e-09 0)
(-277.372 3.91202e-09 0)
(-394.541 -6.94394e-10 0)
(-642.627 -5.97502e-10 0)
(-957.361 1.92977e-09 0)
(-1343.21 -9.60848e-10 0)
(-1552.56 -2.20026e-09 0)
(-1059.1 -9.38643e-11 0)
(-324.741 1.29492e-09 0)
(-14.0184 5.04647e-10 0)
(364.163 1.36255e-09 0)
(925.582 4.50145e-09 0)
(912.877 -4.56604e-09 0)
(523.808 -5.43606e-09 0)
(378.847 -2.4546e-09 0)
(376.311 -8.25602e-10 0)
(376.5 -7.67063e-10 0)
(354.161 -1.0537e-09 0)
(340.567 -1.38475e-09 0)
(351.867 -2.05088e-09 0)
(343.009 -1.23134e-09 0)
(366.215 1.69561e-10 0)
(-0.63188 853.465 0)
(361.638 788.687 0)
(32.6236 -89.084 0)
(-247.182 -337.738 0)
(-365.63 -327.793 0)
(-436.012 -165.875 0)
(-403.676 18.5735 0)
(-429.771 15.5376 0)
(-508.278 51.5406 0)
(-279.597 18.2124 0)
(259.397 18.0949 0)
(1570.96 -19.6196 0)
(2132.31 33.2661 0)
(958.232 -77.2773 0)
(42.7872 -0.0359493 0)
(-189.01 47.3399 0)
(-195.678 83.4818 0)
(-169.767 106.034 0)
(-215.819 81.8006 0)
(-310.031 82.3947 0)
(-468.066 -78.6535 0)
(-660.399 -236.918 0)
(-899.166 -195.781 0)
(-1291.77 -90.0275 0)
(-1538.43 -45.3888 0)
(-1058.64 -10.0919 0)
(-325.987 -0.782341 0)
(-14.1489 0.10705 0)
(364.088 0.0310505 0)
(925.602 -0.320829 0)
(913.087 0.33399 0)
(523.975 1.57239 0)
(378.858 1.84574 0)
(376.228 1.7402 0)
(376.314 1.09753 0)
(354.026 -0.180062 0)
(340.804 -0.861203 0)
(352.367 -0.397254 0)
(343.44 -0.563467 0)
(365.111 -0.412184 0)
(344.695 1188.32 0)
(80.2335 276.599 0)
(-142.436 -585.988 0)
(-200.667 -627.279 0)
(-261.348 -441.012 0)
(-347.939 -185.744 0)
(-385.775 36.3943 0)
(-439.92 113.835 0)
(-525.443 200.108 0)
(-294.119 179.392 0)
(253.219 126.251 0)
(1567.25 89.5153 0)
(2117.35 99.4213 0)
(953.199 -79.8746 0)
(60.1803 21.126 0)
(-177.627 67.8604 0)
(-182.211 252.124 0)
(-165.058 465.333 0)
(-220.622 527.932 0)
(-324.05 460.695 0)
(-487.432 234.971 0)
(-676.701 41.6871 0)
(-914.63 -65.3595 0)
(-1299.46 -104.536 0)
(-1529.3 -84.1386 0)
(-1046.12 -33.4767 0)
(-321.774 -3.56944 0)
(-13.7818 0.174908 0)
(364.038 0.110236 0)
(925.67 -0.706867 0)
(913.428 0.657264 0)
(524.248 2.818 0)
(378.896 3.08978 0)
(376.093 2.39969 0)
(375.942 0.968704 0)
(353.592 -0.88135 0)
(340.504 -1.80538 0)
(351.953 -1.69262 0)
(343.004 -3.38347 0)
(366.499 -3.52755 0)
(-364.903 496.162 0)
(-425.963 -120.397 0)
(-331.942 -455.327 0)
(-210.026 -593.839 0)
(-209.243 -603.643 0)
(-238.382 -546.807 0)
(-236.458 -360.512 0)
(-315.342 -197.432 0)
(-447.309 -31.6926 0)
(-309.134 110.001 0)
(210.163 95.8632 0)
(1558.43 149.975 0)
(2043.34 82.7612 0)
(914.939 -141.714 0)
(115.347 -72.332 0)
(-57.2733 -114.434 0)
(38.073 -44.2346 0)
(-2.20564 59.211 0)
(-213.175 87.1653 0)
(-477.588 67.4293 0)
(-708.506 -15.1604 0)
(-829.94 -93.1282 0)
(-973.009 -140.316 0)
(-1294.66 -145.395 0)
(-1504.4 -123.727 0)
(-1022.57 -58.569 0)
(-309.748 -6.30657 0)
(-12.2653 0.382624 0)
(363.592 0.223387 0)
(925.866 -1.52988 0)
(914.905 1.29676 0)
(525.185 5.09686 0)
(378.553 5.61977 0)
(375.053 4.21624 0)
(374.686 1.90272 0)
(352.787 -0.814139 0)
(340.642 -2.54172 0)
(351.856 -2.73094 0)
(342.792 -4.35121 0)
(367.842 -3.93877 0)
(-500.516 -20.9119 0)
(-565.217 78.7267 0)
(-497.044 146.02 0)
(-338.571 90.226 0)
(-243.966 -8.66338 0)
(-172.397 -51.5847 0)
(-129.173 -82.7176 0)
(-189.861 -119.82 0)
(-271.086 -52.4647 0)
(-163.15 60.96 0)
(314.828 118.056 0)
(1559.35 343.417 0)
(1875.96 166.694 0)
(824.262 -65.5256 0)
(56.8862 -90.6037 0)
(-215.089 -230.989 0)
(-133.003 -294.69 0)
(-125.762 -389.485 0)
(-216.695 -453.204 0)
(-340.323 -435.784 0)
(-523.605 -337.753 0)
(-715.133 -248.292 0)
(-933.691 -205.272 0)
(-1286.04 -206.506 0)
(-1458.99 -201.775 0)
(-945.597 -90.6298 0)
(-271.415 -8.10889 0)
(-8.30248 1.08774 0)
(362.435 0.845952 0)
(926.599 -2.10781 0)
(919.021 1.95844 0)
(527.911 7.98923 0)
(378.231 9.37644 0)
(373.069 7.88026 0)
(371.767 5.18097 0)
(349.74 1.68367 0)
(338.583 -1.53404 0)
(350.262 -4.03716 0)
(341.954 -5.88003 0)
(373.768 -4.29536 0)
(-309.191 4.05571 0)
(-265.101 68.7303 0)
(-320.86 199.182 0)
(-359.084 248.18 0)
(-345.897 207.122 0)
(-309.744 157.284 0)
(-302.212 48.9835 0)
(-286.189 -101.99 0)
(-273.103 -44.0752 0)
(-144.814 128.23 0)
(482.349 247.283 0)
(1605.3 470.334 0)
(1649.27 -7.42254 0)
(666.998 -250.028 0)
(-44.1003 -303.13 0)
(-253.938 -303.891 0)
(-114.66 -170.962 0)
(-154.955 -180.414 0)
(-257.79 -226.189 0)
(-366.335 -264.812 0)
(-527.832 -281.822 0)
(-702.277 -271.257 0)
(-932.743 -261.779 0)
(-1291.29 -281.112 0)
(-1392.74 -262.747 0)
(-835.95 -103.915 0)
(-221.366 -7.03049 0)
(-3.6361 2.43229 0)
(360.513 2.17665 0)
(926.938 -1.32851 0)
(924.635 3.54832 0)
(532.333 11.1233 0)
(378.448 13.0005 0)
(371.01 11.2721 0)
(368.715 8.34587 0)
(346.316 5.15303 0)
(335.129 1.75325 0)
(347.668 -2.59179 0)
(342.543 -4.44449 0)
(377.647 -1.02153 0)
(-430.376 7.24975 0)
(-377.186 -57.2222 0)
(-324.119 -83.2066 0)
(-330.92 -74.614 0)
(-331.557 -67.9016 0)
(-324.785 -54.1677 0)
(-379.018 -98.736 0)
(-279.536 -145.421 0)
(-49.2387 -34.0216 0)
(117.613 194.638 0)
(644.492 464.65 0)
(1313.91 558.783 0)
(1181.79 -99.6551 0)
(539.308 -310.488 0)
(4.98181 -435.196 0)
(-87.7281 -318.257 0)
(-14.016 -190.222 0)
(-178.981 -258.559 0)
(-298.025 -288.615 0)
(-393.932 -312.341 0)
(-529.815 -325.876 0)
(-695.819 -325.753 0)
(-943.187 -332.507 0)
(-1286.98 -357.783 0)
(-1288.23 -303.41 0)
(-699.18 -100.203 0)
(-168.935 -4.60045 0)
(0.569859 3.13456 0)
(358.811 2.59139 0)
(927.921 -2.58232 0)
(931.02 0.810281 0)
(537.02 8.06958 0)
(378.374 9.68271 0)
(368.583 7.84962 0)
(365.871 5.44896 0)
(343.387 3.84826 0)
(331.12 1.82378 0)
(344.289 -2.42004 0)
(343.468 -3.572 0)
(379.035 0.392493 0)
(-357.346 31.6161 0)
(-352.268 80.6449 0)
(-337.62 87.3885 0)
(-344.336 80.0724 0)
(-326.194 93.3657 0)
(-339.457 96.7196 0)
(-390.146 65.0603 0)
(-223.828 177.208 0)
(54.5895 270.712 0)
(335.725 328.104 0)
(833.253 470.629 0)
(1061.51 381.346 0)
(811.607 -0.485096 0)
(343.659 -222.289 0)
(-51.5866 -425.283 0)
(-17.8726 -190.761 0)
(-57.1329 -230.723 0)
(-249.77 -315.152 0)
(-309.615 -326.047 0)
(-402.241 -343.123 0)
(-540.756 -365.149 0)
(-708.667 -379.662 0)
(-963.608 -397.526 0)
(-1263.25 -420.54 0)
(-1144.53 -315.929 0)
(-548.006 -85.6169 0)
(-121.786 -3.69779 0)
(3.29422 1.43539 0)
(355.004 0.581102 0)
(925.222 -5.7823 0)
(934.9 -5.12358 0)
(540.883 0.297233 0)
(378.236 1.31354 0)
(366.93 -0.407097 0)
(364.859 -1.96897 0)
(342.823 -2.10839 0)
(329.089 -1.40706 0)
(342.468 -3.63515 0)
(345.253 -3.52785 0)
(380.711 0.460987 0)
(-322.198 11.3123 0)
(-323.442 40.0336 0)
(-324.671 55.8321 0)
(-325.16 60.7679 0)
(-315.515 78.6396 0)
(-352.061 83.1753 0)
(-301.456 131.864 0)
(-81.3624 273.502 0)
(96.1699 369.286 0)
(310.26 427.416 0)
(695.798 359.793 0)
(859.926 90.9601 0)
(600.106 -163.651 0)
(129.957 -504.924 0)
(35.3633 -399.688 0)
(99.757 -200.833 0)
(-133.883 -355.135 0)
(-270.839 -359.231 0)
(-324.978 -358.796 0)
(-431.612 -389.974 0)
(-565.026 -420.479 0)
(-727.019 -436.994 0)
(-982.578 -457.632 0)
(-1208.35 -461.265 0)
(-965.488 -294.127 0)
(-398.302 -64.5613 0)
(-85.0485 -4.84598 0)
(4.69315 -1.85801 0)
(351.856 -3.48396 0)
(922.424 -11.5511 0)
(936.878 -6.6962 0)
(543.223 7.73143 0)
(377.695 13.0565 0)
(365.42 8.47005 0)
(364.231 0.445047 0)
(343.929 -5.34335 0)
(329.648 -5.24721 0)
(342.246 -4.69685 0)
(347.415 -3.23502 0)
(381.99 0.339518 0)
(-307.868 2.02819 0)
(-309.367 11.944 0)
(-317.639 23.133 0)
(-322.358 37.8041 0)
(-304.602 67.8439 0)
(-288.168 107.527 0)
(-206.741 209.774 0)
(4.95978 283.823 0)
(202.907 306.026 0)
(326.577 321.994 0)
(509.031 257.241 0)
(557.101 -6.54311 0)
(237.392 -380.545 0)
(116.205 -479.396 0)
(241.447 -229.334 0)
(25.06 -376.918 0)
(-209.771 -439.536 0)
(-253.298 -404.18 0)
(-339.241 -420.492 0)
(-461.681 -455.097 0)
(-586.066 -470.155 0)
(-744.469 -467.805 0)
(-986.997 -476.88 0)
(-1105.69 -448.587 0)
(-762.249 -220.627 0)
(-269.245 -24.2919 0)
(-61.363 13.5483 0)
(4.60672 15.5476 0)
(345.663 14.7006 0)
(922.126 18.1182 0)
(953.481 46.7078 0)
(559.917 78.3003 0)
(378.948 91.0457 0)
(354.777 84.2391 0)
(351.548 69.6703 0)
(337.338 47.0899 0)
(329.712 17.5279 0)
(344.407 1.05695 0)
(350.106 -0.944977 0)
(383.501 1.0857 0)
(-308.733 1.03011 0)
(-303.105 11.7834 0)
(-299.751 23.6012 0)
(-282.075 41.8961 0)
(-248.328 62.816 0)
(-215.293 89.0966 0)
(-131.57 154.552 0)
(11.3897 202.075 0)
(132.952 159.696 0)
(263.25 114.955 0)
(379.208 69.9422 0)
(245.332 -200.167 0)
(144.448 -448.327 0)
(275.669 -290.26 0)
(134.115 -343.895 0)
(-102.801 -465.445 0)
(-160.154 -431.459 0)
(-252.487 -428.649 0)
(-374.044 -443.188 0)
(-479.469 -425.764 0)
(-577.272 -388.66 0)
(-733.499 -359.515 0)
(-964.059 -356.912 0)
(-961.411 -308.041 0)
(-556.622 -64.854 0)
(-172.642 89.4899 0)
(-46.6577 114.837 0)
(5.80362 120.804 0)
(354.333 133.384 0)
(953.267 236.803 0)
(994.872 406.334 0)
(585.948 474.421 0)
(383.418 454.521 0)
(344.822 373.596 0)
(328.433 280.034 0)
(293.682 187.698 0)
(285.289 113.668 0)
(324.445 54.1281 0)
(347.443 12.5319 0)
(381.855 2.19667 0)
(-295.52 2.02709 0)
(-287.617 11.4112 0)
(-288.622 -8.56604 0)
(-284.569 -34.4623 0)
(-259.118 -39.932 0)
(-199.768 -4.01202 0)
(-97.8705 71.7487 0)
(9.91668 107.852 0)
(118.955 72.7552 0)
(240.087 18.415 0)
(205.368 -132.637 0)
(57.6779 -364.556 0)
(150.575 -273.011 0)
(216.84 -247.142 0)
(72.6314 -414.049 0)
(-59.3202 -427.949 0)
(-174.313 -380.302 0)
(-264.601 -314.495 0)
(-336.46 -221.345 0)
(-409.136 -103.149 0)
(-522.226 38.576 0)
(-713.875 106.957 0)
(-937.395 62.0394 0)
(-824.253 186.227 0)
(-379.173 443.024 0)
(-96.0883 550.395 0)
(-31.1876 566.813 0)
(22.4798 579.18 0)
(457.444 647.387 0)
(1185.15 988.458 0)
(1182.46 1257.79 0)
(606.351 1259.03 0)
(281.789 1159.44 0)
(186.636 974.445 0)
(172.41 782.624 0)
(177.022 566.944 0)
(200.999 362.121 0)
(246.949 195.426 0)
(300.063 74.5837 0)
(369.308 10.0395 0)
(-295.784 -0.891609 0)
(-313.312 -24.4997 0)
(-343.957 -59.8152 0)
(-312.3 -54.8798 0)
(-218.985 -12.3713 0)
(-107.673 49.7732 0)
(-23.7737 74.1673 0)
(12.3595 20.2953 0)
(46.7675 -49.1407 0)
(65.3267 -126.431 0)
(10.1626 -305.206 0)
(110.062 -340.047 0)
(257.593 -199.65 0)
(139.759 -274.259 0)
(-40.1178 -255.254 0)
(-70.281 -118.908 0)
(-50.8255 90.1264 0)
(-99.3103 342.885 0)
(-170.383 610.572 0)
(-229 802.23 0)
(-374.806 854.851 0)
(-710.889 732.618 0)
(-887.672 590.02 0)
(-594.281 763.103 0)
(-205.696 975.81 0)
(-53.3549 1019.02 0)
(-18.9198 1013.24 0)
(83.4484 1018.01 0)
(748.729 1130.64 0)
(1541.48 1470.54 0)
(1255.61 1524.31 0)
(491.17 1418.5 0)
(109.18 1341.17 0)
(-18.2912 1229.04 0)
(-64.2494 1131.33 0)
(-111.53 982.26 0)
(-72.7189 742.797 0)
(47.363 463.202 0)
(168.797 222.03 0)
(300.309 30.6012 0)
(-319.988 21.4556 0)
(-344.398 -57.3148 0)
(-317.897 -64.5682 0)
(-238.85 -32.8785 0)
(-158.27 -36.5809 0)
(-116.376 -110.889 0)
(-126.277 -225.189 0)
(-108.907 -242.449 0)
(-22.4359 -174.153 0)
(-6.66629 -133.239 0)
(-0.48032 -107.519 0)
(159.395 29.0573 0)
(213.971 77.2377 0)
(163.259 255.918 0)
(222.333 653.829 0)
(273.501 1087.69 0)
(270.688 1341.76 0)
(236.919 1434.44 0)
(106.181 1409.06 0)
(-173.74 1260.04 0)
(-589.307 905.072 0)
(-969.076 514.481 0)
(-908.018 488.325 0)
(-452.491 738.033 0)
(-132.567 856.94 0)
(-60.0153 857.738 0)
(-32.1547 840.307 0)
(135.61 839.663 0)
(893.511 912.969 0)
(1564.5 966.941 0)
(1132.32 834.096 0)
(429.871 757.591 0)
(99.2188 770.437 0)
(-15.5741 774.948 0)
(-65.4006 816.755 0)
(-197.385 862.762 0)
(-299.184 837.864 0)
(-254.881 676.396 0)
(-116.806 403.441 0)
(125.864 81.0312 0)
(-330.339 13.02 0)
(-396.208 -3.16364 0)
(-320.409 31.191 0)
(-285.33 90.7208 0)
(-294.159 153.026 0)
(-289.423 250.754 0)
(-150.55 357.823 0)
(61.5398 425.122 0)
(152.006 454.656 0)
(129.538 553.554 0)
(166.557 862.965 0)
(288.1 1262.33 0)
(476.204 1558.16 0)
(695.384 1827.51 0)
(761.405 1974.9 0)
(592.629 1914.18 0)
(283.319 1682.71 0)
(-34.4505 1305.85 0)
(-338.442 832.313 0)
(-714.663 368.741 0)
(-1093.25 -56.6934 0)
(-1112.48 -178.229 0)
(-672.249 140.072 0)
(-239.07 433.565 0)
(-90.3437 494.976 0)
(-69.3829 492.183 0)
(-36.3376 485.304 0)
(153.469 492.918 0)
(871.379 495.748 0)
(1465.47 366.78 0)
(1053.87 261.235 0)
(429.825 263.015 0)
(125.906 314.474 0)
(26.3425 344.933 0)
(20.3717 388.06 0)
(-91.1885 449.211 0)
(-252.308 512.157 0)
(-371.262 529.705 0)
(-404.918 407.751 0)
(-166.547 130.988 0)
(-310.49 133.661 0)
(-326.888 409.805 0)
(-227.427 678.79 0)
(-121.446 975.27 0)
(-4.05658 1324.35 0)
(80.9744 1739.93 0)
(41.7508 2147.66 0)
(-15.5955 2402.46 0)
(101.326 2531.97 0)
(386.795 2553.64 0)
(682.52 2529.36 0)
(829.312 2481 0)
(758.601 2371.71 0)
(564.846 2060.24 0)
(305.847 1554.88 0)
(-8.0719 959.796 0)
(-315.519 463.09 0)
(-582.55 95.7291 0)
(-796.85 -249.296 0)
(-1030.42 -570.285 0)
(-1116.39 -607.419 0)
(-779.466 -233.563 0)
(-318.471 188.572 0)
(-110.493 343.205 0)
(-76.0802 362.258 0)
(-69.3357 363.564 0)
(-31.4467 362.676 0)
(145.675 371.563 0)
(771.96 324.743 0)
(1338.52 111.624 0)
(1032.33 27.0321 0)
(481.174 73.0777 0)
(178.158 131.99 0)
(55.336 162.111 0)
(35.0861 164.758 0)
(-77.8006 168.966 0)
(-221.617 182.158 0)
(-355.49 202.567 0)
(-501.025 204.304 0)
(-393.285 99.3883 0)
(193.365 331.09 0)
(129.098 739.686 0)
(224.493 1181.72 0)
(336.759 1545.78 0)
(442.7 1875.67 0)
(503.943 2152.08 0)
(487.883 2425.6 0)
(431.872 2762.12 0)
(297.686 2986.8 0)
(127.024 2890.08 0)
(96.5618 2443.78 0)
(136.184 1794.23 0)
(70.7484 1175.26 0)
(-91.7393 637.007 0)
(-299.026 165.573 0)
(-459.461 -198.102 0)
(-549.327 -448.952 0)
(-720.932 -609.338 0)
(-980.237 -730.736 0)
(-1059.76 -738.548 0)
(-768.777 -396.122 0)
(-345.436 62.1885 0)
(-116.454 290.387 0)
(-71.6995 334.262 0)
(-70.7245 340.438 0)
(-68.9804 342.194 0)
(-28.6303 342.88 0)
(116.914 343.542 0)
(620.892 281.725 0)
(1178.59 32.4473 0)
(1016.72 -60.7466 0)
(530.967 -1.73097 0)
(211.702 43.6045 0)
(57.9187 55.888 0)
(26.9774 44.0051 0)
(-74.4211 31.6338 0)
(-219.929 28.2995 0)
(-349.921 11.5418 0)
(-504.345 5.84805 0)
(-459.195 7.30008 0)
(721.349 290.451 0)
(492.811 461.544 0)
(549.351 710.525 0)
(547.269 835.293 0)
(580.199 923.173 0)
(610.91 960.57 0)
(629.612 1015.58 0)
(525.191 1142.82 0)
(224.627 1171.41 0)
(-136.478 1098.35 0)
(-373.477 902.904 0)
(-393.074 502.553 0)
(-356.543 63.1302 0)
(-408.129 -270.311 0)
(-498.895 -482.542 0)
(-600.251 -578.79 0)
(-711.801 -689.231 0)
(-854.088 -824.111 0)
(-921.361 -788.659 0)
(-707.973 -440.335 0)
(-344.768 -2.35762 0)
(-117.921 248.14 0)
(-56.291 312.377 0)
(-62.2618 322.761 0)
(-68.4363 326.243 0)
(-66.9821 331.606 0)
(-30.1482 336.564 0)
(86.7432 324.225 0)
(472.178 278.951 0)
(1008.5 16.3286 0)
(999.393 -126.578 0)
(581.73 -52.4531 0)
(233.682 -13.532 0)
(55.722 -6.06276 0)
(11.7138 -28.1415 0)
(-92.9351 -34.3273 0)
(-240.979 -36.8477 0)
(-377.125 -43.0197 0)
(-505.112 -56.2443 0)
(-405.955 -21.9476 0)
(918.015 -12.2527 0)
(533.897 -53.2884 0)
(584.651 -36.6494 0)
(541.675 -43.2617 0)
(563.421 -26.2387 0)
(592.991 -23.2388 0)
(663.504 9.55043 0)
(582.035 83.9399 0)
(254.832 147.724 0)
(-131.719 160.715 0)
(-477.567 86.6489 0)
(-673.053 -144.491 0)
(-674.012 -431.56 0)
(-617.569 -615.215 0)
(-596.288 -706.982 0)
(-658.635 -769.318 0)
(-785.726 -818.996 0)
(-816.744 -752.459 0)
(-610.417 -449.05 0)
(-302.055 -51.2405 0)
(-105.337 197.554 0)
(-42.1467 282.307 0)
(-44.5472 294.801 0)
(-58.3377 298.582 0)
(-62.2014 305.786 0)
(-59.0342 316.797 0)
(-35.7425 327.245 0)
(61.3958 311.892 0)
(324.192 274.003 0)
(787.806 24.8366 0)
(950.443 -205.556 0)
(639.902 -149.39 0)
(256.405 -114.848 0)
(43.8404 -99.1106 0)
(-0.259254 -131.5 0)
(-82.8107 -132.671 0)
(-228.306 -118.816 0)
(-368.613 -102.042 0)
(-484.039 -98.2333 0)
(-383.847 -44.9359 0)
(658.191 -253.718 0)
(469.301 -394.372 0)
(559.013 -468.58 0)
(557.301 -499.258 0)
(599.494 -479.821 0)
(645.398 -471.767 0)
(732.894 -433.592 0)
(658.34 -431.919 0)
(298.61 -432.555 0)
(-195.332 -457.02 0)
(-667.585 -589.044 0)
(-892.438 -753.576 0)
(-810.149 -820.036 0)
(-673.536 -810.993 0)
(-647.394 -808.956 0)
(-708.191 -813.312 0)
(-695.555 -696.891 0)
(-497.594 -398.841 0)
(-245.641 -51.5459 0)
(-84.8821 169.404 0)
(-23.3488 257.997 0)
(-24.2098 276.203 0)
(-40.6086 279.456 0)
(-51.676 285.051 0)
(-50.8836 296.037 0)
(-46.3038 309.191 0)
(-34.874 323.065 0)
(35.4369 319.428 0)
(195.561 265.906 0)
(546.382 98.4948 0)
(831.502 -218.242 0)
(669.14 -273.964 0)
(282.132 -238.097 0)
(39.6747 -210.79 0)
(-20.6263 -240.357 0)
(-80.7115 -250.738 0)
(-211.463 -240.141 0)
(-357.292 -199.956 0)
(-450.083 -158.412 0)
(-267.992 -152.466 0)
(293.492 -314.537 0)
(326.848 -547.351 0)
(483.579 -549.595 0)
(530.843 -671.131 0)
(589.913 -740.427 0)
(637.539 -791.486 0)
(701.903 -824.62 0)
(583.035 -918.557 0)
(230.644 -1038.96 0)
(-282.518 -1137.37 0)
(-763.339 -1239.55 0)
(-895.645 -1181.26 0)
(-729.341 -1000.78 0)
(-606.892 -850.243 0)
(-598.522 -734.582 0)
(-550.645 -563.061 0)
(-386.327 -287.455 0)
(-194.865 -2.18353 0)
(-62.8355 177.745 0)
(-3.76801 259.746 0)
(-2.42182 281.426 0)
(-21.4678 283.399 0)
(-36.0208 287.778 0)
(-42.3597 297.811 0)
(-38.9389 312.371 0)
(-32.9888 325.643 0)
(-25.8786 340.476 0)
(6.3151 347.064 0)
(111.293 299.746 0)
(321.263 183.803 0)
(591.528 -122.098 0)
(620.77 -346.278 0)
(317.282 -374.963 0)
(41.6619 -339.341 0)
(-38.7546 -361.415 0)
(-82.6027 -367.505 0)
(-179.371 -369.138 0)
(-289.855 -300.375 0)
(-438.276 -162.77 0)
(-84.2731 -335.939 0)
(-172.355 2062.5 0)
(242.79 -650.395 0)
(439.734 -463.705 0)
(373.409 -639.599 0)
(483.516 -782.196 0)
(564.266 -903.913 0)
(610.443 -1080.47 0)
(451.793 -1367.95 0)
(87.7505 -1627.05 0)
(-388.623 -1802.95 0)
(-709.879 -1714.52 0)
(-662.351 -1362.15 0)
(-491.166 -1011.07 0)
(-417.022 -753.453 0)
(-370.655 -499.669 0)
(-277.323 -209.016 0)
(-155.073 38.6747 0)
(-49.3098 186.434 0)
(6.76342 250.45 0)
(15.0285 263.146 0)
(-0.555838 262.354 0)
(-18.0887 267.57 0)
(-26.7202 280.557 0)
(-27.9778 298.482 0)
(-24.0638 318.654 0)
(-19.2208 335.529 0)
(-14.2326 351.119 0)
(-3.81143 361.778 0)
(38.2374 345.599 0)
(139.877 252.774 0)
(320.697 32.2842 0)
(425.47 -305.595 0)
(288.817 -496.398 0)
(52.7302 -510.838 0)
(-47.7663 -505.341 0)
(-88.1535 -485.823 0)
(-146.775 -459.994 0)
(-158.428 -443.173 0)
(-484.353 -480.371 0)
(212.582 -518.027 0)
(1654.25 -2114.41 0)
(-2107.5 576.592 0)
(493.982 -179.333 0)
(223.933 -392.36 0)
(335.209 -799.216 0)
(350.111 -1241.98 0)
(254.74 -1748.1 0)
(56.3334 -2139.81 0)
(-188.537 -2275.4 0)
(-366.81 -2035.22 0)
(-338.566 -1491.46 0)
(-217.776 -947.214 0)
(-142.783 -578.119 0)
(-114.084 -289.343 0)
(-73.8826 -26.9714 0)
(-31.8783 171.97 0)
(-5.25751 293.898 0)
(9.20941 338.351 0)
(11.0873 335.512 0)
(7.70309 319.827 0)
(1.84185 311.922 0)
(-3.92707 318.492 0)
(-6.23323 334.769 0)
(-5.64836 352.689 0)
(-3.23923 369.664 0)
(-1.70422 381.022 0)
(-0.584024 391.378 0)
(0.99612 396.398 0)
(6.25294 394.3 0)
(19.3415 350.229 0)
(53.4635 229.074 0)
(111.312 -38.0502 0)
(119.503 -327.964 0)
(33.0445 -461.778 0)
(-14.6487 -416.975 0)
(-38.9043 -397.008 0)
(-138.273 -285.123 0)
(-309.491 -101.204 0)
(-510.408 200.454 0)
(877.819 931.095 0)
(1654.25 2114.41 0)
(-2107.5 -576.592 0)
(493.982 179.333 0)
(223.933 392.36 0)
(335.209 799.216 0)
(350.111 1241.98 0)
(254.74 1748.1 0)
(56.3334 2139.81 0)
(-188.537 2275.4 0)
(-366.81 2035.22 0)
(-338.566 1491.46 0)
(-217.776 947.214 0)
(-142.783 578.119 0)
(-114.084 289.343 0)
(-73.8826 26.9714 0)
(-31.8783 -171.97 0)
(-5.25751 -293.898 0)
(9.20941 -338.351 0)
(11.0873 -335.512 0)
(7.70309 -319.827 0)
(1.84185 -311.922 0)
(-3.92707 -318.492 0)
(-6.23323 -334.769 0)
(-5.64836 -352.689 0)
(-3.23923 -369.664 0)
(-1.70422 -381.022 0)
(-0.584024 -391.378 0)
(0.99612 -396.398 0)
(6.25294 -394.3 0)
(19.3415 -350.229 0)
(53.4635 -229.074 0)
(111.312 38.0502 0)
(119.503 327.964 0)
(33.0445 461.778 0)
(-14.6487 416.975 0)
(-38.9043 397.008 0)
(-138.273 285.123 0)
(-309.491 101.204 0)
(-510.408 -200.454 0)
(877.819 -931.095 0)
(-172.355 -2062.5 0)
(242.79 650.395 0)
(439.734 463.705 0)
(373.409 639.599 0)
(483.516 782.196 0)
(564.266 903.913 0)
(610.443 1080.47 0)
(451.793 1367.95 0)
(87.7505 1627.05 0)
(-388.623 1802.95 0)
(-709.879 1714.52 0)
(-662.351 1362.15 0)
(-491.166 1011.07 0)
(-417.022 753.453 0)
(-370.655 499.669 0)
(-277.323 209.016 0)
(-155.073 -38.6747 0)
(-49.3098 -186.434 0)
(6.76342 -250.45 0)
(15.0285 -263.146 0)
(-0.555838 -262.354 0)
(-18.0887 -267.57 0)
(-26.7202 -280.557 0)
(-27.9778 -298.482 0)
(-24.0638 -318.654 0)
(-19.2208 -335.529 0)
(-14.2326 -351.119 0)
(-3.81143 -361.778 0)
(38.2374 -345.599 0)
(139.877 -252.774 0)
(320.697 -32.2842 0)
(425.47 305.595 0)
(288.817 496.398 0)
(52.7302 510.838 0)
(-47.7663 505.341 0)
(-88.1535 485.823 0)
(-146.775 459.994 0)
(-158.428 443.173 0)
(-484.353 480.371 0)
(212.582 518.027 0)
(293.492 314.537 0)
(326.848 547.351 0)
(483.579 549.595 0)
(530.843 671.131 0)
(589.913 740.427 0)
(637.539 791.486 0)
(701.903 824.62 0)
(583.035 918.557 0)
(230.644 1038.96 0)
(-282.518 1137.37 0)
(-763.339 1239.55 0)
(-895.645 1181.26 0)
(-729.341 1000.78 0)
(-606.892 850.243 0)
(-598.522 734.582 0)
(-550.645 563.061 0)
(-386.327 287.455 0)
(-194.865 2.18353 0)
(-62.8355 -177.745 0)
(-3.76801 -259.746 0)
(-2.42182 -281.426 0)
(-21.4678 -283.399 0)
(-36.0208 -287.778 0)
(-42.3597 -297.811 0)
(-38.9389 -312.371 0)
(-32.9888 -325.643 0)
(-25.8786 -340.476 0)
(6.3151 -347.064 0)
(111.293 -299.746 0)
(321.263 -183.803 0)
(591.528 122.098 0)
(620.77 346.278 0)
(317.282 374.963 0)
(41.6619 339.341 0)
(-38.7546 361.415 0)
(-82.6027 367.505 0)
(-179.371 369.138 0)
(-289.855 300.375 0)
(-438.276 162.77 0)
(-84.2731 335.939 0)
(658.191 253.718 0)
(469.301 394.372 0)
(559.013 468.58 0)
(557.301 499.258 0)
(599.494 479.821 0)
(645.398 471.767 0)
(732.894 433.592 0)
(658.34 431.919 0)
(298.61 432.555 0)
(-195.332 457.02 0)
(-667.585 589.044 0)
(-892.438 753.576 0)
(-810.149 820.036 0)
(-673.536 810.993 0)
(-647.394 808.956 0)
(-708.191 813.312 0)
(-695.555 696.891 0)
(-497.594 398.841 0)
(-245.641 51.5459 0)
(-84.8821 -169.404 0)
(-23.3488 -257.997 0)
(-24.2098 -276.203 0)
(-40.6086 -279.456 0)
(-51.676 -285.051 0)
(-50.8836 -296.037 0)
(-46.3038 -309.191 0)
(-34.874 -323.065 0)
(35.4369 -319.428 0)
(195.561 -265.906 0)
(546.382 -98.4948 0)
(831.502 218.242 0)
(669.14 273.964 0)
(282.132 238.097 0)
(39.6747 210.79 0)
(-20.6263 240.357 0)
(-80.7115 250.738 0)
(-211.463 240.141 0)
(-357.292 199.956 0)
(-450.083 158.412 0)
(-267.992 152.466 0)
(918.015 12.2527 0)
(533.897 53.2884 0)
(584.651 36.6494 0)
(541.675 43.2617 0)
(563.421 26.2387 0)
(592.991 23.2388 0)
(663.504 -9.55043 0)
(582.035 -83.9399 0)
(254.832 -147.724 0)
(-131.719 -160.715 0)
(-477.567 -86.6489 0)
(-673.053 144.491 0)
(-674.012 431.56 0)
(-617.569 615.215 0)
(-596.288 706.982 0)
(-658.635 769.318 0)
(-785.726 818.996 0)
(-816.744 752.459 0)
(-610.417 449.05 0)
(-302.055 51.2405 0)
(-105.337 -197.554 0)
(-42.1467 -282.307 0)
(-44.5472 -294.801 0)
(-58.3377 -298.582 0)
(-62.2014 -305.786 0)
(-59.0342 -316.797 0)
(-35.7425 -327.245 0)
(61.3958 -311.892 0)
(324.192 -274.003 0)
(787.806 -24.8366 0)
(950.443 205.556 0)
(639.902 149.39 0)
(256.405 114.848 0)
(43.8404 99.1106 0)
(-0.259254 131.5 0)
(-82.8107 132.671 0)
(-228.306 118.816 0)
(-368.613 102.042 0)
(-484.039 98.2333 0)
(-383.847 44.9359 0)
(721.349 -290.451 0)
(492.811 -461.544 0)
(549.351 -710.525 0)
(547.269 -835.293 0)
(580.199 -923.173 0)
(610.91 -960.57 0)
(629.612 -1015.58 0)
(525.191 -1142.82 0)
(224.627 -1171.41 0)
(-136.478 -1098.35 0)
(-373.477 -902.904 0)
(-393.074 -502.553 0)
(-356.543 -63.1302 0)
(-408.129 270.311 0)
(-498.895 482.542 0)
(-600.251 578.79 0)
(-711.801 689.231 0)
(-854.088 824.111 0)
(-921.361 788.659 0)
(-707.973 440.335 0)
(-344.768 2.35762 0)
(-117.921 -248.14 0)
(-56.291 -312.377 0)
(-62.2618 -322.761 0)
(-68.4363 -326.243 0)
(-66.9821 -331.606 0)
(-30.1482 -336.564 0)
(86.7432 -324.225 0)
(472.178 -278.951 0)
(1008.5 -16.3286 0)
(999.393 126.578 0)
(581.73 52.4531 0)
(233.682 13.532 0)
(55.722 6.06276 0)
(11.7138 28.1415 0)
(-92.9351 34.3273 0)
(-240.979 36.8477 0)
(-377.125 43.0197 0)
(-505.112 56.2443 0)
(-405.955 21.9476 0)
(193.365 -331.09 0)
(129.098 -739.686 0)
(224.493 -1181.72 0)
(336.759 -1545.78 0)
(442.7 -1875.67 0)
(503.943 -2152.08 0)
(487.883 -2425.6 0)
(431.872 -2762.12 0)
(297.686 -2986.8 0)
(127.024 -2890.08 0)
(96.5618 -2443.78 0)
(136.184 -1794.23 0)
(70.7484 -1175.26 0)
(-91.7393 -637.007 0)
(-299.026 -165.573 0)
(-459.461 198.102 0)
(-549.327 448.952 0)
(-720.932 609.338 0)
(-980.237 730.736 0)
(-1059.76 738.548 0)
(-768.777 396.122 0)
(-345.436 -62.1885 0)
(-116.454 -290.387 0)
(-71.6995 -334.262 0)
(-70.7245 -340.438 0)
(-68.9804 -342.194 0)