/*--------------------------------*- C++ -*----------------------------------*\
| =========                 |                                                 |
| \\      /  F ield         | OpenFOAM: The Open Source CFD Toolbox           |
|  \\    /   O peration     | Version:  v1912                                 |
|   \\  /    A nd           | Website:  www.openfoam.com                      |
|    \\/     M anipulation  |                                                 |
\*---------------------------------------------------------------------------*/
FoamFile
{
    version     2.0;
    format      ascii;
    class       volScalarField;
    location    "8.42";
    object      rho;
}
// * * * * * * * * * * * * * * * * * * * * * * * * * * * * * * * * * * * * * //

dimensions      [1 -3 0 0 0 0 0];


internalField   nonuniform List<scalar> 
1900
(
14543.7
11692.8
12224.1
12615.9
12680
12634.5
12555.3
12450.6
12385.5
12360.6
14543.7
11692.9
12224.2
12616
12679.8
12634.3
12556.6
12451.2
12384.9
12356.5
14543.7
11692.9
12224.3
12616
12679.8
12634.4
12556.2
12450.7
12375.3
12342
14543.7
11692.9
12224.2
12616
12679.8
12634.3
12556.6
12451.2
12384.9
12356.5
14543.7
11692.8
12224.1
12615.9
12680
12634.5
12555.3
12450.6
12385.5
12360.6
12503.9
12354
12244.7
11911
11799.2
12356.9
12263.3
12173
11848.7
11391.2
12326
12244.1
12173.2
11890.2
11459.1
12356.9
12263.3
12173
11848.7
11391.2
12503.9
12354
12244.7
11911
11799.2
6217.16
4214.9
3253.56
2733.04
2182.95
6867.92
4546.14
3439.81
2878.3
2284.42
7061.85
4504.12
3366.87
2819.3
2207.28
6867.92
4546.14
3439.81
2878.3
2284.42
6217.16
4214.9
3253.56
2733.04
2182.95
2449.04
2655.13
2673.9
2639.53
2577.03
2482.17
2351.91
2228.63
2063.4
1864.92
1841.99
2007.47
2747.92
3145.28
3137.61
3049.02
2932.07
2854.04
2807.77
2791.15
2775.8
2680.04
2474.09
2152.64
1670.58
1165.35
959.518
931.564
947.802
1193.98
1589
1803.9
1929.46
2037.75
2132.71
2215.06
2305.27
2423.41
2560.93
2692.59
2220.59
2384.12
2500.85
2477.81
2414.87
2311.98
2192.25
2092.81
1946.44
1782.52
1765.22
1933.82
2655.22
3070.27
3072.72
3001.88
2898.35
2830.74
2788.64
2777.48
2767.32
2677.77
2477.23
2160.58
1678.7
1168.28
959.779
931.548
947.787
1194
1588.94
1803.69
1929.23
2037.54
2132.62
2215.17
2305.55
2423.9
2561.69
2693.46
2173.78
2261.82
2402.72
2413.27
2376.69
2292.91
2169.24
2072.6
1925.57
1766.44
1752.8
1922.39
2629.88
3053.04
3056.83
2987.18
2886.89
2824.51
2787.6
2775.49
2783.03
2714.24
2506.04
2168.03
1678.9
1167.49
959.691
931.536
947.792
1194.04
1588.93
1803.6
1929.11
2037.46
2132.59
2215.23
2305.62
2423.86
2561.55
2693.27
2220.59
2384.12
2500.85
2477.81
2414.87
2311.98
2192.25
2092.81
1946.44
1782.52
1765.22
1933.82
2655.22
3070.27
3072.72
3001.88
2898.35
2830.74
2788.64
2777.48
2767.32
2677.77
2477.23
2160.58
1678.7
1168.28
959.779
931.548
947.787
1194
1588.94
1803.69
1929.23
2037.54
2132.62
2215.17
2305.55
2423.9
2561.69
2693.46
2449.04
2655.13
2673.9
2639.53
2577.03
2482.17
2351.91
2228.63
2063.4
1864.92
1841.99
2007.47
2747.92
3145.28
3137.61
3049.02
2932.07
2854.04
2807.77
2791.15
2775.8
2680.04
2474.09
2152.64
1670.58
1165.35
959.518
931.564
947.802
1193.98
1589
1803.9
1929.46
2037.75
2132.71
2215.06
2305.27
2423.41
2560.93
2692.59
3399.94
3229.17
3071.06
2950.94
2858.26
2736.52
2615.69
2499.64
2330.82
2104.5
2040.1
2205.14
2974.95
3305.41
3276.39
3143.81
3019.24
2973.99
2947.13
2911.15
2839.81
2690.71
2455.95
2130.39
1654.77
1157.16
958.438
931.635
947.848
1193.75
1589.2
1804.68
1930.28
2038.28
2132.8
2214.68
2304.4
2422.34
2559.39
2691.23
4049.84
3750.37
3445.92
3206.78
3036.18
2885.07
2774.93
2664.72
2515.19
2332.65
2284.94
2486.82
3242.36
3474.55
3409.65
3179.82
2955.6
2849.68
2800.75
2778.83
2747
2626.79
2403.75
2080.12
1604.37
1131.26
955.663
931.862
948.02
1193.22
1589.89
1806.83
1932.67
2040.17
2133.82
2214.52
2302.97
2420.01
2556.32
2688.53
4152.25
3990.63
3803.42
3589.4
3373.07
3175.53
3000.63
2821.69
2666.52
2487.97
2450.7
2759.78
3446.79
3589.32
3484.49
3178.28
2944.36
2842.84
2784.97
2755.2
2702.56
2565.11
2339.4
2010.71
1532.91
1097.32
952.726
932.521
948.595
1192.57
1590.67
1809.75
1936.14
2043.14
2135.84
2215.3
2302.42
2418.03
2553.64
2686.75
4156.09
3908.61
3703.35
3508.6
3305.63
3119.82
2932.84
2700
2600.61
2573.13
2608.34
2954.07
3393.33
3465.68
3345.2
3051.71
2886.58
2811.93
2752.43
2713.67
2638.65
2485.15
2254.01
1916.96
1443.51
1061.58
950.725
933.79
949.805
1192.63
1592.34
1813.76
1940.64
2047.01
2138.72
2217.13
2302.97
2416.73
2551.56
2685.5
4136.71
3924.85
3726.26
3529.81
3328.92
3154.47
2949.83
2718.06
2660.32
2686.29
2835.58
3185.16
3391.15
3393.55
3196.13
2933.52
2830.31
2754.61
2703.9
2659
2559.5
2388.37
2149
1801.39
1343.11
1028.73
949.508
934.982
950.706
1191.22
1591.47
1814.91
1942.2
2048.16
2139.43
2217.58
2302.63
2414.76
2549.16
2683.97
4085.55
3899.52
3716.95
3531.31
3350.02
3175.66
2958.84
2818.74
2793.35
2800.51
2906.27
3141.55
3260.21
3191.93
2938.83
2816.99
2758.87
2693.66
2652.71
2586.21
2458.15
2273.15
2025.74
1667.02
1240.46
1001.53
948.033
934.898
950.337
1189.12
1589.56
1814.3
1941.81
2047.32
2138.3
2216.43
2301.64
2412.78
2547.06
2682.74
4014.68
3840.49
3669.21
3490.19
3313.51
3146.31
2976.47
2866.64
2869.67
2901.39
2951.6
3048.01
3036.74
2850.36
2739.14
2719.46
2661.06
2622.73
2578.85
2483.73
2333.9
2140.69
1884.07
1520.52
1148.29
982.285
945.795
933.498
948.084
1183.75
1587.73
1819.76
1950.06
2053.38
2140.33
2215.22
2299.37
2410.37
2544.91
2681.32
3898.79
3730.85
3567.29
3402.15
3250.82
3108.35
2974.28
2888.28
2853.98
2836.09
2853.72
2846.52
2708.91
2609.13
2614.86
2582.5
2564.29
2542.44
2473.87
2352.07
2195.2
2005.73
1745.49
1385.72
1090.6
984.152
958.48
946.928
961.687
1201.91
1618.25
1860.22
1994.23
2095.13
2177.21
2242.26
2310.44
2411.36
2543.94
2680.26
3714.74
3562.18
3411.48
3256.06
3105.87
2967.23
2856.73
2782.24
2726.27
2693.97
2671.78
2567.07
2436.99
2446.03
2471.6
2490.58
2483.43
2443.14
2359.25
2248.39
2112.3
1933.13
1670.11
1322.01
1103.41
1047.37
1030.2
1022.57
1045.09
1336.34
1821.76
2084.45
2201.55
2258.59
2292.37
2315.48
2358.88
2435.99
2548.26
2678.51
3463.95
3323.02
3165.79
3002.58
2864.46
2764.45
2697.37
2637.27
2567.2
2495.07
2400.56
2289.86
2313.48
2379.47
2400.22
2401.85
2409.77
2393.46
2348.46
2283.94
2206.31
2054.86
1769.14
1498.67
1387.03
1361.36
1349.52
1347.46
1401.93
1802.68
2306.9
2531.22
2608.98
2610.52
2588.94
2538.56
2497.1
2508.11
2578.01
2678.05
3186.48
3043.59
2896.52
2767.53
2668.28
2591.5
2514.04
2416.64
2323.42
2251.96
2179.6
2172.86
2251.51
2315.24
2384.01
2467.47
2545.27
2609.09
2655.1
2651.23
2551.86
2321.17
2003.85
1795.39
1734.02
1713.38
1696.08
1692.92
1776.09
2199.87
2634.84
2815.83
2885.86
2885.87
2871.49
2817.48
2730.82
2666.31
2656.64
2677.09
2944.94
2782.33
2642.29
2525.24
2416.32
2301.01
2190.04
2152.31
2161.14
2178.85
2200.73
2263.43
2367.86
2547.54
2768.09
2959.38
3066.82
3090.79
3042.98
2915.1
2670.28
2334.54
2060.55
1952.92
1920.58
1898.94
1878.84
1877.07
1968.14
2365.75
2761.22
2921.3
2992.84
2996.71
3000.44
2976
2911.74
2837.24
2770.1
2684.73
2743.05
2606.77
2504.47
2448.07
2418.02
2418.46
2425.13
2410.91
2399.02
2461.38
2620.2
2847.49
3076.61
3248.63
3358.72
3392.83
3350.37
3237.89
3064.31
2838.2
2531.09
2240.19
2100.37
2059.96
2036.07
2015.2
1995.04
1996.59
2079.27
2427.96
2800.14
2965.06
3050.9
3065.48
3074.46
3054.95
2994.26
2917.54
2832.43
2684.98
2694.22
2697.05
2723
2791.21
2889.7
3015.79
3145.4
3264.5
3374.37
3438.64
3470.67
3514.05
3552.69
3552.47
3508.32
3410.65
3287.99
3142.74
2929.74
2641.64
2368.51
2221.84
2175.24
2153.85
2132.53
2111.89
2091.7
2094.79
2158.43
2440.09
2791.92
2969.91
3069.13
3089.9
3098.86
3082.93
3026.22
2934.98
2832.22
2662.85
2745.67
2864.47
3011.4
3155
3301.85
3451.73
3603.49
3758.67
3861.73
3875.76
3810.85
3712.75
3633.3
3546.18
3438.53
3306.21
3145.02
2949.07
2703.47
2459.99
2319.07
2266.8
2248.04
2230.7
2209.77
2189.71
2170.2
2171.7
2218.62
2431.91
2759.74
2956.89
3067.75
3093.25
3106.85
3094.5
3037.45
2932.14
2805.83
2632.26
2816.84
2950.23
3129.06
3270.15
3411.74
3544.92
3687.6
3850.31
3955.91
3968.95
3896.79
3748.13
3581.84
3427.16
3279.11
3126.01
2939.44
2714.52
2505.25
2383.83
2335.07
2318.83
2306.1
2290.1
2270.96
2253.78
2237.06
2233.36
2270.67
2410.23
2691.46
2911.67
3033.59
3065.69
3080.45
3080.38
3034.97
2933.76
2794.74
2623.66
2764.67
2886.15
3057.7
3197.65
3344.37
3484.24
3639.89
3817.27
3938.65
3951.35
3844.7
3633.75
3412.92
3230.19
3066.46
2891.74
2696.11
2527.08
2429.92
2390.52
2380.78
2376.24
2366.67
2353.35
2338.04
2325.49
2312.81
2306.4
2332.13
2412.3
2620.93
2841.68
2969.36
3008.3
3019.03
3024.98
2994.16
2905.09
2760.97
2605.25
2697.42
2766.01
2920.6
3049.27
3197.22
3331.97
3490.73
3650.64
3749.75
3741.52
3597.49
3362.52
3153.69
2993.97
2841.66
2684.88
2556.64
2483.3
2455.44
2454.38
2459.26
2458.86
2452.59
2442.94
2431.89
2423.38
2414.94
2409.63
2418.2
2468.33
2586.44
2771.73
2897.09
2928.99
2924.39
2926.92
2903.63
2839.94
2724.81
2561.38
2785.15
2636.85
2784.76
2873.01
2990.71
3109.63
3252.57
3384.39
3444.37
3398.88
3232
3040.69
2904.07
2800.33
2702.1
2617.29
2561.11
2539.69
2543.04
2553.76
2561.43
2563.3
2560.93
2556.49
2551.16
2547.17
2543.21
2540.75
2541.34
2560.49
2613.77
2724.17
2815.49
2836.27
2808.28
2795.77
2763.28
2726.57
2702.57
2513.48
5819.4
2676.33
2695.8
2710.38
2798.3
2878.34
2942.85
2950.6
2910.52
2815.85
2728.09
2677.83
2655.63
2637.4
2623.62
2622.32
2626.32
2633.85
2641.88
2649.62
2656.9
2663.01
2667.59
2670.94
2673.04
2675.07
2675.99
2676.92
2677.15
2678.42
2678.64
2681.36
2689.05
2675.12
2641.52
2629.64
2611.38
2569.93
2524.82
2594.38
5819.4
2676.33
2695.8
2710.38
2798.3
2878.34
2942.85
2950.6
2910.52
2815.85
2728.09
2677.83
2655.63
2637.4
2623.62
2622.32
2626.32
2633.85
2641.88
2649.62
2656.9
2663.01
2667.59
2670.94
2673.04
2675.07
2675.99
2676.92
2677.15
2678.42
2678.64
2681.36
2689.05
2675.12
2641.52
2629.64
2611.38
2569.93
2524.82
2594.38
2785.15
2636.85
2784.76
2873.01
2990.71
3109.63
3252.57
3384.39
3444.37
3398.88
3232
3040.69
2904.07
2800.33
2702.1
2617.29
2561.11
2539.69
2543.04
2553.76
2561.43
2563.3
2560.93
2556.49
2551.16
2547.17
2543.21
2540.75
2541.34
2560.49
2613.77
2724.17
2815.49
2836.27
2808.28
2795.77
2763.28
2726.57
2702.57
2513.48
2697.42
2766.01
2920.6
3049.27
3197.22
3331.97
3490.73
3650.64
3749.75
3741.52
3597.49
3362.52
3153.69
2993.97
2841.66
2684.88
2556.64
2483.3
2455.44
2454.38
2459.26
2458.86
2452.59
2442.94
2431.89
2423.38
2414.94
2409.63
2418.2
2468.33
2586.44
2771.73
2897.09
2928.99
2924.39
2926.92
2903.63
2839.94
2724.81
2561.38
2764.67
2886.15
3057.7
3197.65
3344.37
3484.24
3639.89
3817.27
3938.65
3951.35
3844.7
3633.75
3412.92
3230.19
3066.46
2891.74
2696.11
2527.08
2429.92
2390.52
2380.78
2376.24
2366.67
2353.35
2338.04
2325.49
2312.81
2306.4
2332.13
2412.3
2620.93
2841.68
2969.36
3008.3
3019.03
3024.98
2994.16
2905.09
2760.97
2605.25
2816.84
2950.23
3129.06
3270.15
3411.74
3544.92
3687.6
3850.31
3955.91
3968.95
3896.79
3748.13
3581.84
3427.16
3279.11
3126.01
2939.44
2714.52
2505.25
2383.83
2335.07
2318.83
2306.1
2290.1
2270.96
2253.78
2237.06
2233.36
2270.67
2410.23
2691.46
2911.67
3033.59
3065.69
3080.45
3080.38
3034.97
2933.76
2794.74
2623.66
2745.67
2864.47
3011.4
3155
3301.85
3451.73
3603.49
3758.67
3861.73
3875.76
3810.85
3712.75
3633.3
3546.18
3438.53
3306.21
3145.02
2949.07
2703.47
2459.99
2319.07
2266.8
2248.04
2230.7
2209.77
2189.71
2170.2
2171.7
2218.62
2431.91
2759.74
2956.89
3067.75
3093.25
3106.85
3094.5
3037.45
2932.14
2805.83
2632.26
2694.22
2697.05
2723
2791.21
2889.7
3015.79
3145.4
3264.5
3374.37
3438.64
3470.67
3514.05
3552.69
3552.47
3508.32
3410.65
3287.99
3142.74
2929.74
2641.64
2368.51
2221.84
2175.24
2153.85
2132.53
2111.89
2091.7
2094.79
2158.43
2440.09
2791.92
2969.91
3069.13
3089.9
3098.86
3082.93
3026.22
2934.98
2832.22
2662.85
2743.05
2606.77
2504.47
2448.07
2418.02
2418.46
2425.13
2410.91
2399.02
2461.38
2620.2
2847.49
3076.61
3248.63
3358.72
3392.83
3350.37
3237.89
3064.31
2838.2
2531.09
2240.19
2100.37
2059.96
2036.07
2015.2
1995.04
1996.59
2079.27
2427.96
2800.14
2965.06
3050.9
3065.48
3074.46
3054.95
2994.26
2917.54
2832.43
2684.98
2944.94
2782.33
2642.29
2525.24
2416.32
2301.01
2190.04
2152.31
2161.14
2178.85
2200.73
2263.43
2367.86
2547.54
2768.09
2959.38
3066.82
3090.79
3042.98
2915.1
2670.28
2334.54
2060.55
1952.92
1920.58
1898.94
1878.84
1877.07
1968.14
2365.75
2761.22
2921.3
2992.84
2996.71
3000.44
2976
2911.74
2837.24
2770.1
2684.73
3186.48
3043.59
2896.52
2767.53
2668.28
2591.5
2514.04
2416.64
2323.42
2251.96
2179.6
2172.86
2251.51
2315.24
2384.01
2467.47
2545.27
2609.09
2655.1
2651.23
2551.86
2321.17
2003.85
1795.39
1734.02
1713.38
1696.08
1692.92
1776.09
2199.87
2634.84
2815.83
2885.86
2885.87
2871.49
2817.48
2730.82
2666.31
2656.64
2677.09
3463.95
3323.02
3165.79
3002.58
2864.46
2764.45
2697.37
2637.27
2567.2
2495.07
2400.56
2289.86
2313.48
2379.47
2400.22
2401.85
2409.77
2393.46
2348.46
2283.94
2206.31
2054.86
1769.14
1498.67
1387.03
1361.36
1349.52
1347.46
1401.93
1802.68
2306.9
2531.22
2608.98
2610.52
2588.94
2538.56
2497.1
2508.11
2578.01
2678.05
3714.74
3562.18
3411.48
3256.06
3105.87
2967.23
2856.73
2782.24
2726.27
2693.97
2671.78
2567.07
2436.99
2446.03
2471.6
2490.58
2483.43
2443.14
2359.25
2248.39
2112.3
1933.13
1670.11
1322.01
1103.41
1047.37
1030.2
1022.57
1045.09
1336.34
1821.76
2084.45
2201.55
2258.59
2292.37
2315.48
2358.88
2435.99
2548.26
2678.51
3898.79
3730.85
3567.29
3402.15
3250.82
3108.35
2974.28
2888.28
2853.98
2836.09
2853.72
2846.52
2708.91
2609.13
2614.86
2582.5
2564.29
2542.44
2473.87
2352.07
2195.2
2005.73
1745.49
1385.72
1090.6
984.152
958.48
946.928
961.687
1201.91
1618.25
1860.22
1994.23
2095.13
2177.21
2242.26
2310.44
2411.36
2543.94
2680.26
4014.68
3840.49
3669.21
3490.19
3313.51
3146.31
2976.47
2866.64
2869.67
2901.39
2951.6
3048.01
3036.74
2850.36
2739.14
2719.46
2661.06
2622.73
2578.85
2483.73
2333.9
2140.69
1884.07
1520.52
1148.29
982.285
945.795
933.498
948.084
1183.75
1587.73
1819.76
1950.06
2053.38
2140.33
2215.22
2299.37
2410.37
2544.91
2681.32
4085.55
3899.52
3716.95
3531.31
3350.02
3175.66
2958.84
2818.74
2793.35
2800.51
2906.27
3141.55
3260.21
3191.93
2938.83
2816.99
2758.87
2693.66
2652.71
2586.21
2458.15
2273.15
2025.74
1667.02
1240.46
1001.53
948.033
934.898
950.337
1189.12
1589.56
1814.3
1941.81
2047.32
2138.3
2216.43
2301.64
2412.78
2547.06
2682.74
4136.71
3924.85
3726.26
3529.81
3328.92
3154.47
2949.83
2718.06
2660.32
2686.29
2835.58
3185.16
3391.15
3393.55
3196.13
2933.52
2830.31
2754.61
2703.9
2659
2559.5
2388.37
2149
1801.39
1343.11
1028.73
949.508
934.982
950.706
1191.22
1591.47
1814.91
1942.2
2048.16
2139.43
2217.58
2302.63
2414.76
2549.16
2683.97
4156.09
3908.61
3703.35
3508.6
3305.63
3119.82
2932.84
2700
2600.61
2573.13
2608.34
2954.07
3393.33
3465.68
3345.2
3051.71
2886.58
2811.93
2752.43
2713.67
2638.65
2485.15
2254.01
1916.96
1443.51
1061.58
950.725
933.79
949.805
1192.63
1592.34
1813.76
1940.64
2047.01
2138.72
2217.13
2302.97
2416.73
2551.56
2685.5
4152.25
3990.63
3803.42
3589.4
3373.07
3175.53
3000.63
2821.69
2666.52
2487.97
2450.7
2759.78
3446.79
3589.32
3484.49
3178.28
2944.36
2842.84
2784.97
2755.2
2702.56
2565.11
2339.4
2010.71
1532.91
1097.32
952.726
932.521
948.595
1192.57
1590.67
1809.75
1936.14
2043.14
2135.84
2215.3
2302.42
2418.03
2553.64
2686.75
4049.84
3750.37
3445.92
3206.78
3036.18
2885.07
2774.93
2664.72
2515.19
2332.65
2284.94
2486.82
3242.36
3474.55
3409.65
3179.82
2955.6
2849.68
2800.75
2778.83
2747
2626.79
2403.75
2080.12
1604.37
1131.26
955.663
931.862
948.02
1193.22
1589.89
1806.83
1932.67
2040.17
2133.82
2214.52
2302.97
2420.01
2556.32
2688.53
3399.94
3229.17
3071.06
2950.94
2858.26
2736.52
2615.69
2499.64
2330.82
2104.5
2040.1
2205.14
2974.95
3305.41
3276.39
3143.81
3019.24
2973.99
2947.13
2911.15
2839.81
2690.71
2455.95
2130.39
1654.77
1157.16
958.438
931.635
947.848
1193.75
1589.2
1804.68
1930.28
2038.28
2132.8
2214.68
2304.4
2422.34
2559.39
2691.23
)
;

boundaryField
{
    inlet
    {
        type            calculated;
        value           uniform 14000.1;
    }
    outlet
    {
        type            calculated;
        value           nonuniform List<scalar> 
165
(
3470.43
4180.73
4262.44
4285.65
4238.13
4176.84
4100.51
3983.71
3793.1
3537.46
3254.49
2990.08
2791.75
2640.54
2565.34
2567.07
2590.95
2618.7
2831.32
3691.05
3691.05
3047.19
2703.74
2672.59
2643.29
2601.72
2548.09
2508.21
2486.74
2504.03
2550.71
2596.25
2630.24
2658.25
2681.87
2698.3
2708.9
2714.2
2717.85
2721.91
2727.36
2734.24
2741.37
2747.21
2751.37
2753.98
2755.73
2756.35
2756.15
2753.01
2742.66
2715.01
2669.65
2621.46
2599.02
2587.11
2596.69
2626.63
2742.74
3095.71
2769.49
2769
2768.12
2766.64
2764.95
2763.45
2761.98
2760.08
2757.42
2750.28
2733.15
2697.64
2647.38
2606.67
2590.46
2583.02
2594.28
2626.16
2746.36
3095.71
2770.44
2770.73
2771.04
2770.73
2770.44
3095.71
2746.36
2626.16
2594.28
2583.02
2590.46
2606.67
2647.38
2697.64
2733.15
2750.28
2757.42
2760.08
2761.98
2763.45
2764.95
2766.64
2768.12
2769
2769.49
3691.05
3047.19
2703.74
2672.59
2643.29
2601.72
2548.09
2508.21
2486.74
2504.03
2550.71
2596.25
2630.24
2658.25
2681.87
2698.3
2708.9
2714.2
2717.85
2721.91
2727.36
2734.24
2741.37
2747.21
2751.37
2753.98
2755.73
2756.35
2756.15
2753.01
2742.66
2715.01
2669.65
2621.46
2599.02
2587.11
2596.69
2626.63
2742.74
3095.71
3691.05
2831.32
2618.7
2590.95
2567.07
2565.34
2640.54
2791.75
2990.08
3254.49
3537.46
3793.1
3983.71
4100.51
4176.84
4238.13
4285.65
4262.44
4180.73
3470.43
)
;
    }
    obstacle
    {
        type            calculated;
        value           nonuniform List<scalar> 
40
(
14543.7
11692.8
12224.1
12615.9
12680
12634.5
12555.3
12450.6
12385.5
12360.6
14543.7
11692.8
12224.1
12615.9
12680
12634.5
12555.3
12450.6
12385.5
12360.6
12503.9
12354
12244.7
11911
11799.2
12503.9
12354
12244.7
11911
11799.2
6217.16
4214.9
3253.56
2733.04
2182.95
6217.16
4214.9
3253.56
2733.04
2182.95
)
;
    }
    empty
    {
        type            empty;
    }
}


// ************************************************************************* //
