/*--------------------------------*- C++ -*----------------------------------*\
| =========                 |                                                 |
| \\      /  F ield         | OpenFOAM: The Open Source CFD Toolbox           |
|  \\    /   O peration     | Version:  v1912                                 |
|   \\  /    A nd           | Website:  www.openfoam.com                      |
|    \\/     M anipulation  |                                                 |
\*---------------------------------------------------------------------------*/
FoamFile
{
    version     2.0;
    format      ascii;
    class       volVectorField;
    location    "6.78";
    object      grad(T);
}
// * * * * * * * * * * * * * * * * * * * * * * * * * * * * * * * * * * * * * //

dimensions      [0 -1 0 1 0 0 0];


internalField   nonuniform List<vector> 
1900
(
(0.818335 -1.19888e-06 0)
(-1.54513 -4.866e-06 0)
(-0.0718541 3.70952e-06 0)
(0.0840702 1.04038e-05 0)
(0.119896 4.00436e-05 0)
(0.108395 -1.33236e-05 0)
(0.0619064 -9.56795e-05 0)
(0.0200389 -0.000138269 0)
(-0.000602637 0.00141365 0)
(0.0176489 4.95143e-05 0)
(0.818329 -1.54905e-06 0)
(-1.54512 -4.27653e-06 0)
(-0.0718389 1.12226e-05 0)
(0.0841066 2.41406e-05 0)
(0.119872 7.86414e-05 0)
(0.10826 3.01443e-06 0)
(0.0617815 -0.000183977 0)
(0.0215483 -0.000607836 0)
(-0.000414853 4.58245e-05 0)
(-0.0109256 -0.00112252 0)
(0.818329 -4.33681e-14 0)
(-1.54511 -5.10659e-13 0)
(-0.0718257 -5.86553e-13 0)
(0.0841376 -3.49113e-13 0)
(0.119875 -1.02999e-13 0)
(0.108133 1.73472e-13 0)
(0.0612956 3.11166e-13 0)
(0.0202687 -1.30104e-13 0)
(-0.00111732 -5.10659e-13 0)
(-0.0140229 -6.25585e-13 0)
(0.818329 1.54905e-06 0)
(-1.54512 4.27653e-06 0)
(-0.0718389 -1.12226e-05 0)
(0.0841066 -2.41406e-05 0)
(0.119872 -7.86414e-05 0)
(0.10826 -3.01443e-06 0)
(0.0617815 0.000183977 0)
(0.0215483 0.000607836 0)
(-0.000414853 -4.58245e-05 0)
(-0.0109256 0.00112252 0)
(0.818335 1.19888e-06 0)
(-1.54513 4.866e-06 0)
(-0.0718541 -3.70952e-06 0)
(0.0840702 -1.04038e-05 0)
(0.119896 -4.00436e-05 0)
(0.108395 1.33236e-05 0)
(0.0619064 9.56795e-05 0)
(0.0200389 0.000138269 0)
(-0.000602637 -0.00141365 0)
(0.0176489 -4.95143e-05 0)
(-0.0034725 -0.0233501 9.47309e-16)
(-0.00818757 -0.0195608 -1.13722e-15)
(0.103472 -0.0304266 -1.44443e-15)
(0.394081 -0.0581864 0)
(-0.513761 -0.320298 -6.51278e-15)
(-0.0212529 -0.0274565 9.4309e-16)
(-0.00109909 -0.0236842 1.13722e-15)
(0.0872767 -0.0388594 1.44443e-15)
(0.286719 -0.0630904 0)
(-0.44871 -0.354255 0)
(-0.0325095 -7.56192e-13 0)
(-0.0102119 -8.91614e-13 0)
(0.0771516 -8.67362e-13 0)
(0.258693 -5.74956e-13 0)
(-0.577799 7.09894e-14 0)
(-0.0212529 0.0274565 9.4309e-16)
(-0.00109909 0.0236842 1.13722e-15)
(0.0872767 0.0388594 1.44443e-15)
(0.286719 0.0630904 0)
(-0.44871 0.354255 0)
(-0.0034725 0.0233501 -2.83349e-15)
(-0.00818757 0.0195608 -1.13722e-15)
(0.103472 0.0304266 -1.44443e-15)
(0.394081 0.0581864 -3.98166e-15)
(-0.513761 0.320298 6.51278e-15)
(-1.88611 0.452877 2.20383e-15)
(-0.9491 0.318248 -1.59559e-15)
(-0.585963 0.209911 0)
(-0.461378 0.198596 1.02629e-15)
(-0.320036 0.110192 -4.25482e-16)
(-1.68221 0.451103 -1.10873e-15)
(-0.992429 0.208846 8.02585e-16)
(-0.604023 0.104429 0)
(-0.487714 0.127561 -6.46128e-16)
(-0.361438 0.00439159 1.07233e-16)
(-1.73472 -9.30881e-14 0)
(-1.04939 1.01934e-13 0)
(-0.615065 -4.57774e-13 0)
(-0.513067 7.26345e-13 2.59988e-16)
(-0.360035 1.41073e-13 -2.14466e-16)
(-1.68221 -0.451103 -1.10873e-15)
(-0.992429 -0.208846 8.02585e-16)
(-0.604023 -0.104429 0)
(-0.487714 -0.127561 -6.46128e-16)
(-0.361438 -0.00439159 1.07233e-16)
(-1.88611 -0.452877 1.10873e-15)
(-0.9491 -0.318248 -9.58457e-18)
(-0.585963 -0.209911 0)
(-0.461378 -0.198596 5.98105e-18)
(-0.320036 -0.110192 4.25482e-16)
(-0.191747 0.232637 0)
(-0.172111 0.180233 0)
(-0.138674 0.0876329 0)
(-0.017119 0.0221855 0)
(0.347158 -0.0147422 0)
(0.606955 0.137911 0)
(0.257348 0.169871 0)
(-0.116241 0.114289 0)
(-0.167386 0.0687394 0)
(-0.155592 0.0444815 0)
(-0.134204 0.0435792 0)
(-0.12617 0.0317649 0)
(-0.161158 0.0225762 0)
(-0.21498 0.017992 0)
(-0.218643 0.0130787 0)
(-0.144808 0.00565687 0)
(-0.0715347 0.00127461 0)
(-0.0448598 0.000586919 0)
(-0.0386192 0.000892178 0)
(-0.0348318 0.000857463 0)
(-0.0279065 0.000264406 0)
(-0.0182828 -0.000139182 0)
(-0.0100432 -0.000251772 0)
(-0.00515572 -0.000236917 0)
(-0.00273402 -0.000198684 0)
(-0.00147837 -0.000169002 0)
(-0.000295211 -0.000157691 0)
(0.00111936 -0.000149639 0)
(0.00253276 -0.0001364 0)
(0.00384499 -0.000120262 0)
(0.0063597 -0.000123351 0)
(0.00943664 -3.33762e-05 0)
(0.0131821 -2.59645e-05 0)
(0.0177686 0.000179634 0)
(0.0387213 -4.66371e-05 0)
(0.127554 -0.000279022 0)
(0.251004 -0.000587799 0)
(0.302235 0.00170822 0)
(0.180008 0.00177098 0)
(0.0300769 0.000275671 0)
(-0.186097 0.049943 0)
(-0.154789 0.170659 0)
(-0.164643 0.190345 0)
(-0.046757 0.0666318 0)
(0.363908 0.0336099 0)
(0.612622 0.0932453 0)
(0.229917 0.0823524 0)
(-0.131855 0.0180659 0)
(-0.16847 0.00415234 0)
(-0.14818 0.0130204 0)
(-0.128695 0.0198404 0)
(-0.128953 0.0131466 0)
(-0.164787 0.0089345 0)
(-0.217424 0.00842371 0)
(-0.220434 0.00649873 0)
(-0.145919 0.00250861 0)
(-0.0719299 0.000439979 0)
(-0.0448653 0.000277204 0)
(-0.0386092 0.000429486 0)
(-0.0348955 0.000313139 0)
(-0.0279883 0.000106726 0)
(-0.0183271 -6.85949e-05 0)
(-0.0100511 -0.000114013 0)
(-0.00515056 -0.000104928 0)
(-0.00272772 -8.82241e-05 0)
(-0.00147466 -7.64611e-05 0)
(-0.000293649 -7.33581e-05 0)
(0.00112103 -7.23224e-05 0)
(0.00253527 -6.84648e-05 0)
(0.00384554 -6.38026e-05 0)
(0.00636642 -6.89803e-05 0)
(0.00944351 -3.68458e-05 0)
(0.0132037 -3.87687e-05 0)
(0.0177642 6.46668e-05 0)
(0.038672 -7.55023e-05 0)
(0.127478 -0.000154988 0)
(0.251205 -0.000436363 0)
(0.302491 0.000734248 0)
(0.179877 0.000773045 0)
(0.029945 0.000567575 0)
(-0.140422 -3.7612e-12 0)
(-0.131267 -2.52915e-12 0)
(-0.168936 -2.70459e-12 0)
(-0.0627148 3.5483e-13 0)
(0.3549 4.69755e-12 0)
(0.621134 -1.65863e-11 0)
(0.235477 -9.08167e-12 0)
(-0.13899 1.25984e-11 0)
(-0.168854 -2.9096e-12 0)
(-0.151028 -1.71974e-11 0)
(-0.134168 -1.47925e-11 0)
(-0.129343 -2.61588e-12 0)
(-0.162531 -1.00338e-12 0)
(-0.215689 -2.3675e-12 0)
(-0.220364 -6.59786e-12 0)
(-0.14657 -6.03211e-12 0)
(-0.0721838 8.69333e-13 0)
(-0.0448628 -8.27936e-14 0)
(-0.0386088 -1.09603e-12 0)
(-0.0349257 -1.58491e-12 0)
(-0.0280176 -8.0231e-13 0)
(-0.018347 -1.87271e-13 0)
(-0.0100538 -5.30273e-13 0)
(-0.00514822 -6.05182e-13 0)
(-0.00272574 -6.24895e-13 0)
(-0.00147404 -7.0966e-13 0)
(-0.000294007 -6.56435e-13 0)
(0.00112078 -8.67362e-14 0)
(0.00253524 -2.34582e-13 0)
(0.00384484 -1.06843e-12 0)
(0.00636754 -2.22557e-12 0)
(0.00944543 -3.87159e-12 0)
(0.0132116 -3.7474e-12 0)
(0.0177579 -3.79471e-12 0)
(0.0386574 -1.81752e-12 0)
(0.127449 -3.61335e-12 0)
(0.251262 6.49536e-12 0)
(0.302587 6.08336e-12 0)
(0.17996 6.32583e-12 0)
(0.0300171 2.39313e-12 0)
(-0.186097 -0.049943 0)
(-0.154789 -0.170659 0)
(-0.164643 -0.190345 0)
(-0.046757 -0.0666318 0)
(0.363908 -0.0336099 0)
(0.612622 -0.0932453 0)
(0.229917 -0.0823524 0)
(-0.131855 -0.0180659 0)
(-0.16847 -0.00415234 0)
(-0.14818 -0.0130204 0)
(-0.128695 -0.0198404 0)
(-0.128953 -0.0131466 0)
(-0.164787 -0.0089345 0)
(-0.217424 -0.00842371 0)
(-0.220434 -0.00649873 0)
(-0.145919 -0.00250861 0)
(-0.0719299 -0.000439979 0)
(-0.0448653 -0.000277204 0)
(-0.0386092 -0.000429486 0)
(-0.0348955 -0.000313139 0)
(-0.0279883 -0.000106726 0)
(-0.0183271 6.85949e-05 0)
(-0.0100511 0.000114013 0)
(-0.00515056 0.000104928 0)
(-0.00272772 8.82241e-05 0)
(-0.00147466 7.64611e-05 0)
(-0.000293649 7.33581e-05 0)
(0.00112103 7.23224e-05 0)
(0.00253527 6.84648e-05 0)
(0.00384554 6.38026e-05 0)
(0.00636642 6.89803e-05 0)
(0.00944351 3.68458e-05 0)
(0.0132037 3.87687e-05 0)
(0.0177642 -6.46668e-05 0)
(0.038672 7.55023e-05 0)
(0.127478 0.000154988 0)
(0.251205 0.000436363 0)
(0.302491 -0.000734248 0)
(0.179877 -0.000773045 0)
(0.029945 -0.000567575 0)
(-0.191747 -0.232637 0)
(-0.172111 -0.180233 0)
(-0.138674 -0.0876329 0)
(-0.017119 -0.0221855 0)
(0.347158 0.0147422 0)
(0.606955 -0.137911 0)
(0.257348 -0.169871 0)
(-0.116241 -0.114289 0)
(-0.167386 -0.0687394 0)
(-0.155592 -0.0444815 0)
(-0.134204 -0.0435792 0)
(-0.12617 -0.0317649 0)
(-0.161158 -0.0225762 0)
(-0.21498 -0.017992 0)
(-0.218643 -0.0130787 0)
(-0.144808 -0.00565687 0)
(-0.0715347 -0.00127461 0)
(-0.0448598 -0.000586919 0)
(-0.0386192 -0.000892178 0)
(-0.0348318 -0.000857463 0)
(-0.0279065 -0.000264406 0)
(-0.0182828 0.000139182 0)
(-0.0100432 0.000251772 0)
(-0.00515572 0.000236917 0)
(-0.00273402 0.000198684 0)
(-0.00147837 0.000169002 0)
(-0.000295211 0.000157691 0)
(0.00111936 0.000149639 0)
(0.00253276 0.0001364 0)
(0.00384499 0.000120262 0)
(0.0063597 0.000123351 0)
(0.00943664 3.33762e-05 0)
(0.0131821 2.59645e-05 0)
(0.0177686 -0.000179634 0)
(0.0387213 4.6637e-05 0)
(0.127554 0.000279022 0)
(0.251004 0.000587799 0)
(0.302235 -0.00170822 0)
(0.180008 -0.00177098 0)
(0.0300769 -0.000275671 0)
(-0.00861745 -0.267705 0)
(-0.0438021 -0.145803 0)
(-0.0955303 -0.00132308 0)
(-0.0168089 0.074679 0)
(0.310685 0.141966 0)
(0.503372 -0.0213945 0)
(0.213017 -0.211219 0)
(-0.0864711 -0.192191 0)
(-0.125935 -0.138182 0)
(-0.123828 -0.0977079 0)
(-0.114348 -0.0590701 0)
(-0.118996 -0.0392305 0)
(-0.160345 -0.0329167 0)
(-0.214293 -0.030704 0)
(-0.214767 -0.0248383 0)
(-0.1398 -0.0106809 0)
(-0.0692067 -0.00251911 0)
(-0.0446318 -0.0011197 0)
(-0.0387674 -0.00156979 0)
(-0.0345755 -0.00149589 0)
(-0.0274576 -0.000531401 0)
(-0.0180546 0.000200783 0)
(-0.00999893 0.000447885 0)
(-0.00517789 0.000438826 0)
(-0.00276303 0.000372786 0)
(-0.00149608 0.000319703 0)
(-0.000303989 0.000298747 0)
(0.0011096 0.000284269 0)
(0.00251974 0.000259612 0)
(0.00383798 0.000235972 0)
(0.00631969 0.000231765 0)
(0.00939037 9.23418e-05 0)
(0.0130951 1.96385e-05 0)
(0.0177721 -0.000256776 0)
(0.0389026 2.42174e-05 0)
(0.127731 0.000437211 0)
(0.250192 0.000821669 0)
(0.301306 -0.00184118 0)
(0.180624 -0.00223229 0)
(0.0307305 -0.000612704 0)
(0.00264198 -0.100931 0)
(0.0157811 -0.0816717 0)
(0.0506558 0.000628884 0)
(0.120794 0.132214 0)
(0.274136 0.205145 0)
(0.322157 0.0602501 0)
(0.116534 -0.158577 0)
(-0.0618226 -0.162253 0)
(-0.0985657 -0.143225 0)
(-0.0963894 -0.111544 0)
(-0.0885013 -0.0745721 0)
(-0.104815 -0.0580386 0)
(-0.153377 -0.0528528 0)
(-0.207564 -0.0511376 0)
(-0.201427 -0.0389428 0)
(-0.125986 -0.0150224 0)
(-0.0635696 -0.00364046 0)
(-0.0440672 -0.0019802 0)
(-0.0389023 -0.00229858 0)
(-0.0339686 -0.00191492 0)
(-0.0265123 -0.000708099 0)
(-0.0174615 0.00033499 0)
(-0.00983753 0.000770434 0)
(-0.0052162 0.000803096 0)
(-0.00283326 0.000717216 0)
(-0.00154021 0.000637327 0)
(-0.00032465 0.000600783 0)
(0.00108688 0.000571605 0)
(0.0024932 0.000531291 0)
(0.00382192 0.000498034 0)
(0.00624275 0.000489091 0)
(0.00925704 0.000310687 0)
(0.0128923 0.000144518 0)
(0.0177712 -0.000221068 0)
(0.0392928 0.000124779 0)
(0.128227 0.000716344 0)
(0.249243 0.00139695 0)
(0.299791 -0.00126189 0)
(0.180862 -0.00217016 0)
(0.0312871 -0.000928781 0)
(0.00994185 0.0590966 0)
(0.054065 0.0809356 0)
(0.110577 0.128414 0)
(0.18027 0.1817 0)
(0.241338 0.191325 0)
(0.152877 0.0183413 0)
(-0.00139585 -0.145113 0)
(-0.071678 -0.1701 0)
(-0.0770697 -0.133835 0)
(-0.0576716 -0.0988834 0)
(-0.0627881 -0.0734921 0)
(-0.0980665 -0.0667652 0)
(-0.153695 -0.0681831 0)
(-0.200889 -0.0691209 0)
(-0.179965 -0.0482868 0)
(-0.105782 -0.0165893 0)
(-0.0566387 -0.00448162 0)
(-0.0433387 -0.00292166 0)
(-0.0387045 -0.00288583 0)
(-0.0330428 -0.00209975 0)
(-0.0252895 -0.000617997 0)
(-0.0166298 0.000653275 0)
(-0.00954785 0.00125137 0)
(-0.00522917 0.00134211 0)
(-0.00292277 0.00125029 0)
(-0.00160828 0.00114623 0)
(-0.000367321 0.00108689 0)
(0.00104264 0.0010286 0)
(0.00244884 0.000966487 0)
(0.00379731 0.000915718 0)
(0.00613915 0.000899155 0)
(0.00905832 0.000682113 0)
(0.0125827 0.000429375 0)
(0.0177531 -4.5527e-05 0)
(0.0398059 0.000366237 0)
(0.128957 0.00107609 0)
(0.248286 0.00202028 0)
(0.297869 -0.000957378 0)
(0.180945 -0.00220508 0)
(0.0319268 -0.000706622 0)
(0.0236868 0.106674 0)
(0.0825781 0.13548 0)
(0.147756 0.140499 0)
(0.181417 0.125019 0)
(0.116718 0.0500182 0)
(-0.00204706 -0.0961825 0)
(-0.0650554 -0.153793 0)
(-0.0509544 -0.145774 0)
(-0.0299386 -0.106877 0)
(-0.038241 -0.082081 0)
(-0.0575511 -0.0760794 0)
(-0.0996987 -0.0783508 0)
(-0.155647 -0.0837513 0)
(-0.188392 -0.080831 0)
(-0.150805 -0.0481646 0)
(-0.0837734 -0.0152033 0)
(-0.050399 -0.00524921 0)
(-0.0425295 -0.00383948 0)
(-0.0381103 -0.00329102 0)
(-0.0317832 -0.0020242 0)
(-0.0238593 -0.000275528 0)
(-0.0156601 0.00116141 0)
(-0.00917375 0.00185852 0)
(-0.00521725 0.00199273 0)
(-0.00302201 0.00190127 0)
(-0.00169766 0.00177884 0)
(-0.000438009 0.00169063 0)
(0.000970855 0.00159182 0)
(0.00238442 0.00150372 0)
(0.00375704 0.00142787 0)
(0.00601764 0.00138798 0)
(0.00880435 0.00114453 0)
(0.0121912 0.000807208 0)
(0.0177103 0.000279826 0)
(0.0403736 0.00068361 0)
(0.129821 0.00144519 0)
(0.247284 0.00232097 0)
(0.295719 -0.000890395 0)
(0.181104 -0.00253759 0)
(0.0327311 -0.000817375 0)
(0.0376999 0.120596 0)
(0.0866596 0.135885 0)
(0.100497 0.0877486 0)
(0.0930793 0.0159638 0)
(0.0281798 -0.0859509 0)
(-0.0435221 -0.145575 0)
(-0.0491842 -0.144668 0)
(-0.0264682 -0.104624 0)
(-0.0156926 -0.0927249 0)
(-0.0279942 -0.0817545 0)
(-0.0591935 -0.0828227 0)
(-0.105459 -0.0889558 0)
(-0.156085 -0.0959794 0)
(-0.166596 -0.0825597 0)
(-0.116723 -0.0403271 0)
(-0.0644267 -0.012657 0)
(-0.0456882 -0.00573071 0)
(-0.0414518 -0.00442958 0)
(-0.0369552 -0.00331216 0)
(-0.030137 -0.00159138 0)
(-0.0222198 0.000365114 0)
(-0.0145734 0.00191029 0)
(-0.00874677 0.00265121 0)
(-0.00518798 0.00280967 0)
(-0.00312888 0.00272 0)
(-0.00181126 0.00258415 0)
(-0.000547544 0.00246253 0)
(0.000862521 0.00232244 0)
(0.00229086 0.00221559 0)
(0.00368578 0.00211325 0)
(0.00586611 0.00204484 0)
(0.00849867 0.00178932 0)
(0.0117495 0.00141853 0)
(0.017634 0.000872352 0)
(0.0409289 0.00134991 0)
(0.130534 0.00209168 0)
(0.246035 0.00298911 0)
(0.293187 -0.000194298 0)
(0.181015 -0.00244316 0)
(0.0335844 -0.00103256 0)
(0.0384192 0.148936 0)
(0.0509248 0.112479 0)
(0.0321956 0.0289796 0)
(0.0140335 -0.052673 0)
(-0.0389472 -0.140678 0)
(-0.0586295 -0.145879 0)
(-0.025593 -0.115252 0)
(-0.000899628 -0.0906843 0)
(-0.00790087 -0.0835377 0)
(-0.0286989 -0.083745 0)
(-0.0644906 -0.0894463 0)
(-0.112377 -0.0981772 0)
(-0.149483 -0.100676 0)
(-0.134763 -0.071713 0)
(-0.0834444 -0.0296192 0)
(-0.050435 -0.0108332 0)
(-0.0424708 -0.006355 0)
(-0.0401989 -0.00492793 0)
(-0.0353753 -0.00313583 0)
(-0.0282397 -0.000977845 0)
(-0.020485 0.00114503 0)
(-0.0134572 0.00271105 0)
(-0.00830707 0.00345956 0)
(-0.00515096 0.00363214 0)
(-0.00323933 0.00354742 0)
(-0.00194576 0.00339971 0)
(-0.0006902 0.0032375 0)
(0.000732888 0.00307057 0)
(0.00218284 0.00295249 0)
(0.0035925 0.00282109 0)
(0.00570548 0.00271942 0)
(0.00820081 0.00246125 0)
(0.0113075 0.00210284 0)
(0.0176442 0.00159493 0)
(0.0415486 0.00203152 0)
(0.131401 0.00268574 0)
(0.245081 0.00309803 0)
(0.290485 0.000307972 0)
(0.180296 -0.00224717 0)
(0.0340904 -0.00118105 0)
(0.00256899 0.109452 0)
(-0.0289343 0.0255799 0)
(-0.0586493 -0.0492971 0)
(-0.0704088 -0.119119 0)
(-0.0616369 -0.143508 0)
(-0.0190207 -0.11709 0)
(0.00400346 -0.0861352 0)
(0.00409276 -0.0801184 0)
(-0.00900566 -0.0807093 0)
(-0.0336879 -0.0856683 0)
(-0.0731009 -0.0955352 0)
(-0.116281 -0.104173 0)
(-0.130583 -0.0933105 0)
(-0.0981228 -0.0529574 0)
(-0.0580574 -0.0208373 0)
(-0.0420085 -0.00970538 0)
(-0.0399976 -0.00673059 0)
(-0.0383496 -0.0049787 0)
(-0.0331488 -0.00263116 0)
(-0.0260118 -9.40649e-05 0)
(-0.018665 0.00214787 0)
(-0.012343 0.00367828 0)
(-0.00785917 0.00439751 0)
(-0.00510331 0.00456758 0)
(-0.00335285 0.00448012 0)
(-0.00210991 0.0043114 0)
(-0.000864708 0.00413184 0)
(0.000587877 0.00396566 0)
(0.00205045 0.00381155 0)
(0.00346119 0.00364675 0)
(0.00551935 0.00351369 0)
(0.00790451 0.0032563 0)
(0.0109146 0.00292963 0)
(0.0175652 0.00251824 0)
(0.0419801 0.00291116 0)
(0.131562 0.00350317 0)
(0.243744 0.00334925 0)
(0.288036 0.000807833 0)
(0.17958 -0.0018673 0)
(0.0346118 -0.000780927 0)
(-0.0424032 0.0339169 0)
(-0.102052 -0.0408404 0)
(-0.107242 -0.0884475 0)
(-0.0767518 -0.113621 0)
(-0.0369914 -0.0982505 0)
(-0.00334279 -0.0846454 0)
(0.0100338 -0.0763938 0)
(0.00432896 -0.0764994 0)
(-0.0132489 -0.079088 0)
(-0.0429857 -0.0883005 0)
(-0.0823222 -0.099807 0)
(-0.110233 -0.100556 0)
(-0.10013 -0.0731316 0)
(-0.0649251 -0.03508 0)
(-0.0417652 -0.0153982 0)
(-0.0368413 -0.00906262 0)
(-0.037916 -0.0068771 0)
(-0.0362485 -0.00464869 0)
(-0.0306683 -0.00188433 0)
(-0.0236344 0.000763982 0)
(-0.0168498 0.00302266 0)
(-0.0112893 0.0044954 0)
(-0.00745011 0.00518155 0)
(-0.00507136 0.00535665 0)
(-0.00348619 0.00528392 0)
(-0.00228138 0.00512792 0)
(-0.00102337 0.00498591 0)
(0.000424242 0.00484499 0)
(0.00187553 0.00466416 0)
(0.00330547 0.00449423 0)
(0.00532922 0.00435928 0)
(0.00763799 0.00413836 0)
(0.0105963 0.00388441 0)
(0.0176264 0.00364159 0)
(0.0424977 0.0040743 0)
(0.131823 0.00451853 0)
(0.242483 0.00402662 0)
(0.285458 0.00164852 0)
(0.178765 -0.00100804 0)
(0.0351372 -8.1459e-05 0)
(-0.0694698 0.0198726 0)
(-0.146849 -0.0262271 0)
(-0.128783 -0.0615508 0)
(-0.0798553 -0.078421 0)
(-0.0337149 -0.0806276 0)
(0.0020412 -0.0726811 0)
(0.0118533 -0.0689217 0)
(0.00149646 -0.0732342 0)
(-0.0203776 -0.0794555 0)
(-0.0536534 -0.090919 0)
(-0.0849104 -0.0974179 0)
(-0.0905759 -0.0829923 0)
(-0.0674887 -0.0487013 0)
(-0.0424888 -0.0227166 0)
(-0.0329861 -0.0118105 0)
(-0.0337972 -0.00833784 0)
(-0.0357442 -0.00654911 0)
(-0.0335384 -0.0039511 0)
(-0.0279329 -0.000807199 0)
(-0.0212833 0.00190596 0)
(-0.0150693 0.00410567 0)
(-0.0102626 0.00547288 0)
(-0.00702924 0.00610105 0)
(-0.00500467 0.00626859 0)
(-0.00357327 0.00621458 0)
(-0.00239708 0.0060907 0)
(-0.00113735 0.0059791 0)
(0.000277824 0.00584081 0)
(0.00171245 0.00565216 0)
(0.00316739 0.00548833 0)
(0.00517642 0.00536323 0)
(0.00744691 0.00518412 0)
(0.0104359 0.00501312 0)
(0.0177482 0.00496014 0)
(0.0428251 0.00532197 0)
(0.131516 0.00567006 0)
(0.240978 0.00483988 0)
(0.283184 0.00211285 0)
(0.177913 -0.000492704 0)
(0.0355047 0.00061279 0)
(-0.0868265 0.0129637 0)
(-0.180514 -0.0101582 0)
(-0.157538 -0.039956 0)
(-0.0951348 -0.0648681 0)
(-0.0314602 -0.070005 0)
(0.00793741 -0.0602392 0)
(0.00950082 -0.0621777 0)
(-0.00582181 -0.0700013 0)
(-0.0302906 -0.080342 0)
(-0.0602949 -0.0890302 0)
(-0.0746838 -0.0832969 0)
(-0.063288 -0.0571157 0)
(-0.0420463 -0.02971 0)
(-0.0293758 -0.0151665 0)
(-0.0279093 -0.00938677 0)
(-0.0317712 -0.00738883 0)
(-0.0336888 -0.00552651 0)
(-0.0307154 -0.0026757 0)
(-0.0250242 0.000498788 0)
(-0.0189002 0.0032856 0)
(-0.0134126 0.0053772 0)
(-0.0093665 0.0066353 0)
(-0.00668333 0.00721657 0)
(-0.00496195 0.00739604 0)
(-0.00365762 0.00738513 0)
(-0.0025083 0.00730776 0)
(-0.00126417 0.00721862 0)
(0.000109199 0.00708013 0)
(0.00153586 0.00688999 0)
(0.00302705 0.00674305 0)
(0.00503608 0.00663539 0)
(0.00730061 0.0065053 0)
(0.0103805 0.00641038 0)
(0.017924 0.00649303 0)
(0.0431818 0.00681252 0)
(0.131358 0.00709726 0)
(0.239056 0.00593899 0)
(0.280319 0.00246012 0)
(0.177319 -0.000153879 0)
(0.0362025 0.00150501 0)
(-0.091751 -0.00685352 0)
(-0.197844 -0.00786304 0)
(-0.181504 -0.0286954 0)
(-0.108812 -0.048072 0)
(-0.0292543 -0.0527938 0)
(0.0095839 -0.050374 0)
(0.00244608 -0.0583042 0)
(-0.0160073 -0.0672465 0)
(-0.0387146 -0.0775322 0)
(-0.0565009 -0.0765545 0)
(-0.0541563 -0.0586353 0)
(-0.0389376 -0.033815 0)
(-0.0270649 -0.0171688 0)
(-0.0229045 -0.0090738 0)
(-0.0254913 -0.00656594 0)
(-0.0300773 -0.00561359 0)
(-0.0312025 -0.00331925 0)
(-0.0277322 0.000160503 0)
(-0.0221884 0.00338056 0)
(-0.0165823 0.00615133 0)
(-0.0118414 0.00806407 0)
(-0.00849012 0.00913553 0)
(-0.00629617 0.00957371 0)
(-0.00484224 0.00965406 0)
(-0.00365833 0.00957152 0)
(-0.00255753 0.00943501 0)
(-0.0013567 0.00927853 0)
(-3.88543e-05 0.00907841 0)
(0.00138763 0.00885673 0)
(0.00292205 0.00869331 0)
(0.00494731 0.00859085 0)
(0.00723008 0.00849624 0)
(0.0104241 0.00846324 0)
(0.0181357 0.00861626 0)
(0.0434074 0.00901045 0)
(0.130674 0.00933081 0)
(0.23651 0.00762204 0)
(0.277313 0.00304719 0)
(0.176993 0.000297257 0)
(0.0371032 0.00296142 0)
(-0.0877993 -0.0139327 0)
(-0.201562 -0.003799 0)
(-0.196285 -0.0159773 0)
(-0.118357 -0.0296167 0)
(-0.0336785 -0.0357746 0)
(0.00262733 -0.0453552 0)
(-0.00675815 -0.055301 0)
(-0.0243506 -0.0622774 0)
(-0.0392602 -0.0654396 0)
(-0.0420851 -0.0535505 0)
(-0.0334985 -0.0331335 0)
(-0.0233294 -0.0172919 0)
(-0.0182047 -0.00833768 0)
(-0.0191585 -0.00437598 0)
(-0.0245749 -0.00350546 0)
(-0.0286426 -0.0024215 0)
(-0.0281247 0.000470104 0)
(-0.0242592 0.0040935 0)
(-0.0192512 0.00735809 0)
(-0.014387 0.00990084 0)
(-0.0105369 0.0115316 0)
(-0.00791176 0.0123741 0)
(-0.00618365 0.0126657 0)
(-0.00496406 0.0126377 0)
(-0.0038687 0.0124494 0)
(-0.00279063 0.0122018 0)
(-0.0016078 0.0119479 0)
(-0.000297266 0.0116581 0)
(0.00116476 0.0113848 0)
(0.00277083 0.0112393 0)
(0.00484617 0.0111495 0)
(0.00717765 0.0111043 0)
(0.0104961 0.0111523 0)
(0.0184513 0.0113853 0)
(0.0438704 0.0118795 0)
(0.13002 0.012223 0)
(0.233 0.00935508 0)
(0.273261 0.00336742 0)
(0.177237 0.000385724 0)
(0.0387698 0.00477438 0)
(-0.0819857 -0.00461423 0)
(-0.199815 0.00404537 0)
(-0.206383 -0.00349314 0)
(-0.127889 -0.0171971 0)
(-0.0444204 -0.0267603 0)
(-0.00923244 -0.0427887 0)
(-0.0138608 -0.0506886 0)
(-0.0257773 -0.0518311 0)
(-0.0303051 -0.0443527 0)
(-0.0253696 -0.02892 0)
(-0.0192162 -0.0151834 0)
(-0.0150434 -0.00633272 0)
(-0.0146187 -0.00138838 0)
(-0.018248 5.74033e-05 0)
(-0.0236079 0.00059442 0)
(-0.0262463 0.00235963 0)
(-0.0249244 0.0054155 0)
(-0.0210947 0.00879772 0)
(-0.0165922 0.0119087 0)
(-0.0125605 0.014161 0)
(-0.00945802 0.0155296 0)
(-0.00739726 0.0161548 0)
(-0.00604219 0.0162933 0)
(-0.00505068 0.0161661 0)
(-0.00407842 0.0159091 0)
(-0.00304086 0.0156112 0)
(-0.0018806 0.0153389 0)
(-0.000581468 0.0150915 0)
(0.000984034 0.0149167 0)
(0.00269532 0.0149473 0)
(0.00481726 0.0150313 0)
(0.0072328 0.0151702 0)
(0.0106949 0.0154077 0)
(0.0188365 0.0158435 0)
(0.0442146 0.0165655 0)
(0.128242 0.0170597 0)
(0.227976 0.0129411 0)
(0.26867 0.00524957 0)
(0.178349 0.00122771 0)
(0.0413323 0.00745417 0)
(-0.0794546 0.0050704 0)
(-0.200482 0.00796219 0)
(-0.216755 0.00206272 0)
(-0.140778 -0.010144 0)
(-0.0583395 -0.0233928 0)
(-0.0204309 -0.0351417 0)
(-0.0154717 -0.0363809 0)
(-0.018245 -0.0300684 0)
(-0.0171822 -0.0180987 0)
(-0.0139765 -0.0074801 0)
(-0.0117325 -0.000545119 0)
(-0.0100361 0.00400079 0)
(-0.012047 0.00631177 0)
(-0.0172478 0.00652223 0)
(-0.0223564 0.00660637 0)
(-0.0239969 0.00807848 0)
(-0.0219207 0.0107134 0)
(-0.0180021 0.0137332 0)
(-0.014083 0.01635 0)
(-0.0108977 0.0182885 0)
(-0.00861569 0.0196475 0)
(-0.00717585 0.0205859 0)
(-0.00617271 0.0212446 0)
(-0.00533431 0.0217414 0)
(-0.00440348 0.0221636 0)
(-0.00334007 0.0226591 0)
(-0.00210855 0.0230474 0)
(-0.000704183 0.0234523 0)
(0.00102575 0.023762 0)
(0.00288131 0.0242191 0)
(0.00506103 0.0246012 0)
(0.00754031 0.0251123 0)
(0.011145 0.0256398 0)
(0.0195671 0.0264766 0)
(0.0450423 0.0276856 0)
(0.126528 0.0284302 0)
(0.22162 0.0222975 0)
(0.261973 0.010236 0)
(0.179361 0.00169553 0)
(0.0447698 0.00819415 0)
(-0.0791991 0.0101713 0)
(-0.202713 0.0126437 0)
(-0.22383 0.00881393 0)
(-0.152419 -0.000154969 0)
(-0.0685092 -0.0118516 0)
(-0.0217482 -0.0120252 0)
(-0.00897194 -0.00620517 0)
(-0.00815995 0.00121857 0)
(-0.00853816 0.00870992 0)
(-0.00845435 0.0140584 0)
(-0.00815277 0.0183084 0)
(-0.00843586 0.0205249 0)
(-0.0121889 0.0207244 0)
(-0.0179641 0.0204423 0)
(-0.0221082 0.0214843 0)
(-0.0222887 0.0243758 0)
(-0.0194753 0.0281969 0)
(-0.015663 0.031871 0)
(-0.0122026 0.0348886 0)
(-0.00938298 0.0372823 0)
(-0.00724419 0.0392892 0)
(-0.00585816 0.0411169 0)
(-0.00492867 0.0428414 0)
(-0.00416514 0.0444594 0)
(-0.00319408 0.0459683 0)
(-0.00218917 0.0475032 0)
(-0.0011162 0.0488182 0)
(0.00010718 0.0501174 0)
(0.00172288 0.0511509 0)
(0.003504 0.0522199 0)
(0.00567802 0.053034 0)
(0.00823357 0.0540835 0)
(0.0120096 0.054855 0)
(0.020808 0.0560357 0)
(0.0460971 0.057175 0)
(0.12305 0.0562773 0)
(0.210444 0.0432063 0)
(0.248817 0.022515 0)
(0.176381 0.00484762 0)
(0.0475946 0.00672378 0)
(-0.0770722 0.00367113 0)
(-0.20179 0.0126013 0)
(-0.229088 0.0275986 0)
(-0.160692 0.0336806 0)
(-0.0697781 0.0315651 0)
(-0.0149898 0.0367212 0)
(-0.00270953 0.0436062 0)
(-0.00387231 0.0486981 0)
(-0.0048093 0.0531324 0)
(-0.00472706 0.0581748 0)
(-0.00550114 0.0630578 0)
(-0.00770794 0.067004 0)
(-0.0121266 0.0701215 0)
(-0.0165155 0.0740401 0)
(-0.0185659 0.0800134 0)
(-0.0175283 0.0873696 0)
(-0.014698 0.0948397 0)
(-0.0115538 0.101605 0)
(-0.00886844 0.10739 0)
(-0.00665716 0.112387 0)
(-0.0049205 0.117151 0)
(-0.00375287 0.121877 0)
(-0.00295182 0.126286 0)
(-0.00232109 0.13019 0)
(-0.00147039 0.133538 0)
(-0.000593828 0.136543 0)
(0.000410676 0.13846 0)
(0.00154377 0.140448 0)
(0.00305173 0.141777 0)
(0.00469589 0.143174 0)
(0.0068569 0.14384 0)
(0.00929514 0.144323 0)
(0.0130262 0.143344 0)
(0.0218027 0.142308 0)
(0.0452751 0.139057 0)
(0.113067 0.129511 0)
(0.189085 0.0961657 0)
(0.225009 0.0524955 0)
(0.164144 0.010739 0)
(0.0465778 -0.0013558 0)
(-0.0705937 -0.049135 0)
(-0.179656 0.00222164 0)
(-0.203518 0.0579273 0)
(-0.148596 0.0941661 0)
(-0.0655791 0.111437 0)
(-0.010145 0.120187 0)
(0.0025694 0.126845 0)
(0.00101986 0.134447 0)
(0.000593932 0.142744 0)
(0.00111015 0.15135 0)
(0.000355354 0.159227 0)
(-0.00162904 0.166004 0)
(-0.00540863 0.172256 0)
(-0.00843195 0.179481 0)
(-0.00926343 0.188067 0)
(-0.00800152 0.197347 0)
(-0.00575796 0.206262 0)
(-0.00356907 0.214268 0)
(-0.00181199 0.221086 0)
(2.29728e-05 0.226716 0)
(0.00190025 0.231454 0)
(0.00294452 0.235251 0)
(0.00308211 0.238019 0)
(0.00282369 0.239969 0)
(0.00292839 0.241278 0)
(0.00255372 0.242349 0)
(0.00264612 0.242573 0)
(0.00330319 0.242729 0)
(0.00434998 0.242313 0)
(0.0054922 0.24143 0)
(0.00678511 0.23974 0)
(0.0077553 0.236997 0)
(0.0100681 0.232791 0)
(0.0166772 0.227393 0)
(0.0337653 0.217512 0)
(0.0817179 0.198705 0)
(0.136229 0.146936 0)
(0.166497 0.0909035 0)
(0.124488 0.0197714 0)
(0.0359396 -0.0502251 0)
(-0.0275831 -0.487951 0)
(-0.0986204 -0.132544 0)
(-0.140487 0.100142 0)
(-0.109128 0.171267 0)
(-0.0447039 0.206106 0)
(-0.000141766 0.219092 0)
(0.0110325 0.223649 0)
(0.0114482 0.230551 0)
(0.0114786 0.238687 0)
(0.0111563 0.246116 0)
(0.00862009 0.252344 0)
(0.00484772 0.25703 0)
(0.000860126 0.261048 0)
(-0.00127934 0.265952 0)
(-0.00134897 0.271576 0)
(5.01719e-06 0.277514 0)
(0.00160701 0.282749 0)
(0.00273117 0.286943 0)
(0.00312723 0.290193 0)
(0.00333331 0.292271 0)
(0.0033042 0.292699 0)
(0.00257364 0.291528 0)
(0.00159483 0.289494 0)
(0.000819601 0.287221 0)
(0.00082289 0.284851 0)
(0.000653696 0.282547 0)
(0.000777193 0.280593 0)
(0.00129347 0.278387 0)
(0.00179933 0.276257 0)
(0.00221641 0.273328 0)
(0.00258531 0.270244 0)
(0.00259848 0.266138 0)
(0.00377183 0.261833 0)
(0.00707967 0.255926 0)
(0.0176297 0.244883 0)
(0.045058 0.224643 0)
(0.085204 0.17027 0)
(0.102468 0.104704 0)
(0.0281477 -0.115195 0)
(-0.0208734 -0.463644 0)
(0.271889 -0.766613 0)
(0.387052 -0.468096 0)
(0.0892457 0.0534316 0)
(-0.0464853 0.166393 0)
(-0.0194936 0.206366 0)
(0.00675976 0.212043 0)
(0.0136118 0.210996 0)
(0.0155111 0.207365 0)
(0.0155925 0.205378 0)
(0.0142706 0.200698 0)
(0.0108728 0.196007 0)
(0.0067584 0.191896 0)
(0.0031885 0.189404 0)
(0.00171302 0.188529 0)
(0.00187826 0.188576 0)
(0.0027653 0.188544 0)
(0.00332893 0.188119 0)
(0.00360462 0.187645 0)
(0.00332198 0.187333 0)
(0.00243756 0.186749 0)
(0.00118433 0.185295 0)
(-0.000143749 0.18322 0)
(-0.00106819 0.181283 0)
(-0.00165081 0.179904 0)
(-0.00157565 0.178958 0)
(-0.00154966 0.17804 0)
(-0.00136243 0.177623 0)
(-0.000874976 0.17711 0)
(-0.000525249 0.176686 0)
(-0.000301762 0.176297 0)
(-0.000143867 0.176216 0)
(-0.000349906 0.176497 0)
(0.000227369 0.177491 0)
(0.000343186 0.178097 0)
(0.0036198 0.175877 0)
(0.00981806 0.164953 0)
(0.0206519 0.127629 0)
(-0.108587 0.0328126 0)
(-0.423193 -0.414773 0)
(-0.299839 -0.734346 0)
(0.260078 -0.324654 0)
(0.691604 -0.336911 0)
(0.47093 -0.00860944 0)
(0.0382447 0.0591765 0)
(-0.000713771 0.079318 0)
(0.00431974 0.078665 0)
(0.00652417 0.0767859 0)
(0.00603479 0.0713099 0)
(0.00505411 0.066952 0)
(0.00212571 0.0603738 0)
(0.000138577 0.0543488 0)
(-0.00151494 0.0492345 0)
(-0.00238445 0.0457632 0)
(-0.00207752 0.0434513 0)
(-0.00133474 0.0418296 0)
(-0.000435146 0.040117 0)
(0.000740957 0.0385084 0)
(0.00197411 0.0374314 0)
(0.00226392 0.0368164 0)
(0.00136946 0.0363334 0)
(-9.63901e-05 0.035708 0)
(-0.0012929 0.0350044 0)
(-0.00160131 0.0345155 0)
(-0.00142095 0.0344511 0)
(-0.000973452 0.034754 0)
(-0.000632779 0.0350761 0)
(-0.000118606 0.0357055 0)
(0.00039075 0.0363668 0)
(0.00101635 0.037019 0)
(0.00176386 0.0379666 0)
(0.00277798 0.0391626 0)
(0.00382722 0.0409987 0)
(0.00531285 0.0434973 0)
(0.00552448 0.0462761 0)
(0.00496443 0.0488741 0)
(-0.00143647 0.0476714 0)
(-0.0421316 0.0371949 0)
(-0.420209 -0.0174812 0)
(-0.711114 -0.286187 0)
(-0.328826 -0.316267 0)
(0.260078 0.324654 0)
(0.691604 0.336911 0)
(0.47093 0.00860944 0)
(0.0382447 -0.0591765 0)
(-0.000713771 -0.079318 0)
(0.00431974 -0.078665 0)
(0.00652417 -0.0767859 0)
(0.00603479 -0.0713099 0)
(0.00505411 -0.066952 0)
(0.00212571 -0.0603738 0)
(0.000138576 -0.0543488 0)
(-0.00151494 -0.0492345 0)
(-0.00238445 -0.0457632 0)
(-0.00207752 -0.0434513 0)
(-0.00133474 -0.0418296 0)
(-0.000435146 -0.040117 0)
(0.000740957 -0.0385084 0)
(0.00197411 -0.0374314 0)
(0.00226392 -0.0368164 0)
(0.00136946 -0.0363334 0)
(-9.63901e-05 -0.035708 0)
(-0.0012929 -0.0350044 0)
(-0.00160131 -0.0345155 0)
(-0.00142095 -0.0344511 0)
(-0.000973452 -0.034754 0)
(-0.000632779 -0.0350761 0)
(-0.000118606 -0.0357055 0)
(0.00039075 -0.0363668 0)
(0.00101635 -0.037019 0)
(0.00176386 -0.0379666 0)
(0.00277798 -0.0391626 0)
(0.00382722 -0.0409987 0)
(0.00531285 -0.0434973 0)