/*--------------------------------*- C++ -*----------------------------------*\
| =========                 |                                                 |
| \\      /  F ield         | OpenFOAM: The Open Source CFD Toolbox           |
|  \\    /   O peration     | Version:  v1912                                 |
|   \\  /    A nd           | Website:  www.openfoam.com                      |
|    \\/     M anipulation  |                                                 |
\*---------------------------------------------------------------------------*/
FoamFile
{
    version     2.0;
    format      ascii;
    class       volVectorField;
    location    "0.02";
    object      U;
}
// * * * * * * * * * * * * * * * * * * * * * * * * * * * * * * * * * * * * * //

dimensions      [0 1 -1 0 0 0 0];


internalField   nonuniform List<vector> 
1900
(
(0 0 0)
(-1.82207e-20 1.26882e-17 0)
(1.89296e-20 -1.26882e-19 0)
(0 0 0)
(1.28747e-23 2.53764e-17 0)
(-1.31606e-23 -1.26882e-17 0)
(0 2.53764e-17 0)
(0 0 0)
(0 -1.26882e-17 0)
(0 2.53764e-17 0)
(0 0 0)
(-5.70521e-19 0 0)
(5.88202e-19 -1.25613e-17 0)
(0 0 0)
(6.56281e-22 0 0)
(-6.73839e-22 0 0)
(0 -2.52496e-17 0)
(0 1.25613e-17 0)
(0 0 0)
(0 5.45208e-19 0)
(0 0 0)
(-1.20803e-17 0 0)
(1.20803e-17 0 0)
(0 0 0)
(5.64695e-19 0 0)
(-5.74249e-19 0 0)
(0 2.52496e-17 0)
(0 0 0)
(0 0 0)
(0 0 0)
(0 0 0)
(0 0 0)
(0 0 0)
(0 0 0)
(1.19594e-17 0 0)
(-1.19651e-17 1.25613e-17 0)
(0 0 0)
(0 -1.25613e-17 0)
(0 0 0)
(0 0 0)
(0 0 0)
(0 0 0)
(0 -2.52496e-17 0)
(0 0 0)
(0 -2.52496e-17 0)
(0 1.26882e-19 0)
(0 0 0)
(0 0 0)
(0 0 0)
(0 -1.26882e-17 0)
(-4.03977e-17 0 0)
(4.36157e-17 0 0)
(-5.07529e-17 -1.76225e-17 0)
(1.88641e-17 0 0)
(-8.7307e-16 3.13429e-17 0)
(3.72946e-17 1.1378e-17 0)
(-7.21886e-17 0 0)
(-1.7182e-18 0 0)
(5.64722e-17 2.40307e-17 0)
(-1.46519e-16 7.7903e-18 0)
(2.13051e-17 0 0)
(-2.02427e-17 0 0)
(-4.11045e-17 3.50688e-17 0)
(-5.76737e-18 0 0)
(-1.60491e-18 3.54062e-17 0)
(6.44755e-17 0 0)
(-4.17376e-17 0 0)
(-3.51569e-17 0 0)
(8.45881e-17 -2.40307e-17 0)
(-1.8532e-16 -6.72099e-19 0)
(-1.60901e-18 1.1493e-19 0)
(-1.39125e-19 1.39125e-17 0)
(-4.79333e-17 -1.74463e-17 0)
(7.34138e-17 2.40307e-17 0)
(-9.44819e-16 -3.43639e-17 0)
(5.44514e-13 -4.91553e-14 0)
(2.71794e-11 -5.4596e-12 0)
(-8.95171e-10 -3.1668e-10 0)
(-9.62816e-06 4.20915e-07 0)
(-0.000317261 2.18791e-05 0)
(5.42568e-14 -8.32616e-15 0)
(2.3968e-12 -5.06931e-12 0)
(-7.05676e-10 -3.32494e-10 0)
(-1.01832e-06 7.86641e-07 0)
(-1.69051e-05 2.36926e-05 0)
(1.21149e-14 -9.67637e-17 0)
(1.19177e-13 -5.63921e-17 0)
(-3.65235e-10 -8.88645e-16 0)
(-2.59255e-08 2.44642e-17 0)
(1.92964e-07 -5.81693e-17 0)
(5.41152e-14 8.75743e-15 0)
(2.39639e-12 5.06984e-12 0)
(-7.05677e-10 3.32493e-10 0)
(-1.01832e-06 -7.86641e-07 0)
(-1.69051e-05 -2.36926e-05 0)
(5.44771e-13 4.95289e-14 0)
(2.71796e-11 5.46162e-12 0)
(-8.95172e-10 3.16683e-10 0)
(-9.62816e-06 -4.20915e-07 0)
(-0.000317261 -2.18791e-05 0)
(-0.00888746 7.90933e-05 0)
(-0.000400132 -0.000268133 0)
(-1.20764e-05 -5.36709e-06 0)
(-9.97056e-09 -4.25029e-09 0)
(-1.51607e-13 -5.35547e-14 0)
(-6.22862e-18 0 0)
(-1.50427e-17 -1.04966e-16 0)
(2.68682e-18 7.88976e-17 0)
(6.6978e-23 0 0)
(-6.68626e-19 4.54469e-17 0)
(8.10951e-18 4.56776e-17 0)
(6.01709e-19 -1.01275e-16 0)
(1.04152e-18 4.59083e-17 0)
(-9.77051e-18 -4.56776e-17 0)
(-9.51946e-18 4.56776e-17 0)
(3.68324e-17 -2.30695e-17 0)
(-9.09727e-18 0 0)
(-1.94503e-17 0 0)
(-1.2442e-17 9.57384e-17 0)
(1.17892e-17 -4.54469e-17 0)
(9.09746e-18 6.92085e-17 0)
(9.32876e-19 -8.44343e-17 0)
(-8.14303e-18 2.30695e-17 0)
(-1.16107e-17 1.34495e-16 0)
(-1.34021e-18 -6.18262e-17 0)
(3.93269e-17 4.98301e-17 0)
(1.87886e-17 1.45338e-17 0)
(-3.64349e-17 0 0)
(-6.79036e-18 9.64305e-17 0)
(9.55383e-18 1.01044e-16 0)
(2.5233e-17 7.91283e-17 0)
(9.33059e-18 2.67606e-17 0)
(-1.87622e-17 -2.28388e-17 0)
(6.0297e-18 2.67606e-17 0)
(-2.06712e-17 9.13552e-17 0)
(8.41051e-13 -1.13733e-16 0)
(5.96229e-08 1.45915e-15 0)
(7.98207e-05 4.01903e-16 0)
(0.00304003 2.00248e-15 0)
(0.0901259 2.04525e-15 0)
(-0.000110922 4.99152e-06 0)
(-8.35724e-06 -1.16513e-05 0)
(-3.39917e-07 -2.82013e-07 0)
(-3.22748e-10 -2.43445e-10 0)
(-5.29878e-15 -2.95359e-15 0)
(-1.22048e-17 0 0)
(-9.45004e-18 6.43639e-17 0)
(2.54861e-17 0 0)
(1.46943e-21 -4.56776e-17 0)
(-6.60526e-18 -5.35212e-17 0)
(-7.69525e-18 0 0)
(5.6765e-18 6.43639e-17 0)
(9.67008e-18 4.56776e-17 0)
(-7.55857e-18 0 0)
(-5.14496e-20 -2.30695e-19 0)
(6.85122e-18 2.30695e-17 0)
(-1.90518e-24 0 0)
(1.11536e-19 0 0)
(-3.1131e-17 4.54469e-17 0)
(2.07392e-17 4.56776e-17 0)
(4.00855e-21 0 0)
(1.11938e-17 3.87567e-17 0)
(1.00295e-17 -2.30695e-17 0)
(-3.22474e-17 6.8055e-17 0)
(-1.33833e-17 3.92181e-17 0)
(2.91517e-17 -6.20569e-17 0)
(5.15863e-18 -8.25888e-17 0)
(-5.65447e-18 0 0)
(1.97411e-17 3.92181e-18 0)
(1.98535e-24 0 0)
(-1.37549e-17 0 0)
(-3.61161e-19 -7.56679e-17 0)
(4.96312e-19 0 0)
(2.58399e-18 -9.45849e-17 0)
(4.11182e-17 3.80647e-17 0)
(8.40604e-13 -5.11681e-16 0)
(5.96229e-08 -7.54372e-17 0)
(7.98207e-05 -2.9439e-16 0)
(0.00304003 -1.64887e-15 0)
(0.0901259 -4.53144e-16 0)
(-9.18167e-08 1.10734e-17 0)
(1.37603e-07 8.48957e-17 0)
(-1.70627e-09 1.661e-17 0)
(-1.34558e-11 -7.91283e-17 0)
(-1.13752e-15 -5.99807e-18 0)
(-1.54075e-19 0 0)
(-8.56268e-19 4.54469e-17 0)
(1.61974e-18 0 0)
(4.82918e-20 0 0)
(-2.15984e-17 0 0)
(2.03417e-17 0 0)
(4.49845e-18 4.54469e-17 0)
(-2.64278e-18 -4.56776e-17 0)
(-2.13656e-17 0 0)
(-1.28558e-18 -4.56776e-17 0)
(2.22082e-17 0 0)
(-7.62827e-21 0 0)
(4.45121e-18 0 0)
(1.28033e-20 4.56776e-17 0)
(-5.89207e-19 4.56776e-17 0)
(5.59208e-19 0 0)
(2.99852e-18 7.65907e-17 0)
(-1.62408e-20 6.85164e-17 0)
(-2.96524e-18 0 0)
(-3.62457e-17 4.54469e-17 0)
(-1.05396e-17 3.5527e-17 0)
(4.52198e-17 0 0)
(-1.08218e-17 9.13552e-17 0)
(7.60848e-18 0 0)
(1.08418e-22 -9.13552e-17 0)
(5.70505e-18 0 0)
(-2.10789e-18 2.65299e-17 0)
(5.25661e-18 9.13552e-17 0)
(-3.14667e-18 -2.30695e-19 0)
(1.30864e-17 -8.37422e-17 0)
(8.40613e-13 -8.07432e-18 0)
(5.96229e-08 4.55622e-16 0)
(7.98207e-05 -1.67036e-16 0)
(0.00304003 -4.65154e-16 0)
(0.0901259 -2.46848e-15 0)
(-0.000110922 -4.99152e-06 0)
(-8.35724e-06 1.16513e-05 0)
(-3.39917e-07 2.82013e-07 0)
(-3.22747e-10 2.4344e-10 0)
(-5.29882e-15 2.96812e-15 0)
(5.22079e-18 0 0)
(-1.17472e-17 0 0)
(1.28579e-17 -4.59083e-17 0)
(1.17942e-18 4.56776e-17 0)
(-6.23929e-18 6.87471e-17 0)
(2.36989e-18 -4.56776e-17 0)
(-1.01808e-17 0 0)
(2.03391e-17 -2.28388e-17 0)
(-7.98029e-18 9.18166e-17 0)
(-1.13594e-17 4.6139e-17 0)
(1.0716e-17 0 0)
(-1.1184e-18 0 0)
(-5.10896e-18 0 0)
(1.0758e-17 0 0)
(-5.08606e-18 -2.28388e-17 0)
(5.0576e-18 0 0)
(2.5352e-17 -3.09131e-17 0)
(-1.50203e-19 0 0)
(-2.52191e-17 0 0)
(-8.0804e-18 0 0)
(1.1697e-21 4.59083e-17 0)
(3.14653e-17 0 0)
(1.30295e-18 1.26882e-17 0)
(-3.04559e-17 0 0)
(2.27202e-21 0 0)
(5.05826e-18 0 0)
(2.32171e-17 -4.56776e-17 0)
(-5.29367e-20 2.30695e-19 0)
(-3.23701e-17 0 0)
(1.82602e-17 -4.56776e-17 0)
(8.40642e-13 5.04991e-16 0)
(5.96229e-08 1.93415e-15 0)
(7.98207e-05 -9.21238e-16 0)
(0.00304003 -1.72176e-16 0)
(0.0901259 2.85671e-16 0)
(-0.00888746 -7.90933e-05 0)
(-0.000400132 0.000268133 0)
(-1.20764e-05 5.36709e-06 0)
(-9.97056e-09 4.25029e-09 0)
(-1.51623e-13 5.3888e-14 0)
(2.56579e-18 0 0)
(-1.11588e-17 0 0)
(-2.01156e-17 -4.17558e-17 0)
(1.00251e-17 0 0)
(-1.00633e-17 -5.95193e-17 0)
(2.01529e-17 0 0)
(3.761e-20 0 0)
(-3.74606e-20 -2.30695e-17 0)
(2.1203e-17 0 0)
(-1.02837e-17 4.54469e-17 0)
(3.74977e-28 0 0)
(-1.01152e-17 0 0)
(4.38004e-24 0 0)
(-3.42202e-39 -4.56776e-17 0)
(2.2067e-33 -2.30695e-17 0)
(-2.72181e-34 0 0)
(5.96603e-44 0 0)
(-3.36886e-29 -8.51264e-17 0)
(-3.74831e-20 -4.56776e-17 0)
(-3.94231e-20 0 0)
(1.93863e-20 0 0)
(3.74114e-20 0 0)
(2.03394e-17 -9.71225e-17 0)
(-2.08396e-17 0 0)
(3.827e-20 -2.28388e-17 0)
(3.10417e-36 -4.56776e-17 0)
(3.9666e-20 0 0)
(-7.23582e-34 -4.56776e-17 0)
(-7.43011e-19 0 0)
(1.30736e-17 0 0)
(8.41041e-13 1.80403e-16 0)
(5.96229e-08 -1.46445e-15 0)
(7.98207e-05 -3.95212e-16 0)
(0.00304003 -1.55769e-15 0)
(0.0901259 1.27424e-16 0)
(-0.0873595 -1.69878e-05 0)
(-0.0029193 7.13815e-05 0)
(-7.62884e-05 1.32158e-06 0)
(-5.67577e-08 1.02442e-09 0)
(-7.99188e-13 1.33651e-14 0)
(-1.46518e-17 0 0)
(-3.69582e-21 0 0)
(4.78239e-19 5.41828e-17 0)
(2.78876e-26 0 0)
(-4.90378e-19 3.8513e-17 0)
(2.45249e-39 0 0)
(4.90378e-19 1.37895e-17 0)
(-4.78236e-19 1.38591e-17 0)
(-1.85806e-19 -2.77182e-17 0)
(5.85129e-20 0 0)
(-7.51293e-27 0 0)
(-8.33849e-26 0 0)
(-1.61838e-22 0 0)
(-1.16341e-37 0 0)
(1.30759e-31 0 0)
(1.45997e-32 0 0)
(-2.44798e-42 0 0)
(-2.4403e-27 -1.88038e-18 0)
(-4.76349e-19 0 0)
(4.83774e-19 0 0)
(-4.74879e-19 0 0)
(4.73885e-19 -1.38591e-17 0)
(1.19555e-24 -2.08931e-18 0)
(-3.25881e-53 -1.37895e-17 0)
(4.90378e-19 6.89473e-18 0)
(7.93314e-35 0 0)
(-4.83404e-19 0 0)
(-3.02967e-32 -1.38591e-17 0)
(-9.22609e-18 -1.38591e-17 0)
(3.34468e-17 0 0)
(8.40793e-13 6.5674e-17 0)
(5.96229e-08 -7.94356e-16 0)
(7.98207e-05 -1.45706e-16 0)
(0.00304003 1.56562e-16 0)
(0.0901259 -1.32084e-16 0)
(-0.0901247 1.35921e-08 0)
(-0.00303995 1.08482e-07 0)
(-7.98176e-05 2.26899e-09 0)
(-5.96202e-08 1.92231e-12 0)
(-8.41386e-13 -1.52102e-16 0)
(-1.02952e-17 0 0)
(2.22974e-19 0 0)
(1.2794e-17 -2.77182e-17 0)
(1.27358e-24 -2.07538e-17 0)
(-1.32868e-17 -1.37895e-17 0)
(-3.72724e-37 0 0)
(1.32868e-17 -1.37895e-17 0)
(-1.27938e-17 0 0)
(-5.87466e-18 0 0)
(5.47713e-18 0 0)
(-4.03967e-25 1.37895e-17 0)
(4.50749e-24 0 0)
(-2.42403e-19 0 0)
(-2.24414e-32 0 0)
(4.4951e-29 1.38591e-17 0)
(2.57882e-27 0 0)
(-6.07414e-37 0 0)
(3.90766e-25 0 0)
(-1.33539e-17 0 0)
(1.33539e-17 -1.38591e-17 0)
(-1.33539e-17 0 0)
(1.33794e-17 0 0)
(-1.6e-22 0 0)
(-6.50732e-51 0 0)
(1.32868e-17 0 0)
(-2.24406e-32 0 0)
(-1.37796e-17 0 0)
(-6.0321e-28 -1.37895e-17 0)
(2.59518e-19 1.38591e-17 0)
(7.75936e-18 0 0)
(8.41216e-13 2.89021e-17 0)
(5.96229e-08 1.70627e-17 0)
(7.98207e-05 -1.50373e-16 0)
(0.00304003 2.68272e-17 0)
(0.0901259 1.12513e-17 0)
(-0.0901259 2.61994e-13 0)
(-0.00304003 2.24367e-12 0)
(-7.98207e-05 4.87794e-14 0)
(-5.96229e-08 7.73045e-17 0)
(-8.4081e-13 -2.35605e-16 0)
(-4.6473e-18 0 0)
(9.1078e-18 0 0)
(-1.33543e-17 0 0)
(3.17703e-23 6.96437e-18 0)
(-1.68029e-39 0 0)
(-1.03564e-31 0 0)
(-4.31238e-53 0 0)
(1.3366e-17 0 0)
(2.67079e-17 1.39287e-17 0)
(-3.34307e-17 0 0)
(-3.2249e-23 0 0)
(1.83806e-22 2.75789e-17 0)
(-6.6432e-18 6.89473e-18 0)
(-3.91048e-27 0 0)
(3.92614e-27 0 0)
(3.15283e-22 0 0)
(-1.33798e-31 0 0)
(2.84169e-23 6.89473e-18 0)
(-3.31257e-22 0 0)
(4.76378e-24 1.38591e-17 0)
(-5.00708e-23 -1.38591e-17 0)
(2.45412e-19 1.38591e-17 0)
(-2.39652e-19 0 0)
(-1.20008e-48 0 0)
(2.60956e-27 0 0)
(-3.91054e-27 0 0)
(-1.33539e-17 -1.38591e-17 0)
(-5.81506e-26 -1.39287e-17 0)
(4.11964e-18 0 0)
(2.8041e-17 0 0)
(8.40902e-13 4.53381e-17 0)
(5.96229e-08 4.72185e-16 0)
(7.98207e-05 4.25696e-16 0)
(0.00304003 -6.02216e-17 0)
(0.0901259 4.31246e-16 0)
(-0.0901259 4.17495e-16 0)
(-0.00304003 5.20756e-16 0)
(-7.98207e-05 4.38094e-17 0)
(-5.96229e-08 8.97708e-17 0)
(-8.40802e-13 2.09488e-16 0)
(-1.51962e-17 -6.96437e-18 0)
(2.4739e-19 0 0)
(-9.63872e-21 0 0)
(-1.56913e-21 0 0)
(8.73177e-38 0 0)
(-1.23267e-27 0 0)
(-1.72769e-47 0 0)
(4.90378e-19 -6.96437e-18 0)
(4.27517e-22 -1.39287e-19 0)
(-5.01979e-19 0 0)
(-1.71723e-21 -1.37895e-17 0)
(4.99676e-21 -2.75789e-17 0)
(1.0814e-20 -6.89473e-18 0)
(-4.85191e-22 0 0)
(4.85227e-22 0 0)
(4.61029e-19 0 0)
(-2.56676e-26 0 0)
(3.04976e-21 0 0)
(-4.84812e-19 0 0)
(3.22717e-22 0 0)
(-4.07953e-21 1.38591e-17 0)
(6.65556e-18 0 0)
(-6.65545e-18 0 0)
(2.01e-46 0 0)
(3.20046e-22 0 0)
(-4.85191e-22 0 0)
(4.96345e-23 1.38591e-17 0)
(-4.75523e-24 2.77182e-17 0)
(3.99833e-25 0 0)
(1.30292e-17 0 0)
(8.41301e-13 -7.13152e-17 0)
(5.96229e-08 2.73909e-16 0)
(7.98207e-05 4.74312e-17 0)
(0.00304003 -6.95133e-17 0)
(0.0901259 1.13757e-16 0)
(-0.0901259 -2.42323e-17 0)
(-0.00304003 -1.71722e-16 0)
(-7.98207e-05 2.76926e-16 0)
(-5.96229e-08 -2.20283e-16 0)
(-8.4139e-13 5.62721e-17 0)
(-2.12553e-17 6.96437e-18 0)
(6.71062e-18 0 0)
(-1.29276e-19 0 0)
(-3.61102e-19 -1.38591e-17 0)
(3.01428e-32 0 0)
(-1.1797e-25 1.37895e-17 0)
(3.16773e-45 0 0)
(1.32868e-17 0 0)
(4.78872e-19 0 0)
(-1.37529e-17 0 0)
(-6.91947e-20 -6.96437e-18 0)
(6.87432e-20 0 0)
(4.79052e-19 0 0)
(-7.27691e-19 0 0)
(7.22488e-19 0 0)
(1.25488e-17 0 0)
(-1.14043e-22 0 0)
(2.43058e-19 -6.89473e-18 0)
(-1.32868e-17 1.37895e-17 0)
(4.81322e-19 0 0)
(-4.92237e-19 2.77182e-17 0)
(4.96338e-19 0 0)
(-4.90378e-19 0 0)
(-3.06233e-44 0 0)
(4.78868e-19 0 0)
(-7.27669e-19 0 0)
(4.03454e-21 0 0)
(-3.22035e-22 0 0)
(-4.49543e-23 0 0)
(1.28437e-17 0 0)
(8.40741e-13 3.20361e-18 0)
(5.96229e-08 -3.44736e-17 0)
(7.98207e-05 -4.75844e-16 0)
(0.00304003 -9.72488e-17 0)
(0.0901259 -4.68196e-16 0)
(-0.0901259 5.9042e-18 0)
(-0.00304003 1.53698e-18 0)
(-7.98207e-05 2.90647e-16 0)
(-5.96229e-08 -1.14912e-17 0)
(-8.40952e-13 -3.55183e-18 0)
(-1.18468e-17 0 0)
(6.51963e-21 0 0)
(4.09056e-22 1.37895e-17 0)
(-1.32873e-17 2.76486e-17 0)
(5.24074e-27 0 0)
(-9.62067e-24 -1.37895e-17 0)
(7.36519e-41 0 0)
(1.24851e-42 6.96437e-18 0)
(1.32868e-17 0 0)
(-1.23008e-17 1.37895e-17 0)
(4.04406e-27 6.96437e-18 0)
(-9.58236e-19 0 0)
(1.32868e-17 0 0)
(-2.02881e-17 0 0)
(1.99973e-17 -6.96437e-18 0)
(-1.99973e-17 0 0)
(-6.18823e-21 -6.96437e-18 0)
(6.70904e-18 0 0)
(-2.95513e-29 -1.37895e-17 0)
(1.32868e-17 -6.96437e-18 0)
(-1.33607e-17 -2.77182e-17 0)
(1.35279e-17 0 0)
(-1.32868e-17 6.89473e-18 0)
(-8.52653e-39 0 0)
(1.32868e-17 0 0)
(-2.02868e-17 0 0)
(4.82423e-19 -6.96437e-18 0)
(-4.85868e-19 0 0)
(-1.83301e-19 0 0)
(9.56184e-18 -6.96437e-18 0)
(8.41342e-13 3.25236e-17 0)
(5.96229e-08 9.54816e-17 0)
(7.98207e-05 -1.19797e-16 0)
(0.00304003 1.46013e-17 0)
(0.0901259 2.94854e-16 0)
(-0.0901259 2.74648e-16 0)
(-0.00304003 6.88845e-17 0)
(-7.98207e-05 1.12553e-16 0)
(-5.96229e-08 2.07608e-16 0)
(-8.41515e-13 2.59562e-16 0)
(-1.55241e-17 0 0)
(4.38268e-19 -6.89473e-18 0)
(2.17721e-20 -1.37895e-17 0)
(-2.42774e-20 -2.06842e-17 0)
(6.51271e-22 0 0)
(-6.49758e-22 0 0)
(1.01289e-38 -1.38591e-17 0)
(1.4323e-40 0 0)
(4.76377e-24 -1.37895e-17 0)
(2.67319e-17 -1.37895e-17 0)
(5.50957e-25 2.77182e-17 0)
(-2.67322e-17 0 0)
(3.03103e-28 0 0)
(1.97183e-19 0 0)
(2.95534e-29 6.96437e-18 0)
(-1.36776e-26 0 0)
(-2.5159e-19 6.96437e-18 0)
(-2.45189e-19 6.89473e-18 0)
(-2.57944e-27 0 0)
(-1.97489e-39 6.96437e-18 0)
(2.46507e-19 0 0)
(-2.45599e-19 0 0)
(-1.21762e-37 -6.89473e-18 0)
(-2.12393e-33 0 0)
(6.77324e-46 0 0)
(3.92027e-19 0 0)
(1.29587e-17 6.96437e-18 0)
(-1.35751e-17 0 0)
(-8.25942e-18 2.77182e-17 0)
(2.61474e-17 6.96437e-18 0)
(8.40794e-13 1.22573e-17 0)
(5.96229e-08 1.21459e-16 0)
(7.98207e-05 3.24566e-16 0)
(0.00304003 6.76689e-16 0)
(0.0901259 3.79097e-16 0)
(-0.0901259 -6.85057e-16 0)
(-0.00304003 -2.08889e-16 0)
(-7.98207e-05 1.67437e-16 0)
(-5.96229e-08 -1.74109e-17 0)
(-8.41417e-13 -3.37424e-16 0)
(-4.62555e-17 0 0)
(1.80714e-17 -6.96437e-18 0)
(9.62766e-19 0 0)
(-9.85584e-19 6.89473e-18 0)
(9.8038e-19 0 0)
(-9.741e-19 0 0)
(2.45981e-36 0 0)
(-1.143e-37 0 0)
(3.22717e-22 0 0)
(9.73311e-19 0 0)
(7.43835e-23 0 0)
(-9.86032e-19 0 0)
(2.90881e-26 -2.77182e-17 0)
(1.33539e-17 0 0)
(2.58e-27 0 0)
(-6.06241e-23 0 0)
(-6.87136e-18 0 0)
(-6.6434e-18 -6.89473e-18 0)
(-3.20048e-22 0 0)
(-1.36384e-37 0 0)
(1.33478e-17 0 0)
(-1.33539e-17 0 0)
(-1.54597e-35 0 0)
(-4.67397e-28 0 0)
(-1.17866e-43 0 0)
(1.38508e-17 2.77182e-17 0)
(-1.39043e-17 0 0)
(4.38832e-19 0 0)
(-9.35786e-20 0 0)
(1.03184e-17 0 0)
(8.4142e-13 -3.25236e-17 0)
(5.96229e-08 -2.50369e-16 0)
(7.98207e-05 -1.6681e-16 0)
(0.00304003 -2.01414e-16 0)
(0.0901259 1.32007e-17 0)
(-0.0901259 1.95687e-16 0)
(-0.00304003 1.72351e-16 0)
(-7.98207e-05 -2.50737e-16 0)
(-5.96229e-08 1.9556e-16 0)
(-8.40734e-13 -2.08931e-19 0)
(-1.90723e-17 0 0)
(-2.62842e-38 1.38591e-17 0)
(2.67079e-17 0 0)
(-2.67079e-17 0 0)
(2.74553e-17 0 0)
(-2.71913e-17 0 0)
(5.21048e-34 1.38591e-17 0)
(-1.45568e-33 0 0)
(4.81395e-19 0 0)
(2.62052e-17 0 0)
(7.97453e-21 -2.77182e-17 0)
(-2.67322e-17 0 0)
(2.37886e-24 2.77182e-17 0)
(1.34514e-27 0 0)
(3.20046e-22 0 0)
(-3.30114e-21 -6.96437e-18 0)
(3.21861e-19 0 0)
(-2.67089e-27 0 0)
(-4.79088e-19 0 0)
(1.75751e-35 0 0)
(-2.50553e-19 -6.96437e-18 0)
(-1.06248e-22 -6.96437e-18 0)
(-1.73864e-33 -2.77182e-17 0)
(-3.01234e-24 0 0)
(-1.45868e-41 -6.96437e-18 0)
(1.35507e-17 -2.77182e-17 0)
(-1.99987e-17 0 0)
(1.99973e-17 0 0)
(-8.13765e-18 -2.77182e-17 0)
(5.30414e-18 0 0)
(8.40699e-13 -1.67006e-16 0)
(5.96229e-08 -5.63836e-16 0)
(7.98207e-05 1.86103e-16 0)
(0.00304003 -3.87877e-16 0)
(0.0901259 -3.17639e-16 0)
(-0.0901259 3.83186e-16 0)
(-0.00304003 2.01973e-16 0)
(-7.98207e-05 -2.51295e-16 0)
(-5.96229e-08 -1.00496e-16 0)
(-8.41512e-13 3.49124e-16 0)
(-1.46982e-17 0 0)
(3.34021e-36 0 0)
(6.5146e-32 0 0)
(-1.33412e-40 0 0)
(1.35377e-17 0 0)
(-1.3002e-17 2.77182e-17 0)
(4.76901e-32 0 0)
(-1.44289e-31 1.39287e-19 0)
(1.32909e-17 -6.96437e-18 0)
(-1.3789e-17 0 0)
(6.39887e-19 0 0)
(-9.85584e-19 0 0)
(1.61121e-22 0 0)
(1.63215e-22 0 0)
(4.7887e-19 0 0)
(-3.33575e-19 6.96437e-18 0)
(1.32989e-17 0 0)
(-3.25814e-22 0 0)
(-1.32989e-17 0 0)
(-3.92345e-33 0 0)
(-6.82881e-18 6.96437e-18 0)
(-5.66649e-21 6.96437e-18 0)
(-1.68465e-31 1.37895e-17 0)
(-2.02899e-22 -6.96437e-18 0)
(-1.73879e-39 0 0)
(6.83601e-18 0 0)
(-4.13132e-22 1.37895e-17 0)
(2.60934e-27 0 0)
(-9.23431e-18 0 0)
(3.26392e-17 0 0)
(8.41039e-13 3.52119e-16 0)
(5.96229e-08 -9.66655e-17 0)
(7.98207e-05 4.87545e-18 0)
(0.00304003 4.68289e-16 0)
(0.0901259 -2.34702e-17 0)
(-0.0901259 -7.7069e-18 0)
(-0.00304003 -1.46991e-16 0)
(-7.98207e-05 3.1182e-16 0)
(-5.96229e-08 -1.02376e-16 0)
(-8.41432e-13 -7.83492e-17 0)
(-2.03977e-17 0 0)
(1.46439e-32 0 0)
(-7.44249e-30 0 0)
(-5.88213e-35 0 0)
(1.0791e-33 0 0)
(1.34344e-17 0 0)
(7.15702e-27 0 0)
(-1.22214e-29 -1.39287e-19 0)
(1.66234e-19 2.07538e-17 0)
(-1.30473e-17 0 0)
(2.62133e-17 2.75789e-17 0)
(-2.67079e-17 0 0)
(2.43312e-19 0 0)
(2.41763e-19 0 0)
(1.3287e-17 0 0)
(-1.3287e-17 2.77182e-17 0)
(4.92965e-19 0 0)
(-4.83847e-19 0 0)
(-4.92792e-19 0 0)
(-5.59032e-28 0 0)
(3.24185e-19 0 0)
(-2.30026e-19 0 0)
(-7.24606e-27 1.39287e-17 0)
(-1.08265e-20 6.96437e-18 0)
(2.75693e-37 6.96437e-18 0)
(7.33808e-20 0 0)
(-1.13777e-19 1.39287e-17 0)
(3.16928e-22 0 0)
(-3.14307e-29 0 0)
(1.3653e-17 0 0)
(8.41438e-13 1.11082e-16 0)
(5.96229e-08 4.91894e-16 0)
(7.98207e-05 -1.3512e-17 0)
(0.00304003 3.30869e-16 0)
(0.0901259 2.5951e-16 0)
(-0.0901259 4.05505e-17 0)
(-0.00304003 -3.53435e-16 0)
(-7.98207e-05 -2.79294e-17 0)
(-5.96229e-08 6.18436e-17 0)
(-8.41412e-13 -3.11586e-16 0)
(-2.52079e-17 0 0)
(2.44498e-31 0 0)
(-1.01167e-24 0 0)
(-5.81175e-31 0 0)
(-1.41144e-31 0 0)
(1.1794e-20 -2.77182e-17 0)
(1.31714e-23 0 0)
(-8.62474e-28 0 0)
(6.76849e-18 0 0)
(6.87336e-18 1.37895e-17 0)
(-1.34203e-17 -2.75789e-17 0)
(-3.39406e-22 0 0)
(6.80318e-18 0 0)
(6.71054e-18 0 0)
(8.42734e-21 2.77182e-17 0)
(-1.21115e-20 -2.77182e-17 0)
(1.33643e-17 2.77182e-17 0)
(-1.33662e-17 6.89473e-18 0)
(-1.33539e-17 0 0)
(-9.58059e-25 0 0)
(1.33539e-17 0 0)
(-6.22012e-18 0 0)
(-1.10966e-24 6.89473e-18 0)
(-4.79052e-19 0 0)
(7.57604e-35 0 0)
(7.50236e-18 0 0)
(-7.42279e-18 0 0)
(4.66919e-19 0 0)
(-3.54412e-27 2.77182e-17 0)
(1.21038e-17 1.37895e-17 0)
(8.41429e-13 -1.28771e-16 0)
(5.96229e-08 1.62966e-17 0)
(7.98207e-05 -2.36111e-16 0)
(0.00304003 3.46519e-17 0)
(0.0901259 3.50478e-16 0)
(-0.0901259 -1.139e-17 0)
(-0.00304003 9.98337e-17 0)
(-7.98207e-05 -2.23087e-16 0)
(-5.96229e-08 4.22737e-17 0)
(-8.40604e-13 -1.19091e-17 0)
(-1.44227e-17 0 0)
(-1.229e-26 0 0)
(-1.25804e-21 0 0)
(-3.31887e-29 0 0)
(-4.25168e-28 0 0)
(4.82729e-19 0 0)
(4.01063e-22 1.37895e-17 0)
(-1.41817e-24 0 0)
(-5.71612e-21 -1.37895e-17 0)
(-4.81338e-19 1.37895e-17 0)
(8.14616e-19 0 0)
(-4.95518e-19 0 0)
(-3.23e-19 0 0)
(2.42298e-23 0 0)
(3.22291e-19 -1.39287e-17 0)
(-4.97667e-19 0 0)
(4.53629e-19 -1.39287e-17 0)
(-5.01133e-19 -6.89473e-18 0)
(-2.01994e-23 0 0)
(-2.81062e-23 1.37895e-17 0)
(6.43151e-30 0 0)
(1.32885e-17 0 0)
(-1.24467e-22 0 0)
(-1.32868e-17 0 0)
(1.90686e-32 0 0)
(2.67079e-17 0 0)
(-2.62059e-17 -1.39287e-17 0)
(1.27881e-17 0 0)
(-7.24674e-25 0 0)
(3.61923e-18 -1.37895e-17 0)
(8.41121e-13 -6.47687e-18 0)
(5.96229e-08 -4.54077e-16 0)
(7.98207e-05 -3.06318e-16 0)
(0.00304003 -7.10503e-17 0)
(0.0901259 -3.26934e-16 0)
(-0.0901259 -1.74924e-16 0)
(-0.00304003 2.94191e-16 0)
(-7.98207e-05 -4.00971e-16 0)
(-5.96229e-08 -3.33524e-16 0)
(-8.41392e-13 9.05369e-19 0)
(-2.11357e-17 0 0)
(-3.2491e-24 4.31791e-18 0)
(-2.58146e-20 -4.73577e-18 0)
(5.51106e-27 0 0)
(-1.29249e-26 0 0)
(1.35903e-17 0 0)
(6.29967e-21 -1.37895e-17 0)
(-4.09866e-23 1.37895e-17 0)
(-1.66719e-19 0 0)
(-1.37771e-17 -3.67022e-17 0)
(2.76958e-17 -6.96437e-18 0)
(-1.36724e-17 1.37895e-17 0)
(-1.32968e-17 0 0)
(5.7053e-22 -8.07867e-18 0)
(1.37788e-17 -1.83859e-17 0)
(-1.37142e-17 -3.96969e-18 0)
(1.377e-17 -1.82467e-17 0)
(-1.37826e-17 6.89473e-18 0)
(-5.96034e-20 0 0)
(-4.22022e-22 -1.83859e-17 0)
(7.13136e-28 -8.56618e-18 0)
(2.94124e-20 -9.19297e-18 0)
(-1.5444e-19 0 0)
(3.70539e-27 -8.56618e-18 0)
(-2.30986e-28 0 0)
(-5.41599e-27 -8.56618e-18 0)
(1.37792e-17 -1.77592e-17 0)
(-1.3717e-17 0 0)
(-8.40598e-23 -3.69112e-17 0)
(1.2938e-17 0 0)
(8.41424e-13 -1.80517e-16 0)
(5.96229e-08 -9.21387e-17 0)
(7.98207e-05 2.49902e-16 0)
(0.00304003 -6.1046e-16 0)
(0.0901259 -7.32357e-16 0)
(-0.0901259 -1.65684e-16 0)
(-0.00304003 5.48422e-17 0)
(-7.98207e-05 -2.26639e-16 0)
(-5.96229e-08 -7.67474e-17 0)
(-8.40671e-13 -1.76199e-16 0)
(-1.28836e-17 2.18681e-17 0)
(7.99152e-22 2.33307e-17 0)
(-6.89514e-18 2.92504e-17 0)
(1.02872e-21 1.49734e-17 0)
(2.44859e-22 9.12333e-18 0)
(-1.41332e-19 2.17985e-17 0)
(7.03496e-18 1.44859e-17 0)
(-5.82297e-22 8.07867e-18 0)
(-7.03139e-18 7.73045e-18 0)
(1.40483e-19 3.37772e-17 0)
(6.89326e-18 1.37198e-17 0)
(-6.8945e-18 1.12126e-17 0)
(-1.37371e-19 -1.16305e-17 0)
(1.40102e-19 3.51701e-17 0)
(-7.13802e-22 3.42647e-17 0)
(2.84986e-22 3.23843e-17 0)
(2.06165e-17 3.0504e-17 0)
(-1.37191e-17 9.33226e-18 0)
(-6.82515e-18 9.12333e-18 0)
(-7.07369e-20 3.42647e-17 0)
(1.14663e-22 3.67022e-17 0)
(6.89314e-18 3.8513e-17 0)
(-6.89537e-18 8.21796e-18 0)
(1.72767e-21 3.67719e-17 0)
(-4.28076e-23 2.11717e-17 0)
(-8.6076e-22 4.01844e-17 0)
(-1.27006e-21 3.42647e-17 0)
(1.1815e-21 1.13519e-17 0)
(-7.52068e-18 3.79558e-17 0)
(1.80396e-17 2.53503e-17 0)
(8.40671e-13 -2.05728e-16 0)
(5.96229e-08 -8.32243e-17 0)
(7.98207e-05 3.44694e-16 0)
(0.00304003 -2.35647e-16 0)
(0.0901259 4.56173e-16 0)
(-0.0901259 1.11497e-12 0)
(-0.00304003 1.11529e-12 0)
(-7.98207e-05 1.11808e-12 0)
(-5.96229e-08 1.11793e-12 0)
(-8.40451e-13 1.11712e-12 0)
(3.96878e-17 1.11738e-12 0)
(8.85142e-17 1.11768e-12 0)
(-4.03368e-16 1.11735e-12 0)
(1.12551e-16 1.11685e-12 0)
(2.46486e-17 1.11752e-12 0)
(-2.7126e-16 1.11686e-12 0)
(9.4036e-18 1.11678e-12 0)
(8.91323e-18 1.11685e-12 0)
(2.2495e-16 1.11684e-12 0)
(9.94465e-17 1.11751e-12 0)
(-1.37411e-16 1.11713e-12 0)
(1.76234e-17 1.1171e-12 0)
(1.94791e-16 1.11723e-12 0)
(1.23543e-16 1.11768e-12 0)
(-1.27238e-16 1.11751e-12 0)
(3.23143e-17 1.11737e-12 0)
(1.0774e-16 1.11765e-12 0)
(9.12297e-18 1.1176e-12 0)
(-1.35772e-17 1.1177e-12 0)
(-1.35728e-16 1.11752e-12 0)
(1.09965e-17 1.11738e-12 0)
(-1.33995e-16 1.1175e-12 0)
(-7.61197e-17 1.11698e-12 0)
(2.31496e-16 1.11735e-12 0)
(-4.03922e-18 1.11753e-12 0)
(-1.10111e-16 1.11735e-12 0)
(-2.34205e-16 1.11716e-12 0)
(1.15332e-16 1.11685e-12 0)
(2.9842e-16 1.1175e-12 0)
(1.16027e-16 1.11767e-12 0)
(8.4103e-13 1.11806e-12 0)
(5.96229e-08 1.11848e-12 0)
(7.98207e-05 1.1172e-12 0)
(0.00304003 1.11673e-12 0)
(0.0901259 1.11519e-12 0)
(-0.0901259 7.17986e-08 0)
(-0.00304003 7.18741e-08 0)
(-7.98207e-05 7.19461e-08 0)
(-5.96229e-08 7.19458e-08 0)
(-8.40322e-13 7.19458e-08 0)
(-7.99055e-16 7.19458e-08 0)
(-4.63374e-17 7.19458e-08 0)
(2.79618e-16 7.19458e-08 0)
(5.76398e-16 7.19458e-08 0)
(-3.3031e-16 7.19458e-08 0)
(-5.44679e-17 7.19458e-08 0)
(1.28739e-16 7.19458e-08 0)
(-1.1696e-16 7.19458e-08 0)
(3.00234e-16 7.19458e-08 0)
(-2.63655e-16 7.19458e-08 0)
(-3.98885e-16 7.19458e-08 0)
(2.41896e-16 7.19458e-08 0)
(6.26734e-18 7.19458e-08 0)
(-2.59419e-16 7.19458e-08 0)
(-4.38705e-18 7.19458e-08 0)
(5.01379e-18 7.19458e-08 0)
(2.09405e-16 7.19458e-08 0)
(-1.59913e-17 7.19458e-08 0)
(2.09367e-16 7.19458e-08 0)
(4.27187e-16 7.19458e-08 0)
(-4.84362e-16 7.19458e-08 0)
(-1.68553e-16 7.19458e-08 0)
(-3.69018e-18 7.19458e-08 0)
(2.06256e-16 7.19458e-08 0)
(2.01667e-18 7.19458e-08 0)
(-3.72949e-16 7.19458e-08 0)
(2.58604e-16 7.19458e-08 0)
(2.63259e-16 7.19458e-08 0)
(5.30589e-19 7.19458e-08 0)
(2.74179e-16 7.19458e-08 0)
(8.40192e-13 7.19458e-08 0)
(5.96229e-08 7.19458e-08 0)
(7.98207e-05 7.19461e-08 0)
(0.00304003 7.18741e-08 0)
(0.0901259 7.17986e-08 0)
(-0.0901303 8.91027e-05 0)
(-0.00304022 8.90434e-05 0)
(-7.98227e-05 8.91398e-05 0)
(-5.96232e-08 8.91378e-05 0)
(-8.41634e-13 8.91378e-05 0)
(-4.75381e-16 8.91378e-05 0)
(1.34353e-16 8.91378e-05 0)
(-3.58381e-18 8.91378e-05 0)
(-8.46848e-17 8.91378e-05 0)
(4.01184e-16 8.91378e-05 0)
(-5.77414e-17 8.91378e-05 0)
(-2.14323e-16 8.91378e-05 0)
(2.68945e-16 8.91378e-05 0)
(1.29117e-16 8.91378e-05 0)
(-3.64748e-16 8.91378e-05 0)
(-3.30543e-16 8.91378e-05 0)
(1.3393e-16 8.91378e-05 0)
(-1.13121e-16 8.91378e-05 0)
(3.05296e-16 8.91378e-05 0)
(1.99381e-18 8.91378e-05 0)
(4.67026e-18 8.91378e-05 0)
(2.95433e-16 8.91378e-05 0)
(-3.60279e-16 8.91378e-05 0)
(2.28241e-16 8.91378e-05 0)
(-1.34497e-16 8.91378e-05 0)
(-4.60038e-16 8.91378e-05 0)
(2.27495e-16 8.91378e-05 0)
(4.114e-18 8.91378e-05 0)
(-4.44693e-18 8.91378e-05 0)
(-5.50252e-18 8.91378e-05 0)
(-2.3647e-16 8.91378e-05 0)
(3.07311e-16 8.91378e-05 0)
(2.46394e-19 8.91378e-05 0)
(-2.32661e-16 8.91378e-05 0)
(5.421e-16 8.91378e-05 0)
(8.40196e-13 8.91378e-05 0)
(5.96232e-08 8.91378e-05 0)
(7.98227e-05 8.91398e-05 0)
(0.00304022 8.90434e-05 0)
(0.0901303 8.91027e-05 0)
(-0.0900652 0.00325927 0)
(-0.00303796 0.00325889 0)
(-7.97297e-05 0.00326113 0)
(-5.9559e-08 0.00326095 0)
(-8.40444e-13 0.00326095 0)
(3.67332e-16 0.00326095 0)
(1.04059e-16 0.00326095 0)
(-6.88994e-16 0.00326095 0)
(-1.60269e-17 0.00326095 0)
(3.92356e-16 0.00326095 0)
(-7.80629e-17 0.00326095 0)
(1.74816e-16 0.00326095 0)
(-1.04845e-17 0.00326095 0)
(-4.13319e-16 0.00326095 0)
(6.09825e-16 0.00326095 0)
(2.52651e-16 0.00326095 0)
(-3.59785e-16 0.00326095 0)
(-2.0049e-16 0.00326095 0)
(-1.79266e-17 0.00326095 0)
(-1.61484e-16 0.00326095 0)
(2.29208e-17 0.00326095 0)
(1.84668e-16 0.00326095 0)
(2.14081e-16 0.00326095 0)
(-2.56266e-16 0.00326095 0)
(-1.56476e-16 0.00326095 0)
(-2.82387e-18 0.00326095 0)
(3.634e-16 0.00326095 0)
(4.41483e-17 0.00326095 0)
(-4.14144e-16 0.00326095 0)
(-4.76056e-18 0.00326095 0)
(1.59197e-16 0.00326095 0)
(4.20251e-16 0.00326095 0)
(-2.27031e-16 0.00326095 0)
(-3.7329e-16 0.00326095 0)
(6.46858e-17 0.00326095 0)
(8.3969e-13 0.00326095 0)
(5.9559e-08 0.00326095 0)
(7.97297e-05 0.00326113 0)
(0.00303796 0.00325889 0)
(0.0900652 0.00325927 0)
(-0.0900885 0.0933588 0)
(-0.00303834 0.0933366 0)
(-7.97861e-05 0.093399 0)
(-5.94916e-08 0.0933949 0)
(-8.39432e-13 0.0933949 0)
(-9.62177e-16 0.0933949 0)
(4.03742e-16 0.0933949 0)
(4.592e-16 0.0933949 0)
(-5.54041e-16 0.0933949 0)
(-2.72715e-16 0.0933949 0)
(5.02591e-16 0.0933949 0)
(8.31831e-17 0.0933949 0)
(-2.06693e-16 0.0933949 0)
(4.25102e-16 0.0933949 0)
(1.55661e-16 0.0933949 0)
(-4.70929e-16 0.0933949 0)
(-3.90392e-16 0.0933949 0)
(1.942e-18 0.0933949 0)
(-1.22683e-16 0.0933949 0)
(-6.66643e-18 0.0933949 0)
(1.17345e-17 0.0933949 0)
(5.00019e-16 0.0933949 0)
(1.6189e-17 0.0933949 0)
(-4.97877e-16 0.0933949 0)
(3.96989e-16 0.0933949 0)
(1.56937e-17 0.0933949 0)
(-7.03296e-17 0.0933949 0)
(-2.56848e-18 0.0933949 0)
(8.6848e-17 0.0933949 0)
(1.25312e-16 0.0933949 0)
(-5.52501e-16 0.0933949 0)
(3.01674e-16 0.0933949 0)
(2.20297e-16 0.0933949 0)
(-2.79119e-18 0.0933949 0)
(1.16263e-16 0.0933949 0)
(8.38532e-13 0.0933949 0)
(5.94916e-08 0.0933949 0)
(7.97861e-05 0.093399 0)
(0.00303834 0.0933366 0)
(0.0900885 0.0933588 0)
(-0.0900885 -0.0933588 0)
(-0.00303834 -0.0933366 0)
(-7.97861e-05 -0.093399 0)
(-5.94916e-08 -0.0933949 0)
(-8.39497e-13 -0.0933949 0)
(-1.30904e-16 -0.0933949 0)
(2.81428e-18 -0.0933949 0)
(1.21317e-16 -0.0933949 0)
(-4.25895e-16 -0.0933949 0)
(9.93238e-17 -0.0933949 0)
(5.47783e-16 -0.0933949 0)
(-2.36607e-16 -0.0933949 0)
(-2.94848e-16 -0.0933949 0)
(1.14163e-16 -0.0933949 0)
(-8.51684e-17 -0.0933949 0)
(-3.27075e-16 -0.0933949 0)
(2.53043e-16 -0.0933949 0)
(2.27904e-16 -0.0933949 0)
(3.0235e-16 -0.0933949 0)
(-7.33915e-17 -0.0933949 0)
(-4.30719e-20 -0.0933949 0)
(1.29616e-16 -0.0933949 0)
(-7.62669e-17 -0.0933949 0)
(2.2298e-17 -0.0933949 0)
(-6.8944e-17 -0.0933949 0)
(-1.57216e-16 -0.0933949 0)
(-2.74892e-17 -0.0933949 0)
(-7.71816e-18 -0.0933949 0)
(-3.10939e-17 -0.0933949 0)
(6.27287e-18 -0.0933949 0)
(6.22641e-17 -0.0933949 0)
(6.07148e-17 -0.0933949 0)
(-6.60898e-18 -0.0933949 0)
(-4.21256e-17 -0.0933949 0)
(2.54018e-16 -0.0933949 0)
(8.38804e-13 -0.0933949 0)
(5.94916e-08 -0.0933949 0)
(7.97861e-05 -0.093399 0)
(0.00303834 -0.0933366 0)
(0.0900885 -0.0933588 0)
(-0.0900652 -0.00325927 0)
(-0.00303796 -0.00325889 0)
(-7.97297e-05 -0.00326113 0)
(-5.9559e-08 -0.00326095 0)
(-8.4113e-13 -0.00326095 0)
(4.22133e-16 -0.00326095 0)
(9.3874e-17 -0.00326095 0)
(-7.18962e-16 -0.00326095 0)
(-3.60749e-17 -0.00326095 0)
(6.7806e-16 -0.00326095 0)
(-9.79103e-17 -0.00326095 0)
(-6.33518e-17 -0.00326095 0)
(-5.53541e-17 -0.00326095 0)
(-4.25803e-16 -0.00326095 0)
(6.35849e-16 -0.00326095 0)
(3.0016e-16 -0.00326095 0)
(-3.34479e-16 -0.00326095 0)
(-3.74314e-16 -0.00326095 0)
(3.5817e-17 -0.00326095 0)
(-1.92137e-16 -0.00326095 0)
(-6.00627e-18 -0.00326095 0)
(4.21076e-16 -0.00326095 0)
(2.89668e-17 -0.00326095 0)
(-1.39828e-16 -0.00326095 0)
(-1.23039e-16 -0.00326095 0)
(-1.60153e-16 -0.00326095 0)
(4.78366e-16 -0.00326095 0)
(-9.92128e-17 -0.00326095 0)
(-3.78614e-16 -0.00326095 0)
(8.31435e-17 -0.00326095 0)
(1.62545e-16 -0.00326095 0)
(4.39794e-16 -0.00326095 0)
(-2.04467e-16 -0.00326095 0)
(-4.0467e-16 -0.00326095 0)
(3.88604e-17 -0.00326095 0)
(8.39787e-13 -0.00326095 0)