/*--------------------------------*- C++ -*----------------------------------*\
| =========                 |                                                 |
| \\      /  F ield         | OpenFOAM: The Open Source CFD Toolbox           |
|  \\    /   O peration     | Version:  v1912                                 |
|   \\  /    A nd           | Website:  www.openfoam.com                      |
|    \\/     M anipulation  |                                                 |
\*---------------------------------------------------------------------------*/
FoamFile
{
    version     2.0;
    format      ascii;
    class       volScalarField;
    location    "6.26";
    object      p;
}
// * * * * * * * * * * * * * * * * * * * * * * * * * * * * * * * * * * * * * //

dimensions      [1 -1 -2 0 0 0 0];


internalField   nonuniform List<scalar> 
1900
(
31262.3
9548.85
8752.92
8720.51
8684.51
8677.63
8683.77
8700.56
8711.85
8720.43
31262.3
9548.78
8752.91
8720.66
8685.3
8678.36
8684.66
8700.49
8721.9
8724.67
31262.2
9548.75
8752.99
8720.88
8685.83
8678.58
8683.9
8698.27
8713.44
8711.79
31262.3
9548.78
8752.91
8720.66
8685.3
8678.36
8684.66
8700.49
8721.9
8724.67
31262.3
9548.85
8752.92
8720.51
8684.51
8677.63
8683.77
8700.56
8711.85
8720.43
8845.07
8684.48
8614.77
8431.74
8669.76
8709.13
8599.24
8532.86
8349.43
8220.28
8675.11
8579.89
8516.25
8368.37
8250.49
8709.13
8599.24
8532.86
8349.43
8220.28
8845.07
8684.48
8614.77
8431.74
8669.76
3634.62
2086.84
1351.42
1120.13
1135.97
4099.64
2303.38
1475.68
1193.24
1212.33
4211.04
2263.43
1430.49
1153.34
1176.48
4099.64
2303.38
1475.68
1193.24
1212.33
3634.62
2086.84
1351.42
1120.13
1135.97
961.631
688.293
518.188
603.946
1093.37
1405.25
1464.84
1475.36
1397.37
1246.92
1041.79
833.959
699.479
635.546
596.97
564.46
535.54
510.497
492.527
481.815
475.764
471.788
468.571
465.771
463.437
461.8
460.858
460.873
461.956
464.096
466.747
470.777
475.16
483.266
493.5
509.884
525.19
564.452
667.659
670.415
1079.15
726.371
503.503
560.132
1077.13
1439.57
1503.98
1510.25
1417.51
1256.86
1047.08
836.398
700.291
635.811
597.108
564.548
535.725
510.552
492.522
481.797
475.747
471.774
468.558
465.757
463.422
461.783
460.84
460.853
461.935
464.075
466.725
470.758
475.131
483.267
493.489
509.921
525.187
564.341
667.471
669.745
1048.58
708.997
502.364
547.335
1064.7
1442.6
1499.93
1502.83
1413.33
1255.99
1048.3
837.646
700.704
635.923
597.178
564.579
535.785
510.579
492.524
481.792
475.742
471.77
468.555
465.754
463.417
461.777
460.834
460.846
461.926
464.067
466.716
470.749
475.119
483.263
493.487
509.938
525.174
564.356
667.405
669.572
1079.15
726.371
503.503
560.132
1077.13
1439.57
1503.98
1510.25
1417.51
1256.86
1047.08
836.398
700.291
635.811
597.108
564.548
535.725
510.552
492.522
481.797
475.747
471.774
468.558
465.757
463.422
461.783
460.84
460.853
461.935
464.075
466.725
470.758
475.131
483.267
493.489
509.921
525.187
564.341
667.471
669.745
961.631
688.293
518.188
603.946
1093.37
1405.25
1464.84
1475.36
1397.37
1246.92
1041.79
833.959
699.479
635.546
596.97
564.46
535.54
510.497
492.527
481.815
475.764
471.788
468.571
465.771
463.437
461.8
460.858
460.873
461.956
464.096
466.747
470.777
475.16
483.266
493.5
509.884
525.19
564.452
667.659
670.415
956.22
798.279
748.246
826.987
1137.2
1350.47
1422.8
1434.15
1359.15
1217.46
1021.72
823.052
695.253
634.168
596.311
563.787
534.712
510.126
492.478
481.872
475.83
471.842
468.617
465.818
463.492
461.866
460.93
460.95
462.037
464.169
466.825
470.841
475.256
483.243
493.49
509.679
525.246
564.853
667.958
671.787
984.177
896.292
899.978
990.655
1160.69
1274.85
1317.55
1320.95
1268.32
1148.53
970.737
793.671
684.338
630.824
594.475
561.89
532.939
509.207
492.305
482.01
476.01
471.994
468.749
465.955
463.65
462.05
461.129
461.166
462.259
464.378
467.037
471.035
475.493
483.28
493.382
509.246
525.557
566.109
669.57
673.126
947.703
899.739
957.889
1010.69
1083.72
1167.77
1232.86
1222.26
1172.17
1060.33
902.686
756.449
671.045
625.988
591.283
558.96
530.582
507.94
492.019
482.198
476.303
472.266
469
466.214
463.94
462.373
461.478
461.54
462.632
464.729
467.393
471.365
475.881
483.414
493.264
508.757
526
567.762
671.223
674.027
942.6
910.089
931.017
959.741
1023.07
1080.5
1119.98
1121.68
1072.73
966.766
831.727
720.303
657.96
619.986
586.871
555.232
527.858
506.547
491.75
482.493
476.749
472.705
469.421
466.648
464.409
462.88
462.017
462.106
463.185
465.247
467.91
471.854
476.414
483.697
493.209
508.394
526.508
569.618
673.348
675.631
911.003
918.832
893.087
900.403
926.249
993.671
1031.4
1023.7
971.052
875.135
767.893
689.953
645.179
612.727
581.263
550.832
524.927
505.188
491.609
482.974
477.414
473.381
470.086
467.33
465.127
463.635
462.805
462.908
463.955
465.962
468.602
472.503
477.075
484.119
493.277
508.215
526.988
571.33
675.207
677.104
851.85
853.998
808.737
830.971
865.256
928.265
948.163
930.787
876.37
795.277
717.718
666.53
633.617
605.207
575.298
546.378
522.249
504.172
491.835
483.822
478.457
474.447
471.15
468.413
466.246
464.788
463.984
464.084
465.083
467.017
469.617
473.465
478.023
484.863
493.717
508.478
527.914
573.273
677.465
678.854
804.715
806.179
756.424
780.548
825.172
865.978
870.637
846.932
795.052
732.794
681.397
647.869
622.545
596.929
568.704
541.787
519.796
503.553
492.454
485.047
479.887
475.916
472.626
469.91
467.771
466.338
465.541
465.597
466.518
468.344
470.862
474.618
479.114
485.751
494.327
508.929
528.979
575.046
678.944
680.232
777.726
778.497
722.338
739.391
792.981
804.694
801.165
774.153
729.981
687.677
655.519
633.218
612.943
589.245
562.697
537.971
518.165
503.809
493.854
487.002
482.034
478.105
474.823
472.122
470.001
468.58
467.761
467.737
468.558
470.247
472.648
476.282
480.681
487.128
495.492
509.952
530.84
577.362
681.167
682.407
764.468
761.113
699.078
706.223
756.317
750.821
740.77
714.997
682.921
657.49
637.421
621.462
603.818
581.444
556.817
534.62
517.163
504.52
495.658
489.327
484.556
480.687
477.428
474.753
472.656
471.243
470.372
470.256
470.964
472.504
474.764
478.261
482.546
488.831
497.034
511.313
532.92
579.905
683.438
684.756
758.712
749.069
681.719
681.131
713.466
704.316
690.452
671.19
651.695
637.034
624.439
612.244
595.873
574.592
552.003
532.392
517.367
506.324
498.436
492.567
487.979
484.169
480.929
478.264
476.166
474.718
473.769
473.544
474.092
475.463
477.563
480.903
485.066
491.208
499.318
513.391
535.724
583.358
686.622
688.155
754.339
739.306
666.169
657.996
670.09
663.914
653.325
643.402
632.556
623.828
615.042
604.208
588.243
568.255
548.083
531.093
518.102
508.503
501.435
495.972
491.573
487.863
484.697
482.098
480.045
478.602
477.617
477.323
477.727
478.952
480.917
484.134
488.212
494.28
502.38
516.323
539.406
587.857
690.779
692.465
746.754
729.244
650.079
633.648
637.585
635.879
631.783
626.858
620.486
615.391
608.776
598.31
582.402
563.552
546.013
531.665
520.492
512.154
505.781
500.671
496.441
492.81
489.685
487.111
485.059
483.586
482.541
482.163
482.408
483.48
485.318
488.42
492.444
498.474
506.642
520.542
544.356
593.691
695.909
698.2
739.748
721.554
635.686
612.634
621.106
621.942
620.844
618.293
614.266
610.475
604.194
593.251
577.581
560.646
545.517
533.238
523.688
516.329
510.47
505.618
501.563
498.103
495.147
492.712
490.745
489.302
488.234
487.786
487.885
488.837
490.579
493.619
497.648
503.732
512.069
526.068
550.699
600.913
702.001
704.648
738.799
720.33
628.818
603.319
613.916
615.204
615.637
614.651
612.351
609.084
601.989
590.238
575.55
561.192
548.575
538.414
530.531
524.294
519.144
514.687
510.791
507.297
504.174
501.511
499.301
497.646
496.372
495.728
495.606
496.431
498.061
501.032
505.098
511.274
519.841
534.113
559.618
610.442
709.5
712.955
740.149
720.936
627.379
601.673
613.896
615.524
617.083
616.38
614.391
610.225
601.97
590.463
577.525
565.307
554.996
546.831
540.397
535.092
530.444
526.197
522.403
518.97
515.808
512.968
510.489
508.552
507
506.134
505.827
506.548
508.122
511.159
515.421
521.893
530.919
545.782
572.353
623.398
719.126
722.719
746.692
727.973
635.113
609.312
622.952
624.847
626.873
625.946
623.496
618.071
609.216
598.381
586.986
576.853
568.393
561.658
556.222
551.638
547.548
543.685
540.01
536.418
532.976
529.899
527.263
525.28
523.694
522.862
522.517
523.074
524.566
527.631
532.095
538.963
548.634
564.462
592.248
642.732
732.718
735.83
758.642
744.617
659.893
633.337
647.184
647.399
648.155
645.333
640.714
633.455
623.745
613.161
602.577
593.225
585.158
578.394
572.564
567.443
562.901
558.877
555.482
552.627
550.246
548.35
546.809
545.868
545.145
545.364
545.968
547.534
550.036
554.085
559.612
567.552
578.42
595.581
623.659
670.446
749.846
746.799
771.619
761.799
700.156
672.472
685.632
682.568
680.403
674.055
666.28
657.189
646.993
637.493
628.887
621.735
615.534
610.103
605.267
600.996
597.281
594.21
592.101
590.881
590.313
590.221
590.368
590.905
591.372
592.547
593.927
596.436
600.049
605.285
612.051
620.95
632.249
648.865
673.399
709.257
760.131
733.148
1616.22
721.54
738.937
729.86
738.47
733.918
730.222
723.787
716.636
710.148
703.504
698.074
693.547
690.31
687.952
686.376
685.416
684.947
684.763
684.786
685.445
686.626
687.885
689.112
690.426
692.232
693.34
695.305
696.997
699.737
703.251
707.977
713.829
720.929
728.981
740.302
753.931
763.091
701.926
1357.76
27991.1
1380.47
672.732
688.915
693.206
690.127
687.035
684.124
679.975
677.694
675.531
674.763
674.771
675.772
677.334
679.323
681.378
683.217
684.762
686.039
687.49
689.062
690.432
691.565
692.558
693.892
695.025
697.094
699.016
702.032
705.798
711.148
717.441
725.655
734.201
745.63
753.626
736.769
1293.89
23622.4
27991.1
1380.47
672.732
688.915
693.206
690.127
687.035
684.124
679.975
677.694
675.531
674.763
674.771
675.772
677.334
679.323
681.378
683.217
684.762
686.039
687.49
689.062
690.432
691.565
692.558
693.892
695.025
697.094
699.016
702.032
705.798
711.148
717.441
725.655
734.201
745.63
753.626
736.769
1293.89
23622.4
1616.22
721.54
738.937
729.86
738.47
733.918
730.222
723.787
716.636
710.148
703.504
698.074
693.547
690.31
687.952
686.376
685.416
684.947
684.763
684.786
685.445
686.626
687.885
689.112
690.426
692.232
693.34
695.305
696.997
699.737
703.251
707.977
713.829
720.929
728.981
740.302
753.931
763.091
701.926
1357.76
771.619
761.799
700.156
672.472
685.632
682.568
680.403
674.055
666.28
657.189
646.993
637.493
628.887
621.735
615.534
610.103
605.267
600.996
597.281
594.21
592.101
590.881
590.313
590.221
590.368
590.905
591.372
592.547
593.927
596.436
600.049
605.285
612.051
620.95
632.249
648.865
673.399
709.257
760.131
733.148
758.642
744.617
659.893
633.337
647.184
647.399
648.155
645.333
640.714
633.455
623.745
613.161
602.577
593.225
585.158
578.394
572.564
567.443
562.901
558.877
555.482
552.627
550.246
548.35
546.809
545.868
545.145
545.364
545.968
547.534
550.036
554.085
559.612
567.552
578.42
595.581
623.659
670.446
749.846
746.799
746.692
727.973
635.113
609.312
622.952
624.847
626.873
625.946
623.496
618.071
609.216
598.381
586.986
576.853
568.393
561.658
556.222
551.638
547.548
543.685
540.01
536.418
532.976
529.899
527.263
525.28
523.694
522.862
522.517
523.074
524.566
527.631
532.095
538.963
548.634
564.462
592.248
642.732
732.718
735.83
740.149
720.936
627.379
601.673
613.896
615.524
617.083
616.38
614.391
610.225
601.97
590.463
577.525
565.307
554.996
546.831
540.397
535.092
530.444
526.197
522.403
518.97
515.808
512.968
510.489
508.552
507
506.134
505.827
506.548
508.122
511.159
515.421
521.893
530.919
545.782
572.353
623.398
719.126
722.719
738.799
720.33
628.818
603.319
613.916
615.204
615.637
614.651
612.351
609.084
601.989
590.238
575.55
561.192
548.575
538.414
530.531
524.294
519.144
514.687
510.791
507.297
504.174
501.511
499.301
497.646
496.372
495.728
495.606
496.431
498.061
501.032
505.098
511.274
519.841
534.113
559.618
610.442
709.5
712.955
739.748
721.554
635.686
612.634
621.106
621.942
620.844
618.293
614.266
610.475
604.194
593.251
577.581
560.646
545.517
533.238
523.688
516.329
510.47
505.618
501.563
498.103
495.147
492.712
490.745
489.302
488.234
487.786
487.885
488.837
490.579
493.619
497.648
503.732
512.069
526.068
550.699
600.913
702.001
704.648
746.754
729.244
650.079
633.648
637.585
635.879
631.783
626.858
620.486
615.391
608.776
598.31
582.402
563.552
546.013
531.665
520.492
512.154
505.781
500.671
496.441
492.81
489.685
487.111
485.059
483.586
482.541
482.163
482.408
483.48
485.318
488.42
492.444
498.474
506.642
520.542
544.356
593.691
695.909
698.2
754.339
739.306
666.169
657.996
670.09
663.914
653.325
643.402
632.556
623.828
615.042
604.208
588.243
568.255
548.083
531.093
518.102
508.503
501.435
495.972
491.573
487.863
484.697
482.098
480.045
478.602
477.617
477.323
477.727
478.952
480.917
484.134
488.212
494.28
502.38
516.323
539.406
587.857
690.779
692.465
758.712
749.069
681.719
681.131
713.466
704.316
690.452
671.19
651.695
637.034
624.439
612.244
595.873
574.592
552.003
532.392
517.367
506.324
498.436
492.567
487.979
484.169
480.929
478.264
476.166
474.718
473.769
473.544
474.092
475.463
477.563
480.903
485.066
491.208
499.318
513.391
535.724
583.358
686.622
688.155
764.468
761.113
699.078
706.223
756.317
750.821
740.77
714.997
682.921
657.49
637.421
621.462
603.818
581.444
556.817
534.62
517.163
504.52
495.658
489.327
484.556
480.687
477.428
474.753
472.656
471.243
470.372
470.256
470.964
472.504
474.764
478.261
482.546
488.831
497.034
511.313
532.92
579.905
683.438
684.756
777.726
778.497
722.338
739.391
792.981
804.694
801.165
774.153
729.981
687.677
655.519
633.218
612.943
589.245
562.697
537.971
518.165
503.809
493.854
487.002
482.034
478.105
474.823
472.122
470.001
468.58
467.761
467.737
468.558
470.247
472.648
476.282
480.681
487.128
495.492
509.952
530.84
577.362
681.167
682.407
804.715
806.179
756.424
780.548
825.172
865.978
870.637
846.932
795.052
732.794
681.397
647.869
622.545
596.929
568.704
541.787
519.796
503.553
492.454
485.047
479.887
475.916
472.626
469.91
467.771
466.338
465.541
465.597
466.518
468.344
470.862
474.618
479.114
485.751
494.327
508.929
528.979
575.046
678.944
680.232
851.85
853.998
808.737
830.971
865.256
928.265
948.163
930.787
876.37
795.277
717.718
666.53
633.617
605.207
575.298
546.378
522.249
504.172
491.835
483.822
478.457
474.447
471.15
468.413
466.246
464.788
463.984
464.084
465.083
467.017
469.617
473.465
478.023
484.863
493.717
508.478
527.914
573.273
677.465
678.854
911.003
918.832
893.087
900.403
926.249
993.671
1031.4
1023.7
971.052
875.135
767.893
689.953
645.179
612.727
581.263
550.832
524.927
505.188
491.609
482.974
477.414
473.381
470.086
467.33
465.127
463.635
462.805
462.908
463.955
465.962
468.602
472.503
477.075
484.119
493.277
508.215
526.988
571.33
675.207
677.104
942.6
910.089
931.017
959.741
1023.07
1080.5
1119.98
1121.68
1072.73
966.766
831.727
720.303
657.96
619.986
586.871
555.232
527.858
506.547
491.75
482.493
476.749
472.705
469.421
466.648
464.409
462.88
462.017
462.106
463.185
465.247
467.91
471.854
476.414
483.697
493.209
508.394
526.508
569.618
673.348
675.631
947.703
899.739
957.889
1010.69
1083.72
1167.77
1232.86
1222.26
1172.17
1060.33
902.686
756.449
671.045
625.988
591.283
558.96
530.582
507.94
492.019
482.198
476.303
472.266
469
466.214
463.94
462.373
461.478
461.54
462.632
464.729
467.393
471.365
475.881
483.414
493.264
508.757
526
567.762
671.223
674.027
984.177
896.292
899.978
990.655
1160.69
1274.85
1317.55
1320.95
1268.32
1148.53
970.737
793.671
684.338
630.824
594.475
561.89
532.939
509.207
492.305
482.01
476.01
471.994
468.749
465.955
463.65
462.05
461.129
461.166
462.259
464.378
467.037
471.035
475.493
483.28
493.382
509.246
525.557
566.109
669.57
673.126
956.22
798.279
748.246
826.987
1137.2
1350.47
1422.8
1434.15
1359.15
1217.46
1021.72
823.052
695.253
634.168
596.311
563.787
534.712
510.126
492.478
481.872
475.83
471.842
468.617
465.818
463.492
461.866
460.93
460.95
462.037
464.169
466.825
470.841
475.256
483.243
493.49
509.679
525.246
564.853
667.958
671.787
)
;

boundaryField
{
    inlet
    {
        type            fixedValue;
        value           uniform 10000;
    }
    outlet
    {
        type            fixedValue;
        value           uniform 1000;
    }
    obstacle
    {
        type            zeroGradient;
    }
    empty
    {
        type            empty;
    }
}


// ************************************************************************* //
