/*--------------------------------*- C++ -*----------------------------------*\
| =========                 |                                                 |
| \\      /  F ield         | OpenFOAM: The Open Source CFD Toolbox           |
|  \\    /   O peration     | Version:  v1912                                 |
|   \\  /    A nd           | Website:  www.openfoam.com                      |
|    \\/     M anipulation  |                                                 |
\*---------------------------------------------------------------------------*/
FoamFile
{
    version     2.0;
    format      ascii;
    class       volVectorField;
    location    "6.26";
    object      U;
}
// * * * * * * * * * * * * * * * * * * * * * * * * * * * * * * * * * * * * * //

dimensions      [0 1 -1 0 0 0 0];


internalField   nonuniform List<vector> 
1900
(
(-0.81454 -5.60672e-07 0)
(-0.0614678 -1.10611e-07 0)
(0.089661 1.03858e-05 0)
(0.0865438 1.62689e-05 0)
(0.0896741 2.80758e-05 0)
(0.0918026 -8.80786e-05 0)
(0.0935567 -0.000215948 0)
(0.0958452 0.000268569 0)
(0.096637 0.00323452 0)
(0.0879153 0.0116531 0)
(-0.814538 1.73765e-06 0)
(-0.0614629 2.32296e-06 0)
(0.0896681 1.11527e-05 0)
(0.086544 1.0028e-05 0)
(0.089655 -4.65175e-06 0)
(0.0917074 -0.000112399 0)
(0.0933523 -0.000229638 0)
(0.0953083 0.000260955 0)
(0.0978221 0.00222229 0)
(0.0990387 0.0106433 0)
(-0.814537 9.63766e-14 0)
(-0.0614617 3.35875e-14 0)
(0.089667 -9.18621e-14 0)
(0.0865346 -6.40917e-14 0)
(0.0896274 1.58302e-16 0)
(0.0916708 2.44529e-14 0)
(0.093302 -9.47489e-14 0)
(0.0951715 -9.96036e-14 0)
(0.0984967 -6.19359e-14 0)
(0.105661 3.40946e-14 0)
(-0.814538 -1.73765e-06 0)
(-0.0614629 -2.32296e-06 0)
(0.0896681 -1.11527e-05 0)
(0.086544 -1.0028e-05 0)
(0.089655 4.65175e-06 0)
(0.0917074 0.000112399 0)
(0.0933523 0.000229638 0)
(0.0953083 -0.000260955 0)
(0.0978221 -0.00222229 0)
(0.0990387 -0.0106433 0)
(-0.81454 5.60672e-07 0)
(-0.0614678 1.10611e-07 0)
(0.089661 -1.03858e-05 0)
(0.0865438 -1.62689e-05 0)
(0.0896741 -2.80758e-05 0)
(0.0918026 8.80786e-05 0)
(0.0935567 0.000215948 0)
(0.0958452 -0.000268569 0)
(0.096637 -0.00323452 0)
(0.0879153 -0.0116531 0)
(0.0901298 0.0372428 0)
(0.125477 0.0503245 0)
(0.172443 0.0736342 0)
(0.248706 0.115351 0)
(0.393154 0.171934 0)
(0.112916 0.0264446 0)
(0.139081 0.0278595 0)
(0.169885 0.0370508 0)
(0.232746 0.0588635 0)
(0.373961 0.101498 0)
(0.123778 5.15043e-14 0)
(0.148007 4.09641e-14 0)
(0.180259 7.21622e-14 0)
(0.243546 5.40672e-14 0)
(0.384339 5.37107e-14 0)
(0.112916 -0.0264446 0)
(0.139081 -0.0278595 0)
(0.169885 -0.0370508 0)
(0.232746 -0.0588635 0)
(0.373961 -0.101498 0)
(0.0901298 -0.0372428 0)
(0.125477 -0.0503245 0)
(0.172443 -0.0736342 0)
(0.248706 -0.115351 0)
(0.393154 -0.171934 0)
(0.845823 0.0281252 0)
(1.11042 -0.0515466 0)
(1.31107 -0.0802526 0)
(1.3818 -0.103864 0)
(1.31592 -0.0935615 0)
(0.820732 -0.0182169 0)
(1.1216 -0.0483456 0)
(1.33938 -0.0610403 0)
(1.41744 -0.0646789 0)
(1.35013 -0.0580109 0)
(0.817519 1.38628e-14 0)
(1.12549 1.38012e-14 0)
(1.33405 -1.23833e-14 0)
(1.40697 5.43487e-14 0)
(1.34282 -2.79349e-14 0)
(0.820732 0.0182169 0)
(1.1216 0.0483456 0)
(1.33938 0.0610403 0)
(1.41744 0.0646789 0)
(1.35013 0.0580109 0)
(0.845823 -0.0281252 0)
(1.11042 0.0515466 0)
(1.31107 0.0802526 0)
(1.3818 0.103864 0)
(1.31592 0.0935615 0)
(1.30802 -0.163906 0)
(1.35879 -0.221241 0)
(1.44359 -0.128581 0)
(1.36028 -0.0086996 0)
(1.06518 -0.00815046 0)
(0.816187 -0.0555328 0)
(0.675129 -0.097031 0)
(0.519487 -0.113531 0)
(0.394345 -0.0875703 0)
(0.295998 -0.0575693 0)
(0.199063 -0.0375044 0)
(0.099388 -0.0257922 0)
(0.032948 -0.0201323 0)
(0.00927777 -0.0178647 0)
(0.00317767 -0.0169166 0)
(0.00117007 -0.0163594 0)
(0.000832872 -0.0155798 0)
(0.00356455 -0.0149516 0)
(0.0121638 -0.0147222 0)
(0.0271077 -0.014712 0)
(0.0460825 -0.0147102 0)
(0.0668147 -0.0146621 0)
(0.0881264 -0.0146233 0)
(0.109576 -0.0145916 0)
(0.131041 -0.0145612 0)
(0.152529 -0.0145232 0)
(0.173749 -0.0145386 0)
(0.195387 -0.014412 0)
(0.216064 -0.0145413 0)
(0.236426 -0.0143981 0)
(0.256536 -0.0146067 0)
(0.276111 -0.0143245 0)
(0.295096 -0.0148787 0)
(0.311677 -0.0141421 0)
(0.325608 -0.0152799 0)
(0.335195 -0.0144502 0)
(0.346019 -0.0153078 0)
(0.336862 -0.0152746 0)
(0.282419 -0.0158289 0)
(0.0792854 -0.0157835 0)
(1.33918 -0.0818502 0)
(1.41265 -0.117108 0)
(1.46385 -0.0628375 0)
(1.40302 -0.0118658 0)
(1.09293 -0.00265098 0)
(0.825694 -0.0250572 0)
(0.704377 -0.0471346 0)
(0.551949 -0.0562499 0)
(0.414133 -0.042683 0)
(0.30503 -0.0277068 0)
(0.202465 -0.0185641 0)
(0.10039 -0.0129484 0)
(0.0330098 -0.0100489 0)
(0.00908472 -0.00890056 0)
(0.00297423 -0.00845126 0)
(0.00107127 -0.00817241 0)
(0.000718989 -0.0077675 0)
(0.00340914 -0.00746329 0)
(0.0120576 -0.00735245 0)
(0.0270549 -0.00735299 0)
(0.0460786 -0.00735307 0)
(0.066861 -0.00732906 0)
(0.0882217 -0.0073098 0)
(0.109717 -0.00729419 0)
(0.131224 -0.00727938 0)
(0.152751 -0.00726073 0)
(0.174008 -0.00726859 0)
(0.195681 -0.00720546 0)
(0.21639 -0.00727024 0)
(0.236781 -0.00719827 0)
(0.25692 -0.00730275 0)
(0.276521 -0.00716042 0)
(0.295525 -0.00743958 0)
(0.312101 -0.00706107 0)
(0.326053 -0.00763477 0)
(0.335583 -0.00721028 0)
(0.346527 -0.00762427 0)
(0.337379 -0.00764686 0)
(0.282511 -0.00790459 0)
(0.0786032 -0.00787216 0)
(1.32201 -9.75192e-14 0)
(1.37992 8.58195e-15 0)
(1.43477 -1.22292e-13 0)
(1.3984 -1.32954e-12 0)
(1.09803 -1.80851e-11 0)
(0.814992 -2.43022e-12 0)
(0.690071 2.39699e-12 0)
(0.534909 -2.86047e-12 0)
(0.401808 -9.14757e-13 0)
(0.301241 4.00655e-12 0)
(0.203635 4.5143e-12 0)
(0.101645 3.79614e-12 0)
(0.0332713 4.37001e-12 0)
(0.00906548 6.01684e-12 0)
(0.00294552 7.14101e-12 0)
(0.00107943 6.96237e-12 0)
(0.000754284 4.41482e-12 0)
(0.00342211 -2.76477e-12 0)
(0.0120517 -1.17645e-11 0)
(0.027052 -1.19183e-11 0)
(0.0460849 -6.47e-12 0)
(0.0668764 4.23478e-12 0)
(0.0882451 7.80219e-12 0)
(0.109748 9.59244e-13 0)
(0.131263 -1.14984e-11 0)
(0.152798 -1.59759e-11 0)
(0.174064 -2.099e-11 0)
(0.195748 -1.73818e-11 0)
(0.216471 -4.55607e-12 0)
(0.23688 -8.21503e-12 0)
(0.257044 5.74598e-13 0)
(0.276675 1.19418e-11 0)
(0.29572 3.90357e-12 0)
(0.312346 -1.36331e-12 0)
(0.326384 3.85061e-12 0)
(0.336007 1.16449e-11 0)
(0.34715 5.18356e-12 0)
(0.338336 5.15448e-12 0)
(0.28358 3.10379e-12 0)
(0.0796127 1.29956e-12 0)
(1.33918 0.0818502 0)
(1.41265 0.117108 0)
(1.46385 0.0628375 0)
(1.40302 0.0118658 0)
(1.09293 0.00265098 0)
(0.825694 0.0250572 0)
(0.704377 0.0471346 0)
(0.551949 0.0562499 0)
(0.414133 0.042683 0)
(0.30503 0.0277068 0)
(0.202465 0.0185641 0)
(0.10039 0.0129484 0)
(0.0330098 0.0100489 0)
(0.00908472 0.00890056 0)
(0.00297423 0.00845126 0)
(0.00107127 0.00817241 0)
(0.000718989 0.0077675 0)
(0.00340914 0.00746329 0)
(0.0120576 0.00735245 0)
(0.0270549 0.00735299 0)
(0.0460786 0.00735307 0)
(0.066861 0.00732906 0)
(0.0882217 0.0073098 0)
(0.109717 0.00729419 0)
(0.131224 0.00727938 0)
(0.152751 0.00726073 0)
(0.174008 0.00726859 0)
(0.195681 0.00720546 0)
(0.21639 0.00727024 0)
(0.236781 0.00719827 0)
(0.25692 0.00730275 0)
(0.276521 0.00716042 0)
(0.295525 0.00743958 0)
(0.312101 0.00706107 0)
(0.326053 0.00763477 0)
(0.335583 0.00721028 0)
(0.346527 0.00762427 0)
(0.337379 0.00764686 0)
(0.282511 0.00790459 0)
(0.0786032 0.00787216 0)
(1.30802 0.163906 0)
(1.35879 0.221241 0)
(1.44359 0.128581 0)
(1.36028 0.0086996 0)
(1.06518 0.00815046 0)
(0.816187 0.0555328 0)
(0.675129 0.097031 0)
(0.519487 0.113531 0)
(0.394345 0.0875703 0)
(0.295998 0.0575693 0)
(0.199063 0.0375044 0)
(0.099388 0.0257922 0)
(0.032948 0.0201323 0)
(0.00927777 0.0178647 0)
(0.00317767 0.0169166 0)
(0.00117007 0.0163594 0)
(0.000832872 0.0155798 0)
(0.00356455 0.0149516 0)
(0.0121638 0.0147222 0)
(0.0271077 0.014712 0)
(0.0460825 0.0147102 0)
(0.0668147 0.0146621 0)
(0.0881264 0.0146233 0)
(0.109576 0.0145916 0)
(0.131041 0.0145612 0)
(0.152529 0.0145232 0)
(0.173749 0.0145386 0)
(0.195387 0.014412 0)
(0.216064 0.0145413 0)
(0.236426 0.0143981 0)
(0.256536 0.0146067 0)
(0.276111 0.0143245 0)
(0.295096 0.0148787 0)
(0.311677 0.0141421 0)
(0.325608 0.0152799 0)
(0.335195 0.0144502 0)
(0.346019 0.0153078 0)
(0.336862 0.0152746 0)
(0.282419 0.0158289 0)
(0.0792854 0.0157835 0)
(1.24545 0.334466 0)
(1.27918 0.324463 0)
(1.31771 0.21209 0)
(1.17592 0.0546189 0)
(0.933474 0.0746394 0)
(0.725598 0.154018 0)
(0.572732 0.21641 0)
(0.438532 0.214931 0)
(0.351857 0.161409 0)
(0.276223 0.110773 0)
(0.188154 0.0761572 0)
(0.092472 0.0537112 0)
(0.0294453 0.0418989 0)
(0.0076909 0.0371601 0)
(0.00224477 0.0351482 0)
(0.000226163 0.0338778 0)
(-1.46562e-06 0.0323566 0)
(0.00318595 0.031196 0)
(0.0120579 0.03068 0)
(0.0270885 0.0306058 0)
(0.0460816 0.030584 0)
(0.0668201 0.0304812 0)
(0.0881413 0.0304003 0)
(0.109606 0.0303344 0)
(0.13109 0.0302711 0)
(0.1526 0.0301929 0)
(0.173845 0.0302281 0)
(0.195505 0.0299654 0)
(0.216209 0.0302328 0)
(0.236604 0.0299405 0)
(0.256743 0.0303645 0)
(0.276354 0.0297968 0)
(0.295379 0.0308931 0)
(0.312117 0.0294655 0)
(0.32613 0.0316321 0)
(0.336046 0.030071 0)
(0.346494 0.0319058 0)
(0.337392 0.0313378 0)
(0.283916 0.0317147 0)
(0.0825312 0.0317814 0)
(1.05387 0.339366 0)
(1.08003 0.341789 0)
(1.03829 0.273231 0)
(0.860568 0.194938 0)
(0.639607 0.238319 0)
(0.490714 0.328776 0)
(0.372626 0.362547 0)
(0.305895 0.328697 0)
(0.276941 0.250077 0)
(0.229358 0.177127 0)
(0.153831 0.12696 0)
(0.0705898 0.0923878 0)
(0.0198993 0.0739035 0)
(0.00398624 0.0663574 0)
(5.1153e-05 0.0629236 0)
(-0.00195596 0.0604352 0)
(-0.00192242 0.0578963 0)
(0.00213179 0.0560808 0)
(0.0117282 0.0552058 0)
(0.0270368 0.0550289 0)
(0.0460627 0.0549575 0)
(0.066779 0.0547604 0)
(0.0880882 0.0546118 0)
(0.10956 0.0544941 0)
(0.131066 0.0543822 0)
(0.152609 0.0542446 0)
(0.173898 0.0543125 0)
(0.195589 0.0538399 0)
(0.216347 0.0543146 0)
(0.236808 0.0537961 0)
(0.256999 0.0545313 0)
(0.276685 0.0535482 0)
(0.295768 0.0553939 0)
(0.312824 0.0530481 0)
(0.327012 0.0565022 0)
(0.337563 0.0540087 0)
(0.347149 0.0573578 0)
(0.337485 0.0556908 0)
(0.283838 0.055755 0)
(0.0832236 0.0560005 0)
(0.738261 0.412481 0)
(0.751489 0.370084 0)
(0.641361 0.324172 0)
(0.461938 0.339197 0)
(0.301592 0.423032 0)
(0.22315 0.463873 0)
(0.19334 0.443552 0)
(0.198164 0.383937 0)
(0.200421 0.29369 0)
(0.170099 0.219999 0)
(0.108009 0.164712 0)
(0.0428917 0.124915 0)
(0.00834431 0.104169 0)
(-0.000782922 0.0952144 0)
(-0.00327865 0.0904722 0)
(-0.00507604 0.0866675 0)
(-0.00445099 0.0832392 0)
(0.000640435 0.0809051 0)
(0.0111652 0.0797298 0)
(0.0269069 0.0794484 0)
(0.0460094 0.0792995 0)
(0.0666879 0.07899 0)
(0.0879582 0.0787666 0)
(0.109416 0.0785954 0)
(0.13093 0.0784346 0)
(0.152499 0.0782396 0)
(0.173832 0.0783418 0)
(0.195536 0.0776576 0)
(0.216352 0.0783338 0)
(0.23688 0.0776088 0)
(0.257117 0.0786152 0)
(0.276867 0.0772841 0)
(0.295976 0.0797141 0)
(0.313354 0.0767461 0)
(0.327765 0.0809799 0)
(0.339011 0.0779707 0)
(0.34756 0.0825947 0)
(0.337233 0.0800979 0)
(0.283797 0.0804865 0)
(0.0845022 0.0810481 0)
(0.337076 0.429738 0)
(0.254353 0.40292 0)
(0.160984 0.461674 0)
(0.055429 0.518116 0)
(0.0133972 0.538378 0)
(0.0310517 0.518399 0)
(0.0767114 0.466707 0)
(0.115792 0.389877 0)
(0.13178 0.312131 0)
(0.108842 0.246489 0)
(0.0598808 0.191378 0)
(0.0152803 0.152946 0)
(-0.00314209 0.133107 0)
(-0.00665034 0.123549 0)
(-0.00779947 0.117471 0)
(-0.00907464 0.11244 0)
(-0.00747221 0.108292 0)
(-0.00115436 0.105566 0)
(0.0104191 0.104166 0)
(0.0266822 0.103812 0)
(0.0458992 0.103576 0)
(0.0665427 0.103139 0)
(0.0877655 0.102834 0)
(0.109201 0.102609 0)
(0.130719 0.102404 0)
(0.152312 0.102157 0)
(0.173692 0.102295 0)
(0.195402 0.101406 0)
(0.216287 0.102278 0)
(0.23689 0.101378 0)
(0.257171 0.102618 0)
(0.276991 0.101016 0)
(0.2961 0.103894 0)
(0.313793 0.100553 0)
(0.32844 0.105201 0)
(0.340331 0.101919 0)
(0.347982 0.107461 0)
(0.336964 0.104486 0)
(0.283741 0.105411 0)
(0.0860117 0.106497 0)
(-0.0579495 0.50281 0)
(-0.148521 0.508499 0)
(-0.186948 0.559554 0)
(-0.187007 0.562187 0)
(-0.134293 0.537532 0)
(-0.0575849 0.504641 0)
(0.0101227 0.448906 0)
(0.0530788 0.38508 0)
(0.068419 0.320211 0)
(0.0493605 0.26074 0)
(0.0150291 0.210462 0)
(-0.0097349 0.177741 0)
(-0.0149761 0.160594 0)
(-0.0142443 0.150773 0)
(-0.0138988 0.143533 0)
(-0.0140949 0.137544 0)
(-0.0110756 0.132902 0)
(-0.00329564 0.129923 0)
(0.00944272 0.12844 0)
(0.0262961 0.128008 0)
(0.0456813 0.12768 0)
(0.0663252 0.127108 0)
(0.087528 0.126716 0)
(0.108967 0.126441 0)
(0.130516 0.126199 0)
(0.152159 0.125904 0)
(0.173619 0.126082 0)
(0.19537 0.125007 0)
(0.21636 0.126062 0)
(0.237082 0.125023 0)
(0.25745 0.126458 0)
(0.277389 0.124666 0)
(0.296543 0.127875 0)
(0.314568 0.12435 0)
(0.329514 0.129183 0)
(0.341954 0.125729 0)
(0.349026 0.131748 0)
(0.337513 0.128654 0)
(0.28466 0.130199 0)
(0.0885543 0.131876 0)
(-0.250508 0.506646 0)
(-0.322886 0.521169 0)
(-0.312021 0.54339 0)
(-0.264751 0.524433 0)
(-0.185998 0.504525 0)
(-0.0999191 0.480625 0)
(-0.0413311 0.432746 0)
(-0.00241984 0.378774 0)
(0.0101315 0.323046 0)
(-0.00412615 0.270787 0)
(-0.0213535 0.22884 0)
(-0.028807 0.202364 0)
(-0.0253552 0.187398 0)
(-0.0216054 0.177115 0)
(-0.0201074 0.168877 0)
(-0.0190333 0.162133 0)
(-0.0144932 0.157129 0)
(-0.00525584 0.153977 0)
(0.00856275 0.152379 0)
(0.0259409 0.15192 0)
(0.0454483 0.151498 0)
(0.0660499 0.150785 0)
(0.0871871 0.150307 0)
(0.108581 0.149989 0)
(0.130105 0.149725 0)
(0.151738 0.149389 0)
(0.17322 0.149618 0)
(0.194961 0.148403 0)
(0.215985 0.14963 0)
(0.236756 0.148502 0)
(0.257125 0.150111 0)
(0.277095 0.14822 0)
(0.296176 0.151688 0)
(0.314376 0.148123 0)
(0.329434 0.153002 0)
(0.342123 0.149559 0)
(0.348444 0.155549 0)
(0.335923 0.152804 0)
(0.283229 0.15505 0)
(0.0885779 0.157297 0)
(-0.281184 0.482386 0)
(-0.363779 0.495494 0)
(-0.340569 0.511137 0)
(-0.289135 0.487433 0)
(-0.209554 0.483797 0)
(-0.132483 0.458203 0)
(-0.0838337 0.417449 0)
(-0.0521394 0.370013 0)
(-0.0410002 0.321974 0)
(-0.0482437 0.277855 0)
(-0.0505806 0.245543 0)
(-0.0463214 0.225049 0)
(-0.0377058 0.211947 0)
(-0.0315559 0.201521 0)
(-0.0286007 0.192737 0)
(-0.0255825 0.185652 0)
(-0.0189951 0.180578 0)
(-0.00795428 0.177534 0)
(0.00709168 0.175858 0)
(0.0251508 0.175372 0)
(0.0449576 0.17486 0)
(0.0657001 0.17401 0)
(0.0869517 0.173452 0)
(0.108473 0.173103 0)
(0.130139 0.172838 0)
(0.151923 0.172467 0)
(0.173578 0.172761 0)
(0.195505 0.171454 0)
(0.216733 0.172839 0)
(0.237728 0.171668 0)
(0.258284 0.173431 0)
(0.278469 0.171514 0)
(0.297678 0.175193 0)
(0.316202 0.171684 0)
(0.331546 0.176582 0)
(0.344577 0.173209 0)
(0.350452 0.178874 0)
(0.337585 0.176783 0)
(0.28526 0.179892 0)
(0.0923535 0.182486 0)
(-0.275693 0.463135 0)
(-0.368115 0.476484 0)
(-0.344743 0.485485 0)
(-0.297153 0.464522 0)
(-0.224086 0.470957 0)
(-0.165265 0.438227 0)
(-0.120877 0.405362 0)
(-0.0968204 0.363618 0)
(-0.084042 0.323811 0)
(-0.0806742 0.28915 0)
(-0.0708219 0.265162 0)
(-0.0588927 0.248479 0)
(-0.0469728 0.236206 0)
(-0.0393606 0.225436 0)
(-0.0351611 0.216154 0)
(-0.0304092 0.208757 0)
(-0.0219986 0.203628 0)
(-0.00951842 0.200492 0)
(0.00643197 0.198769 0)
(0.0248349 0.19826 0)
(0.0446436 0.197661 0)
(0.0652505 0.196676 0)
(0.0863484 0.196046 0)
(0.107731 0.195679 0)
(0.129278 0.195435 0)
(0.15096 0.195044 0)
(0.172539 0.195426 0)
(0.194462 0.194083 0)
(0.215686 0.195622 0)
(0.23672 0.19447 0)
(0.257291 0.196378 0)
(0.277538 0.194514 0)
(0.296721 0.19837 0)
(0.315388 0.195005 0)
(0.33082 0.199884 0)
(0.343888 0.196698 0)
(0.349066 0.201615 0)
(0.336023 0.200253 0)
(0.28342 0.204883 0)
(0.0923973 0.20767 0)
(-0.260116 0.451022 0)
(-0.363135 0.463403 0)
(-0.349191 0.466125 0)
(-0.303287 0.454071 0)
(-0.239188 0.460112 0)
(-0.193514 0.422427 0)
(-0.153925 0.395252 0)
(-0.134372 0.35823 0)
(-0.117725 0.32691 0)
(-0.105266 0.301082 0)
(-0.0887986 0.283149 0)
(-0.0727538 0.269377 0)
(-0.0590123 0.257828 0)
(-0.0502968 0.247089 0)
(-0.0444718 0.237832 0)
(-0.0374332 0.230632 0)
(-0.0267682 0.225863 0)
(-0.0126133 0.22279 0)
(0.00452617 0.22109 0)
(0.0236701 0.220572 0)
(0.043933 0.219898 0)
(0.0648713 0.218792 0)
(0.0862686 0.218104 0)
(0.107934 0.217731 0)
(0.129738 0.217519 0)
(0.15166 0.21711 0)
(0.173503 0.21759 0)
(0.195607 0.216244 0)
(0.217082 0.217898 0)
(0.238322 0.216801 0)
(0.259034 0.218828 0)
(0.279424 0.217055 0)
(0.298637 0.221059 0)
(0.317435 0.217884 0)
(0.33291 0.222742 0)
(0.345955 0.2199 0)
(0.350631 0.223973 0)
(0.337181 0.223419 0)
(0.284548 0.229755 0)
(0.0956401 0.232636 0)
(-0.240373 0.446897 0)
(-0.353133 0.456647 0)
(-0.355802 0.452953 0)
(-0.310744 0.448926 0)
(-0.254721 0.448054 0)
(-0.218447 0.410907 0)
(-0.183584 0.388653 0)
(-0.163532 0.35852 0)
(-0.140972 0.337023 0)
(-0.121599 0.317584 0)
(-0.101074 0.303324 0)
(-0.082728 0.291001 0)
(-0.0681873 0.279563 0)
(-0.0587546 0.268634 0)
(-0.0512617 0.259315 0)
(-0.0419957 0.252247 0)
(-0.0294778 0.247545 0)
(-0.0140154 0.244449 0)
(0.00378462 0.242724 0)
(0.0231349 0.242181 0)
(0.0433429 0.241427 0)
(0.064124 0.240203 0)
(0.0853568 0.239468 0)
(0.106875 0.239107 0)
(0.128563 0.238959 0)
(0.150421 0.238561 0)
(0.172294 0.239168 0)
(0.194369 0.237866 0)
(0.216013 0.239641 0)
(0.237418 0.238674 0)
(0.258284 0.240814 0)
(0.278859 0.239189 0)
(0.298184 0.243305 0)
(0.317179 0.24036 0)
(0.332797 0.245157 0)
(0.345889 0.242737 0)
(0.350439 0.24588 0)
(0.336319 0.246079 0)
(0.283991 0.254005 0)
(0.0977157 0.257075 0)
(-0.219872 0.44533 0)
(-0.34296 0.452115 0)
(-0.362082 0.446506 0)
(-0.320635 0.443193 0)
(-0.272314 0.435194 0)
(-0.24134 0.40312 0)
(-0.20837 0.386498 0)
(-0.185156 0.363151 0)
(-0.159285 0.347987 0)
(-0.137022 0.332522 0)
(-0.114557 0.320852 0)
(-0.0952817 0.309441 0)
(-0.0804126 0.298316 0)
(-0.0700285 0.287706 0)
(-0.0604218 0.278925 0)
(-0.0486025 0.272728 0)
(-0.0341579 0.268362 0)
(-0.0171426 0.26547 0)
(0.00178415 0.263777 0)
(0.0219426 0.263257 0)
(0.0427718 0.262456 0)
(0.0640706 0.26113 0)
(0.0857534 0.260345 0)
(0.10765 0.259977 0)
(0.129651 0.259861 0)
(0.151776 0.259426 0)
(0.173897 0.260101 0)
(0.196103 0.258799 0)
(0.217995 0.260607 0)
(0.239571 0.25975 0)
(0.260559 0.261934 0)
(0.281226 0.260439 0)
(0.300541 0.264604 0)
(0.319553 0.261885 0)
(0.335104 0.266586 0)
(0.348031 0.264649 0)
(0.35233 0.26694 0)
(0.337036 0.267919 0)
(0.284968 0.277431 0)
(0.101604 0.280698 0)
(-0.20166 0.444169 0)
(-0.334873 0.448839 0)
(-0.364567 0.442481 0)
(-0.332962 0.433794 0)
(-0.289622 0.428479 0)
(-0.258753 0.401923 0)
(-0.224735 0.392892 0)
(-0.198492 0.374154 0)
(-0.170772 0.36325 0)
(-0.146598 0.350301 0)
(-0.122996 0.339931 0)
(-0.10342 0.328941 0)
(-0.0885093 0.317889 0)
(-0.0771442 0.307323 0)
(-0.0652436 0.298863 0)
(-0.0514623 0.292932 0)
(-0.0355716 0.288671 0)
(-0.0178176 0.285842 0)
(0.00129377 0.284108 0)
(0.0212639 0.283569 0)
(0.041707 0.282702 0)
(0.0625675 0.281272 0)
(0.0838645 0.280452 0)
(0.105465 0.280113 0)
(0.127277 0.280077 0)
(0.149327 0.279656 0)
(0.171474 0.280467 0)
(0.193695 0.279219 0)
(0.21583 0.28109 0)
(0.237626 0.280422 0)
(0.258844 0.282654 0)
(0.279755 0.28132 0)
(0.299261 0.285483 0)
(0.31849 0.282978 0)
(0.334242 0.287515 0)
(0.347281 0.285981 0)
(0.351715 0.287564 0)
(0.335877 0.289072 0)
(0.285074 0.299852 0)
(0.106046 0.303391 0)
(-0.189939 0.442836 0)
(-0.331402 0.446428 0)
(-0.369396 0.438859 0)
(-0.346077 0.427723 0)
(-0.304201 0.429022 0)
(-0.271996 0.405417 0)
(-0.238624 0.399677 0)
(-0.212196 0.38328 0)
(-0.184242 0.375278 0)
(-0.15945 0.363974 0)
(-0.135687 0.354521 0)
(-0.116705 0.343536 0)
(-0.10191 0.332761 0)
(-0.0887538 0.323589 0)
(-0.0747868 0.31678 0)
(-0.0591125 0.311366 0)
(-0.0414606 0.307615 0)
(-0.0222052 0.305005 0)
(-0.00174777 0.303365 0)
(0.0195212 0.302897 0)
(0.0412351 0.30201 0)
(0.0632573 0.300483 0)
(0.085518 0.299594 0)
(0.107849 0.299217 0)
(0.130188 0.299171 0)
(0.152613 0.298642 0)
(0.175043 0.2995 0)
(0.197391 0.298216 0)
(0.219784 0.299994 0)
(0.241693 0.299439 0)
(0.262991 0.30161 0)
(0.283912 0.300386 0)
(0.30334 0.304463 0)
(0.322451 0.302145 0)
(0.338044 0.306463 0)
(0.350797 0.305326 0)
(0.355078 0.306238 0)
(0.338464 0.308278 0)
(0.288812 0.320196 0)
(0.114552 0.323979 0)
(-0.184309 0.445916 0)
(-0.329904 0.447907 0)
(-0.372926 0.438945 0)
(-0.353358 0.429006 0)
(-0.312267 0.433987 0)
(-0.279392 0.412663 0)
(-0.246498 0.410479 0)
(-0.219517 0.395941 0)
(-0.190919 0.390197 0)
(-0.165942 0.379512 0)
(-0.142668 0.370266 0)
(-0.12407 0.359266 0)
(-0.107813 0.349766 0)
(-0.0927802 0.341061 0)
(-0.076841 0.333969 0)
(-0.0594351 0.328733 0)
(-0.0407448 0.324873 0)
(-0.0211378 0.32193 0)
(-0.000988794 0.31996 0)
(0.0194398 0.31931 0)
(0.0400013 0.318348 0)
(0.0608934 0.316861 0)
(0.0823045 0.316199 0)
(0.104115 0.316161 0)
(0.126203 0.316466 0)
(0.148588 0.316144 0)
(0.171108 0.317334 0)
(0.193616 0.316225 0)
(0.216313 0.318064 0)
(0.238506 0.317747 0)
(0.260138 0.319931 0)
(0.28136 0.318877 0)
(0.301049 0.322841 0)
(0.320381 0.320678 0)
(0.336195 0.324742 0)
(0.349015 0.323807 0)
(0.353456 0.324208 0)
(0.336556 0.326708 0)
(0.289663 0.339516 0)
(0.122426 0.343765 0)
(-0.184771 0.448228 0)
(-0.330381 0.449872 0)
(-0.375025 0.441208 0)
(-0.358196 0.43285 0)
(-0.319834 0.438961 0)
(-0.287768 0.41917 0)
(-0.256024 0.418589 0)
(-0.229307 0.404944 0)
(-0.201106 0.400162 0)
(-0.176729 0.389594 0)
(-0.154557 0.380465 0)
(-0.136334 0.370289 0)
(-0.120011 0.360672 0)
(-0.103633 0.352732 0)
(-0.086227 0.346432 0)
(-0.0675707 0.341675 0)
(-0.0477442 0.337972 0)
(-0.0269231 0.335057 0)
(-0.00527414 0.33315 0)
(0.0169832 0.332652 0)
(0.0395466 0.331749 0)
(0.0622852 0.330202 0)
(0.0851014 0.329531 0)
(0.107787 0.329604 0)
(0.130324 0.330097 0)
(0.152903 0.329822 0)
(0.175508 0.331265 0)
(0.198033 0.330198 0)
(0.22066 0.332006 0)
(0.242851 0.331805 0)
(0.26443 0.33394 0)
(0.285485 0.333053 0)
(0.304929 0.336857 0)
(0.323978 0.334857 0)
(0.339459 0.338669 0)
(0.351805 0.337972 0)
(0.355931 0.338048 0)
(0.339081 0.341227 0)
(0.295549 0.354939 0)
(0.136337 0.359901 0)
(-0.191995 0.446699 0)
(-0.334934 0.447645 0)
(-0.379339 0.440296 0)
(-0.363397 0.434572 0)
(-0.326043 0.441826 0)
(-0.293766 0.423537 0)
(-0.262112 0.424732 0)
(-0.235267 0.411911 0)
(-0.207538 0.408068 0)
(-0.184142 0.397462 0)
(-0.162368 0.388682 0)
(-0.14347 0.378945 0)
(-0.125054 0.370426 0)
(-0.106591 0.363081 0)
(-0.0874213 0.357157 0)
(-0.0674695 0.352395 0)
(-0.04686 0.348355 0)
(-0.02583 0.344936 0)
(-0.00456814 0.342554 0)
(0.0168105 0.341805 0)
(0.0382117 0.340857 0)
(0.0598612 0.339497 0)
(0.081903 0.339277 0)
(0.104162 0.339927 0)
(0.126513 0.340936 0)
(0.149112 0.340892 0)
(0.171832 0.342632 0)
(0.194652 0.341523 0)
(0.217604 0.343204 0)
(0.240441 0.342913 0)
(0.262653 0.344855 0)
(0.284197 0.343944 0)
(0.304109 0.347323 0)
(0.323435 0.34524 0)
(0.339194 0.348546 0)
(0.351523 0.347676 0)
(0.355999 0.34725 0)
(0.340757 0.351436 0)
(0.303103 0.366013 0)
(0.154291 0.372772 0)
(-0.208852 0.441908 0)
(-0.344239 0.443119 0)
(-0.38421 0.432836 0)
(-0.366932 0.428473 0)
(-0.329898 0.437133 0)
(-0.298192 0.420268 0)
(-0.267592 0.422693 0)
(-0.241557 0.410547 0)
(-0.215298 0.407027 0)
(-0.193523 0.396373 0)
(-0.172834 0.388001 0)
(-0.154303 0.379319 0)
(-0.135711 0.372479 0)
(-0.116602 0.367014 0)
(-0.0964603 0.362828 0)
(-0.0752803 0.359431 0)
(-0.0532138 0.356603 0)
(-0.0305716 0.354367 0)
(-0.00769974 0.353051 0)
(0.0151438 0.352996 0)
(0.037933 0.351995 0)
(0.0609439 0.349826 0)
(0.0843588 0.348424 0)
(0.107876 0.347882 0)
(0.13113 0.347856 0)
(0.154171 0.346664 0)
(0.176823 0.347744 0)
(0.199165 0.345602 0)
(0.221356 0.346485 0)
(0.24321 0.345707 0)
(0.264553 0.347227 0)
(0.285372 0.346272 0)
(0.30466 0.349273 0)
(0.323558 0.347152 0)
(0.339036 0.350068 0)
(0.351072 0.349323 0)
(0.35587 0.34923 0)
(0.344602 0.3551 0)
(0.313897 0.373221 0)
(0.176788 0.380002 0)
(-0.244937 0.444029 0)
(-0.366222 0.430775 0)
(-0.391737 0.410527 0)
(-0.369985 0.40978 0)
(-0.334265 0.421706 0)
(-0.30304 0.407575 0)
(-0.273975 0.412365 0)
(-0.249567 0.401307 0)
(-0.224391 0.39922 0)
(-0.202734 0.390368 0)
(-0.180969 0.384114 0)
(-0.160216 0.377314 0)
(-0.139267 0.371666 0)
(-0.118285 0.366447 0)
(-0.0970377 0.361958 0)
(-0.0755092 0.357987 0)
(-0.0537101 0.354443 0)
(-0.0316202 0.351477 0)
(-0.00925261 0.34955 0)
(0.0132123 0.348908 0)
(0.0356537 0.346824 0)
(0.0582224 0.343106 0)
(0.0810462 0.340213 0)
(0.103968 0.33848 0)
(0.126906 0.337516 0)
(0.150064 0.335015 0)
(0.173545 0.335361 0)
(0.196595 0.332468 0)
(0.219694 0.332754 0)
(0.242391 0.330851 0)
(0.264598 0.331004 0)
(0.286062 0.32911 0)
(0.305989 0.330837 0)
(0.325394 0.328127 0)
(0.341579 0.330892 0)
(0.354687 0.331394 0)
(0.361629 0.334522 0)
(0.357655 0.347593 0)
(0.337377 0.382091 0)
(0.205077 0.414372 0)
(-0.926998 0.227476 0)
(-0.435842 0.447918 0)
(-0.404092 0.39546 0)
(-0.372498 0.39957 0)
(-0.342335 0.408649 0)
(-0.31524 0.393087 0)
(-0.2882 0.39489 0)
(-0.26561 0.381435 0)
(-0.24084 0.376827 0)
(-0.21847 0.366343 0)
(-0.195149 0.358497 0)
(-0.172227 0.350244 0)
(-0.149096 0.343208 0)
(-0.126108 0.33637 0)
(-0.103162 0.330113 0)
(-0.0804985 0.32398 0)
(-0.0579705 0.317958 0)
(-0.0354046 0.312329 0)
(-0.0126646 0.307845 0)
(0.0101142 0.305021 0)
(0.0328986 0.301129 0)
(0.0558226 0.296001 0)
(0.079195 0.29222 0)
(0.102682 0.289997 0)
(0.126252 0.288588 0)
(0.150207 0.285513 0)
(0.174603 0.285857 0)
(0.199079 0.2824 0)
(0.224167 0.282121 0)
(0.248822 0.280061 0)
(0.272947 0.280279 0)
(0.296051 0.279366 0)
(0.31744 0.282006 0)
(0.337908 0.281924 0)
(0.354861 0.287785 0)
(0.368936 0.293476 0)
(0.379077 0.303124 0)
(0.392495 0.324939 0)
(0.425368 0.414928 0)
(0.873953 0.234908 0)
(-1.00368 1.01081 0)
(-0.244296 0.906854 0)
(-0.424962 0.272544 0)
(-0.372673 0.267469 0)
(-0.345573 0.272995 0)
(-0.323043 0.251071 0)
(-0.296234 0.245434 0)
(-0.274422 0.226661 0)
(-0.249489 0.216396 0)
(-0.226574 0.202024 0)
(-0.202545 0.190683 0)
(-0.178755 0.179731 0)
(-0.154822 0.170389 0)
(-0.131057 0.16153 0)
(-0.107384 0.153502 0)
(-0.0839742 0.145835 0)
(-0.0607478 0.138373 0)
(-0.0375963 0.13126 0)
(-0.0144559 0.12527 0)
(0.00868399 0.121201 0)
(0.0316581 0.11652 0)
(0.054733 0.110977 0)
(0.0785052 0.10723 0)
(0.102546 0.105347 0)
(0.12675 0.104369 0)
(0.151367 0.10179 0)
(0.176291 0.103249 0)
(0.201201 0.101157 0)
(0.226464 0.102474 0)
(0.25136 0.102512 0)
(0.275726 0.10515 0)
(0.299156 0.108024 0)
(0.320807 0.114977 0)
(0.341739 0.121723 0)
(0.359238 0.135028 0)
(0.374989 0.150193 0)
(0.385497 0.170077 0)
(0.425292 0.191821 0)
(0.254096 0.846479 0)
(0.988243 0.992529 0)
(-1.00368 -1.01081 0)
(-0.244296 -0.906854 0)
(-0.424962 -0.272544 0)
(-0.372673 -0.267469 0)
(-0.345573 -0.272995 0)
(-0.323043 -0.251071 0)
(-0.296234 -0.245434 0)
(-0.274422 -0.226661 0)
(-0.249489 -0.216396 0)
(-0.226574 -0.202024 0)
(-0.202545 -0.190683 0)
(-0.178755 -0.179731 0)
(-0.154822 -0.170389 0)
(-0.131057 -0.16153 0)
(-0.107384 -0.153502 0)
(-0.0839742 -0.145835 0)
(-0.0607478 -0.138373 0)
(-0.0375963 -0.13126 0)
(-0.0144559 -0.12527 0)
(0.00868399 -0.121201 0)
(0.0316581 -0.11652 0)
(0.054733 -0.110977 0)
(0.0785052 -0.10723 0)
(0.102546 -0.105347 0)
(0.12675 -0.104369 0)
(0.151367 -0.10179 0)
(0.176291 -0.103249 0)
(0.201201 -0.101157 0)
(0.226464 -0.102474 0)
(0.25136 -0.102512 0)
(0.275726 -0.10515 0)
(0.299156 -0.108024 0)
(0.320807 -0.114977 0)
(0.341739 -0.121723 0)
(0.359238 -0.135028 0)
(0.374989 -0.150193 0)
(0.385497 -0.170077 0)
(0.425292 -0.191821 0)
(0.254096 -0.846479 0)
(0.988243 -0.992529 0)
(-0.926998 -0.227476 0)
(-0.435842 -0.447918 0)
(-0.404092 -0.39546 0)
(-0.372498 -0.39957 0)
(-0.342335 -0.408649 0)
(-0.31524 -0.393087 0)
(-0.2882 -0.39489 0)
(-0.26561 -0.381435 0)
(-0.24084 -0.376827 0)
(-0.21847 -0.366343 0)
(-0.195149 -0.358497 0)
(-0.172227 -0.350244 0)
(-0.149096 -0.343208 0)
(-0.126108 -0.33637 0)
(-0.103162 -0.330113 0)
(-0.0804985 -0.32398 0)
(-0.0579705 -0.317958 0)
(-0.0354046 -0.312329 0)
(-0.0126646 -0.307845 0)
(0.0101142 -0.305021 0)
(0.0328986 -0.301129 0)
(0.0558226 -0.296001 0)
(0.079195 -0.29222 0)
(0.102682 -0.289997 0)
(0.126252 -0.288588 0)
(0.150207 -0.285513 0)
(0.174603 -0.285857 0)
(0.199079 -0.2824 0)
(0.224167 -0.282121 0)
(0.248822 -0.280061 0)
(0.272947 -0.280279 0)
(0.296051 -0.279366 0)
(0.31744 -0.282006 0)
(0.337908 -0.281924 0)
(0.354861 -0.287785 0)
(0.368936 -0.293476 0)
(0.379077 -0.303124 0)
(0.392495 -0.324939 0)
(0.425368 -0.414928 0)
(0.873953 -0.234908 0)
(-0.244937 -0.444029 0)
(-0.366222 -0.430775 0)
(-0.391737 -0.410527 0)
(-0.369985 -0.40978 0)
(-0.334265 -0.421706 0)
(-0.30304 -0.407575 0)
(-0.273975 -0.412365 0)
(-0.249567 -0.401307 0)
(-0.224391 -0.39922 0)
(-0.202734 -0.390368 0)
(-0.180969 -0.384114 0)
(-0.160216 -0.377314 0)
(-0.139267 -0.371666 0)
(-0.118285 -0.366447 0)
(-0.0970377 -0.361958 0)
(-0.0755092 -0.357987 0)
(-0.0537101 -0.354443 0)
(-0.0316202 -0.351477 0)
(-0.00925261 -0.34955 0)
(0.0132123 -0.348908 0)
(0.0356537 -0.346824 0)
(0.0582224 -0.343106 0)
(0.0810462 -0.340213 0)
(0.103968 -0.33848 0)
(0.126906 -0.337516 0)
(0.150064 -0.335015 0)
(0.173545 -0.335361 0)
(0.196595 -0.332468 0)
(0.219694 -0.332754 0)
(0.242391 -0.330851 0)
(0.264598 -0.331004 0)
(0.286062 -0.32911 0)
(0.305989 -0.330837 0)
(0.325394 -0.328127 0)
(0.341579 -0.330892 0)
(0.354687 -0.331394 0)
(0.361629 -0.334522 0)
(0.357655 -0.347593 0)
(0.337377 -0.382091 0)
(0.205077 -0.414372 0)
(-0.208852 -0.441908 0)
(-0.344239 -0.443119 0)
(-0.38421 -0.432836 0)
(-0.366932 -0.428473 0)
(-0.329898 -0.437133 0)
(-0.298192 -0.420268 0)
(-0.267592 -0.422693 0)
(-0.241557 -0.410547 0)
(-0.215298 -0.407027 0)
(-0.193523 -0.396373 0)
(-0.172834 -0.388001 0)
(-0.154303 -0.379319 0)
(-0.135711 -0.372479 0)
(-0.116602 -0.367014 0)
(-0.0964603 -0.362828 0)
(-0.0752803 -0.359431 0)
(-0.0532138 -0.356603 0)
(-0.0305716 -0.354367 0)
(-0.00769974 -0.353051 0)
(0.0151438 -0.352996 0)
(0.037933 -0.351995 0)
(0.0609439 -0.349826 0)
(0.0843588 -0.348424 0)
(0.107876 -0.347882 0)
(0.13113 -0.347856 0)
(0.154171 -0.346664 0)
(0.176823 -0.347744 0)
(0.199165 -0.345602 0)
(0.221356 -0.346485 0)
(0.24321 -0.345707 0)
(0.264553 -0.347227 0)
(0.285372 -0.346272 0)
(0.30466 -0.349273 0)
(0.323558 -0.347152 0)
(0.339036 -0.350068 0)
(0.351072 -0.349323 0)
(0.35587 -0.34923 0)
(0.344602 -0.3551 0)