/*--------------------------------*- C++ -*----------------------------------*\
| =========                 |                                                 |
| \\      /  F ield         | OpenFOAM: The Open Source CFD Toolbox           |
|  \\    /   O peration     | Version:  v1912                                 |
|   \\  /    A nd           | Website:  www.openfoam.com                      |
|    \\/     M anipulation  |                                                 |
\*---------------------------------------------------------------------------*/
FoamFile
{
    version     2.0;
    format      ascii;
    class       volVectorField;
    location    "0.00019";
    object      momentumMean;
}
// * * * * * * * * * * * * * * * * * * * * * * * * * * * * * * * * * * * * * //

dimensions      [1 -2 -1 0 0 0 0];


internalField   nonuniform List<vector> 
1300
(
(-1.340578331 2.292743699 -0.3868032787)
(-0.2113319327 2.019320831 0.3041356581)
(18.75451781 2.857660691 0.1459110246)
(91.08057117 4.177005547 -0.6477854155)
(46.81897211 3.068296478 0.8407081197)
(15.92276315 1.222755394 0.5822857739)
(31.94755471 -0.745571244 -0.6610263987)
(38.81187021 -0.8505936297 -0.4245372585)
(26.32365381 -0.2527189075 -0.4399169108)
(24.62484632 -1.357216646 0.7158225218)
(-1.937240939 5.215232533 -0.03500762024)
(0.5741817056 5.100335712 -0.01256601005)
(32.80009142 9.970500096 0.1139454464)
(168.1888069 25.7510626 -0.2286412093)
(79.21383049 13.98707144 0.5501247076)
(28.94037687 7.472775227 -0.3298580781)
(60.77798861 10.53792641 0.2756316356)
(69.42879626 9.66289929 0.2143290171)
(44.41939154 6.848936221 0.4905817713)
(36.72234608 5.625790349 -0.5462023736)
(-1.096109284 3.057261618 -0.1792541065)
(0.7103156836 3.381391223 0.03991784725)
(37.37234039 8.949790567 -0.02141041734)
(188.7702469 28.28571416 -0.3111656563)
(90.54696538 14.78456369 -0.4175320581)
(36.15093605 9.67365262 0.8116666803)
(81.21243278 16.10154578 -0.4565718259)
(108.2869866 16.5565154 -0.8898098824)
(66.36063504 11.83159138 0.6004110718)
(59.72522559 10.36122883 -1.448302537)
(-0.6116329387 2.324886979 -0.004360489936)
(0.6137202088 1.968611271 -0.0325032487)
(34.7834382 6.323664225 -0.349099506)
(179.3054216 26.35176156 -1.294782634)
(88.64668603 13.31196755 0.3313859626)
(37.33488203 9.306891955 0.5468597643)
(88.58580644 19.06870114 -0.9327759882)
(131.5576799 24.72067962 0.608078518)
(79.50886729 15.0596889 0.02173040452)
(70.89982878 15.04988347 0.3199183994)
(-0.3034128547 1.318998608 -0.01385719335)
(0.4680591713 1.850452459 0.03332155685)
(37.85092852 7.264095517 -0.6170724684)
(176.4466348 25.14773374 0.5353287306)
(92.54291092 11.92196795 -0.01267361514)
(33.12117708 7.04088025 -0.05023138665)
(84.0689474 16.00300486 -1.285129429)
(122.7022347 20.78866505 -0.5330762035)
(96.40114315 17.40146682 0.1230950671)
(79.34163953 18.04692232 -0.03695418795)
(-0.1259112512 1.161210499 -0.07317879944)
(0.539732833 1.004435211 -0.0257464466)
(35.55477419 6.750623208 -0.02839873198)
(177.5650014 25.60379951 -0.6088533159)
(87.76614455 11.8440246 -0.1498574176)
(33.56296352 6.380101755 -0.7929950543)
(82.50264228 14.09031135 0.08326082429)
(115.6286364 17.47993099 0.5131091465)
(88.39969195 15.27837604 0.07447214133)
(77.72928038 15.24665819 -0.7986064587)
(-0.09201154032 0.6977898672 -0.02911206493)
(0.7484415263 1.276131927 -0.05355190533)
(36.77969317 8.050651209 0.452415692)
(177.9797438 25.65930518 -0.2352733791)
(87.11801906 10.87142677 0.4115092871)
(29.12090706 5.538120074 0.1572294661)
(79.26283072 12.47052413 -0.1998940636)
(113.0194509 17.55117032 -1.34673577)
(89.31437851 13.0643244 -0.09184148562)
(74.02345328 13.63178331 -0.0138481176)
(-0.1142044494 0.9293293091 -0.006104366407)
(0.5205396885 0.6049769162 -0.08597881423)
(38.96348323 7.746269422 -0.3571065371)
(176.0665421 25.25718449 0.146047711)
(86.73423514 11.52292424 0.1791380818)
(35.14461058 6.174040464 0.07110347259)
(79.51125734 12.38751905 0.0349563933)
(116.6316124 16.79161378 0.2215851273)
(80.13731091 11.34990364 0.194201139)
(71.15954649 11.56673763 0.2810671529)
(-0.0322413109 0.4438490839 -0.06130358144)
(0.8351166578 0.7416843638 -0.04960484825)
(36.94160877 7.337464603 -0.4147151763)
(181.5845929 25.94395432 -0.06137000813)
(86.62010205 11.71368207 0.763106671)
(33.9606897 6.257820272 -0.4674868345)
(84.75205731 13.62030677 -0.4619363353)
(111.114261 16.04054366 -0.1021344599)
(85.20290688 11.95440769 0.1052242896)
(70.8451179 11.07550238 0.1458620186)
(-0.03905398247 0.4242817903 -0.04809769709)
(0.577275278 0.6345762239 -0.003320859362)
(35.69606715 7.094913586 -0.07160046372)
(175.8368018 25.82082357 -0.6876973584)
(91.50220227 11.06244783 0.9231094876)
(34.37104587 5.797624 0.152496683)
(77.46979811 13.20791977 0.04028787239)
(117.0014646 17.54456099 0.09193278394)
(86.58537831 12.19276454 -0.02981150579)
(66.55590729 10.10337132 0.4023236278)
(-0.007195512757 0.3800726726 -0.05494467376)
(0.7720851748 0.4821344028 -0.04397090571)
(38.14347734 6.770008584 0.1147738719)
(180.2395052 26.69738592 -0.2601608323)
(89.14463758 11.06037045 -0.3544721796)
(33.85106564 6.095473906 0.05709942538)
(79.82725831 12.34719501 -0.7874929304)
(118.2653212 16.48911273 0.1193772952)
(86.04699353 11.80013624 -0.3609031645)
(73.80342966 11.7850556 0.2693299668)
(0.02352166553 0.2856950622 -0.05935440308)
(0.6236338788 0.5258703836 -0.04419001394)
(36.53387367 6.91217872 0.3671251193)
(172.7665056 25.22091461 -0.3783361585)
(88.20829882 11.08565387 0.06791489512)
(30.68269144 6.11094202 0.1333214797)
(82.14202909 12.97186952 -0.003361190594)
(114.7369989 16.67720893 -0.08891855532)
(81.56922439 11.96802587 -0.382741384)
(72.88540119 11.10997579 -0.7611535598)
(-0.01630403309 0.176370966 -0.01650653756)
(0.5608375343 0.2891833758 0.0302224233)
(35.47045807 6.838769759 -0.7528907882)
(180.9611699 24.7084456 1.41181659)
(89.20205588 10.9985602 0.4492227948)
(32.04937163 5.896575 0.1333172202)
(79.45227045 11.89314425 0.1154201881)
(117.5656571 16.88617426 0.269006092)
(83.41104571 10.58660918 1.136811754)
(71.77658617 9.586303355 -0.01642944378)
(-0.02681034036 0.2493194238 -0.007791297983)
(0.4288066062 0.3776988901 -0.04079840071)
(36.64834037 6.574782169 -0.1599004048)
(181.0910818 25.74660437 0.3815435317)
(88.63005851 10.18362641 -0.8045347421)
(32.02791772 5.956643479 -0.67365141)
(80.42327255 12.6032454 0.418127659)
(117.1407894 17.23381703 0.4641628855)
(82.74147712 11.40725471 0.3582003796)
(70.56229774 10.7657905 0.1004960908)
(0.0007543131468 0.1206827585 0.02742386816)
(0.5738882844 0.291462896 -0.09631375333)
(36.39890893 6.504339329 0.5270600431)
(172.0305059 24.80109278 -0.9101059964)
(87.96974248 11.03699202 -0.0578555263)
(31.7010511 5.312847401 0.5599705295)
(76.44333318 12.15974226 -0.5295766988)
(118.238898 17.07349531 -0.1884019145)
(86.46135667 11.94087001 -0.7043906396)
(69.01265064 10.52403573 0.1505260365)
(-0.002417631257 0.1852809375 -0.008560252844)
(0.8330249649 0.3665559261 0.05720932892)
(37.61544884 6.572002721 0.1387905811)
(182.7546059 25.93206889 -1.577078189)
(85.4361133 10.31027511 -0.05560096645)
(34.06351914 5.842151351 -0.003586530187)
(82.48546442 12.52162848 -0.3627596963)
(111.7185636 15.06497648 -0.6377662551)
(84.12962744 10.83505556 0.4425944821)
(70.07399202 10.44344394 -0.07408627353)
(-0.03979000846 0.2361456187 0.01128803509)
(0.6437357204 0.3167297492 -0.0432131103)
(38.28867489 6.504715966 -0.5161422351)
(172.0847551 25.25265309 -0.3615655325)
(84.35548966 9.75153677 -0.2008070709)
(35.45025768 5.840678172 0.3512451655)
(85.14567591 13.3465459 -0.8026757376)
(110.349883 15.01499535 -0.660468166)
(84.95076888 11.60675819 -0.1207781575)
(72.75954754 10.29842808 -0.1917816625)
(0.00171703872 0.1097494399 -0.01024198377)
(0.2020655393 0.1364957274 0.04048275383)
(37.73483455 7.149763935 -0.2604512189)
(177.376506 24.46493268 -0.1955878719)
(86.91146024 9.955165981 -0.3180853436)
(34.45099946 6.541034497 -0.5037648811)
(78.24587636 12.64863577 0.1480562561)
(114.7002901 15.73873498 -0.1586216373)
(84.8056245 11.39350051 -0.5217596717)
(69.59029103 10.09797969 0.07861547929)
(0.001231184968 0.08268993072 0.02134534268)
(0.5698202191 0.1816587544 -0.009407099808)
(36.77973919 6.794722284 -0.4446911169)
(181.0020868 26.12531004 -0.3922242563)
(86.07375477 10.99141691 -0.01997291666)
(33.9594762 5.898394943 -0.122860701)
(74.22615744 11.63310102 -0.4763038526)
(114.1488869 16.15772066 0.3386630559)
(84.73487447 11.42900107 -0.8008911984)
(67.19459737 10.463663 -0.4355538177)
(-0.000223545486 0.0786839717 0.02318982777)
(0.3205147993 0.1418068239 -0.04449606996)
(32.78724075 6.617364465 0.7857960834)
(168.4800675 27.35829478 0.08096511484)
(83.79149396 10.89444437 0.3225237961)
(36.98385239 5.513744965 0.2337022852)
(78.33131295 12.72900593 -0.3393580586)
(109.9608463 16.61731775 -0.1350714848)
(83.69747221 11.59367629 0.4001843335)
(70.75759199 10.43488538 -0.05754475746)
(24.51741417 -0.3012408975 -0.8520893509)
(22.05904484 0.2536871383 0.3318434729)
(20.82652266 0.7840024418 -0.7818493303)
(19.82316583 1.110521244 -0.01393249112)
(19.69369004 2.336785303 0.53540372)
(18.0995985 1.503600284 -0.4613845936)
(19.48666303 2.843171232 -0.1792578201)
(20.52102899 1.528901622 0.6520191534)
(17.31004487 2.184779756 -0.2202955154)
(19.35574148 2.279202963 0.02696918695)
(18.00644342 2.025824158 -0.2006474662)
(21.26290716 3.417550448 0.0837397424)
(18.49217281 2.822816616 0.1705700781)
(19.01738303 2.524417734 -0.2922757728)
(19.59495737 1.664461337 -0.5346037971)
(19.45621409 3.134616435 0.1089171661)
(19.10857118 2.03889966 -0.6417045358)
(18.06715849 3.611200396 0.4918299746)
(18.76283898 3.052926881 0.4681213959)
(15.69403896 3.933651946 0.8111862604)
(17.19350038 2.323865956 -0.5722872289)
(16.8820426 4.333090639 0.5186612341)
(16.28140781 2.701470835 -0.7320424187)
(15.8001268 4.468776275 0.5069166189)
(16.52445073 3.778316001 -0.7876786758)
(14.35436196 3.823357748 -0.69181384)
(15.00704068 3.52029517 0.2076643484)
(15.47942575 5.000458327 0.8700273191)
(14.10502261 4.33169015 -0.2258418292)
(15.87264419 4.301070679 0.2597236046)
(38.91934552 4.135462719 0.7222882258)
(34.00310854 2.097159183 0.09261907758)
(29.61067769 2.608250808 -0.3535162939)
(29.21506407 2.036132864 -0.5304775709)
(28.36915791 1.839851846 -0.6136772674)
(26.42609264 2.020378419 -0.08416174144)
(24.90353241 2.29770379 0.2093081506)
(26.35463534 2.280028777 0.103969305)
(26.01003413 3.006104293 -0.3956521466)
(23.65198187 2.587398703 0.4587304916)
(24.43725419 2.126833167 -0.3782004101)
(22.15554488 2.814239914 -0.406867375)
(24.92364352 3.992260722 -0.7124017168)
(22.1808141 3.387524719 0.2225557399)
(23.20485029 2.260213908 -0.6388953332)
(21.5871771 2.887201049 -0.4248995759)
(21.03887307 4.254637297 0.5395857696)
(20.84395198 2.567722912 0.7337576763)
(21.14811409 3.96338051 0.1599673744)
(21.61806729 3.650334172 0.2942146866)
(20.18437391 2.459431419 0.03733481255)
(19.56863806 3.728863068 0.3850030777)
(19.95289596 4.614331393 0.3660849231)
(18.89197968 3.595479876 -0.1579643621)
(18.12882255 3.422543101 -0.190571936)
(18.43371291 4.663245655 -0.01727171085)
(18.83304219 4.46471683 0.448985198)
(17.12918259 4.586983541 0.441691332)
(16.91051507 4.248823593 -0.4664572994)
(17.5314826 4.952106194 -1.226616202)
(61.335949 8.512635923 0.5379490467)
(55.25951049 6.207863383 -0.2605467056)
(45.16215657 5.616992041 -0.4635740795)
(40.5952263 3.800801097 -0.120180027)
(40.60019663 4.43854416 1.032719544)
(37.35521196 3.682286775 -0.4291769316)
(33.55778865 4.240105427 -0.6278632152)
(32.08043568 3.397393092 0.5816835997)
(32.3716534 3.690148992 -0.07085007048)
(29.61546943 2.840864411 -0.5089244185)
(28.74616779 3.214990729 0.3119763908)
(28.8101224 3.492677454 -0.166623162)
(27.265877 3.157041034 -0.5820103511)
(27.56499004 3.477444164 -0.3080743118)
(28.18809332 3.534022808 -0.03672560493)
(26.64617032 4.39746232 0.4948707112)
(25.40357693 3.962547856 -0.5518222404)
(26.54624339 3.486582331 0.04643850745)
(25.53829503 4.585686536 -0.916146763)
(23.3311372 4.248710959 0.2293052843)
(24.41896296 5.734279456 0.2534303956)
(24.00503498 4.402978012 -0.9918538873)
(20.58496415 4.023932534 -0.5451152965)
(21.38576892 4.395877414 -1.106949603)
(21.11010778 4.762359294 0.07136485201)
(20.98220865 4.295413262 0.1132960113)
(20.15523775 4.635603761 0.5200266255)
(20.52289286 3.874845362 0.1780923206)
(21.66886021 5.135903969 -0.4597287028)
(20.05811519 4.860334221 -0.04027204136)
(80.83881755 15.00625032 -0.4778180112)
(75.84212041 12.42220899 0.5768708474)
(64.02275772 9.624530737 -0.3467115358)
(58.16430771 7.963043547 0.1350209962)
(56.6947084 5.95643755 -0.2789465711)
(48.80600881 5.880804701 0.1211748515)
(47.31248605 6.4028674 -0.4987218606)
(46.61472579 4.958291528 -0.6037646929)
(41.03011574 4.888451472 -0.113572529)
(39.03756884 4.798814602 0.01271745143)
(41.11979607 4.003374845 -0.7229247538)
(35.4229174 5.181862191 0.4727325331)
(36.09852503 3.672992128 0.3454504926)
(33.58401163 4.62730869 -0.6861096784)
(32.29234221 5.08611706 -0.7859409813)
(31.67843858 3.106381063 0.2620696692)
(30.1210888 4.202279049 0.08966073859)
(30.48911341 4.858300036 -0.4122515207)
(29.01061815 4.796019537 -0.01517537695)
(28.74271192 4.555348031 0.04030668295)
(29.86564365 5.882931245 -1.119730113)
(27.13400618 5.589243117 -0.3011054902)
(27.1222603 4.667682182 -0.354529829)
(27.59943338 5.116601198 -0.3317919702)
(26.73544726 5.304712042 -0.5414811717)
(24.01373635 3.758742064 0.5602596198)
(25.48702152 5.05093077 -0.1003607439)
(26.09727534 4.986197512 0.2363021356)
(23.11088905 4.850729654 0.07522156138)
(25.03488351 5.031740543 -0.7414064533)
(98.43920711 20.73768046 -0.4775526242)
(94.30052467 17.65368612 -1.020467571)
(79.99458147 14.37696579 0.585176955)
(76.0241769 13.23823792 -1.108154556)
(71.08809554 11.74613341 0.7673915729)
(65.56953182 8.883946107 -0.7846458723)
(60.20135222 9.204578283 -0.3235295425)
(56.26209335 8.231109272 0.5259572769)
(55.2995326 7.359541964 -0.674674629)
(47.67457339 6.514828603 0.1130507069)
(46.53752653 5.870951092 -1.013565641)
(44.84762831 6.046802225 -0.04724652971)
(42.2756717 5.460582833 -0.4071801747)
(42.16390997 5.753595132 0.3025181336)
(38.19756971 4.850470739 0.1187388827)
(38.67905276 5.989915928 -0.1095113961)
(37.73426841 5.6052055 -0.76692099)
(35.51196343 4.671912905 -0.8775435113)
(36.29967888 5.295635526 0.3078929566)
(34.38707255 5.449954335 -1.059402228)
(33.06621032 5.485387176 -0.1948667029)
(33.62989416 5.996500373 0.01051759677)
(31.60344325 4.885253302 -0.1115010409)
(31.54584428 6.260762005 -0.5146288714)
(30.19892248 5.578657433 0.449074249)
(30.21826056 4.800361253 0.2711010199)
(30.69244235 5.617887315 0.3941666522)
(27.37325221 5.757853386 0.07444983715)
(24.96796108 4.592117281 0.06120002275)
(26.78469757 5.623498608 -0.2060051697)
(91.7455641 19.24459603 0.2706894411)
(103.2147609 20.55650332 -0.7183735834)
(91.84426499 19.29364367 -0.8042397197)
(88.35510442 17.69790071 1.291497929)
(86.72564072 15.79797103 -0.871636618)
(80.35472036 14.19556921 -0.1578294553)
(71.76799176 12.43130048 0.8406191318)
(69.4361557 11.30444723 0.1682747243)
(62.70543334 9.205902667 0.0279320958)
(62.41989212 9.538123863 0.355674367)
(58.63930112 8.012663527 -0.07020240722)
(54.85394033 8.669142641 0.1494389296)
(52.27008466 7.994234421 0.1591940375)
(52.57460184 7.196981176 -0.1566087363)
(49.18707052 6.953248167 -0.33070437)
(45.27387868 7.732298625 -0.4406975133)
(48.11634841 7.223127152 -0.2013495027)
(41.51359696 6.082607423 -0.8243797222)
(41.31235824 7.202901795 -0.6307697827)
(41.61934898 6.596932469 0.3648470539)
(39.89984885 6.311768312 0.3970377461)
(38.93065158 6.678433772 -0.5509038678)
(36.75065195 6.754589669 -0.1919713304)
(35.06311041 6.872241804 -0.3527428337)
(36.13239925 5.8649737 -0.5690565101)
(35.47623235 6.190227132 -0.2474630858)
(34.17932125 5.667678838 0.03441703582)
(33.53651853 7.098962693 0.04518395314)
(30.33089113 5.981537596 0.2461157153)
(33.97829417 6.521733782 -0.6927604957)
(84.69896672 15.40118776 0.04095290079)
(99.58670817 19.13489604 -0.7378990421)
(98.14230644 20.2239225 0.3852051147)
(94.35493386 20.66207007 -0.3963024823)
(95.18055322 19.92890137 0.8805705942)
(91.7824949 17.62031372 -0.9042825019)
(86.86950744 16.17695582 0.08368067475)
(81.39396201 15.21309595 -0.4860418129)
(81.44977025 13.5754809 -0.6994590215)
(75.74456127 14.11634737 -0.07162860449)
(69.76546579 10.21522791 -0.1708527027)
(65.99576054 10.7658966 -0.3081258377)
(59.40007842 9.581792138 -0.2053751929)
(59.87696208 9.723497634 -0.1652847945)
(57.00545708 8.371458517 -0.03122228897)
(56.62930149 8.300590507 -0.3228917296)
(51.60183596 7.778840997 -0.7363855909)
(55.21545778 8.491606792 -0.4417389765)
(48.68046625 7.366282014 -0.348131179)
(47.41467703 6.449704311 -0.6954824575)
(47.74098077 7.740884988 0.4740930442)
(45.91090845 7.899033449 -0.3279737079)
(44.50349979 8.195728694 0.01381597065)
(41.14877369 6.681008112 -0.63360455)
(40.23600043 6.217360799 -0.2361231972)
(39.8409217 6.780628544 -1.029231799)
(38.49493911 6.971554684 0.01835456901)
(38.09390062 7.024218934 -0.6978774686)
(40.08496136 7.449050989 0.6115890812)
(35.48034071 6.232399715 -0.6572133879)
(85.67470352 13.61186884 -0.05241519438)
(94.3664861 16.2634183 -0.6215856575)
(95.01780548 16.39345618 0.5769827674)
(89.40231635 17.11926906 -0.6345806515)
(101.2682147 21.778993 -0.272170157)
(105.6865178 21.43621352 0.132460583)
(97.69361653 20.06966667 -0.8736781035)
(91.80657583 17.4463324 0.5318194587)
(91.41290585 17.58122131 -0.04303391925)
(87.41662099 16.41530623 -0.07343668612)
(79.82380707 14.54000693 0.1381438448)
(79.26130813 13.25124107 -0.2372952609)
(76.46286002 12.54592583 -0.4501416395)
(71.04443485 11.58752379 0.4081895721)
(68.07388554 11.24610525 -0.2431883909)
(66.62363801 10.88671111 -0.2731526858)
(60.81168884 9.227123022 -0.7683991652)
(63.22547553 9.911409813 0.2040277148)
(57.5917667 9.808391399 -0.7427978019)
(55.32417916 8.928308256 -0.2429309499)
(52.47642349 8.279370599 -0.3404064996)
(57.48925048 9.394688237 0.00594107515)
(50.67369401 8.538518973 -0.5037977911)
(53.70777019 8.869363433 -0.2060353495)
(49.18411316 9.471650729 -0.7973550439)
(47.47533884 8.675241432 -0.7811688514)
(42.38353706 7.396674353 -0.004219661791)
(43.86829258 7.856426725 -0.3250254703)
(42.26853968 7.674329009 -0.3271430461)
(41.61545352 7.911724564 -1.056868472)
(83.81755987 13.06608498 -0.01152124703)
(91.19170718 15.09131078 0.2878340967)
(85.39162355 14.58470562 -0.1211172529)
(87.68710378 15.26169755 0.05823798424)
(89.51854992 17.31204705 0.0949505505)
(99.64744004 19.13376231 -0.2696351618)
(98.53909989 19.88441265 0.7743316006)
(96.96229897 20.36810875 -0.9092057483)
(100.9876751 19.54827682 0.00168240376)
(93.07306823 18.72683278 -0.4299263978)
(90.66714945 16.64091324 0.3729602551)
(91.16856833 17.70627239 0.1383974504)
(82.57346777 15.48033704 0.2664779571)
(80.58611443 14.90936235 0.1488523738)
(79.31230468 13.21858919 -0.2353260759)
(76.00871794 12.29445061 1.056941621)
(72.91775193 12.23458104 -0.5128235588)
(66.98940366 11.48995583 0.04777522396)
(69.54763916 11.05532437 0.2671920812)
(64.6347187 10.2536652 -0.2438508941)
(64.84428131 10.80979196 -0.3700918912)
(61.15002561 10.46439007 0.8757176496)
(59.4908163 10.09914598 0.1573591132)
(56.70273005 10.56231606 0.0003311848781)
(59.54287492 9.981853073 0.03470865737)
(54.72424685 9.313505035 0.1932433869)
(54.40502026 10.49151457 -0.5429998514)
(49.7888275 8.8876984 -0.1576249461)
(53.22467988 8.723822439 0.3276654351)
(45.40032763 8.10002089 0.04156302503)
(81.17033926 12.1871199 -1.13462869)
(93.27891561 13.81760297 0.3284191876)
(82.43005438 12.79396841 0.5394509949)
(82.52371929 14.16056685 -0.5278649145)
(91.69944708 15.38617919 0.742063046)
(90.05709729 16.40401123 0.03383035379)
(95.13040139 18.13283842 -0.1134143582)
(94.06686038 19.17181373 -0.3172727215)
(97.70989039 19.85445425 0.1055661634)
(104.7854379 21.94388468 0.5930891505)
(94.97544206 19.26429131 -0.2139811719)
(98.79356927 19.87664189 -0.1223281661)
(96.05304547 18.10237507 -0.5717987909)
(91.56045047 16.60864488 0.9358219716)
(85.54444843 16.68591055 0.6794333362)
(84.22615371 14.93123722 -0.5217923606)
(82.73490261 13.90805602 1.041080547)
(75.76345359 12.97792985 0.06616158376)
(78.88798325 13.3374809 0.06926932808)
(74.62070365 12.74410955 -0.1311444738)
(71.94553752 12.05599558 -0.1402156266)
(69.89079956 12.30900161 -0.008543715644)
(68.04596177 11.80836918 -0.1255685924)
(65.88330853 11.38390871 0.1646804527)
(65.77057745 11.38815076 0.6696888245)
(60.17932898 10.24701888 0.5420389674)
(61.20408131 11.34272383 -0.37952505)
(59.05447352 11.00020606 -0.1323596964)
(59.25066133 10.45906492 0.3119703124)
(56.22467384 10.34619647 -0.4111676509)
(82.58789499 13.21739902 -0.1764406856)
(93.82435183 13.37633909 -0.1702352446)
(87.81597849 13.08128184 -0.490729791)
(84.5811332 13.54953247 -0.146788494)
(84.51393388 12.73159706 0.1476137748)
(93.71342713 14.62933845 0.6554359027)
(88.81462774 15.34236863 -0.6024082586)
(91.98292227 16.55405386 0.9017755646)
(98.11231435 17.9843037 -0.275237306)
(96.06970819 17.8917623 -0.4302493844)
(96.24162329 19.33541342 -0.3856166018)
(100.3622221 20.13846425 -0.1181842383)
(100.5115921 20.3721017 0.1966242424)
(98.18542746 18.40565059 0.1681655148)
(96.15365242 19.35334732 0.6558740901)
(92.98531045 17.26364282 0.4475432115)
(94.45384741 17.89087553 0.2967635846)
(89.99992665 15.74518434 0.184630431)
(82.94934383 15.10724284 0.2022334699)
(82.61060558 14.657917 -0.2740563071)
(75.18715198 13.20047691 0.5964588178)
(78.82573259 13.66717245 0.3989868379)
(76.23059498 13.34264863 -0.2580861144)
(70.49767798 12.61709704 -0.3023410007)
(70.77676263 13.20089228 -0.142635728)
(72.27190302 12.67170009 -0.548031063)
(66.89586389 11.99066923 0.5450155538)
(66.32580482 12.57320622 0.2037209955)
(61.60894038 11.81839234 0.198902848)
(65.82815307 12.44010112 0.2978828315)
(81.74756535 11.7733105 -0.378445111)
(93.03994177 13.25306309 -0.006618705006)
(83.33882298 12.07707182 0.2025302208)
(83.65850202 12.77193426 -1.157876809)
(83.42322853 12.52593855 0.5137856564)
(90.87606836 14.01095213 -0.2753805003)
(83.92664302 13.17581046 -0.0359921439)
(86.81544332 14.6109594 -0.06433905292)
(94.34471072 16.55549388 0.4448485072)
(94.67264246 18.19622691 -0.1422686607)
(97.76603192 18.4014487 -0.6851862436)
(97.80323551 19.84254431 -0.1559087904)
(102.659432 20.65369333 0.1142657495)
(94.69505205 18.25024486 -0.4144911148)
(98.44536883 20.37224583 -0.5158546154)
(100.7014835 18.73276975 -0.1239230363)
(96.19198668 19.01621914 -0.1909216803)
(91.22462519 17.08540609 0.718364042)
(96.33918806 17.76838448 -0.5941952296)
(91.20204568 16.67293884 0.9151335816)
(88.35798342 16.09170358 0.6646456854)
(84.31634236 15.04563575 -0.2559217241)
(83.97866708 13.5699538 0.361208521)
(85.00706923 16.22328291 0.2778983385)
(78.36160979 13.5710321 0.6909957958)
(81.44726216 14.99651876 -0.5914528553)
(75.68860498 13.69786701 0.04834781994)
(74.51711682 13.64458101 -0.9377401968)
(75.8179727 13.12913166 0.2380416718)
(70.95947925 13.75844339 -0.6750495172)
(83.97374423 12.7132044 0.5277322496)
(88.11273148 12.42059435 -0.01880090177)
(83.11792795 12.98444379 -0.240987418)
(81.45556449 12.04344517 0.1915076353)
(87.6268745 12.98350874 -0.9248437933)
(90.4859288 13.20997274 -0.2501682696)
(87.36832977 13.51257501 -0.09390948767)
(81.9611292 12.62791327 -0.5682753044)
(96.72526407 14.93471606 -0.3436637814)
(92.63984911 15.30939263 -0.1335272795)
(89.36719817 15.74200079 0.3830108457)
(100.9114257 16.98349584 -0.05962738645)
(97.30274222 17.79228133 -0.575039346)
(103.0502778 21.0747362 -0.3442073496)
(104.2902434 21.02728196 0.9031795861)
(106.6177732 21.37137671 -0.1249342058)
(97.84836259 19.68487622 -0.09984652061)
(101.5222148 20.0645354 -0.4709699965)
(94.41794434 17.9608678 0.3786459835)
(101.1878922 19.91733199 0.06282338187)
(91.63289099 17.3715099 -0.1202931101)
(94.77849798 17.86998558 0.7281340461)
(91.74428751 16.6768366 -0.4748466339)
(84.19498578 15.37564982 1.232515356)
(84.30963206 15.02872407 -0.544792209)
(82.42291641 15.2947837 0.3876886307)
(84.64188984 15.52855971 0.5253627764)
(77.56681333 13.86669682 0.7217944427)
(80.55041623 15.06841311 0.1161953718)
(79.09696377 14.19686798 -0.2242511632)
(81.79671664 12.5292625 -0.2651434694)
(93.73358588 13.64405138 -0.05779251374)
(84.35752628 12.55002598 1.199704071)
(81.35050164 11.69484897 -0.5309273195)
(82.31561583 11.81997707 0.4500439672)
(85.72873204 12.53590263 0.4380952775)
(85.33783066 12.81337135 0.002380205638)
(79.95059956 12.20999563 0.2428596388)
(87.32904235 13.06129504 -0.0125411848)
(92.15506955 15.16870579 0.5125475671)
(82.19287863 13.06753314 0.1855681445)
(87.22930543 15.100553 -0.3815979158)
(97.34567435 17.15232373 -0.1707748815)
(87.67807005 16.00390506 0.7009558684)
(100.7814566 19.59976118 0.2590773837)
(96.47442322 17.94048925 -0.3180097174)
(101.7524103 20.80476186 0.381376862)
(105.1101609 20.77961694 -0.1669078132)
(99.24866527 20.076516 0.04794610813)
(98.58501654 18.65039585 -0.2825814126)
(102.0954852 19.82250059 -0.117725054)
(95.08050177 18.14367438 -0.3253340921)
(98.61894162 18.79250634 -0.007348847889)
(98.3506151 18.27741647 1.444509957)
(87.62670975 16.21592447 -0.1046073623)
(94.44620938 16.73583064 -0.3356618581)
(91.06225727 16.51175463 0.7415167755)
(88.65235984 16.87709745 -0.09628602744)
(89.60335761 16.36760664 0.2331850943)
(86.0107155 17.1768695 0.1854573515)
(81.6031223 12.0441574 0.1343251942)
(88.78207823 12.27118789 -0.2736757621)
(83.99318774 12.21876205 0.2687125742)
(83.25623918 12.69616831 -0.3198308013)
(81.37030925 11.49280666 0.3137204236)
(87.87419109 13.20521475 -0.4579297312)
(84.88753831 12.47127038 -0.3393370628)
(83.24483807 12.38253438 0.5534388626)
(86.8077603 13.18741632 0.0262659867)
(83.55791689 12.07495613 -0.2960941979)
(81.0313103 13.4845404 -0.4642574793)
(89.66364798 13.38668594 0.359015463)
(94.29354979 15.82010286 0.2033357439)
(83.86175768 14.44372538 -0.5988225258)
(94.38700699 15.50433597 0.1854812015)
(96.13395413 17.20358782 -0.3098618912)
(95.06342603 18.33338029 0.6638809733)
(104.644969 20.85139321 0.5980810029)
(99.20499056 18.95885835 -0.2185944493)
(103.3798492 19.52518287 0.2602985508)
(104.7641135 20.24317667 0.1476144821)
(96.24476362 18.90364264 -0.162846431)
(98.4207352 18.93481888 0.005445946112)
(97.65843014 18.25997153 -0.5907559674)
(98.88052686 18.60149877 -0.7076226249)
(93.28699429 17.25947615 0.3250789836)
(89.09239461 17.16399162 0.04320181134)
(92.42141561 17.50865798 -0.1340920244)
(89.24972134 16.81997533 0.3959933993)
(92.71296796 17.23111185 0.3252225902)
(85.5720825 12.96886822 -0.7504009073)
(91.01715332 12.36211325 -0.6206822169)
(84.77798836 11.96760899 1.054396876)
(81.1966478 11.74153283 -0.4516186234)
(87.69110956 12.83390167 0.1528192224)
(92.86207018 13.55439022 0.4523134605)
(80.28906974 11.70309157 0.3639938258)
(83.02690394 12.22102833 0.1111320467)
(91.71897546 13.41287349 -0.1085344375)
(88.7782375 13.61476286 -0.4034542746)
(82.25359358 12.28115435 0.4748380021)
(84.61337385 12.67205104 -0.1786716538)
(84.23255699 12.82781346 -0.05306750127)
(84.10825482 13.45552273 0.1541007879)
(91.44557962 14.51462507 -0.3064493728)
(90.47885969 15.96433535 -0.7512721971)
(93.27145345 16.11235334 -0.2409027986)
(95.99574907 17.45729961 0.4100123695)
(98.05191144 17.78864562 -1.47677173)
(99.77314614 19.59750087 0.6300787119)
(102.7582874 20.38156593 0.5066004584)
(101.5521566 19.69673725 -0.8351061611)
(106.3330308 20.53097533 1.535778788)
(97.50914338 20.00239504 -0.08034490271)
(100.2348868 20.06308825 0.08832949667)
(100.2591216 19.21202422 -0.2835671071)
(93.20420446 17.77552383 -0.1093777486)
(94.36416001 18.13255971 0.07309106944)
(95.68054393 17.74447426 0.04687785525)
(94.72540383 17.38322628 0.2447821935)
(80.38994212 11.79346561 -0.0118682865)
(88.23355603 12.0048731 0.1305771198)
(90.20600573 13.33586813 -0.2945266268)
(78.62184391 11.27372679 -0.1521235659)
(85.50889691 11.57897708 0.05113280281)
(85.51838994 11.86607512 -0.1186658122)
(84.40672467 12.16431382 -0.2467908672)
(84.78492733 12.79006509 -0.367046972)
(85.6927762 11.93387984 1.040002291)
(89.23421362 12.82533265 0.09617923791)
(87.24057459 13.1987729 0.1222816149)
(87.1928391 12.6676889 0.1864546785)
(93.11294901 14.86839811 -0.1036217487)
(84.15373471 12.56515669 -0.2662377587)
(91.09193995 14.021845 0.2220099021)
(88.44922955 14.27025146 0.07317098927)
(89.9319385 14.52178064 -0.356476362)
(88.47407382 14.46555472 -0.1765351936)
(93.74788035 16.88515446 0.1094904582)
(98.66713074 18.62432129 -0.6195414287)
(99.28931997 18.13919867 0.2762979484)
(102.434846 18.84509278 -0.6436847451)
(105.5555149 19.9213602 -0.3996088089)
(102.6167519 19.85755154 -0.1615391891)
(104.2061249 18.95840873 -0.6768298339)
(105.5702506 20.48530878 0.7728639808)
(107.958249 20.13902928 1.186622561)
(101.8423708 19.54272446 0.3126267562)
(99.56356313 18.03024265 -0.1283489219)
(99.99100791 18.06206814 -0.06578611645)
(82.25987137 12.4275403 -0.6932681556)
(87.78032669 11.9301593 -0.4383539924)
(82.90993352 11.77877933 -0.4609728945)
(81.56717228 12.41169525 -0.252990545)
(82.06862104 11.61390715 -0.6021292537)
(89.91438969 13.17801619 -0.02471343738)
(83.16775989 11.56372495 -0.9185060309)
(81.28145774 11.56830737 0.2733750715)
(86.71940129 12.06379485 -0.06764586944)
(82.42756413 11.76267727 -0.2556144005)
(86.85516717 12.53356756 0.1818658439)
(84.33653824 11.37258635 -0.2410283221)
(89.27379257 13.36243369 0.224912402)
(86.67537084 13.14613475 0.1258775124)
(88.86615663 12.79841788 0.2991798357)
(88.7304816 14.01132518 0.0448960057)
(93.20857794 13.47194673 0.4761847553)
(91.68320069 13.88425347 0.3610485141)
(88.93964535 14.54537077 -0.5814960034)
(92.03941571 14.89363598 0.9795364115)
(93.74210032 16.14186731 -0.1339853479)
(96.69752462 16.71744034 -0.7644671669)
(97.1347773 18.22725083 0.4565651598)
(100.8357396 19.20778196 0.0651282705)
(104.1276603 19.56149037 -0.1157758065)
(99.22775966 18.66497128 -0.5605483641)