/*--------------------------------*- C++ -*----------------------------------*\
| =========                 |                                                 |
| \\      /  F ield         | OpenFOAM: The Open Source CFD Toolbox           |
|  \\    /   O peration     | Version:  v1912                                 |
|   \\  /    A nd           | Website:  www.openfoam.com                      |
|    \\/     M anipulation  |                                                 |
\*---------------------------------------------------------------------------*/
FoamFile
{
    version     2.0;
    format      ascii;
    class       volScalarField;
    location    "0.00019";
    object      rhoM;
}
// * * * * * * * * * * * * * * * * * * * * * * * * * * * * * * * * * * * * * //

dimensions      [1 -3 0 0 0 0 0];


internalField   nonuniform List<scalar> 
1300
(
1e-277
0.0093
0.015936
0.06376
0.057786
0.0093
0.0279
0.028562
0.029224
0.038524
0.01395
0.014612
0.028562
0.120222
0.028562
0.014612
0.053798
0.071074
0.047824
0.033874
0.009962
0.009962
0.0372
0.088334
0.0744
0.033212
0.057124
0.063098
0.029224
0.053136
0.0093
1e-277
0.037862
0.115572
0.03255
0.009962
0.057124
0.110922
0.029224
0.033212
1e-277
1e-277
0.023912
0.109598
0.051812
0.015274
0.061112
0.09631
0.051812
0.108258
1e-277
1e-277
0.023912
0.092322
0.043174
0.039186
0.066424
0.057124
0.042512
0.0186
1e-277
1e-277
0.042512
0.075046
0.062436
0.023912
0.048486
0.043174
0.047824
0.037862
1e-277
1e-277
0.028562
0.094986
0.04185
0.028562
0.049148
0.081698
0.0279
0.053136
1e-277
1e-277
0.014612
0.118898
0.047824
0.005312
0.076386
0.043174
0.039186
0.039186
0.00465
1e-277
0.00465
0.11357
0.053798
0.02325
0.062436
0.067086
0.029224
0.071736
0.00465
1e-277
0.029224
0.090336
0.075724
0.0186
0.038524
0.043174
0.02325
0.057124
1e-277
1e-277
0.0372
0.077048
0.029224
0.019924
0.063098
0.043174
0.051812
0.028562
1e-277
0.00465
0.029886
0.12421
0.047824
0.033874
0.043174
0.071074
0.042512
0.076386
1e-277
1e-277
0.023912
0.106934
0.04185
0.019262
0.067086
0.063098
0.0093
0.039186
1e-277
1e-277
0.039186
0.071074
0.047162
0.023912
0.0279
0.081698
0.081036
0.048486
1e-277
1e-277
0.019924
0.16141
0.025236
0.028562
0.042512
0.069072
0.047162
0.063098
1e-277
1e-277
0.0279
0.07306
0.029224
0.01395
0.052474
0.053798
0.052474
0.038524
0.00465
1e-277
0.0186
0.090336
0.052474
0.014612
0.075062
0.033874
0.05115
0.033212
1e-277
1e-277
0.033212
0.102284
0.0279
0.019262
0.057124
0.029886
0.057786
0.023912
1e-277
1e-277
0.019924
0.115572
0.043174
0.023912
0.048486
0.05911
0.081036
0.043836
0.02024166058
0.03556252327
0.028447383
0.01915107873
0.04376824562
0.01969636965
0.03064172596
0.01586615378
0.02407187633
0.03447194171
0.01969636949
0.01969636965
0.01969636965
0.03939273899
0.03282288968
0.03282288968
0.02407187613
0.02298129447
0.01915107873
0.04814375226
0.03556252356
0.03173230782
0.01969636949
0.04267766412
0.03556252356
0.03719839605
0.06072498175
0.03610781449
0.02681150999
0.03610781449
0.03556252356
0.02735680092
0.01641144484
0.03064172596
0.03118701663
0.02516245819
0.0235265854
0.03719839605
0.01149064724
0.0421323732
0.03993802991
0.02407187633
0.01586615391
0.01969636949
0.03173230782
0.02735680114
0.05142867705
0.01969636965
0.02461716726
0.05088338613
0.04322295505
0.0470531708
0.03884744806
0.04322295505
0.01969636965
0.04376824562
0.01149064724
0.03939273931
0.0164114447
0.01586615391
0.05251925933
0.04650787949
0.04322295505
0.06620424952
0.02790209184
0.04376824598
0.01915107873
0.03556252327
0.04376824598
0.01641144484
0.03336818033
0.01532086298
0.02790209207
0.02735680092
0.003830215745
0.01532086298
0.02298129428
0.03227759875
0.01532086298
0.02735680092
0.02735680114
0.0235265854
0.04213237285
0.05416831136
0.01915107873
0.03556252327
0.04322295505
0.02024166058
0.01532086285
0.02899267393
0.06674954045
0.02352658521
0.03719839635
0.04759846173
0.02352658521
0.02790209207
0.02298129447
0.01532086285
0.0470531708
0.04759846173
0.01203593807
0.01149064724
0.05088338654
0.02407187613
0.03501723263
0.01969636965
0.01532086285
0.04759846173
0.02298129447
0.01695673563
0.04048332117
0.04759846173
0.03118701663
0.03227759875
0.02735680114
0.04376824562
0.01969636965
0.06017969082
0.03939273899
0.02790209207
0.04650787987
0.05088338613
0.04267766412
0.05088338654
0.04376824562
0.06564577936
0.0470531708
0.02407187613
0.04048332117
0.03501723263
0.03556252327
0.03719839635
0.02790209207
0.04267766377
0.03501723263
0.05908910896
0.02790209184
0.0235265854
0.02298129447
0.04267766377
0.01969636965
0.02407187633
0.04759846134
0.03173230782
0.03173230782
0.03227759848
0.03610781449
0.05525889322
0.01532086285
0.02407187633
0.04267766412
0.07221562839
0.06620424952
0.06291932471
0.0432229547
0.04267766412
0.04267766412
0.03830215713
0.03884744838
0.05088338654
0.03939273899
0.06017969082
0.03227759875
0.01532086285
0.05306455026
0.02790209207
0.03064172571
0.02735680114
0.0235265854
0.03173230756
0.0470531708
0.01586615391
0.05088338613
0.03447194171
0.0235265854
0.03447194142
0.02681151022
0.03173230782
0.02352658521
0.05360984119
0.05580418415
0.04048332084
0.09465163253
0.05471360229
0.06182874234
0.07440997194
0.05634947508
0.05088338613
0.06291932471
0.07440997194
0.0525192589
0.01532086298
0.02461716726
0.03556252327
0.05416831136
0.04759846173
0.02298129428
0.01915107873
0.02024166058
0.05799852663
0.02298129447
0.05580418415
0.05142867705
0.03993803024
0.01915107873
0.02681150999
0.03993803024
0.03610781449
0.03064172571
0.04650787987
0.02735680114
0.0503380952
0.02298129447
0.0410286121
0.06346461512
0.06674954045
0.05854381803
0.04048332084
0.04759846173
0.05142867747
0.04431353655
0.04267766412
0.09136670771
0.0596343994
0.04431353691
0.01532086298
0.05580418369
0.05251925933
0.03830215745
0.05634947461
0.03610781449
0.0470531708
0.03447194142
0.03556252356
0.03939273931
0.03501723235
0.03556252356
0.04431353691
0.02298129428
0.04048332117
0.0519739684
0.05088338613
0.05525889322
0.07769489676
0.04759846134
0.08207040343
0.0755005538
0.07167033747
0.06674954045
0.07824018769
0.05088338613
0.04322295505
0.03173230782
0.06346461512
0.05142867747
0.03884744838
0.05744005647
0.01915107873
0.02790209207
0.01915107857
0.07495526287
0.03336818061
0.07003446469
0.06017969082
0.0421323732
0.03173230756
0.03118701689
0.05580418415
0.04814375226
0.04376824598
0.05142867747
0.02681150999
0.06017969082
0.03939273931
0.05142867705
0.05963439989
0.028447383
0.05580418369
0.07167033806
0.04376824598
0.0596343994
0.05471360229
0.04322295505
0.03830215713
0.05416831136
0.05908910896
0.03501723235
0.04322295505
0.03556252356
0.04705317041
0.05525889322
0.05033809561
0.04705317041
0.05580418415
0.05745323618
0.02298129428
0.03227759875
0.04376824598
0.03993802991
0.01203593816
0.0705797562
0.03118701663
0.0470531708
0.08479685808
0.03939273899
0.0519739684
0.08316098529
0.05580418369
0.0519739684
0.04376824598
0.03884744806
0.03556252356
0.0755005538
0.06838541268
0.05580418415
0.03610781449
0.04759846134
0.03939273931
0.06620424952
0.05471360184
0.04322295505
0.06291932471
0.04485882747
0.03939273931
0.07276091992
0.05580418369
0.04431353691
0.0519739684
0.03884744806
0.06346461564
0.05088338654
0.04376824562
0.04814375266
0.04376824598
0.06237403327
0.05142867747
0.01586615391
0.07167033747
0.06674954045
0.04376824598
0.05471360184
0.05416831136
0.04923433452
0.05854381755
0.0519739684
0.05525889322
0.09628750453
0.04759846173
0.06620424952
0.04705317041
0.05471360229
0.05634947508
0.06620424898
0.05525889322
0.04650787987
0.03939273899
0.05142867747
0.04048332117
0.03884744806
0.02298129447
0.0459494097
0.0667495399
0.0470531708
0.05142867747
0.06291932419
0.05525889322
0.06674954045
0.04814375226
0.05525889322
0.06400990657
0.06237403327
0.1105177864
0.05525889322
0.05197396798
0.05854381803
0.04376824598
0.05854381755
0.03501723263
0.08590061918
0.08425156646
0.04979280469
0.04814375266
0.04977962504
0.028447383
0.03447194171
0.04596258856
0.06784012231
0.02735680114
0.04431353655
0.06400990657
0.04979280469
0.04759846134
0.05471360229
0.04650787987
0.0667495399
0.06291932471
0.05088338654
0.05088338613
0.06237403378
0.04322295505
0.03501723235
0.04048332117
0.0519739684
0.06017969033
0.05033809561
0.02735680114
0.05908910848
0.06072498175
0.07386468101
0.05908910848
0.05689476601
0.03993803024
0.08535532755
0.07386468101
0.07987606048
0.06510048789
0.06291932471
0.04322295505
0.04979280428
0.06893070417
0.0470531708
0.02352658521
0.05634947508
0.028447383
0.04705317041
0.03993803024
0.03884744838
0.03556252327
0.06620424952
0.03939273931
0.01969636949
0.03993803024
0.05088338654
0.05197396798
0.07167033806
0.02681151022
0.05854381755
0.05908910896
0.07933076955
0.06729483083
0.07167033806
0.03501723263
0.05142867705
0.04650787987
0.0519739684
0.05908910848
0.0470531708
0.04267766412
0.03173230756
0.0705797562
0.05580418415
0.05525889276
0.03993803024
0.05142867747
0.06017969033
0.06729483138
0.0470531708
0.03064172571
0.04431353691
0.07768171752
0.05197396798
0.07440997194
0.07933076955
0.0361078142
0.04485882784
0.04650787987
0.05197396798
0.04322295505
0.06237403378
0.08808178217
0.0755005538
0.05580418415
0.1105177855
0.0421323732
0.06291932471
0.06838541268
0.03556252356
0.06674954045
0.08370627553
0.07276091992
0.0519739684
0.0432229547
0.06346461564
0.05908910896
0.04376824562
0.06346461564
0.0470531708
0.03501723235
0.05471360229
0.09082141678
0.04705317041
0.01969636965
0.0470531708
0.04650787949
0.05471360229
0.03118701689
0.02735680092
0.05088338654
0.06674954045
0.05580418369
0.04759846173
0.07604584473
0.07331938948
0.0880817829
0.102312064
0.07714960519
0.07112504713
0.06838541324
0.05525889276
0.0519739684
0.05525889322
0.0503380952
0.04868904359
0.03064172596
0.05088338613
0.0421323732
0.06784012231
0.06729483083
0.03939273931
0.05088338654
0.03665310512
0.01969636965
0.02024166058
0.02681150999
0.06784012231
0.03993803024
0.05088338613
0.05525889322
0.03556252356
0.05088338613
0.05088338654
0.05471360229
0.05525889276
0.06838541324
0.05525889322
0.04431353655
0.07713642659
0.07659113566
0.0935610499
0.06729483138
0.04376824598
0.04759846134
0.04759846173
0.07167033806
0.05580418369
0.06400990657
0.05142867747
0.04979280428
0.03719839635
0.0645551975
0.03939273899
0.06346461564
0.05033809561
0.05362301999
0.05580418415
0.07824018769
0.06017969033
0.02298129447
0.03665310542
0.05525889276
0.0755005538
0.05088338654
0.06400990604
0.05142867747
0.05963439989
0.05088338613
0.0421323732
0.05908910896
0.06291932419
0.1028573549
0.04868904359
0.03939273899
0.03993803024
0.03993803024
0.06838541268
0.07659113566
0.06400990657
0.05088338613
0.05142867747
0.04048332117
0.09082141604
0.06237403378
0.05088338654
0.05908910848
0.03173230782
0.05142867747
0.06017969033
0.04431353691
0.0519739684
0.05854381755
0.04376824598
0.05525889322
0.0667495399
0.06674954045
0.04048332117
0.08205722352
0.03830215745
0.02078695151
0.04759846134
0.05033809561
0.02325
0.034536
0.02325
0.01395
0.02325
0.037862
0.028562
0.028562
0.043174
0.029224
0.057124
0.0186
0.038524
0.033874
0.02325
0.029886
0.052474
0.023912
0.033874
0.029224
0.039186
0.023912
0.057786
0.029224
0.029886
0.029224
0.03255
1e-277
0.0279
0.014612
0.014612
0.0279
0.033874
0.01395
0.0186
0.023912
0.043174
0.01395
0.03255
0.024574
0.038524
0.037862
0.02325
0.0093
0.0279
0.043174
0.039848
0.0186
0.023912
0.009962
0.0093
0.07306
0.014612
0.028562
0.014612
0.0279
0.034536
0.0186
0.02325
0.005312
0.023912
0.03255
0.033212
0.023912
0.0093
0.029224
0.053136
0.024574
1e-277
0.01395
0.01395
0.048486
0.0279
0.038524
0.033212
0.005312
0.035198
0.028562
0.067748
0.03121
0.014612
0.053798
0.03255
0.029224
0.047162
0.033874
0.043174
0.02325
0.037862
0.019924
0.024574
0.02325
0.024574
0.034536
0.029886
0.04185
0.02325
0.06975
0.033212
0.043174
0.038524
0.03255
0.0372
0.01395
0.038524
0.0279
0.033874
0.033212
0.029224
0.04981
0.037862
0.043174
0.071074
0.067748
0.048486
0.080374
0.053136
0.033874
0.033212
0.047824
0.019262
0.062436
0.03255
0.073722
0.043174
0.039186
0.05115
0.024574
0.038524
0.058448
0.056462
0.072398
0.056462
0.038524
0.075724
0.052474
0.06841
0.072398
0.061774
0.061112
0.057786
0.056462
0.100298
0.076386
0.042512
0.081698
0.0465
0.053136
0.051812
0.053798
0.061774
0.052474
0.076386
0.050472
0.053136
0.083022
0.067748
0.070412
0.070412
0.061112
0.066424
0.028562
0.078372
0.07771
0.067086
0.067748
0.071074
0.047824
0.047824
0.042512
0.090336
0.051812
0.076386
0.086348
0.10096
0.071736
0.0558
0.037862
0.072398
0.047162
0.058448
0.072398
0.083684
0.077048
0.0372
0.039186
0.067086
0.075724
0.079712
0.033212
0.063098
0.035198
0.065762
0.092322
0.063098
0.102284
0.048486
0.043174
0.071736
0.101622
0.03811610149
0.01445728558
0.0302245527
0.0282595808
0.03220535488
0.04337185715
0.01511227635
0.03680611986
0.02760459017
0.04206187589
0.04600764983
0.04731763155
0.04862761282
0.03417032676
0.01840306011
0.03680612022
0.03811610112
0.03351533646
0.04271686652
0.03811610112
0.02956956207
0.03877109213
0.0276045899
0.0322053552
0.05651916161
0.03811610112
0.04797262218
0.03811610149
0.01380229495
0.03351533646
0.01802142983
0.05084174731
0.02831496051
0.04697779822
0.04118962461
0.03860849119
0.05148315568
0.05985246214
0.04697779822
0.03668426755
0.02703214449
0.03217891009
0.05598851314
0.05084174731
0.03668426755
0.02316819517
0.05921105427
0.02380960305
0.02703214475
0.03668426719
0.05470569738
0.05534710526
0.0559885126
0.06177668636
0.02895636839
0.04183103248
0.04633639034
0.05598851314
0.02767355236
0.05598851314
0.008827652989
0.0409811921
0.06493545602
0.05422267197
0.02711133573
0.05359429496
0.04098119249
0.04980884501
0.04918046846
0.02836809003
0.04160956912
0.07313473199
0.04286632355
0.04918046799
0.02269750949
0.04980884548
0.03089678517
0.05863649847
0.05422267197
0.04035281509
0.03152516248
0.03782412003
0.03278191621
0.04286632355
0.01765530598
0.04918046799
0.0504372225
0.0687209055
0.05422267146
0.02773971301
0.03028158398
0.02657150826
0.03954933021
0.03089744907
0.02162970264
0.04449113587
0.03274504433
0.04449113545
0.0506646717
0.0401651953
0.04510700053
0.03151331416
0.053143017
0.03583925439
0.03522338964
0.053143017
0.04510700053
0.03522338964
0.05560647735
0.03522338931
0.04510700095
0.05437474718
0.05746895704
0.03089744907
0.05808482266
0.02657150826
0.04078106038
0.05252715192
0.03645511948
0.0401651953
0.04058874255
0.02665660033
0.02120743099
0.03938105917
0.04726018944
0.03453573128
0.03574341466
0.03089808649
0.04907171494
0.04422638705
0.03998490049
0.03453573128
0.03453573128
0.04241486159
0.004241486198
0.03089808677
0.01817362801
0.02605275888
0.02665660057
0.03574341433
0.06119233185
0.03089808677
0.04786403113
0.06119233185
0.04422638705
0.04726018944
0.06300385692
0.05755468734
0.06543381745
0.03453573128
0.03446668753
0.02971414225
0.02080133125
0.05051547376
0.04694748586
0.02673843379
0.04635520751
0.03387440846
0.02257816754
0.02614615503
0.04753976462
0.04635520751
0.01723334376
0.04160266213
0.0249615975
0.05467574001
0.04278721965
0.02198588878
0.03446668753
0.03446668722
0.09091926384
0.03387440876
0.03030642101
0.03446668753
0.03981151131
0.0594282845
0.02971414251
0.04278722003
0.03089869977
0.06120512132
0.02973698957
0.01749069419
0.05597303108
0.02157279275
0.03673888535
0.03790118638
0.04198328479
0.02041049186
0.02157279275
0.03732003603
0.02041049186
0.03381908797
0.02041049204
0.02041049186
0.03790118638
0.02915583921
0.02565489093
0.06355607754
0.0250737408
0.03381908768
0.05364842966
0.03790118638
0.04606538279
0.03381908797
0.02041049204
0.05422957954
0.04256443514
0.05655418143
0.03381908768
0.04256443514
0.02461131526
0.03663175636
0.04234986773
0.0337658077
0.04464538391
0.01202044142
0.03720218909
0.05379987627
0.01659768764
0.03433624012
0.02003406886
0.0486521981
0.04521581671
0.03490667224
0.02461131526
0.02461131526
0.02461131504
0.02461131526
0.02060450145
0.02861812882
0.04521581671
0.05322944432
0.02060450127
0.008013627613
0.03663175668
0.02918856123
0.0412090029
0.05379987674
0.04177943496
0.02117493387
0.02753979067
0.02023138154
0.02809989333
0.03596840495
0.03259425152
0.03203414914
0.02809989333
0.02360553466
0.02416563752
0.05338573615
0.03315435417
0.05338573615
0.03259425179
0.02416563731
0.03203414914
0.01180276743
0.02079148419
0.02416563752
0.03708861026
0.01180276733
0.03259425179
0.04551722453
0.05170542775
0.03147404648
0.04945148034
0.02809989309
0.05170542819
0.0365285076
0.0449571215
0.04495712188
0.019871535
0.03201451187
0.03587879107
0.01159283679
0.01987153483
0.01545711571
0.01600725607
0.01600725594
0.03697907178
0.03974306999
0.007728557793
0.03532865071
0.04802176821
0.02042167518
0.01214297714
0.0126931175
0.02538623478
0.02373581393
0.03587879107
0.04029321001
0.02318567357
0.03919292964
0.02483609443
0.03587879107
0.02373581393
0.02373581373
0.02760009285
0.03642893142
0.05133590635
0.04470762963
)
;

boundaryField
{
    inlet
    {
        type            zeroGradient;
    }
    outlet
    {
        type            zeroGradient;
    }
    wall
    {
        type            calculated;
        value           uniform 1e-300;
    }
    frontAndBack
    {
        type            empty;
    }
}


// ************************************************************************* //
