/*--------------------------------*- C++ -*----------------------------------*\
| =========                 |                                                 |
| \\      /  F ield         | OpenFOAM: The Open Source CFD Toolbox           |
|  \\    /   O peration     | Version:  v1912                                 |
|   \\  /    A nd           | Website:  www.openfoam.com                      |
|    \\/     M anipulation  |                                                 |
\*---------------------------------------------------------------------------*/
FoamFile
{
    version     2.0;
    format      ascii;
    class       volVectorField;
    location    "2.76";
    object      grad(p);
}
// * * * * * * * * * * * * * * * * * * * * * * * * * * * * * * * * * * * * * //

dimensions      [1 -2 -2 0 0 0 0];


internalField   nonuniform List<vector> 
1900
(
(41407.4 0.01078 0)
(-30092.3 0.153939 0)
(-1144.22 0.6832 0)
(678.434 0.454114 0)
(581.821 0.344311 0)
(586.009 -3.26738 0)
(651.916 -15.6859 0)
(714.388 -77.3432 0)
(857.861 -150.212 0)
(-124.651 -190.052 0)
(41407.6 0.0086999 0)
(-30091.6 0.298376 0)
(-1143.92 0.909867 0)
(678.095 -0.827134 0)
(578.1 -4.03995 0)
(569.979 -9.7747 0)
(577.84 -16.2946 0)
(579.861 -56.689 0)
(745.151 -83.1878 0)
(806.589 -240.382 0)
(41407.7 3.55271e-10 0)
(-30091.4 -1.08358e-09 0)
(-1145.35 2.11386e-09 0)
(673.484 -9.05942e-10 0)
(572.874 -9.23706e-10 0)
(573.755 -6.57252e-10 0)
(605.001 4.44089e-10 0)
(647.494 8.70415e-10 0)
(674.167 3.03757e-09 0)
(592.033 2.84217e-10 0)
(41407.6 -0.0086999 0)
(-30091.6 -0.298376 0)
(-1143.92 -0.909867 0)
(678.095 0.827134 0)
(578.1 4.03995 0)
(569.979 9.7747 0)
(577.84 16.2946 0)
(579.861 56.689 0)
(745.151 83.1878 0)
(806.589 240.382 0)
(41407.4 -0.01078 0)
(-30092.3 -0.153939 0)
(-1144.22 -0.6832 0)
(678.434 -0.454114 0)
(581.821 -0.344311 0)
(586.009 3.26738 0)
(651.916 15.6859 0)
(714.388 77.3432 0)
(857.861 150.212 0)
(-124.651 190.052 0)
(-333.684 628.66 1.11145e-11)
(203.388 742.302 -1.36776e-11)
(-2745.57 600.028 -1.72641e-11)
(-15436.9 2932.97 0)
(-7609.09 18513.4 -6.17751e-11)
(687.352 490.349 1.12281e-11)
(-93.442 404.138 1.36776e-11)
(-1616.55 -29.822 1.72641e-11)
(-7713.75 1002.18 0)
(-5455.48 14711.7 0)
(650.862 -4.66615e-10 0)
(-170.283 3.11642e-10 0)
(-2229.15 -3.60206e-09 0)
(-7479.25 1.41301e-09 0)
(3007.78 -6.76707e-09 0)
(687.352 -490.349 1.12281e-11)
(-93.442 -404.138 1.36776e-11)
(-1616.55 29.822 1.72641e-11)
(-7713.75 -1002.18 0)
(-5455.48 -14711.7 0)
(-333.684 -628.66 -3.35706e-11)
(203.388 -742.302 -1.36776e-11)
(-2745.57 -600.028 -1.72641e-11)
(-15436.9 -2932.97 -4.56808e-11)
(-7609.09 -18513.4 6.17751e-11)
(18473.3 -4213.57 3.44513e-11)
(2713.71 -437.721 -2.9513e-11)
(2557.39 745.243 0)
(336.13 1874.32 2.34559e-11)
(-12999 -1073.42 -1.04255e-11)
(12198.7 -4563.95 -1.71622e-11)
(3968.49 -287.053 1.47499e-11)
(3377.42 -77.0898 0)
(-470.35 10.5061 -1.46953e-11)
(-12209.1 -7726.7 2.54011e-12)
(13776.2 -4.57546e-09 0)
(3789.73 -5.61754e-09 0)
(2556.84 1.3224e-08 0)
(-3237.33 -9.40424e-09 5.87825e-12)
(-14360.5 -2.59182e-08 -5.08022e-12)
(12198.7 4563.95 -1.71622e-11)
(3968.49 287.053 1.47499e-11)
(3377.42 77.0898 0)
(-470.35 -10.5061 -1.46953e-11)
(-12209.1 7726.7 2.54011e-12)
(18473.3 4213.57 1.71622e-11)
(2713.71 437.721 1.31827e-14)
(2557.39 -745.243 0)
(336.13 -1874.32 5.64484e-14)
(-12999 1073.42 1.04255e-11)
(-33203 -3333.17 0)
(-19792.6 8095.72 0)
(1787.25 4383.05 0)
(-32.776 1968.04 0)
(-910.767 1059.8 0)
(-252.116 653.673 0)
(276.546 542.394 0)
(565.251 522.387 0)
(793.491 464.852 0)
(1065.59 452.196 0)
(1292.21 451.019 0)
(1522.15 447.359 0)
(1749.57 444.744 0)
(1958.56 445.379 0)
(2115.39 449.012 0)
(2159.95 454.735 0)
(2021.38 460.557 0)
(1628.37 464.92 0)
(1125.28 467.161 0)
(418.63 467.777 0)
(-529.278 468.144 0)
(-1229.29 466.95 0)
(-1723.2 463.741 0)
(-2116.66 457.506 0)
(-2270.02 449.107 0)
(-2263.85 439.867 0)
(-2171.19 431.356 0)
(-2050.64 424.538 0)
(-1925.88 419.746 0)
(-1797.69 417.019 0)
(-1660.28 416.389 0)
(-1515.37 418.103 0)
(-1377.05 422.398 0)
(-1266.19 429.036 0)
(-1162.97 434.414 0)
(-1001.98 438.81 0)
(-697.798 418.671 0)
(-1042.59 451.463 0)
(60265.4 485.751 0)
(-79288.9 3577.01 0)
(-31278.6 -1838.97 0)
(-20338.6 9831.48 0)
(683.855 4406.93 0)
(-725.426 1063.67 0)
(-1025.76 514.678 0)
(-304.236 269.381 0)
(266.342 238.584 0)
(557.969 221.494 0)
(788.385 200.354 0)
(1063.77 193.856 0)
(1291.47 191.732 0)
(1521.12 188.233 0)
(1748.89 185.244 0)
(1958.43 183.775 0)
(2115.7 183.618 0)
(2160.42 184.403 0)
(2021.71 185.247 0)
(1628.43 185.606 0)
(1125.19 185.42 0)
(418.627 185.27 0)
(-529.185 185.512 0)
(-1229.3 185.523 0)
(-1723.5 185.314 0)
(-2117.35 184.145 0)
(-2270.94 182.313 0)
(-2264.74 180.351 0)
(-2171.77 178.992 0)
(-2050.77 178.731 0)
(-1925.51 179.783 0)
(-1796.81 182.21 0)
(-1658.87 186.046 0)
(-1513.44 191.382 0)
(-1374.66 198.174 0)
(-1263.81 206.253 0)
(-1161.27 213.35 0)
(-1003.13 219.352 0)
(-696.129 211.356 0)
(-1038.11 230.307 0)
(60538.7 236.642 0)
(-79650.7 2659.18 0)
(-27859.8 1.21438e-08 0)
(-17975.6 3.48812e-09 0)
(-763.391 3.98873e-09 0)
(-1165.07 2.50305e-09 0)
(-1141.83 -2.61609e-09 0)
(-332.434 -1.05451e-08 0)
(262.615 8.0582e-09 0)
(554.129 3.05372e-08 0)
(785.451 8.54105e-08 0)
(1063.09 3.88861e-08 0)
(1290.58 -1.37684e-07 0)
(1520.26 -3.17403e-07 0)
(1748.28 -2.83975e-07 0)
(1958.09 6.1688e-09 0)
(2115.58 3.81626e-07 0)
(2160.42 1.03839e-06 0)
(2021.73 1.83478e-06 0)
(1628.42 2.88726e-06 0)
(1125.19 1.80694e-06 0)
(418.657 -2.61858e-06 0)
(-529.205 -3.19735e-06 0)
(-1229.35 2.83723e-06 0)
(-1723.6 3.81374e-06 0)
(-2117.53 1.75708e-06 0)
(-2271.12 8.37472e-07 0)
(-2264.82 3.50233e-06 0)
(-2171.66 7.92917e-06 0)
(-2050.41 1.02691e-05 0)
(-1924.87 9.56029e-06 0)
(-1795.86 5.98991e-06 0)
(-1657.61 9.37803e-07 0)
(-1511.84 -4.84004e-06 0)
(-1372.73 -1.04e-05 0)
(-1261.77 -1.45128e-05 0)
(-1159.16 -1.84877e-05 0)
(-1002.56 -2.48435e-05 0)
(-694.611 -2.76792e-05 0)
(-1035.23 -1.72379e-05 0)
(60972 -1.02895e-05 0)
(-80131.3 -0.000110797 0)
(-31278.6 1838.97 0)
(-20338.6 -9831.48 0)
(683.855 -4406.93 0)
(-725.426 -1063.67 0)
(-1025.76 -514.678 0)
(-304.236 -269.381 0)
(266.342 -238.584 0)
(557.969 -221.494 0)
(788.385 -200.354 0)
(1063.77 -193.856 0)
(1291.47 -191.732 0)
(1521.12 -188.233 0)
(1748.89 -185.244 0)
(1958.43 -183.775 0)
(2115.7 -183.618 0)
(2160.42 -184.403 0)
(2021.71 -185.247 0)
(1628.43 -185.606 0)
(1125.19 -185.42 0)
(418.627 -185.27 0)
(-529.185 -185.512 0)
(-1229.3 -185.523 0)
(-1723.5 -185.314 0)
(-2117.35 -184.145 0)
(-2270.94 -182.313 0)
(-2264.74 -180.351 0)
(-2171.77 -178.992 0)
(-2050.77 -178.731 0)
(-1925.51 -179.783 0)
(-1796.81 -182.21 0)
(-1658.87 -186.046 0)
(-1513.44 -191.382 0)
(-1374.66 -198.174 0)
(-1263.81 -206.253 0)
(-1161.27 -213.35 0)
(-1003.13 -219.352 0)
(-696.129 -211.356 0)
(-1038.11 -230.307 0)
(60538.7 -236.642 0)
(-79650.7 -2659.18 0)
(-33203 3333.17 0)
(-19792.6 -8095.72 0)
(1787.25 -4383.05 0)
(-32.776 -1968.04 0)
(-910.767 -1059.8 0)
(-252.116 -653.673 0)
(276.546 -542.394 0)
(565.251 -522.387 0)
(793.491 -464.852 0)
(1065.59 -452.196 0)
(1292.21 -451.019 0)
(1522.15 -447.359 0)
(1749.57 -444.744 0)
(1958.56 -445.379 0)
(2115.39 -449.012 0)
(2159.95 -454.735 0)
(2021.38 -460.557 0)
(1628.37 -464.92 0)
(1125.28 -467.161 0)
(418.63 -467.777 0)
(-529.278 -468.144 0)
(-1229.29 -466.95 0)
(-1723.2 -463.741 0)
(-2116.66 -457.506 0)
(-2270.02 -449.107 0)
(-2263.85 -439.867 0)
(-2171.19 -431.356 0)
(-2050.64 -424.538 0)
(-1925.88 -419.746 0)
(-1797.69 -417.019 0)
(-1660.28 -416.389 0)
(-1515.37 -418.103 0)
(-1377.05 -422.398 0)
(-1266.19 -429.036 0)
(-1162.97 -434.414 0)
(-1001.98 -438.81 0)
(-697.798 -418.671 0)
(-1042.59 -451.463 0)
(60265.4 -485.751 0)
(-79288.9 -3577.01 0)
(49976.6 11768.3 0)
(-25810.1 -5400.02 0)
(3251.79 -3110.89 0)
(558.278 -2967.71 0)
(-334.257 -1772.7 0)
(-39.943 -1261.65 0)
(336.895 -1028.19 0)
(598.191 -987.52 0)
(826.51 -905.024 0)
(1070.33 -893.53 0)
(1293.65 -894.513 0)
(1523.88 -895.435 0)
(1749.35 -899.21 0)
(1955.6 -908.666 0)
(2110.18 -923.457 0)
(2153.73 -941.631 0)
(2015.71 -959.425 0)
(1624.36 -973.524 0)
(1123.29 -981.712 0)
(418.006 -986.061 0)
(-528.558 -986.254 0)
(-1226.54 -980.272 0)
(-1717.93 -969.914 0)
(-2108.98 -952.271 0)
(-2260.95 -929.907 0)
(-2254.63 -905.599 0)
(-2162.83 -882.297 0)
(-2043.64 -861.606 0)
(-1920.37 -843.915 0)
(-1793.68 -829.036 0)
(-1657.93 -816.904 0)
(-1514.98 -807.847 0)
(-1378.76 -802.035 0)
(-1268.6 -799.91 0)
(-1165.43 -793.986 0)
(-994.584 -790.237 0)
(-702.136 -756.85 0)
(-1075.01 -786.223 0)
(58894.1 -833.455 0)
(-77520.6 -5728.8 0)
(52053.6 6451.82 0)
(-30903.9 -2429.01 0)
(3345.78 -2842.72 0)
(939.812 -2877.7 0)
(424.113 -2211.03 0)
(351.542 -1761.54 0)
(508.346 -1527.85 0)
(666.275 -1439.52 0)
(866.358 -1382.95 0)
(1073.19 -1375.31 0)
(1289.61 -1380.79 0)
(1516.69 -1392.25 0)
(1736.95 -1409.9 0)
(1936.78 -1436.43 0)
(2086.42 -1471.24 0)
(2128.62 -1510.73 0)
(1993.69 -1548.56 0)
(1609.04 -1578.8 0)
(1114.27 -1597.04 0)
(414.588 -1608.04 0)
(-524.086 -1607.98 0)
(-1215.03 -1594.3 0)
(-1699.05 -1572.87 0)
(-2082.22 -1537.98 0)
(-2229.9 -1494.72 0)
(-2222.92 -1447.92 0)
(-2133.28 -1402.31 0)
(-2017.4 -1360.34 0)
(-1897.45 -1322.4 0)
(-1773.81 -1288.24 0)
(-1641.12 -1257.53 0)
(-1501.25 -1230.74 0)
(-1368.49 -1207.42 0)
(-1257.14 -1188.11 0)
(-1152.32 -1161.24 0)
(-970.157 -1137.55 0)
(-691.604 -1098.27 0)
(-1099.02 -1106.96 0)
(56237.9 -1164.22 0)
(-73913.4 -7590.88 0)
(53853.1 6824.76 0)
(-34766.6 -1404.17 0)
(2819.41 -2453.72 0)
(1166.99 -2450.44 0)
(741.318 -2249.09 0)
(618.393 -1959.96 0)
(647.203 -1821.74 0)
(737.819 -1728.71 0)
(888.388 -1699.84 0)
(1072.41 -1698.34 0)
(1277.32 -1709.41 0)
(1495.83 -1731.87 0)
(1706.78 -1765.15 0)
(1896.49 -1811.36 0)
(2038.59 -1868.85 0)
(2079.21 -1932.24 0)
(1950.11 -1992.59 0)
(1577.64 -2041.21 0)
(1095.11 -2071.56 0)
(407.463 -2089.12 0)
(-515.319 -2088.28 0)
(-1192.7 -2066.42 0)
(-1663.65 -2031.91 0)
(-2033.68 -1978.12 0)
(-2174.16 -1912.19 0)
(-2165.57 -1840.81 0)
(-2078.44 -1770.24 0)
(-1966.64 -1703.54 0)
(-1850.89 -1641.55 0)
(-1731.17 -1583.75 0)
(-1602.51 -1530.49 0)
(-1466.69 -1482.13 0)
(-1337.68 -1437.75 0)
(-1224.1 -1397.46 0)
(-1116.72 -1347.9 0)
(-933.897 -1303.66 0)
(-672.656 -1267.03 0)
(-1138.57 -1266.74 0)
(52646 -1344.25 0)
(-69083.9 -8954.41 0)
(57277.1 464.536 0)
(-39845 -1396.65 0)
(2337.55 -2035.87 0)
(1137 -2158.35 0)
(896.753 -2087.66 0)
(763.354 -1947.68 0)
(731.186 -1874.62 0)
(783.74 -1823.43 0)
(895.625 -1810.22 0)
(1063.96 -1815.96 0)
(1257.3 -1831.16 0)
(1462.98 -1860.23 0)
(1660.35 -1904.7 0)
(1836.85 -1964.83 0)
(1969.93 -2038.29 0)
(2009.38 -2118.08 0)
(1888.68 -2193.86 0)
(1532.94 -2255.1 0)
(1068.11 -2293.84 0)
(398.476 -2314.93 0)
(-502.212 -2312.51 0)
(-1160.71 -2284.59 0)
(-1613.96 -2240.16 0)
(-1966.86 -2173 0)
(-2097.58 -2091.17 0)
(-2086.13 -2002.53 0)
(-2001 -1914.15 0)
(-1893.39 -1829.95 0)
(-1782.01 -1750.4 0)
(-1666.79 -1676.46 0)
(-1543.2 -1607.24 0)
(-1411.88 -1544.76 0)
(-1286.9 -1486.12 0)
(-1170.56 -1431.69 0)
(-1061.93 -1367.31 0)
(-892.226 -1312.77 0)
(-656.02 -1287.64 0)
(-1173.43 -1301.28 0)
(48829.8 -1331.26 0)
(-63989.3 -9294.44 0)
(52954.9 -5703.29 0)
(-37176.1 -1425.65 0)
(2085.42 -1849.89 0)
(1117.09 -1897.04 0)
(944.327 -1877.59 0)
(823.688 -1846.03 0)
(766.93 -1818.63 0)
(799.874 -1806.45 0)
(895.589 -1802.77 0)
(1052.24 -1809.69 0)
(1234.66 -1823.83 0)
(1424.97 -1854.18 0)
(1605.97 -1901.29 0)
(1767.76 -1966.32 0)
(1890.92 -2044.9 0)
(1929.3 -2130.12 0)
(1818.07 -2210.87 0)
(1481.3 -2276.01 0)
(1037.45 -2317.02 0)
(389.472 -2337.85 0)
(-486.079 -2333.7 0)
(-1122.98 -2303.54 0)
(-1556.13 -2255.26 0)
(-1890.1 -2183.37 0)
(-2009.89 -2095.84 0)
(-1994.99 -2000.86 0)
(-1912.13 -1906.33 0)
(-1808.85 -1815.64 0)
(-1702.99 -1731.45 0)
(-1593.21 -1651.77 0)
(-1475.6 -1579.91 0)
(-1349.98 -1514.12 0)
(-1228.72 -1451.79 0)
(-1109.61 -1394.38 0)
(-1002.11 -1327.87 0)
(-857.124 -1275.38 0)
(-661.583 -1264.6 0)
(-1180.6 -1301.18 0)
(44943.5 -1250.49 0)
(-58844.6 -9411.37 0)
(50407.4 -4273.57 0)
(-36131.7 -1302.15 0)
(1883.3 -1655.87 0)
(1110.31 -1698.1 0)
(945.908 -1689.54 0)
(820.175 -1718.79 0)
(769.334 -1726.18 0)
(799.017 -1735.22 0)
(892.498 -1737.1 0)
(1043.67 -1740.95 0)
(1214.43 -1753.83 0)
(1388.34 -1780.22 0)
(1552.28 -1827.14 0)
(1698.46 -1890.01 0)
(1812.1 -1967.18 0)
(1849.45 -2050.13 0)
(1748.09 -2128.44 0)
(1430.65 -2190.74 0)
(1008.51 -2228.96 0)
(382.4 -2246.69 0)
(-469.148 -2241.12 0)
(-1085.12 -2212.19 0)
(-1498.16 -2165.58 0)
(-1813.24 -2096.17 0)
(-1921.71 -2010.92 0)
(-1903.51 -1918.3 0)
(-1822.52 -1825.52 0)
(-1724.88 -1738.29 0)
(-1624.1 -1654.92 0)
(-1520.75 -1580.93 0)
(-1410.56 -1509.68 0)
(-1288.42 -1448.62 0)
(-1171.51 -1387.97 0)
(-1051.15 -1331.9 0)
(-947.268 -1270.53 0)
(-831.255 -1226.47 0)
(-680.879 -1224.08 0)
(-1159.84 -1265.23 0)
(41014.5 -1168.27 0)
(-53715.1 -9192.17 0)
(47581.9 -5083.01 0)
(-34653.6 -1197.44 0)
(1703.87 -1480.86 0)
(1084.64 -1546.12 0)
(924.391 -1556.84 0)
(788.384 -1604.86 0)
(751.098 -1629.72 0)
(789.35 -1649.09 0)
(890.068 -1652.6 0)
(1036.12 -1656.01 0)
(1196.82 -1664.69 0)
(1354.32 -1693.11 0)
(1500.18 -1735.72 0)
(1632.82 -1797.41 0)
(1736.62 -1870.33 0)
(1773.9 -1949.35 0)
(1682.57 -2022.85 0)
(1384.44 -2080.15 0)
(983.533 -2113.75 0)
(377.751 -2127.7 0)
(-452.826 -2121.19 0)
(-1050.19 -2095 0)
(-1444.33 -2052.56 0)
(-1741.06 -1988.4 0)
(-1838.49 -1908.66 0)
(-1816.33 -1821.03 0)
(-1738.66 -1734.47 0)
(-1644.45 -1650.71 0)
(-1551.35 -1575.96 0)
(-1453.26 -1502.52 0)
(-1348.1 -1440.1 0)
(-1232.69 -1381.87 0)
(-1116.24 -1323.14 0)
(-996.45 -1271.86 0)
(-900.514 -1217.58 0)
(-812.356 -1181.46 0)
(-698.933 -1180.85 0)
(-1126.82 -1213.9 0)
(37304.8 -1106.91 0)
(-48860.9 -8924.74 0)
(44355.3 -5558.88 0)
(-32660.5 -1113.28 0)
(1547.3 -1336.85 0)
(1037.09 -1420.4 0)
(889.299 -1454.27 0)
(749.944 -1502.34 0)
(726.712 -1532.21 0)
(776.974 -1556.33 0)
(885.831 -1559.86 0)
(1032.02 -1562.85 0)
(1178.68 -1576.48 0)
(1319.89 -1601.19 0)
(1451.77 -1646.67 0)
(1568.75 -1703.98 0)
(1665.68 -1774.51 0)
(1702.47 -1849 0)
(1622.05 -1918 0)
(1343.06 -1970.3 0)
(962.7 -1999.28 0)
(375.231 -2009.91 0)
(-437.637 -2002.89 0)
(-1018.99 -1979.67 0)
(-1395.44 -1941.7 0)
(-1674.57 -1882.91 0)
(-1760.42 -1808.34 0)
(-1735.66 -1726.57 0)
(-1658.4 -1644.3 0)
(-1572.12 -1568.43 0)
(-1481.29 -1494.36 0)
(-1389.83 -1430.8 0)
(-1294.3 -1367.58 0)
(-1175.71 -1314.13 0)
(-1065.5 -1259.43 0)
(-949.42 -1209.37 0)
(-860.154 -1161.62 0)
(-795.867 -1131.35 0)
(-712.142 -1128.27 0)
(-1088.58 -1149 0)
(33584 -1042.36 0)
(-44048.3 -8534.29 0)
(41152.4 -6020.47 0)
(-30585.1 -1051.57 0)
(1407.92 -1239.71 0)
(971.497 -1321.44 0)
(845.429 -1373.85 0)
(713.271 -1412.94 0)
(699.072 -1439.8 0)
(762.71 -1460.2 0)
(883.779 -1465.97 0)
(1020.1 -1469.84 0)
(1159.87 -1483.85 0)
(1286.68 -1512.64 0)
(1401.13 -1554.62 0)
(1509.62 -1611.28 0)
(1596.87 -1677.3 0)
(1635.62 -1747.82 0)
(1565.69 -1812.1 0)
(1306.11 -1859.81 0)
(945.36 -1884.57 0)
(374.27 -1892.66 0)
(-423.68 -1885.55 0)
(-991.218 -1865.13 0)
(-1351.09 -1831.37 0)
(-1612.56 -1777.22 0)
(-1687.83 -1707.56 0)
(-1658.25 -1630.47 0)
(-1586.28 -1554.5 0)
(-1499.97 -1482.05 0)
(-1418.73 -1415.79 0)
(-1331.08 -1353.77 0)
(-1235.67 -1295.22 0)
(-1128.48 -1248.42 0)
(-1015.3 -1192.97 0)
(-902.192 -1149.68 0)
(-825.333 -1108 0)
(-780.224 -1081.82 0)
(-715.935 -1075.67 0)
(-1044.03 -1086.58 0)
(30188 -984.254 0)
(-39632.4 -8126.45 0)
(37540.5 -6435.83 0)
(-28053.6 -983.908 0)
(1287.25 -1144.15 0)
(907.82 -1207.95 0)
(801.123 -1277.41 0)
(686.391 -1307.95 0)
(681.168 -1330.18 0)
(751.758 -1352.15 0)
(876.547 -1354.79 0)
(1014.8 -1369.66 0)
(1137.44 -1382.88 0)
(1251.69 -1416.21 0)
(1356.71 -1456.36 0)
(1450.53 -1510.72 0)
(1534.1 -1572.28 0)
(1572.57 -1637.67 0)
(1514.13 -1696.77 0)
(1273.23 -1739.74 0)
(931.045 -1760.5 0)
(374.284 -1766.69 0)
(-411.111 -1759.96 0)
(-966.78 -1742.37 0)
(-1310.73 -1712.8 0)
(-1555.26 -1663.15 0)
(-1619.01 -1598.31 0)
(-1588.16 -1526.45 0)
(-1515.37 -1456.13 0)
(-1438.46 -1388.49 0)
(-1357.68 -1328.49 0)
(-1273.65 -1267.6 0)
(-1192.78 -1215.57 0)
(-1077.18 -1164.8 0)
(-970.346 -1115.96 0)
(-867.54 -1074.98 0)
(-794.755 -1037.54 0)
(-764.706 -1012.88 0)
(-716.736 -1003.12 0)
(-1000.49 -1005.43 0)
(26800.2 -908.878 0)
(-35268.8 -7650.15 0)
(34002.5 -6555.45 0)
(-25485.9 -913.083 0)
(1192.02 -1055.88 0)
(843.079 -1107.17 0)
(749.074 -1186.35 0)
(662.426 -1212.14 0)
(656.471 -1231.06 0)
(738.997 -1246 0)
(866.91 -1253.62 0)
(993.029 -1262.68 0)
(1115.02 -1286.82 0)
(1215.88 -1310.09 0)
(1310.05 -1353.7 0)
(1397.91 -1400.48 0)
(1474.53 -1457.66 0)
(1515.67 -1516.15 0)
(1467.33 -1569.4 0)
(1244.7 -1607.19 0)
(919.395 -1623.92 0)
(374.789 -1628.61 0)
(-400.242 -1622.71 0)
(-945.769 -1608.15 0)
(-1274.75 -1583.14 0)
(-1502.23 -1538.46 0)
(-1556.11 -1478.84 0)
(-1521.24 -1413.68 0)
(-1453.33 -1348.05 0)
(-1376.97 -1290.39 0)
(-1302.24 -1229.34 0)
(-1222.26 -1185.01 0)
(-1136.6 -1126.72 0)
(-1032.5 -1086.51 0)
(-928.742 -1038.49 0)
(-826.624 -1001.22 0)
(-765.497 -969.031 0)
(-747.053 -949.484 0)
(-708.753 -937.7 0)
(-953.219 -932.278 0)
(23784.9 -842.79 0)
(-31384.7 -7147.97 0)
(30343.5 -6457.52 0)
(-22754 -837.275 0)
(1100.23 -967.966 0)
(782.094 -1014.55 0)
(699.973 -1077.1 0)
(643.306 -1098.34 0)
(648.535 -1112.95 0)
(730.018 -1117.96 0)
(860.476 -1124.03 0)
(982.8 -1139.81 0)
(1091.75 -1157.9 0)
(1187.25 -1192.98 0)
(1269.61 -1231.16 0)
(1350.35 -1280.99 0)
(1422.64 -1333.56 0)
(1464.9 -1388.43 0)
(1426.4 -1436.78 0)
(1220.68 -1470.34 0)
(910.408 -1483.43 0)
(375.45 -1486.93 0)
(-391.401 -1482.2 0)
(-928.649 -1470.76 0)
(-1243.57 -1450.32 0)
(-1454.75 -1409.92 0)
(-1498.77 -1354.81 0)
(-1462.12 -1292.89 0)
(-1396.56 -1232.48 0)
(-1324.07 -1172.8 0)
(-1256.13 -1120.88 0)
(-1174.76 -1068.03 0)
(-1097.86 -1021.98 0)
(-992.163 -979.681 0)
(-888.163 -936.449 0)
(-800.609 -906.738 0)
(-744.896 -883.584 0)
(-734.514 -868.701 0)
(-700.156 -859.194 0)
(-909.032 -852.769 0)
(20810.5 -772.276 0)
(-27568.7 -6649.33 0)
(26972.9 -6193.29 0)
(-20195.9 -758.949 0)
(1021.19 -880.314 0)
(737.91 -934.112 0)
(668.338 -981.937 0)
(627.883 -997.667 0)
(637.56 -1001.6 0)
(728.318 -1005.57 0)
(845.859 -1000.05 0)
(960.392 -1026.2 0)
(1063.78 -1041.45 0)
(1145.28 -1080.39 0)
(1225.24 -1119.19 0)
(1299.25 -1167.53 0)
(1371 -1218.53 0)
(1416.19 -1270.4 0)
(1388.4 -1315.63 0)
(1199.75 -1346.06 0)
(903.407 -1356.05 0)
(375.975 -1358.56 0)
(-384.653 -1355.12 0)
(-915.047 -1346.72 0)
(-1216.12 -1330.62 0)
(-1410.2 -1293.8 0)
(-1443.34 -1241.75 0)
(-1403.36 -1182.74 0)
(-1337.61 -1123.69 0)
(-1269.44 -1066.91 0)
(-1201.28 -1014.81 0)
(-1126.96 -963.815 0)
(-1051.47 -921.415 0)
(-950.071 -876.89 0)
(-858.452 -846.292 0)
(-775.682 -819.804 0)
(-728.843 -805.255 0)
(-723.55 -795.882 0)
(-693.4 -788.221 0)
(-869.462 -777.535 0)
(18199.2 -702.334 0)
(-24232.9 -6095.94 0)
(23644.1 -5903.05 0)
(-17634.3 -708.119 0)
(931.431 -830.545 0)
(684.167 -895.735 0)
(638.729 -926.59 0)
(624.356 -933.459 0)
(640.918 -919.442 0)
(731.518 -915.527 0)
(840.596 -907.976 0)
(942.901 -920.476 0)
(1039.53 -940.479 0)
(1112.33 -968.724 0)
(1185.65 -1006.24 0)
(1254.63 -1050.15 0)
(1323.5 -1101.51 0)
(1371.32 -1155.76 0)
(1353.48 -1205.3 0)
(1181.73 -1240.32 0)
(898.364 -1253.4 0)
(376.346 -1257.37 0)
(-379.984 -1255.17 0)
(-905.036 -1247.22 0)
(-1192.57 -1229.41 0)
(-1369.12 -1188.86 0)
(-1391.74 -1132.97 0)
(-1348.35 -1071.87 0)
(-1284.95 -1012.6 0)
(-1219.15 -960.843 0)
(-1156.79 -911.152 0)
(-1084.76 -873.243 0)
(-1014.1 -829.955 0)
(-919.772 -801.692 0)
(-833.153 -774.136 0)
(-761.064 -757.883 0)
(-721.844 -753 0)
(-718.099 -750.765 0)
(-682.477 -743.721 0)
(-826.269 -727.408 0)
(15685.5 -653.205 0)
(-21017.6 -5542.08 0)
(20602.2 -5623.77 0)
(-15307.9 -678.493 0)
(840.397 -801.604 0)
(645.357 -870.004 0)
(631.986 -888.748 0)
(634.771 -883.605 0)
(654.84 -867.185 0)
(739.368 -847.798 0)
(841.089 -845.239 0)
(929.07 -846.432 0)
(1017.29 -862.887 0)
(1081.91 -882.249 0)
(1146.78 -909.849 0)
(1207.44 -944.4 0)
(1269.23 -988.565 0)
(1316.17 -1038.74 0)
(1306.9 -1087.83 0)
(1153.4 -1125.42 0)
(886.984 -1140.86 0)
(374.265 -1145.32 0)
(-374.874 -1144.16 0)
(-890.224 -1137.28 0)
(-1159.89 -1118.47 0)
(-1317.26 -1076.4 0)
(-1330.6 -1021.8 0)
(-1287.37 -965.309 0)
(-1230.62 -913.935 0)
(-1171.67 -871.77 0)
(-1116.86 -834.922 0)
(-1048.72 -805.799 0)
(-982.517 -774.962 0)
(-896.282 -754.512 0)
(-816.236 -735.102 0)
(-755.314 -726.907 0)
(-721.984 -726.58 0)
(-714.608 -723.067 0)
(-670.892 -711.324 0)
(-782.238 -685.848 0)
(13559.6 -607.404 0)
(-18262.9 -5047.46 0)
(17571 -5090.49 0)
(-12987.4 -632.588 0)
(746.884 -768.073 0)
(600.191 -843.632 0)
(625.622 -866.981 0)
(645.135 -856.398 0)
(675.424 -844.132 0)
(752.667 -811.934 0)
(841.913 -816.123 0)
(925.895 -804.421 0)
(1005.02 -813.306 0)
(1067.08 -814.353 0)
(1125.76 -819.262 0)
(1178.77 -825.223 0)
(1232.6 -838.532 0)
(1275.67 -860.666 0)
(1269.95 -892.134 0)
(1130.63 -923.458 0)
(879.188 -943.535 0)
(373.166 -959.22 0)
(-372.238 -958.856 0)
(-880.284 -941.896 0)
(-1133.9 -919.586 0)
(-1275.95 -884.799 0)
(-1284.69 -848.738 0)
(-1244.41 -821.11 0)
(-1194.81 -801.576 0)
(-1143.01 -788.215 0)
(-1093.21 -776.188 0)
(-1026.98 -763.764 0)
(-964.674 -748.159 0)
(-881.361 -736.821 0)
(-806.552 -724.89 0)
(-752.852 -720.055 0)
(-718.144 -716.976 0)
(-703.398 -705.984 0)
(-646.611 -683.14 0)
(-726.127 -636.815 0)
(11482.5 -540.189 0)
(-15568.4 -4381.99 0)
(15087.2 -4353.2 0)
(-11142.6 -476.819 0)
(637.027 -632.143 0)
(550.046 -728.282 0)
(619.684 -758.696 0)
(656.789 -756.187 0)
(697.688 -749.631 0)
(766.358 -727.471 0)
(848.329 -731.865 0)
(931.785 -716.582 0)
(1007.71 -719.295 0)
(1076.17 -703.498 0)
(1136.3 -687.322 0)
(1188.87 -661.254 0)
(1235.08 -633.546 0)
(1264.52 -623.945 0)
(1246.39 -632.709 0)
(1103.87 -646.507 0)
(852.523 -652.729 0)
(359.501 -655.845 0)
(-358.18 -655.894 0)
(-852.382 -652.267 0)
(-1104.87 -644.876 0)
(-1248.99 -629.056 0)
(-1269.23 -617.537 0)
(-1241.92 -623.485 0)
(-1198.92 -647.068 0)
(-1147.21 -667.572 0)
(-1093.3 -679.305 0)
(-1021.71 -685.03 0)
(-956.554 -680.691 0)
(-873.859 -675.526 0)
(-800.08 -669.979 0)
(-747.687 -661.022 0)
(-708.424 -652.35 0)
(-682.003 -630.425 0)
(-604.238 -588.105 0)
(-644.486 -498.645 0)
(9950.57 -371.976 0)
(-13519.7 -3393.06 0)
(12916.6 -1743.44 0)
(-9401.7 -420.064 0)
(504.566 -587.696 0)
(478.24 -719.873 0)
(598.731 -790.131 0)
(653.87 -826.641 0)
(703.096 -861.305 0)
(769.786 -885.906 0)
(852.405 -928.816 0)
(938.008 -961.345 0)
(1017.63 -1011.68 0)
(1097.89 -1050.96 0)
(1166.46 -1093.91 0)
(1230.59 -1127.34 0)
(1268.55 -1144.17 0)
(1276.48 -1108.67 0)
(1248.21 -1038.77 0)
(1111.34 -968.283 0)
(870.189 -918.731 0)
(370.116 -903.576 0)
(-368.789 -903.84 0)
(-869.666 -919.051 0)
(-1111.54 -968.235 0)
(-1249.61 -1037.72 0)
(-1279.32 -1106 0)
(-1272.87 -1139.32 0)
(-1237.29 -1119.87 0)
(-1174.07 -1082.63 0)
(-1110.04 -1037.04 0)
(-1028.31 -990.918 0)
(-955.515 -940.531 0)
(-871.039 -894.728 0)
(-792.574 -852.06 0)
(-735.864 -807.93 0)
(-688.661 -763.857 0)
(-641.49 -709.508 0)
(-519.623 -627.147 0)
(-517.857 -492.089 0)
(8693.3 -349.48 0)
(-11940.2 -950.401 0)
(13002.4 123530 0)
(-10028.9 9848.36 0)
(348.12 9203.01 0)
(354.973 10642.2 0)
(516.798 12371.9 0)
(588.203 14748.6 0)
(640.579 17146.2 0)
(701.302 20009.9 0)
(775.633 22945.7 0)
(851.93 26337.1 0)
(921.355 29738 0)
(996.935 33565.2 0)
(1062.7 37392.5 0)
(1140.44 41568.9 0)
(1253.07 45719.8 0)
(1366.08 50033.9 0)
(1381.68 54256 0)
(1219.54 58271.8 0)
(914.877 61610.3 0)
(373.85 63908.5 0)
(-373.093 63907.6 0)
(-914.435 61609.8 0)
(-1219.22 58271.8 0)
(-1381.75 54257.3 0)
(-1367.13 50037.4 0)
(-1255.28 45726.7 0)
(-1144.29 41579.9 0)
(-1067.39 37409.3 0)
(-1004.93 33586.5 0)
(-928.703 29768.4 0)
(-863.862 26369.1 0)
(-788.606 22992.2 0)
(-716.438 20056.8 0)
(-662.692 17210.9 0)
(-613.582 14819.6 0)
(-550.263 12457.3 0)
(-394.725 10728.1 0)
(-376.916 9289.64 0)
(9508.93 9892.16 0)
(-12267.1 123456 0)
(141445 -147334 0)
(-119572 -12942.1 0)
(1269.57 -12842.4 0)
(3531.92 -14620.9 0)
(4555.8 -16876 0)
(5254.55 -19884.9 0)
(5773.08 -22939.2 0)
(6358.41 -26540.6 0)
(6949.5 -30265.4 0)
(7483.3 -34557.2 0)
(7982.93 -38915.1 0)
(8474.04 -43797.5 0)
(8879.04 -48743.5 0)
(9255.06 -54114.4 0)
(9425.74 -59531.3 0)
(9502.31 -65196.2 0)
(9186.61 -70809.8 0)
(8198.15 -76163.3 0)
(6301.86 -80582.9 0)
(2583.92 -83652.3 0)
(-2583.93 -83652.3 0)
(-6300.55 -80583.7 0)
(-8196.6 -76165 0)
(-9184.59 -70812.6 0)
(-9499.71 -65200 0)
(-9422.82 -59535.7 0)
(-9252.32 -54118.9 0)
(-8876.82 -48746.8 0)
(-8473.05 -43799.4 0)
(-7983.25 -38911.1 0)
(-7485.26 -34551.2 0)
(-6953.76 -30246.9 0)
(-6363.64 -26516.7 0)
(-5782.66 -22899.7 0)
(-5269.48 -19828.1 0)
(-4584.23 -16794.6 0)
(-3572.06 -14499.8 0)
(-1323.37 -12678.1 0)
(118708 -12735.4 0)
(-140439 -145733 0)
(141445 147334 0)
(-119572 12942.1 0)
(1269.57 12842.4 0)
(3531.92 14620.9 0)
(4555.8 16876 0)
(5254.55 19884.9 0)
(5773.08 22939.2 0)
(6358.41 26540.6 0)
(6949.5 30265.4 0)
(7483.3 34557.2 0)
(7982.93 38915.1 0)
(8474.04 43797.5 0)
(8879.04 48743.5 0)
(9255.06 54114.4 0)
(9425.74 59531.3 0)
(9502.31 65196.2 0)
(9186.61 70809.8 0)
(8198.15 76163.3 0)
(6301.86 80582.9 0)
(2583.92 83652.3 0)
(-2583.93 83652.3 0)
(-6300.55 80583.7 0)
(-8196.6 76165 0)
(-9184.59 70812.6 0)
(-9499.71 65200 0)
(-9422.82 59535.7 0)
(-9252.32 54118.9 0)
(-8876.82 48746.8 0)
(-8473.05 43799.4 0)
(-7983.25 38911.1 0)
(-7485.26 34551.2 0)
(-6953.76 30246.9 0)
(-6363.64 26516.7 0)
(-5782.66 22899.7 0)
(-5269.48 19828.1 0)
(-4584.23 16794.6 0)
(-3572.06 14499.8 0)
(-1323.37 12678.1 0)
(118708 12735.4 0)
(-140439 145733 0)
(13002.4 -123530 0)
(-10028.9 -9848.36 0)
(348.12 -9203.01 0)
(354.973 -10642.2 0)
(516.798 -12371.9 0)
(588.203 -14748.6 0)
(640.579 -17146.2 0)
(701.302 -20009.9 0)
(775.633 -22945.7 0)
(851.93 -26337.1 0)
(921.355 -29738 0)
(996.935 -33565.2 0)
(1062.7 -37392.5 0)
(1140.44 -41568.9 0)
(1253.07 -45719.8 0)
(1366.08 -50033.9 0)
(1381.68 -54256 0)
(1219.54 -58271.8 0)
(914.877 -61610.3 0)
(373.85 -63908.5 0)
(-373.093 -63907.6 0)
(-914.435 -61609.8 0)
(-1219.22 -58271.8 0)
(-1381.75 -54257.3 0)
(-1367.13 -50037.4 0)
(-1255.28 -45726.7 0)
(-1144.29 -41579.9 0)
(-1067.39 -37409.3 0)
(-1004.93 -33586.5 0)
(-928.703 -29768.4 0)
(-863.862 -26369.1 0)
(-788.606 -22992.2 0)
(-716.438 -20056.8 0)
(-662.692 -17210.9 0)
(-613.582 -14819.6 0)
(-550.263 -12457.3 0)
(-394.725 -10728.1 0)
(-376.916 -9289.64 0)
(9508.93 -9892.16 0)
(-12267.1 -123456 0)
(12916.6 1743.44 0)
(-9401.7 420.064 0)
(504.566 587.696 0)
(478.24 719.873 0)
(598.731 790.131 0)
(653.87 826.641 0)
(703.096 861.305 0)
(769.786 885.906 0)
(852.405 928.816 0)
(938.008 961.345 0)
(1017.63 1011.68 0)
(1097.89 1050.96 0)
(1166.46 1093.91 0)
(1230.59 1127.34 0)
(1268.55 1144.17 0)
(1276.48 1108.67 0)
(1248.21 1038.77 0)
(1111.34 968.283 0)
(870.189 918.731 0)
(370.116 903.576 0)
(-368.789 903.84 0)
(-869.666 919.051 0)
(-1111.54 968.235 0)
(-1249.61 1037.72 0)
(-1279.32 1106 0)
(-1272.87 1139.32 0)
(-1237.29 1119.87 0)
(-1174.07 1082.63 0)
(-1110.04 1037.04 0)
(-1028.31 990.918 0)
(-955.515 940.531 0)
(-871.039 894.728 0)
(-792.574 852.06 0)
(-735.864 807.93 0)
(-688.661 763.857 0)
(-641.49 709.508 0)
(-519.623 627.147 0)
(-517.857 492.089 0)
(8693.3 349.48 0)
(-11940.2 950.401 0)
(15087.2 4353.2 0)
(-11142.6 476.819 0)
(637.027 632.143 0)
(550.046 728.282 0)
(619.684 758.696 0)
(656.789 756.187 0)
(697.688 749.631 0)
(766.358 727.471 0)
(848.329 731.865 0)
(931.785 716.582 0)
(1007.71 719.295 0)
(1076.17 703.498 0)
(1136.3 687.322 0)
(1188.87 661.254 0)
(1235.08 633.546 0)
(1264.52 623.945 0)
(1246.39 632.709 0)
(1103.87 646.507 0)
(852.523 652.729 0)
(359.501 655.845 0)
(-358.18 655.894 0)
(-852.382 652.267 0)
(-1104.87 644.876 0)
(-1248.99 629.056 0)
(-1269.23 617.537 0)
(-1241.92 623.485 0)
(-1198.92 647.068 0)
(-1147.21 667.572 0)
(-1093.3 679.305 0)
(-1021.71 685.03 0)
(-956.554 680.691 0)
(-873.859 675.526 0)
(-800.08 669.979 0)
(-747.687 661.022 0)
(-708.424 652.35 0)
(-682.003 630.425 0)
(-604.238 588.105 0)
(-644.486 498.645 0)
(9950.57 371.976 0)
(-13519.7 3393.06 0)
(17571 5090.49 0)
(-12987.4 632.588 0)
(746.884 768.073 0)
(600.191 843.632 0)
(625.622 866.981 0)
(645.135 856.398 0)
(675.424 844.132 0)
(752.667 811.934 0)
(841.913 816.123 0)
(925.895 804.421 0)
(1005.02 813.306 0)
(1067.08 814.353 0)
(1125.76 819.262 0)
(1178.77 825.223 0)
(1232.6 838.532 0)
(1275.67 860.666 0)
(1269.95 892.134 0)
(1130.63 923.458 0)
(879.188 943.535 0)
(373.166 959.22 0)
(-372.238 958.856 0)
(-880.284 941.896 0)
(-1133.9 919.586 0)
(-1275.95 884.799 0)
(-1284.69 848.738 0)
(-1244.41 821.11 0)
(-1194.81 801.576 0)
(-1143.01 788.215 0)
(-1093.21 776.188 0)
(-1026.98 763.764 0)
(-964.674 748.159 0)
(-881.361 736.821 0)
(-806.552 724.89 0)
(-752.852 720.055 0)
(-718.144 716.976 0)
(-703.398 705.984 0)
(-646.611 683.14 0)
(-726.127 636.815 0)
(11482.5 540.189 0)
(-15568.4 4381.99 0)
(20602.2 5623.77 0)
(-15307.9 678.493 0)
(840.397 801.604 0)
(645.357 870.004 0)
(631.986 888.748 0)
(634.771 883.605 0)
(654.84 867.185 0)
(739.368 847.798 0)
(841.089 845.239 0)
(929.07 846.432 0)
(1017.29 862.887 0)
(1081.91 882.249 0)
(1146.78 909.849 0)
(1207.44 944.4 0)
(1269.23 988.565 0)
(1316.17 1038.74 0)
(1306.9 1087.83 0)
(1153.4 1125.42 0)
(886.984 1140.86 0)
(374.265 1145.32 0)
(-374.874 1144.16 0)
(-890.224 1137.28 0)
(-1159.89 1118.47 0)
(-1317.26 1076.4 0)
(-1330.6 1021.8 0)
(-1287.37 965.309 0)
(-1230.62 913.935 0)
(-1171.67 871.77 0)
(-1116.86 834.922 0)
(-1048.72 805.799 0)
(-982.517 774.962 0)
(-896.282 754.512 0)
(-816.236 735.102 0)
(-755.314 726.907 0)
(-721.984 726.58 0)
(-714.608 723.067 0)
(-670.892 711.324 0)
(-782.238 685.848 0)
(13559.6 607.404 0)
(-18262.9 5047.46 0)
(23644.1 5903.05 0)
(-17634.3 708.119 0)
(931.431 830.545 0)
(684.167 895.735 0)
(638.729 926.59 0)
(624.356 933.459 0)
(640.918 919.442 0)
(731.518 915.527 0)
(840.596 907.976 0)
(942.901 920.476 0)
(1039.53 940.479 0)
(1112.33 968.724 0)
(1185.65 1006.24 0)
(1254.63 1050.15 0)
(1323.5 1101.51 0)
(1371.32 1155.76 0)
(1353.48 1205.3 0)
(1181.73 1240.32 0)
(898.364 1253.4 0)
(376.346 1257.37 0)
(-379.984 1255.17 0)
(-905.036 1247.22 0)
(-1192.57 1229.41 0)