/*--------------------------------*- C++ -*----------------------------------*\
| =========                 |                                                 |
| \\      /  F ield         | OpenFOAM: The Open Source CFD Toolbox           |
|  \\    /   O peration     | Version:  v1912                                 |
|   \\  /    A nd           | Website:  www.openfoam.com                      |
|    \\/     M anipulation  |                                                 |
\*---------------------------------------------------------------------------*/
FoamFile
{
    version     2.0;
    format      ascii;
    class       volVectorField;
    location    "7.22";
    object      grad(T);
}
// * * * * * * * * * * * * * * * * * * * * * * * * * * * * * * * * * * * * * //

dimensions      [0 -1 0 1 0 0 0];


internalField   nonuniform List<vector> 
1900
(
(1.09635 -5.89573e-07 0)
(-1.63835 2.46545e-06 0)
(-0.234935 -1.55662e-06 0)
(0.0155563 -8.3771e-07 0)
(0.0675905 3.13007e-05 0)
(0.0984454 -2.08576e-05 0)
(0.0825486 1.20777e-05 0)
(0.0459906 0.000426755 0)
(0.0186651 0.00150247 0)
(0.0309274 -0.000373199 0)
(1.09635 -1.08002e-06 0)
(-1.63835 5.16634e-06 0)
(-0.234938 -5.37109e-08 0)
(0.0155892 4.03453e-06 0)
(0.0675705 7.37294e-05 0)
(0.0984261 1.11843e-05 0)
(0.0829962 -7.04265e-05 0)
(0.047481 0.000172808 0)
(0.0178652 1.56372e-05 0)
(0.0013292 -0.00159553 0)
(1.09635 2.08167e-13 0)
(-1.63835 -1.30104e-13 0)
(-0.234936 -2.14672e-13 0)
(0.0156301 -7.69784e-14 0)
(0.0675976 -1.00831e-13 0)
(0.0983012 -1.51788e-14 0)
(0.0827103 1.59378e-13 0)
(0.0460767 1.84314e-14 0)
(0.0168968 6.50521e-15 0)
(-0.00222171 6.39679e-14 0)
(1.09635 1.08002e-06 0)
(-1.63835 -5.16634e-06 0)
(-0.234938 5.37102e-08 0)
(0.0155892 -4.03453e-06 0)
(0.0675705 -7.37294e-05 0)
(0.0984261 -1.11843e-05 0)
(0.0829962 7.04265e-05 0)
(0.047481 -0.000172808 0)
(0.0178652 -1.56372e-05 0)
(0.0013292 0.00159553 0)
(1.09635 5.89572e-07 0)
(-1.63835 -2.46545e-06 0)
(-0.234935 1.55662e-06 0)
(0.0155563 8.3771e-07 0)
(0.0675905 -3.13007e-05 0)
(0.0984454 2.08576e-05 0)
(0.0825486 -1.20777e-05 0)
(0.0459906 -0.000426755 0)
(0.0186651 -0.00150247 0)
(0.0309274 0.000373199 0)
(0.00383803 -0.0242502 9.44775e-16)
(-0.00731306 -0.0196848 -1.1342e-15)
(0.10211 -0.0304015 -1.44056e-15)
(0.392683 -0.0595304 0)
(-0.511902 -0.32184 -6.49468e-15)
(-0.0132632 -0.0288605 9.40393e-16)
(0.00126243 -0.0238769 1.1342e-15)
(0.0851699 -0.0386844 1.44056e-15)
(0.284422 -0.0644142 0)
(-0.446224 -0.356769 0)
(-0.0247178 5.30316e-14 0)
(-0.00693695 3.32869e-14 0)
(0.0751694 7.83035e-14 0)
(0.255291 1.02671e-13 0)
(-0.576148 1.41979e-13 0)
(-0.0132632 0.0288605 9.40393e-16)
(0.00126243 0.0238769 1.1342e-15)
(0.0851699 0.0386844 1.44056e-15)
(0.284422 0.0644142 0)
(-0.446224 0.356769 0)
(0.00383803 0.0242502 -2.82556e-15)
(-0.00731306 0.0196848 -1.1342e-15)
(0.10211 0.0304015 -1.44056e-15)
(0.392683 0.0595304 -3.97054e-15)
(-0.511902 0.32184 6.49468e-15)
(-1.88503 0.451756 2.19734e-15)
(-0.966032 0.316839 -1.5895e-15)
(-0.591733 0.213409 0)
(-0.410058 0.201616 1.01952e-15)
(-0.281621 0.0874535 -4.28409e-16)
(-1.68107 0.449698 -1.10547e-15)
(-1.00781 0.20837 7.99519e-16)
(-0.608309 0.108281 0)
(-0.447532 0.132759 -6.41995e-16)
(-0.299027 -0.0275277 1.07554e-16)
(-1.73289 2.19031e-13 0)
(-1.0645 1.529e-13 0)
(-0.618985 1.24482e-13 0)
(-0.477243 -2.16132e-13 2.58397e-16)
(-0.292079 4.72357e-13 -2.15107e-16)
(-1.68107 -0.449698 -1.10547e-15)
(-1.00781 -0.20837 7.99519e-16)
(-0.608309 -0.108281 0)
(-0.447532 -0.132759 -6.41995e-16)
(-0.299027 0.0275277 1.07554e-16)
(-1.88503 -0.451756 1.10547e-15)
(-0.966032 -0.316839 -9.54215e-18)
(-0.591733 -0.213409 0)
(-0.410058 -0.201616 6.07201e-18)
(-0.281621 -0.0874535 4.28409e-16)
(-0.173539 0.524415 0)
(-0.0923062 0.54702 0)
(-0.0882347 0.563829 0)
(-0.119509 0.501183 0)
(-0.0639664 0.346216 0)
(0.109073 0.228933 0)
(0.483996 0.144876 0)
(0.504419 0.200838 0)
(0.119287 0.125682 0)
(-0.0536398 0.107265 0)
(-0.140562 0.0847146 0)
(-0.215729 0.0643021 0)
(-0.206802 0.0341901 0)
(-0.157029 0.0207693 0)
(-0.14769 0.0177359 0)
(-0.185113 0.0153146 0)
(-0.234327 0.014102 0)
(-0.214311 0.00995639 0)
(-0.121391 0.00296087 0)
(-0.0524225 0.0001972 0)
(-0.03318 0.000174335 0)
(-0.0291901 0.000490526 0)
(-0.0248153 0.000117984 0)
(-0.0173189 -0.000266642 0)
(-0.00906863 -0.000434396 0)
(-0.00313232 -0.000442332 0)
(0.000165565 -0.000391969 0)
(0.00167374 -0.000330925 0)
(0.00297313 -0.000296388 0)
(0.00463565 -0.000238427 0)
(0.00650924 -0.00019923 0)
(0.00838275 -9.99618e-05 0)
(0.0225033 -0.00015251 0)
(0.0946594 -0.000151019 0)
(0.240906 -0.00109639 0)
(0.283229 -0.000288651 0)
(0.189378 -0.000449592 0)
(0.146943 0.00652365 0)
(0.1039 -0.00115242 0)
(0.0273242 -0.00189145 0)
(-0.12275 0.137952 0)
(-0.0482083 0.289089 0)
(-0.074506 0.366755 0)
(-0.14399 0.40148 0)
(-0.112898 0.302627 0)
(0.0756103 0.178434 0)
(0.474338 0.13231 0)
(0.482771 0.130012 0)
(0.0972787 0.0397667 0)
(-0.0577501 0.0243432 0)
(-0.141175 0.0153562 0)
(-0.217247 0.0322235 0)
(-0.208566 0.0339311 0)
(-0.155313 0.0161915 0)
(-0.146621 0.00797557 0)
(-0.186206 0.00561075 0)
(-0.236216 0.00591975 0)
(-0.216052 0.00461126 0)
(-0.122307 0.00127642 0)
(-0.0526213 6.03049e-05 0)
(-0.0331334 9.3173e-05 0)
(-0.0291971 0.000230107 0)
(-0.0248935 4.53319e-05 0)
(-0.0173677 -0.000127734 0)
(-0.0090819 -0.00019213 0)
(-0.00312768 -0.000191111 0)
(0.000175839 -0.000168207 0)
(0.00168211 -0.000143757 0)
(0.00298145 -0.000131854 0)
(0.00464403 -0.000108124 0)
(0.00652093 -9.44436e-05 0)
(0.00838221 -5.68322e-05 0)
(0.0225012 -0.000102865 0)
(0.0945348 -6.65113e-05 0)
(0.24086 -0.000693595 0)
(0.283257 -0.000281157 0)
(0.190235 -0.000642408 0)
(0.146769 0.00388996 0)
(0.102898 -0.00120286 0)
(0.0274109 -0.00086958 0)
(-0.0714619 -7.39229e-13 0)
(-0.0257453 -5.42101e-13 0)
(-0.0555392 3.8637e-13 0)
(-0.138165 1.4686e-12 0)
(-0.128853 -2.14475e-12 0)
(0.0595259 -1.50606e-12 0)
(0.469909 -4.65221e-13 0)
(0.477498 -1.22022e-12 0)
(0.0885471 2.96874e-12 0)
(-0.0607411 7.27992e-12 0)
(-0.13827 9.02648e-12 0)
(-0.210326 5.28105e-12 0)
(-0.211466 -1.89045e-12 0)
(-0.16458 1.70121e-12 0)
(-0.150768 3.72177e-12 0)
(-0.185712 2.13489e-12 0)
(-0.234617 8.51592e-13 0)
(-0.215662 1.33653e-12 0)
(-0.122715 8.35821e-13 0)
(-0.0527667 9.24529e-13 0)
(-0.0331306 -2.40496e-13 0)
(-0.029204 3.60744e-13 0)
(-0.0249194 -1.68938e-12 0)
(-0.017388 -1.23402e-12 0)
(-0.00908706 -2.44438e-13 0)
(-0.00312536 -9.06787e-14 0)
(0.000179341 -4.65221e-13 0)
(0.00168432 -1.09603e-12 0)
(0.00298349 -1.12954e-12 0)
(0.00464653 -2.40299e-12 0)
(0.00652416 -1.18277e-12 0)
(0.0083803 1.18277e-14 0)
(0.0225005 -1.07237e-12 0)
(0.0944876 1.61645e-13 0)
(0.240843 1.99887e-12 0)
(0.283244 1.5238e-12 0)
(0.190592 -1.60068e-12 0)
(0.14678 -1.16305e-13 0)
(0.102515 -8.69333e-13 0)
(0.0274212 -2.87806e-13 0)
(-0.12275 -0.137952 0)
(-0.0482083 -0.289089 0)
(-0.074506 -0.366755 0)
(-0.14399 -0.40148 0)
(-0.112898 -0.302627 0)
(0.0756103 -0.178434 0)
(0.474338 -0.13231 0)
(0.482771 -0.130012 0)
(0.0972787 -0.0397667 0)
(-0.0577501 -0.0243432 0)
(-0.141175 -0.0153562 0)
(-0.217247 -0.0322235 0)
(-0.208566 -0.0339311 0)
(-0.155313 -0.0161915 0)
(-0.146621 -0.00797557 0)
(-0.186206 -0.00561075 0)
(-0.236216 -0.00591975 0)
(-0.216052 -0.00461126 0)
(-0.122307 -0.00127642 0)
(-0.0526213 -6.03049e-05 0)
(-0.0331334 -9.3173e-05 0)
(-0.0291971 -0.000230107 0)
(-0.0248935 -4.53319e-05 0)
(-0.0173677 0.000127734 0)
(-0.0090819 0.00019213 0)
(-0.00312768 0.000191111 0)
(0.000175839 0.000168207 0)
(0.00168211 0.000143757 0)
(0.00298145 0.000131854 0)
(0.00464403 0.000108124 0)
(0.00652093 9.44436e-05 0)
(0.00838221 5.68322e-05 0)
(0.0225012 0.000102865 0)
(0.0945348 6.65113e-05 0)
(0.24086 0.000693595 0)
(0.283257 0.000281157 0)
(0.190235 0.000642408 0)
(0.146769 -0.00388996 0)
(0.102898 0.00120286 0)
(0.0274109 0.00086958 0)
(-0.173539 -0.524415 0)
(-0.0923062 -0.54702 0)
(-0.0882347 -0.563829 0)
(-0.119509 -0.501183 0)
(-0.0639664 -0.346216 0)
(0.109073 -0.228933 0)
(0.483996 -0.144876 0)
(0.504419 -0.200838 0)
(0.119287 -0.125682 0)
(-0.0536398 -0.107265 0)
(-0.140562 -0.0847146 0)
(-0.215729 -0.0643021 0)
(-0.206802 -0.0341901 0)
(-0.157029 -0.0207693 0)
(-0.14769 -0.0177359 0)
(-0.185113 -0.0153146 0)
(-0.234327 -0.014102 0)
(-0.214311 -0.00995639 0)
(-0.121391 -0.00296087 0)
(-0.0524225 -0.0001972 0)
(-0.03318 -0.000174335 0)
(-0.0291901 -0.000490526 0)
(-0.0248153 -0.000117984 0)
(-0.0173189 0.000266642 0)
(-0.00906863 0.000434396 0)
(-0.00313232 0.000442332 0)
(0.000165565 0.000391969 0)
(0.00167374 0.000330925 0)
(0.00297313 0.000296388 0)
(0.00463565 0.000238427 0)
(0.00650924 0.00019923 0)
(0.00838275 9.99618e-05 0)
(0.0225033 0.00015251 0)
(0.0946594 0.000151019 0)
(0.240906 0.00109639 0)
(0.283229 0.000288651 0)
(0.189378 0.000449592 0)
(0.146943 -0.00652365 0)
(0.1039 0.00115242 0)
(0.0273242 0.00189145 0)
(-0.0115984 -0.5356 0)
(-0.0219437 -0.45383 0)
(-0.0298803 -0.417541 0)
(-0.0357919 -0.339082 0)
(0.00130073 -0.218998 0)
(0.163214 -0.151027 0)
(0.480796 -0.04599 0)
(0.46978 -0.183909 0)
(0.130527 -0.186646 0)
(-0.036805 -0.171797 0)
(-0.114935 -0.151094 0)
(-0.187309 -0.118596 0)
(-0.1833 -0.0691815 0)
(-0.143009 -0.0368696 0)
(-0.141963 -0.0250719 0)
(-0.185191 -0.0233972 0)
(-0.235039 -0.0246934 0)
(-0.211077 -0.0185031 0)
(-0.117245 -0.00550643 0)
(-0.0511031 -0.000543004 0)
(-0.0332635 -0.000405127 0)
(-0.02917 -0.000718401 0)
(-0.0245089 -0.000223577 0)
(-0.0170776 0.000410488 0)
(-0.00898705 0.000748288 0)
(-0.00314892 0.000785367 0)
(0.000117836 0.000703952 0)
(0.00163183 0.000595582 0)
(0.00293306 0.000529674 0)
(0.00459278 0.000435127 0)
(0.00644759 0.000352265 0)
(0.00835227 0.00019003 0)
(0.0225307 0.000195796 0)
(0.0949827 0.000299726 0)
(0.240893 0.00125352 0)
(0.282884 6.40425e-05 0)
(0.186952 -0.000197889 0)
(0.147009 -0.00627787 0)
(0.107018 -0.000334409 0)
(0.0279748 0.00163207 0)
(-0.00553435 -0.153153 0)
(-0.0162711 -0.140691 0)
(-0.00895138 -0.131112 0)
(0.0269221 -0.0902719 0)
(0.082252 -0.022254 0)
(0.246757 0.0540455 0)
(0.454026 0.0720055 0)
(0.387452 -0.0807461 0)
(0.124931 -0.159204 0)
(-0.0284077 -0.152321 0)
(-0.103038 -0.156135 0)
(-0.152035 -0.132577 0)
(-0.14065 -0.0807782 0)
(-0.122042 -0.0511289 0)
(-0.137779 -0.043778 0)
(-0.184707 -0.0432503 0)
(-0.229228 -0.0421382 0)
(-0.197556 -0.0277906 0)
(-0.106307 -0.00748023 0)
(-0.0482142 -0.000890708 0)
(-0.0333043 -0.000673602 0)
(-0.0290259 -0.000794064 0)
(-0.0238918 -0.000178129 0)
(-0.0165118 0.000675453 0)
(-0.00875112 0.0011965 0)
(-0.00316615 0.00129436 0)
(8.27566e-06 0.001191 0)
(0.00152827 0.00102968 0)
(0.00283999 0.000928573 0)
(0.00448768 0.000791497 0)
(0.00630611 0.000656291 0)
(0.00824831 0.000421669 0)
(0.0225943 0.000369137 0)
(0.0955053 0.000557294 0)
(0.240685 0.00149111 0)
(0.282015 -0.000213639 0)
(0.184568 -0.000961927 0)
(0.146777 -0.00387507 0)
(0.10985 -0.000912867 0)
(0.0288703 0.00060414 0)
(0.000410526 0.0300305 0)
(-0.000704715 0.0364302 0)
(0.018705 0.0547893 0)
(0.0691079 0.0859232 0)
(0.14037 0.127252 0)
(0.254046 0.177391 0)
(0.350906 0.155098 0)
(0.246979 -0.005061 0)
(0.0615549 -0.11056 0)
(-0.0338476 -0.135811 0)
(-0.0959087 -0.154524 0)
(-0.114693 -0.125031 0)
(-0.104814 -0.0821259 0)
(-0.107354 -0.0634659 0)
(-0.13437 -0.0578061 0)
(-0.183611 -0.0571765 0)
(-0.220142 -0.055633 0)
(-0.177679 -0.0339225 0)
(-0.0913238 -0.00828359 0)
(-0.044544 -0.00113238 0)
(-0.0331703 -0.000812406 0)
(-0.0286925 -0.000703548 0)
(-0.0230928 9.10574e-05 0)
(-0.0157529 0.00113292 0)
(-0.00839065 0.00179412 0)
(-0.00315422 0.00195317 0)
(-0.000137217 0.00183666 0)
(0.00137895 0.00162698 0)
(0.00270353 0.00149503 0)
(0.0043304 0.00131639 0)
(0.00609121 0.00112931 0)
(0.00807556 0.000815957 0)
(0.0226614 0.000719546 0)
(0.0960639 0.000969569 0)
(0.24015 0.00196333 0)
(0.28052 -0.00025505 0)
(0.183424 -0.00146439 0)
(0.147056 -0.00217143 0)
(0.111334 -0.000585332 0)
(0.0294367 0.000322882 0)
(0.000632691 0.0726762 0)
(0.00758746 0.0778334 0)
(0.0387419 0.104399 0)
(0.0967496 0.136834 0)
(0.170394 0.16997 0)
(0.27359 0.195736 0)
(0.278208 0.135613 0)
(0.131455 -0.0221635 0)
(-0.00106372 -0.096042 0)
(-0.0707732 -0.139306 0)
(-0.0926502 -0.136671 0)
(-0.0822699 -0.106593 0)
(-0.0813234 -0.082076 0)
(-0.0986062 -0.0722121 0)
(-0.131718 -0.067631 0)
(-0.182613 -0.0693551 0)
(-0.20682 -0.0659959 0)
(-0.151928 -0.034643 0)
(-0.0747092 -0.00758279 0)
(-0.0410147 -0.00140026 0)
(-0.0328911 -0.000969001 0)
(-0.0281553 -0.000533022 0)
(-0.0221221 0.000489098 0)
(-0.0148706 0.00167274 0)
(-0.00796071 0.00241625 0)
(-0.00312515 0.00260989 0)
(-0.000306047 0.00248519 0)
(0.00119907 0.0022445 0)
(0.00254069 0.00209135 0)
(0.00413525 0.00188573 0)
(0.00582388 0.00165903 0)
(0.00785345 0.00129469 0)
(0.0227424 0.00114871 0)
(0.0967039 0.00145005 0)
(0.239505 0.00231137 0)
(0.278712 -0.000303282 0)
(0.182721 -0.00181181 0)
(0.147624 -0.00171404 0)
(0.112254 -0.0005422 0)
(0.0297455 0.000176407 0)
(0.00538027 0.139392 0)
(0.0298644 0.155034 0)
(0.0755605 0.190493 0)
(0.132295 0.208282 0)
(0.19713 0.206705 0)
(0.220938 0.162989 0)
(0.14093 0.0336807 0)
(0.0237478 -0.0795359 0)
(-0.0513275 -0.130037 0)
(-0.072999 -0.139376 0)
(-0.0643858 -0.114933 0)
(-0.0620834 -0.0921828 0)
(-0.0716827 -0.082298 0)
(-0.0934342 -0.0761087 0)
(-0.131617 -0.0750196 0)
(-0.182035 -0.0813133 0)
(-0.186692 -0.0706171 0)
(-0.12139 -0.0297782 0)
(-0.0592898 -0.00599296 0)
(-0.0381707 -0.00154876 0)
(-0.0323346 -0.00103482 0)
(-0.0272875 -0.000218529 0)
(-0.0209673 0.00103855 0)
(-0.0138958 0.00232797 0)
(-0.00748757 0.00311003 0)
(-0.00308779 0.00332092 0)
(-0.000489324 0.00319516 0)
(0.000999434 0.00294571 0)
(0.00235781 0.00278826 0)
(0.0039138 0.00257259 0)
(0.00552167 0.00233309 0)
(0.0075838 0.00195409 0)
(0.0228111 0.00181446 0)
(0.0971843 0.00214209 0)
(0.23846 0.00311912 0)
(0.276546 0.00036188 0)
(0.182065 -0.00147275 0)
(0.148279 -0.00119786 0)
(0.113156 -0.000364937 0)
(0.0301291 1.28113e-05 0)
(0.0157063 0.199988 0)
(0.0568301 0.2199 0)
(0.0900536 0.211651 0)
(0.112372 0.186591 0)
(0.126748 0.135552 0)
(0.106858 0.0406615 0)
(0.0445022 -0.0616764 0)
(-0.0263093 -0.118964 0)
(-0.0587278 -0.139324 0)
(-0.0562185 -0.117222 0)
(-0.0471731 -0.0986249 0)
(-0.0508218 -0.0875122 0)
(-0.0658338 -0.0811824 0)
(-0.0915925 -0.0778712 0)
(-0.136734 -0.0837371 0)
(-0.178371 -0.0909619 0)
(-0.157159 -0.0650603 0)
(-0.0896539 -0.0217291 0)
(-0.0475063 -0.00482761 0)
(-0.0362368 -0.00196992 0)
(-0.0316092 -0.00116347 0)
(-0.0261573 3.70636e-05 0)
(-0.0196682 0.00154103 0)
(-0.0128745 0.0029104 0)
(-0.00700387 0.00370759 0)
(-0.00304311 0.00393561 0)
(-0.000667617 0.00382608 0)
(0.000806959 0.00358727 0)
(0.00218114 0.00343787 0)
(0.00369664 0.00322626 0)
(0.00522787 0.00300402 0)
(0.00735368 0.00265882 0)
(0.0229235 0.00252591 0)
(0.0979611 0.00283129 0)
(0.23779 0.00348029 0)
(0.274287 0.000783253 0)
(0.181218 -0.00107944 0)
(0.148691 -0.00095057 0)
(0.113421 -0.000322273 0)
(0.0301095 -0.000122849 0)
(0.0245677 0.201409 0)
(0.041103 0.215901 0)
(0.0434635 0.153777 0)
(0.0589633 0.10072 0)
(0.0565062 0.0325413 0)
(0.0308816 -0.0367919 0)
(-0.0128907 -0.112788 0)
(-0.0510766 -0.136824 0)
(-0.049649 -0.120997 0)
(-0.0337795 -0.100645 0)
(-0.0357564 -0.0895194 0)
(-0.0452752 -0.0836198 0)
(-0.0623923 -0.0794229 0)
(-0.095896 -0.0827501 0)
(-0.144232 -0.0951219 0)
(-0.164037 -0.0923964 0)
(-0.119977 -0.0498429 0)
(-0.0633478 -0.014115 0)
(-0.0402492 -0.00413668 0)
(-0.0346398 -0.00229832 0)
(-0.0304006 -0.00107233 0)
(-0.0246813 0.000509344 0)
(-0.0181984 0.00223547 0)
(-0.0118081 0.00364132 0)
(-0.00649964 0.00442234 0)
(-0.00297361 0.00464668 0)
(-0.000824994 0.00455826 0)
(0.000625336 0.00433821 0)
(0.00200993 0.00417747 0)
(0.00349573 0.00398498 0)
(0.00497485 0.00379378 0)
(0.00712308 0.00350215 0)
(0.0229773 0.00341315 0)
(0.098104 0.00370952 0)
(0.236487 0.00406433 0)
(0.272153 0.00129246 0)
(0.180394 -0.000658405 0)
(0.149009 -0.000783329 0)
(0.113954 -0.00029321 0)
(0.0303213 8.70828e-05 0)
(0.0296707 0.183673 0)
(0.0109302 0.143963 0)
(-0.0209384 0.0846175 0)
(-0.00445519 0.0263037 0)
(-0.00576418 -0.0399748 0)
(-0.0331868 -0.101101 0)
(-0.051892 -0.128548 0)
(-0.03422 -0.119796 0)
(-0.023865 -0.0957305 0)
(-0.0258852 -0.0884761 0)
(-0.0307668 -0.0837448 0)
(-0.0410924 -0.0785744 0)
(-0.0649957 -0.0803155 0)
(-0.106721 -0.0916642 0)
(-0.146029 -0.102528 0)
(-0.134738 -0.078816 0)
(-0.0817239 -0.0318994 0)
(-0.0456097 -0.00927361 0)
(-0.0361193 -0.00387805 0)
(-0.0332839 -0.00232164 0)
(-0.0289036 -0.000664397 0)
(-0.0229698 0.00125708 0)
(-0.0166501 0.00309487 0)
(-0.0107671 0.00450694 0)
(-0.00603507 0.00526115 0)
(-0.00291213 0.00547277 0)
(-0.000964872 0.00540038 0)
(0.000440015 0.00521025 0)
(0.00184075 0.00503868 0)
(0.0033269 0.00488992 0)
(0.0047626 0.00474704 0)
(0.00698689 0.00455259 0)
(0.0231233 0.00457252 0)
(0.0985886 0.00482088 0)
(0.235461 0.0049084 0)
(0.269736 0.00211396 0)
(0.179217 2.03471e-05 0)
(0.149043 -0.000226928 0)
(0.114259 0.000127248 0)
(0.030476 0.000544542 0)
(-0.0136976 0.108766 0)
(-0.0543502 0.029285 0)
(-0.0699177 -0.00129075 0)
(-0.0610984 -0.0366283 0)
(-0.0662658 -0.0811497 0)
(-0.0544711 -0.111419 0)
(-0.030906 -0.100484 0)
(-0.0194521 -0.0881688 0)
(-0.0194677 -0.0850454 0)
(-0.0222297 -0.0821651 0)
(-0.0262148 -0.0766007 0)
(-0.0419706 -0.0765117 0)
(-0.0750061 -0.0862768 0)
(-0.117301 -0.100838 0)
(-0.131851 -0.0954611 0)
(-0.0959769 -0.0532148 0)
(-0.0529631 -0.0177113 0)
(-0.0363454 -0.00595759 0)
(-0.03355 -0.00320355 0)
(-0.0315431 -0.00151301 0)
(-0.0269521 0.000645417 0)
(-0.0210587 0.00285077 0)
(-0.0150667 0.004717 0)
(-0.00972056 0.00604012 0)
(-0.00556893 0.00669075 0)
(-0.00283945 0.00683197 0)
(-0.00107797 0.00672405 0)
(0.00027679 0.00652548 0)
(0.00170125 0.00633683 0)
(0.0032147 0.00620419 0)
(0.00464979 0.0060969 0)
(0.0069549 0.00600258 0)
(0.0232359 0.0061281 0)
(0.0984276 0.0063363 0)
(0.233878 0.00600059 0)
(0.267442 0.00304373 0)
(0.178138 0.000689526 0)
(0.149112 0.000202799 0)
(0.114697 0.000572333 0)
(0.0307234 0.00131642 0)
(-0.0469199 0.01917 0)
(-0.0951244 -0.0188186 0)
(-0.0844548 -0.0331633 0)
(-0.0814102 -0.0480729 0)
(-0.0778351 -0.066474 0)
(-0.051818 -0.07507 0)
(-0.0294874 -0.080564 0)
(-0.0193429 -0.0801612 0)
(-0.0180797 -0.0791707 0)
(-0.0177475 -0.0740518 0)
(-0.0253189 -0.0716879 0)
(-0.0504167 -0.0794611 0)
(-0.0884373 -0.0941923 0)
(-0.115571 -0.0996155 0)
(-0.100138 -0.0706787 0)
(-0.0598158 -0.0288484 0)
(-0.0361852 -0.00921042 0)
(-0.0316296 -0.00361706 0)
(-0.0318363 -0.00179749 0)
(-0.0295749 0.000253548 0)
(-0.0246985 0.00263148 0)
(-0.0190463 0.00489228 0)
(-0.0135767 0.00671299 0)
(-0.00886516 0.00790122 0)
(-0.00527201 0.00841551 0)
(-0.00288005 0.00845902 0)
(-0.00126021 0.00829626 0)
(6.68746e-05 0.00806535 0)
(0.00153114 0.00785992 0)
(0.00309569 0.00773991 0)
(0.00456832 0.0076794 0)
(0.00701697 0.00769583 0)
(0.0234449 0.00791352 0)
(0.0984658 0.00804136 0)
(0.232288 0.00697811 0)
(0.264618 0.00384322 0)
(0.17648 0.0015299 0)
(0.14893 0.000713859 0)
(0.115333 0.00102802 0)
(0.031193 0.00224345 0)
(-0.0503048 0.00807395 0)
(-0.104781 1.68494e-05 0)
(-0.0981082 -0.00729896 0)
(-0.0931977 -0.0258653 0)
(-0.0922812 -0.0409543 0)
(-0.0680488 -0.0671419 0)
(-0.035812 -0.0778842 0)
(-0.0181094 -0.075055 0)
(-0.0135805 -0.0706984 0)
(-0.015019 -0.0664327 0)
(-0.0314274 -0.0719074 0)
(-0.0636566 -0.0851599 0)
(-0.0944276 -0.0946203 0)
(-0.0946421 -0.0790345 0)
(-0.0636571 -0.0399178 0)
(-0.0367438 -0.0134126 0)
(-0.0286493 -0.00407836 0)
(-0.029202 -0.00136089 0)
(-0.0298202 0.000407294 0)
(-0.0272751 0.00265315 0)
(-0.022482 0.00504657 0)
(-0.0171256 0.00715944 0)
(-0.0121672 0.00875536 0)
(-0.00807996 0.00969901 0)
(-0.00503141 0.0100192 0)
(-0.00295436 0.00994456 0)
(-0.00145732 0.0097298 0)
(-0.00014368 0.00946156 0)
(0.00138764 0.009278 0)
(0.00304074 0.00923935 0)
(0.00460731 0.00932117 0)
(0.0071805 0.00951802 0)
(0.0235688 0.00994018 0)
(0.0975262 0.0101663 0)
(0.229833 0.00874338 0)
(0.262192 0.00531724 0)
(0.175123 0.00309122 0)
(0.148628 0.0019395 0)
(0.116171 0.00221506 0)
(0.0318947 0.00375 0)
(-0.054684 0.0190287 0)
(-0.109938 0.0089188 0)
(-0.109396 0.00138412 0)
(-0.113842 -0.0138459 0)
(-0.117611 -0.0395643 0)
(-0.087405 -0.0678136 0)
(-0.0371127 -0.0715751 0)
(-0.0124184 -0.0656915 0)
(-0.00977094 -0.0608828 0)
(-0.0189125 -0.0626857 0)
(-0.0433652 -0.074739 0)
(-0.0723037 -0.0858484 0)
(-0.0825346 -0.0785953 0)
(-0.0628576 -0.0462872 0)
(-0.0369022 -0.017254 0)
(-0.0252796 -0.00468243 0)
(-0.0245717 -0.000462537 0)
(-0.0273071 0.000980492 0)
(-0.0279683 0.00259113 0)
(-0.0251044 0.00484362 0)
(-0.0203561 0.00735768 0)
(-0.0154723 0.00957445 0)
(-0.0111295 0.0112693 0)
(-0.00764726 0.0123211 0)
(-0.00503539 0.0128132 0)
(-0.00315894 0.0130202 0)
(-0.00172565 0.0130696 0)
(-0.000368496 0.0130894 0)
(0.001317 0.0132093 0)
(0.0031373 0.0135516 0)
(0.00483685 0.0138996 0)
(0.00761346 0.0144444 0)
(0.0240697 0.0151129 0)
(0.0973125 0.0156269 0)
(0.227615 0.0142492 0)
(0.259172 0.0105036 0)
(0.173225 0.00702846 0)
(0.148086 0.00433022 0)
(0.117077 0.00353508 0)
(0.0326721 0.00521758 0)
(-0.0600471 0.0148069 0)
(-0.121783 0.00753019 0)
(-0.120045 -0.00863361 0)
(-0.132657 -0.0125996 0)
(-0.144286 -0.0376149 0)
(-0.0988955 -0.056061 0)
(-0.033767 -0.0547622 0)
(-0.00780593 -0.0528237 0)
(-0.0106841 -0.0532211 0)
(-0.0283713 -0.0612113 0)
(-0.0537478 -0.0712682 0)
(-0.0673728 -0.0684118 0)
(-0.0563049 -0.0442085 0)
(-0.0355314 -0.0147805 0)
(-0.0235652 0.00149408 0)
(-0.020563 0.00802262 0)
(-0.0231923 0.0101953 0)
(-0.0262594 0.0117712 0)
(-0.0260975 0.0145088 0)
(-0.0226819 0.0181016 0)
(-0.0179232 0.0217193 0)
(-0.0133562 0.0249009 0)
(-0.00952047 0.0274552 0)
(-0.00659225 0.0293231 0)
(-0.00435774 0.0306267 0)
(-0.00270722 0.0316035 0)
(-0.00139061 0.0323024 0)
(-9.10735e-06 0.0329068 0)
(0.00183301 0.0334499 0)
(0.00370598 0.0341929 0)
(0.00546765 0.0346615 0)
(0.00834961 0.0354344 0)
(0.0247084 0.0360695 0)
(0.096694 0.0368922 0)
(0.224896 0.034769 0)
(0.255234 0.0286477 0)
(0.169174 0.0223985 0)
(0.145262 0.0144188 0)
(0.117026 0.00749472 0)
(0.033516 0.00750359 0)
(-0.0616961 0.00408943 0)
(-0.132526 0.0048252 0)
(-0.128794 -0.0102102 0)
(-0.141769 -0.00637974 0)
(-0.159492 -0.0178177 0)
(-0.103929 -0.0274863 0)
(-0.0339931 -0.0269901 0)
(-0.0109334 -0.0297231 0)
(-0.0178536 -0.0347188 0)
(-0.0363033 -0.0405574 0)
(-0.0503038 -0.0368078 0)
(-0.046228 -0.0157507 0)
(-0.0308536 0.0122353 0)
(-0.0188169 0.0314918 0)
(-0.0149283 0.0436604 0)
(-0.0168948 0.0518967 0)
(-0.0209594 0.058365 0)
(-0.0231504 0.0650049 0)
(-0.021868 0.0722654 0)
(-0.0181561 0.0795705 0)
(-0.0138041 0.0866994 0)
(-0.00994503 0.0938106 0)
(-0.00686809 0.100215 0)
(-0.00459113 0.10558 0)
(-0.00283791 0.109949 0)
(-0.00154418 0.113773 0)
(-0.000469719 0.116348 0)
(0.000737278 0.119046 0)
(0.00255629 0.120883 0)
(0.00430484 0.122529 0)
(0.00603322 0.122866 0)
(0.00897033 0.123673 0)
(0.0254745 0.12338 0)
(0.0960592 0.123591 0)
(0.21967 0.116855 0)
(0.247251 0.0945176 0)
(0.159513 0.0692855 0)
(0.133724 0.0426453 0)
(0.110414 0.0181324 0)
(0.0326807 0.010786 0)
(-0.0593381 -0.00441281 0)
(-0.135563 0.00789705 0)
(-0.130843 0.0150177 0)
(-0.139988 0.0354471 0)
(-0.164625 0.0450598 0)
(-0.107734 0.0400815 0)
(-0.0359225 0.0409304 0)
(-0.0152535 0.0425515 0)
(-0.0211244 0.0448407 0)
(-0.0303844 0.0558321 0)
(-0.0298433 0.0781122 0)
(-0.020113 0.107955 0)
(-0.0107803 0.132882 0)
(-0.00524911 0.150769 0)
(-0.00390229 0.16427 0)
(-0.00639299 0.175004 0)
(-0.0105608 0.184569 0)
(-0.0128645 0.194092 0)
(-0.0120616 0.203271 0)
(-0.0087728 0.211605 0)
(-0.00420088 0.219034 0)
(-0.00033177 0.226009 0)
(0.00182077 0.23141 0)
(0.00278755 0.2356 0)
(0.00353758 0.238644 0)
(0.00345941 0.241225 0)
(0.00369104 0.242662 0)
(0.0043601 0.244167 0)
(0.00518917 0.244798 0)
(0.00561709 0.245042 0)
(0.00656975 0.244166 0)
(0.00884555 0.24307 0)
(0.0246295 0.241115 0)
(0.0904054 0.237665 0)
(0.19688 0.216488 0)
(0.209395 0.166926 0)
(0.119188 0.125604 0)
(0.095969 0.0892294 0)
(0.0863252 0.0421999 0)
(0.0264367 0.0186967 0)
(-0.0498339 -0.00777433 0)
(-0.113802 0.0218189 0)
(-0.102245 0.0676189 0)
(-0.11282 0.113151 0)
(-0.155026 0.147158 0)
(-0.107908 0.154723 0)
(-0.0316129 0.152633 0)
(-0.00716525 0.154953 0)
(-0.0050559 0.161641 0)
(-0.00424172 0.178549 0)
(-7.61973e-05 0.200043 0)
(0.00655001 0.219972 0)
(0.0104033 0.234003 0)
(0.0114298 0.243441 0)
(0.00842579 0.248336 0)
(0.00266645 0.250308 0)
(-0.0025661 0.252033 0)
(-0.0051291 0.254722 0)
(-0.0049915 0.258078 0)
(-0.00296624 0.261041 0)
(7.59945e-05 0.262736 0)
(0.00198085 0.263551 0)
(0.00237474 0.262744 0)
(0.0023804 0.261277 0)
(0.00258166 0.259336 0)
(0.00232719 0.257366 0)
(0.0023654 0.255659 0)
(0.00279639 0.253684 0)
(0.00340027 0.251834 0)
(0.00369519 0.249638 0)
(0.00413248 0.247734 0)
(0.00603076 0.245148 0)
(0.0202662 0.242515 0)
(0.0723274 0.236075 0)
(0.151504 0.203086 0)
(0.159672 0.149209 0)
(0.0846421 0.121561 0)
(0.0533534 0.10411 0)
(0.0424456 0.0543876 0)
(0.0100322 0.0193825 0)
(-0.030821 -0.0265591 0)
(-0.0629115 0.0329121 0)
(-0.0428316 0.0992594 0)
(-0.0633409 0.129381 0)
(-0.124566 0.159772 0)
(-0.102459 0.178381 0)
(-0.0357005 0.174228 0)
(-0.00657328 0.17242 0)
(0.0016132 0.173944 0)
(0.00662127 0.17977 0)
(0.0100734 0.185869 0)
(0.0126122 0.189243 0)
(0.0118358 0.189649 0)
(0.00856291 0.186593 0)
(0.0027147 0.181459 0)
(-0.00283082 0.177287 0)
(-0.00630706 0.175174 0)
(-0.0070393 0.175228 0)
(-0.00597254 0.17675 0)
(-0.00428403 0.179192 0)
(-0.00178228 0.181664 0)
(-0.000324268 0.179324 0)
(-0.000370899 0.175647 0)
(-0.000495877 0.173116 0)
(-0.000230312 0.171392 0)
(-8.37504e-05 0.170065 0)
(0.000142789 0.169045 0)
(0.000674171 0.167908 0)
(0.00129034 0.16706 0)
(0.00166576 0.165703 0)
(0.0022422 0.164575 0)
(0.00381586 0.16323 0)
(0.0158864 0.161179 0)
(0.0524107 0.152668 0)
(0.113173 0.119694 0)
(0.130834 0.0759777 0)
(0.0757283 0.0614104 0)
(0.0312385 0.0682455 0)
(0.00467892 0.037327 0)
(-0.0072954 -0.0200537 0)
(0.00747476 -0.386688 0)
(0.0074409 -0.090833 0)
(-0.00928424 0.0887953 0)
(-0.0545077 0.0917238 0)
(-0.107807 0.114786 0)
(-0.0939774 0.146212 0)
(-0.0373578 0.154877 0)
(-0.00743858 0.156225 0)
(0.00202728 0.156253 0)
(0.00724938 0.155322 0)
(0.00905198 0.154136 0)
(0.0101927 0.151462 0)
(0.00784941 0.14888 0)
(0.00353702 0.144887 0)
(-0.00054166 0.142154 0)
(-0.0033895 0.141654 0)
(-0.00455028 0.142885 0)
(-0.00361033 0.14535 0)
(-0.00117134 0.148014 0)
(0.00176866 0.150078 0)
(0.000203234 0.151329 0)
(-0.00381691 0.150427 0)
(-0.0036077 0.150064 0)
(-0.0017197 0.149311 0)
(-0.000358388 0.148846 0)
(6.51593e-05 0.14863 0)
(0.000287149 0.148624 0)
(0.000883564 0.148576 0)
(0.00127491 0.148543 0)
(0.00130036 0.148185 0)
(0.00174976 0.147935 0)
(0.00275819 0.147685 0)
(0.0100884 0.146471 0)
(0.0323513 0.136829 0)
(0.077602 0.106977 0)
(0.103508 0.0573003 0)
(0.0771911 0.0266576 0)
(0.0301457 0.0225828 0)
(-0.0426427 -0.123828 0)
(-0.045262 -0.407557 0)
(0.254275 -0.785022 0)
(0.395281 -0.438848 0)
(0.133087 -0.0165265 0)
(-0.0382956 0.0249546 0)
(-0.0720588 0.0592515 0)
(-0.0638253 0.104753 0)
(-0.0260516 0.125235 0)
(-0.00524787 0.128847 0)
(0.000743324 0.129899 0)
(0.00458134 0.126931 0)
(0.0063535 0.124799 0)
(0.00754729 0.121654 0)
(0.00549984 0.118779 0)
(0.00208194 0.116906 0)
(-0.000400188 0.116691 0)
(-0.00212662 0.117311 0)
(-0.00274613 0.118547 0)
(-0.00209641 0.119787 0)
(-0.00141649 0.120427 0)
(-0.00108939 0.119321 0)
(-0.00144577 0.116296 0)
(-0.00154334 0.116603 0)
(-0.00144631 0.118004 0)
(-0.00166965 0.118176 0)
(-0.000886196 0.117859 0)
(-0.000297991 0.11713 0)
(9.07839e-05 0.116954 0)
(0.000596394 0.116597 0)
(0.000913425 0.116226 0)
(0.0010795 0.115963 0)
(0.00175994 0.116242 0)
(0.00240508 0.11678 0)
(0.00542528 0.117165 0)
(0.0143531 0.112057 0)
(0.0365364 0.0927362 0)
(0.0534352 0.0495264 0)
(0.0422732 0.00628446 0)
(-0.113775 -0.0438691 0)
(-0.40982 -0.414697 0)
(-0.280707 -0.76523 0)
(0.34106 -0.421642 0)
(0.747991 -0.331583 0)
(0.437653 -0.0556227 0)
(0.0185149 -0.0155232 0)
(-0.0309109 0.00333161 0)
(-0.0303934 0.0271775 0)
(-0.0141399 0.038025 0)
(-0.00294446 0.0395387 0)
(0.000181379 0.0404154 0)
(0.00233565 0.0389556 0)
(0.00396684 0.0380849 0)
(0.00439117 0.0364788 0)
(0.00327326 0.0348097 0)
(0.00152457 0.0341682 0)
(-0.000151027 0.0342313 0)
(-0.00160041 0.0344268 0)
(-0.00216388 0.0347774 0)
(-0.00179914 0.035031 0)
(-0.00162041 0.0350859 0)
(-0.00221144 0.0348194 0)
(-0.00241602 0.0339215 0)
(-0.00217173 0.0338125 0)
(-0.00209251 0.0332694 0)
(-0.00185889 0.033142 0)
(-0.00136623 0.033073 0)
(-0.000806936 0.0326438 0)
(-0.000226497 0.0325449 0)
(0.000181925 0.0323146 0)
(0.000664407 0.0321148 0)
(0.00131596 0.0320561 0)
(0.00253676 0.0323601 0)
(0.00364736 0.0328623 0)
(0.00553697 0.0336493 0)
(0.0088107 0.0329782 0)
(0.0173456 0.0278978 0)
(0.0201995 0.0130632 0)
(-0.0128082 -0.00659203 0)
(-0.375528 -0.0440967 0)
(-0.737772 -0.278222 0)
(-0.383048 -0.384425 0)
(0.34106 0.421642 0)
(0.747991 0.331583 0)
(0.437653 0.0556227 0)
(0.0185149 0.0155232 0)
(-0.0309109 -0.00333161 0)
(-0.0303934 -0.0271775 0)
(-0.0141399 -0.038025 0)
(-0.00294446 -0.0395387 0)
(0.000181379 -0.0404154 0)
(0.00233565 -0.0389556 0)
(0.00396684 -0.0380849 0)
(0.00439117 -0.0364788 0)
(0.00327326 -0.0348097 0)
(0.00152457 -0.0341682 0)
(-0.000151027 -0.0342313 0)
(-0.00160041 -0.0344268 0)
(-0.00216388 -0.0347774 0)
(-0.00179914 -0.035031 0)
(-0.00162041 -0.0350859 0)
(-0.00221144 -0.0348194 0)
(-0.00241602 -0.0339215 0)
(-0.00217173 -0.0338125 0)
(-0.00209251 -0.0332694 0)
(-0.00185889 -0.033142 0)
(-0.00136623 -0.033073 0)
(-0.000806936 -0.0326438 0)
(-0.000226497 -0.0325449 0)
(0.000181925 -0.0323146 0)
(0.000664407 -0.0321148 0)
(0.00131596 -0.0320561 0)
(0.00253676 -0.0323601 0)
(0.00364736 -0.0328623 0)
(0.00553697 -0.0336493 0)
(0.0088107 -0.0329782 0)
(0.0173456 -0.0278978 0)
(0.0201995 -0.0130632 0)
(-0.0128082 0.00659203 0)
(-0.375528 0.0440967 0)
(-0.737772 0.278222 0)
(-0.383048 0.384425 0)
(0.254275 0.785022 0)
(0.395281 0.438848 0)
(0.133087 0.0165265 0)
(-0.0382956 -0.0249546 0)
(-0.0720588 -0.0592515 0)
(-0.0638253 -0.104753 0)