/*--------------------------------*- C++ -*----------------------------------*\
| =========                 |                                                 |
| \\      /  F ield         | OpenFOAM: The Open Source CFD Toolbox           |
|  \\    /   O peration     | Version:  v1912                                 |
|   \\  /    A nd           | Website:  www.openfoam.com                      |
|    \\/     M anipulation  |                                                 |
\*---------------------------------------------------------------------------*/
FoamFile
{
    version     2.0;
    format      ascii;
    class       volTensorField;
    location    "7.22";
    object      grad(U);
}
// * * * * * * * * * * * * * * * * * * * * * * * * * * * * * * * * * * * * * //

dimensions      [0 0 -1 0 0 0 0];


internalField   nonuniform List<tensor> 
1900
(
(-3.309 -4.88027e-06 0 3.79094e-06 -7.87815e-08 0 0 0 0)
(3.77365 -3.64206e-06 0 6.94321e-06 -7.57572e-06 0 0 0 0)
(0.415165 -7.89305e-06 0 -9.40246e-06 -8.73291e-06 0 0 0 0)
(0.00448441 -3.02508e-06 0 -2.38654e-05 -3.01003e-05 0 0 0 0)
(0.0135755 -0.000272759 0 -9.32991e-05 -8.00382e-05 0 0 0 0)
(0.0168896 -0.000718659 0 -0.000304346 -0.000681876 0 0 0 0)
(0.0228255 0.00242318 0 -0.000988924 -0.00165435 0 0 0 0)
(0.0237991 0.0164239 0 -0.00218453 0.00371819 0 0 0 0)
(-0.022612 0.0579605 0 0.00885577 0.0265509 0 0 0 0)
(-0.017593 0.211684 0 0.0581519 0.117348 0 0 0 0)
(-3.30899 -2.77423e-06 0 4.31581e-06 1.92743e-06 0 0 0 0)
(3.77363 -5.01207e-06 0 9.86615e-06 2.95284e-06 0 0 0 0)
(0.415134 -1.46315e-05 0 -2.11541e-05 5.56949e-06 0 0 0 0)
(0.00440051 -6.82802e-05 0 -4.72821e-05 1.08459e-05 0 0 0 0)
(0.0132951 -0.000379017 0 -0.000204594 8.59457e-06 0 0 0 0)
(0.0159939 -0.000855649 0 -0.000576161 0.000283604 0 0 0 0)
(0.0209454 0.00197688 0 -0.00159903 0.000727254 0 0 0 0)
(0.0336438 0.0117814 0 -0.00116382 -0.00213957 0 0 0 0)
(0.0377244 0.0556698 0 0.0117462 -0.0156966 0 0 0 0)
(0.106557 0.150077 0 0.0919462 -0.0601001 0 0 0 0)
(-3.30899 -2.73715e-13 0 -1.7022e-13 -3.6973e-06 0 0 0 0)
(3.77362 1.09981e-13 0 -1.27055e-15 9.24576e-06 0 0 0 0)
(0.415108 9.60547e-15 0 9.14796e-14 6.32683e-06 0 0 0 0)
(0.00430097 -6.72846e-14 0 9.48677e-15 3.85088e-05 0 0 0 0)
(0.0130467 1.86129e-13 0 -6.38324e-14 0.000142887 0 0 0 0)
(0.0154951 2.70863e-13 0 -1.84314e-14 0.000796543 0 0 0 0)
(0.0222379 -6.3853e-14 0 1.27394e-14 0.00185419 0 0 0 0)
(0.0371444 -1.41759e-13 0 -3.04932e-14 -0.00315723 0 0 0 0)
(0.070498 -7.17236e-14 0 3.13063e-14 -0.0217086 0 0 0 0)
(0.165927 3.11673e-15 0 -4.06576e-15 -0.114497 0 0 0 0)
(-3.30899 2.77423e-06 0 -4.31581e-06 1.92743e-06 0 0 0 0)
(3.77363 5.01207e-06 0 -9.86615e-06 2.95284e-06 0 0 0 0)
(0.415134 1.46315e-05 0 2.11541e-05 5.56949e-06 0 0 0 0)
(0.00440051 6.82802e-05 0 4.72821e-05 1.08459e-05 0 0 0 0)
(0.0132951 0.000379017 0 0.000204594 8.59457e-06 0 0 0 0)
(0.0159939 0.000855649 0 0.000576161 0.000283604 0 0 0 0)
(0.0209454 -0.00197688 0 0.00159903 0.000727254 0 0 0 0)
(0.0336438 -0.0117814 0 0.00116382 -0.00213957 0 0 0 0)
(0.0377244 -0.0556698 0 -0.0117462 -0.0156966 0 0 0 0)
(0.106557 -0.150077 0 -0.0919462 -0.0601001 0 0 0 0)
(-3.309 4.88027e-06 0 -3.79094e-06 -7.87813e-08 0 0 0 0)
(3.77365 3.64206e-06 0 -6.94321e-06 -7.57572e-06 0 0 0 0)
(0.415165 7.89305e-06 0 9.40246e-06 -8.73291e-06 0 0 0 0)
(0.00448441 3.02508e-06 0 2.38654e-05 -3.01003e-05 0 0 0 0)
(0.0135755 0.000272759 0 9.32991e-05 -8.00382e-05 0 0 0 0)
(0.0168896 0.000718659 0 0.000304346 -0.000681876 0 0 0 0)
(0.0228255 -0.00242318 0 0.000988924 -0.00165435 0 0 0 0)
(0.0237991 -0.0164239 0 0.00218453 0.00371819 0 0 0 0)
(-0.022612 -0.0579605 0 -0.00885577 0.0265509 0 0 0 0)
(-0.017593 -0.211684 0 -0.0581519 0.117348 0 0 0 0)
(0.175471 0.421739 -2.13597e-17 0.245796 -0.235108 3.20395e-17 5.85275e-17 7.50655e-17 -5.78955e-33)
(0.518015 0.577316 0 0.302169 -0.468073 0 -1.62452e-16 -4.78102e-17 0)
(0.804936 0.986766 0 0.29865 -0.801348 0 -2.64542e-16 -8.5971e-17 0)
(1.49416 1.605 0 0.346762 -1.4632 0 0 0 0)
(2.7903 1.86671 2.7256e-16 1.14158 -3.54002 -4.0884e-16 -2.2979e-15 -1.53193e-15 -7.38776e-32)
(0.249394 0.15946 0 0.188809 -0.209207 0 1.02943e-16 3.25814e-17 0)
(0.432751 0.167325 0 0.153691 -0.340256 0 1.62452e-16 4.78102e-17 0)
(0.750286 0.420386 0 0.0645602 -0.632748 0 2.64542e-16 8.5971e-17 0)
(1.68168 0.868055 0 -0.0645697 -1.33614 0 0 0 0)
(3.70356 0.581388 0 -0.183964 -3.10761 0 0 0 0)
(0.308667 -8.31305e-14 0 5.45047e-14 -0.302811 0 0 0 0)
(0.455961 6.24826e-14 0 1.07588e-13 -0.37782 0 0 0 0)
(0.743122 -2.52228e-14 0 3.15849e-13 -0.637566 0 0 0 0)
(1.5833 -1.44413e-13 0 5.44154e-14 -1.36491 0 0 0 0)
(3.45237 1.35517e-13 0 1.09711e-13 -3.66025 0 0 0 0)
(0.249394 -0.15946 0 -0.188809 -0.209207 0 1.02943e-16 -3.25814e-17 0)
(0.432751 -0.167325 0 -0.153691 -0.340256 0 1.62452e-16 -4.78102e-17 0)
(0.750286 -0.420386 0 -0.0645602 -0.632748 0 2.64542e-16 -8.5971e-17 0)
(1.68168 -0.868055 0 0.0645697 -1.33614 0 0 0 0)
(3.70356 -0.581388 0 0.183964 -3.10761 0 0 0 0)
(0.175471 -0.421739 2.13597e-17 -0.245796 -0.235108 3.20395e-17 -2.64413e-16 1.40228e-16 -5.78955e-33)
(0.518015 -0.577316 0 -0.302169 -0.468073 0 -1.62452e-16 4.78102e-17 0)
(0.804936 -0.986766 0 -0.29865 -0.801348 0 -2.64542e-16 8.5971e-17 0)
(1.49416 -1.605 9.75204e-17 -0.346762 -1.4632 1.46281e-16 -9.43741e-16 6.29161e-16 -2.64329e-32)
(2.7903 -1.86671 -2.7256e-16 -1.14158 -3.54002 -4.0884e-16 2.2979e-15 -1.53193e-15 -7.38776e-32)
(4.22392 -0.783834 -1.87178e-17 0.00377654 4.5075 -1.6846e-16 2.28483e-15 -1.18106e-16 5.07347e-33)
(2.31567 -0.315144 9.08779e-18 0.542418 2.78359 8.17901e-17 -2.5674e-15 1.99619e-16 2.46325e-33)
(1.36909 0.00510199 0 0.735169 2.25573 0 0 0 0)
(1.00073 0.0775417 -5.45296e-18 0.67172 2.13583 -4.90766e-17 2.39727e-15 -1.99791e-16 1.47803e-33)
(0.7667 0.414805 4.40005e-18 0.48463 1.71288 3.96005e-17 -1.13074e-15 1.25638e-16 1.19264e-33)
(4.34748 -0.953843 0 -0.705773 -0.689508 0 -1.14247e-15 -8.82237e-18 0)
(2.6057 -0.203447 0 0.318249 0.995059 0 1.29187e-15 -5.78932e-17 0)
(1.45606 -0.00917897 0 0.453552 1.40092 0 0 0 0)
(0.94208 -0.0551538 0 0.362621 1.37766 0 -1.51367e-15 7.42941e-17 0)
(0.569273 0.158064 0 0.192387 1.4284 0 2.87782e-16 -7.7582e-18 0)
(4.34987 1.75128e-16 0 1.4237e-13 0.793137 0 0 0 0)
(2.58278 1.06409e-13 0 1.48267e-13 1.85447 0 0 0 0)
(1.34936 -1.83371e-13 0 -9.63735e-14 1.98606 0 0 0 0)
(0.870628 1.65524e-13 0 3.8266e-13 1.74274 0 6.09835e-16 -1.04803e-29 0)
(0.523896 1.84996e-13 0 -1.09688e-12 2.06083 0 -5.75565e-16 -9.78891e-30 0)
(4.34748 0.953843 0 0.705773 -0.689508 0 -1.14247e-15 8.82237e-18 0)
(2.6057 0.203447 0 -0.318249 0.995059 0 1.29187e-15 5.78932e-17 0)
(1.45606 0.00917897 0 -0.453552 1.40092 0 0 0 0)
(0.94208 0.0551538 0 -0.362621 1.37766 0 -1.51367e-15 -7.42941e-17 0)
(0.569273 -0.158064 0 -0.192387 1.4284 0 2.87782e-16 7.7582e-18 0)
(4.22392 0.783834 0 -0.00377654 4.5075 0 1.14247e-15 -8.82237e-18 0)
(2.31567 0.315144 -9.08779e-18 -0.542418 2.78359 8.17901e-17 -1.63358e-17 8.38327e-17 2.46325e-33)
(1.36909 -0.00510199 0 -0.735169 2.25573 0 0 0 0)
(1.00073 -0.0775417 5.45296e-18 -0.67172 2.13583 -4.90766e-17 2.023e-17 -6.43243e-17 1.47803e-33)
(0.7667 -0.414805 -4.40005e-18 -0.48463 1.71288 3.96005e-17 1.13074e-15 1.25638e-16 1.19264e-33)
(0.318335 0.4687 0 -0.215947 -0.0528168 0 0 0 0)
(0.107421 0.157728 0 -0.263868 0.0192276 0 0 0 0)
(0.186782 -0.069953 0 -0.19726 0.169319 0 0 0 0)
(0.329963 -0.169986 0 -0.161693 0.266633 0 0 0 0)
(0.200123 -0.0169587 0 0.0166399 0.381941 0 0 0 0)
(-0.314553 0.195211 0 0.329863 0.0203725 0 0 0 0)
(-1.54341 -0.00750696 0 0.555178 -0.141015 0 0 0 0)
(-1.61345 -0.145956 0 0.450896 0.199336 0 0 0 0)
(-0.5707 -0.106117 0 0.176548 0.403306 0 0 0 0)
(-0.532703 -0.165092 0 0.165279 0.694617 0 0 0 0)
(-0.825434 -0.114579 0 0.184941 0.992663 0 0 0 0)
(-0.96531 0.012246 0 0.203741 1.07798 0 0 0 0)
(-0.891544 0.103282 0 0.196177 0.909505 0 0 0 0)
(-0.716477 0.114179 0 0.166058 0.645466 0 0 0 0)
(-0.596449 0.0855275 0 0.131762 0.481461 0 0 0 0)
(-0.631025 0.0572838 0 0.0965393 0.373812 0 0 0 0)
(-0.756726 0.0455804 0 0.0629632 0.290896 0 0 0 0)
(-0.667078 0.0320634 0 0.0356138 0.215076 0 0 0 0)
(-0.321005 0.0139023 0 0.0118328 0.176571 0 0 0 0)
(-0.0641801 0.00405317 0 0.00309837 0.166196 0 0 0 0)
(0.00906013 0.00252582 0 0.00329112 0.161624 0 0 0 0)
(0.0237468 0.00281818 0 0.0032573 0.15726 0 0 0 0)
(0.0381147 0.00210163 0 0.00180152 0.153009 0 0 0 0)
(0.0635161 0.000776386 0 0.00110378 0.150762 0 0 0 0)
(0.0913216 0.000160556 0 0.00105373 0.150078 0 0 0 0)
(0.11048 -0.000249312 0 0.00134187 0.149813 0 0 0 0)
(0.116591 0.000176304 0 0.00189211 0.150809 0 0 0 0)
(0.115489 -3.6035e-05 0 0.00220067 0.149237 0 0 0 0)
(0.111888 2.0984e-05 0 0.00252833 0.150969 0 0 0 0)
(0.105975 -0.00049267 0 0.00270259 0.149225 0 0 0 0)
(0.101009 0.00013104 0 0.00277621 0.152628 0 0 0 0)
(0.0975464 -0.000575828 0 0.0027021 0.148899 0 0 0 0)
(0.0479264 -0.00116784 0 0.00318484 0.154644 0 0 0 0)
(-0.235643 0.000627029 0 0.00354423 0.153175 0 0 0 0)
(-0.798036 0.00129795 0 0.00778699 0.154395 0 0 0 0)
(-0.871602 0.00136541 0 0.00914175 0.151746 0 0 0 0)
(-0.445637 0.00105472 0 0.00181009 0.152783 0 0 0 0)
(-0.164803 -0.0199988 0 0.0218344 0.140885 0 0 0 0)
(-0.144746 -0.00769038 0 -0.0119218 0.197881 0 0 0 0)
(-0.116457 0.013226 0 -0.0379968 0.170042 0 0 0 0)
(0.159765 0.306612 0 -0.209635 0.477872 0 0 0 0)
(0.0794124 0.155393 0 -0.158578 -0.063201 0 0 0 0)
(0.171094 -0.0054497 0 -0.18972 -0.064319 0 0 0 0)
(0.344595 -0.121353 0 -0.271676 0.177262 0 0 0 0)
(0.245625 -0.0383191 0 -0.0988001 0.520006 0 0 0 0)
(-0.258513 0.0955784 0 -0.0782005 0.235558 0 0 0 0)
(-1.49792 0.0211424 0 0.0829064 -0.151032 0 0 0 0)
(-1.63816 -0.0632594 0 0.164074 0.261363 0 0 0 0)
(-0.63216 -0.0538496 0 0.0224839 0.350692 0 0 0 0)
(-0.577689 -0.0783788 0 -0.0722694 0.62614 0 0 0 0)
(-0.824425 -0.0463326 0 -0.0600585 0.918196 0 0 0 0)
(-0.914092 0.010606 0 0.0816197 1.02 0 0 0 0)
(-0.832224 0.0356589 0 0.223396 0.8761 0 0 0 0)
(-0.689255 0.045824 0 0.165297 0.664972 0 0 0 0)
(-0.602461 0.0468771 0 0.0778357 0.483609 0 0 0 0)
(-0.654855 0.0317377 0 0.0505779 0.370971 0 0 0 0)
(-0.780776 0.02358 0 0.041067 0.286696 0 0 0 0)
(-0.678995 0.0154825 0 0.021409 0.214289 0 0 0 0)
(-0.323647 0.00702262 0 0.00515598 0.176478 0 0 0 0)
(-0.0642262 0.002012 0 0.00117049 0.1665 0 0 0 0)
(0.0093089 0.00124591 0 0.00172736 0.162545 0 0 0 0)
(0.0236294 0.00143633 0 0.0020484 0.157817 0 0 0 0)
(0.0380406 0.00106005 0 0.00102983 0.152857 0 0 0 0)
(0.0636758 0.000372343 0 0.000988497 0.150593 0 0 0 0)
(0.091526 6.24778e-05 0 0.00132782 0.150189 0 0 0 0)
(0.110714 -0.000129774 0 0.00175887 0.150041 0 0 0 0)
(0.116827 9.023e-05 0 0.00226394 0.151046 0 0 0 0)
(0.115702 -1.50635e-05 0 0.00266711 0.149435 0 0 0 0)
(0.11208 1.42218e-05 0 0.00308125 0.151169 0 0 0 0)
(0.106141 -0.000244347 0 0.00344187 0.149363 0 0 0 0)
(0.101157 7.34533e-05 0 0.00379634 0.152863 0 0 0 0)
(0.0977523 -0.000274535 0 0.00414772 0.148912 0 0 0 0)
(0.0482069 -0.000576903 0 0.00491555 0.154842 0 0 0 0)
(-0.234739 0.000404035 0 0.00585884 0.152927 0 0 0 0)
(-0.796604 0.000802771 0 0.00982484 0.152687 0 0 0 0)
(-0.871469 0.000868755 0 0.0137468 0.148465 0 0 0 0)
(-0.443065 0.000208704 0 0.0126296 0.147993 0 0 0 0)
(-0.167243 -0.0106363 0 0.0319687 0.144839 0 0 0 0)
(-0.153904 -0.0035213 0 0.0117424 0.216739 0 0 0 0)
(-0.120066 0.00713488 0 -0.000637631 0.171275 0 0 0 0)
(0.194236 -2.73629e-13 0 1.57702e-12 0.806483 0 0 0 0)
(0.113214 -1.59209e-13 0 -5.99268e-13 0.099944 0 0 0 0)
(0.15388 -7.13844e-14 0 1.08026e-12 -0.261842 0 0 0 0)
(0.356412 -3.70883e-13 0 -1.17488e-12 0.137411 0 0 0 0)
(0.256407 -1.6662e-13 0 2.03436e-11 0.572457 0 0 0 0)
(-0.261693 3.48013e-12 0 1.53523e-11 0.400855 0 0 0 0)
(-1.47293 -3.4965e-12 0 6.92312e-12 -0.0846446 0 0 0 0)
(-1.63102 -1.06443e-11 0 8.40947e-12 0.255501 0 0 0 0)
(-0.639454 -3.09601e-12 0 -3.57905e-11 0.350264 0 0 0 0)
(-0.556715 5.67624e-12 0 -2.49406e-11 0.625717 0 0 0 0)
(-0.780667 8.42816e-12 0 -1.05463e-11 0.889118 0 0 0 0)
(-0.88285 2.97523e-12 0 5.32245e-13 0.944254 0 0 0 0)
(-0.867201 -3.00749e-12 0 1.2421e-11 0.816202 0 0 0 0)
(-0.758822 -2.39494e-12 0 1.03867e-11 0.699099 0 0 0 0)
(-0.629822 1.20901e-12 0 8.68545e-12 0.501162 0 0 0 0)
(-0.641721 8.07419e-13 0 2.6563e-11 0.376819 0 0 0 0)
(-0.765211 -1.26331e-12 0 4.93903e-11 0.282965 0 0 0 0)
(-0.677525 -2.99121e-13 0 4.23174e-11 0.214706 0 0 0 0)
(-0.326893 1.84401e-13 0 1.1597e-11 0.176523 0 0 0 0)
(-0.0651775 1.12937e-12 0 -7.85899e-12 0.166425 0 0 0 0)
(0.00931553 1.27146e-12 0 -2.78655e-11 0.16269 0 0 0 0)
(0.0235439 5.08345e-13 0 -3.22614e-11 0.15786 0 0 0 0)
(0.0378064 1.22216e-12 0 -1.35796e-11 0.152816 0 0 0 0)
(0.0636028 -9.76819e-13 0 2.43896e-11 0.150572 0 0 0 0)
(0.0915457 -4.08749e-13 0 3.17159e-11 0.150256 0 0 0 0)
(0.110753 1.31678e-12 0 1.85054e-11 0.150142 0 0 0 0)
(0.116855 -1.47601e-12 0 -1.29365e-11 0.151148 0 0 0 0)
(0.115727 9.68766e-13 0 -4.11011e-11 0.149522 0 0 0 0)
(0.112113 2.42023e-12 0 -6.82978e-11 0.151251 0 0 0 0)
(0.106183 -3.03425e-12 0 -4.37476e-11 0.149424 0 0 0 0)
(0.101215 -7.8695e-13 0 -4.51255e-11 0.152931 0 0 0 0)
(0.097872 2.67596e-12 0 -4.86856e-11 0.148919 0 0 0 0)
(0.0484242 -1.34918e-12 0 -7.74416e-12 0.154819 0 0 0 0)
(-0.234215 -3.12482e-12 0 3.46314e-11 0.152885 0 0 0 0)
(-0.795742 -7.46446e-13 0 1.89933e-11 0.152041 0 0 0 0)
(-0.870786 1.71252e-12 0 -1.35738e-11 0.147366 0 0 0 0)
(-0.440336 2.64066e-12 0 -1.85914e-11 0.146068 0 0 0 0)
(-0.165061 -2.07689e-12 0 3.66362e-12 0.145932 0 0 0 0)
(-0.154231 -1.82896e-12 0 1.30208e-11 0.219193 0 0 0 0)
(-0.120058 1.48001e-12 0 3.0057e-12 0.17014 0 0 0 0)
(0.159765 -0.306612 0 0.209635 0.477872 0 0 0 0)
(0.0794124 -0.155393 0 0.158578 -0.063201 0 0 0 0)
(0.171094 0.0054497 0 0.18972 -0.064319 0 0 0 0)
(0.344595 0.121353 0 0.271676 0.177262 0 0 0 0)
(0.245625 0.0383191 0 0.0988001 0.520006 0 0 0 0)
(-0.258513 -0.0955784 0 0.0782005 0.235558 0 0 0 0)
(-1.49792 -0.0211424 0 -0.0829064 -0.151032 0 0 0 0)
(-1.63816 0.0632594 0 -0.164074 0.261363 0 0 0 0)
(-0.63216 0.0538496 0 -0.0224839 0.350692 0 0 0 0)
(-0.577689 0.0783788 0 0.0722694 0.62614 0 0 0 0)
(-0.824425 0.0463326 0 0.0600585 0.918196 0 0 0 0)
(-0.914092 -0.010606 0 -0.0816197 1.02 0 0 0 0)
(-0.832224 -0.0356589 0 -0.223396 0.8761 0 0 0 0)
(-0.689255 -0.045824 0 -0.165297 0.664972 0 0 0 0)
(-0.602461 -0.0468771 0 -0.0778357 0.483609 0 0 0 0)
(-0.654855 -0.0317377 0 -0.0505779 0.370971 0 0 0 0)
(-0.780776 -0.02358 0 -0.041067 0.286696 0 0 0 0)
(-0.678995 -0.0154825 0 -0.021409 0.214289 0 0 0 0)
(-0.323647 -0.00702262 0 -0.00515598 0.176478 0 0 0 0)
(-0.0642262 -0.002012 0 -0.00117049 0.1665 0 0 0 0)
(0.0093089 -0.00124591 0 -0.00172736 0.162545 0 0 0 0)
(0.0236294 -0.00143633 0 -0.0020484 0.157817 0 0 0 0)
(0.0380406 -0.00106005 0 -0.00102983 0.152857 0 0 0 0)
(0.0636758 -0.000372343 0 -0.000988497 0.150593 0 0 0 0)
(0.091526 -6.24778e-05 0 -0.00132782 0.150189 0 0 0 0)
(0.110714 0.000129774 0 -0.00175887 0.150041 0 0 0 0)
(0.116827 -9.023e-05 0 -0.00226394 0.151046 0 0 0 0)
(0.115702 1.50635e-05 0 -0.00266711 0.149435 0 0 0 0)
(0.11208 -1.42218e-05 0 -0.00308125 0.151169 0 0 0 0)
(0.106141 0.000244347 0 -0.00344187 0.149363 0 0 0 0)
(0.101157 -7.34533e-05 0 -0.00379634 0.152863 0 0 0 0)
(0.0977523 0.000274535 0 -0.00414772 0.148912 0 0 0 0)
(0.0482069 0.000576903 0 -0.00491555 0.154842 0 0 0 0)
(-0.234739 -0.000404035 0 -0.00585884 0.152927 0 0 0 0)
(-0.796604 -0.000802771 0 -0.00982484 0.152687 0 0 0 0)
(-0.871469 -0.000868755 0 -0.0137468 0.148465 0 0 0 0)
(-0.443065 -0.000208704 0 -0.0126296 0.147993 0 0 0 0)
(-0.167243 0.0106363 0 -0.0319687 0.144839 0 0 0 0)
(-0.153904 0.0035213 0 -0.0117424 0.216739 0 0 0 0)
(-0.120066 -0.00713488 0 0.000637631 0.171275 0 0 0 0)
(0.318335 -0.4687 0 0.215947 -0.0528168 0 0 0 0)
(0.107421 -0.157728 0 0.263868 0.0192276 0 0 0 0)
(0.186782 0.069953 0 0.19726 0.169319 0 0 0 0)
(0.329963 0.169986 0 0.161693 0.266633 0 0 0 0)
(0.200123 0.0169587 0 -0.0166399 0.381941 0 0 0 0)
(-0.314553 -0.195211 0 -0.329863 0.0203725 0 0 0 0)
(-1.54341 0.00750696 0 -0.555178 -0.141015 0 0 0 0)
(-1.61345 0.145956 0 -0.450896 0.199336 0 0 0 0)
(-0.5707 0.106117 0 -0.176548 0.403306 0 0 0 0)
(-0.532703 0.165092 0 -0.165279 0.694617 0 0 0 0)
(-0.825434 0.114579 0 -0.184941 0.992663 0 0 0 0)
(-0.96531 -0.012246 0 -0.203741 1.07798 0 0 0 0)
(-0.891544 -0.103282 0 -0.196177 0.909505 0 0 0 0)
(-0.716477 -0.114179 0 -0.166058 0.645466 0 0 0 0)
(-0.596449 -0.0855275 0 -0.131762 0.481461 0 0 0 0)
(-0.631025 -0.0572838 0 -0.0965393 0.373812 0 0 0 0)
(-0.756726 -0.0455804 0 -0.0629632 0.290896 0 0 0 0)
(-0.667078 -0.0320634 0 -0.0356138 0.215076 0 0 0 0)
(-0.321005 -0.0139023 0 -0.0118328 0.176571 0 0 0 0)
(-0.0641801 -0.00405317 0 -0.00309837 0.166196 0 0 0 0)
(0.00906013 -0.00252582 0 -0.00329112 0.161624 0 0 0 0)
(0.0237468 -0.00281818 0 -0.0032573 0.15726 0 0 0 0)
(0.0381147 -0.00210163 0 -0.00180152 0.153009 0 0 0 0)
(0.0635161 -0.000776386 0 -0.00110378 0.150762 0 0 0 0)
(0.0913216 -0.000160556 0 -0.00105373 0.150078 0 0 0 0)
(0.11048 0.000249312 0 -0.00134187 0.149813 0 0 0 0)
(0.116591 -0.000176304 0 -0.00189211 0.150809 0 0 0 0)
(0.115489 3.6035e-05 0 -0.00220067 0.149237 0 0 0 0)
(0.111888 -2.0984e-05 0 -0.00252833 0.150969 0 0 0 0)
(0.105975 0.00049267 0 -0.00270259 0.149225 0 0 0 0)
(0.101009 -0.00013104 0 -0.00277621 0.152628 0 0 0 0)
(0.0975464 0.000575828 0 -0.0027021 0.148899 0 0 0 0)
(0.0479264 0.00116784 0 -0.00318484 0.154644 0 0 0 0)
(-0.235643 -0.000627029 0 -0.00354423 0.153175 0 0 0 0)
(-0.798036 -0.00129795 0 -0.00778699 0.154395 0 0 0 0)
(-0.871602 -0.00136541 0 -0.00914175 0.151746 0 0 0 0)
(-0.445637 -0.00105472 0 -0.00181009 0.152783 0 0 0 0)
(-0.164803 0.0199988 0 -0.0218344 0.140885 0 0 0 0)
(-0.144746 0.00769038 0 0.0119218 0.197881 0 0 0 0)
(-0.116457 -0.013226 0 0.0379968 0.170042 0 0 0 0)
(0.0255352 0.0055924 0 0.0428082 0.440616 0 0 0 0)
(0.035306 -0.0133526 0 -0.00572477 0.66737 0 0 0 0)
(0.0888641 0.0860587 0 -0.075926 0.536085 0 0 0 0)
(0.227341 0.198493 0 -0.24623 0.514955 0 0 0 0)
(-0.0101046 -0.0914556 0 -0.562802 0.477433 0 0 0 0)
(-0.531526 -0.308415 0 -0.963997 0.16338 0 0 0 0)
(-1.52124 0.0579908 0 -1.19386 0.112289 0 0 0 0)
(-1.42924 0.309079 0 -0.6752 0.110644 0 0 0 0)
(-0.524064 0.304092 0 -0.523935 0.377957 0 0 0 0)
(-0.634969 0.347804 0 -0.72972 0.70251 0 0 0 0)
(-0.847385 0.207895 0 -0.824038 0.948578 0 0 0 0)
(-0.86192 -0.0608723 0 -0.68577 0.924968 0 0 0 0)
(-0.739999 -0.228772 0 -0.413744 0.771095 0 0 0 0)
(-0.617373 -0.235289 0 -0.207559 0.601651 0 0 0 0)
(-0.565803 -0.172589 0 -0.11464 0.471407 0 0 0 0)
(-0.639253 -0.121736 0 -0.0900815 0.36935 0 0 0 0)
(-0.770368 -0.0977127 0 -0.0947636 0.280464 0 0 0 0)
(-0.6607 -0.0680239 0 -0.0748832 0.208922 0 0 0 0)
(-0.306306 -0.0297289 0 -0.026473 0.174497 0 0 0 0)
(-0.0589215 -0.00902819 0 -0.00750212 0.164856 0 0 0 0)
(0.00949684 -0.00537125 0 -0.00572401 0.160067 0 0 0 0)
(0.0244281 -0.00524253 0 -0.00579214 0.156129 0 0 0 0)
(0.0393057 -0.00393233 0 -0.00345288 0.152798 0 0 0 0)
(0.0643294 -0.00174327 0 -0.000817025 0.150755 0 0 0 0)
(0.0916129 -0.000544013 0 0.000500774 0.149888 0 0 0 0)
(0.110459 0.000449904 0 0.000778215 0.14948 0 0 0 0)
(0.116561 -0.000352185 0 0.000477439 0.150433 0 0 0 0)
(0.115549 9.10008e-05 0 0.000624589 0.148884 0 0 0 0)
(0.111988 -1.3643e-05 0 0.00072565 0.150586 0 0 0 0)
(0.106177 0.000997798 0 0.00107074 0.14892 0 0 0 0)
(0.101327 -0.000211621 0 0.00158894 0.152101 0 0 0 0)
(0.097734 0.00119078 0 0.00243157 0.148685 0 0 0 0)
(0.048003 0.00257588 0 0.00252193 0.153889 0 0 0 0)
(-0.236581 -0.000302418 0 0.00279701 0.153243 0 0 0 0)
(-0.798459 -0.00112662 0 -2.97271e-05 0.15504 0 0 0 0)
(-0.867565 -0.00130523 0 0.00298829 0.153554 0 0 0 0)
(-0.448054 -0.00604303 0 0.0134974 0.15656 0 0 0 0)
(-0.16145 0.028099 0 -0.00328636 0.141583 0 0 0 0)
(-0.126963 0.0169903 0 0.013732 0.174501 0 0 0 0)
(-0.107883 -0.0175542 0 0.0324121 0.167595 0 0 0 0)
(0.0190125 -0.0262975 0 -0.318494 0.947626 0 0 0 0)
(0.0316744 -0.143149 0 -0.365401 0.954198 0 0 0 0)
(0.00752886 -0.0855566 0 -0.333166 0.8719 0 0 0 0)
(-0.0841793 0.0981797 0 -0.416755 0.718486 0 0 0 0)
(-0.378813 -0.263696 0 -0.818667 0.503999 0 0 0 0)
(-0.806313 -0.486375 0 -0.973707 0.375525 0 0 0 0)
(-1.277 -0.0703827 0 -1.15385 0.405486 0 0 0 0)
(-1.06666 0.314492 0 -0.592054 0.338071 0 0 0 0)
(-0.648244 0.5703 0 -0.810711 0.539022 0 0 0 0)
(-0.767055 0.616988 0 -1.02086 0.834331 0 0 0 0)
(-0.771312 0.278908 0 -1.01428 0.831896 0 0 0 0)
(-0.625376 -0.157201 0 -0.774834 0.684534 0 0 0 0)
(-0.511986 -0.34755 0 -0.522766 0.562771 0 0 0 0)
(-0.481392 -0.338027 0 -0.354254 0.470117 0 0 0 0)
(-0.499677 -0.262696 0 -0.254869 0.396387 0 0 0 0)
(-0.607459 -0.206723 0 -0.204716 0.3248 0 0 0 0)
(-0.734765 -0.17222 0 -0.178506 0.250247 0 0 0 0)
(-0.604691 -0.114893 0 -0.115622 0.19214 0 0 0 0)
(-0.263956 -0.047879 0 -0.0373725 0.169493 0 0 0 0)
(-0.0470054 -0.015291 0 -0.0117503 0.162325 0 0 0 0)
(0.0104738 -0.00940986 0 -0.00910802 0.158047 0 0 0 0)
(0.02557 -0.00852234 0 -0.00912678 0.154288 0 0 0 0)
(0.0422702 -0.00629828 0 -0.00601923 0.151529 0 0 0 0)
(0.0668899 -0.00306232 0 -0.00207354 0.149712 0 0 0 0)
(0.0927026 -0.00118382 0 0.0002715 0.148873 0 0 0 0)
(0.11047 0.000666729 0 0.000916528 0.148349 0 0 0 0)
(0.11646 -0.000655533 0 0.000512135 0.14924 0 0 0 0)
(0.115696 0.000153941 0 0.000701938 0.147751 0 0 0 0)
(0.112264 9.31956e-06 0 0.000788878 0.149406 0 0 0 0)
(0.106698 0.00168199 0 0.00123832 0.14791 0 0 0 0)
(0.10215 -0.000313796 0 0.00192305 0.150753 0 0 0 0)
(0.0983449 0.00196876 0 0.00310622 0.147911 0 0 0 0)
(0.0482375 0.00480435 0 0.00335254 0.152214 0 0 0 0)
(-0.237599 0.000308421 0 0.00344227 0.1525 0 0 0 0)
(-0.797625 -0.00108983 0 0.00102256 0.153565 0 0 0 0)
(-0.860731 6.65607e-05 0 0.00621056 0.152147 0 0 0 0)
(-0.450387 -0.00991519 0 0.0155061 0.15825 0 0 0 0)
(-0.166375 0.0329444 0 0.00328762 0.147161 0 0 0 0)
(-0.119881 0.027769 0 0.00377772 0.163331 0 0 0 0)
(-0.103053 -0.0175605 0 0.00956859 0.164519 0 0 0 0)
(-0.0196662 0.0119254 0 -0.618634 0.58133 0 0 0 0)
(0.0211675 -0.0863253 0 -0.624968 0.60671 0 0 0 0)
(0.0393771 -0.141082 0 -0.612258 0.641891 0 0 0 0)
(-0.240506 -0.156029 0 -0.666895 0.544417 0 0 0 0)
(-0.546803 -0.421945 0 -0.832518 0.362441 0 0 0 0)
(-0.854524 -0.403345 0 -0.880235 0.481509 0 0 0 0)
(-1.15347 0.0218993 0 -0.942951 0.64479 0 0 0 0)
(-1.09857 0.437759 0 -0.800601 0.780601 0 0 0 0)
(-0.937273 0.782306 0 -1.07123 1.01285 0 0 0 0)
(-0.831139 0.630028 0 -1.16408 0.972145 0 0 0 0)
(-0.610309 0.063545 0 -1.00499 0.67548 0 0 0 0)
(-0.388276 -0.320211 0 -0.735717 0.486329 0 0 0 0)
(-0.334713 -0.435393 0 -0.541848 0.388036 0 0 0 0)
(-0.359218 -0.395623 0 -0.405978 0.339856 0 0 0 0)
(-0.421703 -0.312622 0 -0.309913 0.309314 0 0 0 0)
(-0.565666 -0.262561 0 -0.260703 0.265818 0 0 0 0)
(-0.684513 -0.225548 0 -0.232804 0.209432 0 0 0 0)
(-0.524699 -0.145841 0 -0.141616 0.172545 0 0 0 0)
(-0.206212 -0.05846 0 -0.043701 0.163886 0 0 0 0)
(-0.0316848 -0.0200576 0 -0.0151548 0.159286 0 0 0 0)
(0.0120249 -0.0131161 0 -0.0126961 0.155456 0 0 0 0)
(0.0274045 -0.0115239 0 -0.0119884 0.151693 0 0 0 0)
(0.0461025 -0.00834129 0 -0.00815325 0.149223 0 0 0 0)
(0.0703914 -0.00430233 0 -0.00346347 0.147728 0 0 0 0)
(0.0944943 -0.00185801 0 -0.000401435 0.147015 0 0 0 0)
(0.110691 0.00080378 0 0.000621411 0.146461 0 0 0 0)
(0.116354 -0.000928545 0 0.000176645 0.147325 0 0 0 0)
(0.115816 0.000250964 0 0.000396287 0.145951 0 0 0 0)
(0.112505 0.000139395 0 0.000359685 0.147552 0 0 0 0)
(0.10727 0.00229568 0 0.00078109 0.146338 0 0 0 0)
(0.103127 -0.000209864 0 0.00147799 0.148775 0 0 0 0)
(0.0991115 0.00259818 0 0.00283393 0.146746 0 0 0 0)
(0.0483269 0.00699806 0 0.00317001 0.149919 0 0 0 0)
(-0.238826 0.000999457 0 0.00269258 0.151143 0 0 0 0)
(-0.795792 -0.00146697 0 0.000106556 0.151685 0 0 0 0)
(-0.853608 0.00320928 0 0.00636192 0.150458 0 0 0 0)
(-0.450871 -0.0108478 0 0.0143073 0.159297 0 0 0 0)
(-0.172752 0.0329958 0 0.005892 0.150468 0 0 0 0)
(-0.120911 0.033717 0 0.00176951 0.158388 0 0 0 0)
(-0.102303 -0.0164096 0 0.00138742 0.16016 0 0 0 0)
(0.0129087 -0.00183987 0 -0.972238 0.464203 0 0 0 0)
(0.0378187 -0.0847904 0 -0.94315 0.40604 0 0 0 0)
(-0.0328731 -0.145584 0 -1.06373 0.414053 0 0 0 0)
(-0.29643 -0.171109 0 -1.2361 0.364716 0 0 0 0)
(-0.584395 -0.324317 0 -1.23822 0.397146 0 0 0 0)
(-0.91273 -0.214292 0 -1.33377 0.684942 0 0 0 0)
(-1.20026 0.217833 0 -1.39186 0.907855 0 0 0 0)
(-1.19028 0.669171 0 -1.41553 1.15363 0 0 0 0)
(-0.998505 0.75488 0 -1.39714 1.16307 0 0 0 0)
(-0.703219 0.291882 0 -1.21289 0.737567 0 0 0 0)
(-0.358527 -0.189242 0 -0.880939 0.440245 0 0 0 0)
(-0.179076 -0.434193 0 -0.650594 0.285427 0 0 0 0)
(-0.194238 -0.488697 0 -0.511811 0.22935 0 0 0 0)
(-0.257891 -0.413886 0 -0.406008 0.235918 0 0 0 0)
(-0.359684 -0.334042 0 -0.33189 0.236796 0 0 0 0)
(-0.533153 -0.302972 0 -0.304646 0.205098 0 0 0 0)
(-0.620009 -0.262101 0 -0.273764 0.161747 0 0 0 0)
(-0.422464 -0.158783 0 -0.148726 0.152263 0 0 0 0)
(-0.142094 -0.0606555 0 -0.0456409 0.157887 0 0 0 0)
(-0.017128 -0.0234145 0 -0.0195972 0.155937 0 0 0 0)
(0.013525 -0.0167266 0 -0.0172133 0.152139 0 0 0 0)
(0.0299477 -0.0145289 0 -0.0148133 0.148536 0 0 0 0)
(0.0504852 -0.0101191 0 -0.00989588 0.146392 0 0 0 0)
(0.0743598 -0.00519008 0 -0.0044231 0.145278 0 0 0 0)
(0.0966389 -0.00240545 0 -0.000723033 0.144766 0 0 0 0)
(0.111027 0.000965749 0 0.000756176 0.144281 0 0 0 0)
(0.116243 -0.00114662 0 0.000515651 0.145148 0 0 0 0)
(0.115872 0.000372781 0 0.000998759 0.143873 0 0 0 0)
(0.112635 0.00038207 0 0.00102989 0.145411 0 0 0 0)
(0.107776 0.00285999 0 0.00158941 0.144489 0 0 0 0)
(0.104129 7.95341e-05 0 0.00243891 0.146528 0 0 0 0)
(0.0999754 0.00307123 0 0.00406583 0.145212 0 0 0 0)
(0.0481013 0.00904174 0 0.00482214 0.147301 0 0 0 0)
(-0.240551 0.00201053 0 0.00409617 0.149111 0 0 0 0)
(-0.794089 -0.0017506 0 0.00255039 0.149339 0 0 0 0)
(-0.847047 0.00740134 0 0.0106583 0.148332 0 0 0 0)
(-0.45084 -0.00990551 0 0.0195363 0.157227 0 0 0 0)
(-0.178457 0.0320684 0 0.0147772 0.149793 0 0 0 0)
(-0.124222 0.0371087 0 0.0110706 0.154921 0 0 0 0)
(-0.103421 -0.0158528 0 0.00820842 0.156367 0 0 0 0)
(0.00836395 -0.0441224 0 -1.32381 0.461616 0 0 0 0)
(-0.0669938 -0.134652 0 -1.41766 0.396182 0 0 0 0)
(-0.242921 -0.180904 0 -1.60237 0.403412 0 0 0 0)
(-0.408659 -0.172321 0 -1.74672 0.403525 0 0 0 0)
(-0.640918 -0.113364 0 -1.84671 0.522135 0 0 0 0)
(-1.00258 0.0887928 0 -2.03424 0.856451 0 0 0 0)
(-1.23226 0.473548 0 -2.04463 1.1583 0 0 0 0)
(-1.10365 0.683696 0 -1.82947 1.24777 0 0 0 0)
(-0.741998 0.381369 0 -1.4565 0.830862 0 0 0 0)
(-0.333713 -0.0665152 0 -1.03212 0.416038 0 0 0 0)
(-0.0684647 -0.372154 0 -0.699919 0.187227 0 0 0 0)
(-0.0325706 -0.523437 0 -0.551974 0.0968003 0 0 0 0)
(-0.0990214 -0.483101 0 -0.463437 0.122569 0 0 0 0)
(-0.18584 -0.388448 0 -0.38772 0.168425 0 0 0 0)
(-0.324027 -0.342321 0 -0.346107 0.175051 0 0 0 0)
(-0.509654 -0.334881 0 -0.344379 0.143668 0 0 0 0)
(-0.534263 -0.276463 0 -0.288582 0.121303 0 0 0 0)
(-0.304872 -0.149561 0 -0.131677 0.141643 0 0 0 0)
(-0.0817785 -0.0549195 0 -0.0411719 0.154163 0 0 0 0)
(-0.00429099 -0.0255971 0 -0.0225192 0.152893 0 0 0 0)
(0.0166348 -0.0202482 0 -0.0204299 0.148548 0 0 0 0)
(0.0344559 -0.0170617 0 -0.0167465 0.145176 0 0 0 0)
(0.0561149 -0.0114803 0 -0.0110593 0.143489 0 0 0 0)
(0.0792307 -0.00586871 0 -0.00535063 0.142684 0 0 0 0)
(0.0994852 -0.00281904 0 -0.00160479 0.142385 0 0 0 0)
(0.111884 0.00117148 0 -0.000146414 0.142012 0 0 0 0)
(0.116588 -0.00132178 0 -0.000506527 0.142855 0 0 0 0)
(0.116311 0.000503951 0 -5.47995e-05 0.141643 0 0 0 0)
(0.113074 0.000733092 0 -0.000296332 0.143154 0 0 0 0)
(0.108628 0.00337251 0 7.08327e-05 0.142522 0 0 0 0)
(0.105513 0.000487094 0 0.000694189 0.1442 0 0 0 0)
(0.101408 0.00334315 0 0.00215564 0.143456 0 0 0 0)
(0.0483561 0.0107552 0 0.00291871 0.144597 0 0 0 0)
(-0.241015 0.00296286 0 0.0013766 0.146727 0 0 0 0)
(-0.789468 -0.0022179 0 -0.000638438 0.146857 0 0 0 0)
(-0.83724 0.010811 0 0.00686012 0.146213 0 0 0 0)
(-0.446902 -0.00943967 0 0.0156184 0.155403 0 0 0 0)
(-0.18091 0.0307733 0 0.0116253 0.148421 0 0 0 0)
(-0.12724 0.0400517 0 0.00773399 0.152799 0 0 0 0)
(-0.105061 -0.0150163 0 0.00223895 0.153578 0 0 0 0)
(-0.0775297 -0.0648941 0 -1.79115 0.32059 0 0 0 0)
(-0.230609 -0.140878 0 -1.998 0.342206 0 0 0 0)
(-0.34996 -0.138509 0 -2.12384 0.348883 0 0 0 0)
(-0.531887 -0.0567021 0 -2.277 0.480832 0 0 0 0)
(-0.861468 0.11214 0 -2.48482 0.756239 0 0 0 0)
(-1.10345 0.39874 0 -2.52861 1.07825 0 0 0 0)
(-1.00294 0.594925 0 -2.19193 1.16712 0 0 0 0)
(-0.623541 0.353639 0 -1.62177 0.812903 0 0 0 0)
(-0.230142 -0.0466102 0 -1.0962 0.35243 0 0 0 0)
(0.0258487 -0.328348 0 -0.703304 0.0872509 0 0 0 0)
(0.104155 -0.496872 0 -0.537961 -0.0352801 0 0 0 0)
(0.0488073 -0.4965 0 -0.469598 -0.00164345 0 0 0 0)
(-0.0359567 -0.419677 0 -0.411385 0.0764767 0 0 0 0)
(-0.144828 -0.363312 0 -0.367523 0.116887 0 0 0 0)
(-0.317919 -0.357899 0 -0.364358 0.109322 0 0 0 0)
(-0.47772 -0.354766 0 -0.372587 0.0806818 0 0 0 0)
(-0.415041 -0.264052 0 -0.268128 0.0951576 0 0 0 0)
(-0.184051 -0.127118 0 -0.106416 0.138157 0 0 0 0)
(-0.0369056 -0.0498151 0 -0.0408058 0.150926 0 0 0 0)
(0.00285984 -0.0288246 0 -0.0287823 0.148874 0 0 0 0)
(0.0190877 -0.0241633 0 -0.0247174 0.14432 0 0 0 0)
(0.0389775 -0.0194045 0 -0.0187874 0.141884 0 0 0 0)
(0.0614666 -0.0125198 0 -0.0117635 0.140669 0 0 0 0)
(0.0834705 -0.00625345 0 -0.00519532 0.140165 0 0 0 0)
(0.101654 -0.00305334 0 -0.000819784 0.140013 0 0 0 0)
(0.112085 0.00141822 0 0.00117791 0.139709 0 0 0 0)
(0.116331 -0.00150228 0 0.00135146 0.140463 0 0 0 0)
(0.116075 0.00066093 0 0.00230505 0.13924 0 0 0 0)
(0.112756 0.00122891 0 0.002331 0.140723 0 0 0 0)
(0.10873 0.00386776 0 0.00297001 0.140306 0 0 0 0)
(0.106138 0.000979451 0 0.00373063 0.141654 0 0 0 0)
(0.102119 0.00345357 0 0.00521732 0.141251 0 0 0 0)
(0.0473506 0.012194 0 0.00618491 0.1417 0 0 0 0)
(-0.243979 0.00418901 0 0.004697 0.14385 0 0 0 0)
(-0.788805 -0.00224586 0 0.00435214 0.144306 0 0 0 0)