/*--------------------------------*- C++ -*----------------------------------*\
| =========                 |                                                 |
| \\      /  F ield         | OpenFOAM: The Open Source CFD Toolbox           |
|  \\    /   O peration     | Version:  v1912                                 |
|   \\  /    A nd           | Website:  www.openfoam.com                      |
|    \\/     M anipulation  |                                                 |
\*---------------------------------------------------------------------------*/
FoamFile
{
    version     2.0;
    format      ascii;
    class       volScalarField;
    location    "4.04";
    object      rho;
}
// * * * * * * * * * * * * * * * * * * * * * * * * * * * * * * * * * * * * * //

dimensions      [1 -3 0 0 0 0 0];


internalField   nonuniform List<scalar> 
1900
(
35722.3
18159.1
15944.9
15562.7
15313.1
15106.2
14918.9
14734.8
14549.4
14401.4
35722.4
18159.2
15944.8
15563
15314
15108.1
14920.6
14733.6
14521.8
14338.3
35722.7
18159.2
15944.6
15562.7
15313.2
15106.5
14918.3
14732.3
14525.1
14337.8
35722.4
18159.2
15944.8
15563
15314
15108.1
14920.6
14733.6
14521.8
14338.3
35722.3
18159.1
15944.9
15562.7
15313.1
15106.2
14918.9
14734.8
14549.4
14401.4
14272
14275.7
14321.6
14386.7
14198.1
14197.6
14166.6
14198.2
14236.7
14102.7
14191.9
14168.7
14205.2
14250.9
14121.3
14197.6
14166.6
14198.2
14236.7
14102.7
14272
14275.7
14321.6
14386.7
14198.1
13848
12985.7
12400.3
11694.9
10871.6
13841.5
13032.5
12452.4
11758.8
10748.9
13839.6
13046.3
12445.8
11714.3
10657.5
13841.5
13032.5
12452.4
11758.8
10748.9
13848
12985.7
12400.3
11694.9
10871.6
9064.7
5393.97
5583.42
5878.08
5768.59
5573.15
5295.91
4995.83
4838.21
4719.51
4648.07
4587.78
4537.89
4496.94
4464.01
4437.52
4416.34
4399.37
4386.08
4374.83
4365.63
4357.69
4349.86
4342.49
4335.25
4328.48
4322.19
4316.09
4309.12
4299.64
4284.91
4265.1
4237.94
4212.5
4180.65
4155.08
4116.74
4096.33
5028.33
28111.6
8933.88
5455.21
5616.29
5922.15
5797.87
5588.38
5303.38
4997.46
4840.01
4720.02
4648.53
4588.08
4538.13
4497.11
4464.15
4437.65
4416.46
4399.49
4386.19
4374.93
4365.73
4357.78
4349.94
4342.56
4335.32
4328.54
4322.24
4316.14
4309.16
4299.66
4284.93
4265.1
4237.96
4212.63
4180.84
4155.62
4117.31
4097.1
5025.5
28111.8
8813.75
5765.91
5799.59
5981.13
5818.05
5595.89
5306.87
4998.93
4840.65
4720.44
4648.84
4588.27
4538.27
4497.21
4464.24
4437.72
4416.53
4399.56
4386.25
4374.99
4365.78
4357.83
4349.99
4342.61
4335.36
4328.58
4322.29
4316.19
4309.23
4299.77
4285.09
4265.34
4238.37
4213.31
4181.99
4157.44
4120.06
4100.57
5026.26
28362.9
8933.88
5455.21
5616.29
5922.15
5797.87
5588.38
5303.38
4997.46
4840.01
4720.02
4648.53
4588.08
4538.13
4497.11
4464.15
4437.65
4416.46
4399.49
4386.19
4374.93
4365.73
4357.78
4349.94
4342.56
4335.32
4328.54
4322.24
4316.14
4309.16
4299.66
4284.93
4265.1
4237.96
4212.63
4180.84
4155.62
4117.31
4097.1
5025.5
28111.8
9064.7
5393.97
5583.42
5878.08
5768.59
5573.15
5295.91
4995.83
4838.21
4719.51
4648.07
4587.78
4537.89
4496.94
4464.01
4437.52
4416.34
4399.37
4386.08
4374.83
4365.63
4357.69
4349.86
4342.49
4335.25
4328.48
4322.19
4316.09
4309.12
4299.64
4284.91
4265.1
4237.94
4212.5
4180.65
4155.08
4116.74
4096.33
5028.33
28111.6
11688.5
5135.5
5281.27
5651.78
5662.62
5511.29
5256.56
4984.43
4827.9
4714.96
4644.48
4585
4535.67
4495.16
4462.51
4436.19
4415.12
4398.24
4385.02
4373.82
4364.67
4356.76
4348.95
4341.57
4334.32
4327.51
4321.18
4315.03
4307.98
4298.46
4283.68
4263.93
4236.8
4210.99
4179.31
4152.67
4114.76
4092.69
5035.05
29064.6
15475.8
4584.95
4935.89
5329.92
5438.7
5347.26
5160.25
4948.94
4801.53
4704.91
4635.98
4578.44
4530.5
4491.04
4459
4433.03
4412.2
4395.52
4382.47
4371.41
4362.38
4354.55
4346.78
4339.43
4332.17
4325.33
4318.94
4312.68
4305.51
4295.93
4281.09
4261.44
4234.44
4207.77
4175.95
4147.16
4108.87
4083.65
4995.24
27838.7
17746.6
4332
4733.45
5108.91
5218.77
5170.37
5043.24
4889.75
4768.58
4687.27
4622.68
4568.38
4522.66
4484.68
4453.51
4428.07
4407.63
4391.26
4378.49
4367.65
4358.79
4351.09
4343.4
4336.08
4328.8
4321.91
4315.4
4309
4301.59
4291.93
4276.96
4257.42
4230.64
4202.67
4170.4
4138.9
4099.64
4071.3
4934.88
27378.4
19388.1
4273.13
4594.24
4903.38
5025.83
5006.41
4924.45
4821.83
4730.7
4663.71
4605.5
4555.59
4512.74
4476.52
4446.43
4421.71
4401.81
4385.89
4373.5
4362.95
4354.33
4346.81
4339.2
4331.91
4324.61
4317.64
4310.97
4304.36
4296.63
4286.89
4271.78
4252.3
4225.66
4196.12
4162.88
4128.62
4087.83
4057.73
4891.71
26894.4
19732.6
4241.61
4504.35
4730.77
4849.92
4860.43
4816.75
4752.76
4690.06
4635.67
4585.54
4540.57
4500.99
4466.77
4437.96
4414.15
4394.98
4379.65
4367.76
4357.58
4349.26
4341.95
4334.42
4327.17
4319.82
4312.72
4305.8
4298.9
4290.68
4280.79
4265.41
4245.83
4219.01
4187.4
4152.35
4115.05
4072.79
4042.05
4829.25
26416.6
19856.8
4203.74
4398.13
4585.18
4699.57
4735.64
4722.46
4690.48
4649.04
4606.37
4564.15
4524.24
4487.86
4455.74
4428.38
4405.67
4387.4
4372.82
4361.55
4351.82
4343.86
4336.78
4329.35
4322.1
4314.65
4307.37
4300.12
4292.87
4284.14
4274.16
4258.53
4238.62
4211.52
4177.72
4140.56
4100.39
4056.6
4026.11
4752.53
25669.3
20268.3
4157.8
4305.64
4467.05
4576.81
4630.23
4640.48
4631.55
4607.15
4575.55
4541.05
4506.2
4473.13
4443.34
4417.66
4396.3
4379.14
4365.49
4354.98
4345.78
4338.22
4331.41
4324.03
4316.74
4309.11
4301.54
4293.8
4286.05
4276.48
4266.31
4250.29
4229.7
4201.97
4165.71
4125.64
4082.61
4037.66
4008.51
4649.22
24854
19551.6
4107.95
4215.56
4359.29
4473.91
4541.31
4573.22
4581.69
4569.47
4547.6
4519.19
4488.33
4457.92
4430.08
4405.94
4385.98
4370.06
4357.47
4347.81
4339.2
4332.09
4325.55
4318.22
4310.88
4303.08
4295.25
4287.11
4279.14
4269.06
4259.07
4243.19
4221.95
4194.02
4155.13
4111.81
4065.19
4018.32
3989.36
4498.88
23758.2
19190.6
4059.62
4144.81
4275.08
4391.62
4466.18
4511.7
4532.91
4530.31
4516.88
4493.87
4467
4439.4
4413.9
4391.71
4373.48
4359.06
4347.72
4339.04
4331.09
4324.48
4318.21
4310.87
4303.39
4295.29
4287.05
4278.17
4269.62
4258.63
4248.68
4232.81
4210.38
4182.13
4140.96
4094.23
4044.5
3997.24
3970.2
4336.05
22572.5
18580.5
4005.28
4071.07
4189.74
4309.85
4394.21
4453.66
4486.84
4494.55
4488.55
4470.49
4446.75
4420.86
4396.68
4375.66
4358.68
4345.49
4335.25
4327.45
4320.11
4314.01
4308.08
4300.86
4293.48
4285.39
4277.19
4268.23
4259.87
4248.86
4238.65
4222.68
4197.76
4167.42
4121.22
4068.09
4011.42
3962.25
3934.73
4148.75
21221.9
17786.6
3953.12
4016.69
4126.41
4246.77
4333.83
4401.81
4441.8
4456.8
4456.24
4440.8
4419.42
4395.03
4372.68
4353.24
4337.87
4326.2
4317.22
4310.37
4303.67
4298.11
4292.51
4285.35
4278.04
4269.88
4261.69
4252.5
4244.2
4233.25
4223.25
4208.32
4182.44
4151.48
4102.24
4043.38
3981.18
3930.73
3904.2
4011.77
19761.6
16840
3894.25
3952.93
4062.46
4171.03
4261.66
4337.73
4384.26
4407.67
4413.17
4401.64
4384.85
4363.44
4343.84
4326.51
4313.02
4302.86
4295.07
4289.04
4282.87
4277.82
4272.61
4265.61
4258.43
4250.16
4241.54
4231.61
4222.43
4210.03
4197.56
4181.19
4151.17
4117.81
4062.51
3996.18
3926
3872.43
3846.42
3896.96
18183.8
15765.4
3819.5
3875
3986.94
4091.97
4188.51
4273.15
4325.66
4358.23
4366.51
4357.72
4344.04
4324.4
4307.47
4292.48
4281.15
4272.64
4265.96
4260.6
4254.86
4250.32
4245.65
4239.03
4232.22
4223.98
4215.19
4204.5
4194.75
4181.33
4166.97
4150.07
4116.23
4079.11
4015.17
3939.74
3860.42
3801.4
3772.51
3799.7
16563.5
14612.6
3734.24
3784.9
3887.68
3990.42
4097.46
4185.53
4248.44
4290.77
4302.31
4298.58
4290.53
4274.99
4263.14
4252.7
4245.43
4240.34
4236.44
4233.28
4228.77
4224.5
4219.47
4211.72
4203.43
4193.2
4182.14
4168.87
4156.6
4140.97
4120.96
4100.17
4058.54
4013.48
3939.54
3854.83
3769.97
3706.31
3676.04
3701.04
14934.3
13441.9
3635.24
3681.05
3779.05
3879.41
3990.37
4082.12
4156.69
4210.37
4229.29
4234.84
4230.93
4220.87
4214.66
4208.64
4205.24
4202.96
4200.96
4198.86
4194.95
4191.32
4186.83
4179.06
4170.27
4158.65
4145.6
4129.58
4113.74
4094
4067.45
4041.02
3992.45
3939.58
3856.47
3764.06
3672.96
3605.15
3572.08
3596.27
13403.5
12220.1
3549.25
3591.19
3680.69
3782.53
3895.56
3993.52
4078.9
4128.55
4151.65
4166.73
4168.3
4163.64
4163.87
4162.69
4163.96
4165.56
4166.95
4168.13
4166.1
4162.23
4156.51
4146.53
4135.29
4120.81
4105.01
4086.43
4067.61
4045.98
4014.46
3984.19
3929.34
3869.1
3780.34
3681.72
3588.95
3518.08
3487.73
3508.26
11918.1
11327.8
3498.15
3526.5
3608.08
3702.44
3814.39
3917.95
4011.33
4059.39
4090.2
4107.69
4110.73
4108.11
4111.18
4113.25
4117.65
4121.96
4125.21
4128.14
4126.99
4123.17
4117.49
4106.59
4093.98
4077.96
4060.73
4041.54
4021.81
3999.81
3966.34
3935.9
3880.95
3818.67
3726.85
3624.3
3528.63
3459.04
3432.7
3458.55
10868.3
10216.8
3506.81
3525.2
3582.2
3667.68
3774.8
3878.21
3972.82
4020.42
4050.69
4067.46
4070.94
4071.66
4076.07
4079.43
4086.08
4093.35
4100.18
4106.71
4107.55
4103.59
4096.07
4082.33
4067.55
4050.17
4032.93
4014.78
3995.9
3976.42
3943.06
3913.72
3859.13
3795.49
3703.51
3599.38
3505.57
3440.53
3422.29
3465.99
9609.16
17273.4
3980.68
3662.76
3667.86
3736.55
3833.86
3931.98
4040.21
4158.75
4303.66
4494.45
4660.51
4811.5
4919.29
5002.83
5057.27
5097.03
5109.8
5126.89
5100.05
5095.97
5117.9
5094.52
5075.21
5025.4
4963
4872.1
4744.65
4604.63
4386.62
4207.77
4029.37
3890.43
3766.3
3650.16
3549.13
3485
3489.02
3872.88
16566.8
173127
17717
10786.6
12099.1
13223.6
14765.3
16304.2
17917.8
19449.2
20929.8
22288.9
23560.3
24736.2
25755.1
26606.7
27296.7
27800
28262.5
28495.1
28642.2
28632.5
28450.6
28207.4
27677.4
27187.9
26391.1
25551.1
24417.4
23204.4
21832.1
20372.6
18804.3
17167.6
15476
13854.4
12249.8
11096.1
9709.92
16157
160586
173127
17717
10786.6
12099.1
13223.6
14765.3
16304.2
17917.8
19449.2
20929.8
22288.9
23560.3
24736.2
25755.1
26606.7
27296.7
27800
28262.5
28495.1
28642.2
28632.5
28450.6
28207.4
27677.4
27187.9
26391.1
25551.1
24417.4
23204.4
21832.1
20372.6
18804.3
17167.6
15476
13854.4
12249.8
11096.1
9709.92
16157
160586
17273.4
3980.68
3662.76
3667.86
3736.55
3833.86
3931.98
4040.21
4158.75
4303.66
4494.45
4660.51
4811.5
4919.29
5002.83
5057.27
5097.03
5109.8
5126.89
5100.05
5095.97
5117.9
5094.52
5075.21
5025.4
4963
4872.1
4744.65
4604.63
4386.62
4207.77
4029.37
3890.43
3766.3
3650.16
3549.13
3485
3489.02
3872.88
16566.8
10216.8
3506.81
3525.2
3582.2
3667.68
3774.8
3878.21
3972.82
4020.42
4050.69
4067.46
4070.94
4071.66
4076.07
4079.43
4086.08
4093.35
4100.18
4106.71
4107.55
4103.59
4096.07
4082.33
4067.55
4050.17
4032.93
4014.78
3995.9
3976.42
3943.06
3913.72
3859.13
3795.49
3703.51
3599.38
3505.57
3440.53
3422.29
3465.99
9609.16
11327.8
3498.15
3526.5
3608.08
3702.44
3814.39
3917.95
4011.33
4059.39
4090.2
4107.69
4110.73
4108.11
4111.18
4113.25
4117.65
4121.96
4125.21
4128.14
4126.99
4123.17
4117.49
4106.59
4093.98
4077.96
4060.73
4041.54
4021.81
3999.81
3966.34
3935.9
3880.95
3818.67
3726.85
3624.3
3528.63
3459.04
3432.7
3458.55
10868.3
12220.1
3549.25
3591.19
3680.69
3782.53
3895.56
3993.52
4078.9
4128.55
4151.65
4166.73
4168.3
4163.64
4163.87
4162.69
4163.96
4165.56
4166.95
4168.13
4166.1
4162.23
4156.51
4146.53
4135.29
4120.81
4105.01
4086.43
4067.61
4045.98
4014.46
3984.19
3929.34
3869.1
3780.34
3681.72
3588.95
3518.08
3487.73
3508.26
11918.1
13441.9
3635.24
3681.05
3779.05
3879.41
3990.37
4082.12
4156.69
4210.37
4229.29
4234.84
4230.93
4220.87
4214.66
4208.64
4205.24
4202.96
4200.96
4198.86
4194.95
4191.32
4186.83
4179.06
4170.27
4158.65
4145.6
4129.58
4113.74
4094
4067.45
4041.02
3992.45
3939.58
3856.47
3764.06
3672.96
3605.15
3572.08
3596.27
13403.5
14612.6
3734.24
3784.9
3887.68
3990.42
4097.46
4185.53
4248.44
4290.77
4302.31
4298.58
4290.53
4274.99
4263.14
4252.7
4245.43
4240.34
4236.44
4233.28
4228.77
4224.5
4219.47
4211.72
4203.43
4193.2
4182.14
4168.87
4156.6
4140.97
4120.96
4100.17
4058.54
4013.48
3939.54
3854.83
3769.97
3706.31
3676.04
3701.04
14934.3
15765.4
3819.5
3875
3986.94
4091.97
4188.51
4273.15
4325.66
4358.23
4366.51
4357.72
4344.04
4324.4
4307.47
4292.48
4281.15
4272.64
4265.96
4260.6
4254.86
4250.32
4245.65
4239.03
4232.22
4223.98
4215.19
4204.5
4194.75
4181.33
4166.97
4150.07
4116.23
4079.11
4015.17
3939.74
3860.42
3801.4
3772.51
3799.7
16563.5
16840
3894.25
3952.93
4062.46
4171.03
4261.66
4337.73
4384.26
4407.67
4413.17
4401.64
4384.85
4363.44
4343.84
4326.51
4313.02
4302.86
4295.07
4289.04
4282.87
4277.82
4272.61
4265.61
4258.43
4250.16
4241.54
4231.61
4222.43
4210.03
4197.56
4181.19
4151.17
4117.81
4062.51
3996.18
3926
3872.43
3846.42
3896.96
18183.8
17786.6
3953.12
4016.69
4126.41
4246.77
4333.83
4401.81
4441.8
4456.8
4456.24
4440.8
4419.42
4395.03
4372.68
4353.24
4337.87
4326.2
4317.22
4310.37
4303.67
4298.11
4292.51
4285.35
4278.04
4269.88
4261.69
4252.5
4244.2
4233.25
4223.25
4208.32
4182.44
4151.48
4102.24
4043.38
3981.18
3930.73
3904.2
4011.77
19761.6
18580.5
4005.28
4071.07
4189.74
4309.85
4394.21
4453.66
4486.84
4494.55
4488.55
4470.49
4446.75
4420.86
4396.68
4375.66
4358.68
4345.49
4335.25
4327.45
4320.11
4314.01
4308.08
4300.86
4293.48
4285.39
4277.19
4268.23
4259.87
4248.86
4238.65
4222.68
4197.76
4167.42
4121.22
4068.09
4011.42
3962.25
3934.73
4148.75
21221.9
19190.6
4059.62
4144.81
4275.08
4391.62
4466.18
4511.7
4532.91
4530.31
4516.88
4493.87
4467
4439.4
4413.9
4391.71
4373.48
4359.06
4347.72
4339.04
4331.09
4324.48
4318.21
4310.87
4303.39
4295.29
4287.05
4278.17
4269.62
4258.63
4248.68
4232.81
4210.38
4182.13
4140.96
4094.23
4044.5
3997.24
3970.2
4336.05
22572.5
19551.6
4107.95
4215.56
4359.29
4473.91
4541.31
4573.22
4581.69
4569.47
4547.6
4519.19
4488.33
4457.92
4430.08
4405.94
4385.98
4370.06
4357.47
4347.81
4339.2
4332.09
4325.55
4318.22
4310.88
4303.08
4295.25
4287.11
4279.14
4269.06
4259.07
4243.19
4221.95
4194.02
4155.13
4111.81
4065.19
4018.32
3989.36
4498.88
23758.2
20268.3
4157.8
4305.64
4467.05
4576.81
4630.23
4640.48
4631.55
4607.15
4575.55
4541.05
4506.2
4473.13
4443.34
4417.66
4396.3
4379.14
4365.49
4354.98
4345.78
4338.22
4331.41
4324.03
4316.74
4309.11
4301.54
4293.8
4286.05
4276.48
4266.31
4250.29
4229.7
4201.97
4165.71
4125.64
4082.61
4037.66
4008.51
4649.22
24854
19856.8
4203.74
4398.13
4585.18
4699.57
4735.64
4722.46
4690.48
4649.04
4606.37
4564.15
4524.24
4487.86
4455.74
4428.38
4405.67
4387.4
4372.82
4361.55
4351.82
4343.86
4336.78
4329.35
4322.1
4314.65
4307.37
4300.12
4292.87
4284.14
4274.16
4258.53
4238.62
4211.52
4177.72
4140.56
4100.39
4056.6
4026.11
4752.53
25669.3
19732.6
4241.61
4504.35
4730.77
4849.92
4860.43
4816.75
4752.76
4690.06
4635.67
4585.54
4540.57
4500.99
4466.77
4437.96
4414.15
4394.98
4379.65
4367.76
4357.58
4349.26
4341.95
4334.42
4327.17
4319.82
4312.72
4305.8
4298.9
4290.68
4280.79
4265.41
4245.83
4219.01
4187.4
4152.35
4115.05
4072.79
4042.05
4829.25
26416.6
19388.1
4273.13
4594.24
4903.38
5025.83
5006.41
4924.45
4821.83
4730.7
4663.71
4605.5
4555.59
4512.74
4476.52
4446.43
4421.71
4401.81
4385.89
4373.5
4362.95
4354.33
4346.81
4339.2
4331.91
4324.61
4317.64
4310.97
4304.36
4296.63
4286.89
4271.78
4252.3
4225.66
4196.12
4162.88
4128.62
4087.83
4057.73
4891.71
26894.4
17746.6
4332
4733.45
5108.91
5218.77
5170.37
5043.24
4889.75
4768.58
4687.27
4622.68
4568.38
4522.66
4484.68
4453.51
4428.07
4407.63
4391.26
4378.49
4367.65
4358.79
4351.09
4343.4
4336.08
4328.8
4321.91
4315.4
4309
4301.59
4291.93
4276.96
4257.42
4230.64
4202.67
4170.4
4138.9
4099.64
4071.3
4934.88
27378.4
15475.8
4584.95
4935.89
5329.92
5438.7
5347.26
5160.25
4948.94
4801.53
4704.91
4635.98
4578.44
4530.5
4491.04
4459
4433.03
4412.2
4395.52
4382.47
4371.41
4362.38
4354.55
4346.78
4339.43
4332.17
4325.33
4318.94
4312.68
4305.51
4295.93
4281.09
4261.44
4234.44
4207.77
4175.95
4147.16
4108.87
4083.65
4995.24
27838.7
11688.5
5135.5
5281.27
5651.78
5662.62
5511.29
5256.56
4984.43
4827.9
4714.96
4644.48
4585
4535.67
4495.16
4462.51
4436.19
4415.12
4398.24
4385.02
4373.82
4364.67
4356.76
4348.95
4341.57
4334.32
4327.51
4321.18
4315.03
4307.98
4298.46
4283.68
4263.93
4236.8
4210.99
4179.31
4152.67
4114.76
4092.69
5035.05
29064.6
)
;

boundaryField
{
    inlet
    {
        type            calculated;
        value           uniform 14000.1;
    }
    outlet
    {
        type            calculated;
        value           nonuniform List<scalar> 
165
(
2369
2899.73
3038.57
3025.97
3022.72
3021.71
3001.84
3038.7
3042.29
3053.84
3065.97
3077.52
3090.33
3103.16
3115.04
3127.63
3117.8
3075.15
3260.68
3754.47
3754.47
3227.69
2971.78
3020.31
3036.56
3036.5
3033.31
3026.58
3022.87
3019.82
3018.55
3018.05
3017.63
3018.33
3020.12
3020.78
3023.42
3020.19
3021.02
3016.55
3016.94
3022.71
3021.82
3027.53
3023.98
3027.68
3025.68
3029.56
3032.27
3038.45
3045.19
3054.31
3065.93
3079.71
3090.95
3100.11
3085.69
3034.88
3262.23
3791.71
2980.09
3020.43
3017.5
3019.64
3017.17
3019.36
3016.55
3019.51
3022.57
3029.34
3038.68
3051.13
3065.66
3081.1
3093.13
3100.1
3084.8
3033.73
3266.85
3791.71
3017.19
3015.49
3004.06
3015.49
3017.19
3791.71
3266.85
3033.73
3084.8
3100.1
3093.13
3081.1
3065.66
3051.13
3038.68
3029.34
3022.57
3019.51
3016.55
3019.36
3017.17
3019.64
3017.5
3020.43
2980.09
3754.47
3227.69
2971.78
3020.31
3036.56
3036.5
3033.31
3026.58
3022.87
3019.82
3018.55
3018.05
3017.63
3018.33
3020.12
3020.78
3023.42
3020.19
3021.02
3016.55
3016.94
3022.71
3021.82
3027.53
3023.98
3027.68
3025.68
3029.56
3032.27
3038.45
3045.19
3054.31
3065.93
3079.71
3090.95
3100.11
3085.69
3034.88
3262.23
3791.71
3754.47
3260.68
3075.15
3117.8
3127.63
3115.04
3103.16
3090.33
3077.52
3065.97
3053.84
3042.29
3038.7
3001.84
3021.71
3022.72
3025.97
3038.57
2899.73
2369
)
;
    }
    obstacle
    {
        type            calculated;
        value           nonuniform List<scalar> 
40
(
35722.3
18159.1
15944.9
15562.7
15313.1
15106.2
14918.9
14734.8
14549.4
14401.4
35722.3
18159.1
15944.9
15562.7
15313.1
15106.2
14918.9
14734.8
14549.4
14401.4
14272
14275.7
14321.6
14386.7
14198.1
14272
14275.7
14321.6
14386.7
14198.1
13848
12985.7
12400.3
11694.9
10871.6
13848
12985.7
12400.3
11694.9
10871.6
)
;
    }
    empty
    {
        type            empty;
    }
}


// ************************************************************************* //
