/*--------------------------------*- C++ -*----------------------------------*\
| =========                 |                                                 |
| \\      /  F ield         | OpenFOAM: The Open Source CFD Toolbox           |
|  \\    /   O peration     | Version:  v1912                                 |
|   \\  /    A nd           | Website:  www.openfoam.com                      |
|    \\/     M anipulation  |                                                 |
\*---------------------------------------------------------------------------*/
FoamFile
{
    version     2.0;
    format      ascii;
    class       volVectorField;
    location    "3.46";
    object      grad(T);
}
// * * * * * * * * * * * * * * * * * * * * * * * * * * * * * * * * * * * * * //

dimensions      [0 -1 0 1 0 0 0];


internalField   nonuniform List<vector> 
1900
(
(0.924801 -3.71742e-06 0)
(-0.645216 2.07128e-05 0)
(0.083108 2.3046e-05 0)
(0.0618579 2.74501e-05 0)
(0.0214559 2.80592e-05 0)
(0.00637265 -4.66259e-05 0)
(0.00403809 -0.000511092 0)
(0.000215534 -0.00386588 0)
(0.00407913 -0.0068311 0)
(-0.0250459 -0.0156476 0)
(0.924818 -5.05835e-06 0)
(-0.645189 3.36369e-05 0)
(0.0831147 4.29551e-05 0)
(0.0618629 3.28184e-06 0)
(0.0213818 -0.000103158 0)
(0.0058335 -0.000436918 0)
(0.000218838 -0.00120347 0)
(-0.00610448 -0.0049511 0)
(-0.00770263 -0.0050771 0)
(-0.0190623 -0.0150303 0)
(0.924829 -1.95156e-14 0)
(-0.645168 6.28837e-14 0)
(0.0830776 2.60209e-14 0)
(0.0617118 -9.32414e-14 0)
(0.0210157 -1.06252e-13 0)
(0.00527233 -1.0842e-14 0)
(-0.000476095 7.58942e-14 0)
(-0.00365809 2.1684e-13 0)
(-0.00600007 3.49113e-13 0)
(-0.0172243 1.23599e-13 0)
(0.924818 5.05835e-06 0)
(-0.645189 -3.36369e-05 0)
(0.0831147 -4.29551e-05 0)
(0.0618629 -3.28184e-06 0)
(0.0213818 0.000103158 0)
(0.0058335 0.000436918 0)
(0.000218838 0.00120347 0)
(-0.00610448 0.0049511 0)
(-0.00770263 0.0050771 0)
(-0.0190623 0.0150303 0)
(0.924801 3.71742e-06 0)
(-0.645216 -2.07128e-05 0)
(0.083108 -2.3046e-05 0)
(0.0618579 -2.74501e-05 0)
(0.0214559 -2.80592e-05 0)
(0.00637265 4.66259e-05 0)
(0.00403809 0.000511092 0)
(0.000215534 0.00386588 0)
(0.00407913 0.0068311 0)
(-0.0250459 0.0156476 0)
(-0.0582238 -0.00427848 1.02347e-15)
(-0.129082 -0.0101893 -1.23342e-15)
(-0.363475 -0.0374266 -1.54027e-15)
(-0.778169 -0.0154794 0)
(-0.592883 0.273806 -5.98653e-15)
(-0.049014 -0.00104886 1.02269e-15)
(-0.158346 -0.0127376 1.23342e-15)
(-0.364632 -0.050383 1.54027e-15)
(-0.619611 -0.064352 0)
(-0.516826 0.185302 0)
(-0.055725 -3.14261e-14 0)
(-0.179885 -1.23637e-13 0)
(-0.409343 -9.03502e-15 0)
(-0.649722 9.85638e-14 0)
(-0.382617 2.83958e-13 0)
(-0.049014 0.00104886 1.02269e-15)
(-0.158346 0.0127376 1.23342e-15)
(-0.364632 0.050383 1.54027e-15)
(-0.619611 0.064352 0)
(-0.516826 -0.185302 0)
(-0.0582238 0.00427848 -3.06886e-15)
(-0.129082 0.0101893 -1.23342e-15)
(-0.363475 0.0374266 -1.54027e-15)
(-0.778169 0.0154794 -4.07012e-15)
(-0.592883 -0.273806 5.98653e-15)
(-0.130898 -0.113827 2.61527e-15)
(-0.411606 -0.0080044 -2.10004e-15)
(-0.239074 0.0148414 0)
(-0.208587 0.0147359 1.52942e-15)
(-0.389677 0.0391406 -6.68556e-16)
(-0.224621 -0.137393 -1.30592e-15)
(-0.379804 -0.00972346 1.0499e-15)
(-0.231582 0.0106517 0)
(-0.196891 0.00181729 -9.5618e-16)
(-0.137647 0.0285713 1.67649e-16)
(-0.188806 5.80431e-13 0)
(-0.37526 5.56001e-13 0)
(-0.237163 8.03113e-13 0)
(-0.201074 9.21218e-13 3.82494e-16)
(-0.156737 8.43268e-13 -3.35297e-16)
(-0.224621 0.137393 -1.30592e-15)
(-0.379804 0.00972346 1.0499e-15)
(-0.231582 -0.0106517 0)
(-0.196891 -0.00181729 -9.5618e-16)
(-0.137647 -0.0285713 1.67649e-16)
(-0.130898 0.113827 1.30592e-15)
(-0.411606 0.0080044 2.41066e-19)
(-0.239074 -0.0148414 0)
(-0.208587 -0.0147359 4.43796e-19)
(-0.389677 -0.0391406 6.68556e-16)
(-0.631776 1.73277 0)
(-0.146471 0.708817 0)
(0.302564 0.222844 0)
(0.0374516 0.127216 0)
(-0.114815 0.0697088 0)
(-0.0946088 0.022929 0)
(-0.0446981 0.00828199 0)
(-0.0030083 0.0049764 0)
(0.00940012 0.00454703 0)
(0.0147741 0.00298084 0)
(0.018289 0.00245311 0)
(0.0165786 0.00191757 0)
(0.0127062 0.00171068 0)
(0.0081558 0.00156358 0)
(0.00447224 0.00144526 0)
(0.0019905 0.0013452 0)
(0.000570262 0.00126419 0)
(-3.2326e-05 0.00120818 0)
(-0.000904899 0.00116866 0)
(-0.00203519 0.00114934 0)
(-0.00275909 0.00113782 0)
(-0.00404889 0.00112487 0)
(-0.00597574 0.00112574 0)
(-0.00848295 0.0011362 0)
(-0.0122848 0.00115623 0)
(-0.0175679 0.00118874 0)
(-0.0242979 0.00123377 0)
(-0.0319792 0.00129125 0)
(-0.0395061 0.00136272 0)
(-0.0456127 0.00144027 0)
(-0.0493937 0.00151825 0)
(-0.0507858 0.00153434 0)
(-0.0492197 0.00148932 0)
(-0.044766 0.00134459 0)
(-0.0357309 0.00110573 0)
(-0.0248467 0.00173705 0)
(-0.0217032 0.00163848 0)
(-0.217126 0.00133014 0)
(-0.55388 -0.00976409 0)
(-0.348323 -0.0180817 0)
(-0.478799 0.641667 0)
(-0.305749 0.701191 0)
(0.194098 0.265626 0)
(0.00186339 0.0832541 0)
(-0.126465 0.041711 0)
(-0.101979 0.0105311 0)
(-0.0463177 0.00327753 0)
(-0.00326905 0.00196433 0)
(0.00923226 0.00197822 0)
(0.0146171 0.00106923 0)
(0.0182212 0.000932559 0)
(0.0165203 0.000666541 0)
(0.0126863 0.00056756 0)
(0.00814374 0.0005062 0)
(0.00446315 0.000462304 0)
(0.00198331 0.00042967 0)
(0.000565099 0.000405788 0)
(-3.57033e-05 0.000391363 0)
(-0.00090691 0.00038197 0)
(-0.00203683 0.000377594 0)
(-0.00276207 0.000372748 0)
(-0.0040525 0.000364721 0)
(-0.00597904 0.000359445 0)
(-0.00848617 0.000356574 0)
(-0.0122876 0.000357607 0)
(-0.0175698 0.000365423 0)
(-0.0242983 0.000383181 0)
(-0.0319775 0.000414731 0)
(-0.0395023 0.000463842 0)
(-0.0456071 0.00053358 0)
(-0.0493926 0.000624695 0)
(-0.0507943 0.000716108 0)
(-0.049241 0.000810902 0)
(-0.044806 0.000905445 0)
(-0.0356827 0.00100287 0)
(-0.0247863 0.00160957 0)
(-0.0217238 0.00193008 0)
(-0.21822 0.00219643 0)
(-0.555219 -0.000634579 0)
(-0.348576 0.0226191 0)
(-0.396853 1.06843e-12 0)
(-0.255865 5.44072e-13 0)
(0.122801 4.57336e-13 0)
(-0.0276872 -3.94255e-14 0)
(-0.135971 -6.22923e-13 0)
(-0.105789 -7.84568e-13 0)
(-0.0471902 1.15911e-12 0)
(-0.00338628 8.31879e-13 0)
(0.00913973 1.22613e-12 0)
(0.0144699 4.25007e-12 0)
(0.0181719 5.7719e-12 0)
(0.0164724 1.95156e-12 0)
(0.0126596 -6.1149e-12 0)
(0.00812518 -1.28094e-11 0)
(0.00444998 -1.2557e-11 0)
(0.00197406 -3.78091e-12 0)
(0.000559118 8.57505e-12 0)
(-3.92546e-05 1.61921e-11 0)
(-0.000908905 8.18868e-12 0)
(-0.00203787 -6.55252e-12 0)
(-0.00276284 -1.05858e-11 0)
(-0.00405276 -4.66798e-12 0)
(-0.00597811 -8.32667e-12 0)
(-0.00848349 -1.36018e-11 0)
(-0.0122822 -9.47396e-12 0)
(-0.0175605 -4.25402e-12 0)
(-0.0242835 1.70318e-12 0)
(-0.0319557 7.28584e-12 0)
(-0.0394715 7.50268e-12 0)
(-0.0455659 2.77556e-12 0)
(-0.0493406 -7.97381e-12 0)
(-0.0507316 -1.85714e-11 0)
(-0.0491647 -3.31864e-11 0)
(-0.0447102 -4.60195e-11 0)
(-0.0355261 -4.25362e-11 0)
(-0.024577 -3.06396e-11 0)
(-0.0215325 1.4753e-11 0)
(-0.217873 -2.78344e-12 0)
(-0.547939 8.31248e-11 0)
(-0.341558 1.69609e-11 0)
(-0.478799 -0.641667 0)
(-0.305749 -0.701191 0)
(0.194098 -0.265626 0)
(0.00186339 -0.0832541 0)
(-0.126465 -0.041711 0)
(-0.101979 -0.0105311 0)
(-0.0463177 -0.00327753 0)
(-0.00326905 -0.00196433 0)
(0.00923226 -0.00197822 0)
(0.0146171 -0.00106923 0)
(0.0182212 -0.000932559 0)
(0.0165203 -0.000666541 0)
(0.0126863 -0.00056756 0)
(0.00814374 -0.0005062 0)
(0.00446315 -0.000462304 0)
(0.00198331 -0.00042967 0)
(0.000565099 -0.000405788 0)
(-3.57033e-05 -0.000391363 0)
(-0.00090691 -0.00038197 0)
(-0.00203683 -0.000377594 0)
(-0.00276207 -0.000372748 0)
(-0.0040525 -0.000364721 0)
(-0.00597904 -0.000359445 0)
(-0.00848617 -0.000356574 0)
(-0.0122876 -0.000357607 0)
(-0.0175698 -0.000365423 0)
(-0.0242983 -0.000383181 0)
(-0.0319775 -0.000414731 0)
(-0.0395023 -0.000463842 0)
(-0.0456071 -0.00053358 0)
(-0.0493926 -0.000624695 0)
(-0.0507943 -0.000716108 0)
(-0.049241 -0.000810902 0)
(-0.044806 -0.000905445 0)
(-0.0356827 -0.00100287 0)
(-0.0247863 -0.00160957 0)
(-0.0217238 -0.00193008 0)
(-0.21822 -0.00219643 0)
(-0.555219 0.000634579 0)
(-0.348576 -0.0226191 0)
(-0.631776 -1.73277 0)
(-0.146471 -0.708817 0)
(0.302564 -0.222844 0)
(0.0374516 -0.127216 0)
(-0.114815 -0.0697088 0)
(-0.0946088 -0.022929 0)
(-0.0446981 -0.00828199 0)
(-0.0030083 -0.0049764 0)
(0.00940012 -0.00454703 0)
(0.0147741 -0.00298084 0)
(0.018289 -0.00245311 0)
(0.0165786 -0.00191757 0)
(0.0127062 -0.00171068 0)
(0.0081558 -0.00156358 0)
(0.00447224 -0.00144526 0)
(0.0019905 -0.0013452 0)
(0.000570262 -0.00126419 0)
(-3.2326e-05 -0.00120818 0)
(-0.000904899 -0.00116866 0)
(-0.00203519 -0.00114934 0)
(-0.00275909 -0.00113782 0)
(-0.00404889 -0.00112487 0)
(-0.00597574 -0.00112574 0)
(-0.00848295 -0.0011362 0)
(-0.0122848 -0.00115623 0)
(-0.0175679 -0.00118874 0)
(-0.0242979 -0.00123377 0)
(-0.0319792 -0.00129125 0)
(-0.0395061 -0.00136272 0)
(-0.0456127 -0.00144027 0)
(-0.0493937 -0.00151825 0)
(-0.0507858 -0.00153434 0)
(-0.0492197 -0.00148932 0)
(-0.044766 -0.00134459 0)
(-0.0357309 -0.00110573 0)
(-0.0248467 -0.00173705 0)
(-0.0217032 -0.00163848 0)
(-0.217126 -0.00133014 0)
(-0.55388 0.00976409 0)
(-0.348323 0.0180817 0)
(0.114653 -1.38919 0)
(0.457223 -0.284239 0)
(0.433506 -0.108457 0)
(0.0567719 -0.162215 0)
(-0.0745194 -0.0929531 0)
(-0.0719695 -0.0429202 0)
(-0.0369292 -0.0170767 0)
(-0.00122769 -0.0106457 0)
(0.0102899 -0.00929194 0)
(0.015749 -0.00656725 0)
(0.0188097 -0.0051433 0)
(0.0169186 -0.004184 0)
(0.0128853 -0.00372145 0)
(0.00829628 -0.00338074 0)
(0.00458961 -0.00310199 0)
(0.00208857 -0.00286552 0)
(0.000645076 -0.00267538 0)
(2.03145e-05 -0.00254111 0)
(-0.000872325 -0.00244693 0)
(-0.00201938 -0.00239842 0)
(-0.00275017 -0.00237538 0)
(-0.00404909 -0.00236019 0)
(-0.00598995 -0.00237802 0)
(-0.00850902 -0.0024215 0)
(-0.0123238 -0.00249207 0)
(-0.0176206 -0.00259385 0)
(-0.024363 -0.0027333 0)
(-0.0320565 -0.00290535 0)
(-0.0395913 -0.00311436 0)
(-0.0456982 -0.00335392 0)
(-0.0494504 -0.00359536 0)
(-0.0507859 -0.00375132 0)
(-0.0491465 -0.00375005 0)
(-0.0446115 -0.00363762 0)
(-0.0358731 -0.00340094 0)
(-0.0250506 -0.004196 0)
(-0.0214923 -0.00446683 0)
(-0.212332 -0.00406913 0)
(-0.544591 0.00595674 0)
(-0.343651 0.0013806 0)
(0.460112 -0.404022 0)
(0.763967 0.0344288 0)
(0.349936 -0.0782989 0)
(0.0420317 -0.139342 0)
(-0.0214664 -0.0926115 0)
(-0.0336313 -0.0553854 0)
(-0.0177632 -0.0261571 0)
(0.00353851 -0.0178181 0)
(0.0128531 -0.0143985 0)
(0.018249 -0.0104251 0)
(0.0203064 -0.00848378 0)
(0.0177664 -0.00709797 0)
(0.0133843 -0.00634553 0)
(0.00867741 -0.00577793 0)
(0.00490578 -0.00532026 0)
(0.002349 -0.00492788 0)
(0.000842756 -0.00462236 0)
(0.000159591 -0.00440489 0)
(-0.000784858 -0.00425585 0)
(-0.00197472 -0.00418099 0)
(-0.00272704 -0.00414328 0)
(-0.00405133 -0.00412293 0)
(-0.00602719 -0.00415547 0)
(-0.00857887 -0.00423076 0)
(-0.01243 -0.00434628 0)
(-0.0177721 -0.00452466 0)
(-0.0245631 -0.00475041 0)
(-0.0323049 -0.00504755 0)
(-0.0398927 -0.00541199 0)
(-0.0460304 -0.00581692 0)
(-0.0497463 -0.0062326 0)
(-0.0509348 -0.00654616 0)
(-0.0491494 -0.00655742 0)
(-0.0445124 -0.00648159 0)
(-0.0361927 -0.00633413 0)
(-0.0257645 -0.0072692 0)
(-0.0216941 -0.00802371 0)
(-0.209653 -0.00758349 0)
(-0.55361 0.00090216 0)
(-0.355238 -0.0168315 0)
(0.53716 -0.0231853 0)
(0.771101 0.0203842 0)
(0.266054 -0.0830306 0)
(0.0429798 -0.103724 0)
(0.00638464 -0.0803397 0)
(-0.00793173 -0.0554345 0)
(-0.000728013 -0.0336417 0)
(0.0101034 -0.0244232 0)
(0.0174141 -0.01952 0)
(0.0214487 -0.0149479 0)
(0.0220159 -0.0126771 0)
(0.0189791 -0.0109161 0)
(0.0141573 -0.00983814 0)
(0.00928426 -0.00899194 0)
(0.00540875 -0.00828781 0)
(0.00276109 -0.00771511 0)
(0.00114905 -0.00726564 0)
(0.000373506 -0.00695511 0)
(-0.000656573 -0.00674373 0)
(-0.0019109 -0.00664139 0)
(-0.00269421 -0.00658823 0)
(-0.00406084 -0.00656333 0)
(-0.00609386 -0.00661849 0)
(-0.00869289 -0.00673236 0)
(-0.0126071 -0.00691828 0)
(-0.0180101 -0.00716127 0)
(-0.0248669 -0.00753521 0)
(-0.0326941 -0.00794524 0)
(-0.0403327 -0.00846736 0)
(-0.0464889 -0.00909657 0)
(-0.0501531 -0.00964553 0)
(-0.051099 -0.0100598 0)
(-0.0490843 -0.0100545 0)
(-0.0443964 -0.0100289 0)
(-0.0366321 -0.0100785 0)
(-0.0266787 -0.0112644 0)
(-0.0217951 -0.0123244 0)
(-0.203731 -0.0114971 0)
(-0.553503 0.00202935 0)
(-0.36074 -0.0164618 0)
(0.502097 -0.00307301 0)
(0.706298 -0.0299819 0)
(0.23034 -0.0817517 0)
(0.0446247 -0.0838597 0)
(0.0250673 -0.0722937 0)
(0.0113686 -0.0531614 0)
(0.0121204 -0.0387875 0)
(0.0171467 -0.0297841 0)
(0.0219839 -0.0245162 0)
(0.0248431 -0.0202427 0)
(0.0241916 -0.0175261 0)
(0.0205021 -0.0155057 0)
(0.0152385 -0.0141025 0)
(0.0101714 -0.012886 0)
(0.00613618 -0.0119619 0)
(0.003334 -0.0111443 0)
(0.00157512 -0.0105556 0)
(0.00066253 -0.0101422 0)
(-0.00048254 -0.00986844 0)
(-0.00182488 -0.00973651 0)
(-0.00265182 -0.00966996 0)
(-0.0040805 -0.00964591 0)
(-0.00619007 -0.00972937 0)
(-0.00886776 -0.00990339 0)
(-0.0128433 -0.0101402 0)
(-0.0183666 -0.0105587 0)
(-0.0253186 -0.0109523 0)
(-0.0332031 -0.0116671 0)
(-0.0410021 -0.0123337 0)
(-0.0471657 -0.0131838 0)
(-0.0506745 -0.0139275 0)
(-0.0513289 -0.0145516 0)
(-0.0491197 -0.0145285 0)
(-0.0445355 -0.0146663 0)
(-0.0373833 -0.0150473 0)
(-0.0279286 -0.0166107 0)
(-0.0219184 -0.0179316 0)
(-0.195821 -0.0168086 0)
(-0.558394 0.00127421 0)
(-0.373057 -0.0266846 0)
(0.51123 -0.0414044 0)
(0.695284 -0.0446262 0)
(0.214135 -0.0795685 0)
(0.0520938 -0.0732602 0)
(0.0359667 -0.0667479 0)
(0.0243561 -0.0539472 0)
(0.0217992 -0.0436121 0)
(0.0238557 -0.0358784 0)
(0.0266085 -0.030531 0)
(0.0281847 -0.0265818 0)
(0.0265806 -0.0236949 0)
(0.0222782 -0.0214685 0)
(0.0166818 -0.0195736 0)
(0.011347 -0.0181714 0)
(0.00708715 -0.0167998 0)
(0.00411628 -0.0158127 0)
(0.00211467 -0.0150302 0)
(0.00103566 -0.0145114 0)
(-0.00026561 -0.0141726 0)
(-0.00171964 -0.0140103 0)
(-0.00260691 -0.013934 0)
(-0.00411809 -0.0139219 0)
(-0.00634198 -0.014052 0)
(-0.00908881 -0.0142871 0)
(-0.0132386 -0.0146737 0)
(-0.0187926 -0.0150914 0)
(-0.0259349 -0.0159277 0)
(-0.0340252 -0.0165304 0)
(-0.0417943 -0.0176459 0)
(-0.0480248 -0.0188969 0)
(-0.0514712 -0.0196755 0)
(-0.051678 -0.0206079 0)
(-0.0491948 -0.0207415 0)
(-0.0448963 -0.0214354 0)
(-0.0385057 -0.0221314 0)
(-0.0294581 -0.0246417 0)
(-0.0219858 -0.0263746 0)
(-0.185223 -0.0257478 0)
(-0.56302 -0.00639056 0)
(-0.387682 -0.0337944 0)
(0.498992 -0.0215175 0)
(0.669522 -0.0495095 0)
(0.202748 -0.0710064 0)
(0.0569791 -0.0681075 0)
(0.043678 -0.0631009 0)
(0.0336631 -0.0558646 0)
(0.0295321 -0.0485932 0)
(0.0297522 -0.0424697 0)
(0.0309424 -0.0378794 0)
(0.0314306 -0.0344319 0)
(0.029119 -0.0315468 0)
(0.0244735 -0.029058 0)
(0.0184157 -0.0269872 0)
(0.0128442 -0.0249407 0)
(0.00840909 -0.0234129 0)
(0.0050393 -0.0220802 0)
(0.00282911 -0.0211308 0)
(0.00148891 -0.0204857 0)
(3.90184e-07 -0.0200826 0)
(-0.00159492 -0.0198859 0)
(-0.00256663 -0.0198035 0)
(-0.00419419 -0.0198205 0)
(-0.00654201 -0.0200107 0)
(-0.00946686 -0.0203451 0)
(-0.0136184 -0.0208181 0)
(-0.019575 -0.021561 0)
(-0.0267052 -0.022263 0)
(-0.0348589 -0.0235389 0)
(-0.0432826 -0.0246193 0)
(-0.0491215 -0.0262885 0)
(-0.0523233 -0.0273777 0)
(-0.0523562 -0.028539 0)
(-0.0499171 -0.0287045 0)
(-0.0458749 -0.0298765 0)
(-0.040473 -0.0311587 0)
(-0.0320175 -0.0340486 0)
(-0.0229842 -0.0370202 0)
(-0.176564 -0.0365942 0)
(-0.566148 -0.0197801 0)
(-0.399464 -0.0395312 0)
(0.484256 -0.0297721 0)
(0.647594 -0.0553099 0)
(0.196214 -0.0683663 0)
(0.0597119 -0.0710969 0)
(0.0477643 -0.0670081 0)
(0.0383362 -0.0621851 0)
(0.0347069 -0.0564528 0)
(0.0341799 -0.0512904 0)
(0.0343541 -0.0474407 0)
(0.034287 -0.0443765 0)
(0.0317591 -0.0414928 0)
(0.0266719 -0.0387372 0)
(0.0206493 -0.0359977 0)
(0.0147914 -0.0336147 0)
(0.0098437 -0.0316413 0)
(0.00631543 -0.0300307 0)
(0.00365112 -0.0289077 0)
(0.00204575 -0.0281251 0)
(0.000312425 -0.0276654 0)
(-0.00145072 -0.0274304 0)
(-0.00254391 -0.0273464 0)
(-0.00431773 -0.0274128 0)
(-0.00684745 -0.0276722 0)
(-0.00986688 -0.0281296 0)
(-0.0144103 -0.0287348 0)
(-0.020185 -0.0296743 0)
(-0.0278409 -0.0307118 0)
(-0.0362959 -0.0322774 0)
(-0.0444439 -0.033844 0)
(-0.0506829 -0.0361553 0)
(-0.0536399 -0.0374633 0)
(-0.0529566 -0.0391494 0)
(-0.0504837 -0.03993 0)
(-0.0472612 -0.0413194 0)
(-0.0425261 -0.0434358 0)
(-0.0351065 -0.046344 0)
(-0.0244389 -0.050839 0)
(-0.16861 -0.0506467 0)
(-0.56585 -0.0370312 0)
(-0.406715 -0.0433015 0)
(0.474383 -0.0369398 0)
(0.632331 -0.05889 0)
(0.187535 -0.0695372 0)
(0.0582878 -0.0757523 0)
(0.0522657 -0.0729691 0)
(0.0438347 -0.0680964 0)
(0.0400307 -0.0627547 0)
(0.0384365 -0.0588202 0)
(0.0376048 -0.05609 0)
(0.0371622 -0.0539444 0)
(0.0345533 -0.051428 0)
(0.0297688 -0.0487123 0)
(0.0233519 -0.045558 0)
(0.0170422 -0.0431163 0)
(0.0118627 -0.0406356 0)
(0.0076735 -0.0389315 0)
(0.00466541 -0.0375909 0)
(0.00268601 -0.0367107 0)
(0.000669839 -0.0361978 0)
(-0.00128746 -0.0359227 0)
(-0.00254966 -0.0358427 0)
(-0.00450817 -0.0359719 0)
(-0.00723271 -0.0363145 0)
(-0.0104908 -0.0368508 0)
(-0.0151069 -0.0377002 0)
(-0.0214801 -0.038615 0)
(-0.0292137 -0.0402769 0)
(-0.0378772 -0.0416949 0)
(-0.0470194 -0.0437278 0)
(-0.0526091 -0.04615 0)
(-0.0552085 -0.0475279 0)
(-0.0547332 -0.0489544 0)
(-0.0520081 -0.0499997 0)
(-0.0492533 -0.0511323 0)
(-0.0453148 -0.0532686 0)
(-0.0391515 -0.0561021 0)
(-0.0271305 -0.0602978 0)
(-0.163258 -0.0612553 0)
(-0.55907 -0.0483095 0)
(-0.405506 -0.0450449 0)
(0.463104 -0.0350489 0)
(0.616182 -0.0590729 0)
(0.179965 -0.0693449 0)
(0.0564048 -0.07467 0)
(0.0551419 -0.0743995 0)
(0.0481791 -0.0715678 0)
(0.0436459 -0.0676578 0)
(0.0406023 -0.065555 0)
(0.0390526 -0.0639895 0)
(0.0387794 -0.0626941 0)
(0.036801 -0.0606823 0)
(0.0323285 -0.0578088 0)
(0.0260417 -0.0547713 0)
(0.0195347 -0.0515382 0)
(0.0138764 -0.0490877 0)
(0.00924941 -0.0470812 0)
(0.00579111 -0.0456695 0)
(0.00338818 -0.0447111 0)
(0.00107182 -0.0441576 0)
(-0.00110853 -0.0438514 0)
(-0.00259134 -0.043786 0)
(-0.00477234 -0.043969 0)
(-0.00769442 -0.0443677 0)
(-0.0112022 -0.0450007 0)
(-0.0161103 -0.0458867 0)
(-0.022668 -0.047226 0)
(-0.0308088 -0.0485314 0)
(-0.0396214 -0.050929 0)
(-0.048737 -0.0525378 0)
(-0.0543448 -0.0546558 0)
(-0.0563423 -0.055734 0)
(-0.0553385 -0.0563799 0)
(-0.0525824 -0.0567565 0)
(-0.0504112 -0.057223 0)
(-0.0473152 -0.0585725 0)
(-0.0418802 -0.0607963 0)
(-0.0294047 -0.0635259 0)
(-0.157058 -0.0643319 0)
(-0.550229 -0.051444 0)
(-0.403569 -0.0440518 0)
(0.451233 -0.0336739 0)
(0.599282 -0.057634 0)
(0.172505 -0.0681283 0)
(0.053417 -0.0720765 0)
(0.0552551 -0.0733852 0)
(0.0503312 -0.0721134 0)
(0.0458249 -0.0696127 0)
(0.0419715 -0.0685801 0)
(0.0403617 -0.0675958 0)
(0.0403491 -0.0668245 0)
(0.039261 -0.0650083 0)
(0.0354649 -0.0626225 0)
(0.0293944 -0.0595827 0)
(0.0225191 -0.0567802 0)
(0.0161576 -0.0545685 0)
(0.0109674 -0.0527091 0)
(0.00694936 -0.0514241 0)
(0.00414294 -0.050492 0)
(0.00149824 -0.0499453 0)
(-0.000929374 -0.0496353 0)
(-0.00266294 -0.049588 0)
(-0.00506874 -0.0497758 0)
(-0.0082269 -0.0501549 0)
(-0.0119545 -0.0507622 0)
(-0.0172514 -0.0515236 0)
(-0.0240287 -0.0526258 0)
(-0.032782 -0.05371 0)
(-0.0417379 -0.0554178 0)
(-0.0506107 -0.0567875 0)
(-0.055689 -0.0581668 0)
(-0.05687 -0.0586662 0)
(-0.0557185 -0.0587483 0)
(-0.0528206 -0.0587474 0)
(-0.0510033 -0.0587712 0)
(-0.0487582 -0.0595591 0)
(-0.0439247 -0.0614929 0)
(-0.0305375 -0.0635875 0)
(-0.151616 -0.0637631 0)
(-0.539528 -0.050241 0)
(-0.398383 -0.0416072 0)
(0.440015 -0.0311938 0)
(0.582981 -0.0540739 0)
(0.166047 -0.0643741 0)
(0.0513391 -0.0663485 0)
(0.0551063 -0.0686815 0)
(0.0518145 -0.0678543 0)
(0.0470506 -0.0670125 0)
(0.0425459 -0.0668928 0)
(0.0407444 -0.0665834 0)
(0.0412728 -0.0664622 0)
(0.0408502 -0.0650431 0)
(0.0375568 -0.0632598 0)
(0.0316715 -0.0605278 0)
(0.0243666 -0.0583591 0)
(0.0177994 -0.0563676 0)
(0.0122794 -0.0549384 0)
(0.0079276 -0.053896 0)
(0.00481318 -0.0531629 0)
(0.00189739 -0.0527246 0)
(-0.000764207 -0.0524654 0)
(-0.00272676 -0.0524142 0)
(-0.00531856 -0.0525313 0)
(-0.00864496 -0.052787 0)
(-0.0125212 -0.0531649 0)
(-0.0179061 -0.0536856 0)
(-0.0247748 -0.0542658 0)
(-0.0334992 -0.0551235 0)
(-0.042587 -0.0560343 0)
(-0.0513861 -0.0568779 0)
(-0.0561551 -0.0575351 0)
(-0.0569026 -0.0575995 0)
(-0.0554168 -0.0569706 0)
(-0.0526045 -0.0566209 0)
(-0.0511934 -0.0564423 0)
(-0.0499379 -0.0570269 0)
(-0.0457621 -0.0588229 0)
(-0.0315923 -0.060721 0)
(-0.144196 -0.0607771 0)
(-0.528879 -0.0466457 0)
(-0.395249 -0.038158 0)
(0.429185 -0.0275083 0)
(0.567308 -0.0507811 0)
(0.160677 -0.0614753 0)
(0.0492661 -0.0628341 0)
(0.0538041 -0.0648559 0)
(0.0519395 -0.0643487 0)
(0.0467514 -0.0648564 0)
(0.042385 -0.0650887 0)
(0.0407767 -0.0649105 0)
(0.0418334 -0.0644692 0)
(0.0423469 -0.0632518 0)
(0.039816 -0.0612075 0)
(0.0341169 -0.0586531 0)
(0.026528 -0.0566258 0)
(0.0194539 -0.0550238 0)
(0.0133492 -0.0540746 0)
(0.00866029 -0.0534015 0)
(0.00527171 -0.0530084 0)
(0.00217036 -0.0527758 0)
(-0.000630303 -0.0526345 0)
(-0.0027264 -0.052554 0)
(-0.00542798 -0.0525169 0)
(-0.00883746 -0.0525428 0)
(-0.0128203 -0.0525611 0)
(-0.0183122 -0.0526944 0)
(-0.0254144 -0.0528893 0)
(-0.0344861 -0.0531843 0)
(-0.0434285 -0.054217 0)
(-0.0520569 -0.0546878 0)
(-0.0563844 -0.0554863 0)
(-0.056326 -0.0552832 0)
(-0.0547755 -0.0546756 0)
(-0.0523116 -0.054418 0)
(-0.0513945 -0.054493 0)
(-0.0510522 -0.0551989 0)
(-0.0474844 -0.0569295 0)
(-0.0324206 -0.0587819 0)
(-0.138052 -0.0589018 0)
(-0.517731 -0.0450567 0)
(-0.390204 -0.0341899 0)
(0.417588 -0.0250752 0)
(0.550249 -0.0475737 0)
(0.154433 -0.0591562 0)
(0.0480814 -0.061397 0)
(0.0536469 -0.0624039 0)
(0.051814 -0.061716 0)
(0.0463375 -0.0629471 0)
(0.0424938 -0.0627644 0)
(0.0413414 -0.0622583 0)
(0.0428712 -0.0612643 0)
(0.0439932 -0.0596344 0)
(0.0419883 -0.0577883 0)
(0.0360867 -0.055211 0)
(0.0278639 -0.053109 0)
(0.0202578 -0.0515166 0)
(0.0138427 -0.050542 0)
(0.0089551 -0.0500395 0)
(0.00541615 -0.0498021 0)
(0.0022577 -0.0497176 0)
(-0.000550431 -0.049666 0)
(-0.00261351 -0.0495545 0)
(-0.00530777 -0.049391 0)
(-0.00868749 -0.0492418 0)
(-0.0126673 -0.0490981 0)
(-0.0182224 -0.0490373 0)
(-0.0252468 -0.0493586 0)
(-0.0347786 -0.0496147 0)
(-0.0440359 -0.0509831 0)
(-0.0526093 -0.0515683 0)
(-0.0567288 -0.0522381 0)
(-0.0561214 -0.0522971 0)
(-0.054583 -0.0522546 0)
(-0.0524286 -0.052427 0)
(-0.051946 -0.0529533 0)
(-0.0522857 -0.0540119 0)
(-0.0492147 -0.0557719 0)
(-0.0334929 -0.0576682 0)
(-0.13097 -0.0578501 0)
(-0.505066 -0.0434914 0)
(-0.384777 -0.0309623 0)
(0.407504 -0.021401 0)
(0.534467 -0.0468348 0)
(0.147356 -0.0590338 0)
(0.0461365 -0.0619067 0)
(0.0534967 -0.0628638 0)
(0.0514161 -0.0620528 0)
(0.0457411 -0.0627139 0)
(0.0430487 -0.0618518 0)
(0.0422221 -0.0609538 0)
(0.0443619 -0.0591566 0)
(0.0456966 -0.0569458 0)
(0.0440785 -0.0546435 0)
(0.0386261 -0.0511481 0)
(0.0300881 -0.0485522 0)
(0.0219276 -0.0464614 0)
(0.0147726 -0.0450881 0)
(0.00937321 -0.0443397 0)
(0.00558191 -0.0439791 0)
(0.0023015 -0.043942 0)
(-0.000473207 -0.0440173 0)
(-0.00246132 -0.0438748 0)
(-0.00512664 -0.043544 0)
(-0.0085552 -0.0433186 0)
(-0.0126232 -0.0432925 0)
(-0.0185633 -0.0434965 0)
(-0.0259708 -0.044319 0)
(-0.0360516 -0.045144 0)
(-0.045311 -0.0471738 0)
(-0.0532663 -0.0487587 0)
(-0.0570868 -0.0499664 0)
(-0.0563419 -0.0506555 0)
(-0.0549006 -0.0511944 0)
(-0.0529848 -0.0518657 0)
(-0.0529217 -0.0528846 0)
(-0.0537683 -0.0543432 0)
(-0.0510078 -0.0561151 0)
(-0.0344231 -0.0580371 0)
(-0.124391 -0.0580741 0)
(-0.491821 -0.0435963 0)
(-0.37813 -0.0260117 0)
(0.39308 -0.0216851 0)
(0.513985 -0.0454132 0)
(0.139909 -0.0593773 0)
(0.0443906 -0.0627301 0)
(0.0535061 -0.0632546 0)
(0.0519584 -0.0626028 0)
(0.0465312 -0.062066 0)
(0.0441898 -0.0605536 0)
(0.0439386 -0.0591809 0)
(0.0467335 -0.0565043 0)
(0.0483423 -0.0533412 0)
(0.0475751 -0.0498215 0)
(0.0419565 -0.0460003 0)
(0.0323802 -0.0427014 0)
(0.0235959 -0.0397952 0)
(0.0158873 -0.0377834 0)
(0.0100238 -0.0363797 0)
(0.00579937 -0.0354148 0)
(0.00222081 -0.0348594 0)
(-0.000485641 -0.034651 0)
(-0.00215738 -0.0344857 0)
(-0.00477188 -0.0343864 0)
(-0.0084451 -0.03463 0)
(-0.0128388 -0.0351843 0)
(-0.0192116 -0.0360949 0)
(-0.0268343 -0.037613 0)
(-0.0375297 -0.039401 0)
(-0.0475191 -0.0423085 0)
(-0.0553003 -0.0445893 0)
(-0.0585567 -0.0467383 0)
(-0.0573047 -0.0484451 0)
(-0.0557492 -0.0498531 0)
(-0.0540573 -0.0513124 0)
(-0.0543334 -0.0529525 0)
(-0.0553988 -0.0546777 0)
(-0.0527743 -0.0563024 0)
(-0.0353806 -0.0583588 0)
(-0.117055 -0.0578473 0)
(-0.474169 -0.0418082 0)
(-0.367832 -0.0239418 0)
(0.384639 -0.0108916 0)
(0.498145 -0.0418006 0)
(0.130669 -0.057141 0)
(0.0424002 -0.0607172 0)
(0.0536194 -0.0602425 0)
(0.0525614 -0.0594608 0)
(0.0477159 -0.0581735 0)
(0.0458289 -0.0559607 0)
(0.0461241 -0.0536888 0)
(0.0499893 -0.0505421 0)
(0.0521363 -0.0467785 0)
(0.0511525 -0.0425022 0)
(0.0454873 -0.0377627 0)
(0.0360676 -0.034186 0)
(0.0266668 -0.0308194 0)
(0.0180638 -0.0286225 0)
(0.0116557 -0.0268216 0)
(0.00704692 -0.0254983 0)
(0.0030375 -0.0247049 0)
(-0.000113034 -0.0243508 0)
(-0.00220635 -0.0241618 0)
(-0.00526571 -0.0241933 0)
(-0.00932406 -0.024681 0)
(-0.0140349 -0.0256416 0)
(-0.0209037 -0.0269612 0)
(-0.0291567 -0.0289577 0)
(-0.0405763 -0.0310849 0)
(-0.0503107 -0.0344225 0)
(-0.057535 -0.0375717 0)
(-0.0608023 -0.040397 0)
(-0.0593435 -0.0427476 0)
(-0.0576637 -0.0447267 0)
(-0.0559716 -0.0467337 0)
(-0.0561646 -0.0487144 0)
(-0.0569964 -0.0505812 0)
(-0.0545551 -0.0523391 0)
(-0.0359119 -0.0543422 0)
(-0.108442 -0.0521428 0)
(-0.459149 -0.0358135 0)
(-0.360914 -0.0089522 0)
(0.363295 0.0248018 0)
(0.469417 -0.0211997 0)
(0.12168 -0.0290395 0)
(0.0414019 -0.0369153 0)
(0.0547167 -0.0397994 0)
(0.0539523 -0.041076 0)
(0.0499041 -0.039972 0)
(0.0485114 -0.0381805 0)
(0.0491601 -0.0360935 0)
(0.0533926 -0.0335693 0)
(0.0560898 -0.0311497 0)
(0.056263 -0.0281881 0)
(0.0499703 -0.0250357 0)
(0.039071 -0.0237997 0)
(0.0289572 -0.0225064 0)
(0.0197398 -0.022475 0)
(0.0130343 -0.0223315 0)
(0.00783906 -0.0222401 0)
(0.00332654 -0.0220754 0)
(3.77209e-05 -0.0213497 0)
(-0.00200561 -0.0212206 0)
(-0.00527221 -0.0217139 0)
(-0.00984067 -0.0216691 0)
(-0.015036 -0.0215794 0)
(-0.0224072 -0.0213742 0)
(-0.0308081 -0.0216601 0)
(-0.0427957 -0.0218923 0)
(-0.0537701 -0.023355 0)
(-0.0610575 -0.0249234 0)
(-0.0635443 -0.0264346 0)
(-0.061477 -0.0278899 0)
(-0.0595904 -0.0287248 0)
(-0.0579 -0.0298179 0)
(-0.058041 -0.0306892 0)
(-0.0588917 -0.0315308 0)
(-0.0563985 -0.0320734 0)
(-0.0351914 -0.0310319 0)
(-0.0991997 -0.025942 0)
(-0.432549 -0.0155596 0)
(-0.341948 0.0294702 0)
(0.34031 -0.0350046 0)
(0.446262 -0.0804809 0)
(0.115525 -0.0799257 0)
(0.0320316 -0.0934483 0)
(0.0496099 -0.1077 0)
(0.0523951 -0.119814 0)
(0.0505062 -0.129697 0)
(0.0495663 -0.137134 0)
(0.0505676 -0.145583 0)
(0.0547533 -0.15127 0)
(0.0573219 -0.158094 0)
(0.0570442 -0.164582 0)
(0.0497161 -0.172035 0)
(0.0385049 -0.182069 0)
(0.0279433 -0.192408 0)
(0.0182323 -0.204178 0)
(0.0118821 -0.213775 0)
(0.00729372 -0.220961 0)
(0.00389544 -0.225307 0)
(0.000710725 -0.219328 0)
(-0.00255731 -0.219299 0)
(-0.00569788 -0.225053 0)
(-0.0091944 -0.220467 0)
(-0.0137507 -0.213522 0)
(-0.0209815 -0.20323 0)
(-0.029656 -0.192779 0)
(-0.0422095 -0.181769 0)
(-0.0532315 -0.172646 0)
(-0.0605027 -0.163801 0)
(-0.0636609 -0.157727 0)
(-0.0615504 -0.150215 0)
(-0.0595216 -0.1439 0)
(-0.0578645 -0.136083 0)
(-0.0578152 -0.128935 0)
(-0.0583302 -0.120692 0)
(-0.0540743 -0.111629 0)
(-0.0300035 -0.101047 0)
(-0.0935324 -0.0930375 0)
(-0.405751 -0.0935387 0)
(-0.317521 -0.0730462 0)
(0.319472 -0.288629 0)
(0.42613 -0.427488 0)
(0.109184 -0.429924 0)
(0.0146372 -0.468546 0)
(0.0293093 -0.498443 0)
(0.0327559 -0.517454 0)
(0.0332146 -0.53574 0)
(0.0332031 -0.548482 0)
(0.035538 -0.559363 0)
(0.0413366 -0.568298 0)
(0.0432615 -0.578348 0)
(0.0428283 -0.586794 0)
(0.0331194 -0.594784 0)
(0.019439 -0.596205 0)
(0.00765213 -0.595333 0)
(-0.000850648 -0.589931 0)
(-0.00313826 -0.585265 0)
(-0.00327355 -0.579758 0)
(0.00490023 -0.579352 0)
(0.00582762 -0.573212 0)
(-0.00752218 -0.572702 0)
(-0.00639803 -0.578058 0)
(0.00127086 -0.577562 0)
(0.00157485 -0.582254 0)
(-0.00241851 -0.586064 0)
(-0.0101274 -0.590028 0)
(-0.0233953 -0.591121 0)
(-0.0364562 -0.586457 0)
(-0.0466806 -0.579063 0)
(-0.0504522 -0.567564 0)
(-0.0481531 -0.555927 0)
(-0.0459726 -0.543758 0)
(-0.043479 -0.530204 0)
(-0.0432094 -0.51604 0)
(-0.0422145 -0.497152 0)
(-0.0374672 -0.480821 0)
(-0.0172764 -0.451405 0)
(-0.0919649 -0.420563 0)
(-0.413285 -0.423266 0)
(-0.322201 -0.310309 0)
(0.206501 -0.230745 0)
(0.310105 -0.347978 0)
(0.0759591 -0.351148 0)
(-0.033996 -0.382457 0)
(0.00248017 -0.401616 0)
(0.0164551 -0.410299 0)
(0.0206068 -0.418532 0)
(0.0268024 -0.423382 0)
(0.0314721 -0.425174 0)
(0.0364585 -0.427602 0)
(0.0394982 -0.430237 0)
(0.0412056 -0.431507 0)
(0.0406478 -0.43192 0)
(0.0379755 -0.423694 0)
(0.0339891 -0.412685 0)
(0.0279347 -0.396364 0)
(0.0216853 -0.382813 0)
(0.0129913 -0.370603 0)
(0.0102029 -0.365934 0)
(0.00711958 -0.3651 0)
(-0.00722727 -0.364594 0)
(-0.0103811 -0.364794 0)
(-0.0132375 -0.368727 0)
(-0.0219443 -0.37985 0)
(-0.0284725 -0.393134 0)
(-0.0345285 -0.406887 0)
(-0.0387689 -0.418455 0)
(-0.0416119 -0.422841 0)
(-0.0422966 -0.423806 0)
(-0.0413662 -0.418292 0)
(-0.0386095 -0.414377 0)
(-0.0347343 -0.408388 0)
(-0.0311545 -0.402715 0)
(-0.0259656 -0.395598 0)
(-0.0243918 -0.38482 0)
(-0.00999043 -0.377103 0)
(0.0280631 -0.356306 0)
(-0.0664164 -0.330053 0)
(-0.299507 -0.329794 0)
(-0.208672 -0.211981 0)
(0.206501 0.230745 0)
(0.310105 0.347978 0)
(0.0759591 0.351148 0)
(-0.033996 0.382457 0)
(0.00248017 0.401616 0)
(0.0164551 0.410299 0)
(0.0206068 0.418532 0)
(0.0268024 0.423382 0)
(0.0314721 0.425174 0)
(0.0364585 0.427602 0)
(0.0394982 0.430237 0)
(0.0412056 0.431507 0)
(0.0406478 0.43192 0)
(0.0379755 0.423694 0)
(0.0339891 0.412685 0)
(0.0279347 0.396364 0)
(0.0216853 0.382813 0)
(0.0129913 0.370603 0)
(0.0102029 0.365934 0)
(0.00711958 0.3651 0)
(-0.00722727 0.364594 0)
(-0.0103811 0.364794 0)
(-0.0132375 0.368727 0)
(-0.0219443 0.37985 0)
(-0.0284725 0.393134 0)
(-0.0345285 0.406887 0)
(-0.0387689 0.418455 0)
(-0.0416119 0.422841 0)