/*--------------------------------*- C++ -*----------------------------------*\
| =========                 |                                                 |
| \\      /  F ield         | OpenFOAM: The Open Source CFD Toolbox           |
|  \\    /   O peration     | Version:  v1912                                 |
|   \\  /    A nd           | Website:  www.openfoam.com                      |
|    \\/     M anipulation  |                                                 |
\*---------------------------------------------------------------------------*/
FoamFile
{
    version     2.0;
    format      ascii;
    class       volVectorField;
    location    "4.72";
    object      grad(rho);
}
// * * * * * * * * * * * * * * * * * * * * * * * * * * * * * * * * * * * * * //

dimensions      [1 -4 0 0 0 0 0];


internalField   nonuniform List<vector> 
1900
(
(159439 -0.842185 0)
(-134697 -0.240668 0)
(-17294.5 0.918706 0)
(-3781.98 0.487597 0)
(-2246.71 1.86828 0)
(-1615.74 6.05752 0)
(-1539.84 17.3919 0)
(-1458.34 38.163 0)
(-1525.02 -113.026 0)
(-753.544 -171.325 0)
(159438 -1.36879 0)
(-134695 -0.175202 0)
(-17293.8 1.64056 0)
(-3781.03 1.5432 0)
(-2241.14 3.30167 0)
(-1600.22 7.07646 0)
(-1507.73 15.6783 0)
(-1588.75 27.0049 0)
(-1734.51 -154.087 0)
(-1620.68 -220.653 0)
(159437 1.60583e-08 0)
(-134694 9.23706e-10 0)
(-17292.8 -1.95399e-09 0)
(-3780.32 5.32907e-11 0)
(-2241.17 -5.68434e-09 0)
(-1603.37 -4.47642e-09 0)
(-1519.91 1.72307e-09 0)
(-1628.1 2.85993e-09 0)
(-1772.68 4.60076e-09 0)
(-1653.03 2.14939e-09 0)
(159438 1.36879 0)
(-134695 0.175202 0)
(-17293.8 -1.64056 0)
(-3781.03 -1.5432 0)
(-2241.14 -3.30167 0)
(-1600.22 -7.07646 0)
(-1507.73 -15.6783 0)
(-1588.75 -27.0049 0)
(-1734.51 154.087 0)
(-1620.68 220.653 0)
(159439 0.842185 0)
(-134697 0.240668 0)
(-17294.5 -0.918706 0)
(-3781.98 -0.487597 0)
(-2246.71 -1.86828 0)
(-1615.74 -6.05752 0)
(-1539.84 -17.3919 0)
(-1458.34 -38.163 0)
(-1525.02 113.026 0)
(-753.544 171.325 0)
(-637.459 -881.911 1.3297e-11)
(-1181.54 -932.066 -1.57494e-11)
(-1031.79 -1415.06 -1.98684e-11)
(-661.564 -1599.18 0)
(-10885.1 -8268.28 -8.48383e-11)
(-1319.47 -956.248 1.31377e-11)
(-1200.98 -1045.18 1.57494e-11)
(-1049.15 -1539.54 1.98684e-11)
(-2758.24 -1627.9 0)
(-9914.61 -6724.74 0)
(-1715.36 4.98796e-10 0)
(-1572.58 1.16866e-10 0)
(-1483.74 -2.26979e-09 0)
(-2623.65 -2.11952e-09 0)
(-12688.7 -1.74464e-09 0)
(-1319.47 956.248 1.31377e-11)
(-1200.98 1045.18 1.57494e-11)
(-1049.15 1539.54 1.98684e-11)
(-2758.24 1627.9 0)
(-9914.61 6724.74 0)
(-637.459 881.911 -3.95723e-11)
(-1181.54 932.066 -1.57494e-11)
(-1031.79 1415.06 -1.98684e-11)
(-661.564 1599.18 -5.38662e-11)
(-10885.1 8268.28 8.48383e-11)
(-18684.7 9525.46 2.8247e-11)
(-3941.3 2665.28 -2.29611e-11)
(-5419.15 1368.21 0)
(-7513.93 991.74 1.57839e-11)
(-11955.9 1316.99 -6.43348e-12)
(-15092.8 10852.1 -1.42669e-11)
(-5770.34 1757.53 1.15207e-11)
(-5821.51 587.704 0)
(-7417.41 372.907 -9.88644e-12)
(-11103.1 533.029 1.6223e-12)
(-16486.2 -2.24287e-09 0)
(-6522.61 -1.13869e-09 0)
(-5900.54 1.25003e-09 0)
(-7572.95 -8.12712e-10 3.95907e-12)
(-10387.2 4.2591e-09 -3.2446e-12)
(-15092.8 -10852.1 -1.42669e-11)
(-5770.34 -1757.53 1.15207e-11)
(-5821.51 -587.704 0)
(-7417.41 -372.907 -9.88644e-12)
(-11103.1 -533.029 1.6223e-12)
(-18684.7 -9525.46 1.42669e-11)
(-3941.3 -2665.28 -8.02694e-14)
(-5419.15 -1368.21 0)
(-7513.93 -991.74 2.9868e-14)
(-11955.9 -1316.99 6.43348e-12)
(-14743.2 5197.21 0)
(-6082.43 4083.18 0)
(1668.58 3260.55 0)
(-182.833 2585.67 0)
(-1890.07 1388.23 0)
(-1923.26 553.428 0)
(-1589.89 222.621 0)
(-1504.92 147.561 0)
(-1493.35 102.195 0)
(-1361.55 118.17 0)
(-1037.51 34.169 0)
(-639.94 7.90977 0)
(-393.911 2.06883 0)
(-283.406 2.23893 0)
(-234.175 2.13113 0)
(-199.802 1.39939 0)
(-168.536 0.447672 0)
(-139.852 -0.294272 0)
(-115.678 -0.784271 0)
(-94.8954 -1.13692 0)
(-75.7225 -1.39522 0)
(-59.4715 -1.58103 0)
(-44.662 -1.69037 0)
(-30.5333 -1.73695 0)
(-18.2132 -1.70779 0)
(-8.39866 -1.63489 0)
(-1.31197 -1.54596 0)
(3.95408 -1.57937 0)
(11.9305 -1.50801 0)
(21.9287 -1.77536 0)
(48.0333 -1.66949 0)
(78.3035 -0.928287 0)
(122.383 -0.298438 0)
(156.821 2.49977 0)
(196.899 2.29905 0)
(220.518 7.89936 0)
(266.347 0.216462 0)
(2878.01 14.1365 0)
(47507.7 -79.7631 0)
(-48855.9 -3393.98 0)
(-14361.2 4903.35 0)
(-6670.93 5853.09 0)
(1316.09 4712.59 0)
(-338.215 2403.52 0)
(-2097.46 1051.85 0)
(-2074 319.825 0)
(-1644.15 104.292 0)
(-1519.67 61.1008 0)
(-1492.32 30.9087 0)
(-1366.51 58.6399 0)
(-1050.16 9.1226 0)
(-641.935 1.22938 0)
(-394.129 -0.526269 0)
(-283.299 -0.143749 0)
(-234.179 0.0111514 0)
(-199.892 -0.108142 0)
(-168.644 -0.391239 0)
(-139.928 -0.604508 0)
(-115.74 -0.722672 0)
(-94.9542 -0.844715 0)
(-75.7721 -0.968734 0)
(-59.5102 -1.08528 0)
(-44.69 -1.17628 0)
(-30.5514 -1.24686 0)
(-18.2214 -1.28456 0)
(-8.4006 -1.29209 0)
(-1.33077 -1.28668 0)
(3.92998 -1.36096 0)
(11.8765 -1.36071 0)
(21.8713 -1.53465 0)
(48.1048 -1.47203 0)
(78.4428 -0.872628 0)
(122.672 -0.139755 0)
(157.062 1.7434 0)
(197.646 3.52947 0)
(220.761 10.0406 0)
(266.643 13.2549 0)
(2866.44 24.6736 0)
(47430.4 -38.9935 0)
(-48813.9 1300.77 0)
(-12909.9 -6.45948e-10 0)
(-6137.93 4.39729e-08 0)
(665.064 4.94473e-08 0)
(-1247.78 2.48851e-08 0)
(-2496.24 -1.23215e-08 0)
(-2198.91 1.28867e-08 0)
(-1665.15 -5.42596e-09 0)
(-1526.27 -2.38839e-08 0)
(-1494.06 -2.9213e-08 0)
(-1367.88 -1.83449e-08 0)
(-1054.21 -2.44976e-08 0)
(-642.747 -8.52651e-09 0)
(-394.311 -4.68312e-10 0)
(-283.249 9.07557e-09 0)
(-234.165 5.08684e-09 0)
(-199.919 -3.29433e-09 0)
(-168.68 -8.88178e-10 0)
(-139.948 -9.49543e-09 0)
(-115.748 -3.08925e-08 0)
(-94.9669 -1.75536e-08 0)
(-75.7925 -1.08196e-09 0)
(-59.5319 1.14333e-08 0)
(-44.709 1.55996e-08 0)
(-30.5648 1.35649e-08 0)
(-18.2263 2.01859e-08 0)
(-8.39927 3.38477e-08 0)
(-1.33201 4.55232e-08 0)
(3.93254 4.52002e-08 0)
(11.88 3.98388e-08 0)
(21.8963 2.21722e-08 0)
(48.2259 1.50021e-08 0)
(78.6911 5.00933e-08 0)
(123.144 1.01801e-07 0)
(157.889 1.4332e-07 0)
(199.313 1.39686e-07 0)
(223.347 1.95351e-07 0)
(270.604 1.79024e-07 0)
(2862.81 8.7752e-08 0)
(47879 -1.75213e-07 0)
(-49371.3 -2.47915e-07 0)
(-14361.2 -4903.35 0)
(-6670.93 -5853.09 0)
(1316.09 -4712.59 0)
(-338.215 -2403.52 0)
(-2097.46 -1051.85 0)
(-2074 -319.825 0)
(-1644.15 -104.292 0)
(-1519.67 -61.1008 0)
(-1492.32 -30.9087 0)
(-1366.51 -58.6399 0)
(-1050.16 -9.1226 0)
(-641.935 -1.22937 0)
(-394.129 0.526269 0)
(-283.299 0.143749 0)
(-234.179 -0.0111514 0)
(-199.892 0.108142 0)
(-168.644 0.391239 0)
(-139.928 0.604508 0)
(-115.74 0.722672 0)
(-94.9542 0.844715 0)
(-75.7721 0.968734 0)
(-59.5102 1.08528 0)
(-44.69 1.17628 0)
(-30.5514 1.24686 0)
(-18.2214 1.28456 0)
(-8.4006 1.29209 0)
(-1.33077 1.28668 0)
(3.92998 1.36096 0)
(11.8765 1.36071 0)
(21.8713 1.53465 0)
(48.1048 1.47203 0)
(78.4428 0.872628 0)
(122.672 0.139755 0)
(157.062 -1.7434 0)
(197.646 -3.52947 0)
(220.761 -10.0406 0)
(266.643 -13.2549 0)
(2866.44 -24.6736 0)
(47430.4 38.9935 0)
(-48813.9 -1300.77 0)
(-14743.2 -5197.21 0)
(-6082.43 -4083.18 0)
(1668.58 -3260.55 0)
(-182.833 -2585.67 0)
(-1890.07 -1388.23 0)
(-1923.26 -553.428 0)
(-1589.89 -222.621 0)
(-1504.92 -147.561 0)
(-1493.35 -102.195 0)
(-1361.55 -118.17 0)
(-1037.51 -34.169 0)
(-639.94 -7.90977 0)
(-393.911 -2.06883 0)
(-283.406 -2.23893 0)
(-234.175 -2.13113 0)
(-199.802 -1.39939 0)
(-168.536 -0.447672 0)
(-139.852 0.294272 0)
(-115.678 0.784271 0)
(-94.8954 1.13692 0)
(-75.7225 1.39522 0)
(-59.4715 1.58103 0)
(-44.662 1.69037 0)
(-30.5333 1.73695 0)
(-18.2132 1.70779 0)
(-8.39866 1.63489 0)
(-1.31197 1.54596 0)
(3.95408 1.57937 0)
(11.9305 1.50801 0)
(21.9287 1.77536 0)
(48.0333 1.66949 0)
(78.3035 0.928286 0)
(122.383 0.298438 0)
(156.821 -2.49977 0)
(196.899 -2.29905 0)
(220.518 -7.89936 0)
(266.347 -0.216462 0)
(2878.01 -14.1365 0)
(47507.7 79.7631 0)
(-48855.9 3393.98 0)
(19401.9 3005.38 0)
(-6136.57 -3550.01 0)
(1847.88 -3811.69 0)
(656.577 -3056.61 0)
(-1062.49 -1791.07 0)
(-1517.14 -876.247 0)
(-1452.29 -449.003 0)
(-1461.19 -299.201 0)
(-1472.71 -211.175 0)
(-1329.58 -170.209 0)
(-995.62 -71.9386 0)
(-624.107 -21.0323 0)
(-390.824 -7.54767 0)
(-283.215 -6.4978 0)
(-233.656 -5.83246 0)
(-198.941 -4.18543 0)
(-167.706 -2.32349 0)
(-139.243 -0.873725 0)
(-115.282 0.0890019 0)
(-94.6389 0.682398 0)
(-75.5509 1.10058 0)
(-59.3697 1.38997 0)
(-44.6246 1.55154 0)
(-30.5614 1.60424 0)
(-18.2949 1.52438 0)
(-8.50435 1.37879 0)
(-1.38733 1.21807 0)
(3.87831 1.20355 0)
(11.9369 1.09385 0)
(21.9062 1.41967 0)
(47.6561 1.20211 0)
(77.7438 0.197481 0)
(120.857 -0.877577 0)
(155.711 -5.42657 0)
(195.122 -5.63014 0)
(222.348 -11.9341 0)
(263.074 -1.96302 0)
(2903.23 -25.6269 0)
(49478.7 -42.821 0)
(-51105.1 516.205 0)
(19167.3 9644.6 0)
(-12622.6 -2551.21 0)
(2047.89 -2432.03 0)
(1314.19 -2396.68 0)
(-232.77 -1761.64 0)
(-847.768 -1094.85 0)
(-1107.61 -681.52 0)
(-1299.19 -445.988 0)
(-1380.11 -324.531 0)
(-1244.51 -221.325 0)
(-916.216 -104.966 0)
(-586.38 -37.3304 0)
(-381.561 -15.1135 0)
(-281.855 -11.0026 0)
(-232.226 -8.96199 0)
(-196.882 -6.18839 0)
(-165.79 -3.36069 0)
(-137.854 -1.20129 0)
(-114.391 0.247677 0)
(-94.0581 1.14363 0)
(-75.1327 1.79771 0)
(-59.0916 2.2651 0)
(-44.4756 2.53737 0)
(-30.5444 2.64844 0)
(-18.3866 2.56438 0)
(-8.63716 2.39522 0)
(-1.44043 2.21276 0)
(3.875 2.27825 0)
(12.1354 2.233 0)
(22.0451 2.85123 0)
(47.0579 2.70531 0)
(76.5996 1.32004 0)
(117.781 -0.221013 0)
(152.837 -6.37276 0)
(191.581 -7.65804 0)
(223.07 -15.3401 0)
(254.907 -8.86845 0)
(2825.12 -34.8922 0)
(46973 -185.368 0)
(-48248.3 -3600.97 0)
(20813.6 7747.87 0)
(-17774 -1250.44 0)
(1996.79 -1232.41 0)
(1302.6 -1697.59 0)
(191.999 -1352.91 0)
(-476.306 -1020.9 0)
(-827.022 -750.022 0)
(-1117.18 -542.091 0)
(-1256.21 -416.528 0)
(-1118 -263.536 0)
(-818.316 -132.78 0)
(-537.523 -54.3479 0)
(-365.453 -25.1567 0)
(-277.288 -16.6609 0)
(-229.017 -12.1766 0)
(-193.544 -7.83578 0)
(-162.9 -3.90484 0)
(-135.766 -0.962015 0)
(-113.023 1.00216 0)
(-93.1453 2.2729 0)
(-74.4702 3.2141 0)
(-58.657 3.8852 0)
(-44.2552 4.26248 0)
(-30.5354 4.39753 0)
(-18.5389 4.25737 0)
(-8.84318 4.02223 0)
(-1.50004 3.78172 0)
(3.89783 3.94516 0)
(12.489 3.93093 0)
(22.3613 4.88899 0)
(46.1806 4.81335 0)
(74.9239 2.95895 0)
(113.444 0.983596 0)
(148.545 -6.33149 0)
(186.481 -8.30435 0)
(221.181 -16.9941 0)
(244.233 -14.9644 0)
(2733.15 -33.7142 0)
(46042.3 -129.034 0)
(-47277.3 -1919.67 0)
(23256.8 5695.77 0)
(-21276.3 -374.644 0)
(1616.99 -693.697 0)
(1198.07 -1170.8 0)
(419.312 -1011.61 0)
(-266.803 -893.418 0)
(-646.211 -728.193 0)
(-977.823 -597.485 0)
(-1111.69 -457.07 0)
(-971.085 -284.152 0)
(-714.634 -145.274 0)
(-482.671 -66.3585 0)
(-345.245 -33.939 0)
(-269.347 -21.7326 0)
(-223.721 -14.615 0)
(-188.911 -8.67132 0)
(-159.166 -3.79485 0)
(-133.125 -0.237897 0)
(-111.274 2.14038 0)
(-91.9266 3.76363 0)
(-73.579 5.00131 0)
(-58.0813 5.88754 0)
(-43.9819 6.37509 0)
(-30.5493 6.53816 0)
(-18.7482 6.35963 0)
(-9.09552 6.10344 0)
(-1.5147 5.84928 0)
(4.0188 6.19459 0)
(13.0449 6.28918 0)
(22.8954 7.56533 0)
(45.198 7.55575 0)
(72.9091 5.29209 0)
(108.828 2.80941 0)
(143.886 -4.73559 0)
(181.306 -7.48624 0)
(216.652 -16.2522 0)
(238.795 -20.1486 0)
(2715.19 -25.4935 0)
(45155.6 -84.6044 0)
(-46367.6 -1890.9 0)
(25657 4623.12 0)
(-23931.2 -60.9397 0)
(1229.58 -405.151 0)
(996.244 -752.72 0)
(459.296 -748.682 0)
(-203.194 -773.156 0)
(-541.851 -694.173 0)
(-855.917 -605.003 0)
(-954.275 -447.479 0)
(-817.541 -279.726 0)
(-608.442 -142.793 0)
(-430.236 -71.6546 0)
(-322.45 -39.3289 0)
(-258.666 -24.9341 0)
(-216.43 -15.8526 0)
(-183.117 -8.77302 0)
(-154.774 -3.32455 0)
(-130.046 0.593813 0)
(-109.167 3.34033 0)
(-90.3884 5.29481 0)
(-72.4235 6.84182 0)
(-57.3331 7.97616 0)
(-43.6282 8.62697 0)
(-30.5503 8.90422 0)
(-18.9578 8.83636 0)
(-9.33498 8.77923 0)
(-1.41221 8.71021 0)
(4.32174 9.51636 0)
(13.8099 10.0584 0)
(23.5818 11.9468 0)
(43.99 12.3945 0)
(70.3501 10.1902 0)
(103.781 7.72818 0)
(138.623 0.767463 0)
(175.383 -1.70711 0)
(208.979 -9.16667 0)
(235.328 -15.3898 0)
(2671.04 -10.3512 0)
(44244.7 -69.3478 0)
(-45407.2 -2115.59 0)
(27576.9 5186.13 0)
(-26121.7 1.68884 0)
(950.37 -336.4 0)
(867.031 -511.075 0)
(399.619 -613.141 0)
(-214.276 -682.667 0)
(-484.173 -658.979 0)
(-740.1 -575.263 0)
(-798.239 -413.912 0)
(-677.478 -256.209 0)
(-514.129 -136.89 0)
(-382.969 -73.8065 0)
(-300.223 -43.2367 0)
(-246.724 -27.4407 0)
(-208.148 -17.0299 0)
(-176.838 -9.26478 0)
(-150.14 -3.4906 0)
(-126.702 0.71209 0)
(-106.744 3.81736 0)
(-88.5524 6.05959 0)
(-70.9952 7.89857 0)
(-56.3611 9.30162 0)
(-43.0876 10.1622 0)
(-30.3475 10.6236 0)
(-18.8687 10.7715 0)
(-9.21708 11.0566 0)
(-0.804369 11.2538 0)
(5.31791 12.5413 0)
(15.3869 13.5156 0)
(25.1466 15.7647 0)
(43.5053 16.3191 0)
(68.4125 13.7504 0)
(99.7483 10.5707 0)
(134.794 2.94262 0)
(171.733 -0.0450052 0)
(203.467 -6.06664 0)
(237.653 -13.2796 0)
(2663.2 -1.2859 0)
(43126.9 -70.5795 0)
(-44268 -2329.61 0)
(30683.5 2753.04 0)
(-29252.9 -35.6782 0)
(735.463 -287.966 0)
(729.566 -423.62 0)
(293.944 -563.347 0)
(-247.365 -623.562 0)
(-438.353 -613.271 0)
(-619.762 -516.792 0)
(-646.822 -362.813 0)
(-550.593 -220.428 0)
(-432.673 -122.207 0)
(-339.988 -69.1415 0)
(-277.77 -41.7104 0)
(-233.413 -26.1955 0)
(-198.915 -15.8913 0)
(-170.07 -8.38886 0)
(-145.16 -2.92868 0)
(-123.004 1.08624 0)
(-104.014 4.09411 0)
(-86.4556 6.41881 0)
(-69.2994 8.53121 0)
(-55.1518 10.305 0)
(-42.3543 11.5696 0)
(-29.9632 12.5232 0)
(-18.5406 13.3396 0)
(-8.87027 14.4985 0)
(0.018487 15.4773 0)
(6.50129 17.889 0)
(16.9161 19.8826 0)
(26.2834 23.0725 0)
(42.049 24.4527 0)
(64.8108 22.2508 0)
(93.3664 19.2523 0)
(128.394 11.1474 0)
(166.702 6.74743 0)
(196.226 0.406058 0)
(239.935 -7.41509 0)
(2615.82 4.28658 0)
(42001.1 -100.288 0)
(-43103.5 -2582.47 0)
(30159.3 -281.488 0)
(-29052.2 -109.863 0)
(576.535 -260.32 0)
(601.664 -386.734 0)
(206.948 -535.54 0)
(-262.384 -563.55 0)
(-381.286 -542.787 0)
(-498.75 -441.219 0)
(-512.651 -306.814 0)
(-445.621 -187.866 0)
(-368.344 -109.68 0)
(-305.4 -65.4633 0)
(-258.839 -40.6647 0)
(-221.844 -25.2339 0)
(-190.989 -14.8633 0)
(-164.347 -7.76789 0)
(-141.009 -2.88341 0)
(-119.935 0.711347 0)
(-101.605 3.62138 0)
(-84.2766 6.19488 0)
(-67.2503 8.65538 0)
(-53.4332 10.7898 0)
(-40.95 12.3958 0)
(-28.6418 13.7515 0)
(-16.9652 15.0886 0)
(-7.15713 16.8311 0)
(2.46277 18.1709 0)
(9.56303 21.1369 0)
(20.382 23.3193 0)
(29.5505 26.472 0)
(42.7135 27.8887 0)
(63.4012 25.5 0)
(89.0486 21.7328 0)
(122.744 13.9287 0)
(161.382 8.62118 0)
(189.82 3.53838 0)
(241.393 -3.5412 0)
(2573.7 7.98129 0)
(40634.2 -115.513 0)
(-41719.7 -2758.18 0)
(30216.2 -415.331 0)
(-29232.5 -129.055 0)
(468.661 -245.713 0)
(464.354 -368.157 0)
(123.557 -519.034 0)
(-254.348 -511.098 0)
(-320.469 -471.433 0)
(-392.37 -372.378 0)
(-402.682 -258.859 0)
(-360.627 -161.543 0)
(-314.721 -97.9088 0)
(-273.482 -58.8214 0)
(-239.004 -34.6292 0)
(-208.549 -18.4574 0)
(-182.084 -8.00868 0)
(-158.526 -1.6242 0)
(-136.989 2.53087 0)
(-116.736 5.68251 0)
(-98.7294 8.54304 0)
(-81.6046 11.2198 0)
(-64.8716 13.891 0)
(-51.5474 16.3314 0)
(-39.5002 18.3152 0)
(-27.3683 20.1553 0)
(-15.573 21.997 0)
(-5.90007 24.1312 0)
(4.16775 25.5279 0)
(11.4625 28.4757 0)
(22.0572 29.7533 0)
(30.6866 31.3185 0)
(41.1123 31.0725 0)
(58.8787 26.9364 0)
(82.2159 20.075 0)
(115.759 10.4104 0)
(156.689 3.42538 0)
(184.506 0.18981 0)
(244.216 -4.58795 0)
(2507.92 8.88007 0)
(39335.5 -164.851 0)
(-40412.8 -3030.21 0)
(29683.1 -1172.8 0)
(-28888.7 -126.68 0)
(346.128 -242.293 0)
(338.283 -356.894 0)
(69.2036 -486.82 0)
(-216.514 -448.698 0)
(-247.61 -394.558 0)
(-293.906 -305.202 0)
(-309.483 -212.136 0)
(-290.523 -134.063 0)
(-269.358 -82.0192 0)
(-244.421 -46.6385 0)
(-219.943 -23.2758 0)
(-196.192 -8.55424 0)
(-174.768 0.502577 0)
(-154.191 6.41661 0)
(-133.968 10.5238 0)
(-114.142 13.8703 0)
(-96.2693 16.9264 0)
(-79.1232 19.7201 0)
(-62.3246 22.6239 0)
(-49.1699 25.3481 0)
(-37.2651 27.5561 0)
(-25.094 29.5934 0)
(-13.1339 31.4618 0)
(-3.75462 33.4481 0)
(6.64927 34.5783 0)
(13.6348 37.5114 0)
(23.1214 37.9195 0)
(30.8217 38.14 0)
(38.4907 36.2862 0)
(52.8036 30.6227 0)
(73.1235 21.0399 0)
(106.7 8.3712 0)
(151.533 -3.22348 0)
(182.098 -9.10121 0)
(249.767 -14.343 0)
(2419.27 -0.994396 0)
(37705.6 -232.072 0)
(-38763.2 -3343.15 0)
(28977.6 -1731.77 0)
(-28335.8 -143.47 0)
(246.818 -236.779 0)
(228.719 -331.856 0)
(35.091 -435.74 0)
(-165.441 -378.385 0)
(-182.191 -318.198 0)
(-216.582 -245.312 0)
(-237.766 -171.248 0)
(-235.242 -108.734 0)
(-230.476 -64.9838 0)
(-216.875 -31.6715 0)
(-202.304 -9.77786 0)
(-185.636 5.87384 0)
(-167.658 16.7101 0)
(-148.869 25.1693 0)
(-129.806 31.8469 0)
(-110.566 37.4545 0)
(-93.0923 42.1893 0)
(-76.1143 45.959 0)
(-59.4482 49.2477 0)
(-46.7946 51.7561 0)
(-35.4094 53.1139 0)
(-23.6046 53.7805 0)
(-11.8584 53.6781 0)
(-2.8969 53.4552 0)
(8.08326 52.3198 0)
(14.6822 53.1085 0)
(22.6629 51.0308 0)
(29.1127 48.5823 0)
(33.8684 43.788 0)
(44.1868 36.0641 0)
(60.7736 23.4194 0)
(92.3779 8.10377 0)
(139.852 -7.37987 0)
(173.791 -14.0263 0)
(252.028 -19.9679 0)
(2298.11 -14.2049 0)
(36114.9 -346.263 0)
(-37140.6 -3723.44 0)
(27891.3 -2367.03 0)
(-27448.1 -151.631 0)
(164.593 -226.664 0)
(146.557 -297.637 0)
(24.366 -368.696 0)
(-103.247 -308.756 0)
(-119.376 -250.073 0)
(-152.3 -191.307 0)
(-177.871 -129.558 0)
(-188.123 -75.8965 0)
(-195.098 -37.6457 0)
(-191.223 -7.04578 0)
(-183.763 13.9689 0)
(-170.667 30.3548 0)
(-156.174 41.826 0)
(-139.604 51.1359 0)
(-122.13 59.0323 0)
(-104.175 65.9396 0)
(-88.0741 71.8222 0)
(-72.3214 76.2978 0)
(-56.7383 79.9057 0)
(-45.4443 82.3963 0)
(-35.3144 83.3375 0)
(-24.5503 83.2317 0)
(-13.4474 81.9344 0)
(-5.06352 80.5618 0)
(6.31517 77.9412 0)
(12.3927 77.0002 0)
(18.7598 72.7993 0)
(23.8422 67.707 0)
(26.4277 59.8254 0)
(33.1757 48.7771 0)
(46.18 31.3494 0)
(77.0206 11.4807 0)
(130.208 -9.46953 0)
(169.968 -17.8226 0)
(249.595 -24.6627 0)
(2104.84 -29.1718 0)
(34131.3 -486.715 0)
(-35047.2 -4213.21 0)
(26545.1 -2802.49 0)
(-26273.3 -164.995 0)
(106.121 -218.876 0)
(91.8521 -262.473 0)
(24.3762 -294.572 0)
(-51.132 -240.178 0)
(-69.0125 -181.671 0)
(-100.449 -135.151 0)
(-126.553 -83.5349 0)
(-146.672 -40.8825 0)
(-164.129 -7.30792 0)
(-167.137 24.1403 0)
(-166.264 45.8128 0)
(-158.792 62.8464 0)
(-147.632 74.9789 0)
(-132.289 85.5803 0)
(-115.541 95.2649 0)
(-98.2412 104.239 0)
(-83.1108 112.051 0)
(-68.3247 117.725 0)
(-53.5715 121.464 0)
(-43.4875 123.047 0)
(-34.6044 122.309 0)
(-24.9567 120.142 0)
(-14.4312 116.485 0)
(-6.74486 113.268 0)
(4.65123 108.704 0)
(9.72731 105.531 0)
(13.7076 99.3788 0)
(16.6105 91.0049 0)
(15.6268 79.7496 0)
(16.7463 65.5123 0)
(24.8334 44.149 0)
(53.0433 22.0692 0)
(111.614 -4.31982 0)
(159.15 -13.8201 0)
(241.092 -21.3463 0)
(1852.86 -38.9827 0)
(32083 -621.604 0)
(-32830.9 -4638.74 0)
(25066.1 -3180.49 0)
(-24958.4 -145.435 0)
(70.6588 -176.07 0)
(73.6135 -198.006 0)
(45.8506 -193.35 0)
(5.54892 -157.007 0)
(-18.1677 -99.7828 0)
(-57.7326 -69.5535 0)
(-87.0308 -26.2479 0)
(-114.668 9.03192 0)
(-132.439 38.5222 0)
(-140.034 67.0871 0)
(-146.464 84.6084 0)
(-142.561 99.4713 0)
(-134.267 110.009 0)
(-120.056 119.934 0)
(-104.149 129.264 0)
(-87.9998 138.118 0)
(-75.0786 145.968 0)
(-63.2502 151.802 0)
(-51.6098 155.992 0)
(-44.63 158.164 0)
(-38.1138 157.832 0)
(-30.1627 155.897 0)
(-20.0713 152.271 0)
(-12.5614 149.493 0)
(-1.14001 145.104 0)
(3.40644 142.137 0)
(4.7615 137.046 0)
(4.9268 128.986 0)
(1.86207 116.926 0)
(-1.13031 104.828 0)
(4.31666 82.7381 0)
(30.3143 61.2418 0)
(95.6236 29.8858 0)
(153.56 15.7956 0)
(225.347 14.8265 0)
(1526.41 -10.8989 0)
(29698.8 -651.783 0)
(-30218.5 -4960.97 0)
(23439.8 -3759.51 0)
(-23378.1 -43.528 0)
(55.4617 -64.9655 0)
(75.2001 -78.4179 0)
(63.8844 -55.9705 0)
(39.0327 -47.2993 0)
(15.261 0.990304 0)
(-29.5884 25.7011 0)
(-50.8248 51.563 0)
(-84.2569 77.1564 0)
(-108.184 97.3971 0)
(-122.727 119.504 0)
(-135.057 130.646 0)
(-134.315 142.216 0)
(-127.913 151.291 0)
(-113.734 161.466 0)
(-98.0187 171.404 0)
(-82.1445 181.061 0)
(-69.9237 189.658 0)
(-58.6653 195.66 0)
(-47.4411 199.13 0)
(-41.7141 199.907 0)
(-36.7893 198.121 0)
(-30.3151 195.287 0)
(-20.6023 191.057 0)
(-13.6515 187.987 0)
(-2.43679 183.552 0)
(1.96255 181.19 0)
(1.03484 178.422 0)
(-2.7782 173.815 0)
(-7.6527 164.244 0)
(-16.1985 159.2 0)
(-17.168 142.453 0)
(2.11299 127.279 0)
(67.8207 104.876 0)
(144.638 90.7101 0)
(215.368 103.194 0)
(1210.49 80.012 0)
(27312.9 -520.787 0)
(-27700.2 -5182 0)
(21577.1 -3118.45 0)
(-21398.2 133.613 0)
(37.0376 87.9031 0)
(82.2815 64.1214 0)
(75.8376 66.0469 0)
(60.4384 60.0795 0)
(52.1782 98.7492 0)
(-8.99892 116.749 0)
(-37.4467 130.376 0)
(-70.5009 148.121 0)
(-91.6318 160.138 0)
(-107.994 172.945 0)
(-124.578 178.01 0)
(-122.667 187.878 0)
(-115.717 196.246 0)
(-100.674 206.219 0)
(-85.267 215.028 0)
(-70.4096 221.763 0)
(-61.0099 226.601 0)
(-54.1223 230.234 0)
(-47.5177 234.822 0)
(-45.6019 239.286 0)
(-42.5654 240.55 0)
(-36.9699 238.441 0)
(-27.1056 232.131 0)
(-19.7943 226.244 0)
(-7.69049 217.615 0)
(-1.5364 212.501 0)
(-2.34552 207.231 0)
(-8.73556 203.366 0)
(-12.2209 194.084 0)
(-22.1287 192.972 0)
(-26.4434 181.228 0)
(-5.89651 171.298 0)
(60.3841 162.221 0)
(151.939 160.585 0)
(215.038 191.937 0)
(925.118 199.393 0)
(24628.1 -209.101 0)
(-25097.2 -4425.24 0)
(20948.1 -2695.85 0)
(-20288.4 360.145 0)
(-11.5025 299.998 0)
(54.1387 262.714 0)
(59.9894 211.237 0)
(70.5458 211.768 0)
(69.8695 230.413 0)
(0.88832 227.675 0)
(-20.5931 254.255 0)
(-55.5769 255.612 0)
(-84.2636 259.538 0)
(-105.505 250.347 0)
(-120.667 243.204 0)
(-116.741 241.108 0)
(-110.239 239.037 0)
(-95.6356 243.184 0)
(-83.0397 251.492 0)
(-70.9922 262.452 0)
(-61.7601 273.881 0)
(-50.7436 279.513 0)
(-38.7186 281.955 0)
(-36.1945 282.654 0)
(-37.6035 279.235 0)
(-38.4272 277.351 0)
(-32.3563 274.177 0)
(-27.6405 276.197 0)
(-15.6793 277.192 0)
(-8.04368 279.864 0)
(-7.76865 282.586 0)
(-15.4468 286.819 0)
(-17.6689 286.915 0)
(-28.5867 288.229 0)
(-38.053 283.105 0)
(-16.2032 267.369 0)
(57.4963 257.108 0)
(173.274 251.587 0)
(252.765 279.495 0)
(824.036 311.277 0)
(22856.5 94.9452 0)
(-23791.7 -4517.83 0)
(20117.8 35558.6 0)
(-18511.3 3168.34 0)
(-56.8508 1492.01 0)
(-3.25198 1459.56 0)
(26.744 1596.52 0)
(78.9171 1923.9 0)
(67.5069 2229.78 0)
(13.9763 2500.21 0)
(-10.5253 2743.82 0)
(-65.4103 2883.13 0)
(-96.7051 2985.04 0)
(-123.734 3032.8 0)
(-133.481 3068.16 0)
(-126.682 3082.35 0)
(-113.717 3090.5 0)
(-88.6728 3086.97 0)
(-66.6992 3084.82 0)
(-48.8345 3048.15 0)
(-44.5697 3044.49 0)
(-46.3418 2988.19 0)
(-44.4907 2991.73 0)
(-48.223 3057.87 0)
(-47.6758 3059.06 0)
(-41.8441 3111.89 0)
(-28.2175 3089.63 0)
(-16.8887 3106.16 0)
(-4.1571 3068.26 0)
(3.66145 3036.57 0)
(4.35686 2977.11 0)
(-4.56448 2897.33 0)
(-10.862 2792.13 0)
(-25.7995 2621.88 0)
(-46.5453 2414.21 0)
(-30.9482 2102.61 0)
(45.1762 1763.05 0)
(173.512 1398.42 0)
(272.558 1198.52 0)
(747.279 1055.85 0)
(19974.6 2585.94 0)
(-21751.9 30714.9 0)
(56571.1 666970 0)
(-53116.1 59265.8 0)
(-1658.14 25762.9 0)
(154.844 28685 0)
(507.443 30534.9 0)
(680.783 33305.2 0)
(625.23 35476.8 0)
(496.229 37852.1 0)
(348.395 39846.7 0)
(176.879 41474.8 0)
(59.971 42987.3 0)
(-25.4132 44217.1 0)
(-72.9239 45351.2 0)
(-95.2139 46347.6 0)
(-105.791 47286.7 0)
(-101.11 48072.7 0)
(-120.447 48767.2 0)
(-109.856 49291.6 0)
(-119.538 49491.4 0)
(-101.577 49513.6 0)
(28.4244 49475.7 0)
(28.6868 49278.6 0)
(14.4534 49080.2 0)
(-8.97665 48152.8 0)
(-37.8782 47288.4 0)
(-48.2341 46050.1 0)
(-82.7381 44831.6 0)
(-95.8776 43304 0)
(-141.947 41846.2 0)
(-193.694 39984.8 0)
(-283.099 38194.2 0)
(-392.764 35918 0)
(-538.435 33655.2 0)
(-643.686 30982.7 0)
(-621.094 28368.6 0)
(-370.73 25419.6 0)
(-77.3479 23532.9 0)
(2161.01 20509.8 0)
(51437 51809.1 0)
(-54406 604321 0)
(714003 -738041 0)
(-636402 -62141.3 0)
(-29525.6 -29158.1 0)
(4595.19 -31534.1 0)
(4478.95 -33274 0)
(4841.15 -36220.2 0)
(4449.07 -38631.2 0)
(4224.94 -41149.2 0)
(3480.35 -43238.4 0)
(2961.01 -44799.9 0)
(2545.96 -46178.6 0)
(2154.16 -47218.6 0)
(1919.49 -48133.1 0)
(1738.52 -48925.2 0)
(1548.64 -49673.3 0)
(1337.99 -50288 0)
(1107.87 -50855.6 0)
(649 -51266.9 0)
(169.401 -51390 0)
(-61.4621 -51307.8 0)
(-270.943 -51219.8 0)
(-429.325 -51016.9 0)
(-1132.54 -50797.7 0)
(-1768.5 -49829.2 0)
(-2054.46 -48936.8 0)
(-2384.37 -47685.9 0)
(-2650.41 -46441.9 0)
(-2873.19 -44910.7 0)
(-3194.17 -43453.1 0)
(-3523.78 -41572.4 0)
(-3929.78 -39761.7 0)
(-4399.75 -37393.7 0)
(-4802.37 -34999.8 0)
(-5125.27 -32083.2 0)
(-5315.57 -29274 0)
(-4486.38 -26284.2 0)
(-4458.77 -24803.4 0)
(27995.3 -22544.3 0)
(582556 -54582 0)
(-647808 -674074 0)
(714003 738041 0)
(-636402 62141.3 0)
(-29525.6 29158.1 0)
(4595.19 31534.1 0)
(4478.95 33274 0)
(4841.15 36220.2 0)
(4449.07 38631.2 0)
(4224.94 41149.2 0)
(3480.35 43238.4 0)
(2961.01 44799.9 0)
(2545.96 46178.6 0)
(2154.16 47218.6 0)
(1919.49 48133.1 0)
(1738.52 48925.2 0)
(1548.64 49673.3 0)
(1337.99 50288 0)
(1107.87 50855.6 0)
(649 51266.9 0)
(169.401 51390 0)
(-61.4621 51307.8 0)
(-270.943 51219.8 0)
(-429.325 51016.9 0)
(-1132.54 50797.7 0)
(-1768.5 49829.2 0)
(-2054.46 48936.8 0)
(-2384.37 47685.9 0)
(-2650.41 46441.9 0)
(-2873.19 44910.7 0)
(-3194.17 43453.1 0)
(-3523.78 41572.4 0)
(-3929.78 39761.7 0)
(-4399.75 37393.7 0)
(-4802.37 34999.8 0)
(-5125.27 32083.2 0)
(-5315.57 29274 0)
(-4486.38 26284.2 0)
(-4458.77 24803.4 0)
(27995.3 22544.3 0)
(582556 54582 0)
(-647808 674074 0)
(56571.1 -666970 0)
(-53116.1 -59265.8 0)
(-1658.14 -25762.9 0)
(154.844 -28685 0)
(507.443 -30534.9 0)
(680.783 -33305.2 0)
(625.23 -35476.8 0)
(496.229 -37852.1 0)
(348.395 -39846.7 0)
(176.879 -41474.8 0)
(59.971 -42987.3 0)
(-25.4132 -44217.1 0)
(-72.9239 -45351.2 0)
(-95.2139 -46347.6 0)
(-105.791 -47286.7 0)
(-101.11 -48072.7 0)
(-120.447 -48767.2 0)
(-109.856 -49291.6 0)
(-119.538 -49491.4 0)
(-101.577 -49513.6 0)
(28.4244 -49475.7 0)
(28.6868 -49278.6 0)
(14.4534 -49080.2 0)
(-8.97665 -48152.8 0)
(-37.8782 -47288.4 0)
(-48.2341 -46050.1 0)
(-82.7381 -44831.6 0)
(-95.8776 -43304 0)
(-141.947 -41846.2 0)
(-193.694 -39984.8 0)
(-283.099 -38194.2 0)
(-392.764 -35918 0)
(-538.435 -33655.2 0)
(-643.686 -30982.7 0)
(-621.094 -28368.6 0)
(-370.73 -25419.6 0)
(-77.3479 -23532.9 0)
(2161.01 -20509.8 0)
(51437 -51809.1 0)
(-54406 -604321 0)
(20117.8 -35558.6 0)
(-18511.3 -3168.34 0)
(-56.8508 -1492.01 0)
(-3.25198 -1459.56 0)
(26.744 -1596.52 0)
(78.9171 -1923.9 0)
(67.5069 -2229.78 0)
(13.9763 -2500.21 0)
(-10.5253 -2743.82 0)
(-65.4103 -2883.13 0)
(-96.7051 -2985.04 0)
(-123.734 -3032.8 0)
(-133.481 -3068.16 0)
(-126.682 -3082.35 0)
(-113.717 -3090.5 0)
(-88.6728 -3086.97 0)
(-66.6992 -3084.82 0)
(-48.8345 -3048.15 0)
(-44.5697 -3044.49 0)
(-46.3418 -2988.19 0)
(-44.4907 -2991.73 0)
(-48.223 -3057.87 0)
(-47.6758 -3059.06 0)
(-41.8441 -3111.89 0)
(-28.2175 -3089.63 0)
(-16.8887 -3106.16 0)
(-4.1571 -3068.26 0)
(3.66145 -3036.57 0)
(4.35686 -2977.11 0)
(-4.56448 -2897.33 0)
(-10.862 -2792.13 0)
(-25.7995 -2621.88 0)
(-46.5453 -2414.21 0)
(-30.9482 -2102.61 0)
(45.1762 -1763.05 0)
(173.512 -1398.42 0)
(272.558 -1198.52 0)
(747.279 -1055.85 0)
(19974.6 -2585.94 0)
(-21751.9 -30714.9 0)
(20948.1 2695.85 0)
(-20288.4 -360.145 0)
(-11.5025 -299.998 0)
(54.1387 -262.714 0)
(59.9894 -211.237 0)
(70.5458 -211.768 0)
(69.8695 -230.413 0)
(0.88832 -227.675 0)
(-20.5931 -254.255 0)
(-55.5769 -255.612 0)
(-84.2636 -259.538 0)
(-105.505 -250.347 0)
(-120.667 -243.204 0)
(-116.741 -241.108 0)
(-110.239 -239.037 0)
(-95.6356 -243.184 0)
(-83.0397 -251.492 0)
(-70.9922 -262.452 0)
(-61.7601 -273.881 0)
(-50.7436 -279.513 0)
(-38.7186 -281.955 0)
(-36.1945 -282.654 0)
(-37.6035 -279.235 0)
(-38.4272 -277.351 0)
(-32.3563 -274.177 0)
(-27.6405 -276.197 0)
(-15.6793 -277.192 0)
(-8.04368 -279.864 0)
(-7.76865 -282.586 0)
(-15.4468 -286.819 0)
(-17.6689 -286.915 0)
(-28.5867 -288.229 0)
(-38.053 -283.105 0)
(-16.2032 -267.369 0)
(57.4963 -257.108 0)
(173.274 -251.587 0)
(252.765 -279.495 0)
(824.036 -311.277 0)
(22856.5 -94.9452 0)
(-23791.7 4517.83 0)
(21577.1 3118.45 0)
(-21398.2 -133.613 0)
(37.0376 -87.9031 0)
(82.2815 -64.1214 0)
(75.8376 -66.0469 0)
(60.4384 -60.0795 0)
(52.1782 -98.7492 0)
(-8.99891 -116.749 0)
(-37.4467 -130.376 0)
(-70.5009 -148.121 0)
(-91.6318 -160.138 0)
(-107.994 -172.945 0)
(-124.578 -178.01 0)
(-122.667 -187.878 0)
(-115.717 -196.246 0)
(-100.674 -206.219 0)
(-85.267 -215.028 0)
(-70.4096 -221.763 0)
(-61.0099 -226.601 0)
(-54.1223 -230.234 0)
(-47.5177 -234.822 0)
(-45.6019 -239.286 0)
(-42.5654 -240.55 0)
(-36.9699 -238.441 0)
(-27.1056 -232.131 0)
(-19.7943 -226.244 0)
(-7.69049 -217.615 0)
(-1.5364 -212.501 0)
(-2.34552 -207.231 0)
(-8.73556 -203.366 0)
(-12.2209 -194.084 0)
(-22.1287 -192.972 0)
(-26.4434 -181.228 0)
(-5.89651 -171.298 0)
(60.3841 -162.221 0)
(151.939 -160.585 0)
(215.038 -191.937 0)
(925.118 -199.393 0)
(24628.1 209.101 0)
(-25097.2 4425.24 0)
(23439.8 3759.51 0)
(-23378.1 43.528 0)
(55.4617 64.9655 0)
(75.2001 78.4179 0)
(63.8844 55.9705 0)
(39.0327 47.2993 0)
(15.261 -0.990303 0)
(-29.5884 -25.7011 0)
(-50.8248 -51.563 0)
(-84.2569 -77.1564 0)
(-108.184 -97.3971 0)
(-122.727 -119.504 0)
(-135.057 -130.646 0)
(-134.315 -142.216 0)
(-127.913 -151.291 0)
(-113.734 -161.466 0)
(-98.0187 -171.404 0)
(-82.1445 -181.061 0)
(-69.9237 -189.658 0)
(-58.6653 -195.66 0)
(-47.4411 -199.13 0)
(-41.7141 -199.907 0)
(-36.7893 -198.121 0)
(-30.3151 -195.287 0)
(-20.6023 -191.057 0)
(-13.6515 -187.987 0)
(-2.43679 -183.552 0)
(1.96255 -181.19 0)
(1.03484 -178.422 0)
(-2.7782 -173.815 0)
(-7.6527 -164.244 0)
(-16.1985 -159.2 0)
(-17.168 -142.453 0)
(2.11299 -127.279 0)
(67.8207 -104.876 0)
(144.638 -90.7101 0)
(215.368 -103.194 0)
(1210.49 -80.012 0)
(27312.9 520.787 0)
(-27700.2 5182 0)
(25066.1 3180.49 0)
(-24958.4 145.435 0)
(70.6588 176.07 0)
(73.6135 198.006 0)
(45.8506 193.35 0)
(5.54892 157.007 0)
(-18.1677 99.7828 0)
(-57.7326 69.5535 0)
(-87.0308 26.2479 0)
(-114.668 -9.03192 0)
(-132.439 -38.5222 0)
(-140.034 -67.0871 0)
(-146.464 -84.6084 0)
(-142.561 -99.4713 0)
(-134.267 -110.009 0)
(-120.056 -119.934 0)
(-104.149 -129.264 0)
(-87.9998 -138.118 0)
(-75.0786 -145.968 0)
(-63.2502 -151.802 0)
(-51.6098 -155.992 0)