/*--------------------------------*- C++ -*----------------------------------*\
| =========                 |                                                 |
| \\      /  F ield         | OpenFOAM: The Open Source CFD Toolbox           |
|  \\    /   O peration     | Version:  v1912                                 |
|   \\  /    A nd           | Website:  www.openfoam.com                      |
|    \\/     M anipulation  |                                                 |
\*---------------------------------------------------------------------------*/
FoamFile
{
    version     2.0;
    format      ascii;
    class       volScalarField;
    location    "1.56";
    object      T;
}
// * * * * * * * * * * * * * * * * * * * * * * * * * * * * * * * * * * * * * //

dimensions      [0 0 0 1 0 0 0];


internalField   nonuniform List<scalar> 
1900
(
1.00045
1.00291
1.00831
1.01405
1.01783
1.01973
1.02011
1.02056
1.02065
1.02101
1.00045
1.00291
1.00831
1.01405
1.01783
1.01973
1.02009
1.02038
1.02025
1.02032
1.00045
1.00291
1.00831
1.01405
1.01783
1.01974
1.0201
1.02042
1.02042
1.02048
1.00045
1.00291
1.00831
1.01405
1.01783
1.01973
1.02009
1.02038
1.02025
1.02032
1.00045
1.00291
1.00831
1.01405
1.01783
1.01973
1.02011
1.02056
1.02065
1.02101
1.01927
1.0215
1.02362
1.02483
1.00793
1.02094
1.02301
1.02493
1.02724
1.02005
1.02099
1.02265
1.02418
1.02565
1.01787
1.02094
1.02301
1.02493
1.02724
1.02005
1.01927
1.0215
1.02362
1.02483
1.00793
1.04714
1.04111
1.03985
1.02917
1.00681
1.04351
1.03998
1.03911
1.0346
1.0221
1.04326
1.03992
1.03847
1.03477
1.024
1.04351
1.03998
1.03911
1.0346
1.0221
1.04714
1.04111
1.03985
1.02917
1.00681
0.894633
0.817775
0.864898
0.873082
0.869921
0.87585
0.886555
0.902032
0.919885
0.938981
0.958043
0.975619
0.98951
0.997369
0.999731
0.999993
1
1
1
1
1
1
1
1
0.999991
0.999688
0.997049
0.988493
0.973577
0.954724
0.933989
0.912426
0.890572
0.868865
0.84812
0.830379
0.81797
0.801727
0.710413
0.629725
0.98795
0.864409
0.880959
0.875354
0.870487
0.875856
0.886695
0.902118
0.919928
0.939004
0.958062
0.975637
0.989523
0.997375
0.999732
0.999993
1
1
1
1
1
1
1
1
0.999991
0.999688
0.997049
0.988493
0.973577
0.954724
0.933989
0.912426
0.890572
0.868865
0.84812
0.830379
0.81797
0.801727
0.710413
0.629725
0.988334
0.896031
0.888389
0.876629
0.870774
0.875879
0.886726
0.902143
0.919942
0.939011
0.958068
0.975643
0.989528
0.997377
0.999733
0.999993
1
1
1
1
1
1
1
1
0.999991
0.999688
0.997049
0.988493
0.973577
0.954724
0.933989
0.912426
0.890572
0.868865
0.84812
0.830379
0.81797
0.801727
0.710413
0.629725
0.98795
0.864409
0.880959
0.875354
0.870487
0.875856
0.886695
0.902118
0.919928
0.939004
0.958062
0.975637
0.989523
0.997375
0.999732
0.999993
1
1
1
1
1
1
1
1
0.999991
0.999688
0.997049
0.988493
0.973577
0.954724
0.933989
0.912426
0.890572
0.868865
0.84812
0.830379
0.81797
0.801727
0.710413
0.629725
0.894633
0.817775
0.864898
0.873082
0.869921
0.87585
0.886555
0.902032
0.919885
0.938981
0.958043
0.975619
0.98951
0.997369
0.999731
0.999993
1
1
1
1
1
1
1
1
0.999991
0.999688
0.997049
0.988493
0.973577
0.954724
0.933989
0.912426
0.890572
0.868865
0.84812
0.830379
0.81797
0.801727
0.710413
0.629725
0.705712
0.758305
0.848702
0.866182
0.868027
0.874822
0.885968
0.901674
0.919711
0.938885
0.957965
0.975541
0.989448
0.997342
0.999727
0.999992
1
1
1
1
1
1
1
1
0.999991
0.999688
0.997049
0.988493
0.973577
0.954724
0.933989
0.912426
0.890572
0.868865
0.84812
0.830379
0.81797
0.801727
0.710413
0.629725
0.619019
0.738108
0.836514
0.855437
0.863088
0.871455
0.884274
0.900758
0.91927
0.938599
0.957717
0.975325
0.989304
0.997285
0.999718
0.999992
1
1
1
1
1
1
1
1
0.999991
0.999688
0.997049
0.988493
0.973577
0.954724
0.933989
0.912426
0.890572
0.868865
0.84812
0.830379
0.81797
0.801727
0.710413
0.629725
0.614725
0.737531
0.830775
0.848677
0.85767
0.867934
0.882334
0.899651
0.918587
0.938095
0.957309
0.975018
0.989121
0.997219
0.999708
0.999992
1
1
1
1
1
1
1
1
0.999991
0.999688
0.997049
0.988493
0.973577
0.954724
0.933989
0.912426
0.890572
0.868865
0.84812
0.830379
0.81797
0.801727
0.710413
0.629725
0.621999
0.731696
0.824828
0.843048
0.852607
0.864588
0.880254
0.898331
0.91766
0.937393
0.956785
0.974662
0.988926
0.997154
0.999698
0.999991
0.999999
0.999999
0.999999
0.999999
0.999999
0.999999
0.999999
0.999999
0.99999
0.999687
0.997049
0.988493
0.973576
0.954724
0.933988
0.912425
0.890572
0.868865
0.84812
0.830379
0.81797
0.801727
0.710413
0.629725
0.632685
0.725411
0.819967
0.838424
0.848091
0.86111
0.877826
0.89663
0.91638
0.936414
0.956079
0.97422
0.9887
0.997051
0.999641
0.99994
0.999949
0.999949
0.999949
0.999949
0.999949
0.999949
0.999949
0.999949
0.99994
0.999637
0.996999
0.988444
0.97353
0.954681
0.933951
0.912393
0.890546
0.868845
0.848105
0.830368
0.817961
0.801721
0.71041
0.629725
0.637336
0.720814
0.815645
0.833161
0.842783
0.856682
0.874497
0.894153
0.914515
0.934944
0.954827
0.9731
0.9877
0.996133
0.998747
0.999049
0.999058
0.999058
0.999058
0.999058
0.999058
0.999058
0.999058
0.999058
0.999049
0.998746
0.996113
0.987574
0.972692
0.953892
0.933224
0.911741
0.889974
0.868356
0.847697
0.830032
0.817689
0.801507
0.710297
0.629705
0.637197
0.715967
0.810021
0.825954
0.836059
0.851266
0.86971
0.889464
0.909768
0.930178
0.950085
0.968376
0.982967
0.991385
0.99399
0.99429
0.994299
0.994299
0.994299
0.994299
0.994299
0.994299
0.994299
0.994299
0.99429
0.993991
0.991381
0.982912
0.968157
0.949537
0.929097
0.907881
0.886415
0.865117
0.844791
0.827442
0.815392
0.799502
0.709041
0.629281
0.634327
0.710019
0.801289
0.815974
0.825803
0.840721
0.859129
0.878914
0.899185
0.919503
0.9393
0.957466
0.971921
0.98023
0.982788
0.98308
0.983089
0.983089
0.983089
0.983089
0.983089
0.983089
0.983089
0.983089
0.98308
0.982789
0.980234
0.971914
0.957394
0.939076
0.918994
0.898183
0.877165
0.856351
0.836538
0.819691
0.808095
0.792597
0.704117
0.626492
0.62503
0.698914
0.78554
0.799654
0.809764
0.825104
0.843705
0.863585
0.883859
0.90406
0.923654
0.941582
0.955789
0.963897
0.966365
0.966642
0.96665
0.96665
0.96665
0.96665
0.96665
0.96665
0.96665
0.96665
0.966642
0.966365
0.963901
0.955798
0.941584
0.923614
0.903907
0.883497
0.8629
0.842531
0.823178
0.806758
0.795475
0.780347
0.694212
0.618782
0.609753
0.683472
0.766757
0.781095
0.791773
0.807507
0.826212
0.846022
0.866152
0.886153
0.90548
0.923091
0.936966
0.9448
0.947142
0.947399
0.947406
0.947406
0.947406
0.947406
0.947406
0.947406
0.947406
0.947406
0.947399
0.947142
0.944802
0.936975
0.923109
0.9055
0.886154
0.866105
0.84587
0.825869
0.80687
0.790744
0.779601
0.764834
0.680914
0.606402
0.593048
0.667295
0.748445
0.762583
0.773429
0.789257
0.8079
0.827558
0.847455
0.867184
0.886199
0.903455
0.916946
0.92445
0.926639
0.92687
0.926876
0.926876
0.926876
0.926876
0.926876
0.926876
0.926876
0.926876
0.92687
0.926639
0.924451
0.91695
0.90347
0.886229
0.867231
0.847516
0.827612
0.807922
0.789217
0.773285
0.762228
0.747846
0.666222
0.591711
0.576305
0.651399
0.73023
0.744177
0.755081
0.770832
0.789367
0.808773
0.828413
0.847829
0.866508
0.883385
0.896455
0.903586
0.905599
0.905802
0.905807
0.905807
0.905807
0.905807
0.905807
0.905807
0.905807
0.905807
0.905802
0.905599
0.903586
0.896456
0.883392
0.866527
0.847868
0.828477
0.808866
0.789492
0.770984
0.755244
0.744285
0.730247
0.651216
0.575903
0.561218
0.636455
0.711767
0.726076
0.736838
0.752552
0.770793
0.790011
0.809333
0.828446
0.846779
0.863267
0.875888
0.882609
0.88443
0.884603
0.884607
0.884607
0.884607
0.884607
0.884607
0.884607
0.884607
0.884607
0.884603
0.88443
0.882609
0.875888
0.86327
0.846788
0.828466
0.80937
0.790074
0.770889
0.75268
0.736995
0.726242
0.711922
0.636553
0.561159
0.545448
0.622618
0.693627
0.708299
0.71909
0.734422
0.752612
0.771439
0.790555
0.809346
0.827349
0.843439
0.855585
0.861868
0.863489
0.863632
0.863635
0.863635
0.863635
0.863635
0.863635
0.863635
0.863635
0.863635
0.863632
0.863489
0.861868
0.855585
0.843439
0.82735
0.809352
0.790569
0.771467
0.752657
0.734486
0.719175
0.708405
0.693742
0.622717
0.545463
0.532301
0.608909
0.676135
0.691289
0.702084
0.717358
0.735071
0.753826
0.772639
0.791209
0.808901
0.824601
0.836251
0.842076
0.843496
0.843612
0.843615
0.843615
0.843615
0.843615
0.843615
0.843615
0.843615
0.843615
0.843612
0.843496
0.842076
0.836251
0.824601
0.808901
0.791209
0.772641
0.753832
0.735083
0.717377
0.702114
0.69133
0.676184
0.608955
0.532314
0.51967
0.598077
0.661036
0.676392
0.687494
0.702584
0.720264
0.738668
0.757387
0.775767
0.793243
0.808609
0.819794
0.82519
0.826427
0.826519
0.826521
0.826521
0.826521
0.826521
0.826521
0.826521
0.826521
0.826521
0.826519
0.826427
0.82519
0.819794
0.808608
0.793243
0.775766
0.757386
0.738667
0.720263
0.702586
0.687498
0.676401
0.661047
0.598089
0.519675
0.514889
0.589843
0.649849
0.66523
0.676972
0.692359
0.710135
0.728594
0.74714
0.765397
0.782773
0.797955
0.808774
0.813768
0.814835
0.814908
0.814909
0.814909
0.814909
0.814909
0.814909
0.814909
0.814909
0.814909
0.814908
0.814835
0.813768
0.808774
0.797955
0.782773
0.765397
0.747139
0.728592
0.710133
0.692357
0.67697
0.665229
0.649849
0.589844
0.514891
0.508668
0.579634
0.636124
0.650975
0.662849
0.678466
0.696755
0.715632
0.734562
0.752598
0.769618
0.784459
0.794787
0.799186
0.800055
0.800108
0.800109
0.800109
0.800109
0.800109
0.800109
0.800109
0.800109
0.800109
0.800108
0.800055
0.799186
0.794787
0.784459
0.769618
0.752598
0.734561
0.715631
0.696754
0.678464
0.662846
0.650973
0.636123
0.579633
0.508668
0.464248
0.527833
0.581934
0.592907
0.601809
0.613108
0.627463
0.641835
0.656825
0.672054
0.686755
0.699333
0.707617
0.710988
0.711565
0.711594
0.711594
0.711594
0.711594
0.711594
0.711594
0.711594
0.711594
0.711594
0.711594
0.711565
0.710988
0.707617
0.699333
0.686755
0.672054
0.656825
0.641835
0.627463
0.613107
0.601808
0.592906
0.581933
0.527832
0.464248
0.43338
0.460674
0.507108
0.514047
0.51918
0.532248
0.545713
0.561895
0.577133
0.593088
0.607482
0.618501
0.624187
0.625674
0.625816
0.62582
0.62582
0.62582
0.62582
0.62582
0.62582
0.62582
0.62582
0.62582
0.62582
0.625816
0.625674
0.624187
0.618501
0.607482
0.593088
0.577133
0.561895
0.545713
0.532248
0.51918
0.514047
0.507108
0.460674
0.43338
0.43338
0.460674
0.507108
0.514047
0.51918
0.532248
0.545713
0.561895
0.577133
0.593088
0.607482
0.618501
0.624187
0.625674
0.625816
0.62582
0.62582
0.62582
0.62582
0.62582
0.62582
0.62582
0.62582
0.62582
0.62582
0.625816
0.625674
0.624187
0.618501
0.607482
0.593088
0.577133
0.561895
0.545713
0.532248
0.51918
0.514047
0.507108
0.460674
0.43338
0.464248
0.527833
0.581934
0.592907
0.601809
0.613108
0.627463
0.641835
0.656825
0.672054
0.686755
0.699333
0.707617
0.710988
0.711565
0.711594
0.711594
0.711594
0.711594
0.711594
0.711594
0.711594
0.711594
0.711594
0.711594
0.711565
0.710988
0.707617
0.699333
0.686755
0.672054
0.656825
0.641835
0.627463
0.613107
0.601808
0.592906
0.581933
0.527832
0.464248
0.508668
0.579634
0.636124
0.650975
0.662849
0.678466
0.696755
0.715632
0.734562
0.752598
0.769618
0.784459
0.794787
0.799186
0.800055
0.800108
0.800109
0.800109
0.800109
0.800109
0.800109
0.800109
0.800109
0.800109
0.800108
0.800055
0.799186
0.794787
0.784459
0.769618
0.752598
0.734561
0.715631
0.696754
0.678464
0.662846
0.650973
0.636123
0.579633
0.508668
0.514889
0.589843
0.649849
0.66523
0.676972
0.692359
0.710135
0.728594
0.74714
0.765397
0.782773
0.797955
0.808774
0.813768
0.814835
0.814908
0.814909
0.814909
0.814909
0.814909
0.814909
0.814909
0.814909
0.814909
0.814908
0.814835
0.813768
0.808774
0.797955
0.782773
0.765397
0.747139
0.728592
0.710133
0.692357
0.67697
0.665229
0.649849
0.589844
0.514891
0.51967
0.598077
0.661036
0.676392
0.687494
0.702584
0.720264
0.738668
0.757387
0.775767
0.793243
0.808609
0.819794
0.82519
0.826427
0.826519
0.826521
0.826521
0.826521
0.826521
0.826521
0.826521
0.826521
0.826521
0.826519
0.826427
0.82519
0.819794
0.808608
0.793243
0.775766
0.757386
0.738667
0.720263
0.702586
0.687498
0.676401
0.661047
0.598089
0.519675
0.532301
0.608909
0.676135
0.691289
0.702084
0.717358
0.735071
0.753826
0.772639
0.791209
0.808901
0.824601
0.836251
0.842076
0.843496
0.843612
0.843615
0.843615
0.843615
0.843615
0.843615
0.843615
0.843615
0.843615
0.843612
0.843496
0.842076
0.836251
0.824601
0.808901
0.791209
0.772641
0.753832
0.735083
0.717377
0.702114
0.69133
0.676184
0.608955
0.532314
0.545448
0.622618
0.693627
0.708299
0.71909
0.734422
0.752612
0.771439
0.790555
0.809346
0.827349
0.843439
0.855585
0.861868
0.863489
0.863632
0.863635
0.863635
0.863635
0.863635
0.863635
0.863635
0.863635
0.863635
0.863632
0.863489
0.861868
0.855585
0.843439
0.82735
0.809352
0.790569
0.771467
0.752657
0.734486
0.719175
0.708405
0.693742
0.622717
0.545463
0.561218
0.636455
0.711767
0.726076
0.736838
0.752552
0.770793
0.790011
0.809333
0.828446
0.846779
0.863267
0.875888
0.882609
0.88443
0.884603
0.884607
0.884607
0.884607
0.884607
0.884607
0.884607
0.884607
0.884607
0.884603
0.88443
0.882609
0.875888
0.86327
0.846788
0.828466
0.80937
0.790074
0.770889
0.75268
0.736995
0.726242
0.711922
0.636553
0.561159
0.576305
0.651399
0.73023
0.744177
0.755081
0.770832
0.789367
0.808773
0.828413
0.847829
0.866508
0.883385
0.896455
0.903586
0.905599
0.905802
0.905807
0.905807
0.905807
0.905807
0.905807
0.905807
0.905807
0.905807
0.905802
0.905599
0.903586
0.896456
0.883392
0.866527
0.847868
0.828477
0.808866
0.789492
0.770984
0.755244
0.744285
0.730247
0.651216
0.575903
0.593048
0.667295
0.748445
0.762583
0.773429
0.789257
0.8079
0.827558
0.847455
0.867184
0.886199
0.903455
0.916946
0.92445
0.926639
0.92687
0.926876
0.926876
0.926876
0.926876
0.926876
0.926876
0.926876
0.926876
0.92687
0.926639
0.924451
0.91695
0.90347
0.886229
0.867231
0.847516
0.827612
0.807922
0.789217
0.773285
0.762228
0.747846
0.666222
0.591711
0.609753
0.683472
0.766757
0.781095
0.791773
0.807507
0.826212
0.846022
0.866152
0.886153
0.90548
0.923091
0.936966
0.9448
0.947142
0.947399
0.947406
0.947406
0.947406
0.947406
0.947406
0.947406
0.947406
0.947406
0.947399
0.947142
0.944802
0.936975
0.923109
0.9055
0.886154
0.866105
0.84587
0.825869
0.80687
0.790744
0.779601
0.764834
0.680914
0.606402
0.62503
0.698914
0.78554
0.799654
0.809764
0.825104
0.843705
0.863585
0.883859
0.90406
0.923654
0.941582
0.955789
0.963897
0.966365
0.966642
0.96665
0.96665
0.96665
0.96665
0.96665
0.96665
0.96665
0.96665
0.966642
0.966365
0.963901
0.955798
0.941584
0.923614
0.903907
0.883497
0.8629
0.842531
0.823178
0.806758
0.795475
0.780347
0.694212
0.618782
0.634327
0.710019
0.801289
0.815974
0.825803
0.840721
0.859129
0.878914
0.899185
0.919503
0.9393
0.957466
0.971921
0.98023
0.982788
0.98308
0.983089
0.983089
0.983089
0.983089
0.983089
0.983089
0.983089
0.983089
0.98308
0.982789
0.980234
0.971914
0.957394
0.939076
0.918994
0.898183
0.877165
0.856351
0.836538
0.819691
0.808095
0.792597
0.704117
0.626492
0.637197
0.715967
0.810021
0.825954
0.836059
0.851266
0.86971
0.889464
0.909768
0.930178
0.950085
0.968376
0.982967
0.991385
0.99399
0.99429
0.994299
0.994299
0.994299
0.994299
0.994299
0.994299
0.994299
0.994299
0.99429
0.993991
0.991381
0.982912
0.968157
0.949537
0.929097
0.907881
0.886415
0.865117
0.844791
0.827442
0.815392
0.799502
0.709041
0.629281
0.637336
0.720814
0.815645
0.833161
0.842783
0.856682
0.874497
0.894153
0.914515
0.934944
0.954827
0.9731
0.9877
0.996133
0.998747
0.999049
0.999058
0.999058
0.999058
0.999058
0.999058
0.999058
0.999058
0.999058
0.999049
0.998746
0.996113
0.987574
0.972692
0.953892
0.933224
0.911741
0.889974
0.868356
0.847697
0.830032
0.817689
0.801507
0.710297
0.629705
0.632685
0.725411
0.819967
0.838424
0.848091
0.86111
0.877826
0.89663
0.91638
0.936414
0.956079
0.97422
0.9887
0.997051
0.999641
0.99994
0.999949
0.999949
0.999949
0.999949
0.999949
0.999949
0.999949
0.999949
0.99994
0.999637
0.996999
0.988444
0.97353
0.954681
0.933951
0.912393
0.890546
0.868845
0.848105
0.830368
0.817961
0.801721
0.71041
0.629725
0.621999
0.731696
0.824828
0.843048
0.852607
0.864588
0.880254
0.898331
0.91766
0.937393
0.956785
0.974662
0.988926
0.997154
0.999698
0.999991
0.999999
0.999999
0.999999
0.999999
0.999999
0.999999
0.999999
0.999999
0.99999
0.999687
0.997049
0.988493
0.973576
0.954724
0.933988
0.912425
0.890572
0.868865
0.84812
0.830379
0.81797
0.801727
0.710413
0.629725
0.614725
0.737531
0.830775
0.848677
0.85767
0.867934
0.882334
0.899651
0.918587
0.938095
0.957309
0.975018
0.989121
0.997219
0.999708
0.999992
1
1
1
1
1
1
1
1
0.999991
0.999688
0.997049
0.988493
0.973577
0.954724
0.933989
0.912426
0.890572
0.868865
0.84812
0.830379
0.81797
0.801727
0.710413
0.629725
0.619019
0.738108
0.836514
0.855437
0.863088
0.871455
0.884274
0.900758
0.91927
0.938599
0.957717
0.975325
0.989304
0.997285
0.999718
0.999992
1
1
1
1
1
1
1
1
0.999991
0.999688
0.997049
0.988493
0.973577
0.954724
0.933989
0.912426
0.890572
0.868865
0.84812
0.830379
0.81797
0.801727
0.710413
0.629725
0.705712
0.758305
0.848702
0.866182
0.868027
0.874822
0.885968
0.901674
0.919711
0.938885
0.957965
0.975541
0.989448
0.997342
0.999727
0.999992
1
1
1
1
1
1
1
1
0.999991
0.999688
0.997049
0.988493
0.973577
0.954724
0.933989
0.912426
0.890572
0.868865
0.84812
0.830379
0.81797
0.801727
0.710413
0.629725
)
;

boundaryField
{
    inlet
    {
        type            fixedValue;
        value           uniform 1;
    }
    outlet
    {
        type            zeroGradient;
    }
    obstacle
    {
        type            zeroGradient;
    }
    empty
    {
        type            empty;
    }
}


// ************************************************************************* //
