/*--------------------------------*- C++ -*----------------------------------*\
| =========                 |                                                 |
| \\      /  F ield         | OpenFOAM: The Open Source CFD Toolbox           |
|  \\    /   O peration     | Version:  v1912                                 |
|   \\  /    A nd           | Website:  www.openfoam.com                      |
|    \\/     M anipulation  |                                                 |
\*---------------------------------------------------------------------------*/
FoamFile
{
    version     2.0;
    format      ascii;
    class       volVectorField;
    location    "1.56";
    object      U;
}
// * * * * * * * * * * * * * * * * * * * * * * * * * * * * * * * * * * * * * //

dimensions      [0 1 -1 0 0 0 0];


internalField   nonuniform List<vector> 
1900
(
(-0.00111871 7.43704e-08 0)
(-0.00726244 2.78844e-07 0)
(-0.0206993 1.11201e-06 0)
(-0.0349506 1.01259e-05 0)
(-0.0444594 4.37811e-05 0)
(-0.0486884 0.000158563 0)
(-0.0510333 0.000298575 0)
(-0.0511395 -0.000260437 0)
(-0.0502201 -0.00216347 0)
(-0.0447356 -0.0077657 0)
(-0.00111882 6.33383e-08 0)
(-0.00726485 -5.01609e-07 0)
(-0.0207035 5.13585e-07 0)
(-0.034947 1.40538e-05 0)
(-0.0444193 6.30578e-05 0)
(-0.0485209 0.000194325 0)
(-0.0505737 0.000298622 0)
(-0.0504099 -5.30016e-05 0)
(-0.0504857 -0.001316 0)
(-0.0512281 -0.00622288 0)
(-0.0011191 -2.26252e-13 0)
(-0.00726656 2.85622e-13 0)
(-0.020702 -2.22933e-13 0)
(-0.0349338 6.66462e-14 0)
(-0.044387 -5.3433e-14 0)
(-0.0484336 -1.99924e-15 0)
(-0.0503762 -4.30953e-14 0)
(-0.0502112 -2.20169e-14 0)
(-0.0510553 -4.10311e-14 0)
(-0.054894 -2.55876e-14 0)
(-0.00111882 -6.33388e-08 0)
(-0.00726485 5.01609e-07 0)
(-0.0207035 -5.13586e-07 0)
(-0.034947 -1.40538e-05 0)
(-0.0444193 -6.30578e-05 0)
(-0.0485209 -0.000194325 0)
(-0.0505737 -0.000298622 0)
(-0.0504099 5.30016e-05 0)
(-0.0504857 0.001316 0)
(-0.0512281 0.00622288 0)
(-0.00111871 -7.43707e-08 0)
(-0.00726244 -2.78844e-07 0)
(-0.0206993 -1.11201e-06 0)
(-0.0349506 -1.01259e-05 0)
(-0.0444594 -4.37811e-05 0)
(-0.0486884 -0.000158563 0)
(-0.0510333 -0.000298575 0)
(-0.0511395 0.000260437 0)
(-0.0502201 0.00216347 0)
(-0.0447356 0.0077657 0)
(-0.0462638 -0.0224089 0)
(-0.0615983 -0.0299902 0)
(-0.0767913 -0.0426081 0)
(-0.102061 -0.0574632 0)
(-0.185129 -0.0526239 0)
(-0.0602196 -0.0148588 0)
(-0.075925 -0.0195086 0)
(-0.0972896 -0.0296972 0)
(-0.138791 -0.0415118 0)
(-0.21964 -0.040743 0)
(-0.064848 -3.45001e-14 0)
(-0.079851 -3.23399e-14 0)
(-0.104529 1.27379e-14 0)
(-0.150981 -1.08694e-14 0)
(-0.228181 2.29493e-15 0)
(-0.0602196 0.0148588 0)
(-0.075925 0.0195086 0)
(-0.0972896 0.0296972 0)
(-0.138791 0.0415118 0)
(-0.21964 0.040743 0)
(-0.0462638 0.0224089 0)
(-0.0615983 0.0299902 0)
(-0.0767913 0.0426081 0)
(-0.102061 0.0574632 0)
(-0.185129 0.0526239 0)
(-0.228186 0.0101426 0)
(-0.19647 0.0163092 0)
(-0.183853 0.0181991 0)
(-0.182919 0.0375728 0)
(-0.260088 0.0906245 0)
(-0.237185 0.00982419 0)
(-0.204656 0.0106854 0)
(-0.179641 0.0117401 0)
(-0.148464 0.0315946 0)
(-0.110117 0.0997399 0)
(-0.243127 5.28195e-15 0)
(-0.207884 1.58043e-14 0)
(-0.175952 2.27205e-14 0)
(-0.125391 6.97225e-14 0)
(-0.0231696 4.8498e-14 0)
(-0.237185 -0.00982419 0)
(-0.204656 -0.0106854 0)
(-0.179641 -0.0117401 0)
(-0.148464 -0.0315946 0)
(-0.110117 -0.0997399 0)
(-0.228186 -0.0101426 0)
(-0.19647 -0.0163092 0)
(-0.183853 -0.0181991 0)
(-0.182919 -0.0375728 0)
(-0.260088 -0.0906245 0)
(-0.466433 0.0871524 0)
(-0.100288 -0.134367 0)
(-0.169776 -0.157213 0)
(-0.26562 -0.0755634 0)
(-0.305908 -0.0250527 0)
(-0.309098 -0.0104102 0)
(-0.283728 -0.00358583 0)
(-0.246749 -0.00235842 0)
(-0.201705 -0.00155136 0)
(-0.15341 -0.0010815 0)
(-0.10527 -0.000692192 0)
(-0.0610701 -0.00038582 0)
(-0.0262577 -0.000166707 0)
(-0.00658355 -4.49023e-05 0)
(-0.000672008 -5.10646e-06 0)
(-1.83171e-05 -1.54388e-07 0)
(-8.90965e-08 -8.10158e-10 0)
(-5.47377e-11 -4.89114e-13 0)
(-3.10815e-15 1.22983e-15 0)
(1.58122e-16 2.88369e-17 0)
(1.17269e-16 4.62082e-16 0)
(4.37081e-15 -9.297e-17 0)
(7.46624e-11 1.72343e-14 0)
(1.14363e-07 1.02809e-13 0)
(2.22888e-05 -1.06932e-13 0)
(0.000781947 1.40148e-13 0)
(0.00740761 -7.33854e-14 0)
(0.0289213 1.81409e-13 0)
(0.06657 8.37852e-15 0)
(0.114541 1.09141e-14 0)
(0.167854 4.83539e-14 0)
(0.223873 -6.53569e-14 0)
(0.28111 1.4476e-13 0)
(0.33837 -3.98692e-14 0)
(0.394339 3.48074e-14 0)
(0.447382 3.52483e-14 0)
(0.494984 6.26186e-14 0)
(0.530588 2.69551e-14 0)
(0.615977 6.47481e-14 0)
(1.22441 1.17404e-14 0)
(0.04623 0.105281 0)
(0.165381 -0.0971589 0)
(-0.0437839 -0.108321 0)
(-0.235719 -0.0439765 0)
(-0.300781 -0.0130774 0)
(-0.308755 -0.00526214 0)
(-0.284165 -0.00170132 0)
(-0.246796 -0.00112785 0)
(-0.20152 -0.000759717 0)
(-0.153236 -0.000543261 0)
(-0.10515 -0.000349128 0)
(-0.060992 -0.000193212 0)
(-0.0262151 -8.21971e-05 0)
(-0.00656791 -2.17249e-05 0)
(-0.000669468 -2.44225e-06 0)
(-1.82092e-05 -7.37734e-08 0)
(-8.83258e-08 -3.90195e-10 0)
(-5.41087e-11 -2.73268e-13 0)
(-3.26071e-15 7.92437e-16 0)
(1.24263e-16 2.49381e-16 0)
(7.1051e-17 2.41307e-16 0)
(4.29906e-15 3.44658e-16 0)
(7.46667e-11 8.88406e-16 0)
(1.14363e-07 9.4918e-14 0)
(2.22888e-05 -1.09952e-13 0)
(0.000781947 1.12729e-13 0)
(0.00740761 -1.01749e-13 0)
(0.0289213 1.80216e-13 0)
(0.06657 1.55396e-15 0)
(0.114541 -6.176e-15 0)
(0.167854 8.3411e-15 0)
(0.223873 -7.64417e-14 0)
(0.28111 1.09627e-13 0)
(0.33837 -4.21347e-14 0)
(0.394339 3.30514e-14 0)
(0.447382 2.11339e-14 0)
(0.494984 5.42583e-14 0)
(0.530588 1.19268e-14 0)
(0.615977 9.07024e-15 0)
(1.22441 -1.24792e-14 0)
(0.20063 2.50674e-14 0)
(0.251466 -1.18422e-14 0)
(0.0117363 -1.23736e-14 0)
(-0.222599 2.83723e-15 0)
(-0.299206 5.56208e-15 0)
(-0.308991 2.02643e-14 0)
(-0.284367 1.37297e-14 0)
(-0.246818 -9.93402e-15 0)
(-0.201458 -2.06939e-14 0)
(-0.153182 4.76716e-14 0)
(-0.105115 2.07708e-14 0)
(-0.060968 -1.54136e-14 0)
(-0.0261999 -3.40112e-14 0)
(-0.00656177 -7.51008e-15 0)
(-0.000668464 5.67756e-14 0)
(-1.81678e-05 -6.65055e-14 0)
(-8.80413e-08 -1.29448e-14 0)
(-5.38748e-11 -1.06034e-14 0)
(-3.08377e-15 5.30829e-16 0)
(2.37119e-17 3.03594e-16 0)
(5.19612e-17 2.52149e-16 0)
(4.41927e-15 5.91271e-16 0)
(7.46602e-11 -1.1018e-14 0)
(1.14363e-07 6.12576e-14 0)
(2.22888e-05 -7.40662e-14 0)
(0.000781947 7.21698e-14 0)
(0.00740761 -1.28109e-13 0)
(0.0289213 1.70952e-13 0)
(0.06657 -3.32474e-14 0)
(0.114541 -1.40959e-14 0)
(0.167854 -3.13295e-14 0)
(0.223873 -8.17762e-14 0)
(0.28111 8.73684e-14 0)
(0.33837 -5.51764e-14 0)
(0.394339 3.98545e-15 0)
(0.447382 1.87683e-14 0)
(0.494984 4.6126e-14 0)
(0.530588 -4.5404e-15 0)
(0.615977 -2.80363e-15 0)
(1.22441 -3.63394e-14 0)
(0.04623 -0.105281 0)
(0.165381 0.0971589 0)
(-0.0437839 0.108321 0)
(-0.235719 0.0439765 0)
(-0.300781 0.0130774 0)
(-0.308755 0.00526214 0)
(-0.284165 0.00170132 0)
(-0.246796 0.00112785 0)
(-0.20152 0.000759717 0)
(-0.153236 0.000543261 0)
(-0.10515 0.000349128 0)
(-0.060992 0.000193212 0)
(-0.0262151 8.21971e-05 0)
(-0.00656791 2.17249e-05 0)
(-0.000669468 2.44225e-06 0)
(-1.82092e-05 7.37732e-08 0)
(-8.83258e-08 3.90185e-10 0)
(-5.41038e-11 2.4357e-13 0)
(-3.09586e-15 1.41877e-16 0)
(-9.09183e-18 1.26421e-16 0)
(4.02246e-17 1.14194e-16 0)
(4.45548e-15 1.59179e-16 0)
(7.46572e-11 -2.43464e-14 0)
(1.14363e-07 1.95892e-14 0)
(2.22888e-05 -3.94116e-14 0)
(0.000781947 4.0192e-14 0)
(0.00740761 -1.35583e-13 0)
(0.0289213 1.30899e-13 0)
(0.06657 -8.15039e-14 0)
(0.114541 -8.59415e-15 0)
(0.167854 -7.05041e-14 0)
(0.223873 -1.00719e-13 0)
(0.28111 5.28704e-14 0)
(0.33837 -7.54024e-14 0)
(0.394339 -1.08957e-14 0)
(0.447382 1.74733e-14 0)
(0.494984 3.85778e-14 0)
(0.530588 -1.85329e-14 0)
(0.615977 -1.25165e-14 0)
(1.22441 -1.38343e-14 0)
(-0.466433 -0.0871524 0)
(-0.100288 0.134367 0)
(-0.169776 0.157213 0)
(-0.26562 0.0755634 0)
(-0.305908 0.0250527 0)
(-0.309098 0.0104102 0)
(-0.283728 0.00358583 0)
(-0.246749 0.00235842 0)
(-0.201705 0.00155136 0)
(-0.15341 0.0010815 0)
(-0.10527 0.000692192 0)
(-0.0610701 0.00038582 0)
(-0.0262577 0.000166707 0)
(-0.00658355 4.49023e-05 0)
(-0.000672008 5.10646e-06 0)
(-1.83171e-05 1.54388e-07 0)
(-8.90965e-08 8.10177e-10 0)
(-5.47231e-11 4.82067e-13 0)
(-3.2091e-15 -8.35115e-17 0)
(4.58965e-17 -4.68311e-17 0)
(2.00757e-17 -4.01409e-17 0)
(4.42238e-15 -9.06631e-17 0)
(7.46457e-11 -2.73039e-14 0)
(1.14363e-07 -3.52177e-14 0)
(2.22888e-05 -9.89288e-15 0)
(0.000781947 -1.13014e-15 0)
(0.00740761 -1.38647e-13 0)
(0.0289213 7.44254e-14 0)
(0.06657 -1.01658e-13 0)
(0.114541 -1.61046e-15 0)
(0.167854 -1.02779e-13 0)
(0.223873 -1.05494e-13 0)
(0.28111 1.10321e-14 0)
(0.33837 -6.7986e-14 0)
(0.394339 -9.10718e-15 0)
(0.447382 1.75677e-16 0)
(0.494984 6.98302e-15 0)
(0.530588 -2.73487e-14 0)
(0.615977 -4.57982e-14 0)
(1.22441 -1.62746e-14 0)
(-1.08471 -0.117542 0)
(-0.409317 0.161876 0)
(-0.321118 0.190727 0)
(-0.311982 0.107364 0)
(-0.322009 0.0431723 0)
(-0.312634 0.0196056 0)
(-0.28463 0.00861759 0)
(-0.247404 0.00547779 0)
(-0.202341 0.00340368 0)
(-0.153888 0.00223401 0)
(-0.105621 0.00140196 0)
(-0.0613367 0.000779775 0)
(-0.0264379 0.000333544 0)
(-0.0066581 8.6249e-05 0)
(-0.000684137 9.31763e-06 0)
(-1.88112e-05 2.67534e-07 0)
(-9.24249e-08 1.31654e-09 0)
(-5.72946e-11 6.94361e-13 0)
(-3.32775e-15 -3.21058e-17 0)
(8.52852e-17 1.3093e-17 0)
(2.70471e-17 3.43344e-17 0)
(4.33619e-15 -8.48261e-17 0)
(7.46505e-11 -7.78617e-17 0)
(1.14363e-07 -4.47691e-14 0)
(2.22888e-05 1.94627e-14 0)
(0.000781947 -5.99105e-15 0)
(0.00740761 -8.00653e-14 0)
(0.0289213 4.23471e-14 0)
(0.06657 -7.58921e-14 0)
(0.114541 6.82063e-14 0)
(0.167854 -1.24967e-13 0)
(0.223873 -6.87476e-14 0)
(0.28111 -1.9882e-14 0)
(0.33837 -3.38878e-14 0)
(0.394339 1.69284e-14 0)
(0.447382 -1.0753e-14 0)
(0.494984 3.67643e-15 0)
(0.530588 -3.33127e-14 0)
(0.615977 -4.30691e-15 0)
(1.22441 -1.66384e-14 0)
(-1.22634 -0.0855504 0)
(-0.572313 0.150168 0)
(-0.437921 0.183714 0)
(-0.372629 0.108013 0)
(-0.351652 0.0534593 0)
(-0.324146 0.0295139 0)
(-0.291689 0.0159019 0)
(-0.250854 0.0098666 0)
(-0.204299 0.00596901 0)
(-0.155181 0.00371164 0)
(-0.106587 0.00219438 0)
(-0.0620374 0.00113171 0)
(-0.0268534 0.000447626 0)
(-0.00681205 0.00010841 0)
(-0.000707671 1.11061e-05 0)
(-1.97367e-05 2.92958e-07 0)
(-9.83815e-08 1.26189e-09 0)
(-6.23354e-11 1.47915e-12 0)
(-4.07375e-15 4.66696e-13 0)
(-1.59843e-16 4.66472e-13 0)
(-2.07025e-17 4.66e-13 0)
(5.07476e-15 4.66633e-13 0)
(7.46255e-11 4.50356e-13 0)
(1.14363e-07 4.60866e-13 0)
(2.22888e-05 4.67182e-13 0)
(0.000781947 4.86684e-13 0)
(0.00740761 4.87155e-13 0)
(0.0289213 4.50144e-13 0)
(0.06657 3.42038e-13 0)
(0.114541 4.94206e-13 0)
(0.167854 1.5841e-13 0)
(0.223873 1.68753e-13 0)
(0.28111 4.62702e-14 0)
(0.33837 8.992e-14 0)
(0.394339 6.30566e-14 0)
(0.447382 2.90734e-14 0)
(0.494984 5.49663e-14 0)
(0.530588 -2.74905e-14 0)
(0.615977 -2.00067e-15 0)
(1.22441 1.00241e-14 0)
(-1.23652 -0.0314652 0)
(-0.610635 0.102386 0)
(-0.482116 0.143159 0)
(-0.411426 0.0868049 0)
(-0.375691 0.0511414 0)
(-0.340033 0.0321405 0)
(-0.301032 0.0202164 0)
(-0.256045 0.0125358 0)
(-0.207327 0.00772366 0)
(-0.157156 0.00464586 0)
(-0.107965 0.00260429 0)
(-0.062962 0.00126387 0)
(-0.0273615 0.000471151 0)
(-0.00698675 0.000106718 0)
(-0.000732839 9.55335e-06 0)
(-2.06812e-05 2.54621e-07 0)
(-1.05208e-07 4.29299e-09 0)
(-6.78951e-11 2.56143e-09 0)
(-5.61034e-15 2.56016e-09 0)
(3.63179e-16 2.56016e-09 0)
(2.31759e-16 2.56016e-09 0)
(5.15819e-15 2.56016e-09 0)
(7.47334e-11 2.56028e-09 0)
(1.14363e-07 2.56016e-09 0)
(2.22888e-05 2.56038e-09 0)
(0.000781947 2.55833e-09 0)
(0.00740761 2.54037e-09 0)
(0.0289213 2.45925e-09 0)
(0.06657 2.26796e-09 0)
(0.114541 1.95679e-09 0)
(0.167854 1.566e-09 0)
(0.223873 1.15934e-09 0)
(0.28111 7.92639e-10 0)
(0.33837 5.01598e-10 0)
(0.394339 2.9535e-10 0)
(0.447382 1.66395e-10 0)
(0.494984 8.85956e-11 0)
(0.530588 4.45371e-11 0)
(0.615977 1.17956e-11 0)
(1.22441 4.04781e-13 0)
(-1.23705 -0.00619685 0)
(-0.619094 0.0734723 0)
(-0.501683 0.108091 0)
(-0.438635 0.0678339 0)
(-0.395975 0.0469373 0)
(-0.355246 0.0312567 0)
(-0.310577 0.02036 0)
(-0.26199 0.0128573 0)
(-0.211108 0.00795986 0)
(-0.15964 0.00470973 0)
(-0.109614 0.00255355 0)
(-0.0639883 0.00116546 0)
(-0.0278702 0.000391255 0)
(-0.0071441 8.08764e-05 0)
(-0.000755253 1.08648e-05 0)
(-2.15724e-05 1.79942e-06 0)
(-1.10868e-07 1.4893e-06 0)
(-7.28705e-11 1.4878e-06 0)
(-9.23427e-15 1.48779e-06 0)
(2.7372e-14 1.48779e-06 0)
(6.84653e-15 1.4878e-06 0)
(-6.52315e-15 1.48779e-06 0)
(7.48991e-11 1.4878e-06 0)
(1.14363e-07 1.48779e-06 0)
(2.22888e-05 1.48778e-06 0)
(0.000781946 1.48701e-06 0)
(0.00740761 1.47873e-06 0)
(0.0289213 1.44326e-06 0)
(0.06657 1.35881e-06 0)
(0.114541 1.21885e-06 0)
(0.167854 1.03535e-06 0)
(0.223873 8.30835e-07 0)
(0.28111 6.29145e-07 0)
(0.33837 4.50093e-07 0)
(0.394339 3.05283e-07 0)
(0.447382 2.00649e-07 0)
(0.494984 1.25865e-07 0)
(0.530588 7.537e-08 0)
(0.615977 2.41351e-08 0)
(1.22441 1.45008e-09 0)
(-1.23494 0.0214947 0)
(-0.618401 0.0553703 0)
(-0.51059 0.0803459 0)
(-0.456819 0.0523222 0)
(-0.412166 0.0402086 0)
(-0.367583 0.0275899 0)
(-0.319093 0.0184512 0)
(-0.26775 0.011967 0)
(-0.214931 0.0074479 0)
(-0.162109 0.00431728 0)
(-0.111168 0.00226717 0)
(-0.0649017 0.00107841 0)
(-0.0283222 0.000472799 0)
(-0.00728972 0.000210302 0)
(-0.000772852 0.000135427 0)
(-2.21494e-05 0.000128039 0)
(-1.14355e-07 0.000127861 0)
(-7.51146e-11 0.00012786 0)
(-7.11064e-14 0.00012786 0)
(1.65145e-14 0.00012786 0)
(1.73896e-15 0.00012786 0)
(-2.45533e-14 0.00012786 0)
(7.4491e-11 0.00012786 0)
(1.14355e-07 0.00012786 0)
(2.22873e-05 0.000127859 0)
(0.000781904 0.000127807 0)
(0.00740727 0.000127271 0)
(0.0289201 0.000125042 0)
(0.0665677 0.000119798 0)
(0.114537 0.000111019 0)
(0.16785 9.91284e-05 0)
(0.223869 8.51403e-05 0)
(0.281105 7.02738e-05 0)
(0.338366 5.57803e-05 0)
(0.394336 4.2643e-05 0)
(0.447379 3.1922e-05 0)
(0.494982 2.30951e-05 0)
(0.530585 1.61734e-05 0)
(0.615975 6.22141e-06 0)
(1.22441 7.63506e-07 0)
(-1.23333 0.032135 0)
(-0.615299 0.0434753 0)
(-0.51468 0.0617162 0)
(-0.469207 0.0423496 0)
(-0.424378 0.0345381 0)
(-0.376609 0.0244426 0)
(-0.325408 0.0169683 0)
(-0.272109 0.0117131 0)
(-0.217977 0.00805539 0)
(-0.164306 0.00555611 0)
(-0.112604 0.00393653 0)
(-0.0656729 0.00300311 0)
(-0.0286282 0.00255524 0)
(-0.00735932 0.00239521 0)
(-0.000780083 0.00236511 0)
(-2.23551e-05 0.00236365 0)
(-1.15437e-07 0.00236365 0)
(-7.59286e-11 0.00236365 0)
(-1.06909e-13 0.00236365 0)
(-8.42481e-14 0.00236365 0)
(-1.2531e-13 0.00236365 0)
(-1.13146e-13 0.00236365 0)
(7.45318e-11 0.00236365 0)
(1.14153e-07 0.00236365 0)
(2.22568e-05 0.00236363 0)
(0.000781074 0.00236287 0)
(0.00740104 0.00235543 0)
(0.0289001 0.00232596 0)
(0.0665278 0.00225863 0)
(0.114477 0.00214654 0)
(0.167772 0.0019922 0)
(0.223778 0.00180391 0)
(0.281008 0.00159252 0)
(0.338269 0.00137129 0)
(0.394244 0.0011519 0)
(0.447297 0.000955478 0)
(0.494916 0.000774105 0)
(0.530507 0.00061853 0)
(0.615878 0.000283071 0)
(1.22441 7.01681e-05 0)
(-1.23109 0.0345365 0)
(-0.611114 0.0367526 0)
(-0.516446 0.052285 0)
(-0.477828 0.0385435 0)
(-0.43317 0.0327872 0)
(-0.383611 0.0259524 0)
(-0.330556 0.0211441 0)
(-0.275557 0.0178924 0)
(-0.220093 0.0158984 0)
(-0.165453 0.0148692 0)
(-0.113159 0.0143999 0)
(-0.0658857 0.0142236 0)
(-0.0286666 0.0142226 0)
(-0.00735335 0.0142838 0)
(-0.000777405 0.0143128 0)
(-2.21918e-05 0.0143169 0)
(-1.14002e-07 0.014317 0)
(-7.44696e-11 0.014317 0)
(4.85914e-14 0.014317 0)
(1.02477e-13 0.014317 0)
(8.81659e-14 0.014317 0)
(8.97336e-14 0.014317 0)
(7.33232e-11 0.014317 0)
(1.12772e-07 0.014317 0)
(2.20538e-05 0.0143169 0)
(0.000775809 0.0143131 0)
(0.00736389 0.0142783 0)
(0.0287871 0.0141489 0)
(0.0663125 0.013867 0)
(0.114155 0.0134094 0)
(0.167354 0.0127815 0)
(0.223279 0.0120047 0)
(0.28045 0.0111055 0)
(0.337676 0.0101226 0)
(0.393647 0.00908685 0)
(0.44671 0.00810584 0)
(0.494392 0.00712748 0)
(0.52994 0.00626212 0)
(0.614884 0.00344018 0)
(1.22432 0.00151984 0)
(-1.22787 0.0382456 0)
(-0.606643 0.0394048 0)
(-0.521153 0.0534679 0)
(-0.48505 0.0458672 0)
(-0.438547 0.0436373 0)
(-0.386945 0.0410778 0)
(-0.332471 0.0400472 0)
(-0.276531 0.0397383 0)
(-0.220426 0.039865 0)
(-0.165388 0.0403303 0)
(-0.112908 0.0409956 0)
(-0.0656068 0.0416591 0)
(-0.028461 0.0421588 0)
(-0.0072649 0.0424337 0)
(-0.000762226 0.0425192 0)
(-2.15291e-05 0.0425293 0)
(-1.09147e-07 0.0425296 0)
(-7.00141e-11 0.0425296 0)
(2.48151e-14 0.0425296 0)
(-1.59386e-14 0.0425296 0)
(-1.12331e-13 0.0425296 0)
(-1.61632e-13 0.0425296 0)
(6.93759e-11 0.0425296 0)
(1.08361e-07 0.0425296 0)
(2.14171e-05 0.0425293 0)
(0.000759856 0.0425198 0)
(0.00725718 0.0424355 0)
(0.0284825 0.0421403 0)
(0.0657627 0.0415337 0)
(0.113361 0.0405878 0)
(0.166333 0.0393183 0)
(0.222058 0.0377585 0)
(0.279061 0.0359413 0)
(0.336159 0.0339211 0)
(0.392048 0.0317247 0)
(0.445063 0.0296134 0)
(0.492742 0.0274509 0)
(0.528559 0.0254906 0)
(0.611522 0.0166696 0)
(1.22364 0.0109276 0)
(-1.22314 0.0541131 0)
(-0.603003 0.0604928 0)
(-0.523447 0.0738229 0)
(-0.486812 0.072806 0)
(-0.439819 0.0733814 0)
(-0.38744 0.0737419 0)
(-0.332298 0.074879 0)
(-0.275945 0.0763831 0)
(-0.219609 0.0780628 0)
(-0.164453 0.0797257 0)
(-0.111977 0.0812674 0)
(-0.0648245 0.0825658 0)
(-0.0279532 0.0834839 0)
(-0.00706425 0.0839674 0)
(-0.000729988 0.084114 0)
(-2.02001e-05 0.0841311 0)
(-9.98677e-08 0.0841316 0)
(-6.2536e-11 0.0841316 0)
(-1.15399e-13 0.0841316 0)
(-5.68422e-14 0.0841316 0)
(1.39783e-14 0.0841316 0)
(1.23535e-13 0.0841316 0)
(6.2341e-11 0.0841316 0)
(9.95974e-08 0.0841316 0)
(2.0152e-05 0.0841311 0)
(0.000728587 0.0841145 0)
(0.00705464 0.0839715 0)
(0.0279319 0.0834906 0)
(0.0648195 0.0825517 0)
(0.112057 0.0811502 0)
(0.164703 0.0793265 0)
(0.220134 0.0771286 0)
(0.27688 0.0745904 0)
(0.333757 0.0717705 0)
(0.389471 0.0686786 0)
(0.442388 0.0657744 0)
(0.490032 0.0628638 0)
(0.526091 0.0599498 0)
(0.606398 0.0451686 0)
(1.22109 0.0371643 0)
(-1.21628 0.0891957 0)
(-0.600261 0.0958662 0)
(-0.522546 0.11071 0)
(-0.485911 0.112546 0)
(-0.43851 0.114119 0)
(-0.385895 0.116263 0)
(-0.330539 0.119081 0)
(-0.274016 0.121863 0)
(-0.217653 0.124603 0)
(-0.1626 0.127132 0)
(-0.110338 0.129338 0)
(-0.0635303 0.131125 0)
(-0.0271462 0.132385 0)
(-0.00675521 0.133055 0)
(-0.000681617 0.133258 0)
(-1.82588e-05 0.133282 0)
(-8.67232e-08 0.133282 0)
(-5.15182e-11 0.133282 0)
(1.32833e-13 0.133282 0)
(8.07781e-14 0.133282 0)
(-3.67141e-14 0.133282 0)
(-6.48502e-14 0.133282 0)
(5.15937e-11 0.133282 0)
(8.67047e-08 0.133282 0)
(1.82503e-05 0.133282 0)
(0.000681187 0.133259 0)
(0.00675046 0.133058 0)
(0.0271276 0.132398 0)
(0.0634935 0.131151 0)
(0.11029 0.129359 0)
(0.16256 0.127097 0)
(0.217661 0.124429 0)
(0.274105 0.121385 0)
(0.330728 0.118046 0)
(0.386203 0.114365 0)
(0.439053 0.111121 0)
(0.486636 0.108023 0)
(0.52264 0.104161 0)
(0.601809 0.0867009 0)
(1.21507 0.0797764 0)
(-1.20602 0.137862 0)
(-0.59853 0.138886 0)
(-0.518534 0.15476 0)
(-0.482872 0.159268 0)
(-0.435346 0.161578 0)
(-0.382696 0.164765 0)
(-0.327402 0.168642 0)
(-0.271055 0.17233 0)
(-0.214876 0.175725 0)
(-0.16009 0.178797 0)
(-0.108181 0.181463 0)
(-0.0618494 0.183625 0)
(-0.0260975 0.185168 0)
(-0.00635471 0.185999 0)
(-0.000619948 0.186249 0)
(-1.58591e-05 0.186277 0)
(-7.11561e-08 0.186278 0)
(-3.98458e-11 0.186278 0)
(-7.88479e-14 0.186278 0)
(-6.05037e-14 0.186278 0)
(-9.05016e-14 0.186278 0)
(-1.05771e-13 0.186278 0)
(3.96965e-11 0.186278 0)
(7.11938e-08 0.186278 0)
(1.5863e-05 0.186277 0)
(0.000619945 0.186249 0)
(0.00635336 0.186 0)
(0.0260879 0.185176 0)
(0.0618201 0.18365 0)
(0.108121 0.181513 0)
(0.159998 0.178884 0)
(0.214756 0.175839 0)
(0.270907 0.172424 0)
(0.327236 0.168674 0)
(0.382535 0.164653 0)
(0.435295 0.161251 0)
(0.482885 0.158365 0)
(0.518333 0.153321 0)
(0.598872 0.13574 0)
(1.20536 0.134045 0)
(-1.18994 0.189387 0)
(-0.597304 0.187252 0)
(-0.514088 0.205549 0)
(-0.479255 0.211084 0)
(-0.431692 0.213717 0)
(-0.378669 0.216804 0)
(-0.323776 0.22146 0)
(-0.267476 0.225423 0)
(-0.211622 0.229283 0)
(-0.157138 0.232687 0)
(-0.105638 0.235689 0)
(-0.0598521 0.238159 0)
(-0.0248441 0.239946 0)
(-0.00587936 0.240913 0)
(-0.000548724 0.2412 0)
(-1.3214e-05 0.241231 0)
(-5.50274e-08 0.241232 0)
(-2.80254e-11 0.241232 0)
(1.3038e-13 0.241232 0)
(1.04232e-13 0.241232 0)
(3.85997e-14 0.241232 0)
(8.55215e-15 0.241232 0)
(2.81869e-11 0.241232 0)
(5.50532e-08 0.241232 0)
(1.32182e-05 0.241231 0)
(0.000548812 0.2412 0)
(0.00587946 0.240913 0)
(0.0248413 0.239949 0)
(0.0598381 0.238172 0)
(0.105602 0.235727 0)
(0.15707 0.23277 0)
(0.211512 0.229423 0)
(0.267314 0.225632 0)
(0.323569 0.221761 0)
(0.378424 0.217173 0)
(0.431449 0.214116 0)
(0.478984 0.211341 0)
(0.513813 0.205732 0)
(0.597193 0.186962 0)
(1.18962 0.188545 0)
(-1.17327 0.256739 0)
(-0.596206 0.238541 0)
(-0.510258 0.25897 0)
(-0.474759 0.2648 0)
(-0.426826 0.266962 0)
(-0.374686 0.271065 0)
(-0.31931 0.275238 0)
(-0.263642 0.279842 0)
(-0.207928 0.283815 0)
(-0.153845 0.28754 0)
(-0.102767 0.290807 0)
(-0.0575798 0.293545 0)
(-0.0234162 0.295541 0)
(-0.00534709 0.296617 0)
(-0.000472232 0.296928 0)
(-1.05499e-05 0.29696 0)
(-4.00575e-08 0.29696 0)
(-1.84153e-11 0.29696 0)
(2.04214e-14 0.29696 0)
(-6.73233e-16 0.29696 0)
(-3.74528e-14 0.29696 0)
(-4.18086e-14 0.29696 0)
(1.83994e-11 0.29696 0)
(4.00667e-08 0.29696 0)
(1.05517e-05 0.29696 0)
(0.00047229 0.296928 0)
(0.00534741 0.296617 0)
(0.0234162 0.295542 0)
(0.0575757 0.293549 0)
(0.102753 0.290825 0)
(0.153812 0.287584 0)
(0.207868 0.283903 0)
(0.26355 0.28 0)
(0.319186 0.275486 0)
(0.374528 0.271402 0)
(0.426628 0.267376 0)
(0.474522 0.265261 0)
(0.510056 0.25951 0)
(0.596083 0.238926 0)
(1.17316 0.25664 0)
(-1.14774 0.304467 0)
(-0.595679 0.290056 0)
(-0.508858 0.315804 0)
(-0.469888 0.318575 0)
(-0.423021 0.322085 0)
(-0.369352 0.324301 0)
(-0.315812 0.3303 0)
(-0.259228 0.333942 0)
(-0.20416 0.338442 0)
(-0.150263 0.342244 0)
(-0.0996426 0.34577 0)
(-0.0550831 0.348733 0)
(-0.0218558 0.350906 0)
(-0.00478124 0.35206 0)
(-0.000395275 0.35238 0)
(-8.0759e-06 0.352411 0)
(-2.74795e-08 0.352411 0)
(-1.12644e-11 0.352411 0)
(-1.52574e-14 0.352411 0)
(1.9066e-15 0.352411 0)
(-4.06995e-14 0.352411 0)
(-6.17283e-14 0.352411 0)
(1.11345e-11 0.352411 0)
(2.74809e-08 0.352411 0)
(8.07637e-06 0.352411 0)
(0.000395295 0.35238 0)
(0.00478143 0.352059 0)
(0.0218563 0.350905 0)
(0.055083 0.348734 0)
(0.0996397 0.345775 0)
(0.150253 0.342259 0)
(0.204139 0.338479 0)
(0.259195 0.334016 0)
(0.315762 0.330419 0)
(0.369285 0.324473 0)
(0.42292 0.322318 0)
(0.469765 0.318875 0)
(0.50877 0.316191 0)
(0.595649 0.290354 0)
(1.14775 0.304558 0)
(-1.12426 0.380605 0)
(-0.593878 0.340718 0)
(-0.505093 0.367672 0)
(-0.465504 0.371196 0)
(-0.416009 0.372589 0)
(-0.365863 0.378491 0)
(-0.310037 0.382204 0)
(-0.255233 0.387446 0)
(-0.199811 0.391552 0)
(-0.146447 0.395695 0)
(-0.0962407 0.399387 0)
(-0.0523769 0.40255 0)
(-0.02019 0.404852 0)
(-0.00420204 0.406042 0)
(-0.000321962 0.406355 0)
(-5.93944e-06 0.406383 0)
(-1.78379e-08 0.406384 0)
(-6.40436e-12 0.406384 0)
(-4.8755e-14 0.406384 0)
(-1.49545e-14 0.406384 0)
(-1.47257e-14 0.406384 0)
(-7.22202e-15 0.406384 0)
(6.34365e-12 0.406384 0)
(1.78376e-08 0.406384 0)
(5.93945e-06 0.406383 0)
(0.000321965 0.406355 0)
(0.00420209 0.406042 0)
(0.0201903 0.404852 0)
(0.0523775 0.40255 0)
(0.0962414 0.399387 0)
(0.146447 0.395697 0)
(0.199809 0.39156 0)
(0.255228 0.387465 0)
(0.310029 0.382238 0)
(0.365846 0.378546 0)
(0.415985 0.372673 0)
(0.465469 0.371319 0)
(0.505082 0.367825 0)
(0.593895 0.340834 0)
(1.12428 0.380651 0)
(-1.09514 0.414125 0)
(-0.593591 0.388336 0)
(-0.505583 0.422289 0)
(-0.460409 0.419743 0)
(-0.413459 0.423774 0)
(-0.359973 0.426429 0)
(-0.307667 0.433373 0)
(-0.251293 0.43748 0)
(-0.196667 0.44236 0)
(-0.143127 0.446353 0)
(-0.0931484 0.45011 0)
(-0.0498004 0.453337 0)
(-0.0185993 0.45569 0)
(-0.00366815 0.456842 0)
(-0.00025889 0.457127 0)
(-4.27576e-06 0.457151 0)
(-1.12141e-08 0.457151 0)
(-3.24293e-12 0.457151 0)
(9.72951e-14 0.457151 0)
(6.7252e-14 0.457151 0)
(1.52319e-14 0.457151 0)
(-4.85768e-15 0.457151 0)
(3.34162e-12 0.457151 0)
(1.12139e-08 0.457151 0)
(4.2757e-06 0.457151 0)
(0.000258888 0.457127 0)
(0.00366815 0.456842 0)
(0.0185994 0.45569 0)
(0.0498008 0.453336 0)
(0.0931493 0.450109 0)
(0.143128 0.446351 0)
(0.19667 0.442358 0)
(0.251296 0.437478 0)
(0.30767 0.433372 0)
(0.359977 0.426434 0)
(0.413461 0.423787 0)
(0.460414 0.419767 0)
(0.505592 0.422318 0)
(0.593603 0.388358 0)
(1.09515 0.414139 0)
(-1.06354 0.489483 0)
(-0.592094 0.436612 0)
(-0.502914 0.468231 0)
(-0.459074 0.467648 0)
(-0.410427 0.46954 0)
(-0.358997 0.473903 0)
(-0.304876 0.478364 0)
(-0.249339 0.483029 0)
(-0.194173 0.487693 0)
(-0.140465 0.491742 0)
(-0.090327 0.495459 0)
(-0.0473001 0.498682 0)
(-0.0170745 0.500931 0)
(-0.00318173 0.501879 0)
(-0.000205509 0.502108 0)
(-3.01307e-06 0.502126 0)
(-6.83493e-09 0.502126 0)
(-1.77696e-12 0.502126 0)
(-1.39811e-14 0.502126 0)
(-1.67673e-14 0.502126 0)
(-1.61241e-14 0.502126 0)
(1.00436e-14 0.502126 0)
(1.80385e-12 0.502126 0)
(6.83485e-09 0.502126 0)
(3.01305e-06 0.502126 0)
(0.000205508 0.502108 0)
(0.00318173 0.501879 0)
(0.0170745 0.500931 0)
(0.0473002 0.498682 0)
(0.0903275 0.495458 0)
(0.140466 0.49174 0)
(0.194175 0.48769 0)
(0.249342 0.483024 0)
(0.30488 0.478358 0)
(0.359002 0.473897 0)
(0.410434 0.469534 0)
(0.459083 0.467642 0)
(0.502923 0.468226 0)
(0.592099 0.436611 0)
(1.06354 0.489487 0)
(-1.04104 0.483016 0)
(-0.588681 0.468847 0)
(-0.503192 0.510993 0)
(-0.458365 0.509437 0)
(-0.411855 0.512538 0)
(-0.355219 0.511925 0)
(-0.30184 0.515568 0)
(-0.24385 0.516866 0)
(-0.188842 0.52035 0)
(-0.135866 0.524701 0)
(-0.0869336 0.528872 0)
(-0.0448526 0.532034 0)
(-0.015454 0.534386 0)
(-0.0026384 0.536029 0)
(-0.000151465 0.536408 0)
(-1.92681e-06 0.536433 0)
(-3.7279e-09 0.536434 0)
(-8.03428e-13 0.536434 0)
(2.4638e-14 0.536434 0)
(8.71342e-15 0.536434 0)
(-8.09467e-15 0.536434 0)
(1.04941e-14 0.536434 0)
(7.86513e-13 0.536434 0)
(3.72788e-09 0.536434 0)
(1.9268e-06 0.536433 0)
(0.000151465 0.536408 0)
(0.00263839 0.536029 0)
(0.015454 0.534386 0)
(0.0448526 0.532034 0)
(0.0869338 0.528872 0)
(0.135866 0.524701 0)
(0.188843 0.520348 0)
(0.243851 0.516863 0)
(0.301842 0.515564 0)
(0.355222 0.511921 0)
(0.411859 0.512532 0)
(0.458369 0.509431 0)
(0.503196 0.510987 0)
(0.588682 0.468844 0)
(1.04104 0.483016 0)
(-0.98412 0.580192 0)
(-0.554524 0.558882 0)
(-0.463159 0.595141 0)
(-0.429237 0.597806 0)
(-0.380197 0.599824 0)
(-0.33016 0.600194 0)
(-0.277641 0.602232 0)
(-0.224349 0.602896 0)
(-0.170842 0.604175 0)
(-0.118704 0.60626 0)
(-0.0704768 0.609949 0)
(-0.0324319 0.615207 0)
(-0.00981759 0.620032 0)
(-0.00149506 0.622319 0)
(-7.57983e-05 0.622739 0)
(-8.40043e-07 0.622761 0)
(-1.39717e-09 0.622761 0)
(-2.49748e-13 0.622761 0)
(-6.57772e-15 0.622761 0)
(-1.11825e-14 0.622761 0)
(-1.05556e-14 0.622761 0)
(-6.07973e-15 0.622761 0)
(2.64685e-13 0.622761 0)
(1.39702e-09 0.622761 0)
(8.40041e-07 0.622761 0)
(7.57981e-05 0.622739 0)
(0.00149505 0.622319 0)
(0.00981759 0.620032 0)
(0.0324319 0.615207 0)
(0.0704768 0.609949 0)
(0.118704 0.60626 0)
(0.170842 0.604174 0)
(0.224349 0.602895 0)
(0.277641 0.60223 0)
(0.33016 0.600192 0)
(0.380197 0.599822 0)
(0.429236 0.597803 0)
(0.463157 0.595138 0)
(0.554523 0.55888 0)
(0.984119 0.580192 0)
(-1.04038 1.04565 0)
(-0.573936 0.986543 0)
(-0.475628 1.04675 0)
(-0.482091 1.06977 0)
(-0.403767 1.10173 0)
(-0.368083 1.13181 0)
(-0.289687 1.15532 0)
(-0.239259 1.18071 0)
(-0.170927 1.19706 0)
(-0.115058 1.2117 0)
(-0.0628037 1.22039 0)
(-0.0249277 1.22512 0)
(-0.00557626 1.22684 0)
(-0.000504303 1.22723 0)
(-1.29237e-05 1.22728 0)
(-6.7809e-08 1.22728 0)
(-5.40337e-11 1.22728 0)
(-1.76209e-14 1.22728 0)
(-2.55215e-14 1.22728 0)
(-2.19788e-14 1.22728 0)
(-1.6164e-14 1.22728 0)
(-4.84209e-15 1.22728 0)
(-2.70275e-14 1.22728 0)
(5.39221e-11 1.22728 0)
(6.78087e-08 1.22728 0)
(1.29237e-05 1.22728 0)
(0.000504303 1.22723 0)
(0.00557626 1.22684 0)
(0.0249277 1.22512 0)
(0.0628037 1.22039 0)
(0.115058 1.2117 0)
(0.170927 1.19706 0)
(0.239259 1.18071 0)
(0.289687 1.15532 0)
(0.368083 1.13181 0)
(0.403767 1.10173 0)
(0.482091 1.06977 0)
(0.475628 1.04675 0)
(0.573936 0.986543 0)
(1.04038 1.04565 0)
(-1.04038 -1.04565 0)
(-0.573936 -0.986543 0)
(-0.475628 -1.04675 0)
(-0.482091 -1.06977 0)
(-0.403767 -1.10173 0)
(-0.368083 -1.13181 0)
(-0.289687 -1.15532 0)
(-0.239259 -1.18071 0)
(-0.170927 -1.19706 0)
(-0.115058 -1.2117 0)
(-0.0628037 -1.22039 0)
(-0.0249277 -1.22512 0)
(-0.00557626 -1.22684 0)
(-0.000504303 -1.22723 0)
(-1.29237e-05 -1.22728 0)
(-6.78083e-08 -1.22728 0)
(-5.38792e-11 -1.22728 0)
(1.42995e-13 -1.22728 0)
(1.36497e-13 -1.22728 0)
(6.9296e-14 -1.22728 0)
(4.17012e-14 -1.22728 0)
(2.13779e-14 -1.22728 0)
(-2.13833e-14 -1.22728 0)
(5.39869e-11 -1.22728 0)
(6.78087e-08 -1.22728 0)
(1.29237e-05 -1.22728 0)
(0.000504303 -1.22723 0)
(0.00557626 -1.22684 0)
(0.0249277 -1.22512 0)
(0.0628037 -1.22039 0)
(0.115058 -1.2117 0)
(0.170927 -1.19706 0)
(0.239259 -1.18071 0)
(0.289687 -1.15532 0)
(0.368083 -1.13181 0)
(0.403767 -1.10173 0)
(0.482091 -1.06977 0)
(0.475628 -1.04675 0)
(0.573936 -0.986543 0)
(1.04038 -1.04565 0)
(-0.98412 -0.580192 0)
(-0.554524 -0.558882 0)
(-0.463159 -0.595141 0)
(-0.429237 -0.597806 0)
(-0.380197 -0.599824 0)
(-0.33016 -0.600194 0)
(-0.277641 -0.602232 0)
(-0.224349 -0.602896 0)
(-0.170842 -0.604175 0)
(-0.118704 -0.60626 0)
(-0.0704768 -0.609949 0)
(-0.0324319 -0.615207 0)
(-0.00981759 -0.620032 0)
(-0.00149506 -0.622319 0)
(-7.57983e-05 -0.622739 0)
(-8.40042e-07 -0.622761 0)
(-1.3971e-09 -0.622761 0)
(-2.3654e-13 -0.622761 0)
(3.26043e-14 -0.622761 0)
(1.52533e-14 -0.622761 0)
(1.23833e-14 -0.622761 0)
(2.84507e-14 -0.622761 0)
(2.69998e-13 -0.622761 0)
(1.39707e-09 -0.622761 0)
(8.40041e-07 -0.622761 0)
(7.57981e-05 -0.622739 0)
(0.00149505 -0.622319 0)
(0.00981759 -0.620032 0)
(0.0324319 -0.615207 0)
(0.0704768 -0.609949 0)
(0.118704 -0.60626 0)
(0.170842 -0.604174 0)
(0.224349 -0.602895 0)
(0.277641 -0.60223 0)
(0.33016 -0.600192 0)
(0.380197 -0.599822 0)
(0.429236 -0.597803 0)
(0.463157 -0.595138 0)