/*--------------------------------*- C++ -*----------------------------------*\
| =========                 |                                                 |
| \\      /  F ield         | OpenFOAM: The Open Source CFD Toolbox           |
|  \\    /   O peration     | Version:  v1912                                 |
|   \\  /    A nd           | Website:  www.openfoam.com                      |
|    \\/     M anipulation  |                                                 |
\*---------------------------------------------------------------------------*/
FoamFile
{
    version     2.0;
    format      ascii;
    class       volVectorField;
    location    "1.12";
    object      U;
}
// * * * * * * * * * * * * * * * * * * * * * * * * * * * * * * * * * * * * * //

dimensions      [0 1 -1 0 0 0 0];


internalField   nonuniform List<vector> 
4800
(
(-6.21967 0.00450462 0)
(-1.98417 -0.010842 0)
(-0.855891 0.00132378 0)
(-0.536404 0.0104385 0)
(-0.0854377 0.00697629 0)
(0.266383 -0.00573593 0)
(0.489996 -0.0168841 0)
(0.550769 -0.0342735 0)
(0.548107 -0.0288573 0)
(0.640057 -0.0253605 0)
(0.726784 -0.0191347 0)
(0.785237 -0.0171674 0)
(0.716166 -0.0187368 0)
(0.228261 -0.019856 0)
(-0.788688 -0.0161324 0)
(-1.06399 -0.0100261 0)
(-0.984262 -0.005085 0)
(-0.869276 -0.00570719 0)
(-0.763348 -0.0109483 0)
(-0.677385 -0.0148398 0)
(-0.595491 -0.0131648 0)
(-0.506608 -0.00695644 0)
(-0.401097 0.000456369 0)
(-0.277428 0.0083998 0)
(-0.144713 0.01533 0)
(-0.0114353 0.0188778 0)
(0.116577 0.0208184 0)
(0.231914 0.0201508 0)
(0.321474 0.0175359 0)
(0.380264 0.00446568 0)
(0.416728 -0.0193187 0)
(0.458745 -0.0345123 0)
(0.528529 -0.0333228 0)
(0.588442 -0.018934 0)
(0.60184 0.00133575 0)
(0.555078 0.0140347 0)
(0.306063 0.0228814 0)
(-0.33001 0.0276068 0)
(-0.624338 0.0206266 0)
(-0.557743 0.00866173 0)
(-6.21736 0.011088 0)
(-1.85432 -0.00277288 0)
(-0.842236 0.00731581 0)
(-0.543731 0.0265223 0)
(-0.109229 -0.00124945 0)
(0.234427 -0.058888 0)
(0.480964 -0.0921049 0)
(0.568664 -0.106551 0)
(0.592814 -0.0617365 0)
(0.6602 -0.0208897 0)
(0.728652 -0.0136591 0)
(0.783816 -0.0330301 0)
(0.728476 -0.0273973 0)
(0.243735 -0.0259617 0)
(-0.77888 -0.0183243 0)
(-1.0616 -0.0139686 0)
(-0.993415 -0.018413 0)
(-0.883793 -0.0320046 0)
(-0.772801 -0.0495789 0)
(-0.676146 -0.0545338 0)
(-0.584878 -0.039148 0)
(-0.491039 -0.0106653 0)
(-0.386489 0.0172378 0)
(-0.267265 0.0392091 0)
(-0.140988 0.0529956 0)
(-0.0150228 0.0534699 0)
(0.103859 0.0450129 0)
(0.207438 0.0272895 0)
(0.289295 -0.00718257 0)
(0.35088 -0.0525074 0)
(0.408113 -0.0902854 0)
(0.475414 -0.0927849 0)
(0.554027 -0.0653763 0)
(0.628649 -0.0171705 0)
(0.634745 0.0462932 0)
(0.57165 0.0711522 0)
(0.307282 0.0869691 0)
(-0.340405 0.091578 0)
(-0.636412 0.0737056 0)
(-0.592797 0.0591912 0)
(-6.21752 0.0142906 0)
(-1.80632 0.0248401 0)
(-0.839829 0.0128799 0)
(-0.56413 0.0260268 0)
(-0.152191 -0.0216265 0)
(0.183801 -0.0980737 0)
(0.450966 -0.13713 0)
(0.575413 -0.13801 0)
(0.648884 -0.0898502 0)
(0.67112 -0.0476856 0)
(0.720354 -0.0290196 0)
(0.778109 -0.0485483 0)
(0.736554 -0.0408375 0)
(0.248105 -0.040369 0)
(-0.781515 -0.0329424 0)
(-1.06127 -0.0298878 0)
(-1.00578 -0.0394265 0)
(-0.898753 -0.0587754 0)
(-0.780334 -0.0790408 0)
(-0.669793 -0.0799001 0)
(-0.566539 -0.0560379 0)
(-0.465886 -0.0145378 0)
(-0.359183 0.02635 0)
(-0.245394 0.0553485 0)
(-0.129802 0.0708059 0)
(-0.0181039 0.0645988 0)
(0.0827843 0.0490794 0)
(0.16665 0.0206704 0)
(0.237227 -0.0232589 0)
(0.30775 -0.0686745 0)
(0.388439 -0.096255 0)
(0.484644 -0.0962829 0)
(0.587325 -0.0616219 0)
(0.677626 -0.0154865 0)
(0.696072 0.0503463 0)
(0.615586 0.0869376 0)
(0.320696 0.111558 0)
(-0.367081 0.117113 0)
(-0.677771 0.0988074 0)
(-0.64681 0.0844873 0)
(-6.21951 0.0159694 0)
(-1.92531 0.00491726 0)
(-0.851683 0.00601616 0)
(-0.594775 0.0105298 0)
(-0.210225 -0.0598289 0)
(0.146674 -0.124429 0)
(0.423451 -0.156527 0)
(0.601892 -0.143011 0)
(0.693696 -0.117585 0)
(0.704197 -0.0765195 0)
(0.72043 -0.0372969 0)
(0.774661 -0.0417745 0)
(0.739522 -0.0420753 0)
(0.248066 -0.0490243 0)
(-0.783835 -0.0467859 0)
(-1.05869 -0.0445648 0)
(-1.02484 -0.0546192 0)
(-0.915617 -0.0754046 0)
(-0.785604 -0.0960621 0)
(-0.660667 -0.0931839 0)
(-0.543841 -0.0669396 0)
(-0.432747 -0.0206669 0)
(-0.324975 0.0273928 0)
(-0.221513 0.0611424 0)
(-0.12283 0.0730677 0)
(-0.0317989 0.0579555 0)
(0.0458072 0.0265843 0)
(0.117833 -0.00941431 0)
(0.198387 -0.0365387 0)
(0.291362 -0.0585356 0)
(0.390614 -0.0727819 0)
(0.501311 -0.0644054 0)
(0.612912 -0.0361754 0)
(0.713386 -0.00469945 0)
(0.752858 0.0476012 0)
(0.662713 0.0944973 0)
(0.329632 0.127856 0)
(-0.392719 0.136091 0)
(-0.714904 0.132854 0)
(-0.691418 0.115076 0)
(-6.21955 0.0158873 0)
(-1.76122 -0.020446 0)
(-0.85664 0.00389601 0)
(-0.643479 -0.0259747 0)
(-0.266245 -0.102425 0)
(0.132738 -0.13661 0)
(0.412794 -0.149658 0)
(0.626086 -0.138814 0)
(0.730696 -0.128291 0)
(0.744167 -0.0976281 0)
(0.741323 -0.0539776 0)
(0.782911 -0.0334306 0)
(0.735657 -0.0441725 0)
(0.241202 -0.053345 0)
(-0.783056 -0.0579644 0)
(-1.0559 -0.0563526 0)
(-1.04122 -0.0650965 0)
(-0.928777 -0.0821217 0)
(-0.786094 -0.0990705 0)
(-0.647383 -0.09316 0)
(-0.51623 -0.0660426 0)
(-0.394487 -0.0206535 0)
(-0.288232 0.0246128 0)
(-0.20056 0.0526595 0)
(-0.127114 0.0561371 0)
(-0.0639666 0.0212971 0)
(0.00146269 -0.0216092 0)
(0.0884095 -0.0379761 0)
(0.188848 -0.0340659 0)
(0.29557 -0.0436293 0)
(0.403347 -0.0363043 0)
(0.512113 -0.0231791 0)
(0.626585 -0.0116409 0)
(0.738148 -0.00506532 0)
(0.802619 0.0288657 0)
(0.719532 0.0855245 0)
(0.353832 0.127423 0)
(-0.40761 0.144554 0)
(-0.74941 0.155299 0)
(-0.73563 0.127788 0)
(-6.22011 0.0144694 0)
(-1.73706 -0.00928796 0)
(-0.877825 0.0011851 0)
(-0.70112 -0.0784624 0)
(-0.298929 -0.126777 0)
(0.129436 -0.132067 0)
(0.416038 -0.127504 0)
(0.643031 -0.125534 0)
(0.752444 -0.123398 0)
(0.778668 -0.105661 0)
(0.775179 -0.072424 0)
(0.800623 -0.0355424 0)
(0.731674 -0.0450722 0)
(0.229947 -0.0526165 0)
(-0.782498 -0.0610517 0)
(-1.05659 -0.0622813 0)
(-1.05051 -0.073504 0)
(-0.933852 -0.0828008 0)
(-0.781077 -0.0907984 0)
(-0.631973 -0.0795928 0)
(-0.489886 -0.0517251 0)
(-0.360381 -0.0144216 0)
(-0.25891 0.0196449 0)
(-0.192362 0.0345291 0)
(-0.148267 0.0169564 0)
(-0.107105 -0.0302391 0)
(-0.0257 -0.0553883 0)
(0.0822458 -0.0458108 0)
(0.201192 -0.0358205 0)
(0.315824 -0.0216434 0)
(0.416972 -0.00235671 0)
(0.51164 0.00988368 0)
(0.622345 0.010572 0)
(0.745005 0.00282579 0)
(0.839825 0.0235114 0)
(0.778014 0.0781885 0)
(0.391338 0.118467 0)
(-0.411 0.143918 0)
(-0.787198 0.157327 0)
(-0.779879 0.121614 0)
(-6.22248 0.0127391 0)
(-2.05168 -0.0230758 0)
(-0.929369 -0.0143636 0)
(-0.744286 -0.123545 0)
(-0.304196 -0.124425 0)
(0.132665 -0.1158 0)
(0.425802 -0.101363 0)
(0.652629 -0.109216 0)
(0.763703 -0.111329 0)
(0.802431 -0.103252 0)
(0.811603 -0.083923 0)
(0.830103 -0.0443153 0)
(0.737038 -0.0429207 0)
(0.218039 -0.0482908 0)
(-0.78337 -0.0563188 0)
(-1.06357 -0.0587662 0)
(-1.05675 -0.0709622 0)
(-0.929097 -0.0741596 0)
(-0.767834 -0.0718526 0)
(-0.613432 -0.0538303 0)
(-0.467742 -0.0297107 0)
(-0.34051 -0.00682399 0)
(-0.250125 0.00788976 0)
(-0.204449 0.00295515 0)
(-0.183461 -0.0309717 0)
(-0.134744 -0.0645201 0)
(-0.0331235 -0.0637324 0)
(0.0932156 -0.051686 0)
(0.22535 -0.0279155 0)
(0.342317 -0.00679812 0)
(0.430223 0.0115487 0)
(0.510353 0.0201787 0)
(0.619413 0.0163631 0)
(0.747099 0.00481242 0)
(0.864901 0.0205056 0)
(0.826683 0.0651423 0)
(0.428673 0.0978243 0)
(-0.411284 0.128637 0)
(-0.820516 0.135038 0)
(-0.82822 0.106052 0)
(-6.21984 0.00993394 0)
(-1.76963 -0.046947 0)
(-0.949572 -0.0247925 0)
(-0.764917 -0.139023 0)
(-0.296726 -0.101785 0)
(0.14268 -0.0918655 0)
(0.436957 -0.0786987 0)
(0.656091 -0.0911088 0)
(0.766043 -0.0953127 0)
(0.815313 -0.0944084 0)
(0.839963 -0.0863573 0)
(0.86034 -0.0567144 0)
(0.754147 -0.0460301 0)
(0.212353 -0.0472155 0)
(-0.781363 -0.0465107 0)
(-1.07141 -0.0456005 0)
(-1.05549 -0.0600611 0)
(-0.91523 -0.0525338 0)
(-0.74924 -0.0396349 0)
(-0.596944 -0.0190484 0)
(-0.457009 -0.00467309 0)
(-0.341818 -0.000420297 0)
(-0.266353 -0.00743649 0)
(-0.232626 -0.0365305 0)
(-0.210619 -0.068011 0)
(-0.137888 -0.0770123 0)
(-0.0217642 -0.0688998 0)
(0.113329 -0.0479677 0)
(0.253254 -0.025862 0)
(0.364763 -0.00968976 0)
(0.439329 0.0024517 0)
(0.51225 0.00685341 0)
(0.617118 0.00418607 0)
(0.754956 -0.00139847 0)
(0.884472 0.0110433 0)
(0.866628 0.0444144 0)
(0.464891 0.0706782 0)
(-0.41408 0.0988901 0)
(-0.855795 0.103615 0)
(-0.881592 0.0877608 0)
(-6.2203 0.00662027 0)
(-1.94021 -0.0445656 0)
(-0.977902 -0.017891 0)
(-0.759785 -0.124748 0)
(-0.280889 -0.0778281 0)
(0.153432 -0.0565301 0)
(0.443881 -0.0560583 0)
(0.653106 -0.0712394 0)
(0.761365 -0.0775201 0)
(0.816302 -0.0838235 0)
(0.852466 -0.0851405 0)
(0.878907 -0.070352 0)
(0.777659 -0.0578924 0)
(0.220573 -0.0497702 0)
(-0.775265 -0.0378265 0)
(-1.07573 -0.0318862 0)
(-1.05128 -0.0357993 0)
(-0.89899 -0.0188269 0)
(-0.734805 0.0013183 0)
(-0.588508 0.0153608 0)
(-0.461231 0.0154162 0)
(-0.363078 0.00268348 0)
(-0.303225 -0.0275003 0)
(-0.269744 -0.0657911 0)
(-0.218233 -0.0816941 0)
(-0.126811 -0.0750271 0)
(-0.000227291 -0.0599889 0)
(0.136897 -0.0430521 0)
(0.270144 -0.0355271 0)
(0.372696 -0.0308498 0)
(0.442006 -0.0248428 0)
(0.519471 -0.0236854 0)
(0.622119 -0.0205857 0)
(0.766925 -0.0146276 0)
(0.902853 -0.00611852 0)
(0.899297 0.0143341 0)
(0.496927 0.0343971 0)
(-0.412429 0.0637999 0)
(-0.88878 0.0774993 0)
(-0.926928 0.073288 0)
(-6.21789 0.00364302 0)
(-1.82603 -0.0676366 0)
(-0.97981 -0.00629305 0)
(-0.738295 -0.0943941 0)
(-0.265076 -0.0422697 0)
(0.157044 -0.0184493 0)
(0.43816 -0.0293573 0)
(0.642303 -0.0471805 0)
(0.753238 -0.0606258 0)
(0.809338 -0.0701485 0)
(0.85088 -0.0778661 0)
(0.884575 -0.0782381 0)
(0.796137 -0.0721853 0)
(0.241491 -0.0594999 0)
(-0.761874 -0.0360032 0)
(-1.06779 -0.0191159 0)
(-1.0423 0.0068431 0)
(-0.883195 0.0244528 0)
(-0.725303 0.0411647 0)
(-0.590451 0.0431473 0)
(-0.48195 0.028995 0)
(-0.403919 -0.00531617 0)
(-0.351365 -0.0504114 0)
(-0.294112 -0.0770282 0)
(-0.210798 -0.0774986 0)
(-0.106828 -0.0596008 0)
(0.0174298 -0.0488486 0)
(0.146379 -0.0489479 0)
(0.269143 -0.0583885 0)
(0.366681 -0.0616773 0)
(0.446728 -0.0627935 0)
(0.535342 -0.0562656 0)
(0.63755 -0.0425742 0)
(0.78038 -0.0305507 0)
(0.915616 -0.0325488 0)
(0.919349 -0.0273791 0)
(0.525889 -0.00887664 0)
(-0.39523 0.0311 0)
(-0.903516 0.0590217 0)
(-0.953815 0.0694604 0)
(-6.21518 0.000320285 0)
(-1.78408 -0.0256878 0)
(-0.963292 0.0134931 0)
(-0.707338 -0.0552642 0)
(-0.248522 -0.00667032 0)
(0.151988 0.0108124 0)
(0.421327 -0.00324387 0)
(0.623761 -0.0230865 0)
(0.742586 -0.0413184 0)
(0.800724 -0.0544939 0)
(0.844973 -0.0610849 0)
(0.884812 -0.0671332 0)
(0.80591 -0.0695374 0)
(0.2686 -0.0627045 0)
(-0.734742 -0.037178 0)
(-1.03695 -0.00852076 0)
(-1.02277 0.0483086 0)
(-0.873836 0.0725829 0)
(-0.72748 0.0773572 0)
(-0.610418 0.0631102 0)
(-0.523036 0.0256084 0)
(-0.457909 -0.0286123 0)
(-0.387639 -0.0675461 0)
(-0.29628 -0.0762852 0)
(-0.194578 -0.0623949 0)
(-0.088932 -0.0443288 0)
(0.0210296 -0.0484535 0)
(0.137122 -0.0661602 0)
(0.252887 -0.084214 0)
(0.360106 -0.0927483 0)
(0.460033 -0.0948763 0)
(0.558126 -0.0789814 0)
(0.660557 -0.0597418 0)
(0.79023 -0.0476808 0)
(0.917777 -0.0653307 0)
(0.930522 -0.0737965 0)
(0.56751 -0.0486721 0)
(-0.355248 0.00548986 0)
(-0.896246 0.0509567 0)
(-0.957958 0.0777444 0)
(-6.2141 -0.00173951 0)
(-1.99615 -0.0110579 0)
(-0.970653 0.0374322 0)
(-0.671472 -0.020313 0)
(-0.2334 0.0216583 0)
(0.141225 0.0301637 0)
(0.400239 0.0186481 0)
(0.600997 -0.00370575 0)
(0.726853 -0.0225177 0)
(0.789911 -0.0363259 0)
(0.835598 -0.045499 0)
(0.878291 -0.0572385 0)
(0.806188 -0.0636255 0)
(0.29166 -0.0595838 0)
(-0.696964 -0.0387807 0)
(-0.984598 0.00717457 0)
(-0.983308 0.0796992 0)
(-0.87542 0.114137 0)
(-0.751675 0.103521 0)
(-0.653801 0.0627023 0)
(-0.583295 -0.00197953 0)
(-0.504397 -0.0572088 0)
(-0.398786 -0.0749229 0)
(-0.285002 -0.0678027 0)
(-0.17807 -0.048915 0)
(-0.0826758 -0.0396431 0)
(0.00980388 -0.0586264 0)
(0.113867 -0.0860263 0)
(0.234867 -0.104864 0)
(0.35812 -0.110491 0)
(0.480746 -0.107343 0)
(0.586378 -0.0876991 0)
(0.68468 -0.0689559 0)
(0.794155 -0.0633343 0)
(0.906365 -0.0966564 0)
(0.928314 -0.122061 0)
(0.619364 -0.0950647 0)
(-0.282967 -0.0163258 0)
(-0.863923 0.063002 0)
(-0.945598 0.104612 0)
(-6.21183 -0.00303262 0)
(-2.00959 -0.0189789 0)
(-0.942939 0.060406 0)
(-0.642129 0.00345576 0)
(-0.224783 0.0409103 0)
(0.128313 0.0410309 0)
(0.381596 0.0357998 0)
(0.579587 0.0144529 0)
(0.711014 -0.00207506 0)
(0.777985 -0.0134717 0)
(0.822257 -0.0238885 0)
(0.866174 -0.0379081 0)
(0.799479 -0.0459769 0)
(0.308083 -0.0455526 0)
(-0.655328 -0.0326524 0)
(-0.927141 0.0320716 0)
(-0.931781 0.0932538 0)
(-0.879055 0.12572 0)
(-0.799047 0.10829 0)
(-0.725717 0.0382442 0)
(-0.646288 -0.0375526 0)
(-0.52888 -0.071221 0)
(-0.397272 -0.0734675 0)
(-0.273402 -0.058907 0)
(-0.170904 -0.0453374 0)
(-0.0888288 -0.0457513 0)
(-0.0100809 -0.0722568 0)
(0.0918369 -0.0986703 0)
(0.219592 -0.110701 0)
(0.362451 -0.10968 0)
(0.503404 -0.10494 0)
(0.610326 -0.0880711 0)
(0.70059 -0.0734422 0)
(0.79238 -0.0782949 0)
(0.881048 -0.121241 0)
(0.915944 -0.156238 0)
(0.680779 -0.131698 0)
(-0.170679 -0.0467769 0)
(-0.8087 0.0789031 0)
(-0.914876 0.136003 0)
(-6.20864 -0.00461636 0)
(-1.83435 -0.000786412 0)
(-0.912167 0.0775329 0)
(-0.618498 0.0158783 0)
(-0.215964 0.050569 0)
(0.12048 0.0475643 0)
(0.370834 0.0503123 0)
(0.565011 0.0346017 0)
(0.700429 0.0238535 0)
(0.768726 0.012827 0)
(0.808599 0.00289191 0)
(0.853083 -0.0101985 0)
(0.794238 -0.0138602 0)
(0.32332 -0.0117958 0)
(-0.61617 -0.0061891 0)
(-0.882606 0.048914 0)
(-0.90273 0.0883706 0)
(-0.886422 0.101278 0)
(-0.860953 0.0728737 0)
(-0.806957 0.00558125 0)
(-0.68889 -0.0514845 0)
(-0.542359 -0.0675743 0)
(-0.394438 -0.0660587 0)
(-0.267896 -0.0575696 0)
(-0.174779 -0.0516069 0)
(-0.103613 -0.057511 0)
(-0.0290066 -0.0815237 0)
(0.0778287 -0.0993309 0)
(0.209533 -0.104343 0)
(0.371462 -0.0966068 0)
(0.519888 -0.0920009 0)
(0.626791 -0.0804553 0)
(0.708164 -0.0765627 0)
(0.783528 -0.0934511 0)
(0.849422 -0.138713 0)
(0.900704 -0.173085 0)
(0.74154 -0.151513 0)
(-0.028487 -0.0633719 0)
(-0.740041 0.0800819 0)
(-0.868429 0.15873 0)
(-6.20853 -0.00538096 0)
(-1.92774 0.00693237 0)
(-0.9015 0.0782088 0)
(-0.593059 0.0210323 0)
(-0.206929 0.0468486 0)
(0.119784 0.0497496 0)
(0.371096 0.0614403 0)
(0.562095 0.0560914 0)
(0.698967 0.0517017 0)
(0.765544 0.0431245 0)
(0.799852 0.0358764 0)
(0.845645 0.0282793 0)
(0.793244 0.0294927 0)
(0.334156 0.0322876 0)
(-0.593579 0.0309562 0)
(-0.857677 0.0511196 0)
(-0.901496 0.0600163 0)
(-0.920817 0.0524391 0)
(-0.924855 0.0136204 0)
(-0.859538 -0.0237103 0)
(-0.715407 -0.0491532 0)
(-0.545864 -0.0564463 0)
(-0.395778 -0.0573478 0)
(-0.271507 -0.0579941 0)
(-0.185736 -0.0611297 0)
(-0.119399 -0.0693638 0)
(-0.03966 -0.0833525 0)
(0.0713493 -0.0889526 0)
(0.21065 -0.0850847 0)
(0.38053 -0.0727293 0)
(0.528003 -0.0706422 0)
(0.632105 -0.0674972 0)
(0.703917 -0.0764537 0)
(0.763628 -0.105992 0)
(0.823886 -0.147985 0)
(0.885741 -0.176881 0)
(0.793096 -0.15966 0)
(0.120851 -0.0731128 0)
(-0.667129 0.0647533 0)
(-0.804603 0.153685 0)
(-6.2092 -0.00731304 0)
(-1.69728 -0.000704527 0)
(-0.889223 0.0653984 0)
(-0.579973 0.0178732 0)
(-0.194888 0.0394122 0)
(0.127824 0.0534169 0)
(0.380036 0.0735343 0)
(0.568127 0.0770345 0)
(0.702587 0.0799571 0)
(0.764273 0.0761301 0)
(0.797432 0.0728374 0)
(0.846358 0.0716039 0)
(0.800154 0.0828137 0)
(0.335597 0.0778679 0)
(-0.59764 0.0661704 0)
(-0.855515 0.0489357 0)
(-0.92434 0.035781 0)
(-0.969141 -0.0133689 0)
(-0.970334 -0.0493302 0)
(-0.876926 -0.0651464 0)
(-0.721276 -0.056197 0)
(-0.547393 -0.0504933 0)
(-0.400456 -0.051522 0)
(-0.282551 -0.0580251 0)
(-0.201463 -0.0664918 0)
(-0.13075 -0.0735612 0)
(-0.0405061 -0.0746575 0)
(0.0735518 -0.0676602 0)
(0.220808 -0.0572461 0)
(0.385639 -0.0463727 0)
(0.524385 -0.04794 0)
(0.625375 -0.0542934 0)
(0.688062 -0.0716301 0)
(0.735693 -0.110389 0)
(0.803992 -0.146129 0)
(0.872526 -0.171 0)
(0.832377 -0.16047 0)
(0.259724 -0.082576 0)
(-0.582266 0.0462453 0)
(-0.731205 0.138584 0)
(-6.21459 -0.00891876 0)
(-1.6932 -0.0133254 0)
(-0.885516 0.0374623 0)
(-0.570615 0.0193882 0)
(-0.179973 0.0303953 0)
(0.148354 0.051152 0)
(0.399085 0.0787943 0)
(0.582905 0.0941963 0)
(0.709664 0.107852 0)
(0.764847 0.109924 0)
(0.800378 0.110984 0)
(0.853279 0.122582 0)
(0.805716 0.132652 0)
(0.317849 0.117707 0)
(-0.625653 0.0916437 0)
(-0.876375 0.0480018 0)
(-0.983273 -0.0104936 0)
(-1.01957 -0.0827389 0)
(-0.986854 -0.10323 0)
(-0.866265 -0.0909075 0)
(-0.711361 -0.0623858 0)
(-0.547621 -0.049661 0)
(-0.405963 -0.049311 0)
(-0.295482 -0.0568953 0)
(-0.212613 -0.065096 0)
(-0.131632 -0.0667343 0)
(-0.0324242 -0.0571938 0)
(0.0826811 -0.042286 0)
(0.231499 -0.0322442 0)
(0.385689 -0.0269377 0)
(0.512541 -0.0317685 0)
(0.609056 -0.0465717 0)
(0.665871 -0.0695274 0)
(0.70786 -0.10877 0)
(0.787663 -0.132818 0)
(0.862742 -0.153018 0)
(0.859235 -0.150698 0)
(0.381351 -0.0875488 0)
(-0.478452 0.032711 0)
(-0.668892 0.123854 0)
(-6.22079 -0.00913935 0)
(-1.68881 -0.0162225 0)
(-0.879132 0.00602266 0)
(-0.564573 0.00982277 0)
(-0.158493 0.0156386 0)
(0.180245 0.0475513 0)
(0.427054 0.0832011 0)
(0.607274 0.108706 0)
(0.724553 0.132967 0)
(0.774588 0.143872 0)
(0.812933 0.151787 0)
(0.865404 0.169419 0)
(0.805359 0.174804 0)
(0.281909 0.150832 0)
(-0.686888 0.103921 0)
(-0.936764 0.00658318 0)
(-1.06048 -0.0817786 0)
(-1.05016 -0.134713 0)
(-0.97165 -0.131552 0)
(-0.840071 -0.0999752 0)
(-0.691094 -0.0691897 0)
(-0.543212 -0.0526665 0)
(-0.40901 -0.0512465 0)
(-0.301867 -0.0569295 0)
(-0.213177 -0.0599535 0)
(-0.123184 -0.0540926 0)
(-0.0215246 -0.0372914 0)
(0.0934814 -0.0208694 0)
(0.236719 -0.0148162 0)
(0.379204 -0.0155198 0)
(0.496066 -0.0245534 0)
(0.586307 -0.0487645 0)
(0.644125 -0.0727348 0)
(0.688099 -0.103198 0)
(0.776208 -0.110156 0)
(0.855011 -0.122751 0)
(0.874103 -0.127891 0)
(0.483898 -0.0814756 0)
(-0.364751 0.0241897 0)
(-0.625034 0.108495 0)
(-6.22806 -0.00873529 0)
(-1.90367 -0.0181206 0)
(-0.884003 -0.0175814 0)
(-0.552502 0.00677472 0)
(-0.129987 0.00706165 0)
(0.219372 0.0448179 0)
(0.461423 0.085598 0)
(0.639835 0.117596 0)
(0.748808 0.150421 0)
(0.797229 0.170368 0)
(0.83559 0.186454 0)
(0.88072 0.207602 0)
(0.79577 0.203676 0)
(0.218831 0.165032 0)
(-0.78446 0.0787697 0)
(-1.0363 -0.0564015 0)
(-1.11962 -0.1324 0)
(-1.05729 -0.150219 0)
(-0.942661 -0.129222 0)
(-0.808497 -0.0940182 0)
(-0.670828 -0.0695488 0)
(-0.534957 -0.0588696 0)
(-0.409095 -0.0576194 0)
(-0.300254 -0.0608103 0)
(-0.204136 -0.0582424 0)
(-0.108978 -0.0436133 0)
(-0.00929232 -0.0209858 0)
(0.101065 -0.00409858 0)
(0.234387 -0.00273242 0)
(0.365288 -0.00901169 0)
(0.475989 -0.0219335 0)
(0.560718 -0.0547306 0)
(0.626892 -0.0786012 0)
(0.679622 -0.0922378 0)
(0.772219 -0.0840051 0)
(0.852669 -0.0829208 0)
(0.878376 -0.0903802 0)
(0.560347 -0.0595166 0)
(-0.262522 0.0241266 0)
(-0.592692 0.0882718 0)
(-6.23027 -0.0081528 0)
(-1.70953 -0.0264068 0)
(-0.885202 -0.0411489 0)
(-0.541855 0.0035141 0)
(-0.0988028 -0.000682088 0)
(0.26037 0.0388156 0)
(0.498182 0.0821371 0)
(0.675811 0.117523 0)
(0.779562 0.155944 0)
(0.826707 0.183479 0)
(0.863353 0.210092 0)
(0.897515 0.229883 0)
(0.774796 0.219274 0)
(0.107403 0.161045 0)
(-0.896334 0.00769044 0)
(-1.13481 -0.109645 0)
(-1.14211 -0.148969 0)
(-1.03557 -0.139976 0)
(-0.908107 -0.108722 0)
(-0.781707 -0.0801653 0)
(-0.654722 -0.0653341 0)
(-0.52729 -0.0614025 0)
(-0.404423 -0.0641759 0)
(-0.291225 -0.0669857 0)
(-0.187134 -0.0616523 0)
(-0.0894101 -0.0404059 0)
(0.00543542 -0.00953386 0)
(0.107019 0.00883097 0)
(0.225537 0.00594181 0)
(0.344439 -0.00438782 0)
(0.45145 -0.0194086 0)
(0.537406 -0.0555786 0)
(0.612674 -0.0810915 0)
(0.681218 -0.0773928 0)
(0.777602 -0.0584623 0)
(0.861185 -0.0413877 0)
(0.88067 -0.0475287 0)
(0.604812 -0.02952 0)
(-0.19409 0.0236307 0)
(-0.573415 0.0502081 0)
(-6.2332 -0.00786988 0)
(-1.72903 -0.0188067 0)
(-0.877647 -0.0635429 0)
(-0.527809 -0.00629524 0)
(-0.0691682 -0.00757524 0)
(0.299911 0.0332017 0)
(0.535934 0.0781991 0)
(0.711192 0.114046 0)
(0.810521 0.156748 0)
(0.857939 0.192649 0)
(0.890887 0.222447 0)
(0.906133 0.238284 0)
(0.721236 0.211826 0)
(-0.0556927 0.11173 0)
(-0.999959 -0.0603288 0)
(-1.1864 -0.135156 0)
(-1.12947 -0.13648 0)
(-1.00126 -0.115775 0)
(-0.877099 -0.0859317 0)
(-0.760619 -0.0657945 0)
(-0.642726 -0.0579368 0)
(-0.52036 -0.0596412 0)
(-0.397894 -0.0662518 0)
(-0.278465 -0.071767 0)
(-0.166856 -0.0664926 0)
(-0.0667154 -0.0396321 0)
(0.0219087 -0.00315154 0)
(0.1138 0.0178748 0)
(0.212767 0.0118774 0)
(0.318418 0.000856459 0)
(0.42269 -0.0163427 0)
(0.517003 -0.048699 0)
(0.601435 -0.0737684 0)
(0.691063 -0.0569078 0)
(0.792342 -0.0277553 0)
(0.880259 -0.000185267 0)
(0.882303 -0.00985544 0)
(0.620268 -0.0106298 0)
(-0.176198 0.0100031 0)
(-0.595346 -0.00900036 0)
(-6.23534 -0.00771042 0)
(-1.77061 -0.0235482 0)
(-0.869503 -0.0881881 0)
(-0.513545 -0.0169306 0)
(-0.0412037 -0.0131856 0)
(0.336734 0.0271488 0)
(0.574778 0.0751614 0)
(0.746029 0.11506 0)
(0.836502 0.158986 0)
(0.884788 0.196765 0)
(0.909765 0.222295 0)
(0.895081 0.219031 0)
(0.623597 0.159397 0)
(-0.215966 0.046654 0)
(-1.08171 -0.0893779 0)
(-1.19633 -0.132369 0)
(-1.09583 -0.116627 0)
(-0.966225 -0.0914984 0)
(-0.850078 -0.0656329 0)
(-0.745304 -0.0495054 0)
(-0.6354 -0.046028 0)
(-0.51668 -0.0526539 0)
(-0.392618 -0.0639895 0)
(-0.266602 -0.0738304 0)
(-0.147849 -0.0699999 0)
(-0.0438746 -0.0398452 0)
(0.041336 -0.00152369 0)
(0.120764 0.0221371 0)
(0.204455 0.016848 0)
(0.290641 0.00892957 0)
(0.393728 -0.00377154 0)
(0.498289 -0.0332167 0)
(0.600695 -0.0493613 0)
(0.698694 -0.0284604 0)
(0.81055 0.00538307 0)
(0.899089 0.0342491 0)
(0.876413 0.0172695 0)
(0.602453 -0.00586026 0)
(-0.207876 -0.0296361 0)
(-0.654509 -0.0967035 0)
(-6.23572 -0.00773379 0)
(-1.75936 -0.0225054 0)
(-0.853975 -0.102662 0)
(-0.500499 -0.0250221 0)
(-0.0180941 -0.0180612 0)
(0.370012 0.0241127 0)
(0.614037 0.0739687 0)
(0.780545 0.115788 0)
(0.857266 0.15939 0)
(0.899831 0.197376 0)
(0.905603 0.202762 0)
(0.853326 0.158715 0)
(0.512031 0.099212 0)
(-0.342546 -0.0063707 0)
(-1.13306 -0.100995 0)
(-1.18219 -0.113752 0)
(-1.05908 -0.0983693 0)
(-0.931083 -0.072894 0)
(-0.823754 -0.0506038 0)
(-0.730943 -0.0357151 0)
(-0.630223 -0.0336327 0)
(-0.516171 -0.0414445 0)
(-0.390887 -0.0558928 0)
(-0.257538 -0.0722865 0)
(-0.131713 -0.0709273 0)
(-0.0242134 -0.0405955 0)
(0.062632 -0.00327591 0)
(0.131303 0.0201023 0)
(0.19758 0.0195379 0)
(0.271144 0.021444 0)
(0.367093 0.00794572 0)
(0.486239 -0.00664936 0)
(0.60693 -0.0126767 0)
(0.712497 0.0093834 0)
(0.828883 0.0388007 0)
(0.909667 0.0585493 0)
(0.853181 0.0273007 0)
(0.538366 -0.0323865 0)
(-0.276119 -0.103831 0)
(-0.735633 -0.17249 0)
(-6.23507 -0.00774507 0)
(-1.82012 -0.0120718 0)
(-0.844375 -0.107767 0)
(-0.490807 -0.0294964 0)
(0.00303652 -0.0131841 0)
(0.400992 0.0283181 0)
(0.651253 0.0722211 0)
(0.812126 0.117055 0)
(0.875222 0.154292 0)
(0.897251 0.182829 0)
(0.870844 0.159943 0)
(0.789067 0.0836096 0)
(0.434447 0.0459319 0)
(-0.430685 -0.0312049 0)
(-1.15142 -0.109536 0)
(-1.16863 -0.0846234 0)
(-1.02694 -0.0817479 0)
(-0.897289 -0.0603524 0)
(-0.797335 -0.0406947 0)
(-0.717282 -0.0255127 0)
(-0.628121 -0.022206 0)
(-0.519794 -0.0301738 0)
(-0.395628 -0.045769 0)
(-0.254786 -0.0641637 0)
(-0.120546 -0.066527 0)
(-0.00879422 -0.0408111 0)
(0.0826283 -0.00848662 0)
(0.145067 0.013948 0)
(0.19648 0.0218017 0)
(0.261258 0.0325331 0)
(0.350181 0.0334044 0)
(0.480658 0.0288284 0)
(0.614712 0.0305521 0)
(0.724446 0.0483398 0)
(0.838768 0.0653603 0)
(0.900791 0.0663041 0)
(0.800038 0.0264753 0)
(0.43146 -0.0749211 0)
(-0.346851 -0.159738 0)
(-0.801311 -0.214671 0)
(-6.2316 -0.00682565 0)
(-1.70072 -0.0175406 0)
(-0.82881 -0.106582 0)
(-0.47741 -0.0301966 0)
(0.0239045 -0.00674069 0)
(0.429223 0.0276324 0)
(0.681474 0.0698771 0)
(0.837121 0.108637 0)
(0.88695 0.135246 0)
(0.878029 0.147206 0)
(0.822867 0.105526 0)
(0.72332 0.0320928 0)
(0.393694 0.010097 0)
(-0.497038 -0.0325636 0)
(-1.15347 -0.0976196 0)
(-1.15225 -0.0727444 0)
(-1.00291 -0.0652347 0)
(-0.869733 -0.0501744 0)
(-0.774352 -0.0336911 0)
(-0.705279 -0.0187085 0)
(-0.628746 -0.0136864 0)
(-0.526568 -0.0204 0)
(-0.405201 -0.034196 0)
(-0.260173 -0.0539658 0)
(-0.117972 -0.0549222 0)
(0.000130271 -0.0346282 0)
(0.096946 -0.0118044 0)
(0.158569 0.00644439 0)
(0.200831 0.0190364 0)
(0.25901 0.038752 0)
(0.340568 0.0551283 0)
(0.480453 0.0635327 0)
(0.622023 0.070634 0)
(0.732877 0.0821049 0)
(0.837493 0.0862224 0)
(0.865635 0.0651776 0)
(0.721469 -0.00287908 0)
(0.323476 -0.0905088 0)
(-0.421461 -0.158219 0)
(-0.831839 -0.213957 0)
(-6.22886 -0.00538376 0)
(-1.7116 0.0005632 0)
(-0.810549 -0.095103 0)
(-0.459497 -0.0240219 0)
(0.046495 0.000755999 0)
(0.452399 0.0338528 0)
(0.702544 0.06671 0)
(0.854462 0.0895906 0)
(0.889481 0.0998255 0)
(0.855595 0.0947985 0)
(0.784882 0.0481728 0)
(0.674805 0.00870838 0)
(0.372875 -0.00770909 0)
(-0.54722 -0.0389385 0)
(-1.15344 -0.0731164 0)
(-1.13563 -0.0643357 0)
(-0.984937 -0.0531668 0)
(-0.849637 -0.0421996 0)
(-0.75626 -0.0288941 0)
(-0.693864 -0.0156002 0)
(-0.62864 -0.00914968 0)
(-0.534341 -0.0114147 0)
(-0.417251 -0.0225476 0)
(-0.270306 -0.0371403 0)
(-0.122531 -0.0365598 0)
(0.00191566 -0.0218784 0)
(0.10406 -0.00664593 0)
(0.171693 0.00768045 0)
(0.213946 0.0238761 0)
(0.268193 0.049388 0)
(0.341829 0.0795177 0)
(0.481013 0.0960612 0)
(0.622911 0.108405 0)
(0.732263 0.107403 0)
(0.815644 0.0952053 0)
(0.808306 0.0401 0)
(0.630545 -0.0217242 0)
(0.248619 -0.0861814 0)
(-0.481747 -0.14281 0)
(-0.834904 -0.181252 0)
(-6.22669 -0.00310079 0)
(-1.7549 0.0103442 0)
(-0.797797 -0.0760139 0)
(-0.433002 -0.0146823 0)
(0.0647095 0.010876 0)
(0.467635 0.0349352 0)
(0.711521 0.0503842 0)
(0.855276 0.0517324 0)
(0.883699 0.0500047 0)
(0.838078 0.0336824 0)
(0.759381 -0.00343098 0)
(0.654325 -0.00168244 0)
(0.360302 -0.011644 0)
(-0.58471 -0.0404954 0)
(-1.15552 -0.0462259 0)
(-1.12284 -0.0521976 0)
(-0.971879 -0.0426241 0)
(-0.836171 -0.0356428 0)
(-0.742711 -0.0259091 0)
(-0.683291 -0.0145522 0)
(-0.626982 -0.00702963 0)
(-0.542177 -0.00259588 0)
(-0.430063 -0.0082779 0)
(-0.284925 -0.0168522 0)
(-0.132673 -0.0117749 0)
(-0.00108061 -0.00119555 0)
(0.105704 0.00776356 0)
(0.182469 0.0196258 0)
(0.231761 0.0353029 0)
(0.287651 0.0635215 0)
(0.359594 0.0996042 0)
(0.487148 0.12667 0)
(0.615615 0.132349 0)
(0.715769 0.112885 0)
(0.76909 0.083784 0)
(0.741483 0.00985304 0)
(0.562005 -0.0302838 0)
(0.206586 -0.0676145 0)
(-0.518931 -0.104581 0)
(-0.829246 -0.130549 0)
(-6.22458 -0.000584842 0)
(-1.6966 -0.000118495 0)
(-0.780104 -0.0499214 0)
(-0.412379 -0.00925365 0)
(0.0772183 0.00730172 0)
(0.47225 0.0211857 0)
(0.709042 0.0227272 0)
(0.847676 0.0126479 0)
(0.872758 -0.000615212 0)
(0.824026 -0.0249839 0)
(0.748368 -0.0438149 0)
(0.661692 -0.0154853 0)
(0.355747 -0.00562781 0)
(-0.616773 -0.033026 0)
(-1.15665 -0.0314982 0)
(-1.11758 -0.0317653 0)
(-0.96863 -0.0246043 0)
(-0.832945 -0.0219575 0)
(-0.737042 -0.0164758 0)
(-0.675965 -0.00919245 0)
(-0.623246 -0.00296235 0)
(-0.547647 0.00896289 0)
(-0.440043 0.0102043 0)
(-0.298264 0.0119962 0)
(-0.143024 0.0213995 0)
(-0.00475401 0.0284795 0)
(0.105946 0.0330195 0)
(0.189759 0.0418387 0)
(0.246214 0.0563819 0)
(0.305534 0.0840179 0)
(0.381027 0.119969 0)
(0.488142 0.149833 0)
(0.595938 0.144174 0)
(0.684121 0.110642 0)
(0.707512 0.061576 0)
(0.681324 -0.00310647 0)
(0.528847 0.000537222 0)
(0.18699 -0.0177613 0)
(-0.549781 -0.060138 0)
(-0.822488 -0.0721883 0)
(-6.22392 0.00163637 0)
(-1.68255 0.00253328 0)
(-0.769288 -0.02105 0)
(-0.40538 -0.00594877 0)
(0.0771287 -0.00282795 0)
(0.47006 -0.0031438 0)
(0.702719 -0.0093328 0)
(0.833302 -0.0200517 0)
(0.85067 -0.0402389 0)
(0.806798 -0.0717105 0)
(0.750831 -0.0752808 0)
(0.686212 -0.0231142 0)
(0.356185 -0.00702599 0)
(-0.651544 -0.0224619 0)
(-1.16359 -0.0149459 0)
(-1.12068 -0.0126557 0)
(-0.975378 -0.00978366 0)
(-0.839065 -0.0132151 0)
(-0.738201 -0.0103875 0)
(-0.672425 -0.00268303 0)
(-0.620118 0.00611371 0)
(-0.550981 0.0222343 0)
(-0.447471 0.0309407 0)
(-0.31028 0.0437961 0)
(-0.150791 0.0584064 0)
(-0.00507885 0.0619117 0)
(0.110527 0.0647783 0)
(0.201212 0.074157 0)
(0.263666 0.0889837 0)
(0.326902 0.109086 0)
(0.403401 0.1366 0)
(0.490617 0.158462 0)
(0.579205 0.144402 0)
(0.643224 0.105019 0)
(0.656018 0.0551761 0)
(0.634553 0.0243615 0)
(0.536464 0.0460075 0)
(0.167273 0.0305336 0)
(-0.571455 -0.0282693 0)
(-0.807047 -0.033141 0)
(-6.22538 0.00383957 0)
(-1.74016 -0.00847113 0)
(-0.776041 -0.00094422 0)
(-0.418673 -0.00785463 0)
(0.0702401 -0.0241443 0)
(0.469153 -0.0325085 0)
(0.699229 -0.0387547 0)
(0.816355 -0.0442867 0)
(0.818607 -0.0667159 0)
(0.783811 -0.0986261 0)
(0.758231 -0.100001 0)
(0.718272 -0.0398464 0)
(0.362937 -0.0223633 0)
(-0.669599 -0.0174538 0)
(-1.15963 0.000621556 0)
(-1.11937 0.00529108 0)
(-0.98017 0.00609547 0)
(-0.844967 -0.00256518 0)
(-0.738291 -0.00369235 0)
(-0.664795 0.00273946 0)
(-0.609601 0.0147908 0)
(-0.546478 0.0388656 0)
(-0.448343 0.0561151 0)
(-0.318822 0.0779563 0)
(-0.156979 0.0952401 0)
(-0.00405199 0.0964811 0)
(0.117636 0.0994205 0)
(0.215992 0.109621 0)
(0.283953 0.12195 0)
(0.346052 0.132321 0)
(0.417 0.14455 0)
(0.491103 0.154548 0)
(0.558369 0.137341 0)
(0.608141 0.102962 0)
(0.62445 0.0681255 0)
(0.614118 0.0783564 0)
(0.557896 0.0955993 0)
(0.130315 0.0698997 0)
(-0.600308 0.00339374 0)
(-0.786178 -0.00674312 0)
(-6.22795 0.00545283 0)
(-1.75678 -0.0132211 0)
(-0.778165 0.0104602 0)
(-0.439428 -0.0232723 0)
(0.0588509 -0.0448353 0)
(0.465909 -0.0549396 0)
(0.6997 -0.0587949 0)
(0.802073 -0.0688555 0)
(0.787018 -0.0860291 0)
(0.760285 -0.109449 0)
(0.767717 -0.115798 0)
(0.747297 -0.0655462 0)
(0.373616 -0.0508839 0)
(-0.661129 -0.0226859 0)
(-1.14533 0.0130362 0)
(-1.11479 0.0233871 0)
(-0.986309 0.0210195 0)
(-0.852007 0.0100631 0)
(-0.738808 0.00708422 0)
(-0.654995 0.0128284 0)
(-0.592859 0.0281782 0)
(-0.532625 0.0584529 0)