/*--------------------------------*- C++ -*----------------------------------*\
| =========                 |                                                 |
| \\      /  F ield         | OpenFOAM: The Open Source CFD Toolbox           |
|  \\    /   O peration     | Version:  v1912                                 |
|   \\  /    A nd           | Website:  www.openfoam.com                      |
|    \\/     M anipulation  |                                                 |
\*---------------------------------------------------------------------------*/
FoamFile
{
    version     2.0;
    format      ascii;
    class       volVectorField;
    location    "3.8";
    object      grad(rho);
}
// * * * * * * * * * * * * * * * * * * * * * * * * * * * * * * * * * * * * * //

dimensions      [1 -4 0 0 0 0 0];


internalField   nonuniform List<vector> 
1900
(
(111776 -0.700692 0)
(-82785.3 0.106815 0)
(-11049 2.56196 0)
(-1774.42 4.53694 0)
(-1252.73 9.31245 0)
(-1299.45 11.1064 0)
(-1382.4 1.04581 0)
(-1561.58 -40.6539 0)
(-1539.6 -209.775 0)
(-1953.89 -434.706 0)
(111775 -0.794649 0)
(-82782.1 0.187475 0)
(-11044.6 3.59995 0)
(-1767.67 5.09841 0)
(-1246.17 5.51214 0)
(-1307.72 -0.864933 0)
(-1434.16 -22.9486 0)
(-1772.4 -61.6065 0)
(-1933.66 -191.162 0)
(-2105.72 -322.682 0)
(111775 5.68434e-10 0)
(-82780.9 -5.54223e-09 0)
(-11044.1 5.04485e-09 0)
(-1772.51 1.56319e-09 0)
(-1258.7 -6.21725e-10 0)
(-1327.91 -1.13687e-09 0)
(-1443.14 -3.51719e-09 0)
(-1729.8 -1.1191e-09 0)
(-1800.68 3.35731e-09 0)
(-2093.19 1.26121e-09 0)
(111775 0.794649 0)
(-82782.1 -0.187475 0)
(-11044.6 -3.59995 0)
(-1767.67 -5.09841 0)
(-1246.17 -5.51214 0)
(-1307.72 0.864933 0)
(-1434.16 22.9486 0)
(-1772.4 61.6065 0)
(-1933.66 191.162 0)
(-2105.72 322.682 0)
(111776 0.700692 0)
(-82785.3 -0.106815 0)
(-11049 -2.56196 0)
(-1774.42 -4.53694 0)
(-1252.73 -9.31245 0)
(-1299.45 -11.1064 0)
(-1382.4 -1.04581 0)
(-1561.58 40.6539 0)
(-1539.6 209.775 0)
(-1953.89 434.706 0)
(-1323.26 -409.635 1.44188e-11)
(323.405 -611.732 -1.73305e-11)
(1225.18 -1087.69 -2.19735e-11)
(-3878.43 -1088.23 0)
(-4801.53 3903.43 -9.06993e-11)
(-1391.37 -357.431 1.43447e-11)
(-132.148 -555.663 1.73305e-11)
(1124 -899.199 2.19735e-11)
(-1267.55 -888.652 0)
(-3175.71 3119.77 0)
(-1656.05 1.06195e-09 0)
(-284.662 1.63612e-09 0)
(753.157 -4.39155e-09 0)
(-2228.8 -3.9026e-09 0)
(-1875.73 -1.01506e-08 0)
(-1391.37 357.431 1.43447e-11)
(-132.148 555.663 1.73305e-11)
(1124 899.199 2.19735e-11)
(-1267.55 888.652 0)
(-3175.71 -3119.77 0)
(-1323.26 409.635 -4.31083e-11)
(323.405 611.732 -1.73305e-11)
(1225.18 1087.69 -2.19735e-11)
(-3878.43 1088.23 -6.04603e-11)
(-4801.53 -3903.43 9.06993e-11)
(-1164.55 -2303.29 4.02653e-11)
(-6419.66 569.061 -3.21727e-11)
(-4394.31 828.94 0)
(-6102.1 953.705 2.3209e-11)
(-11773.4 -2926.27 -9.85993e-12)
(-2282.17 -2194.65 -2.0098e-11)
(-5610.11 641.941 1.60949e-11)
(-4199.44 838.184 0)
(-7698.6 102.183 -1.45243e-11)
(-13702.9 -4751.31 2.40718e-12)
(-1844.35 -1.4175e-08 0)
(-5670.54 -8.80587e-09 0)
(-4610.84 2.82901e-09 0)
(-8559.63 -3.01865e-09 5.81097e-12)
(-14302.9 -3.37612e-09 -4.81435e-12)
(-2282.17 2194.65 -2.0098e-11)
(-5610.11 -641.941 1.60949e-11)
(-4199.44 -838.184 0)
(-7698.6 -102.183 -1.45243e-11)
(-13702.9 4751.31 2.40718e-12)
(-1164.55 2303.29 2.0098e-11)
(-6419.66 -569.061 -1.71383e-14)
(-4394.31 -828.94 0)
(-6102.1 -953.705 2.87225e-14)
(-11773.4 2926.27 9.85993e-12)
(-24957.7 -26252.4 0)
(-16675.6 2712.97 0)
(1407.52 2853.44 0)
(377.619 2021.19 0)
(-1508.37 1121.99 0)
(-1934.02 570.832 0)
(-1768.29 284.588 0)
(-919.098 77.9886 0)
(-387.806 86.2788 0)
(-347.312 45.9667 0)
(-283.972 37.3439 0)
(-265.004 26.811 0)
(-233.546 21.3539 0)
(-203.736 18.1837 0)
(-170.662 16.5034 0)
(-137.627 15.421 0)
(-108.737 14.4967 0)
(-84.806 13.679 0)
(-69.3457 13.0043 0)
(-61.0885 12.521 0)
(-57.9244 12.1197 0)
(-63.8089 11.8558 0)
(-70.4419 11.75 0)
(-77.0979 11.6797 0)
(-87.8567 11.6965 0)
(-102.451 11.827 0)
(-124.88 12.124 0)
(-159.848 12.6358 0)
(-213.863 13.3843 0)
(-293.9 14.0784 0)
(-393.71 14.7812 0)
(-498.609 14.6996 0)
(-554.848 13.4588 0)
(-552.505 16.8531 0)
(-477.405 14.8589 0)
(-413.206 25.2657 0)
(-316.238 18.5639 0)
(3379.88 40.4946 0)
(101738 -138.47 0)
(-116644 -7100.24 0)
(-24001.1 -6344.28 0)
(-15248 5147.59 0)
(1388.91 3058.09 0)
(155.447 1204.89 0)
(-1642.74 644.104 0)
(-2030.86 289.528 0)
(-1818.94 115.643 0)
(-934.334 31.7879 0)
(-389.283 38.6913 0)
(-352.27 17.8607 0)
(-285.447 13.8377 0)
(-266.22 8.77084 0)
(-234.07 6.67616 0)
(-203.993 5.4853 0)
(-170.761 4.96437 0)
(-137.685 4.71146 0)
(-108.798 4.50695 0)
(-84.8712 4.31422 0)
(-69.4055 4.14313 0)
(-61.1492 4.00419 0)
(-57.9896 3.84563 0)
(-63.8689 3.69843 0)
(-70.5047 3.57915 0)
(-77.1701 3.44335 0)
(-87.9319 3.32471 0)
(-102.522 3.25 0)
(-124.933 3.27031 0)
(-159.868 3.46304 0)
(-213.863 3.91329 0)
(-293.875 4.63233 0)
(-393.691 5.83165 0)
(-498.656 7.46269 0)
(-554.437 9.83224 0)
(-552.042 15.1973 0)
(-476.117 21.2128 0)
(-412.426 33.89 0)
(-314.534 41.9615 0)
(3359.32 60.0812 0)
(101707 -62.5458 0)
(-116587 3549.77 0)
(-22262.8 1.84095e-09 0)
(-13940.4 3.32663e-09 0)
(260.557 1.2273e-09 0)
(-324.631 1.64717e-09 0)
(-1774.65 1.03675e-08 0)
(-2087.75 8.23584e-09 0)
(-1843.27 -1.79735e-08 0)
(-941.484 4.11953e-08 0)
(-391.857 2.32347e-07 0)
(-354.542 -1.72145e-08 0)
(-286.616 -5.99278e-08 0)
(-267.088 -4.88175e-08 0)
(-234.502 9.89915e-09 0)
(-204.234 5.66819e-08 0)
(-170.887 6.87612e-08 0)
(-137.76 4.21965e-08 0)
(-108.852 8.21969e-09 0)
(-84.9118 -6.30445e-08 0)
(-69.4359 -1.17288e-07 0)
(-61.175 -8.83818e-08 0)
(-58.0134 7.76752e-09 0)
(-63.8864 9.70698e-08 0)
(-70.5161 7.51237e-08 0)
(-77.1719 6.25278e-08 0)
(-87.9129 1.23667e-07 0)
(-102.467 1.52395e-07 0)
(-124.818 1.05984e-07 0)
(-159.661 5.00771e-08 0)
(-213.523 4.02103e-08 0)
(-293.342 9.74412e-08 0)
(-392.887 1.216e-07 0)
(-497.445 9.67469e-08 0)
(-552.598 -5.0061e-09 0)
(-549.195 -1.47066e-07 0)
(-471.967 1.68108e-07 0)
(-407.17 -1.48826e-07 0)
(-308.619 9.85071e-10 0)
(3349.48 5.16597e-08 0)
(102753 -1.91485e-06 0)
(-117720 -2.57875e-06 0)
(-24001.1 6344.28 0)
(-15248 -5147.59 0)
(1388.91 -3058.09 0)
(155.447 -1204.89 0)
(-1642.74 -644.104 0)
(-2030.86 -289.528 0)
(-1818.94 -115.643 0)
(-934.334 -31.7879 0)
(-389.283 -38.6913 0)
(-352.27 -17.8607 0)
(-285.447 -13.8377 0)
(-266.22 -8.77084 0)
(-234.07 -6.67616 0)
(-203.993 -5.4853 0)
(-170.761 -4.96437 0)
(-137.685 -4.71146 0)
(-108.798 -4.50695 0)
(-84.8712 -4.31422 0)
(-69.4055 -4.14313 0)
(-61.1492 -4.00419 0)
(-57.9896 -3.84563 0)
(-63.8689 -3.69843 0)
(-70.5047 -3.57915 0)
(-77.1701 -3.44335 0)
(-87.9319 -3.32471 0)
(-102.522 -3.25 0)
(-124.933 -3.27031 0)
(-159.868 -3.46304 0)
(-213.863 -3.91329 0)
(-293.875 -4.63233 0)
(-393.691 -5.83165 0)
(-498.656 -7.46269 0)
(-554.437 -9.83224 0)
(-552.042 -15.1973 0)
(-476.117 -21.2128 0)
(-412.426 -33.89 0)
(-314.534 -41.9615 0)
(3359.32 -60.0812 0)
(101707 62.5458 0)
(-116587 -3549.77 0)
(-24957.7 26252.4 0)
(-16675.6 -2712.97 0)
(1407.52 -2853.44 0)
(377.619 -2021.19 0)
(-1508.37 -1121.99 0)
(-1934.02 -570.832 0)
(-1768.29 -284.588 0)
(-919.098 -77.9886 0)
(-387.806 -86.2788 0)
(-347.312 -45.9667 0)
(-283.972 -37.3439 0)
(-265.004 -26.811 0)
(-233.546 -21.3539 0)
(-203.736 -18.1837 0)
(-170.662 -16.5034 0)
(-137.627 -15.421 0)
(-108.737 -14.4967 0)
(-84.806 -13.679 0)
(-69.3457 -13.0043 0)
(-61.0885 -12.521 0)
(-57.9244 -12.1197 0)
(-63.8089 -11.8558 0)
(-70.4419 -11.75 0)
(-77.0979 -11.6797 0)
(-87.8567 -11.6965 0)
(-102.451 -11.827 0)
(-124.88 -12.124 0)
(-159.848 -12.6358 0)
(-213.863 -13.3843 0)
(-293.9 -14.0784 0)
(-393.71 -14.7812 0)
(-498.609 -14.6996 0)
(-554.848 -13.4588 0)
(-552.505 -16.8531 0)
(-477.405 -14.8589 0)
(-413.206 -25.2657 0)
(-316.238 -18.5639 0)
(3379.88 -40.4946 0)
(101738 138.47 0)
(-116644 7100.24 0)
(56214.6 39117 0)
(-31854.6 -4386.28 0)
(1801.31 -3019 0)
(984.652 -2745.01 0)
(-888.347 -1678.96 0)
(-1617.57 -1028.87 0)
(-1568.35 -526.441 0)
(-827.557 -170.347 0)
(-370.905 -151.17 0)
(-327.306 -92.5376 0)
(-275.137 -73.5454 0)
(-257.596 -53.9499 0)
(-229.264 -43.0309 0)
(-201.248 -36.9612 0)
(-169.143 -33.5597 0)
(-136.493 -31.1866 0)
(-107.777 -29.1597 0)
(-84.0105 -27.4024 0)
(-68.7484 -25.9666 0)
(-60.6645 -24.9595 0)
(-57.6477 -24.1928 0)
(-63.7063 -23.7434 0)
(-70.4669 -23.6377 0)
(-77.2201 -23.644 0)
(-88.1112 -23.871 0)
(-102.872 -24.3557 0)
(-125.501 -25.1984 0)
(-160.681 -26.493 0)
(-214.768 -28.2268 0)
(-294.722 -29.9599 0)
(-394.059 -31.4303 0)
(-497.881 -32.0923 0)
(-555.312 -29.5285 0)
(-552.384 -34.5651 0)
(-479.904 -32.899 0)
(-413.849 -46.3635 0)
(-322.117 -41.6147 0)
(3434.05 -69.3214 0)
(106151 -114.265 0)
(-121392 1895.39 0)
(66305.3 25470.7 0)
(-49139.9 -3399.46 0)
(2777.95 -2341.75 0)
(1343.42 -2365.17 0)
(-187.11 -1866.16 0)
(-993.097 -1336.75 0)
(-1048.21 -715.003 0)
(-606.56 -283.398 0)
(-321.889 -218.438 0)
(-283.237 -145.837 0)
(-251.524 -111.377 0)
(-239.572 -82.0457 0)
(-219.471 -66.6667 0)
(-195.943 -58.0706 0)
(-165.912 -52.9907 0)
(-133.995 -49.2965 0)
(-105.604 -46.1536 0)
(-82.1555 -43.4272 0)
(-67.3118 -41.1989 0)
(-59.6065 -39.6471 0)
(-56.901 -38.4505 0)
(-63.329 -37.7163 0)
(-70.3328 -37.4946 0)
(-77.2573 -37.4223 0)
(-88.406 -37.6474 0)
(-103.504 -38.2915 0)
(-126.606 -39.4533 0)
(-162.319 -41.2458 0)
(-216.718 -43.84 0)
(-296.546 -46.636 0)
(-395.577 -48.6813 0)
(-497.167 -50.3674 0)
(-556.982 -46.9228 0)
(-555.819 -54.7163 0)
(-487.435 -57.2094 0)
(-421.26 -73.5785 0)
(-335.209 -76.2886 0)
(3280.83 -99.9114 0)
(101265 -504.102 0)
(-116007 -7051.9 0)
(73077.1 17948 0)
(-58655.7 -1247.63 0)
(2797.99 -1654.9 0)
(1442.94 -1898.49 0)
(102.673 -1698.33 0)
(-508.267 -1297.78 0)
(-553.3 -775.146 0)
(-349.049 -398.782 0)
(-238.346 -294.372 0)
(-224.139 -200.944 0)
(-213.666 -151.085 0)
(-214.511 -115.143 0)
(-206.161 -95.7665 0)
(-188.069 -84.1565 0)
(-160.688 -76.6792 0)
(-129.904 -71.1217 0)
(-102.121 -66.3988 0)
(-79.2359 -62.39 0)
(-65.1058 -59.1651 0)
(-58.0161 -56.9836 0)
(-55.7871 -55.3205 0)
(-62.7851 -54.3136 0)
(-70.1837 -54.0664 0)
(-77.3674 -54.0045 0)
(-88.9487 -54.4451 0)
(-104.612 -55.3808 0)
(-128.348 -57.1854 0)
(-164.909 -59.8487 0)
(-219.962 -63.5237 0)
(-299.387 -67.4496 0)
(-397.655 -70.2733 0)
(-496.187 -73.2864 0)
(-559.503 -69.2563 0)
(-562.296 -80.067 0)
(-498.08 -87.7233 0)
(-432.234 -106.758 0)
(-347.492 -114.086 0)
(3021.79 -129.498 0)
(99452 -640.748 0)
(-113848 -4409.09 0)
(81941.3 6931.13 0)
(-68029.9 -498.11 0)
(2150.76 -1172.8 0)
(1301.57 -1616.74 0)
(391.757 -1474.27 0)
(-103.479 -1128.39 0)
(-181.897 -746.156 0)
(-143.269 -471.685 0)
(-131.244 -347.077 0)
(-145.161 -245.262 0)
(-168.844 -185.923 0)
(-186.265 -147.592 0)
(-189.611 -124.708 0)
(-177.55 -110.109 0)
(-153.351 -100.182 0)
(-124.089 -92.5137 0)
(-97.1902 -86.0687 0)
(-75.1849 -80.6486 0)
(-62.102 -76.3825 0)
(-55.9018 -73.5814 0)
(-54.3282 -71.4881 0)
(-62.1204 -70.2657 0)
(-70.035 -70.0602 0)
(-77.6223 -70.123 0)
(-89.7323 -70.7985 0)
(-106.145 -72.3421 0)
(-130.912 -74.7879 0)
(-168.427 -78.342 0)
(-224.043 -83.9285 0)
(-303.051 -88.939 0)
(-401.202 -92.1747 0)
(-496.187 -96.9248 0)
(-563.516 -95.587 0)
(-573.614 -109.937 0)
(-513.155 -124.147 0)
(-446.665 -144.896 0)
(-357.122 -153.622 0)
(2773.32 -160.342 0)
(97140.8 -777.261 0)
(-111130 -5301.44 0)
(79393.4 -2535.81 0)
(-66464.9 -501.945 0)
(1720.04 -1036.57 0)
(1152.43 -1304.69 0)
(573.267 -1242.63 0)
(193.374 -975.175 0)
(79.5249 -709.016 0)
(35.5183 -504.082 0)
(-20.1569 -372.153 0)
(-68.8452 -279.781 0)
(-119.547 -220.276 0)
(-155.523 -179.93 0)
(-170.042 -154.599 0)
(-164.435 -137.294 0)
(-143.732 -124.786 0)
(-116.304 -114.906 0)
(-90.6877 -106.546 0)
(-69.9019 -99.6402 0)
(-58.2955 -94.2914 0)
(-53.2997 -90.8933 0)
(-52.592 -88.4314 0)
(-61.4092 -87.0785 0)
(-70.0461 -87.0407 0)
(-78.0788 -87.3178 0)
(-91.0872 -88.4738 0)
(-108.457 -90.5059 0)
(-134.13 -94.3548 0)
(-173.717 -98.9615 0)
(-230.174 -106.167 0)
(-307.334 -112.909 0)
(-405.35 -116.596 0)
(-499.475 -124.497 0)
(-572.042 -126.259 0)
(-589.817 -145.054 0)
(-531.768 -165.231 0)
(-460.638 -186.898 0)
(-362.376 -194.233 0)
(2420.83 -196.461 0)
(94497.8 -1063.78 0)
(-107964 -7247.63 0)
(78741.7 -251.307 0)
(-66585.2 -491.167 0)
(1377.2 -960.992 0)
(1103 -1083.88 0)
(709.294 -1035.61 0)
(410.73 -856.074 0)
(272.065 -668.114 0)
(181.345 -515.314 0)
(84.9001 -396.002 0)
(1.19291 -309.797 0)
(-72.6237 -255.531 0)
(-122.975 -215.077 0)
(-148.525 -187.471 0)
(-148.821 -167.07 0)
(-131.776 -151.806 0)
(-106.512 -139.351 0)
(-82.4799 -128.9 0)
(-63.3761 -120.444 0)
(-53.6732 -113.952 0)
(-50.2548 -109.983 0)
(-50.6521 -107.24 0)
(-60.7803 -105.849 0)
(-70.2655 -106.14 0)
(-79.0033 -106.751 0)
(-92.8044 -108.667 0)
(-111.812 -111.759 0)
(-139.06 -116.962 0)
(-179.81 -123.885 0)
(-237.483 -133.095 0)
(-313.101 -141.635 0)
(-412.368 -144.156 0)
(-505.498 -157.548 0)
(-583.326 -162.884 0)
(-611.169 -184.407 0)
(-553.478 -205.273 0)
(-474.611 -227.255 0)
(-366.337 -228.768 0)
(1935.39 -224.313 0)
(90346.1 -1323.27 0)
(-103060 -9459.73 0)
(78664.6 -2359.89 0)
(-67148.8 -541.473 0)
(1148.88 -899.311 0)
(1080.53 -966.756 0)
(792.791 -904.052 0)
(547.503 -785.399 0)
(407.894 -645.061 0)
(297.735 -521.336 0)
(177.887 -418.366 0)
(66.5182 -341.383 0)
(-28.2712 -290.632 0)
(-89.9377 -253.198 0)
(-123.78 -224.795 0)
(-130.067 -202.519 0)
(-117.021 -184.823 0)
(-94.2307 -169.65 0)
(-72.4677 -157.286 0)
(-55.4979 -147.233 0)
(-48.2147 -139.553 0)
(-46.8313 -135.01 0)
(-48.6091 -132.124 0)
(-60.3493 -130.846 0)
(-70.9146 -131.568 0)
(-80.5144 -132.785 0)
(-95.9135 -135.275 0)
(-116.45 -139.954 0)
(-145.815 -146.261 0)
(-189.263 -155.134 0)
(-247.279 -164.399 0)
(-317.992 -178.705 0)
(-420.684 -180.006 0)
(-517.522 -199.037 0)
(-597.924 -212.44 0)
(-630.665 -239.545 0)
(-573.058 -265.32 0)
(-483.278 -296.989 0)
(-359.541 -301.23 0)
(1366.13 -299.716 0)
(85598.2 -1556.65 0)
(-97443.5 -11037.7 0)
(75793.9 -5240.24 0)
(-65177.7 -569.413 0)
(967.385 -786.898 0)
(1098.43 -847.713 0)
(884.057 -792.869 0)
(660.303 -717.808 0)
(526.525 -615.965 0)
(399.796 -518.067 0)
(258.31 -437.602 0)
(124.282 -376.855 0)
(12.3551 -334.326 0)
(-59.5326 -303.752 0)
(-99.6893 -276.908 0)
(-110.302 -252.797 0)
(-100.103 -231.911 0)
(-79.9766 -213.98 0)
(-60.8782 -199.431 0)
(-46.2883 -187.746 0)
(-41.8947 -178.768 0)
(-43.0961 -173.615 0)
(-46.6394 -170.814 0)
(-60.2443 -169.797 0)
(-72.1339 -171.069 0)
(-82.5757 -173.116 0)
(-99.7125 -176.981 0)
(-122.398 -182.758 0)
(-153.688 -191.143 0)
(-197.288 -200.097 0)
(-260.197 -209.969 0)
(-328.14 -220.319 0)
(-431.961 -217.161 0)
(-536.753 -235.284 0)
(-622.36 -249.023 0)
(-662.126 -270.885 0)
(-608.833 -302.257 0)
(-509.216 -335.132 0)
(-368.965 -351.824 0)
(725.627 -352.244 0)
(79998.6 -1520.44 0)
(-90741.4 -12430.7 0)
(72761.3 -6397.78 0)
(-62857.4 -595.856 0)
(880.697 -703.112 0)
(1074.78 -782.608 0)
(917.973 -795.634 0)
(717.974 -752.212 0)
(600.371 -670.527 0)
(469.613 -585.36 0)
(313.964 -508.328 0)
(166.038 -453.106 0)
(42.1739 -411.136 0)
(-34.6081 -378.236 0)
(-74.6788 -350.349 0)
(-86.7057 -322.952 0)
(-79.6156 -298.871 0)
(-62.932 -279.171 0)
(-47.1879 -263.095 0)
(-35.5868 -250.756 0)
(-34.5976 -240.675 0)
(-39.1662 -235.005 0)
(-44.9299 -232.683 0)
(-60.5949 -231.894 0)
(-74.1124 -233.583 0)
(-86.2114 -236.018 0)
(-105.205 -241.18 0)
(-130.098 -247.852 0)
(-162.524 -257.998 0)
(-207.404 -269.999 0)
(-266.765 -280.166 0)
(-324.923 -299.722 0)
(-435.105 -299.722 0)
(-548.225 -329.405 0)
(-632.23 -355.1 0)
(-681.964 -378.888 0)
(-634.969 -416.044 0)
(-531.042 -454.912 0)
(-376.03 -485.298 0)
(240.014 -481.86 0)
(73959 -1254.67 0)
(-83753.9 -13417.3 0)
(68784 -7943.38 0)
(-59690.1 -678.168 0)
(787.424 -739.027 0)
(1009.28 -800.495 0)
(913.347 -848.507 0)
(780.861 -814.632 0)
(687.31 -731.394 0)
(556.097 -653.993 0)
(385.755 -572.155 0)
(217.94 -522.684 0)
(84.5019 -484.082 0)
(-0.956327 -453.848 0)
(-46.4153 -433.784 0)
(-60.6959 -410.292 0)
(-57.9142 -388.676 0)
(-45.5013 -370.089 0)
(-33.4967 -354.827 0)
(-24.6841 -343.554 0)
(-26.7168 -333.018 0)
(-35.3949 -327.213 0)
(-43.6408 -325.765 0)
(-61.1112 -324.764 0)
(-76.1084 -326.08 0)
(-89.8965 -327.65 0)
(-111.116 -331.219 0)
(-138.604 -335.689 0)
(-175.029 -341.575 0)
(-218.651 -350.412 0)
(-288.84 -351.019 0)
(-346.984 -376.531 0)
(-460.564 -386.409 0)
(-590.117 -429.431 0)
(-670.044 -472.853 0)
(-720.855 -509.773 0)
(-682.093 -554.47 0)
(-575.952 -609.553 0)
(-394.933 -651.854 0)
(-15.7725 -662.416 0)
(67533.5 -1031.22 0)
(-76305.9 -14082.8 0)
(64158.2 -9019.84 0)
(-55915 -744.225 0)
(762.819 -773.904 0)
(969.278 -820.064 0)
(904.349 -885.699 0)
(830.828 -868.352 0)
(755.169 -810.621 0)
(623.062 -760.32 0)
(440.498 -691.033 0)
(250.908 -660.169 0)
(108.507 -618.788 0)
(13.8608 -590.867 0)
(-32.7063 -559.817 0)
(-43.2375 -528.865 0)
(-40.8749 -503.121 0)
(-30.3138 -481.346 0)
(-21.6179 -465.558 0)
(-14.5715 -454.939 0)
(-18.8505 -444.39 0)
(-32.1763 -438.753 0)
(-42.5709 -438.316 0)
(-60.8987 -437.094 0)
(-76.893 -438.3 0)
(-91.1634 -440.659 0)
(-112.951 -444.595 0)
(-140.077 -451.951 0)
(-176.712 -459.931 0)
(-216.505 -474.001 0)
(-291.934 -481.924 0)
(-359.026 -509.76 0)
(-486.082 -530.646 0)
(-631.526 -565.313 0)
(-709.651 -604.467 0)
(-760.613 -636.106 0)
(-731.121 -672.353 0)
(-624.885 -718.817 0)
(-426.971 -754.007 0)
(-125.56 -771.808 0)
(61026.6 -875.773 0)
(-68851.6 -14194.9 0)
(59079.1 -9633.53 0)
(-51744 -807.632 0)
(714.343 -852.483 0)
(901.546 -907.584 0)
(866.815 -965.106 0)
(853.21 -957.115 0)
(791.414 -937.051 0)
(671.336 -904.102 0)
(482.264 -850.39 0)
(287.558 -818.304 0)
(151.285 -765.277 0)
(55.8704 -725.885 0)
(13.3313 -677.116 0)
(-6.06184 -638.255 0)
(-12.123 -605.854 0)
(-9.3035 -582.24 0)
(-8.04956 -567.556 0)
(-4.28654 -559.654 0)
(-11.1198 -552.45 0)
(-29.5419 -549.006 0)
(-42.0417 -548.533 0)
(-61.0957 -545.462 0)
(-79.5434 -544.006 0)
(-95.9621 -544.05 0)
(-121.998 -547.472 0)
(-153.383 -556.899 0)
(-196.278 -572.113 0)
(-239.844 -594.83 0)
(-323.298 -611.987 0)
(-393.934 -653.718 0)
(-514.096 -687.607 0)
(-661.253 -717.338 0)
(-738.263 -749.295 0)
(-786.272 -771.916 0)
(-761.796 -795.539 0)
(-654.636 -825.26 0)
(-445.997 -846.499 0)
(-133.111 -859.024 0)
(54598.6 -860.679 0)
(-61433.3 -13829.6 0)
(53810.2 -9941.02 0)
(-47453.3 -837.419 0)
(666.501 -885.777 0)
(860.75 -950.056 0)
(856.62 -978.419 0)
(857.863 -966.172 0)
(806.254 -977.354 0)
(706.572 -956.631 0)
(523.176 -930.738 0)
(332.926 -892.79 0)
(197.565 -838.14 0)
(98.8153 -805.604 0)
(51.7365 -755.721 0)
(25.4335 -710.784 0)
(13.1033 -673.385 0)
(6.59176 -643.964 0)
(0.14739 -623.859 0)
(-0.0147367 -611.815 0)
(-8.58978 -602.674 0)
(-28.4024 -598.325 0)
(-39.1559 -597.52 0)
(-56.5356 -596.471 0)
(-75.5328 -598.536 0)
(-94.504 -602.426 0)
(-125.333 -610.999 0)
(-163.822 -623.731 0)
(-213.263 -640.58 0)
(-254.928 -664.249 0)
(-348.681 -677.413 0)
(-431.897 -713.259 0)
(-547.388 -744.26 0)
(-690.97 -772.827 0)
(-762.244 -799.618 0)
(-805.175 -818.33 0)
(-782.525 -836.15 0)
(-673.992 -855.579 0)
(-459.507 -869.64 0)
(-139.224 -876.418 0)
(48527.7 -878.272 0)
(-54362.2 -13294.8 0)
(48416.1 -9927.08 0)
(-43018.1 -843.664 0)
(605.802 -892.806 0)
(812.273 -947.462 0)
(851.284 -973.087 0)
(854.236 -965.481 0)
(800.608 -979.327 0)
(716.257 -967.892 0)
(543.782 -962.909 0)
(376.789 -919.685 0)
(235.3 -859.614 0)
(135.293 -820.497 0)
(104.704 -769.785 0)
(73.2798 -717.951 0)
(52.2671 -674.927 0)
(38.4221 -639.235 0)
(22.9306 -612.948 0)
(16.1279 -596.196 0)
(1.87892 -585.567 0)
(-24.5759 -581.18 0)
(-40.2544 -579.372 0)
(-62.0748 -578.729 0)
(-85.2822 -583.49 0)
(-107.972 -592.114 0)
(-142.528 -606.565 0)
(-181.888 -624.599 0)
(-235.322 -644.085 0)
(-275.338 -671.477 0)
(-370.527 -684.502 0)
(-458.35 -716.627 0)
(-571.498 -750.771 0)
(-714.599 -780.72 0)
(-782.111 -806.167 0)
(-821.476 -824.169 0)
(-797.691 -840.252 0)
(-686.908 -857.496 0)
(-466.078 -868.719 0)
(-141.429 -875.448 0)
(42631.7 -880.554 0)
(-47463.6 -12568.6 0)
(43186.7 -9916.48 0)
(-38747.5 -793.713 0)
(566.477 -839.307 0)
(783.389 -901.594 0)
(839.257 -925.603 0)
(851.85 -927.603 0)
(803.93 -927.246 0)
(722.392 -907.13 0)
(569.63 -907.667 0)
(432.464 -850.865 0)
(293.147 -788.633 0)
(185.378 -734.726 0)
(150.553 -674.411 0)
(116.842 -630.33 0)
(88.9564 -590.06 0)
(66.3166 -558.073 0)
(41.6221 -533.311 0)
(26.3712 -515.97 0)
(5.88006 -503.566 0)
(-22.4329 -496.568 0)
(-36.7946 -493.627 0)
(-60.5036 -495.303 0)
(-88.4305 -502.504 0)
(-116.74 -511.656 0)
(-156.636 -524.734 0)
(-199.978 -540.879 0)
(-258.437 -557.7 0)
(-293.875 -582.82 0)
(-392.189 -597.6 0)
(-495.756 -638.964 0)
(-609.15 -684.253 0)
(-744.352 -721.509 0)
(-804.113 -751.38 0)
(-838.021 -770.37 0)
(-814.641 -788.162 0)
(-701.424 -801.559 0)
(-476.806 -816.215 0)
(-150.629 -813.778 0)
(37259.8 -817.628 0)
(-41137.7 -11866.9 0)
(37865.8 -8849.86 0)
(-34271 -601.578 0)
(501.844 -682.596 0)
(729.114 -759.365 0)
(826.221 -786.185 0)
(852.653 -796.226 0)
(820.337 -791.479 0)
(735.124 -777.701 0)
(598.002 -757.007 0)
(491.494 -696.702 0)
(347.216 -639.428 0)
(245.361 -598.766 0)
(205.303 -550.907 0)
(154.564 -522.125 0)
(121.897 -494.591 0)
(93.108 -472.2 0)
(63.5021 -453.731 0)
(44.7906 -439.267 0)
(20.5756 -426.917 0)
(-14.9979 -419.702 0)
(-39.0354 -417.261 0)
(-70.6289 -419.437 0)
(-101.04 -427.468 0)
(-129.394 -436.009 0)
(-170.69 -444.497 0)
(-213.655 -454.384 0)
(-275.737 -458.739 0)
(-313.787 -474.729 0)
(-424.629 -482.912 0)
(-541.852 -514.248 0)
(-651.041 -550.987 0)
(-779.284 -583.188 0)
(-829.196 -611.958 0)
(-856.921 -628.71 0)
(-827.745 -644.487 0)
(-713.941 -655.919 0)
(-477.852 -657.488 0)
(-142.791 -632.581 0)
(31980.6 -604.488 0)
(-35024.1 -10091.4 0)
(34010.4 -8544.41 0)
(-30877.3 -224.256 0)
(414.428 -350.848 0)
(683.566 -488.598 0)
(803.736 -548.621 0)
(846.748 -576.206 0)
(821.781 -568.757 0)
(755.611 -557.521 0)
(647.684 -529.555 0)
(545.768 -475.279 0)
(387.521 -451.07 0)
(270.681 -417.464 0)
(224.407 -396.73 0)
(171.11 -387.424 0)
(137.066 -376.496 0)
(105.69 -364.338 0)
(73.357 -352.521 0)
(52.2101 -336.822 0)
(24.7341 -319.799 0)
(-13.1278 -310.27 0)
(-36.5396 -309.118 0)
(-70.3393 -314.852 0)
(-104.4 -326.912 0)
(-133.15 -336.431 0)
(-174.343 -340.343 0)
(-213.702 -340.787 0)
(-278.043 -331.467 0)
(-317.169 -336.701 0)
(-430.271 -330.611 0)
(-561.356 -341.655 0)
(-675.583 -360.369 0)
(-803.105 -372.048 0)
(-847.98 -387.771 0)
(-869.368 -395.324 0)
(-840.861 -404.748 0)
(-713.951 -405.929 0)
(-454.317 -379.14 0)
(-99.5572 -312.611 0)
(28144.9 -206.272 0)
(-30814.2 -9114.72 0)
(29771.4 16935.3 0)
(-26375.4 1409.58 0)
(247.115 314.175 0)
(538.533 27.4466 0)
(741.798 -81.6087 0)
(833.249 -125.699 0)
(838.343 -146.739 0)
(772.9 -163.7 0)
(677.253 -134.254 0)
(567.125 2.20929 0)
(402.929 356.371 0)
(297.726 953.098 0)
(234.251 1752.91 0)
(174.061 2421.51 0)
(144.144 3021.79 0)
(116.211 3456.14 0)
(90.0171 3759.32 0)
(76.3229 3914.41 0)
(46.1624 4014.89 0)
(-4.70541 3916.74 0)
(-43.4507 3918.16 0)
(-87.7762 4024.23 0)
(-121.835 3931.93 0)
(-142.336 3785.27 0)
(-174.887 3497.54 0)
(-205.102 3074.7 0)
(-271.799 2541.9 0)
(-312.962 1824.94 0)
(-429.403 1144.62 0)
(-570.528 528.885 0)
(-680.329 162.372 0)
(-805.689 15.138 0)
(-851.626 -39.2539 0)
(-873.281 -49.323 0)
(-837.965 -57.1696 0)
(-689.264 -61.8106 0)
(-387.927 -19.9739 0)
(23.791 136.078 0)
(23498.5 1264.27 0)
(-26483.1 17797.5 0)
(50911 590453 0)
(-46894 50106.4 0)
(-917.448 27753.8 0)
(302.175 32563.3 0)
(656.16 36665.8 0)
(783.986 42296.2 0)
(785.162 48009.9 0)
(767.642 54337.9 0)
(807.56 60815.8 0)
(1018.55 67656.5 0)
(1303.83 74344.3 0)
(1616.43 80944.9 0)
(1639.42 87086.6 0)
(1393.85 92735.5 0)
(1134.08 97675.1 0)
(816.404 101745 0)
(514.964 104544 0)
(298.481 106981 0)
(26.9805 108182 0)
(-106.34 109070 0)
(67.0358 109062 0)
(-57.065 108108 0)
(-334.668 106889 0)
(-551.748 104315 0)
(-859.076 101578 0)
(-1134.6 97261.3 0)
(-1482.35 92417 0)
(-1663.64 86548 0)
(-1679.2 80278.3 0)
(-1507.88 73625.3 0)
(-1170.65 66720.5 0)
(-997.4 59731.6 0)
(-910.097 53001.5 0)
(-886.632 46393.7 0)
(-852.894 40385.7 0)
(-678.108 34458.6 0)
(-263.624 30107.8 0)
(1137.98 24851.5 0)
(45164.1 45367.1 0)
(-47985.4 554261 0)
(642388 -665593 0)
(-568613 -53926.5 0)
(-16658.1 -32388.3 0)
(9126.38 -37074.2 0)
(10120.7 -41679.7 0)
(11764.9 -48188.6 0)
(12442.2 -54803.9 0)
(13113.1 -62085.6 0)
(13511.6 -69437.1 0)
(13603.7 -77202.2 0)
(13208.1 -84885 0)
(12576.7 -92518.3 0)
(11596.1 -99843.5 0)
(10377.5 -106441 0)
(8825.68 -112204 0)
(6735.07 -116882 0)
(5136.28 -120089 0)
(3582.6 -122787 0)
(2059.32 -124147 0)
(843.422 -124988 0)
(-970.985 -124951 0)
(-2182.53 -124003 0)
(-3777.03 -122585 0)
(-5260.25 -119694 0)
(-6971.87 -116506 0)
(-9032.61 -111504 0)
(-10595.6 -105832 0)
(-12010.2 -98803.3 0)
(-12882.2 -91418.8 0)
(-13635.3 -83428.8 0)
(-14068.8 -75395.2 0)
(-14025.8 -67276.8 0)
(-13704.6 -59467.1 0)
(-13030.4 -51782.5 0)
(-12339 -44743.3 0)
(-10593.4 -37849.8 0)
(-9645.7 -33005.7 0)
(14728.2 -28016.6 0)
(533657 -48278.3 0)
(-599119 -623297 0)
(642388 665593 0)
(-568613 53926.5 0)
(-16658.1 32388.3 0)
(9126.38 37074.2 0)
(10120.7 41679.7 0)
(11764.9 48188.6 0)
(12442.2 54803.9 0)
(13113.1 62085.6 0)
(13511.6 69437.1 0)
(13603.7 77202.2 0)
(13208.1 84885 0)
(12576.7 92518.3 0)
(11596.1 99843.5 0)
(10377.5 106441 0)
(8825.68 112204 0)
(6735.07 116882 0)
(5136.28 120089 0)
(3582.6 122787 0)
(2059.32 124147 0)
(843.422 124988 0)
(-970.985 124951 0)
(-2182.53 124003 0)
(-3777.03 122585 0)
(-5260.25 119694 0)
(-6971.87 116506 0)
(-9032.61 111504 0)
(-10595.6 105832 0)
(-12010.2 98803.3 0)
(-12882.2 91418.8 0)
(-13635.3 83428.8 0)
(-14068.8 75395.2 0)
(-14025.8 67276.8 0)
(-13704.6 59467.1 0)
(-13030.4 51782.5 0)
(-12339 44743.3 0)
(-10593.4 37849.8 0)
(-9645.7 33005.7 0)
(14728.2 28016.6 0)
(533657 48278.3 0)
(-599119 623297 0)
(50911 -590453 0)
(-46894 -50106.4 0)
(-917.448 -27753.8 0)
(302.175 -32563.3 0)
(656.16 -36665.8 0)
(783.986 -42296.2 0)
(785.162 -48009.9 0)
(767.642 -54337.9 0)
(807.56 -60815.8 0)
(1018.55 -67656.5 0)
(1303.83 -74344.3 0)
(1616.43 -80944.9 0)
(1639.42 -87086.6 0)
(1393.85 -92735.5 0)
(1134.08 -97675.1 0)
(816.404 -101745 0)
(514.964 -104544 0)
(298.481 -106981 0)
(26.9805 -108182 0)
(-106.34 -109070 0)
(67.0358 -109062 0)
(-57.065 -108108 0)
(-334.668 -106889 0)
(-551.748 -104315 0)
(-859.076 -101578 0)
(-1134.6 -97261.3 0)
(-1482.35 -92417 0)
(-1663.64 -86548 0)
(-1679.2 -80278.3 0)
(-1507.88 -73625.3 0)
(-1170.65 -66720.5 0)
(-997.4 -59731.6 0)
(-910.097 -53001.5 0)
(-886.632 -46393.7 0)
(-852.894 -40385.7 0)
(-678.108 -34458.6 0)
(-263.624 -30107.8 0)
(1137.98 -24851.5 0)
(45164.1 -45367.1 0)
(-47985.4 -554261 0)
(29771.4 -16935.3 0)
(-26375.4 -1409.58 0)
(247.115 -314.175 0)
(538.533 -27.4466 0)
(741.798 81.6087 0)
(833.249 125.699 0)
(838.343 146.739 0)
(772.9 163.7 0)
(677.253 134.254 0)
(567.125 -2.20929 0)
(402.929 -356.371 0)
(297.726 -953.098 0)
(234.251 -1752.91 0)
(174.061 -2421.51 0)
(144.144 -3021.79 0)
(116.211 -3456.14 0)
(90.0171 -3759.32 0)
(76.3229 -3914.41 0)
(46.1624 -4014.89 0)
(-4.70541 -3916.74 0)
(-43.4507 -3918.16 0)
(-87.7762 -4024.23 0)
(-121.835 -3931.93 0)
(-142.336 -3785.27 0)
(-174.887 -3497.54 0)
(-205.102 -3074.7 0)
(-271.799 -2541.9 0)
(-312.962 -1824.94 0)
(-429.403 -1144.62 0)
(-570.528 -528.885 0)
(-680.329 -162.372 0)
(-805.689 -15.138 0)
(-851.626 39.2539 0)
(-873.281 49.323 0)
(-837.965 57.1696 0)
(-689.264 61.8106 0)
(-387.927 19.9739 0)
(23.791 -136.078 0)
(23498.5 -1264.27 0)
(-26483.1 -17797.5 0)
(34010.4 8544.41 0)
(-30877.3 224.256 0)
(414.428 350.848 0)
(683.566 488.598 0)
(803.736 548.621 0)
(846.748 576.206 0)
(821.781 568.757 0)
(755.611 557.521 0)
(647.684 529.555 0)
(545.768 475.279 0)
(387.521 451.07 0)
(270.681 417.464 0)
(224.407 396.73 0)
(171.11 387.424 0)
(137.066 376.496 0)
(105.69 364.338 0)
(73.357 352.521 0)
(52.2101 336.822 0)
(24.7341 319.799 0)
(-13.1278 310.27 0)
(-36.5396 309.118 0)
(-70.3393 314.852 0)
(-104.4 326.912 0)
(-133.15 336.431 0)
(-174.343 340.343 0)
(-213.702 340.787 0)
(-278.043 331.467 0)
(-317.169 336.701 0)
(-430.271 330.611 0)
(-561.356 341.655 0)
(-675.583 360.369 0)
(-803.105 372.048 0)
(-847.98 387.771 0)
(-869.368 395.324 0)
(-840.861 404.748 0)
(-713.951 405.929 0)
(-454.317 379.14 0)
(-99.5572 312.611 0)
(28144.9 206.272 0)
(-30814.2 9114.72 0)
(37865.8 8849.86 0)
(-34271 601.578 0)
(501.844 682.596 0)
(729.114 759.365 0)
(826.221 786.185 0)
(852.653 796.226 0)
(820.337 791.479 0)
(735.124 777.701 0)
(598.002 757.007 0)
(491.494 696.702 0)
(347.216 639.428 0)
(245.361 598.766 0)
(205.303 550.907 0)
(154.564 522.125 0)
(121.897 494.591 0)
(93.108 472.2 0)
(63.5021 453.731 0)
(44.7906 439.267 0)
(20.5756 426.917 0)
(-14.9979 419.702 0)
(-39.0354 417.261 0)
(-70.6289 419.437 0)
(-101.04 427.468 0)
(-129.394 436.009 0)
(-170.69 444.497 0)
(-213.655 454.384 0)
(-275.737 458.739 0)
(-313.787 474.729 0)
(-424.629 482.912 0)
(-541.852 514.248 0)
(-651.041 550.987 0)
(-779.284 583.188 0)
(-829.196 611.958 0)
(-856.921 628.71 0)
(-827.745 644.487 0)
(-713.941 655.919 0)
(-477.852 657.488 0)
(-142.791 632.581 0)
(31980.6 604.488 0)
(-35024.1 10091.4 0)
(43186.7 9916.48 0)
(-38747.5 793.713 0)
(566.477 839.307 0)
(783.389 901.594 0)
(839.257 925.603 0)
(851.85 927.603 0)
(803.93 927.246 0)
(722.392 907.13 0)
(569.63 907.667 0)
(432.464 850.865 0)
(293.147 788.633 0)
(185.378 734.726 0)
(150.553 674.411 0)
(116.842 630.33 0)
(88.9564 590.06 0)
(66.3166 558.073 0)
(41.6221 533.311 0)
(26.3712 515.97 0)
(5.88005 503.566 0)
(-22.4329 496.568 0)
(-36.7946 493.627 0)
(-60.5036 495.303 0)
(-88.4305 502.504 0)
(-116.74 511.656 0)
(-156.636 524.734 0)
(-199.978 540.879 0)
(-258.437 557.7 0)
(-293.875 582.82 0)
(-392.189 597.6 0)
(-495.756 638.964 0)
(-609.15 684.253 0)
(-744.352 721.509 0)
(-804.113 751.38 0)
(-838.021 770.37 0)
(-814.641 788.162 0)
(-701.424 801.559 0)
(-476.806 816.215 0)
(-150.629 813.778 0)
(37259.8 817.628 0)
(-41137.7 11866.9 0)
(48416.1 9927.08 0)
(-43018.1 843.664 0)
(605.802 892.806 0)
(812.273 947.462 0)
(851.284 973.087 0)
(854.236 965.481 0)
(800.608 979.327 0)
(716.257 967.892 0)
(543.782 962.909 0)
(376.789 919.685 0)
(235.3 859.614 0)
(135.293 820.497 0)
(104.704 769.785 0)
(73.2798 717.951 0)
(52.2671 674.927 0)