/*--------------------------------*- C++ -*----------------------------------*\
| =========                 |                                                 |
| \\      /  F ield         | OpenFOAM: The Open Source CFD Toolbox           |
|  \\    /   O peration     | Version:  v1912                                 |
|   \\  /    A nd           | Website:  www.openfoam.com                      |
|    \\/     M anipulation  |                                                 |
\*---------------------------------------------------------------------------*/
FoamFile
{
    version     2.0;
    format      ascii;
    class       volScalarField;
    location    "3.9";
    object      s;
}
// * * * * * * * * * * * * * * * * * * * * * * * * * * * * * * * * * * * * * //

dimensions      [0 2 -2 0 0 0 0];


internalField   nonuniform List<scalar> 
10000
(
-1.32618e-21
1.02806e-18
-7.81203e-17
-4.44186e-15
5.25451e-13
-3.4202e-11
4.47948e-09
1.19553e-07
4.6494e-07
-2.60302e-07
-6.92515e-07
1.79131e-06
-2.10366e-06
1.05313e-06
1.28438e-06
-4.28157e-06
7.06311e-06
-8.81788e-06
9.03681e-06
-7.55086e-06
4.49858e-06
-4.30303e-07
-4.11381e-06
8.79076e-06
-1.27988e-05
1.55343e-05
-1.74145e-05
1.80375e-05
-1.69689e-05
1.53874e-05
-1.28093e-05
9.50613e-06
-6.53165e-06
3.14294e-06
-3.5394e-07
-1.90962e-06
3.83436e-06
-4.77793e-06
5.40057e-06
-5.33933e-06
4.85028e-06
-4.18394e-06
3.20943e-06
-2.33923e-06
1.4797e-06
-7.76075e-07
3.12063e-07
8.34392e-09
-1.19009e-07
1.06379e-07
-4.39305e-08
-1.55441e-08
1.46746e-07
7.5818e-08
2.07026e-07
4.28594e-07
2.00091e-07
6.66462e-07
3.45326e-07
3.66333e-07
5.94522e-07
-3.94777e-07
3.63232e-07
-9.52469e-07
-9.71573e-07
-9.15673e-07
-2.85422e-06
-1.2005e-06
-3.33156e-06
-2.93129e-06
-1.82363e-06
-4.15267e-06
-1.38655e-06
-1.73958e-06
-2.3144e-06
2.00494e-07
1.25842e-07
4.97909e-07
1.43551e-06
1.58418e-06
1.64066e-06
1.48845e-06
1.1178e-06
6.57349e-07
1.99624e-07
-1.43487e-07
-3.03244e-07
-2.80291e-07
-1.4661e-07
-1.21031e-08
4.31948e-08
2.37169e-08
-7.3203e-09
2.09415e-10
2.03468e-12
-7.96161e-15
-2.44811e-15
-8.92784e-17
-9.00734e-19
-1.11701e-21
-1.06207e-18
5.07394e-16
-4.95387e-14
-6.35849e-13
2.69313e-10
-2.32019e-08
-2.98178e-06
-2.86632e-05
-4.50967e-05
6.84501e-05
-1.13918e-05
-9.69065e-05
0.000193485
-0.000223519
0.000163223
-2.16423e-05
-0.000169862
0.000369123
-0.000537847
0.000651991
-0.00068378
0.000630338
-0.000530104
0.000361648
-0.000114607
-9.79822e-05
0.000295818
-0.00054773
0.000695307
-0.000807103
0.000926106
-0.000908795
0.000906881
-0.000844152
0.000714569
-0.000617627
0.000444305
-0.000306206
0.000161367
-1.34864e-05
-8.08527e-05
0.000186399
-0.00023492
0.000267178
-0.000275724
0.000242944
-0.000214643
0.000154803
-9.72757e-05
5.57377e-05
1.42809e-05
-7.40151e-06
6.76946e-05
-1.30696e-05
4.52892e-05
2.13838e-05
-2.44494e-05
4.37248e-05
-8.08633e-05
-1.11953e-06
-7.55243e-05
-0.000117408
-2.78359e-05
-0.000221591
-3.39819e-05
-0.000188982
-0.000162097
-1.67722e-05
-0.000279555
6.22597e-05
-0.000116877
-0.000117113
0.000191984
-0.000134208
6.76317e-05
0.000209874
2.53554e-05
0.000111843
0.000136953
9.09573e-05
7.80217e-05
5.07925e-05
2.11104e-05
-4.86726e-06
-2.4125e-05
-3.2252e-05
-2.91622e-05
-1.77739e-05
-3.97533e-06
5.41721e-06
6.61664e-06
1.94378e-06
-1.92604e-06
1.91097e-07
2.74288e-10
2.13301e-11
1.28191e-12
3.78374e-14
4.15141e-16
9.46753e-19
-9.30933e-17
5.31249e-14
-1.01367e-11
6.11093e-10
-2.52769e-08
1.41107e-05
0.000274714
0.00116164
0.000405348
-0.00182661
0.00172231
-0.000180895
-0.00191658
0.00361904
-0.00431127
0.00381059
-0.00224499
-4.14866e-05
0.00252049
-0.00502964
0.00729691
-0.00834997
0.00900058
-0.00996199
0.00876849
-0.00669722
0.00633158
-0.0038499
0.00109709
-0.000120805
-0.00306433
0.00462388
-0.00598024
0.00815834
-0.00821317
0.00952179
-0.00939311
0.00907593
-0.00898727
0.00750783
-0.0070086
0.0052525
-0.00403266
0.00262794
-0.000822147
3.72141e-05
0.00188296
-0.00205127
0.00349203
-0.00321454
0.00368553
-0.00322748
0.00249222
-0.00220824
0.000344214
-0.000675343
-0.00190797
0.000536324
-0.00317514
0.000555725
-0.00264051
-0.000967656
-0.000460638
-0.0031412
0.00176916
-0.00364488
0.00154197
-0.000405724
-0.00182504
0.00447588
-0.0036631
0.00363039
0.0019997
-0.00334645
0.00618959
0.00138736
-0.00138526
0.00262501
0.00118291
0.000244247
0.000308145
-6.96173e-05
-0.000350634
-0.000560725
-0.000627583
-0.000542645
-0.00034872
-9.6021e-05
0.000122785
0.000213776
0.000144301
-8.53017e-06
-8.33338e-05
2.09796e-05
-8.94211e-07
-8.75172e-09
-2.11033e-10
-4.46184e-12
-4.38841e-14
-1.09373e-16
3.0791e-15
-3.19128e-13
-5.57706e-10
7.52599e-08
-2.55934e-05
-0.00086131
-0.00674218
-0.0132716
0.0058519
0.00968815
-0.0173329
0.0136351
-0.00259804
-0.00999632
0.0196756
-0.0244002
0.0239285
-0.0181612
0.0100358
-0.00187117
-0.0114204
0.0211774
-0.0211147
0.0332505
-0.0436525
0.0331015
-0.0376519
0.0405477
-0.027667
0.0321108
-0.0233547
0.0159515
-0.01527
0.00155198
-0.00191288
-0.00876244
0.0134967
-0.0165311
0.0251744
-0.0234351
0.0316255
-0.028291
0.0335527
-0.0303912
0.0310431
-0.0292102
0.0245807
-0.024089
0.0150846
-0.0155307
0.0035561
-0.00526173
-0.00844403
0.0047851
-0.0184312
0.0127169
-0.0235712
0.0159897
-0.0217702
0.0119776
-0.0123934
0.000944715
0.00304296
-0.011921
0.0189872
-0.0182329
0.0241852
-0.00908182
0.00724507
0.0169396
-0.0230314
0.0366395
-0.0210309
0.0077869
0.0443642
-0.0333689
-0.00102148
0.0220636
-0.00494533
-0.00418923
-0.000801374
-0.0023775
-0.00368468
-0.0039647
-0.00311502
-0.00197202
-0.000571309
0.000927884
0.00187368
0.00176745
0.000592261
-0.000828526
-0.000995629
0.000584641
-7.44698e-05
1.6113e-06
1.58482e-08
2.44444e-10
1.9271e-12
4.06689e-15
4.15665e-13
-2.34004e-10
-1.75442e-08
2.34079e-05
0.00114762
0.0144218
0.056606
0.0446356
-0.0562778
0.00760191
0.0352838
-0.0470391
0.032458
-0.00589006
-0.0193523
0.0361629
-0.0465417
0.0467018
-0.0327523
0.0310879
-0.0203983
-0.0170185
0.00298293
-0.000515963
0.0508351
-0.0310308
0.0316896
-0.057627
0.0289652
-0.0509736
0.040815
-0.0372667
0.0514632
-0.0241367
0.047464
-0.0270915
0.0293931
-0.0224573
0.015772
-0.0127868
-2.82241e-05
-0.00747153
-0.0144037
0.00131624
-0.0221961
0.0153467
-0.0298763
0.0279533
-0.0411324
0.0357684
-0.0503959
0.039996
-0.050644
0.0410375
-0.0420333
0.0349658
-0.0299498
0.0177214
-0.0140855
-0.00678257
0.012659
-0.0274471
0.0468144
-0.0377748
0.0655812
-0.040604
0.0498953
-0.0316383
0.00651067
0.0131191
-0.0414416
0.0761739
-0.0478539
0.0853697
-0.00849479
-0.125345
0.0862539
0.0388633
-0.0531183
-0.0127448
0.00766667
-0.00652278
-0.0137542
-0.00741984
-0.00294887
-0.00135689
0.00187307
0.00542125
0.00627759
0.00379975
-0.00151038
-0.0059572
-0.00338159
0.00544854
-0.00151295
0.000118984
-1.63187e-06
-1.11759e-08
-5.6699e-11
-6.08515e-14
2.27531e-11
-2.022e-08
-1.05545e-05
-0.000668849
-0.0125646
-0.0827725
-0.170269
-0.00451608
0.0971527
-0.070067
0.0210901
0.00188591
0.00135719
-0.0187557
0.0350958
-0.034546
0.0283075
-0.038945
0.0199926
0.00331217
0.0223558
0.0122614
-0.0115199
-0.0279795
-0.0239993
-0.0142325
0.0202164
0.0064788
0.0341402
0.00567483
0.0362767
-0.0143925
-0.00568244
-0.0305687
0.00829214
-0.00817743
-0.00762867
-0.0174308
-0.0286942
-0.00643898
-0.00642913
0.0223218
0.010754
0.0220634
-0.00615935
0.0107124
-0.0284304
0.0135937
-0.0348123
0.0267605
-0.0246294
0.029465
-0.0133888
0.00651424
-0.013837
-0.0269993
-0.0123524
-0.0368646
0.01419
-0.0189044
0.0523123
-0.0117228
0.0571203
-0.0360066
0.0152682
-0.0499094
-0.0268633
0.000216951
-0.0172044
0.0532545
-0.0227193
0.0611874
-0.0448049
0.00639902
-0.0499835
-0.0318124
0.117506
-0.0146329
-0.1004
0.0257912
0.0405158
-0.0431865
-0.0219443
0.00862711
0.00130145
-0.00524615
0.00303049
0.00780725
0.00557047
0.000978912
-0.00691825
-0.0111044
-0.000234416
0.0178014
-0.0101149
0.00177684
-9.56845e-05
1.01471e-06
2.07715e-09
-1.2778e-12
2.7218e-09
1.52682e-06
0.000121479
0.00325468
0.0369308
0.153021
0.135549
-0.105665
0.058783
-0.0364867
0.00344406
0.039295
-0.0654897
0.0792682
-0.0942535
0.0800908
-0.0233223
0.00250103
-0.0184348
-0.0230445
0.0338086
-0.0303821
0.0178682
0.00893829
0.0246131
0.0187562
-0.0235079
0.0410016
-0.0440493
0.0123033
-0.081835
0.0602149
-0.035724
0.00775932
-0.0357552
0.0110247
0.00678916
0.0473909
0.0370085
0.0221941
-0.0137028
-0.0283354
-0.0202004
-0.00364029
-0.0112664
0.0213623
-0.0244223
0.0312223
-0.0363589
0.0212575
-0.04234
-0.0217105
-0.0364443
-0.0585703
0.00569738
-0.0354891
0.0634058
0.0132014
0.0697087
0.00506757
0.00760106
-0.0462542
-0.0355413
-0.0515143
0.00332123
0.00939046
0.0506732
0.0291275
-0.0435204
-0.057473
-0.0248286
0.000350982
0.0725871
0.0264056
-0.0295011
-0.0676582
0.0575118
0.0239402
-0.0547701
0.0850317
-0.052699
-0.0783104
0.0454354
0.0234404
-0.0241284
-0.017329
0.0170767
0.00827177
0.00201168
0.00452648
0.00027719
-0.00285059
0.00408083
0.0147911
-0.0199033
0.0075643
-0.000969729
3.69175e-05
-2.92221e-07
1.75131e-10
1.02883e-08
1.19821e-05
0.000864583
0.0114785
0.0264121
-0.024336
0.0532003
0.0316942
-0.131761
0.154867
-0.111845
0.0355078
-0.00418039
0.0339893
-0.0200962
-0.00938256
-0.0251817
0.0759666
-0.0797628
0.0924503
-0.0909072
0.0742081
-0.088424
0.0569358
-0.0322272
0.039542
-0.0102682
-0.0643287
0.0595802
-0.0249402
0.0723222
-0.0913976
0.086613
-0.0962399
0.0686108
-0.02733
0.0432861
-0.0184241
-0.0443219
0.0687823
-0.0257328
0.0802096
-0.139664
0.0455573
-0.144207
0.0637963
-0.0508603
0.0686244
0.00964193
0.00292012
0.0254204
-0.0594175
0.0544717
-0.0641314
0.0748013
-0.0246478
0.0328389
0.0163401
-0.0192245
0.0350006
-0.0212399
0.0332308
0.00227966
-0.00712709
0.00648188
-0.0362514
-0.0396759
-0.0191818
-0.0427312
0.0313312
0.0656425
0.0014071
-0.0407348
-0.0281924
-0.0374741
0.0716411
0.126133
-0.0666146
-0.0199205
0.0108931
-0.106183
0.0761554
0.0578456
-0.0426871
-0.068556
0.0314304
0.0620991
-0.00813114
0.00554253
0.0119471
0.00293705
-0.00330831
-0.0097159
-0.00206875
0.00973458
0.00054387
-0.00167334
0.000211048
-5.34743e-06
1.85283e-08
-1.92212e-06
-0.000378068
-0.0118988
-0.0936697
-0.171844
0.0292443
-0.021108
-0.0452025
0.0579957
-0.0226982
0.00101479
0.068672
-0.158169
0.078775
-0.00263291
0.037888
-0.0195848
-0.00318917
0.011995
-0.0814094
0.100118
-0.0978603
0.174044
-0.14906
0.126565
-0.115092
0.130674
-0.121693
0.0213074
-0.0409752
-0.0330997
0.082794
-0.116901
0.167261
-0.166723
0.164654
-0.175923
0.234193
-0.149542
0.0766967
-0.114206
0.0540716
-0.00313648
-0.0259726
0.128405
-0.142538
0.186975
-0.204811
0.187265
-0.17353
0.117086
-0.0814258
0.0214256
0.0184865
-0.0509
0.12518
-0.102281
0.160345
-0.0874666
0.0517879
-0.0282564
-0.0773547
0.0341746
-0.0894771
0.0778719
0.031559
0.0183807
0.088007
-0.112307
-0.0620112
-0.00316711
-0.0846581
0.00730006
0.107106
0.0737119
-0.028982
-0.0245088
-0.172652
0.101559
0.172267
-0.023326
-0.0377159
-0.0345445
-0.0560704
-0.0550921
0.130074
0.00553301
-0.0485116
0.0331455
0.0010592
-0.00674232
-0.000603522
0.0030325
0.0138602
0.0274567
-0.0402558
0.00942738
-0.000376303
-8.97761e-06
1.44685e-07
1.90341e-05
0.00219557
0.0412107
0.181029
0.0724036
-0.252256
0.0769849
0.0531653
-0.073546
0.0316035
-0.0520302
0.058301
0.170817
-0.282482
0.193567
-0.209192
0.181558
-0.131861
0.115522
-0.0648448
0.0661576
-0.0176784
-0.046459
0.104945
-0.23153
0.173425
-0.231419
0.277007
-0.239396
0.248316
-0.241257
0.146486
-0.0706892
0.0990782
0.0485156
-0.0554454
0.169094
-0.168627
0.172136
-0.309776
0.177601
-0.263926
0.209727
-0.130217
0.178586
-0.0310393
0.0401003
0.0125343
-0.131807
0.0934717
-0.236394
0.185947
-0.200644
0.198318
-0.0854338
0.107468
0.0235054
-0.0302201
0.122185
-0.156341
0.161929
-0.137557
0.0914351
-0.0128171
-0.0608544
0.120511
-0.114002
0.100924
-0.0143276
-0.0822733
0.0817631
-0.0920198
-0.093694
-0.0107643
-0.0141386
-0.0273541
0.0932865
0.0757366
0.242923
0.0295998
-0.212984
-0.0776089
0.0803989
-0.0384679
-0.00250889
0.0585964
-0.143415
0.0274793
0.0562764
-0.0182714
0.000757616
-0.0127098
-0.0111153
-0.0135464
-0.0321656
-0.028997
0.0296027
-0.00450494
0.00014017
-4.31168e-07
-7.56141e-05
-0.00578959
-0.0704041
-0.180813
0.00637869
0.0431842
-0.0630023
0.0282144
0.0762571
-0.0899522
0.0899697
-0.253527
0.175737
0.0565651
-0.10957
0.196503
-0.222639
0.260371
-0.300108
0.250481
-0.254298
0.209743
-0.182882
0.184039
-0.0858326
-0.0096224
0.0621975
-0.184498
0.152372
-0.238375
0.311644
-0.168739
0.218931
-0.270839
0.228824
-0.157026
0.0909527
-0.0925519
0.0784452
-0.0615059
0.00796268
0.0164325
-0.0661028
0.0402255
-0.0840421
0.0560541
-0.0694779
0.0676765
-0.028453
0.0391341
0.00961254
-0.0121843
0.0590746
-0.0563107
0.115182
-0.0788089
0.14204
-0.0731788
0.066286
-0.014569
-0.0933063
0.0701149
-0.185424
0.109134
-0.141831
0.111415
0.0171092
-0.037841
0.0805803
-0.140342
0.0123352
0.00229942
-0.041268
0.0700784
0.116708
0.0989397
0.0770749
-0.0591725
0.0461807
-0.130772
-0.19709
0.107285
0.11717
-0.121655
-0.00603797
-0.0432534
-0.0939216
0.0983005
0.000172787
0.0254198
0.00184496
-0.0571167
-0.0311181
-0.00648913
0.012703
0.0385929
0.0122049
-0.00838577
0.00062571
-6.03971e-06
0.00016917
0.00935696
0.07955
0.132092
-0.00697426
-0.035391
0.0995717
-0.0181015
-0.180767
0.258264
-0.133303
0.233297
-0.351259
0.295674
-0.318438
0.21855
-0.13499
-0.00116963
0.21086
-0.283886
0.394638
-0.48109
0.365317
-0.378168
0.351714
-0.267239
0.250535
-0.189499
0.177672
-0.164384
0.0577975
-0.155477
0.127367
0.0180321
0.0889305
-0.109871
0.0241352
-0.0911244
0.0359837
-0.046074
0.0492931
-0.00181382
0.00638993
0.0421541
-0.0733308
0.0882365
-0.121168
0.113658
-0.109141
0.122995
-0.0796922
0.114654
-0.0493062
0.0610407
-0.0304613
0.00879023
-0.039957
-0.0043013
-0.0395526
-0.00271906
-0.00750651
-0.0456245
0.0247239
-0.103355
0.00311167
-0.0808365
0.0520753
0.0463178
0.0733832
0.140598
0.00840141
0.0662903
0.0215097
-0.0791451
-0.0518982
-0.0147866
-0.0522575
-0.159345
-0.00945201
-0.108465
-0.0821793
0.238687
0.163913
-0.277294
0.0450605
0.124978
-0.0226727
0.0292747
0.0779012
0.1177
-0.0549885
-0.0292727
0.044325
0.0451441
0.0423472
-0.00112675
-0.0214374
-0.00199854
0.000837331
-1.72794e-05
-0.000253718
-0.00989951
-0.0435456
0.0512629
0.210732
0.0384191
-0.273818
0.336714
-0.181691
-0.0250389
-0.0259574
-0.017579
0.16584
-0.225815
0.464355
-0.548788
0.617378
-0.674574
0.467321
-0.347717
0.246794
-0.0976902
0.0121066
-0.0250793
0.0153759
-0.094552
0.0131537
-0.0781935
0.137217
-0.00769016
0.0819541
0.0158095
0.061295
-0.0145899
-0.13344
0.0453715
-0.196515
0.0692282
-0.189438
0.0885796
-0.151415
0.143486
-0.0950467
0.171232
-0.0512451
0.148123
-0.0265341
0.049966
-0.00208692
-0.0785129
0.041784
-0.146076
0.0912333
-0.136214
0.109163
-0.0897964
0.0958029
-0.0559607
0.0746716
-0.0247156
0.0479758
0.0396123
-0.0198578
0.122379
-0.135519
0.120052
-0.144759
0.0201537
-0.0193203
-0.0935041
0.0982484
-0.124399
0.0602829
0.0444945
-0.136063
0.0147458
-0.00192306
-0.120161
0.127084
0.0622768
0.161878
0.292666
-0.0122769
-0.274263
0.0332372
0.130124
0.0186958
-0.00198002
0.0618824
-0.0578115
-0.186193
-0.00733036
0.0144645
-0.0220774
-0.0289134
-0.0310475
-0.000935113
0.00485838
9.64227e-05
-1.74003e-05
0.000254425
0.00480969
-0.0181283
-0.11042
-0.0695144
0.215624
0.0545397
-0.313538
0.356304
-0.244223
0.354391
-0.460902
0.412572
-0.355504
0.0671222
0.039361
-0.162028
0.327787
-0.241477
0.172685
-0.105726
-0.00821935
0.0156025
-0.0608543
-0.00563838
0.0605747
-0.134647
0.112863
-0.203053
0.119635
-0.179614
0.162019
-0.0526348
0.117069
0.0274963
0.0709281
-0.0463967
0.02675
-0.0894546
-0.00114298
-0.0893064
-0.0146829
-0.0893301
-0.0162538
-0.063905
-0.00856309
-0.0270333
-0.00425078
-0.00604864
-0.00450477
0.00276981
-0.00551321
0.00306094
-5.77866e-05
-0.0157172
0.0183228
-0.0448592
0.0447836
-0.0670871
0.0702263
-0.0744503
0.0790428
-0.0838054
0.0382783
-0.0632554
-0.0823849
0.0343696
-0.141598
0.11747
-0.0415097
0.0506581
0.0927713
-0.121476
0.1319
-0.0285091
-0.0131368
0.10065
-0.0824803
0.124443
-0.0454175
0.0640094
0.150034
-0.210004
-0.259067
0.0381351
0.0228782
0.0412859
-0.0702635
-0.0634661
-0.103785
-0.019644
0.0996884
0.00578261
0.0196514
0.0147463
0.0133419
0.016399
-0.00251336
-0.000173531
-2.90295e-06
-0.000137193
0.00109618
0.0171295
-0.00519359
-0.0603452
-0.379702
0.289182
-0.0499308
-0.00730775
-0.0816177
-0.153913
0.563312
-0.772033
0.839026
-0.583443
0.356612
-0.181449
0.0803842
-0.138582
0.14621
-0.259563
0.377707
-0.336501
0.238176
-0.355789
0.178023
-0.132784
0.174841
-0.0487678
0.103569
-0.112001
0.0715439
-0.190528
0.0796569
-0.209816
0.0885592
-0.174766
0.140233
-0.102314
0.122568
-0.0444284
0.0591124
-0.0172724
0.0124523
-0.0214768
-0.0401506
-0.0359094
-0.112739
-0.0256227
-0.155569
0.0112786
-0.128402
0.0441593
-0.0582565
0.0462757
0.00380351
0.0197662
0.0341042
-0.00606569
0.0571146
0.000573007
0.093591
0.0177686
0.0948845
0.00519746
0.034558
-0.0653029
-0.0283085
-0.126549
-0.0160079
-0.068306
0.00938895
0.0200346
-0.0544117
-0.0221185
-0.0191901
-0.0489306
-0.105793
0.0493668
-0.149605
-0.0181379
-0.00774053
-0.182991
-0.178908
0.162178
0.0316567
-0.128359
-0.00477089
0.0867554
0.00569778
0.123811
0.0631919
-0.0604867
0.0472152
-0.00973202
0.00348527
-0.0203187
-0.00110899
0.00047362
-7.18766e-06
1.4565e-05
-0.000344495
0.0130464
0.011048
0.267505
0.0824737
-0.450526
0.205902
-0.432195
0.918034
-0.83463
0.313955
0.0529221
-0.279737
0.118931
0.0657124
-0.209541
0.280126
-0.27959
0.166403
-0.0948629
0.105779
-0.0558008
0.081398
-0.227494
0.129308
-0.305082
0.181442
-0.221752
0.172537
-0.00528875
0.0873649
0.0631578
0.0100515
0.024522
-0.0495714
-0.0325298
-0.0499579
-0.0877775
-0.0293592
-0.0617758
0.00198114
0.0269604
0.00836726
0.0815538
-0.0201185
0.062203
-0.0554937
0.00822332
-0.0642253
-0.0242229
-0.0324451
-0.0122692
0.0238432
0.0231979
0.0754738
0.0421403
0.101271
0.0272288
0.0935942
0.00455923
0.0724614
0.00365889
0.0341153
0.0156554
-0.0436688
0.0447637
-0.113935
0.0722875
-0.142101
0.0639335
-0.0257359
0.0186848
0.168217
-0.108521
0.132565
-0.0252085
-0.0503384
0.0660809
-0.0755406
0.0290812
0.0508015
-0.108456
-0.160914
0.343118
0.196271
-0.140274
0.00342669
0.110714
-0.0900209
0.043852
-0.0338611
-0.11798
0.0242294
-0.0367787
-0.0492444
0.0140203
0.00706983
-0.00046297
-7.42507e-06
-4.25924e-05
-0.00187411
0.00240629
-0.0455128
-0.124974
0.561083
0.0571185
0.697921
-0.236126
-0.696693
0.924717
-0.593652
0.313787
-0.111853
0.207499
-0.273019
0.266856
-0.268402
0.207153
-0.0508714
-0.0645339
-0.0315461
-0.0852064
0.0163702
-0.048272
-0.042995
0.0255105
-0.0504042
-0.0105068
0.0408319
-0.0493318
0.0067111
-0.019784
0.0231662
-0.0145366
0.0207306
0.0140285
-0.00590927
0.0439651
-0.0187655
0.0817751
-0.0326734
0.0964174
-0.0706372
0.089109
-0.112498
0.0802827
-0.12164
0.0731961
-0.085128
0.060789
-0.0195916
0.0387695
0.0435066
0.012082
0.0746166
-0.00682086
0.0701451
-0.00832209
0.0612039
0.00422494
0.084193
0.0373395
0.127927
0.081391
0.126324
0.075039
0.0902022
0.0285716
0.0649616
-0.0858771
0.0503577
-0.114065
0.0994825
-0.0274407
-0.0136131
-0.0476415
-0.0533073
0.0119827
-0.0610568
-0.0494436
0.0780692
-0.0879139
-0.133266
0.307832
0.061689
-0.163477
0.00866107
0.0489751
-0.0973187
0.0613103
0.0326125
-0.0140878
0.00597422
-0.0111672
0.0272365
0.0522519
-0.0134405
-0.000114594
1.33873e-05
1.90015e-05
-0.0012289
8.10604e-05
0.0502124
-0.287781
-0.276181
-0.523263
-1.05255
1.0628
-0.435277
0.155613
-0.238009
0.348812
-0.493285
0.418125
-0.324361
0.247369
-0.0998728
0.203436
-0.202133
0.136792
-0.189158
0.14136
-0.0518784
0.0514631
0.0334083
0.0236281
-0.0126294
0.115103
-0.046458
0.0975012
-0.0955489
0.0891024
-0.190596
0.00970806
-0.16627
-0.0234116
-0.0782081
0.00260016
0.000422976
0.0440113
0.0252634
0.0592009
0.0181479
0.0426297
0.00722427
0.01043
0.00269979
-0.0220143
0.0103144
-0.0432161
0.0349721
-0.0432875
0.0700298
-0.0187136
0.0910371
0.0147259
0.0758859
0.0258249
0.0296367
0.00559627
-0.0248897
-0.0141091
-0.0583723
0.0102654
-0.0594947
0.0644207
-0.0626897
0.114626
-0.0350023
0.0816204
-0.0749528
-0.0704535
-0.0161358
-0.0327284
0.0938569
-0.0684177
-0.0942902
-0.0164326
-0.0822737
-0.0835508
0.0259082
-0.0905837
-0.137531
0.195908
0.00249757
-0.172979
0.0521518
0.0875207
-0.101225
0.0258892
0.0221796
0.0661773
-0.00188918
-0.0173398
0.107737
-0.0546802
-0.00504855
0.00134697
-1.04699e-05
-6.52571e-07
-0.00183935
-0.0134624
0.0774368
0.143992
0.254004
1.1669
-0.111774
-0.368157
0.175859
0.143518
-0.193951
0.0931884
0.0436054
0.0741201
-0.219303
0.373155
-0.324344
0.220092
-0.161409
0.106505
-0.11773
0.137602
-0.169902
0.215677
-0.200413
0.112702
-0.146699
0.0730495
-0.120809
0.0643596
-0.0934014
0.0326407
-0.106691
0.107769
-0.0814474
0.133249
-0.0937602
0.0736189
-0.138958
-0.00231542
-0.172475
-0.036766
-0.154444
-0.0309075
-0.0882304
-0.0133957
-0.0108667
-0.0121633
0.0451662
-0.03563
0.0690629
-0.0692041
0.0682098
-0.0919611
0.0598251
-0.0980321
0.055723
-0.0989183
0.0474634
-0.100078
0.0182124
-0.0885681
-0.036143
-0.040282
-0.0844536
0.0313561
-0.0663965
0.0510041
0.0565151
0.0430379
0.119602
-0.116116
-0.0415179
-0.115589
0.034604
0.0867593
-0.0176658
-0.030139
-0.00704745
-0.0606822
0.0621434
-0.0391409
-0.082972
0.225706
0.0136431
-0.196646
-0.0212889
0.146273
-0.025684
0.0267445
0.00654825
0.0520067
-0.0274565
-0.0208182
0.0115944
-0.0523838
0.0179979
-0.000620555
-9.29438e-06
5.39677e-05
-0.00133947
-0.0320957
-0.0265627
-0.117391
-0.69357
-0.338754
0.6762
-0.00751435
0.295285
-0.634616
0.368715
-0.090405
-0.0678736
-0.0977519
0.240812
-0.170872
-0.0183736
0.0755555
-0.119197
0.184662
-0.104622
0.0733209
0.0383107
0.0355122
-0.130538
0.0546796
-0.156102
0.152656
-0.150033
0.153932
-0.190265
0.0923462
-0.111197
0.0457048
-0.0976098
-0.0293262
-0.131352
-0.0740393
-0.144294
-0.0625873
-0.135089
-0.0182311
-0.12156
0.00789109
-0.106416
-0.0103683
-0.0880167
-0.0561862
-0.0636876
-0.0968442
-0.0330914
-0.111665
-0.000655621
-0.0975328
0.0265184
-0.0597755
0.0378929
-0.00647899
0.0173266
0.0447519
-0.0452454
0.0688535
-0.133656
0.0459367
-0.185231
-0.0212412
-0.141818
-0.0578248
-0.0254208
0.0238093
0.120892
0.0396761
-0.00785972
-0.208519
-0.041128
-0.0299929
0.115981
0.0546409
-0.0622959
-0.011924
0.0765375
-0.0928708
-0.0666555
0.0876003
-0.0358817
-0.134253
0.0384333
0.0923471
-0.0594036
-0.0170616
-0.0790292
-0.0603713
-0.0705898
0.020602
-0.0205429
-0.0164442
0.0140645
-0.00247422
2.54871e-05
6.68895e-05
0.00165856
-0.0247351
-0.0361072
0.26743
0.00910812
-0.658314
-0.0355532
-0.960783
0.165857
0.0244104
0.388062
-0.489678
0.335998
-0.112853
0.0695826
-0.0864771
0.134367
-0.10144
0.115941
-0.0442875
-0.0515775
0.116859
-0.171529
-0.0129282
-0.133439
0.0638076
0.0373884
0.101133
-0.00599562
0.0863225
-0.0796897
0.174055
-0.12289
0.144793
-0.172767
0.066662
-0.181353
0.00390282
-0.143728
-0.043522
-0.0923635
-0.0737832
-0.0594748
-0.0869801
-0.0426955
-0.0956072
-0.0270058
-0.106973
-0.0110616
-0.118117
-0.00408298
-0.121736
-0.010628
-0.110529
-0.0247882
-0.0773264
-0.0343505
-0.0186877
-0.027249
0.0540939
-0.00502134
0.109525
0.00959519
0.106231
-0.00766057
0.0382105
-0.0674817
-0.0473817
-0.0767595
-0.0314451
0.0902611
0.115137
0.167315
-0.0586522
-0.180604
-0.0564498
-0.0720863
0.175337
0.0244496
-0.0955652
0.133382
-0.0639587
-0.0100143
0.141634
0.00833967
-0.140456
0.0812009
0.129785
-0.0442941
0.0103618
-0.0497205
-0.0635606
0.0318696
0.039402
-0.0568388
0.0113306
0.00212185
-0.00362913
0.000106795
3.23921e-05
0.00139169
-0.00618516
-0.109287
0.0948847
0.402114
-0.225246
0.601508
0.670053
0.493235
-0.213969
0.00457858
-0.190363
0.333995
-0.23822
0.220042
-0.200835
0.22808
-0.126475
0.139388
-0.0859012
0.150139
-0.167244
0.00237719
-0.00230297
0.0410288
0.175692
-0.012705
0.0713013
-0.0462723
-0.0136473
0.0208199
-0.0578031
-0.00891029
-0.0817007
-0.0372964
-0.0576289
-0.045923
-0.00735051
-0.0480962
0.0141669
-0.0389209
-0.0117231
-0.0197946
-0.0568835
1.32704e-05
-0.094019
0.0192983
-0.11421
0.0403358
-0.118005
0.0603192
-0.107934
0.0699171
-0.0874422
0.0594154
-0.0610215
0.0299396
-0.0316873
-0.000720698
0.00333475
-0.00859008
0.0445867
0.0177849
0.0709504
0.0571988
0.0530295
0.0611122
-0.0498447
-0.0294304
-0.160218
-0.0311025
-0.0419757
0.202126
0.0778614
-0.0154287
-0.191569
-0.0800031
0.00229397
0.126581
-0.0567367
0.0326511
-0.123069
-0.126235
0.028231
-0.0474378
-0.152265
0.0289421
0.0522602
-0.0175536
0.0439518
0.0356416
-0.0349991
0.0557294
-0.0233464
-0.0159147
0.0279658
-0.00620518
-0.000147024
0.000153736
8.68707e-05
0.00185221
-0.0087348
-0.05739
-0.0344633
0.497818
0.243865
-0.629385
-0.523763
-0.68461
-0.0652452
0.0511171
0.148485
0.157664
-0.201078
0.182376
-0.0448694
0.114507
-0.19571
0.191889
-0.161932
0.0390056
-0.169983
0.103614
-0.0761251
0.175938
-0.105338
0.0424422
-0.0643511
-0.0282918
0.0350954
-0.0349815
0.0382221
-0.0202698
0.0256004
0.0094826
-0.00816966
0.0335876
-0.0398369
0.017752
-0.0516944
-0.0182911
-0.0546722
-0.0387187
-0.0651521
-0.0393799
-0.0853253
-0.0343325
-0.108022
-0.0349587
-0.122984
-0.0448493
-0.121656
-0.0615204
-0.103058
-0.0790219
-0.0771549
-0.0910395
-0.0579458
-0.09286
-0.0494705
-0.0790895
-0.0409934
-0.045596
-0.00963028
-0.00620502
0.0622325
0.0252936
0.14016
0.00237519
0.0304599
-0.09192
-0.108694
0.00987518
0.183653
0.0555978
0.0443075
-0.230039
0.0670286
0.0815109
0.0770101
0.188995
-0.0174765
-0.0203701
0.0945162
0.0374153
-0.0632036
0.119503
0.0823366
-0.0946193
0.0144486
0.0356167
-0.00658551
0.0368864
0.0330476
0.0711397
0.0121461
0.0144591
0.00106174
9.95117e-05
3.24163e-05
0.0042358
-0.00116573
-0.130085
-0.219564
0.032908
0.54753
0.144707
0.949041
0.298909
0.475606
-0.112674
0.074116
-0.25244
0.126573
0.18998
-0.222977
0.0768932
-0.00613983
0.0442003
-0.187329
0.0915607
-0.124834
0.11748
0.0377891
0.00372037
-0.0146372
0.0216706
-0.0500021
0.118384
-0.0307482
0.101391
-0.0571189
0.0402514
-0.0834793
-0.0194925
-0.101362
-0.0252637
-0.137332
0.000476995
-0.168603
0.0184824
-0.179026
0.0162856
-0.179836
0.0034213
-0.180793
-0.00970796
-0.181332
-0.019553
-0.177501
-0.0273737
-0.167376
-0.0343643
-0.152447
-0.0398861
-0.136483
-0.0447801
-0.12271
-0.0541731
-0.110563
-0.0742826
-0.0934292
-0.110278
-0.0620594
-0.148479
-0.0291628
-0.113883
-0.00912727
0.0871999
-0.0200055
0.160385
-0.146389
-0.0770271
-0.0162441
0.120443
0.0176601
-0.0974632
-0.184705
0.0577635
-0.0549303
0.105802
-0.0109639
-0.0932536
0.0629016
0.0659506
-0.0896988
0.053355
0.0921269
-0.0297317
-0.0344798
-0.00514127
0.0534691
0.0837137
0.105887
-0.0430733
-0.0102863
-0.0152795
0.0035154
3.19177e-05
2.71762e-05
0.00264054
0.0304911
-0.00363095
-0.255675
-0.299802
-0.0149972
-0.728275
-0.406178
-0.870908
-0.0336258
-0.314359
0.172065
0.0462641
0.244842
-0.282448
0.0532895
0.232652
-0.21396
0.0274983
-0.106505
0.0853528
-0.138914
0.225664
-0.249731
0.144883
-0.137381
0.0681259
0.0394045
0.0546946
-0.0403691
-0.031922
-0.158525
-0.0405992
-0.192883
-0.0307264
-0.158988
-0.0466416
-0.141245
-0.0529399
-0.158392
-0.0343284
-0.181039
-0.00355381
-0.182669
0.0266322
-0.159634
0.0477906
-0.123091
0.0551003
-0.0867463
0.0488456
-0.0594947
0.0334102
-0.0435189
0.0133537
-0.0349058
-0.00992457
-0.0258402
-0.0378301
-0.0083098
-0.0709812
0.0200381
-0.104984
0.0312226
-0.121063
-0.0469328
-0.0993274
-0.197674
-0.0368899
-0.116746
0.0589142
0.141592
-0.0753068
-0.00422403
0.0386822
0.210668
-0.0885728
-0.0266581
-0.0563634
-0.00361472
0.0764308
-0.0171422
-0.0589699
-0.019091
0.0766119
0.0112633
0.000130016
-0.0427827
-0.0557756
0.0389226
0.0140677
0.0349557
-0.00299533
-0.127755
-0.108907
0.0156974
-0.015595
0.0066198
-0.000182257
3.46861e-05
0.00321282
0.00783207
0.0235242
-0.100146
-0.350657
0.29855
0.12211
0.65148
0.266347
0.552295
-0.123413
0.369375
-0.27732
-0.00787419
-0.0549143
0.28904
-0.311971
-0.0400433
0.021271
-0.0813246
0.015178
0.068337
-0.0436787
0.0298415
0.0870339
-0.0664799
0.193275
-0.0811061
-0.0508324
-0.136832
-0.151408
-0.0775008
-0.0871834
-0.0974502
-0.0239371
-0.158624
-0.0241476
-0.17378
-0.0371541
-0.133895
-0.0202291
-0.0677068
0.0246397
-0.00109126
0.073727
0.0502787
0.108778
0.0811565
0.124839
0.0944039
0.124545
0.0964651
0.109926
0.0932321
0.0794312
0.0874443
0.0314197
0.0785156
-0.0293041
0.0662656
-0.0837082
0.0533941
-0.0877332
0.0314665
-0.00367531
-0.0238606
0.0666606
-0.106237
-0.0838777
-0.148327
-0.198694
0.00159987
0.0604075
-0.0886283
-0.0379982
0.177493
0.0863565
-0.0806939
0.0764176
-0.0512211
0.107626
0.0254026
-0.0441674
0.0394453
0.0305048
0.0143184
0.0944976
-0.0142014
-0.136557
6.74291e-05
0.109611
0.0161089
-0.0172779
-0.021345
0.0613122
0.0565609
-0.0132018
0.000840017
-0.000304601
-2.84804e-05
0.00422
0.0287172
0.0437322
0.134153
-0.401249
-0.186917
-0.296768
-0.241636
-0.24913
-0.0622856
-0.254133
0.0231958
-0.149315
0.329828
-0.0956929
-0.0695888
-0.077487
0.16168
-0.106539
0.0177243
0.120736
-0.117692
0.0663805
-0.0750557
-0.0499433
-0.0247734
0.0112844
-0.278474
0.0486786
-0.201718
0.0983528
-0.0563404
-0.0292608
-0.0337434
-0.113093
-0.0597187
-0.08263
-0.0525132
0.0101928
-0.00840095
0.105755
0.043214
0.172828
0.0820573
0.204959
0.106892
0.20993
0.125664
0.199646
0.145149
0.183982
0.166904
0.168707
0.187355
0.154444
0.198551
0.134992
0.189171
0.0985421
0.145103
0.0415031
0.0526942
-0.00591075
-0.0638238
0.00300658
-0.0863119
0.0388704
0.0339455
0.00145617
-0.00866876
-0.122027
-0.21046
0.0208766
0.0236199
-0.184635
0.10746
0.0929145
-0.0172802
-0.0161589
0.00233999
0.0519914
-0.00490299
-0.00730412
-0.000899059
0.0524972
-0.0368017
0.0581958
0.0660121
-0.0362878
-0.0393345
0.0374006
0.0377124
0.0150869
0.0427655
-0.0317456
-0.0656756
0.00449284
-0.00739301
-0.000215705
-2.67541e-05
0.002167
0.0170121
0.00592132
0.176704
-0.106955
-0.126418
0.239868
0.236501
0.173913
0.0314843
-0.129537
0.222841
-0.0119511
0.0393041
-0.289371
0.267273
-0.0986817
0.0205888
-0.0975405
0.142697
-0.151171
0.04839
-0.0760129
-0.0243974
0.00491141
0.0827056
-0.184213
0.0920387
0.0215667
-0.00677653
0.0983534
-0.221567
0.0266936
-0.247658
-0.00944242
-0.139636
0.0146225
-0.00202037
0.0644872
0.105356
0.113906
0.168246
0.153549
0.197363
0.184068
0.208114
0.207258
0.211314
0.222934
0.213491
0.230377
0.220081
0.230141
0.236652
0.223993
0.265964
0.214152
0.299537