/*--------------------------------*- C++ -*----------------------------------*\
| =========                 |                                                 |
| \\      /  F ield         | OpenFOAM: The Open Source CFD Toolbox           |
|  \\    /   O peration     | Version:  v1912                                 |
|   \\  /    A nd           | Website:  www.openfoam.com                      |
|    \\/     M anipulation  |                                                 |
\*---------------------------------------------------------------------------*/
FoamFile
{
    version     2.0;
    format      ascii;
    class       volScalarField;
    location    "6.24";
    object      rho;
}
// * * * * * * * * * * * * * * * * * * * * * * * * * * * * * * * * * * * * * //

dimensions      [1 -3 0 0 0 0 0];


internalField   nonuniform List<scalar> 
1900
(
36685.6
14607
13349
13123.6
12871.6
12714.6
12647.4
12637.6
12641.1
12651.4
36685.5
14606.9
13348.9
13123.6
12872.4
12715.7
12648.8
12637.1
12651.1
12656
36685.5
14606.8
13348.9
13123.8
12873.1
12716.3
12648.2
12634.6
12642.6
12642.6
36685.5
14606.9
13348.9
13123.6
12872.4
12715.7
12648.8
12637.1
12651.1
12656
36685.6
14607
13349
13123.6
12871.6
12714.6
12647.4
12637.6
12641.1
12651.4
12787.8
12612.9
12481.1
12127.5
12011.8
12647.5
12528.5
12412.6
12078.8
11598.8
12611.2
12510.2
12404.7
12116
11666.2
12647.5
12528.5
12412.6
12078.8
11598.8
12787.8
12612.9
12481.1
12127.5
12011.8
6360.88
4289
3142.27
2796.93
2836.19
7003.35
4624.86
3349.49
2920.69
2965.33
7194.74
4581.39
3279.28
2851.71
2903.55
7003.35
4624.86
3349.49
2920.69
2965.33
6360.88
4289
3142.27
2796.93
2836.19
2501.35
1938.89
1591.58
1784.65
2671.5
3368.21
3587.97
3606.64
3434.12
3133.33
2745.94
2350.41
2090.84
1961.48
1877.27
1803.74
1737.25
1679.63
1638.73
1614.5
1600.63
1591.26
1583.52
1576.75
1571.11
1567.16
1564.9
1564.94
1567.54
1572.72
1579.15
1588.87
1599.32
1618.43
1642.67
1682
1715.76
1797.38
1987.12
1907.25
2703.34
2001.78
1544.39
1688.36
2643.21
3427.36
3655.2
3664.58
3467.16
3150.24
2755.48
2354.94
2092.38
1962.01
1877.6
1803.96
1737.66
1679.73
1638.71
1614.45
1600.58
1591.22
1583.49
1576.71
1571.07
1567.11
1564.85
1564.88
1567.49
1572.67
1579.09
1588.82
1599.25
1618.42
1642.63
1682.1
1715.75
1797.16
1986.39
1905.34
2652.85
1965.53
1540.49
1658.65
2618.61
3430.64
3646.27
3652.27
3460.8
3149.24
2758.08
2357.27
2093.15
1962.22
1877.77
1804.05
1737.78
1679.78
1638.71
1614.44
1600.57
1591.21
1583.48
1576.71
1571.06
1567.1
1564.84
1564.86
1567.46
1572.65
1579.07
1588.79
1599.22
1618.41
1642.63
1682.14
1715.73
1797.21
1986.13
1904.67
2703.34
2001.78
1544.39
1688.36
2643.21
3427.36
3655.2
3664.58
3467.16
3150.24
2755.48
2354.94
2092.38
1962.01
1877.6
1803.96
1737.66
1679.73
1638.71
1614.45
1600.58
1591.22
1583.49
1576.71
1571.07
1567.11
1564.85
1564.88
1567.49
1572.67
1579.09
1588.82
1599.25
1618.42
1642.63
1682.1
1715.75
1797.16
1986.39
1905.34
2501.35
1938.89
1591.58
1784.65
2671.5
3368.21
3587.97
3606.64
3434.12
3133.33
2745.94
2350.41
2090.84
1961.48
1877.27
1803.74
1737.25
1679.63
1638.73
1614.5
1600.63
1591.26
1583.52
1576.75
1571.11
1567.16
1564.9
1564.94
1567.54
1572.72
1579.15
1588.87
1599.32
1618.43
1642.67
1682
1715.76
1797.38
1987.12
1907.25
2621.22
2229.59
2110.23
2230.76
2780.44
3295
3524.32
3532.3
3364.24
3081.27
2709.91
2329.95
2082.68
1958.7
1875.81
1802.12
1735.4
1678.87
1638.68
1614.67
1600.81
1591.41
1583.66
1576.89
1571.27
1567.35
1565.1
1565.15
1567.77
1572.93
1579.37
1589.05
1599.59
1618.41
1642.67
1681.49
1715.9
1798.26
1988.4
1910.1
2656.97
2442.63
2425.79
2553.81
2894.78
3206.79
3329.9
3322.9
3200.06
2959.03
2616.26
2274.38
2061.75
1951.91
1871.66
1797.67
1731.41
1676.93
1638.42
1615.06
1601.27
1591.8
1584
1577.25
1571.69
1567.83
1565.63
1565.71
1568.35
1573.48
1579.92
1589.56
1600.2
1618.57
1642.46
1680.39
1716.54
1801.25
1992.37
1912.92
2610.22
2435.3
2499.82
2603.86
2821.08
3040.19
3167.14
3129.07
3020.04
2798.08
2488.78
2203.74
2036.11
1941.74
1864.41
1790.93
1726.08
1674.2
1637.91
1615.57
1601.98
1592.45
1584.61
1577.89
1572.41
1568.64
1566.5
1566.64
1569.28
1574.35
1580.8
1590.38
1601.17
1618.96
1642.23
1679.14
1717.43
1805.18
1996.22
1914.27
2585.61
2449.8
2471.11
2563.24
2743.26
2869.56
2941.9
2935.47
2833.38
2621.34
2353.16
2134.68
2010.21
1928.8
1854.39
1782.41
1719.93
1671.17
1637.45
1616.33
1603.04
1593.48
1585.6
1578.92
1573.54
1569.87
1567.8
1568.01
1570.62
1575.61
1582.06
1591.56
1602.46
1619.67
1642.14
1678.17
1718.44
1809.48
2001.18
1917.15
2479.51
2479.15
2438.69
2482.11
2561.8
2699.47
2766.14
2746.62
2638.35
2443.6
2229.66
2075.73
1983.92
1912.9
1841.69
1772.42
1713.33
1668.24
1637.27
1617.51
1604.6
1595.05
1587.15
1580.53
1575.24
1571.67
1569.69
1569.94
1572.47
1577.33
1583.71
1593.1
1604.04
1620.7
1642.34
1677.66
1719.38
1813.38
2005.82
1920.14
2312.03
2374.53
2297.84
2358.28
2441.22
2566.93
2602.97
2565.37
2452
2286.45
2131.61
2028.96
1959.54
1896.21
1828.17
1762.33
1707.34
1666.11
1637.94
1619.54
1607.03
1597.53
1589.64
1583.08
1577.89
1574.42
1572.5
1572.75
1575.17
1579.85
1586.13
1595.38
1606.29
1622.48
1643.4
1678.22
1721.28
1817.76
2011.3
1924.55
2185.08
2282.38
2197.16
2256.9
2364.13
2440.72
2448.86
2397.97
2289.07
2162.41
2059.27
1990.45
1935.62
1877.68
1813.28
1752
1701.93
1664.89
1639.53
1622.46
1610.39
1600.97
1593.11
1586.62
1581.51
1578.1
1576.22
1576.36
1578.59
1583.01
1589.08
1598.11
1608.86
1624.58
1644.84
1679.19
1723.46
1821.67
2015.24
1927.44
2117.48
2227.83
2132.72
2176.75
2298.05
2316.51
2307.86
2249.37
2157.44
2071.95
2006.55
1959.62
1914.54
1860.37
1799.72
1743.49
1698.46
1665.72
1642.94
1627.1
1615.45
1606.13
1598.31
1591.87
1586.82
1583.45
1581.52
1581.48
1583.47
1587.54
1593.33
1602.05
1612.56
1627.83
1647.57
1681.49
1727.5
1826.66
2020.35
1932.38
2088.39
2195.35
2090.02
2112.9
2219.26
2206.03
2182.24
2127.48
2061.97
2010.39
1968.8
1934.25
1894.16
1842.74
1786.53
1736.12
1696.46
1667.63
1647.31
1632.62
1621.42
1612.25
1604.5
1598.13
1593.15
1589.81
1587.77
1587.51
1589.22
1592.93
1598.36
1606.74
1616.96
1631.83
1651.17
1684.58
1732.11
1832.19
2025.39
1936.77
2075.35
2171.31
2055.17
2062.4
2126.73
2107.45
2076.87
2037.49
1998.03
1967.86
1941.23
1913.97
1876.19
1827.26
1775.82
1731.4
1697.27
1672.09
1653.97
1640.32
1629.54
1620.52
1612.84
1606.51
1601.54
1598.13
1595.9
1595.38
1596.7
1599.99
1605.02
1613
1622.91
1637.41
1656.5
1689.35
1738.4
1839.74
2032.15
1943.13
2061.59
2147.79
2021.14
2012.03
2033.35
2021.55
2000.3
1980.58
1958.17
1939.87
1920.76
1895.89
1858.87
1813.04
1767.25
1728.82
1699.32
1677.43
1661.15
1648.42
1638.08
1629.31
1621.81
1615.66
1610.81
1607.42
1605.11
1604.42
1605.39
1608.32
1613.01
1620.66
1630.33
1644.63
1663.64
1696.11
1746.76
1849.68
2040.97
1951.08
2039.37
2122.41
1984.63
1956.24
1965.92
1963.55
1955.89
1945.86
1932.64
1921.79
1906.84
1882.34
1845.49
1802.56
1762.95
1730.53
1705.18
1686.13
1671.43
1659.52
1649.59
1641.03
1633.65
1627.57
1622.74
1619.28
1616.83
1615.95
1616.53
1619.08
1623.44
1630.79
1640.3
1654.46
1673.58
1705.84
1758.01
1862.62
2051.91
1961.94
2022.02
2103.81
1953.77
1910.57
1932.65
1934.82
1932.84
1927.67
1919.26
1910.85
1896.25
1870.57
1834.58
1796.22
1762.21
1734.46
1712.8
1695.94
1682.39
1671.08
1661.58
1653.45
1646.5
1640.78
1636.17
1632.81
1630.31
1629.27
1629.51
1631.76
1635.87
1643.04
1652.52
1666.77
1686.21
1718.58
1772.49
1878.78
2065.39
1974.35
2020.12
2100.35
1940
1890.97
1917.55
1920.63
1921.98
1920.15
1915.3
1907.57
1890.69
1863.5
1830.11
1797.8
1769.42
1746.53
1728.63
1714.32
1702.4
1692.03
1682.93
1674.77
1667.48
1661.28
1656.15
1652.33
1649.39
1647.91
1647.64
1649.58
1653.4
1660.37
1669.89
1684.28
1704.17
1737
1792.66
1899.95
2082.31
1991.9
2024.06
2102.24
1937.42
1887.48
1918.13
1921.85
1925.47
1924.02
1919.54
1909.51
1890.15
1863.84
1834.66
1807.34
1784.27
1765.94
1751.38
1739.26
1728.56
1718.74
1709.94
1701.97
1694.63
1688.03
1682.3
1677.84
1674.27
1672.28
1671.57
1673.24
1676.9
1683.95
1693.86
1708.83
1729.62
1763.57
1821.29
1928.63
2104.62
2013.34
2041.25
2118.95
1955.16
1904.79
1938.65
1942.78
1947.16
1944.94
1939.01
1926.16
1905.87
1881.53
1856.26
1833.92
1815.26
1800.36
1788.26
1778
1768.78
1760
1751.55
1743.2
1735.14
1727.9
1721.7
1717.06
1713.34
1711.35
1710.48
1711.7
1715.08
1722.08
1732.33
1748.04
1770.07
1805.85
1865.7
1971.11
2135.9
2042.64
2074.28
2156.52
2007.82
1956.32
1989.85
1990.17
1991.77
1985.17
1974.39
1957.89
1936.21
1912.96
1889.96
1869.74
1852.23
1837.32
1824.34
1812.85
1802.59
1793.44
1785.59
1778.85
1773.16
1768.61
1764.88
1762.49
1760.6
1760.76
1761.93
1765.3
1770.87
1779.99
1792.54
1810.45
1834.9
1873.14
1932.71
2028.61
2174
2070.2
2174.5
2201.52
2091.65
2039.44
2069.57
2062.79
2057.56
2043.13
2025.47
2005.18
1982.65
1961.76
1942.84
1927.04
1913.28
1901.17
1890.28
1880.6
1872.13
1865.07
1860.17
1857.29
1855.92
1855.68
1855.99
1857.17
1858.13
1860.55
1863.4
1868.73
1876.56
1888.02
1903.03
1922.72
1947.81
1984.29
2034.79
2104.15
2205.87
2107.89
6772.76
2298.46
2193.49
2166.44
2181.93
2169.11
2157.94
2141.59
2124.03
2108.16
2092.19
2078.77
2067.13
2057.88
2050.17
2043.96
2038.96
2034.99
2031.75
2029.49
2029.47
2031.31
2033.84
2036.63
2039.75
2043.82
2046.41
2050.74
2054.37
2060.03
2067.3
2077.17
2089.88
2105.72
2124.63
2150.87
2181.14
2208.19
2239.31
5762.95
122141
6041.98
2009.87
1986.61
1986.47
1976.51
1964.56
1956.81
1946.02
1940.85
1935.44
1932.84
1931.44
1931.84
1932.98
1934.86
1936.85
1938.2
1938.49
1938.43
1940.59
1944.78
1948.79
1951.93
1954.68
1958.32
1960.51
1965.13
1968.83
1974.71
1981.62
1991.8
2003.99
2021.25
2039.91
2065.72
2086.38
2106.29
5411.38
103759
122141
6041.98
2009.87
1986.61
1986.47
1976.51
1964.56
1956.81
1946.02
1940.85
1935.44
1932.84
1931.44
1931.84
1932.98
1934.86
1936.85
1938.2
1938.49
1938.43
1940.59
1944.78
1948.79
1951.93
1954.68
1958.32
1960.51
1965.13
1968.83
1974.71
1981.62
1991.8
2003.99
2021.25
2039.91
2065.72
2086.38
2106.29
5411.38
103759
6772.76
2298.46
2193.49
2166.44
2181.93
2169.11
2157.94
2141.59
2124.03
2108.16
2092.19
2078.77
2067.13
2057.88
2050.17
2043.96
2038.96
2034.99
2031.75
2029.49
2029.47
2031.31
2033.84
2036.63
2039.75
2043.82
2046.41
2050.74
2054.37
2060.03
2067.3
2077.17
2089.88
2105.72
2124.63
2150.87
2181.14
2208.19
2239.31
5762.95
2174.5
2201.52
2091.65
2039.44
2069.57
2062.79
2057.56
2043.13
2025.47
2005.18
1982.65
1961.76
1942.84
1927.04
1913.28
1901.17
1890.28
1880.6
1872.13
1865.07
1860.17
1857.29
1855.92
1855.68
1855.99
1857.17
1858.13
1860.55
1863.4
1868.73
1876.56
1888.02
1903.03
1922.72
1947.81
1984.29
2034.79
2104.15
2205.87
2107.89
2074.28
2156.52
2007.82
1956.32
1989.85
1990.17
1991.77
1985.17
1974.39
1957.89
1936.21
1912.96
1889.96
1869.74
1852.23
1837.32
1824.34
1812.85
1802.59
1793.44
1785.59
1778.85
1773.16
1768.61
1764.88
1762.49
1760.6
1760.76
1761.93
1765.3
1770.87
1779.99
1792.54
1810.45
1834.9
1873.14
1932.71
2028.61
2174
2070.2
2041.25
2118.95
1955.16
1904.79
1938.65
1942.78
1947.16
1944.94
1939.01
1926.16
1905.87
1881.53
1856.26
1833.92
1815.26
1800.36
1788.26
1778
1768.78
1760
1751.55
1743.2
1735.14
1727.9
1721.7
1717.06
1713.34
1711.35
1710.48
1711.7
1715.08
1722.08
1732.33
1748.04
1770.07
1805.85
1865.7
1971.11
2135.9
2042.64
2024.06
2102.24
1937.42
1887.48
1918.13
1921.85
1925.47
1924.02
1919.54
1909.51
1890.15
1863.84
1834.66
1807.34
1784.27
1765.94
1751.38
1739.26
1728.56
1718.74
1709.94
1701.97
1694.63
1688.03
1682.3
1677.84
1674.27
1672.28
1671.57
1673.24
1676.9
1683.95
1693.86
1708.83
1729.62
1763.57
1821.29
1928.63
2104.62
2013.34
2020.12
2100.35
1940
1890.97
1917.55
1920.63
1921.98
1920.15
1915.3
1907.57
1890.69
1863.5
1830.11
1797.8
1769.42
1746.53
1728.63
1714.32
1702.4
1692.03
1682.93
1674.77
1667.48
1661.28
1656.15
1652.33
1649.39
1647.91
1647.64
1649.58
1653.4
1660.37
1669.89
1684.28
1704.17
1737
1792.66
1899.95
2082.31
1991.9
2022.02
2103.81
1953.77
1910.57
1932.65
1934.82
1932.84
1927.67
1919.26
1910.85
1896.25
1870.57
1834.58
1796.22
1762.21
1734.46
1712.8
1695.94
1682.39
1671.08
1661.58
1653.45
1646.5
1640.78
1636.17
1632.81
1630.31
1629.27
1629.51
1631.76
1635.87
1643.04
1652.52
1666.77
1686.21
1718.58
1772.49
1878.78
2065.39
1974.35
2039.37
2122.41
1984.63
1956.24
1965.92
1963.55
1955.89
1945.86
1932.64
1921.79
1906.84
1882.34
1845.49
1802.56
1762.95
1730.53
1705.18
1686.13
1671.43
1659.52
1649.59
1641.03
1633.65
1627.57
1622.74
1619.28
1616.83
1615.95
1616.53
1619.08
1623.44
1630.79
1640.3
1654.46
1673.58
1705.84
1758.01
1862.62
2051.91
1961.94
2061.59
2147.79
2021.14
2012.03
2033.35
2021.55
2000.3
1980.58
1958.17
1939.87
1920.76
1895.89
1858.87
1813.04
1767.25
1728.82
1699.32
1677.43
1661.15
1648.42
1638.08
1629.31
1621.81
1615.66
1610.81
1607.42
1605.11
1604.42
1605.39
1608.32
1613.01
1620.66
1630.33
1644.63
1663.64
1696.11
1746.76
1849.68
2040.97
1951.08
2075.35
2171.31
2055.17
2062.4
2126.73
2107.45
2076.87
2037.49
1998.03
1967.86
1941.23
1913.97
1876.19
1827.26
1775.82
1731.4
1697.27
1672.09
1653.97
1640.32
1629.54
1620.52
1612.84
1606.51
1601.54
1598.13
1595.9
1595.38
1596.7
1599.99
1605.02
1613
1622.91
1637.41
1656.5
1689.35
1738.4
1839.74
2032.15
1943.13
2088.39
2195.35
2090.02
2112.9
2219.26
2206.03
2182.24
2127.48
2061.97
2010.39
1968.8
1934.25
1894.16
1842.74
1786.53
1736.12
1696.46
1667.63
1647.31
1632.62
1621.42
1612.25
1604.5
1598.13
1593.15
1589.81
1587.77
1587.51
1589.22
1592.93
1598.36
1606.74
1616.96
1631.83
1651.17
1684.58
1732.11
1832.19
2025.39
1936.77
2117.48
2227.83
2132.72
2176.75
2298.05
2316.51
2307.86
2249.37
2157.44
2071.95
2006.55
1959.62
1914.54
1860.37
1799.72
1743.49
1698.46
1665.72
1642.94
1627.1
1615.45
1606.13
1598.31
1591.87
1586.82
1583.45
1581.52
1581.48
1583.47
1587.54
1593.33
1602.05
1612.56
1627.83
1647.57
1681.49
1727.5
1826.66
2020.35
1932.38
2185.08
2282.38
2197.16
2256.9
2364.13
2440.72
2448.86
2397.97
2289.07
2162.41
2059.27
1990.45
1935.62
1877.68
1813.28
1752
1701.93
1664.89
1639.53
1622.46
1610.39
1600.97
1593.11
1586.62
1581.51
1578.1
1576.22
1576.36
1578.59
1583.01
1589.08
1598.11
1608.86
1624.58
1644.84
1679.19
1723.46
1821.67
2015.24
1927.44
2312.03
2374.53
2297.84
2358.28
2441.22
2566.93
2602.97
2565.37
2452
2286.45
2131.61
2028.96
1959.54
1896.21
1828.17
1762.33
1707.34
1666.11
1637.94
1619.54
1607.03
1597.53
1589.64
1583.08
1577.89
1574.42
1572.5
1572.75
1575.17
1579.85
1586.13
1595.38
1606.29
1622.48
1643.4
1678.22
1721.28
1817.76
2011.3
1924.55
2479.51
2479.15
2438.69
2482.11
2561.8
2699.47
2766.14
2746.62
2638.35
2443.6
2229.66
2075.73
1983.92
1912.9
1841.69
1772.42
1713.33
1668.24
1637.27
1617.51
1604.6
1595.05
1587.15
1580.53
1575.24
1571.67
1569.69
1569.94
1572.47
1577.33
1583.71
1593.1
1604.04
1620.7
1642.34
1677.66
1719.38
1813.38
2005.82
1920.14
2585.61
2449.8
2471.11
2563.24
2743.26
2869.56
2941.9
2935.47
2833.38
2621.34
2353.16
2134.68
2010.21
1928.8
1854.39
1782.41
1719.93
1671.17
1637.45
1616.33
1603.04
1593.48
1585.6
1578.92
1573.54
1569.87
1567.8
1568.01
1570.62
1575.61
1582.06
1591.56
1602.46
1619.67
1642.14
1678.17
1718.44
1809.48
2001.18
1917.15
2610.22
2435.3
2499.82
2603.86
2821.08
3040.19
3167.14
3129.07
3020.04
2798.08
2488.78
2203.74
2036.11
1941.74
1864.41
1790.93
1726.08
1674.2
1637.91
1615.57
1601.98
1592.45
1584.61
1577.89
1572.41
1568.64
1566.5
1566.64
1569.28
1574.35
1580.8
1590.38
1601.17
1618.96
1642.23
1679.14
1717.43
1805.18
1996.22
1914.27
2656.97
2442.63
2425.79
2553.81
2894.78
3206.79
3329.9
3322.9
3200.06
2959.03
2616.26
2274.38
2061.75
1951.91
1871.66
1797.67
1731.41
1676.93
1638.42
1615.06
1601.27
1591.8
1584
1577.25
1571.69
1567.83
1565.63
1565.71
1568.35
1573.48
1579.92
1589.56
1600.2
1618.57
1642.46
1680.39
1716.54
1801.25
1992.37
1912.92
2621.22
2229.59
2110.23
2230.76
2780.44
3295
3524.32
3532.3
3364.24
3081.27
2709.91
2329.95
2082.68
1958.7
1875.81
1802.12
1735.4
1678.87
1638.68
1614.67
1600.81
1591.41
1583.66
1576.89
1571.27
1567.35
1565.1
1565.15
1567.77
1572.93
1579.37
1589.05
1599.59
1618.41
1642.67
1681.49
1715.9
1798.26
1988.4
1910.1
)
;

boundaryField
{
    inlet
    {
        type            calculated;
        value           uniform 14000.1;
    }
    outlet
    {
        type            calculated;
        value           nonuniform List<scalar> 
165
(
2741.67
2691.81
2754.41
2751.18
2737.99
2746.7
2744.82
2746.89
2751.82
2755.15
2756.31
2758.85
2760.59
2761.48
2761.28
2759.54
2756.39
2826.91
4098.56
4304.97
4304.97
4257.22
2987.16
2894.04
2883.19
2885.02
2884.84
2888.96
2893.01
2896.46
2898.68
2898.97
2897.61
2894.49
2890.03
2884.72
2879.23
2873.78
2868.19
2863.22
2860.68
2860.54
2860.85
2860.81
2860.69
2860.34
2858.43
2855.92
2852.56
2848
2841.88
2834.02
2824.87
2815.11
2806.2
2796.62
2791.07
2873.1
4079.67
4325.71
2886.73
2884.77
2882.08
2878.8
2876.6
2875.36
2873.15
2870.34
2866.05
2860.35
2853.17
2844.34
2834.59
2824.73
2815.02
2803.84
2795.95
2888.26
4141.87
4325.71
2888.25
2888.54
2888.29
2888.54
2888.25
4325.71
4141.87
2888.26
2795.95
2803.84
2815.02
2824.73
2834.59
2844.34
2853.17
2860.35
2866.05
2870.34
2873.15
2875.36
2876.6
2878.8
2882.08
2884.77
2886.73
4304.97
4257.22
2987.16
2894.04
2883.19
2885.02
2884.84
2888.96
2893.01
2896.46
2898.68
2898.97
2897.61
2894.49
2890.03
2884.72
2879.23
2873.78
2868.19
2863.22
2860.68
2860.54
2860.85
2860.81
2860.69
2860.34
2858.43
2855.92
2852.56
2848
2841.88
2834.02
2824.87
2815.11
2806.2
2796.62
2791.07
2873.1
4079.67
4325.71
4304.97
4098.56
2826.91
2756.39
2759.54
2761.28
2761.48
2760.59
2758.85
2756.31
2755.15
2751.82
2746.89
2744.82
2746.7
2737.99
2751.18
2754.41
2691.81
2741.67
)
;
    }
    obstacle
    {
        type            calculated;
        value           nonuniform List<scalar> 
40
(
36685.6
14607
13349
13123.6
12871.6
12714.6
12647.4
12637.6
12641.1
12651.4
36685.6
14607
13349
13123.6
12871.6
12714.6
12647.4
12637.6
12641.1
12651.4
12787.8
12612.9
12481.1
12127.5
12011.8
12787.8
12612.9
12481.1
12127.5
12011.8
6360.88
4289
3142.27
2796.93
2836.19
6360.88
4289
3142.27
2796.93
2836.19
)
;
    }
    empty
    {
        type            empty;
    }
}


// ************************************************************************* //
