/*--------------------------------*- C++ -*----------------------------------*\
| =========                 |                                                 |
| \\      /  F ield         | OpenFOAM: The Open Source CFD Toolbox           |
|  \\    /   O peration     | Version:  v1912                                 |
|   \\  /    A nd           | Website:  www.openfoam.com                      |
|    \\/     M anipulation  |                                                 |
\*---------------------------------------------------------------------------*/
FoamFile
{
    version     2.0;
    format      ascii;
    class       volVectorField;
    location    "6.24";
    object      U;
}
// * * * * * * * * * * * * * * * * * * * * * * * * * * * * * * * * * * * * * //

dimensions      [0 1 -1 0 0 0 0];


internalField   nonuniform List<vector> 
1900
(
(-0.816789 -6.52556e-07 0)
(-0.0618829 -5.05499e-07 0)
(0.0891082 9.50766e-06 0)
(0.086131 1.67221e-05 0)
(0.089479 3.23341e-05 0)
(0.0918501 -8.39928e-05 0)
(0.0938262 -0.000215402 0)
(0.096176 0.000279443 0)
(0.0968777 0.00324217 0)
(0.0880217 0.0116931 0)
(-0.816787 1.39754e-06 0)
(-0.0618768 1.73448e-06 0)
(0.0891182 1.23037e-05 0)
(0.0861372 1.43944e-05 0)
(0.0894652 4.25699e-06 0)
(0.09175 -0.000107925 0)
(0.0936097 -0.000235692 0)
(0.0956317 0.000263767 0)
(0.0980519 0.00223864 0)
(0.0991266 0.0106502 0)
(-0.816786 7.61409e-14 0)
(-0.0618745 1.00823e-14 0)
(0.0891191 -1.03355e-13 0)
(0.0861312 -7.43796e-14 0)
(0.0894356 -2.87861e-15 0)
(0.0917038 2.04901e-14 0)
(0.0935548 -9.60883e-14 0)
(0.0954811 -9.16625e-14 0)
(0.0987248 -4.32145e-14 0)
(0.105752 4.5331e-14 0)
(-0.816787 -1.39754e-06 0)
(-0.0618768 -1.73448e-06 0)
(0.0891182 -1.23037e-05 0)
(0.0861372 -1.43944e-05 0)
(0.0894652 -4.25699e-06 0)
(0.09175 0.000107925 0)
(0.0936097 0.000235692 0)
(0.0956317 -0.000263767 0)
(0.0980519 -0.00223864 0)
(0.0991266 -0.0106502 0)
(-0.816789 6.52556e-07 0)
(-0.0618829 5.05499e-07 0)
(0.0891082 -9.50766e-06 0)
(0.086131 -1.67221e-05 0)
(0.089479 -3.23341e-05 0)
(0.0918501 8.39928e-05 0)
(0.0938262 0.000215402 0)
(0.096176 -0.000279443 0)
(0.0968777 -0.00324217 0)
(0.0880217 -0.0116931 0)
(0.0900878 0.0373205 0)
(0.125275 0.0503624 0)
(0.172126 0.0735462 0)
(0.248151 0.115285 0)
(0.392346 0.171748 0)
(0.112823 0.0264372 0)
(0.138899 0.0278521 0)
(0.169565 0.0369546 0)
(0.232331 0.058778 0)
(0.373444 0.101347 0)
(0.123678 5.34378e-14 0)
(0.147844 3.98063e-14 0)
(0.179913 6.91449e-14 0)
(0.243083 5.32338e-14 0)
(0.383759 5.14628e-14 0)
(0.112823 -0.0264372 0)
(0.138899 -0.0278521 0)
(0.169565 -0.0369546 0)
(0.232331 -0.058778 0)
(0.373444 -0.101347 0)
(0.0900878 -0.0373205 0)
(0.125275 -0.0503624 0)
(0.172126 -0.0735462 0)
(0.248151 -0.115285 0)
(0.392346 -0.171748 0)
(0.84536 0.0277998 0)
(1.1124 -0.0511867 0)
(1.31662 -0.0805956 0)
(1.36805 -0.103185 0)
(1.3008 -0.0931644 0)
(0.820555 -0.0183537 0)
(1.12309 -0.0483995 0)
(1.34463 -0.0613347 0)
(1.40386 -0.0640267 0)
(1.33461 -0.0574728 0)
(0.817439 1.34097e-14 0)
(1.12694 1.30578e-14 0)
(1.33917 -1.5218e-14 0)
(1.39354 5.89883e-14 0)
(1.32737 -4.18146e-14 0)
(0.820555 0.0183537 0)
(1.12309 0.0483995 0)
(1.34463 0.0613347 0)
(1.40386 0.0640267 0)
(1.33461 0.0574728 0)
(0.84536 -0.0277998 0)
(1.1124 0.0511867 0)
(1.31662 0.0805956 0)
(1.36805 0.103185 0)
(1.3008 0.0931644 0)
(1.29944 -0.165602 0)
(1.35723 -0.224882 0)
(1.43566 -0.124786 0)
(1.34784 -0.00713113 0)
(1.04381 -0.0139198 0)
(0.804131 -0.0590367 0)
(0.660913 -0.100073 0)
(0.504842 -0.113651 0)
(0.381762 -0.0857083 0)
(0.283374 -0.0558033 0)
(0.184814 -0.0362435 0)
(0.086971 -0.0251148 0)
(0.02637 -0.0199214 0)
(0.00593328 -0.0178364 0)
(0.000584921 -0.0169399 0)
(-0.00130386 -0.016397 0)
(-0.00150959 -0.0155604 0)
(0.00166239 -0.0149752 0)
(0.0109728 -0.0147749 0)
(0.0265158 -0.0147722 0)
(0.0458214 -0.0147696 0)
(0.0667152 -0.0147196 0)
(0.0881289 -0.0146801 0)
(0.109678 -0.0146483 0)
(0.13126 -0.0146184 0)
(0.152884 -0.0145814 0)
(0.174252 -0.0145967 0)
(0.196036 -0.0144718 0)
(0.21686 -0.0146009 0)
(0.237352 -0.0144579 0)
(0.257582 -0.014666 0)
(0.277272 -0.0143874 0)
(0.296397 -0.0149395 0)
(0.313208 -0.0142006 0)
(0.327375 -0.0153429 0)
(0.336928 -0.0144781 0)
(0.348012 -0.015404 0)
(0.342317 -0.0153574 0)
(0.293364 -0.0159544 0)
(0.0887047 -0.0160649 0)
(1.32914 -0.0823526 0)
(1.41074 -0.119048 0)
(1.45967 -0.0611549 0)
(1.39332 -0.00958646 0)
(1.07059 -0.00510047 0)
(0.8159 -0.0264576 0)
(0.691365 -0.0488046 0)
(0.53682 -0.0561821 0)
(0.40048 -0.0416488 0)
(0.291745 -0.0268359 0)
(0.187903 -0.0179888 0)
(0.0878133 -0.0126047 0)
(0.0263697 -0.00993997 0)
(0.00572857 -0.00888596 0)
(0.000379138 -0.00845703 0)
(-0.00139902 -0.00819854 0)
(-0.0016344 -0.0077558 0)
(0.0015021 -0.00747521 0)
(0.0108677 -0.00737881 0)
(0.0264631 -0.00738323 0)
(0.0458181 -0.00738274 0)
(0.0667626 -0.00735773 0)
(0.0882254 -0.00733808 0)
(0.10982 -0.00732247 0)
(0.131445 -0.00730793 0)
(0.153108 -0.0072898 0)
(0.174514 -0.00729759 0)
(0.196332 -0.00723532 0)
(0.217188 -0.00730004 0)
(0.23771 -0.00722812 0)
(0.257969 -0.00733237 0)
(0.277684 -0.00719183 0)
(0.296828 -0.00746996 0)
(0.313636 -0.00709078 0)
(0.327822 -0.00766564 0)
(0.337314 -0.00722272 0)
(0.34852 -0.00767416 0)
(0.342832 -0.00768206 0)
(0.293441 -0.00797184 0)
(0.0880358 -0.0080093 0)
(1.31135 -5.18359e-14 0)
(1.37759 2.25067e-13 0)
(1.43114 8.36494e-14 0)
(1.38915 -4.4228e-12 0)
(1.07428 -2.32271e-11 0)
(0.804755 5.92398e-13 0)
(0.676191 2.73802e-12 0)
(0.519713 -3.0978e-12 0)
(0.388805 -3.10515e-13 0)
(0.288676 4.30733e-12 0)
(0.189236 4.34618e-12 0)
(0.0889377 3.59238e-12 0)
(0.0265654 4.26266e-12 0)
(0.00570111 5.91372e-12 0)
(0.000352433 7.11339e-12 0)
(-0.00140042 7.06214e-12 0)
(-0.00159435 4.45466e-12 0)
(0.00150956 -2.80221e-12 0)
(0.0108604 -1.17755e-11 0)
(0.0264603 -1.19245e-11 0)
(0.0458247 -6.40443e-12 0)
(0.0667783 4.35309e-12 0)
(0.0882493 7.82756e-12 0)
(0.109852 8.14249e-13 0)
(0.131484 -1.16966e-11 0)
(0.153155 -1.61491e-11 0)
(0.174571 -2.10769e-11 0)
(0.1964 -1.71769e-11 0)
(0.217271 -4.3922e-12 0)
(0.237811 -8.07826e-12 0)
(0.258094 1.00024e-12 0)
(0.277842 1.20229e-11 0)
(0.297028 3.58724e-12 0)
(0.313887 -1.32911e-12 0)
(0.32816 4.17066e-12 0)
(0.337745 1.15441e-11 0)
(0.349155 5.00448e-12 0)
(0.34379 5.163e-12 0)
(0.29451 3.51841e-12 0)
(0.0890254 1.87746e-12 0)
(1.32914 0.0823526 0)
(1.41074 0.119048 0)
(1.45967 0.0611549 0)
(1.39332 0.00958646 0)
(1.07059 0.00510047 0)
(0.8159 0.0264576 0)
(0.691365 0.0488046 0)
(0.53682 0.0561821 0)
(0.40048 0.0416488 0)
(0.291745 0.0268359 0)
(0.187903 0.0179888 0)
(0.0878133 0.0126047 0)
(0.0263697 0.00993997 0)
(0.00572857 0.00888596 0)
(0.000379138 0.00845703 0)
(-0.00139902 0.00819854 0)
(-0.0016344 0.0077558 0)
(0.0015021 0.00747521 0)
(0.0108677 0.00737881 0)
(0.0264631 0.00738323 0)
(0.0458181 0.00738274 0)
(0.0667626 0.00735773 0)
(0.0882254 0.00733808 0)
(0.10982 0.00732247 0)
(0.131445 0.00730793 0)
(0.153108 0.0072898 0)
(0.174514 0.00729759 0)
(0.196332 0.00723532 0)
(0.217188 0.00730004 0)
(0.23771 0.00722812 0)
(0.257969 0.00733237 0)
(0.277684 0.00719183 0)
(0.296828 0.00746996 0)
(0.313636 0.00709078 0)
(0.327822 0.00766564 0)
(0.337314 0.00722272 0)
(0.34852 0.00767416 0)
(0.342832 0.00768206 0)
(0.293441 0.00797184 0)
(0.0880358 0.0080093 0)
(1.29944 0.165602 0)
(1.35723 0.224882 0)
(1.43566 0.124786 0)
(1.34784 0.00713113 0)
(1.04381 0.0139198 0)
(0.804131 0.0590367 0)
(0.660913 0.100073 0)
(0.504842 0.113651 0)
(0.381762 0.0857083 0)
(0.283374 0.0558033 0)
(0.184814 0.0362435 0)
(0.086971 0.0251148 0)
(0.02637 0.0199214 0)
(0.00593328 0.0178364 0)
(0.000584921 0.0169399 0)
(-0.00130386 0.016397 0)
(-0.00150959 0.0155604 0)
(0.00166239 0.0149752 0)
(0.0109728 0.0147749 0)
(0.0265158 0.0147722 0)
(0.0458214 0.0147696 0)
(0.0667152 0.0147196 0)
(0.0881289 0.0146801 0)
(0.109678 0.0146483 0)
(0.13126 0.0146184 0)
(0.152884 0.0145814 0)
(0.174252 0.0145967 0)
(0.196036 0.0144718 0)
(0.21686 0.0146009 0)
(0.237352 0.0144579 0)
(0.257582 0.014666 0)
(0.277272 0.0143874 0)
(0.296397 0.0149395 0)
(0.313208 0.0142006 0)
(0.327375 0.0153429 0)
(0.336928 0.0144781 0)
(0.348012 0.015404 0)
(0.342317 0.0153574 0)
(0.293364 0.0159544 0)
(0.0887047 0.0160649 0)
(1.23844 0.343972 0)
(1.27781 0.330709 0)
(1.30724 0.209193 0)
(1.1594 0.0572471 0)
(0.912723 0.0834677 0)
(0.709984 0.162652 0)
(0.556762 0.220571 0)
(0.425619 0.2133 0)
(0.340831 0.157756 0)
(0.264263 0.107625 0)
(0.17418 0.0738243 0)
(0.0804205 0.0523212 0)
(0.0231357 0.0414448 0)
(0.00442918 0.0371113 0)
(-0.000342411 0.0352025 0)
(-0.00227692 0.0339186 0)
(-0.00231766 0.0323522 0)
(0.00131258 0.0312532 0)
(0.0108764 0.0307828 0)
(0.0264966 0.0307286 0)
(0.0458189 0.030708 0)
(0.0667198 0.0306016 0)
(0.0881442 0.0305191 0)
(0.109709 0.0304531 0)
(0.131312 0.0303909 0)
(0.152958 0.0303145 0)
(0.174351 0.0303494 0)
(0.196158 0.0300901 0)
(0.217009 0.030357 0)
(0.237534 0.030065 0)
(0.257793 0.0304881 0)
(0.27752 0.0299272 0)
(0.296685 0.0310198 0)
(0.31365 0.0295895 0)
(0.327901 0.0317643 0)
(0.337799 0.0301384 0)
(0.348505 0.0321046 0)
(0.342872 0.0315068 0)
(0.294898 0.0319137 0)
(0.091904 0.0320839 0)
(1.03575 0.340692 0)
(1.06813 0.342101 0)
(1.01926 0.271873 0)
(0.831739 0.198607 0)
(0.616342 0.248299 0)
(0.471936 0.336632 0)
(0.357346 0.364729 0)
(0.297297 0.325566 0)
(0.26849 0.244505 0)
(0.218327 0.172385 0)
(0.140632 0.123365 0)
(0.0598903 0.0902488 0)
(0.0144623 0.0732455 0)
(0.000975163 0.0663037 0)
(-0.00254867 0.0630134 0)
(-0.00450148 0.0604838 0)
(-0.00419703 0.0579295 0)
(0.00033518 0.0561981 0)
(0.010586 0.0553882 0)
(0.0264506 0.0552467 0)
(0.0457953 0.0551801 0)
(0.0666743 0.0549779 0)
(0.0880894 0.0548267 0)
(0.109664 0.0547091 0)
(0.13129 0.054599 0)
(0.15297 0.0544643 0)
(0.174405 0.0545318 0)
(0.196245 0.0540651 0)
(0.217148 0.0545385 0)
(0.237739 0.0540203 0)
(0.258051 0.0547537 0)
(0.277853 0.0537817 0)
(0.297074 0.055622 0)
(0.314346 0.0532684 0)
(0.328776 0.0567326 0)
(0.339348 0.0541493 0)
(0.349205 0.0577096 0)
(0.343005 0.0559618 0)
(0.294717 0.0560492 0)
(0.0925054 0.0562957 0)
(0.711125 0.412378 0)
(0.722563 0.368155 0)
(0.608269 0.327077 0)
(0.429959 0.350232 0)
(0.278503 0.431985 0)
(0.208259 0.466006 0)
(0.183994 0.442201 0)
(0.192292 0.377415 0)
(0.193071 0.287054 0)
(0.159693 0.214725 0)
(0.096175 0.160446 0)
(0.0342154 0.12262 0)
(0.00396838 0.103549 0)
(-0.00355212 0.0952073 0)
(-0.00590853 0.0905685 0)
(-0.00763773 0.0867273 0)
(-0.0066659 0.083326 0)
(-0.0010627 0.0810945 0)
(0.0100828 0.0799985 0)
(0.0263364 0.0797626 0)
(0.0457384 0.0796222 0)
(0.0665773 0.0793076 0)
(0.0879565 0.0790813 0)
(0.109521 0.0789103 0)
(0.131156 0.0787517 0)
(0.152862 0.0785602 0)
(0.17434 0.0786617 0)
(0.196193 0.0779855 0)
(0.217153 0.078659 0)
(0.237811 0.0779338 0)
(0.258169 0.0789375 0)
(0.278036 0.0776205 0)
(0.29728 0.0800443 0)
(0.314861 0.0770643 0)
(0.32951 0.0813105 0)
(0.340825 0.0782067 0)
(0.349683 0.0830809 0)
(0.342804 0.0804524 0)
(0.294553 0.0809084 0)
(0.0937648 0.0815259 0)
(0.304676 0.431874 0)
(0.218491 0.407624 0)
(0.126969 0.470258 0)
(0.0303658 0.522884 0)
(-0.000989181 0.537921 0)
(0.02374 0.515348 0)
(0.0722875 0.460444 0)
(0.111704 0.383019 0)
(0.124569 0.306072 0)
(0.0989596 0.241087 0)
(0.0499172 0.187218 0)
(0.00880503 0.151016 0)
(-0.00657672 0.132664 0)
(-0.0092878 0.123581 0)
(-0.010453 0.11756 0)
(-0.0116187 0.112525 0)
(-0.00960636 0.108448 0)
(-0.00275314 0.105842 0)
(0.00940592 0.104532 0)
(0.0261328 0.104228 0)
(0.0456261 0.104002 0)
(0.0664258 0.103561 0)
(0.0877607 0.103253 0)
(0.109306 0.103029 0)
(0.130948 0.102826 0)
(0.152678 0.102583 0)
(0.174203 0.10272 0)
(0.196061 0.101839 0)
(0.217087 0.102708 0)
(0.237821 0.101807 0)
(0.258225 0.103042 0)
(0.278163 0.101456 0)
(0.297406 0.104327 0)
(0.315287 0.100971 0)
(0.330168 0.105636 0)
(0.342171 0.102263 0)
(0.35018 0.10807 0)
(0.342609 0.104895 0)
(0.294371 0.105937 0)
(0.0952042 0.10716 0)
(-0.0827274 0.502054 0)
(-0.172502 0.50884 0)
(-0.206235 0.557709 0)
(-0.198092 0.557871 0)
(-0.139476 0.532492 0)
(-0.0590228 0.499481 0)
(0.0067673 0.442914 0)
(0.0488421 0.378922 0)
(0.0611387 0.314368 0)
(0.0403844 0.255612 0)
(0.00731292 0.207111 0)
(-0.0143255 0.176429 0)
(-0.0177782 0.160376 0)
(-0.0167787 0.15083 0)
(-0.0165364 0.143632 0)
(-0.0165694 0.137679 0)
(-0.0130981 0.133151 0)
(-0.00477587 0.130301 0)
(0.00850565 0.128912 0)
(0.0257726 0.128533 0)
(0.0454085 0.128217 0)
(0.066203 0.127641 0)
(0.0875203 0.127246 0)
(0.109073 0.126972 0)
(0.130747 0.126732 0)
(0.152526 0.126441 0)
(0.17413 0.126616 0)
(0.196027 0.12555 0)
(0.217158 0.126601 0)
(0.238011 0.125558 0)
(0.258503 0.126987 0)
(0.27856 0.125211 0)
(0.297846 0.128413 0)
(0.316048 0.124869 0)
(0.33122 0.129722 0)
(0.343809 0.126179 0)
(0.351277 0.132475 0)
(0.343219 0.129109 0)
(0.295167 0.130824 0)
(0.0976453 0.13268 0)
(-0.260303 0.50111 0)
(-0.334379 0.515288 0)
(-0.318933 0.538362 0)
(-0.269223 0.518755 0)
(-0.187738 0.500951 0)
(-0.100792 0.475674 0)
(-0.0446139 0.427304 0)
(-0.00732992 0.373148 0)
(0.00315307 0.317777 0)
(-0.0115327 0.266538 0)
(-0.0267623 0.226531 0)
(-0.0320583 0.201594 0)
(-0.0278132 0.187316 0)
(-0.0240844 0.177189 0)
(-0.0227266 0.169003 0)
(-0.0214214 0.162339 0)
(-0.0163981 0.157482 0)
(-0.00662213 0.154466 0)
(0.00769659 0.152965 0)
(0.02544 0.152561 0)
(0.0451744 0.152151 0)
(0.0659218 0.151433 0)
(0.0871768 0.150954 0)
(0.108688 0.150637 0)
(0.13034 0.150375 0)
(0.15211 0.150043 0)
(0.173735 0.150268 0)
(0.195619 0.14906 0)
(0.216783 0.150281 0)
(0.237686 0.149148 0)
(0.258181 0.150748 0)
(0.278271 0.148873 0)
(0.297482 0.152334 0)
(0.315849 0.148748 0)
(0.331125 0.153658 0)
(0.343996 0.150121 0)
(0.350723 0.156394 0)
(0.341707 0.153327 0)
(0.293629 0.155771 0)
(0.0976141 0.158237 0)
(-0.287375 0.477497 0)
(-0.371185 0.49094 0)
(-0.343903 0.507345 0)
(-0.29094 0.483012 0)
(-0.209875 0.481327 0)
(-0.134813 0.453234 0)
(-0.0871254 0.412563 0)
(-0.0574239 0.365073 0)
(-0.0472676 0.317625 0)
(-0.0538547 0.27481 0)
(-0.0543271 0.244221 0)
(-0.0488293 0.224743 0)
(-0.0399337 0.211996 0)
(-0.0339775 0.201651 0)
(-0.0311379 0.192931 0)
(-0.0278247 0.185963 0)
(-0.0207426 0.181053 0)
(-0.00919131 0.178168 0)
(0.00630166 0.176569 0)
(0.0246789 0.176132 0)
(0.0446882 0.175631 0)
(0.0655698 0.174777 0)
(0.0869398 0.174219 0)
(0.10858 0.173871 0)
(0.130374 0.173608 0)
(0.152293 0.17324 0)
(0.174091 0.173528 0)
(0.196156 0.172228 0)
(0.217524 0.173605 0)
(0.238652 0.172428 0)
(0.259337 0.17418 0)
(0.279644 0.172277 0)
(0.298984 0.175948 0)
(0.317669 0.172418 0)
(0.333229 0.177353 0)
(0.346473 0.173887 0)
(0.352772 0.179859 0)
(0.343344 0.177416 0)
(0.295566 0.180699 0)
(0.101313 0.183585 0)
(-0.281358 0.459556 0)
(-0.374842 0.473305 0)
(-0.347506 0.483121 0)
(-0.29836 0.461563 0)
(-0.224506 0.468436 0)
(-0.168233 0.433734 0)
(-0.124369 0.401152 0)
(-0.101889 0.35955 0)
(-0.0890626 0.320645 0)
(-0.0844808 0.28736 0)
(-0.073463 0.264526 0)
(-0.0609599 0.24845 0)
(-0.0490672 0.236347 0)
(-0.0417573 0.225621 0)
(-0.0376046 0.216421 0)
(-0.032506 0.209179 0)
(-0.023595 0.204225 0)
(-0.0106409 0.20123 0)
(0.00570066 0.199602 0)
(0.0243805 0.199139 0)
(0.0443728 0.19855 0)
(0.0651149 0.197561 0)
(0.0863337 0.196932 0)
(0.107839 0.196568 0)
(0.129514 0.196325 0)
(0.151331 0.195937 0)
(0.17305 0.196311 0)
(0.195107 0.194974 0)
(0.216471 0.196503 0)
(0.237636 0.195344 0)
(0.258337 0.19724 0)
(0.278707 0.19539 0)
(0.29802 0.199237 0)
(0.316842 0.195852 0)
(0.332482 0.200776 0)
(0.345792 0.197493 0)
(0.351421 0.20273 0)
(0.341693 0.201059 0)
(0.293627 0.205787 0)
(0.10135 0.208917 0)
(-0.265737 0.448862 0)
(-0.369964 0.461232 0)
(-0.352311 0.464766 0)
(-0.304915 0.452314 0)
(-0.240351 0.457105 0)
(-0.196433 0.418697 0)
(-0.157678 0.391709 0)
(-0.138731 0.355116 0)
(-0.121454 0.325021 0)
(-0.107952 0.300287 0)
(-0.0908715 0.283044 0)
(-0.0746 0.269583 0)
(-0.0610712 0.258069 0)
(-0.0526653 0.247361 0)
(-0.0467829 0.238212 0)
(-0.0393499 0.231192 0)
(-0.0282128 0.226631 0)
(-0.0136254 0.223658 0)
(0.00385534 0.222039 0)
(0.0232381 0.221563 0)
(0.043667 0.220898 0)
(0.0647362 0.219789 0)
(0.0862556 0.219103 0)
(0.108045 0.218733 0)
(0.12998 0.218524 0)
(0.152033 0.218117 0)
(0.17401 0.218588 0)
(0.196253 0.217249 0)
(0.217867 0.218893 0)
(0.239239 0.21779 0)
(0.260084 0.219804 0)
(0.2806 0.218047 0)
(0.299944 0.222043 0)
(0.318896 0.218849 0)
(0.334577 0.22376 0)
(0.347889 0.220817 0)
(0.353031 0.225187 0)
(0.3428 0.22444 0)
(0.294668 0.230749 0)
(0.104555 0.234039 0)
(-0.245808 0.445538 0)
(-0.360282 0.455164 0)
(-0.359039 0.4521 0)
(-0.312795 0.447708 0)
(-0.256589 0.444513 0)
(-0.221547 0.407844 0)
(-0.187149 0.386033 0)
(-0.166757 0.356739 0)
(-0.143528 0.336225 0)
(-0.123616 0.317396 0)
(-0.102814 0.303545 0)
(-0.0844826 0.29134 0)
(-0.0702668 0.279871 0)
(-0.0610703 0.26898 0)
(-0.0534169 0.259799 0)
(-0.043719 0.25293 0)
(-0.0307726 0.248402 0)
(-0.0149297 0.245436 0)
(0.00316292 0.243777 0)
(0.0227208 0.243271 0)
(0.0430813 0.242527 0)
(0.0639903 0.241301 0)
(0.0853462 0.24057 0)
(0.10699 0.240214 0)
(0.128807 0.240069 0)
(0.150794 0.239673 0)
(0.172798 0.240272 0)
(0.195012 0.238979 0)
(0.216793 0.240745 0)
(0.238331 0.239772 0)
(0.259332 0.2419 0)
(0.280036 0.240293 0)
(0.299494 0.244403 0)
(0.318643 0.241442 0)
(0.334462 0.246301 0)
(0.347835 0.24378 0)
(0.352863 0.247186 0)
(0.3419 0.247333 0)
(0.293993 0.255109 0)
(0.106538 0.258631 0)
(-0.225156 0.44416 0)
(-0.350506 0.451337 0)
(-0.365749 0.445447 0)
(-0.322992 0.441577 0)
(-0.274886 0.432218 0)
(-0.244269 0.400933 0)
(-0.211264 0.385179 0)
(-0.187484 0.362529 0)
(-0.161276 0.347891 0)
(-0.138712 0.33282 0)
(-0.116136 0.321331 0)
(-0.0970212 0.309905 0)
(-0.0824929 0.298736 0)
(-0.0722251 0.288182 0)
(-0.0623633 0.279574 0)
(-0.0501395 0.273604 0)
(-0.0353052 0.269353 0)
(-0.0179617 0.266568 0)
(0.00121178 0.26493 0)
(0.0215485 0.264443 0)
(0.0425154 0.263651 0)
(0.0639361 0.262324 0)
(0.0857394 0.261545 0)
(0.107759 0.261185 0)
(0.129886 0.261073 0)
(0.152136 0.260641 0)
(0.174385 0.261309 0)
(0.196728 0.260017 0)
(0.218756 0.261822 0)
(0.240464 0.26096 0)
(0.261589 0.263132 0)
(0.282387 0.261658 0)
(0.301836 0.265821 0)
(0.321003 0.263092 0)
(0.336751 0.267863 0)
(0.349969 0.265827 0)
(0.354754 0.268342 0)
(0.342565 0.269405 0)
(0.29481 0.278653 0)
(0.11028 0.282418 0)
(-0.207218 0.443013 0)
(-0.342936 0.448378 0)
(-0.368818 0.441236 0)
(-0.33565 0.43185 0)
(-0.292129 0.427274 0)
(-0.260948 0.401165 0)
(-0.226769 0.392632 0)
(-0.200343 0.374176 0)
(-0.172468 0.363615 0)
(-0.148116 0.350884 0)
(-0.124543 0.340549 0)
(-0.105243 0.329478 0)
(-0.0906339 0.318373 0)
(-0.0792229 0.307901 0)
(-0.0669883 0.299673 0)
(-0.052863 0.293901 0)
(-0.0366264 0.289791 0)
(-0.018592 0.287049 0)
(0.000734554 0.285362 0)
(0.0208705 0.284854 0)
(0.0414522 0.283995 0)
(0.0624415 0.282566 0)
(0.0838667 0.281753 0)
(0.105595 0.281423 0)
(0.127533 0.281392 0)
(0.149709 0.280974 0)
(0.171984 0.28178 0)
(0.194341 0.280541 0)
(0.216611 0.282412 0)
(0.238542 0.281739 0)
(0.259901 0.283961 0)
(0.280946 0.282652 0)
(0.30059 0.286815 0)
(0.319977 0.284304 0)
(0.335927 0.288916 0)
(0.349263 0.28729 0)
(0.354209 0.289055 0)
(0.341426 0.290749 0)
(0.29481 0.30116 0)
(0.114602 0.305231 0)
(-0.196355 0.442415 0)
(-0.339748 0.446421 0)
(-0.374263 0.438316 0)
(-0.348443 0.426875 0)
(-0.306032 0.428886 0)
(-0.27371 0.405426 0)
(-0.240422 0.399977 0)
(-0.213901 0.383822 0)
(-0.185804 0.37603 0)
(-0.160917 0.3648 0)
(-0.137289 0.35525 0)
(-0.118636 0.344164 0)
(-0.103983 0.333426 0)
(-0.0906416 0.324457 0)
(-0.0763807 0.317781 0)
(-0.0603513 0.312519 0)
(-0.0423984 0.308893 0)
(-0.0229011 0.306352 0)
(-0.00225686 0.304752 0)
(0.019161 0.304313 0)
(0.0410035 0.303436 0)
(0.0631474 0.301908 0)
(0.0855303 0.301026 0)
(0.107984 0.300657 0)
(0.130445 0.300614 0)
(0.152993 0.300087 0)
(0.175547 0.300939 0)
(0.198032 0.299661 0)
(0.220557 0.301444 0)
(0.242603 0.300883 0)
(0.264044 0.303044 0)
(0.285101 0.301849 0)
(0.304668 0.305924 0)
(0.323936 0.303606 0)
(0.339723 0.308004 0)
(0.352776 0.306779 0)
(0.357583 0.30783 0)
(0.343912 0.310127 0)
(0.298275 0.321599 0)
(0.122874 0.325929 0)
(-0.191069 0.445945 0)
(-0.338324 0.448211 0)
(-0.377867 0.439113 0)
(-0.355124 0.429176 0)
(-0.31372 0.434494 0)
(-0.280925 0.413257 0)
(-0.24808 0.411284 0)
(-0.221025 0.396879 0)
(-0.192361 0.391194 0)
(-0.167407 0.380493 0)
(-0.144366 0.371117 0)
(-0.125971 0.360057 0)
(-0.109713 0.350627 0)
(-0.0944708 0.342058 0)
(-0.0782205 0.335167 0)
(-0.0605211 0.330103 0)
(-0.0415854 0.32636 0)
(-0.0217853 0.323492 0)
(-0.00148353 0.321571 0)
(0.0190751 0.320959 0)
(0.0397573 0.320008 0)
(0.0607682 0.318516 0)
(0.082299 0.317851 0)
(0.104229 0.317806 0)
(0.126437 0.3181 0)
(0.148944 0.317769 0)
(0.171588 0.318947 0)
(0.194229 0.317833 0)
(0.217064 0.319678 0)
(0.239398 0.319354 0)
(0.261176 0.321527 0)
(0.28254 0.320504 0)
(0.302373 0.324466 0)
(0.321868 0.322308 0)
(0.337877 0.326454 0)
(0.351006 0.325441 0)
(0.355985 0.325952 0)
(0.341924 0.328752 0)
(0.298905 0.340992 0)
(0.130586 0.345793 0)
(-0.191751 0.448444 0)
(-0.338886 0.450368 0)
(-0.380123 0.441703 0)
(-0.360044 0.433487 0)
(-0.321378 0.439799 0)
(-0.28938 0.420116 0)
(-0.257657 0.419675 0)
(-0.230842 0.406115 0)
(-0.202626 0.401305 0)
(-0.178383 0.390637 0)
(-0.156447 0.381387 0)
(-0.138309 0.371277 0)
(-0.121851 0.361831 0)
(-0.105204 0.354085 0)
(-0.0875018 0.347961 0)
(-0.0685771 0.343346 0)
(-0.0485325 0.339736 0)
(-0.0275403 0.336879 0)
(-0.00574891 0.335009 0)
(0.0166388 0.33454 0)
(0.0393289 0.333642 0)
(0.0621902 0.332087 0)
(0.0851247 0.331413 0)
(0.107927 0.33148 0)
(0.130582 0.33196 0)
(0.153288 0.331672 0)
(0.176023 0.333103 0)
(0.198686 0.332027 0)
(0.22146 0.333843 0)
(0.243802 0.333631 0)
(0.265538 0.335752 0)
(0.286743 0.334896 0)
(0.306338 0.338695 0)
(0.325552 0.336707 0)
(0.341228 0.340605 0)
(0.353889 0.339848 0)
(0.358551 0.340009 0)
(0.344363 0.343469 0)
(0.304552 0.356523 0)
(0.144303 0.362035 0)
(-0.199294 0.447161 0)
(-0.343501 0.448534 0)
(-0.384523 0.441318 0)
(-0.3651 0.435853 0)
(-0.327287 0.443323 0)
(-0.29513 0.425077 0)
(-0.26355 0.426279 0)
(-0.236679 0.413484 0)
(-0.209028 0.409513 0)
(-0.185785 0.398813 0)
(-0.164119 0.389979 0)
(-0.14519 0.380293 0)
(-0.126601 0.371897 0)
(-0.107896 0.364696 0)
(-0.0884792 0.358887 0)
(-0.0683081 0.354192 0)
(-0.0475137 0.350176 0)
(-0.0263337 0.346755 0)
(-0.00495782 0.344361 0)
(0.0165024 0.343614 0)
(0.0379688 0.342671 0)
(0.0596935 0.341326 0)
(0.0818346 0.341146 0)
(0.104212 0.341839 0)
(0.126686 0.342879 0)
(0.149413 0.342862 0)
(0.172263 0.344633 0)
(0.195221 0.343549 0)
(0.218307 0.345276 0)
(0.241293 0.345001 0)
(0.263664 0.346952 0)
(0.285361 0.346087 0)
(0.30543 0.349469 0)
(0.324932 0.347414 0)
(0.340902 0.350818 0)
(0.353564 0.349906 0)
(0.358559 0.349548 0)
(0.345765 0.353899 0)
(0.311718 0.367807 0)
(0.161877 0.374935 0)
(-0.216149 0.442818 0)
(-0.352322 0.444506 0)
(-0.389083 0.43438 0)
(-0.368426 0.43037 0)
(-0.331101 0.439089 0)
(-0.299562 0.422152 0)
(-0.269051 0.424509 0)
(-0.243131 0.412268 0)
(-0.216987 0.408544 0)
(-0.195342 0.397861 0)
(-0.174712 0.3895 0)
(-0.156089 0.380935 0)
(-0.137312 0.374232 0)
(-0.11798 0.368853 0)
(-0.0976257 0.364705 0)
(-0.076265 0.361341 0)
(-0.054033 0.358516 0)
(-0.0312308 0.356278 0)
(-0.00819847 0.354975 0)
(0.0148057 0.354956 0)
(0.0377566 0.353989 0)
(0.0609338 0.351864 0)
(0.0845149 0.350538 0)
(0.108186 0.350088 0)
(0.131584 0.350147 0)
(0.154762 0.349018 0)
(0.177552 0.350133 0)
(0.200052 0.348063 0)
(0.222375 0.349003 0)
(0.244346 0.348257 0)
(0.265799 0.349803 0)
(0.286721 0.348925 0)
(0.306116 0.351944 0)
(0.325155 0.349875 0)
(0.340813 0.352888 0)
(0.35316 0.352091 0)
(0.35837 0.351974 0)
(0.349234 0.35753 0)
(0.322002 0.375147 0)
(0.183711 0.382271 0)
(-0.253193 0.443377 0)
(-0.373728 0.432306 0)
(-0.39628 0.412368 0)
(-0.371499 0.412791 0)
(-0.335552 0.42461 0)
(-0.304509 0.410395 0)
(-0.275517 0.415058 0)
(-0.251253 0.403979 0)
(-0.226142 0.401761 0)
(-0.204523 0.393021 0)
(-0.182672 0.386905 0)
(-0.161697 0.380352 0)
(-0.140485 0.37501 0)
(-0.119236 0.37011 0)
(-0.0977496 0.365924 0)
(-0.0761227 0.362143 0)
(-0.0542383 0.358769 0)
(-0.0320608 0.355966 0)
(-0.00959135 0.3542 0)
(0.0129956 0.353715 0)
(0.0355689 0.351785 0)
(0.0582639 0.348228 0)
(0.0811894 0.345503 0)
(0.104177 0.343921 0)
(0.127174 0.343086 0)
(0.150413 0.340721 0)
(0.173986 0.34117 0)
(0.197201 0.338242 0)
(0.220517 0.33851 0)
(0.243481 0.336592 0)
(0.265952 0.336728 0)
(0.287649 0.33486 0)
(0.307776 0.336502 0)
(0.327371 0.333751 0)
(0.343721 0.336422 0)
(0.357048 0.336644 0)
(0.364043 0.339384 0)
(0.36143 0.351516 0)
(0.344074 0.383457 0)
(0.213425 0.414042 0)
(-0.935681 0.222618 0)
(-0.438648 0.44724 0)
(-0.40617 0.398785 0)
(-0.374399 0.404763 0)
(-0.344083 0.413788 0)
(-0.317061 0.39857 0)
(-0.290131 0.400612 0)
(-0.267521 0.3876 0)
(-0.242669 0.383308 0)
(-0.220034 0.373293 0)
(-0.196489 0.365891 0)
(-0.173342 0.3581 0)
(-0.150021 0.351505 0)
(-0.126886 0.345033 0)
(-0.103825 0.339092 0)
(-0.0809861 0.333254 0)
(-0.0583153 0.327472 0)
(-0.0356448 0.322026 0)
(-0.0128109 0.317688 0)
(0.0100784 0.314998 0)
(0.0329621 0.311192 0)
(0.0560132 0.306118 0)
(0.0794743 0.302376 0)
(0.103044 0.300157 0)
(0.126721 0.298705 0)
(0.150785 0.295585 0)
(0.175312 0.295876 0)
(0.199869 0.292391 0)
(0.225051 0.292075 0)
(0.249821 0.289945 0)
(0.274069 0.290055 0)
(0.297288 0.289046 0)
(0.318791 0.291438 0)
(0.339315 0.291177 0)
(0.356349 0.2968 0)
(0.370578 0.302114 0)
(0.380841 0.31126 0)
(0.393799 0.331808 0)
(0.426135 0.415961 0)
(0.884265 0.229494 0)
(-1.00428 1.01136 0)
(-0.239764 0.915266 0)
(-0.424655 0.281673 0)
(-0.374372 0.275651 0)
(-0.34734 0.280585 0)
(-0.325086 0.25847 0)
(-0.298361 0.252529 0)
(-0.276475 0.233902 0)
(-0.25147 0.223744 0)
(-0.22833 0.209722 0)
(-0.204081 0.198666 0)
(-0.180046 0.187941 0)
(-0.155871 0.17876 0)
(-0.13188 0.170017 0)
(-0.108004 0.162068 0)
(-0.0844201 0.154477 0)
(-0.0610568 0.14709 0)
(-0.0377939 0.140038 0)
(-0.0145431 0.134074 0)
(0.00868529 0.129994 0)
(0.031775 0.125287 0)
(0.0549607 0.119721 0)
(0.0788431 0.115951 0)
(0.103003 0.114033 0)
(0.127355 0.112989 0)
(0.152139 0.110385 0)
(0.177247 0.111799 0)
(0.202323 0.109703 0)
(0.227738 0.111044 0)
(0.252797 0.111046 0)
(0.277338 0.113584 0)
(0.300914 0.116355 0)
(0.322702 0.123095 0)
(0.3437 0.129732 0)
(0.361285 0.142896 0)
(0.377068 0.157778 0)
(0.387659 0.177115 0)
(0.425405 0.200069 0)
(0.248545 0.857461 0)
(0.989001 0.993227 0)
(-1.00428 -1.01136 0)
(-0.239764 -0.915266 0)
(-0.424655 -0.281673 0)
(-0.374372 -0.275651 0)
(-0.34734 -0.280585 0)
(-0.325086 -0.25847 0)
(-0.298361 -0.252529 0)
(-0.276475 -0.233902 0)
(-0.25147 -0.223744 0)
(-0.22833 -0.209722 0)
(-0.204081 -0.198666 0)
(-0.180046 -0.187941 0)
(-0.155871 -0.17876 0)
(-0.13188 -0.170017 0)
(-0.108004 -0.162068 0)
(-0.0844201 -0.154477 0)
(-0.0610568 -0.14709 0)
(-0.0377939 -0.140038 0)
(-0.0145431 -0.134074 0)
(0.00868529 -0.129994 0)
(0.031775 -0.125287 0)
(0.0549607 -0.119721 0)
(0.0788431 -0.115951 0)
(0.103003 -0.114033 0)
(0.127355 -0.112989 0)
(0.152139 -0.110385 0)
(0.177247 -0.111799 0)
(0.202323 -0.109703 0)
(0.227738 -0.111044 0)
(0.252797 -0.111046 0)
(0.277338 -0.113584 0)
(0.300914 -0.116355 0)
(0.322702 -0.123095 0)
(0.3437 -0.129732 0)
(0.361285 -0.142896 0)
(0.377068 -0.157778 0)
(0.387659 -0.177115 0)
(0.425405 -0.200069 0)
(0.248545 -0.857461 0)
(0.989001 -0.993227 0)
(-0.935681 -0.222618 0)
(-0.438648 -0.44724 0)
(-0.40617 -0.398785 0)
(-0.374399 -0.404763 0)
(-0.344083 -0.413788 0)
(-0.317061 -0.39857 0)
(-0.290131 -0.400612 0)
(-0.267521 -0.3876 0)
(-0.242669 -0.383308 0)
(-0.220034 -0.373293 0)
(-0.196489 -0.365891 0)
(-0.173342 -0.3581 0)
(-0.150021 -0.351505 0)
(-0.126886 -0.345033 0)
(-0.103825 -0.339092 0)
(-0.0809861 -0.333254 0)
(-0.0583153 -0.327472 0)
(-0.0356448 -0.322026 0)
(-0.0128109 -0.317688 0)
(0.0100784 -0.314998 0)
(0.0329621 -0.311192 0)
(0.0560132 -0.306118 0)
(0.0794743 -0.302376 0)
(0.103044 -0.300157 0)
(0.126721 -0.298705 0)
(0.150785 -0.295585 0)
(0.175312 -0.295876 0)
(0.199869 -0.292391 0)
(0.225051 -0.292075 0)
(0.249821 -0.289945 0)
(0.274069 -0.290055 0)
(0.297288 -0.289046 0)
(0.318791 -0.291438 0)
(0.339315 -0.291177 0)
(0.356349 -0.2968 0)
(0.370578 -0.302114 0)
(0.380841 -0.31126 0)
(0.393799 -0.331808 0)
(0.426135 -0.415961 0)
(0.884265 -0.229494 0)
(-0.253193 -0.443377 0)
(-0.373728 -0.432306 0)
(-0.39628 -0.412368 0)
(-0.371499 -0.412791 0)
(-0.335552 -0.42461 0)
(-0.304509 -0.410395 0)
(-0.275517 -0.415058 0)
(-0.251253 -0.403979 0)
(-0.226142 -0.401761 0)
(-0.204523 -0.393021 0)
(-0.182672 -0.386905 0)
(-0.161697 -0.380352 0)
(-0.140485 -0.37501 0)
(-0.119236 -0.37011 0)
(-0.0977496 -0.365924 0)
(-0.0761227 -0.362143 0)
(-0.0542383 -0.358769 0)
(-0.0320608 -0.355966 0)
(-0.00959135 -0.3542 0)
(0.0129956 -0.353715 0)
(0.0355689 -0.351785 0)
(0.0582639 -0.348228 0)
(0.0811894 -0.345503 0)
(0.104177 -0.343921 0)
(0.127174 -0.343086 0)
(0.150413 -0.340721 0)
(0.173986 -0.34117 0)
(0.197201 -0.338242 0)
(0.220517 -0.33851 0)
(0.243481 -0.336592 0)
(0.265952 -0.336728 0)
(0.287649 -0.33486 0)
(0.307776 -0.336502 0)
(0.327371 -0.333751 0)
(0.343721 -0.336422 0)
(0.357048 -0.336644 0)
(0.364043 -0.339384 0)
(0.36143 -0.351516 0)
(0.344074 -0.383457 0)
(0.213425 -0.414042 0)
(-0.216149 -0.442818 0)
(-0.352322 -0.444506 0)
(-0.389083 -0.43438 0)
(-0.368426 -0.43037 0)
(-0.331101 -0.439089 0)
(-0.299562 -0.422152 0)
(-0.269051 -0.424509 0)
(-0.243131 -0.412268 0)
(-0.216987 -0.408544 0)
(-0.195342 -0.397861 0)
(-0.174712 -0.3895 0)
(-0.156089 -0.380935 0)
(-0.137312 -0.374232 0)
(-0.11798 -0.368853 0)
(-0.0976257 -0.364705 0)
(-0.076265 -0.361341 0)
(-0.054033 -0.358516 0)
(-0.0312308 -0.356278 0)
(-0.00819847 -0.354975 0)
(0.0148057 -0.354956 0)
(0.0377566 -0.353989 0)
(0.0609338 -0.351864 0)
(0.0845149 -0.350538 0)
(0.108186 -0.350088 0)
(0.131584 -0.350147 0)
(0.154762 -0.349018 0)
(0.177552 -0.350133 0)
(0.200052 -0.348063 0)
(0.222375 -0.349003 0)
(0.244346 -0.348257 0)
(0.265799 -0.349803 0)
(0.286721 -0.348925 0)
(0.306116 -0.351944 0)
(0.325155 -0.349875 0)
(0.340813 -0.352888 0)
(0.35316 -0.352091 0)
(0.35837 -0.351974 0)
(0.349234 -0.35753 0)