/*--------------------------------*- C++ -*----------------------------------*\
| =========                 |                                                 |
| \\      /  F ield         | OpenFOAM: The Open Source CFD Toolbox           |
|  \\    /   O peration     | Version:  v1912                                 |
|   \\  /    A nd           | Website:  www.openfoam.com                      |
|    \\/     M anipulation  |                                                 |
\*---------------------------------------------------------------------------*/
FoamFile
{
    version     2.0;
    format      ascii;
    class       volTensorField;
    location    "2.28";
    object      grad(U);
}
// * * * * * * * * * * * * * * * * * * * * * * * * * * * * * * * * * * * * * //

dimensions      [0 0 -1 0 0 0 0];


internalField   nonuniform List<tensor> 
1900
(
(-1.39886 -1.64602e-05 0 1.56258e-07 -1.24922e-05 0 0 0 0)
(0.8861 3.02436e-05 0 -4.91984e-07 1.04157e-05 0 0 0 0)
(-0.0132488 9.52388e-05 0 -1.32392e-05 5.28482e-05 0 0 0 0)
(-0.0202902 0.000250521 0 -2.0215e-05 0.000192811 0 0 0 0)
(-0.0281642 0.000939134 0 0.000207559 0.000546252 0 0 0 0)
(-0.0346307 0.00175395 0 0.00108778 0.00206939 0 0 0 0)
(-0.0401805 -0.00343493 0 0.0035171 0.00402917 0 0 0 0)
(-0.0400566 -0.0175717 0 0.00530695 -0.00243803 0 0 0 0)
(0.00852826 -0.05837 0 -0.00244538 -0.0249353 0 0 0 0)
(0.0030362 -0.181117 0 -0.0553794 -0.111477 0 0 0 0)
(-1.39886 1.43838e-05 0 4.89216e-06 1.34309e-05 0 0 0 0)
(0.886086 3.50968e-05 0 -3.3217e-06 3.02937e-06 0 0 0 0)
(-0.0132686 8.71563e-05 0 -2.41664e-05 -1.68127e-05 0 0 0 0)
(-0.0200694 0.000242883 0 -1.10283e-05 -9.22094e-05 0 0 0 0)
(-0.0270562 0.000937446 0 0.000436839 -0.000267334 0 0 0 0)
(-0.0313211 0.00172896 0 0.00181746 -0.00103134 0 0 0 0)
(-0.0359613 -0.00107249 0 0.00481528 -0.00202129 0 0 0 0)
(-0.0460191 -0.0113927 0 0.00597288 0.00240358 0 0 0 0)
(-0.0521581 -0.0506687 0 -0.0041053 0.0155505 0 0 0 0)
(-0.117255 -0.126232 0 -0.079715 0.0607736 0 0 0 0)
(-1.39886 -3.69661e-13 0 -3.38813e-14 -1.87737e-06 0 0 0 0)
(0.886071 5.1436e-14 0 1.05032e-13 -2.68902e-05 0 0 0 0)
(-0.0132565 3.69113e-13 0 -7.5081e-14 -7.2071e-05 0 0 0 0)
(-0.0198292 1.37188e-13 0 -2.47334e-14 -0.000201203 0 0 0 0)
(-0.0263357 -3.62906e-13 0 -8.9921e-14 -0.000557836 0 0 0 0)
(-0.0302522 -1.85483e-13 0 -6.85758e-14 -0.00207609 0 0 0 0)
(-0.0360251 6.06647e-14 0 -5.55654e-15 -0.00401576 0 0 0 0)
(-0.0489772 1.05161e-13 0 1.29833e-13 6.88859e-05 0 0 0 0)
(-0.0771596 3.65354e-14 0 1.33221e-13 0.0187697 0 0 0 0)
(-0.154308 8.75139e-15 0 1.17771e-13 0.101406 0 0 0 0)
(-1.39886 -1.43838e-05 0 -4.89216e-06 1.34309e-05 0 0 0 0)
(0.886086 -3.50968e-05 0 3.3217e-06 3.02937e-06 0 0 0 0)
(-0.0132686 -8.71563e-05 0 2.41664e-05 -1.68127e-05 0 0 0 0)
(-0.0200694 -0.000242883 0 1.10283e-05 -9.22094e-05 0 0 0 0)
(-0.0270562 -0.000937446 0 -0.000436839 -0.000267334 0 0 0 0)
(-0.0313211 -0.00172896 0 -0.00181746 -0.00103134 0 0 0 0)
(-0.0359613 0.00107249 0 -0.00481528 -0.00202129 0 0 0 0)
(-0.0460191 0.0113927 0 -0.00597288 0.00240358 0 0 0 0)
(-0.0521581 0.0506687 0 0.0041053 0.0155505 0 0 0 0)
(-0.117255 0.126232 0 0.079715 0.0607736 0 0 0 0)
(-1.39886 1.64602e-05 0 -1.56258e-07 -1.24922e-05 0 0 0 0)
(0.8861 -3.02436e-05 0 4.91985e-07 1.04157e-05 0 0 0 0)
(-0.0132488 -9.52388e-05 0 1.32392e-05 5.28482e-05 0 0 0 0)
(-0.0202902 -0.000250521 0 2.0215e-05 0.000192811 0 0 0 0)
(-0.0281642 -0.000939134 0 -0.000207559 0.000546252 0 0 0 0)
(-0.0346307 -0.00175395 0 -0.00108778 0.00206939 0 0 0 0)
(-0.0401805 0.00343493 0 -0.0035171 0.00402917 0 0 0 0)
(-0.0400566 0.0175717 0 -0.00530695 -0.00243803 0 0 0 0)
(0.00852826 0.05837 0 0.00244538 -0.0249353 0 0 0 0)
(0.0030362 0.181117 0 0.0553794 -0.111477 0 0 0 0)
(-0.119522 -0.314605 1.13096e-17 -0.180718 0.148676 -1.69645e-17 -4.59821e-17 -5.49729e-17 3.06548e-33)
(-0.242236 -0.388703 0 -0.248084 0.250194 0 1.23036e-16 4.44758e-17 0)
(-0.312519 -0.479822 0 -0.362313 0.286089 0 1.9528e-16 8.25151e-17 0)
(-0.939143 -0.365062 0 -0.835864 0.516509 0 0 0 0)
(0.0863298 -1.45605 -3.51171e-16 -2.8262 3.1168 5.26756e-16 1.47175e-15 9.81168e-16 9.5185e-32)
(-0.22979 -0.180039 0 -0.156948 0.182942 0 -7.86378e-17 -2.8107e-17 0)
(-0.391177 -0.243656 0 -0.18665 0.294063 0 -1.23036e-16 -4.44758e-17 0)
(-0.648118 -0.377999 0 -0.371451 0.532707 0 -1.9528e-16 -8.25151e-17 0)
(-1.20086 -0.326448 0 -0.871757 0.958527 0 0 0 0)
(-0.919097 0.17362 0 -1.11629 1.25736 0 0 0 0)
(-0.280428 -5.31122e-14 0 3.43724e-15 0.256295 0 0 0 0)
(-0.478969 3.15924e-13 0 -8.08396e-14 0.396393 0 0 0 0)
(-0.846342 1.34708e-13 0 6.85156e-14 0.761149 0 0 0 0)
(-1.45918 -1.44878e-13 0 -3.24439e-13 1.41291 0 0 0 0)
(-1.16149 1.08417e-13 0 -3.83988e-13 2.11128 0 0 0 0)
(-0.22979 0.180039 0 0.156948 0.182942 0 -7.86378e-17 2.8107e-17 0)
(-0.391177 0.243656 0 0.18665 0.294063 0 -1.23036e-16 4.44758e-17 0)
(-0.648118 0.377999 0 0.371451 0.532707 0 -1.9528e-16 8.25151e-17 0)
(-1.20086 0.326448 0 0.871757 0.958527 0 0 0 0)
(-0.919097 -0.17362 0 1.11629 1.25736 0 0 0 0)
(-0.119522 0.314605 -1.13096e-17 0.180718 0.148676 -1.69645e-17 2.03258e-16 -1.11187e-16 3.06548e-33)
(-0.242236 0.388703 0 0.248084 0.250194 0 1.23036e-16 -4.44758e-17 0)
(-0.312519 0.479822 0 0.362313 0.286089 0 1.9528e-16 -8.25151e-17 0)
(-0.939143 0.365062 -3.18563e-17 0.835864 0.516509 -4.77844e-17 5.91295e-16 -3.94197e-16 8.63466e-33)
(0.0863298 1.45605 3.51171e-16 2.8262 3.1168 5.26756e-16 -1.47175e-15 9.81168e-16 9.5185e-32)
(-0.0362561 0.456336 3.11607e-18 -0.425431 -0.976349 2.80447e-17 -9.3119e-16 7.26375e-17 -8.44613e-34)
(0.410419 0.00426249 -8.39624e-19 -0.202275 -0.430124 -7.55661e-18 6.59637e-16 -5.96622e-17 -2.2758e-34)
(0.178569 0.0972797 0 0.121986 -0.263742 0 0 0 0)
(-0.374179 0.506553 -1.71625e-18 0.674542 0.38906 -1.54462e-17 -4.28448e-16 6.15797e-17 4.65189e-34)
(-1.33682 0.582664 6.00835e-18 2.34189 1.85629 5.40752e-17 2.69132e-16 -2.99036e-17 1.62857e-33)
(0.209669 0.430612 0 -0.506896 -0.381454 0 4.72001e-16 -2.16165e-17 0)
(0.539472 -0.00814317 0 -0.237068 -0.477334 0 -3.32864e-16 2.33542e-17 0)
(0.470318 0.109541 0 0.245925 -0.418587 0 0 0 0)
(0.50737 0.512922 0 1.0501 -0.67035 0 2.47177e-16 -4.07634e-17 0)
(1.14815 0.432347 0 3.44311 -1.39422 0 -2.37267e-17 1.09549e-17 0)
(0.284947 2.11566e-13 0 -4.40799e-13 -0.672608 0 0 0 0)
(0.633101 3.10088e-13 0 6.60251e-13 -0.596242 0 0 0 0)
(0.648422 4.6427e-13 0 2.69745e-12 -0.555062 0 0 0 0)
(0.998381 1.63239e-13 0 4.14814e-12 -1.09306 0 -8.62204e-17 4.29347e-29 0)
(1.79415 -3.53452e-13 0 5.43607e-12 -2.90998 0 4.74535e-17 -2.9606e-29 0)
(0.209669 -0.430612 0 0.506896 -0.381454 0 4.72001e-16 2.16165e-17 0)
(0.539472 0.00814317 0 0.237068 -0.477334 0 -3.32864e-16 -2.33542e-17 0)
(0.470318 -0.109541 0 -0.245925 -0.418587 0 0 0 0)
(0.50737 -0.512922 0 -1.0501 -0.67035 0 2.47177e-16 4.07634e-17 0)
(1.14815 -0.432347 0 -3.44311 -1.39422 0 -2.37267e-17 -1.09549e-17 0)
(-0.0362561 -0.456336 0 0.425431 -0.976349 0 -4.72001e-16 -2.16165e-17 0)
(0.410419 -0.00426249 8.39624e-19 0.202275 -0.430124 -7.55661e-18 6.09185e-18 -1.29539e-17 -2.2758e-34)
(0.178569 -0.0972797 0 -0.121986 -0.263742 0 0 0 0)
(-0.374179 -0.506553 1.71625e-18 -0.674542 0.38906 -1.54462e-17 2.0315e-17 -1.17172e-17 4.65189e-34)
(-1.33682 -0.582664 -6.00835e-18 -2.34189 1.85629 5.40752e-17 -2.69132e-16 -2.99036e-17 1.62857e-33)
(0.575687 -0.854077 0 10.3347 -0.238959 0 0 0 0)
(1.40158 -1.04804 0 5.59495 0.532075 0 0 0 0)
(-0.635944 0.155659 0 2.81003 0.823692 0 0 0 0)
(-0.619156 0.510463 0 0.736272 0.668014 0 0 0 0)
(-0.25908 0.273733 0 0.14321 0.3195 0 0 0 0)
(-0.064405 0.0788191 0 0.0529906 0.168583 0 0 0 0)
(0.0478557 0.03087 0 0.0189042 0.111622 0 0 0 0)
(0.117083 0.017989 0 0.00372531 0.0803218 0 0 0 0)
(0.169137 0.00851249 0 0.0052597 0.0613891 0 0 0 0)
(0.21089 0.00368028 0 0.00444779 0.053845 0 0 0 0)
(0.242078 0.00288996 0 0.00250923 0.0491454 0 0 0 0)
(0.264047 0.00177468 0 0.00137466 0.0470826 0 0 0 0)
(0.27565 0.00121176 0 0.000610872 0.046808 0 0 0 0)
(0.278904 0.00104 0 0.000314593 0.0471967 0 0 0 0)
(0.274384 0.000963165 0 0.000315937 0.0473144 0 0 0 0)
(0.260125 0.000861137 0 0.000509093 0.0471167 0 0 0 0)
(0.229613 0.000813775 0 0.000831522 0.0466368 0 0 0 0)
(0.173957 0.000746083 0 0.000952411 0.0459561 0 0 0 0)
(0.0998005 0.00059831 0 0.000711491 0.0451945 0 0 0 0)
(0.0381577 0.000300503 0 0.000159147 0.0446694 0 0 0 0)
(0.0404378 8.92478e-05 0 0.00012998 0.0445161 0 0 0 0)
(0.105846 0.000112229 0 0.000156652 0.0443248 0 0 0 0)
(0.182263 0.000245075 0 0.000365473 0.0438304 0 0 0 0)
(0.239271 0.000424105 0 0.000644278 0.0428969 0 0 0 0)
(0.271343 0.00061379 0 0.000926559 0.0414609 0 0 0 0)
(0.288421 0.000774849 0 0.0011807 0.0395383 0 0 0 0)
(0.298018 0.000886797 0 0.0013918 0.0371827 0 0 0 0)
(0.303573 0.000941966 0 0.00154924 0.0344891 0 0 0 0)
(0.306404 0.000939142 0 0.00164612 0.0315658 0 0 0 0)
(0.306818 0.000880477 0 0.00169412 0.0285083 0 0 0 0)
(0.304336 0.000776786 0 0.00169657 0.0254191 0 0 0 0)
(0.29764 0.000648029 0 0.00166077 0.0223792 0 0 0 0)
(0.285086 0.000513727 0 0.00155681 0.0194265 0 0 0 0)
(0.267176 0.000364765 0 0.00146227 0.0165184 0 0 0 0)
(0.248358 0.000184856 0 0.00133298 0.0138286 0 0 0 0)
(0.234762 5.4706e-05 0 0.00110271 0.011307 0 0 0 0)
(0.211761 -0.000188671 0 0.00093065 0.00977921 0 0 0 0)
(0.36832 -0.000428198 0 0.00125809 0.00706706 0 0 0 0)
(2.40152 -0.000818065 0 0.000876792 0.00485318 0 0 0 0)
(2.12995 -0.000589616 0 0.000103538 0.00065216 0 0 0 0)
(1.38426 -0.737851 0 9.32801 -1.47587 0 0 0 0)
(-0.121035 -0.895896 0 5.01791 1.64426 0 0 0 0)
(-1.59748 0.158159 0 2.62491 2.12676 0 0 0 0)
(-1.12807 0.385187 0 0.635723 1.10918 0 0 0 0)
(-0.377528 0.164826 0 0.0634705 0.372041 0 0 0 0)
(-0.0790661 0.0411023 0 0.0216301 0.168225 0 0 0 0)
(0.0424575 0.016114 0 -0.000987652 0.1011 0 0 0 0)
(0.117225 0.00935666 0 -0.00151425 0.0621093 0 0 0 0)
(0.170058 0.00424282 0 0.00152594 0.0392632 0 0 0 0)
(0.211075 0.00191255 0 0.00160487 0.0328477 0 0 0 0)
(0.242144 0.00166877 0 0.00135534 0.0266122 0 0 0 0)
(0.264026 0.00120463 0 0.00140428 0.0229134 0 0 0 0)
(0.275498 0.000978196 0 0.00117023 0.0205118 0 0 0 0)
(0.278722 0.000724461 0 0.0007589 0.018748 0 0 0 0)
(0.274216 0.00046816 0 0.000288884 0.0169368 0 0 0 0)
(0.260044 0.000337828 0 1.51392e-05 0.0154371 0 0 0 0)
(0.229619 0.000292999 0 3.53607e-05 0.0139766 0 0 0 0)
(0.173968 0.000254332 0 0.00012778 0.0126398 0 0 0 0)
(0.0997568 0.000192856 0 0.000174434 0.011412 0 0 0 0)
(0.0381173 9.21956e-05 0 3.36623e-05 0.0105831 0 0 0 0)
(0.040435 2.40728e-05 0 4.65093e-05 0.010379 0 0 0 0)
(0.105851 2.59318e-05 0 3.30986e-05 0.0102763 0 0 0 0)
(0.182288 5.91487e-05 0 8.09411e-05 0.00999321 0 0 0 0)
(0.239299 0.000103556 0 0.000139912 0.00943385 0 0 0 0)
(0.271367 0.00014928 0 0.000183654 0.00853534 0 0 0 0)
(0.288438 0.000184661 0 0.000199212 0.00732395 0 0 0 0)
(0.298024 0.000210683 0 0.000192461 0.0058718 0 0 0 0)
(0.303568 0.000233353 0 0.000182865 0.00427558 0 0 0 0)
(0.30639 0.000248028 0 0.000176882 0.00263379 0 0 0 0)
(0.3068 0.000251115 0 0.000151746 0.00104728 0 0 0 0)
(0.304317 0.000242647 0 0.000110062 -0.000392848 0 0 0 0)
(0.297608 0.000212691 0 4.80184e-05 -0.00162292 0 0 0 0)
(0.285056 0.000144637 0 -6.9047e-05 -0.00262045 0 0 0 0)
(0.267162 5.99774e-05 0 -0.000177968 -0.00338886 0 0 0 0)
(0.248341 -1.13067e-05 0 -0.000279835 -0.00387433 0 0 0 0)
(0.23474 -2.56419e-05 0 -0.000347667 -0.0040243 0 0 0 0)
(0.21173 -0.00012349 0 -0.000399408 -0.00406238 0 0 0 0)
(0.368295 -0.000250543 0 -0.000455319 -0.00337574 0 0 0 0)
(2.40156 -0.000484551 0 -0.000425374 -0.00259044 0 0 0 0)
(2.13 -0.000353713 0 -4.59536e-05 -0.00056364 0 0 0 0)
(1.46668 -4.03986e-13 0 5.23817e-12 -3.13066 0 0 0 0)
(-0.54841 -2.1477e-13 0 1.90425e-12 2.3878 0 0 0 0)
(-1.91076 8.74375e-14 0 6.22769e-13 3.02863 0 0 0 0)
(-1.3643 1.96098e-13 0 1.01521e-13 1.30045 0 0 0 0)
(-0.437726 1.17078e-13 0 -1.67559e-14 0.380462 0 0 0 0)
(-0.0831564 -3.95819e-14 0 -2.10927e-13 0.167273 0 0 0 0)
(0.0411228 -9.40422e-14 0 -2.32611e-13 0.0978837 0 0 0 0)
(0.117815 1.71978e-13 0 2.20783e-13 0.0564887 0 0 0 0)
(0.170044 2.50631e-13 0 9.16644e-13 0.0335567 0 0 0 0)
(0.21084 -4.59707e-13 0 1.12363e-13 0.0273193 0 0 0 0)
(0.24202 9.92086e-14 0 -2.24726e-13 0.0204079 0 0 0 0)
(0.263993 2.7449e-12 0 3.88243e-12 0.0158465 0 0 0 0)
(0.275463 6.35614e-12 0 1.31839e-11 0.012126 0 0 0 0)
(0.278648 1.34295e-11 0 3.09638e-12 0.00912137 0 0 0 0)
(0.274167 5.34032e-12 0 -2.81695e-12 0.00714534 0 0 0 0)
(0.260051 -8.76887e-11 0 -1.091e-11 0.00590277 0 0 0 0)
(0.229646 -2.61546e-10 0 2.342e-10 0.00482277 0 0 0 0)
(0.173997 -8.57554e-11 0 -1.55534e-09 0.0038884 0 0 0 0)
(0.0997731 2.22374e-11 0 9.56733e-11 0.00307424 0 0 0 0)
(0.0381205 2.7581e-10 0 5.48549e-11 0.00256251 0 0 0 0)
(0.0404376 3.37545e-10 0 3.57748e-10 0.0024404 0 0 0 0)
(0.105856 -3.51987e-11 0 1.61108e-09 0.00239702 0 0 0 0)
(0.182294 1.4445e-11 0 -1.92227e-09 0.00226212 0 0 0 0)
(0.239301 -9.28915e-10 0 -4.19314e-10 0.00199036 0 0 0 0)
(0.27136 -7.30678e-10 0 2.00321e-09 0.00155016 0 0 0 0)
(0.288424 3.5408e-10 0 7.7549e-10 0.000964056 0 0 0 0)
(0.298013 3.8493e-10 0 6.62711e-10 0.000280618 0 0 0 0)
(0.303569 3.76339e-10 0 1.66188e-10 -0.000484384 0 0 0 0)
(0.306395 2.1186e-12 0 -1.38854e-10 -0.00132368 0 0 0 0)
(0.306799 -9.06606e-11 0 -7.96493e-10 -0.00218958 0 0 0 0)
(0.304306 -4.92042e-10 0 -1.36743e-09 -0.00305009 0 0 0 0)
(0.297588 -6.52186e-10 0 -1.85821e-09 -0.00385778 0 0 0 0)
(0.285021 -5.4694e-10 0 -2.23164e-09 -0.00451234 0 0 0 0)
(0.267115 -2.50727e-10 0 -2.24738e-09 -0.00485216 0 0 0 0)
(0.248309 -1.95133e-10 0 -1.2739e-09 -0.00492469 0 0 0 0)
(0.234727 1.00647e-09 0 5.97216e-10 -0.00477443 0 0 0 0)
(0.21173 1.73507e-09 0 2.57958e-09 -0.00474839 0 0 0 0)
(0.368313 4.48437e-10 0 1.94334e-09 -0.00392542 0 0 0 0)
(2.40164 1.79257e-12 0 1.01149e-09 -0.00302591 0 0 0 0)
(2.13007 -6.20876e-11 0 -6.33647e-11 -0.000594134 0 0 0 0)
(1.38426 0.737851 0 -9.32801 -1.47587 0 0 0 0)
(-0.121035 0.895896 0 -5.01791 1.64426 0 0 0 0)
(-1.59748 -0.158159 0 -2.62491 2.12676 0 0 0 0)
(-1.12807 -0.385187 0 -0.635723 1.10918 0 0 0 0)
(-0.377528 -0.164826 0 -0.0634705 0.372041 0 0 0 0)
(-0.0790661 -0.0411023 0 -0.0216301 0.168225 0 0 0 0)
(0.0424575 -0.016114 0 0.000987652 0.1011 0 0 0 0)
(0.117225 -0.00935666 0 0.00151425 0.0621093 0 0 0 0)
(0.170058 -0.00424282 0 -0.00152594 0.0392632 0 0 0 0)
(0.211075 -0.00191255 0 -0.00160487 0.0328477 0 0 0 0)
(0.242144 -0.00166877 0 -0.00135534 0.0266122 0 0 0 0)
(0.264026 -0.00120463 0 -0.00140428 0.0229134 0 0 0 0)
(0.275498 -0.000978196 0 -0.00117023 0.0205118 0 0 0 0)
(0.278722 -0.000724461 0 -0.000758901 0.018748 0 0 0 0)
(0.274216 -0.00046816 0 -0.000288884 0.0169368 0 0 0 0)
(0.260044 -0.000337829 0 -1.51393e-05 0.0154371 0 0 0 0)
(0.229619 -0.000293 0 -3.53601e-05 0.0139766 0 0 0 0)
(0.173968 -0.000254333 0 -0.000127783 0.0126398 0 0 0 0)
(0.0997568 -0.000192856 0 -0.000174434 0.011412 0 0 0 0)
(0.0381173 -9.21944e-05 0 -3.36622e-05 0.0105831 0 0 0 0)
(0.040435 -2.40709e-05 0 -4.65086e-05 0.010379 0 0 0 0)
(0.105851 -2.59315e-05 0 -3.30959e-05 0.0102763 0 0 0 0)
(0.182288 -5.91516e-05 0 -8.09449e-05 0.0099932 0 0 0 0)
(0.239299 -0.000103559 0 -0.000139913 0.00943384 0 0 0 0)
(0.271367 -0.000149282 0 -0.000183652 0.00853534 0 0 0 0)
(0.288438 -0.00018466 0 -0.000199212 0.00732394 0 0 0 0)
(0.298024 -0.000210681 0 -0.000192461 0.00587179 0 0 0 0)
(0.303568 -0.000233351 0 -0.000182865 0.00427558 0 0 0 0)
(0.30639 -0.000248027 0 -0.000176882 0.00263379 0 0 0 0)
(0.3068 -0.000251114 0 -0.000151747 0.00104729 0 0 0 0)
(0.304317 -0.000242647 0 -0.000110064 -0.000392844 0 0 0 0)
(0.297608 -0.000212691 0 -4.80202e-05 -0.00162291 0 0 0 0)
(0.285056 -0.000144638 0 6.90447e-05 -0.00262044 0 0 0 0)
(0.267162 -5.99788e-05 0 0.000177966 -0.00338885 0 0 0 0)
(0.248341 1.13057e-05 0 0.000279834 -0.00387432 0 0 0 0)
(0.23474 2.56438e-05 0 0.000347668 -0.00402429 0 0 0 0)
(0.21173 0.000123493 0 0.000399412 -0.00406238 0 0 0 0)
(0.368295 0.000250544 0 0.000455322 -0.00337574 0 0 0 0)
(2.40156 0.000484551 0 0.000425375 -0.00259044 0 0 0 0)
(2.13 0.000353713 0 4.59535e-05 -0.00056364 0 0 0 0)
(0.575687 0.854077 0 -10.3347 -0.238959 0 0 0 0)
(1.40158 1.04804 0 -5.59495 0.532075 0 0 0 0)
(-0.635944 -0.155659 0 -2.81003 0.823692 0 0 0 0)
(-0.619156 -0.510463 0 -0.736272 0.668014 0 0 0 0)
(-0.25908 -0.273733 0 -0.14321 0.3195 0 0 0 0)
(-0.064405 -0.0788191 0 -0.0529906 0.168583 0 0 0 0)
(0.0478557 -0.03087 0 -0.0189042 0.111622 0 0 0 0)
(0.117083 -0.017989 0 -0.00372531 0.0803218 0 0 0 0)
(0.169137 -0.00851249 0 -0.0052597 0.0613891 0 0 0 0)
(0.21089 -0.00368028 0 -0.00444779 0.053845 0 0 0 0)
(0.242078 -0.00288996 0 -0.00250923 0.0491454 0 0 0 0)
(0.264047 -0.00177468 0 -0.00137466 0.0470826 0 0 0 0)
(0.27565 -0.00121176 0 -0.000610872 0.046808 0 0 0 0)
(0.278904 -0.00104 0 -0.000314593 0.0471967 0 0 0 0)
(0.274384 -0.000963166 0 -0.000315937 0.0473144 0 0 0 0)
(0.260125 -0.000861138 0 -0.000509094 0.0471167 0 0 0 0)
(0.229613 -0.000813774 0 -0.000831523 0.0466368 0 0 0 0)
(0.173957 -0.000746084 0 -0.000952413 0.0459561 0 0 0 0)
(0.0998005 -0.000598311 0 -0.000711489 0.0451945 0 0 0 0)
(0.0381577 -0.000300502 0 -0.000159146 0.0446694 0 0 0 0)
(0.0404378 -8.92456e-05 0 -0.000129979 0.0445161 0 0 0 0)
(0.105846 -0.00011223 0 -0.00015665 0.0443248 0 0 0 0)
(0.182263 -0.000245078 0 -0.000365479 0.0438304 0 0 0 0)
(0.239271 -0.000424106 0 -0.000644286 0.0428969 0 0 0 0)
(0.271343 -0.00061379 0 -0.000926561 0.0414609 0 0 0 0)
(0.288421 -0.000774849 0 -0.0011807 0.0395383 0 0 0 0)
(0.298018 -0.000886795 0 -0.0013918 0.0371827 0 0 0 0)
(0.303573 -0.000941965 0 -0.00154924 0.0344891 0 0 0 0)
(0.306404 -0.000939141 0 -0.00164612 0.0315658 0 0 0 0)
(0.306818 -0.000880475 0 -0.00169412 0.0285083 0 0 0 0)
(0.304336 -0.000776785 0 -0.00169656 0.0254191 0 0 0 0)
(0.29764 -0.000648029 0 -0.00166077 0.0223792 0 0 0 0)
(0.285086 -0.000513727 0 -0.00155681 0.0194265 0 0 0 0)
(0.267176 -0.000364765 0 -0.00146227 0.0165184 0 0 0 0)
(0.248358 -0.000184857 0 -0.00133298 0.0138286 0 0 0 0)
(0.234762 -5.47058e-05 0 -0.00110271 0.011307 0 0 0 0)
(0.211761 0.000188672 0 -0.000930655 0.00977921 0 0 0 0)
(0.36832 0.000428198 0 -0.00125809 0.00706706 0 0 0 0)
(2.40152 0.000818065 0 -0.000876793 0.00485318 0 0 0 0)
(2.12995 0.000589616 0 -0.000103538 0.000652158 0 0 0 0)
(2.51001 1.16494 0 -3.7465 -0.165801 0 0 0 0)
(2.83849 1.38656 0 -2.49981 0.140669 0 0 0 0)
(0.338456 -0.0757796 0 -1.50862 0.204877 0 0 0 0)
(-0.0436808 -0.556604 0 -0.564792 0.249028 0 0 0 0)
(-0.0858787 -0.352183 0 -0.216496 0.223097 0 0 0 0)
(-0.0180446 -0.127889 0 -0.0910535 0.162672 0 0 0 0)
(0.0671185 -0.0544164 0 -0.0492204 0.124317 0 0 0 0)
(0.125947 -0.0308852 0 -0.0249953 0.103175 0 0 0 0)
(0.170671 -0.0159142 0 -0.0166142 0.0915339 0 0 0 0)
(0.213015 -0.00754875 0 -0.0109252 0.0833429 0 0 0 0)
(0.244148 -0.00449863 0 -0.0054959 0.0804144 0 0 0 0)
(0.265193 -0.00201165 0 -0.00237377 0.0796601 0 0 0 0)
(0.275988 -0.000636596 0 -0.000780828 0.080398 0 0 0 0)
(0.278697 -4.20233e-05 0 -0.000280054 0.0817559 0 0 0 0)
(0.273899 5.40022e-05 0 -0.000347666 0.0834486 0 0 0 0)
(0.259627 -0.000157769 0 -0.000643885 0.0848629 0 0 0 0)
(0.229348 -0.000418836 0 -0.000890938 0.0858835 0 0 0 0)
(0.174057 -0.000590485 0 -0.000901071 0.0864285 0 0 0 0)
(0.100204 -0.000531175 0 -0.00060158 0.0867154 0 0 0 0)
(0.0384353 -0.000276849 0 -0.000143762 0.0869285 0 0 0 0)
(0.0404334 -0.000164828 0 -0.000147799 0.08693 0 0 0 0)
(0.105709 -0.000356307 0 -0.000382648 0.0866838 0 0 0 0)
(0.182011 -0.000739864 0 -0.000878809 0.0860761 0 0 0 0)
(0.238979 -0.00121923 0 -0.00149453 0.0849605 0 0 0 0)
(0.271058 -0.00171896 0 -0.00212183 0.0833111 0 0 0 0)
(0.288165 -0.00218585 0 -0.00271179 0.081143 0 0 0 0)
(0.2978 -0.00259616 0 -0.00323898 0.0784793 0 0 0 0)
(0.303402 -0.00293733 0 -0.0036863 0.0753425 0 0 0 0)
(0.306282 -0.00320053 0 -0.00404357 0.0717624 0 0 0 0)
(0.306748 -0.00337907 0 -0.00430448 0.0677751 0 0 0 0)
(0.304317 -0.00346964 0 -0.00446613 0.0634282 0 0 0 0)
(0.297658 -0.00346832 0 -0.00452821 0.0587838 0 0 0 0)
(0.285146 -0.00339424 0 -0.00451209 0.0539408 0 0 0 0)
(0.267285 -0.00321903 0 -0.00437832 0.0489359 0 0 0 0)
(0.248546 -0.00303084 0 -0.00414153 0.0440399 0 0 0 0)
(0.234967 -0.0024215 0 -0.00366317 0.038849 0 0 0 0)
(0.211596 -0.00261146 0 -0.00331149 0.0358807 0 0 0 0)
(0.3683 -0.00304483 0 -0.00489858 0.0279774 0 0 0 0)
(2.40233 -0.00392497 0 -0.00406402 0.0205765 0 0 0 0)
(2.13054 -0.00255424 0 -0.000689081 0.00496468 0 0 0 0)
(2.32866 1.06504 0 -0.481347 0.414357 0 0 0 0)
(2.78757 1.22371 0 -0.776271 -0.0379268 0 0 0 0)
(0.706209 -0.0940744 0 -0.666848 -0.0955816 0 0 0 0)
(0.317395 -0.468163 0 -0.40624 0.00867881 0 0 0 0)
(0.104555 -0.314881 0 -0.230601 0.143136 0 0 0 0)
(0.0719279 -0.147694 0 -0.113038 0.169303 0 0 0 0)
(0.101182 -0.0755772 0 -0.0631032 0.158485 0 0 0 0)
(0.143751 -0.042665 0 -0.0397619 0.148015 0 0 0 0)
(0.181873 -0.0236543 0 -0.0219438 0.143927 0 0 0 0)
(0.220464 -0.012321 0 -0.0123508 0.139084 0 0 0 0)
(0.249208 -0.00557622 0 -0.00532834 0.138878 0 0 0 0)
(0.267976 -0.0016634 0 -0.0016356 0.140087 0 0 0 0)
(0.277487 0.000499416 0 0.000263205 0.142016 0 0 0 0)
(0.279433 0.00136449 0 0.00100168 0.144151 0 0 0 0)
(0.274292 0.00148536 0 0.00110821 0.146156 0 0 0 0)
(0.259869 0.00110807 0 0.000907027 0.147915 0 0 0 0)
(0.229507 0.000483136 0 0.000552027 0.149307 0 0 0 0)
(0.174182 -2.79079e-05 0 0.000167666 0.150298 0 0 0 0)
(0.100314 -0.000152481 0 -5.26213e-05 0.150926 0 0 0 0)
(0.0384462 -0.00010636 0 -3.83472e-05 0.151277 0 0 0 0)
(0.0402099 -0.000284556 0 -0.000187001 0.151275 0 0 0 0)
(0.105215 -0.000804217 0 -0.00075343 0.15091 0 0 0 0)
(0.181327 -0.00164036 0 -0.00166756 0.150101 0 0 0 0)
(0.23823 -0.00266221 0 -0.00268878 0.148699 0 0 0 0)
(0.270323 -0.00369984 0 -0.00369087 0.146719 0 0 0 0)
(0.287482 -0.00467428 0 -0.00464012 0.144205 0 0 0 0)
(0.297195 -0.00555978 0 -0.0055188 0.141193 0 0 0 0)
(0.30289 -0.00634462 0 -0.0063117 0.137706 0 0 0 0)
(0.305874 -0.00701876 0 -0.00700682 0.13376 0 0 0 0)
(0.306449 -0.0075718 0 -0.00759525 0.129369 0 0 0 0)
(0.304131 -0.00799708 0 -0.00806981 0.124552 0 0 0 0)
(0.297586 -0.00827814 0 -0.00842208 0.119324 0 0 0 0)
(0.285199 -0.00845892 0 -0.0086396 0.113741 0 0 0 0)
(0.267475 -0.00837506 0 -0.00867962 0.10776 0 0 0 0)
(0.248946 -0.00837884 0 -0.00847281 0.101805 0 0 0 0)
(0.235452 -0.00664808 0 -0.00803845 0.0949773 0 0 0 0)
(0.210659 -0.00878609 0 -0.00751112 0.0917722 0 0 0 0)
(0.367606 -0.0124571 0 -0.0122494 0.0782764 0 0 0 0)
(2.40514 -0.0188145 0 -0.011441 0.0624334 0 0 0 0)
(2.13289 -0.0127686 0 -0.0032196 0.027374 0 0 0 0)
(2.22582 0.729104 0 -0.0459087 0.421141 0 0 0 0)
(2.65974 0.895161 0 -0.165723 -0.124055 0 0 0 0)
(0.695033 -0.0308688 0 -0.231982 -0.123095 0 0 0 0)
(0.376703 -0.326567 0 -0.244788 0.000939132 0 0 0 0)
(0.196661 -0.1974 0 -0.175403 0.152344 0 0 0 0)
(0.143362 -0.113098 0 -0.110132 0.199648 0 0 0 0)
(0.13773 -0.0749296 0 -0.0631772 0.209976 0 0 0 0)
(0.16561 -0.0449132 0 -0.0421201 0.207599 0 0 0 0)
(0.197085 -0.0245213 0 -0.0218174 0.208383 0 0 0 0)
(0.229026 -0.0124147 0 -0.0097838 0.208404 0 0 0 0)
(0.254474 -0.00353212 0 -0.00220191 0.209735 0 0 0 0)
(0.270582 0.00101271 0 0.00186782 0.211837 0 0 0 0)
(0.278529 0.00327982 0 0.00372652 0.214067 0 0 0 0)
(0.279511 0.00394734 0 0.00425359 0.216266 0 0 0 0)
(0.273808 0.00368106 0 0.00398806 0.218251 0 0 0 0)
(0.259091 0.0028786 0 0.00323261 0.219987 0 0 0 0)
(0.228636 0.00187776 0 0.00220802 0.221515 0 0 0 0)
(0.173474 0.000969212 0 0.00115448 0.222806 0 0 0 0)
(0.100005 0.000411901 0 0.000372647 0.223685 0 0 0 0)
(0.0383058 6.02814e-05 0 1.42506e-05 0.224144 0 0 0 0)
(0.0397443 -0.000517845 0 -0.000296834 0.224137 0 0 0 0)
(0.104282 -0.00148821 0 -0.00134849 0.22366 0 0 0 0)
(0.180146 -0.0028707 0 -0.00286823 0.222703 0 0 0 0)
(0.23703 -0.00447843 0 -0.00442047 0.22117 0 0 0 0)
(0.269178 -0.00604972 0 -0.00586209 0.21915 0 0 0 0)
(0.286403 -0.00751053 0 -0.00720682 0.216723 0 0 0 0)
(0.29619 -0.00885878 0 -0.00846675 0.213932 0 0 0 0)
(0.301968 -0.0101 0 -0.00963822 0.210795 0 0 0 0)
(0.305046 -0.0112338 0 -0.0107132 0.207313 0 0 0 0)
(0.305724 -0.0122526 0 -0.0116842 0.203478 0 0 0 0)
(0.30352 -0.0131498 0 -0.0125437 0.19928 0 0 0 0)
(0.297109 -0.0138855 0 -0.0132718 0.194709 0 0 0 0)
(0.284898 -0.0145375 0 -0.0138185 0.189807 0 0 0 0)
(0.267445 -0.0147211 0 -0.0141161 0.184475 0 0 0 0)
(0.249164 -0.0153489 0 -0.0139466 0.179267 0 0 0 0)
(0.235894 -0.0120897 0 -0.0142023 0.17241 0 0 0 0)
(0.207538 -0.0187051 0 -0.0135026 0.170353 0 0 0 0)
(0.364513 -0.0313167 0 -0.0217366 0.154759 0 0 0 0)
(2.41103 -0.0529763 0 -0.0214847 0.130659 0 0 0 0)
(2.13846 -0.0363387 0 -0.0100197 0.0865966 0 0 0 0)
(2.2132 0.539673 0 0.0436156 0.333176 0 0 0 0)
(2.60826 0.699264 0 -0.0138661 0.00435886 0 0 0 0)
(0.630019 0.0263748 0 -0.0771769 -0.00977912 0 0 0 0)
(0.371917 -0.20274 0 -0.138142 0.0991856 0 0 0 0)
(0.234314 -0.123398 0 -0.115285 0.2074 0 0 0 0)
(0.180073 -0.092158 0 -0.0953379 0.228048 0 0 0 0)
(0.166721 -0.0679161 0 -0.0608987 0.243025 0 0 0 0)
(0.183607 -0.0442001 0 -0.0402049 0.24627 0 0 0 0)
(0.213033 -0.0228786 0 -0.0222124 0.248468 0 0 0 0)
(0.239366 -0.0110182 0 -0.00922704 0.250727 0 0 0 0)
(0.260436 -0.0022682 0 -0.00126536 0.251967 0 0 0 0)
(0.273689 0.00251093 0 0.00319741 0.253349 0 0 0 0)
(0.279786 0.00476816 0 0.00525699 0.254648 0 0 0 0)
(0.279685 0.00539646 0 0.00583326 0.255944 0 0 0 0)
(0.273309 0.00507092 0 0.00551018 0.257242 0 0 0 0)
(0.258154 0.00425359 0 0.00464045 0.258596 0 0 0 0)
(0.227505 0.0031993 0 0.00348424 0.260012 0 0 0 0)
(0.172413 0.00206293 0 0.00223895 0.261336 0 0 0 0)
(0.0992153 0.0011366 0 0.00103464 0.262314 0 0 0 0)
(0.037801 0.000329677 0 0.000127185 0.262872 0 0 0 0)
(0.0388967 -0.000750953 0 -0.000381148 0.262891 0 0 0 0)
(0.102737 -0.00218649 0 -0.0020036 0.262398 0 0 0 0)
(0.178367 -0.0040391 0 -0.00415409 0.261465 0 0 0 0)
(0.235345 -0.00608612 0 -0.00618653 0.260041 0 0 0 0)
(0.267638 -0.00798549 0 -0.00796354 0.258278 0 0 0 0)
(0.284973 -0.00970193 0 -0.00957112 0.25629 0 0 0 0)
(0.294852 -0.0112719 0 -0.0110654 0.25413 0 0 0 0)
(0.300725 -0.0127234 0 -0.012463 0.251822 0 0 0 0)
(0.303902 -0.0140696 0 -0.0137643 0.249373 0 0 0 0)
(0.304685 -0.0153123 0 -0.0149692 0.246779 0 0 0 0)
(0.302601 -0.0164479 0 -0.0160634 0.244037 0 0 0 0)
(0.296358 -0.0174072 0 -0.0170213 0.241126 0 0 0 0)
(0.284385 -0.0183206 0 -0.0177118 0.238143 0 0 0 0)
(0.267352 -0.0185319 0 -0.018129 0.234878 0 0 0 0)
(0.248863 -0.0200051 0 -0.0178753 0.232152 0 0 0 0)
(0.23588 -0.0152377 0 -0.0196434 0.226712 0 0 0 0)
(0.203398 -0.0257954 0 -0.0190804 0.227154 0 0 0 0)
(0.359914 -0.0507073 0 -0.0264356 0.216994 0 0 0 0)
(2.41643 -0.0844979 0 -0.0263493 0.192043 0 0 0 0)
(2.14394 -0.0552291 0 -0.0216179 0.170959 0 0 0 0)
(2.17042 0.412245 0 0.0408328 0.357058 0 0 0 0)
(2.54334 0.564677 0 0.0255433 0.118541 0 0 0 0)
(0.575276 0.0605097 0 -0.0160883 0.094166 0 0 0 0)
(0.33998 -0.117286 0 -0.0792311 0.161362 0 0 0 0)
(0.237908 -0.0732229 0 -0.086216 0.228994 0 0 0 0)
(0.195771 -0.0787685 0 -0.077232 0.240845 0 0 0 0)
(0.190859 -0.0573709 0 -0.0562908 0.257598 0 0 0 0)
(0.202889 -0.039668 0 -0.0351862 0.265642 0 0 0 0)
(0.226936 -0.0202263 0 -0.0195066 0.269188 0 0 0 0)
(0.249211 -0.00904216 0 -0.00749219 0.272154 0 0 0 0)
(0.266446 -0.00100562 0 0.000229822 0.27384 0 0 0 0)
(0.276867 0.00359591 0 0.00457778 0.275117 0 0 0 0)
(0.281069 0.00578094 0 0.0065823 0.276194 0 0 0 0)
(0.279755 0.00644675 0 0.00707799 0.277264 0 0 0 0)
(0.272659 0.00623687 0 0.00668699 0.278455 0 0 0 0)
(0.257139 0.00554757 0 0.00583786 0.279814 0 0 0 0)
(0.226321 0.00451777 0 0.00475627 0.281287 0 0 0 0)
(0.171114 0.00318807 0 0.00340694 0.282688 0 0 0 0)
(0.0979703 0.00189247 0 0.00173872 0.283724 0 0 0 0)
(0.0369415 0.000616413 0 0.00024535 0.284299 0 0 0 0)
(0.037691 -0.000975068 0 -0.000453807 0.284329 0 0 0 0)
(0.100646 -0.00286219 0 -0.00261812 0.283861 0 0 0 0)
(0.176115 -0.00514168 0 -0.00534288 0.282978 0 0 0 0)
(0.233359 -0.00754975 0 -0.00775491 0.281645 0 0 0 0)
(0.265916 -0.00966474 0 -0.00973584 0.280047 0 0 0 0)
(0.283414 -0.011508 0 -0.0114575 0.27832 0 0 0 0)
(0.293403 -0.0131645 0 -0.0130279 0.276526 0 0 0 0)
(0.299367 -0.0146837 0 -0.0144902 0.27469 0 0 0 0)
(0.30263 -0.0160929 0 -0.0158637 0.272821 0 0 0 0)
(0.303508 -0.0173951 0 -0.0171443 0.270931 0 0 0 0)
(0.301542 -0.0185971 0 -0.0183384 0.269 0 0 0 0)
(0.29552 -0.0195651 0 -0.0193352 0.267078 0 0 0 0)
(0.28383 -0.020559 0 -0.0199942 0.265245 0 0 0 0)
(0.267288 -0.0204942 0 -0.0204384 0.263154 0 0 0 0)
(0.247704 -0.0232172 0 -0.0200527 0.262154 0 0 0 0)
(0.234733 -0.0169058 0 -0.0236896 0.257026 0 0 0 0)
(0.200993 -0.0280697 0 -0.0235485 0.259301 0 0 0 0)
(0.357508 -0.0651513 0 -0.0251337 0.256569 0 0 0 0)
(2.41567 -0.0973377 0 -0.0241334 0.235364 0 0 0 0)
(2.14302 -0.0566555 0 -0.0372605 0.246398 0 0 0 0)
(2.19847 0.309829 0 0.0360992 0.439036 0 0 0 0)
(2.55341 0.445931 0 0.0270704 0.19595 0 0 0 0)
(0.529055 0.0676384 0 -0.0044375 0.159236 0 0 0 0)
(0.304339 -0.0728146 0 -0.0528876 0.203492 0 0 0 0)
(0.236241 -0.0468054 0 -0.0681303 0.236076 0 0 0 0)
(0.20891 -0.064594 0 -0.058372 0.246723 0 0 0 0)
(0.207238 -0.0440206 0 -0.0468216 0.264214 0 0 0 0)
(0.219053 -0.0330317 0 -0.0300701 0.273767 0 0 0 0)
(0.23972 -0.0166028 0 -0.0159908 0.278517 0 0 0 0)
(0.258385 -0.00653532 0 -0.00518729 0.282114 0 0 0 0)
(0.272067 0.00058653 0 0.00187168 0.2843 0 0 0 0)
(0.27981 0.00477928 0 0.0057831 0.285877 0 0 0 0)
(0.282195 0.00683729 0 0.00757549 0.287127 0 0 0 0)
(0.279786 0.00757501 0 0.0080436 0.288362 0 0 0 0)
(0.272114 0.00752828 0 0.00780329 0.289728 0 0 0 0)
(0.256293 0.00698261 0 0.00719641 0.291265 0 0 0 0)
(0.225162 0.00596852 0 0.006261 0.292899 0 0 0 0)
(0.169505 0.00441201 0 0.00473116 0.294416 0 0 0 0)
(0.0961687 0.00268899 0 0.00248824 0.295494 0 0 0 0)
(0.0356882 0.000911964 0 0.000363484 0.296044 0 0 0 0)
(0.0361374 -0.00117327 0 -0.000506674 0.296079 0 0 0 0)
(0.0980257 -0.0034879 0 -0.00318093 0.295666 0 0 0 0)
(0.173417 -0.00617426 0 -0.00645594 0.294851 0 0 0 0)