/*--------------------------------*- C++ -*----------------------------------*\
| =========                 |                                                 |
| \\      /  F ield         | OpenFOAM: The Open Source CFD Toolbox           |
|  \\    /   O peration     | Version:  v1912                                 |
|   \\  /    A nd           | Website:  www.openfoam.com                      |
|    \\/     M anipulation  |                                                 |
\*---------------------------------------------------------------------------*/
FoamFile
{
    version     2.0;
    format      ascii;
    class       volTensorField;
    location    "4.42";
    object      grad(U);
}
// * * * * * * * * * * * * * * * * * * * * * * * * * * * * * * * * * * * * * //

dimensions      [0 0 -1 0 0 0 0];


internalField   nonuniform List<tensor> 
1900
(
(-4.65551 -3.10639e-05 0 1.00479e-06 -9.08874e-06 0 0 0 0)
(3.90586 -2.77855e-05 0 -2.23785e-05 -8.04248e-05 0 0 0 0)
(0.322282 -2.93475e-05 0 -9.03566e-05 -6.24007e-05 0 0 0 0)
(0.106398 3.14654e-05 0 -0.000155123 -0.00013368 0 0 0 0)
(0.109741 0.00038171 0 -0.000144998 1.26489e-06 0 0 0 0)
(0.104402 0.00168787 0 -9.56914e-05 0.000591539 0 0 0 0)
(0.090231 0.00325129 0 0.000704692 0.00312366 0 0 0 0)
(0.081335 0.00044039 0 0.00380071 0.00668457 0 0 0 0)
(0.0710509 0.00666694 0 0.00836583 0.00736417 0 0 0 0)
(0.0906008 0.0253716 0 0.02739 0.0247208 0 0 0 0)
(-4.65553 -5.84497e-05 0 1.93176e-07 3.46235e-06 0 0 0 0)
(3.90577 -2.55265e-05 0 -4.53577e-05 2.76015e-05 0 0 0 0)
(0.322149 -2.39079e-05 0 -0.000155525 3.12479e-05 0 0 0 0)
(0.106343 3.22002e-05 0 -0.000217963 5.69491e-05 0 0 0 0)
(0.109801 0.000343509 0 -0.000130782 -2.17563e-07 0 0 0 0)
(0.105252 0.00143453 0 0.000202029 -0.000324761 0 0 0 0)
(0.0941274 0.00284174 0 0.00193928 -0.00168808 0 0 0 0)
(0.0889962 0.00380011 0 0.0067627 -0.00357605 0 0 0 0)
(0.0946403 0.0113693 0 0.013167 -0.00212847 0 0 0 0)
(0.125291 0.0313428 0 0.038008 -0.010243 0 0 0 0)
(-4.65555 -1.2185e-13 0 -2.32019e-13 1.12528e-05 0 0 0 0)
(3.90571 -3.05746e-13 0 -2.27411e-13 0.000105647 0 0 0 0)
(0.322109 3.58135e-14 0 -5.80048e-14 6.23057e-05 0 0 0 0)
(0.106422 4.04731e-13 0 2.35543e-13 0.000153462 0 0 0 0)
(0.110161 -1.17948e-13 0 8.50082e-14 -2.09465e-06 0 0 0 0)
(0.106472 2.94317e-14 0 -1.07065e-14 -0.000533555 0 0 0 0)
(0.0967917 6.04538e-14 0 -6.22146e-14 -0.00287116 0 0 0 0)
(0.0925627 -2.18197e-13 0 -1.49539e-13 -0.00621704 0 0 0 0)
(0.102296 -1.8369e-13 0 8.6228e-15 -0.0104714 0 0 0 0)
(0.137296 1.5454e-13 0 1.09979e-13 -0.0289557 0 0 0 0)
(-4.65553 5.84497e-05 0 -1.93176e-07 3.46235e-06 0 0 0 0)
(3.90577 2.55265e-05 0 4.53577e-05 2.76015e-05 0 0 0 0)
(0.322149 2.39079e-05 0 0.000155525 3.12479e-05 0 0 0 0)
(0.106343 -3.22002e-05 0 0.000217963 5.69491e-05 0 0 0 0)
(0.109801 -0.000343509 0 0.000130782 -2.17563e-07 0 0 0 0)
(0.105252 -0.00143453 0 -0.000202029 -0.000324761 0 0 0 0)
(0.0941274 -0.00284174 0 -0.00193928 -0.00168808 0 0 0 0)
(0.0889962 -0.00380011 0 -0.0067627 -0.00357605 0 0 0 0)
(0.0946403 -0.0113693 0 -0.013167 -0.00212847 0 0 0 0)
(0.125291 -0.0313428 0 -0.038008 -0.010243 0 0 0 0)
(-4.65551 3.10639e-05 0 -1.00479e-06 -9.08874e-06 0 0 0 0)
(3.90586 2.77855e-05 0 2.23785e-05 -8.04248e-05 0 0 0 0)
(0.322282 2.93475e-05 0 9.03566e-05 -6.24007e-05 0 0 0 0)
(0.106398 -3.14654e-05 0 0.000155123 -0.00013368 0 0 0 0)
(0.109741 -0.00038171 0 0.000144998 1.26489e-06 0 0 0 0)
(0.104402 -0.00168787 0 9.56914e-05 0.000591539 0 0 0 0)
(0.090231 -0.00325129 0 -0.000704692 0.00312366 0 0 0 0)
(0.081335 -0.00044039 0 -0.00380071 0.00668457 0 0 0 0)
(0.0710509 -0.00666694 0 -0.00836583 0.00736417 0 0 0 0)
(0.0906008 -0.0253716 0 -0.02739 0.0247208 0 0 0 0)
(0.131495 0.115212 -1.1425e-17 0.106472 -0.0860701 1.71375e-17 1.02743e-17 2.10392e-17 -3.09675e-33)
(0.240617 0.256559 0 0.15405 -0.171966 0 -5.40957e-17 -1.12477e-17 0)
(0.36636 0.477832 0 0.17714 -0.315245 0 -1.00923e-16 -2.81296e-17 0)
(0.696531 0.659931 0 0.213883 -0.586351 0 0 0 0)
(0.691433 0.890468 1.5994e-16 0.6791 -1.72736 -2.39909e-16 -9.5191e-16 -6.34607e-16 -4.33517e-32)
(0.173166 0.0480301 0 0.0601105 -0.0259767 0 2.95139e-17 5.4863e-18 0)
(0.257497 0.078496 0 0.0626425 -0.0626759 0 5.40957e-17 1.12477e-17 0)
(0.400245 0.166546 0 0.0544674 -0.186675 0 1.00923e-16 2.81296e-17 0)
(0.74692 0.321427 0 0.0611272 -0.50481 0 0 0 0)
(1.21906 0.166007 0 -0.0375176 -1.09213 0 0 0 0)
(0.19743 7.1877e-14 0 8.59923e-14 -0.0694918 0 0 0 0)
(0.289746 2.37839e-13 0 1.08851e-13 -0.123628 0 0 0 0)
(0.43406 1.42754e-13 0 3.48225e-14 -0.249329 0 0 0 0)
(0.756983 -5.60598e-14 0 -6.93027e-14 -0.563151 0 0 0 0)
(1.0962 1.02237e-13 0 5.64689e-15 -1.38488 0 0 0 0)
(0.173166 -0.0480301 0 -0.0601105 -0.0259767 0 2.95139e-17 -5.4863e-18 0)
(0.257497 -0.078496 0 -0.0626425 -0.0626759 0 5.40957e-17 -1.12477e-17 0)
(0.400245 -0.166546 0 -0.0544674 -0.186675 0 1.00923e-16 -2.81296e-17 0)
(0.74692 -0.321427 0 -0.0611272 -0.50481 0 0 0 0)
(1.21906 -0.166007 0 0.0375176 -1.09213 0 0 0 0)
(0.131495 -0.115212 1.1425e-17 -0.106472 -0.0860701 1.71375e-17 -6.93022e-17 3.20118e-17 -3.09675e-33)
(0.240617 -0.256559 0 -0.15405 -0.171966 0 -5.40957e-17 1.12477e-17 0)
(0.36636 -0.477832 0 -0.17714 -0.315245 0 -1.00923e-16 2.81296e-17 0)
(0.696531 -0.659931 4.37435e-17 -0.213883 -0.586351 6.56152e-17 -3.72081e-16 2.48054e-16 -1.18567e-32)
(0.691433 -0.890468 -1.5994e-16 -0.6791 -1.72736 -2.39909e-16 9.5191e-16 -6.34607e-16 -4.33517e-32)
(0.591239 -0.33744 -4.02462e-18 0.0985884 1.13282 -3.62216e-17 7.42974e-16 -4.81059e-17 1.09088e-33)
(0.078638 -0.0486073 1.55479e-18 0.215475 0.561865 1.39931e-17 -6.29276e-16 5.2277e-17 4.21425e-34)
(0.173641 0.0348148 0 0.106752 0.447534 0 0 0 0)
(0.152595 0.176573 -1.34437e-18 0.172853 0.531185 -1.20993e-17 5.3359e-16 -4.27118e-17 3.64391e-34)
(-0.351399 0.0253984 2.84709e-18 0.612967 0.95773 2.56238e-17 -2.41935e-16 2.68817e-17 7.71705e-34)
(0.696083 -0.305679 0 0.0250672 0.0811813 0 -3.72972e-16 6.99452e-18 0)
(0.102848 -0.0201249 0 0.157456 0.342105 0 3.17883e-16 -1.76777e-17 0)
(0.172379 0.0282996 0 0.0321637 0.38714 0 0 0 0)
(0.347071 0.122444 0 0.139941 0.286475 0 -3.37801e-16 1.45395e-17 0)
(0.776579 0.119402 0 0.742708 0.0208834 0 7.06909e-17 6.47732e-19 0)
(0.642073 8.52955e-14 0 7.1185e-14 0.302131 0 0 0 0)
(0.0625022 5.12993e-15 0 1.807e-13 0.489737 0 0 0 0)
(0.173997 1.65859e-13 0 6.6056e-13 0.424223 0 0 0 0)
(0.45103 4.43063e-13 0 1.73083e-12 0.314074 0 1.36806e-16 1.86848e-29 0)
(1.00239 8.15134e-13 0 2.46482e-12 -0.172059 0 -1.41382e-16 -4.02359e-29 0)
(0.696083 0.305679 0 -0.0250672 0.0811813 0 -3.72972e-16 -6.99452e-18 0)
(0.102848 0.0201249 0 -0.157456 0.342105 0 3.17883e-16 1.76777e-17 0)
(0.172379 -0.0282996 0 -0.0321637 0.38714 0 0 0 0)
(0.347071 -0.122444 0 -0.139941 0.286475 0 -3.37801e-16 -1.45395e-17 0)
(0.776579 -0.119402 0 -0.742708 0.0208834 0 7.06909e-17 -6.47732e-19 0)
(0.591239 0.33744 0 -0.0985884 1.13282 0 3.72972e-16 6.99452e-18 0)
(0.078638 0.0486073 -1.55479e-18 -0.215475 0.561865 1.39931e-17 -6.4894e-18 1.69215e-17 4.21425e-34)
(0.173641 -0.0348148 0 -0.106752 0.447534 0 0 0 0)
(0.152595 -0.176573 1.34437e-18 -0.172853 0.531185 -1.20993e-17 5.20578e-18 -1.59976e-17 3.64391e-34)
(-0.351399 -0.0253984 -2.84709e-18 -0.612967 0.95773 2.56238e-17 2.41935e-16 2.68817e-17 7.71705e-34)
(0.0593707 -0.523493 0 7.74929 0.668456 0 0 0 0)
(-0.105924 -0.544461 0 5.84984 0.972755 0 0 0 0)
(-1.37844 -0.106793 0 3.93588 1.45301 0 0 0 0)
(-1.25175 0.33884 0 1.78861 1.3224 0 0 0 0)
(-0.673004 0.426805 0 0.559881 0.901975 0 0 0 0)
(-0.306831 0.218356 0 0.077996 0.579711 0 0 0 0)
(-0.195038 0.067643 0 0.0420112 0.452341 0 0 0 0)
(-0.159108 0.0284917 0 0.0381032 0.387723 0 0 0 0)
(-0.0844633 0.0233645 0 0.0198679 0.34276 0 0 0 0)
(0.023819 0.0133572 0 0.00222077 0.308115 0 0 0 0)
(0.119962 0.001856 0 -0.00339159 0.303031 0 0 0 0)
(0.173284 0.00203677 0 -0.00292263 0.298372 0 0 0 0)
(0.197648 0.00149846 0 -0.00245476 0.295568 0 0 0 0)
(0.212426 0.00134472 0 -0.0022176 0.292929 0 0 0 0)
(0.224679 0.00101412 0 -0.00206179 0.290905 0 0 0 0)
(0.235481 0.000757398 0 -0.00181145 0.289403 0 0 0 0)
(0.244624 0.000594718 0 -0.00144353 0.288264 0 0 0 0)
(0.252301 0.000486274 0 -0.00100221 0.287319 0 0 0 0)
(0.258283 2.26352e-05 0 -0.00052545 0.286564 0 0 0 0)
(0.262587 -4.58893e-05 0 -3.47296e-05 0.287228 0 0 0 0)
(0.266509 0.000548283 0 0.000465213 0.286713 0 0 0 0)
(0.269861 0.000409738 0 0.000957987 0.285331 0 0 0 0)
(0.271492 -9.24116e-06 0 0.00142751 0.285291 0 0 0 0)
(0.271637 -4.95544e-05 0 0.00187928 0.285352 0 0 0 0)
(0.270756 -8.17557e-05 0 0.00230389 0.285455 0 0 0 0)
(0.269056 -0.0001293 0 0.00268951 0.285632 0 0 0 0)
(0.266982 -0.000153919 0 0.0030332 0.285908 0 0 0 0)
(0.264682 -0.000272132 0 0.00330301 0.286166 0 0 0 0)
(0.262061 -0.000108839 0 0.00354377 0.286873 0 0 0 0)
(0.258376 -0.00048977 0 0.00367301 0.286529 0 0 0 0)
(0.251186 0.000210779 0 0.00362888 0.288584 0 0 0 0)
(0.240039 -0.000552948 0 0.00344077 0.285947 0 0 0 0)
(0.221852 9.31851e-05 0 0.00267077 0.290526 0 0 0 0)
(0.201667 -0.000729734 0 0.00137099 0.286017 0 0 0 0)
(0.177905 -0.000168014 0 -0.00035296 0.292998 0 0 0 0)
(0.154917 -0.00273019 0 -0.00398841 0.286502 0 0 0 0)
(0.116899 0.000325592 0 -0.00587546 0.30202 0 0 0 0)
(-0.0355082 -0.0107797 0 -0.012894 0.284897 0 0 0 0)
(1.94222 -0.0212902 0 -0.00613388 0.343755 0 0 0 0)
(2.02091 -0.00545891 0 -0.0244268 0.357163 0 0 0 0)
(0.994029 -0.315192 0 3.81119 0.490042 0 0 0 0)
(-0.389702 -0.452702 0 3.86798 1.7172 0 0 0 0)
(-1.98674 -0.0680616 0 3.06789 2.36163 0 0 0 0)
(-1.79547 0.218323 0 1.59877 2.0843 0 0 0 0)
(-0.971458 0.272082 0 0.44667 1.19686 0 0 0 0)
(-0.395449 0.129282 0 -0.00817165 0.617157 0 0 0 0)
(-0.199809 0.0359559 0 -0.0415888 0.446266 0 0 0 0)
(-0.158398 0.0133249 0 -0.01886 0.384634 0 0 0 0)
(-0.0864449 0.0112738 0 -0.0206057 0.348326 0 0 0 0)
(0.0229545 0.00661971 0 -0.0180785 0.304319 0 0 0 0)
(0.119865 0.000649039 0 -0.0189966 0.302411 0 0 0 0)
(0.173979 0.00106181 0 -0.0165102 0.297939 0 0 0 0)
(0.198357 0.00074594 0 -0.0138224 0.29541 0 0 0 0)
(0.213091 0.000666065 0 -0.0115243 0.292788 0 0 0 0)
(0.225335 0.000501901 0 -0.00952462 0.290787 0 0 0 0)
(0.236151 0.000376389 0 -0.00765585 0.289302 0 0 0 0)
(0.245308 0.000296799 0 -0.00585194 0.288184 0 0 0 0)
(0.25299 0.000243608 0 -0.00409912 0.287257 0 0 0 0)
(0.258971 1.21004e-05 0 -0.00239183 0.286512 0 0 0 0)
(0.263271 -2.27033e-05 0 -0.000722055 0.28718 0 0 0 0)
(0.267185 0.000273134 0 0.000923549 0.28667 0 0 0 0)
(0.270524 0.000202424 0 0.002552 0.285295 0 0 0 0)
(0.272138 -8.24303e-06 0 0.00417121 0.285261 0 0 0 0)
(0.272266 -2.91944e-05 0 0.00579754 0.285327 0 0 0 0)
(0.271362 -4.55478e-05 0 0.00744266 0.285432 0 0 0 0)
(0.269636 -6.87404e-05 0 0.00912046 0.285608 0 0 0 0)
(0.267528 -7.97053e-05 0 0.0108549 0.285876 0 0 0 0)
(0.265192 -0.000135514 0 0.0126663 0.286137 0 0 0 0)
(0.262524 -4.90067e-05 0 0.0146281 0.286812 0 0 0 0)
(0.258774 -0.000228688 0 0.0167746 0.286511 0 0 0 0)
(0.251511 0.000141535 0 0.0191967 0.288495 0 0 0 0)
(0.240253 -0.00021483 0 0.0220657 0.285786 0 0 0 0)
(0.221918 0.000135132 0 0.0256056 0.290396 0 0 0 0)
(0.201572 -0.000252929 0 0.0297315 0.285466 0 0 0 0)
(0.17744 4.24649e-05 0 0.0351127 0.292904 0 0 0 0)
(0.154494 -0.00119357 0 0.0397542 0.286044 0 0 0 0)
(0.116317 0.000398734 0 0.0478391 0.302289 0 0 0 0)
(-0.0352073 -0.00623651 0 0.0505359 0.284924 0 0 0 0)
(1.94162 -0.00590626 0 0.0506237 0.339345 0 0 0 0)
(2.01947 0.00298575 0 0.0666851 0.35811 0 0 0 0)
(1.17561 7.15014e-13 0 3.81442e-12 -0.282988 0 0 0 0)
(-0.322159 -2.84015e-13 0 7.35286e-13 2.02946 0 0 0 0)
(-2.03858 -6.17943e-12 0 -1.56086e-11 2.82934 0 0 0 0)
(-2.01428 -1.03842e-11 0 -4.00026e-11 2.49738 0 0 0 0)
(-1.14048 -6.94043e-12 0 -2.9027e-11 1.32837 0 0 0 0)
(-0.44887 6.79187e-12 0 -1.05542e-11 0.626822 0 0 0 0)
(-0.198147 1.4928e-11 0 -2.98589e-11 0.439549 0 0 0 0)
(-0.153004 7.2621e-12 0 -6.12761e-11 0.379625 0 0 0 0)
(-0.0842359 7.22499e-13 0 -7.7003e-11 0.34794 0 0 0 0)
(0.0242871 -2.71873e-12 0 -6.55666e-11 0.302118 0 0 0 0)
(0.120418 -4.51918e-12 0 -4.45341e-11 0.30243 0 0 0 0)
(0.174789 -2.06781e-12 0 -4.06053e-11 0.297656 0 0 0 0)
(0.199099 6.60136e-12 0 -5.98371e-11 0.29513 0 0 0 0)
(0.213677 2.00764e-11 0 -9.51358e-11 0.292527 0 0 0 0)
(0.225805 3.29401e-11 0 -1.27774e-10 0.29055 0 0 0 0)
(0.23655 2.55907e-11 0 -1.35149e-10 0.289077 0 0 0 0)
(0.245659 -2.51695e-11 0 -1.07057e-10 0.287963 0 0 0 0)
(0.253307 -9.73222e-11 0 -5.64616e-11 0.287036 0 0 0 0)
(0.259265 -6.7598e-11 0 -7.96864e-12 0.286288 0 0 0 0)
(0.263552 5.0655e-11 0 2.94287e-11 0.286953 0 0 0 0)
(0.267462 1.05884e-10 0 5.95703e-11 0.286444 0 0 0 0)
(0.270806 4.66141e-12 0 8.50463e-11 0.285075 0 0 0 0)
(0.272436 -1.36107e-10 0 8.81929e-11 0.285052 0 0 0 0)
(0.272589 -1.07883e-10 0 5.08023e-11 0.285132 0 0 0 0)
(0.271722 2.54669e-11 0 -8.71009e-12 0.285253 0 0 0 0)
(0.270049 9.92017e-11 0 -5.22881e-11 0.285445 0 0 0 0)
(0.268013 1.00288e-10 0 -7.199e-11 0.285726 0 0 0 0)
(0.26578 3.29184e-11 0 -9.77497e-11 0.285993 0 0 0 0)
(0.263256 -8.51998e-12 0 -1.70946e-10 0.286657 0 0 0 0)
(0.259705 -1.71021e-11 0 -3.02766e-10 0.28633 0 0 0 0)
(0.252726 -3.21908e-11 0 -4.72637e-10 0.28823 0 0 0 0)
(0.241904 4.97058e-11 0 -6.2534e-10 0.285357 0 0 0 0)
(0.224082 -8.33034e-12 0 -7.09139e-10 0.289707 0 0 0 0)
(0.204433 -7.08232e-11 0 -6.96389e-10 0.284428 0 0 0 0)
(0.180821 6.36147e-11 0 -5.77765e-10 0.291445 0 0 0 0)
(0.158619 1.73881e-11 0 -3.92935e-10 0.284136 0 0 0 0)
(0.120036 -7.8465e-11 0 -2.91528e-10 0.299651 0 0 0 0)
(-0.0346982 -4.0422e-11 0 -3.59701e-10 0.281395 0 0 0 0)
(1.94691 -2.90919e-11 0 -1.99168e-10 0.342527 0 0 0 0)
(2.02558 -1.77818e-11 0 1.27305e-11 0.322 0 0 0 0)
(0.994029 0.315192 0 -3.81119 0.490042 0 0 0 0)
(-0.389702 0.452702 0 -3.86798 1.7172 0 0 0 0)
(-1.98674 0.0680616 0 -3.06789 2.36163 0 0 0 0)
(-1.79547 -0.218323 0 -1.59877 2.0843 0 0 0 0)
(-0.971458 -0.272082 0 -0.44667 1.19686 0 0 0 0)
(-0.395449 -0.129282 0 0.00817165 0.617157 0 0 0 0)
(-0.199809 -0.0359559 0 0.0415888 0.446266 0 0 0 0)
(-0.158398 -0.0133249 0 0.01886 0.384634 0 0 0 0)
(-0.0864449 -0.0112738 0 0.0206057 0.348326 0 0 0 0)
(0.0229545 -0.00661971 0 0.0180785 0.304319 0 0 0 0)
(0.119865 -0.000649039 0 0.0189966 0.302411 0 0 0 0)
(0.173979 -0.00106181 0 0.0165102 0.297939 0 0 0 0)
(0.198357 -0.00074594 0 0.0138224 0.29541 0 0 0 0)
(0.213091 -0.000666065 0 0.0115243 0.292788 0 0 0 0)
(0.225335 -0.000501901 0 0.00952462 0.290787 0 0 0 0)
(0.236151 -0.000376389 0 0.00765585 0.289302 0 0 0 0)
(0.245308 -0.000296799 0 0.00585194 0.288184 0 0 0 0)
(0.25299 -0.000243608 0 0.00409912 0.287257 0 0 0 0)
(0.258971 -1.21005e-05 0 0.00239183 0.286512 0 0 0 0)
(0.263271 2.27034e-05 0 0.000722054 0.28718 0 0 0 0)
(0.267185 -0.000273134 0 -0.000923549 0.28667 0 0 0 0)
(0.270524 -0.000202424 0 -0.002552 0.285295 0 0 0 0)
(0.272138 8.24276e-06 0 -0.00417121 0.285261 0 0 0 0)
(0.272266 2.91942e-05 0 -0.00579754 0.285327 0 0 0 0)
(0.271362 4.55479e-05 0 -0.00744266 0.285432 0 0 0 0)
(0.269636 6.87406e-05 0 -0.00912045 0.285608 0 0 0 0)
(0.267528 7.97055e-05 0 -0.0108549 0.285876 0 0 0 0)
(0.265192 0.000135514 0 -0.0126663 0.286137 0 0 0 0)
(0.262524 4.90067e-05 0 -0.0146281 0.286812 0 0 0 0)
(0.258774 0.000228688 0 -0.0167746 0.286511 0 0 0 0)
(0.251511 -0.000141535 0 -0.0191967 0.288495 0 0 0 0)
(0.240253 0.00021483 0 -0.0220657 0.285786 0 0 0 0)
(0.221918 -0.000135132 0 -0.0256056 0.290396 0 0 0 0)
(0.201572 0.000252929 0 -0.0297315 0.285466 0 0 0 0)
(0.17744 -4.24647e-05 0 -0.0351127 0.292904 0 0 0 0)
(0.154494 0.00119357 0 -0.0397542 0.286044 0 0 0 0)
(0.116317 -0.000398734 0 -0.0478391 0.302289 0 0 0 0)
(-0.0352073 0.00623651 0 -0.0505359 0.284924 0 0 0 0)
(1.94162 0.00590626 0 -0.0506237 0.339345 0 0 0 0)
(2.01947 -0.00298575 0 -0.0666851 0.35811 0 0 0 0)
(0.0593707 0.523493 0 -7.74929 0.668456 0 0 0 0)
(-0.105924 0.544461 0 -5.84984 0.972755 0 0 0 0)
(-1.37844 0.106793 0 -3.93588 1.45301 0 0 0 0)
(-1.25175 -0.33884 0 -1.78861 1.3224 0 0 0 0)
(-0.673004 -0.426805 0 -0.559881 0.901975 0 0 0 0)
(-0.306831 -0.218356 0 -0.077996 0.579711 0 0 0 0)
(-0.195038 -0.067643 0 -0.0420112 0.452341 0 0 0 0)
(-0.159108 -0.0284917 0 -0.0381032 0.387723 0 0 0 0)
(-0.0844633 -0.0233645 0 -0.0198679 0.34276 0 0 0 0)
(0.023819 -0.0133572 0 -0.00222077 0.308115 0 0 0 0)
(0.119962 -0.001856 0 0.00339159 0.303031 0 0 0 0)
(0.173284 -0.00203677 0 0.00292263 0.298372 0 0 0 0)
(0.197648 -0.00149846 0 0.00245476 0.295568 0 0 0 0)
(0.212426 -0.00134472 0 0.0022176 0.292929 0 0 0 0)
(0.224679 -0.00101412 0 0.00206179 0.290905 0 0 0 0)
(0.235481 -0.000757398 0 0.00181145 0.289403 0 0 0 0)
(0.244624 -0.000594719 0 0.00144353 0.288264 0 0 0 0)
(0.252301 -0.000486275 0 0.00100221 0.287319 0 0 0 0)
(0.258283 -2.26353e-05 0 0.00052545 0.286564 0 0 0 0)
(0.262587 4.58894e-05 0 3.47294e-05 0.287228 0 0 0 0)
(0.266509 -0.000548283 0 -0.000465213 0.286713 0 0 0 0)
(0.269861 -0.000409738 0 -0.000957987 0.285331 0 0 0 0)
(0.271492 9.2409e-06 0 -0.00142751 0.285291 0 0 0 0)
(0.271637 4.95542e-05 0 -0.00187928 0.285352 0 0 0 0)
(0.270756 8.17558e-05 0 -0.00230389 0.285455 0 0 0 0)
(0.269056 0.0001293 0 -0.00268951 0.285632 0 0 0 0)
(0.266982 0.000153919 0 -0.00303321 0.285908 0 0 0 0)
(0.264682 0.000272132 0 -0.00330301 0.286166 0 0 0 0)
(0.262061 0.000108839 0 -0.00354377 0.286873 0 0 0 0)
(0.258376 0.00048977 0 -0.00367301 0.286529 0 0 0 0)
(0.251186 -0.000210779 0 -0.00362888 0.288584 0 0 0 0)
(0.240039 0.000552948 0 -0.00344077 0.285947 0 0 0 0)
(0.221852 -9.31852e-05 0 -0.00267077 0.290526 0 0 0 0)
(0.201667 0.000729734 0 -0.00137099 0.286017 0 0 0 0)
(0.177905 0.000168015 0 0.000352961 0.292998 0 0 0 0)
(0.154917 0.00273019 0 0.00398842 0.286502 0 0 0 0)
(0.116899 -0.000325592 0 0.00587546 0.30202 0 0 0 0)
(-0.0355082 0.0107797 0 0.012894 0.284897 0 0 0 0)
(1.94222 0.0212902 0 0.00613388 0.343755 0 0 0 0)
(2.02091 0.00545891 0 0.0244268 0.357163 0 0 0 0)
(1.67624 0.503375 0 -6.05324 0.102099 0 0 0 0)
(1.67423 0.838736 0 -3.98235 0.654326 0 0 0 0)
(-0.142598 0.242605 0 -2.72131 0.782956 0 0 0 0)
(-0.306474 -0.424626 0 -1.24087 0.710215 0 0 0 0)
(-0.24352 -0.559054 0 -0.505531 0.603796 0 0 0 0)
(-0.173068 -0.308335 0 -0.198959 0.516925 0 0 0 0)
(-0.180301 -0.119747 0 -0.136907 0.437563 0 0 0 0)
(-0.143687 -0.0645254 0 -0.0885734 0.375904 0 0 0 0)
(-0.066228 -0.0472298 0 -0.0530555 0.331462 0 0 0 0)
(0.036545 -0.0237502 0 -0.0241201 0.30968 0 0 0 0)
(0.122979 -0.00536512 0 -0.01278 0.303097 0 0 0 0)
(0.174195 -0.00461562 0 -0.010765 0.297696 0 0 0 0)
(0.198735 -0.00329004 0 -0.00939707 0.294577 0 0 0 0)
(0.213614 -0.00280642 0 -0.00789407 0.292048 0 0 0 0)
(0.225837 -0.00212141 0 -0.00632848 0.290106 0 0 0 0)
(0.236538 -0.00159295 0 -0.00495324 0.288656 0 0 0 0)
(0.245591 -0.00125951 0 -0.00379922 0.287532 0 0 0 0)
(0.253212 -0.00102935 0 -0.00279072 0.286589 0 0 0 0)
(0.259161 -5.71424e-05 0 -0.00186196 0.285839 0 0 0 0)
(0.263441 8.98536e-05 0 -0.000975656 0.286514 0 0 0 0)
(0.267343 -0.00114496 0 -0.000129936 0.286008 0 0 0 0)
(0.270686 -0.000855232 0 0.000690817 0.284631 0 0 0 0)
(0.272308 2.04528e-05 0 0.00150881 0.284601 0 0 0 0)
(0.272443 0.000108718 0 0.00230538 0.284678 0 0 0 0)
(0.271554 0.000179218 0 0.00308701 0.284796 0 0 0 0)
(0.269848 0.000283238 0 0.00385911 0.284988 0 0 0 0)
(0.267774 0.000329203 0 0.00461137 0.285284 0 0 0 0)
(0.265461 0.000582249 0 0.0053595 0.285535 0 0 0 0)
(0.262827 0.000207039 0 0.00601688 0.286281 0 0 0 0)
(0.25918 0.00100046 0 0.00663019 0.285838 0 0 0 0)
(0.252032 -0.000426542 0 0.00728931 0.287939 0 0 0 0)
(0.241102 0.00104227 0 0.00786535 0.285253 0 0 0 0)
(0.223292 -0.00013923 0 0.0089837 0.289446 0 0 0 0)
(0.203359 0.00125201 0 0.010572 0.285282 0 0 0 0)
(0.180263 1.79775e-05 0 0.0119704 0.291116 0 0 0 0)
(0.157469 0.00507586 0 0.0151607 0.285202 0 0 0 0)
(0.121231 -0.00148961 0 0.0160607 0.298362 0 0 0 0)
(-0.0346973 0.0271628 0 0.0260687 0.282364 0 0 0 0)
(1.94816 0.0334488 0 0.0143396 0.357514 0 0 0 0)
(2.02929 -0.0043393 0 -0.00790425 0.330062 0 0 0 0)
(1.8492 0.810642 0 -1.69352 0.171361 0 0 0 0)
(2.15027 1.04276 0 -1.70761 0.429826 0 0 0 0)
(0.600645 0.087822 0 -1.33417 0.332666 0 0 0 0)
(0.376569 -0.465484 0 -0.784876 0.253537 0 0 0 0)
(0.100717 -0.54215 0 -0.430459 0.356844 0 0 0 0)
(-0.0233401 -0.330295 0 -0.287138 0.424497 0 0 0 0)
(-0.0965685 -0.175596 0 -0.176781 0.396394 0 0 0 0)
(-0.0865752 -0.111412 0 -0.104124 0.352265 0 0 0 0)
(-0.0321321 -0.0743824 0 -0.0598569 0.320151 0 0 0 0)
(0.0558058 -0.0351172 0 -0.0278748 0.310717 0 0 0 0)
(0.131214 -0.0115225 0 -0.0122428 0.301975 0 0 0 0)
(0.176055 -0.00886456 0 -0.00799032 0.29646 0 0 0 0)
(0.199832 -0.00598095 0 -0.00643559 0.293109 0 0 0 0)
(0.214747 -0.00486898 0 -0.00513262 0.290721 0 0 0 0)
(0.226892 -0.00368852 0 -0.00386928 0.28888 0 0 0 0)
(0.237352 -0.00278951 0 -0.00288378 0.287498 0 0 0 0)
(0.24619 -0.00223033 0 -0.00220528 0.286397 0 0 0 0)
(0.253679 -0.00182721 0 -0.0017239 0.28546 0 0 0 0)
(0.259561 -7.6719e-05 0 -0.00134424 0.284724 0 0 0 0)
(0.263798 0.000185856 0 -0.00101227 0.285421 0 0 0 0)
(0.267668 -0.00204226 0 -0.000729073 0.28493 0 0 0 0)
(0.270998 -0.001527 0 -0.000473898 0.283557 0 0 0 0)
(0.27261 4.78787e-05 0 -0.000212684 0.283536 0 0 0 0)
(0.272726 0.000205773 0 2.32017e-05 0.283628 0 0 0 0)
(0.271825 0.000328625 0 0.000243156 0.283762 0 0 0 0)
(0.270101 0.000516913 0 0.000453288 0.28397 0 0 0 0)
(0.268003 0.000586756 0 0.000627771 0.284296 0 0 0 0)
(0.265619 0.00106657 0 0.000780474 0.284536 0 0 0 0)
(0.262875 0.000348606 0 0.000771609 0.285384 0 0 0 0)
(0.259171 0.00181335 0 0.000650214 0.284826 0 0 0 0)
(0.251923 -0.000659489 0 0.000531887 0.287109 0 0 0 0)
(0.241102 0.00174316 0 0.000218781 0.284558 0 0 0 0)
(0.223689 -4.01658e-05 0 0.000473315 0.288418 0 0 0 0)
(0.203638 0.00205847 0 0.00130194 0.285196 0 0 0 0)
(0.181062 0.000171353 0 0.00147105 0.290079 0 0 0 0)
(0.157489 0.00845486 0 0.00354727 0.285947 0 0 0 0)
(0.125088 -0.00243651 0 0.00239696 0.29588 0 0 0 0)
(-0.0376016 0.0589955 0 0.0129625 0.284946 0 0 0 0)
(1.90629 0.0607343 0 0.00779485 0.351361 0 0 0 0)
(1.99497 -0.0157402 0 -0.00286242 0.359129 0 0 0 0)
(1.66267 0.752442 0 -0.279841 0.35978 0 0 0 0)
(2.02052 0.994176 0 -0.569281 0.123598 0 0 0 0)
(0.746579 0.0727264 0 -0.521967 0.0782355 0 0 0 0)
(0.564375 -0.401327 0 -0.459692 0.0771094 0 0 0 0)
(0.236118 -0.394311 0 -0.329723 0.241805 0 0 0 0)
(0.0713864 -0.270223 0 -0.291281 0.328313 0 0 0 0)
(-0.00394278 -0.189353 0 -0.177425 0.34641 0 0 0 0)
(-0.0310146 -0.137996 0 -0.126634 0.321972 0 0 0 0)
(0.00724857 -0.0872668 0 -0.0723003 0.310194 0 0 0 0)
(0.0824277 -0.0412652 0 -0.0362083 0.308028 0 0 0 0)
(0.14214 -0.0191036 0 -0.0177588 0.299991 0 0 0 0)
(0.179791 -0.01316 0 -0.0110445 0.29489 0 0 0 0)
(0.201489 -0.00881991 0 -0.0082748 0.29147 0 0 0 0)
(0.216087 -0.00688166 0 -0.00632713 0.289202 0 0 0 0)
(0.228004 -0.00522711 0 -0.0047201 0.28742 0 0 0 0)
(0.238141 -0.0039856 0 -0.00353485 0.286063 0 0 0 0)
(0.246709 -0.00322368 0 -0.00273509 0.284945 0 0 0 0)
(0.254041 -0.00264159 0 -0.00216843 0.283985 0 0 0 0)
(0.259847 -9.45451e-05 0 -0.00171973 0.283247 0 0 0 0)
(0.264033 0.000288674 0 -0.00133037 0.283963 0 0 0 0)
(0.267862 -0.00294097 0 -0.00100599 0.283477 0 0 0 0)
(0.271184 -0.00219879 0 -0.000715256 0.282097 0 0 0 0)
(0.272787 8.89956e-05 0 -0.000408572 0.282081 0 0 0 0)
(0.272882 0.000327284 0 -0.000131547 0.2822 0 0 0 0)
(0.271968 0.000508801 0 0.00013025 0.282366 0 0 0 0)
(0.270219 0.000797217 0 0.000389227 0.28261 0 0 0 0)
(0.268089 0.000874397 0 0.000600859 0.283002 0 0 0 0)
(0.265599 0.00163055 0 0.000790445 0.283226 0 0 0 0)
(0.262702 0.000486545 0 0.000756442 0.284259 0 0 0 0)
(0.258949 0.00266266 0 0.000593263 0.283501 0 0 0 0)
(0.251616 -0.000684733 0 0.000471978 0.286051 0 0 0 0)
(0.241045 0.00230396 0 0.000128471 0.283735 0 0 0 0)
(0.224336 0.000475467 0 0.000510808 0.287042 0 0 0 0)
(0.204321 0.0028529 0 0.00179623 0.285112 0 0 0 0)
(0.182427 0.000741638 0 0.00222566 0.288691 0 0 0 0)
(0.158361 0.0106659 0 0.00462557 0.286679 0 0 0 0)
(0.130304 -0.00245445 0 0.00357775 0.292464 0 0 0 0)
(-0.0294957 0.0806261 0 0.0134583 0.287073 0 0 0 0)
(1.93291 0.104934 0 0.00523501 0.330491 0 0 0 0)
(2.01902 0.00314585 0 -0.0130059 0.337334 0 0 0 0)
(1.57028 0.583049 0 -0.0496873 0.452336 0 0 0 0)
(1.91695 0.771454 0 -0.160164 0.148106 0 0 0 0)
(0.70625 0.043024 0 -0.188618 0.0568824 0 0 0 0)
(0.561823 -0.307862 0 -0.278196 0.0914397 0 0 0 0)
(0.263004 -0.300081 0 -0.254412 0.234158 0 0 0 0)
(0.123419 -0.229494 0 -0.254546 0.269453 0 0 0 0)
(0.0620913 -0.181707 0 -0.176484 0.298456 0 0 0 0)
(0.0147269 -0.14631 0 -0.135153 0.295651 0 0 0 0)
(0.0550054 -0.0878194 0 -0.0775289 0.300092 0 0 0 0)
(0.108364 -0.0449495 0 -0.0427568 0.301115 0 0 0 0)
(0.155462 -0.0241829 0 -0.0236562 0.296022 0 0 0 0)
(0.185194 -0.0170756 0 -0.0154089 0.292045 0 0 0 0)
(0.204378 -0.0114614 0 -0.0113055 0.289015 0 0 0 0)
(0.218172 -0.008772 0 -0.00848372 0.286991 0 0 0 0)
(0.229583 -0.0067134 0 -0.00638226 0.285308 0 0 0 0)
(0.239265 -0.00517366 0 -0.00487981 0.28398 0 0 0 0)
(0.247507 -0.00423351 0 -0.0038272 0.28285 0 0 0 0)
(0.254657 -0.00346423 0 -0.00303078 0.281868 0 0 0 0)
(0.260368 -9.79512e-05 0 -0.00236594 0.281138 0 0 0 0)
(0.264486 0.000408015 0 -0.00177962 0.281885 0 0 0 0)
(0.26826 -0.00383989 0 -0.00128106 0.281408 0 0 0 0)
(0.271574 -0.00287196 0 -0.000826464 0.280013 0 0 0 0)
(0.273172 0.000147264 0 -0.00034836 0.279998 0 0 0 0)
(0.273245 0.000479612 0 9.51246e-05 0.280146 0 0 0 0)
(0.272327 0.000723915 0 0.000525481 0.28035 0 0 0 0)
(0.270554 0.00113043 0 0.000960932 0.280633 0 0 0 0)
(0.268389 0.00118033 0 0.00133482 0.281099 0 0 0 0)
(0.265769 0.00227794 0 0.00169104 0.281255 0 0 0 0)
(0.262685 0.000613543 0 0.00176607 0.282505 0 0 0 0)
(0.258897 0.00353999 0 0.00169695 0.281417 0 0 0 0)
(0.251476 -0.000434333 0 0.00176084 0.28416 0 0 0 0)
(0.24114 0.0026976 0 0.00166308 0.282131 0 0 0 0)
(0.225296 0.00128653 0 0.00235067 0.28471 0 0 0 0)
(0.20529 0.00364788 0 0.0042592 0.28387 0 0 0 0)
(0.183789 0.00168203 0 0.00533897 0.286141 0 0 0 0)
(0.158792 0.0120906 0 0.00819453 0.285888 0 0 0 0)
(0.1336 -0.00205711 0 0.00771221 0.288353 0 0 0 0)
(-0.0360046 0.0956393 0 0.0173955 0.28643 0 0 0 0)
(1.88079 0.109168 0 -0.00181903 0.327385 0 0 0 0)
(1.9774 -0.00914529 0 -0.0449804 0.336109 0 0 0 0)
(1.55621 0.459274 0 0.0188186 0.399983 0 0 0 0)
(1.88664 0.613102 0 -0.0293656 0.144447 0 0 0 0)
(0.632839 0.0181211 0 -0.0708301 0.0822506 0 0 0 0)
(0.500973 -0.230497 0 -0.190597 0.112695 0 0 0 0)
(0.258907 -0.222771 0 -0.208255 0.230587 0 0 0 0)
(0.146481 -0.208263 0 -0.198367 0.246176 0 0 0 0)
(0.111109 -0.164107 0 -0.170912 0.261378 0 0 0 0)
(0.0643418 -0.136419 0 -0.117983 0.280901 0 0 0 0)
(0.096285 -0.0820018 0 -0.0750668 0.29086 0 0 0 0)
(0.134341 -0.0451878 0 -0.0432929 0.294593 0 0 0 0)
(0.168494 -0.0278435 0 -0.0265168 0.291126 0 0 0 0)
(0.191692 -0.019912 0 -0.0180626 0.288481 0 0 0 0)
(0.208162 -0.0136902 0 -0.0133245 0.286033 0 0 0 0)
(0.220831 -0.0104534 0 -0.0100249 0.284292 0 0 0 0)
(0.231477 -0.00812835 0 -0.00767149 0.282715 0 0 0 0)
(0.240603 -0.00635512 0 -0.00599718 0.281403 0 0 0 0)
(0.248491 -0.00525963 0 -0.00477235 0.280259 0 0 0 0)
(0.25545 -0.00429135 0 -0.00379417 0.279258 0 0 0 0)
(0.261052 -7.82083e-05 0 -0.00294697 0.278546 0 0 0 0)
(0.265079 0.000548853 0 -0.00219779 0.279339 0 0 0 0)
(0.268781 -0.00474459 0 -0.0015614 0.278874 0 0 0 0)
(0.272082 -0.00355717 0 -0.000983044 0.277453 0 0 0 0)
(0.273676 0.000217271 0 -0.000377286 0.277445 0 0 0 0)
(0.273724 0.000666968 0 0.000180254 0.277635 0 0 0 0)
(0.272803 0.000977638 0 0.000713777 0.277878 0 0 0 0)
(0.270999 0.00151887 0 0.00124366 0.278199 0 0 0 0)
(0.268793 0.00147438 0 0.00165224 0.278773 0 0 0 0)
(0.266015 0.00298502 0 0.00200823 0.278812 0 0 0 0)
(0.262708 0.000642598 0 0.00199353 0.280365 0 0 0 0)
(0.258944 0.00425723 0 0.00166274 0.27891 0 0 0 0)
(0.251583 3.02092e-06 0 0.00144961 0.281795 0 0 0 0)
(0.241614 0.00283465 0 0.00102729 0.280132 0 0 0 0)
(0.226837 0.00215108 0 0.00120713 0.281993 0 0 0 0)
(0.2072 0.00423154 0 0.00243124 0.282112 0 0 0 0)
(0.186219 0.00268657 0 0.00252963 0.283097 0 0 0 0)
(0.160648 0.0127974 0 0.00345607 0.284484 0 0 0 0)
(0.13917 -0.00193229 0 0.00106865 0.284124 0 0 0 0)
(-0.0386804 0.118239 0 0.00604708 0.285265 0 0 0 0)
(1.87281 0.152806 0 -0.0113601 0.32467 0 0 0 0)
(1.97743 0.0115521 0 -0.0501927 0.336582 0 0 0 0)
(1.52385 0.336805 0 0.0168154 0.40017 0 0 0 0)
(1.83056 0.465275 0 -0.00618412 0.156313 0 0 0 0)
(0.550881 0.012426 0 -0.0542513 0.106992 0 0 0 0)
(0.429395 -0.16492 0 -0.159831 0.138924 0 0 0 0)
(0.255516 -0.171453 0 -0.191413 0.211957 0 0 0 0)
(0.159405 -0.199823 0 -0.166377 0.230893 0 0 0 0)
(0.139552 -0.148246 0 -0.157765 0.242726 0 0 0 0)
(0.107087 -0.117901 0 -0.109748 0.269219 0 0 0 0)
(0.12698 -0.0746251 0 -0.073326 0.283033 0 0 0 0)
(0.155149 -0.0446927 0 -0.0462862 0.286784 0 0 0 0)
(0.179775 -0.0300728 0 -0.030534 0.285386 0 0 0 0)
(0.197907 -0.0219839 0 -0.0215411 0.283984 0 0 0 0)
(0.212123 -0.0154981 0 -0.0159193 0.282333 0 0 0 0)
(0.223619 -0.0119688 0 -0.0120204 0.280987 0 0 0 0)
(0.233464 -0.00949668 0 -0.00930206 0.279609 0 0 0 0)
(0.242059 -0.00754108 0 -0.00735251 0.278379 0 0 0 0)
(0.24963 -0.00630075 0 -0.00587155 0.277274 0 0 0 0)
(0.256416 -0.00511483 0 -0.00464946 0.27629 0 0 0 0)
(0.261907 -1.9615e-05 0 -0.00357253 0.275627 0 0 0 0)
(0.265821 0.000724035 0 -0.00262678 0.276498 0 0 0 0)
(0.269431 -0.00565787 0 -0.00182362 0.276056 0 0 0 0)
(0.272715 -0.00424824 0 -0.00109351 0.274614 0 0 0 0)
(0.274293 0.000323304 0 -0.000324563 0.2746 0 0 0 0)
(0.274297 0.000896568 0 0.000396777 0.274814 0 0 0 0)
(0.273351 0.00126744 0 0.00110588 0.27506 0 0 0 0)
(0.271458 0.00199249 0 0.00185453 0.275342 0 0 0 0)
(0.269126 0.00177043 0 0.00249799 0.275934 0 0 0 0)
(0.266098 0.00381239 0 0.0031644 0.275668 0 0 0 0)
(0.262352 0.000707841 0 0.00355901 0.277452 0 0 0 0)
(0.258373 0.00491766 0 0.00375837 0.275597 0 0 0 0)
(0.250863 0.000743449 0 0.00437741 0.278471 0 0 0 0)
(0.240906 0.00288879 0 0.00506827 0.277108 0 0 0 0)
(0.226649 0.00319434 0 0.00664745 0.278093 0 0 0 0)