/*--------------------------------*- C++ -*----------------------------------*\
| =========                 |                                                 |
| \\      /  F ield         | OpenFOAM: The Open Source CFD Toolbox           |
|  \\    /   O peration     | Version:  v1912                                 |
|   \\  /    A nd           | Website:  www.openfoam.com                      |
|    \\/     M anipulation  |                                                 |
\*---------------------------------------------------------------------------*/
FoamFile
{
    version     2.0;
    format      ascii;
    class       volScalarField;
    location    "4.42";
    object      Ma;
}
// * * * * * * * * * * * * * * * * * * * * * * * * * * * * * * * * * * * * * //

dimensions      [0 0 0 0 0 0 0];


internalField   nonuniform List<scalar> 
1900
(
0.766415
0.102981
0.0479539
0.0370888
0.0264435
0.0153645
0.00581968
0.00262009
0.0103931
0.0168672
0.766415
0.102986
0.0479719
0.0371195
0.0264721
0.0153833
0.00567706
0.00333569
0.0120999
0.0224154
0.766415
0.10299
0.0479849
0.037132
0.0264693
0.0153244
0.00542491
0.0038675
0.013014
0.0243549
0.766415
0.102986
0.0479719
0.0371195
0.0264721
0.0153833
0.00567706
0.00333569
0.0120999
0.0224154
0.766415
0.102981
0.0479539
0.0370888
0.0264435
0.0153645
0.00581968
0.00262009
0.0103931
0.0168672
0.0265759
0.0438669
0.0713605
0.113645
0.189556
0.0347697
0.0499413
0.0704529
0.104862
0.172457
0.0372939
0.052514
0.0744356
0.109808
0.177371
0.0347697
0.0499413
0.0704529
0.104862
0.172457
0.0265759
0.0438669
0.0713605
0.113645
0.189556
0.295641
0.301259
0.32487
0.350944
0.366781
0.293245
0.309876
0.328993
0.360115
0.413727
0.296102
0.309331
0.325651
0.360942
0.434756
0.293245
0.309876
0.328993
0.360115
0.413727
0.295641
0.301259
0.32487
0.350944
0.366781
0.260663
0.478206
0.326312
0.205826
0.229491
0.2758
0.310055
0.344578
0.371473
0.381126
0.368855
0.342202
0.309307
0.273147
0.23448
0.193641
0.151074
0.107468
0.0643731
0.0317897
0.0488956
0.0922491
0.139773
0.188355
0.237238
0.286044
0.334574
0.382762
0.430535
0.477805
0.524278
0.568832
0.611098
0.648615
0.683221
0.711746
0.737708
0.753329
0.74983
1.6697
0.564418
0.769429
0.462975
0.135157
0.180471
0.269254
0.308581
0.343136
0.371001
0.381126
0.368997
0.342177
0.309053
0.272636
0.233654
0.192392
0.149201
0.104525
0.0589881
0.0179564
0.0413301
0.0886615
0.137616
0.186955
0.236326
0.285486
0.334292
0.382704
0.430662
0.478093
0.524687
0.569357
0.611671
0.649231
0.683803
0.712229
0.73813
0.753606
0.749982
1.66868
0.632489
0.830273
0.526661
0.114485
0.153372
0.269546
0.310853
0.344195
0.371838
0.381676
0.369482
0.342508
0.309204
0.272624
0.233484
0.192043
0.148614
0.10355
0.0570941
0.00967077
0.0384949
0.0874549
0.136922
0.186536
0.236096
0.285408
0.334352
0.382902
0.43101
0.478616
0.525419
0.570359
0.613027
0.651033
0.686193
0.715237
0.741956
0.75789
0.753837
1.67241
0.564418
0.769429
0.462975
0.135157
0.180471
0.269254
0.308581
0.343136
0.371001
0.381126
0.368997
0.342177
0.309053
0.272636
0.233654
0.192392
0.149201
0.104525
0.0589881
0.0179564
0.0413301
0.0886615
0.137616
0.186955
0.236326
0.285486
0.334292
0.382704
0.430662
0.478093
0.524687
0.569357
0.611671
0.649231
0.683803
0.712229
0.73813
0.753606
0.749982
1.66868
0.260663
0.478206
0.326312
0.205826
0.229491
0.2758
0.310055
0.344578
0.371473
0.381126
0.368855
0.342202
0.309307
0.273147
0.23448
0.193641
0.151074
0.107468
0.0643731
0.0317897
0.0488956
0.0922491
0.139773
0.188355
0.237238
0.286044
0.334574
0.382762
0.430535
0.477805
0.524278
0.568832
0.611098
0.648615
0.683221
0.711746
0.737708
0.753329
0.74983
1.6697
0.762957
0.293747
0.381622
0.365135
0.321202
0.307687
0.331912
0.360779
0.383143
0.3882
0.375016
0.348432
0.315774
0.279982
0.241937
0.202158
0.161417
0.121154
0.0848711
0.0637135
0.0737094
0.107499
0.15048
0.196667
0.244137
0.29205
0.339988
0.387771
0.435268
0.482325
0.528713
0.573142
0.615533
0.65313
0.688039
0.716921
0.743402
0.759935
0.756915
1.66961
1.40101
0.727032
0.649838
0.528887
0.433901
0.385313
0.384382
0.395046
0.406114
0.40488
0.389266
0.362737
0.330956
0.296476
0.260348
0.223445
0.187043
0.15334
0.126373
0.113393
0.119167
0.142298
0.177071
0.217761
0.261511
0.306812
0.352845
0.399179
0.445561
0.491632
0.537362
0.580971
0.623093
0.660202
0.695041
0.723749
0.750291
0.767756
0.765627
1.6697
1.54875
0.863381
0.763821
0.612343
0.512073
0.463262
0.442522
0.437177
0.437623
0.428979
0.410347
0.383576
0.35285
0.320089
0.286395
0.252879
0.221029
0.193052
0.172174
0.163078
0.167006
0.183878
0.211952
0.247004
0.28637
0.328317
0.371763
0.416044
0.46081
0.505402
0.550151
0.592535
0.634232
0.67069
0.705435
0.733944
0.760717
0.779265
0.782181
1.69037
1.58048
0.909186
0.809061
0.670276
0.576719
0.531836
0.498218
0.484855
0.473941
0.459162
0.437519
0.410374
0.380612
0.349585
0.318319
0.287997
0.260053
0.23638
0.219385
0.212515
0.215398
0.228357
0.251555
0.281804
0.316975
0.355446
0.396064
0.438004
0.480905
0.523708
0.567321
0.608226
0.649365
0.685092
0.719639
0.747842
0.774593
0.793601
0.797738
1.68083
1.60028
0.932285
0.833199
0.71331
0.634569
0.59127
0.552845
0.531748
0.513186
0.493165
0.4691
0.441647
0.412752
0.383335
0.354279
0.32672
0.301912
0.281392
0.266984
0.261571
0.263768
0.274058
0.29371
0.320098
0.35158
0.386772
0.42458
0.464074
0.505007
0.545797
0.588189
0.627489
0.667987
0.703022
0.737419
0.765466
0.792338
0.812259
0.820175
1.69618
1.59963
0.945999
0.851193
0.75244
0.687211
0.641808
0.6026
0.575965
0.552786
0.529204
0.503536
0.476043
0.448002
0.420061
0.392943
0.367683
0.345337
0.327139
0.314533
0.310163
0.311864
0.320202
0.337224
0.360555
0.388914
0.421163
0.456331
0.493382
0.532345
0.570902
0.611925
0.649362
0.688843
0.7228
0.756353
0.783471
0.809248
0.8282
0.839782
1.69005
1.6182
0.967092
0.875898
0.792323
0.737479
0.690667
0.651276
0.621003
0.594118
0.567662
0.540646
0.513038
0.485657
0.458943
0.43343
0.410026
0.389591
0.373122
0.361816
0.358247
0.359569
0.366401
0.381417
0.402327
0.428095
0.457795
0.49062
0.525406
0.562654
0.599173
0.639202
0.675267
0.714273
0.748076
0.781799
0.809379
0.835417
0.85506
0.870655
1.70636
1.63916
0.984129
0.897504
0.826902
0.779459
0.73158
0.692857
0.660702
0.632027
0.604438
0.577334
0.550372
0.524075
0.498749
0.474794
0.453024
0.434167
0.419052
0.40874
0.405835
0.406849
0.41245
0.425877
0.444804
0.46834
0.495719
0.526284
0.558622
0.593933
0.627775
0.666114
0.699938
0.737249
0.76959
0.801972
0.828359
0.852975
0.871097
0.894173
1.70609
1.66423
1.00997
0.927334
0.865831
0.822732
0.775494
0.738071
0.704405
0.674167
0.645253
0.617561
0.590578
0.564731
0.540211
0.517296
0.496683
0.478975
0.464846
0.455265
0.452919
0.453676
0.458249
0.470431
0.487818
0.509612
0.535188
0.564087
0.594574
0.628841
0.660917
0.698639
0.731602
0.768552
0.800913
0.833403
0.860048
0.884524
0.902571
0.930068
1.71719
1.66989
1.02866
0.950602
0.898355
0.858979
0.812298
0.776211
0.741475
0.710642
0.681452
0.654201
0.628064
0.603423
0.58029
0.558831
0.539621
0.523169
0.510035
0.501172
0.499395
0.499923
0.503519
0.514524
0.530401
0.550371
0.573894
0.600751
0.628672
0.66126
0.690674
0.726751
0.757785
0.793315
0.824655
0.856514
0.882323
0.905871
0.922109
0.958536
1.71975
1.68196
1.05354
0.979588
0.93491
0.897574
0.852309
0.818002
0.782747
0.751832
0.72233
0.695282
0.66937
0.645225
0.622616
0.601746
0.583104
0.567217
0.554565
0.546109
0.544802
0.545171
0.548042
0.558319
0.573318
0.59224
0.614583
0.640482
0.66681
0.698799
0.726538
0.761891
0.791918
0.826963
0.858179
0.89043
0.91639
0.939886
0.955432
0.997184
1.7265
1.6892
1.07652
1.00589
0.967698
0.931279
0.888002
0.855166
0.819428
0.788894
0.759024
0.73231
0.706667
0.683236
0.661371
0.641383
0.623678
0.608702
0.5968
0.588938
0.588204
0.588365
0.590322
0.599608
0.613392
0.630878
0.651571
0.676181
0.700482
0.731691
0.757493
0.792021
0.820858
0.855248
0.88558
0.917548
0.94265
0.96547
0.978897
1.02846
1.72813
1.70118
1.10297
1.03466
1.00132
0.96479
0.925694
0.893667
0.857761
0.827997
0.79731
0.771088
0.745523
0.722607
0.700976
0.681366
0.663959
0.649204
0.637404
0.629654
0.629282
0.629297
0.630708
0.639653
0.653045
0.669982
0.689828
0.713942
0.736717
0.767667
0.791906
0.825938
0.854122
0.888865
0.919334
0.952582
0.978263
1.0014
1.01353
1.06534
1.73182
1.70902
1.13218
1.06641
1.03736
0.998963
0.963004
0.928974
0.892974
0.864142
0.832276
0.806574
0.780469
0.757823
0.73618
0.716716
0.699438
0.684856
0.673201
0.665654
0.66573
0.665542
0.666227
0.674648
0.6875
0.703814
0.722752
0.746638
0.768005
0.799117
0.82233
0.856397
0.883832
0.918808
0.948722
0.982038
1.0077
1.03069
1.04248
1.09689
1.73183
1.71836
1.15662
1.09247
1.06819
1.02972
0.997528
0.961301
0.926975
0.898573
0.865788
0.840446
0.813615
0.791578
0.769799
0.750419
0.733087
0.718446
0.706649
0.699067
0.699534
0.699258
0.699468
0.707732
0.720469
0.736585
0.754855
0.778835
0.798743
0.829912
0.852123
0.886343
0.913205
0.9491
0.97897
1.01418
1.04001
1.063
1.07295
1.12554
1.73118
1.72044
1.18016
1.11885
1.09762
1.05873
1.02799
0.989018
0.956055
0.927542
0.893909
0.869901
0.842063
0.820354
0.797948
0.778484
0.761036
0.746317
0.734326
0.726593
0.727364
0.72692
0.726613
0.734742
0.74737
0.763306
0.780832
0.805258
0.823998
0.855732
0.877197
0.911887
0.937837
0.974369
1.00365
1.03901
1.06518
1.08789
1.0977
1.14731
1.7226
1.7102
1.18977
1.13246
1.11574
1.07954
1.05127
1.01091
0.97962
0.950154
0.91671
0.893294
0.864523
0.844292
0.822208
0.803263
0.785836
0.771022
0.758806
0.750988
0.752345
0.751913
0.751116
0.759336
0.772153
0.788161
0.804746
0.829351
0.846342
0.877936
0.898114
0.932703
0.957543
0.994362
1.0235
1.05871
1.0845
1.10532
1.11143
1.15565
1.69936
1.67163
1.18544
1.13229
1.12085
1.089
1.06268
1.02269
0.995291
0.962262
0.933281
0.910097
0.881833
0.863114
0.840518
0.821918
0.803756
0.787973
0.774505
0.765625
0.766735
0.766353
0.765887
0.775048
0.788754
0.80595
0.821995
0.847651
0.863225
0.895041
0.913719
0.947894
0.970792
1.00654
1.03443
1.0679
1.09294
1.11089
1.11496
1.1521
1.64406
1.74524
1.13927
1.14166
1.14478
1.12345
1.09948
1.06187
1.02993
0.991525
0.958493
0.927359
0.894561
0.868496
0.841133
0.817677
0.796531
0.778134
0.765513
0.755283
0.757246
0.757121
0.755502
0.766459
0.778482
0.799658
0.818982
0.84919
0.872385
0.908508
0.936451
0.97529
1.00714
1.04616
1.07982
1.11356
1.13846
1.15133
1.14839
1.12551
1.71701
2.41968
1.73428
1.64647
1.69334
1.70975
1.71619
1.71738
1.71883
1.7162
1.71719
1.71074
1.70829
1.70154
1.69712
1.68963
1.68578
1.67466
1.68104
1.66566
1.6849
1.68524
1.664
1.68296
1.66951
1.69133
1.68554
1.70255
1.70212
1.71406
1.71693
1.72448
1.72655
1.73055
1.72994
1.72938
1.72174
1.7
1.64475
1.71078
2.40639
2.41968
1.73428
1.64647
1.69334
1.70975
1.71619
1.71738
1.71883
1.7162
1.71719
1.71074
1.70829
1.70154
1.69712
1.68963
1.68578
1.67466
1.68104
1.66566
1.6849
1.68524
1.664
1.68296
1.66951
1.69133
1.68554
1.70255
1.70212
1.71406
1.71693
1.72448
1.72655
1.73055
1.72994
1.72938
1.72174
1.7
1.64475
1.71078
2.40639
1.74524
1.13927
1.14166
1.14478
1.12345
1.09948
1.06187
1.02993
0.991525
0.958493
0.927359
0.894561
0.868496
0.841133
0.817677
0.796531
0.778134
0.765513
0.755283
0.757246
0.757121
0.755502
0.766459
0.778482
0.799658
0.818982
0.84919
0.872385
0.908508
0.936451
0.97529
1.00714
1.04616
1.07982
1.11356
1.13846
1.15133
1.14839
1.12551
1.71701
1.67163
1.18544
1.13229
1.12085
1.089
1.06268
1.02269
0.995291
0.962262
0.933281
0.910097
0.881833
0.863114
0.840518
0.821918
0.803756
0.787973
0.774505
0.765625
0.766735
0.766353
0.765887
0.775048
0.788754
0.80595
0.821995
0.847651
0.863225
0.895041
0.913719
0.947894
0.970792
1.00654
1.03443
1.0679
1.09294
1.11089
1.11496
1.1521
1.64406
1.7102
1.18977
1.13246
1.11574
1.07954
1.05127
1.01091
0.97962
0.950154
0.91671
0.893294
0.864523
0.844292
0.822208
0.803263
0.785836
0.771022
0.758806
0.750988
0.752345
0.751913
0.751116
0.759336
0.772153
0.788161
0.804746
0.829351
0.846342
0.877936
0.898114
0.932703
0.957543
0.994362
1.0235
1.05871
1.0845
1.10532
1.11143
1.15565
1.69936
1.72044
1.18016
1.11885
1.09762
1.05873
1.02799
0.989018
0.956055
0.927542
0.893909
0.869901
0.842063
0.820354
0.797948
0.778484
0.761036
0.746317
0.734326
0.726593
0.727364
0.72692
0.726613
0.734742
0.74737
0.763306
0.780832
0.805258
0.823998
0.855732
0.877197
0.911887
0.937837
0.974369
1.00365
1.03901
1.06518
1.08789
1.0977
1.14731
1.7226
1.71836
1.15662
1.09247
1.06819
1.02972
0.997528
0.961301
0.926975
0.898573
0.865788
0.840446
0.813615
0.791578
0.769799
0.750419
0.733087
0.718446
0.706649
0.699067
0.699534
0.699258
0.699468
0.707732
0.720469
0.736585
0.754855
0.778835
0.798743
0.829912
0.852123
0.886343
0.913205
0.9491
0.97897
1.01418
1.04001
1.063
1.07295
1.12554
1.73118
1.70902
1.13218
1.06641
1.03736
0.998963
0.963004
0.928974
0.892974
0.864142
0.832276
0.806574
0.780469
0.757823
0.73618
0.716716
0.699438
0.684856
0.673201
0.665654
0.66573
0.665542
0.666227
0.674648
0.6875
0.703814
0.722752
0.746638
0.768005
0.799117
0.82233
0.856397
0.883832
0.918808
0.948722
0.982038
1.0077
1.03069
1.04248
1.09689
1.73183
1.70118
1.10297
1.03466
1.00132
0.96479
0.925694
0.893667
0.857761
0.827997
0.79731
0.771088
0.745523
0.722607
0.700976
0.681366
0.663959
0.649204
0.637404
0.629654
0.629282
0.629297
0.630708
0.639653
0.653045
0.669982
0.689828
0.713942
0.736717
0.767667
0.791906
0.825938
0.854122
0.888865
0.919334
0.952582
0.978263
1.0014
1.01353
1.06534
1.73182
1.6892
1.07652
1.00589
0.967698
0.931279
0.888002
0.855166
0.819428
0.788894
0.759024
0.73231
0.706667
0.683236
0.661371
0.641383
0.623678
0.608702
0.5968
0.588938
0.588204
0.588365
0.590322
0.599608
0.613392
0.630878
0.651571
0.676181
0.700482
0.731691
0.757493
0.792021
0.820858
0.855248
0.88558
0.917548
0.94265
0.96547
0.978897
1.02846
1.72813
1.68196
1.05354
0.979588
0.93491
0.897574
0.852309
0.818002
0.782747
0.751832
0.72233
0.695282
0.66937
0.645225
0.622616
0.601746
0.583104
0.567217
0.554565
0.546109
0.544802
0.545171
0.548042
0.558319
0.573318
0.59224
0.614583
0.640482
0.66681
0.698799
0.726538
0.761891
0.791918
0.826963
0.858179
0.89043
0.91639
0.939886
0.955432
0.997184
1.7265
1.66989
1.02866
0.950602
0.898355
0.858979
0.812298
0.776211
0.741475
0.710642
0.681452
0.654201
0.628064
0.603423
0.58029
0.558831
0.539621
0.523169
0.510035
0.501172
0.499395
0.499923
0.503519
0.514524
0.530401
0.550371
0.573894
0.600751
0.628672
0.66126
0.690674
0.726751
0.757785
0.793315
0.824655
0.856514
0.882323
0.905871
0.922109
0.958536
1.71975
1.66423
1.00997
0.927334
0.865831
0.822732
0.775494
0.738071
0.704405
0.674167
0.645253
0.617561
0.590578
0.564731
0.540211
0.517296
0.496683
0.478975
0.464846
0.455265
0.452919
0.453676
0.458249
0.470431
0.487818
0.509612
0.535188
0.564087
0.594574
0.628841
0.660917
0.698639
0.731602
0.768552
0.800913
0.833403
0.860048
0.884524
0.902571
0.930068
1.71719
1.63916
0.984129
0.897504
0.826902
0.779459
0.73158
0.692857
0.660702
0.632027
0.604438
0.577334
0.550372
0.524075
0.498749
0.474794
0.453024
0.434167
0.419052
0.40874
0.405835
0.406849
0.41245
0.425877
0.444804
0.46834
0.495719
0.526284
0.558622
0.593933
0.627775
0.666114
0.699938
0.737249
0.76959
0.801972
0.828359
0.852975
0.871097
0.894173
1.70609
1.6182
0.967092
0.875898
0.792323
0.737479
0.690667
0.651276
0.621003
0.594118
0.567662
0.540646
0.513038
0.485657
0.458943
0.43343
0.410026
0.389591
0.373122
0.361816
0.358247
0.359569
0.366401
0.381417
0.402327
0.428095
0.457795
0.49062
0.525406
0.562654
0.599173
0.639202
0.675267
0.714273
0.748076
0.781799
0.809379
0.835417
0.85506
0.870655
1.70636
1.59963
0.945999
0.851193
0.75244
0.687211
0.641808
0.6026
0.575965
0.552786
0.529204
0.503536
0.476043
0.448002
0.420061
0.392943
0.367683
0.345337
0.327139
0.314533
0.310163
0.311864
0.320202
0.337224
0.360555
0.388914
0.421163
0.456331
0.493382
0.532345
0.570902
0.611925
0.649362
0.688843
0.7228
0.756353
0.783471
0.809248
0.8282
0.839782
1.69005
1.60028
0.932285
0.833199
0.71331
0.634569
0.59127
0.552845
0.531748
0.513186
0.493165
0.4691
0.441647
0.412752
0.383335
0.354279
0.32672
0.301912
0.281392
0.266984
0.261571
0.263768
0.274058
0.29371
0.320098
0.35158
0.386772
0.42458
0.464074
0.505007
0.545797
0.588189
0.627489
0.667987
0.703022
0.737419
0.765466
0.792338
0.812259
0.820175
1.69618
1.58048
0.909186
0.809061
0.670276
0.576719
0.531836
0.498218
0.484855
0.473941
0.459162
0.437519
0.410374
0.380612
0.349585
0.318319
0.287997
0.260053
0.23638
0.219385
0.212515
0.215398
0.228357
0.251555
0.281804
0.316975
0.355446
0.396064
0.438004
0.480905
0.523708
0.567321
0.608226
0.649365
0.685092
0.719639
0.747842
0.774593
0.793601
0.797738
1.68083
1.54875
0.863381
0.763821
0.612343
0.512073
0.463262
0.442522
0.437177
0.437623
0.428979
0.410347
0.383576
0.35285
0.320089
0.286395
0.252879
0.221029
0.193052
0.172174
0.163078
0.167006
0.183878
0.211952
0.247004
0.28637
0.328317
0.371763
0.416044
0.46081
0.505402
0.550151
0.592535
0.634232
0.67069
0.705435
0.733944
0.760717
0.779265
0.782181
1.69037
1.40101
0.727032
0.649838
0.528887
0.433901
0.385313
0.384382
0.395046
0.406114
0.40488
0.389266
0.362737
0.330956
0.296476
0.260348
0.223445
0.187043
0.15334
0.126373
0.113393
0.119167
0.142298
0.177071
0.217761
0.261511
0.306812
0.352845
0.399179
0.445561
0.491632
0.537362
0.580971
0.623093
0.660202
0.695041
0.723749
0.750291
0.767756
0.765627
1.6697
0.762957
0.293747
0.381622
0.365135
0.321202
0.307687
0.331912
0.360779
0.383143
0.3882
0.375016
0.348432
0.315774
0.279982
0.241937
0.202158
0.161417
0.121154
0.0848711
0.0637135
0.0737094
0.107499
0.15048
0.196667
0.244137
0.29205
0.339988
0.387771
0.435268
0.482325
0.528713
0.573142
0.615533
0.65313
0.688039
0.716921
0.743402
0.759935
0.756915
1.66961
)
;

boundaryField
{
    inlet
    {
        type            calculated;
        value           uniform 0;
    }
    outlet
    {
        type            calculated;
        value           nonuniform List<scalar> 
165
(
0.762957
1.40101
1.54875
1.58048
1.60028
1.59963
1.6182
1.63916
1.66423
1.66989
1.68196
1.6892
1.70118
1.70902
1.71836
1.72044
1.7102
1.67163
1.74524
2.41968
2.41968
1.73428
1.64647
1.69334
1.70975
1.71619
1.71738
1.71883
1.7162
1.71719
1.71074
1.70829
1.70154
1.69712
1.68963
1.68578
1.67466
1.68104
1.66566
1.6849
1.68524
1.664
1.68296
1.66951
1.69133
1.68554
1.70255
1.70212
1.71406
1.71693
1.72448
1.72655
1.73055
1.72994
1.72938
1.72174
1.7
1.64475
1.71078
2.40639
1.66961
1.6697
1.69037
1.68083
1.69618
1.69005
1.70636
1.70609
1.71719
1.71975
1.7265
1.72813
1.73182
1.73183
1.73118
1.7226
1.69936
1.64406
1.71701
2.40639
1.6697
1.66868
1.67241
1.66868
1.6697
2.40639
1.71701
1.64406
1.69936
1.7226
1.73118
1.73183
1.73182
1.72813
1.7265
1.71975
1.71719
1.70609
1.70636
1.69005
1.69618
1.68083
1.69037
1.6697
1.66961
2.41968
1.73428
1.64647
1.69334
1.70975
1.71619
1.71738
1.71883
1.7162
1.71719
1.71074
1.70829
1.70154
1.69712
1.68963
1.68578
1.67466
1.68104
1.66566
1.6849
1.68524
1.664
1.68296
1.66951
1.69133
1.68554
1.70255
1.70212
1.71406
1.71693
1.72448
1.72655
1.73055
1.72994
1.72938
1.72174
1.7
1.64475
1.71078
2.40639
2.41968
1.74524
1.67163
1.7102
1.72044
1.71836
1.70902
1.70118
1.6892
1.68196
1.66989
1.66423
1.63916
1.6182
1.59963
1.60028
1.58048
1.54875
1.40101
0.762957
)
;
    }
    obstacle
    {
        type            calculated;
        value           nonuniform List<scalar> 
40
(
0.766415
0.102981
0.0479539
0.0370888
0.0264435
0.0153644
0.00581002
0.00252157
0.0103844
0.0167424
0.766415
0.102981
0.0479539
0.0370888
0.0264435
0.0153644
0.00581002
0.00252157
0.0103844
0.0167424
0.0244081
0.0409407
0.0689033
0.111919
0.183808
0.0244081
0.0409407
0.0689033
0.111919
0.183808
0.294235
0.300955
0.324735
0.350577
0.364741
0.294235
0.300955
0.324735
0.350577
0.364741
)
;
    }
    empty
    {
        type            empty;
    }
}


// ************************************************************************* //
