/*--------------------------------*- C++ -*----------------------------------*\
| =========                 |                                                 |
| \\      /  F ield         | OpenFOAM: The Open Source CFD Toolbox           |
|  \\    /   O peration     | Version:  v1912                                 |
|   \\  /    A nd           | Website:  www.openfoam.com                      |
|    \\/     M anipulation  |                                                 |
\*---------------------------------------------------------------------------*/
FoamFile
{
    version     2.0;
    format      ascii;
    class       volScalarField;
    location    "8.14";
    object      Ma;
}
// * * * * * * * * * * * * * * * * * * * * * * * * * * * * * * * * * * * * * //

dimensions      [0 0 0 0 0 0 0];


internalField   nonuniform List<scalar> 
1900
(
0.326518
0.0779713
0.107499
0.10515
0.106124
0.108602
0.112371
0.115349
0.115621
0.10353
0.326517
0.077971
0.107502
0.105153
0.106114
0.108535
0.112114
0.11511
0.117437
0.117563
0.326517
0.0779714
0.107502
0.105146
0.106098
0.108486
0.112075
0.115273
0.118728
0.125018
0.326517
0.077971
0.107502
0.105153
0.106114
0.108535
0.112114
0.11511
0.117437
0.117563
0.326518
0.0779713
0.107499
0.10515
0.106124
0.108602
0.112371
0.115349
0.115621
0.10353
0.111254
0.152302
0.205723
0.291367
0.438865
0.132761
0.157697
0.188161
0.253253
0.397648
0.140989
0.164126
0.194871
0.257303
0.394681
0.132761
0.157697
0.188161
0.253253
0.397648
0.111254
0.152302
0.205723
0.291367
0.438865
0.954577
1.34567
1.61008
1.78557
1.95858
0.910525
1.34499
1.63195
1.80616
1.97951
0.905777
1.3541
1.63272
1.8009
1.9762
0.910525
1.34499
1.63195
1.80616
1.97951
0.954577
1.34567
1.61008
1.78557
1.95858
2.06344
2.1618
2.20304
2.23257
2.26975
2.30791
2.35684
2.45185
2.51447
2.4852
2.23201
1.75773
1.62369
1.58237
1.54071
1.45435
1.35289
1.26115
1.17504
1.08679
0.989932
0.873326
0.69523
0.444583
0.295118
0.274986
0.279584
0.287352
0.293413
0.29357
0.134488
0.165554
0.299697
0.342762
0.365864
0.387055
0.405389
0.420253
0.435738
0.457445
2.03289
2.03084
2.04855
2.09148
2.14365
2.20361
2.26998
2.383
2.4545
2.42994
2.17348
1.73979
1.60986
1.5843
1.55035
1.46849
1.36224
1.26269
1.18666
1.10502
1.00393
0.881868
0.70102
0.447375
0.295255
0.274768
0.279402
0.287214
0.29329
0.293479
0.134003
0.1645
0.298608
0.341359
0.364141
0.385205
0.403957
0.42032
0.437435
0.459748
2.02957
2.01655
2.00111
2.05041
2.09106
2.15734
2.23188
2.35287
2.42717
2.40443
2.15239
1.73003
1.60091
1.5832
1.54838
1.46516
1.36085
1.26979
1.19507
1.11609
1.01589
0.884332
0.696932
0.445141
0.295085
0.274661
0.279278
0.28707
0.293125
0.293314
0.133655
0.164387
0.298434
0.340954
0.363469
0.384267
0.40276
0.418987
0.436202
0.458815
2.03289
2.03084
2.04855
2.09148
2.14365
2.20361
2.26998
2.383
2.4545
2.42994
2.17348
1.73979
1.60986
1.5843
1.55035
1.46849
1.36224
1.26269
1.18666
1.10502
1.00393
0.881868
0.70102
0.447375
0.295255
0.274768
0.279402
0.287214
0.29329
0.293479
0.134003
0.1645
0.298608
0.341359
0.364141
0.385205
0.403957
0.42032
0.437435
0.459748
2.06344
2.1618
2.20304
2.23257
2.26975
2.30791
2.35684
2.45185
2.51447
2.4852
2.23201
1.75773
1.62369
1.58237
1.54071
1.45435
1.35289
1.26115
1.17504
1.08679
0.989932
0.873326
0.69523
0.444583
0.295118
0.274986
0.279584
0.287352
0.293413
0.29357
0.134488
0.165554
0.299697
0.342762
0.365864
0.387055
0.405389
0.420253
0.435738
0.457445
2.45955
2.48865
2.50872
2.51136
2.51727
2.5223
2.53675
2.58575
2.61177
2.56636
2.27171
1.76777
1.63021
1.5782
1.53868
1.4705
1.37002
1.2723
1.18581
1.0992
1.00282
0.881342
0.69386
0.43901
0.294746
0.276358
0.281013
0.288788
0.294983
0.295178
0.13843
0.167586
0.300791
0.343749
0.366706
0.387688
0.405587
0.418661
0.431374
0.451235
2.76416
2.77615
2.78417
2.77633
2.76326
2.7457
2.7357
2.74466
2.70862
2.62103
2.23639
1.77049
1.64051
1.56724
1.50659
1.41901
1.32272
1.24087
1.16602
1.0816
0.983448
0.859829
0.670767
0.423993
0.295386
0.280483
0.285303
0.293149
0.29974
0.300081
0.149365
0.173129
0.30359
0.346187
0.368803
0.389399
0.407274
0.419634
0.430461
0.448966
2.77828
2.75475
2.7413
2.73917
2.74087
2.74962
2.75457
2.7433
2.68786
2.57429
2.15644
1.8039
1.6511
1.53666
1.44029
1.34419
1.25994
1.19515
1.13025
1.05098
0.955205
0.83078
0.63807
0.403935
0.297385
0.286899
0.291939
0.29975
0.306907
0.307459
0.164655
0.18117
0.307491
0.349584
0.371877
0.392351
0.410512
0.422904
0.432596
0.449403
2.70686
2.70882
2.71059
2.71495
2.72568
2.75307
2.7756
2.70113
2.57282
2.41644
2.05381
1.79347
1.62709
1.4852
1.36617
1.2732
1.20567
1.1531
1.09226
1.01492
0.920961
0.794291
0.59708
0.38285
0.301579
0.295331
0.300468
0.308134
0.315888
0.316602
0.182213
0.192761
0.314351
0.356174
0.378345
0.398823
0.416841
0.428965
0.438097
0.453135
2.61988
2.62415
2.63236
2.64162
2.64955
2.67219
2.67522
2.55667
2.44609
2.22283
1.94079
1.73557
1.54604
1.39241
1.28506
1.21079
1.15963
1.11088
1.04918
0.972727
0.880147
0.749183
0.548603
0.363718
0.308163
0.305602
0.310859
0.318472
0.327005
0.32803
0.20235
0.204234
0.319485
0.360227
0.381667
0.401649
0.419004
0.43043
0.439326
0.452917
2.50659
2.50832
2.51596
2.52305
2.52303
2.53246
2.48746
2.38124
2.25331
2.04699
1.80696
1.59844
1.4165
1.29371
1.21438
1.16043
1.11789
1.06735
1.00352
0.927941
0.83491
0.69623
0.496912
0.351009
0.31713
0.316873
0.321926
0.329327
0.338439
0.339511
0.22176
0.220788
0.330735
0.370956
0.392176
0.411862
0.428737
0.439402
0.448101
0.460323
2.35485
2.35578
2.36048
2.35861
2.34109
2.31222
2.25007
2.15885
2.00741
1.81222
1.60004
1.40531
1.27535
1.20481
1.15504
1.11926
1.07548
1.01981
0.954676
0.880234
0.784133
0.634906
0.447922
0.346825
0.329291
0.330867
0.336128
0.343661
0.353669
0.355202
0.24558
0.234755
0.337555
0.377013
0.398049
0.41717
0.433596
0.443459
0.452091
0.463158
2.14625
2.14539
2.14301
2.12706
2.09624
2.05152
1.98138
1.87374
1.71794
1.53668
1.35009
1.21956
1.17531
1.14246
1.11974
1.08001
1.02849
0.970976
0.907139
0.832575
0.728641
0.569569
0.412407
0.351652
0.343928
0.345952
0.351192
0.358644
0.369208
0.37085
0.268982
0.254734
0.350823
0.389124
0.410023
0.428256
0.443989
0.452499
0.460506
0.470233
1.86356
1.86374
1.86212
1.84791
1.81432
1.76023
1.68081
1.56326
1.41378
1.25563
1.14626
1.13842
1.12844
1.11063
1.07729
1.03243
0.981835
0.924273
0.860361
0.782424
0.666291
0.502842
0.388012
0.361796
0.358833
0.360757
0.366162
0.373445
0.384658
0.386322
0.290052
0.267378
0.355594
0.391601
0.412337
0.431761
0.449366
0.458161
0.465984
0.474641
1.52518
1.53927
1.54583
1.53403
1.50401
1.4463
1.35413
1.24309
1.1422
1.09027
1.10621
1.11128
1.0991
1.0716
1.03472
0.98893
0.932989
0.870689
0.80094
0.708032
0.567272
0.433846
0.368515
0.350816
0.347561
0.347748
0.352575
0.359391
0.37153
0.371938
0.26697
0.236839
0.329188
0.368665
0.394402
0.421716
0.443652
0.460653
0.472887
0.482048
1.17784
1.19444
1.19618
1.18258
1.1519
1.1053
1.06522
1.0546
1.06799
1.09118
1.09665
1.0874
1.06115
1.02411
0.973946
0.912681
0.843185
0.764593
0.672389
0.554662
0.403664
0.28785
0.249515
0.240149
0.238199
0.24112
0.249942
0.262021
0.279918
0.276532
0.12836
0.135787
0.245776
0.28601
0.309222
0.357556
0.40032
0.438709
0.465009
0.482444
0.856727
0.867961
0.876154
0.886299
0.911131
0.954518
1.00664
1.05013
1.07424
1.07886
1.06555
1.03383
0.985393
0.916186
0.824403
0.71695
0.610536
0.508604
0.398643
0.277902
0.208979
0.205364
0.221111
0.238957
0.256134
0.273324
0.288716
0.307455
0.32447
0.321047
0.227194
0.204097
0.233204
0.23799
0.226728
0.262594
0.309414
0.376325
0.429494
0.476032
0.718449
0.746428
0.782441
0.833253
0.889787
0.938949
0.979386
1.01356
1.01719
0.984707
0.916663
0.820741
0.710512
0.598428
0.499196
0.412342
0.344373
0.282074
0.229326
0.217165
0.24156
0.266313
0.287543
0.306859
0.323642
0.34014
0.352723
0.369623
0.38266
0.378276
0.297962
0.236869
0.222468
0.203802
0.165208
0.18829
0.220021
0.293289
0.363092
0.434893
0.700467
0.694484
0.705827
0.716467
0.720657
0.717603
0.713173
0.702663
0.673243
0.62304
0.553863
0.480691
0.406888
0.33676
0.279959
0.234563
0.203748
0.18677
0.203705
0.242023
0.271923
0.294972
0.316015
0.33466
0.350077
0.366284
0.377802
0.394104
0.405964
0.402694
0.333418
0.249144
0.207162
0.176482
0.121349
0.127788
0.153597
0.234748
0.306648
0.369725
0.651153
0.605202
0.57156
0.535583
0.501441
0.470097
0.450825
0.428918
0.412935
0.39584
0.357988
0.299169
0.237822
0.180884
0.144392
0.124251
0.129526
0.178208
0.230968
0.266016
0.289967
0.312229
0.332921
0.351269
0.365818
0.382262
0.393456
0.40961
0.421687
0.42081
0.363026
0.259046
0.18506
0.132941
0.0637213
0.0597634
0.108286
0.195246
0.268012
0.314098
0.640897
0.571879
0.51123
0.463603
0.425165
0.393316
0.364439
0.334374
0.304751
0.266337
0.218624
0.164784
0.111181
0.0636326
0.0524281
0.10475
0.175239
0.230286
0.265752
0.286743
0.306979
0.32792
0.348012
0.365923
0.379384
0.395496
0.405964
0.42134
0.433374
0.435884
0.398732
0.303059
0.21422
0.149391
0.0837162
0.022565
0.102188
0.202346
0.288335
0.326398
0.634333
0.559512
0.498833
0.449254
0.401151
0.348006
0.301384
0.257492
0.216561
0.172147
0.123886
0.0777392
0.0382318
0.0586702
0.121845
0.189344
0.239223
0.269394
0.2887
0.305715
0.323836
0.343196
0.362416
0.379725
0.391884
0.407324
0.416943
0.431423
0.443424
0.449291
0.426515
0.350682
0.251667
0.175444
0.127927
0.114652
0.155259
0.234403
0.319837
0.342109
0.665697
0.618355
0.552481
0.48674
0.417733
0.346592
0.276425
0.207236
0.138454
0.0971914
0.090466
0.100301
0.126524
0.172427
0.217741
0.251881
0.275659
0.291737
0.305911
0.320016
0.33624
0.354088
0.372326
0.388913
0.399872
0.414442
0.423267
0.43652
0.447338
0.458175
0.44942
0.405744
0.325468
0.255067
0.209835
0.213323
0.236524
0.327349
0.436165
0.441186
0.795692
0.72952
0.62744
0.541208
0.458971
0.375897
0.290322
0.207903
0.152975
0.159623
0.175673
0.192958
0.212876
0.239999
0.261526
0.277413
0.288761
0.300818
0.315375
0.331593
0.350377
0.368706
0.384852
0.398929
0.407901
0.421627
0.430216
0.442759
0.452842
0.46542
0.466128
0.44767
0.391149
0.326533
0.280694
0.292665
0.315139
0.430867
0.552685
0.625023
1.78996
0.917108
0.62898
0.571822
0.503894
0.417141
0.31557
0.221072
0.189891
0.214182
0.238544
0.263282
0.281379
0.294185
0.300699
0.305627
0.314067
0.326838
0.342151
0.358419
0.376239
0.391574
0.402947
0.412812
0.418984
0.430884
0.438204
0.449333
0.458233
0.469836
0.475801
0.477518
0.452851
0.392524
0.328226
0.330918
0.337279
0.436041
0.615826
1.29986
1.78996
0.917108
0.62898
0.571822
0.503894
0.417141
0.31557
0.221072
0.189891
0.214182
0.238544
0.263282
0.281379
0.294185
0.300699
0.305627
0.314067
0.326838
0.342151
0.358419
0.376239
0.391574
0.402947
0.412812
0.418984
0.430884
0.438204
0.449333
0.458233
0.469836
0.475801
0.477518
0.452851
0.392524
0.328226
0.330918
0.337279
0.436041
0.615826
1.29986
0.795692
0.72952
0.62744
0.541208
0.458971
0.375897
0.290322
0.207903
0.152975
0.159623
0.175673
0.192958
0.212876
0.239999
0.261526
0.277413
0.288761
0.300818
0.315375
0.331593
0.350377
0.368706
0.384852
0.398929
0.407901
0.421627
0.430216
0.442759
0.452842
0.46542
0.466128
0.44767
0.391149
0.326533
0.280694
0.292665
0.315139
0.430867
0.552685
0.625023
0.665697
0.618355
0.552481
0.48674
0.417733
0.346592
0.276425
0.207236
0.138454
0.0971914
0.090466
0.100301
0.126524
0.172427
0.217741
0.251881
0.275659
0.291737
0.305911
0.320016
0.33624
0.354088
0.372326
0.388913
0.399872
0.414442
0.423267
0.43652
0.447338
0.458175
0.44942
0.405744
0.325468
0.255067
0.209835
0.213323
0.236524
0.327349
0.436165
0.441186
0.634333
0.559512
0.498833
0.449254
0.401151
0.348006
0.301384
0.257492
0.216561
0.172147
0.123886
0.0777392
0.0382318
0.0586702
0.121845
0.189344
0.239223
0.269394
0.2887
0.305715
0.323836
0.343196
0.362416
0.379725
0.391884
0.407324
0.416943
0.431423
0.443424
0.449291
0.426515
0.350682
0.251667
0.175444
0.127927
0.114652
0.155259
0.234403
0.319837
0.342109
0.640897
0.571879
0.51123
0.463603
0.425165
0.393316
0.364439
0.334374
0.304751
0.266337
0.218624
0.164784
0.111181
0.0636326
0.0524281
0.10475
0.175239
0.230286
0.265752
0.286743
0.306979
0.32792
0.348012
0.365923
0.379384
0.395496
0.405964
0.42134
0.433374
0.435884
0.398732
0.303059
0.21422
0.149391
0.0837162
0.022565
0.102188
0.202346
0.288335
0.326398
0.651153
0.605202
0.57156
0.535583
0.501441
0.470097
0.450825
0.428918
0.412935
0.39584
0.357988
0.299169
0.237822
0.180884
0.144392
0.124251
0.129526
0.178208
0.230968
0.266016
0.289967
0.312229
0.332921
0.351269
0.365818
0.382262
0.393456
0.40961
0.421687
0.42081
0.363026
0.259046
0.18506
0.132941
0.0637213
0.0597634
0.108286
0.195246
0.268012
0.314098
0.700467
0.694484
0.705827
0.716467
0.720657
0.717603
0.713173
0.702663
0.673243
0.62304
0.553863
0.480691
0.406888
0.33676
0.279959
0.234563
0.203748
0.18677
0.203705
0.242023
0.271923
0.294972
0.316015
0.33466
0.350077
0.366284
0.377802
0.394104
0.405964
0.402694
0.333418
0.249144
0.207162
0.176482
0.121349
0.127788
0.153597
0.234748
0.306648
0.369725
0.718449
0.746428
0.782441
0.833253
0.889787
0.938949
0.979386
1.01356
1.01719
0.984707
0.916663
0.820741
0.710512
0.598428
0.499196
0.412342
0.344373
0.282074
0.229326
0.217165
0.24156
0.266313
0.287543
0.306859
0.323642
0.34014
0.352723
0.369623
0.38266
0.378276
0.297962
0.236869
0.222468
0.203802
0.165208
0.18829
0.220021
0.293289
0.363092
0.434893
0.856727
0.867961
0.876154
0.886299
0.911131
0.954518
1.00664
1.05013
1.07424
1.07886
1.06555
1.03383
0.985393
0.916186
0.824403
0.71695
0.610536
0.508604
0.398643
0.277902
0.208979
0.205364
0.221111
0.238957
0.256134
0.273324
0.288716
0.307455
0.32447
0.321047
0.227194
0.204097
0.233204
0.23799
0.226728
0.262594
0.309414
0.376325
0.429494
0.476032
1.17784
1.19444
1.19618
1.18258
1.1519
1.1053
1.06522
1.0546
1.06799
1.09118
1.09665
1.0874
1.06115
1.02411
0.973946
0.912681
0.843185
0.764593
0.672389
0.554662
0.403664
0.28785
0.249515
0.240149
0.238199
0.24112
0.249942
0.262021
0.279918
0.276532
0.12836
0.135787
0.245776
0.28601
0.309222
0.357556
0.40032
0.438709
0.465009
0.482444
1.52518
1.53927
1.54583
1.53403
1.50401
1.4463
1.35413
1.24309
1.1422
1.09027
1.10621
1.11128
1.0991
1.0716
1.03472
0.98893
0.932989
0.870689
0.80094
0.708032
0.567272
0.433846
0.368515
0.350816
0.347561
0.347748
0.352575
0.359391
0.37153
0.371938
0.26697
0.236839
0.329188
0.368665
0.394402
0.421716
0.443652
0.460653
0.472887
0.482048
1.86356
1.86374
1.86212
1.84791
1.81432
1.76023
1.68081
1.56326
1.41378
1.25563
1.14626
1.13842
1.12844
1.11063
1.07729
1.03243
0.981835
0.924273
0.860361
0.782424
0.666291
0.502842
0.388012
0.361796
0.358833
0.360757
0.366162
0.373445
0.384658
0.386322
0.290052
0.267378
0.355594
0.391601
0.412337
0.431761
0.449366
0.458161
0.465984
0.474641
2.14625
2.14539
2.14301
2.12706
2.09624
2.05152
1.98138
1.87374
1.71794
1.53668
1.35009
1.21956
1.17531
1.14246
1.11974
1.08001
1.02849
0.970976
0.907139
0.832575
0.728641
0.569569
0.412407
0.351652
0.343928
0.345952
0.351192
0.358644
0.369208
0.37085
0.268982
0.254734
0.350823
0.389124
0.410023
0.428256
0.443989
0.452499
0.460506
0.470233
2.35485
2.35578
2.36048
2.35861
2.34109
2.31222
2.25007
2.15885
2.00741
1.81222
1.60004
1.40531
1.27535
1.20481
1.15504
1.11926
1.07548
1.01981
0.954676
0.880234
0.784133
0.634906
0.447922
0.346825
0.329291
0.330867
0.336128
0.343661
0.353669
0.355202
0.24558
0.234755
0.337555
0.377013
0.398049
0.41717
0.433596
0.443459
0.452091
0.463158
2.50659
2.50832
2.51596
2.52305
2.52303
2.53246
2.48746
2.38124
2.25331
2.04699
1.80696
1.59844
1.4165
1.29371
1.21438
1.16043
1.11789
1.06735
1.00352
0.927941
0.83491
0.69623
0.496912
0.351009
0.31713
0.316873
0.321926
0.329327
0.338439
0.339511
0.22176
0.220788
0.330735
0.370956
0.392176
0.411862
0.428737
0.439402
0.448101
0.460323
2.61988
2.62415
2.63236
2.64162
2.64955
2.67219
2.67522
2.55667
2.44609
2.22283
1.94079
1.73557
1.54604
1.39241
1.28506
1.21079
1.15963
1.11088
1.04918
0.972727
0.880147
0.749183
0.548603
0.363718
0.308163
0.305602
0.310859
0.318472
0.327005
0.32803
0.20235
0.204234
0.319485
0.360227
0.381667
0.401649
0.419004
0.43043
0.439326
0.452917
2.70686
2.70882
2.71059
2.71495
2.72568
2.75307
2.7756
2.70113
2.57282
2.41644
2.05381
1.79347
1.62709
1.4852
1.36617
1.2732
1.20567
1.1531
1.09226
1.01492
0.920961
0.794291
0.59708
0.38285
0.301579
0.295331
0.300468
0.308134
0.315888
0.316602
0.182213
0.192761
0.314351
0.356174
0.378345
0.398823
0.416841
0.428965
0.438097
0.453135
2.77828
2.75475
2.7413
2.73917
2.74087
2.74962
2.75457
2.7433
2.68786
2.57429
2.15644
1.8039
1.6511
1.53666
1.44029
1.34419
1.25994
1.19515
1.13025
1.05098
0.955205
0.83078
0.63807
0.403935
0.297385
0.286899
0.291939
0.29975
0.306907
0.307459
0.164655
0.18117
0.307491
0.349584
0.371877
0.392351
0.410512
0.422904
0.432596
0.449403
2.76416
2.77615
2.78417
2.77633
2.76326
2.7457
2.7357
2.74466
2.70862
2.62103
2.23639
1.77049
1.64051
1.56724
1.50659
1.41901
1.32272
1.24087
1.16602
1.0816
0.983448
0.859829
0.670767
0.423993
0.295386
0.280483
0.285303
0.293149
0.29974
0.300081
0.149365
0.173129
0.30359
0.346187
0.368803
0.389399
0.407274
0.419634
0.430461
0.448966
2.45955
2.48865
2.50872
2.51136
2.51727
2.5223
2.53675
2.58575
2.61177
2.56636
2.27171
1.76777
1.63021
1.5782
1.53868
1.4705
1.37002
1.2723
1.18581
1.0992
1.00282
0.881342
0.69386
0.43901
0.294746
0.276358
0.281013
0.288788
0.294983
0.295178
0.13843
0.167586
0.300791
0.343749
0.366706
0.387688
0.405587
0.418661
0.431374
0.451235
)
;

boundaryField
{
    inlet
    {
        type            calculated;
        value           uniform 0;
    }
    outlet
    {
        type            calculated;
        value           nonuniform List<scalar> 
165
(
2.45955
2.76416
2.77828
2.70686
2.61988
2.50659
2.35485
2.14625
1.86356
1.52518
1.17784
0.856727
0.718449
0.700467
0.651153
0.640897
0.634333
0.665697
0.795692
1.78996
1.78996
0.917108
0.62898
0.571822
0.503894
0.417141
0.31557
0.221072
0.189891
0.214182
0.238544
0.263282
0.281379
0.294185
0.300699
0.305627
0.314067
0.326838
0.342151
0.358419
0.376239
0.391574
0.402947
0.412812
0.418984
0.430884
0.438204
0.449333
0.458233
0.469836
0.475801
0.477518
0.452851
0.392524
0.328226
0.330918
0.337279
0.436041
0.615826
1.29986
0.451235
0.448966
0.449403
0.453135
0.452917
0.460323
0.463158
0.470233
0.474641
0.482048
0.482444
0.476032
0.434893
0.369725
0.314098
0.326398
0.342109
0.441186
0.625023
1.29986
0.457445
0.459748
0.458815
0.459748
0.457445
1.29986
0.625023
0.441186
0.342109
0.326398
0.314098
0.369725
0.434893
0.476032
0.482444
0.482048
0.474641
0.470233
0.463158
0.460323
0.452917
0.453135
0.449403
0.448966
0.451235
1.78996
0.917108
0.62898
0.571822
0.503894
0.417141
0.31557
0.221072
0.189891
0.214182
0.238544
0.263282
0.281379
0.294185
0.300699
0.305627
0.314067
0.326838
0.342151
0.358419
0.376239
0.391574
0.402947
0.412812
0.418984
0.430884
0.438204
0.449333
0.458233
0.469836
0.475801
0.477518
0.452851
0.392524
0.328226
0.330918
0.337279
0.436041
0.615826
1.29986
1.78996
0.795692
0.665697
0.634333
0.640897
0.651153
0.700467
0.718449
0.856727
1.17784
1.52518
1.86356
2.14625
2.35485
2.50659
2.61988
2.70686
2.77828
2.76416
2.45955
)
;
    }
    obstacle
    {
        type            calculated;
        value           nonuniform List<scalar> 
40
(
0.326518
0.0779713
0.107499
0.10515
0.106124
0.108602
0.112371
0.115349
0.115569
0.102823
0.326518
0.0779713
0.107499
0.10515
0.106124
0.108602
0.112371
0.115349
0.115569
0.102823
0.108638
0.148593
0.202089
0.287786
0.431947
0.108638
0.148593
0.202089
0.287786
0.431947
0.944139
1.34293
1.60848
1.78415
1.95725
0.944139
1.34293
1.60848
1.78415
1.95725
)
;
    }
    empty
    {
        type            empty;
    }
}


// ************************************************************************* //
