/*--------------------------------*- C++ -*----------------------------------*\
| =========                 |                                                 |
| \\      /  F ield         | OpenFOAM: The Open Source CFD Toolbox           |
|  \\    /   O peration     | Version:  v1912                                 |
|   \\  /    A nd           | Website:  www.openfoam.com                      |
|    \\/     M anipulation  |                                                 |
\*---------------------------------------------------------------------------*/
FoamFile
{
    version     2.0;
    format      ascii;
    class       volScalarField;
    location    "8.14";
    object      rho;
}
// * * * * * * * * * * * * * * * * * * * * * * * * * * * * * * * * * * * * * //

dimensions      [1 -3 0 0 0 0 0];


internalField   nonuniform List<scalar> 
1900
(
17526.5
12116.3
12459
12684
12691.9
12668
12594.8
12491.4
12398.2
12349.1
17526.5
12116.3
12458.9
12683.8
12691.7
12668.2
12596.6
12491.1
12404.6
12339.5
17526.5
12116.3
12458.9
12683.7
12691.7
12668.4
12596.3
12486.9
12395.1
12323.5
17526.5
12116.3
12458.9
12683.8
12691.7
12668.2
12596.6
12491.1
12404.6
12339.5
17526.5
12116.3
12459
12684
12691.9
12668
12594.8
12491.4
12398.2
12349.1
12475.7
12274.9
12122.8
11761.5
11602.5
12295.5
12156.3
12025.8
11681.2
11191.3
12259.5
12133.5
12021.9
11723.6
11262.2
12295.5
12156.3
12025.8
11681.2
11191.3
12475.7
12274.9
12122.8
11761.5
11602.5
6125.67
4162.69
3222.68
2707.35
2177.27
6762.15
4487.28
3405.33
2851.15
2280.88
6951.56
4445.68
3333.47
2792.96
2205.89
6762.15
4487.28
3405.33
2851.15
2280.88
6125.67
4162.69
3222.68
2707.35
2177.27
2425.32
2574.69
2559.93
2519.96
2440.93
2342.97
2225.12
2023.95
1845.31
1863.68
2218.7
3034.97
3160.66
3089.75
2967.06
2923.42
2911.68
2914.92
2881.85
2724.6
2455.95
2111.4
1673.61
1239.14
1037.45
994.337
977.628
961.596
950.003
958.486
1116.33
1523.73
1817.62
1967.58
2079.78
2177.08
2267.02
2382.86
2526.75
2657.36
2196.31
2308.59
2409.05
2384.33
2308.52
2201.33
2090.29
1905.47
1765.03
1784.63
2145.51
2948.71
3096.58
3041.1
2943.31
2916.68
2915.98
2927.59
2885.61
2725.26
2456.32
2116.39
1679.97
1241.93
1037.79
994.279
977.593
961.55
949.941
958.404
1116.27
1523.67
1817.43
1967.34
2079.55
2177.01
2267.17
2383.09
2527.29
2658.12
2147.26
2203.75
2319.13
2327.9
2285.87
2186.37
2072.76
1883.4
1752.58
1774.52
2115.44
2913.73
3076.33
3025.51
2938.67
2913.48
2912.73
2940.12
2927.28
2765.6
2476.82
2120.24
1679.33
1241.41
1037.78
994.262
977.583
961.537
949.919
958.375
1116.27
1523.67
1817.34
1967.23
2079.45
2176.99
2267.26
2383.13
2527.22
2657.95
2196.31
2308.59
2409.05
2384.33
2308.52
2201.33
2090.29
1905.47
1765.03
1784.63
2145.51
2948.71
3096.58
3041.1
2943.31
2916.68
2915.98
2927.59
2885.61
2725.26
2456.32
2116.39
1679.97
1241.93
1037.79
994.279
977.593
961.55
949.941
958.404
1116.27
1523.67
1817.43
1967.34
2079.55
2177.01
2267.17
2383.09
2527.29
2658.12
2425.32
2574.69
2559.93
2519.96
2440.93
2342.97
2225.12
2023.95
1845.31
1863.68
2218.7
3034.97
3160.66
3089.75
2967.06
2923.42
2911.68
2914.92
2881.85
2724.6
2455.95
2111.4
1673.61
1239.14
1037.45
994.337
977.628
961.596
950.003
958.486
1116.33
1523.73
1817.62
1967.58
2079.78
2177.08
2267.02
2382.86
2526.75
2657.36
3325.48
3086.44
2910.91
2790.47
2662.6
2560.2
2440.09
2244.41
2041.76
2051.22
2454.26
3213.37
3298.66
3196.3
3052.26
2977.6
2943.84
2919.72
2864.84
2707.61
2447.52
2105.49
1663.5
1230.5
1035.9
994.501
977.805
961.835
950.295
958.89
1116.41
1523.84
1818.25
1968.36
2080.42
2177.17
2266.43
2381.98
2525.47
2656.35
3889.53
3547.99
3250.2
3022.55
2836.01
2705.8
2568.14
2394.64
2257.13
2295.89
2812.92
3368.89
3389.88
3190.68
2989.7
2926.3
2897.48
2875.63
2811.94
2642.67
2381.55
2048.42
1617.23
1207.84
1032.76
994.887
978.219
962.436
950.987
959.889
1116.55
1524.01
1819.66
1970.37
2082.47
2178.52
2266.21
2380.28
2522.96
2654.36
3930.49
3779.08
3598.19
3390.14
3178.67
2963.95
2757.03
2586.87
2450.53
2520.22
3075.8
3435.37
3396.89
3148.85
2953.79
2893.95
2852.83
2822.89
2745.07
2566.74
2307.09
1975.57
1552.59
1177.08
1028.88
995.619
978.97
963.374
952.054
961.43
1116.86
1524.04
1821.25
1972.9
2085.35
2180.8
2267.02
2379.24
2521.47
2653.52
3936.86
3716.44
3516.48
3313.93
3110.9
2868.96
2653.52
2593.62
2577.31
2727.25
3156.92
3354.18
3294.08
3045.61
2913.22
2852.4
2803.23
2762.73
2657.84
2464.43
2207.95
1882.61
1474.44
1143.48
1025.39
996.78
980.141
964.748
953.624
963.605
1117.91
1525.02
1823.99
1976.57
2089.51
2184.06
2269.02
2379.03
2520.72
2653.12
3928.21
3730.16
3523.58
3322.08
3124.94
2868.67
2702.25
2698
2772.29
2992.13
3233.66
3280.63
3110.01
2901.79
2845.88
2784.34
2742.28
2679.98
2545.22
2343.6
2094.75
1775.45
1387.96
1111.42
1023.14
998.491
981.845
966.662
955.776
966.45
1119.11
1525.48
1826.2
1979.71
2093.3
2186.95
2270.81
2378.22
2519.21
2652.17
3884.99
3701.46
3500.4
3295.77
3103.37
2914.18
2830.68
2817.16
2851.05
2976.3
3102.82
3031.68
2832.32
2792.26
2750.48
2699.09
2659.14
2570.21
2415.44
2215.47
1974.58
1657.96
1300.34
1085.48
1022.76
1000.77
984.117
969.195
958.639
970.063
1121.9
1528.04
1829.81
1983.51
2097.61
2190.3
2273.15
2378.02
2517.98
2651.43
3789.83
3607.34
3412.53
3231.91
3084.07
2953.85
2883.91
2850.59
2842.42
2877.33
2851.28
2703.76
2668.16
2658.16
2622.59
2609.16
2556.89
2441.28
2277.79
2085.13
1847.77
1532.44
1219.51
1066.69
1022.74
1002.26
985.569
970.964
960.79
972.939
1122.26
1526.33
1829.46
1983.55
2098.5
2191.33
2274.09
2377.2
2516.29
2650.2
3620.75
3448.93
3276.19
3125.93
2993.12
2873.57
2791.99
2732.42
2706.98
2677.03
2560.16
2493.39
2517.5
2530.18
2539.33
2511.69
2431.05
2299.92
2139.24
1952.59
1711.05
1404.33
1153.98
1054.61
1021.79
1001.84
985.178
971.033
961.414
974.298
1121.87
1524.01
1828.59
1983.5
2098.73
2191.47
2274.13
2376.51
2515.02
2649.29
3381.02
3228.85
3067.38
2931.02
2825.61
2742.03
2661.13
2579.47
2510.18
2406.56
2323.63
2373.81
2438.3
2451.85
2446.72
2394.5
2288.74
2152
1997.9
1817.21
1572.68
1291.46
1114.09
1051.98
1026.29
1007.63
991.759
978.761
970.008
984.084
1130.91
1538.32
1852.1
2010.44
2124.84
2209.19
2281.87
2378.01
2514.21
2647.94
3121.06
2971.86
2837.35
2731.5
2638.76
2544.62
2433.3
2339.6
2271.05
2221.82
2270.51
2342
2355.36
2362.92
2331.35
2253.32
2147.44
2027.7
1890.01
1707.45
1466.25
1231.37
1118.13
1080.01
1058.29
1041.26
1027.31
1016.55
1009.31
1026.26
1183.13
1619.07
1950.79
2104.31
2202.09
2269.53
2327.96
2401.76
2520.67
2647.3
2884.86
2704.67
2570.79
2463.1
2355.26
2262.43
2209.7
2199.02
2197.13
2219.97
2243.59
2261.68
2275.42
2264.35
2223.94
2162.31
2083.64
1996.53
1891.2
1711.91
1476.09
1332.34
1288.07
1271.93
1261.26
1252.89
1245.1
1240.45
1236.75
1265.32
1480.81
1990.34
2322.37
2434.02
2472.59
2463.61
2446.49
2467.41
2546.8
2645.09
2656.02
2488.12
2353.48
2276.06
2235.47
2235.55
2227.35
2194.6
2179.84
2170.43
2191.37
2221.35
2254.44
2276.24
2280.41
2274.18
2268.67
2236.74
2123.01
1932.82
1763.9
1691.56
1670.74
1657.8
1645.5
1636.09
1626.82
1621.07
1620.8
1661.73
1930.82
2423.95
2704.44
2778.91
2801.03
2768.27
2689.72
2628.42
2627.95
2646.87
2581.77
2501.98
2434.03
2400.54
2371.63
2328.51
2274.33
2244.85
2236.04
2266.83
2348.96
2454.44
2558.2
2633.82
2672.6
2676.52
2637.22
2523.82
2322.14
2105.79
1991.59
1954.34
1933.1
1913.69
1895.14
1882.03
1870.04
1861.76
1864.97
1911.26
2179.2
2626.55
2886.76
2958.19
2995.38
2985.87
2912.73
2819.1
2750.32
2659.11
2651.92
2631.99
2648.02
2677.8
2716.03
2763.28
2822.3
2849.49
2857.85
2888.51
2948.84
2990.8
2999.37
2975.25
2922.33
2840.02
2707.24
2504.18
2289.36
2160.31
2113.97
2091.49
2071.04
2050.87
2032.52
2020.31
2008.93
2000.56
2005.01
2050.74
2280.69
2677.11
2930.27
2997.84
3044.11
3057.59
3007.28
2921.01
2832.56
2669.13
2731.65
2843.98
2996.72
3138.05
3277.1
3407.01
3533.06
3569.1
3510.74
3387.69
3271.58
3170.53
3071.9
2982.75
2897.14
2777.72
2597.48
2404.17
2279.2
2231.09
2211.46
2194.35
2174.73
2155.83
2139.66
2129.78
2120.74
2114.07
2116.65
2160.84
2335.05
2686.74
2951.23
3031.89
3079.74
3089.89
3040.57
2947.04
2834.41
2646.11
2795.25
2956.49
3155.04
3315.48
3462.19
3603.23
3721.43
3749.62
3666.93
3466.02
3254.24
3105.56
3001.99
2909.2
2790.02
2632.16
2471.14
2366.53
2321.36
2306.71
2295.19
2278.92
2259.66
2242.1
2227.87
2219.69
2212.5
2206.95
2206.41
2243.57
2360.6
2654.31
2931.21
3041.98
3088.92
3104.97
3065.42
2963.36
2825.02
2631.62
2761.19
2936.62
3133.58
3291.92
3447.5
3603.06
3733.14
3760.44
3638.43
3378.51
3139.09
2990.29
2884.08
2771.61
2636.36
2506.4
2420.73
2382.67
2372.88
2367.35
2358.52
2343.85
2326.88
2312.18
2300.63
2294.48
2289.34
2285.16
2282.23
2308.19
2380.63
2590.16
2847.57
2987.97
3037.62
3062.99
3044.2
2945.85
2780.84
2608.56
2714.44
2833.22
3028.14
3169.71
3326.62
3463.8
3565.61
3571.9
3427.02
3173.92
2974.45
2849.56
2742.84
2631.18
2528.31
2462.7
2435.94
2434.52
2437.9
2438.06
2433.61
2423.3
2410.35
2398.9
2389.64
2384.8
2380.61
2377.62
2375
2384.31
2432.5
2552.45
2752.75
2896.51
2939.26
2956.99
2941.49
2888.12
2750.16
2593.85
3056.85
2634.05
2850.05
2974.61
3125.41
3230.06
3293.92
3271.54
3130.33
2943.65
2817.25
2735.37
2661.26
2594.38
2539.74
2516.61
2517.87
2526.71
2533.3
2536.47
2536.78
2533.38
2527.64
2522.51
2518.16
2515.78
2513.16
2511.29
2509.67
2511.91
2528.33
2585.94
2701.86
2807.37
2827.86
2821.86
2780.4
2752.89
2628.48
2597.75
13223.2
2970.01
2709.75
2750.79
2826.67
2852.71
2840.33
2785.38
2714.46
2658.92
2629.38
2606.47
2591.18
2588.62
2594.57
2603.6
2611.71
2617.9
2622.97
2627.91
2632.7
2636.64
2639.66
2642.2
2644.01
2645.75
2646.25
2646.78
2646.82
2647.31
2646.54
2648.53
2653.45
2668.95
2651.32
2636.3
2614.21
2602.14
2592.8
5270.69
13223.2
2970.01
2709.75
2750.79
2826.67
2852.71
2840.33
2785.38
2714.46
2658.92
2629.38
2606.47
2591.18
2588.62
2594.57
2603.6
2611.71
2617.9
2622.97
2627.91
2632.7
2636.64
2639.66
2642.2
2644.01
2645.75
2646.25
2646.78
2646.82
2647.31
2646.54
2648.53
2653.45
2668.95
2651.32
2636.3
2614.21
2602.14
2592.8
5270.69
3056.85
2634.05
2850.05
2974.61
3125.41
3230.06
3293.92
3271.54
3130.33
2943.65
2817.25
2735.37
2661.26
2594.38
2539.74
2516.61
2517.87
2526.71
2533.3
2536.47
2536.78
2533.38
2527.64
2522.51
2518.16
2515.78
2513.16
2511.29
2509.67
2511.91
2528.33
2585.94
2701.86
2807.37
2827.86
2821.86
2780.4
2752.89
2628.48
2597.75
2714.44
2833.22
3028.14
3169.71
3326.62
3463.8
3565.61
3571.9
3427.02
3173.92
2974.45
2849.56
2742.84
2631.18
2528.31
2462.7
2435.94
2434.52
2437.9
2438.06
2433.61
2423.3
2410.35
2398.9
2389.64
2384.8
2380.61
2377.62
2375
2384.31
2432.5
2552.45
2752.75
2896.51
2939.26
2956.99
2941.49
2888.12
2750.16
2593.85
2761.19
2936.62
3133.58
3291.92
3447.5
3603.06
3733.14
3760.44
3638.43
3378.51
3139.09
2990.29
2884.08
2771.61
2636.36
2506.4
2420.73
2382.67
2372.88
2367.35
2358.52
2343.85
2326.88
2312.18
2300.63
2294.48
2289.34
2285.16
2282.23
2308.19
2380.63
2590.16
2847.57
2987.97
3037.62
3062.99
3044.2
2945.85
2780.84
2608.56
2795.25
2956.49
3155.04
3315.48
3462.19
3603.23
3721.43
3749.62
3666.93
3466.02
3254.24
3105.56
3001.99
2909.2
2790.02
2632.16
2471.14
2366.53
2321.36
2306.71
2295.19
2278.92
2259.66
2242.1
2227.87
2219.69
2212.5
2206.95
2206.41
2243.57
2360.6
2654.31
2931.21
3041.98
3088.92
3104.97
3065.42
2963.36
2825.02
2631.62
2731.65
2843.98
2996.72
3138.05
3277.1
3407.01
3533.06
3569.1
3510.74
3387.69
3271.58
3170.53
3071.9
2982.75
2897.14
2777.72
2597.48
2404.17
2279.2
2231.09
2211.46
2194.35
2174.73
2155.83
2139.66
2129.78
2120.74
2114.07
2116.65
2160.84
2335.05
2686.74
2951.23
3031.89
3079.74
3089.89
3040.57
2947.04
2834.41
2646.11
2651.92
2631.99
2648.02
2677.8
2716.03
2763.28
2822.3
2849.49
2857.85
2888.51
2948.84
2990.8
2999.37
2975.25
2922.33
2840.02
2707.24
2504.18
2289.36
2160.31
2113.97
2091.49
2071.04
2050.87
2032.52
2020.31
2008.93
2000.56
2005.01
2050.74
2280.69
2677.11
2930.27
2997.84
3044.11
3057.59
3007.28
2921.01
2832.56
2669.13
2581.77
2501.98
2434.03
2400.54
2371.63
2328.51
2274.33
2244.85
2236.04
2266.83
2348.96
2454.44
2558.2
2633.82
2672.6
2676.52
2637.22
2523.82
2322.14
2105.79
1991.59
1954.34
1933.1
1913.69
1895.14
1882.03
1870.04
1861.76
1864.97
1911.26
2179.2
2626.55
2886.76
2958.19
2995.38
2985.87
2912.73
2819.1
2750.32
2659.11
2656.02
2488.12
2353.48
2276.06
2235.47
2235.55
2227.35
2194.6
2179.84
2170.43
2191.37
2221.35
2254.44
2276.24
2280.41
2274.18
2268.67
2236.74
2123.01
1932.82
1763.9
1691.56
1670.74
1657.8
1645.5
1636.09
1626.82
1621.07
1620.8
1661.73
1930.82
2423.95
2704.44
2778.91
2801.03
2768.27
2689.72
2628.42
2627.95
2646.87
2884.86
2704.67
2570.79
2463.1
2355.26
2262.43
2209.7
2199.02
2197.13
2219.97
2243.59
2261.68
2275.42
2264.35
2223.94
2162.31
2083.64
1996.53
1891.2
1711.91
1476.09
1332.34
1288.07
1271.93
1261.26
1252.89
1245.1
1240.45
1236.75
1265.32
1480.81
1990.34
2322.37
2434.02
2472.59
2463.61
2446.49
2467.41
2546.8
2645.09
3121.06
2971.86
2837.35
2731.5
2638.76
2544.62
2433.3
2339.6
2271.05
2221.82
2270.51
2342
2355.36
2362.92
2331.35
2253.32
2147.44
2027.7
1890.01
1707.45
1466.25
1231.37
1118.13
1080.01
1058.29
1041.26
1027.31
1016.55
1009.31
1026.26
1183.13
1619.07
1950.79
2104.31
2202.09
2269.53
2327.96
2401.76
2520.67
2647.3
3381.02
3228.85
3067.38
2931.02
2825.61
2742.03
2661.13
2579.47
2510.18
2406.56
2323.63
2373.81
2438.3
2451.85
2446.72
2394.5
2288.74
2152
1997.9
1817.21
1572.68
1291.46
1114.09
1051.98
1026.29
1007.63
991.759
978.761
970.008
984.084
1130.91
1538.32
1852.1
2010.44
2124.84
2209.19
2281.87
2378.01
2514.21
2647.94
3620.75
3448.93
3276.19
3125.93
2993.12
2873.57
2791.99
2732.42
2706.98
2677.03
2560.16
2493.39
2517.5
2530.18
2539.33
2511.69
2431.05
2299.92
2139.24
1952.59
1711.05
1404.33
1153.98
1054.61
1021.79
1001.84
985.178
971.033
961.414
974.298
1121.87
1524.01
1828.59
1983.5
2098.73
2191.47
2274.13
2376.51
2515.02
2649.29
3789.83
3607.34
3412.53
3231.91
3084.07
2953.85
2883.91
2850.59
2842.42
2877.33
2851.28
2703.76
2668.16
2658.16
2622.59
2609.16
2556.89
2441.28
2277.79
2085.13
1847.77
1532.44
1219.51
1066.69
1022.74
1002.26
985.569
970.964
960.79
972.939
1122.26
1526.33
1829.46
1983.55
2098.5
2191.33
2274.09
2377.2
2516.29
2650.2
3884.99
3701.46
3500.4
3295.77
3103.37
2914.18
2830.68
2817.16
2851.05
2976.3
3102.82
3031.68
2832.32
2792.26
2750.48
2699.09
2659.14
2570.21
2415.44
2215.47
1974.58
1657.96
1300.34
1085.48
1022.76
1000.77
984.117
969.195
958.639
970.063
1121.9
1528.04
1829.81
1983.51
2097.61
2190.3
2273.15
2378.02
2517.98
2651.43
3928.21
3730.16
3523.58
3322.08
3124.94
2868.67
2702.25
2698
2772.29
2992.13
3233.66
3280.63
3110.01
2901.79
2845.88
2784.34
2742.28
2679.98
2545.22
2343.6
2094.75
1775.45
1387.96
1111.42
1023.14
998.491
981.845
966.662
955.776
966.45
1119.11
1525.48
1826.2
1979.71
2093.3
2186.95
2270.81
2378.22
2519.21
2652.17
3936.86
3716.44
3516.48
3313.93
3110.9
2868.96
2653.52
2593.62
2577.31
2727.25
3156.92
3354.18
3294.08
3045.61
2913.22
2852.4
2803.23
2762.73
2657.84
2464.43
2207.95
1882.61
1474.44
1143.48
1025.39
996.78
980.141
964.748
953.624
963.605
1117.91
1525.02
1823.99
1976.57
2089.51
2184.06
2269.02
2379.03
2520.72
2653.12
3930.49
3779.08
3598.19
3390.14
3178.67
2963.95
2757.03
2586.87
2450.53
2520.22
3075.8
3435.37
3396.89
3148.85
2953.79
2893.95
2852.83
2822.89
2745.07
2566.74
2307.09
1975.57
1552.59
1177.08
1028.88
995.619
978.97
963.374
952.054
961.43
1116.86
1524.04
1821.25
1972.9
2085.35
2180.8
2267.02
2379.24
2521.47
2653.52
3889.53
3547.99
3250.2
3022.55
2836.01
2705.8
2568.14
2394.64
2257.13
2295.89
2812.92
3368.89
3389.88
3190.68
2989.7
2926.3
2897.48
2875.63
2811.94
2642.67
2381.55
2048.42
1617.23
1207.84
1032.76
994.887
978.219
962.436
950.987
959.889
1116.55
1524.01
1819.66
1970.37
2082.47
2178.52
2266.21
2380.28
2522.96
2654.36
3325.48
3086.44
2910.91
2790.47
2662.6
2560.2
2440.09
2244.41
2041.76
2051.22
2454.26
3213.37
3298.66
3196.3
3052.26
2977.6
2943.84
2919.72
2864.84
2707.61
2447.52
2105.49
1663.5
1230.5
1035.9
994.501
977.805
961.835
950.295
958.89
1116.41
1523.84
1818.25
1968.36
2080.42
2177.17
2266.43
2381.98
2525.47
2656.35
)
;

boundaryField
{
    inlet
    {
        type            calculated;
        value           uniform 14000.1;
    }
    outlet
    {
        type            calculated;
        value           nonuniform List<scalar> 
165
(
3434.26
4025.02
4056.76
4051.71
4023.37
3975.83
3880.65
3708.4
3457.98
3177.36
2940.29
2770.75
2668.31
2609.9
2585.61
2566.77
2574.09
2596.58
2930.17
3981.04
3981.04
3205.56
2677.88
2619.12
2578.09
2541.71
2519.14
2521.78
2553.7
2593.41
2620.03
2640.19
2659.15
2673.49
2683.35
2687.45
2689.83
2693.02
2697.52
2702.82
2708.61
2714.65
2720.01
2723.81
2726.18
2727.51
2728.37
2728.56
2728.39
2726.92
2722.71
2709.53
2679.87
2629.84
2593.8
2578.92
2590.41
2626.31
2939.06
3726.63
2741.86
2740.92
2739.61
2737.94
2736.29
2734.78
2733.36
2731.65
2729.57
2725.49
2718.11
2699.36
2661.75
2609.39
2581.95
2573.72
2587.09
2626.01
2946.83
3726.63
2743.01
2743.33
2743.6
2743.33
2743.01
3726.63
2946.83
2626.01
2587.09
2573.72
2581.95
2609.39
2661.75
2699.36
2718.11
2725.49
2729.57
2731.65
2733.36
2734.78
2736.29
2737.94
2739.61
2740.92
2741.86
3981.04
3205.56
2677.88
2619.12
2578.09
2541.71
2519.14
2521.78
2553.7
2593.41
2620.03
2640.19
2659.15
2673.49
2683.35
2687.45
2689.83
2693.02
2697.52
2702.82
2708.61
2714.65
2720.01
2723.81
2726.18
2727.51
2728.37
2728.56
2728.39
2726.92
2722.71
2709.53
2679.87
2629.84
2593.8
2578.92
2590.41
2626.31
2939.06
3726.63
3981.04
2930.17
2596.58
2574.09
2566.77
2585.61
2609.9
2668.31
2770.75
2940.29
3177.36
3457.98
3708.4
3880.65
3975.83
4023.37
4051.71
4056.76
4025.02
3434.26
)
;
    }
    obstacle
    {
        type            calculated;
        value           nonuniform List<scalar> 
40
(
17526.5
12116.3
12459
12684
12691.9
12668
12594.8
12491.4
12398.2
12349.1
17526.5
12116.3
12459
12684
12691.9
12668
12594.8
12491.4
12398.2
12349.1
12475.7
12274.9
12122.8
11761.5
11602.5
12475.7
12274.9
12122.8
11761.5
11602.5
6125.67
4162.69
3222.68
2707.35
2177.27
6125.67
4162.69
3222.68
2707.35
2177.27
)
;
    }
    empty
    {
        type            empty;
    }
}


// ************************************************************************* //
