/*--------------------------------*- C++ -*----------------------------------*\
| =========                 |                                                 |
| \\      /  F ield         | OpenFOAM: The Open Source CFD Toolbox           |
|  \\    /   O peration     | Version:  v1912                                 |
|   \\  /    A nd           | Website:  www.openfoam.com                      |
|    \\/     M anipulation  |                                                 |
\*---------------------------------------------------------------------------*/
FoamFile
{
    version     2.0;
    format      ascii;
    class       volVectorField;
    location    "2.54";
    object      U;
}
// * * * * * * * * * * * * * * * * * * * * * * * * * * * * * * * * * * * * * //

dimensions      [0 1 -1 0 0 0 0];


internalField   nonuniform List<vector> 
1900
(
(-0.312735 -4.69066e-07 0)
(-0.0549963 -1.40012e-06 0)
(-0.057529 -1.23882e-06 0)
(-0.0617353 1.08614e-05 0)
(-0.065917 7.23098e-05 0)
(-0.0703666 0.000269697 0)
(-0.0748734 0.000455417 0)
(-0.078923 -0.0006812 0)
(-0.0821768 -0.00382313 0)
(-0.0747116 -0.0141763 0)
(-0.31274 -3.68785e-06 0)
(-0.0549996 -3.10265e-06 0)
(-0.0575326 -9.1649e-07 0)
(-0.0617315 1.38427e-05 0)
(-0.0658667 8.00985e-05 0)
(-0.0701156 0.000263747 0)
(-0.0740421 0.000450399 0)
(-0.077636 -0.000169235 0)
(-0.0825268 -0.00220065 0)
(-0.0871756 -0.011667 0)
(-0.312742 -4.11151e-14 0)
(-0.0549994 -3.28388e-14 0)
(-0.0575316 -3.57329e-14 0)
(-0.0617188 2.15714e-14 0)
(-0.0658111 1.5432e-14 0)
(-0.0699435 2.08511e-14 0)
(-0.0737258 1.2331e-14 0)
(-0.077394 1.44675e-14 0)
(-0.0827055 -8.1023e-15 0)
(-0.0929785 -1.657e-14 0)
(-0.31274 3.68785e-06 0)
(-0.0549996 3.10265e-06 0)
(-0.0575326 9.1649e-07 0)
(-0.0617315 -1.38427e-05 0)
(-0.0658667 -8.00985e-05 0)
(-0.0701156 -0.000263747 0)
(-0.0740421 -0.000450399 0)
(-0.077636 0.000169235 0)
(-0.0825268 0.00220065 0)
(-0.0871756 0.011667 0)
(-0.312735 4.69066e-07 0)
(-0.0549963 1.40012e-06 0)
(-0.057529 1.23882e-06 0)
(-0.0617353 -1.08614e-05 0)
(-0.065917 -7.23098e-05 0)
(-0.0703666 -0.000269697 0)
(-0.0748734 -0.000455417 0)
(-0.078923 0.0006812 0)
(-0.0821768 0.00382313 0)
(-0.0747116 0.0141763 0)
(-0.0788855 -0.0389311 0)
(-0.105466 -0.051177 0)
(-0.12881 -0.0733065 0)
(-0.174444 -0.0964048 0)
(-0.3307 -0.0766185 0)
(-0.104061 -0.0271572 0)
(-0.131741 -0.0350677 0)
(-0.168688 -0.0535373 0)
(-0.244474 -0.0721641 0)
(-0.387839 -0.0672289 0)
(-0.112592 -2.25948e-14 0)
(-0.139575 -2.21135e-14 0)
(-0.183661 1.97707e-14 0)
(-0.26751 -1.04422e-14 0)
(-0.403729 1.11438e-14 0)
(-0.104061 0.0271572 0)
(-0.131741 0.0350677 0)
(-0.168688 0.0535373 0)
(-0.244474 0.0721641 0)
(-0.387839 0.0672289 0)
(-0.0788855 0.0389311 0)
(-0.105466 0.051177 0)
(-0.12881 0.0733065 0)
(-0.174444 0.0964048 0)
(-0.3307 0.0766185 0)
(-0.389266 0.0214965 0)
(-0.321375 0.0288055 0)
(-0.289454 0.0279596 0)
(-0.273903 0.0471224 0)
(-0.348349 0.106165 0)
(-0.40522 0.0173534 0)
(-0.32992 0.0174849 0)
(-0.280236 0.0183704 0)
(-0.230287 0.0379189 0)
(-0.185919 0.111208 0)
(-0.414047 1.34136e-14 0)
(-0.332686 5.65472e-14 0)
(-0.272289 8.28997e-14 0)
(-0.200072 1.45865e-13 0)
(-0.0862276 1.10004e-13 0)
(-0.40522 -0.0173534 0)
(-0.32992 -0.0174849 0)
(-0.280236 -0.0183704 0)
(-0.230287 -0.0379189 0)
(-0.185919 -0.111208 0)
(-0.389266 -0.0214965 0)
(-0.321375 -0.0288055 0)
(-0.289454 -0.0279596 0)
(-0.273903 -0.0471224 0)
(-0.348349 -0.106165 0)
(-0.58151 0.11828 0)
(-0.124929 -0.13691 0)
(-0.178007 -0.178056 0)
(-0.302546 -0.0986726 0)
(-0.360942 -0.0384667 0)
(-0.383107 -0.0233066 0)
(-0.385838 -0.0196813 0)
(-0.378204 -0.0182205 0)
(-0.362292 -0.017166 0)
(-0.341413 -0.0173873 0)
(-0.316039 -0.0175305 0)
(-0.286655 -0.0177665 0)
(-0.25431 -0.0181398 0)
(-0.220064 -0.0185631 0)
(-0.184947 -0.0190133 0)
(-0.149832 -0.0194463 0)
(-0.115321 -0.0198308 0)
(-0.0813792 -0.0201371 0)
(-0.0477824 -0.020345 0)
(-0.0113999 -0.0205125 0)
(0.0133306 -0.0204618 0)
(0.0503704 -0.0202544 0)
(0.0847559 -0.0200032 0)
(0.11985 -0.0196738 0)
(0.155846 -0.019273 0)
(0.192937 -0.018807 0)
(0.230839 -0.0182773 0)
(0.269204 -0.0176871 0)
(0.307737 -0.0170398 0)
(0.346157 -0.016339 0)
(0.384099 -0.0155885 0)
(0.421032 -0.01479 0)
(0.456334 -0.0139503 0)
(0.489615 -0.0130469 0)
(0.521141 -0.012152 0)
(0.551471 -0.0110875 0)
(0.579675 -0.0106435 0)
(0.599011 -0.00854068 0)
(0.669185 -0.00647467 0)
(1.25557 -0.00107655 0)
(-0.0141042 0.125349 0)
(0.180723 -0.0992408 0)
(-0.0278114 -0.126765 0)
(-0.267618 -0.057355 0)
(-0.358529 -0.0193945 0)
(-0.38312 -0.0114928 0)
(-0.386642 -0.00966031 0)
(-0.378889 -0.00890394 0)
(-0.362665 -0.00837811 0)
(-0.34162 -0.00851165 0)
(-0.316186 -0.00857789 0)
(-0.286774 -0.00869517 0)
(-0.254436 -0.00888514 0)
(-0.220202 -0.00909994 0)
(-0.185089 -0.0093287 0)
(-0.149965 -0.00954907 0)
(-0.115431 -0.00974469 0)
(-0.0814598 -0.00990044 0)
(-0.0478331 -0.0100067 0)
(-0.0114134 -0.0100933 0)
(0.013346 -0.0100685 0)
(0.0504182 -0.00996317 0)
(0.08482 -0.00983614 0)
(0.119925 -0.00966977 0)
(0.155928 -0.00946792 0)
(0.193021 -0.0092338 0)
(0.230921 -0.00896835 0)
(0.269281 -0.00867344 0)
(0.307806 -0.00835131 0)
(0.346218 -0.00800421 0)
(0.384152 -0.00763456 0)
(0.421083 -0.00724342 0)
(0.456391 -0.00683447 0)
(0.489689 -0.00639573 0)
(0.521233 -0.00596388 0)
(0.551596 -0.00544491 0)
(0.579786 -0.00524809 0)
(0.59932 -0.00419778 0)
(0.669564 -0.00320478 0)
(1.25564 -0.000257072 0)
(0.173021 6.04253e-14 0)
(0.285478 -2.92492e-14 0)
(0.0419016 -2.81604e-14 0)
(-0.249746 1.41534e-14 0)
(-0.358376 4.01497e-14 0)
(-0.383346 1.85253e-14 0)
(-0.387214 2.28016e-15 0)
(-0.37946 3.57483e-14 0)
(-0.363154 5.98242e-13 0)
(-0.34215 1.48508e-12 0)
(-0.316717 1.40137e-12 0)
(-0.287267 -2.18594e-12 0)
(-0.254884 -1.09881e-11 0)
(-0.220603 -1.97658e-11 0)
(-0.185438 -1.95013e-11 0)
(-0.150252 -6.26516e-13 0)
(-0.115647 -6.61895e-12 0)
(-0.0816034 1.42822e-10 0)
(-0.0479096 1.4113e-10 0)
(-0.0114305 6.4335e-11 0)
(0.0133731 -2.99692e-11 0)
(0.0505042 -2.12756e-10 0)
(0.0849706 -2.77465e-10 0)
(0.120148 1.59097e-10 0)
(0.156226 4.05755e-10 0)
(0.193393 3.61175e-10 0)
(0.231365 3.18576e-10 0)
(0.269792 1.87103e-10 0)
(0.308377 7.78929e-11 0)
(0.346841 1.11585e-11 0)
(0.384817 2.04454e-11 0)
(0.421779 1.03226e-10 0)
(0.457104 1.65332e-10 0)
(0.490404 3.28332e-10 0)
(0.521937 4.4298e-10 0)
(0.552277 5.66477e-10 0)
(0.580437 3.99549e-10 0)
(0.599939 2.54452e-10 0)
(0.670045 2.05206e-10 0)
(1.25566 -3.41439e-11 0)
(-0.0141042 -0.125349 0)
(0.180723 0.0992408 0)
(-0.0278114 0.126765 0)
(-0.267618 0.057355 0)
(-0.358529 0.0193945 0)
(-0.38312 0.0114928 0)
(-0.386642 0.00966031 0)
(-0.378889 0.00890394 0)
(-0.362665 0.00837811 0)
(-0.34162 0.00851165 0)
(-0.316186 0.00857789 0)
(-0.286774 0.00869517 0)
(-0.254436 0.00888514 0)
(-0.220202 0.00909994 0)
(-0.185089 0.0093287 0)
(-0.149965 0.00954907 0)
(-0.115431 0.00974469 0)
(-0.0814598 0.00990044 0)
(-0.0478331 0.0100067 0)
(-0.0114134 0.0100933 0)
(0.013346 0.0100685 0)
(0.0504182 0.00996317 0)
(0.08482 0.00983614 0)
(0.119925 0.00966977 0)
(0.155928 0.00946792 0)
(0.193021 0.0092338 0)
(0.230921 0.00896835 0)
(0.269281 0.00867344 0)
(0.307806 0.00835131 0)
(0.346218 0.00800422 0)
(0.384152 0.00763456 0)
(0.421083 0.00724342 0)
(0.456391 0.00683447 0)
(0.489689 0.00639573 0)
(0.521233 0.00596388 0)
(0.551596 0.00544491 0)
(0.579786 0.00524809 0)
(0.59932 0.00419778 0)
(0.669564 0.00320478 0)
(1.25564 0.000257072 0)
(-0.58151 -0.11828 0)
(-0.124929 0.13691 0)
(-0.178007 0.178056 0)
(-0.302546 0.0986726 0)
(-0.360942 0.0384667 0)
(-0.383107 0.0233066 0)
(-0.385838 0.0196813 0)
(-0.378204 0.0182205 0)
(-0.362292 0.017166 0)
(-0.341413 0.0173873 0)
(-0.316039 0.0175305 0)
(-0.286655 0.0177665 0)
(-0.25431 0.0181398 0)
(-0.220064 0.0185631 0)
(-0.184947 0.0190133 0)
(-0.149832 0.0194463 0)
(-0.115321 0.0198308 0)
(-0.0813792 0.0201371 0)
(-0.0477824 0.020345 0)
(-0.0113999 0.0205125 0)
(0.0133306 0.0204618 0)
(0.0503704 0.0202544 0)
(0.0847559 0.0200032 0)
(0.11985 0.0196738 0)
(0.155846 0.019273 0)
(0.192937 0.018807 0)
(0.230839 0.0182773 0)
(0.269204 0.0176871 0)
(0.307737 0.0170398 0)
(0.346157 0.016339 0)
(0.384099 0.0155885 0)
(0.421032 0.0147901 0)
(0.456334 0.0139503 0)
(0.489615 0.0130469 0)
(0.521141 0.012152 0)
(0.551471 0.0110875 0)
(0.579675 0.0106435 0)
(0.599011 0.00854068 0)
(0.669185 0.00647467 0)
(1.25557 0.00107655 0)
(-1.14076 -0.1719 0)
(-0.448223 0.153342 0)
(-0.356494 0.219569 0)
(-0.35728 0.141605 0)
(-0.376995 0.0710604 0)
(-0.389073 0.0479736 0)
(-0.38905 0.0413769 0)
(-0.378815 0.0380224 0)
(-0.362853 0.0363174 0)
(-0.341781 0.0362606 0)
(-0.316103 0.0363841 0)
(-0.286513 0.0367599 0)
(-0.254047 0.0374122 0)
(-0.219765 0.0381698 0)
(-0.18467 0.0389664 0)
(-0.149605 0.0397217 0)
(-0.115145 0.0403877 0)
(-0.0812464 0.0409204 0)
(-0.0476973 0.041284 0)
(-0.0114014 0.0415993 0)
(0.0132436 0.0414942 0)
(0.0501846 0.0410856 0)
(0.0845162 0.0406079 0)
(0.119562 0.0399859 0)
(0.155511 0.0392292 0)
(0.192548 0.0383502 0)
(0.230387 0.0373508 0)
(0.26868 0.0362346 0)
(0.307132 0.0350053 0)
(0.345466 0.0336669 0)
(0.383321 0.0322259 0)
(0.420173 0.0306888 0)
(0.455405 0.0290772 0)
(0.48864 0.0273663 0)
(0.520158 0.0257008 0)
(0.550482 0.0237565 0)
(0.578698 0.0229279 0)
(0.59752 0.01926 0)
(0.667541 0.0152424 0)
(1.25503 0.00614556 0)
(-1.25391 -0.117852 0)
(-0.61413 0.183617 0)
(-0.489537 0.232394 0)
(-0.424411 0.166225 0)
(-0.410207 0.108085 0)
(-0.40383 0.0845559 0)
(-0.395703 0.0738614 0)
(-0.381712 0.0685098 0)
(-0.364447 0.0661977 0)
(-0.342478 0.0652106 0)
(-0.316065 0.0651409 0)
(-0.286008 0.0655895 0)
(-0.253263 0.0664806 0)
(-0.218855 0.0675484 0)
(-0.183733 0.0686647 0)
(-0.148706 0.0697212 0)
(-0.114338 0.0706542 0)
(-0.0805973 0.0714085 0)
(-0.0472881 0.071928 0)
(-0.0113278 0.0724543 0)
(0.0129967 0.0722843 0)
(0.0495937 0.0715968 0)
(0.0836783 0.0708452 0)
(0.118508 0.0698654 0)
(0.154261 0.0686745 0)
(0.191112 0.0672981 0)
(0.228778 0.0657458 0)
(0.266913 0.0640292 0)
(0.305225 0.0621598 0)
(0.343441 0.0601491 0)
(0.3812 0.0580117 0)
(0.417978 0.0557612 0)
(0.453165 0.0534371 0)
(0.486379 0.0509854 0)
(0.51796 0.0486833 0)
(0.548167 0.0457387 0)
(0.57661 0.0448635 0)
(0.59451 0.039299 0)
(0.664246 0.0321817 0)
(1.25357 0.0173836 0)
(-1.26222 -0.0553641 0)
(-0.648868 0.171954 0)
(-0.533726 0.223413 0)
(-0.46518 0.173561 0)
(-0.435231 0.139761 0)
(-0.415141 0.121457 0)
(-0.401665 0.109841 0)
(-0.385053 0.103128 0)
(-0.365861 0.10014 0)
(-0.342881 0.0983255 0)
(-0.31578 0.0979759 0)
(-0.285265 0.0983542 0)
(-0.252266 0.0992687 0)
(-0.217765 0.100426 0)
(-0.182654 0.101659 0)
(-0.147696 0.102844 0)
(-0.113444 0.103909 0)
(-0.0798815 0.104787 0)
(-0.0468398 0.105401 0)
(-0.0112539 0.106146 0)
(0.012696 0.10594 0)
(0.0489264 0.104997 0)
(0.0827818 0.104084 0)
(0.117439 0.102903 0)
(0.15305 0.101482 0)
(0.18977 0.0998601 0)
(0.227309 0.098054 0)
(0.26532 0.0960794 0)
(0.303515 0.0939499 0)
(0.341619 0.0916771 0)
(0.379274 0.0892771 0)
(0.415961 0.0867609 0)
(0.451085 0.0841866 0)
(0.484246 0.0814485 0)
(0.515867 0.0789849 0)
(0.545732 0.0753337 0)
(0.574301 0.0746383 0)
(0.59143 0.0681805 0)
(0.661107 0.0583358 0)
(1.25065 0.0408911 0)
(-1.25937 0.00992658 0)
(-0.655649 0.175614 0)
(-0.548989 0.225607 0)
(-0.486973 0.188563 0)
(-0.452106 0.170858 0)
(-0.428466 0.15613 0)
(-0.408847 0.145902 0)
(-0.389941 0.138379 0)
(-0.368491 0.134903 0)
(-0.344017 0.132588 0)
(-0.315878 0.131926 0)
(-0.284661 0.132177 0)
(-0.251255 0.133039 0)
(-0.216563 0.134208 0)
(-0.181403 0.135492 0)
(-0.146491 0.136757 0)
(-0.112359 0.137919 0)
(-0.0790016 0.138893 0)
(-0.0462754 0.139585 0)
(-0.0111457 0.140564 0)
(0.0123149 0.140347 0)
(0.0480674 0.139149 0)
(0.0816135 0.138114 0)
(0.116043 0.136779 0)
(0.151476 0.135189 0)
(0.188035 0.133393 0)
(0.225418 0.131414 0)
(0.263278 0.129269 0)
(0.301328 0.126971 0)
(0.339298 0.124534 0)
(0.376833 0.12197 0)
(0.413424 0.119296 0)
(0.448499 0.116595 0)
(0.481588 0.113659 0)
(0.513282 0.111221 0)
(0.542554 0.106758 0)
(0.571298 0.10648 0)
(0.588216 0.100177 0)
(0.658346 0.0877895 0)
(1.24567 0.0722991 0)
(-1.24667 0.0595827 0)
(-0.655422 0.193341 0)
(-0.556087 0.237074 0)
(-0.502194 0.208668 0)
(-0.465888 0.202013 0)
(-0.439181 0.189583 0)
(-0.416162 0.181291 0)
(-0.394878 0.173808 0)
(-0.371462 0.170161 0)
(-0.345347 0.167798 0)
(-0.316037 0.16704 0)
(-0.28405 0.167288 0)
(-0.250193 0.168166 0)
(-0.215291 0.169384 0)
(-0.180076 0.170739 0)
(-0.145207 0.172096 0)
(-0.111189 0.173359 0)
(-0.0780301 0.174431 0)
(-0.0456289 0.175208 0)
(-0.0110052 0.176436 0)
(0.0118965 0.176227 0)
(0.0470995 0.174774 0)
(0.0803005 0.173626 0)
(0.114491 0.172152 0)
(0.149748 0.170408 0)
(0.186152 0.168455 0)
(0.223385 0.166321 0)
(0.261097 0.164023 0)
(0.299007 0.16158 0)
(0.336839 0.15899 0)
(0.374271 0.156298 0)
(0.410767 0.153475 0)
(0.44583 0.150703 0)
(0.478802 0.147548 0)
(0.510572 0.145204 0)
(0.539039 0.139879 0)
(0.567835 0.140041 0)
(0.586037 0.134647 0)
(0.656415 0.120276 0)
(1.23888 0.109429 0)
(-1.25055 0.123873 0)
(-0.654332 0.216321 0)
(-0.559528 0.254923 0)
(-0.511562 0.233502 0)
(-0.476098 0.232957 0)
(-0.44755 0.221864 0)
(-0.422849 0.215794 0)
(-0.399557 0.208916 0)
(-0.374375 0.205505 0)
(-0.346621 0.203344 0)
(-0.316127 0.202698 0)
(-0.283341 0.203023 0)
(-0.249044 0.203986 0)
(-0.21393 0.205281 0)
(-0.178659 0.206724 0)
(-0.14382 0.208175 0)
(-0.109895 0.20954 0)
(-0.0769245 0.210713 0)
(-0.0448625 0.21159 0)
(-0.0108169 0.213077 0)
(0.0114456 0.212893 0)
(0.0460062 0.211188 0)
(0.0788169 0.209931 0)
(0.112752 0.208319 0)
(0.147832 0.206421 0)
(0.184087 0.204313 0)
(0.221174 0.202024 0)
(0.258749 0.199582 0)
(0.296511 0.196982 0)
(0.334244 0.194279 0)
(0.371539 0.191417 0)
(0.408005 0.188515 0)
(0.443069 0.185675 0)
(0.475845 0.182247 0)
(0.507706 0.180061 0)
(0.535338 0.173997 0)
(0.564352 0.174612 0)
(0.58445 0.170169 0)
(0.654873 0.154498 0)
(1.22969 0.148319 0)
(-1.23322 0.182204 0)
(-0.652256 0.24295 0)
(-0.561203 0.277798 0)
(-0.517324 0.261982 0)
(-0.48333 0.263558 0)
(-0.454039 0.253484 0)
(-0.428698 0.249722 0)
(-0.403725 0.243652 0)
(-0.376918 0.240712 0)
(-0.347729 0.239031 0)
(-0.316026 0.238541 0)
(-0.28256 0.2391 0)
(-0.247817 0.240161 0)
(-0.212516 0.241572 0)
(-0.177174 0.243106 0)
(-0.142341 0.244657 0)
(-0.108482 0.24613 0)
(-0.075681 0.247418 0)
(-0.0439671 0.248412 0)
(-0.0105749 0.250161 0)
(0.0109756 0.250014 0)
(0.0448016 0.248066 0)
(0.0771824 0.246704 0)
(0.11085 0.24496 0)
(0.145758 0.242914 0)
(0.181869 0.240653 0)
(0.218824 0.238223 0)
(0.256248 0.235625 0)
(0.293922 0.232932 0)
(0.331454 0.230011 0)
(0.368808 0.227192 0)
(0.405055 0.223982 0)
(0.440293 0.221286 0)
(0.472762 0.217491 0)
(0.504714 0.215482 0)
(0.531602 0.208897 0)
(0.561105 0.209897 0)
(0.583237 0.206321 0)
(0.65366 0.190053 0)
(1.21937 0.191642 0)
(-1.21871 0.234104 0)
(-0.649859 0.271365 0)
(-0.562086 0.303669 0)
(-0.521074 0.292213 0)
(-0.488447 0.294041 0)
(-0.459028 0.284906 0)
(-0.433589 0.283253 0)
(-0.407166 0.277952 0)
(-0.379132 0.275939 0)
(-0.348352 0.27443 0)
(-0.315882 0.274556 0)
(-0.281582 0.275166 0)
(-0.24654 0.276471 0)
(-0.211013 0.277969 0)
(-0.175601 0.279622 0)
(-0.140747 0.281287 0)
(-0.106927 0.282891 0)
(-0.0742797 0.284316 0)
(-0.0429267 0.285446 0)
(-0.0102748 0.287452 0)
(0.0104949 0.287347 0)
(0.0434898 0.285174 0)
(0.0754031 0.283712 0)
(0.108796 0.281844 0)
(0.143534 0.279655 0)
(0.179513 0.277255 0)
(0.216322 0.274674 0)
(0.253662 0.271989 0)
(0.291099 0.269057 0)
(0.328768 0.266272 0)
(0.365666 0.262936 0)
(0.402296 0.260116 0)
(0.437322 0.257049 0)
(0.46949 0.252988 0)
(0.501654 0.251289 0)
(0.527913 0.244374 0)
(0.558054 0.245519 0)
(0.582047 0.242573 0)
(0.652169 0.225596 0)
(1.20565 0.230635 0)
(-1.20657 0.290665 0)
(-0.648282 0.303063 0)
(-0.562752 0.331603 0)
(-0.523972 0.323795 0)
(-0.492092 0.324835 0)
(-0.462873 0.316598 0)
(-0.437649 0.316596 0)
(-0.410041 0.312287 0)
(-0.380464 0.310431 0)
(-0.349144 0.310254 0)
(-0.315123 0.310013 0)
(-0.280651 0.311315 0)
(-0.245045 0.312582 0)
(-0.209421 0.314302 0)
(-0.173894 0.316064 0)
(-0.139011 0.317883 0)
(-0.105206 0.319647 0)
(-0.0727031 0.321231 0)
(-0.0417314 0.322513 0)
(-0.00991718 0.324759 0)
(0.0100086 0.324696 0)
(0.0420743 0.32232 0)
(0.0734857 0.320763 0)
(0.106598 0.318777 0)
(0.141175 0.316457 0)
(0.177015 0.313915 0)
(0.213733 0.311239 0)
(0.250843 0.308335 0)
(0.288449 0.305568 0)
(0.325445 0.302096 0)
(0.363261 0.299699 0)
(0.398691 0.295492 0)
(0.434797 0.293577 0)
(0.466186 0.28871 0)
(0.498473 0.287231 0)
(0.524504 0.280412 0)
(0.555556 0.28173 0)
(0.581107 0.27913 0)
(0.651063 0.262613 0)
(1.19209 0.278792 0)
(-1.18935 0.334131 0)
(-0.645274 0.332721 0)
(-0.562406 0.359007 0)
(-0.525921 0.355145 0)
(-0.494389 0.355451 0)
(-0.46555 0.348305 0)
(-0.440627 0.349592 0)
(-0.411528 0.345202 0)
(-0.382172 0.345833 0)
(-0.348253 0.344267 0)
(-0.314866 0.34597 0)
(-0.279027 0.346653 0)
(-0.243562 0.348537 0)
(-0.207605 0.350262 0)
(-0.172047 0.352242 0)
(-0.137101 0.354224 0)
(-0.103302 0.356178 0)
(-0.0709389 0.357937 0)
(-0.0403794 0.359377 0)
(-0.00950725 0.361834 0)
(0.00951889 0.361805 0)
(0.0405586 0.359256 0)
(0.0714369 0.357606 0)
(0.104268 0.355513 0)
(0.138685 0.353066 0)
(0.174418 0.350419 0)
(0.210949 0.347571 0)
(0.248147 0.344754 0)
(0.285117 0.341404 0)
(0.32309 0.33889 0)
(0.359076 0.33464 0)
(0.396436 0.332462 0)
(0.431076 0.328756 0)
(0.462696 0.324221 0)
(0.495144 0.322966 0)
(0.520884 0.316011 0)
(0.552897 0.317213 0)
(0.579244 0.314386 0)
(0.648527 0.297224 0)
(1.17443 0.315201 0)
(-1.17179 0.39086 0)
(-0.643721 0.368227 0)
(-0.563151 0.390483 0)
(-0.528741 0.38886 0)
(-0.496425 0.387372 0)
(-0.468093 0.380781 0)
(-0.442963 0.382111 0)
(-0.413638 0.379789 0)
(-0.381633 0.378508 0)
(-0.349143 0.38026 0)
(-0.313007 0.379981 0)
(-0.27802 0.382177 0)
(-0.241622 0.383611 0)
(-0.205753 0.385729 0)
(-0.170005 0.387804 0)
(-0.13502 0.389995 0)
(-0.101208 0.392137 0)
(-0.0689891 0.394072 0)
(-0.0388782 0.395663 0)
(-0.00905468 0.398294 0)
(0.00902624 0.39829 0)
(0.0389481 0.3956 0)
(0.0692683 0.393865 0)
(0.10182 0.391673 0)
(0.136097 0.389126 0)
(0.171693 0.386361 0)
(0.208224 0.383524 0)
(0.245035 0.380392 0)
(0.282726 0.377727 0)
(0.31905 0.373697 0)
(0.357753 0.372114 0)
(0.391856 0.366574 0)
(0.429319 0.36585 0)
(0.459497 0.359993 0)
(0.492219 0.358889 0)
(0.518269 0.352437 0)
(0.551779 0.354356 0)
(0.579099 0.351887 0)
(0.647956 0.336066 0)
(1.15682 0.367659 0)
(-1.15089 0.428217 0)
(-0.639265 0.39639 0)
(-0.561582 0.417012 0)
(-0.529325 0.417167 0)
(-0.496842 0.415058 0)
(-0.468885 0.410552 0)
(-0.444121 0.412808 0)
(-0.412468 0.409522 0)
(-0.382479 0.412488 0)
(-0.346306 0.411502 0)
(-0.312271 0.414349 0)
(-0.27559 0.415546 0)
(-0.23977 0.417903 0)
(-0.203522 0.42 0)
(-0.167795 0.422348 0)
(-0.132734 0.424707 0)
(-0.0989269 0.427036 0)
(-0.0668626 0.429131 0)
(-0.0372391 0.430856 0)
(-0.00856507 0.433618 0)
(0.00852439 0.433627 0)
(0.0372453 0.430834 0)
(0.066989 0.429021 0)
(0.0992679 0.426747 0)
(0.133399 0.424113 0)
(0.168908 0.421298 0)
(0.205215 0.418312 0)
(0.242203 0.415367 0)
(0.278924 0.411922 0)
(0.316715 0.409222 0)
(0.352363 0.404827 0)
(0.389732 0.402501 0)
(0.424069 0.398461 0)
(0.455478 0.39369 0)
(0.488163 0.392219 0)
(0.513753 0.385151 0)
(0.548229 0.386668 0)
(0.575367 0.383529 0)
(0.643474 0.367096 0)
(1.13611 0.399234 0)
(-1.12677 0.484647 0)
(-0.637756 0.433906 0)
(-0.562716 0.450102 0)
(-0.532326 0.450083 0)
(-0.498971 0.446153 0)
(-0.471619 0.442762 0)
(-0.445405 0.444079 0)
(-0.414148 0.442875 0)
(-0.381793 0.444098 0)
(-0.34687 0.445434 0)
(-0.310791 0.446865 0)
(-0.274493 0.448795 0)
(-0.237876 0.450806 0)
(-0.201532 0.453092 0)
(-0.165554 0.455482 0)
(-0.130383 0.45796 0)
(-0.0965353 0.46041 0)
(-0.0646161 0.462621 0)
(-0.0355013 0.464448 0)
(-0.00804439 0.467293 0)
(0.00800769 0.467307 0)
(0.0354781 0.46445 0)
(0.0646482 0.462579 0)
(0.0966884 0.460259 0)
(0.13074 0.457601 0)
(0.166211 0.454789 0)
(0.202603 0.451913 0)
(0.239454 0.448933 0)
(0.27682 0.44609 0)
(0.31369 0.442777 0)
(0.351492 0.44036 0)
(0.386264 0.435788 0)
(0.423276 0.434359 0)
(0.452997 0.42832 0)
(0.486937 0.427866 0)
(0.512909 0.421483 0)
(0.54894 0.42401 0)
(0.576633 0.421623 0)
(0.643946 0.407419 0)
(1.11355 0.454734 0)
(-1.10357 0.511976 0)
(-0.634184 0.457621 0)
(-0.562463 0.472956 0)
(-0.533647 0.472667 0)
(-0.499016 0.467697 0)
(-0.471374 0.467195 0)
(-0.443496 0.468642 0)
(-0.411194 0.468381 0)
(-0.378634 0.471151 0)
(-0.343051 0.472785 0)
(-0.307124 0.475405 0)
(-0.270844 0.478059 0)
(-0.234543 0.480894 0)
(-0.198388 0.483762 0)
(-0.16262 0.486616 0)
(-0.127588 0.489404 0)
(-0.0938596 0.492047 0)
(-0.0621707 0.494374 0)
(-0.0336297 0.496278 0)
(-0.00748431 0.499155 0)
(0.00745843 0.499169 0)
(0.0335994 0.49629 0)
(0.0621544 0.494372 0)
(0.0938974 0.49199 0)
(0.127736 0.489222 0)
(0.162945 0.486215 0)
(0.198974 0.483026 0)
(0.235445 0.479649 0)
(0.272257 0.476219 0)
(0.3088 0.472476 0)
(0.346026 0.469262 0)
(0.380905 0.464941 0)
(0.417285 0.462423 0)
(0.447119 0.456596 0)
(0.481306 0.455616 0)
(0.50715 0.448833 0)
(0.54426 0.451145 0)
(0.571683 0.44845 0)
(0.638094 0.434228 0)
(1.0909 0.480692 0)
(-1.07175 0.564152 0)
(-0.632495 0.493309 0)
(-0.564562 0.503829 0)
(-0.537359 0.50318 0)
(-0.50162 0.497015 0)
(-0.475274 0.498314 0)
(-0.443531 0.497601 0)
(-0.41275 0.499105 0)
(-0.378503 0.500976 0)
(-0.343039 0.503096 0)
(-0.306793 0.505794 0)
(-0.270066 0.508545 0)
(-0.233341 0.511402 0)
(-0.196822 0.514316 0)
(-0.160749 0.517212 0)
(-0.125466 0.520004 0)
(-0.091571 0.522619 0)
(-0.0599221 0.524911 0)
(-0.0318432 0.52679 0)
(-0.00695221 0.529626 0)
(0.00693759 0.529636 0)
(0.0318177 0.526804 0)
(0.0598895 0.524929 0)
(0.0915512 0.522618 0)
(0.125493 0.519943 0)
(0.160869 0.517027 0)
(0.197098 0.513926 0)
(0.233819 0.510674 0)
(0.270904 0.507419 0)
(0.307818 0.503884 0)
(0.34502 0.500793 0)
(0.380045 0.496713 0)
(0.416922 0.494976 0)
(0.446405 0.489465 0)
(0.482131 0.490003 0)
(0.508341 0.484423 0)
(0.546512 0.48748 0)
(0.573546 0.48549 0)
(0.638217 0.474245 0)
(1.06223 0.536196 0)
(-1.04721 0.577428 0)
(-0.62978 0.512565 0)
(-0.564841 0.524462 0)
(-0.538386 0.524299 0)
(-0.500654 0.518279 0)
(-0.474117 0.521263 0)
(-0.43895 0.519485 0)
(-0.408932 0.523094 0)
(-0.372893 0.524274 0)
(-0.33768 0.527386 0)
(-0.300741 0.530074 0)
(-0.263759 0.533247 0)
(-0.22691 0.536654 0)
(-0.190592 0.540314 0)
(-0.155033 0.544087 0)
(-0.120543 0.547791 0)
(-0.0875279 0.551154 0)
(-0.0567114 0.55397 0)
(-0.0295928 0.556138 0)
(-0.00629247 0.558986 0)
(0.00628637 0.558992 0)
(0.029576 0.556149 0)
(0.0566798 0.553992 0)
(0.0874871 0.551178 0)
(0.120507 0.547798 0)
(0.15502 0.544039 0)
(0.190633 0.54016 0)
(0.227018 0.536308 0)
(0.264021 0.532657 0)
(0.301023 0.528996 0)
(0.338497 0.526018 0)
(0.373241 0.52167 0)
(0.410746 0.520352 0)
(0.439778 0.514483 0)
(0.476822 0.515544 0)
(0.503253 0.510139 0)
(0.542695 0.513131 0)
(0.569031 0.510824 0)
(0.632215 0.498415 0)
(1.03895 0.553457 0)
(-1.00714 0.623476 0)
(-0.62647 0.545896 0)
(-0.565812 0.555537 0)
(-0.541486 0.55697 0)
(-0.503947 0.552581 0)
(-0.477844 0.555561 0)
(-0.440948 0.552909 0)
(-0.412079 0.556689 0)
(-0.374153 0.556152 0)
(-0.339884 0.558805 0)
(-0.302071 0.560042 0)
(-0.265266 0.562364 0)
(-0.228188 0.564913 0)
(-0.191608 0.567962 0)
(-0.155649 0.571396 0)
(-0.12071 0.575 0)
(-0.0871511 0.578174 0)
(-0.0559535 0.58078 0)
(-0.0288215 0.582711 0)
(-0.00611713 0.585367 0)
(0.00611631 0.585369 0)
(0.028813 0.582718 0)
(0.0559306 0.580796 0)
(0.0871119 0.578203 0)
(0.120658 0.575036 0)
(0.155594 0.571423 0)
(0.191566 0.567954 0)
(0.228176 0.564823 0)
(0.265328 0.562151 0)
(0.302174 0.559577 0)
(0.340263 0.55816 0)
(0.374412 0.554852 0)
(0.413045 0.555229 0)
(0.44165 0.550296 0)
(0.479465 0.552417 0)
(0.505888 0.548126 0)
(0.544883 0.550497 0)
(0.569401 0.547377 0)
(0.629782 0.536466 0)
(1.00257 0.605909 0)
(-0.973494 0.609957 0)
(-0.61808 0.555352 0)
(-0.560874 0.572424 0)
(-0.539792 0.577678 0)
(-0.502376 0.575531 0)
(-0.476623 0.579792 0)
(-0.438533 0.577427 0)
(-0.410415 0.582026 0)
(-0.371357 0.580747 0)
(-0.338018 0.583758 0)
(-0.299784 0.583921 0)
(-0.26316 0.58532 0)
(-0.225605 0.586124 0)
(-0.188276 0.587139 0)
(-0.151213 0.588396 0)
(-0.114914 0.590399 0)
(-0.0807523 0.59353 0)
(-0.0501596 0.596711 0)
(-0.0247762 0.599417 0)
(-0.00498754 0.60245 0)
(0.00498842 0.60245 0)
(0.0247733 0.59942 0)
(0.0501475 0.596722 0)
(0.0807263 0.593552 0)
(0.114871 0.590435 0)
(0.151153 0.588444 0)
(0.188199 0.587183 0)
(0.225521 0.586141 0)
(0.263079 0.585279 0)
(0.299704 0.583764 0)
(0.338009 0.583472 0)
(0.371308 0.580141 0)
(0.41058 0.581224 0)
(0.438662 0.576053 0)
(0.477056 0.577924 0)
(0.503141 0.572909 0)
(0.541449 0.57346 0)
(0.562725 0.566896 0)
(0.620027 0.548822 0)
(0.971088 0.599693 0)
(-0.954271 0.621693 0)
(-0.597758 0.601035 0)
(-0.545852 0.62387 0)
(-0.531595 0.632833 0)
(-0.491663 0.634669 0)
(-0.466611 0.640864 0)
(-0.425229 0.640524 0)
(-0.397072 0.64636 0)
(-0.355636 0.646095 0)
(-0.322803 0.650242 0)
(-0.283192 0.651051 0)
(-0.247074 0.653357 0)
(-0.209152 0.654542 0)
(-0.172556 0.656006 0)
(-0.136466 0.657281 0)
(-0.102259 0.658814 0)
(-0.0703672 0.661011 0)
(-0.0418432 0.663999 0)
(-0.0195445 0.667362 0)
(-0.00377073 0.670584 0)
(0.00377187 0.670584 0)
(0.0195443 0.667363 0)
(0.0418383 0.664005 0)
(0.0703531 0.661026 0)
(0.102231 0.658841 0)
(0.136425 0.657322 0)
(0.172499 0.656057 0)
(0.209075 0.654599 0)
(0.24697 0.653403 0)
(0.28305 0.651067 0)
(0.322637 0.650205 0)
(0.355348 0.645931 0)
(0.396807 0.646103 0)
(0.424731 0.640025 0)
(0.466105 0.640124 0)
(0.490974 0.633613 0)
(0.531031 0.630947 0)
(0.545019 0.621356 0)
(0.596892 0.598055 0)
(0.952953 0.614382 0)
(-1.02534 1.02851 0)
(-0.615426 0.952385 0)
(-0.595286 0.974374 0)
(-0.60206 1.00493 0)
(-0.54596 1.04311 0)
(-0.528276 1.06723 0)
(-0.470391 1.09661 0)
(-0.443243 1.12003 0)
(-0.385819 1.14286 0)
(-0.352181 1.16401 0)
(-0.298769 1.18162 0)
(-0.260321 1.19931 0)
(-0.211584 1.2128 0)
(-0.170846 1.22601 0)
(-0.127497 1.23598 0)
(-0.0884018 1.24444 0)
(-0.0531575 1.25057 0)
(-0.0257114 1.25449 0)
(-0.00870016 1.25643 0)
(-0.00126421 1.25736 0)
(0.00126445 1.25736 0)
(0.00870066 1.25643 0)
(0.0257118 1.25449 0)
(0.0531571 1.25057 0)
(0.0883995 1.24444 0)
(0.127491 1.23599 0)
(0.170834 1.22602 0)
(0.211565 1.2128 0)
(0.260291 1.19933 0)
(0.298731 1.18164 0)
(0.35213 1.16404 0)
(0.385755 1.1429 0)
(0.443171 1.12008 0)
(0.470299 1.09668 0)
(0.528193 1.06732 0)
(0.545866 1.04321 0)
(0.602098 1.00503 0)
(0.595354 0.974453 0)
(0.615771 0.952218 0)
(1.02541 1.02847 0)
(-1.02534 -1.02851 0)
(-0.615426 -0.952385 0)
(-0.595286 -0.974374 0)
(-0.60206 -1.00493 0)
(-0.54596 -1.04311 0)
(-0.528276 -1.06723 0)
(-0.470391 -1.09661 0)
(-0.443243 -1.12003 0)
(-0.385819 -1.14286 0)
(-0.352181 -1.16401 0)
(-0.298769 -1.18162 0)
(-0.260321 -1.19931 0)
(-0.211584 -1.2128 0)
(-0.170846 -1.22601 0)
(-0.127497 -1.23598 0)
(-0.0884018 -1.24444 0)
(-0.0531575 -1.25057 0)
(-0.0257114 -1.25449 0)
(-0.00870016 -1.25643 0)
(-0.00126421 -1.25736 0)
(0.00126445 -1.25736 0)
(0.00870066 -1.25643 0)
(0.0257118 -1.25449 0)
(0.0531571 -1.25057 0)
(0.0883995 -1.24444 0)
(0.127491 -1.23599 0)
(0.170834 -1.22602 0)
(0.211565 -1.2128 0)
(0.260291 -1.19933 0)
(0.298731 -1.18164 0)
(0.35213 -1.16404 0)
(0.385755 -1.1429 0)
(0.443171 -1.12008 0)
(0.470299 -1.09668 0)
(0.528193 -1.06732 0)
(0.545866 -1.04321 0)
(0.602098 -1.00503 0)
(0.595354 -0.974453 0)
(0.615771 -0.952218 0)
(1.02541 -1.02847 0)
(-0.954271 -0.621693 0)
(-0.597758 -0.601035 0)
(-0.545852 -0.62387 0)
(-0.531595 -0.632833 0)
(-0.491663 -0.634669 0)
(-0.466611 -0.640864 0)
(-0.425229 -0.640524 0)
(-0.397072 -0.64636 0)
(-0.355636 -0.646095 0)
(-0.322803 -0.650242 0)
(-0.283192 -0.651051 0)
(-0.247074 -0.653357 0)
(-0.209152 -0.654542 0)
(-0.172556 -0.656006 0)
(-0.136466 -0.657281 0)
(-0.102259 -0.658814 0)
(-0.0703672 -0.661011 0)
(-0.0418432 -0.663999 0)
(-0.0195445 -0.667362 0)
(-0.00377073 -0.670584 0)
(0.00377187 -0.670584 0)
(0.0195443 -0.667363 0)
(0.0418383 -0.664005 0)
(0.0703531 -0.661026 0)
(0.102231 -0.658841 0)
(0.136425 -0.657322 0)
(0.172499 -0.656057 0)
(0.209075 -0.654599 0)
(0.24697 -0.653403 0)
(0.28305 -0.651067 0)
(0.322637 -0.650205 0)
(0.355348 -0.645931 0)
(0.396807 -0.646103 0)
(0.424731 -0.640025 0)
(0.466105 -0.640124 0)
(0.490974 -0.633613 0)
(0.531031 -0.630947 0)
(0.545019 -0.621356 0)
(0.596892 -0.598055 0)
(0.952953 -0.614382 0)
(-0.973494 -0.609957 0)
(-0.61808 -0.555352 0)
(-0.560874 -0.572424 0)
(-0.539792 -0.577678 0)
(-0.502376 -0.575531 0)
(-0.476623 -0.579792 0)
(-0.438533 -0.577427 0)
(-0.410415 -0.582026 0)
(-0.371357 -0.580747 0)
(-0.338018 -0.583758 0)
(-0.299784 -0.583921 0)
(-0.26316 -0.58532 0)
(-0.225605 -0.586124 0)
(-0.188276 -0.587139 0)
(-0.151213 -0.588396 0)
(-0.114914 -0.590399 0)
(-0.0807523 -0.59353 0)
(-0.0501596 -0.596711 0)
(-0.0247762 -0.599417 0)
(-0.00498754 -0.60245 0)
(0.00498842 -0.60245 0)
(0.0247733 -0.59942 0)
(0.0501475 -0.596722 0)
(0.0807263 -0.593552 0)
(0.114871 -0.590435 0)
(0.151153 -0.588444 0)
(0.188199 -0.587183 0)
(0.225521 -0.586141 0)
(0.263079 -0.585279 0)
(0.299704 -0.583764 0)
(0.338009 -0.583472 0)
(0.371308 -0.580141 0)
(0.41058 -0.581224 0)
(0.438662 -0.576053 0)
(0.477056 -0.577924 0)
(0.503141 -0.572909 0)
(0.541449 -0.57346 0)
(0.562725 -0.566896 0)
(0.620027 -0.548822 0)
(0.971088 -0.599693 0)
(-1.00714 -0.623476 0)
(-0.62647 -0.545896 0)
(-0.565812 -0.555537 0)
(-0.541486 -0.55697 0)
(-0.503947 -0.552581 0)
(-0.477844 -0.555561 0)
(-0.440948 -0.552909 0)
(-0.412079 -0.556689 0)
(-0.374153 -0.556152 0)
(-0.339884 -0.558805 0)
(-0.302071 -0.560042 0)
(-0.265266 -0.562364 0)
(-0.228188 -0.564913 0)
(-0.191608 -0.567962 0)
(-0.155649 -0.571396 0)
(-0.12071 -0.575 0)
(-0.0871511 -0.578174 0)
(-0.0559535 -0.58078 0)
(-0.0288215 -0.582711 0)
(-0.00611713 -0.585367 0)
(0.00611631 -0.585369 0)
(0.028813 -0.582718 0)
(0.0559306 -0.580796 0)
(0.0871119 -0.578203 0)
(0.120658 -0.575036 0)
(0.155594 -0.571423 0)
(0.191566 -0.567954 0)
(0.228176 -0.564823 0)
(0.265328 -0.562151 0)
(0.302174 -0.559577 0)
(0.340263 -0.55816 0)
(0.374412 -0.554852 0)
(0.413045 -0.555229 0)
(0.44165 -0.550296 0)
(0.479465 -0.552417 0)