/*--------------------------------*- C++ -*----------------------------------*\
| =========                 |                                                 |
| \\      /  F ield         | OpenFOAM: The Open Source CFD Toolbox           |
|  \\    /   O peration     | Version:  v1912                                 |
|   \\  /    A nd           | Website:  www.openfoam.com                      |
|    \\/     M anipulation  |                                                 |
\*---------------------------------------------------------------------------*/
FoamFile
{
    version     2.0;
    format      ascii;
    class       volVectorField;
    location    "1.96";
    object      grad(T);
}
// * * * * * * * * * * * * * * * * * * * * * * * * * * * * * * * * * * * * * //

dimensions      [0 -1 0 1 0 0 0];


internalField   nonuniform List<vector> 
1900
(
(0.3015 -3.10679e-06 0)
(-0.110071 2.86203e-06 0)
(0.0100858 1.60846e-05 0)
(0.00261967 3.12367e-05 0)
(0.00100007 -9.84521e-06 0)
(0.0032133 -8.88752e-05 0)
(0.00823922 -0.000459971 0)
(0.0117448 -0.00123927 0)
(0.0151765 -0.0021801 0)
(0.00215937 -0.00218287 0)
(0.301499 -4.98781e-06 0)
(-0.110052 8.51399e-06 0)
(0.0101141 3.03226e-05 0)
(0.00259374 3.82615e-05 0)
(0.000879956 -5.63344e-05 0)
(0.00276317 -0.000248024 0)
(0.00708883 -0.000608816 0)
(0.0100246 -0.00110765 0)
(0.0142329 -0.00119098 0)
(0.0208598 -0.00266714 0)
(0.301503 -1.21431e-13 0)
(-0.110036 -1.19262e-13 0)
(0.0101155 1.51788e-14 0)
(0.00253301 2.55872e-13 0)
(0.000713782 3.9465e-13 0)
(0.00266082 4.74881e-13 0)
(0.00737959 5.48606e-13 0)
(0.0111626 2.64545e-13 0)
(0.013617 -2.1684e-15 0)
(0.0186412 -7.80626e-14 0)
(0.301499 4.98781e-06 0)
(-0.110052 -8.51399e-06 0)
(0.0101141 -3.03226e-05 0)
(0.00259374 -3.82615e-05 0)
(0.000879956 5.63344e-05 0)
(0.00276317 0.000248024 0)
(0.00708883 0.000608816 0)
(0.0100246 0.00110765 0)
(0.0142329 0.00119098 0)
(0.0208598 0.00266714 0)
(0.3015 3.10679e-06 0)
(-0.110071 -2.86203e-06 0)
(0.0100858 -1.60846e-05 0)
(0.00261967 -3.12367e-05 0)
(0.00100007 9.84521e-06 0)
(0.0032133 8.88752e-05 0)
(0.00823922 0.000459971 0)
(0.0117448 0.00123927 0)
(0.0151765 0.0021801 0)
(0.00215937 0.00218287 0)
(0.0180448 0.0137142 1.00456e-15)
(0.0594086 0.0164019 -1.22369e-15)
(0.0421684 0.0186894 -1.55585e-15)
(-0.156423 0.0435228 0)
(-0.094924 0.293262 -6.53573e-15)
(0.0377026 0.0125468 1.00704e-15)
(0.0577792 0.0120357 1.22369e-15)
(0.053227 0.00925475 1.55585e-15)
(-0.045351 0.0165243 0)
(-0.0688425 0.233831 0)
(0.0390323 -4.12468e-14 0)
(0.0572879 -1.42658e-14 0)
(0.0482549 1.23479e-13 0)
(-0.0429498 2.21769e-13 0)
(0.0589313 2.71051e-13 0)
(0.0377026 -0.0125468 1.00704e-15)
(0.0577792 -0.0120357 1.22369e-15)
(0.053227 -0.00925475 1.55585e-15)
(-0.045351 -0.0165243 0)
(-0.0688425 -0.233831 0)
(0.0180448 -0.0137142 -3.01864e-15)
(0.0594086 -0.0164019 -1.22369e-15)
(0.0421684 -0.0186894 -1.55585e-15)
(-0.156423 -0.0435228 -4.24581e-15)
(-0.094924 -0.293262 6.53573e-15)
(0.202975 -0.114971 2.89717e-15)
(-0.0958073 -0.0246202 -2.42788e-15)
(-0.153781 -0.0116607 0)
(-0.3303 0.11075 1.81288e-15)
(-0.750951 0.314818 -7.7842e-16)
(0.0977842 -0.135658 -1.44686e-15)
(-0.0725773 -0.028245 1.21357e-15)
(-0.103192 -0.0227423 0)
(-0.191523 0.119357 -1.13603e-15)
(-0.280944 0.365243 1.99725e-16)
(0.123535 3.72352e-13 0)
(-0.0699935 1.946e-13 0)
(-0.0979371 1.807e-13 0)
(-0.173296 7.36974e-13 4.55851e-16)
(-0.285666 8.46439e-13 -3.99451e-16)
(0.0977842 0.135658 -1.44686e-15)
(-0.0725773 0.028245 1.21357e-15)
(-0.103192 0.0227423 0)
(-0.191523 -0.119357 -1.13603e-15)
(-0.280944 -0.365243 1.99725e-16)
(0.202975 0.114971 1.44686e-15)
(-0.0958073 0.0246202 7.4148e-19)
(-0.153781 0.0116607 0)
(-0.3303 -0.11075 3.33544e-18)
(-0.750951 -0.314818 7.7842e-16)
(-0.789856 2.45733 0)
(-0.045102 0.87651 0)
(0.250189 0.275181 0)
(0.0358167 0.0739227 0)
(-0.00989468 0.0286339 0)
(0.0289816 0.011383 0)
(0.0569852 0.00677342 0)
(0.075258 0.00361645 0)
(0.0960286 0.00202596 0)
(0.108716 0.0008211 0)
(0.117368 0.000456512 0)
(0.120733 0.000306915 0)
(0.11949 0.000245877 0)
(0.112347 0.000231266 0)
(0.0955685 0.000256196 0)
(0.0659486 0.000234147 0)
(0.0311792 0.000120169 0)
(0.00812693 3.26017e-05 0)
(0.000856039 8.55732e-06 0)
(2.41503e-05 7.13413e-06 0)
(-3.00185e-05 7.12365e-06 0)
(-0.000990423 7.12166e-06 0)
(-0.00899174 7.11708e-06 0)
(-0.0335659 7.0752e-06 0)
(-0.0698012 6.90876e-06 0)
(-0.100293 6.53706e-06 0)
(-0.117858 5.94196e-06 0)
(-0.12637 5.16613e-06 0)
(-0.130226 4.28913e-06 0)
(-0.13158 3.39808e-06 0)
(-0.13126 2.56763e-06 0)
(-0.129562 1.84972e-06 0)
(-0.126439 1.26975e-06 0)
(-0.1207 8.29902e-07 0)
(-0.108505 5.18688e-07 0)
(-0.0854298 3.13051e-07 0)
(-0.0749546 1.92847e-07 0)
(-0.313022 1.06575e-07 0)
(-0.65118 3.97464e-08 0)
(-0.377734 7.78956e-10 0)
(-0.642483 1.38119 0)
(-0.375914 0.959361 0)
(0.0897597 0.323068 0)
(-0.0198328 0.0532655 0)
(-0.0168087 0.0142383 0)
(0.0261121 0.00589022 0)
(0.0560809 0.00171399 0)
(0.0750982 0.00175792 0)
(0.0956974 0.000795011 0)
(0.108563 0.000215465 0)
(0.117325 6.49111e-05 0)
(0.120717 1.34231e-05 0)
(0.119488 -3.67917e-06 0)
(0.112353 3.8258e-06 0)
(0.0955719 3.05552e-05 0)
(0.065939 2.84553e-05 0)
(0.0311693 -3.73335e-06 0)
(0.00812623 -1.28379e-05 0)
(0.000857643 -5.90953e-06 0)
(2.43618e-05 -4.87317e-06 0)
(-3.00159e-05 -4.8632e-06 0)
(-0.000990422 -4.86051e-06 0)
(-0.00899174 -4.85677e-06 0)
(-0.0335659 -4.82805e-06 0)
(-0.0698011 -4.71301e-06 0)
(-0.100293 -4.46119e-06 0)
(-0.117858 -4.06069e-06 0)
(-0.126369 -3.53874e-06 0)
(-0.130226 -2.94653e-06 0)
(-0.13158 -2.34142e-06 0)
(-0.13126 -1.77393e-06 0)
(-0.129562 -1.28012e-06 0)
(-0.126439 -8.7902e-07 0)
(-0.1207 -5.73556e-07 0)
(-0.108505 -3.56854e-07 0)
(-0.0854297 -2.13753e-07 0)
(-0.0749546 -1.30011e-07 0)
(-0.313022 -7.27396e-08 0)
(-0.65118 -2.67722e-08 0)
(-0.377734 -5.2162e-10 0)
(-0.54635 1.06055e-12 0)
(-0.352918 5.95326e-13 0)
(-0.0134028 8.27936e-14 0)
(-0.0540248 -2.99634e-13 0)
(-0.0236766 -3.94255e-14 0)
(0.0253382 1.06449e-13 0)
(0.055783 -2.36553e-14 0)
(0.0749907 -9.06787e-14 0)
(0.0955799 1.853e-13 0)
(0.108504 1.5376e-13 0)
(0.11731 0 0)
(0.120713 -1.30104e-13 0)
(0.119488 -2.72036e-13 0)
(0.112357 2.20783e-13 0)
(0.0955756 8.27936e-13 0)
(0.0659386 2.00282e-12 0)
(0.0311671 -1.45086e-11 0)
(0.0081263 1.28172e-11 0)
(0.000858356 -2.59798e-10 0)
(2.44547e-05 -7.069e-12 0)
(-3.00148e-05 -4.96919e-11 0)
(-0.000990421 7.59296e-11 0)
(-0.00899173 4.72342e-10 0)
(-0.0335658 -6.43251e-10 0)
(-0.069801 -2.93685e-10 0)
(-0.100293 -3.06778e-10 0)
(-0.117858 -1.40493e-10 0)
(-0.126369 -8.00654e-11 0)
(-0.130226 1.79465e-11 0)
(-0.13158 1.1088e-10 0)
(-0.13126 1.11148e-10 0)
(-0.129562 1.85403e-10 0)
(-0.126438 1.37733e-10 0)
(-0.1207 1.25432e-10 0)
(-0.108505 7.41831e-11 0)
(-0.0854297 3.68905e-11 0)
(-0.0749545 -4.04782e-11 0)
(-0.313022 -2.13844e-11 0)
(-0.65118 -1.04596e-11 0)
(-0.377734 -5.83498e-13 0)
(-0.642483 -1.38119 0)
(-0.375914 -0.959361 0)
(0.0897597 -0.323068 0)
(-0.0198328 -0.0532655 0)
(-0.0168087 -0.0142383 0)
(0.0261121 -0.00589022 0)
(0.0560809 -0.00171399 0)
(0.0750982 -0.00175792 0)
(0.0956974 -0.000795011 0)
(0.108563 -0.000215465 0)
(0.117325 -6.49111e-05 0)
(0.120717 -1.34231e-05 0)
(0.119488 3.67917e-06 0)
(0.112353 -3.8258e-06 0)
(0.0955719 -3.05552e-05 0)
(0.065939 -2.84553e-05 0)
(0.0311693 3.73332e-06 0)
(0.00812623 1.28379e-05 0)
(0.000857643 5.90905e-06 0)
(2.43618e-05 4.87315e-06 0)
(-3.00159e-05 4.86311e-06 0)
(-0.000990422 4.86065e-06 0)
(-0.00899174 4.85763e-06 0)
(-0.0335659 4.82687e-06 0)
(-0.0698011 4.71248e-06 0)
(-0.100293 4.46062e-06 0)
(-0.117858 4.06042e-06 0)
(-0.126369 3.5386e-06 0)
(-0.130226 2.94656e-06 0)
(-0.13158 2.34163e-06 0)
(-0.13126 1.77414e-06 0)
(-0.129562 1.28047e-06 0)
(-0.126439 8.7928e-07 0)
(-0.1207 5.73793e-07 0)
(-0.108505 3.56995e-07 0)
(-0.0854297 2.13822e-07 0)
(-0.0749546 1.29936e-07 0)
(-0.313022 7.26983e-08 0)
(-0.65118 2.67513e-08 0)
(-0.377734 5.20624e-10 0)
(-0.789856 -2.45733 0)
(-0.045102 -0.87651 0)
(0.250189 -0.275181 0)
(0.0358167 -0.0739227 0)
(-0.00989468 -0.0286339 0)
(0.0289816 -0.011383 0)
(0.0569852 -0.00677342 0)
(0.075258 -0.00361645 0)
(0.0960286 -0.00202596 0)
(0.108716 -0.0008211 0)
(0.117368 -0.000456512 0)
(0.120733 -0.000306915 0)
(0.11949 -0.000245877 0)
(0.112347 -0.000231266 0)
(0.0955685 -0.000256196 0)
(0.0659486 -0.000234147 0)
(0.0311792 -0.000120169 0)
(0.00812693 -3.26018e-05 0)
(0.000856039 -8.5571e-06 0)
(2.41504e-05 -7.13413e-06 0)
(-3.00184e-05 -7.12361e-06 0)
(-0.000990423 -7.12172e-06 0)
(-0.00899174 -7.1175e-06 0)
(-0.0335659 -7.07467e-06 0)
(-0.0698012 -6.90847e-06 0)
(-0.100293 -6.5368e-06 0)
(-0.117858 -5.94184e-06 0)
(-0.12637 -5.16606e-06 0)
(-0.130226 -4.28914e-06 0)
(-0.13158 -3.39817e-06 0)
(-0.13126 -2.56772e-06 0)
(-0.129562 -1.84987e-06 0)
(-0.126439 -1.26987e-06 0)
(-0.1207 -8.30003e-07 0)
(-0.108505 -5.18748e-07 0)
(-0.0854298 -3.13083e-07 0)
(-0.0749546 -1.92814e-07 0)
(-0.313022 -1.06558e-07 0)
(-0.65118 -3.97392e-08 0)
(-0.377734 -7.7883e-10 0)
(0.268081 -1.40245 0)
(0.610387 -0.318631 0)
(0.407705 -0.108215 0)
(0.0704748 -0.0892493 0)
(0.0144264 -0.0403133 0)
(0.0365067 -0.0183935 0)
(0.0599072 -0.0145512 0)
(0.0778913 -0.00695889 0)
(0.0970679 -0.00434555 0)
(0.10937 -0.00227983 0)
(0.117597 -0.00151248 0)
(0.120832 -0.00117352 0)
(0.119533 -0.00103319 0)
(0.112355 -0.00096903 0)
(0.0955742 -0.000912441 0)
(0.0660132 -0.000769045 0)
(0.0312843 -0.000508298 0)
(0.00819543 -0.000312386 0)
(0.000875472 -0.000262546 0)
(2.55055e-05 -0.000259606 0)
(-3.00052e-05 -0.000259585 0)
(-0.000990416 -0.000259575 0)
(-0.0089917 -0.000259424 0)
(-0.0335657 -0.000258109 0)
(-0.0698007 -0.000253373 0)
(-0.100292 -0.000243323 0)
(-0.117857 -0.000227468 0)
(-0.126368 -0.000206497 0)
(-0.130225 -0.000181837 0)
(-0.131578 -0.000155222 0)
(-0.131259 -0.000128374 0)
(-0.129561 -0.000102798 0)
(-0.126438 -7.96414e-05 0)
(-0.120699 -5.96435e-05 0)
(-0.108505 -4.33117e-05 0)
(-0.0854295 -3.06952e-05 0)
(-0.0749544 -2.21627e-05 0)
(-0.313021 -1.43497e-05 0)
(-0.65118 -6.85143e-06 0)
(-0.377734 -3.06331e-07 0)
(0.52133 -0.286581 0)
(0.850579 -0.0084132 0)
(0.386764 -0.056918 0)
(0.082664 -0.0705897 0)
(0.0453428 -0.0461466 0)
(0.0497717 -0.0279672 0)
(0.0664371 -0.0216586 0)
(0.0836806 -0.012749 0)
(0.0999803 -0.00922732 0)
(0.111095 -0.00646661 0)
(0.118312 -0.00538432 0)
(0.121141 -0.0049599 0)
(0.119665 -0.00488404 0)
(0.112459 -0.00492156 0)
(0.0957581 -0.00487775 0)
(0.0663034 -0.00460182 0)
(0.0315628 -0.00417771 0)
(0.00832702 -0.00391685 0)
(0.000896478 -0.00386686 0)
(2.62771e-05 -0.00386468 0)
(-2.99954e-05 -0.00386466 0)
(-0.000990271 -0.00386458 0)
(-0.00899036 -0.00386245 0)
(-0.0335602 -0.00384545 0)
(-0.0697872 -0.00378915 0)
(-0.100268 -0.00367724 0)
(-0.117823 -0.0035067 0)
(-0.126327 -0.00328248 0)
(-0.130178 -0.00301422 0)
(-0.131529 -0.00271409 0)
(-0.13121 -0.00239519 0)
(-0.129516 -0.00207052 0)
(-0.126398 -0.00175203 0)
(-0.120665 -0.00145027 0)
(-0.108478 -0.00117733 0)
(-0.0854096 -0.000941172 0)
(-0.0749389 -0.000762567 0)
(-0.313007 -0.000560645 0)
(-0.651167 -0.000330069 0)
(-0.377728 -3.17709e-05 0)
(0.536134 0.0154143 0)
(0.831699 0.00156148 0)
(0.34779 -0.0486894 0)
(0.0808546 -0.0585082 0)
(0.0554989 -0.0524154 0)
(0.0601042 -0.0387796 0)
(0.0745719 -0.0312052 0)
(0.0898706 -0.0240923 0)
(0.103122 -0.0212595 0)
(0.113074 -0.0195556 0)
(0.119049 -0.0191859 0)
(0.121314 -0.0195234 0)
(0.11957 -0.020153 0)
(0.112361 -0.0207391 0)
(0.0958823 -0.02106 0)
(0.0666878 -0.0210129 0)
(0.0319444 -0.020719 0)
(0.00849497 -0.0205066 0)
(0.000925748 -0.0204612 0)
(2.76272e-05 -0.020459 0)
(-2.99169e-05 -0.020459 0)
(-0.000988279 -0.0204586 0)
(-0.00897326 -0.020447 0)
(-0.0334951 -0.020363 0)
(-0.0696386 -0.0201109 0)
(-0.10002 -0.0196508 0)
(-0.117476 -0.0189891 0)
(-0.125894 -0.0181436 0)
(-0.129677 -0.0171377 0)
(-0.130982 -0.0159988 0)
(-0.130638 -0.014757 0)
(-0.128941 -0.0134438 0)
(-0.12584 -0.0120908 0)
(-0.120146 -0.0107323 0)
(-0.108014 -0.00942304 0)
(-0.0850298 -0.00820563 0)
(-0.0745877 -0.00718537 0)
(-0.312605 -0.00584764 0)
(-0.650671 -0.00405223 0)
(-0.377446 -0.000785812 0)
(0.50798 0.0344051 0)
(0.788806 -0.0418676 0)
(0.328878 -0.0608463 0)
(0.0790736 -0.0666136 0)
(0.064354 -0.0621588 0)
(0.0702106 -0.0559126 0)
(0.0805903 -0.0522241 0)
(0.0932646 -0.0490078 0)
(0.104352 -0.0473846 0)
(0.113093 -0.0472558 0)
(0.118343 -0.0480529 0)
(0.120209 -0.0494114 0)
(0.118493 -0.0508855 0)
(0.111585 -0.0521469 0)
(0.0954942 -0.0530173 0)
(0.0666319 -0.0534635 0)
(0.0320508 -0.0535619 0)
(0.00857544 -0.0535273 0)
(0.00094232 -0.0535141 0)
(2.84249e-05 -0.0535134 0)
(-2.95577e-05 -0.0535134 0)
(-0.000978714 -0.0535121 0)
(-0.00889832 -0.0534789 0)
(-0.0332363 -0.0532576 0)
(-0.0691008 -0.0526593 0)
(-0.0991873 -0.0516761 0)
(-0.116371 -0.0503715 0)
(-0.124542 -0.0487875 0)
(-0.128111 -0.0469535 0)
(-0.129235 -0.0448971 0)
(-0.128748 -0.0426459 0)
(-0.126947 -0.0402284 0)
(-0.123785 -0.0376761 0)
(-0.118095 -0.0350379 0)
(-0.106043 -0.0324166 0)
(-0.0832533 -0.029885 0)
(-0.0726667 -0.0274411 0)
(-0.309988 -0.0240893 0)
(-0.646289 -0.0187983 0)
(-0.37458 -0.00649623 0)
(0.462634 0.0419486 0)
(0.739912 -0.0719197 0)
(0.323944 -0.073768 0)
(0.0795898 -0.0812937 0)
(0.0658108 -0.0870377 0)
(0.0696776 -0.0870948 0)
(0.0812256 -0.0841982 0)
(0.094534 -0.081835 0)
(0.10481 -0.0804957 0)
(0.11243 -0.0805364 0)
(0.116972 -0.0815349 0)
(0.118584 -0.0830053 0)
(0.116934 -0.0845652 0)
(0.110307 -0.0859673 0)
(0.0946136 -0.0870808 0)
(0.066163 -0.0878673 0)
(0.0318829 -0.0883338 0)
(0.008541 -0.0885171 0)
(0.000939126 -0.0885476 0)
(2.83342e-05 -0.0885489 0)
(-2.8627e-05 -0.0885489 0)
(-0.000955028 -0.0885462 0)
(-0.00872803 -0.0884821 0)
(-0.0327053 -0.088084 0)
(-0.0681145 -0.0871122 0)
(-0.0978151 -0.0856883 0)
(-0.114693 -0.0839773 0)
(-0.1226 -0.0820442 0)
(-0.125928 -0.079914 0)
(-0.126831 -0.0776025 0)
(-0.12614 -0.0751213 0)
(-0.124152 -0.0724793 0)
(-0.120838 -0.0696937 0)
(-0.115077 -0.0668226 0)
(-0.103049 -0.0639902 0)
(-0.0802352 -0.0612181 0)
(-0.0690027 -0.0578047 0)
(-0.304276 -0.0536261 0)
(-0.633717 -0.0454349 0)
(-0.365592 -0.0243168 0)
(0.398253 -0.00336947 0)
(0.677298 -0.0961584 0)
(0.319845 -0.0973636 0)
(0.0662864 -0.106825 0)
(0.0587639 -0.115737 0)
(0.0729468 -0.115165 0)
(0.0856587 -0.109948 0)
(0.0968325 -0.106726 0)
(0.105603 -0.104975 0)
(0.112092 -0.104614 0)
(0.115964 -0.105145 0)
(0.117289 -0.106152 0)
(0.115639 -0.107301 0)
(0.109161 -0.108433 0)
(0.0936634 -0.109507 0)
(0.0654245 -0.110526 0)
(0.0314246 -0.111378 0)
(0.00836946 -0.111801 0)
(0.000911704 -0.111879 0)
(2.71429e-05 -0.111882 0)
(-2.69733e-05 -0.111882 0)
(-0.000914327 -0.111878 0)
(-0.00845293 -0.11178 0)
(-0.0319162 -0.111203 0)
(-0.0667922 -0.109904 0)
(-0.0961664 -0.108187 0)
(-0.112859 -0.106317 0)
(-0.120627 -0.104358 0)
(-0.123831 -0.102323 0)
(-0.124617 -0.100218 0)
(-0.123811 -0.0980447 0)
(-0.121717 -0.0958039 0)
(-0.118334 -0.0935115 0)
(-0.112599 -0.0912679 0)
(-0.100642 -0.0891829 0)
(-0.0772927 -0.0871786 0)
(-0.0653507 -0.0835525 0)
(-0.298068 -0.08056 0)
(-0.618046 -0.0714419 0)
(-0.35423 -0.0523515 0)
(0.37322 -0.0609998 0)
(0.649335 -0.111589 0)
(0.313665 -0.12001 0)
(0.0618847 -0.125111 0)
(0.0577737 -0.12765 0)
(0.075256 -0.127056 0)
(0.0893579 -0.122819 0)
(0.0993264 -0.119672 0)
(0.106846 -0.117735 0)
(0.112266 -0.117036 0)
(0.115489 -0.117132 0)
(0.116506 -0.117688 0)
(0.114736 -0.118476 0)
(0.108181 -0.119414 0)
(0.0925965 -0.12053 0)
(0.0643601 -0.121844 0)
(0.0306548 -0.123098 0)
(0.00805897 -0.123749 0)
(0.0008608 -0.123869 0)
(2.49424e-05 -0.123874 0)
(-2.46254e-05 -0.123874 0)
(-0.000857053 -0.123869 0)
(-0.00807793 -0.123741 0)
(-0.0308969 -0.122999 0)
(-0.0652084 -0.121412 0)
(-0.0943583 -0.119474 0)
(-0.111003 -0.117523 0)
(-0.118752 -0.115603 0)
(-0.121939 -0.113701 0)
(-0.122708 -0.111811 0)
(-0.121886 -0.109931 0)
(-0.119784 -0.108053 0)
(-0.116467 -0.10622 0)
(-0.110906 -0.104561 0)
(-0.0991082 -0.103149 0)
(-0.0748096 -0.101863 0)
(-0.0626248 -0.0985437 0)
(-0.292606 -0.0973262 0)
(-0.606534 -0.0866502 0)
(-0.347195 -0.077722 0)
(0.349503 -0.0771651 0)
(0.620434 -0.110758 0)
(0.306815 -0.1255 0)
(0.0589236 -0.130382 0)
(0.0568898 -0.133262 0)
(0.0776021 -0.13169 0)
(0.0927735 -0.127687 0)
(0.101732 -0.124702 0)
(0.108144 -0.122935 0)
(0.112673 -0.122166 0)
(0.115336 -0.122073 0)
(0.115995 -0.122397 0)
(0.113975 -0.123042 0)
(0.107181 -0.123975 0)
(0.091322 -0.125248 0)
(0.0629497 -0.126895 0)
(0.0295889 -0.128529 0)
(0.00762614 -0.129375 0)
(0.000790979 -0.129527 0)
(2.20205e-05 -0.129534 0)
(-2.17427e-05 -0.129534 0)
(-0.000785791 -0.129527 0)
(-0.00761446 -0.129375 0)
(-0.0296716 -0.12849 0)
(-0.0633955 -0.126644 0)
(-0.0924191 -0.124512 0)
(-0.109129 -0.122495 0)
(-0.116944 -0.120601 0)
(-0.120177 -0.118786 0)
(-0.120984 -0.117031 0)
(-0.12019 -0.115314 0)
(-0.11814 -0.113663 0)
(-0.114969 -0.112051 0)
(-0.109639 -0.11074 0)
(-0.0980425 -0.109607 0)
(-0.0728551 -0.108622 0)
(-0.0609785 -0.106443 0)
(-0.286607 -0.106418 0)
(-0.599154 -0.091883 0)
(-0.345626 -0.0915584 0)
(0.340848 -0.095052 0)
(0.602759 -0.10415 0)
(0.294755 -0.127948 0)
(0.0544047 -0.134114 0)
(0.056513 -0.135112 0)
(0.0806283 -0.132266 0)
(0.096092 -0.128299 0)
(0.103906 -0.12575 0)
(0.10929 -0.124121 0)
(0.113096 -0.123477 0)
(0.115267 -0.123345 0)
(0.115573 -0.12365 0)
(0.113215 -0.124311 0)
(0.106055 -0.125358 0)
(0.0897819 -0.126862 0)
(0.0611978 -0.12885 0)
(0.0282649 -0.130818 0)
(0.0070975 -0.131813 0)
(0.000708417 -0.131984 0)
(1.87239e-05 -0.131991 0)
(-1.85502e-05 -0.131991 0)
(-0.000704319 -0.131985 0)
(-0.007078 -0.131816 0)
(-0.0282651 -0.130814 0)
(-0.0613751 -0.128737 0)
(-0.0903598 -0.126425 0)
(-0.107235 -0.124346 0)
(-0.115179 -0.122471 0)
(-0.118498 -0.120719 0)
(-0.119362 -0.119041 0)
(-0.11864 -0.117457 0)
(-0.116639 -0.115882 0)
(-0.11365 -0.114528 0)
(-0.108551 -0.113232 0)
(-0.0970677 -0.112247 0)
(-0.071761 -0.11127 0)
(-0.0605004 -0.110898 0)
(-0.278575 -0.111334 0)
(-0.592215 -0.0921985 0)
(-0.346883 -0.0970063 0)
(0.340736 -0.102251 0)
(0.588734 -0.101199 0)
(0.277941 -0.132668 0)
(0.0520209 -0.136369 0)
(0.0586703 -0.133542 0)
(0.0841673 -0.12958 0)
(0.0990527 -0.126504 0)
(0.105758 -0.124202 0)
(0.110335 -0.123092 0)
(0.11342 -0.122458 0)
(0.115169 -0.122495 0)
(0.115064 -0.122907 0)
(0.112328 -0.12373 0)
(0.104724 -0.124968 0)
(0.0879575 -0.126723 0)
(0.0591369 -0.129025 0)
(0.0267334 -0.131268 0)
(0.00650231 -0.132365 0)
(0.000619275 -0.132544 0)
(1.53657e-05 -0.132551 0)
(-1.52844e-05 -0.132551 0)
(-0.0006169 -0.132545 0)
(-0.00648632 -0.132368 0)
(-0.0267044 -0.131279 0)
(-0.0591659 -0.128998 0)
(-0.0881883 -0.126516 0)
(-0.105319 -0.124379 0)
(-0.113448 -0.122519 0)
(-0.116872 -0.120809 0)
(-0.117841 -0.119221 0)
(-0.117146 -0.117662 0)
(-0.115318 -0.116351 0)
(-0.112415 -0.114899 0)
(-0.107441 -0.113959 0)
(-0.096152 -0.112606 0)
(-0.0715547 -0.111978 0)
(-0.0610397 -0.112999 0)
(-0.268587 -0.113945 0)
(-0.585348 -0.0913176 0)
(-0.350259 -0.095397 0)
(0.341862 -0.106998 0)
(0.573448 -0.100879 0)
(0.260864 -0.134915 0)
(0.053563 -0.133851 0)
(0.063055 -0.128738 0)
(0.08741 -0.124526 0)
(0.101274 -0.122499 0)
(0.107194 -0.121238 0)
(0.110971 -0.120181 0)
(0.113672 -0.120051 0)
(0.114833 -0.120188 0)
(0.114383 -0.120855 0)
(0.11123 -0.121879 0)
(0.103171 -0.123327 0)
(0.0858721 -0.125309 0)
(0.0568178 -0.127879 0)
(0.0250469 -0.130335 0)
(0.00586747 -0.131491 0)
(0.000528771 -0.13167 0)
(1.21817e-05 -0.131676 0)
(-1.21564e-05 -0.131676 0)
(-0.000527777 -0.13167 0)
(-0.00585818 -0.131493 0)
(-0.0250175 -0.130348 0)
(-0.0567855 -0.127892 0)
(-0.0859085 -0.125248 0)
(-0.103383 -0.123054 0)
(-0.111738 -0.121209 0)
(-0.11532 -0.119563 0)
(-0.116329 -0.118006 0)
(-0.115875 -0.116667 0)
(-0.113977 -0.115223 0)
(-0.111345 -0.114316 0)
(-0.106341 -0.112925 0)
(-0.0951592 -0.111754 0)
(-0.0721394 -0.1113 0)
(-0.0623954 -0.113251 0)
(-0.257683 -0.1149 0)
(-0.574342 -0.0902118 0)
(-0.350814 -0.0934442 0)
(0.346632 -0.104465 0)
(0.561832 -0.0988753 0)
(0.246168 -0.131053 0)
(0.057973 -0.126851 0)
(0.0676561 -0.121658 0)
(0.0901789 -0.117835 0)
(0.102221 -0.11749 0)
(0.107992 -0.116534 0)
(0.111479 -0.116487 0)
(0.113413 -0.116402 0)
(0.114394 -0.116946 0)
(0.113434 -0.117762 0)
(0.109947 -0.118965 0)
(0.101419 -0.120553 0)
(0.0835707 -0.1227 0)
(0.0542937 -0.12548 0)
(0.0232528 -0.128093 0)
(0.00521608 -0.129271 0)
(0.000441033 -0.129442 0)
(9.32916e-06 -0.129447 0)
(-9.32795e-06 -0.129447 0)
(-0.000440815 -0.129442 0)
(-0.00521233 -0.129272 0)
(-0.0232339 -0.128102 0)
(-0.0542516 -0.125503 0)
(-0.0835267 -0.122711 0)
(-0.101427 -0.120478 0)
(-0.110084 -0.118686 0)
(-0.113785 -0.117115 0)
(-0.115051 -0.115722 0)
(-0.114465 -0.114359 0)
(-0.113052 -0.113339 0)
(-0.1102 -0.111974 0)
(-0.104973 -0.111022 0)
(-0.0945861 -0.109284 0)
(-0.072997 -0.109298 0)
(-0.0645085 -0.111628 0)
(-0.246386 -0.113464 0)
(-0.564673 -0.0883486 0)
(-0.353374 -0.0891088 0)
(0.347248 -0.0974649 0)
(0.547827 -0.0953521 0)
(0.233906 -0.123752 0)
(0.0626158 -0.118602 0)
(0.0717435 -0.114376 0)
(0.091427 -0.110914 0)
(0.102528 -0.111538 0)
(0.10816 -0.11145 0)
(0.111099 -0.111739 0)
(0.11323 -0.112198 0)
(0.113523 -0.112858 0)
(0.112437 -0.113769 0)
(0.10854 -0.114937 0)
(0.0995716 -0.116505 0)
(0.0811239 -0.1187 0)
(0.051621 -0.121616 0)
(0.0213938 -0.12433 0)
(0.00456757 -0.125499 0)
(0.000359165 -0.125656 0)
(6.89684e-06 -0.125661 0)
(-6.90154e-06 -0.125661 0)
(-0.000359245 -0.125656 0)
(-0.00456697 -0.1255 0)
(-0.0213854 -0.124335 0)
(-0.0515907 -0.121634 0)
(-0.0810667 -0.118733 0)
(-0.0995042 -0.116526 0)
(-0.108498 -0.114887 0)
(-0.112465 -0.113551 0)
(-0.113673 -0.112341 0)
(-0.113578 -0.11122 0)
(-0.111679 -0.110104 0)
(-0.109112 -0.108923 0)
(-0.103749 -0.1078 0)
(-0.093498 -0.10593 0)
(-0.0743984 -0.106838 0)
(-0.0664099 -0.10911 0)
(-0.23525 -0.111311 0)
(-0.550872 -0.0869829 0)
(-0.351546 -0.0845141 0)
(0.348668 -0.0853934 0)
(0.5365 -0.086819 0)
(0.223763 -0.112189 0)
(0.0670079 -0.108645 0)
(0.0750648 -0.104514 0)
(0.0929137 -0.102497 0)
(0.101705 -0.103117 0)
(0.107799 -0.104224 0)
(0.110758 -0.104871 0)
(0.112335 -0.105898 0)
(0.11288 -0.106718 0)
(0.111431 -0.1077 0)
(0.10731 -0.108821 0)
(0.0977925 -0.110281 0)
(0.0786455 -0.112405 0)
(0.0488681 -0.115355 0)
(0.0195109 -0.11809 0)
(0.0039383 -0.119213 0)
(0.000285315 -0.119352 0)
(4.91491e-06 -0.119355 0)
(-4.91867e-06 -0.119355 0)
(-0.000285437 -0.119352 0)
(-0.00393887 -0.119213 0)
(-0.019509 -0.118092 0)
(-0.048853 -0.115365 0)
(-0.078604 -0.112434 0)
(-0.0977212 -0.110329 0)
(-0.107217 -0.10887 0)
(-0.111332 -0.107709 0)
(-0.112805 -0.106623 0)
(-0.112309 -0.105612 0)
(-0.110838 -0.104259 0)
(-0.10798 -0.103183 0)
(-0.102089 -0.101383 0)
(-0.0936597 -0.10011 0)
(-0.0760615 -0.100652 0)
(-0.0688181 -0.103656 0)
(-0.225063 -0.105015 0)
(-0.53885 -0.0812428 0)
(-0.350995 -0.0769605 0)
(0.345875 -0.0757933 0)
(0.522006 -0.0811458 0)
(0.212874 -0.10283 0)
(0.070012 -0.10047 0)
(0.0776674 -0.0964853 0)
(0.0927727 -0.0930384 0)
(0.100864 -0.0934486 0)
(0.10647 -0.0929601 0)
(0.109486 -0.0936787 0)
(0.11145 -0.0941643 0)
(0.111786 -0.0951374 0)
(0.11041 -0.0961998 0)
(0.106053 -0.0973908 0)
(0.0961179 -0.0988362 0)
(0.0762343 -0.100919 0)
(0.0461428 -0.103849 0)
(0.0176768 -0.106537 0)
(0.00335217 -0.107581 0)
(0.000221724 -0.107699 0)
(3.38713e-06 -0.107701 0)
(-3.38891e-06 -0.107701 0)
(-0.000221802 -0.107699 0)
(-0.00335283 -0.10758 0)
(-0.0176777 -0.106536 0)
(-0.0461383 -0.103852 0)
(-0.0762134 -0.100935 0)
(-0.0960704 -0.0988756 0)
(-0.105973 -0.0974578 0)
(-0.110299 -0.0962882 0)
(-0.111652 -0.0952296 0)
(-0.1113 -0.0942206 0)
(-0.109338 -0.0936564 0)
(-0.106341 -0.0927716 0)
(-0.100788 -0.0930515 0)
(-0.0927929 -0.0922761 0)
(-0.0778157 -0.0951452 0)
(-0.0706145 -0.0985763 0)
(-0.213651 -0.0997747 0)
(-0.523838 -0.0782908 0)
(-0.34742 -0.0711916 0)
(0.34351 -0.0510423 0)
(0.510447 -0.0669732 0)
(0.205141 -0.0863191 0)
(0.0731217 -0.0860647 0)
(0.0822265 -0.0829414 0)
(0.09584 -0.0783047 0)
(0.10178 -0.0763858 0)
(0.107577 -0.0744336 0)
(0.109598 -0.0728802 0)
(0.110929 -0.0719199 0)
(0.110918 -0.0716793 0)
(0.10926 -0.0725841 0)
(0.10477 -0.0744265 0)
(0.094393 -0.076898 0)
(0.073815 -0.0798189 0)
(0.0434544 -0.0830422 0)
(0.015915 -0.0855755 0)
(0.00281841 -0.0864676 0)
(0.000168808 -0.0865593 0)
(2.26492e-06 -0.0865612 0)
(-2.26547e-06 -0.0865612 0)
(-0.000168841 -0.0865593 0)
(-0.00281881 -0.0864675 0)
(-0.0159163 -0.085575 0)
(-0.0434549 -0.083042 0)
(-0.0738084 -0.0798245 0)
(-0.0943708 -0.0769194 0)
(-0.104724 -0.0744747 0)
(-0.109185 -0.072669 0)
(-0.110813 -0.0718057 0)
(-0.110793 -0.0720843 0)
(-0.109442 -0.0730791 0)
(-0.107397 -0.0746471 0)
(-0.101611 -0.0765873 0)
(-0.0956772 -0.0784527 0)
(-0.0821325 -0.0829671 0)
(-0.0732793 -0.0859347 0)
(-0.205516 -0.0857149 0)
(-0.511307 -0.0662001 0)
(-0.344154 -0.0490577 0)
(0.330523 -0.0176376 0)
(0.488012 -0.050814 0)
(0.194476 -0.0689805 0)
(0.0732668 -0.0729431 0)
(0.0851453 -0.0731717 0)
(0.09909 -0.0706282 0)
(0.104594 -0.0688367 0)
(0.109848 -0.0668405 0)
(0.111908 -0.0650679 0)
(0.112607 -0.0633559 0)
(0.111146 -0.0622373 0)
(0.107763 -0.0618589 0)
(0.101896 -0.0625609 0)
(0.0909216 -0.064485 0)
(0.0703136 -0.067653 0)
(0.0405955 -0.0715664 0)
(0.014376 -0.0744757 0)
(0.00240419 -0.0753714 0)
(0.00013153 -0.0754495 0)
(1.55685e-06 -0.0754509 0)
(-1.55694e-06 -0.0754509 0)
(-0.000131538 -0.0754495 0)
(-0.00240434 -0.0753714 0)
(-0.0143768 -0.0744754 0)
(-0.0405969 -0.0715655 0)
(-0.0703134 -0.0676535 0)
(-0.0909152 -0.0644923 0)
(-0.101877 -0.0625834 0)
(-0.107727 -0.0619065 0)
(-0.111089 -0.0623187 0)
(-0.112527 -0.0634793 0)
(-0.111808 -0.0652408 0)
(-0.109722 -0.0670576 0)
(-0.104455 -0.0691087 0)
(-0.0989407 -0.0709176 0)
(-0.0850256 -0.0734976 0)
(-0.0732624 -0.0732283 0)
(-0.194634 -0.0691055 0)
(-0.488514 -0.0507764 0)
(-0.3309 -0.0171519 0)
(0.31154 -0.106828 0)
(0.460971 -0.171233 0)
(0.183817 -0.184139 0)
(0.0690829 -0.195506 0)
(0.0844573 -0.207135 0)
(0.100017 -0.216208 0)
(0.10543 -0.228054 0)
(0.111209 -0.239645 0)
(0.112956 -0.251462 0)
(0.113657 -0.263622 0)
(0.112361 -0.274869 0)
(0.108948 -0.28449 0)
(0.102239 -0.291956 0)
(0.0894861 -0.297961 0)
(0.066991 -0.304006 0)
(0.0368798 -0.310399 0)
(0.0122484 -0.314665 0)
(0.00188 -0.315799 0)
(9.22174e-05 -0.315882 0)
(9.60571e-07 -0.315884 0)
(-9.60564e-07 -0.315884 0)
(-9.22187e-05 -0.315882 0)
(-0.00188006 -0.315799 0)
(-0.0122488 -0.314665 0)
(-0.036881 -0.310399 0)
(-0.0669925 -0.304005 0)
(-0.0894851 -0.297962 0)
(-0.102232 -0.291966 0)
(-0.10893 -0.284515 0)
(-0.112328 -0.274918 0)
(-0.113608 -0.263705 0)
(-0.11289 -0.251586 0)
(-0.111124 -0.239811 0)
(-0.105331 -0.228274 0)
(-0.0999065 -0.216467 0)
(-0.0843591 -0.207441 0)
(-0.0690469 -0.195807 0)
(-0.18388 -0.184377 0)
(-0.461242 -0.171331 0)
(-0.311752 -0.106625 0)
(0.268459 -0.288219 0)
(0.413512 -0.429392 0)
(0.171086 -0.47855 0)
(0.0511072 -0.508143 0)
(0.0651958 -0.532959 0)
(0.0789317 -0.546054 0)
(0.0820093 -0.562317 0)
(0.0872903 -0.575128 0)
(0.0888026 -0.590069 0)
(0.0900521 -0.599831 0)
(0.0910377 -0.610835 0)
(0.0912962 -0.618151 0)
(0.0889145 -0.625868 0)
(0.0793106 -0.635751 0)
(0.0583271 -0.650609 0)
(0.030324 -0.666458 0)
(0.00917232 -0.674918 0)
(0.00123094 -0.676594 0)
(5.05117e-05 -0.676685 0)
(4.23348e-07 -0.676686 0)
(-4.23315e-07 -0.676686 0)
(-5.05096e-05 -0.676685 0)
(-0.00123092 -0.676594 0)
(-0.00917235 -0.674918 0)
(-0.0303245 -0.666457 0)
(-0.058329 -0.650607 0)
(-0.0793142 -0.635749 0)
(-0.0889189 -0.625868 0)
(-0.0912994 -0.618158 0)
(-0.0910363 -0.610855 0)
(-0.0900436 -0.599873 0)
(-0.0887822 -0.590142 0)
(-0.0872571 -0.575241 0)
(-0.0819603 -0.562481 0)
(-0.0788656 -0.546274 0)
(-0.0651172 -0.53324 0)
(-0.0510368 -0.508464 0)
(-0.171048 -0.478862 0)
(-0.413589 -0.42964 0)
(-0.268547 -0.288243 0)
(0.175501 -0.186696 0)
(0.277561 -0.283162 0)
(0.107929 -0.327777 0)
(0.0166525 -0.348702 0)
(0.0479245 -0.363532 0)
(0.0717268 -0.366625 0)
(0.0774138 -0.371008 0)
(0.0844663 -0.371394 0)
(0.0891509 -0.373939 0)
(0.0936456 -0.371032 0)
(0.0947067 -0.37021 0)
(0.0944615 -0.367225 0)
(0.0852791 -0.366925 0)
(0.0656454 -0.370997 0)
(0.0374011 -0.381106 0)
(0.0134544 -0.392713 0)
(0.00248102 -0.398612 0)
(0.000177592 -0.399657 0)
(3.56712e-06 -0.399705 0)
(1.40698e-08 -0.399706 0)
(-1.40684e-08 -0.399706 0)
(-3.56694e-06 -0.399705 0)
(-0.000177588 -0.399657 0)
(-0.002481 -0.398612 0)
(-0.0134543 -0.392713 0)
(-0.0374012 -0.381105 0)
(-0.0656457 -0.370995 0)
(-0.0852798 -0.366921 0)
(-0.0944628 -0.367219 0)
(-0.0947087 -0.370204 0)
(-0.0936482 -0.37103 0)
(-0.0891539 -0.373944 0)
(-0.0844696 -0.371416 0)
(-0.0774168 -0.371052 0)
(-0.0717289 -0.366701 0)
(-0.0479235 -0.363646 0)
(-0.0166462 -0.348858 0)
(-0.107923 -0.327957 0)
(-0.277555 -0.283351 0)
(-0.175498 -0.18679 0)
(0.175501 0.186696 0)
(0.277561 0.283162 0)
(0.107929 0.327777 0)
(0.0166525 0.348702 0)
(0.0479245 0.363532 0)
(0.0717268 0.366625 0)
(0.0774138 0.371008 0)
(0.0844663 0.371394 0)
(0.0891509 0.373939 0)
(0.0936456 0.371032 0)
(0.0947067 0.37021 0)
(0.0944615 0.367225 0)
(0.0852791 0.366925 0)
(0.0656454 0.370997 0)
(0.0374011 0.381106 0)
(0.0134544 0.392713 0)
(0.00248102 0.398612 0)
(0.000177592 0.399657 0)
(3.56712e-06 0.399705 0)
(1.40697e-08 0.399706 0)
(-1.40685e-08 0.399706 0)
(-3.56694e-06 0.399705 0)
(-0.000177588 0.399657 0)
(-0.002481 0.398612 0)
(-0.0134543 0.392713 0)
(-0.0374012 0.381105 0)
(-0.0656457 0.370995 0)
(-0.0852798 0.366921 0)
(-0.0944628 0.367219 0)
(-0.0947087 0.370204 0)
(-0.0936482 0.37103 0)
(-0.0891539 0.373944 0)
(-0.0844696 0.371416 0)
(-0.0774168 0.371052 0)
(-0.0717289 0.366701 0)
(-0.0479235 0.363646 0)
(-0.0166462 0.348858 0)
(-0.107923 0.327957 0)
(-0.277555 0.283351 0)
(-0.175498 0.18679 0)
(0.268459 0.288219 0)
(0.413512 0.429392 0)
(0.171086 0.47855 0)
(0.0511072 0.508143 0)
(0.0651958 0.532959 0)
(0.0789317 0.546054 0)
(0.0820093 0.562317 0)
(0.0872903 0.575128 0)
(0.0888026 0.590069 0)
(0.0900521 0.599831 0)
(0.0910377 0.610835 0)
(0.0912962 0.618151 0)
(0.0889145 0.625868 0)
(0.0793106 0.635751 0)
(0.0583271 0.650609 0)
(0.030324 0.666458 0)
(0.00917232 0.674918 0)
(0.00123094 0.676594 0)