/*--------------------------------*- C++ -*----------------------------------*\
| =========                 |                                                 |
| \\      /  F ield         | OpenFOAM: The Open Source CFD Toolbox           |
|  \\    /   O peration     | Version:  v1912                                 |
|   \\  /    A nd           | Website:  www.openfoam.com                      |
|    \\/     M anipulation  |                                                 |
\*---------------------------------------------------------------------------*/
FoamFile
{
    version     2.0;
    format      ascii;
    class       volScalarField;
    location    "4.14";
    object      T;
}
// * * * * * * * * * * * * * * * * * * * * * * * * * * * * * * * * * * * * * //

dimensions      [0 0 0 1 0 0 0];


internalField   nonuniform List<scalar> 
1900
(
1.17234
0.997499
1.02227
1.03529
1.0338
1.02914
1.02386
1.01964
1.01672
1.01441
1.17234
0.9975
1.02227
1.0353
1.03382
1.02921
1.02397
1.01974
1.01615
1.01282
1.17234
0.997499
1.02227
1.0353
1.03381
1.02918
1.02395
1.01974
1.0162
1.01239
1.17234
0.9975
1.02227
1.0353
1.03382
1.02921
1.02397
1.01974
1.01615
1.01282
1.17234
0.997499
1.02227
1.03529
1.0338
1.02914
1.02386
1.01964
1.01672
1.01441
1.00831
0.996704
0.977844
0.952918
0.924048
1.00569
0.993521
0.974359
0.948963
0.919436
1.00502
0.992863
0.973593
0.948641
0.919835
1.00569
0.993521
0.974359
0.948963
0.919436
1.00831
0.996704
0.977844
0.952918
0.924048
0.870979
0.824706
0.787192
0.758956
0.744996
0.87237
0.825896
0.788768
0.760264
0.741094
0.872348
0.825709
0.788342
0.759202
0.737685
0.87237
0.825896
0.788768
0.760264
0.741094
0.870979
0.824706
0.787192
0.758956
0.744996
0.714534
0.62132
0.667635
0.704807
0.696335
0.683345
0.669396
0.653058
0.642557
0.634173
0.62958
0.625943
0.622931
0.620435
0.618415
0.616786
0.615477
0.614421
0.613581
0.612868
0.612289
0.611803
0.611346
0.610937
0.610562
0.61024
0.609977
0.609762
0.609542
0.609253
0.608766
0.608169
0.607331
0.606778
0.60585
0.605262
0.60421
0.602629
0.558343
0.456967
0.719799
0.64248
0.67631
0.708872
0.698406
0.684128
0.669789
0.653107
0.642662
0.634194
0.629605
0.62596
0.622945
0.620446
0.618425
0.616795
0.615486
0.614429
0.613588
0.612876
0.612296
0.61181
0.611352
0.610943
0.610567
0.610245
0.609982
0.609766
0.609547
0.609257
0.608771
0.608173
0.607336
0.606787
0.605858
0.605289
0.604248
0.602698
0.558796
0.45737
0.715239
0.660206
0.689152
0.71357
0.699843
0.684492
0.669974
0.653176
0.642688
0.634216
0.629622
0.625969
0.622953
0.620452
0.618429
0.616799
0.615489
0.614433
0.613592
0.612879
0.612299
0.611813
0.611355
0.610945
0.61057
0.610248
0.609985
0.609769
0.609551
0.609263
0.60878
0.608186
0.607359
0.606824
0.605917
0.605387
0.604406
0.602921
0.559341
0.459219
0.719799
0.64248
0.67631
0.708872
0.698406
0.684128
0.669789
0.653107
0.642662
0.634194
0.629605
0.62596
0.622945
0.620446
0.618425
0.616795
0.615486
0.614429
0.613588
0.612876
0.612296
0.61181
0.611352
0.610943
0.610567
0.610245
0.609982
0.609766
0.609547
0.609257
0.608771
0.608173
0.607336
0.606787
0.605858
0.605289
0.604248
0.602698
0.558796
0.45737
0.714534
0.62132
0.667635
0.704807
0.696335
0.683345
0.669396
0.653058
0.642557
0.634173
0.62958
0.625943
0.622931
0.620435
0.618415
0.616786
0.615477
0.614421
0.613581
0.612868
0.612289
0.611803
0.611346
0.610937
0.610562
0.61024
0.609977
0.609762
0.609542
0.609253
0.608766
0.608169
0.607331
0.606778
0.60585
0.605262
0.60421
0.602629
0.558343
0.456967
0.58974
0.574102
0.649547
0.692353
0.690056
0.680174
0.667489
0.652466
0.641855
0.633957
0.629399
0.625795
0.622807
0.620334
0.618332
0.616713
0.615411
0.614359
0.613522
0.612813
0.612236
0.611752
0.611296
0.610886
0.610511
0.610188
0.609922
0.609704
0.609481
0.609191
0.608702
0.608109
0.607271
0.606697
0.605778
0.605128
0.604075
0.602458
0.558133
0.462408
0.480249
0.569581
0.646946
0.674145
0.677931
0.672352
0.662612
0.650211
0.64016
0.633441
0.62898
0.62546
0.622534
0.620119
0.618154
0.616557
0.615269
0.614228
0.6134
0.612698
0.612128
0.611648
0.611195
0.610787
0.610411
0.610086
0.609817
0.609594
0.609365
0.609076
0.608586
0.608001
0.607164
0.606542
0.605613
0.604831
0.603727
0.602091
0.558032
0.456267
0.456673
0.583869
0.643023
0.661621
0.666503
0.663632
0.656329
0.646516
0.638179
0.632474
0.628314
0.624948
0.622132
0.619801
0.61789
0.616325
0.615058
0.614034
0.613221
0.61253
0.61197
0.611498
0.611048
0.610642
0.610265
0.609936
0.609661
0.609431
0.609191
0.608901
0.608406
0.607831
0.606996
0.606298
0.605343
0.604396
0.603213
0.601561
0.558783
0.456821
0.455758
0.589368
0.63655
0.650782
0.656562
0.65507
0.649599
0.642441
0.63593
0.631212
0.627431
0.624288
0.621627
0.6194
0.617555
0.616032
0.614795
0.613795
0.613002
0.612327
0.611779
0.611317
0.610873
0.610469
0.61009
0.609756
0.609471
0.60923
0.608974
0.608686
0.608186
0.607618
0.606778
0.605986
0.604983
0.603876
0.602592
0.60094
0.558723
0.456553
0.457455
0.587662
0.630893
0.64128
0.647335
0.647072
0.643384
0.638363
0.633597
0.629724
0.626391
0.623513
0.621038
0.61893
0.61716
0.615689
0.614491
0.613522
0.612756
0.612102
0.611571
0.611121
0.610682
0.61028
0.609897
0.609556
0.609256
0.609001
0.608722
0.608433
0.607919
0.607349
0.606488
0.605577
0.604483
0.603204
0.601803
0.60018
0.558859
0.456817
0.458984
0.583474
0.62453
0.633279
0.639063
0.640058
0.637993
0.634736
0.631327
0.628184
0.625284
0.622686
0.620397
0.618411
0.616723
0.615313
0.614162
0.613233
0.612501
0.611871
0.611361
0.610925
0.610492
0.61009
0.609702
0.60935
0.609032
0.608762
0.60846
0.608177
0.607656
0.607079
0.606199
0.605171
0.603981
0.602563
0.601043
0.599449
0.558602
0.456526
0.462989
0.580271
0.619305
0.626784
0.632115
0.633997
0.633226
0.631441
0.629059
0.626561
0.624098
0.62179
0.619693
0.617839
0.616244
0.614905
0.613813
0.612933
0.612243
0.611643
0.611155
0.610735
0.610307
0.609903
0.609506
0.609137
0.608793
0.608501
0.608161
0.607879
0.607339
0.606736
0.605818
0.604658
0.603338
0.601769
0.600125
0.598693
0.559887
0.457302
0.456932
0.576818
0.614344
0.620722
0.626185
0.628914
0.629385
0.628697
0.627119
0.625145
0.623035
0.620957
0.619007
0.617257
0.615742
0.614473
0.613443
0.612617
0.611973
0.611407
0.610945
0.610542
0.61012
0.609715
0.60931
0.60893
0.608569
0.608274
0.607918
0.607668
0.60714
0.606524
0.605595
0.604313
0.602849
0.601134
0.599331
0.597951
0.560017
0.457286
0.456422
0.574709
0.610403
0.615887
0.62143
0.624636
0.625976
0.626096
0.625112
0.623617
0.621833
0.619983
0.618184
0.616553
0.615136
0.613953
0.612998
0.612237
0.611646
0.611117
0.610684
0.610299
0.60988
0.609471
0.609051
0.608654
0.608258
0.607945
0.607556
0.607321
0.606786
0.606114
0.605148
0.603722
0.602074
0.600225
0.598284
0.597128
0.562261
0.457636
0.455132
0.571831
0.606384
0.611196
0.617103
0.620861
0.623013
0.623838
0.623377
0.622369
0.620846
0.619165
0.617449
0.61588
0.614513
0.613384
0.612484
0.611775
0.61123
0.610735
0.610331
0.60997
0.609565
0.609167
0.608755
0.60837
0.607982
0.6077
0.607329
0.607127
0.606604
0.605838
0.604787
0.603124
0.601183
0.598984
0.596811
0.595685
0.561967
0.457415
0.453892
0.569937
0.603276
0.607579
0.613775
0.617725
0.620396
0.621603
0.621554
0.620888
0.619545
0.61801
0.616382
0.614909
0.61362
0.612571
0.611746
0.611103
0.610611
0.610152
0.609781
0.609442
0.609045
0.608652
0.608237
0.607853
0.607452
0.60718
0.6068
0.606619
0.606123
0.605311
0.604236
0.602425
0.600224
0.597727
0.595443
0.594426
0.562827
0.457026
0.452731
0.567634
0.599882
0.604009
0.609916
0.614252
0.617379
0.618976
0.619393
0.619111
0.618032
0.616722
0.615227
0.613878
0.612685
0.611728
0.610979
0.610395
0.609946
0.609518
0.60918
0.608871
0.60849
0.608109
0.607693
0.607298
0.606864
0.606561
0.606116
0.605851
0.605267
0.604238
0.603001
0.600895
0.598304
0.595313
0.592788
0.59186
0.561483
0.456173
0.451375
0.564813
0.596328
0.600847
0.606378
0.610914
0.614514
0.616404
0.617268
0.617253
0.616317
0.615164
0.613766
0.612551
0.611473
0.610635
0.609982
0.609469
0.609067
0.608669
0.608365
0.608086
0.607719
0.607347
0.606922
0.606515
0.606041
0.605715
0.605209
0.604869
0.604251
0.603058
0.601728
0.59931
0.596355
0.592715
0.589849
0.588959
0.559266
0.454837
0.450066
0.561509
0.59183
0.596178
0.601862
0.607276
0.611074
0.613192
0.614527
0.614779
0.614057
0.613206
0.611991
0.611025
0.610163
0.609538
0.609079
0.608727
0.608448
0.608122
0.607846
0.607555
0.607125
0.606668
0.606132
0.605611
0.605001
0.604564
0.60393
0.603376
0.602617
0.601034
0.599362
0.596315
0.592634
0.588409
0.58507
0.584232
0.555733
0.453214
0.448776
0.557094
0.586142
0.59032
0.595942
0.602129
0.606411
0.609407
0.61155
0.612005
0.611592
0.611038
0.610017
0.609281
0.608623
0.608189
0.607879
0.607633
0.607413
0.607124
0.606895
0.606636
0.606206
0.605728
0.605131
0.604531
0.603804
0.603228
0.60241
0.601528
0.600477
0.598449
0.596435
0.592687
0.588292
0.583355
0.57945
0.578527
0.551581
0.4518
0.447497
0.553664
0.581053
0.584853
0.590821
0.597378
0.602173
0.605808
0.608254
0.608873
0.608899
0.608535
0.607747
0.607314
0.606882
0.606699
0.606605
0.60658
0.606553
0.606372
0.606144
0.60581
0.605248
0.604626
0.603866
0.603126
0.60226
0.601546
0.600609
0.599446
0.598191
0.595727
0.593204
0.588925
0.583886
0.578723
0.574363
0.573731
0.548926
0.451414
0.449122
0.551048
0.576531
0.579533
0.585671
0.592565
0.598041
0.602691
0.604725
0.6058
0.606311
0.606049
0.605398
0.605202
0.604982
0.605032
0.605142
0.605273
0.605362
0.60524
0.605024
0.60469
0.604058
0.603329
0.602434
0.601564
0.600602
0.59976
0.598697
0.597283
0.595877
0.593257
0.590601
0.58608
0.580584
0.575004
0.570131
0.569905
0.547426
0.453864
0.455485
0.551918
0.576978
0.579677
0.585247
0.591784
0.597137
0.601706
0.603416
0.604334
0.604723
0.604273
0.603627
0.603378
0.603163
0.603226
0.603377
0.603554
0.603739
0.603745
0.603508
0.603049
0.602347
0.601603
0.60071
0.599858
0.599015
0.598199
0.597348
0.595988
0.594778
0.592275
0.589666
0.5852
0.57968
0.57433
0.5698
0.56942
0.548499
0.461681
0.42738
0.531488
0.560241
0.561011
0.563655
0.567464
0.570817
0.573478
0.573384
0.572321
0.570526
0.566963
0.564922
0.562658
0.561475
0.560395
0.559779
0.559351
0.559212
0.560436
0.560097
0.558413
0.558064
0.55785
0.557998
0.557854
0.558835
0.558684
0.560827
0.560447
0.56189
0.561002
0.559796
0.556632
0.552535
0.549367
0.547282
0.548426
0.524229
0.427701
0.371014
0.432938
0.471379
0.463901
0.461172
0.460789
0.46078
0.460974
0.460564
0.460027
0.459366
0.458585
0.457985
0.457381
0.456762
0.456445
0.456076
0.456514
0.456345
0.456963
0.45689
0.456038
0.45624
0.455369
0.455904
0.455415
0.456018
0.455809
0.456098
0.455751
0.455557
0.455085
0.454274
0.453048
0.451902
0.451247
0.453604
0.46141
0.428195
0.367531
0.371014
0.432938
0.471379
0.463901
0.461172
0.460789
0.46078
0.460974
0.460564
0.460027
0.459366
0.458585
0.457985
0.457381
0.456762
0.456445
0.456076
0.456514
0.456345
0.456963
0.45689
0.456038
0.45624
0.455369
0.455904
0.455415
0.456018
0.455809
0.456098
0.455751
0.455557
0.455085
0.454274
0.453048
0.451902
0.451247
0.453604
0.46141
0.428195
0.367531
0.42738
0.531488
0.560241
0.561011
0.563655
0.567464
0.570817
0.573478
0.573384
0.572321
0.570526
0.566963
0.564922
0.562658
0.561475
0.560395
0.559779
0.559351
0.559212
0.560436
0.560097
0.558413
0.558064
0.55785
0.557998
0.557854
0.558835
0.558684
0.560827
0.560447
0.56189
0.561002
0.559796
0.556632
0.552535
0.549367
0.547282
0.548426
0.524229
0.427701
0.455485
0.551918
0.576978
0.579677
0.585247
0.591784
0.597137
0.601706
0.603416
0.604334
0.604723
0.604273
0.603627
0.603378
0.603163
0.603226
0.603377
0.603554
0.603739
0.603745
0.603508
0.603049
0.602347
0.601603
0.60071
0.599858
0.599015
0.598199
0.597348
0.595988
0.594778
0.592275
0.589666
0.5852
0.57968
0.57433
0.5698
0.56942
0.548499
0.461681
0.449122
0.551048
0.576531
0.579533
0.585671
0.592565
0.598041
0.602691
0.604725
0.6058
0.606311
0.606049
0.605398
0.605202
0.604982
0.605032
0.605142
0.605273
0.605362
0.60524
0.605024
0.60469
0.604058
0.603329
0.602434
0.601564
0.600602
0.59976
0.598697
0.597283
0.595877
0.593257
0.590601
0.58608
0.580584
0.575004
0.570131
0.569905
0.547426
0.453864
0.447497
0.553664
0.581053
0.584853
0.590821
0.597378
0.602173
0.605808
0.608254
0.608873
0.608899
0.608535
0.607747
0.607314
0.606882
0.606699
0.606605
0.60658
0.606553
0.606372
0.606144
0.60581
0.605248
0.604626
0.603866
0.603126
0.60226
0.601546
0.600609
0.599446
0.598191
0.595727
0.593204
0.588925
0.583886
0.578723
0.574363
0.573731
0.548926
0.451414
0.448776
0.557094
0.586142
0.59032
0.595942
0.602129
0.606411
0.609407
0.61155
0.612005
0.611592
0.611038
0.610017
0.609281
0.608623
0.608189
0.607879
0.607633
0.607413
0.607124
0.606895
0.606636
0.606206
0.605728
0.605131
0.604531
0.603804
0.603228
0.60241
0.601528
0.600477
0.598449
0.596435
0.592687
0.588292
0.583355
0.57945
0.578527
0.551581
0.4518
0.450066
0.561509
0.59183
0.596178
0.601862
0.607276
0.611074
0.613192
0.614527
0.614779
0.614057
0.613206
0.611991
0.611025
0.610163
0.609538
0.609079
0.608727
0.608448
0.608122
0.607846
0.607555
0.607125
0.606668
0.606132
0.605611
0.605001
0.604564
0.60393
0.603376
0.602617
0.601034
0.599362
0.596315
0.592634
0.588409
0.58507
0.584232
0.555733
0.453214
0.451375
0.564813
0.596328
0.600847
0.606378
0.610914
0.614514
0.616404
0.617268
0.617253
0.616317
0.615164
0.613766
0.612551
0.611473
0.610635
0.609982
0.609469
0.609067
0.608669
0.608365
0.608086
0.607719
0.607347
0.606922
0.606515
0.606041
0.605715
0.605209
0.604869
0.604251
0.603058
0.601728
0.59931
0.596355
0.592715
0.589849
0.588959
0.559266
0.454837
0.452731
0.567634
0.599882
0.604009
0.609916
0.614252
0.617379
0.618976
0.619393
0.619111
0.618032
0.616722
0.615227
0.613878
0.612685
0.611728
0.610979
0.610395
0.609946
0.609518
0.60918
0.608871
0.60849
0.608109
0.607693
0.607298
0.606864
0.606561
0.606116
0.605851
0.605267
0.604238
0.603001
0.600895
0.598304
0.595313
0.592788
0.59186
0.561483
0.456173
0.453892
0.569937
0.603276
0.607579
0.613775
0.617725
0.620396
0.621603
0.621554
0.620888
0.619545
0.61801
0.616382
0.614909
0.61362
0.612571
0.611746
0.611103
0.610611
0.610152
0.609781
0.609442
0.609045
0.608652
0.608237
0.607853
0.607452
0.60718
0.6068
0.606619
0.606123
0.605311
0.604236
0.602425
0.600224
0.597727
0.595443
0.594426
0.562827
0.457026
0.455132
0.571831
0.606384
0.611196
0.617103
0.620861
0.623013
0.623838
0.623377
0.622369
0.620846
0.619165
0.617449
0.61588
0.614513
0.613384
0.612484
0.611775
0.61123
0.610735
0.610331
0.60997
0.609565
0.609167
0.608755
0.60837
0.607982
0.6077
0.607329
0.607127
0.606604
0.605838
0.604787
0.603124
0.601183
0.598984
0.596811
0.595685
0.561967
0.457415
0.456422
0.574709
0.610403
0.615887
0.62143
0.624636
0.625976
0.626096
0.625112
0.623617
0.621833
0.619983
0.618184
0.616553
0.615136
0.613953
0.612998
0.612237
0.611646
0.611117
0.610684
0.610299
0.60988
0.609471
0.609051
0.608654
0.608258
0.607945
0.607556
0.607321
0.606786
0.606114
0.605148
0.603722
0.602074
0.600225
0.598284
0.597128
0.562261
0.457636
0.456932
0.576818
0.614344
0.620722
0.626185
0.628914
0.629385
0.628697
0.627119
0.625145
0.623035
0.620957
0.619007
0.617257
0.615742
0.614473
0.613443
0.612617
0.611973
0.611407
0.610945
0.610542
0.61012
0.609715
0.60931
0.60893
0.608569
0.608274
0.607918
0.607668
0.60714
0.606524
0.605595
0.604313
0.602849
0.601134
0.599331
0.597951
0.560017
0.457286
0.462989
0.580271
0.619305
0.626784
0.632115
0.633997
0.633226
0.631441
0.629059
0.626561
0.624098
0.62179
0.619693
0.617839
0.616244
0.614905
0.613813
0.612933
0.612243
0.611643
0.611155
0.610735
0.610307
0.609903
0.609506
0.609137
0.608793
0.608501
0.608161
0.607879
0.607339
0.606736
0.605818
0.604658
0.603338
0.601769
0.600125
0.598693
0.559887
0.457302
0.458984
0.583474
0.62453
0.633279
0.639063
0.640058
0.637993
0.634736
0.631327
0.628184
0.625284
0.622686
0.620397
0.618411
0.616723
0.615313
0.614162
0.613233
0.612501
0.611871
0.611361
0.610925
0.610492
0.61009
0.609702
0.60935
0.609032
0.608762
0.60846
0.608177
0.607656
0.607079
0.606199
0.605171
0.603981
0.602563
0.601043
0.599449
0.558602
0.456526
0.457455
0.587662
0.630893
0.64128
0.647335
0.647072
0.643384
0.638363
0.633597
0.629724
0.626391
0.623513
0.621038
0.61893
0.61716
0.615689
0.614491
0.613522
0.612756
0.612102
0.611571
0.611121
0.610682
0.61028
0.609897
0.609556
0.609256
0.609001
0.608722
0.608433
0.607919
0.607349
0.606488
0.605577
0.604483
0.603204
0.601803
0.60018
0.558859
0.456817
0.455758
0.589368
0.63655
0.650782
0.656562
0.65507
0.649599
0.642441
0.63593
0.631212
0.627431
0.624288
0.621627
0.6194
0.617555
0.616032
0.614795
0.613795
0.613002
0.612327
0.611779
0.611317
0.610873
0.610469
0.61009
0.609756
0.609471
0.60923
0.608974
0.608686
0.608186
0.607618
0.606778
0.605986
0.604983
0.603876
0.602592
0.60094
0.558723
0.456553
0.456673
0.583869
0.643023
0.661621
0.666503
0.663632
0.656329
0.646516
0.638179
0.632474
0.628314
0.624948
0.622132
0.619801
0.61789
0.616325
0.615058
0.614034
0.613221
0.61253
0.61197
0.611498
0.611048
0.610642
0.610265
0.609936
0.609661
0.609431
0.609191
0.608901
0.608406
0.607831
0.606996
0.606298
0.605343
0.604396
0.603213
0.601561
0.558783
0.456821
0.480249
0.569581
0.646946
0.674145
0.677931
0.672352
0.662612
0.650211
0.64016
0.633441
0.62898
0.62546
0.622534
0.620119
0.618154
0.616557
0.615269
0.614228
0.6134
0.612698
0.612128
0.611648
0.611195
0.610787
0.610411
0.610086
0.609817
0.609594
0.609365
0.609076
0.608586
0.608001
0.607164
0.606542
0.605613
0.604831
0.603727
0.602091
0.558032
0.456267
0.58974
0.574102
0.649547
0.692353
0.690056
0.680174
0.667489
0.652466
0.641855
0.633957
0.629399
0.625795
0.622807
0.620334
0.618332
0.616713
0.615411
0.614359
0.613522
0.612813
0.612236
0.611752
0.611296
0.610886
0.610511
0.610188
0.609922
0.609704
0.609481
0.609191
0.608702
0.608109
0.607271
0.606697
0.605778
0.605128
0.604075
0.602458
0.558133
0.462408
)
;

boundaryField
{
    inlet
    {
        type            fixedValue;
        value           uniform 1;
    }
    outlet
    {
        type            zeroGradient;
    }
    obstacle
    {
        type            zeroGradient;
    }
    empty
    {
        type            empty;
    }
}


// ************************************************************************* //
