/*--------------------------------*- C++ -*----------------------------------*\
| =========                 |                                                 |
| \\      /  F ield         | OpenFOAM: The Open Source CFD Toolbox           |
|  \\    /   O peration     | Version:  v1912                                 |
|   \\  /    A nd           | Website:  www.openfoam.com                      |
|    \\/     M anipulation  |                                                 |
\*---------------------------------------------------------------------------*/
FoamFile
{
    version     2.0;
    format      ascii;
    class       volScalarField;
    location    "9";
    object      rho;
}
// * * * * * * * * * * * * * * * * * * * * * * * * * * * * * * * * * * * * * //

dimensions      [1 -3 0 0 0 0 0];


internalField   nonuniform List<scalar> 
1900
(
7291.31
11126.5
11701.5
12390.4
12819
12901.9
12799.7
12676.1
12561.7
12447.9
7291.3
11126.5
11701.5
12390.5
12819
12902.2
12799.7
12674.7
12574.7
12450.1
7291.3
11126.5
11701.5
12390.6
12819.3
12903.2
12800
12668.5
12562.4
12432.7
7291.3
11126.5
11701.5
12390.5
12819
12902.2
12799.7
12674.7
12574.7
12450.1
7291.31
11126.5
11701.5
12390.4
12819
12901.9
12799.7
12676.1
12561.7
12447.9
12537.9
12335.9
12173.6
11798.9
11627.8
12369.8
12222.8
12077.2
11719.9
11214
12338
12200.8
12074.6
11762.3
11288.4
12369.8
12222.8
12077.2
11719.9
11214
12537.9
12335.9
12173.6
11798.9
11627.8
6164.96
4202.04
3249.91
2735.46
2184.61
6798.6
4525.37
3434.43
2879.23
2290.65
6985.6
4482.63
3362.41
2819.97
2215.32
6798.6
4525.37
3434.43
2879.23
2290.65
6164.96
4202.04
3249.91
2735.46
2184.61
2434.37
2692.8
2781.87
2802.27
2784.38
2733.95
2635.09
2518.23
2386.52
2269.27
2177.56
2045.61
1891.44
1855.87
1987.56
2606.91
3041
3068.51
3036.88
2949.35
2855.42
2786.58
2744.7
2710.77
2670.52
2604.33
2458.6
3043.87
3224.61
2331.71
1945.27
1991.17
2064.18
2120.82
2187.77
2281.55
2393.91
2515.18
2642.97
2770.38
2205.17
2411
2619.01
2614.51
2577.67
2517.22
2430.48
2335.52
2225.02
2132.12
2059.23
1945.93
1817.56
1789.88
1926.28
2524.04
2965.51
2999.16
2976.86
2909.01
2832.93
2787.92
2761.17
2711.33
2675.63
2612.94
2461.84
3038.85
3224.86
2336.31
1946.32
1991.34
2064.31
2121.04
2188.08
2282.03
2394.56
2516.06
2643.92
2771.28
2170.57
2285.83
2519.57
2552.62
2528.75
2476.9
2398.7
2307.67
2198.09
2108.75
2037.5
1928.08
1803.97
1777.72
1914.72
2510.48
2950.71
2986.41
2964.63
2898.47
2826.78
2786.12
2749.08
2700.4
2674.06
2618.31
2472.04
3046.28
3227.84
2338.16
1946.56
1991.33
2064.28
2121.06
2188.12
2281.96
2394.28
2515.67
2643.52
2770.98
2205.17
2411
2619.01
2614.51
2577.67
2517.22
2430.48
2335.52
2225.02
2132.12
2059.23
1945.93
1817.56
1789.88
1926.28
2524.04
2965.51
2999.16
2976.86
2909.01
2832.93
2787.92
2761.17
2711.33
2675.63
2612.94
2461.84
3038.85
3224.86
2336.31
1946.32
1991.34
2064.31
2121.04
2188.08
2282.03
2394.56
2516.06
2643.92
2771.28
2434.37
2692.8
2781.87
2802.27
2784.38
2733.95
2635.09
2518.23
2386.52
2269.27
2177.56
2045.61
1891.44
1855.87
1987.56
2606.91
3041
3068.51
3036.88
2949.35
2855.42
2786.58
2744.7
2710.77
2670.52
2604.33
2458.6
3043.87
3224.61
2331.71
1945.27
1991.17
2064.18
2120.82
2187.77
2281.55
2393.91
2515.18
2642.97
2770.38
3469.23
3373.86
3279.05
3214.72
3170.64
3095.81
3004.31
2902.59
2772.95
2629.38
2493.75
2321.49
2113.93
2042.53
2162.41
2826.31
3255.44
3270.14
3200.94
3058.74
2911.11
2792.76
2737.2
2739.64
2746.6
2695.25
2547.46
3117.11
3233.62
2309.96
1940.06
1989.54
2062.7
2119.5
2186.68
2280.41
2392.99
2514.3
2642.24
2769.66
4345
4095.21
3824.77
3603.71
3448.34
3315.11
3219.36
3129.46
3018.43
2902.74
2775.59
2607.02
2389.14
2304.75
2422.15
3105.09
3525.23
3528.6
3409.33
3189.67
2967.16
2811.88
2720.93
2651.05
2612.63
2556.92
2439.92
3041.56
3140.49
2248.62
1930.96
1986.22
2059.32
2116.18
2183.79
2277.86
2391.04
2512.83
2641.02
2768.09
4598.32
4358.5
4194.51
4019.61
3833.26
3645.18
3476.76
3320.93
3176.36
3054.97
2925.42
2778.63
2598.81
2475.21
2594.28
3329
3737.42
3732.7
3584.02
3298.95
3013.53
2839.23
2731.22
2655.24
2607.55
2529.19
2415.67
3012.44
3010.02
2159.93
1919.14
1981.58
2054.35
2111.07
2178.73
2273.76
2388.46
2511.54
2640.02
2766.7
4634.65
4402.69
4154.33
3950.8
3765.95
3589.87
3419.98
3243.52
3090.18
2958.82
2797.52
2666.2
2595.04
2582.28
2762.59
3407.99
3675.89
3653.35
3489.36
3197.73
2944.37
2791.2
2690.44
2621.54
2569.69
2477.28
2375.61
2969.8
2863.83
2082.26
1928.94
1996.12
2062.31
2112.78
2175.89
2269.53
2384.74
2509.52
2638.56
2765.25
4595.43
4404.29
4216.96
4024.47
3825.04
3644.67
3461.6
3257.4
3091.62
2928.23
2734.15
2662.14
2640.61
2672.01
2976.03
3490.92
3611.47
3579.68
3392.99
3084.17
2860.27
2732.84
2637.53
2576.4
2522.7
2421.46
2350.99
2969.41
2769.9
2067.38
1985.96
2049.98
2104.84
2146.39
2198.84
2276.21
2382.28
2506.38
2636.04
2763.16
4526.55
4351.19
4177.59
3989.96
3799.16
3623.05
3441.4
3266.32
3108.07
2897.83
2741.47
2745.24
2751.69
2834.43
3168.03
3467.37
3515.64
3465.43
3232.26
2934.11
2765.57
2657.21
2581.07
2538.73
2503.91
2415.96
2457.36
3214
2892.52
2314.66
2273.74
2290.44
2279.77
2260.19
2264.91
2319.02
2406.94
2510.43
2634.56
2761.17
4443.83
4280.8
4121.99
3947.45
3772.86
3599.38
3416.19
3254.02
3103.92
2911.61
2794.82
2772.64
2779.28
2889.54
3168.73
3342.38
3360.5
3251.23
2958.68
2764.8
2662.22
2586.28
2587.76
2591.91
2593.88
2605.57
3020.44
3746.3
3134.43
2691.76
2681.14
2666.39
2618
2542.58
2476.32
2448.61
2470.6
2543.41
2640.32
2758.88
4353.72
4199.54
4046.3
3886.67
3726.62
3562.75
3390.59
3233.18
3078.95
2899.57
2813.86
2796.82
2846.01
2988.48
3125.69
3162.47
3114
2917.35
2699.04
2630.87
2637.85
2659.59
2763.3
2987.85
3132.66
3203.86
3696.51
3821.41
3133.58
2893.79
2901.09
2899.62
2873.03
2814.56
2742.43
2680.21
2639.19
2630.66
2673.64
2755.56
4243.74
4100.03
3953.21
3803.21
3651.37
3488.34
3326.97
3186.97
3036.89
2898.5
2859.06
2857.62
2872.2
2916.37
2960.63
2942.16
2779.01
2602.02
2667.37
2710.62
2873.95
3215.42
3492.7
3603.69
3585.92
3548.46
3817.5
3536.19
3031.63
2980.22
2994.39
3001.52
2998.62
2968.18
2919.69
2872.51
2832.05
2787.33
2753.95
2751.24
4093.12
3966.81
3829.29
3681.09
3520.13
3352.64
3197.54
3059.02
2926.91
2832.66
2802.48
2805.55
2822.5
2824.98
2791.74
2675.33
2670.57
2782.15
3021.22
3362.41
3679.91
3871.74
3943.83
3858.73
3655.08
3515.5
3501.56
3188.58
2993.35
3017.58
3037.38
3038.92
3044.95
3030.29
2996.6
2967.54
2946.21
2920.21
2852.05
2752.11
3897.26
3761.1
3608.13
3451.84
3301.96
3166.5
3052.6
2967.35
2915.72
2861.85
2819.94
2825.02
2843.55
2854.7
2906.9
2996.4
3175.11
3466.96
3766.03
4008.12
4124.71
4089.8
3975.67
3817.6
3548.84
3239.2
3024.45
2952.28
2985.12
3039.23
3064.49
3071.25
3080.09
3067.63
3032.21
2997.54
2972.02
2954.81
2897.18
2748.34
3650.45
3508.02
3372.93
3272.08
3223.65
3205.77
3191.6
3201.46
3247.2
3307.21
3318.64
3303.59
3340.86
3378.35
3461.21
3577.66
3815.06
3995.42
4128.73
4168.96
4159.79
4085.71
3911.03
3652.72
3276.67
2820.69
2662.82
2843.04
2999.19
3059.36
3085.42
3096
3105.07
3098.04
3064.37
3025.81
2982.76
2946.35
2886.17
2722.14
3364.06
3298.91
3316.42
3373.21
3412.46
3467.36
3540.59
3622.96
3696.06
3739.79
3760.61
3800.91
3859.88
3850.75
3864.25
3953
4055.64
4156.32
4215.31
4202.74
4122.13
3973.69
3742.99
3373.18
2837.4
2448.74
2480.6
2778.24
2987.26
3059.79
3092.54
3103.53
3113.72
3113.09
3087.87
3047.48
2989.07
2924.69
2839.7
2681.23
3042.81
3174.52
3329.35
3442.53
3478.05
3489.01
3511.62
3554.53
3604.36
3657.95
3760.34
3912.93
4018.95
4066.31
4089.68
4137.83
4194.62
4232.7
4228.32
4146.53
3990.04
3771.13
3419.02
2905.22
2442.44
2299.76
2407.94
2707.02
2937.03
3027.57
3070.47
3086.66
3103.61
3110.64
3095.11
3055.14
2991.51
2909.58
2801.52
2651.54
2809.11
3015.44
3183.14
3266.75
3311.77
3346.79
3390.04
3450.82
3546.8
3698.55
3869.88
4024.4
4120.11
4192.75
4246.72
4276.26
4268.19
4219.72
4128.26
3982.23
3750.71
3399.36
2924.3
2495.9
2308.35
2291.03
2374.6
2626.38
2865.91
2983.25
3032.57
3052.3
3074.71
3088.05
3085.39
3053.25
2989.95
2896.99
2772.18
2631.68
2718.56
2872.15
2999.72
3063
3117.23
3171.26
3263.56
3386.57
3539.59
3711.53
3891.67
4056.11
4180.75
4263.9
4301.94
4288.08
4219.55
4102.75
3932.41
3689.83
3344.51
2912.12
2546.27
2381.63
2333.49
2343.26
2392.03
2571.08
2797.32
2937.45
2996.37
3018.43
3037.86
3050.26
3052.93
3030.21
2973.55
2879.83
2748.9
2620.05
2640.31
2725.65
2813.74
2878
2956.02
3042.39
3155.97
3291.71
3445.8
3614.37
3803.48
3993.63
4152.72
4230.99
4232.28
4169.85
4046.29
3864.05
3607.51
3266.63
2882.52
2591.95
2468.82
2427.62
2419.77
2425.58
2455.67
2553.36
2741.01
2900.9
2966.51
2977.49
2980.88
2986.24
2989.71
2974.64
2937.81
2865.56
2751.29
2627.55
2602.53
2645.41
2716.62
2770.86
2837.37
2923.22
3024.3
3133.19
3254.55
3407.14
3599.29
3799.38
3959.48
4037.19
4028.02
3928.84
3748.96
3499.23
3182.02
2856.52
2640.32
2553.29
2525.38
2525.34
2527.74
2528.02
2539.73
2585.87
2706.83
2862.75
2942.99
2947.22
2924.71
2907.6
2897.78
2881.2
2865.45
2814.93
2735.77
2626.82
2596.44
2624.01
2650.1
2686.83
2738.94
2793.77
2860.5
2937.14
3029.98
3156.76
3321.09
3493.24
3634.78
3687.57
3655.16
3520.57
3307.7
3059.01
2839.06
2702.97
2642.21
2623.78
2629.43
2637.3
2640.92
2641.01
2640.79
2657.14
2711.02
2806.48
2880.96
2893.69
2851.39
2808.12
2776.47
2753.42
2750.69
2731.14
2738.19
2659.1
2550.36
2546.33
2546.31
2592.23
2657.01
2701.7
2746.28
2814.73
2912.25
3017.97
3096.29
3130.05
3088.52
2993.57
2887.4
2811.18
2756.54
2719.62
2701.7
2703.45
2711.16
2721.08
2730.29
2737.89
2743.59
2748.02
2749.93
2751.11
2750.16
2749.04
2752
2736.7
2696.09
2662.69
2638.24
2624.38
2630.05
2624.6
2656.85
2676.71
2550.36
2546.33
2546.31
2592.23
2657.01
2701.7
2746.28
2814.73
2912.25
3017.97
3096.29
3130.05
3088.52
2993.57
2887.4
2811.18
2756.54
2719.62
2701.7
2703.45
2711.16
2721.08
2730.29
2737.89
2743.59
2748.02
2749.93
2751.11
2750.16
2749.04
2752
2736.7
2696.09
2662.69
2638.24
2624.38
2630.05
2624.6
2656.85
2676.71
2596.44
2624.01
2650.1
2686.83
2738.94
2793.77
2860.5
2937.14
3029.98
3156.76
3321.09
3493.24
3634.78
3687.57
3655.16
3520.57
3307.7
3059.01
2839.06
2702.97
2642.21
2623.78
2629.43
2637.3
2640.92
2641.01
2640.79
2657.14
2711.02
2806.48
2880.96
2893.69
2851.39
2808.12
2776.47
2753.42
2750.69
2731.14
2738.19
2659.1
2602.53
2645.41
2716.62
2770.86
2837.37
2923.22
3024.3
3133.19
3254.55
3407.14
3599.29
3799.38
3959.48
4037.19
4028.02
3928.84
3748.96
3499.23
3182.02
2856.52
2640.32
2553.29
2525.38
2525.34
2527.74
2528.02
2539.73
2585.87
2706.83
2862.75
2942.99
2947.22
2924.71
2907.6
2897.78
2881.2
2865.45
2814.93
2735.77
2626.82
2640.31
2725.65
2813.74
2878
2956.02
3042.39
3155.97
3291.71
3445.8
3614.37
3803.48
3993.63
4152.72
4230.99
4232.28
4169.85
4046.29
3864.05
3607.51
3266.63
2882.52
2591.95
2468.82
2427.62
2419.77
2425.58
2455.67
2553.36
2741.01
2900.9
2966.51
2977.49
2980.88
2986.24
2989.71
2974.64
2937.81
2865.56
2751.29
2627.55
2718.56
2872.15
2999.72
3063
3117.23
3171.26
3263.56
3386.57
3539.59
3711.53
3891.67
4056.11
4180.75
4263.9
4301.94
4288.08
4219.55
4102.75
3932.41
3689.83
3344.51
2912.12
2546.27
2381.63
2333.49
2343.26
2392.03
2571.08
2797.32
2937.45
2996.37
3018.43
3037.86
3050.26
3052.93
3030.21
2973.55
2879.83
2748.9
2620.05
2809.11
3015.44
3183.14
3266.75
3311.77
3346.79
3390.04
3450.82
3546.8
3698.55
3869.88
4024.4
4120.11
4192.75
4246.72
4276.26
4268.19
4219.72
4128.26
3982.23
3750.71
3399.36
2924.3
2495.9
2308.35
2291.03
2374.6
2626.38
2865.91
2983.25
3032.57
3052.3
3074.71
3088.05
3085.39
3053.25
2989.95
2896.99
2772.18
2631.68
3042.81
3174.52
3329.35
3442.53
3478.05
3489.01
3511.62
3554.53
3604.36
3657.95
3760.34
3912.93
4018.95
4066.31
4089.68
4137.83
4194.62
4232.7
4228.32
4146.53
3990.04
3771.13
3419.02
2905.22
2442.44
2299.76
2407.94
2707.02
2937.03
3027.57
3070.47
3086.66
3103.61
3110.64
3095.11
3055.14
2991.51
2909.58
2801.52
2651.54
3364.06
3298.91
3316.42
3373.21
3412.46
3467.36
3540.59
3622.96
3696.06
3739.79
3760.61
3800.91
3859.88
3850.75
3864.25
3953
4055.64
4156.32
4215.31
4202.74
4122.13
3973.69
3742.99
3373.18
2837.4
2448.74
2480.6
2778.24
2987.26
3059.79
3092.54
3103.53
3113.72
3113.09
3087.87
3047.48
2989.07
2924.69
2839.7
2681.23
3650.45
3508.02
3372.93
3272.08
3223.65
3205.77
3191.6
3201.46
3247.2
3307.21
3318.64
3303.59
3340.86
3378.35
3461.21
3577.66
3815.06
3995.42
4128.73
4168.96
4159.79
4085.71
3911.03
3652.72
3276.67
2820.69
2662.82
2843.04
2999.19
3059.36
3085.42
3096
3105.07
3098.04
3064.37
3025.81
2982.76
2946.35
2886.17
2722.14
3897.26
3761.1
3608.13
3451.84
3301.96
3166.5
3052.6
2967.35
2915.72
2861.85
2819.94
2825.02
2843.55
2854.7
2906.9
2996.4
3175.11
3466.96
3766.03
4008.12
4124.71
4089.8
3975.67
3817.6
3548.84
3239.2
3024.45
2952.28
2985.12
3039.23
3064.49
3071.25
3080.09
3067.63
3032.21
2997.54
2972.02
2954.81
2897.18
2748.34
4093.12
3966.81
3829.29
3681.09
3520.13
3352.64
3197.54
3059.02
2926.91
2832.66
2802.48
2805.55
2822.5
2824.98
2791.74
2675.33
2670.57
2782.15
3021.22
3362.41
3679.91
3871.74
3943.83
3858.73
3655.08
3515.5
3501.56
3188.58
2993.35
3017.58
3037.38
3038.92
3044.95
3030.29
2996.6
2967.54
2946.21
2920.21
2852.05
2752.11
4243.74
4100.03
3953.21
3803.21
3651.37
3488.34
3326.97
3186.97
3036.89
2898.5
2859.06
2857.62
2872.2
2916.37
2960.63
2942.16
2779.01
2602.02
2667.37
2710.62
2873.95
3215.42
3492.7
3603.69
3585.92
3548.46
3817.5
3536.19
3031.63
2980.22
2994.39
3001.52
2998.62
2968.18
2919.69
2872.51
2832.05
2787.33
2753.95
2751.24
4353.72
4199.54
4046.3
3886.67
3726.62
3562.75
3390.59
3233.18
3078.95
2899.57
2813.86
2796.82
2846.01
2988.48
3125.69
3162.47
3114
2917.35
2699.04
2630.87
2637.85
2659.59
2763.3
2987.85
3132.66
3203.86
3696.51
3821.41
3133.58
2893.79
2901.09
2899.62
2873.03
2814.56
2742.43
2680.21
2639.19
2630.66
2673.64
2755.56
4443.83
4280.8
4121.99
3947.45
3772.86
3599.38
3416.19
3254.02
3103.92
2911.61
2794.82
2772.64
2779.28
2889.54
3168.73
3342.38
3360.5
3251.23
2958.68
2764.8
2662.22
2586.28
2587.76
2591.91
2593.88
2605.57
3020.44
3746.3
3134.43
2691.76
2681.14
2666.39
2618
2542.58
2476.32
2448.61
2470.6
2543.41
2640.32
2758.88
4526.55
4351.19
4177.59
3989.96
3799.16
3623.05
3441.4
3266.32
3108.07
2897.83
2741.47
2745.24
2751.69
2834.43
3168.03
3467.37
3515.64
3465.43
3232.26
2934.11
2765.57
2657.21
2581.07
2538.73
2503.91
2415.96
2457.36
3214
2892.52
2314.66
2273.74
2290.44
2279.77
2260.19
2264.91
2319.02
2406.94
2510.43
2634.56
2761.17
4595.43
4404.29
4216.96
4024.47
3825.04
3644.67
3461.6
3257.4
3091.62
2928.23
2734.15
2662.14
2640.61
2672.01
2976.03
3490.92
3611.47
3579.68
3392.99
3084.17
2860.27
2732.84
2637.53
2576.4
2522.7
2421.46
2350.99
2969.41
2769.9
2067.38
1985.96
2049.98
2104.84
2146.39
2198.84
2276.21
2382.28
2506.38
2636.04
2763.16
4634.65
4402.69
4154.33
3950.8
3765.95
3589.87
3419.98
3243.52
3090.18
2958.82
2797.52
2666.2
2595.04
2582.28
2762.59
3407.99
3675.89
3653.35
3489.36
3197.73
2944.37
2791.2
2690.44
2621.54
2569.69
2477.28
2375.61
2969.8
2863.83
2082.26
1928.94
1996.12
2062.31
2112.78
2175.89
2269.53
2384.74
2509.52
2638.56
2765.25
4598.32
4358.5
4194.51
4019.61
3833.26
3645.18
3476.76
3320.93
3176.36
3054.97
2925.42
2778.63
2598.81
2475.21
2594.28
3329
3737.42
3732.7
3584.02
3298.95
3013.53
2839.23
2731.22
2655.24
2607.55
2529.19
2415.67
3012.44
3010.02
2159.93
1919.14
1981.58
2054.35
2111.07
2178.73
2273.76
2388.46
2511.54
2640.02
2766.7
4345
4095.21
3824.77
3603.71
3448.34
3315.11
3219.36
3129.46
3018.43
2902.74
2775.59
2607.02
2389.14
2304.75
2422.15
3105.09
3525.23
3528.6
3409.33
3189.67
2967.16
2811.88
2720.93
2651.05
2612.63
2556.92
2439.92
3041.56
3140.49
2248.62
1930.96
1986.22
2059.32
2116.18
2183.79
2277.86
2391.04
2512.83
2641.02
2768.09
3469.23
3373.86
3279.05
3214.72
3170.64
3095.81
3004.31
2902.59
2772.95
2629.38
2493.75
2321.49
2113.93
2042.53
2162.41
2826.31
3255.44
3270.14
3200.94
3058.74
2911.11
2792.76
2737.2
2739.64
2746.6
2695.25
2547.46
3117.11
3233.62
2309.96
1940.06
1989.54
2062.7
2119.5
2186.68
2280.41
2392.99
2514.3
2642.24
2769.66
)
;

boundaryField
{
    inlet
    {
        type            calculated;
        value           uniform 14000.1;
    }
    outlet
    {
        type            calculated;
        value           nonuniform List<scalar> 
165
(
3489.4
4482.33
4708.7
4737.55
4695.54
4619.11
4530.77
4435.32
4317.46
4154.68
3962.43
3719.83
3387.01
2988.26
2663.68
2601.78
2626.22
2657.39
2684.97
2720.3
2720.3
2709.33
2716.57
2727.7
2722.45
2715.2
2706.51
2689.52
2655.87
2603.72
2542.14
2484.18
2449.3
2447.79
2489.89
2563.59
2645.91
2710.73
2744.59
2763.52
2775.61
2783.1
2789.87
2797.31
2804.65
2811.13
2815.6
2815.71
2808.92
2786.13
2748.83
2701.18
2665.1
2629.23
2607.73
2602.99
2603.11
2613.69
2615.02
2615.83
2833.87
2833.9
2833.63
2832.76
2831.65
2830.64
2828.77
2823
2805.66
2774.16
2729.45
2684.5
2649.26
2615.45
2597.83
2597.82
2599.3
2610.66
2613.38
2615.83
2834.49
2834.78
2835.21
2834.78
2834.49
2615.83
2613.38
2610.66
2599.3
2597.82
2597.83
2615.45
2649.26
2684.5
2729.45
2774.16
2805.66
2823
2828.77
2830.64
2831.65
2832.76
2833.63
2833.9
2833.87
2720.3
2709.33
2716.57
2727.7
2722.45
2715.2
2706.51
2689.52
2655.87
2603.72
2542.14
2484.18
2449.3
2447.79
2489.89
2563.59
2645.91
2710.73
2744.59
2763.52
2775.61
2783.1
2789.87
2797.31
2804.65
2811.13
2815.6
2815.71
2808.92
2786.13
2748.83
2701.18
2665.1
2629.23
2607.73
2602.99
2603.11
2613.69
2615.02
2615.83
2720.3
2684.97
2657.39
2626.22
2601.78
2663.68
2988.26
3387.01
3719.83
3962.43
4154.68
4317.46
4435.32
4530.77
4619.11
4695.54
4737.55
4708.7
4482.33
3489.4
)
;
    }
    obstacle
    {
        type            calculated;
        value           nonuniform List<scalar> 
40
(
7291.31
11126.5
11701.5
12390.4
12819
12901.9
12799.7
12676.1
12561.7
12447.9
7291.31
11126.5
11701.5
12390.4
12819
12901.9
12799.7
12676.1
12561.7
12447.9
12537.9
12335.9
12173.6
11798.9
11627.8
12537.9
12335.9
12173.6
11798.9
11627.8
6164.96
4202.04
3249.91
2735.46
2184.61
6164.96
4202.04
3249.91
2735.46
2184.61
)
;
    }
    empty
    {
        type            empty;
    }
}


// ************************************************************************* //
