/*--------------------------------*- C++ -*----------------------------------*\
| =========                 |                                                 |
| \\      /  F ield         | OpenFOAM: The Open Source CFD Toolbox           |
|  \\    /   O peration     | Version:  v1912                                 |
|   \\  /    A nd           | Website:  www.openfoam.com                      |
|    \\/     M anipulation  |                                                 |
\*---------------------------------------------------------------------------*/
FoamFile
{
    version     2.0;
    format      ascii;
    class       volScalarField;
    location    "3.82";
    object      T;
}
// * * * * * * * * * * * * * * * * * * * * * * * * * * * * * * * * * * * * * //

dimensions      [0 0 0 1 0 0 0];


internalField   nonuniform List<scalar> 
1900
(
1.17008
1.01757
1.03391
1.04237
1.04231
1.03986
1.03675
1.03399
1.03189
1.03187
1.17008
1.01757
1.03392
1.0424
1.04236
1.03991
1.0368
1.03397
1.03093
1.02909
1.17008
1.01757
1.03393
1.0424
1.04234
1.03984
1.03667
1.03391
1.03102
1.02954
1.17008
1.01757
1.03392
1.0424
1.04236
1.03991
1.0368
1.03397
1.03093
1.02909
1.17008
1.01757
1.03391
1.04237
1.04231
1.03986
1.03675
1.03399
1.03189
1.03187
1.0255
1.01505
0.994859
0.962306
0.916865
1.02275
1.01162
0.989798
0.959058
0.921796
1.02299
1.01142
0.98923
0.958169
0.920407
1.02275
1.01162
0.989798
0.959058
0.921796
1.0255
1.01505
0.994859
0.962306
0.916865
0.913251
0.858507
0.822051
0.799948
0.788459
0.909149
0.858026
0.823005
0.800666
0.784994
0.90834
0.857525
0.822835
0.799188
0.782685
0.909149
0.858026
0.823005
0.800666
0.784994
0.913251
0.858507
0.822051
0.799948
0.788459
0.749045
0.646381
0.698691
0.734546
0.723262
0.708358
0.69425
0.683732
0.680708
0.677537
0.675316
0.673145
0.671259
0.669595
0.668189
0.667043
0.666145
0.66544
0.664902
0.664424
0.664005
0.663574
0.66307
0.662546
0.661962
0.661317
0.660568
0.659651
0.658451
0.656805
0.65449
0.651416
0.647544
0.643576
0.639561
0.636514
0.633949
0.631346
0.58076
0.480705
0.779
0.677374
0.709686
0.738152
0.725271
0.709092
0.694541
0.683793
0.680803
0.67758
0.675351
0.673167
0.671277
0.66961
0.668203
0.667057
0.666159
0.665453
0.664915
0.664437
0.664017
0.663586
0.663082
0.662557
0.661973
0.661326
0.660578
0.659659
0.658459
0.656813
0.654498
0.651423
0.64755
0.643587
0.639565
0.636545
0.633989
0.631409
0.58105
0.480511
0.773455
0.69885
0.72008
0.741285
0.72639
0.709467
0.694686
0.683859
0.680853
0.67761
0.675373
0.673181
0.671287
0.669618
0.66821
0.667064
0.666165
0.665459
0.664921
0.664442
0.664022
0.663591
0.663087
0.662561
0.661977
0.661331
0.660583
0.659666
0.658468
0.656825
0.654514
0.651446
0.647583
0.643637
0.639638
0.63666
0.634159
0.631629
0.581524
0.482175
0.779
0.677374
0.709686
0.738152
0.725271
0.709092
0.694541
0.683793
0.680803
0.67758
0.675351
0.673167
0.671277
0.66961
0.668203
0.667057
0.666159
0.665453
0.664915
0.664437
0.664017
0.663586
0.663082
0.662557
0.661973
0.661326
0.660578
0.659659
0.658459
0.656813
0.654498
0.651423
0.64755
0.643587
0.639565
0.636545
0.633989
0.631409
0.58105
0.480511
0.749045
0.646381
0.698691
0.734546
0.723262
0.708358
0.69425
0.683732
0.680708
0.677537
0.675316
0.673145
0.671259
0.669595
0.668189
0.667043
0.666145
0.66544
0.664902
0.664424
0.664005
0.663574
0.66307
0.662546
0.661962
0.661317
0.660568
0.659651
0.658451
0.656805
0.65449
0.651416
0.647544
0.643576
0.639561
0.636514
0.633949
0.631346
0.58076
0.480705
0.594229
0.59536
0.683762
0.721625
0.716304
0.705072
0.692506
0.683182
0.680173
0.677224
0.675059
0.672953
0.671104
0.669462
0.668068
0.666931
0.666041
0.665342
0.664809
0.664334
0.663917
0.663488
0.662984
0.662459
0.661874
0.661226
0.660474
0.659551
0.658345
0.656693
0.654372
0.651299
0.647436
0.64345
0.639459
0.636339
0.633787
0.631144
0.580884
0.487692
0.490408
0.598663
0.681043
0.701642
0.702611
0.696659
0.688281
0.681721
0.678947
0.676476
0.674467
0.67252
0.67076
0.669167
0.6678
0.666682
0.665807
0.665122
0.664601
0.664134
0.663724
0.663299
0.662797
0.662272
0.661685
0.661034
0.660276
0.659343
0.658122
0.656456
0.654122
0.651038
0.647193
0.643156
0.63916
0.635911
0.633306
0.630653
0.580704
0.481296
0.471719
0.611297
0.673463
0.687592
0.690289
0.687548
0.682942
0.679334
0.677232
0.675299
0.673579
0.671862
0.670222
0.668697
0.667373
0.666285
0.665437
0.664774
0.664272
0.663818
0.663417
0.662998
0.662497
0.661972
0.661383
0.660725
0.659956
0.659007
0.657763
0.656072
0.653719
0.650619
0.6468
0.642687
0.638656
0.635257
0.632574
0.62994
0.581281
0.481585
0.479276
0.611588
0.664123
0.674649
0.67946
0.679376
0.677742
0.676289
0.675018
0.673802
0.672457
0.670994
0.669497
0.668061
0.666794
0.66575
0.664939
0.664309
0.663832
0.663395
0.663007
0.662595
0.662095
0.661569
0.660975
0.66031
0.659525
0.658554
0.65728
0.655558
0.653181
0.650049
0.646254
0.642043
0.637925
0.634359
0.63156
0.62899
0.5813
0.481064
0.474408
0.608337
0.655899
0.664516
0.670202
0.672258
0.672697
0.672892
0.672585
0.672014
0.671103
0.669905
0.668574
0.667245
0.666052
0.665067
0.664306
0.663717
0.663273
0.662857
0.662485
0.662082
0.661582
0.661054
0.660454
0.659773
0.658969
0.657969
0.656645
0.654883
0.65248
0.649308
0.645498
0.641156
0.636902
0.633156
0.630242
0.627824
0.581904
0.481133
0.473519
0.603742
0.648103
0.65603
0.662251
0.66594
0.667979
0.669414
0.670002
0.670046
0.669531
0.668611
0.667454
0.666248
0.665147
0.664235
0.663537
0.663
0.662596
0.662206
0.661852
0.661459
0.660957
0.660425
0.659813
0.659118
0.658278
0.657241
0.655865
0.654049
0.651614
0.648365
0.644535
0.640025
0.635589
0.631655
0.628623
0.626379
0.58208
0.479957
0.474375
0.600144
0.641731
0.649093
0.655651
0.660347
0.663485
0.665877
0.667253
0.667864
0.667706
0.667069
0.666104
0.665046
0.664055
0.663236
0.662616
0.662143
0.661787
0.661426
0.661092
0.660708
0.660202
0.659663
0.659034
0.658309
0.657431
0.656334
0.654879
0.652998
0.65055
0.647185
0.643286
0.638596
0.633997
0.62988
0.626788
0.624851
0.58379
0.478558
0.470372
0.595482
0.635264
0.642218
0.649469
0.654987
0.659107
0.662347
0.664412
0.665521
0.665693
0.665294
0.664514
0.663601
0.662731
0.66202
0.66149
0.661091
0.660793
0.660464
0.660152
0.659775
0.659261
0.65871
0.658062
0.657301
0.656373
0.655216
0.653705
0.651697
0.649234
0.645713
0.641679
0.636725
0.631859
0.627411
0.624155
0.62232
0.582919
0.476253
0.467869
0.591943
0.630399
0.636809
0.64439
0.650335
0.655037
0.658875
0.661421
0.662901
0.663321
0.663099
0.662498
0.661755
0.661037
0.660457
0.660036
0.659724
0.659491
0.6592
0.658907
0.658536
0.658008
0.657438
0.656755
0.655949
0.654952
0.653731
0.652132
0.650109
0.647699
0.64407
0.639962
0.634898
0.629788
0.625145
0.621675
0.620015
0.582809
0.473504
0.464848
0.587526
0.624807
0.630708
0.638107
0.644476
0.649907
0.654449
0.657658
0.659581
0.660329
0.660372
0.659967
0.659407
0.65885
0.6584
0.658088
0.657861
0.657699
0.657447
0.65717
0.656802
0.65626
0.655673
0.654953
0.6541
0.65303
0.651707
0.650048
0.647765
0.645297
0.641333
0.63689
0.631497
0.626002
0.620914
0.617046
0.615502
0.579603
0.470144
0.461802
0.582728
0.619261
0.62511
0.632327
0.638962
0.645007
0.650076
0.653846
0.656058
0.657001
0.657184
0.656836
0.656396
0.655959
0.655623
0.655409
0.655256
0.655167
0.654955
0.654685
0.654324
0.653773
0.653179
0.652443
0.651575
0.650493
0.649152
0.647542
0.645168
0.642643
0.638369
0.633565
0.627831
0.621928
0.61634
0.612006
0.610472
0.575503
0.466516
0.458836
0.577599
0.612984
0.618618
0.625311
0.632138
0.638606
0.644053
0.648386
0.650792
0.652126
0.652554
0.652544
0.652404
0.65219
0.652031
0.651936
0.65186
0.651846
0.651673
0.651402
0.651046
0.65048
0.649856
0.649075
0.648114
0.646925
0.6454
0.643617
0.640914
0.638153
0.633595
0.628448
0.622408
0.616179
0.610196
0.605506
0.603998
0.570416
0.462901
0.456021
0.571977
0.605937
0.611286
0.617905
0.624936
0.631557
0.637374
0.64217
0.644921
0.646656
0.647404
0.647707
0.647799
0.647801
0.647788
0.647779
0.647741
0.647756
0.647592
0.647325
0.647002
0.646465
0.645865
0.645073
0.644063
0.642753
0.641071
0.639184
0.636138
0.633054
0.628164
0.622666
0.616349
0.609839
0.603548
0.59855
0.597062
0.56527
0.459649
0.453287
0.566453
0.598812
0.603704
0.610281
0.617574
0.624156
0.630203
0.635171
0.638241
0.640434
0.641358
0.642077
0.642586
0.642912
0.643181
0.643383
0.643489
0.643615
0.643508
0.643241
0.642892
0.642282
0.641586
0.640661
0.639488
0.63802
0.636105
0.634073
0.630732
0.62741
0.622232
0.61644
0.609861
0.6031
0.596567
0.591311
0.589887
0.559923
0.456531
0.451135
0.560427
0.591361
0.596078
0.60262
0.61005
0.616735
0.622997
0.628078
0.631597
0.634313
0.635654
0.636731
0.637613
0.638257
0.638779
0.639163
0.639376
0.639556
0.639462
0.639216
0.638893
0.638268
0.637523
0.636493
0.635183
0.633541
0.631394
0.629244
0.625613
0.621919
0.616386
0.610263
0.603421
0.596408
0.5896
0.584096
0.582677
0.554638
0.454308
0.448742
0.555669
0.584767
0.588875
0.595403
0.602941
0.609793
0.616415
0.621547
0.625595
0.628786
0.630531
0.632154
0.633355
0.634297
0.635062
0.635648
0.636029
0.636367
0.63637
0.636139
0.635753
0.635009
0.634149
0.632997
0.631554
0.629795
0.627459
0.625164
0.621128
0.617041
0.611111
0.604629
0.597517
0.590232
0.583244
0.577401
0.576247
0.550467
0.45226
0.449836
0.551703
0.578811
0.582466
0.589183
0.59686
0.603948
0.610763
0.616433
0.62111
0.624827
0.626858
0.628739
0.63016
0.631306
0.632242
0.632971
0.63346
0.633869
0.63388
0.63366
0.633302
0.632518
0.631581
0.630349
0.628815
0.627007
0.624532
0.62216
0.617932
0.613559
0.607313
0.600465
0.593072
0.585513
0.578196
0.572078
0.571238
0.547826
0.454093
0.455929
0.552075
0.57934
0.582099
0.588132
0.595415
0.602425
0.609197
0.614697
0.61942
0.622916
0.624962
0.626764
0.627943
0.62892
0.629723
0.63036
0.630824
0.631314
0.631496
0.631262
0.630732
0.629887
0.628997
0.627893
0.626517
0.625008
0.622688
0.620616
0.616472
0.612142
0.605994
0.599214
0.591917
0.584422
0.577346
0.571555
0.570923
0.548459
0.461371
0.434522
0.531603
0.561039
0.561911
0.564868
0.56935
0.573641
0.578121
0.581454
0.584821
0.586406
0.586143
0.586072
0.584053
0.583173
0.581944
0.581199
0.580677
0.5806
0.582217
0.58196
0.579957
0.579657
0.579739
0.580242
0.580234
0.581607
0.58086
0.581688
0.579612
0.576822
0.572089
0.566952
0.561442
0.556006
0.551277
0.548026
0.548499
0.524007
0.430871
0.377077
0.435868
0.470418
0.462634
0.46031
0.461147
0.462245
0.464479
0.466727
0.469515
0.472069
0.474494
0.476537
0.478148
0.479328
0.480149
0.48014
0.480895
0.480793
0.481657
0.481623
0.480635
0.480716
0.479726
0.479803
0.478573
0.477406
0.475302
0.472982
0.47012
0.466901
0.463478
0.460254
0.457053
0.454777
0.452409
0.454095
0.461366
0.431742
0.373201
0.377077
0.435868
0.470418
0.462634
0.46031
0.461147
0.462245
0.464479
0.466727
0.469515
0.472069
0.474494
0.476537
0.478148
0.479328
0.480149
0.48014
0.480895
0.480793
0.481657
0.481623
0.480635
0.480716
0.479726
0.479803
0.478573
0.477406
0.475302
0.472982
0.47012
0.466901
0.463478
0.460254
0.457053
0.454777
0.452409
0.454095
0.461366
0.431742
0.373201
0.434522
0.531603
0.561039
0.561911
0.564868
0.56935
0.573641
0.578121
0.581454
0.584821
0.586406
0.586143
0.586072
0.584053
0.583173
0.581944
0.581199
0.580677
0.5806
0.582217
0.58196
0.579957
0.579657
0.579739
0.580242
0.580234
0.581607
0.58086
0.581688
0.579612
0.576822
0.572089
0.566952
0.561442
0.556006
0.551277
0.548026
0.548499
0.524007
0.430871
0.455929
0.552075
0.57934
0.582099
0.588132
0.595415
0.602425
0.609197
0.614697
0.61942
0.622916
0.624962
0.626764
0.627943
0.62892
0.629723
0.63036
0.630824
0.631314
0.631496
0.631262
0.630732
0.629887
0.628997
0.627893
0.626517
0.625008
0.622688
0.620616
0.616472
0.612142
0.605994
0.599214
0.591917
0.584422
0.577346
0.571555
0.570923
0.548459
0.461371
0.449836
0.551703
0.578811
0.582466
0.589183
0.59686
0.603948
0.610763
0.616433
0.62111
0.624827
0.626858
0.628739
0.63016
0.631306
0.632242
0.632971
0.63346
0.633869
0.63388
0.63366
0.633302
0.632518
0.631581
0.630349
0.628815
0.627007
0.624532
0.62216
0.617932
0.613559
0.607313
0.600465
0.593072
0.585513
0.578196
0.572078
0.571238
0.547826
0.454093
0.448742
0.555669
0.584767
0.588875
0.595403
0.602941
0.609793
0.616415
0.621547
0.625595
0.628786
0.630531
0.632154
0.633355
0.634297
0.635062
0.635648
0.636029
0.636367
0.63637
0.636139
0.635753
0.635009
0.634149
0.632997
0.631554
0.629795
0.627459
0.625164
0.621128
0.617041
0.611111
0.604629
0.597517
0.590232
0.583244
0.577401
0.576247
0.550467
0.45226
0.451135
0.560427
0.591361
0.596078
0.60262
0.61005
0.616735
0.622997
0.628078
0.631597
0.634313
0.635654
0.636731
0.637613
0.638257
0.638779
0.639163
0.639376
0.639556
0.639462
0.639216
0.638893
0.638268
0.637523
0.636493
0.635183
0.633541
0.631394
0.629244
0.625613
0.621919
0.616386
0.610263
0.603421
0.596408
0.5896
0.584096
0.582677
0.554638
0.454308
0.453287
0.566453
0.598812
0.603704
0.610281
0.617574
0.624156
0.630203
0.635171
0.638241
0.640434
0.641358
0.642077
0.642586
0.642912
0.643181
0.643383
0.643489
0.643615
0.643508
0.643241
0.642892
0.642282
0.641586
0.640661
0.639488
0.63802
0.636105
0.634073
0.630732
0.62741
0.622232
0.61644
0.609861
0.6031
0.596567
0.591311
0.589887
0.559923
0.456531
0.456021
0.571977
0.605937
0.611286
0.617905
0.624936
0.631557
0.637374
0.64217
0.644921
0.646656
0.647404
0.647707
0.647799
0.647801
0.647788
0.647779
0.647741
0.647756
0.647592
0.647325
0.647002
0.646465
0.645865
0.645073
0.644063
0.642753
0.641071
0.639184
0.636138
0.633054
0.628164
0.622666
0.616349
0.609839
0.603548
0.59855
0.597062
0.56527
0.459649
0.458836
0.577599
0.612984
0.618618
0.625311
0.632138
0.638606
0.644053
0.648386
0.650792
0.652126
0.652554
0.652544
0.652404
0.65219
0.652031
0.651936
0.65186
0.651846
0.651673
0.651402
0.651046
0.65048
0.649856
0.649075
0.648114
0.646925
0.6454
0.643617
0.640914
0.638153
0.633595
0.628448
0.622408
0.616179
0.610196
0.605506
0.603998
0.570416
0.462901
0.461802
0.582728
0.619261
0.62511
0.632327
0.638962
0.645007
0.650076
0.653846
0.656058
0.657001
0.657184
0.656836
0.656396
0.655959
0.655623
0.655409
0.655256
0.655167
0.654955
0.654685
0.654324
0.653773
0.653179
0.652443
0.651575
0.650493
0.649152
0.647542
0.645168
0.642643
0.638369
0.633565
0.627831
0.621928
0.61634
0.612006
0.610472
0.575503
0.466516
0.464848
0.587526
0.624807
0.630708
0.638107
0.644476
0.649907
0.654449
0.657658
0.659581
0.660329
0.660372
0.659967
0.659407
0.65885
0.6584
0.658088
0.657861
0.657699
0.657447
0.65717
0.656802
0.65626
0.655673
0.654953
0.6541
0.65303
0.651707
0.650048
0.647765
0.645297
0.641333
0.63689
0.631497
0.626002
0.620914
0.617046
0.615502
0.579603
0.470144
0.467869
0.591943
0.630399
0.636809
0.64439
0.650335
0.655037
0.658875
0.661421
0.662901
0.663321
0.663099
0.662498
0.661755
0.661037
0.660457
0.660036
0.659724
0.659491
0.6592
0.658907
0.658536
0.658008
0.657438
0.656755
0.655949
0.654952
0.653731
0.652132
0.650109
0.647699
0.64407
0.639962
0.634898
0.629788
0.625145
0.621675
0.620015
0.582809
0.473504
0.470372
0.595482
0.635264
0.642218
0.649469
0.654987
0.659107
0.662347
0.664412
0.665521
0.665693
0.665294
0.664514
0.663601
0.662731
0.66202
0.66149
0.661091
0.660793
0.660464
0.660152
0.659775
0.659261
0.65871
0.658062
0.657301
0.656373
0.655216
0.653705
0.651697
0.649234
0.645713
0.641679
0.636725
0.631859
0.627411
0.624155
0.62232
0.582919
0.476253
0.474375
0.600144
0.641731
0.649093
0.655651
0.660347
0.663485
0.665877
0.667253
0.667864
0.667706
0.667069
0.666104
0.665046
0.664055
0.663236
0.662616
0.662143
0.661787
0.661426
0.661092
0.660708
0.660202
0.659663
0.659034
0.658309
0.657431
0.656334
0.654879
0.652998
0.65055
0.647185
0.643286
0.638596
0.633997
0.62988
0.626788
0.624851
0.58379
0.478558
0.473519
0.603742
0.648103
0.65603
0.662251
0.66594
0.667979
0.669414
0.670002
0.670046
0.669531
0.668611
0.667454
0.666248
0.665147
0.664235
0.663537
0.663
0.662596
0.662206
0.661852
0.661459
0.660957
0.660425
0.659813
0.659118
0.658278
0.657241
0.655865
0.654049
0.651614
0.648365
0.644535
0.640025
0.635589
0.631655
0.628623
0.626379
0.58208
0.479957
0.474408
0.608337
0.655899
0.664516
0.670202
0.672258
0.672697
0.672892
0.672585
0.672014
0.671103
0.669905
0.668574
0.667245
0.666052
0.665067
0.664306
0.663717
0.663273
0.662857
0.662485
0.662082
0.661582
0.661054
0.660454
0.659773
0.658969
0.657969
0.656645
0.654883
0.65248
0.649308
0.645498
0.641156
0.636902
0.633156
0.630242
0.627824
0.581904
0.481133
0.479276
0.611588
0.664123
0.674649
0.67946
0.679376
0.677742
0.676289
0.675018
0.673802
0.672457
0.670994
0.669497
0.668061
0.666794
0.66575
0.664939
0.664309
0.663832
0.663395
0.663007
0.662595
0.662095
0.661569
0.660975
0.66031
0.659525
0.658554
0.65728
0.655558
0.653181
0.650049
0.646254
0.642043
0.637925
0.634359
0.63156
0.62899
0.5813
0.481064
0.471719
0.611297
0.673463
0.687592
0.690289
0.687548
0.682942
0.679334
0.677232
0.675299
0.673579
0.671862
0.670222
0.668697
0.667373
0.666285
0.665437
0.664774
0.664272
0.663818
0.663417
0.662998
0.662497
0.661972
0.661383
0.660725
0.659956
0.659007
0.657763
0.656072
0.653719
0.650619
0.6468
0.642687
0.638656
0.635257
0.632574
0.62994
0.581281
0.481585
0.490408
0.598663
0.681043
0.701642
0.702611
0.696659
0.688281
0.681721
0.678947
0.676476
0.674467
0.67252
0.67076
0.669167
0.6678
0.666682
0.665807
0.665122
0.664601
0.664134
0.663724
0.663299
0.662797
0.662272
0.661685
0.661034
0.660276
0.659343
0.658122
0.656456
0.654122
0.651038
0.647193
0.643156
0.63916
0.635911
0.633306
0.630653
0.580704
0.481296
0.594229
0.59536
0.683762
0.721625
0.716304
0.705072
0.692506
0.683182
0.680173
0.677224
0.675059
0.672953
0.671104
0.669462
0.668068
0.666931
0.666041
0.665342
0.664809
0.664334
0.663917
0.663488
0.662984
0.662459
0.661874
0.661226
0.660474
0.659551
0.658345
0.656693
0.654372
0.651299
0.647436
0.64345
0.639459
0.636339
0.633787
0.631144
0.580884
0.487692
)
;

boundaryField
{
    inlet
    {
        type            fixedValue;
        value           uniform 1;
    }
    outlet
    {
        type            zeroGradient;
    }
    obstacle
    {
        type            zeroGradient;
    }
    empty
    {
        type            empty;
    }
}


// ************************************************************************* //
