/*--------------------------------*- C++ -*----------------------------------*\
| =========                 |                                                 |
| \\      /  F ield         | OpenFOAM: The Open Source CFD Toolbox           |
|  \\    /   O peration     | Version:  v1912                                 |
|   \\  /    A nd           | Website:  www.openfoam.com                      |
|    \\/     M anipulation  |                                                 |
\*---------------------------------------------------------------------------*/
FoamFile
{
    version     2.0;
    format      ascii;
    class       volVectorField;
    location    "6.9";
    object      grad(rho);
}
// * * * * * * * * * * * * * * * * * * * * * * * * * * * * * * * * * * * * * //

dimensions      [1 -4 0 0 0 0 0];


internalField   nonuniform List<vector> 
1900
(
(80658.6 0.109767 0)
(-86342.4 0.0514553 0)
(-4251.84 0.23064 0)
(-808.866 0.23236 0)
(-1466.89 0.625353 0)
(-1465.01 1.31402 0)
(-1011.15 5.85589 0)
(-551.651 -8.57012 0)
(-286.268 31.8344 0)
(744.06 -32.1339 0)
(80658.7 0.223983 0)
(-86342.2 0.11703 0)
(-4251.66 0.363642 0)
(-808.471 0.428077 0)
(-1465.81 1.02524 0)
(-1459.78 1.80249 0)
(-1021.03 5.47794 0)
(-525.673 -16.3159 0)
(-309.832 -11.3074 0)
(-218.817 -94.3936 0)
(80658.9 5.50671e-09 0)
(-86342.2 -6.71463e-09 0)
(-4251.53 1.22213e-08 0)
(-808.205 9.85878e-09 0)
(-1465.51 6.18172e-09 0)
(-1460.56 5.32907e-10 0)
(-1029.27 -4.13891e-09 0)
(-568.436 1.97176e-09 0)
(-364.346 4.88498e-09 0)
(-373.011 5.09814e-09 0)
(80658.7 -0.223983 0)
(-86342.2 -0.11703 0)
(-4251.66 -0.363642 0)
(-808.471 -0.428077 0)
(-1465.81 -1.02524 0)
(-1459.78 -1.80249 0)
(-1021.03 -5.47794 0)
(-525.673 16.3159 0)
(-309.832 11.3074 0)
(-218.817 94.3936 0)
(80658.6 -0.109767 0)
(-86342.4 -0.0514553 0)
(-4251.84 -0.23064 0)
(-808.866 -0.23236 0)
(-1466.89 -0.625353 0)
(-1465.01 -1.31402 0)
(-1011.15 -5.85589 0)
(-551.651 8.57012 0)
(-286.268 -31.8344 0)
(744.06 32.1339 0)
(-185.872 -808.091 1.24179e-11)
(-2355 -592.479 -1.46805e-11)
(-3621.4 -593.319 -1.84116e-11)
(-3937.64 -611.551 0)
(-25647.1 -7283.56 -7.60739e-11)
(-649.663 -991.945 1.22718e-11)
(-1669.46 -717.259 1.46805e-11)
(-3310.65 -650.132 1.84116e-11)
(-6439.35 -173.95 0)
(-24122.5 -6042.28 0)
(-974.232 6.2269e-09 0)
(-1663.12 1.36733e-08 0)
(-3085.55 1.76155e-08 0)
(-6091.42 2.02532e-08 0)
(-26302.5 2.20459e-08 0)
(-649.663 991.945 1.22718e-11)
(-1669.46 717.259 1.46805e-11)
(-3310.65 650.132 1.84116e-11)
(-6439.35 173.95 0)
(-24122.5 6042.28 0)
(-185.872 808.091 -3.69616e-11)
(-2355 592.479 -1.46805e-11)
(-3621.4 593.319 -1.84116e-11)
(-3937.64 611.551 -4.89195e-11)
(-25647.1 7283.56 7.60739e-11)
(-43580.6 14586.4 1.75539e-11)
(-15566.9 6345.85 -1.00235e-11)
(-7782.39 3051.67 0)
(-5725.73 2145.78 5.00578e-12)
(-2673.54 1946.95 -1.79224e-12)
(-39116.3 18896.1 -8.99662e-12)
(-18087.1 5508.12 5.10731e-12)
(-8805.43 1818.44 0)
(-5931.87 1268.73 -3.17856e-12)
(-4059.78 1068.78 4.70766e-13)
(-40656.6 5.29318e-09 0)
(-19935.8 1.78395e-09 0)
(-9114.57 -2.28624e-09 0)
(-6058.78 6.25498e-09 1.28671e-12)
(-4149.07 1.83089e-09 -9.41532e-13)
(-39116.3 -18896.1 -8.99662e-12)
(-18087.1 -5508.12 5.10731e-12)
(-8805.43 -1818.44 0)
(-5931.87 -1268.73 -3.17856e-12)
(-4059.78 -1068.78 4.70766e-13)
(-43580.6 -14586.4 8.99662e-12)
(-15566.9 -6345.85 -1.91116e-13)
(-7782.39 -3051.67 0)
(-5725.73 -2145.78 6.4624e-14)
(-2673.54 -1946.95 1.79224e-12)
(-303.426 -5026.18 0)
(-908.964 -3682.98 0)
(-1570.42 -2733.9 0)
(-1101.52 -1511.93 0)
(1018.35 -1365.74 0)
(4521.44 -1081.3 0)
(4177.06 180.993 0)
(860.887 405.947 0)
(304.333 317.408 0)
(105.109 206.73 0)
(-816.634 244.177 0)
(-1637.37 414.588 0)
(-1969.19 365.338 0)
(-2256.43 247.465 0)
(-2516.29 178.486 0)
(-2084.5 104.306 0)
(-1138.69 33.6248 0)
(-532.685 6.09626 0)
(-355.87 3.30671 0)
(-309.838 7.64465 0)
(-267.693 4.01277 0)
(-197.343 -0.601728 0)
(-117.561 -2.77499 0)
(-57.7865 -3.07892 0)
(-24.8486 -2.76967 0)
(-9.74331 -2.43269 0)
(0.289324 -2.23321 0)
(10.1563 -2.05232 0)
(20.5768 -1.92424 0)
(32.5719 -1.74792 0)
(55.663 -1.67143 0)
(79.3446 -0.766509 0)
(103.78 -0.856906 0)
(194.769 0.0365393 0)
(559.434 -1.71641 0)
(1787.76 -5.32373 0)
(2647.67 -5.1444 0)
(2122.54 20.2002 0)
(826.768 6.38505 0)
(1612.84 -0.621714 0)
(-1578.77 -2479.02 0)
(-718.838 -2143.18 0)
(-1228.67 -1584.57 0)
(-868.521 -886.742 0)
(1144.22 -829.823 0)
(4619.57 -450.17 0)
(4132.9 -165.631 0)
(858.587 -271.747 0)
(347.527 -126.708 0)
(129.624 -10.3356 0)
(-724.4 85.3531 0)
(-1559.68 176.7 0)
(-1988.97 137.563 0)
(-2299.48 101.692 0)
(-2546.89 87.5995 0)
(-2103.57 49.7197 0)
(-1147.24 14.5871 0)
(-535.138 2.32717 0)
(-355.558 1.06309 0)
(-309.709 3.65416 0)
(-268.55 1.63945 0)
(-197.939 -0.36897 0)
(-117.748 -1.22999 0)
(-57.7743 -1.30131 0)
(-24.7891 -1.15632 0)
(-9.69497 -1.01824 0)
(0.322814 -0.946729 0)
(10.1822 -0.888002 0)
(20.603 -0.850117 0)
(32.5893 -0.792609 0)
(55.7546 -0.792245 0)
(79.4032 -0.396815 0)
(103.815 -0.517505 0)
(194.715 -0.296107 0)
(558.747 -0.65161 0)
(1787.14 -3.71649 0)
(2650.12 -3.50123 0)
(2123.44 8.38911 0)
(824.592 1.55497 0)
(1613.93 0.88907 0)
(-1443.1 -1.04967e-10 0)
(-648.759 -8.23664e-08 0)
(-1204.91 -7.50511e-08 0)
(-881.959 2.82602e-10 0)
(1145.35 1.7053e-08 0)
(4714.66 2.2412e-07 0)
(4228.96 1.56368e-07 0)
(872.21 2.094e-07 0)
(380.38 2.72687e-07 0)
(166.799 1.02754e-07 0)
(-762.224 -1.39396e-07 0)
(-1622.18 -1.75956e-07 0)
(-1991.01 -8.75986e-08 0)
(-2270.97 -1.66655e-08 0)
(-2531.41 -3.21601e-08 0)
(-2105.74 -7.95808e-08 0)
(-1152.47 -4.45058e-08 0)
(-536.62 2.26082e-08 0)
(-355.484 -2.62416e-09 0)
(-309.67 -9.69326e-09 0)
(-268.864 -1.49779e-08 0)
(-198.178 -7.35977e-09 0)
(-117.832 1.04159e-09 0)
(-57.7651 4.31978e-10 0)
(-24.7662 -2.09933e-10 0)
(-9.68234 7.67063e-10 0)
(0.327213 3.89587e-09 0)
(10.1844 6.00328e-09 0)
(20.6045 4.00084e-09 0)
(32.5887 1.77636e-09 0)
(55.7782 -5.36944e-09 0)
(79.4245 -7.26691e-10 0)
(103.809 1.33671e-08 0)
(194.73 -1.23699e-08 0)
(558.439 -2.08641e-08 0)
(1786.94 5.99601e-08 0)
(2651.19 2.40373e-08 0)
(2124.01 -6.94959e-08 0)
(824.586 1.23376e-08 0)
(1611.84 1.30829e-07 0)
(-1578.77 2479.02 0)
(-718.838 2143.18 0)
(-1228.67 1584.57 0)
(-868.521 886.742 0)
(1144.22 829.823 0)
(4619.57 450.17 0)
(4132.9 165.631 0)
(858.587 271.747 0)
(347.527 126.708 0)
(129.624 10.3356 0)
(-724.4 -85.3531 0)
(-1559.68 -176.7 0)
(-1988.97 -137.563 0)
(-2299.48 -101.692 0)
(-2546.89 -87.5995 0)
(-2103.57 -49.7197 0)
(-1147.24 -14.5871 0)
(-535.138 -2.32717 0)
(-355.558 -1.06309 0)
(-309.709 -3.65416 0)
(-268.55 -1.63945 0)
(-197.939 0.36897 0)
(-117.748 1.22999 0)
(-57.7743 1.30131 0)
(-24.7891 1.15632 0)
(-9.69497 1.01824 0)
(0.322814 0.946729 0)
(10.1822 0.888002 0)
(20.603 0.850117 0)
(32.5893 0.792609 0)
(55.7546 0.792245 0)
(79.4032 0.396815 0)
(103.815 0.517505 0)
(194.715 0.296107 0)
(558.747 0.65161 0)
(1787.14 3.71649 0)
(2650.12 3.50123 0)
(2123.44 -8.38911 0)
(824.592 -1.55497 0)
(1613.93 -0.88907 0)
(-303.426 5026.18 0)
(-908.964 3682.98 0)
(-1570.42 2733.9 0)
(-1101.52 1511.93 0)
(1018.35 1365.74 0)
(4521.44 1081.3 0)
(4177.06 -180.993 0)
(860.887 -405.947 0)
(304.333 -317.408 0)
(105.109 -206.73 0)
(-816.634 -244.177 0)
(-1637.37 -414.588 0)
(-1969.19 -365.338 0)
(-2256.43 -247.465 0)
(-2516.29 -178.486 0)
(-2084.5 -104.306 0)
(-1138.69 -33.6248 0)
(-532.685 -6.09626 0)
(-355.87 -3.30671 0)
(-309.838 -7.64465 0)
(-267.693 -4.01277 0)
(-197.343 0.601728 0)
(-117.561 2.77499 0)
(-57.7865 3.07892 0)
(-24.8486 2.76967 0)
(-9.74331 2.43269 0)
(0.289324 2.23321 0)
(10.1563 2.05232 0)
(20.5768 1.92424 0)
(32.5719 1.74792 0)
(55.663 1.67143 0)
(79.3446 0.766509 0)
(103.78 0.856906 0)
(194.769 -0.0365393 0)
(559.434 1.71641 0)
(1787.76 5.32373 0)
(2647.67 5.1444 0)
(2122.54 -20.2002 0)
(826.768 -6.38505 0)
(1612.84 0.621714 0)
(-2165.3 3834.24 0)
(-1936.89 2507.19 0)
(-2195.37 1678.76 0)
(-1457.32 1795.63 0)
(1019.64 2088.54 0)
(3762.82 1859.2 0)
(3148.94 -704.954 0)
(770.358 -1074.67 0)
(522.433 -584.982 0)
(203.907 -592.391 0)
(-748.138 -719.719 0)
(-1545.86 -653.686 0)
(-1907.01 -483.897 0)
(-2232.04 -364.865 0)
(-2492.48 -305.273 0)
(-2034.76 -196.408 0)
(-1095.53 -62.5378 0)
(-518.956 -12.411 0)
(-356.168 -7.98159 0)
(-310.003 -12.0635 0)
(-264.368 -7.34052 0)
(-194.371 0.141444 0)
(-116.409 4.4498 0)
(-57.7636 5.35619 0)
(-25.1257 4.87868 0)
(-9.97558 4.26898 0)
(0.12294 3.90043 0)
(10.0184 3.58452 0)
(20.4424 3.33775 0)
(32.4508 3.06685 0)
(55.2448 2.8409 0)
(78.9601 1.495 0)
(103.353 1.07946 0)
(195.191 -0.371967 0)
(561.315 2.58352 0)
(1788.56 6.97189 0)
(2636.94 6.82044 0)
(2117.25 -26.7726 0)
(835.138 -16.1096 0)
(1614.92 -6.62243 0)
(-2619.32 802.121 0)
(-2434.86 719.936 0)
(-1920.99 893.652 0)
(-515.846 2202.07 0)
(1078.92 2390.88 0)
(2236.32 1581.98 0)
(1901.18 -645.713 0)
(1025.04 -600.175 0)
(652.124 -455.658 0)
(-77.7073 -811.934 0)
(-912.429 -1044.91 0)
(-1459.2 -950.287 0)
(-1724.22 -719.176 0)
(-2097.39 -577.979 0)
(-2366.72 -495.949 0)
(-1877.27 -295.387 0)
(-984.525 -86.7861 0)
(-487.475 -19.4345 0)
(-355.376 -14.2508 0)
(-309.131 -15.9103 0)
(-257.715 -9.62663 0)
(-187.575 0.186169 0)
(-113.154 6.69472 0)
(-57.3855 8.57712 0)
(-25.7476 8.1191 0)
(-10.5614 7.23796 0)
(-0.281024 6.63459 0)
(9.68796 6.09984 0)
(20.15 5.69506 0)
(32.158 5.3054 0)
(54.3726 4.94438 0)
(77.8534 3.11847 0)
(102.209 2.00036 0)
(195.992 -0.123693 0)
(565.503 3.6886 0)
(1791.42 11.1067 0)
(2620.91 11.1097 0)
(2103.28 -25.6041 0)
(841.698 -26.1617 0)
(1630.16 -15.3603 0)
(-2195.43 -166.3 0)
(-1848.69 292.118 0)
(-767.132 1213.87 0)
(-14.5371 1833.44 0)
(422.091 1636.46 0)
(836.65 774.936 0)
(1046.14 -390.049 0)
(953.502 -550.937 0)
(318.375 -881.587 0)
(-363.916 -1143.18 0)
(-881.46 -1204.12 0)
(-1231.97 -1003.15 0)
(-1548.24 -793.888 0)
(-2016.93 -727.89 0)
(-2220.16 -654.344 0)
(-1640.47 -355.065 0)
(-829.609 -96.063 0)
(-449.059 -25.8677 0)
(-352.772 -20.2464 0)
(-305.547 -18.4625 0)
(-248.857 -9.80476 0)
(-178.644 2.0435 0)
(-108.323 10.2448 0)
(-56.391 13.0502 0)
(-26.4162 12.7539 0)
(-11.4061 11.6707 0)
(-0.97379 10.7859 0)
(9.11306 9.92501 0)
(19.6768 9.32738 0)
(31.7274 8.77174 0)
(53.1374 8.28166 0)
(76.1232 5.98014 0)
(100.228 4.08548 0)
(196.818 1.22009 0)
(572.137 5.91819 0)
(1795.71 17.2371 0)
(2601.56 15.9128 0)
(2081.33 -24.1443 0)
(845.009 -33.7222 0)
(1656.47 -20.3451 0)
(-1729.18 -655.928 0)
(-1104.88 100.92 0)
(-435.72 483.764 0)
(-108.616 163.436 0)
(58.9119 -66.6258 0)
(283.498 -369.954 0)
(623.516 -450.027 0)
(551.377 -752.351 0)
(81.4205 -1085.94 0)
(-388.511 -1225.02 0)
(-777.499 -1154.02 0)
(-1063.88 -983.475 0)
(-1458.97 -879.818 0)
(-1962.92 -883.755 0)
(-2007.46 -742.326 0)
(-1339.29 -343.541 0)
(-667.298 -90.0499 0)
(-414.415 -32.4555 0)
(-348.24 -25.6775 0)
(-299.069 -19.6171 0)
(-237.955 -7.80389 0)
(-168.254 5.67402 0)
(-102.547 14.8936 0)
(-54.9677 18.2881 0)
(-27.077 18.1321 0)
(-12.4578 16.9072 0)
(-1.9632 15.7244 0)
(8.28244 14.4976 0)
(19.0386 13.7049 0)
(31.1503 12.9649 0)
(51.6825 12.2832 0)
(73.8098 9.69548 0)
(97.6225 6.98611 0)
(197.758 3.94752 0)
(580.937 8.92793 0)
(1801.05 22.39 0)
(2581.03 17.992 0)
(2055.45 -21.2838 0)
(845.359 -38.7958 0)
(1683.93 -24.1654 0)
(-1307.9 -934.776 0)
(-750.438 -448.494 0)
(-706.889 -782.175 0)
(-544.913 -936.344 0)
(-91.903 -776.882 0)
(467.191 -523.5 0)
(677.648 -515.635 0)
(340.715 -930.961 0)
(-137.111 -1127.51 0)
(-429.524 -1194.15 0)
(-648.694 -1083.86 0)
(-967.742 -979.467 0)
(-1452.14 -983.897 0)
(-1884.44 -1001.63 0)
(-1699.59 -723.413 0)
(-1011.92 -279.157 0)
(-529.836 -77.7121 0)
(-387.027 -36.7681 0)
(-340.4 -28.5662 0)
(-288.324 -18.2511 0)
(-224.486 -3.1814 0)
(-156.771 11.4414 0)
(-96.168 21.1619 0)
(-53.2702 24.8289 0)
(-27.7469 24.7374 0)
(-13.7263 23.4032 0)
(-3.29571 21.9328 0)
(7.16704 20.3949 0)
(18.1998 19.4963 0)
(30.3574 18.584 0)
(49.9869 17.7395 0)
(71.0187 15.0855 0)
(94.6894 12.0366 0)
(198.689 9.13601 0)
(589.909 14.0835 0)
(1804.44 29.9733 0)
(2559.48 24.3518 0)
(2026.61 -12.2923 0)
(842.232 -35.0942 0)
(1720.63 -20.6091 0)
(-1333.89 -1354.06 0)
(-957.831 -824.726 0)
(-905.831 -851.212 0)
(-103.515 -537.251 0)
(456.744 -265.206 0)
(535.245 -370.956 0)
(230.871 -750.587 0)
(-38.2468 -1083.55 0)
(-172.196 -1170.83 0)
(-346.451 -1095.83 0)
(-570.624 -1016.03 0)
(-967.552 -1013.31 0)
(-1480.33 -1086.56 0)
(-1711.9 -1015.81 0)
(-1311.25 -593.512 0)
(-717.067 -202.222 0)
(-433.724 -70.301 0)
(-367.057 -42.4436 0)
(-330.396 -30.7487 0)
(-274.607 -15.2781 0)
(-209.342 2.02024 0)
(-144.796 17.6369 0)
(-89.6467 27.5275 0)
(-51.5222 31.2752 0)
(-28.4508 31.2009 0)
(-15.1604 29.7367 0)
(-4.86211 28.0637 0)
(5.93454 26.4677 0)
(17.2935 25.4248 0)
(29.4574 24.3561 0)
(48.3113 23.3847 0)
(68.3143 20.8692 0)
(91.8894 17.9897 0)
(199.73 15.2948 0)
(601.017 19.4713 0)
(1810.95 33.9777 0)
(2540.31 26.3317 0)
(1998.16 -5.02756 0)
(837.344 -31.0797 0)
(1744.01 -20.8775 0)
(-1666.13 -644.426 0)
(-265.88 -311.992 0)
(-429.867 33.4297 0)
(19.7836 4.29097 0)
(68.3447 -344.92 0)
(-0.540624 -769.707 0)
(-9.03007 -1073.91 0)
(-64.2418 -1073.54 0)
(-148.951 -1065.2 0)
(-280.358 -996.385 0)
(-569.176 -998.735 0)
(-1035.71 -1080.71 0)
(-1454.54 -1133.37 0)
(-1409.32 -888.801 0)
(-915.592 -415.841 0)
(-507.731 -143.392 0)
(-375.867 -66.2489 0)
(-348.913 -46.011 0)
(-314.223 -29.9128 0)
(-256.746 -9.66398 0)
(-192.768 9.19956 0)
(-132.192 25.3303 0)
(-83.0257 34.9691 0)
(-49.7304 38.5299 0)
(-29.2294 38.3693 0)
(-16.7494 36.7745 0)
(-6.44589 35.1073 0)
(4.62406 33.6569 0)
(16.165 32.3162 0)
(28.3915 31.0856 0)
(46.6268 30.0038 0)
(65.8198 27.7107 0)
(89.3177 25.3036 0)
(200.117 23.3168 0)
(607.913 26.7889 0)
(1811.06 39.423 0)
(2521.89 30.6879 0)
(1971.28 2.31279 0)
(826.958 -28.4603 0)
(1780.25 -21.8897 0)
(-705.556 164.134 0)
(-304.624 42.5123 0)
(-601.049 103.876 0)
(-468.107 -332.807 0)
(-289.108 -807.459 0)
(-167.238 -993.886 0)
(-61.9177 -1029.4 0)
(-29.854 -987.726 0)
(-97.843 -940.648 0)
(-282.401 -930.579 0)
(-651.88 -1023.48 0)
(-1097.29 -1123.58 0)
(-1295.4 -1047.62 0)
(-1020.47 -651.548 0)
(-592.949 -267.036 0)
(-380.187 -109.464 0)
(-339.883 -65.1534 0)
(-332.042 -47.1106 0)
(-295.371 -26.2889 0)
(-236.917 -4.00479 0)
(-175.62 16.2431 0)
(-119.964 32.1435 0)
(-76.9271 41.3774 0)
(-48.2457 44.7644 0)
(-30.1423 44.6928 0)
(-18.3037 43.3287 0)
(-7.86637 41.9958 0)
(3.24492 40.7509 0)
(14.8158 39.3432 0)
(27.229 38.1982 0)
(45.0592 37.2187 0)
(63.785 35.4272 0)
(87.6552 33.9256 0)
(201.162 33.5153 0)
(616.537 36.2843 0)
(1814.71 46.9316 0)
(2504.54 38.6015 0)
(1941.17 13.9914 0)
(814.022 -20.0791 0)
(1800.57 -19.2651 0)
(-727.974 39.2246 0)
(-323.947 20.4167 0)
(-791.538 -116.784 0)
(-858.412 -551.808 0)
(-568.696 -911.13 0)
(-214.413 -991.501 0)
(-3.09405 -901.274 0)
(21.2846 -856.529 0)
(-93.8822 -845.436 0)
(-360.179 -920.272 0)
(-755.163 -1045.1 0)
(-1058.97 -1065.61 0)
(-999.672 -812.194 0)
(-657.123 -408.371 0)
(-393.221 -170.527 0)
(-313.19 -86.6476 0)
(-315.781 -61.1198 0)
(-311.462 -43.4824 0)
(-272.684 -18.5283 0)
(-215.761 5.06044 0)
(-157.934 26.3095 0)
(-107.971 41.5385 0)
(-70.8637 49.986 0)
(-46.5356 53.0008 0)
(-30.6129 52.9612 0)
(-19.3484 51.8432 0)
(-8.92992 50.7083 0)
(2.06794 49.4659 0)
(13.7051 48.0742 0)
(26.3443 47.0594 0)
(43.9566 46.2626 0)
(62.6464 44.9893 0)
(87.4753 44.451 0)
(202.39 45.763 0)
(620.841 47.7322 0)
(1813.29 55.1437 0)
(2490.15 46.6349 0)
(1914.74 24.1848 0)
(794.911 -14.3012 0)
(1821.56 -20.1451 0)
(-493.556 57.8887 0)
(-454.959 33.3429 0)
(-1152.47 -233.157 0)
(-1233.57 -678.857 0)
(-712.812 -874.021 0)
(-157.74 -827.568 0)
(68.1465 -739.162 0)
(23.9531 -750.45 0)
(-159.268 -799.286 0)
(-474.802 -922.006 0)
(-791.936 -997.162 0)
(-872.854 -865.668 0)
(-662.056 -521.572 0)
(-402.136 -239.203 0)
(-282.925 -112.968 0)
(-274.758 -68.9113 0)
(-298.288 -52.216 0)
(-290.999 -32.1726 0)
(-248.593 -5.50356 0)
(-193.71 19.1266 0)
(-140.468 40.199 0)
(-97.1481 54.5847 0)
(-65.8816 62.1655 0)
(-45.3787 64.7959 0)
(-31.2578 64.7618 0)
(-20.4747 63.7565 0)
(-10.1573 62.6 0)
(0.706637 61.2552 0)
(12.4968 59.7799 0)
(25.4833 58.8325 0)
(43.0644 58.1785 0)
(62.0392 57.3884 0)
(88.4007 57.6118 0)
(204.324 60.4076 0)
(625.577 61.6397 0)
(1813.65 66.2236 0)
(2474.71 55.3671 0)
(1882.45 35.8854 0)
(771.304 -8.50806 0)
(1832.36 -23.4319 0)
(-396.706 -109.484 0)
(-604.41 -118.864 0)
(-1477.84 -307.62 0)
(-1475.97 -625.35 0)
(-711.999 -699.985 0)
(-84.458 -621.53 0)
(71.2204 -611.901 0)
(-36.6526 -680.464 0)
(-259.2 -780.255 0)
(-550.86 -873.822 0)
(-700.874 -822.756 0)
(-600.672 -572.178 0)
(-395.988 -290.681 0)
(-263.377 -130.842 0)
(-229.122 -64.9691 0)
(-254.648 -46.584 0)
(-280.378 -32.3879 0)
(-266.448 -5.98701 0)
(-223.25 22.3274 0)
(-171.72 48.0745 0)
(-123.765 67.6862 0)
(-86.8037 80.0228 0)
(-61.0239 85.6746 0)
(-44.0337 86.856 0)
(-31.6145 85.7449 0)
(-21.4316 83.8543 0)
(-11.3403 81.8824 0)
(-0.649584 79.8705 0)
(11.3705 78.0519 0)
(24.8011 76.9174 0)
(42.565 76.352 0)
(62.1003 75.9425 0)
(90.3847 76.7248 0)
(206.272 80.514 0)
(626.445 82.6021 0)
(1807.24 87.0169 0)
(2460.91 71.4661 0)
(1853.19 51.9757 0)
(737.751 3.34381 0)
(1846 -17.6869 0)
(-594.459 -272.857 0)
(-645.89 -221.883 0)
(-1640.53 -263.934 0)
(-1611.66 -402.789 0)
(-709.132 -470.366 0)
(-72.8592 -468.634 0)
(11.3558 -537.887 0)
(-138.279 -622.951 0)
(-345.595 -723.971 0)
(-515.758 -721.094 0)
(-501.261 -550.923 0)
(-360.127 -303.93 0)
(-236.768 -138.965 0)
(-184.632 -57.151 0)
(-201.731 -25.8644 0)
(-243.362 -16.2962 0)
(-259.167 0.85561 0)
(-238.274 27.8572 0)
(-196.498 55.3682 0)
(-150 79.2997 0)
(-109.682 96.1955 0)
(-79.8138 106.062 0)
(-59.2969 110.106 0)
(-45.311 110.327 0)
(-34.1504 108.491 0)
(-24.1967 105.924 0)
(-13.9962 103.508 0)
(-2.98462 101.048 0)
(9.65111 99.2725 0)
(23.8452 98.8407 0)
(42.1249 99.039 0)
(62.3984 99.5894 0)
(92.8059 101.468 0)
(209.987 106.364 0)
(631.843 110.446 0)
(1802.92 113.765 0)
(2440.94 89.4546 0)
(1816.8 71.0317 0)
(704.175 19.3751 0)
(1830.1 -11.1193 0)
(-945.252 -236.548 0)
(-595.811 -173.138 0)
(-1652.17 -131.177 0)
(-1674.9 -170.709 0)
(-775.449 -285.061 0)
(-149.524 -390.107 0)
(-77.4856 -496.135 0)
(-215.97 -562.919 0)
(-353.774 -591.221 0)
(-384.105 -474.567 0)
(-298.879 -282.955 0)
(-203.695 -127.493 0)
(-158.183 -36.3618 0)
(-154.388 3.85808 0)
(-189.753 13.8688 0)
(-228.9 20.2189 0)
(-237.83 36.3964 0)
(-213.918 60.518 0)
(-173.678 86.4016 0)
(-132.378 107.701 0)
(-97.9758 122.593 0)
(-73.3995 131.122 0)
(-56.9139 134.756 0)
(-45.5892 135.326 0)
(-35.8574 134.306 0)
(-26.2334 133.032 0)
(-16.0394 131.983 0)
(-4.73141 131.289 0)
(9.24373 131.275 0)
(24.5761 133.7 0)
(43.2865 136.707 0)
(64.4408 140.263 0)
(96.9132 144.848 0)
(214.924 152.499 0)
(633.577 161.259 0)
(1787.01 165.214 0)
(2419.73 131.692 0)
(1785.65 110.526 0)
(658.587 50.5712 0)
(1809.03 7.73369 0)
(-1108.51 -95.9745 0)
(-544.351 -62.01 0)
(-1638.19 4.83079 0)
(-1759.95 -4.27726 0)
(-920.552 -173.236 0)
(-276.257 -324.443 0)
(-155.173 -408.118 0)
(-229.908 -412.667 0)
(-260.455 -335.956 0)
(-218.701 -182.538 0)
(-166.808 -51.629 0)
(-122.501 25.6152 0)
(-110.194 72.6161 0)
(-136.228 92.6913 0)
(-185.965 95.0275 0)
(-221.653 100.973 0)
(-220.333 119.577 0)
(-190.087 147.058 0)
(-151.031 174.668 0)
(-115.125 197.494 0)
(-87.1129 215.168 0)
(-68.0934 227.99 0)
(-55.2451 237.073 0)
(-45.744 243.831 0)
(-36.3609 249.379 0)
(-26.4356 254.778 0)
(-15.6756 259.283 0)
(-3.66621 263.161 0)
(11.9739 266.487 0)
(29.0796 271.376 0)
(48.4495 275.364 0)
(70.2426 281.255 0)
(104.597 287.527 0)
(225.802 298.796 0)
(644.096 314.886 0)
(1774.42 323.334 0)
(2388.25 266.828 0)
(1738.63 201.47 0)
(605.12 90.6809 0)
(1721.29 28.1103 0)
(-1145.32 32.0488 0)
(-498.672 58.0361 0)
(-1596.53 127.33 0)
(-1846.49 135.167 0)
(-1083.97 -51.7576 0)
(-375.864 -126.197 0)
(-162.501 -123.854 0)
(-146.432 -53.5273 0)
(-132.013 56.5185 0)
(-110.116 155.501 0)
(-98.2956 226.332 0)
(-83.9675 274.807 0)
(-93.5456 302.062 0)
(-132.792 316.373 0)
(-181.773 331.693 0)
(-205.243 360.733 0)
(-193.421 402.844 0)
(-160.83 448.256 0)
(-125.077 489.701 0)
(-93.3501 524.911 0)
(-68.5884 557.036 0)
(-52.2909 587.929 0)
(-41.6491 616.896 0)
(-33.7314 643.889 0)
(-25.308 668.878 0)
(-16.689 694.061 0)
(-7.96115 712.825 0)
(2.2106 732.514 0)
(17.1596 747.587 0)
(33.1306 762.214 0)
(52.806 771.001 0)
(76.1611 783.935 0)
(113.816 789.623 0)
(241.288 803.439 0)
(657.222 817.998 0)
(1740.7 799.429 0)
(2302.3 649.051 0)
(1615.91 455.896 0)
(491.532 204.904 0)
(1634.96 58.1373 0)
(-966.729 36.7363 0)
(-452.534 175.585 0)
(-1563.87 449.116 0)
(-1932.53 611.991 0)
(-1172.41 516.576 0)
(-345.732 539.11 0)
(-85.1463 614.725 0)
(-56.094 720.416 0)
(-59.0273 821.041 0)
(-55.0627 913.341 0)
(-51.8406 1001.56 0)
(-49.5251 1085.71 0)
(-70.1399 1155.18 0)
(-107.675 1215.6 0)
(-143.218 1280.61 0)
(-153.089 1358.31 0)
(-135.993 1442.89 0)
(-106.389 1522.21 0)
(-77.1631 1590.48 0)
(-50.2388 1647.49 0)
(-26.3861 1699.26 0)
(-10.4097 1748.55 0)
(-1.32016 1793.21 0)
(4.34784 1832.56 0)
(11.9864 1865.49 0)
(15.9134 1895.56 0)
(21.3793 1914.87 0)
(29.8314 1937.12 0)
(40.594 1951.96 0)
(51.6419 1967 0)
(69.3802 1972.7 0)
(88.188 1978.08 0)
(123.392 1967.61 0)
(253.145 1960.86 0)
(640.232 1928.6 0)
(1611.62 1810.07 0)
(2057.2 1431.8 0)
(1310.63 958.612 0)
(221.825 389.217 0)
(1411.23 34.5074 0)
(-915.385 -144.871 0)
(-101.288 198.755 0)
(-1176 810.568 0)
(-1781.48 1292.44 0)
(-1154.2 1506.8 0)
(-281.285 1600.13 0)
(12.212 1689.88 0)
(52.381 1777.54 0)
(53.8963 1873.02 0)
(63.8349 1968.5 0)
(67.8025 2056.95 0)
(64.0689 2130.71 0)
(31.628 2181.75 0)
(-11.9207 2221.48 0)
(-44.2574 2264.71 0)
(-48.8678 2316.64 0)
(-35.4827 2372.34 0)
(-18.6029 2425.99 0)
(-4.35006 2473.96 0)
(11.4714 2514.74 0)
(28.7975 2542.62 0)
(38.2428 2551.83 0)
(39.307 2547.31 0)
(35.9208 2537.01 0)
(35.4022 2524.84 0)
(30.8927 2513 0)
(32.0854 2501.44 0)
(37.9577 2489.43 0)
(45.9524 2477.75 0)
(53.1106 2465.3 0)
(63.4816 2453.36 0)
(71.2621 2434.01 0)
(97.2206 2415.08 0)
(203.691 2386.94 0)
(511.921 2306.02 0)
(1261.97 2104.15 0)
(1481.8 1515.85 0)
(611.242 1064.72 0)
(-398.969 472.354 0)
(1224.97 -77.9759 0)
(-1321.96 4477.11 0)
(468.162 -455.953 0)
(-509.954 556.232 0)
(-1261.61 1182.57 0)
(-875.908 1740.94 0)
(-169.308 1896.17 0)
(85.8105 1946.23 0)
(120.381 1963.89 0)
(124.993 2006.08 0)
(122.18 2038.49 0)
(104.466 2063.58 0)
(70.7404 2066.92 0)
(17.3292 2052.64 0)
(-27.7293 2038.84 0)
(-51.5155 2035.49 0)
(-49.3767 2039.33 0)
(-30.6177 2044.95 0)
(-8.46484 2049.66 0)
(8.35651 2050.86 0)
(15.931 2046.9 0)
(9.35678 2034.2 0)
(-5.8976 2012.24 0)
(-15.5984 1984.69 0)
(-17.3045 1954.58 0)
(-11.1484 1923.27 0)
(-6.63523 1893.27 0)
(-1.33871 1866.13 0)
(7.00515 1835.19 0)
(17.3442 1807.47 0)
(28.1363 1774.02 0)
(39.2269 1744.53 0)
(51.3062 1707.98 0)
(78.0304 1679.6 0)
(148.05 1637.43 0)
(367.724 1530.24 0)
(850.183 1279.89 0)
(1055.57 582.085 0)
(305.083 234.582 0)
(-879.315 -504.263 0)
(1411.92 3429.35 0)
(-2407.08 279066 0)
(-3879.59 2333.21 0)
(402.944 -822.904 0)
(-639.853 -288.827 0)
(-466.551 333.435 0)
(-83.4621 517.303 0)
(77.4676 540.218 0)
(110.055 541.009 0)
(125.78 558.348 0)
(119.249 559.804 0)
(95.2006 557.109 0)
(53.5191 545.88 0)
(4.57153 541.153 0)
(-28.4411 551.98 0)
(-43.791 577.343 0)
(-39.7523 613.447 0)
(-25.5265 647.276 0)
(-12.9045 670.044 0)
(-7.00547 679.125 0)
(-4.59014 678.835 0)
(-4.6037 680.486 0)
(-9.46047 692.736 0)
(-16.2591 711.179 0)
(-23.2705 727.713 0)
(-23.676 738.805 0)
(-24.1641 745.51 0)
(-23.8805 745.184 0)
(-18.5691 743.643 0)
(-12.9971 736.584 0)
(-7.54369 723.96 0)
(-0.154896 701.905 0)
(8.69239 678.787 0)
(29.2366 643.381 0)
(59.763 603.432 0)
(167.383 508.462 0)
(348.295 270.328 0)
(474.506 -336.925 0)
(-435.603 -865.246 0)
(2679.62 2350.37 0)
(3730.76 216953 0)
(257444 -269014 0)
(-269243 5232.78 0)
(-3036.64 1881.78 0)
(-147.324 1901.95 0)
(-99.092 2414.84 0)
(29.9549 2582.61 0)
(108.655 2490.97 0)
(137.852 2356.6 0)
(143.105 2181.19 0)
(120.986 2021.25 0)
(91.0482 1898.32 0)
(55.3645 1810.97 0)
(23.2068 1789.78 0)
(7.1451 1806.4 0)
(7.71688 1840.36 0)
(18.0134 1861.88 0)
(23.9212 1866.59 0)
(22.226 1856.91 0)
(16.8277 1842.38 0)
(17.2425 1832.44 0)
(22.7523 1823.14 0)
(23.6792 1817.47 0)
(18.107 1819.76 0)
(9.31695 1828.06 0)
(6.00168 1844.99 0)
(-0.488672 1853.75 0)
(-3.13843 1876.54 0)
(-1.28237 1883.9 0)
(-1.62227 1895.15 0)
(-5.28098 1893.6 0)
(-4.30357 1899.45 0)
(-5.09007 1880.88 0)
(5.41476 1870.13 0)
(18.0373 1803.98 0)
(46.7337 1745.63 0)
(35.5371 1533.53 0)
(-38.7087 1343.22 0)
(2894.66 1418.89 0)
(209018 3935.38 0)
(-197817 -205693 0)
(257444 269014 0)
(-269243 -5232.78 0)
(-3036.64 -1881.78 0)
(-147.324 -1901.95 0)
(-99.092 -2414.84 0)
(29.9549 -2582.61 0)
(108.655 -2490.97 0)
(137.852 -2356.6 0)
(143.105 -2181.19 0)
(120.986 -2021.25 0)
(91.0482 -1898.32 0)
(55.3645 -1810.97 0)
(23.2068 -1789.78 0)
(7.1451 -1806.4 0)
(7.71688 -1840.36 0)
(18.0134 -1861.88 0)
(23.9212 -1866.59 0)
(22.226 -1856.91 0)
(16.8277 -1842.38 0)
(17.2425 -1832.44 0)
(22.7523 -1823.14 0)
(23.6792 -1817.47 0)
(18.107 -1819.76 0)
(9.31695 -1828.06 0)
(6.00168 -1844.99 0)
(-0.488672 -1853.75 0)
(-3.13843 -1876.54 0)
(-1.28237 -1883.9 0)
(-1.62227 -1895.15 0)
(-5.28098 -1893.6 0)
(-4.30357 -1899.45 0)
(-5.09007 -1880.88 0)
(5.41476 -1870.13 0)
(18.0373 -1803.98 0)
(46.7337 -1745.63 0)
(35.5371 -1533.53 0)
(-38.7087 -1343.22 0)
(2894.66 -1418.89 0)
(209018 -3935.38 0)
(-197817 205693 0)
(-2407.08 -279066 0)
(-3879.59 -2333.21 0)
(402.944 822.904 0)
(-639.853 288.827 0)
(-466.551 -333.435 0)
(-83.4621 -517.303 0)
(77.4676 -540.218 0)
(110.055 -541.009 0)
(125.78 -558.348 0)
(119.249 -559.804 0)
(95.2006 -557.109 0)
(53.5191 -545.88 0)
(4.57153 -541.153 0)
(-28.4411 -551.98 0)
(-43.791 -577.343 0)
(-39.7523 -613.447 0)
(-25.5265 -647.276 0)
(-12.9045 -670.044 0)
(-7.00547 -679.125 0)
(-4.59014 -678.835 0)
(-4.6037 -680.486 0)
(-9.46047 -692.736 0)
(-16.2591 -711.179 0)
(-23.2705 -727.713 0)
(-23.676 -738.805 0)
(-24.1641 -745.51 0)
(-23.8805 -745.184 0)
(-18.5691 -743.643 0)
(-12.9971 -736.584 0)
(-7.54369 -723.96 0)
(-0.154896 -701.905 0)
(8.69239 -678.787 0)
(29.2366 -643.381 0)
(59.763 -603.432 0)
(167.383 -508.462 0)
(348.295 -270.328 0)
(474.506 336.925 0)
(-435.603 865.246 0)
(2679.62 -2350.37 0)
(3730.76 -216953 0)
(-1321.96 -4477.11 0)
(468.162 455.953 0)
(-509.954 -556.232 0)
(-1261.61 -1182.57 0)
(-875.908 -1740.94 0)
(-169.308 -1896.17 0)
(85.8105 -1946.23 0)
(120.381 -1963.89 0)
(124.993 -2006.08 0)
(122.18 -2038.49 0)
(104.466 -2063.58 0)
(70.7404 -2066.92 0)
(17.3292 -2052.64 0)
(-27.7293 -2038.84 0)
(-51.5155 -2035.49 0)
(-49.3767 -2039.33 0)
(-30.6177 -2044.95 0)
(-8.46484 -2049.66 0)
(8.35651 -2050.86 0)
(15.931 -2046.9 0)
(9.35678 -2034.2 0)
(-5.8976 -2012.24 0)
(-15.5984 -1984.69 0)
(-17.3045 -1954.58 0)
(-11.1484 -1923.27 0)
(-6.63523 -1893.27 0)
(-1.33871 -1866.13 0)
(7.00515 -1835.19 0)
(17.3442 -1807.47 0)
(28.1363 -1774.02 0)
(39.2269 -1744.53 0)
(51.3062 -1707.98 0)
(78.0304 -1679.6 0)
(148.05 -1637.43 0)
(367.724 -1530.24 0)
(850.183 -1279.89 0)
(1055.57 -582.085 0)
(305.083 -234.582 0)
(-879.315 504.263 0)
(1411.92 -3429.35 0)
(-915.385 144.871 0)
(-101.288 -198.755 0)
(-1176 -810.568 0)
(-1781.48 -1292.44 0)
(-1154.2 -1506.8 0)
(-281.285 -1600.13 0)
(12.212 -1689.88 0)
(52.381 -1777.54 0)
(53.8963 -1873.02 0)
(63.8349 -1968.5 0)
(67.8025 -2056.95 0)
(64.0689 -2130.71 0)
(31.628 -2181.75 0)
(-11.9207 -2221.48 0)
(-44.2574 -2264.71 0)
(-48.8678 -2316.64 0)
(-35.4827 -2372.34 0)
(-18.6029 -2425.99 0)
(-4.35006 -2473.96 0)
(11.4714 -2514.74 0)
(28.7975 -2542.62 0)
(38.2428 -2551.83 0)
(39.307 -2547.31 0)
(35.9208 -2537.01 0)
(35.4022 -2524.84 0)
(30.8927 -2513 0)
(32.0854 -2501.44 0)
(37.9577 -2489.43 0)
(45.9524 -2477.75 0)
(53.1106 -2465.3 0)
(63.4816 -2453.36 0)
(71.2621 -2434.01 0)
(97.2206 -2415.08 0)
(203.691 -2386.94 0)
(511.921 -2306.02 0)
(1261.97 -2104.15 0)
(1481.8 -1515.85 0)
(611.242 -1064.72 0)
(-398.969 -472.354 0)
(1224.97 77.9759 0)
(-966.729 -36.7363 0)
(-452.534 -175.585 0)
(-1563.87 -449.116 0)
(-1932.53 -611.991 0)
(-1172.41 -516.576 0)
(-345.732 -539.11 0)
(-85.1463 -614.725 0)
(-56.094 -720.416 0)
(-59.0273 -821.041 0)
(-55.0627 -913.341 0)
(-51.8406 -1001.56 0)
(-49.5251 -1085.71 0)
(-70.1399 -1155.18 0)
(-107.675 -1215.6 0)
(-143.218 -1280.61 0)
(-153.089 -1358.31 0)
(-135.993 -1442.89 0)
(-106.389 -1522.21 0)
(-77.1631 -1590.48 0)
(-50.2388 -1647.49 0)
(-26.3861 -1699.26 0)
(-10.4097 -1748.55 0)
(-1.32016 -1793.21 0)
(4.34784 -1832.56 0)
(11.9864 -1865.49 0)
(15.9134 -1895.56 0)
(21.3793 -1914.87 0)
(29.8314 -1937.12 0)
(40.594 -1951.96 0)
(51.6419 -1967 0)
(69.3802 -1972.7 0)
(88.188 -1978.08 0)
(123.392 -1967.61 0)
(253.145 -1960.86 0)
(640.232 -1928.6 0)
(1611.62 -1810.07 0)
(2057.2 -1431.8 0)
(1310.63 -958.612 0)
(221.825 -389.217 0)
(1411.23 -34.5074 0)
(-1145.32 -32.0488 0)
(-498.672 -58.0361 0)
(-1596.53 -127.33 0)
(-1846.49 -135.167 0)
(-1083.97 51.7576 0)
(-375.864 126.197 0)
(-162.501 123.854 0)
(-146.432 53.5273 0)
(-132.013 -56.5185 0)
(-110.116 -155.501 0)
(-98.2956 -226.332 0)
(-83.9675 -274.807 0)
(-93.5456 -302.062 0)
(-132.792 -316.373 0)
(-181.773 -331.693 0)
(-205.243 -360.733 0)
(-193.421 -402.844 0)
(-160.83 -448.256 0)
(-125.077 -489.701 0)
(-93.3501 -524.911 0)
(-68.5884 -557.036 0)
(-52.2909 -587.929 0)
(-41.6491 -616.896 0)
(-33.7314 -643.889 0)
(-25.308 -668.878 0)
(-16.689 -694.061 0)
(-7.96115 -712.825 0)
(2.2106 -732.514 0)
(17.1596 -747.587 0)
(33.1306 -762.214 0)
(52.806 -771.001 0)
(76.1611 -783.935 0)
(113.816 -789.623 0)
(241.288 -803.439 0)
(657.222 -817.998 0)
(1740.7 -799.429 0)
(2302.3 -649.051 0)
(1615.91 -455.896 0)
(491.532 -204.904 0)
(1634.96 -58.1373 0)
(-1108.51 95.9745 0)
(-544.351 62.01 0)
(-1638.19 -4.83079 0)
(-1759.95 4.27726 0)
(-920.552 173.236 0)
(-276.257 324.443 0)
(-155.173 408.118 0)
(-229.908 412.667 0)
(-260.455 335.956 0)
(-218.701 182.538 0)
(-166.808 51.629 0)
(-122.501 -25.6152 0)
(-110.194 -72.6161 0)
(-136.228 -92.6913 0)
(-185.965 -95.0275 0)
(-221.653 -100.973 0)
(-220.333 -119.577 0)
(-190.087 -147.058 0)
(-151.031 -174.668 0)
(-115.125 -197.494 0)
(-87.1129 -215.168 0)
(-68.0934 -227.99 0)
(-55.2451 -237.073 0)
(-45.744 -243.831 0)
(-36.3609 -249.379 0)
(-26.4356 -254.778 0)
(-15.6756 -259.283 0)