/*--------------------------------*- C++ -*----------------------------------*\
| =========                 |                                                 |
| \\      /  F ield         | OpenFOAM: The Open Source CFD Toolbox           |
|  \\    /   O peration     | Version:  v1912                                 |
|   \\  /    A nd           | Website:  www.openfoam.com                      |
|    \\/     M anipulation  |                                                 |
\*---------------------------------------------------------------------------*/
FoamFile
{
    version     2.0;
    format      ascii;
    class       volScalarField;
    location    "6.9";
    object      p;
}
// * * * * * * * * * * * * * * * * * * * * * * * * * * * * * * * * * * * * * //

dimensions      [1 -1 -2 0 0 0 0];


internalField   nonuniform List<scalar> 
1900
(
26684.9
9356.18
8535.49
8555.79
8555.66
8560.76
8555.1
8546.85
8528.14
8514.7
26685
9356.2
8535.53
8555.84
8555.79
8560.9
8555.76
8544.96
8535.12
8510.77
26685
9356.21
8535.56
8555.88
8555.87
8560.97
8555.56
8543.19
8526.68
8499.97
26685
9356.2
8535.53
8555.84
8555.79
8560.9
8555.76
8544.96
8535.12
8510.77
26684.9
9356.18
8535.49
8555.79
8555.66
8560.76
8555.1
8546.85
8528.14
8514.7
8635.48
8475.37
8410.57
8240.58
8487.09
8495.27
8387.9
8329.88
8159.26
8047.01
8465.35
8369.47
8316.28
8181.83
8080.36
8495.27
8387.9
8329.88
8159.26
8047.01
8635.48
8475.37
8410.57
8240.58
8487.09
3567.68
2071.29
1469.84
1147.58
875.427
4031.78
2286.24
1582.84
1235.67
945.675
4142.26
2246.11
1533.96
1200.66
905.859
4031.78
2286.24
1582.84
1235.67
945.675
3567.68
2071.29
1469.84
1147.58
875.427
835.651
771.554
684.292
565.338
558.39
718.966
1300.09
1417.37
1395.36
1363.76
1292.09
1171
1036.82
895.184
729.77
566.945
471.405
432.773
411.189
393.413
377.363
364.506
356.246
352.007
350.121
349.371
349.081
349.395
350.149
351.565
353.591
357.464
362.024
368.541
382.97
430.266
591.41
763.312
903.565
916.019
789.039
740.786
668.766
562.118
553.796
725.737
1313.1
1415.33
1393.67
1359.27
1290.87
1179.98
1046.04
900.647
732.627
568.051
471.713
432.823
411.212
393.497
377.4
364.498
356.219
351.978
350.095
349.348
349.06
349.375
350.131
351.548
353.575
357.456
362.014
368.539
382.954
430.183
591.312
763.587
903.639
915.936
768.64
731.559
667.203
557.66
545.276
717.49
1317.74
1419.02
1395.53
1364.4
1297.29
1178.77
1042.44
899.229
733.117
568.731
471.899
432.85
411.224
393.531
377.416
364.498
356.21
351.969
350.087
349.341
349.053
349.369
350.125
351.542
353.568
357.452
362.009
368.534
382.952
430.143
591.282
763.687
903.699
916.06
789.039
740.786
668.766
562.118
553.796
725.737
1313.1
1415.33
1393.67
1359.27
1290.87
1179.98
1046.04
900.647
732.627
568.051
471.713
432.823
411.212
393.497
377.4
364.498
356.219
351.978
350.095
349.348
349.06
349.375
350.131
351.548
353.575
357.456
362.014
368.539
382.954
430.183
591.312
763.587
903.639
915.936
835.651
771.554
684.292
565.338
558.39
718.966
1300.09
1417.37
1395.36
1363.76
1292.09
1171
1036.82
895.184
729.77
566.945
471.405
432.773
411.189
393.413
377.363
364.506
356.246
352.007
350.121
349.371
349.081
349.395
350.149
351.565
353.591
357.464
362.024
368.541
382.97
430.266
591.41
763.312
903.565
916.019
948.081
844.367
753.492
615.761
606.149
777.207
1231.93
1320.46
1324.03
1316.31
1258.93
1151.51
1024.69
885.694
721.219
561.284
469.612
432.447
411.003
393.061
377.159
364.516
356.361
352.138
350.238
349.473
349.174
349.479
350.227
351.635
353.656
357.489
362.049
368.522
383.042
430.462
591.573
761.961
902.899
916.066
939.693
835.372
734.642
682.449
725.015
881.105
1146.28
1224.1
1263.93
1251.55
1187.73
1089.77
978.782
852.088
695.823
546.777
465.357
431.594
410.426
392.313
376.685
364.493
356.616
352.46
350.532
349.728
349.406
349.692
350.425
351.817
353.823
357.579
362.099
368.492
383.183
430.908
592.061
760.197
901.442
915.498
953.592
856.825
810.641
836.971
883.643
996.231
1100.19
1167.57
1186.38
1154.44
1097.37
1021.01
927.892
809.284
659.164
526.65
459.929
430.339
409.474
391.371
376.138
364.514
357.025
352.993
351.045
350.19
349.829
350.08
350.788
352.157
354.142
357.789
362.235
368.493
383.415
431.661
592.823
758.393
899.273
914.461
957.631
894.843
890.142
921.978
980.075
1033.91
1061.42
1088.15
1082.85
1061.8
1016.84
954.425
872.005
756.95
615.229
505.591
454.7
428.801
408.267
390.363
375.654
364.689
357.651
353.778
351.819
350.904
350.491
350.69
351.363
352.7
354.658
358.181
362.508
368.611
383.798
432.78
593.869
756.848
896.939
913.39
957.863
935.801
930.958
930.866
940.721
965.222
993.258
1008.31
1001.6
976.26
941.843
889.195
810.726
696.289
569.566
487.312
450.006
426.846
406.745
389.308
375.322
365.092
358.545
354.855
352.889
351.907
351.426
351.553
352.181
353.476
355.394
358.78
362.952
368.901
384.352
434.096
594.852
755.356
894.061
911.887
950.547
938.955
885.991
874.417
903.569
928.243
936.882
924.344
918.377
900.709
872.966
824.171
743.932
632.315
529.737
474.035
446.191
424.853
405.237
388.449
375.323
365.868
359.821
356.316
354.344
353.291
352.728
352.771
353.354
354.6
356.475
359.732
363.751
369.56
385.28
436.045
596.648
754.952
892.128
911.033
910.408
938.018
889.763
881.64
879.756
861.038
853.529
851.271
844.996
832.575
808.057
757.089
673.403
573.309
500.812
464.722
442.346
422.293
403.487
387.708
375.535
366.914
361.373
358.058
356.079
354.947
354.293
354.257
354.781
355.97
357.793
360.928
364.811
370.49
386.402
437.797
597.855
754.361
889.689
909.356
962.637
949.589
896.155
846.579
810.303
791.833
784.137
784.491
781.047
771.577
743.784
687.21
604.864
527.385
482.405
458.168
438.994
419.921
402.069
387.438
376.283
368.486
363.417
360.268
358.273
357.055
356.319
356.213
356.662
357.786
359.555
362.584
366.365
371.98
388.098
440.337
600.149
754.884
888.12
908.473
962.183
935.353
873.234
803.235
750.223
726.507
722.959
726.643
725.525
714.049
679.183
618.783
548.313
498.049
470.851
452.691
435.285
417.248
400.704
387.29
377.227
370.238
365.633
362.655
360.662
359.386
358.594
358.43
358.812
359.887
361.616
364.576
368.316
373.967
390.216
442.907
602.281
755.779
886.89
907.276
974.458
938.52
855.262
760.444
692.975
669.344
672.612
677.46
675.235
657.146
615.765
559.522
510.203
481.066
463.475
448.686
432.381
415.269
400.109
387.971
379.023
372.786
368.572
365.721
363.714
362.376
361.521
361.286
361.594
362.618
364.312
367.222
370.961
376.732
393.118
446.343
605.491
757.518
886.127
906.531
980.512
937.128
833.835
715.69
643.537
625.822
632.274
634.198
627.482
602.129
560.04
517.519
488.721
471.279
458.394
445.171
429.645
413.808
400.121
389.296
381.413
375.895
372.055
369.335
367.328
365.943
365.027
364.723
364.955
365.938
367.608
370.501
374.28
380.248
396.707
450.119
608.583
759.775
885.681
905.239
969.426
927.121
814.297
682.407
608.038
594.197
598.59
595.341
581.583
553.399
519.632
493.927
477.493
466.55
456.338
443.61
428.885
414.627
402.47
393.017
386.086
381.103
377.45
374.703
372.568
371.026
369.962
369.517
369.639
370.553
372.199
375.084
378.926
385.126
401.841
455.838
613.625
763.391
886.496
905.522
949.019
912.9
800.302
665.299
586.802
569.95
568.298
560.434
542.29
518.199
496.855
483.18
473.222
464.967
455.56
443.401
429.739
416.786
405.987
397.639
391.482
386.956
383.507
380.787
378.573
376.909
375.736
375.174
375.223
376.169
377.872
380.844
384.848
391.376
408.408
462.558
618.759
767.782
888.067
905.489
939.313
908.026
798.294
661.025
574.069
548.438
540.562
529.813
513.234
499.056
487.616
479.657
473.461
466.983
457.866
445.821
432.822
421.111
411.654
404.396
398.979
394.847
391.54
388.825
386.561
384.871
383.686
383.164
383.285
384.461
386.438
389.726
394.091
401.169
419.018
473.993
628.755
776.067
892.781
908.768
936.883
907.688
801.866
664.724
566.469
532.354
521.189
512.966
503.875
497.473
491.031
486.035
481.298
475.232
466.031
454.448
442.71
432.611
424.66
418.646
414.284
411.051
408.51
406.462
404.798
403.679
402.963
402.803
403.208
404.696
406.863
410.531
415.294
423.178
442.346
498.526
650.175
791.822
899.052
911.107
945.306
918.625
815.518
677.569
568.066
533.86
526.301
523.623
519.618
516.659
513.155
510.574
507.36
502.389
494.824
485.765
477.128
470.115
464.935
461.307
459.238
458.367
458.14
458.307
458.717
459.744
460.583
462.226
464.029
466.904
469.97
474.88
480.1
489.091
509.545
565.009
706.939
832.618
917.994
917.276
941.87
932.019
860.021
739.489
627.03
594.577
592.018
596.009
598.489
602.777
606.544
611.35
614.663
615.456
613.382
610.173
607.523
605.951
605.347
605.488
606.848
609.205
611.794
614.275
616.387
618.748
620.232
622.691
624.878
628.294
631.303
635.927
639.794
647.569
664.826
711.818
826.571
914.381
948.58
914.642
910.953
944.21
925.891
840.387
750.349
725.165
728.374
736.948
745.077
754.651
762.806
770.176
773.794
773.852
771.383
768.266
765.987
765.232
765.809
767.155
768.614
769.044
768.362
767.285
766.163
765.809
765.199
765.498
765.985
767.573
769.34
772.2
775.263
781.37
793.526
828.739
906.431
980.681
981.699
891.784
1088.81
837.196
964.713
921.589
872.057
856.884
860.858
868.558
877.622
887.778
896.33
903.195
905.79
905.448
903.26
900.716
898.978
898.362
898.408
898.464
898.45
898.063
897.022
895.461
893.376
891.878
889.835
888.495
887.283
886.714
886.226
886.64
887.239
890.3
894.59
911.722
940.865
978.377
849.804
985.429
17504
910.059
862.896
870.97
859.87
856.714
862.078
869.324
878.58
886.571
892.577
896.751
898.109
898.067
897.573
898.058
899.271
900.828
902.221
903.209
904.279
905.389
906.215
906.696
906.693
906.984
906.373
906.565
906.331
906.644
906.191
906.983
906.82
909.398
910.674
916.45
914.547
897.266
966.367
13743.9
17504
910.059
862.896
870.97
859.87
856.714
862.078
869.324
878.58
886.571
892.577
896.751
898.109
898.067
897.573
898.058
899.271
900.828
902.221
903.209
904.279
905.389
906.215
906.696
906.693
906.984
906.373
906.565
906.331
906.644
906.191
906.983
906.82
909.398
910.674
916.45
914.547
897.266
966.367
13743.9
1088.81
837.196
964.713
921.589
872.057
856.884
860.858
868.558
877.622
887.778
896.33
903.195
905.79
905.448
903.26
900.716
898.978
898.362
898.408
898.464
898.45
898.063
897.022
895.461
893.376
891.878
889.835
888.495
887.283
886.714
886.226
886.64
887.239
890.3
894.59
911.722
940.865
978.377
849.804
985.429
910.953
944.21
925.891
840.387
750.349
725.165
728.374
736.948
745.077
754.651
762.806
770.176
773.794
773.852
771.383
768.266
765.987
765.232
765.809
767.155
768.614
769.044
768.362
767.285
766.163
765.809
765.199
765.498
765.985
767.573
769.34
772.2
775.263
781.37
793.526
828.739
906.431
980.681
981.699
891.784
941.87
932.019
860.021
739.489
627.03
594.577
592.018
596.009
598.489
602.777
606.544
611.35
614.663
615.456
613.382
610.173
607.523
605.951
605.347
605.488
606.848
609.205
611.794
614.275
616.387
618.748
620.232
622.691
624.878
628.294
631.303
635.927
639.794
647.569
664.826
711.818
826.571
914.381
948.58
914.642
945.306
918.625
815.518
677.569
568.066
533.86
526.301
523.623
519.618
516.659
513.155
510.574
507.36
502.389
494.824
485.765
477.128
470.115
464.935
461.307
459.238
458.367
458.14
458.307
458.717
459.744
460.583
462.226
464.029
466.904
469.97
474.88
480.1
489.091
509.545
565.009
706.939
832.618
917.994
917.276
936.883
907.688
801.866
664.724
566.469
532.354
521.189
512.966
503.875
497.473
491.031
486.035
481.298
475.232
466.031
454.448
442.71
432.611
424.66
418.646
414.284
411.051
408.51
406.462
404.798
403.679
402.963
402.803
403.208
404.696
406.863
410.531
415.294
423.178
442.346
498.526
650.175
791.822
899.052
911.107
939.313
908.026
798.294
661.025
574.069
548.438
540.562
529.813
513.234
499.056
487.616
479.657
473.461
466.983
457.866
445.821
432.822
421.111
411.654
404.396
398.979
394.847
391.54
388.825
386.561
384.871
383.686
383.164
383.285
384.461
386.438
389.726
394.091
401.169
419.018
473.993
628.755
776.067
892.781
908.768
949.019
912.9
800.302
665.299
586.802
569.95
568.298
560.434
542.29
518.199
496.855
483.18
473.222
464.967
455.56
443.401
429.739
416.786
405.987
397.639
391.482
386.956
383.507
380.787
378.573
376.909
375.736
375.174
375.223
376.169
377.872
380.844
384.848
391.376
408.408
462.558
618.759
767.782
888.067
905.489
969.426
927.121
814.297
682.407
608.038
594.197
598.59
595.341
581.583
553.399
519.632
493.927
477.493
466.55
456.338
443.61
428.885
414.627
402.47
393.017
386.086
381.103
377.45
374.703
372.568
371.026
369.962
369.517
369.639
370.553
372.199
375.084
378.926
385.126
401.841
455.838
613.625
763.391
886.496
905.522
980.512
937.128
833.835
715.69
643.537
625.822
632.274
634.198
627.482
602.129
560.04
517.519
488.721
471.279
458.394
445.171
429.645
413.808
400.121
389.296
381.413
375.895
372.055
369.335
367.328
365.943
365.027
364.723
364.955
365.938
367.608
370.501
374.28
380.248
396.707
450.119
608.583
759.775
885.681
905.239
974.458
938.52
855.262
760.444
692.975
669.344
672.612
677.46
675.235
657.146
615.765
559.522
510.203
481.066
463.475
448.686
432.381
415.269
400.109
387.971
379.023
372.786
368.572
365.721
363.714
362.376
361.521
361.286
361.594
362.618
364.312
367.222
370.961
376.732
393.118
446.343
605.491
757.518
886.127
906.531
962.183
935.353
873.234
803.235
750.223
726.507
722.959
726.643
725.525
714.049
679.183
618.783
548.313
498.049
470.851
452.691
435.285
417.248
400.704
387.29
377.227
370.238
365.633
362.655
360.662
359.386
358.594
358.43
358.812
359.887
361.616
364.576
368.316
373.967
390.216
442.907
602.281
755.779
886.89
907.276
962.637
949.589
896.155
846.579
810.303
791.833
784.137
784.491
781.047
771.577
743.784
687.21
604.864
527.385
482.405
458.168
438.994
419.921
402.069
387.438
376.283
368.486
363.417
360.268
358.273
357.055
356.319
356.213
356.662
357.786
359.555
362.584
366.365
371.98
388.098
440.337
600.149
754.884
888.12
908.473
910.408
938.018
889.763
881.64
879.756
861.038
853.529
851.271
844.996
832.575
808.057
757.089
673.403
573.309
500.812
464.722
442.346
422.293
403.487
387.708
375.535
366.914
361.373
358.058
356.079
354.947
354.293
354.257
354.781
355.97
357.793
360.928
364.811
370.49
386.402
437.797
597.855
754.361
889.689
909.356
950.547
938.955
885.991
874.417
903.569
928.243
936.882
924.344
918.377
900.709
872.966
824.171
743.932
632.315
529.737
474.035
446.191
424.853
405.237
388.449
375.323
365.868
359.821
356.316
354.344
353.291
352.728
352.771
353.354
354.6
356.475
359.732
363.751
369.56
385.28
436.045
596.648
754.952
892.128
911.033
957.863
935.801
930.958
930.866
940.721
965.222
993.258
1008.31
1001.6
976.26
941.843
889.195
810.726
696.289
569.566
487.312
450.006
426.846
406.745
389.308
375.322
365.092
358.545
354.855
352.889
351.907
351.426
351.553
352.181
353.476
355.394
358.78
362.952
368.901
384.352
434.096
594.852
755.356
894.061
911.887
957.631
894.843
890.142
921.978
980.075
1033.91
1061.42
1088.15
1082.85
1061.8
1016.84
954.425
872.005
756.95
615.229
505.591
454.7
428.801
408.267
390.363
375.654
364.689
357.651
353.778
351.819
350.904
350.491
350.69
351.363
352.7
354.658
358.181
362.508
368.611
383.798
432.78
593.869
756.848
896.939
913.39
953.592
856.825
810.641
836.971
883.643
996.231
1100.19
1167.57
1186.38
1154.44
1097.37
1021.01
927.892
809.284
659.164
526.65
459.929
430.339
409.474
391.371
376.138
364.514
357.025
352.993
351.045
350.19
349.829
350.08
350.788
352.157
354.142
357.789
362.235
368.493
383.415
431.661
592.823
758.393
899.273
914.461
939.693
835.372
734.642
682.449
725.015
881.105
1146.28
1224.1
1263.93
1251.55
1187.73
1089.77
978.782
852.088
695.823
546.777
465.357
431.594
410.426
392.313
376.685
364.493
356.616
352.46
350.532
349.728
349.406
349.692
350.425
351.817
353.823
357.579
362.099
368.492
383.183
430.908
592.061
760.197
901.442
915.498
948.081
844.367
753.492
615.761
606.149
777.207
1231.93
1320.46
1324.03
1316.31
1258.93
1151.51
1024.69
885.694
721.219
561.284
469.612
432.447
411.003
393.061
377.159
364.516
356.361
352.138
350.238
349.473
349.174
349.479
350.227
351.635
353.656
357.489
362.049
368.522
383.042
430.462
591.573
761.961
902.899
916.066
)
;

boundaryField
{
    inlet
    {
        type            fixedValue;
        value           uniform 10000;
    }
    outlet
    {
        type            fixedValue;
        value           uniform 1000;
    }
    obstacle
    {
        type            zeroGradient;
    }
    empty
    {
        type            empty;
    }
}


// ************************************************************************* //
