/*--------------------------------*- C++ -*----------------------------------*\
| =========                 |                                                 |
| \\      /  F ield         | OpenFOAM: The Open Source CFD Toolbox           |
|  \\    /   O peration     | Version:  v1912                                 |
|   \\  /    A nd           | Website:  www.openfoam.com                      |
|    \\/     M anipulation  |                                                 |
\*---------------------------------------------------------------------------*/
FoamFile
{
    version     2.0;
    format      ascii;
    class       volVectorField;
    location    "5.18";
    object      grad(p);
}
// * * * * * * * * * * * * * * * * * * * * * * * * * * * * * * * * * * * * * //

dimensions      [1 -2 -2 0 0 0 0];


internalField   nonuniform List<vector> 
1900
(
(134844 0.50843 0)
(-129116 -0.684803 0)
(-8243.22 0.465669 0)
(-1198.73 -1.92672 0)
(-1349.1 -1.11277 0)
(-1248.58 -1.78485 0)
(-1139.58 -6.85258 0)
(-847.732 23.7105 0)
(-626.838 -29.7577 0)
(273.251 -50.4137 0)
(134844 0.651863 0)
(-129116 -0.852406 0)
(-8244.46 0.236006 0)
(-1200.31 -1.88111 0)
(-1348.96 0.635919 0)
(-1254.32 -0.133105 0)
(-1114.09 -10.2023 0)
(-870.637 8.55322 0)
(-700.962 -60.7549 0)
(-566.673 -73.1228 0)
(134844 -1.97531e-08 0)
(-129116 2.77645e-08 0)
(-8244.25 -2.7125e-08 0)
(-1198.33 -1.52767e-09 0)
(-1347.35 1.40332e-09 0)
(-1259.41 3.33955e-09 0)
(-1130.9 5.02709e-09 0)
(-898.285 3.58824e-09 0)
(-708.514 1.29674e-09 0)
(-664.309 -1.15463e-09 0)
(134844 -0.651863 0)
(-129116 0.852406 0)
(-8244.46 -0.236006 0)
(-1200.31 1.88111 0)
(-1348.96 -0.635919 0)
(-1254.32 0.133105 0)
(-1114.09 10.2023 0)
(-870.637 -8.55322 0)
(-700.962 60.7549 0)
(-566.673 73.1228 0)
(134844 -0.50843 0)
(-129116 0.684803 0)
(-8243.22 -0.465669 0)
(-1198.73 1.92672 0)
(-1349.1 1.11277 0)
(-1248.58 1.78485 0)
(-1139.58 6.85258 0)
(-847.732 -23.7105 0)
(-626.838 29.7577 0)
(273.251 50.4137 0)
(-349.253 -759.461 9.07347e-12)
(-1913.13 -667.206 -1.06469e-11)
(-2144.52 -778.361 -1.33504e-11)
(-40.7612 -1230.71 0)
(-14933.9 -8857.62 -5.74138e-11)
(-897.533 -875.251 8.93623e-12)
(-1492.48 -793.703 1.06469e-11)
(-2159.41 -971.613 1.33504e-11)
(-3054.94 -1065.57 0)
(-14130.5 -7353.68 0)
(-1281.36 -1.38376e-09 0)
(-1754.7 -1.53873e-09 0)
(-2194.05 -1.8257e-09 0)
(-2704.58 -3.70074e-10 0)
(-17207.3 -3.2778e-09 0)
(-897.533 875.251 8.93623e-12)
(-1492.48 793.703 1.06469e-11)
(-2159.41 971.613 1.33504e-11)
(-3054.94 1065.57 0)
(-14130.5 7353.68 0)
(-349.253 759.461 -2.69459e-11)
(-1913.13 667.206 -1.06469e-11)
(-2144.52 778.361 -1.33504e-11)
(-40.7612 1230.71 -3.57364e-11)
(-14933.9 8857.62 5.74138e-11)
(-27839.6 10952.8 1.33766e-11)
(-4833.59 3018.75 -9.4991e-12)
(-3291.96 1641.53 0)
(-4858.51 1133.31 6.15597e-12)
(-7944.26 1539.21 -2.33913e-12)
(-23932.2 12771.6 -6.85325e-12)
(-6908.86 2090.39 4.79501e-12)
(-3751.66 522.557 0)
(-4757.9 438.581 -3.87212e-12)
(-7483.36 898.299 6.03134e-13)
(-25402.5 1.7943e-10 0)
(-7917.3 8.54018e-10 0)
(-3870.68 8.55283e-10 0)
(-4751.15 1.87214e-09 1.55413e-12)
(-7273.41 1.98671e-09 -1.20627e-12)
(-23932.2 -12771.6 -6.85325e-12)
(-6908.86 -2090.39 4.79501e-12)
(-3751.66 -522.557 0)
(-4757.9 -438.581 -3.87212e-12)
(-7483.36 -898.299 6.03134e-13)
(-27839.6 -10952.8 6.85325e-12)
(-4833.59 -3018.75 -9.09149e-14)
(-3291.96 -1641.53 0)
(-4858.51 -1133.31 3.41315e-14)
(-7944.26 -1539.21 2.33913e-12)
(-7056.84 4043.79 0)
(-691.437 936.952 0)
(2393.54 158.039 0)
(1271.23 904.818 0)
(-568.282 1042.79 0)
(-1452.87 708.19 0)
(-1425.12 306.192 0)
(-1005.43 115.307 0)
(-689.952 50.7883 0)
(-587.581 29.2999 0)
(-557.422 27.4339 0)
(-494.227 24.7293 0)
(-370.931 10.3484 0)
(-233.118 1.29342 0)
(-140.804 -0.989583 0)
(-97.9305 -1.08687 0)
(-79.9712 -0.879363 0)
(-69.118 -0.877714 0)
(-59.2702 -1.05902 0)
(-49.2466 -1.2514 0)
(-39.3766 -1.39148 0)
(-30.7621 -1.46417 0)
(-23.2746 -1.48587 0)
(-16.7243 -1.48654 0)
(-11.2329 -1.48404 0)
(-6.62745 -1.49067 0)
(-2.33853 -1.50073 0)
(2.36307 -1.55448 0)
(10.0768 -1.56456 0)
(19.1412 -1.55039 0)
(33.3435 -1.49453 0)
(46.8183 -1.05517 0)
(63.2564 -0.884742 0)
(74.3087 -0.0627421 0)
(98.6067 -1.2994 0)
(123.105 1.50377 0)
(195.287 -2.44967 0)
(553.375 11.6127 0)
(5670.7 -11.82 0)
(-5664.37 -623.675 0)
(-7192.48 2480.43 0)
(-1325.84 339.3 0)
(2215.19 -684.626 0)
(1384.58 320.217 0)
(-552.223 768.337 0)
(-1527.65 464.658 0)
(-1496.4 180.179 0)
(-1038.06 50.9256 0)
(-699.001 20.3311 0)
(-589.974 9.90104 0)
(-557.339 9.80197 0)
(-495.489 10.1004 0)
(-373.108 3.45698 0)
(-234.025 -0.143375 0)
(-140.934 -0.765503 0)
(-97.8931 -0.697589 0)
(-79.9339 -0.555175 0)
(-69.1223 -0.516407 0)
(-59.298 -0.579747 0)
(-49.2725 -0.650251 0)
(-39.3937 -0.704139 0)
(-30.7704 -0.735628 0)
(-23.278 -0.751155 0)
(-16.7267 -0.762316 0)
(-11.2367 -0.775468 0)
(-6.63335 -0.79378 0)
(-2.35026 -0.81711 0)
(2.35125 -0.859654 0)
(10.0707 -0.877215 0)
(19.1374 -0.885202 0)
(33.3812 -0.875958 0)
(46.8704 -0.667751 0)
(63.3441 -0.564465 0)
(74.2556 -0.0636137 0)
(98.8114 -0.32425 0)
(123.095 1.75567 0)
(196.109 1.5077 0)
(553.214 9.13498 0)
(5671.13 0.396957 0)
(-5665.4 46.9722 0)
(-7103.57 -2.20833e-08 0)
(-1612.18 7.54709e-08 0)
(2387.99 4.55393e-08 0)
(1693.91 4.76387e-08 0)
(-526.263 1.16513e-08 0)
(-1623.97 7.89671e-09 0)
(-1545.48 2.77758e-09 0)
(-1051.93 -1.93461e-08 0)
(-701.886 -1.61608e-08 0)
(-590.644 1.53816e-09 0)
(-557.364 -7.91286e-10 0)
(-496.073 -6.29396e-09 0)
(-373.911 -5.64397e-09 0)
(-234.346 -6.61289e-09 0)
(-140.965 -8.38117e-09 0)
(-97.8693 -5.26044e-09 0)
(-79.9185 -4.77598e-09 0)
(-69.1251 -1.57854e-09 0)
(-59.3091 2.18007e-10 0)
(-49.2828 2.00648e-09 0)
(-39.4015 4.88902e-09 0)
(-30.7758 8.42558e-09 0)
(-23.2824 1.05895e-08 0)
(-16.7313 9.87897e-09 0)
(-11.242 8.95445e-09 0)
(-6.63956 9.91126e-09 0)
(-2.3577 8.64359e-09 0)
(2.34559 4.21077e-09 0)
(10.0694 4.96572e-10 0)
(19.1416 -5.06262e-09 0)
(33.4067 -2.83813e-09 0)
(46.9089 3.21359e-09 0)
(63.4322 1.36901e-08 0)
(74.3785 1.38354e-08 0)
(99.1359 2.62336e-08 0)
(123.638 2.48569e-08 0)
(197.434 3.69482e-08 0)
(553.052 2.08318e-09 0)
(5681.7 -6.12036e-08 0)
(-5678.15 -1.62585e-07 0)
(-7192.48 -2480.43 0)
(-1325.84 -339.3 0)
(2215.19 684.626 0)
(1384.58 -320.217 0)
(-552.223 -768.337 0)
(-1527.65 -464.658 0)
(-1496.4 -180.179 0)
(-1038.06 -50.9256 0)
(-699.001 -20.3311 0)
(-589.974 -9.90104 0)
(-557.339 -9.80197 0)
(-495.489 -10.1004 0)
(-373.108 -3.45698 0)
(-234.025 0.143375 0)
(-140.934 0.765503 0)
(-97.8931 0.697589 0)
(-79.9339 0.555175 0)
(-69.1223 0.516407 0)
(-59.298 0.579747 0)
(-49.2725 0.650251 0)
(-39.3937 0.704139 0)
(-30.7704 0.735628 0)
(-23.278 0.751155 0)
(-16.7267 0.762316 0)
(-11.2367 0.775468 0)
(-6.63335 0.79378 0)
(-2.35026 0.81711 0)
(2.35125 0.859653 0)
(10.0707 0.877215 0)
(19.1374 0.885201 0)
(33.3812 0.875958 0)
(46.8704 0.667751 0)
(63.3441 0.564465 0)
(74.2556 0.0636137 0)
(98.8114 0.32425 0)
(123.095 -1.75567 0)
(196.109 -1.5077 0)
(553.214 -9.13498 0)
(5671.13 -0.396957 0)
(-5665.4 -46.9722 0)
(-7056.84 -4043.79 0)
(-691.437 -936.952 0)
(2393.54 -158.039 0)
(1271.23 -904.818 0)
(-568.282 -1042.79 0)
(-1452.87 -708.19 0)
(-1425.12 -306.192 0)
(-1005.43 -115.307 0)
(-689.952 -50.7883 0)
(-587.581 -29.2999 0)
(-557.422 -27.4339 0)
(-494.227 -24.7293 0)
(-370.931 -10.3484 0)
(-233.118 -1.29342 0)
(-140.804 0.989583 0)
(-97.9305 1.08687 0)
(-79.9712 0.879363 0)
(-69.118 0.877714 0)
(-59.2702 1.05902 0)
(-49.2466 1.2514 0)
(-39.3766 1.39148 0)
(-30.7621 1.46417 0)
(-23.2746 1.48587 0)
(-16.7243 1.48654 0)
(-11.2329 1.48404 0)
(-6.62745 1.49067 0)
(-2.33853 1.50073 0)
(2.36307 1.55448 0)
(10.0768 1.56456 0)
(19.1412 1.55039 0)
(33.3435 1.49453 0)
(46.8183 1.05517 0)
(63.2564 0.884742 0)
(74.3087 0.0627421 0)
(98.6067 1.2994 0)
(123.105 -1.50377 0)
(195.287 2.44967 0)
(553.375 -11.6127 0)
(5670.7 11.82 0)
(-5664.37 623.675 0)
(2580.16 -1494.03 0)
(378.067 -335.969 0)
(2029.13 -920.07 0)
(960.673 -1426.92 0)
(-410.315 -1381.1 0)
(-1152.07 -957.027 0)
(-1206.92 -471.721 0)
(-915.584 -209.755 0)
(-655.514 -98.8736 0)
(-578.092 -63.7116 0)
(-554.376 -55.2923 0)
(-486.23 -42.638 0)
(-360.924 -19.5617 0)
(-227.961 -3.86411 0)
(-139.59 0.876868 0)
(-97.919 1.27516 0)
(-80.022 1.06201 0)
(-69.0147 1.17945 0)
(-59.0959 1.54083 0)
(-49.0939 1.9079 0)
(-39.28 2.17332 0)
(-30.7208 2.3116 0)
(-23.2679 2.35525 0)
(-16.7307 2.36078 0)
(-11.2385 2.36021 0)
(-6.62972 2.37549 0)
(-2.3238 2.39434 0)
(2.37761 2.48608 0)
(10.0611 2.51247 0)
(19.089 2.49079 0)
(33.1143 2.33511 0)
(46.5481 1.62599 0)
(62.8229 1.26448 0)
(74.4544 -0.0662072 0)
(98.0655 1.34342 0)
(123.806 -1.64719 0)
(190.719 2.9301 0)
(558.905 -18.4924 0)
(6070.13 4.08401 0)
(-6065.21 145.979 0)
(2709.54 465.472 0)
(-711.855 -503.452 0)
(1537.67 -1088.11 0)
(993.49 -1318.79 0)
(-200.185 -1331.29 0)
(-737.863 -986.227 0)
(-822.03 -590.657 0)
(-694.319 -292.306 0)
(-567.687 -155.574 0)
(-550.673 -104.484 0)
(-538.749 -85.0646 0)
(-464.084 -58.6432 0)
(-338.934 -27.6741 0)
(-216.187 -6.64767 0)
(-136.503 0.536693 0)
(-97.7583 1.56764 0)
(-80.0362 1.53788 0)
(-68.712 1.8449 0)
(-58.6616 2.42259 0)
(-48.7191 2.98164 0)
(-39.0394 3.38583 0)
(-30.6089 3.60289 0)
(-23.2308 3.68496 0)
(-16.716 3.71975 0)
(-11.2157 3.7549 0)
(-6.59334 3.82105 0)
(-2.23987 3.89099 0)
(2.46911 4.09084 0)
(10.0898 4.19558 0)
(18.9983 4.22803 0)
(32.633 4.02728 0)
(45.9315 3.04938 0)
(61.8582 2.52199 0)
(74.3066 0.788935 0)
(97.3733 2.06378 0)
(124.258 -0.8474 0)
(181.504 1.71935 0)
(551.521 -20.4694 0)
(5615 -9.24359 0)
(-5594.04 -589.949 0)
(2543.56 262.102 0)
(-1119.02 -420.969 0)
(1243.44 -547.029 0)
(726.341 -1032.49 0)
(-89.8408 -1085.9 0)
(-438.376 -839.199 0)
(-538.227 -558.944 0)
(-496.322 -313.485 0)
(-474.522 -195.624 0)
(-510.146 -140.987 0)
(-510.201 -111.168 0)
(-430.927 -71.6113 0)
(-310.819 -34.1872 0)
(-200.776 -9.81196 0)
(-131.674 -0.65392 0)
(-96.9542 1.31905 0)
(-79.7548 1.76739 0)
(-68.1621 2.37625 0)
(-58.0005 3.20613 0)
(-48.1657 3.96098 0)
(-38.6813 4.50616 0)
(-30.4326 4.81145 0)
(-23.1553 4.95047 0)
(-16.6633 5.04286 0)
(-11.1409 5.15083 0)
(-6.49858 5.30889 0)
(-2.06382 5.46663 0)
(2.67113 5.83256 0)
(10.1933 6.06123 0)
(18.9269 6.1854 0)
(31.9785 5.98909 0)
(45.0975 4.78512 0)
(60.6447 4.15606 0)
(74.0129 2.22356 0)
(96.4887 3.20859 0)
(123.474 0.169983 0)
(171.81 -0.00674486 0)
(548.341 -15.4025 0)
(5521.36 7.42119 0)
(-5487.81 -200.675 0)
(2556.45 399.312 0)
(-1491.56 -247.978 0)
(948.384 -349.539 0)
(474.213 -828.717 0)
(-13.9246 -822.609 0)
(-230.068 -675.563 0)
(-315.432 -471.864 0)
(-344.21 -300.724 0)
(-401.461 -212.584 0)
(-469.289 -167.302 0)
(-471.896 -127.078 0)
(-389.902 -79.2833 0)
(-279.382 -37.3434 0)
(-183.873 -12.3178 0)
(-125.776 -2.28803 0)
(-95.425 0.503321 0)
(-79.0175 1.57388 0)
(-67.3256 2.54532 0)
(-57.1345 3.60799 0)
(-47.4663 4.51343 0)
(-38.2199 5.17022 0)
(-30.1808 5.56234 0)
(-23.0078 5.78353 0)
(-16.5229 5.97834 0)
(-10.9593 6.21402 0)
(-6.28902 6.51751 0)
(-1.73524 6.81688 0)
(3.04209 7.39731 0)
(10.4298 7.78652 0)
(18.9287 8.02676 0)
(31.2837 7.85166 0)
(44.1652 6.5388 0)
(59.3898 5.78159 0)
(73.3935 3.78956 0)
(95.3944 4.0896 0)
(121.159 1.15962 0)
(166.498 -2.08034 0)
(558.679 -7.30852 0)
(5436.46 13.6396 0)
(-5407.81 -207.711 0)
(2689.39 438.026 0)
(-1840.64 -178.462 0)
(683.818 -290.131 0)
(270.474 -657.401 0)
(57.7444 -577.059 0)
(-100.385 -499.591 0)
(-177.02 -369.799 0)
(-246.47 -274.138 0)
(-345.951 -215.638 0)
(-427.75 -180.288 0)
(-425.384 -131.66 0)
(-344.455 -80.2198 0)
(-246.289 -37.3011 0)
(-166.996 -13.4656 0)
(-119.319 -3.48855 0)
(-93.2327 -0.117593 0)
(-77.7871 1.35872 0)
(-66.202 2.64942 0)
(-56.1039 3.87309 0)
(-46.6602 4.86327 0)
(-37.6706 5.59443 0)
(-29.8416 6.07335 0)
(-22.7545 6.4105 0)
(-16.2485 6.76504 0)
(-10.6213 7.19754 0)
(-5.91764 7.71153 0)
(-1.21602 8.22606 0)
(3.60551 9.11604 0)
(10.7999 9.7309 0)
(18.9896 10.1545 0)
(30.5446 10.0997 0)
(43.1027 8.84659 0)
(57.9954 8.1106 0)
(72.3824 6.27123 0)
(93.9544 6.28422 0)
(117.528 3.98803 0)
(163.65 -0.385243 0)
(563.49 1.00085 0)
(5328.24 12.8016 0)
(-5300.8 -254.631 0)
(2806.57 352.143 0)
(-2193.24 -169.235 0)
(486.861 -289.411 0)
(197.719 -435.087 0)
(138.146 -379.326 0)
(-30.3451 -356.59 0)
(-98.1772 -289.405 0)
(-195.655 -246.717 0)
(-311.024 -216.789 0)
(-388.364 -184.157 0)
(-375.466 -129.987 0)
(-298.975 -76.5904 0)
(-215.055 -35.991 0)
(-151.29 -14.0675 0)
(-112.914 -4.50493 0)
(-90.754 -0.704402 0)
(-76.3511 1.106 0)
(-64.9026 2.67377 0)
(-55.0012 4.01977 0)
(-45.8075 5.06977 0)
(-37.0538 5.85828 0)
(-29.3944 6.42165 0)
(-22.3413 6.8826 0)
(-15.7645 7.40264 0)
(-10.0472 8.02015 0)
(-5.29791 8.71632 0)
(-0.381801 9.40424 0)
(4.49221 10.5192 0)
(11.4305 11.2357 0)
(19.2842 11.6724 0)
(30.0233 11.5519 0)
(42.2484 10.1929 0)
(56.9081 9.28266 0)
(71.6336 7.3424 0)
(93.1943 6.96767 0)
(114.732 5.01953 0)
(163.62 0.0819864 0)
(571.386 5.89778 0)
(5190.13 12.9146 0)
(-5174.78 -289.488 0)
(2865.64 252.883 0)
(-2458.87 -142.505 0)
(427.634 -242.387 0)
(183.828 -253.348 0)
(133.387 -258.446 0)
(-13.7343 -263.251 0)
(-71.1421 -241.56 0)
(-176.495 -228.877 0)
(-285.666 -215.23 0)
(-344.105 -178.133 0)
(-321.728 -120.774 0)
(-253.877 -68.1705 0)
(-186.039 -31.6305 0)
(-136.655 -12.382 0)
(-106.442 -3.78674 0)
(-87.8258 -0.0782003 0)
(-74.5318 2.12256 0)
(-63.3942 3.80467 0)
(-53.795 5.18086 0)
(-44.8886 6.22817 0)
(-36.3679 7.04508 0)
(-28.8545 7.69517 0)
(-21.8091 8.30334 0)
(-15.1523 9.01842 0)
(-9.35543 9.83951 0)
(-4.58388 10.7102 0)
(0.521289 11.5766 0)
(5.37035 12.9394 0)
(11.9112 13.7208 0)
(19.2944 14.0972 0)
(29.1189 13.8149 0)
(40.916 12.2413 0)
(55.2486 11.002 0)
(70.1516 8.80302 0)
(91.716 8.07219 0)
(110.893 6.20601 0)
(164.496 1.94678 0)
(575.855 9.13556 0)
(5043.6 9.27886 0)
(-5034.28 -323.792 0)
(2912.94 245.538 0)
(-2670.5 -105.472 0)
(380.048 -188.815 0)
(182.245 -181.892 0)
(128.604 -195.307 0)
(-14.0728 -210.095 0)
(-65.0526 -213.065 0)
(-170.283 -215.284 0)
(-262.126 -203.971 0)
(-297.342 -161.851 0)
(-269.502 -105.795 0)
(-213.073 -57.92 0)
(-161.295 -26.6877 0)
(-124.459 -10.2091 0)
(-101.057 -2.69794 0)
(-85.0596 1.12181 0)
(-72.6094 3.82701 0)
(-61.9556 5.77745 0)
(-52.6658 7.22774 0)
(-44.0111 8.28315 0)
(-35.6402 9.13444 0)
(-28.1819 9.86621 0)
(-21.0662 10.5857 0)
(-14.2842 11.4131 0)
(-8.41701 12.3221 0)
(-3.62397 13.2081 0)
(1.76643 14.077 0)
(6.5584 15.5359 0)
(12.5462 16.161 0)
(19.3748 16.2778 0)
(28.2349 15.6219 0)
(39.5378 13.6323 0)
(53.5949 11.8363 0)
(68.8103 9.32738 0)
(90.6917 8.16502 0)
(108.83 6.19495 0)
(166.443 3.0553 0)
(578.452 10.5557 0)
(4869.31 6.47987 0)
(-4871.7 -351.099 0)
(3000.62 199.1 0)
(-2877.42 -70.1478 0)
(353.993 -137.978 0)
(177.573 -130.259 0)
(106.21 -161.674 0)
(-30.8472 -182.096 0)
(-76.1419 -199.828 0)
(-167.731 -205.658 0)
(-234.177 -187.685 0)
(-249.499 -141.242 0)
(-221.576 -88.7059 0)
(-177.646 -46.9966 0)
(-140.063 -20.7033 0)
(-113.537 -6.33125 0)
(-95.5226 1.48151 0)
(-81.5382 6.33175 0)
(-70.0454 9.44507 0)
(-60.1171 11.7064 0)
(-51.3805 13.2785 0)
(-43.0512 14.3745 0)
(-34.8424 15.2602 0)
(-27.456 16.0193 0)
(-20.3185 16.7154 0)
(-13.4791 17.4189 0)
(-7.62577 18.091 0)
(-2.8927 18.7603 0)
(2.76446 19.3071 0)
(7.37852 20.3368 0)
(12.6261 20.3923 0)
(18.7748 19.8582 0)
(26.5697 18.4457 0)
(37.2681 15.6508 0)
(51.1002 12.8876 0)
(66.6138 9.63949 0)
(88.6975 7.76186 0)
(105.969 5.15048 0)
(168.699 2.26316 0)
(579.156 8.81229 0)
(4695.1 -0.502063 0)
(-4702.19 -376.87 0)
(3037.2 126.878 0)
(-2995.32 -41.1231 0)
(322.123 -95.1222 0)
(159.41 -105.915 0)
(78.6509 -147.705 0)
(-50.8394 -167.517 0)
(-87.757 -187.588 0)
(-158.581 -186.573 0)
(-200.052 -160.826 0)
(-201.963 -114.437 0)
(-178.684 -68.3926 0)
(-147.544 -33.9331 0)
(-122.109 -12.5381 0)
(-103.081 -0.041079 0)
(-88.8548 8.29253 0)
(-77.3856 13.5303 0)
(-67.4302 17.062 0)
(-58.2615 19.5636 0)
(-50.0947 21.3053 0)
(-42.1015 22.5045 0)
(-34.0552 23.4674 0)
(-26.7795 24.2613 0)
(-19.7174 24.8974 0)
(-12.9587 25.4279 0)
(-7.1244 25.8045 0)
(-2.45211 26.3009 0)
(3.28559 26.576 0)
(7.60419 27.0535 0)
(12.085 26.5754 0)
(17.4991 25.4378 0)
(24.1805 23.3593 0)
(34.1817 19.8552 0)
(47.8022 16.1404 0)
(63.871 12.0329 0)
(86.3659 9.48748 0)
(103.531 6.72001 0)
(169.971 3.99667 0)
(575.787 8.03553 0)
(4497.65 -5.07901 0)
(-4508.05 -394.402 0)
(3083.25 -24.4664 0)
(-3091.35 -28.5907 0)
(291.556 -68.7334 0)
(126.902 -92.8857 0)
(46.8478 -141.294 0)
(-69.2798 -155.531 0)
(-94.5043 -170.306 0)
(-141.942 -159.814 0)
(-164.665 -129.455 0)
(-160.427 -86.8463 0)
(-143.999 -48.4911 0)
(-123.823 -19.9645 0)
(-107.404 -1.23598 0)
(-93.4641 11.0955 0)
(-82.4447 18.8722 0)
(-73.0876 24.4801 0)
(-64.2315 28.7594 0)
(-56.0281 31.88 0)
(-48.5465 34.0892 0)
(-40.9678 35.5636 0)
(-33.1495 36.5821 0)
(-26.078 37.1821 0)
(-19.1943 37.3891 0)
(-12.6049 37.3648 0)
(-6.78445 37.1336 0)
(-2.14931 36.9613 0)
(3.48968 36.5314 0)
(7.37797 36.2491 0)
(11.0691 34.9143 0)
(15.6756 32.8467 0)
(21.19 29.8174 0)
(30.3118 25.3728 0)
(43.5624 20.4951 0)
(60.2028 15.3842 0)
(83.5778 12.0555 0)
(100.678 9.14189 0)
(169.966 6.53566 0)
(570.41 9.47113 0)
(4307.29 -8.18844 0)
(-4317.24 -431.086 0)
(2986.07 -146.198 0)
(-3037.98 -23.9588 0)
(260.165 -57.6054 0)
(89.4886 -88.1509 0)
(18.2839 -136.674 0)
(-78.7965 -140.292 0)
(-91.8848 -143.908 0)
(-119.216 -125.48 0)
(-129.738 -94.7936 0)
(-123.943 -58.4935 0)
(-114.234 -27.3204 0)
(-102.007 -3.34557 0)
(-92.1782 13.1063 0)
(-83.7041 24.055 0)
(-75.9568 31.3565 0)
(-67.858 36.9046 0)
(-60.2994 40.9996 0)
(-53.1255 44.0877 0)
(-46.5451 46.3614 0)
(-39.6993 47.9348 0)
(-32.4956 49.0362 0)
(-26.0018 49.65 0)
(-19.5414 49.7974 0)
(-13.2049 49.6929 0)
(-7.51322 49.3966 0)
(-3.03247 49.0751 0)
(2.59927 48.3895 0)
(6.04591 47.9247 0)
(8.80638 46.1201 0)
(12.5875 43.5563 0)
(16.9783 39.9261 0)
(25.1985 34.9232 0)
(38.1768 29.2083 0)
(55.7382 23.4483 0)
(80.3506 19.7012 0)
(98.2117 16.6042 0)
(170.289 13.7424 0)
(561.598 15.1323 0)
(4073.11 -9.79783 0)
(-4084.75 -430.378 0)
(2919.28 -258.304 0)
(-3005.98 -13.1779 0)
(229.698 -38.9981 0)
(50.7082 -70.1262 0)
(-3.39748 -116.874 0)
(-76.2504 -112.872 0)
(-80.2311 -108.33 0)
(-94.6137 -86.8003 0)
(-100.114 -58.2702 0)
(-95.407 -28.0927 0)
(-90.8569 -2.0562 0)
(-84.8665 16.7568 0)
(-80.9997 29.8146 0)
(-75.8776 39.4403 0)
(-70.0623 46.7903 0)
(-63.7951 52.1099 0)
(-57.3097 56.1058 0)
(-50.8612 59.259 0)
(-44.8393 61.7182 0)
(-38.3902 63.4211 0)
(-31.4967 64.4079 0)
(-25.3445 64.6676 0)
(-19.1529 64.4199 0)
(-12.9912 64.0295 0)
(-7.37984 63.5613 0)
(-3.11976 63.3118 0)
(2.38112 62.4548 0)
(5.19113 61.693 0)
(6.85957 59.6952 0)
(9.70685 57.13 0)
(12.8709 53.4027 0)
(19.9837 48.4213 0)
(32.5047 42.4882 0)
(51.0415 36.551 0)
(76.9826 32.974 0)
(94.9359 30.3307 0)
(168.548 27.1085 0)
(547.726 28.8925 0)
(3877.98 -5.48759 0)
(-3893.07 -450.358 0)
(2724.46 -309.401 0)
(-2826.65 7.40697 0)
(205.288 -17.183 0)
(14.445 -43.9901 0)
(-22.9072 -86.8215 0)
(-70.5633 -78.9 0)
(-66.7614 -67.5418 0)
(-70.9771 -44.5702 0)
(-73.1651 -17.668 0)
(-69.773 5.7547 0)
(-71.0155 23.4024 0)
(-71.295 37.6787 0)
(-70.3196 48.2025 0)
(-67.3457 56.8238 0)
(-63.748 62.8359 0)
(-58.8812 67.0869 0)
(-53.4102 69.9222 0)
(-47.7173 71.9018 0)
(-42.5344 73.3997 0)
(-37.1074 74.6308 0)
(-31.2944 75.8714 0)
(-25.9902 76.9177 0)
(-20.1563 77.5641 0)
(-14.0323 77.9092 0)
(-8.20485 77.9422 0)
(-4.09877 78.1106 0)
(1.03933 77.397 0)
(3.38669 76.765 0)
(4.40932 75.1308 0)
(6.52384 73.1732 0)
(8.58628 70.0805 0)
(14.6808 66.0178 0)
(26.7382 61.1031 0)
(46.57 56.611 0)
(74.3564 55.193 0)
(92.5595 55.9594 0)
(168.903 54.7746 0)
(530.187 58.8787 0)
(3611.29 18.9835 0)
(-3645.48 -396.897 0)
(2628.27 -256.073 0)
(-2724.39 49.2653 0)
(180.17 21.8075 0)
(-16.398 0.597558 0)
(-37.038 -28.9433 0)
(-57.6719 -17.3567 0)
(-47.1496 -2.90935 0)
(-46.5534 14.5371 0)
(-51.6186 33.9545 0)
(-55.8301 49.1413 0)
(-60.0938 60.058 0)
(-60.9682 70.4558 0)
(-62.5507 78.2726 0)
(-61.7764 85.0584 0)
(-60.1725 89.9028 0)
(-56.9665 93.4687 0)
(-52.6698 95.9883 0)
(-47.5102 98.0081 0)
(-42.2095 99.7721 0)
(-36.0084 101.184 0)
(-29.293 102.19 0)
(-23.7133 102.595 0)
(-18.1974 102.573 0)
(-12.6269 102.48 0)
(-7.18582 102.104 0)
(-3.64516 102.036 0)
(1.08448 101.181 0)
(3.00731 100.543 0)
(3.39842 99.0466 0)
(4.84024 97.2798 0)
(5.97561 94.8652 0)
(11.3328 91.6713 0)
(23.44 87.7916 0)
(45.3463 84.9743 0)
(76.3547 85.3507 0)
(94.5327 90.5232 0)
(171.361 93.3187 0)
(513.236 104.502 0)
(3438.78 52.6688 0)
(-3528.9 -286.333 0)
(2525.18 -46.7427 0)
(-2558.87 110.512 0)
(158.39 72.4885 0)
(-34.4603 52.2733 0)
(-40.2086 32.3397 0)
(-45.476 41.5802 0)
(-36.0274 55.2565 0)
(-35.4537 65.2198 0)
(-39.8192 77.6332 0)
(-44.6187 86.9096 0)
(-50.4761 94.7491 0)
(-53.7428 102.404 0)
(-56.248 108.223 0)
(-56.1384 115.12 0)
(-55.6435 120.675 0)
(-53.017 125.685 0)
(-49.0359 129.256 0)
(-44.071 130.728 0)
(-39.4738 130.193 0)
(-34.7778 129.263 0)
(-29.9352 130.504 0)
(-25.6208 133.427 0)
(-20.2663 135.187 0)
(-14.4846 134.489 0)
(-8.63293 131.649 0)
(-4.98747 129.183 0)
(-0.399525 125.743 0)
(1.32953 123.357 0)
(1.26483 120.269 0)
(2.49456 117.998 0)
(3.18169 115.598 0)
(7.86443 113.006 0)
(20.2847 109.016 0)
(44.2179 106.095 0)
(79.7035 105.233 0)
(100.238 112.033 0)
(182.373 115.256 0)
(491.016 128.699 0)
(3234.67 79.704 0)
(-3420.31 -53.8129 0)
(2689.72 372.405 0)
(-2609.49 215.116 0)
(124.05 173.736 0)
(-55.0868 147.559 0)
(-47.3422 127.901 0)
(-35.5884 130.823 0)
(-24.3696 142.81 0)
(-24.9904 148.543 0)
(-30.7176 157.74 0)
(-39.3366 162.318 0)
(-45.1629 166.019 0)
(-47.9839 168.83 0)
(-50.2968 169.861 0)
(-49.778 171.266 0)
(-49.9921 172.142 0)
(-48.6967 175.217 0)
(-47.8096 180.913 0)
(-46.6077 189.147 0)
(-43.6215 198.191 0)
(-35.7087 203.933 0)
(-25.2807 204.793 0)
(-19.2008 200.928 0)
(-17.1738 194.054 0)
(-16.0357 189.199 0)
(-12.2993 186.217 0)
(-9.3369 187.382 0)
(-4.52949 189.17 0)
(-2.26776 190.563 0)
(-1.76562 192.28 0)
(0.339466 193.595 0)
(1.16515 194.631 0)
(4.98983 195.336 0)
(16.78 193.575 0)
(41.7011 193.062 0)
(82.077 193.621 0)
(104.191 207.086 0)
(187.421 217.515 0)
(478.977 222.803 0)
(3262.9 142.555 0)
(-3553.85 287.435 0)
(3091.33 10674.1 0)
(-2750.32 1312.55 0)
(93.29 758.019 0)
(-78.6286 690.094 0)
(-56.336 714.514 0)
(-31.1092 722.882 0)
(-18.9517 742.798 0)
(-21.0667 743.059 0)
(-26.5454 746.154 0)
(-36.6409 740.218 0)
(-44.2012 735.798 0)
(-50.04 723.675 0)
(-53.9002 709.663 0)
(-53.9405 690.456 0)
(-51.8366 667.983 0)
(-44.5648 644.17 0)
(-35.6121 620.036 0)
(-27.4211 597.757 0)
(-25.2253 589.467 0)
(-28.4161 583.737 0)
(-32.8312 584.673 0)
(-35.9698 594.267 0)
(-31.5684 597.044 0)
(-22.0367 618.458 0)
(-10.3848 627.612 0)
(-2.14153 644.076 0)
(2.66603 654.622 0)
(4.32642 662.658 0)
(4.18661 668.179 0)
(4.76054 668.916 0)
(4.85935 666.989 0)
(6.84604 660.28 0)
(18.0936 649.225 0)
(44.2624 630.817 0)
(93.218 613.912 0)
(123.263 596.548 0)
(197.519 601.154 0)
(418.782 538.071 0)
(3296.95 1063.56 0)
(-3834.67 9631.64 0)
(14240.5 166593 0)
(-12165 14197.2 0)
(-475.773 4953.1 0)
(-97.0097 4717.45 0)
(-15.7459 4814.48 0)
(-8.33381 5040.26 0)
(-4.92631 5228.47 0)
(-21.7556 5437.68 0)
(-33.4553 5581.14 0)
(-49.3161 5708.93 0)
(-61.1049 5812.22 0)
(-73.169 5876.79 0)
(-82.3072 5937.49 0)
(-89.9423 5967.76 0)
(-94.5954 5989.83 0)
(-94.9001 5992.51 0)
(-92.5351 5989.84 0)
(-76.0649 5971.44 0)
(-57.1308 5958.65 0)
(-40.3282 5931.65 0)
(-15.1343 5911.47 0)
(-7.27982 5878.15 0)
(6.13806 5847.16 0)
(13.4204 5732.28 0)
(12.3873 5619.89 0)
(16.6909 5478.49 0)
(13.3765 5337.24 0)
(10.7967 5154.02 0)
(4.26424 4976.05 0)
(-0.807204 4762.41 0)
(-7.15618 4554.97 0)
(-12.1283 4295.6 0)
(-11.6119 4067.55 0)
(7.67248 3750.42 0)
(49.0548 3524.6 0)
(91.8967 3253.06 0)
(131.07 3262.93 0)
(924.567 3242.73 0)
(12025.8 11892.1 0)
(-13860.1 149163 0)
(177308 -183199 0)
(-158513 -15577.4 0)
(-9041.72 -6080.58 0)
(-212.208 -5700.77 0)
(254.733 -5759.69 0)
(367.829 -5948.78 0)
(364.016 -6132.75 0)
(318.773 -6321.42 0)
(234.84 -6440.98 0)
(186.043 -6530.4 0)
(117.557 -6582.87 0)
(70.669 -6588.98 0)
(33.7545 -6580.27 0)
(-3.50067 -6538.6 0)
(-27.9855 -6483.3 0)
(-44.5585 -6411.39 0)
(-55.9109 -6338.58 0)
(-57.4789 -6257.34 0)
(-63.5722 -6200 0)
(-73.8734 -6132.09 0)
(-84.3814 -6081.49 0)
(-97.9441 -6028.82 0)
(-172.14 -5972.29 0)
(-241.045 -5856.55 0)
(-254.937 -5736.08 0)
(-274.511 -5604.85 0)
(-310.006 -5468.53 0)
(-343.73 -5297.02 0)
(-373.187 -5123.03 0)
(-401.003 -4914.18 0)
(-444.973 -4706.06 0)
(-462.856 -4444.99 0)
(-507.269 -4213.15 0)
(-478.939 -3906.53 0)
(-386.052 -3724.1 0)
(-128.891 -3556.81 0)
(187.569 -3685.71 0)
(8734.19 -3887.48 0)
(143911 -13708.9 0)
(-159033 -165708 0)
(177308 183199 0)
(-158513 15577.4 0)
(-9041.72 6080.58 0)
(-212.208 5700.77 0)
(254.733 5759.69 0)
(367.829 5948.78 0)
(364.016 6132.75 0)
(318.773 6321.42 0)
(234.84 6440.98 0)
(186.043 6530.4 0)
(117.557 6582.87 0)
(70.669 6588.98 0)
(33.7545 6580.27 0)
(-3.50067 6538.6 0)
(-27.9855 6483.3 0)
(-44.5585 6411.39 0)
(-55.9109 6338.58 0)
(-57.4789 6257.34 0)
(-63.5722 6200 0)
(-73.8734 6132.09 0)
(-84.3814 6081.49 0)
(-97.9441 6028.82 0)
(-172.14 5972.29 0)
(-241.045 5856.55 0)
(-254.937 5736.08 0)
(-274.511 5604.85 0)
(-310.006 5468.53 0)
(-343.73 5297.02 0)
(-373.187 5123.03 0)
(-401.003 4914.18 0)
(-444.973 4706.06 0)
(-462.856 4444.99 0)
(-507.269 4213.15 0)
(-478.939 3906.53 0)
(-386.052 3724.1 0)
(-128.891 3556.81 0)
(187.569 3685.71 0)
(8734.19 3887.48 0)
(143911 13708.9 0)
(-159033 165708 0)
(14240.5 -166593 0)
(-12165 -14197.2 0)
(-475.773 -4953.1 0)
(-97.0097 -4717.45 0)
(-15.7459 -4814.48 0)
(-8.33381 -5040.26 0)
(-4.92631 -5228.47 0)
(-21.7556 -5437.68 0)
(-33.4553 -5581.14 0)
(-49.3161 -5708.93 0)
(-61.1049 -5812.22 0)
(-73.169 -5876.79 0)
(-82.3072 -5937.49 0)
(-89.9423 -5967.76 0)
(-94.5954 -5989.83 0)
(-94.9001 -5992.51 0)
(-92.5351 -5989.84 0)
(-76.0649 -5971.44 0)
(-57.1308 -5958.65 0)
(-40.3282 -5931.65 0)
(-15.1343 -5911.47 0)
(-7.27982 -5878.15 0)
(6.13806 -5847.16 0)
(13.4204 -5732.28 0)
(12.3873 -5619.89 0)
(16.6909 -5478.49 0)
(13.3765 -5337.24 0)
(10.7967 -5154.02 0)
(4.26424 -4976.05 0)
(-0.807204 -4762.41 0)
(-7.15618 -4554.97 0)
(-12.1283 -4295.6 0)
(-11.6119 -4067.55 0)
(7.67248 -3750.42 0)
(49.0548 -3524.6 0)
(91.8967 -3253.06 0)
(131.07 -3262.93 0)
(924.567 -3242.73 0)
(12025.8 -11892.1 0)
(-13860.1 -149163 0)
(3091.33 -10674.1 0)
(-2750.32 -1312.55 0)
(93.29 -758.019 0)
(-78.6286 -690.094 0)
(-56.336 -714.514 0)
(-31.1092 -722.882 0)
(-18.9517 -742.798 0)
(-21.0667 -743.059 0)
(-26.5454 -746.154 0)
(-36.6409 -740.218 0)
(-44.2012 -735.798 0)
(-50.04 -723.675 0)
(-53.9002 -709.663 0)
(-53.9405 -690.456 0)
(-51.8366 -667.983 0)
(-44.5648 -644.17 0)
(-35.6121 -620.036 0)
(-27.4211 -597.757 0)
(-25.2253 -589.467 0)
(-28.4161 -583.737 0)
(-32.8312 -584.673 0)
(-35.9698 -594.267 0)
(-31.5684 -597.044 0)
(-22.0367 -618.458 0)
(-10.3848 -627.612 0)
(-2.14153 -644.076 0)
(2.66603 -654.622 0)
(4.32642 -662.658 0)
(4.18661 -668.179 0)
(4.76054 -668.916 0)
(4.85935 -666.989 0)
(6.84604 -660.28 0)
(18.0936 -649.225 0)
(44.2624 -630.817 0)
(93.218 -613.912 0)
(123.263 -596.548 0)
(197.519 -601.154 0)
(418.782 -538.071 0)
(3296.95 -1063.56 0)
(-3834.67 -9631.64 0)
(2689.72 -372.405 0)
(-2609.49 -215.116 0)
(124.05 -173.736 0)
(-55.0868 -147.559 0)
(-47.3422 -127.901 0)
(-35.5884 -130.823 0)
(-24.3696 -142.81 0)
(-24.9904 -148.543 0)
(-30.7176 -157.74 0)
(-39.3366 -162.318 0)
(-45.1629 -166.019 0)
(-47.9839 -168.83 0)
(-50.2968 -169.861 0)
(-49.778 -171.266 0)
(-49.9921 -172.142 0)
(-48.6967 -175.217 0)
(-47.8096 -180.913 0)
(-46.6077 -189.147 0)
(-43.6215 -198.191 0)
(-35.7087 -203.933 0)
(-25.2807 -204.793 0)
(-19.2008 -200.928 0)
(-17.1738 -194.054 0)
(-16.0357 -189.199 0)
(-12.2993 -186.217 0)
(-9.3369 -187.382 0)
(-4.52949 -189.17 0)
(-2.26776 -190.563 0)
(-1.76562 -192.28 0)
(0.339466 -193.595 0)
(1.16515 -194.631 0)
(4.98983 -195.336 0)
(16.78 -193.575 0)
(41.7011 -193.062 0)
(82.077 -193.621 0)
(104.191 -207.086 0)
(187.421 -217.515 0)
(478.977 -222.803 0)
(3262.9 -142.555 0)
(-3553.85 -287.435 0)
(2525.18 46.7427 0)
(-2558.87 -110.512 0)
(158.39 -72.4885 0)
(-34.4603 -52.2733 0)
(-40.2086 -32.3397 0)
(-45.476 -41.5802 0)
(-36.0274 -55.2565 0)
(-35.4537 -65.2198 0)
(-39.8192 -77.6332 0)
(-44.6187 -86.9096 0)
(-50.4761 -94.7491 0)
(-53.7428 -102.404 0)
(-56.248 -108.223 0)
(-56.1384 -115.12 0)
(-55.6435 -120.675 0)
(-53.017 -125.685 0)
(-49.0359 -129.256 0)
(-44.071 -130.728 0)
(-39.4738 -130.193 0)
(-34.7778 -129.263 0)
(-29.9352 -130.504 0)
(-25.6208 -133.427 0)
(-20.2663 -135.187 0)
(-14.4846 -134.489 0)
(-8.63293 -131.649 0)
(-4.98747 -129.183 0)
(-0.399525 -125.743 0)
(1.32953 -123.357 0)
(1.26483 -120.269 0)
(2.49456 -117.998 0)
(3.18169 -115.598 0)
(7.86443 -113.006 0)
(20.2847 -109.016 0)
(44.2179 -106.095 0)
(79.7035 -105.233 0)
(100.238 -112.033 0)
(182.373 -115.256 0)
(491.016 -128.699 0)
(3234.67 -79.704 0)
(-3420.31 53.8129 0)
(2628.27 256.073 0)
(-2724.39 -49.2653 0)
(180.17 -21.8075 0)
(-16.398 -0.597558 0)
(-37.038 28.9433 0)
(-57.6719 17.3567 0)
(-47.1496 2.90935 0)
(-46.5534 -14.5371 0)
(-51.6186 -33.9545 0)
(-55.8301 -49.1413 0)
(-60.0938 -60.058 0)
(-60.9682 -70.4558 0)
(-62.5507 -78.2726 0)
(-61.7764 -85.0584 0)
(-60.1725 -89.9028 0)
(-56.9665 -93.4687 0)
(-52.6698 -95.9883 0)
(-47.5102 -98.0081 0)
(-42.2095 -99.7721 0)
(-36.0084 -101.184 0)
(-29.293 -102.19 0)
(-23.7133 -102.595 0)
(-18.1974 -102.573 0)
(-12.6269 -102.48 0)
(-7.18582 -102.104 0)
(-3.64516 -102.036 0)
(1.08448 -101.181 0)
(3.00731 -100.543 0)
(3.39842 -99.0466 0)
(4.84024 -97.2798 0)
(5.97561 -94.8652 0)
(11.3328 -91.6713 0)
(23.44 -87.7916 0)
(45.3463 -84.9743 0)
(76.3547 -85.3507 0)
(94.5327 -90.5232 0)
(171.361 -93.3187 0)
(513.236 -104.502 0)
(3438.78 -52.6688 0)
(-3528.9 286.333 0)
(2724.46 309.401 0)
(-2826.65 -7.40697 0)
(205.288 17.183 0)
(14.445 43.9901 0)
(-22.9072 86.8215 0)
(-70.5633 78.9 0)
(-66.7614 67.5418 0)
(-70.9771 44.5702 0)
(-73.1651 17.668 0)
(-69.773 -5.7547 0)
(-71.0155 -23.4024 0)
(-71.295 -37.6787 0)
(-70.3196 -48.2025 0)
(-67.3457 -56.8238 0)
(-63.748 -62.8359 0)
(-58.8812 -67.0869 0)
(-53.4102 -69.9222 0)
(-47.7173 -71.9018 0)
(-42.5344 -73.3997 0)
(-37.1074 -74.6308 0)
(-31.2944 -75.8714 0)
(-25.9902 -76.9177 0)
(-20.1563 -77.5641 0)