/*--------------------------------*- C++ -*----------------------------------*\
| =========                 |                                                 |
| \\      /  F ield         | OpenFOAM: The Open Source CFD Toolbox           |
|  \\    /   O peration     | Version:  v1912                                 |
|   \\  /    A nd           | Website:  www.openfoam.com                      |
|    \\/     M anipulation  |                                                 |
\*---------------------------------------------------------------------------*/
FoamFile
{
    version     2.0;
    format      ascii;
    class       volVectorField;
    location    "5.64";
    object      grad(T);
}
// * * * * * * * * * * * * * * * * * * * * * * * * * * * * * * * * * * * * * //

dimensions      [0 -1 0 1 0 0 0];


internalField   nonuniform List<vector> 
1900
(
(0.470844 8.02653e-06 0)
(-1.22254 6.562e-06 0)
(0.175929 -1.2487e-05 0)
(0.165008 3.19128e-06 0)
(0.0839585 9.21119e-05 0)
(0.0333614 0.000121675 0)
(0.0096781 0.000186168 0)
(0.00219029 0.000550461 0)
(-0.00652178 0.000440338 0)
(0.00963351 -0.00203708 0)
(0.470859 1.30437e-05 0)
(-1.22256 1.278e-05 0)
(0.175926 -1.3246e-05 0)
(0.165113 3.03132e-05 0)
(0.084077 0.000189052 0)
(0.0334555 0.000179228 0)
(0.0101069 4.15813e-05 0)
(0.00244446 3.52973e-05 0)
(-0.00910931 -0.00183297 0)
(-0.0217557 -0.00312914 0)
(0.47087 5.96311e-13 0)
(-1.22257 3.98011e-12 0)
(0.175947 1.01481e-12 0)
(0.16521 -5.17164e-13 0)
(0.0841074 -1.10047e-12 0)
(0.0332139 8.34836e-14 0)
(0.00953417 8.16404e-13 0)
(0.000315739 3.49113e-13 0)
(-0.00968622 -2.01662e-13 0)
(-0.0235705 -5.64869e-13 0)
(0.470859 -1.30437e-05 0)
(-1.22256 -1.278e-05 0)
(0.175926 1.3246e-05 0)
(0.165113 -3.03132e-05 0)
(0.084077 -0.000189052 0)
(0.0334555 -0.000179228 0)
(0.0101069 -4.15813e-05 0)
(0.00244446 -3.52973e-05 0)
(-0.00910931 0.00183297 0)
(-0.0217557 0.00312914 0)
(0.470844 -8.02653e-06 0)
(-1.22254 -6.56199e-06 0)
(0.175929 1.24871e-05 0)
(0.165008 -3.19128e-06 0)
(0.0839585 -9.21119e-05 0)
(0.0333614 -0.000121675 0)
(0.0096781 -0.000186168 0)
(0.00219029 -0.000550461 0)
(-0.00652178 -0.000440338 0)
(0.00963351 0.00203708 0)
(-0.0156119 -0.0270816 9.58112e-16)
(-0.0325447 -0.0236532 -1.14808e-15)
(0.0514107 -0.0379147 -1.45503e-15)
(0.285345 -0.0633125 0)
(-0.55721 -0.308868 -6.4724e-15)
(-0.0347268 -0.0308456 9.53219e-16)
(-0.0269089 -0.0286475 1.14808e-15)
(0.0363849 -0.0484029 1.45503e-15)
(0.190121 -0.0677315 0)
(-0.486324 -0.317123 0)
(-0.0487425 -6.24595e-13 0)
(-0.0401703 -6.34829e-13 0)
(0.0247027 -4.72833e-13 0)
(0.172957 -2.38196e-13 0)
(-0.607403 0 0)
(-0.0347268 0.0308456 9.53219e-16)
(-0.0269089 0.0286475 1.14808e-15)
(0.0363849 0.0484029 1.45503e-15)
(0.190121 0.0677315 0)
(-0.486324 0.317123 0)
(-0.0156119 0.0270816 -2.86455e-15)
(-0.0325447 0.0236532 -1.14808e-15)
(0.0514107 0.0379147 -1.45503e-15)
(0.285345 0.0633125 -3.99226e-15)
(-0.55721 0.308868 6.4724e-15)
(-1.66874 0.460513 2.21371e-15)
(-0.477047 0.276663 -1.66505e-15)
(-0.0833319 0.152077 0)
(-0.187474 0.0979079 1.24054e-15)
(-0.553173 0.132518 -5.35423e-16)
(-1.48134 0.459634 -1.11379e-15)
(-0.541279 0.162972 8.36689e-16)
(-0.127868 0.049206 0)
(-0.182465 0.0291086 -7.77401e-16)
(-0.507296 0.0758972 1.35425e-16)
(-1.54415 1.47846e-13 0)
(-0.594733 3.05801e-13 0)
(-0.133007 1.24482e-13 0)
(-0.18038 -4.60609e-14 3.11311e-16)
(-0.500562 1.45828e-13 -2.7085e-16)
(-1.48134 -0.459634 -1.11379e-15)
(-0.541279 -0.162972 8.36689e-16)
(-0.127868 -0.049206 0)
(-0.182465 -0.0291086 -7.77401e-16)
(-0.507296 -0.0758972 1.35425e-16)
(-1.66874 -0.460513 1.11379e-15)
(-0.477047 -0.276663 -8.33218e-18)
(-0.0833319 -0.152077 0)
(-0.187474 -0.0979079 2.94867e-18)
(-0.553173 -0.132518 5.35423e-16)
(-0.699788 0.433987 0)
(-0.237093 -0.185527 0)
(0.186241 -0.205402 0)
(0.249252 -0.0341286 0)
(0.177027 0.0448276 0)
(0.0436236 0.082869 0)
(-0.128476 0.0758337 0)
(-0.203251 0.0492974 0)
(-0.179546 0.0205136 0)
(-0.117317 0.00808704 0)
(-0.0783559 0.00373144 0)
(-0.0664061 0.00206448 0)
(-0.0638415 0.00224563 0)
(-0.0590882 0.00237665 0)
(-0.0475535 0.00113822 0)
(-0.0318516 0.000204771 0)
(-0.0193262 -0.000123288 0)
(-0.0126806 -0.000159797 0)
(-0.00990203 -0.00012765 0)
(-0.00853267 -0.000106495 0)
(-0.0073788 -0.000108851 0)
(-0.00622189 -0.000124648 0)
(-0.00506778 -0.000143617 0)
(-0.00396338 -0.000161632 0)
(-0.00292204 -0.000178502 0)
(-0.0019437 -0.000196394 0)
(-0.00084683 -0.000210637 0)
(0.000562278 -0.000224679 0)
(0.00249324 -0.000233944 0)
(0.00433179 -0.000221578 0)
(0.00653441 -0.000216085 0)
(0.00827742 -0.000156729 0)
(0.0105898 -0.000188955 0)
(0.0121299 -3.86706e-05 0)
(0.0175757 -0.000408886 0)
(0.0282009 0.000183397 0)
(0.0462294 0.000481269 0)
(-0.0424648 0.00193302 0)
(-0.334255 0.00681626 0)
(-0.261975 -0.000313737 0)
(-0.778209 0.191299 0)
(-0.334286 -0.189326 0)
(0.229181 -0.230252 0)
(0.302075 -0.0705584 0)
(0.193315 0.0197352 0)
(0.0370964 0.0116457 0)
(-0.135624 0.0240587 0)
(-0.209823 0.025018 0)
(-0.184163 0.0105784 0)
(-0.119057 0.00337113 0)
(-0.078904 0.00152717 0)
(-0.066569 0.000736828 0)
(-0.0637778 0.00076649 0)
(-0.0591599 0.000936779 0)
(-0.0477513 0.000383465 0)
(-0.0319537 3.03213e-05 0)
(-0.0193517 -8.11347e-05 0)
(-0.0126793 -8.86525e-05 0)
(-0.00989668 -7.28476e-05 0)
(-0.00853048 -6.24131e-05 0)
(-0.00737998 -6.22625e-05 0)
(-0.00622474 -6.84479e-05 0)
(-0.00507105 -7.6788e-05 0)
(-0.00396664 -8.54415e-05 0)
(-0.00292545 -9.41931e-05 0)
(-0.00194696 -0.00010387 0)
(-0.000849909 -0.000112238 0)
(0.000559366 -0.00012103 0)
(0.00249255 -0.000128276 0)
(0.00433197 -0.000126394 0)
(0.00653874 -0.000128215 0)
(0.00827774 -0.000105677 0)
(0.0105997 -0.000123138 0)
(0.0121065 -5.35514e-05 0)
(0.0176032 -0.000213296 0)
(0.0282975 0.000105182 0)
(0.0464221 0.000327841 0)
(-0.04109 0.00144683 0)
(-0.330004 0.00722069 0)
(-0.258938 0.0212263 0)
(-0.768307 -3.11659e-12 0)
(-0.359725 4.3171e-13 0)
(0.220791 1.29257e-11 0)
(0.321975 9.64151e-12 0)
(0.200941 9.00873e-12 0)
(0.0448813 1.11574e-12 0)
(-0.124585 -2.45424e-12 0)
(-0.207173 -2.99437e-12 0)
(-0.185843 -2.1822e-12 0)
(-0.11995 -2.39116e-12 0)
(-0.0791222 -1.09997e-12 0)
(-0.0666274 -2.95692e-13 0)
(-0.0637833 -1.62039e-12 0)
(-0.0591996 6.6432e-13 0)
(-0.0478172 -1.80372e-12 0)
(-0.0319868 -1.54154e-12 0)
(-0.0193608 -1.41341e-12 0)
(-0.0126781 -9.52127e-13 0)
(-0.0098944 -4.6325e-13 0)
(-0.00852959 -3.15404e-13 0)
(-0.00738055 9.65926e-14 0)
(-0.00622612 5.61814e-13 0)
(-0.00507273 6.60378e-13 0)
(-0.00396844 5.44072e-13 0)
(-0.00292741 -1.67559e-13 0)
(-0.00194895 -1.18474e-12 0)
(-0.000851822 -1.99296e-12 0)
(0.000557613 -2.21769e-12 0)
(0.00249168 -2.15658e-12 0)
(0.00433181 -1.95551e-12 0)
(0.00654044 -1.42523e-12 0)
(0.0082789 -2.50549e-12 0)
(0.0106049 -4.85328e-12 0)
(0.0121036 -4.37623e-12 0)
(0.0176219 -3.78485e-13 0)
(0.0283583 1.34638e-12 0)
(0.0466197 -6.91721e-12 0)
(-0.0404596 4.71135e-12 0)
(-0.3285 6.98423e-12 0)
(-0.257901 2.28826e-11 0)
(-0.778209 -0.191299 0)
(-0.334286 0.189326 0)
(0.229181 0.230252 0)
(0.302075 0.0705584 0)
(0.193315 -0.0197352 0)
(0.0370964 -0.0116457 0)
(-0.135624 -0.0240587 0)
(-0.209823 -0.025018 0)
(-0.184163 -0.0105784 0)
(-0.119057 -0.00337113 0)
(-0.078904 -0.00152717 0)
(-0.066569 -0.000736828 0)
(-0.0637778 -0.00076649 0)
(-0.0591599 -0.000936779 0)
(-0.0477513 -0.000383465 0)
(-0.0319537 -3.03213e-05 0)
(-0.0193517 8.11347e-05 0)
(-0.0126793 8.86525e-05 0)
(-0.00989668 7.28476e-05 0)
(-0.00853048 6.24131e-05 0)
(-0.00737998 6.22625e-05 0)
(-0.00622474 6.84479e-05 0)
(-0.00507105 7.6788e-05 0)
(-0.00396664 8.54415e-05 0)
(-0.00292545 9.41931e-05 0)
(-0.00194696 0.00010387 0)
(-0.000849909 0.000112238 0)
(0.000559366 0.00012103 0)
(0.00249255 0.000128276 0)
(0.00433197 0.000126394 0)
(0.00653874 0.000128215 0)
(0.00827774 0.000105677 0)
(0.0105997 0.000123138 0)
(0.0121065 5.35514e-05 0)
(0.0176032 0.000213296 0)
(0.0282975 -0.000105182 0)
(0.0464221 -0.000327841 0)
(-0.04109 -0.00144683 0)
(-0.330004 -0.00722069 0)
(-0.258938 -0.0212263 0)
(-0.699788 -0.433987 0)
(-0.237093 0.185527 0)
(0.186241 0.205402 0)
(0.249252 0.0341286 0)
(0.177027 -0.0448276 0)
(0.0436236 -0.082869 0)
(-0.128476 -0.0758337 0)
(-0.203251 -0.0492974 0)
(-0.179546 -0.0205136 0)
(-0.117317 -0.00808704 0)
(-0.0783559 -0.00373144 0)
(-0.0664061 -0.00206448 0)
(-0.0638415 -0.00224563 0)
(-0.0590882 -0.00237665 0)
(-0.0475535 -0.00113822 0)
(-0.0318516 -0.000204771 0)
(-0.0193262 0.000123288 0)
(-0.0126806 0.000159797 0)
(-0.00990203 0.00012765 0)
(-0.00853267 0.000106495 0)
(-0.0073788 0.000108851 0)
(-0.00622189 0.000124648 0)
(-0.00506778 0.000143617 0)
(-0.00396338 0.000161632 0)
(-0.00292204 0.000178502 0)
(-0.0019437 0.000196394 0)
(-0.00084683 0.000210637 0)
(0.000562278 0.000224679 0)
(0.00249324 0.000233944 0)
(0.00433179 0.000221578 0)
(0.00653441 0.000216085 0)
(0.00827742 0.000156729 0)
(0.0105898 0.000188955 0)
(0.0121299 3.86706e-05 0)
(0.0175757 0.000408886 0)
(0.0282009 -0.000183397 0)
(0.0462294 -0.000481269 0)
(-0.0424648 -0.00193302 0)
(-0.334255 -0.00681626 0)
(-0.261975 0.000313737 0)
(-0.116242 -0.314485 0)
(-0.0455962 0.0123372 0)
(0.183862 0.0662726 0)
(0.206189 -0.0154416 0)
(0.138759 -0.0330052 0)
(0.0101001 -0.0998866 0)
(-0.122832 -0.105662 0)
(-0.182721 -0.0746993 0)
(-0.163652 -0.0361924 0)
(-0.110542 -0.0157162 0)
(-0.07576 -0.00716005 0)
(-0.0658254 -0.00466672 0)
(-0.0639 -0.00462024 0)
(-0.0585483 -0.00414742 0)
(-0.0466177 -0.00213908 0)
(-0.0312804 -0.000461612 0)
(-0.0191525 0.000199944 0)
(-0.012675 0.000283313 0)
(-0.00992393 0.000228543 0)
(-0.00853974 0.000193975 0)
(-0.00736996 0.00020238 0)
(-0.00620623 0.000233784 0)
(-0.00505162 0.00026943 0)
(-0.00394852 0.000302513 0)
(-0.00290758 0.000332952 0)
(-0.00193057 0.000364826 0)
(-0.000835728 0.00039059 0)
(0.000570619 0.000413995 0)
(0.00248981 0.000428583 0)
(0.00432097 0.000406779 0)
(0.00650307 0.000384839 0)
(0.00826108 0.000287764 0)
(0.0105372 0.000311382 0)
(0.0122175 0.000125959 0)
(0.0174956 0.000551732 0)
(0.0278509 -0.000178003 0)
(0.0455474 -0.000742482 0)
(-0.0434741 -0.00284795 0)
(-0.32368 0.00167638 0)
(-0.250954 0.00950207 0)
(-0.0461644 -0.233437 0)
(0.0271324 -0.0646238 0)
(0.160748 -0.0452688 0)
(0.176676 -0.0468882 0)
(0.116173 -0.087286 0)
(-0.00841431 -0.124802 0)
(-0.10723 -0.121681 0)
(-0.147318 -0.0898153 0)
(-0.13123 -0.0492288 0)
(-0.092974 -0.0228938 0)
(-0.0691001 -0.0115155 0)
(-0.0642701 -0.00809158 0)
(-0.0633097 -0.00728309 0)
(-0.0569868 -0.00579636 0)
(-0.0445034 -0.0030469 0)
(-0.029904 -0.000698599 0)
(-0.0187015 0.000306194 0)
(-0.012656 0.000471474 0)
(-0.00997638 0.000411564 0)
(-0.00855409 0.00037044 0)
(-0.00734518 0.000389044 0)
(-0.00616568 0.000439971 0)
(-0.00501022 0.000496953 0)
(-0.00391013 0.000550795 0)
(-0.00286975 0.000601638 0)
(-0.0018952 0.00065633 0)
(-0.000805401 0.000701577 0)
(0.000594417 0.000742414 0)
(0.00248812 0.000772124 0)
(0.00429544 0.000745317 0)
(0.00643653 0.000712418 0)
(0.0082154 0.000586933 0)
(0.0104621 0.000609525 0)
(0.0123145 0.000432105 0)
(0.0173257 0.000776772 0)
(0.0271414 -3.92582e-05 0)
(0.0440222 -0.000893536 0)
(-0.0395926 -0.00333997 0)
(-0.328024 0.00774444 0)
(-0.260344 0.00322714 0)
(0.0464322 -0.198902 0)
(0.135729 -0.0336622 0)
(0.200952 -0.0207144 0)
(0.1657 -0.0386212 0)
(0.0636789 -0.0950993 0)
(-0.0230445 -0.127845 0)
(-0.0891177 -0.12088 0)
(-0.112903 -0.0887825 0)
(-0.0991641 -0.052124 0)
(-0.0741997 -0.0266329 0)
(-0.0614961 -0.0155448 0)
(-0.0617469 -0.0115541 0)
(-0.0616882 -0.0099128 0)
(-0.0544661 -0.00724199 0)
(-0.0417054 -0.00375858 0)
(-0.0280492 -0.000933169 0)
(-0.0180249 0.000330164 0)
(-0.0125735 0.00059781 0)
(-0.0100213 0.00056357 0)
(-0.00856144 0.000533375 0)
(-0.00730296 0.000569628 0)
(-0.00610225 0.000643706 0)
(-0.00494483 0.000725378 0)
(-0.00384764 0.000803724 0)
(-0.00280588 0.000879141 0)
(-0.00183426 0.000963799 0)
(-0.000752775 0.00103533 0)
(0.000638601 0.00109706 0)
(0.00249261 0.00114861 0)
(0.00426344 0.00111461 0)
(0.00635044 0.0010743 0)
(0.00816193 0.000924339 0)
(0.010388 0.000950843 0)
(0.0123786 0.000779245 0)
(0.0170414 0.00102258 0)
(0.0262413 0.000161042 0)
(0.0423668 -0.0009022 0)
(-0.0351503 -0.00264196 0)
(-0.317351 0.00775909 0)
(-0.255307 0.0170029 0)
(0.113067 -0.0667006 0)
(0.19884 0.0265698 0)
(0.155969 0.00912422 0)
(0.104996 -0.0578826 0)
(0.0301934 -0.0982772 0)
(-0.0332572 -0.118022 0)
(-0.0695879 -0.107809 0)
(-0.0810621 -0.0788017 0)
(-0.0713404 -0.0489991 0)
(-0.0577249 -0.0277059 0)
(-0.0545696 -0.0183224 0)
(-0.0588428 -0.0145624 0)
(-0.0591545 -0.0119622 0)
(-0.0510563 -0.00822513 0)
(-0.038424 -0.0041064 0)
(-0.0259639 -0.0010715 0)
(-0.0172262 0.000303201 0)
(-0.0124311 0.000647347 0)
(-0.0100385 0.000657367 0)
(-0.00854825 0.000656583 0)
(-0.00723886 0.000718682 0)
(-0.00601559 0.000817421 0)
(-0.00485602 0.000923446 0)
(-0.00376196 0.00102567 0)
(-0.0027155 0.00112262 0)
(-0.00174469 0.00122769 0)
(-0.00067699 0.00132978 0)
(0.00070357 0.00142074 0)
(0.00250504 0.00147368 0)
(0.00422383 0.00143031 0)
(0.00625318 0.00137515 0)
(0.00809644 0.00120257 0)
(0.0103222 0.00119988 0)
(0.0123836 0.0010352 0)
(0.01673 0.00114736 0)
(0.0252866 0.000366245 0)
(0.0413212 -0.000858286 0)
(-0.0312463 -0.00120059 0)
(-0.309094 0.00684516 0)
(-0.251437 0.0127759 0)
(0.136311 -0.0310723 0)
(0.208797 0.00244375 0)
(0.119571 -0.0236264 0)
(0.0622039 -0.0649723 0)
(0.00572637 -0.0982249 0)
(-0.0322294 -0.101786 0)
(-0.0513236 -0.0891388 0)
(-0.0562319 -0.0653357 0)
(-0.0499263 -0.0425303 0)
(-0.0446385 -0.0268263 0)
(-0.0488305 -0.0196801 0)
(-0.055618 -0.0166161 0)
(-0.0555814 -0.0130831 0)
(-0.046896 -0.0085491 0)
(-0.0348119 -0.00406066 0)
(-0.0238 -0.00104019 0)
(-0.0163686 0.000335895 0)
(-0.0122322 0.000728016 0)
(-0.0100124 0.000789043 0)
(-0.00850235 0.000827608 0)
(-0.00714797 0.000920019 0)
(-0.00590493 0.00104355 0)
(-0.00474416 0.00117264 0)
(-0.00365571 0.00129793 0)
(-0.0026112 0.00141556 0)
(-0.00163464 0.00153172 0)
(-0.000566745 0.00166044 0)
(0.000777268 0.00179349 0)
(0.00250183 0.00183333 0)
(0.00416849 0.00178748 0)
(0.00613099 0.00171864 0)
(0.00799303 0.00152915 0)
(0.0102267 0.00148817 0)
(0.012328 0.00132822 0)
(0.0163968 0.00135395 0)
(0.0243086 0.000717716 0)
(0.0408569 -0.000408325 0)
(-0.027727 0.000255936 0)
(-0.303883 0.00629085 0)
(-0.249592 0.00968124 0)
(0.145364 -0.0375179 0)
(0.206016 -0.0234516 0)
(0.0910046 -0.0392245 0)
(0.03311 -0.0739189 0)
(-0.00528208 -0.0896874 0)
(-0.0245016 -0.0847091 0)
(-0.0344626 -0.0707288 0)
(-0.0361484 -0.0517412 0)
(-0.0342314 -0.0350279 0)
(-0.0357056 -0.0251846 0)
(-0.0447307 -0.020669 0)
(-0.0524858 -0.0179795 0)
(-0.0513808 -0.0135873 0)
(-0.0423619 -0.00840413 0)
(-0.0311882 -0.00379741 0)
(-0.0217273 -0.000887715 0)
(-0.0155223 0.000430685 0)
(-0.0119944 0.00086635 0)
(-0.0099425 0.000992927 0)
(-0.00842204 0.00108254 0)
(-0.00703077 0.00120954 0)
(-0.00577215 0.0013561 0)
(-0.00461089 0.00150172 0)
(-0.00352788 0.00164042 0)
(-0.00249021 0.00176824 0)
(-0.00150871 0.00188608 0)
(-0.00042474 0.00201819 0)
(0.000870175 0.00216522 0)
(0.00249924 0.00217872 0)
(0.00411331 0.00210708 0)
(0.00600425 0.0019975 0)
(0.00787435 0.00176672 0)
(0.0101286 0.00165879 0)
(0.0122543 0.00146889 0)
(0.0161417 0.00140981 0)
(0.0235884 0.000863631 0)
(0.0408762 -8.16198e-05 0)
(-0.0247907 0.00136165 0)
(-0.300011 0.00685246 0)
(-0.248169 0.00965882 0)
(0.149866 -0.0491708 0)
(0.207152 -0.0423031 0)
(0.0709389 -0.0422562 0)
(0.013576 -0.0757284 0)
(-0.00467153 -0.0723558 0)
(-0.0139602 -0.0660736 0)
(-0.0195545 -0.0532229 0)
(-0.0218292 -0.0401338 0)
(-0.0243353 -0.0289635 0)
(-0.0308017 -0.0235481 0)
(-0.0418874 -0.021239 0)
(-0.0487938 -0.0183474 0)
(-0.0463542 -0.013167 0)
(-0.0374621 -0.00754066 0)
(-0.0275688 -0.00305744 0)
(-0.0197256 -0.000343312 0)
(-0.0146783 0.000887121 0)
(-0.0116904 0.00135072 0)
(-0.00980406 0.00154343 0)
(-0.00829361 0.00168561 0)
(-0.00688435 0.00184475 0)
(-0.00562337 0.00200723 0)
(-0.00447018 0.00215851 0)
(-0.00339888 0.00229777 0)
(-0.00237447 0.00242224 0)
(-0.00139378 0.00253194 0)
(-0.00029776 0.00265171 0)
(0.000931962 0.00278566 0)
(0.0024458 0.00276188 0)
(0.00399385 0.00264205 0)
(0.005803 0.00247182 0)
(0.00766664 0.00218061 0)
(0.0099397 0.00198608 0)
(0.0120881 0.00172634 0)
(0.0158135 0.00159167 0)
(0.0228714 0.00103837 0)
(0.0413368 0.000336084 0)
(-0.021045 0.00197572 0)
(-0.295888 0.00709516 0)
(-0.246888 0.0104375 0)
(0.151982 -0.0484583 0)
(0.212679 -0.0445432 0)
(0.0587948 -0.0430932 0)
(0.00410497 -0.0606282 0)
(0.00402169 -0.0498161 0)
(-0.00606448 -0.0461558 0)
(-0.0094661 -0.0384068 0)
(-0.0127712 -0.0309114 0)
(-0.0182488 -0.0245428 0)
(-0.028262 -0.0222391 0)
(-0.0397191 -0.0210541 0)
(-0.0447073 -0.0175796 0)
(-0.040967 -0.011898 0)
(-0.03262 -0.00620781 0)
(-0.0242526 -0.00204257 0)
(-0.0179261 0.000381641 0)
(-0.0138899 0.00154824 0)
(-0.0113619 0.00205123 0)
(-0.00961978 0.00231633 0)
(-0.00813167 0.00251559 0)
(-0.00672085 0.00270685 0)
(-0.0054698 0.00287951 0)
(-0.00433092 0.00302564 0)
(-0.00327374 0.00315177 0)
(-0.00226456 0.00325853 0)
(-0.00128759 0.00334604 0)
(-0.000180244 0.00343514 0)
(0.000976335 0.00352917 0)
(0.00236086 0.00345001 0)
(0.0038338 0.00326322 0)
(0.00555959 0.00301624 0)
(0.00740627 0.00265639 0)
(0.00969087 0.00237069 0)
(0.0118742 0.00203908 0)
(0.0154787 0.00183559 0)
(0.0223785 0.00131687 0)
(0.0417794 0.000844287 0)
(-0.0182774 0.00220086 0)
(-0.291857 0.00737258 0)
(-0.244949 0.0117136 0)
(0.153639 -0.0364614 0)
(0.212322 -0.0338065 0)
(0.0554388 -0.040018 0)
(0.00709756 -0.0382126 0)
(0.00927455 -0.0328568 0)
(-0.00296574 -0.0319256 0)
(-0.00486445 -0.0281854 0)
(-0.00846935 -0.0243164 0)
(-0.0159784 -0.0218501 0)
(-0.0274399 -0.0216707 0)
(-0.0373973 -0.0204618 0)
(-0.0399707 -0.0159982 0)
(-0.035396 -0.00991356 0)
(-0.027965 -0.00446851 0)
(-0.0212189 -0.000604146 0)
(-0.0162654 0.00158765 0)
(-0.0130694 0.0027156 0)
(-0.0109502 0.0033041 0)
(-0.00935658 0.00366353 0)
(-0.00791729 0.00392816 0)
(-0.00653367 0.00414636 0)
(-0.00531617 0.00431116 0)
(-0.00420782 0.00442423 0)
(-0.00317447 0.00450199 0)
(-0.00218726 0.00455029 0)
(-0.00122358 0.00457864 0)
(-0.000121289 0.00459001 0)
(0.000946285 0.0045854 0)
(0.00218953 0.00440624 0)
(0.00357586 0.00410697 0)
(0.00521824 0.00373952 0)
(0.00704456 0.00326714 0)
(0.00934484 0.00286462 0)
(0.0115725 0.00243269 0)
(0.0151176 0.00215709 0)
(0.0219162 0.00165452 0)
(0.0421887 0.00132652 0)
(-0.0147541 0.00235984 0)
(-0.286721 0.00796811 0)
(-0.242704 0.0132152 0)
(0.15454 -0.0250794 0)
(0.209251 -0.0248024 0)
(0.0545489 -0.0314142 0)
(0.0110057 -0.024625 0)
(0.0100801 -0.0230003 0)
(-0.00156293 -0.0233449 0)
(-0.00213361 -0.0212549 0)
(-0.00666631 -0.0199015 0)
(-0.0156994 -0.0200316 0)
(-0.0269241 -0.0205698 0)
(-0.0342529 -0.0185074 0)
(-0.0345426 -0.0132491 0)
(-0.0298566 -0.00725977 0)
(-0.0236491 -0.00237708 0)
(-0.0184166 0.00105982 0)
(-0.0147271 0.00296528 0)
(-0.0122358 0.0040334 0)
(-0.0104485 0.00466733 0)
(-0.00901841 0.00509053 0)
(-0.0076664 0.0053985 0)
(-0.00635177 0.00563199 0)
(-0.00520202 0.00579004 0)
(-0.00414703 0.00588481 0)
(-0.00315227 0.00593868 0)
(-0.0021907 0.00596081 0)
(-0.00124931 0.00596665 0)
(-0.000173734 0.00593251 0)
(0.000799251 0.00587115 0)
(0.00189983 0.00563164 0)
(0.00319132 0.00526347 0)
(0.0047503 0.00481361 0)
(0.00656318 0.00426272 0)
(0.00888676 0.00377648 0)
(0.0111924 0.00327586 0)
(0.0147288 0.00295541 0)
(0.0215781 0.00245585 0)
(0.0424591 0.00221495 0)
(-0.0118774 0.0028268 0)
(-0.281396 0.00831697 0)
(-0.239892 0.0146251 0)
(0.153905 -0.0144935 0)
(0.206218 -0.0182052 0)
(0.0556098 -0.0232988 0)
(0.0152055 -0.0166559 0)
(0.0105081 -0.0158211 0)
(-0.00128377 -0.016717 0)
(-0.00154627 -0.0161963 0)
(-0.0072906 -0.0168897 0)
(-0.0166225 -0.0185087 0)
(-0.0259711 -0.0185197 0)
(-0.0303428 -0.0153144 0)
(-0.029132 -0.00989288 0)
(-0.0249193 -0.0042651 0)
(-0.019948 0.000173266 0)
(-0.0160708 0.00291534 0)
(-0.0133999 0.00460983 0)
(-0.0114293 0.00564569 0)
(-0.00993154 0.00632881 0)
(-0.008652 0.0068161 0)
(-0.00739551 0.00716306 0)
(-0.00615636 0.00739746 0)
(-0.00507255 0.00752508 0)
(-0.00406459 0.00757601 0)
(-0.00310123 0.00758605 0)
(-0.00216031 0.00757111 0)
(-0.00125086 0.00755854 0)
(-0.000213316 0.00748301 0)
(0.000656352 0.00736754 0)
(0.00160394 0.00708363 0)
(0.00278759 0.00667057 0)
(0.00425388 0.00616843 0)
(0.00604515 0.00556464 0)
(0.00839386 0.00502766 0)
(0.0107812 0.00448091 0)
(0.0143274 0.00413388 0)
(0.0212026 0.00363855 0)
(0.0425461 0.00335478 0)
(-0.00887401 0.00375992 0)
(-0.275352 0.00966167 0)
(-0.236626 0.0171616 0)
(0.150963 -0.00530672 0)
(0.200766 -0.010438 0)
(0.0560418 -0.0140222 0)
(0.0182115 -0.00954041 0)
(0.0100212 -0.0106383 0)
(-0.00192452 -0.0120969 0)
(-0.00230002 -0.0129104 0)
(-0.0088946 -0.0146433 0)
(-0.0172701 -0.0162163 0)
(-0.023846 -0.015128 0)
(-0.0259398 -0.0113106 0)
(-0.0238951 -0.00613753 0)
(-0.0201565 -0.00111021 0)
(-0.0167298 0.00251928 0)
(-0.0141414 0.00475983 0)
(-0.012096 0.00623071 0)
(-0.0105794 0.00714635 0)
(-0.00932065 0.00778201 0)
(-0.0082145 0.00824691 0)
(-0.00710618 0.00858684 0)
(-0.00600291 0.00883068 0)
(-0.00502996 0.00898581 0)
(-0.00408828 0.00907957 0)
(-0.00315699 0.00914053 0)
(-0.0022172 0.00917376 0)
(-0.00133421 0.00920387 0)
(-0.000357789 0.00913468 0)
(0.000414398 0.00901424 0)
(0.0012282 0.00873457 0)
(0.0023094 0.00832843 0)
(0.00368457 0.00783306 0)
(0.0054639 0.00724749 0)
(0.00784244 0.00675278 0)
(0.0103311 0.00628747 0)
(0.0139171 0.00605512 0)
(0.0208274 0.00573745 0)
(0.0425761 0.00565263 0)
(-0.00579982 0.0060471 0)
(-0.268482 0.0115934 0)
(-0.232665 0.0194806 0)
(0.148961 0.00313861 0)
(0.197819 -0.00162905 0)
(0.0564748 -0.00416251 0)
(0.0184663 -0.00243077 0)
(0.00804452 -0.00526324 0)
(-0.00347325 -0.00738679 0)
(-0.00400007 -0.00942247 0)
(-0.0104762 -0.0118239 0)
(-0.0170895 -0.012744 0)
(-0.0212439 -0.0105163 0)
(-0.0216793 -0.00634226 0)
(-0.0193025 -0.00137192 0)
(-0.0165773 0.00255799 0)
(-0.0142914 0.00531778 0)
(-0.0124944 0.00728847 0)
(-0.0111002 0.00854733 0)
(-0.00993441 0.00939728 0)
(-0.008871 0.0100193 0)
(-0.00787644 0.0104962 0)
(-0.00683298 0.0108451 0)
(-0.00577189 0.0110652 0)
(-0.00483271 0.0111669 0)
(-0.0039155 0.0112137 0)
(-0.00301046 0.0112568 0)
(-0.00209926 0.0112906 0)
(-0.00128852 0.0113327 0)
(-0.000396051 0.011262 0)
(0.000270793 0.0111482 0)
(0.000943061 0.0108966 0)
(0.00191886 0.0105273 0)
(0.00321225 0.0100733 0)
(0.00500415 0.00953947 0)
(0.00746876 0.00915182 0)
(0.010109 0.00883179 0)
(0.0137974 0.00880892 0)
(0.0208148 0.00873921 0)
(0.0428445 0.00888295 0)
(-0.00314928 0.00967457 0)
(-0.262407 0.0149607 0)
(-0.229025 0.0251732 0)
(0.146369 0.0144992 0)
(0.193731 0.00713346 0)
(0.0552693 0.003454 0)
(0.0171508 0.00272207 0)
(0.00524545 -0.00148543 0)
(-0.0059325 -0.00337789 0)
(-0.00657578 -0.00602467 0)
(-0.0120954 -0.00802735 0)
(-0.01601 -0.00802407 0)
(-0.017677 -0.00495177 0)
(-0.017128 -0.000722482 0)
(-0.0153185 0.00322132 0)
(-0.01371 0.00616769 0)
(-0.0121713 0.00841263 0)
(-0.0110293 0.00995771 0)
(-0.0100639 0.0110149 0)
(-0.00916088 0.0117196 0)
(-0.0082617 0.0121588 0)
(-0.00741878 0.0123998 0)
(-0.00655786 0.0125568 0)
(-0.00569279 0.0127765 0)
(-0.00488688 0.0130584 0)
(-0.00400169 0.0133083 0)
(-0.00308284 0.0134745 0)
(-0.00214407 0.0135541 0)
(-0.00136178 0.0136012 0)
(-0.00053555 0.0135262 0)
(6.22978e-05 0.013435 0)
(0.000629877 0.0132352 0)
(0.00151607 0.0129388 0)
(0.00273267 0.0125482 0)
(0.00457588 0.0120945 0)
(0.0071605 0.0118274 0)
(0.0100007 0.0116636 0)
(0.0138279 0.0118498 0)
(0.0208987 0.0119799 0)
(0.0434774 0.0123866 0)
(5.69172e-05 0.0139623 0)
(-0.253547 0.0195197 0)
(-0.222824 0.0331889 0)
(0.141863 0.0263605 0)
(0.187176 0.0151343 0)
(0.0522238 0.011823 0)
(0.0137065 0.00878071 0)
(0.00216638 0.00313492 0)
(-0.00784742 0.00218358 0)
(-0.00848046 -0.000209069 0)
(-0.0124029 -0.000806014 0)
(-0.0141257 0.000238545 0)
(-0.0142078 0.00314212 0)
(-0.0138034 0.00644133 0)
(-0.0126629 0.00934154 0)
(-0.0115747 0.0117155 0)
(-0.0106392 0.0135629 0)
(-0.0099867 0.0149611 0)
(-0.00940243 0.0160856 0)
(-0.00883217 0.0169905 0)
(-0.00821548 0.0176659 0)
(-0.00749293 0.0180929 0)
(-0.00646996 0.018336 0)
(-0.00528853 0.0185452 0)
(-0.00432029 0.0187097 0)
(-0.00351448 0.0187383 0)
(-0.00277361 0.0186315 0)
(-0.00197722 0.018448 0)
(-0.00131536 0.0183161 0)
(-0.000556188 0.0180772 0)
(-9.68465e-06 0.0178604 0)
(0.000464889 0.0175771 0)
(0.00125692 0.0172747 0)
(0.00239865 0.0168374 0)
(0.00430951 0.0163818 0)
(0.00705356 0.0161576 0)
(0.0101306 0.0160706 0)
(0.0141022 0.0163624 0)
(0.021332 0.0166921 0)
(0.0447548 0.01728 0)
(0.00372439 0.0193134 0)
(-0.243879 0.0235008 0)
(-0.215853 0.0393411 0)
(0.135551 0.0384341 0)
(0.179722 0.0246489 0)
(0.0491467 0.0229761 0)
(0.00877861 0.0176747 0)
(-0.00111179 0.0113122 0)
(-0.00915489 0.010571 0)
(-0.00945667 0.0086218 0)
(-0.011664 0.00916563 0)
(-0.0122054 0.0108731 0)
(-0.0116998 0.0134259 0)
(-0.011154 0.015998 0)
(-0.0102361 0.0185581 0)
(-0.00964217 0.02057 0)
(-0.00904373 0.0223858 0)
(-0.00859829 0.0240186 0)
(-0.00810835 0.025608 0)
(-0.0076381 0.0270417 0)
(-0.00719935 0.0281924 0)
(-0.00677305 0.0290257 0)
(-0.00612202 0.0295276 0)
(-0.00533263 0.0297387 0)
(-0.0047008 0.0296578 0)
(-0.00407704 0.0292803 0)
(-0.00336255 0.0286719 0)
(-0.00244805 0.0279061 0)
(-0.0017191 0.0273556 0)
(-0.000974625 0.0266991 0)
(-0.000419674 0.02631 0)
(6.54485e-05 0.0258727 0)
(0.000803246 0.0255979 0)
(0.0018722 0.0252438 0)
(0.00392083 0.0249531 0)
(0.00686064 0.0248922 0)
(0.0101981 0.0249547 0)
(0.0144268 0.0255024 0)
(0.021783 0.0261036 0)
(0.0460034 0.0269144 0)
(0.00605148 0.0290525 0)
(-0.234248 0.0310495 0)
(-0.20756 0.046532 0)
(0.128579 0.0432364 0)
(0.17228 0.0434541 0)
(0.0455032 0.0487324 0)
(0.00246678 0.0386979 0)
(-0.00467896 0.0308734 0)
(-0.01044 0.0286068 0)
(-0.00983474 0.0268836 0)
(-0.0102335 0.0281646 0)
(-0.0100204 0.0307507 0)
(-0.00926929 0.0334978 0)
(-0.00885784 0.0361043 0)
(-0.00825702 0.037991 0)
(-0.00788616 0.0391881 0)
(-0.00731608 0.0400012 0)
(-0.00688169 0.0406364 0)
(-0.0064892 0.0415735 0)
(-0.00634171 0.0429819 0)
(-0.0063037 0.0448151 0)
(-0.00620632 0.0466951 0)
(-0.00578285 0.0480292 0)
(-0.00516305 0.04835 0)
(-0.004762 0.0476429 0)
(-0.00446451 0.0463435 0)
(-0.00409785 0.0454376 0)
(-0.00324564 0.0451521 0)
(-0.00247849 0.0456077 0)
(-0.00156376 0.0462816 0)
(-0.000806069 0.0467272 0)
(-0.000221407 0.0472935 0)
(0.000650985 0.0477321 0)
(0.00177734 0.048101 0)
(0.00397062 0.0483564 0)
(0.00705511 0.0487484 0)
(0.0107187 0.0495197 0)
(0.0152093 0.0510227 0)
(0.0226926 0.0527961 0)
(0.0475965 0.0545497 0)
(0.00770913 0.0566908 0)
(-0.227035 0.0513217 0)
(-0.200934 0.0545586 0)
(0.135761 -0.351579 0)
(0.185018 -0.0511221 0)
(0.0445635 0.0240974 0)
(-0.00843101 0.0072198 0)
(-0.010836 -0.000882198 0)
(-0.0129996 -0.00931714 0)
(-0.00988276 -0.0139192 0)
(-0.00793753 -0.0185044 0)
(-0.0070662 -0.0202701 0)
(-0.00654088 -0.0226986 0)
(-0.00682416 -0.0243096 0)
(-0.00726446 -0.0266639 0)
(-0.00770513 -0.0288678 0)
(-0.0076481 -0.0315168 0)
(-0.00708311 -0.0343084 0)
(-0.00584814 -0.0370981 0)
(-0.00451436 -0.0395429 0)
(-0.00362122 -0.041225 0)
(-0.00367587 -0.0416478 0)
(-0.00452726 -0.0408269 0)
(-0.0057049 -0.0405544 0)
(-0.00663434 -0.0403473 0)
(-0.00620211 -0.0386908 0)
(-0.00451059 -0.0353257 0)
(-0.00228419 -0.0313975 0)
(-0.000630749 -0.0274805 0)
(0.000104192 -0.0228263 0)
(0.000555428 -0.019621 0)
(0.00103379 -0.0153953 0)
(0.00158145 -0.0118707 0)
(0.00247377 -0.00808418 0)
(0.00454464 -0.00457339 0)
(0.00798173 -0.00129152 0)
(0.0123897 0.0025174 0)
(0.0175841 0.00679468 0)
(0.0251817 0.0102465 0)
(0.0497565 0.0130889 0)
(0.0029409 0.00812215 0)
(-0.236302 -0.0608377 0)
(-0.204441 -0.287859 0)
(0.41811 -0.41685 0)
(0.534295 -0.49187 0)
(0.101724 -0.246792 0)
(-0.0216045 -0.265828 0)
(-0.0206146 -0.283323 0)
(-0.023003 -0.294551 0)
(-0.0186879 -0.303206 0)
(-0.0163534 -0.311351 0)
(-0.014062 -0.315852 0)
(-0.013162 -0.320752 0)
(-0.012679 -0.324446 0)
(-0.0126495 -0.327802 0)
(-0.0125625 -0.330226 0)
(-0.0125588 -0.332467 0)
(-0.01226 -0.334325 0)
(-0.0115334 -0.336097 0)
(-0.0103186 -0.337738 0)
(-0.00833204 -0.339071 0)
(-0.00582264 -0.339511 0)
(-0.00472922 -0.33869 0)
(-0.00470092 -0.337942 0)
(-0.00296615 -0.336735 0)
(0.000374516 -0.333554 0)
(0.0029302 -0.329 0)
(0.00431423 -0.324227 0)
(0.00578105 -0.319349 0)
(0.00600994 -0.313883 0)
(0.00635472 -0.308636 0)
(0.0072471 -0.302482 0)
(0.00769627 -0.296166 0)
(0.00880929 -0.289023 0)
(0.0105163 -0.28143 0)
(0.0138881 -0.274017 0)
(0.0185108 -0.264292 0)
(0.0226573 -0.252844 0)
(0.0287579 -0.240926 0)
(0.0455494 -0.230718 0)
(-0.0635292 -0.243117 0)
(-0.512253 -0.527887 0)
(-0.419699 -0.371375 0)
(0.0634688 -0.0441977 0)
(0.348892 -0.412221 0)
(0.262386 -0.236597 0)
(-0.043633 -0.245496 0)
(-0.0385146 -0.259457 0)
(-0.0321602 -0.264071 0)
(-0.0260721 -0.26896 0)
(-0.0201234 -0.271734 0)
(-0.0161254 -0.272872 0)
(-0.0148224 -0.273875 0)
(-0.0136179 -0.274595 0)
(-0.0128341 -0.27485 0)
(-0.0122004 -0.274786 0)
(-0.0115976 -0.274474 0)
(-0.0105807 -0.273789 0)
(-0.0091372 -0.272731 0)
(-0.0073802 -0.271302 0)
(-0.00532981 -0.269682 0)
(-0.00330908 -0.268187 0)
(-0.00301545 -0.267073 0)
(-0.00382106 -0.266408 0)
(-0.0024061 -0.26616 0)
(0.00125158 -0.265827 0)
(0.00447715 -0.26525 0)
(0.00701641 -0.264222 0)
(0.00933733 -0.262446 0)
(0.010427 -0.260532 0)
(0.0115416 -0.257862 0)
(0.0130505 -0.255149 0)
(0.0145511 -0.25184 0)
(0.0166735 -0.248035 0)
(0.0190051 -0.243679 0)
(0.024497 -0.239226 0)
(0.0327925 -0.23267 0)
(0.0401006 -0.224406 0)
(0.0465038 -0.214568 0)
(0.0476445 -0.20599 0)
(-0.283423 -0.212394 0)
(-0.359896 -0.434181 0)
(-0.0536197 -0.0542874 0)
(0.0634688 0.0441977 0)
(0.348892 0.412221 0)
(0.262386 0.236597 0)
(-0.043633 0.245496 0)
(-0.0385146 0.259457 0)
(-0.0321602 0.264071 0)
(-0.0260721 0.26896 0)
(-0.0201234 0.271734 0)
(-0.0161254 0.272872 0)
(-0.0148224 0.273875 0)
(-0.0136179 0.274595 0)
(-0.0128341 0.27485 0)
(-0.0122004 0.274786 0)
(-0.0115976 0.274474 0)
(-0.0105807 0.273789 0)
(-0.0091372 0.272731 0)
(-0.0073802 0.271302 0)
(-0.00532981 0.269682 0)