/*--------------------------------*- C++ -*----------------------------------*\
| =========                 |                                                 |
| \\      /  F ield         | OpenFOAM: The Open Source CFD Toolbox           |
|  \\    /   O peration     | Version:  v1912                                 |
|   \\  /    A nd           | Website:  www.openfoam.com                      |
|    \\/     M anipulation  |                                                 |
\*---------------------------------------------------------------------------*/
FoamFile
{
    version     2.0;
    format      ascii;
    class       volScalarField;
    location    "0.04";
    object      p;
}
// * * * * * * * * * * * * * * * * * * * * * * * * * * * * * * * * * * * * * //

dimensions      [1 -1 -2 0 0 0 0];


internalField   nonuniform List<scalar> 
4800
(
1
1
1
1.00749
1.77881
2.27647
2.28177
2.28658
2.29284
2.29488
2.29412
2.28993
2.2827
2.27873
2.27757
2.27711
2.27701
2.27706
2.27753
2.27853
2.28055
2.2835
2.28737
2.29172
2.29538
2.30857
2.33059
2.34741
2.35683
2.35994
2.36493
2.37609
2.38474
2.3926
2.39985
2.42155
2.51024
2.75493
2.96357
3.06324
1
1
1
1.00749
1.77881
2.27647
2.28177
2.28658
2.29284
2.29488
2.29412
2.28993
2.2827
2.27873
2.27757
2.27711
2.27701
2.27706
2.27753
2.27853
2.28056
2.28351
2.28739
2.2917
2.2952
2.30812
2.32989
2.34682
2.35646
2.35967
2.36466
2.37579
2.38447
2.39241
2.39958
2.42037
2.4994
2.72315
2.92601
3.01299
1
1
1
1.00749
1.77881
2.27647
2.28177
2.28658
2.29284
2.29488
2.29412
2.28993
2.2827
2.27873
2.27757
2.27711
2.27701
2.27706
2.27753
2.27853
2.28056
2.28355
2.28743
2.29166
2.29486
2.30724
2.32862
2.34583
2.35587
2.35916
2.36414
2.37523
2.38396
2.39207
2.39907
2.41831
2.47881
2.66964
2.86923
2.95681
1
1
1
1.00749
1.77881
2.27647
2.28177
2.28658
2.29284
2.29488
2.29412
2.28993
2.2827
2.27873
2.27757
2.27711
2.27701
2.27706
2.27752
2.27853
2.28057
2.28361
2.28747
2.29162
2.29438
2.30596
2.32675
2.34436
2.35501
2.35844
2.36343
2.37445
2.38322
2.39157
2.39866
2.41465
2.45632
2.60339
2.7961
2.89498
1
1
1
1.00749
1.77881
2.27647
2.28177
2.28658
2.29284
2.29488
2.29412
2.28993
2.2827
2.27873
2.27757
2.27711
2.27701
2.27706
2.27752
2.27852
2.28058
2.28368
2.28754
2.29159
2.29379
2.30429
2.32423
2.34235
2.35388
2.35749
2.3625
2.37343
2.3822
2.3908
2.39828
2.41008
2.43824
2.53653
2.70892
2.82718
1
1
1
1.00749
1.77881
2.27647
2.28177
2.28658
2.29284
2.29488
2.29412
2.28993
2.2827
2.27873
2.27757
2.27711
2.27701
2.27706
2.27752
2.27851
2.28058
2.28376
2.28764
2.29159
2.29317
2.3023
2.32111
2.33977
2.35243
2.35634
2.36133
2.37215
2.38088
2.38965
2.3976
2.40701
2.42694
2.48213
2.61374
2.74546
1
1
1
1.00749
1.77881
2.27647
2.28177
2.28658
2.29284
2.29488
2.29412
2.28993
2.2827
2.27873
2.27757
2.27711
2.27701
2.27706
2.27751
2.2785
2.28058
2.28385
2.28777
2.2916
2.29255
2.3001
2.31738
2.33673
2.35047
2.35497
2.35997
2.37065
2.37929
2.3881
2.3965
2.40523
2.42087
2.44756
2.52773
2.65007
1
1
1
1.00749
1.77881
2.27647
2.28177
2.28658
2.29284
2.29488
2.29412
2.28993
2.2827
2.27873
2.27757
2.27711
2.27701
2.27706
2.27751
2.27849
2.28058
2.28393
2.28793
2.29167
2.29198
2.29782
2.31326
2.333
2.34794
2.35329
2.35846
2.36899
2.3775
2.38623
2.39494
2.40402
2.41704
2.43183
2.46938
2.55411
1
1
1
1.00749
1.77881
2.27647
2.28177
2.28658
2.29284
2.29488
2.29412
2.28993
2.2827
2.27873
2.27757
2.27711
2.27701
2.27706
2.27751
2.27848
2.28056
2.28401
2.28811
2.2918
2.2915
2.29565
2.30897
2.32837
2.34467
2.35121
2.35678
2.3672
2.37556
2.38416
2.39294
2.40247
2.41481
2.42584
2.44021
2.48166
1
1
1
1.00749
1.77881
2.27647
2.28177
2.28658
2.29284
2.29488
2.29412
2.28993
2.2827
2.27873
2.27757
2.27711
2.27701
2.27706
2.27751
2.27847
2.28055
2.28406
2.2883
2.292
2.29115
2.29373
2.30462
2.32282
2.34048
2.34871
2.35491
2.36524
2.37344
2.38193
2.39069
2.40046
2.413
2.42323
2.43053
2.44439
1
1
1
1.00749
1.77881
2.27647
2.28177
2.28658
2.29284
2.29488
2.29412
2.28993
2.2827
2.27873
2.27757
2.27711
2.27701
2.27706
2.2775
2.27846
2.28053
2.28409
2.28847
2.29225
2.29103
2.29223
2.30032
2.31658
2.33524
2.34588
2.35283
2.36306
2.37108
2.37957
2.3884
2.39817
2.4109
2.42145
2.4269
2.43293
1
1
1
1.00749
1.77881
2.27647
2.28177
2.28658
2.29284
2.29488
2.29412
2.28993
2.2827
2.27873
2.27757
2.27711
2.27701
2.27706
2.2775
2.27846
2.2805
2.28409
2.2886
2.29251
2.29114
2.29114
2.29626
2.31003
2.32882
2.34227
2.35044
2.36068
2.36855
2.37713
2.38617
2.39579
2.40842
2.41945
2.42484
2.42907
1
1
1
1.00749
1.77881
2.27647
2.28177
2.28658
2.29284
2.29488
2.29412
2.28993
2.2827
2.27873
2.27757
2.27711
2.27701
2.27706
2.2775
2.27845
2.28048
2.28409
2.2887
2.29276
2.29152
2.29033
2.29291
2.30359
2.32128
2.3373
2.34734
2.35816
2.36607
2.37477
2.38391
2.39328
2.40566
2.41703
2.42286
2.42684
1
1
1
1.00749
1.77881
2.27647
2.28177
2.28658
2.29284
2.29488
2.29412
2.28993
2.2827
2.27873
2.27757
2.27711
2.27701
2.27706
2.2775
2.27845
2.28047
2.28407
2.28875
2.29297
2.29198
2.28999
2.29044
2.29763
2.3128
2.33071
2.34301
2.3555
2.36376
2.37254
2.38152
2.39058
2.40277
2.41441
2.42061
2.42479
1
1
1
1.00749
1.77881
2.27647
2.28177
2.28658
2.29284
2.29488
2.29412
2.28993
2.2827
2.27873
2.27757
2.27711
2.27701
2.27706
2.27751
2.27845
2.28046
2.28404
2.28877
2.29314
2.29239
2.29012
2.28881
2.29254
2.30407
2.32246
2.33723
2.35246
2.36154
2.37036
2.37902
2.38773
2.39982
2.41176
2.41815
2.42254
1
1
1
1.00749
1.77881
2.27647
2.28177
2.28658
2.29284
2.29488
2.29412
2.28993
2.2827
2.27873
2.27757
2.27711
2.27701
2.27706
2.27751
2.27845
2.28045
2.28402
2.28876
2.29324
2.29273
2.29046
2.28821
2.28833
2.29633
2.31266
2.33005
2.34846
2.35898
2.36801
2.37642
2.38485
2.39688
2.40913
2.41563
2.42014
1
1
1
1.00749
1.77881
2.27647
2.28177
2.28658
2.29284
2.29488
2.29412
2.28993
2.2827
2.27873
2.27757
2.27711
2.27701
2.27706
2.27751
2.27845
2.28045
2.284
2.28874
2.29329
2.29296
2.29088
2.2882
2.28562
2.28987
2.30204
2.32118
2.34292
2.3557
2.36541
2.37369
2.38192
2.39391
2.40647
2.4131
2.4177
1
1
1
1.00749
1.77881
2.27647
2.28177
2.28658
2.29284
2.29488
2.29412
2.28993
2.2827
2.27873
2.27757
2.27711
2.27701
2.27706
2.27751
2.27845
2.28045
2.28399
2.28871
2.2933
2.29307
2.29133
2.28849
2.28449
2.28459
2.29197
2.31072
2.33496
2.35138
2.36236
2.37088
2.37897
2.39086
2.4037
2.41052
2.41525
1
1
1
1.00749
1.77881
2.27647
2.28177
2.28658
2.29284
2.29488
2.29412
2.28993
2.2827
2.27873
2.27757
2.27711
2.27701
2.27706
2.27751
2.27846
2.28046
2.28399
2.28869
2.29329
2.29309
2.2917
2.28891
2.28439
2.28116
2.2836
2.29971
2.32435
2.34522
2.35848
2.36792
2.37609
2.38782
2.40085
2.40785
2.41274
1
1
1
1.00749
1.77881
2.27647
2.28177
2.28658
2.29284
2.29488
2.29412
2.28993
2.2827
2.27873
2.27757
2.27711
2.27701
2.27706
2.27751
2.27846
2.28046
2.28399
2.28868
2.29327
2.29307
2.29192
2.28933
2.2847
2.27975
2.27769
2.28912
2.31227
2.33609
2.35263
2.36423
2.37324
2.38495
2.39805
2.40508
2.41008
1
1
1
1.00749
1.77881
2.27647
2.28177
2.28658
2.29284
2.29488
2.29412
2.28993
2.2827
2.27873
2.27757
2.27711
2.27701
2.27706
2.27751
2.27846
2.28046
2.28399
2.28867
2.29326
2.29304
2.29199
2.28969
2.28515
2.27928
2.27466
2.2805
2.29962
2.32396
2.34417
2.3591
2.36986
2.38232
2.39555
2.40239
2.40733
1
1
1
1.00749
1.77881
2.27647
2.28177
2.28658
2.29284
2.29488
2.29412
2.28993
2.2827
2.27873
2.27757
2.27711
2.27701
2.27706
2.27751
2.27846
2.28046
2.28399
2.28867
2.29324
2.29301
2.292
2.28991
2.2856
2.27955
2.2734
2.27514
2.28823
2.30979
2.33278
2.35146
2.36516
2.37944
2.39332
2.39997
2.40472
1
1
1
1.00749
1.77881
2.27647
2.28177
2.28658
2.29284
2.29488
2.29412
2.28993
2.2827
2.27873
2.27757
2.27711
2.27701
2.27706
2.27751
2.27846
2.28046
2.28399
2.28868
2.29324
2.29299
2.29197
2.28997
2.28594
2.27999
2.27312
2.27291
2.27983
2.29578
2.31843
2.34043
2.35821
2.37516
2.39061
2.39771
2.40238
1
1
1
1.00749
1.77881
2.27647
2.28177
2.28658
2.29284
2.29488
2.29412
2.28993
2.2827
2.27873
2.27757
2.27711
2.27701
2.27706
2.27751
2.27846
2.28046
2.28399
2.28868
2.29324
2.29298
2.29195
2.28996
2.2861
2.28038
2.27317
2.27268
2.27527
2.28442
2.30294
2.3259
2.34802
2.36861
2.38627
2.39521
2.4002
1
1
1
1.00749
1.77881
2.27647
2.28177
2.28658
2.29284
2.29488
2.29412
2.28993
2.2827
2.27873
2.27757
2.27711
2.27701
2.27706
2.27751
2.27846
2.28046
2.28399
2.28868
2.29324
2.29298
2.29193
2.28994
2.28613
2.28066
2.27341
2.27296
2.27381
2.27739
2.28948
2.30943
2.33363
2.35847
2.37943
2.39128
2.39759
1
1
1
1.00749
1.77881
2.27647
2.28177
2.28658
2.29284
2.29488
2.29412
2.28993
2.2827
2.27873
2.27757
2.27711
2.27701
2.27706
2.27751
2.27846
2.28046
2.28399
2.28868
2.29324
2.29298
2.29192
2.28992
2.28611
2.28075
2.2737
2.27322
2.27371
2.27478
2.28035
2.2944
2.31612
2.34377
2.36874
2.38451
2.39348
1
1
1
1.00749
1.77881
2.27647
2.28177
2.28658
2.29284
2.29488
2.29412
2.28993
2.2827
2.27873
2.27757
2.27711
2.27701
2.27706
2.27751
2.27846
2.28046
2.28399
2.28868
2.29324
2.29298
2.29192
2.28991
2.28608
2.28075
2.27387
2.2735
2.2739
2.27454
2.27642
2.28354
2.29914
2.3253
2.35316
2.37336
2.38664
1
1
1
1.00749
1.77881
2.27647
2.28177
2.28658
2.29284
2.29488
2.29412
2.28993
2.2827
2.27873
2.27757
2.27711
2.27701
2.27706
2.27751
2.27846
2.28046
2.28399
2.28868
2.29324
2.29298
2.29192
2.2899
2.28607
2.28073
2.2739
2.27367
2.27419
2.27471
2.27595
2.27839
2.28667
2.30702
2.3335
2.3566
2.37494
1
1
1
1.00749
1.77881
2.27647
2.28177
2.28658
2.29284
2.29488
2.29412
2.28993
2.2827
2.27873
2.27757
2.27711
2.27701
2.27706
2.27751
2.27846
2.28046
2.28399
2.28868
2.29324
2.29298
2.29192
2.2899
2.28606
2.28071
2.2739
2.27369
2.27442
2.27496
2.27611
2.27765
2.28055
2.29326
2.31392
2.33548
2.35686
1
1
1
1.00749
1.77881
2.27647
2.28177
2.28658
2.29284
2.29488
2.29412
2.28993
2.2827
2.27873
2.27757
2.27711
2.27701
2.27706
2.27751
2.27846
2.28046
2.28399
2.28868
2.29324
2.29298
2.29192
2.2899
2.28606
2.28071
2.27389
2.27369
2.27448
2.27517
2.27631
2.2778
2.27977
2.28621
2.29967
2.31456
2.33407
1
1
1
1.00749
1.77881
2.27647
2.28177
2.28658
2.29284
2.29488
2.29412
2.28993
2.2827
2.27873
2.27757
2.27711
2.27701
2.27706
2.27751
2.27846
2.28046
2.28399
2.28868
2.29324
2.29298
2.29192
2.2899
2.28606
2.28071
2.27389
2.27368
2.27449
2.27524
2.27651
2.278
2.27991
2.28508
2.29354
2.29999
2.31211
1
1
1
1.00749
1.77881
2.27647
2.28177
2.28658
2.29284
2.29488
2.29412
2.28993
2.2827
2.27873
2.27757
2.27711
2.27701
2.27706
2.27751
2.27846
2.28046
2.28399
2.28868
2.29324
2.29298
2.29192
2.2899
2.28606
2.28071
2.27388
2.27368
2.27448
2.27525
2.27658
2.27816
2.2801
2.28524
2.29216
2.29439
2.29832
1
1
1
1.00749
1.77881
2.27647
2.28177
2.28658
2.29284
2.29488
2.29412
2.28993
2.2827
2.27873
2.27757
2.27711
2.27701
2.27706
2.27751
2.27846
2.28046
2.28399
2.28868
2.29324
2.29298
2.29192
2.2899
2.28606
2.28071
2.27388
2.27368
2.27448
2.27525
2.27659
2.27822
2.28022
2.28537
2.29215
2.29369
2.29405
1
1
1
1.00749
1.77881
2.27647
2.28177
2.28658
2.29284
2.29488
2.29412
2.28993
2.2827
2.27873
2.27757
2.27711
2.27701
2.27706
2.27751
2.27846
2.28046
2.28399
2.28868
2.29324
2.29298
2.29192
2.2899
2.28606
2.28071
2.27388
2.27368
2.27448
2.27525
2.27659
2.27823
2.28026
2.28546
2.29219
2.2937
2.29375
1
1
1
1.00749
1.77881
2.27647
2.28177
2.28658
2.29284
2.29488
2.29412
2.28993
2.2827
2.27873
2.27757
2.27711
2.27701
2.27706
2.27751
2.27846
2.28046
2.28399
2.28868
2.29324
2.29298
2.29192
2.2899
2.28606
2.28071
2.27388
2.27368
2.27448
2.27524
2.27659
2.27823
2.28027
2.2855
2.29224
2.29375
2.29376
1
1
1
1.00749
1.77881
2.27647
2.28177
2.28658
2.29284
2.29488
2.29412
2.28993
2.2827
2.27873
2.27757
2.27711
2.27701
2.27706
2.27751
2.27846
2.28046
2.28399
2.28868
2.29324
2.29298
2.29192
2.2899
2.28606
2.28071
2.27388
2.27368
2.27448
2.27524
2.27659
2.27823
2.28027
2.2855
2.29227
2.29379
2.29379
1
1
1
1.00749
1.77881
2.27647
2.28177
2.28658
2.29284
2.29488
2.29412
2.28993
2.2827
2.27873
2.27757
2.27711
2.27701
2.27706
2.27751
2.27846
2.28046
2.28399
2.28868
2.29324
2.29298
2.29192
2.2899
2.28606
2.28071
2.27388
2.27368
2.27448
2.27524
2.27659
2.27823
2.28027
2.2855
2.29227
2.29381
2.29381
1
1
1
1.00749
1.77881
2.27647
2.28177
2.28658
2.29284
2.29488
2.29412
2.28993
2.2827
2.27873
2.27757
2.27711
2.27701
2.27706
2.27751
2.27846
2.28046
2.28399
2.28868
2.29324
2.29298
2.29192
2.2899
2.28606
2.28071
2.27388
2.27368
2.27448
2.27524
2.27659
2.27823
2.28027
2.2855
2.29227
2.29381
2.29382
1
1
1
1.00749
1.77881
2.27647
2.28177
2.28658
2.29284
2.29488
2.29412
2.28993
2.2827
2.27873
2.27757
2.27711
2.27701
2.27706
2.27751
2.27846
2.28046
2.28399
2.28868
2.29324
2.29298
2.29192
2.2899
2.28606
2.28071
2.27388
2.27368
2.27448
2.27524
2.27659
2.27823
2.28027
2.2855
2.29227
2.29381
2.29382
1
1
1
1.00749
1.77881
2.27647
2.28177
2.28658
2.29284
2.29488
2.29412
2.28993
2.2827
2.27873
2.27757
2.27711
2.27701
2.27706
2.27751
2.27846
2.28046
2.28399
2.28868
2.29324
2.29298
2.29192
2.2899
2.28606
2.28071
2.27388
2.27368
2.27448
2.27524
2.27659
2.27823
2.28027
2.2855
2.29227
2.29381
2.29382
3.26022
3.10216
3.00753
2.93919
2.8881
2.85117
2.83135
2.82475
2.82603
2.83272
2.84356
2.85313
2.85638
2.86981
2.93262
3.01453
3.00303
2.87146
2.18121
1.26483
1.09177
1.08925
1.08986
1.0912
1.09217
1.09293
1.09372
1.09457
1.09545
1.09637
1.09737
1.09845
1.09958
1.10073
1.10188
1.10305
1.10427
1.10567
1.10744
1.10983
1.11307
1.11684
1.11955
1.12031
1.12036
1.12036
1.12035
1.12035
1.12034
1.12033
1.12033
1.12033
1.12034
1.12035
1.12036
1.12038
1.12038
1.12038
1.12037
1.12029
1.12013
1.11993
1.11972
1.1195
1.11928
1.11905
1.11883
1.11861
1.11839
1.11818
1.11797
1.11776
1.11757
1.11739
1.11721
1.11704
1.11688
1.11672
1.1166
1.11646
3.05392
2.92989
2.89103
2.85835
2.83661
2.82175
2.81257
2.80801
2.81177
2.82198
2.83284
2.84224
2.85542
2.88555
2.93713
2.92992
2.87213
2.6672
1.92462
1.18876
1.09041
1.08938
1.09023
1.09149
1.09242
1.09319
1.094
1.09485
1.09574
1.09669
1.09772
1.09882
1.09996
1.10111
1.10224
1.10338
1.10465
1.10621
1.10819
1.11081
1.11415
1.11765
1.11983
1.12033
1.12036
1.12036
1.12036
1.12035
1.12034
1.12034
1.12033
1.12034
1.12034
1.12035
1.12036
1.12038
1.12038
1.12038
1.12036
1.12027
1.12009
1.11988
1.11966
1.11945
1.11922
1.119
1.11878
1.11856
1.11834
1.11813
1.11793
1.11772
1.11753
1.11735
1.11717
1.117
1.11685
1.1167
1.11658
1.11645
2.98766
2.91304
2.88557
2.85608
2.83467
2.8202
2.81257
2.81135
2.81589
2.82332
2.83152
2.83952
2.85279
2.87979
2.92185
2.91183
2.86396
2.62003
1.7679
1.14297
1.08984
1.08945
1.09043
1.09167
1.09258
1.09336
1.09417
1.09503
1.09593
1.09689
1.09793
1.09904
1.10019
1.10132
1.10245
1.10365
1.10501
1.10664
1.10868
1.11136
1.11479
1.11821
1.12003
1.12036
1.12037
1.12037
1.12036
1.12035
1.12034
1.12034
1.12033
1.12033
1.12033
1.12034
1.12036
1.12037
1.12038
1.12038
1.12036
1.12026
1.12008
1.11986
1.11964
1.11942
1.1192
1.11898
1.11875
1.11853
1.11831
1.1181
1.1179
1.11769
1.11751
1.11732
1.11714
1.11697
1.11682
1.11669
1.11658
1.11645
2.92162
2.8777
2.85759
2.83579
2.81979
2.80792
2.80202
2.80259
2.80715
2.8143
2.82429
2.83487
2.8467
2.87384
2.90697
2.88483
2.82091
2.49464
1.6036
1.11808
1.08966
1.08955
1.09062
1.09184
1.09273
1.09352
1.09433
1.0952
1.09612
1.09711
1.09817
1.09929
1.10042
1.10155
1.10269
1.10394
1.10537
1.10709
1.10926
1.11212
1.11566
1.11883
1.12019
1.12036
1.12036
1.12036
1.12036
1.12035
1.12034
1.12034
1.12033
1.12033
1.12034
1.12035
1.12036
1.12038
1.12038
1.12038
1.12035
1.12024
1.12004
1.11982
1.11961
1.11939
1.11916
1.11894
1.11872
1.1185
1.11828
1.11807
1.11787
1.11767
1.11747
1.11728
1.1171
1.11694
1.11681
1.11669
1.11657
1.11642
2.87019
2.84637
2.83206
2.81521
2.80234
2.79286
2.78889
2.79036
2.79523
2.80222
2.81132
2.82377
2.83764
2.85071
2.85916
2.84144
2.7671
2.3825
1.49996
1.10801
1.08971
1.08971
1.09081
1.09202
1.09291
1.09369
1.09452
1.0954
1.09634
1.09736
1.09844
1.09956
1.10069
1.10182
1.10299
1.10427
1.10575
1.10753
1.10983
1.11289
1.11651
1.11935
1.12028
1.12036
1.12036
1.12036
1.12036
1.12035
1.12034
1.12034
1.12034
1.12033
1.12034
1.12035
1.12037
1.12038
1.12038
1.12038
1.12035
1.12022
1.12002
1.1198
1.11958
1.11936
1.11914
1.11891
1.11869
1.11847
1.11825
1.11804
1.11783
1.11763
1.11743
1.11723
1.11707
1.11693
1.1168
1.11668
1.11652
1.11632
2.81442
2.80972
2.80189
2.79034
2.78194
2.77539
2.77256
2.77385
2.77821
2.7843
2.79094
2.80453
2.8269
2.82725
2.80754
2.77182
2.665
2.25464
1.44137
1.1051
1.08986
1.08989
1.09097
1.09218
1.09308
1.09388
1.09471
1.09561
1.09657
1.09761
1.09871
1.09984
1.10097
1.10211
1.10331
1.10463
1.10616
1.10805
1.11054
1.11382
1.11742
1.11977
1.12033
1.12036
1.12036
1.12036
1.12036
1.12035
1.12034
1.12034
1.12034
1.12034
1.12034
1.12035
1.12037
1.12038
1.12038
1.12038
1.12034
1.1202
1.11999
1.11977
1.11955
1.11933
1.1191
1.11888
1.11866
1.11843
1.11822
1.118
1.1178
1.11758
1.11739
1.11721
1.11706
1.11692
1.11679
1.11661
1.11639
1.11615
2.74288
2.76331
2.76655
2.76155
2.75703
2.75299
2.75094
2.75188
2.7549
2.76119
2.77256
2.78743
2.78967
2.77176
2.74093
2.68378
2.5566
2.1733
1.43624
1.10733
1.09008
1.09008
1.09113
1.09234
1.09327
1.09408
1.09492
1.09584
1.09683
1.09789
1.099
1.10013
1.10126
1.10242
1.10364
1.10501
1.10661
1.10863
1.11133
1.11482
1.11827
1.12006
1.12035
1.12036
1.12036
1.12035
1.12035
1.12034
1.12034
1.12034
1.12034
1.12034
1.12035
1.12036
1.12037
1.12038
1.12038
1.12037
1.12032
1.12017
1.11996
1.11974
1.11952
1.1193
1.11908
1.11885
1.11862
1.1184
1.11818
1.11796
1.11775
1.11754
1.11736
1.1172
1.11705
1.11691
1.11671
1.11645
1.1162
1.11602
2.64944
2.69676
2.71775
2.72303
2.72425
2.72376
2.72274
2.7234
2.72588
2.73347
2.74826
2.75427
2.73323
2.69501
2.63978
2.56669
2.45552
2.14657
1.4649
1.11244
1.09031
1.09029
1.09129
1.0925
1.09344
1.09427
1.09514
1.09608
1.0971
1.09818
1.0993
1.10043
1.10157
1.10274
1.10401
1.10543
1.10713
1.10933
1.11228
1.11592
1.11903
1.12023
1.12036
1.12036
1.12036
1.12035
1.12034
1.12034
1.12033
1.12033
1.12034
1.12034
1.12035
1.12036
1.12038
1.12038
1.12038
1.12038
1.12032
1.12015
1.11994
1.11971
1.11949
1.11927
1.11904
1.11881
1.11859
1.11836
1.11814
1.11791
1.1177
1.11751
1.11734
1.11719
1.11703
1.11681
1.11652
1.11624
1.1161
1.11599
2.54887
2.60667
2.64536
2.66488
2.67549
2.68056
2.68207
2.68298
2.68689
2.69706
2.70174
2.68343
2.64802
2.59461
2.53305
2.47785
2.40861
2.15545
1.50041
1.11783
1.09053
1.09047
1.09146
1.09268
1.09362
1.09447
1.09536
1.09634
1.09739
1.09849
1.0996
1.10073
1.10189
1.10309
1.1044
1.10589
1.10771
1.11013
1.11335
1.11704
1.11962
1.12032
1.12036
1.12036
1.12036
1.12035
1.12034
1.12033
1.12033
1.12033
1.12033
1.12034
1.12035
1.12036
1.12038
1.12038
1.12038
1.12038
1.12031
1.12014
1.11991
1.11968
1.11946
1.11924
1.11901
1.11878
1.11855
1.11832
1.11809
1.11787
1.11768
1.1175
1.11734
1.11718
1.11693
1.11658
1.1163
1.11615
1.11611
1.1161
2.47322
2.51341
2.55305
2.58158
2.60156
2.61367
2.61936
2.62243
2.6269
2.62944
2.61392
2.5829
2.54024
2.49586
2.4645
2.44456
2.40278
2.17625
1.5286
1.12203
1.09072
1.09065
1.09164
1.09286
1.09382
1.09469
1.09561
1.09662
1.09769
1.0988
1.09992
1.10106
1.10223
1.10347
1.10483
1.10641
1.1084
1.11107
1.11456
1.11811
1.12002
1.12036
1.12037
1.12036
1.12036
1.12035
1.12034
1.12033
1.12033
1.12033
1.12033
1.12033
1.12034
1.12036
1.12038
1.12038
1.12039
1.12038
1.1203
1.12012
1.11989
1.11966
1.11943
1.11921
1.11897
1.11874
1.11851
1.11828
1.11805
1.11785
1.11767
1.1175
1.11731
1.11702
1.11665
1.11636
1.11622
1.11618
1.11673
1.11921
2.4399
2.45284
2.47214
2.49166
2.51025
2.5248
2.53336
2.53752
2.53681
2.52757
2.51058
2.48857
2.46805
2.45532
2.44946
2.44217
2.40758
2.19322
1.54911
1.1255
1.09088
1.09083
1.09181
1.09305
1.09404
1.09494
1.09589
1.09692
1.09801
1.09913
1.10026
1.10141
1.10261
1.10388
1.1053
1.107
1.1092
1.11218
1.11586
1.11902
1.12024
1.12037
1.12037
1.12037
1.12036
1.12035
1.12034
1.12033
1.12033
1.12033
1.12033
1.12033
1.12034
1.12036
1.12038
1.12038
1.12039
1.12038
1.12029
1.1201
1.11987
1.11963
1.1194
1.11917
1.11894
1.11871
1.11847
1.11825
1.11804
1.11785
1.11766
1.11744
1.1171
1.11671
1.11645
1.1163
1.11627
1.1176
1.12536
1.13888
2.43221
2.43301
2.43435
2.43585
2.44153
2.44912
2.45473
2.45675
2.45531
2.45367
2.45454
2.45379
2.45241
2.45147
2.4493
2.44338
2.41193
2.20539
1.5668
1.12894
1.09109
1.09102
1.092
1.09325
1.09427
1.09521
1.09619
1.09725
1.09835
1.09948
1.10062
1.1018
1.10302
1.10435
1.10585
1.1077
1.11016
1.11346
1.11719
1.1197
1.12033
1.12037
1.12037
1.12037
1.12036
1.12035
1.12034
1.12034
1.12033
1.12033
1.12033
1.12033
1.12034
1.12036
1.12038
1.12038
1.12039
1.12037
1.12028
1.12009
1.11985
1.11961
1.11938
1.11914
1.11891
1.11868
1.11845
1.11824
1.11803
1.11782
1.11756
1.11719
1.1168
1.11652
1.1164
1.11645
1.11905
1.13167
1.15262
1.17119
2.42935
2.42884
2.42633
2.42162
2.41869
2.4203
2.42239
2.42452
2.42804
2.43541
2.4456
2.45088
2.45154
2.45107
2.44949
2.44447
2.41437
2.21522
1.5837
1.13252
1.0913
1.09123
1.09221
1.09349
1.09454
1.0955
1.09652
1.09759
1.09871
1.09985
1.10101
1.10222
1.10348
1.10486
1.10647
1.10852
1.11131
1.11491
1.11841
1.12011
1.12036
1.12037
1.12037
1.12037
1.12036
1.12035
1.12034
1.12034
1.12034
1.12033
1.12033
1.12033
1.12034
1.12036
1.12037
1.12038
1.12038
1.12037
1.12027
1.12007
1.11983
1.11959
1.11935
1.11912
1.11889
1.11866
1.11844
1.11821
1.11798
1.11768
1.11728
1.11689
1.11665
1.1165
1.11679
1.12166
1.13943
1.16585
1.18424
1.1948
2.42734
2.42653
2.42354
2.41882
2.41537
2.4166
2.4184
2.42105
2.42567
2.43385
2.44439
2.44986
2.45081
2.45068
2.44936
2.44459
2.41576
2.22413
1.60049
1.13632
1.09153
1.09146
1.09247
1.09376
1.09483
1.09581
1.09685
1.09794
1.09908
1.10025
1.10144
1.10268
1.10399
1.10545
1.10721
1.10953
1.11269
1.11646
1.11937
1.12029
1.12036
1.12037
1.12036
1.12036
1.12035
1.12034
1.12034
1.12034
1.12034
1.12034
1.12034
1.12034
1.12034
1.12036
1.12037
1.12038
1.12038
1.12036
1.12026
1.12005
1.11981
1.11957
1.11933
1.1191
1.11887
1.11864
1.1184
1.11814
1.11779
1.11737
1.11701
1.11676
1.11664
1.11746
1.12551
1.14897
1.1778
1.19697
1.2037
1.2075
2.42528
2.42443
2.42144
2.41699
2.41361
2.41482
2.41693
2.41977
2.42439
2.43253
2.44314
2.44886
2.45004
2.45012
2.44896
2.44441
2.41688
2.23264
1.61726
1.14035
1.09177
1.09171
1.09274
1.09405
1.09513
1.09613
1.09719
1.09831
1.09948
1.10068
1.10191
1.10318
1.10454
1.10611
1.10809
1.11076
1.11429
1.11795
1.11999
1.12036
1.12037
1.12037
1.12036
1.12035
1.12034
1.12034
1.12034
1.12034
1.12034
1.12034
1.12034
1.12034
1.12035
1.12036
1.12038
1.12038
1.12038
1.12036
1.12025
1.12004
1.11979
1.11955
1.11932
1.11909
1.11884
1.11859
1.11829
1.1179
1.11748
1.11714
1.11691
1.11683
1.1186
1.13087
1.15923
1.18947
1.20682
1.21235
1.21247
1.21461
2.423
2.42216
2.41921
2.41526
2.41227
2.41345
2.41578
2.41872
2.42327
2.43127
2.44192
2.44796
2.4493
2.44948
2.44844
2.44412
2.41786
2.24078
1.63401
1.14467
1.09209
1.09201
1.09302
1.09433
1.09544
1.09648
1.09757
1.09873
1.09993
1.10116
1.10241
1.10372
1.10517
1.1069
1.10917
1.11226
1.11604
1.11917
1.12028
1.12037
1.12037
1.12037
1.12036
1.12035
1.12033
1.12033
1.12033
1.12034
1.12034
1.12034
1.12034
1.12034
1.12035
1.12037
1.12038
1.12038
1.12038
1.12036
1.12025
1.12003
1.11978
1.11954
1.1193
1.11905
1.11878
1.11844
1.11802
1.11761
1.1173
1.11706
1.11715
1.12065
1.13781
1.17005
1.19967
1.21536
1.21943
1.2186
1.21689
1.21913
2.42062
2.41977
2.41678
2.41331
2.41087
2.41193
2.41444
2.41751
2.42207
2.42998
2.44067
2.44702
2.44856
2.44889
2.44799
2.44393
2.41888
2.24863
1.65061
1.14921
1.09242
1.09229
1.09329
1.09462
1.09578
1.09688
1.09802
1.09922
1.10043
1.10167
1.10294
1.10431
1.10588
1.10785
1.11051
1.11403
1.11776
1.11994
1.12037
1.12038
1.12038
1.12037
1.12036
1.12034
1.12033
1.12033
1.12033
1.12033
1.12033
1.12033
1.12034
1.12034
1.12035
1.12037
1.12038
1.12039
1.12039
1.12037
1.12025
1.12003
1.11977
1.11952
1.11927
1.11896
1.11858
1.11816
1.11777
1.11747
1.11726
1.11774
1.12402
1.14659
1.18115
1.20891
1.2217
1.22429
1.22279
1.22136
1.21981
1.22241
2.41823
2.41742
2.41435
2.41124
2.40942
2.41026
2.41287
2.41605
2.42067
2.42853
2.43926
2.446
2.4478
2.44828
2.44758
2.44379
2.41991
2.25614
1.66692
1.15387
1.09274
1.09259
1.09362
1.09499
1.0962
1.09734
1.09852
1.09973
1.10096
1.10222
1.10354
1.10501
1.10677
1.10906
1.11217
1.11598
1.11914
1.12028
1.12038
1.12039
1.12038
1.12037
1.12036
1.12034
1.12033
1.12033
1.12033
1.12033
1.12033
1.12033
1.12033
1.12034
1.12035
1.12037
1.12039
1.12039
1.1204
1.12038
1.12026
1.12002
1.11975
1.11947
1.11913
1.11873
1.11831
1.11796
1.11766
1.11754
1.11895
1.1294
1.15722
1.19233
1.21722
1.22803
1.23009
1.22798
1.22482
1.22351
1.22256
1.22508
2.41578
2.41512
2.41209
2.40922
2.40812
2.40867
2.41124
2.41451
2.41921
2.42708
2.43777
2.44478
2.44689
2.44763
2.44722
2.44378
2.42106
2.26346
1.68303
1.15869
1.09305
1.09289
1.09398
1.09544
1.09669
1.09786
1.09905
1.10027
1.10152
1.10282
1.10423
1.10585
1.10788
1.1106
1.11416
1.11787
1.11998
1.12037
1.12039
1.12039
1.12038
1.12037
1.12035
1.12034
1.12034
1.12033
1.12033
1.12033
1.12033
1.12033
1.12033
1.12033
1.12035
1.12037
1.12039
1.1204
1.12041
1.12039
1.12026
1.12001
1.11968
1.11929
1.11887
1.11849
1.11817
1.11789
1.118
1.12142
1.13744
1.16955
1.20325
1.22428
1.23174
1.23205
1.23021
1.22836
1.2264
1.22553
1.22492
1.22731
2.41309
2.41263
2.40996
2.40726
2.40693
2.40745
2.40975
2.4131
2.41791
2.4258
2.43648
2.44374
2.44614
2.44707
2.4469
2.44377
2.42215
2.27046
1.69893
1.16377
1.09349
1.09329
1.09442
1.09593
1.09722
1.09841
1.09961
1.10085
1.10214
1.10352
1.10506
1.10691
1.10931
1.11252
1.11634
1.11933
1.12031
1.12038
1.12039
1.12039
1.12038
1.12036
1.12035
1.12034
1.12034
1.12034
1.12034
1.12033
1.12033
1.12033
1.12033
1.12033
1.12035
1.12038
1.1204
1.12041
1.12041
1.12038
1.12022
1.11988
1.11945
1.11903
1.11869
1.11838
1.11819
1.11903
1.12621
1.14856
1.18301
1.21353
1.23085
1.23727
1.23773
1.23511
1.23176
1.22891
1.22747
1.22723
1.22694
1.22907
2.41015
2.40977
2.40776
2.40521
2.40558
2.40651
2.40847
2.41194
2.41692
2.42492
2.43561
2.44309
2.4457
2.44677
2.44676
2.44385
2.42324
2.27719
1.71464
1.16908
1.094
1.09375
1.09492
1.09646
1.09777
1.09898
1.10021
1.10149
1.10285
1.10435
1.10609
1.10827
1.11115
1.1148
1.11834
1.12012
1.12039
1.12039
1.12039
1.12038
1.12036
1.12035
1.12034
1.12034
1.12034
1.12034
1.12034
1.12034
1.12034
1.12034
1.12034
1.12034
1.12036
1.12038
1.1204
1.1204
1.12038
1.12028
1.12002
1.11963
1.11924
1.11891
1.11863
1.11871
1.12152
1.1345
1.16265
1.1968
1.22266
1.23547
1.2387
1.23828
1.23723
1.23585
1.23316
1.23036
1.22872
1.2287
1.22862
1.2305
2.40721
2.4067
2.40528
2.403
2.40356
2.40542
2.40734
2.41092
2.4162
2.42436
2.43505
2.4427
2.4456
2.44676
2.44684
2.44414
2.42442
2.28366
1.73006
1.17456
1.09458
1.09431
1.09551
1.09705
1.09835
1.09957
1.10084
1.10221
1.1037
1.10539
1.10743
1.11004
1.11342
1.11715
1.11971
1.12037
1.1204
1.12039
1.12039
1.12037
1.12035
1.12034
1.12033
1.12033
1.12034
1.12034
1.12034
1.12034
1.12034
1.12035
1.12035
1.12035
1.12036
1.12038
1.12038
1.12032
1.12019
1.12001
1.11979
1.11949
1.11917
1.11899
1.12001
1.127
1.14708
1.17877
1.20981
1.23052
1.24057
1.24374
1.24309
1.24058
1.23749
1.23485
1.23301
1.2314
1.22998
1.22991
1.22995
1.23162
2.40467
2.40397
2.4027
2.4007
2.40089
2.40362
2.40586
2.40966
2.41528
2.42373
2.43445
2.44224
2.44547
2.44686
2.44718
2.44473
2.42591
2.29028
1.74562
1.18036
1.09522
1.09487
1.09607
1.09762
1.09895
1.10021
1.10157
1.10308
1.10478
1.10675
1.10917
1.11227
1.11595
1.11906
1.12028
1.1204
1.1204
1.12039
1.12038
1.12036
1.12034
1.12033
1.12033
1.12033
1.12033
1.12034
1.12034
1.12035
1.12035
1.12036
1.12036
1.12036
1.12034
1.1203
1.12019
1.12004
1.11992
1.11984
1.11971
1.1195
1.11979
1.12353
1.13716
1.16362
1.19533
1.22123
1.23645
1.24247
1.24346
1.24343
1.24313
1.2414
1.2381
1.23476
1.2326
1.23182
1.23117
1.23109
1.2312
1.23265
2.40276
2.40195
2.40054
2.39869
2.39827
2.40105
2.40401
2.40768
2.41367
2.42253
2.43338
2.44135
2.44509
2.44685
2.44748
2.44541
2.42758
2.29692
1.76115
1.18649
1.09595
1.09545
1.09663
1.09822
1.09965
1.10105
1.10258
1.10428
1.10622
1.10851
1.11138
1.11486
1.11826
1.12008
1.1204
1.12041
1.1204
1.12039
1.12038
1.12036
1.12034
1.12033
1.12033
1.12033
1.12033
1.12034
1.12035
1.12036
1.12036
1.12036
1.12034
1.12028
1.12017
1.12002
1.1199
1.11984
1.11983
1.11982
1.12001
1.12216
1.13144
1.15268
1.18239
1.21062
1.23051
1.24159
1.24652
1.24768
1.24654
1.24456
1.24232
1.24012
1.23773
1.23515
1.23305
1.23211
1.23191
1.2321
1.2323
1.23352
2.40134
2.40064
2.39904
2.39739
2.39664
2.39887
2.40198
2.40548
2.41149
2.42052
2.43167
2.43997
2.44431
2.44668
2.4477
2.44602
2.42912
2.30317
1.77621
1.19272
1.09673
1.0961
1.09733
1.09903
1.1006
1.10217
1.10389
1.10582
1.10804
1.11072
1.11399
1.11744
1.11976
1.12038
1.12041
1.12042
1.12041
1.1204
1.12037
1.12035
1.12034
1.12033
1.12033
1.12034
1.12035
1.12035
1.12036
1.12036
1.12034
1.12028
1.12015
1.11999
1.11985
1.11979
1.11978
1.1198
1.11998
1.12149
1.12829
1.14543
1.17229
1.20089
1.2234
1.23739
1.24425
1.24645
1.24697
1.24749
1.24731
1.2452
1.24175
1.23886
1.23682
1.2354
1.23406
1.23303
1.2327
1.233
1.23323
1.23425
2.39922
2.39959
2.39789
2.3966
2.39636
2.39781
2.40093
2.40433
2.40969
2.41845
2.42973
2.43841
2.44328
2.44643
2.44785
2.44655
2.43059
2.30905
1.79067
1.19888
1.0975
1.09687
1.09827
1.10015
1.10188
1.10361
1.10554
1.10776
1.11035
1.11342
1.11675
1.11937
1.12033
1.12043
1.12043
1.12043
1.12041
1.12038
1.12036
1.12034
1.12034
1.12034
1.12035
1.12036
1.12036
1.12036
1.12034
1.12027
1.12014
1.11996
1.11981
1.11972
1.11971
1.11973
1.11987
1.12102
1.12632
1.14064
1.16496
1.19305
1.21698
1.23328
1.24273
1.24767
1.2497
1.24977
1.24874
1.24747
1.24604
1.24421
1.24157
1.23867
1.23645
1.23532
1.23479
1.23416
1.23364
1.23382
1.23393
1.23475
2.39488
2.39758
2.39669
2.39579
2.39681
2.39808
2.40093
2.40438
2.40913
2.41736
2.42823
2.43711
2.44221
2.44558
2.4475
2.44677
2.43182
2.31471
1.80513
1.20547
1.09854
1.09786
1.09939
1.1015
1.10346
1.10545
1.10768
1.11023
1.11315
1.11631
1.119
1.12026
1.12044
1.12044
1.12043
1.12041
1.12038
1.12036
1.12034
1.12034
1.12035
1.12036
1.12037
1.12036
1.12034
1.12026
1.12011
1.11992
1.11976
1.11968
1.11966
1.11966
1.11978
1.12076
1.12526
1.13767
1.15975
1.18694
1.21169
1.22945
1.24008
1.24559
1.24801
1.24897
1.24975
1.25022
1.24955
1.24748
1.24487
1.2426
1.24068
1.2387
1.23688
1.23556
1.23505
1.23484
1.23445
1.23451
1.23453
1.23522
2.38741
2.39286
2.39407
2.39455
2.39701
2.39885
2.40176
2.4056
2.41014
2.41762
2.42772
2.43646