/*--------------------------------*- C++ -*----------------------------------*\
| =========                 |                                                 |
| \\      /  F ield         | OpenFOAM: The Open Source CFD Toolbox           |
|  \\    /   O peration     | Version:  v1912                                 |
|   \\  /    A nd           | Website:  www.openfoam.com                      |
|    \\/     M anipulation  |                                                 |
\*---------------------------------------------------------------------------*/
FoamFile
{
    version     2.0;
    format      ascii;
    class       volVectorField;
    location    "0.04";
    object      U;
}
// * * * * * * * * * * * * * * * * * * * * * * * * * * * * * * * * * * * * * //

dimensions      [0 1 -1 0 0 0 0];


internalField   nonuniform List<vector> 
4800
(
(5 -4.33408e-16 0)
(5 -1.00017e-16 0)
(5 -9.00155e-16 0)
(4.98317 -3.31615e-17 0)
(3.59758 -1.14261e-14 0)
(2.99807 -2.20896e-14 0)
(2.99891 -4.08852e-13 0)
(3.00386 1.60117e-12 0)
(3.01061 2.55297e-12 0)
(3.01285 -1.42951e-11 0)
(3.01218 1.47801e-10 0)
(3.00757 -9.18926e-10 0)
(2.99935 3.7325e-09 0)
(2.99482 -1.2552e-08 0)
(2.99356 4.06135e-08 0)
(2.9932 -9.13557e-08 0)
(2.99317 8.6157e-08 0)
(2.99322 -5.46077e-08 0)
(2.99361 -1.11686e-07 0)
(2.9948 1.03921e-06 0)
(2.99733 1.66921e-06 0)
(3.00167 -4.56933e-06 0)
(3.00809 -4.58233e-07 0)
(3.01269 -2.97516e-05 0)
(3.00846 1.08419e-05 0)
(2.99177 0.000119544 0)
(2.96205 0.000306563 0)
(2.93367 0.000556965 0)
(2.91161 0.000919744 0)
(2.89337 0.00130002 0)
(2.87962 0.0015756 0)
(2.87072 0.00162796 0)
(2.86123 0.0017321 0)
(2.85364 0.00204469 0)
(2.84495 0.00208178 0)
(2.83325 0.00293824 0)
(2.74042 0.00535748 0)
(2.49151 0.00848856 0)
(2.28573 0.0361648 0)
(2.06398 0.0630181 0)
(5 -3.33391e-17 0)
(5 3.00052e-16 0)
(5 3.00052e-16 0)
(4.98317 3.21667e-15 0)
(3.59758 -4.82136e-14 0)
(2.99807 -7.44468e-14 0)
(2.99891 -6.74702e-13 0)
(3.00386 7.97993e-13 0)
(3.01061 2.02249e-11 0)
(3.01285 -6.89041e-11 0)
(3.01218 3.43131e-10 0)
(3.00757 -2.19056e-09 0)
(2.99935 8.93109e-09 0)
(2.99482 -3.11411e-08 0)
(2.99356 1.13446e-07 0)
(2.9932 -2.36444e-07 0)
(2.99317 1.02411e-07 0)
(2.99322 -1.57937e-07 0)
(2.99361 2.85206e-07 0)
(2.9948 4.6242e-06 0)
(2.99733 5.07032e-06 0)
(3.00165 -2.13189e-05 0)
(3.00806 -2.97173e-05 0)
(3.01274 -8.05432e-05 0)
(3.00861 0.00013922 0)
(2.99221 0.000638085 0)
(2.96264 0.00154742 0)
(2.93397 0.00236668 0)
(2.91154 0.00333414 0)
(2.89312 0.00429137 0)
(2.87932 0.00502367 0)
(2.87041 0.00520064 0)
(2.86086 0.00550579 0)
(2.85307 0.00637692 0)
(2.84474 0.00649477 0)
(2.83384 0.00956676 0)
(2.75195 0.0212615 0)
(2.51442 0.0487721 0)
(2.32388 0.113351 0)
(2.17463 0.184134 0)
(5 7.58043e-30 0)
(5 -4.00069e-16 0)
(5 9.66833e-16 0)
(4.98317 5.33901e-15 0)
(3.59758 -8.77792e-14 0)
(2.99807 -1.06087e-13 0)
(2.99891 -1.03096e-12 0)
(3.00386 1.58733e-12 0)
(3.01061 3.5251e-11 0)
(3.01285 -1.16409e-10 0)
(3.01218 5.18027e-10 0)
(3.00757 -3.45772e-09 0)
(2.99935 1.43163e-08 0)
(2.99482 -4.83658e-08 0)
(2.99356 1.78133e-07 0)
(2.9932 -3.65466e-07 0)
(2.99317 1.23442e-07 0)
(2.99322 -2.19875e-07 0)
(2.99361 6.96875e-07 0)
(2.9948 7.53721e-06 0)
(2.99732 8.05289e-06 0)
(3.00161 -3.7745e-05 0)
(3.008 -5.07659e-05 0)
(3.01283 -0.000132287 0)
(3.00897 0.000259217 0)
(2.99323 0.00103912 0)
(2.96422 0.002605 0)
(2.93531 0.00391198 0)
(2.91256 0.00551316 0)
(2.89412 0.00709695 0)
(2.88045 0.00831253 0)
(2.8716 0.00863796 0)
(2.86201 0.00916794 0)
(2.85402 0.0105712 0)
(2.84634 0.0110551 0)
(2.8372 0.0149257 0)
(2.77787 0.0313402 0)
(2.5773 0.0757754 0)
(2.39311 0.152976 0)
(2.28755 0.238368 0)
(5 -3.33391e-16 0)
(5 -3.33391e-16 0)
(5 2.66713e-16 0)
(4.98317 5.23952e-15 0)
(3.59758 -1.13253e-13 0)
(2.99807 -1.25939e-13 0)
(2.99891 -1.09785e-12 0)
(3.00386 2.81507e-13 0)
(3.01061 5.05309e-11 0)
(3.01285 -1.57394e-10 0)
(3.01218 6.82581e-10 0)
(3.00757 -4.4598e-09 0)
(2.99935 1.83137e-08 0)
(2.99482 -6.21409e-08 0)
(2.99356 2.26761e-07 0)
(2.9932 -4.45082e-07 0)
(2.99317 1.09701e-07 0)
(2.99322 -2.71081e-07 0)
(2.99361 9.05667e-07 0)
(2.99481 9.62945e-06 0)
(2.9973 1.16937e-05 0)
(3.00155 -4.86144e-05 0)
(3.00792 -5.98462e-05 0)
(3.01296 -0.000209447 0)
(3.00948 0.000341564 0)
(2.99469 0.00129632 0)
(2.96645 0.0035546 0)
(2.9371 0.00538666 0)
(2.91378 0.00755545 0)
(2.89526 0.00977778 0)
(2.88171 0.0115105 0)
(2.87297 0.0119742 0)
(2.8634 0.0127349 0)
(2.85518 0.0146062 0)
(2.84791 0.0157304 0)
(2.84108 0.0182938 0)
(2.806 0.035035 0)
(2.65644 0.0844191 0)
(2.47669 0.168731 0)
(2.38159 0.258273 0)
(5 1.33356e-16 0)
(5 7.3346e-16 0)
(5 7.00121e-16 0)
(4.98317 7.79296e-15 0)
(3.59758 -9.5755e-14 0)
(2.99807 -1.24473e-13 0)
(2.99891 -9.54772e-13 0)
(3.00386 -2.08665e-12 0)
(3.01061 6.23351e-11 0)
(3.01285 -1.78989e-10 0)
(3.01218 8.16608e-10 0)
(3.00757 -5.33872e-09 0)
(2.99935 2.13114e-08 0)
(2.99482 -7.22672e-08 0)
(2.99356 2.57246e-07 0)
(2.9932 -4.68047e-07 0)
(2.99317 4.79933e-08 0)
(2.99322 -3.42749e-07 0)
(2.99361 9.19782e-07 0)
(2.99481 1.0895e-05 0)
(2.99729 1.72748e-05 0)
(3.00149 -5.48574e-05 0)
(3.00781 -5.17799e-05 0)
(3.01308 -0.000325344 0)
(3.01011 0.000365066 0)
(2.99655 0.00141497 0)
(2.96939 0.00439179 0)
(2.93948 0.00677722 0)
(2.91537 0.00938133 0)
(2.8967 0.0123081 0)
(2.88325 0.0145851 0)
(2.87466 0.0151677 0)
(2.86515 0.0161651 0)
(2.85672 0.0184764 0)
(2.84972 0.020288 0)
(2.84352 0.0224295 0)
(2.82768 0.0344581 0)
(2.73291 0.0759828 0)
(2.57244 0.160926 0)
(2.46647 0.252093 0)
(5 -3.00052e-16 0)
(5 -1.00017e-16 0)
(5 -1.00017e-16 0)
(4.98317 6.00224e-15 0)
(3.59758 -7.42023e-14 0)
(2.99807 -1.12328e-13 0)
(2.99891 -6.40553e-13 0)
(3.00386 -5.30039e-12 0)
(3.01061 7.02302e-11 0)
(3.01285 -1.83568e-10 0)
(3.01218 9.27822e-10 0)
(3.00757 -6.08666e-09 0)
(2.99935 2.32189e-08 0)
(2.99482 -7.78605e-08 0)
(2.99356 2.66072e-07 0)
(2.9932 -4.34039e-07 0)
(2.99317 -4.76812e-08 0)
(2.99322 -3.84994e-07 0)
(2.99362 7.10477e-07 0)
(2.99482 1.11176e-05 0)
(2.99727 2.34244e-05 0)
(3.00141 -5.73552e-05 0)
(3.00764 -2.76243e-05 0)
(3.01319 -0.000457126 0)
(3.0108 0.000295961 0)
(2.99876 0.00141884 0)
(2.97301 0.00508717 0)
(2.94253 0.00796638 0)
(2.91736 0.0109938 0)
(2.89855 0.0146391 0)
(2.88514 0.017506 0)
(2.87668 0.0182185 0)
(2.86727 0.0194361 0)
(2.85876 0.0221444 0)
(2.85183 0.0246642 0)
(2.84621 0.0268805 0)
(2.84113 0.0337466 0)
(2.7921 0.0616587 0)
(2.66945 0.133765 0)
(2.55855 0.228782 0)
(5 3.00052e-16 0)
(5 -6.33443e-16 0)
(5 -1.00017e-15 0)
(4.98317 4.311e-15 0)
(3.59758 -3.60258e-14 0)
(2.99807 -7.94475e-14 0)
(2.99891 -1.40936e-13 0)
(3.00386 -8.48285e-12 0)
(3.01061 7.37964e-11 0)
(3.01285 -1.77552e-10 0)
(3.01218 1.03182e-09 0)
(3.00757 -6.66485e-09 0)
(2.99935 2.41106e-08 0)
(2.99482 -7.88263e-08 0)
(2.99356 2.54034e-07 0)
(2.9932 -3.50572e-07 0)
(2.99317 -1.46605e-07 0)
(2.99322 -4.19966e-07 0)
(2.99362 2.79416e-07 0)
(2.99483 1.03432e-05 0)
(2.99725 2.80622e-05 0)
(3.00134 -5.27447e-05 0)
(3.00743 -2.8735e-06 0)
(3.01323 -0.000599101 0)
(3.01151 0.000194522 0)
(3.00122 0.00132624 0)
(2.97731 0.00543945 0)
(2.94616 0.00896856 0)
(2.9199 0.0123957 0)
(2.90074 0.0167222 0)
(2.88734 0.020252 0)
(2.87903 0.0211066 0)
(2.86978 0.0225114 0)
(2.86134 0.025532 0)
(2.85428 0.0287393 0)
(2.84932 0.0310698 0)
(2.8487 0.0352426 0)
(2.82765 0.050069 0)
(2.75362 0.098656 0)
(2.65615 0.186922 0)
(5 6.66782e-17 0)
(5 -2.00035e-16 0)
(5 -1.16687e-15 0)
(4.98317 2.38763e-15 0)
(3.59758 -6.27314e-16 0)
(2.99807 -4.98192e-14 0)
(2.99891 3.1296e-13 0)
(3.00386 -1.09442e-11 0)
(3.01061 7.23752e-11 0)
(3.01285 -1.6248e-10 0)
(3.01218 1.08622e-09 0)
(3.00757 -6.83729e-09 0)
(2.99935 2.39378e-08 0)
(2.99482 -7.53923e-08 0)
(2.99356 2.23557e-07 0)
(2.9932 -2.4035e-07 0)
(2.99317 -2.34275e-07 0)
(2.99322 -3.53987e-07 0)
(2.99363 -2.74824e-07 0)
(2.99484 8.84364e-06 0)
(2.99725 3.12106e-05 0)
(3.00127 -3.60906e-05 0)
(3.00719 -4.13097e-06 0)
(3.01316 -0.000623222 0)
(3.01218 2.54021e-06 0)
(3.00378 0.00119572 0)
(2.982 0.00517489 0)
(2.95069 0.00980841 0)
(2.9231 0.0135619 0)
(2.90325 0.0184933 0)
(2.88985 0.0227787 0)
(2.88168 0.0237882 0)
(2.87262 0.0253583 0)
(2.86438 0.0286111 0)
(2.85721 0.0323183 0)
(2.85269 0.0351415 0)
(2.85273 0.0382443 0)
(2.84581 0.0460604 0)
(2.8107 0.0706506 0)
(2.74416 0.135205 0)
(5 2.66713e-16 0)
(5 4.00069e-16 0)
(5 -9.00155e-16 0)
(4.98317 -2.02285e-15 0)
(3.59758 3.81093e-14 0)
(2.99807 -2.31612e-14 0)
(2.99891 6.8817e-13 0)
(3.00386 -1.20592e-11 0)
(3.01061 6.55719e-11 0)
(3.01285 -1.41509e-10 0)
(3.01218 1.16018e-09 0)
(3.00757 -6.92268e-09 0)
(2.99935 2.27539e-08 0)
(2.99482 -6.75956e-08 0)
(2.99356 1.77246e-07 0)
(2.9932 -1.23591e-07 0)
(2.99316 -2.7944e-07 0)
(2.99322 -3.46586e-07 0)
(2.99363 -9.43862e-07 0)
(2.99485 6.70145e-06 0)
(2.99724 3.30268e-05 0)
(3.00122 -1.66892e-05 0)
(3.00696 6.19782e-06 0)
(3.01301 -0.000583081 0)
(3.01271 -0.000254064 0)
(3.00622 0.0010821 0)
(2.98683 0.00441246 0)
(2.95631 0.0102802 0)
(2.92708 0.0145722 0)
(2.90602 0.0200046 0)
(2.89259 0.0250807 0)
(2.88461 0.0262262 0)
(2.87579 0.027931 0)
(2.8678 0.0313611 0)
(2.86072 0.0353767 0)
(2.85617 0.0388653 0)
(2.85638 0.0419508 0)
(2.85418 0.0472783 0)
(2.83959 0.0567515 0)
(2.80701 0.0914144 0)
(5 2.00035e-16 0)
(5 3.6673e-16 0)
(5 1.33356e-16 0)
(4.98317 -1.82389e-15 0)
(3.59758 5.25376e-14 0)
(2.99807 3.64714e-15 0)
(2.99891 9.43219e-13 0)
(3.00386 -1.17288e-11 0)
(3.01061 5.61119e-11 0)
(3.01285 -1.21788e-10 0)
(3.01218 1.19444e-09 0)
(3.00757 -6.6806e-09 0)
(2.99935 2.06261e-08 0)
(2.99482 -5.62738e-08 0)
(2.99356 1.24857e-07 0)
(2.9932 -2.27274e-08 0)
(2.99316 -2.78488e-07 0)
(2.99322 -2.9037e-07 0)
(2.99363 -1.47651e-06 0)
(2.99487 4.35422e-06 0)
(2.99725 3.09438e-05 0)
(3.00119 3.56032e-06 0)
(3.00674 1.76444e-05 0)
(3.01277 -0.000500363 0)
(3.01299 -0.000525272 0)
(3.00838 0.000898527 0)
(2.99164 0.00332379 0)
(2.96289 0.0102475 0)
(2.932 0.0154498 0)
(2.90926 0.0212624 0)
(2.89553 0.0271614 0)
(2.88771 0.028442 0)
(2.87918 0.0302019 0)
(2.87148 0.0337642 0)
(2.86471 0.0379601 0)
(2.86007 0.041969 0)
(2.86018 0.0455901 0)
(2.85927 0.0500306 0)
(2.85235 0.0544661 0)
(2.83879 0.0683864 0)
(5 -6.66782e-17 0)
(5 6.66782e-17 0)
(5 1.26688e-15 0)
(4.98317 -1.65808e-16 0)
(3.59758 5.17758e-14 0)
(2.99807 1.38554e-14 0)
(2.99891 1.06376e-12 0)
(3.00386 -1.0458e-11 0)
(3.01061 4.66917e-11 0)
(3.01285 -1.09853e-10 0)
(3.01218 1.17371e-09 0)
(3.00757 -6.05093e-09 0)
(2.99935 1.75497e-08 0)
(2.99482 -4.29959e-08 0)
(2.99356 7.47284e-08 0)
(2.9932 4.64925e-08 0)
(2.99316 -2.37705e-07 0)
(2.99322 -1.73124e-07 0)
(2.99363 -1.76579e-06 0)
(2.99488 2.06569e-06 0)
(2.99726 2.55774e-05 0)
(3.00117 1.99246e-05 0)
(3.00656 2.99809e-05 0)
(3.01247 -0.000400733 0)
(3.01304 -0.000659651 0)
(3.01014 0.000536461 0)
(2.99631 0.00221604 0)
(2.96999 0.009365 0)
(2.93811 0.0158994 0)
(2.91319 0.0222358 0)
(2.89871 0.0289566 0)
(2.89093 0.030465 0)
(2.88266 0.0321834 0)
(2.87528 0.0358714 0)
(2.86896 0.0402665 0)
(2.86435 0.0445879 0)
(2.86436 0.0487383 0)
(2.86369 0.0530405 0)
(2.85853 0.0564476 0)
(2.85165 0.0633767 0)
(5 -1.00017e-16 0)
(5 -2.66713e-16 0)
(5 1.66695e-16 0)
(4.98317 1.65808e-15 0)
(3.59758 4.19628e-14 0)
(2.99807 2.647e-14 0)
(2.99891 1.02658e-12 0)
(3.00386 -8.51115e-12 0)
(3.01061 3.76376e-11 0)
(3.01285 -1.00207e-10 0)
(3.01218 1.0719e-09 0)
(3.00757 -5.11366e-09 0)
(2.99935 1.38768e-08 0)
(2.99482 -2.98099e-08 0)
(2.99356 3.39823e-08 0)
(2.9932 7.87973e-08 0)
(2.99316 -1.72698e-07 0)
(2.99322 -2.86147e-08 0)
(2.99364 -1.77928e-06 0)
(2.99488 8.04869e-08 0)
(2.99728 1.89589e-05 0)
(3.00118 2.53562e-05 0)
(3.00641 3.85464e-05 0)
(3.01216 -0.000284147 0)
(3.01289 -0.000729327 0)
(3.01141 1.30867e-05 0)
(3.00064 0.00135726 0)
(2.9772 0.00763265 0)
(2.94562 0.015616 0)
(2.91814 0.0224598 0)
(2.90219 0.03022 0)
(2.89425 0.0322314 0)
(2.88619 0.0339788 0)
(2.87919 0.0378117 0)
(2.87344 0.0424285 0)
(2.86897 0.0468208 0)
(2.86889 0.0512182 0)
(2.86824 0.0555996 0)
(2.86352 0.0590455 0)
(2.85779 0.0642844 0)
(5 -4.00069e-16 0)
(5 -7.3346e-16 0)
(5 -1.23355e-15 0)
(4.98317 -4.80842e-15 0)
(3.59758 2.57423e-14 0)
(2.99807 1.57165e-14 0)
(2.99891 9.02195e-13 0)
(3.00386 -6.50224e-12 0)
(3.01061 2.98397e-11 0)
(3.01285 -8.95897e-11 0)
(3.01218 8.96557e-10 0)
(3.00757 -4.01958e-09 0)
(2.99935 1.00452e-08 0)
(2.99482 -1.76844e-08 0)
(2.99356 5.27859e-09 0)
(2.9932 8.56192e-08 0)
(2.99316 -1.13667e-07 0)
(2.99321 1.23473e-07 0)
(2.99363 -1.65756e-06 0)
(2.99489 -1.33732e-06 0)
(2.99729 1.12897e-05 0)
(3.00119 2.92495e-05 0)
(3.00632 4.56202e-05 0)
(3.01187 -0.000172421 0)
(3.01263 -0.000698269 0)
(3.01198 -0.000502762 0)
(3.00447 0.00109329 0)
(2.98416 0.00518434 0)
(2.95434 0.0145722 0)
(2.92433 0.0222068 0)
(2.90599 0.0309759 0)
(2.89771 0.0336326 0)
(2.88998 0.035633 0)
(2.88343 0.0396743 0)
(2.87807 0.0444697 0)
(2.87364 0.0488144 0)
(2.8735 0.0531872 0)
(2.87306 0.0576588 0)
(2.86838 0.0613591 0)
(2.86292 0.0660345 0)
(5 -6.33443e-16 0)
(5 -1.3669e-15 0)
(5 -2.1337e-15 0)
(4.98317 -7.09657e-15 0)
(3.59758 9.83539e-15 0)
(2.99807 1.2201e-14 0)
(2.99891 7.00042e-13 0)
(3.00386 -4.56979e-12 0)
(3.01061 2.28931e-11 0)
(3.01285 -7.58286e-11 0)
(3.01218 7.02777e-10 0)
(3.00757 -2.90038e-09 0)
(2.99935 6.74593e-09 0)
(2.99482 -9.01526e-09 0)
(2.99356 -9.83433e-09 0)
(2.9932 7.55632e-08 0)
(2.99316 -7.9141e-08 0)
(2.99321 2.06568e-07 0)
(2.99363 -1.36637e-06 0)
(2.99489 -1.56659e-06 0)
(2.99731 4.49575e-06 0)
(3.00121 2.67598e-05 0)
(3.00628 4.58373e-05 0)
(3.01162 -6.02911e-05 0)
(3.01229 -0.000563933 0)
(3.01208 -0.000721934 0)
(3.00743 0.000674104 0)
(2.99032 0.00270981 0)
(2.96386 0.0127234 0)
(2.93221 0.0214426 0)
(2.91068 0.0311851 0)
(2.90146 0.0345706 0)
(2.89401 0.0370995 0)
(2.88794 0.0413798 0)
(2.88274 0.0462853 0)
(2.87817 0.0506246 0)
(2.87802 0.0548706 0)
(2.87804 0.0593673 0)
(2.8734 0.0631709 0)
(2.86793 0.0676326 0)
(5 -1.66695e-16 0)
(5 -6.66782e-16 0)
(5 -1.16687e-15 0)
(4.98317 -2.38763e-15 0)
(3.59758 2.08358e-15 0)
(2.99807 8.15906e-15 0)
(2.99891 4.767e-13 0)
(3.00386 -2.92754e-12 0)
(3.01061 1.62156e-11 0)
(3.01285 -5.78436e-11 0)
(3.01218 4.96036e-10 0)
(3.00757 -1.89452e-09 0)
(2.99935 4.09816e-09 0)
(2.99482 -3.88947e-09 0)
(2.99356 -1.28178e-08 0)
(2.9932 4.92919e-08 0)
(2.99316 -3.46049e-08 0)
(2.99321 2.17543e-07 0)
(2.99363 -9.01493e-07 0)
(2.99489 -1.43603e-06 0)
(2.99732 -8.0545e-07 0)
(3.00124 1.91324e-05 0)
(3.00627 3.80554e-05 0)
(3.01144 8.51464e-06 0)
(3.01193 -0.000383786 0)
(3.01188 -0.000765279 0)
(3.00912 -0.000125215 0)
(2.99563 0.00100112 0)
(2.97309 0.0096982 0)
(2.94153 0.0194251 0)
(2.91682 0.0305852 0)
(2.90578 0.0352913 0)
(2.89821 0.0384369 0)
(2.89252 0.0428127 0)
(2.88738 0.0477466 0)
(2.88262 0.052176 0)
(2.8825 0.056351 0)
(2.88303 0.0608813 0)
(2.87854 0.0646445 0)
(2.87302 0.0689407 0)
(5 -1.00017e-16 0)
(5 -2.66713e-16 0)
(5 -6.66781e-17 0)
(4.98317 3.84674e-15 0)
(3.59758 4.32399e-15 0)
(2.99807 7.04988e-15 0)
(2.99891 2.96881e-13 0)
(3.00386 -1.72273e-12 0)
(3.01061 1.06045e-11 0)
(3.01285 -3.89815e-11 0)
(3.01218 3.11965e-10 0)
(3.00757 -1.10776e-09 0)
(2.99935 2.17352e-09 0)
(2.99482 -1.13217e-09 0)
(2.99356 -9.81748e-09 0)
(2.9932 2.50819e-08 0)
(2.99316 -9.4716e-09 0)
(2.99321 1.77968e-07 0)
(2.99363 -4.53777e-07 0)
(2.99489 -1.24022e-06 0)
(2.99733 -2.76786e-06 0)
(3.00126 9.71735e-06 0)
(3.00629 2.88272e-05 0)
(3.01133 3.72657e-05 0)
(3.01159 -0.0001994 0)
(3.01146 -0.000711187 0)
(3.0096 -0.000509663 0)
(3.00046 0.000149814 0)
(2.98107 0.00576529 0)
(2.95232 0.016611 0)
(2.92477 0.0286762 0)
(2.91132 0.0354071 0)
(2.90264 0.0395949 0)
(2.89706 0.0439366 0)
(2.89202 0.0488043 0)
(2.88718 0.0533809 0)
(2.8871 0.0576257 0)
(2.88801 0.0622327 0)
(2.88368 0.0659162 0)
(2.87816 0.0700173 0)
(5 1.00017e-16 0)
(5 2.00035e-16 0)
(5 6.66781e-16 0)
(4.98317 4.7421e-15 0)
(3.59758 3.98793e-15 0)
(2.99807 1.03586e-14 0)
(2.99891 1.64529e-13 0)
(3.00386 -9.27382e-13 0)
(3.01061 6.35942e-12 0)
(3.01285 -2.3928e-11 0)
(3.01218 1.66078e-10 0)
(3.00757 -5.50344e-10 0)
(2.99935 9.29216e-10 0)
(2.99482 2.13216e-10 0)
(2.99356 -6.31393e-09 0)
(2.9932 1.00459e-08 0)
(2.99316 -2.72395e-09 0)
(2.99321 1.0676e-07 0)
(2.99363 -1.09876e-07 0)
(2.99489 -8.19106e-07 0)
(2.99733 -2.40969e-06 0)
(3.00127 2.01018e-06 0)
(3.00631 2.01333e-05 0)
(3.01129 5.07482e-05 0)
(3.01132 -5.38152e-05 0)
(3.01102 -0.000521045 0)
(3.00954 -0.000633024 0)
(3.00369 -0.00032738 0)
(2.98752 0.00220328 0)
(2.96343 0.0129425 0)
(2.93468 0.0255214 0)
(2.91876 0.034226 0)
(2.90751 0.0404266 0)
(2.90137 0.0450747 0)
(2.8965 0.0497237 0)
(2.8918 0.054286 0)
(2.89189 0.0586422 0)
(2.89303 0.0633518 0)
(2.88879 0.0670333 0)
(2.88325 0.0710156 0)
(5 1.66695e-16 0)
(5 9.33495e-16 0)
(5 1.10019e-15 0)
(4.98317 -3.58145e-15 0)
(3.59758 3.02455e-15 0)
(2.99807 6.57989e-15 0)
(2.99891 7.73337e-14 0)
(3.00386 -4.37791e-13 0)
(3.01061 3.20958e-12 0)
(3.01285 -1.18523e-11 0)
(3.01218 6.96914e-11 0)
(3.00757 -2.08301e-10 0)
(2.99935 2.53397e-10 0)
(2.99482 6.13353e-10 0)
(2.99356 -3.1849e-09 0)
(2.9932 3.56355e-09 0)
(2.99316 -4.53333e-09 0)
(2.99321 6.82112e-08 0)
(2.99363 3.86981e-08 0)
(2.99489 -2.75907e-07 0)
(2.99733 -2.24974e-06 0)
(3.00128 -1.57364e-06 0)
(3.00634 8.00256e-06 0)
(3.01128 4.43605e-05 0)
(3.01115 2.86775e-05 0)
(3.0106 -0.000295157 0)
(3.0092 -0.000693839 0)
(3.00497 -0.000617327 0)
(2.99259 -0.000226937 0)
(2.97346 0.00858539 0)
(2.94636 0.0212464 0)
(2.92845 0.0319539 0)
(2.9137 0.0398922 0)
(2.90584 0.0457016 0)
(2.90079 0.0505038 0)
(2.89637 0.0549757 0)
(2.89674 0.0594389 0)
(2.8981 0.0642032 0)
(2.89392 0.0679702 0)
(2.88833 0.0719447 0)
(5 6.66782e-16 0)
(5 1.43358e-15 0)
(5 1.50026e-15 0)
(4.98317 9.61685e-16 0)
(3.59758 6.83324e-15 0)
(2.99807 8.83585e-15 0)
(2.99891 3.25339e-14 0)
(3.00386 -1.64129e-13 0)
(3.01061 1.20711e-12 0)
(3.01285 -4.06952e-12 0)
(3.01218 1.97281e-11 0)
(3.00757 -4.6473e-11 0)
(2.99935 -1.43754e-11 0)
(2.99482 4.30418e-10 0)
(2.99356 -1.03314e-09 0)
(2.9932 5.83596e-10 0)
(2.99316 -3.85205e-09 0)
(2.99321 2.79882e-08 0)
(2.99363 5.46592e-08 0)
(2.99489 8.39207e-08 0)
(2.99733 -1.57754e-06 0)
(3.00128 -1.76412e-06 0)
(3.00637 -1.26783e-06 0)
(3.01131 3.65444e-05 0)
(3.01107 5.40338e-05 0)
(3.01028 -9.58411e-05 0)
(3.00873 -0.000604913 0)
(3.00505 -0.000476985 0)
(2.99627 -0.00128971 0)
(2.98112 0.00423559 0)
(2.95922 0.0159266 0)
(2.93955 0.0280716 0)
(2.92198 0.0379398 0)
(2.91133 0.0453464 0)
(2.90518 0.0509989 0)
(2.90081 0.0555546 0)
(2.90143 0.0601255 0)
(2.90317 0.0648711 0)
(2.89915 0.0686995 0)
(2.89352 0.0727156 0)
(5 1.00017e-16 0)
(5 5.66765e-16 0)
(5 3.33391e-16 0)
(4.98317 3.34932e-15 0)
(3.59758 8.44634e-15 0)
(2.99807 9.04265e-15 0)
(2.99891 1.31488e-14 0)
(3.00386 -2.06452e-14 0)
(3.01061 2.04827e-13 0)
(3.01285 -3.7827e-13 0)
(3.01218 -5.66307e-13 0)
(3.00757 1.23072e-11 0)
(2.99935 -7.68424e-11 0)
(2.99482 1.83917e-10 0)
(2.99356 -3.22146e-12 0)
(2.9932 -5.29331e-10 0)
(2.99316 -1.06902e-09 0)
(2.99321 3.67129e-10 0)
(2.99363 5.46328e-08 0)
(2.99489 1.40664e-07 0)
(2.99733 -7.42858e-07 0)
(3.00128 -1.48219e-06 0)
(3.00638 -4.62026e-06 0)
(3.01134 2.07202e-05 0)
(3.01104 4.834e-05 0)
(3.01011 2.64195e-05 0)
(3.00828 -0.000370182 0)
(3.00471 -0.000547205 0)
(2.99815 -0.00122125 0)
(2.98603 0.000813518 0)
(2.97129 0.0103636 0)
(2.95211 0.0222155 0)
(2.93267 0.0342549 0)
(2.91823 0.0439293 0)
(2.91023 0.0508609 0)
(2.90528 0.0560088 0)
(2.90595 0.060672 0)
(2.90819 0.0654515 0)
(2.90442 0.0692291 0)
(2.89881 0.073211 0)
(5 -3.00052e-16 0)
(5 -1.20021e-15 0)
(5 -1.50026e-15 0)
(4.98317 -2.98454e-15 0)
(3.59758 1.04851e-14 0)
(2.99807 8.89225e-15 0)
(2.99891 7.00643e-15 0)
(3.00386 3.20751e-14 0)
(3.01061 -1.42629e-13 0)
(3.01285 6.37331e-13 0)
(3.01218 -5.12333e-12 0)
(3.00757 2.22856e-11 0)
(2.99935 -6.50843e-11 0)
(2.99482 8.22813e-11 0)
(2.99356 1.37861e-10 0)
(2.9932 -3.42505e-10 0)
(2.99316 -7.88095e-10 0)
(2.99321 -6.85612e-09 0)
(2.99363 3.43121e-08 0)
(2.99489 1.06257e-07 0)
(2.99733 -1.78686e-08 0)
(3.00128 -1.31134e-06 0)
(3.00638 -3.11426e-06 0)
(3.01136 4.52549e-06 0)
(3.01105 4.01523e-05 0)
(3.01007 5.2992e-05 0)
(3.00791 -0.000141089 0)
(3.0042 -0.000450603 0)
(2.99871 -0.000818171 0)
(2.98891 -0.00091199 0)
(2.98057 0.00543793 0)
(2.96529 0.0153691 0)
(2.94591 0.0285788 0)
(2.92721 0.040681 0)
(2.91641 0.0494645 0)
(2.91014 0.0559567 0)
(2.91043 0.0611882 0)
(2.91309 0.0662968 0)
(2.90951 0.0698271 0)
(2.90398 0.0735528 0)
(5 -1.33356e-16 0)
(5 -7.3346e-16 0)
(5 -1.3669e-15 0)
(4.98317 -2.35447e-15 0)
(3.59758 7.86383e-15 0)
(2.99807 8.57266e-15 0)
(2.99891 6.06723e-15 0)
(3.00386 3.56223e-14 0)
(3.01061 -1.743e-13 0)
(3.01285 6.46285e-13 0)
(3.01218 -4.7249e-12 0)
(3.00757 1.88383e-11 0)
(2.99935 -4.32638e-11 0)
(2.99482 4.0305e-11 0)
(2.99356 7.43701e-11 0)
(2.9932 -4.4005e-11 0)
(2.99316 -3.0882e-10 0)
(2.99321 -4.63307e-09 0)
(2.99363 1.12189e-08 0)
(2.99489 6.33487e-08 0)
(2.99733 1.53607e-07 0)
(3.00128 -7.60838e-07 0)
(3.00638 -9.3549e-07 0)
(3.01137 -3.33383e-06 0)
(3.01108 2.36074e-05 0)
(3.01007 4.09078e-05 0)
(3.00771 5.99859e-06 0)
(3.00375 -0.000253516 0)
(2.99845 -0.000462001 0)
(2.99028 -0.0012805 0)
(2.98631 0.00171468 0)
(2.97701 0.00866712 0)
(2.95984 0.0212628 0)
(2.93941 0.0347844 0)
(2.92462 0.0462913 0)
(2.91601 0.0547984 0)
(2.91535 0.0613398 0)
(2.91793 0.0671674 0)
(2.91429 0.0705662 0)
(2.90883 0.073958 0)
(5 -5.66765e-16 0)
(5 -6.66782e-16 0)
(5 -6.66781e-17 0)
(4.98317 -5.63746e-16 0)
(3.59758 5.30977e-15 0)
(2.99807 7.18148e-15 0)
(2.99891 5.42857e-15 0)
(3.00386 2.72704e-14 0)
(3.01061 -1.34534e-13 0)
(3.01285 4.77586e-13 0)
(3.01218 -3.24124e-12 0)
(3.00757 1.22372e-11 0)
(2.99935 -2.65185e-11 0)
(2.99482 2.90785e-11 0)
(2.99356 -1.75447e-11 0)
(2.9932 1.02137e-10 0)
(2.99316 -8.40273e-12 0)
(2.99321 -2.60332e-09 0)
(2.99363 -6.24255e-10 0)
(2.99489 1.72216e-08 0)
(2.99733 1.36307e-07 0)
(3.00128 -2.01449e-07 0)
(3.00638 -2.4334e-07 0)
(3.01138 -4.1689e-06 0)
(3.01109 7.50388e-06 0)
(3.01009 3.14052e-05 0)
(3.00765 3.46586e-05 0)
(3.00343 -5.39901e-05 0)
(2.99799 -0.00027691 0)
(2.99061 -0.000918979 0)
(2.989 -0.000172109 0)
(2.98533 0.00344747 0)
(2.97292 0.0132893 0)
(2.954 0.026543 0)
(2.93605 0.0404767 0)
(2.92407 0.051979 0)
(2.92151 0.0606118 0)
(2.92296 0.0675581 0)
(2.91899 0.0714301 0)
(2.91339 0.0746428 0)
(5 -1.33356e-16 0)
(5 -6.33443e-16 0)
(5 -5.33425e-16 0)
(4.98317 -1.98969e-16 0)
(3.59758 7.32613e-15 0)
(2.99807 7.29428e-15 0)
(2.99891 6.29264e-15 0)
(3.00386 1.74358e-14 0)
(3.01061 -7.70022e-14 0)
(3.01285 2.79966e-13 0)
(3.01218 -1.88591e-12 0)
(3.00757 6.84734e-12 0)
(2.99935 -1.48419e-11 0)
(2.99482 2.48238e-11 0)
(2.99356 -6.02784e-11 0)
(2.9932 1.73722e-10 0)
(2.99316 -1.15235e-10 0)
(2.99321 -5.82317e-10 0)
(2.99363 -2.16069e-09 0)
(2.99489 -4.3754e-09 0)
(2.99733 9.31476e-08 0)
(3.00128 -5.98205e-08 0)
(3.00638 4.13104e-07 0)
(3.01138 -2.8282e-06 0)
(3.0111 8.01952e-08 0)
(3.01012 1.32685e-05 0)
(3.00766 3.33682e-05 0)
(3.00329 3.60152e-05 0)
(2.99761 -7.75065e-05 0)
(2.99035 -0.000608455 0)
(2.98996 -0.000724377 0)
(2.98965 0.000481463 0)
(2.98328 0.00614642 0)
(2.96857 0.017211 0)
(2.9505 0.0319119 0)
(2.93501 0.0463468 0)
(2.92936 0.0578114 0)
(2.92888 0.066648 0)
(2.92407 0.0719758 0)
(2.91793 0.0757138 0)
(5 8.00138e-16 0)
(5 9.66834e-16 0)
(5 3.00052e-16 0)
(4.98317 -2.88505e-15 0)
(3.59758 1.0866e-14 0)
(2.99807 8.23426e-15 0)
(2.99891 8.60307e-15 0)
(3.00386 1.22745e-14 0)
(3.01061 -2.8822e-14 0)
(3.01285 1.19678e-13 0)
(3.01218 -8.24896e-13 0)
(3.00757 3.21708e-12 0)
(2.99935 -7.2725e-12 0)
(2.99482 1.68335e-11 0)
(2.99356 -5.42482e-11 0)
(2.9932 1.44103e-10 0)
(2.99316 -1.51589e-10 0)
(2.99321 3.6604e-10 0)
(2.99363 -2.03844e-09 0)
(2.99489 -5.95758e-09 0)
(2.99733 4.21848e-08 0)
(3.00128 -4.24193e-08 0)
(3.00638 4.96521e-07 0)
(3.01137 -1.72568e-06 0)
(3.01111 -5.22989e-07 0)
(3.01013 -7.45888e-07 0)
(3.00768 2.86768e-05 0)
(3.00326 2.62162e-05 0)
(2.99736 5.56108e-05 0)
(2.99005 -0.000324786 0)
(2.99008 -0.000653228 0)
(2.99079 -0.000559099 0)
(2.98935 0.00136761 0)
(2.98134 0.00852152 0)
(2.96569 0.0214923 0)
(2.94973 0.0371725 0)
(2.93992 0.0522344 0)
(2.9363 0.0636835 0)
(2.93021 0.0711072 0)
(2.92296 0.0765309 0)
(5 2.00035e-16 0)
(5 8.00138e-16 0)
(5 1.50026e-15 0)
(4.98317 2.02285e-15 0)
(3.59758 1.03955e-14 0)
(2.99807 1.09226e-14 0)
(2.99891 1.18339e-14 0)
(3.00386 1.34006e-14 0)
(3.01061 -2.00517e-15 0)
(3.01285 3.76509e-14 0)
(3.01218 -2.50963e-13 0)
(3.00757 1.13766e-12 0)
(2.99935 -2.95723e-12 0)
(2.99482 9.26119e-12 0)
(2.99356 -3.21373e-11 0)
(2.9932 8.42109e-11 0)
(2.99316 -1.04101e-10 0)
(2.99321 3.66683e-10 0)
(2.99363 -1.10904e-09 0)
(2.99489 -4.01809e-09 0)
(2.99733 1.12578e-08 0)
(3.00128 -1.91232e-08 0)
(3.00638 2.88354e-07 0)
(3.01137 -5.77531e-07 0)
(3.01111 -3.64092e-07 0)
(3.01013 -3.93461e-06 0)
(3.0077 1.33521e-05 0)
(3.00327 2.33928e-05 0)
(2.99727 6.65372e-05 0)
(2.9898 -7.07096e-05 0)
(2.98986 -0.000470302 0)
(2.99079 -0.000525501 0)
(2.99143 -0.000486865 0)
(2.98963 0.00225548 0)
(2.97931 0.0110359 0)
(2.9661 0.0253554 0)
(2.95427 0.0427965 0)
(2.9463 0.0577766 0)
(2.93803 0.0678971 0)
(2.9294 0.0759171 0)
(5 -2.00035e-16 0)
(5 -6.66782e-17 0)
(5 5.66764e-16 0)
(4.98317 5.37217e-15 0)
(3.59758 1.14261e-14 0)
(2.99807 1.29718e-14 0)
(2.99891 1.35996e-14 0)
(3.00386 1.28939e-14 0)
(3.01061 8.28303e-15 0)
(3.01285 1.07708e-14 0)
(3.01218 -4.2102e-14 0)
(3.00757 2.78273e-13 0)
(2.99935 -9.33034e-13 0)
(2.99482 3.53648e-12 0)
(2.99356 -1.26687e-11 0)
(2.9932 3.40195e-11 0)
(2.99316 -5.65037e-11 0)
(2.99321 1.94995e-10 0)
(2.99363 -2.65988e-10 0)
(2.99489 -1.93291e-09 0)
(2.99733 3.33757e-09 0)
(3.00128 -1.63494e-08 0)
(3.00638 1.16283e-07 0)
(3.01137 -8.49201e-08 0)
(3.01111 1.02986e-08 0)
(3.01013 -2.81366e-06 0)
(3.00771 3.10631e-06 0)
(3.0033 8.8742e-06 0)
(2.99726 2.87565e-05 0)
(2.98965 3.71476e-05 0)
(2.98963 -0.000214225 0)
(2.99059 -0.000425711 0)
(2.99162 -0.000507679 0)
(2.99267 -0.000343199 0)
(2.98952 0.00308057 0)
(2.9803 0.0133777 0)
(2.97113 0.0296666 0)
(2.96056 0.0476097 0)
(2.9483 0.0611018 0)
(2.93794 0.0723484 0)
(5 -1.33356e-16 0)
(5 1.00017e-16 0)
(5 -3.00052e-16 0)
(4.98317 4.34416e-15 0)
(3.59758 1.01939e-14 0)
(2.99807 1.16182e-14 0)
(2.99891 1.31676e-14 0)
(3.00386 1.21056e-14 0)
(3.01061 9.98837e-15 0)
(3.01285 7.71751e-15 0)
(3.01218 2.81055e-15 0)
(3.00757 4.0048e-14 0)
(2.99935 -1.73758e-13 0)
(2.99482 8.10141e-13 0)
(2.99356 -2.88428e-12 0)
(2.9932 9.99465e-12 0)
(2.99316 -2.17421e-11 0)
(2.99321 7.73604e-11 0)
(2.99363 -1.50248e-11 0)
(2.99489 -3.07762e-10 0)
(2.99733 3.85038e-10 0)
(3.00128 -8.90844e-09 0)
(3.00638 3.13528e-08 0)
(3.01137 4.15198e-09 0)
(3.01111 1.34729e-07 0)
(3.01013 -1.67208e-06 0)
(3.00771 4.6233e-07 0)
(3.00331 -1.27509e-06 0)
(2.99728 1.25169e-05 0)
(2.98959 2.90888e-05 0)
(2.98949 -3.03632e-05 0)
(2.99035 -0.000208317 0)
(2.99147 -0.000445557 0)
(2.99308 -0.000421373 0)
(2.99403 -0.000357736 0)
(2.9901 0.00419889 0)
(2.98685 0.015521 0)
(2.97819 0.0334491 0)
(2.96254 0.0497559 0)
(2.94942 0.06441 0)
(5 8.33477e-16 0)
(5 1.16687e-15 0)
(5 1.03351e-15 0)
(4.98317 2.95138e-15 0)
(3.59758 7.707e-15 0)
(2.99807 7.82067e-15 0)
(2.99891 1.13831e-14 0)
(3.00386 9.72201e-15 0)
(3.01061 8.60161e-15 0)
(3.01285 8.61663e-15 0)
(3.01218 6.59542e-15 0)
(3.00757 7.14674e-15 0)
(2.99935 6.20094e-15 0)
(2.99482 5.62298e-14 0)
(2.99356 -2.60385e-13 0)
(2.9932 1.7588e-12 0)
(2.99316 -5.61166e-12 0)
(2.99321 1.09989e-11 0)
(2.99363 1.64702e-12 0)
(2.99489 1.09882e-10 0)
(2.99733 -5.47512e-10 0)
(3.00128 -1.19946e-09 0)
(3.00638 -5.07033e-09 0)
(3.01137 1.86713e-08 0)
(3.01111 8.282e-08 0)
(3.01013 -4.2807e-07 0)
(3.00771 -6.34568e-08 0)
(3.00332 -1.73875e-06 0)
(2.99729 1.5058e-06 0)
(2.98959 1.64977e-05 0)
(2.98944 1.21427e-05 0)
(2.9902 -4.00087e-05 0)
(2.99124 -0.000229164 0)
(2.99293 -0.000424827 0)
(2.99489 -0.000372303 0)
(2.99526 -0.000435579 0)
(2.99706 0.00479919 0)
(2.99457 0.0182301 0)
(2.98002 0.0341317 0)
(2.96415 0.0510535 0)
(5 1.00017e-16 0)
(5 3.00052e-16 0)
(5 5.00086e-16 0)
(4.98317 -3.28299e-15 0)
(3.59758 8.04306e-15 0)
(2.99807 8.79825e-15 0)
(2.99891 1.18715e-14 0)
(3.00386 9.10265e-15 0)
(3.01061 8.33925e-15 0)
(3.01285 8.52297e-15 0)
(3.01218 7.15753e-15 0)
(3.00757 4.87704e-15 0)
(2.99935 1.55775e-14 0)
(2.99482 -1.98967e-14 0)
(2.99356 8.02934e-14 0)
(2.9932 -4.14754e-14 0)
(2.99316 -3.53642e-13 0)
(2.99321 1.96787e-14 0)
(2.99363 1.6887e-12 0)
(2.99489 1.17069e-10 0)
(2.99733 -4.98878e-10 0)
(3.00128 1.143e-09 0)
(3.00638 -8.13135e-09 0)
(3.01137 1.72713e-08 0)
(3.01111 1.50826e-08 0)
(3.01013 4.42533e-08 0)
(3.00771 -2.05437e-07 0)
(3.00332 -8.61607e-07 0)
(2.9973 -2.01748e-06 0)
(2.9896 7.70026e-06 0)
(2.98943 1.24802e-05 0)
(2.99015 8.65433e-06 0)
(2.99108 -5.29552e-05 0)
(2.99272 -0.000228609 0)
(2.99471 -0.000345228 0)
(2.99679 -0.000579384 0)
(3.00117 -0.000186339 0)
(3.00515 0.00614905 0)
(2.99705 0.0176422 0)
(2.98199 0.0332458 0)
(5 -6.00104e-16 0)
(5 -1.03351e-15 0)
(5 -1.10019e-15 0)
(4.98317 -3.94622e-15 0)
(3.59758 9.99222e-15 0)
(2.99807 1.10354e-14 0)
(2.99891 1.17588e-14 0)
(3.00386 1.01161e-14 0)
(3.01061 8.15186e-15 0)
(3.01285 7.84863e-15 0)
(3.01218 6.20194e-15 0)
(3.00757 5.17716e-15 0)
(2.99935 1.02597e-14 0)
(2.99482 -1.40104e-14 0)
(2.99356 6.78422e-14 0)
(2.9932 -1.55237e-13 0)
(2.99316 2.39423e-13 0)
(2.99321 -3.36702e-13 0)
(2.99363 -9.66399e-13 0)
(2.99489 7.01702e-11 0)
(2.99733 -2.88917e-10 0)
(3.00128 1.14892e-09 0)
(3.00638 -4.88388e-09 0)
(3.01137 9.538e-09 0)
(3.01111 -1.03411e-08 0)
(3.01013 6.80361e-08 0)
(3.00771 -1.36939e-07 0)
(3.00332 -2.23723e-07 0)
(2.9973 -1.08152e-06 0)
(2.9896 9.39473e-07 0)
(2.98944 7.71449e-06 0)
(2.99015 7.61464e-06 0)
(2.99102 4.45252e-06 0)
(2.99258 -5.72762e-05 0)
(2.99452 -0.000188175 0)
(2.99687 -0.000306697 0)
(3.00228 -0.000522692 0)
(3.00948 0.000652279 0)
(3.00782 0.00555429 0)
(2.99838 0.0154353 0)
(5 -6.66782e-16 0)
(5 -1.40024e-15 0)
(5 -1.33356e-15 0)
(4.98317 1.62492e-15 0)
(3.59758 7.48296e-15 0)
(2.99807 8.59146e-15 0)
(2.99891 9.56105e-15 0)
(3.00386 9.72201e-15 0)
(3.01061 6.98998e-15 0)
(3.01285 6.06911e-15 0)
(3.01218 5.92089e-15 0)
(3.00757 6.9404e-15 0)
(2.99935 8.04243e-15 0)
(2.99482 -6.3188e-15 0)