/*--------------------------------*- C++ -*----------------------------------*\
| =========                 |                                                 |
| \\      /  F ield         | OpenFOAM: The Open Source CFD Toolbox           |
|  \\    /   O peration     | Version:  v1912                                 |
|   \\  /    A nd           | Website:  www.openfoam.com                      |
|    \\/     M anipulation  |                                                 |
\*---------------------------------------------------------------------------*/
FoamFile
{
    version     2.0;
    format      ascii;
    class       volTensorField;
    location    "3.34";
    object      grad(U);
}
// * * * * * * * * * * * * * * * * * * * * * * * * * * * * * * * * * * * * * //

dimensions      [0 0 -1 0 0 0 0];


internalField   nonuniform List<tensor> 
1900
(
(-3.22413 -2.55157e-05 0 -2.54317e-05 -2.36567e-05 0 0 0 0)
(2.32714 -3.483e-05 0 -6.49403e-05 -3.66075e-05 0 0 0 0)
(-0.058498 8.40455e-06 0 -0.000126623 -0.000119331 0 0 0 0)
(-0.0443771 0.000702331 0 -0.000176519 5.43163e-06 0 0 0 0)
(-0.0410953 0.00202264 0 0.000242738 0.00121026 0 0 0 0)
(-0.0334056 0.00204049 0 0.00206084 0.00397289 0 0 0 0)
(-0.0233217 -0.00430131 0 0.00585655 0.0058363 0 0 0 0)
(0.000988984 -0.0316053 0 0.00946981 -0.00296431 0 0 0 0)
(0.0946044 -0.0904194 0 0.00699603 -0.0464177 0 0 0 0)
(0.100402 -0.249224 0 -0.0602567 -0.162338 0 0 0 0)
(-3.22422 -3.47485e-05 0 -3.25582e-05 1.10002e-05 0 0 0 0)
(2.32704 -6.08447e-05 0 -9.0965e-05 1.45155e-05 0 0 0 0)
(-0.0586096 3.36346e-05 0 -0.000172522 4.58302e-05 0 0 0 0)
(-0.0440077 0.000627259 0 -0.000108764 6.1109e-06 0 0 0 0)
(-0.0388579 0.00194482 0 0.000711805 -0.000656501 0 0 0 0)
(-0.0277918 0.00258555 0 0.00346162 -0.00201653 0 0 0 0)
(-0.0159127 -0.00263589 0 0.00853587 -0.00269699 0 0 0 0)
(0.00212846 -0.0206488 0 0.0134802 0.00228478 0 0 0 0)
(0.0248779 -0.0689543 0 0.00312084 0.0289083 0 0 0 0)
(-0.058634 -0.162117 0 -0.102443 0.0927042 0 0 0 0)
(-3.22426 -5.85636e-13 0 -9.21572e-14 2.5313e-05 0 0 0 0)
(2.327 1.59213e-13 0 -7.27771e-14 4.41841e-05 0 0 0 0)
(-0.0585158 1.60088e-13 0 9.86624e-14 0.000147002 0 0 0 0)
(-0.0434928 1.3747e-13 0 4.39102e-14 -2.30851e-05 0 0 0 0)
(-0.0375249 3.63396e-14 0 2.04643e-14 -0.00110752 0 0 0 0)
(-0.0255815 -4.88366e-14 0 3.36103e-14 -0.00391273 0 0 0 0)
(-0.0133031 6.42498e-14 0 -1.24006e-13 -0.00627861 0 0 0 0)
(-0.00442604 -6.25208e-14 0 -1.18314e-13 0.00135906 0 0 0 0)
(-0.0213187 -1.00854e-13 0 1.55854e-13 0.035019 0 0 0 0)
(-0.118849 8.33706e-14 0 -2.52077e-14 0.139268 0 0 0 0)
(-3.22422 3.47485e-05 0 3.25582e-05 1.10002e-05 0 0 0 0)
(2.32704 6.08447e-05 0 9.0965e-05 1.45155e-05 0 0 0 0)
(-0.0586096 -3.36346e-05 0 0.000172522 4.58302e-05 0 0 0 0)
(-0.0440077 -0.000627259 0 0.000108764 6.1109e-06 0 0 0 0)
(-0.0388579 -0.00194482 0 -0.000711805 -0.000656501 0 0 0 0)
(-0.0277918 -0.00258555 0 -0.00346162 -0.00201653 0 0 0 0)
(-0.0159127 0.00263589 0 -0.00853587 -0.00269699 0 0 0 0)
(0.00212846 0.0206488 0 -0.0134802 0.00228478 0 0 0 0)
(0.0248779 0.0689543 0 -0.00312084 0.0289083 0 0 0 0)
(-0.058634 0.162117 0 0.102443 0.0927042 0 0 0 0)
(-3.22413 2.55157e-05 0 2.54317e-05 -2.36567e-05 0 0 0 0)
(2.32714 3.483e-05 0 6.49403e-05 -3.66075e-05 0 0 0 0)
(-0.058498 -8.40455e-06 0 0.000126623 -0.000119331 0 0 0 0)
(-0.0443771 -0.000702331 0 0.000176519 5.43163e-06 0 0 0 0)
(-0.0410953 -0.00202264 0 -0.000242738 0.00121026 0 0 0 0)
(-0.0334056 -0.00204049 0 -0.00206084 0.00397289 0 0 0 0)
(-0.0233217 0.00430131 0 -0.00585655 0.0058363 0 0 0 0)
(0.000988984 0.0316053 0 -0.00946981 -0.00296431 0 0 0 0)
(0.0946044 0.0904194 0 -0.00699603 -0.0464177 0 0 0 0)
(0.100402 0.249224 0 0.0602567 -0.162338 0 0 0 0)
(-0.064307 -0.380074 1.05065e-17 -0.202584 0.177174 -1.57598e-17 -6.40584e-17 -7.09157e-17 2.8478e-33)
(-0.185374 -0.391462 0 -0.27276 0.272394 0 1.49319e-16 5.85061e-17 0)
(-0.232157 -0.442783 0 -0.418132 0.256237 0 2.24245e-16 1.0116e-16 0)
(-1.14293 -0.236164 0 -1.03871 0.429573 0 0 0 0)
(0.181271 -1.76397 -4.38599e-16 -3.62391 3.75756 6.57898e-16 1.71196e-15 1.14131e-15 1.18882e-31)
(-0.197847 -0.235374 0 -0.209135 0.260254 0 -1.00665e-16 -3.89003e-17 0)
(-0.370822 -0.292034 0 -0.265214 0.39064 0 -1.49319e-16 -5.85061e-17 0)
(-0.67407 -0.435587 0 -0.560499 0.648598 0 -2.24245e-16 -1.0116e-16 0)
(-1.41367 -0.340465 0 -1.30065 1.11155 0 0 0 0)
(-0.991614 0.284129 0 -1.59989 1.3376 0 0 0 0)
(-0.277969 9.41787e-14 0 4.05103e-14 0.340591 0 0 0 0)
(-0.521769 2.71701e-13 0 1.21854e-13 0.513815 0 0 0 0)
(-0.964702 1.08526e-13 0 3.13967e-13 0.94209 0 0 0 0)
(-1.7458 -1.84551e-13 0 4.60991e-13 1.71296 0 0 0 0)
(-1.2435 1.08264e-13 0 9.4545e-13 2.44172 0 0 0 0)
(-0.197847 0.235374 0 0.209135 0.260254 0 -1.00665e-16 3.89003e-17 0)
(-0.370822 0.292034 0 0.265214 0.39064 0 -1.49319e-16 5.85061e-17 0)
(-0.67407 0.435587 0 0.560499 0.648598 0 -2.24245e-16 1.0116e-16 0)
(-1.41367 0.340465 0 1.30065 1.11155 0 0 0 0)
(-0.991614 -0.284129 0 1.59989 1.3376 0 0 0 0)
(-0.064307 0.380074 -1.05065e-17 0.202584 0.177174 -1.57598e-17 2.65389e-16 -1.48716e-16 2.8478e-33)
(-0.185374 0.391462 0 0.27276 0.272394 0 1.49319e-16 -5.85061e-17 0)
(-0.232157 0.442783 0 0.418132 0.256237 0 2.24245e-16 -1.0116e-16 0)
(-1.14293 0.236164 -2.10213e-17 1.03871 0.429573 -3.1532e-17 6.49871e-16 -4.33248e-16 5.69785e-33)
(0.181271 1.76397 4.38599e-16 3.62391 3.75756 6.57898e-16 -1.71196e-15 1.14131e-15 1.18882e-31)
(0.210561 0.483502 2.90228e-18 -0.460057 -0.992145 2.61205e-17 -1.05337e-15 8.56218e-17 -7.86664e-34)
(0.800804 -0.0413615 -9.88878e-19 -0.277135 -0.463929 -8.8999e-18 6.81411e-16 -6.08129e-17 -2.68036e-34)
(0.549317 0.0601315 0 -0.0671196 -0.248394 0 0 0 0)
(0.137309 0.308117 -1.65923e-18 0.524937 0.396562 -1.49331e-17 -3.25656e-16 4.98837e-17 4.49736e-34)
(-0.769667 0.230576 4.02106e-18 1.99321 1.43241 3.61896e-17 1.72066e-16 -1.91185e-17 1.08991e-33)
(0.537755 0.480624 0 -0.566685 -0.525132 0 5.33614e-16 -2.78708e-17 0)
(0.873521 -0.0439884 0 -0.320806 -0.473036 0 -3.44879e-16 2.34205e-17 0)
(0.80684 0.0756712 0 0.0348689 -0.395222 0 0 0 0)
(0.959537 0.404148 0 0.797839 -0.562866 0 1.87647e-16 -3.44039e-17 0)
(1.45516 0.294379 0 2.87984 -0.918228 0 -6.32655e-18 8.65096e-18 0)
(0.667343 3.59798e-13 0 1.40453e-12 -0.800591 0 0 0 0)
(0.970476 4.35772e-13 0 2.85414e-12 -0.609241 0 0 0 0)
(0.960634 2.97394e-13 0 4.385e-12 -0.432991 0 0 0 0)
(1.34321 1.30435e-13 0 5.40507e-12 -0.927175 0 -6.54475e-17 4.27503e-29 0)
(1.97527 -5.36063e-13 0 7.74178e-12 -2.29798 0 1.26531e-17 -5.34032e-29 0)
(0.537755 -0.480624 0 0.566685 -0.525132 0 5.33614e-16 2.78708e-17 0)
(0.873521 0.0439884 0 0.320806 -0.473036 0 -3.44879e-16 -2.34205e-17 0)
(0.80684 -0.0756712 0 -0.0348689 -0.395222 0 0 0 0)
(0.959537 -0.404148 0 -0.797839 -0.562866 0 1.87647e-16 3.44039e-17 0)
(1.45516 -0.294379 0 -2.87984 -0.918228 0 -6.32655e-18 -8.65096e-18 0)
(0.210561 -0.483502 0 0.460057 -0.992145 0 -5.33614e-16 -2.78708e-17 0)
(0.800804 0.0413615 9.88878e-19 0.277135 -0.463929 -8.8999e-18 8.34641e-18 -1.3972e-17 -2.68036e-34)
(0.549317 -0.0601315 0 0.0671196 -0.248394 0 0 0 0)
(0.137309 -0.308117 1.65923e-18 -0.524937 0.396562 -1.49331e-17 1.58094e-17 -1.19431e-17 4.49736e-34)
(-0.769667 -0.230576 -4.02106e-18 -1.99321 1.43241 3.61896e-17 -1.72066e-16 -1.91185e-17 1.08991e-33)
(0.671872 -0.863379 0 10.0262 0.170663 0 0 0 0)
(1.20223 -0.953538 0 6.02424 0.787138 0 0 0 0)
(-0.836729 0.0856274 0 3.38672 1.2178 0 0 0 0)
(-0.898168 0.534365 0 1.06677 1.11139 0 0 0 0)
(-0.524022 0.35477 0 0.152616 0.728782 0 0 0 0)
(-0.334594 0.100747 0 0.0506676 0.52872 0 0 0 0)
(-0.122437 0.0282664 0 0.022099 0.458566 0 0 0 0)
(-0.00333829 0.0144359 0 0.0127215 0.429987 0 0 0 0)
(0.0378171 0.00772918 0 0.00655602 0.411838 0 0 0 0)
(0.0765302 0.00334303 0 0.00257668 0.404794 0 0 0 0)
(0.114822 0.00254973 0 8.81903e-06 0.398787 0 0 0 0)
(0.156571 0.00110483 0 -0.000548529 0.396831 0 0 0 0)
(0.201734 0.000966393 0 -0.000779899 0.395027 0 0 0 0)
(0.24783 0.000814118 0 -0.000737538 0.393568 0 0 0 0)
(0.289783 0.000684589 0 -0.000615085 0.392325 0 0 0 0)
(0.323633 0.000606021 0 -0.000488615 0.391273 0 0 0 0)
(0.348418 0.000472081 0 -0.000364629 0.390269 0 0 0 0)
(0.364607 0.000574084 0 -0.000247028 0.389659 0 0 0 0)
(0.372267 -0.000235131 0 -0.000134752 0.388298 0 0 0 0)
(0.375915 -0.000455023 0 5.58164e-05 0.390478 0 0 0 0)
(0.378574 0.000856093 0 0.000235271 0.389877 0 0 0 0)
(0.378151 0.000392339 0 0.000454198 0.387533 0 0 0 0)
(0.373533 -0.000268651 0 0.000674633 0.388514 0 0 0 0)
(0.36318 -1.07747e-05 0 0.000887481 0.388435 0 0 0 0)
(0.346268 1.34991e-05 0 0.0011067 0.388518 0 0 0 0)
(0.322536 0.000137658 0 0.00131325 0.388336 0 0 0 0)
(0.292684 0.000248364 0 0.001475 0.387963 0 0 0 0)
(0.260272 0.000354997 0 0.00155547 0.387372 0 0 0 0)
(0.230059 0.000421686 0 0.00151243 0.386609 0 0 0 0)
(0.206312 0.000416116 0 0.00128549 0.385769 0 0 0 0)
(0.191081 0.000413068 0 0.000838009 0.385027 0 0 0 0)
(0.183407 0.000193519 0 0.000176538 0.384121 0 0 0 0)
(0.179537 0.000730633 0 -0.000683276 0.384235 0 0 0 0)
(0.171366 -0.00016437 0 -0.000927324 0.381348 0 0 0 0)
(0.151714 0.00249193 0 -0.00326403 0.384405 0 0 0 0)
(0.127366 -0.000325706 0 -0.00297276 0.373989 0 0 0 0)
(0.100369 0.000692826 0 -0.00635073 0.384732 0 0 0 0)
(0.107091 -0.0165102 0 -0.0109233 0.371911 0 0 0 0)
(2.36127 -0.0192141 0 -0.0302025 0.430832 0 0 0 0)
(2.2965 0.00172572 0 -0.0396763 0.427623 0 0 0 0)
(1.56929 -0.714975 0 8.07689 -0.634055 0 0 0 0)
(0.00976763 -0.839609 0 5.118 2.04379 0 0 0 0)
(-1.79096 0.106405 0 3.05687 2.64373 0 0 0 0)
(-1.5164 0.399395 0 0.867894 1.74945 0 0 0 0)
(-0.704427 0.216049 0 -0.0370128 0.806852 0 0 0 0)
(-0.337527 0.051591 0 -0.0487998 0.529924 0 0 0 0)
(-0.12267 0.0128761 0 -0.0399774 0.460533 0 0 0 0)
(-0.00342947 0.00729604 0 -0.0415329 0.432758 0 0 0 0)
(0.0382645 0.00393271 0 -0.0345627 0.41091 0 0 0 0)
(0.0766333 0.00143002 0 -0.032578 0.406189 0 0 0 0)
(0.115224 0.0013246 0 -0.0303645 0.399418 0 0 0 0)
(0.157289 0.00057398 0 -0.0271083 0.397424 0 0 0 0)
(0.202581 0.000506037 0 -0.0236913 0.39562 0 0 0 0)
(0.248762 0.00042938 0 -0.0202232 0.394102 0 0 0 0)
(0.290761 0.000359075 0 -0.016786 0.392822 0 0 0 0)
(0.324628 0.000313579 0 -0.0134479 0.391749 0 0 0 0)
(0.349416 0.000241651 0 -0.0102346 0.390739 0 0 0 0)
(0.365602 0.000289328 0 -0.00715072 0.390126 0 0 0 0)
(0.373261 -0.00011704 0 -0.00417919 0.388765 0 0 0 0)
(0.376908 -0.000227891 0 -0.0012658 0.390934 0 0 0 0)
(0.379568 0.000426787 0 0.0016066 0.390329 0 0 0 0)
(0.379147 0.000193203 0 0.004523 0.387992 0 0 0 0)
(0.374525 -0.00014008 0 0.00750902 0.388981 0 0 0 0)
(0.364164 -1.50022e-05 0 0.0105875 0.388915 0 0 0 0)
(0.347241 -8.04837e-06 0 0.0137864 0.389018 0 0 0 0)
(0.323488 4.77394e-05 0 0.0171098 0.388869 0 0 0 0)
(0.293598 9.70167e-05 0 0.0205435 0.388545 0 0 0 0)
(0.261127 0.000146361 0 0.0240476 0.388015 0 0 0 0)
(0.230835 0.000179619 0 0.0275826 0.387324 0 0 0 0)
(0.20699 0.000181717 0 0.0311102 0.386565 0 0 0 0)
(0.191653 0.000187248 0 0.0346173 0.385894 0 0 0 0)
(0.183882 9.14537e-05 0 0.0381406 0.385145 0 0 0 0)
(0.179995 0.000369091 0 0.0417216 0.385229 0 0 0 0)
(0.171593 -4.35426e-05 0 0.0457527 0.382634 0 0 0 0)
(0.151993 0.00132779 0 0.0490272 0.385794 0 0 0 0)
(0.127519 -0.000104464 0 0.0537039 0.374068 0 0 0 0)
(0.0997999 0.0004199 0 0.0575872 0.386913 0 0 0 0)
(0.103242 -0.00923721 0 0.0585566 0.371686 0 0 0 0)
(2.35555 -0.0094639 0 0.0381694 0.443667 0 0 0 0)
(2.29421 0.00204755 0 0.0420337 0.437735 0 0 0 0)
(1.7024 -7.49136e-13 0 6.65207e-12 -2.2125 0 0 0 0)
(-0.258139 -3.09856e-13 0 3.07913e-12 2.73876 0 0 0 0)
(-2.07312 -4.78515e-13 0 1.49866e-12 3.55981 0 0 0 0)
(-1.79821 -7.69186e-13 0 -1.45431e-12 2.00723 0 0 0 0)
(-0.790697 -5.60849e-13 0 -9.37342e-13 0.813974 0 0 0 0)
(-0.335457 4.41751e-13 0 2.64545e-12 0.521891 0 0 0 0)
(-0.120323 1.60384e-12 0 6.87187e-12 0.459285 0 0 0 0)
(-0.00176313 5.54274e-13 0 2.33596e-12 0.433368 0 0 0 0)
(0.0404222 -9.57561e-13 0 -2.45503e-11 0.409125 0 0 0 0)
(0.0777515 -2.77539e-12 0 -6.15413e-11 0.406331 0 0 0 0)
(0.116413 -8.27701e-12 0 -1.03129e-10 0.399294 0 0 0 0)
(0.158513 -1.74745e-11 0 -1.23463e-10 0.397224 0 0 0 0)
(0.203737 -2.2406e-11 0 -1.05221e-10 0.395348 0 0 0 0)
(0.249838 -1.11717e-11 0 -6.87542e-11 0.393745 0 0 0 0)
(0.291754 3.03381e-11 0 -7.63623e-11 0.392396 0 0 0 0)
(0.325539 1.03713e-10 0 -1.67244e-10 0.391276 0 0 0 0)
(0.35025 1.02525e-10 0 -2.61568e-10 0.39024 0 0 0 0)
(0.366368 -9.25505e-11 0 -2.38454e-10 0.389615 0 0 0 0)
(0.373979 -1.82563e-10 0 -1.67142e-10 0.388251 0 0 0 0)
(0.377598 2.25221e-11 0 -7.10813e-11 0.39042 0 0 0 0)
(0.380258 1.28354e-10 0 3.19338e-11 0.389817 0 0 0 0)
(0.379868 -1.23425e-10 0 1.22491e-10 0.387486 0 0 0 0)
(0.375297 -2.24429e-10 0 3.78273e-11 0.388489 0 0 0 0)
(0.365006 1.01811e-10 0 -1.06835e-10 0.388449 0 0 0 0)
(0.348166 2.69726e-10 0 -7.92946e-11 0.388592 0 0 0 0)
(0.324502 1.16747e-10 0 3.25753e-11 0.388504 0 0 0 0)
(0.294703 -2.36019e-11 0 -7.78447e-11 0.388264 0 0 0 0)
(0.262319 -4.89788e-11 0 -4.13927e-10 0.387837 0 0 0 0)
(0.232114 -2.40109e-11 0 -7.08767e-10 0.387258 0 0 0 0)
(0.208359 -4.73199e-11 0 -7.28395e-10 0.386602 0 0 0 0)
(0.193126 -6.62646e-11 0 -4.68679e-10 0.386009 0 0 0 0)
(0.185474 -6.79892e-11 0 -3.26128e-11 0.385315 0 0 0 0)
(0.181751 -7.10273e-12 0 4.30949e-10 0.38538 0 0 0 0)
(0.173491 4.87533e-11 0 8.22708e-10 0.382777 0 0 0 0)
(0.154027 -1.91503e-11 0 1.00903e-09 0.385679 0 0 0 0)
(0.129856 1.84557e-10 0 1.01559e-09 0.373649 0 0 0 0)
(0.101781 1.70263e-10 0 1.00653e-09 0.386397 0 0 0 0)
(0.101443 -2.12861e-10 0 8.83779e-10 0.370762 0 0 0 0)
(2.35646 -2.92598e-10 0 5.60495e-10 0.449903 0 0 0 0)
(2.29763 -1.2327e-10 0 6.19403e-10 0.435826 0 0 0 0)
(1.56929 0.714975 0 -8.07689 -0.634055 0 0 0 0)
(0.00976763 0.839609 0 -5.118 2.04379 0 0 0 0)
(-1.79096 -0.106405 0 -3.05687 2.64373 0 0 0 0)
(-1.5164 -0.399395 0 -0.867894 1.74945 0 0 0 0)
(-0.704427 -0.216049 0 0.0370128 0.806852 0 0 0 0)
(-0.337527 -0.051591 0 0.0487998 0.529924 0 0 0 0)
(-0.12267 -0.0128761 0 0.0399774 0.460533 0 0 0 0)
(-0.00342947 -0.00729604 0 0.0415329 0.432758 0 0 0 0)
(0.0382645 -0.00393271 0 0.0345627 0.41091 0 0 0 0)
(0.0766333 -0.00143002 0 0.032578 0.406189 0 0 0 0)
(0.115224 -0.0013246 0 0.0303645 0.399418 0 0 0 0)
(0.157289 -0.00057398 0 0.0271083 0.397424 0 0 0 0)
(0.202581 -0.000506037 0 0.0236913 0.39562 0 0 0 0)
(0.248762 -0.000429381 0 0.0202232 0.394102 0 0 0 0)
(0.290761 -0.000359075 0 0.016786 0.392822 0 0 0 0)
(0.324628 -0.000313578 0 0.0134479 0.391749 0 0 0 0)
(0.349416 -0.000241651 0 0.0102346 0.390739 0 0 0 0)
(0.365602 -0.000289328 0 0.00715072 0.390126 0 0 0 0)
(0.373261 0.00011704 0 0.00417919 0.388765 0 0 0 0)
(0.376908 0.000227891 0 0.0012658 0.390934 0 0 0 0)
(0.379568 -0.000426786 0 -0.0016066 0.390329 0 0 0 0)
(0.379147 -0.000193204 0 -0.004523 0.387992 0 0 0 0)
(0.374525 0.000140079 0 -0.00750902 0.388981 0 0 0 0)
(0.364164 1.50024e-05 0 -0.0105875 0.388915 0 0 0 0)
(0.347241 8.04888e-06 0 -0.0137864 0.389018 0 0 0 0)
(0.323488 -4.77392e-05 0 -0.0171098 0.388869 0 0 0 0)
(0.293598 -9.70167e-05 0 -0.0205435 0.388545 0 0 0 0)
(0.261127 -0.000146361 0 -0.0240476 0.388015 0 0 0 0)
(0.230835 -0.000179619 0 -0.0275826 0.387324 0 0 0 0)
(0.20699 -0.000181717 0 -0.0311102 0.386565 0 0 0 0)
(0.191653 -0.000187248 0 -0.0346173 0.385894 0 0 0 0)
(0.183882 -9.14538e-05 0 -0.0381406 0.385145 0 0 0 0)
(0.179995 -0.00036909 0 -0.0417216 0.385229 0 0 0 0)
(0.171593 4.35427e-05 0 -0.0457527 0.382634 0 0 0 0)
(0.151993 -0.00132779 0 -0.0490272 0.385794 0 0 0 0)
(0.127519 0.000104464 0 -0.0537039 0.374068 0 0 0 0)
(0.0997999 -0.000419899 0 -0.0575872 0.386913 0 0 0 0)
(0.103242 0.00923721 0 -0.0585566 0.371686 0 0 0 0)
(2.35555 0.0094639 0 -0.0381694 0.443667 0 0 0 0)
(2.29421 -0.00204755 0 -0.0420337 0.437735 0 0 0 0)
(0.671872 0.863379 0 -10.0262 0.170663 0 0 0 0)
(1.20223 0.953538 0 -6.02424 0.787138 0 0 0 0)
(-0.836729 -0.0856274 0 -3.38672 1.2178 0 0 0 0)
(-0.898168 -0.534365 0 -1.06677 1.11139 0 0 0 0)
(-0.524022 -0.35477 0 -0.152616 0.728782 0 0 0 0)
(-0.334594 -0.100747 0 -0.0506676 0.52872 0 0 0 0)
(-0.122437 -0.0282664 0 -0.022099 0.458566 0 0 0 0)
(-0.00333829 -0.0144359 0 -0.0127215 0.429987 0 0 0 0)
(0.0378171 -0.00772918 0 -0.00655602 0.411838 0 0 0 0)
(0.0765302 -0.00334303 0 -0.00257668 0.404794 0 0 0 0)
(0.114822 -0.00254973 0 -8.8191e-06 0.398787 0 0 0 0)
(0.156571 -0.00110483 0 0.000548529 0.396831 0 0 0 0)
(0.201734 -0.000966393 0 0.000779899 0.395027 0 0 0 0)
(0.24783 -0.000814118 0 0.000737538 0.393568 0 0 0 0)
(0.289783 -0.000684588 0 0.000615085 0.392325 0 0 0 0)
(0.323633 -0.000606021 0 0.000488615 0.391273 0 0 0 0)
(0.348418 -0.000472081 0 0.00036463 0.390269 0 0 0 0)
(0.364607 -0.000574084 0 0.000247029 0.389659 0 0 0 0)
(0.372267 0.000235131 0 0.000134752 0.388298 0 0 0 0)
(0.375915 0.000455023 0 -5.58166e-05 0.390478 0 0 0 0)
(0.378574 -0.000856092 0 -0.000235271 0.389877 0 0 0 0)
(0.378151 -0.000392339 0 -0.000454198 0.387533 0 0 0 0)
(0.373533 0.000268651 0 -0.000674634 0.388514 0 0 0 0)
(0.36318 1.07748e-05 0 -0.000887482 0.388435 0 0 0 0)
(0.346268 -1.34986e-05 0 -0.0011067 0.388518 0 0 0 0)
(0.322536 -0.000137657 0 -0.00131325 0.388336 0 0 0 0)
(0.292684 -0.000248364 0 -0.001475 0.387963 0 0 0 0)
(0.260272 -0.000354997 0 -0.00155547 0.387372 0 0 0 0)
(0.230059 -0.000421686 0 -0.00151243 0.386609 0 0 0 0)
(0.206312 -0.000416116 0 -0.00128549 0.385769 0 0 0 0)
(0.191081 -0.000413068 0 -0.000838008 0.385027 0 0 0 0)
(0.183407 -0.000193519 0 -0.000176537 0.384121 0 0 0 0)
(0.179537 -0.000730633 0 0.000683277 0.384235 0 0 0 0)
(0.171366 0.00016437 0 0.000927325 0.381348 0 0 0 0)
(0.151714 -0.00249193 0 0.00326403 0.384405 0 0 0 0)
(0.127366 0.000325707 0 0.00297276 0.373989 0 0 0 0)
(0.100369 -0.000692826 0 0.00635074 0.384732 0 0 0 0)
(0.107091 0.0165102 0 0.0109233 0.371911 0 0 0 0)
(2.36127 0.0192141 0 0.0302025 0.430832 0 0 0 0)
(2.2965 -0.00172572 0 0.0396763 0.427623 0 0 0 0)
(2.48631 1.03886 0 -4.41067 0.0316114 0 0 0 0)
(2.79577 1.36472 0 -2.92981 0.421588 0 0 0 0)
(0.215398 0.0729684 0 -1.89984 0.537246 0 0 0 0)
(-0.202564 -0.550081 0 -0.760679 0.586312 0 0 0 0)
(-0.275643 -0.421148 0 -0.367123 0.570417 0 0 0 0)
(-0.259048 -0.164253 0 -0.143381 0.496977 0 0 0 0)
(-0.0991358 -0.0570134 0 -0.0647303 0.448326 0 0 0 0)
(0.00621482 -0.0283523 0 -0.0445015 0.423112 0 0 0 0)
(0.0451453 -0.0153462 0 -0.0306579 0.407827 0 0 0 0)
(0.0808593 -0.00740427 0 -0.0208363 0.40088 0 0 0 0)
(0.11765 -0.0049032 0 -0.015968 0.396007 0 0 0 0)
(0.158613 -0.00231869 0 -0.0137655 0.393965 0 0 0 0)
(0.203679 -0.00202015 0 -0.0120762 0.392088 0 0 0 0)
(0.249737 -0.00167962 0 -0.0106189 0.390662 0 0 0 0)
(0.291736 -0.00142217 0 -0.0090915 0.38944 0 0 0 0)
(0.325622 -0.00126473 0 -0.00746774 0.388416 0 0 0 0)
(0.350419 -0.000988202 0 -0.00581467 0.387435 0 0 0 0)
(0.366609 -0.00119698 0 -0.00415312 0.38685 0 0 0 0)
(0.374221 0.000494354 0 -0.0024889 0.38551 0 0 0 0)
(0.377824 0.000956193 0 -0.00101109 0.387736 0 0 0 0)
(0.380467 -0.00177744 0 0.000476195 0.387156 0 0 0 0)
(0.380024 -0.000817984 0 0.00188481 0.384797 0 0 0 0)
(0.3754 0.000556842 0 0.00325413 0.385773 0 0 0 0)
(0.365031 2.2227e-05 0 0.00455794 0.385687 0 0 0 0)
(0.348099 -2.91578e-05 0 0.00574033 0.385772 0 0 0 0)
(0.324357 -0.000291861 0 0.00681071 0.385593 0 0 0 0)
(0.294502 -0.000526676 0 0.00776981 0.385226 0 0 0 0)
(0.262092 -0.000754757 0 0.00866199 0.384649 0 0 0 0)
(0.231902 -0.000905316 0 0.0095037 0.383899 0 0 0 0)
(0.208197 -0.000902458 0 0.01038 0.383045 0 0 0 0)
(0.193011 -0.000959471 0 0.0114133 0.38231 0 0 0 0)
(0.185385 -0.000470761 0 0.0124444 0.381225 0 0 0 0)
(0.181218 -0.00169071 0 0.0137113 0.38147 0 0 0 0)
(0.173474 1.05185e-05 0 0.0133575 0.378102 0 0 0 0)
(0.153599 -0.0045975 0 0.0159951 0.380927 0 0 0 0)
(0.129633 5.41784e-05 0 0.0151487 0.372364 0 0 0 0)
(0.104129 -0.00140805 0 0.0184819 0.379846 0 0 0 0)
(0.113752 0.0297448 0 0.0225513 0.371411 0 0 0 0)
(2.36698 0.0331366 0 0.0454512 0.409313 0 0 0 0)
(2.2975 -0.00443271 0 -0.00614177 0.406975 0 0 0 0)
(2.30696 1.01546 0 -0.646425 0.595728 0 0 0 0)
(2.76726 1.2203 0 -1.01427 0.380534 0 0 0 0)
(0.689341 -0.0119377 0 -0.884966 0.243061 0 0 0 0)
(0.205806 -0.493973 0 -0.524877 0.298975 0 0 0 0)
(-0.0623602 -0.405263 0 -0.345126 0.422863 0 0 0 0)
(-0.0837076 -0.184344 0 -0.161142 0.443863 0 0 0 0)
(-0.0396479 -0.0840297 0 -0.0642601 0.426023 0 0 0 0)
(0.0243724 -0.0460003 0 -0.035629 0.409756 0 0 0 0)
(0.0566922 -0.0250683 0 -0.0187685 0.401165 0 0 0 0)
(0.0883644 -0.012555 0 -0.008835 0.394505 0 0 0 0)
(0.12012 -0.00795164 0 -0.0039103 0.391438 0 0 0 0)
(0.159227 -0.00423061 0 -0.00251126 0.389249 0 0 0 0)
(0.203723 -0.00358453 0 -0.00205176 0.387408 0 0 0 0)
(0.249683 -0.00290178 0 -0.00194988 0.386139 0 0 0 0)
(0.291773 -0.002453 0 -0.00172218 0.385046 0 0 0 0)
(0.325725 -0.0021852 0 -0.00142103 0.384164 0 0 0 0)
(0.35054 -0.00170469 0 -0.00111022 0.383289 0 0 0 0)
(0.366738 -0.0020946 0 -0.00080947 0.382799 0 0 0 0)
(0.374247 0.00095034 0 -0.000511292 0.381522 0 0 0 0)
(0.377749 0.00177214 0 -0.000465647 0.383849 0 0 0 0)
(0.38035 -0.00319475 0 -0.000385852 0.383296 0 0 0 0)
(0.379823 -0.00149665 0 -0.000413105 0.380878 0 0 0 0)
(0.375108 0.00097223 0 -0.000490177 0.381818 0 0 0 0)
(0.364583 3.70972e-06 0 -0.000674242 0.381683 0 0 0 0)
(0.347458 -9.5614e-05 0 -0.00104964 0.381716 0 0 0 0)
(0.323516 -0.000581242 0 -0.00163429 0.381441 0 0 0 0)
(0.293493 -0.0010091 0 -0.00235284 0.380988 0 0 0 0)
(0.260966 -0.00141951 0 -0.00327531 0.380247 0 0 0 0)
(0.230727 -0.00170759 0 -0.00417847 0.37936 0 0 0 0)
(0.207142 -0.00168633 0 -0.00499034 0.378323 0 0 0 0)
(0.192035 -0.00187386 0 -0.00553676 0.377471 0 0 0 0)
(0.184561 -0.000854715 0 -0.00613556 0.375922 0 0 0 0)
(0.179515 -0.00322588 0 -0.00583588 0.376305 0 0 0 0)
(0.172436 -0.000276032 0 -0.00846932 0.372147 0 0 0 0)
(0.152429 -0.00689178 0 -0.0066067 0.37447 0 0 0 0)
(0.128546 -0.000570511 0 -0.0087197 0.368431 0 0 0 0)
(0.105486 -0.00122748 0 -0.00665167 0.372669 0 0 0 0)
(0.129508 0.0378089 0 -0.00471777 0.369031 0 0 0 0)
(2.33056 0.0460192 0 0.0329854 0.383183 0 0 0 0)
(2.24625 -0.00252672 0 -0.0754747 0.389507 0 0 0 0)
(2.13183 0.831494 0 -0.0280355 0.545636 0 0 0 0)
(2.5659 1.02487 0 -0.287574 0.149727 0 0 0 0)
(0.686998 -0.00562491 0 -0.35951 0.123458 0 0 0 0)
(0.317645 -0.376817 0 -0.360825 0.176687 0 0 0 0)
(0.074865 -0.281529 0 -0.237714 0.34084 0 0 0 0)
(0.0116048 -0.161208 0 -0.152418 0.39 0 0 0 0)
(0.0218133 -0.0898807 0 -0.0741851 0.395469 0 0 0 0)
(0.0500522 -0.0523061 0 -0.0441984 0.390381 0 0 0 0)
(0.0709649 -0.030042 0 -0.0230659 0.38992 0 0 0 0)
(0.0951772 -0.0167775 0 -0.0134058 0.384841 0 0 0 0)
(0.123744 -0.00996834 0 -0.00740606 0.383098 0 0 0 0)
(0.160404 -0.00620216 0 -0.00520212 0.381054 0 0 0 0)
(0.20422 -0.00501713 0 -0.00425541 0.379446 0 0 0 0)
(0.250054 -0.00395616 0 -0.00366598 0.378355 0 0 0 0)
(0.292245 -0.00332538 0 -0.00313799 0.377527 0 0 0 0)
(0.326212 -0.00295711 0 -0.00250432 0.376835 0 0 0 0)
(0.351008 -0.00230367 0 -0.00195134 0.376145 0 0 0 0)
(0.367186 -0.00290013 0 -0.00142621 0.375793 0 0 0 0)
(0.374552 0.0015064 0 -0.000912861 0.374592 0 0 0 0)
(0.377945 0.00266612 0 -0.000696404 0.377059 0 0 0 0)
(0.380518 -0.00464076 0 -0.000425573 0.376522 0 0 0 0)
(0.379923 -0.00224298 0 -0.000285649 0.373975 0 0 0 0)
(0.375148 0.00133251 0 -0.000183208 0.374834 0 0 0 0)
(0.364492 -7.61472e-05 0 -0.000188065 0.374602 0 0 0 0)
(0.347174 -0.000262481 0 -0.00044066 0.374495 0 0 0 0)
(0.323101 -0.000992663 0 -0.000844159 0.374114 0 0 0 0)
(0.292921 -0.00167638 0 -0.00162668 0.373364 0 0 0 0)
(0.260333 -0.00232394 0 -0.0022481 0.372497 0 0 0 0)
(0.230249 -0.00275955 0 -0.00322162 0.371269 0 0 0 0)
(0.206888 -0.00272303 0 -0.00401342 0.369806 0 0 0 0)
(0.191907 -0.00327386 0 -0.00381255 0.368929 0 0 0 0)
(0.185096 -0.00159391 0 -0.00454928 0.366385 0 0 0 0)
(0.178969 -0.00532832 0 -0.00319727 0.366729 0 0 0 0)
(0.172731 -0.00175756 0 -0.00629333 0.361484 0 0 0 0)
(0.153357 -0.00817832 0 -0.0031059 0.36271 0 0 0 0)
(0.12959 -0.00168161 0 -0.00436782 0.359422 0 0 0 0)
(0.107986 -0.000829233 0 -0.00143906 0.360037 0 0 0 0)
(0.151948 0.0398765 0 -0.00160276 0.36127 0 0 0 0)
(2.29879 0.0528678 0 0.0519639 0.350018 0 0 0 0)
(2.19298 0.00166123 0 -0.0771909 0.347987 0 0 0 0)
(2.05686 0.633951 0 0.056317 0.494087 0 0 0 0)
(2.44784 0.813473 0 -0.0960688 0.166433 0 0 0 0)
(0.618754 0.0140421 0 -0.180058 0.131237 0 0 0 0)
(0.323172 -0.284496 0 -0.222536 0.200799 0 0 0 0)
(0.138468 -0.199707 0 -0.178596 0.307887 0 0 0 0)
(0.073875 -0.131702 0 -0.125298 0.34823 0 0 0 0)
(0.0646365 -0.0836629 0 -0.0732238 0.364086 0 0 0 0)
(0.0736327 -0.0513473 0 -0.046124 0.366882 0 0 0 0)
(0.0863651 -0.030407 0 -0.0268469 0.37006 0 0 0 0)
(0.103455 -0.0191294 0 -0.0157374 0.368085 0 0 0 0)
(0.128025 -0.0116009 0 -0.00976923 0.367355 0 0 0 0)
(0.162263 -0.00774945 0 -0.00675356 0.365894 0 0 0 0)
(0.205203 -0.00618491 0 -0.00519788 0.364809 0 0 0 0)
(0.25076 -0.00475134 0 -0.00457696 0.364374 0 0 0 0)
(0.292892 -0.00391745 0 -0.00362002 0.363835 0 0 0 0)
(0.326868 -0.0035167 0 -0.00296126 0.363605 0 0 0 0)
(0.351579 -0.00270946 0 -0.00231548 0.363181 0 0 0 0)
(0.367739 -0.00359104 0 -0.00175309 0.363062 0 0 0 0)
(0.37495 0.00217052 0 -0.00119922 0.361954 0 0 0 0)
(0.378219 0.00363149 0 -0.000936238 0.364605 0 0 0 0)
(0.380746 -0.0061667 0 -0.000637913 0.364075 0 0 0 0)
(0.380057 -0.00312306 0 -0.000514354 0.361326 0 0 0 0)
(0.375202 0.00157625 0 -0.000441744 0.362056 0 0 0 0)
(0.364335 -0.000323067 0 -0.00053801 0.361618 0 0 0 0)
(0.346825 -0.000565141 0 -0.000862518 0.361344 0 0 0 0)
(0.322373 -0.00167039 0 -0.00166383 0.360514 0 0 0 0)
(0.29214 -0.00256746 0 -0.00221266 0.359801 0 0 0 0)
(0.259429 -0.0034385 0 -0.00398693 0.357979 0 0 0 0)
(0.229026 -0.00430066 0 -0.0045402 0.35689 0 0 0 0)
(0.206572 -0.00394167 0 -0.00585786 0.354654 0 0 0 0)
(0.191519 -0.00517077 0 -0.00607768 0.353307 0 0 0 0)
(0.185154 -0.00297489 0 -0.00727414 0.349774 0 0 0 0)
(0.177835 -0.00794885 0 -0.00463039 0.349991 0 0 0 0)
(0.172524 -0.00414818 0 -0.00920046 0.343718 0 0 0 0)
(0.154285 -0.00887904 0 -0.00566789 0.343687 0 0 0 0)
(0.130152 -0.00314624 0 -0.00670405 0.341884 0 0 0 0)
(0.108151 0.000553985 0 -0.00273305 0.34004 0 0 0 0)
(0.180969 0.0281534 0 -0.005213 0.345602 0 0 0 0)
(2.25772 0.0332188 0 0.0605473 0.303959 0 0 0 0)
(2.12179 -0.00448366 0 -0.0911585 0.32109 0 0 0 0)
(1.98499 0.515755 0 0.0434805 0.410701 0 0 0 0)
(2.33812 0.675219 0 -0.0474921 0.168 0 0 0 0)
(0.56513 0.0274914 0 -0.1152 0.131874 0 0 0 0)
(0.319054 -0.206591 0 -0.151315 0.201696 0 0 0 0)
(0.168567 -0.139459 0 -0.133708 0.283635 0 0 0 0)
(0.113145 -0.107053 0 -0.0991496 0.310276 0 0 0 0)
(0.0981087 -0.0719067 0 -0.0645011 0.328935 0 0 0 0)
(0.0947426 -0.0465497 0 -0.041316 0.336753 0 0 0 0)
(0.100247 -0.0288822 0 -0.0260604 0.34161 0 0 0 0)
(0.111634 -0.0193843 0 -0.0158728 0.342026 0 0 0 0)
(0.132401 -0.0120798 0 -0.0100989 0.342623 0 0 0 0)
(0.164809 -0.00865562 0 -0.00659793 0.34161 0 0 0 0)
(0.206317 -0.00648169 0 -0.00585216 0.342441 0 0 0 0)
(0.251575 -0.00489486 0 -0.00410114 0.341935 0 0 0 0)
(0.293802 -0.00406648 0 -0.00367532 0.342636 0 0 0 0)
(0.327469 -0.00358721 0 -0.00281759 0.342708 0 0 0 0)
(0.352173 -0.00282763 0 -0.00229321 0.34278 0 0 0 0)
(0.368261 -0.004082 0 -0.00179388 0.342944 0 0 0 0)
(0.375339 0.00299334 0 -0.00135432 0.341952 0 0 0 0)
(0.378485 0.00470978 0 -0.00108396 0.344834 0 0 0 0)
(0.380924 -0.00780059 0 -0.000871012 0.344321 0 0 0 0)
(0.380112 -0.00418862 0 -0.00085947 0.341307 0 0 0 0)
(0.375126 0.00161457 0 -0.000927801 0.341857 0 0 0 0)
(0.364087 -0.000761995 0 -0.00118451 0.341196 0 0 0 0)
(0.346089 -0.00132645 0 -0.00187085 0.34043 0 0 0 0)
(0.3218 -0.00248 0 -0.00250598 0.339668 0 0 0 0)
(0.290683 -0.00411951 0 -0.00460754 0.337386 0 0 0 0)
(0.25809 -0.00512868 0 -0.00467399 0.336779 0 0 0 0)
(0.228446 -0.00596329 0 -0.00795223 0.333054 0 0 0 0)
(0.205407 -0.00617625 0 -0.00874742 0.331115 0 0 0 0)
(0.190543 -0.00797667 0 -0.00785434 0.329508 0 0 0 0)
(0.186491 -0.00478865 0 -0.0115373 0.323417 0 0 0 0)
(0.177113 -0.011164 0 -0.00831666 0.323012 0 0 0 0)
(0.171731 -0.00783279 0 -0.013446 0.316391 0 0 0 0)
(0.155763 -0.00994595 0 -0.0103499 0.31372 0 0 0 0)
(0.132418 -0.00519568 0 -0.0111097 0.311524 0 0 0 0)
(0.109422 0.00275354 0 -0.00758402 0.305393 0 0 0 0)
(0.212927 0.00510717 0 -0.00926678 0.314272 0 0 0 0)
(2.21597 0.0292474 0 0.0550799 0.246272 0 0 0 0)
(2.04679 0.0181695 0 -0.102297 0.292214 0 0 0 0)
(1.9692 0.400076 0 0.0363023 0.395057 0 0 0 0)
(2.29493 0.544784 0 -0.0169515 0.165715 0 0 0 0)
(0.518707 0.0465126 0 -0.066123 0.136114 0 0 0 0)
(0.305337 -0.138253 0 -0.11277 0.196725 0 0 0 0)
(0.188737 -0.0950753 0 -0.107529 0.25667 0 0 0 0)
(0.140565 -0.088049 0 -0.0771935 0.27376 0 0 0 0)
(0.120367 -0.0581488 0 -0.0554027 0.292612 0 0 0 0)
(0.110676 -0.0391333 0 -0.0366524 0.301191 0 0 0 0)
(0.110883 -0.0253257 0 -0.0241466 0.306913 0 0 0 0)
(0.118836 -0.018153 0 -0.014737 0.307941 0 0 0 0)
(0.136963 -0.012002 0 -0.0091461 0.308848 0 0 0 0)
(0.166355 -0.00792541 0 -0.00709461 0.310581 0 0 0 0)
(0.207609 -0.00587108 0 -0.00383895 0.309878 0 0 0 0)
(0.252857 -0.00456284 0 -0.00407894 0.312426 0 0 0 0)
(0.294129 -0.00317314 0 -0.00266929 0.31268 0 0 0 0)
(0.3282 -0.00337804 0 -0.00234103 0.313839 0 0 0 0)
(0.352565 -0.00248157 0 -0.00191775 0.314199 0 0 0 0)
(0.368644 -0.00438918 0 -0.00161263 0.314723 0 0 0 0)
(0.375634 0.00399165 0 -0.0014476 0.313811 0 0 0 0)
(0.378684 0.00591385 0 -0.00118013 0.316933 0 0 0 0)
(0.380962 -0.00956586 0 -0.00118162 0.316446 0 0 0 0)
(0.380002 -0.0054969 0 -0.00134836 0.313127 0 0 0 0)
(0.374889 0.00146958 0 -0.0016258 0.313508 0 0 0 0)
(0.363426 -0.00169828 0 -0.00219507 0.312488 0 0 0 0)
(0.345552 -0.00203698 0 -0.00303302 0.311607 0 0 0 0)
(0.319735 -0.00460366 0 -0.00476529 0.309495 0 0 0 0)
(0.290051 -0.00535222 0 -0.00525254 0.308894 0 0 0 0)
(0.256206 -0.0076131 0 -0.00978671 0.303585 0 0 0 0)
(0.225101 -0.00975834 0 -0.00857516 0.304075 0 0 0 0)
(0.206666 -0.00735886 0 -0.0134825 0.297552 0 0 0 0)