/*--------------------------------*- C++ -*----------------------------------*\
| =========                 |                                                 |
| \\      /  F ield         | OpenFOAM: The Open Source CFD Toolbox           |
|  \\    /   O peration     | Version:  v1912                                 |
|   \\  /    A nd           | Website:  www.openfoam.com                      |
|    \\/     M anipulation  |                                                 |
\*---------------------------------------------------------------------------*/
FoamFile
{
    version     2.0;
    format      ascii;
    class       volScalarField;
    location    "0.5";
    object      p;
}
// * * * * * * * * * * * * * * * * * * * * * * * * * * * * * * * * * * * * * //

dimensions      [0 2 -2 0 0 0 0];


internalField   nonuniform List<scalar> 
10000
(
5.89577e-06
0.000105903
-0.000116941
-0.000706238
-0.00161173
-0.00277704
-0.004145
-0.00566075
-0.00727454
-0.00894239
-0.0106257
-0.0122907
-0.0139081
-0.0154525
-0.0169019
-0.0182372
-0.0194424
-0.0205035
-0.021409
-0.0221493
-0.0227165
-0.0231044
-0.0233085
-0.0233252
-0.0231525
-0.0227894
-0.022236
-0.0214934
-0.0205635
-0.019449
-0.0181536
-0.0166814
-0.0150374
-0.013227
-0.0112565
-0.00913241
-0.00686188
-0.00445255
-0.00191244
0.000749987
0.00352589
0.0064061
0.00938108
0.012441
0.0155758
0.0187751
0.0220283
0.0253246
0.028653
0.0320025
0.0353618
0.0387194
0.0420641
0.0453843
0.0486686
0.0519056
0.0550839
0.0581923
0.0612196
0.064155
0.0669878
0.0697075
0.0723041
0.0747679
0.0770896
0.0792603
0.0812718
0.0831165
0.0847872
0.0862777
0.0875823
0.0886964
0.089616
0.0903384
0.0908617
0.0911851
0.0913091
0.0912353
0.090967
0.0905085
0.0898659
0.0890469
0.0880609
0.0869193
0.0856355
0.084225
0.0827061
0.0810993
0.0794283
0.07772
0.0760049
0.0743175
0.0726967
0.0711864
0.0698354
0.0686964
0.0678236
0.0672683
0.0670731
0.0671841
-8.53954e-05
1.13988e-05
-0.000205844
-0.000732465
-0.00151737
-0.00252099
-0.00370145
-0.00501537
-0.00642155
-0.00788218
-0.00936308
-0.0108338
-0.0122671
-0.0136394
-0.0149296
-0.0161196
-0.0171937
-0.0181383
-0.0189419
-0.019595
-0.0200897
-0.0204195
-0.0205795
-0.020566
-0.0203767
-0.0200102
-0.0194662
-0.0187453
-0.017849
-0.0167798
-0.0155405
-0.0141351
-0.012568
-0.0108442
-0.00896938
-0.00694963
-0.00479162
-0.00250246
-8.96933e-05
0.00243874
0.00507452
0.00780896
0.0106331
0.0135376
0.0165129
0.0195492
0.0226365
0.0257645
0.0289228
0.0321009
0.035288
0.0384735
0.0416464
0.044796
0.0479113
0.0509817
0.0539963
0.0569445
0.0598158
0.0626
0.065287
0.0678671
0.0703307
0.0726688
0.0748728
0.0769345
0.0788461
0.0806006
0.0821916
0.0836133
0.0848606
0.0859294
0.0868162
0.0875187
0.0880356
0.0883663
0.0885118
0.0884741
0.0882563
0.0878633
0.0873012
0.0865776
0.085702
0.0846854
0.0835411
0.0822839
0.0809314
0.0795032
0.0780216
0.0765115
0.0750011
0.0735213
0.0721066
0.0707945
0.0696252
0.0686405
0.0678796
0.0673784
0.0671836
0.0672952
0.000138637
0.000229751
1.26237e-05
-0.000481774
-0.00119813
-0.00210349
-0.0031639
-0.00434326
-0.0056065
-0.00692074
-0.00825569
-0.00958379
-0.0108802
-0.0121228
-0.013292
-0.0143706
-0.0153433
-0.0161973
-0.0169213
-0.0175059
-0.0179432
-0.0182269
-0.018352
-0.0183145
-0.018112
-0.0177428
-0.0172064
-0.0165031
-0.0156341
-0.0146015
-0.0134079
-0.0120569
-0.0105524
-0.00889908
-0.00710227
-0.00516768
-0.00310156
-0.000910592
0.00139808
0.00381694
0.00633809
0.00895328
0.011654
0.0144313
0.0172761
0.020179
0.0231306
0.0261209
0.02914
0.0321779
0.0352244
0.0382691
0.0413018
0.0443121
0.0472896
0.0502241
0.0531053
0.055923
0.0586674
0.0613287
0.0638973
0.0663639
0.0687197
0.070956
0.0730647
0.0750381
0.0768689
0.0785507
0.0800773
0.0814435
0.0826446
0.0836769
0.0845373
0.0852238
0.0857353
0.0860717
0.086234
0.0862245
0.0860465
0.0857048
0.0852055
0.0845562
0.0837661
0.0828461
0.0818088
0.0806686
0.079442
0.0781476
0.0768064
0.0754414
0.0740784
0.0727453
0.0714726
0.0702929
0.0692405
0.0683502
0.067654
0.0671822
0.0669881
0.0671009
0.000727042
0.000757388
0.000508011
1.27726e-05
-0.000677176
-0.00153198
-0.00252203
-0.00361618
-0.00478399
-0.00599663
-0.00722715
-0.00845074
-0.00964481
-0.010789
-0.011865
-0.0128567
-0.0137498
-0.0145319
-0.0151923
-0.0157219
-0.0161131
-0.0163595
-0.0164562
-0.0163993
-0.0161862
-0.0158152
-0.0152855
-0.0145973
-0.0137515
-0.01275
-0.0115952
-0.0102903
-0.00883892
-0.00724557
-0.00551512
-0.00365298
-0.00166506
0.000442274
0.00266226
0.00498773
0.00741115
0.00992466
0.0125201
0.0151889
0.0179224
0.0207117
0.0235475
0.0264204
0.029321
0.0322395
0.0351662
0.0380913
0.0410047
0.0438966
0.0467571
0.0495762
0.0523442
0.0550514
0.0576883
0.0602455
0.062714
0.0650848
0.0673495
0.0694999
0.0715283
0.0734274
0.0751904
0.076811
0.0782836
0.0796032
0.0807656
0.0817671
0.0826053
0.0832781
0.0837847
0.0841252
0.0843008
0.0843138
0.0841675
0.0838668
0.0834176
0.0828273
0.0821048
0.0812606
0.0803066
0.0792568
0.0781265
0.0769333
0.0756965
0.0744375
0.0731797
0.0719484
0.0707706
0.0696752
0.0686918
0.0678509
0.0671805
0.0667086
0.0664865
0.0665481
0.00163286
0.0015451
0.00122663
0.000701926
9.46171e-06
-0.000824149
-0.00177289
-0.00280997
-0.00390909
-0.00504506
-0.00619411
-0.00733409
-0.00844462
-0.00950713
-0.0105049
-0.0114228
-0.0122477
-0.0129678
-0.013573
-0.0140546
-0.0144053
-0.0146191
-0.0146909
-0.0146172
-0.0143951
-0.014023
-0.0135
-0.0128261
-0.0120022
-0.0110298
-0.00991108
-0.00864907
-0.00724723
-0.00570965
-0.00404095
-0.00224626
-0.000331171
0.00169828
0.00383565
0.00607411
0.00840648
0.0108252
0.0133225
0.0158903
0.0185202
0.0212035
0.0239315
0.0266952
0.0294854
0.0322928
0.0351082
0.0379219
0.0407244
0.0435064
0.0462582
0.0489703
0.0516333
0.0542381
0.0567754
0.0592363
0.0616122
0.0638945
0.0660751
0.0681463
0.0701007
0.0719313
0.0736317
0.0751959
0.0766188
0.0778954
0.079022
0.0799952
0.0808125
0.0814723
0.081974
0.0823175
0.0825044
0.0825367
0.082418
0.0821528
0.081747
0.0812077
0.0805434
0.0797641
0.0788811
0.0779074
0.0768576
0.0757478
0.0745959
0.0734214
0.0722455
0.0710909
0.0699816
0.0689427
0.0680004
0.0671807
0.0665087
0.0660096
0.065724
0.0656778
0.00280295
0.00255589
0.00213773
0.0015579
0.000837219
-1.07725e-06
-0.000934122
-0.00193913
-0.00299356
-0.00407557
-0.00516432
-0.00624019
-0.00728498
-0.00828191
-0.00921575
-0.0100727
-0.0108406
-0.0115085
-0.0120668
-0.0125076
-0.0128237
-0.0130095
-0.0130603
-0.0129723
-0.0127431
-0.0123708
-0.0118546
-0.0111944
-0.0103909
-0.00944556
-0.00836039
-0.00713812
-0.00578204
-0.004296
-0.00268436
-0.000951987
0.00089582
0.00285331
0.00491435
0.00707242
0.00932065
0.0116518
0.0140585
0.0165329
0.019067
0.0216525
0.0242809
0.0269438
0.0296321
0.0323371
0.0350497
0.0377608
0.0404613
0.043142
0.0457938
0.0484075
0.0509741
0.0534848
0.0559307
0.0583034
0.0605943
0.0627956
0.0648992
0.0668979
0.0687846
0.0705526
0.0721958
0.0737087
0.075086
0.0763235
0.0774173
0.0783643
0.0791623
0.0798098
0.0803062
0.0806517
0.0808476
0.0808962
0.0808007
0.0805656
0.0801966
0.0797003
0.0790849
0.0783596
0.0775354
0.0766241
0.0756395
0.0745963
0.0735108
0.0724008
0.0712853
0.0701845
0.0691197
0.0681129
0.0671864
0.0663629
0.0656645
0.0651136
0.0647344
0.0645391
0.00418429
0.00375121
0.00321019
0.00255361
0.00178244
0.000916682
-2.35097e-05
-0.001019
-0.00205065
-0.00309966
-0.00414788
-0.00517809
-0.00617413
-0.00712102
-0.008005
-0.0088136
-0.00953558
-0.010161
-0.010681
-0.011088
-0.0113756
-0.0115383
-0.0115718
-0.0114725
-0.0112379
-0.0108665
-0.0103572
-0.00971007
-0.00892568
-0.00800533
-0.00695096
-0.00576512
-0.00445092
-0.003012
-0.00145251
0.000222951
0.00200931
0.00390109
0.00589242
0.00797708
0.0101485
0.0123997
0.0147237
0.0171128
0.0195595
0.0220557
0.0245934
0.0271643
0.0297598
0.0323715
0.0349906
0.0376083
0.0402159
0.0428046
0.0453655
0.0478899
0.050369
0.0527944
0.0551576
0.0574503
0.0596645
0.0617924
0.0638266
0.0657599
0.0675855
0.0692971
0.0708888
0.0723552
0.0736915
0.0748936
0.0759576
0.0768809
0.0776611
0.078297
0.0787879
0.0791342
0.079337
0.0793985
0.0793219
0.0791114
0.0787723
0.0783111
0.0777353
0.0770536
0.0762761
0.0754139
0.0744795
0.0734865
0.0724499
0.0713854
0.0703102
0.0692421
0.0681999
0.0672026
0.0662696
0.06542
0.0646735
0.0640495
0.0635536
0.063182
0.00572692
0.00509158
0.00441116
0.00366078
0.00282096
0.00190885
0.000942293
-6.28732e-05
-0.00109061
-0.00212484
-0.00314991
-0.0041508
-0.00511331
-0.00602414
-0.00687103
-0.00764275
-0.00832912
-0.00892108
-0.00941061
-0.00979071
-0.0100554
-0.0101997
-0.0102195
-0.0101115
-0.0098735
-0.00950385
-0.00900177
-0.00836716
-0.00760062
-0.00670338
-0.0056773
-0.00452479
-0.00324881
-0.00185283
-0.00034081
0.00128285
0.0030133
0.00484532
0.00677327
0.00879118
0.0108927
0.0130713
0.0153201
0.0176318
0.0199991
0.0224143
0.0248696
0.027357
0.0298683
0.0323954
0.0349297
0.0374629
0.0399865
0.0424919
0.0449707
0.0474145
0.0498147
0.0521632
0.0544518
0.0566726
0.0588177
0.0608798
0.0628516
0.0647262
0.0664971
0.0681581
0.0697036
0.0711285
0.072428
0.0735982
0.0746355
0.0755372
0.0763011
0.076926
0.0774112
0.0777571
0.0779648
0.0780362
0.0779744
0.0777834
0.0774681
0.0770345
0.0764897
0.0758418
0.0750999
0.0742745
0.0733769
0.0724196
0.0714159
0.0703801
0.0693274
0.0682736
0.067235
0.0662281
0.0652695
0.064375
0.0635623
0.0628483
0.0622191
0.0616542
0.00738634
0.00653999
0.00570905
0.00485201
0.00392921
0.00295541
0.00194656
0.000915575
-0.000124296
-0.00115944
-0.00217647
-0.0031624
-0.00410485
-0.00499215
-0.00581343
-0.00655869
-0.00721883
-0.00778567
-0.00825197
-0.00861138
-0.00885846
-0.00898865
-0.00899819
-0.00888417
-0.00864444
-0.00827757
-0.00778288
-0.00716031
-0.00641048
-0.00553459
-0.00453442
-0.0034123
-0.00217108
-0.000814075
0.000654906
0.00223164
0.00391148
0.0056894
0.00755999
0.00951753
0.0115559
0.0136688
0.0158496
0.0180913
0.0203869
0.0227289
0.0251098
0.0275219
0.0299574
0.0324081
0.0348662
0.0373233
0.0397713
0.042202
0.0446071
0.0469784
0.0493079
0.0515875
0.0538094
0.0559659
0.0580494
0.0600527
0.0619689
0.0637912
0.0655134
0.0671294
0.0686339
0.0700218
0.0712886
0.0724303
0.0734437
0.0743259
0.075075
0.0756895
0.0761689
0.0765134
0.076724
0.0768026
0.0767519
0.0765756
0.0762783
0.0758656
0.0753439
0.0747208
0.0740047
0.0732051
0.0723322
0.0713973
0.0704125
0.0693906
0.0683449
0.0672894
0.0662381
0.0652054
0.064205
0.0632503
0.0623571
0.0615401
0.0607661
0.0599985
0.00912391
0.00806293
0.00707456
0.00610151
0.00508465
0.00403689
0.0029727
0.00190239
0.000836767
-0.00021278
-0.00123488
-0.00221844
-0.00315275
-0.00402766
-0.00483363
-0.00556185
-0.00620426
-0.00675357
-0.00720332
-0.00754781
-0.00778217
-0.00790228
-0.00790479
-0.00778708
-0.00754725
-0.00718407
-0.00669696
-0.00608597
-0.00535173
-0.00449547
-0.00351894
-0.0024244
-0.0012146
0.000107236
0.00153744
0.00307194
0.00470626
0.00643555
0.00825461
0.0101579
0.0121396
0.0141935
0.0163133
0.0184922
0.0207235
0.0229999
0.0253142
0.0276589
0.0300264
0.032409
0.0347989
0.0371881
0.0395687
0.0419327
0.0442722
0.0465792
0.0488458
0.0510644
0.0532271
0.0553267
0.0573557
0.0593072
0.0611742
0.0629504
0.0646297
0.0662062
0.0676746
0.0690299
0.0702679
0.0713846
0.0723767
0.0732416
0.0739772
0.0745821
0.0750556
0.0753978
0.0756098
0.075693
0.07565
0.0754841
0.0751996
0.0748015
0.0742958
0.0736894
0.07299
0.0722061
0.0713471
0.070423
0.0694447
0.0684236
0.0673714
0.0663003
0.0652224
0.06415
0.0630947
0.0620673
0.0610823
0.0601528
0.0592266
0.0582521
0.0109062
0.00963043
0.00848084
0.00738527
0.00626603
0.00513466
0.00400454
0.00288373
0.00178089
0.000705461
-0.000333028
-0.00132516
-0.0022618
-0.00313417
-0.00393401
-0.00465364
-0.00528598
-0.00582463
-0.00626388
-0.00659872
-0.00682481
-0.00693853
-0.00693693
-0.00681773
-0.00657928
-0.00622057
-0.00574117
-0.00514125
-0.00442152
-0.00358322
-0.0026281
-0.0015584
-0.000376804
0.000913549
0.00230911
0.00380591
0.00539963
0.00708559
0.00885874
0.0107137
0.012645
0.0146464
0.016712
0.0188351
0.0210092
0.0232274
0.0254826
0.0277675
0.0300749
0.0323971
0.0347267
0.0370559
0.039377
0.0416823
0.043964
0.0462144
0.0484258
0.0505908
0.0527018
0.0547516
0.056733
0.0586392
0.0604635
0.0621997
0.0638417
0.0653839
0.066821
0.0681482
0.0693611
0.0704561
0.0714297
0.0722793
0.0730029
0.0735989
0.0740667
0.0744061
0.0746178
0.0747034
0.0746651
0.0745058
0.0742293
0.0738403
0.0733442
0.0727472
0.0720563
0.0712793
0.0704244
0.0695008
0.0685181
0.0674863
0.0664158
0.0653171
0.0642009
0.0630774
0.0619562
0.0608461
0.0597607
0.0587117
0.0576292
0.056447
0.0127046
0.0112159
0.00990354
0.00868115
0.00745345
0.00623101
0.00502649
0.00384604
0.00269644
0.00158541
0.000520862
-0.00048931
-0.00143737
-0.00231586
-0.00311768
-0.0038362
-0.00446532
-0.00499947
-0.00543369
-0.0057636
-0.00598545
-0.00609611
-0.00609303
-0.00597428
-0.00573851
-0.00538492
-0.00491328
-0.00432388
-0.00361754
-0.00279553
-0.00185965
-0.000812108
0.00034443
0.00160689
0.00297181
0.00443533
0.00599325
0.007641
0.00937372
0.0111862
0.013073
0.0150283
0.0170462
0.0191203
0.0212442
0.0234113
0.0256147
0.0278473
0.030102
0.0323715
0.0346484
0.0369252
0.0391945
0.0414487
0.0436803
0.0458816
0.0480453
0.050164
0.0522303
0.0542373
0.0561778
0.0580453
0.0598331
0.0615351
0.0631453
0.0646583
0.0660688
0.0673721
0.0685639
0.0696404
0.0705982
0.0714347
0.0721478
0.0727359
0.0731981
0.0735342
0.0737447
0.0738308
0.0737944
0.0736382
0.0733656
0.0729807
0.0724884
0.0718943
0.0712047
0.0704266
0.0695674
0.0686351
0.0676384
0.066586
0.065487
0.0643507
0.063186
0.0620019
0.060806
0.0596054
0.0584131
0.05724
0.0559991
0.0546107
0.0144941
0.0127959
0.0113207
0.00996888
0.0086284
0.00730925
0.00602365
0.00477614
0.00357189
0.00241712
0.00131831
0.000281997
-0.000685366
-0.0015775
-0.00238839
-0.00311242
-0.00374437
-0.00427948
-0.0047135
-0.00504271
-0.00526392
-0.00537446
-0.00537222
-0.00525563
-0.00502362
-0.00467565
-0.00421169
-0.00363219
-0.00293805
-0.00213067
-0.00121185
-0.000183829
0.000950742
0.00218883
0.00352703
0.00496157
0.00648834
0.0081029
0.0098005
0.0115761
0.0134243
0.0153397
0.0173162
0.0193479
0.0214284
0.0235514
0.02571
0.0278974
0.0301068
0.0323309
0.0345626
0.0367946
0.0390196
0.0412301
0.0434189
0.0455786
0.0477017
0.0497812
0.0518099
0.0537808
0.055687
0.057522
0.0592793
0.0609529
0.0625368
0.0640256
0.0654142
0.0666978
0.0678722
0.0689335
0.0698784
0.070704
0.0714083
0.0719894
0.0724465
0.0727791
0.0729875
0.0730725
0.0730358
0.0728798
0.0726074
0.0722222
0.0717287
0.0711318
0.0704371
0.0696508
0.0687797
0.0678309
0.0668118
0.0657303
0.0645942
0.0634115
0.0621901
0.0609373
0.0596596
0.0583625
0.0570585
0.0557582
0.0543585
0.0527667
0.0162533
0.0143495
0.0127125
0.0112299
0.00977378
0.00835372
0.00698184
0.00566134
0.00439597
0.00319069
0.00205071
0.000981356
-1.20602e-05
-0.000924337
-0.00175048
-0.00248577
-0.00312584
-0.0036667
-0.0041048
-0.00443702
-0.00466072
-0.00477371
-0.00477432
-0.0046613
-0.00443393
-0.00409191
-0.00363542
-0.00306508
-0.00238193
-0.00158744
-0.000683501
0.000327628
0.00144329
0.00266048
0.00397581
0.00538559
0.00688578
0.00847203
0.0101397
0.0118839
0.0136993
0.0155807
0.0175221
0.0195178
0.0215616
0.0236471
0.0257679
0.0279172
0.0300884
0.0322743
0.0344681
0.0366626
0.0388505
0.0410247
0.0431779
0.045303
0.0473927
0.04944
0.0514378
0.0533792
0.0552575
0.0570662
0.058799
0.0604498
0.0620127
0.0634824
0.0648537
0.0661218
0.0672826
0.068332
0.0692667
0.0700839
0.0707811
0.0713566
0.0718092
0.0721383
0.0723439
0.0724267
0.0723879
0.0722295
0.0719541
0.0715649
0.0710658
0.070461
0.0697557
0.0689553
0.0680657
0.0670933
0.0660447
0.0649266
0.0637461
0.0625098
0.0612246
0.0598968
0.0585315
0.0571331
0.0557141
0.0542847
0.0527268
0.0509352
0.0179632
0.0158583
0.0140613
0.0124475
0.0108737
0.00934976
0.00788763
0.00648941
0.00515769
0.00389631
0.00270939
0.00160119
0.000575976
-0.000362014
-0.0012087
-0.00196023
-0.00261301
-0.00316379
-0.00360966
-0.0039481
-0.00417699
-0.00429463
-0.00429975
-0.00419147
-0.00396938
-0.00363344
-0.00318405
-0.00262202
-0.00194853
-0.00116517
-0.00027389
0.000722988
0.00182279
0.00302251
0.00431878
0.00570795
0.00718605
0.00874881
0.0103917
0.0121098
0.0138981
0.0157513
0.0176637
0.0196297
0.0216431
0.0236979
0.0257876
0.0279057
0.0300456
0.0322005
0.0343634
0.0365274
0.0386854
0.0408303
0.0429551
0.0450526
0.0471158
0.0491377
0.0511113
0.0530298
0.0548866
0.0566751
0.0583892
0.0600227
0.06157
0.0630255
0.0643841
0.065641
0.0667919
0.0678329
0.0687604
0.0695715
0.0702636
0.0708349
0.0712839
0.0716098
0.0718124
0.0718921
0.0718497
0.0716869
0.0714059
0.0710094
0.0705008
0.069884
0.0691632
0.0683434
0.0674297
0.0664278
0.0653434
0.0641826
0.0629513
0.0616553
0.0603006
0.0588925
0.057435
0.0559318
0.0543953
0.0528361
0.0511211
0.0491335
0.0196073
0.0173058
0.0153508
0.013606
0.0119137
0.0102836
0.00872826
0.00724864
0.00584637
0.00452433
0.00328571
0.00213379
0.00107195
0.000103534
-0.000768219
-0.00154023
-0.00220966
-0.0027739
-0.0032307
-0.00357808
-0.00381445
-0.00393855
-0.00394952
-0.00384686
-0.00363044
-0.00330051
-0.0028577
-0.00230299
-0.00163774
-0.000863653
1.72307e-05
0.00100253
0.00208952
0.00327519
0.00455619
0.00592887
0.00738931
0.00893329
0.0105563
0.0122537
0.0140204
0.0158512
0.0177406
0.019683
0.0216725
0.023703
0.0257682
0.0278619
0.0299773
0.0321079
0.0342469
0.0363875
0.0385226
0.0406453
0.0427485
0.0448254
0.0468689
0.048872
0.050828
0.05273
0.0545715
0.0563459
0.0580471
0.059669
0.0612058
0.0626521
0.0640026
0.0652526
0.0663976
0.0674335
0.0683569
0.0691645
0.0698537
0.0704223
0.0708688
0.0711921
0.0713918
0.0714678
0.0714209
0.0712521
0.0709634
0.070557
0.0700357
0.0694031
0.0686628
0.0678191
0.0668765
0.06584
0.0647146
0.0635056
0.0622182
0.0608576
0.0594286
0.0579358
0.0563827
0.0547718
0.0531163
0.0514267
0.0495563
0.0473767
0.0211711
0.0186772
0.0165666
0.0146914
0.01288
0.0111425
0.0094917
0.00792783
0.00645168
0.0050653
0.00377105
0.00257141
0.00146891
0.000466118
-0.000434496
-0.00123058
-0.00191995
-0.00250066
-0.00297102
-0.00332961
-0.00357531
-0.00370732
-0.00372517
-0.0036287
-0.00341811
-0.00309392
-0.00265698
-0.00210847
-0.00144992
-0.00068316
0.000189665
0.00116609
0.00224336
0.00341841
0.00468789
0.00604817
0.00749534
0.00902524
0.0106334
0.0123153
0.0140658
0.0158799
0.0177521
0.019677
0.0216487
0.0236613
0.0257086
0.0277843
0.0298821
0.0319953
0.0341172
0.0362411
0.0383602
0.0404675
0.0425562
0.0446192
0.0466496
0.0486407
0.0505855
0.0524774
0.0543097
0.0560761
0.0577701
0.0593859
0.0609176
0.0623596
0.0637068
0.0649542
0.0660972
0.0671317
0.0680541
0.0688609
0.0695495
0.0701174
0.0705628
0.0708844
0.0710814
0.0711537
0.0711015
0.0709257
0.0706276
0.0702091
0.0696727
0.0690212
0.0682579
0.0673865
0.066411
0.0653356
0.0641648
0.0629032
0.0615553
0.0601256
0.0586183
0.0570376
0.0553859
0.0536654
0.0518897
0.0500699
0.0480456
0.0456777
0.0226413
0.0199593
0.0176953
0.0156906
0.0137601
0.0119144
0.0101665
0.00851623
0.00696358
0.00550993
0.00415691
0.00290625
0.00175979
0.000719349
-0.000213272
-0.00103638
-0.00174844
-0.00234808
-0.00283417
-0.00320578
-0.00346228
-0.00360328
-0.0036287
-0.00353874
-0.00333389
-0.00301493
-0.00258297
-0.00203939
-0.00138587
-0.000624391
0.00024279
0.00121312
0.00228378
0.00345166
0.00471339
0.00606535
0.00750362
0.00902408
0.0106223
0.0122937
0.0140335
0.0158364
0.0176973
0.0196107
0.0215707
0.0235717
0.0256075
0.0276719
0.0297585
0.0318609
0.0339726
0.0360867
0.0381965
0.0402952
0.042376
0.0444318
0.046456
0.0484415
0.0503816
0.0522696
0.054099
0.0558632
0.057556
0.0591712
0.060703
0.0621458
0.0634943
0.0647435
0.0658887
0.0669256
0.0678503
0.0686593
0.0693498
0.069919
0.070365
0.070686
0.0708812
0.0709499
0.0708922
0.0707086
0.0703999
0.0699678
0.0694141
0.0687414
0.0679523
0.0670501
0.0660382
0.0649204
0.0637004
0.0623824
0.0609703
0.0594681
0.0578794
0.0562078
0.0544554
0.0526237
0.0507271
0.0487772
0.0466008
0.0440481
0.0240063
0.0211399
0.0187248
0.0165916
0.0145423
0.0125878
0.0107418
0.00900353
0.00737238
0.00584914
0.00443482
0.00313052
0.0019374
0.000856672
-0.000110511
-0.000963062
-0.00170002
-0.00232056
-0.00282406
-0.0032101
-0.00347848
-0.00362921
-0.0036626
-0.00357916
-0.0033797
-0.00306528
-0.00263722
-0.00209712
-0.00144682
-0.000688462
0.000175581
0.00114266
0.00220988
0.00337408
0.00463185
0.00597956
0.0074133
0.00892894
0.0105221
0.0121882
0.0139225
0.0157199
0.0175751
0.0194828
0.0214374
0.0234329
0.0254634
0.0275229
0.029605
0.0317033
0.0338113
0.0359222
0.0380295
0.0401264
0.0422059
0.0442613
0.0462857
0.0482722
0.0502141
0.0521046
0.0539371
0.0557052
0.0574024
0.0590227
0.06056
0.0620087
0.0633634
0.0646189
0.0657704
0.0668135
0.0677441
0.0685585
0.0692535
0.0698264
0.0702748
0.0705969
0.0707912
0.0708571
0.070794
0.0706022
0.0702823
0.0698354
0.069263
0.0685671
0.0677499
0.0668144
0.0657634
0.0646001
0.063328
0.0619506
0.0604712
0.0588935
0.0572207
0.055456
0.053601
0.0516571
0.0496391
0.0475595
0.0452324
0.0424978
0.0252551
0.0222077
0.0196437
0.0173832
0.0152154
0.013152
0.0112072
0.00937979
0.00766863
0.00607403
0.00459644
0.00323641
0.00199452
0.000871395
-0.000132378
-0.00101627
-0.00177984
-0.0024228
-0.002945
-0.00334647
-0.00362743
-0.0037883
-0.00382973
-0.00375257
-0.00355791
-0.00324709
-0.00282166
-0.00228342
-0.0016344
-0.000876884
-1.33706e-05
0.000953386
0.0020204
0.00318445
0.0044421
0.00578966
0.00722323
0.00873867
0.0103316
0.0119976
0.0137317
0.015529
0.0173842
0.0192922
0.0212471
0.0232434
0.025275
0.0273359
0.0294199
0.0315206
0.0336315
0.035746
0.0378574
0.0399591
0.042044
0.0441056
0.0461368
0.0481308
0.0500808
0.05198
0.0538219
0.0555998
0.0573074
0.0589384
0.0604867
0.0619465
0.0633122
0.0645787
0.065741
0.0667943
0.0677345
0.0685576
0.0692602
0.0698393
0.0702924
0.0706172
0.0708122
0.070876
0.0708082
0.0706084
0.070277
0.0698146
0.0692224
0.0685019
0.0676551
0.0666842
0.0655919
0.0643808
0.063054
0.0616146
0.0600655
0.05841
0.056651
0.0547912
0.0528322
0.050775
0.0486353
0.0464263
0.0439499
0.0410358
0.026378
0.0231526
0.0204415
0.0180548
0.0157691
0.0135968
0.0115528
0.00963541
0.00784315
0.00617585
0.0046335
0.00321614
0.00192384
0.000756698
-0.000285213
-0.00120187
-0.00199335
-0.00265982
-0.00320159
-0.00361911
-0.00391302
-0.0040841
-0.00413336
-0.00406195
-0.00387128
-0.0035629
-0.00313864
-0.00260047
-0.00195063
-0.00119154
-0.000325837
0.000643613
0.00171374
0.00288124
0.00414262
0.00549417
0.00693195
0.00845182
0.0100494
0.0117202
0.0134594
0.0152621
0.0171231
0.019037
0.0209984
0.0230015
0.0250404
0.0271091
0.0292014
0.0313109
0.0334313
0.035556
0.0376782
0.0397913
0.0418883
0.0439626
0.0460071
0.0480152
0.0499797
0.0518941
0.0537515
0.0555453
0.0572691
0.0589165
0.0604813
0.0619575
0.0633394
0.0646217
0.0657991
0.0668669
0.0678206
0.0686561
0.0693695
0.0699577
0.0704179
0.0707476
0.0709448
0.0710081
0.0709364
0.0707292
0.0703864
0.0699083
0.0692958
0.0685499
0.0676722
0.0666645
0.0655291
0.0642684
0.0628849
0.0613814
0.0597607
0.0580254
0.0561783
0.0542221
0.0521578
0.0499865
0.0477248
0.0453866
0.0427618
0.0396703
0.0273655
0.0239647
0.0211083
0.0185964
0.0161934
0.0139124
0.0117689
0.00976108
0.00788695
0.00614599
0.00453778
0.00306191
0.001718
0.00050565
-0.00057552
-0.00152597
-0.00234622
-0.00303689
-0.00359873
-0.00403259
-0.00433947
-0.00452054
-0.00457712
-0.00451069
-0.00432291
-0.00401562
-0.00359085
-0.0030508
-0.00239788
-0.00163466
-0.000763936
0.000211325
0.00128795
0.00246257
0.00373162
0.00509133
0.00653773
0.00806668
0.0096738
0.0113545
0.0131041
0.0149177
0.01679
0.0187157
0.0206894
0.0227054
0.0247578
0.0268405
0.0289475
0.0310725
0.0332089
0.0353502
0.0374898
0.0396209
0.0417367
0.0438303
0.0458948
0.0479233
0.0499089
0.0518447
0.0537239
0.0555398
0.0572858
0.0589553
0.0605422
0.0620403
0.0634437
0.0647467
0.0659441
0.0670307
0.068002
0.0688536
0.0695814
0.0701819
0.070652
0.070989
0.0711906
0.071255
0.0711808
0.0709671
0.0706134
0.0701199
0.0694868
0.068715
0.0678057
0.0667603
0.0655807
0.0642689
0.0628272
0.0612581
0.059564
0.0577473
0.0558108
0.0537567
0.0515861
0.0493
0.0469159
0.0444487
0.0416763
0.0384087
0.0282091
0.024635
0.0216347
0.0189984
0.0164788
0.0140893
0.0118463
0.00974773
0.00779122
0.00597594
0.00430112
0.00276593
0.00136956
0.00011121
-0.00100996
-0.00199483
-0.00284435
-0.00355957
-0.00414162
-0.00459175
-0.00491133
-0.00510187
-0.00516499
-0.00510248
-0.00491629
-0.00460851
-0.00418137
-0.0036373
-0.00297887
-0.00220883
-0.00133012
-0.000345818
0.000740799
0.00192628
0.00320698
0.00457908
0.00603857
0.00758126
0.00920278
0.0108986
0.0126638
0.0144936
0.0163829
0.0183262
0.0203182
0.0223531
0.0244251
0.0265282
0.0286563
0.030803
0.032962
0.0351266
0.0372902
0.0394459
0.0415871
0.0437066
0.0457977
0.0478532
0.0498664
0.05183
0.0537374
0.0555815
0.0573558
0.0590535
0.0606682
0.0621937
0.0636239
0.0649528
0.066175
0.0672852
0.0682785
0.0691502
0.0698962
0.0705124
0.0709956
0.0713426
0.0715509
0.0716184
0.0715434
0.0713246
0.0709612
0.0704528
0.0697995
0.0690019
0.0680606
0.0669769
0.0657523
0.0643884
0.0628874
0.0612514
0.0594826
0.0575834
0.0555561
0.0534031
0.0511254
0.0487238
0.0462168
0.0436204
0.0407007
0.0372578
0.0289002
0.0251545
0.0220117
0.0192519
0.016616
0.0141183
0.0117759
0.00958645
0.00754728
0.00565729
0.00391538
0.00232036
0.000871041
-0.000433775
-0.00159533
-0.00261491
-0.00349386
-0.00423363
-0.00483572
-0.00530175
-0.00563344
-0.00583262
-0.00590124
-0.00584138
-0.00565523
-0.00534514
-0.00491357
-0.00436315
-0.00369664
-0.00291696
-0.00202716
-0.00103047
6.97314e-05
0.00126989
0.00256631
0.00395509
0.00543218
0.00699334
0.00863417
0.0103501
0.0121363
0.0139879
0.0158997
0.0178664
0.0198825
0.0219424
0.0240403
0.02617
0.0283256
0.0305006
0.0326885
0.0348829
0.0370771
0.0392642
0.0414373
0.0435895
0.0457138
0.047803
0.0498502
0.0518482
0.0537901
0.0556689
0.0574776
0.0592095
0.060858
0.0624166
0.0638791
0.0652393
0.0664915
0.0676301
0.06865
0.0695462
0.0703143
0.0709501
0.0714497
0.0718099
0.0720278
0.0721008
0.072027
0.0718048
0.071433
0.0709109
0.0702381
0.0694149
0.0684419
0.0673197
0.0660497
0.0646332
0.0630721
0.0613683
0.0595238
0.0575409
0.0554219
0.0531691
0.0507833
0.0482654
0.0456352
0.0429091
0.0398421
0.0362243
0.0294309
0.025515
0.0222304
0.0193477
0.0165961
0.0139905
0.0115488
0.00926847
0.00714653
0.00518165
0.00337242
0.00171734
0.000214864
-0.00113658
-0.00233859
-0.00339285
-0.00430108
-0.00506508
-0.00568673
-0.00616799
-0.00651092
-0.00671767
-0.00679048
-0.00673171
-0.00654383
-0.00622942
-0.00579117
-0.0052319
-0.00455456
-0.00376223
-0.00285811
-0.00184557
-0.000728086
0.000490688
0.00180696
0.00321679
0.00471604
0.00630045
0.00796555
0.00970675
0.0115192
0.0133981
0.0153381
0.017334
0.0193802
0.0214712
0.023601
0.0257636
0.027953
0.0301627
0.0323862
0.0346171
0.0368485
0.0390735
0.0412854
0.0434769
0.045641
0.0477706
0.0498584
0.0518974
0.0538803
0.0558001
0.0576497
0.059422
0.0611104
0.0627081
0.0642086
0.0656057
0.0668932
0.0680654
0.0691167
0.0700421
0.0708366
0.0714959
0.0720159
0.0723927
0.0726232
0.0727046
0.0726345
0.0724109
0.0720325
0.0714981
0.070807
0.0699592
0.0689547
0.0677943
0.0664789
0.0650096
0.0633879
0.0616157
0.0596948
0.0576275
0.0554158
0.0530622
0.0505675
0.0479327
0.0451784
0.0423223
0.0391074
0.0353144
0.0297931
0.0257079
0.0222823
0.0192773
0.0164103
0.0136971
0.0111563
0.0087851
0.00658043
0.00454064
0.00266409
0.000948949
-0.000606638
-0.00200458
-0.00324685
-0.00433547
-0.00527252
-0.00606015
-0.00670059
-0.00719613
-0.00754916
-0.00776212
-0.00783757
-0.00777812
-0.00758651
-0.00726555
-0.00681815
-0.00624735
-0.00555627
-0.00474814
-0.00382634
-0.00279434
-0.00165576
-0.000414347
0.000926025
0.00236133
0.00388738
0.00549986
0.00719426
0.00896593
0.0108101
0.0127216
0.0146955
0.0167264
0.0188087
0.0209368
0.0231047
0.0253066
0.0275361
0.029787
0.0320527
0.0343266
0.0366019
0.0388717
0.0411289
0.0433665
0.0455773
0.047754
0.0498893
0.0519759
0.0540065
0.0559738
0.0578707
0.0596899
0.0614244
0.0630672
0.0646118
0.0660514
0.0673799
0.068591
0.0696791
0.0706385
0.0714642
0.0721514
0.0726956
0.0730929
0.0733396
0.0734325
0.0733689
0.0731465
0.0727636
0.0722187
0.0715108
0.0706395
0.0696047
0.0684066
0.067046
0.0655239
0.0638416
0.0620006
0.0600029
0.0578504
0.0555454
0.0530902
0.0504857
0.047733
0.0448538
0.0418668
0.0385034
0.0345342
0.0299792
0.0257253
0.0221591
0.019032
0.0160499
0.0132293
0.0105895
0.0081277
0.00584042
0.00372588
0.00178217
7.18253e-06
-0.00160124
-0.00304533
-0.00432739
-0.00544978
-0.00641492
-0.00722531
-0.00788349
-0.0083921
-0.00875381
-0.00897139
-0.00904767
-0.00898553
-0.00878796
-0.00845801
-0.00799881
-0.0074136
-0.00670568
-0.00587846
-0.00493546
-0.00388028
-0.00271667
-0.00144847
-7.96621e-05
0.00138565
0.00294322
0.00458866
0.00631742
0.00812481
0.010006
0.0119559
0.0139693
0.016041
0.0181654
0.0203366
0.022549
0.0247964
0.0270725
0.0293711
0.0316856
0.0340092
0.0363351
0.0386563
0.0409658
0.0432563
0.0455206
0.0477512
0.0499408
0.0520818
0.0541669
0.0561885
0.0581393
0.0600119
0.061799
0.0634934
0.0650881
0.0665764
0.0679516
0.0692073
0.0703375
0.0713363
0.0721981
0.0729179
0.0734909
0.0739127
0.0741794
0.0742874
0.0742336
0.0740153
0.0736304
0.0730772
0.0723545
0.0714613
0.0703973
0.0691625
0.0677575
0.0661829
0.06444
0.0625303
0.0604553
0.0582172
0.0558181
0.0532605
0.0505454
0.0476739
0.0446688
0.0415498
0.0380366
0.0338898
0.0299814
0.0255589
0.0218523
0.0186033
0.0155063
0.0125784
0.00983992
0.00728761
0.00491795
0.00272892
0.000718365
-0.00111607
-0.00277684
-0.00426649
-0.00558763
-0.00674296
-0.00773521
-0.00856722
-0.00924185
-0.00976204
-0.0101308
-0.0103511
-0.0104262
-0.0103591
-0.0101531
-0.00981155
-0.0093377
-0.00873502
-0.00800699
-0.00715721
-0.00618933
-0.00510711
-0.00391441
-0.00261517
-0.00121349
0.000286451
0.00188033
0.0035637
0.00533196
0.00718037
0.00910402
0.0110978
0.0131566
0.015275
0.0174474
0.019668
0.021931
0.0242303
0.0265595
0.0289123
0.0312821
0.0336622
0.0360455
0.038425
0.0407936
0.043144
0.0454687
0.0477602
0.0500111
0.0522135
0.05436
0.0564427
0.0584543
0.0603869
0.0622333
0.0639857
0.0656371
0.0671803
0.0686084
0.0699147
0.0710928
0.0721364
0.0730397
0.0737972
0.0744038
0.0748547
0.0751456
0.0752726
0.0752322
0.0750213
0.0746374