/*--------------------------------*- C++ -*----------------------------------*\
| =========                 |                                                 |
| \\      /  F ield         | OpenFOAM: The Open Source CFD Toolbox           |
|  \\    /   O peration     | Version:  v1912                                 |
|   \\  /    A nd           | Website:  www.openfoam.com                      |
|    \\/     M anipulation  |                                                 |
\*---------------------------------------------------------------------------*/
FoamFile
{
    version     2.0;
    format      ascii;
    class       volScalarField;
    location    "6.38";
    object      T;
}
// * * * * * * * * * * * * * * * * * * * * * * * * * * * * * * * * * * * * * //

dimensions      [0 0 0 1 0 0 0];


internalField   nonuniform List<scalar> 
1900
(
1.20401
0.919812
0.918756
0.928125
0.941883
0.953718
0.960343
0.963225
0.964257
0.96426
1.20402
0.919815
0.918763
0.928134
0.94189
0.95369
0.960323
0.963265
0.96455
0.964311
1.20402
0.919817
0.918767
0.928138
0.941885
0.95367
0.960312
0.963218
0.964239
0.96389
1.20402
0.919815
0.918763
0.928134
0.94189
0.95369
0.960323
0.963265
0.96455
0.964311
1.20401
0.919812
0.918756
0.928125
0.941883
0.953718
0.960343
0.963225
0.964257
0.96426
0.967434
0.963041
0.965546
0.972975
1.01126
0.963058
0.959881
0.961576
0.967372
0.992863
0.962081
0.959168
0.960382
0.966726
0.990897
0.963058
0.959881
0.961576
0.967372
0.992863
0.967434
0.963041
0.965546
0.972975
1.01126
0.801734
0.684992
0.60788
0.554748
0.545546
0.821449
0.701116
0.622206
0.566196
0.558161
0.821299
0.695517
0.616195
0.560288
0.553315
0.821449
0.701116
0.622206
0.566196
0.558161
0.801734
0.684992
0.60788
0.554748
0.545546
0.529585
0.49533
0.452869
0.467795
0.560914
0.609174
0.587095
0.573977
0.567017
0.55684
0.537069
0.506248
0.473854
0.453291
0.443003
0.435758
0.429216
0.423181
0.418045
0.414528
0.412491
0.411305
0.410467
0.409777
0.409202
0.408793
0.40855
0.408559
0.40884
0.409374
0.410028
0.411044
0.412211
0.41441
0.416969
0.420518
0.425957
0.441164
0.481286
0.500737
0.545377
0.502784
0.453791
0.459288
0.556295
0.612992
0.590768
0.578251
0.570334
0.558639
0.538021
0.506832
0.474152
0.453392
0.443031
0.435785
0.429249
0.423206
0.418053
0.414526
0.412487
0.411301
0.410464
0.409774
0.409199
0.40879
0.408547
0.408555
0.408836
0.409371
0.410024
0.411041
0.412206
0.414413
0.416967
0.42052
0.425957
0.441136
0.481344
0.500756
0.541737
0.502153
0.454503
0.457655
0.554266
0.614109
0.59111
0.577515
0.569495
0.558237
0.537965
0.507054
0.474324
0.453442
0.443041
0.435795
0.429264
0.423215
0.418057
0.414525
0.412486
0.4113
0.410463
0.409773
0.409198
0.408789
0.408546
0.408554
0.408834
0.409369
0.410022
0.411039
0.412204
0.414414
0.416966
0.420521
0.425961
0.441117
0.481351
0.500794
0.545377
0.502784
0.453791
0.459288
0.556295
0.612992
0.590768
0.578251
0.570334
0.558639
0.538021
0.506832
0.474152
0.453392
0.443031
0.435785
0.429249
0.423206
0.418053
0.414526
0.412487
0.411301
0.410464
0.409774
0.409199
0.40879
0.408547
0.408555
0.408836
0.409371
0.410024
0.411041
0.412206
0.414413
0.416967
0.42052
0.425957
0.441136
0.481344
0.500756
0.529585
0.49533
0.452869
0.467795
0.560914
0.609174
0.587095
0.573977
0.567017
0.55684
0.537069
0.506248
0.473854
0.453291
0.443003
0.435758
0.429216
0.423181
0.418045
0.414528
0.412491
0.411305
0.410467
0.409777
0.409202
0.408793
0.40855
0.408559
0.40884
0.409374
0.410028
0.411044
0.412211
0.41441
0.416969
0.420518
0.425957
0.441164
0.481286
0.500737
0.507138
0.499484
0.486167
0.505665
0.562972
0.59198
0.576003
0.568071
0.562679
0.553355
0.533972
0.503803
0.472395
0.452745
0.442822
0.435637
0.429052
0.423031
0.417991
0.414526
0.412503
0.411315
0.410475
0.409784
0.40921
0.408803
0.408561
0.408571
0.408852
0.409385
0.41004
0.411052
0.412224
0.41439
0.416959
0.420491
0.42598
0.441218
0.481151
0.500891
0.506782
0.503919
0.510352
0.529057
0.567741
0.567213
0.557901
0.554417
0.551853
0.544392
0.525779
0.497015
0.468455
0.451386
0.442369
0.435293
0.42865
0.422702
0.417854
0.414521
0.412541
0.411353
0.410507
0.409814
0.409242
0.408838
0.4086
0.408614
0.408895
0.409425
0.410082
0.411088
0.412264
0.414371
0.416919
0.420436
0.426085
0.441448
0.481215
0.501078
0.50057
0.507743
0.52833
0.547106
0.551617
0.544146
0.541214
0.544657
0.54214
0.533065
0.514179
0.487512
0.463377
0.449683
0.441654
0.434703
0.428078
0.422275
0.417667
0.414516
0.412609
0.411431
0.410578
0.409882
0.409313
0.408915
0.408682
0.408702
0.40898
0.409504
0.410164
0.411163
0.412343
0.414371
0.416875
0.420389
0.426252
0.441749
0.481296
0.501273
0.506142
0.518381
0.529335
0.534213
0.528458
0.52857
0.530014
0.532986
0.530288
0.519782
0.500986
0.477201
0.458376
0.447914
0.440709
0.433905
0.427388
0.421806
0.417478
0.414537
0.412723
0.411562
0.410705
0.410007
0.40944
0.409047
0.408822
0.408847
0.409119
0.409634
0.410294
0.411286
0.412466
0.41441
0.416846
0.420375
0.426461
0.442119
0.481417
0.501543
0.512686
0.522318
0.523031
0.516263
0.509323
0.512498
0.519232
0.521086
0.516733
0.505319
0.487253
0.467584
0.454056
0.44606
0.439504
0.432901
0.426606
0.421326
0.417325
0.414612
0.412901
0.411765
0.410905
0.410205
0.409642
0.409253
0.409034
0.40906
0.409322
0.409822
0.410477
0.411456
0.412629
0.414495
0.41685
0.420388
0.426681
0.442487
0.481444
0.501737
0.520019
0.512898
0.501169
0.495116
0.495518
0.502989
0.508483
0.508156
0.502527
0.490736
0.474474
0.459871
0.450608
0.44429
0.438224
0.431845
0.425851
0.420926
0.417273
0.414791
0.413184
0.412076
0.411217
0.410516
0.409955
0.409571
0.409355
0.409376
0.409624
0.410105
0.41075
0.411714
0.412874
0.414671
0.416953
0.420504
0.427001
0.442993
0.481592
0.501809
0.518813
0.500082
0.4856
0.484261
0.486077
0.494302
0.497183
0.495247
0.488536
0.477124
0.464021
0.45418
0.447709
0.442451
0.436762
0.430689
0.425104
0.42061
0.417319
0.41507
0.413569
0.41249
0.411635
0.410934
0.410375
0.409994
0.409775
0.409782
0.410008
0.410461
0.411086
0.412026
0.413163
0.414895
0.417109
0.420676
0.427338
0.443405
0.481573
0.501953
0.519493
0.493947
0.476822
0.475617
0.479166
0.485146
0.485845
0.482757
0.475449
0.465547
0.456315
0.449987
0.445355
0.440791
0.4354
0.429669
0.424532
0.420504
0.417566
0.415538
0.414132
0.413082
0.412231
0.411531
0.410974
0.410593
0.410363
0.410345
0.410548
0.410966
0.411561
0.412469
0.413578
0.41525
0.417414
0.421001
0.427809
0.443985
0.481832
0.502161
0.518329
0.489765
0.470107
0.467665
0.473742
0.475584
0.475154
0.471227
0.464205
0.456931
0.451074
0.446913
0.443318
0.439126
0.433999
0.428689
0.424077
0.420511
0.417916
0.416089
0.414776
0.413757
0.412915
0.412221
0.411669
0.411286
0.411042
0.411002
0.411176
0.411558
0.41212
0.412996
0.414074
0.415698
0.417825
0.421411
0.428332
0.444594
0.482099
0.502561
0.516846
0.487221
0.465316
0.461041
0.467967
0.466777
0.465318
0.46115
0.455583
0.451068
0.447458
0.44466
0.441658
0.437663
0.43279
0.427939
0.423889
0.420774
0.418507
0.41686
0.415628
0.414639
0.413807
0.413119
0.412566
0.412174
0.411913
0.411848
0.411981
0.412322
0.412848
0.413688
0.414737
0.41632
0.418426
0.421992
0.429034
0.445413
0.482564
0.503212
0.516817
0.48642
0.462154
0.456031
0.460785
0.458854
0.456572
0.453347
0.449958
0.447378
0.445067
0.442926
0.440118
0.436232
0.431696
0.427388
0.42385
0.42114
0.419152
0.417662
0.416508
0.415558
0.414751
0.414084
0.413545
0.413156
0.41289
0.41281
0.412908
0.413215
0.413711
0.414524
0.415553
0.417113
0.419216
0.422771
0.429927
0.446425
0.483151
0.504074
0.517176
0.486805
0.459789
0.451938
0.453357
0.452036
0.45024
0.448522
0.446575
0.445067
0.443555
0.441776
0.439013
0.435158
0.430985
0.427258
0.424225
0.421905
0.420161
0.418807
0.417721
0.416802
0.416012
0.415354
0.414818
0.414424
0.414146
0.414045
0.414105
0.414376
0.414844
0.415632
0.416648
0.418193
0.420309
0.423867
0.431135
0.447685
0.483862
0.505177
0.517316
0.486852
0.457413
0.448045
0.447735
0.447449
0.446867
0.44607
0.44487
0.443893
0.442699
0.440943
0.438063
0.434398
0.430656
0.42745
0.424863
0.422877
0.421332
0.420087
0.419064
0.418194
0.417444
0.416814
0.416294
0.415903
0.415616
0.415492
0.415513
0.415756
0.416201
0.416973
0.417988
0.419539
0.421686
0.425269
0.432633
0.449122
0.484526
0.50639
0.517485
0.486912
0.455375
0.445227
0.445041
0.445387
0.445299
0.444891
0.444166
0.443549
0.442479
0.440536
0.437645
0.434372
0.431244
0.428584
0.426493
0.424873
0.423572
0.422467
0.421506
0.420637
0.419846
0.419155
0.418566
0.418112
0.417764
0.417582
0.417544
0.417752
0.418164
0.418915
0.419931
0.421493
0.423682
0.42732
0.434787
0.451076
0.485365
0.507696
0.517636
0.486944
0.454853
0.444744
0.444644
0.445152
0.445411
0.445184
0.444694
0.444098
0.442876
0.44083
0.438128
0.435246
0.432638
0.430488
0.428796
0.427433
0.426273
0.425236
0.424314
0.423475
0.422702
0.422001
0.421376
0.420875
0.420477
0.420257
0.420187
0.420379
0.420787
0.421559
0.422621
0.424245
0.426534
0.430295
0.437872
0.453694
0.48636
0.509103
0.518348
0.48804
0.456307
0.446379
0.446324
0.446945
0.447394
0.447245
0.446874
0.446172
0.444743
0.44263
0.440074
0.43756
0.435342
0.433522
0.432051
0.43083
0.429777
0.428824
0.427956
0.427146
0.4264
0.425747
0.425186
0.424763
0.424434
0.424298
0.42428
0.424483
0.424918
0.425728
0.426853
0.428571
0.430996
0.434919
0.442543
0.457463
0.487831
0.510839
0.518601
0.490184
0.461222
0.451741
0.451651
0.45206
0.452346
0.451982
0.451357
0.450241
0.448507
0.446326
0.443901
0.441623
0.439635
0.438009
0.436682
0.435556
0.434574
0.433717
0.433033
0.432495
0.432061
0.431728
0.431479
0.431373
0.431308
0.431403
0.431577
0.43198
0.432595
0.433579
0.43486
0.43673
0.439287
0.44328
0.45047
0.463454
0.489381
0.510839
0.504442
0.488974
0.469038
0.460514
0.460751
0.460794
0.460831
0.460132
0.45916
0.457825
0.45611
0.454325
0.452598
0.451132
0.449894
0.448896
0.448093
0.447447
0.446914
0.446491
0.446284
0.446274
0.446343
0.446443
0.44657
0.446832
0.447032
0.447428
0.447835
0.448508
0.449355
0.450505
0.451844
0.453608
0.455745
0.458913
0.464226
0.47339
0.487926
0.493488
0.353793
0.445498
0.476891
0.475623
0.477361
0.478055
0.478947
0.47936
0.479399
0.479269
0.47888
0.478583
0.478406
0.478485
0.478782
0.479291
0.479923
0.480639
0.481359
0.481963
0.482485
0.482906
0.483167
0.483321
0.483421
0.483626
0.483665
0.483971
0.484227
0.484702
0.485245
0.485952
0.486627
0.487408
0.488073
0.489198
0.490345
0.489279
0.446833
0.351631
0.322925
0.33842
0.480387
0.497101
0.499912
0.499682
0.500436
0.500334
0.500076
0.499743
0.499441
0.499377
0.499528
0.499938
0.500517
0.501171
0.50185
0.502576
0.503372
0.504089
0.504423
0.504365
0.504223
0.50414
0.504067
0.503984
0.504041
0.504168
0.504414
0.504891
0.50559
0.506567
0.507664
0.508866
0.510019
0.511391
0.511131
0.495783
0.3578
0.321466
0.322925
0.33842
0.480387
0.497101
0.499912
0.499682
0.500436
0.500334
0.500076
0.499743
0.499441
0.499377
0.499528
0.499938
0.500517
0.501171
0.50185
0.502576
0.503372
0.504089
0.504423
0.504365
0.504223
0.50414
0.504067
0.503984
0.504041
0.504168
0.504414
0.504891
0.50559
0.506567
0.507664
0.508866
0.510019
0.511391
0.511131
0.495783
0.3578
0.321466
0.353793
0.445498
0.476891
0.475623
0.477361
0.478055
0.478947
0.47936
0.479399
0.479269
0.47888
0.478583
0.478406
0.478485
0.478782
0.479291
0.479923
0.480639
0.481359
0.481963
0.482485
0.482906
0.483167
0.483321
0.483421
0.483626
0.483665
0.483971
0.484227
0.484702
0.485245
0.485952
0.486627
0.487408
0.488073
0.489198
0.490345
0.489279
0.446833
0.351631
0.504442
0.488974
0.469038
0.460514
0.460751
0.460794
0.460831
0.460132
0.45916
0.457825
0.45611
0.454325
0.452598
0.451132
0.449894
0.448896
0.448093
0.447447
0.446914
0.446491
0.446284
0.446274
0.446343
0.446443
0.44657
0.446832
0.447032
0.447428
0.447835
0.448508
0.449355
0.450505
0.451844
0.453608
0.455745
0.458913
0.464226
0.47339
0.487926
0.493488
0.518601
0.490184
0.461222
0.451741
0.451651
0.45206
0.452346
0.451982
0.451357
0.450241
0.448507
0.446326
0.443901
0.441623
0.439635
0.438009
0.436682
0.435556
0.434574
0.433717
0.433033
0.432495
0.432061
0.431728
0.431479
0.431373
0.431308
0.431403
0.431577
0.43198
0.432595
0.433579
0.43486
0.43673
0.439287
0.44328
0.45047
0.463454
0.489381
0.510839
0.518348
0.48804
0.456307
0.446379
0.446324
0.446945
0.447394
0.447245
0.446874
0.446172
0.444743
0.44263
0.440074
0.43756
0.435342
0.433522
0.432051
0.43083
0.429777
0.428824
0.427956
0.427146
0.4264
0.425747
0.425186
0.424763
0.424434
0.424298
0.42428
0.424483
0.424918
0.425728
0.426853
0.428571
0.430996
0.434919
0.442543
0.457463
0.487831
0.510839
0.517636
0.486944
0.454853
0.444744
0.444644
0.445152
0.445411
0.445184
0.444694
0.444098
0.442876
0.44083
0.438128
0.435246
0.432638
0.430488
0.428796
0.427433
0.426273
0.425236
0.424314
0.423475
0.422702
0.422001
0.421376
0.420875
0.420477
0.420257
0.420187
0.420379
0.420787
0.421559
0.422621
0.424245
0.426534
0.430295
0.437872
0.453694
0.48636
0.509103
0.517485
0.486912
0.455375
0.445227
0.445041
0.445387
0.445299
0.444891
0.444166
0.443549
0.442479
0.440536
0.437645
0.434372
0.431244
0.428584
0.426493
0.424873
0.423572
0.422467
0.421506
0.420637
0.419846
0.419155
0.418566
0.418112
0.417764
0.417582
0.417544
0.417752
0.418164
0.418915
0.419931
0.421493
0.423682
0.42732
0.434787
0.451076
0.485365
0.507696
0.517316
0.486852
0.457413
0.448045
0.447735
0.447449
0.446867
0.44607
0.44487
0.443893
0.442699
0.440943
0.438063
0.434398
0.430656
0.42745
0.424863
0.422877
0.421332
0.420087
0.419064
0.418194
0.417444
0.416814
0.416294
0.415903
0.415616
0.415492
0.415513
0.415756
0.416201
0.416973
0.417988
0.419539
0.421686
0.425269
0.432633
0.449122
0.484526
0.50639
0.517176
0.486805
0.459789
0.451938
0.453357
0.452036
0.45024
0.448522
0.446575
0.445067
0.443555
0.441776
0.439013
0.435158
0.430985
0.427258
0.424225
0.421905
0.420161
0.418807
0.417721
0.416802
0.416012
0.415354
0.414818
0.414424
0.414146
0.414045
0.414105
0.414376
0.414844
0.415632
0.416648
0.418193
0.420309
0.423867
0.431135
0.447685
0.483862
0.505177
0.516817
0.48642
0.462154
0.456031
0.460785
0.458854
0.456572
0.453347
0.449958
0.447378
0.445067
0.442926
0.440118
0.436232
0.431696
0.427388
0.42385
0.42114
0.419152
0.417662
0.416508
0.415558
0.414751
0.414084
0.413545
0.413156
0.41289
0.41281
0.412908
0.413215
0.413711
0.414524
0.415553
0.417113
0.419216
0.422771
0.429927
0.446425
0.483151
0.504074
0.516846
0.487221
0.465316
0.461041
0.467967
0.466777
0.465318
0.46115
0.455583
0.451068
0.447458
0.44466
0.441658
0.437663
0.43279
0.427939
0.423889
0.420774
0.418507
0.41686
0.415628
0.414639
0.413807
0.413119
0.412566
0.412174
0.411913
0.411848
0.411981
0.412322
0.412848
0.413688
0.414737
0.41632
0.418426
0.421992
0.429034
0.445413
0.482564
0.503212
0.518329
0.489765
0.470107
0.467665
0.473742
0.475584
0.475154
0.471227
0.464205
0.456931
0.451074
0.446913
0.443318
0.439126
0.433999
0.428689
0.424077
0.420511
0.417916
0.416089
0.414776
0.413757
0.412915
0.412221
0.411669
0.411286
0.411042
0.411002
0.411176
0.411558
0.41212
0.412996
0.414074
0.415698
0.417825
0.421411
0.428332
0.444594
0.482099
0.502561
0.519493
0.493947
0.476822
0.475617
0.479166
0.485146
0.485845
0.482757
0.475449
0.465547
0.456315
0.449987
0.445355
0.440791
0.4354
0.429669
0.424532
0.420504
0.417566
0.415538
0.414132
0.413082
0.412231
0.411531
0.410974
0.410593
0.410363
0.410345
0.410548
0.410966
0.411561
0.412469
0.413578
0.41525
0.417414
0.421001
0.427809
0.443985
0.481832
0.502161
0.518813
0.500082
0.4856
0.484261
0.486077
0.494302
0.497183
0.495247
0.488536
0.477124
0.464021
0.45418
0.447709
0.442451
0.436762
0.430689
0.425104
0.42061
0.417319
0.41507
0.413569
0.41249
0.411635
0.410934
0.410375
0.409994
0.409775
0.409782
0.410008
0.410461
0.411086
0.412026
0.413163
0.414895
0.417109
0.420676
0.427338
0.443405
0.481573
0.501953
0.520019
0.512898
0.501169
0.495116
0.495518
0.502989
0.508483
0.508156
0.502527
0.490736
0.474474
0.459871
0.450608
0.44429
0.438224
0.431845
0.425851
0.420926
0.417273
0.414791
0.413184
0.412076
0.411217
0.410516
0.409955
0.409571
0.409355
0.409376
0.409624
0.410105
0.41075
0.411714
0.412874
0.414671
0.416953
0.420504
0.427001
0.442993
0.481592
0.501809
0.512686
0.522318
0.523031
0.516263
0.509323
0.512498
0.519232
0.521086
0.516733
0.505319
0.487253
0.467584
0.454056
0.44606
0.439504
0.432901
0.426606
0.421326
0.417325
0.414612
0.412901
0.411765
0.410905
0.410205
0.409642
0.409253
0.409034
0.40906
0.409322
0.409822
0.410477
0.411456
0.412629
0.414495
0.41685
0.420388
0.426681
0.442487
0.481444
0.501737
0.506142
0.518381
0.529335
0.534213
0.528458
0.52857
0.530014
0.532986
0.530288
0.519782
0.500986
0.477201
0.458376
0.447914
0.440709
0.433905
0.427388
0.421806
0.417478
0.414537
0.412723
0.411562
0.410705
0.410007
0.40944
0.409047
0.408822
0.408847
0.409119
0.409634
0.410294
0.411286
0.412466
0.41441
0.416846
0.420375
0.426461
0.442119
0.481417
0.501543
0.50057
0.507743
0.52833
0.547106
0.551617
0.544146
0.541214
0.544657
0.54214
0.533065
0.514179
0.487512
0.463377
0.449683
0.441654
0.434703
0.428078
0.422275
0.417667
0.414516
0.412609
0.411431
0.410578
0.409882
0.409313
0.408915
0.408682
0.408702
0.40898
0.409504
0.410164
0.411163
0.412343
0.414371
0.416875
0.420389
0.426252
0.441749
0.481296
0.501273
0.506782
0.503919
0.510352
0.529057
0.567741
0.567213
0.557901
0.554417
0.551853
0.544392
0.525779
0.497015
0.468455
0.451386
0.442369
0.435293
0.42865
0.422702
0.417854
0.414521
0.412541
0.411353
0.410507
0.409814
0.409242
0.408838
0.4086
0.408614
0.408895
0.409425
0.410082
0.411088
0.412264
0.414371
0.416919
0.420436
0.426085
0.441448
0.481215
0.501078
0.507138
0.499484
0.486167
0.505665
0.562972
0.59198
0.576003
0.568071
0.562679
0.553355
0.533972
0.503803
0.472395
0.452745
0.442822
0.435637
0.429052
0.423031
0.417991
0.414526
0.412503
0.411315
0.410475
0.409784
0.40921
0.408803
0.408561
0.408571
0.408852
0.409385
0.41004
0.411052
0.412224
0.41439
0.416959
0.420491
0.42598
0.441218
0.481151
0.500891
)
;

boundaryField
{
    inlet
    {
        type            fixedValue;
        value           uniform 1;
    }
    outlet
    {
        type            zeroGradient;
    }
    obstacle
    {
        type            zeroGradient;
    }
    empty
    {
        type            empty;
    }
}


// ************************************************************************* //
