/*--------------------------------*- C++ -*----------------------------------*\
| =========                 |                                                 |
| \\      /  F ield         | OpenFOAM: The Open Source CFD Toolbox           |
|  \\    /   O peration     | Version:  v1912                                 |
|   \\  /    A nd           | Website:  www.openfoam.com                      |
|    \\/     M anipulation  |                                                 |
\*---------------------------------------------------------------------------*/
FoamFile
{
    version     2.0;
    format      ascii;
    class       volVectorField;
    location    "7.32";
    object      grad(p);
}
// * * * * * * * * * * * * * * * * * * * * * * * * * * * * * * * * * * * * * //

dimensions      [1 -2 -2 0 0 0 0];


internalField   nonuniform List<vector> 
1900
(
(63940.4 -0.0673735 0)
(-74112.8 0.197368 0)
(-4551.3 0.00982641 0)
(-507.485 0.0183833 0)
(-402.304 -0.647113 0)
(-254.863 1.49093 0)
(-126.528 1.11653 0)
(-15.1902 15.6281 0)
(58.0003 20.3142 0)
(850.503 -25.1922 0)
(63940.5 -0.150705 0)
(-74112.7 0.33698 0)
(-4551.48 0.0935605 0)
(-508.142 0.203779 0)
(-400.831 -0.55804 0)
(-253.1 3.44627 0)
(-112.391 2.51336 0)
(4.00746 8.14909 0)
(17.18 -23.1711 0)
(-11.0061 -73.4069 0)
(63940.6 2.84217e-10 0)
(-74112.6 -2.52243e-09 0)
(-4551.43 0 0)
(-508.137 2.4869e-10 0)
(-399.061 1.59872e-10 0)
(-251.792 -3.01981e-10 0)
(-121.826 -8.52651e-10 0)
(-40.8747 4.61853e-10 0)
(-23.5557 9.41469e-10 0)
(-144.699 7.28306e-10 0)
(63940.5 0.150705 0)
(-74112.7 -0.33698 0)
(-4551.48 -0.0935605 0)
(-508.142 -0.203779 0)
(-400.831 0.55804 0)
(-253.1 -3.44627 0)
(-112.391 -2.51336 0)
(4.00746 -8.14909 0)
(17.18 23.1711 0)
(-11.0061 73.4069 0)
(63940.4 0.0673735 0)
(-74112.8 -0.197368 0)
(-4551.3 -0.00982641 0)
(-507.485 -0.0183833 0)
(-402.304 0.647113 0)
(-254.863 -1.49093 0)
(-126.528 -1.11653 0)
(-15.1902 -15.6281 0)
(58.0003 -20.3142 0)
(850.503 25.1922 0)
(-12.1338 -729.237 8.44801e-12)
(-1530.26 -562.662 -9.92013e-12)
(-1474.04 -646.338 -1.24866e-11)
(754.406 -900.842 0)
(-18494.9 -7778.79 -5.43873e-11)
(-469.508 -892.568 8.31623e-12)
(-1018.57 -684.145 9.92013e-12)
(-1400.84 -751.443 1.24866e-11)
(-1917.78 -646.057 0)
(-17654.2 -7196.88 0)
(-784.543 1.93082e-10 0)
(-1078.76 9.34925e-10 0)
(-1325.87 -3.94746e-10 0)
(-1910.52 -1.00929e-10 0)
(-20359.3 -4.70523e-09 0)
(-469.508 892.568 8.31623e-12)
(-1018.57 684.145 9.92013e-12)
(-1400.84 751.443 1.24866e-11)
(-1917.78 646.057 0)
(-17654.2 7196.88 0)
(-12.1338 729.237 -2.50805e-11)
(-1530.26 562.662 -9.92013e-12)
(-1474.04 646.338 -1.24866e-11)
(754.406 900.842 -3.3554e-11)
(-18494.9 7778.79 5.43873e-11)
(-36931.6 10507 1.00023e-11)
(-11110.1 4099.6 -4.88744e-12)
(-5008.81 1877.14 0)
(-3133.5 1282.43 2.02202e-12)
(-1311.34 870.817 -6.83439e-13)
(-33035.3 13013.8 -5.15938e-12)
(-13027.6 3336.98 2.50545e-12)
(-5708.01 1075.23 0)
(-3401.76 779.25 -1.29377e-12)
(-2011.87 330.469 1.79904e-13)
(-34104 -1.57001e-10 0)
(-14157.8 -2.46716e-10 0)
(-5815.25 9.37522e-10 0)
(-3463.79 -1.74153e-10 5.26894e-13)
(-1981.24 4.35e-10 -3.59809e-13)
(-33035.3 -13013.8 -5.15938e-12)
(-13027.6 -3336.98 2.50545e-12)
(-5708.01 -1075.23 0)
(-3401.76 -779.25 -1.29377e-12)
(-2011.87 -330.469 1.79904e-13)
(-36931.6 -10507 5.15938e-12)
(-11110.1 -4099.6 -1.23467e-13)
(-5008.81 -1877.14 0)
(-3133.5 -1282.43 3.86225e-14)
(-1311.34 -870.817 6.83439e-13)
(-132.683 -1251.64 0)
(-259.923 -517.622 0)
(-296.453 81.8621 0)
(-564.808 298.92 0)
(-577.903 178.015 0)
(-23.0274 -168.846 0)
(1729.1 -327.693 0)
(2796.67 -275.32 0)
(1238.98 239.887 0)
(-71.2331 334.152 0)
(-169.728 306.912 0)
(-377.383 252.244 0)
(-745.413 252.145 0)
(-997.729 168.236 0)
(-1049.05 144.114 0)
(-1044.24 110.087 0)
(-1117.47 77.4364 0)
(-1068.08 54.5388 0)
(-693.785 23.9899 0)
(-290.476 3.68327 0)
(-123.818 -0.327582 0)
(-89.2288 0.823985 0)
(-77.2618 0.626713 0)
(-59.4653 -0.525696 0)
(-35.9819 -1.30089 0)
(-15.1375 -1.51491 0)
(-1.534 -1.43744 0)
(4.95396 -1.23826 0)
(9.4171 -1.10017 0)
(13.5353 -0.903145 0)
(16.6437 -0.797027 0)
(31.772 -0.553357 0)
(105.183 -0.769073 0)
(508.292 -1.24468 0)
(1099.38 -2.85192 0)
(1111.13 3.3206 0)
(657.62 -0.761998 0)
(470.881 21.9842 0)
(463.363 -0.652083 0)
(620.125 -1.51947 0)
(-581.112 -883.193 0)
(-41.3818 -522.825 0)
(-138.063 -87.4579 0)
(-517.678 222.215 0)
(-646.208 272.433 0)
(-109.821 -20.9714 0)
(1677.7 -146.847 0)
(2798.59 -306.017 0)
(1309.62 -110.787 0)
(-29.8374 16.3897 0)
(-164.478 33.8846 0)
(-358.393 51.9623 0)
(-742.001 321.3 0)
(-1006.58 251.288 0)
(-1040.58 111.181 0)
(-1046.59 47.4829 0)
(-1128.73 29.6765 0)
(-1079.27 23.1472 0)
(-700.36 10.8834 0)
(-292.59 1.54476 0)
(-123.957 -0.233571 0)
(-89.0983 0.487787 0)
(-77.416 0.33615 0)
(-59.6587 -0.236573 0)
(-36.0638 -0.586234 0)
(-15.1437 -0.651825 0)
(-1.50855 -0.611358 0)
(4.98422 -0.52861 0)
(9.44746 -0.474338 0)
(13.5613 -0.395438 0)
(16.6728 -0.35786 0)
(31.7672 -0.268815 0)
(105.086 -0.381219 0)
(508.03 -0.746659 0)
(1099.87 -1.62718 0)
(1111.11 1.55627 0)
(659.015 -1.78654 0)
(470.796 8.58894 0)
(462.003 -1.16368 0)
(620.196 1.13214 0)
(-451.763 -5.61167e-10 0)
(-28.4369 -7.58989e-10 0)
(-79.7138 1.07793e-09 0)
(-460.112 2.1397e-10 0)
(-648.649 -6.6573e-09 0)
(-145 -5.64801e-09 0)
(1646.18 -1.44733e-09 0)
(2807.16 -1.18653e-08 0)
(1332.77 -1.40574e-08 0)
(-29.1469 -6.10057e-08 0)
(-159.38 -6.73845e-08 0)
(-293.771 -4.25962e-08 0)
(-687.428 -5.22007e-09 0)
(-1058.85 -8.47807e-10 0)
(-1108.34 -1.47882e-08 0)
(-1067.95 -1.18531e-08 0)
(-1124.55 2.281e-10 0)
(-1073.55 4.33391e-09 0)
(-700.069 5.7994e-09 0)
(-293.71 2.93402e-09 0)
(-124.125 4.31574e-09 0)
(-89.063 1.3464e-09 0)
(-77.4725 -4.2461e-09 0)
(-59.7336 -6.64721e-09 0)
(-36.1027 -1.2273e-09 0)
(-15.1448 5.43807e-09 0)
(-1.49816 9.33597e-09 0)
(4.99382 1.10326e-08 0)
(9.45585 7.89066e-09 0)
(13.5692 3.88679e-09 0)
(16.6805 4.26326e-09 0)
(31.7652 1.71277e-09 0)
(105.044 -4.25417e-09 0)
(507.929 -7.29316e-09 0)
(1100.05 2.33954e-09 0)
(1111.08 -1.16472e-09 0)
(659.666 -8.16317e-09 0)
(471.062 -1.3686e-09 0)
(461.194 -1.5099e-09 0)
(620.134 -1.67139e-09 0)
(-581.112 883.193 0)
(-41.3818 522.825 0)
(-138.063 87.4579 0)
(-517.678 -222.215 0)
(-646.208 -272.433 0)
(-109.821 20.9714 0)
(1677.7 146.847 0)
(2798.59 306.017 0)
(1309.62 110.787 0)
(-29.8374 -16.3897 0)
(-164.478 -33.8846 0)
(-358.393 -51.9623 0)
(-742.001 -321.3 0)
(-1006.58 -251.288 0)
(-1040.58 -111.181 0)
(-1046.59 -47.4829 0)
(-1128.73 -29.6765 0)
(-1079.27 -23.1472 0)
(-700.36 -10.8834 0)
(-292.59 -1.54476 0)
(-123.957 0.233571 0)
(-89.0983 -0.487787 0)
(-77.416 -0.33615 0)
(-59.6587 0.236573 0)
(-36.0638 0.586234 0)
(-15.1437 0.651825 0)
(-1.50855 0.611358 0)
(4.98422 0.52861 0)
(9.44746 0.474338 0)
(13.5613 0.395438 0)
(16.6728 0.35786 0)
(31.7672 0.268815 0)
(105.086 0.381219 0)
(508.03 0.746659 0)
(1099.87 1.62718 0)
(1111.11 -1.55627 0)
(659.015 1.78654 0)
(470.796 -8.58894 0)
(462.003 1.16368 0)
(620.196 -1.13214 0)
(-132.683 1251.64 0)
(-259.923 517.622 0)
(-296.453 -81.8621 0)
(-564.808 -298.92 0)
(-577.903 -178.015 0)
(-23.0274 168.846 0)
(1729.1 327.693 0)
(2796.67 275.32 0)
(1238.98 -239.887 0)
(-71.2331 -334.152 0)
(-169.728 -306.912 0)
(-377.383 -252.244 0)
(-745.413 -252.145 0)
(-997.729 -168.236 0)
(-1049.05 -144.114 0)
(-1044.24 -110.087 0)
(-1117.47 -77.4364 0)
(-1068.08 -54.5388 0)
(-693.785 -23.9899 0)
(-290.476 -3.68327 0)
(-123.818 0.327582 0)
(-89.2288 -0.823985 0)
(-77.2618 -0.626713 0)
(-59.4653 0.525696 0)
(-35.9819 1.30089 0)
(-15.1375 1.51491 0)
(-1.534 1.43744 0)
(4.95396 1.23826 0)
(9.4171 1.10017 0)
(13.5353 0.903144 0)
(16.6437 0.797027 0)
(31.772 0.553357 0)
(105.183 0.769073 0)
(508.292 1.24468 0)
(1099.38 2.85192 0)
(1111.13 -3.3206 0)
(657.62 0.761998 0)
(470.881 -21.9842 0)
(463.363 0.652083 0)
(620.125 1.51947 0)
(-719.211 528.194 0)
(-625.161 170.748 0)
(-467.119 -150.399 0)
(-523.499 -277.077 0)
(-431.769 -42.6681 0)
(107.04 225.538 0)
(1685.06 500.347 0)
(2444.79 38.1051 0)
(1009 -704.19 0)
(-24.0167 -618.767 0)
(-107.028 -514.914 0)
(-302.081 -493.737 0)
(-685.361 -442.11 0)
(-949.042 -348.788 0)
(-994.303 -233.856 0)
(-1007.48 -151.132 0)
(-1106.91 -118.253 0)
(-1058.67 -96.703 0)
(-676.061 -44.3572 0)
(-279.781 -7.19749 0)
(-122.324 -0.0623615 0)
(-89.5461 -1.22251 0)
(-76.7477 -0.948145 0)
(-58.6731 0.726161 0)
(-35.538 2.12488 0)
(-15.0652 2.6225 0)
(-1.65264 2.51646 0)
(4.80765 2.16603 0)
(9.27236 1.91587 0)
(13.4012 1.58484 0)
(16.4872 1.35115 0)
(31.7443 0.945605 0)
(105.408 1.13638 0)
(509.034 1.75969 0)
(1097.58 3.54615 0)
(1109.78 -4.1158 0)
(648.921 -1.71617 0)
(470.629 -28.6194 0)
(475.175 -3.92625 0)
(618.915 4.01862 0)
(-673.528 53.1037 0)
(-717.988 206.767 0)
(-636.477 174.759 0)
(-483.146 124.851 0)
(-171.928 394.919 0)
(430.495 676.914 0)
(1572.1 897.462 0)
(1824.62 107.359 0)
(729.315 -663.306 0)
(85.8415 -642.765 0)
(-82.8665 -548.226 0)
(-347.605 -594.357 0)
(-637.938 -570.822 0)
(-823.156 -450.02 0)
(-887.937 -324.552 0)
(-952.557 -246.98 0)
(-1070.68 -209.882 0)
(-1001.92 -157.167 0)
(-617.038 -63.3002 0)
(-253.527 -9.8273 0)
(-118.861 -0.663784 0)
(-89.9122 -1.47491 0)
(-75.6596 -0.869705 0)
(-56.9288 1.26444 0)
(-34.3925 3.24582 0)
(-14.7989 4.08916 0)
(-1.91026 4.0097 0)
(4.45367 3.51154 0)
(8.93467 3.14118 0)
(13.063 2.66099 0)
(16.1116 2.26385 0)
(31.5798 1.65865 0)
(105.846 1.7822 0)
(510.216 2.71191 0)
(1094.69 3.92124 0)
(1106.78 -4.22279 0)
(638.673 -4.2747 0)
(468.886 -19.2934 0)
(488.48 -4.51893 0)
(620.685 3.00862 0)
(-468.79 34.2496 0)
(-507.93 161.453 0)
(-546.056 259.393 0)
(-311.344 371.85 0)
(100.219 627.291 0)
(591.309 757.165 0)
(1136.22 713.211 0)
(940.779 -25.7612 0)
(286.154 -586.747 0)
(86.8783 -534.845 0)
(-60.3806 -601.372 0)
(-323.855 -640.992 0)
(-546.272 -589.217 0)
(-711.727 -491.296 0)
(-798.647 -389.363 0)
(-896.983 -314.884 0)
(-1020.36 -273.591 0)
(-917.42 -198.031 0)
(-534.08 -73.1296 0)
(-219.422 -10.766 0)
(-114.275 -1.15034 0)
(-89.7445 -1.36199 0)
(-74.108 -0.210931 0)
(-54.7072 2.36583 0)
(-32.816 4.76845 0)
(-14.3291 5.89317 0)
(-2.20926 5.86287 0)
(3.97072 5.25514 0)
(8.45274 4.79021 0)
(12.5557 4.17018 0)
(15.5213 3.60835 0)
(31.2801 2.77834 0)
(106.423 2.91831 0)
(511.095 4.21924 0)
(1090.89 4.90483 0)
(1101.88 -3.72581 0)
(634.398 -5.41566 0)
(470.394 -9.09174 0)
(496.666 -1.2075 0)
(620.371 3.55186 0)
(-484.942 -14.804 0)
(-501.031 -44.0485 0)
(-433.73 82.1031 0)
(-128.626 311.764 0)
(199.376 459.075 0)
(513.29 460.092 0)
(817.641 269.43 0)
(571.929 -323.728 0)
(238.743 -450.982 0)
(71.7484 -473.553 0)
(-185.153 -584.279 0)
(-335.893 -601.574 0)
(-493.686 -581.73 0)
(-630.569 -518.166 0)
(-717.941 -424.945 0)
(-840.995 -358.163 0)
(-958.077 -320.494 0)
(-808.749 -216.786 0)
(-436.583 -70.2351 0)
(-184.166 -10.152 0)
(-109.799 -1.83208 0)
(-89.007 -1.25249 0)
(-72.0673 0.584212 0)
(-52.1305 3.64492 0)
(-30.9935 6.33358 0)
(-13.7443 7.62464 0)
(-2.52508 7.63091 0)
(3.42001 6.97184 0)
(7.88916 6.45481 0)
(11.9241 5.75049 0)
(14.7704 5.06326 0)
(30.9149 4.07907 0)
(107.235 4.20539 0)
(512.13 5.75128 0)
(1087.03 5.43476 0)
(1096.83 -3.99738 0)
(633.502 -6.2762 0)
(472.941 -4.5238 0)
(500.664 0.30928 0)
(618.426 2.7919 0)
(-525.503 -3.80045 0)
(-414.547 83.317 0)
(-203.183 308.951 0)
(51.9199 474.377 0)
(243.154 431.371 0)
(408.559 318.148 0)
(380.898 -34.446 0)
(246.564 -415.361 0)
(141.777 -430.93 0)
(-41.5711 -549.933 0)
(-183.746 -585.03 0)
(-321.399 -589.777 0)
(-465.897 -579.142 0)
(-560.644 -511.544 0)
(-644.462 -425.881 0)
(-796.331 -386.105 0)
(-884.124 -352.374 0)
(-676.261 -208.933 0)
(-334.959 -56.9766 0)
(-153.506 -8.48015 0)
(-105.699 -2.25067 0)
(-87.4161 -0.914873 0)
(-69.3886 1.70216 0)
(-49.1669 5.23492 0)
(-28.981 8.11298 0)
(-13.0789 9.49395 0)
(-2.83832 9.53577 0)
(2.83739 8.88688 0)
(7.2758 8.37043 0)
(11.2148 7.64715 0)
(13.9106 6.91636 0)
(30.4535 5.88681 0)
(108.034 6.13444 0)
(512.28 8.15677 0)
(1081.5 8.23631 0)
(1090.6 -1.32628 0)
(633.891 -4.65384 0)
(476.74 -0.924696 0)
(503.716 2.86503 0)
(617.382 2.98989 0)
(-408.317 46.6903 0)
(-199.653 237.835 0)
(-56.8913 331.637 0)
(-10.6574 216.752 0)
(48.8285 10.4673 0)
(64.4126 -189.307 0)
(110.805 -370.763 0)
(189.862 -361.26 0)
(109.065 -447.718 0)
(-76.7472 -548.966 0)
(-223.549 -572.045 0)
(-330.219 -591.233 0)
(-418.297 -554.941 0)
(-482.881 -472.66 0)
(-597.063 -417.858 0)
(-770.162 -413.581 0)
(-787.347 -357.09 0)
(-524.093 -172.031 0)
(-243.42 -40.4697 0)
(-131.43 -7.89056 0)
(-102.509 -3.24104 0)
(-85.1979 -0.824524 0)
(-66.1412 2.72803 0)
(-45.9528 6.67295 0)
(-26.8893 9.69624 0)
(-12.3732 11.1503 0)
(-3.11007 11.2369 0)
(2.29704 10.632 0)
(6.69451 10.1765 0)
(10.523 9.488 0)
(13.074 8.81694 0)
(30.1614 7.88117 0)
(109.422 8.14838 0)
(514.155 10.1558 0)
(1077.89 9.43457 0)
(1084.41 0.595709 0)
(633.889 -2.61405 0)
(480.187 1.0286 0)
(504.436 4.16881 0)
(612.784 2.35702 0)
(-251.324 -69.7687 0)
(-139.962 59.6977 0)
(-223.499 -115.021 0)
(-257.571 -231.942 0)
(-148.14 -307.69 0)
(41.1919 -306.331 0)
(215.197 -238.807 0)
(172.408 -351.787 0)
(-39.1033 -492.201 0)
(-161.378 -563.395 0)
(-224.476 -577.521 0)
(-304.916 -560.139 0)
(-351.636 -493.335 0)
(-428.546 -433.797 0)
(-587.531 -428.485 0)
(-737.773 -436.949 0)
(-651.358 -318.865 0)
(-371.154 -119.12 0)
(-176.788 -26.449 0)
(-117.631 -7.51796 0)
(-98.8903 -3.74293 0)
(-81.6641 -0.0118928 0)
(-62.1638 4.50769 0)
(-42.4521 8.80527 0)
(-24.6665 11.8609 0)
(-11.5943 13.2808 0)
(-3.33777 13.3724 0)
(1.81558 12.8178 0)
(6.1734 12.3746 0)
(9.90467 11.7487 0)
(12.3622 11.1844 0)
(29.8092 10.4129 0)
(110.226 10.7794 0)
(513.519 12.8795 0)
(1072.29 11.6781 0)
(1078.99 2.74823 0)
(634.308 -0.855901 0)
(483.276 2.15469 0)
(504.996 4.5619 0)
(611.094 2.01575 0)
(-418.021 -137.546 0)
(-243.259 -55.2467 0)
(-337.926 -194.161 0)
(-196.321 -150.716 0)
(-22.8558 -124.443 0)
(130.79 -134.795 0)
(67.0022 -275.509 0)
(-54.3167 -451.171 0)
(-94.8483 -541.217 0)
(-158.965 -538.928 0)
(-220.412 -542.576 0)
(-249.094 -489.319 0)
(-296.549 -431.327 0)
(-420.389 -419.784 0)
(-600.101 -450.95 0)
(-664.528 -421.766 0)
(-481.076 -236.643 0)
(-242.31 -71.2852 0)
(-135.876 -17.8427 0)
(-109.549 -7.12311 0)
(-95.2759 -2.92249 0)
(-77.2473 2.08627 0)
(-57.6446 7.2535 0)
(-38.8669 11.7602 0)
(-22.5765 14.7451 0)
(-10.9167 16.0354 0)
(-3.55625 16.1083 0)
(1.33551 15.6217 0)
(5.66424 15.1305 0)
(9.37602 14.633 0)
(11.7869 14.2289 0)
(29.7711 13.77 0)
(111.799 14.3456 0)
(515.021 16.4258 0)
(1068.13 14.959 0)
(1072.33 6.74084 0)
(633.317 2.87319 0)
(485.408 5.44856 0)
(504.302 6.75585 0)
(606.445 2.72706 0)
(-437.106 164.305 0)
(-194.518 32.8299 0)
(-315.496 68.8747 0)
(-190.389 47.9731 0)
(-132.798 -54.7073 0)
(-104.38 -228.397 0)
(-89.6743 -412.873 0)
(-83.638 -466.599 0)
(-123.669 -496.417 0)
(-162.688 -507.121 0)
(-176.671 -468.637 0)
(-197.712 -413.63 0)
(-284.63 -400.446 0)
(-447.456 -432.718 0)
(-589.441 -455.479 0)
(-531.259 -341.85 0)
(-313.622 -140.368 0)
(-160.31 -37.1278 0)
(-114.959 -11.1686 0)
(-103.254 -4.64834 0)
(-90.0158 0.937996 0)
(-71.8581 7.00939 0)
(-52.8417 12.4585 0)
(-35.233 16.7871 0)
(-20.5467 19.3938 0)
(-10.2807 20.3354 0)
(-3.73642 20.2313 0)
(0.873337 19.6748 0)
(5.22067 19.0931 0)
(9.03592 18.676 0)
(11.5306 18.4265 0)
(29.9217 18.3137 0)
(112.785 19.1141 0)
(514.11 21.1517 0)
(1062.95 19.2451 0)
(1067.34 11.3923 0)
(633.063 7.48203 0)
(487.018 9.22395 0)
(502.373 9.44655 0)
(601.955 4.4695 0)
(-228.055 202.689 0)
(-335.22 0.914191 0)
(-323.333 67.6303 0)
(-315.409 35.3072 0)
(-289.176 -124.129 0)
(-214.351 -290.571 0)
(-162.538 -390.718 0)
(-134.822 -448.455 0)
(-133.897 -461.937 0)
(-132.195 -436.841 0)
(-130.321 -387.501 0)
(-183.382 -368.556 0)
(-314.944 -399.794 0)
(-473.421 -443.788 0)
(-512.537 -399.68 0)
(-360.875 -217.966 0)
(-187.434 -69.0079 0)
(-117.809 -17.9001 0)
(-104.577 -5.57614 0)
(-97.883 -0.177678 0)
(-84.0421 5.93743 0)
(-66.1457 12.2093 0)
(-48.2225 17.5796 0)
(-32.1838 21.5894 0)
(-19.1572 23.767 0)
(-10.1097 24.3502 0)
(-4.19287 24.0648 0)
(0.238762 23.4042 0)
(4.70176 22.8113 0)
(8.73366 22.5329 0)
(11.4378 22.5727 0)
(30.4337 22.9455 0)
(114.534 23.946 0)
(515.148 25.572 0)
(1058.72 22.0705 0)
(1061 15.3731 0)
(631.227 13.0426 0)
(487.301 14.0105 0)
(499.721 12.3218 0)
(593.035 5.39894 0)
(-240.907 24.3099 0)
(-324.665 32.0496 0)
(-282.354 87.6314 0)
(-375.176 58.244 0)
(-446.825 -90.937 0)
(-361.275 -291.594 0)
(-241.817 -403.272 0)
(-152.267 -418.88 0)
(-112.478 -400.057 0)
(-90.9583 -358.652 0)
(-110.869 -333.603 0)
(-209.558 -357.792 0)
(-357.126 -406.172 0)
(-447.346 -406.335 0)
(-371.83 -277.233 0)
(-212.611 -108.956 0)
(-120.831 -30.4401 0)
(-99.1846 -7.50883 0)
(-97.8808 -0.79083 0)
(-92.1588 4.3657 0)
(-78.0792 10.6105 0)
(-60.6393 16.7265 0)
(-43.8027 21.7176 0)
(-29.2706 25.2143 0)
(-17.8863 26.9274 0)
(-9.99379 27.2762 0)
(-4.64802 26.9529 0)
(-0.334518 26.337 0)
(4.38101 25.9432 0)
(8.806 26.1201 0)
(11.9282 26.7447 0)
(31.245 27.9321 0)
(115.316 29.6992 0)
(512.303 31.7036 0)
(1053.13 28.3178 0)
(1058.64 23.4839 0)
(631.75 24.373 0)
(486.323 24.2298 0)
(494.075 20.1149 0)
(584.879 9.04754 0)
(-173.744 49.4742 0)
(-274.201 82.9513 0)
(-298.091 125.155 0)
(-487.484 21.61 0)
(-626.292 -105.637 0)
(-515.329 -315.239 0)
(-285.195 -384.355 0)
(-131.724 -360.272 0)
(-75.8596 -323.827 0)
(-68.1582 -294.412 0)
(-129.492 -310.247 0)
(-253.313 -359.598 0)
(-361.721 -381.157 0)
(-349.17 -297.71 0)
(-225.972 -139.566 0)
(-123.057 -39.4983 0)
(-89.6756 -3.21846 0)
(-89.2382 8.13704 0)
(-93.1346 13.8043 0)
(-86.8963 20.5229 0)
(-72.1308 28.7659 0)
(-55.4425 36.5917 0)
(-40.0433 43.1119 0)
(-27.1635 47.8096 0)
(-17.1703 50.629 0)
(-10.0851 52.2061 0)
(-5.09789 52.9845 0)
(-0.734284 53.4334 0)
(4.49273 53.9564 0)
(9.50601 55.2472 0)
(13.1839 56.5028 0)
(33.2809 58.6511 0)
(118.168 61.4101 0)
(513.817 66.4373 0)
(1050.8 72.6536 0)
(1057.2 76.0574 0)
(631.946 69.231 0)
(483.197 50.427 0)
(485.09 31.8474 0)
(564.933 10.9479 0)
(-113.297 42.629 0)
(-251.736 50.7685 0)
(-341.465 51.6869 0)
(-597.576 -31.3582 0)
(-771.425 -131.15 0)
(-629.857 -285.174 0)
(-285.213 -297.539 0)
(-93.9396 -267.177 0)
(-49.0118 -240.45 0)
(-77.8728 -239.829 0)
(-173.685 -275.702 0)
(-277.89 -303.842 0)
(-297.49 -255.891 0)
(-214.54 -127.118 0)
(-123.008 -12.2784 0)
(-81.2222 39.3417 0)
(-74.928 59.7605 0)
(-82.7809 68.9185 0)
(-85.9454 78.7576 0)
(-77.7413 91.8431 0)
(-62.5948 105.867 0)
(-46.815 119.161 0)
(-32.9927 130.904 0)
(-22.0268 140.615 0)
(-13.6496 148.359 0)
(-7.72395 155.091 0)
(-3.46529 159.659 0)
(0.602016 164.559 0)
(6.12883 168.794 0)
(11.2598 173.446 0)
(15.2083 175.969 0)
(35.9739 180.312 0)
(122.819 185.329 0)
(523.138 198.159 0)
(1062.4 229.563 0)
(1055.34 241.408 0)
(607.052 208.875 0)
(450.299 148.829 0)
(456.031 77.5989 0)
(543.64 16.7472 0)
(-83.7432 11.1371 0)
(-265.473 15.5773 0)
(-377.232 -12.782 0)
(-663.672 4.6463 0)
(-870.879 -60.9924 0)
(-675.668 -134.201 0)
(-267.853 -114.785 0)
(-76.7099 -92.3681 0)
(-49.5052 -78.0605 0)
(-102.129 -89.148 0)
(-191.177 -100.535 0)
(-234.222 -49.4679 0)
(-191.423 73.2472 0)
(-114.416 204.954 0)
(-65.5656 289.069 0)
(-53.6378 343.553 0)
(-61.1743 381.773 0)
(-70.9319 411.823 0)
(-71.0437 438.836 0)
(-60.773 465.196 0)
(-45.8067 491.507 0)
(-31.3156 518.205 0)
(-19.3693 541.556 0)
(-10.3435 561.504 0)
(-3.22084 577.482 0)
(0.803848 591.796 0)
(4.02662 601.104 0)
(8.0688 611.803 0)
(13.0565 619.308 0)
(16.4197 627.101 0)
(19.8001 629.313 0)
(42.3013 634.248 0)
(135.366 644.095 0)
(556.442 674.383 0)
(1092.48 744.608 0)
(1037.26 725.518 0)
(542.734 608.567 0)
(356.695 409.94 0)
(357.812 201.031 0)
(474.018 31.1659 0)
(-87.5541 -33.5248 0)
(-274.785 54.9911 0)
(-351.998 137.695 0)
(-644.033 330.898 0)
(-905.223 390.068 0)
(-681.694 362.696 0)
(-244.902 361.251 0)
(-58.5501 380.886 0)
(-45.9088 403.568 0)
(-99.5302 427.787 0)
(-135.448 480.583 0)
(-110.427 596.109 0)
(-52.3196 728.092 0)
(-6.56535 834.042 0)
(10.5519 903.952 0)
(8.11046 949.865 0)
(-9.14045 978.441 0)
(-27.793 1000.83 0)
(-34.5135 1020.1 0)
(-26.9855 1037.71 0)
(-11.5138 1054.87 0)
(1.4136 1070.69 0)
(8.73247 1079.54 0)
(12.5933 1086.18 0)
(15.5405 1089.93 0)
(15.0392 1093.51 0)
(15.8137 1094.76 0)
(18.1433 1096.36 0)
(20.8705 1095.79 0)
(20.9018 1095.48 0)
(22.0958 1092.8 0)
(50.2179 1090.24 0)
(161.495 1098.31 0)
(619.996 1119.93 0)
(1111.67 1128.34 0)
(924.247 1036.47 0)
(302.949 932.378 0)
(57.5822 726.932 0)
(91.031 397.88 0)
(319.887 103.334 0)
(-63.0574 -49.857 0)
(-100.479 190.596 0)
(-111.357 495.082 0)
(-420.475 846.278 0)
(-840.238 1024.82 0)
(-703.437 1043.94 0)
(-250.323 958.056 0)
(-35.9313 915.35 0)
(-4.31062 900.142 0)
(-27.914 920.155 0)
(-28.9752 977.479 0)
(4.28609 1060.15 0)
(37.8572 1121.13 0)
(55.0496 1151.37 0)
(46.0458 1158.55 0)
(18.1418 1145.43 0)
(-12.0622 1122.26 0)
(-30.7861 1103.42 0)
(-35.5048 1092.27 0)
(-27.2684 1085.45 0)
(-14.0239 1077.88 0)
(-7.54564 1068.58 0)
(-4.44136 1056.34 0)
(-0.332997 1043.9 0)
(3.8407 1031.92 0)
(5.46374 1021.71 0)
(6.77452 1013.86 0)
(9.05989 1005.41 0)
(12.2046 998.491 0)
(13.5342 991.25 0)
(14.7533 987.355 0)
(47.6182 983.761 0)
(163.976 976.642 0)
(585.374 967.749 0)
(1012.05 829.861 0)
(848.427 720.349 0)
(244.452 731.256 0)
(-158.367 690.877 0)
(-243.109 425.184 0)
(-8.97007 138.746 0)
(48.0675 -69.5628 0)
(250.338 238.672 0)
(279.841 569.974 0)
(-133.553 732.072 0)
(-714.746 852.776 0)
(-746.035 910.834 0)
(-368.819 829.32 0)
(-114.358 759.557 0)
(-41.2791 711.873 0)
(-25.0058 705.257 0)
(-0.538426 721.438 0)
(28.0053 737.432 0)
(35.5823 737.843 0)
(29.49 721.818 0)
(4.82853 693.968 0)
(-26.8636 664.197 0)
(-49.626 643.362 0)
(-56.6858 632.394 0)
(-51.8298 632.267 0)
(-40.859 640.421 0)
(-27.7764 651.738 0)
(-19.3408 642.354 0)
(-15.0492 628.364 0)
(-10.938 619.245 0)
(-5.83833 614.794 0)
(-2.35936 611.937 0)
(0.1037 610.273 0)
(3.32913 608.263 0)
(7.22749 607.566 0)
(10.1706 605.629 0)
(14.8792 606.042 0)
(39.8947 608.227 0)
(146.065 589.088 0)
(478.552 550.954 0)
(873.269 309.885 0)
(829.227 176.846 0)
(274.548 180.392 0)
(-237.36 303.153 0)
(-441.022 221.722 0)
(-223.536 -25.3225 0)
(99.9026 505.746 0)
(515.801 -336.669 0)
(364.1 168.845 0)
(-147.957 82.9838 0)
(-667.976 175.847 0)
(-726.04 326.321 0)
(-396.099 407.243 0)
(-149.108 422.415 0)
(-56.6367 416.692 0)
(-18.6965 422.168 0)
(2.02992 433.589 0)
(20.0939 433.417 0)
(22.8114 432.889 0)
(12.7709 425.168 0)
(-9.48027 415.453 0)
(-30.6246 412.439 0)
(-42.7081 417.802 0)
(-41.4771 428.948 0)
(-27.7703 443.557 0)
(-8.50588 457.761 0)
(-12.1606 471.065 0)
(-30.0693 474.368 0)
(-26.7104 480.231 0)
(-13.4099 484.52 0)
(-3.20179 488.742 0)
(1.10687 492.358 0)
(3.23446 495.402 0)
(6.45222 497.532 0)
(9.66661 499.274 0)
(12.0655 499.373 0)
(17.2561 499.541 0)
(31.2806 499.464 0)
(108.786 480.346 0)
(316.324 406.807 0)
(651.548 145.232 0)
(723.643 -133.719 0)
(366.166 -263.85 0)
(-118.539 -146.913 0)
(-559.64 -515.305 0)
(-198.228 13.6054 0)
(210.996 41472.2 0)
(-74.3128 -350.652 0)
(684.234 -490.851 0)
(-126.806 -491.898 0)
(-480.257 -338.131 0)
(-523.054 -67.4502 0)
(-276.219 121.243 0)
(-105.253 200.101 0)
(-41.5173 242.081 0)
(-8.72342 266.405 0)
(10.3011 291.068 0)
(27.3311 306.867 0)
(27.6334 321.557 0)
(12.6883 330.575 0)
(-7.43784 343.697 0)
(-24.6005 363.748 0)
(-33.7171 388.184 0)
(-31.8677 412.728 0)
(-24.064 431.378 0)
(-14.3511 439.732 0)
(-11.7734 437.902 0)
(-10.5082 452.082 0)
(-5.26632 472.616 0)
(-2.73618 486.241 0)
(1.71421 494.277 0)
(4.05792 498.092 0)
(5.09004 500.554 0)
(7.06037 501.4 0)
(9.00108 500.539 0)
(10.4282 498.321 0)
(14.9672 494.722 0)
(21.398 489.684 0)
(56.7774 472.432 0)
(155.624 391.531 0)
(352.399 172.629 0)
(435.021 -193.971 0)
(261.834 -440.843 0)
(-479.67 -564.453 0)
(-286.341 -319.347 0)
(259.919 28523 0)
(39726.1 -41885.7 0)
(-39921.3 441.495 0)
(227.99 -380.771 0)
(-0.791215 -505.153 0)
(-258.963 -248.359 0)
(-283.37 261.962 0)
(-138.277 588.496 0)
(-32.6642 692.099 0)
(7.2562 731.617 0)
(28.5097 727.653 0)
(41.021 711.084 0)
(49.474 674.394 0)
(45.6569 631.38 0)
(34.1054 598.338 0)
(22.4869 582.821 0)
(12.2454 582.721 0)
(4.49096 595.642 0)
(0.14606 613.05 0)
(-1.74905 628.561 0)
(-2.21959 639.838 0)
(-0.259046 645.757 0)
(3.38236 652.324 0)
(6.20622 653.152 0)
(7.46408 651.349 0)
(8.21835 648.245 0)
(7.15535 641.041 0)
(6.42201 636.609 0)
(6.43761 629.095 0)
(6.69929 622.602 0)
(6.46025 612.802 0)
(8.93323 605.076 0)
(9.80086 588 0)
(14.2028 572.7 0)
(27.4226 514.341 0)
(87.3365 382.746 0)
(132.478 58.0118 0)
(9.15629 -206.169 0)
(-1.46087 -223.204 0)
(27470.1 293.119 0)
(-27376.3 -28432.8 0)
(39726.1 41885.7 0)
(-39921.3 -441.495 0)
(227.99 380.771 0)
(-0.791215 505.153 0)
(-258.963 248.359 0)
(-283.37 -261.962 0)
(-138.277 -588.496 0)
(-32.6642 -692.099 0)
(7.2562 -731.617 0)
(28.5097 -727.653 0)
(41.021 -711.084 0)
(49.474 -674.394 0)
(45.6569 -631.38 0)
(34.1054 -598.338 0)
(22.4869 -582.821 0)
(12.2454 -582.721 0)
(4.49096 -595.642 0)
(0.14606 -613.05 0)
(-1.74905 -628.561 0)
(-2.21959 -639.838 0)
(-0.259046 -645.757 0)
(3.38236 -652.324 0)
(6.20622 -653.152 0)
(7.46408 -651.349 0)
(8.21835 -648.245 0)
(7.15535 -641.041 0)
(6.42201 -636.609 0)
(6.43761 -629.095 0)
(6.69929 -622.602 0)
(6.46025 -612.802 0)
(8.93323 -605.076 0)
(9.80086 -588 0)
(14.2028 -572.7 0)
(27.4226 -514.341 0)
(87.3365 -382.746 0)
(132.478 -58.0118 0)
(9.15629 206.169 0)
(-1.46087 223.204 0)
(27470.1 -293.119 0)
(-27376.3 28432.8 0)
(210.996 -41472.2 0)
(-74.3128 350.652 0)
(684.234 490.851 0)
(-126.806 491.898 0)
(-480.257 338.131 0)
(-523.054 67.4502 0)
(-276.219 -121.243 0)
(-105.253 -200.101 0)
(-41.5173 -242.081 0)
(-8.72342 -266.405 0)
(10.3011 -291.068 0)
(27.3311 -306.867 0)
(27.6334 -321.557 0)
(12.6883 -330.575 0)
(-7.43784 -343.697 0)
(-24.6005 -363.748 0)
(-33.7171 -388.184 0)
(-31.8677 -412.728 0)
(-24.064 -431.378 0)
(-14.3511 -439.732 0)
(-11.7734 -437.902 0)
(-10.5082 -452.082 0)
(-5.26632 -472.616 0)
(-2.73618 -486.241 0)
(1.71421 -494.277 0)
(4.05792 -498.092 0)
(5.09004 -500.554 0)
(7.06037 -501.4 0)
(9.00108 -500.539 0)
(10.4282 -498.321 0)
(14.9672 -494.722 0)
(21.398 -489.684 0)
(56.7774 -472.432 0)
(155.624 -391.531 0)
(352.399 -172.629 0)
(435.021 193.971 0)
(261.834 440.843 0)
(-479.67 564.453 0)
(-286.341 319.347 0)
(259.919 -28523 0)
(99.9026 -505.746 0)
(515.801 336.669 0)
(364.1 -168.845 0)
(-147.957 -82.9838 0)
(-667.976 -175.847 0)
(-726.04 -326.321 0)
(-396.099 -407.243 0)
(-149.108 -422.415 0)
(-56.6367 -416.692 0)
(-18.6965 -422.168 0)
(2.02992 -433.589 0)
(20.0939 -433.417 0)
(22.8114 -432.889 0)
(12.7709 -425.168 0)
(-9.48027 -415.453 0)
(-30.6246 -412.439 0)
(-42.7081 -417.802 0)
(-41.4771 -428.948 0)
(-27.7703 -443.557 0)
(-8.50588 -457.761 0)
(-12.1606 -471.065 0)
(-30.0693 -474.368 0)
(-26.7104 -480.231 0)
(-13.4099 -484.52 0)
(-3.20179 -488.742 0)
(1.10687 -492.358 0)
(3.23446 -495.402 0)
(6.45222 -497.532 0)
(9.66661 -499.274 0)
(12.0655 -499.373 0)
(17.2561 -499.541 0)
(31.2806 -499.464 0)
(108.786 -480.346 0)
(316.324 -406.807 0)
(651.548 -145.232 0)
(723.643 133.719 0)
(366.166 263.85 0)
(-118.539 146.913 0)
(-559.64 515.305 0)
(-198.228 -13.6054 0)
(48.0675 69.5628 0)
(250.338 -238.672 0)
(279.841 -569.974 0)
(-133.553 -732.072 0)
(-714.746 -852.776 0)
(-746.035 -910.834 0)
(-368.819 -829.32 0)
(-114.358 -759.557 0)
(-41.2791 -711.873 0)
(-25.0058 -705.257 0)
(-0.538426 -721.438 0)
(28.0053 -737.432 0)
(35.5823 -737.843 0)
(29.49 -721.818 0)
(4.82853 -693.968 0)
(-26.8636 -664.197 0)
(-49.626 -643.362 0)
(-56.6858 -632.394 0)
(-51.8298 -632.267 0)
(-40.859 -640.421 0)
(-27.7764 -651.738 0)
(-19.3408 -642.354 0)
(-15.0492 -628.364 0)
(-10.938 -619.245 0)
(-5.83833 -614.794 0)
(-2.35936 -611.937 0)
(0.1037 -610.273 0)
(3.32913 -608.263 0)
(7.22749 -607.566 0)
(10.1706 -605.629 0)
(14.8792 -606.042 0)
(39.8947 -608.227 0)
(146.065 -589.088 0)
(478.552 -550.954 0)
(873.269 -309.885 0)
(829.227 -176.846 0)
(274.548 -180.392 0)
(-237.36 -303.153 0)
(-441.022 -221.722 0)
(-223.536 25.3225 0)
(-63.0574 49.857 0)
(-100.479 -190.596 0)
(-111.357 -495.082 0)
(-420.475 -846.278 0)
(-840.238 -1024.82 0)
(-703.437 -1043.94 0)
(-250.323 -958.056 0)
(-35.9313 -915.35 0)
(-4.31062 -900.142 0)
(-27.914 -920.155 0)
(-28.9752 -977.479 0)
(4.28609 -1060.15 0)
(37.8572 -1121.13 0)
(55.0496 -1151.37 0)
(46.0458 -1158.55 0)
(18.1418 -1145.43 0)
(-12.0622 -1122.26 0)
(-30.7861 -1103.42 0)
(-35.5048 -1092.27 0)
(-27.2684 -1085.45 0)
(-14.0239 -1077.88 0)
(-7.54564 -1068.58 0)
(-4.44136 -1056.34 0)
(-0.332997 -1043.9 0)
(3.8407 -1031.92 0)
(5.46374 -1021.71 0)
(6.77452 -1013.86 0)
(9.05989 -1005.41 0)
(12.2046 -998.491 0)
(13.5342 -991.25 0)
(14.7533 -987.355 0)
(47.6182 -983.761 0)
(163.976 -976.642 0)
(585.374 -967.749 0)
(1012.05 -829.861 0)
(848.427 -720.349 0)
(244.452 -731.256 0)
(-158.367 -690.877 0)
(-243.109 -425.184 0)
(-8.97007 -138.746 0)
(-87.5541 33.5248 0)
(-274.785 -54.9911 0)
(-351.998 -137.695 0)
(-644.033 -330.898 0)
(-905.223 -390.068 0)
(-681.694 -362.696 0)
(-244.902 -361.251 0)
(-58.5501 -380.886 0)
(-45.9088 -403.568 0)
(-99.5302 -427.787 0)
(-135.448 -480.583 0)
(-110.427 -596.109 0)
(-52.3196 -728.092 0)
(-6.56535 -834.042 0)
(10.5519 -903.952 0)
(8.11046 -949.865 0)
(-9.14045 -978.441 0)
(-27.793 -1000.83 0)
(-34.5135 -1020.1 0)
(-26.9855 -1037.71 0)
(-11.5138 -1054.87 0)
(1.4136 -1070.69 0)
(8.73247 -1079.54 0)
(12.5933 -1086.18 0)
(15.5405 -1089.93 0)
(15.0392 -1093.51 0)
(15.8137 -1094.76 0)
(18.1433 -1096.36 0)
(20.8705 -1095.79 0)
(20.9018 -1095.48 0)
(22.0958 -1092.8 0)
(50.2179 -1090.24 0)
(161.495 -1098.31 0)
(619.996 -1119.93 0)
(1111.67 -1128.34 0)
(924.247 -1036.47 0)
(302.949 -932.378 0)
(57.5822 -726.932 0)
(91.031 -397.88 0)
(319.887 -103.334 0)
(-83.7432 -11.1371 0)
(-265.473 -15.5773 0)
(-377.232 12.782 0)
(-663.672 -4.6463 0)
(-870.879 60.9924 0)
(-675.668 134.201 0)
(-267.853 114.785 0)
(-76.7099 92.3681 0)
(-49.5052 78.0605 0)
(-102.129 89.148 0)
(-191.177 100.535 0)
(-234.222 49.4679 0)
(-191.423 -73.2472 0)
(-114.416 -204.954 0)
(-65.5656 -289.069 0)
(-53.6378 -343.553 0)
(-61.1743 -381.773 0)
(-70.9319 -411.823 0)
(-71.0437 -438.836 0)
(-60.773 -465.196 0)
(-45.8067 -491.507 0)
(-31.3156 -518.205 0)
(-19.3693 -541.556 0)
(-10.3435 -561.504 0)
(-3.22084 -577.482 0)