/*--------------------------------*- C++ -*----------------------------------*\
| =========                 |                                                 |
| \\      /  F ield         | OpenFOAM: The Open Source CFD Toolbox           |
|  \\    /   O peration     | Version:  v1912                                 |
|   \\  /    A nd           | Website:  www.openfoam.com                      |
|    \\/     M anipulation  |                                                 |
\*---------------------------------------------------------------------------*/
FoamFile
{
    version     2.0;
    format      ascii;
    class       volVectorField;
    location    "3.66";
    object      grad(p);
}
// * * * * * * * * * * * * * * * * * * * * * * * * * * * * * * * * * * * * * //

dimensions      [1 -2 -2 0 0 0 0];


internalField   nonuniform List<vector> 
1900
(
(91658.8 0.438483 0)
(-69024.3 -2.78446 0)
(-5972.7 -0.80428 0)
(-64.6895 -0.502498 0)
(-229.502 5.84175 0)
(-662.849 4.82227 0)
(-1037.58 -1.83796 0)
(-1152.72 -46.3184 0)
(-1000.05 -239.384 0)
(-1917.8 -564.246 0)
(91656.4 1.45558 0)
(-69025.5 -4.68055 0)
(-5970.42 -1.12422 0)
(-58.0435 -0.635711 0)
(-224.177 3.49743 0)
(-670.529 -9.53041 0)
(-1088.72 -15.2465 0)
(-1390.27 -50.8888 0)
(-1517.98 -214.469 0)
(-1981.33 -495.981 0)
(91655.5 -7.4607e-10 0)
(-69026.8 -6.07514e-09 0)
(-5968.66 -3.73035e-10 0)
(-60.0679 -2.84217e-10 0)
(-238.397 -7.28306e-10 0)
(-681.593 -1.45661e-09 0)
(-1078.94 -3.37508e-10 0)
(-1351.94 3.01981e-10 0)
(-1445.15 7.81597e-10 0)
(-1916.57 7.99361e-10 0)
(91656.4 -1.45558 0)
(-69025.5 4.68055 0)
(-5970.42 1.12422 0)
(-58.0435 0.635711 0)
(-224.177 -3.49743 0)
(-670.529 9.53041 0)
(-1088.72 15.2465 0)
(-1390.27 50.8888 0)
(-1517.98 214.469 0)
(-1981.33 495.981 0)
(91658.8 -0.438483 0)
(-69024.3 2.78446 0)
(-5972.7 0.80428 0)
(-64.6895 0.502498 0)
(-229.502 -5.84175 0)
(-662.849 -4.82227 0)
(-1037.58 1.83796 0)
(-1152.72 46.3184 0)
(-1000.05 239.384 0)
(-1917.8 564.246 0)
(-2314.77 -388.536 1.081e-11)
(-2314.62 -617.832 -1.28549e-11)
(-4100.51 -1187.19 -1.59419e-11)
(-12035.4 -866.142 0)
(-9600.89 6642.18 -5.85457e-11)
(-2227.37 -295.915 1.07398e-11)
(-2899.15 -556.398 1.28549e-11)
(-4056.43 -1041.34 1.59419e-11)
(-8096.07 -1041.25 0)
(-7487.15 5188.26 0)
(-2433.03 5.63157e-10 0)
(-3159.85 7.79104e-10 0)
(-4727.01 -1.15957e-09 0)
(-9211.9 -6.05576e-10 0)
(-4919.87 -3.75361e-09 0)
(-2227.37 295.915 1.07398e-11)
(-2899.15 556.398 1.28549e-11)
(-4056.43 1041.34 1.59419e-11)
(-8096.07 1041.25 0)
(-7487.15 -5188.26 0)
(-2314.77 388.536 -3.22896e-11)
(-2314.62 617.832 -1.28549e-11)
(-4100.51 1187.19 -1.59419e-11)
(-12035.4 866.142 -4.22895e-11)
(-9600.89 -6642.18 5.85457e-11)
(-36.5698 -3059.69 2.75987e-11)
(-7695.42 100.833 -2.10767e-11)
(-4279.08 655.694 0)
(-4561.49 696.484 1.4756e-11)
(-9261.59 -2351.73 -6.23687e-12)
(-2210.89 -3217.55 -1.37533e-11)
(-6757.79 151.389 1.05399e-11)
(-4051.2 669.424 0)
(-5842.78 -153.04 -9.23445e-12)
(-9281.72 -4088.31 1.51073e-12)
(-1513.75 -2.33259e-09 0)
(-6723.45 1.89782e-09 0)
(-4444.13 1.15134e-08 0)
(-6649.3 4.26674e-09 3.69194e-12)
(-9821.65 5.16806e-09 -3.02146e-12)
(-2210.89 3217.55 -1.37533e-11)
(-6757.79 -151.389 1.05399e-11)
(-4051.2 -669.424 0)
(-5842.78 153.04 -9.23445e-12)
(-9281.72 4088.31 1.51073e-12)
(-36.5698 3059.69 1.37533e-11)
(-7695.42 -100.833 -3.03676e-15)
(-4279.08 -655.694 0)
(-4561.49 -696.484 2.09758e-14)
(-9261.59 2351.73 6.23687e-12)
(-18838.5 -2225.02 0)
(-11325.7 4718.28 0)
(1971.42 2747.42 0)
(285.644 1680.95 0)
(-1429.76 933.723 0)
(-1479.57 410.621 0)
(-1029.45 173.04 0)
(-333.416 59.8986 0)
(-54.7744 54.1194 0)
(-57.6504 38.9532 0)
(-36.2729 29.9481 0)
(-55.2142 22.1054 0)
(-67.3736 18.1729 0)
(-77.0956 16.2112 0)
(-75.7321 14.977 0)
(-65.8271 14.0644 0)
(-53.2897 13.2898 0)
(-42.0106 12.6093 0)
(-37.2757 12.0295 0)
(-37.189 11.6761 0)
(-39.7954 11.435 0)
(-49.5132 11.2552 0)
(-59.4283 11.1793 0)
(-71.0974 11.1262 0)
(-90.775 11.1604 0)
(-118.423 11.2914 0)
(-157 11.5557 0)
(-208.956 11.9545 0)
(-275.422 12.5565 0)
(-354.58 13.1289 0)
(-434.916 13.6296 0)
(-499.688 13.4708 0)
(-515.361 12.3762 0)
(-477.538 12.7493 0)
(-382.855 10.3625 0)
(-295.137 16.5664 0)
(-226.525 11.6973 0)
(746.253 24.6838 0)
(37201.4 -23.185 0)
(-46643.1 -3876.13 0)
(-17302.8 -1234.31 0)
(-11216.6 6030.84 0)
(1464.82 2960.37 0)
(-49.888 1040.38 0)
(-1557.55 541.152 0)
(-1567.39 205.816 0)
(-1063.56 69.5926 0)
(-343.895 31.8508 0)
(-57.0441 15.8179 0)
(-58.6586 15.7357 0)
(-37.5893 10.7812 0)
(-56.0283 7.71635 0)
(-67.7671 5.87342 0)
(-77.2322 5.12628 0)
(-75.7958 4.74646 0)
(-65.8738 4.51572 0)
(-53.3402 4.33096 0)
(-42.0678 4.16163 0)
(-37.3256 3.99605 0)
(-37.2272 3.89211 0)
(-39.837 3.80418 0)
(-49.5595 3.70233 0)
(-59.4814 3.61019 0)
(-71.1578 3.50424 0)
(-90.8358 3.42686 0)
(-118.479 3.39535 0)
(-157.042 3.45792 0)
(-208.971 3.65487 0)
(-275.414 4.08727 0)
(-354.554 4.74426 0)
(-434.91 5.7196 0)
(-499.765 6.90718 0)
(-515.31 8.30543 0)
(-477.587 11.0486 0)
(-382.239 13.7741 0)
(-294.754 21.3154 0)
(-225.435 25.5567 0)
(743.058 37.2897 0)
(37092.5 18.5526 0)
(-46534.2 1801.58 0)
(-15786.8 1.18208e-08 0)
(-10105.4 6.73401e-09 0)
(519.653 6.29799e-09 0)
(-418.128 -3.19744e-09 0)
(-1672.54 8.39732e-09 0)
(-1616.75 2.22045e-08 0)
(-1080.06 1.9443e-08 0)
(-349.06 8.22049e-08 0)
(-59.4624 7.00127e-08 0)
(-59.1157 5.87409e-08 0)
(-38.6058 -3.25719e-08 0)
(-56.6419 -6.82686e-08 0)
(-68.1271 -7.1781e-08 0)
(-77.4234 -2.34237e-08 0)
(-75.9097 3.93705e-08 0)
(-65.948 7.75461e-08 0)
(-53.3927 8.31254e-08 0)
(-42.108 2.38436e-08 0)
(-37.3541 -6.11874e-08 0)
(-37.2448 -1.11571e-07 0)
(-39.8506 -5.37509e-08 0)
(-49.5697 7.1353e-08 0)
(-59.4859 7.13369e-08 0)
(-71.1508 4.18736e-08 0)
(-90.8067 5.91527e-08 0)
(-118.414 4.76952e-08 0)
(-156.924 3.77072e-09 0)
(-208.773 -9.41469e-09 0)
(-275.105 1.52201e-08 0)
(-354.105 6.86562e-08 0)
(-434.287 7.00773e-08 0)
(-498.936 3.92333e-08 0)
(-514.156 -5.11349e-08 0)
(-475.947 -1.17361e-07 0)
(-379.868 8.34e-08 0)
(-291.709 -7.67063e-09 0)
(-221.878 7.17083e-08 0)
(744.216 -5.16435e-08 0)
(37714.6 -1.10065e-06 0)
(-47172.6 -2.82441e-06 0)
(-17302.8 1234.31 0)
(-11216.6 -6030.84 0)
(1464.82 -2960.37 0)
(-49.888 -1040.38 0)
(-1557.55 -541.152 0)
(-1567.39 -205.816 0)
(-1063.56 -69.5926 0)
(-343.895 -31.8508 0)
(-57.0441 -15.8179 0)
(-58.6586 -15.7357 0)
(-37.5893 -10.7812 0)
(-56.0283 -7.71635 0)
(-67.7671 -5.87342 0)
(-77.2322 -5.12628 0)
(-75.7958 -4.74646 0)
(-65.8738 -4.51572 0)
(-53.3402 -4.33096 0)
(-42.0678 -4.16163 0)
(-37.3256 -3.99605 0)
(-37.2272 -3.89211 0)
(-39.837 -3.80418 0)
(-49.5595 -3.70233 0)
(-59.4814 -3.61019 0)
(-71.1578 -3.50424 0)
(-90.8358 -3.42686 0)
(-118.479 -3.39535 0)
(-157.042 -3.45792 0)
(-208.971 -3.65487 0)
(-275.414 -4.08727 0)
(-354.554 -4.74426 0)
(-434.91 -5.7196 0)
(-499.765 -6.90718 0)
(-515.31 -8.30543 0)
(-477.587 -11.0486 0)
(-382.239 -13.7741 0)
(-294.754 -21.3154 0)
(-225.435 -25.5567 0)
(743.058 -37.2897 0)
(37092.5 -18.5526 0)
(-46534.2 -1801.58 0)
(-18838.5 2225.02 0)
(-11325.7 -4718.28 0)
(1971.42 -2747.42 0)
(285.644 -1680.95 0)
(-1429.76 -933.723 0)
(-1479.57 -410.621 0)
(-1029.45 -173.04 0)
(-333.416 -59.8986 0)
(-54.7744 -54.1194 0)
(-57.6504 -38.9532 0)
(-36.2729 -29.9481 0)
(-55.2142 -22.1054 0)
(-67.3736 -18.1729 0)
(-77.0956 -16.2112 0)
(-75.7321 -14.977 0)
(-65.8271 -14.0644 0)
(-53.2897 -13.2898 0)
(-42.0106 -12.6093 0)
(-37.2757 -12.0295 0)
(-37.189 -11.6761 0)
(-39.7954 -11.435 0)
(-49.5132 -11.2552 0)
(-59.4283 -11.1793 0)
(-71.0974 -11.1262 0)
(-90.775 -11.1604 0)
(-118.423 -11.2914 0)
(-157 -11.5557 0)
(-208.956 -11.9545 0)
(-275.422 -12.5565 0)
(-354.58 -13.1289 0)
(-434.916 -13.6296 0)
(-499.688 -13.4708 0)
(-515.361 -12.3762 0)
(-477.538 -12.7493 0)
(-382.855 -10.3625 0)
(-295.137 -16.5664 0)
(-226.525 -11.6973 0)
(746.253 -24.6838 0)
(37201.4 23.185 0)
(-46643.1 3876.13 0)
(27547.6 5274.4 0)
(-14209.5 -3505.62 0)
(2784.3 -2066.11 0)
(699.836 -2236.74 0)
(-908.477 -1337.55 0)
(-1191.77 -722.723 0)
(-883.012 -326.141 0)
(-281.417 -120.332 0)
(-46.5299 -111.425 0)
(-44.6622 -79.3533 0)
(-28.5433 -60.2517 0)
(-49.5833 -44.5507 0)
(-64.5248 -37.2021 0)
(-75.3855 -33.0895 0)
(-74.5228 -30.3475 0)
(-64.8695 -28.2559 0)
(-52.4858 -26.4984 0)
(-41.3434 -24.9985 0)
(-36.798 -23.7651 0)
(-36.8985 -23.0099 0)
(-39.6211 -22.5336 0)
(-49.4525 -22.2458 0)
(-59.4619 -22.2091 0)
(-71.2157 -22.2691 0)
(-91.0097 -22.5513 0)
(-118.791 -23.065 0)
(-157.508 -23.8908 0)
(-209.616 -25.0668 0)
(-276.141 -26.6045 0)
(-355.197 -28.2508 0)
(-435.118 -29.6952 0)
(-499.069 -30.437 0)
(-514.798 -28.7235 0)
(-476.38 -29.5849 0)
(-383.922 -27.3779 0)
(-295.149 -35.1163 0)
(-229.266 -32.2676 0)
(761.243 -46.4515 0)
(39413.4 -96.9684 0)
(-48854.3 976.604 0)
(28338.6 4121.64 0)
(-16852.9 -1421.06 0)
(2758.28 -1537.61 0)
(765.603 -1909.72 0)
(-250.324 -1391.63 0)
(-659.273 -909.768 0)
(-527.489 -440.545 0)
(-154.392 -208.963 0)
(-19.7064 -173.374 0)
(-15.3028 -120.486 0)
(-6.88065 -91.5384 0)
(-36.0222 -70.2546 0)
(-57.8567 -59.9955 0)
(-71.4073 -53.5 0)
(-71.7227 -49.1182 0)
(-62.6316 -45.7505 0)
(-50.5818 -42.9741 0)
(-39.7345 -40.6205 0)
(-35.6155 -38.6861 0)
(-36.158 -37.5078 0)
(-39.1526 -36.7752 0)
(-49.2331 -36.3224 0)
(-59.4326 -36.2519 0)
(-71.3638 -36.333 0)
(-91.4161 -36.7231 0)
(-119.517 -37.5573 0)
(-158.656 -38.8052 0)
(-211.217 -40.6455 0)
(-278.104 -43.1728 0)
(-357.228 -46.011 0)
(-436.915 -48.2674 0)
(-499.084 -50.3666 0)
(-514.841 -48.3607 0)
(-476.862 -50.381 0)
(-387.612 -50.2041 0)
(-299.842 -59.4856 0)
(-235.978 -62.2798 0)
(675.867 -72.4674 0)
(37001.1 -267.942 0)
(-46305.1 -3145.37 0)
(30149.9 5919.37 0)
(-19663 -456.566 0)
(2313.41 -1202.18 0)
(840.509 -1431.7 0)
(55.1102 -1198.24 0)
(-275.27 -867.193 0)
(-207.691 -491.859 0)
(-23.9609 -296.991 0)
(38.7292 -239.063 0)
(34.1974 -161.444 0)
(19.8619 -127.142 0)
(-19.1875 -102.728 0)
(-48.3795 -89.373 0)
(-64.9037 -79.8231 0)
(-67.0551 -73.1543 0)
(-58.9488 -68.0656 0)
(-47.5423 -63.8946 0)
(-37.2113 -60.4868 0)
(-33.7986 -57.6913 0)
(-35.0571 -56.031 0)
(-38.4788 -55.0436 0)
(-48.9483 -54.4361 0)
(-59.4721 -54.4042 0)
(-71.6697 -54.5703 0)
(-92.1895 -55.2922 0)
(-120.798 -56.4673 0)
(-160.484 -58.519 0)
(-213.825 -61.2738 0)
(-281.311 -64.6732 0)
(-360.106 -69.0027 0)
(-439.315 -72.0584 0)
(-499.159 -75.2819 0)
(-514.812 -72.8499 0)
(-478.157 -76.0317 0)
(-392.696 -78.3799 0)
(-306.786 -89.4262 0)
(-241.776 -95.1028 0)
(563.06 -99.9617 0)
(36452.2 -355.141 0)
(-45565.1 -1861.79 0)
(33602.8 2232.6 0)
(-23715.4 -329.926 0)
(1818.6 -907.645 0)
(769.4 -1147.77 0)
(293.653 -1023.31 0)
(21.4191 -757.332 0)
(21.9786 -502.514 0)
(89.2113 -349.645 0)
(110.911 -278.557 0)
(92.5482 -202.236 0)
(49.7006 -163.756 0)
(0.373645 -136.77 0)
(-35.7847 -120.177 0)
(-55.7783 -107.928 0)
(-60.3928 -99.02 0)
(-53.7086 -91.8719 0)
(-43.2786 -86.251 0)
(-33.7568 -81.7606 0)
(-31.3217 -78.0936 0)
(-33.6065 -75.964 0)
(-37.6158 -74.7775 0)
(-48.617 -74.0417 0)
(-59.5619 -74.0684 0)
(-72.2195 -74.4353 0)
(-93.2442 -75.3962 0)
(-122.626 -77.4179 0)
(-163.288 -79.8633 0)
(-217.147 -83.721 0)
(-285.552 -88.7279 0)
(-364.344 -94.2072 0)
(-442.966 -97.6149 0)
(-499.846 -102.831 0)
(-515.564 -102.049 0)
(-482.19 -106.279 0)
(-400.52 -112.137 0)
(-315.957 -124.403 0)
(-246.131 -131.266 0)
(425.285 -131.479 0)
(35303.3 -464.541 0)
(-44168.7 -2825.61 0)
(31983.4 -1889.94 0)
(-22689 -397.455 0)
(1525.3 -827.934 0)
(729.051 -917.386 0)
(431.354 -858.599 0)
(226.586 -674.856 0)
(185.171 -504.426 0)
(191.852 -384.368 0)
(180.778 -307.131 0)
(144.824 -243.583 0)
(82.9472 -203.173 0)
(22.8068 -173.942 0)
(-20.5859 -154.603 0)
(-44.5157 -140.721 0)
(-51.5831 -128.79 0)
(-46.6441 -119.62 0)
(-37.7987 -112.394 0)
(-29.3506 -106.848 0)
(-28.2128 -102.275 0)
(-31.8615 -99.7032 0)
(-36.6264 -98.414 0)
(-48.2649 -97.5856 0)
(-59.8514 -97.7651 0)
(-72.9493 -98.369 0)
(-95.0636 -100.005 0)
(-125.103 -102.249 0)
(-166.558 -106.59 0)
(-222.367 -110.801 0)
(-291.416 -117.472 0)
(-368.67 -125.375 0)
(-447.625 -128.905 0)
(-503.432 -136.689 0)
(-518.134 -137.718 0)
(-487.877 -144.925 0)
(-410.162 -153.753 0)
(-325.219 -168.512 0)
(-248.595 -176.123 0)
(241.904 -176.455 0)
(33856.1 -612.202 0)
(-42394.6 -3812.88 0)
(31398.6 -747.229 0)
(-22692.1 -403.601 0)
(1317.58 -736.841 0)
(739.85 -763.674 0)
(527.363 -723.466 0)
(362.713 -614.305 0)
(301.904 -503.192 0)
(279.331 -413.259 0)
(246.577 -342.231 0)
(192.726 -287.203 0)
(116.81 -248.33 0)
(47.1774 -218.519 0)
(-3.77215 -197.393 0)
(-30.9032 -179.919 0)
(-40.0595 -165.663 0)
(-37.9097 -153.95 0)
(-30.9705 -144.939 0)
(-24.0053 -138.359 0)
(-24.4369 -132.809 0)
(-29.8861 -129.801 0)
(-35.5752 -128.541 0)
(-47.9917 -127.66 0)
(-60.3168 -128.105 0)
(-74.3783 -129.132 0)
(-96.9831 -131.518 0)
(-128.972 -135.117 0)
(-171.529 -139.87 0)
(-227.632 -147.124 0)
(-299.596 -154.697 0)
(-375.362 -164.135 0)
(-453.868 -166.896 0)
(-508.339 -179.01 0)
(-523.5 -179.935 0)
(-497.642 -187.287 0)
(-423.25 -194.555 0)
(-337.514 -211.599 0)
(-253.785 -214.407 0)
(5.06387 -213.122 0)
(31799.1 -698.53 0)
(-39904.6 -4696.12 0)
(30874.4 -1639.5 0)
(-22679 -432.7 0)
(1178.32 -671.262 0)
(741.939 -707.296 0)
(575.292 -673.403 0)
(438.85 -607.817 0)
(378.907 -529.061 0)
(346.961 -455.542 0)
(302.25 -393.019 0)
(235.31 -344.578 0)
(149.133 -306.788 0)
(71.8917 -276.284 0)
(16.6106 -252.09 0)
(-13.9397 -230.879 0)
(-26.5586 -214.122 0)
(-26.6732 -199.409 0)
(-22.7749 -188.741 0)
(-17.6624 -181.064 0)
(-19.9659 -174.5 0)
(-27.7489 -171.046 0)
(-34.5628 -169.961 0)
(-47.8441 -169.096 0)
(-61.2703 -169.901 0)
(-76.2384 -171.787 0)
(-100.831 -174.717 0)
(-133.151 -180.138 0)
(-178.128 -186.21 0)
(-236.655 -196.643 0)
(-307.809 -204.08 0)
(-380.425 -221.531 0)
(-461.959 -223.549 0)
(-515.997 -241.068 0)
(-526.11 -248.211 0)
(-501.966 -257.625 0)
(-433.59 -269.257 0)
(-344.349 -292.327 0)
(-250.062 -304.626 0)
(-224.614 -301.761 0)
(29536.1 -738.944 0)
(-37196.1 -5259.21 0)
(29401.7 -2732.19 0)
(-21759 -468.773 0)
(1052.97 -617.005 0)
(737.787 -664.893 0)
(623.224 -638.396 0)
(501.807 -598.111 0)
(448.642 -541.34 0)
(410.427 -483.284 0)
(353.506 -436.39 0)
(275.821 -399.827 0)
(182.62 -369.031 0)
(99.8859 -345.068 0)
(39.9818 -319.999 0)
(5.6839 -298.319 0)
(-9.7342 -278.067 0)
(-13.4515 -261.415 0)
(-13.2924 -248.732 0)
(-10.282 -240.049 0)
(-14.7829 -232.601 0)
(-25.512 -228.796 0)
(-33.6965 -227.917 0)
(-47.9337 -227.114 0)
(-62.9094 -228.458 0)
(-79.0196 -231.108 0)
(-105.03 -235.646 0)
(-140.046 -241.276 0)
(-187.434 -250.155 0)
(-244.853 -258.49 0)
(-323.579 -265.993 0)
(-394.123 -280.553 0)
(-472.695 -283.983 0)
(-532.104 -300.545 0)
(-539.455 -309.929 0)
(-517.922 -319.109 0)
(-456.69 -338.453 0)
(-371.597 -365.092 0)
(-262.875 -397.207 0)
(-413.46 -394.891 0)
(27022 -695.752 0)
(-34124.5 -5697.82 0)
(27789.9 -3136.7 0)
(-20640.7 -486.415 0)
(989.327 -581.371 0)
(721.326 -646.368 0)
(639.646 -667.828 0)
(532.377 -649.504 0)
(489.559 -605.234 0)
(448.094 -563.976 0)
(382.673 -526.401 0)
(300.22 -496.245 0)
(201.9 -466.871 0)
(119.141 -439.591 0)
(61.6604 -411.284 0)
(26.4679 -384.469 0)
(9.00326 -360.103 0)
(1.59478 -341.375 0)
(-2.18635 -326.777 0)
(-2.11844 -317.285 0)
(-9.12187 -309.394 0)
(-23.2352 -305.529 0)
(-32.9423 -304.669 0)
(-48.3653 -304.016 0)
(-65.1185 -306.019 0)
(-83.1648 -309.437 0)
(-110.63 -315.424 0)
(-147.133 -322.962 0)
(-194.716 -333.115 0)
(-251.916 -347.083 0)
(-329.069 -355.946 0)
(-397.761 -376.287 0)
(-481.225 -386.913 0)
(-541 -404.395 0)
(-543.999 -414.269 0)
(-529.453 -420.559 0)
(-477.901 -438.813 0)
(-400.967 -463.554 0)
(-278.778 -492.832 0)
(-512.303 -495.138 0)
(24426 -599.536 0)
(-31035 -5861.86 0)
(25910.3 -3543.22 0)
(-19296.6 -521.453 0)
(898.832 -608.029 0)
(654.474 -680.008 0)
(620.202 -728.408 0)
(562.125 -717.539 0)
(531.06 -676.072 0)
(486.392 -647.227 0)
(418.774 -613.155 0)
(333.187 -587.187 0)
(237.213 -552.917 0)
(153.451 -524.083 0)
(93.0995 -496.699 0)
(55.0039 -470.985 0)
(31.793 -449.181 0)
(18.6626 -430.973 0)
(9.921 -417.227 0)
(6.46895 -407.935 0)
(-3.45386 -400.394 0)
(-20.959 -396.631 0)
(-32.2391 -395.694 0)
(-49.2339 -395.196 0)
(-68.1331 -397.257 0)
(-88.0833 -400.625 0)
(-118.064 -405.236 0)
(-157.093 -412.254 0)
(-210.678 -419.145 0)
(-266.854 -433.88 0)
(-351.721 -440.635 0)
(-423.963 -467.506 0)
(-499.781 -487.143 0)
(-558.466 -502.941 0)
(-555.032 -514.216 0)
(-541.574 -519.502 0)
(-498.12 -531.934 0)
(-423.651 -553.675 0)
(-293.311 -572.15 0)
(-516.285 -581.61 0)
(21850.4 -555.572 0)
(-27898.1 -5784.4 0)
(23873 -3766.24 0)
(-17812.3 -529.166 0)
(836.538 -604.057 0)
(605.325 -653.029 0)
(603.48 -702.037 0)
(582.81 -704.048 0)
(557.314 -689.785 0)
(508.722 -683.931 0)
(440.53 -670.858 0)
(358.268 -663.384 0)
(262.71 -635.553 0)
(173.314 -614.989 0)
(112.827 -583.828 0)
(72.2585 -556.575 0)
(47.5603 -533.65 0)
(32.387 -514.864 0)
(20.0145 -501.969 0)
(14.1018 -493.118 0)
(1.77091 -486.586 0)
(-18.7057 -482.94 0)
(-31.5602 -481.895 0)
(-49.8714 -481.701 0)
(-70.35 -483.573 0)
(-90.8539 -486.932 0)
(-121.835 -491.035 0)
(-160.536 -498.108 0)
(-215.555 -505.437 0)
(-272.624 -517.863 0)
(-361.473 -524.066 0)
(-442.578 -539.707 0)
(-515.371 -553.165 0)
(-567.088 -552.319 0)
(-559.958 -552.255 0)
(-546.526 -549.263 0)
(-510.832 -551.373 0)
(-439.721 -563.856 0)
(-305.696 -573.763 0)
(-496.328 -578.164 0)
(19412.4 -520.679 0)
(-24925.6 -5515.3 0)
(21771.1 -3785.24 0)
(-16249.4 -517.759 0)
(779.473 -597.455 0)
(560.057 -635.531 0)
(571.038 -676.386 0)
(573.932 -687.218 0)
(550.446 -700.893 0)
(504.631 -710.545 0)
(438.573 -714.202 0)
(367.208 -712.766 0)
(283.849 -691.777 0)
(203.296 -669.009 0)
(149.389 -634.668 0)
(103.357 -606.692 0)
(71.9876 -582.085 0)
(49.1914 -564.829 0)
(30.8755 -554.109 0)
(21.2926 -547.999 0)
(6.35453 -544.192 0)
(-16.4387 -541.912 0)
(-31.045 -540.604 0)
(-50.8508 -539.39 0)
(-73.1739 -539.206 0)
(-95.274 -539.752 0)
(-128.833 -542.321 0)
(-170.972 -547.455 0)
(-229.715 -555.371 0)
(-284.805 -566.303 0)
(-372.771 -569.341 0)
(-452.004 -582.977 0)
(-511.935 -588.283 0)
(-557.589 -578.61 0)
(-552.087 -570.416 0)
(-540.724 -562.282 0)
(-512.182 -558.215 0)
(-445.227 -562.571 0)
(-307.098 -565.79 0)
(-465.131 -564.683 0)
(17092.8 -503.339 0)
(-22081.6 -5157.18 0)
(19726.5 -3743.84 0)
(-14740.4 -494.638 0)
(723.048 -575.471 0)
(529.264 -617.334 0)
(553.673 -644.259 0)
(559.194 -650.643 0)
(534.835 -676.851 0)
(495.897 -688.467 0)
(438.39 -696.799 0)
(379.877 -690.295 0)
(304.876 -667.96 0)
(228.346 -649.394 0)
(172.878 -621.5 0)
(122.929 -596.85 0)
(87.9012 -575.806 0)
(59.3458 -560.547 0)
(36.2323 -550.44 0)
(23.6586 -545.046 0)
(7.6364 -541.997 0)
(-15.2489 -540.22 0)
(-29.1298 -538.684 0)
(-48.5242 -537.255 0)
(-70.6981 -536.638 0)
(-93.8557 -535.952 0)
(-129.258 -537.433 0)
(-173.111 -540.039 0)
(-233.718 -542.949 0)
(-286.087 -551.68 0)
(-377.541 -551.284 0)
(-460.831 -560.153 0)
(-511.162 -565.174 0)
(-549.871 -559.769 0)
(-544.224 -553.299 0)
(-534.768 -547.733 0)
(-511.11 -544.712 0)
(-447.02 -546.811 0)
(-307.732 -548.504 0)
(-436.148 -546.955 0)
(14986.9 -488.365 0)
(-19470.9 -4825.21 0)
(17686.8 -3627 0)
(-13196.3 -477.032 0)
(661.239 -555.474 0)
(493.77 -595.527 0)
(538.94 -621.241 0)
(542.525 -628.87 0)
(513.997 -651.988 0)
(485.408 -661.373 0)
(436.811 -670.339 0)
(394.998 -656.686 0)
(323.263 -630.202 0)
(248.066 -604.243 0)
(200.023 -570.986 0)
(147.39 -547.504 0)
(106.97 -524.232 0)
(73.6344 -506.831 0)
(45.8134 -494.628 0)
(29.429 -487.576 0)
(11.0048 -484.141 0)
(-13.246 -483.275 0)
(-28.1877 -481.612 0)
(-48.8794 -479.124 0)
(-71.9185 -478.579 0)
(-96.0403 -479.487 0)
(-132.772 -482.885 0)
(-176.287 -488.891 0)
(-240.932 -492.864 0)
(-292.838 -504.749 0)
(-380.936 -509.275 0)
(-465.388 -523.224 0)
(-511.564 -534.282 0)
(-546.147 -533.975 0)
(-540.488 -531.555 0)
(-532.449 -529.551 0)
(-511.294 -529.118 0)
(-448.881 -531.624 0)
(-307.237 -533.75 0)
(-407.179 -532.793 0)
(12970.1 -476.003 0)
(-16961.2 -4458.86 0)
(15771.7 -3566.87 0)
(-11780.6 -443.963 0)
(608.862 -521.412 0)
(465.89 -567.102 0)
(521.542 -590.336 0)
(529.565 -601.496 0)
(503.514 -612.445 0)
(478.213 -614.149 0)
(442.906 -620.186 0)
(418.555 -598.026 0)
(355.412 -564.368 0)
(285.409 -526.569 0)
(227.553 -482.686 0)
(167.983 -457.124 0)
(127.095 -432.065 0)
(87.8737 -412.89 0)
(54.787 -399.09 0)
(33.7638 -389.578 0)
(11.7809 -383.129 0)
(-12.8114 -379.979 0)
(-25.1297 -377.854 0)
(-45.6016 -377.173 0)
(-71.0471 -379.626 0)
(-98.0052 -383.312 0)
(-138.321 -389.329 0)
(-182.728 -399.338 0)
(-249 -406.318 0)
(-301.901 -424.878 0)
(-395.344 -439.265 0)
(-484.928 -464.166 0)
(-521.522 -484.556 0)
(-547.244 -491.646 0)
(-539.96 -495.247 0)
(-532.42 -497.028 0)
(-513.109 -499.155 0)
(-451.484 -500.403 0)
(-308.858 -505.201 0)
(-380.5 -499.027 0)
(11203.6 -439.304 0)
(-14715.5 -4134.78 0)
(13821.8 -3131.07 0)
(-10261.5 -357.346 0)
(542.577 -448.542 0)
(427.353 -498.958 0)
(505.796 -517.146 0)
(521.22 -527.211 0)
(501.804 -529.428 0)
(477.949 -525.492 0)
(452.348 -522.22 0)
(448.787 -500.76 0)
(392.122 -464.857 0)
(326.778 -421.715 0)
(266.942 -383.099 0)
(196.171 -359.429 0)
(149.595 -338.558 0)
(105.41 -322.515 0)
(68.2776 -310.342 0)
(44.8097 -300.774 0)
(20.2548 -293.961 0)
(-8.16281 -290.362 0)
(-25.4836 -287.977 0)
(-50.5866 -288.017 0)
(-77.8341 -291.867 0)
(-105.391 -296.987 0)
(-148.215 -303.168 0)
(-192.658 -312.534 0)
(-265.543 -317.176 0)
(-324.587 -336.195 0)
(-418.795 -350.441 0)
(-509.032 -374.181 0)
(-538.045 -397.853 0)
(-556.449 -409.097 0)
(-545.675 -416.537 0)
(-536.214 -420.239 0)
(-514.546 -423.446 0)
(-454.707 -425.866 0)
(-305.911 -426.126 0)
(-343.678 -405.532 0)
(9466.56 -335.774 0)
(-12553.5 -3419.52 0)
(12410.1 -2754.69 0)
(-9195.62 -156.209 0)
(472.399 -239.703 0)
(399.78 -320.526 0)
(494.316 -356.064 0)
(517.73 -377.855 0)
(505.17 -378.208 0)
(485.158 -375.646 0)
(466.738 -363.736 0)
(473.832 -334.201 0)
(431.583 -314.874 0)
(364.193 -285.524 0)
(287.574 -266.523 0)
(210.905 -260.983 0)
(162.667 -252.356 0)
(115.063 -247.549 0)
(75.7371 -243.03 0)
(49.5492 -235.619 0)
(21.8146 -227.554 0)
(-7.04536 -220.99 0)
(-22.8698 -219.522 0)
(-49.3499 -223.507 0)
(-79.6909 -228.807 0)
(-108.895 -232.632 0)
(-153.302 -233.276 0)
(-196.227 -234.332 0)
(-271.801 -228.965 0)
(-333.957 -235.436 0)
(-431.949 -239.908 0)
(-530.616 -248.459 0)
(-555.168 -259.932 0)
(-565.248 -263.967 0)
(-550.697 -267.516 0)
(-539.078 -267.375 0)
(-518.531 -267.961 0)
(-454.066 -265.495 0)
(-289.263 -249.243 0)
(-293.435 -205.717 0)
(8299.22 -126.273 0)
(-11096.8 -2792.04 0)
(11016.8 3813.03 0)
(-7838.01 248.59 0)
(384.235 -101.218 0)
(315.223 -250.493 0)
(450.552 -341.369 0)
(499.88 -403.773 0)
(503.933 -449.847 0)
(491.895 -490.131 0)
(492.287 -517.955 0)
(495.872 -524.428 0)
(439.029 -495.097 0)
(373.371 -363.007 0)
(290.591 -106.51 0)
(209.822 169.808 0)
(162.541 459.964 0)
(114.397 681.556 0)
(79.7731 852.062 0)
(59.7229 951.226 0)
(34.3523 1004.75 0)
(-0.422592 999.3 0)
(-27.9093 1000.22 0)
(-59.5341 1009.1 0)
(-86.6273 959.45 0)
(-109.698 863.559 0)
(-149.853 704.35 0)
(-188.503 476.31 0)
(-266.608 229.106 0)
(-335.133 -69.6672 0)
(-431.344 -299.252 0)
(-528.328 -425.966 0)
(-552.989 -466.202 0)
(-563.758 -449.477 0)
(-548.959 -421.567 0)
(-536.643 -390.553 0)
(-512.735 -358.964 0)
(-436.669 -323.98 0)
(-248.307 -269.884 0)
(-225.18 -184.303 0)
(6974.29 176.922 0)
(-9741.3 4073.73 0)
(16324.1 153740 0)
(-12967.5 13819 0)
(-8.53562 8322.46 0)
(168.362 9647.64 0)
(346.61 10879 0)
(413.197 12711.6 0)
(421.953 14589.1 0)
(419.528 16773.6 0)
(433.688 19067.7 0)
(495.859 21623.8 0)
(587.135 24247.6 0)
(738.649 26995.3 0)
(801.014 29645.5 0)
(756.78 32205 0)
(655.806 34512.4 0)
(492.904 36512.2 0)
(335.602 37933.8 0)
(196.688 39131.4 0)
(68.1398 39634.2 0)
(-11.4167 40189.2 0)
(-13.4278 40191.1 0)
(-88.6344 39619.5 0)
(-219.938 39115.8 0)
(-354.718 37884.5 0)
(-526.469 36483.9 0)
(-654.188 34410.2 0)
(-797.925 32126.3 0)
(-843.102 29526.2 0)
(-775.291 26831 0)
(-691.496 24092.9 0)
(-577.824 21414 0)
(-522.236 18820 0)
(-493.916 16448.1 0)
(-478.751 14172.5 0)
(-454.378 12194.6 0)
(-368.226 10237.4 0)
(-154.665 8910.23 0)
(137.124 7410.47 0)
(12402.4 12458.8 0)
(-15192.8 143941 0)
(172483 -178843 0)
(-147968 -17089 0)
(-3635.47 -11834.4 0)
(2778.82 -13307.4 0)
(3403.08 -14892.8 0)
(4075.06 -17198.6 0)
(4418.19 -19550.4 0)
(4807.66 -22221.4 0)
(5166.13 -24974.9 0)
(5487.39 -28032.6 0)
(5615.19 -31183.9 0)
(5574.94 -34468.9 0)
(5310.85 -37735.7 0)
(4899.79 -40811.4 0)
(4313.17 -43605.8 0)
(3411.33 -45967.9 0)
(2603.69 -47657.3 0)
(1698.33 -49018.1 0)
(1053.66 -49623.9 0)
(536.248 -50182.3 0)
(-576.81 -50168.5 0)
(-1095.72 -49569.7 0)
(-1758.53 -48939.4 0)
(-2645.9 -47516.6 0)
(-3497.88 -45825.6 0)
(-4387.68 -43340.4 0)
(-4972.99 -40593.5 0)
(-5437.86 -37351.7 0)
(-5667.09 -34075.5 0)
(-5748.39 -30666.2 0)
(-5634.1 -27392.6 0)
(-5349.08 -24219.9 0)
(-5027.52 -21299.7 0)
(-4635.46 -18490.1 0)
(-4304.72 -15992.5 0)
(-3601.58 -13551.4 0)
(-2972.41 -11872.9 0)
(3194.32 -10306.3 0)
(138540 -15330.1 0)
(-160454 -166944 0)
(172483 178843 0)
(-147968 17089 0)
(-3635.47 11834.4 0)
(2778.82 13307.4 0)
(3403.08 14892.8 0)
(4075.06 17198.6 0)
(4418.19 19550.4 0)
(4807.66 22221.4 0)
(5166.13 24974.9 0)
(5487.39 28032.6 0)
(5615.19 31183.9 0)
(5574.94 34468.9 0)
(5310.85 37735.7 0)
(4899.79 40811.4 0)
(4313.17 43605.8 0)
(3411.33 45967.9 0)
(2603.69 47657.3 0)
(1698.33 49018.1 0)
(1053.66 49623.9 0)
(536.248 50182.3 0)
(-576.81 50168.5 0)
(-1095.72 49569.7 0)
(-1758.53 48939.4 0)
(-2645.9 47516.6 0)
(-3497.88 45825.6 0)
(-4387.68 43340.4 0)
(-4972.99 40593.5 0)
(-5437.86 37351.7 0)
(-5667.09 34075.5 0)
(-5748.39 30666.2 0)
(-5634.1 27392.6 0)
(-5349.08 24219.9 0)
(-5027.52 21299.7 0)
(-4635.46 18490.1 0)
(-4304.72 15992.5 0)
(-3601.58 13551.4 0)
(-2972.41 11872.9 0)
(3194.32 10306.3 0)
(138540 15330.1 0)
(-160454 166944 0)
(16324.1 -153740 0)
(-12967.5 -13819 0)
(-8.53562 -8322.46 0)
(168.362 -9647.64 0)
(346.61 -10879 0)
(413.197 -12711.6 0)
(421.953 -14589.1 0)
(419.528 -16773.6 0)
(433.688 -19067.7 0)
(495.859 -21623.8 0)
(587.135 -24247.6 0)
(738.649 -26995.3 0)
(801.014 -29645.5 0)
(756.78 -32205 0)
(655.806 -34512.4 0)
(492.904 -36512.2 0)
(335.602 -37933.8 0)
(196.688 -39131.4 0)
(68.1398 -39634.2 0)
(-11.4167 -40189.2 0)
(-13.4278 -40191.1 0)
(-88.6344 -39619.5 0)
(-219.938 -39115.8 0)
(-354.718 -37884.5 0)
(-526.469 -36483.9 0)
(-654.188 -34410.2 0)
(-797.925 -32126.3 0)
(-843.102 -29526.2 0)
(-775.291 -26831 0)
(-691.496 -24092.9 0)
(-577.824 -21414 0)
(-522.236 -18820 0)
(-493.916 -16448.1 0)
(-478.751 -14172.5 0)
(-454.378 -12194.6 0)
(-368.226 -10237.4 0)
(-154.665 -8910.23 0)
(137.124 -7410.47 0)
(12402.4 -12458.8 0)
(-15192.8 -143941 0)
(11016.8 -3813.03 0)
(-7838.01 -248.59 0)
(384.235 101.218 0)
(315.223 250.493 0)
(450.552 341.369 0)
(499.88 403.773 0)
(503.933 449.847 0)
(491.895 490.131 0)
(492.287 517.955 0)
(495.872 524.428 0)
(439.029 495.097 0)
(373.371 363.007 0)
(290.591 106.51 0)
(209.822 -169.808 0)
(162.541 -459.964 0)
(114.397 -681.556 0)
(79.7731 -852.062 0)
(59.7229 -951.226 0)
(34.3523 -1004.75 0)
(-0.422592 -999.3 0)
(-27.9093 -1000.22 0)
(-59.5341 -1009.1 0)
(-86.6273 -959.45 0)
(-109.698 -863.559 0)
(-149.853 -704.35 0)
(-188.503 -476.31 0)
(-266.608 -229.106 0)
(-335.133 69.6672 0)
(-431.344 299.252 0)
(-528.328 425.966 0)
(-552.989 466.202 0)
(-563.758 449.477 0)
(-548.959 421.567 0)
(-536.643 390.553 0)
(-512.735 358.964 0)
(-436.669 323.98 0)
(-248.307 269.884 0)
(-225.18 184.303 0)
(6974.29 -176.922 0)
(-9741.3 -4073.73 0)
(12410.1 2754.69 0)
(-9195.62 156.209 0)
(472.399 239.703 0)
(399.78 320.526 0)
(494.316 356.064 0)
(517.73 377.855 0)
(505.17 378.208 0)
(485.158 375.646 0)
(466.738 363.736 0)
(473.832 334.201 0)
(431.583 314.874 0)
(364.193 285.524 0)
(287.574 266.523 0)
(210.905 260.983 0)
(162.667 252.356 0)
(115.063 247.549 0)
(75.7371 243.03 0)
(49.5492 235.619 0)
(21.8146 227.554 0)
(-7.04536 220.99 0)
(-22.8698 219.522 0)
(-49.3499 223.507 0)
(-79.6909 228.807 0)
(-108.895 232.632 0)
(-153.302 233.276 0)
(-196.227 234.332 0)
(-271.801 228.965 0)
(-333.957 235.436 0)
(-431.949 239.908 0)
(-530.616 248.459 0)
(-555.168 259.932 0)
(-565.248 263.967 0)
(-550.697 267.516 0)
(-539.078 267.375 0)
(-518.531 267.961 0)
(-454.066 265.495 0)
(-289.263 249.243 0)
(-293.435 205.717 0)
(8299.22 126.273 0)
(-11096.8 2792.04 0)
(13821.8 3131.07 0)
(-10261.5 357.346 0)
(542.577 448.542 0)
(427.353 498.958 0)
(505.796 517.146 0)
(521.22 527.211 0)
(501.804 529.428 0)
(477.949 525.492 0)
(452.348 522.22 0)
(448.787 500.76 0)
(392.122 464.857 0)
(326.778 421.715 0)
(266.942 383.099 0)
(196.171 359.429 0)
(149.595 338.558 0)
(105.41 322.515 0)
(68.2776 310.342 0)
(44.8097 300.774 0)
(20.2548 293.961 0)
(-8.16281 290.362 0)
(-25.4836 287.977 0)
(-50.5866 288.017 0)
(-77.8341 291.867 0)
(-105.391 296.987 0)
(-148.215 303.168 0)
(-192.658 312.534 0)
(-265.543 317.176 0)
(-324.587 336.195 0)
(-418.795 350.441 0)
(-509.032 374.181 0)
(-538.045 397.853 0)
(-556.449 409.097 0)
(-545.675 416.537 0)
(-536.214 420.239 0)
(-514.546 423.446 0)
(-454.707 425.866 0)
(-305.911 426.126 0)
(-343.678 405.532 0)
(9466.56 335.774 0)
(-12553.5 3419.52 0)
(15771.7 3566.87 0)
(-11780.6 443.963 0)
(608.862 521.412 0)
(465.89 567.102 0)
(521.542 590.336 0)
(529.565 601.496 0)
(503.514 612.445 0)
(478.213 614.149 0)
(442.906 620.186 0)
(418.555 598.026 0)
(355.412 564.368 0)
(285.409 526.569 0)
(227.553 482.686 0)
(167.983 457.124 0)
(127.095 432.065 0)
(87.8737 412.89 0)
(54.787 399.09 0)
(33.7638 389.578 0)
(11.7809 383.129 0)
(-12.8114 379.979 0)
(-25.1297 377.854 0)
(-45.6016 377.173 0)
(-71.0471 379.626 0)
(-98.0052 383.312 0)
(-138.321 389.329 0)
(-182.728 399.338 0)
(-249 406.318 0)
(-301.901 424.878 0)
(-395.344 439.265 0)
(-484.928 464.166 0)
(-521.522 484.556 0)
(-547.244 491.646 0)
(-539.96 495.247 0)
(-532.42 497.028 0)
(-513.109 499.155 0)
(-451.484 500.403 0)
(-308.858 505.201 0)
(-380.5 499.027 0)
(11203.6 439.304 0)
(-14715.5 4134.78 0)
(17686.8 3627 0)
(-13196.3 477.032 0)
(661.239 555.474 0)
(493.77 595.527 0)
(538.94 621.241 0)
(542.525 628.87 0)
(513.997 651.988 0)
(485.408 661.373 0)
(436.811 670.339 0)
(394.998 656.686 0)
(323.263 630.202 0)