/*--------------------------------*- C++ -*----------------------------------*\
| =========                 |                                                 |
| \\      /  F ield         | OpenFOAM: The Open Source CFD Toolbox           |
|  \\    /   O peration     | Version:  v1912                                 |
|   \\  /    A nd           | Website:  www.openfoam.com                      |
|    \\/     M anipulation  |                                                 |
\*---------------------------------------------------------------------------*/
FoamFile
{
    version     2.0;
    format      ascii;
    class       volScalarField;
    location    "7.38";
    object      T;
}
// * * * * * * * * * * * * * * * * * * * * * * * * * * * * * * * * * * * * * //

dimensions      [0 0 0 1 0 0 0];


internalField   nonuniform List<scalar> 
1900
(
1.2577
0.977274
0.92626
0.922873
0.925233
0.933188
0.942923
0.949763
0.95258
0.953608
1.2577
0.977276
0.92626
0.922872
0.925227
0.933193
0.94291
0.949906
0.952906
0.953606
1.2577
0.977276
0.92626
0.922874
0.925227
0.933201
0.942912
0.949862
0.952671
0.95335
1.2577
0.977276
0.92626
0.922872
0.925227
0.933193
0.94291
0.949906
0.952906
0.953606
1.2577
0.977274
0.92626
0.922873
0.925233
0.933188
0.942923
0.949763
0.95258
0.953608
0.957821
0.95382
0.956926
0.965574
1.00551
0.953506
0.95096
0.953447
0.960502
0.987616
0.952674
0.950292
0.952447
0.960034
0.985628
0.953506
0.95096
0.953447
0.960502
0.987616
0.957821
0.95382
0.956926
0.965574
1.00551
0.797069
0.681662
0.616949
0.571464
0.539381
0.816938
0.698093
0.629786
0.585061
0.546189
0.816836
0.692444
0.62349
0.580343
0.537447
0.816938
0.698093
0.629786
0.585061
0.546189
0.797069
0.681662
0.616949
0.571464
0.539381
0.51349
0.496006
0.487154
0.479861
0.464172
0.452688
0.457282
0.522281
0.600292
0.618676
0.617172
0.607796
0.5825
0.548414
0.523045
0.502689
0.480248
0.45001
0.413774
0.389131
0.379948
0.375496
0.371729
0.368337
0.365759
0.364303
0.363806
0.363932
0.364257
0.36488
0.365539
0.366379
0.369254
0.381502
0.424262
0.461332
0.483673
0.501474
0.517868
0.522679
0.525686
0.517515
0.512913
0.505057
0.485214
0.464462
0.466933
0.529449
0.607501
0.622924
0.620419
0.609405
0.583591
0.549082
0.523453
0.503418
0.480999
0.450559
0.414036
0.389186
0.379945
0.375499
0.371737
0.368336
0.365748
0.36429
0.363793
0.363921
0.364247
0.364872
0.365531
0.366373
0.369248
0.381482
0.424253
0.461356
0.483635
0.501462
0.517854
0.522664
0.525424
0.521325
0.519233
0.513618
0.49411
0.469944
0.47157
0.531476
0.610805
0.624483
0.62158
0.609988
0.585078
0.552338
0.524827
0.503584
0.480737
0.450428
0.414106
0.389226
0.379946
0.375502
0.37174
0.368336
0.365745
0.364285
0.363789
0.363917
0.364244
0.364869
0.365529
0.36637
0.369246
0.381474
0.424249
0.461362
0.483619
0.501463
0.517855
0.522653
0.525686
0.517515
0.512913
0.505057
0.485214
0.464462
0.466933
0.529449
0.607501
0.622924
0.620419
0.609405
0.583591
0.549082
0.523453
0.503418
0.480999
0.450559
0.414036
0.389186
0.379945
0.375499
0.371737
0.368336
0.365748
0.36429
0.363793
0.363921
0.364247
0.364872
0.365531
0.366373
0.369248
0.381482
0.424253
0.461356
0.483635
0.501462
0.517854
0.522664
0.51349
0.496006
0.487154
0.479861
0.464172
0.452688
0.457282
0.522281
0.600292
0.618676
0.617172
0.607796
0.5825
0.548414
0.523045
0.502689
0.480248
0.45001
0.413774
0.389131
0.379948
0.375496
0.371729
0.368337
0.365759
0.364303
0.363806
0.363932
0.364257
0.36488
0.365539
0.366379
0.369254
0.381502
0.424262
0.461332
0.483673
0.501474
0.517868
0.522679
0.440181
0.436721
0.433953
0.432155
0.426165
0.427191
0.43869
0.507406
0.580502
0.604525
0.604642
0.597487
0.575118
0.544382
0.520615
0.501202
0.47919
0.448857
0.412688
0.388784
0.379937
0.375487
0.371699
0.368342
0.3658
0.364361
0.363865
0.363982
0.3643
0.364914
0.365569
0.366399
0.369282
0.381555
0.424274
0.461194
0.483698
0.501214
0.517862
0.522803
0.395049
0.393034
0.389324
0.388779
0.39184
0.401438
0.427911
0.496784
0.560614
0.586933
0.58801
0.580027
0.558005
0.533425
0.514541
0.496826
0.474981
0.444512
0.409626
0.387983
0.379895
0.375455
0.371643
0.36835
0.365893
0.364503
0.364011
0.364108
0.36441
0.365003
0.365643
0.366453
0.369346
0.381661
0.424296
0.460981
0.483694
0.500832
0.51782
0.522878
0.395478
0.396408
0.395682
0.395792
0.402578
0.417074
0.449388
0.503469
0.553211
0.568145
0.568733
0.558402
0.539607
0.522264
0.507273
0.490526
0.468589
0.438081
0.405439
0.386975
0.379832
0.375418
0.37161
0.368397
0.366048
0.364728
0.364248
0.36432
0.364598
0.365162
0.365778
0.366556
0.369458
0.381819
0.424307
0.460767
0.483576
0.500631
0.517895
0.523001
0.399688
0.399749
0.399558
0.402472
0.413218
0.432177
0.46679
0.517406
0.547784
0.557778
0.552651
0.538344
0.523873
0.511746
0.49868
0.482418
0.460398
0.4301
0.400803
0.386
0.379769
0.375393
0.371612
0.3685
0.366275
0.365036
0.364572
0.364617
0.364869
0.365397
0.365983
0.366721
0.369634
0.38206
0.424368
0.460603
0.483473
0.500604
0.518042
0.523148
0.408606
0.409078
0.411921
0.420344
0.435821
0.459532
0.496143
0.529985
0.544451
0.543382
0.532544
0.521064
0.511232
0.501225
0.488841
0.473017
0.450693
0.420988
0.396352
0.385168
0.379672
0.375353
0.371635
0.368653
0.366569
0.365418
0.364973
0.364992
0.365217
0.365707
0.366257
0.366949
0.369871
0.382343
0.424386
0.460379
0.483261
0.500539
0.518163
0.523288
0.428565
0.430698
0.43781
0.450074
0.467202
0.49064
0.51486
0.52951
0.532628
0.524848
0.515956
0.507192
0.499606
0.490247
0.478558
0.46285
0.439592
0.411577
0.39279
0.384605
0.379599
0.375332
0.371712
0.368887
0.366952
0.365895
0.365471
0.365465
0.365666
0.366119
0.366633
0.367284
0.370221
0.382808
0.424641
0.460355
0.483187
0.500613
0.518355
0.523417
0.458702
0.462539
0.470574
0.478628
0.491334
0.505978
0.515451
0.520528
0.516646
0.507716
0.50087
0.495066
0.487999
0.47929
0.468125
0.451592
0.427317
0.403273
0.39036
0.384124
0.37943
0.375272
0.371804
0.369158
0.367386
0.366427
0.366024
0.365997
0.36618
0.366599
0.367083
0.367693
0.37064
0.383238
0.424752
0.460239
0.483041
0.500584
0.518468
0.523513
0.488519
0.494201
0.494444
0.498757
0.503624
0.50646
0.509421
0.505679
0.497572
0.492754
0.488507
0.483133
0.476734
0.468779
0.457181
0.438774
0.41498
0.397306
0.388967
0.383831
0.379314
0.375296
0.372026
0.369585
0.367974
0.367105
0.36672
0.366674
0.366836
0.367224
0.36768
0.368262
0.37123
0.383918
0.425162
0.460317
0.483036
0.500665
0.518662
0.523677
0.515144
0.519322
0.510662
0.507725
0.503419
0.500517
0.492959
0.487423
0.484021
0.480788
0.476664
0.471803
0.466299
0.45833
0.445074
0.425009
0.40499
0.39389
0.388118
0.383525
0.379199
0.375403
0.372365
0.370139
0.368688
0.367903
0.367535
0.367472
0.36761
0.367975
0.368415
0.368983
0.371967
0.384633
0.425504
0.460395
0.483026
0.500733
0.51888
0.523896
0.534329
0.525201
0.514116
0.505777
0.495801
0.48626
0.479677
0.475787
0.472906
0.469459
0.465523
0.461634
0.456321
0.447013
0.431441
0.412311
0.398941
0.392347
0.387806
0.383491
0.379371
0.375827
0.373035
0.371011
0.36969
0.368957
0.36859
0.368499
0.368606
0.368949
0.369378
0.369947
0.372965
0.385672
0.426192
0.46069
0.483168
0.500917
0.519224
0.5243
0.533735
0.521271
0.508852
0.499869
0.488539
0.478163
0.470485
0.465727
0.462116
0.458657
0.4557
0.45234
0.445979
0.434435
0.418019
0.403685
0.396113
0.391608
0.387597
0.383479
0.379576
0.376287
0.373731
0.371906
0.370711
0.370029
0.369664
0.369548
0.369631
0.369968
0.370412
0.37101
0.374059
0.386632
0.426664
0.460943
0.483341
0.501104
0.519604
0.52479
0.533767
0.521105
0.508327
0.499173
0.486384
0.472596
0.461455
0.455298
0.451595
0.449078
0.446975
0.442935
0.434602
0.421459
0.407717
0.399401
0.394865
0.391336
0.38761
0.383672
0.380035
0.377037
0.374734
0.373097
0.372015
0.371386
0.371036
0.370918
0.371002
0.371372
0.371858
0.372533
0.375675
0.388263
0.427934
0.461859
0.484042
0.501699
0.520319
0.525621
0.535778
0.522542
0.509489
0.499364
0.485711
0.466605
0.451768
0.445468
0.442748
0.441256
0.438801
0.432922
0.422852
0.411207
0.403081
0.39867
0.395686
0.39269
0.389245
0.385691
0.382545
0.380035
0.378167
0.376884
0.376056
0.375599
0.375361
0.375321
0.375467
0.375925
0.37647
0.377248
0.380478
0.393109
0.432436
0.465795
0.48707
0.503413
0.521329
0.526568
0.538572
0.525438
0.511879
0.49919
0.484569
0.460969
0.444479
0.43885
0.437097
0.436066
0.432946
0.425988
0.416791
0.409402
0.405496
0.403522
0.401926
0.399982
0.397587
0.395168
0.393208
0.39189
0.391117
0.390792
0.39076
0.391013
0.391254
0.391747
0.392292
0.393112
0.393744
0.394735
0.398107
0.410912
0.44913
0.478984
0.496344
0.50925
0.524381
0.528395
0.540709
0.527909
0.514001
0.501652
0.486293
0.461709
0.445874
0.44192
0.441675
0.441206
0.438425
0.434368
0.431086
0.430214
0.430786
0.431807
0.432518
0.432432
0.431668
0.430708
0.430084
0.42995
0.430017
0.430314
0.430692
0.43125
0.431638
0.432263
0.432792
0.433553
0.433996
0.434808
0.438057
0.450028
0.482836
0.505712
0.517286
0.52295
0.530936
0.531788
0.541376
0.531975
0.522551
0.517299
0.506512
0.486111
0.471102
0.46773
0.468121
0.468089
0.466302
0.464754
0.464318
0.465224
0.466425
0.467274
0.467234
0.466484
0.465322
0.464189
0.463413
0.462927
0.462461
0.462235
0.46211
0.462203
0.462231
0.462408
0.462561
0.462889
0.463053
0.463469
0.466274
0.475543
0.501182
0.520522
0.531486
0.53646
0.540631
0.537777
0.541235
0.5373
0.534356
0.536059
0.529537
0.513496
0.497785
0.491875
0.489927
0.488564
0.487128
0.487
0.487428
0.488314
0.48893
0.488991
0.488344
0.487185
0.48582
0.484567
0.483626
0.483158
0.482897
0.482732
0.48257
0.482589
0.482555
0.482645
0.482742
0.482975
0.483094
0.48349
0.48548
0.492333
0.511434
0.528779
0.53907
0.542605
0.544008
0.540065
0.536188
0.540206
0.542484
0.543943
0.538531
0.523682
0.508638
0.502033
0.499211
0.498388
0.497973
0.498722
0.499794
0.501
0.50188
0.502321
0.502286
0.501825
0.501256
0.500885
0.500851
0.500533
0.50019
0.500027
0.499979
0.50014
0.500249
0.500473
0.500686
0.500991
0.501188
0.501636
0.502657
0.507393
0.519108
0.534033
0.541881
0.546008
0.544217
0.531423
0.442369
0.509085
0.546649
0.547809
0.545733
0.534523
0.524068
0.519416
0.517263
0.516778
0.516711
0.517445
0.518502
0.519509
0.520127
0.520382
0.520228
0.519809
0.519361
0.519008
0.518862
0.518572
0.518389
0.518302
0.518272
0.518383
0.518465
0.518646
0.51883
0.519107
0.519381
0.519897
0.520554
0.523009
0.528536
0.538521
0.543555
0.544205
0.507568
0.432603
0.327315
0.420212
0.532459
0.543066
0.54114
0.533797
0.528185
0.52599
0.525378
0.525427
0.525731
0.526322
0.526968
0.527391
0.527476
0.52722
0.526679
0.526108
0.525635
0.525249
0.524855
0.524395
0.523965
0.523674
0.523509
0.523448
0.523434
0.523514
0.523613
0.523842
0.524154
0.524756
0.525443
0.52688
0.529745
0.53563
0.538924
0.531611
0.435516
0.329818
0.327315
0.420212
0.532459
0.543066
0.54114
0.533797
0.528185
0.52599
0.525378
0.525427
0.525731
0.526322
0.526968
0.527391
0.527476
0.52722
0.526679
0.526108
0.525635
0.525249
0.524855
0.524395
0.523965
0.523674
0.523509
0.523448
0.523434
0.523514
0.523613
0.523842
0.524154
0.524756
0.525443
0.52688
0.529745
0.53563
0.538924
0.531611
0.435516
0.329818
0.442369
0.509085
0.546649
0.547809
0.545733
0.534523
0.524068
0.519416
0.517263
0.516778
0.516711
0.517445
0.518502
0.519509
0.520127
0.520382
0.520228
0.519809
0.519361
0.519008
0.518862
0.518572
0.518389
0.518302
0.518272
0.518383
0.518465
0.518646
0.51883
0.519107
0.519381
0.519897
0.520554
0.523009
0.528536
0.538521
0.543555
0.544205
0.507568
0.432603
0.536188
0.540206
0.542484
0.543943
0.538531
0.523682
0.508638
0.502033
0.499211
0.498388
0.497973
0.498722
0.499794
0.501
0.50188
0.502321
0.502286
0.501825
0.501256
0.500885
0.500851
0.500533
0.50019
0.500027
0.499979
0.50014
0.500249
0.500473
0.500686
0.500991
0.501188
0.501636
0.502657
0.507393
0.519108
0.534033
0.541881
0.546008
0.544217
0.531423
0.541235
0.5373
0.534356
0.536059
0.529537
0.513496
0.497785
0.491875
0.489927
0.488564
0.487128
0.487
0.487428
0.488314
0.48893
0.488991
0.488344
0.487185
0.48582
0.484567
0.483626
0.483158
0.482897
0.482732
0.48257
0.482589
0.482555
0.482645
0.482742
0.482975
0.483094
0.48349
0.48548
0.492333
0.511434
0.528779
0.53907
0.542605
0.544008
0.540065
0.541376
0.531975
0.522551
0.517299
0.506512
0.486111
0.471102
0.46773
0.468121
0.468089
0.466302
0.464754
0.464318
0.465224
0.466425
0.467274
0.467234
0.466484
0.465322
0.464189
0.463413
0.462927
0.462461
0.462235
0.46211
0.462203
0.462231
0.462408
0.462561
0.462889
0.463053
0.463469
0.466274
0.475543
0.501182
0.520522
0.531486
0.53646
0.540631
0.537777
0.540709
0.527909
0.514001
0.501652
0.486293
0.461709
0.445874
0.44192
0.441675
0.441206
0.438425
0.434368
0.431086
0.430214
0.430786
0.431807
0.432518
0.432432
0.431668
0.430708
0.430084
0.42995
0.430017
0.430314
0.430692
0.43125
0.431638
0.432263
0.432792
0.433553
0.433996
0.434808
0.438057
0.450028
0.482836
0.505712
0.517286
0.52295
0.530936
0.531788
0.538572
0.525438
0.511879
0.49919
0.484569
0.460969
0.444479
0.43885
0.437097
0.436066
0.432946
0.425988
0.416791
0.409402
0.405496
0.403522
0.401926
0.399982
0.397587
0.395168
0.393208
0.39189
0.391117
0.390792
0.39076
0.391013
0.391254
0.391747
0.392292
0.393112
0.393744
0.394735
0.398107
0.410912
0.44913
0.478984
0.496344
0.50925
0.524381
0.528395
0.535778
0.522542
0.509489
0.499364
0.485711
0.466605
0.451768
0.445468
0.442748
0.441256
0.438801
0.432922
0.422852
0.411207
0.403081
0.39867
0.395686
0.39269
0.389245
0.385691
0.382545
0.380035
0.378167
0.376884
0.376056
0.375599
0.375361
0.375321
0.375467
0.375925
0.37647
0.377248
0.380478
0.393109
0.432436
0.465795
0.48707
0.503413
0.521329
0.526568
0.533767
0.521105
0.508327
0.499173
0.486384
0.472596
0.461455
0.455298
0.451595
0.449078
0.446975
0.442935
0.434602
0.421459
0.407717
0.399401
0.394865
0.391336
0.38761
0.383672
0.380035
0.377037
0.374734
0.373097
0.372015
0.371386
0.371036
0.370918
0.371002
0.371372
0.371858
0.372533
0.375675
0.388263
0.427934
0.461859
0.484042
0.501699
0.520319
0.525621
0.533735
0.521271
0.508852
0.499869
0.488539
0.478163
0.470485
0.465727
0.462116
0.458657
0.4557
0.45234
0.445979
0.434435
0.418019
0.403685
0.396113
0.391608
0.387597
0.383479
0.379576
0.376287
0.373731
0.371906
0.370711
0.370029
0.369664
0.369548
0.369631
0.369968
0.370412
0.37101
0.374059
0.386632
0.426664
0.460943
0.483341
0.501104
0.519604
0.52479
0.534329
0.525201
0.514116
0.505777
0.495801
0.48626
0.479677
0.475787
0.472906
0.469459
0.465523
0.461634
0.456321
0.447013
0.431441
0.412311
0.398941
0.392347
0.387806
0.383491
0.379371
0.375827
0.373035
0.371011
0.36969
0.368957
0.36859
0.368499
0.368606
0.368949
0.369378
0.369947
0.372965
0.385672
0.426192
0.46069
0.483168
0.500917
0.519224
0.5243
0.515144
0.519322
0.510662
0.507725
0.503419
0.500517
0.492959
0.487423
0.484021
0.480788
0.476664
0.471803
0.466299
0.45833
0.445074
0.425009
0.40499
0.39389
0.388118
0.383525
0.379199
0.375403
0.372365
0.370139
0.368688
0.367903
0.367535
0.367472
0.36761
0.367975
0.368415
0.368983
0.371967
0.384633
0.425504
0.460395
0.483026
0.500733
0.51888
0.523896
0.488519
0.494201
0.494444
0.498757
0.503624
0.50646
0.509421
0.505679
0.497572
0.492754
0.488507
0.483133
0.476734
0.468779
0.457181
0.438774
0.41498
0.397306
0.388967
0.383831
0.379314
0.375296
0.372026
0.369585
0.367974
0.367105
0.36672
0.366674
0.366836
0.367224
0.36768
0.368262
0.37123
0.383918
0.425162
0.460317
0.483036
0.500665
0.518662
0.523677
0.458702
0.462539
0.470574
0.478628
0.491334
0.505978
0.515451
0.520528
0.516646
0.507716
0.50087
0.495066
0.487999
0.47929
0.468125
0.451592
0.427317
0.403273
0.39036
0.384124
0.37943
0.375272
0.371804
0.369158
0.367386
0.366427
0.366024
0.365997
0.36618
0.366599
0.367083
0.367693
0.37064
0.383238
0.424752
0.460239
0.483041
0.500584
0.518468
0.523513
0.428565
0.430698
0.43781
0.450074
0.467202
0.49064
0.51486
0.52951
0.532628
0.524848
0.515956
0.507192
0.499606
0.490247
0.478558
0.46285
0.439592
0.411577
0.39279
0.384605
0.379599
0.375332
0.371712
0.368887
0.366952
0.365895
0.365471
0.365465
0.365666
0.366119
0.366633
0.367284
0.370221
0.382808
0.424641
0.460355
0.483187
0.500613
0.518355
0.523417
0.408606
0.409078
0.411921
0.420344
0.435821
0.459532
0.496143
0.529985
0.544451
0.543382
0.532544
0.521064
0.511232
0.501225
0.488841
0.473017
0.450693
0.420988
0.396352
0.385168
0.379672
0.375353
0.371635
0.368653
0.366569
0.365418
0.364973
0.364992
0.365217
0.365707
0.366257
0.366949
0.369871
0.382343
0.424386
0.460379
0.483261
0.500539
0.518163
0.523288
0.399688
0.399749
0.399558
0.402472
0.413218
0.432177
0.46679
0.517406
0.547784
0.557778
0.552651
0.538344
0.523873
0.511746
0.49868
0.482418
0.460398
0.4301
0.400803
0.386
0.379769
0.375393
0.371612
0.3685
0.366275
0.365036
0.364572
0.364617
0.364869
0.365397
0.365983
0.366721
0.369634
0.38206
0.424368
0.460603
0.483473
0.500604
0.518042
0.523148
0.395478
0.396408
0.395682
0.395792
0.402578
0.417074
0.449388
0.503469
0.553211
0.568145
0.568733
0.558402
0.539607
0.522264
0.507273
0.490526
0.468589
0.438081
0.405439
0.386975
0.379832
0.375418
0.37161
0.368397
0.366048
0.364728
0.364248
0.36432
0.364598
0.365162
0.365778
0.366556
0.369458
0.381819
0.424307
0.460767
0.483576
0.500631
0.517895
0.523001
0.395049
0.393034
0.389324
0.388779
0.39184
0.401438
0.427911
0.496784
0.560614
0.586933
0.58801
0.580027
0.558005
0.533425
0.514541
0.496826
0.474981
0.444512
0.409626
0.387983
0.379895
0.375455
0.371643
0.36835
0.365893
0.364503
0.364011
0.364108
0.36441
0.365003
0.365643
0.366453
0.369346
0.381661
0.424296
0.460981
0.483694
0.500832
0.51782
0.522878
0.440181
0.436721
0.433953
0.432155
0.426165
0.427191
0.43869
0.507406
0.580502
0.604525
0.604642
0.597487
0.575118
0.544382
0.520615
0.501202
0.47919
0.448857
0.412688
0.388784
0.379937
0.375487
0.371699
0.368342
0.3658
0.364361
0.363865
0.363982
0.3643
0.364914
0.365569
0.366399
0.369282
0.381555
0.424274
0.461194
0.483698
0.501214
0.517862
0.522803
)
;

boundaryField
{
    inlet
    {
        type            fixedValue;
        value           uniform 1;
    }
    outlet
    {
        type            zeroGradient;
    }
    obstacle
    {
        type            zeroGradient;
    }
    empty
    {
        type            empty;
    }
}


// ************************************************************************* //
