/*--------------------------------*- C++ -*----------------------------------*\
| =========                 |                                                 |
| \\      /  F ield         | OpenFOAM: The Open Source CFD Toolbox           |
|  \\    /   O peration     | Version:  v1912                                 |
|   \\  /    A nd           | Website:  www.openfoam.com                      |
|    \\/     M anipulation  |                                                 |
\*---------------------------------------------------------------------------*/
FoamFile
{
    version     2.0;
    format      ascii;
    class       volVectorField;
    location    "4.16";
    object      grad(p);
}
// * * * * * * * * * * * * * * * * * * * * * * * * * * * * * * * * * * * * * //

dimensions      [1 -2 -2 0 0 0 0];


internalField   nonuniform List<vector> 
1900
(
(120641 -0.849573 0)
(-98210 0.0341199 0)
(-7711.12 -0.388867 0)
(-1727.63 1.90018 0)
(-2070.71 5.2763 0)
(-2108.33 9.42829 0)
(-2032.51 11.6368 0)
(-1861.49 3.87403 0)
(-1582.12 -99.0263 0)
(-1519.74 -228.628 0)
(120640 -1.59427 0)
(-98209.5 -0.125308 0)
(-7709.25 -1.05651 0)
(-1721.97 1.60329 0)
(-2063.19 3.87631 0)
(-2101.97 3.93027 0)
(-2038.06 2.53508 0)
(-1972.15 -5.90251 0)
(-1814.62 -96.5697 0)
(-1887.43 -285.042 0)
(120639 9.41469e-09 0)
(-98209.4 -4.31655e-09 0)
(-7709.39 -5.15143e-10 0)
(-1722.7 1.59872e-10 0)
(-2068.39 -1.59872e-09 0)
(-2109.67 -8.52651e-10 0)
(-2042.34 8.34888e-10 0)
(-1960.59 3.55271e-11 0)
(-1861.26 1.5099e-09 0)
(-1996.65 1.36779e-09 0)
(120640 1.59427 0)
(-98209.5 0.125308 0)
(-7709.25 1.05651 0)
(-1721.97 -1.60329 0)
(-2063.19 -3.87631 0)
(-2101.97 -3.93027 0)
(-2038.06 -2.53508 0)
(-1972.15 5.90251 0)
(-1814.62 96.5697 0)
(-1887.43 285.042 0)
(120641 0.849573 0)
(-98210 -0.03412 0)
(-7711.12 0.388867 0)
(-1727.63 -1.90018 0)
(-2070.71 -5.2763 0)
(-2108.33 -9.42829 0)
(-2032.51 -11.6368 0)
(-1861.49 -3.87403 0)
(-1582.12 99.0263 0)
(-1519.74 228.628 0)
(-1661.82 -453.299 9.99342e-12)
(-2016.2 -678.132 -1.18379e-11)
(-2657.7 -907.848 -1.47624e-11)
(-3681.79 -1413.61 0)
(-7178.36 -3308.82 -6.02683e-11)
(-2053.64 -557.92 9.91151e-12)
(-2223.62 -778.675 1.18379e-11)
(-2814.45 -1012.58 1.47624e-11)
(-4288.97 -1301.84 0)
(-6666.1 -2868.41 0)
(-2242.99 1.1424e-09 0)
(-2425.04 1.57769e-09 0)
(-2968.65 -6.41462e-10 0)
(-4551.25 7.06506e-10 0)
(-8053.56 -9.5162e-10 0)
(-2053.64 557.92 9.91151e-12)
(-2223.62 778.675 1.18379e-11)
(-2814.45 1012.58 1.47624e-11)
(-4288.97 1301.84 0)
(-6666.1 2868.41 0)
(-1661.82 453.299 -2.98164e-11)
(-2016.2 678.132 -1.18379e-11)
(-2657.7 907.848 -1.47624e-11)
(-3681.79 1413.61 -3.95942e-11)
(-7178.36 3308.82 6.02683e-11)
(-11409.5 1182.11 2.25434e-11)
(-8417.5 750.332 -1.71485e-11)
(-7545.15 735.893 0)
(-6826.53 676.063 1.06922e-11)
(-8509.46 -889.478 -4.31924e-12)
(-10086.2 1045.32 -1.12895e-11)
(-8458.09 656.887 8.58554e-12)
(-7512.19 517.149 0)
(-7479.74 349.134 -6.69798e-12)
(-8868.61 -1786.96 1.05966e-12)
(-10342.6 -1.39058e-09 0)
(-8552.34 2.80877e-09 0)
(-7662.83 2.59874e-09 0)
(-7846.11 2.26398e-09 2.6834e-12)
(-9074.24 3.84358e-09 -2.11932e-12)
(-10086.2 -1045.32 -1.12895e-11)
(-8458.09 -656.887 8.58554e-12)
(-7512.19 -517.149 0)
(-7479.74 -349.134 -6.69798e-12)
(-8868.61 1786.96 1.05966e-12)
(-11409.5 -1182.11 1.12895e-11)
(-8417.5 -750.332 -2.25975e-14)
(-7545.15 -735.893 0)
(-6826.53 -676.063 2.03608e-14)
(-8509.46 889.478 4.31924e-12)
(-12422.5 -776.866 0)
(-6230.79 3038.3 0)
(2023.19 1848.05 0)
(690.541 1413.27 0)
(-852.169 715.816 0)
(-1159.61 364.231 0)
(-1391.28 213.609 0)
(-1210.62 48.4206 0)
(-821.693 65.3885 0)
(-548.019 14.9325 0)
(-333.334 13.6841 0)
(-262.065 10.5412 0)
(-214.156 8.74389 0)
(-174.09 6.82924 0)
(-139.862 5.49306 0)
(-112.267 4.70666 0)
(-90.2891 4.23285 0)
(-72.3728 3.899 0)
(-59.0154 3.62081 0)
(-48.7084 3.39668 0)
(-39.7746 3.19494 0)
(-34.5756 3.02858 0)
(-31.1129 2.92334 0)
(-27.7089 2.86244 0)
(-24.3477 2.85538 0)
(-20.2597 2.89718 0)
(-16.3349 2.98554 0)
(-14.4889 3.08051 0)
(-16.5825 3.23416 0)
(-25.1518 3.14715 0)
(-34.391 3.27762 0)
(-44.4824 2.90636 0)
(-40.3898 3.07703 0)
(-41.4909 5.0001 0)
(-42.1924 5.08741 0)
(-57.4092 10.6327 0)
(-75.5296 10.9864 0)
(836.323 16.5314 0)
(24598.5 0.0442192 0)
(-30441.2 -2142.45 0)
(-11712.1 -957.143 0)
(-6034.67 4012.02 0)
(1744.01 2370.41 0)
(608.156 1133.64 0)
(-953.198 488.982 0)
(-1221.48 191.727 0)
(-1427.5 101.757 0)
(-1226.17 15.5964 0)
(-822.658 19.6131 0)
(-551.851 5.12552 0)
(-333.405 5.11319 0)
(-262.464 3.15317 0)
(-214.369 2.54667 0)
(-174.292 1.89328 0)
(-139.985 1.46426 0)
(-112.329 1.24709 0)
(-90.3225 1.14315 0)
(-72.3987 1.07925 0)
(-59.041 1.01817 0)
(-48.7368 0.956984 0)
(-39.8072 0.881502 0)
(-34.6083 0.798256 0)
(-31.144 0.720864 0)
(-27.7387 0.646018 0)
(-24.3756 0.581685 0)
(-20.2865 0.531151 0)
(-16.3644 0.499618 0)
(-14.5169 0.484471 0)
(-16.6192 0.53307 0)
(-25.1752 0.625378 0)
(-34.4245 0.948015 0)
(-44.4852 1.35312 0)
(-40.1467 2.53396 0)
(-41.1746 5.02639 0)
(-41.4205 8.4464 0)
(-56.4842 15.4947 0)
(-74.7416 23.4381 0)
(837.275 31.4327 0)
(24615.9 34.9352 0)
(-30462.7 1430.62 0)
(-10714.8 -4.10177e-09 0)
(-5262.77 -1.0642e-08 0)
(1185.85 -1.29916e-08 0)
(143.215 2.9649e-08 0)
(-1126.18 3.79252e-08 0)
(-1272.26 3.84823e-08 0)
(-1442.51 1.37668e-08 0)
(-1234.52 -3.46955e-08 0)
(-824.739 -4.78001e-08 0)
(-552.237 -1.90958e-08 0)
(-333.908 -2.43845e-09 0)
(-262.811 3.27819e-09 0)
(-214.523 -3.50427e-09 0)
(-174.405 -1.30643e-08 0)
(-140.05 -1.86517e-08 0)
(-112.36 -1.5963e-08 0)
(-90.338 -3.24589e-09 0)
(-72.4092 2.71298e-09 0)
(-59.0509 -1.21115e-10 0)
(-48.7481 1.91362e-09 0)
(-39.8208 9.51158e-09 0)
(-34.6224 1.85306e-08 0)
(-31.1572 4.70735e-09 0)
(-27.7494 -1.7917e-08 0)
(-24.3811 -1.77555e-08 0)
(-20.2836 -4.67505e-09 0)
(-16.3485 6.29799e-10 0)
(-14.4791 -7.09735e-09 0)
(-16.5415 -3.59147e-08 0)
(-25.0311 -1.92815e-08 0)
(-34.1793 -2.20914e-08 0)
(-44.0211 -2.55472e-08 0)
(-39.3212 -2.22206e-08 0)
(-39.7709 2.47317e-08 0)
(-39.1471 6.21079e-08 0)
(-53.048 5.80546e-08 0)
(-70.8931 1.57531e-08 0)
(839.667 4.68151e-08 0)
(25005.5 2.65614e-07 0)
(-30867.6 1.60705e-06 0)
(-11712.1 957.143 0)
(-6034.67 -4012.02 0)
(1744.01 -2370.41 0)
(608.156 -1133.64 0)
(-953.198 -488.982 0)
(-1221.48 -191.727 0)
(-1427.5 -101.757 0)
(-1226.17 -15.5964 0)
(-822.658 -19.6131 0)
(-551.851 -5.12552 0)
(-333.405 -5.11319 0)
(-262.464 -3.15317 0)
(-214.369 -2.54667 0)
(-174.292 -1.89328 0)
(-139.985 -1.46426 0)
(-112.329 -1.24709 0)
(-90.3225 -1.14315 0)
(-72.3987 -1.07925 0)
(-59.041 -1.01817 0)
(-48.7368 -0.956984 0)
(-39.8072 -0.881502 0)
(-34.6083 -0.798257 0)
(-31.144 -0.720864 0)
(-27.7387 -0.646019 0)
(-24.3756 -0.581686 0)
(-20.2865 -0.531151 0)
(-16.3644 -0.499618 0)
(-14.5169 -0.484471 0)
(-16.6192 -0.533071 0)
(-25.1752 -0.625378 0)
(-34.4245 -0.948015 0)
(-44.4852 -1.35312 0)
(-40.1467 -2.53396 0)
(-41.1746 -5.02639 0)
(-41.4205 -8.4464 0)
(-56.4842 -15.4947 0)
(-74.7416 -23.4381 0)
(837.275 -31.4327 0)
(24615.9 -34.9352 0)
(-30462.7 -1430.62 0)
(-12422.5 776.866 0)
(-6230.79 -3038.3 0)
(2023.19 -1848.05 0)
(690.541 -1413.27 0)
(-852.169 -715.816 0)
(-1159.61 -364.231 0)
(-1391.28 -213.609 0)
(-1210.62 -48.4206 0)
(-821.693 -65.3885 0)
(-548.019 -14.9325 0)
(-333.334 -13.6841 0)
(-262.065 -10.5412 0)
(-214.156 -8.74389 0)
(-174.09 -6.82924 0)
(-139.862 -5.49306 0)
(-112.267 -4.70666 0)
(-90.2891 -4.23285 0)
(-72.3728 -3.899 0)
(-59.0154 -3.62081 0)
(-48.7084 -3.39668 0)
(-39.7746 -3.19494 0)
(-34.5756 -3.02858 0)
(-31.1129 -2.92334 0)
(-27.7089 -2.86244 0)
(-24.3477 -2.85538 0)
(-20.2597 -2.89718 0)
(-16.3349 -2.98554 0)
(-14.4889 -3.08051 0)
(-16.5825 -3.23416 0)
(-25.1518 -3.14715 0)
(-34.391 -3.27762 0)
(-44.4824 -2.90636 0)
(-40.3898 -3.07703 0)
(-41.4909 -5.0001 0)
(-42.1924 -5.08741 0)
(-57.4092 -10.6327 0)
(-75.5296 -10.9864 0)
(836.323 -16.5314 0)
(24598.5 -0.044218 0)
(-30441.2 2142.45 0)
(16014 2024.69 0)
(-7454.44 -2453.34 0)
(2440.54 -1925.06 0)
(1223.12 -1792 0)
(-411.976 -998.929 0)
(-977.997 -618.408 0)
(-1271.28 -379.211 0)
(-1151.18 -147.831 0)
(-802.767 -123.768 0)
(-523.849 -34.1369 0)
(-330.732 -27.2218 0)
(-259.828 -21.7015 0)
(-212.287 -17.7071 0)
(-172.487 -13.8676 0)
(-138.796 -11.251 0)
(-111.61 -9.69222 0)
(-89.8544 -8.72149 0)
(-72.0448 -8.01671 0)
(-58.7555 -7.42832 0)
(-48.5024 -6.96184 0)
(-39.614 -6.56599 0)
(-34.4757 -6.264 0)
(-31.0757 -6.096 0)
(-27.7304 -6.02497 0)
(-24.4296 -6.07105 0)
(-20.3992 -6.22448 0)
(-16.5136 -6.4854 0)
(-14.7052 -6.78727 0)
(-16.7033 -7.19049 0)
(-25.2296 -7.14603 0)
(-34.3121 -7.29675 0)
(-44.3626 -6.6913 0)
(-41.1789 -6.76244 0)
(-42.07 -9.73924 0)
(-44.0611 -9.90451 0)
(-59.1149 -17.6253 0)
(-77.5306 -18.295 0)
(845.24 -26.5368 0)
(25990.4 -51.8649 0)
(-31831.3 358.338 0)
(16500 3088.54 0)
(-9380.76 -1073.11 0)
(2436.69 -1018.78 0)
(1297.41 -1407.87 0)
(42.7058 -1088.26 0)
(-659.815 -796.64 0)
(-1002.16 -529.862 0)
(-996.341 -272.307 0)
(-722.281 -161.006 0)
(-467.944 -62.1888 0)
(-322.746 -43.3865 0)
(-254.095 -33.5201 0)
(-207.61 -26.5136 0)
(-168.728 -20.724 0)
(-136.41 -16.9299 0)
(-110.182 -14.6785 0)
(-88.9077 -13.2346 0)
(-71.3026 -12.1502 0)
(-58.1382 -11.2266 0)
(-47.9879 -10.4889 0)
(-39.1883 -9.85588 0)
(-34.1763 -9.36453 0)
(-30.9024 -9.07635 0)
(-27.6733 -8.92705 0)
(-24.4961 -8.94895 0)
(-20.5842 -9.12659 0)
(-16.7814 -9.48147 0)
(-15.0523 -9.89317 0)
(-16.8634 -10.4877 0)
(-25.2125 -10.3948 0)
(-33.9951 -10.5617 0)
(-44.0318 -9.81252 0)
(-42.9037 -9.83284 0)
(-44.2082 -14.404 0)
(-48.7895 -15.7644 0)
(-64.58 -26.0003 0)
(-83.044 -29.4514 0)
(799.192 -38.8841 0)
(24223 -129.586 0)
(-29991.1 -2335.87 0)
(17956.1 3177.33 0)
(-11412.4 -254.305 0)
(2117.95 -662.88 0)
(1156.17 -1004.78 0)
(177.028 -968.995 0)
(-439.906 -807.409 0)
(-766.009 -601.633 0)
(-795.736 -347.959 0)
(-600.289 -183.715 0)
(-410.506 -93.3 0)
(-303.106 -62.4903 0)
(-243.569 -46.7194 0)
(-199.956 -35.8529 0)
(-163.252 -28.0782 0)
(-132.97 -23.1136 0)
(-108.049 -20.069 0)
(-87.418 -17.9974 0)
(-70.1097 -16.3905 0)
(-57.1547 -15.0238 0)
(-47.1816 -13.9519 0)
(-38.5305 -13.046 0)
(-33.7246 -12.3543 0)
(-30.6541 -11.9671 0)
(-27.6076 -11.7796 0)
(-24.6219 -11.8419 0)
(-20.9123 -12.1273 0)
(-17.2523 -12.6957 0)
(-15.6749 -13.3335 0)
(-17.1868 -14.2739 0)
(-25.3009 -14.1131 0)
(-33.751 -14.4151 0)
(-43.6603 -13.6868 0)
(-45.6035 -13.9296 0)
(-47.7859 -20.1791 0)
(-55.2357 -22.8307 0)
(-72.3041 -34.1888 0)
(-89.9458 -39.5701 0)
(748.747 -47.2136 0)
(23776.9 -116.862 0)
(-29455.5 -1027.51 0)
(19316.8 2372.71 0)
(-13081.3 -77.9502 0)
(1713.5 -471.577 0)
(1002.43 -843.799 0)
(232.903 -851.563 0)
(-305.811 -754.302 0)
(-559.416 -584.433 0)
(-593.62 -358.076 0)
(-476.883 -196.541 0)
(-351.127 -113.718 0)
(-277.859 -77.533 0)
(-228.426 -57.0832 0)
(-189.646 -43.0025 0)
(-156.452 -33.7513 0)
(-128.692 -27.8882 0)
(-105.252 -24.0933 0)
(-85.3629 -21.3619 0)
(-68.4372 -19.1876 0)
(-55.7883 -17.3441 0)
(-46.0819 -15.9258 0)
(-37.6487 -14.75 0)
(-33.1367 -13.8724 0)
(-30.3487 -13.4137 0)
(-27.5527 -13.2231 0)
(-24.8311 -13.3681 0)
(-21.4069 -13.8193 0)
(-17.9437 -14.6753 0)
(-16.5732 -15.5554 0)
(-17.6147 -16.9201 0)
(-25.3485 -16.7841 0)
(-33.5843 -17.36 0)
(-43.564 -17.0407 0)
(-49.1599 -18.1249 0)
(-52.7856 -25.9399 0)
(-62.2898 -30.9031 0)
(-80.7106 -42.5427 0)
(-95.5952 -49.3933 0)
(724.71 -53.1644 0)
(23278.3 -116.221 0)
(-28888.4 -1048.97 0)
(20167.4 1457.38 0)
(-14153.3 -123.26 0)
(1379.95 -404.81 0)
(790.001 -717.455 0)
(263.271 -763.216 0)
(-182.49 -666.4 0)
(-384.192 -510.922 0)
(-421.948 -333.033 0)
(-364.817 -194.263 0)
(-295.826 -123.851 0)
(-248.531 -86.1057 0)
(-210.294 -63.279 0)
(-177.473 -47.8242 0)
(-148.687 -37.8607 0)
(-123.664 -31.3802 0)
(-101.76 -26.8809 0)
(-82.6907 -23.4709 0)
(-66.238 -20.6926 0)
(-54.0114 -18.3426 0)
(-44.6819 -16.5703 0)
(-36.5518 -15.1331 0)
(-32.4369 -14.0911 0)
(-30.0284 -13.595 0)
(-27.5636 -13.4466 0)
(-25.1964 -13.7265 0)
(-22.172 -14.3756 0)
(-18.9253 -15.5421 0)
(-17.838 -16.5592 0)
(-18.3708 -18.1488 0)
(-25.7249 -17.8203 0)
(-33.9982 -18.4678 0)
(-44.3974 -18.6207 0)
(-54.1791 -20.1876 0)
(-60.0994 -28.7793 0)
(-71.2348 -35.3887 0)
(-90.122 -46.1979 0)
(-100.181 -53.4196 0)
(684.349 -54.3524 0)
(22817.3 -147.007 0)
(-28332.7 -1293.97 0)
(20602.4 1473.17 0)
(-14875.8 -164.21 0)
(1140.91 -409.944 0)
(657.056 -589.503 0)
(282.101 -652.48 0)
(-62.6911 -566.059 0)
(-238.171 -436.301 0)
(-288.476 -294.23 0)
(-275.308 -188.37 0)
(-246.903 -128.077 0)
(-219.489 -91.2601 0)
(-191.537 -67.4443 0)
(-165.152 -51.7129 0)
(-140.606 -41.2928 0)
(-118.111 -34.1953 0)
(-97.6302 -28.9287 0)
(-79.3996 -24.7763 0)
(-63.4953 -21.3417 0)
(-51.8159 -18.4534 0)
(-42.9891 -16.3229 0)
(-35.2597 -14.639 0)
(-31.6545 -13.4638 0)
(-29.7276 -12.9861 0)
(-27.6795 -12.9497 0)
(-25.7264 -13.4713 0)
(-23.1564 -14.4155 0)
(-20.0479 -16.0047 0)
(-19.085 -17.3008 0)
(-18.8299 -19.395 0)
(-25.6559 -18.9497 0)
(-34.3557 -19.8589 0)
(-45.2213 -20.8566 0)
(-58.949 -22.9845 0)
(-67.434 -31.9918 0)
(-79.075 -39.9301 0)
(-98.0858 -49.8562 0)
(-103.453 -56.6174 0)
(634.526 -53.227 0)
(22083.8 -169.132 0)
(-27499.8 -1515.36 0)
(21428.8 -242.553 0)
(-15967.9 -191.979 0)
(970.123 -376.729 0)
(556.285 -503.575 0)
(285.862 -539.226 0)
(25.8279 -471.358 0)
(-122.247 -363.691 0)
(-183.033 -251.671 0)
(-204.706 -172.152 0)
(-202.248 -121.971 0)
(-190.103 -88.7567 0)
(-172.185 -66.9838 0)
(-152.272 -52.8904 0)
(-131.807 -43.2291 0)
(-111.749 -36.2586 0)
(-92.6835 -30.6676 0)
(-75.3795 -26.0205 0)
(-60.1451 -22.0597 0)
(-49.1752 -18.7072 0)
(-41.0062 -16.2656 0)
(-33.7967 -14.3584 0)
(-30.844 -13.0504 0)
(-29.533 -12.5674 0)
(-28.0311 -12.5664 0)
(-26.6089 -13.1516 0)
(-24.6134 -14.102 0)
(-21.7056 -15.642 0)
(-21.105 -16.4568 0)
(-19.9598 -18.2641 0)
(-26.1719 -16.8567 0)
(-35.8357 -17.0618 0)
(-47.4093 -18.3006 0)
(-64.9094 -20.1599 0)
(-76.4288 -29.229 0)
(-88.4496 -38.8318 0)
(-106.202 -48.7435 0)
(-103.429 -56.3816 0)
(575.926 -52.8078 0)
(21408.4 -244.636 0)
(-26709.5 -1819.22 0)
(20183.6 -1623.86 0)
(-15005.1 -195.179 0)
(840.648 -335.29 0)
(500.468 -429.188 0)
(313.147 -437.426 0)
(106.461 -387.842 0)
(-26.4732 -300.903 0)
(-103.903 -219.306 0)
(-150.324 -158.926 0)
(-166.54 -116.929 0)
(-166.501 -88.3588 0)
(-156.975 -69.1413 0)
(-142.261 -56.8152 0)
(-124.579 -47.7295 0)
(-106.006 -40.6777 0)
(-87.7645 -34.6184 0)
(-71.1047 -29.3918 0)
(-56.448 -24.8667 0)
(-46.2324 -21.0546 0)
(-38.7985 -18.3171 0)
(-32.1615 -16.2069 0)
(-29.9286 -14.8032 0)
(-29.2612 -14.356 0)
(-28.2424 -14.4402 0)
(-27.2061 -15.1384 0)
(-25.5563 -16.132 0)
(-22.3171 -17.9182 0)
(-21.6117 -18.5071 0)
(-19.2153 -20.0872 0)
(-24.4974 -18.1773 0)
(-35.747 -18.0575 0)
(-48.2067 -20.4357 0)
(-69.4801 -22.3757 0)
(-85.4269 -32.0134 0)
(-97.8799 -43.8303 0)
(-114.997 -52.9352 0)
(-107.37 -60.7022 0)
(453.118 -55.6498 0)
(20381.6 -310.684 0)
(-25511 -2240.51 0)
(19675.9 -1068.59 0)
(-14726.2 -183.81 0)
(744.623 -295.395 0)
(457.863 -365.084 0)
(325.704 -361.623 0)
(157.386 -325.734 0)
(40.1601 -258.3 0)
(-46.219 -195.693 0)
(-106.052 -148.447 0)
(-134.247 -108.836 0)
(-144.053 -84.1361 0)
(-141.788 -67.5894 0)
(-131.639 -57.8757 0)
(-116.256 -50.5059 0)
(-99.1148 -44.6656 0)
(-81.8081 -39.2552 0)
(-65.9824 -34.3195 0)
(-52.1111 -29.9033 0)
(-42.8637 -26.1226 0)
(-36.3347 -23.3614 0)
(-30.4106 -21.0887 0)
(-29.0604 -19.4221 0)
(-29.1832 -18.6295 0)
(-28.7852 -18.2193 0)
(-28.2392 -18.3091 0)
(-27.292 -18.3913 0)
(-23.9942 -19.2272 0)
(-23.1951 -18.5147 0)
(-19.6421 -18.8477 0)
(-24.2161 -16.6913 0)
(-38.012 -16.5693 0)
(-51.5704 -21.6914 0)
(-76.0661 -26.1187 0)
(-97.1032 -39.6292 0)
(-108.611 -56.5357 0)
(-122.461 -72.1481 0)
(-106.045 -82.5293 0)
(335.035 -79.2417 0)
(19302.9 -425.178 0)
(-24251.1 -2540.14 0)
(18976.8 -1428.39 0)
(-14260 -178.211 0)
(665.965 -257.15 0)
(436.648 -310.217 0)
(351.066 -296.689 0)
(206.027 -273.222 0)
(98.8398 -221.816 0)
(1.95593 -177.182 0)
(-66.6263 -140.107 0)
(-104.567 -105.72 0)
(-126.754 -87.0034 0)
(-131.669 -73.6823 0)
(-125.799 -66.2494 0)
(-111.849 -59.7427 0)
(-95.1648 -54.5548 0)
(-77.7945 -49.3249 0)
(-62.0929 -44.3474 0)
(-48.5492 -39.8906 0)
(-39.9284 -36.1255 0)
(-33.9476 -33.3749 0)
(-28.3654 -30.9671 0)
(-27.5589 -29.0945 0)
(-28.1021 -28.081 0)
(-27.9337 -27.2962 0)
(-27.3719 -27.0063 0)
(-26.4409 -26.4219 0)
(-22.4361 -26.5037 0)
(-21.246 -24.9102 0)
(-17.4581 -24.5077 0)
(-22.3018 -22.2702 0)
(-40.5652 -21.0748 0)
(-57.4089 -25.86 0)
(-86.7656 -29.6202 0)
(-114.738 -43.0176 0)
(-129.216 -61.9828 0)
(-140.046 -82.9818 0)
(-114.205 -91.9808 0)
(122.929 -91.9543 0)
(18010.2 -479.768 0)
(-22653.5 -2893.67 0)
(18127.7 -1788.38 0)
(-13597.5 -179.127 0)
(617.418 -231.789 0)
(419.763 -266.136 0)
(361.354 -271.521 0)
(229.537 -254.114 0)
(132.707 -218.332 0)
(32.5184 -187.882 0)
(-37.1883 -153.45 0)
(-83.074 -123.277 0)
(-113.18 -104.797 0)
(-121.789 -89.4578 0)
(-118.206 -80.2553 0)
(-104.987 -71.3875 0)
(-89.0759 -64.4463 0)
(-71.9719 -57.7767 0)
(-56.8911 -51.9746 0)
(-44.1881 -47.2193 0)
(-36.585 -43.5477 0)
(-31.3639 -40.9371 0)
(-26.2858 -38.3788 0)
(-26.2792 -36.2381 0)
(-27.4504 -35.0933 0)
(-27.7495 -34.2861 0)
(-27.3967 -34.3195 0)
(-26.8077 -34.5598 0)
(-22.5375 -36.1423 0)
(-21.2717 -36.8213 0)
(-17.098 -39.5024 0)
(-20.908 -41.5326 0)
(-41.4713 -43.9765 0)
(-59.8052 -53.1964 0)
(-92.5998 -59.9234 0)
(-128.289 -75.3044 0)
(-147.121 -97.3987 0)
(-151.368 -123.512 0)
(-114.692 -131.507 0)
(-38.6507 -128.836 0)
(16603.1 -425.977 0)
(-21000.3 -3191.96 0)
(17080.8 -2169.03 0)
(-12760 -204.747 0)
(582.12 -245.459 0)
(398.361 -243.793 0)
(362.65 -272.566 0)
(257.282 -255.224 0)
(162.664 -222.219 0)
(64.4787 -196.545 0)
(-4.37079 -160.942 0)
(-57.6832 -134.542 0)
(-94.1647 -117.44 0)
(-108.02 -102.085 0)
(-108.386 -92.7105 0)
(-96.6148 -82.4525 0)
(-82.049 -74.064 0)
(-65.7764 -65.9035 0)
(-51.9194 -59.243 0)
(-40.4287 -54.1861 0)
(-33.8747 -50.6098 0)
(-28.9667 -48.1596 0)
(-23.8372 -45.5115 0)
(-24.3928 -43.1398 0)
(-26.2211 -41.8792 0)
(-27.1881 -41.0663 0)
(-27.6356 -41.391 0)
(-28.1975 -42.1363 0)
(-24.6153 -44.7456 0)
(-24.4839 -46.5438 0)
(-21.9981 -51.1776 0)
(-26.6133 -56.4704 0)
(-51.8049 -61.0957 0)
(-72.7759 -74.3975 0)
(-108.07 -83.5062 0)
(-150.85 -103.526 0)
(-175.671 -127.599 0)
(-172.913 -165.434 0)
(-119.335 -179.97 0)
(-160.833 -179.513 0)
(15058.5 -382.912 0)
(-19167.1 -3512.48 0)
(15840.2 -2464.68 0)
(-11743.9 -236.274 0)
(579.792 -274.864 0)
(393.641 -268.712 0)
(350.339 -283.765 0)
(278.053 -251.695 0)
(189.253 -231.081 0)
(91.5675 -214.448 0)
(22.5591 -179.391 0)
(-41.1536 -157.065 0)
(-81.9032 -142.345 0)
(-97.9589 -124.474 0)
(-99.2872 -113.006 0)
(-87.0182 -98.1336 0)
(-73.1287 -85.3989 0)
(-57.6899 -72.6398 0)
(-45.5998 -61.5525 0)
(-35.8688 -52.6588 0)
(-30.7776 -46.1387 0)
(-26.451 -42.1321 0)
(-21.4486 -39.6013 0)
(-22.779 -38.8298 0)
(-25.4522 -40.5189 0)
(-27.2791 -43.3262 0)
(-28.4278 -47.7242 0)
(-30.0403 -52.2545 0)
(-26.7847 -58.5952 0)
(-27.4698 -63.3378 0)
(-26.6636 -70.4386 0)
(-30.4653 -80.1562 0)
(-58.7465 -86.2782 0)
(-81.4008 -104.884 0)
(-120.669 -119.299 0)
(-170.778 -149.772 0)
(-206.778 -184.325 0)
(-201.835 -225.98 0)
(-128.259 -246.609 0)
(-234.213 -248.284 0)
(13391.3 -338.015 0)
(-17246.5 -3728.5 0)
(14478.1 -2627.28 0)
(-10649.8 -293.211 0)
(550.862 -341.361 0)
(389.784 -358.652 0)
(379.048 -363.816 0)
(308.05 -307.434 0)
(198.557 -286.908 0)
(114.288 -251.458 0)
(50.9254 -206.035 0)
(-21.9839 -186.495 0)
(-62.7592 -166.805 0)
(-79.7483 -143.293 0)
(-83.0032 -128.646 0)
(-70.0118 -110.551 0)
(-57.4823 -94.7815 0)
(-42.7972 -79.5276 0)
(-32.665 -66.5531 0)
(-25.5754 -56.4529 0)
(-23.7308 -49.5816 0)
(-22.667 -45.3655 0)
(-20.6549 -42.3652 0)
(-25.277 -41.4578 0)
(-30.554 -43.5898 0)
(-34.1313 -47.3827 0)
(-36.2392 -53.5393 0)
(-38.6732 -60.3046 0)
(-35.2956 -69.2377 0)
(-35.8966 -77.8323 0)
(-38.2049 -89.0911 0)
(-41.8769 -107.449 0)
(-75.6335 -122.139 0)
(-104.596 -150.491 0)
(-151.326 -172.192 0)
(-213.511 -215.748 0)
(-249.108 -262.594 0)
(-232.933 -307.194 0)
(-140.828 -335.652 0)
(-248.915 -343.734 0)
(11704.8 -344.941 0)
(-15248.5 -3740.87 0)
(13026 -2756.3 0)
(-9541.13 -306.566 0)
(516.73 -357.957 0)
(372.002 -383.858 0)
(399.695 -383.573 0)
(352.165 -342.352 0)
(243.193 -309.898 0)
(169.5 -260.219 0)
(85.16 -214.067 0)
(-3.3505 -203.791 0)
(-40.272 -178.614 0)
(-61.187 -159.118 0)
(-67.7357 -143.473 0)
(-54.3855 -124.117 0)
(-43.2339 -108.223 0)
(-30.4879 -91.9888 0)
(-23.3642 -78.4577 0)
(-19.5145 -66.4101 0)
(-20.0933 -57.2716 0)
(-19.4971 -51.8983 0)
(-17.683 -49.8983 0)
(-23.959 -51.2101 0)
(-31.1616 -55.7005 0)
(-36.8667 -61.3676 0)
(-40.8799 -69.1364 0)
(-45.1679 -76.597 0)
(-43.675 -85.4092 0)
(-46.6013 -94.5878 0)
(-55.203 -105.078 0)
(-62.3116 -125.554 0)
(-100.223 -141.897 0)
(-129.633 -172.074 0)
(-183.554 -199.456 0)
(-257.894 -241 0)
(-294.898 -286.076 0)
(-272.236 -315.674 0)
(-163.47 -342.847 0)
(-243.163 -343.821 0)
(10117.7 -312.563 0)
(-13309.3 -3590.02 0)
(11526.6 -2371.4 0)
(-8338.71 -228.325 0)
(476.38 -294.128 0)
(365.1 -331.19 0)
(419.045 -328.415 0)
(379.045 -314.258 0)
(277.703 -280.725 0)
(206.635 -226.296 0)
(105.302 -232.457 0)
(12.1801 -215.191 0)
(-19.7105 -183.756 0)
(-45.8853 -175.564 0)
(-49.275 -164.095 0)
(-36.0437 -146.008 0)
(-26.5227 -130.655 0)
(-14.1142 -113.364 0)
(-8.01642 -98.6804 0)
(-5.15969 -85.2882 0)
(-9.74668 -74.155 0)
(-15.5619 -67.7137 0)
(-19.9917 -66.9187 0)
(-30.8683 -69.7409 0)
(-40.3422 -76.6304 0)
(-47.0786 -84.9545 0)
(-50.9148 -94.9622 0)
(-54.3543 -103.879 0)
(-52.6323 -111.369 0)
(-54.8503 -119.763 0)
(-68.0451 -127.03 0)
(-77.3569 -144.118 0)
(-120.461 -154.21 0)
(-160.062 -173.046 0)
(-217.746 -192.339 0)
(-296.981 -215.354 0)
(-321.067 -249.336 0)
(-287.64 -263.554 0)
(-167.951 -279.297 0)
(-219.732 -262.61 0)
(8576.64 -214.091 0)
(-11487.8 -2912.27 0)
(10520.8 -2052.34 0)
(-7539.39 -63.3661 0)
(417.606 -118.555 0)
(338.962 -176.839 0)
(416.012 -205.25 0)
(398.121 -212.696 0)
(327.957 -194.929 0)
(216.012 -159.568 0)
(95.861 -194.048 0)
(43.5797 -181.92 0)
(-2.08617 -164.213 0)
(-42.2405 -164.002 0)
(-39.2545 -155.242 0)
(-22.1619 -144.223 0)
(-11.777 -133.661 0)
(0.323977 -120.961 0)
(3.69102 -108.347 0)
(4.11911 -96.8523 0)
(-3.15785 -86.3771 0)
(-12.5238 -79.8756 0)
(-19.6365 -79.777 0)
(-33.3176 -83.572 0)
(-45.822 -90.5427 0)
(-54.5319 -97.3106 0)
(-59.1158 -104.264 0)
(-60.9785 -109.097 0)
(-58.982 -109.888 0)
(-61.6923 -113.735 0)
(-78.6719 -112.443 0)
(-88.503 -120.631 0)
(-128.099 -120.685 0)
(-166.376 -122.975 0)
(-224.323 -125.629 0)
(-312.819 -129.693 0)
(-341.346 -145.239 0)
(-301.107 -149.327 0)
(-162.56 -143.949 0)
(-180.329 -127.074 0)
(7564.43 -56.9486 0)
(-10296.6 -2470.3 0)
(9487.81 6942.05 0)
(-6475.24 584.799 0)
(367.033 93.2738 0)
(281.558 -45.5375 0)
(384.492 -127.264 0)
(388.991 -182.596 0)
(328.899 -188.019 0)
(207.484 -129.209 0)
(83.7621 7.33028 0)
(40.9297 195.516 0)
(-2.44322 425.354 0)
(-37.2402 580.336 0)
(-30.2157 733.397 0)
(-15.2476 821.343 0)
(-4.10661 891.832 0)
(10.2795 926.068 0)
(15.2157 954.031 0)
(16.0114 948.774 0)
(6.61271 961.488 0)
(-9.20183 943.445 0)
(-23.5538 940.793 0)
(-41.2424 961.695 0)
(-53.5812 951.791 0)
(-60.3007 960.567 0)
(-62.2724 936.183 0)
(-59.7742 904.28 0)
(-57.1022 854.539 0)
(-57.3122 751.791 0)
(-74.6903 663.791 0)
(-85.2989 454.569 0)
(-122.72 276.805 0)
(-164.826 72.5335 0)
(-224.22 -70.1276 0)
(-315.879 -153.174 0)
(-339.986 -186.733 0)
(-286.397 -177.654 0)
(-146.507 -144.781 0)
(-135.895 -95.5436 0)
(6318.62 421.523 0)
(-9052.44 6296.14 0)
(17773.9 163382 0)
(-14139.1 15907.4 0)
(-189.809 8172.82 0)
(126.443 9468.95 0)
(283.937 10556.8 0)
(339.576 12156.6 0)
(379.403 13752.9 0)
(404.258 15395.1 0)
(408.778 16939.2 0)
(446.403 18407.6 0)
(368.74 19754.3 0)
(254.6 20990.5 0)
(192.989 22147.4 0)
(130.513 23112 0)
(89.1403 23902.2 0)
(60.2609 24558.4 0)
(25.5705 25062 0)
(11.3048 25561.4 0)
(-8.29229 25772 0)
(-32.4666 25956.1 0)
(-2.05072 25944.8 0)
(-22.7196 25711 0)
(-46.9088 25511.4 0)
(-69.5719 24907.7 0)
(-113.356 24455.9 0)
(-139.654 23624.4 0)
(-205.926 22866.3 0)
(-245.504 21738.6 0)
(-365.087 20581 0)
(-461.416 19170.6 0)
(-496.242 17697.6 0)
(-500.693 16120.6 0)
(-441.824 14422.1 0)
(-425.184 12660.1 0)
(-364.935 10950.2 0)
(-260.681 9240.77 0)
(-83.4357 8093.36 0)
(365.382 6659.98 0)
(13723.7 13833.2 0)
(-16770 148851 0)
(182258 -188253 0)
(-156041 -19327.1 0)
(-5837.33 -11651.4 0)
(2578.85 -13072.5 0)
(2974.41 -14458.8 0)
(3468.87 -16453.8 0)
(3449.67 -18410.9 0)
(3277.89 -20427.4 0)
(2986.7 -22232 0)
(2753.67 -23951 0)
(2486.54 -25552.8 0)
(2268.9 -26914 0)
(2014.12 -28171.6 0)
(1675.7 -29204.4 0)
(1389.7 -30045.9 0)
(1127.92 -30739.1 0)
(981.783 -31279 0)
(700.17 -31784.4 0)
(386.888 -32017.3 0)
(157.272 -32177.3 0)
(-259.715 -32146.8 0)
(-458.807 -31905.7 0)
(-827.645 -31647.1 0)
(-1077.42 -30998.1 0)
(-1298.93 -30456.8 0)
(-1591.56 -29532.5 0)
(-1874.28 -28660.3 0)
(-2259.55 -27373.8 0)
(-2549.39 -26060.7 0)
(-2863.81 -24349.4 0)
(-3061.78 -22610 0)
(-3321.29 -20657.1 0)
(-3558.88 -18643.8 0)
(-3661.48 -16505.4 0)
(-3634.98 -14402.9 0)
(-3039.37 -12354.6 0)
(-2633.46 -10978.3 0)
(5395.22 -9535.14 0)
(143339 -16956.3 0)
(-165821 -172525 0)
(182258 188253 0)
(-156041 19327.1 0)
(-5837.33 11651.4 0)
(2578.85 13072.5 0)
(2974.41 14458.8 0)
(3468.87 16453.8 0)
(3449.67 18410.9 0)
(3277.89 20427.4 0)
(2986.7 22232 0)
(2753.67 23951 0)
(2486.54 25552.8 0)
(2268.9 26914 0)
(2014.12 28171.6 0)
(1675.7 29204.4 0)
(1389.7 30045.9 0)
(1127.92 30739.1 0)
(981.783 31279 0)
(700.17 31784.4 0)
(386.888 32017.3 0)
(157.272 32177.3 0)
(-259.715 32146.8 0)
(-458.807 31905.7 0)
(-827.645 31647.1 0)
(-1077.42 30998.1 0)
(-1298.93 30456.8 0)
(-1591.56 29532.5 0)
(-1874.28 28660.3 0)
(-2259.55 27373.8 0)
(-2549.39 26060.7 0)
(-2863.81 24349.4 0)
(-3061.78 22610 0)
(-3321.29 20657.1 0)
(-3558.88 18643.8 0)
(-3661.48 16505.4 0)
(-3634.98 14402.9 0)
(-3039.37 12354.6 0)
(-2633.46 10978.3 0)
(5395.22 9535.14 0)
(143339 16956.3 0)
(-165821 172525 0)
(17773.9 -163382 0)
(-14139.1 -15907.4 0)
(-189.809 -8172.82 0)
(126.443 -9468.95 0)
(283.937 -10556.8 0)
(339.576 -12156.6 0)
(379.403 -13752.9 0)
(404.258 -15395.1 0)
(408.778 -16939.2 0)
(446.403 -18407.6 0)
(368.74 -19754.3 0)
(254.6 -20990.5 0)
(192.989 -22147.4 0)
(130.513 -23112 0)
(89.1403 -23902.2 0)
(60.2609 -24558.4 0)
(25.5705 -25062 0)
(11.3048 -25561.4 0)
(-8.29229 -25772 0)
(-32.4666 -25956.1 0)
(-2.05072 -25944.8 0)
(-22.7196 -25711 0)
(-46.9088 -25511.4 0)
(-69.5719 -24907.7 0)
(-113.356 -24455.9 0)
(-139.654 -23624.4 0)
(-205.926 -22866.3 0)
(-245.504 -21738.6 0)
(-365.087 -20581 0)
(-461.416 -19170.6 0)
(-496.242 -17697.6 0)
(-500.693 -16120.6 0)
(-441.824 -14422.1 0)
(-425.184 -12660.1 0)
(-364.935 -10950.2 0)
(-260.681 -9240.77 0)
(-83.4357 -8093.36 0)
(365.382 -6659.98 0)
(13723.7 -13833.2 0)
(-16770 -148851 0)
(9487.81 -6942.05 0)
(-6475.24 -584.799 0)
(367.033 -93.2738 0)
(281.558 45.5375 0)
(384.492 127.264 0)
(388.991 182.596 0)
(328.899 188.019 0)
(207.484 129.209 0)
(83.7621 -7.33028 0)
(40.9297 -195.516 0)
(-2.44322 -425.354 0)
(-37.2402 -580.336 0)
(-30.2157 -733.397 0)
(-15.2476 -821.343 0)
(-4.10661 -891.832 0)
(10.2795 -926.068 0)
(15.2156 -954.031 0)
(16.0114 -948.774 0)
(6.61271 -961.488 0)
(-9.20183 -943.445 0)
(-23.5538 -940.793 0)
(-41.2424 -961.695 0)
(-53.5812 -951.791 0)
(-60.3007 -960.567 0)
(-62.2724 -936.183 0)
(-59.7742 -904.28 0)
(-57.1022 -854.539 0)
(-57.3122 -751.791 0)
(-74.6903 -663.791 0)
(-85.2989 -454.569 0)
(-122.72 -276.805 0)
(-164.826 -72.5335 0)
(-224.22 70.1276 0)
(-315.879 153.174 0)
(-339.986 186.733 0)
(-286.397 177.654 0)
(-146.507 144.781 0)
(-135.895 95.5436 0)
(6318.62 -421.523 0)
(-9052.44 -6296.14 0)
(10520.8 2052.34 0)
(-7539.39 63.3661 0)
(417.606 118.555 0)
(338.962 176.839 0)
(416.012 205.25 0)
(398.121 212.696 0)
(327.957 194.929 0)
(216.012 159.568 0)
(95.861 194.048 0)
(43.5797 181.92 0)
(-2.08617 164.213 0)
(-42.2405 164.002 0)
(-39.2545 155.242 0)
(-22.1619 144.223 0)
(-11.777 133.661 0)
(0.323977 120.961 0)
(3.69102 108.347 0)
(4.11911 96.8523 0)
(-3.15785 86.3771 0)
(-12.5238 79.8756 0)
(-19.6365 79.777 0)
(-33.3176 83.572 0)
(-45.822 90.5427 0)
(-54.5319 97.3106 0)
(-59.1158 104.264 0)
(-60.9785 109.097 0)
(-58.982 109.888 0)
(-61.6923 113.735 0)
(-78.6719 112.443 0)
(-88.503 120.631 0)
(-128.099 120.685 0)
(-166.376 122.975 0)
(-224.323 125.629 0)
(-312.819 129.693 0)
(-341.346 145.239 0)
(-301.107 149.327 0)
(-162.56 143.949 0)
(-180.329 127.074 0)
(7564.43 56.9486 0)
(-10296.6 2470.3 0)
(11526.6 2371.4 0)
(-8338.71 228.325 0)
(476.38 294.128 0)
(365.1 331.19 0)
(419.045 328.415 0)
(379.045 314.258 0)
(277.703 280.725 0)
(206.635 226.296 0)
(105.302 232.457 0)
(12.1801 215.191 0)
(-19.7105 183.756 0)
(-45.8853 175.564 0)
(-49.275 164.095 0)
(-36.0437 146.008 0)
(-26.5227 130.655 0)
(-14.1142 113.364 0)
(-8.01642 98.6804 0)
(-5.15969 85.2882 0)
(-9.74668 74.155 0)
(-15.5619 67.7137 0)
(-19.9917 66.9187 0)
(-30.8683 69.7409 0)
(-40.3422 76.6304 0)
(-47.0786 84.9545 0)
(-50.9148 94.9622 0)
(-54.3543 103.879 0)
(-52.6323 111.369 0)
(-54.8503 119.763 0)
(-68.0451 127.03 0)
(-77.3569 144.118 0)
(-120.461 154.21 0)
(-160.062 173.046 0)
(-217.746 192.339 0)
(-296.981 215.354 0)
(-321.067 249.336 0)
(-287.64 263.554 0)
(-167.951 279.297 0)
(-219.732 262.61 0)
(8576.64 214.091 0)
(-11487.8 2912.27 0)
(13026 2756.3 0)
(-9541.13 306.566 0)
(516.73 357.957 0)
(372.002 383.858 0)
(399.695 383.573 0)
(352.165 342.352 0)
(243.193 309.898 0)
(169.5 260.219 0)
(85.16 214.067 0)
(-3.3505 203.791 0)
(-40.272 178.614 0)
(-61.187 159.118 0)
(-67.7357 143.473 0)
(-54.3855 124.117 0)
(-43.2339 108.223 0)
(-30.4879 91.9888 0)
(-23.3642 78.4577 0)
(-19.5145 66.4101 0)
(-20.0933 57.2716 0)
(-19.4971 51.8983 0)
(-17.683 49.8983 0)
(-23.959 51.2101 0)
(-31.1616 55.7005 0)
(-36.8667 61.3676 0)
(-40.8799 69.1364 0)
(-45.1679 76.597 0)
(-43.675 85.4092 0)
(-46.6013 94.5878 0)
(-55.203 105.078 0)
(-62.3116 125.554 0)
(-100.223 141.897 0)
(-129.633 172.074 0)
(-183.554 199.456 0)
(-257.894 241 0)
(-294.898 286.076 0)
(-272.236 315.674 0)
(-163.47 342.847 0)
(-243.163 343.821 0)
(10117.7 312.563 0)
(-13309.3 3590.02 0)
(14478.1 2627.28 0)
(-10649.8 293.211 0)
(550.862 341.361 0)