/*--------------------------------*- C++ -*----------------------------------*\
| =========                 |                                                 |
| \\      /  F ield         | OpenFOAM: The Open Source CFD Toolbox           |
|  \\    /   O peration     | Version:  v1912                                 |
|   \\  /    A nd           | Website:  www.openfoam.com                      |
|    \\/     M anipulation  |                                                 |
\*---------------------------------------------------------------------------*/
FoamFile
{
    version     2.0;
    format      ascii;
    class       volScalarField;
    location    "2.22";
    object      T;
}
// * * * * * * * * * * * * * * * * * * * * * * * * * * * * * * * * * * * * * //

dimensions      [0 0 0 1 0 0 0];


internalField   nonuniform List<scalar> 
1900
(
1.07583
1.01879
1.01978
1.02083
1.0219
1.023
1.02431
1.02594
1.02767
1.03049
1.07583
1.01879
1.01978
1.02082
1.0219
1.02299
1.02424
1.02563
1.02715
1.02995
1.07583
1.01878
1.01978
1.02083
1.0219
1.02298
1.02424
1.02569
1.02739
1.02971
1.07583
1.01879
1.01978
1.02082
1.0219
1.02299
1.02424
1.02563
1.02715
1.02995
1.07583
1.01879
1.01978
1.02083
1.0219
1.023
1.02431
1.02594
1.02767
1.03049
1.02952
1.03387
1.03805
1.03927
1.01259
1.0325
1.0367
1.0403
1.0437
1.03212
1.03207
1.03578
1.03885
1.0407
1.02771
1.0325
1.0367
1.0403
1.0437
1.03212
1.02952
1.03387
1.03805
1.03927
1.01259
1.06271
1.04736
1.03682
1.01017
0.96497
1.05701
1.04581
1.03599
1.01903
0.993467
1.05584
1.04547
1.03527
1.01981
0.998427
1.05701
1.04581
1.03599
1.01903
0.993467
1.06271
1.04736
1.03682
1.01017
0.96497
0.841198
0.778992
0.839073
0.854405
0.849562
0.849026
0.854104
0.861374
0.870901
0.881981
0.894996
0.909246
0.924263
0.939571
0.954771
0.96936
0.982504
0.992699
0.998345
0.999956
0.999937
0.998152
0.99215
0.981492
0.967842
0.952683
0.936796
0.920564
0.904199
0.887855
0.87167
0.855808
0.840492
0.825962
0.812392
0.800097
0.790472
0.781614
0.711479
0.601763
0.954645
0.823975
0.854646
0.856708
0.850581
0.84949
0.854273
0.861576
0.87108
0.882141
0.895145
0.909381
0.924379
0.939669
0.954842
0.969421
0.982559
0.992753
0.998395
1
0.999984
0.998199
0.992195
0.981536
0.967882
0.952718
0.936825
0.920585
0.904213
0.887862
0.87167
0.855803
0.840482
0.825948
0.812376
0.800081
0.790457
0.7816
0.711469
0.601761
0.959406
0.853118
0.864914
0.858749
0.850823
0.849647
0.854333
0.86163
0.871126
0.882181
0.89518
0.909408
0.924392
0.939674
0.954857
0.969443
0.982583
0.992772
0.998409
1.00001
0.999995
0.99821
0.992206
0.981545
0.96789
0.952723
0.936828
0.920586
0.904211
0.887858
0.871664
0.855794
0.840472
0.825937
0.812365
0.800071
0.790447
0.781592
0.711462
0.60176
0.954645
0.823975
0.854646
0.856708
0.850581
0.84949
0.854273
0.861576
0.87108
0.882141
0.895145
0.909381
0.924379
0.939669
0.954842
0.969421
0.982559
0.992753
0.998395
1
0.999984
0.998199
0.992195
0.981536
0.967882
0.952718
0.936825
0.920585
0.904213
0.887862
0.87167
0.855803
0.840482
0.825948
0.812376
0.800081
0.790457
0.7816
0.711469
0.601761
0.841198
0.778992
0.839073
0.854405
0.849562
0.849026
0.854104
0.861374
0.870901
0.881981
0.894996
0.909246
0.924263
0.939571
0.954771
0.96936
0.982504
0.992699
0.998345
0.999956
0.999937
0.998152
0.99215
0.981492
0.967842
0.952683
0.936796
0.920564
0.904199
0.887855
0.87167
0.855808
0.840492
0.825962
0.812392
0.800097
0.790472
0.781614
0.711479
0.601763
0.648946
0.731602
0.827584
0.844755
0.845188
0.847163
0.852932
0.860163
0.869675
0.880813
0.893807
0.908016
0.922962
0.938205
0.95335
0.96791
0.98104
0.991237
0.996899
0.998531
0.998516
0.996738
0.990751
0.980125
0.966523
0.951427
0.935618
0.919474
0.903207
0.886966
0.870886
0.85513
0.839916
0.825482
0.812
0.799786
0.790217
0.781427
0.711369
0.601753
0.577746
0.730133
0.81653
0.82992
0.837016
0.842514
0.849178
0.856778
0.866382
0.877726
0.890735
0.904898
0.919749
0.934875
0.949899
0.964343
0.977379
0.987523
0.993172
0.994806
0.994793
0.993027
0.987079
0.976522
0.963016
0.948043
0.93238
0.916403
0.90032
0.884279
0.86841
0.852873
0.837881
0.823669
0.810401
0.798394
0.788987
0.780426
0.71067
0.601639
0.576666
0.731096
0.806429
0.818797
0.827761
0.834689
0.841559
0.849433
0.859028
0.870468
0.883365
0.897338
0.911949
0.926824
0.941607
0.955839
0.968706
0.978743
0.984355
0.98599
0.98598
0.984246
0.978381
0.967957
0.954623
0.939854
0.924424
0.908708
0.892913
0.877181
0.861645
0.846459
0.831835
0.818002
0.805112
0.793489
0.784443
0.776407
0.707486
0.600653
0.580901
0.724751
0.794968
0.80723
0.815626
0.822778
0.829765
0.838159
0.848017
0.859545
0.872432
0.886282
0.900708
0.915367
0.929927
0.943949
0.956636
0.966541
0.97208
0.973694
0.973688
0.972003
0.966257
0.956001
0.942862
0.928305
0.913103
0.897628
0.882088
0.866626
0.851372
0.836481
0.822163
0.808641
0.796059
0.784753
0.776149
0.768579
0.700718
0.597111
0.580608
0.713582
0.782106
0.792421
0.799821
0.807711
0.815499
0.824406
0.834659
0.846415
0.859376
0.873182
0.88748
0.901965
0.916337
0.930175
0.942695
0.952458
0.957898
0.959474
0.959471
0.957851
0.952257
0.942197
0.929265
0.914918
0.89993
0.884672
0.869351
0.854111
0.839083
0.824419
0.810323
0.797008
0.784631
0.773544
0.765386
0.757991
0.69127
0.590047
0.581774
0.69769
0.766376
0.776402
0.783818
0.791733
0.800064
0.809512
0.820213
0.832238
0.845312
0.859104
0.873304
0.887646
0.901857
0.915533
0.927895
0.937502
0.942811
0.944328
0.944327
0.942788
0.937374
0.927535
0.914818
0.90068
0.885896
0.870839
0.855717
0.840673
0.825837
0.811359
0.797432
0.78426
0.772039
0.76114
0.753358
0.745855
0.680581
0.58023
0.569704
0.682631
0.750357
0.760364
0.767745
0.775499
0.784264
0.794187
0.8053
0.81759
0.830774
0.844559
0.858676
0.872899
0.886976
0.900511
0.91272
0.92215
0.927294
0.928733
0.928733
0.927287
0.922081
0.912483
0.899992
0.886062
0.871476
0.856611
0.841675
0.826812
0.812153
0.797835
0.784052
0.770989
0.758919
0.748201
0.740671
0.732878
0.669533
0.569077
0.561591
0.668959
0.734766
0.744537
0.751716
0.759331
0.768426
0.778742
0.790241
0.802753
0.816036
0.829811
0.843864
0.857993
0.87196
0.885369
0.897419
0.906647
0.911591
0.912933
0.912934
0.911592
0.906618
0.897282
0.885024
0.871303
0.856911
0.842231
0.827471
0.812783
0.798282
0.784122
0.770453
0.757486
0.745579
0.735022
0.727607
0.719448
0.658477
0.557357
0.552284
0.656004
0.719292
0.728913
0.735781
0.7433
0.752683
0.763376
0.775183
0.787924
0.801268
0.81505
0.829054
0.84311
0.856982
0.870268
0.882147
0.89114
0.895851
0.897085
0.897086
0.895856
0.891135
0.882081
0.870065
0.856551
0.84235
0.827848
0.813263
0.798729
0.784404
0.770346
0.756835
0.743908
0.73219
0.72174
0.714328
0.70581
0.64753
0.546052
0.542175
0.643657
0.703898
0.713207
0.719904
0.727445
0.737186
0.748155
0.76035
0.773193
0.786656
0.800422
0.814401
0.828393
0.842175
0.85533
0.867018
0.875744
0.880194
0.881311
0.881312
0.880199
0.87575
0.866997
0.85523
0.841925
0.827909
0.813583
0.799154
0.784799
0.770569
0.756718
0.743224
0.730447
0.718831
0.708463
0.700923
0.692119
0.636619
0.534512
0.532093
0.631877
0.688591
0.697382
0.704139
0.71191
0.722041
0.733404
0.745731
0.758837
0.772283
0.786102
0.80004
0.813978
0.827663
0.840676
0.852148
0.860577
0.864744
0.86574
0.86574
0.864747
0.860586
0.852151
0.840641
0.827543
0.813709
0.799543
0.785285
0.77103
0.757028
0.743152
0.729938
0.717139
0.705663
0.695338
0.687551
0.678592
0.625959
0.524095
0.520961
0.620152
0.673087
0.68138
0.688598
0.696949
0.707508
0.719054
0.731742
0.744783
0.758414
0.772199
0.786143
0.800017
0.813604
0.826461
0.837696
0.845799
0.849667
0.850542
0.850542
0.849669
0.845807
0.837707
0.826461
0.813565
0.799897
0.785887
0.771735
0.757662
0.743643
0.730081
0.716781
0.704189
0.692797
0.682314
0.674246
0.665163
0.615203
0.513448
0.51053
0.609338
0.658358
0.666302
0.674085
0.682998
0.693879
0.705647
0.718303
0.731586
0.745141
0.758994
0.772892
0.786717
0.800201
0.812896
0.82388
0.831637
0.835198
0.835955
0.835955
0.835198
0.831642
0.823891
0.81291
0.800204
0.786687
0.772793
0.758783
0.744755
0.730972
0.717336
0.704351
0.691859
0.680518
0.670053
0.661642
0.652608
0.605554
0.504355
0.499347
0.597908
0.643563
0.651821
0.660105
0.670111
0.680931
0.693102
0.705775
0.71908
0.732738
0.746576
0.760476
0.774241
0.787631
0.80017
0.810898
0.818297
0.821546
0.822191
0.822191
0.821546
0.8183
0.810906
0.800185
0.78765
0.774254
0.760466
0.746517
0.732596
0.718813
0.705323
0.692445
0.67986
0.668795
0.657856
0.6491
0.639928
0.595169
0.494788
0.490458
0.588134
0.630544
0.639073
0.647936
0.658624
0.66978
0.681931
0.694733
0.708041
0.72163
0.735354
0.749088
0.762702
0.775938
0.788298
0.798765
0.805805
0.808749
0.809293
0.809293
0.808749
0.805805
0.798769
0.788308
0.775957
0.762729
0.749117
0.735374
0.721626
0.707991
0.694604
0.681711
0.669364
0.658087
0.646948
0.637784
0.628656
0.586675
0.487574
0.481067
0.577825
0.617717
0.626483
0.635971
0.647533
0.658946
0.671641
0.684474
0.697936
0.711518
0.725184
0.738794
0.752227
0.765266
0.777415
0.787606
0.794275
0.796916
0.797364
0.797364
0.796916
0.794275
0.787607
0.77742
0.76528
0.752251
0.738829
0.725226
0.711565
0.697976
0.684497
0.67163
0.658866
0.647395
0.635642
0.625978
0.61687
0.577065
0.479542
0.476888
0.570384
0.607765
0.616244
0.626089
0.638289
0.650103
0.663232
0.676373
0.690117
0.703897
0.717682
0.73131
0.74462
0.757369
0.769092
0.778814
0.785075
0.787472
0.787854
0.787854
0.787472
0.785074
0.778814
0.769094
0.757376
0.744635
0.731335
0.717721
0.70395
0.690183
0.676454
0.663319
0.650192
0.638374
0.62613
0.616223
0.607579
0.570164
0.476182
0.477848
0.565161
0.600361
0.60798
0.617343
0.629546
0.641243
0.654474
0.66761
0.681535
0.695578
0.709735
0.723784
0.737493
0.750516
0.762255
0.771656
0.777388
0.779416
0.779708
0.779708
0.779416
0.777387
0.771656
0.762256
0.750519
0.737502
0.723802
0.709765
0.695623
0.681594
0.667687
0.654564
0.641348
0.629656
0.617444
0.608054
0.600344
0.565093
0.477555
0.455908
0.531371
0.565563
0.571027
0.57798
0.588049
0.596933
0.607778
0.618013
0.629147
0.640268
0.651556
0.662881
0.674255
0.685447
0.695843
0.704144
0.708924
0.710438
0.710626
0.710626
0.710438
0.708924
0.704144
0.695842
0.685447
0.674256
0.662888
0.651571
0.640296
0.629192
0.618079
0.607867
0.597049
0.58819
0.578143
0.571202
0.565708
0.531473
0.455766
0.401744
0.455153
0.477353
0.476415
0.479558
0.488042
0.495546
0.505539
0.515083
0.526179
0.537026
0.548981
0.560702
0.572545
0.583411
0.592116
0.597351
0.599283
0.599621
0.599642
0.599642
0.599621
0.599283
0.597351
0.592115
0.583411
0.572544
0.560701
0.548981
0.537026
0.526179
0.515085
0.505543
0.495553
0.488055
0.479577
0.476444
0.477387
0.455186
0.401751
0.401744
0.455153
0.477353
0.476415
0.479558
0.488042
0.495546
0.505539
0.515083
0.526179
0.537026
0.548981
0.560702
0.572545
0.583411
0.592116
0.597351
0.599283
0.599621
0.599642
0.599642
0.599621
0.599283
0.597351
0.592115
0.583411
0.572544
0.560701
0.548981
0.537026
0.526179
0.515085
0.505543
0.495553
0.488055
0.479577
0.476444
0.477387
0.455186
0.401751
0.455908
0.531371
0.565563
0.571027
0.57798
0.588049
0.596933
0.607778
0.618013
0.629147
0.640268
0.651556
0.662881
0.674255
0.685447
0.695843
0.704144
0.708924
0.710438
0.710626
0.710626
0.710438
0.708924
0.704144
0.695842
0.685447
0.674256
0.662888
0.651571
0.640296
0.629192
0.618079
0.607867
0.597049
0.58819
0.578143
0.571202
0.565708
0.531473
0.455766
0.477848
0.565161
0.600361
0.60798
0.617343
0.629546
0.641243
0.654474
0.66761
0.681535
0.695578
0.709735
0.723784
0.737493
0.750516
0.762255
0.771656
0.777388
0.779416
0.779708
0.779708
0.779416
0.777387
0.771656
0.762256
0.750519
0.737502
0.723802
0.709765
0.695623
0.681594
0.667687
0.654564
0.641348
0.629656
0.617444
0.608054
0.600344
0.565093
0.477555
0.476888
0.570384
0.607765
0.616244
0.626089
0.638289
0.650103
0.663232
0.676373
0.690117
0.703897
0.717682
0.73131
0.74462
0.757369
0.769092
0.778814
0.785075
0.787472
0.787854
0.787854
0.787472
0.785074
0.778814
0.769094
0.757376
0.744635
0.731335
0.717721
0.70395
0.690183
0.676454
0.663319
0.650192
0.638374
0.62613
0.616223
0.607579
0.570164
0.476182
0.481067
0.577825
0.617717
0.626483
0.635971
0.647533
0.658946
0.671641
0.684474
0.697936
0.711518
0.725184
0.738794
0.752227
0.765266
0.777415
0.787606
0.794275
0.796916
0.797364
0.797364
0.796916
0.794275
0.787607
0.77742
0.76528
0.752251
0.738829
0.725226
0.711565
0.697976
0.684497
0.67163
0.658866
0.647395
0.635642
0.625978
0.61687
0.577065
0.479542
0.490458
0.588134
0.630544
0.639073
0.647936
0.658624
0.66978
0.681931
0.694733
0.708041
0.72163
0.735354
0.749088
0.762702
0.775938
0.788298
0.798765
0.805805
0.808749
0.809293
0.809293
0.808749
0.805805
0.798769
0.788308
0.775957
0.762729
0.749117
0.735374
0.721626
0.707991
0.694604
0.681711
0.669364
0.658087
0.646948
0.637784
0.628656
0.586675
0.487574
0.499347
0.597908
0.643563
0.651821
0.660105
0.670111
0.680931
0.693102
0.705775
0.71908
0.732738
0.746576
0.760476
0.774241
0.787631
0.80017
0.810898
0.818297
0.821546
0.822191
0.822191
0.821546
0.8183
0.810906
0.800185
0.78765
0.774254
0.760466
0.746517
0.732596
0.718813
0.705323
0.692445
0.67986
0.668795
0.657856
0.6491
0.639928
0.595169
0.494788
0.51053
0.609338
0.658358
0.666302
0.674085
0.682998
0.693879
0.705647
0.718303
0.731586
0.745141
0.758994
0.772892
0.786717
0.800201
0.812896
0.82388
0.831637
0.835198
0.835955
0.835955
0.835198
0.831642
0.823891
0.81291
0.800204
0.786687
0.772793
0.758783
0.744755
0.730972
0.717336
0.704351
0.691859
0.680518
0.670053
0.661642
0.652608
0.605554
0.504355
0.520961
0.620152
0.673087
0.68138
0.688598
0.696949
0.707508
0.719054
0.731742
0.744783
0.758414
0.772199
0.786143
0.800017
0.813604
0.826461
0.837696
0.845799
0.849667
0.850542
0.850542
0.849669
0.845807
0.837707
0.826461
0.813565
0.799897
0.785887
0.771735
0.757662
0.743643
0.730081
0.716781
0.704189
0.692797
0.682314
0.674246
0.665163
0.615203
0.513448
0.532093
0.631877
0.688591
0.697382
0.704139
0.71191
0.722041
0.733404
0.745731
0.758837
0.772283
0.786102
0.80004
0.813978
0.827663
0.840676
0.852148
0.860577
0.864744
0.86574
0.86574
0.864747
0.860586
0.852151
0.840641
0.827543
0.813709
0.799543
0.785285
0.77103
0.757028
0.743152
0.729938
0.717139
0.705663
0.695338
0.687551
0.678592
0.625959
0.524095
0.542175
0.643657
0.703898
0.713207
0.719904
0.727445
0.737186
0.748155
0.76035
0.773193
0.786656
0.800422
0.814401
0.828393
0.842175
0.85533
0.867018
0.875744
0.880194
0.881311
0.881312
0.880199
0.87575
0.866997
0.85523
0.841925
0.827909
0.813583
0.799154
0.784799
0.770569
0.756718
0.743224
0.730447
0.718831
0.708463
0.700923
0.692119
0.636619
0.534512
0.552284
0.656004
0.719292
0.728913
0.735781
0.7433
0.752683
0.763376
0.775183
0.787924
0.801268
0.81505
0.829054
0.84311
0.856982
0.870268
0.882147
0.89114
0.895851
0.897085
0.897086
0.895856
0.891135
0.882081
0.870065
0.856551
0.84235
0.827848
0.813263
0.798729
0.784404
0.770346
0.756835
0.743908
0.73219
0.72174
0.714328
0.70581
0.64753
0.546052
0.561591
0.668959
0.734766
0.744537
0.751716
0.759331
0.768426
0.778742
0.790241
0.802753
0.816036
0.829811
0.843864
0.857993
0.87196
0.885369
0.897419
0.906647
0.911591
0.912933
0.912934
0.911592
0.906618
0.897282
0.885024
0.871303
0.856911
0.842231
0.827471
0.812783
0.798282
0.784122
0.770453
0.757486
0.745579
0.735022
0.727607
0.719448
0.658477
0.557357
0.569704
0.682631
0.750357
0.760364
0.767745
0.775499
0.784264
0.794187
0.8053
0.81759
0.830774
0.844559
0.858676
0.872899
0.886976
0.900511
0.91272
0.92215
0.927294
0.928733
0.928733
0.927287
0.922081
0.912483
0.899992
0.886062
0.871476
0.856611
0.841675
0.826812
0.812153
0.797835
0.784052
0.770989
0.758919
0.748201
0.740671
0.732878
0.669533
0.569077
0.581774
0.69769
0.766376
0.776402
0.783818
0.791733
0.800064
0.809512
0.820213
0.832238
0.845312
0.859104
0.873304
0.887646
0.901857
0.915533
0.927895
0.937502
0.942811
0.944328
0.944327
0.942788
0.937374
0.927535
0.914818
0.90068
0.885896
0.870839
0.855717
0.840673
0.825837
0.811359
0.797432
0.78426
0.772039
0.76114
0.753358
0.745855
0.680581
0.58023
0.580608
0.713582
0.782106
0.792421
0.799821
0.807711
0.815499
0.824406
0.834659
0.846415
0.859376
0.873182
0.88748
0.901965
0.916337
0.930175
0.942695
0.952458
0.957898
0.959474
0.959471
0.957851
0.952257
0.942197
0.929265
0.914918
0.89993
0.884672
0.869351
0.854111
0.839083
0.824419
0.810323
0.797008
0.784631
0.773544
0.765386
0.757991
0.69127
0.590047
0.580901
0.724751
0.794968
0.80723
0.815626
0.822778
0.829765
0.838159
0.848017
0.859545
0.872432
0.886282
0.900708
0.915367
0.929927
0.943949
0.956636
0.966541
0.97208
0.973694
0.973688
0.972003
0.966257
0.956001
0.942862
0.928305
0.913103
0.897628
0.882088
0.866626
0.851372
0.836481
0.822163
0.808641
0.796059
0.784753
0.776149
0.768579
0.700718
0.597111
0.576666
0.731096
0.806429
0.818797
0.827761
0.834689
0.841559
0.849433
0.859028
0.870468
0.883365
0.897338
0.911949
0.926824
0.941607
0.955839
0.968706
0.978743
0.984355
0.98599
0.98598
0.984246
0.978381
0.967957
0.954623
0.939854
0.924424
0.908708
0.892913
0.877181
0.861645
0.846459
0.831835
0.818002
0.805112
0.793489
0.784443
0.776407
0.707486
0.600653
0.577746
0.730133
0.81653
0.82992
0.837016
0.842514
0.849178
0.856778
0.866382
0.877726
0.890735
0.904898
0.919749
0.934875
0.949899
0.964343
0.977379
0.987523
0.993172
0.994806
0.994793
0.993027
0.987079
0.976522
0.963016
0.948043
0.93238
0.916403
0.90032
0.884279
0.86841
0.852873
0.837881
0.823669
0.810401
0.798394
0.788987
0.780426
0.71067
0.601639
0.648946
0.731602
0.827584
0.844755
0.845188
0.847163
0.852932
0.860163
0.869675
0.880813
0.893807
0.908016
0.922962
0.938205
0.95335
0.96791
0.98104
0.991237
0.996899
0.998531
0.998516
0.996738
0.990751
0.980125
0.966523
0.951427
0.935618
0.919474
0.903207
0.886966
0.870886
0.85513
0.839916
0.825482
0.812
0.799786
0.790217
0.781427
0.711369
0.601753
)
;

boundaryField
{
    inlet
    {
        type            fixedValue;
        value           uniform 1;
    }
    outlet
    {
        type            zeroGradient;
    }
    obstacle
    {
        type            zeroGradient;
    }
    empty
    {
        type            empty;
    }
}


// ************************************************************************* //
