/*--------------------------------*- C++ -*----------------------------------*\
| =========                 |                                                 |
| \\      /  F ield         | OpenFOAM: The Open Source CFD Toolbox           |
|  \\    /   O peration     | Version:  v1912                                 |
|   \\  /    A nd           | Website:  www.openfoam.com                      |
|    \\/     M anipulation  |                                                 |
\*---------------------------------------------------------------------------*/
FoamFile
{
    version     2.0;
    format      ascii;
    class       surfaceScalarField;
    location    "1.4";
    object      phi;
}
// * * * * * * * * * * * * * * * * * * * * * * * * * * * * * * * * * * * * * //

dimensions      [0 3 -1 0 0 0 0];
oriented        oriented;


internalField   nonuniform List<scalar> 
19800
(
7.03922e-11
-7.34321e-11
2.47029e-10
-1.76637e-10
4.41497e-10
-1.94468e-10
5.94579e-10
-1.53081e-10
6.72241e-10
-7.76616e-11
6.55662e-10
1.65788e-11
5.35395e-10
1.20267e-10
3.07924e-10
2.2747e-10
-2.64859e-11
3.3441e-10
-4.6513e-10
4.38644e-10
-1.00371e-09
5.38576e-10
-1.63684e-09
6.33136e-10
-2.35845e-09
7.21616e-10
-3.16201e-09
8.03552e-10
-4.04066e-09
8.78656e-10
-4.98743e-09
9.46761e-10
-5.99522e-09
1.00779e-09
-7.05696e-09
1.06175e-09
-8.16562e-09
1.10866e-09
-9.31425e-09
1.14863e-09
-1.0496e-08
1.18176e-09
-1.17042e-08
1.20819e-09
-1.29323e-08
1.22809e-09
-1.41739e-08
1.24163e-09
-1.54229e-08
1.24898e-09
-1.66732e-08
1.25035e-09
-1.79192e-08
1.24592e-09
-1.91551e-08
1.23591e-09
-2.03756e-08
1.22053e-09
-2.15756e-08
1.19999e-09
-2.27501e-08
1.1745e-09
-2.38944e-08
1.14428e-09
-2.50039e-08
1.10955e-09
-2.60744e-08
1.07053e-09
-2.71019e-08
1.02743e-09
-2.80824e-08
9.80482e-10
-2.90123e-08
9.29903e-10
-2.98882e-08
8.75919e-10
-3.07069e-08
8.18754e-10
-3.14656e-08
7.58631e-10
-3.21613e-08
6.95775e-10
-3.27918e-08
6.30415e-10
-3.33545e-08
5.6278e-10
-3.38476e-08
4.93103e-10
-3.42693e-08
4.21621e-10
-3.46178e-08
3.48573e-10
-3.4892e-08
2.74198e-10
-3.50908e-08
1.98738e-10
-3.52132e-08
1.22439e-10
-3.52588e-08
4.55515e-11
-3.52271e-08
-3.1669e-11
-3.51181e-08
-1.08963e-10
-3.49321e-08
-1.86067e-10
-3.46693e-08
-2.62716e-10
-3.43307e-08
-3.38641e-10
-3.39171e-08
-4.13571e-10
-3.34299e-08
-4.8723e-10
-3.28706e-08
-5.59338e-10
-3.22409e-08
-6.29613e-10
-3.15432e-08
-6.97768e-10
-3.07797e-08
-7.63519e-10
-2.99531e-08
-8.26578e-10
-2.90664e-08
-8.86659e-10
-2.81229e-08
-9.43476e-10
-2.71262e-08
-9.96745e-10
-2.608e-08
-1.04618e-09
-2.49885e-08
-1.0915e-09
-2.38561e-08
-1.13244e-09
-2.26874e-08
-1.1687e-09
-2.14873e-08
-1.20005e-09
-2.02611e-08
-1.22621e-09
-1.90142e-08
-1.24693e-09
-1.77522e-08
-1.262e-09
-1.6481e-08
-1.27116e-09
-1.52068e-08
-1.27422e-09
-1.39358e-08
-1.27097e-09
-1.26746e-08
-1.26123e-09
-1.14298e-08
-1.24484e-09
-1.02081e-08
-1.22166e-09
-9.01655e-09
-1.19156e-09
-7.86208e-09
-1.15446e-09
-6.75178e-09
-1.1103e-09
-5.69275e-09
-1.05904e-09
-4.69206e-09
-1.00069e-09
-3.75673e-09
-9.35327e-10
-2.89367e-09
-8.63066e-10
-2.10956e-09
-7.84106e-10
-1.41081e-09
-6.98745e-10
-8.03407e-10
-6.07405e-10
-2.9272e-10
-5.10687e-10
1.16713e-10
-4.09434e-10
4.21561e-10
-3.04849e-10
6.20225e-10
-1.98665e-10
7.13664e-10
-9.34389e-11
7.06711e-10
6.95428e-12
6.10184e-10
9.65286e-11
4.44193e-10
1.65991e-10
2.43753e-10
2.0044e-10
6.82135e-11
1.75539e-10
6.82128e-11
1.75089e-10
-2.48521e-10
4.8333e-10
-4.84878e-10
7.80174e-10
-4.91312e-10
9.60964e-10
-3.33871e-10
9.53045e-10
-6.97428e-11
7.09821e-10
2.59804e-10
2.04079e-10
6.26009e-10
-5.77476e-10
1.00903e-09
-1.63826e-09
1.3952e-09
-2.9747e-09
1.77508e-09
-4.57821e-09
2.14208e-09
-6.43669e-09
2.49162e-09
-8.53555e-09
2.82048e-09
-1.08584e-08
3.12644e-09
-1.33878e-08
3.408e-09
-1.61052e-08
3.66421e-09
-1.89919e-08
3.89451e-09
-2.20288e-08
4.09863e-09
-2.51967e-08
4.27656e-09
-2.84766e-08
4.42846e-09
-3.18494e-08
4.55462e-09
-3.52967e-08
4.65548e-09
-3.88001e-08
4.73153e-09
-4.23419e-08
4.78335e-09
-4.59045e-08
4.81159e-09
-4.94711e-08
4.81692e-09
-5.30252e-08
4.80005e-09
-5.6551e-08
4.76175e-09
-6.00333e-08
4.70277e-09
-6.34572e-08
4.62392e-09
-6.68087e-08
4.52599e-09
-7.00742e-08
4.4098e-09
-7.32408e-08
4.27619e-09
-7.62963e-08
4.12597e-09
-7.92289e-08
3.96001e-09
-8.20275e-08
3.77913e-09
-8.46818e-08
3.58421e-09
-8.7182e-08
3.37609e-09
-8.95189e-08
3.15565e-09
-9.1684e-08
2.92376e-09
-9.36695e-08
2.6813e-09
-9.54683e-08
2.42915e-09
-9.70737e-08
2.16821e-09
-9.848e-08
1.89937e-09
-9.96819e-08
1.62357e-09
-1.00675e-07
1.34172e-09
-1.01456e-07
1.05477e-09
-1.02021e-07
7.63647e-10
-1.02367e-07
4.69328e-10
-1.02495e-07
1.72784e-10
-1.02401e-07
-1.24999e-10
-1.02087e-07
-4.23015e-10
-1.01553e-07
-7.20247e-10
-1.008e-07
-1.01566e-09
-9.98306e-08
-1.30822e-09
-9.86473e-08
-1.59686e-09
-9.7254e-08
-1.88053e-09
-9.56552e-08
-2.15813e-09
-9.38562e-08
-2.42859e-09
-9.18632e-08
-2.69082e-09
-8.9683e-08
-2.94371e-09
-8.73234e-08
-3.18615e-09
-8.4793e-08
-3.41706e-09
-8.21011e-08
-3.63534e-09
-7.9258e-08
-3.83989e-09
-7.62745e-08
-4.02964e-09
-7.31625e-08
-4.20352e-09
-6.99344e-08
-4.36049e-09
-6.66036e-08
-4.4995e-09
-6.31841e-08
-4.61957e-09
-5.96906e-08
-4.71973e-09
-5.61385e-08
-4.79906e-09
-5.25438e-08
-4.85666e-09
-4.89233e-08
-4.8917e-09
-4.52941e-08
-4.90341e-09
-4.1674e-08
-4.89106e-09
-3.80812e-08
-4.854e-09
-3.45344e-08
-4.79166e-09
-3.10525e-08
-4.70356e-09
-2.76547e-08
-4.58934e-09
-2.43605e-08
-4.44871e-09
-2.11892e-08
-4.28154e-09
-1.81604e-08
-4.08786e-09
-1.52932e-08
-3.86786e-09
-1.26066e-08
-3.62195e-09
-1.01189e-08
-3.3508e-09
-7.84755e-09
-3.05543e-09
-5.80903e-09
-2.73726e-09
-4.01819e-09
-2.39825e-09
-2.48778e-09
-2.04109e-09
-1.22775e-09
-1.66946e-09
-2.44201e-10
-1.2884e-09
4.62004e-10
-9.04871e-10
8.97217e-10
-5.28652e-10
1.07776e-09
-1.73587e-10
1.03375e-09
1.40533e-10
8.14288e-10
3.85459e-10
4.93489e-10
5.21241e-10
1.75442e-10
4.93587e-10
2.43654e-10
1.94516e-10
-4.43037e-10
4.92497e-10
-7.82859e-10
7.16757e-10
-7.15571e-10
7.41362e-10
-3.58477e-10
4.75022e-10
1.96597e-10
-1.44592e-10
8.79419e-10
-1.15654e-09
1.63796e-09
-2.58189e-09
2.43438e-09
-4.42802e-09
3.24133e-09
-6.69198e-09
4.03904e-09
-9.36312e-09
4.81322e-09
-1.2425e-08
5.55351e-09
-1.5857e-08
6.25247e-09
-1.96353e-08
6.90476e-09
-2.3734e-08
7.50667e-09
-2.81254e-08
8.05567e-09
-3.27811e-08
8.55014e-09
-3.76716e-08
8.9892e-09
-4.27676e-08
9.3725e-09
-4.80393e-08
9.70014e-09
-5.34572e-08
9.97256e-09
-5.89922e-08
1.01905e-08
-6.46155e-08
1.03549e-08
-7.0299e-08
1.04668e-08
-7.6015e-08
1.05276e-08
-8.17368e-08
1.05387e-08
-8.74382e-08
1.05014e-08
-9.30939e-08
1.04175e-08
-9.86796e-08
1.02885e-08
-1.04172e-07
1.0116e-08
-1.09548e-07
9.90187e-09
-1.14786e-07
9.6478e-09
-1.19865e-07
9.35557e-09
-1.24766e-07
9.027e-09
-1.2947e-07
8.66392e-09
-1.33959e-07
8.26816e-09
-1.38216e-07
7.8416e-09
-1.42226e-07
7.38611e-09
-1.45974e-07
6.90359e-09
-1.49446e-07
6.39597e-09
-1.5263e-07
5.86517e-09
-1.55514e-07
5.31313e-09
-1.58088e-07
4.74184e-09
-1.60342e-07
4.15327e-09
-1.62268e-07
3.54944e-09
-1.63858e-07
2.93239e-09
-1.65108e-07
2.30418e-09
-1.66011e-07
1.66691e-09
-1.66564e-07
1.02268e-09
-1.66765e-07
3.73645e-10
-1.66612e-07
-2.78023e-10
-1.66105e-07
-9.30122e-10
-1.65245e-07
-1.58042e-09
-1.64034e-07
-2.22665e-09
-1.62476e-07
-2.86652e-09
-1.60575e-07
-3.49772e-09
-1.58337e-07
-4.11792e-09
-1.55771e-07
-4.72476e-09
-1.52884e-07
-5.31586e-09
-1.49686e-07
-5.88884e-09
-1.46188e-07
-6.4413e-09
-1.42403e-07
-6.97085e-09
-1.38345e-07
-7.47508e-09
-1.34029e-07
-7.95162e-09
-1.29471e-07
-8.39811e-09
-1.24688e-07
-8.81219e-09
-1.197e-07
-9.19156e-09
-1.14527e-07
-9.53397e-09
-1.09189e-07
-9.83719e-09
-1.03709e-07
-1.00991e-08
-9.81116e-08
-1.03176e-08
-9.242e-08
-1.04907e-08
-8.66601e-08
-1.06165e-08
-8.08584e-08
-1.06934e-08
-7.50423e-08
-1.07195e-08
-6.92399e-08
-1.06935e-08
-6.348e-08
-1.06139e-08
-5.77919e-08
-1.04798e-08
-5.22055e-08
-1.029e-08
-4.67509e-08
-1.00439e-08
-4.14584e-08
-9.74116e-09
-3.63584e-08
-9.38152e-09
-3.1481e-08
-8.96526e-09
-2.68558e-08
-8.49304e-09
-2.25118e-08
-7.966e-09
-1.84767e-08
-7.38591e-09
-1.47768e-08
-6.7553e-09
-1.14364e-08
-6.07765e-09
-8.47704e-09
-5.35764e-09
-5.91659e-09
-4.60154e-09
-3.76833e-09
-3.81773e-09
-2.03933e-09
-3.01739e-09
-7.28638e-10
-2.21556e-09
1.75244e-10
-1.43254e-09
6.97546e-10
-6.9589e-10
8.81255e-10
-4.31766e-11
7.91991e-10
4.74723e-10
5.23161e-10
7.90072e-10
2.00903e-10
8.15846e-10
4.44556e-10
1.55128e-10
-5.98164e-10
3.40399e-10
-9.6813e-10
3.68698e-10
-7.4387e-10
1.05808e-10
-9.5587e-11
-5.46917e-10
8.49322e-10
-1.65886e-09
1.99136e-09
-3.27518e-09
3.25428e-09
-5.42144e-09
4.58064e-09
-8.10757e-09
5.92746e-09
-1.13311e-08
7.26262e-09
-1.50801e-08
8.5622e-09
-1.9335e-08
9.8084e-09
-2.40706e-08
1.09881e-08
-2.92574e-08
1.20916e-08
-3.48627e-08
1.31119e-08
-4.08514e-08
1.40443e-08
-4.71866e-08
1.48854e-08
-5.38307e-08
1.56333e-08
-6.07451e-08
1.62869e-08
-6.7891e-08
1.6846e-08
-7.52296e-08
1.73112e-08
-8.27224e-08
1.76833e-08
-9.03314e-08
1.79639e-08
-9.80191e-08
1.81545e-08
-1.05749e-07
1.82573e-08
-1.13485e-07
1.82745e-08
-1.21192e-07
1.82085e-08
-1.28836e-07
1.80619e-08
-1.36385e-07
1.78374e-08
-1.43807e-07
1.75379e-08
-1.51071e-07
1.71663e-08
-1.58149e-07
1.67256e-08
-1.65012e-07
1.62187e-08
-1.71634e-07
1.56489e-08
-1.77989e-07
1.50192e-08
-1.84054e-07
1.43329e-08
-1.89805e-07
1.35931e-08
-1.95222e-07
1.28031e-08
-2.00285e-07
1.19662e-08
-2.04975e-07
1.10858e-08
-2.09275e-07
1.01651e-08
-2.13169e-07
9.20757e-09
-2.16644e-07
8.21666e-09
-2.19687e-07
7.19581e-09
-2.22286e-07
6.14852e-09
-2.24432e-07
5.07834e-09
-2.26116e-07
3.98886e-09
-2.27333e-07
2.88373e-09
-2.28077e-07
1.76663e-09
-2.28345e-07
6.41282e-10
-2.28134e-07
-4.88519e-10
-2.27445e-07
-1.61895e-09
-2.2628e-07
-2.74612e-09
-2.2464e-07
-3.86612e-09
-2.22532e-07
-4.97495e-09
-2.19961e-07
-6.06862e-09
-2.16936e-07
-7.14307e-09
-2.13466e-07
-8.19422e-09
-2.09564e-07
-9.21796e-09
-2.05243e-07
-1.02102e-08
-2.00517e-07
-1.11667e-08
-1.95405e-07
-1.20835e-08
-1.89924e-07
-1.29563e-08
-1.84094e-07
-1.3781e-08
-1.77939e-07
-1.45537e-08
-1.71481e-07
-1.52702e-08
-1.64746e-07
-1.59266e-08
-1.5776e-07
-1.65191e-08
-1.50554e-07
-1.70439e-08
-1.43156e-07
-1.74972e-08
-1.35598e-07
-1.78757e-08
-1.27912e-07
-1.81758e-08
-1.20134e-07
-1.83945e-08
-1.12299e-07
-1.85288e-08
-1.04443e-07
-1.85759e-08
-9.66028e-08
-1.85333e-08
-8.88178e-08
-1.8399e-08
-8.11266e-08
-1.8171e-08
-7.35687e-08
-1.78479e-08
-6.61841e-08
-1.74286e-08
-5.90126e-08
-1.69127e-08
-5.2094e-08
-1.63001e-08
-4.54678e-08
-1.55915e-08
-3.91725e-08
-1.47884e-08
-3.32454e-08
-1.3893e-08
-2.77224e-08
-1.29089e-08
-2.26369e-08
-1.18408e-08
-1.80194e-08
-1.06952e-08
-1.38966e-08
-9.48044e-09
-1.02903e-08
-8.20784e-09
-7.21603e-09
-6.89197e-09
-4.68149e-09
-5.55193e-09
-2.68429e-09
-4.21276e-09
-1.20952e-09
-2.90731e-09
-2.26586e-10
-1.67883e-09
3.14413e-10
-5.84177e-10
4.87004e-10
3.02133e-10
3.92935e-10
8.84141e-10
1.68146e-10
1.04064e-09
6.12704e-10
8.2322e-11
-6.80486e-10
8.3592e-11
-9.69399e-10
-1.73869e-10
-4.86407e-10
-8.21539e-10
5.52084e-10
-1.95747e-09
1.98525e-09
-3.65183e-09
3.68573e-09
-5.95124e-09
5.55368e-09
-8.88258e-09
7.51198e-09
-1.24564e-08
9.50132e-09
-1.66701e-08
1.14763e-08
-2.151e-08
1.34021e-08
-2.6954e-08
1.52524e-08
-3.29732e-08
1.70073e-08
-3.95334e-08
1.86518e-08
-4.65963e-08
2.01748e-08
-5.41205e-08
2.15685e-08
-6.20624e-08
2.28273e-08
-7.03768e-08
2.39477e-08
-7.90175e-08
2.49276e-08
-8.79379e-08
2.57663e-08
-9.70909e-08
2.64642e-08
-1.0643e-07
2.70222e-08
-1.15908e-07
2.74423e-08
-1.2548e-07
2.77267e-08
-1.35101e-07
2.78783e-08
-1.44727e-07
2.79003e-08
-1.54315e-07
2.77963e-08
-1.63823e-07
2.757e-08
-1.73211e-07
2.72254e-08
-1.8244e-07
2.67667e-08
-1.91472e-07
2.61983e-08
-2.00271e-07
2.55246e-08
-2.08802e-07
2.47503e-08
-2.17033e-07
2.38799e-08
-2.24933e-07
2.29183e-08
-2.3247e-07
2.18702e-08
-2.39617e-07
2.07406e-08
-2.46349e-07
1.95345e-08
-2.52639e-07
1.82568e-08
-2.58466e-07
1.69125e-08
-2.63808e-07
1.55069e-08
-2.68646e-07
1.40451e-08
-2.72961e-07
1.25324e-08
-2.76739e-07
1.09739e-08
-2.79966e-07
9.37526e-09
-2.82629e-07
7.7417e-09
-2.84719e-07
6.07878e-09
-2.86228e-07
4.39208e-09
-2.87148e-07
2.68722e-09
-2.87477e-07
9.69918e-10
-2.87211e-07
-7.54033e-10
-2.86352e-07
-2.47878e-09
-2.84899e-07
-4.1984e-09
-2.82859e-07
-5.90689e-09
-2.80235e-07
-7.59819e-09
-2.77038e-07
-9.26617e-09
-2.73276e-07
-1.09047e-08
-2.68963e-07
-1.25075e-08
-2.64113e-07
-1.40683e-08
-2.58742e-07
-1.55809e-08
-2.5287e-07
-1.7039e-08
-2.46517e-07
-1.84363e-08
-2.39707e-07
-1.97665e-08
-2.32464e-07
-2.10235e-08
-2.24817e-07
-2.2201e-08
-2.16794e-07
-2.3293e-08
-2.08427e-07
-2.42935e-08
-1.9975e-07
-2.51967e-08
-1.90797e-07
-2.59968e-08
-1.81605e-07
-2.66885e-08
-1.72215e-07
-2.72664e-08
-1.62665e-07
-2.77255e-08
-1.52998e-07
-2.80611e-08
-1.43258e-07
-2.82687e-08
-1.3349e-07
-2.83444e-08
-1.23739e-07
-2.82846e-08
-1.14052e-07
-2.8086e-08
-1.04476e-07
-2.77462e-08
-9.50612e-08
-2.72631e-08
-8.58544e-08
-2.66354e-08
-7.69044e-08
-2.58626e-08
-6.82595e-08
-2.4945e-08
-5.9967e-08
-2.3884e-08
-5.20732e-08
-2.26822e-08
-4.46227e-08
-2.13435e-08
-3.7658e-08
-1.98736e-08
-3.12186e-08
-1.82802e-08
-2.53402e-08
-1.65736e-08
-2.00538e-08
-1.47669e-08
-1.53843e-08
-1.28773e-08
-1.13495e-08
-1.09268e-08
-7.95768e-09
-8.94372e-09
-5.20625e-09
-6.96418e-09
-3.07891e-09
-5.03465e-09
-1.543e-09
-3.21473e-09
-5.46386e-10
-1.58079e-09
-1.37957e-11
-2.30459e-10
1.57203e-10
7.13142e-10
1.01588e-10
1.09625e-09
7.14292e-10
-8.96425e-12
-6.71522e-10
-2.37928e-10
-7.40434e-10
-8.43567e-10
1.19232e-10
-1.94621e-09
1.65473e-09
-3.63715e-09
3.67619e-09
-5.98253e-09
6.03111e-09
-9.02662e-09
8.59776e-09
-1.27948e-08
1.12801e-08
-1.72963e-08
1.40029e-08
-2.2527e-08
1.67069e-08
-2.84711e-08
1.93463e-08
-3.5104e-08
2.18853e-08
-4.23933e-08
2.42965e-08
-5.03005e-08
2.6559e-08
-5.87827e-08
2.8657e-08
-6.77929e-08
3.05788e-08
-7.72818e-08
3.23162e-08
-8.71977e-08
3.38636e-08
-9.74878e-08
3.52177e-08
-1.08098e-07
3.63768e-08
-1.18975e-07
3.7341e-08
-1.30064e-07
3.81113e-08
-1.41312e-07
3.86899e-08
-1.52665e-07
3.90796e-08
-1.64071e-07
3.92842e-08
-1.75478e-07
3.93079e-08
-1.86838e-07
3.91554e-08
-1.98099e-07
3.88318e-08
-2.09217e-07
3.83426e-08
-2.20143e-07
3.76935e-08
-2.30836e-07
3.68904e-08
-2.41251e-07
3.59396e-08
-2.51348e-07
3.48474e-08
-2.61088e-07
3.36203e-08
-2.70435e-07
3.2265e-08
-2.79353e-07
3.07881e-08
-2.87809e-07
2.91966e-08
-2.95772e-07
2.74974e-08
-3.03212e-07
2.56974e-08
-3.10104e-07
2.3804e-08
-3.16421e-07
2.18242e-08
-3.22141e-07
1.97653e-08
-3.27244e-07
1.76348e-08
-3.3171e-07
1.54402e-08
-3.35524e-07
1.31889e-08
-3.38671e-07
1.08887e-08
-3.41139e-07
8.54723e-09
-3.42919e-07
6.17246e-09
-3.44004e-07
3.77229e-09
-3.44389e-07
1.35479e-09
-3.44071e-07
-1.07189e-09
-3.43051e-07
-3.49949e-09
-3.4133e-07
-5.91967e-09
-3.38912e-07
-8.32399e-09
-3.35807e-07
-1.07039e-08
-3.32022e-07
-1.30508e-08
-3.27571e-07
-1.53561e-08
-3.22467e-07
-1.76109e-08
-3.16729e-07
-1.98066e-08
-3.10375e-07
-2.19342e-08
-3.03429e-07
-2.39851e-08
-2.95915e-07
-2.59504e-08
-2.8786e-07
-2.78213e-08
-2.79295e-07
-2.95893e-08
-2.7025e-07
-3.12455e-08
-2.60761e-07
-3.27817e-08
-2.50865e-07
-3.41894e-08
-2.40601e-07
-3.54606e-08
-2.30011e-07
-3.65873e-08
-2.19137e-07
-3.7562e-08
-2.08026e-07
-3.83774e-08
-1.96725e-07
-3.90265e-08
-1.85284e-07
-3.95028e-08
-1.73752e-07
-3.98004e-08
-1.62183e-07
-3.99137e-08
-1.50629e-07
-3.9838e-08
-1.39146e-07
-3.9569e-08
-1.27789e-07
-3.91033e-08
-1.16614e-07
-3.84385e-08
-1.05676e-07
-3.7573e-08
-9.50322e-08
-3.65064e-08
-8.47376e-08
-3.52396e-08
-7.48468e-08
-3.37748e-08
-6.54127e-08
-3.21162e-08
-5.64864e-08
-3.02698e-08
-4.8116e-08
-2.8244e-08
-4.03462e-08
-2.605e-08
-3.32174e-08
-2.37024e-08
-2.67644e-08
-2.122e-08
-2.10151e-08
-1.86266e-08
-1.59894e-08
-1.59525e-08
-1.16973e-08
-1.32358e-08
-8.13716e-09
-1.05243e-08
-5.29331e-09
-7.8785e-09
-3.13392e-09
-5.37412e-09
-1.60835e-09
-3.10636e-09
-6.44318e-10
-1.19449e-09
-1.44798e-10
2.13621e-10
1.5939e-11
9.35515e-10
7.30232e-10
-1.09809e-10
-5.61713e-10
-5.97087e-10
-2.53157e-10
-1.59196e-09
1.11411e-09
-3.1981e-09
3.26087e-09
-5.4955e-09
5.97359e-09
-8.54251e-09
9.07813e-09
-1.2378e-08
1.24332e-08
-1.70233e-08
1.59254e-08
-2.24845e-08
1.94641e-08
-2.87546e-08
2.2977e-08
-3.58152e-08
2.64069e-08
-4.36383e-08
2.97084e-08
-5.21882e-08
3.28464e-08
-6.14224e-08
3.57933e-08
-7.12936e-08
3.85282e-08
-8.17501e-08
4.10353e-08
-9.27372e-08
4.33032e-08
-1.04198e-07
4.5324e-08
-1.16073e-07
4.70927e-08
-1.28302e-07
4.86066e-08
-1.40826e-07
4.98649e-08
-1.53584e-07
5.08688e-08
-1.66515e-07
5.16206e-08
-1.79559e-07
5.21238e-08
-1.92657e-07
5.23828e-08
-2.05752e-07
5.2403e-08
-2.18787e-07
5.21902e-08
-2.31706e-07
5.17511e-08
-2.44456e-07
5.10927e-08
-2.56985e-07
5.02223e-08
-2.69243e-07
4.91478e-08
-2.8118e-07
4.78773e-08
-2.92752e-07
4.64191e-08
-3.03913e-07
4.47817e-08
-3.14622e-07
4.29738e-08
-3.24838e-07
4.10045e-08
-3.34524e-07
3.88827e-08
-3.43645e-07
3.66177e-08
-3.52166e-07
3.42189e-08
-3.60058e-07
3.16956e-08
-3.67291e-07
2.90575e-08
-3.7384e-07
2.63143e-08
-3.79681e-07
2.34759e-08
-3.84793e-07
2.05521e-08
-3.89157e-07
1.75532e-08
-3.92758e-07
1.44892e-08
-3.95581e-07
1.13706e-08
-3.97617e-07
8.2078e-09
-3.98856e-07
5.01138e-09
-3.99293e-07
1.7921e-09
-3.98926e-07
-1.43919e-09
-3.97754e-07
-4.67148e-09
-3.9578e-07
-7.89366e-09
-3.93009e-07
-1.10945e-08
-3.89451e-07
-1.42626e-08
-3.85115e-07
-1.73867e-08
-3.80016e-07
-2.04551e-08
-3.74171e-07
-2.34562e-08
-3.67599e-07
-2.63784e-08
-3.60323e-07
-2.92101e-08
-3.52369e-07
-3.19395e-08
-3.43764e-07
-3.45551e-08
-3.3454e-07
-3.70452e-08
-3.24731e-07
-3.93983e-08
-3.14373e-07
-4.16032e-08
-3.03506e-07
-4.36485e-08
-2.92172e-07
-4.55234e-08
-2.80416e-07
-4.72172e-08
-2.68284e-07
-4.87194e-08
-2.55826e-07
-5.00202e-08
-2.43093e-07
-5.11099e-08
-2.3014e-07
-5.19796e-08
-2.17022e-07
-5.26208e-08
-2.03797e-07
-5.30258e-08
-1.90523e-07
-5.31874e-08
-1.77261e-07
-5.30995e-08
-1.64073e-07
-5.27569e-08
-1.51021e-07
-5.21552e-08
-1.38168e-07
-5.12917e-08
-1.25577e-07
-5.01644e-08
-1.1331e-07
-4.87734e-08
-1.01429e-07
-4.71201e-08
-8.99961e-08
-4.52082e-08
-7.9069e-08
-4.30434e-08
-6.87047e-08
-4.06342e-08
-5.89565e-08
-3.79922e-08
-4.9874e-08
-3.51325e-08
-4.15016e-08
-3.20748e-08
-3.38777e-08
-2.88438e-08
-2.70337e-08
-2.54707e-08
-2.0992e-08
-2.19942e-08
-1.57651e-08
-1.84626e-08
-1.13537e-08
-1.49358e-08
-7.74465e-09
-1.14876e-08
-4.90941e-09
-8.20936e-09
-2.8019e-09
-5.21387e-09
-1.35653e-09
-2.63986e-09
-4.86133e-10
-6.56772e-10
-7.9869e-11
5.2925e-10
6.50363e-10
-2.14808e-10
-3.46905e-10
-9.75945e-10
5.0798e-10
-2.38523e-09
2.5234e-09
-4.52656e-09
5.4022e-09
-7.46555e-09
8.91257e-09
-1.125e-08
1.28626e-08
-1.59108e-08
1.7094e-08
-2.14632e-08
2.14779e-08
-2.79087e-08
2.59096e-08
-3.5236e-08
3.03043e-08
-4.34229e-08
3.45937e-08
-5.24378e-08
3.87233e-08
-6.22412e-08
4.26498e-08
-7.27868e-08
4.63389e-08
-8.40229e-08
4.97643e-08
-9.58934e-08
5.29058e-08
-1.08339e-07
5.57485e-08
-1.21296e-07
5.82819e-08
-1.34703e-07
6.04989e-08
-1.48492e-07
6.23957e-08
-1.62598e-07
6.39708e-08
-1.76954e-07
6.5225e-08
-1.91494e-07
6.61607e-08
-2.06152e-07
6.6782e-08
-2.20864e-07
6.70941e-08
-2.35564e-07
6.71035e-08
-2.50191e-07
6.68172e-08
-2.64683e-07
6.62435e-08
-2.78982e-07
6.5391e-08
-2.93028e-07
6.42689e-08
-3.06768e-07
6.2887e-08
-3.20146e-07
6.12554e-08
-3.33111e-07
5.93846e-08
-3.45615e-07
5.72854e-08
-3.5761e-07
5.4969e-08
-3.69052e-07
5.24465e-08
-3.79899e-07
4.97295e-08
-3.90111e-07
4.68298e-08
-3.99651e-07
4.37593e-08
-4.08486e-07
4.05299e-08
-4.16582e-07
3.71541e-08
-4.23912e-07
3.36441e-08
-4.30449e-07
3.00126e-08
-4.36169e-07
2.62723e-08
-4.41052e-07
2.24361e-08
-4.4508e-07
1.8517e-08
-4.48237e-07
1.45282e-08
-4.50513e-07
1.04833e-08
-4.51897e-07
6.39557e-09
-4.52384e-07
2.27892e-09
-4.5197e-07
-1.85282e-09
-4.50656e-07
-5.9856e-09
-4.48445e-07
-1.01052e-08
-4.45342e-07
-1.41973e-08
-4.41357e-07
-1.82474e-08
-4.36503e-07
-2.2241e-08
-4.30794e-07
-2.61633e-08
-4.24251e-07
-2.99995e-08
-4.16895e-07
-3.37348e-08
-4.0875e-07
-3.73544e-08
-3.99846e-07
-4.08434e-08
-3.90215e-07
-4.4187e-08
-3.79889e-07
-4.73705e-08
-3.68908e-07
-5.03794e-08
-3.57312e-07
-5.31991e-08
-3.45145e-07
-5.58156e-08
-3.32454e-07
-5.82149e-08
-3.19287e-07
-6.03836e-08
-3.05698e-07
-6.23086e-08
-2.91741e-07
-6.39773e-08
-2.77473e-07
-6.53777e-08
-2.62954e-07
-6.64985e-08
-2.48246e-07
-6.73292e-08
-2.33412e-07
-6.786e-08
-2.18517e-07
-6.80823e-08
-2.03628e-07
-6.79884e-08
-1.88813e-07
-6.7572e-08
-1.7414e-07
-6.68279e-08
-1.59679e-07
-6.57528e-08
-1.45499e-07
-6.43449e-08
-1.31667e-07
-6.26045e-08
-1.18254e-07
-6.0534e-08
-1.05323e-07
-5.81383e-08
-9.29414e-08
-5.54254e-08
-8.11693e-08
-5.24063e-08
-7.00653e-08
-4.90962e-08
-5.96832e-08
-4.55146e-08
-5.00717e-08
-4.16863e-08
-4.1273e-08
-3.76425e-08
-3.33219e-08
-3.34218e-08
-2.62442e-08
-2.90719e-08
-2.00559e-08
-2.4651e-08
-1.4761e-08
-2.02306e-08
-1.0351e-08
-1.58976e-08
-6.80242e-09
-1.17579e-08
-4.07629e-09
-7.93999e-09
-2.11645e-09
-4.5997e-09
-8.48718e-10
-1.92451e-09
-1.80334e-10
-1.39134e-10
4.70029e-10
-3.20734e-10
-2.61701e-11
-1.36284e-09
1.55009e-09
-3.20022e-09
4.36077e-09
-5.89564e-09
8.09762e-09
-9.4985e-09
1.25154e-08
-1.40441e-08
1.74081e-08
-1.95535e-08
2.26034e-08
-2.60343e-08
2.79588e-08
-3.34817e-08
3.3357e-08
-4.1879e-08
3.87016e-08
-5.11994e-08
4.39141e-08
-6.1407e-08
4.8931e-08
-7.24581e-08
5.37009e-08
-8.43024e-08
5.81831e-08
-9.68838e-08
6.23457e-08
-1.10142e-07
6.61638e-08
-1.24012e-07
6.9619e-08
-1.38428e-07
7.26979e-08
-1.53321e-07
7.53913e-08
-1.68619e-07
7.7694e-08
-1.84252e-07
7.96036e-08
-2.00147e-07
8.11205e-08
-2.16234e-07
8.22472e-08
-2.3244e-07
8.29882e-08
-2.48695e-07
8.33495e-08
-2.64931e-07
8.33387e-08
-2.81077e-07
8.29642e-08
-2.9707e-07
8.22358e-08
-3.12843e-07
8.11638e-08
-3.28333e-07
7.97595e-08
-3.43481e-07
7.80346e-08
-3.58227e-07
7.60015e-08
-3.72515e-07
7.36731e-08
-3.86292e-07
7.10626e-08
-3.99507e-07
6.81835e-08
-4.1211e-07
6.50498e-08
-4.24056e-07
6.16756e-08
-4.35302e-07
5.80754e-08
-4.45807e-07
5.4264e-08
-4.55533e-07
5.02562e-08
-4.64446e-07
4.60672e-08
-4.72514e-07
4.17124e-08
-4.79709e-07
3.72072e-08
-4.86004e-07
3.25675e-08
-4.91377e-07
2.78093e-08
-4.95809e-07
2.29487e-08
-4.99283e-07
1.80021e-08
-5.01786e-07
1.29861e-08
-5.03308e-07
7.91743e-09
-5.03842e-07
2.81319e-09
-5.03385e-07
-2.30947e-09
-5.01938e-07
-7.43315e-09
-4.99503e-07
-1.25403e-08
-4.96087e-07
-1.76131e-08
-4.91701e-07
-2.26337e-08
-4.86357e-07
-2.75841e-08
-4.80075e-07
-3.24461e-08
-4.72873e-07
-3.72014e-08
-4.64776e-07
-4.18317e-08
-4.55812e-07
-4.63187e-08
-4.46011e-07
-5.06441e-08
-4.35408e-07
-5.47897e-08
-4.24042e-07
-5.87372e-08
-4.11952e-07
-6.24689e-08
-3.99184e-07
-6.59669e-08
-3.85786e-07
-6.92139e-08
-3.71808e-07
-7.21928e-08
-3.57305e-07
-7.48871e-08
-3.42332e-07
-7.72808e-08
-3.26951e-07
-7.93584e-08
-3.11223e-07
-8.11055e-08
-2.95214e-07
-8.25081e-08
-2.7899e-07
-8.35535e-08
-2.6262e-07
-8.423e-08
-2.46175e-07
-8.45271e-08
-2.29728e-07
-8.44357e-08
-2.13351e-07
-8.39481e-08
-1.97121e-07
-8.30587e-08
-1.8111e-07
-8.17634e-08
-1.65394e-07
-8.00606e-08
-1.50048e-07
-7.79509e-08
-1.35144e-07
-7.54379e-08
-1.20754e-07
-7.2528e-08
-1.06948e-07
-6.92313e-08
-9.37928e-08
-6.5562e-08
-8.13501e-08
-6.15388e-08
-6.96788e-08
-5.71859e-08
-5.88316e-08
-5.25335e-08
-4.88547e-08
-4.76193e-08
-3.97869e-08
-4.24896e-08
-3.16582e-08
-3.72006e-08
-2.44886e-08
-3.18206e-08
-1.82872e-08
-2.6432e-08
-1.3051e-08
-2.11338e-08
-8.76378e-09
-1.60452e-08
-5.39523e-09
-1.13085e-08
-2.90063e-09
-7.0943e-09
-1.22066e-09
-3.60448e-09
-2.82128e-10
-1.07766e-09
1.879e-10
-4.25694e-10
3.99525e-10
-1.75031e-09
2.87471e-09
-4.02131e-09
6.63177e-09
-7.28022e-09
1.13565e-08
-1.15593e-08
1.67946e-08
-1.68802e-08
2.27289e-08
-2.32527e-08
2.8976e-08
-3.06756e-08
3.53817e-08
-3.91364e-08
4.18177e-08
-4.86121e-08
4.81773e-08
-5.90705e-08
5.43725e-08
-7.04706e-08
6.03311e-08
-8.27641e-08
6.59944e-08
-9.58962e-08
7.13152e-08
-1.09807e-07
7.6256e-08
-1.2443e-07
8.07875e-08
-1.39699e-07
8.48874e-08
-1.5554e-07
8.85394e-08
-1.71881e-07
9.17324e-08
-1.88646e-07
9.44592e-08
-2.0576e-07
9.67168e-08
-2.23144e-07
9.85049e-08
-2.40723e-07
9.98262e-08
-2.58421e-07
1.00686e-07
-2.76161e-07
1.0109e-07
-2.9387e-07
1.01047e-07
-3.11474e-07
1.00569e-07
-3.28902e-07
9.96642e-08
-3.46086e-07
9.83469e-08
-3.62956e-07
9.66297e-08
-3.79448e-07
9.45266e-08
-3.95499e-07
9.20524e-08
-4.11048e-07
8.92224e-08
-4.26038e-07
8.60523e-08
-4.40413e-07
8.25585e-08
-4.5412e-07
7.87576e-08
-4.67112e-07
7.46668e-08
-4.79339e-07
7.03033e-08
-4.9076e-07
6.56849e-08
-5.01334e-07
6.08296e-08
-5.11022e-07
5.57557e-08
-5.19792e-07
5.04817e-08
-5.27611e-07
4.50264e-08
-5.34452e-07
3.94088e-08
-5.40291e-07
3.36482e-08
-5.45106e-07
2.77642e-08
-5.48881e-07
2.17766e-08
-5.516e-07
1.57054e-08
-5.53254e-07
9.57088e-09
-5.53834e-07
3.39364e-09
-5.53338e-07
-2.80557e-09
-5.51765e-07
-9.00577e-09
-5.4912e-07
-1.51857e-08
-5.45409e-07
-2.1324e-08
-5.40644e-07
-2.7399e-08
-5.34839e-07
-3.3389e-08
-5.28013e-07
-3.9272e-08
-5.20188e-07
-4.50262e-08
-5.1139e-07
-5.06293e-08
-5.0165e-07
-5.60595e-08
-4.90999e-07
-6.12945e-08
-4.79476e-07
-6.63126e-08
-4.67122e-07
-7.10918e-08
-4.5398e-07
-7.56107e-08
-4.40099e-07
-7.98479e-08
-4.2553e-07
-8.37827e-08
-4.10328e-07
-8.73946e-08
-3.94551e-07
-9.06639e-08
-3.78261e-07
-9.35712e-08
-3.61521e-07
-9.60984e-08
-3.44399e-07
-9.82279e-08
-3.26963e-07
-9.99435e-08
-3.09287e-07
-1.0123e-07
-2.91444e-07
-1.02073e-07
-2.7351e-07
-1.02461e-07
-2.55563e-07
-1.02383e-07
-2.37682e-07
-1.01829e-07
-2.19946e-07
-1.00795e-07
-2.02435e-07
-9.92744e-08
-1.85229e-07
-9.72664e-08
-1.68408e-07
-9.47721e-08
-1.52049e-07
-9.17962e-08
-1.36231e-07
-8.83467e-08
-1.21026e-07
-8.44362e-08
-1.06506e-07
-8.00819e-08
-9.27383e-08
-7.53063e-08
-7.97859e-08
-7.01383e-08
-6.77057e-08
-6.46137e-08
-5.65483e-08
-5.87767e-08
-4.6357e-08
-5.26809e-08
-3.71664e-08
-4.63912e-08
-2.90019e-08
-3.99851e-08
-2.18784e-08
-3.35554e-08
-1.57998e-08
-2.72124e-08
-1.07581e-08
-2.10869e-08
-6.73322e-09
-1.53334e-08
-3.69312e-09
-1.01344e-08
-1.59427e-09
-5.70333e-09
-3.8327e-10
-2.28867e-09
-1.9537e-10
-5.28613e-10
9.28138e-10
-2.13369e-09
4.47979e-09
-4.83825e-09
9.33633e-09
-8.66316e-09
1.51814e-08
-1.36234e-08
2.17548e-08
-1.97262e-08
2.88317e-08
-2.69694e-08
3.62192e-08
-3.53418e-08
4.37541e-08
-4.48223e-08
5.12982e-08
-5.53809e-08
5.87359e-08
-6.6979e-08
6.59706e-08
-7.95701e-08
7.29222e-08
-9.31007e-08
7.9525e-08
-1.07511e-07
8.57257e-08
-1.22736e-07
9.14814e-08
-1.38707e-07
9.67584e-08
-1.55351e-07
1.01531e-07
-1.7259e-07
1.05779e-07
-1.90349e-07
1.0949e-07
-2.08545e-07
1.12656e-07
-2.27099e-07
1.15271e-07
-2.4593e-07
1.17336e-07
-2.64956e-07
1.18852e-07
-2.84096e-07
1.19826e-07
-3.03271e-07
1.20264e-07
-3.22401e-07
1.20177e-07
-3.41409e-07
1.19576e-07
-3.60218e-07
1.18474e-07
-3.78756e-07
1.16885e-07
-3.9695e-07
1.14824e-07
-4.14731e-07
1.12307e-07
-4.32031e-07
1.09353e-07
-4.48787e-07
1.05978e-07
-4.64936e-07
1.02201e-07
-4.8042e-07
9.80424e-08
-4.95182e-07
9.35204e-08
-5.09171e-07
8.86555e-08
-5.22336e-07
8.34683e-08
-5.34631e-07
7.79797e-08
-5.46012e-07
7.22109e-08
-5.5644e-07
6.61835e-08
-5.65878e-07
5.99194e-08
-5.74292e-07
5.3441e-08
-5.81654e-07
4.67707e-08
-5.87937e-07
3.99313e-08
-5.93119e-07
3.29461e-08
-5.97181e-07
2.58385e-08
-6.00108e-07
1.86321e-08
-6.01888e-07
1.13511e-08
-6.02514e-07
4.01975e-09
-6.01982e-07
-3.33737e-09
-6.00293e-07
-1.06954e-08
-5.97449e-07
-1.80292e-08
-5.9346e-07
-2.53135e-08
-5.88336e-07
-3.25227e-08
-5.82094e-07
-3.96311e-08
-5.74753e-07
-4.66128e-08
-5.66337e-07
-5.34419e-08
-5.56875e-07
-6.00922e-08
-5.46396e-07
-6.65378e-08
-5.34938e-07
-7.27526e-08
-5.2254e-07
-7.87108e-08
-5.09245e-07
-8.43867e-08
-4.95101e-07
-8.97549e-08
-4.80158e-07
-9.47904e-08
-4.64472e-07
-9.94687e-08
-4.48101e-07
-1.03766e-07
-4.31107e-07
-1.07658e-07
-4.13555e-07
-1.11124e-07
-3.95513e-07
-1.14141e-07
-3.77052e-07
-1.16689e-07
-3.58247e-07
-1.18749e-07
-3.39173e-07
-1.20303e-07
-3.19911e-07
-1.21335e-07
-3.0054e-07
-1.21832e-07
-2.81143e-07
-1.2178e-07
-2.61804e-07
-1.21169e-07
-2.42606e-07
-1.19992e-07
-2.23636e-07
-1.18245e-07
-2.04977e-07
-1.15925e-07
-1.86714e-07
-1.13035e-07
-1.6893e-07
-1.0958e-07
-1.51707e-07
-1.0557e-07
-1.35123e-07
-1.0102e-07
-1.19255e-07
-9.59504e-08
-1.04174e-07
-9.03876e-08
-8.99467e-08
-8.43651e-08
-7.6636e-08
-7.79243e-08
-6.4297e-08
-7.11157e-08
-5.29778e-08
-6.40001e-08
-4.27186e-08
-5.66505e-08
-3.35505e-08
-4.91532e-08
-2.54954e-08
-4.16106e-08
-1.85649e-08
-3.41429e-08
-1.27604e-08
-2.68914e-08
-8.07279e-09
-2.0021e-08
-4.4834e-09
-1.37238e-08
-1.96471e-09
-8.22201e-09
-4.82613e-10
-3.77076e-09
-6.77983e-10
-6.28909e-10
1.55705e-09
-2.51018e-09
6.36106e-09
-5.6445e-09
1.24706e-08
-1.00331e-08
1.957e-08
-1.5674e-08
2.73957e-08
-2.25596e-08
3.57173e-08
-3.06756e-08
4.43352e-08
-3.99998e-08
5.30783e-08
-5.05022e-08
6.18007e-08
-6.21448e-08
7.03785e-08
-7.4882e-08
7.87078e-08
-8.86611e-08
8.67013e-08
-1.03423e-07
9.4287e-08
-1.19103e-07
1.01406e-07
-1.35631e-07
1.0801e-07
-1.52934e-07
1.14061e-07
-1.70933e-07
1.1953e-07
-1.89548e-07
1.24394e-07
-2.08696e-07
1.28639e-07
-2.28294e-07
1.32254e-07
-2.48256e-07
1.35233e-07
-2.68497e-07
1.37577e-07
-2.88931e-07
1.39286e-07
-3.09473e-07
1.40368e-07
-3.30039e-07
1.4083e-07
-3.50545e-07
1.40683e-07
-3.7091e-07
1.39941e-07
-3.91053e-07
1.38617e-07
-4.10898e-07
1.36729e-07
-4.30367e-07
1.34293e-07
-4.49388e-07
1.31328e-07
-4.6789e-07
1.27855e-07
-4.85804e-07
1.23893e-07
-5.03066e-07
1.19464e-07
-5.19614e-07
1.1459e-07
-5.35389e-07
1.09295e-07
-5.50333e-07
1.036e-07
-5.64396e-07
9.75311e-08
-5.77528e-07
9.11113e-08
-5.89683e-07
8.43655e-08
-6.00818e-07
7.7319e-08
-6.10896e-07
6.99971e-08
-6.19881e-07
6.24258e-08
-6.27741e-07
5.46313e-08
-6.3445e-07
4.66403e-08
-6.39984e-07
3.84796e-08
-6.44322e-07
3.01766e-08
-6.47449e-07
2.17589e-08
-6.49352e-07
1.32545e-08
-6.50024e-07
4.69172e-09
-6.4946e-07
-3.90083e-09
-6.47662e-07
-1.24942e-08
-6.44632e-07
-2.10592e-08
-6.40379e-07
-2.95664e-08
-6.34915e-07
-3.7986e-08
-6.28258e-07
-4.62881e-08
-6.20429e-07
-5.44427e-08
-6.11451e-07
-6.24195e-08
-6.01355e-07
-7.01882e-08
-5.90174e-07
-7.77188e-08
-5.77946e-07