/*--------------------------------*- C++ -*----------------------------------*\
| =========                 |                                                 |
| \\      /  F ield         | OpenFOAM: The Open Source CFD Toolbox           |
|  \\    /   O peration     | Version:  v1912                                 |
|   \\  /    A nd           | Website:  www.openfoam.com                      |
|    \\/     M anipulation  |                                                 |
\*---------------------------------------------------------------------------*/
FoamFile
{
    version     2.0;
    format      ascii;
    class       volVectorField;
    location    "1.28";
    object      grad(T);
}
// * * * * * * * * * * * * * * * * * * * * * * * * * * * * * * * * * * * * * //

dimensions      [0 -1 0 1 0 0 0];


internalField   nonuniform List<vector> 
1900
(
(-5.83014e-07 6.43138e-10 0)
(8.73581e-05 -5.39328e-10 0)
(0.00221495 -2.1032e-07 0)
(0.0153131 -1.04646e-05 0)
(0.0417837 -8.25859e-05 0)
(0.0579295 -0.000211321 0)
(0.0492911 -0.000221411 0)
(0.0258891 -0.00110183 0)
(0.0135864 -0.00164198 0)
(-0.00379292 -0.00425478 0)
(-5.8291e-07 9.65356e-10 0)
(8.71471e-05 -9.35259e-10 0)
(0.00220449 -3.21759e-07 0)
(0.0152307 -1.63942e-05 0)
(0.0415829 -0.00012773 0)
(0.0577907 -0.000319337 0)
(0.0484006 -0.000346239 0)
(0.0244686 -0.00165957 0)
(0.0104334 -0.00115568 0)
(0.00551917 -0.0057397 0)
(-5.82984e-07 1.99493e-13 0)
(8.70354e-05 -3.75134e-13 0)
(0.00219856 -6.72205e-13 0)
(0.0151857 -4.57533e-13 0)
(0.0414808 1.11673e-12 0)
(0.057711 1.36609e-12 0)
(0.0479509 1.34441e-13 0)
(0.0250797 -2.92735e-13 0)
(0.00950623 -3.1225e-13 0)
(0.00356945 -1.75641e-13 0)
(-5.82911e-07 -9.65213e-10 0)
(8.71471e-05 9.34467e-10 0)
(0.00220449 3.21758e-07 0)
(0.0152307 1.63942e-05 0)
(0.0415829 0.00012773 0)
(0.0577907 0.000319337 0)
(0.0484006 0.000346239 0)
(0.0244686 0.00165957 0)
(0.0104334 0.00115568 0)
(0.00551917 0.0057397 0)
(-5.83015e-07 -6.43196e-10 0)
(8.73581e-05 5.38911e-10 0)
(0.00221495 2.1032e-07 0)
(0.0153131 1.04646e-05 0)
(0.0417837 8.25859e-05 0)
(0.0579295 0.000211321 0)
(0.0492911 0.000221411 0)
(0.0258891 0.00110183 0)
(0.0135864 0.00164198 0)
(-0.00379292 0.00425478 0)
(-0.00746066 0.00563199 1.00077e-15)
(0.00738522 0.00401847 -1.21348e-15)
(0.00199088 0.00186718 -1.53701e-15)
(-0.118662 0.017932 0)
(-0.0348161 0.185915 -6.48839e-15)
(0.00199683 0.00403645 1.00179e-15)
(0.00101216 0.000877895 1.21348e-15)
(0.00948346 -0.00340437 1.53701e-15)
(-0.0390329 0.00294509 0)
(-0.0123857 0.155569 0)
(0.00304175 2.16055e-14 0)
(0.000196351 3.80422e-14 0)
(0.00430703 2.04794e-13 0)
(-0.0390627 2.5873e-13 0)
(0.0700806 3.03318e-13 0)
(0.00199683 -0.00403645 1.00179e-15)
(0.00101216 -0.000877895 1.21348e-15)
(0.00948346 0.00340437 1.53701e-15)
(-0.0390329 -0.00294509 0)
(-0.0123857 -0.155569 0)
(-0.00746066 -0.00563199 -3.00435e-15)
(0.00738522 -0.00401847 -1.21348e-15)
(0.00199088 -0.00186718 -1.53701e-15)
(-0.118662 -0.017932 -4.19212e-15)
(-0.0348161 -0.185915 6.48839e-15)
(0.196382 -0.0798456 2.85628e-15)
(-0.018478 -0.0182643 -2.40762e-15)
(-0.0332443 -0.0119876 0)
(-0.097436 0.0636366 1.83374e-15)
(-0.515809 0.108512 -8.10457e-16)
(0.129108 -0.0825283 -1.42694e-15)
(-0.00362263 -0.0184934 1.20354e-15)
(-0.00294488 -0.0211454 0)
(-0.0478413 0.0648471 -1.14777e-15)
(-0.169438 0.118834 2.04326e-16)
(0.144344 4.6544e-13 0)
(-0.00498964 1.807e-13 0)
(-0.00153787 1.0842e-13 0)
(-0.0446308 1.77157e-13 4.5989e-16)
(-0.181355 8.24247e-14 -4.08652e-16)
(0.129108 0.0825283 -1.42694e-15)
(-0.00362263 0.0184934 1.20354e-15)
(-0.00294488 0.0211454 0)
(-0.0478413 -0.0648471 -1.14777e-15)
(-0.169438 -0.118834 2.04326e-16)
(0.196382 0.0798456 1.42694e-15)
(-0.018478 0.0182643 5.50062e-19)
(-0.0332443 0.0119876 0)
(-0.097436 -0.0636366 1.91653e-18)
(-0.515809 -0.108512 8.10457e-16)
(-0.748697 2.0618 0)
(-0.164936 0.942308 0)
(0.154758 0.305283 0)
(0.0244422 0.0602174 0)
(0.0523607 -0.00140376 0)
(0.106693 0.0102685 0)
(0.135491 0.00196993 0)
(0.151706 0.0021814 0)
(0.149416 0.00167504 0)
(0.128044 0.00131277 0)
(0.0859501 0.000823438 0)
(0.0380131 0.000291401 0)
(0.00881493 3.81313e-05 0)
(0.000768464 1.16824e-06 0)
(1.66328e-05 5.59468e-09 0)
(5.99936e-08 2.9372e-12 0)
(2.57419e-11 0 0)
(1.97128e-15 0 0)
(9.85638e-16 -1.18277e-14 0)
(-2.95692e-15 7.88511e-15 0)
(0 -3.94255e-15 0)
(0 3.94255e-15 0)
(1.97128e-15 0 0)
(-3.44599e-11 -1.18277e-14 0)
(-7.67428e-08 -9.06787e-14 0)
(-2.03819e-05 -1.5376e-13 0)
(-0.000906483 -2.40496e-13 0)
(-0.0100861 -6.22923e-13 0)
(-0.0425838 5.48015e-13 0)
(-0.0951349 1.97128e-13 0)
(-0.141745 1.26162e-13 0)
(-0.168761 -7.49085e-14 0)
(-0.180806 -3.94255e-14 0)
(-0.181946 -8.27936e-14 0)
(-0.168438 -7.88511e-15 0)
(-0.142328 -1.37989e-13 0)
(-0.167404 5.91383e-14 0)
(-0.480527 1.89243e-13 0)
(-0.550441 3.13433e-13 0)
(-0.17352 2.97663e-13 0)
(-0.558465 0.977032 0)
(-0.397118 0.961407 0)
(-0.00120568 0.26061 0)
(-0.0325088 0.034961 0)
(0.0455003 -0.004845 0)
(0.107462 0.00576409 0)
(0.134372 -0.00024012 0)
(0.151965 0.00074438 0)
(0.149374 0.000726743 0)
(0.127954 0.000589662 0)
(0.0858489 0.000355952 0)
(0.0379428 0.000126424 0)
(0.00878924 1.71428e-05 0)
(0.00076497 5.45967e-07 0)
(1.65216e-05 2.69504e-09 0)
(5.94474e-08 1.44297e-12 0)
(2.54669e-11 0 0)
(0 0 0)
(1.97128e-15 -3.94255e-15 0)
(0 -7.88511e-15 0)
(0 0 0)
(0 0 0)
(-1.97128e-15 0 0)
(-3.44697e-11 -3.94255e-15 0)
(-7.67428e-08 8.67362e-14 0)
(-2.03819e-05 -3.94255e-14 0)
(-0.000906483 -3.5483e-13 0)
(-0.0100861 -7.13602e-13 0)
(-0.0425838 9.65926e-13 0)
(-0.0951349 3.03577e-13 0)
(-0.141745 2.05013e-13 0)
(-0.168761 3.94255e-15 0)
(-0.180806 -9.46213e-14 0)
(-0.181946 -1.81357e-13 0)
(-0.168438 -8.27936e-14 0)
(-0.142328 -2.91749e-13 0)
(-0.167404 1.97128e-14 0)
(-0.480527 1.10391e-13 0)
(-0.550441 1.45874e-13 0)
(-0.17352 5.12532e-14 0)
(-0.447245 5.32245e-13 0)
(-0.37335 6.34751e-13 0)
(-0.114753 1.49817e-13 0)
(-0.0527811 -3.50887e-13 0)
(0.0438671 -1.97128e-14 0)
(0.108033 1.02506e-13 0)
(0.134031 -3.94255e-15 0)
(0.151988 -6.70234e-14 0)
(0.149371 2.87806e-13 0)
(0.127936 3.74543e-13 0)
(0.0858153 -5.51957e-14 0)
(0.0379146 -2.75979e-14 0)
(0.00877831 -1.10391e-13 0)
(0.000763478 2.56266e-13 0)
(1.64739e-05 -1.97128e-13 0)
(5.92096e-08 7.0966e-14 0)
(2.5321e-11 0 0)
(0 0 0)
(0 0 0)
(0 -3.94255e-15 0)
(0 0 0)
(0 -3.94255e-15 0)
(0 -3.94255e-15 0)
(-3.44343e-11 0 0)
(-7.67428e-08 1.45874e-13 0)
(-2.03819e-05 1.30104e-13 0)
(-0.000906483 1.57702e-14 0)
(-0.0100861 -2.52323e-13 0)
(-0.0425838 8.98902e-13 0)
(-0.0951349 2.75979e-14 0)
(-0.141745 -2.36553e-14 0)
(-0.168761 -4.33681e-14 0)
(-0.180806 3.94255e-15 0)
(-0.181946 -3.66657e-13 0)
(-0.168438 -4.45509e-13 0)
(-0.142328 -2.56266e-13 0)
(-0.167404 9.85638e-14 0)
(-0.480527 9.06787e-14 0)
(-0.550441 -6.89947e-14 0)
(-0.17352 -3.21318e-13 0)
(-0.558465 -0.977032 0)
(-0.397118 -0.961407 0)
(-0.00120568 -0.26061 0)
(-0.0325088 -0.034961 0)
(0.0455003 0.004845 0)
(0.107462 -0.00576409 0)
(0.134372 0.00024012 0)
(0.151965 -0.00074438 0)
(0.149374 -0.000726743 0)
(0.127954 -0.000589662 0)
(0.0858489 -0.000355952 0)
(0.0379428 -0.000126424 0)
(0.00878924 -1.71428e-05 0)
(0.00076497 -5.45967e-07 0)
(1.65216e-05 -2.69499e-09 0)
(5.94475e-08 -1.47846e-12 0)
(2.54462e-11 0 0)
(0 0 0)
(0 0 0)
(0 0 0)
(0 0 0)
(-1.97128e-15 0 0)
(0 -3.94255e-15 0)
(-3.44244e-11 0 0)
(-7.67428e-08 5.12532e-14 0)
(-2.03819e-05 1.61645e-13 0)
(-0.000906483 3.66657e-13 0)
(-0.0100861 -1.81357e-13 0)
(-0.0425838 4.69164e-13 0)
(-0.0951349 -1.77415e-13 0)
(-0.141745 -1.34047e-13 0)
(-0.168761 -1.02506e-13 0)
(-0.180806 1.18277e-14 0)
(-0.181946 -6.30809e-13 0)
(-0.168438 -7.2543e-13 0)
(-0.142328 1.18277e-14 0)
(-0.167404 1.22219e-13 0)
(-0.480527 4.73106e-14 0)
(-0.550441 -1.36018e-13 0)
(-0.17352 -2.74007e-13 0)
(-0.748697 -2.0618 0)
(-0.164936 -0.942308 0)
(0.154758 -0.305283 0)
(0.0244422 -0.0602174 0)
(0.0523607 0.00140376 0)
(0.106693 -0.0102685 0)
(0.135491 -0.00196993 0)
(0.151706 -0.0021814 0)
(0.149416 -0.00167504 0)
(0.128044 -0.00131277 0)
(0.0859501 -0.000823438 0)
(0.0380131 -0.000291401 0)
(0.00881493 -3.81313e-05 0)
(0.000768464 -1.16824e-06 0)
(1.66328e-05 -5.59439e-09 0)
(5.99936e-08 -3.02e-12 0)
(2.57508e-11 0 0)
(0 0 0)
(0 0 0)
(1.97128e-15 3.94255e-15 0)
(-1.97128e-15 0 0)
(0 0 0)
(0 7.88511e-15 0)
(-3.44195e-11 0 0)
(-7.67428e-08 3.15404e-14 0)
(-2.03819e-05 6.70234e-14 0)
(-0.000906483 3.31174e-13 0)
(-0.0100861 -3.50887e-13 0)
(-0.0425838 1.37989e-13 0)
(-0.0951349 -2.36553e-14 0)
(-0.141745 -3.94255e-15 0)
(-0.168761 1.18277e-14 0)
(-0.180806 -8.67362e-14 0)
(-0.181946 -3.58772e-13 0)
(-0.168438 -3.43002e-13 0)
(-0.142328 1.18277e-13 0)
(-0.167404 3.5483e-14 0)
(-0.480527 -5.12532e-14 0)
(-0.550441 -1.75444e-13 0)
(-0.17352 -1.45874e-13 0)
(0.132437 -1.41131 0)
(0.436235 -0.512341 0)
(0.371773 -0.171839 0)
(0.0940177 -0.0662454 0)
(0.0688996 -0.0167144 0)
(0.106235 -0.0154948 0)
(0.138151 -0.00741742 0)
(0.152449 -0.0047138 0)
(0.149871 -0.00322887 0)
(0.128385 -0.00235146 0)
(0.0863725 -0.00139649 0)
(0.0383542 -0.000469802 0)
(0.00894159 -5.88283e-05 0)
(0.000784844 -1.74649e-06 0)
(1.71259e-05 -8.20374e-09 0)
(6.23252e-08 -4.38114e-12 0)
(2.69891e-11 0 0)
(0 0 0)
(0 0 0)
(0 -1.1902e-15 0)
(0 0 0)
(0 0 0)
(0 0 0)
(-3.44148e-11 0 0)
(-7.67428e-08 5.95102e-15 0)
(-2.03819e-05 4.76082e-15 0)
(-0.000906483 7.02221e-14 0)
(-0.0100861 -7.97437e-14 0)
(-0.0425838 -3.21355e-14 0)
(-0.0951349 1.32113e-13 0)
(-0.141745 2.10666e-13 0)
(-0.168761 9.99772e-14 0)
(-0.180806 -1.78531e-13 0)
(-0.181946 -1.10689e-13 0)
(-0.168438 3.68963e-14 0)
(-0.142328 1.10689e-13 0)
(-0.167404 1.30923e-14 0)
(-0.480527 -4.76082e-14 0)
(-0.550441 -5.41543e-14 0)
(-0.17352 -1.1426e-13 0)
(0.331198 -0.335695 0)
(0.707092 -0.174663 0)
(0.468262 -0.0880682 0)
(0.136617 -0.0569104 0)
(0.0923973 -0.0336567 0)
(0.115898 -0.0209618 0)
(0.144454 -0.0123652 0)
(0.155344 -0.00775041 0)
(0.151449 -0.00527088 0)
(0.129626 -0.00349306 0)
(0.0875368 -0.00183981 0)
(0.0391193 -0.00056715 0)
(0.00919805 -6.75156e-05 0)
(0.000816362 -1.95305e-06 0)
(1.80513e-05 -9.06843e-09 0)
(6.66488e-08 -4.81795e-12 0)
(2.93088e-11 0 0)
(0 0 0)
(0 0 0)
(0 0 0)
(0 0 0)
(0 0 0)
(0 0 0)
(-3.4416e-11 0 0)
(-7.67428e-08 -3.57061e-15 0)
(-2.03819e-05 1.54727e-14 0)
(-0.000906483 -6.54613e-14 0)
(-0.0100861 2.46372e-13 0)
(-0.0425838 -3.05883e-13 0)
(-0.0951349 -5.47494e-14 0)
(-0.141745 1.03548e-13 0)
(-0.168761 -4.16572e-14 0)
(-0.180806 -1.21401e-13 0)
(-0.181946 -6.18906e-14 0)
(-0.168438 1.66629e-14 0)
(-0.142328 1.1902e-13 0)
(-0.167404 1.1664e-13 0)
(-0.480527 8.92654e-14 0)
(-0.550441 8.86703e-14 0)
(-0.17352 2.14237e-14 0)
(0.287613 0.0442764 0)
(0.674857 -0.0723505 0)
(0.485243 -0.0526013 0)
(0.146451 -0.042964 0)
(0.103541 -0.0370717 0)
(0.126753 -0.0239144 0)
(0.150882 -0.0155492 0)
(0.159286 -0.0100341 0)
(0.153973 -0.0067283 0)
(0.131692 -0.00415779 0)
(0.089192 -0.0020012 0)
(0.040062 -0.000569933 0)
(0.00948623 -6.4185e-05 0)
(0.000849896 -1.79151e-06 0)
(1.9008e-05 -8.1903e-09 0)
(7.10639e-08 -4.40495e-12 0)
(3.16309e-11 -8.45045e-14 0)
(0 -1.36874e-13 0)
(0 -8.21241e-14 0)
(0 -7.73633e-14 0)
(0 -9.16458e-14 0)
(0 -8.33143e-14 0)
(0 -1.36874e-13 0)
(-3.44183e-11 -8.33143e-14 0)
(-7.67428e-08 -9.64066e-14 0)
(-2.03819e-05 -2.43992e-13 0)
(-0.000906483 -6.42711e-14 0)
(-0.0100861 1.45205e-13 0)
(-0.0425838 -4.87984e-13 0)
(-0.0951349 -5.73679e-13 0)
(-0.141745 -2.13047e-13 0)
(-0.168761 -3.34448e-13 0)
(-0.180806 -6.07004e-14 0)
(-0.181946 -7.14123e-15 0)
(-0.168438 -4.99886e-14 0)
(-0.142328 1.90433e-14 0)
(-0.167404 1.09499e-13 0)
(-0.480527 1.84482e-13 0)
(-0.550441 1.31518e-13 0)
(-0.17352 1.10689e-13 0)
(0.218812 0.0555746 0)
(0.613737 -0.0509286 0)
(0.49658 -0.0412071 0)
(0.151582 -0.0390962 0)
(0.110754 -0.0356334 0)
(0.136638 -0.0248799 0)
(0.15783 -0.0166066 0)
(0.163844 -0.0108663 0)
(0.157111 -0.00702759 0)
(0.134181 -0.00404928 0)
(0.0909942 -0.00178534 0)
(0.0409858 -0.000464391 0)
(0.00974553 -4.84622e-05 0)
(0.000878205 -1.28996e-06 0)
(1.97777e-05 -6.47895e-09 0)
(7.45411e-08 -8.01883e-10 0)
(3.34221e-11 -7.98827e-10 0)
(2.38041e-15 -7.9881e-10 0)
(5.71298e-14 -7.98805e-10 0)
(-8.33143e-15 -7.98832e-10 0)
(-5.95102e-15 -7.98846e-10 0)
(-4.40376e-14 -7.9883e-10 0)
(1.1902e-15 -7.98846e-10 0)
(-3.43779e-11 -7.98835e-10 0)
(-7.67429e-08 -7.98861e-10 0)
(-2.03819e-05 -7.99055e-10 0)
(-0.000906483 -7.98367e-10 0)
(-0.0100861 -7.98507e-10 0)
(-0.0425838 -7.91354e-10 0)
(-0.0951349 -7.60098e-10 0)
(-0.141745 -6.84512e-10 0)
(-0.168761 -5.66959e-10 0)
(-0.180806 -4.26433e-10 0)
(-0.181946 -2.91411e-10 0)
(-0.168438 -1.82535e-10 0)
(-0.142328 -1.07754e-10 0)
(-0.167404 -5.85486e-11 0)
(-0.480527 -2.90386e-11 0)
(-0.550441 -4.15203e-12 0)
(-0.17352 -1.64248e-13 0)
(0.184983 0.0197817 0)
(0.581595 -0.0288158 0)
(0.496645 -0.0355335 0)
(0.151822 -0.037834 0)
(0.11724 -0.0324546 0)
(0.145088 -0.023336 0)
(0.164386 -0.015764 0)
(0.168516 -0.0102724 0)
(0.160543 -0.006312 0)
(0.136743 -0.0033594 0)
(0.0926465 -0.00134406 0)
(0.0417357 -0.00031123 0)
(0.0099325 -2.89239e-05 0)
(0.000896589 -1.44028e-06 0)
(2.02502e-05 -7.76006e-07 0)
(7.65374e-08 -7.73277e-07 0)
(3.45933e-11 -7.73276e-07 0)
(2.02335e-14 -7.73275e-07 0)
(-2.14237e-14 -7.73276e-07 0)
(-4.0467e-14 -7.73276e-07 0)
(2.38041e-15 -7.73275e-07 0)
(1.1902e-15 -7.73275e-07 0)
(-5.95102e-15 -7.73275e-07 0)
(-3.44326e-11 -7.73275e-07 0)
(-7.6743e-08 -7.73275e-07 0)
(-2.03819e-05 -7.73276e-07 0)
(-0.000906483 -7.73265e-07 0)
(-0.0100861 -7.72776e-07 0)
(-0.0425838 -7.67107e-07 0)
(-0.0951349 -7.42389e-07 0)
(-0.141745 -6.84883e-07 0)
(-0.168761 -5.93309e-07 0)
(-0.180806 -4.79229e-07 0)
(-0.181946 -3.60742e-07 0)
(-0.168438 -2.54594e-07 0)
(-0.142328 -1.71953e-07 0)
(-0.167404 -1.08974e-07 0)
(-0.480527 -6.51804e-08 0)
(-0.550441 -1.44589e-08 0)
(-0.17352 -1.39136e-09 0)
(0.171981 -0.000991634 0)
(0.560433 -0.0189867 0)
(0.48789 -0.035966 0)
(0.154549 -0.0356092 0)
(0.124725 -0.028731 0)
(0.152721 -0.0205952 0)
(0.170418 -0.0139549 0)
(0.172952 -0.00896817 0)
(0.163773 -0.00511612 0)
(0.138969 -0.00245179 0)
(0.0939315 -0.000891619 0)
(0.0422532 -0.000252156 0)
(0.0100441 -0.000111651 0)
(0.00090533 -0.000101005 0)
(2.04204e-05 -0.000100828 0)
(7.7172e-08 -0.000100828 0)
(3.48135e-11 -0.000100828 0)
(2.49943e-14 -0.000100828 0)
(-3.57061e-15 -0.000100828 0)
(5.832e-14 -0.000100828 0)
(7.02221e-14 -0.000100828 0)
(-3.57061e-15 -0.000100828 0)
(-2.14237e-14 -0.000100828 0)
(-3.43207e-11 -0.000100828 0)
(-7.6743e-08 -0.000100828 0)
(-2.03819e-05 -0.000100828 0)
(-0.000906482 -0.000100826 0)
(-0.010086 -0.000100769 0)
(-0.0425838 -0.000100149 0)
(-0.0951348 -9.75927e-05 0)
(-0.141745 -9.18381e-05 0)
(-0.168761 -8.26859e-05 0)
(-0.180806 -7.09253e-05 0)
(-0.181946 -5.79584e-05 0)
(-0.168437 -4.52906e-05 0)
(-0.142328 -3.43232e-05 0)
(-0.167404 -2.48487e-05 0)
(-0.480527 -1.73876e-05 0)
(-0.550441 -5.51367e-06 0)
(-0.17352 -9.56515e-07 0)
(0.167642 -0.0161596 0)
(0.547892 -0.0207725 0)
(0.480627 -0.0346757 0)
(0.158793 -0.031762 0)
(0.131708 -0.02473 0)
(0.159326 -0.0172334 0)
(0.17559 -0.0114255 0)
(0.177034 -0.0074177 0)
(0.166822 -0.00497292 0)
(0.140814 -0.00351219 0)
(0.0947662 -0.0027933 0)
(0.0424873 -0.00257469 0)
(0.0100782 -0.00254745 0)
(0.000907019 -0.00254694 0)
(2.04208e-05 -0.00254699 0)
(7.70026e-08 -0.00254699 0)
(3.52384e-11 -0.00254699 0)
(1.42825e-14 -0.00254699 0)
(-6.18906e-14 -0.00254699 0)
(-1.03548e-13 -0.00254699 0)
(-1.34493e-13 -0.00254699 0)
(-9.04556e-14 -0.00254699 0)
(1.45205e-13 -0.00254699 0)
(-3.45481e-11 -0.00254699 0)
(-7.67373e-08 -0.00254699 0)
(-2.03806e-05 -0.00254699 0)
(-0.000906426 -0.00254696 0)
(-0.0100854 -0.0025456 0)
(-0.0425808 -0.00253205 0)
(-0.0951268 -0.00248044 0)
(-0.141731 -0.00237074 0)
(-0.168741 -0.00220042 0)
(-0.180782 -0.00197947 0)
(-0.181922 -0.00172639 0)
(-0.168415 -0.00146276 0)
(-0.142308 -0.00121532 0)
(-0.167388 -0.000980891 0)
(-0.480509 -0.000777642 0)
(-0.550425 -0.00033659 0)
(-0.173516 -0.000102974 0)
(0.167536 -0.0240451 0)
(0.54259 -0.0214445 0)
(0.4773 -0.0281337 0)
(0.164133 -0.026606 0)
(0.138725 -0.0236013 0)
(0.165542 -0.020551 0)
(0.179877 -0.0186539 0)
(0.17917 -0.0178453 0)
(0.167536 -0.0179063 0)
(0.141069 -0.0182448 0)
(0.094835 -0.0185856 0)
(0.0424901 -0.0188001 0)
(0.0100708 -0.0188791 0)
(0.000905771 -0.0188892 0)
(2.03755e-05 -0.0188895 0)
(7.67409e-08 -0.0188895 0)
(3.39673e-11 -0.0188895 0)
(-3.92768e-14 -0.0188895 0)
(-3.33257e-14 -0.0188895 0)
(9.52164e-15 -0.0188895 0)
(1.01167e-13 -0.0188895 0)
(1.85672e-13 -0.0188895 0)
(-1.47585e-13 -0.0188895 0)
(-3.47921e-11 -0.0188895 0)
(-7.66014e-08 -0.0188895 0)
(-2.03488e-05 -0.0188895 0)
(-0.000905144 -0.0188892 0)
(-0.0100717 -0.0188791 0)
(-0.042521 -0.018787 0)
(-0.0949793 -0.0184681 0)
(-0.141475 -0.0178444 0)
(-0.168384 -0.0169248 0)
(-0.180349 -0.0157518 0)
(-0.181448 -0.0143925 0)
(-0.167945 -0.0129232 0)
(-0.141864 -0.0114758 0)
(-0.166982 -0.0100395 0)
(-0.479906 -0.00869689 0)
(-0.549791 -0.00485476 0)
(-0.173295 -0.00235309 0)
(0.170148 -0.0297716 0)
(0.543953 -0.0322095 0)
(0.475653 -0.0433132 0)
(0.163161 -0.0458636 0)
(0.137543 -0.0477696 0)
(0.164094 -0.0497484 0)
(0.178198 -0.0521381 0)
(0.177754 -0.0545101 0)
(0.166437 -0.0565347 0)
(0.14016 -0.0583801 0)
(0.094231 -0.059846 0)
(0.0422045 -0.0607201 0)
(0.00999233 -0.0610109 0)
(0.00089698 -0.0610466 0)
(2.01265e-05 -0.0610476 0)
(7.55674e-08 -0.0610476 0)
(3.40732e-11 -0.0610476 0)
(4.79653e-13 -0.0610476 0)
(4.99886e-13 -0.0610476 0)
(1.54727e-13 -0.0610476 0)
(-7.85535e-14 -0.0610476 0)
(-2.47563e-13 -0.0610476 0)
(-4.22523e-13 -0.0610476 0)
(-3.38958e-11 -0.0610476 0)
(-7.55361e-08 -0.0610476 0)
(-2.01155e-05 -0.0610476 0)
(-0.000896446 -0.0610466 0)
(-0.00998686 -0.0610115 0)
(-0.0421847 -0.0607171 0)
(-0.0942186 -0.0598001 0)
(-0.140244 -0.0581842 0)
(-0.166724 -0.0559816 0)
(-0.178342 -0.0532931 0)
(-0.179196 -0.0502191 0)
(-0.165604 -0.0468614 0)
(-0.13953 -0.0435052 0)
(-0.16471 -0.0402029 0)
(-0.475512 -0.036828 0)
(-0.544312 -0.0248137 0)
(-0.171105 -0.0166039 0)
(0.165187 -0.0563723 0)
(0.529541 -0.0666101 0)
(0.464142 -0.0865918 0)
(0.159839 -0.090721 0)
(0.134982 -0.0932725 0)
(0.161332 -0.0964131 0)
(0.175288 -0.0999651 0)
(0.174934 -0.103471 0)
(0.163807 -0.106804 0)
(0.137878 -0.109853 0)
(0.0925801 -0.112417 0)
(0.0413675 -0.114081 0)
(0.00975616 -0.114675 0)
(0.00087041 -0.114752 0)
(1.93659e-05 -0.114754 0)
(7.19537e-08 -0.114754 0)
(3.17868e-11 -0.114754 0)
(-3.57061e-14 -0.114754 0)
(-4.6418e-14 -0.114754 0)
(-8.33143e-14 -0.114754 0)
(1.13069e-13 -0.114754 0)
(2.3328e-13 -0.114754 0)
(5.59396e-14 -0.114754 0)
(-3.20213e-11 -0.114754 0)
(-7.19692e-08 -0.114754 0)
(-1.9367e-05 -0.114754 0)
(-0.000870342 -0.114752 0)
(-0.00975411 -0.114676 0)
(-0.0413536 -0.114087 0)
(-0.0925386 -0.112433 0)
(-0.137795 -0.10985 0)
(-0.163671 -0.106678 0)
(-0.174796 -0.10307 0)
(-0.17525 -0.0990978 0)
(-0.161475 -0.0948312 0)
(-0.135447 -0.0906733 0)
(-0.160548 -0.0868888 0)
(-0.465077 -0.0822715 0)
(-0.530302 -0.0631318 0)
(-0.165384 -0.0522067 0)
(0.160283 -0.097649 0)
(0.514832 -0.102757 0)
(0.452419 -0.123073 0)
(0.156723 -0.127439 0)
(0.132058 -0.129691 0)
(0.157644 -0.133045 0)
(0.171396 -0.136871 0)
(0.171164 -0.140735 0)
(0.160288 -0.144473 0)
(0.134751 -0.148033 0)
(0.0901562 -0.151269 0)
(0.0400283 -0.153589 0)
(0.00934649 -0.154487 0)
(0.000821397 -0.154608 0)
(1.79046e-05 -0.154612 0)
(6.48661e-08 -0.154612 0)
(2.7921e-11 -0.154612 0)
(9.16458e-14 -0.154612 0)
(1.90433e-13 -0.154612 0)
(1.44015e-13 -0.154612 0)
(-3.21355e-14 -0.154612 0)
(-1.55917e-13 -0.154612 0)
(-2.28519e-13 -0.154612 0)
(-2.80412e-11 -0.154612 0)
(-6.48773e-08 -0.154612 0)
(-1.79065e-05 -0.154612 0)
(-0.000821429 -0.154608 0)
(-0.00934613 -0.154488 0)
(-0.0400236 -0.153591 0)
(-0.090136 -0.151283 0)
(-0.134697 -0.148072 0)
(-0.160191 -0.144551 0)
(-0.171038 -0.140874 0)
(-0.171256 -0.137029 0)
(-0.157486 -0.133135 0)
(-0.131876 -0.129577 0)
(-0.156614 -0.126894 0)
(-0.452619 -0.122121 0)
(-0.51534 -0.101306 0)
(-0.160578 -0.096178 0)
(0.160265 -0.125178 0)
(0.505042 -0.123046 0)
(0.440358 -0.144124 0)
(0.153461 -0.148978 0)
(0.129579 -0.150843 0)
(0.154413 -0.15349 0)
(0.167878 -0.156891 0)
(0.167609 -0.16043 0)
(0.156774 -0.16402 0)
(0.131329 -0.16768 0)
(0.0872262 -0.171328 0)
(0.0382661 -0.174185 0)
(0.00877392 -0.175354 0)
(0.000750551 -0.175514 0)
(1.57753e-05 -0.175518 0)
(5.4656e-08 -0.175518 0)
(2.23449e-11 -0.175518 0)
(4.40376e-14 -0.175518 0)
(9.99772e-14 -0.175518 0)
(7.73633e-14 -0.175518 0)
(1.30923e-14 -0.175518 0)
(-1.10689e-13 -0.175518 0)
(-1.98764e-13 -0.175518 0)
(-2.24294e-11 -0.175518 0)
(-5.46595e-08 -0.175518 0)
(-1.57761e-05 -0.175518 0)
(-0.000750579 -0.175514 0)
(-0.00877405 -0.175354 0)
(-0.0382655 -0.174186 0)
(-0.0872204 -0.171333 0)
(-0.131309 -0.167701 0)
(-0.156734 -0.164077 0)
(-0.167548 -0.160543 0)
(-0.167793 -0.157063 0)
(-0.154294 -0.153719 0)
(-0.129433 -0.151133 0)
(-0.153364 -0.149339 0)
(-0.44042 -0.144488 0)
(-0.505302 -0.123208 0)
(-0.160442 -0.125094 0)
(0.162338 -0.138831 0)
(0.496575 -0.130048 0)
(0.42743 -0.15308 0)
(0.150249 -0.158503 0)
(0.127709 -0.159864 0)
(0.151816 -0.162252 0)
(0.164709 -0.164936 0)
(0.164294 -0.168285 0)
(0.153301 -0.171732 0)
(0.127708 -0.175469 0)
(0.0838874 -0.179452 0)
(0.0361487 -0.182753 0)
(0.0080667 -0.18413 0)
(0.000662925 -0.184316 0)
(1.32018e-05 -0.184321 0)
(4.2819e-08 -0.184321 0)
(1.63629e-11 -0.184321 0)
(1.91623e-13 -0.184321 0)
(1.7496e-13 -0.184321 0)
(1.1545e-13 -0.184321 0)
(-3.57061e-14 -0.184321 0)
(-2.14237e-13 -0.184321 0)
(-2.65416e-13 -0.184321 0)
(-1.62725e-11 -0.184321 0)
(-4.28191e-08 -0.184321 0)
(-1.3202e-05 -0.184321 0)
(-0.000662933 -0.184316 0)
(-0.00806679 -0.18413 0)
(-0.0361489 -0.182753 0)
(-0.0838872 -0.179453 0)
(-0.127705 -0.175476 0)
(-0.153293 -0.171754 0)
(-0.164279 -0.168334 0)
(-0.16468 -0.165021 0)
(-0.151771 -0.162386 0)
(-0.127656 -0.160067 0)
(-0.150211 -0.158782 0)
(-0.427438 -0.153378 0)
(-0.496652 -0.130261 0)
(-0.162395 -0.138865 0)
(0.168729 -0.134178 0)
(0.491312 -0.129619 0)
(0.412938 -0.153856 0)
(0.146923 -0.159046 0)
(0.125967 -0.160628 0)
(0.149526 -0.161849 0)
(0.162065 -0.16432 0)
(0.16106 -0.167076 0)
(0.149852 -0.170368 0)
(0.123889 -0.174124 0)
(0.0802074 -0.178392 0)
(0.0337584 -0.182039 0)
(0.00726783 -0.183548 0)
(0.00056635 -0.183744 0)
(1.05012e-05 -0.183749 0)
(3.12128e-08 -0.183749 0)
(1.0763e-11 -0.183749 0)
(-7.14123e-15 -0.183749 0)
(2.02335e-14 -0.183749 0)
(9.64066e-14 -0.183749 0)
(5.95102e-15 -0.183749 0)
(-1.22591e-13 -0.183749 0)
(-1.7615e-13 -0.183749 0)
(-1.08368e-11 -0.183749 0)
(-3.12125e-08 -0.183749 0)
(-1.05012e-05 -0.183749 0)
(-0.00056635 -0.183744 0)
(-0.00726785 -0.183548 0)
(-0.0337586 -0.182039 0)
(-0.080208 -0.178392 0)
(-0.12389 -0.174124 0)
(-0.149853 -0.170371 0)
(-0.161059 -0.167086 0)
(-0.162061 -0.164341 0)
(-0.14952 -0.16189 0)
(-0.12596 -0.160698 0)
(-0.146917 -0.159145 0)
(-0.412936 -0.153966 0)
(-0.491318 -0.129707 0)
(-0.168734 -0.134203 0)
(0.166731 -0.124929 0)
(0.477613 -0.113323 0)
(0.399073 -0.142254 0)
(0.143724 -0.14588 0)
(0.125009 -0.147332 0)
(0.148259 -0.149197 0)
(0.159672 -0.150568 0)
(0.158466 -0.152891 0)
(0.146509 -0.155619 0)
(0.119975 -0.159127 0)
(0.0762603 -0.163426 0)
(0.0311805 -0.167203 0)
(0.00642391 -0.168732 0)
(0.000469092 -0.16892 0)
(7.97323e-06 -0.168925 0)
(2.13119e-08 -0.168925 0)
(6.45091e-12 -0.168925 0)
(-1.01167e-13 -0.168925 0)
(-6.90319e-14 -0.168925 0)
(2.85649e-14 -0.168925 0)
(6.30809e-14 -0.168925 0)
(6.78417e-14 -0.168925 0)
(-3.80866e-14 -0.168925 0)
(-6.65443e-12 -0.168925 0)
(-2.13117e-08 -0.168925 0)
(-7.97321e-06 -0.168925 0)
(-0.000469092 -0.16892 0)
(-0.00642391 -0.168732 0)
(-0.0311805 -0.167203 0)
(-0.0762606 -0.163426 0)
(-0.119976 -0.159127 0)
(-0.14651 -0.155618 0)
(-0.158468 -0.15289 0)
(-0.159674 -0.150568 0)
(-0.148261 -0.149201 0)
(-0.125011 -0.147341 0)
(-0.143724 -0.145892 0)
(-0.39907 -0.142269 0)
(-0.477607 -0.113336 0)
(-0.166728 -0.124935 0)
(0.179913 -0.0931041 0)
(0.474617 -0.0923703 0)
(0.381565 -0.120433 0)
(0.14203 -0.122693 0)
(0.12277 -0.121637 0)
(0.146408 -0.123895 0)
(0.158505 -0.124904 0)
(0.156193 -0.126631 0)
(0.143843 -0.128518 0)
(0.116366 -0.131269 0)
(0.0724251 -0.135206 0)
(0.0286451 -0.138924 0)
(0.00561336 -0.140412 0)
(0.000380904 -0.140583 0)
(5.87286e-06 -0.140587 0)
(1.39426e-08 -0.140587 0)
(3.70035e-12 -0.140587 0)
(-4.76082e-14 -0.140587 0)
(-5.59396e-14 -0.140587 0)
(-1.1902e-15 -0.140587 0)
(9.64066e-14 -0.140587 0)
(1.04738e-13 -0.140587 0)
(7.14123e-15 -0.140587 0)
(-3.82532e-12 -0.140587 0)
(-1.39425e-08 -0.140587 0)
(-5.87286e-06 -0.140587 0)
(-0.000380903 -0.140583 0)
(-0.00561336 -0.140412 0)
(-0.0286451 -0.138924 0)
(-0.0724251 -0.135206 0)
(-0.116366 -0.131269 0)
(-0.143843 -0.128517 0)
(-0.156193 -0.126629 0)
(-0.158506 -0.124902 0)
(-0.146409 -0.123892 0)
(-0.122771 -0.121633 0)
(-0.14203 -0.122689 0)
(-0.381564 -0.120429 0)
(-0.474614 -0.0923684 0)
(-0.179911 -0.0931048 0)
(0.167438 -0.0814591 0)
(0.451277 -0.09867 0)
(0.369852 -0.130025 0)
(0.142563 -0.138344 0)
(0.123851 -0.137315 0)
(0.145111 -0.138213 0)
(0.157036 -0.1412 0)
(0.154984 -0.14445 0)
(0.14204 -0.147603 0)
(0.11353 -0.151007 0)
(0.0688837 -0.155125 0)
(0.0261643 -0.15877 0)
(0.00482489 -0.160159 0)
(0.000300032 -0.160308 0)
(4.13075e-06 -0.160311 0)
(8.57088e-09 -0.160311 0)
(1.97455e-12 -0.160311 0)
(1.1902e-15 -0.160311 0)
(-6.30809e-14 -0.160311 0)
(-3.57061e-14 -0.160311 0)
(1.07118e-13 -0.160311 0)
(1.65438e-13 -0.160311 0)
(6.42711e-14 -0.160311 0)
(-2.04477e-12 -0.160311 0)
(-8.57063e-09 -0.160311 0)
(-4.13075e-06 -0.160311 0)
(-0.000300032 -0.160308 0)
(-0.00482489 -0.160159 0)
(-0.0261643 -0.15877 0)
(-0.0688837 -0.155125 0)
(-0.11353 -0.151007 0)
(-0.14204 -0.147603 0)
(-0.154984 -0.144449 0)
(-0.157036 -0.141199 0)
(-0.145111 -0.138211 0)
(-0.123851 -0.137312 0)
(-0.142564 -0.138341 0)
(-0.369852 -0.130023 0)
(-0.451277 -0.0986683 0)
(-0.167438 -0.0814589 0)
(0.163328 -0.27986 0)
(0.427817 -0.297541 0)
(0.343334 -0.341704 0)
(0.135005 -0.371329 0)
(0.122896 -0.383424 0)
(0.142665 -0.401169 0)
(0.152494 -0.415683 0)
(0.150022 -0.430549 0)
(0.137524 -0.443951 0)
(0.109118 -0.456772 0)
(0.0649446 -0.46935 0)
(0.0237942 -0.47796 0)
(0.00413076 -0.480479 0)
(0.000234064 -0.480687 0)
(2.84153e-06 -0.48069 0)
(5.05501e-09 -0.48069 0)
(9.84299e-13 -0.48069 0)
(-1.66629e-14 -0.48069 0)
(1.1902e-15 -0.48069 0)
(2.02335e-14 -0.48069 0)
(1.1545e-13 -0.48069 0)
(1.71389e-13 -0.48069 0)
(7.37927e-14 -0.48069 0)
(-9.66446e-13 -0.48069 0)
(-5.0546e-09 -0.48069 0)
(-2.84153e-06 -0.48069 0)
(-0.000234064 -0.480687 0)
(-0.00413076 -0.480479 0)
(-0.0237942 -0.47796 0)
(-0.0649446 -0.46935 0)
(-0.109118 -0.456772 0)
(-0.137524 -0.443951 0)
(-0.150022 -0.430549 0)
(-0.152494 -0.415683 0)
(-0.142665 -0.401168 0)
(-0.122896 -0.383423 0)
(-0.135005 -0.371328 0)
(-0.343334 -0.341703 0)
(-0.427816 -0.29754 0)
(-0.163327 -0.27986 0)
(0.1504 -0.262411 0)
(0.391682 -0.411717 0)
(0.298747 -0.455872 0)
(0.102361 -0.48229 0)
(0.0950965 -0.508632 0)
(0.114024 -0.512769 0)
(0.128724 -0.527487 0)
(0.127745 -0.534093 0)
(0.11677 -0.543893 0)
(0.0890539 -0.556548 0)
(0.0484661 -0.573242 0)
(0.0154406 -0.585162 0)
(0.00219728 -0.588286 0)
(9.60452e-05 -0.588501 0)
(8.58601e-07 -0.588504 0)
(1.08152e-09 -0.588504 0)
(8.27192e-14 -0.588504 0)
(-4.28474e-14 -0.588504 0)
(1.78531e-14 -0.588504 0)
(2.916e-14 -0.588504 0)
(8.39094e-14 -0.588504 0)
(1.61273e-13 -0.588504 0)
(9.70017e-14 -0.588504 0)
(-1.05333e-13 -0.588504 0)
(-1.08147e-09 -0.588504 0)
(-8.58601e-07 -0.588504 0)
(-9.60452e-05 -0.588501 0)
(-0.00219728 -0.588286 0)
(-0.0154406 -0.585162 0)
(-0.0484661 -0.573242 0)
(-0.0890538 -0.556548 0)
(-0.11677 -0.543893 0)
(-0.127745 -0.534093 0)
(-0.128724 -0.527487 0)
(-0.114024 -0.512769 0)
(-0.0950964 -0.508632 0)
(-0.102361 -0.48229 0)
(-0.298747 -0.455871 0)
(-0.391682 -0.411717 0)
(-0.1504 -0.262411 0)
(0.0194509 -0.0337328 0)
(0.241391 -0.169623 0)
(0.275327 -0.189695 0)
(0.0841636 -0.193927 0)
(0.0935252 -0.208579 0)
(0.124495 -0.195558 0)
(0.131946 -0.197713 0)
(0.134212 -0.192215 0)
(0.115886 -0.191001 0)
(0.0808363 -0.193132 0)
(0.0373716 -0.199529 0)
(0.00929711 -0.204645 0)
(0.000912924 -0.205904 0)
(2.41192e-05 -0.205978 0)
(1.20067e-07 -0.205979 0)
(8.47646e-11 -0.205979 0)
(-1.1664e-13 -0.205979 0)
(-1.18425e-13 -0.205979 0)
(-5.71298e-14 -0.205979 0)
(-6.54613e-15 -0.205979 0)
(9.70017e-14 -0.205979 0)
(1.50561e-13 -0.205979 0)
(1.03548e-13 -0.205979 0)
(-1.36874e-14 -0.205979 0)
(-8.50705e-11 -0.205979 0)
(-1.20067e-07 -0.205979 0)
(-2.41192e-05 -0.205978 0)
(-0.000912924 -0.205904 0)
(-0.00929711 -0.204645 0)
(-0.0373716 -0.199529 0)
(-0.0808363 -0.193132 0)
(-0.115886 -0.191002 0)
(-0.134212 -0.192215 0)
(-0.131946 -0.197713 0)
(-0.124495 -0.195558 0)
(-0.0935252 -0.208579 0)
(-0.0841636 -0.193928 0)
(-0.275327 -0.189695 0)
(-0.241391 -0.169624 0)
(-0.0194509 -0.0337328 0)
(0.0194509 0.0337328 0)
(0.241391 0.169623 0)
(0.275327 0.189695 0)
(0.0841636 0.193927 0)
(0.0935252 0.208579 0)
(0.124495 0.195558 0)
(0.131946 0.197713 0)
(0.134212 0.192215 0)
(0.115886 0.191001 0)
(0.0808363 0.193132 0)
(0.0373716 0.199529 0)
(0.00929711 0.204645 0)
(0.000912924 0.205904 0)
(2.41192e-05 0.205978 0)
(1.20067e-07 0.205979 0)
(8.51764e-11 0.205979 0)
(-8.33143e-15 0.205979 0)
(4.52278e-14 0.205979 0)
(1.96384e-14 0.205979 0)
(5.35592e-15 0.205979 0)
(-1.78531e-15 0.205979 0)
(2.26139e-14 0.205979 0)
(1.96384e-14 0.205979 0)
(-3.09453e-14 0.205979 0)
(-8.49497e-11 0.205979 0)
(-1.20067e-07 0.205979 0)
(-2.41192e-05 0.205978 0)
(-0.000912924 0.205904 0)
(-0.00929711 0.204645 0)
(-0.0373716 0.199529 0)
(-0.0808363 0.193132 0)
(-0.115886 0.191002 0)
(-0.134212 0.192215 0)
(-0.131946 0.197713 0)
(-0.124495 0.195558 0)
(-0.0935252 0.208579 0)
(-0.0841636 0.193928 0)
(-0.275327 0.189695 0)
(-0.241391 0.169624 0)
(-0.0194509 0.0337328 0)
(0.1504 0.262411 0)
(0.391682 0.411717 0)
(0.298747 0.455872 0)
(0.102361 0.48229 0)
(0.0950965 0.508632 0)
(0.114024 0.512769 0)
(0.128724 0.527487 0)
(0.127745 0.534093 0)
(0.11677 0.543893 0)
(0.0890539 0.556548 0)
(0.0484661 0.573242 0)
(0.0154406 0.585162 0)