/*--------------------------------*- C++ -*----------------------------------*\
| =========                 |                                                 |
| \\      /  F ield         | OpenFOAM: The Open Source CFD Toolbox           |
|  \\    /   O peration     | Version:  v1912                                 |
|   \\  /    A nd           | Website:  www.openfoam.com                      |
|    \\/     M anipulation  |                                                 |
\*---------------------------------------------------------------------------*/
FoamFile
{
    version     2.0;
    format      ascii;
    class       volVectorField;
    location    "2.4";
    object      grad(T);
}
// * * * * * * * * * * * * * * * * * * * * * * * * * * * * * * * * * * * * * //

dimensions      [0 -1 0 1 0 0 0];


internalField   nonuniform List<vector> 
1900
(
(0.562602 1.68402e-06 0)
(-0.368175 7.15969e-06 0)
(0.0208369 2.12004e-05 0)
(0.0188521 1.58203e-05 0)
(0.0153455 -9.4546e-06 0)
(0.0157131 -4.92347e-05 0)
(0.018311 -0.000276916 0)
(0.0200581 -0.0018685 0)
(0.0247767 -0.00392313 0)
(0.00705862 -0.00441965 0)
(0.562611 5.54349e-06 0)
(-0.368156 1.342e-05 0)
(0.0208456 3.08367e-05 0)
(0.0188215 -6.8197e-06 0)
(0.0152804 -9.52828e-05 0)
(0.0154457 -0.000131437 0)
(0.0164917 -0.000253963 0)
(0.0164119 -0.00163337 0)
(0.0222256 -0.00293838 0)
(0.0317249 -0.0057422 0)
(0.562621 -5.63785e-14 0)
(-0.36815 2.81893e-14 0)
(0.0208167 2.66714e-13 0)
(0.018726 2.40693e-13 0)
(0.0152208 2.73219e-13 0)
(0.0155545 3.01408e-13 0)
(0.0168091 4.44523e-13 0)
(0.0173737 1.10589e-13 0)
(0.0206679 -5.13912e-13 0)
(0.0287948 -3.64292e-13 0)
(0.562611 -5.54349e-06 0)
(-0.368156 -1.342e-05 0)
(0.0208456 -3.08367e-05 0)
(0.0188215 6.8197e-06 0)
(0.0152804 9.52828e-05 0)
(0.0154457 0.000131437 0)
(0.0164917 0.000253963 0)
(0.0164119 0.00163337 0)
(0.0222256 0.00293838 0)
(0.0317249 0.0057422 0)
(0.562602 -1.68402e-06 0)
(-0.368175 -7.15969e-06 0)
(0.0208369 -2.12004e-05 0)
(0.0188521 -1.58203e-05 0)
(0.0153455 9.4546e-06 0)
(0.0157131 4.92347e-05 0)
(0.018311 0.000276916 0)
(0.0200581 0.0018685 0)
(0.0247767 0.00392313 0)
(0.00705862 0.00441965 0)
(0.0212219 0.0168389 1.01304e-15)
(0.0671205 0.0198531 -1.23541e-15)
(0.0390639 0.0204033 -1.57105e-15)
(-0.243919 0.0578684 0)
(-0.216547 0.395668 -6.52988e-15)
(0.0474094 0.0148657 1.01608e-15)
(0.0627919 0.0138165 1.23541e-15)
(0.0557904 0.00704455 1.57105e-15)
(-0.0883737 0.0180716 0)
(-0.174294 0.299454 0)
(0.0493963 -1.39454e-13 0)
(0.0612797 -2.13987e-14 0)
(0.0450756 1.02397e-13 0)
(-0.0915105 1.43739e-13 0)
(-0.001662 1.6134e-13 0)
(0.0474094 -0.0148657 1.01608e-15)
(0.0627919 -0.0138165 1.23541e-15)
(0.0557904 -0.00704455 1.57105e-15)
(-0.0883737 -0.0180716 0)
(-0.174294 -0.299454 0)
(0.0212219 -0.0168389 -3.04521e-15)
(0.0671205 -0.0198531 -1.23541e-15)
(0.0390639 -0.0204033 -1.57105e-15)
(-0.243919 -0.0578684 -4.28362e-15)
(-0.216547 -0.395668 6.52988e-15)
(0.177588 -0.135846 2.90466e-15)
(-0.184346 -0.0319316 -2.41608e-15)
(-0.249306 -0.0141561 0)
(-0.422799 0.140745 1.77463e-15)
(-0.78222 0.398408 -7.54682e-16)
(0.0360362 -0.165599 -1.45028e-15)
(-0.15704 -0.0403995 1.20756e-15)
(-0.18482 -0.0265294 0)
(-0.247373 0.152119 -1.11294e-15)
(-0.282225 0.465738 1.95177e-16)
(0.0736616 3.01167e-13 0)
(-0.152283 2.64101e-13 0)
(-0.17696 6.38475e-13 0)
(-0.223336 1.50229e-12 4.47008e-16)
(-0.284416 1.66752e-12 -3.90354e-16)
(0.0360362 0.165599 -1.45028e-15)
(-0.15704 0.0403995 1.20756e-15)
(-0.18482 0.0265294 0)
(-0.247373 -0.152119 -1.11294e-15)
(-0.282225 -0.465738 1.95177e-16)
(0.177588 0.135846 1.45028e-15)
(-0.184346 0.0319316 9.61674e-19)
(-0.249306 0.0141561 0)
(-0.422799 -0.140745 4.23879e-18)
(-0.78222 -0.398408 7.54682e-16)
(-0.754839 2.54559 0)
(0.0100383 0.806625 0)
(0.2879 0.250883 0)
(0.0368904 0.0942093 0)
(-0.0282099 0.0491013 0)
(0.0102462 0.0310442 0)
(0.0382499 0.0246806 0)
(0.0523256 0.0286201 0)
(0.0624484 0.0294769 0)
(0.0741912 0.0300966 0)
(0.0854734 0.0311938 0)
(0.0940216 0.0321445 0)
(0.0998081 0.0332452 0)
(0.102908 0.0345042 0)
(0.10378 0.0359472 0)
(0.10239 0.0373618 0)
(0.0974326 0.0386455 0)
(0.0847197 0.03972 0)
(0.0596715 0.0405428 0)
(0.021337 0.0409676 0)
(-0.0239135 0.0409727 0)
(-0.0626282 0.0405813 0)
(-0.087537 0.0400134 0)
(-0.100433 0.0393208 0)
(-0.105941 0.0385384 0)
(-0.108447 0.0376636 0)
(-0.109542 0.0366854 0)
(-0.109739 0.0355895 0)
(-0.109182 0.0343588 0)
(-0.107813 0.0329753 0)
(-0.105342 0.031423 0)
(-0.101362 0.0296896 0)
(-0.0959461 0.0277757 0)
(-0.0903251 0.0256712 0)
(-0.0852511 0.0234604 0)
(-0.0748289 0.0210428 0)
(-0.0595141 0.0191546 0)
(-0.273415 0.0158543 0)
(-0.655515 0.011242 0)
(-0.408185 0.00221122 0)
(-0.64083 1.49943 0)
(-0.353657 0.888598 0)
(0.139156 0.315718 0)
(-0.0126375 0.0548191 0)
(-0.0336688 0.0208111 0)
(0.00777118 0.0140793 0)
(0.0379361 0.0102495 0)
(0.052932 0.0124636 0)
(0.0626138 0.0129624 0)
(0.0743967 0.013378 0)
(0.0857211 0.0140441 0)
(0.0942595 0.0145594 0)
(0.100091 0.0151435 0)
(0.103267 0.0158853 0)
(0.104177 0.0168557 0)
(0.102757 0.0177951 0)
(0.097742 0.0186206 0)
(0.0849652 0.0192922 0)
(0.0598397 0.0198203 0)
(0.021407 0.0201192 0)
(-0.0239402 0.020164 0)
(-0.0627168 0.0199929 0)
(-0.087653 0.0197447 0)
(-0.100566 0.0194584 0)
(-0.106087 0.0191529 0)
(-0.108611 0.0188183 0)
(-0.10973 0.0184359 0)
(-0.109961 0.0179801 0)
(-0.109449 0.0174181 0)
(-0.108137 0.0167113 0)
(-0.105735 0.015819 0)
(-0.101833 0.0147048 0)
(-0.0965023 0.0133511 0)
(-0.0909596 0.0117501 0)
(-0.0859645 0.00999226 0)
(-0.0754798 0.00806401 0)
(-0.060257 0.00673444 0)
(-0.274445 0.00461448 0)
(-0.656668 0.00227669 0)
(-0.408779 -0.000175413 0)
(-0.558253 1.70318e-12 0)
(-0.334313 6.46579e-13 0)
(0.0453457 1.22219e-13 0)
(-0.0489006 -2.44438e-13 0)
(-0.0400614 -3.5483e-14 0)
(0.0071737 3.94255e-14 0)
(0.0377799 -9.06787e-14 0)
(0.0531148 2.48381e-13 0)
(0.0627144 3.66657e-13 0)
(0.0745059 -2.0935e-12 0)
(0.0858171 -7.75895e-12 0)
(0.0943414 -7.21093e-12 0)
(0.100194 2.33675e-11 0)
(0.103406 9.375e-11 0)
(0.104336 1.43564e-10 0)
(0.102903 1.59003e-11 0)
(0.0978681 -1.48808e-10 0)
(0.0850688 -8.26513e-10 0)
(0.0599121 -1.32279e-09 0)
(0.021437 -7.52744e-10 0)
(-0.0239503 -8.74853e-11 0)
(-0.0627502 1.87997e-09 0)
(-0.0876924 1.93106e-09 0)
(-0.100605 -1.59175e-09 0)
(-0.106127 -3.14264e-09 0)
(-0.108656 -2.52786e-09 0)
(-0.109786 -1.54843e-09 0)
(-0.110035 -4.11536e-10 0)
(-0.109551 9.66714e-12 0)
(-0.108278 -2.41375e-10 0)
(-0.105926 -9.50065e-10 0)
(-0.10208 -2.40771e-09 0)
(-0.0968056 -3.46641e-09 0)
(-0.0913022 -4.81241e-09 0)
(-0.0863234 -4.98252e-09 0)
(-0.0757767 -4.82287e-09 0)
(-0.0605176 -2.17073e-09 0)
(-0.274712 -9.45925e-10 0)
(-0.656908 2.82437e-10 0)
(-0.408898 3.62754e-10 0)
(-0.64083 -1.49943 0)
(-0.353657 -0.888598 0)
(0.139156 -0.315718 0)
(-0.0126375 -0.0548191 0)
(-0.0336688 -0.0208111 0)
(0.00777118 -0.0140793 0)
(0.0379361 -0.0102495 0)
(0.052932 -0.0124636 0)
(0.0626138 -0.0129624 0)
(0.0743967 -0.013378 0)
(0.0857211 -0.0140441 0)
(0.0942595 -0.0145594 0)
(0.100091 -0.0151435 0)
(0.103267 -0.0158853 0)
(0.104177 -0.0168557 0)
(0.102757 -0.0177951 0)
(0.097742 -0.0186206 0)
(0.0849652 -0.0192922 0)
(0.0598397 -0.0198203 0)
(0.021407 -0.0201192 0)
(-0.0239402 -0.020164 0)
(-0.0627168 -0.0199929 0)
(-0.087653 -0.0197447 0)
(-0.100566 -0.0194584 0)
(-0.106087 -0.0191529 0)
(-0.108611 -0.0188183 0)
(-0.10973 -0.018436 0)
(-0.109961 -0.0179801 0)
(-0.109449 -0.0174181 0)
(-0.108137 -0.0167113 0)
(-0.105735 -0.015819 0)
(-0.101833 -0.0147048 0)
(-0.0965023 -0.0133511 0)
(-0.0909596 -0.0117501 0)
(-0.0859645 -0.00999226 0)
(-0.0754798 -0.00806402 0)
(-0.060257 -0.00673444 0)
(-0.274445 -0.00461448 0)
(-0.656668 -0.00227669 0)
(-0.408779 0.000175413 0)
(-0.754839 -2.54559 0)
(0.0100383 -0.806625 0)
(0.2879 -0.250883 0)
(0.0368904 -0.0942093 0)
(-0.0282099 -0.0491013 0)
(0.0102462 -0.0310442 0)
(0.0382499 -0.0246806 0)
(0.0523256 -0.0286201 0)
(0.0624484 -0.0294769 0)
(0.0741912 -0.0300966 0)
(0.0854734 -0.0311938 0)
(0.0940216 -0.0321445 0)
(0.0998081 -0.0332452 0)
(0.102908 -0.0345042 0)
(0.10378 -0.0359472 0)
(0.10239 -0.0373618 0)
(0.0974326 -0.0386455 0)
(0.0847197 -0.03972 0)
(0.0596715 -0.0405428 0)
(0.021337 -0.0409676 0)
(-0.0239135 -0.0409727 0)
(-0.0626282 -0.0405813 0)
(-0.087537 -0.0400134 0)
(-0.100433 -0.0393208 0)
(-0.105941 -0.0385384 0)
(-0.108447 -0.0376636 0)
(-0.109542 -0.0366854 0)
(-0.109739 -0.0355895 0)
(-0.109182 -0.0343588 0)
(-0.107813 -0.0329753 0)
(-0.105342 -0.031423 0)
(-0.101362 -0.0296896 0)
(-0.0959461 -0.0277757 0)
(-0.0903251 -0.0256712 0)
(-0.0852511 -0.0234604 0)
(-0.0748289 -0.0210428 0)
(-0.0595141 -0.0191546 0)
(-0.273415 -0.0158543 0)
(-0.655515 -0.011242 0)
(-0.408185 -0.00221122 0)
(0.311753 -1.37394 0)
(0.665226 -0.267416 0)
(0.414049 -0.114042 0)
(0.056668 -0.134425 0)
(-0.000358848 -0.0759527 0)
(0.0202279 -0.0506342 0)
(0.0390938 -0.0438859 0)
(0.0506246 -0.0462095 0)
(0.061879 -0.0472327 0)
(0.0735573 -0.0476473 0)
(0.0847229 -0.0487155 0)
(0.0932479 -0.0498346 0)
(0.0989389 -0.0512124 0)
(0.101986 -0.0527048 0)
(0.102844 -0.0542274 0)
(0.101488 -0.0557192 0)
(0.0966206 -0.0571124 0)
(0.0840589 -0.0583197 0)
(0.0592515 -0.0592312 0)
(0.0212184 -0.0596542 0)
(-0.0237287 -0.0595687 0)
(-0.0622176 -0.0589493 0)
(-0.0869966 -0.0580614 0)
(-0.0997936 -0.0569788 0)
(-0.105216 -0.0557461 0)
(-0.107638 -0.0543696 0)
(-0.108647 -0.0528505 0)
(-0.108758 -0.0511907 0)
(-0.108119 -0.0493935 0)
(-0.10667 -0.0474652 0)
(-0.104128 -0.045416 0)
(-0.100089 -0.0432607 0)
(-0.0946249 -0.0410246 0)
(-0.0889863 -0.0387239 0)
(-0.0838861 -0.0364403 0)
(-0.0735316 -0.0340904 0)
(-0.0578614 -0.0318046 0)
(-0.270673 -0.0283748 0)
(-0.649443 -0.0229143 0)
(-0.403802 -0.00690466 0)
(0.565789 -0.281387 0)
(0.872792 -0.00945162 0)
(0.348409 -0.105485 0)
(0.0629895 -0.126925 0)
(0.0375997 -0.0928791 0)
(0.0357944 -0.0751624 0)
(0.0420611 -0.0701289 0)
(0.0500126 -0.0690353 0)
(0.0613681 -0.0693661 0)
(0.0731023 -0.0692171 0)
(0.0837682 -0.0697926 0)
(0.0920303 -0.0707254 0)
(0.0975083 -0.0720237 0)
(0.100497 -0.073499 0)
(0.101377 -0.0750256 0)
(0.100093 -0.0765376 0)
(0.095362 -0.077983 0)
(0.0830323 -0.0792909 0)
(0.0586108 -0.0803147 0)
(0.0210754 -0.0808036 0)
(-0.0233334 -0.0806646 0)
(-0.0613959 -0.0798433 0)
(-0.0859279 -0.0787122 0)
(-0.0985448 -0.0773971 0)
(-0.103815 -0.0759594 0)
(-0.106091 -0.0744091 0)
(-0.106958 -0.0727486 0)
(-0.106933 -0.0709804 0)
(-0.106163 -0.0691071 0)
(-0.104593 -0.0671325 0)
(-0.101941 -0.0650627 0)
(-0.0978127 -0.0629103 0)
(-0.0922827 -0.0607004 0)
(-0.0866255 -0.0584627 0)
(-0.081518 -0.056233 0)
(-0.0710575 -0.0539481 0)
(-0.0548926 -0.0509259 0)
(-0.266319 -0.0477224 0)
(-0.638082 -0.0410835 0)
(-0.395108 -0.0198804 0)
(0.573799 0.00813815 0)
(0.834731 -0.0409432 0)
(0.300847 -0.110706 0)
(0.0688154 -0.115005 0)
(0.0495215 -0.109351 0)
(0.0421508 -0.0982574 0)
(0.044998 -0.0945022 0)
(0.0513597 -0.0914058 0)
(0.0617038 -0.0902333 0)
(0.0731463 -0.089235 0)
(0.0832695 -0.088866 0)
(0.091098 -0.0891514 0)
(0.0962661 -0.0899625 0)
(0.0990935 -0.0911086 0)
(0.0999164 -0.0924347 0)
(0.0986383 -0.0938387 0)
(0.0939674 -0.0952595 0)
(0.081812 -0.0966188 0)
(0.0577938 -0.097748 0)
(0.0208812 -0.0983508 0)
(-0.0228033 -0.0981897 0)
(-0.0603362 -0.097185 0)
(-0.0846393 -0.0958879 0)
(-0.0971409 -0.0944744 0)
(-0.102337 -0.0930212 0)
(-0.104544 -0.0915345 0)
(-0.105343 -0.090012 0)
(-0.105249 -0.088452 0)
(-0.104411 -0.0868543 0)
(-0.102773 -0.0852188 0)
(-0.100059 -0.0835506 0)
(-0.0958854 -0.081865 0)
(-0.090339 -0.080196 0)
(-0.0846813 -0.0785859 0)
(-0.0795356 -0.0769429 0)
(-0.0684174 -0.0751739 0)
(-0.0518621 -0.0719186 0)
(-0.261188 -0.0702899 0)
(-0.622613 -0.062263 0)
(-0.38337 -0.0421898 0)
(0.518493 0.00220743 0)
(0.75827 -0.0866566 0)
(0.27704 -0.113198 0)
(0.0642946 -0.117631 0)
(0.0537382 -0.117733 0)
(0.0501035 -0.110005 0)
(0.0486636 -0.106471 0)
(0.0541263 -0.102852 0)
(0.06346 -0.10014 0)
(0.0744199 -0.0981574 0)
(0.0838487 -0.0969372 0)
(0.0909737 -0.0965915 0)
(0.0956223 -0.0969402 0)
(0.0981147 -0.0977551 0)
(0.098746 -0.0988547 0)
(0.0973709 -0.10011 0)
(0.092683 -0.101434 0)
(0.0806342 -0.102739 0)
(0.0569418 -0.103874 0)
(0.0206497 -0.104564 0)
(-0.02221 -0.104401 0)
(-0.0591779 -0.103268 0)
(-0.0833159 -0.101884 0)
(-0.0957823 -0.100451 0)
(-0.100982 -0.0990479 0)
(-0.103191 -0.0976709 0)
(-0.103988 -0.0963098 0)
(-0.10389 -0.0949587 0)
(-0.103047 -0.0936151 0)
(-0.101409 -0.0922822 0)
(-0.0987094 -0.0909667 0)
(-0.09458 -0.089707 0)
(-0.0891228 -0.0885396 0)
(-0.0834907 -0.0875128 0)
(-0.0782301 -0.0863134 0)
(-0.066216 -0.0848788 0)
(-0.0501862 -0.0821506 0)
(-0.257014 -0.0828745 0)
(-0.611003 -0.0730726 0)
(-0.375765 -0.0625454 0)
(0.488167 -0.0373325 0)
(0.723522 -0.111573 0)
(0.271 -0.116916 0)
(0.0644453 -0.117749 0)
(0.0568699 -0.115677 0)
(0.0530038 -0.114995 0)
(0.0518915 -0.112033 0)
(0.0574605 -0.108617 0)
(0.0662273 -0.105155 0)
(0.0762324 -0.102677 0)
(0.0847784 -0.101159 0)
(0.0910951 -0.100613 0)
(0.0951448 -0.100819 0)
(0.0972485 -0.10153 0)
(0.0976473 -0.102549 0)
(0.0961532 -0.103735 0)
(0.0914339 -0.104993 0)
(0.0794603 -0.106258 0)
(0.0560348 -0.107414 0)
(0.0203734 -0.108216 0)
(-0.0215545 -0.10806 0)
(-0.0579104 -0.106806 0)
(-0.0819243 -0.105327 0)
(-0.0944083 -0.103853 0)
(-0.0996579 -0.102458 0)
(-0.101905 -0.101125 0)
(-0.102729 -0.0998356 0)
(-0.102653 -0.0985762 0)
(-0.101832 -0.0973456 0)
(-0.100221 -0.0961388 0)
(-0.0975779 -0.0949903 0)
(-0.0935466 -0.0939256 0)
(-0.0882246 -0.0930058 0)
(-0.082536 -0.09224 0)
(-0.0769974 -0.0910481 0)
(-0.064406 -0.0896121 0)
(-0.0499307 -0.0878855 0)
(-0.25244 -0.0902802 0)
(-0.603023 -0.0772227 0)
(-0.373225 -0.075433 0)
(0.446952 -0.0519064 0)
(0.681581 -0.109051 0)
(0.271089 -0.115135 0)
(0.0654877 -0.114661 0)
(0.056392 -0.1147 0)
(0.0536155 -0.116239 0)
(0.0548099 -0.113804 0)
(0.060754 -0.110615 0)
(0.069184 -0.107221 0)
(0.0782709 -0.104602 0)
(0.0858378 -0.103063 0)
(0.0913012 -0.102476 0)
(0.0947382 -0.102651 0)
(0.0964472 -0.103306 0)
(0.0966216 -0.104246 0)
(0.0950157 -0.105329 0)
(0.0902517 -0.106485 0)
(0.0783011 -0.107691 0)
(0.0550548 -0.108881 0)
(0.0200272 -0.109825 0)
(-0.0208511 -0.109691 0)
(-0.0565439 -0.108323 0)
(-0.0804704 -0.106754 0)
(-0.0930176 -0.105239 0)
(-0.0983534 -0.103847 0)
(-0.100664 -0.102545 0)
(-0.101531 -0.101302 0)
(-0.10149 -0.100103 0)
(-0.100698 -0.0989325 0)
(-0.0991394 -0.097821 0)
(-0.0965766 -0.0967404 0)
(-0.0926677 -0.0958469 0)
(-0.0874985 -0.0950283 0)
(-0.0816043 -0.0943952 0)
(-0.0756978 -0.0930691 0)
(-0.0631683 -0.0917105 0)
(-0.05083 -0.0911432 0)
(-0.246739 -0.0943067 0)
(-0.596696 -0.0779977 0)
(-0.37404 -0.0805117 0)
(0.4331 -0.0629554 0)
(0.662592 -0.0987144 0)
(0.265593 -0.112287 0)
(0.0648644 -0.113559 0)
(0.0553498 -0.114054 0)
(0.0538677 -0.115444 0)
(0.0573104 -0.113569 0)
(0.0638035 -0.110789 0)
(0.0720217 -0.10758 0)
(0.0802398 -0.105196 0)
(0.0868275 -0.103712 0)
(0.0914914 -0.103242 0)
(0.0943445 -0.103409 0)
(0.0957121 -0.104017 0)
(0.0956984 -0.104847 0)
(0.0939954 -0.105797 0)
(0.0891572 -0.106835 0)
(0.0771517 -0.107994 0)
(0.0539786 -0.109248 0)
(0.0195927 -0.110365 0)
(-0.0201068 -0.11026 0)
(-0.0550801 -0.10878 0)
(-0.0789527 -0.10712 0)
(-0.0916069 -0.105564 0)
(-0.0970612 -0.104173 0)
(-0.0994524 -0.102894 0)
(-0.100377 -0.101691 0)
(-0.10037 -0.100528 0)
(-0.099632 -0.0994276 0)
(-0.0981085 -0.0983225 0)
(-0.0956755 -0.0974003 0)
(-0.0918968 -0.0964971 0)
(-0.0868257 -0.0958449 0)
(-0.0806481 -0.0952301 0)
(-0.0744104 -0.093803 0)
(-0.06255 -0.0927092 0)
(-0.0524325 -0.0930934 0)
(-0.239773 -0.0963644 0)
(-0.58973 -0.077754 0)
(-0.375648 -0.0820169 0)
(0.412493 -0.0564589 0)
(0.634043 -0.0928551 0)
(0.256784 -0.110557 0)
(0.0637852 -0.112112 0)
(0.0545756 -0.112674 0)
(0.0540834 -0.113594 0)
(0.0592957 -0.112159 0)
(0.0665248 -0.109803 0)
(0.0745737 -0.107041 0)
(0.081998 -0.104723 0)
(0.0877207 -0.10359 0)
(0.0915929 -0.103124 0)
(0.0939909 -0.103339 0)
(0.095062 -0.10385 0)
(0.0949064 -0.104554 0)
(0.0930997 -0.105366 0)
(0.0881345 -0.106306 0)
(0.0759764 -0.107458 0)
(0.0527702 -0.108822 0)
(0.0190517 -0.110133 0)
(-0.0193242 -0.110061 0)
(-0.0535177 -0.10847 0)
(-0.0773708 -0.106714 0)
(-0.090178 -0.105117 0)
(-0.0957813 -0.103729 0)
(-0.0982722 -0.102477 0)
(-0.0992512 -0.101303 0)
(-0.0993095 -0.1002 0)
(-0.0985728 -0.0990909 0)
(-0.0971859 -0.0981535 0)
(-0.0948176 -0.0970896 0)
(-0.0911688 -0.0965277 0)
(-0.0862775 -0.0956657 0)
(-0.0796366 -0.0952349 0)
(-0.0732686 -0.0938062 0)
(-0.0624845 -0.0930618 0)
(-0.0543524 -0.0940345 0)
(-0.231958 -0.0970249 0)
(-0.58287 -0.0771374 0)
(-0.378148 -0.0800373 0)
(0.398027 -0.0633601 0)
(0.610461 -0.0898961 0)
(0.247037 -0.109103 0)
(0.0628243 -0.110302 0)
(0.0539214 -0.111079 0)
(0.0543637 -0.111481 0)
(0.0609636 -0.110191 0)
(0.0687359 -0.108277 0)
(0.0769175 -0.105489 0)
(0.0835652 -0.103805 0)
(0.0883684 -0.102551 0)
(0.0917332 -0.102334 0)
(0.0936449 -0.102424 0)
(0.0945411 -0.102857 0)
(0.0942375 -0.103418 0)
(0.0923071 -0.104118 0)
(0.0871412 -0.105002 0)
(0.0747278 -0.106197 0)
(0.0514005 -0.107716 0)
(0.0183981 -0.109224 0)
(-0.0185037 -0.109182 0)
(-0.0518542 -0.107482 0)
(-0.0757219 -0.105623 0)
(-0.0887308 -0.103986 0)
(-0.0945176 -0.102605 0)
(-0.0971146 -0.101381 0)
(-0.0981824 -0.100258 0)
(-0.0982382 -0.099169 0)
(-0.0976602 -0.0982123 0)
(-0.09618 -0.0971368 0)
(-0.0941089 -0.0964602 0)
(-0.0905246 -0.0955626 0)
(-0.0855799 -0.0950122 0)
(-0.0788563 -0.0946235 0)
(-0.0723163 -0.0932586 0)
(-0.06277 -0.093009 0)
(-0.0562515 -0.0943382 0)
(-0.22349 -0.0968852 0)
(-0.57336 -0.076922 0)
(-0.378442 -0.0781013 0)
(0.386922 -0.0642263 0)
(0.589963 -0.0857723 0)
(0.23712 -0.106367 0)
(0.0618814 -0.107939 0)
(0.0534393 -0.109256 0)
(0.0549392 -0.109252 0)
(0.0623838 -0.107593 0)
(0.0710553 -0.105815 0)
(0.078883 -0.103394 0)
(0.0848295 -0.101677 0)
(0.0891377 -0.10094 0)
(0.0917159 -0.100529 0)
(0.0934872 -0.100635 0)
(0.0941036 -0.10089 0)
(0.0936914 -0.101339 0)
(0.0915729 -0.101955 0)
(0.0861306 -0.102828 0)
(0.0733613 -0.104108 0)
(0.049854 -0.105811 0)
(0.017639 -0.107503 0)
(-0.017646 -0.107485 0)
(-0.050088 -0.105678 0)
(-0.0740014 -0.103711 0)
(-0.0872697 -0.102037 0)
(-0.0932711 -0.100673 0)
(-0.0960106 -0.0994979 0)
(-0.0971199 -0.0984245 0)
(-0.097338 -0.0974607 0)
(-0.0966145 -0.0964719 0)
(-0.0954975 -0.0957227 0)
(-0.0933007 -0.0946944 0)
(-0.0897735 -0.0942011 0)
(-0.0853725 -0.0934 0)
(-0.0779467 -0.0929467 0)
(-0.0717128 -0.0921477 0)
(-0.0635249 -0.0920098 0)
(-0.0580877 -0.0934298 0)
(-0.215175 -0.0952391 0)
(-0.564769 -0.0752746 0)
(-0.379284 -0.0747814 0)
(0.377265 -0.06546 0)
(0.569853 -0.0828416 0)
(0.225677 -0.10466 0)
(0.060041 -0.107247 0)
(0.0526559 -0.108039 0)
(0.0559659 -0.106876 0)
(0.0642753 -0.104603 0)
(0.072782 -0.102362 0)
(0.0809055 -0.100358 0)
(0.0859301 -0.0989772 0)
(0.0894745 -0.0981131 0)
(0.0920275 -0.0977374 0)
(0.0932973 -0.0976032 0)
(0.0938621 -0.0977283 0)
(0.0932112 -0.0980434 0)
(0.0908721 -0.0985984 0)
(0.0850662 -0.0994836 0)
(0.0718542 -0.100866 0)
(0.0481291 -0.102757 0)
(0.0167841 -0.104615 0)
(-0.0167458 -0.104614 0)
(-0.0482171 -0.102701 0)
(-0.0722125 -0.100627 0)
(-0.0858031 -0.098928 0)
(-0.0920713 -0.0976076 0)
(-0.0949479 -0.0965146 0)
(-0.0962192 -0.0955662 0)
(-0.0963566 -0.0947075 0)
(-0.0959855 -0.093958 0)
(-0.0944671 -0.0932381 0)
(-0.0926426 -0.0925279 0)
(-0.0892773 -0.0919965 0)
(-0.0843712 -0.0910382 0)
(-0.0776495 -0.0909869 0)
(-0.0714135 -0.0901927 0)
(-0.0640055 -0.0907263 0)
(-0.0593634 -0.0923908 0)
(-0.205995 -0.09363 0)
(-0.553646 -0.0748703 0)
(-0.377967 -0.0716112 0)
(0.370173 -0.0653225 0)
(0.552188 -0.0776578 0)
(0.213602 -0.10117 0)
(0.0586256 -0.105106 0)
(0.0537969 -0.10424 0)
(0.0582505 -0.10216 0)
(0.0667342 -0.0987851 0)
(0.0751454 -0.0973557 0)
(0.0821444 -0.0950282 0)
(0.0869931 -0.0944086 0)
(0.0903324 -0.0934078 0)
(0.0922073 -0.0931882 0)
(0.093496 -0.0929763 0)
(0.0936794 -0.0930328 0)
(0.0928529 -0.0932694 0)
(0.090185 -0.0937778 0)
(0.0839457 -0.0946711 0)
(0.0702071 -0.0961444 0)
(0.0462412 -0.0982054 0)
(0.0158498 -0.100198 0)
(-0.0158015 -0.100204 0)
(-0.0462462 -0.098197 0)
(-0.0703658 -0.0960277 0)
(-0.0843603 -0.0943284 0)
(-0.0909455 -0.093088 0)
(-0.0940434 -0.0921127 0)
(-0.0953785 -0.0912918 0)
(-0.0957883 -0.0905305 0)
(-0.0951986 -0.0898991 0)
(-0.0941195 -0.0890948 0)
(-0.0921042 -0.0886937 0)
(-0.0883379 -0.0876359 0)
(-0.0843997 -0.0872742 0)
(-0.077132 -0.0863925 0)
(-0.0714616 -0.0862818 0)
(-0.0656431 -0.0870896 0)
(-0.0608857 -0.0888076 0)
(-0.198291 -0.0892617 0)
(-0.543551 -0.0705488 0)
(-0.376144 -0.066459 0)
(0.365378 -0.0649358 0)
(0.535309 -0.0744731 0)
(0.199227 -0.0992371 0)
(0.0570824 -0.102578 0)
(0.0554945 -0.100301 0)
(0.0612222 -0.0960878 0)
(0.0689048 -0.0928402 0)
(0.0764023 -0.090411 0)
(0.0837454 -0.0894353 0)
(0.0874916 -0.0879588 0)
(0.0906505 -0.0877054 0)
(0.0924434 -0.0871555 0)
(0.0934471 -0.0871395 0)
(0.0935796 -0.0871653 0)
(0.0924933 -0.0874064 0)
(0.0895214 -0.087881 0)
(0.0827857 -0.0887604 0)
(0.0684483 -0.0902853 0)
(0.0442232 -0.092483 0)
(0.0148578 -0.0945806 0)
(-0.0148179 -0.0945894 0)
(-0.0441923 -0.0924981 0)
(-0.0684846 -0.09025 0)
(-0.0829703 -0.0885854 0)
(-0.0899361 -0.0874597 0)
(-0.093217 -0.086622 0)
(-0.0946945 -0.0858926 0)
(-0.0950146 -0.0852534 0)
(-0.094602 -0.0845003 0)
(-0.0933055 -0.0841573 0)
(-0.0912368 -0.0831938 0)
(-0.0879094 -0.0832707 0)
(-0.083173 -0.0820463 0)
(-0.0766932 -0.0818751 0)
(-0.0720853 -0.0821789 0)
(-0.0664394 -0.0836064 0)
(-0.0614564 -0.085671 0)
(-0.188401 -0.0857671 0)
(-0.531673 -0.0681914 0)
(-0.374026 -0.0615392 0)
(0.360982 -0.063028 0)
(0.519134 -0.0726849 0)
(0.186519 -0.0971462 0)
(0.0576004 -0.0985194 0)
(0.0600513 -0.0949159 0)
(0.0654401 -0.0879414 0)
(0.0722046 -0.0852355 0)
(0.0784265 -0.0816569 0)
(0.0845074 -0.0809933 0)
(0.0886601 -0.080034 0)
(0.0911066 -0.079718 0)
(0.0927526 -0.0798558 0)
(0.0934866 -0.0802344 0)
(0.0934223 -0.0808647 0)
(0.0921632 -0.0815689 0)
(0.0888803 -0.0823539 0)
(0.0816288 -0.0833657 0)
(0.0666198 -0.0849496 0)
(0.0421021 -0.0872285 0)
(0.01382 -0.0893716 0)
(-0.0137947 -0.089379 0)
(-0.0420646 -0.0872499 0)
(-0.0665954 -0.0849587 0)
(-0.0816715 -0.0833049 0)
(-0.0890536 -0.082142 0)
(-0.0925332 -0.0811058 0)
(-0.0940597 -0.0800365 0)
(-0.0944466 -0.0789112 0)
(-0.0941424 -0.0779065 0)
(-0.0928606 -0.0769515 0)
(-0.0912498 -0.0763807 0)
(-0.0872321 -0.0759596 0)
(-0.0830548 -0.0753752 0)
(-0.0772597 -0.076103 0)
(-0.07313 -0.0768343 0)
(-0.0690082 -0.0795531 0)
(-0.0629678 -0.0824555 0)
(-0.181447 -0.0824817 0)
(-0.520204 -0.0653545 0)
(-0.369733 -0.055332 0)
(0.356072 -0.0614363 0)
(0.502432 -0.0705837 0)
(0.174332 -0.0937449 0)
(0.0592317 -0.0940904 0)
(0.0656879 -0.0900084 0)
(0.0705506 -0.0824956 0)
(0.0749607 -0.079467 0)
(0.0804902 -0.0759481 0)
(0.0853093 -0.0747669 0)
(0.0887205 -0.073816 0)
(0.0908223 -0.0735314 0)
(0.0919458 -0.0736965 0)
(0.0924749 -0.0743025 0)
(0.0922937 -0.0752874 0)
(0.0910582 -0.0765168 0)
(0.0877899 -0.077797 0)
(0.0802844 -0.079104 0)
(0.064726 -0.0808103 0)
(0.0399621 -0.0831686 0)
(0.0127855 -0.0853534 0)
(-0.0127734 -0.0853581 0)
(-0.0399327 -0.0831867 0)
(-0.0646831 -0.0808361 0)
(-0.0802561 -0.0791078 0)
(-0.087817 -0.0777261 0)
(-0.0911881 -0.0762982 0)
(-0.0925797 -0.0748311 0)
(-0.0929621 -0.0734985 0)
(-0.0927135 -0.0724343 0)
(-0.0918352 -0.0716429 0)
(-0.0902809 -0.0712566 0)
(-0.0869405 -0.0710539 0)
(-0.0833112 -0.0715072 0)
(-0.0780993 -0.0725735 0)
(-0.0754099 -0.074708 0)
(-0.0718561 -0.0780432 0)
(-0.0642785 -0.0810778 0)
(-0.171921 -0.0803457 0)
(-0.50551 -0.0627124 0)
(-0.364368 -0.0507729 0)
(0.352167 -0.0496937 0)
(0.488 -0.0655586 0)
(0.163867 -0.0863862 0)
(0.0612011 -0.0875991 0)
(0.0712245 -0.0842321 0)
(0.0755982 -0.0778201 0)
(0.078514 -0.0746789 0)
(0.0829556 -0.0705195 0)
(0.086562 -0.0693557 0)
(0.0898508 -0.0670333 0)
(0.0912217 -0.065836 0)
(0.0920095 -0.0645595 0)
(0.0919536 -0.0638257 0)
(0.0912885 -0.0636791 0)
(0.0897449 -0.0643214 0)
(0.0863872 -0.0657879 0)
(0.0787251 -0.067904 0)
(0.062703 -0.0705411 0)
(0.0377243 -0.0733267 0)
(0.0117101 -0.0753926 0)
(-0.0117069 -0.0753949 0)
(-0.037707 -0.073338 0)
(-0.0626648 -0.0705664 0)
(-0.0786746 -0.0679344 0)
(-0.0863462 -0.0657968 0)
(-0.0897435 -0.0642638 0)
(-0.0913617 -0.0634925 0)
(-0.092137 -0.0634264 0)
(-0.0923543 -0.0638613 0)
(-0.0917256 -0.0646945 0)
(-0.0906822 -0.0654118 0)
(-0.0874736 -0.0668612 0)
(-0.0845192 -0.067526 0)
(-0.0803442 -0.0698826 0)
(-0.0784009 -0.0723423 0)
(-0.0751463 -0.075663 0)
(-0.0651866 -0.0777906 0)
(-0.16375 -0.0752769 0)
(-0.491707 -0.0587822 0)
(-0.358228 -0.038234 0)
(0.340784 -0.00744076 0)
(0.467073 -0.0463865 0)
(0.153093 -0.0647904 0)
(0.0613075 -0.069529 0)
(0.0751113 -0.0698524 0)
(0.0797564 -0.0672788 0)
(0.0819959 -0.0658086 0)
(0.0856198 -0.063321 0)
(0.0886687 -0.0624101 0)
(0.0921123 -0.0601161 0)
(0.0932062 -0.0582027 0)
(0.093883 -0.0557449 0)
(0.0933233 -0.0532781 0)
(0.091816 -0.0509063 0)
(0.0890261 -0.0490711 0)
(0.0843375 -0.0483905 0)
(0.075704 -0.0496749 0)
(0.0595005 -0.0521576 0)
(0.035287 -0.0552815 0)
(0.0107925 -0.0576815 0)
(-0.0107935 -0.0576821 0)
(-0.0352798 -0.0552861 0)
(-0.059476 -0.052173 0)
(-0.0756599 -0.0497026 0)
(-0.0842798 -0.0484228 0)
(-0.0889675 -0.0490883 0)
(-0.0917728 -0.0508739 0)
(-0.0933175 -0.0531494 0)
(-0.0939356 -0.055467 0)
(-0.0933292 -0.0576893 0)
(-0.0923688 -0.0593386 0)
(-0.0889779 -0.0611369 0)
(-0.0862227 -0.0617592 0)
(-0.0827404 -0.0632503 0)
(-0.0809802 -0.0642547 0)
(-0.0771064 -0.0651019 0)
(-0.0639064 -0.0636573 0)
(-0.153604 -0.0576201 0)
(-0.469814 -0.0413126 0)
(-0.344567 0.00237547 0)
(0.314638 -0.0693297 0)
(0.432736 -0.136701 0)
(0.141566 -0.148171 0)
(0.0563231 -0.159392 0)
(0.0733929 -0.169429 0)
(0.0794949 -0.176964 0)
(0.0823278 -0.186974 0)
(0.0862305 -0.19379 0)
(0.0896503 -0.203978 0)
(0.0939053 -0.212007 0)
(0.0954339 -0.22152 0)
(0.0967549 -0.230382 0)
(0.0966162 -0.239278 0)
(0.0953425 -0.247339 0)
(0.0921692 -0.254287 0)
(0.0858054 -0.25986 0)
(0.0750949 -0.26443 0)
(0.0573003 -0.269169 0)
(0.0324012 -0.274465 0)
(0.00939685 -0.278062 0)
(-0.00939858 -0.278062 0)
(-0.0323983 -0.274466 0)
(-0.0572843 -0.269179 0)
(-0.0750607 -0.264455 0)
(-0.0857543 -0.2599 0)
(-0.0921054 -0.254334 0)
(-0.0952751 -0.247374 0)
(-0.0965631 -0.239272 0)
(-0.0967291 -0.230298 0)
(-0.0954564 -0.221312 0)
(-0.0940044 -0.21165 0)
(-0.0898062 -0.203364 0)
(-0.0865557 -0.193002 0)
(-0.082749 -0.185701 0)
(-0.0801851 -0.175426 0)
(-0.0745706 -0.167062 0)
(-0.0579768 -0.156248 0)
(-0.142218 -0.144072 0)
(-0.433893 -0.134065 0)
(-0.316129 -0.06548 0)
(0.275863 -0.292131 0)
(0.391099 -0.410817 0)
(0.131227 -0.455256 0)
(0.0408227 -0.490624 0)
(0.0581781 -0.513687 0)
(0.062849 -0.527558 0)
(0.0657813 -0.543049 0)
(0.0692343 -0.55482 0)
(0.0711146 -0.56769 0)
(0.0752082 -0.578472 0)
(0.0754992 -0.590483 0)
(0.0767706 -0.599541 0)
(0.0769822 -0.609516 0)
(0.0773534 -0.616974 0)
(0.0769612 -0.624505 0)
(0.0745628 -0.632289 0)
(0.066733 -0.642681 0)
(0.0498307 -0.657684 0)
(0.0267176 -0.672896 0)
(0.00732637 -0.680777 0)
(-0.00732841 -0.680776 0)
(-0.0267199 -0.672895 0)
(-0.0498286 -0.657687 0)
(-0.0667183 -0.642697 0)
(-0.0745267 -0.632328 0)
(-0.0768974 -0.624575 0)
(-0.0772593 -0.617078 0)
(-0.0768625 -0.609649 0)
(-0.0766284 -0.599688 0)
(-0.0753585 -0.590623 0)
(-0.0750732 -0.578566 0)
(-0.0710083 -0.567687 0)
(-0.0692021 -0.554699 0)
(-0.0658037 -0.542641 0)
(-0.0630194 -0.526915 0)
(-0.0586261 -0.512472 0)
(-0.0417522 -0.488649 0)
(-0.132228 -0.452304 0)
(-0.39408 -0.408167 0)
(-0.278475 -0.288319 0)
(0.200268 -0.212715 0)
(0.275543 -0.291163 0)
(0.064661 -0.332632 0)
(1.69245e-05 -0.360241 0)
(0.0378026 -0.374977 0)
(0.0512007 -0.381386 0)
(0.0560566 -0.387065 0)
(0.0624852 -0.391477 0)
(0.0668588 -0.394069 0)
(0.0719411 -0.395894 0)
(0.0751306 -0.397459 0)
(0.0784147 -0.396276 0)
(0.0798172 -0.395753 0)
(0.0808981 -0.393334 0)
(0.0774114 -0.392075 0)
(0.0682905 -0.392867 0)
(0.0506238 -0.398584 0)
(0.028184 -0.409584 0)
(0.0101478 -0.421047 0)
(0.00180317 -0.426779 0)
(-0.0018033 -0.426779 0)
(-0.0101482 -0.421046 0)
(-0.0281848 -0.409582 0)
(-0.0506246 -0.398585 0)
(-0.0682905 -0.392881 0)
(-0.0774092 -0.392113 0)
(-0.0808921 -0.393412 0)
(-0.0798055 -0.395883 0)
(-0.0783956 -0.396466 0)
(-0.0751027 -0.397717 0)
(-0.0719019 -0.3962 0)
(-0.0668071 -0.394426 0)
(-0.0624207 -0.391841 0)
(-0.0559756 -0.387389 0)
(-0.0511127 -0.381642 0)
(-0.0376957 -0.375033 0)
(2.95454e-06 -0.359922 0)
(-0.0646622 -0.331702 0)
(-0.275871 -0.289806 0)
(-0.200639 -0.209033 0)
(0.200268 0.212715 0)
(0.275543 0.291163 0)
(0.064661 0.332632 0)
(1.69245e-05 0.360241 0)
(0.0378026 0.374977 0)
(0.0512007 0.381386 0)
(0.0560566 0.387065 0)
(0.0624852 0.391477 0)
(0.0668588 0.394069 0)
(0.0719411 0.395894 0)
(0.0751306 0.397459 0)
(0.0784147 0.396276 0)
(0.0798172 0.395753 0)
(0.0808981 0.393334 0)
(0.0774114 0.392075 0)
(0.0682905 0.392867 0)
(0.0506238 0.398584 0)
(0.028184 0.409584 0)
(0.0101478 0.421047 0)
(0.00180317 0.426779 0)
(-0.0018033 0.426779 0)
(-0.0101482 0.421046 0)
(-0.0281848 0.409582 0)
(-0.0506246 0.398585 0)
(-0.0682905 0.392881 0)
(-0.0774092 0.392113 0)
(-0.0808921 0.393412 0)
(-0.0798055 0.395883 0)
(-0.0783956 0.396466 0)
(-0.0751027 0.397717 0)
(-0.0719019 0.3962 0)
(-0.0668071 0.394426 0)
(-0.0624207 0.391841 0)
(-0.0559756 0.387389 0)
(-0.0511127 0.381642 0)
(-0.0376957 0.375033 0)
(2.95454e-06 0.359922 0)
(-0.0646622 0.331702 0)
(-0.275871 0.289806 0)
(-0.200639 0.209033 0)
(0.275863 0.292131 0)
(0.391099 0.410817 0)
(0.131227 0.455256 0)
(0.0408227 0.490624 0)
(0.0581781 0.513687 0)
(0.062849 0.527558 0)
(0.0657813 0.543049 0)
(0.0692343 0.55482 0)
(0.0711146 0.56769 0)
(0.0752082 0.578472 0)
(0.0754992 0.590483 0)
(0.0767706 0.599541 0)
(0.0769822 0.609516 0)
(0.0773534 0.616974 0)
(0.0769612 0.624505 0)
(0.0745628 0.632289 0)
(0.066733 0.642681 0)
(0.0498307 0.657684 0)
(0.0267176 0.672896 0)
(0.00732637 0.680777 0)
(-0.00732841 0.680776 0)
(-0.0267199 0.672895 0)
(-0.0498286 0.657687 0)
(-0.0667183 0.642697 0)
(-0.0745267 0.632328 0)
(-0.0768974 0.624575 0)
(-0.0772593 0.617078 0)