/*--------------------------------*- C++ -*----------------------------------*\
| =========                 |                                                 |
| \\      /  F ield         | OpenFOAM: The Open Source CFD Toolbox           |
|  \\    /   O peration     | Version:  v1912                                 |
|   \\  /    A nd           | Website:  www.openfoam.com                      |
|    \\/     M anipulation  |                                                 |
\*---------------------------------------------------------------------------*/
FoamFile
{
    version     2.0;
    format      ascii;
    class       volVectorField;
    location    "8.12";
    object      grad(T);
}
// * * * * * * * * * * * * * * * * * * * * * * * * * * * * * * * * * * * * * //

dimensions      [0 -1 0 1 0 0 0];


internalField   nonuniform List<vector> 
1900
(
(1.49341 4.62705e-06 0)
(-1.59816 9.64811e-06 0)
(-0.518655 -1.03036e-06 0)
(-0.119907 -2.72528e-05 0)
(-0.00285555 -4.60738e-05 0)
(0.0516088 8.64357e-06 0)
(0.0836569 0.000321658 0)
(0.0763345 0.000308759 0)
(0.0445682 0.00120786 0)
(0.0453424 -0.00259721 0)
(1.49342 9.63644e-06 0)
(-1.59817 1.76969e-05 0)
(-0.518692 -6.35566e-06 0)
(-0.119953 -3.58116e-05 0)
(-0.00281965 -3.83486e-05 0)
(0.0519765 6.0426e-05 0)
(0.083957 0.000332138 0)
(0.0772207 -0.000261628 0)
(0.0416622 -0.000687491 0)
(0.00989924 -0.00583407 0)
(1.49344 -6.57027e-13 0)
(-1.59818 -5.18249e-13 0)
(-0.518709 -5.38848e-13 0)
(-0.119939 -3.98986e-13 0)
(-0.00275931 -3.84892e-13 0)
(0.0519793 -2.11419e-13 0)
(0.0833349 1.00831e-13 0)
(0.0753149 2.81893e-14 0)
(0.0389957 -1.84314e-14 0)
(0.00599013 -5.42101e-15 0)
(1.49342 -9.63644e-06 0)
(-1.59817 -1.76969e-05 0)
(-0.518692 6.35566e-06 0)
(-0.119953 3.58116e-05 0)
(-0.00281965 3.83486e-05 0)
(0.0519765 -6.0426e-05 0)
(0.083957 -0.000332138 0)
(0.0772207 0.000261628 0)
(0.0416622 0.000687491 0)
(0.00989924 0.00583407 0)
(1.49341 -4.62705e-06 0)
(-1.59816 -9.64811e-06 0)
(-0.518655 1.03036e-06 0)
(-0.119907 2.72528e-05 0)
(-0.00285555 4.60738e-05 0)
(0.0516088 -8.64357e-06 0)
(0.0836569 -0.000321658 0)
(0.0763345 -0.000308759 0)
(0.0445682 -0.00120786 0)
(0.0453424 0.00259721 0)
(0.00638505 -0.0300354 9.429e-16)
(-0.0145384 -0.0223582 -1.13026e-15)
(0.0959183 -0.034053 -1.43509e-15)
(0.379969 -0.0631134 0)
(-0.519591 -0.321617 -6.46138e-15)
(-0.00953164 -0.0357621 9.37472e-16)
(-0.000494331 -0.0254143 1.13026e-15)
(0.0792926 -0.0398467 1.43509e-15)
(0.274556 -0.0626746 0)
(-0.451307 -0.349951 0)
(-0.0188652 -1.17848e-14 0)
(-0.00556665 -4.04198e-14 0)
(0.0699328 -3.61401e-14 0)
(0.244137 -4.10683e-15 0)
(-0.584518 0 0)
(-0.00953164 0.0357621 9.37472e-16)
(-0.000494331 0.0254143 1.13026e-15)
(0.0792926 0.0398467 1.43509e-15)
(0.274556 0.0626746 0)
(-0.451307 0.349951 0)
(0.00638505 0.0300354 -2.81784e-15)
(-0.0145384 0.0223582 -1.13026e-15)
(0.0959183 0.034053 -1.43509e-15)
(0.379969 0.0631134 -3.95387e-15)
(-0.519591 0.321617 6.46138e-15)
(-1.87845 0.453201 2.18506e-15)
(-0.961869 0.316124 -1.58007e-15)
(-0.59081 0.215988 0)
(-0.410246 0.197033 1.01247e-15)
(-0.308822 0.0755351 -4.25455e-16)
(-1.67474 0.452539 -1.09936e-15)
(-1.00303 0.2088 7.94793e-16)
(-0.609041 0.112219 0)
(-0.453657 0.127397 -6.37459e-16)
(-0.292005 -0.0471865 1.06577e-16)
(-1.72846 1.0404e-13 0)
(-1.05953 1.20467e-13 0)
(-0.620523 3.61401e-14 0)
(-0.486888 -2.83452e-14 2.56518e-16)
(-0.280517 2.25083e-13 -2.13155e-16)
(-1.67474 -0.452539 -1.09936e-15)
(-1.00303 -0.2088 7.94793e-16)
(-0.609041 -0.112219 0)
(-0.453657 -0.127397 -6.37459e-16)
(-0.292005 0.0471865 1.06577e-16)
(-1.87845 -0.453201 1.09936e-15)
(-0.961869 -0.316124 -9.52061e-18)
(-0.59081 -0.215988 0)
(-0.410246 -0.197033 5.93398e-18)
(-0.308822 -0.0755351 4.25455e-16)
(-0.207158 0.798094 0)
(-0.100815 0.93046 0)
(-0.0549766 0.956685 0)
(-0.0402403 0.894868 0)
(-0.0390405 0.792384 0)
(-0.0463653 0.670283 0)
(-0.0797578 0.572505 0)
(-0.0776969 0.463292 0)
(-0.0106986 0.380537 0)
(0.158538 0.365836 0)
(0.368729 0.361969 0)
(0.334053 0.366076 0)
(0.15205 0.276744 0)
(0.0782452 0.167374 0)
(0.0474989 0.065527 0)
(-0.00461601 0.0336122 0)
(-0.0832499 0.0331725 0)
(-0.174563 0.0392304 0)
(-0.201911 0.02267 0)
(-0.168721 0.00730401 0)
(-0.16789 0.00219818 0)
(-0.24064 0.00792 0)
(-0.327645 0.0149152 0)
(-0.270895 0.0108785 0)
(-0.109613 0.00148702 0)
(-0.027247 -0.000215757 0)
(-0.0165403 -0.000148642 0)
(-0.0143704 -0.000248397 0)
(-0.00227795 -0.000330896 0)
(0.0829882 -0.000447387 0)
(0.267077 -7.62177e-05 0)
(0.299394 5.65942e-05 0)
(0.158554 -0.000226535 0)
(0.0901717 -0.000385146 0)
(0.0986847 -0.000597323 0)
(0.111225 -0.000564256 0)
(0.0887411 -0.00043484 0)
(0.0415222 -0.00106837 0)
(-0.000646681 -0.00155991 0)
(-0.00899235 -0.00199422 0)
(-0.0856241 0.240432 0)
(-0.0176547 0.505467 0)
(-0.0434255 0.640036 0)
(-0.0693985 0.659252 0)
(-0.0845422 0.606897 0)
(-0.0886135 0.494299 0)
(-0.11257 0.404726 0)
(-0.106306 0.320713 0)
(-0.0252928 0.254739 0)
(0.163795 0.246963 0)
(0.372762 0.253176 0)
(0.318245 0.252685 0)
(0.123972 0.197573 0)
(0.0497793 0.125346 0)
(0.0279653 0.0628368 0)
(-0.0117837 0.0291621 0)
(-0.0846214 0.0214736 0)
(-0.178415 0.0386841 0)
(-0.206697 0.0539634 0)
(-0.170268 0.0422964 0)
(-0.16694 0.0186424 0)
(-0.238866 0.00985608 0)
(-0.328252 0.00652764 0)
(-0.273112 0.0030989 0)
(-0.110842 0.000442871 0)
(-0.0273903 -0.000121357 0)
(-0.0165344 -5.52614e-05 0)
(-0.0143886 -9.48238e-05 0)
(-0.00229662 -0.000146121 0)
(0.0829913 -0.000187726 0)
(0.267099 -9.68784e-05 0)
(0.299385 -4.32409e-05 0)
(0.158515 -0.000203481 0)
(0.0901114 -0.000310553 0)
(0.0986359 -0.000501821 0)
(0.111219 -0.000530085 0)
(0.0886965 -0.000472326 0)
(0.0414281 -0.000672594 0)
(-0.000710422 -0.00104077 0)
(-0.0090085 -0.0013669 0)
(-0.0290448 1.37989e-14 0)
(0.0154339 2.08955e-13 0)
(-0.0102392 -1.55731e-13 0)
(-0.0498809 -6.28837e-13 0)
(-0.0870266 -6.82062e-13 0)
(-0.105179 -5.36187e-13 0)
(-0.130256 -4.04112e-13 0)
(-0.12133 -2.79921e-13 0)
(-0.0321531 -3.35117e-13 0)
(0.158083 -2.1684e-13 0)
(0.370394 -2.72036e-13 0)
(0.317878 2.52323e-13 0)
(0.115006 2.56266e-13 0)
(0.0390491 5.69699e-13 0)
(0.0195181 7.35286e-13 0)
(-0.016649 1.5376e-13 0)
(-0.0804798 -1.50014e-12 0)
(-0.165112 -1.55928e-12 0)
(-0.20086 -9.83667e-13 0)
(-0.178996 -1.66573e-12 0)
(-0.177328 -1.33258e-12 0)
(-0.244164 6.22923e-13 0)
(-0.32961 4.80992e-13 0)
(-0.272665 -1.22219e-13 0)
(-0.11055 -2.75979e-13 0)
(-0.0273919 4.21853e-13 0)
(-0.0165326 -1.36018e-13 0)
(-0.0143969 3.04562e-13 0)
(-0.00230498 6.77134e-13 0)
(0.0830026 -5.12532e-14 0)
(0.267119 1.22219e-12 0)
(0.299363 -7.15573e-13 0)
(0.158476 -1.19854e-12 0)
(0.0900849 -3.78485e-13 0)
(0.0986208 -2.20783e-13 0)
(0.111233 -8.87075e-14 0)
(0.0886996 -1.10391e-13 0)
(0.0413568 -4.39595e-13 0)
(-0.000848661 -5.10561e-13 0)
(-0.00908723 -4.77049e-13 0)
(-0.0856241 -0.240432 0)
(-0.0176547 -0.505467 0)
(-0.0434255 -0.640036 0)
(-0.0693985 -0.659252 0)
(-0.0845422 -0.606897 0)
(-0.0886135 -0.494299 0)
(-0.11257 -0.404726 0)
(-0.106306 -0.320713 0)
(-0.0252928 -0.254739 0)
(0.163795 -0.246963 0)
(0.372762 -0.253176 0)
(0.318245 -0.252685 0)
(0.123972 -0.197573 0)
(0.0497793 -0.125346 0)
(0.0279653 -0.0628368 0)
(-0.0117837 -0.0291621 0)
(-0.0846214 -0.0214736 0)
(-0.178415 -0.0386841 0)
(-0.206697 -0.0539634 0)
(-0.170268 -0.0422964 0)
(-0.16694 -0.0186424 0)
(-0.238866 -0.00985608 0)
(-0.328252 -0.00652764 0)
(-0.273112 -0.0030989 0)
(-0.110842 -0.000442871 0)
(-0.0273903 0.000121357 0)
(-0.0165344 5.52614e-05 0)
(-0.0143886 9.48238e-05 0)
(-0.00229662 0.000146121 0)
(0.0829913 0.000187726 0)
(0.267099 9.68784e-05 0)
(0.299385 4.32409e-05 0)
(0.158515 0.000203481 0)
(0.0901114 0.000310553 0)
(0.0986359 0.000501821 0)
(0.111219 0.000530085 0)
(0.0886965 0.000472326 0)
(0.0414281 0.000672594 0)
(-0.000710422 0.00104077 0)
(-0.0090085 0.0013669 0)
(-0.207158 -0.798094 0)
(-0.100815 -0.93046 0)
(-0.0549766 -0.956685 0)
(-0.0402403 -0.894868 0)
(-0.0390405 -0.792384 0)
(-0.0463653 -0.670283 0)
(-0.0797578 -0.572505 0)
(-0.0776969 -0.463292 0)
(-0.0106986 -0.380537 0)
(0.158538 -0.365836 0)
(0.368729 -0.361969 0)
(0.334053 -0.366076 0)
(0.15205 -0.276744 0)
(0.0782452 -0.167374 0)
(0.0474989 -0.065527 0)
(-0.00461601 -0.0336122 0)
(-0.0832499 -0.0331725 0)
(-0.174563 -0.0392304 0)
(-0.201911 -0.02267 0)
(-0.168721 -0.00730401 0)
(-0.16789 -0.00219818 0)
(-0.24064 -0.00792 0)
(-0.327645 -0.0149152 0)
(-0.270895 -0.0108785 0)
(-0.109613 -0.00148702 0)
(-0.027247 0.000215757 0)
(-0.0165403 0.000148642 0)
(-0.0143704 0.000248397 0)
(-0.00227795 0.000330896 0)
(0.0829882 0.000447387 0)
(0.267077 7.62177e-05 0)
(0.299394 -5.65942e-05 0)
(0.158554 0.000226535 0)
(0.0901717 0.000385146 0)
(0.0986847 0.000597323 0)
(0.111225 0.000564256 0)
(0.0887411 0.00043484 0)
(0.0415222 0.00106837 0)
(-0.000646681 0.00155991 0)
(-0.00899235 0.00199422 0)
(-0.0134302 -0.784921 0)
(-0.0209805 -0.694612 0)
(-0.00774362 -0.650362 0)
(-5.11885e-05 -0.616896 0)
(0.00372248 -0.580758 0)
(0.00046072 -0.537685 0)
(-0.0206687 -0.487359 0)
(-0.0189698 -0.404056 0)
(0.0189639 -0.344288 0)
(0.181521 -0.307051 0)
(0.377275 -0.252803 0)
(0.353427 -0.293028 0)
(0.216146 -0.240447 0)
(0.149356 -0.164157 0)
(0.0892846 -0.078832 0)
(0.000223845 -0.0528205 0)
(-0.0897314 -0.0559801 0)
(-0.17628 -0.0594949 0)
(-0.192204 -0.0432878 0)
(-0.159215 -0.0233337 0)
(-0.166227 -0.0175495 0)
(-0.244792 -0.0201576 0)
(-0.33081 -0.0259716 0)
(-0.267253 -0.0176027 0)
(-0.105303 -0.00235073 0)
(-0.0265299 0.000325511 0)
(-0.0165071 0.000290783 0)
(-0.0142952 0.000470259 0)
(-0.00219339 0.000584216 0)
(0.0828351 0.000828256 0)
(0.266809 -6.68958e-05 0)
(0.29947 -0.000334307 0)
(0.158748 0.00029874 0)
(0.0902743 0.000606215 0)
(0.0986919 0.000802007 0)
(0.111111 0.00074065 0)
(0.0889611 0.000388823 0)
(0.042025 0.000867581 0)
(-0.000203361 0.00132355 0)
(-0.00875473 0.00194309 0)
(-0.00733766 -0.233143 0)
(-0.0139584 -0.210891 0)
(-0.00541446 -0.197545 0)
(0.00528133 -0.197593 0)
(0.0143591 -0.199077 0)
(0.0185281 -0.206604 0)
(0.0173274 -0.203314 0)
(0.0286806 -0.176947 0)
(0.0668723 -0.157183 0)
(0.234371 -0.120532 0)
(0.37766 -0.106822 0)
(0.335571 -0.159301 0)
(0.241865 -0.155359 0)
(0.195851 -0.124641 0)
(0.13238 -0.0890955 0)
(0.0148096 -0.0843723 0)
(-0.086206 -0.0923552 0)
(-0.161412 -0.0888681 0)
(-0.17227 -0.0615874 0)
(-0.149015 -0.0403124 0)
(-0.165722 -0.0378397 0)
(-0.246529 -0.043736 0)
(-0.323485 -0.0465606 0)
(-0.250087 -0.0254298 0)
(-0.0946482 -0.0028643 0)
(-0.025086 0.000592421 0)
(-0.0164186 0.000558913 0)
(-0.014128 0.000778034 0)
(-0.00197831 0.000933131 0)
(0.0824429 0.00133481 0)
(0.2661 -2.50525e-05 0)
(0.299705 -0.000504438 0)
(0.159356 0.000425354 0)
(0.0906016 0.000950294 0)
(0.0988103 0.00130026 0)
(0.110888 0.00130978 0)
(0.0887454 0.000902885 0)
(0.0421533 0.000661175 0)
(0.000151992 0.000938919 0)
(-0.00852276 0.00161806 0)
(0.00801263 -0.00737583 0)
(0.0133233 -0.00029376 0)
(0.00507121 0.00636808 0)
(-0.00152808 0.00295096 0)
(-0.00496095 -0.00625792 0)
(-0.0036221 -0.0300767 0)
(0.00790954 -0.0363415 0)
(0.0254839 -0.0226111 0)
(0.0733276 -0.0120523 0)
(0.230051 0.0244628 0)
(0.339916 -0.0207624 0)
(0.306654 -0.0555997 0)
(0.249546 -0.0564778 0)
(0.21321 -0.0320062 0)
(0.128089 -0.0441591 0)
(-0.00291737 -0.0795477 0)
(-0.0940636 -0.101962 0)
(-0.146631 -0.100305 0)
(-0.145414 -0.0697869 0)
(-0.136331 -0.0493632 0)
(-0.169526 -0.0494818 0)
(-0.253196 -0.0586411 0)
(-0.31317 -0.0611262 0)
(-0.225145 -0.0302696 0)
(-0.0802273 -0.00284092 0)
(-0.0232312 0.000998109 0)
(-0.0163282 0.000969458 0)
(-0.0139346 0.0012092 0)
(-0.00165686 0.00142738 0)
(0.0819118 0.00197885 0)
(0.265037 0.000418575 0)
(0.299904 -0.000145452 0)
(0.16015 0.000901253 0)
(0.0911174 0.00148169 0)
(0.0990384 0.00194883 0)
(0.110728 0.00176306 0)
(0.0883361 0.00139506 0)
(0.0420597 0.000867016 0)
(0.000718726 0.0011725 0)
(-0.00810029 0.00211523 0)
(-0.000513113 0.010384 0)
(-0.000714275 0.00110018 0)
(-0.00228774 -0.0066461 0)
(-0.00688554 -0.00843402 0)
(-0.0174675 -0.0113068 0)
(-0.0104615 -0.0167641 0)
(0.0245215 -0.00671082 0)
(0.0520865 0.0137462 0)
(0.112234 0.053105 0)
(0.225978 0.0974805 0)
(0.300509 0.045828 0)
(0.301154 0.0303229 0)
(0.2646 0.0100988 0)
(0.207722 0.022505 0)
(0.0865672 -0.0389299 0)
(-0.0408915 -0.0852118 0)
(-0.106208 -0.110635 0)
(-0.130407 -0.100546 0)
(-0.123181 -0.0730109 0)
(-0.129448 -0.061309 0)
(-0.174662 -0.0645618 0)
(-0.25775 -0.0736804 0)
(-0.296145 -0.0717538 0)
(-0.193921 -0.0302939 0)
(-0.0645176 -0.0019749 0)
(-0.0214142 0.00149035 0)
(-0.0162152 0.00147226 0)
(-0.0136867 0.00174673 0)
(-0.00123665 0.00203108 0)
(0.0814708 0.00268717 0)
(0.264053 0.000834763 0)
(0.300171 -4.1462e-05 0)
(0.160924 0.00115988 0)
(0.0916111 0.00174213 0)
(0.0990814 0.00220631 0)
(0.110354 0.00165055 0)
(0.0878819 0.00131467 0)
(0.0419389 0.00088727 0)
(0.00135482 0.00129933 0)
(-0.00761432 0.00233587 0)
(-0.00093357 0.0245673 0)
(-0.00308751 0.0246206 0)
(-0.00411629 0.0223151 0)
(-0.00601934 0.0229339 0)
(-0.0129881 0.0283894 0)
(0.000806786 0.0482 0)
(0.0373104 0.0693081 0)
(0.0831245 0.0818625 0)
(0.154017 0.114451 0)
(0.223038 0.133513 0)
(0.2752 0.121099 0)
(0.272224 0.0874642 0)
(0.242012 0.0621687 0)
(0.165964 0.0292448 0)
(0.0242892 -0.0672714 0)
(-0.0720148 -0.105869 0)
(-0.10884 -0.114998 0)
(-0.110375 -0.0941659 0)
(-0.107604 -0.0741915 0)
(-0.128189 -0.0707301 0)
(-0.181447 -0.076491 0)
(-0.260126 -0.0866334 0)
(-0.271361 -0.0772503 0)
(-0.157904 -0.025897 0)
(-0.0495988 -0.000477049 0)
(-0.0199094 0.00208451 0)
(-0.0160812 0.00208656 0)
(-0.0133961 0.00241474 0)
(-0.000750614 0.00277472 0)
(0.080759 0.00349837 0)
(0.262408 0.00174158 0)
(0.300217 0.000616476 0)
(0.161869 0.0015329 0)
(0.0921258 0.00186147 0)
(0.0989501 0.00229414 0)
(0.109869 0.00151853 0)
(0.0876006 0.00115625 0)
(0.0420449 0.000774394 0)
(0.00211465 0.00118319 0)
(-0.00710143 0.00222635 0)
(-0.000461773 0.0498374 0)
(-0.00288461 0.0503619 0)
(-0.00391309 0.0522441 0)
(-0.00103215 0.0574386 0)
(0.00687974 0.0714223 0)
(0.0289692 0.0991635 0)
(0.05696 0.121845 0)
(0.0955879 0.141356 0)
(0.162007 0.149531 0)
(0.232385 0.152528 0)
(0.256134 0.148197 0)
(0.244366 0.110815 0)
(0.208498 0.0878773 0)
(0.0829888 -0.0235373 0)
(-0.0436332 -0.0995697 0)
(-0.0868826 -0.118386 0)
(-0.0949309 -0.106701 0)
(-0.0910843 -0.0851642 0)
(-0.100597 -0.076434 0)
(-0.131664 -0.0788959 0)
(-0.189987 -0.0869096 0)
(-0.258481 -0.0976584 0)
(-0.237617 -0.0753709 0)
(-0.119939 -0.0189971 0)
(-0.0375536 0.000565812 0)
(-0.0189438 0.00208913 0)
(-0.0158969 0.0020939 0)
(-0.0130236 0.0024866 0)
(-0.000192421 0.00291971 0)
(0.0804752 0.00365618 0)
(0.261276 0.00142136 0)
(0.299969 -0.000229301 0)
(0.162124 0.000645281 0)
(0.0923446 0.000839725 0)
(0.098751 0.00134524 0)
(0.109258 0.000761106 0)
(0.0871649 0.000648664 0)
(0.0419648 0.000585224 0)
(0.00275397 0.00107778 0)
(-0.00660909 0.00207168 0)
(-0.000428101 0.0996099 0)
(-0.000768352 0.100881 0)
(0.00270301 0.106204 0)
(0.0124615 0.114995 0)
(0.0272196 0.126002 0)
(0.0493959 0.139117 0)
(0.0779682 0.151065 0)
(0.109804 0.169455 0)
(0.164783 0.18891 0)
(0.221753 0.195597 0)
(0.235004 0.161811 0)
(0.214097 0.114224 0)
(0.112545 0.0216024 0)
(-0.0146664 -0.0872559 0)
(-0.06711 -0.113587 0)
(-0.0788865 -0.110418 0)
(-0.076827 -0.0919856 0)
(-0.0812091 -0.080581 0)
(-0.101563 -0.0814457 0)
(-0.138284 -0.0870287 0)
(-0.199527 -0.0981715 0)
(-0.249007 -0.105569 0)
(-0.19556 -0.0651198 0)
(-0.0847286 -0.0123946 0)
(-0.0292794 0.000197871 0)
(-0.0184369 0.000887247 0)
(-0.0156982 0.0009173 0)
(-0.0126003 0.00139066 0)
(0.000376433 0.00191728 0)
(0.0793151 0.00263892 0)
(0.258663 2.37193e-05 0)
(0.299469 -0.00232328 0)
(0.162899 -0.00120537 0)
(0.0928003 -0.000662061 0)
(0.0988744 -0.000198911 0)
(0.109197 -0.000437112 0)
(0.0874311 -0.000216235 0)
(0.0424584 0.000364599 0)
(0.00354706 0.0011466 0)
(-0.00614367 0.00221499 0)
(0.000762995 0.171678 0)
(0.00346983 0.172555 0)
(0.00968813 0.173175 0)
(0.018046 0.17546 0)
(0.0301244 0.180966 0)
(0.0531208 0.189723 0)
(0.0861949 0.196301 0)
(0.132057 0.205826 0)
(0.187198 0.223696 0)
(0.20627 0.199009 0)
(0.17772 0.123507 0)
(0.109257 0.0407937 0)
(0.0143445 -0.0669103 0)
(-0.0472843 -0.10804 0)
(-0.065953 -0.107577 0)
(-0.0660671 -0.0941141 0)
(-0.0661789 -0.0834014 0)
(-0.0809276 -0.0841295 0)
(-0.10681 -0.0892916 0)
(-0.147782 -0.0951248 0)
(-0.207854 -0.107992 0)
(-0.226632 -0.103501 0)
(-0.147831 -0.0463442 0)
(-0.0569969 -0.00595969 0)
(-0.0247547 0.00131241 0)
(-0.0182505 0.00202161 0)
(-0.0154118 0.00250458 0)
(-0.01206 0.00344413 0)
(0.00101044 0.00423038 0)
(0.0786505 0.00514455 0)
(0.256494 0.00303978 0)
(0.298785 0.00296799 0)
(0.163724 0.00630721 0)
(0.0933145 0.00750978 0)
(0.0989677 0.00691887 0)
(0.109241 0.00375149 0)
(0.0879374 0.00135508 0)
(0.0432781 0.00104031 0)
(0.00453708 0.00164723 0)
(-0.00557955 0.00267379 0)
(0.000417424 0.242412 0)
(0.000674863 0.233964 0)
(0.00550209 0.232378 0)
(0.0199694 0.23232 0)
(0.0409642 0.23381 0)
(0.0641726 0.233693 0)
(0.0934853 0.22916 0)
(0.136203 0.228858 0)
(0.158214 0.201549 0)
(0.125207 0.112493 0)
(0.082542 0.0328588 0)
(0.0306044 -0.0471158 0)
(-0.0308761 -0.103834 0)
(-0.0538543 -0.108077 0)
(-0.0536905 -0.0976509 0)
(-0.05559 -0.084812 0)
(-0.0672056 -0.0825635 0)
(-0.0868851 -0.0854275 0)
(-0.112159 -0.0871516 0)
(-0.156304 -0.0938028 0)
(-0.207599 -0.102123 0)
(-0.189601 -0.0762309 0)
(-0.101566 -0.014194 0)
(-0.038805 0.0122225 0)
(-0.0215883 0.016818 0)
(-0.017288 0.0183509 0)
(-0.0143274 0.0198865 0)
(-0.0109373 0.0217399 0)
(0.00201501 0.0230483 0)
(0.0781678 0.024717 0)
(0.256566 0.0259607 0)
(0.302618 0.0332211 0)
(0.167275 0.0387145 0)
(0.0933897 0.0364255 0)
(0.0952527 0.0302364 0)
(0.103836 0.02203 0)
(0.0848185 0.0149036 0)
(0.04274 0.00797839 0)
(0.00512113 0.00454525 0)
(-0.00515444 0.00426615 0)
(-0.00737785 0.268298 0)
(-0.00619903 0.25909 0)
(0.00810444 0.257185 0)
(0.0194259 0.248591 0)
(0.0314467 0.231139 0)
(0.0486393 0.212353 0)
(0.0815359 0.201193 0)
(0.10545 0.170329 0)
(0.0750647 0.090259 0)
(0.0437147 0.0160929 0)
(0.0239154 -0.0434026 0)
(-0.0224653 -0.099196 0)
(-0.0444001 -0.109614 0)
(-0.0413261 -0.0948234 0)
(-0.0435338 -0.07815 0)
(-0.0515283 -0.0680893 0)
(-0.0667721 -0.0635014 0)
(-0.0853489 -0.0543901 0)
(-0.114881 -0.0425874 0)
(-0.162209 -0.0452592 0)
(-0.190921 -0.0399368 0)
(-0.1419 0.0223505 0)
(-0.0625943 0.0833765 0)
(-0.0271125 0.104747 0)
(-0.0188492 0.113122 0)
(-0.0152937 0.11951 0)
(-0.012146 0.124633 0)
(-0.0090131 0.129766 0)
(0.00387929 0.132649 0)
(0.081457 0.138025 0)
(0.264689 0.157852 0)
(0.311075 0.173536 0)
(0.166812 0.160956 0)
(0.0851447 0.135864 0)
(0.0850957 0.107699 0)
(0.0944658 0.0752473 0)
(0.0743968 0.0475637 0)
(0.0332964 0.0266608 0)
(0.000959823 0.0136569 0)
(-0.0058485 0.00785424 0)
(-0.00845608 0.238943 0)
(-0.0100337 0.241014 0)
(-0.00461479 0.216257 0)
(-0.00512994 0.192469 0)
(0.00604337 0.177402 0)
(0.0353153 0.167092 0)
(0.0529899 0.131337 0)
(0.0293032 0.057778 0)
(0.00958644 -0.0147759 0)
(-0.00359402 -0.0614206 0)
(-0.0285545 -0.0942537 0)
(-0.0331991 -0.0958379 0)
(-0.0266624 -0.0635576 0)
(-0.0235348 -0.0349619 0)
(-0.0279286 -0.0110498 0)
(-0.0414741 0.0126688 0)
(-0.0540045 0.0429024 0)
(-0.0667316 0.0733224 0)
(-0.10336 0.0861537 0)
(-0.15375 0.0902907 0)
(-0.142448 0.131046 0)
(-0.0707724 0.207994 0)
(-0.0221652 0.249263 0)
(-0.0101412 0.262128 0)
(-0.00736252 0.268556 0)
(-0.00619576 0.274016 0)
(-0.00444423 0.277965 0)
(-0.00321207 0.281675 0)
(0.00997403 0.284688 0)
(0.102454 0.29167 0)
(0.290786 0.316693 0)
(0.305608 0.298411 0)
(0.130973 0.256789 0)
(0.0420696 0.219788 0)
(0.0368405 0.187789 0)
(0.0458872 0.14883 0)
(0.0379988 0.10508 0)
(0.0100661 0.0682264 0)
(-0.0130016 0.0373236 0)
(-0.0107461 0.0177666 0)
(-0.00538197 0.177846 0)
(-0.0280595 0.180206 0)
(-0.0386748 0.159009 0)
(-0.0180168 0.14086 0)
(0.00699212 0.124893 0)
(0.00425036 0.0927372 0)
(-0.023803 0.0363816 0)
(-0.0353503 -0.0137223 0)
(-0.0397994 -0.0335171 0)
(-0.032873 -0.0378524 0)
(-0.00925037 -0.010866 0)
(0.00711461 0.0392553 0)
(0.0142623 0.087378 0)
(0.0092724 0.125663 0)
(0.00236488 0.150908 0)
(0.000461954 0.170707 0)
(-0.00832407 0.18624 0)
(-0.0436704 0.18372 0)
(-0.0985298 0.158785 0)
(-0.118949 0.157413 0)
(-0.0774978 0.213648 0)
(-0.0279817 0.25897 0)
(-0.010429 0.26841 0)
(-0.00852074 0.267485 0)
(-0.00739346 0.265039 0)
(-0.00622688 0.263671 0)
(-0.00476539 0.262715 0)
(-0.00253481 0.261452 0)
(0.0135111 0.263332 0)
(0.112298 0.26641 0)
(0.271185 0.26362 0)
(0.25335 0.207201 0)
(0.0910484 0.175131 0)
(0.0186533 0.16212 0)
(0.0167174 0.157928 0)
(0.014765 0.150009 0)
(-0.00327558 0.129981 0)
(-0.0319965 0.106897 0)
(-0.0476651 0.0727164 0)
(-0.0246943 0.0394744 0)
(-0.00618189 0.109129 0)
(-0.0281858 0.102245 0)
(-0.0425308 0.113451 0)
(-0.0380057 0.123497 0)
(-0.0403291 0.126667 0)
(-0.0499775 0.121924 0)
(-0.0495984 0.136777 0)
(-0.0380537 0.153182 0)
(-0.0136662 0.164393 0)
(0.0182335 0.197039 0)
(0.0457493 0.224879 0)
(0.0614723 0.238473 0)
(0.0566034 0.234649 0)
(0.0376855 0.220775 0)
(0.015477 0.204938 0)
(-0.0074272 0.182004 0)
(-0.041465 0.141775 0)
(-0.0931881 0.0868063 0)
(-0.12871 0.0566333 0)
(-0.100882 0.0834784 0)
(-0.044584 0.127639 0)
(-0.0180022 0.143041 0)
(-0.0139592 0.142345 0)
(-0.0133894 0.139752 0)
(-0.0110387 0.137884 0)
(-0.00843569 0.137086 0)
(-0.00658196 0.136629 0)
(-0.00261707 0.135695 0)
(0.0147518 0.137086 0)
(0.102732 0.136736 0)
(0.23373 0.108802 0)
(0.220337 0.0582732 0)
(0.0875311 0.0510158 0)
(0.025492 0.0538737 0)
(0.0251702 0.0614914 0)
(0.0189563 0.067922 0)
(-0.00354634 0.0720948 0)
(-0.0451161 0.0824319 0)
(-0.077972 0.0820198 0)
(-0.0427793 0.0665715 0)
(-0.0120161 0.0562025 0)
(-0.0238947 0.0707532 0)
(-0.0181953 0.11201 0)
(-0.00528168 0.152813 0)
(0.0054766 0.20074 0)
(0.0139932 0.260318 0)
(0.00631863 0.321696 0)
(-0.00873841 0.352212 0)
(0.00246262 0.351688 0)
(0.0254134 0.316648 0)
(0.0306763 0.268988 0)
(0.0165292 0.211495 0)
(-0.00279174 0.151839 0)
(-0.0193583 0.101779 0)
(-0.0349961 0.0638325 0)
(-0.0604037 0.0265224 0)
(-0.10006 -0.0151396 0)
(-0.125716 -0.0410004 0)
(-0.101737 -0.0138468 0)
(-0.0505256 0.0432079 0)
(-0.0201015 0.0730458 0)
(-0.0138103 0.0795638 0)
(-0.0135976 0.0812897 0)
(-0.0128198 0.0830007 0)
(-0.00996269 0.0851798 0)
(-0.00743618 0.0872933 0)
(-0.00610569 0.0888938 0)
(-0.00209406 0.0898399 0)
(0.0145138 0.0901234 0)
(0.0850423 0.0887204 0)
(0.195575 0.0509425 0)
(0.197665 0.0111521 0)
(0.0868089 0.0121122 0)
(0.028748 0.0164629 0)
(0.0302548 0.0145273 0)
(0.0249828 0.00822384 0)
(0.0107067 0.00592517 0)
(-0.0224324 0.0178208 0)
(-0.0629488 0.04467 0)
(-0.0395808 0.0623915 0)
(0.00783964 0.0339126 0)
(0.0255924 0.0566939 0)
(0.036545 0.0977258 0)
(0.0474974 0.12969 0)
(0.0632667 0.164256 0)
(0.0665803 0.20302 0)
(0.0389544 0.225021 0)
(-0.00915235 0.232721 0)
(-0.0479378 0.21314 0)
(-0.0614587 0.149104 0)
(-0.0555795 0.077933 0)
(-0.0514173 0.0277851 0)
(-0.0491227 -0.000549814 0)
(-0.0471206 -0.0174145 0)
(-0.0570433 -0.0359961 0)
(-0.0835276 -0.0566238 0)
(-0.106532 -0.0623905 0)
(-0.0919423 -0.0251448 0)
(-0.0475638 0.0327262 0)
(-0.0171492 0.0702135 0)
(-0.00955007 0.0822452 0)
(-0.0100581 0.086243 0)
(-0.0106473 0.089244 0)
(-0.00964068 0.0924709 0)
(-0.00690223 0.0955003 0)
(-0.00485677 0.0979582 0)
(-0.00412795 0.0998846 0)
(-0.00143218 0.101213 0)
(0.013673 0.100301 0)
(0.0649758 0.0971186 0)
(0.158982 0.0580335 0)
(0.182919 0.0183314 0)
(0.0926488 0.0206228 0)
(0.0278192 0.0285981 0)
(0.0172307 0.0156528 0)
(0.010667 0.00020306 0)
(0.0057016 -0.0103415 0)
(-0.00778022 -0.0147172 0)
(-0.0350221 0.00306603 0)
(-0.0257022 0.0295021 0)
(0.00993677 0.0118362 0)
(0.0375979 0.0118028 0)
(0.0521464 0.0207242 0)
(0.0588289 0.0296625 0)
(0.0761402 0.0402696 0)
(0.0725491 0.0489229 0)
(0.0349394 0.0489616 0)
(-0.0201877 0.0471562 0)
(-0.0781138 0.0306223 0)
(-0.104877 -0.003437 0)
(-0.0862309 -0.0306788 0)
(-0.0590997 -0.036044 0)
(-0.0463477 -0.0318346 0)
(-0.0535156 -0.0322416 0)
(-0.0727796 -0.0418645 0)
(-0.0858384 -0.0407917 0)
(-0.0697258 -0.00815303 0)
(-0.0340585 0.0455879 0)
(-0.00984593 0.0834028 0)
(-0.0028073 0.0969368 0)
(-0.00465493 0.101191 0)
(-0.00706595 0.103071 0)
(-0.00759614 0.10506 0)
(-0.00679092 0.107211 0)
(-0.00467498 0.108953 0)
(-0.00321135 0.110076 0)
(-0.00296965 0.111132 0)
(-0.00169236 0.111836 0)
(0.0105687 0.110523 0)
(0.0443113 0.103959 0)
(0.119653 0.0719501 0)
(0.161615 0.0212579 0)
(0.0967022 0.0163898 0)
(0.0239587 0.0248983 0)
(0.00289238 0.0111894 0)
(-6.63062e-05 0.00132662 0)
(-0.00367096 -0.00731264 0)
(-0.0095124 -0.0197794 0)
(-0.0203375 -0.0227223 0)
(-0.014106 -0.00384129 0)
(0.0078075 -0.0215877 0)
(0.0341572 -0.0311872 0)
(0.0537553 -0.0342701 0)
(0.0663321 -0.0347691 0)
(0.0818267 -0.0268708 0)
(0.0749562 -0.0281634 0)
(0.0372519 -0.0302206 0)
(-0.0268247 -0.0285652 0)
(-0.0966912 -0.0350715 0)
(-0.120531 -0.0399266 0)
(-0.0870008 -0.0329648 0)
(-0.052531 -0.0236011 0)
(-0.0454586 -0.0222514 0)
(-0.0567858 -0.0247389 0)
(-0.0652824 -0.0164307 0)
(-0.051042 0.0121125 0)
(-0.0232938 0.0534794 0)
(-0.00371576 0.0803548 0)
(0.00191788 0.0900613 0)
(-7.4003e-06 0.090889 0)
(-0.00363863 0.0903948 0)
(-0.00632975 0.0898352 0)
(-0.00665806 0.0895345 0)
(-0.00588948 0.089526 0)
(-0.00414143 0.0896489 0)
(-0.00275741 0.0893942 0)
(-0.00243204 0.0896403 0)
(-0.00201933 0.0900009 0)
(0.00608281 0.0896441 0)
(0.027806 0.080816 0)
(0.079288 0.0600864 0)
(0.129379 0.0060564 0)
(0.0961568 -0.0113744 0)
(0.0228079 0.00542749 0)
(-0.00548378 0.00290242 0)
(-0.00716224 -0.00502526 0)
(-0.0146369 -0.0160582 0)
(-0.0226295 -0.017323 0)
(-0.0196635 -0.0238978 0)
(-0.00750778 -0.0416422 0)
(0.000686356 -0.254562 0)
(0.0253767 -0.128077 0)
(0.0486947 -0.0664009 0)
(0.0659592 -0.0728111 0)
(0.0825057 -0.0674036 0)
(0.0693211 -0.0719733 0)
(0.0345522 -0.0791674 0)
(-0.0248622 -0.079482 0)
(-0.0890621 -0.0741012 0)
(-0.102847 -0.0511758 0)
(-0.070499 -0.0244973 0)
(-0.0487759 -0.0158183 0)
(-0.0474442 -0.016353 0)
(-0.0479066 -0.0107981 0)
(-0.0372682 0.00887048 0)
(-0.0184704 0.0358634 0)
(-0.0039651 0.0528183 0)
(0.0011932 0.0569749 0)
(0.000305181 0.054341 0)
(-0.00248599 0.0509397 0)
(-0.00567038 0.0482827 0)
(-0.00789491 0.0468017 0)
(-0.00789411 0.0459653 0)
(-0.0066807 0.0456156 0)
(-0.00480194 0.0457681 0)
(-0.00321964 0.0454236 0)
(-0.00238507 0.0455292 0)
(-0.00168869 0.0458513 0)
(0.00171783 0.0464323 0)
(0.0158285 0.0400925 0)
(0.0476122 0.0243949 0)
(0.0927524 -0.0167984 0)
(0.0960962 -0.0515561 0)
(0.0377164 -0.0331192 0)
(-0.00718026 -0.0143578 0)
(-0.0183374 -0.0138853 0)
(-0.0155215 -0.0250286 0)
(-0.0170669 -0.0189964 0)
(-0.0437724 -0.0836373 0)
(-0.0312052 -0.256421 0)
(0.129693 -0.713463 0)
(0.215476 -0.393324 0)
(0.107012 -0.0882707 0)
(0.0653658 -0.0673546 0)
(0.0826341 -0.0791128 0)
(0.0636202 -0.0933012 0)
(0.0300163 -0.106003 0)
(-0.0219428 -0.116973 0)
(-0.0694144 -0.112763 0)
(-0.0727306 -0.0825552 0)
(-0.052929 -0.0559799 0)
(-0.0446829 -0.0436668 0)
(-0.040621 -0.0337464 0)
(-0.0324795 -0.0180664 0)
(-0.0203177 -0.00054303 0)
(-0.00869227 0.0115623 0)
(-0.00294996 0.0144283 0)
(-0.00224845 0.0116082 0)
(-0.00389791 0.00746274 0)
(-0.00584537 0.00409906 0)
(-0.00762619 0.0020191 0)
(-0.00856288 0.0015543 0)
(-0.00780097 0.00220646 0)
(-0.00607948 0.00340195 0)
(-0.00432646 0.00491871 0)
(-0.00298766 0.00587831 0)
(-0.00201985 0.0067867 0)
(-0.00114909 0.00766351 0)
(0.0005334 0.00856108 0)
(0.00656999 0.00703361 0)
(0.0244659 -0.00404817 0)
(0.05619 -0.0305998 0)
(0.0804295 -0.0706472 0)
(0.0586535 -0.0728254 0)
(0.0130507 -0.0440445 0)
(-0.017445 -0.0240686 0)
(-0.0195622 -0.0218614 0)
(-0.079107 -0.0456619 0)
(-0.248455 -0.25317 0)
(-0.174009 -0.606301 0)
(0.309184 -0.476289 0)
(0.627835 -0.290024 0)
(0.362811 -0.0483695 0)
(0.074784 -0.0245727 0)
(0.0575027 -0.0385958 0)
(0.0434088 -0.0506524 0)
(0.0117414 -0.0595699 0)
(-0.0313765 -0.0696169 0)
(-0.055896 -0.0693596 0)
(-0.0481285 -0.0555884 0)
(-0.0330248 -0.0438291 0)
(-0.0273509 -0.0349332 0)
(-0.0227747 -0.0258431 0)
(-0.0159106 -0.0164135 0)
(-0.00871697 -0.00864895 0)
(-0.00404348 -0.00437493 0)
(-0.00392084 -0.00382473 0)
(-0.0055191 -0.00538245 0)
(-0.00693091 -0.0072188 0)
(-0.00773169 -0.0085299 0)
(-0.0081226 -0.0091763 0)
(-0.00771436 -0.00904504 0)
(-0.00611365 -0.00829575 0)
(-0.00406709 -0.00729405 0)
(-0.00241563 -0.00620742 0)
(-0.00141958 -0.00531111 0)
(-0.000664788 -0.00458016 0)
(2.11633e-05 -0.0039049 0)
(0.00111084 -0.00336576 0)
(0.00367775 -0.00330568 0)
(0.0113473 -0.00636713 0)
(0.0285751 -0.0169193 0)
(0.055406 -0.035024 0)
(0.0633518 -0.0428871 0)
(0.0398036 -0.0301485 0)
(0.003039 -0.0151247 0)
(-0.0363296 -0.00889153 0)
(-0.239964 -0.0325247 0)
(-0.584024 -0.175819 0)
(-0.371495 -0.380757 0)
(0.309184 0.476289 0)
(0.627835 0.290024 0)
(0.362811 0.0483695 0)
(0.074784 0.0245727 0)
(0.0575027 0.0385958 0)
(0.0434088 0.0506524 0)
(0.0117414 0.0595699 0)
(-0.0313765 0.0696169 0)
(-0.055896 0.0693596 0)
(-0.0481285 0.0555884 0)
(-0.0330248 0.0438291 0)
(-0.0273509 0.0349332 0)
(-0.0227747 0.0258431 0)
(-0.0159106 0.0164135 0)
(-0.00871697 0.00864895 0)
(-0.00404348 0.00437493 0)
(-0.00392084 0.00382473 0)
(-0.0055191 0.00538245 0)
(-0.00693091 0.0072188 0)
(-0.00773169 0.0085299 0)
(-0.0081226 0.0091763 0)
(-0.00771436 0.00904504 0)
(-0.00611365 0.00829575 0)
(-0.00406709 0.00729405 0)
(-0.00241563 0.00620742 0)
(-0.00141958 0.00531111 0)
(-0.000664788 0.00458016 0)
(2.11633e-05 0.0039049 0)
(0.00111084 0.00336576 0)
(0.00367775 0.00330568 0)
(0.0113473 0.00636713 0)
(0.0285751 0.0169193 0)
(0.055406 0.035024 0)
(0.0633518 0.0428871 0)
(0.0398036 0.0301485 0)
(0.003039 0.0151247 0)
(-0.0363296 0.00889153 0)
(-0.239964 0.0325247 0)
(-0.584024 0.175819 0)
(-0.371495 0.380757 0)
(0.129693 0.713463 0)
(0.215476 0.393324 0)
(0.107012 0.0882707 0)
(0.0653658 0.0673546 0)
(0.0826341 0.0791128 0)
(0.0636202 0.0933012 0)
(0.0300163 0.106003 0)
(-0.0219428 0.116973 0)
(-0.0694144 0.112763 0)
(-0.0727306 0.0825552 0)
(-0.052929 0.0559799 0)
(-0.0446829 0.0436668 0)
(-0.040621 0.0337464 0)
(-0.0324795 0.0180664 0)
(-0.0203177 0.00054303 0)
(-0.00869227 -0.0115623 0)