/*--------------------------------*- C++ -*----------------------------------*\
| =========                 |                                                 |
| \\      /  F ield         | OpenFOAM: The Open Source CFD Toolbox           |
|  \\    /   O peration     | Version:  v1912                                 |
|   \\  /    A nd           | Website:  www.openfoam.com                      |
|    \\/     M anipulation  |                                                 |
\*---------------------------------------------------------------------------*/
FoamFile
{
    version     2.0;
    format      ascii;
    class       volVectorField;
    location    "6.36";
    object      grad(T);
}
// * * * * * * * * * * * * * * * * * * * * * * * * * * * * * * * * * * * * * //

dimensions      [0 -1 0 1 0 0 0];


internalField   nonuniform List<vector> 
1900
(
(0.612627 6.50675e-06 0)
(-1.42135 1.24114e-05 0)
(0.0450796 3.40603e-05 0)
(0.117627 4.91372e-05 0)
(0.127738 5.91359e-05 0)
(0.0909987 -0.000113643 0)
(0.0467463 -0.000100515 0)
(0.0194802 0.000203203 0)
(0.00544271 0.00154681 0)
(0.0205732 0.00034652 0)
(0.612646 1.26304e-05 0)
(-1.42132 2.46835e-05 0)
(0.0451163 5.32338e-05 0)
(0.117652 7.41929e-05 0)
(0.127575 5.1092e-05 0)
(0.090839 -0.000214336 0)
(0.0470631 -0.000181535 0)
(0.0211275 -5.58504e-05 0)
(0.00558603 2.17473e-05 0)
(-0.00857524 -0.00173921 0)
(0.612664 -1.99493e-13 0)
(-1.4213 6.28837e-14 0)
(0.0451291 -4.06576e-13 0)
(0.117625 -4.73796e-13 0)
(0.127449 -3.7405e-13 0)
(0.090766 1.19262e-13 0)
(0.0469047 7.80626e-14 0)
(0.0196835 -3.85976e-13 0)
(0.00375935 -4.77049e-13 0)
(-0.0127509 -2.82977e-13 0)
(0.612646 -1.26304e-05 0)
(-1.42132 -2.46835e-05 0)
(0.0451163 -5.32338e-05 0)
(0.117652 -7.41929e-05 0)
(0.127575 -5.1092e-05 0)
(0.090839 0.000214336 0)
(0.0470631 0.000181535 0)
(0.0211275 5.58504e-05 0)
(0.00558603 -2.17473e-05 0)
(-0.00857524 0.00173921 0)
(0.612627 -6.50674e-06 0)
(-1.42135 -1.24114e-05 0)
(0.0450796 -3.40603e-05 0)
(0.117627 -4.91372e-05 0)
(0.127738 -5.91359e-05 0)
(0.0909987 0.000113643 0)
(0.0467463 0.000100515 0)
(0.0194802 -0.000203203 0)
(0.00544271 -0.00154681 0)
(0.0205732 -0.00034652 0)
(-0.00350249 -0.0236619 9.52466e-16)
(-0.0115016 -0.0205962 -1.14332e-15)
(0.0918718 -0.0329304 -1.45135e-15)
(0.375083 -0.0635917 0)
(-0.527549 -0.328352 -6.52673e-15)
(-0.0226777 -0.0290383 9.48191e-16)
(-0.00633237 -0.0253327 1.14332e-15)
(0.0732608 -0.0429706 1.45135e-15)
(0.266636 -0.0712556 0)
(-0.461041 -0.36421 0)
(-0.0331262 -4.71392e-14 0)
(-0.0152982 -1.56924e-13 0)
(0.0610645 -9.93852e-14 0)
(0.237355 -4.92819e-14 0)
(-0.59159 1.35525e-13 0)
(-0.0226777 0.0290383 9.48191e-16)
(-0.00633237 0.0253327 1.14332e-15)
(0.0732608 0.0429706 1.45135e-15)
(0.266636 0.0712556 0)
(-0.461041 0.36421 0)
(-0.00350249 0.0236619 -2.84885e-15)
(-0.0115016 0.0205962 -1.14332e-15)
(0.0918718 0.0329304 -1.45135e-15)
(0.375083 0.0635917 -3.99662e-15)
(-0.527549 0.328352 6.52673e-15)
(-1.90128 0.447047 2.20824e-15)
(-1.05382 0.310488 -1.59455e-15)
(-0.689278 0.240391 0)
(-0.293221 0.16775 9.9017e-16)
(-0.104229 0.163268 -4.35671e-16)
(-1.69714 0.443603 -1.11085e-15)
(-1.08485 0.202953 8.01952e-16)
(-0.71815 0.14009 0)
(-0.305473 0.0809109 -6.22623e-16)
(-0.0783117 0.0997335 1.10898e-16)
(-1.74809 -4.38061e-14 0)
(-1.13911 4.63334e-15 0)
(-0.738013 -1.12436e-13 0)
(-0.311769 8.50355e-14 2.50024e-16)
(-0.0813488 8.87651e-14 -2.21796e-16)
(-1.69714 -0.443603 -1.11085e-15)
(-1.08485 -0.202953 8.01952e-16)
(-0.71815 -0.14009 0)
(-0.305473 -0.0809109 -6.22623e-16)
(-0.0783117 -0.0997335 1.10898e-16)
(-1.90128 -0.447047 1.11085e-15)
(-1.05382 -0.310488 -9.35089e-18)
(-0.689278 -0.240391 0)
(-0.293221 -0.16775 5.05208e-18)
(-0.104229 -0.163268 4.35671e-16)
(-0.211601 0.355375 0)
(-0.284777 0.0829355 0)
(-0.0917481 -0.195215 0)
(0.412814 -0.334351 0)
(0.493185 -0.0592656 0)
(0.0618215 0.140557 0)
(-0.116762 0.108477 0)
(-0.0616517 0.0875666 0)
(-0.0616312 0.0639692 0)
(-0.115196 0.0414848 0)
(-0.192426 0.0296205 0)
(-0.230277 0.0208819 0)
(-0.183564 0.0111783 0)
(-0.104189 0.00392798 0)
(-0.0613596 0.00129644 0)
(-0.0498937 0.00102747 0)
(-0.0457464 0.00146353 0)
(-0.0402333 0.00111711 0)
(-0.0305263 0.000351284 0)
(-0.0192746 -3.20683e-05 0)
(-0.0111921 -0.000112742 0)
(-0.00718527 -9.84524e-05 0)
(-0.00554591 -7.75759e-05 0)
(-0.00463681 -7.18155e-05 0)
(-0.00361092 -8.07153e-05 0)
(-0.00238678 -9.4122e-05 0)
(-0.00086212 -0.000101709 0)
(0.00104795 -0.000114973 0)
(0.00297777 -0.000118685 0)
(0.00434785 -0.000105796 0)
(0.00608998 -0.000120888 0)
(0.00789673 -8.61968e-05 0)
(0.0121009 -0.0001414 0)
(0.0172101 0.000148482 0)
(0.0224119 2.70642e-05 0)
(0.0316587 0.000220429 0)
(0.0688611 -0.000107239 0)
(0.189747 -0.000737265 0)
(0.211834 0.00134328 0)
(0.072393 -0.000911583 0)
(-0.222227 0.164241 0)
(-0.343998 0.0909125 0)
(-0.154627 0.0185742 0)
(0.393686 -0.132784 0)
(0.539228 -0.0837272 0)
(0.0920022 0.0600728 0)
(-0.114564 0.0505237 0)
(-0.0645603 0.0456398 0)
(-0.0715927 0.029787 0)
(-0.123388 0.0165636 0)
(-0.196502 0.0110835 0)
(-0.232587 0.0099004 0)
(-0.185266 0.00535182 0)
(-0.105086 0.00166514 0)
(-0.0615986 0.000430323 0)
(-0.0498541 0.000422772 0)
(-0.0457474 0.000651471 0)
(-0.0403423 0.000419259 0)
(-0.0306227 0.000123304 0)
(-0.0193112 -3.66874e-05 0)
(-0.0111959 -6.12669e-05 0)
(-0.00718197 -5.29241e-05 0)
(-0.0055434 -4.44045e-05 0)
(-0.00463669 -4.17387e-05 0)
(-0.00361257 -4.54106e-05 0)
(-0.00238831 -5.17805e-05 0)
(-0.000863797 -5.52279e-05 0)
(0.00104602 -6.24118e-05 0)
(0.00297794 -6.73096e-05 0)
(0.0043469 -6.51476e-05 0)
(0.00609136 -7.45032e-05 0)
(0.00789357 -6.20741e-05 0)
(0.0121248 -9.04913e-05 0)
(0.0172187 4.75909e-05 0)
(0.0224125 -3.5922e-05 0)
(0.0316671 6.16838e-05 0)
(0.0687387 3.19542e-05 0)
(0.189933 -0.000610339 0)
(0.211977 0.000737146 0)
(0.0722408 0.00053323 0)
(-0.208325 -5.10561e-13 0)
(-0.327153 -4.21853e-12 0)
(-0.156823 -9.608e-12 0)
(0.383053 2.02411e-11 0)
(0.549289 1.87248e-10 0)
(0.100876 -8.51592e-13 0)
(-0.12096 -2.29831e-11 0)
(-0.0676842 1.40453e-11 0)
(-0.0700897 4.99876e-11 0)
(-0.120637 2.20349e-11 0)
(-0.194364 -1.60659e-12 0)
(-0.231945 -8.51592e-12 0)
(-0.18596 -6.00254e-12 0)
(-0.105621 -3.35314e-12 0)
(-0.061721 -2.2512e-12 0)
(-0.0498293 -2.26105e-12 0)
(-0.0457474 4.37623e-13 0)
(-0.0403869 0 0)
(-0.0306589 6.46579e-13 0)
(-0.0193283 2.03041e-13 0)
(-0.0111969 -3.3906e-13 0)
(-0.00718036 -8.31879e-13 0)
(-0.00554266 -1.0566e-12 0)
(-0.00463711 -7.31344e-13 0)
(-0.00361384 -5.97297e-13 0)
(-0.00238964 -7.98367e-13 0)
(-0.000865213 -1.098e-12 0)
(0.00104443 -6.86004e-13 0)
(0.00297697 1.0842e-13 0)
(0.00434575 -4.55365e-13 0)
(0.00609088 -1.51788e-12 0)
(0.00789208 -3.23092e-12 0)
(0.0121328 -3.09293e-12 0)
(0.017226 6.60378e-13 0)
(0.022416 -6.11687e-12 0)
(0.0316784 -6.50324e-12 0)
(0.0686656 -6.50916e-12 0)
(0.189952 6.05773e-12 0)
(0.212167 9.09153e-12 0)
(0.0723337 1.14847e-11 0)
(-0.222227 -0.164241 0)
(-0.343998 -0.0909125 0)
(-0.154627 -0.0185742 0)
(0.393686 0.132784 0)
(0.539228 0.0837272 0)
(0.0920022 -0.0600728 0)
(-0.114564 -0.0505237 0)
(-0.0645603 -0.0456398 0)
(-0.0715927 -0.029787 0)
(-0.123388 -0.0165636 0)
(-0.196502 -0.0110835 0)
(-0.232587 -0.0099004 0)
(-0.185266 -0.00535182 0)
(-0.105086 -0.00166514 0)
(-0.0615986 -0.000430323 0)
(-0.0498541 -0.000422772 0)
(-0.0457474 -0.000651471 0)
(-0.0403423 -0.000419259 0)
(-0.0306227 -0.000123304 0)
(-0.0193112 3.66874e-05 0)
(-0.0111959 6.12669e-05 0)
(-0.00718197 5.29241e-05 0)
(-0.0055434 4.44045e-05 0)
(-0.00463669 4.17387e-05 0)
(-0.00361257 4.54106e-05 0)
(-0.00238831 5.17805e-05 0)
(-0.000863797 5.52279e-05 0)
(0.00104602 6.24118e-05 0)
(0.00297794 6.73096e-05 0)
(0.0043469 6.51476e-05 0)
(0.00609136 7.45031e-05 0)
(0.00789357 6.20741e-05 0)
(0.0121248 9.04912e-05 0)
(0.0172187 -4.75909e-05 0)
(0.0224125 3.5922e-05 0)
(0.0316671 -6.16838e-05 0)
(0.0687387 -3.19542e-05 0)
(0.189933 0.000610339 0)
(0.211977 -0.000737146 0)
(0.0722408 -0.00053323 0)
(-0.211601 -0.355375 0)
(-0.284777 -0.0829355 0)
(-0.0917481 0.195215 0)
(0.412814 0.334351 0)
(0.493185 0.0592656 0)
(0.0618215 -0.140557 0)
(-0.116762 -0.108477 0)
(-0.0616517 -0.0875666 0)
(-0.0616312 -0.0639692 0)
(-0.115196 -0.0414848 0)
(-0.192426 -0.0296205 0)
(-0.230277 -0.0208819 0)
(-0.183564 -0.0111783 0)
(-0.104189 -0.00392798 0)
(-0.0613596 -0.00129644 0)
(-0.0498937 -0.00102747 0)
(-0.0457464 -0.00146353 0)
(-0.0402333 -0.00111711 0)
(-0.0305263 -0.000351284 0)
(-0.0192746 3.20683e-05 0)
(-0.0111921 0.000112742 0)
(-0.00718527 9.84524e-05 0)
(-0.00554591 7.75759e-05 0)
(-0.00463681 7.18155e-05 0)
(-0.00361092 8.07153e-05 0)
(-0.00238678 9.4122e-05 0)
(-0.00086212 0.000101709 0)
(0.00104795 0.000114973 0)
(0.00297777 0.000118685 0)
(0.00434785 0.000105796 0)
(0.00608998 0.000120888 0)
(0.00789673 8.61968e-05 0)
(0.0121009 0.0001414 0)
(0.0172101 -0.000148482 0)
(0.0224119 -2.70642e-05 0)
(0.0316587 -0.000220429 0)
(0.0688611 0.000107239 0)
(0.189747 0.000737265 0)
(0.211834 -0.00134328 0)
(0.072393 0.000911583 0)
(-0.0310563 -0.135995 0)
(-0.0671011 0.046374 0)
(0.0344206 0.291345 0)
(0.286293 0.312363 0)
(0.294569 0.00722674 0)
(0.0216785 -0.181533 0)
(-0.0787831 -0.123424 0)
(-0.040005 -0.082503 0)
(-0.0542049 -0.0646872 0)
(-0.111314 -0.0546922 0)
(-0.188292 -0.0494617 0)
(-0.223689 -0.0388702 0)
(-0.1766 -0.0213566 0)
(-0.0999242 -0.0073136 0)
(-0.0600556 -0.00259954 0)
(-0.0499132 -0.00206724 0)
(-0.0458047 -0.00256238 0)
(-0.0397707 -0.0020043 0)
(-0.0300133 -0.000732472 0)
(-0.0190625 1.03177e-05 0)
(-0.0111586 0.000210092 0)
(-0.00720022 0.000194938 0)
(-0.00555721 0.000156111 0)
(-0.00463457 0.000146872 0)
(-0.00360049 0.000165018 0)
(-0.00237692 0.00019095 0)
(-0.000852656 0.00021075 0)
(0.00105444 0.000236433 0)
(0.00297238 0.00023725 0)
(0.0043472 0.00021468 0)
(0.00608066 0.000231115 0)
(0.00790279 0.000186856 0)
(0.0120053 0.000238577 0)
(0.0171229 -0.000165982 0)
(0.0223681 -0.000206739 0)
(0.0317612 -0.000411476 0)
(0.0691979 0.000484242 0)
(0.189239 0.00126296 0)
(0.212252 -0.000348479 0)
(0.0734793 0.0018105 0)
(-0.0123146 -0.0223344 0)
(0.0102983 0.0382395 0)
(0.0969123 0.154673 0)
(0.206871 0.145363 0)
(0.123753 -0.0689963 0)
(-0.0425525 -0.175806 0)
(-0.041698 -0.121306 0)
(-0.0166581 -0.0865336 0)
(-0.0388139 -0.0779983 0)
(-0.102607 -0.078346 0)
(-0.179396 -0.0752119 0)
(-0.206727 -0.0594753 0)
(-0.15689 -0.0308795 0)
(-0.0884006 -0.010238 0)
(-0.0570032 -0.00425334 0)
(-0.0498474 -0.00362102 0)
(-0.0456545 -0.00372062 0)
(-0.0387179 -0.00273871 0)
(-0.02886 -0.00108952 0)
(-0.01848 2.59466e-05 0)
(-0.0110323 0.000404902 0)
(-0.00722927 0.000421809 0)
(-0.00558617 0.000373327 0)
(-0.00462943 0.000360067 0)
(-0.00357403 0.00038544 0)
(-0.00234801 0.000422689 0)
(-0.000823366 0.000459011 0)
(0.00107 0.000499072 0)
(0.0029597 0.000490149 0)
(0.00434228 0.000454784 0)
(0.00606816 0.000471363 0)
(0.00790067 0.000424878 0)
(0.0118121 0.000467176 0)
(0.0168278 -4.59803e-05 0)
(0.0221989 -0.00031499 0)
(0.0322696 -0.000457243 0)
(0.0702941 0.000984581 0)
(0.189216 0.00208205 0)
(0.212138 0.000795128 0)
(0.073891 0.00159987 0)
(0.0273149 -0.00763651 0)
(0.103469 0.0507776 0)
(0.137649 0.0673823 0)
(0.0707578 0.00331922 0)
(-0.0149214 -0.156151 0)
(-0.0287289 -0.142885 0)
(0.00724337 -0.0999076 0)
(0.00172766 -0.0803426 0)
(-0.046315 -0.0836387 0)
(-0.108629 -0.0952735 0)
(-0.170107 -0.0936738 0)
(-0.180969 -0.0714114 0)
(-0.129153 -0.0341935 0)
(-0.0742662 -0.0118558 0)
(-0.0536793 -0.00616681 0)
(-0.0493999 -0.00532792 0)
(-0.0449545 -0.00476042 0)
(-0.0372353 -0.00324876 0)
(-0.0273492 -0.00126521 0)
(-0.0176224 0.000140128 0)
(-0.0107771 0.000692199 0)
(-0.00723065 0.000765825 0)
(-0.00561671 0.000723788 0)
(-0.0046229 0.00071017 0)
(-0.00354014 0.000739559 0)
(-0.00230602 0.00078376 0)
(-0.000779051 0.000834019 0)
(0.00108445 0.000879031 0)
(0.0029297 0.000849496 0)
(0.00432909 0.000792066 0)
(0.00605185 0.000801961 0)
(0.00789875 0.000747537 0)
(0.0115515 0.000780635 0)
(0.0163692 0.000183463 0)
(0.0219718 -0.00026869 0)
(0.0330135 -0.000314275 0)
(0.0716449 0.00135386 0)
(0.189057 0.00261883 0)
(0.211787 0.00105606 0)
(0.0742548 0.00196898 0)
(0.0439754 0.0426086 0)
(0.0825892 0.0480783 0)
(0.0511797 -0.0333875 0)
(-0.00853391 -0.122934 0)
(-0.0171349 -0.156907 0)
(0.0116461 -0.113589 0)
(0.0185703 -0.0829261 0)
(-0.000980818 -0.0899944 0)
(-0.0532019 -0.0981494 0)
(-0.112277 -0.106219 0)
(-0.156401 -0.100501 0)
(-0.14941 -0.070656 0)
(-0.0994999 -0.0316249 0)
(-0.0613931 -0.012782 0)
(-0.0507127 -0.0080698 0)
(-0.0484921 -0.00685666 0)
(-0.043651 -0.00549964 0)
(-0.0353498 -0.00342231 0)
(-0.0255944 -0.00112696 0)
(-0.0165938 0.000442623 0)
(-0.0104293 0.00110181 0)
(-0.00719883 0.00122612 0)
(-0.0056398 0.00120011 0)
(-0.00461424 0.00119048 0)
(-0.00350312 0.00122064 0)
(-0.00225698 0.00126621 0)
(-0.00073156 0.00131834 0)
(0.00108491 0.00134484 0)
(0.0028759 0.00128515 0)
(0.00429648 0.001195 0)
(0.00602526 0.00117562 0)
(0.00788012 0.0011018 0)
(0.0112686 0.00109137 0)
(0.0158166 0.000502074 0)
(0.0217192 -8.34807e-05 0)
(0.0338331 -7.27487e-05 0)
(0.0731205 0.00152306 0)
(0.188929 0.00285601 0)
(0.211511 0.000861722 0)
(0.0747707 0.00199042 0)
(0.0325857 0.0446849 0)
(0.0302368 -0.0309376 0)
(-0.0271442 -0.11559 0)
(-0.0482704 -0.145879 0)
(-0.0059163 -0.1196 0)
(0.0425621 -0.0927583 0)
(0.0299796 -0.0812976 0)
(-0.012942 -0.0956203 0)
(-0.0619493 -0.106719 0)
(-0.110895 -0.10999 0)
(-0.135838 -0.0971699 0)
(-0.114597 -0.0604418 0)
(-0.0733833 -0.0267417 0)
(-0.0515676 -0.0131269 0)
(-0.0479694 -0.00937778 0)
(-0.0469232 -0.00777969 0)
(-0.041645 -0.00568822 0)
(-0.0330216 -0.00314472 0)
(-0.0236248 -0.000607892 0)
(-0.0154747 0.00102941 0)
(-0.0100221 0.00173544 0)
(-0.00713592 0.00189469 0)
(-0.00565105 0.00188676 0)
(-0.00460312 0.00188425 0)
(-0.00346717 0.00191382 0)
(-0.00221187 0.00195615 0)
(-0.000703279 0.00199672 0)
(0.00105247 0.00198648 0)
(0.00278531 0.00189445 0)
(0.00422355 0.0017666 0)
(0.00596203 0.00170635 0)
(0.00781756 0.00160492 0)
(0.0109736 0.00154409 0)
(0.015237 0.00100614 0)
(0.0214178 0.000406757 0)
(0.0345616 0.000423368 0)
(0.0744672 0.00195206 0)
(0.188419 0.003317 0)
(0.210953 0.00089496 0)
(0.0753425 0.00118263 0)
(-0.0288972 0.0174224 0)
(-0.0718571 -0.0888069 0)
(-0.0595824 -0.139647 0)
(-0.0123984 -0.115127 0)
(0.0340545 -0.0812378 0)
(0.0485556 -0.0680745 0)
(0.0158124 -0.0850508 0)
(-0.0254779 -0.098985 0)
(-0.0670491 -0.107359 0)
(-0.103075 -0.105188 0)
(-0.108655 -0.0834083 0)
(-0.0815426 -0.0465135 0)
(-0.0539055 -0.0223882 0)
(-0.0446606 -0.0133192 0)
(-0.0455599 -0.010363 0)
(-0.0449367 -0.00829001 0)
(-0.0391845 -0.00550563 0)
(-0.0304542 -0.00250152 0)
(-0.021572 0.000130787 0)
(-0.0143357 0.00179189 0)
(-0.00959549 0.00250626 0)
(-0.00705301 0.0026894 0)
(-0.00564986 0.00270061 0)
(-0.00458817 0.00270695 0)
(-0.00343383 0.0027339 0)
(-0.0021771 0.00276614 0)
(-0.000702329 0.00277706 0)
(0.000986362 0.0027083 0)
(0.00266401 0.00257552 0)
(0.00411522 0.00239692 0)
(0.00586945 0.00227812 0)
(0.00772376 0.00213097 0)
(0.0106916 0.00200753 0)
(0.0147206 0.00151732 0)
(0.0211576 0.000970739 0)
(0.0353223 0.00102956 0)
(0.0759089 0.00240318 0)
(0.187911 0.00348596 0)
(0.209455 0.000695392 0)
(0.0750479 0.000957047 0)
(-0.0697808 -0.00209415 0)
(-0.121121 -0.0681903 0)
(-0.0525074 -0.0865993 0)
(0.0080144 -0.0708027 0)
(0.0394255 -0.0581168 0)
(0.0388878 -0.068802 0)
(0.000193173 -0.0869445 0)
(-0.0344393 -0.096752 0)
(-0.0679272 -0.101767 0)
(-0.0878152 -0.0921802 0)
(-0.0792967 -0.0641961 0)
(-0.0557957 -0.0346401 0)
(-0.041396 -0.0189248 0)
(-0.0399797 -0.0130705 0)
(-0.0431231 -0.0106608 0)
(-0.0422424 -0.0080935 0)
(-0.036067 -0.004774 0)
(-0.0275902 -0.00136262 0)
(-0.0194875 0.0012607 0)
(-0.0131856 0.00287314 0)
(-0.00915721 0.0035589 0)
(-0.00694863 0.00375057 0)
(-0.00563414 0.0037758 0)
(-0.00457104 0.00378798 0)
(-0.00341013 0.0038096 0)
(-0.00217028 0.00382673 0)
(-0.000759021 0.00378097 0)
(0.000858255 0.00363808 0)
(0.00248526 0.0034695 0)
(0.00393696 0.00322958 0)
(0.00570575 0.00303787 0)
(0.00755682 0.00282774 0)
(0.0103823 0.00263709 0)
(0.014238 0.0021782 0)
(0.0209478 0.00171872 0)
(0.0359419 0.00179445 0)
(0.0768342 0.00296129 0)
(0.186774 0.00381247 0)
(0.208516 0.00112865 0)
(0.0755946 0.00146782 0)
(-0.0925899 -0.00305819 0)
(-0.153289 -0.0374115 0)
(-0.0620998 -0.0562019 0)
(0.0150484 -0.0615568 0)
(0.0359824 -0.0452859 0)
(0.0207762 -0.0723083 0)
(-0.0111212 -0.083748 0)
(-0.0397618 -0.0906414 0)
(-0.0626436 -0.0900306 0)
(-0.0668699 -0.0724973 0)
(-0.0532071 -0.0456106 0)
(-0.0379175 -0.0258565 0)
(-0.0331203 -0.0160939 0)
(-0.0366972 -0.0125223 0)
(-0.0407639 -0.0103979 0)
(-0.039264 -0.00735943 0)
(-0.0326984 -0.00362894 0)
(-0.024639 -0.000149031 0)
(-0.0174903 0.00240459 0)
(-0.0121211 0.0038966 0)
(-0.00874996 0.00454258 0)
(-0.006844 0.00474413 0)
(-0.00561381 0.00479225 0)
(-0.0045556 0.00482385 0)
(-0.00339649 0.00485391 0)
(-0.00220468 0.00485543 0)
(-0.000884122 0.00476247 0)
(0.000686218 0.00458838 0)
(0.00227037 0.00438792 0)
(0.00369929 0.00411638 0)
(0.00548223 0.00387742 0)
(0.00733755 0.00363183 0)
(0.0100656 0.00340751 0)
(0.0138356 0.00300858 0)
(0.0207879 0.00266311 0)
(0.0365196 0.00264898 0)
(0.0778536 0.003677 0)
(0.186145 0.00455889 0)
(0.207195 0.00221179 0)
(0.0753747 0.00247038 0)
(-0.102885 -0.00964538 0)
(-0.172332 -0.0245956 0)
(-0.0757747 -0.0416115 0)
(0.0185334 -0.0539111 0)
(0.029065 -0.0440141 0)
(0.00182432 -0.0697463 0)
(-0.0174733 -0.0774887 0)
(-0.0404934 -0.0804993 0)
(-0.0504428 -0.072125 0)
(-0.0450105 -0.0514 0)
(-0.0343519 -0.0313924 0)
(-0.0273522 -0.0192282 0)
(-0.0285468 -0.0137872 0)
(-0.0344908 -0.0118537 0)
(-0.0381479 -0.00977438 0)
(-0.0357197 -0.00628366 0)
(-0.0291188 -0.00213116 0)
(-0.021776 0.00125009 0)
(-0.015589 0.00369137 0)
(-0.0111254 0.00504492 0)
(-0.0083405 0.005647 0)
(-0.00670804 0.00585724 0)
(-0.00555732 0.00592633 0)
(-0.00451163 0.0059705 0)
(-0.00337969 0.00599266 0)
(-0.0022584 0.00595503 0)
(-0.00101636 0.00583727 0)
(0.000497327 0.00565661 0)
(0.00203042 0.00539188 0)
(0.00344503 0.00509661 0)
(0.00523882 0.00483054 0)
(0.007104 0.00456496 0)
(0.00978168 0.0043348 0)
(0.0135206 0.00400207 0)
(0.0206013 0.00376606 0)
(0.0369189 0.00360701 0)
(0.0786747 0.00456087 0)
(0.185362 0.00544188 0)
(0.206503 0.00301964 0)
(0.0758438 0.00419042 0)
(-0.106996 -0.00477098 0)
(-0.184093 -0.0125656 0)
(-0.0903493 -0.0289708 0)
(0.0127331 -0.0429935 0)
(0.0207231 -0.0515755 0)
(-0.0114812 -0.0630157 0)
(-0.0214832 -0.069472 0)
(-0.0345931 -0.0652974 0)
(-0.0346025 -0.0507991 0)
(-0.0276185 -0.0339394 0)
(-0.0222053 -0.0215246 0)
(-0.0209525 -0.0146426 0)
(-0.026014 -0.0121098 0)
(-0.0328303 -0.0109662 0)
(-0.0353963 -0.0085425 0)
(-0.0318987 -0.004627 0)
(-0.0254386 -0.000560819 0)
(-0.0190282 0.00260877 0)
(-0.0138335 0.00479771 0)
(-0.0102366 0.00598976 0)
(-0.00796717 0.00654686 0)
(-0.00657482 0.00678934 0)
(-0.00550468 0.00691895 0)
(-0.00449168 0.00701717 0)
(-0.0034114 0.00707197 0)
(-0.00235442 0.00705077 0)
(-0.00117169 0.00696605 0)
(0.000257021 0.00681046 0)
(0.00173073 0.0065221 0)
(0.00315836 0.00623333 0)
(0.00496991 0.00597487 0)
(0.00685984 0.00573016 0)
(0.00952322 0.00553743 0)
(0.0132876 0.00529713 0)
(0.0204072 0.00519343 0)
(0.0372855 0.00500351 0)
(0.0796217 0.00596101 0)
(0.18466 0.00696131 0)
(0.205989 0.004293 0)
(0.0765029 0.00597107 0)
(-0.110396 0.00125893 0)
(-0.195652 -0.00280006 0)
(-0.105096 -0.0211816 0)
(-0.00324924 -0.0342704 0)
(0.00977085 -0.05641 0)
(-0.0154215 -0.0552952 0)
(-0.019672 -0.0550678 0)
(-0.0224995 -0.0451237 0)
(-0.0202251 -0.0319465 0)
(-0.0168005 -0.0214328 0)
(-0.0157568 -0.0141471 0)
(-0.0182798 -0.0108104 0)
(-0.0250041 -0.0101499 0)
(-0.0310532 -0.00949115 0)
(-0.0320392 -0.00657871 0)
(-0.0280282 -0.00224162 0)
(-0.0221461 0.00153012 0)
(-0.0166124 0.00445914 0)
(-0.012331 0.00633939 0)
(-0.00943984 0.00737516 0)
(-0.00756999 0.00788799 0)
(-0.00634948 0.00814253 0)
(-0.00533778 0.00829836 0)
(-0.00436418 0.00841483 0)
(-0.00334731 0.0084786 0)
(-0.00236046 0.00847374 0)
(-0.00124793 0.00840999 0)
(6.95213e-05 0.00827145 0)
(0.00147428 0.0079905 0)
(0.00291769 0.00772299 0)
(0.00475395 0.00749357 0)
(0.00668247 0.00728674 0)
(0.00936439 0.00715631 0)
(0.0131891 0.00701212 0)
(0.0203184 0.00703803 0)
(0.0376586 0.00694517 0)
(0.0805613 0.00784886 0)
(0.183754 0.00866009 0)
(0.205549 0.00530654 0)
(0.0774608 0.00773745 0)
(-0.110908 0.00108783 0)
(-0.205718 -0.000164309 0)
(-0.120675 -0.0190966 0)
(-0.0212142 -0.0307715 0)
(0.000462818 -0.0479759 0)
(-0.0101879 -0.0414848 0)
(-0.0116816 -0.0344068 0)
(-0.0123126 -0.0257497 0)
(-0.011773 -0.0181803 0)
(-0.0104663 -0.0125611 0)
(-0.0119692 -0.00875471 0)
(-0.0171007 -0.00764706 0)
(-0.0247426 -0.00797132 0)
(-0.0293889 -0.00691213 0)
(-0.0284104 -0.0036777 0)
(-0.0240847 0.000509295 0)
(-0.0189815 0.00402533 0)
(-0.0143938 0.00665169 0)
(-0.0110235 0.00822975 0)
(-0.00874427 0.0090909 0)
(-0.0072277 0.00955917 0)
(-0.00617937 0.00985608 0)
(-0.00524228 0.0100745 0)
(-0.004318 0.0102293 0)
(-0.00335463 0.0103056 0)
(-0.00242054 0.0103048 0)
(-0.00136662 0.0102301 0)
(-0.000147213 0.0100694 0)
(0.00120222 0.00977897 0)
(0.0026795 0.00953599 0)
(0.00454952 0.00933444 0)
(0.00653484 0.00917352 0)
(0.00925858 0.00911514 0)
(0.0131736 0.00907338 0)
(0.0203427 0.0092318 0)
(0.0380669 0.00928228 0)
(0.0812743 0.0101145 0)
(0.18221 0.010352 0)
(0.2051 0.00572122 0)
(0.0788454 0.00911988 0)
(-0.111603 0.000601132 0)
(-0.215102 -0.000512588 0)
(-0.13459 -0.0172559 0)
(-0.0310783 -0.0252437 0)
(-0.00055288 -0.0288801 0)
(-0.00234583 -0.0232986 0)
(-0.0045091 -0.0173199 0)
(-0.00686311 -0.0128422 0)
(-0.00751607 -0.00851697 0)
(-0.00771759 -0.00547469 0)
(-0.0110215 -0.00418123 0)
(-0.0175249 -0.00499928 0)
(-0.0242958 -0.00533207 0)
(-0.0269157 -0.00286082 0)
(-0.0248876 0.00116433 0)
(-0.0206053 0.0051521 0)
(-0.0162271 0.00863368 0)
(-0.0125608 0.0111595 0)
(-0.00998045 0.0127404 0)
(-0.00815876 0.0136289 0)
(-0.00683264 0.0140818 0)
(-0.00585291 0.0142676 0)
(-0.00497814 0.0142756 0)
(-0.00414143 0.0141669 0)
(-0.00327456 0.0139834 0)
(-0.00243321 0.013773 0)
(-0.00147474 0.0135202 0)
(-0.000365244 0.0132245 0)
(0.000960236 0.0128589 0)
(0.00248933 0.0126178 0)
(0.00440466 0.0124065 0)
(0.00647114 0.0122632 0)
(0.00926789 0.0122594 0)
(0.0133016 0.0123146 0)
(0.0205197 0.0125813 0)
(0.0385092 0.0128333 0)
(0.0815921 0.0136372 0)
(0.179521 0.0130058 0)
(0.204362 0.00627509 0)
(0.0807359 0.00985628 0)
(-0.111981 0.000955727 0)
(-0.222925 0.000170236 0)
(-0.144507 -0.00936094 0)
(-0.0324157 -0.0118085 0)
(0.00233717 -0.0101864 0)
(0.00095192 -0.00784792 0)
(-0.0016054 -0.00500437 0)
(-0.00382973 -0.00297571 0)
(-0.00467339 -0.000451382 0)
(-0.00628821 0.000704132 0)
(-0.0115111 0.000290692 0)
(-0.0182097 -0.000808902 0)
(-0.0226819 0.000106534 0)
(-0.0231287 0.00327518 0)
(-0.0206889 0.00758798 0)
(-0.016887 0.0115447 0)
(-0.0131926 0.0148504 0)
(-0.0104364 0.0171376 0)
(-0.00864386 0.0185474 0)
(-0.00745161 0.0193098 0)
(-0.00661221 0.0196788 0)
(-0.00599266 0.0197941 0)
(-0.00533938 0.0196993 0)
(-0.00459955 0.0194187 0)
(-0.00373414 0.0190157 0)
(-0.00286696 0.0185944 0)
(-0.0018952 0.0181684 0)
(-0.000784424 0.0177957 0)
(0.000617609 0.0174434 0)
(0.00224356 0.0172368 0)
(0.00420777 0.0170897 0)
(0.00639304 0.017072 0)
(0.00930817 0.0172406 0)
(0.0134839 0.0175042 0)
(0.0208424 0.0180184 0)
(0.0390844 0.0186411 0)
(0.0814406 0.0194932 0)
(0.175115 0.0174404 0)
(0.202065 0.00752348 0)
(0.0822964 0.0104886 0)
(-0.11236 0.00291106 0)
(-0.225044 0.00401336 0)
(-0.146133 0.00366919 0)
(-0.0318737 0.00447632 0)
(0.00326364 0.00526115 0)
(0.00264774 0.0061684 0)
(0.000185937 0.00809752 0)
(-0.00247569 0.00894643 0)
(-0.00397004 0.010078 0)
(-0.0070025 0.00948494 0)
(-0.0124796 0.00802338 0)
(-0.0177024 0.00759263 0)
(-0.0203603 0.00914796 0)
(-0.0197064 0.0121917 0)
(-0.0169188 0.0157022 0)
(-0.013607 0.0188931 0)
(-0.0108376 0.0212409 0)
(-0.00899825 0.0227632 0)
(-0.00788725 0.0236996 0)
(-0.00706856 0.0242693 0)
(-0.006366 0.0246 0)
(-0.00583307 0.0247754 0)
(-0.00533988 0.024882 0)
(-0.00480017 0.0249563 0)
(-0.00406888 0.0249962 0)
(-0.00324975 0.0250501 0)
(-0.00224439 0.0250786 0)
(-0.00106389 0.0251973 0)
(0.000421691 0.0252124 0)
(0.00214847 0.0251351 0)
(0.00424585 0.0251616 0)
(0.00661662 0.025334 0)
(0.00968437 0.0257037 0)
(0.014051 0.0262555 0)
(0.0216152 0.0271062 0)
(0.0399304 0.0281447 0)
(0.0804351 0.028831 0)
(0.167987 0.0243856 0)
(0.197663 0.0100382 0)
(0.0835932 0.0121275 0)
(-0.110919 0.00357698 0)
(-0.222195 0.0123885 0)
(-0.144061 0.024304 0)
(-0.0308817 0.0262702 0)
(0.00396772 0.0265622 0)
(0.00368515 0.0260326 0)
(0.00107161 0.0260105 0)
(-0.00192123 0.0253181 0)
(-0.00415447 0.0245511 0)
(-0.00826816 0.0224325 0)
(-0.0133346 0.0205673 0)
(-0.017126 0.0202656 0)
(-0.0182501 0.0214616 0)
(-0.0168128 0.0237271 0)
(-0.0142312 0.0259437 0)
(-0.0115497 0.0277465 0)
(-0.00946316 0.0289426 0)
(-0.00806708 0.0297369 0)
(-0.00719261 0.0303482 0)
(-0.00658397 0.0309734 0)
(-0.00612444 0.0318455 0)
(-0.00572093 0.0329622 0)
(-0.00516515 0.0342146 0)
(-0.00448947 0.0355605 0)
(-0.00364367 0.0369249 0)
(-0.00278761 0.0383698 0)
(-0.00175335 0.0395834 0)
(-0.000655509 0.0407428 0)
(0.000557663 0.0416302 0)
(0.00219469 0.0424118 0)
(0.00439943 0.0431781 0)
(0.00691541 0.0439528 0)
(0.0101961 0.0447699 0)
(0.0148353 0.0456873 0)
(0.022663 0.0467011 0)
(0.0407465 0.0476375 0)
(0.0778181 0.0464951 0)
(0.157006 0.0370589 0)
(0.190253 0.0127685 0)
(0.0843097 0.00758927 0)
(-0.103868 -0.0517647 0)
(-0.20507 0.00523553 0)
(-0.132756 0.0489592 0)
(-0.0296977 0.0523674 0)
(0.00303466 0.053437 0)
(0.0021161 0.0509317 0)
(-0.000502567 0.0490399 0)
(-0.00388197 0.0465666 0)
(-0.00675072 0.0439096 0)
(-0.0108415 0.0413677 0)
(-0.0145677 0.0402748 0)
(-0.0168406 0.041504 0)
(-0.0170247 0.0445225 0)
(-0.0153872 0.0482422 0)
(-0.0130455 0.0516279 0)
(-0.0107171 0.0543649 0)
(-0.00891954 0.0564767 0)
(-0.0076438 0.0582131 0)
(-0.00669571 0.0598344 0)
(-0.00562571 0.0615713 0)
(-0.00444958 0.0638013 0)
(-0.00355016 0.0665936 0)
(-0.00283601 0.0695368 0)
(-0.00218839 0.072316 0)
(-0.00136175 0.0748735 0)
(-0.000687893 0.077401 0)
(4.23402e-05 0.0793789 0)
(0.000908506 0.0813958 0)
(0.00203001 0.08305 0)
(0.00364003 0.0848554 0)
(0.00573074 0.0864888 0)
(0.00815051 0.0878685 0)
(0.0113558 0.0888552 0)
(0.015912 0.0892305 0)
(0.0234945 0.0884583 0)
(0.0397318 0.0860734 0)
(0.0702411 0.0784197 0)
(0.135486 0.0591017 0)
(0.169265 0.00163819 0)
(0.0786023 -0.0643372 0)
(-0.0559913 -0.624608 0)
(-0.125133 -0.16589 0)
(-0.0986429 0.0573401 0)
(-0.0265667 0.0864183 0)
(0.00258423 0.0914799 0)
(-0.000552062 0.0918646 0)
(-0.00313476 0.0934726 0)
(-0.00686494 0.095771 0)
(-0.00916432 0.0977178 0)
(-0.0117709 0.101092 0)
(-0.0132032 0.105957 0)
(-0.0130327 0.112861 0)
(-0.011757 0.121118 0)
(-0.00996582 0.129801 0)
(-0.00833115 0.138204 0)
(-0.00687719 0.146023 0)
(-0.00575491 0.153234 0)
(-0.00483145 0.159996 0)
(-0.00395653 0.166259 0)
(-0.00276128 0.171677 0)
(-0.00128469 0.17615 0)
(-0.000194072 0.179713 0)
(0.000349149 0.182329 0)
(0.000653183 0.184209 0)
(0.00125639 0.185607 0)
(0.00155399 0.186839 0)
(0.00209616 0.187332 0)
(0.00288211 0.18822 0)
(0.00389149 0.188642 0)
(0.00550838 0.189024 0)
(0.00730301 0.188926 0)
(0.00919577 0.18812 0)
(0.0115085 0.186166 0)
(0.0144528 0.182427 0)
(0.0196207 0.175742 0)
(0.031073 0.165509 0)
(0.0518272 0.144272 0)
(0.0830164 0.0940156 0)
(0.0713025 -0.160237 0)
(0.0207334 -0.604926 0)
(0.338169 -0.679188 0)
(0.45208 -0.570759 0)
(0.110377 0.0375242 0)
(0.00320063 0.131335 0)
(0.00828293 0.1384 0)
(0.00403636 0.138152 0)
(0.00326175 0.140853 0)
(0.000208918 0.143094 0)
(-0.00162281 0.145873 0)
(-0.00290152 0.149884 0)
(-0.00322683 0.155479 0)
(-0.00223087 0.162166 0)
(-0.000701214 0.16939 0)
(0.00107709 0.176601 0)
(0.00258699 0.183612 0)
(0.00376663 0.190067 0)
(0.00454501 0.195972 0)
(0.00490738 0.201535 0)
(0.00456079 0.206902 0)
(0.00390526 0.211502 0)
(0.00329384 0.213874 0)
(0.00240451 0.214025 0)
(0.00149653 0.213482 0)
(0.000969961 0.212966 0)
(0.0011732 0.212354 0)
(0.00097469 0.211226 0)
(0.00137316 0.210827 0)
(0.00217126 0.209953 0)
(0.00280474 0.209456 0)
(0.00391331 0.208847 0)
(0.00485963 0.208416 0)
(0.00549089 0.207889 0)
(0.00586937 0.207074 0)
(0.00586673 0.205035 0)
(0.00719232 0.201326 0)
(0.00940653 0.194567 0)
(0.0013471 0.174098 0)
(-0.15795 0.0827203 0)
(-0.50426 -0.49539 0)
(-0.349916 -0.643814 0)
(0.0484943 -0.107444 0)
(0.565516 -0.408049 0)
(0.57792 0.0102729 0)
(0.0706406 0.0771367 0)
(0.00915382 0.0802578 0)
(0.00181214 0.0780404 0)
(0.00162713 0.0779496 0)
(-0.00202765 0.0763441 0)
(-0.00262128 0.0756287 0)
(-0.0025143 0.075308 0)
(-0.00136763 0.0760305 0)
(0.000373015 0.0772373 0)
(0.00215264 0.0787326 0)
(0.00373887 0.0801989 0)
(0.00464562 0.0814948 0)
(0.00503353 0.0823352 0)
(0.00529598 0.0828096 0)
(0.00570064 0.0831145 0)
(0.00564762 0.0836328 0)
(0.00395745 0.0842423 0)
(0.00114686 0.0836869 0)
(-0.000571945 0.0820143 0)
(-0.000671344 0.0805981 0)
(-0.00043343 0.0797647 0)
(-0.000420314 0.0791418 0)
(8.18006e-05 0.078111 0)
(0.000869166 0.0782152 0)
(0.00156161 0.077588 0)
(0.00282587 0.0775826 0)
(0.00450607 0.0776099 0)
(0.00638033 0.0781977 0)
(0.00790276 0.079188 0)
(0.00875852 0.0807006 0)
(0.00891374 0.0821862 0)
(0.00953329 0.0838626 0)
(0.00483509 0.0846155 0)
(-0.0559527 0.0791186 0)
(-0.562127 0.0251534 0)
(-0.628812 -0.340311 0)
(-0.122293 -0.104099 0)
(0.0484943 0.107444 0)
(0.565516 0.408049 0)
(0.57792 -0.0102729 0)
(0.0706406 -0.0771367 0)
(0.00915382 -0.0802578 0)
(0.00181214 -0.0780404 0)
(0.00162713 -0.0779496 0)
(-0.00202765 -0.0763441 0)
(-0.00262128 -0.0756287 0)
(-0.0025143 -0.075308 0)
(-0.00136763 -0.0760305 0)
(0.000373015 -0.0772373 0)
(0.00215264 -0.0787326 0)
(0.00373887 -0.0801989 0)
(0.00464562 -0.0814948 0)
(0.00503353 -0.0823352 0)
(0.00529598 -0.0828096 0)
(0.00570064 -0.0831145 0)
(0.00564762 -0.0836328 0)
(0.00395745 -0.0842423 0)
(0.00114686 -0.0836869 0)
(-0.000571945 -0.0820143 0)
(-0.000671344 -0.0805981 0)
(-0.00043343 -0.0797647 0)
(-0.000420314 -0.0791418 0)