/*--------------------------------*- C++ -*----------------------------------*\
| =========                 |                                                 |
| \\      /  F ield         | OpenFOAM: The Open Source CFD Toolbox           |
|  \\    /   O peration     | Version:  v1912                                 |
|   \\  /    A nd           | Website:  www.openfoam.com                      |
|    \\/     M anipulation  |                                                 |
\*---------------------------------------------------------------------------*/
FoamFile
{
    version     2.0;
    format      ascii;
    class       volScalarField;
    location    "6.04";
    object      Ma;
}
// * * * * * * * * * * * * * * * * * * * * * * * * * * * * * * * * * * * * * //

dimensions      [0 0 0 0 0 0 0];


internalField   nonuniform List<scalar> 
1900
(
0.76759
0.0691121
0.0865912
0.0842254
0.0889073
0.0929805
0.0971135
0.099647
0.100041
0.0921299
0.767589
0.0691095
0.086588
0.084233
0.0889511
0.0930712
0.0967289
0.0989304
0.101436
0.103395
0.76759
0.0691086
0.086586
0.0842346
0.0889483
0.0930366
0.0965239
0.0989218
0.101947
0.109597
0.767589
0.0691095
0.086588
0.084233
0.0889511
0.0930712
0.0967289
0.0989304
0.101436
0.103395
0.76759
0.0691121
0.0865912
0.0842254
0.0889073
0.0929805
0.0971135
0.099647
0.100041
0.0921299
0.100523
0.138353
0.190801
0.275289
0.420967
0.119395
0.145363
0.176655
0.241988
0.384386
0.127093
0.15246
0.183711
0.245627
0.381207
0.119395
0.145363
0.176655
0.241988
0.384386
0.100523
0.138353
0.190801
0.275289
0.420967
0.944428
1.39699
1.6286
1.54822
1.46705
0.906536
1.38721
1.65231
1.57327
1.48937
0.90271
1.39495
1.6547
1.56725
1.48442
0.906536
1.38721
1.65231
1.57327
1.48937
0.944428
1.39699
1.6286
1.54822
1.46705
1.65127
1.94833
1.95971
1.70017
1.12333
0.910817
0.693066
0.497125
0.344466
0.206521
0.0842043
0.0307526
0.0377244
0.0429853
0.0459853
0.0467365
0.0429359
0.0318017
0.0235152
0.040822
0.0703476
0.102823
0.136423
0.170692
0.205461
0.240586
0.27553
0.310939
0.344946
0.378021
0.410468
0.441657
0.472133
0.499687
0.524192
0.537495
0.55042
0.564276
0.581234
0.296615
1.62174
1.97051
2.01761
1.75313
1.15148
0.941935
0.724766
0.514356
0.350244
0.20569
0.0784519
0.0153431
0.0294676
0.0367789
0.040426
0.0419515
0.0380817
0.0247588
0.0119876
0.0353582
0.0673683
0.100904
0.135087
0.169734
0.204776
0.240113
0.275225
0.310783
0.344899
0.378083
0.410605
0.441881
0.472387
0.500008
0.524494
0.537688
0.550757
0.564596
0.580706
0.29501
1.5861
1.92864
1.98609
1.74133
1.13526
0.91876
0.696549
0.493038
0.342907
0.205631
0.0774861
0.000773143
0.0261373
0.0344336
0.0384052
0.0401356
0.0362386
0.0218727
0.00276267
0.0333635
0.0663579
0.100256
0.134627
0.169391
0.204516
0.239919
0.275086
0.310697
0.34486
0.378101
0.410677
0.442029
0.472614
0.500355
0.524973
0.538342
0.551753
0.566049
0.582124
0.295489
1.62174
1.97051
2.01761
1.75313
1.15148
0.941935
0.724766
0.514356
0.350244
0.20569
0.0784519
0.0153431
0.0294676
0.0367789
0.040426
0.0419515
0.0380817
0.0247588
0.0119876
0.0353582
0.0673683
0.100904
0.135087
0.169734
0.204776
0.240113
0.275225
0.310783
0.344899
0.378083
0.410605
0.441881
0.472387
0.500008
0.524494
0.537688
0.550757
0.564596
0.580706
0.29501
1.65127
1.94833
1.95971
1.70017
1.12333
0.910817
0.693066
0.497125
0.344466
0.206521
0.0842043
0.0307526
0.0377244
0.0429853
0.0459853
0.0467365
0.0429359
0.0318017
0.0235152
0.040822
0.0703476
0.102823
0.136423
0.170692
0.205461
0.240586
0.27553
0.310939
0.344946
0.378021
0.410468
0.441657
0.472133
0.499687
0.524192
0.537495
0.55042
0.564276
0.581234
0.296615
1.72145
1.80959
1.65367
1.37518
0.976009
0.790919
0.614399
0.468235
0.340369
0.212693
0.102512
0.0640683
0.0642388
0.0654112
0.0663685
0.0654345
0.0613188
0.0533045
0.0486236
0.0590336
0.0822606
0.111275
0.142913
0.17596
0.209905
0.24444
0.278966
0.314013
0.347823
0.380682
0.413053
0.444091
0.474619
0.502082
0.526843
0.540658
0.553284
0.567131
0.585179
0.305876
1.22768
1.32884
1.09484
0.822253
0.711049
0.65464
0.571008
0.466658
0.341822
0.223778
0.140589
0.114488
0.108658
0.105901
0.104195
0.10121
0.096438
0.0903186
0.0873259
0.0936176
0.1097
0.132685
0.160085
0.190168
0.221968
0.254892
0.288236
0.322236
0.355445
0.38764
0.419729
0.450277
0.480827
0.507893
0.533154
0.547801
0.560171
0.572894
0.588253
0.312123
0.802985
0.754329
0.64677
0.642167
0.661268
0.634959
0.559801
0.449402
0.34002
0.244322
0.185783
0.163781
0.154033
0.148313
0.144219
0.139567
0.134104
0.128552
0.126085
0.130583
0.142461
0.160585
0.183745
0.210414
0.239504
0.270258
0.30195
0.334408
0.366714
0.397894
0.429492
0.459254
0.489686
0.516067
0.541766
0.55723
0.569727
0.580764
0.59325
0.326969
0.619832
0.629068
0.737066
0.77296
0.722051
0.63929
0.539233
0.440296
0.349825
0.276476
0.233256
0.211687
0.199117
0.190864
0.184669
0.17861
0.172502
0.167109
0.16483
0.16832
0.177568
0.192126
0.211703
0.235138
0.261426
0.289791
0.319603
0.350176
0.381397
0.411323
0.442267
0.471046
0.501218
0.526762
0.552763
0.56883
0.581798
0.590781
0.600429
0.345587
0.769049
0.847105
0.87606
0.804031
0.719859
0.622575
0.530563
0.44427
0.369931
0.314323
0.279493
0.257784
0.243148
0.232841
0.224912
0.217677
0.211016
0.205639
0.203403
0.206228
0.213695
0.225628
0.242348
0.262988
0.286681
0.312706
0.34062
0.369178
0.399253
0.427834
0.458056
0.485794
0.515648
0.540339
0.56658
0.582929
0.596442
0.60373
0.611293
0.368753
0.80699
0.901968
0.885265
0.784018
0.708263
0.616018
0.536415
0.463446
0.402011
0.356491
0.324726
0.302238
0.285871
0.273935
0.264572
0.256352
0.249273
0.243878
0.241629
0.243992
0.250164
0.260086
0.274503
0.292752
0.314092
0.337853
0.363864
0.390323
0.419115
0.446194
0.475488
0.501998
0.531269
0.554893
0.580992
0.597088
0.610314
0.615651
0.621491
0.392585
0.802231
0.90296
0.873888
0.7739
0.703017
0.618524
0.550635
0.487581
0.435853
0.396564
0.367135
0.344504
0.327098
0.314001
0.303505
0.294491
0.286982
0.281577
0.279204
0.281167
0.28636
0.294769
0.30745
0.323858
0.343345
0.365247
0.389696
0.414432
0.442198
0.468072
0.496683
0.522284
0.551226
0.574129
0.600292
0.616284
0.629351
0.633447
0.638666
0.422017
0.789162
0.896601
0.860759
0.776382
0.705637
0.630551
0.572817
0.51768
0.473407
0.436856
0.40823
0.385118
0.366879
0.35269
0.341126
0.331492
0.323794
0.318229
0.315857
0.317565
0.321972
0.329077
0.340201
0.354881
0.372546
0.392513
0.415244
0.438114
0.464594
0.489032
0.516655
0.541115
0.569412
0.591356
0.617171
0.632589
0.644843
0.647949
0.652851
0.449264
0.770955
0.890355
0.855579
0.783568
0.714933
0.647851
0.59697
0.547674
0.508538
0.474376
0.446747
0.423521
0.404902
0.390116
0.37789
0.367783
0.359856
0.354086
0.351471
0.352874
0.356676
0.362868
0.372983
0.38658
0.403118
0.421818
0.443445
0.465092
0.490753
0.514227
0.541167
0.564822
0.59264
0.613862
0.63933
0.654324
0.665615
0.667963
0.672804
0.480408
0.75301
0.886106
0.859087
0.78869
0.729708
0.668528
0.625255
0.579727
0.543898
0.511262
0.484155
0.460753
0.441636
0.425978
0.41304
0.402606
0.394193
0.38841
0.38571
0.38692
0.390172
0.395442
0.404472
0.416855
0.432091
0.449321
0.469682
0.48994
0.514665
0.537152
0.563366
0.586289
0.613661
0.634289
0.659441
0.674102
0.684513
0.686386
0.691419
0.51037
0.738728
0.88454
0.867091
0.797956
0.750345
0.691794
0.652952
0.609942
0.576981
0.545413
0.518691
0.495419
0.476283
0.460259
0.447175
0.436497
0.427881
0.421851
0.418923
0.419944
0.422836
0.427553
0.436
0.447747
0.462275
0.478605
0.498218
0.517488
0.541544
0.563302
0.588863
0.611136
0.637952
0.657963
0.682536
0.696801
0.705996
0.707169
0.712281
0.541252
0.734881
0.888173
0.876406
0.812898
0.771221
0.715003
0.680786
0.639978
0.609117
0.578268
0.552059
0.528985
0.509542
0.492872
0.479481
0.468345
0.459779
0.453725
0.450724
0.451586
0.454011
0.457937
0.465473
0.476221
0.489689
0.504818
0.523476
0.541564
0.564855
0.585915
0.610854
0.632606
0.658981
0.678586
0.702794
0.716951
0.725459
0.726514
0.732531
0.571414
0.738806
0.896686
0.888061
0.828568
0.790202
0.737178
0.70669
0.667543
0.638241
0.607715
0.581928
0.559251
0.540201
0.524682
0.510903
0.499626
0.490812
0.484471
0.481224
0.481965
0.484236
0.487946
0.495304
0.505847
0.519025
0.53363
0.551931
0.569326
0.592114
0.612719
0.637071
0.658319
0.684007
0.703028
0.7264
0.740066
0.747277
0.747445
0.753576
0.600902
0.746149
0.90348
0.897669
0.843894
0.808201
0.757818
0.730475
0.692493
0.665112
0.63533
0.609981
0.587636
0.568925
0.552281
0.538331
0.527039
0.518178
0.511785
0.508445
0.509031
0.510841
0.513793
0.520343
0.53008
0.542431
0.556068
0.573711
0.59015
0.612289
0.632383
0.65619
0.677067
0.702243
0.720911
0.743774
0.757204
0.763655
0.763448
0.771256
0.628778
0.754315
0.911137
0.907155
0.859194
0.825179
0.777131
0.751217
0.713831
0.686936
0.658128
0.634365
0.612756
0.594012
0.577528
0.563477
0.551831
0.542442
0.535493
0.531762
0.53227
0.534106
0.537121
0.543871
0.553884
0.566433
0.579934
0.597685
0.613767
0.635515
0.655334
0.678655
0.699178
0.72353
0.74168
0.763553
0.77646
0.781764
0.780691
0.789901
0.656361
0.765023
0.916988
0.913226
0.869178
0.836737
0.790324
0.766289
0.730188
0.704733
0.67677
0.653322
0.6315
0.612419
0.595503
0.580885
0.56836
0.557823
0.549571
0.544655
0.544388
0.54575
0.548674
0.555837
0.566479
0.579455
0.592885
0.610701
0.626307
0.647575
0.667243
0.690414
0.710865
0.73475
0.752731
0.77413
0.78671
0.791422
0.790893
0.804241
0.68207
0.77733
0.917849
0.907773
0.866475
0.836442
0.791732
0.769064
0.73448
0.710209
0.683427
0.660901
0.639965
0.621913
0.605662
0.591338
0.578665
0.567941
0.559939
0.55584
0.556438
0.557936
0.560273
0.566845
0.577358
0.590483
0.603486
0.621053
0.63552
0.655692
0.674225
0.696131
0.715672
0.73804
0.755199
0.77531
0.787215
0.791168
0.79186
0.811588
0.704235
0.805945
0.922
0.887381
0.850611
0.825081
0.784752
0.765317
0.73408
0.712205
0.687222
0.666072
0.646121
0.629194
0.614035
0.601116
0.590022
0.58088
0.574184
0.570946
0.571845
0.572836
0.573854
0.578587
0.586934
0.597858
0.608534
0.624895
0.637946
0.657102
0.674718
0.695748
0.714937
0.736205
0.752902
0.771884
0.784037
0.788943
0.795342
0.822658
0.753535
1.76748
0.957719
0.868381
0.85234
0.833944
0.798713
0.781285
0.752326
0.731658
0.707852
0.687612
0.668425
0.652176
0.637491
0.625271
0.614963
0.60632
0.599316
0.594952
0.594277
0.593255
0.591675
0.593671
0.59917
0.607289
0.615467
0.630765
0.64289
0.661667
0.67921
0.700322
0.720379
0.741953
0.760336
0.780459
0.796258
0.807199
0.823182
0.908581
1.71127
2.49661
1.74664
0.855325
0.80248
0.775494
0.734219
0.701752
0.663026
0.629219
0.593171
0.559045
0.525239
0.493355
0.462656
0.434185
0.408276
0.385392
0.366085
0.351666
0.343756
0.338946
0.337588
0.343292
0.355786
0.372932
0.392376
0.418641
0.44302
0.47264
0.501517
0.532626
0.562919
0.593295
0.621858
0.650617
0.678012
0.702265
0.756717
1.67303
2.46383
2.49661
1.74664
0.855325
0.80248
0.775494
0.734219
0.701752
0.663026
0.629219
0.593171
0.559045
0.525239
0.493355
0.462656
0.434185
0.408276
0.385392
0.366085
0.351666
0.343756
0.338946
0.337588
0.343292
0.355786
0.372932
0.392376
0.418641
0.44302
0.47264
0.501517
0.532626
0.562919
0.593295
0.621858
0.650617
0.678012
0.702265
0.756717
1.67303
2.46383
1.76748
0.957719
0.868381
0.85234
0.833944
0.798713
0.781285
0.752326
0.731658
0.707852
0.687612
0.668425
0.652176
0.637491
0.625271
0.614963
0.60632
0.599316
0.594952
0.594277
0.593255
0.591675
0.593671
0.59917
0.607289
0.615467
0.630765
0.64289
0.661667
0.67921
0.700322
0.720379
0.741953
0.760336
0.780459
0.796258
0.807199
0.823182
0.908581
1.71127
0.805945
0.922
0.887381
0.850611
0.825081
0.784752
0.765317
0.73408
0.712205
0.687222
0.666072
0.646121
0.629194
0.614035
0.601116
0.590022
0.58088
0.574184
0.570946
0.571845
0.572836
0.573854
0.578587
0.586934
0.597858
0.608534
0.624895
0.637946
0.657102
0.674718
0.695748
0.714937
0.736205
0.752902
0.771884
0.784037
0.788943
0.795342
0.822658
0.753535
0.77733
0.917849
0.907773
0.866475
0.836442
0.791732
0.769064
0.73448
0.710209
0.683427
0.660901
0.639965
0.621913
0.605662
0.591338
0.578665
0.567941
0.559939
0.55584
0.556438
0.557936
0.560273
0.566845
0.577358
0.590483
0.603486
0.621053
0.63552
0.655692
0.674225
0.696131
0.715672
0.73804
0.755199
0.77531
0.787215
0.791168
0.79186
0.811588
0.704235
0.765023
0.916988
0.913226
0.869178
0.836737
0.790324
0.766289
0.730188
0.704733
0.67677
0.653322
0.6315
0.612419
0.595503
0.580885
0.56836
0.557823
0.549571
0.544655
0.544388
0.54575
0.548674
0.555837
0.566479
0.579455
0.592885
0.610701
0.626307
0.647575
0.667243
0.690414
0.710865
0.73475
0.752731
0.77413
0.78671
0.791422
0.790893
0.804241
0.68207
0.754315
0.911137
0.907155
0.859194
0.825179
0.777131
0.751217
0.713831
0.686936
0.658128
0.634365
0.612756
0.594012
0.577528
0.563477
0.551831
0.542442
0.535493
0.531762
0.53227
0.534106
0.537121
0.543871
0.553884
0.566433
0.579934
0.597685
0.613767
0.635515
0.655334
0.678655
0.699178
0.72353
0.74168
0.763553
0.77646
0.781764
0.780691
0.789901
0.656361
0.746149
0.90348
0.897669
0.843894
0.808201
0.757818
0.730475
0.692493
0.665112
0.63533
0.609981
0.587636
0.568925
0.552281
0.538331
0.527039
0.518178
0.511785
0.508445
0.509031
0.510841
0.513793
0.520343
0.53008
0.542431
0.556068
0.573711
0.59015
0.612289
0.632383
0.65619
0.677067
0.702243
0.720911
0.743774
0.757204
0.763655
0.763448
0.771256
0.628778
0.738806
0.896686
0.888061
0.828568
0.790202
0.737178
0.70669
0.667543
0.638241
0.607715
0.581928
0.559251
0.540201
0.524682
0.510903
0.499626
0.490812
0.484471
0.481224
0.481965
0.484236
0.487946
0.495304
0.505847
0.519025
0.53363
0.551931
0.569326
0.592114
0.612719
0.637071
0.658319
0.684007
0.703028
0.7264
0.740066
0.747277
0.747445
0.753576
0.600902
0.734881
0.888173
0.876406
0.812898
0.771221
0.715003
0.680786
0.639978
0.609117
0.578268
0.552059
0.528985
0.509542
0.492872
0.479481
0.468345
0.459779
0.453725
0.450724
0.451586
0.454011
0.457937
0.465473
0.476221
0.489689
0.504818
0.523476
0.541564
0.564855
0.585915
0.610854
0.632606
0.658981
0.678586
0.702794
0.716951
0.725459
0.726514
0.732531
0.571414
0.738728
0.88454
0.867091
0.797956
0.750345
0.691794
0.652952
0.609942
0.576981
0.545413
0.518691
0.495419
0.476283
0.460259
0.447175
0.436497
0.427881
0.421851
0.418923
0.419944
0.422836
0.427553
0.436
0.447747
0.462275
0.478605
0.498218
0.517488
0.541544
0.563302
0.588863
0.611136
0.637952
0.657963
0.682536
0.696801
0.705996
0.707169
0.712281
0.541252
0.75301
0.886106
0.859087
0.78869
0.729708
0.668528
0.625255
0.579727
0.543898
0.511262
0.484155
0.460753
0.441636
0.425978
0.41304
0.402606
0.394193
0.38841
0.38571
0.38692
0.390172
0.395442
0.404472
0.416855
0.432091
0.449321
0.469682
0.48994
0.514665
0.537152
0.563366
0.586289
0.613661
0.634289
0.659441
0.674102
0.684513
0.686386
0.691419
0.51037
0.770955
0.890355
0.855579
0.783568
0.714933
0.647851
0.59697
0.547674
0.508538
0.474376
0.446747
0.423521
0.404902
0.390116
0.37789
0.367783
0.359856
0.354086
0.351471
0.352874
0.356676
0.362868
0.372983
0.38658
0.403118
0.421818
0.443445
0.465092
0.490753
0.514227
0.541167
0.564822
0.59264
0.613862
0.63933
0.654324
0.665615
0.667963
0.672804
0.480408
0.789162
0.896601
0.860759
0.776382
0.705637
0.630551
0.572817
0.51768
0.473407
0.436856
0.40823
0.385118
0.366879
0.35269
0.341126
0.331492
0.323794
0.318229
0.315857
0.317565
0.321972
0.329077
0.340201
0.354881
0.372546
0.392513
0.415244
0.438114
0.464594
0.489032
0.516655
0.541115
0.569412
0.591356
0.617171
0.632589
0.644843
0.647949
0.652851
0.449264
0.802231
0.90296
0.873888
0.7739
0.703017
0.618524
0.550635
0.487581
0.435853
0.396564
0.367135
0.344504
0.327098
0.314001
0.303505
0.294491
0.286982
0.281577
0.279204
0.281167
0.28636
0.294769
0.30745
0.323858
0.343345
0.365247
0.389696
0.414432
0.442198
0.468072
0.496683
0.522284
0.551226
0.574129
0.600292
0.616284
0.629351
0.633447
0.638666
0.422017
0.80699
0.901968
0.885265
0.784018
0.708263
0.616018
0.536415
0.463446
0.402011
0.356491
0.324726
0.302238
0.285871
0.273935
0.264572
0.256352
0.249273
0.243878
0.241629
0.243992
0.250164
0.260086
0.274503
0.292752
0.314092
0.337853
0.363864
0.390323
0.419115
0.446194
0.475488
0.501998
0.531269
0.554893
0.580992
0.597088
0.610314
0.615651
0.621491
0.392585
0.769049
0.847105
0.87606
0.804031
0.719859
0.622575
0.530563
0.44427
0.369931
0.314323
0.279493
0.257784
0.243148
0.232841
0.224912
0.217677
0.211016
0.205639
0.203403
0.206228
0.213695
0.225628
0.242348
0.262988
0.286681
0.312706
0.34062
0.369178
0.399253
0.427834
0.458056
0.485794
0.515648
0.540339
0.56658
0.582929
0.596442
0.60373
0.611293
0.368753
0.619832
0.629068
0.737066
0.77296
0.722051
0.63929
0.539233
0.440296
0.349825
0.276476
0.233256
0.211687
0.199117
0.190864
0.184669
0.17861
0.172502
0.167109
0.16483
0.16832
0.177568
0.192126
0.211703
0.235138
0.261426
0.289791
0.319603
0.350176
0.381397
0.411323
0.442267
0.471046
0.501218
0.526762
0.552763
0.56883
0.581798
0.590781
0.600429
0.345587
0.802985
0.754329
0.64677
0.642167
0.661268
0.634959
0.559801
0.449402
0.34002
0.244322
0.185783
0.163781
0.154033
0.148313
0.144219
0.139567
0.134104
0.128552
0.126085
0.130583
0.142461
0.160585
0.183745
0.210414
0.239504
0.270258
0.30195
0.334408
0.366714
0.397894
0.429492
0.459254
0.489686
0.516067
0.541766
0.55723
0.569727
0.580764
0.59325
0.326969
1.22768
1.32884
1.09484
0.822253
0.711049
0.65464
0.571008
0.466658
0.341822
0.223778
0.140589
0.114488
0.108658
0.105901
0.104195
0.10121
0.096438
0.0903186
0.0873259
0.0936176
0.1097
0.132685
0.160085
0.190168
0.221968
0.254892
0.288236
0.322236
0.355445
0.38764
0.419729
0.450277
0.480827
0.507893
0.533154
0.547801
0.560171
0.572894
0.588253
0.312123
1.72145
1.80959
1.65367
1.37518
0.976009
0.790919
0.614399
0.468235
0.340369
0.212693
0.102512
0.0640683
0.0642388
0.0654112
0.0663685
0.0654345
0.0613188
0.0533045
0.0486236
0.0590336
0.0822606
0.111275
0.142913
0.17596
0.209905
0.24444
0.278966
0.314013
0.347823
0.380682
0.413053
0.444091
0.474619
0.502082
0.526843
0.540658
0.553284
0.567131
0.585179
0.305876
)
;

boundaryField
{
    inlet
    {
        type            calculated;
        value           uniform 0;
    }
    outlet
    {
        type            calculated;
        value           nonuniform List<scalar> 
165
(
1.72145
1.22768
0.802985
0.619832
0.769049
0.80699
0.802231
0.789162
0.770955
0.75301
0.738728
0.734881
0.738806
0.746149
0.754315
0.765023
0.77733
0.805945
1.76748
2.49661
2.49661
1.74664
0.855325
0.80248
0.775494
0.734219
0.701752
0.663026
0.629219
0.593171
0.559045
0.525239
0.493355
0.462656
0.434185
0.408276
0.385392
0.366085
0.351666
0.343756
0.338946
0.337588
0.343292
0.355786
0.372932
0.392376
0.418641
0.44302
0.47264
0.501517
0.532626
0.562919
0.593295
0.621858
0.650617
0.678012
0.702265
0.756717
1.67303
2.46383
0.305876
0.312123
0.326969
0.345587
0.368753
0.392585
0.422017
0.449264
0.480408
0.51037
0.541252
0.571414
0.600902
0.628778
0.656361
0.68207
0.704235
0.753535
1.71127
2.46383
0.296615
0.29501
0.295489
0.29501
0.296615
2.46383
1.71127
0.753535
0.704235
0.68207
0.656361
0.628778
0.600902
0.571414
0.541252
0.51037
0.480408
0.449264
0.422017
0.392585
0.368753
0.345587
0.326969
0.312123
0.305876
2.49661
1.74664
0.855325
0.80248
0.775494
0.734219
0.701752
0.663026
0.629219
0.593171
0.559045
0.525239
0.493355
0.462656
0.434185
0.408276
0.385392
0.366085
0.351666
0.343756
0.338946
0.337588
0.343292
0.355786
0.372932
0.392376
0.418641
0.44302
0.47264
0.501517
0.532626
0.562919
0.593295
0.621858
0.650617
0.678012
0.702265
0.756717
1.67303
2.46383
2.49661
1.76748
0.805945
0.77733
0.765023
0.754315
0.746149
0.738806
0.734881
0.738728
0.75301
0.770955
0.789162
0.802231
0.80699
0.769049
0.619832
0.802985
1.22768
1.72145
)
;
    }
    obstacle
    {
        type            calculated;
        value           nonuniform List<scalar> 
40
(
0.76759
0.0691121
0.0865912
0.0842254
0.0889073
0.0929805
0.0971131
0.0996458
0.0999796
0.091241
0.76759
0.0691121
0.0865912
0.0842254
0.0889073
0.0929805
0.0971131
0.0996458
0.0999796
0.091241
0.0987897
0.135588
0.187587
0.272327
0.414704
0.0987897
0.135588
0.187587
0.272327
0.414704
0.934951
1.39376
1.62686
1.54748
1.466
0.934951
1.39376
1.62686
1.54748
1.466
)
;
    }
    empty
    {
        type            empty;
    }
}


// ************************************************************************* //
