/*--------------------------------*- C++ -*----------------------------------*\
| =========                 |                                                 |
| \\      /  F ield         | OpenFOAM: The Open Source CFD Toolbox           |
|  \\    /   O peration     | Version:  v1912                                 |
|   \\  /    A nd           | Website:  www.openfoam.com                      |
|    \\/     M anipulation  |                                                 |
\*---------------------------------------------------------------------------*/
FoamFile
{
    version     2.0;
    format      ascii;
    class       volTensorField;
    location    "9.22";
    object      grad(U);
}
// * * * * * * * * * * * * * * * * * * * * * * * * * * * * * * * * * * * * * //

dimensions      [0 0 -1 0 0 0 0];


internalField   nonuniform List<tensor> 
1900
(
(9.30195 3.00349e-05 0 9.25672e-05 7.45997e-05 0 0 0 0)
(-7.51574 -3.11843e-05 0 2.2467e-05 2.12168e-05 0 0 0 0)
(-0.605516 -3.73152e-05 0 -5.91783e-06 -2.45749e-05 0 0 0 0)
(0.043594 -8.25208e-05 0 -1.93042e-05 -8.43446e-05 0 0 0 0)
(0.0366672 -0.000165414 0 -7.07079e-05 -0.000232537 0 0 0 0)
(0.0186806 -0.00023262 0 -0.000486134 -0.000467602 0 0 0 0)
(-0.020318 -0.00300976 0 -0.000690514 -0.000967649 0 0 0 0)
(-0.0457163 0.0215201 0 -0.00154541 -0.00458199 0 0 0 0)
(-0.130054 0.0623031 0 0.00140431 0.0356965 0 0 0 0)
(-0.0884132 0.204621 0 0.0731043 0.116374 0 0 0 0)
(9.30206 6.57817e-05 0 0.000152997 -2.18891e-05 0 0 0 0)
(-7.51584 -6.79904e-05 0 3.3498e-05 -8.1457e-06 0 0 0 0)
(-0.605557 -6.82461e-05 0 -1.27176e-05 9.29512e-06 0 0 0 0)
(0.0435292 -0.000125442 0 -4.36446e-05 2.91695e-05 0 0 0 0)
(0.0362004 -0.000217843 0 -0.000172179 9.18159e-05 0 0 0 0)
(0.0180608 -0.000502492 0 -0.000872496 0.000194584 0 0 0 0)
(-0.0213773 -0.00110463 0 -0.00130742 0.000324436 0 0 0 0)
(-0.0436215 0.015144 0 -0.0012545 0.00320434 0 0 0 0)
(-0.0554043 0.0586531 0 0.0107244 -0.0211957 0 0 0 0)
(0.048716 0.142766 0 0.114158 -0.0590988 0 0 0 0)
(9.30213 3.53298e-14 0 6.28837e-13 -0.000105421 0 0 0 0)
(-7.51591 -5.06505e-14 0 1.35525e-14 -2.61422e-05 0 0 0 0)
(-0.605593 1.73552e-14 0 -1.0842e-13 3.05597e-05 0 0 0 0)
(0.0434346 -3.95633e-14 0 -1.12622e-13 0.00011035 0 0 0 0)
(0.0358384 1.61696e-14 0 -5.14996e-14 0.000281443 0 0 0 0)
(0.0175454 1.797e-13 0 3.63208e-14 0.000546036 0 0 0 0)
(-0.0207 4.72056e-14 0 2.08709e-14 0.00128643 0 0 0 0)
(-0.0336845 -1.18176e-13 0 -1.23328e-13 0.00275529 0 0 0 0)
(-0.0146419 -7.9716e-14 0 -8.53809e-15 -0.0290016 0 0 0 0)
(0.0936164 -1.45004e-14 0 3.94379e-14 -0.114551 0 0 0 0)
(9.30206 -6.57817e-05 0 -0.000152997 -2.18891e-05 0 0 0 0)
(-7.51584 6.79904e-05 0 -3.3498e-05 -8.1457e-06 0 0 0 0)
(-0.605557 6.82461e-05 0 1.27176e-05 9.29512e-06 0 0 0 0)
(0.0435292 0.000125442 0 4.36446e-05 2.91695e-05 0 0 0 0)
(0.0362004 0.000217843 0 0.000172179 9.18159e-05 0 0 0 0)
(0.0180608 0.000502492 0 0.000872496 0.000194584 0 0 0 0)
(-0.0213773 0.00110463 0 0.00130742 0.000324436 0 0 0 0)
(-0.0436215 -0.015144 0 0.0012545 0.00320434 0 0 0 0)
(-0.0554043 -0.0586531 0 -0.0107244 -0.0211957 0 0 0 0)
(0.048716 -0.142766 0 -0.114158 -0.0590988 0 0 0 0)
(9.30195 -3.00349e-05 0 -9.25672e-05 7.45997e-05 0 0 0 0)
(-7.51574 3.11843e-05 0 -2.2467e-05 2.12168e-05 0 0 0 0)
(-0.605516 3.73152e-05 0 5.91783e-06 -2.45749e-05 0 0 0 0)
(0.043594 8.25208e-05 0 1.93042e-05 -8.43446e-05 0 0 0 0)
(0.0366672 0.000165414 0 7.07079e-05 -0.000232537 0 0 0 0)
(0.0186806 0.00023262 0 0.000486134 -0.000467602 0 0 0 0)
(-0.020318 0.00300976 0 0.000690514 -0.000967649 0 0 0 0)
(-0.0457163 -0.0215201 0 0.00154541 -0.00458199 0 0 0 0)
(-0.130054 -0.0623031 0 -0.00140431 0.0356965 0 0 0 0)
(-0.0884132 -0.204621 0 -0.0731043 0.116374 0 0 0 0)
(0.151921 0.456161 -2.57442e-17 0.278207 -0.273079 3.86164e-17 6.01057e-17 8.15005e-17 -6.97799e-33)
(0.50962 0.623992 0 0.304283 -0.508829 0 -1.69463e-16 -4.86744e-17 0)
(0.78695 1.01425 0 0.281018 -0.832359 0 -2.71308e-16 -8.87418e-17 0)
(1.47837 1.6143 0 0.324237 -1.48705 0 0 0 0)
(2.76945 1.88828 2.76971e-16 1.13342 -3.58342 -4.15456e-16 -2.32054e-15 -1.54703e-15 -7.5073e-32)
(0.19395 0.163887 0 0.191686 -0.207635 0 1.10378e-16 3.21551e-17 0)
(0.391923 0.186657 0 0.125205 -0.346832 0 1.69463e-16 4.86744e-17 0)
(0.743509 0.436907 0 0.0247362 -0.650721 0 2.71308e-16 8.87418e-17 0)
(1.69519 0.867124 0 -0.100505 -1.35725 0 0 0 0)
(3.71672 0.574313 0 -0.21025 -3.13107 0 0 0 0)
(0.241702 -1.2676e-13 0 7.07088e-14 -0.29652 0 0 0 0)
(0.409772 5.31207e-14 0 9.92663e-14 -0.383798 0 0 0 0)
(0.732223 6.16216e-14 0 3.28649e-13 -0.662954 0 0 0 0)
(1.5896 -1.2282e-13 0 2.04315e-13 -1.40857 0 0 0 0)
(3.44921 7.06379e-14 0 4.35617e-13 -3.69359 0 0 0 0)
(0.19395 -0.163887 0 -0.191686 -0.207635 0 1.10378e-16 -3.21551e-17 0)
(0.391923 -0.186657 0 -0.125205 -0.346832 0 1.69463e-16 -4.86744e-17 0)
(0.743509 -0.436907 0 -0.0247362 -0.650721 0 2.71308e-16 -8.87418e-17 0)
(1.69519 -0.867124 0 0.100505 -1.35725 0 0 0 0)
(3.71672 -0.574313 0 0.21025 -3.13107 0 0 0 0)
(0.151921 -0.456161 2.57442e-17 -0.278207 -0.273079 3.86164e-17 -2.80861e-16 1.45811e-16 -6.97799e-33)
(0.50962 -0.623992 0 -0.304283 -0.508829 0 -1.69463e-16 4.86744e-17 0)
(0.78695 -1.01425 0 -0.281018 -0.832359 0 -2.71308e-16 8.87418e-17 0)
(1.47837 -1.6143 1.00479e-16 -0.324237 -1.48705 1.50719e-16 -9.61845e-16 6.4123e-16 -2.72349e-32)
(2.76945 -1.88828 -2.76971e-16 -1.13342 -3.58342 -4.15456e-16 2.32054e-15 -1.54703e-15 -7.5073e-32)
(4.19302 -0.786928 -1.89514e-17 -0.017038 4.55903 -1.70563e-16 2.29058e-15 -1.17262e-16 5.13679e-33)
(2.30092 -0.318503 9.03464e-18 0.551387 2.7758 8.13117e-17 -2.56576e-15 1.99641e-16 2.44884e-33)
(1.35496 -0.00128439 0 0.741015 2.26745 0 0 0 0)
(1.02987 0.0818308 -5.25691e-18 0.666751 2.0928 -4.73122e-17 2.39156e-15 -2.0047e-16 1.42489e-33)
(0.624803 0.550744 4.64063e-18 0.512268 1.72497 4.17657e-17 -1.13406e-15 1.26007e-16 1.25785e-33)
(4.32959 -0.960225 0 -0.741783 -0.718534 0 -1.14503e-15 -1.00204e-17 0)
(2.5986 -0.205136 0 0.328797 1.00124 0 1.29118e-15 -5.80218e-17 0)
(1.43924 -0.0139287 0 0.458672 1.38831 0 0 0 0)
(0.979595 -0.0671585 0 0.369507 1.40183 0 -1.51006e-15 7.53462e-17 0)
(0.517306 0.244252 0 0.187393 1.39857 0 2.88783e-16 -7.98394e-18 0)
(4.33158 2.77665e-14 0 1.91652e-13 0.771633 0 0 0 0)
(2.57734 -1.25381e-14 0 2.31667e-13 1.85065 0 0 0 0)
(1.33446 -1.16624e-14 0 -1.60623e-14 1.98398 0 0 0 0)
(0.896593 7.18006e-14 0 1.27553e-13 1.75997 0 6.08475e-16 1.66874e-30 0)
(0.525392 -9.1184e-14 0 -1.83871e-13 2.1208 0 -5.77565e-16 -2.9023e-30 0)
(4.32959 0.960225 0 0.741783 -0.718534 0 -1.14503e-15 1.00204e-17 0)
(2.5986 0.205136 0 -0.328797 1.00124 0 1.29118e-15 5.80218e-17 0)
(1.43924 0.0139287 0 -0.458672 1.38831 0 0 0 0)
(0.979595 0.0671585 0 -0.369507 1.40183 0 -1.51006e-15 -7.53462e-17 0)
(0.517306 -0.244252 0 -0.187393 1.39857 0 2.88783e-16 7.98394e-18 0)
(4.19302 0.786928 0 0.017038 4.55903 0 1.14503e-15 -1.00204e-17 0)
(2.30092 0.318503 -9.03464e-18 -0.551387 2.7758 8.13117e-17 -1.6606e-17 8.35979e-17 2.44884e-33)
(1.35496 0.00128439 0 -0.741015 2.26745 0 0 0 0)
(1.02987 -0.0818308 5.25691e-18 -0.666751 2.0928 -4.73122e-17 2.00804e-17 -6.30284e-17 1.42489e-33)
(0.624803 -0.550744 -4.64063e-18 -0.512268 1.72497 4.17657e-17 1.13406e-15 1.26007e-16 1.25785e-33)
(0.187687 0.692783 0 -0.513774 -0.598203 0 0 0 0)
(0.0822586 0.134711 0 -1.00346 -0.317532 0 0 0 0)
(0.0557643 -0.246241 0 -1.37375 0.0309349 0 0 0 0)
(0.0997988 -0.149189 0 -1.04476 -0.057302 0 0 0 0)
(0.0743459 -0.0354774 0 -0.975277 0.00664508 0 0 0 0)
(0.105806 0.0205986 0 -0.911289 0.0633136 0 0 0 0)
(0.122995 0.0207708 0 -0.791057 0.129769 0 0 0 0)
(0.141531 0.028251 0 -0.65254 0.190992 0 0 0 0)
(0.158048 0.0281498 0 -0.524886 0.196035 0 0 0 0)
(0.151485 0.00394317 0 -0.397206 0.214467 0 0 0 0)
(0.117865 0.0102239 0 -0.323539 0.226212 0 0 0 0)
(0.124416 0.0036808 0 -0.289465 0.17232 0 0 0 0)
(0.200587 -0.0199017 0 -0.230427 0.163996 0 0 0 0)
(0.0946392 -0.031166 0 -0.181532 0.217806 0 0 0 0)
(-0.158373 -0.0380475 0 -0.122502 0.173882 0 0 0 0)
(-0.701578 -0.0457192 0 -0.181791 0.173634 0 0 0 0)
(-1.23801 0.00607085 0 -0.469261 0.202218 0 0 0 0)
(-0.812326 0.0542879 0 -0.323542 0.160771 0 0 0 0)
(-0.171777 0.0444371 0 -0.324874 0.120105 0 0 0 0)
(-0.0147684 0.0215546 0 -0.211844 0.0855358 0 0 0 0)
(0.0162427 -0.0361254 0 -0.106038 0.06881 0 0 0 0)
(-0.0412497 -0.0767259 0 -0.0240579 0.129604 0 0 0 0)
(-0.170658 -0.0856015 0 0.0144921 0.26508 0 0 0 0)
(-0.314991 -0.0585524 0 0.0761336 0.424012 0 0 0 0)
(-0.411628 -0.040475 0 0.168498 0.501851 0 0 0 0)
(-0.36101 0.00228558 0 0.197608 0.542389 0 0 0 0)
(-1.46298 0.0250201 0 0.0943067 0.422744 0 0 0 0)
(-2.34185 0.0474581 0 -0.13851 0.398313 0 0 0 0)
(-1.65941 0.0770719 0 -0.157243 0.331344 0 0 0 0)
(-1.95925 0.0405876 0 -0.0562198 0.22549 0 0 0 0)
(-2.32796 0.0213756 0 0.0412661 0.172132 0 0 0 0)
(-1.1151 0.0093654 0 0.0227536 0.127768 0 0 0 0)
(-0.139488 -0.0011973 0 0.0130735 0.127963 0 0 0 0)
(-0.060082 -0.00322472 0 0.00329609 0.130742 0 0 0 0)
(-0.0623693 -0.00280958 0 -0.0131536 0.135541 0 0 0 0)
(-0.060145 0.00231291 0 -0.0323056 0.137089 0 0 0 0)
(-0.0431062 0.00761112 0 -0.0437534 0.127659 0 0 0 0)
(-0.0231333 0.00785101 0 -0.0475547 0.11269 0 0 0 0)
(-0.00595012 0.00490235 0 -0.0461223 0.101922 0 0 0 0)
(0.00079935 0.00162476 0 -0.0432479 0.0962364 0 0 0 0)
(-0.036117 0.516443 0 0.198588 0.146497 0 0 0 0)
(-0.173355 0.210471 0 -0.361129 -0.795987 0 0 0 0)
(0.0319704 -0.1241 0 -0.804324 -0.316571 0 0 0 0)
(0.172953 -0.172788 0 -0.652307 0.0504652 0 0 0 0)
(0.0948961 -0.0972668 0 -0.589345 0.196268 0 0 0 0)
(0.126937 -0.0613995 0 -0.523287 0.172419 0 0 0 0)
(0.154755 -0.0314395 0 -0.438272 0.12546 0 0 0 0)
(0.174664 -0.00474629 0 -0.354466 0.101019 0 0 0 0)
(0.190566 0.00941643 0 -0.287386 0.0283472 0 0 0 0)
(0.175903 0.00369399 0 -0.218335 0.00425414 0 0 0 0)
(0.130951 0.0200192 0 -0.193592 0.0147926 0 0 0 0)
(0.137024 0.017923 0 -0.17596 -0.0308904 0 0 0 0)
(0.211266 -7.53691e-05 0 -0.14346 0.00213987 0 0 0 0)
(0.110201 -0.000328581 0 -0.131212 0.0375218 0 0 0 0)
(-0.154511 -0.00678814 0 -0.0852964 0.109273 0 0 0 0)
(-0.751693 -0.0220734 0 -0.124715 0.16831 0 0 0 0)
(-1.25951 0.0101805 0 -0.322463 0.266433 0 0 0 0)
(-0.793745 0.0383232 0 -0.223233 0.147442 0 0 0 0)
(-0.155717 0.0351328 0 -0.226315 0.079818 0 0 0 0)
(0.0193557 0.0252617 0 -0.146373 -0.00531086 0 0 0 0)
(0.0431752 -0.00877071 0 -0.0694239 0.00572405 0 0 0 0)
(-0.0236921 -0.0276142 0 -0.0201723 0.11887 0 0 0 0)
(-0.147002 -0.0366218 0 0.00429942 0.269469 0 0 0 0)
(-0.2749 -0.0311096 0 0.0215886 0.413126 0 0 0 0)
(-0.371653 -0.0253067 0 0.0744078 0.470743 0 0 0 0)
(-0.371827 0.00310959 0 0.119542 0.552259 0 0 0 0)
(-1.54071 0.0177069 0 0.040255 0.462887 0 0 0 0)
(-2.38994 0.0265638 0 -0.0662618 0.466252 0 0 0 0)
(-1.63897 0.0378826 0 -0.0166202 0.299749 0 0 0 0)
(-1.93314 0.0175174 0 0.0406802 0.201317 0 0 0 0)
(-2.32413 0.0117234 0 0.0470746 0.160229 0 0 0 0)
(-1.12039 0.00600297 0 0.0221981 0.127839 0 0 0 0)
(-0.142906 -0.000715553 0 0.0185628 0.128036 0 0 0 0)
(-0.0654642 -0.00166427 0 0.0133747 0.131954 0 0 0 0)
(-0.0688537 -0.00159345 0 0.00490814 0.139121 0 0 0 0)
(-0.0648905 0.000927342 0 -0.00451901 0.141612 0 0 0 0)
(-0.0449824 0.00358037 0 -0.00992247 0.13117 0 0 0 0)
(-0.023264 0.00370304 0 -0.0128875 0.115449 0 0 0 0)
(-0.00533579 0.0023859 0 -0.0150258 0.104182 0 0 0 0)
(0.00121347 0.000848184 0 -0.0175074 0.0985971 0 0 0 0)
(0.0321425 -1.67905e-13 0 -5.51957e-14 0.325031 0 0 0 0)
(-0.209498 -1.01499e-13 0 -5.51957e-13 -1.16871 0 0 0 0)
(-0.0289423 -1.79195e-13 0 4.33681e-14 -1.12196 0 0 0 0)
(0.162338 -1.77256e-13 0 -4.25796e-13 -0.315523 0 0 0 0)
(0.111879 -9.10976e-14 0 -2.05013e-13 0.0659596 0 0 0 0)
(0.149754 1.10651e-14 0 3.94255e-14 0.353187 0 0 0 0)
(0.172106 8.54455e-14 0 -5.51957e-14 0.488081 0 0 0 0)
(0.185425 1.09922e-13 0 -2.60209e-13 0.569333 0 0 0 0)
(0.19765 1.10506e-13 0 -4.65221e-13 0.520712 0 0 0 0)
(0.17877 5.52248e-14 0 -3.31174e-13 0.504595 0 0 0 0)
(0.130192 1.14317e-13 0 -4.80992e-13 0.495316 0 0 0 0)
(0.139 -4.76475e-14 0 -4.65221e-13 0.366963 0 0 0 0)
(0.213604 -3.05798e-13 0 -3.23289e-13 0.372096 0 0 0 0)
(0.11156 5.92603e-14 0 -7.0966e-14 0.367481 0 0 0 0)
(-0.156482 3.75957e-13 0 -2.44438e-13 0.374355 0 0 0 0)
(-0.770572 4.99791e-13 0 -8.67362e-14 0.41415 0 0 0 0)
(-1.26667 -2.94042e-13 0 4.33681e-13 0.526109 0 0 0 0)
(-0.784356 -6.25659e-13 0 -2.99634e-13 0.344159 0 0 0 0)
(-0.149417 4.19782e-13 0 5.67728e-13 0.262637 0 0 0 0)
(0.0308727 4.68955e-13 0 6.26866e-13 0.102621 0 0 0 0)
(0.0529557 -1.20724e-12 0 1.17488e-12 0.0889633 0 0 0 0)
(-0.019803 -2.29796e-13 0 -8.12166e-13 0.162919 0 0 0 0)
(-0.158509 -1.82711e-12 0 -5.17263e-12 0.278811 0 0 0 0)
(-0.294596 -7.03167e-12 0 -3.08032e-11 0.414695 0 0 0 0)
(-0.383132 2.06593e-12 0 -1.93027e-11 0.492689 0 0 0 0)
(-0.370946 9.07527e-12 0 -2.31546e-11 0.588678 0 0 0 0)
(-1.51703 4.01555e-12 0 -3.46945e-13 0.471311 0 0 0 0)
(-2.3584 -3.85673e-12 0 8.87469e-12 0.466943 0 0 0 0)
(-1.6283 -5.06542e-12 0 -5.15095e-12 0.288685 0 0 0 0)
(-1.94072 3.65927e-12 0 -2.98402e-11 0.2065 0 0 0 0)
(-2.33334 4.41255e-12 0 -2.7864e-11 0.168252 0 0 0 0)
(-1.1234 1.33114e-13 0 -2.17038e-12 0.125902 0 0 0 0)
(-0.142055 -1.79214e-12 0 6.80288e-12 0.126982 0 0 0 0)
(-0.0640542 -1.46653e-12 0 1.12796e-11 0.130822 0 0 0 0)
(-0.0675748 -1.12064e-12 0 1.02329e-11 0.138424 0 0 0 0)
(-0.0644594 -1.2235e-12 0 4.74289e-12 0.141777 0 0 0 0)
(-0.0455407 4.31995e-13 0 4.06083e-13 0.132048 0 0 0 0)
(-0.0246179 1.2628e-12 0 -1.18079e-12 0.117162 0 0 0 0)
(-0.0072941 -7.35328e-15 0 -1.64996e-12 0.10659 0 0 0 0)
(7.74153e-05 -4.74576e-13 0 -1.34244e-12 0.100759 0 0 0 0)
(-0.036117 -0.516443 0 -0.198588 0.146497 0 0 0 0)
(-0.173355 -0.210471 0 0.361129 -0.795987 0 0 0 0)
(0.0319704 0.1241 0 0.804324 -0.316571 0 0 0 0)
(0.172953 0.172788 0 0.652307 0.0504652 0 0 0 0)
(0.0948961 0.0972668 0 0.589345 0.196268 0 0 0 0)
(0.126937 0.0613995 0 0.523287 0.172419 0 0 0 0)
(0.154755 0.0314395 0 0.438272 0.12546 0 0 0 0)
(0.174664 0.00474629 0 0.354466 0.101019 0 0 0 0)
(0.190566 -0.00941643 0 0.287386 0.0283472 0 0 0 0)
(0.175903 -0.00369399 0 0.218335 0.00425414 0 0 0 0)
(0.130951 -0.0200192 0 0.193592 0.0147926 0 0 0 0)
(0.137024 -0.017923 0 0.17596 -0.0308904 0 0 0 0)
(0.211266 7.53691e-05 0 0.14346 0.00213987 0 0 0 0)
(0.110201 0.000328581 0 0.131212 0.0375218 0 0 0 0)
(-0.154511 0.00678814 0 0.0852964 0.109273 0 0 0 0)
(-0.751693 0.0220734 0 0.124715 0.16831 0 0 0 0)
(-1.25951 -0.0101805 0 0.322463 0.266433 0 0 0 0)
(-0.793745 -0.0383232 0 0.223233 0.147442 0 0 0 0)
(-0.155717 -0.0351328 0 0.226315 0.079818 0 0 0 0)
(0.0193557 -0.0252617 0 0.146373 -0.00531086 0 0 0 0)
(0.0431752 0.00877071 0 0.0694239 0.00572405 0 0 0 0)
(-0.0236921 0.0276142 0 0.0201723 0.11887 0 0 0 0)
(-0.147002 0.0366218 0 -0.00429942 0.269469 0 0 0 0)
(-0.2749 0.0311096 0 -0.0215886 0.413126 0 0 0 0)
(-0.371653 0.0253067 0 -0.0744078 0.470743 0 0 0 0)
(-0.371827 -0.00310959 0 -0.119542 0.552259 0 0 0 0)
(-1.54071 -0.0177069 0 -0.040255 0.462887 0 0 0 0)
(-2.38994 -0.0265638 0 0.0662618 0.466252 0 0 0 0)
(-1.63897 -0.0378826 0 0.0166202 0.299749 0 0 0 0)
(-1.93314 -0.0175174 0 -0.0406802 0.201317 0 0 0 0)
(-2.32413 -0.0117234 0 -0.0470746 0.160229 0 0 0 0)
(-1.12039 -0.00600297 0 -0.0221981 0.127839 0 0 0 0)
(-0.142906 0.000715553 0 -0.0185628 0.128036 0 0 0 0)
(-0.0654642 0.00166427 0 -0.0133747 0.131954 0 0 0 0)
(-0.0688537 0.00159345 0 -0.00490814 0.139121 0 0 0 0)
(-0.0648905 -0.000927342 0 0.00451901 0.141612 0 0 0 0)
(-0.0449824 -0.00358037 0 0.00992247 0.13117 0 0 0 0)
(-0.023264 -0.00370304 0 0.0128875 0.115449 0 0 0 0)
(-0.00533579 -0.0023859 0 0.0150258 0.104182 0 0 0 0)
(0.00121347 -0.000848184 0 0.0175074 0.0985971 0 0 0 0)
(0.187687 -0.692783 0 0.513774 -0.598203 0 0 0 0)
(0.0822586 -0.134711 0 1.00346 -0.317532 0 0 0 0)
(0.0557643 0.246241 0 1.37375 0.0309349 0 0 0 0)
(0.0997988 0.149189 0 1.04476 -0.057302 0 0 0 0)
(0.0743459 0.0354774 0 0.975277 0.00664508 0 0 0 0)
(0.105806 -0.0205986 0 0.911289 0.0633136 0 0 0 0)
(0.122995 -0.0207708 0 0.791057 0.129769 0 0 0 0)
(0.141531 -0.028251 0 0.65254 0.190992 0 0 0 0)
(0.158048 -0.0281498 0 0.524886 0.196035 0 0 0 0)
(0.151485 -0.00394317 0 0.397206 0.214467 0 0 0 0)
(0.117865 -0.0102239 0 0.323539 0.226212 0 0 0 0)
(0.124416 -0.0036808 0 0.289465 0.17232 0 0 0 0)
(0.200587 0.0199017 0 0.230427 0.163996 0 0 0 0)
(0.0946392 0.031166 0 0.181532 0.217806 0 0 0 0)
(-0.158373 0.0380475 0 0.122502 0.173882 0 0 0 0)
(-0.701578 0.0457192 0 0.181791 0.173634 0 0 0 0)
(-1.23801 -0.00607085 0 0.469261 0.202218 0 0 0 0)
(-0.812326 -0.0542879 0 0.323542 0.160771 0 0 0 0)
(-0.171777 -0.0444371 0 0.324874 0.120105 0 0 0 0)
(-0.0147684 -0.0215546 0 0.211844 0.0855358 0 0 0 0)
(0.0162427 0.0361254 0 0.106038 0.06881 0 0 0 0)
(-0.0412497 0.0767259 0 0.0240579 0.129604 0 0 0 0)
(-0.170658 0.0856015 0 -0.0144921 0.26508 0 0 0 0)
(-0.314991 0.0585524 0 -0.0761336 0.424012 0 0 0 0)
(-0.411628 0.040475 0 -0.168498 0.501851 0 0 0 0)
(-0.36101 -0.00228558 0 -0.197608 0.542389 0 0 0 0)
(-1.46298 -0.0250201 0 -0.0943067 0.422744 0 0 0 0)
(-2.34185 -0.0474581 0 0.13851 0.398313 0 0 0 0)
(-1.65941 -0.0770719 0 0.157243 0.331344 0 0 0 0)
(-1.95925 -0.0405876 0 0.0562198 0.22549 0 0 0 0)
(-2.32796 -0.0213756 0 -0.0412661 0.172132 0 0 0 0)
(-1.1151 -0.0093654 0 -0.0227536 0.127768 0 0 0 0)
(-0.139488 0.0011973 0 -0.0130735 0.127963 0 0 0 0)
(-0.060082 0.00322472 0 -0.00329609 0.130742 0 0 0 0)
(-0.0623693 0.00280958 0 0.0131536 0.135541 0 0 0 0)
(-0.060145 -0.00231291 0 0.0323056 0.137089 0 0 0 0)
(-0.0431062 -0.00761112 0 0.0437534 0.127659 0 0 0 0)
(-0.0231333 -0.00785101 0 0.0475547 0.11269 0 0 0 0)
(-0.00595012 -0.00490235 0 0.0461223 0.101922 0 0 0 0)
(0.00079935 -0.00162476 0 0.0432479 0.0962364 0 0 0 0)
(0.0363816 0.0245824 0 1.1533 -0.234786 0 0 0 0)
(0.0705277 0.0965717 0 1.01338 0.200389 0 0 0 0)
(0.030368 0.146111 0 1.06416 0.0104488 0 0 0 0)
(0.00758901 0.184838 0 0.94612 -0.0833459 0 0 0 0)
(0.0349323 0.24437 0 0.915666 -0.0844215 0 0 0 0)
(0.0358143 0.233442 0 0.841787 -0.00568541 0 0 0 0)
(0.0291717 0.171897 0 0.751071 0.119413 0 0 0 0)
(0.0460121 0.0844663 0 0.638483 0.212348 0 0 0 0)
(0.0680014 0.026969 0 0.52123 0.25948 0 0 0 0)
(0.077837 0.0155237 0 0.412795 0.317136 0 0 0 0)
(0.0784983 -0.0577825 0 0.329895 0.356518 0 0 0 0)
(0.093195 -0.0734169 0 0.283793 0.328938 0 0 0 0)
(0.155911 0.00568279 0 0.220672 0.311593 0 0 0 0)
(0.0604966 -0.0291259 0 0.155566 0.347672 0 0 0 0)
(-0.149885 -0.0570629 0 0.127533 0.24025 0 0 0 0)
(-0.592125 0.0125074 0 0.174243 0.193251 0 0 0 0)
(-1.19545 -0.0230009 0 0.410775 0.155656 0 0 0 0)
(-0.86283 -0.0713717 0 0.280109 0.157626 0 0 0 0)
(-0.207214 -0.0715679 0 0.254659 0.158978 0 0 0 0)
(-0.0784584 -0.0617238 0 0.162699 0.152615 0 0 0 0)
(-0.043477 0.00478468 0 0.0817842 0.144528 0 0 0 0)
(-0.0789963 0.0939438 0 0.00614841 0.182797 0 0 0 0)
(-0.182498 0.164663 0 -0.0590189 0.290994 0 0 0 0)
(-0.325148 0.147898 0 -0.104136 0.436884 0 0 0 0)
(-0.40163 0.0820227 0 -0.126634 0.502929 0 0 0 0)
(-0.337796 -0.0536839 0 -0.0902017 0.519745 0 0 0 0)
(-1.41975 -0.0996254 0 -0.0723987 0.377683 0 0 0 0)
(-2.28774 -0.0597377 0 -0.0455495 0.343357 0 0 0 0)
(-1.66694 -0.100978 0 -0.000267435 0.386064 0 0 0 0)
(-2.02748 -0.0907118 0 -0.0334965 0.29527 0 0 0 0)
(-2.36923 -0.0618611 0 -0.106613 0.189996 0 0 0 0)
(-1.10883 -0.0298209 0 -0.0111088 0.119639 0 0 0 0)
(-0.134653 0.00202419 0 0.00199744 0.125186 0 0 0 0)
(-0.0552359 0.00461329 0 0.00570845 0.126969 0 0 0 0)
(-0.0540192 0.00416857 0 0.0112529 0.130517 0 0 0 0)
(-0.051183 -0.00426915 0 0.022771 0.131874 0 0 0 0)
(-0.0375863 -0.0142249 0 0.031461 0.126298 0 0 0 0)
(-0.0219291 -0.0150509 0 0.0348328 0.114815 0 0 0 0)
(-0.00732703 -0.0097969 0 0.0321726 0.105588 0 0 0 0)
(-0.000110767 -0.00351693 0 0.0275378 0.0986667 0 0 0 0)
(0.000978063 -0.0150317 0 0.582526 0.635406 0 0 0 0)
(0.00264585 -0.0224145 0 0.554323 0.570501 0 0 0 0)
(0.00457224 0.0265168 0 0.520849 0.429651 0 0 0 0)
(0.00615206 0.0386532 0 0.517654 0.398627 0 0 0 0)
(-0.00505855 -0.00170091 0 0.489496 0.328836 0 0 0 0)
(-0.0152725 0.0395994 0 0.453108 0.185334 0 0 0 0)
(-0.0226051 0.0860196 0 0.425639 0.125964 0 0 0 0)
(-0.0287311 0.0462798 0 0.387821 0.0716834 0 0 0 0)
(-0.0111476 0.043271 0 0.342768 0.0263657 0 0 0 0)
(0.00659916 0.0791269 0 0.295624 0.057725 0 0 0 0)
(0.014664 0.0266516 0 0.23946 0.106621 0 0 0 0)
(0.0359065 -0.0095773 0 0.184907 0.139574 0 0 0 0)
(0.100979 0.0455794 0 0.134599 0.20008 0 0 0 0)
(0.0231956 -0.00525187 0 0.0391868 0.28539 0 0 0 0)
(-0.144926 -0.0597577 0 0.0585825 0.209678 0 0 0 0)
(-0.487329 -0.0179897 0 0.0886137 0.0976738 0 0 0 0)
(-1.15882 -0.0313211 0 0.178678 0.0272596 0 0 0 0)
(-0.935683 -0.0419255 0 0.117151 0.135731 0 0 0 0)
(-0.265915 -0.0347178 0 0.0837572 0.176972 0 0 0 0)
(-0.147205 -0.0139394 0 0.0328922 0.215476 0 0 0 0)
(-0.102591 0.0820163 0 -0.00229565 0.217764 0 0 0 0)
(-0.156692 0.208633 0 -0.0274388 0.257123 0 0 0 0)
(-0.270583 0.288054 0 -0.0542492 0.372884 0 0 0 0)
(-0.374701 0.21487 0 -0.091745 0.482488 0 0 0 0)
(-0.403561 0.0980437 0 -0.10261 0.487881 0 0 0 0)
(-0.321196 -0.0954157 0 -0.117116 0.504473 0 0 0 0)
(-1.44313 -0.154988 0 -0.188424 0.39999 0 0 0 0)
(-2.30136 -0.0327976 0 -0.296583 0.370404 0 0 0 0)
(-1.64376 -0.110592 0 -0.233704 0.345247 0 0 0 0)
(-2.02515 -0.202647 0 -0.222915 0.243103 0 0 0 0)
(-2.28426 -0.16891 0 -0.235204 0.127906 0 0 0 0)
(-1.01381 -0.0608502 0 -0.0071343 0.0973525 0 0 0 0)
(-0.125875 0.0078167 0 0.0131672 0.109468 0 0 0 0)
(-0.0537617 0.00761681 0 0.013815 0.120487 0 0 0 0)
(-0.0504048 0.00680818 0 0.0110576 0.12721 0 0 0 0)
(-0.0454774 -0.00532922 0 0.0141005 0.128981 0 0 0 0)
(-0.034443 -0.0205036 0 0.017721 0.126867 0 0 0 0)
(-0.0230933 -0.0239471 0 0.0202408 0.118184 0 0 0 0)
(-0.0122414 -0.0178388 0 0.0181082 0.10961 0 0 0 0)
(-0.00317881 -0.0072796 0 0.0130291 0.100857 0 0 0 0)
(0.00920448 -0.0379627 0 0.111334 0.514652 0 0 0 0)
(0.0110942 -0.101701 0 0.107515 0.519689 0 0 0 0)
(-0.00496779 -0.019513 0 0.114199 0.510694 0 0 0 0)
(-0.0226239 0.0876889 0 0.122897 0.486414 0 0 0 0)
(-0.0272666 0.0388323 0 0.0966382 0.455596 0 0 0 0)
(-0.0257205 0.0379474 0 0.0694858 0.424333 0 0 0 0)
(-0.0337405 0.0623795 0 0.0503629 0.413707 0 0 0 0)
(-0.033846 -0.0115106 0 0.0540301 0.372761 0 0 0 0)
(-0.020843 0.0135182 0 0.0647922 0.303813 0 0 0 0)
(-0.0217143 0.0928605 0 0.0617954 0.292004 0 0 0 0)
(-0.0281928 0.0210898 0 0.0503058 0.287204 0 0 0 0)
(-0.00785251 0.0166435 0 0.0414083 0.270964 0 0 0 0)
(0.0154895 0.146197 0 0.02576 0.326347 0 0 0 0)
(-0.0127558 -0.019877 0 -0.0864909 0.371084 0 0 0 0)
(-0.102255 -0.237953 0 -0.121274 0.30351 0 0 0 0)
(-0.476396 -0.163277 0 -0.132522 0.232102 0 0 0 0)
(-1.16795 0.0136719 0 -0.1514 0.196573 0 0 0 0)
(-0.954299 0.0728965 0 -0.049987 0.242804 0 0 0 0)
(-0.288408 0.00527814 0 -0.0289471 0.286949 0 0 0 0)
(-0.161382 -0.0224148 0 -0.0529102 0.309648 0 0 0 0)
(-0.101614 0.0449171 0 -0.0727645 0.287363 0 0 0 0)
(-0.129061 0.243423 0 -0.107442 0.309237 0 0 0 0)
(-0.244466 0.381832 0 -0.146614 0.428318 0 0 0 0)
(-0.37175 0.258713 0 -0.185379 0.505599 0 0 0 0)
(-0.426078 0.103208 0 -0.192985 0.50205 0 0 0 0)
(-0.420489 -0.138379 0 -0.198622 0.50984 0 0 0 0)
(-1.59269 -0.228819 0 -0.35897 0.389924 0 0 0 0)
(-2.33138 -0.11249 0 -0.420609 0.295848 0 0 0 0)
(-1.59595 -0.22365 0 -0.311012 0.166583 0 0 0 0)
(-2.02892 -0.300149 0 -0.300922 0.0040755 0 0 0 0)
(-2.16129 -0.202312 0 -0.296548 -0.0265672 0 0 0 0)
(-0.869488 -0.0475883 0 0.00122245 -0.000892593 0 0 0 0)
(-0.114465 0.024317 0 0.0246848 0.0387654 0 0 0 0)
(-0.0572688 0.0217103 0 0.0209291 0.0745114 0 0 0 0)
(-0.0537441 0.0123544 0 0.0149398 0.101825 0 0 0 0)
(-0.0447619 -0.0046001 0 0.00800961 0.119349 0 0 0 0)
(-0.0316693 -0.0246298 0 0.00632488 0.124801 0 0 0 0)
(-0.0215559 -0.0316799 0 0.00772749 0.118884 0 0 0 0)
(-0.0142765 -0.026494 0 0.00887506 0.111698 0 0 0 0)
(-0.00500524 -0.0119524 0 0.0071041 0.101768 0 0 0 0)
(-0.0027024 -0.0101785 0 -0.157927 0.380409 0 0 0 0)
(0.00540649 -0.0262292 0 -0.160875 0.396466 0 0 0 0)
(0.0193949 -0.00554811 0 -0.156419 0.453287 0 0 0 0)
(-0.0107702 -0.0144408 0 -0.147373 0.44902 0 0 0 0)
(-0.0565275 -0.0615237 0 -0.114805 0.396377 0 0 0 0)
(-0.0598652 -0.000766752 0 -0.0885821 0.378644 0 0 0 0)
(-0.0374988 0.0363224 0 -0.0828617 0.345347 0 0 0 0)
(-0.0148264 -0.0596182 0 -0.0632896 0.295996 0 0 0 0)
(-0.00366467 -0.034549 0 -0.0346577 0.292509 0 0 0 0)
(-0.00736047 0.0631226 0 -0.034795 0.284128 0 0 0 0)
(-0.00498178 0.00637605 0 -0.0300907 0.229668 0 0 0 0)
(0.0122533 0.0281419 0 -0.00146288 0.215586 0 0 0 0)
(-0.0222696 0.142059 0 -0.0297664 0.269952 0 0 0 0)
(-0.118491 -0.0272584 0 -0.164991 0.163593 0 0 0 0)
(-0.189283 -0.193686 0 -0.248316 0.169067 0 0 0 0)
(-0.51636 -0.121038 0 -0.30668 0.184278 0 0 0 0)
(-1.07929 -0.0210086 0 -0.366955 0.230712 0 0 0 0)
(-0.817682 0.0451641 0 -0.0614444 0.172399 0 0 0 0)
(-0.268732 0.0296962 0 -0.0162701 0.213642 0 0 0 0)
(-0.189428 -0.013541 0 -0.0450858 0.232122 0 0 0 0)
(-0.15514 0.0816201 0 -0.0926944 0.270164 0 0 0 0)
(-0.227855 0.344463 0 -0.208189 0.364183 0 0 0 0)
(-0.345686 0.477275 0 -0.330005 0.498279 0 0 0 0)
(-0.419387 0.285921 0 -0.414989 0.52981 0 0 0 0)
(-0.416322 0.10213 0 -0.41889 0.470839 0 0 0 0)
(-0.481145 -0.203465 0 -0.400242 0.394849 0 0 0 0)
(-1.65705 -0.361198 0 -0.595954 0.204654 0 0 0 0)
(-2.25514 -0.248016 0 -0.642775 -0.158177 0 0 0 0)
(-1.52842 -0.391754 0 -0.452672 -0.27316 0 0 0 0)
(-2.01121 -0.388774 0 -0.434927 -0.369885 0 0 0 0)
(-1.99311 -0.173698 0 -0.274898 -0.414457 0 0 0 0)
(-0.704258 0.00210669 0 0.0739283 -0.294413 0 0 0 0)
(-0.106885 0.0804787 0 0.100639 -0.171339 0 0 0 0)
(-0.0631524 0.0683836 0 0.0770004 -0.0659736 0 0 0 0)
(-0.0628546 0.0500152 0 0.0504812 0.0160233 0 0 0 0)
(-0.0537791 0.0168111 0 0.0319201 0.0689571 0 0 0 0)
(-0.0347149 -0.020952 0 0.0254554 0.10232 0 0 0 0)
(-0.0206359 -0.0365736 0 0.0173941 0.114494 0 0 0 0)
(-0.0128422 -0.0343318 0 0.0163631 0.110155 0 0 0 0)
(-0.00488538 -0.0168484 0 0.0156375 0.101649 0 0 0 0)
(0.00636352 -0.0224892 0 -0.28973 0.306035 0 0 0 0)
(0.0125477 -0.0314739 0 -0.282285 0.301389 0 0 0 0)
(0.00804369 0.0311292 0 -0.291289 0.330486 0 0 0 0)
(0.0174762 0.0328489 0 -0.307036 0.341126 0 0 0 0)
(0.0293861 -0.0289842 0 -0.267501 0.341343 0 0 0 0)
(0.00506146 -0.0112268 0 -0.213372 0.369599 0 0 0 0)
(-0.00936768 -0.0172635 0 -0.171329 0.328446 0 0 0 0)
(0.0126052 -0.0624275 0 -0.142344 0.278906 0 0 0 0)
(0.00661549 0.00208239 0 -0.135522 0.347134 0 0 0 0)
(-0.0173134 0.0323044 0 -0.141263 0.358851 0 0 0 0)
(0.00392717 -0.0449605 0 -0.121035 0.274056 0 0 0 0)
(-0.00754006 0.0554629 0 -0.074813 0.319436 0 0 0 0)
(-0.142092 0.096095 0 -0.19729 0.308173 0 0 0 0)
(-0.223358 -0.117093 0 -0.248475 0.153136 0 0 0 0)
(-0.238791 -0.218021 0 -0.243234 0.167125 0 0 0 0)
(-0.590721 -0.103874 0 -0.343321 0.168637 0 0 0 0)
(-0.931629 0.00222503 0 -0.415096 0.226771 0 0 0 0)
(-0.616367 0.0564464 0 -0.028085 0.227048 0 0 0 0)
(-0.272644 0.0628297 0 -0.035655 0.278435 0 0 0 0)
(-0.235027 0.0320528 0 -0.0722707 0.300997 0 0 0 0)
(-0.258786 0.172176 0 -0.149757 0.381935 0 0 0 0)
(-0.357742 0.463243 0 -0.291955 0.564526 0 0 0 0)
(-0.443746 0.541437 0 -0.446374 0.601447 0 0 0 0)
(-0.457403 0.232271 0 -0.515356 0.492266 0 0 0 0)
(-0.411868 -0.0268446 0 -0.523175 0.383018 0 0 0 0)
(-0.591115 -0.394884 0 -0.467705 0.159662 0 0 0 0)
(-1.8264 -0.761735 0 -1.21124 -0.359942 0 0 0 0)
(-2.19331 -0.572929 0 -0.825201 -0.788734 0 0 0 0)
(-1.39566 -0.427659 0 -0.605707 -0.671522 0 0 0 0)
(-1.85761 -0.436308 0 -0.555087 -0.686999 0 0 0 0)
(-1.67094 -0.129584 0 -0.184473 -0.722604 0 0 0 0)
(-0.507606 0.186689 0 0.204767 -0.557604 0 0 0 0)
(-0.111505 0.24445 0 0.231005 -0.442729 0 0 0 0)
(-0.105603 0.202259 0 0.199216 -0.312192 0 0 0 0)
(-0.0971852 0.142378 0 0.154084 -0.175053 0 0 0 0)
(-0.0688777 0.0785588 0 0.109629 -0.0538213 0 0 0 0)
(-0.045667 0.019251 0 0.0660446 0.0345805 0 0 0 0)
(-0.0303175 -0.02413 0 0.0360026 0.0891058 0 0 0 0)
(-0.0159693 -0.0388718 0 0.019404 0.107405 0 0 0 0)
(-0.00570447 -0.0201493 0 0.0114359 0.103482 0 0 0 0)
(0.00447187 -0.0146555 0 -0.331845 0.293782 0 0 0 0)
(0.00390432 -0.00266705 0 -0.336861 0.311092 0 0 0 0)
(-0.00445618 0.0327445 0 -0.34798 0.337808 0 0 0 0)
(0.0121526 -0.00397877 0 -0.35288 0.308254 0 0 0 0)
(0.0337307 -0.0340859 0 -0.357152 0.297616 0 0 0 0)
(0.0328097 -0.0131945 0 -0.359784 0.316756 0 0 0 0)
(0.0309461 -0.0510728 0 -0.337088 0.29599 0 0 0 0)
(0.0196782 -0.0416094 0 -0.317625 0.280366 0 0 0 0)
(-0.00262279 0.0424884 0 -0.32586 0.319653 0 0 0 0)
(0.00660018 -0.00729809 0 -0.320954 0.302605 0 0 0 0)
(0.0590521 -0.0316053 0 -0.279757 0.27185 0 0 0 0)
(-0.061229 0.0610181 0 -0.223407 0.365023 0 0 0 0)
(-0.189616 -0.018194 0 -0.302791 0.271943 0 0 0 0)
(-0.162764 -0.163178 0 -0.302894 0.156367 0 0 0 0)
(-0.28068 -0.178748 0 -0.276211 0.153737 0 0 0 0)
(-0.681973 -0.0635608 0 -0.373375 0.216566 0 0 0 0)
(-0.775517 0.0352785 0 -0.375239 0.232912 0 0 0 0)
(-0.452039 0.0949497 0 -0.090878 0.280935 0 0 0 0)
(-0.311311 0.100956 0 -0.128309 0.31062 0 0 0 0)
(-0.299381 0.0861958 0 -0.157661 0.395757 0 0 0 0)
(-0.366836 0.335566 0 -0.299547 0.473432 0 0 0 0)
(-0.513687 0.555992 0 -0.46444 0.667047 0 0 0 0)
(-0.560964 0.407642 0 -0.674494 0.612768 0 0 0 0)
(-0.493395 0.0754355 0 -0.64885 0.2583 0 0 0 0)
(-0.370404 -0.21838 0 -0.650116 -0.0478548 0 0 0 0)
(-1.14419 -0.919408 0 -0.734965 -0.529839 0 0 0 0)
(-2.00154 -1.27511 0 -1.57245 -0.819187 0 0 0 0)
(-1.67163 -0.548266 0 -0.80274 -0.665136 0 0 0 0)
(-1.26813 -0.293719 0 -0.401274 -0.689211 0 0 0 0)
(-1.60529 -0.437999 0 -0.616798 -0.617101 0 0 0 0)
(-1.26088 -0.0490087 0 -0.0898566 -0.527678 0 0 0 0)
(-0.303888 0.271804 0 0.267962 -0.453993 0 0 0 0)
(-0.112234 0.316967 0 0.289791 -0.447558 0 0 0 0)
(-0.137276 0.326326 0 0.290136 -0.413237 0 0 0 0)
(-0.149185 0.298991 0 0.272559 -0.336597 0 0 0 0)
(-0.138617 0.218822 0 0.228691 -0.21546 0 0 0 0)
(-0.105664 0.116778 0 0.156395 -0.0831139 0 0 0 0)
(-0.0655804 0.0336028 0 0.0880616 0.0275639 0 0 0 0)