/*--------------------------------*- C++ -*----------------------------------*\
| =========                 |                                                 |
| \\      /  F ield         | OpenFOAM: The Open Source CFD Toolbox           |
|  \\    /   O peration     | Version:  v1912                                 |
|   \\  /    A nd           | Website:  www.openfoam.com                      |
|    \\/     M anipulation  |                                                 |
\*---------------------------------------------------------------------------*/
FoamFile
{
    version     2.0;
    format      ascii;
    class       volScalarField;
    location    "9.22";
    object      Ma;
}
// * * * * * * * * * * * * * * * * * * * * * * * * * * * * * * * * * * * * * //

dimensions      [0 0 0 0 0 0 0];


internalField   nonuniform List<scalar> 
1900
(
6.66623
0.251532
0.113593
0.122028
0.125737
0.132675
0.130945
0.128662
0.121294
0.102201
6.66721
0.251537
0.113592
0.122025
0.125723
0.132575
0.1308
0.128345
0.12157
0.117088
6.66782
0.251539
0.113591
0.12202
0.125702
0.132494
0.130671
0.128404
0.123516
0.124957
6.66721
0.251537
0.113592
0.122025
0.125723
0.132575
0.1308
0.128345
0.12157
0.117088
6.66623
0.251532
0.113593
0.122028
0.125737
0.132675
0.130945
0.128662
0.121294
0.102201
0.109429
0.150828
0.204398
0.290238
0.438263
0.13112
0.154626
0.185534
0.251497
0.3968
0.138744
0.160612
0.191612
0.255181
0.39381
0.13112
0.154626
0.185534
0.251497
0.3968
0.109429
0.150828
0.204398
0.290238
0.438263
0.954529
1.34522
1.61128
1.78506
1.96631
0.910731
1.34464
1.63305
1.80577
1.98956
0.905885
1.35368
1.63382
1.8006
1.98599
0.910731
1.34464
1.63305
1.80577
1.98956
0.954529
1.34522
1.61128
1.78506
1.96631
2.04016
2.10953
2.12657
2.167
2.18982
2.22499
2.26744
2.31769
2.37298
2.43328
2.48415
2.51984
2.57409
2.65368
2.63978
2.55837
2.1943
1.83624
1.74859
1.72733
1.72537
1.72043
1.68688
1.62638
1.55463
1.48274
1.46
0.895978
0.504601
0.296427
0.167301
0.581867
0.622588
0.629156
0.637618
0.650202
0.661371
0.668849
0.672024
0.671765
2.03066
1.98628
1.94967
2.01308
2.04955
2.09571
2.14993
2.21181
2.27698
2.34814
2.40593
2.44712
2.507
2.59194
2.59053
2.50855
2.13542
1.79455
1.71229
1.70033
1.70711
1.70895
1.68207
1.63139
1.56758
1.50293
1.47169
0.887971
0.498124
0.296294
0.163415
0.57969
0.621026
0.62846
0.638233
0.652089
0.663909
0.671546
0.67467
0.674269
2.03003
1.9906
1.91316
1.96616
2.00087
2.05099
2.11
2.17616
2.24461
2.319
2.37843
2.42146
2.48317
2.57005
2.57314
2.49109
2.11476
1.78041
1.7002
1.69179
1.70149
1.70582
1.68041
1.62657
1.56095
1.49521
1.46508
0.888022
0.502128
0.299797
0.161262
0.578878
0.620142
0.627364
0.636833
0.650527
0.662384
0.670245
0.673701
0.673754
2.03066
1.98628
1.94967
2.01308
2.04955
2.09571
2.14993
2.21181
2.27698
2.34814
2.40593
2.44712
2.507
2.59194
2.59053
2.50855
2.13542
1.79455
1.71229
1.70033
1.70711
1.70895
1.68207
1.63139
1.56758
1.50293
1.47169
0.887971
0.498124
0.296294
0.163415
0.57969
0.621026
0.62846
0.638233
0.652089
0.663909
0.671546
0.67467
0.674269
2.04016
2.10953
2.12657
2.167
2.18982
2.22499
2.26744
2.31769
2.37298
2.43328
2.48415
2.51984
2.57409
2.65368
2.63978
2.55837
2.1943
1.83624
1.74859
1.72733
1.72537
1.72043
1.68688
1.62638
1.55463
1.48274
1.46
0.895978
0.504601
0.296427
0.167301
0.581867
0.622588
0.629156
0.637618
0.650202
0.661371
0.668849
0.672024
0.671765
2.50299
2.53668
2.56366
2.5635
2.56726
2.57602
2.58336
2.59512
2.61458
2.64212
2.67061
2.696
2.73668
2.79961
2.77505
2.69611
2.35246
1.94759
1.84076
1.79703
1.77535
1.7501
1.70111
1.63078
1.55383
1.48579
1.45683
0.909856
0.52699
0.311558
0.173772
0.584668
0.623821
0.629632
0.636736
0.647243
0.656709
0.663407
0.666736
0.666835
3.0778
3.07744
3.07481
3.07348
3.06884
3.05044
3.02823
2.99935
2.97343
2.96117
2.95163
2.9449
2.96067
3.00187
2.9674
2.88812
2.56656
2.10197
1.96227
1.88718
1.84171
1.79141
1.70818
1.61354
1.53248
1.47235
1.44731
0.883657
0.512129
0.297712
0.217442
0.5889
0.624495
0.62974
0.636655
0.645793
0.653972
0.660105
0.664037
0.665299
3.23626
3.2447
3.24789
3.239
3.21394
3.19399
3.17744
3.15763
3.13837
3.12406
3.10216
3.07878
3.07454
3.07892
3.05474
2.97926
2.64521
2.15946
2.00372
1.91601
1.86211
1.80672
1.72569
1.63116
1.55234
1.48808
1.42443
0.835738
0.484621
0.270307
0.271743
0.591314
0.621943
0.628314
0.63694
0.646263
0.653781
0.658791
0.662531
0.664308
3.22995
3.22586
3.2308
3.24502
3.23924
3.21873
3.20221
3.18865
3.17817
3.17148
3.15858
3.15013
3.15045
3.11891
3.04688
2.9407
2.59455
2.17918
2.04114
1.94459
1.87808
1.80073
1.69397
1.59404
1.51715
1.46259
1.34457
0.761105
0.434693
0.209727
0.322693
0.585122
0.613052
0.622608
0.634269
0.647709
0.657009
0.661836
0.664698
0.666068
3.16663
3.16952
3.17535
3.1795
3.18589
3.19016
3.18023
3.17284
3.18134
3.17892
3.16745
3.17279
3.15468
3.06606
2.98082
2.84575
2.49416
2.18744
2.05905
1.95312
1.86819
1.75926
1.64198
1.54677
1.4706
1.41391
1.20162
0.585896
0.309494
0.0934259
0.36132
0.544681
0.566525
0.588314
0.61368
0.634964
0.648655
0.657973
0.661594
0.662921
3.07763
3.07955
3.08077
3.07986
3.08748
3.09898
3.10641
3.11012
3.11242
3.10925
3.11422
3.13751
3.07218
2.99703
2.9079
2.72092
2.39061
2.18631
2.05597
1.94282
1.83997
1.71074
1.57398
1.47685
1.38968
1.32168
0.809559
0.410079
0.19264
0.12207
0.422981
0.503397
0.508097
0.524916
0.556468
0.595092
0.629986
0.651994
0.663422
0.667501
2.97582
2.9765
2.97506
2.9742
2.97981
2.98737
2.99539
3.00488
3.00854
3.00984
3.02802
3.05969
2.98859
2.89437
2.80289
2.60277
2.30607
2.15368
2.02105
1.91048
1.76683
1.61153
1.45532
1.34839
1.22199
1.03784
0.52711
0.291803
0.212987
0.229856
0.458055
0.471707
0.465524
0.468947
0.488397
0.525343
0.575078
0.621677
0.653301
0.667908
2.87368
2.87376
2.87183
2.87047
2.87313
2.877
2.88381
2.8956
2.90283
2.90606
2.92204
2.92698
2.84422
2.75282
2.64025
2.42698
2.22954
2.09291
1.95981
1.80494
1.60652
1.38803
1.21939
1.06821
0.962602
0.779163
0.450828
0.27168
0.195868
0.324199
0.447912
0.438911
0.42803
0.422783
0.434543
0.457756
0.503597
0.5669
0.62374
0.666279
2.75504
2.75467
2.75306
2.75293
2.7543
2.75765
2.765
2.77702
2.78519
2.79119
2.80642
2.77728
2.69709
2.60147
2.43133
2.2567
2.10538
1.95092
1.75532
1.50815
1.22301
1.0388
0.920948
0.854966
0.816236
0.64176
0.430836
0.23652
0.194902
0.387592
0.419435
0.399696
0.38474
0.376584
0.379344
0.401379
0.435165
0.499373
0.570516
0.641306
2.60816
2.608
2.6087
2.6121
2.61984
2.63024
2.64165
2.65202
2.65068
2.64209
2.61663
2.55206
2.46067
2.34391
2.19289
1.99851
1.78773
1.54862
1.24913
0.999171
0.86051
0.795395
0.764374
0.749686
0.744009
0.587788
0.362669
0.211175
0.265772
0.405026
0.387317
0.364089
0.341376
0.330918
0.325088
0.351432
0.380074
0.444531
0.510697
0.583294
2.4317
2.43281
2.43883
2.44907
2.46102
2.47245
2.46981
2.44211
2.40221
2.33661
2.25682
2.12711
1.97338
1.83276
1.67666
1.45848
1.19489
0.948297
0.783152
0.715348
0.696328
0.682714
0.690069
0.699057
0.670745
0.512588
0.286139
0.217104
0.347806
0.385852
0.352716
0.324354
0.293445
0.279077
0.267363
0.29383
0.327499
0.389397
0.44404
0.504486
2.23597
2.2379
2.24493
2.25113
2.20957
2.14793
2.07425
1.99035
1.90941
1.7909
1.66777
1.5397
1.38732
1.21125
1.04391
0.862824
0.712058
0.634945
0.607662
0.59921
0.605916
0.617364
0.630796
0.624438
0.581911
0.438293
0.268861
0.301368
0.383843
0.361565
0.321918
0.290035
0.252089
0.228542
0.208235
0.231184
0.274551
0.333148
0.378924
0.425328
1.95435
1.95628
1.91609
1.84887
1.7434
1.62313
1.50448
1.38318
1.28345
1.19272
1.10119
0.991631
0.868289
0.729526
0.619767
0.548946
0.514895
0.504171
0.50895
0.52684
0.543528
0.549162
0.549974
0.551453
0.514673
0.385422
0.327015
0.386767
0.383354
0.344566
0.296326
0.254149
0.206306
0.173471
0.146194
0.167455
0.214279
0.270571
0.311501
0.346791
1.56604
1.51739
1.41142
1.28194
1.16976
1.07691
0.994701
0.900205
0.800045
0.700567
0.602812
0.519968
0.472473
0.440688
0.422993
0.414968
0.417433
0.431123
0.450004
0.464087
0.47252
0.477039
0.483833
0.482053
0.448307
0.411544
0.425651
0.419887
0.376736
0.33381
0.285309
0.235659
0.180311
0.131766
0.0833578
0.104578
0.168671
0.233148
0.270937
0.295026
1.07592
0.99879
0.905656
0.814774
0.726368
0.640361
0.558671
0.485517
0.421521
0.373743
0.347229
0.339523
0.344505
0.344393
0.342067
0.349939
0.362478
0.376072
0.386678
0.396857
0.407409
0.412159
0.412147
0.42174
0.455885
0.51652
0.49089
0.438635
0.386905
0.337432
0.283393
0.225679
0.163977
0.0970259
0.0252407
0.0598024
0.144604
0.213833
0.253333
0.267615
0.701683
0.677511
0.641442
0.589849
0.531996
0.481624
0.446434
0.416498
0.386063
0.357118
0.33353
0.312007
0.300005
0.296264
0.297828
0.304149
0.312073
0.318871
0.327254
0.334707
0.340149
0.346424
0.374379
0.462536
0.54144
0.568301
0.534275
0.468307
0.408553
0.361009
0.311977
0.254998
0.191638
0.128546
0.0806227
0.088544
0.164226
0.236669
0.2772
0.284316
0.662982
0.656673
0.632876
0.602713
0.572406
0.537855
0.50544
0.473601
0.438695
0.400376
0.361027
0.320897
0.290651
0.272394
0.263472
0.25814
0.25486
0.257586
0.264076
0.271526
0.291241
0.35039
0.463254
0.551704
0.587503
0.59571
0.574427
0.518039
0.451508
0.394122
0.344949
0.296179
0.237429
0.18894
0.15832
0.16886
0.216958
0.280413
0.324322
0.326994
0.694722
0.695256
0.688248
0.667161
0.635413
0.602734
0.572056
0.539571
0.506619
0.470699
0.429299
0.380512
0.333106
0.286061
0.242673
0.207016
0.186327
0.188655
0.211
0.263771
0.364238
0.482823
0.55419
0.588431
0.60244
0.611585
0.604739
0.571875
0.515166
0.45738
0.408294
0.355056
0.293296
0.24999
0.221853
0.238475
0.280888
0.337025
0.383937
0.389362
0.717349
0.719996
0.713934
0.698512
0.67546
0.650867
0.623563
0.597714
0.568355
0.535161
0.497109
0.450456
0.396475
0.332575
0.262137
0.173582
0.0954326
0.139466
0.260154
0.397396
0.504286
0.557105
0.583763
0.598421
0.605909
0.618362
0.622753
0.614826
0.580012
0.525266
0.465818
0.401774
0.335065
0.288129
0.25963
0.276772
0.32106
0.380602
0.44113
0.452229
0.694257
0.695473
0.679459
0.666855
0.663973
0.657743
0.658594
0.657043
0.655546
0.648632
0.634703
0.605159
0.553453
0.464162
0.324059
0.146473
0.0873236
0.282263
0.439666
0.52646
0.564257
0.584188
0.593525
0.603313
0.610142
0.623006
0.633235
0.641487
0.63438
0.597853
0.528743
0.450558
0.372251
0.315189
0.275452
0.285344
0.323479
0.38415
0.448546
0.498152
0.694257
0.695473
0.679459
0.666855
0.663973
0.657743
0.658594
0.657043
0.655546
0.648632
0.634703
0.605159
0.553453
0.464162
0.324059
0.146473
0.0873236
0.282263
0.439666
0.52646
0.564257
0.584188
0.593525
0.603313
0.610142
0.623006
0.633235
0.641487
0.63438
0.597853
0.528743
0.450558
0.372251
0.315189
0.275452
0.285344
0.323479
0.38415
0.448546
0.498152
0.717349
0.719996
0.713934
0.698512
0.67546
0.650867
0.623563
0.597714
0.568355
0.535161
0.497109
0.450456
0.396475
0.332575
0.262137
0.173582
0.0954326
0.139466
0.260154
0.397396
0.504286
0.557105
0.583763
0.598421
0.605909
0.618362
0.622753
0.614826
0.580012
0.525266
0.465818
0.401774
0.335065
0.288129
0.25963
0.276772
0.32106
0.380602
0.44113
0.452229
0.694722
0.695256
0.688248
0.667161
0.635413
0.602734
0.572056
0.539571
0.506619
0.470699
0.429299
0.380512
0.333106
0.286061
0.242673
0.207016
0.186327
0.188655
0.211
0.263771
0.364238
0.482823
0.55419
0.588431
0.60244
0.611585
0.604739
0.571875
0.515166
0.45738
0.408294
0.355056
0.293296
0.24999
0.221853
0.238475
0.280888
0.337025
0.383937
0.389362
0.662982
0.656673
0.632876
0.602713
0.572406
0.537855
0.50544
0.473601
0.438695
0.400376
0.361027
0.320897
0.290651
0.272394
0.263472
0.25814
0.25486
0.257586
0.264076
0.271526
0.291241
0.35039
0.463254
0.551704
0.587503
0.59571
0.574427
0.518039
0.451508
0.394122
0.344949
0.296179
0.237429
0.18894
0.15832
0.16886
0.216958
0.280413
0.324322
0.326994
0.701683
0.677511
0.641442
0.589849
0.531996
0.481624
0.446434
0.416498
0.386063
0.357118
0.33353
0.312007
0.300005
0.296264
0.297828
0.304149
0.312073
0.318871
0.327254
0.334707
0.340149
0.346424
0.374379
0.462536
0.54144
0.568301
0.534275
0.468307
0.408553
0.361009
0.311977
0.254998
0.191638
0.128546
0.0806227
0.088544
0.164226
0.236669
0.2772
0.284316
1.07592
0.99879
0.905656
0.814774
0.726368
0.640361
0.558671
0.485517
0.421521
0.373743
0.347229
0.339523
0.344505
0.344393
0.342067
0.349939
0.362478
0.376072
0.386678
0.396857
0.407409
0.412159
0.412147
0.42174
0.455885
0.51652
0.49089
0.438635
0.386905
0.337432
0.283393
0.225679
0.163977
0.0970259
0.0252407
0.0598024
0.144604
0.213833
0.253333
0.267615
1.56604
1.51739
1.41142
1.28194
1.16976
1.07691
0.994701
0.900205
0.800045
0.700567
0.602812
0.519968
0.472473
0.440688
0.422993
0.414968
0.417433
0.431123
0.450004
0.464087
0.47252
0.477039
0.483833
0.482053
0.448307
0.411544
0.425651
0.419887
0.376736
0.33381
0.285309
0.235659
0.180311
0.131766
0.0833578
0.104578
0.168671
0.233148
0.270937
0.295026
1.95435
1.95628
1.91609
1.84887
1.7434
1.62313
1.50448
1.38318
1.28345
1.19272
1.10119
0.991631
0.868289
0.729526
0.619767
0.548946
0.514895
0.504171
0.50895
0.52684
0.543528
0.549162
0.549974
0.551453
0.514673
0.385422
0.327015
0.386767
0.383354
0.344566
0.296326
0.254149
0.206306
0.173471
0.146194
0.167455
0.214279
0.270571
0.311501
0.346791
2.23597
2.2379
2.24493
2.25113
2.20957
2.14793
2.07425
1.99035
1.90941
1.7909
1.66777
1.5397
1.38732
1.21125
1.04391
0.862824
0.712058
0.634945
0.607662
0.59921
0.605916
0.617364
0.630796
0.624438
0.581911
0.438293
0.268861
0.301368
0.383843
0.361565
0.321918
0.290035
0.252089
0.228542
0.208235
0.231184
0.274551
0.333148
0.378924
0.425328
2.4317
2.43281
2.43883
2.44907
2.46102
2.47245
2.46981
2.44211
2.40221
2.33661
2.25682
2.12711
1.97338
1.83276
1.67666
1.45848
1.19489
0.948297
0.783152
0.715348
0.696328
0.682714
0.690069
0.699057
0.670745
0.512588
0.286139
0.217104
0.347806
0.385852
0.352716
0.324354
0.293445
0.279077
0.267363
0.29383
0.327499
0.389397
0.44404
0.504486
2.60816
2.608
2.6087
2.6121
2.61984
2.63024
2.64165
2.65202
2.65068
2.64209
2.61663
2.55206
2.46067
2.34391
2.19289
1.99851
1.78773
1.54862
1.24913
0.999171
0.86051
0.795395
0.764374
0.749686
0.744009
0.587788
0.362669
0.211175
0.265772
0.405026
0.387317
0.364089
0.341376
0.330918
0.325088
0.351432
0.380074
0.444531
0.510697
0.583294
2.75504
2.75467
2.75306
2.75293
2.7543
2.75765
2.765
2.77702
2.78519
2.79119
2.80642
2.77728
2.69709
2.60147
2.43133
2.2567
2.10538
1.95092
1.75532
1.50815
1.22301
1.0388
0.920948
0.854966
0.816236
0.64176
0.430836
0.23652
0.194902
0.387592
0.419435
0.399696
0.38474
0.376584
0.379344
0.401379
0.435165
0.499373
0.570516
0.641306
2.87368
2.87376
2.87183
2.87047
2.87313
2.877
2.88381
2.8956
2.90283
2.90606
2.92204
2.92698
2.84422
2.75282
2.64025
2.42698
2.22954
2.09291
1.95981
1.80494
1.60652
1.38803
1.21939
1.06821
0.962602
0.779163
0.450828
0.27168
0.195868
0.324199
0.447912
0.438911
0.42803
0.422783
0.434543
0.457756
0.503597
0.5669
0.62374
0.666279
2.97582
2.9765
2.97506
2.9742
2.97981
2.98737
2.99539
3.00488
3.00854
3.00984
3.02802
3.05969
2.98859
2.89437
2.80289
2.60277
2.30607
2.15368
2.02105
1.91048
1.76683
1.61153
1.45532
1.34839
1.22199
1.03784
0.52711
0.291803
0.212987
0.229856
0.458055
0.471707
0.465524
0.468947
0.488397
0.525343
0.575078
0.621677
0.653301
0.667908
3.07763
3.07955
3.08077
3.07986
3.08748
3.09898
3.10641
3.11012
3.11242
3.10925
3.11422
3.13751
3.07218
2.99703
2.9079
2.72092
2.39061
2.18631
2.05597
1.94282
1.83997
1.71074
1.57398
1.47685
1.38968
1.32168
0.809559
0.410079
0.19264
0.12207
0.422981
0.503397
0.508097
0.524916
0.556468
0.595092
0.629986
0.651994
0.663422
0.667501
3.16663
3.16952
3.17535
3.1795
3.18589
3.19016
3.18023
3.17284
3.18134
3.17892
3.16745
3.17279
3.15468
3.06606
2.98082
2.84575
2.49416
2.18744
2.05905
1.95312
1.86819
1.75926
1.64198
1.54677
1.4706
1.41391
1.20162
0.585896
0.309494
0.0934259
0.36132
0.544681
0.566525
0.588314
0.61368
0.634964
0.648655
0.657973
0.661594
0.662921
3.22995
3.22586
3.2308
3.24502
3.23924
3.21873
3.20221
3.18865
3.17817
3.17148
3.15858
3.15013
3.15045
3.11891
3.04688
2.9407
2.59455
2.17918
2.04114
1.94459
1.87808
1.80073
1.69397
1.59404
1.51715
1.46259
1.34457
0.761105
0.434693
0.209727
0.322693
0.585122
0.613052
0.622608
0.634269
0.647709
0.657009
0.661836
0.664698
0.666068
3.23626
3.2447
3.24789
3.239
3.21394
3.19399
3.17744
3.15763
3.13837
3.12406
3.10216
3.07878
3.07454
3.07892
3.05474
2.97926
2.64521
2.15946
2.00372
1.91601
1.86211
1.80672
1.72569
1.63116
1.55234
1.48808
1.42443
0.835738
0.484621
0.270307
0.271743
0.591314
0.621943
0.628314
0.63694
0.646263
0.653781
0.658791
0.662531
0.664308
3.0778
3.07744
3.07481
3.07348
3.06884
3.05044
3.02823
2.99935
2.97343
2.96117
2.95163
2.9449
2.96067
3.00187
2.9674
2.88812
2.56656
2.10197
1.96227
1.88718
1.84171
1.79141
1.70818
1.61354
1.53248
1.47235
1.44731
0.883657
0.512129
0.297712
0.217442
0.5889
0.624495
0.62974
0.636655
0.645793
0.653972
0.660105
0.664037
0.665299
2.50299
2.53668
2.56366
2.5635
2.56726
2.57602
2.58336
2.59512
2.61458
2.64212
2.67061
2.696
2.73668
2.79961
2.77505
2.69611
2.35246
1.94759
1.84076
1.79703
1.77535
1.7501
1.70111
1.63078
1.55383
1.48579
1.45683
0.909856
0.52699
0.311558
0.173772
0.584668
0.623821
0.629632
0.636736
0.647243
0.656709
0.663407
0.666736
0.666835
)
;

boundaryField
{
    inlet
    {
        type            calculated;
        value           uniform 0;
    }
    outlet
    {
        type            calculated;
        value           nonuniform List<scalar> 
165
(
2.50299
3.0778
3.23626
3.22995
3.16663
3.07763
2.97582
2.87368
2.75504
2.60816
2.4317
2.23597
1.95435
1.56604
1.07592
0.701683
0.662982
0.694722
0.717349
0.694257
0.694257
0.695473
0.679459
0.666855
0.663973
0.657743
0.658594
0.657043
0.655546
0.648632
0.634703
0.605159
0.553453
0.464162
0.324059
0.146473
0.0873236
0.282263
0.439666
0.52646
0.564257
0.584188
0.593525
0.603313
0.610142
0.623006
0.633235
0.641487
0.63438
0.597853
0.528743
0.450558
0.372251
0.315189
0.275452
0.285344
0.323479
0.38415
0.448546
0.498152
0.666835
0.665299
0.664308
0.666068
0.662921
0.667501
0.667908
0.666279
0.641306
0.583294
0.504486
0.425328
0.346791
0.295026
0.267615
0.284316
0.326994
0.389362
0.452229
0.498152
0.671765
0.674269
0.673754
0.674269
0.671765
0.498152
0.452229
0.389362
0.326994
0.284316
0.267615
0.295026
0.346791
0.425328
0.504486
0.583294
0.641306
0.666279
0.667908
0.667501
0.662921
0.666068
0.664308
0.665299
0.666835
0.694257
0.695473
0.679459
0.666855
0.663973
0.657743
0.658594
0.657043
0.655546
0.648632
0.634703
0.605159
0.553453
0.464162
0.324059
0.146473
0.0873236
0.282263
0.439666
0.52646
0.564257
0.584188
0.593525
0.603313
0.610142
0.623006
0.633235
0.641487
0.63438
0.597853
0.528743
0.450558
0.372251
0.315189
0.275452
0.285344
0.323479
0.38415
0.448546
0.498152
0.694257
0.717349
0.694722
0.662982
0.701683
1.07592
1.56604
1.95435
2.23597
2.4317
2.60816
2.75504
2.87368
2.97582
3.07763
3.16663
3.22995
3.23626
3.0778
2.50299
)
;
    }
    obstacle
    {
        type            calculated;
        value           nonuniform List<scalar> 
40
(
6.66623
0.251532
0.113593
0.122028
0.125737
0.132675
0.130945
0.12866
0.121216
0.101478
6.66623
0.251532
0.113593
0.122028
0.125737
0.132675
0.130945
0.12866
0.121216
0.101478
0.106725
0.147142
0.20086
0.286739
0.431403
0.106725
0.147142
0.20086
0.286739
0.431403
0.944121
1.34249
1.60967
1.78364
1.96498
0.944121
1.34249
1.60967
1.78364
1.96498
)
;
    }
    empty
    {
        type            empty;
    }
}


// ************************************************************************* //
