/*--------------------------------*- C++ -*----------------------------------*\
| =========                 |                                                 |
| \\      /  F ield         | OpenFOAM: The Open Source CFD Toolbox           |
|  \\    /   O peration     | Version:  v1912                                 |
|   \\  /    A nd           | Website:  www.openfoam.com                      |
|    \\/     M anipulation  |                                                 |
\*---------------------------------------------------------------------------*/
FoamFile
{
    version     2.0;
    format      ascii;
    class       volScalarField;
    location    "0.14";
    object      normRho;
}
// * * * * * * * * * * * * * * * * * * * * * * * * * * * * * * * * * * * * * //

dimensions      [0 -1 0 0 0 0 0];


internalField   nonuniform List<scalar> 
4800
(
0
0
3.33391e-14
3.33391e-14
3.33391e-14
3.33391e-14
3.33391e-14
4.71486e-14
0
3.33391e-14
0
3.33391e-14
0
0
0
0
4.71486e-14
0
3.33391e-14
0
0
0
3.33391e-14
0
0
3.33391e-14
3.33391e-14
0
0
0
0
0
0
0
0
3.33391e-14
3.33391e-14
7.45485e-14
0
23.3016
6.66782e-14
3.33391e-14
6.66782e-14
3.33391e-14
0
3.33391e-14
0
3.33391e-14
3.33391e-14
3.33391e-14
3.33391e-14
0
3.33391e-14
3.33391e-14
4.71486e-14
3.33391e-14
3.33391e-14
3.33391e-14
3.33391e-14
3.33391e-14
0
0
4.71486e-14
3.33391e-14
4.71486e-14
3.33391e-14
3.33391e-14
3.33391e-14
0
3.33391e-14
4.71486e-14
0
0
0
0
0
0
3.33391e-14
3.33391e-14
1.3406e-05
0
6.66782e-14
0
0
0
0
6.66782e-14
7.45485e-14
7.45485e-14
0
0
7.45485e-14
7.45485e-14
0
6.66782e-14
6.66782e-14
0
0
0
7.45485e-14
7.45485e-14
7.45485e-14
0
0
3.33391e-14
0
6.66782e-14
6.66782e-14
6.66782e-14
0
3.33391e-14
0
0
0
0
0
6.66782e-14
3.33391e-14
0
1.16355e-11
3.33391e-14
3.33391e-14
0
3.33391e-14
3.33391e-14
3.33391e-14
3.33391e-14
0
3.33391e-14
3.33391e-14
3.33391e-14
3.33391e-14
0
0
4.71486e-14
3.33391e-14
3.33391e-14
3.33391e-14
3.33391e-14
0
3.33391e-14
3.33391e-14
3.33391e-14
0
3.33391e-14
4.71486e-14
3.33391e-14
4.71486e-14
3.33391e-14
0
4.71486e-14
3.33391e-14
3.33391e-14
0
0
0
0
3.33391e-14
1.00017e-13
1.05427e-13
3.33391e-14
0
7.45485e-14
3.33391e-14
0
0
0
4.71486e-14
4.71486e-14
0
0
7.45485e-14
3.33391e-14
3.33391e-14
3.33391e-14
0
4.71486e-14
3.33391e-14
3.33391e-14
0
0
0
0
4.71486e-14
3.33391e-14
3.33391e-14
3.33391e-14
0
3.33391e-14
0
3.33391e-14
0
0
3.33391e-14
0
0
3.33391e-14
3.33391e-14
0
6.66782e-14
3.33391e-14
3.33391e-14
6.66782e-14
3.33391e-14
0
3.33391e-14
4.71486e-14
0
4.71486e-14
3.33391e-14
4.71486e-14
3.33391e-14
3.33391e-14
0
0
3.33391e-14
3.33391e-14
4.71486e-14
0
4.71486e-14
3.33391e-14
3.33391e-14
3.33391e-14
0
0
3.33391e-14
0
3.33391e-14
3.33391e-14
0
0
3.33391e-14
0
4.71486e-14
0
3.33391e-14
0
3.33391e-14
0
3.33391e-14
3.33391e-14
1.00017e-13
3.33391e-14
1.05427e-13
3.33391e-14
0
0
4.71486e-14
3.33391e-14
0
0
0
3.33391e-14
0
3.33391e-14
0
0
0
3.33391e-14
3.33391e-14
0
3.33391e-14
3.33391e-14
0
3.33391e-14
4.71486e-14
3.33391e-14
0
0
0
3.33391e-14
3.33391e-14
3.33391e-14
0
0
0
4.71486e-14
0
3.33391e-14
0
3.33391e-14
0
4.71486e-14
3.33391e-14
0
0
0
3.33391e-14
4.71486e-14
4.71486e-14
0
4.71486e-14
0
3.33391e-14
3.33391e-14
4.71486e-14
3.33391e-14
4.71486e-14
4.71486e-14
0
0
3.33391e-14
3.33391e-14
0
0
3.33391e-14
0
0
0
0
3.33391e-14
3.33391e-14
0
0
0
0
0
3.33391e-14
3.33391e-14
3.33391e-14
0
3.33391e-14
0
0
3.33391e-14
3.33391e-14
3.33391e-14
0
3.33391e-14
0
3.33391e-14
0
0
0
0
0
0
3.33391e-14
3.33391e-14
4.71486e-14
3.33391e-14
0
0
4.71486e-14
6.66782e-14
4.71486e-14
3.33391e-14
0
0
0
6.66782e-14
3.33391e-14
3.33391e-14
0
0
0
0
3.33391e-14
0
0
3.33391e-14
4.71486e-14
6.66782e-14
3.33391e-14
0
3.33391e-14
3.33391e-14
6.66782e-14
0
7.45485e-14
3.33391e-14
0
3.33391e-14
0
3.33391e-14
0
0
3.33391e-14
3.33391e-14
3.33391e-14
3.33391e-14
0
4.71486e-14
3.33391e-14
4.71486e-14
3.33391e-14
3.33391e-14
0
4.71486e-14
3.33391e-14
3.33391e-14
3.33391e-14
0
0
3.33391e-14
3.33391e-14
3.33391e-14
4.71486e-14
3.33391e-14
0
3.33391e-14
0
0
4.71486e-14
0
3.33391e-14
3.33391e-14
3.33391e-14
1.20206e-13
4.71486e-14
3.33391e-14
7.45485e-14
3.33391e-14
3.33391e-14
3.33391e-14
0
6.66782e-14
0
1.00017e-13
0
0
1.00017e-13
0
6.66782e-14
3.33391e-14
4.71486e-14
3.33391e-14
3.33391e-14
0
3.33391e-14
3.33391e-14
3.33391e-14
0
0
4.71486e-14
4.71486e-14
0
3.33391e-14
3.33391e-14
0
3.33391e-14
3.33391e-14
1.00017e-13
0
0
3.33391e-14
3.33391e-14
3.33391e-14
4.71486e-14
4.71486e-14
4.71486e-14
3.33391e-14
4.71486e-14
3.33391e-14
4.71486e-14
0
0
3.33391e-14
3.33391e-14
0
4.71486e-14
0
3.33391e-14
0
6.66782e-14
0
0
3.33391e-14
0
0
4.71486e-14
3.33391e-14
0
0
0
0
3.33391e-14
3.33391e-14
3.33391e-14
3.33391e-14
0
6.66782e-14
3.33391e-14
1.00017e-13
3.33391e-14
0
0
0
0
3.33391e-14
0
0
0
0
3.33391e-14
3.33391e-14
0
3.33391e-14
0
3.33391e-14
0
0
3.33391e-14
0
4.71486e-14
4.71486e-14
0
3.33391e-14
4.71486e-14
0
3.33391e-14
0
0
0
0
3.33391e-14
0
3.33391e-14
3.33391e-14
4.71486e-14
3.33391e-14
3.33391e-14
4.71486e-14
7.45485e-14
0
1.05427e-13
0
3.33391e-14
3.33391e-14
0
3.33391e-14
3.33391e-14
4.71486e-14
3.33391e-14
1.00017e-13
6.66782e-14
1.00017e-13
0
0
3.33391e-14
3.33391e-14
0
3.33391e-14
3.33391e-14
3.33391e-14
3.33391e-14
0
4.71486e-14
4.71486e-14
3.33391e-14
4.71486e-14
0
0
0
4.71486e-14
0
0
0
0
6.66782e-14
0
0
7.45485e-14
3.33391e-14
3.33391e-14
0
0
7.45485e-14
0
3.33391e-14
0
6.66782e-14
0
3.33391e-14
6.66782e-14
6.66782e-14
6.66782e-14
0
3.33391e-14
0
3.33391e-14
3.33391e-14
3.33391e-14
3.33391e-14
3.33391e-14
4.71486e-14
3.33391e-14
4.71486e-14
3.33391e-14
3.33391e-14
0
3.33391e-14
0
0
4.71486e-14
3.33391e-14
0
4.71486e-14
3.33391e-14
6.66782e-14
4.71486e-14
3.33391e-14
3.33391e-14
3.33391e-14
3.33391e-14
3.33391e-14
3.33391e-14
0
4.71486e-14
3.33391e-14
4.71486e-14
0
3.33391e-14
3.33391e-14
3.33391e-14
0
3.33391e-14
3.33391e-14
3.33391e-14
4.71486e-14
4.71486e-14
3.33391e-14
3.33391e-14
0
3.33391e-14
4.71486e-14
0
3.33391e-14
4.71486e-14
0
3.33391e-14
0
0
0
0
3.33391e-14
0
0
0
0
0
4.71486e-14
0
1.05427e-13
6.66782e-14
4.71486e-14
4.71486e-14
0
3.33391e-14
3.33391e-14
4.71486e-14
3.33391e-14
4.71486e-14
0
1.37461e-13
6.66782e-14
6.66782e-14
7.45485e-14
3.33391e-14
3.33391e-14
3.33391e-14
0
3.33391e-14
3.33391e-14
0
3.33391e-14
0
0
3.33391e-14
0
3.33391e-14
3.33391e-14
0
3.33391e-14
0
0
4.71486e-14
4.71486e-14
4.71486e-14
6.66782e-14
7.45485e-14
4.71486e-14
0
0
6.66782e-14
3.33391e-14
0
0
0
0
3.33391e-14
0
3.33391e-14
3.33391e-14
3.33391e-14
3.33391e-14
3.33391e-14
0
0
0
0
3.33391e-14
3.33391e-14
3.33391e-14
3.33391e-14
4.71486e-14
3.33391e-14
4.71486e-14
3.33391e-14
0
0
4.71486e-14
1.00017e-13
3.33391e-14
7.45485e-14
4.71486e-14
0
0
3.33391e-14
7.45485e-14
3.33391e-14
0
6.66782e-14
0
6.66782e-14
3.33391e-14
3.33391e-14
1.05427e-13
3.33391e-14
0
3.33391e-14
1.00017e-13
0
0
0
0
3.33391e-14
0
0
6.66782e-14
6.66782e-14
4.71486e-14
0
3.33391e-14
0
3.33391e-14
4.71486e-14
3.33391e-14
0
0
0
0
3.33391e-14
9.42972e-14
1.00017e-13
0
1.05427e-13
6.66782e-14
4.71486e-14
3.33391e-14
4.71486e-14
3.33391e-14
6.66782e-14
3.33391e-14
3.33391e-14
0
1.05427e-13
3.33391e-14
6.66782e-14
0
6.66782e-14
0
7.45485e-14
3.33391e-14
0
0
3.33391e-14
0
0
0
1.05427e-13
4.71486e-14
6.66782e-14
4.71486e-14
3.33391e-14
3.33391e-14
0
4.71486e-14
0
0
0
3.33391e-14
3.33391e-14
3.33391e-14
4.71486e-14
3.33391e-14
3.33391e-14
4.71486e-14
0
0
3.33391e-14
0
0
0
0
0
0
6.66782e-14
3.33391e-14
3.33391e-14
0
3.33391e-14
3.33391e-14
3.33391e-14
3.33391e-14
3.33391e-14
3.33391e-14
3.33391e-14
0
3.33391e-14
3.33391e-14
0
0
3.33391e-14
0
0
3.33391e-14
0
3.33391e-14
0
3.33391e-14
0
0
3.33391e-14
3.33391e-14
0
3.33391e-14
4.71486e-14
4.71486e-14
3.33391e-14
0
0
6.66782e-14
0
0
0
1.00017e-13
7.45485e-14
6.66782e-14
3.33391e-14
7.45485e-14
6.66782e-14
7.45485e-14
3.33391e-14
3.33391e-14
3.33391e-14
3.33391e-14
3.33391e-14
0
3.33391e-14
1.00017e-13
4.71486e-14
7.45485e-14
3.33391e-14
3.33391e-14
3.33391e-14
3.33391e-14
0
3.33391e-14
7.45485e-14
4.71486e-14
3.33391e-14
4.71486e-14
7.45485e-14
7.45485e-14
0
0
4.71486e-14
7.45485e-14
3.33391e-14
6.66782e-14
3.33391e-14
0
3.33391e-14
0
0
0
1.00017e-13
0
4.71486e-14
0
7.45485e-14
0
3.33391e-14
6.66782e-14
6.66782e-14
3.33391e-14
0
3.33391e-14
3.33391e-14
0
4.71486e-14
6.66782e-14
7.45485e-14
6.66782e-14
4.71486e-14
6.66782e-14
1.66695e-13
1.37461e-13
9.42972e-14
1.79536e-13
4.71486e-14
3.33391e-14
6.66782e-14
3.33391e-14
3.33391e-14
0
3.33391e-14
3.33391e-14
4.71486e-14
3.33391e-14
3.33391e-14
6.66782e-14
0
0
3.33391e-14
3.33391e-14
3.33391e-14
3.33391e-14
3.33391e-14
0
0
3.33391e-14
0
3.33391e-14
0
0
3.33391e-14
4.71486e-14
3.33391e-14
3.33391e-14
0
4.71486e-14
3.33391e-14
3.33391e-14
4.71486e-14
1.49097e-13
4.71486e-14
9.42972e-14
1.05427e-13
7.45485e-14
1.37461e-13
0
0
0
0
3.33391e-14
3.33391e-14
6.66782e-14
0
1.05427e-13
3.33391e-14
3.33391e-14
3.33391e-14
4.71486e-14
3.33391e-14
3.33391e-14
3.33391e-14
0
3.33391e-14
3.33391e-14
4.71486e-14
3.33391e-14
2.66713e-13
2.68788e-13
1.66695e-13
1.05427e-13
4.71486e-14
3.33391e-14
3.33391e-14
3.33391e-14
0
3.33391e-14
3.33391e-14
6.66782e-14
4.71486e-14
1.05427e-13
1.37461e-13
6.66782e-14
1.66695e-13
2.66713e-13
0
3.33391e-14
3.33391e-14
4.71486e-14
3.33391e-14
3.33391e-14
3.33391e-14
3.33391e-14
0
4.71486e-14
4.71486e-14
3.33391e-14
6.66782e-14
6.66782e-14
4.71486e-14
4.71486e-14
1.37461e-13
3.33391e-14
3.33391e-14
4.71486e-14
1.05427e-13
2.66713e-13
2.00035e-13
1.33356e-13
1.37461e-13
1.66695e-13
1.00017e-13
3.33391e-14
6.66782e-14
1.00017e-13
1.00017e-13
0
3.33391e-14
4.71486e-14
4.71486e-14
3.33391e-14
3.33391e-14
1.37461e-13
1.05427e-13
1.00017e-13
1.33356e-13
0
0
0
0
4.71486e-14
3.33391e-14
4.71486e-14
7.45485e-14
3.33391e-14
0
0
3.33391e-14
3.33391e-14
0
1.05427e-13
7.45485e-14
6.66782e-14
0
6.66782e-14
0
7.45485e-14
3.00052e-13
2.66713e-13
1.66695e-13
1.33356e-13
3.33391e-14
0
0
1.05427e-13
1.05427e-13
6.66782e-14
0
0
4.71486e-14
3.33391e-14
3.33391e-14
0
1.05427e-13
1.37461e-13
3.33391e-14
0
3.33391e-14
4.71486e-14
3.33391e-14
0
3.33391e-14
3.33391e-14
0
0
0
0
0
0
0
0
3.33391e-14
3.33391e-14
0
3.33391e-14
1.00017e-13
3.33391e-14
0
3.33391e-14
3.33391e-14
0
3.33391e-14
3.33391e-14
0
0
3.33391e-14
0
3.33391e-14
0
0
3.33391e-14
0
0
0
3.33391e-14
0
0
0
0
0
4.71486e-14
4.71486e-14
4.71486e-14
4.71486e-14
0
3.33391e-14
0
0
0
3.33391e-14
3.33391e-14
0
3.33391e-14
0
0
0
0
3.33391e-14
0
0
3.33391e-14
3.33391e-14
0
0
3.33391e-14
3.33391e-14
0
3.33391e-14
3.33391e-14
3.33391e-14
3.33391e-14
3.33391e-14
3.33391e-14
3.33391e-14
0
4.71486e-14
0
3.33391e-14
4.71486e-14
4.71486e-14
3.33391e-14
6.66782e-14
0
3.33391e-14
3.33391e-14
0
3.33391e-14
3.33391e-14
3.33391e-14
7.45485e-14
6.66782e-14
6.66782e-14
6.66782e-14
3.33391e-14
0
0
0
0
3.33391e-14
0
3.33391e-14
3.33391e-14
1.00017e-13
0
3.33391e-14
0
0
4.71486e-14
0
3.33391e-14
0
0
3.33391e-14
3.33391e-14
0
0
0
0
0
0
3.33391e-14
0
4.71486e-14
3.33391e-14
3.33391e-14
3.33391e-14
1.00017e-13
3.33391e-14
4.71486e-14
4.71486e-14
7.45485e-14
0
1.00017e-13
3.33391e-14
3.33391e-14
0
3.33391e-14
6.66782e-14
6.66782e-14
4.71486e-14
3.33391e-14
4.71486e-14
7.45485e-14
7.45485e-14
3.33391e-14
0
3.33391e-14
3.33391e-14
0
6.66782e-14
3.33391e-14
3.33391e-14
4.71486e-14
4.71486e-14
0
0
3.33391e-14
0
0
3.33391e-14
0
7.45485e-14
3.33391e-14
3.33391e-14
4.71486e-14
3.33391e-14
0
4.71486e-14
0
4.71486e-14
0
3.33391e-14
0
0
3.33391e-14
3.33391e-14
0
3.33391e-14
1.00017e-13
3.33391e-14
4.71486e-14
0
3.33391e-14
0
0
4.71486e-14
0
3.33391e-14
3.33391e-14
3.33391e-14
4.71486e-14
0
0
0
0
0
0
0
3.33391e-14
3.33391e-14
3.33391e-14
3.33391e-14
0
6.66782e-14
4.71486e-14
4.71486e-14
0
0
0
0
1.05427e-13
3.33391e-14
6.66782e-14
3.33391e-14
1.00017e-13
3.33391e-14
7.45485e-14
3.33391e-14
0
0
0
0
0
0
6.66782e-14
0
1.05427e-13
3.33391e-14
3.33391e-14
3.33391e-14
4.71486e-14
0
3.33391e-14
3.33391e-14
0
3.33391e-14
0
3.33391e-14
3.33391e-14
0
3.33391e-14
7.45485e-14
0
7.45485e-14
4.71486e-14
0
3.33391e-14
3.33391e-14
3.33391e-14
3.33391e-14
0
4.71486e-14
3.33391e-14
6.66782e-14
6.66782e-14
4.71486e-14
3.33391e-14
0
0
0
3.33391e-14
0
0
0
0
3.33391e-14
3.33391e-14
3.33391e-14
3.33391e-14
4.71486e-14
3.33391e-14
3.33391e-14
0
4.71486e-14
6.66782e-14
0
0
3.33391e-14
3.33391e-14
0
4.71486e-14
3.33391e-14
3.33391e-14
3.33391e-14
3.33391e-14
3.33391e-14
6.66782e-14
0
3.33391e-14
0
3.33391e-14
0
0
3.33391e-14
3.33391e-14
0
0
0
0
3.33391e-14
0
0
0
0
0
0
3.33391e-14
0
7.45485e-14
3.33391e-14
7.45485e-14
4.71486e-14
0
3.33391e-14
0
6.66782e-14
3.33391e-14
3.33391e-14
0
0
4.71486e-14
4.71486e-14
7.45485e-14
7.45485e-14
0
1.00017e-13
3.33391e-14
6.66782e-14
0
0
0
0
0
0
0
0
3.33391e-14
0
4.71486e-14
0
0
0
0
0
3.33391e-14
0
4.71486e-14
4.71486e-14
3.33391e-14
4.71486e-14
7.45485e-14
0
0
0
3.33391e-14
3.33391e-14
3.33391e-14
3.33391e-14
0
3.33391e-14
3.33391e-14
3.33391e-14
6.66782e-14
3.33391e-14
3.33391e-14
0
6.66782e-14
0
0
0
0
0
0
3.33391e-14
3.33391e-14
0
0
3.33391e-14
0
4.71486e-14
0
0
0
3.33391e-14
0
0
0
4.71486e-14
3.33391e-14
0
3.33391e-14
7.45485e-14
3.33391e-14
3.33391e-14
3.33391e-14
3.33391e-14
4.71486e-14
3.33391e-14
0
0
3.33391e-14
3.33391e-14
4.71486e-14
0
0
0
0
0
0
0
0
1.00017e-13
3.33391e-14
6.66782e-14
6.66782e-14
1.05427e-13
3.33391e-14
0
3.33391e-14
6.66782e-14
3.33391e-14
0
0
0
3.33391e-14
1.00017e-13
4.71486e-14
3.33391e-14
3.33391e-14
3.33391e-14
3.33391e-14
4.71486e-14
6.66782e-14
3.33391e-14
3.33391e-14
0
0
0
0
3.33391e-14
4.71486e-14
3.33391e-14
3.33391e-14
6.66782e-14
0
0
0
0
0
0
1.00017e-13
7.45485e-14
6.66782e-14
3.33391e-14
7.45485e-14
6.66782e-14
6.66782e-14
3.33391e-14
1.00017e-13
6.66782e-14
1.00017e-13
0
0
0
1.00017e-13
7.45485e-14
6.66782e-14
6.66782e-14
0
3.33391e-14
1.05427e-13
0
0
3.33391e-14
0
0
3.33391e-14
3.33391e-14
0
4.71486e-14
4.71486e-14
0
0
7.45485e-14
3.33391e-14
0
0
0
0
0
0
3.33391e-14
0
0
0
3.33391e-14
0
0
0
1.00017e-13
0
0
0
0
0
3.33391e-14
3.33391e-14
6.66782e-14
6.66782e-14
4.71486e-14
3.33391e-14
3.33391e-14
0
3.33391e-14
0
0
3.33391e-14
0
0
3.33391e-14
4.71486e-14
0
4.71486e-14
0
57.8934
73.4943
80.2752
85.9684
93.5634
92.1808
85.1185
83.341
85.5066
76.7227
61.7298
55.9801
51.1126
38.9621
33.0273
26.1674
20.5243
15.2524
12.523
11.1712
11.8517
13.9226
15.1448
13.1148
9.16878
6.25709
4.24778
3.91168
4.95921
4.59868
3.27432
2.06802
1.18404
0.942402
1.29789
0.9866
0.589049
0.487844
0.766529
1.71293
2.4409
2.33977
1.86485
1.18242
0.618003
0.474714
0.592984
0.922799
1.15194
0.948036
0.441631
0.760142
2.11455
2.8031
2.64078
2.20953
1.69739
1.08703
0.793241
0.967519
1.46943
1.86485
1.96964
1.79835
1.35234
0.760639
1.08225
1.94322
2.47528
2.87496
2.95992
2.35226
1.42881
0.877045
0.650999
0.953095
1.76641
1.99173
1.7053
1.50185
24.1307
60.6786
101.513
137.878
179.811
218.447
220.551
215.225
221.773
222.159
189.241
166.719
153.746
124.065
96.8334
68.9871
35.921
14.8265
4.64918
13.5128
15.9436
17.6256
20.1512
20.9608
18.093
10.8285
4.39942
2.47595
5.22926
6.55699
5.80415
4.71442
3.3608
2.75017
2.53819
2.15752
1.76874
1.54494
1.54356
2.34352
3.49784
4.08993
4.20824
3.7132
2.42293
1.37598
0.732479
0.238999
0.393867
0.600348
0.468903
0.0799325
1.33043
3.05706
4.14067
4.67561
4.70118
4.06334
2.71367
1.12112
0.277307
1.30603
1.99747
2.33473
2.27952
1.56716
0.3254
1.56884
3.08894
4.09767
4.81254
5.15083
4.65421
3.52351
2.35378
1.17008
0.510248
1.63971
2.03898
1.98834
1.38468e-05
0.0914254
0.542069
3.29135
5.00447
12.7413
32.0502
52.6618
73.779
106.219
146.679
164.047
180.491
186.185
161.269
140.679
105.961
79.2993
54.37
29.1064
17.5029
8.71745
3.15259
3.77165
8.44173
11.2663
9.74676
6.34203
2.8689
2.05168
1.31856
2.00542
4.26073
5.72663
6.44858
6.01062
4.87574
3.92044
3.05009
2.87997
3.22247
3.71002
4.52914
5.26732
5.39634
4.46158
3.42363
2.72765
2.01798
1.28141
0.866905
0.946902
1.53157
2.08535
2.80667
3.80111
4.74609
5.16441
4.9904
4.17692
3.01419
1.7568
0.70531
0.149418
0.133319
0.482585
0.858051
1.5293
2.49746
2.93637
3.26538
3.85233
4.50333
4.47549
3.77208
2.80232
1.95555
1.0392
0.392294
0.107003
2.15949e-10
1.12714e-07
1.2433e-07
1.57108e-06
0.000780717
0.000191079
0.000206933
0.00241296
0.0810548
0.872487
6.5117
19.4587
37.3093
75.485
125.989
174.994
212.628
195.274
171.489
132.243
100.011
74.0706
47.3393
31.2791
13.7867
1.01018
7.51851
12.3422
11.9593
9.88734
6.76938
2.55473
4.65076
5.94278
6.92957
6.68256
5.74092
5.0338
4.22039
3.38146
3.02349
3.24241
4.00349
4.7708
5.49676
5.61907
5.28295
4.78769
3.93626
2.82663
2.38167
2.22054
2.12137
2.16375
2.31564
2.39352
2.67551
3.31228
4.18326
5.04796
5.40086
5.1537
4.46061
3.61267
2.94643
2.57872
2.33388
2.1857
1.73749
1.49678
1.46019
1.48846
1.86605
2.60207
3.22186
3.55221
3.71334
3.59219
3.35538
3.02794
3.36224e-13
2.2741e-10
7.61422e-10
3.64382e-09
1.13098e-07
4.85337e-08
7.19123e-08
7.32449e-09
5.43859e-07
4.03009e-07
1.32618e-06
3.23954e-06
0.047246
0.00931609
3.08026
12.0633
40.8353
92.1459
151.281
195.12
182.342
167.386
136.108
104.382
76.6065
48.4228
29.8193
12.3311
2.08219
2.63091
5.78333
7.74352
4.4769
1.11111
1.42604
1.92634
1.28954
1.06835
1.78844
2.37023
2.75047
3.12394
3.09883
3.10515
3.13403
2.93879
3.19885
3.79609
4.44129
4.66347
4.3625
3.69252
2.5292
1.76658
1.28895
0.712436
0.348115
0.241652
1.1416
2.30313
3.76021
5.26421
6.33286
6.58036
6.03241
5.11216
3.87216
2.25749
0.947649
0.542651
0.349976
0.255073
0.409716
0.779438
1.50381
2.26847
2.99994
3.83721
4.56227
5.0327
1.0873e-13
4.00305e-13
6.99102e-13
5.56286e-12
5.94163e-11
5.2618e-11
4.04941e-11
3.32453e-11
5.70552e-11
1.18773e-11
7.96442e-11
5.8084e-11
7.09959e-08
4.39854e-07
3.7324e-06
7.07904e-05
0.0757261
1.16794
6.92628
30.4595
76.3867
127.901
178.675
182.966
179.65
152.019
119.055
87.6814
56.9003
35.7379
12.6838
2.32836
7.46647
9.22104
8.13264
5.86317
3.39592
0.544509
2.12576
2.51071
2.38473
1.88268
0.548065
0.687252
1.17941
1.24235
1.36091
2.15208
3.35624
4.65792
5.06375
4.83535
3.55358
1.40294
0.0335459
0.648492
1.17817
1.6684
1.61938
0.409329
1.65833
3.07417
4.07359
4.88496
5.27553
5.11451
4.35569
3.14311
2.08276
1.30475
0.692276
0.319745
0.187711
0.437075
0.91252
1.66069
2.39615
3.18989
3.92572
4.45524
2.50916e-14
1.28535e-13
3.39195e-14
2.5608e-14
3.54379e-14
1.8643e-13
2.85486e-13
2.94907e-13
1.77667e-13
2.46871e-13
2.09134e-13
2.94049e-13
6.35844e-11
1.84741e-09
4.00147e-09
4.83774e-08
8.16184e-05
8.94835e-05
2.90821e-05
0.056753
0.449586
3.43201
21.194
60.4876
109.385
163.863
181.496
181.358
153.871
124.227
87.8866
55.0307
31.4361
7.82945
3.75156
2.36608
3.16201
4.29615
2.73275
0.970743
0.47908
1.4103
2.90569
3.88119
3.48742
2.3042
1.62753
0.851711
1.48419
2.589
3.01766
3.41192
3.72861
3.00523
1.40842
0.369065
0.315578
0.834877
1.53847
2.18093
1.95239
0.828945
0.318232
0.950829
1.45076
2.02849
2.65637
3.06487
2.97609
2.5652
2.0951
1.67375
1.63883
1.70667
1.6515
1.70031
2.00249
2.35498
2.41733
2.43562
3.44852e-14
3.369e-14
8.51024e-15
1.61059e-13
1.28927e-13
9.52051e-14
1.74474e-14
1.33972e-13
3.2417e-13
2.13659e-13
1.09086e-13
8.52078e-14
8.13758e-14
4.43146e-12
6.70771e-12
1.90366e-11
5.5757e-08
4.93238e-08
2.16923e-08
3.50743e-05
1.95429e-06
6.17837e-06
0.0202937
0.105702
1.81393
16.3947
49.8691
99.195
154.051
182.365
196.173
163.013
132.89
92.3553
60.2346
36.113
12.0731
4.08242
3.55422
4.34482
2.88615
2.44144
2.57366
2.651
2.5827
2.86202
2.95368
3.47216
3.37601
2.15567
1.31543
1.10987
1.25097
2.32421
2.90204
2.94216
2.68961
1.97829
1.12043
0.611459
2.33944
3.14767
3.28796
3.03425
2.5004
1.6918
0.299808
1.14322
2.00134
2.65333
3.24897
3.51687
3.49457
3.27169
2.66206
1.6987
1.07362
0.618243
0.170258
0.0661036
5.85472e-14
1.0244e-13
1.98467e-13
7.29316e-14
1.33432e-13
8.16521e-14
3.23409e-13
1.65602e-13
3.20291e-13
3.10948e-13
2.33131e-13
5.05771e-13
6.61319e-13
6.64991e-13
9.74471e-13
1.12007e-12
2.36219e-11
2.07221e-11
1.3027e-11
2.60162e-08
4.02427e-09
4.62364e-09
7.38532e-07
5.43605e-06
4.07826e-06
0.00011511
0.00903988
1.26969
14.1886
40.5115
87.013
146.649
183.78
197.304
159.93
129.354
89.0595
55.5954
27.3219
8.55579
7.96163
5.34347
4.75235
4.54972
2.95123
1.2513
0.707835
2.34935
4.92621
5.79888
5.77618
5.54604
4.56617
2.19319
0.75969
2.4742
3.32418
3.56022
3.18313
2.36871
0.891094
1.09491
2.76198
3.69488
3.94554
3.94456
3.4889
2.13506
0.536831
0.678597
1.61139
2.32686
2.39899
2.30581
2.17755
1.8281
0.948948
0.228491
0.784435
1.15969
5.85472e-14
6.9437e-14
3.39195e-14
1.1097e-13
4.29814e-14
1.99065e-13
1.25697e-13
8.77682e-14
7.12636e-14
1.00719e-13
1.68468e-13
4.29073e-13
2.77292e-13
4.34621e-13
7.52843e-13
8.49258e-13
1.13831e-12
1.12302e-12
1.39076e-12
1.3716e-11
1.03621e-11
5.18963e-12
1.01756e-09
8.95468e-10
1.32434e-09
3.16761e-08
7.72602e-07
4.5292e-07
0.00016759
0.0361415
0.858746
12.7088
37.0541
88.5735
146.881
188.352
202.193
168.251
132.108
88.5009
57.6266
29.0569
11.3906
8.15932
4.76984
4.4465
3.34433
1.30614
2.94469
4.87835
5.74687
6.06261
6.30408
6.0932
4.88088
3.02134
0.919621
0.752223
1.5295
2.0616
2.31064
1.93127
1.32691
0.45039
1.37693
2.24836
3.14854
3.6049
3.34361
2.77308
2.10946
1.4001
0.643465
0.117937
0.46027
0.742055
0.876415
0.741443
0.525371
0.439884
3.44852e-14
2.52722e-14
7.58281e-14
2.56189e-14
4.29814e-14
1.32111e-13
2.17885e-13
4.38841e-14
7.28937e-14
1.07199e-13
2.15197e-13
1.81533e-13
2.9801e-13
3.80195e-13
4.80453e-13
8.48442e-13
8.26625e-13
9.06561e-13
7.55532e-13
8.85457e-13
8.29877e-13
6.40741e-13
4.17349e-13
1.12735e-12
4.38793e-13
1.11441e-11
5.04271e-10
1.22377e-09
8.75114e-08
4.58228e-08
3.12391e-07
0.000295732
0.023691
1.19255
14.1635
36.5178
86.801
149.493
201.766
199.194
158.616
121.424
80.7229
47.9804
17.3739
11.5735
9.81373
7.97744
5.51192
3.38499
1.81713
0.329494
2.59497
4.53852
6.01317
6.41
5.97058
4.94568
3.83435
2.34853
0.559836
1.25507
2.07983
2.54143
2.23814
1.65433
0.92276
0.693981
2.14574
3.35916
3.8326
3.92565
3.63739
2.83069
1.85629
1.16591
0.483586
0.274157
0.829937
0.91126
1.25458e-13
6.7888e-14
3.39114e-14
5.12214e-14
9.45475e-14
7.78926e-14
7.79562e-14
7.85022e-14
1.00004e-13
1.12607e-13
1.89998e-13
2.58627e-13
2.17013e-13
2.91113e-13
3.47545e-13
3.11848e-13
3.86406e-13
7.3539e-13
9.95083e-13
1.15096e-12
1.05112e-12
8.96146e-13
9.42723e-13
6.33169e-13
1.74165e-13
4.49589e-13
1.43058e-12
4.48653e-12
4.7912e-10
4.66904e-10
1.3109e-09
2.45702e-07
2.05822e-05
0.00197407
0.00919513
0.0041303
1.45614
13.4426
39.5405
99.3582
158.768
207.865
199.042
159.267
110.35
73.1868
43.0943
15.3782
11.2983
10.0842
9.56719
9.26481
5.73632
0.748931
1.92023
3.54327
5.17486
6.26457
6.88816
6.65113
5.70672
4.20895
2.32273
0.308596
1.55453
2.36571
2.22412
1.79065
1.10493
0.982755
2.38326
3.12245
3.72508
3.9854
3.75143
3.28449
2.65708
1.78689
0.864579
0.264999
7.52749e-14
1.68571e-14
5.93449e-14
4.268e-14
5.50397e-14
8.16521e-14
4.35767e-14
2.63305e-14
1.11808e-13
1.59251e-13
1.14828e-13
6.32411e-14
1.81953e-14
7.38878e-14
1.69489e-13
8.77517e-14
3.2084e-13
3.13895e-13
1.91028e-14
1.30418e-13
1.16368e-13
2.70581e-13
2.28935e-13
3.95855e-13
3.70061e-13
1.3488e-13
4.11561e-13
7.49491e-13
1.98417e-12
2.54692e-13
2.13663e-11
3.41122e-09
1.42708e-07
1.30888e-05
9.79036e-06
8.63955e-05
0.000303079
0.00638188
0.0468766
3.04293
17.914
47.4749
112.175
179.402
217.381
183.138
145.025
96.1654
58.452
21.9754
8.23239
10.293
10.0803
7.12761
5.86641
5.49762
4.40718
1.49897
2.96786
5.12328
5.7678
6.25322
6.13807
5.41794
3.91193
1.56271
0.116935
0.8345
1.43811
1.4182
0.650084
0.218371
0.334208
1.31177
2.55847
3.25849
3.52256
3.31204
2.79552
1.67876
1.2178e-13
6.7892e-14
5.08671e-14
9.07389e-14
3.84378e-14
6.05879e-14
4.35834e-14
8.81035e-15
3.95299e-14
1.95245e-13
1.44581e-13
5.1115e-14
9.09765e-14
4.58303e-14
1.61241e-13
3.73111e-13
2.51475e-13
2.29949e-13
2.37882e-13
1.21284e-13
2.47494e-13
2.4346e-13
6.28254e-13
2.09642e-13
4.54818e-13
1.27175e-13
3.06741e-13
8.26604e-13
8.45836e-13
7.85235e-13
9.36618e-13
2.68118e-11
3.73916e-09
1.487e-08
1.72544e-07
5.10183e-07
1.92869e-06
0.000115488
0.000300748
0.00239873
0.00188709
0.17189
5.44232
23.8475
70.6915
136.755
199.159
218.074
175.256
116.691
70.5857
39.2997
13.8207
3.96019
6.63303
8.05646
10.4254
10.386
6.24565
1.39222
0.760369
2.46841
4.2591
5.7389
6.48007
5.91508
4.65438
3.84999
2.84431
1.00121
0.521099
1.03566
1.22946
0.896569
0.307013
0.763308
1.33188
1.83643
2.51574
2.42343
0
3.76647e-14
3.39195e-14
5.9752e-14
8.59496e-15
5.19284e-14
4.93074e-14
5.26609e-14
1.76783e-14
7.17776e-14
5.74193e-14
9.72767e-14
1.82127e-14
1.55799e-13
2.24641e-13
2.96635e-13
2.34294e-13
4.54827e-13
5.02138e-13
5.06007e-13
4.6472e-13
7.12504e-13
6.52547e-13
6.35715e-13
6.48216e-13
7.48603e-13
9.77226e-13
1.59669e-12
2.56041e-12
2.56232e-12
3.5546e-12
4.28497e-12
9.56313e-12
9.75015e-11
5.74442e-10
4.62041e-09
1.25891e-07
6.28531e-08
1.36192e-05
1.85626e-05
4.95057e-05
0.00058814
0.00117436
0.0276871
0.941568
11.0867
33.8
96.9076
173.481
222.035
193.229
146.846
98.1756
54.7013
15.7635
2.29349
3.10267
4.76345
6.79928
6.04175
5.57491
6.00607
5.13072
2.59001
1.23095
3.57785
4.73878
5.44977
5.65778
4.80266
3.88766
2.17593
0.617382
0.271746
0.686509
0.559818
0.403255
0.200723
0.423682
1.21149
3.34555e-14
5.05229e-14
3.39114e-14
7.03896e-14
4.86204e-14
0
1.74307e-14
3.51157e-14
7.90599e-14
9.79295e-14
4.48396e-14
7.28153e-14
7.33519e-14
6.60921e-14
1.69491e-13
4.0938e-13
5.30144e-13
4.42103e-13
3.42673e-13
6.23243e-13
4.25602e-13
2.76989e-13
7.91329e-14
4.82341e-13
2.12019e-13
4.0413e-13
4.89846e-13
5.41565e-13
6.12649e-13
9.67054e-13
1.43066e-12
1.43255e-12
1.86825e-12
2.11542e-12
1.38728e-11
4.38412e-10
3.00082e-10
2.52754e-09
2.34588e-08
7.44831e-07
8.32761e-07
2.98576e-05
2.54583e-05
7.53088e-05
0.000127473
0.00534388
0.105042
3.51148
22.5006
74.8635
148.91
206.261
218.157
180.336
109.148
56.0853
23.3021
5.2949
4.52921
1.4001
2.67225
8.45256
9.67529
9.42387
6.25707
2.70193
0.663498
1.76783
3.79593
4.83129
4.92178
4.09709
3.27156
2.60182
1.85275
0.820894
0.223691
0.21295
0.314162
0.615721
3.34555e-14
1.6841e-14
4.79637e-14
0
1.71899e-14
4.32803e-14
3.48614e-14
1.75704e-14
8.87293e-15
1.78048e-14
4.01073e-14
5.10906e-14
6.36885e-14
8.0191e-16
1.69491e-13
2.50283e-13
2.62577e-13
1.52263e-13
2.82902e-13
1.56087e-13
2.70558e-13
1.78774e-13
1.42915e-13
9.33329e-14
9.82182e-14
1.56069e-13
2.06714e-13
6.54046e-13
1.21276e-12
1.1726e-12
1.71824e-12
2.62435e-12
3.5418e-12
3.8826e-12
3.93064e-12
3.71049e-12
2.5341e-11
2.60503e-11
1.65874e-09
5.20838e-10
2.00032e-09
2.95829e-08
5.93354e-07
5.23654e-06
1.2192e-05
6.01731e-05
0.000224886
0.00306851
0.0577411
1.30081
14.4989
44.9998
114.873
196.177
224.827
175.136
119.151
75.1928
34.4829
4.34056
4.80117
3.22463
2.67944
2.12655
3.3361
3.54278
4.426
4.45646
3.39586
1.47016
1.17472
1.45382
2.19942
3.01645
3.12246
2.8463
2.42511
2.1963
2.06999
1.80423
4.18194e-14
5.05229e-14
3.79213e-14
5.97567e-14
6.01694e-14
6.05831e-14
8.74865e-15
4.38908e-14
6.1879e-14
9.79264e-14
1.80016e-14
4.5165e-14
4.06937e-14
8.64629e-14
4.12976e-14
7.94776e-14
8.84278e-14
7.78676e-14
4.75824e-14
2.3032e-13
1.5094e-13
6.23563e-14
9.9644e-15
1.58603e-13
8.04013e-14
7.25154e-14
1.29791e-13
5.34873e-13
5.47602e-13
8.4559e-13
1.0552e-12
1.33344e-12
1.84032e-12
2.14955e-12
2.20507e-12
2.48856e-12
2.81191e-12
3.05156e-12
2.8904e-12
1.84153e-11
1.5054e-10
1.26414e-09
2.18912e-09
4.01133e-09
6.1864e-07
5.32979e-06
1.08455e-05
0.000178374
0.000166155
0.0020043
0.0256084
0.344471
6.14705
31.678
109.992
188.158
213.871
191.86
145.847
80.9651
35.8078
10.266
2.54448
8.71906
7.18435
4.53295
0.274476
3.9953
5.69562
5.80758
4.35501
2.96643
2.52613
1.29346
0.80579
2.04598
2.54676
2.51722
2.46117
2.77008
2.50916e-14
5.89479e-14
1.27384e-14
1.09317e-13
2.15005e-14
6.97931e-14
5.66549e-14
4.38908e-14
1.1181e-13
4.45188e-14
4.9316e-14
2.26343e-14
2.73046e-14
1.19143e-13
1.61243e-13
1.04518e-13
4.96458e-15
9.44283e-15
5.23592e-14
3.95338e-14
2.42161e-14
7.8064e-14
4.91062e-14
7.97808e-14
8.91972e-14
9.55208e-14
4.78067e-14
1.48175e-13
2.47752e-13
2.08821e-13
4.3144e-13
8.09881e-13
1.49204e-12
1.98251e-12
2.44415e-12
2.89163e-12
3.17792e-12
3.47972e-12
3.92304e-12
4.08633e-12
2.97502e-12
3.85683e-12
8.78397e-11
4.38885e-10
2.89734e-09
1.09062e-08
3.20782e-09
1.35532e-07
6.96313e-06
0.000134807
7.93109e-05
0.000596372
0.000620523
0.208767
5.10474
38.5581
98.8077
174.466
228.151
202.415
130.343
74.8838
43.8539
12.8814
2.77769
4.40353
4.89713
4.92614
5.33662
2.78196
0.652693
0.808188
2.2614
2.75898
2.17263
1.39948
0.795749
0.29907
0.405039
1.64901
4.18258e-14
2.52722e-14
7.20617e-14
3.44178e-14
4.72782e-14
7.79073e-14
3.72398e-14
7.89951e-14
9.39648e-14
2.67185e-14
8.96654e-15
9.06613e-15
2.73046e-14
1.00814e-13
9.81477e-14
1.62779e-13
1.17149e-13
7.20693e-14
7.26251e-14
7.68564e-14
6.28139e-14
6.33055e-14
2.94582e-14
4.94739e-14
5.4849e-14
2.51482e-14
1.65994e-13
3.7072e-13
4.0382e-13
6.55426e-13
4.39286e-13
1.42634e-13
2.64521e-13
4.74639e-13
4.87862e-13
5.58627e-13
4.70226e-13
5.18462e-13
4.68324e-13
3.31833e-13
2.55793e-13
5.22266e-13
8.07239e-13
4.07928e-11
3.10082e-11
3.12018e-11
6.86129e-10
1.04783e-09
6.77482e-09
3.65399e-07
3.13857e-06
6.60183e-05
6.63534e-05
0.000386664
0.000973655
0.357819
3.37148
26.2923
83.63
183.204
210.705
177.619
134.43
79.9391
34.5032
19.5745
9.48449
1.90093
5.69487
6.69013
6.11619
5.1797
3.95866
2.07358
0.849041
2.19339
2.34556
1.83626
1.60841
1.48919
5.01886e-14
1.6841e-14
4.23908e-14
3.81814e-14
3.4388e-14
1.7326e-14
4.35784e-14
5.96888e-14
7.40867e-14
6.79446e-14
4.48396e-14
1.80676e-14
3.88652e-14
1.02975e-13
7.4436e-14
1.39584e-14
7.96606e-14
9.73353e-14
4.75752e-15
1.76019e-13
5.79783e-14
4.5936e-14
3.92609e-14
1.97913e-14
8.91972e-14
1.12959e-13
3.01719e-13
2.28487e-13
2.51527e-13
3.34425e-13
5.29675e-13
4.40331e-13
7.39785e-13
9.88924e-13
7.46895e-13
6.5385e-13
3.5187e-13
1.62092e-13
8.0126e-13
1.61947e-12
2.58454e-12
3.0526e-12
3.02999e-12
2.75424e-12
4.183e-12
5.85081e-12
1.27932e-11
1.09178e-11
7.17452e-11
4.1583e-11
1.21529e-08
2.81449e-07
3.56523e-06
1.85974e-05
3.91526e-05
0.000209425
0.001635
0.174415
2.12143
29.5382
113.732
192.682
212.643
189.174
123.577
56.2032
33.2081
20.8323
8.40357
4.60192
2.90401
1.2195
3.56055
4.08445
3.88501
3.6937
2.85032
2.31463
1.09958
1.2295
4.19792e-15
4.21024e-14
1.69597e-14
4.28431e-15
1.7194e-14
1.73136e-14
5.22976e-14
0
3.64448e-14
3.98146e-14
7.22906e-14
3.72467e-14
4.549e-14
5.51785e-14
1.28265e-13
1.39525e-13
1.03092e-13
7.56912e-14
2.3273e-13