/*--------------------------------*- C++ -*----------------------------------*\
| =========                 |                                                 |
| \\      /  F ield         | OpenFOAM: The Open Source CFD Toolbox           |
|  \\    /   O peration     | Version:  v1912                                 |
|   \\  /    A nd           | Website:  www.openfoam.com                      |
|    \\/     M anipulation  |                                                 |
\*---------------------------------------------------------------------------*/
FoamFile
{
    version     2.0;
    format      ascii;
    class       volScalarField;
    location    "0.14";
    object      normT;
}
// * * * * * * * * * * * * * * * * * * * * * * * * * * * * * * * * * * * * * //

dimensions      [0 -1 0 0 0 0 0];


internalField   nonuniform List<scalar> 
4800
(
9.33498e-14
0
4.66749e-14
0
0
0
0
7.93473e-13
7.93473e-13
9.62228e-13
4.42797e-13
6.55113e-13
3.9879e-13
2.95198e-13
0
0
2.80049e-13
1.32017e-13
1.40025e-13
0
2.80049e-13
2.83912e-13
3.73399e-13
9.33498e-14
0
0
5.28066e-13
1.40025e-13
1.40025e-13
6.34847e-13
9.98886e-13
3.9879e-13
4.20074e-13
4.66749e-13
4.4033e-13
1.47599e-13
5.15541e-13
1.1065e-12
3.36577e-13
9.28288
4.66749e-14
0
0
0
0
0
0
9.33498e-14
8.76942e-13
0
9.33498e-14
2.80049e-13
0
0
2.80049e-13
2.80049e-13
1.40025e-13
3.9879e-13
0
0
0
4.20074e-13
5.32176e-13
2.95198e-13
2.80049e-13
3.9879e-13
5.28066e-13
5.32176e-13
4.80547e-13
3.9879e-13
1.32017e-13
1.18998e-12
2.37996e-13
4.42797e-13
0
9.33498e-14
6.34847e-13
7.97581e-13
1.74953e-12
5.42161e-06
9.33498e-14
0
0
0
0
0
9.33498e-14
0
1.32017e-13
9.33498e-14
1.40025e-13
0
1.68289e-13
3.9879e-13
0
3.73399e-13
2.95198e-13
1.40025e-13
3.73399e-13
1.40025e-13
1.98025e-13
4.75992e-13
5.63975e-13
3.39798e-13
1.40025e-13
6.06774e-13
1.867e-13
1.05819e-12
3.30041e-13
6.93872e-13
3.73399e-13
3.13105e-13
7.37995e-13
1.40025e-13
4.873e-13
2.72159e-13
2.33374e-13
1.07757e-12
4.80547e-13
4.76084e-12
2.95198e-13
0
1.40025e-13
2.33374e-13
2.80049e-13
0
0
1.32017e-13
4.4033e-13
2.51352e-13
1.68289e-13
3.9879e-13
4.4033e-13
3.9879e-13
4.66749e-13
0
4.66749e-13
2.72159e-13
3.9879e-13
2.95198e-13
9.33498e-14
3.73399e-13
7.76825e-13
4.59694e-13
4.66749e-13
5.28066e-13
8.41444e-13
7.5261e-13
7.65525e-13
2.33374e-13
3.30041e-13
5.63975e-13
2.80049e-13
1.40025e-13
2.80049e-13
3.9605e-13
8.03025e-13
5.6204e-13
1.65416e-12
1.35679e-12
1.867e-13
3.13105e-13
2.33374e-13
6.60083e-13
7.54056e-13
7.10931e-13
3.73399e-13
3.9605e-13
3.13105e-13
5.32176e-13
5.63975e-13
2.95198e-13
1.68289e-13
3.55465e-13
3.73399e-13
9.33498e-14
2.33374e-13
3.9605e-13
1.40025e-13
3.9605e-13
2.80049e-13
3.30041e-13
8.76942e-13
5.63975e-13
6.13912e-13
7.5261e-13
7.76825e-13
7.10931e-13
7.65525e-13
2.72159e-13
5.13424e-13
2.33374e-13
3.84891e-13
5.63975e-13
8.41444e-13
9.33498e-14
6.79597e-13
5.32176e-13
4.22659e-13
1.06435e-12
3.36577e-13
0
1.00541e-12
6.50106e-13
2.33374e-13
2.33374e-13
8.86823e-13
1.40025e-13
0
8.31023e-13
7.10931e-13
3.30041e-13
8.41444e-13
4.66749e-13
5.84835e-13
2.80049e-13
6.06774e-13
5.6204e-13
7.12461e-13
1.40025e-13
5.13424e-13
6.06774e-13
7.06319e-13
5.84835e-13
8.96595e-13
3.9879e-13
8.03025e-13
4.66749e-13
3.73399e-13
5.04866e-13
6.68283e-13
9.33498e-14
2.33374e-13
5.63975e-13
7.12461e-13
6.68283e-13
4.30321e-13
7.10931e-13
2.80049e-13
8.51737e-13
9.33498e-14
5.84835e-13
0
8.31023e-13
6.53449e-13
6.53449e-13
3.73399e-13
3.9605e-13
6.34847e-13
3.13105e-13
5.04866e-13
5.44318e-13
1.98025e-13
5.9773e-13
3.13105e-13
3.9605e-13
4.4033e-13
2.51352e-13
3.9879e-13
2.95198e-13
2.80049e-13
4.4033e-13
3.39798e-13
1.08262e-12
4.66749e-13
8.60643e-13
3.9879e-13
3.13105e-13
6.93872e-13
5.28066e-13
9.17016e-13
6.34847e-13
3.9879e-13
3.73399e-13
9.33498e-14
8.34946e-13
8.31023e-13
5.63975e-13
3.30041e-13
5.21841e-13
9.33498e-14
2.80049e-13
5.13424e-13
2.80049e-13
2.80049e-13
2.80049e-13
2.80049e-13
3.64543e-13
5.13424e-13
1.06435e-12
1.06435e-12
3.13105e-13
2.33374e-13
1.98025e-13
2.72159e-13
3.64543e-13
2.51352e-13
1.05303e-12
2.72159e-13
3.9605e-13
2.80049e-13
2.33374e-13
1.05303e-12
4.80547e-13
1.10945e-12
7.5261e-13
5.63975e-13
4.42797e-13
2.80049e-13
5.04866e-13
2.95198e-13
2.33374e-13
5.63975e-13
1.40025e-13
5.04866e-13
1.68289e-13
5.28066e-13
7.5261e-13
6.73155e-13
3.64543e-13
3.36577e-13
2.33374e-13
0
2.33374e-13
2.33374e-13
0
5.63975e-13
5.21841e-13
5.04866e-13
4.4033e-13
4.66749e-13
5.44318e-13
3.30041e-13
1.02791e-12
4.66749e-13
6.06774e-13
8.86823e-13
3.84891e-13
1.00215e-12
3.13105e-13
5.84835e-13
9.17016e-13
5.63975e-13
1.14805e-12
5.13424e-13
3.73399e-13
7.59812e-13
6.68283e-13
2.51352e-13
3.30041e-13
5.84835e-13
2.80049e-13
3.64543e-13
4.4033e-13
3.30041e-13
3.73399e-13
2.33374e-13
5.6204e-13
8.76942e-13
6.89147e-13
4.20074e-13
3.30041e-13
2.80049e-13
2.95198e-13
2.33374e-13
2.80049e-13
3.13105e-13
5.44318e-13
5.13424e-13
8.76942e-13
4.22659e-13
2.98865e-13
3.39798e-13
4.30321e-13
5.6204e-13
3.64543e-13
2.33374e-13
4.80547e-13
2.95198e-13
2.33374e-13
2.33374e-13
2.33374e-13
6.34847e-13
7.59812e-13
6.60083e-13
6.79597e-13
4.20074e-13
6.60083e-13
8.58108e-13
6.50106e-13
3.30041e-13
3.64543e-13
4.42797e-13
1.40025e-13
6.93872e-13
3.30041e-13
3.9879e-13
8.34946e-13
3.73399e-13
1.867e-13
2.95198e-13
5.13424e-13
4.66749e-13
2.33374e-13
6.34847e-13
4.4033e-13
5.63975e-13
2.95198e-13
7.26091e-13
7.26091e-13
2.80049e-13
2.72159e-13
3.9879e-13
3.84891e-13
1.40025e-13
2.33374e-13
3.64543e-13
3.64543e-13
5.84835e-13
5.84835e-13
0
3.30041e-13
2.80049e-13
5.13424e-13
6.68283e-13
4.80547e-13
7.12461e-13
7.12461e-13
7.76825e-13
6.93872e-13
5.28066e-13
1.40025e-13
2.33374e-13
7.10931e-13
1.98025e-13
4.4033e-13
4.66749e-13
6.63375e-13
4.17473e-13
4.80547e-13
3.26724e-13
2.33374e-13
5.13424e-13
6.34847e-13
4.66749e-14
4.66749e-14
4.66749e-13
3.64543e-13
3.9605e-13
3.9605e-13
5.63975e-13
2.33374e-13
9.33498e-14
2.72159e-13
2.80049e-13
5.63975e-13
0
2.80049e-13
5.63975e-13
5.13424e-13
2.33374e-13
2.33374e-13
2.37996e-13
7.94845e-13
4.80547e-13
6.13912e-13
4.4033e-13
6.50106e-13
6.93872e-13
6.06774e-13
2.33374e-13
4.66749e-13
1.68289e-13
2.80049e-13
5.13424e-13
2.95198e-13
2.80049e-13
2.33374e-13
6.73155e-13
3.84891e-13
9.33498e-14
7.59812e-13
5.13424e-13
6.06774e-13
0
5.13424e-13
2.33374e-13
2.80049e-13
2.80049e-13
3.9605e-13
2.80049e-13
2.80049e-13
3.73399e-13
3.73399e-13
5.84835e-13
2.33374e-13
3.9605e-13
1.40025e-13
0
0
5.63975e-13
2.80049e-13
5.21841e-13
3.73399e-13
6.53449e-13
4.66749e-13
2.33374e-13
8.31023e-13
4.66749e-13
4.4033e-13
6.50106e-13
2.33374e-13
3.13105e-13
2.80049e-13
7.98946e-13
2.95198e-13
9.24116e-13
0
5.32176e-13
2.95198e-13
4.17473e-13
2.80049e-13
5.63975e-13
3.73399e-13
2.33374e-13
4.66749e-13
0
2.33374e-13
5.63975e-13
2.80049e-13
5.13424e-13
3.73399e-13
5.04866e-13
3.9879e-13
1.00541e-12
6.06774e-13
4.20074e-13
3.30041e-13
4.66749e-13
0
2.33374e-13
3.73399e-13
3.64543e-13
2.98865e-13
6.60083e-13
5.63975e-13
6.13912e-13
4.01513e-13
2.98865e-13
6.93872e-13
4.4033e-13
2.72159e-13
5.32176e-13
8.76942e-13
5.63975e-13
2.33374e-13
0
5.13424e-13
3.30041e-13
2.83912e-13
3.9605e-13
4.66749e-13
4.4033e-13
2.80049e-13
5.13424e-13
0
3.73399e-13
8.60643e-13
5.15541e-13
9.45095e-13
2.83912e-13
5.63975e-13
7.76825e-13
6.68283e-13
5.32176e-13
4.66749e-13
6.34847e-13
3.9605e-13
5.63975e-13
3.64543e-13
3.64543e-13
0
4.4033e-13
5.84835e-13
2.80049e-13
4.66749e-13
4.4033e-13
2.51352e-13
6.06774e-13
6.68283e-13
3.9605e-13
2.33374e-13
5.32176e-13
4.4033e-13
6.68283e-13
6.13912e-13
6.34847e-13
7.82414e-13
3.36577e-13
3.9879e-13
5.46316e-13
2.80049e-13
3.9605e-13
4.4033e-13
1.40025e-13
4.4033e-13
6.53449e-13
3.9605e-13
1.19546e-12
6.60083e-14
8.41444e-13
2.33374e-13
2.37996e-13
6.53449e-13
6.55113e-13
1.98025e-13
5.46316e-13
3.13105e-13
9.34664e-13
7.93473e-13
5.13424e-13
5.84835e-13
2.33374e-13
5.13424e-13
2.72159e-13
6.93872e-13
2.33374e-13
6.53449e-13
7.12461e-13
3.30041e-13
5.13424e-13
3.30041e-13
5.21841e-13
2.33374e-13
4.66749e-13
2.51352e-13
1.68289e-13
1.92446e-13
4.59694e-13
2.72159e-13
1.867e-13
4.4033e-13
2.80049e-13
4.66749e-13
2.33374e-13
2.95198e-13
2.33374e-13
4.80547e-13
3.30041e-13
8.27081e-13
3.30041e-13
2.33374e-13
5.63975e-13
3.9605e-13
4.66749e-13
8.41444e-13
2.33374e-13
8.9781e-13
0
6.06774e-13
6.26209e-13
0
3.9605e-13
2.80049e-13
5.13424e-13
3.73399e-13
3.73399e-13
3.84891e-13
3.30041e-13
7.65525e-13
3.30041e-13
3.30041e-13
5.13424e-13
5.13424e-13
5.84835e-13
3.13105e-13
6.68283e-13
1.40025e-13
5.9773e-13
6.06774e-13
9.33498e-14
5.44318e-13
3.64543e-13
6.06774e-13
4.66749e-13
4.20074e-13
0
5.13424e-13
3.30041e-13
2.33374e-13
3.30041e-13
5.13424e-13
2.33374e-13
2.80049e-13
0
2.51352e-13
5.60099e-13
6.53449e-13
0
3.64543e-13
2.80049e-13
0
0
2.80049e-13
2.51352e-13
3.36577e-13
3.64543e-13
9.33498e-14
3.73399e-13
3.36577e-13
3.30041e-13
5.21841e-13
7.54056e-13
2.33374e-13
1.40025e-13
9.29991e-13
3.9879e-13
7.10931e-13
8.41444e-13
9.33498e-14
5.13424e-13
6.53449e-13
7.94845e-13
1.867e-13
8.86823e-13
3.76305e-13
6.93872e-13
2.80049e-13
2.33374e-13
2.80049e-13
4.20074e-13
9.33498e-14
4.4033e-13
0
0
2.33374e-13
6.93872e-13
2.33374e-13
4.80547e-13
5.13424e-13
2.80049e-13
5.63975e-13
7.10931e-13
3.64543e-13
3.30041e-13
5.13424e-13
2.33374e-13
2.33374e-13
0
0
2.51352e-13
6.93872e-13
4.01513e-13
8.68203e-13
9.746e-13
6.68283e-13
5.6204e-13
6.68283e-13
6.93872e-13
8.76942e-13
1.68289e-13
5.44318e-13
6.06774e-13
8.27081e-13
6.06774e-13
2.72159e-13
3.9605e-13
5.13424e-13
5.63975e-13
2.98865e-13
5.04866e-13
4.66749e-13
5.32176e-13
4.66749e-13
0
2.33374e-13
5.60099e-13
0
0
3.64543e-13
5.63975e-13
9.33498e-13
8.85594e-13
6.06774e-13
3.64543e-13
2.80049e-13
3.64543e-13
0
3.73399e-13
2.80049e-13
2.33374e-13
1.40025e-13
6.53449e-13
1.40025e-13
6.53449e-13
4.42797e-13
4.80547e-13
4.66749e-13
2.72159e-13
3.9879e-13
2.95198e-13
2.33374e-13
3.30041e-13
2.80049e-13
4.66749e-14
4.66749e-14
2.37996e-13
2.33374e-13
2.33374e-13
3.30041e-13
2.72159e-13
2.33374e-13
7.94845e-13
5.13424e-13
4.66749e-13
7.46798e-13
9.33498e-13
7.93473e-13
6.53449e-13
2.33374e-13
2.80049e-13
2.80049e-13
2.33374e-13
1.14425e-12
3.73399e-13
0
2.80049e-13
3.73399e-13
3.30041e-13
6.22721e-13
4.4033e-13
3.64543e-13
8.76942e-13
1.40025e-13
6.06774e-13
4.4033e-13
3.73399e-13
1.47599e-13
8.9781e-13
5.44318e-13
9.33498e-14
2.33374e-13
2.80049e-13
0
2.33374e-13
0
6.26209e-13
3.9605e-13
5.13424e-13
2.33374e-13
2.51352e-13
5.32176e-13
5.21841e-13
5.84835e-13
7.93473e-13
5.13424e-13
2.80049e-13
8.86823e-13
2.33374e-13
3.30041e-13
5.84835e-13
9.33498e-13
6.08566e-13
5.04866e-13
9.29991e-13
4.30321e-13
4.80547e-13
5.84835e-13
6.22721e-13
1.06435e-12
5.94074e-13
5.04866e-13
5.04866e-13
1.06435e-12
3.73399e-13
5.63975e-13
2.51352e-13
8.34946e-13
5.32176e-13
8.15142e-13
3.73399e-13
3.30041e-13
2.80049e-13
3.30041e-13
2.33374e-13
2.33374e-13
3.30041e-13
8.27081e-13
2.33374e-13
8.03025e-13
9.33498e-14
6.06774e-13
2.72159e-13
8.27081e-13
5.63975e-13
3.9605e-13
5.84835e-13
3.64543e-13
1.40025e-13
4.4033e-13
5.44318e-13
9.45095e-13
8.91723e-13
1.54098e-12
1.02791e-12
9.24116e-13
1.8257e-12
1.867e-13
8.56837e-13
1.00541e-12
5.84835e-13
3.13105e-13
8.68203e-13
2.33374e-13
6.34847e-13
3.9879e-13
9.29991e-13
2.33374e-13
6.53449e-13
3.84891e-13
4.30321e-13
5.21841e-13
4.66749e-13
6.60083e-14
2.80049e-13
7.94845e-13
2.37996e-13
2.33374e-13
8.86823e-13
4.69077e-13
7.93473e-13
2.95198e-13
1.40025e-13
2.33374e-13
7.94845e-13
0
4.69077e-13
3.26724e-13
7.37995e-13
2.98865e-13
6.06774e-13
5.21841e-13
6.27946e-13
9.33498e-13
4.66749e-13
1.50305e-12
1.07454e-12
9.746e-13
7.46798e-13
1.56552e-12
2.83912e-13
7.93473e-13
7.37995e-13
8.31023e-13
2.33374e-13
6.08566e-13
4.96161e-13
8.60643e-13
1.98025e-13
5.13424e-13
4.873e-13
5.84835e-13
5.13424e-13
7.93473e-13
8.9781e-13
7.59812e-13
9.29991e-13
7.26091e-13
4.66749e-13
5.63975e-13
1.31769e-12
1.14805e-12
1.68094e-12
2.33374e-13
6.60083e-13
6.53449e-13
5.13424e-13
5.32176e-13
5.84835e-13
6.93872e-13
6.06774e-13
8.40148e-13
5.6974e-13
7.94845e-13
8.34946e-13
1.06537e-12
2.48475e-12
5.21841e-13
1.55785e-12
5.15541e-13
1.91367e-12
2.72159e-13
2.51352e-13
8.41444e-13
7.76825e-13
7.5261e-13
2.37996e-13
4.80547e-13
5.60099e-13
5.21841e-13
3.30041e-13
3.13105e-13
5.13424e-13
4.66749e-13
2.72159e-13
7.26091e-13
2.72159e-13
4.66749e-13
1.07454e-12
7.30578e-13
1.04368e-13
8.76942e-13
1.02472e-12
1.65548e-12
7.65525e-13
5.13424e-13
9.20573e-13
5.21841e-13
2.80049e-13
9.17016e-13
9.20573e-13
4.01513e-13
5.84835e-13
1.1706e-12
2.95198e-13
9.06263e-13
2.33374e-13
2.33374e-13
1.00541e-12
1.97419e-12
6.63375e-13
1.00541e-12
2.33374e-13
1.04368e-13
4.30321e-13
0
3.13105e-13
1.40025e-13
6.68283e-13
3.13105e-13
1.32017e-13
3.30041e-13
0
8.27081e-13
1.40025e-13
6.06774e-13
1.04889e-12
8.31023e-13
4.66749e-13
7.76825e-13
1.19637e-12
1.1202e-12
1.70347e-12
3.13105e-13
5.02704e-13
6.60083e-13
7.93473e-13
4.20074e-13
1.40025e-13
3.73399e-13
1.08964e-12
4.66749e-13
1.27483e-12
5.32176e-13
9.38154e-13
9.62228e-13
1.02472e-12
6.68283e-13
5.63975e-13
4.66749e-13
8.05734e-13
2.51352e-13
5.21841e-13
5.32176e-13
6.53449e-13
6.50106e-13
2.95198e-13
8.31023e-13
3.73399e-13
1.40025e-13
4.01513e-13
2.33374e-13
4.66749e-14
3.30041e-13
0
3.30041e-13
0
5.13424e-13
8.03025e-13
5.13424e-13
5.21841e-13
2.72159e-13
5.84835e-13
4.66749e-13
7.94845e-13
8.27081e-13
5.84835e-13
8.41444e-13
5.21841e-13
2.33374e-13
2.33374e-13
5.13424e-13
2.33374e-13
9.17016e-13
4.66749e-13
2.33374e-13
2.51352e-13
4.4033e-13
1.40025e-13
6.06774e-13
3.64543e-13
2.33374e-13
0
4.66749e-13
4.66749e-13
3.13105e-13
8.05734e-13
2.51352e-13
5.13424e-13
6.63375e-13
3.26724e-13
5.13424e-13
2.37996e-13
3.30041e-13
0
4.66749e-13
8.27081e-13
5.13424e-13
3.73399e-13
3.73399e-13
5.13424e-13
1.40025e-13
3.73399e-13
6.93872e-13
0
2.33374e-13
2.80049e-13
0
2.33374e-13
3.64543e-13
2.33374e-13
0
3.30041e-13
0
4.4033e-13
3.64543e-13
2.80049e-13
3.64543e-13
3.73399e-13
2.33374e-13
2.72159e-13
2.80049e-13
4.66749e-14
3.73399e-13
0
5.84835e-13
3.9879e-13
9.20573e-13
2.33374e-13
2.98865e-13
1.40025e-13
3.9605e-13
2.33374e-13
5.63975e-13
6.26209e-13
6.34847e-13
5.13424e-13
5.04866e-13
4.20074e-13
9.33498e-14
1.02685e-12
6.68283e-13
2.80049e-13
2.51352e-13
8.56837e-13
5.13424e-13
7.46798e-13
3.64543e-13
3.73399e-13
6.53449e-13
3.9605e-13
2.33374e-13
3.9605e-13
5.6204e-13
3.30041e-13
6.06774e-13
2.72159e-13
2.33374e-13
0
0
2.80049e-13
1.40025e-13
6.53449e-13
4.66749e-14
3.73399e-13
1.68289e-13
7.48255e-13
1.40025e-13
5.63975e-13
2.33374e-13
5.60099e-13
4.66749e-13
4.66749e-13
8.41444e-13
1.40025e-13
4.66749e-13
6.34847e-13
8.31023e-13
2.51352e-13
8.86823e-13
2.51352e-13
4.80547e-13
1.07352e-12
8.34946e-13
3.9605e-13
4.66749e-14
2.33374e-13
3.73399e-13
8.86823e-13
9.33498e-14
3.73399e-13
0
9.33498e-13
4.66749e-13
6.68283e-13
7.94845e-13
0
4.66749e-13
2.33374e-13
2.33374e-13
2.33374e-13
3.73399e-13
2.72159e-13
4.20074e-13
1.40025e-13
2.51352e-13
2.33374e-13
5.21841e-13
0
2.80049e-13
6.34847e-13
2.33374e-13
0
3.30041e-13
5.60099e-13
1.40025e-13
8.05734e-13
5.60099e-13
3.13105e-13
4.66749e-13
3.30041e-13
5.84835e-13
4.66749e-14
6.93872e-13
5.60099e-13
2.80049e-13
7.46798e-13
3.64543e-13
3.73399e-13
6.53449e-13
5.84835e-13
2.80049e-13
3.9605e-13
1.24544e-12
6.93872e-13
7.94845e-13
0
2.33374e-13
5.63975e-13
2.37996e-13
9.33498e-14
6.55113e-13
5.21841e-13
3.64543e-13
3.84891e-13
7.59812e-13
1.40025e-13
2.95198e-13
1.98025e-13
2.33374e-13
9.33498e-14
7.94845e-13
3.64543e-13
5.63975e-13
3.73399e-13
5.63975e-13
4.66749e-13
3.73399e-13
5.60099e-13
4.20074e-13
6.06774e-13
4.66749e-14
7.82414e-13
4.4033e-13
9.33498e-14
2.51352e-13
0
2.80049e-13
2.33374e-13
2.80049e-13
5.63975e-13
3.64543e-13
9.33498e-14
3.26724e-13
3.13105e-13
2.33374e-13
4.66749e-13
1.40025e-13
2.80049e-13
3.64543e-13
9.33498e-13
5.13424e-13
3.9605e-13
5.32176e-13
1.16687e-12
1.98025e-13
5.67825e-13
3.73399e-13
0
1.32017e-13
5.84835e-13
0
9.33498e-14
4.66749e-13
2.33374e-13
2.80049e-13
2.80049e-13
6.34847e-13
1.40025e-13
1.40025e-13
1.40025e-13
3.64543e-13
3.76305e-13
2.33374e-13
5.84835e-13
4.4033e-13
4.66749e-13
2.80049e-13
0
2.80049e-13
2.33374e-13
8.76942e-13
0
7.98946e-13
6.06774e-13
7.26091e-13
2.72159e-13
5.60099e-13
5.84835e-13
2.33374e-13
2.72159e-13
9.29991e-13
6.27946e-13
7.46798e-13
8.31023e-13
2.33374e-13
1.40025e-13
3.73399e-13
4.20074e-13
3.9879e-13
5.63975e-13
7.46798e-13
2.80049e-13
4.66749e-13
3.73399e-13
2.33374e-13
3.73399e-13
0
0
1.40025e-13
2.72159e-13
0
2.72159e-13
4.66749e-13
9.33498e-14
2.51352e-13
2.80049e-13
5.21841e-13
2.33374e-13
2.37996e-13
2.37996e-13
2.33374e-13
9.33498e-14
5.63975e-13
6.34847e-13
5.21841e-13
5.77337e-13
5.63975e-13
2.33374e-13
5.63975e-13
0
2.72159e-13
2.95198e-13
5.84835e-13
2.72159e-13
3.9879e-13
6.93872e-13
7.5261e-13
3.30041e-13
7.26091e-13
7.00123e-13
5.15541e-13
1.40025e-13
2.80049e-13
2.33374e-13
0
0
0
0
0
0
2.33374e-13
9.33498e-14
0
4.75992e-13
2.33374e-13
2.33374e-13
0
2.33374e-13
0
5.13424e-13
0
7.92099e-13
7.94845e-13
7.48255e-13
7.00123e-13
5.63975e-13
2.33374e-13
2.33374e-13
1.40025e-13
2.72159e-13
5.13424e-13
9.33498e-14
0
2.72159e-13
3.73399e-13
4.66749e-13
4.66749e-14
5.32176e-13
7.76825e-13
5.63975e-13
6.53449e-13
2.80049e-13
2.33374e-13
1.40025e-13
0
2.33374e-13
0
0
5.13424e-13
4.4033e-13
2.33374e-13
2.51352e-13
6.60083e-13
5.13424e-13
2.72159e-13
9.33498e-14
2.51352e-13
9.33498e-14
4.873e-13
1.40025e-13
7.30578e-13
1.08864e-12
1.05613e-12
8.60643e-13
2.80049e-13
5.84835e-13
5.60099e-13
2.51352e-13
6.93872e-13
2.51352e-13
3.64543e-13
2.98865e-13
2.98865e-13
3.64543e-13
1.68289e-13
3.30041e-13
3.9879e-13
7.10931e-13
4.59694e-13
1.867e-13
2.80049e-13
3.64543e-13
9.33498e-14
2.80049e-13
4.4033e-13
0
8.41444e-13
1.04889e-12
8.58108e-13
1.05613e-12
7.26091e-13
8.31023e-13
6.34847e-13
6.68283e-13
5.6974e-13
3.64543e-13
2.80049e-13
2.33374e-13
0
7.94845e-13
8.85594e-13
1.02366e-12
1.02366e-12
5.63975e-13
4.80547e-13
6.26209e-13
3.64543e-13
5.13424e-13
1.40025e-13
6.68283e-13
2.33374e-13
1.40025e-13
3.26724e-13
3.9605e-13
4.20074e-13
8.86823e-13
2.33374e-13
6.73155e-13
0
4.01513e-13
5.63975e-13
3.30041e-13
2.33374e-13
2.72159e-13
3.30041e-13
7.26091e-13
9.33498e-13
2.80049e-13
7.59812e-13
5.60099e-13
2.80049e-13
3.13105e-13
8.91723e-13
2.33374e-13
7.12461e-13
2.72159e-13
3.13105e-13
2.51352e-13
4.42797e-13
2.37996e-13
4.20074e-13
1.06537e-12
5.60099e-13
6.68283e-13
3.30041e-13
8.31023e-13
8.27081e-13
3.30041e-13
2.33374e-13
3.30041e-13
5.84835e-13
2.33374e-13
2.80049e-13
5.21841e-13
7.59812e-13
3.9879e-13
3.55465e-13
4.20074e-13
2.95198e-13
5.13424e-13
2.33374e-13
2.33374e-13
0
2.33374e-13
2.33374e-13
2.37996e-13
5.60099e-13
8.71959e-13
7.93473e-13
7.93473e-13
7.46798e-13
4.66749e-13
5.21841e-13
8.86823e-13
5.21841e-13
4.66749e-13
3.30041e-13
0
4.66749e-14
4.20074e-13
2.80049e-13
3.73399e-13
3.30041e-13
6.60083e-13
1.06537e-12
2.33374e-13
5.63975e-13
0
5.13424e-13
5.63975e-13
0
0
2.80049e-13
5.90396e-13
1.40025e-13
9.81283e-13
1.40025e-13
6.06774e-13
8.60643e-13
24.1151
32.2864
37.7924
42.8403
48.931
49.4332
43.9445
42.3397
43.4708
39.3288
31.381
29.2332
27.4698
22.2487
19.379
15.4892
11.8344
7.48258
4.78771
4.83139
6.06086
7.51828
8.05192
6.74775
5.10078
3.95611
2.98911
1.84617
1.02549
0.726527
0.354837
0.177471
0.436615
0.627082
0.76854
0.56885
0.539517
0.559471
0.455267
0.459582
0.466371
0.254443
0.0120689
0.257668
0.50663
0.627956
0.786997
0.913388
0.94187
0.836649
0.684888
0.594165
0.570414
0.529071
0.417956
0.276376
0.164406
0.28772
0.525554
0.806583
1.0534
1.19214
1.21064
1.13248
0.952827
0.675993
0.409579
0.359071
0.50184
0.613267
0.576848
0.356621
0.124163
0.156683
0.316401
0.581879
0.925642
1.03528
1.00948
0.962528
9.61352
22.7056
36.3342
48.3855
63.294
78.2328
81.8167
82.7023
89.3385
93.6996
85.6902
77.8496
72.7607
58.059
42.9929
29.1033
12.355
5.1638
7.04442
10.1892
11.2566
12.2534
13.292
12.8016
11.1765
8.00972
5.41714
3.17022
1.73385
1.16688
1.29388
1.60053
2.09572
2.45337
2.48007
2.21279
2.19007
2.19836
2.14043
1.77576
1.32667
1.0773
1.00753
1.14766
1.58617
1.99346
2.29091
2.48417
2.52352
2.39156
2.20689
1.87674
1.24765
0.699541
0.387552
0.236123
0.244818
0.552742
1.13594
1.79806
2.31708
2.61321
2.73293
2.70572
2.49714
2.07761
1.5137
0.912043
0.403159
0.170234
0.364962
0.44172
0.212021
0.288099
0.748593
1.26291
1.853
2.20434
2.25415
2.15634
5.60421e-06
0.03494
0.372826
2.0781
3.38196
9.26788
21.9892
31.7018
40.2017
53.7936
68.5435
72.896
78.4349
81.4076
74.3128
67.0773
47.3609
28.7586
16.7056
5.25953
1.76954
2.78954
4.48353
5.5032
7.29447
8.57842
8.19985
7.40059
6.63567
6.14568
5.53033
4.82422
3.92847
3.30023
2.787
2.71128
2.84446
3.09409
3.43094
3.50622
3.33061
3.10373
2.7135
2.39474
2.32062
2.63046
3.02109
3.28444
3.52948
3.7124
3.70158
3.47887
3.1719
2.89074
2.53381
2.08572
1.70031
1.59776
1.67245
1.91311
2.34573
2.83137
3.1834
3.32276
3.29055
3.12831
2.8489
2.3704
1.88957
1.60324
1.35698
1.06759
0.913039
1.00324
1.25612
1.56117
1.85175
2.21263
2.39712
2.37907
5.70892e-11
2.69185e-08
7.77174e-08
4.50867e-08
0.000355032
2.34409e-05
6.94308e-05
0.0015406
0.0423254
0.620535
4.6171
13.0011
23.2664
43.5457
65.6345
87.2534
101.882
93.8656
84.1785
64.9313
45.0498
30.582
16.4966
8.49524
0.372824
6.61702
8.29308
9.53668
9.63473
8.76737
7.68675
5.55112
3.46525
2.56758
2.2561
2.59036
2.90815
3.07386
3.26597
3.46297
3.5194
3.43948
3.10921
2.85549
2.62606
2.55906
2.57355
2.70901
3.07841
3.55919
3.81315
3.93606
3.90171
3.76443
3.64492
3.51533
3.19855
2.81273
2.46961
2.14584
2.0405
2.17749
2.48464
2.82938
3.06629
3.22611
3.21856
3.17628
3.10027
3.04092
3.03572
2.97289
2.7393
2.38852
2.16858
2.01307
1.91389
1.91878
1.97537
2.00766
1.10001e-12
6.16728e-11
2.58533e-10
6.74007e-10
4.89721e-08
2.49499e-08
3.72518e-08
6.16825e-09
1.32703e-06
8.12301e-07
2.49972e-06
6.28829e-06
0.0312988
0.0372448
2.40383
9.88722
33.55
63.8016
90.5942
105.063
96.3937
89.2476
72.3871
52.0767
35.8625
20.4253
11.332
2.8096
1.94566
2.4805
3.51179
4.07197
3.0593
2.45526
2.65888
3.11158
3.16311
3.05599
2.64184
2.23411
1.96796
1.89108
1.96249
1.99075
2.08562
2.17505
1.96684
1.77561
1.64823
1.69198
1.95114
2.38384
2.89086
3.23411
3.49973
3.76822
3.89802
3.62385
3.23987
2.86106
2.31092
1.81325
1.55705
1.5572
1.80729
2.27732
2.80887
3.38407
3.81184
3.93197
4.00594
4.02901
3.88869
3.60381
3.26524
2.99157
2.68193
2.316
2.02076
1.83988
1.0307e-12
9.97244e-13
1.23916e-12
1.29617e-12
2.32695e-11
1.98632e-11
2.497e-11
1.6153e-11
2.25447e-11
1.06205e-11
4.52846e-11
3.28916e-11
5.64972e-08
1.95531e-07
9.69008e-07
1.63111e-05
0.0575367
0.946281
5.92951
25.3507
54.1104
79.0614
100.197
99.7099
97.0235
83.7678
64.0594
45.4095
27.895
16.8929
5.56421
1.10263
2.16615
3.17267
2.97865
2.39377
1.63109
0.705878
0.485043
0.525736
0.455349
0.494151
1.05524
1.41437
1.31726
0.940303
0.761813
0.583221
0.247427
0.072922
0.13988
0.205316
0.715946
1.66654
2.27745
2.64676
3.03248
3.31239
3.20898
2.60633
1.96226
1.47114
1.17197
0.988157
0.991532
1.15861
1.61379
2.12172
2.58208
2.95695
3.23492
3.43357
3.54856
3.41958
3.17293
2.86796
2.62395
2.36841
2.12728
1.94626
3.24714e-13
3.16325e-13
4.28767e-13
1.14231e-12
8.41363e-13
7.54841e-13
1.69983e-12
9.75684e-13
2.41738e-12
1.61279e-12
6.99384e-13
1.58256e-12
3.68683e-11
3.75197e-10
1.53596e-09
1.02723e-08
1.93646e-05
7.49288e-06
1.18393e-05
0.0429322
0.331364
2.71163
17.3987
44.1758
70.3908
94.633
100.191
99.5649
86.0036
68.796
47.9611
28.6007
16.6108
5.62056
3.26362
2.58373
2.91897
3.40325
2.70774
1.54672
0.552625
0.467462
0.966286
1.06469
0.813938
0.344272
0.214678
0.148393
0.59954
0.937073
1.04599
1.10984
1.14502
0.739819
0.240223
0.628837
0.993172
1.38423
1.79071
1.95885
1.7873
1.42653
1.1317
1.04394
0.928621
0.741403
0.588295
0.560778
0.722912
1.01288
1.29638
1.50371
1.63175
1.73706
1.86544
1.92585
1.90291
1.85686
1.86579
1.94234
3.81233e-13
8.77844e-13
1.32726e-12
8.77524e-13
6.14626e-13
9.76652e-13
1.36051e-12
3.9397e-13
1.00663e-12
2.4116e-12
2.01982e-12
1.99139e-12
1.01902e-12
1.84871e-12
2.45143e-12
4.85846e-12
1.16405e-08
7.51672e-09
6.46977e-09
1.29507e-05
1.58342e-06
3.49555e-06
0.0141964
0.0709283
1.37112
12.9161
35.9608
63.1419
88.3556
99.8916
104.833
89.7834
72.9422
50.9333
31.8153
18.6182
8.52884
5.29752
2.84038
1.84535
1.35015
0.839672
0.610377
0.664875
0.75386
0.642195
0.537153
0.587962
0.605385
0.488467
0.89729
1.10942
1.5163
1.94278
1.83044
1.5552
1.26097
0.974433
0.652965
0.239465
0.821998
1.2207
1.40557
1.38409
1.22735
0.827803
0.277618
0.0838097
0.283927
0.391059
0.415361
0.380001
0.342795
0.166165
0.303183
0.878491
1.30572
1.59461
1.79587
1.95921
1.02249e-12
7.45583e-13
1.47406e-12
1.05841e-12
1.19557e-12
9.12217e-13
2.48348e-12
1.08131e-12
1.23751e-13
5.32437e-13
9.58082e-13
7.33371e-13
1.21661e-12
1.52165e-12
3.8431e-13
1.21108e-12
7.15632e-12
3.39463e-12
3.41147e-12
7.61026e-09
4.1894e-10
1.04564e-09
3.18584e-07
2.57169e-06
1.05063e-06
5.83535e-05
0.00898516
0.926525
10.7948
28.9704
56.5134
84.6828
99.9326
104.729
88.8736
72.0307
49.4912
30.089
15.9829
8.51345
7.66868
6.30781
5.55751
4.89158
3.78878
2.65829
1.77953
0.795357
0.211261
0.463038
0.228028
0.179647
0.60219
1.47233
2.30848
2.65109
2.80105
2.75642
2.60511
2.1895
1.30432
0.390601
0.343503
0.698832
0.864054
0.933958
0.641896
0.0929064
0.40577
0.72149
0.932577
1.02536
0.936184
0.732522
0.529896
0.265959
0.268732
0.836395
1.12936
1.2937
4.82226e-13
6.77723e-13
6.84813e-13
1.06036e-12
7.11067e-13
2.44219e-12
1.41164e-12
2.05732e-12
2.95187e-13
6.48097e-13
6.90427e-13
5.13459e-13
1.03168e-12
1.39423e-12
2.32506e-12
2.59508e-12
2.48791e-12
1.84475e-12
2.95956e-12
1.13405e-12
5.33627e-13
4.62878e-12
1.18614e-11
3.28249e-09
2.29205e-09
2.12667e-08
3.38156e-06
1.35518e-06
8.42942e-05
0.0275299
0.606112
9.38471
26.222
55.8718
83.5568
101.278
104.986
90.5897
71.8281
48.317
30.8963
17.8148
10.673
7.92297
5.87038
4.75502
3.50793
2.17195
1.2404
0.769767
0.345055
0.182202
0.187509
0.428349
0.692733
1.48807
2.44398
2.90954
2.99276
2.91342
2.67602
2.25617
1.79494
1.21201
0.808019
0.508074
0.470181
0.38569
0.177383
0.130537
0.321793
0.558242
0.758592
0.836845
0.830321
0.770312
0.602294
0.3873
0.172201
0.135413
3.11624e-13
6.42485e-13
4.70027e-13
6.752e-13
8.7179e-13
1.20998e-12
2.75595e-12
2.50619e-13
1.17895e-12
5.81388e-13
2.1291e-12
1.06365e-12
7.205e-13
2.03381e-12
2.34185e-12
1.2201e-12
4.46143e-13
1.78666e-12
1.52583e-12
4.01323e-12
4.23097e-12
3.62609e-12
5.12217e-12
2.15279e-12
7.8809e-12
3.81353e-11
2.43824e-09
2.19147e-09
4.06144e-08
2.31574e-06
1.09025e-06
0.000152992
0.0181379
0.813946
10.2058
25.6493
54.461
83.7386
104.334
102.884
85.8624
67.5346
44.3616
24.7896
11.1777
8.95727
8.56829
7.73502
5.85629
4.06912
2.69528
1.68664
0.93827
0.484204
0.474181
0.817977
0.759762
0.86774
1.21041
1.77641
2.50122
3.0266
3.0751
3.10355
2.93204
2.57526
2.022
1.29985
0.675308
0.218883
0.162484
0.227077
0.211789
0.432934
0.726605
0.874463
0.943332
1.04994
1.08334
0.927077
9.78074e-13
8.7334e-13
3.56071e-13
1.16723e-12
1.64708e-12
1.06394e-12
5.84784e-13
1.73773e-12
1.15068e-12
9.19593e-13
1.25534e-12
2.11747e-12
5.25806e-13
1.43358e-12
9.85944e-13
8.39918e-13
1.82148e-12
5.88996e-13
1.58315e-12
1.22886e-12
2.06115e-12
2.13448e-12
7.5343e-13
2.30896e-12
1.66143e-12
1.13159e-12
6.60819e-13
5.98321e-12
2.48304e-10
2.29072e-09
2.76379e-09
7.69872e-08
7.27539e-06
0.00117148
0.00514621
0.00110586
0.962415
9.3737
27.2303
60.0275
87.2314
105.258
102.087
84.3255
59.5142
38.2445
22.774
12.8298
9.81605
7.86658
6.6881
5.67427
3.91629
2.2556
1.74802
1.0761
0.351307
0.139752
0.431786
0.173913
0.450844
1.32195
2.3173
3.08429
3.45545
3.48174
3.16262
2.90505
2.38523
1.48128
0.950748
0.652776
0.481853
0.427592
0.44326
0.609656
0.868317
1.09296
1.37019
1.53008
4.68379e-13
6.62794e-13
1.41361e-12
1.19147e-12
9.40287e-13
1.21463e-12
7.43393e-13
1.20345e-12
1.59444e-12
5.02609e-13
1.10769e-12
1.0558e-12
7.33691e-13
3.13234e-13
1.28174e-12
1.34265e-12
2.83408e-12
1.45241e-12
1.72127e-12
1.38949e-12
5.95387e-13
2.62954e-12
2.83699e-12
1.79118e-12
1.01337e-12
1.61531e-12
1.78962e-12
1.55931e-12
2.48834e-12
4.1523e-12
8.90356e-12
1.51977e-09
6.58158e-08
5.14381e-06
4.35558e-06
6.13142e-05
0.000152331
0.00494325
0.0281771
1.99889
12.333
31.4218
65.3922
96.5409
109.275
96.1076
77.4044
51.9821
29.6635
10.7704
6.53154
7.72091
7.5904
6.14543
4.94559
4.18389
3.22216
1.86032
0.623857
0.189858
0.34059
0.457073
0.486176
0.591336
1.15022
2.18456
2.76826
3.13578
3.04156
2.69059
2.39279
2.19506
1.97122
1.48735
1.07572
0.835679
0.88909
0.948026
1.07045
1.33906
1.41001e-13
9.28319e-13
7.85174e-13
1.24263e-12
1.35973e-12
4.73985e-13
6.05791e-13
1.51696e-12
1.37021e-12
1.85014e-12
1.70031e-12
5.62958e-13
8.41879e-13
1.51141e-12
8.32909e-13
2.17548e-12
2.03691e-13
2.86652e-12
5.70831e-13
2.69266e-12
2.98899e-12
2.61813e-12
7.6955e-13
4.97277e-13
1.76077e-12
1.92285e-12
3.66386e-12
3.89984e-12
3.71519e-12
4.73461e-12
6.3573e-12
7.22934e-12
1.69178e-09
5.32958e-09
7.04569e-08
4.17403e-08
9.39053e-07
5.74818e-05
0.000155849
0.00121538
0.00151207
0.104456
3.53469
16.4948
44.7136
76.9128
102.692
107.904
91.078
60.4732
35.6026
19.0221
9.46722
6.11447
5.80656
5.40514
5.69184
5.02802
3.57668
2.38695
1.87281
1.18913
0.309252
0.431597
0.787086
0.58919
0.428419
0.996059
1.82978
2.62306
2.80176
2.85976
2.8099
2.60808
2.20461
1.78546
1.66325
1.51602
1.28014
1.18506
4.14696e-13
2.44528e-13
9.0767e-13
6.35175e-13
4.04315e-13
5.39464e-13
1.14423e-12
6.57156e-13
1.23079e-12
8.68892e-13
1.51103e-12
1.3503e-12
1.70626e-12
2.0923e-12
1.56088e-12
1.0525e-12
5.37178e-13
6.34595e-13
1.57934e-12
1.99216e-12
1.62742e-12
2.4938e-12
9.90905e-13
3.16099e-12
6.83728e-13
1.62316e-12
3.30121e-12
2.24283e-12
2.27044e-12
1.86404e-13
1.65995e-12
1.19883e-12
3.2836e-12
2.88629e-11
2.6017e-10
2.10784e-09
5.49708e-08
4.87464e-08
6.16146e-06
7.85509e-06
3.48479e-05
0.000350995
0.00143404
0.0130443
0.57941
7.31143
22.6427
57.1036
94.1255
113.295
99.9878
76.916
50.104
27.0491
6.2134
1.12341
2.75054
3.81963
4.69591
4.37252
4.17643
4.01868
3.14508
1.86172
0.860613
0.365016
0.240954
0.140516
0.0548553
0.342828
0.750479
1.55321
2.2529
2.66678
2.76504
2.60588
2.44139
2.33078
2.08627
1.68631
2.45899e-13
5.03614e-13
3.23798e-13
2.08705e-13
1.44896e-13
2.45044e-13
6.82223e-13
1.92403e-12
1.11374e-13
1.46587e-12
9.08093e-13
3.45123e-13
1.56772e-12
1.28306e-12
1.37822e-12
1.81401e-12
1.10541e-12
2.03769e-12
2.31469e-12
1.61225e-12
1.83786e-12