/*--------------------------------*- C++ -*----------------------------------*\
| =========                 |                                                 |
| \\      /  F ield         | OpenFOAM: The Open Source CFD Toolbox           |
|  \\    /   O peration     | Version:  v1912                                 |
|   \\  /    A nd           | Website:  www.openfoam.com                      |
|    \\/     M anipulation  |                                                 |
\*---------------------------------------------------------------------------*/
FoamFile
{
    version     2.0;
    format      ascii;
    class       volScalarField;
    location    "0.14";
    object      T;
}
// * * * * * * * * * * * * * * * * * * * * * * * * * * * * * * * * * * * * * //

dimensions      [0 0 0 1 0 0 0];


internalField   nonuniform List<scalar> 
4800
(
1
1
1
1
1
1
1
1
1
1
1
1
1
1
1
1
1
1
1
1
1
1
1
1
1
1
1
1
1
1
1
1
1
1
1
1
1
1
1
1
1
1
1
1
1
1
1
1
1
1
1
1
1
1
1
1
1
1
1
1
1
1
1
1
1
1
1
1
1
1
1
1
1
1
1
1
1
1
1
1
1
1
1
1
1
1
1
1
1
1
1
1
1
1
1
1
1
1
1
1
1
1
1
1
1
1
1
1
1
1
1
1
1
1
1
1
1
1
1
1
1
1
1
1
1
1
1
1
1
1
1
1
1
1
1
1
1
1
1
1
1
1
1
1
1
1
1
1
1
1
1
1
1
1
1
1
1
1
1
1
1
1
1
1
1
1
1
1
1
1
1
1
1
1
1
1
1
1
1
1
1
1
1
1
1
1
1
1
1
1
1
1
1
1
1
1
1
1
1
1
1
1
1
1
1
1
1
1
1
1
1
1
1
1
1
1
1
1
1
1
1
1
1
1
1
1
1
1
1
1
1
1
1
1
1
1
1
1
1
1
1
1
1
1
1
1
1
1
1
1
1
1
1
1
1
1
1
1
1
1
1
1
1
1
1
1
1
1
1
1
1
1
1
1
1
1
1
1
1
1
1
1
1
1
1
1
1
1
1
1
1
1
1
1
1
1
1
1
1
1
1
1
1
1
1
1
1
1
1
1
1
1
1
1
1
1
1
1
1
1
1
1
1
1
1
1
1
1
1
1
1
1
1
1
1
1
1
1
1
1
1
1
1
1
1
1
1
1
1
1
1
1
1
1
1
1
1
1
1
1
1
1
1
1
1
1
1
1
1
1
1
1
1
1
1
1
1
1
1
1
1
1
1
1
1
1
1
1
1
1
1
1
1
1
1
1
1
1
1
1
1
1
1
1
1
1
1
1
1
1
1
1
1
1
1
1
1
1
1
1
1
1
1
1
1
1
1
1
1
1
1
1
1
1
1
1
1
1
1
1
1
1
1
1
1
1
1
1
1
1
1
1
1
1
1
1
1
1
1
1
1
1
1
1
1
1
1
1
1
1
1
1
1
1
1
1
1
1
1
1
1
1
1
1
1
1
1
1
1
1
1
1
1
1
1
1
1
1
1
1
1
1
1
1
1
1
1
1
1
1
1
1
1
1
1
1
1
1
1
1
1
1
1
1
1
1
1
1
1
1
1
1
1
1
1
1
1
1
1
1
1
1
1
1
1
1
1
1
1
1
1
1
1
1
1
1
1
1
1
1
1
1
1
1
1
1
1
1
1
1
1
1
1
1
1
1
1
1
1
1
1
1
1
1
1
1
1
1
1
1
1
1
1
1
1
1
1
1
1
1
1
1
1
1
1
1
1
1
1
1
1
1
1
1
1
1
1
1
1
1
1
1
1
1
1
1
1
1
1
1
1
1
1
1
1
1
1
1
1
1
1
1
1
1
1
1
1
1
1
1
1
1
1
1
1
1
1
1
1
1
1
1
1
1
1
1
1
1
1
1
1
1
1
1
1
1
1
1
1
1
1
1
1
1
1
1
1
1
1
1
1
1
1
1
1
1
1
1
1
1
1
1
1
1
1
1
1
1
1
1
1
1
1
1
1
1
1
1
1
1
1
1
1
1
1
1
1
1
1
1
1
1
1
1
1
1
1
1
1
1
1
1
1
1
1
1
1
1
1
1
1
1
1
1
1
1
1
1
1
1
1
1
1
1
1
1
1
1
1
1
1
1
1
1
1
1
1
1
1
1
1
1
1
1
1
1
1
1
1
1
1
1
1
1
1
1
1
1
1
1
1
1
1
1
1
1
1
1
1
1
1
1
1
1
1
1
1
1
1
1
1
1
1
1
1
1
1
1
1
1
1
1
1
1
1
1
1
1
1
1
1
1
1
1
1
1
1
1
1
1
1
1
1
1
1
1
1
1
1
1
1
1
1
1
1
1
1
1
1
1
1
1
1
1
1
1
1
1
1
1
1
1
1
1
1
1
1
1
1
1
1
1
1
1
1
1
1
1
1
1
1
1
1
1
1
1
1
1
1
1
1
1
1
1
1
1
1
1
1
1
1
1
1
1
1
1
1
1
1
1
1
1
1
1
1
1
1
1
1
1
1
1
1
1
1
1
1
1
1
1
1
1
1
1
1
1
1
1
1
1
1
1
1
1
1
1
1
1
1
1
1
1
1
1
1
1
1
1
1
1
1
1
1
1
1
1
1
1
1
1
1
1
1
1
1
1
1
1
1
1
1
1
1
1
1
1
1
1
1
1
1
1
1
1
1
1
1
1
1
1
1
1
1
1
1
1
1
1
1
1
1
1
1
1
1
1
1
1
1
1
1
1
1
1
1
1
1
1
1
1
1
1
1
1
1
1
1
1
1
1
1
1
1
1
1
1
1
1
1
1
1
1
1
1
1
1
1
1
1
1
1
1
1
1
1
1
1
1
1
1
1
1
1
1
1
1
1
1
1
1
1
1
1
1
1
1
1
1
1
1
1
1
1
1
1
1
1
1
1
1
1
1
1
1
1
1
1
1
1
1
1
1
1
1
1
1
1
1
1
1
1
1
1
1
1
1
1
1
1
1
1
1
1
1
1
1
1
1
1
1
1
1
1
1
1
1
1
1
1
1
1
1
1
1
1
1
1
1
1
1
1
1
1
1
1
1
1
1
1
1
1
1
1
1
1
1
1
1
1
1
1
1
1
1
1
1
1
1
1
1
1
1
1
1
1
1
1
1
1
1
1
1
1
1
1
1
1
1
1
1
1
1
1
1
1
1
1
1
1
1
1
1
1
1
1
1
1
1
1
1
1
1
1
1
1
1
1
1
1
1
1
1
1
1
1
1
1
1
1
1
1
1
1
1
1
1
1
1
1
1
1
1
1
1
1
1
1
1
1
1
1
1
1
1
1
1
1
1
1
1
1
1
1
1
1
1
1
1
1
1
1
1
1
1
1
1
1
1
1
1
1
1
1
1
1
1
1
1
1
1
1
1
1
1
1
1
1
1
1
1
1
1
1
1
1
1
1
1
1
1
1
1
1
1
1
1
1
1
1
1
1
1
1
1
1
1
1
1
1
1
1
1
1
1
1
1
1
1
1
1
1
1
1
1
1
1
1
1
1
1
1
1
1
1
1
1
1
1
1
1
1
1
1
1
1
1
1
1
1
1
1
1
1
1
1
1
1
1
1
1
1
1
1
1
1
1
1
1
1
1
1
1
1
1
1
1
1
1
1
1
1
1
1
1
1
1
1
1
1
1
1
1
1
1
1
1
1
1
1
1
1
1
1
1
1
1
1
1
1
1
1
1
1
1
1
1
1
1
1
1
1
1
1
1
1
1
1
1
1
1
1
1
1
1
1
1
1
1
1
1
1
1
1
1
1
1
1
1
1
1
1
1
1
1
1
1
1
1
1
1
1
1
1
1
1
1
1
1
1
1
1
1
1
1
1
1
1
1
1
1
1
1
1
1
1
1
1
1
1
1
1
1
1
1
1
1
1
1
1
1
1
1
1
1
1
1
1
1
1
1
1
1
1
1
1
1
1
1
1
1
1
1
1
1
1
1
1
1
1
1
1
1
1
1
1
1
1
1
1
1
1.07067
1.16504
1.26051
1.34776
1.44761
1.54985
1.61742
1.67187
1.74876
1.83212
1.85383
1.86316
1.88823
1.89187
1.8824
1.85805
1.81665
1.76651
1.72592
1.70686
1.69232
1.67742
1.66309
1.66232
1.66327
1.66842
1.67843
1.69048
1.69924
1.70476
1.70638
1.70581
1.70439
1.70429
1.70708
1.71066
1.71127
1.71094
1.71068
1.71204
1.71583
1.71856
1.71925
1.71892
1.71796
1.71691
1.71563
1.71434
1.71332
1.71262
1.71269
1.71394
1.71763
1.72159
1.72359
1.72411
1.72392
1.72285
1.72098
1.71884
1.71673
1.71514
1.71421
1.71404
1.71474
1.71656
1.71878
1.72126
1.7234
1.7254
1.72709
1.72798
1.72798
1.72738
1.72625
1.72452
1.72166
1.71908
1.71802
1.71861
1
0.999744
1.00239
1.01577
1.02539
1.0646
1.15394
1.22439
1.27968
1.36336
1.46053
1.50424
1.54557
1.60819
1.63423
1.66091
1.67795
1.70294
1.73697
1.74513
1.74559
1.74583
1.74252
1.73255
1.71715
1.71
1.70838
1.70581
1.70079
1.70054
1.70247
1.70591
1.70803
1.71036
1.71425
1.71629
1.71649
1.71628
1.71539
1.71535
1.71659
1.7178
1.71887
1.72033
1.72163
1.72158
1.72148
1.72146
1.721
1.71984
1.71882
1.71878
1.71945
1.71999
1.72072
1.72165
1.72248
1.72305
1.72315
1.72319
1.72343
1.72337
1.72299
1.72253
1.72226
1.72197
1.72168
1.72144
1.72157
1.72227
1.72356
1.72527
1.72681
1.72719
1.72693
1.72621
1.7256
1.72466
1.724
1.72438
1
1
1
1
0.999997
1
1
0.999991
0.99974
1.00418
1.03113
1.08988
1.15821
1.28741
1.42875
1.54993
1.69399
1.75213
1.80579
1.82362
1.81794
1.81107
1.80423
1.79347
1.77655
1.7509
1.73422
1.72202
1.71578
1.71656
1.7191
1.72163
1.725
1.72869
1.73208
1.73249
1.73222
1.73165
1.73096
1.72968
1.72902
1.72898
1.72862
1.72904
1.73137
1.73376
1.73503
1.73535
1.73464
1.73275
1.73148
1.73046
1.72928
1.72825
1.72723
1.72605
1.7256
1.72629
1.72849
1.73132
1.73341
1.73421
1.73421
1.73387
1.73327
1.73217
1.73049
1.72866
1.7271
1.72629
1.72601
1.72586
1.72639
1.72821
1.72991
1.73114
1.73199
1.73193
1.73149
1.73148
1
1
1
1
1
1
1
1
1
1
1
1
0.999793
1.00018
1.0163
1.06668
1.21801
1.41129
1.56468
1.68737
1.72673
1.77191
1.78729
1.78292
1.78045
1.78867
1.78699
1.77869
1.76792
1.76381
1.7593
1.75525
1.74786
1.74353
1.74165
1.74223
1.7436
1.7456
1.74761
1.74838
1.74807
1.74704
1.74437
1.74265
1.74269
1.74452
1.74752
1.74945
1.75062
1.75083
1.74996
1.74812
1.74586
1.74388
1.7416
1.73883
1.73641
1.73581
1.73616
1.73764
1.74062
1.74391
1.74616
1.74671
1.74608
1.74437
1.74188
1.73834
1.73486
1.73343
1.73304
1.73277
1.73294
1.73352
1.73456
1.73567
1.73666
1.7376
1.73817
1.7385
1
1
1
1
1
1
1
1
1
1
1
1
1
1
1
1
0.999622
1.00636
1.03903
1.16126
1.34483
1.48348
1.62112
1.69736
1.77569
1.82449
1.82253
1.81953
1.81461
1.80705
1.79741
1.77669
1.75785
1.75299
1.75369
1.75725
1.76048
1.76169
1.76264
1.76275
1.76234
1.76095
1.75726
1.75539
1.75595
1.75746
1.75843
1.75931
1.76096
1.76282
1.76324
1.7629
1.76133
1.75892
1.75634
1.75389
1.7513
1.74916
1.74876
1.74885
1.74949
1.75077
1.7525
1.75423
1.75495
1.75459
1.7525
1.74984
1.74784
1.74684
1.74641
1.74579
1.74498
1.74452
1.74448
1.74445
1.74428
1.74387
1.74348
1.74345
1
1
1
1
1
1
1
1
1
1
1
1
1
1
1
1
1
1
1
0.999723
1.00225
1.01748
1.10756
1.27631
1.42298
1.56971
1.65863
1.74293
1.78461
1.78428
1.78333
1.77941
1.77131
1.76839
1.76912
1.77331
1.77456
1.77522
1.77291
1.76934
1.76609
1.76331
1.76141
1.76115
1.76235
1.76524
1.76638
1.76622
1.76574
1.76562
1.76608
1.76707
1.76864
1.76946
1.76919
1.76838
1.76724
1.76512
1.76251
1.76091
1.75982
1.75891
1.75855
1.75847
1.75878
1.75961
1.76023
1.7606
1.76054
1.76021
1.76015
1.75981
1.759
1.75768
1.75631
1.75535
1.75418
1.75257
1.75102
1.74991
1
1
1
1
1
1
1
1
1
1
1
1
1
1
1
1
1
1
1
1
1
1
0.999896
1.0005
1.00861
1.07783
1.21971
1.37002
1.52414
1.62619
1.73635
1.76885
1.77717
1.78534
1.78505
1.78286
1.77743
1.76764
1.7589
1.75939
1.76085
1.76248
1.7657
1.76885
1.76911
1.76738
1.76622
1.76529
1.76405
1.76277
1.76289
1.76347
1.7661
1.77143
1.77441
1.77488
1.77495
1.77489
1.77431
1.77045
1.7656
1.76276
1.76198
1.76207
1.76244
1.76277
1.76332
1.76414
1.76528
1.76682
1.76827
1.76879
1.76856
1.76717
1.76546
1.76336
1.76125
1.75888
1.75677
1.7555
1
1
1
1
1
1
1
1
1
1
1
1
1
1
1
1
1
1
1
1
1
1
1
1
1
1
0.999969
1.00556
1.06451
1.17453
1.3242
1.48941
1.59999
1.71058
1.73711
1.74846
1.74781
1.74311
1.74586
1.75365
1.76057
1.7659
1.76941
1.77077
1.76952
1.76754
1.76782
1.76669
1.76138
1.7579
1.75771
1.75874
1.7615
1.76547
1.76994
1.77297
1.77481
1.77557
1.77535
1.77445
1.77273
1.77004
1.76764
1.76672
1.76626
1.76568
1.76498
1.76489
1.76559
1.76713
1.7689
1.76989
1.76967
1.76862
1.76793
1.76724
1.76578
1.76368
1.7621
1.7615
1
1
1
1
1
1
1
1
1
1
1
1
1
1
1
1
1
1
1
1
1
1
1
1
1
1
1
1
1
0.999849
1.00349
1.0548
1.15296
1.312
1.47448
1.59851
1.69467
1.7183
1.73676
1.74848
1.75287
1.75788
1.76071
1.76149
1.76108
1.76035
1.76078
1.76153
1.76201
1.75975
1.75638
1.75598
1.75637
1.75802
1.76058
1.7625
1.76452
1.76652
1.76801
1.76919
1.76984
1.77051
1.77205
1.7726
1.77204
1.76979
1.7664
1.76456
1.76457
1.76547
1.76627
1.7663
1.76612
1.76595
1.76645
1.76778
1.76833
1.76795
1.76728
1.76716
1
1
1
1
1
1
1
1
1
1
1
1
1
1
1
1
1
1
1
1
1
1
1
1
1
1
1
1
1
1
1
0.999999
0.999903
1.00451
1.0587
1.14711
1.29883
1.46086
1.59741
1.67952
1.69228
1.70919
1.718
1.72464
1.73308
1.74197
1.75034
1.7579
1.75984
1.75842
1.75708
1.75792
1.75846
1.75632
1.75319
1.7526
1.75283
1.75376
1.75455
1.75633
1.76083
1.76593
1.76933
1.77155
1.77193
1.77128
1.76906
1.76597
1.76379
1.76309
1.76307
1.76307
1.76321
1.76358
1.76447
1.76549
1.76672
1.76812
1.76872
1.76932
1
1
1
1
1
1
1
1
1
1
1
1
1
1
1
1
1
1
1
1
1
1
1
1
1
1
1
1
1
1
1
1
1
0.999993
1.00003
1.00001
1.00525
1.0531
1.14982
1.32058
1.47405
1.5998
1.67039
1.69419
1.71234
1.72109
1.73142
1.74195
1.74947
1.75139
1.75235
1.75391
1.75588
1.75617
1.75591
1.7523
1.74654
1.74422
1.74492
1.74738
1.75041
1.75403
1.75834
1.76275
1.76521
1.76543
1.76394
1.76354
1.76436
1.76497
1.76457
1.76311
1.76148
1.76074
1.76137
1.76316
1.7649
1.76566
1.76617
1.76786
1
1
1
1
1
1
1
1
1
1
1
1
1
1
1
1
1
1
1
1
1
1
1
1
1
1
1
1
1
1
1
1
1
1
1
1
1
0.999974
1.00016
1.01059
1.06854
1.16842
1.34027
1.50888
1.64178
1.67101
1.68132
1.69364
1.70803
1.72066
1.73132
1.74174
1.74934
1.75096
1.74969
1.74815
1.74789
1.74753
1.74681
1.74506
1.74427
1.7448
1.74762
1.7492
1.74998
1.75145
1.75308
1.75545
1.75825
1.76103
1.76228
1.76231
1.76215
1.76128
1.76063
1.76077
1.76145
1.76202
1.76242
1.76387
1
1
1
1
1
1
1
1
1
1
1
1
1
1
1
1
1
1
1
1
1
1
1
1
1
1
1
1
1
1
1
1
1
1
1
1
1
1
0.999999
1.00001
0.999997
1.00057
1.01848
1.0879
1.23149
1.39582
1.53956
1.64157
1.67491
1.68913
1.70007
1.70732
1.72117
1.73489
1.73973
1.74122
1.74232
1.74406
1.74768
1.74858
1.74816
1.74636
1.74334
1.74134
1.74046
1.74027
1.74109
1.74291
1.74723
1.75371
1.75728
1.75797
1.75781
1.7579
1.75857
1.75978
1.75996
1.75943
1.75845
1.75893
1
1
1
1
1
1
1
1
1
1
1
1
1
1
1
1
1
1
1
1
1
1
1
1
1
1
1
1
1
1
1
1
1
1
1
1
1
1
1
1
1
0.999998
1
1.00008
1.00299
1.03863
1.11686
1.28295
1.46318
1.63536
1.68732
1.68674
1.69383
1.70244
1.70859
1.71268
1.71964
1.73034
1.74086
1.74281
1.74171
1.74244
1.74489
1.74532
1.74301
1.73718
1.73424
1.73442
1.73813
1.74347
1.74594
1.74702
1.74827
1.75059
1.75324
1.75528
1.75572
1.75601
1.75603
1.75611
1
1
1
1
1
1
1
1
1
1
1
1
1
1
1
1
1
1
1
1
1
1
1
1
1
1
1
1
1
1
1
1
1
1
1
1
1
1
1
1
1
1
1
1
1
1.00001
1.00032
1.01064
1.07626
1.23722
1.41104
1.55344
1.64932
1.69254
1.6966
1.70174
1.70071
1.70675
1.71912
1.728
1.73191
1.73571
1.73993
1.74304
1.74284
1.74073
1.73861
1.73774
1.73757
1.73774
1.73867
1.7389
1.73926
1.74074
1.74415
1.748
1.7491
1.74944
1.75011
1.7516
1
1
1
1
1
1
1
1
1
1
1
1
1
1
1
1
1
1
1
1
1
1
1
1
1
1
1
1
1
1
1
1
1
1
1
1
1
1
1
1
1
1
1
1
1
1
1
0.999989
1.00016
1.004
1.04793
1.14503
1.31537
1.48715
1.65701
1.7083
1.70373
1.71042
1.71038
1.711
1.71054
1.71207
1.72017
1.72943
1.73457
1.73474
1.73369
1.73504
1.73889
1.74194
1.74167
1.73789
1.73426
1.73416
1.73611
1.73878
1.74008
1.74119
1.74281
1.74542
1
1
1
1
1
1
1
1
1
1
1
1
1
1
1
1
1
1
1
1
1
1
1
1
1
1
1
1
1
1
1
1
1
1
1
1
1
1
1
1
1
1
1
1
1
1
1
1
1
0.999994
1.00006
1.001
1.01813
1.09741
1.30372
1.49826
1.6269
1.6856
1.71434
1.71896
1.7163
1.7089
1.71007
1.71356
1.71815
1.72095
1.72332
1.72939
1.73727
1.74103
1.7404
1.73767
1.73596
1.73473
1.73438
1.73439
1.73469
1.7359
1.73735
1.73944
1
1
1
1
1
1
1
1
1
1
1
1
1
1
1
1
1
1
1
1
1
1
1
1
1
1
1
1
1
1
1
1
1
1
1
1
1
1
1
1
1
1
1
1
1
1
1
1
1
1
1
0.999999
0.999996
1.00055
1.01491
1.12313
1.27367
1.43377
1.58633
1.70214
1.72603
1.72225
1.72942
1.72658
1.71809
1.71412
1.71307
1.71722
1.72616
1.73308
1.73414
1.73225
1.73095
1.7316
1.73315
1.73484
1.73529
1.73582
1.73621
1.73675
1
1
1
1
1
1
1
1
1
1
1
1
1
1
1
1
1
1
1
1
1
1
1
1
1
1
1
1
1
1
1
1
1
1
1
1
1
1
1
1
1
1
1
1
1
1
1
1
1
1
1
1
1
0.999999
0.999996
1.00099
1.00953
1.07865
1.22088
1.44874
1.60704
1.68969
1.71763
1.72654
1.72823
1.72769
1.7237
1.72315
1.72602
1.72492
1.72368
1.72173
1.72017
1.72281
1.7292
1.73324
1.73358
1.73394
1.73425
1.73598
1
1
1
1
1
1
1
1
1
1
1
1
1
1
1
1
1
1
1
1
1
1
1
1
1
1
1
1
1
1
1
1
1
1
1
1
1
1
1
1
1
1
1
1
1
1
1
1
1
1
1
1
1
1
1
1
0.999993
1.00043
1.0056
1.08443
1.29858
1.47528
1.57362
1.67117
1.72741
1.73523
1.73538
1.74048
1.74385
1.73853
1.72816
1.72012
1.71785
1.7204
1.7253
1.72794
1.72887
1.72943
1.73088
1.73364
1
1
1
1
1
1
1
1
1
1
1
1
1
1
1
1
1
1
1
1
1
1
1
1
1
1
1
1
1
1
1
1
1
1
1
1
1
1
1
1
1
1
1
1
1
1
1
1
1
1
1
1
1
1
1
1
0.999999
1
0.999994
1.00095
1.01446
1.10248
1.2731
1.46299
1.62157
1.67621
1.70828
1.73246
1.7364
1.73478
1.73059
1.72875
1.72964
1.73017
1.72959
1.72822
1.72568
1.72551
1.72562
1.72661
1
1
1
1
1
1
1
1
1
1
1
1
1
1
1
1
1
1
1
1
1
1
1
1
1
1
1
1
1
1
1
1
1
1
1
1
1
1
1
1
1
1
1
1
1
1
1
1
1
1
1
1
1
1
1
1
1
1
0.999999
1
1
1.00124
1.0138
1.09516
1.32935
1.56976
1.64484
1.67585
1.7036
1.71459
1.71904
1.72805
1.73713
1.74046
1.74054
1.73838
1.7331
1.73034
1.72807
1.72672
1
1
1
1
1
1
1
1
1
1
1
1
1
1
1
1
1
1
1
1
1
1
1
1
1
1
1
1
1
1
1
1
1
1
1
1
1
1
1
1
1
1
1
1
1
1
1
1
1
1
1
1
1
1
1
1
1
1
1
1
1
0.999999
1.00001
1.00156
1.02715
1.19272
1.42066
1.57972
1.66577
1.68367
1.70072
1.71281
1.71825
1.72324
1.73011
1.73315
1.73264
1.73185
1.73264
1.73351
1
1
1
1
1
1
1
1
1
1
1
1
1
1
1
1
1
1
1
1
1
1
1
1
1
1
1
1
1
1
1
1
1
1
1
1
1
1
1
1
1
1
1
1
1
1
1
1
1
1
1
1
1
1
1
1
1
1
1
1
1
1
1
0.999998
1.00012
1.00727
1.07058
1.21351
1.44573
1.63378
1.72466
1.73121
1.71608
1.70828
1.70969
1.71654
1.72254
1.72529
1.73235
1.73779
1
1
1
1
1
1
1
1
1
1
1
1
1
1
1
1
1
1
1
1
1
1
1
1
1
1
1
1
1
1
1
1
1
1
1
1
1
1
1
1
1
1
1
1
1
1
1
1
1
1
1
1
1
1
1
1
1
1
1
1
1
1
1
1
0.999999
1
1.00056
1.01008
1.09273
1.33831
1.57216
1.71039
1.72397
1.72259
1.72183
1.71801
1.71849
1.7201
1.72358
1.7286
1
1
1
1
1
1
1
1
1
1
1
1
1
1
1
1
1
1
1
1
1
1
1
1
1
1
1
1
1
1
1
1
1
1
1
1
1
1
1
1
1
1
1
1
1
1
1
1
1
1
1
1
1
1
1
1
1
1
1
1
1
1
1
1
1
1
0.999999
1.00002
1.00145
1.04511
1.21624
1.46023
1.63004
1.7055
1.72699
1.73534
1.7354
1.73265
1.72699
1.72487
1
1
1
1
1
1
1
1
1
1
1
1
1
1
1
1
1
1
1
1
1
1
1
1
1
1
1
1
1
1
1
1
1
1
1
1
1
1
1
1
1
1
1
1
1
1
1
1
1
1
1
1
1
1
1
1
1
1
1
1
1
1
1
1
1
1
1
1
0.999999
1.00048
1.00996
1.11658
1.36522
1.54618
1.66671
1.72866
1.74089
1.74055
1.74187
1.73991
1
1
1
1
1
1
1
1
1
1
1
1
1
1
1
1
1
1
1
1
1
1
1
1
1
1
1
1
1
1
1
1
1
1
1
1
1
1
1
1
1
1
1
1
1
1
1
1
1
1
1
1
1
1
1
1
1
1
1
1
1
1
1
1
1
1
1
1
1
0.999999
1.00003
1.00305
1.04944
1.24759
1.4885
1.64847
1.69053
1.7178
1.73561
1.73554
1
1
1
1
1
1
1
1
1
1
1
1
1
1
1
1
1
1
1
1
1
1
1
1
1
1
1
1
1
1
1
1
1
1
1
1
1
1
1
1
1
1
1
1
1
1
1
1
1
1
1
1
1
1
1
1
1
1
1
1
1
1
1
1
1
1
1
1
1
1
1
1
1.00065
1.01833
1.13519
1.40876
1.6414
1.6918
1.69447
1.708
1
1
1
1
1
1
1
1
1
1
1
1
1
1
1
1
1
1
1
1
1
1
1
1
1
1
1
1
1
1
1
1
1
1
1
1
1
1
1
1
1
1
1
1
1
1
1
1
1
1
1
1
1
1
1
1
1
1
1
1
1
1
1
1
1
1
1
1
1
1
1
1
0.999999
1.0001
1.00519
1.07469
1.33673
1.62087
1.6728
1.69062
1
1
1
1
1
1
1
1
1
1
1
1
1
1
1
1
1
1
1
1
1
1
1
1
1
1
1
1
1
1
1
1
1
1
1
1
1
1
1
1
1
1
1
1
1
1
1
1
1
1
1
1
1
1
1
1
1
1
1
1
1
1
1
1
1
1
1
1
1
1
1
1
1
1
1.00002
1.00221
1.04849
1.28118
1.53162
1.68474
1
1
1
1
1
1
1
1
1
1
1
1
1
1
1
1
1
1
1
1
1
1
1
1
1
1
1
1
1
1
1
1
1
1
1
1
1
1
1
1
1
1
1
1
1
1
1
1
1
1
1
1
1
1
1
1
1
1
1
1
1
1
1
1
1
1
1
1
1
1
1
1
1
1
1
1.00001
1.00088
1.03041
1.18283
1.57977
1
1
1
1
1
1
1
1
1
1
1
1
1
1
1
1
1
1
1
1
1
1
1
1
1
1
1
1
1
1
1
1
1
1
1
1
1
1
1
1
1
1
1
1
1
1
1
1
1
1
1
1
1
1
1
1
1
1
1
1
1
1
1
1
1
1
1
1
1
1
1
1
1
1
1
1
1
1.00047
1.01046
1.34612
1
1
1
1
1
1
1
1
1
1
1
1
1
1
1
1
1
1
1
1
1
1
1
1
1
1
1
1
1
1
1
1
1
1
1
1
1
1
1
1
1
1
1
1
1
1
1
1
1
1
1
1
1
1
1
1
1
1
1
1
1
1
1
1
1
1
1
1
1
1
1
1
1
1
1
1
1
1
1.0002
1.08508
1
1
1
1
1
1
1
1
1
1
1
1
1
1
1
1
1
1
1
1
1
1
1
1
1
1
1
1
1
1
1
1
1
1
1
1
1
1
1
1
1
1
1
1
1
1
1
1
1
1
1
1
1
1
1
1
1
1
1
1
1
1
1
1
1
1
1
1
1
1
1
1
1
1
1
1
1
1
1
1.00838
1
1
1
1
1
1
1
1
1
1
1
1
1
1
1
1
1
1
1
1
1
1
1
1
1
1
1
1
1
1
1
1
1
1
1
1
1
1
1
1
1
1
1
1
1
1
1
1
1
1
1
1
1
1
1
1
1
1
1
1
1
1
1
1
1
1
1
1
1
1
1
1
1
1
1
1
1
1
1
1.00047
1
1
1
1
1
1
1
1
1
1
1
1
1
1
1
1
1
1
1
1
1
1
1
1
1
1
1
1
1
1
1
1
1
1
1
1
1
1
1
1
1
1
1
1
1
1
1
1
1
1
1
1
1
1
1
1
1
1
1
1
1
1
1
1
1
1
1
1
1
1
1
1
1
1
1
1
1
1
1
1.00002
1
1
1
1
1
1
1
1
1
1
1
1
1
1
1
1
1
1
1
1
1
1
1
1
1
1
1
1
1
1
1
1
1
1
1
1
1
1
1
1
1
1
1
1
1
1
1
1
1
1
1
1
1
1
1
1
1
1
1
1
1
1
1
1
1
1
1
1
1
1
1
1
1
1
1
1
1
1
1
1
1
1
1
1
1
1
1
1
1
1
1
1
1
1
1
1
1
1
1
1
1
1
1
1
1
1
1
1
1
1
1
1
1
1
1
1
1
1
1
1
1
1
1
1
1
1
1
1
1
1
1
1
1
1
1
1
1
1
1
1
1
1
1
1
1
1
1
1
1
1
1
1
1
1
1
1
1
1
1
1
1
1
1
1
1
1
1
1
1
1
1
1
1
1
1
1
1
1
1
1
1
1
1
1
1
1
1
1
1
1
1
1
1
1
1
1
1
1
1
1
1
1
1
1
1
1
1
1
1
1
1
1
1
1
1
1
1
1
1
1
1
1
1
1
1
1
1
1
1
1
1
1
1
1
1
1
1
1
1
1
)
;

boundaryField
{
    inlet
    {
        type            fixedValue;
        value           uniform 1;
    }
    outlet
    {
        type            zeroGradient;
    }
    bottom
    {
        type            symmetryPlane;
    }
    top
    {
        type            symmetryPlane;
    }
    obstacle
    {
        type            zeroGradient;
    }
    defaultFaces
    {
        type            empty;
    }
}


// ************************************************************************* //
