/*--------------------------------*- C++ -*----------------------------------*\
| =========                 |                                                 |
| \\      /  F ield         | OpenFOAM: The Open Source CFD Toolbox           |
|  \\    /   O peration     | Version:  v1912                                 |
|   \\  /    A nd           | Website:  www.openfoam.com                      |
|    \\/     M anipulation  |                                                 |
\*---------------------------------------------------------------------------*/
FoamFile
{
    version     2.0;
    format      ascii;
    class       volVectorField;
    location    "5.82";
    object      grad(p);
}
// * * * * * * * * * * * * * * * * * * * * * * * * * * * * * * * * * * * * * //

dimensions      [1 -2 -2 0 0 0 0];


internalField   nonuniform List<vector> 
1900
(
(119008 0.170539 0)
(-123204 0.447134 0)
(-5573.67 -0.059892 0)
(-564.494 0.136814 0)
(-583.689 1.89528 0)
(-446.794 0.954878 0)
(-390.905 -10.7545 0)
(-189.931 5.06914 0)
(-50.5749 -25.1713 0)
(931.095 -54.3214 0)
(119009 0.126512 0)
(-123204 0.696091 0)
(-5573.98 0.0256026 0)
(-562.539 0.745492 0)
(-582.871 3.57745 0)
(-459.444 1.40027 0)
(-386.79 -18.8009 0)
(-204.348 -12.6688 0)
(-109.966 -73.4363 0)
(39.7911 -70.9305 0)
(119009 -3.73035e-08 0)
(-123204 5.67191e-08 0)
(-5573.62 3.39107e-08 0)
(-560.943 1.85629e-08 0)
(-583.035 2.00728e-09 0)
(-469.173 -8.08242e-09 0)
(-404.974 -1.45839e-08 0)
(-244.567 -6.39488e-09 0)
(-108.837 -3.00204e-09 0)
(-67.7484 -1.86517e-09 0)
(119009 -0.126513 0)
(-123204 -0.696091 0)
(-5573.98 -0.0256026 0)
(-562.539 -0.745492 0)
(-582.871 -3.57745 0)
(-459.444 -1.40027 0)
(-386.79 18.8009 0)
(-204.348 12.6688 0)
(-109.966 73.4363 0)
(39.7911 70.9305 0)
(119008 -0.170539 0)
(-123204 -0.447134 0)
(-5573.67 0.059892 0)
(-564.494 -0.136814 0)
(-583.689 -1.89528 0)
(-446.794 -0.954878 0)
(-390.905 10.7545 0)
(-189.931 -5.06914 0)
(-50.5749 25.1713 0)
(931.095 54.3214 0)
(138.557 -800.595 8.86175e-12)
(-1485.48 -579.572 -1.04053e-11)
(-1282.81 -688.453 -1.31159e-11)
(1114.85 -880.998 0)
(-19155.4 -8251.04 -5.74067e-11)
(-288.01 -938.372 8.71708e-12)
(-898.902 -701.126 1.04053e-11)
(-1180.59 -792.291 1.31159e-11)
(-1706.53 -587.572 0)
(-18354.4 -7520.91 0)
(-682.802 9.81502e-10 0)
(-1006.59 5.06418e-10 0)
(-1096.46 1.11022e-09 0)
(-1630.13 1.51394e-09 0)
(-21246 -4.22942e-10 0)
(-288.01 938.372 8.71708e-12)
(-898.902 701.126 1.04053e-11)
(-1180.59 792.291 1.31159e-11)
(-1706.53 587.572 0)
(-18354.4 7520.91 0)
(138.557 800.595 -2.62959e-11)
(-1485.48 579.572 -1.04053e-11)
(-1282.81 688.453 -1.31159e-11)
(1114.85 880.998 -3.53209e-11)
(-19155.4 8251.04 5.74067e-11)
(-39078.9 11093.9 1.06241e-11)
(-8962.6 4265.26 -5.11849e-12)
(-554.373 1970.65 0)
(-317.935 1203.65 3.62247e-12)
(-3665.23 1347.9 -1.54576e-12)
(-34973.5 13668.9 -5.47912e-12)
(-10990.6 3401.41 2.62347e-12)
(-1339.06 902.508 0)
(-412.939 320.872 -2.28912e-12)
(-3238.04 714.91 4.01971e-13)
(-36159.8 1.00929e-09 0)
(-12240.3 1.55621e-09 0)
(-1572.4 2.38492e-10 0)
(-422.304 1.37871e-09 9.19512e-13)
(-3049.31 9.86865e-10 -8.03942e-13)
(-34973.5 -13668.9 -5.47912e-12)
(-10990.6 -3401.41 2.62347e-12)
(-1339.06 -902.508 0)
(-412.939 -320.872 -2.28912e-12)
(-3238.04 -714.91 4.01971e-13)
(-39078.9 -11093.9 5.47912e-12)
(-8962.6 -4265.26 -1.28456e-13)
(-554.373 -1970.65 0)
(-317.935 -1203.65 3.625e-14)
(-3665.23 -1347.9 1.54576e-12)
(-4960.9 3564.18 0)
(-1593.97 -378.845 0)
(1658.87 -844.589 0)
(2889.93 -128.381 0)
(1803.31 1105.34 0)
(292.466 1095.35 0)
(-860.69 880.898 0)
(-1608.65 516.629 0)
(-1652.53 246.166 0)
(-1183.83 100.59 0)
(-685.274 40.338 0)
(-428.083 16.6205 0)
(-348.078 9.48982 0)
(-316.033 10.8176 0)
(-275.606 9.67953 0)
(-209.78 3.66756 0)
(-134.205 0.181269 0)
(-79.0964 -0.858569 0)
(-51.2758 -0.888308 0)
(-39.7955 -0.718471 0)
(-34.1459 -0.62089 0)
(-29.7462 -0.629002 0)
(-25.1115 -0.707244 0)
(-20.1424 -0.815344 0)
(-14.9628 -0.927617 0)
(-9.79725 -1.0379 0)
(-4.00497 -1.12177 0)
(3.22796 -1.19321 0)
(12.4332 -1.24344 0)
(20.6453 -1.18632 0)
(30.1126 -1.18069 0)
(37.3897 -0.959408 0)
(48.5183 -1.25956 0)
(59.5529 -0.581664 0)
(93.9883 -1.84035 0)
(137.104 1.75608 0)
(173.133 1.55624 0)
(90.056 -0.953256 0)
(-234.92 8.36644 0)
(2626.59 -65.8579 0)
(-5256.48 2207.29 0)
(-2325.64 136.431 0)
(1692.75 -414.46 0)
(3204.87 -186.673 0)
(1948.98 528.758 0)
(199.047 453.202 0)
(-998.921 266.205 0)
(-1708.23 189.375 0)
(-1704.49 117.483 0)
(-1206.05 48.1119 0)
(-693.05 16.9477 0)
(-430.69 6.69049 0)
(-348.65 4.23838 0)
(-316.031 4.09469 0)
(-276.214 3.45239 0)
(-210.609 1.12936 0)
(-134.535 -0.134071 0)
(-79.162 -0.455712 0)
(-51.2573 -0.437114 0)
(-39.7695 -0.357827 0)
(-34.1363 -0.312521 0)
(-29.7528 -0.314852 0)
(-25.1277 -0.349681 0)
(-20.1623 -0.399557 0)
(-14.9836 -0.453356 0)
(-9.81592 -0.508519 0)
(-4.02091 -0.553696 0)
(3.2138 -0.596129 0)
(12.4303 -0.63203 0)
(20.646 -0.62169 0)
(30.1293 -0.635037 0)
(37.373 -0.545079 0)
(48.5567 -0.698226 0)
(59.4792 -0.342394 0)
(94.2036 -0.992023 0)
(137.427 0.704606 0)
(172.813 0.725347 0)
(91.7209 0.550206 0)
(-235.382 11.6707 0)
(2625.46 -8.69795 0)
(-5022.21 -1.59751e-08 0)
(-2356.66 -2.49255e-08 0)
(1564.87 1.2858e-07 0)
(3164.32 1.59432e-07 0)
(1989.45 8.62663e-08 0)
(216.087 9.04327e-09 0)
(-937.44 -4.00326e-08 0)
(-1651.91 -2.86639e-08 0)
(-1693.62 -2.79695e-08 0)
(-1213.08 -2.18411e-08 0)
(-697.324 -1.48528e-08 0)
(-431.78 -8.10261e-09 0)
(-348.834 -4.64275e-10 0)
(-316.261 -5.31292e-09 0)
(-276.469 -1.65524e-09 0)
(-210.824 -7.04891e-09 0)
(-134.666 -3.93826e-09 0)
(-79.1846 -1.45136e-09 0)
(-51.2474 3.39123e-10 0)
(-39.7593 1.71984e-09 0)
(-34.1334 2.96329e-09 0)
(-29.757 4.17646e-09 0)
(-25.1361 4.52365e-09 0)
(-20.1725 3.08642e-09 0)
(-14.9945 7.04487e-10 0)
(-9.82644 -1.24951e-09 0)
(-4.03046 -2.60398e-09 0)
(3.20517 -3.52445e-09 0)
(12.4258 -1.62496e-09 0)
(20.6445 1.5967e-09 0)
(30.1348 4.41869e-09 0)
(37.3713 2.12759e-09 0)
(48.5773 -5.53699e-09 0)
(59.4674 -4.78405e-09 0)
(94.2929 1.09811e-08 0)
(137.603 1.14252e-09 0)
(173.088 -2.24871e-08 0)
(93.2401 -6.41709e-09 0)
(-237.61 1.32197e-08 0)
(2625.72 -5.8971e-08 0)
(-5256.48 -2207.29 0)
(-2325.64 -136.431 0)
(1692.75 414.46 0)
(3204.87 186.673 0)
(1948.98 -528.758 0)
(199.047 -453.202 0)
(-998.921 -266.205 0)
(-1708.23 -189.375 0)
(-1704.49 -117.483 0)
(-1206.05 -48.1119 0)
(-693.05 -16.9477 0)
(-430.69 -6.69049 0)
(-348.65 -4.23838 0)
(-316.031 -4.09469 0)
(-276.214 -3.45239 0)
(-210.609 -1.12936 0)
(-134.535 0.134071 0)
(-79.162 0.455712 0)
(-51.2573 0.437114 0)
(-39.7695 0.357827 0)
(-34.1363 0.312521 0)
(-29.7528 0.314852 0)
(-25.1277 0.349681 0)
(-20.1623 0.399557 0)
(-14.9836 0.453356 0)
(-9.81592 0.508519 0)
(-4.02091 0.553696 0)
(3.2138 0.596129 0)
(12.4303 0.63203 0)
(20.646 0.62169 0)
(30.1293 0.635037 0)
(37.373 0.545079 0)
(48.5567 0.698226 0)
(59.4792 0.342394 0)
(94.2036 0.992023 0)
(137.427 -0.704606 0)
(172.813 -0.725347 0)
(91.7209 -0.550206 0)
(-235.382 -11.6707 0)
(2625.46 8.69795 0)
(-4960.9 -3564.18 0)
(-1593.97 378.845 0)
(1658.87 844.589 0)
(2889.93 128.381 0)
(1803.31 -1105.34 0)
(292.466 -1095.35 0)
(-860.69 -880.898 0)
(-1608.65 -516.629 0)
(-1652.53 -246.166 0)
(-1183.83 -100.59 0)
(-685.274 -40.338 0)
(-428.083 -16.6205 0)
(-348.078 -9.48982 0)
(-316.033 -10.8176 0)
(-275.606 -9.67953 0)
(-209.78 -3.66756 0)
(-134.205 -0.181269 0)
(-79.0964 0.858569 0)
(-51.2758 0.888308 0)
(-39.7955 0.718471 0)
(-34.1459 0.62089 0)
(-29.7462 0.629002 0)
(-25.1115 0.707244 0)
(-20.1424 0.815344 0)
(-14.9628 0.927617 0)
(-9.79725 1.0379 0)
(-4.00497 1.12177 0)
(3.22796 1.19321 0)
(12.4332 1.24344 0)
(20.6453 1.18632 0)
(30.1126 1.18069 0)
(37.3897 0.959408 0)
(48.5183 1.25956 0)
(59.5529 0.581664 0)
(93.9883 1.84035 0)
(137.104 -1.75608 0)
(173.133 -1.55624 0)
(90.056 0.953256 0)
(-234.92 -8.36644 0)
(2626.59 65.8579 0)
(-722.94 -1298.15 0)
(-406.144 773.358 0)
(1574.82 1211.69 0)
(2345.89 158.872 0)
(1349.79 -949.949 0)
(231.819 -1017.38 0)
(-795.736 -1003.57 0)
(-1425.22 -724.306 0)
(-1503.6 -411.547 0)
(-1102.63 -188.358 0)
(-649.368 -75.6832 0)
(-414.355 -31.5622 0)
(-345.671 -20.1145 0)
(-316.147 -20.8903 0)
(-272.432 -17.1399 0)
(-205.61 -7.47467 0)
(-132.078 -0.877313 0)
(-78.567 1.35745 0)
(-51.3236 1.49233 0)
(-39.9072 1.19694 0)
(-34.1812 1.03362 0)
(-29.7063 1.0615 0)
(-25.0296 1.21062 0)
(-20.0471 1.40894 0)
(-14.868 1.61099 0)
(-9.71571 1.8061 0)
(-3.94191 1.95434 0)
(3.27374 2.0733 0)
(12.4225 2.14896 0)
(20.6075 2.04825 0)
(30.0064 1.98918 0)
(37.4033 1.64703 0)
(48.3642 1.97545 0)
(59.7584 1.19447 0)
(92.9861 2.39922 0)
(135.671 -2.36715 0)
(174.143 -3.40664 0)
(89.3741 -4.31917 0)
(-195.203 13.2623 0)
(2588.1 24.7247 0)
(-329.412 -223.911 0)
(187.653 112.184 0)
(1111.79 320.191 0)
(1098.62 -594.477 0)
(913.021 -926.05 0)
(273.32 -1174.96 0)
(-613.104 -1104.73 0)
(-1136.52 -865.918 0)
(-1215.93 -536.025 0)
(-903.726 -260.416 0)
(-553.434 -106.862 0)
(-381.896 -50.7767 0)
(-339.085 -35.8619 0)
(-313.105 -31.85 0)
(-264.381 -23.9156 0)
(-196.345 -11.0636 0)
(-126.834 -1.71003 0)
(-77.0968 1.86524 0)
(-51.4049 2.262 0)
(-40.1777 1.90084 0)
(-34.2576 1.69511 0)
(-29.597 1.76221 0)
(-24.8205 2.00443 0)
(-19.8077 2.31873 0)
(-14.631 2.63875 0)
(-9.51011 2.94899 0)
(-3.7813 3.18621 0)
(3.39096 3.38042 0)
(12.4148 3.508 0)
(20.5117 3.36717 0)
(29.7829 3.26938 0)
(37.3692 2.83194 0)
(48.1649 3.20569 0)
(59.851 2.43133 0)
(91.0936 3.24728 0)
(132.277 -2.07374 0)
(170.711 -4.8327 0)
(106.484 -8.64926 0)
(-228.23 31.1973 0)
(2610.62 -36.818 0)
(-830.603 -617.479 0)
(118.172 -225.514 0)
(893.851 -483.264 0)
(1144.97 -730.318 0)
(790.416 -752.578 0)
(59.6393 -1046.01 0)
(-497.931 -1042.02 0)
(-877.196 -850.744 0)
(-920.119 -545.369 0)
(-689.071 -277.102 0)
(-447.353 -125.389 0)
(-345.937 -69.5941 0)
(-327.433 -52.5534 0)
(-304.635 -42.5545 0)
(-252.401 -29.7321 0)
(-184.212 -13.9493 0)
(-119.619 -2.56824 0)
(-74.7394 2.11151 0)
(-51.2893 2.87465 0)
(-40.4535 2.57174 0)
(-34.3148 2.39564 0)
(-29.4083 2.53648 0)
(-24.4934 2.88744 0)
(-19.4359 3.3276 0)
(-14.2607 3.77641 0)
(-9.18815 4.22017 0)
(-3.52618 4.54989 0)
(3.58383 4.81378 0)
(12.4098 5.00923 0)
(20.3775 4.80546 0)
(29.4906 4.6721 0)
(37.3419 4.14589 0)
(47.9782 4.5496 0)
(59.7985 3.78638 0)
(88.6448 4.21253 0)
(127.885 -1.36357 0)
(167.807 -5.13272 0)
(124.094 -5.56032 0)
(-222.348 32.9778 0)
(2593.51 10.9874 0)
(-1141.75 -447.16 0)
(316.987 -42.2206 0)
(625.347 -213.096 0)
(839.102 -474.719 0)
(608.807 -735.501 0)
(-5.59612 -897.376 0)
(-424.936 -895.878 0)
(-657.931 -736.611 0)
(-663.144 -487.427 0)
(-499.018 -257.114 0)
(-353.472 -133.76 0)
(-311.709 -84.3827 0)
(-313.029 -66.5089 0)
(-291.114 -51.24 0)
(-236.816 -33.3941 0)
(-170.169 -15.3267 0)
(-111.357 -2.89103 0)
(-71.8518 2.3174 0)
(-50.9614 3.38253 0)
(-40.6393 3.23522 0)
(-34.2915 3.17315 0)
(-29.1231 3.42497 0)
(-24.0582 3.8839 0)
(-18.951 4.42603 0)
(-13.7709 4.97087 0)
(-8.76475 5.51325 0)
(-3.20927 5.91564 0)
(3.83359 6.23075 0)
(12.4068 6.42527 0)
(20.1868 6.13383 0)
(29.1473 5.90527 0)
(37.2512 5.27963 0)
(47.8184 5.52162 0)
(59.5262 4.80648 0)
(86.1309 4.75501 0)
(123.272 -0.304529 0)
(166.667 -5.14907 0)
(143.209 -1.39395 0)
(-212.284 33.9975 0)
(2568.25 15.4912 0)
(-1302.19 -196.507 0)
(343.724 -91.6022 0)
(477.08 -190.891 0)
(641.558 -314.905 0)
(383.128 -599.738 0)
(-94.9061 -758.274 0)
(-343.012 -734.432 0)
(-483.598 -599.725 0)
(-458.059 -400.9 0)
(-348.265 -222.445 0)
(-280.902 -130.65 0)
(-281.131 -93.1027 0)
(-295.495 -75.1827 0)
(-272.725 -56.0617 0)
(-217.794 -34.1926 0)
(-154.818 -14.7329 0)
(-102.617 -2.19681 0)
(-68.694 3.05077 0)
(-50.4049 4.32794 0)
(-40.6553 4.38655 0)
(-34.1319 4.49181 0)
(-28.7234 4.87573 0)
(-23.5287 5.43614 0)
(-18.3884 6.05456 0)
(-13.213 6.65638 0)
(-8.27774 7.23259 0)
(-2.83476 7.72896 0)
(4.07492 8.12494 0)
(12.3164 8.20485 0)
(19.8764 7.85067 0)
(28.6674 7.51966 0)
(36.9722 6.80744 0)
(47.5222 6.83305 0)
(59.0598 6.15491 0)
(83.7197 5.85315 0)
(118.341 1.79742 0)
(166.757 -3.39556 0)
(161.817 3.52314 0)
(-206.076 32.8349 0)
(2545.82 13.3179 0)
(-1419.38 -146.721 0)
(322.4 -132.907 0)
(410.165 -185.605 0)
(445.123 -265.499 0)
(181.561 -555.678 0)
(-135.392 -617.908 0)
(-272.153 -588.582 0)
(-336.528 -464.968 0)
(-299.583 -307.625 0)
(-238.596 -186.625 0)
(-228.833 -123.513 0)
(-258.259 -98.7538 0)
(-277.335 -80.7217 0)
(-251.614 -57.6645 0)
(-196.99 -32.9728 0)
(-139.337 -12.8492 0)
(-94.2202 -0.827697 0)
(-65.5644 4.35446 0)
(-49.6742 5.83107 0)
(-40.4813 6.15704 0)
(-33.8202 6.47606 0)
(-28.2131 6.99677 0)
(-22.9222 7.62836 0)
(-17.7752 8.27062 0)
(-12.6357 8.85956 0)
(-7.73117 9.38707 0)
(-2.34937 9.90982 0)
(4.29217 10.2944 0)
(12.1425 10.1423 0)
(19.5265 9.63566 0)
(28.142 9.09026 0)
(36.5895 8.18365 0)
(47.1896 7.87146 0)
(58.5819 7.08245 0)
(81.9319 6.54796 0)
(114.359 3.27147 0)
(168.33 -1.40078 0)
(178.122 7.8714 0)
(-202.845 31.6136 0)
(2523.78 7.56976 0)
(-1571.65 -178.033 0)
(306.254 -157.723 0)
(349.309 -199.206 0)
(284.943 -297.072 0)
(43.5344 -503.938 0)
(-126.614 -506.165 0)
(-195.634 -454.658 0)
(-212.857 -342.865 0)
(-189.838 -228.937 0)
(-170.848 -154.633 0)
(-196.226 -116.61 0)
(-239.896 -100.686 0)
(-255.9 -81.3121 0)
(-226.712 -54.4879 0)
(-174.608 -28.2869 0)
(-123.842 -8.65542 0)
(-86.0386 2.58104 0)
(-62.2774 7.50397 0)
(-48.6679 9.14521 0)
(-40.0338 9.73778 0)
(-33.3227 10.2626 0)
(-27.613 10.881 0)
(-22.3012 11.5195 0)
(-17.202 12.1129 0)
(-12.1371 12.6145 0)
(-7.26566 13.0291 0)
(-1.96038 13.4503 0)
(4.29897 13.7135 0)
(11.6816 13.2915 0)
(18.8626 12.5243 0)
(27.2682 11.6586 0)
(35.7977 10.448 0)
(46.4611 9.7081 0)
(57.7844 8.63911 0)
(80.0473 7.91253 0)
(110.681 4.92591 0)
(171.189 1.40591 0)
(193.631 10.6783 0)
(-206.367 29.6897 0)
(2508.07 2.13496 0)
(-1742.93 -190.452 0)
(301.997 -182.8 0)
(275.883 -208.492 0)
(151.471 -350.461 0)
(-19.9284 -411.477 0)
(-87.9038 -389.014 0)
(-114.791 -322.558 0)
(-119.015 -241.58 0)
(-118.196 -170.354 0)
(-130.353 -128.736 0)
(-176.847 -109.929 0)
(-224.245 -98.3204 0)
(-232.817 -76.6419 0)
(-200.517 -47.6916 0)
(-152.824 -21.442 0)
(-109.592 -3.2502 0)
(-78.6485 6.9906 0)
(-59.2389 11.5367 0)
(-47.5216 13.3591 0)
(-39.4046 14.2283 0)
(-32.7185 14.9484 0)
(-27.002 15.6359 0)
(-21.735 16.2425 0)
(-16.7199 16.7474 0)
(-11.7528 17.1256 0)
(-6.9258 17.392 0)
(-1.68983 17.6334 0)
(4.13916 17.6915 0)
(10.9965 16.9818 0)
(17.9531 15.9106 0)
(26.1412 14.6909 0)
(34.7099 13.1611 0)
(45.4465 11.9957 0)
(56.8516 10.6647 0)
(78.3537 9.75751 0)
(108.089 7.10415 0)
(173.873 4.71018 0)
(205.377 12.6287 0)
(-211.078 28.8135 0)
(2493.11 -1.58388 0)
(-1931.33 -176.746 0)
(288.87 -184.007 0)
(187.745 -231.62 0)
(89.3394 -330.56 0)
(6.38351 -286.108 0)
(-40.928 -264.467 0)
(-53.5613 -215.995 0)
(-66.1883 -170.333 0)
(-81.0969 -130.72 0)
(-112.62 -111.235 0)
(-166.917 -105.003 0)
(-207.82 -93.423 0)
(-207.112 -68.1549 0)
(-173.52 -38.3677 0)
(-131.783 -12.9885 0)
(-96.4432 3.9764 0)
(-71.7895 13.1793 0)
(-56.1404 17.6271 0)
(-46.0741 19.7215 0)
(-38.5023 20.894 0)
(-31.9662 21.7731 0)
(-26.3659 22.4445 0)
(-21.2301 22.9025 0)
(-16.351 23.1828 0)
(-11.516 23.2941 0)
(-6.77636 23.3016 0)
(-1.67174 23.2023 0)
(3.67105 22.8394 0)
(9.96536 21.7404 0)
(16.655 20.2367 0)
(24.6187 18.5605 0)
(33.2005 16.5937 0)
(44.0554 14.9624 0)
(55.6275 13.2854 0)
(76.6162 12.1823 0)
(105.818 9.69083 0)
(176.513 8.14351 0)
(216.858 14.7129 0)
(-220.063 29.2365 0)
(2481.83 -3.47465 0)
(-2090.56 -136.657 0)
(249.118 -147.298 0)
(134.659 -209.628 0)
(98.9649 -215.977 0)
(43.7616 -178.144 0)
(-20.3408 -170.6 0)
(-24.0803 -147.667 0)
(-36.8413 -123.877 0)
(-61.2472 -104.038 0)
(-105.57 -99.0106 0)
(-159.683 -97.8261 0)
(-188.737 -82.9278 0)
(-179.764 -54.9163 0)
(-147.357 -25.7578 0)
(-112.019 -2.90901 0)
(-84.3753 11.4847 0)
(-65.4942 19.5937 0)
(-52.9346 23.771 0)
(-44.3734 25.9984 0)
(-37.4276 27.3673 0)
(-31.2245 28.3549 0)
(-25.9137 29.0272 0)
(-21.0236 29.423 0)
(-16.3426 29.6175 0)
(-11.6383 29.6458 0)
(-7.01422 29.6001 0)
(-2.13527 29.3456 0)
(2.73038 28.7779 0)
(8.48846 27.5031 0)
(14.8888 25.791 0)
(22.6306 23.881 0)
(31.2427 21.7072 0)
(42.2585 19.8553 0)
(54.1727 18.0593 0)
(74.8899 16.9571 0)
(104.197 14.7492 0)
(178.712 14.1236 0)
(225.703 19.3262 0)
(-228.604 31.1139 0)
(2468.29 -5.65962 0)
(-2204.96 -87.1147 0)
(218.552 -103.43 0)
(121.564 -151.595 0)
(119.679 -130.894 0)
(50.1104 -116.069 0)
(-11.5588 -114.205 0)
(-8.538 -100.421 0)
(-24.1457 -89.7279 0)
(-57.1345 -84.2444 0)
(-106.635 -88.4174 0)
(-151.419 -86.3749 0)
(-166.47 -67.5969 0)
(-152.021 -38.9774 0)
(-123.403 -11.3709 0)
(-95.8947 8.19202 0)
(-74.7588 20.1374 0)
(-59.9499 27.1991 0)
(-49.9686 31.1146 0)
(-42.6087 33.4728 0)
(-36.2315 35.0045 0)
(-30.3666 36.0236 0)
(-25.3366 36.5828 0)
(-20.6612 36.8074 0)
(-16.1363 36.8484 0)
(-11.5328 36.7786 0)
(-7.06563 36.7291 0)
(-2.46404 36.3237 0)
(1.89547 35.6099 0)
(7.08708 34.2886 0)
(13.1647 32.4804 0)
(20.6834 30.4882 0)
(29.3212 28.273 0)
(40.5403 26.449 0)
(52.8347 24.7309 0)
(73.4264 23.8168 0)
(103.087 21.9845 0)
(180.924 21.9662 0)
(233.23 26.7016 0)
(-244.14 37.1024 0)
(2457.3 0.943635 0)
(-2274.18 -49.4492 0)
(186.983 -67.3077 0)
(108.194 -97.4461 0)
(133.199 -83.7622 0)
(59.8433 -70.7482 0)
(-5.26107 -72.032 0)
(-0.492915 -66.3524 0)
(-21.2533 -66.4659 0)
(-59.9844 -70.7473 0)
(-107.623 -75.9774 0)
(-139.62 -69.6355 0)
(-143.063 -47.9565 0)
(-125.582 -21.5294 0)
(-101.903 2.33863 0)
(-81.6569 18.401 0)
(-66.0593 28.584 0)
(-54.9162 34.2714 0)
(-46.889 37.5515 0)
(-40.6249 39.609 0)
(-34.9696 41.0412 0)
(-29.7036 42.1296 0)
(-25.1583 42.911 0)
(-20.7676 43.4607 0)
(-16.3704 43.8469 0)
(-11.7532 44.0745 0)
(-7.45259 44.2514 0)
(-3.21383 43.8534 0)
(0.769347 43.194 0)
(5.47282 41.9641 0)
(11.2266 40.2192 0)
(18.5762 38.3007 0)
(27.3503 36.2644 0)
(38.8453 34.8027 0)
(51.6362 33.6383 0)
(72.2433 33.4874 0)
(102.414 32.7764 0)
(183.258 34.322 0)
(240.289 39.759 0)
(-253.425 48.3455 0)
(2431.62 18.5723 0)
(-2317.47 -5.58161 0)
(172.3 -28.6261 0)
(105.707 -46.9288 0)
(145.406 -30.6794 0)
(61.4141 -26.0816 0)
(-7.32288 -31.8774 0)
(-3.1743 -34.5486 0)
(-28.3809 -44.7933 0)
(-66.3002 -56.708 0)
(-105.563 -59.315 0)
(-124.417 -47.0252 0)
(-120.113 -23.4264 0)
(-103.555 1.10177 0)
(-84.925 19.5749 0)
(-70.6037 32.6164 0)
(-59.4655 40.9752 0)
(-51.3085 45.91 0)
(-44.8251 48.9918 0)
(-39.2459 51.0931 0)
(-33.8026 52.5792 0)
(-28.5648 53.5654 0)
(-24.054 54.0807 0)
(-19.7594 54.3463 0)
(-15.5448 54.5403 0)
(-11.1431 54.6546 0)
(-7.27867 54.7551 0)
(-3.48295 54.2756 0)
(0.0748734 53.7037 0)
(4.22043 52.568 0)
(9.63448 51.0392 0)
(16.8725 49.3101 0)
(25.9505 47.5269 0)
(38.0096 46.6057 0)
(51.5672 46.1447 0)
(72.5959 46.9655 0)
(103.892 47.7121 0)
(187.652 50.7331 0)
(246.744 57.9274 0)
(-264.556 65.4926 0)
(2392.81 50.0229 0)
(-2307.14 79.5308 0)
(147.139 17.1489 0)
(106.215 5.60884 0)
(153.288 12.4826 0)
(58.6889 6.81821 0)
(-13.4202 -1.43353 0)
(-12.9391 -10.6485 0)
(-42.6069 -25.4808 0)
(-73.978 -37.5678 0)
(-98.2924 -34.7028 0)
(-105.036 -17.7821 0)
(-96.686 4.0121 0)
(-84.1446 24.066 0)
(-71.534 38.566 0)
(-61.0348 49.0748 0)
(-53.2491 55.95 0)
(-47.1911 60.3108 0)
(-41.8944 62.9859 0)
(-37.1679 64.4397 0)
(-32.5871 65.2146 0)
(-28.2567 66.0557 0)
(-24.4059 67.0153 0)
(-20.3247 67.6838 0)
(-16.0733 67.9176 0)
(-11.5463 67.8469 0)
(-7.81781 67.7308 0)
(-4.22699 67.0912 0)
(-0.876171 66.4751 0)
(2.90518 65.5162 0)
(8.08723 64.3765 0)
(15.1917 62.9064 0)
(24.7442 61.4956 0)
(37.5133 61.191 0)
(51.9829 61.5046 0)
(73.7538 63.2603 0)
(106.045 65.0586 0)
(193.102 68.9853 0)
(254.512 78.7354 0)
(-261.042 88.2813 0)
(2320.31 103.228 0)
(-2224.3 168.88 0)
(101.066 72.5828 0)
(101.211 66.0883 0)
(146.571 61.6261 0)
(48.004 43.1192 0)
(-24.1545 32.5885 0)
(-26.3472 18.3493 0)
(-54.3212 5.75045 0)
(-75.1868 0.0104771 0)
(-86.4971 8.39052 0)
(-87.1097 24.2073 0)
(-79.7869 42.4843 0)
(-70.2578 58.0663 0)
(-60.8256 70.8843 0)
(-53.8518 80.2427 0)
(-48.6381 87.4238 0)
(-44.5284 93.2699 0)
(-40.8463 97.9232 0)
(-37.0982 101.134 0)
(-32.2454 102.866 0)
(-26.8296 103.624 0)
(-22.4851 103.403 0)
(-18.89 102.079 0)
(-15.3876 100.083 0)
(-11.323 98.061 0)
(-8.00685 96.6254 0)
(-4.69303 94.909 0)
(-1.44292 93.4892 0)
(2.19817 91.8599 0)
(7.11965 90.3707 0)
(14.0963 88.5678 0)
(24.2974 87.1159 0)
(38.0183 87.1578 0)
(53.5613 88.0571 0)
(76.0207 90.522 0)
(109.408 93.8824 0)
(200.832 98.9231 0)
(265.338 109.676 0)
(-240.954 113.989 0)
(2208.27 158.076 0)
(-2074.46 255.258 0)
(48.0848 137.059 0)
(95.657 134.077 0)
(131.154 117.301 0)
(30.7073 83.7346 0)
(-37.2894 73.9471 0)
(-38.8012 57.9324 0)
(-60.2788 49.2544 0)
(-71.4339 48.2618 0)
(-74.9754 58.5197 0)
(-72.1824 72.2465 0)
(-64.0582 87.8282 0)
(-56.7773 101.529 0)
(-50.1641 113.226 0)
(-45.0968 122.838 0)
(-40.6956 131.18 0)
(-37.0735 138.167 0)
(-34.3165 143.749 0)
(-32.4046 147.978 0)
(-30.1879 150.543 0)
(-27.739 151.139 0)
(-25.8938 149.78 0)
(-23.5248 147.123 0)
(-19.9457 143.816 0)
(-14.8777 139.844 0)
(-10.8552 136.445 0)
(-7.24914 132.777 0)
(-3.81439 130.536 0)
(-0.0999407 128.159 0)
(4.91484 126.491 0)
(12.0552 125.417 0)
(23.3855 125.228 0)
(38.4203 127.051 0)
(55.2248 129.711 0)
(79.3673 134.324 0)
(114.14 139.727 0)
(208.321 146.355 0)
(269.03 157.083 0)
(-214.403 157.046 0)
(2058.14 230.638 0)
(-1846.25 429.789 0)
(-15.7078 229.021 0)
(82.1714 277.573 0)
(98.0592 220.268 0)
(6.22641 168.992 0)
(-49.0184 155.1 0)
(-50.142 133.774 0)
(-63.6402 126.761 0)
(-66.2583 129.022 0)
(-63.3845 139.739 0)
(-58.8671 152.693 0)
(-51.5696 163.678 0)
(-45.7837 170.723 0)
(-40.2908 175.006 0)
(-36.551 177.24 0)
(-33.8665 179.437 0)
(-32.4157 181.903 0)
(-31.3922 184.102 0)
(-30.552 185.527 0)
(-29.1992 186.153 0)
(-27.5643 185.989 0)
(-26.3554 185.123 0)
(-24.6372 183.569 0)
(-22.402 183.069 0)
(-18.4258 183.779 0)
(-14.8168 186.577 0)
(-10.3872 190.486 0)
(-5.89313 194.496 0)
(-1.70034 198.463 0)
(4.47725 201.896 0)
(12.88 205.861 0)
(25.8721 209.829 0)
(42.3379 215.788 0)
(60.57 222.874 0)
(85.6721 232.864 0)
(121.002 242.297 0)
(217.557 252.3 0)
(275.64 257.188 0)
(-170.074 235.821 0)
(1834.68 427.751 0)
(-1439.61 7118.02 0)
(-98.5964 746.757 0)
(87.2231 581.712 0)
(26.5216 421.599 0)
(-32.0915 354.186 0)
(-71.227 313.325 0)
(-66.1101 279.889 0)
(-64.8579 259.822 0)
(-58.9272 250.355 0)
(-52.1651 241.463 0)
(-49.1139 234.939 0)
(-46.6834 223.849 0)
(-45.8615 209.24 0)
(-43.8845 190.683 0)
(-40.8271 168.601 0)
(-36.2017 144.952 0)
(-32.5777 122.084 0)
(-30.8242 103.656 0)
(-30.4281 92.028 0)
(-29.7428 88.4642 0)
(-28.7323 90.6285 0)
(-28.226 98.7208 0)
(-25.5039 112.551 0)
(-19.7429 132.547 0)
(-11.4972 154.45 0)
(-4.39206 175.412 0)
(0.382384 195.617 0)
(3.8718 211.28 0)
(7.0304 226.987 0)
(12.0443 239.632 0)
(19.6997 250.673 0)
(32.9512 259.995 0)
(50.9911 268.109 0)
(71.6804 277.676 0)
(98.0837 290.692 0)
(132.869 298.599 0)
(222.672 310.069 0)
(253.151 285.535 0)
(-50.042 585.047 0)
(1418.69 6378.71 0)
(5732.53 134755 0)
(-6314.33 6706.05 0)
(-231.163 539.442 0)
(-121.193 250.117 0)
(-98.1098 121.763 0)
(-120.613 60.8093 0)
(-101.699 18.2947 0)
(-92.1004 12.0326 0)
(-83.9502 9.41622 0)
(-78.2401 3.10623 0)
(-75.84 -3.16048 0)
(-76.3339 -17.6599 0)
(-77.7436 -36.7923 0)
(-79.4522 -59.196 0)
(-80.619 -85.2354 0)
(-78.6921 -113.332 0)
(-72.2107 -143.129 0)
(-60.3553 -170.318 0)
(-45.1911 -193.843 0)
(-30.5477 -212.965 0)
(-17.6807 -227.559 0)
(-5.23054 -233.405 0)
(7.9593 -234.235 0)
(17.9738 -227.13 0)
(22.8805 -223.488 0)
(24.8535 -221.597 0)
(24.1761 -226.446 0)
(24.3361 -230.817 0)
(25.6208 -239.303 0)
(27.3023 -247.13 0)
(32.5026 -261.975 0)
(42.6739 -272.037 0)
(59.3755 -288.143 0)
(82.3314 -286.255 0)
(105.835 -266.381 0)
(139.674 -238.673 0)
(204.968 -197.639 0)
(540.618 -134.877 0)
(5701.53 5523.63 0)
(-4875.85 117770 0)
(134878 -140271 0)
(-129434 -5645.07 0)
(-6133.95 599.58 0)
(-375.969 960.237 0)
(-214.515 1115.5 0)
(-170.932 1284.66 0)
(-113.113 1418.05 0)
(-73.4136 1507.58 0)
(-67.5289 1589.81 0)
(-64.2845 1664.77 0)
(-69.125 1737.71 0)
(-79.0923 1815.21 0)
(-85.8872 1899.01 0)
(-90.566 1985.01 0)
(-92.9948 2075.44 0)
(-91.9901 2165.18 0)
(-87.4906 2252.56 0)
(-79.6944 2330.91 0)
(-71.5244 2397.9 0)
(-62.2324 2452.03 0)
(-48.4299 2494.18 0)
(-34.6593 2520.63 0)
(-19.4565 2535.57 0)
(-9.38699 2532.56 0)
(-6.1652 2526.66 0)
(-7.24203 2515.22 0)
(-8.50302 2508.39 0)
(-8.51754 2498.95 0)
(-8.68884 2491.97 0)
(-9.80379 2481.38 0)
(-4.30181 2473.81 0)
(7.73466 2452.12 0)
(37.2901 2421.5 0)
(92.6517 2351.8 0)
(143.935 2239.91 0)
(199.111 2092.61 0)
(322.693 1888.35 0)
(5766.38 1545.04 0)
(113568 -4656.65 0)
(-117392 -122225 0)
(134878 140271 0)
(-129434 5645.07 0)
(-6133.95 -599.58 0)
(-375.969 -960.237 0)
(-214.515 -1115.5 0)
(-170.932 -1284.66 0)
(-113.113 -1418.05 0)
(-73.4136 -1507.58 0)
(-67.5289 -1589.81 0)
(-64.2845 -1664.77 0)
(-69.125 -1737.71 0)
(-79.0923 -1815.21 0)
(-85.8872 -1899.01 0)
(-90.566 -1985.01 0)
(-92.9948 -2075.44 0)
(-91.99 -2165.18 0)
(-87.4906 -2252.56 0)
(-79.6944 -2330.91 0)
(-71.5244 -2397.9 0)
(-62.2324 -2452.03 0)
(-48.4299 -2494.18 0)
(-34.6593 -2520.63 0)
(-19.4565 -2535.57 0)
(-9.38699 -2532.56 0)
(-6.1652 -2526.66 0)
(-7.24203 -2515.22 0)
(-8.50302 -2508.39 0)
(-8.51754 -2498.95 0)
(-8.68884 -2491.97 0)
(-9.80379 -2481.38 0)
(-4.30181 -2473.81 0)
(7.73466 -2452.12 0)
(37.2901 -2421.5 0)
(92.6517 -2351.8 0)
(143.935 -2239.91 0)
(199.111 -2092.61 0)
(322.693 -1888.35 0)
(5766.38 -1545.04 0)
(113568 4656.65 0)
(-117392 122225 0)
(5732.53 -134755 0)
(-6314.33 -6706.05 0)
(-231.163 -539.442 0)
(-121.193 -250.117 0)
(-98.1098 -121.763 0)
(-120.613 -60.8093 0)
(-101.699 -18.2947 0)
(-92.1004 -12.0326 0)
(-83.9502 -9.41622 0)
(-78.2401 -3.10623 0)
(-75.84 3.16048 0)
(-76.3339 17.6599 0)
(-77.7436 36.7923 0)
(-79.4522 59.196 0)
(-80.619 85.2354 0)
(-78.6921 113.332 0)
(-72.2107 143.129 0)
(-60.3553 170.318 0)
(-45.1911 193.843 0)
(-30.5477 212.965 0)
(-17.6807 227.559 0)
(-5.23054 233.405 0)
(7.9593 234.235 0)
(17.9738 227.13 0)
(22.8805 223.488 0)
(24.8535 221.597 0)
(24.1761 226.446 0)
(24.3361 230.817 0)
(25.6208 239.303 0)
(27.3023 247.13 0)
(32.5026 261.975 0)
(42.6739 272.037 0)
(59.3755 288.143 0)
(82.3314 286.255 0)
(105.835 266.381 0)
(139.674 238.673 0)
(204.968 197.639 0)
(540.618 134.877 0)
(5701.53 -5523.63 0)
(-4875.85 -117770 0)
(-1439.61 -7118.02 0)
(-98.5964 -746.757 0)
(87.2231 -581.712 0)
(26.5216 -421.599 0)
(-32.0915 -354.186 0)
(-71.227 -313.325 0)
(-66.1101 -279.889 0)
(-64.8579 -259.822 0)
(-58.9272 -250.355 0)
(-52.1651 -241.463 0)
(-49.1139 -234.939 0)
(-46.6834 -223.849 0)
(-45.8615 -209.24 0)
(-43.8845 -190.683 0)
(-40.8271 -168.601 0)
(-36.2017 -144.952 0)
(-32.5777 -122.084 0)
(-30.8242 -103.656 0)
(-30.4281 -92.028 0)
(-29.7428 -88.4642 0)
(-28.7323 -90.6285 0)
(-28.226 -98.7208 0)
(-25.5039 -112.551 0)
(-19.7429 -132.547 0)
(-11.4972 -154.45 0)
(-4.39206 -175.412 0)
(0.382383 -195.617 0)
(3.8718 -211.28 0)
(7.0304 -226.987 0)
(12.0443 -239.632 0)
(19.6997 -250.673 0)
(32.9512 -259.995 0)
(50.9911 -268.109 0)
(71.6804 -277.676 0)
(98.0837 -290.692 0)
(132.869 -298.599 0)
(222.672 -310.069 0)
(253.151 -285.535 0)
(-50.042 -585.047 0)
(1418.69 -6378.71 0)
(-1846.25 -429.789 0)
(-15.7078 -229.021 0)
(82.1714 -277.573 0)
(98.0592 -220.268 0)
(6.22641 -168.992 0)
(-49.0184 -155.1 0)
(-50.142 -133.774 0)
(-63.6402 -126.761 0)
(-66.2583 -129.022 0)
(-63.3845 -139.739 0)
(-58.8671 -152.693 0)
(-51.5696 -163.678 0)
(-45.7837 -170.723 0)
(-40.2908 -175.006 0)
(-36.551 -177.24 0)
(-33.8665 -179.437 0)
(-32.4157 -181.903 0)
(-31.3922 -184.102 0)
(-30.552 -185.527 0)
(-29.1992 -186.153 0)
(-27.5643 -185.989 0)
(-26.3554 -185.123 0)
(-24.6372 -183.569 0)
(-22.402 -183.069 0)
(-18.4258 -183.779 0)
(-14.8168 -186.577 0)
(-10.3872 -190.486 0)
(-5.89313 -194.496 0)
(-1.70034 -198.463 0)
(4.47725 -201.896 0)
(12.88 -205.861 0)
(25.8721 -209.829 0)
(42.3379 -215.788 0)
(60.57 -222.874 0)
(85.6721 -232.864 0)
(121.002 -242.297 0)
(217.557 -252.3 0)
(275.64 -257.188 0)
(-170.074 -235.821 0)
(1834.68 -427.751 0)
(-2074.46 -255.258 0)
(48.0848 -137.059 0)
(95.657 -134.077 0)
(131.154 -117.301 0)
(30.7073 -83.7346 0)
(-37.2894 -73.9471 0)
(-38.8012 -57.9324 0)
(-60.2788 -49.2544 0)
(-71.4339 -48.2618 0)
(-74.9754 -58.5197 0)
(-72.1824 -72.2465 0)
(-64.0582 -87.8282 0)
(-56.7773 -101.529 0)
(-50.1641 -113.226 0)
(-45.0968 -122.838 0)
(-40.6956 -131.18 0)
(-37.0735 -138.167 0)
(-34.3165 -143.749 0)
(-32.4046 -147.978 0)
(-30.1879 -150.543 0)
(-27.739 -151.139 0)
(-25.8938 -149.78 0)
(-23.5248 -147.123 0)
(-19.9457 -143.816 0)
(-14.8777 -139.844 0)
(-10.8552 -136.445 0)
(-7.24914 -132.777 0)
(-3.81439 -130.536 0)
(-0.0999406 -128.159 0)
(4.91484 -126.491 0)
(12.0552 -125.417 0)
(23.3855 -125.228 0)
(38.4203 -127.051 0)
(55.2248 -129.711 0)
(79.3673 -134.324 0)
(114.14 -139.727 0)
(208.321 -146.355 0)
(269.03 -157.083 0)
(-214.403 -157.046 0)
(2058.14 -230.638 0)
(-2224.3 -168.88 0)
(101.066 -72.5828 0)
(101.211 -66.0883 0)
(146.571 -61.6261 0)
(48.004 -43.1192 0)
(-24.1545 -32.5885 0)
(-26.3472 -18.3493 0)
(-54.3212 -5.75045 0)
(-75.1868 -0.0104771 0)
(-86.4971 -8.39052 0)
(-87.1097 -24.2073 0)
(-79.7869 -42.4843 0)
(-70.2578 -58.0663 0)
(-60.8256 -70.8843 0)
(-53.8518 -80.2427 0)
(-48.6381 -87.4238 0)
(-44.5284 -93.2699 0)
(-40.8463 -97.9232 0)
(-37.0982 -101.134 0)
(-32.2454 -102.866 0)
(-26.8296 -103.624 0)
(-22.4851 -103.403 0)
(-18.89 -102.079 0)
(-15.3876 -100.083 0)
(-11.323 -98.061 0)
(-8.00685 -96.6254 0)
(-4.69303 -94.909 0)
(-1.44292 -93.4892 0)
(2.19817 -91.8599 0)
(7.11965 -90.3707 0)
(14.0963 -88.5678 0)
(24.2974 -87.1159 0)
(38.0183 -87.1578 0)
(53.5613 -88.0571 0)
(76.0207 -90.522 0)
(109.408 -93.8824 0)
(200.832 -98.9231 0)
(265.338 -109.676 0)
(-240.954 -113.989 0)
(2208.27 -158.076 0)
(-2307.14 -79.5308 0)
(147.139 -17.1489 0)
(106.215 -5.60884 0)
(153.288 -12.4826 0)
(58.6889 -6.81821 0)
(-13.4202 1.43353 0)
(-12.9391 10.6485 0)
(-42.6069 25.4808 0)
(-73.978 37.5678 0)
(-98.2924 34.7028 0)
(-105.036 17.7821 0)
(-96.686 -4.0121 0)
(-84.1446 -24.066 0)
(-71.534 -38.566 0)
(-61.0348 -49.0748 0)
(-53.2491 -55.95 0)
(-47.1911 -60.3108 0)
(-41.8944 -62.9859 0)
(-37.1679 -64.4397 0)
(-32.5871 -65.2146 0)
(-28.2567 -66.0557 0)
(-24.4059 -67.0153 0)
(-20.3247 -67.6838 0)