/*--------------------------------*- C++ -*----------------------------------*\
| =========                 |                                                 |
| \\      /  F ield         | OpenFOAM: The Open Source CFD Toolbox           |
|  \\    /   O peration     | Version:  v1912                                 |
|   \\  /    A nd           | Website:  www.openfoam.com                      |
|    \\/     M anipulation  |                                                 |
\*---------------------------------------------------------------------------*/
FoamFile
{
    version     2.0;
    format      ascii;
    class       volVectorField;
    location    "2.48";
    object      U;
}
// * * * * * * * * * * * * * * * * * * * * * * * * * * * * * * * * * * * * * //

dimensions      [0 1 -1 0 0 0 0];


internalField   nonuniform List<vector> 
1900
(
(-0.294089 4.27363e-07 0)
(-0.053429 -6.55322e-07 0)
(-0.0557049 -1.83208e-06 0)
(-0.0594881 1.07352e-05 0)
(-0.0633706 6.63558e-05 0)
(-0.067589 0.000258459 0)
(-0.0720854 0.00044643 0)
(-0.0762388 -0.000676931 0)
(-0.0795808 -0.00368267 0)
(-0.0725144 -0.0137036 0)
(-0.294093 -1.33879e-06 0)
(-0.0534351 -2.88952e-06 0)
(-0.0557106 -3.72914e-06 0)
(-0.059482 1.08035e-05 0)
(-0.0633128 7.7787e-05 0)
(-0.0673398 0.000261998 0)
(-0.0712898 0.000440099 0)
(-0.0750403 -0.000162817 0)
(-0.080027 -0.00214667 0)
(-0.0844818 -0.0112423 0)
(-0.294095 -4.42511e-14 0)
(-0.0534371 -3.421e-14 0)
(-0.0557109 -4.0096e-14 0)
(-0.0594648 2.17944e-14 0)
(-0.0632566 1.27913e-15 0)
(-0.0671804 9.02856e-15 0)
(-0.0709952 -5.93576e-15 0)
(-0.0748285 7.77322e-15 0)
(-0.0801687 -1.11158e-14 0)
(-0.090041 -1.37228e-14 0)
(-0.294093 1.33879e-06 0)
(-0.0534351 2.88952e-06 0)
(-0.0557106 3.72914e-06 0)
(-0.059482 -1.08035e-05 0)
(-0.0633128 -7.7787e-05 0)
(-0.0673398 -0.000261998 0)
(-0.0712898 -0.000440099 0)
(-0.0750403 0.000162817 0)
(-0.080027 0.00214667 0)
(-0.0844818 0.0112423 0)
(-0.294089 -4.27363e-07 0)
(-0.053429 6.55322e-07 0)
(-0.0557049 1.83208e-06 0)
(-0.0594881 -1.07352e-05 0)
(-0.0633706 -6.63558e-05 0)
(-0.067589 -0.000258459 0)
(-0.0720854 -0.00044643 0)
(-0.0762388 0.000676931 0)
(-0.0795808 0.00368267 0)
(-0.0725144 0.0137036 0)
(-0.0764033 -0.0376828 0)
(-0.10215 -0.0495557 0)
(-0.125002 -0.0709229 0)
(-0.168887 -0.0934206 0)
(-0.318979 -0.0752279 0)
(-0.100657 -0.0262149 0)
(-0.127442 -0.0337672 0)
(-0.163149 -0.0515339 0)
(-0.235982 -0.0697078 0)
(-0.374259 -0.065337 0)
(-0.108892 -1.84795e-14 0)
(-0.134905 -1.83086e-14 0)
(-0.177318 2.31363e-14 0)
(-0.257932 -6.61937e-15 0)
(-0.389475 1.17324e-14 0)
(-0.100657 0.0262149 0)
(-0.127442 0.0337672 0)
(-0.163149 0.0515339 0)
(-0.235982 0.0697078 0)
(-0.374259 0.065337 0)
(-0.0764033 0.0376828 0)
(-0.10215 0.0495557 0)
(-0.125002 0.0709229 0)
(-0.168887 0.0934206 0)
(-0.318979 0.0752279 0)
(-0.377303 0.0203115 0)
(-0.312808 0.0279101 0)
(-0.283414 0.0273185 0)
(-0.269948 0.046997 0)
(-0.346462 0.106808 0)
(-0.392923 0.0167603 0)
(-0.321528 0.0170638 0)
(-0.274322 0.0180538 0)
(-0.226564 0.0379199 0)
(-0.183482 0.111426 0)
(-0.401621 1.10655e-14 0)
(-0.324469 5.3796e-14 0)
(-0.266687 7.68879e-14 0)
(-0.196317 1.39529e-13 0)
(-0.0836187 1.02874e-13 0)
(-0.392923 -0.0167603 0)
(-0.321528 -0.0170638 0)
(-0.274322 -0.0180538 0)
(-0.226564 -0.0379199 0)
(-0.183482 -0.111426 0)
(-0.377303 -0.0203115 0)
(-0.312808 -0.0279101 0)
(-0.283414 -0.0273185 0)
(-0.269948 -0.046997 0)
(-0.346462 -0.106808 0)
(-0.580676 0.119758 0)
(-0.125432 -0.135028 0)
(-0.178956 -0.175655 0)
(-0.302167 -0.0956454 0)
(-0.359335 -0.0354084 0)
(-0.380648 -0.0197209 0)
(-0.382461 -0.015677 0)
(-0.373774 -0.0140085 0)
(-0.357041 -0.0128424 0)
(-0.335024 -0.0129319 0)
(-0.308424 -0.0129971 0)
(-0.277759 -0.0131861 0)
(-0.244234 -0.0135205 0)
(-0.208953 -0.013917 0)
(-0.172936 -0.0143476 0)
(-0.137072 -0.0147558 0)
(-0.10217 -0.0151112 0)
(-0.0688572 -0.0153866 0)
(-0.0378965 -0.0155681 0)
(-0.00812772 -0.0156796 0)
(0.00951858 -0.0156394 0)
(0.0400641 -0.0154884 0)
(0.0719172 -0.0152739 0)
(0.106412 -0.0149839 0)
(0.14277 -0.0146191 0)
(0.180516 -0.0141834 0)
(0.219141 -0.0136791 0)
(0.258259 -0.0131092 0)
(0.297587 -0.0124765 0)
(0.33686 -0.0117835 0)
(0.375732 -0.0110331 0)
(0.413681 -0.0102281 0)
(0.45004 -0.00937642 0)
(0.484282 -0.0084687 0)
(0.516523 -0.00756384 0)
(0.547379 -0.0065622 0)
(0.576498 -0.00604622 0)
(0.597676 -0.00446958 0)
(0.668781 -0.00317242 0)
(1.25449 -4.56087e-05 0)
(-0.0132173 0.125997 0)
(0.178747 -0.0979624 0)
(-0.0301787 -0.125329 0)
(-0.267315 -0.0557541 0)
(-0.356449 -0.0178823 0)
(-0.380364 -0.00967471 0)
(-0.3831 -0.00760672 0)
(-0.374394 -0.00673693 0)
(-0.35734 -0.00615741 0)
(-0.335173 -0.00622311 0)
(-0.308516 -0.00625206 0)
(-0.277823 -0.00634704 0)
(-0.244307 -0.00651933 0)
(-0.209044 -0.00672722 0)
(-0.173039 -0.00695744 0)
(-0.137171 -0.00717563 0)
(-0.102252 -0.00736522 0)
(-0.0689168 -0.00751237 0)
(-0.0379331 -0.00761136 0)
(-0.00813514 -0.00767206 0)
(0.00952552 -0.00765403 0)
(0.0400946 -0.00757889 0)
(0.0719562 -0.00747148 0)
(0.106457 -0.00732722 0)
(0.14282 -0.00714664 0)
(0.180571 -0.00693146 0)
(0.219201 -0.00668252 0)
(0.258326 -0.0064011 0)
(0.297663 -0.0060883 0)
(0.336948 -0.00574484 0)
(0.375836 -0.00537128 0)
(0.413803 -0.00496725 0)
(0.450183 -0.00453423 0)
(0.484442 -0.00406298 0)
(0.516696 -0.00357932 0)
(0.547546 -0.00302628 0)
(0.576642 -0.00271923 0)
(0.597976 -0.00189182 0)
(0.669048 -0.00122839 0)
(1.25453 4.55426e-05 0)
(0.17385 4.98275e-14 0)
(0.283308 -2.16173e-14 0)
(0.0388665 -2.3216e-14 0)
(-0.249537 1.60436e-14 0)
(-0.355965 4.85355e-14 0)
(-0.38035 3.51782e-14 0)
(-0.383477 1.23025e-14 0)
(-0.374741 -5.38659e-14 0)
(-0.357624 1.82901e-13 0)
(-0.335512 9.69461e-13 0)
(-0.308874 2.18978e-12 0)
(-0.278162 1.90543e-12 0)
(-0.244621 -4.75094e-12 0)
(-0.209332 -1.95809e-11 0)
(-0.173294 -3.78518e-11 0)
(-0.137382 -3.7839e-11 0)
(-0.10241 -7.34509e-11 0)
(-0.0690186 1.25548e-10 0)
(-0.0379841 3.70678e-11 0)
(-0.00814412 -2.02946e-11 0)
(0.00954215 5.92873e-12 0)
(0.0401529 -1.86344e-10 0)
(0.072062 -4.58713e-10 0)
(0.106619 -7.11531e-11 0)
(0.143039 1.83393e-10 0)
(0.180848 -6.94588e-12 0)
(0.219532 -8.76088e-11 0)
(0.258705 -1.65521e-10 0)
(0.298084 -1.19986e-10 0)
(0.337403 8.10478e-12 0)
(0.376314 1.97664e-10 0)
(0.414295 4.61813e-10 0)
(0.450676 6.59944e-10 0)
(0.484923 8.92225e-10 0)
(0.517151 9.99942e-10 0)
(0.547952 1.0197e-09 0)
(0.577003 6.98082e-10 0)
(0.598293 3.72028e-10 0)
(0.669222 1.91936e-10 0)
(1.25452 -1.79543e-11 0)
(-0.0132173 -0.125997 0)
(0.178747 0.0979624 0)
(-0.0301787 0.125329 0)
(-0.267315 0.0557541 0)
(-0.356449 0.0178823 0)
(-0.380364 0.00967471 0)
(-0.3831 0.00760672 0)
(-0.374394 0.00673693 0)
(-0.35734 0.00615741 0)
(-0.335173 0.00622311 0)
(-0.308516 0.00625206 0)
(-0.277823 0.00634704 0)
(-0.244307 0.00651933 0)
(-0.209044 0.00672722 0)
(-0.173039 0.00695744 0)
(-0.137171 0.00717563 0)
(-0.102252 0.00736522 0)
(-0.0689168 0.00751237 0)
(-0.0379331 0.00761136 0)
(-0.00813514 0.00767206 0)
(0.00952552 0.00765403 0)
(0.0400946 0.00757889 0)
(0.0719562 0.00747147 0)
(0.106457 0.00732722 0)
(0.14282 0.00714664 0)
(0.180571 0.00693146 0)
(0.219201 0.00668252 0)
(0.258326 0.0064011 0)
(0.297663 0.0060883 0)
(0.336948 0.00574484 0)
(0.375836 0.00537128 0)
(0.413803 0.00496725 0)
(0.450183 0.00453423 0)
(0.484442 0.00406298 0)
(0.516696 0.00357932 0)
(0.547546 0.00302628 0)
(0.576642 0.00271923 0)
(0.597976 0.00189182 0)
(0.669048 0.00122839 0)
(1.25453 -4.55427e-05 0)
(-0.580676 -0.119758 0)
(-0.125432 0.135028 0)
(-0.178956 0.175655 0)
(-0.302167 0.0956454 0)
(-0.359335 0.0354084 0)
(-0.380648 0.0197209 0)
(-0.382461 0.015677 0)
(-0.373774 0.0140085 0)
(-0.357041 0.0128424 0)
(-0.335024 0.0129319 0)
(-0.308424 0.0129971 0)
(-0.277759 0.0131861 0)
(-0.244234 0.0135205 0)
(-0.208953 0.013917 0)
(-0.172936 0.0143476 0)
(-0.137072 0.0147558 0)
(-0.10217 0.0151112 0)
(-0.0688572 0.0153866 0)
(-0.0378965 0.0155681 0)
(-0.00812772 0.0156796 0)
(0.00951858 0.0156394 0)
(0.0400641 0.0154884 0)
(0.0719172 0.0152739 0)
(0.106412 0.0149839 0)
(0.14277 0.0146191 0)
(0.180516 0.0141834 0)
(0.219141 0.0136791 0)
(0.258259 0.0131092 0)
(0.297587 0.0124765 0)
(0.33686 0.0117835 0)
(0.375732 0.0110331 0)
(0.413681 0.0102281 0)
(0.45004 0.00937642 0)
(0.484282 0.0084687 0)
(0.516523 0.00756384 0)
(0.547379 0.0065622 0)
(0.576498 0.00604622 0)
(0.597676 0.00446958 0)
(0.668781 0.00317242 0)
(1.25449 4.56085e-05 0)
(-1.14055 -0.173717 0)
(-0.448333 0.150644 0)
(-0.356737 0.215719 0)
(-0.357025 0.136446 0)
(-0.375306 0.0652411 0)
(-0.386606 0.0414148 0)
(-0.385638 0.0341991 0)
(-0.374331 0.0305074 0)
(-0.357559 0.0285657 0)
(-0.33533 0.0282544 0)
(-0.308384 0.0282121 0)
(-0.277491 0.0284759 0)
(-0.243841 0.0290281 0)
(-0.208536 0.0296898 0)
(-0.172567 0.0303841 0)
(-0.136783 0.0310328 0)
(-0.101962 0.0315905 0)
(-0.0687151 0.0320192 0)
(-0.037818 0.0322959 0)
(-0.00813518 0.0324896 0)
(0.00943755 0.0324019 0)
(0.0398735 0.0320996 0)
(0.0716488 0.0316932 0)
(0.106068 0.0311457 0)
(0.142351 0.0304569 0)
(0.180022 0.0296372 0)
(0.218573 0.028693 0)
(0.25762 0.0276319 0)
(0.296881 0.0264625 0)
(0.336095 0.0251946 0)
(0.374918 0.0238411 0)
(0.41283 0.0224155 0)
(0.449167 0.020942 0)
(0.483402 0.0194106 0)
(0.515658 0.0179301 0)
(0.546561 0.0162956 0)
(0.575697 0.0155141 0)
(0.59634 0.0126623 0)
(0.667482 0.00988808 0)
(1.25414 0.00326321 0)
(-1.25426 -0.123523 0)
(-0.614892 0.177429 0)
(-0.490106 0.224475 0)
(-0.424381 0.157055 0)
(-0.408499 0.0983891 0)
(-0.401347 0.0744028 0)
(-0.392508 0.0633989 0)
(-0.377836 0.0576754 0)
(-0.359612 0.055003 0)
(-0.336407 0.053743 0)
(-0.30865 0.0534988 0)
(-0.277266 0.0538132 0)
(-0.24333 0.0545685 0)
(-0.207901 0.0554935 0)
(-0.171898 0.0564554 0)
(-0.136135 0.0573524 0)
(-0.101382 0.0581204 0)
(-0.0682568 0.0587125 0)
(-0.037543 0.0591009 0)
(-0.00809575 0.0594396 0)
(0.00925379 0.0593086 0)
(0.0394219 0.0588007 0)
(0.0709899 0.0581715 0)
(0.105219 0.057326 0)
(0.141323 0.0562684 0)
(0.178824 0.0550212 0)
(0.217219 0.0535985 0)
(0.256124 0.0520144 0)
(0.295261 0.0502825 0)
(0.334369 0.0484168 0)
(0.373104 0.0464338 0)
(0.410948 0.0443488 0)
(0.447237 0.0421958 0)
(0.481449 0.0399406 0)
(0.513746 0.03779 0)
(0.544625 0.0352052 0)
(0.573957 0.034298 0)
(0.593589 0.0293897 0)
(0.664682 0.0237097 0)
(1.25312 0.0112224 0)
(-1.26308 -0.0595983 0)
(-0.650027 0.161762 0)
(-0.534319 0.21197 0)
(-0.465166 0.161333 0)
(-0.434424 0.127695 0)
(-0.413009 0.109794 0)
(-0.398812 0.0979877 0)
(-0.381505 0.0909646 0)
(-0.361233 0.0877317 0)
(-0.336939 0.085782 0)
(-0.308434 0.0853512 0)
(-0.276583 0.0856729 0)
(-0.24241 0.0865114 0)
(-0.20691 0.0875718 0)
(-0.170939 0.0886859 0)
(-0.135264 0.0897366 0)
(-0.100637 0.0906532 0)
(-0.0676817 0.0913813 0)
(-0.0371998 0.0918823 0)
(-0.00804726 0.0924074 0)
(0.00901605 0.0922562 0)
(0.0388654 0.0915383 0)
(0.0702188 0.0907491 0)
(0.104276 0.0897068 0)
(0.140228 0.0884241 0)
(0.177585 0.0869348 0)
(0.21584 0.0852572 0)
(0.254612 0.0834069 0)
(0.293622 0.0813966 0)
(0.33261 0.0792377 0)
(0.371234 0.0769447 0)
(0.40898 0.0745294 0)
(0.445197 0.0720376 0)
(0.479358 0.0694002 0)
(0.511685 0.0669464 0)
(0.542335 0.0636267 0)
(0.571791 0.0627565 0)
(0.590443 0.056524 0)
(0.66141 0.0476461 0)
(1.2508 0.0308607 0)
(-1.26131 0.00264432 0)
(-0.655976 0.163368 0)
(-0.54892 0.212503 0)
(-0.486244 0.175965 0)
(-0.450654 0.158574 0)
(-0.426431 0.14395 0)
(-0.406237 0.133619 0)
(-0.386555 0.125918 0)
(-0.363948 0.122313 0)
(-0.33809 0.119996 0)
(-0.308522 0.119334 0)
(-0.275986 0.119589 0)
(-0.241438 0.120421 0)
(-0.205776 0.121529 0)
(-0.169785 0.122722 0)
(-0.134181 0.123877 0)
(-0.0996889 0.124914 0)
(-0.0669281 0.125764 0)
(-0.0367224 0.126372 0)
(-0.00795816 0.127103 0)
(0.0087145 0.126949 0)
(0.0381195 0.126016 0)
(0.0691774 0.125088 0)
(0.103009 0.123876 0)
(0.138771 0.122405 0)
(0.175951 0.120719 0)
(0.214036 0.118842 0)
(0.252646 0.116791 0)
(0.291503 0.114577 0)
(0.33035 0.112213 0)
(0.368846 0.10971 0)
(0.406487 0.107085 0)
(0.442642 0.104404 0)
(0.476746 0.10153 0)
(0.509134 0.0990115 0)
(0.539291 0.0949289 0)
(0.568897 0.0943893 0)
(0.587121 0.0878955 0)
(0.658259 0.0762141 0)
(1.24657 0.0600342 0)
(-1.24843 0.0487885 0)
(-0.655172 0.180402 0)
(-0.555352 0.224017 0)
(-0.501006 0.196461 0)
(-0.464332 0.189819 0)
(-0.437367 0.177318 0)
(-0.413719 0.169002 0)
(-0.391541 0.161459 0)
(-0.366905 0.157769 0)
(-0.339363 0.155502 0)
(-0.308628 0.154807 0)
(-0.275352 0.155093 0)
(-0.240392 0.155967 0)
(-0.204556 0.157142 0)
(-0.168541 0.158423 0)
(-0.133008 0.159686 0)
(-0.0986412 0.160845 0)
(-0.066063 0.161814 0)
(-0.0361419 0.162535 0)
(-0.0078325 0.163482 0)
(0.0083793 0.16334 0)
(0.0372518 0.162191 0)
(0.0679748 0.16113 0)
(0.101571 0.159758 0)
(0.137145 0.15811 0)
(0.174152 0.156243 0)
(0.212072 0.154185 0)
(0.250522 0.151954 0)
(0.289229 0.149564 0)
(0.327932 0.14702 0)
(0.36631 0.144353 0)
(0.403848 0.141554 0)
(0.439971 0.138757 0)
(0.473987 0.135664 0)
(0.506446 0.133191 0)
(0.535861 0.128266 0)
(0.565493 0.128166 0)
(0.584636 0.122245 0)
(0.655934 0.108418 0)
(1.24042 0.0961199 0)
(-1.25262 0.112337 0)
(-0.653381 0.203904 0)
(-0.558028 0.242418 0)
(-0.51006 0.221518 0)
(-0.474481 0.221009 0)
(-0.445855 0.209748 0)
(-0.420512 0.203649 0)
(-0.396204 0.196872 0)
(-0.369723 0.1935 0)
(-0.34053 0.191498 0)
(-0.308636 0.190948 0)
(-0.274614 0.191337 0)
(-0.239255 0.192305 0)
(-0.203247 0.193569 0)
(-0.167209 0.194948 0)
(-0.13173 0.196319 0)
(-0.0974637 0.197598 0)
(-0.0650506 0.198692 0)
(-0.0354273 0.199538 0)
(-0.00765875 0.200707 0)
(0.00801679 0.200588 0)
(0.036254 0.199232 0)
(0.0665966 0.198046 0)
(0.0999412 0.19652 0)
(0.135327 0.194702 0)
(0.172167 0.192663 0)
(0.209925 0.190436 0)
(0.248223 0.188042 0)
(0.286779 0.185485 0)
(0.32536 0.182802 0)
(0.363602 0.179963 0)
(0.401085 0.177056 0)
(0.437192 0.174167 0)
(0.471062 0.170833 0)
(0.503608 0.168485 0)
(0.532185 0.162775 0)
(0.561954 0.163162 0)
(0.582752 0.158113 0)
(0.654178 0.142772 0)
(1.23188 0.135113 0)
(-1.23493 0.173446 0)
(-0.651151 0.23124 0)
(-0.559355 0.265605 0)
(-0.515653 0.250251 0)
(-0.481725 0.251897 0)
(-0.45242 0.241676 0)
(-0.426371 0.237883 0)
(-0.40029 0.232065 0)
(-0.372117 0.229222 0)
(-0.341488 0.227715 0)
(-0.308453 0.227372 0)
(-0.273787 0.227985 0)
(-0.238041 0.229072 0)
(-0.201879 0.230454 0)
(-0.1658 0.231938 0)
(-0.130347 0.233426 0)
(-0.0961491 0.234837 0)
(-0.0638812 0.236073 0)
(-0.0345693 0.23706 0)
(-0.00743353 0.238449 0)
(0.00763726 0.23836 0)
(0.0351386 0.23681 0)
(0.0650598 0.235507 0)
(0.0981423 0.233836 0)
(0.133342 0.231856 0)
(0.170018 0.229655 0)
(0.207624 0.227274 0)
(0.245767 0.224721 0)
(0.284206 0.222044 0)
(0.322609 0.219166 0)
(0.360844 0.216305 0)
(0.398143 0.213137 0)
(0.434381 0.210336 0)
(0.467998 0.206665 0)
(0.500641 0.204483 0)
(0.528414 0.198157 0)
(0.558557 0.198989 0)
(0.581308 0.194855 0)
(0.652851 0.178669 0)
(1.22196 0.178411 0)
(-1.22172 0.225115 0)
(-0.648804 0.260012 0)
(-0.560237 0.291868 0)
(-0.519343 0.280838 0)
(-0.486862 0.282794 0)
(-0.457425 0.273605 0)
(-0.43121 0.271925 0)
(-0.403591 0.266939 0)
(-0.37414 0.265031 0)
(-0.341987 0.263774 0)
(-0.308176 0.263985 0)
(-0.272787 0.264715 0)
(-0.236756 0.266022 0)
(-0.200414 0.267517 0)
(-0.164284 0.269135 0)
(-0.128827 0.270762 0)
(-0.0946699 0.272333 0)
(-0.0625348 0.273736 0)
(-0.0335573 0.274877 0)
(-0.00715628 0.276475 0)
(0.00724702 0.276419 0)
(0.0339119 0.274694 0)
(0.0633726 0.273281 0)
(0.0961839 0.271473 0)
(0.131199 0.269341 0)
(0.167719 0.266989 0)
(0.205168 0.264454 0)
(0.243195 0.261787 0)
(0.281432 0.258906 0)
(0.319875 0.256067 0)
(0.357753 0.252802 0)
(0.395332 0.249906 0)
(0.431369 0.246759 0)
(0.464775 0.242888 0)
(0.497599 0.240953 0)
(0.524658 0.234203 0)
(0.555321 0.235265 0)
(0.579993 0.231897 0)
(0.651382 0.214863 0)
(1.20871 0.218285 0)
(-1.20984 0.281253 0)
(-0.647211 0.2921 0)
(-0.560903 0.320221 0)
(-0.522084 0.312798 0)
(-0.490425 0.314125 0)
(-0.461182 0.305909 0)
(-0.435107 0.305821 0)
(-0.406318 0.301935 0)
(-0.375287 0.300223 0)
(-0.342534 0.300176 0)
(-0.307378 0.300207 0)
(-0.271752 0.30151 0)
(-0.235272 0.302866 0)
(-0.198826 0.304574 0)
(-0.16261 0.306339 0)
(-0.127136 0.308148 0)
(-0.0930018 0.30991 0)
(-0.0609983 0.311499 0)
(-0.0323899 0.312802 0)
(-0.00683143 0.314587 0)
(0.00684994 0.314559 0)
(0.032581 0.312683 0)
(0.0615442 0.311168 0)
(0.0940764 0.30923 0)
(0.128911 0.306955 0)
(0.165272 0.304456 0)
(0.202596 0.301801 0)
(0.240424 0.298943 0)
(0.278719 0.296121 0)
(0.316654 0.292764 0)
(0.35519 0.290169 0)
(0.391771 0.286115 0)
(0.428797 0.284005 0)
(0.461403 0.279245 0)
(0.49442 0.277623 0)
(0.52115 0.270877 0)
(0.552563 0.272101 0)
(0.578859 0.26918 0)
(0.650211 0.252411 0)
(1.19547 0.266737 0)
(-1.19249 0.325435 0)
(-0.644278 0.322893 0)
(-0.560671 0.348791 0)
(-0.52392 0.344885 0)
(-0.492706 0.345552 0)
(-0.463844 0.338378 0)
(-0.438038 0.339622 0)
(-0.407621 0.335564 0)
(-0.376755 0.336294 0)
(-0.341605 0.335095 0)
(-0.306881 0.336782 0)
(-0.270148 0.337695 0)
(-0.233715 0.339569 0)
(-0.197012 0.341366 0)
(-0.160758 0.343362 0)
(-0.125245 0.345373 0)
(-0.0911305 0.34735 0)
(-0.0592679 0.349133 0)
(-0.031074 0.350594 0)
(-0.00646751 0.352533 0)
(0.00644809 0.352526 0)
(0.0311532 0.35053 0)
(0.0595842 0.348918 0)
(0.0918313 0.34686 0)
(0.126485 0.344449 0)
(0.162706 0.341827 0)
(0.199851 0.339011 0)
(0.237684 0.336164 0)
(0.275495 0.332895 0)
(0.314128 0.330224 0)
(0.351172 0.326117 0)
(0.389452 0.323844 0)
(0.424991 0.319942 0)
(0.458062 0.315767 0)
(0.491103 0.314162 0)
(0.517512 0.307261 0)
(0.54981 0.308502 0)
(0.577047 0.305547 0)
(0.647843 0.288032 0)
(1.17799 0.304149 0)
(-1.17477 0.382363 0)
(-0.642586 0.359059 0)
(-0.561278 0.38102 0)
(-0.526422 0.378964 0)
(-0.49465 0.377916 0)
(-0.466203 0.371404 0)
(-0.440029 0.37254 0)
(-0.409522 0.370919 0)
(-0.3759 0.369694 0)
(-0.342145 0.371697 0)
(-0.304991 0.371732 0)
(-0.268929 0.373956 0)
(-0.231748 0.375562 0)
(-0.195085 0.37773 0)
(-0.158688 0.379884 0)
(-0.123153 0.382125 0)
(-0.089056 0.384314 0)
(-0.057355 0.386284 0)
(-0.0296254 0.387889 0)
(-0.0060722 0.389944 0)
(0.0060396 0.389949 0)
(0.0296377 0.387864 0)
(0.0575072 0.386164 0)
(0.0894637 0.383996 0)
(0.123946 0.381472 0)
(0.160011 0.378725 0)
(0.197099 0.375876 0)
(0.234613 0.372767 0)
(0.272937 0.369991 0)
(0.310215 0.366075 0)
(0.349573 0.364242 0)
(0.384795 0.358802 0)
(0.423217 0.357933 0)
(0.45458 0.352043 0)
(0.488064 0.350801 0)
(0.514725 0.344366 0)
(0.54843 0.346257 0)
(0.576619 0.343655 0)
(0.64711 0.327355 0)
(1.16069 0.35707 0)
(-1.15372 0.419991 0)
(-0.638364 0.38836 0)
(-0.559892 0.40888 0)
(-0.527112 0.408138 0)
(-0.495314 0.406508 0)
(-0.466993 0.402051 0)
(-0.441247 0.404533 0)
(-0.408054 0.40153 0)
(-0.376717 0.404865 0)
(-0.339219 0.404044 0)
(-0.304105 0.407052 0)
(-0.266498 0.408402 0)
(-0.229796 0.410844 0)
(-0.192807 0.413051 0)
(-0.156421 0.415479 0)
(-0.120844 0.417911 0)
(-0.0867889 0.420296 0)
(-0.0552779 0.422432 0)
(-0.028066 0.424157 0)
(-0.00564725 0.426288 0)
(0.00561633 0.426298 0)
(0.0280461 0.424156 0)
(0.0553258 0.422381 0)
(0.0869872 0.42012 0)
(0.121294 0.417497 0)
(0.157238 0.414684 0)
(0.194118 0.4117 0)
(0.231749 0.408733 0)
(0.269238 0.405291 0)
(0.307832 0.402575 0)
(0.344281 0.398086 0)
(0.382904 0.395983 0)
(0.417827 0.391464 0)
(0.450906 0.387194 0)
(0.484128 0.385276 0)
(0.510351 0.378178 0)
(0.545056 0.379823 0)
(0.573082 0.376688 0)
(0.642831 0.359624 0)
(1.13992 0.389614 0)
(-1.12938 0.476439 0)
(-0.63691 0.426371 0)
(-0.561057 0.442498 0)
(-0.530257 0.441471 0)
(-0.497341 0.437862 0)
(-0.469472 0.434798 0)
(-0.441849 0.436178 0)
(-0.409539 0.43593 0)
(-0.375281 0.436942 0)
(-0.339599 0.438972 0)
(-0.302246 0.440372 0)
(-0.265178 0.442603 0)
(-0.227697 0.444721 0)
(-0.190653 0.447158 0)
(-0.154065 0.449658 0)
(-0.11843 0.452228 0)
(-0.0843967 0.454744 0)
(-0.0530882 0.457 0)
(-0.0264331 0.458814 0)
(-0.00520607 0.460978 0)
(0.00518346 0.460989 0)
(0.0264041 0.458824 0)
(0.0530802 0.456992 0)
(0.0844617 0.454667 0)
(0.118639 0.452003 0)
(0.154503 0.449174 0)
(0.191422 0.446273 0)
(0.22889 0.443247 0)
(0.26699 0.440384 0)
(0.304575 0.436963 0)
(0.343319 0.434585 0)
(0.378939 0.429834 0)
(0.417001 0.428387 0)
(0.447926 0.422336 0)
(0.482615 0.421615 0)
(0.509199 0.415144 0)
(0.545545 0.417832 0)
(0.574128 0.415513 0)
(0.643171 0.40071 0)
(1.11759 0.446209 0)
(-1.10588 0.5027 0)
(-0.633607 0.450049 0)
(-0.560957 0.465608 0)
(-0.53159 0.46468 0)
(-0.497013 0.460114 0)
(-0.468838 0.46038 0)
(-0.439506 0.462051 0)
(-0.406309 0.462713 0)
(-0.372174 0.465547 0)
(-0.335619 0.467514 0)
(-0.298734 0.470288 0)
(-0.261548 0.473067 0)
(-0.224454 0.476009 0)
(-0.187551 0.478936 0)
(-0.151158 0.481836 0)
(-0.115659 0.484654 0)
(-0.0817706 0.487325 0)
(-0.050739 0.489679 0)
(-0.0247086 0.491552 0)
(-0.00474565 0.493706 0)
(0.00473239 0.493714 0)
(0.0246832 0.491565 0)
(0.0507092 0.489692 0)
(0.0817635 0.487311 0)
(0.115717 0.484562 0)
(0.151339 0.481589 0)
(0.187923 0.478431 0)
(0.225079 0.4751 0)
(0.26256 0.471642 0)
(0.300022 0.467988 0)
(0.337836 0.46458 0)
(0.374028 0.460507 0)
(0.411006 0.457597 0)
(0.442254 0.451981 0)
(0.476982 0.45055 0)
(0.503429 0.443568 0)
(0.54089 0.445943 0)
(0.569108 0.443296 0)
(0.637239 0.428294 0)
(1.09473 0.47257 0)
(-1.0739 0.554796 0)
(-0.632338 0.486101 0)
(-0.563356 0.497015 0)
(-0.535538 0.49615 0)
(-0.499278 0.49031 0)
(-0.472309 0.492371 0)
(-0.439078 0.491837 0)
(-0.407405 0.494176 0)
(-0.371722 0.496069 0)
(-0.335336 0.498545 0)
(-0.298085 0.501353 0)
(-0.26051 0.504252 0)
(-0.222972 0.507189 0)
(-0.185744 0.510157 0)
(-0.149079 0.51308 0)
(-0.113386 0.515894 0)
(-0.0794178 0.518538 0)
(-0.0485296 0.520864 0)
(-0.0230578 0.522714 0)
(-0.00431073 0.524805 0)
(0.00430481 0.524809 0)
(0.0230409 0.522724 0)
(0.0484988 0.520883 0)
(0.0793827 0.518555 0)
(0.113369 0.515882 0)
(0.149113 0.512993 0)
(0.185877 0.509929 0)
(0.22325 0.506716 0)
(0.261037 0.503453 0)
(0.298799 0.499968 0)
(0.336691 0.496735 0)
(0.372897 0.492817 0)
(0.410423 0.490798 0)
(0.441164 0.485351 0)
(0.477589 0.485627 0)
(0.504393 0.479787 0)
(0.543128 0.48301 0)
(0.571013 0.481135 0)
(0.637501 0.469143 0)
(1.06616 0.529285 0)
(-1.04919 0.566812 0)
(-0.629328 0.505412 0)
(-0.563101 0.517997 0)
(-0.535867 0.517914 0)
(-0.497271 0.512253 0)
(-0.470179 0.515973 0)
(-0.433849 0.51454 0)
(-0.402985 0.518699 0)
(-0.365776 0.520078 0)
(-0.329681 0.523459 0)
(-0.29182 0.526346 0)
(-0.254076 0.529723 0)
(-0.21656 0.533318 0)
(-0.179689 0.53712 0)
(-0.143671 0.540969 0)
(-0.108832 0.54468 0)
(-0.0757297 0.547994 0)
(-0.045641 0.550724 0)
(-0.02111 0.552725 0)
(-0.00380657 0.554737 0)
(0.00380514 0.554739 0)
(0.0211013 0.552732 0)
(0.0456181 0.550741 0)
(0.0756915 0.54802 0)
(0.108785 0.544707 0)
(0.143626 0.540974 0)
(0.179666 0.537065 0)
(0.216576 0.533143 0)
(0.254175 0.52937 0)
(0.291957 0.525665 0)
(0.330119 0.522498 0)
(0.365974 0.518283 0)
(0.404117 0.516663 0)
(0.434284 0.510838 0)
(0.471992 0.511669 0)
(0.498947 0.505949 0)
(0.539049 0.509128 0)
(0.566249 0.506961 0)
(0.631277 0.493668 0)
(1.0427 0.546426 0)
(-1.009 0.614776 0)
(-0.626428 0.540131 0)
(-0.56426 0.550534 0)
(-0.539146 0.551972 0)
(-0.500606 0.547801 0)
(-0.473868 0.551283 0)
(-0.43595 0.548835 0)
(-0.406086 0.552886 0)
(-0.367188 0.552592 0)
(-0.331771 0.555399 0)
(-0.293156 0.55693 0)
(-0.255502 0.559529 0)
(-0.217743 0.56238 0)
(-0.180531 0.565673 0)
(-0.144041 0.569258 0)
(-0.108724 0.572895 0)
(-0.0751539 0.576029 0)
(-0.0447981 0.578558 0)
(-0.020368 0.580378 0)
(-0.0036394 0.582259 0)
(0.00364016 0.582259 0)
(0.0203651 0.580381 0)
(0.0447847 0.578568 0)
(0.0751243 0.576052 0)
(0.108676 0.572931 0)
(0.143979 0.569301 0)
(0.180462 0.565708 0)
(0.217681 0.562381 0)
(0.255466 0.559456 0)
(0.29315 0.556717 0)
(0.331896 0.555034 0)
(0.367275 0.55183 0)
(0.406591 0.551944 0)
(0.436272 0.547086 0)
(0.474827 0.549143 0)
(0.501761 0.54463 0)
(0.541456 0.547251 0)
(0.56677 0.544408 0)
(0.628933 0.532799 0)
(1.00587 0.600905 0)
(-0.977403 0.601402 0)
(-0.618259 0.550899 0)
(-0.559343 0.56866 0)
(-0.537332 0.573837 0)
(-0.498834 0.571961 0)
(-0.472411 0.576687 0)
(-0.433399 0.574535 0)
(-0.404186 0.579361 0)
(-0.364305 0.578418 0)
(-0.329579 0.581398 0)
(-0.290635 0.581873 0)
(-0.252952 0.583336 0)
(-0.214613 0.584352 0)
(-0.176543 0.585562 0)
(-0.13902 0.587088 0)
(-0.102636 0.5893 0)
(-0.0688104 0.59257 0)
(-0.0394089 0.595878 0)
(-0.0169485 0.598592 0)
(-0.00283998 0.600858 0)
(0.00284094 0.600858 0)
(0.0169485 0.598593 0)
(0.0394036 0.595884 0)
(0.0687943 0.592586 0)
(0.102604 0.58933 0)
(0.138969 0.587136 0)
(0.176469 0.585622 0)
(0.21452 0.584414 0)
(0.252839 0.583377 0)
(0.290514 0.581867 0)
(0.32946 0.581309 0)
(0.36417 0.578163 0)
(0.404139 0.57896 0)
(0.433319 0.57377 0)
(0.472512 0.5756 0)
(0.499143 0.570338 0)
(0.538278 0.57107 0)
(0.560474 0.564911 0)
(0.619608 0.546278 0)
(0.975821 0.594188 0)
(-0.954482 0.620499 0)
(-0.597359 0.599853 0)
(-0.543012 0.622775 0)
(-0.527826 0.631431 0)
(-0.486801 0.6334 0)
(-0.46135 0.639937 0)
(-0.419083 0.639622 0)
(-0.390088 0.645586 0)
(-0.347919 0.64552 0)
(-0.313846 0.649516 0)
(-0.273722 0.65049 0)
(-0.236655 0.652686 0)
(-0.198184 0.653928 0)
(-0.161008 0.655413 0)
(-0.124625 0.656904 0)
(-0.0903644 0.658837 0)
(-0.0591188 0.661548 0)
(-0.0323998 0.664893 0)
(-0.0131759 0.668072 0)
(-0.00210764 0.670329 0)
(0.00210842 0.670329 0)
(0.0131767 0.668072 0)
(0.0323984 0.664895 0)
(0.059111 0.661556 0)
(0.0903458 0.658856 0)
(0.124595 0.656937 0)
(0.160962 0.655462 0)
(0.19812 0.653994 0)
(0.236564 0.652759 0)
(0.273605 0.650567 0)
(0.313685 0.64957 0)
(0.34769 0.645527 0)
(0.389831 0.645534 0)
(0.41867 0.639434 0)
(0.460904 0.639609 0)
(0.486207 0.632865 0)
(0.527279 0.630341 0)
(0.542263 0.621238 0)
(0.596681 0.597897 0)
(0.953721 0.615644 0)
(-1.02635 1.02946 0)
(-0.615853 0.953083 0)
(-0.58891 0.979635 0)
(-0.597048 1.00837 0)
(-0.538979 1.04696 0)
(-0.521212 1.07129 0)
(-0.462 1.10052 0)
(-0.434398 1.12416 0)
(-0.376042 1.14675 0)
(-0.341294 1.16791 0)
(-0.287438 1.18518 0)
(-0.24798 1.20263 0)
(-0.19902 1.21577 0)
(-0.157482 1.22846 0)
(-0.114307 1.23794 0)
(-0.0756305 1.24565 0)
(-0.0421548 1.25101 0)
(-0.0179332 1.25423 0)
(-0.00492493 1.25569 0)
(-0.000549987 1.25622 0)
(0.000550082 1.25622 0)
(0.00492527 1.25569 0)
(0.0179338 1.25423 0)
(0.0421552 1.25101 0)
(0.07563 1.24565 0)
(0.114304 1.23794 0)
(0.157475 1.22846 0)
(0.199007 1.21578 0)
(0.24796 1.20264 0)
(0.287409 1.1852 0)
(0.341253 1.16794 0)
(0.375991 1.14678 0)
(0.434334 1.12421 0)
(0.46192 1.10059 0)
(0.521129 1.07138 0)
(0.538882 1.04708 0)
(0.597032 1.0085 0)
(0.588884 0.979812 0)
(0.616077 0.953041 0)
(1.02643 1.02943 0)
(-1.02635 -1.02946 0)
(-0.615853 -0.953083 0)
(-0.58891 -0.979635 0)
(-0.597048 -1.00837 0)
(-0.538979 -1.04696 0)
(-0.521212 -1.07129 0)
(-0.462 -1.10052 0)
(-0.434398 -1.12416 0)
(-0.376042 -1.14675 0)
(-0.341294 -1.16791 0)
(-0.287438 -1.18518 0)
(-0.24798 -1.20263 0)
(-0.19902 -1.21577 0)
(-0.157482 -1.22846 0)
(-0.114307 -1.23794 0)
(-0.0756305 -1.24565 0)
(-0.0421548 -1.25101 0)
(-0.0179332 -1.25423 0)
(-0.00492493 -1.25569 0)
(-0.000549987 -1.25622 0)
(0.000550082 -1.25622 0)
(0.00492527 -1.25569 0)
(0.0179338 -1.25423 0)
(0.0421552 -1.25101 0)
(0.07563 -1.24565 0)
(0.114304 -1.23794 0)
(0.157475 -1.22846 0)
(0.199007 -1.21578 0)
(0.24796 -1.20264 0)
(0.287409 -1.1852 0)
(0.341253 -1.16794 0)
(0.375991 -1.14678 0)
(0.434334 -1.12421 0)
(0.46192 -1.10059 0)
(0.521129 -1.07138 0)
(0.538882 -1.04708 0)
(0.597032 -1.0085 0)
(0.588884 -0.979812 0)
(0.616077 -0.953041 0)
(1.02643 -1.02943 0)
(-0.954482 -0.620499 0)
(-0.597359 -0.599853 0)
(-0.543012 -0.622775 0)
(-0.527826 -0.631431 0)
(-0.486801 -0.6334 0)
(-0.46135 -0.639937 0)
(-0.419083 -0.639622 0)
(-0.390088 -0.645586 0)
(-0.347919 -0.64552 0)
(-0.313846 -0.649516 0)
(-0.273722 -0.65049 0)
(-0.236655 -0.652686 0)
(-0.198184 -0.653928 0)
(-0.161008 -0.655413 0)
(-0.124625 -0.656904 0)
(-0.0903644 -0.658837 0)
(-0.0591188 -0.661548 0)
(-0.0323998 -0.664893 0)
(-0.0131759 -0.668072 0)
(-0.00210764 -0.670329 0)
(0.00210842 -0.670329 0)
(0.0131767 -0.668072 0)
(0.0323984 -0.664895 0)
(0.059111 -0.661556 0)
(0.0903458 -0.658856 0)
(0.124595 -0.656937 0)
(0.160962 -0.655462 0)
(0.19812 -0.653994 0)
(0.236564 -0.652759 0)
(0.273605 -0.650567 0)
(0.313685 -0.64957 0)
(0.34769 -0.645527 0)
(0.389831 -0.645534 0)
(0.41867 -0.639434 0)
(0.460904 -0.639609 0)
(0.486207 -0.632865 0)
(0.527279 -0.630341 0)
(0.542263 -0.621238 0)
(0.596681 -0.597897 0)
(0.953721 -0.615644 0)
(-0.977403 -0.601402 0)
(-0.618259 -0.550899 0)
(-0.559343 -0.56866 0)
(-0.537332 -0.573837 0)
(-0.498834 -0.571961 0)
(-0.472411 -0.576687 0)
(-0.433399 -0.574535 0)
(-0.404186 -0.579361 0)
(-0.364305 -0.578418 0)
(-0.329579 -0.581398 0)
(-0.290635 -0.581873 0)
(-0.252952 -0.583336 0)
(-0.214613 -0.584352 0)
(-0.176543 -0.585562 0)
(-0.13902 -0.587088 0)
(-0.102636 -0.5893 0)
(-0.0688104 -0.59257 0)
(-0.0394089 -0.595878 0)
(-0.0169485 -0.598592 0)
(-0.00283998 -0.600858 0)
(0.00284094 -0.600858 0)
(0.0169485 -0.598593 0)
(0.0394036 -0.595884 0)
(0.0687943 -0.592586 0)
(0.102604 -0.58933 0)
(0.138969 -0.587136 0)
(0.176469 -0.585622 0)
(0.21452 -0.584414 0)
(0.252839 -0.583377 0)
(0.290514 -0.581867 0)
(0.32946 -0.581309 0)
(0.36417 -0.578163 0)
(0.404139 -0.57896 0)
(0.433319 -0.57377 0)
(0.472512 -0.5756 0)
(0.499143 -0.570338 0)
(0.538278 -0.57107 0)
(0.560474 -0.564911 0)
(0.619608 -0.546278 0)
(0.975821 -0.594188 0)
(-1.009 -0.614776 0)
(-0.626428 -0.540131 0)
(-0.56426 -0.550534 0)
(-0.539146 -0.551972 0)
(-0.500606 -0.547801 0)
(-0.473868 -0.551283 0)
(-0.43595 -0.548835 0)
(-0.406086 -0.552886 0)
(-0.367188 -0.552592 0)
(-0.331771 -0.555399 0)
(-0.293156 -0.55693 0)
(-0.255502 -0.559529 0)
(-0.217743 -0.56238 0)
(-0.180531 -0.565673 0)
(-0.144041 -0.569258 0)
(-0.108724 -0.572895 0)
(-0.0751539 -0.576029 0)
(-0.0447981 -0.578558 0)
(-0.020368 -0.580378 0)
(-0.0036394 -0.582259 0)
(0.00364016 -0.582259 0)
(0.0203651 -0.580381 0)
(0.0447847 -0.578568 0)
(0.0751243 -0.576052 0)
(0.108676 -0.572931 0)
(0.143979 -0.569301 0)
(0.180462 -0.565708 0)
(0.217681 -0.562381 0)
(0.255466 -0.559456 0)
(0.29315 -0.556717 0)
(0.331896 -0.555034 0)
(0.367275 -0.55183 0)