/*--------------------------------*- C++ -*----------------------------------*\
| =========                 |                                                 |
| \\      /  F ield         | OpenFOAM: The Open Source CFD Toolbox           |
|  \\    /   O peration     | Version:  v1912                                 |
|   \\  /    A nd           | Website:  www.openfoam.com                      |
|    \\/     M anipulation  |                                                 |
\*---------------------------------------------------------------------------*/
FoamFile
{
    version     2.0;
    format      ascii;
    class       volScalarField;
    location    "3.5";
    object      Ma;
}
// * * * * * * * * * * * * * * * * * * * * * * * * * * * * * * * * * * * * * //

dimensions      [0 0 0 0 0 0 0];


internalField   nonuniform List<scalar> 
1900
(
0.562847
0.0920942
0.0992341
0.102424
0.10439
0.105887
0.106117
0.103317
0.0972315
0.0816295
0.562853
0.0921079
0.0992668
0.10245
0.104273
0.105364
0.104953
0.101194
0.0955191
0.0900833
0.562855
0.0921154
0.0992793
0.102439
0.104138
0.105009
0.104201
0.100382
0.0970633
0.0970936
0.562853
0.0921079
0.0992668
0.10245
0.104273
0.105364
0.104953
0.101194
0.0955191
0.0900833
0.562847
0.0920942
0.0992341
0.102424
0.10439
0.105887
0.106117
0.103317
0.0972315
0.0816295
0.0855
0.104543
0.121669
0.156514
0.289733
0.0998607
0.117826
0.146042
0.209559
0.345617
0.106631
0.12435
0.158769
0.230771
0.362239
0.0998607
0.117826
0.146042
0.209559
0.345617
0.0855
0.104543
0.121669
0.156514
0.289733
0.330861
0.255442
0.202034
0.167951
0.185394
0.346228
0.267584
0.206012
0.13535
0.0907739
0.354352
0.272165
0.202332
0.109153
0.0435864
0.346228
0.267584
0.206012
0.13535
0.0907739
0.330861
0.255442
0.202034
0.167951
0.185394
0.367333
0.205017
0.246823
0.274643
0.332433
0.408223
0.458388
0.471392
0.470302
0.461035
0.443942
0.41832
0.385062
0.345022
0.299432
0.24957
0.196826
0.142497
0.0883802
0.0421915
0.0489864
0.0988951
0.15509
0.21208
0.268638
0.323853
0.376703
0.426167
0.471367
0.51196
0.548421
0.581987
0.61383
0.644109
0.671411
0.693731
0.71333
0.728535
0.771811
1.72209
0.184842
0.441516
0.24582
0.182669
0.322221
0.406862
0.45815
0.471586
0.470574
0.461311
0.444198
0.418421
0.38495
0.344635
0.298699
0.248382
0.194996
0.139612
0.0832803
0.0293723
0.0385652
0.0944235
0.152504
0.210452
0.267613
0.323266
0.376456
0.426198
0.471631
0.512418
0.54904
0.582741
0.614682
0.645082
0.672356
0.694762
0.714305
0.72939
0.772054
1.72464
0.313454
0.529948
0.269137
0.12577
0.32223
0.409515
0.460147
0.473302
0.472024
0.462491
0.44519
0.419183
0.38549
0.344958
0.298799
0.248243
0.194566
0.13876
0.0815823
0.0236414
0.0344397
0.0929653
0.151764
0.210099
0.267539
0.323429
0.376843
0.42681
0.472477
0.513515
0.550408
0.584407
0.616674
0.647453
0.675135
0.697965
0.718028
0.733407
0.775477
1.72808
0.184842
0.441516
0.24582
0.182669
0.322221
0.406862
0.45815
0.471586
0.470574
0.461311
0.444198
0.418421
0.38495
0.344635
0.298699
0.248382
0.194996
0.139612
0.0832803
0.0293723
0.0385652
0.0944235
0.152504
0.210452
0.267613
0.323266
0.376456
0.426198
0.471631
0.512418
0.54904
0.582741
0.614682
0.645082
0.672356
0.694762
0.714305
0.72939
0.772054
1.72464
0.367333
0.205017
0.246823
0.274643
0.332433
0.408223
0.458388
0.471392
0.470302
0.461035
0.443942
0.41832
0.385062
0.345022
0.299432
0.24957
0.196826
0.142497
0.0883802
0.0421915
0.0489864
0.0988951
0.15509
0.21208
0.268638
0.323853
0.376703
0.426167
0.471367
0.51196
0.548421
0.581987
0.61383
0.644109
0.671411
0.693731
0.71333
0.728535
0.771811
1.72209
1.29582
0.474325
0.440084
0.403152
0.38808
0.433435
0.473227
0.482454
0.479945
0.469581
0.451786
0.425979
0.39272
0.352916
0.307845
0.258928
0.207868
0.156707
0.109108
0.0764883
0.080381
0.11775
0.168199
0.222305
0.277273
0.331555
0.383859
0.433026
0.478105
0.5187
0.555248
0.588923
0.620956
0.651246
0.679056
0.701452
0.721692
0.737459
0.78269
1.73283
1.65844
0.776697
0.640543
0.530375
0.488249
0.48363
0.502351
0.501838
0.497495
0.484913
0.46631
0.440763
0.408318
0.369908
0.326906
0.281035
0.234529
0.190411
0.153296
0.132484
0.13463
0.159375
0.199712
0.247038
0.297502
0.348651
0.398694
0.446181
0.489986
0.529582
0.565345
0.598257
0.6298
0.659056
0.686929
0.708502
0.728983
0.74476
0.794835
1.72598
1.70834
0.857237
0.723898
0.610283
0.559427
0.541518
0.53826
0.531507
0.521975
0.507527
0.488256
0.46307
0.431668
0.395049
0.35464
0.312427
0.270921
0.23345
0.203908
0.18922
0.19059
0.20834
0.240838
0.28143
0.326758
0.374032
0.421177
0.466465
0.508616
0.546971
0.581813
0.613756
0.644918
0.673002
0.701164
0.722184
0.743215
0.759071
0.816789
1.73067
1.70168
0.891795
0.77104
0.67145
0.619146
0.593759
0.578959
0.56626
0.552466
0.536367
0.516471
0.491622
0.461318
0.426575
0.388845
0.350211
0.313235
0.281072
0.256622
0.245607
0.246514
0.259963
0.28694
0.321902
0.362372
0.40569
0.449636
0.492476
0.532704
0.569444
0.603243
0.63388
0.664548
0.691067
0.719361
0.739852
0.76117
0.776434
0.842811
1.72772
1.71214
0.919117
0.809574
0.720891
0.672493
0.642532
0.621289
0.603889
0.587293
0.569652
0.549281
0.524718
0.495485
0.462583
0.427292
0.391876
0.358675
0.330568
0.309599
0.301073
0.301657
0.312175
0.335255
0.365751
0.402037
0.441591
0.48255
0.522687
0.560964
0.596151
0.62863
0.657636
0.688175
0.713187
0.741578
0.761913
0.783737
0.798668
0.873952
1.73142
1.72921
0.94211
0.841641
0.762895
0.719397
0.686711
0.662369
0.642128
0.623996
0.605324
0.584671
0.560551
0.532482
0.50102
0.468027
0.435261
0.405113
0.380068
0.361534
0.354847
0.355182
0.363538
0.383816
0.410849
0.443597
0.480018
0.517793
0.555943
0.59187
0.625075
0.657039
0.683678
0.71371
0.736908
0.765451
0.784918
0.806628
0.820602
0.902157
1.73076
1.74205
0.966031
0.87195
0.804848
0.76534
0.729555
0.70364
0.681252
0.661748
0.641999
0.621325
0.597755
0.570017
0.54037
0.508945
0.478478
0.450695
0.427976
0.411168
0.405933
0.406062
0.412719
0.430958
0.455275
0.485249
0.518667
0.554542
0.589278
0.624864
0.655545
0.686335
0.71173
0.741606
0.763787
0.791854
0.812879
0.834174
0.848637
0.932439
1.73567
1.74044
0.983783
0.895331
0.837954
0.80124
0.763645
0.738559
0.715248
0.695996
0.676547
0.656728
0.632791
0.607304
0.578046
0.548502
0.519731
0.493815
0.47285
0.45726
0.45323
0.453181
0.458435
0.475179
0.497402
0.525066
0.556359
0.589243
0.623578
0.654957
0.685159
0.714664
0.737021
0.765895
0.786808
0.813564
0.834223
0.856099
0.86938
0.9527
1.73631
1.74887
1.00628
0.919954
0.872335
0.83829
0.800756
0.776194
0.751008
0.731874
0.711523
0.690697
0.668411
0.641821
0.613922
0.585306
0.557801
0.533331
0.513671
0.498922
0.495924
0.495722
0.499766
0.515413
0.536033
0.561852
0.591347
0.623034
0.654224
0.687165
0.713182
0.743172
0.764802
0.793046
0.813565
0.840879
0.861838
0.885791
0.898944
0.97907
1.74283
1.75011
1.02252
0.938735
0.898611
0.865722
0.827623
0.803401
0.777162
0.759092
0.738332
0.719745
0.697
0.672394
0.64575
0.618242
0.592208
0.568848
0.550237
0.536052
0.533969
0.533637
0.536593
0.551436
0.570719
0.595143
0.622562
0.652681
0.681926
0.711836
0.737272
0.76486
0.784711
0.812245
0.831764
0.858809
0.879473
0.905105
0.917633
0.994935
1.74311
1.76034
1.04516
0.961822
0.930156
0.894821
0.859653
0.835952
0.80894
0.791492
0.770099
0.751067
0.728114
0.703735
0.676605
0.649556
0.623972
0.601289
0.583409
0.56955
0.568279
0.567849
0.569813
0.584105
0.602437
0.62586
0.652565
0.681546
0.710666
0.740041
0.76382
0.792359
0.811307
0.83878
0.858328
0.886162
0.906838
0.934117
0.946734
1.02092
1.74811
1.76263
1.06286
0.981741
0.95414
0.916096
0.884696
0.860121
0.832532
0.815516
0.793047
0.774629
0.751933
0.728138
0.702344
0.676922
0.652721
0.631276
0.614311
0.600811
0.600358
0.599865
0.600833
0.614549
0.631789
0.65373
0.678674
0.705949
0.732447
0.761404
0.782947
0.811032
0.829025
0.856034
0.87512
0.903687
0.92455
0.953056
0.965619
1.03743
1.74612
1.77207
1.08714
1.00705
0.981801
0.942383
0.915521
0.888858
0.862115
0.845257
0.822153
0.804525
0.781576
0.758254
0.732598
0.70694
0.682642
0.66129
0.644514
0.630985
0.631198
0.630669
0.630834
0.644429
0.661363
0.683102
0.707761
0.735344
0.760747
0.789468
0.809977
0.837652
0.855334
0.882542
0.901695
0.931169
0.952689
0.982178
0.994907
1.06421
1.7486
1.77325
1.10653
1.02929
1.0057
0.966427
0.941624
0.912385
0.887067
0.869702
0.845404
0.828493
0.80425
0.781327
0.755792
0.731081
0.708058
0.687818
0.672224
0.659281
0.660525
0.659971
0.658935
0.671782
0.687367
0.707893
0.730815
0.757478
0.781521
0.810074
0.829972
0.857486
0.874641
0.901924
0.920903
0.951163
0.973103
1.00357
1.01632
1.08276
1.74419
1.77963
1.13203
1.05608
1.03492
0.996951
0.972844
0.941395
0.918079
0.898784
0.873872
0.855872
0.830581
0.809152
0.783128
0.758593
0.735093
0.71461
0.698712
0.685178
0.686797
0.686273
0.684801
0.698171
0.713982
0.734717
0.757785
0.784629
0.808036
0.836132
0.855443
0.884087
0.902016
0.930336
0.950307
0.981697
1.00465
1.03569
1.04823
1.11174
1.74335
1.77932
1.15362
1.08187
1.06204
1.02489
1.00037
0.966919
0.944549
0.923303
0.896987
0.878985
0.852917
0.829736
0.803027
0.77824
0.75482
0.734544
0.719034
0.705656
0.708222
0.707681
0.705029
0.718078
0.733352
0.753873
0.776395
0.803594
0.826702
0.856337
0.875466
0.903988
0.921965
0.950836
0.971292
1.00374
1.02758
1.05954
1.07197
1.13184
1.73627
1.77395
1.17006
1.10403
1.0898
1.05366
1.02763
0.99264
0.971546
0.946919
0.921804
0.901932
0.872306
0.85085
0.822448
0.798561
0.774636
0.754186
0.738298
0.724301
0.72731
0.7269
0.723816
0.73749
0.753071
0.774008
0.796512
0.823973
0.846816
0.876874
0.89733
0.927819
0.947242
0.977243
0.998714
1.03174
1.05654
1.08854
1.09658
1.14893
1.7212
1.72588
1.16404
1.10583
1.09908
1.06748
1.04264
1.00827
0.987572
0.959245
0.935764
0.913278
0.884708
0.862996
0.834887
0.812425
0.788873
0.769176
0.753424
0.738944
0.741913
0.741572
0.738497
0.752724
0.768128
0.78864
0.81007
0.836904
0.858119
0.888162
0.907765
0.938239
0.957482
0.987706
1.00911
1.04213
1.06658
1.09497
1.0974
1.14268
1.66181
1.71066
1.16587
1.13863
1.14197
1.12006
1.10068
1.07139
1.05435
1.02868
1.00986
0.988892
0.964597
0.940894
0.910107
0.878665
0.845204
0.814998
0.790936
0.772195
0.773083
0.772881
0.771859
0.7905
0.814227
0.845158
0.876599
0.911185
0.93766
0.967309
0.985509
1.01255
1.02899
1.05629
1.07462
1.10441
1.12502
1.146
1.14044
1.15484
1.68602
2.34717
1.69009
1.65671
1.7136
1.72896
1.73768
1.74019
1.74567
1.74422
1.74658
1.74213
1.74225
1.73824
1.73986
1.73722
1.73791
1.73392
1.73587
1.72488
1.74761
1.74766
1.72483
1.73598
1.73395
1.73826
1.7374
1.74067
1.73865
1.74334
1.74294
1.74807
1.74608
1.74857
1.74379
1.74283
1.73548
1.72075
1.66045
1.68144
2.34992
2.34717
1.69009
1.65671
1.7136
1.72896
1.73768
1.74019
1.74567
1.74422
1.74658
1.74213
1.74225
1.73824
1.73986
1.73722
1.73791
1.73392
1.73587
1.72488
1.74761
1.74766
1.72483
1.73598
1.73395
1.73826
1.7374
1.74067
1.73865
1.74334
1.74294
1.74807
1.74608
1.74857
1.74379
1.74283
1.73548
1.72075
1.66045
1.68144
2.34992
1.71066
1.16587
1.13863
1.14197
1.12006
1.10068
1.07139
1.05435
1.02868
1.00986
0.988892
0.964597
0.940894
0.910107
0.878665
0.845204
0.814998
0.790936
0.772195
0.773083
0.772881
0.771859
0.7905
0.814227
0.845158
0.876599
0.911185
0.93766
0.967309
0.985509
1.01255
1.02899
1.05629
1.07462
1.10441
1.12502
1.146
1.14044
1.15484
1.68602
1.72588
1.16404
1.10583
1.09908
1.06748
1.04264
1.00827
0.987572
0.959245
0.935764
0.913278
0.884708
0.862996
0.834887
0.812425
0.788873
0.769176
0.753424
0.738944
0.741913
0.741572
0.738497
0.752724
0.768128
0.78864
0.81007
0.836904
0.858119
0.888162
0.907765
0.938239
0.957482
0.987706
1.00911
1.04213
1.06658
1.09497
1.0974
1.14268
1.66181
1.77395
1.17006
1.10403
1.0898
1.05366
1.02763
0.99264
0.971546
0.946919
0.921804
0.901932
0.872306
0.85085
0.822448
0.798561
0.774636
0.754186
0.738298
0.724301
0.72731
0.7269
0.723816
0.73749
0.753071
0.774008
0.796512
0.823973
0.846816
0.876874
0.89733
0.927819
0.947242
0.977243
0.998714
1.03174
1.05654
1.08854
1.09658
1.14893
1.7212
1.77932
1.15362
1.08187
1.06204
1.02489
1.00037
0.966919
0.944549
0.923303
0.896987
0.878985
0.852917
0.829736
0.803027
0.77824
0.75482
0.734544
0.719034
0.705656
0.708222
0.707681
0.705029
0.718078
0.733352
0.753873
0.776395
0.803594
0.826702
0.856337
0.875466
0.903988
0.921965
0.950836
0.971292
1.00374
1.02758
1.05954
1.07197
1.13184
1.73627
1.77963
1.13203
1.05608
1.03492
0.996951
0.972844
0.941395
0.918079
0.898784
0.873872
0.855872
0.830581
0.809152
0.783128
0.758593
0.735093
0.71461
0.698712
0.685178
0.686797
0.686273
0.684801
0.698171
0.713982
0.734717
0.757785
0.784629
0.808036
0.836132
0.855443
0.884087
0.902016
0.930336
0.950307
0.981697
1.00465
1.03569
1.04823
1.11174
1.74335
1.77325
1.10653
1.02929
1.0057
0.966427
0.941624
0.912385
0.887067
0.869702
0.845404
0.828493
0.80425
0.781327
0.755792
0.731081
0.708058
0.687818
0.672224
0.659281
0.660525
0.659971
0.658935
0.671782
0.687367
0.707893
0.730815
0.757478
0.781521
0.810074
0.829972
0.857486
0.874641
0.901924
0.920903
0.951163
0.973103
1.00357
1.01632
1.08276
1.74419
1.77207
1.08714
1.00705
0.981801
0.942383
0.915521
0.888858
0.862115
0.845257
0.822153
0.804525
0.781576
0.758254
0.732598
0.70694
0.682642
0.66129
0.644514
0.630985
0.631198
0.630669
0.630834
0.644429
0.661363
0.683102
0.707761
0.735344
0.760747
0.789468
0.809977
0.837652
0.855334
0.882542
0.901695
0.931169
0.952689
0.982178
0.994907
1.06421
1.7486
1.76263
1.06286
0.981741
0.95414
0.916096
0.884696
0.860121
0.832532
0.815516
0.793047
0.774629
0.751933
0.728138
0.702344
0.676922
0.652721
0.631276
0.614311
0.600811
0.600358
0.599865
0.600833
0.614549
0.631789
0.65373
0.678674
0.705949
0.732447
0.761404
0.782947
0.811032
0.829025
0.856034
0.87512
0.903687
0.92455
0.953056
0.965619
1.03743
1.74612
1.76034
1.04516
0.961822
0.930156
0.894821
0.859653
0.835952
0.80894
0.791492
0.770099
0.751067
0.728114
0.703735
0.676605
0.649556
0.623972
0.601289
0.583409
0.56955
0.568279
0.567849
0.569813
0.584105
0.602437
0.62586
0.652565
0.681546
0.710666
0.740041
0.76382
0.792359
0.811307
0.83878
0.858328
0.886162
0.906838
0.934117
0.946734
1.02092
1.74811
1.75011
1.02252
0.938735
0.898611
0.865722
0.827623
0.803401
0.777162
0.759092
0.738332
0.719745
0.697
0.672394
0.64575
0.618242
0.592208
0.568848
0.550237
0.536052
0.533969
0.533637
0.536593
0.551436
0.570719
0.595143
0.622562
0.652681
0.681926
0.711836
0.737272
0.76486
0.784711
0.812245
0.831764
0.858809
0.879473
0.905105
0.917633
0.994935
1.74311
1.74887
1.00628
0.919954
0.872335
0.83829
0.800756
0.776194
0.751008
0.731874
0.711523
0.690697
0.668411
0.641821
0.613922
0.585306
0.557801
0.533331
0.513671
0.498922
0.495924
0.495722
0.499766
0.515413
0.536033
0.561852
0.591347
0.623034
0.654224
0.687165
0.713182
0.743172
0.764802
0.793046
0.813565
0.840879
0.861838
0.885791
0.898944
0.97907
1.74283
1.74044
0.983783
0.895331
0.837954
0.80124
0.763645
0.738559
0.715248
0.695996
0.676547
0.656728
0.632791
0.607304
0.578046
0.548502
0.519731
0.493815
0.47285
0.45726
0.45323
0.453181
0.458435
0.475179
0.497402
0.525066
0.556359
0.589243
0.623578
0.654957
0.685159
0.714664
0.737021
0.765895
0.786808
0.813564
0.834223
0.856099
0.86938
0.9527
1.73631
1.74205
0.966031
0.87195
0.804848
0.76534
0.729555
0.70364
0.681252
0.661748
0.641999
0.621325
0.597755
0.570017
0.54037
0.508945
0.478478
0.450695
0.427976
0.411168
0.405933
0.406062
0.412719
0.430958
0.455275
0.485249
0.518667
0.554542
0.589278
0.624864
0.655545
0.686335
0.71173
0.741606
0.763787
0.791854
0.812879
0.834174
0.848637
0.932439
1.73567
1.72921
0.94211
0.841641
0.762895
0.719397
0.686711
0.662369
0.642128
0.623996
0.605324
0.584671
0.560551
0.532482
0.50102
0.468027
0.435261
0.405113
0.380068
0.361534
0.354847
0.355182
0.363538
0.383816
0.410849
0.443597
0.480018
0.517793
0.555943
0.59187
0.625075
0.657039
0.683678
0.71371
0.736908
0.765451
0.784918
0.806628
0.820602
0.902157
1.73076
1.71214
0.919117
0.809574
0.720891
0.672493
0.642532
0.621289
0.603889
0.587293
0.569652
0.549281
0.524718
0.495485
0.462583
0.427292
0.391876
0.358675
0.330568
0.309599
0.301073
0.301657
0.312175
0.335255
0.365751
0.402037
0.441591
0.48255
0.522687
0.560964
0.596151
0.62863
0.657636
0.688175
0.713187
0.741578
0.761913
0.783737
0.798668
0.873952
1.73142
1.70168
0.891795
0.77104
0.67145
0.619146
0.593759
0.578959
0.56626
0.552466
0.536367
0.516471
0.491622
0.461318
0.426575
0.388845
0.350211
0.313235
0.281072
0.256622
0.245607
0.246514
0.259963
0.28694
0.321902
0.362372
0.40569
0.449636
0.492476
0.532704
0.569444
0.603243
0.63388
0.664548
0.691067
0.719361
0.739852
0.76117
0.776434
0.842811
1.72772
1.70834
0.857237
0.723898
0.610283
0.559427
0.541518
0.53826
0.531507
0.521975
0.507527
0.488256
0.46307
0.431668
0.395049
0.35464
0.312427
0.270921
0.23345
0.203908
0.18922
0.19059
0.20834
0.240838
0.28143
0.326758
0.374032
0.421177
0.466465
0.508616
0.546971
0.581813
0.613756
0.644918
0.673002
0.701164
0.722184
0.743215
0.759071
0.816789
1.73067
1.65844
0.776697
0.640543
0.530375
0.488249
0.48363
0.502351
0.501838
0.497495
0.484913
0.46631
0.440763
0.408318
0.369908
0.326906
0.281035
0.234529
0.190411
0.153296
0.132484
0.13463
0.159375
0.199712
0.247038
0.297502
0.348651
0.398694
0.446181
0.489986
0.529582
0.565345
0.598257
0.6298
0.659056
0.686929
0.708502
0.728983
0.74476
0.794835
1.72598
1.29582
0.474325
0.440084
0.403152
0.38808
0.433435
0.473227
0.482454
0.479945
0.469581
0.451786
0.425979
0.39272
0.352916
0.307845
0.258928
0.207868
0.156707
0.109108
0.0764883
0.080381
0.11775
0.168199
0.222305
0.277273
0.331555
0.383859
0.433026
0.478105
0.5187
0.555248
0.588923
0.620956
0.651246
0.679056
0.701452
0.721692
0.737459
0.78269
1.73283
)
;

boundaryField
{
    inlet
    {
        type            calculated;
        value           uniform 0;
    }
    outlet
    {
        type            calculated;
        value           nonuniform List<scalar> 
165
(
1.29582
1.65844
1.70834
1.70168
1.71214
1.72921
1.74205
1.74044
1.74887
1.75011
1.76034
1.76263
1.77207
1.77325
1.77963
1.77932
1.77395
1.72588
1.71066
2.34717
2.34717
1.69009
1.65671
1.7136
1.72896
1.73768
1.74019
1.74567
1.74422
1.74658
1.74213
1.74225
1.73824
1.73986
1.73722
1.73791
1.73392
1.73587
1.72488
1.74761
1.74766
1.72483
1.73598
1.73395
1.73826
1.7374
1.74067
1.73865
1.74334
1.74294
1.74807
1.74608
1.74857
1.74379
1.74283
1.73548
1.72075
1.66045
1.68144
2.34992
1.73283
1.72598
1.73067
1.72772
1.73142
1.73076
1.73567
1.73631
1.74283
1.74311
1.74811
1.74612
1.7486
1.74419
1.74335
1.73627
1.7212
1.66181
1.68602
2.34992
1.72209
1.72464
1.72808
1.72464
1.72209
2.34992
1.68602
1.66181
1.7212
1.73627
1.74335
1.74419
1.7486
1.74612
1.74811
1.74311
1.74283
1.73631
1.73567
1.73076
1.73142
1.72772
1.73067
1.72598
1.73283
2.34717
1.69009
1.65671
1.7136
1.72896
1.73768
1.74019
1.74567
1.74422
1.74658
1.74213
1.74225
1.73824
1.73986
1.73722
1.73791
1.73392
1.73587
1.72488
1.74761
1.74766
1.72483
1.73598
1.73395
1.73826
1.7374
1.74067
1.73865
1.74334
1.74294
1.74807
1.74608
1.74857
1.74379
1.74283
1.73548
1.72075
1.66045
1.68144
2.34992
2.34717
1.71066
1.72588
1.77395
1.77932
1.77963
1.77325
1.77207
1.76263
1.76034
1.75011
1.74887
1.74044
1.74205
1.72921
1.71214
1.70168
1.70834
1.65844
1.29582
)
;
    }
    obstacle
    {
        type            calculated;
        value           nonuniform List<scalar> 
40
(
0.562847
0.0920942
0.0992341
0.102424
0.10439
0.105886
0.106116
0.103317
0.0971152
0.0799867
0.562847
0.0920942
0.0992341
0.102424
0.10439
0.105886
0.106116
0.103317
0.0971152
0.0799867
0.0851925
0.104142
0.121622
0.156442
0.272424
0.0851925
0.104142
0.121622
0.156442
0.272424
0.330343
0.255348
0.20203
0.166659
0.179548
0.330343
0.255348
0.20203
0.166659
0.179548
)
;
    }
    empty
    {
        type            empty;
    }
}


// ************************************************************************* //
