/*--------------------------------*- C++ -*----------------------------------*\
| =========                 |                                                 |
| \\      /  F ield         | OpenFOAM: The Open Source CFD Toolbox           |
|  \\    /   O peration     | Version:  v1912                                 |
|   \\  /    A nd           | Website:  www.openfoam.com                      |
|    \\/     M anipulation  |                                                 |
\*---------------------------------------------------------------------------*/
FoamFile
{
    version     2.0;
    format      ascii;
    class       volScalarField;
    location    "0.48";
    object      T;
}
// * * * * * * * * * * * * * * * * * * * * * * * * * * * * * * * * * * * * * //

dimensions      [0 0 0 1 0 0 0];


internalField   nonuniform List<scalar> 
4800
(
14.8715
12.0327
10.5796
10.5328
10.2095
10.2465
10.4894
10.8489
11.3074
11.8362
12.3229
12.7037
13.0265
13.3176
13.5865
13.679
13.3556
12.9969
13.1964
13.5916
14.0793
14.6353
15.2533
15.9156
16.6036
17.2945
17.9659
18.6111
19.2189
19.6686
19.8917
19.5871
18.4088
17.761
17.7801
17.8864
18.0758
18.2782
18.4414
18.5661
14.8738
12.0397
10.5835
10.5271
10.1998
10.2372
10.4732
10.8375
11.3027
11.8401
12.3344
12.7175
13.0414
13.3341
13.6018
13.692
13.3679
13.0095
13.2071
13.6017
14.0898
14.6458
15.2645
15.9278
16.6143
17.2946
17.953
18.5906
19.1882
19.6316
19.8619
19.6008
18.4779
17.7902
17.7984
17.8958
18.077
18.2763
18.4394
18.5683
14.8783
12.0529
10.5908
10.5167
10.1809
10.219
10.4467
10.8172
11.2909
11.8386
12.3427
12.7336
13.0614
13.3584
13.6262
13.7136
13.3912
13.0325
13.2255
13.6183
14.1073
14.6639
15.2834
15.949
16.6297
17.3007
17.9547
18.5844
19.1573
19.5684
19.7975
19.6001
18.5945
17.8457
17.8278
17.9087
18.0739
18.2647
18.426
18.5546
14.8823
12.0677
10.5952
10.4987
10.1512
10.1922
10.4142
10.7917
11.2756
11.8334
12.346
12.7457
13.0771
13.3783
13.6449
13.7411
13.433
13.0681
13.2491
13.6372
14.1259
14.6819
15.2998
15.965
16.644
17.312
17.9611
18.578
19.121
19.4983
19.7228
19.6014
18.7523
17.9335
17.8646
17.9245
18.0657
18.2443
18.4044
18.5353
14.8823
12.0781
10.5978
10.4778
10.1152
10.1565
10.3748
10.7603
11.2544
11.8209
12.3431
12.7479
13.0786
13.3822
13.6454
13.7559
13.4817
13.1131
13.2736
13.653
14.1393
14.6921
15.3078
15.9725
16.6553
17.3289
17.9799
18.5821
19.0904
19.4367
19.6465
19.6008
18.9341
18.0565
17.9009
17.9386
18.0516
18.2176
18.378
18.5129
14.8779
12.0815
10.5975
10.4572
10.079
10.1124
10.3262
10.7174
11.2221
11.7981
12.3308
12.7403
13.0672
13.3693
13.6273
13.7574
13.531
13.1636
13.2937
13.6611
14.1429
14.6917
15.3067
15.9738
16.6594
17.3385
17.9935
18.5816
19.055
19.3906
19.5818
19.6104
19.126
18.2165
17.9334
17.9495
18.0349
18.1882
18.3504
18.4916
14.8711
12.0789
10.596
10.4481
10.058
10.0714
10.2772
10.6695
11.18
11.7659
12.3082
12.7229
13.0468
13.3457
13.6003
13.7533
13.5788
13.2154
13.3045
13.6555
14.1278
14.6744
15.2904
15.9575
16.6469
17.335
17.9934
18.5653
19.0151
19.3594
19.5477
19.6432
19.3092
18.4078
17.9654
17.9588
18.0173
18.1579
18.3234
18.4731
14.8647
12.0725
10.6055
10.457
10.0555
10.0461
10.2411
10.6277
11.1351
11.7221
12.2769
12.7002
13.0253
13.3199
13.5798
13.7533
13.6257
13.2652
13.2994
13.626
14.0887
14.6322
15.2453
15.9089
16.5997
17.2954
17.955
18.523
18.9792
19.3345
19.5591
19.6846
19.4723
18.6241
18.0075
17.9664
18.003
18.1279
18.2962
18.4558
14.8576
12.0611
10.6309
10.4987
10.0866
10.0448
10.2247
10.5969
11.0903
11.6722
12.2355
12.6737
13.0104
13.3075
13.576
13.7709
13.6837
13.3239
13.2867
13.5874
14.0354
14.5696
15.1698
15.8235
16.512
17.21
17.8738
18.4627
18.9495
19.3214
19.5873
19.7128
19.6075
18.8642
18.0785
17.9735
17.9982
18.1037
18.2691
18.437
14.8505
12.0445
10.6652
10.5696
10.1517
10.0663
10.2287
10.5799
11.0489
11.6171
12.1838
12.643
12.9996
13.3092
13.5949
13.8133
13.7667
13.4062
13.2867
13.5566
13.9776
14.4954
15.0762
15.7165
16.3991
17.0989
17.7775
18.3973
18.9191
19.3178
19.6078
19.7241
19.6992
19.113
18.2047
17.9876
18.0046
18.0922
18.2456
18.4164
14.8439
12.0217
10.7019
10.6641
10.2506
10.1045
10.2504
10.5749
11.0113
11.5564
12.1198
12.6013
12.9844
13.3135
13.6225
13.8706
13.8764
13.5205
13.301
13.5344
13.9239
14.4234
14.9891
15.6186
16.2984
17.0023
17.6948
18.3357
18.8801
19.302
19.6026
19.7303
19.7402
19.3361
18.4076
18.0217
18.0266
18.0932
18.2292
18.394
14.8355
11.9913
10.7317
10.7662
10.3741
10.1553
10.282
10.576
10.9768
11.492
12.044
12.5442
12.955
13.3078
13.6385
13.914
13.9932
13.6729
13.3391
13.5198
13.885
14.3696
14.926
15.5482
16.2266
16.9329
17.632
18.2802
18.8337
19.2662
19.5673
19.7105
19.7419
19.4988
18.6795
18.1071
18.0669
18.1097
18.2232
18.3712
14.8246
11.9557
10.756
10.8536
10.5008
10.2188
10.3257
10.5823
10.9479
11.4285
11.9625
12.4718
12.9092
13.2881
13.6348
13.9296
14.0933
13.8505
13.4201
13.5193
13.8691
14.344
14.8939
15.5086
16.1811
16.8838
17.5816
18.2297
18.7851
19.2156
19.5071
19.6672
19.7146
19.5834
18.9673
18.2719
18.1289
18.1518
18.229
18.3519
14.811
11.9168
10.7767
10.92
10.6181
10.3022
10.3719
10.5962
10.929
11.3737
11.886
12.3934
12.8482
13.2531
13.6156
13.9254
14.1547
14.0292
13.5799
13.547
13.8732
14.3421
14.8886
15.4959
16.1582
16.8492
17.5366
18.1782
18.7303
19.1561
19.4415
19.6075
19.6616
19.5978
19.1932
18.522
18.2301
18.2154
18.2514
18.3437
14.7944
11.8767
10.7933
10.9659
10.7209
10.4031
10.4217
10.6178
10.9237
11.3343
11.8235
12.3213
12.7816
13.2022
13.5841
13.9116
14.1672
14.177
13.8113
13.6227
13.9006
14.3569
14.9002
15.4997
16.1486
16.8212
17.4917
18.1202
18.6647
19.0872
19.3723
19.5381
19.5988
19.5714
19.3183
18.802
18.3968
18.3007
18.3004
18.3531
14.7786
11.8399
10.8062
10.9961
10.8034
10.5075
10.474
10.6447
10.9284
11.313
11.7822
12.2701
12.7268
13.145
13.5339
13.879
14.154
14.269
14.0369
13.7683
13.9664
14.3891
14.924
15.5143
16.1443
16.7955
17.4459
18.0582
18.5927
19.0137
19.302
19.4659
19.5315
19.5185
19.3553
19.0169
18.6328
18.4279
18.3761
18.387
14.7687
11.8136
10.8159
11.0151
10.8622
10.5925
10.5216
10.6755
10.9405
11.3082
11.7633
12.2452
12.6933
13.0971
13.4764
13.8247
14.1149
14.2973
14.1963
13.9531
14.0679
14.4551
14.9568
15.5345
16.1426
16.7728
17.4026
17.997
18.52
18.9391
19.2298
19.3949
19.4621
19.4534
19.3486
19.1331
18.8581
18.6186
18.4895
18.452
14.7663
11.8019
10.8252
11.0282
10.8964
10.6448
10.5596
10.7058
10.9609
11.3157
11.762
12.2395
12.6759
13.0613
13.4234
13.7629
14.0622
14.2825
14.2754
14.1123
14.1845
14.5483
15.021
15.5627
16.1505
16.7583
17.3667
17.9443
18.454
18.8654
19.1547
19.3243
19.3925
19.3869
19.3172
19.1794
19.0039
18.8199
18.6568
18.5455
14.7713
11.8035
10.8317
11.0317
10.9005
10.6617
10.5863
10.7348
10.9888
11.3376
11.7797
12.2511
12.6691
13.0326
13.3745
13.7013
14.0044
14.2382
14.2928
14.2102
14.2882
14.6458
15.103
15.6159
16.1702
16.7584
17.3445
17.9052
18.4001
18.7931
19.0775
19.2519
19.3232
19.323
19.2783
19.1922
19.077
18.9561
18.8303
18.6902
14.7838
11.8206
10.8232
11.0102
10.8763
10.652
10.6041
10.7646
11.0281
11.3811
11.8194
12.2778
12.6688
13.0071
13.3261
13.6414
13.9431
14.1831
14.278
14.2489
14.3634
14.7339
15.1881
15.6876
16.2172
16.7744
17.343
17.8836
18.3567
18.7248
18.9973
19.1748
19.2551
19.2668
19.2393
19.1874
19.1084
19.024
18.9487
18.8446
14.803
11.8491
10.8034
10.9684
10.8121
10.6015
10.6092
10.798
11.0765
11.4396
11.8768
12.3122
12.6717
12.9829
13.2777
13.5826
13.8793
14.1191
14.2371
14.2564
14.4215
14.8041
15.2637
15.7672
16.2878
16.8199
17.3593
17.8782
18.3191
18.6605
18.9153
19.0932
19.1866
19.2159
19.2051
19.1757
19.123
19.0543
19.0132
18.9574
14.8293
11.889
10.7701
10.8967
10.7063
10.5158
10.6005
10.8317
11.1331
11.5145
11.9527
12.3537
12.6783
12.9561
13.2343
13.5253
13.8129
14.0493
14.1814
14.2509
14.4703
14.8565
15.3225
15.8403
16.3698
16.8942
17.4086
17.8861
18.2897
18.5975
18.8331
19.0108
19.1122
19.1653
19.1775
19.1613
19.1222
19.0622
19.0411
19.0245
14.8623
11.9402
10.7225
10.7818
10.549
10.4118
10.5754
10.8519
11.1906
11.6065
12.0403
12.3989
12.689
12.9358
13.199
13.4745
13.7488
13.9769
14.1173
14.2338
14.5075
14.8948
15.364
15.8952
16.4483
16.9856
17.4745
17.9048
18.2688
18.5346
18.751
18.9274
19.0393
19.1148
19.1484
19.1452
19.1093
19.0643
19.0497
19.0513
14.9009
12.0015
10.6702
10.6231
10.3517
10.3151
10.529
10.8531
11.2465
11.708
12.1281
12.4481
12.7
12.9349
13.1776
13.434
13.6884
13.898
14.0415
14.2086
14.5282
14.9193
15.3918
15.9323
16.5107
17.0688
17.5524
17.9493
18.2582
18.4737
18.6694
18.8441
18.9708
19.0663
19.1216
19.1252
19.0922
19.0564
19.0453
19.0589
14.9434
12.0663
10.6002
10.4454
10.159
10.2231
10.4736
10.8476
11.3078
11.8024
12.2002
12.4925
12.7233
12.9497
13.173
13.4058
13.6292
13.8046
13.9492
14.1863
14.5255
14.9307
15.4087
15.9577
16.5565
17.1312
17.6284
18.0125
18.2615
18.4228
18.5929
18.7638
18.9069
19.0214
19.0975
19.1032
19.0744
19.0417
19.0313
19.0529
14.9909
12.1287
10.5041
10.2497
10.0066
10.1454
10.4304
10.8584
11.3822
11.8835
12.2527
12.5262
12.7578
12.9774
13.1854
13.3883
13.5631
13.6892
13.8502
14.1532
14.509
14.9304
15.418
15.9768
16.5899
17.1804
17.6962
18.0794
18.2844
18.3919
18.5288
18.6934
18.8506
18.9837
19.0723
19.0827
19.0533
19.0185
19.0085
19.0357
15.0315
12.1718
10.3823
10.0552
9.90333
10.0981
10.4152
10.9043
11.4729
11.954
12.2926
12.5533
12.794
13.0157
13.2123
13.3724
13.4756
13.5542
13.765
14.0988
14.4836
14.9237
15.4234
15.9926
16.6171
17.2231
17.7581
18.147
18.3277
18.3819
18.481
18.6379
18.8056
18.9549
19.0423
19.0544
19.0251
18.9921
18.9833
19.015
15.0631
12.1899
10.2565
9.90173
9.8507
10.0896
10.4488
10.9864
11.5711
12.0157
12.3258
12.5796
12.8291
13.0599
13.2464
13.3457
13.3532
13.4116
13.6837
14.0432
14.4539
14.9127
15.4276
16.0084
16.6431
17.2623
17.8131
18.2121
18.3814
18.3856
18.4465
18.5974
18.7718
18.9262
19.0033
19.0138
18.9906
18.966
18.9613
18.9969
15.0912
12.1856
10.1571
9.81647
9.83898
10.1268
10.5269
11.0903
11.6637
12.0722
12.3612
12.6139
12.8706
13.1081
13.2661
13.283
13.206
13.2936
13.6019
13.988
14.4247
14.9041
15.4348
16.0272
16.6695
17.2962
17.858
18.2682
18.44
18.4076
18.4277
18.5695
18.743
18.8846
18.9518
18.9634
18.9519
18.9403
18.9456
18.9861
15.0909
12.1507
10.0876
9.78332
9.86076
10.1976
10.6281
11.1934
11.7419
12.1266
12.4059
12.6619
12.9263
13.1572
13.2727
13.1836
13.0421
13.1968
13.5252
13.9333
14.3997
14.9037
15.4475
16.0495
16.6964
17.3249
17.8921
18.3121
18.4971
18.4494
18.4236
18.5498
18.7078
18.8249
18.8849
18.9049
18.9112
18.9177
18.9376
18.984
15.0835
12.1009
10.0394
9.78554
9.9059
10.2799
10.7258
11.2796
11.807
12.1826
12.4635
12.7251
12.9957
13.2138
13.2464
13.0302
12.8941
13.1121
13.4633
13.8939
14.3869
14.914
15.47
16.077
16.7255
17.3518
17.9196
18.3482
18.5523
18.5007
18.4255
18.5299
18.6545
18.7478
18.8051
18.8404
18.8697
18.8999
18.9377
18.9892
15.081
12.0489
10.0033
9.80797
9.95346
10.3475
10.8021
11.3479
11.8637
12.2407
12.5318
12.8016
13.069
13.2641
13.1779
12.8285
12.7767
13.0348
13.42
13.8743
14.3891
14.9382
15.5067
16.1154
16.7616
17.3822
17.9455
18.3792
18.6005
18.5524
18.4314
18.4912
18.5782
18.6552
18.7178
18.7725
18.8284
18.8857
18.9423
18.9995
15.0676
11.9787
9.96187
9.81433
9.98017
10.3911
10.858
11.4046
11.9149
12.2985
12.6038
12.883
13.1438
13.2859
13.049
12.615
12.6779
12.9739
13.3864
13.864
14.4028
14.9759
15.5599
16.1717
16.8133
17.4247
17.9777
18.4097
18.6409
18.5985
18.4343
18.4248
18.4775
18.5531
18.6285
18.7057
18.7885
18.8709
18.9441
19.0084
15.0431
11.8928
9.90492
9.80162
9.98178
10.4112
10.8985
11.4539
11.9601
12.3517
12.6733
12.957
13.2065
13.257
12.848
12.4389
12.5932
12.9232
13.3565
13.8575
14.4191
15.0172
15.6213
16.2445
16.8861
17.4893
18.0297
18.4527
18.6863
18.633
18.4072
18.3269
18.3638
18.4503
18.5434
18.644
18.7511
18.8542
18.9413
19.0115
15.0196
11.8017
9.81581
9.75398
9.95808
10.4166
10.9358
11.5063
12.0047
12.395
12.7225
13.0029
13.2384
13.1627
12.5908
12.3174
12.523
12.889
13.3373
13.8546
14.4315
15.0479
15.6735
16.316
16.9718
17.5791
18.1149
18.525
18.7478
18.6441
18.3271
18.2077
18.2526
18.3564
18.4691
18.5915
18.7165
18.8326
18.9306
19.0063
15.0059
11.7162
9.69224
9.67733
9.92137
10.4235
10.9842
11.5666
12.0473
12.4179
12.7374
13.0159
13.219
12.9911
12.3362
12.2436
12.4891
12.8737
13.3318
13.8596
14.4436
15.0689
15.7105
16.3703
17.0491
17.6846
18.2394
18.6453
18.8346
18.6185
18.1886
18.0804
18.1523
18.2775
18.4109
18.5512
18.6851
18.8058
18.9097
18.9923
14.9969
11.6407
9.55051
9.59158
9.88029
10.4439
11.0563
11.6374
12.0788
12.4262
12.7328
13.0068
13.1299
12.7539
12.1398
12.193
12.4706
12.8687
13.3392
13.8741
14.4576
15.0807
15.7295
16.4019
17.1026
17.793
18.3932
18.8162
18.9433
18.5523
18.0086
17.9602
18.072
18.2204
18.3738
18.5222
18.6558
18.7764
18.8845
18.9756
14.9892
11.5779
9.40727
9.50988
9.84783
10.4849
11.1503
11.7081
12.1011
12.4144
12.7147
12.97
12.981
12.496
12.0249
12.1585
12.462
12.8688
13.3496
13.8891
14.4708
15.0903
15.7466
16.4318
17.1519
17.893
18.5467
19.0076
19.0668
18.4479
17.8268
17.8588
18.0146
18.1862
18.3532
18.4998
18.6284
18.7483
18.8611
18.9601
14.9925
11.5359
9.29003
9.45045
9.83361
10.5427
11.2433
11.7666
12.1265
12.4067
12.6835
12.8958
12.8158
12.3009
11.9627
12.1387
12.4605
12.8749
13.3609
13.9007
14.4815
15.1034
15.7666
16.4586
17.19
17.9559
18.6693
19.1685
19.1797
18.3227
17.6935
17.7929
17.9817
18.1744
18.3443
18.4839
18.6068
18.7258
18.8422
18.9471
14.9893
11.5003
9.21489
9.41932
9.84319
10.5895
11.2954
11.8084
12.1419
12.3948
12.6292
12.7875
12.6897
12.2163
11.9422
12.1358
12.4671
12.8847
13.3709
13.9081
14.4864
15.1104
15.7845
16.4991
17.2481
18.0239
18.7518
19.2524
19.2184
18.2154
17.6138
17.7487
17.9601
18.1689
18.341
18.4741
18.5921
18.7097
18.8284
18.9372
18.6641
18.7781
18.897
19.0011
19.0704
19.1085
19.1319
19.1527
19.1699
19.1808
19.1691
19.0987
18.9441
18.6706
18.3698
18.2034
18.14
18.1161
18.1102
18.113
18.13
18.1623
18.2037
18.2456
18.278
18.2948
18.2974
18.2887
18.2769
18.2744
18.287
18.3084
18.3316
18.3529
18.3591
18.3577
18.3388
18.3059
18.27
18.2306
18.1865
18.1387
18.086
18.0377
18.0045
17.9908
17.9967
18.0143
18.0341
18.0575
18.0879
18.1243
18.1774
18.233
18.2663
18.2705
18.2452
18.1895
18.1324
18.087
18.0544
18.0317
18.0224
18.0353
18.0741
18.1395
18.2163
18.2666
18.2847
18.2752
18.2476
18.2177
18.197
18.1916
18.1964
18.2009
18.2011
18.2001
18.2012
18.2053
18.6841
18.7956
18.9067
19.0032
19.0714
19.1125
19.1382
19.1576
19.1674
19.1608
19.1303
19.0413
18.8839
18.6258
18.3565
18.2117
18.16
18.1428
18.1384
18.1433
18.1613
18.1928
18.2318
18.2706
18.3004
18.3143
18.314
18.3039
18.2917
18.2892
18.3012
18.3202
18.3365
18.3493
18.35
18.3435
18.323
18.2871
18.2471
18.2056
18.1634
18.1199
18.0743
18.0362
18.0127
18.0047
18.0107
18.0252
18.0416
18.0611
18.087
18.1195
18.1638
18.2155
18.2468
18.2486
18.2231
18.1791
18.1302
18.0901
18.0616
18.0453
18.0444
18.0639
18.1092
18.1661
18.2196
18.2589
18.2694
18.2591
18.2418
18.2198
18.2037
18.1987
18.1958
18.1953
18.195
18.1947
18.1967
18.2008
18.6676
18.774
18.8894
18.9952
19.0682
19.1119
19.1375
19.1534
19.1593
19.1513
19.1151
19.03
18.8755
18.6221
18.3692
18.2408
18.1923
18.1702
18.1597
18.1626
18.18
18.2114
18.2486
18.2848
18.312
18.3236
18.3219
18.312
18.3021
18.3011
18.31
18.3222
18.3292
18.3363
18.3351
18.3258
18.3015
18.2663
18.2295
18.1908
18.1517
18.1101
18.072
18.042
18.0263
18.0203
18.0229
18.0327
18.046
18.0618
18.0819
18.1038
18.1303
18.1741
18.2088
18.218
18.2056
18.1815
18.1427
18.1038
18.0789
18.0713
18.0804
18.1057
18.1421
18.1781
18.2082
18.2338
18.2465
18.2472
18.2394
18.2281
18.2151
18.2014
18.1916
18.1869
18.1865
18.1873
18.1886
18.1914
18.65
18.7561
18.8719
18.9804
19.0628
19.1093
19.1328
19.1454
19.1451
19.1301
19.0865
19.0032
18.8599
18.6409
18.4176
18.2897
18.2369
18.2039
18.1867
18.1878
18.2049
18.2366
18.2731
18.3059
18.3282
18.3361
18.3342
18.3271
18.32
18.3181
18.3195
18.3222
18.317
18.3165
18.3111
18.2977
18.2753
18.2429
18.2066
18.1698
18.1352
18.1051
18.0784
18.0567
18.0418
18.0365
18.0358
18.0415
18.0512
18.063
18.0733
18.0817
18.0917
18.1181
18.156
18.1796
18.1853
18.1781
18.1578
18.1264
18.1104
18.1124
18.1286
18.1558
18.1779
18.1906
18.1953
18.2023
18.2181
18.2314
18.238
18.2349
18.2221
18.2027
18.185
18.1746
18.1717
18.1709
18.1688
18.1694
18.6292
18.7355
18.852
18.9638
19.0512
19.1014
19.1197
19.1266
19.1216
19.0999
19.0569
18.9767
18.8559
18.6917
18.5106
18.3718
18.2937
18.2452
18.2189
18.2158
18.2314
18.2618
18.2957
18.324
18.3419
18.3485
18.3464
18.3407
18.336
18.334
18.3283
18.3155
18.2996
18.2935
18.2891
18.2777
18.2534
18.2173
18.1804
18.15
18.1258
18.1093
18.0935
18.0769
18.0627
18.0525
18.0477
18.0498
18.0557
18.0648
18.0694
18.0686
18.0629
18.063
18.0894
18.132
18.1627
18.1743
18.1715
18.1607
18.1546
18.1617
18.1809
18.2
18.1994
18.1895
18.1779
18.1762
18.1903
18.2179
18.2321
18.2303
18.2171
18.1974
18.1774
18.162
18.152
18.145
18.1393
18.1381
18.6116
18.7211
18.8368
18.9485
19.037
19.0869
19.0994
19.0993
19.0859
19.0557
19.0124
18.9412
18.8524
18.7438
18.6153
18.4803
18.3692
18.2975
18.2596
18.2491
18.2605
18.2858
18.3148
18.3375
18.3502
18.3549
18.355
18.3536
18.352
18.3474
18.3309
18.309
18.285
18.2732
18.262
18.2473
18.2218
18.1873
18.1567
18.1378
18.1251
18.1154
18.1092
18.0995
18.0823
18.0682
18.0622
18.0613
18.0634
18.0684
18.0647
18.0517
18.0301
18.0176
18.0285
18.0764
18.1342
18.1714
18.19
18.2057
18.2114
18.2172
18.2257
18.225
18.2096
18.1887
18.1713
18.1664
18.172
18.1951
18.2144
18.2132
18.2022
18.1838
18.164
18.1473
18.1303
18.1167
18.1067
18.1031
18.5988
18.7125
18.8259
18.9343
19.0195
19.0638
19.0697
19.0618
19.041
19.0072
18.9644
18.9091
18.8488
18.7783
18.689
18.5765
18.4592
18.3645
18.3103
18.2898
18.2918
18.3067
18.3267
18.3399
18.3462
18.35
18.3533
18.3563
18.3577
18.3525
18.3332
18.3035
18.2761
18.2515
18.2296
18.2108
18.1905
18.1631
18.1429
18.1287
18.1202
18.119
18.1219
18.1209
18.1068
18.087
18.0757
18.0727
18.0712
18.0705
18.0613
18.0393
18.0074
17.987
17.9873
18.023
18.0979
18.164
18.2105
18.2493
18.2677
18.2655
18.2547
18.2335
18.2112
18.1939
18.1786
18.1629
18.1616
18.1673
18.1817
18.1898
18.1823
18.169
18.1489
18.1269
18.1068
18.0936
18.0852
18.0823
18.5884
18.7067
18.8182
18.9201
18.9986
19.0332
19.0333
19.0186
18.9918
18.9571
18.9198
18.8819
18.8426
18.7938
18.7246
18.6351
18.5372
18.4442
18.3763
18.3396
18.3259
18.3263
18.3285
18.3295
18.3306
18.336
18.3456
18.3547
18.3597
18.3564
18.3361
18.3035
18.2719
18.2422
18.21
18.182
18.1666
18.1473
18.1295
18.1161
18.112
18.1187
18.1306
18.1372
18.1302
18.1109
18.0943
18.0878
18.0808
18.0742
18.0583
18.032
17.9985
17.9743
17.969
17.9895
18.0578
18.1565
18.2359
18.2876
18.3098
18.2999
18.2719
18.2371
18.2118
18.1981
18.1829
18.1706
18.1575
18.1471
18.145
18.157
18.1609
18.1513
18.1354
18.1146
18.0958
18.0848
18.0782
18.0766
18.5778
18.7001
18.8092
18.9025
18.9721
18.997
18.9939
18.9754
18.9463
18.9136
18.8842
18.8587
18.8313
18.7932
18.7361
18.6632
18.588
18.5161
18.4522
18.402
18.3649
18.3404
18.3216
18.3107
18.3089
18.3182
18.336
18.352
18.3592
18.3582
18.3427
18.3106
18.2753
18.2404
18.2006
18.1651
18.1459
18.127
18.112
18.1049
18.1071
18.1186
18.1352
18.1478
18.1475
18.1364
18.118
18.106
18.0948
18.0789
18.0574
18.0322
18.0055
17.9813
17.9718
17.9855
18.0322
18.1416
18.2499
18.3066
18.3282
18.3181
18.2817
18.2366
18.2114
18.2
18.1918
18.179
18.161
18.1421
18.1283
18.1265
18.1352
18.1372
18.1261
18.1115
18.0995
18.091
18.0856
18.085
18.5638
18.6873
18.7934
18.8792
18.9402
18.9594
18.955
18.9354
18.9079
18.8814
18.8599
18.8399
18.8153
18.7806
18.7299
18.6714
18.6172
18.5674
18.5182
18.4662
18.4099
18.3564
18.3179
18.2959
18.2901
18.2978
18.3166
18.34
18.3592
18.364
18.3526
18.325
18.2849
18.2419
18.1979
18.1539
18.1203
18.0991
18.0926
18.0939
18.1024
18.1193
18.1381
18.1534
18.1603
18.1578
18.1455
18.1292
18.1115
18.0862
18.0609
18.0394
18.0219
18.0044
17.9926
18.0008
18.0352
18.1206
18.2352
18.302
18.3212
18.315
18.283
18.2374
18.212
18.2012
18.1936
18.182
18.1655
18.147
18.1315
18.1203
18.1209
18.1268
18.1285
18.1228
18.114
18.1064
18.1019
18.1026
18.542
18.665
18.7691
18.8512
18.9061
18.9236
18.9194
18.9014
18.8789
18.8587
18.8406
18.8201
18.7931
18.757
18.7104
18.6651
18.6308
18.5988
18.5629
18.5159
18.4536
18.3823
18.3237
18.2898
18.2783
18.2846
18.3035
18.334
18.3619
18.3718
18.3623
18.3388
18.2975
18.2426
18.1882
18.1323
18.0902
18.0702
18.0709
18.0841
18.1027
18.1207
18.1394
18.1571
18.169
18.1749
18.1724
18.1556
18.1298
18.0984
18.0717
18.055
18.045
18.0384
18.0303
18.0325
18.0566
18.102
18.1895
18.2662
18.2945
18.2975
18.2799
18.2413
18.2142
18.198
18.1884
18.1795
18.1674
18.1524
18.139
18.1282
18.1232
18.128
18.1391
18.1474
18.1472
18.1425
18.1353
18.1328
18.5125
18.6334
18.7372
18.8195
18.8719
18.8894
18.8869
18.8744
18.8584
18.8428
18.8261
18.8021
18.7685
18.7304
18.6866
18.6537
18.6336
18.6127
18.5865
18.5454
18.4854
18.4136
18.3408
18.2952
18.2781
18.2771
18.293
18.3291
18.3656
18.3781
18.3689
18.3494
18.3057
18.2387
18.1696
18.1054
18.0638
18.0476
18.055
18.0776
18.0998
18.1179
18.1371
18.1568
18.1764
18.1903
18.195
18.183
18.1504
18.1151
18.0886
18.0764
18.073
18.0733
18.0795
18.0801
18.0848
18.0935
18.1255
18.1969
18.2512
18.2678
18.2701
18.249
18.2157
18.1907
18.1789
18.1724
18.1666
18.1581
18.1466
18.1377
18.1343
18.1404
18.1551
18.17
18.1749
18.172
18.164
18.1576
18.4799
18.5967
18.7
18.782
18.8336
18.8541
18.8565
18.8521
18.8433
18.8316
18.8127
18.7806
18.7394
18.7007
18.6649
18.6447
18.6309
18.6142
18.5923
18.5566
18.5037
18.4434
18.372
18.3133
18.2877
18.2845
18.3003
18.3349
18.3704
18.383
18.3744
18.3529
18.305
18.221
18.1373
18.0779
18.0441
18.0343
18.0463
18.0721
18.0942
18.1123
18.1307
18.1536
18.1806
18.2025
18.2113
18.2054
18.1753
18.1368
18.1121
18.1029
18.1078
18.1234
18.1356
18.1309
18.1136
18.0928
18.0797
18.105
18.1792
18.231
18.2525
18.2489
18.216
18.181
18.1646
18.1607
18.162
18.1628
18.1583
18.1507
18.1475
18.1532
18.1632
18.1754
18.1823
18.1837
18.1805
18.1746
18.4522
18.561
18.6585
18.7345
18.7858
18.8142
18.827
18.8309
18.8275
18.8189
18.7969
18.7589
18.714
18.6739
18.6478
18.6381
18.627
18.6118
18.5895
18.5572
18.5145
18.4709
18.4164
18.3585
18.3236
18.3145
18.3245
18.347
18.3718
18.3829
18.3718
18.3404
18.2745
18.1851
18.1064
18.0558
18.0307
18.029
18.0472
18.0712
18.0895
18.1042
18.1216
18.1474
18.1798
18.2081
18.2215
18.2222
18.2019
18.1646
18.1454
18.1416
18.161
18.1827
18.1896
18.1727
18.1401
18.0876
18.0475
18.0344
18.0831
18.1671
18.2189
18.2327
18.2132
18.1786
18.1594
18.155
18.1576
18.1628
18.1657
18.1638
18.1639
18.1655
18.1676
18.1701
18.1761
18.1823
18.1865
18.1845
18.4387
18.5306
18.6126
18.6775
18.7293
18.7682
18.7948
18.8085
18.8103
18.8057
18.7818
18.7397
18.6937
18.6573
18.641
18.6359
18.6266
18.6114
18.5881
18.5589
18.5263
18.4987
18.4656
18.4241
18.3878
18.3623
18.3513
18.3588
18.3694
18.3681
18.3485
18.3049
18.2355
18.1548
18.0872
18.0435
18.0273
18.0343
18.0545
18.0706
18.0842
18.0951
18.1116
18.1384
18.1732
18.2051
18.2239
18.2288
18.2219
18.2011
18.1876
18.1956
18.2156
18.2273
18.2239
18.1986
18.1538
18.0868
18.0277
18.0012
18.0063
18.0742
18.1656
18.2017
18.2074
18.1816
18.1542
18.1459
18.1511
18.1608
18.1711
18.175
18.173
18.1706
18.1685
18.169
18.1724
18.1812
18.1909
18.1923
18.4416
18.5075
18.5658
18.6176
18.6696
18.7187
18.7592
18.783
18.7904
18.787
18.7633
18.7209
18.6788
18.6513
18.6429
18.6395
18.6329
18.6162
18.5938
18.568
18.544
18.5289
18.5126
18.4919
18.4626
18.4226
18.3854
18.3698
18.3593
18.3421
18.3096
18.2601
18.2006
18.135
18.0811
18.0479
18.0389
18.0489
18.0613
18.0731
18.0806
18.0904
18.1064
18.1288
18.1589
18.1918
18.2166
18.2291
18.2372
18.237
18.2385
18.2473
18.2542
18.2507
18.2391
18.2061
18.1521
18.0894
18.0256
17.99
17.9815
18.0038
18.0978
18.1694
18.1985
18.1908
18.1631
18.147
18.1482
18.1595
18.1751
18.1837
18.1802
18.1723
18.1674
18.1687
18.1762
18.188
18.1978
18.2
18.4601
18.4916
18.5255
18.564
18.6138
18.6701
18.7216
18.7538
18.7658
18.7624
18.7395
18.7021
18.6703
18.6542
18.6507
18.6524
18.6442
18.6278
18.6067
18.5836
18.5662
18.56
18.5535
18.5464
18.526
18.4809
18.4225
18.3779
18.3426
18.3067
18.2656
18.219
18.1723
18.1291
18.0908
18.0681
18.0611
18.0621
18.066
18.0695
18.0758
18.0873
18.1034
18.1213
18.1427
18.169
18.2007
18.2276
18.2492
18.2745
18.285
18.286
18.276
18.257
18.2318
18.1954
18.1462
18.0915
18.0364
17.9944
17.9772
17.9825
18.031
18.1242
18.1796
18.1994
18.1826
18.1576
18.1511
18.1609
18.1762
18.1873
18.1885
18.1822
18.179
18.1844
18.1956
18.2059
18.2097
18.2094
18.5015
18.4947
18.5017
18.5249
18.5685
18.6275
18.685
18.7215
18.7352
18.7314
18.7106
18.6832
18.6648
18.6594
18.6626
18.6671
18.6603
18.6435
18.6213
18.6014
18.5877
18.5851
18.5836
18.5813
18.567
18.5249
18.4557
18.3834
18.3225
18.2699
18.2217
18.1794
18.1499
18.1316
18.116
18.0999
18.0848
18.0725
18.0659
18.0659
18.0736
18.0881
18.1035
18.1151
18.127
18.1458
18.1787
18.2216
18.2655
18.3017
18.3156
18.3099
18.2852
18.2502
18.2104
18.1694
18.1329
18.0957
18.0543
18.0151
17.9856
17.9782
17.9942
18.0625
18.149
18.1938
18.2013
18.1798
18.1621
18.1627
18.174
18.1861
18.1955
18.2012
18.2068
18.2147
18.2235
18.2261
18.2194
18.2146
18.5778
18.5173
18.4975
18.5059
18.5395
18.5946
18.6519
18.6874
18.6995
18.6951
18.6793
18.6647
18.6585
18.6625
18.6738
18.6802
18.6764
18.6589
18.6357
18.6161
18.6035
18.6013
18.6014
18.5991
18.5862
18.5495
18.4796
18.3899
18.3046
18.2372
18.1875
18.1579
18.1473
18.1476
18.1493
18.1359
18.111
18.0848
18.0688
18.0673
18.0764
18.0923
18.1055
18.1118
18.1173
18.1326
18.1621
18.2142
18.2737
18.3131
18.328
18.317
18.282
18.2296
18.178
18.1358
18.1129
18.0936
18.0738
18.047
18.0104
17.9837
17.9801
18.0085
18.0929
18.1703
18.2068
18.2047
18.1815
18.1675
18.171
18.184
18.2018
18.2228
18.2395
18.2469
18.2446
18.237
18.2261
18.2206
18.7217
18.5946
18.5252
18.5137
18.5296
18.573
18.6236
18.6527
18.6607
18.6565
18.6485
18.6453
18.6495
18.6619
18.6785
18.6885
18.6845
18.6657
18.6445
18.6291
18.6162
18.6094
18.6094
18.6012
18.5861
18.5532
18.4879
18.3955
18.2984
18.2213
18.1706
18.1508
18.1613
18.1824
18.186
18.1737
18.1412
18.1048
18.0808
18.0763
18.086
18.1012
18.1125
18.1166
18.1199
18.1322
18.1572
18.2066
18.2684
18.3063
18.3198
18.3048
18.2587
18.1965
18.1429
18.1038
18.0923
18.0906
18.0885
18.0723
18.0401
17.993
17.9713
17.9801
18.0292
18.1239
18.1907
18.2161
18.2051
18.1819
18.174
18.1865
18.2105
18.24
18.2606
18.2652
18.2568
18.2468
18.2376
18.2341
18.8749
18.7515
18.6091
18.5457
18.5436
18.5655
18.5996
18.6183
18.6211
18.6182
18.6177
18.6241
18.6386
18.6578
18.6777
18.6895
18.6825
18.6629
18.6479
18.636
18.6245
18.6117
18.6044
18.5931
18.5733
18.5396
18.4812
18.3973
18.3005
18.2183
18.1729
18.1688
18.1981
18.2212
18.2226
18.2081
18.1742
18.1334
18.105
18.0946
18.1009
18.1125
18.1223
18.1286
18.1338
18.144
18.1649
18.205
18.253
18.2842
18.2921
18.2736
18.2259
18.1608
18.1133
18.0893
18.0849
18.0861
18.0895
18.0863
18.0652
18.017
17.9759
17.9661
17.9897
18.0604
18.1538
18.2074
18.2201
18.2073
18.1924
18.1975
18.22
18.2474
18.2632
18.2658
18.2613
18.2575
18.2547
18.2554
18.9935
18.9187
18.7724
18.6245
18.5757
18.5724
18.5796
18.585
18.5821
18.5795
18.5853
18.6009
18.6217
18.6463
18.6699
18.6791
18.6704
18.6528
18.6459
18.6379
18.6262
18.6066
18.5929
18.5769
18.5516
18.5164
18.4662
18.3958
18.3073
18.229
18.2033
18.2146
18.2352
18.2485
18.2498
18.2347
18.2074
18.1713
18.1399
18.1217
18.1192
18.1247
18.1343
18.1468
18.1578
18.1659
18.1832
18.2057
18.23
18.2505
18.2528
18.2292
18.1878
18.1363
18.0999
18.0851
18.0816
18.0771
18.0781
18.0779
18.0646
18.0377
17.9961
17.9721
17.9749
18.0111
18.0967
18.1795
18.2242
18.2332
18.2257
18.2196
18.2276
18.2383
18.2475
18.2514
18.2559
18.2639
18.2725
18.2794
19.0738
19.0512
18.9532
18.7884
18.634
18.5841
18.5663
18.554
18.5443
18.5421
18.5512
18.5722
18.5967
18.6239
18.6499
18.6591
18.6467
18.6346
18.6339
18.6295
18.619
18.5965
18.5767
18.5562
18.5263
18.4917
18.4479
18.3919
18.3188
18.2652
18.2562
18.252
18.2507
18.2589
18.2598
18.2501
18.2329
18.2049
18.1717
18.1458
18.1327
18.1323
18.1418
18.1593
18.1778
18.1944
18.2043
18.2068
18.2052
18.209
18.2059
18.1865
18.159
18.1291
18.102
18.0881
18.0812
18.0734
18.0601
18.0537
18.0502
18.0426
18.0257
17.9939
17.982
17.993
18.0415
18.1381
18.2088
18.2488
18.2634
18.2505
18.2319
18.2217
18.222
18.2313
18.2469
18.267
18.2855
18.2987
19.1149
19.1405
19.1001
18.979
18.7712
18.6041
18.5542
18.5269
18.5113
18.507
18.5161
18.538
18.5658
18.5964
18.6229
18.629
18.6157
18.6098
18.6098
18.6074
18.5995
18.5798
18.5606
18.5417
18.5105
18.4761
18.4353
18.3935
18.345
18.3141
18.2969
18.2706
18.2531
18.2471
18.2503
18.2516
18.2472
18.2334
18.2033
18.1712
18.1492
18.1447
18.1591
18.182
18.2117
18.2287
18.2277
18.2117
18.1866
18.1716
18.1643
18.1538
18.1437
18.1361
18.1176
18.0966
18.0778
18.0594
18.0382
18.0316
18.0367
18.0434
18.044
18.0287
18.0038
17.9993
18.0201
18.089
18.1898
18.2492
18.2753
18.2715
18.2403
18.2138
18.2082
18.2207
18.2438
18.2702
18.2917
18.3091
19.125
19.2003
19.2038
19.1292
18.9448
18.6862
18.5477
18.5046
18.485
18.4758
18.4808
18.5
18.5295
18.5637
18.5893
18.5953
18.5862
18.5824
18.5819
18.5803
18.5777
18.565
18.5483
18.5318
18.5029
18.4728
18.4324
18.4075
18.3786
18.351
18.3138
18.2737
18.2389
18.2211
18.2252
18.239
18.2478
18.2457
18.223
18.1881
18.1619
18.1566
18.1751
18.2072
18.2421
18.2583
18.2488
18.2195
18.1781
18.1447
18.134
18.1356
18.1446
18.1513
18.1424
18.116
18.081
18.0488
18.0268
18.0192
18.0243
18.0376
18.0521
18.0558
18.04
18.0251
18.0313
18.0632
18.1476
18.232
18.2638
18.2663
18.2479
18.2256
18.218
18.2277
18.2485
18.2716
18.289
18.3068
19.1185
19.2303
19.2705
19.2333
19.0952
18.8227
18.5653
18.4925
18.4657
18.4497
18.4461
18.46
18.4911
18.5303
18.5585
18.5659
18.5648
18.561
18.559
18.5588
18.5618
18.5532
18.5418
18.5299
18.5068
18.4812
18.4453
18.4284
18.4036
18.3657
18.3125
18.2625
18.2157
18.1895
18.19
18.2078
18.2283
18.2346
18.2239
18.1944
18.1685
18.1641
18.1849
18.2215
18.259
18.2748
18.2627
18.2283
18.179
18.1351
18.1194
18.1279
18.1522
18.17
18.1704
18.1466
18.0988
18.0536
18.0267
18.0169
18.0194
18.0318
18.0524
18.0686
18.0745
18.0682
18.0632
18.0697
18.1006
18.1773
18.2311
18.2508
18.2578
18.2513
18.2481
18.251
18.2599
18.2701
18.2792
18.2963
19.1069
19.2344
19.3102
19.3003
19.2015
18.9657
18.6332
18.4913
18.4522
18.4276
18.4138
18.4225
18.4578
18.503
18.5354
18.546