/*--------------------------------*- C++ -*----------------------------------*\
| =========                 |                                                 |
| \\      /  F ield         | OpenFOAM: The Open Source CFD Toolbox           |
|  \\    /   O peration     | Version:  v1912                                 |
|   \\  /    A nd           | Website:  www.openfoam.com                      |
|    \\/     M anipulation  |                                                 |
\*---------------------------------------------------------------------------*/
FoamFile
{
    version     2.0;
    format      ascii;
    class       volVectorField;
    location    "6.88";
    object      grad(p);
}
// * * * * * * * * * * * * * * * * * * * * * * * * * * * * * * * * * * * * * //

dimensions      [1 -2 -2 0 0 0 0];


internalField   nonuniform List<vector> 
1900
(
(80923.8 0.125199 0)
(-91520.4 0.031784 0)
(-3915.48 0.243057 0)
(128.03 0.325333 0)
(49.1625 0.743513 0)
(6.71754 0.716387 0)
(-77.4941 3.16857 0)
(-153.858 -8.73184 0)
(-181.254 34.4564 0)
(680.724 -20.0981 0)
(80924 0.281669 0)
(-91520.3 0.0951248 0)
(-3915.18 0.406903 0)
(128.53 0.601949 0)
(49.5536 1.25851 0)
(9.1426 0.994973 0)
(-86.9423 1.96023 0)
(-122.57 -18.3219 0)
(-192.62 -7.31602 0)
(-232.603 -73.4539 0)
(80924.2 3.76588e-09 0)
(-91520.3 -1.0818e-08 0)
(-3914.97 1.52767e-09 0)
(128.881 2.32703e-09 0)
(49.5555 2.71783e-09 0)
(7.41926 1.74083e-09 0)
(-96.811 -5.15143e-10 0)
(-163.134 3.19744e-10 0)
(-236.385 -4.79616e-10 0)
(-364.017 -1.10134e-09 0)
(80924 -0.281669 0)
(-91520.3 -0.0951249 0)
(-3915.18 -0.406903 0)
(128.53 -0.601949 0)
(49.5536 -1.25851 0)
(9.1426 -0.994973 0)
(-86.9423 -1.96023 0)
(-122.57 18.3219 0)
(-192.62 7.31602 0)
(-232.603 73.4539 0)
(80923.8 -0.125199 0)
(-91520.4 -0.031784 0)
(-3915.48 -0.243057 0)
(128.03 -0.325333 0)
(49.1625 -0.743513 0)
(6.71754 -0.716387 0)
(-77.4941 -3.16857 0)
(-153.858 8.73184 0)
(-181.254 -34.4564 0)
(680.724 20.0981 0)
(-150.302 -760.487 8.55196e-12)
(-1692.07 -573.674 -1.00275e-11)
(-1600.85 -669.618 -1.261e-11)
(614.212 -917.836 0)
(-18715.8 -7858.79 -5.48108e-11)
(-621.11 -921.551 8.41454e-12)
(-1152.83 -694.346 1.00275e-11)
(-1527 -781.756 1.261e-11)
(-2068.2 -660.294 0)
(-17873.5 -7263.73 0)
(-941.615 -1.20676e-09 0)
(-1227.65 4.46037e-09 0)
(-1460.92 8.01828e-09 0)
(-2054.33 1.20106e-08 0)
(-20609.9 1.91381e-08 0)
(-621.11 921.551 8.41454e-12)
(-1152.83 694.346 1.00275e-11)
(-1527 781.756 1.261e-11)
(-2068.2 660.294 0)
(-17873.5 7263.73 0)
(-150.302 760.487 -2.5381e-11)
(-1692.07 573.674 -1.00275e-11)
(-1600.85 669.618 -1.261e-11)
(614.212 917.836 -3.38609e-11)
(-18715.8 7858.79 5.48108e-11)
(-37218.4 10556 1.00931e-11)
(-11123.1 4138.85 -4.92687e-12)
(-4938.92 1882.31 0)
(-3233.62 1297.21 2.07473e-12)
(-1616.59 922.855 -6.9212e-13)
(-33283.4 13068.5 -5.20553e-12)
(-13051.5 3366.34 2.52576e-12)
(-5643.59 1065.97 0)
(-3481.41 782.161 -1.32701e-12)
(-2248.48 396.679 1.82965e-13)
(-34362.6 3.47646e-09 0)
(-14190.7 1.34745e-09 0)
(-5753.02 -1.70234e-09 0)
(-3533.5 3.59915e-09 5.40228e-13)
(-2255.17 1.42836e-09 -3.6593e-13)
(-33283.4 -13068.5 -5.20553e-12)
(-13051.5 -3366.34 2.52576e-12)
(-5643.59 -1065.97 0)
(-3481.41 -782.161 -1.32701e-12)
(-2248.48 -396.679 1.82965e-13)
(-37218.4 -10556 5.20553e-12)
(-11123.1 -4138.85 -1.24649e-13)
(-4938.92 -1882.31 0)
(-3233.62 -1297.21 3.90677e-14)
(-1616.59 -922.855 6.9212e-13)
(-428.19 -1235.48 0)
(-566.947 -848.135 0)
(-750.106 -666.435 0)
(-428.526 -361.56 0)
(685.574 -398.978 0)
(2779.16 -264.261 0)
(2427.61 563.838 0)
(266.865 512.277 0)
(-193.622 366.063 0)
(-393.647 192.673 0)
(-725.36 191.866 0)
(-936.499 236.42 0)
(-1012.9 182.622 0)
(-1138.34 119.732 0)
(-1189.35 81.9632 0)
(-890.924 42.3943 0)
(-444.126 12.0149 0)
(-205.578 2.28036 0)
(-141.922 1.53831 0)
(-123.359 3.22005 0)
(-104.229 1.49087 0)
(-74.4964 -0.276574 0)
(-43.2536 -1.02039 0)
(-21.1244 -1.09606 0)
(-9.32585 -0.970475 0)
(-3.89864 -0.845187 0)
(-0.0774482 -0.775296 0)
(3.84656 -0.713203 0)
(7.94893 -0.665721 0)
(12.5174 -0.602188 0)
(21.4119 -0.580989 0)
(30.9194 -0.239941 0)
(40.8402 -0.262841 0)
(73.2756 0.146268 0)
(203.25 -0.572026 0)
(709.689 -1.97934 0)
(1198.23 -2.20144 0)
(1170.45 9.94571 0)
(566.764 5.06385 0)
(673.133 -0.63902 0)
(-886.306 -797.767 0)
(-465.417 -475.316 0)
(-653.141 -227.675 0)
(-394.696 -123.702 0)
(717.949 -194.267 0)
(2844.87 -97.5364 0)
(2397.63 192.236 0)
(217.752 -4.50548 0)
(-200.527 -14.6427 0)
(-382.185 -3.00214 0)
(-667.816 80.4819 0)
(-906.518 100.388 0)
(-1031.55 69.0448 0)
(-1161.6 50.4197 0)
(-1204.38 40.8661 0)
(-899.461 20.0304 0)
(-447.501 5.13225 0)
(-206.43 0.964688 0)
(-141.792 0.501203 0)
(-123.335 1.47158 0)
(-104.583 0.599888 0)
(-74.7136 -0.165152 0)
(-43.3145 -0.453248 0)
(-21.1166 -0.466643 0)
(-9.30287 -0.40945 0)
(-3.88101 -0.358311 0)
(-0.0658941 -0.33378 0)
(3.8557 -0.314482 0)
(7.95846 -0.300541 0)
(12.5229 -0.280388 0)
(21.4441 -0.284391 0)
(30.9424 -0.143126 0)
(40.8654 -0.177987 0)
(73.2571 -0.0463237 0)
(202.974 -0.207427 0)
(709.393 -1.45307 0)
(1199.37 -1.59175 0)
(1171.09 4.04131 0)
(565.66 1.74378 0)
(673.09 0.747725 0)
(-750.323 -3.56079e-09 0)
(-401.102 -3.87367e-08 0)
(-647.819 -2.81916e-08 0)
(-418.807 2.89264e-09 0)
(693.186 9.02712e-09 0)
(2891.59 1.14785e-07 0)
(2454.67 5.80788e-08 0)
(206.682 5.71947e-08 0)
(-193.184 8.5572e-08 0)
(-365.975 -2.93099e-09 0)
(-695.283 -1.199e-07 0)
(-939.827 -8.40015e-08 0)
(-1027.44 -3.58743e-08 0)
(-1146.53 -5.17566e-09 0)
(-1198.19 -1.89646e-08 0)
(-901.319 -3.4427e-08 0)
(-449.673 -1.50405e-08 0)
(-206.925 8.8293e-09 0)
(-141.774 -7.87249e-10 0)
(-123.33 -5.03839e-09 0)
(-104.705 -5.85794e-09 0)
(-74.8027 -2.56966e-09 0)
(-43.3413 1.81673e-11 0)
(-21.1116 -2.77556e-10 0)
(-9.29433 -5.40981e-10 0)
(-3.87663 -3.58299e-10 0)
(-0.064698 6.21725e-10 0)
(3.85623 1.61992e-09 0)
(7.95884 9.17448e-10 0)
(12.5221 -4.37024e-10 0)
(21.4518 -3.54868e-09 0)
(30.9503 -4.22389e-09 0)
(40.8684 -2.66454e-10 0)
(73.267 -6.52407e-09 0)
(202.841 -8.40742e-09 0)
(709.286 1.9332e-08 0)
(1199.83 9.59233e-09 0)
(1171.42 -2.28585e-08 0)
(565.806 1.29351e-08 0)
(672.408 6.15265e-08 0)
(-886.306 797.767 0)
(-465.417 475.316 0)
(-653.141 227.675 0)
(-394.696 123.702 0)
(717.949 194.267 0)
(2844.87 97.5364 0)
(2397.63 -192.236 0)
(217.752 4.50548 0)
(-200.527 14.6427 0)
(-382.185 3.00214 0)
(-667.816 -80.4819 0)
(-906.518 -100.388 0)
(-1031.55 -69.0448 0)
(-1161.6 -50.4197 0)
(-1204.38 -40.8661 0)
(-899.461 -20.0304 0)
(-447.501 -5.13225 0)
(-206.43 -0.964688 0)
(-141.792 -0.501203 0)
(-123.335 -1.47158 0)
(-104.583 -0.599888 0)
(-74.7136 0.165152 0)
(-43.3145 0.453248 0)
(-21.1166 0.466643 0)
(-9.30287 0.40945 0)
(-3.88101 0.358311 0)
(-0.0658941 0.33378 0)
(3.8557 0.314482 0)
(7.95846 0.300541 0)
(12.5229 0.280388 0)
(21.4441 0.284391 0)
(30.9424 0.143126 0)
(40.8654 0.177987 0)
(73.2571 0.0463237 0)
(202.974 0.207427 0)
(709.393 1.45307 0)
(1199.37 1.59175 0)
(1171.09 -4.04131 0)
(565.66 -1.74378 0)
(673.09 -0.747725 0)
(-428.19 1235.48 0)
(-566.947 848.135 0)
(-750.106 666.435 0)
(-428.526 361.56 0)
(685.574 398.978 0)
(2779.16 264.261 0)
(2427.61 -563.838 0)
(266.865 -512.277 0)
(-193.622 -366.063 0)
(-393.647 -192.673 0)
(-725.36 -191.866 0)
(-936.499 -236.42 0)
(-1012.9 -182.622 0)
(-1138.34 -119.732 0)
(-1189.35 -81.9632 0)
(-890.924 -42.3943 0)
(-444.126 -12.0149 0)
(-205.578 -2.28036 0)
(-141.922 -1.53831 0)
(-123.359 -3.22005 0)
(-104.229 -1.49087 0)
(-74.4964 0.276574 0)
(-43.2536 1.02039 0)
(-21.1244 1.09606 0)
(-9.32585 0.970475 0)
(-3.89864 0.845187 0)
(-0.0774482 0.775296 0)
(3.84656 0.713203 0)
(7.94893 0.665721 0)
(12.5174 0.602188 0)
(21.4119 0.580989 0)
(30.9194 0.239941 0)
(40.8402 0.262841 0)
(73.2756 -0.146268 0)
(203.25 0.572026 0)
(709.689 1.97934 0)
(1198.23 2.20144 0)
(1170.45 -9.94571 0)
(566.764 -5.06385 0)
(673.133 0.63902 0)
(-756.455 654.714 0)
(-704.967 426.843 0)
(-846.24 385.515 0)
(-523.35 602.331 0)
(694.351 798.453 0)
(2316.91 698.783 0)
(1875.87 -773.043 0)
(285.022 -898.932 0)
(-8.03303 -617.761 0)
(-259.663 -514.936 0)
(-628.722 -456.848 0)
(-866.053 -339.809 0)
(-979.913 -239.058 0)
(-1125.36 -179.912 0)
(-1173.26 -142.475 0)
(-865.455 -79.9509 0)
(-426.24 -22.3323 0)
(-200.843 -4.54618 0)
(-142.232 -3.59931 0)
(-123.277 -5.06299 0)
(-102.798 -2.77323 0)
(-73.3894 0.157548 0)
(-42.8708 1.67449 0)
(-21.1389 1.93265 0)
(-9.43367 1.73039 0)
(-3.98305 1.50349 0)
(-0.135325 1.37428 0)
(3.79753 1.26582 0)
(7.89984 1.17478 0)
(12.476 1.07821 0)
(21.2541 1.00579 0)
(30.7694 0.491157 0)
(40.6523 0.318421 0)
(73.4297 -0.310669 0)
(203.987 0.856039 0)
(710.072 2.58402 0)
(1193.2 2.89058 0)
(1167.27 -12.7794 0)
(571.023 -9.6007 0)
(675.816 -2.82895 0)
(-816.346 19.5619 0)
(-752.346 41.5314 0)
(-529.45 228.201 0)
(20.2432 865.437 0)
(773.812 1063.65 0)
(1512.68 772.454 0)
(1183.85 -531.284 0)
(406.765 -549.879 0)
(76.8918 -533.909 0)
(-310.433 -628.987 0)
(-608.421 -610.152 0)
(-764.405 -482.036 0)
(-876.51 -356.846 0)
(-1052.22 -286.045 0)
(-1101.65 -228.359 0)
(-788.808 -117.933 0)
(-381.055 -30.7889 0)
(-190.066 -7.36524 0)
(-142.253 -6.19555 0)
(-122.606 -6.54394 0)
(-99.9655 -3.6371 0)
(-70.8039 0.245695 0)
(-41.7482 2.59185 0)
(-21.0628 3.1783 0)
(-9.68158 2.96265 0)
(-4.19654 2.63056 0)
(-0.275442 2.41682 0)
(3.68061 2.23057 0)
(7.79446 2.0814 0)
(12.3768 1.94363 0)
(20.9308 1.82807 0)
(30.3374 1.14066 0)
(40.1684 0.687494 0)
(73.711 -0.209278 0)
(205.645 1.27879 0)
(711.444 4.21084 0)
(1186.12 4.93924 0)
(1160.12 -11.6652 0)
(574.069 -13.586 0)
(683.672 -6.93565 0)
(-697.583 64.2972 0)
(-503.915 236.209 0)
(-52.2944 620.703 0)
(281.723 906.002 0)
(604.749 935.175 0)
(779.97 498.198 0)
(601.625 -352.13 0)
(282.493 -542.145 0)
(-84.2643 -696.393 0)
(-333.133 -720.798 0)
(-487.115 -632.964 0)
(-621.959 -496.848 0)
(-791.049 -398.615 0)
(-1001.54 -361.453 0)
(-1011.26 -294.779 0)
(-675.069 -137.961 0)
(-319.693 -33.9466 0)
(-177.144 -10.1619 0)
(-141.441 -8.58496 0)
(-120.812 -7.47033 0)
(-96.2555 -3.63213 0)
(-67.387 1.03615 0)
(-40.0449 4.02048 0)
(-20.7815 4.93053 0)
(-9.96149 4.75611 0)
(-4.50904 4.34146 0)
(-0.520774 4.02329 0)
(3.47431 3.71655 0)
(7.62334 3.49485 0)
(12.2319 3.29693 0)
(20.4803 3.13994 0)
(29.6703 2.28394 0)
(39.3514 1.5337 0)
(73.9995 0.327151 0)
(208.247 2.1672 0)
(713.599 6.60377 0)
(1177.91 7.21112 0)
(1149.42 -10.8885 0)
(575.581 -16.6351 0)
(695.591 -8.64078 0)
(-526.768 19.2969 0)
(-216.173 312.989 0)
(115.987 441.61 0)
(323.28 330.633 0)
(380.837 179.974 0)
(272.182 -158.7 0)
(181.341 -426.042 0)
(75.0205 -621.855 0)
(-95.2652 -700.887 0)
(-249.31 -662.089 0)
(-392.614 -574.882 0)
(-538.577 -491.252 0)
(-746.038 -445.655 0)
(-952.165 -429.133 0)
(-886.287 -320.789 0)
(-537.46 -129.342 0)
(-257.903 -32.3749 0)
(-165.626 -13.0756 0)
(-139.659 -10.6681 0)
(-117.834 -7.78121 0)
(-91.7684 -2.76716 0)
(-63.4296 2.51604 0)
(-37.9955 5.87609 0)
(-20.3539 6.99431 0)
(-10.2492 6.85919 0)
(-4.90271 6.38468 0)
(-0.877634 5.95261 0)
(3.17139 5.50579 0)
(7.3901 5.20832 0)
(12.0348 4.93999 0)
(19.9547 4.71262 0)
(28.7896 3.7557 0)
(38.2827 2.69922 0)
(74.3214 1.40306 0)
(211.693 3.35494 0)
(716.304 8.6768 0)
(1169.26 8.16722 0)
(1137.14 -9.89374 0)
(576.235 -19.1122 0)
(708.029 -10.3598 0)
(-377.38 -40.6465 0)
(-96.9588 138.014 0)
(-35.2925 -57.2935 0)
(29.6014 -201.39 0)
(133.21 -297.154 0)
(195.991 -402.733 0)
(155.312 -483.881 0)
(17.6423 -614.659 0)
(-123.036 -623.791 0)
(-211.709 -599.281 0)
(-322.49 -536.217 0)
(-497.431 -493.545 0)
(-731.189 -491.77 0)
(-881.218 -466.604 0)
(-722.369 -297.186 0)
(-397.143 -102.469 0)
(-207.654 -28.9253 0)
(-156.226 -15.026 0)
(-136.339 -11.6531 0)
(-113.198 -7.07142 0)
(-86.3327 -0.871976 0)
(-59.058 4.82533 0)
(-35.7294 8.35859 0)
(-19.8342 9.57142 0)
(-10.5489 9.45236 0)
(-5.38266 8.9308 0)
(-1.36771 8.38449 0)
(2.75708 7.81391 0)
(7.07812 7.47367 0)
(11.7542 7.13833 0)
(19.3391 6.84709 0)
(27.7301 5.86875 0)
(37.0843 4.69107 0)
(74.6314 3.43213 0)
(215.256 5.4182 0)
(718.237 11.7591 0)
(1160.01 11.0346 0)
(1123.13 -5.71762 0)
(575.132 -17.5489 0)
(723.992 -9.51686 0)
(-432.941 -167.651 0)
(-232.215 3.38434 0)
(-211.076 -141.903 0)
(92.142 -172.706 0)
(186.817 -237.975 0)
(92.2448 -411.314 0)
(-22.8796 -538.53 0)
(-59.8019 -599.024 0)
(-80.4461 -581.571 0)
(-164.921 -536.21 0)
(-290.723 -505.997 0)
(-495.746 -507.047 0)
(-720.077 -524.715 0)
(-764.658 -448.09 0)
(-535.394 -231.988 0)
(-278.953 -74.1088 0)
(-173.639 -27.3061 0)
(-148.982 -17.3884 0)
(-131.994 -12.2588 0)
(-107.444 -5.69172 0)
(-80.3042 1.30353 0)
(-54.5347 7.30381 0)
(-33.422 10.8828 0)
(-19.2999 12.1236 0)
(-10.8665 12.0082 0)
(-5.93175 11.4331 0)
(-1.95391 10.7943 0)
(2.29369 10.1895 0)
(6.73909 9.79841 0)
(11.431 9.39956 0)
(18.7312 9.05236 0)
(26.712 8.12281 0)
(35.9347 7.01717 0)
(75.0221 5.87016 0)
(219.717 7.5685 0)
(721.717 13.5025 0)
(1152.42 11.8776 0)
(1109.6 -2.50049 0)
(572.574 -15.9337 0)
(734.11 -10.0299 0)
(-535.674 65.9015 0)
(-72.1464 49.7263 0)
(-204.98 41.1573 0)
(-62.9775 -132.439 0)
(-96.7209 -386.085 0)
(-93.6352 -530.061 0)
(-25.5723 -571.814 0)
(-23.8332 -522.401 0)
(-62.5063 -512.801 0)
(-138.883 -486.104 0)
(-294.387 -494.971 0)
(-515.469 -526.618 0)
(-674.376 -520.945 0)
(-599.135 -369.023 0)
(-361.987 -157.05 0)
(-199.904 -53.9127 0)
(-152.996 -26.5232 0)
(-141.726 -18.7115 0)
(-125.068 -11.6569 0)
(-100.129 -3.2595 0)
(-73.8098 4.25279 0)
(-49.8272 10.3671 0)
(-31.0849 13.8327 0)
(-18.7497 15.0059 0)
(-11.2144 14.8553 0)
(-6.55242 14.2208 0)
(-2.56606 13.5716 0)
(1.79745 13.0139 0)
(6.31692 12.5067 0)
(11.0353 12.0385 0)
(18.1088 11.6415 0)
(25.7689 10.7905 0)
(34.9136 9.86695 0)
(75.1627 9.03948 0)
(222.611 10.4797 0)
(722.389 15.8231 0)
(1144.59 13.7315 0)
(1096.33 0.819557 0)
(567.876 -14.5408 0)
(749.011 -9.8818 0)
(-321.518 180.288 0)
(-256.059 -21.3134 0)
(-386.617 -94.3076 0)
(-319.564 -324.756 0)
(-196.346 -498.411 0)
(-86.7307 -505.439 0)
(-15.4987 -486.695 0)
(-2.93399 -463.926 0)
(-45.4681 -447.18 0)
(-147.74 -452.477 0)
(-329.764 -496.136 0)
(-520.775 -525.24 0)
(-568.213 -453.972 0)
(-413.995 -256.299 0)
(-231.742 -100.459 0)
(-153.173 -42.6106 0)
(-139.718 -26.4602 0)
(-134.657 -18.876 0)
(-117.104 -9.95702 0)
(-92.1133 -0.909108 0)
(-67.1732 7.06711 0)
(-45.3031 13.0562 0)
(-28.9519 16.3637 0)
(-18.3145 17.4808 0)
(-11.6231 17.363 0)
(-7.16876 16.8065 0)
(-3.11685 16.2855 0)
(1.26751 15.8065 0)
(5.79913 15.262 0)
(10.5972 14.8191 0)
(17.5286 14.4574 0)
(25.0019 13.7949 0)
(34.2474 13.216 0)
(75.6126 13.0513 0)
(226.254 14.2812 0)
(724.85 18.9801 0)
(1137.96 17.194 0)
(1082.35 6.24503 0)
(562.262 -10.0119 0)
(757.645 -7.7518 0)
(-382.48 34.7316 0)
(-336.757 -45.0683 0)
(-497.389 -170.895 0)
(-452.386 -340.961 0)
(-270.834 -447.588 0)
(-82.3455 -455.467 0)
(14.4316 -411.942 0)
(14.2454 -399.121 0)
(-51.4733 -400.746 0)
(-186.058 -440.278 0)
(-364.504 -488.705 0)
(-474.838 -472.217 0)
(-415.214 -331.277 0)
(-258.478 -156.111 0)
(-156.069 -65.291 0)
(-128.596 -34.7233 0)
(-130.125 -25.0007 0)
(-125.823 -17.2188 0)
(-107.754 -6.71722 0)
(-83.7241 2.71696 0)
(-60.3522 10.9866 0)
(-40.8687 16.6776 0)
(-26.8213 19.6895 0)
(-17.7867 20.6798 0)
(-11.8641 20.5804 0)
(-7.59066 20.1191 0)
(-3.52973 19.6765 0)
(0.811091 19.1974 0)
(5.36542 18.654 0)
(10.26 18.2592 0)
(17.1219 17.9672 0)
(24.5726 17.5031 0)
(34.197 17.2925 0)
(76.1891 17.881 0)
(228.324 18.8058 0)
(725.196 22.4345 0)
(1132.32 20.7478 0)
(1070.11 10.6253 0)
(554.388 -7.08941 0)
(766.129 -7.05448 0)
(-331.479 54.7491 0)
(-454.208 -5.52857 0)
(-671.75 -162.002 0)
(-586.196 -344.007 0)
(-306.689 -398.452 0)
(-52.3809 -365.951 0)
(38.7985 -334.944 0)
(7.8551 -348.184 0)
(-85.1281 -375.755 0)
(-232.501 -428.653 0)
(-360.542 -445.245 0)
(-369.072 -361.575 0)
(-263.602 -203.248 0)
(-157.681 -91.714 0)
(-114.768 -44.3633 0)
(-114.348 -28.2404 0)
(-122.85 -21.384 0)
(-117.038 -12.6186 0)
(-97.8929 -1.6183 0)
(-75.0532 8.1895 0)
(-53.7202 16.2829 0)
(-36.9167 21.616 0)
(-25.0951 24.311 0)
(-17.456 25.18 0)
(-12.1634 25.1029 0)
(-8.03973 24.6998 0)
(-4.00507 24.2582 0)
(0.282201 23.7429 0)
(4.89508 23.1707 0)
(9.9354 22.8099 0)
(16.8 22.5805 0)
(24.3518 22.3122 0)
(34.6115 22.3989 0)
(77.0708 23.5776 0)
(230.642 24.3225 0)
(726.722 27.1696 0)
(1126.58 24.6428 0)
(1055.53 15.3867 0)
(545.225 -4.32533 0)
(771.274 -7.10033 0)
(-335.049 -40.13 0)
(-545.626 -56.2259 0)
(-823.558 -157.56 0)
(-680.237 -291.993 0)
(-291.98 -309.487 0)
(-21.1474 -272.094 0)
(31.5521 -277.136 0)
(-25.0817 -312.114 0)
(-129.016 -358.905 0)
(-253.022 -390.032 0)
(-299.866 -347.944 0)
(-241.64 -226.895 0)
(-155.166 -111.327 0)
(-105.37 -50.273 0)
(-94.9036 -26.2209 0)
(-106.452 -19.595 0)
(-115.071 -13.276 0)
(-106.776 -2.01076 0)
(-87.7026 9.42094 0)
(-66.4738 19.5342 0)
(-47.414 26.9818 0)
(-33.1325 31.5057 0)
(-23.3868 33.4689 0)
(-17.0236 33.7917 0)
(-12.3268 33.3056 0)
(-8.40462 32.5648 0)
(-4.45188 31.8049 0)
(-0.236924 31.0275 0)
(4.46634 30.319 0)
(9.69139 29.8852 0)
(16.6423 29.6914 0)
(24.3975 29.5815 0)
(35.4164 29.9034 0)
(78.0428 31.4265 0)
(231.785 32.7006 0)
(725.505 35.8856 0)
(1120.96 31.6891 0)
(1042.2 22.0893 0)
(532.719 1.36753 0)
(777.139 -3.01327 0)
(-424.331 -126.565 0)
(-567.368 -91.5351 0)
(-898.943 -121.73 0)
(-732.598 -180.05 0)
(-287.514 -203.578 0)
(-21.2062 -207.727 0)
(0.234009 -243.419 0)
(-70.9406 -281.124 0)
(-160.213 -321.324 0)
(-221.939 -306.117 0)
(-203.337 -220.3 0)
(-141.059 -116.498 0)
(-93.4027 -52.9316 0)
(-75.6703 -21.9593 0)
(-85.2056 -10.9275 0)
(-101.874 -7.21619 0)
(-105.905 0.485575 0)
(-95.1664 11.904 0)
(-77.1314 22.9734 0)
(-58.1309 32.2794 0)
(-42.184 38.6286 0)
(-30.6655 42.172 0)
(-22.8922 43.4967 0)
(-17.6134 43.4195 0)
(-13.3458 42.6113 0)
(-9.48583 41.5624 0)
(-5.48649 40.5853 0)
(-1.14965 39.6011 0)
(3.79435 38.8713 0)
(9.33056 38.6758 0)
(16.5074 38.7335 0)
(24.5561 38.9773 0)
(36.3894 39.7322 0)
(79.7663 41.6958 0)
(234.939 43.869 0)
(725.747 47.132 0)
(1113.29 39.3708 0)
(1026.31 29.6266 0)
(521.035 8.77373 0)
(772.86 1.73515 0)
(-545.219 -104.406 0)
(-540.967 -62.1835 0)
(-908.854 -52.8962 0)
(-759.109 -76.0266 0)
(-318.651 -124.573 0)
(-59.5397 -175.91 0)
(-39.1754 -221.743 0)
(-100.154 -247.253 0)
(-153.1 -249.757 0)
(-155.672 -190.443 0)
(-117.142 -108.375 0)
(-80.358 -47.5805 0)
(-64.0653 -12.7333 0)
(-64.8938 1.88478 0)
(-80.6966 5.25664 0)
(-95.4543 8.34293 0)
(-96.646 15.7637 0)
(-85.106 25.7845 0)
(-68.0681 36.088 0)
(-51.3879 44.2457 0)
(-37.8811 49.7105 0)
(-28.4414 52.6225 0)
(-22.1847 53.6644 0)
(-17.8769 53.5855 0)
(-14.1163 52.9442 0)
(-10.3569 52.2282 0)
(-6.3419 51.6489 0)
(-1.88861 51.2467 0)
(3.57475 51.1627 0)
(9.55856 52.0645 0)
(16.9328 53.1832 0)
(25.3598 54.5696 0)
(38.0361 56.419 0)
(82.0293 59.5391 0)
(237.024 63.6761 0)
(721.17 67.9926 0)
(1104.09 57.3725 0)
(1012.71 46.2011 0)
(505.842 22.9631 0)
(767.012 13.5289 0)
(-584.863 -32.6101 0)
(-517.731 -11.9366 0)
(-912.283 7.97182 0)
(-801.669 -6.52276 0)
(-383.765 -80.728 0)
(-114.843 -146.181 0)
(-68.5148 -177.447 0)
(-97.9361 -173.247 0)
(-105.469 -133.158 0)
(-85.6978 -67.9474 0)
(-65.669 -17.4468 0)
(-48.8951 11.9749 0)
(-45.7362 29.7336 0)
(-58.3346 36.3483 0)
(-78.9823 36.6353 0)
(-91.7489 39.2107 0)
(-89.0977 46.9457 0)
(-75.5811 57.7224 0)
(-59.3416 68.2098 0)
(-45.0038 76.6283 0)
(-34.1118 83.0462 0)
(-26.8554 87.6602 0)
(-21.9643 90.8752 0)
(-18.3074 93.2252 0)
(-14.6537 95.1409 0)
(-10.734 97.0565 0)
(-6.43231 98.6594 0)
(-1.61822 100.076 0)
(4.58249 101.321 0)
(11.2776 103.263 0)
(18.9214 104.961 0)
(27.6742 107.488 0)
(41.1781 110.27 0)
(86.7595 115.181 0)
(243.085 122.886 0)
(719.672 131.051 0)
(1092.29 115.25 0)
(993.151 85.559 0)
(489.551 38.703 0)
(737.695 23.2482 0)
(-588.146 29.3085 0)
(-501.86 43.6192 0)
(-903.637 61.8064 0)
(-844.584 50.9701 0)
(-453.231 -30.5033 0)
(-152.741 -57.5791 0)
(-65.2575 -51.6409 0)
(-57.4751 -19.4394 0)
(-51.629 26.8757 0)
(-44.1688 64.7432 0)
(-40.1263 91.7171 0)
(-34.8932 109.587 0)
(-40.5782 118.447 0)
(-58.2431 121.94 0)
(-77.9382 126.418 0)
(-85.5188 136.742 0)
(-78.8075 152.002 0)
(-64.6151 168.744 0)
(-49.8496 183.704 0)
(-37.091 196.248 0)
(-27.2504 207.63 0)
(-20.897 218.639 0)
(-16.822 229.063 0)
(-13.7663 238.913 0)
(-10.4244 248.174 0)
(-6.96636 257.698 0)
(-3.43262 264.868 0)
(0.676408 272.471 0)
(6.64652 278.406 0)
(13.0659 284.39 0)
(21.0037 288.485 0)
(30.476 294.517 0)
(45.4498 298.106 0)
(94.1865 305.456 0)
(252.317 315.245 0)
(713.812 318.811 0)
(1060.26 275.329 0)
(938.949 197.564 0)
(445.797 87.2762 0)
(707.314 32.3967 0)
(-514.587 21.6725 0)
(-486.414 90.4158 0)
(-905.199 207.3 0)
(-890.622 257.736 0)
(-488.367 208.106 0)
(-135.212 218.536 0)
(-31.762 252.704 0)
(-22.2746 294.878 0)
(-24.3476 333.316 0)
(-23.2143 369.6 0)
(-22.4557 405.001 0)
(-23.1372 438.411 0)
(-33.8325 465.556 0)
(-50.653 489.23 0)
(-64.7186 514.895 0)
(-67.0953 545.917 0)
(-58.2592 579.426 0)
(-45.0326 610.703 0)
(-32.8375 637.653 0)
(-21.9477 660.329 0)
(-12.5352 681.413 0)
(-6.20195 702.021 0)
(-2.42762 720.92 0)
(0.10948 737.69 0)
(3.44769 751.8 0)
(5.35295 764.903 0)
(7.80382 773.268 0)
(11.4271 783.226 0)
(16.0676 790.155 0)
(20.9904 797.822 0)
(28.6804 801.621 0)
(36.9455 805.924 0)
(51.7192 803.321 0)
(103.274 803.653 0)
(255.955 797.336 0)
(681.209 767.626 0)
(975.451 636.46 0)
(811.937 437.515 0)
(330.39 171.498 0)
(622.374 10.0207 0)
(-480.133 -130.858 0)
(-322.983 86.9567 0)
(-742.401 397.703 0)
(-843.806 593.529 0)
(-491.006 663.934 0)
(-109.766 698.656 0)
(8.30835 739.122 0)
(20.2057 780.88 0)
(20.3758 825.343 0)
(24.909 871.994 0)
(26.1832 915.101 0)
(23.4605 951.716 0)
(8.39215 977.598 0)
(-10.6982 998.522 0)
(-23.3126 1020.7 0)
(-23.3347 1046.29 0)
(-16.3775 1072.79 0)
(-8.50505 1097.77 0)
(-2.02765 1120.37 0)
(5.07688 1139.75 0)
(12.9256 1154.16 0)
(17.1739 1161.15 0)
(17.5499 1162.05 0)
(15.9904 1159.82 0)
(15.7991 1155.98 0)
(13.7209 1152.31 0)
(14.2242 1147.89 0)
(16.9495 1143.85 0)
(20.7113 1139.68 0)
(24.1152 1135.63 0)
(28.8113 1130.98 0)
(32.1141 1123.51 0)
(43.2608 1114.69 0)
(88.4196 1103.43 0)
(217.6 1072.29 0)
(558.786 1003.03 0)
(742.149 766.228 0)
(490.895 549.167 0)
(33.8477 224.757 0)
(532.395 -102.44 0)
(-556.892 567.352 0)
(22.9269 -369.771 0)
(-417.048 392.426 0)
(-634.073 702.749 0)
(-387.062 927.718 0)
(-62.7572 990.651 0)
(47.4715 1014.38 0)
(60.8109 1032.24 0)
(63.4531 1060.71 0)
(63.2795 1086.04 0)
(54.3671 1106.47 0)
(37.0871 1116.4 0)
(11.272 1116.25 0)
(-9.11853 1115.4 0)
(-18.6904 1118.8 0)
(-16.8983 1124.23 0)
(-8.6515 1129.56 0)
(0.818258 1134.48 0)
(7.61808 1137.86 0)
(10.6108 1138.35 0)
(8.08682 1133.91 0)
(1.39939 1124.29 0)
(-3.70893 1111.48 0)
(-5.74165 1097.12 0)
(-3.79222 1082.07 0)
(-2.43459 1068.02 0)
(-0.340626 1055.03 0)
(3.51151 1040.91 0)
(8.14122 1028.17 0)
(12.6028 1013.02 0)
(16.9982 999.327 0)
(21.2547 982.753 0)
(32.3743 969.411 0)
(62.4108 950.851 0)
(159.209 903.128 0)
(386.279 798.921 0)
(538.087 482.956 0)
(290.155 263.241 0)
(-297.522 -374.822 0)
(504.505 273.034 0)
(-289.737 63687.7 0)
(-491.549 -119.679 0)
(291.119 -223.994 0)
(-327.979 147.03 0)
(-213.573 430.499 0)
(-26.2578 506.635 0)
(48.3892 513.283 0)
(64.8588 509.072 0)
(72.2164 514.053 0)
(68.9955 508.462 0)
(55.4375 500.231 0)
(32.8873 488.745 0)
(7.43116 481.165 0)
(-8.23615 481.413 0)
(-14.8068 488.43 0)
(-12.9716 500.493 0)
(-6.49553 512.392 0)
(-0.500296 520.542 0)
(1.69645 523.708 0)
(1.26874 522.851 0)
(-0.623365 521.606 0)
(-4.44281 523.433 0)
(-8.62736 527.691 0)
(-12.3496 532.128 0)
(-12.247 535.36 0)
(-12.3371 537.236 0)
(-11.903 536.81 0)
(-8.93464 536.167 0)
(-6.16285 533.158 0)
(-3.67672 528.147 0)
(-0.352525 519.983 0)
(3.28635 512.41 0)
(12.5192 501.136 0)
(24.5465 488.915 0)
(71.1944 452.012 0)
(153.892 349.872 0)
(225.949 61.9756 0)
(-335.691 -286.899 0)
(43.2844 -43.5853 0)
(630.482 49521.7 0)
(60699.6 -63677.5 0)
(-61564.7 988.048 0)
(-160.037 720.507 0)
(-3.37977 852.02 0)
(-40.5339 1064.37 0)
(17.0163 1115.72 0)
(49.8198 1073.96 0)
(61.5528 1013.8 0)
(62.8648 942.779 0)
(49.9602 873.622 0)
(35.3677 819.334 0)
(18.7142 779.391 0)
(4.20645 765.786 0)
(-2.117 767.314 0)
(-0.304478 776.529 0)
(6.19198 782.995 0)
(10.6688 783.565 0)
(11.723 778.665 0)
(9.84261 771.919 0)
(8.58457 766.69 0)
(8.64809 761.694 0)
(7.26346 758.363 0)
(4.67016 758.767 0)
(1.64896 762.469 0)
(1.12942 769.871 0)
(-1.03812 774.006 0)
(-1.37065 783.751 0)
(-0.00685056 787.781 0)
(0.412684 793.03 0)
(-0.0938598 793.748 0)
(1.83414 796.943 0)
(3.0932 792.21 0)
(9.73325 790.322 0)
(15.073 769.118 0)
(25.2225 749.208 0)
(10.4264 669.063 0)
(-75.5289 578.688 0)
(188.433 512.966 0)
(47699.9 731.504 0)
(-47174.4 -49031.8 0)
(60699.6 63677.5 0)
(-61564.7 -988.048 0)
(-160.037 -720.507 0)
(-3.37977 -852.02 0)
(-40.5339 -1064.37 0)
(17.0163 -1115.72 0)
(49.8198 -1073.96 0)
(61.5528 -1013.8 0)
(62.8648 -942.779 0)
(49.9602 -873.622 0)
(35.3677 -819.334 0)
(18.7142 -779.391 0)
(4.20645 -765.786 0)
(-2.11699 -767.314 0)
(-0.304477 -776.529 0)
(6.19198 -782.995 0)
(10.6688 -783.565 0)
(11.723 -778.665 0)
(9.84261 -771.919 0)
(8.58457 -766.69 0)
(8.64809 -761.694 0)
(7.26346 -758.363 0)
(4.67016 -758.767 0)
(1.64896 -762.469 0)
(1.12942 -769.871 0)
(-1.03812 -774.006 0)
(-1.37065 -783.751 0)
(-0.00685059 -787.781 0)
(0.412684 -793.03 0)
(-0.0938598 -793.748 0)
(1.83414 -796.943 0)
(3.0932 -792.21 0)
(9.73326 -790.322 0)
(15.073 -769.118 0)
(25.2225 -749.208 0)
(10.4264 -669.063 0)
(-75.5289 -578.688 0)
(188.433 -512.966 0)
(47699.9 -731.504 0)
(-47174.4 49031.8 0)
(-289.737 -63687.7 0)
(-491.549 119.679 0)
(291.119 223.994 0)
(-327.979 -147.03 0)
(-213.573 -430.499 0)
(-26.2578 -506.635 0)
(48.3892 -513.283 0)
(64.8588 -509.072 0)
(72.2164 -514.053 0)
(68.9955 -508.462 0)
(55.4375 -500.231 0)
(32.8873 -488.745 0)
(7.43116 -481.165 0)
(-8.23615 -481.413 0)
(-14.8068 -488.43 0)
(-12.9716 -500.493 0)
(-6.49553 -512.392 0)
(-0.500296 -520.542 0)
(1.69645 -523.708 0)
(1.26874 -522.851 0)
(-0.623365 -521.606 0)
(-4.44281 -523.433 0)
(-8.62736 -527.691 0)
(-12.3496 -532.128 0)
(-12.247 -535.36 0)
(-12.3371 -537.236 0)
(-11.903 -536.81 0)
(-8.93464 -536.167 0)
(-6.16285 -533.158 0)
(-3.67672 -528.147 0)
(-0.352525 -519.983 0)
(3.28635 -512.41 0)
(12.5192 -501.136 0)
(24.5465 -488.915 0)
(71.1944 -452.012 0)
(153.892 -349.872 0)
(225.949 -61.9756 0)
(-335.691 286.899 0)
(43.2844 43.5853 0)
(630.482 -49521.7 0)
(-556.892 -567.352 0)
(22.9269 369.771 0)
(-417.048 -392.426 0)
(-634.073 -702.749 0)
(-387.062 -927.718 0)
(-62.7572 -990.651 0)
(47.4715 -1014.38 0)
(60.8109 -1032.24 0)
(63.4531 -1060.71 0)
(63.2795 -1086.04 0)
(54.3671 -1106.47 0)
(37.0871 -1116.4 0)
(11.272 -1116.25 0)
(-9.11853 -1115.4 0)
(-18.6904 -1118.8 0)
(-16.8983 -1124.23 0)
(-8.6515 -1129.56 0)
(0.818258 -1134.48 0)
(7.61808 -1137.86 0)
(10.6108 -1138.35 0)
(8.08682 -1133.91 0)
(1.39939 -1124.29 0)
(-3.70893 -1111.48 0)
(-5.74165 -1097.12 0)
(-3.79222 -1082.07 0)
(-2.43459 -1068.02 0)
(-0.340626 -1055.03 0)
(3.51151 -1040.91 0)
(8.14122 -1028.17 0)
(12.6028 -1013.02 0)
(16.9982 -999.327 0)
(21.2547 -982.753 0)
(32.3743 -969.411 0)
(62.4108 -950.851 0)
(159.209 -903.128 0)
(386.279 -798.921 0)
(538.087 -482.956 0)
(290.155 -263.241 0)
(-297.522 374.822 0)
(504.505 -273.034 0)
(-480.133 130.858 0)
(-322.983 -86.9567 0)
(-742.401 -397.703 0)
(-843.806 -593.529 0)
(-491.006 -663.934 0)
(-109.766 -698.656 0)
(8.30835 -739.122 0)
(20.2057 -780.88 0)
(20.3758 -825.343 0)
(24.909 -871.994 0)
(26.1832 -915.101 0)
(23.4605 -951.716 0)
(8.39215 -977.598 0)
(-10.6982 -998.522 0)
(-23.3126 -1020.7 0)
(-23.3347 -1046.29 0)
(-16.3775 -1072.79 0)
(-8.50505 -1097.77 0)
(-2.02765 -1120.37 0)
(5.07688 -1139.75 0)
(12.9256 -1154.16 0)
(17.1739 -1161.15 0)
(17.5499 -1162.05 0)
(15.9904 -1159.82 0)
(15.7991 -1155.98 0)
(13.7209 -1152.31 0)
(14.2242 -1147.89 0)
(16.9495 -1143.85 0)
(20.7113 -1139.68 0)
(24.1152 -1135.63 0)
(28.8113 -1130.98 0)
(32.1141 -1123.51 0)
(43.2608 -1114.69 0)
(88.4196 -1103.43 0)
(217.6 -1072.29 0)
(558.786 -1003.03 0)
(742.149 -766.228 0)
(490.895 -549.167 0)
(33.8477 -224.757 0)
(532.395 102.44 0)
(-514.587 -21.6725 0)
(-486.414 -90.4158 0)
(-905.199 -207.3 0)
(-890.622 -257.736 0)
(-488.367 -208.106 0)
(-135.212 -218.536 0)
(-31.762 -252.704 0)
(-22.2746 -294.878 0)
(-24.3476 -333.316 0)
(-23.2143 -369.6 0)
(-22.4557 -405.001 0)
(-23.1372 -438.411 0)
(-33.8325 -465.556 0)
(-50.653 -489.23 0)
(-64.7186 -514.895 0)
(-67.0953 -545.917 0)
(-58.2592 -579.426 0)
(-45.0326 -610.703 0)
(-32.8375 -637.653 0)
(-21.9477 -660.329 0)
(-12.5352 -681.413 0)
(-6.20195 -702.021 0)
(-2.42762 -720.92 0)
(0.10948 -737.69 0)
(3.44769 -751.8 0)
(5.35295 -764.903 0)
(7.80382 -773.268 0)
(11.4271 -783.226 0)
(16.0676 -790.155 0)
(20.9904 -797.822 0)
(28.6804 -801.621 0)
(36.9455 -805.924 0)
(51.7192 -803.321 0)
(103.274 -803.653 0)
(255.955 -797.336 0)
(681.209 -767.626 0)
(975.451 -636.46 0)
(811.937 -437.515 0)
(330.39 -171.498 0)
(622.374 -10.0207 0)
(-588.146 -29.3085 0)
(-501.86 -43.6192 0)
(-903.637 -61.8064 0)
(-844.584 -50.9701 0)
(-453.231 30.5033 0)
(-152.741 57.5791 0)
(-65.2575 51.6409 0)
(-57.4751 19.4394 0)
(-51.629 -26.8757 0)
(-44.1688 -64.7432 0)
(-40.1263 -91.7171 0)
(-34.8932 -109.587 0)
(-40.5782 -118.447 0)
(-58.2431 -121.94 0)
(-77.9382 -126.418 0)
(-85.5188 -136.742 0)
(-78.8075 -152.002 0)
(-64.6151 -168.744 0)
(-49.8496 -183.704 0)
(-37.091 -196.248 0)
(-27.2504 -207.63 0)
(-20.897 -218.639 0)
(-16.822 -229.063 0)
(-13.7663 -238.913 0)
(-10.4244 -248.174 0)
(-6.96636 -257.698 0)
(-3.43262 -264.868 0)
(0.676408 -272.471 0)
(6.64652 -278.406 0)
(13.0659 -284.39 0)
(21.0037 -288.485 0)
(30.476 -294.517 0)
(45.4498 -298.106 0)
(94.1865 -305.456 0)
(252.317 -315.245 0)
(713.812 -318.811 0)
(1060.26 -275.329 0)
(938.949 -197.564 0)
(445.797 -87.2762 0)
(707.314 -32.3967 0)
(-584.863 32.6101 0)
(-517.731 11.9366 0)
(-912.283 -7.97182 0)
(-801.669 6.52276 0)
(-383.765 80.728 0)
(-114.843 146.181 0)
(-68.5148 177.447 0)
(-97.9361 173.247 0)
(-105.469 133.158 0)
(-85.6978 67.9474 0)
(-65.669 17.4468 0)
(-48.8951 -11.9749 0)
(-45.7362 -29.7336 0)
(-58.3346 -36.3483 0)
(-78.9823 -36.6353 0)
(-91.7489 -39.2107 0)
(-89.0977 -46.9457 0)
(-75.5811 -57.7224 0)
(-59.3416 -68.2098 0)
(-45.0038 -76.6283 0)
(-34.1118 -83.0462 0)
(-26.8554 -87.6602 0)
(-21.9643 -90.8752 0)