/*--------------------------------*- C++ -*----------------------------------*\
| =========                 |                                                 |
| \\      /  F ield         | OpenFOAM: The Open Source CFD Toolbox           |
|  \\    /   O peration     | Version:  v1912                                 |
|   \\  /    A nd           | Website:  www.openfoam.com                      |
|    \\/     M anipulation  |                                                 |
\*---------------------------------------------------------------------------*/
FoamFile
{
    version     2.0;
    format      ascii;
    class       volScalarField;
    location    "6.88";
    object      Ma;
}
// * * * * * * * * * * * * * * * * * * * * * * * * * * * * * * * * * * * * * //

dimensions      [0 0 0 0 0 0 0];


internalField   nonuniform List<scalar> 
1900
(
0.656964
0.0276934
0.0878214
0.0861886
0.0887902
0.0915766
0.0951416
0.0990332
0.101173
0.0940538
0.656963
0.0276953
0.0878199
0.0861849
0.08878
0.0915314
0.0950587
0.0985862
0.102669
0.105661
0.656963
0.0276969
0.0878176
0.0861801
0.0887695
0.0915069
0.0950396
0.0986723
0.103199
0.112026
0.656963
0.0276953
0.0878199
0.0861849
0.08878
0.0915314
0.0950587
0.0985862
0.102669
0.105661
0.656964
0.0276934
0.0878214
0.0861886
0.0887902
0.0915766
0.0951416
0.0990332
0.101173
0.0940538
0.102622
0.141991
0.195585
0.282588
0.431713
0.122453
0.148976
0.181047
0.247338
0.392408
0.130481
0.155635
0.187858
0.25105
0.389351
0.122453
0.148976
0.181047
0.247338
0.392408
0.102622
0.141991
0.195585
0.282588
0.431713
0.94877
1.34524
1.60088
1.77496
1.95372
0.907371
1.34371
1.62301
1.79507
1.97115
0.902986
1.35268
1.62359
1.78941
1.96611
0.907371
1.34371
1.62301
1.79507
1.97115
0.94877
1.34524
1.60088
1.77496
1.95372
2.07274
2.13746
2.21923
2.33534
2.30414
2.00574
1.35719
1.22822
1.14319
0.996106
0.829146
0.686598
0.57659
0.479118
0.357995
0.216214
0.131184
0.109709
0.108502
0.11159
0.117131
0.128285
0.147481
0.173078
0.201571
0.230694
0.259229
0.287369
0.314689
0.341553
0.367611
0.391144
0.412971
0.431947
0.44181
0.386241
0.189723
0.0227365
0.0256073
0.121173
2.09438
2.14836
2.23473
2.35264
2.30868
2.01523
1.34586
1.21858
1.12592
0.98748
0.837198
0.702117
0.589785
0.486283
0.359591
0.215552
0.129573
0.107816
0.106765
0.110045
0.115717
0.127053
0.146472
0.172288
0.200975
0.230264
0.258927
0.287191
0.314594
0.341553
0.367668
0.391279
0.413123
0.432147
0.442114
0.38663
0.189893
0.0190357
0.0165259
0.120246
2.09623
2.14987
2.23482
2.36302
2.30438
2.00897
1.33791
1.21233
1.1281
0.996724
0.833899
0.691314
0.581235
0.483747
0.361028
0.216577
0.129334
0.107287
0.106266
0.109594
0.115295
0.126643
0.146114
0.171995
0.200736
0.230068
0.258762
0.287061
0.314485
0.341476
0.367615
0.391264
0.41314
0.432226
0.442306
0.386998
0.190415
0.0185129
0.010755
0.117963
2.09438
2.14836
2.23473
2.35264
2.30868
2.01523
1.34586
1.21858
1.12592
0.98748
0.837198
0.702117
0.589785
0.486283
0.359591
0.215552
0.129573
0.107816
0.106765
0.110045
0.115717
0.127053
0.146472
0.172288
0.200975
0.230264
0.258927
0.287191
0.314594
0.341553
0.367668
0.391279
0.413123
0.432147
0.442114
0.38663
0.189893
0.0190357
0.0165259
0.120246
2.07274
2.13746
2.21923
2.33534
2.30414
2.00574
1.35719
1.22822
1.14319
0.996106
0.829146
0.686598
0.57659
0.479118
0.357995
0.216214
0.131184
0.109709
0.108502
0.11159
0.117131
0.128285
0.147481
0.173078
0.201571
0.230694
0.259229
0.287369
0.314689
0.341553
0.367611
0.391144
0.412971
0.431947
0.44181
0.386241
0.189723
0.0227365
0.0256073
0.121173
2.12048
2.13599
2.16914
2.25744
2.17322
1.87046
1.33033
1.19475
1.07925
0.937031
0.802162
0.683387
0.581056
0.48241
0.357165
0.215756
0.135709
0.116369
0.115083
0.117674
0.122968
0.133746
0.152309
0.177231
0.205151
0.23382
0.262043
0.289878
0.317064
0.343732
0.369751
0.393173
0.415126
0.434106
0.443829
0.388391
0.193626
0.0367349
0.0463015
0.122138
2.11885
2.12739
2.13504
2.06262
1.91666
1.56825
1.23368
1.07571
0.968444
0.857731
0.753313
0.652335
0.562724
0.470057
0.346714
0.214885
0.148803
0.133938
0.132409
0.133799
0.138312
0.148239
0.165395
0.188651
0.21507
0.242515
0.269892
0.296882
0.323689
0.349806
0.375697
0.398777
0.421021
0.439899
0.449409
0.394285
0.203782
0.0615075
0.0791979
0.134288
2.00612
2.0064
1.96684
1.81432
1.61557
1.31592
1.06841
0.953701
0.872844
0.790912
0.707268
0.622485
0.544253
0.454448
0.331864
0.21643
0.168145
0.157511
0.155432
0.155626
0.159282
0.168197
0.183734
0.204996
0.229498
0.25529
0.281484
0.30727
0.3335
0.358794
0.384424
0.40695
0.429482
0.448145
0.457343
0.402565
0.217909
0.0887298
0.111379
0.152038
1.74665
1.71453
1.62408
1.48998
1.27891
1.03971
0.901953
0.85923
0.808524
0.75319
0.672336
0.597471
0.526261
0.435069
0.315756
0.224472
0.192572
0.184657
0.181702
0.18088
0.183802
0.191727
0.205705
0.224969
0.247442
0.271392
0.296219
0.320587
0.346092
0.370373
0.395614
0.417436
0.440166
0.458554
0.467375
0.412956
0.235402
0.117514
0.142937
0.173592
1.41857
1.33836
1.23543
1.09358
0.930843
0.844585
0.846243
0.827687
0.783548
0.710981
0.638802
0.576063
0.506397
0.410742
0.302509
0.239262
0.219497
0.212952
0.209115
0.207678
0.210219
0.217317
0.229965
0.247457
0.268051
0.290226
0.313715
0.336669
0.361435
0.384679
0.409519
0.430634
0.453549
0.471686
0.480223
0.426535
0.256846
0.146997
0.173249
0.195437
1.02715
0.917259
0.826093
0.799648
0.835195
0.866783
0.856921
0.812874
0.742961
0.675914
0.616883
0.557933
0.484274
0.387671
0.302211
0.262832
0.249357
0.242565
0.237667
0.235732
0.237809
0.244155
0.255583
0.271421
0.290209
0.310603
0.332685
0.354132
0.377984
0.400032
0.424265
0.444488
0.467298
0.484904
0.492876
0.43971
0.278007
0.176366
0.203512
0.222253
0.752355
0.752419
0.803837
0.878673
0.907818
0.888777
0.838489
0.775351
0.709215
0.651466
0.597371
0.536601
0.457867
0.37006
0.312155
0.288481
0.27806
0.270765
0.265398
0.263513
0.265532
0.271422
0.281988
0.296619
0.314073
0.333134
0.35426
0.374461
0.397734
0.418905
0.442755
0.462331
0.485126
0.502336
0.510063
0.458321
0.304311
0.206575
0.232955
0.246316
0.785447
0.829396
0.88755
0.921031
0.907876
0.864589
0.807545
0.745752
0.686664
0.634133
0.580237
0.515661
0.438175
0.371221
0.335218
0.318486
0.308209
0.299908
0.294011
0.291965
0.293679
0.298983
0.308548
0.321832
0.337804
0.355323
0.375259
0.393903
0.416359
0.436454
0.459665
0.478402
0.500907
0.517474
0.52469
0.474188
0.327897
0.235742
0.26217
0.273662
0.78116
0.819761
0.87261
0.898845
0.880141
0.835543
0.781205
0.721763
0.668768
0.616885
0.560199
0.493857
0.42751
0.382841
0.359637
0.346046
0.335671
0.327083
0.321339
0.319846
0.321591
0.326601
0.335584
0.348064
0.363154
0.379684
0.398902
0.41651
0.438447
0.457781
0.480502
0.498537
0.520658
0.536449
0.543219
0.49443
0.354671
0.265136
0.290959
0.29967
0.75487
0.785969
0.830198
0.862433
0.849964
0.809438
0.760925
0.704156
0.655072
0.602491
0.544834
0.484927
0.437018
0.407331
0.388836
0.375437
0.364303
0.355037
0.349118
0.34742
0.349039
0.353495
0.36161
0.372989
0.386907
0.402155
0.420404
0.436818
0.45804
0.476565
0.498715
0.516045
0.537736
0.552733
0.559155
0.512296
0.379536
0.294033
0.31939
0.32631
0.716721
0.741985
0.778067
0.826974
0.826346
0.789068
0.744443
0.690117
0.641273
0.588049
0.53331
0.485107
0.451412
0.428742
0.412846
0.399852
0.388451
0.380075
0.375082
0.373592
0.375319
0.379658
0.38752
0.398529
0.412031
0.426674
0.444514
0.460287
0.48104
0.499046
0.52073
0.53745
0.558605
0.57277
0.578781
0.533735
0.40637
0.322118
0.346919
0.350924
0.675447
0.698194
0.730994
0.797153
0.807573
0.770716
0.729586
0.677661
0.630265
0.580855
0.535751
0.500335
0.474532
0.454976
0.43908
0.425037
0.413886
0.404581
0.398603
0.397068
0.398522
0.402305
0.409427
0.419591
0.432271
0.445983
0.463184
0.47812
0.498259
0.515717
0.53687
0.552994
0.573663
0.587158
0.592696
0.54938
0.429437
0.349736
0.37408
0.376583
0.639634
0.664604
0.694391
0.77533
0.793743
0.758423
0.720937
0.67022
0.624005
0.579527
0.542491
0.513324
0.490994
0.473038
0.45791
0.444541
0.432549
0.423556
0.418328
0.4175
0.419455
0.423552
0.430931
0.441286
0.454117
0.467699
0.484871
0.499512
0.51916
0.536261
0.556852
0.572395
0.592362
0.605077
0.609956
0.568304
0.453651
0.374755
0.398558
0.397856
0.623324
0.648713
0.672149
0.756686
0.779475
0.746945
0.709335
0.6597
0.618279
0.582829
0.556693
0.532519
0.511887
0.493027
0.476461
0.462352
0.450652
0.441824
0.436685
0.435815
0.437555
0.441193
0.448052
0.457898
0.470287
0.483239
0.499958
0.514015
0.532752
0.549158
0.568936
0.583764
0.602991
0.614886
0.61881
0.578449
0.470784
0.396942
0.421559
0.418961
0.612568
0.637177
0.65439
0.733061
0.758284
0.728522
0.69554
0.653257
0.622246
0.589938
0.562929
0.538733
0.518439
0.500616
0.485343
0.471955
0.460451
0.451698
0.446807
0.446091
0.447461
0.450145
0.45586
0.464614
0.47603
0.487796
0.503732
0.517114
0.534914
0.550823
0.570203
0.584464
0.603069
0.614005
0.616728
0.577805
0.479089
0.412485
0.44
0.435002
0.60486
0.621743
0.626467
0.698126
0.733503
0.708634
0.678508
0.637375
0.608921
0.577265
0.551769
0.526527
0.503911
0.482397
0.461873
0.442971
0.426929
0.414488
0.406221
0.402625
0.401062
0.400666
0.40377
0.410599
0.420779
0.431407
0.447582
0.460995
0.479258
0.495996
0.516363
0.531642
0.551587
0.563513
0.567846
0.535722
0.454548
0.408482
0.455923
0.456055
0.605045
0.612698
0.586279
0.629904
0.662973
0.638688
0.607773
0.562923
0.53035
0.491861
0.458795
0.424972
0.392775
0.361056
0.330857
0.303234
0.279271
0.25991
0.24625
0.239024
0.234865
0.233259
0.237582
0.247968
0.263329
0.280099
0.302886
0.323174
0.347654
0.370853
0.396723
0.419563
0.444615
0.463484
0.476235
0.459436
0.405027
0.386197
0.461686
0.468423
0.652226
0.645703
0.551879
0.528368
0.534472
0.503742
0.471502
0.425418
0.387451
0.345723
0.307834
0.270174
0.234581
0.200721
0.169283
0.140693
0.115462
0.0952086
0.0829953
0.08083
0.0843825
0.0925753
0.108204
0.129991
0.155387
0.181562
0.210329
0.237693
0.266203
0.294042
0.322109
0.349779
0.375813
0.399841
0.418483
0.419547
0.394825
0.418163
0.537028
0.552555
1.09066
0.78862
0.590812
0.513551
0.502845
0.474085
0.445562
0.406709
0.371751
0.334489
0.298426
0.262782
0.228745
0.19616
0.165185
0.135587
0.106764
0.079052
0.0552996
0.04518
0.0559377
0.0803273
0.110164
0.14065
0.170438
0.199355
0.228688
0.25703
0.285665
0.313964
0.342075
0.36985
0.395879
0.42081
0.441959
0.460266
0.466719
0.537904
0.715992
1.01445
2.43472
1.09582
0.546666
0.460072
0.440796
0.413823
0.385157
0.350983
0.31688
0.283109
0.248724
0.216741
0.186497
0.15876
0.132583
0.108097
0.0854486
0.0666106
0.0551755
0.0556659
0.0710209
0.0951898
0.121697
0.148748
0.175613
0.204846
0.232129
0.261053
0.289019
0.317162
0.343899
0.371138
0.39491
0.418992
0.438314
0.460779
0.474521
0.553928
0.976773
2.36648
2.43472
1.09582
0.546666
0.460072
0.440796
0.413823
0.385157
0.350983
0.31688
0.283109
0.248724
0.216741
0.186497
0.15876
0.132583
0.108097
0.0854486
0.0666106
0.0551755
0.0556659
0.0710209
0.0951898
0.121697
0.148748
0.175613
0.204846
0.232129
0.261053
0.289019
0.317162
0.343899
0.371138
0.39491
0.418992
0.438314
0.460779
0.474521
0.553928
0.976773
2.36648
1.09066
0.78862
0.590812
0.513551
0.502845
0.474085
0.445562
0.406709
0.371751
0.334489
0.298426
0.262782
0.228745
0.19616
0.165185
0.135587
0.106764
0.079052
0.0552996
0.04518
0.0559377
0.0803273
0.110164
0.14065
0.170438
0.199355
0.228688
0.25703
0.285665
0.313964
0.342075
0.36985
0.395879
0.42081
0.441959
0.460266
0.466719
0.537904
0.715992
1.01445
0.652226
0.645703
0.551879
0.528368
0.534472
0.503742
0.471502
0.425418
0.387451
0.345723
0.307834
0.270174
0.234581
0.200721
0.169283
0.140693
0.115462
0.0952086
0.0829953
0.08083
0.0843825
0.0925753
0.108204
0.129991
0.155387
0.181562
0.210329
0.237693
0.266203
0.294042
0.322109
0.349779
0.375813
0.399841
0.418483
0.419547
0.394825
0.418163
0.537028
0.552555
0.605045
0.612698
0.586279
0.629904
0.662973
0.638688
0.607773
0.562923
0.53035
0.491861
0.458795
0.424972
0.392775
0.361056
0.330857
0.303234
0.279271
0.25991
0.24625
0.239024
0.234865
0.233259
0.237582
0.247968
0.263329
0.280099
0.302886
0.323174
0.347654
0.370853
0.396723
0.419563
0.444615
0.463484
0.476235
0.459436
0.405027
0.386197
0.461686
0.468423
0.60486
0.621743
0.626467
0.698126
0.733503
0.708634
0.678508
0.637375
0.608921
0.577265
0.551769
0.526527
0.503911
0.482397
0.461873
0.442971
0.426929
0.414488
0.406221
0.402625
0.401062
0.400666
0.40377
0.410599
0.420779
0.431407
0.447582
0.460995
0.479258
0.495996
0.516363
0.531642
0.551587
0.563513
0.567846
0.535722
0.454548
0.408482
0.455923
0.456055
0.612568
0.637177
0.65439
0.733061
0.758284
0.728522
0.69554
0.653257
0.622246
0.589938
0.562929
0.538733
0.518439
0.500616
0.485343
0.471955
0.460451
0.451698
0.446807
0.446091
0.447461
0.450145
0.45586
0.464614
0.47603
0.487796
0.503732
0.517114
0.534914
0.550823
0.570203
0.584464
0.603069
0.614005
0.616728
0.577805
0.479089
0.412485
0.44
0.435002
0.623324
0.648713
0.672149
0.756686
0.779475
0.746945
0.709335
0.6597
0.618279
0.582829
0.556693
0.532519
0.511887
0.493027
0.476461
0.462352
0.450652
0.441824
0.436685
0.435815
0.437555
0.441193
0.448052
0.457898
0.470287
0.483239
0.499958
0.514015
0.532752
0.549158
0.568936
0.583764
0.602991
0.614886
0.61881
0.578449
0.470784
0.396942
0.421559
0.418961
0.639634
0.664604
0.694391
0.77533
0.793743
0.758423
0.720937
0.67022
0.624005
0.579527
0.542491
0.513324
0.490994
0.473038
0.45791
0.444541
0.432549
0.423556
0.418328
0.4175
0.419455
0.423552
0.430931
0.441286
0.454117
0.467699
0.484871
0.499512
0.51916
0.536261
0.556852
0.572395
0.592362
0.605077
0.609956
0.568304
0.453651
0.374755
0.398558
0.397856
0.675447
0.698194
0.730994
0.797153
0.807573
0.770716
0.729586
0.677661
0.630265
0.580855
0.535751
0.500335
0.474532
0.454976
0.43908
0.425037
0.413886
0.404581
0.398603
0.397068
0.398522
0.402305
0.409427
0.419591
0.432271
0.445983
0.463184
0.47812
0.498259
0.515717
0.53687
0.552994
0.573663
0.587158
0.592696
0.54938
0.429437
0.349736
0.37408
0.376583
0.716721
0.741985
0.778067
0.826974
0.826346
0.789068
0.744443
0.690117
0.641273
0.588049
0.53331
0.485107
0.451412
0.428742
0.412846
0.399852
0.388451
0.380075
0.375082
0.373592
0.375319
0.379658
0.38752
0.398529
0.412031
0.426674
0.444514
0.460287
0.48104
0.499046
0.52073
0.53745
0.558605
0.57277
0.578781
0.533735
0.40637
0.322118
0.346919
0.350924
0.75487
0.785969
0.830198
0.862433
0.849964
0.809438
0.760925
0.704156
0.655072
0.602491
0.544834
0.484927
0.437018
0.407331
0.388836
0.375437
0.364303
0.355037
0.349118
0.34742
0.349039
0.353495
0.36161
0.372989
0.386907
0.402155
0.420404
0.436818
0.45804
0.476565
0.498715
0.516045
0.537736
0.552733
0.559155
0.512296
0.379536
0.294033
0.31939
0.32631
0.78116
0.819761
0.87261
0.898845
0.880141
0.835543
0.781205
0.721763
0.668768
0.616885
0.560199
0.493857
0.42751
0.382841
0.359637
0.346046
0.335671
0.327083
0.321339
0.319846
0.321591
0.326601
0.335584
0.348064
0.363154
0.379684
0.398902
0.41651
0.438447
0.457781
0.480502
0.498537
0.520658
0.536449
0.543219
0.49443
0.354671
0.265136
0.290959
0.29967
0.785447
0.829396
0.88755
0.921031
0.907876
0.864589
0.807545
0.745752
0.686664
0.634133
0.580237
0.515661
0.438175
0.371221
0.335218
0.318486
0.308209
0.299908
0.294011
0.291965
0.293679
0.298983
0.308548
0.321832
0.337804
0.355323
0.375259
0.393903
0.416359
0.436454
0.459665
0.478402
0.500907
0.517474
0.52469
0.474188
0.327897
0.235742
0.26217
0.273662
0.752355
0.752419
0.803837
0.878673
0.907818
0.888777
0.838489
0.775351
0.709215
0.651466
0.597371
0.536601
0.457867
0.37006
0.312155
0.288481
0.27806
0.270765
0.265398
0.263513
0.265532
0.271422
0.281988
0.296619
0.314073
0.333134
0.35426
0.374461
0.397734
0.418905
0.442755
0.462331
0.485126
0.502336
0.510063
0.458321
0.304311
0.206575
0.232955
0.246316
1.02715
0.917259
0.826093
0.799648
0.835195
0.866783
0.856921
0.812874
0.742961
0.675914
0.616883
0.557933
0.484274
0.387671
0.302211
0.262832
0.249357
0.242565
0.237667
0.235732
0.237809
0.244155
0.255583
0.271421
0.290209
0.310603
0.332685
0.354132
0.377984
0.400032
0.424265
0.444488
0.467298
0.484904
0.492876
0.43971
0.278007
0.176366
0.203512
0.222253
1.41857
1.33836
1.23543
1.09358
0.930843
0.844585
0.846243
0.827687
0.783548
0.710981
0.638802
0.576063
0.506397
0.410742
0.302509
0.239262
0.219497
0.212952
0.209115
0.207678
0.210219
0.217317
0.229965
0.247457
0.268051
0.290226
0.313715
0.336669
0.361435
0.384679
0.409519
0.430634
0.453549
0.471686
0.480223
0.426535
0.256846
0.146997
0.173249
0.195437
1.74665
1.71453
1.62408
1.48998
1.27891
1.03971
0.901953
0.85923
0.808524
0.75319
0.672336
0.597471
0.526261
0.435069
0.315756
0.224472
0.192572
0.184657
0.181702
0.18088
0.183802
0.191727
0.205705
0.224969
0.247442
0.271392
0.296219
0.320587
0.346092
0.370373
0.395614
0.417436
0.440166
0.458554
0.467375
0.412956
0.235402
0.117514
0.142937
0.173592
2.00612
2.0064
1.96684
1.81432
1.61557
1.31592
1.06841
0.953701
0.872844
0.790912
0.707268
0.622485
0.544253
0.454448
0.331864
0.21643
0.168145
0.157511
0.155432
0.155626
0.159282
0.168197
0.183734
0.204996
0.229498
0.25529
0.281484
0.30727
0.3335
0.358794
0.384424
0.40695
0.429482
0.448145
0.457343
0.402565
0.217909
0.0887298
0.111379
0.152038
2.11885
2.12739
2.13504
2.06262
1.91666
1.56825
1.23368
1.07571
0.968444
0.857731
0.753313
0.652335
0.562724
0.470057
0.346714
0.214885
0.148803
0.133938
0.132409
0.133799
0.138312
0.148239
0.165395
0.188651
0.21507
0.242515
0.269892
0.296882
0.323689
0.349806
0.375697
0.398777
0.421021
0.439899
0.449409
0.394285
0.203782
0.0615075
0.0791979
0.134288
2.12048
2.13599
2.16914
2.25744
2.17322
1.87046
1.33033
1.19475
1.07925
0.937031
0.802162
0.683387
0.581056
0.48241
0.357165
0.215756
0.135709
0.116369
0.115083
0.117674
0.122968
0.133746
0.152309
0.177231
0.205151
0.23382
0.262043
0.289878
0.317064
0.343732
0.369751
0.393173
0.415126
0.434106
0.443829
0.388391
0.193626
0.0367349
0.0463015
0.122138
)
;

boundaryField
{
    inlet
    {
        type            calculated;
        value           uniform 0;
    }
    outlet
    {
        type            calculated;
        value           nonuniform List<scalar> 
165
(
2.12048
2.11885
2.00612
1.74665
1.41857
1.02715
0.752355
0.785447
0.78116
0.75487
0.716721
0.675447
0.639634
0.623324
0.612568
0.60486
0.605045
0.652226
1.09066
2.43472
2.43472
1.09582
0.546666
0.460072
0.440796
0.413823
0.385157
0.350983
0.31688
0.283109
0.248724
0.216741
0.186497
0.15876
0.132583
0.108097
0.0854486
0.0666106
0.0551755
0.0556659
0.0710209
0.0951898
0.121697
0.148748
0.175613
0.204846
0.232129
0.261053
0.289019
0.317162
0.343899
0.371138
0.39491
0.418992
0.438314
0.460779
0.474521
0.553928
0.976773
2.36648
0.122138
0.134288
0.152038
0.173592
0.195437
0.222253
0.246316
0.273662
0.29967
0.32631
0.350924
0.376583
0.397856
0.418961
0.435002
0.456055
0.468423
0.552555
1.01445
2.36648
0.121173
0.120246
0.117963
0.120246
0.121173
2.36648
1.01445
0.552555
0.468423
0.456055
0.435002
0.418961
0.397856
0.376583
0.350924
0.32631
0.29967
0.273662
0.246316
0.222253
0.195437
0.173592
0.152038
0.134288
0.122138
2.43472
1.09582
0.546666
0.460072
0.440796
0.413823
0.385157
0.350983
0.31688
0.283109
0.248724
0.216741
0.186497
0.15876
0.132583
0.108097
0.0854486
0.0666106
0.0551755
0.0556659
0.0710209
0.0951898
0.121697
0.148748
0.175613
0.204846
0.232129
0.261053
0.289019
0.317162
0.343899
0.371138
0.39491
0.418992
0.438314
0.460779
0.474521
0.553928
0.976773
2.36648
2.43472
1.09066
0.652226
0.605045
0.60486
0.612568
0.623324
0.639634
0.675447
0.716721
0.75487
0.78116
0.785447
0.752355
1.02715
1.41857
1.74665
2.00612
2.11885
2.12048
)
;
    }
    obstacle
    {
        type            calculated;
        value           nonuniform List<scalar> 
40
(
0.656964
0.0276934
0.0878214
0.0861886
0.0887902
0.0915766
0.0951416
0.099033
0.101124
0.093255
0.656964
0.0276934
0.0878214
0.0861886
0.0887902
0.0915766
0.0951416
0.099033
0.101124
0.093255
0.100649
0.138906
0.192292
0.27926
0.42505
0.100649
0.138906
0.192292
0.27926
0.42505
0.938707
1.34247
1.59934
1.77346
1.95251
0.938707
1.34247
1.59934
1.77346
1.95251
)
;
    }
    empty
    {
        type            empty;
    }
}


// ************************************************************************* //
