/*--------------------------------*- C++ -*----------------------------------*\
| =========                 |                                                 |
| \\      /  F ield         | OpenFOAM: The Open Source CFD Toolbox           |
|  \\    /   O peration     | Version:  v1912                                 |
|   \\  /    A nd           | Website:  www.openfoam.com                      |
|    \\/     M anipulation  |                                                 |
\*---------------------------------------------------------------------------*/
FoamFile
{
    version     2.0;
    format      ascii;
    class       volVectorField;
    location    "7.1";
    object      grad(rho);
}
// * * * * * * * * * * * * * * * * * * * * * * * * * * * * * * * * * * * * * //

dimensions      [1 -4 0 0 0 0 0];


internalField   nonuniform List<vector> 
1900
(
(70153.4 -0.0473158 0)
(-76349.8 0.0223128 0)
(-4159.17 -0.155588 0)
(-896.605 -0.199182 0)
(-1532.42 0.61582 0)
(-1572.84 1.29648 0)
(-1076.17 5.26524 0)
(-451.833 -0.899098 0)
(-86.6153 29.8856 0)
(871.348 -34.7464 0)
(70153.4 -0.0900186 0)
(-76349.9 0.0590976 0)
(-4159.39 -0.25423 0)
(-895.834 -0.230716 0)
(-1530.92 1.56301 0)
(-1568.19 3.80059 0)
(-1078.37 7.70223 0)
(-427.212 -2.72808 0)
(-120.463 -21.5776 0)
(-108.28 -96.9555 0)
(70153.4 -7.81597e-10 0)
(-76350 0 0)
(-4159.46 -2.84217e-10 0)
(-894.788 -1.13687e-09 0)
(-1528.39 -3.90799e-10 0)
(-1566.7 -2.84217e-10 0)
(-1082.7 -2.59348e-09 0)
(-481.112 8.52651e-10 0)
(-180.843 1.24345e-09 0)
(-264.831 1.47438e-09 0)
(70153.4 0.0900186 0)
(-76349.9 -0.0590976 0)
(-4159.39 0.25423 0)
(-895.834 0.230716 0)
(-1530.92 -1.56301 0)
(-1568.19 -3.80059 0)
(-1078.37 -7.70223 0)
(-427.212 2.72808 0)
(-120.463 21.5776 0)
(-108.28 96.9555 0)
(70153.4 0.0473159 0)
(-76349.8 -0.0223128 0)
(-4159.17 0.155588 0)
(-896.605 0.199182 0)
(-1532.42 -0.61582 0)
(-1572.84 -1.29648 0)
(-1076.17 -5.26524 0)
(-451.833 0.899098 0)
(-86.6153 -29.8856 0)
(871.348 34.7464 0)
(-151.845 -824.768 1.23899e-11)
(-2370.03 -625.107 -1.46408e-11)
(-3640.23 -624.321 -1.83583e-11)
(-3956.06 -654.51 0)
(-25622.6 -7284.68 -7.58284e-11)
(-646.241 -1017.8 1.22409e-11)
(-1691.19 -753.982 1.46408e-11)
(-3317.65 -689.014 1.83583e-11)
(-6430.49 -220.558 0)
(-24067 -6037.48 0)
(-979.216 1.8021e-09 0)
(-1690.36 3.33067e-09 0)
(-3102.08 2.96059e-10 0)
(-6088.63 1.34572e-09 0)
(-26242.3 -2.80199e-09 0)
(-646.241 1017.8 1.22409e-11)
(-1691.19 753.982 1.46408e-11)
(-3317.65 689.014 1.83583e-11)
(-6430.49 220.558 0)
(-24067 6037.48 0)
(-151.845 824.768 -3.68716e-11)
(-2370.03 625.107 -1.46408e-11)
(-3640.23 624.321 -1.83583e-11)
(-3956.06 654.51 -4.87775e-11)
(-25622.6 7284.68 7.58284e-11)
(-43446.2 14562.3 1.74814e-11)
(-15598.9 6317.47 -9.98789e-12)
(-7866.95 3058.57 0)
(-5559.87 2134.96 4.95062e-12)
(-2259.26 1923.59 -1.79106e-12)
(-38990.2 18877.3 -8.95998e-12)
(-18110 5488.95 5.08907e-12)
(-8886.39 1835.75 0)
(-5777.98 1265.29 -3.14385e-12)
(-3774.44 1037.78 4.70061e-13)
(-40527.9 -1.21115e-09 0)
(-19954.6 -3.03651e-10 0)
(-9195.7 -1.97373e-10 0)
(-5910.91 -5.95021e-10 1.27278e-12)
(-3815.85 3.58388e-09 -9.40122e-13)
(-38990.2 -18877.3 -8.95998e-12)
(-18110 -5488.95 5.08907e-12)
(-8886.39 -1835.75 0)
(-5777.98 -1265.29 -3.14385e-12)
(-3774.44 -1037.78 4.70061e-13)
(-43446.2 -14562.3 8.95998e-12)
(-15598.9 -6317.47 -1.90262e-13)
(-7866.95 -3058.57 0)
(-5559.87 -2134.96 6.42981e-14)
(-2259.26 -1923.59 1.79106e-12)
(98.4374 -5596.99 0)
(-512.591 -3690.89 0)
(-1164.17 -2235.08 0)
(-1455.5 -1373.77 0)
(-466.919 -798.702 0)
(2448.9 -898.147 0)
(4784.52 -918.013 0)
(2620.91 53.3194 0)
(147.369 214.219 0)
(131.769 217.429 0)
(-56.11 281.193 0)
(-857.622 264.185 0)
(-1662.83 303.573 0)
(-1981.94 298.38 0)
(-2178.07 219.883 0)
(-2467.54 167.968 0)
(-2223.42 112.421 0)
(-1309.64 40.2866 0)
(-571.168 5.61401 0)
(-325.712 0.912899 0)
(-271.928 5.12389 0)
(-236.816 2.60128 0)
(-176.963 -1.26066 0)
(-104.2 -3.32755 0)
(-45.5316 -3.68627 0)
(-12.9317 -3.3643 0)
(3.18782 -2.99969 0)
(11.9883 -2.63998 0)
(21.4332 -2.43366 0)
(34.9958 -2.09864 0)
(55.3762 -1.86025 0)
(68.819 -0.935799 0)
(128.016 -1.09751 0)
(370.194 -1.75588 0)
(1459.21 -5.55941 0)
(2721.81 -9.44645 0)
(2206.23 -0.875578 0)
(1212.18 79.7049 0)
(801.437 -12.2764 0)
(1444.73 -15.7986 0)
(-1190.74 -2702.09 0)
(-138.463 -2383.26 0)
(-787.317 -1540.79 0)
(-1233.91 -521.832 0)
(-408.967 -289.934 0)
(2398.73 -298.115 0)
(4763.44 -568.226 0)
(2659.08 -308.626 0)
(170.999 -304.471 0)
(190.459 -256.794 0)
(-10.0391 16.3776 0)
(-819.907 183.39 0)
(-1599 183.219 0)
(-1962 120.608 0)
(-2202.75 80.1399 0)
(-2495.97 73.6928 0)
(-2244.36 53.8627 0)
(-1320.18 17.9889 0)
(-574.263 2.14785 0)
(-325.516 0.124906 0)
(-271.71 2.64464 0)
(-237.521 1.11074 0)
(-177.502 -0.631243 0)
(-104.386 -1.47954 0)
(-45.5212 -1.57635 0)
(-12.8672 -1.41321 0)
(3.25239 -1.26219 0)
(12.0395 -1.12552 0)
(21.4814 -1.04816 0)
(35.0394 -0.926923 0)
(55.4849 -0.858834 0)
(68.8711 -0.442189 0)
(127.908 -0.652253 0)
(369.63 -0.926055 0)
(1458.12 -3.41646 0)
(2722.13 -5.98911 0)
(2218.33 -1.83987 0)
(1209.18 52.782 0)
(788.657 -15.2094 0)
(1452.71 -8.06967 0)
(-1114.75 -6.93587e-09 0)
(-174.758 4.49741e-09 0)
(-622.667 1.97337e-08 0)
(-1091.62 6.10259e-08 0)
(-401.838 4.04606e-08 0)
(2367.94 5.71825e-08 0)
(4781.47 -1.14252e-08 0)
(2697.64 -1.62779e-08 0)
(162.447 -6.34967e-08 0)
(225.106 -7.19425e-08 0)
(71.9435 6.31414e-09 0)
(-809.086 4.64598e-08 0)
(-1681.09 1.18951e-07 0)
(-2011.92 1.5137e-07 0)
(-2191.71 2.38985e-07 0)
(-2475.19 2.47826e-07 0)
(-2239.63 1.20074e-07 0)
(-1324.68 -1.90878e-08 0)
(-576.365 -1.03828e-07 0)
(-325.567 -1.27514e-07 0)
(-271.642 -1.01462e-07 0)
(-237.769 -1.01575e-08 0)
(-177.717 7.07273e-08 0)
(-104.475 6.43283e-08 0)
(-45.5123 -4.67707e-08 0)
(-12.8403 -1.28891e-07 0)
(3.27151 -2.05985e-07 0)
(12.0505 -2.88089e-07 0)
(21.491 -1.73594e-07 0)
(35.0508 -1.38015e-07 0)
(55.5172 -1.44369e-07 0)
(68.8791 2.58783e-09 0)
(127.875 1.08184e-07 0)
(369.39 6.78245e-08 0)
(1457.74 3.70613e-08 0)
(2722.26 7.92336e-08 0)
(2223.33 1.35883e-07 0)
(1208.29 1.49214e-07 0)
(783.734 -1.23053e-08 0)
(1454.38 -2.05088e-08 0)
(-1190.74 2702.09 0)
(-138.463 2383.26 0)
(-787.317 1540.79 0)
(-1233.91 521.832 0)
(-408.967 289.934 0)
(2398.73 298.115 0)
(4763.44 568.226 0)
(2659.08 308.626 0)
(170.999 304.471 0)
(190.459 256.794 0)
(-10.0391 -16.3776 0)
(-819.907 -183.39 0)
(-1599 -183.219 0)
(-1962 -120.608 0)
(-2202.75 -80.1399 0)
(-2495.97 -73.6928 0)
(-2244.36 -53.8627 0)
(-1320.18 -17.9889 0)
(-574.263 -2.14785 0)
(-325.516 -0.124906 0)
(-271.71 -2.64464 0)
(-237.521 -1.11074 0)
(-177.502 0.631243 0)
(-104.386 1.47954 0)
(-45.5212 1.57635 0)
(-12.8672 1.41321 0)
(3.25238 1.26219 0)
(12.0395 1.12552 0)
(21.4814 1.04816 0)
(35.0394 0.926923 0)
(55.4849 0.858834 0)
(68.8711 0.442189 0)
(127.908 0.652253 0)
(369.63 0.926055 0)
(1458.12 3.41646 0)
(2722.13 5.98911 0)
(2218.33 1.83987 0)
(1209.18 -52.782 0)
(788.657 15.2094 0)
(1452.71 8.06967 0)
(98.4374 5596.99 0)
(-512.591 3690.89 0)
(-1164.17 2235.08 0)
(-1455.5 1373.77 0)
(-466.919 798.702 0)
(2448.9 898.147 0)
(4784.52 918.013 0)
(2620.91 -53.3194 0)
(147.369 -214.219 0)
(131.769 -217.429 0)
(-56.11 -281.193 0)
(-857.622 -264.185 0)
(-1662.83 -303.573 0)
(-1981.94 -298.38 0)
(-2178.07 -219.883 0)
(-2467.54 -167.968 0)
(-2223.42 -112.421 0)
(-1309.64 -40.2866 0)
(-571.168 -5.61401 0)
(-325.712 -0.912899 0)
(-271.928 -5.12389 0)
(-236.816 -2.60128 0)
(-176.963 1.26066 0)
(-104.2 3.32755 0)
(-45.5316 3.68627 0)
(-12.9317 3.3643 0)
(3.18782 2.99969 0)
(11.9883 2.63998 0)
(21.4332 2.43366 0)
(34.9958 2.09864 0)
(55.3762 1.86025 0)
(68.819 0.935799 0)
(128.016 1.09751 0)
(370.194 1.75588 0)
(1459.21 5.55941 0)
(2721.81 9.44645 0)
(2206.23 0.875578 0)
(1212.18 -79.7049 0)
(801.437 12.2764 0)
(1444.73 15.7986 0)
(-2210.04 4436.26 0)
(-1814.71 2843.85 0)
(-1805.04 1606.01 0)
(-1878.7 1418.69 0)
(-640.307 1331.85 0)
(2415.55 1577.27 0)
(4142.24 873.581 0)
(1993 -936.61 0)
(95.3787 -909.334 0)
(216.31 -660.217 0)
(13.9021 -641.569 0)
(-790.337 -685.45 0)
(-1546.64 -601.401 0)
(-1886.46 -431.91 0)
(-2149.49 -323.223 0)
(-2461.43 -280.725 0)
(-2188.48 -205.756 0)
(-1265.37 -74.5755 0)
(-553.144 -11.6887 0)
(-324.983 -3.61511 0)
(-272.516 -7.66286 0)
(-234.331 -4.64624 0)
(-174.405 1.41673 0)
(-103.079 5.40901 0)
(-45.4861 6.3806 0)
(-13.2233 5.8981 0)
(2.87269 5.22402 0)
(11.7436 4.59076 0)
(21.1976 4.21757 0)
(34.7301 3.66392 0)
(54.8812 3.11916 0)
(68.4529 1.73239 0)
(128.298 1.44555 0)
(371.777 2.50338 0)
(1461.69 7.24338 0)
(2719.56 10.3431 0)
(2176.39 -1.4448 0)
(1212.87 -72.66 0)
(833.788 -9.08446 0)
(1430.97 12.9919 0)
(-2413.4 1136.41 0)
(-2541.69 1168.18 0)
(-2193.86 886.488 0)
(-1492.76 1530.57 0)
(-221.124 2441.95 0)
(2025.18 2427 0)
(2706.46 738.344 0)
(1239.54 -1130.94 0)
(441.591 -795.047 0)
(344.463 -539.315 0)
(-117.968 -696.207 0)
(-854.995 -870.765 0)
(-1480.81 -848.07 0)
(-1765.07 -682.89 0)
(-2047.7 -545.832 0)
(-2357.62 -468.294 0)
(-2043.51 -314.869 0)
(-1146.36 -103.948 0)
(-512.453 -17.2661 0)
(-322.223 -7.50627 0)
(-272.607 -9.70478 0)
(-229.398 -5.56285 0)
(-168.646 2.31494 0)
(-100.018 8.20736 0)
(-45.0847 10.0637 0)
(-13.8898 9.57269 0)
(2.097 8.58202 0)
(11.1496 7.58853 0)
(20.6664 6.99564 0)
(34.0798 6.21993 0)
(53.7803 5.34906 0)
(67.4026 3.37315 0)
(128.608 2.46713 0)
(374.932 3.7928 0)
(1465.43 10.1999 0)
(2714.64 11.5104 0)
(2142.24 -4.93823 0)
(1204.44 -52.0281 0)
(866.626 -25.3049 0)
(1431.44 3.59657 0)
(-1983.34 -179.51 0)
(-2055.55 179.042 0)
(-1455.82 759.942 0)
(-379.8 1399.27 0)
(223.519 1986.1 0)
(773.891 1703.09 0)
(713.686 196.999 0)
(515.366 -698.544 0)
(665.491 -552.605 0)
(311.555 -746.097 0)
(-305.496 -930.074 0)
(-936.678 -1082.24 0)
(-1365.6 -999.201 0)
(-1595.21 -792.846 0)
(-1942.7 -669.478 0)
(-2238.87 -611.541 0)
(-1837.38 -392.396 0)
(-978.593 -117.61 0)
(-460.209 -20.792 0)
(-317.697 -10.8934 0)
(-270.644 -10.6006 0)
(-222.749 -4.47936 0)
(-161.136 4.94315 0)
(-95.612 12.2497 0)
(-44.1704 14.8873 0)
(-14.6511 14.505 0)
(0.960684 13.2414 0)
(10.215 11.835 0)
(19.8787 11.0269 0)
(33.1434 10.0133 0)
(52.138 8.84645 0)
(65.6758 6.23305 0)
(128.702 4.63699 0)
(379.228 6.27022 0)
(1469.13 14.6876 0)
(2704.97 14.893 0)
(2115.16 -6.98392 0)
(1193.25 -37.0299 0)
(887.39 -30.626 0)
(1445.72 -3.33628 0)
(-1777.15 -675.513 0)
(-1636.4 -389.57 0)
(-1018 370.677 0)
(-311.182 519.316 0)
(71.6443 304.416 0)
(301.131 -43.9111 0)
(392.166 -652.607 0)
(517.195 -493.644 0)
(395.767 -644.026 0)
(-19.279 -886.13 0)
(-441.891 -1119.83 0)
(-921.609 -1179.61 0)
(-1201.94 -1017.95 0)
(-1447.34 -837.351 0)
(-1872.99 -784.8 0)
(-2090.62 -725.151 0)
(-1567.54 -407.683 0)
(-788.268 -108.72 0)
(-409.617 -23.4843 0)
(-312.402 -14.239 0)
(-266.426 -10.8455 0)
(-214.42 -2.21805 0)
(-152.525 8.73044 0)
(-90.435 16.9323 0)
(-42.9113 20.027 0)
(-15.4759 19.7121 0)
(-0.475882 18.2141 0)
(9.01553 16.4766 0)
(18.9109 15.5042 0)
(31.9786 14.3002 0)
(50.1375 12.8749 0)
(63.3462 9.88944 0)
(128.644 7.58988 0)
(384.617 9.43258 0)
(1473.74 18.6719 0)
(2693.76 17.2925 0)
(2092.21 -7.90069 0)
(1181.66 -28.4448 0)
(899.094 -32.5786 0)
(1462.55 -9.2806 0)
(-1686.72 -961.915 0)
(-1047.4 -342.798 0)
(-579.989 -19.4444 0)
(-443.652 -296.868 0)
(-319.227 -680.736 0)
(-148.331 -822.857 0)
(280.306 -735.673 0)
(523.635 -584.228 0)
(287.277 -846.297 0)
(-146.942 -1041.29 0)
(-588.302 -1198.98 0)
(-838.509 -1146.55 0)
(-1035.79 -969.071 0)
(-1370.54 -878.23 0)
(-1834.58 -902.822 0)
(-1875.46 -773.033 0)
(-1243.37 -356.504 0)
(-608.365 -86.4958 0)
(-369.163 -24.4923 0)
(-305.518 -16.1936 0)
(-259.06 -9.56842 0)
(-203.885 1.61754 0)
(-142.682 13.9917 0)
(-84.7262 22.6831 0)
(-41.4917 25.9388 0)
(-16.3981 25.6482 0)
(-2.1571 24.0105 0)
(7.60363 22.0839 0)
(17.7814 21.0405 0)
(30.6097 19.725 0)
(47.8876 18.201 0)
(60.583 15.1444 0)
(128.262 12.5725 0)
(389.907 14.6752 0)
(1476.7 25.0368 0)
(2679.36 24.4266 0)
(2071.09 -2.13293 0)
(1169.47 -17.8831 0)
(905.857 -27.1543 0)
(1487.69 -8.49358 0)
(-986.486 -1274.97 0)
(-728.197 -757.189 0)
(-973.745 -1072.27 0)
(-948.427 -1207.37 0)
(-435.218 -1012.32 0)
(248.192 -639.028 0)
(622.117 -385.162 0)
(410.593 -683.952 0)
(-44.67 -955.705 0)
(-359.133 -1184.22 0)
(-543.328 -1170.98 0)
(-700.064 -1035.28 0)
(-943.376 -930.822 0)
(-1383.5 -952.722 0)
(-1771.62 -988.301 0)
(-1564.17 -710.089 0)
(-905.964 -264.296 0)
(-468.329 -67.5348 0)
(-341.871 -28.0567 0)
(-298.021 -18.8594 0)
(-249.262 -7.73986 0)
(-191.716 5.82192 0)
(-132.225 19.1019 0)
(-78.9223 27.9991 0)
(-40.0541 31.2602 0)
(-17.3341 30.9815 0)
(-3.91055 29.4263 0)
(6.15361 27.5556 0)
(16.6378 26.4268 0)
(29.2424 25.0566 0)
(45.7234 23.6109 0)
(57.9223 20.8476 0)
(128.192 18.4288 0)
(396.628 20.3992 0)
(1483.14 29.6252 0)
(2667.57 27.1609 0)
(2051.44 2.33629 0)
(1157.55 -9.91412 0)
(908.142 -21.7044 0)
(1501.53 -9.37661 0)
(-1313 -1480.75 0)
(-852.068 -1056.73 0)
(-1013.8 -1035.46 0)
(-385.883 -632.795 0)
(228.449 -245.534 0)
(456.02 -224.664 0)
(237.016 -545.869 0)
(-26.1613 -941.165 0)
(-194.8 -1130.19 0)
(-354.391 -1138.95 0)
(-444.781 -1043.7 0)
(-607.083 -944.995 0)
(-956.228 -957.465 0)
(-1425.93 -1047.5 0)
(-1600.77 -977.959 0)
(-1177.79 -547.01 0)
(-624.18 -174.615 0)
(-380.716 -55.6441 0)
(-322.258 -31.2807 0)
(-285.94 -19.7534 0)
(-235.276 -4.07764 0)
(-178.019 11.6345 0)
(-121.311 25.4438 0)
(-73.01 34.1793 0)
(-38.6177 37.2693 0)
(-18.1653 36.9476 0)
(-5.45837 35.5646 0)
(4.71319 33.8919 0)
(15.3733 32.5634 0)
(27.8962 31.2606 0)
(43.8316 29.9634 0)
(55.5893 27.6471 0)
(127.83 25.779 0)
(400.696 27.7205 0)
(1483.22 35.9302 0)
(2653.07 31.9451 0)
(2035.36 7.82962 0)
(1146.3 -3.23464 0)
(906.375 -19.367 0)
(1524.27 -11.9472 0)
(-1411.79 -468.088 0)
(-299.098 -309.084 0)
(-565.226 10.4113 0)
(-187.229 115.152 0)
(-41.9281 -134.96 0)
(-41.2213 -555.205 0)
(-68.329 -924.966 0)
(-152.478 -1036.22 0)
(-235.26 -1082.06 0)
(-275.789 -1016.02 0)
(-356.428 -918.468 0)
(-616.967 -921.916 0)
(-1042.16 -1023.1 0)
(-1403.25 -1082.15 0)
(-1289.33 -819.804 0)
(-790.035 -355.643 0)
(-432.466 -115.68 0)
(-330.206 -51.1448 0)
(-307.286 -33.0478 0)
(-271.807 -17.2371 0)
(-219.016 0.540526 0)
(-163.269 17.8994 0)
(-110.5 31.9424 0)
(-67.5269 40.3823 0)
(-37.3865 43.3856 0)
(-18.9768 43.2178 0)
(-6.85513 42.0493 0)
(3.26163 40.6183 0)
(14.1021 39.2684 0)
(26.7368 38.2816 0)
(42.2414 37.2963 0)
(53.8901 35.7256 0)
(128.263 35.0034 0)
(406.41 37.184 0)
(1487.21 44.1969 0)
(2640.5 39.3504 0)
(2017.54 17.4035 0)
(1131.34 7.15054 0)
(899.747 -12.9198 0)
(1536.75 -12.5424 0)
(-540.925 279.398 0)
(-390.969 72.7273 0)
(-604.991 253.44 0)
(-525.968 -6.03699 0)
(-417.531 -485.124 0)
(-305.259 -816.043 0)
(-226.506 -994.628 0)
(-177.54 -1002.88 0)
(-175.337 -957.67 0)
(-196.75 -873.151 0)
(-354.098 -863.972 0)
(-707.909 -957.585 0)
(-1110.63 -1066.27 0)
(-1230.03 -968.344 0)
(-900.682 -555.624 0)
(-499.267 -206.723 0)
(-330.755 -77.8692 0)
(-301.089 -44.5793 0)
(-289.583 -28.7185 0)
(-253.573 -8.56902 0)
(-201.417 11.3625 0)
(-147.759 29.7085 0)
(-99.6457 43.2528 0)
(-61.9829 50.8704 0)
(-35.8854 53.3941 0)
(-19.453 53.0959 0)
(-7.96334 51.8474 0)
(2.03346 50.3784 0)
(13.1216 49.0085 0)
(25.9958 48.1586 0)
(41.3686 47.4187 0)
(53.3798 46.5959 0)
(129.235 47.1124 0)
(409.556 49.4631 0)
(1485.31 54.7626 0)
(2627.25 47.8534 0)
(2004.33 26.8651 0)
(1117.08 17.113 0)
(887.399 -6.58184 0)
(1549.6 -13.4955 0)
(-481.164 148.492 0)
(-324.112 100.367 0)
(-641.126 220.306 0)
(-898.937 -137.156 0)
(-822.479 -625.192 0)
(-532.197 -916.898 0)
(-248.374 -946.412 0)
(-116.864 -872.646 0)
(-110.247 -811.997 0)
(-185.498 -782.887 0)
(-437.792 -867.337 0)
(-811.911 -991.21 0)
(-1052.52 -995.646 0)
(-911.165 -704.539 0)
(-555.4 -312.885 0)
(-329.653 -116.239 0)
(-276.219 -52.2325 0)
(-282.843 -32.758 0)
(-272.585 -15.4138 0)
(-233.183 6.98802 0)
(-182.13 28.7232 0)
(-132.538 46.9085 0)
(-90.1079 59.5247 0)
(-57.7543 66.0458 0)
(-35.2419 67.7986 0)
(-20.4673 67.0165 0)
(-9.47382 65.4004 0)
(0.525984 63.6651 0)
(11.9629 62.143 0)
(25.2049 61.2851 0)
(40.7355 60.6879 0)
(53.5949 60.5399 0)
(131.026 62.298 0)
(413.783 64.2621 0)
(1485.66 67.1093 0)
(2613.61 56.7519 0)
(1987.91 37.7007 0)
(1099.11 30.8174 0)
(870.251 -0.336259 0)
(1550.24 -17.8922 0)
(-206.593 138.64 0)
(-321.766 119.394 0)
(-833.876 64.2491 0)
(-1340.72 -262.285 0)
(-1168.92 -727.993 0)
(-614.799 -863.525 0)
(-183.862 -793.412 0)
(-48.0124 -731.42 0)
(-88.8424 -699.255 0)
(-250.078 -751.726 0)
(-554.846 -878.925 0)
(-831.551 -933.07 0)
(-834.388 -758.953 0)
(-572.094 -405.063 0)
(-333.775 -155.379 0)
(-248.093 -56.3571 0)
(-250.31 -26.8987 0)
(-265.609 -10.8775 0)
(-251.283 10.2697 0)
(-211.041 33.5595 0)
(-162.949 54.9527 0)
(-118.077 71.2475 0)
(-81.2042 81.5133 0)
(-54.0099 85.9049 0)
(-34.95 86.0662 0)
(-21.7641 84.1559 0)
(-11.1929 81.84 0)
(-1.10545 79.567 0)
(10.8281 77.976 0)
(24.5936 77.3979 0)
(40.6505 77.5272 0)
(54.9313 78.3515 0)
(132.822 81.607 0)
(414.192 84.1589 0)
(1478.07 87.0334 0)
(2598.91 75.1479 0)
(1979.34 57.0911 0)
(1080.43 51.8991 0)
(840.46 13.9476 0)
(1554.08 -15.9568 0)
(-15.4574 -3.77312 0)
(-395.798 -38.2493 0)
(-1008.93 -191.677 0)
(-1662.37 -340.256 0)
(-1401.86 -659.665 0)
(-595.237 -680.644 0)
(-121.072 -619.29 0)
(-26.1313 -613.793 0)
(-129.815 -634.645 0)
(-358.635 -736.787 0)
(-612.542 -823.829 0)
(-696.302 -734.207 0)
(-543.716 -446.249 0)
(-329.539 -183.78 0)
(-219.375 -60.1142 0)
(-205.845 -13.7525 0)
(-232.393 -0.0601058 0)
(-247.026 12.3614 0)
(-229.764 31.7921 0)
(-190.125 53.2039 0)
(-145.813 72.6444 0)
(-106.943 87.1999 0)
(-75.9835 96.0282 0)
(-53.367 99.5809 0)
(-36.9273 99.4944 0)
(-24.5399 97.8476 0)
(-13.8959 96.0479 0)
(-3.1975 94.2378 0)
(9.87275 93.6954 0)
(24.7724 94.9344 0)
(41.6545 97.0848 0)
(57.5263 100.138 0)
(136.622 105.856 0)
(419.012 110.556 0)
(1476.98 115.081 0)
(2584.76 100.779 0)
(1965.51 86.2645 0)
(1057.53 83.1248 0)
(804.863 33.8375 0)
(1527.09 -17.5352 0)
(-79.6819 -173.108 0)
(-502.837 -172.191 0)
(-1124.9 -295.612 0)
(-1791.69 -299.068 0)
(-1496.93 -431.011 0)
(-575.892 -456.418 0)
(-119.443 -473.838 0)
(-62.8096 -524.462 0)
(-207.364 -602.605 0)
(-432.382 -679.214 0)
(-552.36 -637.18 0)
(-467.702 -428.676 0)
(-303.976 -185.92 0)
(-200 -40.4986 0)
(-169.93 21.6193 0)
(-190.223 41.4331 0)
(-225.145 49.2124 0)
(-234.915 63.6554 0)
(-211.925 86.8626 0)
(-171.674 111.907 0)
(-130.189 134.617 0)
(-95.544 153.531 0)
(-69.2735 167.11 0)
(-50.6697 175.644 0)
(-36.6202 180.691 0)
(-25.0853 184.308 0)
(-14.6715 186.996 0)
(-3.37235 189.077 0)
(11.4994 191.386 0)
(27.8597 195.728 0)
(45.6649 199.01 0)
(63.3838 203.882 0)
(142.861 210.117 0)
(423.081 218.733 0)
(1468.65 228.495 0)
(2571.14 213.44 0)
(1962.33 193.058 0)
(1029.9 166.122 0)
(743.461 76.7807 0)
(1499.87 -14.839 0)
(-332.85 -262.765 0)
(-513.847 -163.13 0)
(-1131.19 -147.496 0)
(-1792.85 -86.7511 0)
(-1553.48 -149.969 0)
(-636.507 -251.053 0)
(-186.642 -321.734 0)
(-150.215 -394.296 0)
(-278.94 -466.037 0)
(-391.953 -433.603 0)
(-371.114 -266.359 0)
(-261.451 -54.1495 0)
(-169.654 86.2215 0)
(-129.546 159.991 0)
(-140.423 197.678 0)
(-179.255 215.13 0)
(-210.979 234.45 0)
(-210.745 265.76 0)
(-183.267 304.327 0)
(-144.107 342.065 0)
(-105.702 376.663 0)
(-75.6322 407.93 0)
(-54.6745 435.551 0)
(-40.28 459.434 0)
(-28.5785 480.205 0)
(-18.4641 500.085 0)
(-9.30008 514.505 0)
(1.03361 529.665 0)
(16.2817 541.818 0)
(32.1184 554.114 0)
(49.5115 560.511 0)
(68.2294 571.114 0)
(150.933 576.561 0)
(436.722 593.9 0)
(1471.88 612.303 0)
(2550.61 587.364 0)
(1919.91 505.376 0)
(945.484 393.377 0)
(630.482 178.754 0)
(1410.63 -19.5075 0)
(-565.773 -180.193 0)
(-391.76 -25.2443 0)
(-1051.3 155.215 0)
(-1794.07 316.621 0)
(-1655.26 249 0)
(-741.41 101.177 0)
(-257.477 56.8769 0)
(-201.865 68.0555 0)
(-245.241 114.598 0)
(-239.966 272.734 0)
(-186.705 472.576 0)
(-127.942 646.093 0)
(-97.6221 774.025 0)
(-92.5974 875.432 0)
(-116.797 959.489 0)
(-154.788 1032.86 0)
(-176.356 1107.44 0)
(-167.579 1185.58 0)
(-138.395 1260.82 0)
(-101.968 1327.91 0)
(-66.719 1389.11 0)
(-38.7974 1447.98 0)
(-19.6423 1501.14 0)
(-7.63908 1545.81 0)
(2.552 1582.23 0)
(7.96744 1615.47 0)
(13.8332 1637.19 0)
(22.9468 1661.71 0)
(35.0593 1678.48 0)
(45.8738 1694.8 0)
(62.0465 1700.66 0)
(78.8496 1709.55 0)
(164.819 1704.41 0)
(457.524 1714.54 0)
(1462.35 1704.9 0)
(2468.1 1571.06 0)
(1775.4 1288.55 0)
(715.16 926.419 0)
(345.59 433.454 0)
(1281.59 56.589 0)
(-609.321 -75.0826 0)
(-190.636 202.47 0)
(-801.755 742.638 0)
(-1702.47 1219.17 0)
(-1761.09 1295.67 0)
(-821.644 1172.3 0)
(-218.559 1161.72 0)
(-94.593 1270.03 0)
(-81.7045 1419.6 0)
(-46.9925 1619.05 0)
(-11.3315 1795.21 0)
(29.0365 1949.93 0)
(51.3457 2078.04 0)
(49.1734 2184.78 0)
(11.278 2261.63 0)
(-36.6889 2325.07 0)
(-63.8113 2387.59 0)
(-62.9353 2450.24 0)
(-46.1151 2508.28 0)
(-20.4856 2557.93 0)
(10.0088 2597.22 0)
(32.3254 2630.6 0)
(39.5947 2650.18 0)
(37.8586 2661.31 0)
(38.5534 2665.3 0)
(34.4944 2667.38 0)
(35.2503 2665.61 0)
(40.826 2664.16 0)
(48.1709 2659.18 0)
(53.4909 2653.61 0)
(63.7309 2645.35 0)
(71.8431 2634.02 0)
(155.733 2622.87 0)
(437.196 2601.93 0)
(1333.62 2536.99 0)
(2149.4 2209.72 0)
(1298.71 1766.57 0)
(121.484 1403.9 0)
(-207.717 722.432 0)
(843.93 125.118 0)
(-498.887 -122.488 0)
(396.225 402.102 0)
(-71.5742 1119.1 0)
(-1261.15 1563.14 0)
(-1700.42 1902.26 0)
(-870.485 1959.42 0)
(-163.304 1956.6 0)
(46.6357 2006.68 0)
(91.0934 2085.88 0)
(121.981 2163.16 0)
(132.136 2220.79 0)
(144.605 2257.31 0)
(128.694 2264.85 0)
(84.3141 2237.6 0)
(18.3906 2190.24 0)
(-33.4088 2150.47 0)
(-55.7409 2128.63 0)
(-51.2756 2123.56 0)
(-34.6181 2132.09 0)
(-16.2592 2151.42 0)
(3.30603 2164.41 0)
(12.2353 2124.73 0)
(9.95149 2059.25 0)
(6.9295 2011.02 0)
(8.40558 1975.29 0)
(8.27268 1946.09 0)
(10.726 1924.9 0)
(16.7475 1903.08 0)
(24.8921 1885.61 0)
(32.5487 1866.13 0)
(43.1748 1853.66 0)
(57.1788 1837.57 0)
(133.889 1837.31 0)
(374.767 1793.73 0)
(1084.4 1690.21 0)
(1725.7 1210.32 0)
(998.884 827.548 0)
(-291.008 1024.37 0)
(-886.693 662.06 0)
(380.779 9.89815 0)
(-636.896 4060.86 0)
(1005.81 -291.183 0)
(317.065 455.813 0)
(-947.793 557.215 0)
(-1379.23 1103.79 0)
(-769.279 1437.89 0)
(-173.012 1504.31 0)
(29.9882 1478.9 0)
(69.0815 1466.96 0)
(83.0114 1436.82 0)
(79.3926 1414.03 0)
(71.4906 1378.26 0)
(32.3571 1328.74 0)
(-22.7251 1262.97 0)
(-72.691 1211.23 0)
(-96.054 1182.91 0)
(-89.7407 1173.88 0)
(-59.601 1176.35 0)
(-19.2639 1180.75 0)
(10.6584 1178.4 0)
(-15.7157 1169.44 0)
(-69.0144 1150.11 0)
(-69.9813 1133.99 0)
(-43.0488 1112.1 0)
(-24.0099 1091.09 0)
(-14.0577 1073.91 0)
(-6.20002 1060.02 0)
(2.96448 1044.62 0)
(12.5713 1031.63 0)
(22.7033 1015.05 0)
(36.2061 999.175 0)
(56.0875 980.677 0)
(113.489 962.208 0)
(295.44 896.512 0)
(771.425 713 0)
(1318.11 157.056 0)
(1119.52 -372.856 0)
(-37.9865 -160.395 0)
(-1185.3 -509.052 0)
(428.201 3040.09 0)
(-1530.01 232588 0)
(-3077.73 2019.81 0)
(745.974 -1004.25 0)
(-636.742 -880.969 0)
(-851.767 -267.392 0)
(-484.526 170.172 0)
(-123.786 316.18 0)
(10.6441 333.205 0)
(50.5383 360.28 0)
(70.9731 370.277 0)
(75.7114 388.575 0)
(62.4145 394.753 0)
(17.5923 400.906 0)
(-28.9166 419.306 0)
(-58.7524 458.063 0)
(-69.4028 509.941 0)
(-62.0661 569.729 0)
(-44.655 619.813 0)
(-32.6433 646.276 0)
(-27.1588 646.905 0)
(-23.9522 639.127 0)
(-21.9277 681.13 0)
(-26.682 744.882 0)
(-34.4127 787.59 0)
(-28.3967 815.025 0)
(-21.6679 832.775 0)
(-17.4926 842.611 0)
(-10.6088 847.914 0)
(-3.60044 847.167 0)
(1.27691 840.023 0)
(10.0473 822.588 0)
(21.5562 800.678 0)
(52.7845 757.342 0)
(134.622 676.122 0)
(371.837 438.526 0)
(679.328 -80.9813 0)
(692.976 -811.429 0)
(-422.251 -1193.61 0)
(2197.41 2033.79 0)
(2828.06 172638 0)
(213115 -222740 0)
(-224093 4101.08 0)
(-2478.23 331.366 0)
(-237.734 243.652 0)
(-366.31 1062.31 0)
(-206.928 1750.24 0)
(-15.9069 1963.86 0)
(72.485 1954.84 0)
(104.806 1874.71 0)
(110.278 1761.87 0)
(102.978 1651.09 0)
(83.3733 1542.3 0)
(56.0175 1477.32 0)
(32.3538 1456.77 0)
(14.648 1471.51 0)
(11.5506 1504.39 0)
(16.1363 1536.61 0)
(14.1631 1557.55 0)
(6.84238 1571.61 0)
(3.76882 1590.58 0)
(17.2646 1611.2 0)
(32.8954 1613.83 0)
(32.6081 1612.28 0)
(24.5439 1621.35 0)
(19.5314 1637.81 0)
(12.5242 1644.01 0)
(8.38874 1657.33 0)
(7.35518 1658.63 0)
(4.96706 1661.82 0)
(-0.981402 1653.71 0)
(-1.70805 1652.95 0)
(-6.78629 1625.97 0)
(-6.53765 1608.33 0)
(-11.7825 1532.48 0)
(41.8526 1422.98 0)
(113.606 1002.7 0)
(47.3523 498.241 0)
(2703.77 420.512 0)
(166325 2922.92 0)
(-155838 -161946 0)
(213115 222740 0)
(-224093 -4101.08 0)
(-2478.23 -331.366 0)
(-237.734 -243.652 0)
(-366.31 -1062.31 0)
(-206.928 -1750.24 0)
(-15.9069 -1963.86 0)
(72.485 -1954.84 0)
(104.806 -1874.71 0)
(110.278 -1761.87 0)
(102.978 -1651.09 0)
(83.3733 -1542.3 0)
(56.0175 -1477.32 0)
(32.3538 -1456.77 0)
(14.648 -1471.51 0)
(11.5506 -1504.39 0)
(16.1363 -1536.61 0)
(14.1631 -1557.55 0)
(6.84238 -1571.61 0)
(3.76882 -1590.58 0)
(17.2646 -1611.2 0)
(32.8954 -1613.83 0)
(32.6081 -1612.28 0)
(24.5439 -1621.35 0)
(19.5314 -1637.81 0)
(12.5242 -1644.01 0)
(8.38874 -1657.33 0)
(7.35518 -1658.63 0)
(4.96706 -1661.82 0)
(-0.981402 -1653.71 0)
(-1.70805 -1652.95 0)
(-6.78629 -1625.97 0)
(-6.53765 -1608.33 0)
(-11.7825 -1532.48 0)
(41.8526 -1422.98 0)
(113.606 -1002.7 0)
(47.3523 -498.241 0)
(2703.77 -420.512 0)
(166325 -2922.92 0)
(-155838 161946 0)
(-1530.01 -232588 0)
(-3077.73 -2019.81 0)
(745.974 1004.25 0)
(-636.742 880.969 0)
(-851.767 267.392 0)
(-484.526 -170.172 0)
(-123.786 -316.18 0)
(10.6441 -333.205 0)
(50.5383 -360.28 0)
(70.9731 -370.277 0)
(75.7114 -388.575 0)
(62.4145 -394.753 0)
(17.5923 -400.906 0)
(-28.9166 -419.306 0)
(-58.7524 -458.063 0)
(-69.4028 -509.941 0)
(-62.0661 -569.729 0)
(-44.655 -619.813 0)
(-32.6433 -646.276 0)
(-27.1588 -646.905 0)
(-23.9522 -639.127 0)
(-21.9277 -681.13 0)
(-26.682 -744.882 0)
(-34.4127 -787.59 0)
(-28.3967 -815.025 0)
(-21.6679 -832.775 0)
(-17.4926 -842.611 0)
(-10.6088 -847.914 0)
(-3.60044 -847.167 0)
(1.27691 -840.023 0)
(10.0473 -822.588 0)
(21.5562 -800.678 0)
(52.7845 -757.342 0)
(134.622 -676.122 0)
(371.837 -438.526 0)
(679.328 80.9813 0)
(692.976 811.429 0)
(-422.251 1193.61 0)
(2197.41 -2033.79 0)
(2828.06 -172638 0)
(-636.896 -4060.86 0)
(1005.81 291.183 0)
(317.065 -455.813 0)
(-947.793 -557.215 0)
(-1379.23 -1103.79 0)
(-769.279 -1437.89 0)
(-173.012 -1504.31 0)
(29.9882 -1478.9 0)
(69.0815 -1466.96 0)
(83.0114 -1436.82 0)
(79.3926 -1414.03 0)
(71.4906 -1378.26 0)
(32.3571 -1328.74 0)
(-22.7251 -1262.97 0)
(-72.691 -1211.23 0)
(-96.054 -1182.91 0)
(-89.7407 -1173.88 0)
(-59.601 -1176.35 0)
(-19.2639 -1180.75 0)
(10.6584 -1178.4 0)
(-15.7157 -1169.44 0)
(-69.0144 -1150.11 0)
(-69.9813 -1133.99 0)
(-43.0488 -1112.1 0)
(-24.0099 -1091.09 0)
(-14.0577 -1073.91 0)
(-6.20002 -1060.02 0)
(2.96448 -1044.62 0)
(12.5713 -1031.63 0)
(22.7033 -1015.05 0)
(36.2061 -999.175 0)
(56.0875 -980.677 0)
(113.489 -962.208 0)
(295.44 -896.512 0)
(771.425 -713 0)
(1318.11 -157.056 0)
(1119.52 372.856 0)
(-37.9865 160.395 0)
(-1185.3 509.052 0)
(428.201 -3040.09 0)
(-498.887 122.488 0)
(396.225 -402.102 0)
(-71.5742 -1119.1 0)
(-1261.15 -1563.14 0)
(-1700.42 -1902.26 0)
(-870.485 -1959.42 0)
(-163.304 -1956.6 0)
(46.6357 -2006.68 0)
(91.0934 -2085.88 0)
(121.981 -2163.16 0)
(132.136 -2220.79 0)
(144.605 -2257.31 0)
(128.694 -2264.85 0)
(84.3141 -2237.6 0)
(18.3906 -2190.24 0)
(-33.4088 -2150.47 0)
(-55.7409 -2128.63 0)
(-51.2756 -2123.56 0)
(-34.6181 -2132.09 0)
(-16.2592 -2151.42 0)
(3.30603 -2164.41 0)
(12.2353 -2124.73 0)
(9.95149 -2059.25 0)
(6.9295 -2011.02 0)
(8.40558 -1975.29 0)
(8.27268 -1946.09 0)
(10.726 -1924.9 0)
(16.7475 -1903.08 0)
(24.8921 -1885.61 0)
(32.5487 -1866.13 0)
(43.1748 -1853.66 0)
(57.1788 -1837.57 0)
(133.889 -1837.31 0)
(374.767 -1793.73 0)
(1084.4 -1690.21 0)
(1725.7 -1210.32 0)
(998.884 -827.548 0)
(-291.008 -1024.37 0)
(-886.693 -662.06 0)
(380.779 -9.89815 0)
(-609.321 75.0826 0)
(-190.636 -202.47 0)
(-801.755 -742.638 0)
(-1702.47 -1219.17 0)
(-1761.09 -1295.67 0)
(-821.644 -1172.3 0)
(-218.559 -1161.72 0)
(-94.593 -1270.03 0)
(-81.7045 -1419.6 0)
(-46.9925 -1619.05 0)
(-11.3315 -1795.21 0)
(29.0365 -1949.93 0)
(51.3457 -2078.04 0)
(49.1734 -2184.78 0)
(11.278 -2261.63 0)
(-36.6889 -2325.07 0)
(-63.8113 -2387.59 0)
(-62.9353 -2450.24 0)
(-46.1151 -2508.28 0)
(-20.4856 -2557.93 0)
(10.0088 -2597.22 0)
(32.3254 -2630.6 0)
(39.5947 -2650.18 0)
(37.8586 -2661.31 0)
(38.5534 -2665.3 0)
(34.4944 -2667.38 0)
(35.2503 -2665.61 0)
(40.826 -2664.16 0)
(48.1709 -2659.18 0)
(53.4909 -2653.61 0)
(63.7309 -2645.35 0)
(71.8431 -2634.02 0)
(155.733 -2622.87 0)
(437.196 -2601.93 0)
(1333.62 -2536.99 0)
(2149.4 -2209.72 0)
(1298.71 -1766.57 0)
(121.484 -1403.9 0)
(-207.717 -722.432 0)
(843.93 -125.118 0)
(-565.773 180.193 0)
(-391.76 25.2443 0)
(-1051.3 -155.215 0)
(-1794.07 -316.621 0)
(-1655.26 -249 0)
(-741.41 -101.177 0)
(-257.477 -56.8769 0)
(-201.865 -68.0555 0)
(-245.241 -114.598 0)
(-239.966 -272.734 0)
(-186.705 -472.576 0)
(-127.942 -646.093 0)
(-97.6221 -774.025 0)
(-92.5974 -875.432 0)
(-116.797 -959.489 0)
(-154.788 -1032.86 0)
(-176.356 -1107.44 0)
(-167.579 -1185.58 0)
(-138.395 -1260.82 0)
(-101.968 -1327.91 0)
(-66.719 -1389.11 0)
(-38.7974 -1447.98 0)
(-19.6423 -1501.14 0)
(-7.63908 -1545.81 0)
(2.552 -1582.23 0)
(7.96744 -1615.47 0)
(13.8332 -1637.19 0)
(22.9468 -1661.71 0)
(35.0593 -1678.48 0)
(45.8738 -1694.8 0)
(62.0465 -1700.66 0)
(78.8496 -1709.55 0)
(164.819 -1704.41 0)
(457.524 -1714.54 0)
(1462.35 -1704.9 0)
(2468.1 -1571.06 0)
(1775.4 -1288.55 0)
(715.16 -926.419 0)
(345.59 -433.454 0)
(1281.59 -56.589 0)
(-332.85 262.765 0)
(-513.847 163.13 0)
(-1131.19 147.496 0)
(-1792.85 86.7511 0)
(-1553.48 149.969 0)
(-636.507 251.053 0)
(-186.642 321.734 0)
(-150.215 394.296 0)
(-278.94 466.037 0)
(-391.953 433.603 0)
(-371.114 266.359 0)
(-261.451 54.1495 0)
(-169.654 -86.2215 0)
(-129.546 -159.991 0)
(-140.423 -197.678 0)
(-179.255 -215.13 0)
(-210.979 -234.45 0)
(-210.745 -265.76 0)
(-183.267 -304.327 0)
(-144.107 -342.065 0)
(-105.702 -376.663 0)
(-75.6322 -407.93 0)
(-54.6745 -435.551 0)
(-40.28 -459.434 0)
(-28.5785 -480.205 0)
(-18.4641 -500.085 0)
(-9.30008 -514.505 0)
(1.03361 -529.665 0)
(16.2817 -541.818 0)