/*--------------------------------*- C++ -*----------------------------------*\
| =========                 |                                                 |
| \\      /  F ield         | OpenFOAM: The Open Source CFD Toolbox           |
|  \\    /   O peration     | Version:  v1912                                 |
|   \\  /    A nd           | Website:  www.openfoam.com                      |
|    \\/     M anipulation  |                                                 |
\*---------------------------------------------------------------------------*/
FoamFile
{
    version     2.0;
    format      ascii;
    class       volVectorField;
    location    "8.36";
    object      grad(rho);
}
// * * * * * * * * * * * * * * * * * * * * * * * * * * * * * * * * * * * * * //

dimensions      [1 -4 0 0 0 0 0];


internalField   nonuniform List<vector> 
1900
(
(-5132.42 -0.236933 0)
(-14552.2 0.101612 0)
(4278.34 0.00293167 0)
(1987.53 0.854568 0)
(-24.0296 0.744211 0)
(-656.771 -0.496406 0)
(-928.573 -2.32934 0)
(-815.735 2.7448 0)
(-392.181 6.73004 0)
(826.821 -41.1333 0)
(-5132.56 -0.450877 0)
(-14552 0.201234 0)
(4279.1 0.138298 0)
(1988.27 1.57772 0)
(-25.3806 1.24184 0)
(-659.844 -0.893239 0)
(-925.332 -4.89495 0)
(-806.676 -6.06621 0)
(-436.059 -50.0037 0)
(-155.528 -113.914 0)
(-5132.67 4.44089e-09 0)
(-14551.6 6.96332e-09 0)
(4279.72 7.33635e-09 0)
(1988.63 6.25278e-09 0)
(-26.5006 6.43041e-09 0)
(-662.908 3.76588e-09 0)
(-933.746 -2.41585e-09 0)
(-860.844 -5.15143e-10 0)
(-500.029 3.73035e-10 0)
(-267.262 5.50671e-10 0)
(-5132.56 0.450877 0)
(-14552 -0.201234 0)
(4279.1 -0.138298 0)
(1988.27 -1.57772 0)
(-25.3806 -1.24184 0)
(-659.844 0.893239 0)
(-925.332 4.89495 0)
(-806.676 6.06621 0)
(-436.059 50.0037 0)
(-155.528 113.914 0)
(-5132.42 0.236933 0)
(-14552.2 -0.101612 0)
(4278.34 -0.00293166 0)
(1987.53 -0.854568 0)
(-24.0296 -0.744211 0)
(-656.771 0.496406 0)
(-928.573 2.32934 0)
(-815.735 -2.7448 0)
(-392.181 -6.73004 0)
(826.821 41.1333 0)
(40.4716 -848.474 1.23646e-11)
(-2098.06 -647.173 -1.46253e-11)
(-3412.1 -659.183 -1.83604e-11)
(-3797.97 -785.852 0)
(-25806.8 -7324.09 -7.5925e-11)
(-470.797 -1009.88 1.22112e-11)
(-1416.93 -774.06 1.46253e-11)
(-3161.94 -657.769 1.83604e-11)
(-6278.77 -303.998 0)
(-24105.5 -6098.29 0)
(-807.884 -3.21804e-11 0)
(-1415.19 1.38291e-09 0)
(-2928.21 7.40149e-11 0)
(-6070.33 1.07658e-09 0)
(-26323 -2.22045e-09 0)
(-470.797 1009.88 1.22112e-11)
(-1416.93 774.06 1.46253e-11)
(-3161.94 657.769 1.83604e-11)
(-6278.77 303.998 0)
(-24105.5 6098.29 0)
(40.4716 848.474 -3.6787e-11)
(-2098.06 647.173 -1.46253e-11)
(-3412.1 659.183 -1.83604e-11)
(-3797.97 785.852 -4.8835e-11)
(-25806.8 7324.09 7.5925e-11)
(-43681.5 14744.8 1.74117e-11)
(-15683.2 6351.06 -9.92664e-12)
(-7887.19 3094.06 0)
(-5783.84 2128.83 4.89361e-12)
(-1621.75 1333.8 -1.7275e-12)
(-39200.1 19143.9 -8.92788e-12)
(-18224.7 5548.27 5.05895e-12)
(-8919.11 1882.75 0)
(-6271.84 1262.63 -3.10808e-12)
(-3390 328.051 4.44387e-13)
(-40733 -1.34572e-09 0)
(-20087.1 -7.21171e-10 0)
(-9236.61 1.05266e-09 0)
(-6460.7 -2.46716e-10 1.25844e-12)
(-3466.53 9.7388e-10 -8.88774e-13)
(-39200.1 -19143.9 -8.92788e-12)
(-18224.7 -5548.27 5.05895e-12)
(-8919.11 -1882.75 0)
(-6271.84 -1262.63 -3.10808e-12)
(-3390 -328.051 4.44387e-13)
(-43681.5 -14744.8 8.92788e-12)
(-15683.2 -6351.06 -1.91273e-13)
(-7887.19 -3094.06 0)
(-5783.84 -2128.83 6.41134e-14)
(-1621.75 -1333.8 1.7275e-12)
(1887.1 -8334.23 0)
(735.779 -6664.79 0)
(-106.613 -4350.42 0)
(-361.164 -3712.61 0)
(-596.68 -3509.93 0)
(-819.379 -3452.16 0)
(-910.166 -3394.12 0)
(-1154.35 -3156.71 0)
(-1294.84 -2893.44 0)
(-540.347 -2226.79 0)
(1180.63 -2123.67 0)
(4044.83 -2153.26 0)
(3613.23 -2264.3 0)
(542.164 -1773.18 0)
(-575.787 -1422.16 0)
(-802.877 -1063.76 0)
(-571.81 -941.171 0)
(-287.485 -984.855 0)
(-84.7074 -857.824 0)
(-173.623 -480.879 0)
(-756.175 -116.106 0)
(-1549.22 133.16 0)
(-2396.16 195.348 0)
(-3310.55 185.859 0)
(-3275.67 134.543 0)
(-1753.04 41.3871 0)
(-426.071 1.39475 0)
(-57.3076 -1.33801 0)
(572.175 -0.836895 0)
(2035.46 0.830965 0)
(2455.9 -0.744885 0)
(1505.9 -6.49272 0)
(926.233 -7.68013 0)
(770.046 -6.00307 0)
(674.372 -2.45249 0)
(635.701 3.47694 0)
(750.579 8.25668 0)
(931.541 11.6497 0)
(982.438 18.2348 0)
(1053.61 18.4566 0)
(270.54 -3469.13 0)
(952.57 -4896.63 0)
(315.392 -3316 0)
(-315.359 -2720.82 0)
(-626.464 -2404.66 0)
(-804.158 -2265.28 0)
(-794.806 -2177.85 0)
(-1004.49 -1890.88 0)
(-1098.65 -1664.03 0)
(-418.183 -1144.59 0)
(1202.98 -1123.25 0)
(4005.86 -1117.36 0)
(3610.85 -1444.17 0)
(656.587 -1093.24 0)
(-458.663 -910.226 0)
(-690.743 -665.562 0)
(-501.013 -421.848 0)
(-246.996 -277.467 0)
(-42.1984 -207.972 0)
(-127.601 -113.977 0)
(-712.392 348.916 0)
(-1520.93 499.719 0)
(-2379.27 264.558 0)
(-3309.13 132.762 0)
(-3299.14 58.2122 0)
(-1773.05 11.363 0)
(-430.763 0.206745 0)
(-57.5069 -0.563189 0)
(572.3 -0.300303 0)
(2035.42 0.313667 0)
(2455.19 -0.303156 0)
(1505.19 -3.50971 0)
(926.178 -4.27965 0)
(770.478 -3.80457 0)
(675.584 -1.90763 0)
(637.059 2.34644 0)
(751.716 4.30704 0)
(933.276 5.28579 0)
(983.968 7.73128 0)
(1049.98 8.39396 0)
(133.028 -3.39123e-10 0)
(780.324 4.44089e-10 0)
(526.352 1.12233e-09 0)
(-96.0445 1.30804e-09 0)
(-464.16 3.95643e-10 0)
(-753.399 -3.39123e-10 0)
(-801.251 8.23584e-10 0)
(-1004.88 2.09933e-09 0)
(-1077.74 1.17885e-09 0)
(-383.029 -5.32907e-10 0)
(1188.55 -3.63346e-10 0)
(3951.47 -4.03717e-11 0)
(3620.25 5.07069e-09 0)
(697.493 -1.09811e-09 0)
(-451.371 2.97136e-09 0)
(-660.803 3.56886e-09 0)
(-458.91 6.96009e-09 0)
(-225.267 1.7045e-08 0)
(-37.1468 1.16271e-08 0)
(-11.6194 1.00526e-08 0)
(-577.646 6.04769e-09 0)
(-1573.76 -5.65204e-11 0)
(-2502.91 -5.5713e-09 0)
(-3370.57 -1.06824e-08 0)
(-3310.98 -4.52164e-09 0)
(-1769.91 -5.65204e-10 0)
(-429.54 4.3763e-09 0)
(-57.4551 -5.24833e-11 0)
(572.43 2.04281e-09 0)
(2035.46 1.23215e-08 0)
(2454.79 -5.83775e-09 0)
(1504.75 -1.37345e-08 0)
(926.147 -6.02346e-09 0)
(770.736 -1.64717e-09 0)
(676.162 -2.03474e-09 0)
(637.509 -3.79494e-09 0)
(751.434 -3.01173e-09 0)
(932.537 -3.59309e-09 0)
(983.342 -1.5745e-09 0)
(1053.25 1.59065e-09 0)
(270.54 3469.13 0)
(952.57 4896.63 0)
(315.392 3316 0)
(-315.359 2720.82 0)
(-626.464 2404.66 0)
(-804.158 2265.28 0)
(-794.806 2177.85 0)
(-1004.49 1890.88 0)
(-1098.65 1664.03 0)
(-418.183 1144.59 0)
(1202.98 1123.25 0)
(4005.86 1117.36 0)
(3610.85 1444.17 0)
(656.587 1093.24 0)
(-458.663 910.226 0)
(-690.743 665.562 0)
(-501.013 421.848 0)
(-246.996 277.467 0)
(-42.1984 207.972 0)
(-127.601 113.977 0)
(-712.392 -348.916 0)
(-1520.93 -499.719 0)
(-2379.27 -264.558 0)
(-3309.13 -132.762 0)
(-3299.14 -58.2122 0)
(-1773.05 -11.363 0)
(-430.763 -0.206745 0)
(-57.5069 0.563189 0)
(572.3 0.300303 0)
(2035.42 -0.313667 0)
(2455.19 0.303156 0)
(1505.19 3.50971 0)
(926.178 4.27965 0)
(770.478 3.80457 0)
(675.584 1.90763 0)
(637.059 -2.34644 0)
(751.716 -4.30704 0)
(933.276 -5.28579 0)
(983.968 -7.73128 0)
(1049.98 -8.39396 0)
(1887.1 8334.23 0)
(735.779 6664.79 0)
(-106.613 4350.42 0)
(-361.164 3712.61 0)
(-596.68 3509.93 0)
(-819.379 3452.16 0)
(-910.166 3394.12 0)
(-1154.35 3156.71 0)
(-1294.84 2893.44 0)
(-540.347 2226.79 0)
(1180.63 2123.67 0)
(4044.83 2153.26 0)
(3613.23 2264.3 0)
(542.164 1773.18 0)
(-575.787 1422.16 0)
(-802.877 1063.76 0)
(-571.81 941.171 0)
(-287.485 984.855 0)
(-84.7074 857.824 0)
(-173.623 480.879 0)
(-756.175 116.106 0)
(-1549.22 -133.16 0)
(-2396.16 -195.348 0)
(-3310.55 -185.859 0)
(-3275.67 -134.543 0)
(-1753.04 -41.3871 0)
(-426.071 -1.39475 0)
(-57.3076 1.33801 0)
(572.175 0.836895 0)
(2035.46 -0.830965 0)
(2455.9 0.744885 0)
(1505.9 6.49272 0)
(926.233 7.68013 0)
(770.046 6.00307 0)
(674.372 2.45249 0)
(635.701 -3.47694 0)
(750.579 -8.25668 0)
(931.541 -11.6497 0)
(982.438 -18.2348 0)
(1053.61 -18.4566 0)
(-1229.7 7846.69 0)
(-1295.71 5177.24 0)
(-1048.49 3607 0)
(-789.615 2711.56 0)
(-824.271 2204.29 0)
(-859.202 1975.23 0)
(-846.753 2074.61 0)
(-1145.26 2104.74 0)
(-1455.11 2198.6 0)
(-759.789 2128.39 0)
(1182.71 2077.84 0)
(4049.02 2491.76 0)
(3369.67 1924.02 0)
(260.639 1406.96 0)
(-768.241 1054.59 0)
(-862.802 457.615 0)
(-468.648 244.004 0)
(-252.463 240.718 0)
(-309.178 192.469 0)
(-539.647 25.0366 0)
(-1046.94 -162.102 0)
(-1683.58 -304.159 0)
(-2392.8 -329.423 0)
(-3269.35 -289.782 0)
(-3235.67 -225.308 0)
(-1712.67 -72.1726 0)
(-409.388 -2.15001 0)
(-56.3376 2.53965 0)
(571.085 1.64805 0)
(2035.31 -2.10134 0)
(2458.97 1.22261 0)
(1508.71 11.1388 0)
(925.809 13.602 0)
(767.697 10.9428 0)
(671.038 5.7686 0)
(631.91 -1.47622 0)
(747.904 -9.63392 0)
(929.024 -14.9802 0)
(981.467 -20.8147 0)
(1056.9 -17.67 0)
(-2059.22 2704.97 0)
(-2260.39 2782.55 0)
(-1977.57 2728.32 0)
(-1483.12 2360.81 0)
(-1184.19 1935.55 0)
(-922.985 1670.53 0)
(-819.368 1401.42 0)
(-1039.75 1183.04 0)
(-1186.12 1292.89 0)
(-539.045 1490.24 0)
(1529.66 1638.6 0)
(3894.36 2357.33 0)
(2698.49 1301.31 0)
(-144.689 910.993 0)
(-1387.41 432.263 0)
(-1551.85 -184.566 0)
(-836.14 -407.539 0)
(-355.926 -535.143 0)
(-172.177 -556.734 0)
(-319.027 -489.724 0)
(-917.485 -470.594 0)
(-1638.41 -459.059 0)
(-2384.1 -450.223 0)
(-3232.31 -475.225 0)
(-3087.42 -380.143 0)
(-1559.64 -104.695 0)
(-363.021 -1.31244 0)
(-54.1679 4.93089 0)
(568.287 3.67429 0)
(2035.14 -2.49347 0)
(2467.02 1.40309 0)
(1516.33 16.3974 0)
(926.271 21.4712 0)
(763.757 19.3564 0)
(664.193 13.4853 0)
(622.892 4.65093 0)
(739.001 -5.85688 0)
(922.116 -16.1912 0)
(980.367 -21.6851 0)
(1073.64 -16.1255 0)
(-1427.44 320.856 0)
(-1273.21 575.604 0)
(-1454.89 996.734 0)
(-1553.55 1128.29 0)
(-1489.45 1034.78 0)
(-1373.91 898.203 0)
(-1316.51 500.006 0)
(-1249.85 111.237 0)
(-1159.09 550.943 0)
(-426.653 1065.86 0)
(2018.27 1384.62 0)
(3723.99 1546.52 0)
(1975.93 201.296 0)
(-576.803 -120.013 0)
(-1823.96 -463.33 0)
(-1672.07 -429.303 0)
(-806.477 -173.666 0)
(-396.233 -176.672 0)
(-265.411 -230.321 0)
(-456.639 -355.46 0)
(-1017.39 -515.769 0)
(-1663.95 -576.32 0)
(-2408.38 -594.041 0)
(-3201.82 -635.9 0)
(-2878.61 -476.516 0)
(-1347.62 -113.905 0)
(-303.749 2.4004 0)
(-51.5322 9.08416 0)
(563.93 7.61972 0)
(2033.12 0.401133 0)
(2477.17 4.54314 0)
(1528.05 23.4787 0)
(928.66 30.3991 0)
(760.002 28.3607 0)
(656.867 22.077 0)
(613.272 13.1422 0)
(727.82 2.12026 0)
(913.772 -11.7769 0)
(981.531 -17.119 0)
(1081.94 -10.311 0)
(-1827.18 -66.4109 0)
(-1609.09 -232.392 0)
(-1444.98 -269.187 0)
(-1446.46 -219.593 0)
(-1405.91 -149.452 0)
(-1438.31 -73.2788 0)
(-1577.72 -270.109 0)
(-990.663 -308.588 0)
(-266.21 221.706 0)
(264.316 1008.12 0)
(1992.85 1727.85 0)
(2754.06 955.018 0)
(1092.56 -482.723 0)
(-785.146 -856.333 0)
(-1685.46 -1146.64 0)
(-1272.72 -653.172 0)
(-592.695 -349.984 0)
(-410.521 -340.697 0)
(-344.464 -336.721 0)
(-594.095 -473.295 0)
(-1130.31 -648.562 0)
(-1713.83 -724.154 0)
(-2441.51 -759.857 0)
(-3119.05 -788.662 0)
(-2584.41 -521.014 0)
(-1098.13 -101.635 0)
(-244.504 7.03236 0)
(-49.1383 12.5658 0)
(559.919 10.7163 0)
(2032.17 1.33144 0)
(2489.25 1.58757 0)
(1541.24 20.4746 0)
(930.975 27.3594 0)
(755.737 25.1781 0)
(649.528 20.3651 0)
(603.661 13.8682 0)
(714.988 4.30123 0)
(903.576 -10.973 0)
(981.779 -15.7766 0)
(1081.71 -9.42854 0)
(-1490.69 -237.945 0)
(-1468.61 -17.6713 0)
(-1442.55 50.8619 0)
(-1438.17 82.2879 0)
(-1348.46 158.341 0)
(-1490.18 146.2 0)
(-1543.26 124.752 0)
(-775.916 639.211 0)
(109.736 752.191 0)
(1024.73 962.016 0)
(1967.1 1130.52 0)
(1593.8 250.686 0)
(230.449 -757.614 0)
(-1216.58 -1350.7 0)
(-1628.19 -1358.93 0)
(-904.375 -606.56 0)
(-505.365 -487.998 0)
(-383.453 -427.276 0)
(-393.187 -430.682 0)
(-757.141 -616.626 0)
(-1259.12 -790.466 0)
(-1771.2 -852.802 0)
(-2470.54 -897.501 0)
(-2971.66 -900.097 0)
(-2216.57 -510.198 0)
(-838.774 -80.8679 0)
(-193.701 6.83557 0)
(-47.9822 10.0723 0)
(553.104 8.22455 0)
(2024.32 -0.937565 0)
(2495.62 -5.30076 0)
(1552.88 8.98407 0)
(933.193 13.5578 0)
(753.262 10.3995 0)
(645.969 7.71798 0)
(597.792 5.16873 0)
(703.882 0.586959 0)
(894.424 -12.4734 0)
(983.019 -15.8362 0)
(1082.64 -9.56956 0)
(-1331.13 -451.719 0)
(-1330.79 -326.295 0)
(-1348.66 -238.458 0)
(-1342.89 -173.541 0)
(-1344.32 -97.6387 0)
(-1470.68 -65.6508 0)
(-1102.63 244.07 0)
(-386.04 675.681 0)
(44.8567 819.223 0)
(628.884 682.523 0)
(1307.39 71.6079 0)
(934.591 -879.159 0)
(-450.599 -1701.8 0)
(-1364.6 -2150.55 0)
(-968.371 -1224.56 0)
(-433.46 -705.055 0)
(-419.931 -620.157 0)
(-355.289 -484.333 0)
(-526.929 -586.876 0)
(-940.796 -801.29 0)
(-1357.9 -925.889 0)
(-1816.98 -961.084 0)
(-2487.09 -1020.6 0)
(-2745.84 -956.495 0)
(-1794.97 -447.596 0)
(-599.902 -63.1793 0)
(-156.871 -3.27168 0)
(-47.7999 -2.09973 0)
(549.31 -4.23022 0)
(2019.14 -17.138 0)
(2498.81 -23.7948 0)
(1559.42 -2.3019 0)
(932.339 7.70149 0)
(750.11 3.0732 0)
(644.487 -4.08187 0)
(596.789 -7.2787 0)
(697.988 -7.56285 0)
(887.75 -14.405 0)
(984.578 -15.4706 0)
(1082.82 -9.51882 0)
(-1265.85 -745.295 0)
(-1263.11 -685.355 0)
(-1295.35 -620.102 0)
(-1302.47 -530.043 0)
(-1244.49 -403.583 0)
(-1160.89 -219.923 0)
(-828.889 127.222 0)
(-221.677 180.348 0)
(116.329 112.579 0)
(304.298 -62.7958 0)
(462.209 -540.607 0)
(-115.126 -1583.8 0)
(-994.71 -2301.19 0)
(-756.694 -1770.02 0)
(-235.256 -988.338 0)
(-321.949 -870.013 0)
(-292.67 -655.588 0)
(-351.382 -619.886 0)
(-698.618 -807.946 0)
(-1083.83 -981.32 0)
(-1413.11 -1034.85 0)
(-1862.47 -1042.67 0)
(-2466.12 -1091.7 0)
(-2419.49 -907.336 0)
(-1355.73 -315.751 0)
(-410.607 -15.0026 0)
(-134.843 21.068 0)
(-48.9059 23.4821 0)
(538.613 24.0069 0)
(2005.47 18.0625 0)
(2509.92 38.745 0)
(1583.24 92.3943 0)
(938.372 120.754 0)
(741.907 116.338 0)
(635.993 95.1035 0)
(594.438 52.7407 0)
(697.015 11.3934 0)
(886.804 -11.2926 0)
(987.727 -12.9829 0)
(1085.16 -9.16718 0)
(-1235.16 -1213.45 0)
(-1210.15 -1125.16 0)
(-1198.99 -1052.15 0)
(-1134.25 -962.252 0)
(-1045.48 -864.577 0)
(-959.174 -725.241 0)
(-716.919 -513.976 0)
(-400.15 -480.654 0)
(-189.446 -741.126 0)
(-0.550205 -919.054 0)
(-158.309 -1375.29 0)
(-761.974 -2111.82 0)
(-630.043 -1978.98 0)
(-99.4831 -1159.13 0)
(-101.097 -949.716 0)
(-112.809 -776.626 0)
(-178.899 -659.726 0)
(-502.108 -799.265 0)
(-875.22 -957.911 0)
(-1159.45 -980.883 0)
(-1417.02 -922.087 0)
(-1871.76 -920.182 0)
(-2356.67 -934.101 0)
(-1998.1 -638.487 0)
(-935.081 -64.4775 0)
(-275.331 146.436 0)
(-119.785 170.017 0)
(-44.9678 178.401 0)
(544.087 190.775 0)
(2033.34 254.381 0)
(2570.44 442.588 0)
(1638.44 589.583 0)
(955.412 607.266 0)
(725.392 517.543 0)
(583.203 395.264 0)
(516.123 275.176 0)
(636.283 165.899 0)
(864.26 56.6844 0)
(986.626 2.90165 0)
(1080.36 -10.5374 0)
(-1119.06 -1721.72 0)
(-1107.67 -1623.06 0)
(-1138.37 -1604.29 0)
(-1121.72 -1567.93 0)
(-1016.1 -1462.28 0)
(-823.041 -1252.56 0)
(-593.196 -1033.21 0)
(-440.568 -1032.42 0)
(-306.129 -1202.57 0)
(-306.802 -1458.71 0)
(-687.182 -1927.36 0)
(-696.869 -1907.68 0)
(-76.6672 -1052.08 0)
(235.144 -756.293 0)
(133.341 -731.64 0)
(-42.5043 -646.932 0)
(-314.485 -707.297 0)
(-638.723 -745.461 0)
(-873.631 -668.133 0)
(-1049.3 -482.926 0)
(-1354.61 -268.464 0)
(-1874.05 -246.479 0)
(-2194.67 -253.788 0)
(-1581.49 320.469 0)
(-599.354 864.811 0)
(-184.64 1015.98 0)
(-104.041 1048.57 0)
(-28.9028 1076.18 0)
(611.831 1138.34 0)
(2248.13 1509.82 0)
(2832.93 1987.67 0)
(1741.93 2074.8 0)
(868.952 1945.12 0)
(537.614 1626.29 0)
(402.439 1271.78 0)
(373.413 900.952 0)
(486.469 548.618 0)
(729.734 286.205 0)
(922.95 94.4907 0)
(1060.91 -8.88386 0)
(-1045.19 -1999.55 0)
(-1096.99 -1985.94 0)
(-1145.87 -1946.33 0)
(-997.399 -1795.44 0)
(-741.567 -1580.35 0)
(-545.707 -1392.81 0)
(-504.789 -1385.17 0)
(-563.357 -1529.52 0)
(-600.229 -1589.68 0)
(-698.98 -1648.74 0)
(-590.961 -1589.35 0)
(81.4802 -934.636 0)
(479.479 -547.314 0)
(209.299 -526.817 0)
(4.28795 -411.749 0)
(-89.3509 -245.935 0)
(-273.845 -53.3521 0)
(-464.368 251.398 0)
(-622.232 691.641 0)
(-774.31 1069.32 0)
(-1189.18 1158.32 0)
(-1857.62 1032.94 0)
(-1810.34 1182.92 0)
(-920.182 1876.38 0)
(-264.862 2256.69 0)
(-98.2496 2328.11 0)
(-61.7749 2334.91 0)
(41.5324 2352.87 0)
(961.956 2469.33 0)
(2851.79 3020.91 0)
(3114.89 3211.28 0)
(1597.44 2961.93 0)
(523.21 2752.99 0)
(76.5327 2447.17 0)
(-115.761 2165.57 0)
(-180.738 1781.91 0)
(43.8895 1256.85 0)
(426.647 749.382 0)
(702.268 328.69 0)
(934.982 -6.86922 0)
(-973.319 -1899.37 0)
(-1056.39 -2011.37 0)
(-954.791 -1949.37 0)
(-769.041 -1810 0)
(-628.113 -1799.95 0)
(-634.965 -1906.1 0)
(-724.934 -1918.92 0)
(-637.637 -1654.56 0)
(-421.018 -1315.73 0)
(-306.485 -966.238 0)
(0.958253 -442.07 0)
(307.275 -12.9451 0)
(316.322 60.1474 0)
(365.779 411.468 0)
(404.009 1041.36 0)
(302.86 1586.35 0)
(164.763 1997.83 0)
(79.1792 2249.72 0)
(-85.4477 2341.2 0)
(-599.595 2169.25 0)
(-1389.68 1645.73 0)
(-1850.34 1270.67 0)
(-1381.89 1683.46 0)
(-546.763 2200.72 0)
(-164.051 2326.22 0)
(-109.263 2314.57 0)
(-80.1854 2280.81 0)
(100.622 2275.17 0)
(1255.58 2374.94 0)
(2963.1 2613.01 0)
(2776.09 2296.6 0)
(1300.3 1939.13 0)
(372.917 1845.82 0)
(-28.4517 1774.49 0)
(-238.629 1811.28 0)
(-502.255 1828.71 0)
(-508.517 1641.18 0)
(-164.679 1214.53 0)
(194.199 674.91 0)
(604.712 18.0582 0)
(-971.551 -1612.05 0)
(-1145.16 -1578.6 0)
(-951.827 -1437.86 0)
(-853.418 -1177.35 0)
(-834.17 -924.493 0)
(-660.343 -604.511 0)
(-262.393 -276.882 0)
(17.8959 -6.48226 0)
(63.058 270.145 0)
(142.911 703.672 0)
(327.668 1407.9 0)
(565.435 2054.9 0)
(888.459 2705.13 0)
(1154.84 3153.4 0)
(1136.44 3266.7 0)
(832.333 3135.82 0)
(365.406 2837.13 0)
(-133.479 2374.61 0)
(-699.778 1676.98 0)
(-1444.49 857.99 0)
(-2055.07 226.013 0)
(-1821.26 319.81 0)
(-914.111 997.985 0)
(-300.792 1341.65 0)
(-155.154 1375.7 0)
(-142.011 1358.03 0)
(-99.7448 1337.95 0)
(132.241 1345.31 0)
(1287.51 1386.04 0)
(2776.29 1258.6 0)
(2465.51 926.934 0)
(1163.06 787.421 0)
(364.552 825.007 0)
(43.2499 868.123 0)
(-63.5117 969.796 0)
(-344.656 1122.94 0)
(-547.96 1205.48 0)
(-504.482 1097.67 0)
(-450.692 739.944 0)
(-68.4133 46.9511 0)
(-999.531 -790.931 0)
(-888.532 -164.757 0)
(-568.137 480.839 0)
(-274.343 1202.81 0)
(-76.1006 2007.9 0)
(-10.9032 2861.74 0)
(-148.652 3561.33 0)
(-110.502 4001.81 0)
(263.312 4293.23 0)
(789.9 4412.95 0)
(1303.05 4419.52 0)
(1557.33 4366.54 0)
(1374.87 4142.29 0)
(906.928 3571.71 0)
(387.064 2729.53 0)
(-111.082 1773.16 0)
(-568.759 962.096 0)
(-1038.78 337.048 0)
(-1546.92 -309.629 0)
(-1997.8 -848.505 0)
(-1908.29 -715.072 0)
(-1106.44 99.7819 0)
(-397.212 714.013 0)
(-182.781 862.257 0)
(-148.265 875.032 0)
(-145.645 874.885 0)
(-92.4431 875.877 0)
(146.966 887.62 0)
(1172.02 874.409 0)
(2520.69 533.521 0)
(2322.05 225.495 0)
(1202.09 236.84 0)
(450.684 335.89 0)
(111.072 402.168 0)
(6.91954 434.966 0)
(-275.145 500.948 0)
(-532.861 561.753 0)
(-613.284 510.898 0)
(-818.316 355.706 0)
(-744.946 -40.6636 0)
(309.543 212.403 0)
(80.3617 1191.01 0)
(366.015 2178.75 0)
(618.113 2928.65 0)
(764.431 3579.75 0)
(836.599 4112.68 0)
(836.219 4702.41 0)
(723.181 5393.64 0)
(459.247 5634.18 0)
(264.61 5270.5 0)
(282.943 4368.93 0)
(298.289 3170.8 0)
(122.537 2012.45 0)
(-206.558 1047.11 0)
(-596.71 302.442 0)
(-870.829 -237.485 0)
(-1018.48 -668.283 0)
(-1358.96 -1040.18 0)
(-1842.22 -1286.2 0)
(-1835.19 -1092.62 0)
(-1141.27 -310.952 0)
(-444.144 416.404 0)
(-179.363 656.171 0)
(-145.628 696.913 0)
(-142.985 701.299 0)
(-141.197 706.323 0)
(-87.4725 715.179 0)
(130.827 709.997 0)
(946.292 677.132 0)
(2150.98 229.155 0)
(2179.62 -98.2271 0)
(1269.44 -24.3546 0)
(523.869 77.7018 0)
(138.723 120.011 0)
(31.6759 129.034 0)
(-222.48 155.744 0)
(-538.372 190.099 0)
(-703.037 106.064 0)
(-982.196 -43.3585 0)
(-1046.55 -183.064 0)
(1743.18 551.869 0)
(1006.31 1105.42 0)
(1106.32 1705.71 0)
(1075.71 1979.01 0)
(1064.87 2142.78 0)
(1070.93 2202.53 0)
(1085.73 2302.58 0)
(787.39 2437.9 0)
(144.652 2380.16 0)
(-429.344 2125.23 0)
(-720.302 1590.75 0)
(-713.466 759.947 0)
(-671.584 -22.4646 0)
(-740.895 -579.402 0)
(-850.822 -893.108 0)
(-1046.51 -1030.44 0)
(-1342.27 -1240.4 0)
(-1634.23 -1488.13 0)
(-1597.45 -1285.74 0)
(-1058.02 -531.183 0)
(-454.136 190.104 0)
(-174.487 492.178 0)
(-126.905 550.348 0)
(-139.293 558.471 0)
(-139.197 565.034 0)
(-132.27 577.939 0)
(-88.9023 595.031 0)
(110.303 582.116 0)
(708.661 540.821 0)
(1773.52 91.0777 0)
(2077.76 -308.542 0)
(1371.62 -202.714 0)
(589.8 -91.5154 0)
(160.538 -33.1395 0)
(41.353 -26.3835 0)
(-216.301 17.3065 0)
(-580.735 61.4131 0)
(-838.252 19.0083 0)
(-1096.93 -136.382 0)
(-968.074 -155.14 0)
(2378.76 85.3747 0)
(1192.24 131.48 0)
(1207.84 211.914 0)
(1039.29 189.857 0)
(979.82 188.516 0)
(990.586 181.926 0)
(1063.03 239.059 0)
(797.942 282.645 0)
(157.95 333.334 0)
(-496.088 284.516 0)
(-1032.7 7.99415 0)
(-1256.27 -464.768 0)
(-1168.11 -902.015 0)
(-1045.54 -1153.17 0)
(-1031.34 -1327.29 0)
(-1205.5 -1497.04 0)
(-1459.53 -1561.78 0)
(-1402.65 -1289.26 0)
(-920.073 -631.88 0)
(-413.012 17.5916 0)
(-155.123 356.143 0)
(-96.9997 448.163 0)
(-115.48 466.558 0)
(-131.477 479.201 0)
(-124.225 499.218 0)
(-112.29 524.287 0)
(-83.4473 551.556 0)
(78.5884 546.575 0)
(473.11 472.958 0)
(1332.5 105.758 0)
(1896.51 -443.808 0)
(1478.57 -465.438 0)
(687.277 -370.809 0)
(201.487 -275.228 0)
(80.2875 -286.575 0)
(-137.876 -224.003 0)
(-536.733 -128.875 0)
(-893.639 -81.1918 0)
(-1150.01 -174.168 0)
(-944.435 -107.587 0)
(1813.52 -452.638 0)
(1128.25 -697.521 0)
(1162.58 -779.762 0)
(1053.17 -835.427 0)
(1057.23 -796.426 0)
(1119.63 -742.993 0)
(1182.79 -653.942 0)
(878.237 -701.735 0)
(146.455 -746.37 0)
(-742.853 -899.472 0)
(-1442.34 -1255.47 0)
(-1590.38 -1495.75 0)
(-1334.96 -1518.03 0)
(-1150.71 -1479.59 0)
(-1182.18 -1507.53 0)
(-1272.47 -1490.64 0)
(-1142.05 -1180.78 0)
(-738.139 -554.516 0)
(-338.119 29.0438 0)
(-105.926 358.345 0)
(-39.2223 485.92 0)
(-68.0872 521.593 0)
(-96.9946 543.874 0)
(-107.821 569.054 0)
(-95.7505 598.102 0)
(-81.8352 626.747 0)
(-67.4249 656.711 0)
(34.5626 666.061 0)
(283.873 567.059 0)
(890.094 342.996 0)
(1527.34 -292.555 0)
(1441.96 -566.708 0)
(773.093 -563.339 0)
(241.709 -520.002 0)
(90.7154 -582.934 0)
(-64.3351 -582.377 0)
(-443.117 -501.017 0)
(-881.899 -336.03 0)
(-1122.37 -252.189 0)
(-666.507 -212.959 0)
(908.53 243.28 0)
(877.012 -1018.5 0)
(1074.95 -1060.23 0)
(1023.23 -1235.62 0)
(1068.89 -1319.87 0)
(1127.89 -1385.38 0)
(1102.79 -1445.8 0)
(708.875 -1679.67 0)
(-32.5972 -1912.43 0)
(-986.678 -2134.36 0)
(-1607.29 -2252.94 0)
(-1509.28 -2013 0)
(-1152.54 -1663.29 0)
(-1035.42 -1396.42 0)
(-1041.99 -1149.79 0)
(-890.628 -779.811 0)
(-557.444 -259.233 0)
(-236.823 213.494 0)
(-40.4076 500.372 0)
(27.2504 635.057 0)
(2.18924 672.617 0)
(-41.1535 699.259 0)
(-69.7455 732.018 0)
(-79.2205 768.019 0)
(-68.6298 804.402 0)
(-55.8122 832.849 0)
(-45.5626 861.445 0)
(-7.80404 879.652 0)
(161.793 813.957 0)
(504.143 635.978 0)
(1019.89 102.734 0)
(1217.63 -397.526 0)
(732.285 -609.898 0)
(182.604 -665.664 0)
(20.1807 -804.256 0)
(-58.9374 -891.06 0)
(-299.344 -907.499 0)
(-653.859 -677.489 0)
(-1031.42 -248.388 0)
(-170.904 -409.264 0)
(-875.793 16424.7 0)
(-127.862 -134.371 0)
(953.358 -903.401 0)
(802.972 -1331.15 0)
(912.905 -1533.82 0)
(998.276 -1810.32 0)
(899.206 -2272.49 0)
(428.577 -2821.43 0)
(-291.702 -3269.13 0)
(-1070.98 -3370.79 0)
(-1325.39 -2872.89 0)
(-1022.18 -2111.71 0)
(-740.801 -1514.71 0)
(-655.881 -1052.41 0)
(-587.995 -541.374 0)
(-414.299 0.490702 0)
(-184.865 414.838 0)
(-6.15556 633.056 0)
(68.1151 718.61 0)
(60.0553 729.958 0)
(22.6452 742.487 0)
(-10.8461 774.517 0)
(-30.7353 822.092 0)
(-38.0691 874.067 0)
(-33.278 923.267 0)
(-26.8665 959.886 0)
(-22.3241 991.392 0)
(-11.1984 1013.16 0)
(49.0606 1003.42 0)
(204.733 849.547 0)
(531.415 483.449 0)
(755.243 -199.925 0)
(514.705 -735.037 0)
(54.4189 -953.234 0)
(-126.484 -1076.14 0)
(-163.824 -1145.93 0)
(-237.312 -1134.62 0)
(-246.756 -1037.82 0)
(-863.895 -843.766 0)
(1377.96 943.398 0)
(8174.98 -8829.14 0)
(-15821 3004.76 0)
(-78.3102 -391.061 0)
(415.74 -1094.58 0)
(607.143 -2199.02 0)
(416.083 -3269.62 0)
(128.45 -4364.23 0)
(-251.527 -4944.49 0)
(-561.983 -4846.56 0)
(-604.851 -3891.68 0)
(-393.993 -2520.51 0)
(-200.479 -1462.4 0)
(-131.754 -748.809 0)
(-97.4824 -152.335 0)
(-27.379 371.554 0)
(30.8122 741.009 0)
(52.1187 930.128 0)
(55.9028 968.098 0)
(52.9714 936.382 0)
(50.2583 902.416 0)
(45.1274 897.701 0)
(35.5568 926.142 0)
(26.1844 974.828 0)
(18.2755 1023.16 0)
(14.0684 1064.58 0)
(9.83551 1088.69 0)
(5.77162 1110.91 0)
(3.78218 1121.4 0)
(4.13185 1121.57 0)
(3.08489 1045.36 0)
(8.57665 823.408 0)
(43.4567 238.371 0)
(6.36911 -506.874 0)
(-146.096 -1001.43 0)
(-165.509 -976.025 0)
(-115.289 -972.65 0)
(-195.166 -702.095 0)
(-373.584 -216.59 0)
(877.76 1342.79 0)
(4172.99 4374.64 0)
(8174.98 8829.14 0)
(-15821 -3004.76 0)
(-78.3102 391.061 0)
(415.74 1094.58 0)
(607.143 2199.02 0)
(416.083 3269.62 0)
(128.45 4364.23 0)
(-251.527 4944.49 0)
(-561.983 4846.56 0)
(-604.851 3891.68 0)
(-393.993 2520.51 0)
(-200.479 1462.4 0)
(-131.754 748.809 0)
(-97.4824 152.335 0)
(-27.379 -371.554 0)
(30.8122 -741.009 0)
(52.1187 -930.128 0)
(55.9028 -968.098 0)
(52.9714 -936.382 0)
(50.2583 -902.416 0)
(45.1274 -897.701 0)
(35.5568 -926.142 0)
(26.1844 -974.828 0)
(18.2755 -1023.16 0)
(14.0684 -1064.58 0)
(9.83551 -1088.69 0)
(5.77162 -1110.91 0)
(3.78218 -1121.4 0)
(4.13185 -1121.57 0)
(3.08489 -1045.36 0)
(8.57665 -823.408 0)
(43.4567 -238.371 0)
(6.36911 506.874 0)
(-146.096 1001.43 0)
(-165.509 976.025 0)
(-115.289 972.65 0)
(-195.166 702.095 0)
(-373.584 216.59 0)
(877.76 -1342.79 0)
(4172.99 -4374.64 0)
(-875.793 -16424.7 0)
(-127.862 134.371 0)
(953.358 903.401 0)
(802.972 1331.15 0)
(912.905 1533.82 0)
(998.276 1810.32 0)
(899.206 2272.49 0)
(428.577 2821.43 0)
(-291.702 3269.13 0)
(-1070.98 3370.79 0)
(-1325.39 2872.89 0)
(-1022.18 2111.71 0)
(-740.801 1514.71 0)
(-655.881 1052.41 0)
(-587.995 541.374 0)
(-414.299 -0.490702 0)
(-184.865 -414.838 0)
(-6.15556 -633.056 0)
(68.1151 -718.61 0)
(60.0553 -729.958 0)
(22.6452 -742.487 0)
(-10.8461 -774.517 0)
(-30.7353 -822.092 0)
(-38.0691 -874.067 0)
(-33.278 -923.267 0)
(-26.8665 -959.886 0)
(-22.3241 -991.392 0)
(-11.1984 -1013.16 0)
(49.0606 -1003.42 0)
(204.733 -849.547 0)
(531.415 -483.449 0)
(755.243 199.925 0)
(514.705 735.037 0)
(54.4189 953.234 0)
(-126.484 1076.14 0)
(-163.824 1145.93 0)
(-237.312 1134.62 0)
(-246.756 1037.82 0)
(-863.895 843.766 0)
(1377.96 -943.398 0)
(908.53 -243.28 0)
(877.012 1018.5 0)
(1074.95 1060.23 0)
(1023.23 1235.62 0)
(1068.89 1319.87 0)
(1127.89 1385.38 0)
(1102.79 1445.8 0)
(708.875 1679.67 0)
(-32.5972 1912.43 0)
(-986.678 2134.36 0)
(-1607.29 2252.94 0)
(-1509.28 2013 0)
(-1152.54 1663.29 0)
(-1035.42 1396.42 0)
(-1041.99 1149.79 0)
(-890.628 779.811 0)
(-557.444 259.233 0)
(-236.823 -213.494 0)
(-40.4076 -500.372 0)
(27.2504 -635.057 0)
(2.18924 -672.617 0)
(-41.1535 -699.259 0)
(-69.7455 -732.018 0)
(-79.2205 -768.019 0)
(-68.6298 -804.402 0)
(-55.8122 -832.849 0)
(-45.5626 -861.445 0)
(-7.80404 -879.652 0)
(161.793 -813.957 0)
(504.143 -635.978 0)
(1019.89 -102.734 0)
(1217.63 397.526 0)
(732.285 609.898 0)
(182.604 665.664 0)
(20.1807 804.256 0)
(-58.9374 891.06 0)
(-299.344 907.499 0)
(-653.859 677.489 0)
(-1031.42 248.388 0)
(-170.904 409.264 0)
(1813.52 452.638 0)
(1128.25 697.521 0)
(1162.58 779.762 0)
(1053.17 835.427 0)
(1057.23 796.426 0)
(1119.63 742.993 0)
(1182.79 653.942 0)
(878.237 701.735 0)
(146.455 746.37 0)
(-742.853 899.472 0)
(-1442.34 1255.47 0)
(-1590.38 1495.75 0)
(-1334.96 1518.03 0)
(-1150.71 1479.59 0)
(-1182.18 1507.53 0)
(-1272.47 1490.64 0)
(-1142.05 1180.78 0)
(-738.139 554.516 0)
(-338.119 -29.0438 0)
(-105.926 -358.345 0)
(-39.2223 -485.92 0)
(-68.0872 -521.593 0)
(-96.9946 -543.874 0)
(-107.821 -569.054 0)
(-95.7505 -598.102 0)
(-81.8352 -626.747 0)
(-67.4249 -656.711 0)
(34.5626 -666.061 0)
(283.873 -567.059 0)
(890.094 -342.996 0)
(1527.34 292.555 0)
(1441.96 566.708 0)
(773.093 563.339 0)
(241.709 520.002 0)
(90.7154 582.934 0)
(-64.3351 582.377 0)
(-443.117 501.017 0)
(-881.899 336.03 0)
(-1122.37 252.189 0)
(-666.507 212.959 0)
(2378.76 -85.3747 0)
(1192.24 -131.48 0)
(1207.84 -211.914 0)
(1039.29 -189.857 0)
(979.82 -188.516 0)
(990.586 -181.926 0)
(1063.03 -239.059 0)
(797.942 -282.645 0)
(157.95 -333.334 0)
(-496.088 -284.516 0)
(-1032.7 -7.99415 0)
(-1256.27 464.768 0)
(-1168.11 902.015 0)
(-1045.54 1153.17 0)
(-1031.34 1327.29 0)
(-1205.5 1497.04 0)
(-1459.53 1561.78 0)
(-1402.65 1289.26 0)
(-920.073 631.88 0)
(-413.012 -17.5916 0)
(-155.123 -356.143 0)
(-96.9997 -448.163 0)
(-115.48 -466.558 0)
(-131.477 -479.201 0)
(-124.225 -499.218 0)
(-112.29 -524.287 0)
(-83.4473 -551.556 0)
(78.5884 -546.575 0)
(473.11 -472.958 0)
(1332.5 -105.758 0)
(1896.51 443.808 0)
(1478.57 465.438 0)
(687.277 370.809 0)
(201.487 275.228 0)
(80.2875 286.575 0)
(-137.876 224.003 0)
(-536.733 128.875 0)
(-893.639 81.1918 0)
(-1150.01 174.168 0)
(-944.435 107.587 0)
(1743.18 -551.869 0)
(1006.31 -1105.42 0)
(1106.32 -1705.71 0)
(1075.71 -1979.01 0)
(1064.87 -2142.78 0)
(1070.93 -2202.53 0)
(1085.73 -2302.58 0)
(787.39 -2437.9 0)
(144.652 -2380.16 0)
(-429.344 -2125.23 0)
(-720.302 -1590.75 0)
(-713.466 -759.947 0)
(-671.584 22.4646 0)
(-740.895 579.402 0)
(-850.822 893.108 0)
(-1046.51 1030.44 0)
(-1342.27 1240.4 0)
(-1634.23 1488.13 0)
(-1597.45 1285.74 0)
(-1058.02 531.183 0)
(-454.136 -190.104 0)
(-174.487 -492.178 0)
(-126.905 -550.348 0)
(-139.293 -558.471 0)
(-139.197 -565.034 0)
(-132.27 -577.939 0)
(-88.9023 -595.031 0)
(110.303 -582.116 0)
(708.661 -540.821 0)
(1773.52 -91.0777 0)
(2077.76 308.542 0)
(1371.62 202.714 0)
(589.8 91.5154 0)
(160.538 33.1395 0)
(41.353 26.3835 0)
(-216.301 -17.3065 0)
(-580.735 -61.4131 0)
(-838.252 -19.0083 0)
(-1096.93 136.382 0)
(-968.074 155.14 0)
(309.543 -212.403 0)
(80.3617 -1191.01 0)
(366.015 -2178.75 0)
(618.113 -2928.65 0)
(764.431 -3579.75 0)
(836.599 -4112.68 0)
(836.219 -4702.41 0)
(723.181 -5393.64 0)
(459.247 -5634.18 0)
(264.61 -5270.5 0)
(282.943 -4368.93 0)
(298.289 -3170.8 0)
(122.537 -2012.45 0)
(-206.558 -1047.11 0)
(-596.71 -302.442 0)
(-870.829 237.485 0)
(-1018.48 668.283 0)
(-1358.96 1040.18 0)
(-1842.22 1286.2 0)
(-1835.19 1092.62 0)
(-1141.27 310.952 0)
(-444.144 -416.404 0)
(-179.363 -656.171 0)
(-145.628 -696.913 0)
(-142.985 -701.299 0)