/*--------------------------------*- C++ -*----------------------------------*\
| =========                 |                                                 |
| \\      /  F ield         | OpenFOAM: The Open Source CFD Toolbox           |
|  \\    /   O peration     | Version:  v1912                                 |
|   \\  /    A nd           | Website:  www.openfoam.com                      |
|    \\/     M anipulation  |                                                 |
\*---------------------------------------------------------------------------*/
FoamFile
{
    version     2.0;
    format      ascii;
    class       volTensorField;
    location    "6.34";
    object      grad(U);
}
// * * * * * * * * * * * * * * * * * * * * * * * * * * * * * * * * * * * * * //

dimensions      [0 0 -1 0 0 0 0];


internalField   nonuniform List<tensor> 
1900
(
(-4.32511 2.14489e-06 0 1.36495e-05 1.10965e-05 0 0 0 0)
(4.48419 4.44728e-05 0 -8.63686e-06 1.0933e-05 0 0 0 0)
(0.739305 3.68388e-05 0 -3.61766e-05 4.63598e-05 0 0 0 0)
(-0.00720557 2.34197e-05 0 -7.53228e-05 -9.67261e-06 0 0 0 0)
(0.01737 -0.00057408 0 -5.64288e-05 -3.38986e-05 0 0 0 0)
(0.0118777 -0.00105763 0 -0.000264085 -0.00103609 0 0 0 0)
(0.015096 0.00176993 0 -0.000945807 -0.00191277 0 0 0 0)
(0.0151418 0.0168603 0 -0.00255529 0.00245172 0 0 0 0)
(-0.0348073 0.0567187 0 0.0063149 0.0265864 0 0 0 0)
(-0.0224819 0.203349 0 0.0562339 0.111453 0 0 0 0)
(-4.3251 1.98846e-05 0 1.33185e-05 2.83187e-07 0 0 0 0)
(4.48414 -9.2095e-06 0 -1.96052e-05 -2.42807e-06 0 0 0 0)
(0.739238 -5.74444e-05 0 -8.01697e-05 -4.41896e-05 0 0 0 0)
(-0.00722582 -0.000103678 0 -0.000144785 -3.92669e-05 0 0 0 0)
(0.0171812 -0.000452339 0 -9.61948e-05 -6.76092e-05 0 0 0 0)
(0.0109883 -0.000821237 0 -0.000312816 0.000534814 0 0 0 0)
(0.0128048 0.00171789 0 -0.001228 0.000990023 0 0 0 0)
(0.0224025 0.0116389 0 -0.00287295 -0.00123511 0 0 0 0)
(0.0239819 0.0522826 0 0.00953199 -0.0158703 0 0 0 0)
(0.102223 0.143274 0 0.0895733 -0.0579538 0 0 0 0)
(-4.32511 1.12146e-12 0 7.10152e-13 -2.27594e-05 0 0 0 0)
(4.48409 -9.87976e-13 0 1.91633e-13 -1.70098e-05 0 0 0 0)
(0.73918 -4.62672e-13 0 -2.36492e-13 -4.34044e-06 0 0 0 0)
(-0.00722159 3.15453e-13 0 -6.21654e-13 9.7879e-05 0 0 0 0)
(0.017202 5.70803e-13 0 -5.33563e-13 0.000203016 0 0 0 0)
(0.0107459 -3.38544e-13 0 -1.31053e-13 0.00100256 0 0 0 0)
(0.0125359 -1.05013e-12 0 -9.92045e-14 0.00184549 0 0 0 0)
(0.0259018 -3.49974e-13 0 7.54198e-13 -0.00243322 0 0 0 0)
(0.0576389 4.84937e-13 0 8.81456e-13 -0.0214322 0 0 0 0)
(0.158995 6.99938e-13 0 8.22367e-13 -0.106998 0 0 0 0)
(-4.3251 -1.98846e-05 0 -1.33185e-05 2.83186e-07 0 0 0 0)
(4.48414 9.2095e-06 0 1.96052e-05 -2.42807e-06 0 0 0 0)
(0.739238 5.74444e-05 0 8.01697e-05 -4.41896e-05 0 0 0 0)
(-0.00722582 0.000103678 0 0.000144785 -3.92669e-05 0 0 0 0)
(0.0171812 0.000452339 0 9.61948e-05 -6.76092e-05 0 0 0 0)
(0.0109883 0.000821237 0 0.000312816 0.000534814 0 0 0 0)
(0.0128048 -0.00171789 0 0.001228 0.000990023 0 0 0 0)
(0.0224025 -0.0116389 0 0.00287295 -0.00123511 0 0 0 0)
(0.0239819 -0.0522826 0 -0.00953199 -0.0158703 0 0 0 0)
(0.102223 -0.143274 0 -0.0895733 -0.0579538 0 0 0 0)
(-4.32511 -2.14489e-06 0 -1.36495e-05 1.10965e-05 0 0 0 0)
(4.48419 -4.44728e-05 0 8.63687e-06 1.0933e-05 0 0 0 0)
(0.739305 -3.68388e-05 0 3.61766e-05 4.63598e-05 0 0 0 0)
(-0.00720557 -2.34197e-05 0 7.53228e-05 -9.67261e-06 0 0 0 0)
(0.01737 0.00057408 0 5.64288e-05 -3.38986e-05 0 0 0 0)
(0.0118777 0.00105763 0 0.000264085 -0.00103609 0 0 0 0)
(0.015096 -0.00176993 0 0.000945807 -0.00191277 0 0 0 0)
(0.0151418 -0.0168603 0 0.00255529 0.00245172 0 0 0 0)
(-0.0348073 -0.0567187 0 -0.0063149 0.0265864 0 0 0 0)
(-0.0224819 -0.203349 0 -0.0562339 0.111453 0 0 0 0)
(0.174967 0.412982 -2.09815e-17 0.241561 -0.231284 3.14723e-17 5.64501e-17 7.308e-17 -5.68706e-33)
(0.517323 0.567723 0 0.295952 -0.456568 0 -1.58463e-16 -4.65649e-17 0)
(0.810799 0.977646 0 0.300435 -0.788777 0 -2.60142e-16 -8.40659e-17 0)
(1.50169 1.60505 0 0.352339 -1.45315 0 0 0 0)
(2.80068 1.86493 2.72347e-16 1.14522 -3.52264 -4.0852e-16 -2.28502e-15 -1.52334e-15 -7.38197e-32)
(0.24898 0.159198 0 0.184608 -0.2017 0 1.001e-16 3.12869e-17 0)
(0.436798 0.16948 0 0.148388 -0.331134 0 1.58463e-16 4.65649e-17 0)
(0.760984 0.415773 0 0.0660075 -0.6179 0 2.60142e-16 8.40659e-17 0)
(1.6879 0.865063 0 -0.0625225 -1.31671 0 0 0 0)
(3.71443 0.57809 0 -0.172788 -3.08473 0 0 0 0)
(0.304211 1.55182e-13 0 2.93884e-13 -0.28917 0 0 0 0)
(0.45984 2.63699e-13 0 4.43726e-13 -0.368497 0 0 0 0)
(0.758722 1.08756e-13 0 2.19852e-13 -0.625089 0 0 0 0)
(1.59735 -7.68265e-14 0 4.92819e-14 -1.34798 0 0 0 0)
(3.47014 -8.93737e-14 0 1.29072e-13 -3.64571 0 0 0 0)
(0.24898 -0.159198 0 -0.184608 -0.2017 0 1.001e-16 -3.12869e-17 0)
(0.436798 -0.16948 0 -0.148388 -0.331134 0 1.58463e-16 -4.65649e-17 0)
(0.760984 -0.415773 0 -0.0660075 -0.6179 0 2.60142e-16 -8.40659e-17 0)
(1.6879 -0.865063 0 0.0625225 -1.31671 0 0 0 0)
(3.71443 -0.57809 0 0.172788 -3.08473 0 0 0 0)
(0.174967 -0.412982 2.09815e-17 -0.241561 -0.231284 3.14723e-17 -2.56651e-16 1.35654e-16 -5.68706e-33)
(0.517323 -0.567723 0 -0.295952 -0.456568 0 -1.58463e-16 4.65649e-17 0)
(0.810799 -0.977646 0 -0.300435 -0.788777 0 -2.60142e-16 8.40659e-17 0)
(1.50169 -1.60505 9.76302e-17 -0.352339 -1.45315 1.46445e-16 -9.33457e-16 6.22305e-16 -2.64627e-32)
(2.80068 -1.86493 -2.72347e-16 -1.14522 -3.52264 -4.0852e-16 2.28502e-15 -1.52334e-15 -7.38197e-32)
(4.21629 -0.786078 -1.85588e-17 0.0220007 4.47596 -1.67029e-16 2.28408e-15 -1.18912e-16 5.03037e-33)
(2.46445 -0.287102 8.91792e-18 0.54301 2.75132 8.02612e-17 -2.55966e-15 1.99729e-16 2.41721e-33)
(1.8156 -0.043798 0 0.719476 2.41706 0 0 0 0)
(0.497129 0.139996 -5.04663e-18 0.693917 2.08777 -4.54197e-17 2.53308e-15 -2.16255e-16 1.36789e-33)
(-0.352001 -0.0128651 5.18644e-18 0.652066 1.98911 4.66779e-17 -1.08328e-15 1.20364e-16 1.40579e-33)
(4.34092 -0.95015 0 -0.675227 -0.666948 0 -1.14237e-15 -7.94456e-18 0)
(2.7346 -0.201791 0 0.324268 1.01328 0 1.28801e-15 -5.8434e-17 0)
(1.91307 -0.0585608 0 0.404607 1.32477 0 0 0 0)
(0.514243 0.0645864 0 0.38591 1.56302 0 -1.59914e-15 8.40928e-17 0)
(-0.362739 -0.00651468 0 0.357818 1.22335 0 2.78424e-16 -5.90394e-18 0)
(4.33974 -1.89068e-13 0 -4.2711e-13 0.80631 0 0 0 0)
(2.70735 -6.69799e-14 0 -2.224e-13 1.85394 0 0 0 0)
(1.80441 1.07377e-13 0 -1.60623e-14 1.99229 0 0 0 0)
(0.453168 8.38383e-14 0 -1.41726e-13 1.96674 0 6.44306e-16 1.2136e-29 0)
(-0.429953 -5.63244e-13 0 2.66295e-13 1.56828 0 -5.56847e-16 -2.03752e-30 0)
(4.34092 0.95015 0 0.675227 -0.666948 0 -1.14237e-15 7.94456e-18 0)
(2.7346 0.201791 0 -0.324268 1.01328 0 1.28801e-15 5.8434e-17 0)
(1.91307 0.0585608 0 -0.404607 1.32477 0 0 0 0)
(0.514243 -0.0645864 0 -0.38591 1.56302 0 -1.59914e-15 -8.40928e-17 0)
(-0.362739 0.00651468 0 -0.357818 1.22335 0 2.78424e-16 5.90394e-18 0)
(4.21629 0.786078 0 -0.0220007 4.47596 0 1.14237e-15 -7.94456e-18 0)
(2.46445 0.287102 -8.91792e-18 -0.54301 2.75132 8.02612e-17 -1.63537e-17 8.28607e-17 2.41721e-33)
(1.8156 0.043798 0 -0.719476 2.41706 0 0 0 0)
(0.497129 -0.139996 5.04663e-18 -0.693917 2.08777 -4.54197e-17 2.08985e-17 -6.28769e-17 1.36789e-33)
(-0.352001 0.0128651 -5.18644e-18 -0.652066 1.98911 4.66779e-17 1.08328e-15 1.20364e-16 1.40579e-33)
(-0.0417187 -0.440509 0 0.867822 1.75504 0 0 0 0)
(0.455273 0.0598894 0 1.14073 1.74497 0 0 0 0)
(0.136646 0.686662 0 0.787471 1.32684 0 0 0 0)
(-1.15405 0.570159 0 1.30726 0.100748 0 0 0 0)
(-1.96057 -0.10848 0 1.14382 0.34781 0 0 0 0)
(-1.52356 -0.374505 0 0.433746 0.703427 0 0 0 0)
(-1.04189 -0.252621 0 0.830677 1.20262 0 0 0 0)
(-1.04581 -0.0343559 0 0.916286 1.31221 0 0 0 0)
(-0.857132 0.168336 0 0.589788 1.06661 0 0 0 0)
(-0.696437 0.188116 0 0.286682 0.757704 0 0 0 0)
(-0.69199 0.129733 0 0.130711 0.523723 0 0 0 0)
(-0.682971 0.0779306 0 0.0680075 0.362598 0 0 0 0)
(-0.469816 0.0398256 0 0.0328259 0.268084 0 0 0 0)
(-0.190822 0.0166006 0 0.0108914 0.226597 0 0 0 0)
(-0.0509503 0.00694834 0 0.00368732 0.210609 0 0 0 0)
(-0.0128764 0.00433741 0 0.00322148 0.202659 0 0 0 0)
(0.00245652 0.00469777 0 0.00382344 0.194969 0 0 0 0)
(0.0266372 0.00403506 0 0.00156913 0.186781 0 0 0 0)
(0.0665388 0.0015427 0 -0.000352393 0.18243 0 0 0 0)
(0.108152 0.000217358 0 -0.000531156 0.181297 0 0 0 0)
(0.135845 0.000158469 0 -0.000105887 0.181041 0 0 0 0)
(0.148475 0.0002735 0 0.000470987 0.180495 0 0 0 0)
(0.152486 0.00023869 0 0.00104342 0.180055 0 0 0 0)
(0.153005 0.000228396 0 0.00155363 0.179668 0 0 0 0)
(0.152641 0.000266454 0 0.00198995 0.179267 0 0 0 0)
(0.151291 8.95301e-05 0 0.00234691 0.178756 0 0 0 0)
(0.151626 0.000422899 0 0.00264758 0.178977 0 0 0 0)
(0.149665 1.2248e-05 0 0.00296808 0.177314 0 0 0 0)
(0.145308 5.25716e-05 0 0.00319724 0.178935 0 0 0 0)
(0.143625 -0.000241565 0 0.00337557 0.177171 0 0 0 0)
(0.140894 0.000310908 0 0.00358013 0.179743 0 0 0 0)
(0.136332 -0.000967942 0 0.00368757 0.176179 0 0 0 0)
(0.123737 0.000586054 0 0.00366719 0.182848 0 0 0 0)
(0.104816 -0.00139963 0 0.00257536 0.174461 0 0 0 0)
(0.0837441 -0.00157464 0 0.00259054 0.18721 0 0 0 0)
(0.0672286 0.000362225 0 0.000528339 0.179531 0 0 0 0)
(-0.0683894 -0.00188111 0 0.00405101 0.187485 0 0 0 0)
(-0.362008 -0.00164288 0 0.00397256 0.183976 0 0 0 0)
(-0.962887 -0.000355926 0 -0.00761805 0.186855 0 0 0 0)
(-0.700689 0.00149914 0 -0.0273632 0.185426 0 0 0 0)
(0.0304266 -0.182713 0 0.26754 1.94239 0 0 0 0)
(0.341438 0.0395275 0 0.325194 2.50694 0 0 0 0)
(0.0406159 0.302217 0 -0.278362 1.73652 0 0 0 0)
(-1.07508 0.307822 0 0.273473 0.146537 0 0 0 0)
(-2.07123 0.00459228 0 0.451304 -0.2234 0 0 0 0)
(-1.54584 -0.204292 0 -0.119897 0.519435 0 0 0 0)
(-0.917176 -0.124876 0 0.135226 1.06396 0 0 0 0)
(-1.03917 -0.0231268 0 0.22284 1.38782 0 0 0 0)
(-0.933813 0.0873377 0 0.125209 1.18206 0 0 0 0)
(-0.766174 0.0939811 0 0.0670321 0.809166 0 0 0 0)
(-0.730587 0.0612827 0 0.061919 0.535413 0 0 0 0)
(-0.699873 0.0370927 0 0.041804 0.36321 0 0 0 0)
(-0.476386 0.0201231 0 0.0129327 0.267526 0 0 0 0)
(-0.192883 0.00838506 0 -0.000558478 0.226309 0 0 0 0)
(-0.0510335 0.00344954 0 -0.00243069 0.210461 0 0 0 0)
(-0.0126244 0.00217673 0 -0.00129103 0.202425 0 0 0 0)
(0.00249475 0.00233898 0 -0.00112383 0.195552 0 0 0 0)
(0.0266633 0.00200318 0 -0.000955438 0.186276 0 0 0 0)
(0.0667457 0.000733377 0 -0.0012315 0.181681 0 0 0 0)
(0.1085 8.43402e-05 0 -0.000709109 0.180973 0 0 0 0)
(0.136195 7.0155e-05 0 -1.70568e-05 0.180934 0 0 0 0)
(0.148827 0.000135478 0 0.000701906 0.180428 0 0 0 0)
(0.152826 0.000118331 0 0.00140271 0.179994 0 0 0 0)
(0.153323 0.000112328 0 0.00205984 0.179608 0 0 0 0)
(0.152933 0.00013118 0 0.00267154 0.179209 0 0 0 0)
(0.151559 4.32866e-05 0 0.00324103 0.178692 0 0 0 0)
(0.15188 0.00021018 0 0.00378464 0.178901 0 0 0 0)
(0.149903 5.35661e-06 0 0.00434307 0.177238 0 0 0 0)
(0.145526 2.76115e-05 0 0.00489073 0.178859 0 0 0 0)
(0.143834 -0.000120506 0 0.00545732 0.177057 0 0 0 0)
(0.141087 0.000159143 0 0.00609156 0.179689 0 0 0 0)
(0.136488 -0.000486659 0 0.00675585 0.175989 0 0 0 0)
(0.123766 0.000317977 0 0.00745252 0.183016 0 0 0 0)
(0.104887 -0.000688695 0 0.00788468 0.173974 0 0 0 0)
(0.0837068 -0.000791463 0 0.00931156 0.187828 0 0 0 0)
(0.0675082 0.000293462 0 0.00989019 0.179387 0 0 0 0)
(-0.0679108 -0.00102112 0 0.0135423 0.186583 0 0 0 0)
(-0.36356 -0.000890314 0 0.0181742 0.185853 0 0 0 0)
(-0.96718 3.84365e-05 0 0.0148017 0.19223 0 0 0 0)
(-0.703377 0.000859115 0 0.00540343 0.187077 0 0 0 0)
(-0.0505794 -2.87061e-12 0 -1.89637e-12 1.99351 0 0 0 0)
(0.296465 2.7447e-12 0 3.04878e-11 2.63661 0 0 0 0)
(0.1216 9.24167e-12 0 -3.2053e-11 1.72176 0 0 0 0)
(-0.941783 -6.51295e-11 0 -1.2106e-10 0.558868 0 0 0 0)
(-2.075 -4.42534e-11 0 -6.32595e-10 -0.394518 0 0 0 0)
(-1.61551 6.44027e-11 0 -4.83728e-10 0.527296 0 0 0 0)
(-0.942184 3.34811e-11 0 -2.28775e-10 1.00999 0 0 0 0)
(-1.04872 -1.15571e-11 0 1.14833e-10 1.38582 0 0 0 0)
(-0.902458 9.46207e-12 0 1.96063e-10 1.16898 0 0 0 0)
(-0.714848 2.67161e-11 0 4.84343e-12 0.785374 0 0 0 0)
(-0.699329 1.22625e-11 0 -9.21276e-11 0.522865 0 0 0 0)
(-0.697221 1.10945e-12 0 -7.18861e-11 0.364056 0 0 0 0)
(-0.48214 5.87582e-12 0 -5.5332e-11 0.267852 0 0 0 0)
(-0.195291 8.38231e-12 0 -5.64141e-11 0.22571 0 0 0 0)
(-0.0511634 9.63555e-13 0 -5.25481e-11 0.210205 0 0 0 0)
(-0.0124963 -1.07537e-11 0 -4.12418e-11 0.201994 0 0 0 0)
(0.00255415 -3.39915e-11 0 -1.87444e-11 0.19524 0 0 0 0)
(0.0266059 -5.74709e-11 0 -4.51114e-13 0.185914 0 0 0 0)
(0.0666105 -3.35817e-11 0 3.23259e-11 0.181468 0 0 0 0)
(0.108505 1.74263e-11 0 4.68963e-11 0.180872 0 0 0 0)
(0.136255 5.6947e-11 0 5.68083e-11 0.180888 0 0 0 0)
(0.148888 5.23982e-11 0 6.8202e-11 0.180389 0 0 0 0)
(0.152881 -8.1593e-12 0 7.84595e-11 0.179957 0 0 0 0)
(0.153375 -6.69191e-11 0 8.29691e-11 0.179576 0 0 0 0)
(0.152985 -6.1113e-11 0 7.84415e-11 0.179185 0 0 0 0)
(0.151615 -3.59325e-11 0 6.66607e-11 0.178674 0 0 0 0)
(0.151947 -1.04336e-11 0 5.13389e-11 0.178887 0 0 0 0)
(0.149986 5.59175e-11 0 3.73902e-11 0.177229 0 0 0 0)
(0.145632 3.43696e-11 0 2.6151e-11 0.17885 0 0 0 0)
(0.143975 1.50598e-11 0 2.25652e-11 0.177039 0 0 0 0)
(0.141272 7.3495e-11 0 1.57121e-11 0.179679 0 0 0 0)
(0.136728 2.25811e-11 0 1.48339e-12 0.175945 0 0 0 0)
(0.124065 -4.81497e-11 0 -2.70646e-11 0.183025 0 0 0 0)
(0.105356 -8.45236e-12 0 -6.81835e-11 0.173759 0 0 0 0)
(0.0843276 4.93662e-11 0 -1.06791e-10 0.187759 0 0 0 0)
(0.0684593 1.53079e-11 0 -1.65955e-10 0.1792 0 0 0 0)
(-0.0659795 -2.33823e-11 0 -2.31296e-10 0.185742 0 0 0 0)
(-0.361641 -1.80183e-11 0 -2.89026e-10 0.186221 0 0 0 0)
(-0.966602 -2.14078e-11 0 -2.43899e-10 0.191863 0 0 0 0)
(-0.703424 -9.21747e-12 0 -1.38235e-10 0.185956 0 0 0 0)
(0.0304266 0.182713 0 -0.26754 1.94239 0 0 0 0)
(0.341438 -0.0395275 0 -0.325194 2.50694 0 0 0 0)
(0.0406159 -0.302217 0 0.278362 1.73652 0 0 0 0)
(-1.07508 -0.307822 0 -0.273473 0.146537 0 0 0 0)
(-2.07123 -0.00459228 0 -0.451304 -0.2234 0 0 0 0)
(-1.54584 0.204292 0 0.119897 0.519435 0 0 0 0)
(-0.917176 0.124876 0 -0.135226 1.06396 0 0 0 0)
(-1.03917 0.0231268 0 -0.22284 1.38782 0 0 0 0)
(-0.933813 -0.0873377 0 -0.125209 1.18206 0 0 0 0)
(-0.766174 -0.0939811 0 -0.0670321 0.809166 0 0 0 0)
(-0.730587 -0.0612827 0 -0.061919 0.535413 0 0 0 0)
(-0.699873 -0.0370927 0 -0.041804 0.36321 0 0 0 0)
(-0.476386 -0.0201231 0 -0.0129327 0.267526 0 0 0 0)
(-0.192883 -0.00838506 0 0.000558478 0.226309 0 0 0 0)
(-0.0510335 -0.00344954 0 0.00243069 0.210461 0 0 0 0)
(-0.0126244 -0.00217673 0 0.00129103 0.202425 0 0 0 0)
(0.00249475 -0.00233898 0 0.00112383 0.195552 0 0 0 0)
(0.0266633 -0.00200318 0 0.000955438 0.186276 0 0 0 0)
(0.0667457 -0.000733377 0 0.0012315 0.181681 0 0 0 0)
(0.1085 -8.43402e-05 0 0.000709109 0.180973 0 0 0 0)
(0.136195 -7.01549e-05 0 1.70568e-05 0.180934 0 0 0 0)
(0.148827 -0.000135477 0 -0.000701906 0.180428 0 0 0 0)
(0.152826 -0.000118331 0 -0.00140271 0.179994 0 0 0 0)
(0.153323 -0.000112328 0 -0.00205984 0.179608 0 0 0 0)
(0.152933 -0.00013118 0 -0.00267154 0.179209 0 0 0 0)
(0.151559 -4.32867e-05 0 -0.00324103 0.178692 0 0 0 0)
(0.15188 -0.00021018 0 -0.00378464 0.178901 0 0 0 0)
(0.149903 -5.3565e-06 0 -0.00434307 0.177238 0 0 0 0)
(0.145526 -2.76115e-05 0 -0.00489073 0.178859 0 0 0 0)
(0.143834 0.000120506 0 -0.00545732 0.177057 0 0 0 0)
(0.141087 -0.000159143 0 -0.00609156 0.179689 0 0 0 0)
(0.136488 0.000486659 0 -0.00675585 0.175989 0 0 0 0)
(0.123766 -0.000317977 0 -0.00745252 0.183016 0 0 0 0)
(0.104887 0.000688695 0 -0.00788468 0.173974 0 0 0 0)
(0.0837068 0.000791463 0 -0.00931156 0.187828 0 0 0 0)
(0.0675082 -0.000293462 0 -0.00989019 0.179387 0 0 0 0)
(-0.0679108 0.00102112 0 -0.0135423 0.186583 0 0 0 0)
(-0.36356 0.000890314 0 -0.0181742 0.185853 0 0 0 0)
(-0.96718 -3.84365e-05 0 -0.0148017 0.19223 0 0 0 0)
(-0.703377 -0.000859115 0 -0.00540343 0.187077 0 0 0 0)
(-0.0417187 0.440509 0 -0.867822 1.75504 0 0 0 0)
(0.455273 -0.0598894 0 -1.14073 1.74497 0 0 0 0)
(0.136646 -0.686662 0 -0.787471 1.32684 0 0 0 0)
(-1.15405 -0.570159 0 -1.30726 0.100748 0 0 0 0)
(-1.96057 0.10848 0 -1.14382 0.34781 0 0 0 0)
(-1.52356 0.374505 0 -0.433746 0.703427 0 0 0 0)
(-1.04189 0.252621 0 -0.830677 1.20262 0 0 0 0)
(-1.04581 0.0343559 0 -0.916286 1.31221 0 0 0 0)
(-0.857132 -0.168336 0 -0.589788 1.06661 0 0 0 0)
(-0.696437 -0.188116 0 -0.286682 0.757704 0 0 0 0)
(-0.69199 -0.129733 0 -0.130711 0.523723 0 0 0 0)
(-0.682971 -0.0779306 0 -0.0680075 0.362598 0 0 0 0)
(-0.469816 -0.0398256 0 -0.0328259 0.268084 0 0 0 0)
(-0.190822 -0.0166006 0 -0.0108914 0.226597 0 0 0 0)
(-0.0509503 -0.00694834 0 -0.00368732 0.210609 0 0 0 0)
(-0.0128764 -0.00433741 0 -0.00322148 0.202659 0 0 0 0)
(0.00245652 -0.00469777 0 -0.00382344 0.194969 0 0 0 0)
(0.0266372 -0.00403506 0 -0.00156913 0.186781 0 0 0 0)
(0.0665388 -0.0015427 0 0.000352393 0.18243 0 0 0 0)
(0.108152 -0.000217358 0 0.000531155 0.181297 0 0 0 0)
(0.135845 -0.000158469 0 0.000105886 0.181041 0 0 0 0)
(0.148475 -0.0002735 0 -0.000470987 0.180495 0 0 0 0)
(0.152486 -0.00023869 0 -0.00104342 0.180055 0 0 0 0)
(0.153005 -0.000228397 0 -0.00155363 0.179668 0 0 0 0)
(0.152641 -0.000266454 0 -0.00198995 0.179267 0 0 0 0)
(0.151291 -8.95301e-05 0 -0.00234691 0.178756 0 0 0 0)
(0.151626 -0.000422899 0 -0.00264758 0.178977 0 0 0 0)
(0.149665 -1.22479e-05 0 -0.00296808 0.177314 0 0 0 0)
(0.145308 -5.25716e-05 0 -0.00319724 0.178935 0 0 0 0)
(0.143625 0.000241565 0 -0.00337557 0.177171 0 0 0 0)
(0.140894 -0.000310908 0 -0.00358013 0.179743 0 0 0 0)
(0.136332 0.000967942 0 -0.00368757 0.176179 0 0 0 0)
(0.123737 -0.000586054 0 -0.00366719 0.182848 0 0 0 0)
(0.104816 0.00139963 0 -0.00257536 0.174461 0 0 0 0)
(0.0837441 0.00157464 0 -0.00259054 0.18721 0 0 0 0)
(0.0672286 -0.000362225 0 -0.000528339 0.179531 0 0 0 0)
(-0.0683894 0.00188111 0 -0.00405101 0.187485 0 0 0 0)
(-0.362008 0.00164288 0 -0.00397256 0.183976 0 0 0 0)
(-0.962887 0.000355926 0 0.00761805 0.186855 0 0 0 0)
(-0.700689 -0.00149914 0 0.0273632 0.185426 0 0 0 0)
(0.0557618 0.00548456 0 -0.98279 0.937847 0 0 0 0)
(0.260219 -0.284588 0 -1.06788 0.709134 0 0 0 0)
(-0.174876 -0.889076 0 -1.62634 0.680134 0 0 0 0)
(-1.2073 -0.618611 0 -1.98607 0.728921 0 0 0 0)
(-1.65126 0.242713 0 -1.83843 0.954534 0 0 0 0)
(-1.37516 0.543683 0 -1.28064 1.10292 0 0 0 0)
(-1.07566 0.359042 0 -1.30917 1.22405 0 0 0 0)
(-0.880396 -0.0751755 0 -1.06036 1.06988 0 0 0 0)
(-0.627541 -0.341508 0 -0.613312 0.828754 0 0 0 0)
(-0.558842 -0.325674 0 -0.326536 0.616529 0 0 0 0)
(-0.638045 -0.229977 0 -0.206243 0.461969 0 0 0 0)
(-0.658015 -0.150229 0 -0.14731 0.341698 0 0 0 0)
(-0.448156 -0.0826513 0 -0.0806755 0.260184 0 0 0 0)
(-0.176989 -0.0349385 0 -0.0317402 0.223874 0 0 0 0)
(-0.0463185 -0.01442 0 -0.0147536 0.209513 0 0 0 0)
(-0.0124183 -0.00948897 0 -0.0122171 0.201256 0 0 0 0)
(0.00357543 -0.00957177 0 -0.0126941 0.19296 0 0 0 0)
(0.029313 -0.00751927 0 -0.00808142 0.186566 0 0 0 0)
(0.0683023 -0.00323747 0 -0.00292302 0.182927 0 0 0 0)
(0.108748 -0.000801307 0 -0.000521182 0.181551 0 0 0 0)
(0.135972 -0.000471173 0 7.46992e-06 0.181066 0 0 0 0)
(0.148512 -0.000594464 0 -2.77061e-05 0.180432 0 0 0 0)
(0.15254 -0.000497913 0 -8.0376e-05 0.179971 0 0 0 0)
(0.153097 -0.000472888 0 -3.48019e-05 0.179586 0 0 0 0)
(0.152773 -0.000546383 0 0.000112403 0.179197 0 0 0 0)
(0.151457 -0.000171774 0 0.000356219 0.178711 0 0 0 0)
(0.151783 -0.000869041 0 0.000674799 0.178955 0 0 0 0)
(0.149834 -2.31905e-05 0 0.000887507 0.177295 0 0 0 0)
(0.145524 -8.86192e-05 0 0.00126619 0.178904 0 0 0 0)
(0.143835 0.000487294 0 0.00169392 0.177181 0 0 0 0)
(0.141115 -0.000605758 0 0.00203549 0.179629 0 0 0 0)
(0.136612 0.00187752 0 0.00251774 0.176266 0 0 0 0)
(0.124498 -0.00108564 0 0.00302087 0.182295 0 0 0 0)
(0.105646 0.00260312 0 0.00532746 0.174956 0 0 0 0)
(0.0849478 0.00306603 0 0.0062298 0.185664 0 0 0 0)
(0.0669154 -4.15787e-05 0 0.00959581 0.179099 0 0 0 0)
(-0.0695179 0.00281507 0 0.00430771 0.187301 0 0 0 0)
(-0.358035 -0.000375113 0 0.00273605 0.181661 0 0 0 0)
(-0.952487 0.000415301 0 0.00960737 0.180339 0 0 0 0)
(-0.694098 -0.00101527 0 0.0230177 0.182565 0 0 0 0)
(0.0217211 0.0289602 0 -1.64698 0.439887 0 0 0 0)
(-0.0602828 -0.18774 0 -1.65316 0.309224 0 0 0 0)
(-0.581105 -0.559054 0 -2.19635 0.393188 0 0 0 0)
(-1.32987 -0.279756 0 -2.46041 0.935938 0 0 0 0)
(-1.44666 0.396894 0 -2.31473 1.25735 0 0 0 0)
(-1.09312 0.543503 0 -1.8875 1.24083 0 0 0 0)
(-0.811502 0.163722 0 -1.51666 0.943313 0 0 0 0)
(-0.463954 -0.287832 0 -1.02294 0.709682 0 0 0 0)
(-0.273111 -0.512342 0 -0.634177 0.547519 0 0 0 0)
(-0.377954 -0.4678 0 -0.425139 0.445406 0 0 0 0)
(-0.548209 -0.340816 0 -0.326204 0.366431 0 0 0 0)
(-0.575351 -0.23361 0 -0.23459 0.28814 0 0 0 0)
(-0.370064 -0.130401 0 -0.117765 0.239695 0 0 0 0)
(-0.134714 -0.0555955 0 -0.0439135 0.218945 0 0 0 0)
(-0.0346209 -0.0247368 0 -0.0214269 0.2079 0 0 0 0)
(-0.0111375 -0.0175264 0 -0.0187551 0.198936 0 0 0 0)
(0.00584187 -0.0162404 0 -0.0176515 0.190882 0 0 0 0)
(0.0346181 -0.0118346 0 -0.0121009 0.185772 0 0 0 0)
(0.0728785 -0.00546658 0 -0.00519287 0.182755 0 0 0 0)
(0.110656 -0.00169779 0 -0.00124206 0.181534 0 0 0 0)
(0.136252 -0.00106937 0 -0.000213435 0.180883 0 0 0 0)
(0.148371 -0.00115653 0 -0.000338345 0.180108 0 0 0 0)
(0.15245 -0.000914474 0 -0.000599345 0.179589 0 0 0 0)
(0.153142 -0.000842502 0 -0.000714918 0.179196 0 0 0 0)
(0.152947 -0.000959595 0 -0.000652718 0.178818 0 0 0 0)
(0.151744 -0.00027941 0 -0.000439213 0.178356 0 0 0 0)
(0.152054 -0.00154786 0 -8.65287e-05 0.178615 0 0 0 0)
(0.150144 -5.54983e-05 0 6.83891e-05 0.176959 0 0 0 0)
(0.145969 -0.000143594 0 0.000527896 0.178533 0 0 0 0)
(0.144254 0.00080872 0 0.00102329 0.176911 0 0 0 0)
(0.14157 -0.00103402 0 0.0013721 0.179138 0 0 0 0)
(0.137131 0.00304894 0 0.00190058 0.176149 0 0 0 0)
(0.126037 -0.00158083 0 0.00230666 0.181206 0 0 0 0)
(0.107462 0.0040014 0 0.00507351 0.17558 0 0 0 0)
(0.0872119 0.00476737 0 0.00638068 0.183326 0 0 0 0)
(0.0655443 0.00104352 0 0.0100632 0.178445 0 0 0 0)
(-0.0743947 0.00384908 0 0.00266657 0.186569 0 0 0 0)
(-0.359031 -0.00398418 0 -0.000962966 0.181088 0 0 0 0)
(-0.94892 0.00119527 0 0.00202923 0.181581 0 0 0 0)
(-0.691301 0.000386608 0 0.00884588 0.183563 0 0 0 0)
(0.0498096 -0.120427 0 -2.47306 0.348148 0 0 0 0)
(-0.269166 -0.329589 0 -2.74256 0.184914 0 0 0 0)
(-0.95277 -0.285151 0 -3.01983 0.548888 0 0 0 0)
(-1.32138 0.214127 0 -3.01041 1.15381 0 0 0 0)
(-1.09918 0.536519 0 -2.47935 1.25187 0 0 0 0)
(-0.606113 0.241065 0 -1.88265 0.888546 0 0 0 0)
(-0.242545 -0.152794 0 -1.28775 0.525049 0 0 0 0)
(-0.0300025 -0.456577 0 -0.804646 0.30084 0 0 0 0)
(-0.0514775 -0.596174 0 -0.574146 0.250187 0 0 0 0)
(-0.262068 -0.500177 0 -0.466416 0.271509 0 0 0 0)
(-0.454425 -0.381524 0 -0.389729 0.256837 0 0 0 0)
(-0.457155 -0.272357 0 -0.273574 0.228734 0 0 0 0)
(-0.264413 -0.14933 0 -0.128689 0.219685 0 0 0 0)
(-0.0841545 -0.0655776 0 -0.0507915 0.214003 0 0 0 0)
(-0.0220749 -0.0337012 0 -0.0294319 0.205543 0 0 0 0)
(-0.00878022 -0.025888 0 -0.0263174 0.195974 0 0 0 0)
(0.00998764 -0.0222572 0 -0.0225338 0.188574 0 0 0 0)
(0.0413186 -0.0153512 0 -0.0152669 0.184484 0 0 0 0)
(0.0787663 -0.00732061 0 -0.00722246 0.182132 0 0 0 0)
(0.113547 -0.00260451 0 -0.00219668 0.181172 0 0 0 0)
(0.136843 -0.00184572 0 -0.000637107 0.180423 0 0 0 0)
(0.14814 -0.00184219 0 -0.000711145 0.179503 0 0 0 0)
(0.152177 -0.0013769 0 -0.00109672 0.178908 0 0 0 0)
(0.153046 -0.00121572 0 -0.00133979 0.178504 0 0 0 0)
(0.153039 -0.00135592 0 -0.00135411 0.17815 0 0 0 0)
(0.152003 -0.000366789 0 -0.00118691 0.177723 0 0 0 0)
(0.152272 -0.00221507 0 -0.000822945 0.178005 0 0 0 0)
(0.150426 -0.000102455 0 -0.000737521 0.176396 0 0 0 0)
(0.146444 -0.000134509 0 -0.000217046 0.177925 0 0 0 0)
(0.144648 0.00107017 0 0.000307401 0.176517 0 0 0 0)
(0.14196 -0.00133991 0 0.000611629 0.17846 0 0 0 0)
(0.137513 0.00386986 0 0.00111498 0.176062 0 0 0 0)
(0.127555 -0.0016341 0 0.00131754 0.179958 0 0 0 0)
(0.109572 0.00464648 0 0.00413251 0.176339 0 0 0 0)
(0.089756 0.00582643 0 0.00574105 0.180763 0 0 0 0)
(0.0633364 0.00308369 0 0.00929806 0.177922 0 0 0 0)
(-0.080143 0.00536184 0 0.0014224 0.184861 0 0 0 0)
(-0.35865 -0.00518234 0 -0.0023924 0.181466 0 0 0 0)
(-0.943035 0.00280099 0 0.00222328 0.18454 0 0 0 0)
(-0.687529 0.000895487 0 0.0114443 0.185746 0 0 0 0)
(-0.237983 -0.128338 0 -2.97544 0.327367 0 0 0 0)
(-0.587173 0.00569964 0 -3.37035 0.448763 0 0 0 0)
(-0.839208 0.374611 0 -3.26185 0.895657 0 0 0 0)
(-0.809046 0.397666 0 -2.72917 1.04 0 0 0 0)
(-0.359913 0.141274 0 -1.92381 0.669799 0 0 0 0)
(0.0551467 -0.156891 0 -1.27301 0.294957 0 0 0 0)
(0.227302 -0.402613 0 -0.805809 0.101952 0 0 0 0)
(0.223701 -0.5527 0 -0.586176 0.0151188 0 0 0 0)
(0.0528201 -0.540606 0 -0.501311 0.0881841 0 0 0 0)
(-0.200243 -0.461391 0 -0.466464 0.154612 0 0 0 0)
(-0.362379 -0.382036 0 -0.399759 0.165505 0 0 0 0)
(-0.323803 -0.269411 0 -0.267963 0.183287 0 0 0 0)
(-0.155383 -0.144596 0 -0.123209 0.204441 0 0 0 0)
(-0.0390671 -0.0692235 0 -0.0579291 0.207597 0 0 0 0)
(-0.0110367 -0.0421101 0 -0.0401001 0.200182 0 0 0 0)
(-0.00449026 -0.0338777 0 -0.034738 0.191224 0 0 0 0)
(0.0164905 -0.0273129 0 -0.027515 0.185212 0 0 0 0)
(0.0493727 -0.0180424 0 -0.0181599 0.182264 0 0 0 0)
(0.0854734 -0.00865834 0 -0.00905711 0.180667 0 0 0 0)
(0.117002 -0.00334521 0 -0.00334176 0.180104 0 0 0 0)
(0.137684 -0.00267685 0 -0.00133923 0.179366 0 0 0 0)
(0.147928 -0.00261588 0 -0.00120356 0.178361 0 0 0 0)
(0.151844 -0.00187711 0 -0.00149866 0.177711 0 0 0 0)
(0.152894 -0.00157372 0 -0.00167248 0.177313 0 0 0 0)
(0.153094 -0.00171257 0 -0.00160309 0.177009 0 0 0 0)
(0.152256 -0.000418265 0 -0.00134616 0.176623 0 0 0 0)
(0.152487 -0.0028271 0 -0.000848135 0.17694 0 0 0 0)
(0.150728 -0.000132565 0 -0.000616809 0.175464 0 0 0 0)
(0.146976 -2.6199e-05 0 8.01021e-05 0.176918 0 0 0 0)
(0.145053 0.00132345 0 0.000794782 0.175781 0 0 0 0)
(0.142348 -0.00147279 0 0.001245 0.177452 0 0 0 0)
(0.137812 0.0044931 0 0.00193772 0.175693 0 0 0 0)
(0.128944 -0.00131356 0 0.00220658 0.178629 0 0 0 0)
(0.111725 0.0047771 0 0.00503914 0.176625 0 0 0 0)
(0.0921896 0.00629212 0 0.00700851 0.178828 0 0 0 0)
(0.0613827 0.00499231 0 0.010065 0.177179 0 0 0 0)
(-0.08566 0.00726405 0 0.00398771 0.181351 0 0 0 0)
(-0.358259 -0.00429362 0 0.000720008 0.180863 0 0 0 0)
(-0.935587 0.00531989 0 0.00592303 0.185282 0 0 0 0)
(-0.682416 0.00154869 0 0.0171513 0.187077 0 0 0 0)
(-0.33074 -0.00344514 0 -2.53325 0.398456 0 0 0 0)
(-0.545162 0.218036 0 -2.52834 0.593517 0 0 0 0)
(-0.334902 0.284586 0 -2.19172 0.534073 0 0 0 0)
(-0.0319963 -0.0035191 0 -1.54615 0.22279 0 0 0 0)
(0.304019 -0.181431 0 -0.966755 -0.0370053 0 0 0 0)
(0.47123 -0.306133 0 -0.629925 -0.106044 0 0 0 0)
(0.419318 -0.422456 0 -0.471399 -0.1296 0 0 0 0)
(0.263422 -0.469844 0 -0.443298 -0.0593313 0 0 0 0)
(0.0638819 -0.461753 0 -0.45443 0.0303825 0 0 0 0)
(-0.164209 -0.425668 0 -0.449641 0.0813419 0 0 0 0)
(-0.263142 -0.353891 0 -0.370196 0.115827 0 0 0 0)
(-0.190661 -0.234836 0 -0.227543 0.164597 0 0 0 0)
(-0.0620166 -0.125905 0 -0.107106 0.196408 0 0 0 0)
(-0.00406787 -0.0696819 0 -0.0607389 0.200755 0 0 0 0)
(0.000272821 -0.0494783 0 -0.0468376 0.193624 0 0 0 0)
(0.0033472 -0.0403135 0 -0.0393461 0.18608 0 0 0 0)
(0.0259629 -0.0308915 0 -0.0296659 0.181546 0 0 0 0)
(0.0591053 -0.0197308 0 -0.0190334 0.179601 0 0 0 0)
(0.0930456 -0.00940273 0 -0.00961477 0.178651 0 0 0 0)
(0.120984 -0.00385814 0 -0.00385283 0.178164 0 0 0 0)
(0.138903 -0.00352534 0 -0.00182247 0.177462 0 0 0 0)
(0.147987 -0.00343766 0 -0.00170154 0.176409 0 0 0 0)
(0.151726 -0.00238605 0 -0.00206218 0.175736 0 0 0 0)
(0.152945 -0.00189222 0 -0.00232984 0.175374 0 0 0 0)
(0.153353 -0.00202164 0 -0.00237449 0.175158 0 0 0 0)
(0.15273 -0.00043242 0 -0.00224265 0.174821 0 0 0 0)
(0.152975 -0.0033314 0 -0.00185696 0.175211 0 0 0 0)
(0.15132 -0.000124161 0 -0.00165151 0.174003 0 0 0 0)
(0.147804 0.000171059 0 -0.00109946 0.175375 0 0 0 0)
(0.145771 0.00158484 0 -0.000488704 0.17457 0 0 0 0)
(0.143061 -0.00142513 0 -0.00020648 0.176029 0 0 0 0)
(0.13844 0.00500376 0 0.000332629 0.174945 0 0 0 0)
(0.130544 -0.00073621 0 0.000317157 0.177174 0 0 0 0)
(0.114199 0.00483901 0 0.00256709 0.176399 0 0 0 0)
(0.094599 0.00636046 0 0.00418874 0.17711 0 0 0 0)
(0.0604254 0.00551456 0 0.00585503 0.176525 0 0 0 0)
(-0.0891482 0.00891239 0 0.000559394 0.177392 0 0 0 0)
(-0.356785 -0.00139422 0 -0.00356913 0.179189 0 0 0 0)
(-0.927201 0.00878847 0 0.000198752 0.185831 0 0 0 0)
(-0.676709 0.00262473 0 0.011077 0.187907 0 0 0 0)
(-0.233253 0.0596301 0 -1.16893 0.0143101 0 0 0 0)
(-0.258068 0.136385 0 -1.10734 0.0699864 0 0 0 0)
(0.107263 0.0173656 0 -0.852478 -0.112164 0 0 0 0)
(0.371375 -0.152645 0 -0.553913 -0.258728 0 0 0 0)
(0.522994 -0.175602 0 -0.372363 -0.23606 0 0 0 0)
(0.53249 -0.246118 0 -0.29929 -0.182785 0 0 0 0)
(0.407143 -0.357599 0 -0.354071 -0.135101 0 0 0 0)
(0.240053 -0.398535 0 -0.3788 -0.0716472 0 0 0 0)
(0.0467074 -0.405049 0 -0.41758 -0.0105762 0 0 0 0)
(-0.119072 -0.379053 0 -0.408559 0.0380696 0 0 0 0)
(-0.148358 -0.301808 0 -0.312172 0.0984081 0 0 0 0)
(-0.0702803 -0.19176 0 -0.181356 0.158304 0 0 0 0)
(0.00535578 -0.109753 0 -0.0990625 0.187451 0 0 0 0)
(0.0190099 -0.071907 0 -0.0681263 0.190173 0 0 0 0)
(0.0095781 -0.0562519 0 -0.0566034 0.184511 0 0 0 0)
(0.012057 -0.0455167 0 -0.0463349 0.179263 0 0 0 0)
(0.0360646 -0.0335566 0 -0.0338535 0.176658 0 0 0 0)
(0.0686947 -0.0208312 0 -0.0214241 0.175767 0 0 0 0)
(0.100102 -0.0100422 0 -0.0114873 0.175491 0 0 0 0)
(0.124511 -0.00449171 0 -0.00541912 0.175192 0 0 0 0)
(0.139757 -0.00436876 0 -0.0029099 0.174532 0 0 0 0)
(0.147697 -0.00427839 0 -0.00224656 0.173477 0 0 0 0)
(0.151238 -0.00287407 0 -0.00207662 0.172829 0 0 0 0)
(0.152593 -0.00213123 0 -0.00185574 0.172537 0 0 0 0)
(0.153178 -0.00224556 0 -0.00146208 0.172451 0 0 0 0)
(0.152755 -0.000366807 0 -0.000921942 0.172175 0 0 0 0)
(0.153056 -0.00361546 0 -0.000178459 0.172666 0 0 0 0)
(0.151458 2.49067e-05 0 0.000609883 0.171813 0 0 0 0)
(0.148096 0.000520173 0 0.00150413 0.173111 0 0 0 0)
(0.145913 0.00195428 0 0.0025069 0.172662 0 0 0 0)
(0.14314 -0.00111164 0 0.00314954 0.173967 0 0 0 0)