/*--------------------------------*- C++ -*----------------------------------*\
| =========                 |                                                 |
| \\      /  F ield         | OpenFOAM: The Open Source CFD Toolbox           |
|  \\    /   O peration     | Version:  v1912                                 |
|   \\  /    A nd           | Website:  www.openfoam.com                      |
|    \\/     M anipulation  |                                                 |
\*---------------------------------------------------------------------------*/
FoamFile
{
    version     2.0;
    format      ascii;
    class       volScalarField;
    location    "6.34";
    object      Ma;
}
// * * * * * * * * * * * * * * * * * * * * * * * * * * * * * * * * * * * * * //

dimensions      [0 0 0 0 0 0 0];


internalField   nonuniform List<scalar> 
1900
(
0.73436
0.0624339
0.0956364
0.0913131
0.0929293
0.0936425
0.0944819
0.0962709
0.0974294
0.0899047
0.734357
0.0624356
0.0956285
0.091297
0.092917
0.0935893
0.0942898
0.0957483
0.0986693
0.101161
0.734357
0.0624379
0.0956192
0.0912822
0.0929087
0.0935802
0.094233
0.0956861
0.0993156
0.107385
0.734357
0.0624356
0.0956285
0.091297
0.092917
0.0935893
0.0942898
0.0957483
0.0986693
0.101161
0.73436
0.0624339
0.0956364
0.0913131
0.0929293
0.0936425
0.0944819
0.0962709
0.0974294
0.0899047
0.0993162
0.138691
0.1925
0.280273
0.429838
0.118728
0.145781
0.178923
0.245905
0.390972
0.126749
0.152144
0.185654
0.249709
0.388346
0.118728
0.145781
0.178923
0.245905
0.390972
0.0993162
0.138691
0.1925
0.280273
0.429838
0.947288
1.33879
1.6572
1.91124
1.84912
0.906696
1.33831
1.67344
1.93626
1.87513
0.902635
1.34726
1.67358
1.93152
1.8692
0.906696
1.33831
1.67344
1.93626
1.87513
0.947288
1.33879
1.6572
1.91124
1.84912
1.8512
1.96467
2.18866
2.04534
1.52278
1.11807
0.967765
0.779926
0.604589
0.469783
0.352573
0.221499
0.101424
0.0457393
0.0326156
0.0295308
0.0284698
0.0289665
0.0351596
0.0514534
0.0767907
0.106949
0.138981
0.171562
0.204207
0.236835
0.268993
0.301729
0.332921
0.363578
0.393844
0.423012
0.450998
0.473991
0.492964
0.505904
0.516311
0.467516
0.345061
0.0672949
1.86212
2.00984
2.18945
2.1087
1.56561
1.11234
0.988466
0.810294
0.624995
0.479391
0.35542
0.220918
0.0982976
0.0392159
0.0239538
0.0203817
0.0194571
0.0209802
0.0291516
0.0475607
0.074272
0.105232
0.137759
0.170674
0.203564
0.236384
0.26869
0.301566
0.332855
0.363615
0.393952
0.423209
0.451218
0.474251
0.49323
0.50615
0.516717
0.467925
0.34463
0.0638105
1.84403
1.96555
2.14311
2.10182
1.57887
1.1001
0.972001
0.787031
0.603509
0.468356
0.354147
0.222216
0.0979774
0.0369319
0.0203389
0.0163392
0.0154221
0.0176573
0.0269174
0.0462165
0.0734247
0.104654
0.137336
0.170352
0.203314
0.236189
0.268538
0.30146
0.332784
0.36359
0.393969
0.423288
0.451354
0.474475
0.49357
0.506635
0.517464
0.469193
0.346037
0.0644683
1.86212
2.00984
2.18945
2.1087
1.56561
1.11234
0.988466
0.810294
0.624995
0.479391
0.35542
0.220918
0.0982976
0.0392159
0.0239538
0.0203817
0.0194571
0.0209802
0.0291516
0.0475607
0.074272
0.105232
0.137759
0.170674
0.203564
0.236384
0.26869
0.301566
0.332855
0.363615
0.393952
0.423209
0.451218
0.474251
0.49323
0.50615
0.516717
0.467925
0.34463
0.0638105
1.8512
1.96467
2.18866
2.04534
1.52278
1.11807
0.967765
0.779926
0.604589
0.469783
0.352573
0.221499
0.101424
0.0457393
0.0326156
0.0295308
0.0284698
0.0289665
0.0351596
0.0514534
0.0767907
0.106949
0.138981
0.171562
0.204207
0.236835
0.268993
0.301729
0.332921
0.363578
0.393844
0.423012
0.450998
0.473991
0.492964
0.505904
0.516311
0.467516
0.345061
0.0672949
1.83778
1.87668
1.94675
1.74058
1.34466
1.04231
0.88243
0.716165
0.57707
0.463274
0.352951
0.223733
0.110736
0.0653792
0.0558769
0.0531519
0.0513634
0.050564
0.0539433
0.0657352
0.0870458
0.114518
0.14488
0.176381
0.208289
0.240388
0.272183
0.304568
0.335596
0.366048
0.39624
0.425237
0.453297
0.476304
0.495525
0.508692
0.51861
0.469895
0.349454
0.0812251
1.63303
1.65046
1.58792
1.34397
1.01335
0.850262
0.7508
0.64789
0.55316
0.453095
0.345884
0.224506
0.133562
0.103002
0.0953002
0.0918734
0.0888569
0.0868164
0.0881466
0.0958075
0.111556
0.133995
0.160634
0.189484
0.219471
0.250134
0.280922
0.312305
0.342848
0.37269
0.402633
0.431119
0.459284
0.482177
0.50199
0.515381
0.524165
0.474713
0.355823
0.104673
1.31915
1.30678
1.1389
0.897298
0.748042
0.72401
0.685253
0.626611
0.534044
0.438039
0.336411
0.230593
0.165103
0.143451
0.135766
0.13104
0.126811
0.123881
0.124088
0.12959
0.141634
0.159734
0.182504
0.208231
0.235766
0.264487
0.293858
0.323775
0.353589
0.3825
0.412008
0.439689
0.467844
0.490432
0.510907
0.524401
0.531808
0.481715
0.365653
0.133505
0.880429
0.770546
0.714926
0.70924
0.742047
0.732596
0.68392
0.598809
0.511018
0.425076
0.331432
0.246802
0.202045
0.184656
0.176155
0.169934
0.164615
0.160988
0.160464
0.164696
0.174296
0.189075
0.208471
0.231179
0.256152
0.282715
0.310449
0.338614
0.367532
0.395292
0.424213
0.450896
0.478901
0.501033
0.522071
0.5355
0.541784
0.491162
0.378626
0.165192
0.699187
0.690783
0.786281
0.824295
0.796637
0.736556
0.656499
0.574887
0.496812
0.416137
0.333736
0.271957
0.240699
0.22532
0.215643
0.208085
0.201894
0.197749
0.196723
0.200153
0.20805
0.220326
0.236982
0.257056
0.279649
0.3041
0.330183
0.356534
0.384508
0.411051
0.439338
0.464985
0.492794
0.514435
0.535987
0.549169
0.554727
0.504165
0.39565
0.198758
0.786851
0.851001
0.892238
0.852034
0.782642
0.71678
0.638461
0.563559
0.490268
0.416761
0.350398
0.305958
0.280854
0.265533
0.254433
0.245663
0.238698
0.234125
0.232742
0.235522
0.242158
0.252472
0.266875
0.284657
0.30506
0.327445
0.351843
0.376317
0.403195
0.428368
0.455823
0.480264
0.507613
0.528498
0.550124
0.56268
0.567098
0.516333
0.412072
0.231728
0.785327
0.870514
0.891646
0.831121
0.76738
0.701532
0.628161
0.557195
0.489187
0.425664
0.374597
0.34086
0.319169
0.303585
0.291478
0.281895
0.274445
0.269547
0.267909
0.27025
0.275925
0.28476
0.297475
0.313522
0.332242
0.352982
0.376052
0.399053
0.425104
0.449214
0.476086
0.499639
0.526747
0.547133
0.568939
0.581034
0.584555
0.534927
0.435077
0.266523
0.755264
0.853089
0.86732
0.81127
0.76283
0.691629
0.626066
0.559873
0.499819
0.447481
0.407367
0.3783
0.357387
0.340969
0.327879
0.317438
0.30951
0.304356
0.302298
0.304327
0.309201
0.316726
0.327882
0.342248
0.359253
0.378223
0.399799
0.421148
0.446105
0.468937
0.494956
0.517436
0.544027
0.56368
0.585296
0.596651
0.598739
0.550298
0.455332
0.29978
0.723688
0.830441
0.846472
0.803194
0.763271
0.688087
0.628661
0.568263
0.516015
0.472517
0.439124
0.41306
0.392675
0.375851
0.362314
0.351478
0.343285
0.338017
0.335732
0.337428
0.341687
0.348296
0.358446
0.371765
0.387721
0.405562
0.42627
0.446456
0.470741
0.492708
0.518114
0.539784
0.565933
0.584957
0.606257
0.617057
0.617779
0.570238
0.480302
0.334127
0.701104
0.809797
0.836527
0.804306
0.764509
0.689973
0.637475
0.584298
0.540912
0.503476
0.473214
0.448281
0.42774
0.410359
0.396203
0.38485
0.376318
0.370548
0.368144
0.369582
0.373242
0.378886
0.387912
0.400011
0.414723
0.431221
0.450843
0.469689
0.493159
0.514244
0.53899
0.559914
0.585637
0.604112
0.625131
0.63564
0.635298
0.588346
0.504073
0.367341
0.685208
0.792488
0.835527
0.80867
0.765293
0.697314
0.650532
0.603276
0.566172
0.53194
0.50413
0.48
0.459477
0.442035
0.427709
0.416398
0.408118
0.402206
0.399593
0.400827
0.404115
0.409202
0.417645
0.429131
0.443214
0.458921
0.477903
0.49586
0.518735
0.539182
0.56333
0.583583
0.60876
0.626618
0.647058
0.657186
0.655625
0.608643
0.529597
0.400044
0.673077
0.781639
0.833524
0.811469
0.7685
0.708852
0.669903
0.626963
0.593929
0.561747
0.535227
0.511557
0.491189
0.473473
0.458563
0.447213
0.438307
0.432447
0.429734
0.430758
0.433498
0.437692
0.44511
0.455512
0.468519
0.483037
0.501077
0.517913
0.540027
0.559809
0.58333
0.602983
0.627686
0.645063
0.665102
0.675103
0.672817
0.626694
0.553851
0.431693
0.661595
0.773646
0.832197
0.817174
0.779874
0.723656
0.688816
0.64764
0.617772
0.587295
0.561863
0.538235
0.517717
0.500472
0.487173
0.475735
0.466855
0.460782
0.457814
0.45868
0.461256
0.465263
0.472565
0.482852
0.495701
0.509812
0.527589
0.543896
0.56554
0.584941
0.607906
0.627034
0.651083
0.667872
0.687121
0.696695
0.693406
0.648051
0.580146
0.461924
0.659849
0.771621
0.832387
0.824538
0.792437
0.737833
0.707636
0.668469
0.641486
0.611878
0.587045
0.563644
0.544291
0.527196
0.512182
0.500069
0.490754
0.484125
0.480651
0.481093
0.483131
0.486499
0.493263
0.503102
0.515512
0.528984
0.54635
0.562045
0.583073
0.602072
0.624544
0.643256
0.666798
0.683146
0.701871
0.711129
0.707308
0.663752
0.602851
0.490811
0.661672
0.773084
0.835182
0.831866
0.803323
0.750879
0.723444
0.685629
0.660035
0.630882
0.606639
0.583799
0.563459
0.546026
0.531158
0.518861
0.509082
0.501899
0.49808
0.498522
0.500694
0.504243
0.51134
0.521621
0.534435
0.547946
0.565485
0.580979
0.601552
0.620315
0.642291
0.660574
0.683291
0.699009
0.716709
0.725206
0.720597
0.679745
0.625445
0.516838
0.661063
0.771173
0.833932
0.834679
0.80823
0.757479
0.732505
0.695693
0.671749
0.643181
0.619544
0.597078
0.577328
0.559829
0.544921
0.532529
0.522465
0.514922
0.510732
0.51086
0.51267
0.51585
0.522682
0.532745
0.545233
0.558072
0.575065
0.589739
0.609583
0.628042
0.649713
0.667814
0.690008
0.705313
0.722265
0.730058
0.725399
0.690053
0.644558
0.541357
0.661206
0.770581
0.824036
0.824078
0.799151
0.750998
0.728502
0.693458
0.671229
0.643405
0.620453
0.598964
0.58076
0.565217
0.552019
0.540778
0.531737
0.52527
0.522073
0.52275
0.524058
0.525705
0.530637
0.53896
0.549974
0.561138
0.576977
0.589872
0.60801
0.624897
0.645096
0.66224
0.683202
0.697822
0.713967
0.721661
0.719119
0.694749
0.662462
0.562054
0.699473
0.778737
0.800207
0.793235
0.772178
0.727931
0.708864
0.675423
0.655011
0.628642
0.606695
0.585005
0.565159
0.546427
0.529856
0.515701
0.503757
0.494472
0.488784
0.487242
0.485734
0.484019
0.486039
0.492306
0.502058
0.511867
0.527983
0.541012
0.55956
0.576258
0.596114
0.613669
0.634875
0.651019
0.669722
0.682672
0.690675
0.691346
0.703093
0.642582
1.56081
0.929412
0.796141
0.761166
0.740005
0.696112
0.672675
0.636627
0.610288
0.578568
0.55007
0.521989
0.496273
0.472211
0.450492
0.430804
0.413325
0.39869
0.388237
0.383058
0.379354
0.376927
0.379686
0.387742
0.399794
0.412394
0.432029
0.449237
0.472359
0.494592
0.51984
0.543737
0.570099
0.593385
0.618017
0.639262
0.659608
0.702034
0.883316
1.47324
2.49819
1.57023
0.705593
0.620748
0.593612
0.549177
0.513542
0.472285
0.434972
0.39674
0.3601
0.324399
0.290482
0.257959
0.227148
0.198195
0.171624
0.148751
0.132423
0.125944
0.126925
0.134964
0.152408
0.176384
0.203876
0.232323
0.264581
0.295528
0.329038
0.361709
0.394778
0.426705
0.457764
0.487817
0.515562
0.542575
0.566213
0.64653
1.42259
2.46018
2.49819
1.57023
0.705593
0.620748
0.593612
0.549177
0.513542
0.472285
0.434972
0.39674
0.3601
0.324399
0.290482
0.257959
0.227148
0.198195
0.171624
0.148751
0.132423
0.125944
0.126925
0.134964
0.152408
0.176384
0.203876
0.232323
0.264581
0.295528
0.329038
0.361709
0.394778
0.426705
0.457764
0.487817
0.515562
0.542575
0.566213
0.64653
1.42259
2.46018
1.56081
0.929412
0.796141
0.761166
0.740005
0.696112
0.672675
0.636627
0.610288
0.578568
0.55007
0.521989
0.496273
0.472211
0.450492
0.430804
0.413325
0.39869
0.388237
0.383058
0.379354
0.376927
0.379686
0.387742
0.399794
0.412394
0.432029
0.449237
0.472359
0.494592
0.51984
0.543737
0.570099
0.593385
0.618017
0.639262
0.659608
0.702034
0.883316
1.47324
0.699473
0.778737
0.800207
0.793235
0.772178
0.727931
0.708864
0.675423
0.655011
0.628642
0.606695
0.585005
0.565159
0.546427
0.529856
0.515701
0.503757
0.494472
0.488784
0.487242
0.485734
0.484019
0.486039
0.492306
0.502058
0.511867
0.527983
0.541012
0.55956
0.576258
0.596114
0.613669
0.634875
0.651019
0.669722
0.682672
0.690675
0.691346
0.703093
0.642582
0.661206
0.770581
0.824036
0.824078
0.799151
0.750998
0.728502
0.693458
0.671229
0.643405
0.620453
0.598964
0.58076
0.565217
0.552019
0.540778
0.531737
0.52527
0.522073
0.52275
0.524058
0.525705
0.530637
0.53896
0.549974
0.561138
0.576977
0.589872
0.60801
0.624897
0.645096
0.66224
0.683202
0.697822
0.713967
0.721661
0.719119
0.694749
0.662462
0.562054
0.661063
0.771173
0.833932
0.834679
0.80823
0.757479
0.732505
0.695693
0.671749
0.643181
0.619544
0.597078
0.577328
0.559829
0.544921
0.532529
0.522465
0.514922
0.510732
0.51086
0.51267
0.51585
0.522682
0.532745
0.545233
0.558072
0.575065
0.589739
0.609583
0.628042
0.649713
0.667814
0.690008
0.705313
0.722265
0.730058
0.725399
0.690053
0.644558
0.541357
0.661672
0.773084
0.835182
0.831866
0.803323
0.750879
0.723444
0.685629
0.660035
0.630882
0.606639
0.583799
0.563459
0.546026
0.531158
0.518861
0.509082
0.501899
0.49808
0.498522
0.500694
0.504243
0.51134
0.521621
0.534435
0.547946
0.565485
0.580979
0.601552
0.620315
0.642291
0.660574
0.683291
0.699009
0.716709
0.725206
0.720597
0.679745
0.625445
0.516838
0.659849
0.771621
0.832387
0.824538
0.792437
0.737833
0.707636
0.668469
0.641486
0.611878
0.587045
0.563644
0.544291
0.527196
0.512182
0.500069
0.490754
0.484125
0.480651
0.481093
0.483131
0.486499
0.493263
0.503102
0.515512
0.528984
0.54635
0.562045
0.583073
0.602072
0.624544
0.643256
0.666798
0.683146
0.701871
0.711129
0.707308
0.663752
0.602851
0.490811
0.661595
0.773646
0.832197
0.817174
0.779874
0.723656
0.688816
0.64764
0.617772
0.587295
0.561863
0.538235
0.517717
0.500472
0.487173
0.475735
0.466855
0.460782
0.457814
0.45868
0.461256
0.465263
0.472565
0.482852
0.495701
0.509812
0.527589
0.543896
0.56554
0.584941
0.607906
0.627034
0.651083
0.667872
0.687121
0.696695
0.693406
0.648051
0.580146
0.461924
0.673077
0.781639
0.833524
0.811469
0.7685
0.708852
0.669903
0.626963
0.593929
0.561747
0.535227
0.511557
0.491189
0.473473
0.458563
0.447213
0.438307
0.432447
0.429734
0.430758
0.433498
0.437692
0.44511
0.455512
0.468519
0.483037
0.501077
0.517913
0.540027
0.559809
0.58333
0.602983
0.627686
0.645063
0.665102
0.675103
0.672817
0.626694
0.553851
0.431693
0.685208
0.792488
0.835527
0.80867
0.765293
0.697314
0.650532
0.603276
0.566172
0.53194
0.50413
0.48
0.459477
0.442035
0.427709
0.416398
0.408118
0.402206
0.399593
0.400827
0.404115
0.409202
0.417645
0.429131
0.443214
0.458921
0.477903
0.49586
0.518735
0.539182
0.56333
0.583583
0.60876
0.626618
0.647058
0.657186
0.655625
0.608643
0.529597
0.400044
0.701104
0.809797
0.836527
0.804306
0.764509
0.689973
0.637475
0.584298
0.540912
0.503476
0.473214
0.448281
0.42774
0.410359
0.396203
0.38485
0.376318
0.370548
0.368144
0.369582
0.373242
0.378886
0.387912
0.400011
0.414723
0.431221
0.450843
0.469689
0.493159
0.514244
0.53899
0.559914
0.585637
0.604112
0.625131
0.63564
0.635298
0.588346
0.504073
0.367341
0.723688
0.830441
0.846472
0.803194
0.763271
0.688087
0.628661
0.568263
0.516015
0.472517
0.439124
0.41306
0.392675
0.375851
0.362314
0.351478
0.343285
0.338017
0.335732
0.337428
0.341687
0.348296
0.358446
0.371765
0.387721
0.405562
0.42627
0.446456
0.470741
0.492708
0.518114
0.539784
0.565933
0.584957
0.606257
0.617057
0.617779
0.570238
0.480302
0.334127
0.755264
0.853089
0.86732
0.81127
0.76283
0.691629
0.626066
0.559873
0.499819
0.447481
0.407367
0.3783
0.357387
0.340969
0.327879
0.317438
0.30951
0.304356
0.302298
0.304327
0.309201
0.316726
0.327882
0.342248
0.359253
0.378223
0.399799
0.421148
0.446105
0.468937
0.494956
0.517436
0.544027
0.56368
0.585296
0.596651
0.598739
0.550298
0.455332
0.29978
0.785327
0.870514
0.891646
0.831121
0.76738
0.701532
0.628161
0.557195
0.489187
0.425664
0.374597
0.34086
0.319169
0.303585
0.291478
0.281895
0.274445
0.269547
0.267909
0.27025
0.275925
0.28476
0.297475
0.313522
0.332242
0.352982
0.376052
0.399053
0.425104
0.449214
0.476086
0.499639
0.526747
0.547133
0.568939
0.581034
0.584555
0.534927
0.435077
0.266523
0.786851
0.851001
0.892238
0.852034
0.782642
0.71678
0.638461
0.563559
0.490268
0.416761
0.350398
0.305958
0.280854
0.265533
0.254433
0.245663
0.238698
0.234125
0.232742
0.235522
0.242158
0.252472
0.266875
0.284657
0.30506
0.327445
0.351843
0.376317
0.403195
0.428368
0.455823
0.480264
0.507613
0.528498
0.550124
0.56268
0.567098
0.516333
0.412072
0.231728
0.699187
0.690783
0.786281
0.824295
0.796637
0.736556
0.656499
0.574887
0.496812
0.416137
0.333736
0.271957
0.240699
0.22532
0.215643
0.208085
0.201894
0.197749
0.196723
0.200153
0.20805
0.220326
0.236982
0.257056
0.279649
0.3041
0.330183
0.356534
0.384508
0.411051
0.439338
0.464985
0.492794
0.514435
0.535987
0.549169
0.554727
0.504165
0.39565
0.198758
0.880429
0.770546
0.714926
0.70924
0.742047
0.732596
0.68392
0.598809
0.511018
0.425076
0.331432
0.246802
0.202045
0.184656
0.176155
0.169934
0.164615
0.160988
0.160464
0.164696
0.174296
0.189075
0.208471
0.231179
0.256152
0.282715
0.310449
0.338614
0.367532
0.395292
0.424213
0.450896
0.478901
0.501033
0.522071
0.5355
0.541784
0.491162
0.378626
0.165192
1.31915
1.30678
1.1389
0.897298
0.748042
0.72401
0.685253
0.626611
0.534044
0.438039
0.336411
0.230593
0.165103
0.143451
0.135766
0.13104
0.126811
0.123881
0.124088
0.12959
0.141634
0.159734
0.182504
0.208231
0.235766
0.264487
0.293858
0.323775
0.353589
0.3825
0.412008
0.439689
0.467844
0.490432
0.510907
0.524401
0.531808
0.481715
0.365653
0.133505
1.63303
1.65046
1.58792
1.34397
1.01335
0.850262
0.7508
0.64789
0.55316
0.453095
0.345884
0.224506
0.133562
0.103002
0.0953002
0.0918734
0.0888569
0.0868164
0.0881466
0.0958075
0.111556
0.133995
0.160634
0.189484
0.219471
0.250134
0.280922
0.312305
0.342848
0.37269
0.402633
0.431119
0.459284
0.482177
0.50199
0.515381
0.524165
0.474713
0.355823
0.104673
1.83778
1.87668
1.94675
1.74058
1.34466
1.04231
0.88243
0.716165
0.57707
0.463274
0.352951
0.223733
0.110736
0.0653792
0.0558769
0.0531519
0.0513634
0.050564
0.0539433
0.0657352
0.0870458
0.114518
0.14488
0.176381
0.208289
0.240388
0.272183
0.304568
0.335596
0.366048
0.39624
0.425237
0.453297
0.476304
0.495525
0.508692
0.51861
0.469895
0.349454
0.0812251
)
;

boundaryField
{
    inlet
    {
        type            calculated;
        value           uniform 0;
    }
    outlet
    {
        type            calculated;
        value           nonuniform List<scalar> 
165
(
1.83778
1.63303
1.31915
0.880429
0.699187
0.786851
0.785327
0.755264
0.723688
0.701104
0.685208
0.673077
0.661595
0.659849
0.661672
0.661063
0.661206
0.699473
1.56081
2.49819
2.49819
1.57023
0.705593
0.620748
0.593612
0.549177
0.513542
0.472285
0.434972
0.39674
0.3601
0.324399
0.290482
0.257959
0.227148
0.198195
0.171624
0.148751
0.132423
0.125944
0.126925
0.134964
0.152408
0.176384
0.203876
0.232323
0.264581
0.295528
0.329038
0.361709
0.394778
0.426705
0.457764
0.487817
0.515562
0.542575
0.566213
0.64653
1.42259
2.46018
0.0812251
0.104673
0.133505
0.165192
0.198758
0.231728
0.266523
0.29978
0.334127
0.367341
0.400044
0.431693
0.461924
0.490811
0.516838
0.541357
0.562054
0.642582
1.47324
2.46018
0.0672949
0.0638105
0.0644683
0.0638105
0.0672949
2.46018
1.47324
0.642582
0.562054
0.541357
0.516838
0.490811
0.461924
0.431693
0.400044
0.367341
0.334127
0.29978
0.266523
0.231728
0.198758
0.165192
0.133505
0.104673
0.0812251
2.49819
1.57023
0.705593
0.620748
0.593612
0.549177
0.513542
0.472285
0.434972
0.39674
0.3601
0.324399
0.290482
0.257959
0.227148
0.198195
0.171624
0.148751
0.132423
0.125944
0.126925
0.134964
0.152408
0.176384
0.203876
0.232323
0.264581
0.295528
0.329038
0.361709
0.394778
0.426705
0.457764
0.487817
0.515562
0.542575
0.566213
0.64653
1.42259
2.46018
2.49819
1.56081
0.699473
0.661206
0.661063
0.661672
0.659849
0.661595
0.673077
0.685208
0.701104
0.723688
0.755264
0.785327
0.786851
0.699187
0.880429
1.31915
1.63303
1.83778
)
;
    }
    obstacle
    {
        type            calculated;
        value           nonuniform List<scalar> 
40
(
0.73436
0.0624339
0.0956364
0.0913131
0.0929293
0.0936425
0.0944817
0.0962706
0.0973758
0.0891268
0.73436
0.0624339
0.0956364
0.0913131
0.0929293
0.0936425
0.0944817
0.0962706
0.0973758
0.0891268
0.0973681
0.135665
0.189204
0.276887
0.423129
0.0973681
0.135665
0.189204
0.276887
0.423129
0.93731
1.33613
1.65522
1.90999
1.84741
0.93731
1.33613
1.65522
1.90999
1.84741
)
;
    }
    empty
    {
        type            empty;
    }
}


// ************************************************************************* //
