/*--------------------------------*- C++ -*----------------------------------*\
| =========                 |                                                 |
| \\      /  F ield         | OpenFOAM: The Open Source CFD Toolbox           |
|  \\    /   O peration     | Version:  v1912                                 |
|   \\  /    A nd           | Website:  www.openfoam.com                      |
|    \\/     M anipulation  |                                                 |
\*---------------------------------------------------------------------------*/
FoamFile
{
    version     2.0;
    format      ascii;
    class       volScalarField;
    location    "5.8";
    object      Ma;
}
// * * * * * * * * * * * * * * * * * * * * * * * * * * * * * * * * * * * * * //

dimensions      [0 0 0 0 0 0 0];


internalField   nonuniform List<scalar> 
1900
(
0.788457
0.0732489
0.0789252
0.0777309
0.0830521
0.0878017
0.0924033
0.0962915
0.100377
0.0962741
0.788457
0.0732471
0.0789204
0.0777042
0.0829941
0.0876431
0.0918403
0.0960634
0.102517
0.108196
0.788457
0.0732468
0.0789145
0.0776848
0.0829508
0.087543
0.0916343
0.0961938
0.103075
0.114256
0.788457
0.0732471
0.0789204
0.0777042
0.0829941
0.0876431
0.0918403
0.0960634
0.102517
0.108196
0.788457
0.0732489
0.0789252
0.0777309
0.0830521
0.0878017
0.0924033
0.0962915
0.100377
0.0962741
0.104325
0.143487
0.197495
0.282354
0.426885
0.125468
0.151781
0.182713
0.246689
0.387068
0.133788
0.159562
0.19055
0.250864
0.384199
0.125468
0.151781
0.182713
0.246689
0.387068
0.104325
0.143487
0.197495
0.282354
0.426885
0.938809
1.35746
1.34132
1.28065
1.25729
0.898095
1.35978
1.37155
1.30462
1.27738
0.893348
1.36813
1.37363
1.29845
1.27213
0.898095
1.35978
1.37155
1.30462
1.27738
0.938809
1.35746
1.34132
1.28065
1.25729
1.58057
1.92394
1.80684
1.28271
0.926304
0.678099
0.445871
0.270761
0.129029
0.0402984
0.0584382
0.0753637
0.0826242
0.0877646
0.0900989
0.0856386
0.0701262
0.0461187
0.0252625
0.0360232
0.0659153
0.0995005
0.134563
0.170568
0.207253
0.244408
0.281547
0.319024
0.355374
0.390593
0.424993
0.457817
0.48986
0.519687
0.547972
0.566798
0.579988
0.584327
0.633504
0.665802
1.53228
1.89349
1.846
1.33299
0.968378
0.723181
0.469949
0.275472
0.123824
0.0217638
0.0515097
0.071574
0.0796318
0.0849299
0.0877992
0.083376
0.0672333
0.0413229
0.0142053
0.0292176
0.0625135
0.0973866
0.133118
0.169545
0.206531
0.243916
0.281239
0.318874
0.355342
0.390677
0.425155
0.458064
0.490138
0.520039
0.548305
0.567002
0.580297
0.584659
0.633874
0.662148
1.48774
1.86736
1.83581
1.32951
0.94771
0.69667
0.450701
0.270166
0.122751
0.0100032
0.0489567
0.0702495
0.0785567
0.084034
0.0869637
0.0825527
0.0661935
0.0395574
0.00748528
0.0265881
0.0613487
0.0966712
0.132623
0.169184
0.206265
0.243727
0.281114
0.318811
0.355336
0.390737
0.425283
0.458281
0.490453
0.520504
0.548938
0.567855
0.581572
0.586559
0.635726
0.661249
1.53228
1.89349
1.846
1.33299
0.968378
0.723181
0.469949
0.275472
0.123824
0.0217638
0.0515097
0.071574
0.0796318
0.0849299
0.0877992
0.083376
0.0672333
0.0413229
0.0142053
0.0292176
0.0625135
0.0973866
0.133118
0.169545
0.206531
0.243916
0.281239
0.318874
0.355342
0.390677
0.425155
0.458064
0.490138
0.520039
0.548305
0.567002
0.580297
0.584659
0.633874
0.662148
1.58057
1.92394
1.80684
1.28271
0.926304
0.678099
0.445871
0.270761
0.129029
0.0402984
0.0584382
0.0753637
0.0826242
0.0877646
0.0900989
0.0856386
0.0701262
0.0461187
0.0252625
0.0360232
0.0659153
0.0995005
0.134563
0.170568
0.207253
0.244408
0.281547
0.319024
0.355374
0.390593
0.424993
0.457817
0.48986
0.519687
0.547972
0.566798
0.579988
0.584327
0.633504
0.665802
1.5226
1.64945
1.42514
0.980923
0.747283
0.571522
0.416882
0.274657
0.148343
0.0814163
0.0862338
0.0945177
0.0984981
0.101968
0.102621
0.0973039
0.0831749
0.0639289
0.0508403
0.0569607
0.0792852
0.108786
0.141607
0.176244
0.21202
0.248533
0.285216
0.322313
0.358444
0.393434
0.427754
0.460447
0.492545
0.52225
0.550721
0.570002
0.583265
0.587998
0.635471
0.680682
0.835927
0.891502
0.689626
0.608508
0.601939
0.54364
0.434457
0.293248
0.189495
0.14402
0.136878
0.134227
0.133403
0.133517
0.13142
0.12478
0.112627
0.0987657
0.0907082
0.0943037
0.109132
0.131958
0.160071
0.191427
0.224841
0.25959
0.29497
0.330951
0.366399
0.40067
0.434674
0.466894
0.498984
0.528214
0.556989
0.576825
0.590722
0.596628
0.641145
0.672184
0.529562
0.535395
0.60738
0.66512
0.631796
0.550271
0.42562
0.313696
0.240017
0.203736
0.188383
0.178983
0.173855
0.170768
0.166194
0.158431
0.147481
0.136589
0.130702
0.133253
0.143986
0.161726
0.185295
0.212952
0.243418
0.27581
0.30936
0.343718
0.378132
0.411304
0.444765
0.476214
0.50814
0.536589
0.565549
0.585797
0.601015
0.607759
0.64658
0.677711
0.72479
0.789428
0.826967
0.757126
0.654771
0.541747
0.436276
0.351098
0.293286
0.25955
0.238642
0.224951
0.216192
0.21037
0.203663
0.194959
0.184692
0.17549
0.170721
0.172697
0.180953
0.195083
0.214916
0.239134
0.266591
0.296408
0.327866
0.360285
0.393443
0.425261
0.458008
0.488492
0.520111
0.54763
0.576642
0.597111
0.613846
0.620837
0.653484
0.685229
0.871254
0.897711
0.879124
0.758196
0.645205
0.54513
0.459466
0.392581
0.343922
0.310855
0.287176
0.27039
0.258986
0.250777
0.242301
0.232836
0.222953
0.214777
0.210632
0.212237
0.218848
0.230372
0.247272
0.268547
0.293232
0.320528
0.34989
0.380187
0.412029
0.442378
0.474324
0.503771
0.535021
0.56159
0.590619
0.611052
0.629085
0.636439
0.664387
0.697149
0.889064
0.908873
0.87158
0.750713
0.647468
0.563434
0.494837
0.437254
0.392634
0.358715
0.333291
0.314425
0.301198
0.291005
0.281122
0.271097
0.261528
0.254042
0.250297
0.251657
0.257095
0.266648
0.281213
0.299997
0.322189
0.347071
0.374376
0.402431
0.432838
0.46156
0.492492
0.520703
0.551306
0.576712
0.60539
0.625265
0.643567
0.65048
0.675182
0.708848
0.892626
0.9106
0.858098
0.749613
0.661662
0.588535
0.529739
0.477651
0.436765
0.403456
0.377473
0.357523
0.342979
0.331144
0.320085
0.309482
0.300212
0.293044
0.289466
0.290611
0.295171
0.303234
0.316021
0.332858
0.353047
0.375905
0.401479
0.427636
0.456849
0.484229
0.514388
0.541684
0.571917
0.596546
0.625167
0.644742
0.663408
0.670298
0.693137
0.727277
0.88025
0.91057
0.848457
0.753179
0.683852
0.617438
0.566319
0.517458
0.478758
0.445782
0.419425
0.398752
0.382987
0.369721
0.357808
0.346992
0.33789
0.331169
0.327806
0.328847
0.332716
0.33951
0.350727
0.36577
0.384029
0.404824
0.428543
0.452658
0.48041
0.506197
0.535237
0.561331
0.590817
0.614389
0.642513
0.661299
0.679438
0.686151
0.708549
0.742
0.864986
0.914348
0.850665
0.76362
0.710081
0.646329
0.600167
0.55417
0.51822
0.486121
0.459839
0.438911
0.422374
0.408129
0.395443
0.384673
0.375341
0.368598
0.365162
0.366024
0.369352
0.37524
0.38542
0.399315
0.416348
0.435767
0.45827
0.481019
0.507837
0.532555
0.560845
0.586137
0.615118
0.637959
0.6657
0.68394
0.701439
0.7081
0.730231
0.762742
0.85909
0.92346
0.861717
0.779759
0.735879
0.674585
0.633346
0.589987
0.556053
0.524677
0.498603
0.477151
0.459546
0.444355
0.43127
0.419997
0.410907
0.404331
0.400973
0.401772
0.404624
0.409608
0.41869
0.431324
0.446983
0.464848
0.485928
0.50719
0.532947
0.556558
0.58404
0.608587
0.63708
0.659318
0.686682
0.70441
0.721126
0.727865
0.75063
0.780572
0.862167
0.937527
0.878163
0.799297
0.76006
0.702305
0.665577
0.624217
0.591755
0.560911
0.535273
0.513723
0.495569
0.479905
0.466661
0.455142
0.445903
0.439189
0.435698
0.436388
0.438911
0.443327
0.451799
0.463762
0.478666
0.495563
0.515777
0.535989
0.561
0.583786
0.610563
0.634472
0.662402
0.684072
0.710852
0.728103
0.743774
0.750366
0.773956
0.802152
0.869633
0.950913
0.895031
0.819543
0.784308
0.729832
0.696708
0.65674
0.625652
0.595551
0.570211
0.54819
0.529323
0.513452
0.499571
0.48809
0.478932
0.472265
0.468759
0.469373
0.471497
0.47518
0.482812
0.493848
0.507737
0.523442
0.542649
0.561708
0.585948
0.607983
0.634141
0.657597
0.685125
0.706502
0.732953
0.750069
0.765168
0.772112
0.796813
0.822786
0.884878
0.965734
0.910778
0.840163
0.807901
0.756545
0.726096
0.687108
0.657026
0.627488
0.602763
0.580852
0.562853
0.546539
0.532397
0.520696
0.511293
0.504371
0.500654
0.501187
0.503162
0.506602
0.514029
0.524833
0.538376
0.553484
0.572294
0.590568
0.61429
0.635785
0.661335
0.684306
0.711143
0.732004
0.757573
0.774116
0.787831
0.794185
0.820021
0.842807
0.900295
0.978879
0.924878
0.858816
0.828911
0.780168
0.752551
0.714961
0.686116
0.656749
0.632114
0.610737
0.591835
0.575302
0.561237
0.549647
0.540414
0.533637
0.529998
0.530509
0.532074
0.534739
0.5413
0.551223
0.563835
0.577871
0.595973
0.613176
0.63626
0.657203
0.682236
0.70491
0.731284
0.751945
0.777011
0.793384
0.806424
0.812763
0.839821
0.861829
0.915877
0.993071
0.939701
0.877904
0.849474
0.80251
0.775524
0.738771
0.71126
0.683602
0.660201
0.638763
0.62011
0.603559
0.589401
0.5776
0.568102
0.561037
0.557208
0.557733
0.559304
0.561928
0.568509
0.578484
0.59106
0.604772
0.62287
0.639486
0.662189
0.682773
0.707292
0.729619
0.755152
0.775389
0.799407
0.815277
0.827177
0.832804
0.859039
0.882141
0.932163
1.0014
0.948685
0.890587
0.864441
0.819009
0.793671
0.758372
0.732027
0.704764
0.681591
0.660092
0.641451
0.624887
0.610552
0.598314
0.588093
0.580106
0.575405
0.575365
0.57648
0.578869
0.585637
0.595981
0.608685
0.622044
0.640054
0.655909
0.678056
0.698287
0.722551
0.744776
0.769846
0.790071
0.81362
0.829314
0.840687
0.846523
0.873084
0.901622
0.944572
1.00015
0.948455
0.894539
0.870121
0.827118
0.802903
0.769407
0.744684
0.718457
0.69621
0.675308
0.657223
0.640621
0.625803
0.612462
0.600814
0.59171
0.586771
0.587085
0.588222
0.590369
0.597466
0.608914
0.622835
0.63655
0.655041
0.670149
0.691684
0.711115
0.734433
0.755878
0.779465
0.799012
0.821166
0.83618
0.846673
0.852938
0.878195
0.917249
0.973383
0.986301
0.942247
0.893717
0.872503
0.833621
0.811203
0.778913
0.754566
0.72793
0.705342
0.683633
0.665155
0.648017
0.632831
0.61897
0.606686
0.59699
0.591542
0.591515
0.592449
0.59456
0.601868
0.613376
0.627509
0.640869
0.659755
0.674488
0.696056
0.715424
0.738555
0.760177
0.783037
0.802579
0.823731
0.83865
0.849269
0.860037
0.882383
0.948819
1.83237
0.965231
0.902774
0.883709
0.866416
0.83347
0.812465
0.78262
0.759077
0.734397
0.713315
0.693621
0.677734
0.663869
0.653356
0.6456
0.640465
0.637288
0.636359
0.638481
0.639669
0.639896
0.643655
0.649565
0.658344
0.667616
0.684276
0.698011
0.718826
0.738415
0.762104
0.785054
0.809391
0.830594
0.851419
0.866613
0.875845
0.883844
0.915373
1.77354
2.48891
1.77863
1.05751
1.02627
1.00892
0.980869
0.960821
0.931001
0.908335
0.881905
0.857049
0.831713
0.808261
0.784682
0.762885
0.742503
0.72437
0.708219
0.695392
0.68749
0.681405
0.676351
0.676781
0.681596
0.689844
0.699186
0.7158
0.728644
0.748467
0.765758
0.788224
0.808396
0.830484
0.849839
0.870053
0.889449
0.906889
0.944279
1.74606
2.45834
2.48891
1.77863
1.05751
1.02627
1.00892
0.980869
0.960821
0.931001
0.908335
0.881905
0.857049
0.831713
0.808261
0.784682
0.762885
0.742503
0.72437
0.708219
0.695392
0.68749
0.681405
0.676351
0.676781
0.681596
0.689844
0.699186
0.7158
0.728644
0.748467
0.765758
0.788224
0.808396
0.830484
0.849839
0.870053
0.889449
0.906889
0.944279
1.74606
2.45834
1.83237
0.965231
0.902774
0.883709
0.866416
0.83347
0.812465
0.78262
0.759077
0.734397
0.713315
0.693621
0.677734
0.663869
0.653356
0.6456
0.640465
0.637288
0.636359
0.638481
0.639669
0.639896
0.643655
0.649565
0.658344
0.667616
0.684276
0.698011
0.718826
0.738415
0.762104
0.785054
0.809391
0.830594
0.851419
0.866613
0.875845
0.883844
0.915373
1.77354
0.973383
0.986301
0.942247
0.893717
0.872503
0.833621
0.811203
0.778913
0.754566
0.72793
0.705342
0.683633
0.665155
0.648017
0.632831
0.61897
0.606686
0.59699
0.591542
0.591515
0.592449
0.59456
0.601868
0.613376
0.627509
0.640869
0.659755
0.674488
0.696056
0.715424
0.738555
0.760177
0.783037
0.802579
0.823731
0.83865
0.849269
0.860037
0.882383
0.948819
0.944572
1.00015
0.948455
0.894539
0.870121
0.827118
0.802903
0.769407
0.744684
0.718457
0.69621
0.675308
0.657223
0.640621
0.625803
0.612462
0.600814
0.59171
0.586771
0.587085
0.588222
0.590369
0.597466
0.608914
0.622835
0.63655
0.655041
0.670149
0.691684
0.711115
0.734433
0.755878
0.779465
0.799012
0.821166
0.83618
0.846673
0.852938
0.878195
0.917249
0.932163
1.0014
0.948685
0.890587
0.864441
0.819009
0.793671
0.758372
0.732027
0.704764
0.681591
0.660092
0.641451
0.624887
0.610552
0.598314
0.588093
0.580106
0.575405
0.575365
0.57648
0.578869
0.585637
0.595981
0.608685
0.622044
0.640054
0.655909
0.678056
0.698287
0.722551
0.744776
0.769846
0.790071
0.81362
0.829314
0.840687
0.846523
0.873084
0.901622
0.915877
0.993071
0.939701
0.877904
0.849474
0.80251
0.775524
0.738771
0.71126
0.683602
0.660201
0.638763
0.62011
0.603559
0.589401
0.5776
0.568102
0.561037
0.557208
0.557733
0.559304
0.561928
0.568509
0.578484
0.59106
0.604772
0.62287
0.639486
0.662189
0.682773
0.707292
0.729619
0.755152
0.775389
0.799407
0.815277
0.827177
0.832804
0.859039
0.882141
0.900295
0.978879
0.924878
0.858816
0.828911
0.780168
0.752551
0.714961
0.686116
0.656749
0.632114
0.610737
0.591835
0.575302
0.561237
0.549647
0.540414
0.533637
0.529998
0.530509
0.532074
0.534739
0.5413
0.551223
0.563835
0.577871
0.595973
0.613176
0.63626
0.657203
0.682236
0.70491
0.731284
0.751945
0.777011
0.793384
0.806424
0.812763
0.839821
0.861829
0.884878
0.965734
0.910778
0.840163
0.807901
0.756545
0.726096
0.687108
0.657026
0.627488
0.602763
0.580852
0.562853
0.546539
0.532397
0.520696
0.511293
0.504371
0.500654
0.501187
0.503162
0.506602
0.514029
0.524833
0.538376
0.553484
0.572294
0.590568
0.61429
0.635785
0.661335
0.684306
0.711143
0.732004
0.757573
0.774116
0.787831
0.794185
0.820021
0.842807
0.869633
0.950913
0.895031
0.819543
0.784308
0.729832
0.696708
0.65674
0.625652
0.595551
0.570211
0.54819
0.529323
0.513452
0.499571
0.48809
0.478932
0.472265
0.468759
0.469373
0.471497
0.47518
0.482812
0.493848
0.507737
0.523442
0.542649
0.561708
0.585948
0.607983
0.634141
0.657597
0.685125
0.706502
0.732953
0.750069
0.765168
0.772112
0.796813
0.822786
0.862167
0.937527
0.878163
0.799297
0.76006
0.702305
0.665577
0.624217
0.591755
0.560911
0.535273
0.513723
0.495569
0.479905
0.466661
0.455142
0.445903
0.439189
0.435698
0.436388
0.438911
0.443327
0.451799
0.463762
0.478666
0.495563
0.515777
0.535989
0.561
0.583786
0.610563
0.634472
0.662402
0.684072
0.710852
0.728103
0.743774
0.750366
0.773956
0.802152
0.85909
0.92346
0.861717
0.779759
0.735879
0.674585
0.633346
0.589987
0.556053
0.524677
0.498603
0.477151
0.459546
0.444355
0.43127
0.419997
0.410907
0.404331
0.400973
0.401772
0.404624
0.409608
0.41869
0.431324
0.446983
0.464848
0.485928
0.50719
0.532947
0.556558
0.58404
0.608587
0.63708
0.659318
0.686682
0.70441
0.721126
0.727865
0.75063
0.780572
0.864986
0.914348
0.850665
0.76362
0.710081
0.646329
0.600167
0.55417
0.51822
0.486121
0.459839
0.438911
0.422374
0.408129
0.395443
0.384673
0.375341
0.368598
0.365162
0.366024
0.369352
0.37524
0.38542
0.399315
0.416348
0.435767
0.45827
0.481019
0.507837
0.532555
0.560845
0.586137
0.615118
0.637959
0.6657
0.68394
0.701439
0.7081
0.730231
0.762742
0.88025
0.91057
0.848457
0.753179
0.683852
0.617438
0.566319
0.517458
0.478758
0.445782
0.419425
0.398752
0.382987
0.369721
0.357808
0.346992
0.33789
0.331169
0.327806
0.328847
0.332716
0.33951
0.350727
0.36577
0.384029
0.404824
0.428543
0.452658
0.48041
0.506197
0.535237
0.561331
0.590817
0.614389
0.642513
0.661299
0.679438
0.686151
0.708549
0.742
0.892626
0.9106
0.858098
0.749613
0.661662
0.588535
0.529739
0.477651
0.436765
0.403456
0.377473
0.357523
0.342979
0.331144
0.320085
0.309482
0.300212
0.293044
0.289466
0.290611
0.295171
0.303234
0.316021
0.332858
0.353047
0.375905
0.401479
0.427636
0.456849
0.484229
0.514388
0.541684
0.571917
0.596546
0.625167
0.644742
0.663408
0.670298
0.693137
0.727277
0.889064
0.908873
0.87158
0.750713
0.647468
0.563434
0.494837
0.437254
0.392634
0.358715
0.333291
0.314425
0.301198
0.291005
0.281122
0.271097
0.261528
0.254042
0.250297
0.251657
0.257095
0.266648
0.281213
0.299997
0.322189
0.347071
0.374376
0.402431
0.432838
0.46156
0.492492
0.520703
0.551306
0.576712
0.60539
0.625265
0.643567
0.65048
0.675182
0.708848
0.871254
0.897711
0.879124
0.758196
0.645205
0.54513
0.459466
0.392581
0.343922
0.310855
0.287176
0.27039
0.258986
0.250777
0.242301
0.232836
0.222953
0.214777
0.210632
0.212237
0.218848
0.230372
0.247272
0.268547
0.293232
0.320528
0.34989
0.380187
0.412029
0.442378
0.474324
0.503771
0.535021
0.56159
0.590619
0.611052
0.629085
0.636439
0.664387
0.697149
0.72479
0.789428
0.826967
0.757126
0.654771
0.541747
0.436276
0.351098
0.293286
0.25955
0.238642
0.224951
0.216192
0.21037
0.203663
0.194959
0.184692
0.17549
0.170721
0.172697
0.180953
0.195083
0.214916
0.239134
0.266591
0.296408
0.327866
0.360285
0.393443
0.425261
0.458008
0.488492
0.520111
0.54763
0.576642
0.597111
0.613846
0.620837
0.653484
0.685229
0.529562
0.535395
0.60738
0.66512
0.631796
0.550271
0.42562
0.313696
0.240017
0.203736
0.188383
0.178983
0.173855
0.170768
0.166194
0.158431
0.147481
0.136589
0.130702
0.133253
0.143986
0.161726
0.185295
0.212952
0.243418
0.27581
0.30936
0.343718
0.378132
0.411304
0.444765
0.476214
0.50814
0.536589
0.565549
0.585797
0.601015
0.607759
0.64658
0.677711
0.835927
0.891502
0.689626
0.608508
0.601939
0.54364
0.434457
0.293248
0.189495
0.14402
0.136878
0.134227
0.133403
0.133517
0.13142
0.12478
0.112627
0.0987657
0.0907082
0.0943037
0.109132
0.131958
0.160071
0.191427
0.224841
0.25959
0.29497
0.330951
0.366399
0.40067
0.434674
0.466894
0.498984
0.528214
0.556989
0.576825
0.590722
0.596628
0.641145
0.672184
1.5226
1.64945
1.42514
0.980923
0.747283
0.571522
0.416882
0.274657
0.148343
0.0814163
0.0862338
0.0945177
0.0984981
0.101968
0.102621
0.0973039
0.0831749
0.0639289
0.0508403
0.0569607
0.0792852
0.108786
0.141607
0.176244
0.21202
0.248533
0.285216
0.322313
0.358444
0.393434
0.427754
0.460447
0.492545
0.52225
0.550721
0.570002
0.583265
0.587998
0.635471
0.680682
)
;

boundaryField
{
    inlet
    {
        type            calculated;
        value           uniform 0;
    }
    outlet
    {
        type            calculated;
        value           nonuniform List<scalar> 
165
(
1.5226
0.835927
0.529562
0.72479
0.871254
0.889064
0.892626
0.88025
0.864986
0.85909
0.862167
0.869633
0.884878
0.900295
0.915877
0.932163
0.944572
0.973383
1.83237
2.48891
2.48891
1.77863
1.05751
1.02627
1.00892
0.980869
0.960821
0.931001
0.908335
0.881905
0.857049
0.831713
0.808261
0.784682
0.762885
0.742503
0.72437
0.708219
0.695392
0.68749
0.681405
0.676351
0.676781
0.681596
0.689844
0.699186
0.7158
0.728644
0.748467
0.765758
0.788224
0.808396
0.830484
0.849839
0.870053
0.889449
0.906889
0.944279
1.74606
2.45834
0.680682
0.672184
0.677711
0.685229
0.697149
0.708848
0.727277
0.742
0.762742
0.780572
0.802152
0.822786
0.842807
0.861829
0.882141
0.901622
0.917249
0.948819
1.77354
2.45834
0.665802
0.662148
0.661249
0.662148
0.665802
2.45834
1.77354
0.948819
0.917249
0.901622
0.882141
0.861829
0.842807
0.822786
0.802152
0.780572
0.762742
0.742
0.727277
0.708848
0.697149
0.685229
0.677711
0.672184
0.680682
2.48891
1.77863
1.05751
1.02627
1.00892
0.980869
0.960821
0.931001
0.908335
0.881905
0.857049
0.831713
0.808261
0.784682
0.762885
0.742503
0.72437
0.708219
0.695392
0.68749
0.681405
0.676351
0.676781
0.681596
0.689844
0.699186
0.7158
0.728644
0.748467
0.765758
0.788224
0.808396
0.830484
0.849839
0.870053
0.889449
0.906889
0.944279
1.74606
2.45834
2.48891
1.83237
0.973383
0.944572
0.932163
0.915877
0.900295
0.884878
0.869633
0.862167
0.85909
0.864986
0.88025
0.892626
0.889064
0.871254
0.72479
0.529562
0.835927
1.5226
)
;
    }
    obstacle
    {
        type            calculated;
        value           nonuniform List<scalar> 
40
(
0.788457
0.0732489
0.0789251
0.0777309
0.0830521
0.0878015
0.0924018
0.0962887
0.100314
0.0954185
0.788457
0.0732489
0.0789251
0.0777309
0.0830521
0.0878015
0.0924018
0.0962887
0.100314
0.0954185
0.102309
0.140341
0.193995
0.279095
0.420304
0.102309
0.140341
0.193995
0.279095
0.420304
0.928823
1.35478
1.34035
1.28011
1.25627
0.928823
1.35478
1.34035
1.28011
1.25627
)
;
    }
    empty
    {
        type            empty;
    }
}


// ************************************************************************* //
