/*--------------------------------*- C++ -*----------------------------------*\
| =========                 |                                                 |
| \\      /  F ield         | OpenFOAM: The Open Source CFD Toolbox           |
|  \\    /   O peration     | Version:  v1912                                 |
|   \\  /    A nd           | Website:  www.openfoam.com                      |
|    \\/     M anipulation  |                                                 |
\*---------------------------------------------------------------------------*/
FoamFile
{
    version     2.0;
    format      ascii;
    class       volVectorField;
    location    "4.64";
    object      grad(p);
}
// * * * * * * * * * * * * * * * * * * * * * * * * * * * * * * * * * * * * * //

dimensions      [1 -2 -2 0 0 0 0];


internalField   nonuniform List<vector> 
1900
(
(135657 -0.70907 0)
(-120058 -0.572291 0)
(-9805.07 0.283935 0)
(-1378.24 0.346762 0)
(-1410.25 2.81538 0)
(-1347.69 7.1573 0)
(-1496.57 12.4695 0)
(-1577.1 18.1615 0)
(-1757.66 -110.46 0)
(-1250.28 -176.549 0)
(135656 -0.97598 0)
(-120057 -0.736463 0)
(-9804.15 0.449066 0)
(-1375.71 1.03524 0)
(-1403.44 4.58403 0)
(-1338.04 8.59693 0)
(-1485.57 8.47111 0)
(-1700.03 0.108302 0)
(-1952.37 -150.953 0)
(-2056.55 -226.21 0)
(135656 1.0445e-08 0)
(-120057 3.90799e-10 0)
(-9803.29 -5.82645e-09 0)
(-1374.1 -1.79412e-09 0)
(-1402.69 -1.06581e-10 0)
(-1343.81 5.50671e-10 0)
(-1505.06 -1.65201e-09 0)
(-1736.52 -3.37508e-10 0)
(-1983.98 -1.65201e-09 0)
(-2063.37 -1.40332e-09 0)
(135656 0.97598 0)
(-120057 0.736463 0)
(-9804.15 -0.449066 0)
(-1375.71 -1.03524 0)
(-1403.44 -4.58403 0)
(-1338.04 -8.59693 0)
(-1485.57 -8.47111 0)
(-1700.03 -0.108302 0)
(-1952.37 150.953 0)
(-2056.55 226.21 0)
(135657 0.70907 0)
(-120058 0.572291 0)
(-9805.07 -0.283935 0)
(-1378.24 -0.346762 0)
(-1410.25 -2.81538 0)
(-1347.69 -7.1573 0)
(-1496.57 -12.4695 0)
(-1577.1 -18.1615 0)
(-1757.66 110.46 0)
(-1250.28 176.549 0)
(-1459.36 -828.538 9.44582e-12)
(-2634.41 -908.766 -1.10333e-11)
(-2894.96 -1196.63 -1.37218e-11)
(-1498.57 -1426.24 0)
(-8781.37 -8044.84 -5.78809e-11)
(-2121.21 -880.504 9.2961e-12)
(-2539.99 -977.281 1.10333e-11)
(-2792.02 -1308.61 1.37218e-11)
(-3716.21 -1466.03 0)
(-8480.22 -6918.42 0)
(-2449.92 -1.8021e-09 0)
(-2925.41 -1.26604e-09 0)
(-3207.59 -1.9984e-09 0)
(-3698.77 -4.37361e-10 0)
(-11398.6 -8.45884e-10 0)
(-2121.21 880.504 9.2961e-12)
(-2539.99 977.281 1.10333e-11)
(-2792.02 1308.61 1.37218e-11)
(-3716.21 1466.03 0)
(-8480.22 6918.42 0)
(-1459.36 828.538 -2.8038e-11)
(-2634.41 908.766 -1.10333e-11)
(-2894.96 1196.63 -1.37218e-11)
(-1498.57 1426.24 -3.67079e-11)
(-8781.37 8044.84 5.78809e-11)
(-17713.8 6595.87 1.79335e-11)
(-6219.03 2089.1 -1.37218e-11)
(-6405.43 995.978 0)
(-6716.39 654.383 8.40382e-12)
(-7759.65 484.107 -3.26217e-12)
(-14393.9 7076.19 -9.06607e-12)
(-7477.06 1400.01 6.89235e-12)
(-6763.82 530.291 0)
(-6850.94 267.552 -5.26672e-12)
(-7959.89 230.334 8.20922e-13)
(-15406.5 2.24287e-10 0)
(-7885.9 2.27738e-10 0)
(-6789.17 -3.94746e-10 0)
(-6853.91 1.27712e-09 2.10991e-12)
(-7780.3 4.93432e-09 -1.64184e-12)
(-14393.9 -7076.19 -9.06607e-12)
(-7477.06 -1400.01 6.89235e-12)
(-6763.82 -530.291 0)
(-6850.94 -267.552 -5.26672e-12)
(-7959.89 -230.334 8.20922e-13)
(-17713.8 -6595.87 9.06607e-12)
(-6219.03 -2089.1 -6.29168e-14)
(-6405.43 -995.978 0)
(-6716.39 -654.383 1.97079e-14)
(-7759.65 -484.107 3.26217e-12)
(-8756.66 2407.7 0)
(-3548.69 1919.44 0)
(1598.79 1490.24 0)
(230.03 1528.83 0)
(-1168.33 862.542 0)
(-1185.79 332.57 0)
(-996.203 139.591 0)
(-971.023 96.6107 0)
(-934.449 60.7768 0)
(-792.177 59.6213 0)
(-552.318 14.3295 0)
(-323.972 3.59495 0)
(-207.243 2.10307 0)
(-157.452 2.29825 0)
(-131.588 1.99985 0)
(-110.889 1.40632 0)
(-92.245 0.84283 0)
(-75.9125 0.433445 0)
(-62.6106 0.177083 0)
(-51.3412 0.0204388 0)
(-40.9704 -0.0984035 0)
(-32.3459 -0.205076 0)
(-24.5427 -0.278784 0)
(-17.0558 -0.319728 0)
(-10.4835 -0.315171 0)
(-5.0266 -0.277624 0)
(-1.00614 -0.225738 0)
(1.70744 -0.240105 0)
(5.46888 -0.199865 0)
(9.94264 -0.378857 0)
(23.0764 -0.332055 0)
(38.9014 -0.0237645 0)
(63.4976 0.221939 0)
(82.628 2.05684 0)
(103.28 2.24482 0)
(119.381 5.17563 0)
(129.29 1.74931 0)
(842.929 10.5083 0)
(14747.7 -10.1165 0)
(-17618.6 -1348.32 0)
(-8732.74 291.423 0)
(-3489.14 2540.81 0)
(1561.48 2208.83 0)
(266.906 1393.6 0)
(-1275.47 652.193 0)
(-1280.81 191.164 0)
(-1027.41 64.7673 0)
(-981.049 44.2762 0)
(-937.201 17.1779 0)
(-794.848 24.1217 0)
(-558.001 3.94057 0)
(-324.699 0.518453 0)
(-207.25 0.0716102 0)
(-157.392 0.347143 0)
(-131.62 0.355912 0)
(-110.955 0.204087 0)
(-92.3056 0.0615732 0)
(-75.9563 -0.057547 0)
(-62.6375 -0.130265 0)
(-51.3599 -0.176767 0)
(-40.9891 -0.218361 0)
(-32.3651 -0.265679 0)
(-24.5589 -0.307683 0)
(-17.0676 -0.342495 0)
(-10.4915 -0.367479 0)
(-5.03234 -0.388534 0)
(-1.01816 -0.403233 0)
(1.69353 -0.439227 0)
(5.43665 -0.44467 0)
(9.912 -0.529233 0)
(23.0934 -0.460401 0)
(38.9334 -0.229297 0)
(63.7043 0.146921 0)
(82.8862 1.63092 0)
(103.718 3.10477 0)
(119.572 6.84497 0)
(129.902 9.4736 0)
(842.804 18.4522 0)
(14757.1 15.3138 0)
(-17629.4 853.367 0)
(-8076.58 1.89586e-08 0)
(-2990.9 2.58298e-08 0)
(1265.06 2.94794e-08 0)
(-222.808 1.1191e-08 0)
(-1518.13 -6.07999e-09 0)
(-1356.68 6.50793e-09 0)
(-1038.93 -4.86076e-09 0)
(-984.867 -1.31047e-08 0)
(-940.312 -9.9476e-09 0)
(-796.028 -2.44572e-08 0)
(-559.185 -1.46509e-08 0)
(-325.098 1.18289e-09 0)
(-207.293 5.63186e-09 0)
(-157.37 3.04403e-09 0)
(-131.63 1.69965e-09 0)
(-110.975 1.56239e-09 0)
(-92.3211 -1.09811e-09 0)
(-75.9683 -1.37668e-09 0)
(-62.6453 -2.281e-09 0)
(-51.3669 -1.45338e-10 0)
(-40.9963 3.57694e-09 0)
(-32.3719 6.89953e-09 0)
(-24.565 7.8523e-09 0)
(-17.0731 3.0077e-09 0)
(-10.4968 4.00084e-09 0)
(-5.03701 1.25798e-08 0)
(-1.02089 2.19259e-08 0)
(1.69539 2.69643e-08 0)
(5.4427 2.32783e-08 0)
(9.93806 1.88052e-08 0)
(23.1636 1.195e-08 0)
(39.0781 1.44773e-08 0)
(64.0388 5.19383e-08 0)
(83.4885 4.66576e-08 0)
(104.797 7.44697e-08 0)
(121.234 1.01172e-07 0)
(132.667 1.11232e-07 0)
(844.628 9.68074e-08 0)
(14990.6 -4.48126e-09 0)
(-17871.3 2.16764e-07 0)
(-8732.74 -291.423 0)
(-3489.14 -2540.81 0)
(1561.48 -2208.83 0)
(266.906 -1393.6 0)
(-1275.47 -652.193 0)
(-1280.81 -191.164 0)
(-1027.41 -64.7673 0)
(-981.049 -44.2762 0)
(-937.201 -17.1779 0)
(-794.848 -24.1217 0)
(-558.001 -3.94057 0)
(-324.699 -0.518453 0)
(-207.25 -0.0716101 0)
(-157.392 -0.347143 0)
(-131.62 -0.355912 0)
(-110.955 -0.204087 0)
(-92.3056 -0.0615732 0)
(-75.9563 0.057547 0)
(-62.6375 0.130265 0)
(-51.3599 0.176767 0)
(-40.9891 0.218361 0)
(-32.3651 0.265678 0)
(-24.5589 0.307683 0)
(-17.0676 0.342495 0)
(-10.4915 0.367479 0)
(-5.03234 0.388534 0)
(-1.01816 0.403233 0)
(1.69353 0.439227 0)
(5.43665 0.44467 0)
(9.912 0.529233 0)
(23.0934 0.460401 0)
(38.9334 0.229297 0)
(63.7043 -0.146921 0)
(82.8862 -1.63092 0)
(103.718 -3.10477 0)
(119.572 -6.84497 0)
(129.902 -9.4736 0)
(842.804 -18.4522 0)
(14757.1 -15.3138 0)
(-17629.4 -853.367 0)
(-8756.66 -2407.7 0)
(-3548.69 -1919.44 0)
(1598.79 -1490.24 0)
(230.03 -1528.83 0)
(-1168.33 -862.542 0)
(-1185.79 -332.57 0)
(-996.203 -139.591 0)
(-971.023 -96.6107 0)
(-934.449 -60.7768 0)
(-792.177 -59.6213 0)
(-552.318 -14.3295 0)
(-323.972 -3.59495 0)
(-207.243 -2.10307 0)
(-157.452 -2.29825 0)
(-131.588 -1.99985 0)
(-110.889 -1.40632 0)
(-92.245 -0.84283 0)
(-75.9125 -0.433445 0)
(-62.6106 -0.177083 0)
(-51.3412 -0.0204388 0)
(-40.9704 0.0984035 0)
(-32.3459 0.205076 0)
(-24.5427 0.278784 0)
(-17.0558 0.319728 0)
(-10.4835 0.315171 0)
(-5.0266 0.277624 0)
(-1.00614 0.225738 0)
(1.70744 0.240104 0)
(5.46888 0.199865 0)
(9.94264 0.378857 0)
(23.0764 0.332055 0)
(38.9014 0.0237643 0)
(63.4976 -0.221939 0)
(82.628 -2.05684 0)
(103.28 -2.24482 0)
(119.381 -5.17563 0)
(129.29 -1.74931 0)
(842.929 -10.5083 0)
(14747.7 10.1165 0)
(-17618.6 1348.32 0)
(8824.41 -2096.85 0)
(-2844.8 -2207.52 0)
(1763.35 -2068.72 0)
(703.283 -1887.62 0)
(-648.964 -1101.21 0)
(-937.18 -527.779 0)
(-915.489 -279.498 0)
(-943.204 -188.692 0)
(-917.18 -130.702 0)
(-768.801 -91.2557 0)
(-529.427 -32.063 0)
(-317.869 -9.79275 0)
(-206.444 -5.66049 0)
(-157.258 -5.28526 0)
(-131.097 -4.44304 0)
(-110.306 -3.20841 0)
(-91.7654 -2.09051 0)
(-75.5892 -1.31355 0)
(-62.4095 -0.826614 0)
(-51.2086 -0.522243 0)
(-40.8692 -0.280909 0)
(-32.2743 -0.0990998 0)
(-24.5058 0.0120621 0)
(-17.0585 0.0630878 0)
(-10.5272 0.0329818 0)
(-5.09507 -0.0595291 0)
(-1.05558 -0.174666 0)
(1.66121 -0.193534 0)
(5.48641 -0.271804 0)
(9.9595 -0.0434549 0)
(22.8903 -0.120333 0)
(38.6228 -0.587909 0)
(62.6381 -1.14902 0)
(81.9159 -3.73171 0)
(102.267 -4.04412 0)
(120.105 -7.58692 0)
(127.264 -3.12725 0)
(850.102 -15.3217 0)
(15620.3 -20.2064 0)
(-18493.9 283.451 0)
(8196.52 1118.9 0)
(-3899.03 -1204.42 0)
(1818.83 -1195.22 0)
(908.59 -1470.1 0)
(-136.446 -1071.86 0)
(-527.277 -660.6 0)
(-712.728 -424.544 0)
(-842.555 -280.789 0)
(-849.815 -196.05 0)
(-709.659 -119.725 0)
(-486.093 -49.299 0)
(-301.803 -18.2643 0)
(-203.328 -9.95273 0)
(-156.383 -8.08916 0)
(-129.851 -6.39488 0)
(-108.935 -4.45702 0)
(-90.6762 -2.79642 0)
(-74.8679 -1.64892 0)
(-61.956 -0.917306 0)
(-50.8865 -0.425033 0)
(-40.617 -0.03986 0)
(-32.102 0.242242 0)
(-24.4062 0.412445 0)
(-17.0341 0.492587 0)
(-10.5781 0.455764 0)
(-5.18999 0.335915 0)
(-1.10877 0.184997 0)
(1.63863 0.186551 0)
(5.60411 0.113741 0)
(10.0796 0.485701 0)
(22.6514 0.44394 0)
(38.0596 -0.141801 0)
(60.929 -1.02702 0)
(80.22 -4.52744 0)
(100.109 -5.45753 0)
(119.877 -10.0145 0)
(122.924 -7.51442 0)
(822.625 -20.6009 0)
(14567.6 -64.2855 0)
(-17403 -1372.97 0)
(8742 1733.44 0)
(-5074.77 -340.197 0)
(1507.33 -637.15 0)
(822.158 -1031.27 0)
(131.103 -813.329 0)
(-313.404 -620.798 0)
(-549.489 -471.635 0)
(-723.019 -338.79 0)
(-761.973 -246.228 0)
(-627.387 -142.093 0)
(-431.655 -64.722 0)
(-279.953 -27.8746 0)
(-196.639 -15.5584 0)
(-153.83 -11.3534 0)
(-127.596 -8.31692 0)
(-106.839 -5.51031 0)
(-89.0594 -3.25573 0)
(-73.7784 -1.69552 0)
(-61.2301 -0.656789 0)
(-50.3631 0.0475791 0)
(-40.2262 0.585293 0)
(-31.8384 0.987716 0)
(-24.2646 1.2226 0)
(-17.0167 1.3185 0)
(-10.6782 1.24161 0)
(-5.356 1.05634 0)
(-1.19951 0.836448 0)
(1.59254 0.863752 0)
(5.77468 0.771416 0)
(10.2777 1.31642 0)
(22.2857 1.30869 0)
(37.2053 0.516432 0)
(58.412 -0.578481 0)
(77.6465 -5.01896 0)
(96.9796 -6.40791 0)
(118.122 -11.6936 0)
(117.062 -11.5031 0)
(795.396 -20.6666 0)
(14317.1 -43.7167 0)
(-17108.9 -580.236 0)
(9539.09 1727.67 0)
(-6183.42 -79.9119 0)
(1152.89 -387.429 0)
(738.818 -688.895 0)
(259.097 -616.31 0)
(-198.009 -553.046 0)
(-440.974 -460.715 0)
(-625.344 -368.196 0)
(-660.271 -264.023 0)
(-534.754 -150.623 0)
(-376.028 -72.89 0)
(-254.427 -35.1908 0)
(-187.408 -20.5012 0)
(-149.405 -14.1007 0)
(-124.22 -9.6406 0)
(-104.057 -6.00315 0)
(-87.0002 -3.25738 0)
(-72.3635 -1.3588 0)
(-60.2762 -0.0588077 0)
(-49.6896 0.821943 0)
(-39.711 1.52786 0)
(-31.4878 2.0551 0)
(-24.0874 2.35216 0)
(-17.0158 2.45825 0)
(-10.8308 2.33915 0)
(-5.58042 2.10134 0)
(-1.29435 1.8281 0)
(1.57596 1.92653 0)
(6.04031 1.85064 0)
(10.5973 2.54646 0)
(21.8805 2.5788 0)
(36.241 1.5558 0)
(55.5949 0.197257 0)
(74.6026 -4.56694 0)
(93.6767 -6.51217 0)
(114.967 -12.0468 0)
(114.277 -14.9628 0)
(791.583 -16.3318 0)
(14028.4 -31.7765 0)
(-16801.7 -619.094 0)
(10329.8 1502.11 0)
(-7112.95 -51.9339 0)
(920.489 -246.798 0)
(601.6 -448.278 0)
(262.013 -471.994 0)
(-163.467 -487.859 0)
(-371.361 -438.024 0)
(-533.48 -365.435 0)
(-552.312 -251.093 0)
(-443.204 -146.528 0)
(-320.421 -73.2718 0)
(-229.47 -38.9885 0)
(-176.316 -23.567 0)
(-143.364 -15.7107 0)
(-119.793 -10.2063 0)
(-100.687 -6.01602 0)
(-84.5839 -2.97711 0)
(-70.6962 -0.858679 0)
(-59.1287 0.636311 0)
(-48.8341 1.72596 0)
(-39.0378 2.62578 0)
(-31.0441 3.29411 0)
(-23.8761 3.6715 0)
(-17.0293 3.81725 0)
(-11.0221 3.71286 0)
(-5.84846 3.5306 0)
(-1.36797 3.31273 0)
(1.61427 3.62629 0)
(6.37208 3.76426 0)
(10.9794 4.77498 0)
(21.331 5.06472 0)
(34.9104 4.07077 0)
(52.5119 2.67648 0)
(71.1811 -1.53999 0)
(89.7717 -3.26235 0)
(109.979 -8.24779 0)
(112.933 -12.3408 0)
(779.193 -7.47634 0)
(13736.3 -27.3145 0)
(-16481.7 -716.097 0)
(10936.5 1920.43 0)
(-7868.73 -55.01 0)
(770.955 -220.368 0)
(521.811 -324.903 0)
(220.955 -398.756 0)
(-165.274 -435.163 0)
(-323.002 -408.045 0)
(-445.211 -337.621 0)
(-449.325 -226.868 0)
(-363.398 -133.522 0)
(-272.399 -71.7932 0)
(-206.53 -40.9981 0)
(-164.976 -25.6706 0)
(-136.53 -16.8268 0)
(-114.878 -10.6637 0)
(-97.0911 -6.19215 0)
(-82.0304 -3.01186 0)
(-68.8815 -0.727581 0)
(-57.7856 1.00351 0)
(-47.7724 2.32515 0)
(-38.1999 3.40536 0)
(-30.4801 4.21928 0)
(-23.5833 4.69574 0)
(-16.9759 4.91031 0)
(-11.107 4.86298 0)
(-5.966 4.80133 0)
(-1.20215 4.68337 0)
(2.01107 5.2405 0)
(7.14723 5.58617 0)
(11.8505 6.75091 0)
(21.2019 7.05878 0)
(33.9396 5.82293 0)
(50.1882 4.00586 0)
(68.8797 -0.369388 0)
(87.2128 -2.27806 0)
(106.218 -6.35852 0)
(115.02 -11.0636 0)
(777.153 -1.33427 0)
(13345.6 -22.7793 0)
(-16085.3 -781.613 0)
(12127.4 851.863 0)
(-9175.9 -74.4572 0)
(660.41 -188.035 0)
(429.699 -277.964 0)
(155.762 -369.676 0)
(-172.418 -394.236 0)
(-277.366 -367.853 0)
(-358.891 -293.027 0)
(-355.635 -194.614 0)
(-293.769 -114.594 0)
(-231.261 -64.8928 0)
(-185.024 -38.7043 0)
(-153.024 -24.5375 0)
(-128.903 -15.8688 0)
(-109.545 -9.98713 0)
(-93.3138 -5.88333 0)
(-79.3181 -2.92151 0)
(-66.8268 -0.659911 0)
(-56.187 1.16879 0)
(-46.5196 2.58734 0)
(-37.2126 3.82582 0)
(-29.8006 4.84248 0)
(-23.2102 5.53342 0)
(-16.8681 5.99421 0)
(-11.1272 6.27351 0)
(-6.02154 6.70189 0)
(-0.944773 7.03568 0)
(2.48424 8.23327 0)
(7.82756 9.23115 0)
(12.3984 11.0324 0)
(20.4368 11.8302 0)
(31.9685 10.8234 0)
(46.5447 9.09764 0)
(65.1257 4.18415 0)
(84.0004 1.26935 0)
(101.513 -2.58201 0)
(117.775 -7.41329 0)
(767.904 2.08641 0)
(12984.4 -33.7441 0)
(-15706.6 -846.971 0)
(11685.7 -407.213 0)
(-8870.81 -89.2024 0)
(574.849 -175.186 0)
(346.775 -257.204 0)
(108.911 -346.777 0)
(-163.518 -347.173 0)
(-225.473 -314.527 0)
(-278.272 -243.367 0)
(-277.38 -162.516 0)
(-238.394 -98.3135 0)
(-199.268 -59.1005 0)
(-167.642 -36.8655 0)
(-142.971 -23.8503 0)
(-122.509 -15.5295 0)
(-105.255 -9.96561 0)
(-90.2825 -6.11353 0)
(-76.9969 -3.32693 0)
(-64.9399 -1.1381 0)
(-54.6564 0.657064 0)
(-45.212 2.18683 0)
(-36.0268 3.64583 0)
(-28.8346 4.88954 0)
(-22.4734 5.77864 0)
(-16.2628 6.44479 0)
(-10.425 6.98766 0)
(-5.23155 7.78094 0)
(0.27355 8.358 0)
(4.1267 9.89393 0)
(9.84455 11.149 0)
(14.355 13.1009 0)
(21.0006 13.9717 0)
(31.3064 12.9128 0)
(43.7903 10.9448 0)
(61.3361 6.06009 0)
(80.6927 2.41993 0)
(97.8515 -0.856035 0)
(119.519 -5.35178 0)
(751.78 3.64898 0)
(12527.4 -39.0241 0)
(-15236.6 -880.864 0)
(11649.1 -213.178 0)
(-8952.31 -81.9766 0)
(498.518 -165.462 0)
(264.347 -239.712 0)
(69.0647 -325.989 0)
(-141.34 -303.536 0)
(-177.335 -264.905 0)
(-212.408 -202.089 0)
(-215.856 -136.975 0)
(-194.114 -85.571 0)
(-172.048 -53.3712 0)
(-151.056 -33.2362 0)
(-132.464 -20.6009 0)
(-115.523 -12.197 0)
(-100.472 -6.77816 0)
(-86.9166 -3.17388 0)
(-74.5236 -0.776281 0)
(-62.9877 1.06714 0)
(-52.983 2.67992 0)
(-43.6395 4.22217 0)
(-34.6082 5.81475 0)
(-27.7454 7.26287 0)
(-21.7115 8.40115 0)
(-15.7031 9.38183 0)
(-9.83959 10.2826 0)
(-4.70103 11.4107 0)
(1.09139 12.1062 0)
(5.17377 13.7289 0)
(10.9179 14.6135 0)
(15.1185 15.8276 0)
(20.2555 15.8567 0)
(29.0516 13.849 0)
(39.9412 10.2901 0)
(56.9108 4.68388 0)
(77.3358 0.401926 0)
(94.0239 -1.77576 0)
(122.116 -5.12116 0)
(735.456 4.59374 0)
(12132 -60.0128 0)
(-14820.1 -957.034 0)
(11401.2 -490.098 0)
(-8824.83 -80.798 0)
(422.849 -158.135 0)
(192.085 -223.062 0)
(47.4072 -293.858 0)
(-104.654 -257.821 0)
(-127.715 -217.886 0)
(-154.994 -165.099 0)
(-165.099 -113.393 0)
(-157.83 -72.5537 0)
(-148.837 -45.9741 0)
(-136.063 -27.5432 0)
(-122.697 -15.3107 0)
(-109.189 -7.31985 0)
(-96.5604 -2.56471 0)
(-84.4988 0.533431 0)
(-72.9101 2.72522 0)
(-61.6094 4.56022 0)
(-51.6161 6.29493 0)
(-42.1912 7.88333 0)
(-33.0967 9.54694 0)
(-26.3423 11.1275 0)
(-20.4315 12.3887 0)
(-14.4498 13.51 0)
(-8.46998 14.5034 0)
(-3.47422 15.6491 0)
(2.50746 16.23 0)
(6.54283 17.8746 0)
(11.8669 18.2978 0)
(15.553 18.8226 0)
(19.094 17.9735 0)
(25.9422 15.0806 0)
(34.9585 9.75739 0)
(51.8075 2.39765 0)
(74.4679 -4.88648 0)
(92.5292 -7.80526 0)
(125.657 -10.3216 0)
(698.884 -0.661242 0)
(11600.7 -89.4182 0)
(-14256.6 -1062.11 0)
(11098.9 -662.84 0)
(-8632.42 -85.4345 0)
(361.427 -149.42 0)
(133.56 -199.613 0)
(35.5698 -251.867 0)
(-68.1309 -212.164 0)
(-87.9855 -175.086 0)
(-111.714 -133.615 0)
(-126.676 -93.4376 0)
(-129.147 -60.8808 0)
(-128.674 -38.2351 0)
(-121.507 -20.1082 0)
(-112.976 -8.23612 0)
(-103.241 -0.0204603 0)
(-92.9041 5.49712 0)
(-81.819 9.67719 0)
(-70.6432 13.1984 0)
(-59.5478 16.3195 0)
(-49.7807 19.0702 0)
(-40.5058 21.2452 0)
(-31.482 23.1446 0)
(-25.0069 24.6415 0)
(-19.4156 25.4772 0)
(-13.6653 25.909 0)
(-7.77831 25.8771 0)
(-3.03719 25.8299 0)
(3.23596 25.1357 0)
(7.16641 25.5911 0)
(11.8314 24.5809 0)
(14.806 23.5169 0)
(16.6496 20.9921 0)
(21.1342 16.9025 0)
(27.7194 9.701 0)
(42.7994 1.02801 0)
(67.5039 -9.29273 0)
(88.7865 -12.9831 0)
(129 -16.0471 0)
(659.235 -12.4006 0)
(11109.2 -146.486 0)
(-13710.5 -1188.64 0)
(10680.2 -866.047 0)
(-8330.08 -89.0179 0)
(312.822 -139.951 0)
(93.3637 -174.508 0)
(35.3131 -204.149 0)
(-30.6658 -170.954 0)
(-52.0229 -137.765 0)
(-76.3147 -106.039 0)
(-95.0094 -73.4493 0)
(-104.635 -44.9073 0)
(-109.547 -23.949 0)
(-107.155 -6.56928 0)
(-103.34 4.32084 0)
(-95.9548 12.7218 0)
(-87.2154 18.6469 0)
(-77.0776 23.5944 0)
(-66.5094 27.8578 0)
(-55.9511 31.6714 0)
(-46.8695 35.003 0)
(-38.2649 37.5506 0)
(-29.8238 39.6209 0)
(-24.0945 41.0931 0)
(-19.2102 41.6791 0)
(-14.0644 41.6684 0)
(-8.54625 40.922 0)
(-4.18864 40.1519 0)
(2.2774 38.5665 0)
(6.00817 38.0375 0)
(9.86818 35.9076 0)
(12.0947 33.2252 0)
(12.7201 28.8043 0)
(15.0617 22.7119 0)
(19.6612 12.6078 0)
(33.5044 1.45732 0)
(60.9663 -12.706 0)
(86.0204 -18.3836 0)
(126.218 -21.4314 0)
(573.189 -24.7588 0)
(10467.3 -213.47 0)
(-12970 -1378.57 0)
(10178.6 -993.334 0)
(-7932.73 -88.3529 0)
(279.045 -134.775 0)
(71.6962 -156.306 0)
(38.9947 -161.504 0)
(-4.16083 -138.133 0)
(-25.4308 -103.964 0)
(-49.7372 -80.3195 0)
(-67.7673 -51.453 0)
(-81.4466 -26.8605 0)
(-91.7299 -8.28502 0)
(-94.2655 8.8325 0)
(-94.386 20.2206 0)
(-89.4356 29.6183 0)
(-82.4269 36.5383 0)
(-72.9431 42.8261 0)
(-62.86 48.5012 0)
(-52.6624 53.7173 0)
(-44.1153 58.2536 0)
(-36.0559 61.4844 0)
(-28.0683 63.56 0)
(-23.0235 64.3822 0)
(-18.8612 63.825 0)
(-14.3949 62.4494 0)
(-9.23968 60.1207 0)
(-5.30708 57.9047 0)
(1.19847 54.8635 0)
(4.60421 52.9334 0)
(7.19417 49.4782 0)
(7.96108 44.6618 0)
(6.51863 37.8182 0)
(5.5267 30.1969 0)
(7.23773 17.7211 0)
(18.4061 4.7321 0)
(48.3844 -12.1521 0)
(80.3783 -20.777 0)
(122.857 -24.4357 0)
(474.18 -39.1031 0)
(9804.6 -267.181 0)
(-12176.3 -1528.6 0)
(9637.83 -1126.05 0)
(-7502.74 -75.2441 0)
(247.34 -112.25 0)
(67.6068 -123.816 0)
(52.8254 -110.734 0)
(24.7814 -97.8334 0)
(3.68792 -62.2574 0)
(-25.7132 -44.4023 0)
(-43.4943 -21.1744 0)
(-63.0368 -1.04788 0)
(-75.1518 15.8541 0)
(-79.6862 31.9799 0)
(-83.3098 41.115 0)
(-80.2305 49.2316 0)
(-74.4879 55.2846 0)
(-65.5496 61.3518 0)
(-56.0142 67.1306 0)
(-46.5534 72.6065 0)
(-39.3848 77.385 0)
(-33.1515 80.7769 0)
(-27.0314 83.082 0)
(-23.8391 84.1599 0)
(-21.0726 83.7203 0)
(-17.634 82.3892 0)
(-12.9257 80.0196 0)
(-9.25468 77.912 0)
(-2.51315 74.7811 0)
(0.818655 72.8956 0)
(1.89737 69.655 0)
(0.858726 64.9563 0)
(-1.2188 56.9432 0)
(-4.30455 49.9662 0)
(-4.8776 36.2568 0)
(4.71757 21.3644 0)
(36.3848 2.80956 0)
(74.1835 -8.52057 0)
(108.558 -8.21743 0)
(339.271 -29.6698 0)
(9031.92 -265.172 0)
(-11239.5 -1654.11 0)
(9020.98 -1300.65 0)
(-6955.79 -26.1657 0)
(232.24 -51.6906 0)
(73.1569 -56.1276 0)
(64.0321 -44.7213 0)
(42.5534 -39.9901 0)
(26.0573 -11.0954 0)
(-10.1482 5.89802 0)
(-25.9893 18.0784 0)
(-45.7647 33.8637 0)
(-59.9031 45.8722 0)
(-69.9231 58.3514 0)
(-77.7617 63.6034 0)
(-75.7813 70.3718 0)
(-70.7474 75.8924 0)
(-61.5278 82.2493 0)
(-52.0145 88.5053 0)
(-42.7809 94.5455 0)
(-36.242 99.7939 0)
(-30.566 103.266 0)
(-24.8083 105.196 0)
(-22.4085 105.561 0)
(-20.5676 104.252 0)
(-17.9611 102.243 0)
(-13.5541 99.4224 0)
(-10.3551 97.1696 0)
(-3.6355 93.9298 0)
(-0.335508 92.3316 0)
(-0.456382 90.2244 0)
(-4.28842 87.8208 0)
(-7.92643 81.6837 0)
(-14.4075 78.0432 0)
(-20.324 67.871 0)
(-13.8248 56.026 0)
(19.5862 42.1777 0)
(69.7523 30.3673 0)
(102.477 35.6369 0)
(226.569 20.3462 0)
(8239.23 -173.341 0)
(-10326.8 -1730.17 0)
(8359.26 -1016.88 0)
(-6299.19 76.6762 0)
(218.468 45.6479 0)
(74.3226 39.5214 0)
(68.3761 24.5804 0)
(57.1845 27.5916 0)
(47.9074 46.6568 0)
(2.3997 53.772 0)
(-16.5456 66.027 0)
(-36.2536 76.1511 0)
(-51.5545 82.6855 0)
(-62.5998 88.4432 0)
(-71.7264 90.6966 0)
(-68.3885 96.7564 0)
(-63.0423 102.167 0)
(-53.3954 108.748 0)
(-44.1652 114.688 0)
(-35.6752 119.343 0)
(-30.9814 122.918 0)
(-27.9456 125.513 0)
(-24.82 128.154 0)
(-24.7487 130.224 0)
(-24.2701 130.054 0)
(-22.2883 127.918 0)
(-17.8144 123.469 0)
(-14.5475 119.594 0)
(-7.17528 114.051 0)
(-2.75203 110.853 0)
(-2.44934 107.175 0)
(-7.37141 105.534 0)
(-10.6409 100.879 0)
(-17.615 99.3835 0)
(-26.0942 93.7295 0)
(-20.0415 86.5136 0)
(11.6592 81.3989 0)
(67.8806 77.8191 0)
(98.9018 90.6042 0)
(137.892 95.7567 0)
(7345.06 -21.8012 0)
(-9405.21 -1419.99 0)
(8114.97 -765.59 0)
(-5931.9 204.544 0)
(196.436 172.944 0)
(52.8555 154.383 0)
(52.5361 108.827 0)
(63.827 117.371 0)
(51.2857 120.585 0)
(8.5177 116.999 0)
(-4.42401 142.333 0)
(-29.7119 134.379 0)
(-48.058 134.141 0)
(-62.2034 125.04 0)
(-69.7508 119.349 0)
(-64.7278 116.619 0)
(-59.1919 114.231 0)
(-49.462 116.65 0)
(-41.8044 121.826 0)
(-34.8509 128.713 0)
(-30.2969 135.968 0)
(-25.5203 139.909 0)
(-20.2685 140.99 0)
(-20.5768 140.25 0)
(-22.7901 137.629 0)
(-24.3075 136.44 0)
(-21.5745 135.079 0)
(-19.4306 137.281 0)
(-12.0588 139.324 0)
(-6.96135 141.078 0)
(-5.58264 143.391 0)
(-10.3555 146.545 0)
(-13.8529 149.02 0)
(-21.2967 148.093 0)
(-32.726 147.293 0)
(-25.707 134.726 0)
(11.2079 127.708 0)
(78.6229 122.697 0)
(119.762 133.636 0)
(118.251 158.044 0)
(6778.6 119.197 0)
(-8937.47 -1323.28 0)
(7818.61 9464.12 0)
(-5394.79 1007.15 0)
(170.13 443.266 0)
(12.5372 389.765 0)
(32.7101 406.992 0)
(68.515 528.253 0)
(47.5497 633.074 0)
(23.3565 748.268 0)
(0.202364 852.432 0)
(-44.1473 895.708 0)
(-60.5541 932.257 0)
(-76.8535 938.613 0)
(-79.8415 946.85 0)
(-73.3204 943.024 0)
(-63.0124 939.49 0)
(-46.077 931.679 0)
(-32.5405 928.003 0)
(-22.0471 912.59 0)
(-20.1925 912.94 0)
(-23.107 898.89 0)
(-24.4918 898.844 0)
(-27.9874 915.203 0)
(-27.9414 915.319 0)
(-24.7455 937.851 0)
(-17.0036 935.854 0)
(-10.4568 946.425 0)
(-3.51679 942.678 0)
(1.16703 931.527 0)
(2.8189 920.119 0)
(-1.94725 888.565 0)
(-9.14948 859.602 0)
(-19.2789 786.224 0)
(-38.9744 713.089 0)
(-38.9144 574.147 0)
(0.0673301 442 0)
(73.5932 316.785 0)
(132.964 249.972 0)
(123.978 228.48 0)
(5917.6 768.074 0)
(-8244.92 8173.06 0)
(18205.5 169217 0)
(-14624.7 16973.2 0)
(-398.498 7942.23 0)
(17.9006 8802.1 0)
(185.988 9374.99 0)
(281.688 10279 0)
(263.3 10951.1 0)
(219.899 11721.4 0)
(137.655 12320.5 0)
(47.21 12828.4 0)
(-6.71351 13294 0)
(-48.1408 13665.1 0)
(-65.5003 14017.5 0)
(-71.8202 14333.7 0)
(-70.1242 14639.2 0)
(-60.5309 14893.8 0)
(-60.1986 15129.7 0)
(-49.3668 15333.7 0)
(-43.4988 15399 0)
(-39.103 15429.9 0)
(-4.54933 15418.6 0)
(-4.70084 15327.9 0)
(-0.965299 15283.4 0)
(-4.51993 14932.8 0)
(-13.3121 14676.1 0)
(-12.8542 14244.5 0)
(-26.4153 13861.8 0)
(-28.7003 13353.3 0)
(-46.9825 12902 0)
(-68.672 12284.2 0)
(-112.472 11725.9 0)
(-162.482 10977.8 0)
(-237.092 10248.9 0)
(-286.939 9383.52 0)
(-236.795 8532.06 0)
(-106.422 7568.36 0)
(34.6683 6982.79 0)
(617.513 6077.54 0)
(14434.3 14513.6 0)
(-17553.5 152187 0)
(187239 -193003 0)
(-160805 -20193.9 0)
(-7703.85 -10952.7 0)
(1393.2 -11785.8 0)
(1455.94 -12417 0)
(1587.34 -13489.7 0)
(1437.48 -14356.6 0)
(1342.93 -15254.7 0)
(1066.98 -15978.4 0)
(893.949 -16504.8 0)
(745.673 -16955.1 0)
(620.347 -17271.6 0)
(564.482 -17548.9 0)
(525.716 -17789.4 0)
(476.693 -18019.9 0)
(426.642 -18211.3 0)
(391.348 -18399.8 0)
(237.453 -18555 0)
(72.504 -18595 0)
(-4.26012 -18585.1 0)
(-122.749 -18550 0)
(-158.256 -18453 0)
(-408.718 -18380.9 0)
(-609.897 -18027.8 0)
(-680.28 -17743.3 0)
(-795.178 -17308.1 0)
(-862.26 -16904.8 0)
(-923.753 -16385.8 0)
(-1027.47 -15916.4 0)
(-1135.27 -15270.8 0)
(-1267.96 -14667 0)
(-1442.6 -13838.3 0)
(-1575.31 -13001.4 0)
(-1693.3 -11957.5 0)
(-1749.09 -10946.4 0)
(-1419.33 -9896.7 0)
(-1303.64 -9363.06 0)
(7380.93 -8579.84 0)
(146714 -17663.3 0)
(-168884 -175809 0)
(187239 193003 0)
(-160805 20193.9 0)
(-7703.85 10952.7 0)
(1393.2 11785.8 0)
(1455.94 12417 0)
(1587.34 13489.7 0)
(1437.48 14356.6 0)
(1342.93 15254.7 0)
(1066.98 15978.4 0)
(893.949 16504.8 0)
(745.673 16955.1 0)
(620.347 17271.6 0)
(564.482 17548.9 0)
(525.716 17789.4 0)
(476.693 18019.9 0)
(426.642 18211.3 0)
(391.348 18399.8 0)
(237.453 18555 0)
(72.5039 18595 0)
(-4.26009 18585.1 0)
(-122.749 18550 0)
(-158.256 18453 0)
(-408.718 18380.9 0)
(-609.897 18027.8 0)
(-680.28 17743.3 0)
(-795.178 17308.1 0)
(-862.26 16904.8 0)
(-923.753 16385.8 0)
(-1027.47 15916.4 0)
(-1135.27 15270.8 0)
(-1267.96 14667 0)
(-1442.6 13838.3 0)
(-1575.31 13001.4 0)
(-1693.3 11957.5 0)
(-1749.09 10946.4 0)
(-1419.33 9896.7 0)
(-1303.64 9363.06 0)
(7380.93 8579.84 0)
(146714 17663.3 0)
(-168884 175809 0)
(18205.5 -169217 0)
(-14624.7 -16973.2 0)
(-398.498 -7942.23 0)
(17.9006 -8802.1 0)
(185.988 -9374.99 0)
(281.688 -10279 0)
(263.3 -10951.1 0)
(219.899 -11721.4 0)
(137.655 -12320.5 0)
(47.21 -12828.4 0)
(-6.71351 -13294 0)
(-48.1408 -13665.1 0)
(-65.5003 -14017.5 0)
(-71.8202 -14333.7 0)
(-70.1242 -14639.2 0)
(-60.5309 -14893.8 0)
(-60.1986 -15129.7 0)
(-49.3668 -15333.7 0)
(-43.4988 -15399 0)
(-39.103 -15429.9 0)
(-4.54932 -15418.6 0)
(-4.70084 -15327.9 0)
(-0.9653 -15283.4 0)
(-4.51993 -14932.8 0)
(-13.3121 -14676.1 0)
(-12.8542 -14244.5 0)
(-26.4153 -13861.8 0)
(-28.7003 -13353.3 0)
(-46.9825 -12902 0)
(-68.672 -12284.2 0)
(-112.472 -11725.9 0)
(-162.482 -10977.8 0)
(-237.092 -10248.9 0)
(-286.939 -9383.52 0)
(-236.795 -8532.06 0)
(-106.422 -7568.36 0)
(34.6683 -6982.79 0)
(617.513 -6077.54 0)
(14434.3 -14513.6 0)
(-17553.5 -152187 0)
(7818.61 -9464.12 0)
(-5394.79 -1007.15 0)
(170.13 -443.266 0)
(12.5372 -389.765 0)
(32.7101 -406.992 0)
(68.515 -528.253 0)
(47.5497 -633.074 0)
(23.3565 -748.268 0)
(0.202364 -852.432 0)
(-44.1473 -895.708 0)
(-60.5541 -932.257 0)
(-76.8535 -938.613 0)
(-79.8415 -946.85 0)
(-73.3204 -943.024 0)
(-63.0124 -939.49 0)
(-46.077 -931.679 0)
(-32.5405 -928.003 0)
(-22.0471 -912.59 0)
(-20.1925 -912.94 0)
(-23.107 -898.89 0)
(-24.4918 -898.844 0)
(-27.9874 -915.203 0)
(-27.9414 -915.319 0)
(-24.7455 -937.851 0)
(-17.0036 -935.854 0)
(-10.4568 -946.425 0)
(-3.51679 -942.678 0)
(1.16703 -931.527 0)
(2.8189 -920.119 0)
(-1.94726 -888.565 0)
(-9.14948 -859.602 0)
(-19.2789 -786.224 0)
(-38.9744 -713.089 0)
(-38.9144 -574.147 0)
(0.0673298 -442 0)
(73.5932 -316.785 0)
(132.964 -249.972 0)
(123.978 -228.48 0)
(5917.6 -768.074 0)
(-8244.92 -8173.06 0)
(8114.97 765.59 0)
(-5931.9 -204.544 0)
(196.436 -172.944 0)
(52.8555 -154.383 0)
(52.5361 -108.827 0)
(63.827 -117.371 0)
(51.2857 -120.585 0)
(8.5177 -116.999 0)
(-4.42401 -142.333 0)
(-29.7119 -134.379 0)
(-48.058 -134.141 0)
(-62.2034 -125.04 0)
(-69.7508 -119.349 0)
(-64.7278 -116.619 0)
(-59.1919 -114.231 0)
(-49.462 -116.65 0)
(-41.8044 -121.826 0)
(-34.8509 -128.713 0)
(-30.2969 -135.968 0)
(-25.5203 -139.909 0)
(-20.2685 -140.99 0)
(-20.5768 -140.25 0)
(-22.7901 -137.629 0)
(-24.3075 -136.44 0)
(-21.5745 -135.079 0)
(-19.4306 -137.281 0)
(-12.0588 -139.324 0)
(-6.96135 -141.078 0)
(-5.58264 -143.391 0)
(-10.3555 -146.545 0)
(-13.8529 -149.02 0)
(-21.2967 -148.093 0)
(-32.726 -147.293 0)
(-25.707 -134.726 0)
(11.2079 -127.708 0)
(78.6229 -122.697 0)
(119.762 -133.636 0)
(118.251 -158.044 0)
(6778.6 -119.197 0)
(-8937.47 1323.28 0)
(8359.26 1016.88 0)
(-6299.19 -76.6762 0)
(218.468 -45.6479 0)
(74.3226 -39.5214 0)
(68.3761 -24.5804 0)
(57.1845 -27.5916 0)
(47.9074 -46.6568 0)
(2.3997 -53.772 0)
(-16.5456 -66.027 0)
(-36.2536 -76.1511 0)
(-51.5545 -82.6855 0)
(-62.5998 -88.4432 0)
(-71.7264 -90.6966 0)
(-68.3885 -96.7564 0)
(-63.0423 -102.167 0)
(-53.3954 -108.748 0)
(-44.1652 -114.688 0)
(-35.6752 -119.343 0)
(-30.9814 -122.918 0)
(-27.9456 -125.513 0)
(-24.82 -128.154 0)
(-24.7487 -130.224 0)
(-24.2701 -130.054 0)
(-22.2883 -127.918 0)
(-17.8144 -123.469 0)
(-14.5475 -119.594 0)
(-7.17528 -114.051 0)
(-2.75203 -110.853 0)
(-2.44934 -107.175 0)
(-7.37141 -105.534 0)
(-10.6409 -100.879 0)
(-17.615 -99.3835 0)
(-26.0942 -93.7295 0)
(-20.0415 -86.5136 0)
(11.6592 -81.3989 0)
(67.8806 -77.8191 0)
(98.9018 -90.6042 0)
(137.892 -95.7567 0)
(7345.06 21.8012 0)
(-9405.21 1419.99 0)
(9020.98 1300.65 0)
(-6955.79 26.1657 0)
(232.24 51.6906 0)
(73.1569 56.1276 0)
(64.0321 44.7213 0)
(42.5534 39.9901 0)
(26.0573 11.0954 0)
(-10.1482 -5.89802 0)
(-25.9893 -18.0784 0)
(-45.7647 -33.8636 0)
(-59.9031 -45.8722 0)
(-69.9231 -58.3514 0)
(-77.7617 -63.6034 0)
(-75.7813 -70.3718 0)
(-70.7474 -75.8924 0)
(-61.5278 -82.2493 0)
(-52.0145 -88.5053 0)
(-42.7809 -94.5455 0)
(-36.242 -99.7939 0)
(-30.566 -103.266 0)
(-24.8083 -105.196 0)
(-22.4085 -105.561 0)
(-20.5676 -104.252 0)
(-17.9611 -102.243 0)
(-13.5541 -99.4224 0)
(-10.3551 -97.1696 0)
(-3.6355 -93.9298 0)
(-0.335508 -92.3316 0)
(-0.456382 -90.2244 0)
(-4.28842 -87.8208 0)
(-7.92643 -81.6837 0)
(-14.4075 -78.0432 0)
(-20.324 -67.871 0)
(-13.8248 -56.026 0)
(19.5862 -42.1777 0)
(69.7523 -30.3673 0)
(102.477 -35.6369 0)
(226.569 -20.3462 0)
(8239.23 173.341 0)
(-10326.8 1730.17 0)
(9637.83 1126.05 0)
(-7502.74 75.2441 0)
(247.34 112.25 0)
(67.6068 123.816 0)
(52.8254 110.734 0)
(24.7814 97.8334 0)
(3.68792 62.2574 0)
(-25.7132 44.4023 0)
(-43.4943 21.1744 0)
(-63.0368 1.04788 0)
(-75.1518 -15.8541 0)
(-79.6862 -31.9799 0)
(-83.3098 -41.115 0)
(-80.2305 -49.2316 0)
(-74.4879 -55.2846 0)
(-65.5496 -61.3518 0)
(-56.0142 -67.1306 0)
(-46.5534 -72.6065 0)