/*--------------------------------*- C++ -*----------------------------------*\
| =========                 |                                                 |
| \\      /  F ield         | OpenFOAM: The Open Source CFD Toolbox           |
|  \\    /   O peration     | Version:  v1912                                 |
|   \\  /    A nd           | Website:  www.openfoam.com                      |
|    \\/     M anipulation  |                                                 |
\*---------------------------------------------------------------------------*/
FoamFile
{
    version     2.0;
    format      ascii;
    class       volScalarField;
    location    "4.64";
    object      Ma;
}
// * * * * * * * * * * * * * * * * * * * * * * * * * * * * * * * * * * * * * //

dimensions      [0 0 0 0 0 0 0];


internalField   nonuniform List<scalar> 
1900
(
0.789618
0.0934759
0.0243854
0.0175214
0.00548427
0.00730913
0.0203193
0.0321184
0.0425278
0.0455416
0.789618
0.0934761
0.0243859
0.0175517
0.00555017
0.00717469
0.0201577
0.0323994
0.0441484
0.0553756
0.789617
0.0934769
0.024391
0.0175717
0.00558155
0.0071417
0.0202215
0.0327763
0.0451866
0.0586033
0.789618
0.0934761
0.0243859
0.0175517
0.00555017
0.00717469
0.0201577
0.0323994
0.0441484
0.0553756
0.789618
0.0934759
0.0243854
0.0175214
0.00548427
0.00730913
0.0203193
0.0321184
0.0425278
0.0455416
0.0553421
0.0811286
0.119813
0.176032
0.280085
0.0697085
0.0882515
0.111424
0.157144
0.252653
0.0739677
0.0925969
0.118023
0.163808
0.257704
0.0697085
0.0882515
0.111424
0.157144
0.252653
0.0553421
0.0811286
0.119813
0.176032
0.280085
0.449373
0.454956
0.478707
0.513056
0.553896
0.443356
0.470333
0.491889
0.524731
0.582792
0.448086
0.472771
0.488087
0.519671
0.590158
0.443356
0.470333
0.491889
0.524731
0.582792
0.449373
0.454956
0.478707
0.513056
0.553896
0.476444
0.654334
0.424088
0.225367
0.183011
0.225979
0.262293
0.286837
0.310819
0.328942
0.332146
0.316037
0.287621
0.253827
0.217382
0.17901
0.139007
0.0979673
0.0576208
0.0296535
0.0501522
0.0919082
0.137256
0.183628
0.230359
0.277128
0.323762
0.370296
0.416512
0.462223
0.507202
0.549978
0.590946
0.627782
0.662804
0.692596
0.721153
0.737243
0.732482
1.6214
0.714553
0.93074
0.595456
0.219014
0.114091
0.21407
0.259753
0.285092
0.309386
0.328591
0.332203
0.316
0.287345
0.253279
0.216511
0.177714
0.137079
0.0949301
0.0519517
0.0154202
0.0433513
0.0885541
0.135204
0.182279
0.229468
0.27657
0.323464
0.370211
0.416599
0.462462
0.507549
0.550434
0.591452
0.62833
0.663331
0.693041
0.721504
0.737427
0.732679
1.62004
0.758923
0.980851
0.658505
0.237768
0.0643862
0.211749
0.261252
0.285905
0.310234
0.32887
0.332472
0.316233
0.287429
0.253208
0.216288
0.17732
0.136453
0.0939074
0.0499249
0.00492878
0.0408464
0.087423
0.134535
0.181861
0.229222
0.276461
0.323478
0.370347
0.416864
0.462877
0.508139
0.551255
0.592574
0.629847
0.665376
0.695673
0.724914
0.741339
0.736237
1.62338
0.714553
0.93074
0.595456
0.219014
0.114091
0.21407
0.259753
0.285092
0.309386
0.328591
0.332203
0.316
0.287345
0.253279
0.216511
0.177714
0.137079
0.0949301
0.0519517
0.0154202
0.0433513
0.0885541
0.135204
0.182279
0.229468
0.27657
0.323464
0.370211
0.416599
0.462462
0.507549
0.550434
0.591452
0.62833
0.663331
0.693041
0.721504
0.737427
0.732679
1.62004
0.476444
0.654334
0.424088
0.225367
0.183011
0.225979
0.262293
0.286837
0.310819
0.328942
0.332146
0.316037
0.287621
0.253827
0.217382
0.17901
0.139007
0.0979673
0.0576208
0.0296535
0.0501522
0.0919082
0.137256
0.183628
0.230359
0.277128
0.323762
0.370296
0.416512
0.462223
0.507202
0.549978
0.590946
0.627782
0.662804
0.692596
0.721153
0.737243
0.732482
1.6214
0.554587
0.308814
0.365887
0.356043
0.293842
0.266439
0.286619
0.304278
0.324063
0.338055
0.338742
0.322053
0.293871
0.260536
0.224783
0.187511
0.149386
0.111807
0.0785183
0.0609611
0.0731197
0.106206
0.14738
0.191511
0.236901
0.282808
0.328858
0.374977
0.420913
0.466378
0.511266
0.553907
0.594965
0.631877
0.667152
0.697163
0.726233
0.743459
0.738976
1.62138
1.29142
0.697483
0.640309
0.52718
0.42089
0.354811
0.343621
0.341957
0.351783
0.359228
0.354857
0.336552
0.308964
0.277031
0.243269
0.208872
0.175057
0.143983
0.119716
0.109118
0.116223
0.13919
0.172701
0.211686
0.253571
0.297004
0.341239
0.385955
0.430837
0.475327
0.519627
0.561528
0.602361
0.638902
0.674154
0.703906
0.733159
0.752042
0.747459
1.62065
1.46435
0.854971
0.766272
0.610971
0.497512
0.436477
0.404094
0.389566
0.388692
0.387732
0.378047
0.357767
0.33076
0.300537
0.26922
0.23813
0.208716
0.183118
0.164491
0.157098
0.161978
0.178849
0.205998
0.239659
0.277397
0.317644
0.359402
0.402117
0.445463
0.488479
0.531873
0.572648
0.613071
0.64904
0.684188
0.713563
0.743127
0.763554
0.762867
1.63961
1.49815
0.90288
0.807614
0.664361
0.561297
0.505144
0.462443
0.441619
0.430159
0.421986
0.407082
0.384911
0.358361
0.32977
0.300809
0.272767
0.247049
0.225471
0.210363
0.204791
0.208413
0.221431
0.243892
0.272987
0.306739
0.343671
0.382712
0.423131
0.464697
0.505928
0.548242
0.587676
0.62756
0.662896
0.697855
0.726812
0.756471
0.777761
0.777454
1.63052
1.52699
0.923566
0.829259
0.70373
0.617711
0.563558
0.518813
0.492369
0.474057
0.459078
0.440031
0.416371
0.390244
0.363105
0.336218
0.310764
0.287968
0.269294
0.256508
0.252117
0.254917
0.265298
0.284325
0.309728
0.33996
0.373753
0.410088
0.448096
0.487781
0.527018
0.568147
0.60613
0.645376
0.680015
0.71478
0.743442
0.773249
0.795531
0.798165
1.64502
1.53506
0.934755
0.844801
0.738838
0.668387
0.613804
0.569915
0.539528
0.517104
0.497197
0.475229
0.450675
0.425059
0.399234
0.374143
0.350829
0.330319
0.313774
0.302597
0.299046
0.301255
0.309702
0.326159
0.34862
0.375852
0.406802
0.440566
0.476137
0.513904
0.550951
0.590703
0.627006
0.665235
0.698824
0.732814
0.760565
0.789458
0.810891
0.81613
1.63885
1.55937
0.953198
0.865467
0.775755
0.71675
0.661677
0.619018
0.586576
0.560709
0.536991
0.51273
0.487463
0.462218
0.437447
0.413818
0.392223
0.373482
0.358514
0.34849
0.345578
0.347333
0.354288
0.368772
0.388893
0.413629
0.442114
0.473609
0.506924
0.543029
0.578083
0.61678
0.651875
0.689615
0.722905
0.756956
0.784912
0.813958
0.836183
0.844634
1.65615
1.57699
0.969245
0.884632
0.808335
0.758083
0.703129
0.661901
0.628289
0.600253
0.574459
0.549316
0.524242
0.499858
0.47636
0.454212
0.434191
0.416952
0.403241
0.394116
0.391754
0.393149
0.398874
0.411758
0.42992
0.45245
0.478613
0.507872
0.538716
0.572888
0.605441
0.642434
0.675588
0.711807
0.743764
0.776535
0.80332
0.831122
0.85217
0.866414
1.65547
1.60884
0.993628
0.911679
0.844299
0.799599
0.746204
0.706612
0.672397
0.642896
0.615383
0.58929
0.56398
0.539889
0.517071
0.495841
0.476856
0.460664
0.447858
0.439405
0.43749
0.438578
0.443296
0.454953
0.471631
0.492482
0.516884
0.544542
0.573522
0.606566
0.637434
0.673608
0.705878
0.741602
0.77342
0.806021
0.832754
0.860087
0.881124
0.898849
1.6703
1.61504
1.01194
0.934227
0.87518
0.835366
0.783942
0.745916
0.710937
0.680543
0.652125
0.625923
0.601071
0.577876
0.556215
0.536273
0.518589
0.503579
0.491711
0.483922
0.482492
0.483335
0.487102
0.497563
0.512733
0.53177
0.554144
0.579883
0.606445
0.637859
0.666438
0.701098
0.73184
0.766437
0.797393
0.82917
0.855157
0.881328
0.900962
0.925518
1.67366
1.62916
1.03549
0.962007
0.909486
0.872248
0.823547
0.787351
0.751817
0.721211
0.692299
0.666112
0.641415
0.618562
0.597408
0.578132
0.561101
0.546659
0.535207
0.527728
0.526614
0.527228
0.530279
0.540012
0.554334
0.572348
0.593542
0.618294
0.643234
0.673873
0.70091
0.734675
0.764476
0.798483
0.829154
0.860903
0.887012
0.912887
0.932426
0.961368
1.68418
1.63911
1.05802
0.988219
0.941188
0.905385
0.859557
0.825093
0.788963
0.758477
0.729153
0.703042
0.678351
0.656025
0.635459
0.616821
0.600479
0.586734
0.575871
0.568879
0.568219
0.568622
0.570851
0.579667
0.592904
0.60964
0.629391
0.65298
0.676105
0.705975
0.731479
0.764386
0.793272
0.826713
0.856868
0.88827
0.913658
0.938359
0.956051
0.992295
1.68948
1.65168
1.08225
1.01569
0.973698
0.939153
0.896775
0.863822
0.82722
0.796951
0.767038
0.741047
0.71648
0.694517
0.674212
0.6559
0.639786
0.626188
0.615368
0.608447
0.608052
0.608291
0.610002
0.618437
0.631271
0.647452
0.666387
0.689455
0.711136
0.740637
0.764923
0.797189
0.825422
0.858924
0.88922
0.921267
0.947179
0.972085
0.989432
1.03028
1.69668
1.6615
1.10994
1.04665
1.00732
0.972861
0.932485
0.899457
0.862662
0.832495
0.80175
0.776199
0.751215
0.729352
0.709069
0.690964
0.675039
0.6616
0.650853
0.644045
0.64394
0.643948
0.645006
0.652931
0.66526
0.680836
0.698945
0.721654
0.742001
0.771479
0.794923
0.827057
0.854902
0.888768
0.919158
0.951396
0.97704
1.00161
1.01791
1.06376
1.70007
1.6743
1.13481
1.07326
1.03781
1.00369
0.965737
0.931846
0.896126
0.866378
0.835074
0.809915
0.784607
0.763283
0.743071
0.725134
0.709218
0.695697
0.684776
0.677925
0.678123
0.678041
0.678693
0.686459
0.698692
0.714049
0.731511
0.754145
0.773123
0.802399
0.824715
0.856481
0.883631
0.917769
0.948149
0.980966
1.00667
1.03148
1.04652
1.09535
1.70249
1.67907
1.15577
1.0967
1.06525
1.02998
0.9948
0.95948
0.925323
0.895976
0.863814
0.839617
0.813621
0.792636
0.772077
0.75407
0.738065
0.724479
0.713439
0.706575
0.707063
0.706773
0.706865
0.714348
0.726389
0.741481
0.758246
0.781102
0.79901
0.828499
0.850111
0.882069
0.90859
0.943287
0.973368
1.0063
1.03175
1.05603
1.0693
1.1193
1.69752
1.67239
1.16901
1.11262
1.08711
1.05024
1.01828
0.981577
0.948871
0.920222
0.887644
0.864832
0.838827
0.819165
0.798944
0.781419
0.765508
0.75184
0.740535
0.733532
0.734395
0.734125
0.733953
0.741607
0.75392
0.769105
0.785115
0.808093
0.824649
0.853773
0.874142
0.905842
0.931089
0.965963
0.995628
1.02872
1.05409
1.07757
1.08855
1.1332
1.67823
1.64188
1.16869
1.11807
1.09795
1.06334
1.03568
0.997919
0.968196
0.93876
0.907897
0.885961
0.860006
0.841652
0.82096
0.803277
0.7863
0.771031
0.757871
0.749292
0.749728
0.749565
0.74986
0.758729
0.772341
0.788965
0.804691
0.828849
0.844294
0.873762
0.892945
0.924898
0.948402
0.983254
1.01173
1.04376
1.06721
1.08845
1.09644
1.13563
1.63177
1.754
1.12474
1.12686
1.12117
1.09388
1.0638
1.02385
0.989643
0.954012
0.919782
0.891849
0.862592
0.839107
0.815093
0.794163
0.775395
0.758985
0.747619
0.738658
0.740309
0.740258
0.73885
0.748881
0.759976
0.779636
0.797256
0.825152
0.846685
0.879694
0.906133
0.942084
0.972897
1.0118
1.04635
1.0818
1.10943
1.12621
1.13044
1.10984
1.72328
2.43276
1.74309
1.63786
1.67639
1.68819
1.69014
1.68642
1.68356
1.67497
1.67189
1.66299
1.65767
1.65046
1.64461
1.63754
1.63261
1.62377
1.62918
1.61603
1.63145
1.63195
1.61331
1.63142
1.61717
1.63866
1.63261
1.65038
1.64908
1.66413
1.6669
1.67786
1.68314
1.69108
1.69512
1.69848
1.69453
1.67616
1.63035
1.71742
2.41551
2.43276
1.74309
1.63786
1.67639
1.68819
1.69014
1.68642
1.68356
1.67497
1.67189
1.66299
1.65767
1.65046
1.64461
1.63754
1.63261
1.62377
1.62918
1.61603
1.63145
1.63195
1.61331
1.63142
1.61717
1.63866
1.63261
1.65038
1.64908
1.66413
1.6669
1.67786
1.68314
1.69108
1.69512
1.69848
1.69453
1.67616
1.63035
1.71742
2.41551
1.754
1.12474
1.12686
1.12117
1.09388
1.0638
1.02385
0.989643
0.954012
0.919782
0.891849
0.862592
0.839107
0.815093
0.794163
0.775395
0.758985
0.747619
0.738658
0.740309
0.740258
0.73885
0.748881
0.759976
0.779636
0.797256
0.825152
0.846685
0.879694
0.906133
0.942084
0.972897
1.0118
1.04635
1.0818
1.10943
1.12621
1.13044
1.10984
1.72328
1.64188
1.16869
1.11807
1.09795
1.06334
1.03568
0.997919
0.968196
0.93876
0.907897
0.885961
0.860006
0.841652
0.82096
0.803277
0.7863
0.771031
0.757871
0.749292
0.749728
0.749565
0.74986
0.758729
0.772341
0.788965
0.804691
0.828849
0.844294
0.873762
0.892945
0.924898
0.948402
0.983254
1.01173
1.04376
1.06721
1.08845
1.09644
1.13563
1.63177
1.67239
1.16901
1.11262
1.08711
1.05024
1.01828
0.981577
0.948871
0.920222
0.887644
0.864832
0.838827
0.819165
0.798944
0.781419
0.765508
0.75184
0.740535
0.733532
0.734395
0.734125
0.733953
0.741607
0.75392
0.769105
0.785115
0.808093
0.824649
0.853773
0.874142
0.905842
0.931089
0.965963
0.995628
1.02872
1.05409
1.07757
1.08855
1.1332
1.67823
1.67907
1.15577
1.0967
1.06525
1.02998
0.9948
0.95948
0.925323
0.895976
0.863814
0.839617
0.813621
0.792636
0.772077
0.75407
0.738065
0.724479
0.713439
0.706575
0.707063
0.706773
0.706865
0.714348
0.726389
0.741481
0.758246
0.781102
0.79901
0.828499
0.850111
0.882069
0.90859
0.943287
0.973368
1.0063
1.03175
1.05603
1.0693
1.1193
1.69752
1.6743
1.13481
1.07326
1.03781
1.00369
0.965737
0.931846
0.896126
0.866378
0.835074
0.809915
0.784607
0.763283
0.743071
0.725134
0.709218
0.695697
0.684776
0.677925
0.678123
0.678041
0.678693
0.686459
0.698692
0.714049
0.731511
0.754145
0.773123
0.802399
0.824715
0.856481
0.883631
0.917769
0.948149
0.980966
1.00667
1.03148
1.04652
1.09535
1.70249
1.6615
1.10994
1.04665
1.00732
0.972861
0.932485
0.899457
0.862662
0.832495
0.80175
0.776199
0.751215
0.729352
0.709069
0.690964
0.675039
0.6616
0.650853
0.644045
0.64394
0.643948
0.645006
0.652931
0.66526
0.680836
0.698945
0.721654
0.742001
0.771479
0.794923
0.827057
0.854902
0.888768
0.919158
0.951396
0.97704
1.00161
1.01791
1.06376
1.70007
1.65168
1.08225
1.01569
0.973698
0.939153
0.896775
0.863822
0.82722
0.796951
0.767038
0.741047
0.71648
0.694517
0.674212
0.6559
0.639786
0.626188
0.615368
0.608447
0.608052
0.608291
0.610002
0.618437
0.631271
0.647452
0.666387
0.689455
0.711136
0.740637
0.764923
0.797189
0.825422
0.858924
0.88922
0.921267
0.947179
0.972085
0.989432
1.03028
1.69668
1.63911
1.05802
0.988219
0.941188
0.905385
0.859557
0.825093
0.788963
0.758477
0.729153
0.703042
0.678351
0.656025
0.635459
0.616821
0.600479
0.586734
0.575871
0.568879
0.568219
0.568622
0.570851
0.579667
0.592904
0.60964
0.629391
0.65298
0.676105
0.705975
0.731479
0.764386
0.793272
0.826713
0.856868
0.88827
0.913658
0.938359
0.956051
0.992295
1.68948
1.62916
1.03549
0.962007
0.909486
0.872248
0.823547
0.787351
0.751817
0.721211
0.692299
0.666112
0.641415
0.618562
0.597408
0.578132
0.561101
0.546659
0.535207
0.527728
0.526614
0.527228
0.530279
0.540012
0.554334
0.572348
0.593542
0.618294
0.643234
0.673873
0.70091
0.734675
0.764476
0.798483
0.829154
0.860903
0.887012
0.912887
0.932426
0.961368
1.68418
1.61504
1.01194
0.934227
0.87518
0.835366
0.783942
0.745916
0.710937
0.680543
0.652125
0.625923
0.601071
0.577876
0.556215
0.536273
0.518589
0.503579
0.491711
0.483922
0.482492
0.483335
0.487102
0.497563
0.512733
0.53177
0.554144
0.579883
0.606445
0.637859
0.666438
0.701098
0.73184
0.766437
0.797393
0.82917
0.855157
0.881328
0.900962
0.925518
1.67366
1.60884
0.993628
0.911679
0.844299
0.799599
0.746204
0.706612
0.672397
0.642896
0.615383
0.58929
0.56398
0.539889
0.517071
0.495841
0.476856
0.460664
0.447858
0.439405
0.43749
0.438578
0.443296
0.454953
0.471631
0.492482
0.516884
0.544542
0.573522
0.606566
0.637434
0.673608
0.705878
0.741602
0.77342
0.806021
0.832754
0.860087
0.881124
0.898849
1.6703
1.57699
0.969245
0.884632
0.808335
0.758083
0.703129
0.661901
0.628289
0.600253
0.574459
0.549316
0.524242
0.499858
0.47636
0.454212
0.434191
0.416952
0.403241
0.394116
0.391754
0.393149
0.398874
0.411758
0.42992
0.45245
0.478613
0.507872
0.538716
0.572888
0.605441
0.642434
0.675588
0.711807
0.743764
0.776535
0.80332
0.831122
0.85217
0.866414
1.65547
1.55937
0.953198
0.865467
0.775755
0.71675
0.661677
0.619018
0.586576
0.560709
0.536991
0.51273
0.487463
0.462218
0.437447
0.413818
0.392223
0.373482
0.358514
0.34849
0.345578
0.347333
0.354288
0.368772
0.388893
0.413629
0.442114
0.473609
0.506924
0.543029
0.578083
0.61678
0.651875
0.689615
0.722905
0.756956
0.784912
0.813958
0.836183
0.844634
1.65615
1.53506
0.934755
0.844801
0.738838
0.668387
0.613804
0.569915
0.539528
0.517104
0.497197
0.475229
0.450675
0.425059
0.399234
0.374143
0.350829
0.330319
0.313774
0.302597
0.299046
0.301255
0.309702
0.326159
0.34862
0.375852
0.406802
0.440566
0.476137
0.513904
0.550951
0.590703
0.627006
0.665235
0.698824
0.732814
0.760565
0.789458
0.810891
0.81613
1.63885
1.52699
0.923566
0.829259
0.70373
0.617711
0.563558
0.518813
0.492369
0.474057
0.459078
0.440031
0.416371
0.390244
0.363105
0.336218
0.310764
0.287968
0.269294
0.256508
0.252117
0.254917
0.265298
0.284325
0.309728
0.33996
0.373753
0.410088
0.448096
0.487781
0.527018
0.568147
0.60613
0.645376
0.680015
0.71478
0.743442
0.773249
0.795531
0.798165
1.64502
1.49815
0.90288
0.807614
0.664361
0.561297
0.505144
0.462443
0.441619
0.430159
0.421986
0.407082
0.384911
0.358361
0.32977
0.300809
0.272767
0.247049
0.225471
0.210363
0.204791
0.208413
0.221431
0.243892
0.272987
0.306739
0.343671
0.382712
0.423131
0.464697
0.505928
0.548242
0.587676
0.62756
0.662896
0.697855
0.726812
0.756471
0.777761
0.777454
1.63052
1.46435
0.854971
0.766272
0.610971
0.497512
0.436477
0.404094
0.389566
0.388692
0.387732
0.378047
0.357767
0.33076
0.300537
0.26922
0.23813
0.208716
0.183118
0.164491
0.157098
0.161978
0.178849
0.205998
0.239659
0.277397
0.317644
0.359402
0.402117
0.445463
0.488479
0.531873
0.572648
0.613071
0.64904
0.684188
0.713563
0.743127
0.763554
0.762867
1.63961
1.29142
0.697483
0.640309
0.52718
0.42089
0.354811
0.343621
0.341957
0.351783
0.359228
0.354857
0.336552
0.308964
0.277031
0.243269
0.208872
0.175057
0.143983
0.119716
0.109118
0.116223
0.13919
0.172701
0.211686
0.253571
0.297004
0.341239
0.385955
0.430837
0.475327
0.519627
0.561528
0.602361
0.638902
0.674154
0.703906
0.733159
0.752042
0.747459
1.62065
0.554587
0.308814
0.365887
0.356043
0.293842
0.266439
0.286619
0.304278
0.324063
0.338055
0.338742
0.322053
0.293871
0.260536
0.224783
0.187511
0.149386
0.111807
0.0785183
0.0609611
0.0731197
0.106206
0.14738
0.191511
0.236901
0.282808
0.328858
0.374977
0.420913
0.466378
0.511266
0.553907
0.594965
0.631877
0.667152
0.697163
0.726233
0.743459
0.738976
1.62138
)
;

boundaryField
{
    inlet
    {
        type            calculated;
        value           uniform 0;
    }
    outlet
    {
        type            calculated;
        value           nonuniform List<scalar> 
165
(
0.554587
1.29142
1.46435
1.49815
1.52699
1.53506
1.55937
1.57699
1.60884
1.61504
1.62916
1.63911
1.65168
1.6615
1.6743
1.67907
1.67239
1.64188
1.754
2.43276
2.43276
1.74309
1.63786
1.67639
1.68819
1.69014
1.68642
1.68356
1.67497
1.67189
1.66299
1.65767
1.65046
1.64461
1.63754
1.63261
1.62377
1.62918
1.61603
1.63145
1.63195
1.61331
1.63142
1.61717
1.63866
1.63261
1.65038
1.64908
1.66413
1.6669
1.67786
1.68314
1.69108
1.69512
1.69848
1.69453
1.67616
1.63035
1.71742
2.41551
1.62138
1.62065
1.63961
1.63052
1.64502
1.63885
1.65615
1.65547
1.6703
1.67366
1.68418
1.68948
1.69668
1.70007
1.70249
1.69752
1.67823
1.63177
1.72328
2.41551
1.6214
1.62004
1.62338
1.62004
1.6214
2.41551
1.72328
1.63177
1.67823
1.69752
1.70249
1.70007
1.69668
1.68948
1.68418
1.67366
1.6703
1.65547
1.65615
1.63885
1.64502
1.63052
1.63961
1.62065
1.62138
2.43276
1.74309
1.63786
1.67639
1.68819
1.69014
1.68642
1.68356
1.67497
1.67189
1.66299
1.65767
1.65046
1.64461
1.63754
1.63261
1.62377
1.62918
1.61603
1.63145
1.63195
1.61331
1.63142
1.61717
1.63866
1.63261
1.65038
1.64908
1.66413
1.6669
1.67786
1.68314
1.69108
1.69512
1.69848
1.69453
1.67616
1.63035
1.71742
2.41551
2.43276
1.754
1.64188
1.67239
1.67907
1.6743
1.6615
1.65168
1.63911
1.62916
1.61504
1.60884
1.57699
1.55937
1.53506
1.52699
1.49815
1.46435
1.29142
0.554587
)
;
    }
    obstacle
    {
        type            calculated;
        value           nonuniform List<scalar> 
40
(
0.789618
0.0934759
0.0243854
0.0175214
0.00548424
0.00730909
0.0203191
0.0321163
0.0425213
0.0451976
0.789618
0.0934759
0.0243854
0.0175214
0.00548424
0.00730909
0.0203191
0.0321163
0.0425213
0.0451976
0.053098
0.0776544
0.116194
0.173757
0.273518
0.053098
0.0776544
0.116194
0.173757
0.273518
0.446484
0.454469
0.478492
0.512802
0.552734
0.446484
0.454469
0.478492
0.512802
0.552734
)
;
    }
    empty
    {
        type            empty;
    }
}


// ************************************************************************* //
