/*--------------------------------*- C++ -*----------------------------------*\
| =========                 |                                                 |
| \\      /  F ield         | OpenFOAM: The Open Source CFD Toolbox           |
|  \\    /   O peration     | Version:  v1912                                 |
|   \\  /    A nd           | Website:  www.openfoam.com                      |
|    \\/     M anipulation  |                                                 |
\*---------------------------------------------------------------------------*/
FoamFile
{
    version     2.0;
    format      ascii;
    class       volScalarField;
    location    "4.64";
    object      T;
}
// * * * * * * * * * * * * * * * * * * * * * * * * * * * * * * * * * * * * * //

dimensions      [0 0 0 1 0 0 0];


internalField   nonuniform List<scalar> 
1900
(
1.16851
0.967414
0.98855
1.00664
1.00965
1.00858
1.0056
1.0018
0.998484
0.992314
1.16851
0.967411
0.988551
1.00664
1.00967
1.00862
1.00567
1.00185
0.997582
0.991273
1.16851
0.96741
0.988552
1.00665
1.00968
1.00863
1.00565
1.00173
0.997253
0.990938
1.16851
0.967411
0.988551
1.00664
1.00967
1.00862
1.00567
1.00185
0.997582
0.991273
1.16851
0.967414
0.98855
1.00664
1.00965
1.00858
1.0056
1.0018
0.998484
0.992314
0.988557
0.978264
0.964641
0.948105
0.944863
0.984412
0.974314
0.960843
0.944699
0.929136
0.984267
0.974222
0.960769
0.944883
0.930572
0.984412
0.974314
0.960843
0.944699
0.929136
0.988557
0.978264
0.964641
0.948105
0.944863
0.848249
0.798615
0.755734
0.716211
0.683643
0.856913
0.803166
0.758454
0.718476
0.685105
0.85622
0.801763
0.757413
0.717471
0.684036
0.856913
0.803166
0.758454
0.718476
0.685105
0.848249
0.798615
0.755734
0.716211
0.683643
0.654219
0.590784
0.627647
0.663364
0.653768
0.635773
0.621768
0.609248
0.595658
0.582556
0.571668
0.565104
0.561098
0.558199
0.55578
0.553711
0.551969
0.550519
0.549325
0.548324
0.547514
0.546871
0.546358
0.545986
0.545737
0.545601
0.545552
0.545566
0.545618
0.545769
0.545982
0.546603
0.547377
0.548861
0.550285
0.552478
0.554745
0.556692
0.522801
0.426251
0.64359
0.585199
0.622272
0.665424
0.656505
0.636897
0.622098
0.609456
0.595746
0.582729
0.571693
0.565109
0.561101
0.558203
0.555785
0.553715
0.551971
0.550521
0.549326
0.548325
0.547514
0.546871
0.546358
0.545985
0.545736
0.545599
0.545551
0.545564
0.545616
0.545766
0.545979
0.5466
0.547374
0.54887
0.550299
0.5525
0.554757
0.556779
0.523221
0.427011
0.639566
0.592928
0.631532
0.671031
0.658663
0.637329
0.622231
0.609567
0.595789
0.582766
0.571707
0.565113
0.561102
0.558206
0.555787
0.553717
0.551973
0.550522
0.549327
0.548326
0.547515
0.546872
0.546358
0.545986
0.545737
0.5456
0.545551
0.545564
0.545617
0.545766
0.54598
0.546603
0.547381
0.548888
0.550331
0.552555
0.554841
0.556958
0.523618
0.428841
0.64359
0.585199
0.622272
0.665424
0.656505
0.636897
0.622098
0.609456
0.595746
0.582729
0.571693
0.565109
0.561101
0.558203
0.555785
0.553715
0.551971
0.550521
0.549326
0.548325
0.547514
0.546871
0.546358
0.545985
0.545736
0.545599
0.545551
0.545564
0.545616
0.545766
0.545979
0.5466
0.547374
0.54887
0.550299
0.5525
0.554757
0.556779
0.523221
0.427011
0.654219
0.590784
0.627647
0.663364
0.653768
0.635773
0.621768
0.609248
0.595658
0.582556
0.571668
0.565104
0.561098
0.558199
0.55578
0.553711
0.551969
0.550519
0.549325
0.548324
0.547514
0.546871
0.546358
0.545986
0.545737
0.545601
0.545552
0.545566
0.545618
0.545769
0.545982
0.546603
0.547377
0.548861
0.550285
0.552478
0.554745
0.556692
0.522801
0.426251
0.583342
0.562102
0.61479
0.650112
0.646104
0.632441
0.620301
0.608152
0.594781
0.581787
0.571422
0.565025
0.561045
0.558146
0.555733
0.553674
0.551942
0.550499
0.549309
0.548311
0.547504
0.546862
0.546351
0.545979
0.54573
0.545592
0.545542
0.545555
0.545607
0.545759
0.545972
0.546586
0.547356
0.548813
0.550238
0.5524
0.554728
0.556499
0.522568
0.430941
0.481038
0.539757
0.604302
0.630457
0.630818
0.624114
0.61566
0.604977
0.592494
0.580264
0.57079
0.564815
0.560924
0.558036
0.55564
0.553606
0.551895
0.550468
0.549288
0.548296
0.547493
0.546856
0.546347
0.545976
0.545727
0.545588
0.545536
0.545549
0.545599
0.545757
0.545968
0.546575
0.547332
0.548742
0.550158
0.552263
0.554637
0.55619
0.522941
0.426206
0.444389
0.54892
0.598975
0.614553
0.618865
0.615725
0.609525
0.600697
0.589245
0.578225
0.569892
0.564439
0.560718
0.557876
0.555517
0.553521
0.551843
0.550439
0.549274
0.548293
0.547498
0.546867
0.546361
0.545992
0.545741
0.545599
0.545544
0.545557
0.545605
0.545771
0.545981
0.546576
0.547315
0.548654
0.550053
0.552074
0.554461
0.555787
0.523885
0.427435
0.439357
0.554973
0.592139
0.602397
0.609423
0.60812
0.603383
0.595793
0.585446
0.576011
0.568789
0.563934
0.560426
0.557669
0.55537
0.553427
0.551791
0.550416
0.549272
0.548304
0.547519
0.546896
0.546394
0.546027
0.545775
0.545629
0.545569
0.545582
0.545629
0.545806
0.546016
0.546596
0.547316
0.548575
0.549949
0.551882
0.554228
0.555515
0.524178
0.427569
0.439845
0.554344
0.587647
0.594443
0.602185
0.601176
0.597252
0.590504
0.581577
0.573682
0.567632
0.563328
0.560064
0.557423
0.555208
0.55333
0.551744
0.550403
0.549282
0.548331
0.54756
0.546946
0.546451
0.546085
0.54583
0.54568
0.545614
0.545631
0.545676
0.545865
0.546076
0.546635
0.547328
0.548505
0.549841
0.551673
0.553922
0.55532
0.524588
0.427792
0.438967
0.551045
0.583072
0.588918
0.596382
0.594977
0.591424
0.585445
0.578053
0.571553
0.566506
0.562699
0.559671
0.557163
0.555041
0.553236
0.5517
0.550396
0.549302
0.548372
0.547618
0.547018
0.546529
0.546166
0.545911
0.545758
0.54569
0.545714
0.545765
0.545976
0.546197
0.546741
0.547413
0.548528
0.549846
0.551605
0.553774
0.555402
0.524742
0.427545
0.443028
0.547669
0.579649
0.584759
0.591048
0.589121
0.585804
0.580737
0.574803
0.569583
0.565381
0.562022
0.559236
0.556877
0.55486
0.55313
0.551649
0.550385
0.549323
0.548417
0.547683
0.547098
0.546618
0.54626
0.546003
0.54585
0.54578
0.545815
0.545871
0.5461
0.546322
0.546837
0.547468
0.548495
0.54977
0.551456
0.553509
0.555479
0.525645
0.427922
0.439137
0.54472
0.576425
0.580676
0.585905
0.58376
0.580839
0.576811
0.572168
0.568009
0.564462
0.561462
0.558878
0.556646
0.554714
0.553043
0.551606
0.550379
0.549347
0.548465
0.547754
0.547188
0.546723
0.546376
0.54613
0.545992
0.545934
0.546
0.546085
0.546357
0.546605
0.547115
0.547728
0.548675
0.549896
0.551517
0.553493
0.555663
0.526061
0.428231
0.440297
0.543745
0.573665
0.577052
0.581012
0.579012
0.576556
0.57345
0.569834
0.566522
0.563511
0.56084
0.558463
0.556368
0.554531
0.552928
0.55154
0.55035
0.549349
0.548495
0.547811
0.547268
0.546819
0.546483
0.546245
0.546119
0.546068
0.546156
0.546256
0.546552
0.546804
0.547283
0.547847
0.548709
0.549861
0.551431
0.553308
0.555788
0.527341
0.429458
0.440114
0.542321
0.57086
0.573381
0.576258
0.574742
0.572908
0.570678
0.567941
0.565329
0.562768
0.560395
0.55821
0.556248
0.554493
0.552941
0.551584
0.550419
0.549442
0.548613
0.547957
0.547441
0.547015
0.546701
0.546485
0.546386
0.546352
0.546474
0.546589
0.546904
0.547153
0.547594
0.548086
0.548843
0.549919
0.551461
0.553303
0.556021
0.528234
0.430578
0.440208
0.541217
0.568359
0.570169
0.572139
0.571218
0.569931
0.56838
0.566307
0.56424
0.562049
0.559956
0.557968
0.556132
0.554451
0.55295
0.551636
0.550509
0.549567
0.548768
0.548142
0.547653
0.547248
0.54695
0.546746
0.54666
0.546629
0.546774
0.546889
0.547204
0.547427
0.547807
0.548189
0.548798
0.549705
0.551174
0.552951
0.555959
0.530014
0.432617
0.43992
0.539777
0.565849
0.567137
0.568521
0.568233
0.567518
0.566535
0.565016
0.563408
0.56155
0.55975
0.557946
0.55625
0.554678
0.553267
0.552032
0.550975
0.550094
0.54934
0.548751
0.548288
0.547892
0.547593
0.547376
0.547276
0.547218
0.547356
0.547438
0.547716
0.54788
0.54818
0.548425
0.548886
0.549615
0.551033
0.552753
0.555771
0.530942
0.434245
0.439917
0.538549
0.56369
0.564635
0.565778
0.565908
0.565648
0.565064
0.563996
0.56282
0.561287
0.559751
0.558114
0.556555
0.555073
0.553741
0.552574
0.551581
0.550756
0.550047
0.549495
0.549059
0.548676
0.548379
0.548151
0.548039
0.547953
0.548081
0.548125
0.548348
0.54842
0.548591
0.548627
0.548857
0.549287
0.550566
0.552217
0.555212
0.532391
0.436347
0.440566
0.537939
0.561411
0.562102
0.563423
0.563897
0.564261
0.564007
0.563393
0.56256
0.561291
0.560042
0.558609
0.557228
0.555891
0.554696
0.553658
0.552783
0.552062
0.551423
0.550909
0.550477
0.550066
0.549723
0.549429
0.549254
0.549093
0.549167
0.549133
0.549247
0.549175
0.549215
0.549036
0.549055
0.549214
0.550344
0.551903
0.554392
0.53285
0.43831
0.441585
0.537621
0.560087
0.560609
0.562251
0.562818
0.563686
0.563667
0.563337
0.562794
0.5618
0.560787
0.559452
0.558167
0.556893
0.555771
0.554806
0.554003
0.553347
0.552758
0.55229
0.551896
0.551503
0.551165
0.55086
0.550678
0.550489
0.550556
0.550492
0.550554
0.550354
0.55029
0.549866
0.549591
0.54939
0.550289
0.551901
0.554009
0.533795
0.440951
0.443479
0.538536
0.560002
0.560343
0.562004
0.562638
0.563915
0.564204
0.563979
0.563643
0.562762
0.561928
0.560678
0.559533
0.558392
0.557421
0.5566
0.555931
0.555386
0.554868
0.554428
0.554024
0.553581
0.553177
0.55279
0.552537
0.552265
0.552287
0.552181
0.552211
0.551934
0.551853
0.551335
0.550953
0.550645
0.551374
0.55306
0.554909
0.535875
0.444465
0.448302
0.541537
0.561801
0.561964
0.563065
0.563755
0.565236
0.565462
0.565542
0.565316
0.564555
0.563758
0.562531
0.561488
0.560441
0.559583
0.558852
0.558227
0.5577
0.557205
0.55684
0.55654
0.556153
0.555735
0.555259
0.554924
0.554525
0.554474
0.554273
0.554274
0.553914
0.553789
0.553166
0.552628
0.552237
0.55299
0.55493
0.557196
0.538931
0.450611
0.458078
0.546696
0.566046
0.565762
0.565838
0.566811
0.568139
0.568364
0.568983
0.568202
0.567217
0.565942
0.564428
0.563107
0.561823
0.560906
0.560272
0.559893
0.559677
0.559381
0.558969
0.55845
0.557872
0.55744
0.557071
0.556988
0.556917
0.557047
0.55714
0.557341
0.557263
0.557207
0.556752
0.555922
0.555323
0.555823
0.557743
0.560494
0.543383
0.461516
0.418772
0.527461
0.552671
0.551009
0.549664
0.549228
0.548123
0.546694
0.545307
0.542553
0.540209
0.537439
0.535131
0.532802
0.530841
0.529158
0.527841
0.526951
0.526462
0.526855
0.526451
0.525277
0.524976
0.524862
0.525235
0.525576
0.526511
0.526948
0.528318
0.529171
0.5309
0.531881
0.533778
0.534165
0.535152
0.53705
0.540091
0.543879
0.522269
0.423212
0.362445
0.427511
0.469392
0.459788
0.454131
0.451009
0.44748
0.445018
0.442158
0.439195
0.43657
0.434113
0.432089
0.43054
0.429393
0.428439
0.427879
0.427887
0.427584
0.427749
0.42763
0.427073
0.4275
0.42659
0.427177
0.426957
0.427578
0.427946
0.429149
0.430061
0.431971
0.433309
0.435389
0.437074
0.439603
0.442942
0.449218
0.460312
0.422535
0.360189
0.362445
0.427511
0.469392
0.459788
0.454131
0.451009
0.44748
0.445018
0.442158
0.439195
0.43657
0.434113
0.432089
0.43054
0.429393
0.428439
0.427879
0.427887
0.427584
0.427749
0.42763
0.427073
0.4275
0.42659
0.427177
0.426957
0.427578
0.427946
0.429149
0.430061
0.431971
0.433309
0.435389
0.437074
0.439603
0.442942
0.449218
0.460312
0.422535
0.360189
0.418772
0.527461
0.552671
0.551009
0.549664
0.549228
0.548123
0.546694
0.545307
0.542553
0.540209
0.537439
0.535131
0.532802
0.530841
0.529158
0.527841
0.526951
0.526462
0.526855
0.526451
0.525277
0.524976
0.524862
0.525235
0.525576
0.526511
0.526948
0.528318
0.529171
0.5309
0.531881
0.533778
0.534165
0.535152
0.53705
0.540091
0.543879
0.522269
0.423212
0.458078
0.546696
0.566046
0.565762
0.565838
0.566811
0.568139
0.568364
0.568983
0.568202
0.567217
0.565942
0.564428
0.563107
0.561823
0.560906
0.560272
0.559893
0.559677
0.559381
0.558969
0.55845
0.557872
0.55744
0.557071
0.556988
0.556917
0.557047
0.55714
0.557341
0.557263
0.557207
0.556752
0.555922
0.555323
0.555823
0.557743
0.560494
0.543383
0.461516
0.448302
0.541537
0.561801
0.561964
0.563065
0.563755
0.565236
0.565462
0.565542
0.565316
0.564555
0.563758
0.562531
0.561488
0.560441
0.559583
0.558852
0.558227
0.5577
0.557205
0.55684
0.55654
0.556153
0.555735
0.555259
0.554924
0.554525
0.554474
0.554273
0.554274
0.553914
0.553789
0.553166
0.552628
0.552237
0.55299
0.55493
0.557196
0.538931
0.450611
0.443479
0.538536
0.560002
0.560343
0.562004
0.562638
0.563915
0.564204
0.563979
0.563643
0.562762
0.561928
0.560678
0.559533
0.558392
0.557421
0.5566
0.555931
0.555386
0.554868
0.554428
0.554024
0.553581
0.553177
0.55279
0.552537
0.552265
0.552287
0.552181
0.552211
0.551934
0.551853
0.551335
0.550953
0.550645
0.551374
0.55306
0.554909
0.535875
0.444465
0.441585
0.537621
0.560087
0.560609
0.562251
0.562818
0.563686
0.563667
0.563337
0.562794
0.5618
0.560787
0.559452
0.558167
0.556893
0.555771
0.554806
0.554003
0.553347
0.552758
0.55229
0.551896
0.551503
0.551165
0.55086
0.550678
0.550489
0.550556
0.550492
0.550554
0.550354
0.55029
0.549866
0.549591
0.54939
0.550289
0.551901
0.554009
0.533795
0.440951
0.440566
0.537939
0.561411
0.562102
0.563423
0.563897
0.564261
0.564007
0.563393
0.56256
0.561291
0.560042
0.558609
0.557228
0.555891
0.554696
0.553658
0.552783
0.552062
0.551423
0.550909
0.550477
0.550066
0.549723
0.549429
0.549254
0.549093
0.549167
0.549133
0.549247
0.549175
0.549215
0.549036
0.549055
0.549214
0.550344
0.551903
0.554392
0.53285
0.43831
0.439917
0.538549
0.56369
0.564635
0.565778
0.565908
0.565648
0.565064
0.563996
0.56282
0.561287
0.559751
0.558114
0.556555
0.555073
0.553741
0.552574
0.551581
0.550756
0.550047
0.549495
0.549059
0.548676
0.548379
0.548151
0.548039
0.547953
0.548081
0.548125
0.548348
0.54842
0.548591
0.548627
0.548857
0.549287
0.550566
0.552217
0.555212
0.532391
0.436347
0.43992
0.539777
0.565849
0.567137
0.568521
0.568233
0.567518
0.566535
0.565016
0.563408
0.56155
0.55975
0.557946
0.55625
0.554678
0.553267
0.552032
0.550975
0.550094
0.54934
0.548751
0.548288
0.547892
0.547593
0.547376
0.547276
0.547218
0.547356
0.547438
0.547716
0.54788
0.54818
0.548425
0.548886
0.549615
0.551033
0.552753
0.555771
0.530942
0.434245
0.440208
0.541217
0.568359
0.570169
0.572139
0.571218
0.569931
0.56838
0.566307
0.56424
0.562049
0.559956
0.557968
0.556132
0.554451
0.55295
0.551636
0.550509
0.549567
0.548768
0.548142
0.547653
0.547248
0.54695
0.546746
0.54666
0.546629
0.546774
0.546889
0.547204
0.547427
0.547807
0.548189
0.548798
0.549705
0.551174
0.552951
0.555959
0.530014
0.432617
0.440114
0.542321
0.57086
0.573381
0.576258
0.574742
0.572908
0.570678
0.567941
0.565329
0.562768
0.560395
0.55821
0.556248
0.554493
0.552941
0.551584
0.550419
0.549442
0.548613
0.547957
0.547441
0.547015
0.546701
0.546485
0.546386
0.546352
0.546474
0.546589
0.546904
0.547153
0.547594
0.548086
0.548843
0.549919
0.551461
0.553303
0.556021
0.528234
0.430578
0.440297
0.543745
0.573665
0.577052
0.581012
0.579012
0.576556
0.57345
0.569834
0.566522
0.563511
0.56084
0.558463
0.556368
0.554531
0.552928
0.55154
0.55035
0.549349
0.548495
0.547811
0.547268
0.546819
0.546483
0.546245
0.546119
0.546068
0.546156
0.546256
0.546552
0.546804
0.547283
0.547847
0.548709
0.549861
0.551431
0.553308
0.555788
0.527341
0.429458
0.439137
0.54472
0.576425
0.580676
0.585905
0.58376
0.580839
0.576811
0.572168
0.568009
0.564462
0.561462
0.558878
0.556646
0.554714
0.553043
0.551606
0.550379
0.549347
0.548465
0.547754
0.547188
0.546723
0.546376
0.54613
0.545992
0.545934
0.546
0.546085
0.546357
0.546605
0.547115
0.547728
0.548675
0.549896
0.551517
0.553493
0.555663
0.526061
0.428231
0.443028
0.547669
0.579649
0.584759
0.591048
0.589121
0.585804
0.580737
0.574803
0.569583
0.565381
0.562022
0.559236
0.556877
0.55486
0.55313
0.551649
0.550385
0.549323
0.548417
0.547683
0.547098
0.546618
0.54626
0.546003
0.54585
0.54578
0.545815
0.545871
0.5461
0.546322
0.546837
0.547468
0.548495
0.54977
0.551456
0.553509
0.555479
0.525645
0.427922
0.438967
0.551045
0.583072
0.588918
0.596382
0.594977
0.591424
0.585445
0.578053
0.571553
0.566506
0.562699
0.559671
0.557163
0.555041
0.553236
0.5517
0.550396
0.549302
0.548372
0.547618
0.547018
0.546529
0.546166
0.545911
0.545758
0.54569
0.545714
0.545765
0.545976
0.546197
0.546741
0.547413
0.548528
0.549846
0.551605
0.553774
0.555402
0.524742
0.427545
0.439845
0.554344
0.587647
0.594443
0.602185
0.601176
0.597252
0.590504
0.581577
0.573682
0.567632
0.563328
0.560064
0.557423
0.555208
0.55333
0.551744
0.550403
0.549282
0.548331
0.54756
0.546946
0.546451
0.546085
0.54583
0.54568
0.545614
0.545631
0.545676
0.545865
0.546076
0.546635
0.547328
0.548505
0.549841
0.551673
0.553922
0.55532
0.524588
0.427792
0.439357
0.554973
0.592139
0.602397
0.609423
0.60812
0.603383
0.595793
0.585446
0.576011
0.568789
0.563934
0.560426
0.557669
0.55537
0.553427
0.551791
0.550416
0.549272
0.548304
0.547519
0.546896
0.546394
0.546027
0.545775
0.545629
0.545569
0.545582
0.545629
0.545806
0.546016
0.546596
0.547316
0.548575
0.549949
0.551882
0.554228
0.555515
0.524178
0.427569
0.444389
0.54892
0.598975
0.614553
0.618865
0.615725
0.609525
0.600697
0.589245
0.578225
0.569892
0.564439
0.560718
0.557876
0.555517
0.553521
0.551843
0.550439
0.549274
0.548293
0.547498
0.546867
0.546361
0.545992
0.545741
0.545599
0.545544
0.545557
0.545605
0.545771
0.545981
0.546576
0.547315
0.548654
0.550053
0.552074
0.554461
0.555787
0.523885
0.427435
0.481038
0.539757
0.604302
0.630457
0.630818
0.624114
0.61566
0.604977
0.592494
0.580264
0.57079
0.564815
0.560924
0.558036
0.55564
0.553606
0.551895
0.550468
0.549288
0.548296
0.547493
0.546856
0.546347
0.545976
0.545727
0.545588
0.545536
0.545549
0.545599
0.545757
0.545968
0.546575
0.547332
0.548742
0.550158
0.552263
0.554637
0.55619
0.522941
0.426206
0.583342
0.562102
0.61479
0.650112
0.646104
0.632441
0.620301
0.608152
0.594781
0.581787
0.571422
0.565025
0.561045
0.558146
0.555733
0.553674
0.551942
0.550499
0.549309
0.548311
0.547504
0.546862
0.546351
0.545979
0.54573
0.545592
0.545542
0.545555
0.545607
0.545759
0.545972
0.546586
0.547356
0.548813
0.550238
0.5524
0.554728
0.556499
0.522568
0.430941
)
;

boundaryField
{
    inlet
    {
        type            fixedValue;
        value           uniform 1;
    }
    outlet
    {
        type            zeroGradient;
    }
    obstacle
    {
        type            zeroGradient;
    }
    empty
    {
        type            empty;
    }
}


// ************************************************************************* //
