/*--------------------------------*- C++ -*----------------------------------*\
| =========                 |                                                 |
| \\      /  F ield         | OpenFOAM: The Open Source CFD Toolbox           |
|  \\    /   O peration     | Version:  v1912                                 |
|   \\  /    A nd           | Website:  www.openfoam.com                      |
|    \\/     M anipulation  |                                                 |
\*---------------------------------------------------------------------------*/
FoamFile
{
    version     2.0;
    format      ascii;
    class       volScalarField;
    location    "1.16";
    object      T;
}
// * * * * * * * * * * * * * * * * * * * * * * * * * * * * * * * * * * * * * //

dimensions      [0 0 0 1 0 0 0];


internalField   nonuniform List<scalar> 
1900
(
1
1
1
1
1.0002
1.002
1.00713
1.0135
1.01706
1.02063
1
1
1
1
1.0002
1.00198
1.00708
1.01343
1.01767
1.02043
1
1
1
1
1.0002
1.00198
1.00708
1.01343
1.01771
1.01998
1
1
1
1
1.0002
1.00198
1.00708
1.01343
1.01767
1.02043
1
1
1
1
1.0002
1.002
1.00713
1.0135
1.01706
1.02063
1.01909
1.02035
1.02088
1.02044
1.00615
1.02072
1.02155
1.02154
1.02225
1.0159
1.02002
1.02087
1.02081
1.021
1.01454
1.02072
1.02155
1.02154
1.02225
1.0159
1.01909
1.02035
1.02088
1.02044
1.00615
1.04539
1.0411
1.04303
1.03775
1.02956
1.04188
1.0403
1.04241
1.0418
1.03575
1.04187
1.04031
1.04198
1.04196
1.03596
1.04188
1.0403
1.04241
1.0418
1.03575
1.04539
1.0411
1.04303
1.03775
1.02956
0.932487
0.845994
0.879491
0.885062
0.892603
0.906884
0.927056
0.9491
0.970363
0.987406
0.996954
0.99971
0.999993
1
1
1
1
1
1
1
1
1
1
1
1
1
1
0.999991
0.999657
0.996488
0.985723
0.966602
0.942339
0.915815
0.889207
0.865281
0.844647
0.809774
0.700851
0.671304
1.00446
0.88998
0.894508
0.886884
0.892067
0.906919
0.927148
0.94918
0.970415
0.987433
0.996963
0.999712
0.999993
1
1
1
1
1
1
1
1
1
1
1
1
1
1
0.999991
0.999657
0.996488
0.985723
0.966602
0.942339
0.915815
0.889207
0.865281
0.844647
0.809774
0.700851
0.671304
1.00271
0.921651
0.898902
0.887143
0.891867
0.906919
0.927191
0.949207
0.970433
0.987444
0.996967
0.999712
0.999993
1
1
1
1
1
1
1
1
1
1
1
1
1
1
0.999991
0.999657
0.996488
0.985723
0.966602
0.942339
0.915815
0.889207
0.865281
0.844647
0.809774
0.700851
0.671304
1.00446
0.88998
0.894508
0.886884
0.892067
0.906919
0.927148
0.94918
0.970415
0.987433
0.996963
0.999712
0.999993
1
1
1
1
1
1
1
1
1
1
1
1
1
1
0.999991
0.999657
0.996488
0.985723
0.966602
0.942339
0.915815
0.889207
0.865281
0.844647
0.809774
0.700851
0.671304
0.932487
0.845994
0.879491
0.885062
0.892603
0.906884
0.927056
0.9491
0.970363
0.987406
0.996954
0.99971
0.999993
1
1
1
1
1
1
1
1
1
1
1
1
1
1
0.999991
0.999657
0.996488
0.985723
0.966602
0.942339
0.915815
0.889207
0.865281
0.844647
0.809774
0.700851
0.671304
0.751341
0.778749
0.858968
0.88064
0.892125
0.906526
0.926665
0.948793
0.970144
0.987272
0.996906
0.999704
0.999993
1
1
1
1
1
1
1
1
1
1
1
1
1
1
0.999991
0.999657
0.996488
0.985723
0.966602
0.942339
0.915815
0.889207
0.865281
0.844647
0.809774
0.700851
0.671304
0.664169
0.737463
0.842659
0.872622
0.887943
0.904259
0.925266
0.947907
0.969579
0.986974
0.99681
0.999692
0.999992
1
1
1
1
1
1
1
1
1
1
1
1
1
1
0.999991
0.999657
0.996488
0.985723
0.966602
0.942339
0.915815
0.889207
0.865281
0.844647
0.809774
0.700851
0.671304
0.669256
0.723659
0.834469
0.866852
0.883146
0.901253
0.923307
0.946671
0.968828
0.986609
0.996703
0.999679
0.999992
1
1
1
1
1
1
1
1
1
1
1
1
1
1
0.999991
0.999657
0.996488
0.985723
0.966602
0.942339
0.915815
0.889207
0.865281
0.844647
0.809774
0.700851
0.671304
0.676824
0.715156
0.828211
0.8615
0.878291
0.897917
0.92115
0.945334
0.968057
0.986259
0.996606
0.999668
0.999992
1
1
1
1
1
1
1
1
1
1
1
1
1
1
0.999991
0.999657
0.996488
0.985723
0.966602
0.942339
0.915815
0.889207
0.865281
0.844647
0.809774
0.700851
0.671304
0.67836
0.710544
0.822802
0.856213
0.873877
0.894792
0.919115
0.944098
0.967394
0.985985
0.996537
0.999661
0.999991
1
1
1
1
1
1
1
1
1
1
1
1
1
1
0.999991
0.999657
0.996488
0.985723
0.966602
0.942339
0.915815
0.889207
0.865281
0.844647
0.809774
0.700851
0.671304
0.678415
0.707215
0.817522
0.851324
0.870065
0.892175
0.917474
0.94316
0.966934
0.985817
0.996502
0.999658
0.999991
1
1
1
1
1
1
1
1
1
1
1
1
1
1
0.999991
0.999657
0.996488
0.985723
0.966602
0.942339
0.915815
0.889207
0.865281
0.844647
0.809774
0.700851
0.671304
0.676156
0.704144
0.813262
0.847574
0.867263
0.890358
0.916403
0.942595
0.966686
0.98574
0.996489
0.999657
0.999991
1
1
1
1
1
1
1
1
1
1
1
1
1
1
0.999991
0.999657
0.996488
0.985723
0.966602
0.942339
0.915815
0.889207
0.865281
0.844647
0.809774
0.700851
0.671304
0.673148
0.701843
0.810606
0.845299
0.865634
0.889377
0.915879
0.942349
0.966587
0.985694
0.996454
0.999623
0.999957
0.999965
0.999966
0.999966
0.999966
0.999966
0.999966
0.999966
0.999966
0.999966
0.999966
0.999966
0.999966
0.999966
0.999965
0.999957
0.999623
0.996454
0.98569
0.966571
0.942312
0.915792
0.889189
0.865267
0.844636
0.809766
0.700848
0.671303
0.671502
0.700838
0.809626
0.844433
0.864966
0.88875
0.915229
0.941654
0.965845
0.984922
0.995668
0.998832
0.999165
0.999174
0.999174
0.999174
0.999174
0.999174
0.999174
0.999174
0.999174
0.999174
0.999174
0.999174
0.999174
0.999174
0.999174
0.999165
0.998832
0.995668
0.984923
0.965842
0.941639
0.91519
0.888667
0.864825
0.844272
0.809479
0.700716
0.671249
0.670335
0.699152
0.806805
0.841175
0.861331
0.884799
0.910966
0.937106
0.961062
0.979969
0.99062
0.993753
0.994083
0.994091
0.994091
0.994091
0.994091
0.994091
0.994091
0.994091
0.994091
0.994091
0.994091
0.994091
0.994091
0.994091
0.994091
0.994083
0.993753
0.99062
0.979971
0.961069
0.93712
0.910985
0.884817
0.861344
0.841171
0.806778
0.6991
0.67027
0.664985
0.692448
0.797626
0.831303
0.850865
0.873732
0.899307
0.92491
0.948402
0.966947
0.977374
0.980428
0.980747
0.980755
0.980755
0.980755
0.980755
0.980755
0.980755
0.980755
0.980755
0.980755
0.980755
0.980755
0.980755
0.980755
0.980755
0.980747
0.980428
0.977374
0.966948
0.948405
0.924916
0.899319
0.873753
0.850901
0.831354
0.797678
0.692485
0.664992
0.652595
0.67942
0.781642
0.814558
0.833583
0.855853
0.88082
0.905847
0.928805
0.946877
0.956969
0.959889
0.960188
0.960196
0.960196
0.960196
0.960196
0.960196
0.960196
0.960196
0.960196
0.960196
0.960196
0.960196
0.960196
0.960196
0.960196
0.960188
0.959889
0.956969
0.946877
0.928805
0.905849
0.880823
0.85586
0.833596
0.814576
0.781661
0.679435
0.652599
0.634964
0.662386
0.761549
0.793678
0.812313
0.834129
0.858563
0.883051
0.905465
0.923003
0.932672
0.935409
0.935681
0.935687
0.935687
0.935687
0.935687
0.935687
0.935687
0.935687
0.935687
0.935687
0.935687
0.935687
0.935687
0.935687
0.935687
0.935681
0.935409
0.932672
0.923003
0.905465
0.883051
0.858563
0.83413
0.812315
0.793681
0.761553
0.662389
0.634965
0.614748
0.644069
0.739855
0.771016
0.789397
0.810814
0.834818
0.858785
0.88065
0.897606
0.906781
0.909297
0.909536
0.909541
0.909541
0.909541
0.909541
0.909541
0.909541
0.909541
0.909541
0.909541
0.909541
0.909541
0.909541
0.909541
0.909541
0.909536
0.909297
0.906781
0.897606
0.88065
0.858785
0.834818
0.810813
0.789397
0.771015
0.739854
0.644069
0.614749
0.596234
0.626015
0.718103
0.748353
0.766412
0.787744
0.811336
0.834864
0.856178
0.872514
0.88114
0.883409
0.883613
0.883617
0.883617
0.883617
0.883617
0.883617
0.883617
0.883617
0.883617
0.883617
0.883617
0.883617
0.883617
0.883617
0.883617
0.883613
0.883409
0.88114
0.872514
0.856178
0.834863
0.811335
0.787744
0.766412
0.748353
0.718103
0.626015
0.596234
0.577411
0.611109
0.699088
0.728171
0.746242
0.767157
0.790634
0.813758
0.834601
0.850332
0.858399
0.860421
0.86059
0.860593
0.860593
0.860593
0.860593
0.860593
0.860593
0.860593
0.860593
0.860593
0.860593
0.860593
0.860593
0.860593
0.860593
0.86059
0.860421
0.858399
0.850332
0.834601
0.813758
0.790634
0.767157
0.746242
0.728171
0.699088
0.611109
0.577411
0.567696
0.597478
0.682405
0.710936
0.729197
0.750082
0.773231
0.796099
0.816557
0.831742
0.839248
0.84102
0.841156
0.841158
0.841158
0.841158
0.841158
0.841158
0.841158
0.841158
0.841158
0.841158
0.841158
0.841158
0.841158
0.841158
0.841158
0.841156
0.84102
0.839248
0.831742
0.816557
0.796099
0.773231
0.750082
0.729197
0.710936
0.682405
0.597478
0.567696
0.549822
0.579046
0.658152
0.684136
0.701895
0.721707
0.743994
0.765954
0.785648
0.800094
0.806989
0.808513
0.808619
0.80862
0.80862
0.80862
0.80862
0.80862
0.80862
0.80862
0.80862
0.80862
0.80862
0.80862
0.80862
0.80862
0.80862
0.808619
0.808513
0.806989
0.800094
0.785648
0.765954
0.743994
0.721707
0.701895
0.684136
0.658152
0.579046
0.549822
0.484556
0.509969
0.580457
0.600026
0.614671
0.6305
0.649082
0.667681
0.684282
0.695781
0.70058
0.701441
0.701486
0.701487
0.701487
0.701487
0.701487
0.701487
0.701487
0.701487
0.701487
0.701487
0.701487
0.701487
0.701487
0.701487
0.701487
0.701486
0.701441
0.70058
0.695781
0.684282
0.667681
0.649082
0.6305
0.614671
0.600026
0.580457
0.509969
0.484556
0.482611
0.481976
0.546344
0.56529
0.575504
0.59485
0.613931
0.634076
0.650833
0.661224
0.664755
0.665217
0.665233
0.665233
0.665233
0.665233
0.665233
0.665233
0.665233
0.665233
0.665233
0.665233
0.665233
0.665233
0.665233
0.665233
0.665233
0.665233
0.665217
0.664755
0.661224
0.650833
0.634076
0.613931
0.59485
0.575504
0.56529
0.546344
0.481976
0.482611
0.482611
0.481976
0.546344
0.56529
0.575504
0.59485
0.613931
0.634076
0.650833
0.661224
0.664755
0.665217
0.665233
0.665233
0.665233
0.665233
0.665233
0.665233
0.665233
0.665233
0.665233
0.665233
0.665233
0.665233
0.665233
0.665233
0.665233
0.665233
0.665217
0.664755
0.661224
0.650833
0.634076
0.613931
0.59485
0.575504
0.56529
0.546344
0.481976
0.482611
0.484556
0.509969
0.580457
0.600026
0.614671
0.6305
0.649082
0.667681
0.684282
0.695781
0.70058
0.701441
0.701486
0.701487
0.701487
0.701487
0.701487
0.701487
0.701487
0.701487
0.701487
0.701487
0.701487
0.701487
0.701487
0.701487
0.701487
0.701486
0.701441
0.70058
0.695781
0.684282
0.667681
0.649082
0.6305
0.614671
0.600026
0.580457
0.509969
0.484556
0.549822
0.579046
0.658152
0.684136
0.701895
0.721707
0.743994
0.765954
0.785648
0.800094
0.806989
0.808513
0.808619
0.80862
0.80862
0.80862
0.80862
0.80862
0.80862
0.80862
0.80862
0.80862
0.80862
0.80862
0.80862
0.80862
0.80862
0.808619
0.808513
0.806989
0.800094
0.785648
0.765954
0.743994
0.721707
0.701895
0.684136
0.658152
0.579046
0.549822
0.567696
0.597478
0.682405
0.710936
0.729197
0.750082
0.773231
0.796099
0.816557
0.831742
0.839248
0.84102
0.841156
0.841158
0.841158
0.841158
0.841158
0.841158
0.841158
0.841158
0.841158
0.841158
0.841158
0.841158
0.841158
0.841158
0.841158
0.841156
0.84102
0.839248
0.831742
0.816557
0.796099
0.773231
0.750082
0.729197
0.710936
0.682405
0.597478
0.567696
0.577411
0.611109
0.699088
0.728171
0.746242
0.767157
0.790634
0.813758
0.834601
0.850332
0.858399
0.860421
0.86059
0.860593
0.860593
0.860593
0.860593
0.860593
0.860593
0.860593
0.860593
0.860593
0.860593
0.860593
0.860593
0.860593
0.860593
0.86059
0.860421
0.858399
0.850332
0.834601
0.813758
0.790634
0.767157
0.746242
0.728171
0.699088
0.611109
0.577411
0.596234
0.626015
0.718103
0.748353
0.766412
0.787744
0.811336
0.834864
0.856178
0.872514
0.88114
0.883409
0.883613
0.883617
0.883617
0.883617
0.883617
0.883617
0.883617
0.883617
0.883617
0.883617
0.883617
0.883617
0.883617
0.883617
0.883617
0.883613
0.883409
0.88114
0.872514
0.856178
0.834863
0.811335
0.787744
0.766412
0.748353
0.718103
0.626015
0.596234
0.614748
0.644069
0.739855
0.771016
0.789397
0.810814
0.834818
0.858785
0.88065
0.897606
0.906781
0.909297
0.909536
0.909541
0.909541
0.909541
0.909541
0.909541
0.909541
0.909541
0.909541
0.909541
0.909541
0.909541
0.909541
0.909541
0.909541
0.909536
0.909297
0.906781
0.897606
0.88065
0.858785
0.834818
0.810813
0.789397
0.771015
0.739854
0.644069
0.614749
0.634964
0.662386
0.761549
0.793678
0.812313
0.834129
0.858563
0.883051
0.905465
0.923003
0.932672
0.935409
0.935681
0.935687
0.935687
0.935687
0.935687
0.935687
0.935687
0.935687
0.935687
0.935687
0.935687
0.935687
0.935687
0.935687
0.935687
0.935681
0.935409
0.932672
0.923003
0.905465
0.883051
0.858563
0.83413
0.812315
0.793681
0.761553
0.662389
0.634965
0.652595
0.67942
0.781642
0.814558
0.833583
0.855853
0.88082
0.905847
0.928805
0.946877
0.956969
0.959889
0.960188
0.960196
0.960196
0.960196
0.960196
0.960196
0.960196
0.960196
0.960196
0.960196
0.960196
0.960196
0.960196
0.960196
0.960196
0.960188
0.959889
0.956969
0.946877
0.928805
0.905849
0.880823
0.85586
0.833596
0.814576
0.781661
0.679435
0.652599
0.664985
0.692448
0.797626
0.831303
0.850865
0.873732
0.899307
0.92491
0.948402
0.966947
0.977374
0.980428
0.980747
0.980755
0.980755
0.980755
0.980755
0.980755
0.980755
0.980755
0.980755
0.980755
0.980755
0.980755
0.980755
0.980755
0.980755
0.980747
0.980428
0.977374
0.966948
0.948405
0.924916
0.899319
0.873753
0.850901
0.831354
0.797678
0.692485
0.664992
0.670335
0.699152
0.806805
0.841175
0.861331
0.884799
0.910966
0.937106
0.961062
0.979969
0.99062
0.993753
0.994083
0.994091
0.994091
0.994091
0.994091
0.994091
0.994091
0.994091
0.994091
0.994091
0.994091
0.994091
0.994091
0.994091
0.994091
0.994083
0.993753
0.99062
0.979971
0.961069
0.93712
0.910985
0.884817
0.861344
0.841171
0.806778
0.6991
0.67027
0.671502
0.700838
0.809626
0.844433
0.864966
0.88875
0.915229
0.941654
0.965845
0.984922
0.995668
0.998832
0.999165
0.999174
0.999174
0.999174
0.999174
0.999174
0.999174
0.999174
0.999174
0.999174
0.999174
0.999174
0.999174
0.999174
0.999174
0.999165
0.998832
0.995668
0.984923
0.965842
0.941639
0.91519
0.888667
0.864825
0.844272
0.809479
0.700716
0.671249
0.673148
0.701843
0.810606
0.845299
0.865634
0.889377
0.915879
0.942349
0.966587
0.985694
0.996454
0.999623
0.999957
0.999965
0.999966
0.999966
0.999966
0.999966
0.999966
0.999966
0.999966
0.999966
0.999966
0.999966
0.999966
0.999966
0.999965
0.999957
0.999623
0.996454
0.98569
0.966571
0.942312
0.915792
0.889189
0.865267
0.844636
0.809766
0.700848
0.671303
0.676156
0.704144
0.813262
0.847574
0.867263
0.890358
0.916403
0.942595
0.966686
0.98574
0.996489
0.999657
0.999991
1
1
1
1
1
1
1
1
1
1
1
1
1
1
0.999991
0.999657
0.996488
0.985723
0.966602
0.942339
0.915815
0.889207
0.865281
0.844647
0.809774
0.700851
0.671304
0.678415
0.707215
0.817522
0.851324
0.870065
0.892175
0.917474
0.94316
0.966934
0.985817
0.996502
0.999658
0.999991
1
1
1
1
1
1
1
1
1
1
1
1
1
1
0.999991
0.999657
0.996488
0.985723
0.966602
0.942339
0.915815
0.889207
0.865281
0.844647
0.809774
0.700851
0.671304
0.67836
0.710544
0.822802
0.856213
0.873877
0.894792
0.919115
0.944098
0.967394
0.985985
0.996537
0.999661
0.999991
1
1
1
1
1
1
1
1
1
1
1
1
1
1
0.999991
0.999657
0.996488
0.985723
0.966602
0.942339
0.915815
0.889207
0.865281
0.844647
0.809774
0.700851
0.671304
0.676824
0.715156
0.828211
0.8615
0.878291
0.897917
0.92115
0.945334
0.968057
0.986259
0.996606
0.999668
0.999992
1
1
1
1
1
1
1
1
1
1
1
1
1
1
0.999991
0.999657
0.996488
0.985723
0.966602
0.942339
0.915815
0.889207
0.865281
0.844647
0.809774
0.700851
0.671304
0.669256
0.723659
0.834469
0.866852
0.883146
0.901253
0.923307
0.946671
0.968828
0.986609
0.996703
0.999679
0.999992
1
1
1
1
1
1
1
1
1
1
1
1
1
1
0.999991
0.999657
0.996488
0.985723
0.966602
0.942339
0.915815
0.889207
0.865281
0.844647
0.809774
0.700851
0.671304
0.664169
0.737463
0.842659
0.872622
0.887943
0.904259
0.925266
0.947907
0.969579
0.986974
0.99681
0.999692
0.999992
1
1
1
1
1
1
1
1
1
1
1
1
1
1
0.999991
0.999657
0.996488
0.985723
0.966602
0.942339
0.915815
0.889207
0.865281
0.844647
0.809774
0.700851
0.671304
0.751341
0.778749
0.858968
0.88064
0.892125
0.906526
0.926665
0.948793
0.970144
0.987272
0.996906
0.999704
0.999993
1
1
1
1
1
1
1
1
1
1
1
1
1
1
0.999991
0.999657
0.996488
0.985723
0.966602
0.942339
0.915815
0.889207
0.865281
0.844647
0.809774
0.700851
0.671304
)
;

boundaryField
{
    inlet
    {
        type            fixedValue;
        value           uniform 1;
    }
    outlet
    {
        type            zeroGradient;
    }
    obstacle
    {
        type            zeroGradient;
    }
    empty
    {
        type            empty;
    }
}


// ************************************************************************* //
