/*--------------------------------*- C++ -*----------------------------------*\
| =========                 |                                                 |
| \\      /  F ield         | OpenFOAM: The Open Source CFD Toolbox           |
|  \\    /   O peration     | Version:  v1912                                 |
|   \\  /    A nd           | Website:  www.openfoam.com                      |
|    \\/     M anipulation  |                                                 |
\*---------------------------------------------------------------------------*/
FoamFile
{
    version     2.0;
    format      ascii;
    class       volTensorField;
    location    "0.44";
    object      grad(U);
}
// * * * * * * * * * * * * * * * * * * * * * * * * * * * * * * * * * * * * * //

dimensions      [0 0 -1 0 0 0 0];


internalField   nonuniform List<tensor> 
1900
(
(-1.48049e-16 2.81678e-16 0 0 0 0 0 0 0)
(1.83905e-16 -7.29573e-17 0 -7.51275e-17 9.2624e-17 0 0 0 0)
(1.48049e-16 -2.81678e-16 0 1.1958e-16 -8.97691e-16 0 0 0 0)
(-1.5973e-16 5.65894e-16 0 0 -1.18e-16 0 0 0 0)
(-4.1946e-17 1.85882e-16 0 2.4981e-17 4.92937e-16 0 0 0 0)
(7.68561e-15 4.1427e-16 0 -5.87425e-17 1.85882e-16 0 0 0 0)
(6.27498e-11 1.39406e-12 0 1.34176e-15 1.22505e-15 0 0 0 0)
(3.18602e-08 1.1106e-09 0 2.09116e-11 6.38786e-12 0 0 0 0)
(1.48868e-06 8.89417e-08 0 1.24094e-08 4.63808e-09 0 0 0 0)
(1.05238e-05 1.1284e-06 0 6.55526e-07 3.25765e-07 0 0 0 0)
(-2.23176e-16 -1.89054e-16 0 0 0 0 0 0 0)
(3.03485e-16 -8.24734e-16 0 -1.02236e-16 -2.81678e-16 0 0 0 0)
(2.23176e-16 7.1054e-17 0 1.99882e-16 -1.18e-16 0 0 0 0)
(-2.54329e-16 8.24734e-16 0 0 2.10649e-31 0 0 0 0)
(-1.00689e-16 1.18e-16 0 1.48425e-16 -4.92937e-16 0 0 0 0)
(9.00238e-15 3.1784e-16 0 -2.1108e-16 -1.31957e-16 0 0 0 0)
(8.36615e-11 4.99361e-12 0 3.73921e-15 -8.05702e-17 0 0 0 0)
(4.42696e-08 3.52748e-09 0 4.05269e-11 -1.39529e-12 0 0 0 0)
(2.14419e-06 2.36816e-07 0 2.19201e-08 -1.11065e-09 0 0 0 0)
(1.47293e-05 2.49679e-06 0 1.04927e-06 -8.89431e-08 0 0 0 0)
(-2.50285e-16 0 0 0 0 0 0 0 0)
(3.83787e-16 -1.90958e-16 0 2.23176e-16 1.89054e-16 0 0 0 0)
(2.50285e-16 1.20371e-31 0 -3.03485e-16 3.63517e-16 0 0 0 0)
(-2.11187e-16 1.90958e-16 0 0 1.0214e-16 0 0 0 0)
(-2.53026e-16 5.39249e-17 0 2.85625e-16 -3.0198e-16 0 0 0 0)
(1.12764e-14 8.26637e-16 0 -1.98005e-16 3.32431e-16 0 0 0 0)
(1.03277e-10 -1.09817e-15 0 7.8183e-16 -4.04754e-16 0 0 0 0)
(5.37803e-08 -4.15742e-14 0 -3.90253e-15 -9.98808e-12 0 0 0 0)
(2.53792e-06 -3.83894e-14 0 -1.35602e-13 -7.05516e-09 0 0 0 0)
(1.68637e-05 1.13829e-14 0 7.43809e-14 -4.73643e-07 0 0 0 0)
(0 0 0 0 0 0 0 0 0)
(0 -4.61217e-16 0 2.50285e-16 -3.92066e-16 0 0 0 0)
(0 -1.58603e-17 0 -3.83787e-16 -1.10958e-15 0 0 0 0)
(3.34782e-16 1.59237e-16 0 0 -6.65497e-16 0 0 0 0)
(-2.98693e-16 3.48292e-16 0 -1.726e-16 -1.09499e-15 0 0 0 0)
(9.49859e-15 2.15065e-16 0 2.53026e-16 -3.40044e-16 0 0 0 0)
(8.36578e-11 -4.9948e-12 0 -3.63496e-15 -8.93885e-16 0 0 0 0)
(4.42695e-08 -3.52768e-09 0 -4.05315e-11 -1.39297e-12 0 0 0 0)
(2.14419e-06 -2.36817e-07 0 -2.19204e-08 -1.11065e-09 0 0 0 0)
(1.47293e-05 -2.49679e-06 0 -1.04927e-06 -8.89431e-08 0 0 0 0)
(0 -3.92066e-16 0 0 0 0 0 0 0)
(0 -1.30054e-15 0 0 3.92066e-16 0 0 0 0)
(0 -2.73431e-16 0 0 1.76176e-15 0 0 0 0)
(0 2.05549e-16 0 0 6.81357e-16 0 0 0 0)
(0 3.79378e-16 0 -3.34782e-16 1.39697e-15 0 0 0 0)
(7.81404e-15 1.02775e-15 0 2.98693e-16 -4.6312e-17 0 0 0 0)
(6.27451e-11 -1.39373e-12 0 -2.01933e-15 1.54162e-16 0 0 0 0)
(3.18599e-08 -1.11069e-09 0 -2.09123e-11 6.38848e-12 0 0 0 0)
(1.48869e-06 -8.89418e-08 0 -1.24096e-08 4.63837e-09 0 0 0 0)
(1.05238e-05 -1.1284e-06 0 -6.55526e-07 3.25765e-07 0 0 0 0)
(1.43448e-05 8.86429e-06 -8.81734e-22 8.65615e-06 -6.10672e-06 1.3226e-21 4.78663e-22 1.39224e-21 -2.38995e-37)
(-7.73507e-05 1.38599e-05 0 1.34112e-05 -9.74855e-06 0 -3.97312e-21 -9.60159e-22 0)
(-0.00268487 -0.000270005 0 -7.63871e-05 6.48721e-05 0 1.39881e-20 -1.13684e-21 0)
(-0.0291341 -0.00492754 0 -0.00316539 0.00307754 0 0 0 0)
(-0.104361 -0.0362838 -7.07183e-18 -0.0418321 0.0580108 1.06077e-17 1.95461e-17 1.30307e-17 1.91682e-33)
(2.18429e-05 6.89363e-06 0 5.70988e-06 -9.91687e-07 0 2.04283e-21 2.88756e-22 0)
(-0.000106113 1.5161e-06 0 8.50665e-06 -4.02492e-06 0 3.97312e-21 9.60159e-22 0)
(-0.00339434 -0.000344547 0 -3.87406e-05 -8.1573e-06 0 -1.39881e-20 1.13684e-21 0)
(-0.0317935 -0.00313852 0 -0.001264 0.000331205 0 0 0 0)
(-0.132517 2.83317e-05 0 -0.00510324 0.00670445 0 0 0 0)
(2.61036e-05 -1.16521e-13 0 3.2539e-14 -4.40855e-06 0 0 0 0)
(-0.000114591 2.52809e-13 0 -9.30503e-14 -1.32043e-05 0 0 0 0)
(-0.00358987 1.79215e-14 0 4.22397e-13 -8.85071e-06 0 0 0 0)
(-0.0331859 -1.8514e-13 0 -5.5147e-13 0.00101107 0 0 0 0)
(-0.135297 2.961e-13 0 9.22963e-13 0.0147943 0 0 0 0)
(2.18429e-05 -6.89363e-06 0 -5.70988e-06 -9.91687e-07 0 2.04283e-21 -2.88756e-22 0)
(-0.000106113 -1.5161e-06 0 -8.50665e-06 -4.02492e-06 0 3.97312e-21 -9.60159e-22 0)
(-0.00339434 0.000344547 0 3.87406e-05 -8.1573e-06 0 -1.39881e-20 -1.13684e-21 0)
(-0.0317935 0.00313852 0 0.001264 0.000331205 0 0 0 0)
(-0.132517 -2.83317e-05 0 0.00510324 0.00670445 0 0 0 0)
(1.43448e-05 -8.86429e-06 8.81734e-22 -8.65615e-06 -6.10672e-06 1.3226e-21 -4.56433e-21 1.96975e-21 -2.38995e-37)
(-7.73507e-05 -1.38599e-05 0 -1.34112e-05 -9.74854e-06 0 -3.97312e-21 9.60159e-22 0)
(-0.00268487 0.000270005 0 7.63871e-05 6.48721e-05 0 1.39881e-20 1.13684e-21 0)
(-0.0291341 0.00492754 -3.91742e-19 0.00316539 0.00307754 -5.87613e-19 1.06097e-18 -7.07311e-19 1.06182e-34)
(-0.104361 0.0362838 7.07183e-18 0.0418321 0.0580108 1.06077e-17 -1.95461e-17 1.30307e-17 1.91682e-33)
(-0.261752 0.00367744 2.6191e-19 -0.0202435 -0.086542 2.35719e-18 -6.36857e-17 4.40209e-18 -7.09908e-35)
(-0.284357 0.0174203 -4.50151e-19 -0.0709818 -0.14715 -4.05136e-18 1.12894e-16 -7.87458e-18 -1.22014e-34)
(-0.321189 0.100191 0 -0.0401794 -0.073095 0 0 0 0)
(-0.424526 0.25463 -8.78006e-19 0.342545 0.255191 -7.90205e-18 -1.77797e-16 2.8587e-17 2.37984e-34)
(-0.857044 0.134457 2.58891e-18 1.2279 0.881305 2.33002e-17 1.24274e-16 -1.38082e-17 7.01727e-34)
(-0.277231 0.00848807 0 -0.0188637 -0.0190432 0 3.21477e-17 -8.97862e-19 0)
(-0.291252 0.0263066 0 -0.0912394 -0.0348938 0 -5.75159e-17 1.72145e-18 0)
(-0.180338 0.10518 0 -0.0303371 -0.11033 0 0 0 0)
(0.0796319 0.273488 0 0.519266 -0.304694 0 1.00766e-16 -2.03762e-17 0)
(0.491694 0.0757363 0 1.75743 -0.616076 0 -8.59132e-18 5.449e-18 0)
(-0.286617 -6.15496e-14 0 -3.59347e-15 -0.0215391 0 0 0 0)
(-0.284086 -6.08489e-14 0 -2.95376e-14 -0.0445309 0 0 0 0)
(-0.0871231 3.67423e-14 0 8.48288e-14 -0.175806 0 0 0 0)
(0.325922 8.82983e-14 0 -4.42893e-16 -0.595009 0 -3.40509e-17 4.77304e-30 0)
(0.771105 8.04539e-14 0 2.26668e-13 -1.44743 0 1.71826e-17 -3.65022e-30 0)
(-0.277231 -0.00848807 0 0.0188637 -0.0190432 0 3.21477e-17 8.97862e-19 0)
(-0.291252 -0.0263066 0 0.0912394 -0.0348938 0 -5.75159e-17 -1.72145e-18 0)
(-0.180338 -0.10518 0 0.0303371 -0.11033 0 0 0 0)
(0.0796319 -0.273488 0 -0.519266 -0.304694 0 1.00766e-16 2.03762e-17 0)
(0.491694 -0.0757363 0 -1.75743 -0.616076 0 -8.59132e-18 -5.449e-18 0)
(-0.261752 -0.00367744 0 0.0202435 -0.086542 0 -3.21477e-17 -8.97862e-19 0)
(-0.284357 -0.0174203 4.50151e-19 0.0709818 -0.14715 -4.05136e-18 2.13774e-18 -4.43168e-18 -1.22014e-34)
(-0.321189 -0.100191 0 0.0401794 -0.073095 0 0 0 0)
(-0.424526 -0.25463 8.78006e-19 -0.342545 0.255191 -7.90205e-18 1.03163e-17 -7.68551e-18 2.37984e-34)
(-0.857044 -0.134457 -2.58891e-18 -1.2279 0.881305 2.33002e-17 -1.24274e-16 -1.38082e-17 7.01727e-34)
(-0.0491226 -0.558285 0 6.82151 0.136312 0 0 0 0)
(0.637805 -0.274203 0 2.15805 0.445264 0 0 0 0)
(0.231893 0.318895 0 0.778963 0.198961 0 0 0 0)
(0.377304 0.179442 0 0.131326 0.0845463 0 0 0 0)
(0.24565 0.0522371 0 0.00508844 0.0227775 0 0 0 0)
(0.0857865 0.0028521 0 -0.00172167 0.0026573 0 0 0 0)
(0.0119287 -0.000126497 0 -0.000116502 6.93588e-05 0 0 0 0)
(0.000429353 -1.09342e-05 0 -9.51747e-07 2.92552e-07 0 0 0 0)
(2.5422e-06 -9.603e-08 0 -7.70165e-10 1.42039e-10 0 0 0 0)
(1.67534e-09 -7.1986e-11 0 -4.34969e-14 1.2254e-14 0 0 0 0)
(8.68559e-14 -2.54939e-15 0 -2.97753e-16 -4.19439e-16 0 0 0 0)
(-2.70073e-17 -4.63068e-16 0 6.73769e-16 4.10287e-15 0 0 0 0)
(-3.31684e-16 6.8789e-17 0 3.38805e-16 2.1873e-15 0 0 0 0)
(-6.20803e-17 7.21446e-17 0 -8.81104e-16 7.64319e-16 0 0 0 0)
(8.2779e-16 1.80361e-16 0 -2.93906e-17 4.57525e-16 0 0 0 0)
(-7.37843e-17 -2.44956e-16 0 3.61088e-16 2.16817e-15 0 0 0 0)
(-7.94148e-16 9.22779e-18 0 2.23892e-16 6.48611e-16 0 0 0 0)
(-3.36352e-16 8.85029e-16 0 -2.34552e-16 2.30341e-15 0 0 0 0)
(3.83832e-16 4.78168e-17 0 -1.1625e-15 6.05528e-15 0 0 0 0)
(5.45004e-16 -6.28329e-16 0 2.75763e-16 3.65514e-15 0 0 0 0)
(-3.84915e-17 -3.75823e-16 0 2.05113e-16 1.06175e-15 0 0 0 0)
(-8.80327e-17 2.06367e-16 0 9.11805e-16 4.0785e-15 0 0 0 0)
(-6.27987e-16 1.98314e-15 0 7.98763e-16 2.48758e-15 0 0 0 0)
(-2.46856e-16 -3.80856e-16 0 -1.36806e-15 6.04009e-15 0 0 0 0)
(1.09617e-15 -1.39675e-15 0 -1.65695e-15 4.69211e-15 0 0 0 0)
(5.60846e-16 -1.14089e-16 0 -3.48936e-16 -8.65555e-16 0 0 0 0)
(-9.14989e-16 -8.47279e-17 0 9.32574e-16 -5.02943e-15 0 0 0 0)
(-4.04187e-16 1.42695e-15 0 9.13503e-16 3.25964e-16 0 0 0 0)
(1.94248e-16 1.87073e-15 0 6.06841e-16 -4.70377e-16 0 0 0 0)
(1.12483e-13 8.47279e-17 0 -4.02729e-19 -3.86612e-15 0 0 0 0)
(2.12792e-09 2.30275e-15 0 -1.06942e-15 3.37966e-15 0 0 0 0)
(3.2864e-06 5.20935e-14 0 1.45467e-14 -4.87172e-14 0 0 0 0)
(0.000572365 -2.49738e-13 0 1.21129e-13 -1.49476e-13 0 0 0 0)
(0.0165184 7.15992e-14 0 -4.87226e-13 -4.36736e-13 0 0 0 0)
(0.125049 3.12546e-13 0 4.87198e-13 7.34842e-13 0 0 0 0)
(0.389629 -3.26135e-14 0 -6.48057e-14 -4.81776e-13 0 0 0 0)
(0.693773 -5.74485e-14 0 1.97128e-14 -1.63083e-13 0 0 0 0)
(0.806436 -3.58584e-15 0 2.75979e-14 -2.12e-13 0 0 0 0)
(2.65368 2.5844e-14 0 3.25261e-14 -3.06838e-13 0 0 0 0)
(2.26049 -5.36027e-14 0 1.77415e-13 -2.3504e-13 0 0 0 0)
(0.213338 -0.472617 0 4.83646 -0.315974 0 0 0 0)
(-0.317615 -0.242538 0 1.93652 1.27533 0 0 0 0)
(-0.156879 0.222421 0 0.745536 0.626599 0 0 0 0)
(0.226127 0.123464 0 0.0956988 0.17913 0 0 0 0)
(0.227214 0.033116 0 -0.0144637 0.00976652 0 0 0 0)
(0.0874651 -6.82423e-05 0 -0.00384158 -0.000435165 0 0 0 0)
(0.0125526 -0.000491987 0 -0.000164421 -3.75867e-05 0 0 0 0)
(0.000458594 -2.05615e-05 0 -1.0604e-06 -3.30103e-07 0 0 0 0)
(2.74295e-06 -1.21779e-07 0 -7.80588e-10 -2.47247e-10 0 0 0 0)
(1.82821e-09 -7.57589e-11 0 -4.77067e-14 2.26831e-14 0 0 0 0)
(9.60249e-14 -1.9479e-15 0 5.25174e-16 -1.35533e-15 0 0 0 0)
(1.70698e-16 2.85223e-16 0 -1.02309e-16 6.30085e-15 0 0 0 0)
(-6.30186e-16 -8.80835e-16 0 -1.25179e-16 2.36462e-16 0 0 0 0)
(-1.40401e-16 -5.57862e-16 0 -1.03011e-15 3.91028e-15 0 0 0 0)
(8.60923e-16 2.1895e-16 0 -2.84622e-16 -1.58891e-15 0 0 0 0)
(3.41167e-17 8.3889e-19 0 -3.50208e-17 7.52642e-16 0 0 0 0)
(-6.54795e-16 2.265e-17 0 2.21297e-16 1.00929e-16 0 0 0 0)
(-5.845e-16 1.62493e-15 0 7.26823e-16 1.23133e-15 0 0 0 0)
(3.54278e-16 4.0099e-16 0 4.3398e-16 1.96379e-15 0 0 0 0)
(6.90923e-16 -1.40934e-15 0 -1.19976e-15 4.17558e-15 0 0 0 0)
(1.6439e-16 1.95461e-16 0 1.55032e-16 1.11022e-15 0 0 0 0)
(1.25492e-16 7.4074e-16 0 1.17004e-15 7.70809e-15 0 0 0 0)
(-1.01959e-15 1.37494e-15 0 3.49286e-16 3.8526e-15 0 0 0 0)
(-8.4676e-16 2.114e-16 0 -1.34699e-16 -2.04742e-16 0 0 0 0)
(9.94792e-16 -2.57204e-15 0 -2.21579e-15 6.59787e-15 0 0 0 0)
(1.05406e-15 -2.44788e-15 0 -2.82201e-15 2.31848e-15 0 0 0 0)
(-2.20874e-16 5.77995e-16 0 1.66675e-15 -1.16789e-15 0 0 0 0)
(-3.11497e-16 2.00243e-15 0 2.0203e-15 2.72508e-15 0 0 0 0)
(-1.54655e-16 -1.34222e-16 0 -4.38401e-16 -4.76097e-15 0 0 0 0)
(1.11832e-13 -4.6894e-16 0 -4.71403e-16 -1.22066e-14 0 0 0 0)
(2.12791e-09 -8.6154e-15 0 -6.69441e-16 -6.14513e-15 0 0 0 0)
(3.2864e-06 3.44029e-14 0 -2.02997e-15 -4.54728e-14 0 0 0 0)
(0.000572365 -2.48745e-13 0 8.68762e-14 4.73502e-15 0 0 0 0)
(0.0165184 1.97775e-13 0 -6.25094e-13 -3.11334e-13 0 0 0 0)
(0.125049 2.17668e-13 0 7.44973e-13 4.00483e-13 0 0 0 0)
(0.389629 -1.88147e-13 0 -1.93555e-13 -5.23186e-13 0 0 0 0)
(0.693773 1.52551e-14 0 4.13968e-14 -2.48117e-13 0 0 0 0)
(0.806436 -6.57409e-14 0 6.89947e-15 -2.15842e-13 0 0 0 0)
(2.65368 -2.02769e-14 0 -1.67559e-14 -4.28062e-13 0 0 0 0)
(2.26049 -2.31725e-14 0 1.22219e-13 -5.11678e-13 0 0 0 0)
(0.228679 5.34237e-14 0 4.57952e-13 -0.819242 0 0 0 0)
(-0.552281 -1.09296e-13 0 4.30216e-14 1.75343 0 0 0 0)
(-0.303619 -1.8037e-13 0 -1.07927e-13 0.848204 0 0 0 0)
(0.156213 -7.18559e-14 0 -1.62877e-13 0.224289 0 0 0 0)
(0.216692 3.43869e-14 0 1.0571e-13 -0.000610527 0 0 0 0)
(0.0899463 -3.06614e-14 0 9.53605e-14 -0.00338325 0 0 0 0)
(0.013046 4.34898e-14 0 2.41004e-13 -0.000141361 0 0 0 0)
(0.000477184 1.63749e-13 0 2.0362e-13 -8.37233e-07 0 0 0 0)
(2.85067e-06 4.59486e-14 0 -9.74379e-14 -5.20483e-10 0 0 0 0)
(1.90242e-09 -6.00939e-14 0 -2.17919e-14 -1.72704e-14 0 0 0 0)
(1.00704e-13 -7.31512e-15 0 7.35305e-16 -2.13681e-15 0 0 0 0)
(-2.16201e-16 -1.07239e-29 0 -1.09992e-15 -4.72924e-16 0 0 0 0)
(-6.01588e-16 -6.26651e-16 0 -5.00956e-17 -1.31208e-15 0 0 0 0)
(-1.08464e-16 -4.58873e-16 0 7.55812e-16 4.56776e-15 0 0 0 0)
(1.11727e-15 -7.38224e-16 0 -6.73416e-16 8.56455e-16 0 0 0 0)
(7.33921e-17 2.46634e-16 0 -6.61793e-16 -7.52642e-16 0 0 0 0)
(-5.72521e-16 1.48484e-16 0 -2.37093e-16 0 0 0 0 0)
(-2.74481e-16 1.42695e-15 0 3.63052e-16 -8.30502e-16 0 0 0 0)
(-1.76628e-16 9.04324e-16 0 1.96505e-15 -3.90451e-15 0 0 0 0)
(4.63856e-16 -8.7664e-16 0 -1.02834e-15 -8.9971e-16 0 0 0 0)
(6.50904e-16 6.51818e-16 0 2.75895e-16 -3.02787e-16 0 0 0 0)
(-3.15224e-17 1.00415e-15 0 8.44522e-16 -1.51105e-15 0 0 0 0)
(-1.00755e-15 -3.18778e-16 0 -7.27704e-16 -3.25856e-15 0 0 0 0)
(-9.9306e-16 4.17767e-16 0 -1.069e-16 -7.26112e-15 0 0 0 0)
(3.14404e-16 -6.62723e-16 0 -4.42422e-16 1.67254e-16 0 0 0 0)
(1.69031e-15 -2.37322e-15 0 -1.18242e-15 6.26048e-15 0 0 0 0)
(4.93683e-16 3.35556e-17 0 1.52075e-15 4.96571e-15 0 0 0 0)
(-1.01659e-15 3.81695e-16 0 7.02168e-16 -1.13906e-15 0 0 0 0)
(-5.30611e-16 -2.47305e-15 0 -2.56836e-15 -2.48285e-15 0 0 0 0)
(1.12416e-13 -3.17939e-16 0 -8.46275e-16 -3.97084e-15 0 0 0 0)
(2.12792e-09 -7.37469e-15 0 1.03932e-15 -2.33002e-15 0 0 0 0)
(3.2864e-06 5.52586e-14 0 -4.27533e-15 -1.80943e-13 0 0 0 0)
(0.000572365 -3.27079e-13 0 1.19208e-13 3.37334e-14 0 0 0 0)
(0.0165184 1.86726e-13 0 -6.50731e-13 -4.50941e-13 0 0 0 0)
(0.125049 2.50916e-13 0 8.26104e-13 1.40213e-13 0 0 0 0)
(0.389629 -2.21297e-13 0 -1.7877e-13 -1.6497e-13 0 0 0 0)
(0.693773 3.19608e-14 0 6.40665e-14 -1.62777e-13 0 0 0 0)
(0.806436 -5.59336e-14 0 -1.37989e-14 -1.52839e-13 0 0 0 0)
(2.65368 -6.02173e-14 0 -9.36356e-14 -1.23103e-13 0 0 0 0)
(2.26049 -7.79272e-14 0 -2.64151e-13 -1.07017e-13 0 0 0 0)
(0.213338 0.472617 0 -4.83646 -0.315974 0 0 0 0)
(-0.317615 0.242538 0 -1.93652 1.27533 0 0 0 0)
(-0.156879 -0.222421 0 -0.745536 0.626599 0 0 0 0)
(0.226127 -0.123464 0 -0.0956988 0.17913 0 0 0 0)
(0.227214 -0.033116 0 0.0144637 0.00976652 0 0 0 0)
(0.0874651 6.82423e-05 0 0.00384158 -0.000435165 0 0 0 0)
(0.0125526 0.000491987 0 0.000164421 -3.75867e-05 0 0 0 0)
(0.000458594 2.05615e-05 0 1.0604e-06 -3.30103e-07 0 0 0 0)
(2.74295e-06 1.21779e-07 0 7.80451e-10 -2.47725e-10 0 0 0 0)
(1.82824e-09 7.56536e-11 0 4.31933e-14 -6.456e-14 0 0 0 0)
(1.02044e-13 2.93863e-15 0 3.76264e-16 -3.19224e-15 0 0 0 0)
(-5.77822e-17 5.25145e-16 0 3.37777e-16 -4.23037e-15 0 0 0 0)
(-9.03363e-17 5.85546e-16 0 -2.68769e-16 -1.28612e-15 0 0 0 0)
(-3.2173e-16 7.29835e-17 0 2.08052e-15 -7.43991e-16 0 0 0 0)
(4.48529e-16 -1.3288e-15 0 -2.55108e-16 2.60108e-15 0 0 0 0)
(1.61047e-16 -2.48312e-16 0 -1.74316e-15 0 0 0 0 0)
(-3.56659e-16 0 0 -5.68817e-16 0 0 0 0 0)
(5.61244e-17 4.89073e-16 0 3.75162e-17 -5.10412e-16 0 0 0 0)
(-5.04902e-17 3.80856e-16 0 9.59402e-16 -5.85677e-15 0 0 0 0)
(1.99531e-16 -3.61562e-16 0 6.11566e-16 -4.60236e-15 0 0 0 0)
(7.09222e-16 1.76167e-17 0 -6.3524e-16 -1.8917e-15 0 0 0 0)
(-1.66464e-16 -1.19122e-16 0 -1.27985e-15 -5.98076e-15 0 0 0 0)
(-1.29637e-15 -2.97806e-16 0 -5.26639e-16 -9.51616e-15 0 0 0 0)
(-7.63769e-16 1.208e-15 0 7.41794e-16 -7.1227e-15 0 0 0 0)
(6.81915e-16 1.36152e-15 0 1.92445e-15 -5.70105e-15 0 0 0 0)
(1.62516e-15 -1.05197e-15 0 5.49854e-16 6.77666e-16 0 0 0 0)
(3.27369e-16 -1.5746e-15 0 -1.1065e-15 1.3784e-15 0 0 0 0)
(-1.50106e-15 -1.64423e-16 0 -2.42991e-17 -7.71674e-15 0 0 0 0)
(-6.05111e-16 -9.58013e-16 0 -4.96837e-16 -1.08715e-15 0 0 0 0)
(1.12881e-13 -4.24479e-16 0 -7.59274e-17 4.36878e-15 0 0 0 0)
(2.12791e-09 -6.00981e-14 0 3.73888e-16 -3.73149e-15 0 0 0 0)
(3.2864e-06 4.48941e-14 0 -1.3462e-13 -1.18851e-13 0 0 0 0)
(0.000572365 -3.2729e-13 0 2.25551e-13 -3.25765e-13 0 0 0 0)
(0.0165184 2.28751e-13 0 -6.12862e-13 1.50967e-13 0 0 0 0)
(0.125049 3.00859e-13 0 9.25206e-13 -8.29257e-14 0 0 0 0)
(0.389629 -2.7629e-13 0 -1.1495e-13 -9.508e-14 0 0 0 0)
(0.693773 1.87841e-14 0 -2.4641e-15 -4.03951e-13 0 0 0 0)
(0.806436 -5.41994e-14 0 -1.13348e-13 -1.22181e-14 0 0 0 0)
(2.65368 -6.94687e-15 0 -1.26162e-13 -2.77425e-13 0 0 0 0)
(2.26049 -1.84932e-14 0 -1.77415e-13 1.17737e-13 0 0 0 0)
(-0.0491226 0.558285 0 -6.82151 0.136312 0 0 0 0)
(0.637805 0.274203 0 -2.15805 0.445264 0 0 0 0)
(0.231893 -0.318895 0 -0.778963 0.198961 0 0 0 0)
(0.377304 -0.179442 0 -0.131326 0.0845463 0 0 0 0)
(0.24565 -0.0522371 0 -0.00508844 0.0227775 0 0 0 0)
(0.0857865 -0.0028521 0 0.00172167 0.0026573 0 0 0 0)
(0.0119287 0.000126497 0 0.000116502 6.93588e-05 0 0 0 0)
(0.000429353 1.09342e-05 0 9.51747e-07 2.92553e-07 0 0 0 0)
(2.5422e-06 9.60299e-08 0 7.70136e-10 1.41607e-10 0 0 0 0)
(1.67538e-09 7.20044e-11 0 6.24394e-14 -5.54681e-15 0 0 0 0)
(8.82374e-14 1.02353e-14 0 2.56028e-17 -5.07261e-16 0 0 0 0)
(-4.03847e-16 5.54507e-16 0 8.4315e-16 -2.03986e-15 0 0 0 0)
(-9.46075e-17 3.87567e-16 0 -6.44226e-16 -6.23363e-16 0 0 0 0)
(-1.0449e-16 6.71951e-16 0 6.23788e-16 -3.88412e-15 0 0 0 0)
(4.9252e-18 -5.2179e-16 0 4.46741e-16 3.64362e-16 0 0 0 0)
(-1.78684e-17 -5.10045e-16 0 -9.36866e-16 2.26494e-16 0 0 0 0)
(-5.45062e-17 0 0 -1.84699e-16 0 0 0 0 0)
(1.70092e-16 -2.76834e-16 0 2.47799e-16 -3.22985e-18 0 0 0 0)
(-9.63151e-18 -2.86062e-16 0 -5.27431e-17 -2.64567e-15 0 0 0 0)
(-4.03415e-20 2.76834e-16 0 4.36449e-16 -1.97416e-15 0 0 0 0)
(1.00675e-16 2.50828e-16 0 -7.37384e-16 -4.3832e-16 0 0 0 0)
(7.08257e-20 -1.21387e-15 0 -1.81521e-15 -1.68461e-15 0 0 0 0)
(-4.19433e-16 -6.50979e-16 0 -1.66236e-16 -3.20504e-15 0 0 0 0)
(-2.80016e-16 1.52762e-15 0 1.70314e-15 -2.62148e-15 0 0 0 0)
(2.58567e-16 1.60648e-15 0 2.08928e-15 -3.80246e-15 0 0 0 0)
(8.08579e-16 -3.13745e-16 0 -1.0737e-16 -3.00131e-15 0 0 0 0)
(3.26657e-16 -2.40845e-15 0 -1.98223e-15 -1.02263e-15 0 0 0 0)
(-8.39236e-16 -3.35556e-16 0 -5.28402e-16 -3.53284e-15 0 0 0 0)
(-5.4563e-16 1.04274e-15 0 1.49817e-15 -1.73323e-15 0 0 0 0)
(1.12669e-13 -1.0872e-15 0 9.52141e-16 2.51895e-15 0 0 0 0)
(2.12788e-09 -4.32205e-14 0 -4.09983e-16 3.33698e-15 0 0 0 0)
(3.2864e-06 -3.84237e-14 0 -1.15083e-13 1.44058e-13 0 0 0 0)
(0.000572365 -2.48587e-13 0 -5.52719e-14 -4.87578e-13 0 0 0 0)
(0.0165184 2.5737e-13 0 -2.81561e-13 7.52636e-13 0 0 0 0)
(0.125049 1.79339e-13 0 6.75486e-13 -2.40351e-13 0 0 0 0)
(0.389629 -3.14686e-13 0 -2.47518e-13 9.05398e-16 0 0 0 0)
(0.693773 5.6066e-14 0 -6.50521e-14 -3.65696e-13 0 0 0 0)
(0.806436 -1.91262e-14 0 -8.37793e-14 6.01156e-14 0 0 0 0)
(2.65368 -2.24122e-14 0 -6.11096e-14 -7.41209e-14 0 0 0 0)
(2.26049 3.70291e-14 0 5.51957e-14 1.68241e-14 0 0 0 0)
(2.03139 0.465425 0 -3.50445 0.159582 0 0 0 0)
(2.368 0.245222 0 -0.975206 -0.179881 0 0 0 0)
(0.664914 -0.337142 0 -0.400807 -0.0951626 0 0 0 0)
(0.53676 -0.169254 0 -0.139045 -0.00394038 0 0 0 0)
(0.289355 -0.0623738 0 -0.0304368 0.0116081 0 0 0 0)
(0.092671 -0.0107993 0 -0.00276334 0.00168777 0 0 0 0)
(0.0121946 -0.000752087 0 -5.81463e-05 5.40951e-05 0 0 0 0)
(0.000419326 -1.18137e-05 0 -1.43464e-07 3.09161e-07 0 0 0 0)
(2.37807e-06 -3.19582e-08 0 -8.57806e-12 1.91968e-10 0 0 0 0)
(1.52188e-09 -8.95335e-12 0 -5.55815e-15 2.01037e-14 0 0 0 0)
(7.93712e-14 -3.29833e-15 0 -6.23764e-16 1.00625e-15 0 0 0 0)
(-7.781e-17 4.18369e-16 0 1.33273e-16 -2.94785e-16 0 0 0 0)
(-2.22998e-16 -3.42394e-16 0 -7.27918e-17 3.55067e-16 0 0 0 0)
(1.11419e-16 -3.09269e-30 0 -1.97536e-16 -8.51408e-16 0 0 0 0)
(-1.75097e-17 3.16562e-16 0 2.91028e-16 -4.81999e-16 0 0 0 0)
(-2.81667e-17 -1.74236e-16 0 -2.96857e-16 7.45274e-16 0 0 0 0)
(3.70857e-17 -1.44099e-16 0 1.84088e-16 1.81337e-16 0 0 0 0)
(7.12185e-18 -2.84906e-16 0 -1.73143e-16 -1.1274e-18 0 0 0 0)
(2.06019e-17 -8.43322e-17 0 -6.18735e-19 3.35087e-16 0 0 0 0)
(8.29034e-19 2.84906e-16 0 -3.1432e-18 8.67371e-16 0 0 0 0)
(4.50819e-19 -7.04035e-17 0 4.37354e-18 5.20357e-17 0 0 0 0)
(-7.5446e-19 -5.88806e-16 0 -1.60496e-16 -3.10635e-17 0 0 0 0)
(-1.03366e-16 -4.77123e-16 0 1.36077e-18 1.4267e-15 0 0 0 0)
(9.17172e-17 4.63701e-16 0 2.45495e-16 5.80651e-16 0 0 0 0)
(3.5727e-17 8.4003e-16 0 6.53718e-16 -7.44031e-16 0 0 0 0)
(1.53944e-17 -1.61827e-16 0 -8.55869e-17 -1.35237e-15 0 0 0 0)
(6.40902e-17 -9.43863e-16 0 -5.65215e-16 -3.40479e-16 0 0 0 0)
(-8.31339e-17 -4.12291e-16 0 -4.49358e-16 1.94988e-15 0 0 0 0)
(2.54819e-16 5.24734e-16 0 5.78657e-16 -1.9501e-16 0 0 0 0)
(1.11929e-13 3.5222e-15 0 1.07244e-15 5.91621e-16 0 0 0 0)
(2.12787e-09 9.17069e-15 0 8.113e-15 3.46403e-15 0 0 0 0)
(3.2864e-06 -1.66707e-13 0 5.42151e-15 6.28322e-14 0 0 0 0)
(0.000572365 -3.65458e-14 0 -4.03383e-13 -2.76401e-13 0 0 0 0)
(0.0165184 3.5074e-13 0 2.94384e-13 6.21114e-13 0 0 0 0)
(0.125049 -3.01725e-14 0 1.90684e-13 -3.35428e-13 0 0 0 0)
(0.389629 -3.1052e-13 0 -2.18291e-13 3.08123e-13 0 0 0 0)
(0.693773 1.28178e-14 0 -1.06523e-13 6.30287e-14 0 0 0 0)
(0.806436 8.81447e-14 0 -6.04029e-14 4.16083e-14 0 0 0 0)
(2.65368 -1.62207e-14 0 -5.5047e-14 1.8634e-13 0 0 0 0)
(2.26049 -2.56436e-14 0 -5.95102e-15 1.13198e-13 0 0 0 0)
(2.28792 0.134467 0 -0.495464 0.0811102 0 0 0 0)
(2.7008 0.0442625 0 -0.250133 -0.370627 0 0 0 0)
(0.805448 -0.139568 0 -0.185876 -0.162068 0 0 0 0)
(0.648701 -0.0820172 0 -0.10118 -0.0526321 0 0 0 0)
(0.353539 -0.041378 0 -0.0308232 -0.00798706 0 0 0 0)
(0.111369 -0.00972439 0 -0.00402555 -0.000416791 0 0 0 0)
(0.0144488 -0.00102847 0 -0.000140206 -1.32368e-06 0 0 0 0)
(0.000490762 -2.89954e-05 0 -8.22856e-07 2.14978e-08 0 0 0 0)
(2.76845e-06 -1.33258e-07 0 -5.44428e-10 2.1423e-11 0 0 0 0)
(1.76596e-09 -6.95694e-11 0 -2.97855e-14 -4.38177e-15 0 0 0 0)
(9.84762e-14 -2.16427e-15 0 8.95942e-18 2.53346e-16 0 0 0 0)
(-4.77415e-17 1.05711e-30 0 -1.86917e-16 -1.74241e-16 0 0 0 0)
(-3.44541e-16 2.42613e-16 0 3.56011e-16 -1.18263e-16 0 0 0 0)
(1.30323e-16 2.25646e-16 0 3.97812e-16 6.9486e-16 0 0 0 0)
(-7.87531e-17 5.6728e-16 0 -3.48544e-16 -2.86459e-17 0 0 0 0)
(-1.15397e-16 -5.09032e-17 0 -2.48367e-16 -2.91715e-17 0 0 0 0)
(1.55945e-17 -6.41989e-16 0 -2.93849e-16 4.79622e-16 0 0 0 0)
(7.94909e-17 -1.24346e-16 0 -2.33555e-16 1.7608e-16 0 0 0 0)
(1.37974e-16 4.42681e-16 0 -2.24954e-18 2.95657e-16 0 0 0 0)
(4.30421e-18 -2.5325e-19 0 -9.67702e-18 1.49537e-16 0 0 0 0)
(2.78722e-18 -4.42681e-16 0 3.45242e-17 4.95522e-32 0 0 0 0)
(-2.38985e-18 -2.24379e-16 0 1.96025e-19 1.93426e-16 0 0 0 0)
(-1.97691e-16 -1.54736e-16 0 6.65421e-18 1.02836e-15 0 0 0 0)
(1.49284e-16 6.33125e-18 0 4.29232e-17 7.16673e-16 0 0 0 0)
(5.90186e-17 1.54736e-16 0 -9.03256e-17 3.04067e-16 0 0 0 0)
(5.93018e-17 -6.33125e-18 0 5.98568e-17 -3.31399e-16 0 0 0 0)
(1.16911e-16 -1.16495e-17 0 2.32229e-17 5.41644e-16 0 0 0 0)
(-1.42405e-16 -1.54229e-16 0 -1.00946e-16 7.65555e-16 0 0 0 0)
(4.91601e-16 1.16495e-17 0 -2.48333e-17 7.25609e-16 0 0 0 0)
(1.20327e-13 -3.29225e-17 0 -1.67432e-16 2.2102e-16 0 0 0 0)
(2.12789e-09 -1.1337e-14 0 -1.57973e-16 -5.11238e-15 0 0 0 0)
(3.2864e-06 -2.39322e-13 0 -3.54758e-14 -4.99522e-14 0 0 0 0)
(0.000572365 1.75691e-13 0 -3.6834e-13 1.36223e-13 0 0 0 0)
(0.0165184 1.50421e-13 0 6.75606e-13 2.22856e-13 0 0 0 0)
(0.125049 -9.92359e-15 0 -2.64518e-13 -4.3985e-13 0 0 0 0)
(0.389629 6.70472e-14 0 1.84928e-13 3.69966e-13 0 0 0 0)
(0.693773 -1.77566e-13 0 -1.38659e-13 1.84389e-13 0 0 0 0)
(0.806436 4.21786e-14 0 -5.47494e-14 8.60028e-14 0 0 0 0)
(2.65368 4.32545e-14 0 4.70131e-14 9.57812e-14 0 0 0 0)
(2.26049 1.54691e-16 0 3.57061e-15 1.66796e-13 0 0 0 0)
(2.2678 0.0301141 0 -0.0123088 -0.0464579 0 0 0 0)
(2.66633 0.0108869 0 -0.0402475 -0.184626 0 0 0 0)
(0.808451 -0.03071 0 -0.0602998 -0.0927528 0 0 0 0)
(0.686174 -0.0207761 0 -0.039071 -0.0426659 0 0 0 0)
(0.382976 -0.0120573 0 -0.0140586 -0.00978288 0 0 0 0)
(0.122238 -0.00310394 0 -0.00211386 -0.00103038 0 0 0 0)
(0.016073 -0.000350431 0 -8.33753e-05 -2.90202e-05 0 0 0 0)
(0.000554433 -1.05381e-05 0 -5.29639e-07 -1.3315e-07 0 0 0 0)
(3.17101e-06 -5.26743e-08 0 -3.70332e-10 -6.94113e-11 0 0 0 0)
(2.04651e-09 -2.95971e-11 0 -1.70311e-14 2.32321e-15 0 0 0 0)
(1.07893e-13 7.56204e-16 0 2.44118e-17 0 0 0 0 0)
(2.56622e-16 6.02735e-17 0 -2.46269e-16 1.74241e-16 0 0 0 0)
(3.40468e-16 4.95104e-16 0 4.36202e-16 -2.9776e-16 0 0 0 0)
(-5.67517e-16 8.63582e-17 0 1.22776e-16 4.94076e-17 0 0 0 0)
(-6.40191e-16 -3.81141e-16 0 -3.45384e-16 -2.34161e-16 0 0 0 0)
(2.45394e-17 3.15549e-16 0 9.77958e-17 -1.00261e-15 0 0 0 0)
(5.13587e-17 5.3689e-17 0 9.52391e-17 -7.46633e-16 0 0 0 0)
(2.88118e-16 -4.62181e-16 0 2.08191e-16 -1.73978e-16 0 0 0 0)
(2.36339e-16 -1.0991e-16 0 -2.84632e-17 -5.22985e-17 0 0 0 0)
(3.62655e-17 7.43283e-31 0 3.79783e-17 -4.59386e-16 0 0 0 0)
(9.96484e-18 -2.81107e-17 0 1.92052e-16 -5.20357e-17 0 0 0 0)
(-2.76109e-17 4.02161e-16 0 2.42922e-18 9.91045e-32 0 0 0 0)
(-6.21922e-17 2.70977e-17 0 2.01939e-17 2.39154e-16 0 0 0 0)
(-1.7361e-18 -2.34256e-16 0 9.79514e-18 1.60575e-16 0 0 0 0)
(5.20448e-17 -1.69931e-16 0 -1.56145e-16 1.74241e-16 0 0 0 0)
(1.24814e-16 6.71112e-17 0 1.11228e-16 3.52161e-16 0 0 0 0)
(-9.08652e-17 1.13203e-16 0 -3.51824e-17 1.80811e-16 0 0 0 0)
(-1.29443e-16 -2.35016e-16 0 -1.5609e-16 1.20891e-17 0 0 0 0)
(1.9075e-16 0 0 -7.00606e-17 3.4086e-16 0 0 0 0)
(1.11801e-13 -2.10349e-15 0 -4.54119e-16 0 0 0 0 0)
(2.12784e-09 -3.9178e-14 0 -6.27735e-15 2.02361e-16 0 0 0 0)
(3.2864e-06 -3.05113e-14 0 -7.93017e-14 1.44202e-14 0 0 0 0)
(0.000572365 2.26342e-13 0 6.438e-15 3.40306e-13 0 0 0 0)
(0.0165184 -2.04385e-13 0 4.11831e-13 -1.14772e-13 0 0 0 0)
(0.125049 1.11588e-13 0 -4.79634e-13 -1.17184e-13 0 0 0 0)
(0.389629 2.91019e-13 0 4.09988e-13 6.84622e-14 0 0 0 0)
(0.693773 -2.60819e-13 0 -1.26608e-13 7.82762e-14 0 0 0 0)
(0.806436 2.75914e-15 0 -1.84482e-14 -1.21172e-14 0 0 0 0)
(2.65368 6.16345e-14 0 4.76082e-14 4.59219e-14 0 0 0 0)
(2.26049 4.27887e-14 0 4.76082e-15 2.4026e-14 0 0 0 0)
(2.261 0.001323 0 0.00230586 -0.0133107 0 0 0 0)
(2.65455 -0.000348978 0 -0.00526546 -0.0446322 0 0 0 0)
(0.806582 -0.00277044 0 -0.0108056 -0.02473 0 0 0 0)
(0.693261 -0.00206442 0 -0.00735644 -0.0128421 0 0 0 0)
(0.389153 -0.00125651 0 -0.00293128 -0.00322377 0 0 0 0)
(0.124836 -0.000325216 0 -0.000461777 -0.000362877 0 0 0 0)
(0.0164853 -3.56916e-05 0 -1.85882e-05 -1.09141e-05 0 0 0 0)
(0.000571105 -1.03058e-06 0 -1.19646e-07 -5.45688e-08 0 0 0 0)
(3.27883e-06 -4.94989e-09 0 -8.43676e-11 -3.05438e-11 0 0 0 0)
(2.12283e-09 -2.68223e-12 0 -1.32082e-14 -9.35066e-16 0 0 0 0)
(1.14651e-13 -4.2351e-15 0 -2.55226e-17 1.74241e-16 0 0 0 0)
(3.49075e-16 -2.86932e-16 0 9.70073e-17 0 0 0 0 0)
(1.10839e-17 1.2232e-16 0 3.10699e-16 -1.20103e-16 0 0 0 0)
(-6.22841e-16 2.86932e-16 0 -2.44621e-16 -5.13787e-16 0 0 0 0)
(-1.02825e-16 -4.4648e-16 0 -1.81456e-16 -2.47827e-16 0 0 0 0)
(3.09203e-16 -5.44741e-16 0 1.61364e-16 -5.75546e-16 0 0 0 0)
(1.21975e-16 1.56508e-16 0 3.35493e-16 -6.06032e-16 0 0 0 0)
(-3.97132e-17 5.44741e-16 0 3.73055e-16 -1.73978e-16 0 0 0 0)
(-2.6049e-17 1.67651e-16 0 -1.09356e-16 0 0 0 0 0)
(2.16801e-16 0 0 1.46941e-16 -5.99199e-17 0 0 0 0)
(-3.14691e-17 0 0 3.40282e-16 0 0 0 0 0)
(-1.67999e-16 5.62215e-17 0 1.45907e-17 -3.07484e-17 0 0 0 0)
(-1.90593e-16 1.45353e-30 0 4.58251e-17 -7.34544e-16 0 0 0 0)
(-2.06433e-17 -5.62215e-17 0 -2.44474e-16 -1.498e-17 0 0 0 0)
(1.56763e-16 3.39355e-16 0 -2.5825e-17 -2.41782e-17 0 0 0 0)
(1.75866e-16 6.60696e-30 0 -1.26479e-16 6.28108e-16 0 0 0 0)
(-1.40686e-16 -3.39355e-16 0 9.84105e-18 -9.46104e-17 0 0 0 0)
(-1.76015e-16 0 0 -3.37252e-17 0 0 0 0 0)
(2.04409e-16 0 0 -1.69621e-18 0 0 0 0 0)
(1.14345e-13 -1.66385e-16 0 5.17012e-17 0 0 0 0 0)
(2.12781e-09 2.55884e-15 0 -4.14533e-16 4.07981e-15 0 0 0 0)
(3.2864e-06 8.84142e-14 0 9.83427e-15 6.46304e-14 0 0 0 0)
(0.000572365 5.11969e-14 0 1.2661e-13 8.13834e-15 0 0 0 0)
(0.0165184 -2.90433e-13 0 -2.53978e-14 -2.89341e-13 0 0 0 0)
(0.125049 1.66647e-13 0 -3.18194e-13 2.13324e-13 0 0 0 0)
(0.389629 2.554e-13 0 4.0188e-13 -2.20776e-13 0 0 0 0)
(0.693773 -2.55216e-13 0 -8.52484e-14 -2.76643e-14 0 0 0 0)
(0.806436 1.10009e-14 0 -1.27947e-14 -1.85661e-13 0 0 0 0)
(2.65368 7.80833e-14 0 -9.55139e-14 2.87939e-14 0 0 0 0)
(2.26049 -2.0945e-14 0 -7.14123e-15 -7.59168e-14 0 0 0 0)
(2.2605 -6.84483e-05 0 0.000152278 -0.00283944 0 0 0 0)
(2.6537 -0.000117137 0 -0.000376998 -0.00421509 0 0 0 0)
(0.806436 -7.58664e-05 0 -0.000754089 -0.00248063 0 0 0 0)
(0.693762 -5.189e-05 0 -0.000528795 -0.00134083 0 0 0 0)
(0.38962 -3.18489e-05 0 -0.000222628 -0.000338526 0 0 0 0)
(0.125045 -7.91812e-06 0 -3.43768e-05 -3.70407e-05 0 0 0 0)
(0.0165179 -8.02084e-07 0 -1.30725e-06 -1.06941e-06 0 0 0 0)
(0.000572345 -2.08823e-08 0 -7.85888e-09 -5.13645e-09 0 0 0 0)
(3.2863e-06 -8.98644e-11 0 -5.37109e-12 -2.77453e-12 0 0 0 0)
(2.12781e-09 -1.6382e-13 0 2.89777e-15 -4.46508e-15 0 0 0 0)
(1.20715e-13 1.65727e-15 0 -3.75129e-17 -1.74241e-16 0 0 0 0)
(5.80617e-16 -2.23366e-16 0 -3.15791e-17 -1.05911e-16 0 0 0 0)
(1.12624e-17 1.98209e-31 0 -1.12995e-16 4.7568e-16 0 0 0 0)
(-1.04178e-15 -3.67212e-17 0 2.13804e-16 -1.80548e-16 0 0 0 0)
(-2.48969e-16 -4.40655e-16 0 2.03633e-16 3.07484e-16 0 0 0 0)
(5.2269e-16 -2.96302e-17 0 2.13887e-17 4.80673e-16 0 0 0 0)
(2.55352e-16 4.40655e-16 0 -1.94194e-16 5.65297e-16 0 0 0 0)
(-1.40555e-16 1.21813e-16 0 1.16688e-16 1.73978e-16 0 0 0 0)
(1.84469e-17 0 0 -1.52699e-16 0 0 0 0 0)
(4.69553e-16 0 0 1.51736e-16 -1.74241e-16 0 0 0 0)
(-1.17573e-16 0 0 -3.70256e-16 0 0 0 0 0)