/*--------------------------------*- C++ -*----------------------------------*\
| =========                 |                                                 |
| \\      /  F ield         | OpenFOAM: The Open Source CFD Toolbox           |
|  \\    /   O peration     | Version:  v1912                                 |
|   \\  /    A nd           | Website:  www.openfoam.com                      |
|    \\/     M anipulation  |                                                 |
\*---------------------------------------------------------------------------*/
FoamFile
{
    version     2.0;
    format      ascii;
    class       volScalarField;
    location    "3.42";
    object      Ma;
}
// * * * * * * * * * * * * * * * * * * * * * * * * * * * * * * * * * * * * * //

dimensions      [0 0 0 0 0 0 0];


internalField   nonuniform List<scalar> 
1900
(
0.541258
0.0885995
0.0958826
0.0994672
0.102753
0.105494
0.106935
0.106877
0.102528
0.087068
0.541263
0.0886145
0.0959096
0.0994969
0.102699
0.105047
0.105877
0.104764
0.100789
0.0970348
0.541265
0.0886203
0.0959206
0.0994855
0.102605
0.104735
0.105307
0.103825
0.102068
0.104417
0.541263
0.0886145
0.0959096
0.0994969
0.102699
0.105047
0.105877
0.104764
0.100789
0.0970348
0.541258
0.0885995
0.0958826
0.0994672
0.102753
0.105494
0.106935
0.106877
0.102528
0.087068
0.0927489
0.115024
0.135169
0.174774
0.323703
0.10935
0.130695
0.16304
0.234632
0.383313
0.1167
0.137752
0.176549
0.256679
0.400987
0.10935
0.130695
0.16304
0.234632
0.383313
0.0927489
0.115024
0.135169
0.174774
0.323703
0.361186
0.281376
0.22584
0.189297
0.213773
0.377465
0.293759
0.229547
0.15576
0.104601
0.385997
0.297955
0.224241
0.129377
0.0249129
0.377465
0.293759
0.229547
0.15576
0.104601
0.361186
0.281376
0.22584
0.189297
0.213773
0.402839
0.199452
0.248706
0.284955
0.34356
0.416672
0.460341
0.467997
0.466069
0.456708
0.440391
0.416522
0.385282
0.346928
0.302364
0.25284
0.199848
0.144867
0.0899616
0.0430379
0.0492424
0.099711
0.156449
0.213792
0.270264
0.324854
0.376425
0.424021
0.467057
0.505661
0.540737
0.573692
0.605674
0.636813
0.665453
0.689102
0.709306
0.724838
0.774095
1.71639
0.169137
0.41969
0.226735
0.198035
0.335915
0.415677
0.460118
0.4682
0.466327
0.456946
0.44062
0.416598
0.385151
0.346527
0.301618
0.25164
0.198004
0.141963
0.0848382
0.0302167
0.0386087
0.09517
0.153823
0.212136
0.269218
0.324249
0.376163
0.424038
0.467308
0.506107
0.541345
0.574435
0.606523
0.637789
0.666424
0.690196
0.710338
0.725775
0.774091
1.7178
0.298335
0.507587
0.242248
0.14806
0.336346
0.418122
0.462052
0.470027
0.467705
0.458131
0.441629
0.417386
0.385719
0.346877
0.301743
0.25152
0.197588
0.141118
0.0831407
0.0245384
0.0343857
0.0936953
0.153082
0.211794
0.269162
0.324437
0.376581
0.424684
0.468189
0.507234
0.542734
0.576108
0.608502
0.640119
0.669119
0.693287
0.713889
0.729602
0.777159
1.71978
0.169137
0.41969
0.226735
0.198035
0.335915
0.415677
0.460118
0.4682
0.466327
0.456946
0.44062
0.416598
0.385151
0.346527
0.301618
0.25164
0.198004
0.141963
0.0848382
0.0302167
0.0386087
0.09517
0.153823
0.212136
0.269218
0.324249
0.376163
0.424038
0.467308
0.506107
0.541345
0.574435
0.606523
0.637789
0.666424
0.690196
0.710338
0.725775
0.774091
1.7178
0.402839
0.199452
0.248706
0.284955
0.34356
0.416672
0.460341
0.467997
0.466069
0.456708
0.440391
0.416522
0.385282
0.346928
0.302364
0.25284
0.199848
0.144867
0.0899616
0.0430379
0.0492424
0.099711
0.156449
0.213792
0.270264
0.324854
0.376425
0.424021
0.467057
0.505661
0.540737
0.573692
0.605674
0.636813
0.665453
0.689102
0.709306
0.724838
0.774095
1.71639
1.32214
0.487861
0.444256
0.408702
0.39628
0.440722
0.474849
0.479383
0.475766
0.46539
0.448427
0.424389
0.393137
0.354996
0.310925
0.262325
0.211002
0.15919
0.11081
0.077558
0.0811065
0.118831
0.16976
0.224195
0.279078
0.332745
0.383786
0.431102
0.474029
0.512642
0.547808
0.580884
0.613054
0.644219
0.673321
0.696976
0.71785
0.733844
0.785149
1.72828
1.66748
0.777785
0.63926
0.532355
0.492575
0.488644
0.502453
0.499455
0.493372
0.480824
0.463165
0.439408
0.408949
0.372165
0.330125
0.284548
0.237789
0.193065
0.155252
0.134014
0.135955
0.1609
0.201613
0.249195
0.299547
0.350068
0.398844
0.444483
0.486135
0.523746
0.558123
0.590461
0.622125
0.652263
0.681353
0.70404
0.7252
0.741068
0.798067
1.72013
1.71111
0.854602
0.721419
0.611281
0.561489
0.543902
0.537565
0.529017
0.518112
0.503832
0.485507
0.46209
0.432624
0.397564
0.35805
0.316086
0.27433
0.236296
0.20613
0.191148
0.192372
0.210257
0.243088
0.283898
0.329114
0.375777
0.421689
0.465158
0.505189
0.541575
0.575027
0.606459
0.637738
0.666671
0.695969
0.71793
0.739659
0.755417
0.820273
1.72325
1.70358
0.888265
0.768166
0.670734
0.619978
0.59402
0.577716
0.563466
0.548978
0.532975
0.51402
0.49091
0.462483
0.429203
0.392303
0.353871
0.316646
0.283967
0.258944
0.247721
0.248514
0.262057
0.289354
0.324515
0.364888
0.407631
0.450376
0.491461
0.529575
0.564377
0.596829
0.626991
0.657771
0.685091
0.714494
0.735751
0.757778
0.77285
0.846421
1.72231
1.71405
0.915603
0.806548
0.718645
0.67161
0.641397
0.619189
0.600755
0.583732
0.566202
0.54683
0.523965
0.49651
0.465008
0.430456
0.395209
0.361746
0.333162
0.311643
0.302964
0.303456
0.314042
0.337452
0.368148
0.404375
0.443389
0.483244
0.521608
0.557911
0.591126
0.622246
0.65094
0.681606
0.707145
0.73661
0.757447
0.780028
0.794694
0.876179
1.72612
1.73193
0.938307
0.837672
0.759753
0.717235
0.684116
0.659188
0.638251
0.619846
0.601331
0.581679
0.559111
0.532867
0.502604
0.470351
0.437687
0.40727
0.381768
0.362683
0.355878
0.356138
0.364542
0.385175
0.41243
0.445154
0.481142
0.517766
0.554446
0.588126
0.619683
0.650272
0.676591
0.706813
0.73051
0.759891
0.779898
0.802263
0.816473
0.902327
1.72618
1.74305
0.960541
0.865511
0.79941
0.761028
0.724706
0.698573
0.675746
0.656174
0.636624
0.616865
0.595042
0.568764
0.540527
0.50964
0.479301
0.451211
0.42805
0.410666
0.405335
0.405405
0.412093
0.430724
0.455284
0.485318
0.518269
0.553319
0.586169
0.620064
0.648661
0.67825
0.703484
0.733281
0.75568
0.784445
0.805842
0.827747
0.843024
0.929343
1.73179
1.74073
0.977418
0.887605
0.830955
0.794928
0.757099
0.732004
0.708234
0.688917
0.669487
0.650579
0.627805
0.604194
0.575854
0.547053
0.518292
0.492074
0.47067
0.454471
0.450351
0.450261
0.455528
0.472697
0.495202
0.522931
0.553983
0.585695
0.618874
0.647809
0.676788
0.704845
0.727272
0.756403
0.777506
0.805099
0.826107
0.849179
0.86359
0.948127
1.73317
1.74926
0.999467
0.911761
0.864099
0.83023
0.792414
0.767728
0.742045
0.722879
0.702511
0.682107
0.661304
0.635994
0.609486
0.581359
0.55394
0.529145
0.509063
0.493671
0.490582
0.49036
0.494396
0.510498
0.53141
0.557365
0.586492
0.617435
0.64684
0.677972
0.702502
0.731621
0.753373
0.78198
0.802762
0.831024
0.852481
0.877768
0.892176
0.973342
1.7402
1.75066
1.01541
0.930168
0.889748
0.85662
0.818468
0.794261
0.767733
0.749672
0.728682
0.710382
0.688432
0.665139
0.639439
0.612406
0.586413
0.562684
0.543666
0.528806
0.526626
0.5263
0.529229
0.544556
0.564148
0.588772
0.615995
0.645272
0.673474
0.701382
0.726201
0.752915
0.773098
0.801193
0.820902
0.84878
0.869974
0.896916
0.910677
0.989187
1.7407
1.76151
1.03874
0.953946
0.921907
0.885983
0.850766
0.826945
0.799603
0.78198
0.76032
0.741028
0.718826
0.695479
0.669254
0.642739
0.617079
0.594049
0.575752
0.561198
0.55983
0.559425
0.561358
0.576163
0.59485
0.618476
0.645169
0.673313
0.701422
0.729074
0.752292
0.78048
0.799716
0.827963
0.847798
0.876406
0.897696
0.926387
0.940342
1.01583
1.74625
1.76406
1.05669
0.974141
0.946033
0.907385
0.875866
0.851179
0.823264
0.806134
0.783367
0.764674
0.742791
0.719917
0.695129
0.670107
0.645819
0.623961
0.60652
0.592276
0.59171
0.591255
0.592219
0.606525
0.624203
0.64647
0.671423
0.698045
0.723513
0.750822
0.771842
0.799561
0.817807
0.845514
0.864825
0.894048
0.915498
0.945426
0.959318
1.03254
1.74454
1.77382
1.08167
1.00015
0.974311
0.934335
0.907217
0.880591
0.853546
0.836616
0.813161
0.795232
0.772752
0.750314
0.725753
0.700519
0.676202
0.654415
0.637218
0.622956
0.623082
0.622607
0.622749
0.636943
0.654267
0.676375
0.70102
0.727861
0.752282
0.779295
0.799593
0.827013
0.844894
0.872793
0.89211
0.922127
0.944179
0.975115
0.989177
1.05995
1.7476
1.77493
1.10114
1.02254
0.998355
0.958483
0.933456
0.904365
0.878607
0.861172
0.836468
0.819164
0.795488
0.773594
0.74926
0.725191
0.702404
0.681914
0.666014
0.65235
0.65352
0.653038
0.651985
0.665445
0.681334
0.702036
0.724792
0.750369
0.773536
0.800169
0.819756
0.847093
0.86439
0.892375
0.91148
0.94222
0.964634
0.996569
1.01061
1.07858
1.74333
1.78135
1.1273
1.04998
1.02806
0.98944
0.965262
0.934015
0.910153
0.890874
0.865489
0.847282
0.822686
0.801837
0.777431
0.75376
0.730499
0.709867
0.693723
0.679511
0.681109
0.680667
0.679121
0.693077
0.709154
0.729953
0.752937
0.778373
0.800718
0.827056
0.84607
0.874542
0.892468
0.921383
0.941411
0.973258
0.996659
1.02912
1.04296
1.10816
1.74308
1.78061
1.14872
1.07596
1.0557
1.01795
0.993398
0.959932
0.937015
0.915856
0.888964
0.870751
0.845176
0.823051
0.79765
0.773716
0.750749
0.730454
0.714862
0.700974
0.703651
0.703205
0.70039
0.713897
0.729272
0.749723
0.771981
0.7977
0.820112
0.847896
0.86659
0.895059
0.913035
0.942475
0.962951
0.99585
1.01996
1.05337
1.06695
1.12833
1.7362
1.7754
1.16666
1.09955
1.08457
1.04778
1.0219
0.986813
0.965564
0.940801
0.915052
0.894911
0.86559
0.844578
0.817592
0.794697
0.771077
0.750616
0.734651
0.720138
0.723213
0.722884
0.719683
0.733859
0.749552
0.770407
0.792806
0.818659
0.840749
0.86936
0.889743
0.920358
0.939778
0.970413
0.991945
1.0254
1.05048
1.08386
1.0931
1.14709
1.72206
1.72583
1.16083
1.10235
1.09526
1.06309
1.03823
1.00355
0.982671
0.954002
0.929925
0.907131
0.879075
0.857118
0.830179
0.808207
0.785104
0.765493
0.749871
0.735079
0.738192
0.737924
0.734672
0.749211
0.764527
0.784772
0.806141
0.831529
0.852702
0.881733
0.901324
0.932035
0.951255
0.982138
1.00361
1.03703
1.06165
1.09138
1.09433
1.14073
1.66256
1.70852
1.16752
1.13745
1.14055
1.11835
1.09866
1.06868
1.05122
1.02486
1.0053
0.983975
0.96062
0.93837
0.910695
0.88137
0.849281
0.819118
0.794403
0.774832
0.775005
0.774853
0.774539
0.793983
0.818394
0.849103
0.879632
0.911282
0.935313
0.96288
0.980185
1.00741
1.024
1.05203
1.07051
1.10086
1.12155
1.14368
1.13834
1.15698
1.68364
2.34096
1.68683
1.65791
1.7154
1.73004
1.73842
1.7402
1.74538
1.7431
1.74508
1.73994
1.73946
1.73422
1.73499
1.73201
1.73253
1.72865
1.7292
1.72041
1.74094
1.74097
1.72037
1.72927
1.7287
1.73276
1.73217
1.73558
1.73447
1.7402
1.74044
1.74619
1.74447
1.74756
1.74295
1.74259
1.73534
1.72157
1.66121
1.67963
2.34432
2.34096
1.68683
1.65791
1.7154
1.73004
1.73842
1.7402
1.74538
1.7431
1.74508
1.73994
1.73946
1.73422
1.73499
1.73201
1.73253
1.72865
1.7292
1.72041
1.74094
1.74097
1.72037
1.72927
1.7287
1.73276
1.73217
1.73558
1.73447
1.7402
1.74044
1.74619
1.74447
1.74756
1.74295
1.74259
1.73534
1.72157
1.66121
1.67963
2.34432
1.70852
1.16752
1.13745
1.14055
1.11835
1.09866
1.06868
1.05122
1.02486
1.0053
0.983975
0.96062
0.93837
0.910695
0.88137
0.849281
0.819118
0.794403
0.774832
0.775005
0.774853
0.774539
0.793983
0.818394
0.849103
0.879632
0.911282
0.935313
0.96288
0.980185
1.00741
1.024
1.05203
1.07051
1.10086
1.12155
1.14368
1.13834
1.15698
1.68364
1.72583
1.16083
1.10235
1.09526
1.06309
1.03823
1.00355
0.982671
0.954002
0.929925
0.907131
0.879075
0.857118
0.830179
0.808207
0.785104
0.765493
0.749871
0.735079
0.738192
0.737924
0.734672
0.749211
0.764527
0.784772
0.806141
0.831529
0.852702
0.881733
0.901324
0.932035
0.951255
0.982138
1.00361
1.03703
1.06165
1.09138
1.09433
1.14073
1.66256
1.7754
1.16666
1.09955
1.08457
1.04778
1.0219
0.986813
0.965564
0.940801
0.915052
0.894911
0.86559
0.844578
0.817592
0.794697
0.771077
0.750616
0.734651
0.720138
0.723213
0.722884
0.719683
0.733859
0.749552
0.770407
0.792806
0.818659
0.840749
0.86936
0.889743
0.920358
0.939778
0.970413
0.991945
1.0254
1.05048
1.08386
1.0931
1.14709
1.72206
1.78061
1.14872
1.07596
1.0557
1.01795
0.993398
0.959932
0.937015
0.915856
0.888964
0.870751
0.845176
0.823051
0.79765
0.773716
0.750749
0.730454
0.714862
0.700974
0.703651
0.703205
0.70039
0.713897
0.729272
0.749723
0.771981
0.7977
0.820112
0.847896
0.86659
0.895059
0.913035
0.942475
0.962951
0.99585
1.01996
1.05337
1.06695
1.12833
1.7362
1.78135
1.1273
1.04998
1.02806
0.98944
0.965262
0.934015
0.910153
0.890874
0.865489
0.847282
0.822686
0.801837
0.777431
0.75376
0.730499
0.709867
0.693723
0.679511
0.681109
0.680667
0.679121
0.693077
0.709154
0.729953
0.752937
0.778373
0.800718
0.827056
0.84607
0.874542
0.892468
0.921383
0.941411
0.973258
0.996659
1.02912
1.04296
1.10816
1.74308
1.77493
1.10114
1.02254
0.998355
0.958483
0.933456
0.904365
0.878607
0.861172
0.836468
0.819164
0.795488
0.773594
0.74926
0.725191
0.702404
0.681914
0.666014
0.65235
0.65352
0.653038
0.651985
0.665445
0.681334
0.702036
0.724792
0.750369
0.773536
0.800169
0.819756
0.847093
0.86439
0.892375
0.91148
0.94222
0.964634
0.996569
1.01061
1.07858
1.74333
1.77382
1.08167
1.00015
0.974311
0.934335
0.907217
0.880591
0.853546
0.836616
0.813161
0.795232
0.772752
0.750314
0.725753
0.700519
0.676202
0.654415
0.637218
0.622956
0.623082
0.622607
0.622749
0.636943
0.654267
0.676375
0.70102
0.727861
0.752282
0.779295
0.799593
0.827013
0.844894
0.872793
0.89211
0.922127
0.944179
0.975115
0.989177
1.05995
1.7476
1.76406
1.05669
0.974141
0.946033
0.907385
0.875866
0.851179
0.823264
0.806134
0.783367
0.764674
0.742791
0.719917
0.695129
0.670107
0.645819
0.623961
0.60652
0.592276
0.59171
0.591255
0.592219
0.606525
0.624203
0.64647
0.671423
0.698045
0.723513
0.750822
0.771842
0.799561
0.817807
0.845514
0.864825
0.894048
0.915498
0.945426
0.959318
1.03254
1.74454
1.76151
1.03874
0.953946
0.921907
0.885983
0.850766
0.826945
0.799603
0.78198
0.76032
0.741028
0.718826
0.695479
0.669254
0.642739
0.617079
0.594049
0.575752
0.561198
0.55983
0.559425
0.561358
0.576163
0.59485
0.618476
0.645169
0.673313
0.701422
0.729074
0.752292
0.78048
0.799716
0.827963
0.847798
0.876406
0.897696
0.926387
0.940342
1.01583
1.74625
1.75066
1.01541
0.930168
0.889748
0.85662
0.818468
0.794261
0.767733
0.749672
0.728682
0.710382
0.688432
0.665139
0.639439
0.612406
0.586413
0.562684
0.543666
0.528806
0.526626
0.5263
0.529229
0.544556
0.564148
0.588772
0.615995
0.645272
0.673474
0.701382
0.726201
0.752915
0.773098
0.801193
0.820902
0.84878
0.869974
0.896916
0.910677
0.989187
1.7407
1.74926
0.999467
0.911761
0.864099
0.83023
0.792414
0.767728
0.742045
0.722879
0.702511
0.682107
0.661304
0.635994
0.609486
0.581359
0.55394
0.529145
0.509063
0.493671
0.490582
0.49036
0.494396
0.510498
0.53141
0.557365
0.586492
0.617435
0.64684
0.677972
0.702502
0.731621
0.753373
0.78198
0.802762
0.831024
0.852481
0.877768
0.892176
0.973342
1.7402
1.74073
0.977418
0.887605
0.830955
0.794928
0.757099
0.732004
0.708234
0.688917
0.669487
0.650579
0.627805
0.604194
0.575854
0.547053
0.518292
0.492074
0.47067
0.454471
0.450351
0.450261
0.455528
0.472697
0.495202
0.522931
0.553983
0.585695
0.618874
0.647809
0.676788
0.704845
0.727272
0.756403
0.777506
0.805099
0.826107
0.849179
0.86359
0.948127
1.73317
1.74305
0.960541
0.865511
0.79941
0.761028
0.724706
0.698573
0.675746
0.656174
0.636624
0.616865
0.595042
0.568764
0.540527
0.50964
0.479301
0.451211
0.42805
0.410666
0.405335
0.405405
0.412093
0.430724
0.455284
0.485318
0.518269
0.553319
0.586169
0.620064
0.648661
0.67825
0.703484
0.733281
0.75568
0.784445
0.805842
0.827747
0.843024
0.929343
1.73179
1.73193
0.938307
0.837672
0.759753
0.717235
0.684116
0.659188
0.638251
0.619846
0.601331
0.581679
0.559111
0.532867
0.502604
0.470351
0.437687
0.40727
0.381768
0.362683
0.355878
0.356138
0.364542
0.385175
0.41243
0.445154
0.481142
0.517766
0.554446
0.588126
0.619683
0.650272
0.676591
0.706813
0.73051
0.759891
0.779898
0.802263
0.816473
0.902327
1.72618
1.71405
0.915603
0.806548
0.718645
0.67161
0.641397
0.619189
0.600755
0.583732
0.566202
0.54683
0.523965
0.49651
0.465008
0.430456
0.395209
0.361746
0.333162
0.311643
0.302964
0.303456
0.314042
0.337452
0.368148
0.404375
0.443389
0.483244
0.521608
0.557911
0.591126
0.622246
0.65094
0.681606
0.707145
0.73661
0.757447
0.780028
0.794694
0.876179
1.72612
1.70358
0.888265
0.768166
0.670734
0.619978
0.59402
0.577716
0.563466
0.548978
0.532975
0.51402
0.49091
0.462483
0.429203
0.392303
0.353871
0.316646
0.283967
0.258944
0.247721
0.248514
0.262057
0.289354
0.324515
0.364888
0.407631
0.450376
0.491461
0.529575
0.564377
0.596829
0.626991
0.657771
0.685091
0.714494
0.735751
0.757778
0.77285
0.846421
1.72231
1.71111
0.854602
0.721419
0.611281
0.561489
0.543902
0.537565
0.529017
0.518112
0.503832
0.485507
0.46209
0.432624
0.397564
0.35805
0.316086
0.27433
0.236296
0.20613
0.191148
0.192372
0.210257
0.243088
0.283898
0.329114
0.375777
0.421689
0.465158
0.505189
0.541575
0.575027
0.606459
0.637738
0.666671
0.695969
0.71793
0.739659
0.755417
0.820273
1.72325
1.66748
0.777785
0.63926
0.532355
0.492575
0.488644
0.502453
0.499455
0.493372
0.480824
0.463165
0.439408
0.408949
0.372165
0.330125
0.284548
0.237789
0.193065
0.155252
0.134014
0.135955
0.1609
0.201613
0.249195
0.299547
0.350068
0.398844
0.444483
0.486135
0.523746
0.558123
0.590461
0.622125
0.652263
0.681353
0.70404
0.7252
0.741068
0.798067
1.72013
1.32214
0.487861
0.444256
0.408702
0.39628
0.440722
0.474849
0.479383
0.475766
0.46539
0.448427
0.424389
0.393137
0.354996
0.310925
0.262325
0.211002
0.15919
0.11081
0.077558
0.0811065
0.118831
0.16976
0.224195
0.279078
0.332745
0.383786
0.431102
0.474029
0.512642
0.547808
0.580884
0.613054
0.644219
0.673321
0.696976
0.71785
0.733844
0.785149
1.72828
)
;

boundaryField
{
    inlet
    {
        type            calculated;
        value           uniform 0;
    }
    outlet
    {
        type            calculated;
        value           nonuniform List<scalar> 
165
(
1.32214
1.66748
1.71111
1.70358
1.71405
1.73193
1.74305
1.74073
1.74926
1.75066
1.76151
1.76406
1.77382
1.77493
1.78135
1.78061
1.7754
1.72583
1.70852
2.34096
2.34096
1.68683
1.65791
1.7154
1.73004
1.73842
1.7402
1.74538
1.7431
1.74508
1.73994
1.73946
1.73422
1.73499
1.73201
1.73253
1.72865
1.7292
1.72041
1.74094
1.74097
1.72037
1.72927
1.7287
1.73276
1.73217
1.73558
1.73447
1.7402
1.74044
1.74619
1.74447
1.74756
1.74295
1.74259
1.73534
1.72157
1.66121
1.67963
2.34432
1.72828
1.72013
1.72325
1.72231
1.72612
1.72618
1.73179
1.73317
1.7402
1.7407
1.74625
1.74454
1.7476
1.74333
1.74308
1.7362
1.72206
1.66256
1.68364
2.34432
1.71639
1.7178
1.71978
1.7178
1.71639
2.34432
1.68364
1.66256
1.72206
1.7362
1.74308
1.74333
1.7476
1.74454
1.74625
1.7407
1.7402
1.73317
1.73179
1.72618
1.72612
1.72231
1.72325
1.72013
1.72828
2.34096
1.68683
1.65791
1.7154
1.73004
1.73842
1.7402
1.74538
1.7431
1.74508
1.73994
1.73946
1.73422
1.73499
1.73201
1.73253
1.72865
1.7292
1.72041
1.74094
1.74097
1.72037
1.72927
1.7287
1.73276
1.73217
1.73558
1.73447
1.7402
1.74044
1.74619
1.74447
1.74756
1.74295
1.74259
1.73534
1.72157
1.66121
1.67963
2.34432
2.34096
1.70852
1.72583
1.7754
1.78061
1.78135
1.77493
1.77382
1.76406
1.76151
1.75066
1.74926
1.74073
1.74305
1.73193
1.71405
1.70358
1.71111
1.66748
1.32214
)
;
    }
    obstacle
    {
        type            calculated;
        value           nonuniform List<scalar> 
40
(
0.541258
0.0885995
0.0958826
0.0994672
0.102753
0.105493
0.106934
0.106876
0.1024
0.0853351
0.541258
0.0885995
0.0958826
0.0994672
0.102753
0.105493
0.106934
0.106876
0.1024
0.0853351
0.0923849
0.114523
0.135094
0.174627
0.303183
0.0923849
0.114523
0.135094
0.174627
0.303183
0.360678
0.281276
0.225833
0.188343
0.208304
0.360678
0.281276
0.225833
0.188343
0.208304
)
;
    }
    empty
    {
        type            empty;
    }
}


// ************************************************************************* //
