/*--------------------------------*- C++ -*----------------------------------*\
| =========                 |                                                 |
| \\      /  F ield         | OpenFOAM: The Open Source CFD Toolbox           |
|  \\    /   O peration     | Version:  v1912                                 |
|   \\  /    A nd           | Website:  www.openfoam.com                      |
|    \\/     M anipulation  |                                                 |
\*---------------------------------------------------------------------------*/
FoamFile
{
    version     2.0;
    format      ascii;
    class       volScalarField;
    location    "4.52";
    object      p;
}
// * * * * * * * * * * * * * * * * * * * * * * * * * * * * * * * * * * * * * //

dimensions      [1 -1 -2 0 0 0 0];


internalField   nonuniform List<scalar> 
1900
(
34039.2
12622.1
10831.9
10745.9
10604.9
10456
10293.3
10110.6
9925.51
9719.44
34039.1
12622.1
10831.9
10745.8
10605.2
10457.2
10296.3
10114.8
9912.11
9684.51
34039.1
12622.1
10832
10745.8
10605.1
10456.9
10295.4
10111.5
9903.6
9674.55
34039.1
12622.1
10831.9
10745.8
10605.2
10457.2
10296.3
10114.8
9912.11
9684.51
34039.2
12622.1
10831.9
10745.9
10604.9
10456
10293.3
10110.6
9925.51
9719.44
9634.94
9458.19
9284.06
9047.16
9039.57
9500.61
9322.91
9149.19
8924.94
8636.54
9495.74
9318.94
9131.34
8914.36
8684.24
9500.61
9322.91
9149.19
8924.94
8636.54
9634.94
9458.19
9284.06
9047.16
9039.57
6932.92
6309.88
5676.7
5047.66
4404.61
7156.79
6408.11
5731.49
5092.17
4432.39
7165.74
6378.67
5711.77
5081.64
4415.49
7156.79
6408.11
5731.49
5092.17
4432.39
6932.92
6309.88
5676.7
5047.66
4404.61
3339.35
2016.51
2264.09
2465.76
2329.18
2163.67
2026.55
1875.74
1728.47
1601.56
1516.43
1468.77
1437.65
1413.3
1392.89
1375.87
1361.87
1350.37
1340.99
1333.16
1326.87
1321.89
1317.87
1314.9
1312.84
1311.58
1311.01
1310.95
1311.15
1311.91
1312.87
1316.56
1321.36
1331.8
1341.62
1356.89
1370.3
1382.62
1607.12
6067.83
3320.13
2084.77
2290.31
2506.47
2356.31
2173.24
2030.81
1878.67
1729.29
1602.33
1516.58
1468.79
1437.68
1413.34
1392.92
1375.88
1361.87
1350.37
1340.99
1333.16
1326.87
1321.88
1317.86
1314.89
1312.82
1311.56
1310.99
1310.93
1311.12
1311.87
1312.83
1316.53
1321.33
1331.82
1341.68
1357.05
1370.45
1382.97
1607.22
6070.81
3338.87
2247.07
2440.24
2570.3
2376.86
2177.4
2032.62
1879.89
1729.76
1602.56
1516.66
1468.81
1437.7
1413.36
1392.94
1375.9
1361.88
1350.38
1340.99
1333.17
1326.87
1321.88
1317.86
1314.89
1312.82
1311.56
1310.99
1310.93
1311.12
1311.88
1312.84
1316.56
1321.4
1331.97
1341.96
1357.57
1371.3
1384.36
1608.6
6146.63
3320.13
2084.77
2290.31
2506.47
2356.31
2173.24
2030.81
1878.67
1729.29
1602.33
1516.58
1468.79
1437.68
1413.34
1392.92
1375.88
1361.87
1350.37
1340.99
1333.16
1326.87
1321.88
1317.86
1314.89
1312.82
1311.56
1310.99
1310.93
1311.12
1311.87
1312.83
1316.53
1321.33
1331.82
1341.68
1357.05
1370.45
1382.97
1607.22
6070.81
3339.35
2016.51
2264.09
2465.76
2329.18
2163.67
2026.55
1875.74
1728.47
1601.56
1516.43
1468.77
1437.65
1413.3
1392.89
1375.87
1361.87
1350.37
1340.99
1333.16
1326.87
1321.89
1317.87
1314.9
1312.84
1311.58
1311.01
1310.95
1311.15
1311.91
1312.87
1316.56
1321.36
1331.8
1341.62
1356.89
1370.3
1382.62
1607.12
6067.83
3103.27
1780.77
2022.87
2292.45
2252.09
2131.43
2008.14
1863
1719.63
1596.52
1515.13
1468.17
1437.08
1412.78
1392.47
1375.56
1361.64
1350.19
1340.84
1333.04
1326.77
1321.79
1317.78
1314.82
1312.75
1311.49
1310.9
1310.84
1311.02
1311.79
1312.75
1316.42
1321.19
1331.42
1341.23
1356.18
1369.94
1381.47
1608.92
6339.14
3228.61
1526.65
1820.97
2064.68
2100.3
2047.15
1956.47
1828.69
1696.81
1585.52
1511.21
1466.48
1435.71
1411.59
1391.54
1374.88
1361.13
1349.8
1340.53
1332.77
1326.54
1321.6
1317.61
1314.66
1312.59
1311.32
1310.71
1310.64
1310.81
1311.63
1312.59
1316.24
1320.94
1330.76
1340.43
1354.77
1368.73
1379.05
1598.74
6000.75
3509.41
1456.39
1724.33
1906.5
1983.16
1960.45
1888.98
1783.24
1666.7
1569.62
1504.95
1463.33
1433.5
1409.83
1390.22
1373.92
1360.44
1349.28
1340.12
1332.44
1326.28
1321.39
1317.44
1314.5
1312.43
1311.14
1310.49
1310.4
1310.55
1311.43
1312.39
1315.99
1320.54
1329.78
1339.24
1352.71
1366.68
1375.49
1587.62
5914.73
3744.03
1447.64
1657.31
1802.49
1890.01
1878.74
1820.42
1733.12
1632.67
1552.53
1496.77
1458.95
1430.52
1407.61
1388.62
1372.8
1359.65
1348.71
1339.7
1332.14
1326.08
1321.27
1317.36
1314.44
1312.36
1311.02
1310.31
1310.21
1310.32
1311.3
1312.27
1315.8
1320.15
1328.72
1337.91
1350.48
1364.14
1372.48
1583.09
5818.27
3984.41
1443.07
1626.27
1733.05
1814.65
1802.41
1753.52
1681.57
1599.59
1534.6
1487.73
1453.63
1426.95
1405.09
1386.87
1371.62
1358.86
1348.18
1339.37
1331.96
1326.02
1321.3
1317.44
1314.54
1312.44
1311.05
1310.27
1310.15
1310.22
1311.29
1312.27
1315.69
1319.8
1327.57
1336.38
1348.01
1360.99
1369.48
1575.16
5722.39
4186.3
1435.6
1591.41
1677.98
1750.41
1734.44
1693.41
1634.76
1570.36
1518.15
1478.63
1448.01
1423.15
1402.48
1385.12
1370.46
1358.11
1347.74
1339.16
1331.92
1326.13
1321.52
1317.72
1314.85
1312.72
1311.29
1310.45
1310.37
1310.45
1311.68
1312.75
1316.12
1320.08
1327.19
1335.74
1346.72
1359.25
1368.64
1571.25
5594.35
4565.48
1428.35
1563.5
1632.44
1690.73
1672.78
1639.16
1593.3
1543.87
1502.58
1469.27
1441.98
1419.09
1399.73
1383.27
1369.25
1357.35
1347.31
1338.99
1331.97
1326.36
1321.88
1318.16
1315.31
1313.15
1311.67
1310.76
1310.71
1310.77
1312.13
1313.19
1316.37
1320.01
1326.33
1334.42
1344.7
1356.48
1367.42
1564.37
5480.24
4394.53
1412.9
1533.78
1587.65
1634.69
1619.36
1594.25
1560.31
1522.98
1490.14
1461.57
1436.97
1415.73
1397.44
1381.69
1368.16
1356.63
1346.89
1338.85
1332.06
1326.65
1322.33
1318.72
1315.95
1313.84
1312.41
1311.57
1311.75
1311.99
1313.69
1314.96
1318.14
1321.58
1327.19
1334.76
1344.49
1355.77
1367.62
1556.04
5330.65
4363.32
1398.96
1507.38
1549.74
1584.85
1574.8
1556.88
1532.4
1504.23
1477.98
1453.44
1431.44
1411.89
1394.7
1379.69
1366.68
1355.57
1346.19
1338.47
1331.94
1326.76
1322.64
1319.15
1316.47
1314.38
1313
1312.18
1312.54
1312.91
1314.82
1316.11
1319.11
1322.15
1326.93
1333.6
1342.74
1353.22
1366.44
1545.77
5198.25
4272.52
1384.98
1481.7
1514.42
1540.43
1537.23
1526.17
1509.94
1489.18
1468.29
1447.16
1427.5
1409.39
1393.09
1378.61
1365.98
1355.16
1346.05
1338.59
1332.28
1327.33
1323.45
1320.17
1317.67
1315.74
1314.57
1313.88
1314.54
1315.09
1317.24
1318.55
1321.32
1323.85
1327.83
1333.59
1342.4
1352.56
1366.5
1527.38
5015.54
4172.81
1372.54
1459.91
1485.09
1505.01
1507.26
1500.83
1490.81
1475.34
1458.68
1440.48
1423.07
1406.38
1391.11
1377.28
1365.12
1354.66
1345.87
1338.7
1332.66
1327.97
1324.31
1321.19
1318.81
1316.96
1315.88
1315.19
1315.99
1316.54
1318.73
1319.79
1322.08
1323.74
1326.47
1330.68
1339.12
1349.04
1364.21
1505.51
4835.25
4045.71
1358.42
1438.1
1457.98
1475.49
1481.39
1480.28
1475.16
1464.07
1451.12
1435.57
1420.45
1405.25
1391.11
1378.06
1366.55
1356.65
1348.35
1341.63
1335.94
1331.56
1328.14
1325.14
1322.8
1320.88
1319.72
1318.82
1319.57
1319.89
1321.83
1322.41
1324.1
1324.65
1326.06
1328.27
1335.84
1345.34
1359.13
1464.59
4609.76
3888.9
1344.05
1418.22
1435.48
1453.93
1460.9
1464.44
1461.92
1454.27
1444.83
1431.94
1419.18
1405.19
1392.03
1379.77
1368.99
1359.71
1351.98
1345.74
1340.39
1336.28
1333.07
1330.16
1327.82
1325.77
1324.47
1323.29
1323.94
1323.96
1325.51
1325.23
1325.92
1324.69
1323.83
1323.47
1329.71
1339.56
1352.13
1422.81
4366.58
3712.62
1330.93
1398.86
1413.26
1432.85
1441.17
1450.03
1450.89
1446.86
1440.78
1430.34
1419.83
1407.29
1395.65
1384.65
1375.11
1367.01
1360.36
1355.05
1350.31
1346.52
1343.33
1340.12
1337.33
1334.68
1332.76
1330.77
1330.85
1330.12
1330.83
1329.29
1328.87
1325.82
1322.73
1319.77
1323.49
1332.38
1341.02
1377.43
4091.12
3503.46
1316.86
1382.98
1399.28
1419.33
1428.98
1441.69
1445.34
1443.63
1440.31
1432.33
1423.79
1412.01
1401.26
1390.86
1382.04
1374.65
1368.69
1363.97
1359.66
1356.23
1353.31
1350.2
1347.39
1344.57
1342.52
1340.16
1340.02
1338.76
1338.92
1336.09
1334.15
1328.75
1322.78
1316.65
1318.68
1327.47
1333.81
1345.51
3799.72
3275.87
1311.71
1374.6
1394.07
1410.75
1423.36
1439.3
1444.44
1445.32
1444.12
1436.81
1429.45
1418.44
1409.08
1399.96
1392.53
1386.51
1381.84
1378.22
1374.54
1371.29
1368.16
1364.46
1360.91
1357.26
1354.59
1351.5
1350.9
1349.1
1349.03
1345.77
1343.4
1337.37
1330.12
1322.32
1321.74
1329.41
1334.82
1331.09
3490.93
3138.51
1324.83
1385.68
1406.34
1418.22
1433.08
1447.72
1450.79
1456.79
1454.04
1447.5
1440.23
1429.02
1420.07
1411.41
1404.9
1399.73
1395.59
1392.27
1388.9
1386.23
1383.64
1380.04
1376.23
1371.87
1368.69
1364.81
1363.79
1361.22
1360.9
1357.23
1354.21
1347.85
1339.13
1331.16
1330.04
1338.12
1346.54
1338.82
3290.84
2962.48
1349.95
1405.61
1419.77
1428.15
1445.3
1457.98
1464.6
1474.04
1467.86
1460.84
1451.07
1438.7
1428.78
1419.33
1413.2
1408.97
1406.34
1404.64
1402.07
1399.17
1395.76
1391.25
1387.2
1382.96
1380.7
1378.14
1377.81
1376.37
1376.51
1374.23
1370.25
1364.03
1352.14
1341.7
1338.5
1346.71
1357.59
1355.6
3018.17
5482.26
1560.92
1469.54
1461.89
1475.67
1516.75
1561.34
1610.02
1649.59
1669.01
1680.3
1680.79
1676.9
1670.06
1663.11
1656.27
1651.8
1644.16
1641.43
1633.9
1630.97
1632.92
1629.08
1631.18
1625.26
1623.27
1616.84
1609.95
1601.51
1586.14
1569.97
1535.18
1498.43
1443.21
1398.75
1368.08
1361.93
1372.28
1514.17
5313.42
47481.6
5809.02
3540.08
3834.85
4053.77
4367.08
4622.21
4880.05
5085.53
5266.5
5426.3
5552.14
5667.81
5770.67
5865.29
5947.71
6024.18
6093.52
6115.85
6128.73
6122.55
6087.92
6065.38
5953.38
5869.74
5730.3
5609.25
5446.9
5298.99
5095.07
4901.62
4655.11
4403.02
4117.29
3824.29
3507.41
3304.66
3017.12
5180.37
43140
47481.6
5809.02
3540.08
3834.85
4053.77
4367.08
4622.21
4880.05
5085.53
5266.5
5426.3
5552.14
5667.81
5770.67
5865.29
5947.71
6024.18
6093.52
6115.85
6128.73
6122.55
6087.92
6065.38
5953.38
5869.74
5730.3
5609.25
5446.9
5298.99
5095.07
4901.62
4655.11
4403.02
4117.29
3824.29
3507.41
3304.66
3017.12
5180.37
43140
5482.26
1560.92
1469.54
1461.89
1475.67
1516.75
1561.34
1610.02
1649.59
1669.01
1680.3
1680.79
1676.9
1670.06
1663.11
1656.27
1651.8
1644.16
1641.43
1633.9
1630.97
1632.92
1629.08
1631.18
1625.26
1623.27
1616.84
1609.95
1601.51
1586.14
1569.97
1535.18
1498.43
1443.21
1398.75
1368.08
1361.93
1372.28
1514.17
5313.42
2962.48
1349.95
1405.61
1419.77
1428.15
1445.3
1457.98
1464.6
1474.04
1467.86
1460.84
1451.07
1438.7
1428.78
1419.33
1413.2
1408.97
1406.34
1404.64
1402.07
1399.17
1395.76
1391.25
1387.2
1382.96
1380.7
1378.14
1377.81
1376.37
1376.51
1374.23
1370.25
1364.03
1352.14
1341.7
1338.5
1346.71
1357.59
1355.6
3018.17
3138.51
1324.83
1385.68
1406.34
1418.22
1433.08
1447.72
1450.79
1456.79
1454.04
1447.5
1440.23
1429.02
1420.07
1411.41
1404.9
1399.73
1395.59
1392.27
1388.9
1386.23
1383.64
1380.04
1376.23
1371.87
1368.69
1364.81
1363.79
1361.22
1360.9
1357.23
1354.21
1347.85
1339.13
1331.16
1330.04
1338.12
1346.54
1338.82
3290.84
3275.87
1311.71
1374.6
1394.07
1410.75
1423.36
1439.3
1444.44
1445.32
1444.12
1436.81
1429.45
1418.44
1409.08
1399.96
1392.53
1386.51
1381.84
1378.22
1374.54
1371.29
1368.16
1364.46
1360.91
1357.26
1354.59
1351.5
1350.9
1349.1
1349.03
1345.77
1343.4
1337.37
1330.12
1322.32
1321.74
1329.41
1334.82
1331.09
3490.93
3503.46
1316.86
1382.98
1399.28
1419.33
1428.98
1441.69
1445.34
1443.63
1440.31
1432.33
1423.79
1412.01
1401.26
1390.86
1382.04
1374.65
1368.69
1363.97
1359.66
1356.23
1353.31
1350.2
1347.39
1344.57
1342.52
1340.16
1340.02
1338.76
1338.92
1336.09
1334.15
1328.75
1322.78
1316.65
1318.68
1327.47
1333.81
1345.51
3799.72
3712.62
1330.93
1398.86
1413.26
1432.85
1441.17
1450.03
1450.89
1446.86
1440.78
1430.34
1419.83
1407.29
1395.65
1384.65
1375.11
1367.01
1360.36
1355.05
1350.31
1346.52
1343.33
1340.12
1337.33
1334.68
1332.76
1330.77
1330.85
1330.12
1330.83
1329.29
1328.87
1325.82
1322.73
1319.77
1323.49
1332.38
1341.02
1377.43
4091.12
3888.9
1344.05
1418.22
1435.48
1453.93
1460.9
1464.44
1461.92
1454.27
1444.83
1431.94
1419.18
1405.19
1392.03
1379.77
1368.99
1359.71
1351.98
1345.74
1340.39
1336.28
1333.07
1330.16
1327.82
1325.77
1324.47
1323.29
1323.94
1323.96
1325.51
1325.23
1325.92
1324.69
1323.83
1323.47
1329.71
1339.56
1352.13
1422.81
4366.58
4045.71
1358.42
1438.1
1457.98
1475.49
1481.39
1480.28
1475.16
1464.07
1451.12
1435.57
1420.45
1405.25
1391.11
1378.06
1366.55
1356.65
1348.35
1341.63
1335.94
1331.56
1328.14
1325.14
1322.8
1320.88
1319.72
1318.82
1319.57
1319.89
1321.83
1322.41
1324.1
1324.65
1326.06
1328.27
1335.84
1345.34
1359.13
1464.59
4609.76
4172.81
1372.54
1459.91
1485.09
1505.01
1507.26
1500.83
1490.81
1475.34
1458.68
1440.48
1423.07
1406.38
1391.11
1377.28
1365.12
1354.66
1345.87
1338.7
1332.66
1327.97
1324.31
1321.19
1318.81
1316.96
1315.88
1315.19
1315.99
1316.54
1318.73
1319.79
1322.08
1323.74
1326.47
1330.68
1339.12
1349.04
1364.21
1505.51
4835.25
4272.52
1384.98
1481.7
1514.42
1540.43
1537.23
1526.17
1509.94
1489.18
1468.29
1447.16
1427.5
1409.39
1393.09
1378.61
1365.98
1355.16
1346.05
1338.59
1332.28
1327.33
1323.45
1320.17
1317.67
1315.74
1314.57
1313.88
1314.54
1315.09
1317.24
1318.55
1321.32
1323.85
1327.83
1333.59
1342.4
1352.56
1366.5
1527.38
5015.54
4363.32
1398.96
1507.38
1549.74
1584.85
1574.8
1556.88
1532.4
1504.23
1477.98
1453.44
1431.44
1411.89
1394.7
1379.69
1366.68
1355.57
1346.19
1338.47
1331.94
1326.76
1322.64
1319.15
1316.47
1314.38
1313
1312.18
1312.54
1312.91
1314.82
1316.11
1319.11
1322.15
1326.93
1333.6
1342.74
1353.22
1366.44
1545.77
5198.25
4394.53
1412.9
1533.78
1587.65
1634.69
1619.36
1594.25
1560.31
1522.98
1490.14
1461.57
1436.97
1415.73
1397.44
1381.69
1368.16
1356.63
1346.89
1338.85
1332.06
1326.65
1322.33
1318.72
1315.95
1313.84
1312.41
1311.57
1311.75
1311.99
1313.69
1314.96
1318.14
1321.58
1327.19
1334.76
1344.49
1355.77
1367.62
1556.04
5330.65
4565.48
1428.35
1563.5
1632.44
1690.73
1672.78
1639.16
1593.3
1543.87
1502.58
1469.27
1441.98
1419.09
1399.73
1383.27
1369.25
1357.35
1347.31
1338.99
1331.97
1326.36
1321.88
1318.16
1315.31
1313.15
1311.67
1310.76
1310.71
1310.77
1312.13
1313.19
1316.37
1320.01
1326.33
1334.42
1344.7
1356.48
1367.42
1564.37
5480.24
4186.3
1435.6
1591.41
1677.98
1750.41
1734.44
1693.41
1634.76
1570.36
1518.15
1478.63
1448.01
1423.15
1402.48
1385.12
1370.46
1358.11
1347.74
1339.16
1331.92
1326.13
1321.52
1317.72
1314.85
1312.72
1311.29
1310.45
1310.37
1310.45
1311.68
1312.75
1316.12
1320.08
1327.19
1335.74
1346.72
1359.25
1368.64
1571.25
5594.35
3984.41
1443.07
1626.27
1733.05
1814.65
1802.41
1753.52
1681.57
1599.59
1534.6
1487.73
1453.63
1426.95
1405.09
1386.87
1371.62
1358.86
1348.18
1339.37
1331.96
1326.02
1321.3
1317.44
1314.54
1312.44
1311.05
1310.27
1310.15
1310.22
1311.29
1312.27
1315.69
1319.8
1327.57
1336.38
1348.01
1360.99
1369.48
1575.16
5722.39
3744.03
1447.64
1657.31
1802.49
1890.01
1878.74
1820.42
1733.12
1632.67
1552.53
1496.77
1458.95
1430.52
1407.61
1388.62
1372.8
1359.65
1348.71
1339.7
1332.14
1326.08
1321.27
1317.36
1314.44
1312.36
1311.02
1310.31
1310.21
1310.32
1311.3
1312.27
1315.8
1320.15
1328.72
1337.91
1350.48
1364.14
1372.48
1583.09
5818.27
3509.41
1456.39
1724.33
1906.5
1983.16
1960.45
1888.98
1783.24
1666.7
1569.62
1504.95
1463.33
1433.5
1409.83
1390.22
1373.92
1360.44
1349.28
1340.12
1332.44
1326.28
1321.39
1317.44
1314.5
1312.43
1311.14
1310.49
1310.4
1310.55
1311.43
1312.39
1315.99
1320.54
1329.78
1339.24
1352.71
1366.68
1375.49
1587.62
5914.73
3228.61
1526.65
1820.97
2064.68
2100.3
2047.15
1956.47
1828.69
1696.81
1585.52
1511.21
1466.48
1435.71
1411.59
1391.54
1374.88
1361.13
1349.8
1340.53
1332.77
1326.54
1321.6
1317.61
1314.66
1312.59
1311.32
1310.71
1310.64
1310.81
1311.63
1312.59
1316.24
1320.94
1330.76
1340.43
1354.77
1368.73
1379.05
1598.74
6000.75
3103.27
1780.77
2022.87
2292.45
2252.09
2131.43
2008.14
1863
1719.63
1596.52
1515.13
1468.17
1437.08
1412.78
1392.47
1375.56
1361.64
1350.19
1340.84
1333.04
1326.77
1321.79
1317.78
1314.82
1312.75
1311.49
1310.9
1310.84
1311.02
1311.79
1312.75
1316.42
1321.19
1331.42
1341.23
1356.18
1369.94
1381.47
1608.92
6339.14
)
;

boundaryField
{
    inlet
    {
        type            fixedValue;
        value           uniform 10000;
    }
    outlet
    {
        type            fixedValue;
        value           uniform 1000;
    }
    obstacle
    {
        type            zeroGradient;
    }
    empty
    {
        type            empty;
    }
}


// ************************************************************************* //
