/*--------------------------------*- C++ -*----------------------------------*\
| =========                 |                                                 |
| \\      /  F ield         | OpenFOAM: The Open Source CFD Toolbox           |
|  \\    /   O peration     | Version:  v1912                                 |
|   \\  /    A nd           | Website:  www.openfoam.com                      |
|    \\/     M anipulation  |                                                 |
\*---------------------------------------------------------------------------*/
FoamFile
{
    version     2.0;
    format      ascii;
    class       volTensorField;
    location    "3.86";
    object      grad(U);
}
// * * * * * * * * * * * * * * * * * * * * * * * * * * * * * * * * * * * * * //

dimensions      [0 0 -1 0 0 0 0];


internalField   nonuniform List<tensor> 
1900
(
(-4.09226 3.20233e-05 0 -2.14704e-05 2.66254e-05 0 0 0 0)
(3.08316 6.26029e-05 0 -9.00814e-05 5.56948e-05 0 0 0 0)
(0.0439011 8.56943e-05 0 -0.000109457 5.78122e-05 0 0 0 0)
(-0.00638614 0.000687707 0 -0.000100481 0.000135135 0 0 0 0)
(0.0422262 0.00151415 0 0.000260038 0.00131828 0 0 0 0)
(0.0731784 0.00257121 0 0.00168412 0.00311762 0 0 0 0)
(0.0859451 0.0041213 0 0.00478854 0.00667433 0 0 0 0)
(0.0950284 -0.0181441 0 0.0107825 0.0113838 0 0 0 0)
(0.134766 -0.0504479 0 0.0132761 -0.024511 0 0 0 0)
(0.131082 -0.114246 0 -0.0140072 -0.0694642 0 0 0 0)
(-4.09238 5.02969e-05 0 -3.17673e-05 -8.12611e-06 0 0 0 0)
(3.08308 -3.14161e-05 0 -0.000130248 -2.38972e-05 0 0 0 0)
(0.0438907 -6.25419e-06 0 -0.000108563 -7.0729e-05 0 0 0 0)
(-0.00601664 0.000572756 0 1.51332e-05 -0.000109592 0 0 0 0)
(0.0440108 0.00146834 0 0.000840572 -0.000758436 0 0 0 0)
(0.0777069 0.00278484 0 0.00336016 -0.00162374 0 0 0 0)
(0.0950435 0.00414488 0 0.00803428 -0.00332965 0 0 0 0)
(0.103516 -0.0130413 0 0.0149486 -0.00574504 0 0 0 0)
(0.109977 -0.0304001 0 0.0106083 0.0148144 0 0 0 0)
(0.0720238 -0.062571 0 -0.0343508 0.0447029 0 0 0 0)
(-4.09243 6.48767e-16 0 -8.99888e-14 -3.69987e-05 0 0 0 0)
(3.08309 4.39134e-14 0 -2.49366e-13 -6.35951e-05 0 0 0 0)
(0.0440465 -1.02427e-13 0 1.61004e-13 2.58336e-05 0 0 0 0)
(-0.005437 3.55274e-14 0 4.21484e-14 -5.10867e-05 0 0 0 0)
(0.0455713 3.19327e-14 0 -4.09286e-14 -0.00111968 0 0 0 0)
(0.0803721 3.48667e-15 0 -8.32125e-14 -0.00298776 0 0 0 0)
(0.0975335 -1.00456e-14 0 -9.51387e-14 -0.00668935 0 0 0 0)
(0.0976024 -1.19559e-13 0 -6.22061e-14 -0.0112775 0 0 0 0)
(0.0854669 -9.77643e-14 0 -2.11419e-14 0.0193932 0 0 0 0)
(0.0531085 7.77557e-14 0 4.1674e-14 0.0495227 0 0 0 0)
(-4.09238 -5.02969e-05 0 3.17673e-05 -8.12611e-06 0 0 0 0)
(3.08308 3.14161e-05 0 0.000130248 -2.38972e-05 0 0 0 0)
(0.0438907 6.25419e-06 0 0.000108563 -7.0729e-05 0 0 0 0)
(-0.00601664 -0.000572756 0 -1.51332e-05 -0.000109592 0 0 0 0)
(0.0440108 -0.00146834 0 -0.000840572 -0.000758436 0 0 0 0)
(0.0777069 -0.00278484 0 -0.00336016 -0.00162374 0 0 0 0)
(0.0950435 -0.00414488 0 -0.00803428 -0.00332965 0 0 0 0)
(0.103516 0.0130413 0 -0.0149486 -0.00574504 0 0 0 0)
(0.109977 0.0304001 0 -0.0106083 0.0148144 0 0 0 0)
(0.0720238 0.062571 0 0.0343508 0.0447029 0 0 0 0)
(-4.09226 -3.20233e-05 0 2.14704e-05 2.66254e-05 0 0 0 0)
(3.08316 -6.26029e-05 0 9.00814e-05 5.56948e-05 0 0 0 0)
(0.0439011 -8.56943e-05 0 0.000109457 5.78122e-05 0 0 0 0)
(-0.00638614 -0.000687707 0 0.000100481 0.000135135 0 0 0 0)
(0.0422262 -0.00151415 0 -0.000260038 0.00131828 0 0 0 0)
(0.0731784 -0.00257121 0 -0.00168412 0.00311762 0 0 0 0)
(0.0859451 -0.0041213 0 -0.00478854 0.00667433 0 0 0 0)
(0.0950284 0.0181441 0 -0.0107825 0.0113838 0 0 0 0)
(0.134766 0.0504479 0 -0.0132761 -0.024511 0 0 0 0)
(0.131082 0.114246 0 0.0140072 -0.0694642 0 0 0 0)
(0.0513552 -0.149696 2.93076e-18 -0.0587738 0.0777007 -4.39614e-18 -3.0824e-17 -3.11097e-17 7.94384e-34)
(-0.00317097 -0.0896311 0 -0.0639536 0.0903711 0 5.36988e-17 2.3782e-17 0)
(0.00232525 -0.101749 0 -0.0948594 0.0750495 0 7.18435e-17 3.54012e-17 0)
(-0.317701 -0.0574804 0 -0.252955 0.0500682 0 0 0 0)
(-0.134591 -0.374027 -9.21442e-17 -0.997423 0.930219 1.38216e-16 5.31057e-16 3.54038e-16 2.49757e-32)
(0.0124325 -0.0986441 0 -0.0657336 0.121148 0 -4.14444e-17 -1.70692e-17 0)
(-0.0352825 -0.0938795 0 -0.0842373 0.165998 0 -5.36988e-17 -2.3782e-17 0)
(-0.128983 -0.134294 0 -0.175644 0.233381 0 -7.18435e-17 -3.54012e-17 0)
(-0.416108 -0.129303 0 -0.455936 0.387803 0 0 0 0)
(-0.360373 0.0355814 0 -0.661813 0.597182 0 0 0 0)
(-0.0107116 7.59337e-14 0 9.5015e-14 0.13555 0 0 0 0)
(-0.0938151 1.89856e-13 0 1.68366e-13 0.194444 0 0 0 0)
(-0.233921 3.26137e-14 0 4.68503e-13 0.316881 0 0 0 0)
(-0.519864 -1.45552e-13 0 2.19459e-13 0.565975 0 0 0 0)
(-0.457782 6.28167e-14 0 2.71051e-13 0.863711 0 0 0 0)
(0.0124325 0.0986441 0 0.0657336 0.121148 0 -4.14444e-17 1.70692e-17 0)
(-0.0352825 0.0938795 0 0.0842373 0.165998 0 -5.36988e-17 2.3782e-17 0)
(-0.128983 0.134294 0 0.175644 0.233381 0 -7.18435e-17 3.54012e-17 0)
(-0.416108 0.129303 0 0.455936 0.387803 0 0 0 0)
(-0.360373 -0.0355814 0 0.661813 0.597182 0 0 0 0)
(0.0513552 0.149696 -2.93076e-18 0.0587738 0.0777007 -4.39614e-18 1.13713e-16 -6.52482e-17 7.94384e-34)
(-0.00317097 0.0896311 0 0.0639536 0.0903711 0 5.36988e-17 -2.3782e-17 0)
(0.00232525 0.101749 0 0.0948594 0.0750495 0 7.18435e-17 -3.54012e-17 0)
(-0.317701 0.0574804 6.59525e-18 0.252955 0.0500682 9.89288e-18 1.95389e-16 -1.30259e-16 -1.78765e-33)
(-0.134591 0.374027 9.21442e-17 0.997423 0.930219 1.38216e-16 -5.31057e-16 3.54038e-16 2.49757e-32)
(0.12594 0.197023 1.27068e-18 -0.161112 -0.367604 1.14361e-17 -3.61202e-16 2.85234e-17 -3.44419e-34)
(0.475078 -0.00539837 -1.54227e-19 -0.146111 -0.0771215 -1.38805e-18 1.73031e-16 -1.64141e-17 -4.18034e-35)
(0.319365 0.0828223 0 -0.0591706 0.0175467 0 0 0 0)
(0.135995 0.244474 -1.83272e-18 0.357141 0.488498 -1.64945e-17 -1.88713e-17 1.80039e-17 4.96761e-34)
(-0.553511 0.0852935 3.27642e-18 1.43442 1.19723 2.94877e-17 2.01708e-17 -2.2412e-18 8.88074e-34)
(0.246457 0.171636 0 -0.220539 -0.138811 0 1.83027e-16 -8.72616e-18 0)
(0.482569 -0.018849 0 -0.222312 -0.13249 0 -8.87156e-17 7.04571e-18 0)
(0.476161 0.0612432 0 -0.0764448 -0.108174 0 0 0 0)
(0.727441 0.288871 0 0.490259 -0.301169 0 1.38084e-18 -1.81799e-17 0)
(1.22947 0.212315 0 1.97843 -0.526766 0 2.06533e-17 5.60832e-18 0)
(0.284831 2.2262e-13 0 4.84606e-13 -0.301868 0 0 0 0)
(0.512367 1.60497e-13 0 1.16297e-12 -0.202914 0 0 0 0)
(0.579598 9.82664e-14 0 2.99762e-12 -0.134031 0 0 0 0)
(0.996123 -3.30695e-13 0 3.82466e-12 -0.483963 0 5.35366e-18 2.15991e-29 0)
(1.60987 -7.20268e-13 0 3.27321e-12 -1.48975 0 -4.13065e-17 2.27812e-30 0)
(0.246457 -0.171636 0 0.220539 -0.138811 0 1.83027e-16 8.72616e-18 0)
(0.482569 0.018849 0 0.222312 -0.13249 0 -8.87156e-17 -7.04571e-18 0)
(0.476161 -0.0612432 0 0.0764448 -0.108174 0 0 0 0)
(0.727441 -0.288871 0 -0.490259 -0.301169 0 1.38084e-18 1.81799e-17 0)
(1.22947 -0.212315 0 -1.97843 -0.526766 0 2.06533e-17 -5.60832e-18 0)
(0.12594 -0.197023 0 0.161112 -0.367604 0 -1.83027e-16 -8.72616e-18 0)
(0.475078 0.00539837 1.54227e-19 0.146111 -0.0771215 -1.38805e-18 4.40039e-18 -2.32265e-18 -4.18034e-35)
(0.319365 -0.0828223 0 0.0591706 0.0175467 0 0 0 0)
(0.135995 -0.244474 1.83272e-18 -0.357141 0.488498 -1.64945e-17 1.07559e-17 -1.4712e-17 4.96761e-34)
(-0.553511 -0.0852935 -3.27642e-18 -1.43442 1.19723 2.94877e-17 -2.01708e-17 -2.2412e-18 8.88074e-34)
(0.48304 -0.723446 0 9.16193 0.343391 0 0 0 0)
(0.76103 -0.776493 0 5.95024 0.839134 0 0 0 0)
(-0.963038 -0.027747 0 3.76807 1.29952 0 0 0 0)
(-1.0361 0.448931 0 1.42468 1.24093 0 0 0 0)
(-0.646644 0.417525 0 0.318641 0.838192 0 0 0 0)
(-0.438401 0.168568 0 0.0761888 0.548804 0 0 0 0)
(-0.300021 0.0476996 0 0.044264 0.438253 0 0 0 0)
(-0.119785 0.0188838 0 0.0134386 0.395055 0 0 0 0)
(0.041518 0.0115887 0 0.00710026 0.371031 0 0 0 0)
(0.119557 0.00622394 0 0.00150769 0.35762 0 0 0 0)
(0.169754 0.00349064 0 -0.000321158 0.350346 0 0 0 0)
(0.208773 0.00209059 0 -0.0011674 0.346194 0 0 0 0)
(0.238189 0.0015677 0 -0.00179849 0.342987 0 0 0 0)
(0.260511 0.00110958 0 -0.00189302 0.340831 0 0 0 0)
(0.277054 0.00088035 0 -0.00171236 0.339126 0 0 0 0)
(0.289914 0.000734337 0 -0.00142104 0.337727 0 0 0 0)
(0.300083 0.000605356 0 -0.00109283 0.336536 0 0 0 0)
(0.308305 0.000557028 0 -0.000753078 0.335597 0 0 0 0)
(0.314266 -6.90299e-05 0 -0.0004004 0.33459 0 0 0 0)
(0.317857 -0.000209796 0 -2.08526e-05 0.335825 0 0 0 0)
(0.320961 0.000651785 0 0.000390611 0.335314 0 0 0 0)
(0.323424 0.000392073 0 0.000812091 0.333583 0 0 0 0)
(0.323845 -0.000156282 0 0.00121544 0.333966 0 0 0 0)
(0.322986 -0.000111794 0 0.00160308 0.334129 0 0 0 0)
(0.320944 -0.00013939 0 0.0019514 0.334365 0 0 0 0)
(0.316748 -0.000164745 0 0.00224736 0.334627 0 0 0 0)
(0.309831 -0.000196975 0 0.00246996 0.33495 0 0 0 0)
(0.299621 -0.000241552 0 0.0025929 0.335321 0 0 0 0)
(0.285953 -0.000240254 0 0.00259827 0.335802 0 0 0 0)
(0.268857 -0.000349715 0 0.00246323 0.336148 0 0 0 0)
(0.248255 -9.72601e-07 0 0.0021705 0.337069 0 0 0 0)
(0.223072 -0.0004045 0 0.00184786 0.336146 0 0 0 0)
(0.191676 0.000790654 0 0.000753375 0.338573 0 0 0 0)
(0.15612 -0.000415608 0 0.00029792 0.333731 0 0 0 0)
(0.120536 0.000581837 0 -0.00294768 0.339745 0 0 0 0)
(0.0970698 -0.000701123 0 -0.00530957 0.332384 0 0 0 0)
(0.0768101 -0.000772181 0 -0.00805028 0.342214 0 0 0 0)
(0.00188948 -0.0085542 0 -0.0145649 0.333633 0 0 0 0)
(2.2062 -0.0159747 0 -0.00281986 0.384336 0 0 0 0)
(2.2356 -0.00505433 0 -0.0416346 0.40643 0 0 0 0)
(1.40368 -0.54006 0 6.26905 -0.110287 0 0 0 0)
(-0.0211845 -0.692866 0 4.72786 1.90166 0 0 0 0)
(-1.77742 -0.00685505 0 3.24306 2.55891 0 0 0 0)
(-1.65781 0.33263 0 1.21466 1.99705 0 0 0 0)
(-0.887629 0.259876 0 0.145224 1.01571 0 0 0 0)
(-0.474261 0.0924446 0 -0.0414029 0.561805 0 0 0 0)
(-0.303191 0.0231974 0 -0.0350044 0.436257 0 0 0 0)
(-0.121413 0.00893135 0 -0.0389827 0.397837 0 0 0 0)
(0.0418182 0.00578592 0 -0.0302951 0.371344 0 0 0 0)
(0.119663 0.00292642 0 -0.0275716 0.358001 0 0 0 0)
(0.17029 0.00176482 0 -0.0246545 0.34995 0 0 0 0)
(0.209431 0.00102911 0 -0.0213846 0.346002 0 0 0 0)
(0.238902 0.000779061 0 -0.0184294 0.342763 0 0 0 0)
(0.261299 0.000553582 0 -0.0155715 0.340613 0 0 0 0)
(0.277879 0.000441106 0 -0.0128469 0.338949 0 0 0 0)
(0.290754 0.000368392 0 -0.0102581 0.337587 0 0 0 0)
(0.300927 0.000303194 0 -0.00779745 0.336425 0 0 0 0)
(0.309148 0.000278245 0 -0.00544687 0.335506 0 0 0 0)
(0.315107 -3.51322e-05 0 -0.00317888 0.33451 0 0 0 0)
(0.318698 -0.000106014 0 -0.000959059 0.335743 0 0 0 0)
(0.3218 0.000323741 0 0.00124522 0.335231 0 0 0 0)
(0.324255 0.000192984 0 0.00345335 0.333503 0 0 0 0)
(0.324663 -8.21526e-05 0 0.00568058 0.333883 0 0 0 0)
(0.323786 -6.10098e-05 0 0.00794962 0.33404 0 0 0 0)
(0.321722 -7.55745e-05 0 0.0102759 0.334268 0 0 0 0)
(0.317498 -8.84398e-05 0 0.0126853 0.334519 0 0 0 0)
(0.310548 -0.000103585 0 0.0152107 0.334834 0 0 0 0)
(0.3003 -0.000123097 0 0.0178959 0.335196 0 0 0 0)
(0.286585 -0.000117788 0 0.020797 0.335664 0 0 0 0)
(0.269426 -0.000162292 0 0.0239805 0.336022 0 0 0 0)
(0.248761 2.68983e-05 0 0.0275076 0.336866 0 0 0 0)
(0.223428 -0.000140824 0 0.0315475 0.336026 0 0 0 0)
(0.191935 0.000475304 0 0.0358914 0.338257 0 0 0 0)
(0.156079 -6.71885e-05 0 0.0409056 0.333308 0 0 0 0)
(0.120196 0.000440127 0 0.0462874 0.339686 0 0 0 0)
(0.0968335 -0.000170766 0 0.051275 0.331308 0 0 0 0)
(0.0761701 -0.000251108 0 0.0583509 0.342096 0 0 0 0)
(0.00283659 -0.00492234 0 0.0602954 0.333962 0 0 0 0)
(2.20213 0.000850071 0 0.0608641 0.371501 0 0 0 0)
(2.23003 0.00695519 0 0.0670292 0.388875 0 0 0 0)
(1.58906 -5.97706e-13 0 2.10138e-12 -1.41008 0 0 0 0)
(-0.119258 1.68985e-14 0 3.96227e-13 2.29652 0 0 0 0)
(-1.98506 1.00259e-12 0 -1.09997e-12 3.35337 0 0 0 0)
(-1.93729 -6.31963e-13 0 2.02228e-12 2.34365 0 0 0 0)
(-1.01204 -3.13113e-12 0 -2.56266e-13 1.06654 0 0 0 0)
(-0.490831 -4.34694e-12 0 -1.80086e-11 0.556998 0 0 0 0)
(-0.299317 -7.35944e-12 0 -5.21413e-11 0.430986 0 0 0 0)
(-0.118415 -9.94647e-12 0 -7.69192e-11 0.397515 0 0 0 0)
(0.0448376 2.12896e-12 0 -9.76058e-11 0.369583 0 0 0 0)
(0.121198 1.34584e-11 0 -8.79189e-11 0.357737 0 0 0 0)
(0.171554 7.97753e-12 0 -7.10438e-11 0.349463 0 0 0 0)
(0.210584 7.00534e-13 0 -4.63437e-11 0.345604 0 0 0 0)
(0.23988 -2.10552e-12 0 -4.31986e-11 0.342388 0 0 0 0)
(0.262135 5.20808e-12 0 -8.05533e-11 0.340248 0 0 0 0)
(0.2786 2.87691e-11 0 -1.47011e-10 0.338582 0 0 0 0)
(0.291383 4.99827e-11 0 -1.98989e-10 0.337215 0 0 0 0)
(0.301483 9.14554e-12 0 -1.89207e-10 0.33605 0 0 0 0)
(0.309649 -1.02989e-10 0 -1.21114e-10 0.335131 0 0 0 0)
(0.315572 -9.59938e-11 0 -4.35667e-11 0.334137 0 0 0 0)
(0.319144 5.99014e-11 0 1.15078e-11 0.335372 0 0 0 0)
(0.322245 1.22699e-10 0 5.00394e-11 0.334866 0 0 0 0)
(0.324714 -4.8038e-11 0 8.38759e-11 0.333147 0 0 0 0)
(0.325153 -1.94915e-10 0 7.76816e-11 0.333539 0 0 0 0)
(0.324323 -5.20444e-11 0 5.1613e-12 0.333712 0 0 0 0)
(0.322322 1.39755e-10 0 -6.36713e-11 0.333958 0 0 0 0)
(0.318184 1.50435e-10 0 -7.55196e-11 0.334231 0 0 0 0)
(0.311346 5.71905e-11 0 -9.01721e-11 0.334566 0 0 0 0)
(0.301246 -3.38303e-11 0 -1.99443e-10 0.334943 0 0 0 0)
(0.287723 -3.845e-11 0 -4.14806e-10 0.335413 0 0 0 0)
(0.270809 -2.40643e-11 0 -6.44199e-10 0.335753 0 0 0 0)
(0.250456 3.7206e-12 0 -7.73704e-10 0.336528 0 0 0 0)
(0.225511 1.03162e-11 0 -7.34182e-10 0.335568 0 0 0 0)
(0.194398 -3.46492e-11 0 -5.53511e-10 0.337497 0 0 0 0)
(0.159145 6.3144e-11 0 -3.55948e-10 0.3323 0 0 0 0)
(0.123553 -9.68756e-12 0 -7.03627e-11 0.337959 0 0 0 0)
(0.100579 -1.28292e-10 0 -2.01859e-12 0.329275 0 0 0 0)
(0.0794343 5.61202e-12 0 -1.31689e-10 0.339133 0 0 0 0)
(0.00262059 9.32039e-11 0 -2.25674e-10 0.331001 0 0 0 0)
(2.20816 2.87801e-11 0 -2.70577e-11 0.372974 0 0 0 0)
(2.23739 -2.19784e-11 0 2.70893e-11 0.325157 0 0 0 0)
(1.40368 0.54006 0 -6.26905 -0.110287 0 0 0 0)
(-0.0211845 0.692866 0 -4.72786 1.90166 0 0 0 0)
(-1.77742 0.00685505 0 -3.24306 2.55891 0 0 0 0)
(-1.65781 -0.33263 0 -1.21466 1.99705 0 0 0 0)
(-0.887629 -0.259876 0 -0.145224 1.01571 0 0 0 0)
(-0.474261 -0.0924446 0 0.0414029 0.561805 0 0 0 0)
(-0.303191 -0.0231974 0 0.0350044 0.436257 0 0 0 0)
(-0.121413 -0.00893135 0 0.0389827 0.397837 0 0 0 0)
(0.0418182 -0.00578592 0 0.0302951 0.371344 0 0 0 0)
(0.119663 -0.00292642 0 0.0275716 0.358001 0 0 0 0)
(0.17029 -0.00176482 0 0.0246545 0.34995 0 0 0 0)
(0.209431 -0.00102911 0 0.0213846 0.346002 0 0 0 0)
(0.238902 -0.000779061 0 0.0184294 0.342763 0 0 0 0)
(0.261299 -0.000553582 0 0.0155715 0.340613 0 0 0 0)
(0.277879 -0.000441106 0 0.0128469 0.338949 0 0 0 0)
(0.290754 -0.000368392 0 0.0102581 0.337587 0 0 0 0)
(0.300927 -0.000303194 0 0.00779744 0.336425 0 0 0 0)
(0.309148 -0.000278245 0 0.00544686 0.335506 0 0 0 0)
(0.315107 3.5132e-05 0 0.00317888 0.33451 0 0 0 0)
(0.318698 0.000106014 0 0.000959059 0.335743 0 0 0 0)
(0.3218 -0.000323741 0 -0.00124522 0.335231 0 0 0 0)
(0.324255 -0.000192984 0 -0.00345335 0.333503 0 0 0 0)
(0.324663 8.21522e-05 0 -0.00568058 0.333883 0 0 0 0)
(0.323786 6.10097e-05 0 -0.00794962 0.33404 0 0 0 0)
(0.321722 7.55748e-05 0 -0.0102759 0.334268 0 0 0 0)
(0.317498 8.84401e-05 0 -0.0126853 0.334519 0 0 0 0)
(0.310548 0.000103585 0 -0.0152107 0.334834 0 0 0 0)
(0.3003 0.000123097 0 -0.0178959 0.335196 0 0 0 0)
(0.286585 0.000117787 0 -0.020797 0.335664 0 0 0 0)
(0.269426 0.000162292 0 -0.0239805 0.336022 0 0 0 0)
(0.248761 -2.68983e-05 0 -0.0275076 0.336866 0 0 0 0)
(0.223428 0.000140824 0 -0.0315475 0.336026 0 0 0 0)
(0.191935 -0.000475304 0 -0.0358914 0.338257 0 0 0 0)
(0.156079 6.71887e-05 0 -0.0409056 0.333308 0 0 0 0)
(0.120196 -0.000440127 0 -0.0462874 0.339686 0 0 0 0)
(0.0968335 0.000170766 0 -0.051275 0.331308 0 0 0 0)
(0.0761701 0.000251108 0 -0.0583509 0.342096 0 0 0 0)
(0.00283659 0.00492234 0 -0.0602954 0.333962 0 0 0 0)
(2.20213 -0.000850071 0 -0.0608641 0.371501 0 0 0 0)
(2.23003 -0.00695519 0 -0.0670292 0.388875 0 0 0 0)
(0.48304 0.723446 0 -9.16193 0.343391 0 0 0 0)
(0.76103 0.776493 0 -5.95024 0.839134 0 0 0 0)
(-0.963038 0.027747 0 -3.76807 1.29952 0 0 0 0)
(-1.0361 -0.448931 0 -1.42468 1.24093 0 0 0 0)
(-0.646644 -0.417525 0 -0.318641 0.838192 0 0 0 0)
(-0.438401 -0.168568 0 -0.0761888 0.548804 0 0 0 0)
(-0.300021 -0.0476996 0 -0.044264 0.438253 0 0 0 0)
(-0.119785 -0.0188838 0 -0.0134386 0.395055 0 0 0 0)
(0.041518 -0.0115887 0 -0.00710026 0.371031 0 0 0 0)
(0.119557 -0.00622394 0 -0.00150769 0.35762 0 0 0 0)
(0.169754 -0.00349064 0 0.000321158 0.350346 0 0 0 0)
(0.208773 -0.00209059 0 0.0011674 0.346194 0 0 0 0)
(0.238189 -0.0015677 0 0.00179849 0.342987 0 0 0 0)
(0.260511 -0.00110958 0 0.00189302 0.340831 0 0 0 0)
(0.277054 -0.00088035 0 0.00171236 0.339126 0 0 0 0)
(0.289914 -0.000734337 0 0.00142104 0.337727 0 0 0 0)
(0.300083 -0.000605356 0 0.00109283 0.336536 0 0 0 0)
(0.308305 -0.000557028 0 0.000753078 0.335597 0 0 0 0)
(0.314266 6.90298e-05 0 0.0004004 0.33459 0 0 0 0)
(0.317857 0.000209796 0 2.08524e-05 0.335825 0 0 0 0)
(0.320961 -0.000651785 0 -0.000390611 0.335314 0 0 0 0)
(0.323424 -0.000392073 0 -0.000812092 0.333583 0 0 0 0)
(0.323845 0.000156281 0 -0.00121544 0.333966 0 0 0 0)
(0.322986 0.000111794 0 -0.00160308 0.334129 0 0 0 0)
(0.320944 0.000139391 0 -0.0019514 0.334365 0 0 0 0)
(0.316748 0.000164745 0 -0.00224736 0.334627 0 0 0 0)
(0.309831 0.000196975 0 -0.00246996 0.33495 0 0 0 0)
(0.299621 0.000241552 0 -0.0025929 0.335321 0 0 0 0)
(0.285953 0.000240254 0 -0.00259827 0.335802 0 0 0 0)
(0.268857 0.000349715 0 -0.00246323 0.336148 0 0 0 0)
(0.248255 9.72568e-07 0 -0.00217049 0.337069 0 0 0 0)
(0.223072 0.0004045 0 -0.00184785 0.336146 0 0 0 0)
(0.191676 -0.000790655 0 -0.000753373 0.338573 0 0 0 0)
(0.15612 0.000415608 0 -0.000297919 0.333731 0 0 0 0)
(0.120536 -0.000581837 0 0.00294768 0.339745 0 0 0 0)
(0.0970698 0.000701122 0 0.00530957 0.332384 0 0 0 0)
(0.0768101 0.000772181 0 0.00805028 0.342214 0 0 0 0)
(0.00188948 0.0085542 0 0.0145649 0.333633 0 0 0 0)
(2.2062 0.0159747 0 0.00281986 0.384336 0 0 0 0)
(2.2356 0.00505433 0 0.0416346 0.40643 0 0 0 0)
(2.26904 0.796743 0 -5.08087 0.0314738 0 0 0 0)
(2.4578 1.19593 0 -3.30283 0.513224 0 0 0 0)
(0.119707 0.234736 0 -2.26353 0.669392 0 0 0 0)
(-0.212925 -0.487536 0 -0.977212 0.642448 0 0 0 0)
(-0.320393 -0.511749 0 -0.446385 0.595219 0 0 0 0)
(-0.343615 -0.255299 0 -0.188852 0.502162 0 0 0 0)
(-0.267495 -0.0913092 0 -0.113376 0.427365 0 0 0 0)
(-0.0999836 -0.0395903 0 -0.0543414 0.386342 0 0 0 0)
(0.0496492 -0.0225586 0 -0.0314766 0.36584 0 0 0 0)
(0.124442 -0.012089 0 -0.0220513 0.355286 0 0 0 0)
(0.172588 -0.00693665 0 -0.0173316 0.349138 0 0 0 0)
(0.211119 -0.00441768 0 -0.0139252 0.344939 0 0 0 0)
(0.240182 -0.00323123 0 -0.0111268 0.341953 0 0 0 0)
(0.262156 -0.00233255 0 -0.00918468 0.339868 0 0 0 0)
(0.278538 -0.00188019 0 -0.00763861 0.338142 0 0 0 0)
(0.291338 -0.00156989 0 -0.00622991 0.336724 0 0 0 0)
(0.301484 -0.00129011 0 -0.00486507 0.335525 0 0 0 0)
(0.309688 -0.00117659 0 -0.00352388 0.334588 0 0 0 0)
(0.31562 0.000139482 0 -0.00222039 0.333597 0 0 0 0)
(0.319174 0.000440197 0 -0.000979398 0.334861 0 0 0 0)
(0.322247 -0.00135104 0 0.000187941 0.334368 0 0 0 0)
(0.324698 -0.000808202 0 0.00130434 0.332645 0 0 0 0)
(0.325113 0.000339099 0 0.00241077 0.333042 0 0 0 0)
(0.32425 0.000252464 0 0.00348129 0.333227 0 0 0 0)
(0.322216 0.000313673 0 0.00453595 0.333487 0 0 0 0)
(0.318039 0.000367318 0 0.00557579 0.333774 0 0 0 0)
(0.31116 0.000431465 0 0.00661082 0.334117 0 0 0 0)
(0.301005 0.000520594 0 0.00765284 0.334497 0 0 0 0)
(0.287396 0.000494591 0 0.00869668 0.334987 0 0 0 0)
(0.270353 0.000740081 0 0.00970639 0.335278 0 0 0 0)
(0.249733 -6.02518e-05 0 0.0106458 0.336301 0 0 0 0)
(0.224729 0.000779645 0 0.011121 0.335094 0 0 0 0)
(0.193206 -0.00162546 0 0.0123671 0.337674 0 0 0 0)
(0.158353 0.000399022 0 0.0120949 0.332874 0 0 0 0)
(0.12332 -0.00112158 0 0.0150966 0.337669 0 0 0 0)
(0.0997611 0.0011068 0 0.0164498 0.332156 0 0 0 0)
(0.0812357 0.000432526 0 0.0186796 0.33948 0 0 0 0)
(0.000650795 0.0271446 0 0.0257713 0.331938 0 0 0 0)
(2.21441 0.0253598 0 0.0137261 0.403367 0 0 0 0)
(2.24793 -0.00698204 0 -0.00530364 0.366974 0 0 0 0)
(2.15712 0.936142 0 -0.99382 0.467813 0 0 0 0)
(2.56606 1.1663 0 -1.3046 0.486499 0 0 0 0)
(0.697406 0.0412778 0 -1.05907 0.304809 0 0 0 0)
(0.273548 -0.499705 0 -0.638627 0.291016 0 0 0 0)
(-0.0618969 -0.502183 0 -0.431394 0.383384 0 0 0 0)
(-0.168328 -0.283809 0 -0.240845 0.426975 0 0 0 0)
(-0.187843 -0.135924 0 -0.133891 0.403179 0 0 0 0)
(-0.051482 -0.0670688 0 -0.0546836 0.374394 0 0 0 0)
(0.0682737 -0.0356331 0 -0.0260198 0.360874 0 0 0 0)
(0.130568 -0.019173 0 -0.0164694 0.352081 0 0 0 0)
(0.176065 -0.0116131 0 -0.0106827 0.347621 0 0 0 0)
(0.213493 -0.00776642 0 -0.00731798 0.343589 0 0 0 0)
(0.241688 -0.00556275 0 -0.00505494 0.340823 0 0 0 0)
(0.26299 -0.00412614 0 -0.00387947 0.338781 0 0 0 0)
(0.279106 -0.00337325 0 -0.00314621 0.337023 0 0 0 0)
(0.291823 -0.00280877 0 -0.00256573 0.335604 0 0 0 0)
(0.30194 -0.00229683 0 -0.00203946 0.334418 0 0 0 0)
(0.310112 -0.00208262 0 -0.00154889 0.333507 0 0 0 0)
(0.315992 0.00029463 0 -0.00110813 0.332554 0 0 0 0)
(0.319472 0.000829769 0 -0.000750828 0.333872 0 0 0 0)
(0.322473 -0.0024126 0 -0.00049378 0.3334 0 0 0 0)
(0.324883 -0.00144748 0 -0.000306033 0.331668 0 0 0 0)
(0.325263 0.000619029 0 -0.000123764 0.332066 0 0 0 0)
(0.324356 0.000465067 0 3.51279e-06 0.332259 0 0 0 0)
(0.322281 0.000572856 0 0.000106173 0.33253 0 0 0 0)
(0.318056 0.00066386 0 0.000166319 0.332826 0 0 0 0)
(0.311119 0.000768286 0 0.000187693 0.333178 0 0 0 0)
(0.300889 0.000930349 0 0.000174637 0.333557 0 0 0 0)
(0.287159 0.000856971 0 8.21749e-05 0.33408 0 0 0 0)
(0.269932 0.0014065 0 -0.000153519 0.334262 0 0 0 0)
(0.248825 -0.000144333 0 -0.000507309 0.335558 0 0 0 0)
(0.223842 0.00152613 0 -0.00173677 0.333969 0 0 0 0)
(0.191793 -0.00248217 0 -0.00180754 0.33687 0 0 0 0)
(0.157553 0.000419509 0 -0.00391307 0.332681 0 0 0 0)
(0.12324 -0.000984289 0 -0.00241261 0.336406 0 0 0 0)
(0.0990793 0.00222942 0 -0.002324 0.333591 0 0 0 0)
(0.0834196 0.000744834 0 -0.00150848 0.338648 0 0 0 0)
(-0.00221971 0.0601489 0 0.00479516 0.334306 0 0 0 0)
(2.17185 0.0447037 0 0.00706104 0.399951 0 0 0 0)
(2.21065 -0.0235611 0 -0.0210506 0.407593 0 0 0 0)
(1.96957 0.814749 0 -0.144544 0.520558 0 0 0 0)
(2.39492 1.03885 0 -0.413875 0.142179 0 0 0 0)
(0.761459 0.0463618 0 -0.435259 0.0906622 0 0 0 0)
(0.39193 -0.411819 0 -0.437411 0.125051 0 0 0 0)
(0.0629239 -0.380734 0 -0.312247 0.280424 0 0 0 0)
(-0.0569305 -0.236223 0 -0.255525 0.352797 0 0 0 0)
(-0.0881034 -0.141978 0 -0.135929 0.368231 0 0 0 0)
(0.00396531 -0.0803571 0 -0.0607047 0.361544 0 0 0 0)
(0.0864738 -0.0440603 0 -0.0331004 0.356197 0 0 0 0)
(0.139221 -0.0248598 0 -0.0225176 0.348496 0 0 0 0)
(0.181407 -0.0151201 0 -0.0142597 0.345723 0 0 0 0)
(0.216543 -0.0109691 0 -0.00983438 0.342224 0 0 0 0)
(0.243496 -0.00786382 0 -0.0070822 0.339487 0 0 0 0)
(0.263996 -0.00599372 0 -0.00551715 0.337438 0 0 0 0)
(0.279804 -0.00494184 0 -0.0044535 0.335613 0 0 0 0)
(0.292404 -0.00408027 0 -0.00358864 0.33417 0 0 0 0)
(0.302464 -0.00331122 0 -0.00282482 0.332985 0 0 0 0)
(0.310585 -0.00297322 0 -0.00212654 0.332089 0 0 0 0)
(0.316389 0.000491168 0 -0.00150307 0.331173 0 0 0 0)
(0.319766 0.00125601 0 -0.000995906 0.332562 0 0 0 0)
(0.322675 -0.00347449 0 -0.00062315 0.332107 0 0 0 0)
(0.325054 -0.00209411 0 -0.00033203 0.330343 0 0 0 0)
(0.325411 0.00090856 0 -2.7222e-05 0.330734 0 0 0 0)
(0.324471 0.000699476 0 0.000221215 0.330938 0 0 0 0)
(0.322373 0.00085996 0 0.000449182 0.331219 0 0 0 0)
(0.318118 0.000991777 0 0.0006561 0.331539 0 0 0 0)
(0.311168 0.0011363 0 0.000818648 0.331909 0 0 0 0)
(0.300903 0.00139002 0 0.000959485 0.332262 0 0 0 0)
(0.287079 0.00117311 0 0.00108103 0.332897 0 0 0 0)
(0.269785 0.00216386 0 0.000943512 0.332834 0 0 0 0)
(0.248207 -0.000342266 0 0.000737112 0.33452 0 0 0 0)
(0.223476 0.00204381 0 -0.000680727 0.332201 0 0 0 0)
(0.191109 -0.00286669 0 -0.000173898 0.335308 0 0 0 0)
(0.15777 -4.7573e-05 0 -0.00228035 0.332129 0 0 0 0)
(0.124851 -0.000244316 0 -0.000614536 0.334206 0 0 0 0)
(0.100632 0.00326727 0 -9.40391e-05 0.333935 0 0 0 0)
(0.088096 0.00112118 0 0.00120059 0.336236 0 0 0 0)
(0.0089087 0.0862179 0 0.00695787 0.335019 0 0 0 0)
(2.18951 0.0959822 0 0.0166662 0.379186 0 0 0 0)
(2.22084 0.00038268 0 -0.0315828 0.404356 0 0 0 0)
(1.89759 0.571523 0 0.0313985 0.558103 0 0 0 0)
(2.28591 0.752037 0 -0.113072 0.181865 0 0 0 0)
(0.674726 0.0247725 0 -0.189242 0.0961538 0 0 0 0)
(0.392087 -0.316844 0 -0.300598 0.13236 0 0 0 0)
(0.113375 -0.282719 0 -0.242882 0.260729 0 0 0 0)
(0.00157764 -0.199195 0 -0.210051 0.316482 0 0 0 0)
(-0.000107428 -0.127494 0 -0.122184 0.341192 0 0 0 0)
(0.0476075 -0.0786657 0 -0.0655655 0.348253 0 0 0 0)
(0.105072 -0.0482064 0 -0.0399441 0.34784 0 0 0 0)
(0.148724 -0.0292655 0 -0.0275544 0.344695 0 0 0 0)
(0.188287 -0.0176577 0 -0.0184584 0.342052 0 0 0 0)
(0.22041 -0.0137761 0 -0.0130491 0.339358 0 0 0 0)
(0.245848 -0.0101741 0 -0.00984191 0.336719 0 0 0 0)
(0.265524 -0.00785976 0 -0.00778788 0.334715 0 0 0 0)
(0.280964 -0.00652259 0 -0.0062778 0.332886 0 0 0 0)
(0.293392 -0.00534069 0 -0.00503611 0.33147 0 0 0 0)
(0.303349 -0.00430256 0 -0.00393393 0.330312 0 0 0 0)
(0.311386 -0.00382831 0 -0.00294477 0.329449 0 0 0 0)
(0.317082 0.0007505 0 -0.00206274 0.328585 0 0 0 0)
(0.32032 0.00172981 0 -0.00133871 0.330069 0 0 0 0)
(0.323112 -0.00455039 0 -0.000790007 0.329631 0 0 0 0)
(0.325457 -0.00277129 0 -0.000343352 0.32781 0 0 0 0)
(0.325796 0.00119162 0 0.000132583 0.328183 0 0 0 0)
(0.324815 0.000933061 0 0.000534859 0.328385 0 0 0 0)
(0.3227 0.00115246 0 0.000931685 0.328678 0 0 0 0)
(0.318412 0.00132863 0 0.00127957 0.328978 0 0 0 0)
(0.311411 0.00146511 0 0.00162129 0.329392 0 0 0 0)
(0.301142 0.00188219 0 0.00190436 0.329676 0 0 0 0)
(0.287143 0.00140826 0 0.00212621 0.330443 0 0 0 0)
(0.269601 0.00297085 0 0.00210604 0.329984 0 0 0 0)
(0.24726 -0.000754471 0 0.002137 0.332299 0 0 0 0)
(0.222964 0.00228485 0 0.00031976 0.329144 0 0 0 0)
(0.190252 -0.00255137 0 0.000945903 0.332174 0 0 0 0)
(0.157129 -0.000641973 0 -0.000505137 0.330454 0 0 0 0)
(0.125347 0.000756012 0 0.00146007 0.33137 0 0 0 0)
(0.100828 0.00418552 0 0.00278223 0.332692 0 0 0 0)
(0.090215 0.00178949 0 0.00456502 0.333277 0 0 0 0)
(0.0126835 0.101537 0 0.00916701 0.334421 0 0 0 0)
(2.13471 0.111519 0 0.0195242 0.366347 0 0 0 0)
(2.16416 0.000693923 0 -0.0812241 0.396239 0 0 0 0)
(1.83035 0.452193 0 0.0522627 0.413058 0 0 0 0)
(2.1823 0.593699 0 -0.0330913 0.18892 0 0 0 0)
(0.580753 -0.00134279 0 -0.103968 0.126801 0 0 0 0)
(0.34024 -0.253228 0 -0.205856 0.162971 0 0 0 0)
(0.150178 -0.203308 0 -0.201619 0.255571 0 0 0 0)
(0.0593791 -0.158686 0 -0.152617 0.302649 0 0 0 0)
(0.0511279 -0.111363 0 -0.102167 0.326512 0 0 0 0)
(0.0832143 -0.0739509 0 -0.0611903 0.336362 0 0 0 0)
(0.123103 -0.0474884 0 -0.0420072 0.338572 0 0 0 0)
(0.159926 -0.0304373 0 -0.0288706 0.339716 0 0 0 0)
(0.195385 -0.0202629 0 -0.0205468 0.337068 0 0 0 0)
(0.224846 -0.0161087 0 -0.0152488 0.334919 0 0 0 0)
(0.248566 -0.012338 0 -0.0118972 0.332535 0 0 0 0)
(0.26743 -0.00968671 0 -0.00955355 0.330562 0 0 0 0)
(0.282455 -0.00806878 0 -0.00775294 0.328796 0 0 0 0)
(0.294663 -0.00656126 0 -0.00618686 0.327417 0 0 0 0)
(0.304479 -0.00525914 0 -0.00479973 0.326307 0 0 0 0)
(0.312388 -0.0046376 0 -0.0035757 0.325484 0 0 0 0)
(0.317937 0.00108909 0 -0.00249308 0.324675 0 0 0 0)
(0.320992 0.00226429 0 -0.00161319 0.326285 0 0 0 0)
(0.323635 -0.0056515 0 -0.000954859 0.325862 0 0 0 0)
(0.325943 -0.00348923 0 -0.000423026 0.323962 0 0 0 0)
(0.326257 0.00146223 0 0.000155606 0.324317 0 0 0 0)
(0.325241 0.00117628 0 0.000640989 0.324522 0 0 0 0)
(0.323091 0.00143132 0 0.00111087 0.324811 0 0 0 0)
(0.318782 0.00167988 0 0.00156099 0.325134 0 0 0 0)
(0.31177 0.00180927 0 0.00188639 0.32555 0 0 0 0)
(0.30139 0.00240325 0 0.00228231 0.325788 0 0 0 0)
(0.287274 0.00147008 0 0.00250441 0.326952 0 0 0 0)
(0.269795 0.00395206 0 0.00184654 0.325624 0 0 0 0)
(0.246486 -0.001152 0 0.00195879 0.328798 0 0 0 0)
(0.222328 0.00192349 0 -0.000637804 0.325052 0 0 0 0)
(0.190314 -0.00160416 0 -0.000572559 0.327758 0 0 0 0)
(0.158265 -0.000822119 0 -0.00352698 0.326808 0 0 0 0)
(0.128019 0.00191245 0 -0.00216374 0.326786 0 0 0 0)
(0.103624 0.00510468 0 -0.00279385 0.328816 0 0 0 0)
(0.0942486 0.002787 0 -0.0031119 0.327374 0 0 0 0)
(0.0233239 0.118085 0 -0.00315246 0.330116 0 0 0 0)
(2.1024 0.155552 0 0.0272984 0.342643 0 0 0 0)
(2.12375 0.0291877 0 -0.0830222 0.381747 0 0 0 0)
(1.81534 0.355535 0 -0.00979747 0.383667 0 0 0 0)
(2.13536 0.47619 0 -0.0278184 0.190992 0 0 0 0)
(0.508244 -0.000233074 0 -0.0903435 0.153633 0 0 0 0)
(0.297987 -0.192757 0 -0.162818 0.194114 0 0 0 0)
(0.164677 -0.148121 0 -0.165549 0.262066 0 0 0 0)
(0.0974138 -0.130833 0 -0.132313 0.292464 0 0 0 0)
(0.087995 -0.0950064 0 -0.0917616 0.315262 0 0 0 0)
(0.105579 -0.0670446 0 -0.0625577 0.325703 0 0 0 0)
(0.136217 -0.0449748 0 -0.0452878 0.330052 0 0 0 0)
(0.169404 -0.0307144 0 -0.0318323 0.331923 0 0 0 0)
(0.201413 -0.0222799 0 -0.0236807 0.330267 0 0 0 0)
(0.228745 -0.0181443 0 -0.0180525 0.328382 0 0 0 0)
(0.251336 -0.014373 0 -0.0141637 0.326333 0 0 0 0)
(0.269517 -0.0114628 0 -0.0114892 0.3245 0 0 0 0)
(0.284208 -0.00955347 0 -0.00926078 0.32282 0 0 0 0)
(0.296238 -0.00773973 0 -0.00732932 0.321512 0 0 0 0)
(0.305865 -0.00616493 0 -0.00563635 0.32048 0 0 0 0)
(0.313609 -0.00540066 0 -0.00417498 0.319696 0 0 0 0)
(0.318973 0.00152278 0 -0.00289885 0.318946 0 0 0 0)
(0.321802 0.00287311 0 -0.001864 0.32071 0 0 0 0)
(0.324259 -0.00678898 0 -0.00109972 0.320299 0 0 0 0)
(0.326527 -0.00425986 0 -0.000489565 0.3183 0 0 0 0)
(0.326822 0.00173108 0 0.000186391 0.318637 0 0 0 0)
(0.325735 0.001409 0 0.000761478 0.318856 0 0 0 0)
(0.323587 0.00174247 0 0.00132002 0.319132 0 0 0 0)
(0.319159 0.00204096 0 0.00189353 0.319432 0 0 0 0)
(0.312107 0.00209482 0 0.00248596 0.320013 0 0 0 0)
(0.301738 0.00323303 0 0.00294627 0.319841 0 0 0 0)
(0.286724 0.00125015 0 0.00389183 0.321648 0 0 0 0)
(0.269075 0.00474939 0 0.00366694 0.319676 0 0 0 0)
(0.244866 -0.00130517 0 0.00442662 0.323323 0 0 0 0)