/*--------------------------------*- C++ -*----------------------------------*\
| =========                 |                                                 |
| \\      /  F ield         | OpenFOAM: The Open Source CFD Toolbox           |
|  \\    /   O peration     | Version:  v1912                                 |
|   \\  /    A nd           | Website:  www.openfoam.com                      |
|    \\/     M anipulation  |                                                 |
\*---------------------------------------------------------------------------*/
FoamFile
{
    version     2.0;
    format      ascii;
    class       volScalarField;
    location    "3.86";
    object      T;
}
// * * * * * * * * * * * * * * * * * * * * * * * * * * * * * * * * * * * * * //

dimensions      [0 0 0 1 0 0 0];


internalField   nonuniform List<scalar> 
1900
(
1.17067
1.01571
1.03343
1.04208
1.04141
1.03851
1.03516
1.03217
1.02998
1.02987
1.17067
1.01572
1.03344
1.0421
1.04146
1.03856
1.03522
1.03222
1.02911
1.02719
1.17067
1.01572
1.03345
1.0421
1.04143
1.03848
1.0351
1.03222
1.02921
1.02747
1.17067
1.01572
1.03344
1.0421
1.04146
1.03856
1.03522
1.03222
1.02911
1.02719
1.17067
1.01571
1.03343
1.04208
1.04141
1.03851
1.03516
1.03217
1.02998
1.02987
1.02355
1.01252
0.99198
0.960372
0.91791
1.02075
1.009
0.987089
0.957013
0.921206
1.0209
1.00879
0.986656
0.956472
0.920125
1.02075
1.009
0.987089
0.957013
0.921206
1.02355
1.01252
0.99198
0.960372
0.91791
0.907878
0.853494
0.816811
0.793951
0.782507
0.904353
0.85331
0.817868
0.794652
0.778708
0.903542
0.852806
0.817691
0.793182
0.776198
0.904353
0.85331
0.817868
0.794652
0.778708
0.907878
0.853494
0.816811
0.793951
0.782507
0.745194
0.642736
0.69418
0.730692
0.720139
0.705582
0.691322
0.67974
0.675762
0.672027
0.669415
0.666942
0.664826
0.663003
0.66149
0.660264
0.659302
0.658544
0.657965
0.657457
0.657019
0.656585
0.656093
0.655587
0.655039
0.654453
0.653802
0.653029
0.652034
0.650664
0.648699
0.646052
0.642642
0.63913
0.635457
0.632615
0.630121
0.627598
0.577703
0.477508
0.772037
0.673077
0.704979
0.73429
0.722132
0.706327
0.691632
0.679808
0.675843
0.672069
0.66945
0.666963
0.664844
0.663018
0.661503
0.660278
0.659315
0.658557
0.657977
0.657469
0.65703
0.656596
0.656103
0.655597
0.655048
0.654462
0.65381
0.653037
0.652042
0.650672
0.648706
0.646058
0.642647
0.63914
0.635461
0.632645
0.630162
0.627665
0.578073
0.477416
0.766522
0.694335
0.715771
0.737607
0.72327
0.706703
0.691786
0.679878
0.675882
0.672098
0.669471
0.666977
0.664853
0.663026
0.66151
0.660284
0.659321
0.658562
0.657982
0.657474
0.657035
0.656601
0.656108
0.655602
0.655053
0.654467
0.653816
0.653043
0.65205
0.650682
0.648721
0.646079
0.642679
0.639189
0.635533
0.63276
0.630333
0.627889
0.578577
0.479069
0.772037
0.673077
0.704979
0.73429
0.722132
0.706327
0.691632
0.679808
0.675843
0.672069
0.66945
0.666963
0.664844
0.663018
0.661503
0.660278
0.659315
0.658557
0.657977
0.657469
0.65703
0.656596
0.656103
0.655597
0.655048
0.654462
0.65381
0.653037
0.652042
0.650672
0.648706
0.646058
0.642647
0.63914
0.635461
0.632645
0.630162
0.627665
0.578073
0.477416
0.745194
0.642736
0.69418
0.730692
0.720139
0.705582
0.691322
0.67974
0.675762
0.672027
0.669415
0.666942
0.664826
0.663003
0.66149
0.660264
0.659302
0.658544
0.657965
0.657457
0.657019
0.656585
0.656093
0.655587
0.655039
0.654453
0.653802
0.653029
0.652034
0.650664
0.648699
0.646052
0.642642
0.63913
0.635457
0.632615
0.630121
0.627598
0.577703
0.477508
0.593655
0.591687
0.678759
0.717921
0.713308
0.702296
0.689519
0.679175
0.675234
0.671722
0.669166
0.666755
0.664675
0.662875
0.661375
0.660158
0.659203
0.658451
0.657876
0.657371
0.656936
0.656504
0.656012
0.655506
0.654956
0.654368
0.653713
0.652936
0.651935
0.650559
0.648589
0.645943
0.642541
0.639009
0.635359
0.632443
0.62996
0.627394
0.577726
0.484266
0.488818
0.594641
0.676579
0.698365
0.699818
0.69386
0.685149
0.677664
0.673983
0.671016
0.668594
0.666333
0.664343
0.662594
0.661121
0.659923
0.658983
0.658244
0.657681
0.657184
0.656755
0.656328
0.655837
0.655331
0.65478
0.65419
0.653529
0.652742
0.651729
0.650341
0.64836
0.645706
0.642323
0.638737
0.635082
0.63203
0.629494
0.626912
0.577556
0.477897
0.469486
0.607889
0.669767
0.684579
0.687445
0.684639
0.679645
0.675206
0.672284
0.669888
0.667735
0.665697
0.66383
0.662151
0.66072
0.659552
0.658637
0.65792
0.657374
0.656891
0.656472
0.65605
0.655561
0.655055
0.654502
0.653906
0.653236
0.652435
0.6514
0.649991
0.647994
0.645329
0.641971
0.638307
0.634617
0.631407
0.628791
0.626222
0.578162
0.478183
0.476447
0.608701
0.660674
0.671716
0.676605
0.676336
0.674249
0.672103
0.670144
0.668431
0.66665
0.664869
0.663147
0.661557
0.660182
0.659056
0.658177
0.65749
0.65697
0.656503
0.656097
0.655684
0.655196
0.65469
0.654133
0.65353
0.652846
0.652025
0.650962
0.649529
0.647511
0.644821
0.641489
0.637726
0.63395
0.630567
0.627834
0.625317
0.578147
0.477709
0.472357
0.60559
0.652733
0.661578
0.667283
0.669085
0.669071
0.668685
0.667789
0.666692
0.665357
0.663843
0.662287
0.660802
0.6595
0.65843
0.657599
0.656952
0.656463
0.656018
0.655628
0.655224
0.654738
0.65423
0.653667
0.653052
0.652349
0.651503
0.650394
0.648928
0.646886
0.644165
0.640823
0.636926
0.633013
0.629445
0.626598
0.624217
0.578658
0.477963
0.47153
0.601031
0.64507
0.653095
0.659257
0.662714
0.664357
0.665253
0.665271
0.664807
0.663885
0.662642
0.661257
0.659892
0.658677
0.657678
0.656907
0.656311
0.655861
0.655441
0.65507
0.654677
0.65419
0.653679
0.653106
0.652477
0.651744
0.650863
0.649707
0.648198
0.646128
0.643343
0.639986
0.635924
0.63183
0.628071
0.62511
0.622894
0.578789
0.477065
0.472796
0.597519
0.638842
0.646192
0.652642
0.657118
0.659905
0.661824
0.662636
0.66274
0.662192
0.661231
0.660034
0.65881
0.6577
0.656789
0.656094
0.655559
0.655157
0.654766
0.654416
0.654033
0.653543
0.653026
0.652438
0.651783
0.651012
0.65008
0.648851
0.647288
0.645203
0.64232
0.638904
0.634656
0.630379
0.626441
0.6234
0.621489
0.580599
0.476065
0.46867
0.593052
0.632643
0.639503
0.646614
0.65192
0.655725
0.658514
0.660024
0.660606
0.660368
0.659657
0.658629
0.657538
0.656539
0.655729
0.65512
0.654658
0.65431
0.653952
0.653625
0.653251
0.652755
0.652228
0.651623
0.650937
0.650124
0.649144
0.647863
0.64621
0.644117
0.641106
0.63759
0.633082
0.628539
0.624286
0.621095
0.619298
0.579948
0.474152
0.466576
0.589859
0.627954
0.634221
0.64168
0.647434
0.65185
0.655244
0.657259
0.658221
0.658233
0.657711
0.656855
0.655926
0.655069
0.654383
0.653878
0.653501
0.653217
0.652896
0.652592
0.652225
0.651717
0.651173
0.650537
0.649812
0.648935
0.647895
0.64653
0.644864
0.642819
0.639718
0.636152
0.631526
0.626735
0.622298
0.618972
0.617361
0.580466
0.471867
0.463776
0.585813
0.622665
0.628382
0.635739
0.641988
0.647167
0.651269
0.653944
0.655357
0.655667
0.655374
0.654702
0.653923
0.653202
0.652631
0.652228
0.651933
0.651714
0.651431
0.651148
0.650787
0.650268
0.649712
0.649048
0.648287
0.647353
0.646239
0.644826
0.642953
0.64087
0.637475
0.633606
0.628629
0.623443
0.618582
0.614911
0.613419
0.577966
0.468945
0.460936
0.581502
0.617693
0.623389
0.630586
0.637024
0.642786
0.647408
0.650607
0.652295
0.65276
0.652598
0.65198
0.65131
0.650702
0.650238
0.649931
0.649712
0.649561
0.649317
0.649048
0.648694
0.648168
0.647609
0.646934
0.646163
0.645217
0.644097
0.642736
0.640808
0.638744
0.635105
0.630935
0.625613
0.620015
0.614675
0.610565
0.609133
0.574509
0.465646
0.45818
0.576737
0.611833
0.617401
0.624021
0.6307
0.636953
0.641997
0.645797
0.647683
0.648503
0.64857
0.648235
0.64784
0.647429
0.647126
0.646928
0.646786
0.646708
0.646503
0.646236
0.645888
0.645351
0.644772
0.644059
0.64321
0.642175
0.640906
0.639394
0.637165
0.634913
0.630965
0.626423
0.620729
0.614748
0.608967
0.604473
0.603068
0.569722
0.462265
0.455492
0.57136
0.605072
0.610374
0.61692
0.623863
0.630345
0.635868
0.640269
0.64247
0.643663
0.644026
0.643934
0.643752
0.643538
0.643371
0.643257
0.643154
0.643107
0.642913
0.642652
0.642339
0.641832
0.641281
0.640567
0.63968
0.638541
0.637137
0.635528
0.63297
0.630416
0.626084
0.621108
0.615061
0.608735
0.602599
0.597759
0.596362
0.564719
0.459143
0.452869
0.565981
0.598101
0.602933
0.609449
0.616673
0.623155
0.628992
0.63363
0.636173
0.63784
0.638403
0.638737
0.638963
0.639074
0.639192
0.639293
0.639338
0.639412
0.639281
0.639017
0.638677
0.638096
0.637444
0.636589
0.635531
0.634218
0.632574
0.630801
0.627897
0.625088
0.620431
0.615101
0.608747
0.602133
0.59574
0.590626
0.589293
0.559466
0.456136
0.450747
0.560034
0.590734
0.595396
0.60189
0.60927
0.615887
0.621995
0.626783
0.629775
0.631994
0.632941
0.633638
0.634266
0.634695
0.635073
0.635361
0.635516
0.635648
0.635535
0.635293
0.63498
0.634383
0.633678
0.632712
0.631505
0.630005
0.628112
0.626187
0.622994
0.619833
0.614796
0.609084
0.602426
0.595532
0.588848
0.583477
0.582151
0.554244
0.453982
0.448428
0.55536
0.58424
0.588309
0.59481
0.602313
0.609145
0.61567
0.620472
0.623964
0.626614
0.627966
0.629157
0.630111
0.630843
0.631473
0.631975
0.632308
0.632608
0.632597
0.632365
0.631982
0.631257
0.630426
0.629327
0.627984
0.626359
0.624295
0.622254
0.618685
0.615164
0.609712
0.603608
0.596667
0.589483
0.582622
0.576913
0.575867
0.550215
0.452104
0.44958
0.551553
0.578451
0.58202
0.58869
0.596303
0.603336
0.610138
0.615477
0.619691
0.622776
0.624342
0.625771
0.626938
0.627872
0.628676
0.629327
0.629773
0.630151
0.630153
0.62993
0.629572
0.628801
0.627889
0.626706
0.625276
0.623602
0.621422
0.619306
0.615561
0.61183
0.606095
0.599616
0.59238
0.584911
0.577716
0.571718
0.570993
0.547706
0.45401
0.455695
0.552015
0.579004
0.581763
0.587775
0.595027
0.602014
0.608691
0.613902
0.618017
0.6209
0.62242
0.623783
0.624718
0.625494
0.626183
0.626762
0.627195
0.627663
0.627834
0.627594
0.627065
0.626228
0.625353
0.624281
0.622995
0.621603
0.619577
0.617784
0.614141
0.610469
0.604826
0.598406
0.591267
0.583859
0.576914
0.571248
0.570673
0.548418
0.461355
0.433513
0.531528
0.56092
0.561811
0.564745
0.569212
0.573525
0.577912
0.581042
0.583766
0.584663
0.583721
0.583285
0.581041
0.580094
0.578884
0.578174
0.577684
0.577615
0.5792
0.57893
0.576946
0.576628
0.576665
0.577109
0.577089
0.578474
0.577872
0.579089
0.577462
0.57544
0.571213
0.566338
0.560955
0.555578
0.550989
0.547869
0.548434
0.523965
0.430401
0.376317
0.43545
0.470555
0.462802
0.460442
0.46114
0.462146
0.464212
0.466222
0.468643
0.470759
0.472721
0.474361
0.475599
0.476458
0.477033
0.476859
0.477549
0.477455
0.478272
0.478233
0.477279
0.477356
0.476404
0.476664
0.475639
0.474793
0.473013
0.471091
0.468639
0.465811
0.46271
0.459687
0.45664
0.454445
0.452237
0.453997
0.461321
0.431222
0.372458
0.376317
0.43545
0.470555
0.462802
0.460442
0.46114
0.462146
0.464212
0.466222
0.468643
0.470759
0.472721
0.474361
0.475599
0.476458
0.477033
0.476859
0.477549
0.477455
0.478272
0.478233
0.477279
0.477356
0.476404
0.476664
0.475639
0.474793
0.473013
0.471091
0.468639
0.465811
0.46271
0.459687
0.45664
0.454445
0.452237
0.453997
0.461321
0.431222
0.372458
0.433513
0.531528
0.56092
0.561811
0.564745
0.569212
0.573525
0.577912
0.581042
0.583766
0.584663
0.583721
0.583285
0.581041
0.580094
0.578884
0.578174
0.577684
0.577615
0.5792
0.57893
0.576946
0.576628
0.576665
0.577109
0.577089
0.578474
0.577872
0.579089
0.577462
0.57544
0.571213
0.566338
0.560955
0.555578
0.550989
0.547869
0.548434
0.523965
0.430401
0.455695
0.552015
0.579004
0.581763
0.587775
0.595027
0.602014
0.608691
0.613902
0.618017
0.6209
0.62242
0.623783
0.624718
0.625494
0.626183
0.626762
0.627195
0.627663
0.627834
0.627594
0.627065
0.626228
0.625353
0.624281
0.622995
0.621603
0.619577
0.617784
0.614141
0.610469
0.604826
0.598406
0.591267
0.583859
0.576914
0.571248
0.570673
0.548418
0.461355
0.44958
0.551553
0.578451
0.58202
0.58869
0.596303
0.603336
0.610138
0.615477
0.619691
0.622776
0.624342
0.625771
0.626938
0.627872
0.628676
0.629327
0.629773
0.630151
0.630153
0.62993
0.629572
0.628801
0.627889
0.626706
0.625276
0.623602
0.621422
0.619306
0.615561
0.61183
0.606095
0.599616
0.59238
0.584911
0.577716
0.571718
0.570993
0.547706
0.45401
0.448428
0.55536
0.58424
0.588309
0.59481
0.602313
0.609145
0.61567
0.620472
0.623964
0.626614
0.627966
0.629157
0.630111
0.630843
0.631473
0.631975
0.632308
0.632608
0.632597
0.632365
0.631982
0.631257
0.630426
0.629327
0.627984
0.626359
0.624295
0.622254
0.618685
0.615164
0.609712
0.603608
0.596667
0.589483
0.582622
0.576913
0.575867
0.550215
0.452104
0.450747
0.560034
0.590734
0.595396
0.60189
0.60927
0.615887
0.621995
0.626783
0.629775
0.631994
0.632941
0.633638
0.634266
0.634695
0.635073
0.635361
0.635516
0.635648
0.635535
0.635293
0.63498
0.634383
0.633678
0.632712
0.631505
0.630005
0.628112
0.626187
0.622994
0.619833
0.614796
0.609084
0.602426
0.595532
0.588848
0.583477
0.582151
0.554244
0.453982
0.452869
0.565981
0.598101
0.602933
0.609449
0.616673
0.623155
0.628992
0.63363
0.636173
0.63784
0.638403
0.638737
0.638963
0.639074
0.639192
0.639293
0.639338
0.639412
0.639281
0.639017
0.638677
0.638096
0.637444
0.636589
0.635531
0.634218
0.632574
0.630801
0.627897
0.625088
0.620431
0.615101
0.608747
0.602133
0.59574
0.590626
0.589293
0.559466
0.456136
0.455492
0.57136
0.605072
0.610374
0.61692
0.623863
0.630345
0.635868
0.640269
0.64247
0.643663
0.644026
0.643934
0.643752
0.643538
0.643371
0.643257
0.643154
0.643107
0.642913
0.642652
0.642339
0.641832
0.641281
0.640567
0.63968
0.638541
0.637137
0.635528
0.63297
0.630416
0.626084
0.621108
0.615061
0.608735
0.602599
0.597759
0.596362
0.564719
0.459143
0.45818
0.576737
0.611833
0.617401
0.624021
0.6307
0.636953
0.641997
0.645797
0.647683
0.648503
0.64857
0.648235
0.64784
0.647429
0.647126
0.646928
0.646786
0.646708
0.646503
0.646236
0.645888
0.645351
0.644772
0.644059
0.64321
0.642175
0.640906
0.639394
0.637165
0.634913
0.630965
0.626423
0.620729
0.614748
0.608967
0.604473
0.603068
0.569722
0.462265
0.460936
0.581502
0.617693
0.623389
0.630586
0.637024
0.642786
0.647408
0.650607
0.652295
0.65276
0.652598
0.65198
0.65131
0.650702
0.650238
0.649931
0.649712
0.649561
0.649317
0.649048
0.648694
0.648168
0.647609
0.646934
0.646163
0.645217
0.644097
0.642736
0.640808
0.638744
0.635105
0.630935
0.625613
0.620015
0.614675
0.610565
0.609133
0.574509
0.465646
0.463776
0.585813
0.622665
0.628382
0.635739
0.641988
0.647167
0.651269
0.653944
0.655357
0.655667
0.655374
0.654702
0.653923
0.653202
0.652631
0.652228
0.651933
0.651714
0.651431
0.651148
0.650787
0.650268
0.649712
0.649048
0.648287
0.647353
0.646239
0.644826
0.642953
0.64087
0.637475
0.633606
0.628629
0.623443
0.618582
0.614911
0.613419
0.577966
0.468945
0.466576
0.589859
0.627954
0.634221
0.64168
0.647434
0.65185
0.655244
0.657259
0.658221
0.658233
0.657711
0.656855
0.655926
0.655069
0.654383
0.653878
0.653501
0.653217
0.652896
0.652592
0.652225
0.651717
0.651173
0.650537
0.649812
0.648935
0.647895
0.64653
0.644864
0.642819
0.639718
0.636152
0.631526
0.626735
0.622298
0.618972
0.617361
0.580466
0.471867
0.46867
0.593052
0.632643
0.639503
0.646614
0.65192
0.655725
0.658514
0.660024
0.660606
0.660368
0.659657
0.658629
0.657538
0.656539
0.655729
0.65512
0.654658
0.65431
0.653952
0.653625
0.653251
0.652755
0.652228
0.651623
0.650937
0.650124
0.649144
0.647863
0.64621
0.644117
0.641106
0.63759
0.633082
0.628539
0.624286
0.621095
0.619298
0.579948
0.474152
0.472796
0.597519
0.638842
0.646192
0.652642
0.657118
0.659905
0.661824
0.662636
0.66274
0.662192
0.661231
0.660034
0.65881
0.6577
0.656789
0.656094
0.655559
0.655157
0.654766
0.654416
0.654033
0.653543
0.653026
0.652438
0.651783
0.651012
0.65008
0.648851
0.647288
0.645203
0.64232
0.638904
0.634656
0.630379
0.626441
0.6234
0.621489
0.580599
0.476065
0.47153
0.601031
0.64507
0.653095
0.659257
0.662714
0.664357
0.665253
0.665271
0.664807
0.663885
0.662642
0.661257
0.659892
0.658677
0.657678
0.656907
0.656311
0.655861
0.655441
0.65507
0.654677
0.65419
0.653679
0.653106
0.652477
0.651744
0.650863
0.649707
0.648198
0.646128
0.643343
0.639986
0.635924
0.63183
0.628071
0.62511
0.622894
0.578789
0.477065
0.472357
0.60559
0.652733
0.661578
0.667283
0.669085
0.669071
0.668685
0.667789
0.666692
0.665357
0.663843
0.662287
0.660802
0.6595
0.65843
0.657599
0.656952
0.656463
0.656018
0.655628
0.655224
0.654738
0.65423
0.653667
0.653052
0.652349
0.651503
0.650394
0.648928
0.646886
0.644165
0.640823
0.636926
0.633013
0.629445
0.626598
0.624217
0.578658
0.477963
0.476447
0.608701
0.660674
0.671716
0.676605
0.676336
0.674249
0.672103
0.670144
0.668431
0.66665
0.664869
0.663147
0.661557
0.660182
0.659056
0.658177
0.65749
0.65697
0.656503
0.656097
0.655684
0.655196
0.65469
0.654133
0.65353
0.652846
0.652025
0.650962
0.649529
0.647511
0.644821
0.641489
0.637726
0.63395
0.630567
0.627834
0.625317
0.578147
0.477709
0.469486
0.607889
0.669767
0.684579
0.687445
0.684639
0.679645
0.675206
0.672284
0.669888
0.667735
0.665697
0.66383
0.662151
0.66072
0.659552
0.658637
0.65792
0.657374
0.656891
0.656472
0.65605
0.655561
0.655055
0.654502
0.653906
0.653236
0.652435
0.6514
0.649991
0.647994
0.645329
0.641971
0.638307
0.634617
0.631407
0.628791
0.626222
0.578162
0.478183
0.488818
0.594641
0.676579
0.698365
0.699818
0.69386
0.685149
0.677664
0.673983
0.671016
0.668594
0.666333
0.664343
0.662594
0.661121
0.659923
0.658983
0.658244
0.657681
0.657184
0.656755
0.656328
0.655837
0.655331
0.65478
0.65419
0.653529
0.652742
0.651729
0.650341
0.64836
0.645706
0.642323
0.638737
0.635082
0.63203
0.629494
0.626912
0.577556
0.477897
0.593655
0.591687
0.678759
0.717921
0.713308
0.702296
0.689519
0.679175
0.675234
0.671722
0.669166
0.666755
0.664675
0.662875
0.661375
0.660158
0.659203
0.658451
0.657876
0.657371
0.656936
0.656504
0.656012
0.655506
0.654956
0.654368
0.653713
0.652936
0.651935
0.650559
0.648589
0.645943
0.642541
0.639009
0.635359
0.632443
0.62996
0.627394
0.577726
0.484266
)
;

boundaryField
{
    inlet
    {
        type            fixedValue;
        value           uniform 1;
    }
    outlet
    {
        type            zeroGradient;
    }
    obstacle
    {
        type            zeroGradient;
    }
    empty
    {
        type            empty;
    }
}


// ************************************************************************* //
