/*--------------------------------*- C++ -*----------------------------------*\
| =========                 |                                                 |
| \\      /  F ield         | OpenFOAM: The Open Source CFD Toolbox           |
|  \\    /   O peration     | Version:  v1912                                 |
|   \\  /    A nd           | Website:  www.openfoam.com                      |
|    \\/     M anipulation  |                                                 |
\*---------------------------------------------------------------------------*/
FoamFile
{
    version     2.0;
    format      ascii;
    class       volScalarField;
    location    "2.66";
    object      Ma;
}
// * * * * * * * * * * * * * * * * * * * * * * * * * * * * * * * * * * * * * //

dimensions      [0 0 0 0 0 0 0];


internalField   nonuniform List<scalar> 
1900
(
0.330986
0.0583512
0.0612885
0.0658536
0.0701162
0.0745114
0.0788634
0.0829131
0.0862952
0.0794939
0.330989
0.0583558
0.0612958
0.065864
0.0700746
0.0742336
0.0779652
0.0814985
0.0865193
0.0922637
0.330989
0.0583575
0.0612981
0.0658534
0.0700095
0.0740382
0.0776174
0.0812326
0.0867812
0.0975771
0.330989
0.0583558
0.0612958
0.065864
0.0700746
0.0742336
0.0779652
0.0814985
0.0865193
0.0922637
0.330986
0.0583512
0.0612885
0.0658536
0.0701162
0.0745114
0.0788634
0.0829131
0.0862952
0.0794939
0.0923159
0.122453
0.154018
0.206673
0.361382
0.112806
0.142367
0.184329
0.265591
0.413981
0.118108
0.145987
0.191977
0.280028
0.426728
0.112806
0.142367
0.184329
0.265591
0.413981
0.0923159
0.122453
0.154018
0.206673
0.361382
0.401454
0.332897
0.298333
0.285208
0.374842
0.418435
0.340627
0.288708
0.238754
0.220906
0.427181
0.342419
0.279626
0.205812
0.0894419
0.418435
0.340627
0.288708
0.238754
0.220906
0.401454
0.332897
0.298333
0.285208
0.374842
0.648729
0.213935
0.279399
0.348323
0.400426
0.426876
0.431039
0.424177
0.40702
0.384844
0.357932
0.326985
0.293025
0.257247
0.220832
0.184556
0.148397
0.11119
0.0725344
0.0341339
0.0358466
0.0758315
0.1153
0.153757
0.191678
0.230453
0.27051
0.311734
0.353791
0.396277
0.438681
0.480346
0.520631
0.559346
0.597045
0.633883
0.66661
0.687273
0.798213
1.6366
0.128147
0.239493
0.144124
0.297445
0.395739
0.426252
0.431026
0.424155
0.406782
0.384403
0.3574
0.326357
0.292287
0.256357
0.219721
0.183126
0.146494
0.108497
0.0681796
0.0231302
0.0256529
0.071714
0.112734
0.151937
0.190308
0.229393
0.269676
0.311067
0.353245
0.395812
0.438259
0.479935
0.5202
0.558875
0.596498
0.633346
0.665915
0.686697
0.797842
1.63591
0.180445
0.321965
0.0537736
0.270285
0.395251
0.426844
0.43171
0.424974
0.407486
0.385087
0.358021
0.326866
0.292668
0.256598
0.219798
0.183007
0.146126
0.107771
0.0667756
0.0181015
0.0212703
0.0704093
0.112066
0.151616
0.190239
0.229533
0.27
0.311559
0.353891
0.396598
0.439174
0.480963
0.521323
0.560073
0.597742
0.634645
0.667191
0.687962
0.798815
1.63516
0.128147
0.239493
0.144124
0.297445
0.395739
0.426252
0.431026
0.424155
0.406782
0.384403
0.3574
0.326357
0.292287
0.256357
0.219721
0.183126
0.146494
0.108497
0.0681796
0.0231302
0.0256529
0.071714
0.112734
0.151937
0.190308
0.229393
0.269676
0.311067
0.353245
0.395812
0.438259
0.479935
0.5202
0.558875
0.596498
0.633346
0.665915
0.686697
0.797842
1.63591
0.648729
0.213935
0.279399
0.348323
0.400426
0.426876
0.431039
0.424177
0.40702
0.384844
0.357932
0.326985
0.293025
0.257247
0.220832
0.184556
0.148397
0.11119
0.0725344
0.0341339
0.0358466
0.0758315
0.1153
0.153757
0.191678
0.230453
0.27051
0.311734
0.353791
0.396277
0.438681
0.480346
0.520631
0.559346
0.597045
0.633883
0.66661
0.687273
0.798213
1.6366
1.45229
0.561244
0.468532
0.426346
0.427762
0.439399
0.439765
0.429315
0.412023
0.389793
0.362754
0.331833
0.29808
0.262721
0.226974
0.191678
0.15699
0.122239
0.088335
0.0609136
0.0617856
0.0909294
0.125835
0.161912
0.198405
0.23622
0.275586
0.316289
0.357938
0.400087
0.442198
0.483595
0.52363
0.562104
0.599613
0.636021
0.668787
0.688596
0.798895
1.63892
1.68432
0.761921
0.614444
0.515808
0.480822
0.468251
0.457475
0.441218
0.422543
0.399503
0.372188
0.341422
0.308282
0.274031
0.239946
0.206979
0.175558
0.145606
0.118839
0.100656
0.101017
0.120513
0.148279
0.179532
0.212666
0.247976
0.285399
0.324563
0.364979
0.40614
0.447464
0.488239
0.527819
0.565931
0.603348
0.639051
0.672092
0.690885
0.800626
1.64339
1.70336
0.802007
0.665907
0.569782
0.524279
0.497222
0.478551
0.458599
0.437728
0.413591
0.386009
0.355469
0.323083
0.290146
0.257957
0.227515
0.199377
0.173688
0.152021
0.138694
0.138797
0.153065
0.175578
0.202477
0.232217
0.264835
0.300097
0.337524
0.376548
0.416596
0.457043
0.497136
0.536228
0.573909
0.611188
0.645871
0.67905
0.697022
0.806786
1.65112
1.68596
0.821269
0.693246
0.607889
0.561936
0.529612
0.50411
0.480929
0.457547
0.431908
0.403655
0.373108
0.341374
0.309706
0.279352
0.251275
0.226023
0.203733
0.185598
0.175258
0.175199
0.186171
0.204929
0.228234
0.254872
0.284842
0.317862
0.353411
0.390874
0.429653
0.469065
0.508346
0.546863
0.583905
0.620988
0.654218
0.687661
0.705601
0.815509
1.65902
1.68925
0.837839
0.715105
0.640364
0.59676
0.560979
0.53218
0.506256
0.480872
0.453822
0.424878
0.394402
0.363403
0.33309
0.304582
0.278749
0.256047
0.236524
0.221008
0.212806
0.212652
0.221252
0.237178
0.257498
0.281344
0.308769
0.339517
0.373068
0.408836
0.446141
0.484404
0.522685
0.560545
0.596692
0.633453
0.66494
0.698558
0.718634
0.827442
1.66778
1.71157
0.854557
0.735918
0.669442
0.629107
0.59129
0.561632
0.533829
0.506968
0.478708
0.44927
0.418926
0.388812
0.359889
0.333191
0.309421
0.288932
0.271672
0.258172
0.251619
0.251419
0.258194
0.271918
0.289752
0.311122
0.336165
0.364667
0.396202
0.430102
0.465937
0.502759
0.540048
0.577143
0.612073
0.64845
0.678233
0.712335
0.735121
0.841826
1.67557
1.71091
0.871614
0.757612
0.697512
0.65957
0.621142
0.592197
0.56308
0.535175
0.506206
0.476231
0.446432
0.417156
0.389684
0.364657
0.342728
0.324115
0.308696
0.296778
0.29155
0.291341
0.296663
0.308654
0.324435
0.343664
0.366535
0.392947
0.422408
0.454649
0.488543
0.524445
0.560105
0.596655
0.630184
0.666078
0.694363
0.7293
0.754562
0.85897
1.68495
1.71128
0.8899
0.780183
0.725593
0.689248
0.650983
0.623487
0.593523
0.565325
0.535254
0.505898
0.476073
0.448083
0.421807
0.398353
0.378002
0.360965
0.347042
0.336387
0.332254
0.332064
0.336204
0.346823
0.360925
0.378329
0.399312
0.423728
0.451489
0.481526
0.514612
0.548017
0.583451
0.618704
0.65054
0.686233
0.713282
0.749043
0.77611
0.877562
1.69073
1.7219
0.912251
0.805048
0.755393
0.719401
0.681737
0.65587
0.625276
0.596201
0.567242
0.536353
0.508314
0.480614
0.45586
0.433652
0.414703
0.398975
0.386279
0.376651
0.373441
0.373289
0.376455
0.385978
0.398713
0.414603
0.4339
0.456735
0.482398
0.511692
0.541555
0.576106
0.607796
0.643895
0.673904
0.70898
0.735296
0.772243
0.800764
0.899897
1.70102
1.7263
0.932579
0.828758
0.784983
0.748907
0.712355
0.687944
0.656491
0.629723
0.597548
0.570155
0.540635
0.515066
0.490936
0.470101
0.452276
0.43767
0.425981
0.417204
0.41478
0.414674
0.417032
0.425674
0.437307
0.451921
0.469884
0.491012
0.515756
0.54209
0.573167
0.602504
0.636671
0.669609
0.698285
0.733252
0.758704
0.796416
0.824884
0.920721
1.70459
1.73895
0.960186
0.858396
0.819345
0.78116
0.745719
0.721806
0.691041
0.661422
0.633329
0.602087
0.575836
0.549591
0.527012
0.506954
0.490175
0.476473
0.465618
0.457552
0.455792
0.455731
0.457423
0.465356
0.476103
0.489716
0.506468
0.52663
0.549388
0.576284
0.602812
0.63634
0.663979
0.700152
0.726719
0.761057
0.786452
0.826034
0.855437
0.949034
1.71534
1.74209
0.980747
0.882521
0.84758
0.808584
0.775577
0.75235
0.720018
0.694795
0.662705
0.636255
0.608606
0.584598
0.56254
0.543605
0.527646
0.514732
0.504559
0.49709
0.495882
0.495859
0.497006
0.504364
0.514415
0.527192
0.543031
0.561898
0.583972
0.60816
0.635926
0.663722
0.694677
0.725908
0.752315
0.786155
0.810272
0.850179
0.878593
0.969313
1.71627
1.75249
1.01217
0.915826
0.883168
0.842608
0.81132
0.786622
0.755473
0.728459
0.698138
0.670432
0.643621
0.619639
0.598202
0.57978
0.564403
0.552037
0.542365
0.535358
0.534588
0.534589
0.535314
0.54224
0.551803
0.564024
0.579238
0.597522
0.618782
0.642914
0.669128
0.698592
0.725995
0.759718
0.783968
0.818812
0.84335
0.885021
0.914015
1.00276
1.72593
1.75166
1.03333
0.941463
0.910395
0.868257
0.838604
0.812338
0.780628
0.754746
0.724791
0.698373
0.673263
0.650855
0.631024
0.613952
0.599666
0.58809
0.578967
0.57239
0.571975
0.571989
0.572376
0.578902
0.587939
0.59939
0.613509
0.630425
0.649973
0.672491
0.696592
0.72482
0.750806
0.783141
0.806672
0.841387
0.865394
0.90782
0.936239
1.02242
1.72342
1.75603
1.06615
0.97647
0.946629
0.90316
0.875752
0.844644
0.815456
0.787724
0.758637
0.732501
0.707732
0.685648
0.666219
0.64957
0.635621
0.624249
0.615269
0.608832
0.608599
0.608618
0.608836
0.615248
0.624174
0.635457
0.649274
0.665796
0.684959
0.707149
0.730988
0.758686
0.784414
0.817116
0.840637
0.877273
0.902424
0.945913
0.974077
1.05839
1.72932
1.74803
1.08777
1.0044
0.975849
0.931014
0.904181
0.868647
0.841981
0.811832
0.784262
0.757883
0.733699
0.712367
0.694074
0.678897
0.666627
0.656851
0.649166
0.643725
0.644013
0.64403
0.643737
0.649171
0.656827
0.666541
0.678704
0.693755
0.711785
0.733105
0.756428
0.783789
0.808615
0.841674
0.86449
0.902373
0.927859
0.972205
0.999082
1.07912
1.7226
1.73984
1.1179
1.03948
1.015
0.972036
0.945463
0.907442
0.882451
0.848707
0.82196
0.793256
0.768269
0.745684
0.726432
0.710655
0.698106
0.687987
0.680029
0.67423
0.674245
0.674256
0.674242
0.680046
0.687996
0.698092
0.710585
0.726288
0.745375
0.767941
0.792405
0.821643
0.846912
0.882057
0.905364
0.944362
0.970673
1.01374
1.03734
1.11304
1.71825
1.67655
1.11883
1.0536
1.03735
0.997072
0.971961
0.933083
0.90976
0.874212
0.849238
0.819107
0.794092
0.769737
0.748296
0.729509
0.714725
0.704412
0.697083
0.692246
0.692896
0.692902
0.692255
0.697097
0.704426
0.714729
0.729486
0.748222
0.769561
0.793854
0.818556
0.848808
0.87302
0.908907
0.93149
0.970295
0.995342
1.03523
1.05056
1.11434
1.6625
1.69002
1.16739
1.11534
1.11149
1.07545
1.05426
1.01727
0.996708
0.96313
0.94157
0.913784
0.892384
0.870621
0.852276
0.835655
0.82182
0.810782
0.802926
0.798894
0.799918
0.799921
0.798901
0.80294
0.810801
0.821834
0.835655
0.852243
0.870522
0.892222
0.913404
0.941188
0.962198
0.995855
1.01576
1.05249
1.07325
1.10875
1.11173
1.16356
1.68359
2.31158
1.68483
1.66258
1.71776
1.72254
1.72969
1.72375
1.72633
1.71649
1.71539
1.70476
1.70087
1.69079
1.68447
1.67529
1.66742
1.65919
1.65138
1.64488
1.64225
1.64225
1.64488
1.65138
1.65918
1.66742
1.67529
1.68446
1.69078
1.70085
1.70472
1.71535
1.71643
1.72628
1.72366
1.72963
1.72249
1.71793
1.66264
1.68468
2.31229
2.31158
1.68483
1.66258
1.71776
1.72254
1.72969
1.72375
1.72633
1.71649
1.71539
1.70476
1.70087
1.69079
1.68447
1.67529
1.66742
1.65919
1.65138
1.64488
1.64225
1.64225
1.64488
1.65138
1.65918
1.66742
1.67529
1.68446
1.69078
1.70085
1.70472
1.71535
1.71643
1.72628
1.72366
1.72963
1.72249
1.71793
1.66264
1.68468
2.31229
1.69002
1.16739
1.11534
1.11149
1.07545
1.05426
1.01727
0.996708
0.96313
0.94157
0.913784
0.892384
0.870621
0.852276
0.835655
0.82182
0.810782
0.802926
0.798894
0.799918
0.799921
0.798901
0.80294
0.810801
0.821834
0.835655
0.852243
0.870522
0.892222
0.913404
0.941188
0.962198
0.995855
1.01576
1.05249
1.07325
1.10875
1.11173
1.16356
1.68359
1.67655
1.11883
1.0536
1.03735
0.997072
0.971961
0.933083
0.90976
0.874212
0.849238
0.819107
0.794092
0.769737
0.748296
0.729509
0.714725
0.704412
0.697083
0.692246
0.692896
0.692902
0.692255
0.697097
0.704426
0.714729
0.729486
0.748222
0.769561
0.793854
0.818556
0.848808
0.87302
0.908907
0.93149
0.970295
0.995342
1.03523
1.05056
1.11434
1.6625
1.73984
1.1179
1.03948
1.015
0.972036
0.945463
0.907442
0.882451
0.848707
0.82196
0.793256
0.768269
0.745684
0.726432
0.710655
0.698106
0.687987
0.680029
0.67423
0.674245
0.674256
0.674242
0.680046
0.687996
0.698092
0.710585
0.726288
0.745375
0.767941
0.792405
0.821643
0.846912
0.882057
0.905364
0.944362
0.970673
1.01374
1.03734
1.11304
1.71825
1.74803
1.08777
1.0044
0.975849
0.931014
0.904181
0.868647
0.841981
0.811832
0.784262
0.757883
0.733699
0.712367
0.694074
0.678897
0.666627
0.656851
0.649166
0.643725
0.644013
0.64403
0.643737
0.649171
0.656827
0.666541
0.678704
0.693755
0.711785
0.733105
0.756428
0.783789
0.808615
0.841674
0.86449
0.902373
0.927859
0.972205
0.999082
1.07912
1.7226
1.75603
1.06615
0.97647
0.946629
0.90316
0.875752
0.844644
0.815456
0.787724
0.758637
0.732501
0.707732
0.685648
0.666219
0.64957
0.635621
0.624249
0.615269
0.608832
0.608599
0.608618
0.608836
0.615248
0.624174
0.635457
0.649274
0.665796
0.684959
0.707149
0.730988
0.758686
0.784414
0.817116
0.840637
0.877273
0.902424
0.945913
0.974077
1.05839
1.72932
1.75166
1.03333
0.941463
0.910395
0.868257
0.838604
0.812338
0.780628
0.754746
0.724791
0.698373
0.673263
0.650855
0.631024
0.613952
0.599666
0.58809
0.578967
0.57239
0.571975
0.571989
0.572376
0.578902
0.587939
0.59939
0.613509
0.630425
0.649973
0.672491
0.696592
0.72482
0.750806
0.783141
0.806672
0.841387
0.865394
0.90782
0.936239
1.02242
1.72342
1.75249
1.01217
0.915826
0.883168
0.842608
0.81132
0.786622
0.755473
0.728459
0.698138
0.670432
0.643621
0.619639
0.598202
0.57978
0.564403
0.552037
0.542365
0.535358
0.534588
0.534589
0.535314
0.54224
0.551803
0.564024
0.579238
0.597522
0.618782
0.642914
0.669128
0.698592
0.725995
0.759718
0.783968
0.818812
0.84335
0.885021
0.914015
1.00276
1.72593
1.74209
0.980747
0.882521
0.84758
0.808584
0.775577
0.75235
0.720018
0.694795
0.662705
0.636255
0.608606
0.584598
0.56254
0.543605
0.527646
0.514732
0.504559
0.49709
0.495882
0.495859
0.497006
0.504364
0.514415
0.527192
0.543031
0.561898
0.583972
0.60816
0.635926
0.663722
0.694677
0.725908
0.752315
0.786155
0.810272
0.850179
0.878593
0.969313
1.71627
1.73895
0.960186
0.858396
0.819345
0.78116
0.745719
0.721806
0.691041
0.661422
0.633329
0.602087
0.575836
0.549591
0.527012
0.506954
0.490175
0.476473
0.465618
0.457552
0.455792
0.455731
0.457423
0.465356
0.476103
0.489716
0.506468
0.52663
0.549388
0.576284
0.602812
0.63634
0.663979
0.700152
0.726719
0.761057
0.786452
0.826034
0.855437
0.949034
1.71534
1.7263
0.932579
0.828758
0.784983
0.748907
0.712355
0.687944
0.656491
0.629723
0.597548
0.570155
0.540635
0.515066
0.490936
0.470101
0.452276
0.43767
0.425981
0.417204
0.41478
0.414674
0.417032
0.425674
0.437307
0.451921
0.469884
0.491012
0.515756
0.54209
0.573167
0.602504
0.636671
0.669609
0.698285
0.733252
0.758704
0.796416
0.824884
0.920721
1.70459
1.7219
0.912251
0.805048
0.755393
0.719401
0.681737
0.65587
0.625276
0.596201
0.567242
0.536353
0.508314
0.480614
0.45586
0.433652
0.414703
0.398975
0.386279
0.376651
0.373441
0.373289
0.376455
0.385978
0.398713
0.414603
0.4339
0.456735
0.482398
0.511692
0.541555
0.576106
0.607796
0.643895
0.673904
0.70898
0.735296
0.772243
0.800764
0.899897
1.70102
1.71128
0.8899
0.780183
0.725593
0.689248
0.650983
0.623487
0.593523
0.565325
0.535254
0.505898
0.476073
0.448083
0.421807
0.398353
0.378002
0.360965
0.347042
0.336387
0.332254
0.332064
0.336204
0.346823
0.360925
0.378329
0.399312
0.423728
0.451489
0.481526
0.514612
0.548017
0.583451
0.618704
0.65054
0.686233
0.713282
0.749043
0.77611
0.877562
1.69073
1.71091
0.871614
0.757612
0.697512
0.65957
0.621142
0.592197
0.56308
0.535175
0.506206
0.476231
0.446432
0.417156
0.389684
0.364657
0.342728
0.324115
0.308696
0.296778
0.29155
0.291341
0.296663
0.308654
0.324435
0.343664
0.366535
0.392947
0.422408
0.454649
0.488543
0.524445
0.560105
0.596655
0.630184
0.666078
0.694363
0.7293
0.754562
0.85897
1.68495
1.71157
0.854557
0.735918
0.669442
0.629107
0.59129
0.561632
0.533829
0.506968
0.478708
0.44927
0.418926
0.388812
0.359889
0.333191
0.309421
0.288932
0.271672
0.258172
0.251619
0.251419
0.258194
0.271918
0.289752
0.311122
0.336165
0.364667
0.396202
0.430102
0.465937
0.502759
0.540048
0.577143
0.612073
0.64845
0.678233
0.712335
0.735121
0.841826
1.67557
1.68925
0.837839
0.715105
0.640364
0.59676
0.560979
0.53218
0.506256
0.480872
0.453822
0.424878
0.394402
0.363403
0.33309
0.304582
0.278749
0.256047
0.236524
0.221008
0.212806
0.212652
0.221252
0.237178
0.257498
0.281344
0.308769
0.339517
0.373068
0.408836
0.446141
0.484404
0.522685
0.560545
0.596692
0.633453
0.66494
0.698558
0.718634
0.827442
1.66778
1.68596
0.821269
0.693246
0.607889
0.561936
0.529612
0.50411
0.480929
0.457547
0.431908
0.403655
0.373108
0.341374
0.309706
0.279352
0.251275
0.226023
0.203733
0.185598
0.175258
0.175199
0.186171
0.204929
0.228234
0.254872
0.284842
0.317862
0.353411
0.390874
0.429653
0.469065
0.508346
0.546863
0.583905
0.620988
0.654218
0.687661
0.705601
0.815509
1.65902
1.70336
0.802007
0.665907
0.569782
0.524279
0.497222
0.478551
0.458599
0.437728
0.413591
0.386009
0.355469
0.323083
0.290146
0.257957
0.227515
0.199377
0.173688
0.152021
0.138694
0.138797
0.153065
0.175578
0.202477
0.232217
0.264835
0.300097
0.337524
0.376548
0.416596
0.457043
0.497136
0.536228
0.573909
0.611188
0.645871
0.67905
0.697022
0.806786
1.65112
1.68432
0.761921
0.614444
0.515808
0.480822
0.468251
0.457475
0.441218
0.422543
0.399503
0.372188
0.341422
0.308282
0.274031
0.239946
0.206979
0.175558
0.145606
0.118839
0.100656
0.101017
0.120513
0.148279
0.179532
0.212666
0.247976
0.285399
0.324563
0.364979
0.40614
0.447464
0.488239
0.527819
0.565931
0.603348
0.639051
0.672092
0.690885
0.800626
1.64339
1.45229
0.561244
0.468532
0.426346
0.427762
0.439399
0.439765
0.429315
0.412023
0.389793
0.362754
0.331833
0.29808
0.262721
0.226974
0.191678
0.15699
0.122239
0.088335
0.0609136
0.0617856
0.0909294
0.125835
0.161912
0.198405
0.23622
0.275586
0.316289
0.357938
0.400087
0.442198
0.483595
0.52363
0.562104
0.599613
0.636021
0.668787
0.688596
0.798895
1.63892
)
;

boundaryField
{
    inlet
    {
        type            calculated;
        value           uniform 0;
    }
    outlet
    {
        type            calculated;
        value           nonuniform List<scalar> 
165
(
1.45229
1.68432
1.70336
1.68596
1.68925
1.71157
1.71091
1.71128
1.7219
1.7263
1.73895
1.74209
1.75249
1.75166
1.75603
1.74803
1.73984
1.67655
1.69002
2.31158
2.31158
1.68483
1.66258
1.71776
1.72254
1.72969
1.72375
1.72633
1.71649
1.71539
1.70476
1.70087
1.69079
1.68447
1.67529
1.66742
1.65919
1.65138
1.64488
1.64225
1.64225
1.64488
1.65138
1.65918
1.66742
1.67529
1.68446
1.69078
1.70085
1.70472
1.71535
1.71643
1.72628
1.72366
1.72963
1.72249
1.71793
1.66264
1.68468
2.31229
1.63892
1.64339
1.65112
1.65902
1.66778
1.67557
1.68495
1.69073
1.70102
1.70459
1.71534
1.71627
1.72593
1.72342
1.72932
1.7226
1.71825
1.6625
1.68359
2.31229
1.6366
1.63591
1.63516
1.63591
1.6366
2.31229
1.68359
1.6625
1.71825
1.7226
1.72932
1.72342
1.72593
1.71627
1.71534
1.70459
1.70102
1.69073
1.68495
1.67557
1.66778
1.65902
1.65112
1.64339
1.63892
2.31158
1.68483
1.66258
1.71776
1.72254
1.72969
1.72375
1.72633
1.71649
1.71539
1.70476
1.70087
1.69079
1.68447
1.67529
1.66742
1.65919
1.65138
1.64488
1.64225
1.64225
1.64488
1.65138
1.65918
1.66742
1.67529
1.68446
1.69078
1.70085
1.70472
1.71535
1.71643
1.72628
1.72366
1.72963
1.72249
1.71793
1.66264
1.68468
2.31229
2.31158
1.69002
1.67655
1.73984
1.74803
1.75603
1.75166
1.75249
1.74209
1.73895
1.7263
1.7219
1.71128
1.71091
1.71157
1.68925
1.68596
1.70336
1.68432
1.45229
)
;
    }
    obstacle
    {
        type            calculated;
        value           nonuniform List<scalar> 
40
(
0.330986
0.0583512
0.0612885
0.0658536
0.0701162
0.0745109
0.0788619
0.0829105
0.0862008
0.0780713
0.330986
0.0583512
0.0612885
0.0658536
0.0701162
0.0745109
0.0788619
0.0829105
0.0862008
0.0780713
0.0915459
0.121337
0.153662
0.205973
0.337145
0.0915459
0.121337
0.153662
0.205973
0.337145
0.400898
0.332826
0.298309
0.284773
0.368855
0.400898
0.332826
0.298309
0.284773
0.368855
)
;
    }
    empty
    {
        type            empty;
    }
}


// ************************************************************************* //
