/*--------------------------------*- C++ -*----------------------------------*\
| =========                 |                                                 |
| \\      /  F ield         | OpenFOAM: The Open Source CFD Toolbox           |
|  \\    /   O peration     | Version:  v1912                                 |
|   \\  /    A nd           | Website:  www.openfoam.com                      |
|    \\/     M anipulation  |                                                 |
\*---------------------------------------------------------------------------*/
FoamFile
{
    version     2.0;
    format      ascii;
    class       volVectorField;
    location    "9.1";
    object      grad(T);
}
// * * * * * * * * * * * * * * * * * * * * * * * * * * * * * * * * * * * * * //

dimensions      [0 -1 0 1 0 0 0];


internalField   nonuniform List<vector> 
1900
(
(-1.86409 -3.14224e-05 0)
(2.01929 -4.80908e-06 0)
(-0.097971 -3.12837e-06 0)
(-0.327413 1.45435e-05 0)
(-0.24147 -2.85231e-05 0)
(-0.0918436 2.74856e-05 0)
(-0.0137035 0.000239648 0)
(0.026564 0.000141158 0)
(0.0481715 -0.000370236 0)
(0.0716531 -0.00159352 0)
(-1.86413 -5.7943e-05 0)
(2.01932 -8.6798e-06 0)
(-0.0979517 -3.81805e-06 0)
(-0.327438 3.82361e-05 0)
(-0.241457 -1.02135e-05 0)
(-0.0915754 9.59029e-05 0)
(-0.0135898 0.00036628 0)
(0.0259541 -0.000258981 0)
(0.0464369 -0.00324567 0)
(0.0400573 -0.00548401 0)
(-1.86416 -4.11997e-13 0)
(2.01935 -3.62124e-13 0)
(-0.0979241 -3.33934e-13 0)
(-0.327419 -4.53197e-13 0)
(-0.241413 -4.30428e-13 0)
(-0.0914671 -2.10335e-13 0)
(-0.0140583 7.58942e-15 0)
(0.022952 4.33681e-15 0)
(0.0429465 -7.69784e-14 0)
(0.037182 -5.52943e-14 0)
(-1.86413 5.7943e-05 0)
(2.01932 8.6798e-06 0)
(-0.0979517 3.81805e-06 0)
(-0.327438 -3.82361e-05 0)
(-0.241457 1.02135e-05 0)
(-0.0915754 -9.59029e-05 0)
(-0.0135898 -0.00036628 0)
(0.0259541 0.000258981 0)
(0.0464369 0.00324567 0)
(0.0400573 0.00548401 0)
(-1.86409 3.14224e-05 0)
(2.01929 4.80908e-06 0)
(-0.097971 3.12837e-06 0)
(-0.327413 -1.45435e-05 0)
(-0.24147 2.85231e-05 0)
(-0.0918436 -2.74856e-05 0)
(-0.0137035 -0.000239648 0)
(0.026564 -0.000141158 0)
(0.0481715 0.000370236 0)
(0.0716531 0.00159352 0)
(0.029831 -0.0278559 9.40967e-16)
(-0.000829945 -0.0208296 -1.12965e-15)
(0.104728 -0.0338676 -1.43497e-15)
(0.388744 -0.0629387 0)
(-0.512839 -0.320975 -6.46762e-15)
(0.0139389 -0.0336847 9.35933e-16)
(0.0101873 -0.0246806 1.12965e-15)
(0.086108 -0.0393789 1.43497e-15)
(0.283286 -0.0615034 0)
(-0.444974 -0.344192 0)
(0.00543613 -7.66012e-14 0)
(0.00612231 -9.27278e-14 0)
(0.0785964 -4.81868e-14 0)
(0.254769 3.28546e-14 0)
(-0.577941 1.16165e-13 0)
(0.0139389 0.0336847 9.35933e-16)
(0.0101873 0.0246806 1.12965e-15)
(0.086108 0.0393789 1.43497e-15)
(0.283286 0.0615034 0)
(-0.444974 0.344192 0)
(0.029831 0.0278559 -2.81283e-15)
(-0.000829945 0.0208296 -1.12965e-15)
(0.104728 0.0338676 -1.43497e-15)
(0.388744 0.0629387 -3.95568e-15)
(-0.512839 0.320975 6.46762e-15)
(-1.87494 0.454292 2.18875e-15)
(-0.963565 0.315455 -1.58364e-15)
(-0.590475 0.217755 0)
(-0.421106 0.193738 1.01511e-15)
(-0.297966 0.0829477 -4.24872e-16)
(-1.67164 0.4542 -1.10121e-15)
(-1.00434 0.208209 7.96568e-16)
(-0.609866 0.114382 0)
(-0.461765 0.12267 -6.39011e-16)
(-0.293597 -0.0389026 1.0655e-16)
(-1.72709 1.53322e-13 0)
(-1.06079 5.56001e-14 0)
(-0.622054 7.22801e-14 0)
(-0.494511 7.4406e-14 2.57082e-16)
(-0.278787 1.93381e-13 -2.13099e-16)
(-1.67164 -0.4542 -1.10121e-15)
(-1.00434 -0.208209 7.96568e-16)
(-0.609866 -0.114382 0)
(-0.461765 -0.12267 -6.39011e-16)
(-0.293597 0.0389026 1.0655e-16)
(-1.87494 -0.454292 1.10121e-15)
(-0.963565 -0.315455 -9.50046e-18)
(-0.590475 -0.217755 0)
(-0.421106 -0.193738 5.83477e-18)
(-0.297966 -0.0829477 4.24872e-16)
(-0.168408 0.829703 0)
(-0.0932226 1.07063 0)
(-0.0643113 1.159 0)
(-0.0414281 1.1089 0)
(-0.0456602 1.00054 0)
(-0.0567586 0.893622 0)
(-0.0680317 0.792419 0)
(-0.0718576 0.701944 0)
(-0.0677823 0.619957 0)
(-0.051896 0.545602 0)
(-0.040751 0.49924 0)
(-0.0561153 0.456471 0)
(-0.0414159 0.415712 0)
(0.00849738 0.362205 0)
(0.129507 0.355874 0)
(0.316087 0.381873 0)
(0.283909 0.391118 0)
(0.121258 0.324381 0)
(0.0523252 0.276213 0)
(0.0311885 0.230682 0)
(0.0527487 0.177396 0)
(0.0754817 0.10377 0)
(0.0420857 0.0382802 0)
(-0.0194688 0.0286851 0)
(-0.0862053 -0.00581113 0)
(-0.154515 -0.0517554 0)
(0.168396 -0.0485551 0)
(0.496103 -0.0322046 0)
(0.0119744 -0.0213664 0)
(-0.600522 0.00242974 0)
(-0.431762 0.0132238 0)
(-0.0222805 0.00371675 0)
(0.0728372 0.0024181 0)
(0.0612574 0.00163872 0)
(0.0301653 0.000263239 0)
(0.00589353 -0.000991608 0)
(-0.00689088 -0.00191955 0)
(-0.00935372 -0.00186007 0)
(-0.00446796 -0.00145716 0)
(-0.000894312 -0.00116623 0)
(-0.0418516 0.210705 0)
(0.0292586 0.482455 0)
(-0.0339066 0.775127 0)
(-0.0697572 0.78291 0)
(-0.0856258 0.728601 0)
(-0.0919709 0.652301 0)
(-0.0957437 0.581615 0)
(-0.0948666 0.520852 0)
(-0.0899804 0.464009 0)
(-0.0707235 0.404951 0)
(-0.0561611 0.365417 0)
(-0.0698275 0.325485 0)
(-0.0598611 0.296174 0)
(-0.00571867 0.231388 0)
(0.130465 0.222379 0)
(0.319431 0.230498 0)
(0.275232 0.234276 0)
(0.105541 0.192131 0)
(0.0401754 0.160599 0)
(0.0190278 0.133179 0)
(0.0367385 0.102056 0)
(0.0572155 0.0574795 0)
(0.0351048 0.015284 0)
(-0.0225426 0.00900589 0)
(-0.0946114 -0.00747761 0)
(-0.157304 -0.0158394 0)
(0.171943 -0.00789445 0)
(0.496233 0.00841664 0)
(0.0120391 0.000998964 0)
(-0.597708 0.00729331 0)
(-0.432341 0.00555727 0)
(-0.0233242 0.00150536 0)
(0.0726524 0.000930943 0)
(0.0610949 0.000680479 0)
(0.0299353 0.000155288 0)
(0.00569823 -0.000556914 0)
(-0.0069339 -0.00119024 0)
(-0.00933961 -0.00122428 0)
(-0.00452126 -0.00130567 0)
(-0.000933304 -0.00153436 0)
(-0.00165494 3.15404e-14 0)
(0.0709731 1.73472e-13 0)
(0.0230938 -4.73106e-14 0)
(-0.054963 -3.33146e-13 0)
(-0.0836556 -3.21318e-13 0)
(-0.099518 -5.18446e-13 0)
(-0.106271 -4.80992e-13 0)
(-0.10607 -3.78485e-13 0)
(-0.101499 -3.21318e-13 0)
(-0.0805774 -2.7795e-13 0)
(-0.0638685 -2.1684e-13 0)
(-0.0762587 -2.81893e-13 0)
(-0.0687896 -5.7167e-13 0)
(-0.0129703 -4.98733e-13 0)
(0.129248 -5.36187e-13 0)
(0.319548 -2.95692e-13 0)
(0.272747 -2.44438e-13 0)
(0.099825 -1.14334e-13 0)
(0.0351753 -1.99099e-13 0)
(0.0141579 -4.67193e-13 0)
(0.0307271 -3.46945e-13 0)
(0.0502388 1.13348e-12 0)
(0.0279843 -1.40946e-11 0)
(-0.0260903 -1.44672e-11 0)
(-0.093433 1.13546e-12 0)
(-0.154636 1.68938e-12 0)
(0.175453 -7.29372e-14 0)
(0.49869 -7.76683e-13 0)
(0.0116477 2.31428e-12 0)
(-0.599196 8.9496e-13 0)
(-0.433446 -1.36609e-12 0)
(-0.0236263 -6.70234e-14 0)
(0.0725973 3.94255e-15 0)
(0.0610318 -2.12898e-13 0)
(0.0298053 -1.95156e-13 0)
(0.0055021 -3.27232e-13 0)
(-0.00708502 -2.40496e-13 0)
(-0.0093873 -3.03577e-13 0)
(-0.00455817 -2.38524e-13 0)
(-0.000960841 -1.57702e-13 0)
(-0.0418516 -0.210705 0)
(0.0292586 -0.482455 0)
(-0.0339066 -0.775127 0)
(-0.0697572 -0.78291 0)
(-0.0856258 -0.728601 0)
(-0.0919709 -0.652301 0)
(-0.0957437 -0.581615 0)
(-0.0948666 -0.520852 0)
(-0.0899804 -0.464009 0)
(-0.0707235 -0.404951 0)
(-0.0561611 -0.365417 0)
(-0.0698275 -0.325485 0)
(-0.0598611 -0.296174 0)
(-0.00571867 -0.231388 0)
(0.130465 -0.222379 0)
(0.319431 -0.230498 0)
(0.275232 -0.234276 0)
(0.105541 -0.192131 0)
(0.0401754 -0.160599 0)
(0.0190278 -0.133179 0)
(0.0367385 -0.102056 0)
(0.0572155 -0.0574795 0)
(0.0351048 -0.015284 0)
(-0.0225426 -0.00900589 0)
(-0.0946114 0.00747761 0)
(-0.157304 0.0158394 0)
(0.171943 0.00789445 0)
(0.496233 -0.00841664 0)
(0.0120391 -0.000998964 0)
(-0.597708 -0.00729331 0)
(-0.432341 -0.00555727 0)
(-0.0233242 -0.00150536 0)
(0.0726524 -0.000930943 0)
(0.0610949 -0.000680479 0)
(0.0299353 -0.000155288 0)
(0.00569823 0.000556914 0)
(-0.0069339 0.00119024 0)
(-0.00933961 0.00122428 0)
(-0.00452126 0.00130567 0)
(-0.000933304 0.00153436 0)
(-0.168408 -0.829703 0)
(-0.0932226 -1.07063 0)
(-0.0643113 -1.159 0)
(-0.0414281 -1.1089 0)
(-0.0456602 -1.00054 0)
(-0.0567586 -0.893622 0)
(-0.0680317 -0.792419 0)
(-0.0718576 -0.701944 0)
(-0.0677823 -0.619957 0)
(-0.051896 -0.545602 0)
(-0.040751 -0.49924 0)
(-0.0561153 -0.456471 0)
(-0.0414159 -0.415712 0)
(0.00849738 -0.362205 0)
(0.129507 -0.355874 0)
(0.316087 -0.381873 0)
(0.283909 -0.391118 0)
(0.121258 -0.324381 0)
(0.0523252 -0.276213 0)
(0.0311885 -0.230682 0)
(0.0527487 -0.177396 0)
(0.0754817 -0.10377 0)
(0.0420857 -0.0382802 0)
(-0.0194688 -0.0286851 0)
(-0.0862053 0.00581113 0)
(-0.154515 0.0517554 0)
(0.168396 0.0485551 0)
(0.496103 0.0322046 0)
(0.0119744 0.0213664 0)
(-0.600522 -0.00242974 0)
(-0.431762 -0.0132238 0)
(-0.0222805 -0.00371675 0)
(0.0728372 -0.0024181 0)
(0.0612574 -0.00163872 0)
(0.0301653 -0.000263239 0)
(0.00589353 0.000991608 0)
(-0.00689088 0.00191955 0)
(-0.00935372 0.00186007 0)
(-0.00446796 0.00145716 0)
(-0.000894312 0.00116623 0)
(-0.0190021 -0.977092 0)
(-0.0356784 -0.908183 0)
(-0.02276 -0.848999 0)
(-0.00311704 -0.819633 0)
(0.00320294 -0.778515 0)
(-0.00213753 -0.728587 0)
(-0.00755111 -0.664352 0)
(-0.01329 -0.593957 0)
(-0.0175782 -0.527598 0)
(-0.0167699 -0.470432 0)
(-0.0180695 -0.427329 0)
(-0.0332875 -0.39793 0)
(-0.022058 -0.357747 0)
(0.0153789 -0.344009 0)
(0.119236 -0.340087 0)
(0.30119 -0.369882 0)
(0.301263 -0.390616 0)
(0.159444 -0.339183 0)
(0.0849017 -0.29008 0)
(0.066952 -0.243438 0)
(0.0978352 -0.186865 0)
(0.123359 -0.113075 0)
(0.0741318 -0.0473274 0)
(0.00156051 -0.0291005 0)
(-0.0538727 -0.0223667 0)
(-0.133718 -0.0100273 0)
(0.163781 0.00327828 0)
(0.47933 0.0127086 0)
(-0.00961123 -0.0119708 0)
(-0.616152 -0.0324548 0)
(-0.433817 -0.024266 0)
(-0.017753 -0.00538001 0)
(0.0737422 -0.00368986 0)
(0.0622587 -0.00267715 0)
(0.0313193 -0.000646055 0)
(0.00684162 0.00116098 0)
(-0.00643888 0.00252113 0)
(-0.00961335 0.00269029 0)
(-0.00501811 0.00167642 0)
(-0.00116088 0.000569109 0)
(0.000987384 -0.406592 0)
(-0.000645036 -0.388281 0)
(-0.00126301 -0.36736 0)
(0.00594916 -0.35257 0)
(0.0158737 -0.348724 0)
(0.0239631 -0.343192 0)
(0.0292707 -0.334881 0)
(0.0285182 -0.322755 0)
(0.0243297 -0.307213 0)
(0.0258913 -0.287458 0)
(0.0169526 -0.267284 0)
(-0.00130534 -0.248857 0)
(0.000163271 -0.220926 0)
(0.0218253 -0.215735 0)
(0.110082 -0.21635 0)
(0.275384 -0.229289 0)
(0.304186 -0.248512 0)
(0.197662 -0.230418 0)
(0.12712 -0.199985 0)
(0.111473 -0.169875 0)
(0.154195 -0.133338 0)
(0.184272 -0.0793016 0)
(0.105822 -0.037502 0)
(-0.00669237 -0.0376192 0)
(-0.0851634 -0.0540606 0)
(-0.140954 -0.0817669 0)
(0.19278 -0.0422518 0)
(0.490402 -0.0166826 0)
(-0.0199718 -0.056789 0)
(-0.603988 -0.0818908 0)
(-0.40457 -0.0321407 0)
(-0.00488044 -0.00365737 0)
(0.0749565 -0.00300359 0)
(0.0636536 -0.00312309 0)
(0.0332451 -0.00156995 0)
(0.00843714 0.000271149 0)
(-0.00565955 0.00153412 0)
(-0.0100285 0.00221139 0)
(-0.00621701 0.00133275 0)
(-0.00181841 0.000140819 0)
(-0.00135691 -0.0638769 0)
(0.00212707 -0.0658047 0)
(0.011652 -0.0688573 0)
(0.0148404 -0.0711875 0)
(0.0122398 -0.0754951 0)
(0.011203 -0.083427 0)
(0.0121433 -0.0936352 0)
(0.0133713 -0.105861 0)
(0.0164346 -0.115698 0)
(0.0217072 -0.120712 0)
(0.0191284 -0.129295 0)
(0.0113852 -0.128877 0)
(0.00985944 -0.114663 0)
(0.0197878 -0.100499 0)
(0.106174 -0.0876307 0)
(0.270197 -0.0758541 0)
(0.300175 -0.117685 0)
(0.206206 -0.132475 0)
(0.143243 -0.1258 0)
(0.131176 -0.109642 0)
(0.185115 -0.0827387 0)
(0.21571 -0.0427507 0)
(0.114298 -0.0390576 0)
(-0.0143959 -0.0507811 0)
(-0.096415 -0.0583521 0)
(-0.122338 -0.0711309 0)
(0.226499 0.00248512 0)
(0.465321 0.0198625 0)
(-0.0724482 -0.051523 0)
(-0.5924 -0.0940356 0)
(-0.358428 -0.0212362 0)
(0.0103246 0.00915965 0)
(0.0742571 0.00791432 0)
(0.0636403 0.00433673 0)
(0.0345901 0.00117723 0)
(0.00983281 0.000251713 0)
(-0.00456919 0.000576096 0)
(-0.00980739 0.0017865 0)
(-0.00701339 0.00144325 0)
(-0.00230947 0.000690231 0)
(-0.000870273 0.00314546 0)
(-0.00544431 0.00419743 0)
(-0.00645008 0.000382988 0)
(-0.000447253 -0.00709298 0)
(0.00407918 -0.0137327 0)
(0.00648259 -0.0185609 0)
(0.00765291 -0.0211644 0)
(0.00725771 -0.028941 0)
(0.0100186 -0.0364918 0)
(0.0127888 -0.0425666 0)
(0.00908448 -0.0552717 0)
(0.0127949 -0.0574645 0)
(0.0275095 -0.0443281 0)
(0.0478742 -0.0303093 0)
(0.13383 -0.0046794 0)
(0.246423 0.0161324 0)
(0.249624 -0.0535597 0)
(0.189843 -0.0770528 0)
(0.149122 -0.0759065 0)
(0.152968 -0.057561 0)
(0.218654 -0.0259076 0)
(0.226364 -0.00300568 0)
(0.0980837 -0.0440571 0)
(-0.0252852 -0.06222 0)
(-0.104773 -0.0711279 0)
(-0.0823295 -0.0672983 0)
(0.280465 0.0280029 0)
(0.438358 0.0821921 0)
(-0.129728 -0.00530508 0)
(-0.574803 -0.0531099 0)
(-0.305127 0.0399828 0)
(0.02321 0.0546644 0)
(0.070309 0.0384805 0)
(0.0571615 0.024177 0)
(0.0293086 0.0150516 0)
(0.00785787 0.00928598 0)
(-0.00418058 0.0030001 0)
(-0.00919286 0.00162667 0)
(-0.00727341 0.00162912 0)
(-0.00254405 0.00116893 0)
(-0.000343193 0.0238533 0)
(-0.000534947 0.024644 0)
(0.000772195 0.0296265 0)
(0.00123802 0.031133 0)
(0.00118894 0.0277215 0)
(0.00404149 0.0241176 0)
(0.00214056 0.0205457 0)
(-0.0013987 0.0157913 0)
(0.00330447 0.0126711 0)
(0.00361025 0.00535885 0)
(0.00477223 -0.00372609 0)
(0.0219308 0.0019263 0)
(0.0360272 0.0149665 0)
(0.0579947 0.0260412 0)
(0.150927 0.0540887 0)
(0.223094 0.0537945 0)
(0.210379 -0.00339464 0)
(0.184672 -0.0169327 0)
(0.162026 -0.01482 0)
(0.179357 0.00269907 0)
(0.237687 0.0393119 0)
(0.19822 0.0325075 0)
(0.0572374 -0.038415 0)
(-0.0404824 -0.0560297 0)
(-0.101309 -0.0553541 0)
(-0.0268123 -0.0199331 0)
(0.370553 0.167156 0)
(0.433225 0.280534 0)
(-0.20283 0.09041 0)
(-0.548759 0.0369666 0)
(-0.254573 0.163355 0)
(0.00887699 0.158492 0)
(0.0448783 0.121037 0)
(0.0410633 0.0837564 0)
(0.0202406 0.0542873 0)
(-0.00178046 0.0320822 0)
(-0.01195 0.0167076 0)
(-0.0111285 0.00620594 0)
(-0.00745449 0.00235711 0)
(-0.00275293 0.00121081 0)
(-0.000108341 0.0392765 0)
(0.00011903 0.0397417 0)
(-0.00019699 0.0405879 0)
(-0.00228306 0.0390434 0)
(-0.00268108 0.0369567 0)
(-0.000432272 0.0345151 0)
(-0.00037064 0.0287395 0)
(-0.00033054 0.0271029 0)
(-3.4518e-05 0.027502 0)
(-0.0030121 0.0206101 0)
(0.00577675 0.0218501 0)
(0.0308077 0.0296408 0)
(0.0507475 0.0328658 0)
(0.0855738 0.0471096 0)
(0.160574 0.0762633 0)
(0.19103 0.0554001 0)
(0.181468 0.0262871 0)
(0.178833 0.0174855 0)
(0.16804 0.0141925 0)
(0.205132 0.0392181 0)
(0.247379 0.0744576 0)
(0.151464 0.0293589 0)
(0.0127661 -0.0217627 0)
(-0.0416083 -0.0164778 0)
(-0.0699893 0.0172829 0)
(0.13209 0.136789 0)
(0.570006 0.423608 0)
(0.364402 0.371786 0)
(-0.364439 0.0722287 0)
(-0.50451 0.0502346 0)
(-0.188021 0.211067 0)
(-0.0175691 0.208482 0)
(-0.00170935 0.184655 0)
(-0.00716115 0.156935 0)
(-0.0204865 0.123924 0)
(-0.0283553 0.084052 0)
(-0.0291159 0.0482769 0)
(-0.0230215 0.0218597 0)
(-0.0120869 0.00678876 0)
(-0.00364867 0.00198219 0)
(0.000105083 0.0463366 0)
(0.000728692 0.0467171 0)
(9.92078e-05 0.0470933 0)
(-0.00226114 0.0472504 0)
(-0.00317464 0.0481781 0)
(-0.00387689 0.0476831 0)
(-0.00500214 0.0445699 0)
(-0.0025912 0.0420204 0)
(-0.00295224 0.039761 0)
(-0.00183606 0.0365817 0)
(0.0134746 0.0424187 0)
(0.032546 0.0491509 0)
(0.0528607 0.0486743 0)
(0.0998141 0.067571 0)
(0.158916 0.0826799 0)
(0.174936 0.0522722 0)
(0.173843 0.0505564 0)
(0.173017 0.0458135 0)
(0.182969 0.0445005 0)
(0.23743 0.0917699 0)
(0.228186 0.115014 0)
(0.105499 0.0458272 0)
(0.0130674 0.0679273 0)
(-0.00285657 0.147873 0)
(0.046385 0.215973 0)
(0.364737 0.340118 0)
(0.597005 0.427091 0)
(0.0946229 0.127842 0)
(-0.512689 -0.0896605 0)
(-0.414969 -0.0050145 0)
(-0.10208 0.132902 0)
(-0.0165748 0.141464 0)
(-0.00479401 0.141803 0)
(-0.0174588 0.146098 0)
(-0.0499926 0.150704 0)
(-0.0746771 0.134889 0)
(-0.0718807 0.0941645 0)
(-0.051108 0.0522789 0)
(-0.0266092 0.0215659 0)
(-0.00738472 0.00695631 0)
(0.000258297 0.0550324 0)
(0.000848166 0.0551561 0)
(0.000316897 0.0546272 0)
(-0.00123764 0.0547457 0)
(-0.00226408 0.0557772 0)
(-0.00390932 0.0554616 0)
(-0.00582741 0.0538023 0)
(-0.00496452 0.0537632 0)
(-0.00527543 0.0527835 0)
(-0.000451124 0.0557572 0)
(0.0178889 0.0635837 0)
(0.0368359 0.0718779 0)
(0.0684978 0.0821869 0)
(0.118343 0.0984088 0)
(0.145832 0.0939026 0)
(0.160074 0.0845161 0)
(0.175244 0.0886912 0)
(0.172997 0.0870417 0)
(0.212325 0.14032 0)
(0.273081 0.212305 0)
(0.203107 0.211018 0)
(0.10609 0.224038 0)
(0.111101 0.263865 0)
(0.101054 0.282381 0)
(0.115265 0.29596 0)
(0.335531 0.312977 0)
(0.365449 0.158815 0)
(-0.133558 -0.162332 0)
(-0.492464 -0.220267 0)
(-0.290041 -0.0196019 0)
(-0.0468689 0.0562951 0)
(-0.00899171 0.0680889 0)
(0.00275596 0.0707334 0)
(0.00141646 0.0794483 0)
(-0.0312873 0.101081 0)
(-0.0828389 0.122816 0)
(-0.108722 0.115183 0)
(-0.0929801 0.0833039 0)
(-0.0557613 0.0450085 0)
(-0.017727 0.0204807 0)
(0.000224259 0.0746881 0)
(0.000338196 0.0744935 0)
(-0.000296251 0.0735129 0)
(-0.00115294 0.0724864 0)
(-0.00248479 0.0706158 0)
(-0.00577997 0.0674842 0)
(-0.00663878 0.0646951 0)
(-0.00357291 0.0650868 0)
(-0.00103078 0.0674788 0)
(0.00857131 0.0754948 0)
(0.0290091 0.0879925 0)
(0.0504727 0.102736 0)
(0.0784269 0.120876 0)
(0.111104 0.133591 0)
(0.145529 0.132789 0)
(0.169914 0.15847 0)
(0.176277 0.189655 0)
(0.222769 0.278395 0)
(0.303677 0.404614 0)
(0.305558 0.433707 0)
(0.239492 0.361477 0)
(0.156424 0.32386 0)
(0.0692893 0.281262 0)
(0.0280714 0.200343 0)
(0.0758685 0.140983 0)
(0.23258 0.104489 0)
(0.13898 -0.0672014 0)
(-0.270675 -0.29895 0)
(-0.37515 -0.23552 0)
(-0.148463 -0.0176776 0)
(-0.0175777 0.0176944 0)
(-0.00266153 0.0248688 0)
(0.00615235 0.0265053 0)
(0.0117856 0.0285574 0)
(-0.00820186 0.0377079 0)
(-0.0610885 0.0670582 0)
(-0.109956 0.0873385 0)
(-0.118731 0.0846078 0)
(-0.0871479 0.0650816 0)
(-0.0310206 0.0390872 0)
(7.0791e-05 0.0994285 0)
(-0.000284313 0.0987257 0)
(-0.00161725 0.0961959 0)
(-0.00402936 0.0927891 0)
(-0.00708433 0.089144 0)
(-0.00961473 0.0892298 0)
(-0.00813765 0.0961731 0)
(-0.00228209 0.107719 0)
(0.00475411 0.120323 0)
(0.0193167 0.145938 0)
(0.044139 0.176216 0)
(0.0685239 0.202445 0)
(0.0982311 0.233986 0)
(0.129823 0.281359 0)
(0.169806 0.342905 0)
(0.214872 0.429733 0)
(0.290809 0.53677 0)
(0.380139 0.596737 0)
(0.361989 0.561619 0)
(0.231512 0.420159 0)
(0.0972544 0.282157 0)
(0.0287919 0.16759 0)
(-0.00792428 0.0953197 0)
(-0.034124 0.0546182 0)
(0.0228962 0.0121 0)
(0.134916 -0.0482056 0)
(-0.0233191 -0.227995 0)
(-0.295756 -0.325318 0)
(-0.22142 -0.150593 0)
(-0.0460348 -0.013514 0)
(-0.0058697 0.00321437 0)
(-0.000501242 0.00546608 0)
(0.0063105 0.00638186 0)
(0.0122117 0.00352991 0)
(0.00581344 0.0041184 0)
(-0.035013 0.0203487 0)
(-0.091811 0.0454642 0)
(-0.114428 0.0599948 0)
(-0.0996267 0.0653609 0)
(-0.0427762 0.055877 0)
(-0.000452971 0.129603 0)
(-0.0027769 0.128607 0)
(-0.00601704 0.129529 0)
(-0.00794844 0.137406 0)
(-0.00591468 0.156255 0)
(0.000993544 0.186091 0)
(0.0111778 0.227597 0)
(0.0196985 0.27937 0)
(0.0357991 0.346897 0)
(0.062432 0.418477 0)
(0.0834611 0.485515 0)
(0.106142 0.542579 0)
(0.154471 0.603689 0)
(0.216062 0.663385 0)
(0.288508 0.718791 0)
(0.356729 0.719905 0)
(0.337208 0.672841 0)
(0.246715 0.515171 0)
(0.13352 0.299605 0)
(0.0362581 0.137628 0)
(-0.00389306 0.0627056 0)
(-0.0236196 0.0333758 0)
(-0.0395745 0.00135152 0)
(-0.0521222 -0.0232537 0)
(-0.0232163 -0.0523785 0)
(0.00121546 -0.148179 0)
(-0.128055 -0.317265 0)
(-0.196088 -0.248 0)
(-0.074684 -0.0567944 0)
(-0.000248686 -0.00428177 0)
(0.000712156 0.00264293 0)
(0.000390777 0.0031764 0)
(0.00428658 0.00217742 0)
(0.0096045 -0.00170912 0)
(0.00800537 -0.00253619 0)
(-0.0212463 0.00326902 0)
(-0.0717517 0.0230185 0)
(-0.0995573 0.0411922 0)
(-0.0911159 0.0531733 0)
(-0.0401596 0.0617599 0)
(-0.000888968 0.200174 0)
(-0.000355943 0.205122 0)
(0.00686225 0.226744 0)
(0.0217249 0.277479 0)
(0.0398304 0.34727 0)
(0.0591337 0.430547 0)
(0.0817493 0.52054 0)
(0.112679 0.607167 0)
(0.138803 0.692191 0)
(0.152894 0.756236 0)
(0.163728 0.800822 0)
(0.182401 0.823744 0)
(0.214644 0.821907 0)
(0.240739 0.770195 0)
(0.22427 0.663648 0)
(0.170594 0.488038 0)
(0.09352 0.286757 0)
(0.0204752 0.129539 0)
(-0.00182467 0.0337175 0)
(0.00322745 0.00529367 0)
(-0.00320721 0.000790076 0)
(-0.0303311 -0.010976 0)
(-0.0624945 -0.0296173 0)
(-0.0859002 -0.0605032 0)
(-0.0974859 -0.123101 0)
(-0.120338 -0.24466 0)
(-0.11951 -0.27821 0)
(-0.0447567 -0.118954 0)
(0.0134358 -0.0103496 0)
(0.0112412 0.00181595 0)
(0.00131726 0.00274958 0)
(-0.000949825 0.00145825 0)
(0.00160264 -0.00088098 0)
(0.00766949 -0.00491414 0)
(0.0106106 -0.00704759 0)
(-0.0103876 -0.00290672 0)
(-0.0552668 0.0126525 0)
(-0.0853694 0.0318807 0)
(-0.0798068 0.0440938 0)
(-0.0345018 0.0557889 0)
(0.00431527 0.325344 0)
(0.0228268 0.350239 0)
(0.0637085 0.407063 0)
(0.108195 0.487342 0)
(0.141587 0.564341 0)
(0.167963 0.624195 0)
(0.181375 0.665501 0)
(0.185108 0.685222 0)
(0.179448 0.672464 0)
(0.167113 0.63737 0)
(0.148514 0.585031 0)
(0.12646 0.528804 0)
(0.102868 0.450113 0)
(0.0635576 0.332707 0)
(0.0166116 0.20082 0)
(-0.00645643 0.0873509 0)
(-0.00825504 0.0149455 0)
(0.00287631 -0.000672848 0)
(0.013793 0.0103771 0)
(0.00452805 0.00667153 0)
(-0.0195711 -0.0135355 0)
(-0.0529213 -0.0340865 0)
(-0.0873007 -0.0577976 0)
(-0.142206 -0.112407 0)
(-0.200676 -0.208786 0)
(-0.148253 -0.257264 0)
(-0.00692089 -0.154825 0)
(0.0620319 -0.0308378 0)
(0.0416946 0.00752268 0)
(0.0123741 0.00822956 0)
(0.000367461 0.00584009 0)
(-0.00310777 0.00238712 0)
(-0.00185408 -0.00191775 0)
(0.00366213 -0.0068311 0)
(0.0099398 -0.0132067 0)
(-0.00226254 -0.0147821 0)
(-0.0382293 -0.000578444 0)
(-0.0692593 0.0224499 0)
(-0.0680771 0.0389867 0)
(-0.0288898 0.0511891 0)
(0.0231 0.429801 0)
(0.0783912 0.448252 0)
(0.13898 0.482449 0)
(0.173284 0.506248 0)
(0.171707 0.499493 0)
(0.156615 0.456879 0)
(0.140557 0.392009 0)
(0.119389 0.321157 0)
(0.0926913 0.249497 0)
(0.06864 0.187823 0)
(0.0591099 0.135349 0)
(0.05239 0.0933989 0)
(0.0256775 0.049587 0)
(0.000510842 0.0113053 0)
(-0.0121641 -0.00259294 0)
(-0.00852224 0.00609874 0)
(0.00869715 0.0152772 0)
(0.0160729 0.0249827 0)
(0.00525264 0.0133716 0)
(-0.0198156 -0.00577622 0)
(-0.0424831 -0.029696 0)
(-0.0729837 -0.0602483 0)
(-0.137967 -0.116073 0)
(-0.231398 -0.20574 0)
(-0.237075 -0.235493 0)
(-0.068339 -0.144177 0)
(0.0986817 -0.0621911 0)
(0.111687 -0.0110754 0)
(0.0510825 0.0107007 0)
(0.00961981 0.0147542 0)
(-0.00431273 0.0107266 0)
(-0.00842556 0.00820393 0)
(-0.00728037 0.00360922 0)
(-0.00320894 -0.00368084 0)
(0.00294868 -0.0142223 0)
(0.00178148 -0.0231657 0)
(-0.0193887 -0.0154617 0)
(-0.047243 0.00676993 0)
(-0.0521127 0.0276388 0)
(-0.0227431 0.0401179 0)
(0.0220954 0.324907 0)
(0.0735609 0.312092 0)
(0.119595 0.293622 0)
(0.124618 0.245989 0)
(0.0940137 0.177824 0)
(0.0643884 0.105986 0)
(0.0505887 0.0409358 0)
(0.0477774 -0.00681042 0)
(0.0509622 -0.036021 0)
(0.0571158 -0.04553 0)
(0.0575242 -0.0415195 0)
(0.0438165 -0.0398983 0)
(0.02376 -0.0357634 0)
(0.0132752 -0.0148883 0)
(0.0115944 0.00724145 0)
(0.0107639 0.0308026 0)
(0.00994221 0.0319499 0)
(0.00103994 0.0189682 0)
(-0.0158473 -0.00176003 0)
(-0.0369734 -0.0262937 0)
(-0.0720624 -0.0656002 0)
(-0.136158 -0.139424 0)
(-0.227502 -0.230526 0)
(-0.257284 -0.249138 0)
(-0.141352 -0.137678 0)
(0.0187473 -0.0362881 0)
(0.121341 -0.0381597 0)
(0.132273 -0.0426372 0)
(0.066585 -0.022019 0)
(0.0123991 -0.00129772 0)
(-0.00594462 0.0049489 0)
(-0.00996635 0.00923751 0)
(-0.0133067 0.0104842 0)
(-0.013521 0.00397251 0)
(-0.00883648 -0.00753261 0)
(-0.00345683 -0.0227582 0)
(-0.0093823 -0.0283249 0)
(-0.0277261 -0.0141284 0)
(-0.0359418 0.00483496 0)
(-0.0168645 0.0150557 0)
(0.0107512 0.0837878 0)
(0.0482439 0.0705453 0)
(0.0752809 0.0410181 0)
(0.0616967 -0.010015 0)
(0.0367945 -0.058203 0)
(0.0247048 -0.0909865 0)
(0.0318627 -0.102356 0)
(0.0452304 -0.10362 0)
(0.0553798 -0.099544 0)
(0.0633415 -0.0918034 0)
(0.0645367 -0.0812308 0)
(0.0579368 -0.0643088 0)
(0.049778 -0.0356132 0)
(0.0419519 -0.00470289 0)
(0.0318653 0.0128165 0)
(0.0152877 0.0173966 0)
(-0.00270689 0.0111315 0)
(-0.0164111 -0.00849845 0)
(-0.0383634 -0.0423357 0)
(-0.0813343 -0.0991076 0)
(-0.151499 -0.183923 0)
(-0.231912 -0.267303 0)
(-0.243692 -0.265521 0)
(-0.141926 -0.152576 0)
(-0.031965 -0.0407614 0)
(0.0275601 -0.0141278 0)
(0.0925636 -0.043091 0)
(0.127241 -0.0836262 0)
(0.0909187 -0.0800246 0)
(0.0356071 -0.0532442 0)
(0.0058394 -0.0322147 0)
(-0.00309158 -0.0176333 0)
(-0.0123539 -0.00687254 0)
(-0.0205706 -0.000626886 0)
(-0.02281 -0.0029539 0)
(-0.0182547 -0.0161748 0)
(-0.0110727 -0.0288338 0)
(-0.015289 -0.0261916 0)
(-0.0239899 -0.00965888 0)
(-0.012894 0.000445406 0)
(0.00933443 -0.0345517 0)
(0.0323465 -0.0496296 0)
(0.0419644 -0.0848881 0)
(0.0290051 -0.118811 0)
(0.0159866 -0.135429 0)
(0.0218407 -0.134144 0)
(0.0384146 -0.123947 0)
(0.0504874 -0.118751 0)
(0.0623492 -0.11595 0)
(0.0747632 -0.112138 0)
(0.0840189 -0.1012 0)
(0.0877752 -0.0806852 0)
(0.0811984 -0.0534016 0)
(0.0599438 -0.0336339 0)
(0.0328903 -0.0270403 0)
(0.00914017 -0.0338716 0)
(-0.0150112 -0.0526419 0)
(-0.050483 -0.0954675 0)
(-0.103162 -0.165846 0)
(-0.173412 -0.248716 0)
(-0.234141 -0.302713 0)
(-0.214788 -0.265839 0)
(-0.116947 -0.150985 0)
(-0.0406976 -0.0494664 0)
(-0.00793857 -0.0193266 0)
(0.0165024 -0.0221728 0)
(0.0543694 -0.0432627 0)
(0.0966824 -0.0932008 0)
(0.0958621 -0.11736 0)
(0.0584705 -0.106745 0)
(0.0283714 -0.085376 0)
(0.0144543 -0.0665582 0)
(0.0030813 -0.0489658 0)
(-0.00974486 -0.0278127 0)
(-0.023819 -0.013914 0)
(-0.0283956 -0.0117394 0)
(-0.0190349 -0.0180906 0)
(-0.00924845 -0.0265721 0)
(-0.0102734 -0.0146556 0)
(-0.00712763 -0.00699635 0)
(-0.00377843 -0.0386659 0)
(-0.000262143 -0.0639943 0)
(0.00861481 -0.101292 0)
(0.0129933 -0.122423 0)
(0.0220193 -0.122149 0)
(0.0357692 -0.11226 0)
(0.0466959 -0.113122 0)
(0.052937 -0.11688 0)
(0.0617526 -0.121694 0)
(0.0775554 -0.125957 0)
(0.0948456 -0.125902 0)
(0.103997 -0.120732 0)
(0.0951184 -0.114259 0)
(0.0673545 -0.112074 0)
(0.0316363 -0.120259 0)
(-0.00938294 -0.14217 0)
(-0.0620629 -0.188248 0)
(-0.125498 -0.250323 0)
(-0.186039 -0.304171 0)
(-0.213225 -0.312478 0)
(-0.167999 -0.241207 0)
(-0.0857016 -0.127471 0)
(-0.0351876 -0.0464514 0)
(-0.0150552 -0.0208502 0)
(-0.00566385 -0.0137109 0)
(0.00449443 -0.0208664 0)
(0.0241183 -0.0362107 0)
(0.0558386 -0.0721445 0)
(0.0778671 -0.111552 0)
(0.0664277 -0.120971 0)
(0.0445648 -0.108484 0)
(0.0319947 -0.0935176 0)
(0.0249827 -0.0785771 0)
(0.0132066 -0.0558631 0)
(-0.00732126 -0.0349476 0)
(-0.0222795 -0.0198519 0)
(-0.025366 -0.0109852 0)
(-0.0119788 -0.0132058 0)
(-0.00512601 -0.0115131 0)
(-0.00551333 -0.01733 0)
(-0.015073 -0.0197711 0)
(-0.0280025 -0.0208513 0)
(-0.0143392 -0.0405027 0)
(0.00890627 -0.0589613 0)
(0.02578 -0.0674793 0)
(0.0305397 -0.0785817 0)
(0.0339623 -0.096705 0)
(0.0422271 -0.11644 0)
(0.053602 -0.130788 0)
(0.0707081 -0.136974 0)
(0.0890543 -0.138309 0)
(0.0989956 -0.141276 0)
(0.0895408 -0.148678 0)
(0.0541617 -0.165368 0)
(0.00388921 -0.195512 0)
(-0.0563769 -0.244378 0)
(-0.119232 -0.296905 0)
(-0.16219 -0.319729 0)
(-0.163056 -0.282924 0)
(-0.112738 -0.192543 0)
(-0.0558627 -0.0936826 0)
(-0.0271145 -0.0371996 0)
(-0.0142025 -0.0168987 0)
(-0.00914753 -0.0103455 0)
(-0.00795421 -0.0109785 0)
(-0.00517927 -0.0140021 0)
(0.00495595 -0.0233287 0)
(0.0240811 -0.0416099 0)
(0.0488112 -0.0732853 0)
(0.0614264 -0.0975256 0)
(0.0548264 -0.0969474 0)
(0.043274 -0.0841861 0)
(0.0393666 -0.073102 0)
(0.032298 -0.0581135 0)
(0.0108827 -0.0423349 0)
(-0.00530459 -0.0286612 0)
(-0.0126305 -0.0138376 0)
(-0.00975713 -0.00749841 0)
(-0.0142476 -0.0170076 0)
(-0.012733 -0.00917625 0)
(-0.00481938 -0.00494689 0)
(-0.0202399 0.00569363 0)
(-0.0281093 0.00310865 0)
(-0.0130023 -0.00859615 0)
(0.0031123 -0.0196266 0)
(0.00760627 -0.0321192 0)
(0.0102148 -0.0434255 0)
(0.0200934 -0.056763 0)
(0.0419651 -0.0663943 0)
(0.0703081 -0.068839 0)
(0.0906997 -0.0668094 0)
(0.0940049 -0.0671315 0)
(0.0719029 -0.0719885 0)
(0.0222229 -0.0854349 0)
(-0.0445007 -0.105132 0)
(-0.107089 -0.135651 0)
(-0.134674 -0.157758 0)
(-0.112026 -0.151676 0)
(-0.0634789 -0.105701 0)
(-0.0308648 -0.0483414 0)
(-0.0183043 -0.0207381 0)
(-0.0117098 -0.00936567 0)
(-0.00930999 -0.00475211 0)
(-0.00935031 -0.00428851 0)
(-0.00918752 -0.00496254 0)
(-0.00740668 -0.00556836 0)
(-0.00248553 -0.00727401 0)
(0.00769868 -0.0132906 0)
(0.0239847 -0.0242746 0)
(0.043626 -0.039054 0)
(0.0574193 -0.0427468 0)
(0.0549729 -0.0363633 0)
(0.0501072 -0.0306063 0)
(0.0428549 -0.0252174 0)
(0.02106 -0.0196511 0)
(0.0051816 -0.014656 0)
(-0.00497269 -0.0087692 0)
(-0.0150335 -0.00670922 0)
(-0.00674284 -0.0142447 0)
(0.0020332 0.00107873 0)
(-0.00481938 0.00494689 0)
(-0.0202399 -0.00569363 0)
(-0.0281093 -0.00310865 0)
(-0.0130023 0.00859615 0)
(0.0031123 0.0196266 0)
(0.00760627 0.0321192 0)
(0.0102148 0.0434255 0)
(0.0200934 0.056763 0)
(0.0419651 0.0663943 0)
(0.0703081 0.068839 0)
(0.0906997 0.0668094 0)
(0.0940049 0.0671315 0)
(0.0719029 0.0719885 0)
(0.0222229 0.0854349 0)
(-0.0445007 0.105132 0)
(-0.107089 0.135651 0)
(-0.134674 0.157758 0)
(-0.112026 0.151676 0)
(-0.0634789 0.105701 0)
(-0.0308648 0.0483414 0)
(-0.0183043 0.0207381 0)
(-0.0117098 0.00936567 0)
(-0.00930999 0.00475211 0)
(-0.00935031 0.00428851 0)
(-0.00918752 0.00496254 0)
(-0.00740668 0.00556836 0)
(-0.00248553 0.00727401 0)
(0.00769868 0.0132906 0)
(0.0239847 0.0242746 0)
(0.043626 0.039054 0)
(0.0574193 0.0427468 0)
(0.0549729 0.0363633 0)
(0.0501072 0.0306063 0)
(0.0428549 0.0252174 0)
(0.02106 0.0196511 0)
(0.0051816 0.014656 0)
(-0.00497269 0.0087692 0)
(-0.0150335 0.00670922 0)
(-0.00674284 0.0142447 0)
(0.0020332 -0.00107873 0)
(-0.015073 0.0197711 0)
(-0.0280025 0.0208513 0)
(-0.0143392 0.0405027 0)
(0.00890627 0.0589613 0)
(0.02578 0.0674793 0)
(0.0305397 0.0785817 0)
(0.0339623 0.096705 0)
(0.0422271 0.11644 0)
(0.053602 0.130788 0)
(0.0707081 0.136974 0)
(0.0890543 0.138309 0)
(0.0989956 0.141276 0)
(0.0895408 0.148678 0)
(0.0541617 0.165368 0)
(0.00388921 0.195512 0)
(-0.0563769 0.244378 0)
(-0.119232 0.296905 0)
(-0.16219 0.319729 0)
(-0.163056 0.282924 0)
(-0.112738 0.192543 0)
(-0.0558627 0.0936826 0)
(-0.0271145 0.0371996 0)
(-0.0142025 0.0168987 0)
(-0.00914753 0.0103455 0)
(-0.00795421 0.0109785 0)