/*--------------------------------*- C++ -*----------------------------------*\
| =========                 |                                                 |
| \\      /  F ield         | OpenFOAM: The Open Source CFD Toolbox           |
|  \\    /   O peration     | Version:  v1912                                 |
|   \\  /    A nd           | Website:  www.openfoam.com                      |
|    \\/     M anipulation  |                                                 |
\*---------------------------------------------------------------------------*/
FoamFile
{
    version     2.0;
    format      ascii;
    class       volScalarField;
    location    "9.1";
    object      rho;
}
// * * * * * * * * * * * * * * * * * * * * * * * * * * * * * * * * * * * * * //

dimensions      [1 -3 0 0 0 0 0];


internalField   nonuniform List<scalar> 
1900
(
5717.12
11194.4
11755.8
12211.1
12776.4
12982.9
12923
12766.4
12611.4
12460.2
5717.09
11194.4
11755.8
12211.3
12776.4
12982.8
12923.2
12766
12615.2
12467.5
5717.06
11194.4
11755.8
12211.5
12776.6
12983.3
12923.4
12762.1
12598.6
12452.7
5717.09
11194.4
11755.8
12211.3
12776.4
12982.8
12923.2
12766
12615.2
12467.5
5717.12
11194.4
11755.8
12211.1
12776.4
12982.9
12923
12766.4
12611.4
12460.2
12550.6
12350.9
12194.8
11825.4
11662
12379
12234.8
12096.4
11743.7
11245.6
12347
12211.8
12094.7
11787.7
11320
12379
12234.8
12096.4
11743.7
11245.6
12550.6
12350.9
12194.8
11825.4
11662
6170.08
4201.96
3249.96
2734.33
2185.7
6808.12
4527.15
3434.66
2878.19
2292.69
6996.88
4484.82
3362.43
2819.04
2217.31
6808.12
4527.15
3434.66
2878.19
2292.69
6170.08
4201.96
3249.96
2734.33
2185.7
2433.34
2685.01
2789.99
2821.41
2799.62
2752.85
2662.99
2552
2433.32
2310.05
2217.51
2121.2
1975.71
1863.69
1886.16
2189.37
2870.57
3051.19
3049.63
2997.62
2904.31
2815.29
2749.55
2707.29
2677.92
2632.29
2546.42
3365.03
3949.22
3068.56
2118.6
2015.67
2067.98
2127.86
2200.58
2298.83
2411.9
2532.9
2658.36
2783.73
2201.79
2407.81
2627.95
2628.54
2592.77
2536.38
2457.82
2368.34
2269.97
2166.3
2095.87
2015.03
1892.31
1797.79
1822.7
2127.31
2790
2975.09
2982.19
2945.25
2870.51
2796.85
2750.11
2722.85
2680.17
2637.41
2553.11
3376.68
3947.59
3071.7
2121.68
2016.66
2068.68
2128.46
2201.14
2299.53
2412.7
2533.87
2659.33
2784.61
2164.23
2281.32
2524.49
2563.83
2541.67
2495.29
2424.77
2340.34
2243.86
2141.12
2073.7
1994.85
1876.98
1785.63
1811.02
2115.06
2774.54
2962.01
2968.57
2934.15
2860.96
2792.34
2748.76
2712.09
2670.17
2635.72
2555.52
3387.81
3955.1
3074.33
2122.5
2016.94
2068.86
2128.6
2201.2
2299.43
2412.37
2533.42
2658.87
2784.28
2201.79
2407.81
2627.95
2628.54
2592.77
2536.38
2457.82
2368.34
2269.97
2166.3
2095.87
2015.03
1892.31
1797.79
1822.7
2127.31
2790
2975.09
2982.19
2945.25
2870.51
2796.85
2750.11
2722.85
2680.17
2637.41
2553.11
3376.68
3947.59
3071.7
2121.68
2016.66
2068.68
2128.46
2201.14
2299.53
2412.7
2533.87
2659.33
2784.61
2433.34
2685.01
2789.99
2821.41
2799.62
2752.85
2662.99
2552
2433.32
2310.05
2217.51
2121.2
1975.71
1863.69
1886.16
2189.37
2870.57
3051.19
3049.63
2997.62
2904.31
2815.29
2749.55
2707.29
2677.92
2632.29
2546.42
3365.03
3949.22
3068.56
2118.6
2015.67
2067.98
2127.86
2200.58
2298.83
2411.9
2532.9
2658.36
2783.73
3478.42
3386.38
3316.94
3248.61
3200.25
3136.52
3044.51
2944.03
2827.76
2687.55
2551.97
2411.8
2221.04
2057.44
2068.61
2367.55
3097.67
3272.89
3246.8
3145.86
3002.69
2864.27
2756.94
2703.18
2704.38
2702.71
2626.28
3452.53
3982.23
3057.13
2104.8
2011.38
2065.15
2125.43
2198.48
2297.12
2410.71
2532.01
2657.78
2783.14
4389.33
4146.36
3904.14
3673.45
3514.59
3387.2
3280.09
3196.24
3096.93
2980.02
2859.93
2716.53
2518.43
2322.57
2329.92
2629.79
3382.84
3551.56
3501.76
3344.13
3122.45
2914.86
2774.61
2689.83
2626.18
2572.32
2506.93
3357.28
3867.79
2954.74
2073.09
2004.17
2060.24
2120.4
2193.77
2293.45
2408.24
2530.47
2656.82
2781.84
4672.99
4421.83
4240.36
4086.66
3910.85
3727.46
3554.85
3406.14
3263.76
3137.13
3023
2886.61
2727.61
2529.53
2499.37
2815.28
3601.47
3770.4
3713.66
3517.9
3223.27
2961.53
2804.26
2702.98
2631.8
2566.22
2503.5
3360.44
3754.31
2818.27
2041.56
2002.63
2058.35
2115.75
2188.34
2288.2
2404.8
2528.95
2655.99
2780.68
4714.2
4513.15
4265.01
4032.78
3842.82
3667.45
3503.89
3343.91
3182.52
3047.74
2915.87
2760.38
2650.99
2590.08
2621.89
2998.81
3603.14
3703.56
3642.14
3428.76
3128.89
2897.32
2755.23
2659.12
2593.47
2524.07
2498.65
3371.25
3675.86
2711.08
2043.73
2031.29
2084.65
2132.95
2192.92
2285.6
2401.4
2526.7
2654.56
2779.41
4676.76
4480.49
4286.19
4102.09
3911.49
3729.01
3565.9
3374.49
3181.41
3033.17
2848.91
2702.93
2662.89
2646.61
2728.58
3198.17
3593.4
3639.29
3569.88
3332.25
3026.64
2819.5
2694.56
2610.38
2557.82
2489.6
2568.36
3529.28
3743.99
2727.77
2176.59
2155.62
2169.89
2185.97
2230.32
2308.49
2405.77
2524
2652.36
2777.45
4606.25
4423.79
4250.46
4070.05
3878.96
3698.19
3528.56
3351.72
3192.11
3030.48
2799.96
2716.62
2732.08
2761.28
2919.72
3338.22
3542.51
3552.36
3455.63
3174.81
2888.54
2733.13
2632.14
2568.38
2570.44
2526.21
2926.85
4191.85
4035.24
2951.59
2542.45
2495.67
2444.96
2383.8
2351.32
2371.93
2443.13
2536.7
2652.67
2775.3
4520.49
4350.62
4194.21
4028.72
3852.96
3683.06
3506.06
3330.69
3180.91
3009.59
2825.04
2776.9
2762.88
2796.11
2974.49
3288.88
3397.38
3384.66
3224.06
2937.73
2741.1
2647.22
2645.39
2662.8
2723.4
2922.46
3853.1
4826.71
4059.6
3038.88
2842.91
2811.25
2760.36
2680.75
2604.19
2557.17
2544.85
2585.14
2664.35
2772.35
4428.6
4269.68
4120.51
3966.49
3806.88
3647.6
3479.08
3309.89
3160.83
2986.04
2833.56
2792.14
2787.98
2863.2
3039.76
3161.91
3193.36
3132.58
2903.62
2712.14
2730.21
2737.92
2871.64
3188.27
3394.19
3643.19
4509.01
4746.84
3773.81
3030.9
2969.87
2966.27
2939.4
2886.99
2829.38
2780.03
2734.13
2703.13
2713.66
2767.98
4321.15
4175.44
4032.31
3884.32
3735.67
3580.03
3411.32
3253.77
3109.79
2946.36
2850.49
2837.48
2843.32
2881.67
2955.83
3009.38
2981.42
2816.92
2780.57
2843.15
3001.23
3352.9
3659.52
3801.91
3836.02
4017.54
4602.01
4360.58
3411.99
3035.44
3024.49
3035.02
3027.28
2995.81
2959.2
2927.38
2900.84
2862.13
2805.28
2762.92
4179.03
4053.83
3921.38
3778.19
3622.2
3455.53
3291.49
3144.2
3006.94
2881.58
2826.78
2836.49
2845.64
2881.75
2904.19
2920.77
2905.08
2989.99
3173.45
3468.7
3776.28
3998.89
4097.89
4030.91
3908.01
4020.09
4340.68
3829.85
3162.88
3043.36
3050.55
3059.64
3057.54
3035.18
3006.17
2984.65
2971.3
2956.63
2888.12
2765.3
3998.09
3869.91
3724.54
3570.08
3415.78
3269.9
3158.89
3090.07
3025.63
2996.97
2994.38
3004.02
3039.79
3126.52
3202.54
3301.15
3402.79
3568
3826.39
4054.47
4198.84
4206.4
4140.61
4023.38
3866.74
3851.95
3816.19
3337.07
3062.67
3060.73
3080.66
3091.38
3091.43
3068.21
3033.45
3003.24
2979.26
2965.42
2909.8
2752.61
3770.55
3627.72
3488.13
3388.88
3358.64
3362.26
3366.24
3389.58
3472.56
3567.95
3618.84
3658.41
3723.72
3737.45
3745.33
3771.04
3851.2
4002.56
4130.32
4221.52
4264.37
4237.88
4118.54
3930.4
3707.9
3478.45
3204.66
3039.03
3045.01
3079.88
3102.64
3114.39
3115.99
3098.37
3064.32
3030.67
2987.63
2949.6
2884.13
2719.75
3490.62
3417.46
3423.49
3497.51
3572.72
3668.18
3763.27
3837.07
3906.16
3938.9
3949
3959.37
3984.87
3968.86
3956.55
3983.67
4082.28
4156.78
4246.83
4288.43
4277.29
4186.54
4009.92
3751.15
3341.81
2904.82
2773.4
2895.68
3024.9
3076.15
3101.02
3115.59
3121.59
3112.32
3085.86
3050.47
2991.12
2923.2
2833.26
2679.48
3142.94
3267.72
3432.64
3568.04
3602.22
3591.1
3596.28
3622.57
3660.84
3694.72
3747.43
3872.36
4028.71
4105.41
4142.32
4155.51
4217.41
4286.14
4325.51
4296.79
4200.39
4047.14
3788.12
3357.29
2797.43
2481.01
2566.18
2814.64
2987.6
3047.54
3074.01
3093.35
3107.22
3107.03
3090.38
3054.67
2990.01
2906.03
2795.61
2649.73
2835.15
3060.84
3245.85
3339.47
3380.51
3402.11
3431.41
3473.79
3529.93
3629.45
3782.5
3954.85
4098.6
4190.78
4260.82
4309.39
4331.94
4336.97
4296.75
4201.99
4034.53
3766.22
3349.46
2814.71
2429.25
2354.13
2486.35
2745.32
2935.29
3014.06
3038.9
3058.34
3078.13
3085.23
3079.86
3049.61
2986.12
2892.86
2768.64
2631.98
2719.18
2893.02
3039.55
3119.11
3164.98
3193.46
3240.8
3330.26
3450.68
3604.85
3780.24
3959.19
4113.72
4235.28
4319.68
4359.56
4342.2
4281.25
4171.6
3994.08
3714.56
3306.6
2822.62
2481.56
2373.13
2380.19
2467.05
2682.59
2880.92
2979.09
3004.68
3024.74
3043.86
3051.06
3048.86
3025.63
2970.24
2877.62
2749.57
2622.72
2644.74
2741.32
2826.63
2881.93
2934.7
2990.91
3079.73
3192.91
3331.87
3494.46
3675.66
3865.16
4049.7
4198.24
4277.01
4287.12
4234.14
4113.02
3920.84
3634.68
3236.82
2815.16
2549.3
2460.11
2433.77
2451.26
2499.94
2643.17
2830.74
2951.85
2979.42
2984.58
2985.91
2985.99
2984.49
2969.35
2937.24
2869.56
2759.29
2633.68
2592.51
2636.57
2696.11
2738.21
2783.1
2844.88
2932.8
3036.79
3152.9
3288.6
3458.71
3655.1
3854.1
4005.85
4086.39
4087.76
3998.63
3810.56
3521.42
3150.56
2805.07
2616.65
2552.88
2536.6
2539.86
2546.41
2574.19
2641.91
2785.04
2920.94
2963.17
2953.04
2925.56
2906.08
2894.21
2877.94
2869.14
2826.03
2748.55
2637.15
2604.33
2626.92
2638.64
2657.56
2693.93
2741.27
2793.49
2864.05
2946.71
3051.19
3192.81
3363.55
3539.77
3678.72
3733.56
3709.74
3570.95
3324.22
3035.32
2806.84
2690.4
2646.71
2640.25
2647.2
2653.76
2656.92
2661.9
2688.73
2758.06
2851.69
2901.1
2893.66
2845.42
2803.32
2774.34
2754.3
2759.35
2744.94
2727.81
2642.89
2579.9
2577.6
2551.06
2566.03
2620.57
2666.98
2709.68
2763.56
2845.33
2951.2
3058.59
3127.03
3150.71
3098.36
2998.59
2899.32
2823.71
2764.65
2726.88
2715.39
2720.95
2730.54
2740.45
2748.73
2755.33
2760.62
2762.55
2762.88
2762.05
2761.72
2759.65
2735.55
2693.71
2660.92
2639.11
2627.3
2636.42
2635.34
2640.41
2677.64
2579.9
2577.6
2551.06
2566.03
2620.57
2666.98
2709.68
2763.56
2845.33
2951.2
3058.59
3127.03
3150.71
3098.36
2998.59
2899.32
2823.71
2764.65
2726.88
2715.39
2720.95
2730.54
2740.45
2748.73
2755.33
2760.62
2762.55
2762.88
2762.05
2761.72
2759.65
2735.55
2693.71
2660.92
2639.11
2627.3
2636.42
2635.34
2640.41
2677.64
2604.33
2626.92
2638.64
2657.56
2693.93
2741.27
2793.49
2864.05
2946.71
3051.19
3192.81
3363.55
3539.77
3678.72
3733.56
3709.74
3570.95
3324.22
3035.32
2806.84
2690.4
2646.71
2640.25
2647.2
2653.76
2656.92
2661.9
2688.73
2758.06
2851.69
2901.1
2893.66
2845.42
2803.32
2774.34
2754.3
2759.35
2744.94
2727.81
2642.89
2592.51
2636.57
2696.11
2738.21
2783.1
2844.88
2932.8
3036.79
3152.9
3288.6
3458.71
3655.1
3854.1
4005.85
4086.39
4087.76
3998.63
3810.56
3521.42
3150.56
2805.07
2616.65
2552.88
2536.6
2539.86
2546.41
2574.19
2641.91
2785.04
2920.94
2963.17
2953.04
2925.56
2906.08
2894.21
2877.94
2869.14
2826.03
2748.55
2637.15
2644.74
2741.32
2826.63
2881.93
2934.7
2990.91
3079.73
3192.91
3331.87
3494.46
3675.66
3865.16
4049.7
4198.24
4277.01
4287.12
4234.14
4113.02
3920.84
3634.68
3236.82
2815.16
2549.3
2460.11
2433.77
2451.26
2499.94
2643.17
2830.74
2951.85
2979.42
2984.58
2985.91
2985.99
2984.49
2969.35
2937.24
2869.56
2759.29
2633.68
2719.18
2893.02
3039.55
3119.11
3164.98
3193.46
3240.8
3330.26
3450.68
3604.85
3780.24
3959.19
4113.72
4235.28
4319.68
4359.56
4342.2
4281.25
4171.6
3994.08
3714.56
3306.6
2822.62
2481.56
2373.13
2380.19
2467.05
2682.59
2880.92
2979.09
3004.68
3024.74
3043.86
3051.06
3048.86
3025.63
2970.24
2877.62
2749.57
2622.72
2835.15
3060.84
3245.85
3339.47
3380.51
3402.11
3431.41
3473.79
3529.93
3629.45
3782.5
3954.85
4098.6
4190.78
4260.82
4309.39
4331.94
4336.97
4296.75
4201.99
4034.53
3766.22
3349.46
2814.71
2429.25
2354.13
2486.35
2745.32
2935.29
3014.06
3038.9
3058.34
3078.13
3085.23
3079.86
3049.61
2986.12
2892.86
2768.64
2631.98
3142.94
3267.72
3432.64
3568.04
3602.22
3591.1
3596.28
3622.57
3660.84
3694.72
3747.43
3872.36
4028.71
4105.41
4142.32
4155.51
4217.41
4286.14
4325.51
4296.79
4200.39
4047.14
3788.12
3357.29
2797.43
2481.01
2566.18
2814.64
2987.6
3047.54
3074.01
3093.35
3107.22
3107.03
3090.38
3054.67
2990.01
2906.03
2795.61
2649.73
3490.62
3417.46
3423.49
3497.51
3572.72
3668.18
3763.27
3837.07
3906.16
3938.9
3949
3959.37
3984.87
3968.86
3956.55
3983.67
4082.28
4156.78
4246.83
4288.43
4277.29
4186.54
4009.92
3751.15
3341.81
2904.82
2773.4
2895.68
3024.9
3076.15
3101.02
3115.59
3121.59
3112.32
3085.86
3050.47
2991.12
2923.2
2833.26
2679.48
3770.55
3627.72
3488.13
3388.88
3358.64
3362.26
3366.24
3389.58
3472.56
3567.95
3618.84
3658.41
3723.72
3737.45
3745.33
3771.04
3851.2
4002.56
4130.32
4221.52
4264.37
4237.88
4118.54
3930.4
3707.9
3478.45
3204.66
3039.03
3045.01
3079.88
3102.64
3114.39
3115.99
3098.37
3064.32
3030.67
2987.63
2949.6
2884.13
2719.75
3998.09
3869.91
3724.54
3570.08
3415.78
3269.9
3158.89
3090.07
3025.63
2996.97
2994.38
3004.02
3039.79
3126.52
3202.54
3301.15
3402.79
3568
3826.39
4054.47
4198.84
4206.4
4140.61
4023.38
3866.74
3851.95
3816.19
3337.07
3062.67
3060.73
3080.66
3091.38
3091.43
3068.21
3033.45
3003.24
2979.26
2965.42
2909.8
2752.61
4179.03
4053.83
3921.38
3778.19
3622.2
3455.53
3291.49
3144.2
3006.94
2881.58
2826.78
2836.49
2845.64
2881.75
2904.19
2920.77
2905.08
2989.99
3173.45
3468.7
3776.28
3998.89
4097.89
4030.91
3908.01
4020.09
4340.68
3829.85
3162.88
3043.36
3050.55
3059.64
3057.54
3035.18
3006.17
2984.65
2971.3
2956.63
2888.12
2765.3
4321.15
4175.44
4032.31
3884.32
3735.67
3580.03
3411.32
3253.77
3109.79
2946.36
2850.49
2837.48
2843.32
2881.67
2955.83
3009.38
2981.42
2816.92
2780.57
2843.15
3001.23
3352.9
3659.52
3801.91
3836.02
4017.54
4602.01
4360.58
3411.99
3035.44
3024.49
3035.02
3027.28
2995.81
2959.2
2927.38
2900.84
2862.13
2805.28
2762.92
4428.6
4269.68
4120.51
3966.49
3806.88
3647.6
3479.08
3309.89
3160.83
2986.04
2833.56
2792.14
2787.98
2863.2
3039.76
3161.91
3193.36
3132.58
2903.62
2712.14
2730.21
2737.92
2871.64
3188.27
3394.19
3643.19
4509.01
4746.84
3773.81
3030.9
2969.87
2966.27
2939.4
2886.99
2829.38
2780.03
2734.13
2703.13
2713.66
2767.98
4520.49
4350.62
4194.21
4028.72
3852.96
3683.06
3506.06
3330.69
3180.91
3009.59
2825.04
2776.9
2762.88
2796.11
2974.49
3288.88
3397.38
3384.66
3224.06
2937.73
2741.1
2647.22
2645.39
2662.8
2723.4
2922.46
3853.1
4826.71
4059.6
3038.88
2842.91
2811.25
2760.36
2680.75
2604.19
2557.17
2544.85
2585.14
2664.35
2772.35
4606.25
4423.79
4250.46
4070.05
3878.96
3698.19
3528.56
3351.72
3192.11
3030.48
2799.96
2716.62
2732.08
2761.28
2919.72
3338.22
3542.51
3552.36
3455.63
3174.81
2888.54
2733.13
2632.14
2568.38
2570.44
2526.21
2926.85
4191.85
4035.24
2951.59
2542.45
2495.67
2444.96
2383.8
2351.32
2371.93
2443.13
2536.7
2652.67
2775.3
4676.76
4480.49
4286.19
4102.09
3911.49
3729.01
3565.9
3374.49
3181.41
3033.17
2848.91
2702.93
2662.89
2646.61
2728.58
3198.17
3593.4
3639.29
3569.88
3332.25
3026.64
2819.5
2694.56
2610.38
2557.82
2489.6
2568.36
3529.28
3743.99
2727.77
2176.59
2155.62
2169.89
2185.97
2230.32
2308.49
2405.77
2524
2652.36
2777.45
4714.2
4513.15
4265.01
4032.78
3842.82
3667.45
3503.89
3343.91
3182.52
3047.74
2915.87
2760.38
2650.99
2590.08
2621.89
2998.81
3603.14
3703.56
3642.14
3428.76
3128.89
2897.32
2755.23
2659.12
2593.47
2524.07
2498.65
3371.25
3675.86
2711.08
2043.73
2031.29
2084.65
2132.95
2192.92
2285.6
2401.4
2526.7
2654.56
2779.41
4672.99
4421.83
4240.36
4086.66
3910.85
3727.46
3554.85
3406.14
3263.76
3137.13
3023
2886.61
2727.61
2529.53
2499.37
2815.28
3601.47
3770.4
3713.66
3517.9
3223.27
2961.53
2804.26
2702.98
2631.8
2566.22
2503.5
3360.44
3754.31
2818.27
2041.56
2002.63
2058.35
2115.75
2188.34
2288.2
2404.8
2528.95
2655.99
2780.68
4389.33
4146.36
3904.14
3673.45
3514.59
3387.2
3280.09
3196.24
3096.93
2980.02
2859.93
2716.53
2518.43
2322.57
2329.92
2629.79
3382.84
3551.56
3501.76
3344.13
3122.45
2914.86
2774.61
2689.83
2626.18
2572.32
2506.93
3357.28
3867.79
2954.74
2073.09
2004.17
2060.24
2120.4
2193.77
2293.45
2408.24
2530.47
2656.82
2781.84
3478.42
3386.38
3316.94
3248.61
3200.25
3136.52
3044.51
2944.03
2827.76
2687.55
2551.97
2411.8
2221.04
2057.44
2068.61
2367.55
3097.67
3272.89
3246.8
3145.86
3002.69
2864.27
2756.94
2703.18
2704.38
2702.71
2626.28
3452.53
3982.23
3057.13
2104.8
2011.38
2065.15
2125.43
2198.48
2297.12
2410.71
2532.01
2657.78
2783.14
)
;

boundaryField
{
    inlet
    {
        type            calculated;
        value           uniform 14000.1;
    }
    outlet
    {
        type            calculated;
        value           nonuniform List<scalar> 
165
(
3497.31
4536.71
4785.32
4800
4771.73
4698.18
4608.25
4512.25
4397.17
4241.67
4061.09
3841.89
3519.53
3106.83
2736.1
2608.44
2622.31
2653.71
2673.62
2680.33
2680.33
2687.15
2709.2
2727.62
2728.07
2723.08
2717
2708.28
2688.17
2649.14
2591.95
2529.74
2473.56
2442.47
2447.14
2495.76
2579.94
2672.18
2735.23
2764.28
2781.35
2792.03
2799.26
2806.36
2813.72
2820.65
2825.29
2824.54
2813.27
2787.45
2747.04
2702.48
2667.9
2632.46
2609.3
2604.1
2602.39
2610.74
2622.55
2619.8
2845.2
2845.24
2844.98
2844.18
2843.19
2842.33
2840.16
2831.73
2809.23
2773.62
2728.17
2686.51
2651.77
2618.35
2599.43
2598.96
2598.86
2607.94
2621.21
2619.8
2845.79
2846.05
2846.5
2846.05
2845.79
2619.8
2621.21
2607.94
2598.86
2598.96
2599.43
2618.35
2651.77
2686.51
2728.17
2773.62
2809.23
2831.73
2840.16
2842.33
2843.19
2844.18
2844.98
2845.24
2845.2
2680.33
2687.15
2709.2
2727.62
2728.07
2723.08
2717
2708.28
2688.17
2649.14
2591.95
2529.74
2473.56
2442.47
2447.14
2495.76
2579.94
2672.18
2735.23
2764.28
2781.35
2792.03
2799.26
2806.36
2813.72
2820.65
2825.29
2824.54
2813.27
2787.45
2747.04
2702.48
2667.9
2632.46
2609.3
2604.1
2602.39
2610.74
2622.55
2619.8
2680.33
2673.62
2653.71
2622.31
2608.44
2736.1
3106.83
3519.53
3841.89
4061.09
4241.67
4397.17
4512.25
4608.25
4698.18
4771.73
4800
4785.32
4536.71
3497.31
)
;
    }
    obstacle
    {
        type            calculated;
        value           nonuniform List<scalar> 
40
(
5717.12
11194.4
11755.8
12211.1
12776.4
12982.9
12923
12766.4
12611.4
12460.2
5717.12
11194.4
11755.8
12211.1
12776.4
12982.9
12923
12766.4
12611.4
12460.2
12550.6
12350.9
12194.8
11825.4
11662
12550.6
12350.9
12194.8
11825.4
11662
6170.08
4201.96
3249.96
2734.33
2185.7
6170.08
4201.96
3249.96
2734.33
2185.7
)
;
    }
    empty
    {
        type            empty;
    }
}


// ************************************************************************* //
