/*--------------------------------*- C++ -*----------------------------------*\
| =========                 |                                                 |
| \\      /  F ield         | OpenFOAM: The Open Source CFD Toolbox           |
|  \\    /   O peration     | Version:  v1912                                 |
|   \\  /    A nd           | Website:  www.openfoam.com                      |
|    \\/     M anipulation  |                                                 |
\*---------------------------------------------------------------------------*/
FoamFile
{
    version     2.0;
    format      ascii;
    class       volVectorField;
    location    "2.64";
    object      grad(p);
}
// * * * * * * * * * * * * * * * * * * * * * * * * * * * * * * * * * * * * * //

dimensions      [1 -2 -2 0 0 0 0];


internalField   nonuniform List<vector> 
1900
(
(36380.5 -0.0752548 0)
(-26202.1 -0.0611429 0)
(-838.012 0.352325 0)
(649.395 0.670661 0)
(598.842 1.04791 0)
(605.118 -1.66461 0)
(642.86 -13.1686 0)
(672.175 -71.8626 0)
(777.672 -143.67 0)
(-121.531 -171.356 0)
(36380.3 -0.252778 0)
(-26201.6 -0.153795 0)
(-837.28 0.389925 0)
(650.091 -0.0659299 0)
(596.507 -1.79316 0)
(590.902 -7.35305 0)
(572.662 -14.7389 0)
(541.673 -54.0817 0)
(678.179 -82.746 0)
(774.144 -208.282 0)
(36380.1 1.56319e-09 0)
(-26201.4 -8.52651e-10 0)
(-837.924 -7.28306e-10 0)
(647.212 -2.66454e-09 0)
(591.555 -3.53495e-09 0)
(592.172 -2.4869e-09 0)
(596.132 -4.44089e-10 0)
(604.168 7.10543e-11 0)
(623.472 -9.05942e-10 0)
(585.23 -3.90799e-10 0)
(36380.3 0.252778 0)
(-26201.6 0.153795 0)
(-837.28 -0.389925 0)
(650.091 0.0659299 0)
(596.507 1.79316 0)
(590.902 7.35305 0)
(572.662 14.7389 0)
(541.673 54.0817 0)
(678.179 82.746 0)
(774.144 208.282 0)
(36380.5 0.0752548 0)
(-26202.1 0.0611429 0)
(-838.012 -0.352325 0)
(649.395 -0.670661 0)
(598.842 -1.04791 0)
(605.118 1.66461 0)
(642.86 13.1686 0)
(672.175 71.8626 0)
(777.672 143.67 0)
(-121.531 171.356 0)
(-235.104 607.939 1.10261e-11)
(355.75 744.265 -1.35732e-11)
(-2135.45 664.143 -1.71603e-11)
(-13770.8 2722.2 0)
(-6575.11 17477.5 -6.25796e-11)
(765.207 489.476 1.11359e-11)
(149.396 432.475 1.35732e-11)
(-1142.62 61.909 1.71603e-11)
(-6611.4 1005.89 0)
(-4565.04 13908.7 0)
(727.06 2.89623e-10 0)
(67.617 7.40149e-10 0)
(-1621.21 -2.19577e-09 0)
(-6387.55 2.82602e-09 0)
(3341.24 -1.95611e-09 0)
(765.207 -489.476 1.11359e-11)
(149.396 -432.475 1.35732e-11)
(-1142.62 -61.909 1.71603e-11)
(-6611.4 -1005.89 0)
(-4565.04 -13908.7 0)
(-235.104 -607.939 -3.32979e-11)
(355.75 -744.265 -1.35732e-11)
(-2135.45 -664.143 -1.71603e-11)
(-13770.8 -2722.2 -4.56511e-11)
(-6575.11 -17477.5 6.25796e-11)
(17987.7 -4257.86 3.44134e-11)
(3173.7 -600.691 -2.96082e-11)
(2549.94 113.453 0)
(810.966 2521.06 2.3567e-11)
(-12317.5 -657.643 -1.05412e-11)
(12007.1 -4560.6 -1.71426e-11)
(4221.62 -476.621 1.4795e-11)
(3698.26 -282.152 0)
(366.048 472.723 -1.47804e-11)
(-11676.1 -7786.97 2.57171e-12)
(13503.4 -7.1772e-10 0)
(4192.38 -6.07301e-10 0)
(2851.22 6.44752e-09 0)
(-2788.24 -7.43051e-09 5.91785e-12)
(-13998.2 -2.28537e-08 -5.14342e-12)
(12007.1 4560.6 -1.71426e-11)
(4221.62 476.621 1.4795e-11)
(3698.26 282.152 0)
(366.048 -472.723 -1.47804e-11)
(-11676.1 7786.97 2.57171e-12)
(17987.7 4257.86 1.71426e-11)
(3173.7 600.691 1.80908e-14)
(2549.94 -113.453 0)
(810.966 -2521.06 7.59259e-14)
(-12317.5 657.643 1.05412e-11)
(-33210.6 -3832.37 0)
(-19845.3 8134.06 0)
(2004.32 4340.23 0)
(218.512 1979.01 0)
(-623.034 1180.21 0)
(-17.5864 882.276 0)
(452.021 726.833 0)
(778.69 749.563 0)
(1021.71 725.185 0)
(1304.11 727.349 0)
(1563.23 740.362 0)
(1818.02 751.822 0)
(2056.06 764.521 0)
(2269.51 780.209 0)
(2451.57 798.807 0)
(2572.97 820.567 0)
(2561.88 844.688 0)
(2276.23 868.986 0)
(1729.83 888.629 0)
(678.294 902.48 0)
(-800.913 902.033 0)
(-1835.44 886.243 0)
(-2362.42 865.071 0)
(-2646.34 838.252 0)
(-2671.76 810.524 0)
(-2586.27 784.169 0)
(-2464.72 760.198 0)
(-2339.6 738.497 0)
(-2214.16 718.567 0)
(-2081.2 699.954 0)
(-1933.08 682.38 0)
(-1769.2 665.854 0)
(-1602.32 650.489 0)
(-1458.88 637.101 0)
(-1343.84 623.516 0)
(-1201.4 610.906 0)
(-893.97 565.933 0)
(-1404.25 571.954 0)
(59543.3 521.829 0)
(-79684.9 2756.33 0)
(-31403.6 -2107.47 0)
(-20453.5 9850.25 0)
(890.925 4405.04 0)
(-453.106 1078.23 0)
(-712.157 577.891 0)
(-67.8054 384.568 0)
(438.812 321.638 0)
(778.299 326.377 0)
(1020.64 320.017 0)
(1304.72 319.015 0)
(1565.42 324.137 0)
(1820.03 328.035 0)
(2058.34 332.38 0)
(2272.22 338.001 0)
(2454.68 344.691 0)
(2576.46 352.447 0)
(2565.6 361.181 0)
(2279.66 370.29 0)
(1732.49 377.817 0)
(679.407 383.493 0)
(-802.189 383.414 0)
(-1838.34 377.114 0)
(-2366.16 369.202 0)
(-2650.58 359.231 0)
(-2675.92 349.215 0)
(-2590.08 340.033 0)
(-2468.16 331.998 0)
(-2342.81 324.887 0)
(-2217.31 318.264 0)
(-2084.46 311.687 0)
(-1936.55 304.788 0)
(-1772.9 297.408 0)
(-1606.07 289.492 0)
(-1462.74 281.841 0)
(-1347.52 273.193 0)
(-1208.6 266.539 0)
(-898.498 239.382 0)
(-1407.85 245.805 0)
(59765.6 222.73 0)
(-79999.2 1639.17 0)
(-27858.7 6.52407e-09 0)
(-17950.7 6.78245e-10 0)
(-547.538 1.69561e-09 0)
(-894.842 2.84217e-09 0)
(-824.826 1.59872e-09 0)
(-92.1327 -4.81231e-09 0)
(435.093 -8.86564e-09 0)
(778.218 -3.36539e-08 0)
(1019.57 3.58824e-08 0)
(1305.31 1.87922e-07 0)
(1565.86 2.62319e-07 0)
(1820.42 -6.62743e-08 0)
(2058.96 -8.76002e-07 0)
(2273.1 -1.55499e-06 0)
(2455.78 -1.28434e-06 0)
(2577.77 6.57317e-07 0)
(2567.07 3.46454e-07 0)
(2281.07 6.93519e-06 0)
(1733.67 1.46567e-05 0)
(679.923 1.51938e-05 0)
(-802.769 -4.68661e-06 0)
(-1839.58 -2.35695e-05 0)
(-2367.62 -1.29541e-05 0)
(-2652.15 1.54362e-05 0)
(-2677.35 2.71104e-05 0)
(-2591.28 3.00406e-05 0)
(-2469.12 2.80063e-05 0)
(-2343.59 1.63514e-05 0)
(-2218 4.37442e-06 0)
(-2085.12 -3.40888e-06 0)
(-1937.24 -4.17781e-06 0)
(-1773.65 -5.22572e-07 0)
(-1606.85 3.71494e-06 0)
(-1463.62 1.35295e-05 0)
(-1348.3 2.39771e-05 0)
(-1211.24 3.33338e-05 0)
(-900.001 2.85105e-05 0)
(-1409.09 2.46279e-05 0)
(59948.7 1.24287e-05 0)
(-80226.5 5.23118e-05 0)
(-31403.6 2107.47 0)
(-20453.5 -9850.25 0)
(890.925 -4405.04 0)
(-453.106 -1078.23 0)
(-712.157 -577.891 0)
(-67.8054 -384.568 0)
(438.812 -321.638 0)
(778.299 -326.377 0)
(1020.64 -320.017 0)
(1304.72 -319.015 0)
(1565.42 -324.137 0)
(1820.03 -328.035 0)
(2058.34 -332.38 0)
(2272.22 -338.001 0)
(2454.68 -344.691 0)
(2576.46 -352.447 0)
(2565.6 -361.181 0)
(2279.66 -370.29 0)
(1732.49 -377.817 0)
(679.407 -383.493 0)
(-802.189 -383.414 0)
(-1838.34 -377.114 0)
(-2366.16 -369.202 0)
(-2650.58 -359.231 0)
(-2675.92 -349.215 0)
(-2590.08 -340.033 0)
(-2468.16 -331.998 0)
(-2342.81 -324.886 0)
(-2217.31 -318.264 0)
(-2084.46 -311.687 0)
(-1936.55 -304.788 0)
(-1772.9 -297.408 0)
(-1606.07 -289.492 0)
(-1462.74 -281.841 0)
(-1347.52 -273.192 0)
(-1208.6 -266.538 0)
(-898.498 -239.382 0)
(-1407.85 -245.805 0)
(59765.6 -222.73 0)
(-79999.2 -1639.17 0)
(-33210.6 3832.37 0)
(-19845.3 -8134.06 0)
(2004.32 -4340.23 0)
(218.512 -1979.01 0)
(-623.034 -1180.21 0)
(-17.5864 -882.276 0)
(452.021 -726.833 0)
(778.69 -749.563 0)
(1021.71 -725.185 0)
(1304.11 -727.349 0)
(1563.23 -740.362 0)
(1818.02 -751.822 0)
(2056.06 -764.521 0)
(2269.51 -780.209 0)
(2451.57 -798.807 0)
(2572.97 -820.567 0)
(2561.88 -844.688 0)
(2276.23 -868.986 0)
(1729.83 -888.629 0)
(678.294 -902.48 0)
(-800.913 -902.033 0)
(-1835.44 -886.243 0)
(-2362.42 -865.071 0)
(-2646.34 -838.252 0)
(-2671.76 -810.524 0)
(-2586.27 -784.169 0)
(-2464.72 -760.198 0)
(-2339.6 -738.497 0)
(-2214.16 -718.567 0)
(-2081.2 -699.954 0)
(-1933.08 -682.38 0)
(-1769.2 -665.854 0)
(-1602.32 -650.489 0)
(-1458.88 -637.101 0)
(-1343.84 -623.516 0)
(-1201.4 -610.906 0)
(-893.97 -565.933 0)
(-1404.25 -571.954 0)
(59543.3 -521.829 0)
(-79684.9 -2756.33 0)
(51558.2 12791.2 0)
(-26283.2 -5381.03 0)
(3464.46 -3091.9 0)
(752.531 -3021.06 0)
(-127.258 -1895.8 0)
(158.523 -1497.98 0)
(506.785 -1264.89 0)
(778.881 -1267.7 0)
(1033.32 -1238.66 0)
(1295.9 -1254.67 0)
(1552.59 -1279.32 0)
(1807.2 -1304.96 0)
(2043.17 -1335.51 0)
(2253.85 -1372.98 0)
(2432.95 -1417.18 0)
(2551.71 -1467.5 0)
(2539.53 -1521.14 0)
(2256.06 -1572.92 0)
(1714.57 -1613.93 0)
(672.286 -1642.32 0)
(-793.48 -1641.09 0)
(-1818.51 -1608.98 0)
(-2340.38 -1565.5 0)
(-2621.28 -1510.66 0)
(-2646.81 -1453.35 0)
(-2562.93 -1397.93 0)
(-2443.5 -1346.33 0)
(-2320.4 -1298.57 0)
(-2196.78 -1254.07 0)
(-2065.52 -1212.4 0)
(-1919.16 -1173.49 0)
(-1757.17 -1137.64 0)
(-1592.37 -1105.17 0)
(-1450.29 -1076.68 0)
(-1335.34 -1048.32 0)
(-1180.81 -1019.89 0)
(-879.299 -957.006 0)
(-1384.34 -946.899 0)
(58652.5 -864.574 0)
(-78306.2 -4265.51 0)
(53970.4 7423.81 0)
(-31698.5 -2403.23 0)
(3495.51 -2869.98 0)
(1084.76 -2954.29 0)
(578.807 -2340.49 0)
(495.941 -1942.93 0)
(644.564 -1752.18 0)
(803.867 -1696.5 0)
(1028.04 -1686.69 0)
(1269.33 -1708.59 0)
(1520.48 -1741.44 0)
(1769.68 -1782.1 0)
(1997.43 -1833.19 0)
(2199.22 -1896.4 0)
(2370.48 -1970.99 0)
(2484.2 -2054.5 0)
(2472.28 -2141.65 0)
(2197.63 -2223.91 0)
(1671.13 -2288.26 0)
(655.344 -2331.64 0)
(-772.765 -2329.33 0)
(-1771.68 -2280.46 0)
(-2279.5 -2213.42 0)
(-2551.7 -2128.95 0)
(-2576.51 -2039.89 0)
(-2495.66 -1952.66 0)
(-2380.35 -1870.07 0)
(-2260.98 -1792.22 0)
(-2140.45 -1718.39 0)
(-2011.96 -1648.17 0)
(-1868.51 -1581.61 0)
(-1709.81 -1519.45 0)
(-1548.9 -1462.25 0)
(-1408.71 -1410.54 0)
(-1293.69 -1357.99 0)
(-1124.45 -1305.64 0)
(-831.496 -1231.3 0)
(-1325.85 -1205.33 0)
(56823.1 -1142.5 0)
(-75480.6 -6308.61 0)
(56396.3 7984.33 0)
(-36202.7 -1407.68 0)
(2933.44 -2499.98 0)
(1262.77 -2530.05 0)
(847.322 -2366.4 0)
(725.436 -2102.34 0)
(744.251 -2004.5 0)
(841.988 -1938.15 0)
(1021.68 -1932.75 0)
(1243.14 -1949.36 0)
(1481.75 -1979.9 0)
(1718.78 -2025.46 0)
(1933.02 -2086.78 0)
(2121.06 -2164.33 0)
(2280.6 -2256.41 0)
(2387.26 -2359.35 0)
(2376.29 -2466.39 0)
(2114.78 -2566.7 0)
(1610.75 -2644.51 0)
(632.708 -2694.74 0)
(-744.154 -2690.6 0)
(-1706.82 -2631.97 0)
(-2194.38 -2550.01 0)
(-2454.06 -2446.66 0)
(-2476.93 -2336.72 0)
(-2399.28 -2228.01 0)
(-2288.89 -2124.2 0)
(-2174.25 -2025.75 0)
(-2057.97 -1932.25 0)
(-1933.71 -1843.43 0)
(-1795.13 -1759.97 0)
(-1642.15 -1682.91 0)
(-1487.42 -1612.88 0)
(-1349.83 -1549.9 0)
(-1234.25 -1484.07 0)
(-1058.72 -1419.82 0)
(-782.646 -1354.23 0)
(-1298.77 -1334.68 0)
(53734.8 -1325.49 0)
(-71126.1 -8319.37 0)
(60307.9 1239.07 0)
(-41801.6 -1444.79 0)
(2413.95 -2101.21 0)
(1213.48 -2234.73 0)
(990.959 -2174.41 0)
(844.676 -2060.07 0)
(802.791 -2012.5 0)
(873.013 -1973.25 0)
(1017.24 -1967.43 0)
(1223.9 -1978.05 0)
(1447.15 -2002.25 0)
(1666.68 -2045.43 0)
(1863.6 -2108.09 0)
(2035.75 -2188.59 0)
(2182.55 -2284.43 0)
(2281.85 -2391.38 0)
(2272.47 -2502.26 0)
(2025.98 -2605.47 0)
(1547.74 -2684.48 0)
(610.931 -2733.33 0)
(-712.279 -2727.2 0)
(-1636.2 -2666.72 0)
(-2100.93 -2581.35 0)
(-2346.16 -2473.37 0)
(-2365.81 -2357.6 0)
(-2290.86 -2242.51 0)
(-2185.45 -2132.27 0)
(-2076.02 -2027.81 0)
(-1964.76 -1928.7 0)
(-1845.94 -1835.4 0)
(-1713.83 -1748.13 0)
(-1568.07 -1669 0)
(-1420.73 -1597.17 0)
(-1284.59 -1532.6 0)
(-1168.34 -1461.51 0)
(-999.33 -1395.08 0)
(-749.455 -1349.17 0)
(-1298.16 -1357.79 0)
(50092.4 -1336.7 0)
(-66186.5 -9172.44 0)
(56198 -5660 0)
(-39421.5 -1511.94 0)
(2172.23 -1917.04 0)
(1192.22 -1961.83 0)
(1015.62 -1960.6 0)
(881.458 -1959.91 0)
(827.915 -1944.49 0)
(885.425 -1936.23 0)
(1017.06 -1929.52 0)
(1209.59 -1935.18 0)
(1416.82 -1953.87 0)
(1616.79 -1993.68 0)
(1795.06 -2053.56 0)
(1951.13 -2131.81 0)
(2085.19 -2224.9 0)
(2177.34 -2328.83 0)
(2169.98 -2436.24 0)
(1939.19 -2535.38 0)
(1487.54 -2609.93 0)
(591.54 -2654.56 0)
(-679.967 -2647.17 0)
(-1566.27 -2589 0)
(-2008.06 -2506.71 0)
(-2238.45 -2402.02 0)
(-2254.46 -2289.12 0)
(-2182.14 -2176.66 0)
(-2082 -2069.18 0)
(-1978.08 -1967.41 0)
(-1872.56 -1871.79 0)
(-1759.71 -1781.3 0)
(-1634.78 -1698.57 0)
(-1496.68 -1623.03 0)
(-1355.97 -1554.39 0)
(-1219.11 -1492.3 0)
(-1101.73 -1420.95 0)
(-950.462 -1358.41 0)
(-746.712 -1331.04 0)
(-1286.75 -1368.34 0)
(46204.3 -1294.47 0)
(-60999.1 -9531.21 0)
(53396.7 -4800.14 0)
(-38194.8 -1387.75 0)
(1980.42 -1723.52 0)
(1171.51 -1774.58 0)
(992.811 -1787.68 0)
(860.197 -1840.9 0)
(825.606 -1855.34 0)
(887.437 -1861.66 0)
(1018.24 -1857.19 0)
(1200.44 -1858.84 0)
(1390.78 -1876.35 0)
(1570.61 -1912.57 0)
(1730.5 -1970.49 0)
(1870.65 -2044.95 0)
(1992.69 -2133.96 0)
(2078.2 -2232.87 0)
(2073.43 -2334.62 0)
(1858.61 -2427.5 0)
(1432.9 -2495.82 0)
(575.04 -2535.77 0)
(-649.101 -2527.79 0)
(-1500.85 -2473.48 0)
(-1920.75 -2396.71 0)
(-2136.48 -2298.06 0)
(-2148.64 -2191.02 0)
(-2078.92 -2084.33 0)
(-1983.81 -1982.27 0)
(-1885.81 -1886.49 0)
(-1785.42 -1795.22 0)
(-1679.02 -1711.68 0)
(-1561.31 -1632 0)
(-1429.13 -1562.98 0)
(-1294.75 -1496.65 0)
(-1156 -1436.79 0)
(-1039.31 -1368.72 0)
(-912.694 -1314.19 0)
(-759.022 -1298.65 0)
(-1262.91 -1341.34 0)
(42226.4 -1240.16 0)
(-55754.5 -9419.72 0)
(50235.2 -5472.34 0)
(-36456.7 -1279.38 0)
(1799.46 -1563.6 0)
(1130.4 -1638.97 0)
(951.714 -1667.58 0)
(816.265 -1731.12 0)
(807.909 -1759.11 0)
(883.638 -1772.4 0)
(1019.78 -1769.72 0)
(1191.13 -1774.11 0)
(1365.04 -1789.92 0)
(1526.07 -1829.01 0)
(1667.5 -1884.32 0)
(1793.61 -1957.32 0)
(1904.1 -2042.47 0)
(1983.98 -2136.99 0)
(1982.43 -2233.38 0)
(1783.86 -2320.49 0)
(1383.21 -2383.17 0)
(560.727 -2419.48 0)
(-619.947 -2411.44 0)
(-1439.95 -2360.78 0)
(-1839.02 -2289.18 0)
(-2040.24 -2196.06 0)
(-2048.49 -2094.5 0)
(-1980.98 -1993.01 0)
(-1891.36 -1896.59 0)
(-1797.84 -1804.78 0)
(-1704.11 -1720.4 0)
(-1602.42 -1638.01 0)
(-1491.49 -1566.51 0)
(-1366.25 -1498.45 0)
(-1234.37 -1435.13 0)
(-1095.83 -1378.41 0)
(-983.598 -1314.83 0)
(-882.938 -1268.79 0)
(-772.867 -1258.65 0)
(-1230.38 -1294.23 0)
(38419.7 -1184.83 0)
(-50726.9 -9210.67 0)
(46890.5 -5970.25 0)
(-34428.2 -1203.18 0)
(1633.9 -1438.96 0)
(1071.32 -1525.19 0)
(904.01 -1571 0)
(771.995 -1624.86 0)
(785.835 -1654.47 0)
(877.208 -1672.63 0)
(1016.59 -1673.99 0)
(1180.97 -1679.12 0)
(1337.87 -1702.97 0)
(1479.64 -1739.53 0)
(1606.86 -1797.44 0)
(1718.25 -1866.95 0)
(1819.55 -1949.16 0)
(1894.23 -2038.79 0)
(1896.61 -2129.89 0)
(1714.27 -2211.53 0)
(1337.5 -2269.31 0)
(547.803 -2303.09 0)
(-592.533 -2295.46 0)
(-1383.04 -2248.11 0)
(-1762.02 -2181.08 0)
(-1948.87 -2092.75 0)
(-1952.98 -1995.97 0)
(-1888.21 -1899.61 0)
(-1802.42 -1807.33 0)
(-1716.03 -1721.87 0)
(-1624.71 -1638.5 0)
(-1530.72 -1565.36 0)
(-1426.82 -1491.45 0)
(-1302.53 -1430.79 0)
(-1179.07 -1368.65 0)
(-1040.07 -1313.1 0)
(-933.687 -1256.78 0)
(-858.56 -1217.69 0)
(-783.529 -1207.54 0)
(-1191.78 -1230.73 0)
(34597.8 -1120.38 0)
(-45737 -8825.86 0)
(43322.6 -6692.86 0)
(-32090.2 -1147.56 0)
(1489.16 -1348.99 0)
(1003.16 -1425.72 0)
(855.663 -1482.9 0)
(735.83 -1522.93 0)
(761.88 -1549.06 0)
(864.824 -1567.18 0)
(1013.52 -1572.34 0)
(1163.2 -1584.56 0)
(1306.83 -1606.66 0)
(1435.03 -1649.49 0)
(1544.71 -1703.17 0)
(1647.41 -1771.47 0)
(1738.52 -1848.37 0)
(1809.82 -1932.63 0)
(1815.97 -2017.73 0)
(1649.5 -2093.98 0)
(1294.98 -2147.41 0)
(535.525 -2179.59 0)
(-566.969 -2172.88 0)
(-1329.73 -2128.63 0)
(-1689.31 -2065.89 0)
(-1861.86 -1982.14 0)
(-1862.38 -1890.38 0)
(-1799.2 -1798.96 0)
(-1720.09 -1712.77 0)
(-1635.15 -1630.57 0)
(-1553.29 -1555.65 0)
(-1460.71 -1481.74 0)
(-1361.81 -1416.47 0)
(-1247.92 -1358.27 0)
(-1120.95 -1297.11 0)
(-988.029 -1249.27 0)
(-891.658 -1197.76 0)
(-835.488 -1164.08 0)
(-785.435 -1153.24 0)
(-1146.38 -1166.05 0)
(31100.7 -1057.92 0)
(-41142.3 -8420.55 0)
(39335.2 -7050.83 0)
(-29278.6 -1071.49 0)
(1365.86 -1246.51 0)
(942.276 -1306.6 0)
(810.33 -1377.54 0)
(708.247 -1410.06 0)
(743.2 -1432.17 0)
(854.771 -1454.93 0)
(999.841 -1459.29 0)
(1147.9 -1479.39 0)
(1275.31 -1505.28 0)
(1386.64 -1547.93 0)
(1489.31 -1601.18 0)
(1578.33 -1664.42 0)
(1664.25 -1735.76 0)
(1731.02 -1813.05 0)
(1741.13 -1891.55 0)
(1589.3 -1962.27 0)
(1255 -2011.81 0)
(523.262 -2043.08 0)
(-543.42 -2037.66 0)
(-1279.94 -1996.42 0)
(-1620.86 -1938.05 0)
(-1779.74 -1859.28 0)
(-1776.46 -1773.13 0)
(-1717.06 -1687.98 0)
(-1640.16 -1607.51 0)
(-1564.63 -1532.12 0)
(-1481.29 -1461.11 0)
(-1396.6 -1393.36 0)
(-1307.85 -1330.82 0)
(-1187.5 -1272.42 0)
(-1074.03 -1218.25 0)
(-944.342 -1170.96 0)
(-851.594 -1126.19 0)
(-815.657 -1095.19 0)
(-785.425 -1080.81 0)
(-1099.93 -1082.11 0)
(27607.1 -978.162 0)
(-36603.2 -7934.33 0)
(35495.6 -7094.67 0)
(-26497 -993.249 0)
(1262.6 -1150.22 0)
(876.897 -1203.53 0)
(755.963 -1281.69 0)
(683.185 -1309.77 0)
(718.642 -1327.76 0)
(838.69 -1340.76 0)
(989.957 -1354.82 0)
(1118.89 -1367.83 0)
(1240.78 -1401.89 0)
(1342.62 -1436.89 0)
(1432.45 -1488.63 0)
(1517.72 -1544.65 0)
(1595.29 -1608.9 0)
(1659.7 -1678.09 0)
(1672.18 -1749.3 0)
(1533.61 -1814.32 0)
(1217.11 -1860.2 0)
(510.619 -1890.81 0)
(-522.003 -1886.86 0)
(-1233.74 -1848.65 0)
(-1557.15 -1794.97 0)
(-1702.93 -1721.94 0)
(-1697.3 -1642.51 0)
(-1639.61 -1564.88 0)
(-1569.9 -1491.29 0)
(-1494.07 -1424.33 0)
(-1419.57 -1356.93 0)
(-1335.16 -1302.19 0)
(-1245.27 -1236.92 0)
(-1139.44 -1192.14 0)
(-1023.19 -1134.37 0)
(-899.316 -1093.66 0)
(-818.637 -1055.57 0)
(-791.76 -1030.38 0)
(-772.832 -1013.93 0)
(-1047.47 -1006.13 0)
(24497.7 -909.107 0)
(-32553.9 -7443.96 0)
(31541.4 -6941.9 0)
(-23550.3 -904.587 0)
(1163.22 -1047.85 0)
(815.585 -1103.78 0)
(707.963 -1165.8 0)
(663.86 -1188.92 0)
(713.333 -1197.47 0)
(828.687 -1207.5 0)
(973.755 -1213.85 0)
(1102.55 -1242.52 0)
(1208.76 -1265.3 0)
(1303.05 -1311.31 0)
(1385.47 -1355.89 0)
(1462.44 -1411.35 0)
(1535.66 -1469.04 0)
(1595.73 -1531.83 0)
(1609.85 -1596.15 0)
(1482.43 -1655.73 0)
(1181.29 -1698.18 0)
(497.574 -1727.96 0)
(-502.79 -1725.43 0)
(-1191.4 -1690.34 0)
(-1498.75 -1641.52 0)
(-1632.82 -1574.57 0)
(-1625.11 -1502.16 0)
(-1571.34 -1430.76 0)
(-1504.72 -1363.89 0)
(-1435.16 -1298.02 0)
(-1363.6 -1240.31 0)
(-1280.95 -1177.87 0)
(-1201.79 -1129.07 0)
(-1088.69 -1074.79 0)
(-979.139 -1027.36 0)
(-868.407 -991.491 0)
(-790.608 -961.493 0)
(-775.53 -942.073 0)
(-762.062 -928.239 0)
(-998.918 -916.781 0)
(21403.4 -828.387 0)
(-28553.9 -6909.81 0)
(27934.5 -6654.9 0)
(-20817.2 -825.596 0)
(1070.65 -959.368 0)
(763.234 -1024.47 0)
(673.926 -1070.59 0)
(652.666 -1082.32 0)
(700.733 -1073.64 0)
(822.902 -1083.74 0)
(956.212 -1080.88 0)
(1069.32 -1111.47 0)
(1174.49 -1138.88 0)
(1255.32 -1180.18 0)
(1336.05 -1226.97 0)
(1408.69 -1277.65 0)
(1479.2 -1332.33 0)
(1537.21 -1389.87 0)
(1552.78 -1448.76 0)
(1435.28 -1503.46 0)
(1147.5 -1542.71 0)
(484.361 -1571.33 0)
(-485.752 -1569.99 0)
(-1152.88 -1538.03 0)
(-1445.59 -1493.99 0)
(-1568.64 -1433.08 0)
(-1558.72 -1366.85 0)
(-1506.36 -1301.19 0)
(-1441.99 -1237.49 0)
(-1374.99 -1177.35 0)
(-1303.79 -1117.95 0)
(-1227.96 -1064.76 0)
(-1145.93 -1013.24 0)
(-1041.43 -964.334 0)
(-942.92 -927.887 0)
(-835.843 -893.756 0)
(-771.016 -875.885 0)
(-759.715 -864.501 0)
(-748.46 -852.717 0)
(-951.246 -835.243 0)
(18722.6 -752.009 0)
(-25097.1 -6315.49 0)
(24332.9 -6357.18 0)
(-18061.9 -777.342 0)
(971.575 -909.717 0)
(708.404 -978.171 0)
(652.216 -1000.02 0)
(660.927 -991.708 0)
(711.967 -968.823 0)
(821.714 -959.289 0)
(947.035 -965.597 0)
(1046.65 -979.184 0)
(1142.55 -1011.33 0)
(1218.17 -1045.58 0)
(1291.55 -1090.79 0)
(1360.9 -1141.24 0)
(1427.52 -1198.21 0)
(1483.53 -1259.07 0)
(1500.39 -1320.19 0)
(1391.9 -1375.68 0)
(1115.89 -1415.2 0)
(471.286 -1444.05 0)
(-470.695 -1443.57 0)
(-1118.16 -1412.89 0)
(-1397.62 -1370.09 0)
(-1510.31 -1309.83 0)
(-1498.02 -1242.64 0)
(-1446.68 -1174.67 0)
(-1385.38 -1109.53 0)
(-1319.96 -1050.18 0)
(-1255.1 -994.01 0)
(-1180.04 -948.428 0)
(-1105.02 -898.826 0)
(-1006.44 -866.909 0)
(-911.127 -830.459 0)
(-818.296 -811.026 0)
(-762.416 -805.422 0)
(-753.205 -804.345 0)
(-733.868 -796.91 0)
(-901.873 -775.818 0)
(16122.4 -694.419 0)
(-21743.4 -5736.09 0)
(21059.4 -6039.77 0)
(-15567.9 -743.157 0)
(877.127 -871.387 0)
(676.211 -932.503 0)
(660.881 -938.845 0)
(682.732 -912.852 0)
(731.973 -895.654 0)
(826.011 -869.783 0)
(937.04 -882.071 0)
(1025.24 -889.73 0)
(1110.51 -915.27 0)
(1178.75 -943.791 0)
(1243.87 -980.013 0)
(1305.18 -1024.75 0)
(1365.65 -1078.77 0)
(1419.67 -1139.97 0)
(1440.42 -1202.67 0)
(1343.73 -1260.78 0)
(1081.61 -1302.21 0)
(457.016 -1331.67 0)
(-455.726 -1331.72 0)
(-1082.07 -1301.46 0)
(-1346.28 -1258.06 0)
(-1445.83 -1196.62 0)
(-1428.47 -1129.33 0)
(-1378.09 -1062.36 0)
(-1322.02 -1001.49 0)
(-1263.67 -948.813 0)
(-1205.74 -904.018 0)
(-1136.24 -864.671 0)
(-1067.37 -828.946 0)
(-975.552 -800.965 0)
(-889.069 -774.818 0)
(-811.716 -764.179 0)
(-764.577 -764.944 0)
(-751.512 -764.747 0)
(-720.971 -755.336 0)
(-852.482 -725.833 0)
(13942.7 -641.327 0)
(-18900.4 -5218.41 0)
(17796.7 -5414.31 0)
(-13081.5 -689.769 0)
(789.114 -822.982 0)
(643.398 -885.687 0)
(671.153 -900.242 0)
(702.547 -873.779 0)
(753.469 -866.389 0)
(834.803 -835.48 0)
(927.813 -850.399 0)
(1014.66 -846.579 0)
(1090.45 -861.279 0)
(1155.78 -869.375 0)
(1213.53 -881.988 0)
(1265.73 -897.968 0)
(1316.5 -922.592 0)
(1364.14 -959.202 0)
(1383.96 -1009.79 0)
(1295.98 -1068.81 0)
(1047.59 -1121.49 0)
(442.855 -1164.38 0)
(-441.589 -1164.69 0)
(-1047.17 -1121.62 0)
(-1296.59 -1067.93 0)
(-1386.26 -1006.83 0)
(-1368.64 -953.021 0)
(-1323.49 -912.02 0)
(-1275.96 -881.986 0)
(-1226.04 -859.197 0)
(-1174.02 -839.714 0)
(-1107.7 -821.088 0)
(-1043.63 -800.362 0)
(-954.282 -783.81 0)
(-875.679 -765.515 0)
(-808.78 -758.333 0)
(-762.964 -754.495 0)
(-743.946 -746.33 0)
(-696.369 -724.776 0)
(-792.01 -674.757 0)
(11793.2 -575.187 0)
(-16096.7 -4534.66 0)
(15177.3 -4465.36 0)
(-11143.5 -526.613 0)
(688.333 -678.434 0)
(601.761 -762.174 0)
(672.356 -793.197 0)
(715.354 -788.649 0)
(768.879 -790.847 0)
(841.42 -777.398 0)
(926.345 -788.891 0)
(1014.76 -780.525 0)
(1088.54 -784.551 0)
(1158.79 -771.724 0)
(1216.32 -756.799 0)
(1266.05 -733.619 0)
(1306.64 -710.722 0)
(1335.65 -704.538 0)
(1334.8 -728.107 0)
(1236.08 -767.049 0)
(989.518 -805.5 0)
(415.395 -837.535 0)
(-414.522 -837.838 0)
(-988.834 -805.881 0)
(-1235.67 -767.087 0)
(-1335.09 -727.152 0)
(-1337.11 -701.88 0)
(-1309.64 -705.565 0)
(-1271.12 -725.186 0)
(-1222.94 -743.902 0)
(-1169.01 -754.458 0)
(-1098.32 -759.41 0)
(-1031.45 -752.291 0)
(-941.972 -745.079 0)
(-864.518 -732.985 0)
(-801.097 -719.942 0)
(-753.011 -707.736 0)
(-722.873 -683.786 0)
(-652 -638.517 0)
(-708.332 -549.678 0)
(10223.1 -417.191 0)
(-13976.4 -3485.66 0)
(12986.2 -2102.87 0)
(-9432.25 -491.097 0)
(562.119 -640.377 0)
(532.809 -766.991 0)
(645.641 -840.265 0)
(704.811 -882.695 0)
(764.311 -926.223 0)
(836.687 -961.584 0)
(924.8 -1011.44 0)
(1018.84 -1052.01 0)
(1098.93 -1104.67 0)
(1182.52 -1148 0)
(1250.25 -1191.15 0)
(1310.13 -1225.69 0)
(1344.52 -1249.15 0)
(1347.39 -1243.35 0)
(1323.72 -1217.54 0)
(1221.4 -1216.09 0)
(979.662 -1253.37 0)
(411.693 -1310.2 0)
(-411.086 -1310.43 0)
(-978.997 -1253.82 0)
(-1220.72 -1216.63 0)
(-1323.42 -1217.83 0)
(-1347.84 -1242.93 0)
(-1345.95 -1247.41 0)
(-1312.9 -1222.2 0)
(-1254.24 -1185.13 0)
(-1188.96 -1139.51 0)
(-1105.61 -1091.58 0)
(-1029.82 -1037.29 0)
(-935.678 -987.816 0)
(-851.455 -937.594 0)
(-784.449 -887.933 0)
(-728.123 -838.102 0)
(-677.245 -778.28 0)
(-567.137 -692.134 0)
(-578.732 -556.213 0)
(8963.97 -419.497 0)
(-12335.8 -1423.36 0)
(12677.6 118850 0)
(-9734.19 9764.09 0)
(422.471 9493.01 0)
(409.141 10965.1 0)
(560.86 12727.8 0)
(632.522 15184.9 0)
(692.859 17649.1 0)
(759.304 20615.8 0)
(839.203 23630.3 0)
(924.919 27143 0)
(996.047 30656.2 0)
(1075.45 34597.3 0)
(1141.46 38533.4 0)
(1210.16 42809.2 0)
(1289.62 47060.8 0)
(1366.11 51399.2 0)
(1361.07 55528.6 0)
(1201.55 59165.1 0)
(898.828 61809.9 0)
(360.414 63180.9 0)
(-360.189 63180.5 0)
(-898.449 61809.4 0)
(-1200.99 59164.3 0)
(-1360.43 55528 0)
(-1365.61 51399.3 0)
(-1289.66 47062.4 0)
(-1211.11 42813.3 0)
(-1143.26 38541 0)
(-1078.86 34608.8 0)
(-999.812 30673.9 0)
(-931.463 27164.2 0)
(-845.905 23661.5 0)
(-768.267 20649.6 0)
(-705.223 17696 0)
(-647.346 15238.2 0)
(-582.213 12794.7 0)
(-438.008 11040.1 0)
(-445.61 9576.55 0)
(9387.53 9828.77 0)
(-12200.5 119013 0)
(136924 -142418 0)
(-114813 -12828.9 0)
(1719.44 -13170.8 0)
(3649.92 -15051.6 0)
(4712.01 -17383 0)
(5447.22 -20523.5 0)
(5997.72 -23692.2 0)
(6600.34 -27466.5 0)
(7214.65 -31329.6 0)
(7789.31 -35824.3 0)
(8282.13 -40372.6 0)
(8773.26 -45452.6 0)
(9163.61 -50593 0)
(9527.41 -56146.5 0)
(9622.11 -61735.8 0)
(9507.32 -67470 0)
(8807.21 -73019.5 0)
(7274.28 -78022 0)
(4849.45 -81815.2 0)
(1732.46 -83987.2 0)
(-1732.74 -83987 0)
(-4849.13 -81815.3 0)
(-7273.65 -78022.6 0)
(-8806.07 -73020.9 0)
(-9505.61 -67472.4 0)
(-9619.75 -61739.4 0)
(-9524.44 -56151.3 0)
(-9160.44 -50598.7 0)
(-8770.02 -45458.8 0)
(-8279.42 -40378.2 0)
(-7787.19 -35829.4 0)
(-7213.47 -31330.5 0)
(-6600.02 -27465.9 0)
(-5999 -23684.2 0)
(-5451.2 -20508.7 0)
(-4722.71 -17355.5 0)
(-3668.3 -15003.6 0)
(-1746.01 -13094.3 0)
(114421 -12729.3 0)
(-136492 -141574 0)
(136924 142418 0)
(-114813 12828.9 0)
(1719.44 13170.8 0)
(3649.92 15051.6 0)
(4712.01 17383 0)
(5447.22 20523.5 0)
(5997.72 23692.2 0)
(6600.34 27466.5 0)
(7214.65 31329.6 0)
(7789.31 35824.3 0)
(8282.13 40372.6 0)
(8773.26 45452.6 0)
(9163.61 50593 0)
(9527.41 56146.5 0)
(9622.11 61735.8 0)
(9507.32 67470 0)
(8807.21 73019.5 0)
(7274.28 78022 0)
(4849.45 81815.2 0)
(1732.46 83987.2 0)
(-1732.74 83987 0)
(-4849.13 81815.3 0)
(-7273.65 78022.6 0)
(-8806.07 73020.9 0)
(-9505.61 67472.4 0)
(-9619.75 61739.4 0)
(-9524.44 56151.3 0)
(-9160.44 50598.7 0)
(-8770.02 45458.8 0)
(-8279.42 40378.2 0)
(-7787.19 35829.4 0)
(-7213.47 31330.5 0)
(-6600.02 27465.9 0)
(-5999 23684.2 0)
(-5451.2 20508.7 0)
(-4722.71 17355.5 0)
(-3668.3 15003.6 0)
(-1746.01 13094.3 0)
(114421 12729.3 0)
(-136492 141574 0)
(12677.6 -118850 0)
(-9734.19 -9764.09 0)
(422.471 -9493.01 0)
(409.141 -10965.1 0)
(560.86 -12727.8 0)
(632.522 -15184.9 0)
(692.859 -17649.1 0)
(759.304 -20615.8 0)
(839.203 -23630.3 0)
(924.919 -27143 0)
(996.047 -30656.2 0)
(1075.45 -34597.3 0)
(1141.46 -38533.4 0)
(1210.16 -42809.2 0)
(1289.62 -47060.8 0)
(1366.11 -51399.2 0)
(1361.07 -55528.6 0)
(1201.55 -59165.1 0)
(898.828 -61809.9 0)
(360.414 -63180.9 0)
(-360.189 -63180.5 0)
(-898.449 -61809.4 0)
(-1200.99 -59164.3 0)
(-1360.43 -55528 0)
(-1365.61 -51399.3 0)
(-1289.66 -47062.4 0)
(-1211.11 -42813.3 0)
(-1143.26 -38541 0)
(-1078.86 -34608.8 0)
(-999.812 -30673.9 0)
(-931.463 -27164.2 0)
(-845.905 -23661.5 0)
(-768.267 -20649.6 0)
(-705.223 -17696 0)
(-647.346 -15238.2 0)
(-582.213 -12794.7 0)
(-438.008 -11040.1 0)
(-445.61 -9576.55 0)
(9387.53 -9828.77 0)
(-12200.5 -119013 0)
(12986.2 2102.87 0)
(-9432.25 491.097 0)
(562.119 640.377 0)
(532.809 766.991 0)
(645.641 840.265 0)
(704.811 882.695 0)
(764.311 926.223 0)
(836.687 961.584 0)
(924.8 1011.44 0)
(1018.84 1052.01 0)
(1098.93 1104.67 0)
(1182.52 1148 0)
(1250.25 1191.15 0)
(1310.13 1225.69 0)
(1344.52 1249.15 0)
(1347.39 1243.35 0)
(1323.72 1217.54 0)
(1221.4 1216.09 0)
(979.662 1253.37 0)
(411.693 1310.2 0)
(-411.086 1310.43 0)
(-978.997 1253.82 0)
(-1220.72 1216.63 0)
(-1323.42 1217.83 0)
(-1347.84 1242.93 0)
(-1345.95 1247.41 0)
(-1312.9 1222.2 0)
(-1254.24 1185.13 0)
(-1188.96 1139.51 0)
(-1105.61 1091.58 0)
(-1029.82 1037.29 0)
(-935.678 987.816 0)
(-851.455 937.594 0)
(-784.449 887.933 0)
(-728.123 838.102 0)
(-677.245 778.28 0)
(-567.137 692.134 0)
(-578.732 556.213 0)
(8963.97 419.497 0)
(-12335.8 1423.36 0)
(15177.3 4465.36 0)
(-11143.5 526.613 0)
(688.333 678.434 0)
(601.761 762.174 0)
(672.356 793.197 0)
(715.354 788.649 0)
(768.879 790.847 0)
(841.42 777.398 0)
(926.345 788.891 0)
(1014.76 780.525 0)
(1088.54 784.551 0)
(1158.79 771.724 0)
(1216.32 756.799 0)
(1266.05 733.619 0)
(1306.64 710.722 0)
(1335.65 704.538 0)
(1334.8 728.107 0)
(1236.08 767.049 0)
(989.518 805.5 0)
(415.395 837.535 0)
(-414.522 837.838 0)
(-988.834 805.881 0)
(-1235.67 767.087 0)
(-1335.09 727.152 0)
(-1337.11 701.88 0)
(-1309.64 705.565 0)
(-1271.12 725.186 0)
(-1222.94 743.902 0)
(-1169.01 754.458 0)
(-1098.32 759.41 0)
(-1031.45 752.291 0)
(-941.972 745.079 0)
(-864.518 732.985 0)
(-801.097 719.942 0)
(-753.011 707.736 0)
(-722.873 683.786 0)
(-652 638.517 0)
(-708.332 549.678 0)
(10223.1 417.191 0)
(-13976.4 3485.66 0)
(17796.7 5414.31 0)
(-13081.5 689.769 0)
(789.114 822.982 0)
(643.398 885.687 0)
(671.153 900.242 0)
(702.547 873.779 0)
(753.469 866.389 0)
(834.803 835.48 0)
(927.813 850.399 0)
(1014.66 846.579 0)
(1090.45 861.279 0)
(1155.78 869.375 0)
(1213.53 881.988 0)
(1265.73 897.968 0)
(1316.5 922.592 0)
(1364.14 959.202 0)
(1383.96 1009.79 0)
(1295.98 1068.81 0)
(1047.59 1121.49 0)
(442.855 1164.38 0)
(-441.589 1164.69 0)
(-1047.17 1121.62 0)
(-1296.59 1067.93 0)
(-1386.26 1006.83 0)
(-1368.64 953.021 0)
(-1323.49 912.02 0)
(-1275.96 881.986 0)
(-1226.04 859.197 0)
(-1174.02 839.714 0)
(-1107.7 821.088 0)
(-1043.63 800.362 0)
(-954.282 783.81 0)
(-875.679 765.515 0)
(-808.78 758.333 0)
(-762.964 754.495 0)
(-743.946 746.33 0)
(-696.369 724.776 0)
(-792.01 674.757 0)
(11793.2 575.187 0)
(-16096.7 4534.66 0)
(21059.4 6039.77 0)
(-15567.9 743.157 0)
(877.127 871.387 0)
(676.211 932.503 0)
(660.881 938.845 0)
(682.732 912.852 0)
(731.973 895.654 0)
(826.011 869.783 0)
(937.04 882.071 0)
(1025.24 889.73 0)
(1110.51 915.27 0)
(1178.75 943.791 0)
(1243.87 980.013 0)
(1305.18 1024.75 0)
(1365.65 1078.77 0)
(1419.67 1139.97 0)
(1440.42 1202.67 0)
(1343.73 1260.78 0)
(1081.61 1302.21 0)
(457.016 1331.67 0)
(-455.726 1331.72 0)
(-1082.07 1301.46 0)
(-1346.28 1258.06 0)
(-1445.83 1196.62 0)
(-1428.47 1129.33 0)
(-1378.09 1062.36 0)
(-1322.02 1001.49 0)
(-1263.67 948.813 0)
(-1205.74 904.018 0)
(-1136.24 864.671 0)
(-1067.37 828.946 0)
(-975.552 800.965 0)
(-889.069 774.818 0)
(-811.716 764.179 0)
(-764.577 764.944 0)
(-751.512 764.747 0)
(-720.971 755.336 0)
(-852.482 725.833 0)
(13942.7 641.327 0)
(-18900.4 5218.41 0)
(24332.9 6357.18 0)
(-18061.9 777.342 0)
(971.575 909.717 0)
(708.404 978.171 0)
(652.216 1000.02 0)
(660.927 991.708 0)
(711.967 968.823 0)
(821.714 959.289 0)
(947.035 965.597 0)
(1046.65 979.184 0)
(1142.55 1011.33 0)
(1218.17 1045.58 0)
(1291.55 1090.79 0)
(1360.9 1141.24 0)
(1427.52 1198.21 0)
(1483.53 1259.07 0)
(1500.39 1320.19 0)
(1391.9 1375.68 0)
(1115.89 1415.2 0)
(471.286 1444.05 0)
(-470.695 1443.57 0)
(-1118.16 1412.89 0)