/*--------------------------------*- C++ -*----------------------------------*\
| =========                 |                                                 |
| \\      /  F ield         | OpenFOAM: The Open Source CFD Toolbox           |
|  \\    /   O peration     | Version:  v1912                                 |
|   \\  /    A nd           | Website:  www.openfoam.com                      |
|    \\/     M anipulation  |                                                 |
\*---------------------------------------------------------------------------*/
FoamFile
{
    version     2.0;
    format      ascii;
    class       volVectorField;
    location    "1.42";
    object      U;
}
// * * * * * * * * * * * * * * * * * * * * * * * * * * * * * * * * * * * * * //

dimensions      [0 1 -1 0 0 0 0];


internalField   nonuniform List<vector> 
1900
(
(-2.60647e-06 1.11727e-09 0)
(-0.000268282 9.92205e-08 0)
(-0.00327141 1.58979e-06 0)
(-0.0137365 9.46703e-06 0)
(-0.028949 3.32039e-05 0)
(-0.0411393 8.68779e-05 0)
(-0.0482124 0.000107406 0)
(-0.0501033 -0.00060841 0)
(-0.0508184 -0.00230722 0)
(-0.0454654 -0.00764814 0)
(-2.59205e-06 4.31786e-09 0)
(-0.000267681 2.69368e-07 0)
(-0.0032672 3.41308e-06 0)
(-0.0137267 1.65718e-05 0)
(-0.0289073 5.62701e-05 0)
(-0.0409779 0.000165812 0)
(-0.0477211 0.000241286 0)
(-0.0494263 -8.61374e-05 0)
(-0.0515085 -0.00134253 0)
(-0.051421 -0.00597584 0)
(-2.5813e-06 -1.82401e-13 0)
(-0.000267311 1.39303e-13 0)
(-0.00326517 -1.3031e-13 0)
(-0.0137185 3.70099e-14 0)
(-0.0288574 -5.17374e-14 0)
(-0.0408385 6.16042e-15 0)
(-0.0474688 -1.63554e-14 0)
(-0.0493477 -1.91423e-14 0)
(-0.0516533 -5.42425e-14 0)
(-0.0550711 -3.67641e-14 0)
(-2.59205e-06 -4.31825e-09 0)
(-0.000267681 -2.69368e-07 0)
(-0.0032672 -3.41308e-06 0)
(-0.0137267 -1.65718e-05 0)
(-0.0289073 -5.62701e-05 0)
(-0.0409779 -0.000165812 0)
(-0.0477211 -0.000241286 0)
(-0.0494263 8.61374e-05 0)
(-0.0515085 0.00134253 0)
(-0.051421 0.00597584 0)
(-2.60647e-06 -1.11746e-09 0)
(-0.000268282 -9.92203e-08 0)
(-0.00327141 -1.58979e-06 0)
(-0.0137365 -9.46703e-06 0)
(-0.028949 -3.32039e-05 0)
(-0.0411393 -8.68779e-05 0)
(-0.0482124 -0.000107406 0)
(-0.0501033 0.00060841 0)
(-0.0508184 0.00230722 0)
(-0.0454654 0.00764814 0)
(-0.0454808 -0.022114 0)
(-0.0590535 -0.0292138 0)
(-0.0726142 -0.0408801 0)
(-0.0964899 -0.0546501 0)
(-0.176063 -0.0508733 0)
(-0.058398 -0.0140867 0)
(-0.0720869 -0.0182564 0)
(-0.0916749 -0.0280318 0)
(-0.131508 -0.0393706 0)
(-0.208951 -0.0388671 0)
(-0.0631386 -4.20606e-14 0)
(-0.0759941 -4.46824e-14 0)
(-0.0986805 -5.25007e-15 0)
(-0.143214 -2.18769e-14 0)
(-0.217099 -6.51631e-15 0)
(-0.058398 0.0140867 0)
(-0.0720869 0.0182564 0)
(-0.0916749 0.0280318 0)
(-0.131508 0.0393706 0)
(-0.208951 0.0388671 0)
(-0.0454808 0.022114 0)
(-0.0590535 0.0292138 0)
(-0.0726142 0.0408801 0)
(-0.0964899 0.0546501 0)
(-0.176063 0.0508733 0)
(-0.216888 0.00936637 0)
(-0.183389 0.0148978 0)
(-0.167656 0.0168907 0)
(-0.164144 0.0351072 0)
(-0.238692 0.0852414 0)
(-0.225021 0.00920769 0)
(-0.1916 0.0099389 0)
(-0.164327 0.0109154 0)
(-0.131432 0.0296922 0)
(-0.092991 0.0960246 0)
(-0.230442 6.27438e-15 0)
(-0.194882 1.34753e-14 0)
(-0.161117 1.67651e-14 0)
(-0.110112 6.1151e-14 0)
(-0.0100098 4.56706e-14 0)
(-0.225021 -0.00920769 0)
(-0.1916 -0.0099389 0)
(-0.164327 -0.0109154 0)
(-0.131432 -0.0296922 0)
(-0.092991 -0.0960246 0)
(-0.216888 -0.00936637 0)
(-0.183389 -0.0148978 0)
(-0.167656 -0.0168907 0)
(-0.164144 -0.0351072 0)
(-0.238692 -0.0852414 0)
(-0.438886 0.0777564 0)
(-0.0995937 -0.135997 0)
(-0.170505 -0.153846 0)
(-0.262195 -0.0701942 0)
(-0.294693 -0.0224745 0)
(-0.289336 -0.0100329 0)
(-0.254682 -0.00275398 0)
(-0.210755 -0.00189808 0)
(-0.160728 -0.00134679 0)
(-0.109927 -0.000894858 0)
(-0.0630809 -0.000487754 0)
(-0.026486 -0.000198715 0)
(-0.00634431 -4.90349e-05 0)
(-0.000599935 -4.96085e-06 0)
(-1.46393e-05 -1.29544e-07 0)
(-6.17155e-08 -5.76031e-10 0)
(-3.19459e-11 -2.9573e-13 0)
(-1.81146e-15 -1.08427e-16 0)
(-7.84549e-17 2.30003e-16 0)
(4.48204e-17 -6.99005e-17 0)
(4.51835e-17 7.75135e-17 0)
(5.44622e-18 -9.297e-17 0)
(2.41122e-15 2.02319e-16 0)
(4.32891e-11 2.56701e-14 0)
(7.92753e-08 -3.70088e-14 0)
(1.7905e-05 2.16942e-14 0)
(0.00070372 -1.20957e-13 0)
(0.00720781 1.96119e-13 0)
(0.0294843 -2.11224e-14 0)
(0.0695711 -4.28633e-14 0)
(0.12124 6.56163e-14 0)
(0.178883 -6.10691e-14 0)
(0.239454 1.46056e-13 0)
(0.301139 -7.10632e-14 0)
(0.362233 4.26787e-14 0)
(0.420942 2.00955e-14 0)
(0.474478 4.41983e-14 0)
(0.51679 1.48856e-14 0)
(0.598577 5.14833e-14 0)
(1.21662 4.65908e-15 0)
(0.0575183 0.0980055 0)
(0.157838 -0.0976765 0)
(-0.0507358 -0.104481 0)
(-0.234013 -0.0406266 0)
(-0.289547 -0.0119352 0)
(-0.289832 -0.00510034 0)
(-0.255232 -0.0012829 0)
(-0.210911 -0.000867223 0)
(-0.160565 -0.000654387 0)
(-0.109756 -0.000452559 0)
(-0.0629706 -0.00024606 0)
(-0.0264315 -9.83092e-05 0)
(-0.00632647 -2.37531e-05 0)
(-0.000597384 -2.37767e-06 0)
(-1.45462e-05 -6.21038e-08 0)
(-6.11606e-08 -2.76393e-10 0)
(-3.15607e-11 -1.65191e-13 0)
(-1.73758e-15 -7.49758e-17 0)
(-1.67184e-16 4.39243e-16 0)
(4.02972e-17 1.88478e-16 0)
(5.85649e-17 1.40493e-16 0)
(2.11839e-17 3.44658e-16 0)
(2.49894e-15 3.55731e-16 0)
(4.33018e-11 3.92329e-14 0)
(7.92752e-08 -2.02901e-14 0)
(1.7905e-05 2.94759e-14 0)
(0.00070372 -1.62136e-13 0)
(0.00720781 2.13672e-13 0)
(0.0294843 -4.78547e-14 0)
(0.0695711 -3.24321e-14 0)
(0.12124 3.91471e-14 0)
(0.178883 -6.66218e-14 0)
(0.239454 1.1489e-13 0)
(0.301139 -6.96093e-14 0)
(0.362233 4.08527e-14 0)
(0.420942 8.87648e-15 0)
(0.474478 3.64189e-14 0)
(0.51679 4.51915e-15 0)
(0.598577 -3.32546e-15 0)
(1.21662 -2.05448e-14 0)
(0.205428 6.63971e-15 0)
(0.243386 -2.72392e-14 0)
(0.000604851 -2.44808e-14 0)
(-0.222269 -2.90081e-15 0)
(-0.2877 1.52056e-15 0)
(-0.290145 1.67831e-14 0)
(-0.255525 6.29896e-15 0)
(-0.210969 -8.33018e-15 0)
(-0.160515 -3.06576e-14 0)
(-0.109704 3.6132e-14 0)
(-0.0629352 2.19676e-14 0)
(-0.0264116 -1.81746e-14 0)
(-0.00631938 -1.75019e-14 0)
(-0.000596373 5.35348e-15 0)
(-1.45106e-05 3.22701e-14 0)
(-6.09555e-08 -1.935e-14 0)
(-3.14178e-11 -1.48602e-14 0)
(-1.67593e-15 5.62895e-17 0)
(-6.78145e-17 3.85953e-16 0)
(-4.78785e-17 2.90214e-16 0)
(5.60195e-17 2.71759e-16 0)
(1.03174e-16 5.91271e-16 0)
(2.42501e-15 5.03145e-16 0)
(4.33151e-11 3.26253e-14 0)
(7.92752e-08 1.01137e-15 0)
(1.7905e-05 3.0399e-14 0)
(0.00070372 -1.67391e-13 0)
(0.00720781 2.38199e-13 0)
(0.0294843 -8.28999e-14 0)
(0.0695711 -2.64842e-14 0)
(0.12124 8.56773e-15 0)
(0.178883 -6.44786e-14 0)
(0.239454 9.97847e-14 0)
(0.301139 -6.7625e-14 0)
(0.362233 1.56425e-14 0)
(0.420942 1.24781e-14 0)
(0.474478 3.34642e-14 0)
(0.51679 -5.91538e-15 0)
(0.598577 -1.11991e-14 0)
(1.21662 -3.65985e-14 0)
(0.0575183 -0.0980055 0)
(0.157838 0.0976765 0)
(-0.0507358 0.104481 0)
(-0.234013 0.0406266 0)
(-0.289547 0.0119352 0)
(-0.289832 0.00510034 0)
(-0.255232 0.0012829 0)
(-0.210911 0.000867223 0)
(-0.160565 0.000654387 0)
(-0.109756 0.000452559 0)
(-0.0629706 0.00024606 0)
(-0.0264315 9.83092e-05 0)
(-0.00632647 2.37531e-05 0)
(-0.000597384 2.37767e-06 0)
(-1.45462e-05 6.21039e-08 0)
(-6.11606e-08 2.7633e-10 0)
(-3.15491e-11 1.42995e-13 0)
(-1.69357e-15 0 0)
(-3.02953e-18 1.26651e-16 0)
(-4.65392e-17 1.04043e-16 0)
(6.21237e-17 1.14194e-16 0)
(1.14874e-16 1.60102e-16 0)
(2.61807e-15 3.94488e-17 0)
(4.33242e-11 9.57084e-15 0)
(7.92752e-08 4.88704e-15 0)
(1.7905e-05 3.10791e-14 0)
(0.00070372 -1.58328e-13 0)
(0.00720781 2.11477e-13 0)
(0.0294843 -1.02587e-13 0)
(0.0695711 -8.58255e-15 0)
(0.12124 -3.07369e-14 0)
(0.178883 -7.55908e-14 0)
(0.239454 7.4486e-14 0)
(0.301139 -7.42495e-14 0)
(0.362233 1.1465e-15 0)
(0.420942 1.82463e-14 0)
(0.474478 3.20787e-14 0)
(0.51679 -1.56124e-14 0)
(0.598577 -1.91335e-14 0)
(1.21662 -2.35449e-14 0)
(-0.438886 -0.0777564 0)
(-0.0995937 0.135997 0)
(-0.170505 0.153846 0)
(-0.262195 0.0701942 0)
(-0.294693 0.0224745 0)
(-0.289336 0.0100329 0)
(-0.254682 0.00275398 0)
(-0.210755 0.00189808 0)
(-0.160728 0.00134679 0)
(-0.109927 0.000894858 0)
(-0.0630809 0.000487754 0)
(-0.026486 0.000198715 0)
(-0.00634431 4.90349e-05 0)
(-0.000599935 4.96085e-06 0)
(-1.46393e-05 1.29544e-07 0)
(-6.17154e-08 5.75958e-10 0)
(-3.1936e-11 3.23139e-13 0)
(-1.69741e-15 0 0)
(-1.74172e-17 -7.9359e-17 0)
(-1.27826e-18 -7.77442e-17 0)
(1.3893e-17 0 0)
(2.3297e-17 -9.15859e-17 0)
(2.38438e-15 -4.23786e-16 0)
(4.33217e-11 -2.10318e-14 0)
(7.92752e-08 8.92535e-15 0)
(1.7905e-05 2.14502e-14 0)
(0.00070372 -1.39221e-13 0)
(0.00720781 1.4551e-13 0)
(0.0294843 -1.11803e-13 0)
(0.0695711 1.166e-14 0)
(0.12124 -6.90358e-14 0)
(0.178883 -7.33197e-14 0)
(0.239454 3.35705e-14 0)
(0.301139 -5.66409e-14 0)
(0.362233 4.83312e-15 0)
(0.420942 1.14875e-14 0)
(0.474478 4.6883e-15 0)
(0.51679 -1.90383e-14 0)
(0.598577 -4.4425e-14 0)
(1.21662 -2.19437e-14 0)
(-1.0678 -0.103446 0)
(-0.401514 0.165815 0)
(-0.31517 0.184873 0)
(-0.306156 0.0999001 0)
(-0.310945 0.0379292 0)
(-0.290784 0.0173261 0)
(-0.255543 0.00766348 0)
(-0.211321 0.00476218 0)
(-0.161299 0.00297959 0)
(-0.110407 0.00181873 0)
(-0.0634492 0.000969685 0)
(-0.0267152 0.000389932 0)
(-0.0064291 9.27407e-05 0)
(-0.000612063 8.98153e-06 0)
(-1.50654e-05 2.26538e-07 0)
(-6.41639e-08 9.80492e-10 0)
(-3.35554e-11 4.84899e-13 0)
(-1.79742e-15 7.45188e-18 0)
(-5.33935e-17 -3.48219e-17 0)
(-1.35336e-18 2.97379e-17 0)
(2.7073e-17 2.85539e-18 0)
(-5.86744e-20 -1.06207e-16 0)
(2.29497e-15 -2.58796e-16 0)
(4.32997e-11 -2.194e-14 0)
(7.92752e-08 2.49325e-16 0)
(1.7905e-05 7.05371e-15 0)
(0.00070372 -5.8244e-14 0)
(0.00720781 6.02511e-16 0)
(0.0294843 -6.95156e-14 0)
(0.0695711 5.55662e-14 0)
(0.12124 -1.20849e-13 0)
(0.178883 -3.62832e-14 0)
(0.239454 -1.72895e-14 0)
(0.301139 -1.6198e-14 0)
(0.362233 1.84027e-14 0)
(0.420942 4.1338e-15 0)
(0.474478 8.71182e-15 0)
(0.51679 -2.74845e-14 0)
(0.598577 -1.50129e-15 0)
(1.21662 2.60931e-16 0)
(-1.21797 -0.0798067 0)
(-0.560438 0.142883 0)
(-0.42712 0.173794 0)
(-0.363457 0.099273 0)
(-0.336601 0.0482587 0)
(-0.301919 0.0257972 0)
(-0.26193 0.0146745 0)
(-0.21444 0.00870838 0)
(-0.163199 0.00507623 0)
(-0.111739 0.00283431 0)
(-0.0643644 0.00138225 0)
(-0.027222 0.000514685 0)
(-0.00660057 0.000115742 0)
(-0.000635421 1.08007e-05 0)
(-1.58666e-05 2.64699e-07 0)
(-6.86908e-08 1.1033e-09 0)
(-3.64862e-11 4.98764e-13 0)
(-1.961e-15 1.88735e-17 0)
(-9.14979e-17 7.46581e-17 0)
(-7.19206e-18 2.75232e-16 0)
(3.75627e-17 1.15678e-16 0)
(-1.95483e-18 -9.68048e-18 0)
(2.23498e-15 -1.41516e-16 0)
(4.32901e-11 -2.47319e-15 0)
(7.92752e-08 -7.11536e-15 0)
(1.7905e-05 -1.4222e-14 0)
(0.00070372 4.71802e-14 0)
(0.00720781 -1.60981e-13 0)
(0.0294843 -6.25853e-14 0)
(0.0695711 1.12518e-13 0)
(0.12124 -1.96094e-13 0)
(0.178883 -2.15179e-14 0)
(0.239454 -8.30991e-14 0)
(0.301139 1.69254e-14 0)
(0.362233 -2.29375e-14 0)
(0.420942 -1.88954e-14 0)
(0.474478 4.1672e-14 0)
(0.51679 -2.71148e-14 0)
(0.598577 -4.22613e-15 0)
(1.21662 2.76173e-14 0)
(-1.22862 -0.0220337 0)
(-0.595414 0.0928148 0)
(-0.46966 0.132464 0)
(-0.400068 0.0790159 0)
(-0.359121 0.0466369 0)
(-0.316749 0.0290716 0)
(-0.270528 0.0181675 0)
(-0.219331 0.0108419 0)
(-0.166144 0.00624587 0)
(-0.113631 0.00333503 0)
(-0.0655446 0.00153914 0)
(-0.0278271 0.000540883 0)
(-0.00679288 0.000115137 0)
(-0.000660433 1.02287e-05 0)
(-1.66958e-05 2.3063e-07 0)
(-7.31377e-08 8.44533e-10 0)
(-3.96268e-11 8.05249e-13 0)
(-9.40153e-15 1.69018e-13 0)
(-1.84461e-16 1.61527e-13 0)
(-2.59181e-17 1.61618e-13 0)
(4.65113e-17 1.61509e-13 0)
(3.62813e-17 1.6146e-13 0)
(9.52688e-15 1.69019e-13 0)
(4.32886e-11 1.7039e-13 0)
(7.92753e-08 2.1642e-13 0)
(1.7905e-05 1.33722e-13 0)
(0.00070372 3.47093e-13 0)
(0.00720781 -4.88996e-15 0)
(0.0294843 1.81994e-13 0)
(0.0695711 3.1486e-13 0)
(0.12124 -1.37948e-13 0)
(0.178883 5.80603e-14 0)
(0.239454 -3.17239e-14 0)
(0.301139 8.59942e-14 0)
(0.362233 -2.33325e-14 0)
(0.420942 -3.67888e-14 0)
(0.474478 1.12611e-13 0)
(0.51679 3.99098e-14 0)
(0.598577 1.20548e-15 0)
(1.21662 4.94447e-14 0)
(-1.22804 0.00928292 0)
(-0.601527 0.0656752 0)
(-0.487895 0.0983519 0)
(-0.425681 0.0615168 0)
(-0.378736 0.0421966 0)
(-0.330852 0.0278273 0)
(-0.279277 0.0175269 0)
(-0.224807 0.0105737 0)
(-0.16959 0.00603121 0)
(-0.115799 0.00311836 0)
(-0.0668169 0.00136562 0)
(-0.0284285 0.000451926 0)
(-0.00696809 8.89323e-05 0)
(-0.000681642 6.6748e-06 0)
(-1.73533e-05 1.57601e-07 0)
(-7.7086e-08 2.14148e-09 0)
(-4.2091e-11 1.20547e-09 0)
(-6.04741e-14 1.20505e-09 0)
(-6.61455e-15 1.205e-09 0)
(8.97562e-15 1.205e-09 0)
(2.67247e-15 1.20502e-09 0)
(-1.80661e-15 1.205e-09 0)
(5.3641e-14 1.20505e-09 0)
(4.32399e-11 1.205e-09 0)
(7.92753e-08 1.205e-09 0)
(1.7905e-05 1.20553e-09 0)
(0.00070372 1.20432e-09 0)
(0.00720781 1.19581e-09 0)
(0.0294843 1.15599e-09 0)
(0.0695711 1.05969e-09 0)
(0.12124 9.01298e-10 0)
(0.178883 7.05621e-10 0)
(0.239454 5.05751e-10 0)
(0.301139 3.33049e-10 0)
(0.362233 2.02543e-10 0)
(0.420942 1.17359e-10 0)
(0.474478 6.28726e-11 0)
(0.51679 3.16577e-11 0)
(0.598577 6.98145e-12 0)
(1.21662 3.78007e-13 0)
(-1.22592 0.0289382 0)
(-0.600006 0.0482339 0)
(-0.496346 0.0718625 0)
(-0.443173 0.046144 0)
(-0.394083 0.0339653 0)
(-0.342093 0.022745 0)
(-0.286886 0.0144051 0)
(-0.229905 0.00873025 0)
(-0.172919 0.00491835 0)
(-0.117878 0.00246086 0)
(-0.0679701 0.000995741 0)
(-0.0289162 0.000289919 0)
(-0.00709209 5.19008e-05 0)
(-0.000695484 6.58188e-06 0)
(-1.77922e-05 1.04081e-06 0)
(-7.92157e-08 8.95282e-07 0)
(-4.34807e-11 8.94771e-07 0)
(-1.75863e-15 8.9477e-07 0)
(-1.05447e-14 8.9477e-07 0)
(1.55992e-14 8.9477e-07 0)
(1.31754e-14 8.9477e-07 0)
(-2.42985e-14 8.9477e-07 0)
(-6.68438e-15 8.9477e-07 0)
(4.33997e-11 8.94771e-07 0)
(7.92752e-08 8.9477e-07 0)
(1.7905e-05 8.94761e-07 0)
(0.000703719 8.94336e-07 0)
(0.0072078 8.89359e-07 0)
(0.0294843 8.66921e-07 0)
(0.0695711 8.12153e-07 0)
(0.12124 7.20721e-07 0)
(0.178883 6.01544e-07 0)
(0.239454 4.70971e-07 0)
(0.301139 3.46325e-07 0)
(0.362233 2.40275e-07 0)
(0.420942 1.60939e-07 0)
(0.474478 1.00975e-07 0)
(0.51679 6.09873e-08 0)
(0.598577 1.68531e-08 0)
(1.21662 1.35686e-09 0)
(-1.22437 0.0307857 0)
(-0.597599 0.035255 0)
(-0.501442 0.0514077 0)
(-0.455774 0.0329598 0)
(-0.40537 0.0249119 0)
(-0.350465 0.0168731 0)
(-0.292831 0.0107751 0)
(-0.233932 0.0064596 0)
(-0.175473 0.00353039 0)
(-0.11935 0.0017313 0)
(-0.0687372 0.000786695 0)
(-0.029238 0.00032219 0)
(-0.00717696 0.000136743 0)
(-0.000703185 9.65374e-05 0)
(-1.79655e-05 9.39994e-05 0)
(-7.98946e-08 9.39618e-05 0)
(-4.39096e-11 9.39618e-05 0)
(-2.90404e-15 9.39618e-05 0)
(-2.61282e-14 9.39618e-05 0)
(-5.14934e-14 9.39618e-05 0)
(-6.87063e-14 9.39618e-05 0)
(-1.04669e-13 9.39618e-05 0)
(-2.09857e-14 9.39618e-05 0)
(4.35556e-11 9.39618e-05 0)
(7.92701e-08 9.39618e-05 0)
(1.79041e-05 9.3961e-05 0)
(0.000703691 9.39259e-05 0)
(0.00720756 9.35303e-05 0)
(0.0294835 9.17992e-05 0)
(0.0695693 8.76205e-05 0)
(0.121238 8.05578e-05 0)
(0.178879 7.10118e-05 0)
(0.239451 5.99088e-05 0)
(0.301136 4.8412e-05 0)
(0.36223 3.75569e-05 0)
(0.42094 2.84589e-05 0)
(0.474476 2.05299e-05 0)
(0.516789 1.4504e-05 0)
(0.598575 5.03622e-06 0)
(1.21662 7.97403e-07 0)
(-1.22131 0.0292239 0)
(-0.594899 0.0264045 0)
(-0.507312 0.0346626 0)
(-0.463674 0.0232467 0)
(-0.412069 0.0179256 0)
(-0.355471 0.0126608 0)
(-0.296605 0.00863572 0)
(-0.236677 0.00590176 0)
(-0.177311 0.00407162 0)
(-0.120459 0.00290433 0)
(-0.0692373 0.0022909 0)
(-0.0293906 0.00206667 0)
(-0.00719574 0.00201965 0)
(-0.000703728 0.0020175 0)
(-1.79462e-05 0.00201845 0)
(-7.96569e-08 0.00201849 0)
(-4.36018e-11 0.00201849 0)
(-1.76898e-14 0.00201849 0)
(3.02695e-14 0.00201849 0)
(6.02749e-14 0.00201849 0)
(5.2603e-14 0.00201849 0)
(1.45395e-14 0.00201849 0)
(-2.31525e-14 0.00201849 0)
(4.30421e-11 0.00201849 0)
(7.9151e-08 0.00201849 0)
(1.78829e-05 0.00201847 0)
(0.000703042 0.00201788 0)
(0.00720229 0.00201149 0)
(0.0294657 0.00198484 0)
(0.0695332 0.00192229 0)
(0.121183 0.00181696 0)
(0.178809 0.00167173 0)
(0.23937 0.00149562 0)
(0.301051 0.00130189 0)
(0.362148 0.00110332 0)
(0.420863 0.00092207 0)
(0.474403 0.000744911 0)
(0.516737 0.000597224 0)
(0.598483 0.000261537 0)
(1.21661 7.86186e-05 0)
(-1.21898 0.0230198 0)
(-0.593105 0.0219577 0)
(-0.512763 0.0249742 0)
(-0.469667 0.0207718 0)
(-0.41707 0.017826 0)
(-0.35924 0.0153357 0)
(-0.298849 0.0136809 0)
(-0.237786 0.0128911 0)
(-0.177762 0.0127218 0)
(-0.120547 0.0129005 0)
(-0.0691947 0.0131297 0)
(-0.0293309 0.0133376 0)
(-0.00717022 0.0134632 0)
(-0.000699635 0.0134987 0)
(-1.77783e-05 0.0135025 0)
(-7.85525e-08 0.0135026 0)
(-4.27823e-11 0.0135026 0)
(1.88012e-13 0.0135026 0)
(1.59858e-13 0.0135026 0)
(3.31098e-14 0.0135026 0)
(-1.08795e-13 0.0135026 0)
(-2.20611e-13 0.0135026 0)
(-1.90951e-13 0.0135026 0)
(4.26989e-11 0.0135026 0)
(7.82365e-08 0.0135026 0)
(1.77264e-05 0.0135025 0)
(0.000698474 0.0134992 0)
(0.00716736 0.0134664 0)
(0.0293544 0.0133374 0)
(0.0693165 0.013049 0)
(0.120857 0.0125746 0)
(0.178384 0.0119212 0)
(0.238868 0.011114 0)
(0.300498 0.0101944 0)
(0.361576 0.00919817 0)
(0.420284 0.00824386 0)
(0.473817 0.00723411 0)
(0.51628 0.00634876 0)
(0.597515 0.00347411 0)
(1.21651 0.00175269 0)
(-1.21631 0.0222708 0)
(-0.592417 0.02614 0)
(-0.513725 0.0324625 0)
(-0.470811 0.0329872 0)
(-0.417655 0.0338808 0)
(-0.35932 0.0350171 0)
(-0.298543 0.036471 0)
(-0.237248 0.0378664 0)
(-0.177133 0.0392059 0)
(-0.119965 0.0404403 0)
(-0.0687411 0.0414266 0)
(-0.0290516 0.0420676 0)
(-0.00706693 0.0423828 0)
(-0.000684524 0.0424697 0)
(-1.7225e-05 0.0424788 0)
(-7.52151e-08 0.042479 0)
(-4.06797e-11 0.042479 0)
(-1.63311e-13 0.042479 0)
(-1.42165e-13 0.042479 0)
(-8.69397e-14 0.042479 0)
(3.75948e-14 0.042479 0)
(1.24196e-13 0.042479 0)
(1.3406e-13 0.042479 0)
(4.0543e-11 0.042479 0)
(7.51273e-08 0.042479 0)
(1.72045e-05 0.0424788 0)
(0.000683771 0.0424701 0)
(0.00706084 0.0423862 0)
(0.0290363 0.042077 0)
(0.0687299 0.0414249 0)
(0.120003 0.0403953 0)
(0.177286 0.0390071 0)
(0.237559 0.0372984 0)
(0.299022 0.035333 0)
(0.359986 0.0331448 0)
(0.418608 0.0310389 0)
(0.472066 0.0287187 0)
(0.514797 0.0266194 0)
(0.594265 0.0176445 0)
(1.21565 0.01259 0)
(-1.21294 0.0453678 0)
(-0.589509 0.0519144 0)
(-0.512572 0.0659752 0)
(-0.469318 0.0683809 0)
(-0.415961 0.0708223 0)
(-0.357522 0.0732818 0)
(-0.296775 0.0761913 0)
(-0.235554 0.078887 0)
(-0.175563 0.0812838 0)
(-0.118616 0.0833082 0)
(-0.0677282 0.0848918 0)
(-0.0284568 0.0859435 0)
(-0.00685481 0.0864675 0)
(-0.000654183 0.0866155 0)
(-1.6135e-05 0.0866311 0)
(-6.87435e-08 0.0866315 0)
(-3.57391e-11 0.0866315 0)
(2.19665e-13 0.0866315 0)
(2.10133e-13 0.0866315 0)
(8.76037e-14 0.0866315 0)
(-5.52862e-14 0.0866315 0)
(-1.57633e-13 0.0866315 0)
(-1.83796e-13 0.0866315 0)
(3.5798e-11 0.0866315 0)
(6.87563e-08 0.0866315 0)
(1.61343e-05 0.0866311 0)
(0.000654035 0.0866156 0)
(0.00685239 0.0864698 0)
(0.0284444 0.0859545 0)
(0.0676963 0.0849241 0)
(0.118564 0.0833703 0)
(0.175487 0.0813402 0)
(0.235442 0.0788841 0)
(0.296632 0.0760804 0)
(0.357364 0.0729346 0)
(0.415836 0.0700291 0)
(0.469138 0.0667902 0)
(0.512101 0.0636312 0)
(0.589476 0.0487457 0)
(1.2125 0.042119 0)
(-1.20609 0.0908591 0)
(-0.585769 0.0943794 0)
(-0.508768 0.111447 0)
(-0.465773 0.115507 0)
(-0.412554 0.118928 0)
(-0.354193 0.122169 0)
(-0.293706 0.125977 0)
(-0.23281 0.129457 0)
(-0.173179 0.132534 0)
(-0.116638 0.135113 0)
(-0.0662448 0.137142 0)
(-0.027573 0.138536 0)
(-0.00653519 0.139255 0)
(-0.000608273 0.139462 0)
(-1.45012e-05 0.139483 0)
(-5.92505e-08 0.139484 0)
(-2.97721e-11 0.139484 0)
(-1.08981e-13 0.139484 0)
(-7.02633e-14 0.139484 0)
(-6.36167e-14 0.139484 0)
(-8.57769e-14 0.139484 0)
(-1.00433e-13 0.139484 0)
(-5.57396e-14 0.139484 0)
(2.96033e-11 0.139484 0)
(5.92715e-08 0.139484 0)
(1.45042e-05 0.139483 0)
(0.000608309 0.139462 0)
(0.00653469 0.139256 0)
(0.0275675 0.138541 0)
(0.0662259 0.137164 0)
(0.116596 0.135167 0)
(0.173102 0.132637 0)
(0.232693 0.12964 0)
(0.293554 0.126256 0)
(0.354002 0.122495 0)
(0.412317 0.119237 0)
(0.465443 0.11566 0)
(0.508343 0.111516 0)
(0.585381 0.0940062 0)
(1.20569 0.089905 0)
(-1.19348 0.145928 0)
(-0.582838 0.14631 0)
(-0.504133 0.164724 0)
(-0.461604 0.1698 0)
(-0.408632 0.173552 0)
(-0.35021 0.176795 0)
(-0.290114 0.181147 0)
(-0.229511 0.184981 0)
(-0.170282 0.188477 0)
(-0.114192 0.191451 0)
(-0.0643681 0.19385 0)
(-0.0264291 0.195546 0)
(-0.0061178 0.19644 0)
(-0.000549001 0.196697 0)
(-1.24548e-05 0.196723 0)
(-4.78774e-08 0.196724 0)
(-2.20278e-11 0.196724 0)
(1.78815e-13 0.196724 0)
(1.74886e-13 0.196724 0)
(1.13566e-13 0.196724 0)
(4.53408e-14 0.196724 0)
(-2.23154e-14 0.196724 0)
(-3.39974e-14 0.196724 0)
(2.21701e-11 0.196724 0)
(4.7887e-08 0.196724 0)
(1.24567e-05 0.196723 0)
(0.00054905 0.196697 0)
(0.00611795 0.19644 0)
(0.026428 0.195547 0)
(0.0643613 0.193858 0)
(0.114171 0.191476 0)
(0.17024 0.188539 0)
(0.229444 0.185105 0)
(0.29002 0.181345 0)
(0.350079 0.177063 0)
(0.408448 0.173894 0)
(0.461375 0.170222 0)
(0.503897 0.165244 0)
(0.582661 0.146723 0)
(1.19332 0.145958 0)
(-1.17841 0.213726 0)
(-0.580957 0.201953 0)
(-0.498798 0.221617 0)
(-0.457221 0.227365 0)
(-0.404026 0.230691 0)
(-0.346027 0.23431 0)
(-0.285976 0.238669 0)
(-0.225823 0.242921 0)
(-0.166951 0.246709 0)
(-0.111343 0.250034 0)
(-0.0621441 0.252763 0)
(-0.0250583 0.254727 0)
(-0.00562075 0.255767 0)
(-0.000480502 0.25606 0)
(-1.02077e-05 0.256089 0)
(-3.61998e-08 0.256089 0)
(-1.52773e-11 0.256089 0)
(2.48375e-14 0.256089 0)
(1.83399e-14 0.256089 0)
(-1.84662e-14 0.256089 0)
(-4.79411e-14 0.256089 0)
(-7.11501e-14 0.256089 0)
(-4.83213e-14 0.256089 0)
(1.5302e-11 0.256089 0)
(3.62019e-08 0.256089 0)
(1.02083e-05 0.256089 0)
(0.000480523 0.25606 0)
(0.0056209 0.255767 0)
(0.0250585 0.254727 0)
(0.062143 0.252765 0)
(0.111337 0.250042 0)
(0.166939 0.246733 0)
(0.225801 0.242972 0)
(0.285941 0.238754 0)
(0.345971 0.234441 0)
(0.403942 0.230879 0)
(0.457121 0.227633 0)
(0.498706 0.221947 0)
(0.580917 0.202208 0)
(1.17837 0.21379 0)
(-1.15408 0.267332 0)
(-0.579893 0.256608 0)
(-0.49484 0.282152 0)
(-0.452593 0.285731 0)
(-0.400297 0.289983 0)
(-0.341099 0.292206 0)
(-0.282084 0.297572 0)
(-0.221743 0.301598 0)
(-0.163343 0.305773 0)
(-0.108166 0.309365 0)
(-0.0596388 0.312392 0)
(-0.0235117 0.314582 0)
(-0.00507094 0.315732 0)
(-0.000408132 0.316045 0)
(-7.9926e-06 0.316074 0)
(-2.56553e-08 0.316075 0)
(-9.68134e-12 0.316075 0)
(-5.4346e-14 0.316075 0)
(-2.15719e-14 0.316075 0)
(-8.19473e-15 0.316075 0)
(-3.96011e-14 0.316075 0)
(-5.81453e-14 0.316075 0)
(-5.81818e-14 0.316075 0)
(9.56288e-12 0.316075 0)
(2.56554e-08 0.316075 0)
(7.99265e-06 0.316074 0)
(0.000408136 0.316045 0)
(0.005071 0.315732 0)
(0.0235119 0.314582 0)
(0.0596391 0.312392 0)
(0.108166 0.309365 0)
(0.163342 0.305777 0)
(0.22174 0.301608 0)
(0.282077 0.297592 0)
(0.341087 0.292244 0)
(0.400276 0.290047 0)
(0.45257 0.285827 0)
(0.494828 0.28227 0)
(0.579903 0.256689 0)
(1.15409 0.267366 0)
(-1.13219 0.347604 0)
(-0.578291 0.310881 0)
(-0.490247 0.339698 0)
(-0.447453 0.342841 0)
(-0.393889 0.345808 0)
(-0.337207 0.350765 0)
(-0.276871 0.354821 0)
(-0.217553 0.359773 0)
(-0.159273 0.364008 0)
(-0.104654 0.367942 0)
(-0.0568554 0.371221 0)
(-0.021818 0.37359 0)
(-0.00449135 0.374803 0)
(-0.000336695 0.375117 0)
(-5.99436e-06 0.375144 0)
(-1.71281e-08 0.375145 0)
(-5.67975e-12 0.375145 0)
(-4.78082e-14 0.375145 0)
(-2.10506e-14 0.375145 0)
(-3.60613e-15 0.375145 0)
(-1.95796e-15 0.375145 0)
(3.97616e-15 0.375145 0)
(1.51819e-14 0.375145 0)
(5.63083e-12 0.375145 0)
(1.71281e-08 0.375145 0)
(5.99432e-06 0.375144 0)
(0.000336694 0.375117 0)
(0.00449136 0.374803 0)
(0.0218181 0.37359 0)
(0.0568557 0.37122 0)
(0.104654 0.367941 0)
(0.159275 0.364006 0)
(0.217555 0.359771 0)
(0.276873 0.354819 0)
(0.337209 0.350767 0)
(0.393892 0.345816 0)
(0.447458 0.342854 0)
(0.490257 0.339713 0)
(0.578303 0.31089 0)
(1.1322 0.347612 0)
(-1.102 0.386383 0)
(-0.578813 0.3637 0)
(-0.490961 0.401513 0)
(-0.442475 0.397352 0)
(-0.392121 0.403247 0)
(-0.332394 0.40532 0)
(-0.274636 0.4117 0)
(-0.214143 0.41569 0)
(-0.15616 0.42021 0)
(-0.101567 0.424126 0)
(-0.0542616 0.427536 0)
(-0.0201982 0.430019 0)
(-0.00394787 0.431273 0)
(-0.000273646 0.431581 0)
(-4.3879e-06 0.431605 0)
(-1.10366e-08 0.431606 0)
(-3.01684e-12 0.431606 0)
(1.30516e-13 0.431606 0)
(1.10199e-13 0.431606 0)
(5.97355e-14 0.431606 0)
(1.4465e-14 0.431606 0)
(-2.76608e-14 0.431606 0)
(-5.41842e-14 0.431606 0)
(3.06036e-12 0.431606 0)
(1.10366e-08 0.431606 0)
(4.38788e-06 0.431605 0)
(0.000273646 0.431581 0)
(0.00394787 0.431273 0)
(0.0201982 0.430019 0)
(0.0542618 0.427536 0)
(0.101567 0.424125 0)
(0.156161 0.420208 0)
(0.214145 0.415687 0)
(0.274638 0.411696 0)
(0.332397 0.405316 0)
(0.392126 0.403242 0)
(0.442482 0.397346 0)
(0.490968 0.401506 0)
(0.578817 0.363696 0)
(1.102 0.386382 0)
(-1.07362 0.4655 0)
(-0.576769 0.412572 0)
(-0.486002 0.44983 0)
(-0.438169 0.447251 0)
(-0.386997 0.452011 0)
(-0.329805 0.456775 0)
(-0.270928 0.462025 0)
(-0.211152 0.466707 0)
(-0.152817 0.471061 0)
(-0.0983041 0.475132 0)
(-0.0514637 0.478675 0)
(-0.0184709 0.481249 0)
(-0.0033956 0.482526 0)
(-0.000214951 0.482827 0)
(-3.06137e-06 0.482849 0)
(-6.68288e-09 0.48285 0)
(-1.61465e-12 0.48285 0)
(-2.6018e-14 0.48285 0)
(-3.07908e-14 0.48285 0)
(-2.94001e-14 0.48285 0)
(-1.50111e-14 0.48285 0)
(8.77515e-15 0.48285 0)
(2.76083e-14 0.48285 0)
(1.6263e-12 0.48285 0)
(6.68313e-09 0.48285 0)
(3.06137e-06 0.482849 0)
(0.000214951 0.482827 0)
(0.0033956 0.482526 0)
(0.0184709 0.481249 0)
(0.0514637 0.478675 0)
(0.0983043 0.475131 0)
(0.152817 0.471061 0)
(0.211153 0.466706 0)
(0.270929 0.462023 0)
(0.329807 0.456772 0)
(0.386999 0.452007 0)
(0.438171 0.447246 0)
(0.486004 0.449825 0)
(0.576769 0.412569 0)
(1.07362 0.4655 0)
(-1.05065 0.46271 0)
(-0.576939 0.450382 0)
(-0.491156 0.499313 0)
(-0.439567 0.492969 0)
(-0.389762 0.498059 0)
(-0.326092 0.497455 0)
(-0.266782 0.501781 0)
(-0.205486 0.505634 0)
(-0.148095 0.510891 0)
(-0.0946071 0.515305 0)
(-0.0488012 0.518813 0)
(-0.0169354 0.521113 0)
(-0.0029228 0.522162 0)
(-0.000167808 0.522389 0)
(-2.09971e-06 0.522404 0)
(-3.92553e-09 0.522405 0)
(-7.54271e-13 0.522405 0)
(1.99237e-14 0.522405 0)
(2.58249e-14 0.522405 0)
(9.45352e-15 0.522405 0)
(-2.70398e-15 0.522405 0)
(-1.00321e-14 0.522405 0)
(-2.55485e-14 0.522405 0)
(7.59105e-13 0.522405 0)
(3.92569e-09 0.522405 0)
(2.09971e-06 0.522404 0)
(0.000167808 0.522389 0)
(0.0029228 0.522162 0)
(0.0169354 0.521113 0)
(0.0488012 0.518813 0)
(0.0946071 0.515305 0)
(0.148095 0.510891 0)
(0.205486 0.505633 0)
(0.266782 0.50178 0)
(0.326092 0.497454 0)
(0.389762 0.498058 0)
(0.439568 0.492968 0)
(0.491157 0.499311 0)
(0.576939 0.450381 0)
(1.05065 0.46271 0)
(-0.984468 0.565029 0)
(-0.537767 0.542781 0)
(-0.4446 0.584273 0)
(-0.404922 0.583389 0)
(-0.354635 0.58561 0)
(-0.29972 0.585298 0)
(-0.243376 0.586948 0)
(-0.187087 0.588056 0)
(-0.130566 0.590009 0)
(-0.0781967 0.593241 0)
(-0.0361041 0.597925 0)
(-0.0106927 0.602564 0)
(-0.00151474 0.604944 0)
(-7.00244e-05 0.605416 0)
(-7.05277e-07 0.605442 0)
(-1.06787e-09 0.605442 0)
(-2.44068e-13 0.605442 0)
(-5.83293e-16 0.605442 0)
(-8.0356e-15 0.605442 0)
(-1.39776e-14 0.605442 0)
(-6.51255e-15 0.605442 0)
(-8.10573e-15 0.605442 0)
(-5.72661e-15 0.605442 0)
(1.62035e-13 0.605442 0)
(1.06782e-09 0.605442 0)
(7.05277e-07 0.605442 0)
(7.00244e-05 0.605416 0)
(0.00151474 0.604944 0)
(0.0106927 0.602564 0)
(0.0361041 0.597925 0)
(0.0781967 0.593241 0)
(0.130566 0.590009 0)
(0.187087 0.588056 0)
(0.243376 0.586948 0)
(0.299719 0.585298 0)
(0.354635 0.58561 0)
(0.404921 0.583388 0)
(0.444599 0.584273 0)
(0.537767 0.54278 0)
(0.984468 0.565028 0)
(-1.04172 1.04781 0)
(-0.557957 0.987574 0)
(-0.455134 1.0561 0)
(-0.457284 1.08016 0)
(-0.374707 1.10872 0)
(-0.334061 1.13986 0)
(-0.252107 1.16191 0)
(-0.195653 1.18571 0)
(-0.128131 1.20032 0)
(-0.0726469 1.21142 0)
(-0.029504 1.21709 0)
(-0.00686498 1.2193 0)
(-0.000648164 1.21976 0)
(-1.71282e-05 1.2198 0)
(-9.08421e-08 1.2198 0)
(-7.31093e-11 1.2198 0)
(-5.48449e-14 1.2198 0)
(-4.31795e-14 1.2198 0)
(-4.20376e-14 1.2198 0)
(-2.58056e-14 1.2198 0)
(-1.06424e-14 1.2198 0)
(3.02863e-15 1.2198 0)
(-1.75256e-14 1.2198 0)
(-2.27449e-14 1.2198 0)
(7.29051e-11 1.2198 0)
(9.08424e-08 1.2198 0)
(1.71282e-05 1.2198 0)
(0.000648164 1.21976 0)
(0.00686498 1.2193 0)
(0.029504 1.21709 0)
(0.0726469 1.21142 0)
(0.128131 1.20032 0)
(0.195653 1.18571 0)
(0.252107 1.16191 0)
(0.334061 1.13986 0)
(0.374707 1.10872 0)
(0.457284 1.08016 0)
(0.455134 1.0561 0)
(0.557957 0.987574 0)
(1.04172 1.04781 0)
(-1.04172 -1.04781 0)
(-0.557957 -0.987574 0)
(-0.455134 -1.0561 0)
(-0.457284 -1.08016 0)
(-0.374707 -1.10872 0)
(-0.334061 -1.13986 0)
(-0.252107 -1.16191 0)
(-0.195653 -1.18571 0)
(-0.128131 -1.20032 0)
(-0.0726469 -1.21142 0)
(-0.029504 -1.21709 0)
(-0.00686498 -1.2193 0)
(-0.000648164 -1.21976 0)
(-1.71282e-05 -1.2198 0)
(-9.08426e-08 -1.2198 0)
(-7.27617e-11 -1.2198 0)
(9.80871e-14 -1.2198 0)
(1.10638e-13 -1.2198 0)
(1.14123e-13 -1.2198 0)
(5.69185e-14 -1.2198 0)
(4.146e-14 -1.2198 0)
(2.40855e-14 -1.2198 0)
(-3.32204e-15 -1.2198 0)
(-6.03114e-15 -1.2198 0)
(7.28705e-11 -1.2198 0)
(9.0842e-08 -1.2198 0)
(1.71282e-05 -1.2198 0)
(0.000648164 -1.21976 0)
(0.00686498 -1.2193 0)
(0.029504 -1.21709 0)
(0.0726469 -1.21142 0)
(0.128131 -1.20032 0)
(0.195653 -1.18571 0)
(0.252107 -1.16191 0)
(0.334061 -1.13986 0)
(0.374707 -1.10872 0)
(0.457284 -1.08016 0)
(0.455134 -1.0561 0)
(0.557957 -0.987574 0)
(1.04172 -1.04781 0)
(-0.984468 -0.565029 0)
(-0.537767 -0.542781 0)
(-0.4446 -0.584273 0)
(-0.404922 -0.583389 0)
(-0.354635 -0.58561 0)
(-0.29972 -0.585298 0)
(-0.243376 -0.586948 0)
(-0.187087 -0.588056 0)
(-0.130566 -0.590009 0)
(-0.0781967 -0.593241 0)
(-0.0361041 -0.597925 0)
(-0.0106927 -0.602564 0)
(-0.00151474 -0.604944 0)
(-7.00244e-05 -0.605416 0)
(-7.05277e-07 -0.605442 0)
(-1.06777e-09 -0.605442 0)
(-1.9714e-13 -0.605442 0)
(2.30625e-14 -0.605442 0)
(2.38721e-14 -0.605442 0)
(9.4125e-15 -0.605442 0)
(1.89879e-14 -0.605442 0)
(2.59748e-14 -0.605442 0)
(2.29459e-15 -0.605442 0)
(1.72298e-13 -0.605442 0)
(1.06781e-09 -0.605442 0)
(7.05277e-07 -0.605442 0)
(7.00244e-05 -0.605416 0)