/*--------------------------------*- C++ -*----------------------------------*\
| =========                 |                                                 |
| \\      /  F ield         | OpenFOAM: The Open Source CFD Toolbox           |
|  \\    /   O peration     | Version:  v1912                                 |
|   \\  /    A nd           | Website:  www.openfoam.com                      |
|    \\/     M anipulation  |                                                 |
\*---------------------------------------------------------------------------*/
FoamFile
{
    version     2.0;
    format      ascii;
    class       volVectorField;
    location    "8.86";
    object      grad(p);
}
// * * * * * * * * * * * * * * * * * * * * * * * * * * * * * * * * * * * * * //

dimensions      [1 -2 -2 0 0 0 0];


internalField   nonuniform List<vector> 
1900
(
(-24343.6 0.0414824 0)
(10912.7 0.0753617 0)
(323.972 -0.0962767 0)
(-1107.86 -0.536783 0)
(-939.952 -0.120534 0)
(-326.061 -0.279198 0)
(-13.0787 1.2773 0)
(-33.2606 7.74814 0)
(-156.155 63.0017 0)
(635.181 32.9813 0)
(-24343.5 0.0945622 0)
(10912.5 0.10326 0)
(323.359 -0.218778 0)
(-1107.89 -0.889049 0)
(-939.694 0.845202 0)
(-324.663 2.87236 0)
(-5.05133 3.72069 0)
(28.4639 -6.15345 0)
(-130.921 -0.218585 0)
(-369.117 -56.6796 0)
(-24343.4 3.67706e-09 0)
(10912.4 -6.57252e-10 0)
(322.979 -9.9476e-10 0)
(-1106.8 -1.58096e-09 0)
(-936.19 -8.34888e-10 0)
(-323.185 6.92779e-10 0)
(-22.1045 -7.28306e-10 0)
(-37.1999 -5.15143e-10 0)
(-206.681 -4.79616e-10 0)
(-483.129 -4.9738e-10 0)
(-24343.5 -0.0945622 0)
(10912.5 -0.10326 0)
(323.359 0.218778 0)
(-1107.89 0.889049 0)
(-939.694 -0.845202 0)
(-324.663 -2.87236 0)
(-5.05133 -3.72069 0)
(28.4639 6.15345 0)
(-130.921 0.218585 0)
(-369.117 56.6796 0)
(-24343.6 -0.0414824 0)
(10912.7 -0.0753617 0)
(323.972 0.0962767 0)
(-1107.86 0.536783 0)
(-939.952 0.120533 0)
(-326.061 0.279198 0)
(-13.0787 -1.2773 0)
(-33.2606 -7.74814 0)
(-156.155 -63.0017 0)
(635.181 -32.9813 0)
(-171.183 -802.14 8.45927e-12)
(-1841.36 -605.835 -9.90048e-12)
(-1797.57 -740.137 -1.24256e-11)
(283.445 -997.653 0)
(-18557.2 -7756.35 -5.37525e-11)
(-740.541 -974.919 8.31432e-12)
(-1303.95 -735.109 9.90048e-12)
(-1749.54 -819.625 1.24256e-11)
(-2295.78 -709.049 0)
(-17673.4 -7098.78 0)
(-1035.44 -6.91878e-10 0)
(-1342.41 -1.16866e-10 0)
(-1677.64 -1.28292e-09 0)
(-2323.39 1.68216e-10 0)
(-20401.8 -1.58603e-09 0)
(-740.541 974.919 8.31432e-12)
(-1303.95 735.109 9.90048e-12)
(-1749.54 819.625 1.24256e-11)
(-2295.78 709.049 0)
(-17673.4 7098.78 0)
(-171.183 802.14 -2.50879e-11)
(-1841.36 605.835 -9.90048e-12)
(-1797.57 740.137 -1.24256e-11)
(283.445 997.653 -3.33217e-11)
(-18557.2 7756.35 5.37525e-11)
(-36418.2 10336.3 9.92697e-12)
(-11048.4 4029.22 -4.86324e-12)
(-4965.42 1887.23 0)
(-3190.07 1268.79 2.01728e-12)
(-1211.95 661.551 -6.66326e-13)
(-32552.5 12779.8 -5.11914e-12)
(-12920.8 3266.05 2.49229e-12)
(-5650.58 1098.23 0)
(-3553.02 763.779 -1.29044e-12)
(-1898.35 72.8797 1.72111e-13)
(-33636.5 6.72862e-11 0)
(-14027.1 1.89782e-11 0)
(-5759.15 5.75671e-10 0)
(-3639.47 5.07945e-11 5.25375e-13)
(-1858.56 3.70074e-10 -3.44223e-13)
(-32552.5 -12779.8 -5.11914e-12)
(-12920.8 -3266.05 2.49229e-12)
(-5650.58 -1098.23 0)
(-3553.02 -763.779 -1.29044e-12)
(-1898.35 -72.8797 1.72111e-13)
(-36418.2 -10336.3 5.11914e-12)
(-11048.4 -4029.22 -1.21347e-13)
(-4965.42 -1887.23 0)
(-3190.07 -1268.79 3.82118e-14)
(-1211.95 -661.551 6.66326e-13)
(455.906 -1277.96 0)
(231.139 -356.668 0)
(-44.7502 774.453 0)
(-107.29 628.514 0)
(-212.928 398.157 0)
(-332.511 167.535 0)
(-400.009 -35.0868 0)
(-416.633 -175.716 0)
(-354.786 -246.747 0)
(-333.71 -223.845 0)
(-420.252 -218.384 0)
(-309.096 -151.135 0)
(53.6099 -84.3123 0)
(1002.34 -43.0086 0)
(1958.97 -24.6459 0)
(1315.62 28.0445 0)
(249.194 -71.318 0)
(-68.4536 -101.492 0)
(-145.033 -12.3595 0)
(-64.3117 80.714 0)
(-49.1848 185.54 0)
(-178.68 33.6199 0)
(-331.398 -221.596 0)
(-459.184 -305.054 0)
(-579.041 -317.218 0)
(-697.35 -293.118 0)
(-100.772 -210.983 0)
(-43.4761 -61.0025 0)
(-966.478 113.415 0)
(-581.778 28.5151 0)
(222.618 -2.79108 0)
(305.538 -1.99516 0)
(283.87 0.225641 0)
(279.761 0.441827 0)
(285.23 0.425285 0)
(294.639 0.758019 0)
(301.806 0.865686 0)
(313.011 1.14305 0)
(324.643 2.5979 0)
(337.133 3.19435 0)
(71.5982 -825.352 0)
(565.6 -971.827 0)
(164.068 279.147 0)
(-220.552 386.131 0)
(-327.189 235.291 0)
(-395.096 114.149 0)
(-417.104 46.1788 0)
(-412.75 -9.09686 0)
(-340.326 -33.2274 0)
(-322.102 -11.9347 0)
(-404.733 -19.7815 0)
(-294.748 7.808 0)
(58.7282 1.42031 0)
(1006.14 20.3383 0)
(1962.46 45.8147 0)
(1308.67 49.8696 0)
(233.845 -1.02956 0)
(-58.1358 -33.87 0)
(-120.54 -4.63558 0)
(-31.1025 34.8037 0)
(-41.9858 63.3423 0)
(-206.219 -52.8021 0)
(-337.126 -20.2007 0)
(-455.923 54.4685 0)
(-590.081 90.3133 0)
(-711.948 83.5847 0)
(-103.44 53.6464 0)
(-22.3783 8.43489 0)
(-957.916 55.1074 0)
(-594.605 10.443 0)
(219.247 -2.84534 0)
(305.877 -2.2493 0)
(284.239 -0.981502 0)
(279.949 -0.512454 0)
(285.493 -0.116601 0)
(295.001 0.254261 0)
(302.246 -0.213761 0)
(313.463 -0.477518 0)
(324.789 0.000482821 0)
(335.526 -0.230598 0)
(96.5161 2.94714e-10 0)
(552.448 6.78245e-10 0)
(350.292 4.88498e-10 0)
(-120.048 8.92216e-10 0)
(-292.05 4.44089e-10 0)
(-387.526 -3.02788e-10 0)
(-435.863 1.89747e-10 0)
(-439.733 4.19866e-10 0)
(-355.612 -1.97822e-10 0)
(-329.799 -2.01859e-10 0)
(-414.508 3.20955e-10 0)
(-302.928 3.18937e-10 0)
(57.2551 4.98591e-10 0)
(1015.25 -1.7158e-10 0)
(1967.56 2.82602e-11 0)
(1302 5.8539e-10 0)
(224.833 1.48972e-09 0)
(-69.5027 8.27621e-10 0)
(-125.055 1.87325e-09 0)
(-44.5363 -9.32184e-09 0)
(-74.6702 -4.43726e-08 0)
(-202.983 2.30886e-08 0)
(-300.192 1.40817e-08 0)
(-427.035 -5.09895e-09 0)
(-570.57 -2.29312e-09 0)
(-708.017 8.43769e-09 0)
(-122.633 7.24269e-09 0)
(-43.0511 6.44737e-09 0)
(-965.894 -8.00168e-09 0)
(-598.637 -8.81315e-09 0)
(218.926 -3.8555e-09 0)
(306.08 -1.47357e-09 0)
(284.376 -2.34156e-10 0)
(280.013 4.23903e-11 0)
(285.453 -5.04647e-10 0)
(294.61 -1.40897e-09 0)
(301.593 -1.82884e-09 0)
(313.073 -1.34034e-09 0)
(324.715 -1.69561e-10 0)
(337.2 5.08684e-10 0)
(71.5982 825.352 0)
(565.6 971.827 0)
(164.068 -279.147 0)
(-220.552 -386.131 0)
(-327.189 -235.291 0)
(-395.096 -114.149 0)
(-417.104 -46.1788 0)
(-412.75 9.09686 0)
(-340.326 33.2274 0)
(-322.102 11.9347 0)
(-404.733 19.7815 0)
(-294.748 -7.808 0)
(58.7282 -1.42031 0)
(1006.14 -20.3383 0)
(1962.46 -45.8147 0)
(1308.67 -49.8696 0)
(233.845 1.02956 0)
(-58.1358 33.87 0)
(-120.54 4.63558 0)
(-31.1025 -34.8037 0)
(-41.9858 -63.3423 0)
(-206.219 52.8021 0)
(-337.126 20.2007 0)
(-455.923 -54.4685 0)
(-590.081 -90.3133 0)
(-711.948 -83.5847 0)
(-103.44 -53.6464 0)
(-22.3783 -8.43489 0)
(-957.916 -55.1074 0)
(-594.605 -10.443 0)
(219.247 2.84534 0)
(305.877 2.2493 0)
(284.239 0.981502 0)
(279.949 0.512454 0)
(285.493 0.116601 0)
(295.001 -0.254261 0)
(302.246 0.213761 0)
(313.463 0.477518 0)
(324.789 -0.000482822 0)
(335.526 0.230598 0)
(455.906 1277.96 0)
(231.139 356.668 0)
(-44.7502 -774.453 0)
(-107.29 -628.514 0)
(-212.928 -398.157 0)
(-332.511 -167.535 0)
(-400.009 35.0868 0)
(-416.633 175.716 0)
(-354.786 246.747 0)
(-333.71 223.845 0)
(-420.252 218.384 0)
(-309.096 151.135 0)
(53.6099 84.3123 0)
(1002.34 43.0086 0)
(1958.97 24.6459 0)
(1315.62 -28.0445 0)
(249.194 71.318 0)
(-68.4536 101.492 0)
(-145.033 12.3595 0)
(-64.3117 -80.714 0)
(-49.1848 -185.54 0)
(-178.68 -33.6199 0)
(-331.398 221.596 0)
(-459.184 305.054 0)
(-579.041 317.218 0)
(-697.35 293.118 0)
(-100.772 210.983 0)
(-43.4761 61.0025 0)
(-966.478 -113.415 0)
(-581.778 -28.5151 0)
(222.618 2.79108 0)
(305.538 1.99516 0)
(283.87 -0.225641 0)
(279.761 -0.441827 0)
(285.23 -0.425285 0)
(294.639 -0.758019 0)
(301.806 -0.865686 0)
(313.011 -1.14305 0)
(324.643 -2.5979 0)
(337.133 -3.19435 0)
(-220.883 509.194 0)
(-335.101 -208.23 0)
(-212.465 -542.856 0)
(-115.47 -671.061 0)
(-170.144 -732.782 0)
(-195.697 -647.865 0)
(-221.557 -454.779 0)
(-275.491 -253.732 0)
(-293.416 -74.8584 0)
(-326.471 17.0291 0)
(-432.398 76.2491 0)
(-362.257 125.796 0)
(-3.17856 77.2211 0)
(973.108 54.191 0)
(1921.92 12.9031 0)
(1329.9 -120.456 0)
(297.353 3.65793 0)
(-83.1888 40.7223 0)
(-206.512 -35.044 0)
(-116.841 -102.639 0)
(-4.12113 -115.46 0)
(17.3228 -140.666 0)
(-131.307 -71.7761 0)
(-392.171 4.10825 0)
(-610.334 57.4197 0)
(-795.466 68.9227 0)
(-252.125 36.3278 0)
(-201.47 -68.4091 0)
(-1004.17 -177.333 0)
(-536.543 -34.507 0)
(234.488 2.65599 0)
(304.377 0.432598 0)
(283.136 -2.51888 0)
(280.04 -2.33837 0)
(285.6 -1.77545 0)
(295.144 -1.24367 0)
(302.514 -0.0691477 0)
(312.899 1.31236 0)
(323.672 -0.483177 0)
(337.301 -3.17788 0)
(-454.92 -69.0543 0)
(-479.019 -75.1729 0)
(-400.817 -7.35523 0)
(-285.923 -85.9987 0)
(-213.517 -163.565 0)
(-137.982 -210.536 0)
(-115.9 -249.228 0)
(-126.213 -244.731 0)
(-126.78 -184.633 0)
(-191.979 -130.867 0)
(-308.927 -54.9644 0)
(-279.653 69.9567 0)
(15.0604 71.8383 0)
(956.032 83.6479 0)
(1810.54 141.958 0)
(1299.06 -29.2812 0)
(378.686 41.2783 0)
(-97.8468 57.4623 0)
(-250.214 -28.6121 0)
(-113.635 -55.1569 0)
(-109.994 -51.5466 0)
(-241.687 -202.735 0)
(-299.183 -359.828 0)
(-370.621 -406.78 0)
(-499.803 -363.715 0)
(-665.063 -294.316 0)
(-151.949 -224.917 0)
(-164.646 -253.949 0)
(-913.599 -262.862 0)
(-432.591 -41.3829 0)
(249.922 -1.03923 0)
(301.174 -5.67921 0)
(281.594 -9.01469 0)
(280.328 -7.86316 0)
(286.086 -6.1916 0)
(296.012 -3.87427 0)
(303.889 -1.70856 0)
(312.672 0.751622 0)
(320.836 -1.1015 0)
(340.571 -4.49598 0)
(-359.865 16.6587 0)
(-275.646 71.9924 0)
(-222.897 132.218 0)
(-266 136.378 0)
(-290.153 119.759 0)
(-278.245 66.9638 0)
(-254.509 -30.5594 0)
(-213.245 -97.9144 0)
(-183.692 -136.256 0)
(-201.517 -208.407 0)
(-238.877 -191.202 0)
(-240.066 -28.1798 0)
(10.0147 95.5098 0)
(1040.68 198.001 0)
(1813.1 212.324 0)
(1232.88 -124.741 0)
(380.942 -186.453 0)
(-150.538 -207.719 0)
(-315.036 -207.039 0)
(-138.942 -135.571 0)
(-146.333 -136.298 0)
(-279.748 -165.566 0)
(-327.932 -167.75 0)
(-395.918 -185.016 0)
(-501.96 -191.137 0)
(-661.715 -193.89 0)
(-213.226 -201.915 0)
(-238.034 -347.739 0)
(-799.332 -339.49 0)
(-284.241 -48.9985 0)
(268.893 -3.92659 0)
(296.691 -11.2317 0)
(281.031 -15.7435 0)
(282.761 -14.6855 0)
(289.444 -12.1919 0)
(299.464 -8.51777 0)
(306.972 -4.64186 0)
(313.484 0.0658722 0)
(318.615 -0.759326 0)
(342.695 -2.75075 0)
(-369.493 17.96 0)
(-367.662 46.5159 0)
(-338.772 -10.0219 0)
(-297.929 -61.3293 0)
(-280.407 -69.8913 0)
(-282.834 -71.1065 0)
(-274.782 -103.799 0)
(-228.066 -122.699 0)
(-233.255 -158.288 0)
(-244.927 -239.05 0)
(-135.253 -192.574 0)
(-3.36688 -35.9334 0)
(233.016 150.141 0)
(1068.6 423.352 0)
(1499.53 242.816 0)
(914.78 -263.961 0)
(298.726 -368.825 0)
(-117.684 -409.105 0)
(-180.69 -354.894 0)
(-45.4666 -205.359 0)
(-138.899 -229.405 0)
(-271.995 -238.915 0)
(-317.926 -243.825 0)
(-393.158 -246.587 0)
(-508.353 -248.477 0)
(-675.449 -261.892 0)
(-300.203 -279.915 0)
(-297.219 -450.146 0)
(-625.721 -339.74 0)
(-109.229 -4.78173 0)
(286.316 42.2577 0)
(289.787 32.5155 0)
(278.266 22.5627 0)
(283.751 10.1661 0)
(292.03 -4.47367 0)
(303.287 -12.0994 0)
(312.16 -10.0744 0)
(316.414 -3.42086 0)
(318.122 -2.28481 0)
(343.953 -2.10137 0)
(-297.734 21.6195 0)
(-302.61 67.398 0)
(-326.82 104.339 0)
(-323.692 92.3176 0)
(-299.575 88.6436 0)
(-310.92 75.1525 0)
(-304.226 71.0434 0)
(-265.752 72.5946 0)
(-295.812 2.28167 0)
(-234.557 8.05947 0)
(-43.1465 129.788 0)
(90.1871 197.701 0)
(452.599 321.578 0)
(1129.98 522.479 0)
(1150.78 158.379 0)
(643.485 -184.799 0)
(241.077 -256.586 0)
(-137.114 -344.67 0)
(-118.7 -259.61 0)
(-18.0152 -162.369 0)
(-178.668 -266.151 0)
(-293.644 -277.172 0)
(-335.325 -280.973 0)
(-400.4 -272.701 0)
(-516.708 -258.939 0)
(-692.01 -259.895 0)
(-394.634 -274.024 0)
(-295.684 -412.696 0)
(-370.163 -179.243 0)
(83.8653 168.492 0)
(304.834 211.607 0)
(277.713 177.972 0)
(259.494 138.705 0)
(256.707 102.14 0)
(267.988 69.049 0)
(294.067 35.9192 0)
(315.335 5.41138 0)
(320.99 -4.01353 0)
(319.887 -3.78867 0)
(346.922 -2.16918 0)
(-283.712 7.32434 0)
(-287.95 22.0153 0)
(-314.759 37.6483 0)
(-313.054 57.2116 0)
(-296.948 66.7987 0)
(-299.794 54.9848 0)
(-277.247 78.3614 0)
(-294.327 99.1241 0)
(-295.443 72.1751 0)
(-122.058 122.459 0)
(47.492 193.075 0)
(181.449 225.48 0)
(545.985 365.708 0)
(911.335 364.379 0)
(817.976 -44.9049 0)
(514.905 -193.945 0)
(144.668 -358.315 0)
(-120.598 -480.728 0)
(-5.01768 -232.081 0)
(-51.7696 -234.747 0)
(-249.527 -313.817 0)
(-286.279 -291.16 0)
(-313.617 -232.694 0)
(-371.926 -154.851 0)
(-496.014 -97.3394 0)
(-689.984 -58.8313 0)
(-447.448 16.4609 0)
(-205.885 107.777 0)
(-65.667 558.597 0)
(267.408 876.053 0)
(295.451 844.965 0)
(219.536 713.671 0)
(205.191 566.249 0)
(216.627 417.743 0)
(228.217 276.783 0)
(241.964 161.859 0)
(273.68 89.6273 0)
(307.548 28.1878 0)
(319.899 2.02295 0)
(349.694 -1.24871 0)
(-269.461 6.44239 0)
(-273.389 15.585 0)
(-292.904 28.4423 0)
(-295.602 58.3522 0)
(-301.721 64.6199 0)
(-299.778 65.5902 0)
(-261.691 74.4984 0)
(-271.714 77.9975 0)
(-273.325 103.276 0)
(-118.053 158.238 0)
(56.1285 184.454 0)
(256.542 271.183 0)
(586.447 341.656 0)
(734.302 204.671 0)
(612.755 -81.6845 0)
(341.471 -277.183 0)
(-35.278 -571.915 0)
(-15.4703 -389.842 0)
(118.337 -220.465 0)
(-96.7787 -353.182 0)
(-233.031 -245.128 0)
(-215.471 -98.5424 0)
(-203.972 75.2333 0)
(-269.967 345.68 0)
(-424.18 626.72 0)
(-582.348 679.631 0)
(-234.084 823.116 0)
(226.739 1034.37 0)
(370.176 1442.96 0)
(359.82 1585.95 0)
(148.358 1463.3 0)
(9.13178 1294.07 0)
(-25.6728 1140.77 0)
(-22.2328 950.913 0)
(21.4091 723.035 0)
(113.717 493.284 0)
(186.524 292.55 0)
(236.571 137.838 0)
(291.521 40.7286 0)
(346.176 2.57458 0)
(-262.486 6.86845 0)
(-266.75 12.0582 0)
(-273.547 21.7175 0)
(-278.192 39.4694 0)
(-289.973 42.5049 0)
(-290.275 61.577 0)
(-265.291 86.8692 0)
(-266.596 91.6263 0)
(-218.12 134.872 0)
(-43.8314 239.572 0)
(156.33 292.153 0)
(332.934 324.252 0)
(481.891 245.706 0)
(503.389 38.7365 0)
(353.643 -165.096 0)
(42.5011 -447.457 0)
(36.1056 -557.938 0)
(218.073 -219.695 0)
(30.3094 -164.803 0)
(-75.5363 -82.5157 0)
(-4.14743 250.969 0)
(22.4334 816.297 0)
(114.452 1301.62 0)
(159.507 1558.5 0)
(-174.207 1528.16 0)
(-500.73 1201.95 0)
(-105.606 1001.57 0)
(391.423 1031.55 0)
(465.849 1256.05 0)
(287.006 1256.65 0)
(14.1927 1170.02 0)
(-91.2711 1116.68 0)
(-125.491 1117.76 0)
(-185.913 1098.15 0)
(-212.771 1019.21 0)
(-172.867 865.419 0)
(-68.8413 618.817 0)
(64.8837 355.892 0)
(189.555 145.48 0)
(307.966 10.9363 0)
(-251.223 10.4721 0)
(-259.08 19.9688 0)
(-266.49 22.741 0)
(-275.571 16.748 0)
(-280.417 4.82589 0)
(-257.027 5.23389 0)
(-232.735 12.7064 0)
(-225.456 23.2454 0)
(-130.76 97.829 0)
(33.5088 172.965 0)
(137.73 189.641 0)
(211.784 167.351 0)
(311.314 99.795 0)
(338.438 -89.8761 0)
(144.241 -400.019 0)
(-37.0854 -465.466 0)
(184.202 28.2707 0)
(363.369 185.991 0)
(250.528 523.008 0)
(303.875 1308.91 0)
(633.098 1873.16 0)
(796.975 2127.9 0)
(511.241 2157.27 0)
(-51.6623 1804.12 0)
(-767.77 1078.2 0)
(-1089.79 359.017 0)
(-398.283 27.7365 0)
(471.964 232.696 0)
(587.09 543.342 0)
(276.924 537.564 0)
(13.4753 528.897 0)
(-41.2281 550.914 0)
(-43.529 618.956 0)
(-117.207 702.917 0)
(-202.856 769.867 0)
(-272.112 813.421 0)
(-304.475 769.189 0)
(-219.553 583.132 0)
(-40.8915 313.782 0)
(195.447 40.1713 0)
(-233.152 -5.21305 0)
(-254.927 -22.809 0)
(-276.65 -45.1953 0)
(-295.456 -65.3512 0)
(-301.069 -63.7944 0)
(-282.681 -44.5906 0)
(-247.935 -21.3088 0)
(-184.569 37.6139 0)
(-73.845 132.481 0)
(44.6423 144.714 0)
(150.92 97.0693 0)
(246.355 66.3561 0)
(234.018 24.853 0)
(21.7495 -60.1281 0)
(-8.28887 113.313 0)
(455.217 565.214 0)
(663.873 1373.35 0)
(694.819 1848.98 0)
(1112.4 2293.37 0)
(1225.52 2581.73 0)
(785.054 2508.49 0)
(296.21 1881.6 0)
(-197.552 1099.81 0)
(-880.319 417.496 0)
(-1566.76 -300.806 0)
(-1513 -779.104 0)
(-227.333 -551.275 0)
(888.279 -65.827 0)
(759.631 176.224 0)
(273.086 165.082 0)
(27.0567 198.464 0)
(-4.4877 228.123 0)
(20.9849 271.37 0)
(-40.4893 331.399 0)
(-106.285 383.096 0)
(-173.52 454.536 0)
(-290.756 537.092 0)
(-373.964 545.838 0)
(-333.662 397.899 0)
(-33.1162 92.6001 0)
(-278.226 -11.7095 0)
(-297.608 -38.6981 0)
(-307.485 -37.9688 0)
(-293.493 -2.67686 0)
(-260.411 91.4765 0)
(-216.086 220.396 0)
(-153.52 375.572 0)
(-77.2589 557.144 0)
(-27.5545 722.346 0)
(-0.615319 793.095 0)
(62.2215 805.73 0)
(142.194 859.274 0)
(189.429 1105.7 0)
(423.681 1418.45 0)
(746.843 2018.64 0)
(1177.13 2553.18 0)
(1421.29 2704.28 0)
(1249.94 2838.24 0)
(956.629 2554.25 0)
(511.165 1730.15 0)
(-41.5753 949.881 0)
(-560.473 391.853 0)
(-899.619 -202.878 0)
(-1401.35 -779.415 0)
(-1920.86 -1186.84 0)
(-1331.15 -952.129 0)
(289.057 -358.814 0)
(1173.01 -60.9677 0)
(809.602 11.3116 0)
(298.355 24.106 0)
(74.224 68.1985 0)
(29.0266 101.932 0)
(55.9918 119.971 0)
(-9.54389 147.726 0)
(-84.1966 159.46 0)
(-123.716 169.522 0)
(-216.494 210.956 0)
(-353.684 270.275 0)
(-477.648 278.516 0)
(-277.216 110.472 0)
(-281.727 48.0479 0)
(-280.232 136.319 0)
(-241.939 369.396 0)
(-170.718 659.216 0)
(-86.1077 931.565 0)
(-8.9161 1226.52 0)
(76.5674 1540.51 0)
(149.594 1870.27 0)
(153.526 2160.89 0)
(124.994 2402.3 0)
(214.692 2640.74 0)
(535.418 2857.4 0)
(772.858 2967.3 0)
(901.49 3033.86 0)
(1085.18 2942.52 0)
(1115.92 2726.12 0)
(938.573 2105.96 0)
(550.252 1489.52 0)
(44.6042 862.681 0)
(-320.511 268.415 0)
(-504.58 -249.605 0)
(-814.631 -559.973 0)
(-1326.23 -870.829 0)
(-1828.5 -1337.43 0)
(-1733.19 -1262.84 0)
(-715.08 -468.308 0)
(631.422 -73.266 0)
(1244.95 -77.8804 0)
(841.611 -53.1331 0)
(327.905 2.62041 0)
(102.053 47.1254 0)
(45.4018 59.0572 0)
(65.1128 58.8074 0)
(-2.43562 64.0183 0)
(-85.2807 70.3844 0)
(-123.897 58.3768 0)
(-193.667 48.5507 0)
(-308.861 59.3792 0)
(-487.654 74.6796 0)
(-407.959 47.4418 0)
(-100.563 172.472 0)
(12.0551 545.798 0)
(196.397 1007.01 0)
(248.232 1447.22 0)
(286.268 1752.44 0)
(370.713 1971.2 0)
(466.819 2153.37 0)
(520.568 2305.55 0)
(485.126 2440.12 0)
(461.786 2650.21 0)
(500.774 2872.42 0)
(456.877 2890.84 0)
(359.467 2540.74 0)
(399.799 2180.45 0)
(450.3 1722.33 0)
(370.989 1228.47 0)
(229.656 683.674 0)
(51.8732 191.111 0)
(-220.074 -162.133 0)
(-560.673 -386.821 0)
(-839.84 -644.791 0)
(-1159.11 -1017.39 0)
(-1648.8 -1388.93 0)
(-1779.11 -1388.05 0)
(-1083.34 -689.051 0)
(-184.839 -10.1545 0)
(665.287 79.4852 0)
(1192.41 -113.143 0)
(887.176 -129.934 0)
(394.968 -38.9689 0)
(128.609 25.9453 0)
(40.2838 37.5706 0)
(60.7725 34.5654 0)
(1.61213 32.4269 0)
(-89.6329 44.4544 0)
(-144.756 31.3559 0)
(-215.528 11.998 0)
(-328.505 -8.45864 0)
(-489.151 -30.1702 0)
(-394.897 5.44172 0)
(410.424 290.894 0)
(523.955 644.627 0)
(626.702 890.697 0)
(547.606 952.338 0)
(418.82 950.535 0)
(377.442 892.751 0)
(398.757 854.004 0)
(425.915 862.439 0)
(485.66 940.031 0)
(541.572 1092.36 0)
(446.567 1170.14 0)
(215.801 1095.39 0)
(88.3061 1016.17 0)
(112.836 912.548 0)
(167.815 661.963 0)
(115.038 399.951 0)
(-61.0678 96.2673 0)
(-264.8 -234.018 0)
(-512.312 -558.817 0)
(-785.617 -806.801 0)
(-1112.22 -1079.71 0)
(-1531.71 -1435.77 0)
(-1683.41 -1486.2 0)
(-1154.07 -840.606 0)
(-405.4 -97.7733 0)
(25.5094 173.574 0)
(532.179 140.453 0)
(1043.14 -142.765 0)
(913.088 -223.526 0)
(478.115 -121.855 0)
(175.809 -55.0049 0)
(53.7085 -26.7219 0)
(60.1562 -28.2241 0)
(7.09379 -32.4544 0)
(-86.3128 -7.08689 0)
(-155.173 -3.0247 0)
(-232.034 -15.7976 0)
(-349.496 -29.856 0)
(-474.259 -49.6242 0)
(-384.13 1.90017 0)
(800.94 78.8303 0)
(590.047 76.0857 0)
(492.919 -0.402807 0)
(305.894 -172.746 0)
(228.848 -237.155 0)
(277.692 -214.895 0)
(437.609 -147.04 0)
(603.467 -42.0832 0)
(706.69 83.4653 0)
(683.529 174.332 0)
(503.69 264.492 0)
(308.507 375.903 0)
(183.274 501.407 0)
(58.469 468.309 0)
(-43.6575 284.04 0)
(-174.135 -26.2245 0)
(-381.259 -316.185 0)
(-579.39 -606.005 0)
(-772.028 -911.314 0)
(-1062.63 -1232.51 0)
(-1445.94 -1528.47 0)
(-1550.82 -1503.63 0)
(-1075.28 -890.506 0)
(-441.165 -160.185 0)
(-106.043 169.266 0)
(44.7245 219.356 0)
(360.451 175.445 0)
(841.665 -115.621 0)
(907.325 -276.246 0)
(557.361 -185.372 0)
(220.283 -108.771 0)
(66.0908 -77.3655 0)
(55.2485 -93.1797 0)
(21.9807 -105.033 0)
(-61.2734 -82.2368 0)
(-153.15 -71.4481 0)
(-241.383 -83.0261 0)
(-361.102 -78.2564 0)
(-458.55 -77.264 0)
(-348.908 -25.0957 0)
(559.707 -193.454 0)
(447.603 -391.921 0)
(386.918 -523.947 0)
(319.463 -546.707 0)
(378.204 -449.287 0)
(464.281 -316.836 0)
(565.284 -212.862 0)
(648.038 -182.935 0)
(694.206 -189.854 0)
(716.015 -179.132 0)
(640.808 -65.4477 0)
(444.101 88.943 0)
(177.352 126.254 0)
(-96.6266 -3.44471 0)
(-308.736 -214.168 0)
(-463.361 -506 0)
(-619.765 -770.001 0)
(-838.287 -1032.22 0)
(-1116.03 -1334.77 0)
(-1380.33 -1582.71 0)
(-1373.48 -1459.31 0)
(-916.945 -843.816 0)
(-388.822 -169.803 0)
(-132.837 162.084 0)
(-39.6601 248.908 0)
(31.4643 244.369 0)
(209.382 206.888 0)
(607.876 -24.3364 0)
(845.873 -271.536 0)
(639.5 -252 0)
(279.889 -164.564 0)
(68.7325 -122.93 0)
(33.4951 -146.967 0)
(17.6388 -159.291 0)
(-53.9496 -157.215 0)
(-155.934 -155.737 0)
(-238.594 -156.228 0)
(-343.943 -131.505 0)
(-423.031 -88.3117 0)
(-285.493 -32.7326 0)
(236.85 -223.519 0)
(271.573 -390.372 0)
(343.762 -490.603 0)
(377.839 -510.375 0)
(450.36 -491.164 0)
(505.521 -494.865 0)
(566.641 -531.821 0)
(625.638 -596.854 0)
(710.355 -635.404 0)
(803.412 -596.827 0)
(762.016 -526.658 0)
(493.238 -486.802 0)
(94.2458 -510.676 0)
(-269.574 -601.58 0)
(-527.938 -787.859 0)
(-709.756 -1025.49 0)
(-888.339 -1274.59 0)
(-1123.62 -1495.31 0)
(-1302.51 -1574.55 0)
(-1182.64 -1317.09 0)
(-733.908 -718.956 0)
(-308.201 -136.927 0)
(-105.961 154.265 0)
(-37.6793 253.646 0)
(-26.7498 279.844 0)
(4.23263 269.328 0)
(101.517 222.626 0)
(380.638 96.3352 0)
(687.941 -205.708 0)
(660.443 -325.01 0)
(344.659 -273.494 0)
(83.0477 -212.426 0)
(20.2096 -222.081 0)
(12.1051 -240.819 0)
(-57.849 -257.388 0)
(-152.198 -247.415 0)
(-218.032 -217.025 0)
(-295.655 -190.971 0)
(-363.369 -97.0416 0)
(-232.266 -60.0332 0)
(-31.8603 -237.694 0)
(190.232 -273.943 0)
(271.279 -390.484 0)
(318.922 -471.559 0)
(393.149 -560.786 0)
(425.103 -665.811 0)
(467.004 -779.39 0)
(548.221 -886.308 0)
(694.231 -960.232 0)
(820.806 -1003.38 0)
(746.833 -1063.84 0)
(459.502 -1139.52 0)
(66.7477 -1229.78 0)
(-363.73 -1322.33 0)
(-717.232 -1472 0)
(-932.392 -1587.1 0)
(-1072.5 -1629.2 0)
(-1127.34 -1505.86 0)
(-944.296 -1110.7 0)
(-555.848 -540.091 0)
(-236.231 -65.0562 0)
(-75.4774 162.758 0)
(-12.4521 252.318 0)
(-11.8234 275.314 0)
(-24.548 281.124 0)
(-23.6732 282.051 0)
(42.6795 253.351 0)
(195.118 177.322 0)
(439.85 -70.4076 0)
(574.179 -314.275 0)
(388.378 -380.137 0)
(118.276 -325.584 0)
(6.13431 -318.653 0)
(-16.3846 -352.874 0)
(-60.3049 -387.041 0)
(-117.038 -367.128 0)
(-184.203 -309.641 0)
(-228.323 -243.314 0)
(-296.854 1.56389 0)
(-134.13 64.6995 0)
(-256.182 -351.068 0)
(124.339 -351.86 0)
(153.332 -397.257 0)
(213.729 -391.873 0)
(263.172 -512.43 0)
(294.866 -652.204 0)
(354.162 -767.018 0)
(451.371 -847.584 0)
(597.537 -926.672 0)
(703.569 -1118.02 0)
(630.833 -1415.41 0)
(333.33 -1764.25 0)
(-81.9224 -2082.74 0)
(-502.985 -2246.43 0)
(-783.08 -2161.16 0)
(-861.236 -1881.2 0)
(-810.047 -1474.89 0)
(-623.976 -952.182 0)
(-371.861 -397.168 0)
(-175.018 -5.80802 0)
(-56.6175 176.157 0)
(-2.36752 248.429 0)
(2.50271 260.861 0)
(-9.92041 261.92 0)
(-20.2577 268.862 0)
(-22.531 281.551 0)
(0.596032 287.882 0)
(68.6531 235.311 0)
(214.22 90.0902 0)
(361.976 -194.29 0)
(333.762 -436.972 0)
(142.296 -488.541 0)
(-6.08822 -485.582 0)
(-53.7958 -477.614 0)
(-71.5843 -472.937 0)
(-77.6129 -440.247 0)
(-98.7216 -378.799 0)
(4.2331 -314.522 0)
(-66.5555 -80.1031 0)
(-296.119 62.4641 0)
(-709.227 555.257 0)
(145.723 446.582 0)
(232.721 275.004 0)
(207.937 45.9617 0)
(142.285 -162.574 0)
(179.772 -374.795 0)
(278.728 -655.123 0)
(394.373 -1031.57 0)
(433.624 -1532.78 0)
(349.837 -2101.64 0)
(124.106 -2625.94 0)
(-183.558 -2885.07 0)
(-397.903 -2781.36 0)
(-439.3 -2387.14 0)
(-365.279 -1803.52 0)
(-271.075 -1195.44 0)
(-177.262 -628.482 0)
(-88.8128 -170.878 0)
(-32.3355 111.205 0)
(-3.37149 248.572 0)
(8.76108 296.326 0)
(6.14682 298.234 0)
(0.54812 292.404 0)
(-4.11337 295.068 0)
(-5.63072 306.968 0)
(-5.34531 321.934 0)
(-1.87903 335.896 0)
(4.51919 323.265 0)
(25.8712 259.962 0)
(66.2825 74.1138 0)
(104.827 -184.457 0)
(71.4342 -381.025 0)
(16.6643 -406.252 0)
(-4.20009 -392.001 0)
(-24.297 -346.067 0)
(-26.3237 -292.501 0)
(-63.0504 -238.209 0)
(59.5114 -124.624 0)
(66.4232 -304.359 0)
(-117.132 -124.487 0)
(-709.227 -555.257 0)
(145.723 -446.582 0)
(232.721 -275.004 0)
(207.937 -45.9617 0)
(142.285 162.574 0)
(179.772 374.795 0)
(278.728 655.123 0)
(394.373 1031.57 0)
(433.624 1532.78 0)
(349.837 2101.64 0)
(124.106 2625.94 0)
(-183.558 2885.07 0)
(-397.903 2781.36 0)
(-439.3 2387.14 0)
(-365.279 1803.52 0)
(-271.075 1195.44 0)
(-177.262 628.482 0)
(-88.8128 170.878 0)
(-32.3355 -111.205 0)
(-3.37149 -248.572 0)
(8.76108 -296.326 0)
(6.14682 -298.234 0)
(0.54812 -292.404 0)
(-4.11337 -295.068 0)
(-5.63072 -306.968 0)
(-5.34531 -321.934 0)
(-1.87903 -335.896 0)
(4.51919 -323.265 0)
(25.8712 -259.962 0)
(66.2825 -74.1138 0)
(104.827 184.457 0)
(71.4342 381.025 0)
(16.6643 406.252 0)
(-4.20009 392.001 0)
(-24.297 346.067 0)
(-26.3237 292.501 0)
(-63.0504 238.209 0)
(59.5114 124.624 0)
(66.4232 304.359 0)
(-117.132 124.487 0)
(-256.182 351.068 0)
(124.339 351.86 0)
(153.332 397.257 0)
(213.729 391.873 0)
(263.172 512.43 0)
(294.866 652.204 0)
(354.162 767.018 0)
(451.371 847.584 0)
(597.537 926.672 0)
(703.569 1118.02 0)
(630.833 1415.41 0)
(333.33 1764.25 0)
(-81.9224 2082.74 0)
(-502.985 2246.43 0)
(-783.08 2161.16 0)
(-861.236 1881.2 0)
(-810.047 1474.89 0)
(-623.976 952.182 0)
(-371.861 397.168 0)
(-175.018 5.80802 0)
(-56.6175 -176.157 0)
(-2.36752 -248.429 0)
(2.50271 -260.861 0)
(-9.92041 -261.92 0)
(-20.2577 -268.862 0)
(-22.531 -281.551 0)
(0.596032 -287.882 0)
(68.6531 -235.311 0)
(214.22 -90.0902 0)
(361.976 194.29 0)
(333.762 436.972 0)
(142.296 488.541 0)
(-6.08822 485.582 0)
(-53.7958 477.614 0)
(-71.5843 472.937 0)
(-77.6129 440.247 0)
(-98.7216 378.799 0)
(4.2331 314.522 0)
(-66.5555 80.1031 0)
(-296.119 -62.4641 0)
(-31.8603 237.694 0)
(190.232 273.943 0)
(271.279 390.484 0)
(318.922 471.559 0)
(393.149 560.786 0)
(425.103 665.811 0)
(467.004 779.39 0)
(548.221 886.308 0)
(694.231 960.232 0)
(820.806 1003.38 0)
(746.833 1063.84 0)
(459.502 1139.52 0)
(66.7477 1229.78 0)
(-363.73 1322.33 0)
(-717.232 1472 0)
(-932.392 1587.1 0)
(-1072.5 1629.2 0)
(-1127.34 1505.86 0)
(-944.296 1110.7 0)
(-555.848 540.091 0)
(-236.231 65.0562 0)
(-75.4774 -162.758 0)
(-12.4521 -252.318 0)
(-11.8234 -275.314 0)
(-24.548 -281.124 0)
(-23.6732 -282.051 0)
(42.6795 -253.351 0)
(195.118 -177.322 0)
(439.85 70.4076 0)
(574.179 314.275 0)
(388.378 380.137 0)
(118.276 325.584 0)
(6.13431 318.653 0)
(-16.3846 352.874 0)
(-60.3049 387.041 0)
(-117.038 367.128 0)
(-184.203 309.641 0)
(-228.323 243.314 0)
(-296.854 -1.56389 0)
(-134.13 -64.6995 0)
(236.85 223.519 0)
(271.573 390.372 0)
(343.762 490.603 0)
(377.839 510.375 0)
(450.36 491.164 0)
(505.521 494.865 0)
(566.641 531.821 0)
(625.638 596.854 0)
(710.355 635.404 0)
(803.412 596.827 0)
(762.016 526.658 0)
(493.238 486.802 0)
(94.2458 510.676 0)
(-269.574 601.58 0)
(-527.938 787.859 0)
(-709.756 1025.49 0)
(-888.339 1274.59 0)
(-1123.62 1495.31 0)
(-1302.51 1574.55 0)
(-1182.64 1317.09 0)
(-733.908 718.956 0)
(-308.201 136.927 0)
(-105.961 -154.265 0)
(-37.6793 -253.646 0)
(-26.7498 -279.844 0)
(4.23263 -269.328 0)
(101.517 -222.626 0)
(380.638 -96.3352 0)
(687.941 205.708 0)
(660.443 325.01 0)
(344.659 273.494 0)
(83.0477 212.426 0)
(20.2096 222.081 0)
(12.1051 240.819 0)
(-57.849 257.388 0)
(-152.198 247.415 0)
(-218.032 217.025 0)
(-295.655 190.971 0)
(-363.369 97.0416 0)
(-232.266 60.0332 0)
(559.707 193.454 0)
(447.603 391.921 0)
(386.918 523.947 0)
(319.463 546.707 0)
(378.204 449.287 0)
(464.281 316.836 0)
(565.284 212.862 0)
(648.038 182.935 0)
(694.206 189.854 0)
(716.015 179.132 0)
(640.808 65.4477 0)
(444.101 -88.943 0)
(177.352 -126.254 0)
(-96.6266 3.44471 0)
(-308.736 214.168 0)
(-463.361 506 0)
(-619.765 770.001 0)
(-838.287 1032.22 0)
(-1116.03 1334.77 0)
(-1380.33 1582.71 0)
(-1373.48 1459.31 0)
(-916.945 843.816 0)
(-388.822 169.803 0)
(-132.837 -162.084 0)
(-39.6601 -248.908 0)
(31.4643 -244.369 0)
(209.382 -206.888 0)
(607.876 24.3364 0)
(845.873 271.536 0)
(639.5 252 0)
(279.889 164.564 0)
(68.7325 122.93 0)
(33.4951 146.967 0)
(17.6388 159.291 0)
(-53.9496 157.215 0)
(-155.934 155.737 0)
(-238.594 156.228 0)
(-343.943 131.505 0)
(-423.031 88.3117 0)
(-285.493 32.7326 0)
(800.94 -78.8303 0)
(590.047 -76.0857 0)
(492.919 0.402807 0)
(305.894 172.746 0)
(228.848 237.155 0)
(277.692 214.895 0)
(437.609 147.04 0)
(603.467 42.0832 0)
(706.69 -83.4653 0)
(683.529 -174.332 0)
(503.69 -264.492 0)
(308.507 -375.903 0)
(183.274 -501.407 0)
(58.469 -468.309 0)
(-43.6575 -284.04 0)
(-174.135 26.2245 0)
(-381.259 316.185 0)
(-579.39 606.005 0)
(-772.028 911.314 0)
(-1062.63 1232.51 0)
(-1445.94 1528.47 0)
(-1550.82 1503.63 0)
(-1075.28 890.506 0)
(-441.165 160.185 0)
(-106.043 -169.266 0)
(44.7245 -219.356 0)
(360.451 -175.445 0)
(841.665 115.621 0)
(907.325 276.246 0)
(557.361 185.372 0)
(220.283 108.771 0)
(66.0908 77.3655 0)
(55.2485 93.1797 0)
(21.9807 105.033 0)
(-61.2734 82.2368 0)
(-153.15 71.4481 0)
(-241.383 83.0261 0)
(-361.102 78.2564 0)
(-458.55 77.264 0)
(-348.908 25.0957 0)
(410.424 -290.894 0)
(523.955 -644.627 0)
(626.702 -890.697 0)
(547.606 -952.338 0)
(418.82 -950.535 0)
(377.442 -892.751 0)
(398.757 -854.004 0)
(425.915 -862.439 0)
(485.66 -940.031 0)
(541.572 -1092.36 0)
(446.567 -1170.14 0)
(215.801 -1095.39 0)
(88.3061 -1016.17 0)
(112.836 -912.548 0)
(167.815 -661.963 0)
(115.038 -399.951 0)
(-61.0678 -96.2673 0)
(-264.8 234.018 0)
(-512.312 558.817 0)
(-785.617 806.801 0)
(-1112.22 1079.71 0)
(-1531.71 1435.77 0)
(-1683.41 1486.2 0)
(-1154.07 840.606 0)
(-405.4 97.7733 0)
(25.5094 -173.574 0)
(532.179 -140.453 0)
(1043.14 142.765 0)
(913.088 223.526 0)
(478.115 121.855 0)